/*--------------------------------*- C++ -*----------------------------------*\
| =========                 |                                                 |
| \\      /  F ield         | OpenFOAM: The Open Source CFD Toolbox           |
|  \\    /   O peration     | Version:  2.3.0                                 |
|   \\  /    A nd           | Web:      www.OpenFOAM.org                      |
|    \\/     M anipulation  |                                                 |
\*---------------------------------------------------------------------------*/
FoamFile
{
    version     2.0;
    format      ascii;
    class       volScalarField;
    location    "42";
    object      dsauterMean;
}
// * * * * * * * * * * * * * * * * * * * * * * * * * * * * * * * * * * * * * //

dimensions      [0 0 0 0 0 0 0];

internalField   nonuniform List<scalar> 
6144
(
0.00833335
0.00833335
0.00833335
0.00833335
0.00833335
0.00833335
0.00833335
0.00833335
0.00833335
0.00833335
0.00833335
0.00833335
0.00833335
0.00833335
0.00833335
0.00833335
0.00833335
0.00833335
0.00833335
0.00833335
0.00833335
0.00833335
0.00833335
0.00833335
0.00833335
0.00833335
0.00833335
0.00833335
0.00833335
0.00833335
0.00833335
0.00833335
0.00833335
0.00833335
0.00833335
0.00833335
0.00833335
0.00833335
0.00833335
0.00833335
0.00833335
0.00833335
0.00833335
0.00833335
0.00833335
0.00833335
0.00833335
0.00833335
0.00833335
0.00833335
0.00833335
0.00833335
0.00833335
0.00833335
0.00833335
0.00833335
0.00833335
0.00833329
0.00832475
0.00834446
0.00833702
0.00833303
0.00210339
0.000256888
0.000251923
0.000248005
0.000244084
0.000238204
0.000234281
0.000229386
0.000225462
0.00022056
0.00021664
0.000212719
0.000208799
0.000203896
0.000199978
0.000196054
0.000192135
0.000188266
0.000184006
0.000181019
0.000175726
0.000173809
0.000169325
0.00016665
0.000162683
0.000159885
0.00015679
0.000154889
0.000152928
0.000150968
0.000149989
0.000149007
0.000149981
0.000149024
0.00833335
0.00833335
0.00833335
0.00833335
0.00833335
0.00833335
0.00833335
0.00833335
0.00833335
0.00833335
0.00833335
0.00833335
0.00833335
0.00833335
0.00833335
0.00833335
0.00833335
0.00833335
0.00833335
0.00833335
0.00833335
0.00833335
0.00833335
0.00833335
0.00833335
0.00833335
0.00833335
0.00833335
0.00833335
0.00833335
0.00833335
0.00833335
0.00833335
0.00833335
0.00833335
0.00833335
0.00833335
0.00833335
0.00833335
0.00833335
0.00833335
0.00833335
0.00833335
0.00833335
0.00833335
0.00833335
0.00833335
0.00833335
0.00833335
0.00833335
0.00833335
0.00833335
0.00833335
0.00833335
0.00833335
0.00833335
0.00833335
0.00833312
0.00832385
0.00834454
0.00836868
0.00833116
0.000319556
0.000328386
0.000291063
0.000320346
0.000312674
0.000299566
0.00027449
0.00024532
0.000233376
0.000221404
0.00021759
0.000212699
0.000208126
0.000203774
0.000200133
0.000196525
0.000191715
0.000188172
0.000184537
0.000180297
0.000176735
0.000173524
0.000169607
0.000166725
0.00016371
0.00016077
0.000157831
0.000154889
0.000152929
0.000151949
0.000149747
0.00015008
0.000149997
0.000150007
0.00833335
0.00833335
0.00833335
0.00833335
0.00833335
0.00833335
0.00833335
0.00833335
0.00833335
0.00833335
0.00833335
0.00833335
0.00833335
0.00833335
0.00833335
0.00833335
0.00833335
0.00833335
0.00833335
0.00833335
0.00833335
0.00833335
0.00833335
0.00833335
0.00833335
0.00833335
0.00833335
0.00833335
0.00833335
0.00833335
0.00833335
0.00833335
0.00833335
0.00833335
0.00833335
0.00833335
0.00833335
0.00833335
0.00833335
0.00833335
0.00833335
0.00833335
0.00833335
0.00833335
0.00833335
0.00833335
0.00833335
0.00833335
0.00833335
0.00833335
0.00833335
0.00833335
0.00833335
0.00833335
0.00833335
0.00833335
0.00833335
0.00833335
0.00833368
0.0083569
0.00761484
0.00657999
0.00123667
0.00117497
0.00115386
0.00113133
0.00111204
0.00104471
0.00100265
0.000926564
0.0008988
0.000838589
0.000807301
0.000730331
0.000674571
0.000581818
0.000445097
0.000328612
0.000231676
0.000205336
0.000202268
0.000198016
0.000194096
0.000188211
0.000180307
0.000170574
0.00016371
0.000160771
0.00015783
0.000154889
0.00015305
0.000151851
0.000150006
0.000149525
0.000151226
0.000150076
0.00833335
0.00833335
0.00833335
0.00833335
0.00833335
0.00833335
0.00833335
0.00833335
0.00833335
0.00833335
0.00833335
0.00833335
0.00833335
0.00833335
0.00833335
0.00833335
0.00833335
0.00833335
0.00833335
0.00833335
0.00833335
0.00833335
0.00833335
0.00833335
0.00833335
0.00833335
0.00833335
0.00833335
0.00833335
0.00833335
0.00833335
0.00833335
0.00833335
0.00833335
0.00833335
0.00833335
0.00833335
0.00833335
0.00833335
0.00833335
0.00833335
0.00833335
0.00833335
0.00833335
0.00833335
0.00833335
0.00833335
0.00833335
0.00833335
0.00833335
0.00833335
0.00833335
0.00833335
0.00833335
0.00833335
0.00833335
0.00833335
0.00833335
0.00833014
0.00833695
0.00835326
0.00499006
0.00295857
0.00210218
0.00202421
0.00185485
0.00178278
0.0017983
0.00177109
0.00176348
0.00179206
0.00173518
0.00171623
0.00169051
0.00165252
0.00160741
0.00158226
0.00150622
0.00136733
0.00127794
0.00115795
0.00106338
0.000863843
0.000668723
0.000592803
0.000485213
0.000374477
0.000291292
0.0001878
0.000159789
0.000152933
0.000151616
0.000150369
0.000149985
0.000149988
0.000150968
0.00833335
0.00833335
0.00833335
0.00833335
0.00833335
0.00833335
0.00833335
0.00833335
0.00833335
0.00833335
0.00833335
0.00833335
0.00833335
0.00833335
0.00833335
0.00833335
0.00833335
0.00833335
0.00833335
0.00833335
0.00833335
0.00833335
0.00833335
0.00833335
0.00833335
0.00833335
0.00833335
0.00833335
0.00833335
0.00833335
0.00833335
0.00833335
0.00833335
0.00833335
0.00833335
0.00833335
0.00833335
0.00833335
0.00833335
0.00833335
0.00833335
0.00833335
0.00833335
0.00833335
0.00833335
0.00833335
0.00833335
0.00833335
0.00833335
0.00833335
0.00833335
0.00833335
0.00833335
0.00833335
0.00833335
0.00833335
0.00833335
0.00833335
0.00833332
0.00835497
0.00738822
0.00832315
0.00829349
0.00825307
0.00792056
0.00654448
0.00651507
0.00620438
0.00619734
0.00614971
0.00614991
0.00614895
0.00593052
0.00594157
0.00575278
0.00544426
0.00508351
0.00469239
0.00426116
0.00362017
0.00308497
0.00267034
0.00226919
0.00185287
0.00155686
0.00137606
0.00100249
0.000908792
0.000682314
0.000526209
0.000192135
0.000150968
0.000149005
0.000149003
0.000149993
0.000149988
0.00833335
0.00833335
0.00833335
0.00833335
0.00833335
0.00833335
0.00833335
0.00833335
0.00833335
0.00833335
0.00833335
0.00833335
0.00833335
0.00833335
0.00833335
0.00833335
0.00833335
0.00833335
0.00833335
0.00833335
0.00833335
0.00833335
0.00833335
0.00833335
0.00833335
0.00833335
0.00833335
0.00833335
0.00833335
0.00833335
0.00833335
0.00833335
0.00833335
0.00833335
0.00833335
0.00833335
0.00833335
0.00833335
0.00833335
0.00833335
0.00833335
0.00833335
0.00833335
0.00833335
0.00833335
0.00833335
0.00833335
0.00833335
0.00833335
0.00833335
0.00833335
0.00833335
0.00833335
0.00833335
0.00833335
0.00833335
0.00833335
0.00833335
0.00833335
0.00835037
0.00733949
0.0078812
0.00795247
0.00830772
0.00818788
0.00824846
0.00831399
0.00811901
0.00826713
0.00788008
0.00840918
0.00791308
0.00816788
0.00811886
0.00812436
0.0079681
0.00801568
0.00794838
0.00769018
0.00789429
0.00770783
0.00758912
0.00739076
0.0070101
0.0064179
0.00558244
0.005106
0.00423773
0.00284251
0.00211103
0.00147904
0.000679071
0.000150031
0.000148135
0.000148
0.000150065
0.00833335
0.00833335
0.00833335
0.00833335
0.00833335
0.00833335
0.00833335
0.00833335
0.00833335
0.00833335
0.00833335
0.00833335
0.00833335
0.00833335
0.00833335
0.00833335
0.00833335
0.00833335
0.00833335
0.00833335
0.00833335
0.00833335
0.00833335
0.00833335
0.00833335
0.00833335
0.00833335
0.00833335
0.00833335
0.00833335
0.00833335
0.00833335
0.00833335
0.00833335
0.00833335
0.00833335
0.00833335
0.00833335
0.00833335
0.00833335
0.00833335
0.00833335
0.00833335
0.00833335
0.00833335
0.00833335
0.00833335
0.00833335
0.00833335
0.00833335
0.00833335
0.00833335
0.00833335
0.00833335
0.00833335
0.00833335
0.00833335
0.00833333
0.00833356
0.00833304
0.00833348
0.00927378
0.00596075
0.00833209
0.00818032
0.00798109
0.00830243
0.00723327
0.00804794
0.00773072
0.00803012
0.00787452
0.00824834
0.00783484
0.00821892
0.00790411
0.00874464
0.00728016
0.00814555
0.00838507
0.00792642
0.00830261
0.00819094
0.00811673
0.00785494
0.00759323
0.00774066
0.00785723
0.00746003
0.00672838
0.00624714
0.00604006
0.00612007
0.00512317
0.00458808
0.00558837
0.00833335
0.00833335
0.00833335
0.00833335
0.00833335
0.00833335
0.00833335
0.00833335
0.00833335
0.00833335
0.00833335
0.00833335
0.00833335
0.00833335
0.00833335
0.00833335
0.00833335
0.00833335
0.00833335
0.00833335
0.00833335
0.00833335
0.00833335
0.00833335
0.00833335
0.00833335
0.00833335
0.00833335
0.00833335
0.00833335
0.00833335
0.00833335
0.00833335
0.00833335
0.00833335
0.00833335
0.00833335
0.00833335
0.00833335
0.00833335
0.00833335
0.00833335
0.00833335
0.00833335
0.00833335
0.00833335
0.00833335
0.00833335
0.00833335
0.00833335
0.00833335
0.00833335
0.00833335
0.00833335
0.00833335
0.00833335
0.00833335
0.00833333
0.00833405
0.00833225
0.00831657
0.00828084
0.00832142
0.00827046
0.00833143
0.00816232
0.007946
0.00871745
0.00806064
0.00840019
0.00812178
0.00830033
0.00831657
0.00832257
0.00827089
0.00825026
0.00801683
0.00844129
0.00830098
0.00830508
0.00830019
0.00831798
0.00831336
0.00821747
0.00825688
0.0080837
0.00779091
0.0075886
0.00744514
0.00773987
0.00699105
0.00674485
0.00720264
0.0068809
0.00729271
0.00753995
0.00833335
0.00833335
0.00833335
0.00833335
0.00833335
0.00833335
0.00833335
0.00833335
0.00833335
0.00833335
0.00833335
0.00833335
0.00833335
0.00833335
0.00833335
0.00833335
0.00833335
0.00833335
0.00833335
0.00833335
0.00833335
0.00833335
0.00833335
0.00833335
0.00833335
0.00833335
0.00833335
0.00833335
0.00833335
0.00833335
0.00833335
0.00833335
0.00833335
0.00833335
0.00833335
0.00833335
0.00833335
0.00833335
0.00833335
0.00833335
0.00833335
0.00833335
0.00833335
0.00833335
0.00833335
0.00833335
0.00833335
0.00833335
0.00833335
0.00833335
0.00833335
0.00833335
0.00833335
0.00833335
0.00833335
0.00833335
0.00833335
0.00833333
0.00833355
0.00833511
0.00824143
0.0076108
0.00781206
0.00767538
0.00824969
0.00715182
0.00766265
0.00810242
0.00805633
0.00785385
0.00776045
0.00845518
0.00755439
0.00848105
0.00778916
0.00820613
0.00828054
0.00833251
0.00808542
0.00796544
0.00809465
0.00799729
0.00793606
0.00824525
0.00801443
0.00848257
0.00804641
0.00839859
0.00800576
0.00833525
0.00825626
0.00815453
0.00826124
0.00828306
0.00708566
0.00752405
0.00833335
0.00833335
0.00833335
0.00833335
0.00833335
0.00833335
0.00833335
0.00833335
0.00833335
0.00833335
0.00833335
0.00833335
0.00833335
0.00833335
0.00833335
0.00833335
0.00833335
0.00833335
0.00833335
0.00833335
0.00833335
0.00833335
0.00833335
0.00833335
0.00833335
0.00833335
0.00833335
0.00833335
0.00833335
0.00833335
0.00833335
0.00833335
0.00833335
0.00833335
0.00833335
0.00833335
0.00833335
0.00833335
0.00833335
0.00833335
0.00833335
0.00833335
0.00833335
0.00833335
0.00833335
0.00833335
0.00833335
0.00833335
0.00833335
0.00833335
0.00833335
0.00833335
0.00833335
0.00833335
0.00833335
0.00833335
0.00833335
0.00833335
0.00833323
0.00833464
0.0082124
0.00845427
0.00726367
0.00825998
0.00808938
0.00779746
0.00767591
0.00769883
0.00751433
0.00754834
0.00744556
0.00753904
0.00694511
0.00725777
0.00701703
0.00686265
0.00664849
0.00639455
0.00618186
0.00587473
0.00551182
0.00552716
0.00504138
0.00543624
0.00542189
0.00542969
0.00566563
0.0053197
0.00559842
0.0056895
0.00542821
0.00532873
0.00545891
0.00535521
0.00507474
0.00474877
0.00833335
0.00833335
0.00833335
0.00833335
0.00833335
0.00833335
0.00833335
0.00833335
0.00833335
0.00833335
0.00833335
0.00833335
0.00833335
0.00833335
0.00833335
0.00833335
0.00833335
0.00833335
0.00833335
0.00833335
0.00833335
0.00833335
0.00833335
0.00833335
0.00833335
0.00833335
0.00833335
0.00833335
0.00833335
0.00833335
0.00833335
0.00833335
0.00833335
0.00833335
0.00833335
0.00833335
0.00833335
0.00833335
0.00833335
0.00833335
0.00833335
0.00833335
0.00833335
0.00833335
0.00833335
0.00833335
0.00833335
0.00833335
0.00833335
0.00833335
0.00833335
0.00833335
0.00833335
0.00833335
0.00833335
0.00833335
0.00833335
0.00833382
0.00831778
0.00833655
0.00833375
0.00802527
0.00755536
0.00693651
0.00684276
0.0064588
0.0065314
0.00611297
0.00588172
0.00550545
0.00523672
0.00506958
0.00473543
0.00466903
0.00441704
0.00435199
0.00431075
0.00428903
0.00413952
0.00409836
0.00403923
0.00409396
0.00401966
0.0040045
0.00397212
0.00393766
0.00392938
0.00377822
0.00377087
0.0036512
0.00366532
0.0035044
0.00308512
0.00280935
0.00253018
0.00203777
0.00833335
0.00833335
0.00833335
0.00833335
0.00833335
0.00833335
0.00833335
0.00833335
0.00833335
0.00833335
0.00833335
0.00833335
0.00833335
0.00833335
0.00833335
0.00833335
0.00833335
0.00833335
0.00833335
0.00833335
0.00833335
0.00833335
0.00833335
0.00833335
0.00833335
0.00833335
0.00833335
0.00833335
0.00833335
0.00833335
0.00833335
0.00833335
0.00833335
0.00833335
0.00833335
0.00833335
0.00833335
0.00833335
0.00833335
0.00833335
0.00833335
0.00833335
0.00833335
0.00833335
0.00833335
0.00833335
0.00833335
0.00833335
0.00833335
0.00833335
0.00833335
0.00833335
0.00833335
0.00833335
0.00833335
0.00833335
0.00833335
0.00833334
0.00833364
0.00834844
0.00830928
0.00486771
0.00319669
0.00288381
0.00274804
0.0026871
0.00264877
0.00252085
0.00250299
0.00231483
0.00235657
0.00229581
0.00221082
0.00205077
0.0018626
0.00182988
0.00181016
0.00181679
0.00178235
0.00184865
0.00201424
0.00196251
0.00188224
0.00180506
0.00182367
0.00188031
0.00190098
0.00191783
0.001968
0.00196996
0.00190748
0.00182125
0.00155892
0.00122449
0.000642105
0.000569497
0.00833335
0.00833335
0.00833335
0.00833335
0.00833335
0.00833335
0.00833335
0.00833335
0.00833335
0.00833335
0.00833335
0.00833335
0.00833335
0.00833335
0.00833335
0.00833335
0.00833335
0.00833335
0.00833335
0.00833335
0.00833335
0.00833335
0.00833335
0.00833335
0.00833335
0.00833335
0.00833335
0.00833335
0.00833335
0.00833335
0.00833335
0.00833335
0.00833335
0.00833335
0.00833335
0.00833335
0.00833335
0.00833335
0.00833335
0.00833335
0.00833335
0.00833335
0.00833335
0.00833335
0.00833335
0.00833335
0.00833335
0.00833335
0.00833335
0.00833335
0.00833335
0.00833335
0.00833335
0.00833335
0.00833335
0.00833335
0.00833335
0.00833335
0.00833335
0.00833396
0.00833619
0.00476434
0.00163521
0.00138607
0.00139222
0.00135697
0.00134258
0.0012689
0.00122698
0.00113517
0.00106057
0.000951613
0.00085043
0.000777345
0.000693701
0.000626335
0.000543937
0.000380641
0.000219675
0.000188214
0.000184287
0.000180358
0.000177467
0.000173152
0.000169722
0.000166938
0.000183315
0.000214084
0.000258713
0.000357805
0.000400936
0.000409731
0.000355822
0.000250945
0.00016371
0.000150968
0.00833335
0.00833335
0.00833335
0.00833335
0.00833335
0.00833335
0.00833335
0.00833335
0.00833335
0.00833335
0.00833335
0.00833335
0.00833335
0.00833335
0.00833335
0.00833335
0.00833335
0.00833335
0.00833335
0.00833335
0.00833335
0.00833335
0.00833335
0.00833335
0.00833335
0.00833335
0.00833335
0.00833335
0.00833335
0.00833335
0.00833335
0.00833335
0.00833335
0.00833335
0.00833335
0.00833335
0.00833335
0.00833335
0.00833335
0.00833335
0.00833335
0.00833335
0.00833335
0.00833335
0.00833335
0.00833335
0.00833335
0.00833335
0.00833335
0.00833335
0.00833335
0.00833335
0.00833335
0.00833335
0.00833335
0.00833335
0.00833335
0.00833335
0.00833335
0.00833099
0.00833319
0.00711267
0.000925744
0.000831154
0.000862549
0.00083933
0.000845679
0.000762567
0.000717503
0.000619904
0.000545016
0.000408762
0.000302923
0.000228401
0.000208478
0.000204814
0.000199677
0.000195539
0.000191624
0.000188214
0.000184292
0.000180494
0.000176876
0.000174255
0.000169574
0.000166626
0.00016368
0.000160769
0.00015783
0.000154875
0.000152882
0.000151835
0.000150207
0.000149988
0.000150968
0.000150968
0.00833335
0.00833335
0.00833335
0.00833335
0.00833335
0.00833335
0.00833335
0.00833335
0.00833335
0.00833335
0.00833335
0.00833335
0.00833335
0.00833335
0.00833335
0.00833335
0.00833335
0.00833335
0.00833335
0.00833335
0.00833335
0.00833335
0.00833335
0.00833335
0.00833335
0.00833335
0.00833335
0.00833335
0.00833335
0.00833335
0.00833335
0.00833335
0.00833335
0.00833335
0.00833335
0.00833335
0.00833335
0.00833335
0.00833335
0.00833335
0.00833335
0.00833335
0.00833335
0.00833335
0.00833335
0.00833335
0.00833335
0.00833335
0.00833335
0.00833335
0.00833335
0.00833335
0.00833335
0.00833335
0.00833335
0.00833335
0.00833335
0.00833335
0.00833286
0.00830313
0.00915704
0.00766779
0.000330328
0.00027936
0.000292203
0.000288106
0.000281318
0.000271529
0.000257803
0.000240768
0.000226673
0.00022154
0.00021757
0.000212719
0.000208798
0.000204877
0.000201158
0.000197045
0.00019103
0.000188895
0.000184286
0.000180076
0.000177633
0.00017353
0.000169677
0.000165341
0.000164213
0.000160353
0.000157567
0.00015497
0.000152654
0.000152268
0.00014994
0.000149988
0.000150969
0.000150968
0.00833335
0.00833335
0.00833335
0.00833335
0.00833335
0.00833335
0.00833335
0.00833335
0.00833335
0.00833335
0.00833335
0.00833335
0.00833335
0.00833335
0.00833335
0.00833335
0.00833335
0.00833335
0.00833335
0.00833335
0.00833335
0.00833335
0.00833335
0.00833335
0.00833335
0.00833335
0.00833335
0.00833335
0.00833335
0.00833335
0.00833335
0.00833335
0.00833335
0.00833335
0.00833335
0.00833335
0.00833335
0.00833335
0.00833335
0.00833335
0.00833335
0.00833335
0.00833335
0.00833335
0.00833335
0.00833335
0.00833335
0.00833335
0.00833335
0.00833335
0.00833335
0.00833335
0.00833335
0.00833335
0.00833335
0.00833335
0.00833335
0.00833334
0.00833007
0.0083368
0.00833783
0.00813326
0.00302025
0.000256956
0.000252771
0.000248002
0.000244249
0.000238037
0.000234317
0.000230361
0.000225474
0.000221549
0.000218185
0.000212581
0.000209065
0.000205018
0.000199871
0.000196055
0.000192135
0.000188595
0.000183987
0.000180373
0.0001774
0.00017336
0.000169593
0.000166654
0.000163273
0.00016123
0.000157858
0.000154889
0.000152929
0.000151994
0.000149993
0.000149988
0.00015095
0.000150985
0.00833335
0.00833335
0.00833335
0.00833335
0.00833335
0.00833335
0.00833335
0.00833335
0.00833335
0.00833335
0.00833335
0.00833335
0.00833335
0.00833335
0.00833335
0.00833335
0.00833335
0.00833335
0.00833335
0.00833335
0.00833335
0.00833335
0.00833335
0.00833335
0.00833335
0.00833335
0.00833335
0.00833335
0.00833335
0.00833335
0.00833335
0.00833335
0.00833335
0.00833335
0.00833335
0.00833335
0.00833335
0.00833335
0.00833335
0.00833335
0.00833335
0.00833335
0.00833335
0.00833335
0.00833335
0.00833335
0.00833335
0.00833335
0.00833335
0.00833335
0.00833335
0.00833335
0.00833335
0.00833335
0.00833335
0.00833335
0.00833335
0.008333
0.00833356
0.00833194
0.00833285
0.00833338
0.00470577
0.000256823
0.000251926
0.000248309
0.000242476
0.000238682
0.000234212
0.000229371
0.00022537
0.000220577
0.000216641
0.000212717
0.0002091
0.000203972
0.000199976
0.000196064
0.000192134
0.000188214
0.000184191
0.000180521
0.000177433
0.000173773
0.000169113
0.000167065
0.00016371
0.000160782
0.00015801
0.000154815
0.00015284
0.000151989
0.000149989
0.000149988
0.000149988
0.000149988
0.00833335
0.00833335
0.00833335
0.00833335
0.00833335
0.00833335
0.00833335
0.00833335
0.00833335
0.00833335
0.00833335
0.00833335
0.00833335
0.00833335
0.00833335
0.00833335
0.00833335
0.00833335
0.00833335
0.00833335
0.00833335
0.00833335
0.00833335
0.00833335
0.00833335
0.00833335
0.00833335
0.00833335
0.00833335
0.00833335
0.00833335
0.00833335
0.00833335
0.00833335
0.00833335
0.00833335
0.00833335
0.00833335
0.00833335
0.00833335
0.00833335
0.00833335
0.00833335
0.00833335
0.00833335
0.00833335
0.00833335
0.00833335
0.00833335
0.00833335
0.00833335
0.00833335
0.00833335
0.00833335
0.00833335
0.00833335
0.00833335
0.00833334
0.00833344
0.00833347
0.00839668
0.00725267
0.00046732
0.000372486
0.000392484
0.000392041
0.000383839
0.000371609
0.000351834
0.000336238
0.000323612
0.000304854
0.000288191
0.000267603
0.000246497
0.000227982
0.000205857
0.000196055
0.000192118
0.000188222
0.000184294
0.000181356
0.000177433
0.00017387
0.000170037
0.000166651
0.00016371
0.00016077
0.00015783
0.000154889
0.000152929
0.000151949
0.000150187
0.000150146
0.000151067
0.000149973
0.00833335
0.00833335
0.00833335
0.00833335
0.00833335
0.00833335
0.00833335
0.00833335
0.00833335
0.00833335
0.00833335
0.00833335
0.00833335
0.00833335
0.00833335
0.00833335
0.00833335
0.00833335
0.00833335
0.00833335
0.00833335
0.00833335
0.00833335
0.00833335
0.00833335
0.00833335
0.00833335
0.00833335
0.00833335
0.00833335
0.00833335
0.00833335
0.00833335
0.00833335
0.00833335
0.00833335
0.00833335
0.00833335
0.00833335
0.00833335
0.00833335
0.00833335
0.00833335
0.00833335
0.00833335
0.00833335
0.00833335
0.00833335
0.00833335
0.00833335
0.00833335
0.00833335
0.00833335
0.00833335
0.00833335
0.00833335
0.00833335
0.00833335
0.0083363
0.00833024
0.00829334
0.00204842
0.00295206
0.00151688
0.00155223
0.00148691
0.00147504
0.00142241
0.0014032
0.00135328
0.00129233
0.00122915
0.00118313
0.00113721
0.00108478
0.00102445
0.000916531
0.000800246
0.000655557
0.000537805
0.000359994
0.000266326
0.000199418
0.000183639
0.000170688
0.000166553
0.00016371
0.000160767
0.000157904
0.00015463
0.000152862
0.000151945
0.000149859
0.00015011
0.000150968
0.000150968
0.00833335
0.00833335
0.00833335
0.00833335
0.00833335
0.00833335
0.00833335
0.00833335
0.00833335
0.00833335
0.00833335
0.00833335
0.00833335
0.00833335
0.00833335
0.00833335
0.00833335
0.00833335
0.00833335
0.00833335
0.00833335
0.00833335
0.00833335
0.00833335
0.00833335
0.00833335
0.00833335
0.00833335
0.00833335
0.00833335
0.00833335
0.00833335
0.00833335
0.00833335
0.00833335
0.00833335
0.00833335
0.00833335
0.00833335
0.00833335
0.00833335
0.00833335
0.00833335
0.00833335
0.00833335
0.00833335
0.00833335
0.00833335
0.00833335
0.00833335
0.00833335
0.00833335
0.00833335
0.00833335
0.00833335
0.00833335
0.00833335
0.00833335
0.00833331
0.00834601
0.0076095
0.00385664
0.00810523
0.00421877
0.00455354
0.00363741
0.00364204
0.00358642
0.00354327
0.00346585
0.00341261
0.00332416
0.00323068
0.00306799
0.00294278
0.00279635
0.00261783
0.00237438
0.0021713
0.00191178
0.00182356
0.0016525
0.00146965
0.00075971
0.000615939
0.000242513
0.000194087
0.000166305
0.000157304
0.000154651
0.000153051
0.000151115
0.000149029
0.000149991
0.000149967
0.00015099
0.00833335
0.00833335
0.00833335
0.00833335
0.00833335
0.00833335
0.00833335
0.00833335
0.00833335
0.00833335
0.00833335
0.00833335
0.00833335
0.00833335
0.00833335
0.00833335
0.00833335
0.00833335
0.00833335
0.00833335
0.00833335
0.00833335
0.00833335
0.00833335
0.00833335
0.00833335
0.00833335
0.00833335
0.00833335
0.00833335
0.00833335
0.00833335
0.00833335
0.00833335
0.00833335
0.00833335
0.00833335
0.00833335
0.00833335
0.00833335
0.00833335
0.00833335
0.00833335
0.00833335
0.00833335
0.00833335
0.00833335
0.00833335
0.00833335
0.00833335
0.00833335
0.00833335
0.00833335
0.00833335
0.00833335
0.00833335
0.00833335
0.00833335
0.00833334
0.00834199
0.00730863
0.00789991
0.0082717
0.00818671
0.00831868
0.00821988
0.00833834
0.00814104
0.00787043
0.00769158
0.00770173
0.00763879
0.00764172
0.00773222
0.00741106
0.00727912
0.00733737
0.0072185
0.00693022
0.00668029
0.00613021
0.00551386
0.00493516
0.00427921
0.00375544
0.00299016
0.00238077
0.00133849
0.000608478
0.000380911
0.000169598
0.00015195
0.00014997
0.000149018
0.000149993
0.000149988
0.00833335
0.00833335
0.00833335
0.00833335
0.00833335
0.00833335
0.00833335
0.00833335
0.00833335
0.00833335
0.00833335
0.00833335
0.00833335
0.00833335
0.00833335
0.00833335
0.00833335
0.00833335
0.00833335
0.00833335
0.00833335
0.00833335
0.00833335
0.00833335
0.00833335
0.00833335
0.00833335
0.00833335
0.00833335
0.00833335
0.00833335
0.00833335
0.00833335
0.00833335
0.00833335
0.00833335
0.00833335
0.00833335
0.00833335
0.00833335
0.00833335
0.00833335
0.00833335
0.00833335
0.00833335
0.00833335
0.00833335
0.00833335
0.00833335
0.00833335
0.00833335
0.00833335
0.00833335
0.00833335
0.00833335
0.00833335
0.00833335
0.00833335
0.00833342
0.00831644
0.00956522
0.00828333
0.00832969
0.00878659
0.00721405
0.00832723
0.00797048
0.00844093
0.00834149
0.00825594
0.00830174
0.00790485
0.0084744
0.00833382
0.00831593
0.00902905
0.00706189
0.00892985
0.00750356
0.00850495
0.00879338
0.00833035
0.00788848
0.00835292
0.00729865
0.00815891
0.00732589
0.00725628
0.00617081
0.005105
0.00353577
0.00206555
0.000526578
0.00014771
0.000149922
0.000150044
0.00833335
0.00833335
0.00833335
0.00833335
0.00833335
0.00833335
0.00833335
0.00833335
0.00833335
0.00833335
0.00833335
0.00833335
0.00833335
0.00833335
0.00833335
0.00833335
0.00833335
0.00833335
0.00833335
0.00833335
0.00833335
0.00833335
0.00833335
0.00833335
0.00833335
0.00833335
0.00833335
0.00833335
0.00833335
0.00833335
0.00833335
0.00833335
0.00833335
0.00833335
0.00833335
0.00833335
0.00833335
0.00833335
0.00833335
0.00833335
0.00833335
0.00833335
0.00833335
0.00833335
0.00833335
0.00833335
0.00833335
0.00833335
0.00833335
0.00833335
0.00833335
0.00833335
0.00833335
0.00833335
0.00833335
0.00833335
0.00833335
0.00833335
0.00833334
0.00829254
0.00924781
0.00827097
0.00830526
0.00831178
0.00832047
0.00831752
0.00832167
0.00825519
0.00812575
0.00852344
0.00815777
0.00831135
0.00821672
0.00812458
0.00847025
0.00832157
0.00831357
0.00831517
0.00833645
0.00825328
0.00827034
0.00832887
0.00817156
0.007856
0.0085657
0.00832923
0.00831637
0.00831907
0.00821835
0.00731148
0.00824052
0.00826785
0.00833254
0.00849552
0.00834838
0.00825861
0.00833335
0.00833335
0.00833335
0.00833335
0.00833335
0.00833335
0.00833335
0.00833335
0.00833335
0.00833335
0.00833335
0.00833335
0.00833335
0.00833335
0.00833335
0.00833335
0.00833335
0.00833335
0.00833335
0.00833335
0.00833335
0.00833335
0.00833335
0.00833335
0.00833335
0.00833335
0.00833335
0.00833335
0.00833335
0.00833335
0.00833335
0.00833335
0.00833335
0.00833335
0.00833335
0.00833335
0.00833335
0.00833335
0.00833335
0.00833335
0.00833335
0.00833335
0.00833335
0.00833335
0.00833335
0.00833335
0.00833335
0.00833335
0.00833335
0.00833335
0.00833335
0.00833335
0.00833335
0.00833335
0.00833335
0.00833335
0.00833335
0.00833321
0.00833345
0.00829553
0.00877464
0.00827628
0.00811828
0.00836731
0.00813388
0.00834151
0.00832139
0.00817346
0.00823787
0.00827096
0.0083401
0.00826844
0.00833545
0.00832959
0.00832388
0.00833331
0.00832969
0.00832556
0.00833195
0.00833126
0.00828032
0.00828602
0.00832144
0.00829233
0.00832266
0.00832944
0.00830831
0.00830872
0.00841296
0.00829774
0.0083441
0.00835627
0.00840419
0.00819341
0.00835772
0.00833338
0.00833335
0.00833335
0.00833335
0.00833335
0.00833335
0.00833335
0.00833335
0.00833335
0.00833335
0.00833335
0.00833335
0.00833335
0.00833335
0.00833335
0.00833335
0.00833335
0.00833335
0.00833335
0.00833335
0.00833335
0.00833335
0.00833335
0.00833335
0.00833335
0.00833335
0.00833335
0.00833335
0.00833335
0.00833335
0.00833335
0.00833335
0.00833335
0.00833335
0.00833335
0.00833335
0.00833335
0.00833335
0.00833335
0.00833335
0.00833335
0.00833335
0.00833335
0.00833335
0.00833335
0.00833335
0.00833335
0.00833335
0.00833335
0.00833335
0.00833335
0.00833335
0.00833335
0.00833335
0.00833335
0.00833335
0.00833335
0.00833335
0.00833334
0.00833319
0.00833007
0.0075026
0.0090718
0.00809478
0.0081241
0.00827335
0.00832026
0.00832868
0.00828378
0.00830088
0.00834551
0.00833629
0.00822177
0.00829004
0.00834492
0.00830057
0.00833225
0.00809387
0.00813762
0.00813944
0.0082874
0.00829158
0.00833494
0.00827499
0.00831783
0.00827953
0.00805552
0.00842036
0.00832626
0.00824983
0.00833399
0.00829165
0.00835776
0.00832696
0.00833444
0.00833069
0.00833133
0.00833335
0.00833335
0.00833335
0.00833335
0.00833335
0.00833335
0.00833335
0.00833335
0.00833335
0.00833335
0.00833335
0.00833335
0.00833335
0.00833335
0.00833335
0.00833335
0.00833335
0.00833335
0.00833335
0.00833335
0.00833335
0.00833335
0.00833335
0.00833335
0.00833335
0.00833335
0.00833335
0.00833335
0.00833335
0.00833335
0.00833335
0.00833335
0.00833335
0.00833335
0.00833335
0.00833335
0.00833335
0.00833335
0.00833335
0.00833335
0.00833335
0.00833335
0.00833335
0.00833335
0.00833335
0.00833335
0.00833335
0.00833335
0.00833335
0.00833335
0.00833335
0.00833335
0.00833335
0.00833335
0.00833335
0.00833335
0.00833335
0.00833335
0.00833335
0.00833118
0.00862802
0.00815714
0.00844714
0.00831004
0.00824763
0.00810029
0.0084034
0.00816314
0.00827269
0.00809247
0.00798334
0.00792067
0.00823664
0.00794958
0.00812259
0.008263
0.00814864
0.00818893
0.00844337
0.00829584
0.00828441
0.00813457
0.00834342
0.00827896
0.00828589
0.00826576
0.00819638
0.00737431
0.00715348
0.00637533
0.00604006
0.00591064
0.00595108
0.00578377
0.00537483
0.00431407
0.00833335
0.00833335
0.00833335
0.00833335
0.00833335
0.00833335
0.00833335
0.00833335
0.00833335
0.00833335
0.00833335
0.00833335
0.00833335
0.00833335
0.00833335
0.00833335
0.00833335
0.00833335
0.00833335
0.00833335
0.00833335
0.00833335
0.00833335
0.00833335
0.00833335
0.00833335
0.00833335
0.00833335
0.00833335
0.00833335
0.00833335
0.00833335
0.00833335
0.00833335
0.00833335
0.00833335
0.00833335
0.00833335
0.00833335
0.00833335
0.00833335
0.00833335
0.00833335
0.00833335
0.00833335
0.00833335
0.00833335
0.00833335
0.00833335
0.00833335
0.00833335
0.00833335
0.00833335
0.00833335
0.00833335
0.00833335
0.00833335
0.00833334
0.00833303
0.00833329
0.00835931
0.0040067
0.00800831
0.00538518
0.00575031
0.00520308
0.00493915
0.00463408
0.00443068
0.00422214
0.00406706
0.0038847
0.00389491
0.00394263
0.00393851
0.00397059
0.00402344
0.00397691
0.00394245
0.00393428
0.00395577
0.00392831
0.0038156
0.00376824
0.0037463
0.00352699
0.00332573
0.00333616
0.00321206
0.00304922
0.00303412
0.00287035
0.00283115
0.00287585
0.00295805
0.00261425
0.00833335
0.00833335
0.00833335
0.00833335
0.00833335
0.00833335
0.00833335
0.00833335
0.00833335
0.00833335
0.00833335
0.00833335
0.00833335
0.00833335
0.00833335
0.00833335
0.00833335
0.00833335
0.00833335
0.00833335
0.00833335
0.00833335
0.00833335
0.00833335
0.00833335
0.00833335
0.00833335
0.00833335
0.00833335
0.00833335
0.00833335
0.00833335
0.00833335
0.00833335