/*--------------------------------*- C++ -*----------------------------------*\
| =========                 |                                                 |
| \\      /  F ield         | OpenFOAM: The Open Source CFD Toolbox           |
|  \\    /   O peration     | Version:  2.3.0                                 |
|   \\  /    A nd           | Web:      www.OpenFOAM.org                      |
|    \\/     M anipulation  |                                                 |
\*---------------------------------------------------------------------------*/
FoamFile
{
    version     2.0;
    format      ascii;
    class       volScalarField;
    location    "42";
    object      epsilon.water;
}
// * * * * * * * * * * * * * * * * * * * * * * * * * * * * * * * * * * * * * //

dimensions      [0 2 -3 0 0 0 0];

internalField   nonuniform List<scalar> 
6144
(
6.24423e-05
4.07325e-05
2.41101e-05
1.72259e-05
1.08274e-05
7.45517e-06
6.05969e-06
5.28188e-06
4.59057e-06
5.76812e-06
7.78522e-06
9.65019e-06
1.05578e-05
1.07884e-05
1.0181e-05
9.61559e-06
9.00954e-06
8.63496e-06
8.24996e-06
7.90493e-06
7.79393e-06
7.75015e-06
7.75906e-06
7.79338e-06
7.84583e-06
7.91512e-06
8.00124e-06
8.139e-06
8.33264e-06
8.46692e-06
8.54272e-06
8.59463e-06
8.64492e-06
8.68957e-06
8.73466e-06
8.7803e-06
8.88808e-06
8.99119e-06
9.23572e-06
9.38639e-06
9.69085e-06
9.78089e-06
9.90781e-06
9.73489e-06
9.02816e-06
8.04379e-06
6.88435e-06
7.34761e-06
1.06295e-05
1.90605e-05
4.10813e-05
6.1241e-05
0.000103966
0.000158759
0.000407896
0.000640459
0.00156506
0.00472139
0.0210627
0.0328044
0.111395
0.0579213
0.0306675
0.0184988
0.0124719
0.00923217
0.00720361
0.0057646
0.00461012
0.00368334
0.00281641
0.00209419
0.0013021
0.00044671
0.000101953
6.46884e-05
7.53696e-05
8.40607e-05
8.64951e-05
8.84459e-05
8.75066e-05
8.22629e-05
7.23083e-05
5.93617e-05
4.98018e-05
5.72856e-05
9.02099e-05
0.000134301
0.000187597
0.000248452
0.00027208
0.000257424
0.000228309
0.000186821
0.000113704
4.70683e-05
0.000108887
6.33671e-05
3.70993e-05
3.00617e-05
2.07635e-05
1.7647e-05
1.69216e-05
1.62774e-05
1.47307e-05
1.795e-05
2.14756e-05
2.46372e-05
2.64399e-05
2.63956e-05
2.47014e-05
2.34645e-05
2.24758e-05
2.21762e-05
2.21765e-05
2.23203e-05
2.28669e-05
2.33703e-05
2.3828e-05
2.42123e-05
2.45275e-05
2.47932e-05
2.50261e-05
2.53278e-05
2.57009e-05
2.59338e-05
2.60829e-05
2.62121e-05
2.63497e-05
2.6484e-05
2.66414e-05
2.67842e-05
2.70488e-05
2.72484e-05
2.77438e-05
2.80314e-05
2.85672e-05
2.8817e-05
2.89804e-05
2.87272e-05
2.71738e-05
2.50603e-05
2.30934e-05
2.52236e-05
3.40442e-05
5.80672e-05
0.000131471
0.000176473
0.000302782
0.000522669
0.00156323
0.00200139
0.00360088
0.00841878
0.0179921
0.0293212
0.0809084
0.0382766
0.0169653
0.00837625
0.00520993
0.00399673
0.0033898
0.00296788
0.00265146
0.00240202
0.0020445
0.00163953
0.00104683
0.000319683
0.000105207
0.00014849
0.000217154
0.000252072
0.000262493
0.000251539
0.000214228
0.000164473
0.000123001
8.70633e-05
7.3866e-05
0.000102917
0.000163745
0.000235038
0.000308643
0.000349415
0.000324536
0.000264685
0.000210473
0.00015081
8.85711e-05
4.51316e-05
0.000123104
7.26619e-05
5.11664e-05
4.41479e-05
3.38995e-05
3.06906e-05
3.15198e-05
3.08822e-05
2.66287e-05
2.60535e-05
2.83362e-05
2.96149e-05
2.95309e-05
2.80906e-05
2.63598e-05
2.57017e-05
2.57442e-05
2.6685e-05
2.83269e-05
3.01432e-05
3.16531e-05
3.28784e-05
3.38583e-05
3.45941e-05
3.51277e-05
3.55074e-05
3.57748e-05
3.59381e-05
3.59794e-05
3.59364e-05
3.58681e-05
3.58064e-05
3.57595e-05
3.57227e-05
3.57172e-05
3.56783e-05
3.56734e-05
3.55406e-05
3.55804e-05
3.54309e-05
3.56127e-05
3.568e-05
3.6092e-05
3.64281e-05
3.64007e-05
3.63384e-05
3.60594e-05
4.0662e-05
5.62735e-05
0.000114445
0.000261341
0.000464649
0.000910625
0.00165655
0.00382898
0.00404836
0.00428965
0.00744001
0.0163193
0.0234359
0.06896
0.0257986
0.0068489
0.00242728
0.00177425
0.00154336
0.00146233
0.00146536
0.00149353
0.00148311
0.00138391
0.0011772
0.000685416
0.000202968
0.000183697
0.000310369
0.000390695
0.000436426
0.000454184
0.000421894
0.000349421
0.000265416
0.000177834
0.000130765
0.000125263
0.000174238
0.000242575
0.000310841
0.000363723
0.00036693
0.000311455
0.000219902
0.000167776
0.000123313
8.10945e-05
4.62056e-05
0.00014107
8.98446e-05
6.81834e-05
5.96061e-05
4.42514e-05
4.09627e-05
4.09298e-05
4.14755e-05
3.64225e-05
3.13202e-05
3.14154e-05
3.15353e-05
3.00854e-05
2.79374e-05
2.61394e-05
2.56602e-05
2.62596e-05
2.76902e-05
2.94725e-05
3.12419e-05
3.27276e-05
3.40035e-05
3.50065e-05
3.5748e-05
3.62737e-05
3.66431e-05
3.6906e-05
3.70611e-05
3.70763e-05
3.69751e-05
3.68283e-05
3.66871e-05
3.65638e-05
3.64574e-05
3.63795e-05
3.62892e-05
3.62118e-05
3.60357e-05
3.60103e-05
3.57416e-05
3.58736e-05
3.58744e-05
3.63376e-05
3.67568e-05
3.68758e-05
3.7079e-05
3.69962e-05
4.41448e-05
7.12606e-05
0.00017423
0.000448406
0.00100262
0.00222681
0.00469478
0.00851709
0.0081481
0.00645868
0.00818777
0.0144727
0.0181202
0.0600854
0.0164159
0.00218802
0.000817815
0.00079061
0.000658659
0.000589413
0.000626363
0.000733278
0.000925982
0.00103284
0.00079522
0.000328938
0.000224771
0.000383947
0.000525979
0.000650552
0.000716083
0.000733164
0.00064549
0.000522026
0.000366687
0.000263051
0.000229572
0.000245052
0.000290792
0.000340894
0.000380515
0.000399503
0.000366721
0.000275113
0.000168294
0.000147502
0.000114142
7.59767e-05
4.95319e-05
0.000153223
9.7051e-05
8.29248e-05
7.8673e-05
5.42799e-05
4.72759e-05
4.11757e-05
4.14431e-05
3.97808e-05
3.45255e-05
3.3399e-05
3.17453e-05
2.95457e-05
2.66778e-05
2.46792e-05
2.41657e-05
2.49333e-05
2.65432e-05
2.8521e-05
3.04553e-05
3.22167e-05
3.381e-05
3.49642e-05
3.57427e-05
3.62337e-05
3.65364e-05
3.67074e-05
3.67579e-05
3.6657e-05
3.64149e-05
3.61078e-05
3.58086e-05
3.55358e-05
3.52933e-05
3.51002e-05
3.49049e-05
3.46989e-05
3.44219e-05
3.42262e-05
3.39027e-05
3.38667e-05
3.38696e-05
3.4137e-05
3.44223e-05
3.42058e-05
3.45433e-05
3.69151e-05
4.92467e-05
9.05021e-05
0.000225679
0.000551062
0.00137767
0.0044229
0.0126959
0.0161884
0.0153452
0.0156795
0.0147523
0.0111068
0.0113106
0.0455522
0.0058626
0.00088494
0.000541256
0.000588337
0.000432891
0.00035897
0.000426924
0.000605161
0.000709721
0.000614031
0.000405313
0.000319074
0.000387283
0.000702152
0.000940991
0.00116675
0.00125009
0.00112483
0.000883388
0.000639684
0.000474333
0.000413363
0.000406019
0.000412859
0.000425669
0.000439136
0.000445889
0.000426319
0.000368101
0.000258238
0.000155054
0.000124618
0.000106905
7.18298e-05
5.49068e-05
0.000159136
9.83594e-05
8.85166e-05
9.19736e-05
7.28338e-05
6.76182e-05
4.6207e-05
4.24386e-05
4.21085e-05
3.52104e-05
3.33504e-05
3.0866e-05
2.86754e-05
2.53649e-05
2.22079e-05
2.11042e-05
2.18139e-05
2.37505e-05
2.63233e-05
2.89177e-05
3.11722e-05
3.28963e-05
3.4056e-05
3.4803e-05
3.52387e-05
3.54631e-05
3.55423e-05
3.54903e-05
3.52841e-05
3.49229e-05
3.45116e-05
3.41247e-05
3.37789e-05
3.34731e-05
3.3209e-05
3.29553e-05
3.26929e-05
3.2382e-05
3.20826e-05
3.17342e-05
3.14771e-05
3.14117e-05
3.12775e-05
3.12026e-05
3.06935e-05
3.17836e-05
4.07854e-05
7.05672e-05
0.000174561
0.00043868
0.000884315
0.00201317
0.00659382
0.0192542
0.0214935
0.0180485
0.0169427
0.0144184
0.00769947
0.00758016
0.0333699
0.00259667
0.000762117
0.000535254
0.00043968
0.000393685
0.000395579
0.000446264
0.000484365
0.000494097
0.000443285
0.000421682
0.000542989
0.00118001
0.00167503
0.00185332
0.00172891
0.00144128
0.00111368
0.000813387
0.000682272
0.000644238
0.000650544
0.000654784
0.000633242
0.000603498
0.000566772
0.000529994
0.000472824
0.000385019
0.000279718
0.000157597
0.000100879
9.13802e-05
6.57041e-05
5.68849e-05
0.0001178
9.0107e-05
8.63074e-05
9.48163e-05
8.07256e-05
7.87358e-05
5.79019e-05
5.02871e-05
4.77089e-05
3.64655e-05
3.35313e-05
3.01161e-05
2.66086e-05
2.19815e-05
1.90035e-05
1.79735e-05
1.86429e-05
2.02874e-05
2.23557e-05
2.45754e-05
2.66897e-05
2.84226e-05
2.96896e-05
3.05049e-05
3.09244e-05
3.11142e-05
3.11337e-05
3.10137e-05
3.07088e-05
3.02302e-05
2.96734e-05
2.91378e-05
2.86364e-05
2.81861e-05
2.78136e-05
2.74287e-05
2.69912e-05
2.65188e-05
2.59687e-05
2.55337e-05
2.50942e-05
2.51121e-05
2.50103e-05
2.55499e-05
2.6589e-05
3.0825e-05
4.96767e-05
0.000139662
0.000477533
0.00110122
0.00170501
0.00297054
0.00739199
0.021131
0.0209144
0.0168797
0.0149443
0.0130188
0.00629484
0.0061585
0.0225941
0.00180586
0.000943065
0.000768183
0.000586766
0.000511902
0.000482919
0.000484102
0.000505817
0.000542735
0.000630042
0.00100013
0.00156634
0.00184004
0.00187345
0.00170752
0.00135591
0.00105781
0.000887219
0.000839414
0.000862669
0.000952669
0.000985875
0.000981756
0.00090531
0.000805584
0.000699649
0.000622936
0.000523952
0.000407511
0.000298272
0.000195491
0.000122425
9.2465e-05
6.54262e-05
5.80925e-05
8.43073e-05
6.71684e-05
5.87469e-05
7.02064e-05
7.38354e-05
7.76317e-05
6.01516e-05
5.20152e-05
5.19296e-05
3.72023e-05
3.36353e-05
2.89626e-05
2.58269e-05
2.08751e-05
1.69805e-05
1.52971e-05
1.60349e-05
1.80371e-05
2.05029e-05
2.29184e-05
2.50281e-05
2.67281e-05
2.79552e-05
2.87683e-05
2.92329e-05
2.94662e-05
2.95321e-05
2.94269e-05
2.9083e-05
2.85295e-05
2.79049e-05
2.73209e-05
2.67966e-05
2.63023e-05
2.58248e-05
2.53433e-05
2.48357e-05
2.43304e-05
2.37646e-05
2.33326e-05
2.29222e-05
2.29552e-05
2.30106e-05
2.38725e-05
2.56333e-05
3.19382e-05
7.40216e-05
0.000361672
0.00125633
0.00243422
0.00311081
0.00426709
0.00610106
0.0139399
0.0171713
0.0117048
0.00909433
0.00799193
0.00660398
0.00655982
0.0178698
0.00174392
0.00123071
0.00115101
0.000959012
0.000872544
0.000830627
0.000826228
0.000919642
0.00107399
0.00132846
0.00154842
0.00164843
0.00167756
0.00146829
0.00120408
0.00108155
0.00104481
0.00110046
0.00123904
0.00132028
0.00133694
0.00125698
0.00120244
0.0010831
0.000930465
0.000804286
0.00071149
0.000570712
0.000435582
0.000322635
0.000224228
0.0001615
0.000136316
7.10558e-05
8.02747e-05
7.01956e-05
6.18903e-05
4.28846e-05
4.53955e-05
4.4684e-05
4.88106e-05
4.92032e-05
4.12982e-05
4.36411e-05
3.42634e-05
3.13561e-05
2.57986e-05
2.16265e-05
1.57712e-05
1.1588e-05
9.85437e-06
1.0498e-05
1.23975e-05
1.4616e-05
1.66372e-05
1.8294e-05
1.96707e-05
2.07697e-05
2.15822e-05
2.21326e-05
2.24596e-05
2.26075e-05
2.25916e-05
2.23477e-05
2.18997e-05
2.13892e-05
2.091e-05
2.04848e-05
2.00814e-05
1.96733e-05
1.92601e-05
1.88472e-05
1.84688e-05
1.80788e-05
1.78957e-05
1.77171e-05
1.79428e-05
1.82468e-05
1.92661e-05
2.11887e-05
2.69737e-05
8.33155e-05
0.000571945
0.00209117
0.00387662
0.00487512
0.00640083
0.00795406
0.0115914
0.0139904
0.0113115
0.0095535
0.00754513
0.0100512
0.0100595
0.0305112
0.00226282
0.00148717
0.00153126
0.00151155
0.00141225
0.00134335
0.00132864
0.00136439
0.00145556
0.00153343
0.00157603
0.00157548
0.00138636
0.00122676
0.00111195
0.00106155
0.00104609
0.00104666
0.000925054
0.000668369
0.000546897
0.000527376
0.000547833
0.000591471
0.000669783
0.00078872
0.000749548
0.000615504
0.000485468
0.000367951
0.000262535
0.000185645
0.000169482
0.000114645
0.000103128
6.5962e-05
6.11157e-05
3.50589e-05
3.55421e-05
3.22127e-05
3.18865e-05
3.24106e-05
3.01328e-05
3.05115e-05
2.80696e-05
2.66627e-05
2.17137e-05
1.70362e-05
1.16852e-05
7.9888e-06
6.37322e-06
6.58458e-06
7.84685e-06
9.44155e-06
1.086e-05
1.20137e-05
1.29825e-05
1.37254e-05
1.42957e-05
1.4705e-05
1.49674e-05
1.51019e-05
1.51299e-05
1.50424e-05
1.48402e-05
1.45984e-05
1.43714e-05
1.41794e-05
1.3996e-05
1.37889e-05
1.35755e-05
1.33802e-05
1.32179e-05
1.30806e-05
1.30284e-05
1.30044e-05
1.31805e-05
1.34821e-05
1.40561e-05
1.51937e-05
1.94949e-05
8.21357e-05
0.000692925
0.00246164
0.0045179
0.00596753
0.00637025
0.00675917
0.00782111
0.0101629
0.00971644
0.00886029
0.00699885
0.0111718
0.0112488
0.03635
0.00243506
0.00148749
0.00162221
0.00170063
0.00173441
0.00174881
0.0017054
0.00166052
0.00163217
0.00159352
0.0015651
0.00143656
0.00125475
0.00114655
0.00106464
0.001012
0.000918938
0.000671857
0.000429819
0.000357657
0.000384907
0.00039313
0.000401823
0.000428445
0.000456147
0.000509582
0.000505777
0.000464404
0.000406167
0.000332893
0.000245212
0.000149418
0.00012293
0.000111548
0.000102998
6.8515e-05
5.95554e-05
2.83925e-05
2.91011e-05
2.41678e-05
2.258e-05
2.2057e-05
1.78935e-05
1.8415e-05
1.96897e-05
1.95827e-05
1.61511e-05
1.23781e-05
8.28321e-06
5.7927e-06
4.47765e-06
4.40278e-06
5.07461e-06
6.10023e-06
7.01691e-06
7.75298e-06
8.37848e-06
8.87784e-06
9.27752e-06
9.57866e-06
9.80143e-06
9.94299e-06
1.00077e-05
1.00109e-05
9.93808e-06
9.84907e-06
9.76914e-06
9.71765e-06
9.67526e-06
9.61628e-06
9.55658e-06
9.5161e-06
9.50825e-06
9.54679e-06
9.61233e-06
9.69768e-06
9.79771e-06
9.98415e-06
1.00975e-05
1.05828e-05
1.19562e-05
3.39733e-05
0.000218879
0.000922479
0.00217789
0.00401054
0.00684958
0.00678454
0.00627476
0.00720558
0.0083497
0.00822471
0.00850612
0.0128278
0.0130325
0.0462745
0.00268168
0.00116555
0.00112014
0.00128974
0.00137542
0.00156003
0.00162012
0.00165382
0.00165993
0.00162764
0.00156397
0.00142994
0.00130937
0.00118529
0.0010885
0.000963789
0.00079256
0.000588058
0.000446564
0.000437659
0.000443732
0.000426543
0.000401175
0.00040394
0.000417817
0.000449224
0.000454316
0.000432089
0.00039271
0.000334045
0.000269294
0.000163558
0.000105324
0.000101185
0.000103775
7.68589e-05
6.05352e-05
2.77897e-05
2.7294e-05
2.12426e-05
1.7406e-05
1.83815e-05
1.25003e-05
1.24896e-05
1.50801e-05
1.57804e-05
1.25972e-05
8.76004e-06
5.65769e-06
4.00304e-06
3.16329e-06
3.18926e-06
3.66292e-06
4.36112e-06
4.96517e-06
5.45575e-06
5.88015e-06
6.2497e-06
6.56213e-06
6.82215e-06
7.04509e-06
7.22895e-06
7.34746e-06
7.4005e-06
7.41167e-06
7.40886e-06
7.42027e-06
7.46565e-06
7.51077e-06
7.53237e-06
7.54901e-06
7.57022e-06
7.61433e-06
7.6848e-06
7.74533e-06
7.77559e-06
7.78607e-06
7.87725e-06
7.86893e-06
8.25788e-06
8.6883e-06
1.29511e-05
4.13514e-05
0.000172487
0.000449015
0.00127411
0.00337708
0.00454208
0.00417704
0.00464689
0.005726
0.0061766
0.00752563
0.0196771
0.0204473
0.0690351
0.00386147
0.00100696
0.000903614
0.00086143
0.000883401
0.00103024
0.00123757
0.00136744
0.00142183
0.00144052
0.00141082
0.00136018
0.00130803
0.00124684
0.00121143
0.00111608
0.000965728
0.000797182
0.000703698
0.000614924
0.000538279
0.000477439
0.000414216
0.000395962
0.000401114
0.000418514
0.000430169
0.000411119
0.00037956
0.00033132
0.000277744
0.000178427
0.000101296
9.22643e-05
9.97858e-05
9.02913e-05
6.57998e-05
2.63697e-05
2.08112e-05
1.87492e-05
1.30176e-05
1.4141e-05
8.77952e-06
9.12775e-06
1.1532e-05
1.26156e-05
1.00263e-05
6.52176e-06
4.05822e-06
3.08253e-06
2.63817e-06
2.63423e-06
2.97415e-06
3.38949e-06
3.76895e-06
4.07943e-06
4.33123e-06
4.55158e-06
4.77156e-06
4.98025e-06
5.17805e-06
5.36251e-06
5.51219e-06
5.60366e-06
5.6412e-06
5.66694e-06
5.71436e-06
5.796e-06
5.88455e-06
5.94716e-06
6.00724e-06
6.0707e-06
6.14527e-06
6.2432e-06
6.30865e-06
6.34614e-06
6.32008e-06
6.36419e-06
6.27275e-06
6.49576e-06
6.62461e-06
8.00345e-06
1.25623e-05
2.86525e-05
7.12185e-05
0.000303973
0.00102019
0.00188277
0.00146255
0.00235006
0.00310031
0.00360913
0.00555656
0.0303726
0.0314812
0.0836304
0.00651281
0.0013771
0.00155361
0.00166529
0.00110003
0.000722395
0.000623964
0.000712525
0.00083575
0.00096848
0.00102913
0.00109553
0.00110666
0.00108993
0.00109473
0.00106977
0.00100165
0.000885466
0.000770298
0.000645437
0.000532206
0.000453905
0.000402639
0.000385033
0.000384838
0.000388225
0.000396297
0.000382612
0.00035756
0.000320969
0.00027167
0.000175876
9.71995e-05
8.59739e-05
9.26087e-05
0.000117994
7.99194e-05
4.28062e-05
1.8379e-05
1.63596e-05
1.05073e-05
1.24119e-05
8.95185e-06
8.02996e-06
9.29746e-06
1.05447e-05
8.16907e-06
4.88704e-06
3.2367e-06
2.60855e-06
2.21464e-06
2.21243e-06
2.4833e-06
2.807e-06
3.07808e-06
3.30725e-06
3.50883e-06
3.67831e-06
3.82174e-06
3.95141e-06
4.08357e-06
4.22054e-06
4.34463e-06
4.41865e-06
4.44432e-06
4.45247e-06
4.48652e-06
4.56363e-06
4.66924e-06
4.76402e-06
4.84775e-06
4.93669e-06
5.02872e-06
5.1422e-06
5.22501e-06
5.27487e-06
5.24211e-06
5.25542e-06
5.13618e-06
5.224e-06
5.26337e-06
6.08638e-06
7.77871e-06
1.23842e-05
2.22095e-05
8.57586e-05
0.000327348
0.00064962
0.000563065
0.00138966
0.00194405
0.00312443
0.0081279
0.0408161
0.0464755
0.103551
0.0165216
0.00483568
0.00382566
0.00318201
0.00214291
0.00147922
0.00101295
0.000755884
0.000649145
0.000617991
0.000612154
0.000629851
0.000662747
0.000690589
0.000710901
0.000715775
0.000701959
0.000656047
0.000569245
0.000502329
0.000456005
0.000427438
0.000402597
0.000386165
0.000374691
0.000373342
0.000372998
0.000361608
0.000339308
0.000311372
0.000258422
0.000150268
8.33098e-05
7.85204e-05
8.64008e-05
0.000217613
0.000153686
0.000113529
2.64967e-05
4.08075e-05
1.02057e-05
7.00093e-06
5.37818e-06
5.63378e-06
6.16702e-06
6.39746e-06
5.02501e-06
3.30639e-06
2.39411e-06
1.96901e-06
1.72476e-06
1.74389e-06
1.94723e-06
2.17364e-06
2.36139e-06
2.52162e-06
2.66494e-06
2.79505e-06
2.91818e-06
3.04392e-06
3.18178e-06
3.33086e-06
3.47135e-06
3.56886e-06
3.61476e-06
3.65449e-06
3.72061e-06
3.82518e-06
3.95013e-06
4.05413e-06
4.14327e-06
4.23722e-06
4.33219e-06
4.44538e-06
4.53349e-06
4.60493e-06
4.59801e-06
4.6051e-06
4.4738e-06
4.48737e-06
4.46328e-06
5.02626e-06
6.18709e-06
8.88867e-06
1.29005e-05
3.39556e-05
0.000116062
0.000280775
0.000354135
0.000831479
0.00125399
0.00448
0.0139525
0.0376665
0.0515003
0.10802
0.0399888
0.0165883
0.00718769
0.00468597
0.00309425
0.00215974
0.00156568
0.00117204
0.000909533
0.00074625
0.00065492
0.000602562
0.000571698
0.000552858
0.000541704
0.000530893
0.000520817
0.00050704
0.000489535
0.000476853
0.000462361
0.000446373
0.000427969
0.000407744
0.000389378
0.000372516
0.000362968
0.000343697
0.00032619
0.000296856
0.000222228
9.76302e-05
6.59057e-05
7.57315e-05
7.73996e-05
0.000264231
0.000243992
0.000232872
0.000183495
0.000147857
5.63299e-05
7.74983e-06
3.27899e-06
3.13956e-06
3.21839e-06
3.08413e-06
2.45673e-06
1.82708e-06
1.42144e-06
1.19285e-06
1.06941e-06
1.08851e-06
1.20293e-06
1.32541e-06
1.42812e-06
1.51692e-06
1.59862e-06
1.67797e-06
1.7577e-06
1.84234e-06
1.93628e-06
2.03964e-06
2.14008e-06
2.21735e-06
2.26089e-06
2.29866e-06
2.35256e-06
2.4323e-06
2.5274e-06
2.61556e-06
2.69327e-06
2.77361e-06
2.85178e-06
2.94016e-06
3.01464e-06
3.10236e-06
3.12883e-06
3.14777e-06
3.02342e-06
2.97174e-06
2.92113e-06
3.20257e-06
3.90697e-06
5.42832e-06
7.42546e-06
1.41833e-05
3.74119e-05
0.000106672
0.000166981
0.000409724
0.000854011
0.00241222
0.00522778
0.0416566
0.0578689
0.122808
0.0580705
0.0274683
0.0132436
0.00775735
0.00496001
0.00337382
0.00241303
0.00181131
0.00142012
0.00115644
0.000974216
0.000845992
0.000760483
0.000702969
0.00066161
0.000634371
0.00061232
0.000596709
0.000581587
0.000565941
0.000547774
0.000522904
0.000497792
0.00046637
0.000439566
0.000409392
0.000385207
0.000366023
0.000346364
0.000304987
0.00017156
5.66151e-05
5.75884e-05
6.34447e-05
5.58387e-05
0.000159274
0.000104597
4.92199e-05
3.05054e-05
1.69213e-05
1.14546e-05
1.10257e-05
1.17166e-05
1.431e-05
2.45077e-05
3.61942e-05
4.75081e-05
5.19853e-05
5.28983e-05
4.94832e-05
4.57612e-05
4.21744e-05
3.96898e-05
3.71413e-05
3.46267e-05
3.23061e-05
3.09031e-05
3.04787e-05
3.07088e-05
3.1462e-05
3.26481e-05
3.41465e-05
3.56434e-05
3.67633e-05
3.74819e-05
3.79508e-05
3.83539e-05
3.87604e-05
3.91484e-05
3.95311e-05
3.99561e-05
4.06592e-05
4.15024e-05
4.29209e-05
4.41251e-05
4.56135e-05
4.61556e-05
4.6521e-05
4.53717e-05
4.26225e-05
3.97938e-05
3.32595e-05
2.85173e-05
2.95927e-05
4.28376e-05
8.05807e-05
9.73108e-05
0.000176008
0.000219752
0.000532886
0.00101809
0.00300469
0.00638808
0.0112869
0.0175543
0.0337346
0.0244539
0.0185491
0.0139361
0.0106452
0.00841835
0.00681415
0.0055857
0.0045542
0.00371864
0.00292401
0.00222668
0.00161741
0.000746875
0.000192305
9.17788e-05
0.000105739
0.000121485
0.000130546
0.000130822
0.000126893
0.000124219
0.000114479
9.68873e-05
7.89602e-05
6.8482e-05
8.14815e-05
0.000121893
0.000181997
0.000254683
0.000295265
0.000289201
0.000254182
0.000195837
0.000130863
5.85342e-05
0.000158293
8.69073e-05
5.15862e-05
3.94924e-05
2.87913e-05
2.49915e-05
2.57631e-05
2.81252e-05
3.10294e-05
4.06856e-05
4.70112e-05
5.3991e-05
5.68033e-05
5.70596e-05
5.4801e-05
5.24906e-05
5.09227e-05
5.03443e-05
5.00815e-05
4.97948e-05
4.92004e-05
4.89736e-05
4.92123e-05
4.98426e-05
5.07989e-05
5.20026e-05
5.33373e-05
5.45448e-05
5.53646e-05
5.58985e-05
5.63349e-05
5.67631e-05
5.71959e-05
5.76347e-05
5.8102e-05
5.85874e-05
5.91829e-05
5.98484e-05
6.08385e-05
6.17723e-05
6.27063e-05
6.32417e-05
6.36724e-05
6.34674e-05
6.32477e-05
6.23502e-05
5.91995e-05
5.75996e-05
6.9064e-05
0.000113765
0.000170132
0.000223352
0.000376212
0.000729868
0.00163931
0.00280947
0.00445946
0.00692248
0.0106606
0.0124948
0.0266351
0.0115546
0.0181799
0.0126249
0.00821266
0.00585643
0.00450836
0.0036676
0.00307079
0.00264858
0.00226913
0.00190571
0.00148616
0.000799609
0.000290696
0.000176922
0.000196112
0.00023537
0.00026307
0.00028131
0.000286919
0.000251841
0.00019762
0.000149111
0.000116181
0.00010734
0.000135789
0.000203169
0.000294667
0.000406753
0.000411893
0.000350499
0.000234814
0.000161256
0.00012339
6.18423e-05
0.000233887
0.000113526
7.45333e-05
5.92129e-05
5.34602e-05
5.08291e-05
4.97609e-05
5.12056e-05
5.25171e-05
5.93899e-05
6.08702e-05
6.30502e-05
6.37841e-05
6.24544e-05
5.92534e-05
5.76326e-05
5.73775e-05
5.85268e-05
6.02876e-05
6.21059e-05
6.35157e-05
6.48236e-05
6.59758e-05
6.70801e-05
6.81818e-05
6.92806e-05
7.03299e-05
7.12409e-05
7.18935e-05
7.23386e-05
7.27322e-05
7.31101e-05
7.34821e-05
7.38724e-05
7.43092e-05
7.47371e-05
7.51853e-05
7.5635e-05
7.63275e-05
7.70327e-05
7.79218e-05
7.88702e-05
8.01417e-05
8.12843e-05
8.25497e-05
8.24516e-05
8.2144e-05
9.12902e-05
0.000135178
0.000229606
0.000334559
0.000489914
0.000825094
0.00153015
0.00353268
0.00490783
0.00469339
0.00796452
0.00782037
0.00660632
0.0241866
0.0084436
0.0132648
0.00800054
0.00488879
0.00349437
0.00278928
0.00240597
0.00213604
0.00194291
0.00177691
0.00160094
0.00139788
0.000911899
0.00048913
0.000366905
0.000415201
0.000471253
0.00053319
0.000570662
0.000558181
0.000493163
0.000395815
0.00031237
0.000271647
0.000265928
0.000303015
0.000380438
0.000493043
0.000598474
0.000553223
0.000409167
0.000284318
0.000172045
0.000122406
7.10596e-05
0.000366152
0.000167213
0.000109306
8.4668e-05
7.6423e-05
7.4555e-05
7.50524e-05
7.78571e-05
7.57668e-05
7.58621e-05
7.56112e-05
7.61453e-05
7.51819e-05
7.22255e-05
6.73829e-05
6.46436e-05
6.45035e-05
6.60664e-05
6.85385e-05
7.11027e-05
7.36584e-05
7.59747e-05
7.77208e-05
7.91583e-05
8.04791e-05
8.17538e-05
8.29073e-05
8.38706e-05
8.45228e-05
8.48701e-05
8.51121e-05
8.53497e-05
8.56062e-05
8.58931e-05
8.62498e-05
8.66118e-05
8.69849e-05
8.73546e-05
8.79546e-05
8.85729e-05
8.94528e-05
9.04827e-05
9.1667e-05
9.29853e-05
9.40335e-05
9.6598e-05
0.000103525
0.000136302
0.000209761
0.000352836
0.000547199
0.000972644
0.00221551
0.00508654
0.0082142
0.00984858
0.0103342
0.0137962
0.0102814
0.00733855
0.0281341
0.00505332
0.00354088
0.00184201
0.00169575
0.00136673
0.00128243
0.00129488
0.0013396
0.00143226
0.00148466
0.0014651
0.00127346
0.000868001
0.000658971
0.000729078
0.000901176
0.00100673
0.00109638
0.00113011
0.00113228
0.00105893
0.000943917
0.000822061
0.000731513
0.000679686
0.000665772
0.000696469
0.000753897
0.000749693
0.000604039
0.000422179
0.000299378
0.000182983
0.000121115
8.27161e-05
0.000567905
0.00021131
0.000149476
0.000116419
9.95257e-05
9.10283e-05
8.92873e-05
9.30866e-05
9.30672e-05
9.03594e-05
9.00991e-05
8.8926e-05
8.61207e-05
7.94473e-05
7.20779e-05
6.75047e-05
6.75778e-05
7.0518e-05
7.4815e-05
7.93509e-05
8.33868e-05
8.68376e-05
8.96034e-05
9.18671e-05
9.37121e-05
9.52503e-05
9.66245e-05
9.77552e-05
9.84745e-05
9.87505e-05
9.88926e-05
9.90541e-05
9.92575e-05
9.95131e-05
9.9889e-05
0.000100258
0.000100561
0.000100861
0.000101172
0.000101739
0.000102202
0.000103401
0.000104246
0.00010638
0.000108626
0.000117637
0.000145273
0.000227
0.000359202
0.000624988
0.000892725
0.00150088
0.00549236
0.0168596
0.0196143
0.0248784
0.0263457
0.0416837
0.0104207
0.00825814
0.0316106
0.00319007
0.00216155
0.00130514
0.00132096
0.000847592
0.000740787
0.000787229
0.000903143
0.0010486
0.0011232
0.00114374
0.00106739
0.00100481
0.00116767
0.00157421
0.00185526
0.0020241
0.00218722
0.0022896
0.00233063
0.00231925
0.00217427
0.00194827
0.00171789
0.00149815
0.00129063
0.00114518
0.00100852
0.000829526
0.000606561
0.00039779
0.00027371
0.000176189
0.000116178
8.84026e-05
0.000794841
0.000226387
0.0001684
0.000145993
0.000134408
0.000118606
0.000110267
0.000112571
0.000111233
0.000103832
0.000101687
9.59828e-05
9.09434e-05
8.15017e-05
7.25966e-05
6.66071e-05
6.67217e-05
7.0452e-05
7.56358e-05
8.12054e-05
8.62207e-05
9.04258e-05
9.40469e-05
9.70669e-05
9.94808e-05
0.000101477
0.000103131
0.000104387
0.000105029
0.000105057
0.000104891
0.000104754
0.000104677
0.000104736
0.000105049
0.000105267
0.000105368
0.000105473
0.000105374
0.000105699
0.000105717
0.000106956
0.000107588
0.00011086
0.000117478
0.0001395
0.000211417
0.000392209
0.000684173
0.00112308
0.00140873
0.0023712
0.0104882
0.0338582
0.0418294
0.0385695
0.0375195
0.0349686
0.00934189
0.00890993
0.0354243
0.00269032
0.00194801
0.00146012
0.00139152
0.00100702
0.000897174
0.00085925
0.000909797
0.00102308
0.00114174
0.00130001
0.00158055
0.00226318
0.00324888
0.0036959
0.00368664
0.00344889
0.00337338
0.00332801
0.00326587
0.00324262
0.00318406
0.00306044
0.00287996
0.00266806
0.00233344
0.00198306
0.00164041
0.00128554
0.000883128
0.000458268
0.000242665
0.000152065
0.000107937
8.96616e-05
0.000639944
0.000211616
0.000174303
0.0001586
0.000153151
0.000143107
0.000131882
0.000131364
0.000128923
0.000112539
0.000108701
9.80456e-05
9.16175e-05
7.84849e-05
6.61851e-05
5.84532e-05
5.88365e-05
6.34397e-05
6.98294e-05
7.65453e-05
8.27003e-05
8.82051e-05
9.26555e-05
9.62046e-05
9.89649e-05
0.000101159
0.000102886
0.000104112
0.000104567
0.000104274
0.000103732
0.000103227
0.000102794
0.000102568
0.000102689
0.000102637
0.000102409
0.000102183
0.000101563
0.00010151
0.000100733
0.000101926
0.000102026
0.000106504
0.000116285
0.000148562
0.000306934
0.000651522
0.00117683
0.00185564
0.00218011
0.0032443
0.0129613
0.0399091
0.0393892
0.034503
0.0291005
0.0153831
0.00882389
0.00895491
0.0322645
0.00274553
0.00228888
0.00189402
0.00171989
0.00141913
0.0012882
0.00123515
0.00127291
0.00152297
0.00202334
0.00283191
0.00381346
0.00427263
0.00428408
0.00360863
0.00294984
0.00267383
0.00259938
0.00267055
0.00288151
0.00310639
0.00325362
0.00332536
0.00332237
0.00316475
0.0029203
0.00265667
0.00249584
0.00216624
0.00191293
0.00138183
0.000804633
0.000406221
0.000226037
9.68341e-05
0.000438321
0.000199261
0.000147756
0.000146603
0.000152915
0.000149001
0.000137356
0.000135618
0.000134154
0.000115468
0.000111028
9.62415e-05
8.73861e-05
7.0056e-05
5.49192e-05
4.528e-05
4.61674e-05
5.24028e-05
6.04735e-05
6.8309e-05
7.49453e-05
8.05968e-05
8.51295e-05
8.86926e-05
9.14052e-05
9.34659e-05
9.49399e-05
9.56908e-05
9.54577e-05
9.43505e-05
9.3024e-05
9.18098e-05
9.07348e-05
8.95939e-05
8.82395e-05
8.68635e-05
8.54552e-05
8.4173e-05
8.2518e-05
8.141e-05
7.97618e-05
8.0155e-05
8.04334e-05
8.58295e-05
9.78471e-05
0.000142252
0.0003526
0.00100363
0.00193932
0.00302996
0.00370596
0.00499585
0.00838139
0.0253103
0.0269765
0.0185647
0.0146336
0.00705998
0.00944104
0.00958927
0.0297764
0.00309087
0.00257746
0.00237676
0.00211723
0.00200064
0.00195848
0.00201624
0.00224024
0.00260088
0.00301043
0.0034865
0.00370304
0.00371048
0.00325812
0.00277629
0.00258647
0.00257202
0.00279381
0.00289017
0.00304005
0.00336451
0.00367863
0.00400722
0.00410222
0.00396177
0.00355827
0.00309693
0.00267868
0.00233642
0.00215767
0.00201337
0.00166429
0.00143491
0.000839702
0.000193321
0.000339204
0.000246039
0.000136408
0.000120687
0.000116647
0.000120661
0.000124719
0.000124211
0.000128047
0.000116517
0.000112328
9.28816e-05
7.80472e-05
5.38378e-05
3.64509e-05
2.84278e-05
2.81027e-05
3.1071e-05
3.54825e-05
4.02219e-05
4.54788e-05
5.07164e-05
5.50624e-05
5.85628e-05
6.11832e-05
6.30382e-05
6.42444e-05
6.4867e-05
6.45534e-05
6.33028e-05
6.18581e-05
6.05056e-05
5.93274e-05
5.83303e-05
5.74924e-05
5.65936e-05
5.56761e-05
5.50655e-05
5.42089e-05
5.43648e-05
5.33693e-05
5.46335e-05
5.4911e-05
5.90724e-05
6.64905e-05
9.4659e-05
0.000312069
0.00111588
0.0026779
0.00461577
0.0066015
0.00941548
0.012411
0.0192067
0.0183656
0.0165982
0.0171675
0.0154363
0.00941329
0.00955942
0.032543
0.00369204
0.00342537
0.00350585
0.0036372
0.00345151
0.00333138
0.0032849
0.00331422
0.00354314
0.00376514
0.00400977
0.00407026
0.00406831
0.00375017
0.00341505
0.00307986
0.00275691
0.0022994
0.0016087
0.00132703
0.00121872
0.00121952
0.00136483
0.00164578
0.00218522
0.0029753
0.00352292
0.00367927
0.00327607
0.00305635
0.00337504
0.0033728
0.00164273
0.000739188
0.000149984
0.000336704
0.00032909
0.000137108
0.000113286
8.73444e-05
7.58483e-05
7.84974e-05
8.10478e-05
9.27794e-05
9.95719e-05
9.80296e-05
7.99914e-05
6.13663e-05
3.95098e-05
2.69226e-05
2.17576e-05
2.11891e-05
2.24101e-05
2.4535e-05
2.69026e-05
2.94862e-05
3.20886e-05
3.42758e-05
3.60762e-05
3.74403e-05
3.84938e-05
3.93554e-05
3.99446e-05
3.99778e-05
3.93994e-05
3.87243e-05
3.81558e-05
3.77575e-05
3.73785e-05
3.6906e-05
3.64399e-05
3.59685e-05
3.56789e-05
3.52828e-05
3.51911e-05
3.4565e-05
3.47496e-05
3.45576e-05
3.58752e-05
3.83352e-05
4.46174e-05
0.000123189
0.000932949
0.00305606
0.00570207
0.00821498
0.0106402
0.0119789
0.0143446
0.0149255
0.0174968
0.0188701
0.0188648
0.00921233
0.00931512
0.0390204
0.00368619
0.00328968
0.00338814
0.00411957
0.00437978
0.00463287
0.00470844
0.00474713
0.00483953
0.00489846
0.00495382
0.00493604
0.00478826
0.00427654
0.00363947
0.00289462
0.00214543
0.00134885
0.000974335
0.000828159
0.000703897
0.000614347
0.000628563
0.000708625
0.000861358
0.00109944
0.00120754
0.00118391
0.00102673
0.000744943
0.000569499
0.000524097
0.000416441
0.000227453
9.85031e-05
0.000417543
0.00039828
0.000191781
0.000152058
8.22504e-05
5.76537e-05
4.91142e-05
4.35018e-05
5.81803e-05
7.15492e-05
7.64441e-05
6.55742e-05
4.94717e-05
3.15382e-05
2.32113e-05
2.02054e-05
1.96687e-05
2.0113e-05
2.08372e-05