/*--------------------------------*- C++ -*----------------------------------*\
| =========                 |                                                 |
| \\      /  F ield         | OpenFOAM: The Open Source CFD Toolbox           |
|  \\    /   O peration     | Version:  2.3.0                                 |
|   \\  /    A nd           | Web:      www.OpenFOAM.org                      |
|    \\/     M anipulation  |                                                 |
\*---------------------------------------------------------------------------*/
FoamFile
{
    version     2.0;
    format      ascii;
    class       volScalarField;
    location    "42";
    object      nut.water;
}
// * * * * * * * * * * * * * * * * * * * * * * * * * * * * * * * * * * * * * //

dimensions      [0 2 -1 0 0 0 0];

internalField   nonuniform List<scalar> 
6144
(
1.39134e-05
1.20713e-05
1.0142e-05
9.0716e-06
7.77369e-06
6.86755e-06
6.41383e-06
6.13048e-06
5.85346e-06
6.31983e-06
6.98823e-06
7.51102e-06
7.74368e-06
7.80384e-06
7.65869e-06
7.51813e-06
7.36057e-06
7.26088e-06
7.15506e-06
7.05745e-06
7.02784e-06
7.01826e-06
7.02457e-06
7.03855e-06
7.05796e-06
7.08234e-06
7.11162e-06
7.1559e-06
7.21585e-06
7.25804e-06
7.28332e-06
7.30179e-06
7.31977e-06
7.33614e-06
7.35262e-06
7.36922e-06
7.40306e-06
7.43549e-06
7.50617e-06
7.55092e-06
7.63546e-06
7.66338e-06
7.69983e-06
7.65928e-06
7.4726e-06
7.1944e-06
6.83463e-06
6.98891e-06
7.91432e-06
9.61753e-06
1.24437e-05
1.41777e-05
1.69235e-05
1.94947e-05
2.68107e-05
3.11458e-05
4.1872e-05
6.04538e-05
9.98438e-05
0.000116497
0.000188573
0.00014593
0.000122978
0.000106535
9.47371e-05
8.71278e-05
8.13165e-05
7.60722e-05
7.06935e-05
6.5221e-05
5.89618e-05
5.26606e-05
4.41922e-05
3.06227e-05
1.84351e-05
1.51653e-05
1.56437e-05
1.63643e-05
1.67919e-05
1.72256e-05
1.74391e-05
1.7212e-05
1.64492e-05
1.52082e-05
1.39597e-05
1.42654e-05
1.68989e-05
1.96163e-05
2.22606e-05
2.49059e-05
2.63806e-05
2.66124e-05
2.59821e-05
2.42025e-05
1.97069e-05
1.3653e-05
1.67575e-05
1.40301e-05
1.17654e-05
1.09944e-05
9.73918e-06
9.2453e-06
9.13866e-06
9.04289e-06
8.76782e-06
9.38706e-06
9.98847e-06
1.04808e-05
1.07553e-05
1.07743e-05
1.0563e-05
1.04078e-05
1.02831e-05
1.02606e-05
1.02841e-05
1.03297e-05
1.0437e-05
1.0537e-05
1.06294e-05
1.07105e-05
1.07812e-05
1.08445e-05
1.09029e-05
1.09712e-05
1.10495e-05
1.11077e-05
1.11539e-05
1.11973e-05
1.1242e-05
1.12863e-05
1.13338e-05
1.13794e-05
1.14422e-05
1.14959e-05
1.15908e-05
1.1657e-05
1.17567e-05
1.18175e-05
1.18658e-05
1.18579e-05
1.16659e-05
1.13798e-05
1.11016e-05
1.14589e-05
1.27025e-05
1.52385e-05
2.0052e-05
2.21339e-05
2.65683e-05
3.20463e-05
4.6219e-05
5.02328e-05
6.08658e-05
8.09554e-05
0.000104364
0.000123824
0.000189923
0.000141862
0.000111987
8.94867e-05
7.77354e-05
7.26509e-05
6.97062e-05
6.7077e-05
6.45903e-05
6.22137e-05
5.8467e-05
5.36615e-05
4.57794e-05
3.09395e-05
2.05797e-05
2.23476e-05
2.56499e-05
2.71296e-05
2.76593e-05
2.75273e-05
2.63389e-05
2.42864e-05
2.21118e-05
1.96567e-05
1.83423e-05
1.99265e-05
2.3489e-05
2.7222e-05
3.06873e-05
3.30799e-05
3.30767e-05
3.08138e-05
2.78422e-05
2.46444e-05
2.06948e-05
1.41015e-05
1.747e-05
1.47209e-05
1.31494e-05
1.25685e-05
1.15502e-05
1.12122e-05
1.13541e-05
1.13212e-05
1.08177e-05
1.07798e-05
1.11265e-05
1.13336e-05
1.13653e-05
1.12192e-05
1.10247e-05
1.09728e-05
1.10195e-05
1.11933e-05
1.14602e-05
1.17431e-05
1.19798e-05
1.21768e-05
1.23414e-05
1.24754e-05
1.25846e-05
1.26754e-05
1.27529e-05
1.28182e-05
1.2869e-05
1.29099e-05
1.29477e-05
1.29863e-05
1.30267e-05
1.30683e-05
1.31138e-05
1.31552e-05
1.32008e-05
1.32307e-05
1.32819e-05
1.33097e-05
1.33789e-05
1.34342e-05
1.35323e-05
1.36213e-05
1.36646e-05
1.37041e-05
1.37125e-05
1.43239e-05
1.60439e-05
2.0439e-05
2.69928e-05
3.28131e-05
4.1209e-05
5.065e-05
6.69398e-05
6.83906e-05
6.97411e-05
8.3907e-05
0.000109139
0.000124474
0.000195136
0.000136526
9.17813e-05
6.51175e-05
5.93958e-05
5.751e-05
5.68135e-05
5.68961e-05
5.70407e-05
5.66904e-05
5.50653e-05
5.1856e-05
4.37723e-05
2.94628e-05
2.75393e-05
3.25015e-05
3.50916e-05
3.65104e-05
3.71346e-05
3.63645e-05
3.4335e-05
3.14826e-05
2.7672e-05
2.492e-05
2.41912e-05
2.64814e-05
2.99975e-05
3.34292e-05
3.62945e-05
3.77712e-05
3.66345e-05
3.21284e-05
2.76947e-05
2.48771e-05
2.27546e-05
1.48494e-05
1.82904e-05
1.58315e-05
1.45233e-05
1.39625e-05
1.2708e-05
1.24482e-05
1.25081e-05
1.26306e-05
1.2159e-05
1.16225e-05
1.16933e-05
1.17681e-05
1.16444e-05
1.14186e-05
1.1225e-05
1.12126e-05
1.13564e-05
1.16173e-05
1.19211e-05
1.22159e-05
1.24685e-05
1.26913e-05
1.28783e-05
1.30326e-05
1.31606e-05
1.32698e-05
1.33663e-05
1.345e-05
1.3517e-05
1.35698e-05
1.3617e-05
1.36647e-05
1.37146e-05
1.37665e-05
1.38219e-05
1.38757e-05
1.39312e-05
1.39739e-05
1.40359e-05
1.40664e-05
1.41492e-05
1.42151e-05
1.43417e-05
1.44627e-05
1.45442e-05
1.46381e-05
1.46952e-05
1.56723e-05
1.85355e-05
2.51515e-05
3.46297e-05
4.54511e-05
5.95481e-05
7.67729e-05
9.33682e-05
9.24423e-05
8.5939e-05
9.341e-05
0.000113046
0.000123171
0.000201351
0.000128355
7.02844e-05
4.84421e-05
4.85263e-05
4.55662e-05
4.43912e-05
4.53403e-05
4.7607e-05
5.12925e-05
5.32895e-05
4.98894e-05
3.8331e-05
3.36248e-05
3.88869e-05
4.30203e-05
4.61334e-05
4.77143e-05
4.81216e-05
4.61604e-05
4.31362e-05
3.85285e-05
3.45521e-05
3.28454e-05
3.32505e-05
3.49374e-05
3.70664e-05
3.93034e-05
4.11653e-05
4.16776e-05
3.89449e-05
3.22574e-05
2.86833e-05
2.74978e-05
2.49822e-05
1.53493e-05
1.88061e-05
1.62759e-05
1.55537e-05
1.53904e-05
1.36919e-05
1.31633e-05
1.2655e-05
1.27665e-05
1.26757e-05
1.2171e-05
1.21154e-05
1.19896e-05
1.17824e-05
1.14618e-05
1.12398e-05
1.12327e-05
1.14228e-05
1.17376e-05
1.20983e-05
1.24437e-05
1.27585e-05
1.30463e-05
1.3275e-05
1.34554e-05
1.35999e-05
1.37211e-05
1.38261e-05
1.39163e-05
1.39874e-05
1.40403e-05
1.40844e-05
1.4129e-05
1.41766e-05
1.42277e-05
1.42852e-05
1.4342e-05
1.43971e-05
1.44419e-05
1.44978e-05
1.45351e-05
1.46131e-05
1.46968e-05
1.48186e-05
1.49435e-05
1.4996e-05
1.51327e-05
1.55743e-05
1.72856e-05
2.13901e-05
2.92331e-05
3.95914e-05
5.41157e-05
8.01273e-05
0.000113927
0.000123319
0.000121795
0.000123448
0.000121777
0.000110928
0.000113196
0.000196262
0.000100021
5.70973e-05
4.58744e-05
4.68459e-05
4.1097e-05
3.84159e-05
4.04046e-05
4.65941e-05
5.07247e-05
5.00006e-05
4.48322e-05
4.14936e-05
4.30761e-05
5.1684e-05
5.68816e-05
6.13478e-05
6.30588e-05
6.1065e-05
5.65246e-05
5.09351e-05
4.61441e-05
4.38935e-05
4.33062e-05
4.32377e-05
4.34501e-05
4.41785e-05
4.5335e-05
4.59826e-05
4.56237e-05
4.18424e-05
3.50394e-05
3.06218e-05
3.00349e-05
2.69276e-05
1.57438e-05
1.90546e-05
1.63827e-05
1.59511e-05
1.62893e-05
1.51985e-05
1.49495e-05
1.32779e-05
1.30099e-05
1.30775e-05
1.24175e-05
1.22911e-05
1.20722e-05
1.18723e-05
1.14855e-05
1.10726e-05
1.09696e-05
1.11759e-05
1.15848e-05
1.20796e-05
1.25581e-05
1.29729e-05
1.33062e-05
1.35605e-05
1.37595e-05
1.39179e-05
1.40489e-05
1.41612e-05
1.42562e-05
1.43303e-05
1.43829e-05
1.44277e-05
1.44748e-05
1.45269e-05
1.4584e-05
1.46465e-05
1.47099e-05
1.47715e-05
1.48251e-05
1.48798e-05
1.4926e-05
1.49855e-05
1.50751e-05
1.51532e-05
1.5241e-05
1.52576e-05
1.55491e-05
1.70482e-05
2.06843e-05
2.82108e-05
3.85182e-05
4.8951e-05
6.49832e-05
9.68205e-05
0.000138729
0.000144111
0.00013683
0.000134744
0.000128691
0.000104569
0.000106465
0.00018762
8.29182e-05
5.62951e-05
4.99885e-05
4.54551e-05
4.34901e-05
4.35979e-05
4.64312e-05
4.88547e-05
5.01924e-05
4.91786e-05
4.85871e-05
5.19924e-05
6.5992e-05
7.46923e-05
7.80352e-05
7.70214e-05
7.29523e-05
6.70872e-05
6.067e-05
5.71717e-05
5.58459e-05
5.55948e-05
5.5215e-05
5.42088e-05
5.31668e-05
5.25128e-05
5.23435e-05
5.1738e-05
5.02138e-05
4.67386e-05
3.9198e-05
3.20005e-05
3.11203e-05
2.83554e-05
1.57184e-05
1.72357e-05
1.59357e-05
1.58679e-05
1.65374e-05
1.58296e-05
1.58489e-05
1.44434e-05
1.39145e-05
1.37994e-05
1.27321e-05
1.2496e-05
1.21668e-05
1.17825e-05
1.11561e-05
1.07232e-05
1.06199e-05
1.08455e-05
1.1254e-05
1.17261e-05
1.22076e-05
1.26569e-05
1.30364e-05
1.33406e-05
1.3576e-05
1.37532e-05
1.38969e-05
1.40157e-05
1.41136e-05
1.41829e-05
1.42241e-05
1.42512e-05
1.42793e-05
1.4311e-05
1.43494e-05
1.43993e-05
1.44456e-05
1.44811e-05
1.45084e-05
1.45191e-05
1.45487e-05
1.45755e-05
1.46893e-05
1.47798e-05
1.49968e-05
1.53141e-05
1.62258e-05
1.92344e-05
2.74288e-05
4.14155e-05
5.48951e-05
6.38972e-05
7.76407e-05
0.000106463
0.000151604
0.000151448
0.000142143
0.000137155
0.000132055
0.000103835
0.000106959
0.000171732
7.94904e-05
6.43387e-05
6.18082e-05
5.59136e-05
5.36218e-05
5.2322e-05
5.297e-05
5.39991e-05
5.59357e-05
5.88567e-05
6.81034e-05
7.91508e-05
8.41917e-05
8.54551e-05
8.34888e-05
7.79864e-05
7.21648e-05
6.84539e-05
6.73479e-05
6.7673e-05
6.93959e-05
6.97934e-05
6.923e-05
6.70059e-05
6.42182e-05
6.17455e-05
6.03453e-05
5.81484e-05
5.49259e-05
5.13476e-05
4.56815e-05
3.80272e-05
3.34216e-05
3.02323e-05
1.52904e-05
1.54327e-05
1.44804e-05
1.40022e-05
1.50402e-05
1.54718e-05
1.59124e-05
1.4778e-05
1.42407e-05
1.43903e-05
1.30144e-05
1.27213e-05
1.22321e-05
1.19002e-05
1.12027e-05
1.05673e-05
1.03119e-05
1.05832e-05
1.11197e-05
1.17237e-05
1.22908e-05
1.27847e-05
1.3199e-05
1.35314e-05
1.37965e-05
1.40067e-05
1.4181e-05
1.43291e-05
1.44499e-05
1.4531e-05
1.45754e-05
1.46049e-05
1.46385e-05
1.468e-05
1.47244e-05
1.47697e-05
1.48117e-05
1.4846e-05
1.4878e-05
1.48945e-05
1.4936e-05
1.49797e-05
1.51185e-05
1.5263e-05
1.5586e-05
1.61032e-05
1.75057e-05
2.34587e-05
3.99592e-05
6.06362e-05
7.60909e-05
8.32497e-05
9.32083e-05
0.000106328
0.000141782
0.000152856
0.000135703
0.000125671
0.000121429
0.000113952
0.000118384
0.000168576
8.50856e-05
7.59708e-05
7.71692e-05
7.35696e-05
7.18541e-05
7.07975e-05
7.10227e-05
7.33888e-05
7.74112e-05
8.29208e-05
8.762e-05
8.99382e-05
9.10436e-05
8.78934e-05
8.29664e-05
8.06724e-05
8.0332e-05
8.19218e-05
8.49776e-05
8.65282e-05
8.65027e-05
8.449e-05
8.30447e-05
8.02347e-05
7.67879e-05
7.38683e-05
7.14638e-05
6.70008e-05
6.18848e-05
5.71496e-05
5.18724e-05
4.60779e-05
4.34082e-05
3.58347e-05
1.98842e-05
1.45057e-05
1.4047e-05
1.25444e-05
1.29089e-05
1.29645e-05
1.34842e-05
1.36481e-05
1.29968e-05
1.33649e-05
1.2446e-05
1.21953e-05
1.15305e-05
1.09696e-05
9.96142e-06
9.06836e-06
8.66679e-06
8.92842e-06
9.51904e-06
1.01427e-05
1.06809e-05
1.11181e-05
1.14866e-05
1.17949e-05
1.20465e-05
1.22489e-05
1.24103e-05
1.25393e-05
1.26383e-05
1.26944e-05
1.27102e-05
1.27114e-05
1.27159e-05
1.27288e-05
1.27439e-05
1.27556e-05
1.27638e-05
1.27696e-05
1.27807e-05
1.27868e-05
1.28399e-05
1.28934e-05
1.30445e-05
1.32154e-05
1.35571e-05
1.41009e-05
1.54166e-05
2.26533e-05
4.29448e-05
6.62742e-05
8.21631e-05
8.95094e-05
9.85834e-05
0.00010692
0.000122802
0.00013164
0.000123678
0.000118109
0.00010954
0.000124594
0.000128121
0.00018464
8.49545e-05
7.30369e-05
7.74051e-05
7.78772e-05
7.68135e-05
7.58549e-05
7.58955e-05
7.64852e-05
7.82464e-05
7.96653e-05
8.07236e-05
8.08869e-05
7.81404e-05
7.54613e-05
7.34756e-05
7.28014e-05
7.27283e-05
7.24442e-05
6.86705e-05
6.07164e-05
5.58481e-05
5.53314e-05
5.70188e-05
5.96264e-05
6.30565e-05
6.7128e-05
6.65674e-05
6.28413e-05
5.82224e-05
5.29561e-05
4.75727e-05
4.20502e-05
3.95501e-05
3.57723e-05
1.89705e-05
1.42004e-05
1.39544e-05
1.16927e-05
1.18399e-05
1.15532e-05
1.16108e-05
1.17677e-05
1.1584e-05
1.17327e-05
1.1508e-05
1.14045e-05
1.0734e-05
9.97736e-06
8.86717e-06
7.87208e-06
7.35711e-06
7.49423e-06
8.0057e-06
8.57944e-06
9.05692e-06
9.43697e-06
9.75618e-06
1.00123e-05
1.02238e-05
1.03959e-05
1.05333e-05
1.06411e-05
1.07241e-05
1.07798e-05
1.08075e-05
1.08244e-05
1.08437e-05
1.08707e-05
1.08988e-05
1.09197e-05
1.09379e-05
1.09597e-05
1.09895e-05
1.10255e-05
1.1085e-05
1.11525e-05
1.12772e-05
1.1438e-05
1.1675e-05
1.20632e-05
1.32074e-05
2.1435e-05
4.34368e-05
6.65307e-05
8.23059e-05
9.12307e-05
9.40321e-05
9.6598e-05
0.000102253
0.000112401
0.000111503
0.000109026
0.000101361
0.000121848
0.00012505
0.000186272
8.24793e-05
6.81194e-05
7.37864e-05
7.53232e-05
7.65698e-05
7.71519e-05
7.67962e-05
7.6443e-05
7.62041e-05
7.58508e-05
7.55154e-05
7.34155e-05
7.04885e-05
6.85807e-05
6.72615e-05
6.62463e-05
6.39468e-05
5.69047e-05
4.79722e-05
4.44733e-05
4.63437e-05
4.7634e-05
4.89954e-05
5.10316e-05
5.30387e-05
5.56034e-05
5.59311e-05
5.46075e-05
5.20303e-05
4.80879e-05
4.33736e-05
3.67051e-05
3.32066e-05
3.27427e-05
1.87022e-05
1.43722e-05
1.38092e-05
1.08839e-05
1.10588e-05
1.04509e-05
1.02832e-05
1.02714e-05
9.64195e-06
9.80655e-06
1.01029e-05
1.01548e-05
9.58708e-06
8.83207e-06
7.77626e-06
6.94832e-06
6.41888e-06
6.42443e-06
6.77944e-06
7.2552e-06
7.65085e-06
7.96026e-06
8.22095e-06
8.43434e-06
8.61312e-06
8.76003e-06
8.88261e-06
8.98064e-06
9.05577e-06
9.1125e-06
9.14604e-06
9.17429e-06
9.20496e-06
9.24428e-06
9.28633e-06
9.32285e-06
9.35894e-06
9.40118e-06
9.45412e-06
9.52254e-06
9.60009e-06
9.68432e-06
9.77377e-06
9.89215e-06
9.98692e-06
1.02041e-05
1.07e-05
1.52888e-05
2.84051e-05
4.58441e-05
6.14625e-05
7.58947e-05
9.12927e-05
9.15503e-05
8.99474e-05
9.48277e-05
0.000100268
0.000100364
0.0001021
0.00011886
0.000121817
0.000192487
8.02314e-05
5.8107e-05
6.09764e-05
6.34376e-05
6.56325e-05
6.87859e-05
6.9638e-05
7.04366e-05
7.03954e-05
7.01485e-05
6.90451e-05
6.71089e-05
6.51728e-05
6.30878e-05
6.13173e-05
5.86929e-05
5.44511e-05
4.8493e-05
4.39865e-05
4.50452e-05
4.65794e-05
4.70132e-05
4.68979e-05
4.76274e-05
4.88254e-05
5.05051e-05
5.11301e-05
5.04425e-05
4.85621e-05
4.53616e-05
4.21053e-05
3.57449e-05
3.00302e-05
2.94221e-05
1.8279e-05
1.49263e-05
1.38585e-05
1.07862e-05
1.08029e-05
9.96571e-06
9.3819e-06
9.59797e-06
8.47726e-06
8.52403e-06
9.1319e-06
9.32404e-06
8.69858e-06
7.74867e-06
6.73454e-06
6.03409e-06
5.60897e-06
5.65446e-06
5.95318e-06
6.34354e-06
6.65928e-06
6.90819e-06
7.12028e-06
7.30464e-06
7.46327e-06
7.60001e-06
7.72179e-06
7.82862e-06
7.91166e-06
7.9713e-06
8.01605e-06
8.05583e-06
8.10082e-06
8.15826e-06
8.21571e-06
8.26473e-06
8.31206e-06
8.3612e-06
8.4189e-06
8.48647e-06
8.55037e-06
8.60319e-06
8.64891e-06
8.72467e-06
8.76409e-06
8.94948e-06
9.15e-06
1.05339e-05
1.56198e-05
2.51434e-05
3.47243e-05
4.93547e-05
6.84629e-05
7.58934e-05
7.42841e-05
7.73833e-05
8.34626e-05
8.59833e-05
9.21338e-05
0.000128427
0.000131755
0.000209049
8.42087e-05
5.10875e-05
5.2661e-05
4.93934e-05
5.12834e-05
5.43994e-05
5.81516e-05
6.03667e-05
6.11068e-05
6.15205e-05
6.08651e-05
6.02419e-05
5.93084e-05
5.83796e-05
5.79458e-05
5.67316e-05
5.45222e-05
5.19751e-05
5.07169e-05
4.94716e-05
4.81074e-05
4.6798e-05
4.52715e-05
4.50087e-05
4.56672e-05
4.67334e-05
4.7487e-05
4.6873e-05
4.5243e-05
4.24673e-05
3.97046e-05
3.42678e-05
2.76804e-05
2.63497e-05
1.801e-05
1.57076e-05
1.41915e-05
1.05509e-05
9.80153e-06
9.49772e-06
8.4493e-06
8.72285e-06
7.47037e-06
7.59577e-06
8.25002e-06
8.53788e-06
7.94449e-06
6.9128e-06
5.92762e-06
5.43172e-06
5.17897e-06
5.19796e-06
5.43521e-06
5.70112e-06
5.93103e-06
6.11494e-06
6.26407e-06
6.39482e-06
6.52294e-06
6.64381e-06
6.75812e-06
6.86525e-06
6.9566e-06
7.02313e-06
7.06715e-06
7.10637e-06
7.15472e-06
7.21735e-06
7.28277e-06
7.33749e-06
7.39125e-06
7.44649e-06
7.50631e-06
7.57563e-06
7.63166e-06
7.67617e-06
7.69509e-06
7.74279e-06
7.73593e-06
7.85697e-06
7.94004e-06
8.49573e-06
9.93916e-06
1.31477e-05
1.79528e-05
2.91566e-05
4.36488e-05
5.34913e-05
4.94316e-05
5.81212e-05
6.41158e-05
6.77497e-05
7.87524e-05
0.000140029
0.000142925
0.000210399
9.37673e-05
5.7509e-05
5.70934e-05
5.70147e-05
4.78904e-05
4.16064e-05
4.01686e-05
4.28707e-05
4.57795e-05
4.85991e-05
4.97362e-05
5.11486e-05
5.15718e-05
5.18306e-05
5.2532e-05
5.29963e-05
5.28293e-05
5.17592e-05
5.02921e-05
4.82566e-05
4.58526e-05
4.38962e-05
4.2544e-05
4.21677e-05
4.24779e-05
4.29928e-05
4.35531e-05
4.30947e-05
4.16666e-05
3.92887e-05
3.67047e-05
3.1591e-05
2.51373e-05
2.36349e-05
1.76856e-05
1.71133e-05
1.51274e-05
1.23338e-05
9.35474e-06
9.05735e-06
7.82154e-06
8.27798e-06
7.44829e-06
7.20019e-06
7.58387e-06
7.93528e-06
7.31402e-06
6.18213e-06
5.40445e-06
5.04447e-06
4.79088e-06
4.80334e-06
5.00672e-06
5.23109e-06
5.41044e-06
5.55795e-06
5.68541e-06
5.79255e-06
5.88415e-06
5.96743e-06
6.0509e-06
6.13566e-06
6.21322e-06
6.2664e-06
6.29671e-06
6.31882e-06
6.35322e-06
6.40782e-06
6.4754e-06
6.53758e-06
6.59448e-06
6.65356e-06
6.7138e-06
6.78326e-06
6.83882e-06
6.8796e-06
6.88448e-06
6.90958e-06
6.8766e-06
6.93545e-06
6.97317e-06
7.34135e-06
7.99765e-06
9.37987e-06
1.15086e-05
1.81533e-05
2.82915e-05
3.53793e-05
3.38517e-05
4.58806e-05
5.15388e-05
6.06381e-05
8.36391e-05
0.0001441
0.000150135
0.000211171
0.000114727
7.84785e-05
6.73581e-05
6.56273e-05
5.72062e-05
5.09149e-05
4.51892e-05
4.12979e-05
3.95924e-05
3.92317e-05
3.95863e-05
4.04423e-05
4.17592e-05
4.29777e-05
4.41628e-05
4.50868e-05
4.56597e-05
4.5476e-05
4.41496e-05
4.28946e-05
4.17335e-05
4.09128e-05
4.02006e-05
3.97678e-05
3.96285e-05
3.99152e-05
4.01022e-05
3.96586e-05
3.82667e-05
3.61958e-05
3.34748e-05
2.73516e-05
2.14856e-05
2.0877e-05
1.73413e-05
2.09736e-05
1.87745e-05
1.70886e-05
1.05801e-05
1.23224e-05
7.75898e-06
6.80502e-06
6.21812e-06
6.32532e-06
6.53229e-06
6.62619e-06
6.12895e-06
5.34074e-06
4.80382e-06
4.50846e-06
4.32113e-06
4.34435e-06
4.51488e-06
4.6917e-06
4.83147e-06
4.94692e-06
5.04763e-06
5.13731e-06
5.22064e-06
5.30368e-06
5.39182e-06
5.48412e-06
5.56963e-06
5.63081e-06
5.66446e-06
5.69486e-06
5.73881e-06
5.80195e-06
5.87439e-06
5.93551e-06
5.98884e-06
6.04402e-06
6.09921e-06
6.16236e-06
6.21329e-06
6.25592e-06
6.26305e-06
6.27656e-06
6.22708e-06
6.2441e-06
6.24417e-06
6.50865e-06
6.9897e-06
7.90373e-06
8.99906e-06
1.25177e-05
1.8841e-05
2.51587e-05
2.71882e-05
3.62268e-05
4.16832e-05
6.4152e-05
9.36701e-05
0.000131109
0.000145925
0.000200061
0.000136607
0.000105099
7.75747e-05
6.93406e-05
6.09509e-05
5.45998e-05
4.95793e-05
4.55582e-05
4.25151e-05
4.0412e-05
3.93593e-05
3.88565e-05
3.88625e-05
3.91036e-05
3.95487e-05
4.00083e-05
4.03738e-05
4.05763e-05
4.04098e-05
4.01348e-05
3.95866e-05
3.89613e-05
3.83036e-05
3.76865e-05
3.73409e-05
3.7117e-05
3.69829e-05
3.62607e-05
3.49411e-05
3.29403e-05
2.89359e-05
2.09472e-05
1.72565e-05
1.85805e-05
1.66692e-05
2.24219e-05
2.185e-05
2.15295e-05
1.99196e-05
1.85701e-05
1.36616e-05
7.02572e-06
5.20424e-06
5.1135e-06
5.15335e-06
5.08042e-06
4.71062e-06
4.26588e-06
3.92154e-06
3.69732e-06
3.56352e-06
3.58298e-06
3.70288e-06
3.82302e-06
3.91776e-06
3.99572e-06
4.06455e-06
4.12902e-06
4.1917e-06
4.2562e-06
4.32558e-06
4.39942e-06
4.4686e-06
4.5198e-06
4.54726e-06
4.57057e-06
4.60419e-06
4.65376e-06
4.7117e-06
4.76388e-06
4.80862e-06
4.85401e-06
4.89726e-06
4.94541e-06
4.98485e-06
5.03046e-06
5.04245e-06
5.05014e-06
4.98066e-06
4.95013e-06
4.92044e-06
5.07272e-06
5.41927e-06
6.04514e-06
6.71542e-06
8.35354e-06
1.15432e-05
1.63098e-05
1.88956e-05
2.55069e-05
3.25859e-05
4.61322e-05
5.95557e-05
0.000119283
0.000133694
0.000183245
0.000135872
0.000110593
8.65602e-05
7.34204e-05
6.40219e-05
5.68598e-05
5.12741e-05
4.70996e-05
4.39473e-05
4.1609e-05
3.99457e-05
3.87861e-05
3.81415e-05
3.78664e-05
3.77789e-05
3.78834e-05
3.79137e-05
3.7929e-05
3.76879e-05
3.7263e-05
3.65595e-05
3.56867e-05
3.48674e-05
3.40445e-05
3.35693e-05
3.30748e-05
3.25905e-05
3.18257e-05
3.04431e-05
2.78601e-05
2.08922e-05
1.34198e-05
1.37581e-05
1.43969e-05
1.38491e-05
1.90126e-05
1.65343e-05
1.28645e-05
1.09706e-05
9.01613e-06
7.9186e-06
7.82257e-06
7.98528e-06
8.53932e-06
1.0222e-05
1.16455e-05
1.27564e-05
1.31504e-05
1.32321e-05
1.29462e-05
1.2618e-05
1.22839e-05
1.20423e-05
1.17833e-05
1.15155e-05
1.12564e-05
1.1095e-05
1.10479e-05
1.10797e-05
1.11737e-05
1.13166e-05
1.14914e-05
1.16612e-05
1.17863e-05
1.18669e-05
1.19205e-05
1.19671e-05
1.20137e-05
1.20582e-05
1.2102e-05
1.21498e-05
1.22253e-05
1.2314e-05
1.24577e-05
1.25785e-05
1.27234e-05
1.27792e-05
1.28181e-05
1.27178e-05
1.24615e-05
1.2184e-05
1.14803e-05
1.09078e-05
1.10599e-05
1.25085e-05
1.54332e-05
1.64075e-05
2.00079e-05
2.1557e-05
2.90233e-05
3.60474e-05
5.15733e-05
6.61688e-05
7.99431e-05
9.33697e-05
0.000129812
0.000108631
0.000103824
9.62026e-05
8.92522e-05
8.40982e-05
7.94899e-05
7.49408e-05
7.01567e-05
6.53108e-05
5.98067e-05
5.39462e-05
4.80241e-05
3.69787e-05
2.3248e-05
1.71785e-05
1.73693e-05
1.78373e-05
1.8669e-05
1.90503e-05
1.91573e-05
1.91214e-05
1.85648e-05
1.74244e-05
1.60366e-05
1.52444e-05
1.63682e-05
1.90034e-05
2.20075e-05
2.49834e-05
2.68494e-05
2.72718e-05
2.6566e-05
2.43987e-05
2.07027e-05
1.47378e-05
6.74595e-05
5.84322e-05
4.3889e-05
3.7471e-05
3.15653e-05
3.02074e-05
3.26275e-05
3.45743e-05
3.53698e-05
3.94036e-05
4.19165e-05
4.27221e-05
4.225e-05
4.04412e-05
3.85499e-05
3.77031e-05
3.77474e-05
3.84266e-05
3.91081e-05
3.96655e-05
4.00783e-05
4.03984e-05
4.0798e-05
4.11873e-05
4.15346e-05
4.18414e-05
4.21189e-05
4.23265e-05
4.24226e-05
4.24552e-05
4.244e-05
4.24026e-05
4.23638e-05
4.23303e-05
4.23018e-05
4.22777e-05
4.22759e-05
4.22839e-05
4.23822e-05
4.24925e-05
4.27788e-05
4.30677e-05
4.35916e-05
4.39091e-05
4.41535e-05
4.39969e-05
4.33163e-05
4.36003e-05
4.52215e-05
5.01478e-05
5.6178e-05
5.81417e-05
6.8815e-05
7.99939e-05
0.000116824
0.000161203
0.00023108
0.000277224
0.000495043
0.00048632
2.01202e-05
6.86408e-05
0.000157121
0.000143186
0.00013182
0.00012286
0.000110871
0.000100349
9.13021e-05
8.31831e-05
7.45944e-05
6.70878e-05
6.04475e-05
4.42438e-05
3.31346e-05
4.03012e-05
4.79943e-05
5.20503e-05
5.23143e-05
5.13036e-05
4.78917e-05
4.73892e-05
4.5167e-05
4.01273e-05
3.49452e-05
3.36589e-05
3.74831e-05
4.10241e-05
4.69732e-05
5.48344e-05
5.56007e-05
5.15766e-05
4.73725e-05
3.65175e-05
2.77557e-05
1.56263e-05
6.50129e-05
5.85234e-05
5.42054e-05
5.11741e-05
4.88069e-05
4.74923e-05
4.69098e-05
4.68172e-05
4.66735e-05
4.77627e-05
4.7256e-05
4.60582e-05
4.41373e-05
4.14158e-05
3.8725e-05
3.73025e-05
3.74648e-05
3.86123e-05
3.99518e-05
4.11917e-05
4.23208e-05
4.32293e-05
4.40557e-05
4.46928e-05
4.51377e-05
4.54377e-05
4.56469e-05
4.57613e-05
4.57475e-05
4.56477e-05
4.54868e-05
4.53242e-05
4.51811e-05
4.50559e-05
4.49467e-05
4.48438e-05
4.47413e-05
4.46329e-05
4.45658e-05
4.45178e-05
4.46638e-05
4.48238e-05
4.51464e-05
4.54587e-05
4.60702e-05
4.73356e-05
4.90131e-05
5.08378e-05
5.54473e-05
6.31235e-05
6.87484e-05
7.62234e-05
8.93188e-05
0.000104065
0.000143458
0.000176057
0.000246025
0.000279001
0.000298348
0.000251621
1.73151e-05
0.000127762
0.000169297
0.000140652
0.000122885
0.000112821
0.000108911
0.000106145
0.000101599
9.55398e-05
8.85761e-05
8.0981e-05
7.29135e-05
5.74477e-05
6.26928e-05
6.95746e-05
6.82921e-05
6.6929e-05
6.91959e-05
7.01126e-05
7.20517e-05
7.30303e-05
7.11614e-05
6.52738e-05
6.00568e-05
5.84501e-05
5.72976e-05
5.88583e-05
6.05022e-05
6.12316e-05
5.70397e-05
5.36565e-05
5.31227e-05
4.46439e-05
3.62869e-05
1.70268e-05
7.49462e-05
6.47863e-05
6.13225e-05
5.77195e-05
5.59693e-05
5.51634e-05
5.44504e-05
5.43211e-05
5.25368e-05
5.07791e-05
4.82191e-05
4.50539e-05
4.16255e-05
3.79352e-05
3.50589e-05
3.37514e-05
3.41145e-05
3.55567e-05
3.74299e-05
3.92947e-05
4.07734e-05
4.20554e-05
4.31711e-05
4.40028e-05
4.45422e-05
4.486e-05
4.50492e-05
4.51234e-05
4.50554e-05
4.48902e-05
4.46663e-05
4.44539e-05
4.42698e-05
4.41134e-05
4.39805e-05
4.38441e-05
4.369e-05
4.3527e-05
4.33553e-05
4.32361e-05
4.32486e-05
4.342e-05
4.37289e-05
4.43688e-05
4.55593e-05
4.73285e-05
4.96699e-05
5.23396e-05
5.80568e-05
6.75102e-05
7.63046e-05
9.09891e-05
0.00011586
0.000144159
0.000180179
0.000207171
0.000255101
0.000250165
0.00015751
0.000101124
1.74132e-05
0.000100856
0.000141522
0.000110894
0.000104859
9.76692e-05
9.34718e-05
9.28806e-05
9.29938e-05
9.39928e-05
9.11353e-05
8.51853e-05
7.38851e-05
6.90365e-05
8.12287e-05
8.91963e-05
8.99249e-05
8.8393e-05
9.47861e-05
9.7815e-05
9.86617e-05
9.64476e-05
9.23807e-05
8.70815e-05
8.16003e-05
7.51131e-05
7.13817e-05
6.80805e-05
6.44134e-05
5.81128e-05
5.57198e-05
5.48478e-05
5.54659e-05
4.84902e-05
4.01365e-05
1.80594e-05
8.01973e-05
6.35272e-05
6.21769e-05
6.24098e-05
5.98526e-05
5.84664e-05
5.7376e-05
5.65654e-05
5.48634e-05
5.04327e-05
4.7063e-05
4.30122e-05
3.9888e-05
3.63222e-05
3.3703e-05
3.26156e-05
3.27208e-05
3.36165e-05
3.49006e-05
3.61541e-05
3.7351e-05
3.86851e-05
3.96749e-05
4.03657e-05
4.08452e-05
4.11986e-05
4.14114e-05
4.1496e-05
4.14304e-05
4.12503e-05
4.10076e-05
4.07798e-05
4.05814e-05
4.04141e-05
4.02682e-05
4.01172e-05
3.99701e-05
3.98211e-05
3.96945e-05
3.9583e-05
3.95678e-05
3.9725e-05
4.0002e-05
4.07264e-05
4.21963e-05
4.51094e-05
5.06255e-05
5.64667e-05
6.49145e-05
8.16312e-05
9.59489e-05
0.000106893
0.000155811
0.000229649
0.000246974
0.000272257
0.000257216
0.000241178
7.21016e-05
3.30511e-05
1.68668e-05
0.000102703
0.000145779
0.000104201
0.000106744
9.20092e-05
8.4928e-05
8.38967e-05
8.49831e-05
8.67882e-05
8.82328e-05
8.65312e-05
8.36299e-05
8.9579e-05
0.000105655
0.000116469
0.000118483
0.000122257
0.000123295
0.000121903
0.000120293
0.000114255
0.000109083
0.00010264
9.64048e-05
8.87618e-05
8.00728e-05
7.02669e-05
6.20345e-05
5.56242e-05
5.29087e-05
5.39281e-05
5.48191e-05
4.86815e-05
4.11498e-05
1.87405e-05
8.90953e-05
6.2594e-05
6.03143e-05
6.08998e-05
6.13901e-05
6.17758e-05
5.84033e-05
5.641e-05
5.4081e-05
4.83465e-05
4.54372e-05
4.17407e-05
3.89811e-05
3.54092e-05
3.09317e-05
2.81933e-05
2.80834e-05
2.9397e-05
3.15142e-05
3.37631e-05
3.57863e-05
3.72334e-05
3.8089e-05
3.86474e-05
3.90254e-05
3.92872e-05
3.94596e-05
3.95368e-05
3.95095e-05
3.9389e-05
3.92204e-05
3.9064e-05
3.89314e-05
3.8806e-05
3.86647e-05
3.85407e-05
3.84242e-05
3.82916e-05
3.81957e-05
3.80857e-05
3.79569e-05
3.80999e-05
3.8302e-05
3.91149e-05
4.01509e-05
4.37952e-05
5.47886e-05
7.04681e-05
8.78055e-05
0.000106763
0.000121181
0.000133199
0.000197242
0.000290079
0.000296573
0.000247994
0.000204915
0.000162999
2.03273e-05
1.94144e-05
1.76073e-05
0.000105799
0.000147487
0.00011575
0.000112035
9.7402e-05
9.08928e-05
8.88466e-05
8.8364e-05
9.08734e-05
9.30137e-05
9.58092e-05
0.000107626
0.000140986
0.000154783
0.000160499
0.000148668
0.000145525
0.000138606
0.000133671
0.000127615
0.000122829
0.000118141
0.000112213
0.000104512
9.68441e-05
8.62098e-05
7.59518e-05
6.47993e-05
5.65642e-05
5.33306e-05
5.28363e-05
5.07457e-05
4.59867e-05
4.03597e-05
1.88264e-05
7.97913e-05
5.80152e-05
5.68749e-05
5.91848e-05
6.1461e-05
6.02325e-05
5.66755e-05
5.42694e-05
5.18442e-05
4.6442e-05
4.3932e-05
4.09952e-05
3.69871e-05
3.11404e-05
2.69695e-05
2.46885e-05
2.45586e-05
2.55884e-05
2.69198e-05
2.83173e-05
2.96831e-05
3.10272e-05
3.21801e-05
3.30735e-05
3.36942e-05
3.41212e-05
3.43947e-05
3.4521e-05
3.44537e-05
3.41989e-05
3.3855e-05
3.35233e-05
3.32107e-05
3.29291e-05
3.26732e-05
3.23939e-05
3.21039e-05
3.18017e-05
3.14655e-05
3.12253e-05
3.10183e-05
3.11375e-05
3.1424e-05
3.26417e-05
3.55868e-05
4.24431e-05
5.79421e-05
9.07358e-05
0.000115376
0.000134587
0.000146827
0.000161245
0.000213448
0.000307052
0.000278348
0.000200692
0.000141692
5.95903e-05
1.05831e-05
1.7626e-05
2.34009e-05
0.000124416
0.000154697
0.000133863
0.000128543
0.000117423
0.000111134
0.000108925
0.000106791
0.000113304
0.000126929
0.000148293
0.000171032
0.000181673
0.000179944
0.000164565
0.000149124
0.000140683
0.000136388
0.000131708
0.000131358
0.00012867
0.000126134
0.0001243
0.000115494
0.00010649
9.42093e-05
8.30872e-05
7.79613e-05
6.79305e-05
6.46271e-05
6.28635e-05
6.27603e-05
5.11712e-05
4.28301e-05
1.99098e-05
6.34873e-05
5.09457e-05
4.15472e-05
4.64333e-05
5.23861e-05
5.66129e-05
5.4472e-05
5.17666e-05
4.99972e-05
4.39583e-05
4.1531e-05
3.68181e-05
3.29318e-05
2.72602e-05
2.19936e-05
1.90896e-05
1.89251e-05
2.03214e-05
2.22848e-05
2.40264e-05
2.54632e-05
2.66519e-05
2.74787e-05
2.80794e-05
2.84874e-05
2.87571e-05
2.89078e-05
2.89083e-05
2.8716e-05
2.83416e-05
2.78934e-05
2.74933e-05
2.71765e-05
2.6875e-05
2.65413e-05
2.62166e-05
2.59087e-05
2.56462e-05
2.53634e-05
2.51588e-05
2.49294e-05
2.49713e-05
2.51601e-05
2.60329e-05
2.81561e-05
3.434e-05
5.81332e-05
0.000101159
0.00014018
0.000163013
0.000181205
0.000195894
0.000215867
0.00026161
0.000220124
0.000130484
9.24397e-05
4.19768e-05
1.31746e-05
2.03797e-05
2.56222e-05
0.000144042
0.000173566
0.000155601
0.00015504
0.00014991
0.000148165
0.000148067
0.000151508
0.000158878
0.000166681
0.00017109
0.000171949
0.000166767
0.000154761
0.000144455
0.000139407
0.000137512
0.000138755
0.000138935
0.000138456
0.000138882
0.000139097
0.000140801
0.000141476
0.000135311
0.00012497
0.000110376
9.4183e-05
8.25157e-05
7.60482e-05
7.24878e-05
6.72019e-05
5.64452e-05
4.11455e-05
7.3473e-06
4.68989e-05
5.02127e-05
3.41897e-05
3.23432e-05
3.52152e-05
3.81891e-05
4.17181e-05
4.16733e-05
4.17318e-05
3.88325e-05
3.73484e-05
3.31054e-05
2.84102e-05
2.18829e-05
1.76483e-05
1.56239e-05
1.53958e-05
1.59798e-05
1.68674e-05
1.77632e-05
1.83708e-05
1.89217e-05
1.96776e-05
2.02618e-05
2.06479e-05
2.08994e-05
2.10475e-05
2.11068e-05
2.10165e-05
2.07581e-05
2.04337e-05
2.01383e-05
1.9885e-05
1.96545e-05
1.94353e-05
1.92227e-05
1.90235e-05
1.88491e-05
1.86987e-05
1.86321e-05
1.84798e-05
1.85875e-05
1.8741e-05
1.9364e-05
2.08898e-05
2.47439e-05
4.58712e-05
9.98296e-05
0.000148124
0.000183477
0.000211357
0.000229242
0.000239372
0.00024387
0.000207917
0.000176906
0.000158969
0.000118311
1.26007e-05
1.75891e-05
1.95965e-05
0.000136218
0.000176757
0.00018019
0.00018241
0.000178521
0.000173478
0.00017139
0.000169206
0.000170324
0.000169914
0.00016938
0.000168048
0.000159071
0.000146547
0.000138005
0.000129723
0.000123256
0.0001207
0.000111202
0.000105879
0.000102862
9.98511e-05
9.86852e-05
9.99756e-05
0.000105892
0.000115693
0.000118601
0.000110347
9.02489e-05
7.09498e-05
6.73014e-05
7.02141e-05
6.24958e-05
4.18112e-05
2.10089e-05
4.57278e-05
5.06388e-05
3.11398e-05
2.62082e-05
2.53936e-05
2.57201e-05
2.75601e-05
2.96858e-05
3.30404e-05
3.39389e-05
3.36638e-05
3.0132e-05
2.51716e-05
1.93919e-05
1.52924e-05
1.3996e-05
1.38188e-05
1.42276e-05
1.48334e-05
1.54074e-05
1.61949e-05
1.69909e-05
1.73143e-05
1.75439e-05
1.76814e-05
1.77541e-05
1.77842e-05
1.78053e-05
1.77506e-05
1.7563e-05
1.73228e-05
1.71331e-05
1.70224e-05
1.69341e-05
1.68273e-05
1.67574e-05
1.6698e-05
1.66692e-05
1.66464e-05
1.66089e-05
1.64914e-05
1.64187e-05
1.6392e-05
1.62871e-05
1.66588e-05
1.68364e-05
2.30423e-05
7.4365e-05
0.00014566
0.000188797
0.000217857