/*--------------------------------*- C++ -*----------------------------------*\
| =========                 |                                                 |
| \\      /  F ield         | OpenFOAM: The Open Source CFD Toolbox           |
|  \\    /   O peration     | Version:  2.3.0                                 |
|   \\  /    A nd           | Web:      www.OpenFOAM.org                      |
|    \\/     M anipulation  |                                                 |
\*---------------------------------------------------------------------------*/
FoamFile
{
    version     2.0;
    format      ascii;
    class       surfaceScalarField;
    location    "42";
    object      phi.water;
}
// * * * * * * * * * * * * * * * * * * * * * * * * * * * * * * * * * * * * * //

dimensions      [0 3 -1 0 0 0 0];

internalField   nonuniform List<scalar> 
16448
(
-8.9326e-07
-2.66275e-06
3.39799e-07
1.14488e-06
-2.64747e-06
6.13786e-07
1.27159e-06
-1.16424e-06
1.04052e-06
1.12225e-06
-9.25257e-07
1.07778e-06
6.32423e-07
-5.18749e-07
1.01265e-06
2.54187e-07
-5.91939e-07
9.75275e-07
2.46101e-08
-6.12747e-07
8.49511e-07
-7.14401e-08
-5.49987e-07
6.53469e-07
-2.66422e-07
-3.42819e-07
5.41479e-07
-5.56551e-07
-2.1019e-07
5.00603e-07
-7.942e-07
-1.81125e-07
4.189e-07
-8.63575e-07
-2.30305e-07
2.99794e-07
-7.77571e-07
-3.11399e-07
2.2554e-07
-5.93466e-07
-3.68516e-07
1.8455e-07
-3.97833e-07
-3.97697e-07
2.02257e-07
-2.14554e-07
-4.20303e-07
2.37194e-07
-6.99115e-08
-4.32576e-07
2.88154e-07
4.33885e-08
-4.48015e-07
3.34917e-07
1.19148e-07
-4.59166e-07
3.83623e-07
1.6036e-07
-4.6632e-07
4.25316e-07
1.75592e-07
-4.74659e-07
4.5964e-07
1.74216e-07
-4.78088e-07
4.79672e-07
1.63714e-07
-4.76431e-07
4.87147e-07
1.48979e-07
-4.70177e-07
4.85128e-07
1.33898e-07
-4.60036e-07
4.75342e-07
1.21771e-07
-4.47376e-07
4.59733e-07
1.14808e-07
-4.33153e-07
4.40358e-07
1.14075e-07
-4.19903e-07
4.20879e-07
1.18553e-07
-4.08941e-07
4.04715e-07
1.24528e-07
-3.97676e-07
3.91953e-07
1.29391e-07
-3.86619e-07
3.82015e-07
1.3295e-07
-3.76681e-07
3.73381e-07
1.35896e-07
-3.67964e-07
3.65286e-07
1.38244e-07
-3.59732e-07
3.57647e-07
1.40077e-07
-3.5158e-07
3.50023e-07
1.42028e-07
-3.43431e-07
3.41744e-07
1.47785e-07
-3.365e-07
3.31028e-07
1.58535e-07
-3.29015e-07
3.18525e-07
1.81458e-07
-3.25876e-07
3.03247e-07
2.139e-07
-3.19874e-07
2.87684e-07
2.60022e-07
-3.1969e-07
2.73885e-07
3.13223e-07
-3.17313e-07
2.64321e-07
3.6434e-07
-3.15902e-07
2.65177e-07
4.03581e-07
-3.17328e-07
2.78169e-07
3.78953e-07
-2.93575e-07
3.18732e-07
2.83352e-07
-2.83865e-07
3.79423e-07
1.09698e-07
-2.97388e-07
4.71598e-07
-9.12406e-08
-3.80868e-07
5.84749e-07
-2.84871e-08
-7.95707e-07
7.50121e-07
-1.01367e-07
-9.19777e-07
1.0147e-06
4.66418e-07
-1.63926e-06
1.13483e-06
5.76272e-07
-1.05959e-06
9.8992e-07
7.80256e-07
-1.55987e-06
1.478e-06
-3.88818e-07
-6.12011e-07
1.77039e-06
6.40579e-08
-2.39967e-06
2.08272e-06
-1.87825e-06
-1.2485e-06
3.06683e-06
-5.21984e-08
1.83644e-07
-7.77418e-07
5.05401e-07
-1.60345e-07
-7.89559e-07
7.60124e-06
-1.48714e-06
4.94983e-06
2.78287e-05
-1.12725e-05
1.04672e-05
1.72633e-05
-1.76657e-05
8.13097e-07
2.387e-05
-1.16467e-05
4.11162e-06
2.48625e-05
-5.98501e-06
4.99116e-06
2.76061e-05
-6.00287e-06
3.2592e-06
2.99681e-05
-4.70172e-06
2.33972e-06
3.06336e-05
-2.5648e-06
1.8993e-06
3.00119e-05
-9.53175e-07
1.57494e-06
2.84151e-05
2.17901e-07
1.37881e-06
2.5823e-05
1.3501e-06
1.24205e-06
2.22545e-05
2.44183e-06
1.12666e-06
1.81197e-05
3.06085e-06
1.07397e-06
1.35067e-05
3.46322e-06
1.1498e-06
8.41776e-06
3.6828e-06
1.40609e-06
4.47899e-06
2.841e-06
1.09777e-06
2.35957e-06
1.47104e-06
6.48383e-07
1.11758e-06
5.05833e-07
7.36152e-07
6.84732e-07
-1.59443e-07
5.92291e-07
1.17946e-06
-4.39345e-07
-5.53832e-08
2.12802e-06
-2.45969e-07
-7.02594e-07
2.97621e-06
3.46746e-07
-1.19493e-06
3.42606e-06
1.06016e-06
-1.51002e-06
3.34693e-06
1.5325e-06
-1.45336e-06
2.82194e-06
1.70971e-06
-1.18473e-06
1.90476e-06
1.6432e-06
-7.26015e-07
7.39686e-07
1.23793e-06
-7.28601e-08
-3.08296e-07
2.99463e-07
7.48519e-07
-8.7638e-07
-8.852e-07
1.45329e-06
-7.71502e-07
-2.29682e-06
2.19195e-06
3.81768e-07
-4.14151e-06
2.98824e-06
2.90564e-06
-6.21431e-06
3.69044e-06
6.07266e-06
-7.0299e-06
3.86288e-06
8.49886e-06
-6.14397e-06
3.71778e-06
8.69629e-06
-3.02661e-06
2.82918e-06
6.51817e-06
2.65148e-07
1.91297e-06
3.03603e-06
2.65403e-06
8.28106e-07
3.52347e-06
-4.87437e-07
-1.66755e-06
-3.81686e-06
-3.36275e-07
-1.82311e-07
-3.92088e-06
-2.03607e-07
2.65979e-07
-2.20265e-06
5.96053e-07
6.52207e-07
-1.83627e-06
5.29885e-07
6.49489e-07
-9.62383e-07
4.51627e-07
4.39868e-07
-8.12712e-07
4.34815e-07
1.25268e-07
-5.36042e-07
2.4333e-07
-1.02079e-07
-3.89282e-07
7.29738e-08
-4.23852e-07
-1.11468e-07
9.37944e-08
-8.08662e-07
2.40389e-08
1.50437e-07
-1.06016e-06
-2.66344e-08
9.68393e-08
-1.10385e-06
-1.76337e-07
-1.05117e-08
-1.00592e-06
-3.14818e-07
-9.45947e-08
-8.18183e-07
-4.12787e-07
-1.43567e-07
-6.02958e-07
-4.62134e-07
-1.50843e-07
-3.94909e-07
-4.93299e-07
-1.35117e-07
-2.22401e-07
-5.04501e-07
-1.00599e-07
-8.20368e-08
-5.20244e-07
-6.81655e-08
2.12305e-08
-5.28757e-07
-3.36994e-08
8.74493e-08
-5.29858e-07
-2.72875e-09
1.24191e-07
-5.27859e-07
1.64383e-08
1.39858e-07
-5.21084e-07
2.73281e-08
1.4222e-07
-5.10003e-07
3.12185e-08
1.37045e-07
-4.94635e-07
2.96462e-08
1.28831e-07
-4.75747e-07
2.39375e-08
1.21001e-07
-4.55048e-07
1.55114e-08
1.15981e-07
-4.3395e-07
5.81658e-09
1.15115e-07
-4.13535e-07
-5.5036e-09
1.17405e-07
-3.93926e-07
-1.72895e-08
1.1961e-07
-3.73459e-07
-2.6394e-08
1.2063e-07
-3.53516e-07
-3.4087e-08
1.21122e-07
-3.35862e-07
-4.12689e-08
1.22101e-07
-3.20643e-07
-4.82512e-08
1.23468e-07
-3.06351e-07
-5.46986e-08
1.26283e-07
-2.93025e-07
-6.131e-08
1.29859e-07
-2.79385e-07
-6.75688e-08
1.39261e-07
-2.69552e-07
-7.62758e-08
1.52451e-07
-2.57991e-07
-8.41609e-08
1.8051e-07
-2.57448e-07
-9.63957e-08
2.16115e-07
-2.50281e-07
-1.05156e-07
2.67051e-07
-2.5765e-07
-1.12847e-07
3.19225e-07
-2.51455e-07
-1.18029e-07
3.65519e-07
-2.52721e-07
-1.09261e-07
3.86389e-07
-2.37546e-07
-1.00768e-07
3.38377e-07
-1.9276e-07
-5.25018e-08
1.95045e-07
-1.43958e-07
3.13332e-09
-2.47484e-08
-1.63924e-07
8.70947e-08
-2.46314e-07
-2.98726e-07
1.41619e-07
-3.19631e-07
-9.45413e-07
2.36607e-07
-4.55139e-07
-1.20017e-06
4.45096e-07
-1.2277e-07
-2.60544e-06
7.17893e-07
-3.56638e-07
-1.40703e-06
6.23726e-07
-1.25615e-06
-1.23062e-06
6.78873e-07
-2.3991e-06
-4.56056e-07
9.66586e-07
-9.17756e-07
-4.6407e-06
8.31587e-07
2.45406e-06
-5.59124e-06
8.89344e-07
-5.58607e-07
4.09798e-06
1.46565e-07
-8.74322e-06
3.86694e-06
4.15663e-06
3.01496e-06
-5.05072e-06
2.5795e-06
3.00226e-05
-2.53142e-05
3.4832e-06
1.54737e-05
-2.77918e-05
-3.46928e-06
1.86253e-05
-1.83367e-05
2.13386e-06
1.87012e-05
-1.21664e-05
6.10335e-06
2.16389e-05
-1.00912e-05
1.15062e-06
2.3478e-05
-6.60722e-06
6.64623e-08
2.45967e-05
-3.30062e-06
-3.82955e-07
2.47813e-05
-6.23441e-07
-5.14274e-07
2.38904e-05
1.56322e-06
-4.54441e-07
2.20232e-05
3.53398e-06
-3.16696e-07
1.92522e-05
5.40063e-06
-1.87799e-07
1.56478e-05
6.7121e-06
-4.68918e-08
1.13731e-05
7.34184e-06
3.96106e-07
6.97058e-06
7.23783e-06
8.47509e-07
3.08106e-06
5.95829e-06
7.72234e-07
1.14953e-07
3.95403e-06
4.83114e-07
-1.50968e-06
2.18209e-06
-5.16249e-08
-1.7308e-06
1.1572e-06
-1.09552e-06
-8.53122e-07
1.04645e-06
-2.36348e-06
5.13497e-07
1.58335e-06
-3.19593e-06
1.81503e-06
2.59023e-06
-3.54502e-06
2.54971e-06
3.43667e-06
-3.11119e-06
2.66208e-06
3.73409e-06
-2.31396e-06
2.27485e-06
3.69206e-06
-1.59511e-06
1.44757e-06
3.30077e-06
-8.30298e-07
4.55211e-07
2.33162e-06
-1.01327e-07
-1.58885e-07
5.72675e-07
3.40885e-07
-2.09521e-07
-1.51145e-06
6.76885e-07
3.33875e-07
-3.92701e-06
1.08679e-06
1.3777e-06
-6.91342e-06
1.72808e-06
3.33632e-06
-1.05103e-05
2.3374e-06
5.44113e-06
-1.18752e-05
2.74047e-06
6.25896e-06
-9.1801e-06
2.2183e-06
5.44137e-06
-3.32986e-06
1.12084e-06
3.50763e-06
1.76671e-06
4.32176e-07
1.34633e-06
4.89128e-06
-7.59605e-08
6.22086e-06
-1.35106e-06
-2.58103e-06
-4.29088e-06
-5.16647e-07
-1.52396e-06
-4.40198e-06
-5.66806e-07
-9.59358e-07
-2.89596e-06
1.3597e-07
-2.77548e-07
-2.44841e-06
-6.27226e-08
4.85553e-08
-1.20702e-06
-7.61574e-08
5.79928e-08
-7.82601e-07
-3.57494e-08
-5.59744e-08
-2.8787e-07
-1.29525e-07
-1.80746e-07
-7.45404e-08
-1.84808e-07
-3.99754e-07
2.47672e-07
-1.37004e-07
-7.06026e-07
3.81152e-07
-5.04161e-08
-9.2641e-07
2.62157e-07
-6.82747e-08
-9.88016e-07
3.6899e-08
-1.51512e-07
-9.53553e-07
-1.27975e-07
-2.21142e-07
-8.50209e-07
-2.44672e-07
-2.71389e-07
-7.07664e-07
-3.01425e-07
-3.03199e-07
-5.4825e-07
-3.33736e-07
-3.18989e-07
-3.99354e-07
-3.39173e-07
-3.14218e-07
-2.70679e-07
-3.45629e-07
-3.03303e-07
-1.63764e-07
-3.45739e-07
-2.89929e-07
-7.71725e-08
-3.39321e-07
-2.77132e-07
-1.41262e-08
-3.23362e-07
-2.67525e-07
2.8925e-08
-3.03597e-07
-2.60511e-07
5.66224e-08
-2.81462e-07
-2.56197e-07
7.31226e-08
-2.57112e-07
-2.53972e-07
8.22082e-08
-2.31484e-07
-2.53286e-07
8.68987e-08
-2.06085e-07
-2.53584e-07
8.98094e-08
-1.82367e-07
-2.54411e-07
9.1313e-08
-1.59393e-07
-2.55556e-07
8.98415e-08
-1.35193e-07
-2.57158e-07
8.60022e-08
-1.0996e-07
-2.59549e-07
8.19584e-08
-8.65865e-08
-2.62762e-07
7.90586e-08
-6.65703e-08
-2.66263e-07
7.80415e-08
-4.97428e-08
-2.69741e-07
7.89199e-08
-3.43555e-08
-2.72731e-07
8.31174e-08
-2.11684e-08
-2.75892e-07
8.95149e-08
-7.80301e-09
-2.7782e-07
1.02486e-07
-8.49031e-10
-2.81492e-07
1.1541e-07
1.13711e-08
-2.82123e-07
1.40512e-07
4.67633e-09
-2.87026e-07
1.6305e-07
1.30649e-08
-2.85726e-07
1.97076e-07
-2.09213e-09
-2.89344e-07
2.1492e-07
1.42116e-08
-2.8339e-07
2.34597e-07
8.34492e-09
-2.80455e-07
2.14168e-07
5.18171e-08
-2.68898e-07
1.60394e-07
1.0116e-07
-2.39847e-07
3.33374e-08
1.92407e-07
-2.09396e-07
-1.90788e-07
1.80905e-07
-1.19445e-07
-3.86265e-07
8.31975e-09
-1.08325e-07
-6.78311e-07
-6.94122e-07
6.12003e-08
-1.06447e-06
-1.10491e-06
3.40827e-07
-2.8618e-06
-1.65001e-06
9.17117e-07
-4.34828e-06
-4.65452e-07
5.71496e-07
-4.52169e-06
-7.1497e-07
-2.64294e-07
-2.44213e-06
-1.4951e-06
-1.05167e-06
1.41372e-06
-8.02427e-06
-3.12711e-07
2.28867e-06
-6.29436e-06
-1.96805e-07
6.15703e-06
3.88926e-06
-2.22195e-06
-2.26938e-06
1.13837e-05
1.36484e-07
5.42798e-06
-4.62249e-06
4.38495e-06
3.08134e-05
-2.99195e-05
-2.34437e-06
1.13936e-05
-3.31379e-05
-4.14096e-06
1.19886e-05
-2.19382e-05
1.67188e-06
1.38683e-05
-1.84676e-05
4.42002e-06
1.64939e-05
-1.21765e-05
-5.40379e-07
1.7889e-05
-6.3913e-06
-1.61099e-06
1.94273e-05
-3.20136e-06
-1.63755e-06
1.99857e-05
-1.01506e-07
-1.08037e-06
1.89954e-05
3.18622e-06
-6.32693e-07
1.69812e-05
6.03333e-06
-4.85192e-07
1.41131e-05
8.65709e-06
-3.88344e-07
1.05302e-05
1.04639e-05
-1.68868e-07
6.70476e-06
1.10716e-05
9.56973e-08
2.52203e-06
1.08241e-05
5.96468e-07
-1.25894e-06
8.90591e-06
8.33342e-07
-3.45927e-06
6.21217e-06
-5.78011e-08
-4.19517e-06
4.26455e-06
-1.34657e-06
-3.62896e-06
3.49962e-06
-2.90863e-06
-2.20546e-06
3.78981e-06
-4.16687e-06
-6.5672e-07
4.70719e-06
-4.67258e-06
5.43451e-07
5.43831e-06
-4.04825e-06
1.04469e-06
5.78866e-06
-2.85323e-06
9.33553e-07
5.67102e-06
-1.82579e-06
4.53785e-07
5.10763e-06
-9.35801e-07
-1.23359e-07
4.18116e-06
-3.03247e-07
-4.60211e-07
2.6711e-06
-2.6319e-09
-5.39548e-07
6.83514e-07
-3.15021e-08
-3.60659e-07
-1.67731e-06
-1.30272e-08
1.80053e-07
-4.57752e-06
1.09802e-07
9.84386e-07
-8.35204e-06
6.34283e-07
2.06216e-06
-1.30388e-05
1.45072e-06
3.10428e-06
-1.48956e-05
1.97833e-06
2.86727e-06
-1.01819e-05
1.23878e-06
1.69576e-06
-1.72572e-06
-4.32632e-07
6.21272e-07
3.76151e-06
-9.2031e-07
-8.42222e-08
6.80668e-06
-1.20991e-06
8.20735e-06
-2.07071e-06
-3.61258e-06
-4.6002e-06
-2.12967e-07
-2.56781e-06
-4.80604e-06
-6.32898e-07
-2.09911e-06
-3.46202e-06
1.05346e-07
-1.26712e-06
-3.10927e-06
-1.63295e-07
-7.2645e-07
-1.62964e-06
-1.10955e-07
-3.67142e-07
-1.05356e-06
-8.35222e-08
-2.71309e-07
-2.13687e-07
-1.65426e-07
-2.24204e-07
7.73616e-08
-1.94341e-07
-2.74757e-07
4.79541e-07
-1.78111e-07
-4.86604e-07
6.89159e-07
-9.54864e-08
-6.75428e-07
5.75831e-07
-1.24715e-07
-7.83678e-07
3.309e-07
-1.85562e-07
-8.2354e-07
1.49192e-07
-2.37072e-07
-7.88497e-07
9.29866e-09
-2.88861e-07
-7.088e-07
-6.04459e-08
-3.20476e-07
-5.9321e-07
-9.52158e-08
-3.53938e-07
-4.67848e-07
-8.88819e-08
-3.75462e-07
-3.54344e-07
-7.19914e-08
-3.86942e-07
-2.55076e-07
-5.20152e-08
-3.92781e-07
-1.68351e-07
-3.09401e-08
-3.94891e-07
-9.61089e-08
-2.93175e-09
-3.92461e-07
-3.73627e-08
2.46435e-08
-3.86761e-07
7.30739e-09
5.36139e-08
-3.79514e-07
3.89068e-08
8.40056e-08
-3.7247e-07
5.88499e-08
1.15096e-07
-3.66273e-07
6.92581e-08
1.44513e-07
-3.60742e-07
7.28154e-08
1.70482e-07
-3.56144e-07
7.21748e-08
1.94094e-07
-3.52576e-07
6.92394e-08
2.18547e-07
-3.5054e-07
6.5214e-08
2.44288e-07
-3.49953e-07
6.15086e-08
2.67897e-07
-3.50517e-07
5.85386e-08
2.88125e-07
-3.51466e-07
5.63323e-08
3.05145e-07
-3.52432e-07
5.55813e-08
3.19752e-07
-3.53113e-07
5.76461e-08
3.30969e-07
-3.53961e-07
6.25693e-08
3.41654e-07
-3.54159e-07
7.24416e-08
3.45073e-07
-3.55558e-07
8.38032e-08
3.53163e-07
-3.52941e-07
1.04794e-07
3.39769e-07
-3.55841e-07
1.13469e-07
3.51258e-07
-3.46658e-07
1.35393e-07
3.26807e-07
-3.50575e-07
1.3416e-07
3.54955e-07
-3.39341e-07
1.48769e-07
3.36135e-07
-3.42133e-07
1.21563e-07
4.07002e-07
-3.27842e-07
4.95754e-08
4.60943e-07
-2.87485e-07
-1.29443e-07
6.11281e-07
-2.39819e-07
-4.99155e-07
6.42625e-07
-9.05407e-08
-9.31649e-07
4.78209e-07
-3.2232e-08
-1.75984e-06
-3.7165e-08
1.98312e-07
-3.3061e-06
-1.32029e-07
6.11423e-07
-6.24475e-06
1.59163e-07
1.1777e-06
-7.26009e-06
5.98633e-07
-2.85815e-08
-4.77282e-06
-1.96871e-06
-1.11138e-06
2.05919e-06
-6.0592e-06
-2.26602e-06
6.66773e-06
-1.03699e-05
-2.09551e-06
5.95552e-06
-3.88128e-06
-1.89921e-06
1.05359e-05
2.73133e-06
-2.19358e-06
2.83529e-06
2.08107e-05
-2.96074e-06
9.79264e-06
-8.45505e-06
1.07679e-05
3.4626e-05
-3.16798e-05
-3.15804e-06
1.07695e-05
-3.7169e-05
-3.59651e-06
8.59114e-06
-2.35845e-05
2.27377e-06
8.74175e-06
-2.14138e-05
2.7934e-06
9.58588e-06
-1.21497e-05
-8.71005e-07
1.16571e-05
-6.43908e-06
-2.02343e-06
1.32603e-05
-3.77361e-06
-1.03092e-06
1.28571e-05
2.24298e-07
7.73714e-08
1.17408e-05
3.72407e-06
5.78433e-07
9.77943e-06
7.5126e-06
4.82085e-07
7.22393e-06
1.08914e-05
3.21212e-07
3.87458e-06
1.35066e-05
3.06677e-07
-3.53829e-07
1.48372e-05
4.62778e-07
-4.20057e-06
1.37078e-05
9.63082e-07
-6.27348e-06
1.06497e-05
3.29148e-07
-7.01189e-06
8.23679e-06
-1.28621e-06
-6.85831e-06
7.08071e-06
-2.96972e-06
-5.79718e-06
7.07944e-06
-4.6409e-06
-4.26182e-06
7.70704e-06
-5.45263e-06
-2.87349e-06
8.21008e-06
-4.89126e-06
-2.14998e-06
8.16639e-06
-3.45159e-06
-1.9758e-06
7.71031e-06
-2.09577e-06
-2.0716e-06
6.78364e-06
-1.01678e-06
-2.12512e-06
5.51875e-06
-3.5768e-07
-1.91418e-06
4.13094e-06
-1.60736e-07
-1.54716e-06
2.54839e-06
-2.4431e-07
-1.20123e-06
7.291e-07
-3.91459e-07
-8.28986e-07
-1.69345e-06
-3.56043e-07
-5.05771e-07
-4.81256e-06
-8.82357e-08
-4.17139e-07
-9.03386e-06
5.93153e-07
-5.63799e-07
-1.46602e-05
1.76804e-06
-9.45468e-07
-1.69719e-05
2.45793e-06
-1.41543e-06
-1.11381e-05
1.42616e-06
-1.87762e-06
1.21456e-08
-1.27567e-06
-1.80101e-06
5.28419e-06
-1.59929e-06
-1.24123e-06
7.99171e-06
-1.74481e-06
9.22642e-06
-2.26031e-06
-4.20769e-06
-4.61934e-06
-7.45124e-08
-3.34173e-06
-4.98084e-06
-6.84618e-07
-2.99045e-06
-3.89129e-06
8.56911e-08
-2.11481e-06
-3.80222e-06
-1.74995e-07
-1.37809e-06
-2.40195e-06
4.38337e-08
-6.11956e-07
-1.82067e-06
7.987e-09
-2.92415e-07
-4.2973e-07
-9.82748e-08
-1.77847e-07
8.93279e-08
-1.22205e-07
-1.24175e-07
5.87298e-07
-1.57786e-07
-3.0326e-07
9.59635e-07
-9.00729e-08
-4.99818e-07
8.86042e-07
-1.13235e-07
-6.49608e-07
6.34757e-07
-1.53785e-07
-7.22256e-07
4.1341e-07
-1.91421e-07
-7.1858e-07
2.38887e-07
-2.33249e-07
-6.64115e-07
1.47205e-07
-2.62078e-07
-5.7062e-07
1.08343e-07
-2.97049e-07
-4.66224e-07
1.34863e-07
-3.28112e-07
-3.73113e-07
1.85299e-07
-3.50377e-07
-2.88601e-07
2.32301e-07
-3.68793e-07
-2.10475e-07
2.72735e-07
-3.81772e-07
-1.35872e-07
3.12417e-07
-3.89907e-07
-7.01921e-08
3.51267e-07
-3.92276e-07
-1.66867e-08
3.899e-07
-3.89756e-07
2.37403e-08
4.27092e-07
-3.8349e-07
5.11802e-08
4.62496e-07
-3.74805e-07
6.75296e-08
4.93409e-07
-3.65217e-07
7.5645e-08
5.18653e-07
-3.56246e-07
7.82469e-08
5.40081e-07
-3.48553e-07
7.70906e-08
5.62195e-07
-3.42442e-07
7.26915e-08
5.86283e-07
-3.37548e-07
6.67371e-08
6.07412e-07
-3.33499e-07
6.07454e-08
6.24186e-07
-3.30007e-07
5.57938e-08
6.36952e-07
-3.26776e-07
5.23997e-08
6.46854e-07
-3.23634e-07
5.16959e-08
6.52498e-07
-3.20729e-07
5.40875e-08
6.56681e-07
-3.17344e-07
6.03625e-08
6.53562e-07
-3.14652e-07
6.62873e-08
6.56169e-07
-3.08862e-07
7.54559e-08
6.37452e-07
-3.06723e-07
7.54812e-08
6.47956e-07
-2.9666e-07
7.80852e-08
6.2093e-07
-2.96583e-07
6.17891e-08
6.55988e-07
-2.84684e-07
3.31153e-08
6.42823e-07
-2.77815e-07
-3.67102e-08
7.26526e-07
-2.49708e-07
-2.02874e-07
8.04627e-07
-1.77216e-07
-4.77061e-07
9.74806e-07
-8.94486e-08
-9.46707e-07
1.01792e-06
9.55172e-08
-1.62258e-06
9.3793e-07
2.2129e-07
-2.94251e-06
7.76272e-07
5.23026e-07
-4.62942e-06
8.54934e-07
7.26026e-07
-6.28298e-06
9.82226e-07
8.70269e-07
-5.8224e-06
3.4139e-07
-1.81327e-07
-2.69829e-07
-5.42037e-06
-1.84313e-06
8.90943e-06
-1.23642e-05
-2.82439e-06
1.40059e-05
-1.32094e-05
-2.02245e-06
1.91235e-05
-5.24297e-06
-3.84904e-06
2.30084e-05
6.49129e-06
-6.98402e-06
2.20489e-05
2.88186e-05
-6.80188e-06
1.71392e-05
-7.85082e-06
1.97898e-05
3.60664e-05
-2.77235e-05
-2.45095e-06
5.81258e-06
-3.66722e-05
-3.70097e-06
-1.20348e-06
-2.29943e-05
4.84064e-06
1.22157e-06
-2.412e-05
2.71479e-07
4.11472e-07
-1.11325e-05
-2.10183e-07
5.86977e-06
-9.25617e-06
-2.64301e-06
5.21178e-06
-2.83692e-06
-2.79874e-07
3.89342e-06
8.64595e-07
6.77282e-07
1.53709e-06
5.36223e-06
7.17601e-07
-1.18008e-06
9.73833e-06
4.91113e-07
-4.19063e-06
1.34375e-05
4.6444e-07
-6.90358e-06
1.55835e-05
6.36436e-07
-8.78647e-06
1.5829e-05
8.91769e-07
-9.42801e-06
1.3685e-05
6.64663e-07
-9.54973e-06
1.16873e-05
-9.15976e-07
-9.58631e-06
1.10249e-05
-2.75195e-06
-9.30494e-06
1.13023e-05
-4.50364e-06
-8.4634e-06
1.19502e-05
-5.71293e-06
-7.52656e-06
1.23668e-05
-5.59702e-06
-7.02656e-06
1.17823e-05
-4.07258e-06
-6.97327e-06
1.04968e-05
-2.38391e-06
-6.77891e-06
8.59342e-06
-1.07755e-06
-6.19834e-06
6.45947e-06
-2.56423e-07
-5.14771e-06
4.4159e-06
5.21995e-08
-3.83614e-06
2.73689e-06
8.2474e-08
-2.59314e-06
1.27528e-06
3.01378e-08
-1.65206e-06
-2.1822e-07
6.23906e-09
-1.04651e-06
-2.42078e-06
1.21713e-07
-8.05337e-07
-5.5417e-06
4.8785e-07
-1.4201e-06
-9.73794e-06
1.31868e-06
-3.19061e-06
-1.55204e-05
2.63055e-06
-5.17704e-06
-1.844e-05
3.45441e-06
-5.7969e-06
-1.34329e-05
2.91471e-06
-4.90548e-06
2.55985e-07
-1.13526e-06
-3.56742e-06
5.7158e-06
-1.76967e-06
-2.01386e-06
8.24278e-06
-1.80463e-06
9.40868e-06
-2.19612e-06
-4.54401e-06
-4.33326e-06
-1.49201e-07
-3.68886e-06
-4.94695e-06
-8.84118e-07
-3.57997e-06
-3.92343e-06
-6.93916e-08
-2.75781e-06
-4.11675e-06
-5.00534e-07
-2.09365e-06
-3.10122e-06
4.37269e-08
-1.04195e-06
-2.74622e-06
-1.17409e-07
-3.96887e-07
-1.01646e-06
-5.13454e-08
-1.09131e-07
-1.20644e-07
-7.28966e-08
9.33631e-08
5.09217e-07
-1.20287e-07
-5.05877e-08
1.1275e-06
-2.18713e-08
-2.61058e-07
1.14854e-06
-5.13695e-08
-4.52812e-07
9.20557e-07
-9.36654e-08
-5.74437e-07
6.875e-07
-1.52112e-07
-5.97331e-07
4.64505e-07
-2.02506e-07
-5.53875e-07
3.47698e-07
-2.43707e-07
-4.68772e-07
3.08495e-07
-2.85026e-07
-3.77336e-07
3.58132e-07
-3.14455e-07
-3.09609e-07
4.50209e-07
-3.32325e-07
-2.57259e-07
5.29615e-07
-3.49331e-07
-2.104e-07
5.89252e-07
-3.63007e-07
-1.60597e-07
6.361e-07
-3.73124e-07
-1.11795e-07
6.78475e-07
-3.75625e-07
-6.77639e-08
7.18094e-07
-3.7185e-07
-3.15363e-08
7.55069e-07
-3.63818e-07
-6.90955e-09
7.91273e-07
-3.53021e-07
9.12845e-09
8.18325e-07
-3.4056e-07
1.91717e-08
8.37048e-07
-3.28055e-07
2.64838e-08
8.49452e-07
-3.16289e-07
3.0916e-08
8.63921e-07
-3.0577e-07
3.0828e-08
8.83023e-07
-2.96245e-07
2.71516e-08
8.99646e-07
-2.88155e-07
2.1429e-08
9.11843e-07
-2.8152e-07
1.48369e-08
9.19985e-07
-2.76033e-07
8.70832e-09
9.24676e-07
-2.7128e-07
4.82576e-09
9.24026e-07
-2.6723e-07
3.35309e-09
9.21861e-07
-2.63317e-07
2.70559e-09
9.14851e-07
-2.60192e-07
1.3048e-09
9.12853e-07
-2.54962e-07
-5.08577e-09
8.95905e-07
-2.51559e-07
-1.72994e-08
9.02482e-07
-2.42021e-07
-5.00421e-08
8.90065e-07
-2.35902e-07
-9.22638e-08
9.19084e-07
-2.20586e-07
-1.78345e-07
9.25945e-07
-1.96533e-07
-2.88965e-07
9.87223e-07
-1.49882e-07
-4.88094e-07
1.06475e-06
-6.05379e-08
-7.3169e-07
1.17916e-06
3.92124e-08
-1.09823e-06
1.19432e-06
1.91236e-07
-1.72764e-06
1.22567e-06
3.45264e-07
-2.88294e-06
1.30759e-06
6.34522e-07
-4.12124e-06
1.40537e-06
7.01583e-07
-4.69952e-06
1.17428e-06
4.23776e-07
-3.02806e-06
-8.24138e-07
-4.43825e-07
1.772e-06
-8.18775e-06
-1.65657e-06
6.18289e-06
-1.31831e-05
-3.37816e-06
7.465e-06
-8.89766e-06
-5.34698e-06
9.82902e-06
-1.05864e-06
-6.69125e-06
1.80512e-05
8.34269e-06
-9.56278e-06
2.52904e-05
2.77679e-05
-5.71653e-06
2.72762e-05
-1.32145e-05
2.31345e-05
3.95331e-05
-2.04857e-05
-1.79247e-06
2.39594e-06
-3.12943e-05
-3.29529e-06
-1.06901e-05
-1.82999e-05
6.71526e-06
-1.31732e-05
-2.2459e-05
7.73628e-07
-1.00344e-05
-1.43591e-05
4.98828e-08
-9.89354e-06
-9.3461e-06
-6.65461e-08
-9.56813e-06
-3.30682e-06
1.39641e-07
-1.05185e-05
9.5798e-07
8.53657e-07
-1.1726e-05
5.69073e-06
8.7746e-07
-1.28e-05
9.76491e-06
1.04985e-06
-1.32878e-05
1.27522e-05
1.18433e-06
-1.33169e-05
1.44423e-05
1.18711e-06
-1.29996e-05
1.48414e-05
6.77134e-07
-1.30339e-05
1.42895e-05
-5.65469e-07
-1.36025e-05
1.46802e-05
-2.41805e-06
-1.45531e-05
1.61443e-05
-4.1608e-06
-1.51108e-05
1.73664e-05
-5.51507e-06
-1.49269e-05
1.75185e-05
-5.78964e-06
-1.44047e-05
1.62569e-05
-4.45987e-06
-1.40284e-05
1.38161e-05
-2.43936e-06
-1.35608e-05
1.0949e-05
-9.327e-07
-1.2697e-05
7.6208e-06
1.03078e-07
-1.10584e-05
4.27601e-06
5.42041e-07
-8.58372e-06
1.28979e-06
6.49438e-07
-5.84987e-06
-7.65054e-07
7.66287e-07
-3.38205e-06
-2.00793e-06
8.13879e-07
-1.58154e-06
-2.86994e-06
8.48967e-07
-4.63729e-07
-4.58463e-06
1.04419e-06
-2.52818e-07
-7.19455e-06
1.44089e-06
-1.45243e-06
-1.06725e-05
2.13358e-06
-4.35125e-06
-1.58094e-05
3.18736e-06
-7.59364e-06
-1.96468e-05
4.44843e-06
-9.13037e-06
-1.65712e-05
4.6741e-06
-6.85771e-06
-2.95561e-06
9.38779e-07
-4.38426e-06
4.11186e-06
-8.69505e-07
-2.27905e-06
7.35643e-06
-1.21886e-06
8.61289e-06
-1.48326e-06
-4.85188e-06
-3.75967e-06
-7.3849e-08
-3.9713e-06
-4.60979e-06
-1.21483e-06
-4.03157e-06
-3.55466e-06
-3.01926e-07
-3.14867e-06
-3.97238e-06
-1.02141e-06
-2.57385e-06
-3.27459e-06
-3.93288e-07
-1.4601e-06
-3.25081e-06
-6.00741e-07
-6.6554e-07
-1.48744e-06
-3.1598e-07
-1.93098e-07
-3.63036e-07
-2.24142e-07
1.87047e-07
3.86347e-07
-2.52657e-07
1.45553e-07
1.20667e-06
-3.49433e-08
-5.71824e-08
1.39711e-06
-4.5215e-08
-2.95522e-07
1.21589e-06
-5.68104e-08
-4.14917e-07
9.22287e-07
-1.15378e-07
-4.31381e-07
6.58611e-07
-1.7784e-07
-3.99716e-07
5.50787e-07
-2.34924e-07
-3.42063e-07
5.34551e-07
-2.83874e-07
-2.76911e-07
6.05502e-07
-3.12678e-07
-2.34596e-07
7.26724e-07
-3.19014e-07
-2.12794e-07
8.31406e-07
-3.23772e-07
-2.0104e-07
9.05982e-07
-3.28694e-07
-1.8926e-07
9.57677e-07
-3.33551e-07
-1.76092e-07
9.98799e-07
-3.33693e-07
-1.6153e-07
1.03209e-06
-3.28733e-07
-1.4857e-07
1.06139e-06
-3.1947e-07
-1.41806e-07
1.08916e-06
-3.04821e-07
-1.36149e-07
1.10467e-06
-2.92158e-07
-1.29484e-07
1.11089e-06
-2.80619e-07
-1.19886e-07
1.11077e-06
-2.71035e-07
-1.11379e-07
1.11695e-06
-2.61631e-07
-1.07322e-07
1.13149e-06
-2.52635e-07
-1.07669e-07
1.14438e-06
-2.44489e-07
-1.11082e-07
1.15284e-06
-2.37694e-07
-1.17033e-07
1.15773e-06
-2.31891e-07
-1.24968e-07
1.15936e-06
-2.26856e-07
-1.32951e-07
1.15447e-06
-2.22545e-07
-1.41038e-07
1.14768e-06
-2.17841e-07
-1.54613e-07
1.14026e-06
-2.11887e-07
-1.70277e-07
1.13382e-06
-2.05416e-07
-2.01364e-07
1.12428e-06
-1.97296e-07
-2.34e-07
1.12411e-06
-1.89127e-07
-2.9694e-07
1.12863e-06
-1.75566e-07
-3.50983e-07
1.13533e-06
-1.62356e-07
-4.42175e-07
1.15238e-06
-1.35136e-07
-5.19299e-07
1.16452e-06
-1.00379e-07
-6.28947e-07
1.21809e-06
-4.35209e-08
-7.16383e-07
1.23793e-06
2.84482e-08
-8.33762e-07
1.22099e-06
9.18394e-08
-1.16165e-06
1.33631e-06
2.19897e-07
-1.79261e-06
1.58825e-06
3.56162e-07
-2.28433e-06
1.39022e-06
5.14247e-07
-2.24996e-06
8.70548e-07
3.148e-07
-9.61652e-07
-1.33948e-06
-6.8256e-07
1.09227e-08
-6.71709e-06
-2.104e-06
-1.12621e-06
-6.17163e-06
-5.77281e-06
-1.01726e-07
2.91054e-07
-1.00661e-05
5.29588e-06
5.57895e-06
-1.21115e-05
2.22052e-05
5.72265e-06
-1.40574e-05
3.53842e-05
1.53643e-05
-1.04872e-06
3.20252e-05
-1.13685e-05
2.55095e-05
3.7207e-05
-1.19037e-05
-8.41322e-07
-9.21192e-06
-1.88854e-05
-2.39046e-06
-1.87786e-05
-1.47423e-05
5.59717e-06
-2.4066e-05
-1.79433e-05
6.77806e-07
-2.33934e-05
-1.50664e-05
-9.76336e-08
-2.3275e-05
-9.81616e-06
2.45177e-07
-2.17118e-05
-5.44282e-06
5.41717e-07
-2.17049e-05
-6.72186e-08
1.06502e-06
-2.13097e-05
4.24442e-06
1.13503e-06
-2.13629e-05
8.60583e-06
1.25985e-06
-2.15949e-05
1.20094e-05
9.89529e-07
-2.15318e-05
1.41614e-05
2.43074e-07
-2.17427e-05
1.60324e-05
-9.49837e-07
-2.27884e-05
1.77468e-05
-2.42009e-06
-2.37007e-05
1.935e-05
-3.81984e-06
-2.32981e-05
2.02757e-05
-4.63715e-06
-2.14944e-05
2.00298e-05
-4.61435e-06
-2.03753e-05
1.95684e-05
-3.33132e-06
-2.07293e-05
1.80324e-05
-1.51563e-06
-2.17883e-05
1.49458e-05
-1.1116e-07
-2.21751e-05
1.08633e-05
4.4569e-07
-2.09096e-05
5.903e-06
4.21453e-07
-1.80037e-05
1.04671e-06
2.85764e-07
-1.39852e-05
-2.84454e-06
6.96039e-08
-9.38016e-06
-5.51512e-06
1.05411e-07
-4.8634e-06
-6.8055e-06
2.43743e-07
-1.07539e-06
-7.46924e-06
7.78325e-07
1.24038e-06
-8.36656e-06
1.4333e-06
1.69917e-06
-9.86562e-06
2.18783e-06
3.22708e-07
-1.21746e-05
2.85722e-06
-3.60805e-06
-1.5641e-05
3.75105e-06
-8.09057e-06
-1.98846e-05
4.72016e-06
-1.0351e-05
-1.95782e-05
5.26864e-06
-7.88579e-06
-8.97325e-06
3.55026e-06
-4.63009e-06
1.33898e-06
-4.84663e-07
-2.36192e-06
5.75936e-06
-6.73e-07
7.21966e-06
-9.70542e-07
-4.82864e-06
-3.04708e-06
4.95478e-07
-4.1902e-06
-4.2122e-06
-1.03531e-06
-4.55186e-06
-2.92473e-06
-2.62095e-07
-3.60981e-06
-3.76734e-06
-1.14195e-06
-2.95307e-06
-3.26186e-06
-6.61128e-07
-1.66898e-06
-3.45159e-06
-1.07457e-06
-7.77742e-07
-1.82846e-06
-5.41461e-07
-2.50055e-07
-6.12293e-07
-2.71539e-07
1.16697e-07
4.09151e-07
-3.84268e-07
1.84752e-07
1.20094e-06
-5.86451e-08
1.50749e-07
1.50414e-06
-7.15874e-08
4.18993e-08
1.39229e-06
-6.7169e-08
1.22292e-08
1.15081e-06
-1.98635e-07
9.40694e-09
9.46685e-07
-2.85225e-07
-1.03701e-08
9.12503e-07
-3.41818e-07
-5.66102e-08
9.67431e-07
-3.86563e-07
-1.10645e-07
1.08335e-06
-4.23712e-07
-1.59631e-07
1.21969e-06
-4.43879e-07
-2.07004e-07
1.33887e-06
-4.59983e-07
-2.55289e-07
1.42676e-06
-4.72358e-07
-2.87382e-07
1.47012e-06
-4.80255e-07
-3.04914e-07
1.50044e-06
-4.8404e-07
-3.13029e-07
1.52441e-06
-4.84191e-07
-3.14628e-07
1.54459e-06
-4.81616e-07
-3.1004e-07
1.56184e-06
-4.77357e-07
-3.03137e-07
1.57042e-06
-4.72794e-07
-2.92609e-07
1.56987e-06
-4.6971e-07
-2.76455e-07
1.56246e-06
-4.68056e-07
-2.61038e-07
1.56572e-06
-4.64427e-07
-2.53959e-07
1.58381e-06
-4.59627e-07
-2.54173e-07
1.60039e-06
-4.56043e-07
-2.59075e-07
1.61143e-06
-4.5393e-07
-2.68059e-07
1.61889e-06
-4.52425e-07
-2.80406e-07
1.62283e-06
-4.51375e-07
-2.93524e-07
1.61856e-06
-4.51245e-07
-3.0835e-07
1.61252e-06
-4.50287e-07
-3.31583e-07
1.61048e-06
-4.47251e-07
-3.59331e-07
1.60591e-06
-4.44689e-07
-4.04513e-07
1.60898e-06
-4.39765e-07
-4.42809e-07
1.60051e-06
-4.38531e-07
-5.09324e-07
1.62165e-06
-4.2675e-07
-5.52868e-07
1.59819e-06
-4.19798e-07
-6.17928e-07
1.61401e-06
-3.9676e-07
-6.28367e-07
1.55437e-06
-3.79977e-07
-6.03471e-07
1.54704e-06
-3.54078e-07
-4.83112e-07
1.44979e-06
-3.33315e-07
-2.22231e-07
1.33339e-06
-3.72557e-07
8.85508e-08
1.34165e-06
-3.10519e-07
7.25932e-07
1.14427e-06
-1.81726e-07
2.41106e-06
-2.0238e-07
-9.50077e-08
4.80833e-06
-1.54797e-06
6.50983e-08
7.33959e-06
-2.41923e-06
-1.39496e-06
4.74193e-06
-2.03666e-06
-1.85745e-06
-4.97029e-08
4.99419e-06
-6.12222e-06
1.87146e-07
1.40586e-05
-1.38445e-05
7.05802e-06
1.82835e-05
-1.97424e-05
2.14382e-05
1.47532e-05
-2.35317e-05
3.76474e-05
1.24909e-05
-1.33467e-05
3.54766e-05
-1.02103e-05
2.77173e-05
3.92805e-05
-8.84455e-07
-1.53554e-06
-1.90593e-05
1.58084e-06
-2.24653e-06
-3.08253e-05
-9.53209e-06
6.1371e-06
-4.00213e-05
-8.70147e-06
-2.13969e-08
-4.35458e-05
-1.02366e-05
-1.37652e-06
-4.42913e-05
-7.93239e-06
-1.28451e-06
-4.38765e-05
-4.92718e-06
-1.03568e-06
-4.32553e-05
-4.56009e-07
-2.65804e-07
-4.2246e-05
3.3256e-06
-1.03327e-07
-4.12057e-05
7.48404e-06
7.30369e-08
-3.99505e-05
1.09107e-05
-1.23161e-07
-3.91006e-05
1.39459e-05
-6.12331e-07
-3.83654e-05
1.67279e-05
-1.43677e-06
-3.76243e-05
1.89102e-05
-1.98411e-06
-3.64171e-05
2.04402e-05
-2.43489e-06
-3.51195e-05
2.13542e-05
-2.49083e-06
-3.48968e-05
2.15047e-05
-1.73556e-06
-3.58875e-05
2.10592e-05
-5.1125e-07
-3.75493e-05
1.93519e-05
3.45093e-07
-3.86492e-05
1.63528e-05
-2.75316e-07
-3.7703e-05
1.1134e-05
-1.20472e-06
-3.41215e-05
4.68729e-06
-2.4764e-06
-2.85327e-05
-1.35028e-06
-3.37906e-06
-2.15271e-05
-5.83169e-06
-4.26008e-06
-1.35375e-05
-9.30602e-06
-4.53914e-06
-5.59955e-06
-1.1501e-05
-3.5955e-06
1.98669e-06
-1.30085e-05
-2.32534e-06
7.06344e-06
-1.33221e-05
-3.37458e-07
8.39959e-06
-1.27161e-05
1.31767e-06
6.44069e-06
-1.25904e-05
2.176e-06
1.18694e-06
-1.34497e-05
2.88297e-06
-6.33133e-06
-1.52852e-05
2.80291e-06
-1.18778e-05
-1.6242e-05
2.0821e-06
-1.19294e-05
-1.04926e-05
1.49808e-06
-8.55755e-06
-1.46392e-06
-8.46816e-07
-4.4846e-06
1.86626e-06
-5.44664e-07
3.07117e-06
-1.44548e-06
-4.15103e-06
-7.81171e-07
1.98872e-06
-3.85365e-06
-3.70526e-06
-8.07702e-07
-4.75145e-06
-2.02464e-06
2.2295e-09
-3.86866e-06
-3.57532e-06
-1.07e-06
-3.25227e-06
-3.08949e-06
-7.81254e-07
-1.91534e-06
-3.42891e-06
-1.35109e-06
-8.5945e-07
-2.08435e-06
-7.90233e-07
-2.36298e-07
-1.03338e-06
-1.94162e-07
4.42503e-09
3.39794e-07
-1.6569e-07
1.22699e-07
9.33625e-07
1.52655e-07
3.0902e-07
1.22017e-06
9.95417e-08
3.91745e-07
1.09257e-06
2.17553e-07
4.0104e-07
9.9881e-07
1.43359e-07
3.41602e-07
8.6008e-07
1.46365e-07
2.43327e-07
8.53089e-07