/*--------------------------------*- C++ -*----------------------------------*\
| =========                 |                                                 |
| \\      /  F ield         | OpenFOAM: The Open Source CFD Toolbox           |
|  \\    /   O peration     | Version:  2.3.0                                 |
|   \\  /    A nd           | Web:      www.OpenFOAM.org                      |
|    \\/     M anipulation  |                                                 |
\*---------------------------------------------------------------------------*/
FoamFile
{
    version     2.0;
    format      ascii;
    class       surfaceScalarField;
    location    "42";
    object      phi.air;
}
// * * * * * * * * * * * * * * * * * * * * * * * * * * * * * * * * * * * * * //

dimensions      [0 3 -1 0 0 0 0];

internalField   nonuniform List<scalar> 
16448
(
-1.35929e-06
-2.54554e-06
5.53246e-07
4.41536e-07
-2.56711e-06
7.66287e-07
4.3876e-07
-1.16119e-06
1.16396e-06
3.62292e-07
-1.00186e-06
1.07832e-06
2.173e-08
-5.67278e-07
9.0783e-07
-1.0488e-07
-7.12354e-07
8.38953e-07
-1.55612e-07
-6.64646e-07
7.15368e-07
-1.77669e-07
-6.05205e-07
6.27253e-07
-2.69191e-07
-4.519e-07
5.43415e-07
-4.37296e-07
-3.19534e-07
4.87633e-07
-6.15503e-07
-2.47648e-07
4.2585e-07
-6.84392e-07
-2.67611e-07
3.36494e-07
-6.50484e-07
-3.11317e-07
2.77403e-07
-5.27953e-07
-3.55554e-07
2.33016e-07
-3.91325e-07
-3.73407e-07
2.36771e-07
-2.46592e-07
-3.97067e-07
2.52325e-07
-1.224e-07
-4.10343e-07
2.86143e-07
-1.90885e-08
-4.2476e-07
3.21438e-07
5.59479e-08
-4.3607e-07
3.61024e-07
1.01976e-07
-4.43146e-07
3.97107e-07
1.19601e-07
-4.46303e-07
4.28668e-07
1.18564e-07
-4.50547e-07
4.51573e-07
1.07179e-07
-4.50445e-07
4.61819e-07
9.11812e-08
-4.45712e-07
4.61698e-07
7.44522e-08
-4.36508e-07
4.53225e-07
6.06829e-08
-4.24573e-07
4.38329e-07
5.34968e-08
-4.13507e-07
4.2068e-07
5.48804e-08
-4.04148e-07
4.0275e-07
6.34117e-08
-3.94639e-07
3.86095e-07
7.5264e-08
-3.84221e-07
3.72354e-07
8.85387e-08
-3.73582e-07
3.60293e-07
1.04648e-07
-3.63972e-07
3.47847e-07
1.27024e-07
-3.55986e-07
3.33595e-07
1.60469e-07
-3.50483e-07
3.17021e-07
2.10897e-07
-3.48688e-07
2.98245e-07
2.84049e-07
-3.52027e-07
2.78856e-07
3.82809e-07
-3.61087e-07
2.62309e-07
5.05466e-07
-3.76872e-07
2.54196e-07
6.44207e-07
-3.99587e-07
2.60827e-07
7.8517e-07
-4.30467e-07
2.89484e-07
9.04098e-07
-4.68708e-07
3.49759e-07
9.92795e-07
-5.37542e-07
4.48824e-07
1.15872e-06
-7.06676e-07
5.40728e-07
1.60982e-06
-1.04983e-06
5.98705e-07
2.38023e-06
-1.40915e-06
6.38711e-07
3.20845e-06
-1.54256e-06
7.14318e-07
3.40055e-06
-1.0016e-06
8.09478e-07
2.15037e-06
-6.26251e-07
1.87639e-06
1.50273e-06
-4.17238e-06
4.81997e-06
5.62594e-06
-1.0794e-05
6.67079e-06
1.25661e-05
-1.33028e-05
6.36265e-06
1.503e-05
-8.20869e-06
5.74474e-06
1.16505e-05
-2.75974e-06
6.13915e-06
8.67908e-06
-3.72689e-06
6.69833e-06
7.29041e-06
-2.07024e-06
3.45886e-06
9.29083e-06
-6.19069e-06
4.19027e-06
6.40111e-06
3.32927e-06
-4.39621e-07
1.25959e-05
-5.41213e-06
-7.8286e-07
-8.17231e-06
1.89561e-05
1.38128e-06
-3.21869e-05
-8.55851e-06
-1.47125e-07
-6.26869e-05
-2.15654e-05
8.8746e-06
-1.80192e-05
-5.10316e-06
7.24277e-06
2.12773e-05
-3.19431e-06
5.60764e-06
1.9162e-05
-2.15173e-06
4.01397e-06
1.34683e-05
2.56472e-06
3.01097e-06
7.72945e-06
3.26145e-06
2.35376e-06
4.251e-06
2.09535e-06
1.33176e-06
2.57167e-06
1.27433e-06
3.56509e-07
2.0189e-06
4.85998e-07
4.15649e-08
1.63265e-06
6.43826e-07
-2.18217e-07
-5.15408e-07
2.1572e-06
2.26346e-08
-5.85468e-06
4.48728e-06
8.96078e-07
-1.05772e-05
4.33421e-06
3.71153e-07
-1.25671e-05
2.19037e-06
-1.92313e-07
-1.13398e-05
-9.15654e-07
-2.85552e-07
-8.05066e-06
-2.56525e-06
-7.21365e-07
-5.30329e-06
-2.96424e-06
1.97335e-07
-3.84127e-06
-1.4604e-06
1.83688e-08
-3.55117e-06
-5.13019e-07
2.43391e-07
-4.2651e-06
6.03707e-08
6.62029e-07
-6.52348e-06
1.37292e-06
8.75832e-07
-9.13436e-06
1.53499e-06
1.07192e-06
-1.04468e-05
-7.86361e-08
1.40611e-06
-1.07896e-05
-1.08155e-06
1.45299e-06
-9.81689e-06
-1.80989e-06
8.50608e-07
-7.72146e-06
-1.5066e-06
-5.65269e-07
-5.41171e-06
-7.18818e-07
-1.59088e-06
-3.74731e-06
2.70145e-07
-1.8822e-06
-2.06501e-06
1.17316e-06
-2.79002e-06
-2.97223e-07
2.05665e-06
-3.78612e-06
2.2657e-06
1.68191e-06
-4.27803e-06
5.15681e-06
1.125e-07
-3.06958e-06
6.30966e-06
-8.81636e-07
-3.18444e-07
4.81571e-06
-8.17774e-07
2.26517e-06
2.35827e-06
-7.83015e-07
3.26659e-06
-2.52305e-07
3.53483e-06
-2.01299e-06
-3.67683e-06
-2.16228e-07
-5.75067e-07
-3.88907e-06
-1.15967e-07
-2.23022e-07
-2.16968e-06
6.56434e-07
1.78913e-07
-1.83109e-06
4.27269e-07
1.88596e-07
-8.62759e-07
2.85778e-07
-2.90358e-09
-7.87284e-07
2.66412e-07
-1.84312e-07
-6.23964e-07
1.4071e-07
-3.11264e-07
-5.67824e-07
8.95555e-08
-4.6485e-07
-3.70096e-07
7.17682e-08
-6.5033e-07
-2.29597e-07
9.55315e-08
-8.09215e-07
-1.56252e-07
6.74771e-08
-8.51476e-07
-2.21369e-07
-3.99329e-09
-8.11292e-07
-2.86629e-07
-6.48858e-08
-6.92749e-07
-3.62455e-07
-1.11659e-07
-5.51008e-07
-3.93499e-07
-1.21665e-07
-3.94847e-07
-4.3222e-07
-1.21025e-07
-2.54067e-07
-4.50565e-07
-1.00577e-07
-1.32719e-07
-4.68945e-07
-7.71816e-08
-3.82846e-08
-4.81008e-07
-4.95159e-08
2.85343e-08
-4.86141e-07
-2.38447e-08
6.58213e-08
-4.83863e-07
2.50879e-10
8.16671e-08
-4.78505e-07
1.20894e-08
8.378e-08
-4.69589e-07
1.70081e-08
7.79364e-08
-4.56342e-07
1.64491e-08
6.84129e-08
-4.38838e-07
1.18286e-08
5.87117e-08
-4.19452e-07
4.55446e-09
5.28853e-08
-4.01311e-07
-6.39661e-09
5.3499e-08
-3.84986e-07
-1.98032e-08
5.92975e-08
-3.68568e-07
-3.18991e-08
6.8132e-08
-3.50641e-07
-4.24439e-08
8.00092e-08
-3.33039e-07
-5.24516e-08
9.70446e-08
-3.18244e-07
-6.27949e-08
1.21897e-07
-3.07137e-07
-7.37348e-08
1.57669e-07
-3.00984e-07
-8.5305e-08
2.07883e-07
-3.02312e-07
-9.66263e-08
2.76726e-07
-3.13359e-07
-1.07547e-07
3.6671e-07
-3.3514e-07
-1.15969e-07
4.75227e-07
-3.68574e-07
-1.16854e-07
5.9113e-07
-4.11436e-07
-1.04096e-07
7.00286e-07
-4.6608e-07
-7.35845e-08
7.84213e-07
-5.32886e-07
-1.9792e-08
8.651e-07
-6.53857e-07
3.53846e-08
1.07066e-06
-9.56009e-07
4.37279e-08
1.57586e-06
-1.58055e-06
2.54763e-08
2.4488e-06
-2.29221e-06
1.00752e-08
3.53534e-06
-2.74214e-06
1.12987e-07
4.55198e-06
-2.16863e-06
1.50337e-07
4.36235e-06
-1.59735e-06
1.16067e-06
9.475e-07
-5.38364e-06
4.62604e-06
-5.85573e-07
-1.63177e-05
7.05666e-06
1.89218e-07
-2.07363e-05
6.65872e-06
-3.83899e-07
-1.24958e-05
4.86023e-06
-1.51571e-06
-2.92382e-06
1.29585e-06
-3.60622e-06
-3.05392e-06
1.41753e-06
3.14904e-06
-5.15082e-06
-3.67474e-06
7.33573e-06
-8.94214e-06
-1.43525e-06
9.19497e-06
7.70331e-06
-6.23338e-06
9.01549e-06
-1.25345e-08
-5.21943e-06
-3.36546e-06
3.1571e-05
-7.87886e-07
-3.27923e-05
-1.07383e-05
-1.38721e-06
-8.08115e-05
-3.12844e-05
8.87538e-06
-4.10612e-05
-8.12382e-06
1.1341e-05
-8.78641e-06
-1.15682e-05
1.08386e-05
-1.22172e-05
-3.69403e-06
4.69251e-06
-1.09553e-05
-2.89616e-08
1.606e-06
-8.92818e-06
2.5082e-06
-1.31514e-06
-7.12746e-06
3.33849e-06
-3.05522e-06
-6.42858e-06
3.00972e-06
-2.56273e-06
-6.80361e-06
1.62146e-06
-7.63202e-07
-6.64679e-06
8.97951e-07
-3.17387e-07
-5.98154e-06
2.11897e-06
-5.16761e-07
-7.43562e-06
5.17335e-06
8.32254e-07
-9.72937e-06
6.00827e-06
6.01949e-07
-1.02731e-05
3.06345e-06
-3.0413e-07
-8.49559e-06
-6.46101e-07
-1.96616e-06
-5.44285e-06
-2.27855e-06
-3.34962e-06
-3.35573e-06
-2.82395e-06
-2.28518e-06
-2.43695e-06
-1.00644e-06
-1.39872e-06
-2.1733e-06
1.71698e-07
-9.70598e-07
-3.13368e-06
1.20116e-06
-2.04702e-07
-5.67879e-06
2.4714e-06
1.40689e-06
-8.71632e-06
1.77805e-06
2.75967e-06
-1.09379e-05
-1.15172e-06
3.27159e-06
-1.12878e-05
-3.63443e-06
2.91018e-06
-9.78515e-06
-4.9241e-06
1.6646e-06
-6.85012e-06
-4.23703e-06
-1.6245e-07
-3.67407e-06
-2.89293e-06
-9.25711e-07
-1.32341e-06
-6.81438e-07
-1.31488e-06
4.36383e-07
7.60734e-07
-1.28885e-06
2.47985e-06
2.12831e-06
-2.0301e-06
5.13124e-06
3.07921e-06
-3.99787e-06
7.36899e-06
2.9661e-06
-5.16771e-06
8.30001e-06
2.20023e-06
-4.1053e-06
6.82652e-06
1.60204e-06
-9.59433e-07
3.13701e-06
1.13088e-06
1.84962e-06
3.30368e-07
3.5844e-06
-2.54763e-06
-4.04712e-06
-4.79999e-07
-1.39679e-06
-4.43638e-06
-6.03534e-07
-9.26728e-07
-2.77989e-06
1.40134e-07
-3.09331e-07
-2.38531e-06
-6.3188e-08
-6.12923e-08
-1.01781e-06
-9.3004e-08
-1.44424e-07
-6.65731e-07
-3.8439e-08
-3.18614e-07
-3.18157e-07
-1.31633e-07
-4.44257e-07
-2.92456e-07
-1.49739e-07
-5.45967e-07
-1.05411e-07
-1.62988e-07
-6.16505e-07
-1.73722e-08
-1.41698e-07
-6.97179e-07
5.91554e-08
-1.34744e-07
-7.20944e-07
-1.57699e-08
-1.81847e-07
-7.20063e-07
-6.10313e-08
-2.26491e-07
-6.72957e-07
-1.41564e-07
-2.68012e-07
-5.98628e-07
-1.80083e-07
-2.8776e-07
-4.98147e-07
-2.27341e-07
-3.05377e-07
-3.94486e-07
-2.48176e-07
-3.06066e-07
-2.96786e-07
-2.65518e-07
-3.01144e-07
-2.12847e-07
-2.73738e-07
-2.91228e-07
-1.42102e-07
-2.75751e-07
-2.81153e-07
-8.54673e-08
-2.68143e-07
-2.72374e-07
-4.45448e-08
-2.53606e-07
-2.65843e-07
-1.69785e-08
-2.35684e-07
-2.61493e-07
5.49957e-10
-2.14862e-07
-2.59032e-07
1.14818e-08
-1.92022e-07
-2.57772e-07
1.89037e-08
-1.6918e-07
-2.57719e-07
2.43897e-08
-1.47986e-07
-2.58836e-07
2.87688e-08
-1.28522e-07
-2.6087e-07
3.37099e-08
-1.09652e-07
-2.63884e-07
4.12435e-08
-9.01981e-08
-2.68005e-07
5.33651e-08
-7.24504e-08
-2.72739e-07
7.11136e-08
-5.86507e-08
-2.77373e-07
9.47024e-08
-4.9428e-08
-2.81328e-07
1.24089e-07
-4.60693e-08
-2.84334e-07
1.59631e-07
-5.06596e-08
-2.87227e-07
2.00943e-07
-6.54563e-08
-2.89249e-07
2.4599e-07
-9.15795e-08
-2.88643e-07
2.89762e-07
-1.28838e-07
-2.83544e-07
3.21198e-07
-1.72941e-07
-2.69968e-07
3.35074e-07
-2.31603e-07
-2.48393e-07
3.37882e-07
-3.14992e-07
-2.20741e-07
3.51151e-07
-4.67978e-07
-1.99189e-07
4.22713e-07
-8.13543e-07
-2.1407e-07
5.59505e-07
-1.46888e-06
-2.48505e-07
9.37906e-07
-2.34639e-06
-3.24269e-07
1.86344e-06
-3.32562e-06
-3.42097e-07
4.27157e-06
-3.84928e-06
-7.27525e-07
5.90563e-06
-3.59669e-06
3.65233e-07
1.4768e-06
-5.14371e-06
4.18883e-06
-2.55745e-06
-1.76497e-05
5.36621e-06
-5.11111e-06
-2.35081e-05
5.3254e-06
-6.38976e-06
-1.44345e-05
3.21727e-06
-5.67066e-06
-1.23903e-06
-2.40393e-06
-4.92472e-06
-6.89984e-08
-3.73086e-06
1.53021e-06
-3.69292e-06
-7.91286e-06
-2.59882e-06
-1.51599e-06
-3.29705e-06
4.60726e-06
1.03901e-05
-9.89281e-06
7.7211e-06
2.05014e-06
-5.17621e-06
-2.08491e-06
5.10044e-05
-1.03093e-05
-3.12918e-05
-1.30264e-05
-8.55995e-07
-4.34509e-05
-3.71561e-05
1.0124e-05
-1.16256e-05
-1.48556e-05
7.9861e-06
-1.33632e-05
-1.60524e-05
1.20671e-05
-1.43787e-05
-5.25906e-06
3.80926e-06
-1.37597e-05
-1.39098e-06
2.63047e-06
-1.09829e-05
2.60777e-06
-1.92972e-06
-7.51873e-06
4.17255e-06
-3.25479e-06
-6.0466e-06
5.73615e-06
-3.09758e-06
-6.12753e-06
5.3185e-06
-2.34409e-06
-6.35063e-06
5.36912e-06
-2.68306e-06
-6.45471e-06
5.85845e-06
-2.54466e-06
-7.35743e-06
6.5785e-06
-5.47218e-07
-8.53885e-06
5.93402e-06
3.19582e-07
-8.11269e-06
3.78966e-06
-1.29334e-06
-6.55053e-06
2.15901e-06
-3.27627e-06
-4.38831e-06
1.48138e-06
-4.80464e-06
-4.16019e-06
1.11205e-06
-3.09981e-06
-4.44724e-06
1.25769e-06
-1.80345e-06
-4.29808e-06
7.21457e-07
-7.17032e-07
-5.52497e-06
2.89565e-07
2.13264e-06
-9.22731e-06
8.08618e-07
4.99152e-06
-1.32554e-05
-6.68755e-07
5.78926e-06
-1.61899e-05
-3.02983e-06
4.85813e-06
-1.618e-05
-5.5198e-06
1.9283e-06
-1.32905e-05
-6.38561e-06
-1.40485e-06
-9.25743e-06
-5.0602e-06
-3.19747e-06
-5.41004e-06
-3.52379e-06
-3.17036e-06
-2.33669e-06
-7.92887e-07
-2.90812e-06
-5.75826e-07
1.36869e-06
-2.36274e-06
8.04987e-07
1.94933e-06
-1.17392e-06
3.59621e-06
3.69404e-06
-3.42232e-06
6.81451e-06
4.76349e-06
-5.0733e-06
8.64081e-06
4.01424e-06
-3.64887e-06
7.71213e-06
3.24237e-06
-6.28574e-07
3.85662e-06
3.05024e-06
2.11321e-06
1.89185e-06
3.47222e-06
-2.96076e-06
-4.13762e-06
-2.7909e-07
-1.8559e-06
-4.7597e-06
-7.81547e-07
-1.48515e-06
-3.19744e-06
4.67938e-08
-8.61297e-07
-2.97123e-06
-3.7946e-08
-5.02879e-07
-1.34849e-06
-2.77542e-08
-3.53957e-07
-7.61771e-07
-5.28983e-08
-3.72084e-07
-1.27702e-07
-1.72345e-07
-4.19778e-07
-7.15632e-08
-1.73211e-07
-4.48578e-07
1.17451e-07
-1.94074e-07
-4.66795e-07
1.91131e-07
-1.90297e-07
-5.07731e-07
3.08916e-07
-2.08836e-07
-5.49224e-07
2.6747e-07
-2.41759e-07
-6.00365e-07
2.57859e-07
-2.67763e-07
-6.08997e-07
1.70522e-07
-3.03469e-07
-5.86717e-07
1.2144e-07
-3.23818e-07
-5.30123e-07
6.68003e-08
-3.5075e-07
-4.53639e-07
4.39506e-08
-3.68628e-07
-3.73563e-07
3.63043e-08
-3.81915e-07
-2.99104e-07
3.9769e-08
-3.87985e-07
-2.31134e-07
4.706e-08
-3.908e-07
-1.7044e-07
6.12083e-08
-3.90066e-07
-1.17614e-07
8.01619e-08
-3.86614e-07
-7.49105e-08
1.02204e-07
-3.80614e-07
-4.31164e-08
1.27144e-07
-3.73823e-07
-2.17202e-08
1.53957e-07
-3.67399e-07
-8.3534e-09
1.79095e-07
-3.61666e-07
-2.20044e-10
2.00849e-07
-3.56995e-07
5.5634e-09
2.19436e-07
-3.53768e-07
1.13265e-08
2.37016e-07
-3.52459e-07
1.85016e-08
2.55122e-07
-3.52523e-07
2.77265e-08
2.71687e-07
-3.53392e-07
3.93054e-08
2.84051e-07
-3.54311e-07
5.40631e-08
2.90561e-07
-3.54778e-07
7.25407e-08
2.89914e-07
-3.54493e-07
9.31524e-08
2.81509e-07
-3.52814e-07
1.11037e-07
2.65047e-07
-3.48421e-07
1.19347e-07
2.40288e-07
-3.40213e-07
1.10399e-07
2.07704e-07
-3.2763e-07
7.44387e-08
1.72156e-07
-3.09175e-07
7.66608e-09
1.22099e-07
-2.86967e-07
-7.75183e-08
3.60719e-08
-2.65919e-07
-1.62012e-07
-1.30842e-07
-2.52682e-07
-2.71847e-07
-4.65364e-07
-2.38383e-07
-4.60842e-07
-1.07048e-06
-2.09444e-07
-5.99502e-07
-1.98103e-06
-2.26741e-07
-1.54982e-07
-3.30875e-06
-4.61435e-07
2.33423e-06
-5.11732e-06
-1.22122e-06
4.85678e-06
-5.58314e-06
-5.36154e-07
3.07415e-07
-3.50945e-06
2.91504e-06
-6.53012e-06
-1.41973e-05
3.38506e-06
-1.17218e-05
-2.41063e-05
5.7899e-06
-1.40416e-05
-1.73864e-05
5.27167e-06
-1.46991e-05
1.23745e-06
-1.81904e-06
-1.28671e-05
4.26983e-06
-6.17081e-06
-1.46315e-05
3.83927e-06
-5.76776e-06
-1.70165e-05
4.45713e-06
-3.58797e-06
6.36897e-06
-2.54674e-06
-1.04489e-05
2.02443e-06
9.03181e-06
-2.63729e-06
-1.57671e-06
6.37248e-05
-1.09132e-05
-4.67358e-05
-1.36816e-05
2.35568e-07
-0.000126494
-3.405e-05
1.07931e-05
-0.000123308
-1.62684e-05
7.68834e-06
-0.00012514
-1.63506e-05
6.19441e-06
-0.000124858
-6.90074e-06
2.67251e-06
-0.000120818
-8.33798e-07
-2.20434e-06
-0.00011536
2.76963e-06
-4.47885e-06
-0.000109719
5.84734e-06
-4.86401e-06
-0.00010725
8.51945e-06
-4.15913e-06
-0.000106362
9.1957e-06
-4.3956e-06
-0.000106024
1.03646e-05
-4.29307e-06
-0.000106595
1.07932e-05
-2.83704e-06
-0.000108749
1.02236e-05
-1.17964e-06
-0.000110852
7.68825e-06
-9.73247e-07
-0.000109974
6.13426e-06
-2.82812e-06
-0.000107198
6.25289e-06
-4.14371e-06
-0.000105777
4.31372e-06
-1.99196e-06
-0.000101524
3.1456e-07
1.39856e-06
-5.4825e-05
-1.46838e-06
4.99484e-06
-1.53846e-05
-2.10063e-06
6.47001e-06
-5.33127e-05
-2.60469e-06
7.248e-06
-9.63418e-05
-2.69364e-06
6.96326e-06
-6.59334e-05
-4.4531e-06
6.07068e-06
-2.50023e-05
-7.32441e-06
3.07545e-06
-2.23493e-05
-7.75312e-06
-1.05177e-06
-1.76429e-05
-6.4014e-06
-4.21894e-06
-1.19493e-05
-4.21986e-06
-5.51945e-06
-7.09217e-06
-2.06024e-06
-5.12807e-06
-3.50806e-06
-5.32695e-07
-3.79729e-06
-1.53282e-06
2.10994e-06
-2.70461e-06
-2.0949e-07
1.51886e-06
-9.09393e-07
2.13151e-06
2.74275e-06
-1.38352e-06
5.67192e-06
4.13022e-06
-2.937e-06
7.9219e-06
3.60065e-06
-1.82886e-06
7.45541e-06
3.10651e-06
7.00837e-07
4.48297e-06
3.92418e-06
2.33689e-06
4.05364e-06
3.67842e-06
-3.24068e-06
-4.07973e-06
-1.99171e-08
-2.1828e-06
-5.00702e-06
-8.10559e-07
-1.89447e-06
-3.54284e-06
5.70565e-08
-1.23955e-06
-3.56821e-06
-5.79458e-08
-8.5175e-07
-1.91253e-06
1.76222e-07
-4.92223e-07
-1.15815e-06
3.68413e-08
-3.62178e-07
-9.99843e-08
-1.57775e-07
-3.73284e-07
1.1232e-07
-1.72788e-07
-3.30245e-07
2.88212e-07
-2.13808e-07
-3.15561e-07
3.81741e-07
-2.05306e-07
-3.36182e-07
5.41935e-07
-2.12408e-07
-3.98994e-07
5.4906e-07
-2.1879e-07
-4.88749e-07
5.73729e-07
-2.26127e-07
-5.38539e-07
4.69279e-07
-2.4898e-07
-5.45049e-07
3.94053e-07
-2.66116e-07
-5.11666e-07
3.27999e-07
-2.94596e-07
-4.5425e-07
3.06811e-07
-3.2029e-07
-3.92793e-07
3.18521e-07
-3.4369e-07
-3.3201e-07
3.40192e-07
-3.61221e-07
-2.72197e-07
3.61662e-07
-3.74432e-07
-2.13042e-07
3.85185e-07
-3.83149e-07
-1.56301e-07
4.10731e-07
-3.87329e-07
-1.06477e-07
4.38965e-07
-3.86604e-07
-6.62216e-08
4.68428e-07
-3.81561e-07
-3.64775e-08
4.9771e-07
-3.73517e-07
-1.57327e-08
5.22959e-07
-3.64631e-07
-1.27095e-09
5.42371e-07
-3.56006e-07
9.25591e-09
5.57393e-07
-3.48507e-07
1.67491e-08
5.71576e-07
-3.42078e-07
2.1984e-08
5.86505e-07
-3.36643e-07
2.62104e-08
5.99374e-07
-3.31938e-07
3.06921e-08
6.07252e-07
-3.2771e-07
3.57966e-08
6.09163e-07
-3.23733e-07
4.07681e-08
6.04116e-07
-3.19201e-07
4.08278e-08
5.94025e-07
-3.12604e-07
2.64978e-08
5.81772e-07
-3.02425e-07
-1.44009e-08
5.68318e-07
-2.87161e-07
-9.19327e-08
5.52166e-07
-2.66961e-07
-2.07583e-07
5.30969e-07
-2.43193e-07
-3.52917e-07
4.8288e-07
-2.15479e-07
-4.9993e-07
3.69835e-07
-1.86782e-07
-6.24159e-07
1.54587e-07
-1.61233e-07
-7.73008e-07
-1.84186e-07
-1.32363e-07
-1.08888e-06
-6.71304e-07
-8.33359e-08
-1.53372e-06
-1.48869e-06
-4.75286e-08
-1.58283e-06
-2.99722e-06
-2.62456e-07
9.22332e-08
-5.56759e-06
-1.22482e-06
2.59098e-06
-6.83537e-06
-1.24655e-06
1.94098e-06
-3.30059e-06
4.41081e-07
-5.96044e-06
-7.72668e-06
1.43076e-06
-1.47562e-05
-2.05624e-05
5.25181e-06
-1.90672e-05
-1.89765e-05
5.90122e-06
-1.87916e-05
1.89907e-06
-9.37183e-07
-1.45991e-05
9.4396e-06
-9.36224e-06
-1.32838e-05
1.06072e-05
-8.08319e-06
-1.33011e-05
1.1073e-05
-6.59857e-06
-1.69846e-05
7.15046e-06
-6.01369e-06
-2.72095e-05
2.88525e-05
-9.59589e-06
-9.36034e-08
5.55093e-05
-2.19702e-05
-5.20507e-05
-1.4402e-05
2.73103e-06
-0.000135998
-2.68665e-05
8.8177e-06
-0.000135681
-1.56003e-05
5.93449e-06
-0.000137144
-1.6764e-05
2.2066e-06
-0.000134355
-9.92524e-06
-1.52279e-06
-0.00012717
-2.80142e-06
-5.15503e-06
-0.000121283
3.04458e-06
-6.3288e-06
-0.000116933
8.33707e-06
-5.83806e-06
-0.000114929
1.12727e-05
-4.28306e-06
-0.000114064
1.30695e-05
-4.33419e-06
-0.0001138
1.49839e-05
-4.63858e-06
-0.000114112
1.6158e-05
-2.72155e-06
-0.000116854
1.59173e-05
-8.89306e-07
-0.000121844
1.32576e-05
-1.18755e-06
-0.000126338
1.19695e-05
-1.6159e-06
-0.000129285
9.185e-06
8.7413e-08
-0.000133492
4.15401e-06
3.96844e-06
-0.000139523
-2.35904e-06
7.52452e-06
-0.000146074
-3.17963e-06
8.36684e-06
-0.000151522
-3.03541e-06
7.37547e-06
-0.000154434
-5.30015e-06
6.87295e-06
-0.000155266
-6.81921e-06
6.06935e-06
-0.000154297
-8.26479e-06
3.28883e-06
-0.000151045
-8.07121e-06
-9.44771e-07
-0.00014466
-7.0339e-06
-4.93366e-06
-0.000135602
-4.52621e-06
-6.61472e-06
-0.000120029
-1.90761e-06
-6.52278e-06
-6.04173e-05
1.70234e-07
-5.35207e-06
-6.74539e-06
1.7065e-06
-4.43686e-06
-4.10089e-06
3.20455e-06
-2.51693e-06
-3.14425e-06
2.42018e-06
-1.49394e-06
-7.5265e-07
2.73398e-06
-2.12983e-06
3.71833e-06
3.01349e-06
-3.46813e-06
6.70539e-06
2.94188e-06
-2.20552e-06
7.06523e-06
3.26969e-06
-4.90663e-07
4.37841e-06
4.8012e-06
2.05087e-06
6.99667e-06
2.89191e-06
-3.51299e-06
-3.86292e-06
2.78853e-07
-2.47744e-06
-5.19407e-06
-8.48505e-07
-2.20237e-06
-3.76454e-06
-5.33854e-08
-1.40739e-06
-3.97598e-06
-3.87226e-07
-9.59219e-07
-2.56184e-06
2.01125e-07
-4.96416e-07
-1.67198e-06
5.10077e-08
-2.91598e-07
-1.97459e-07
-1.07352e-07
-3.0458e-07
2.52056e-07
-1.26761e-07
-2.19938e-07
4.12623e-07
-2.0906e-07
-2.00803e-07
5.37329e-07
-1.74729e-07
-2.05516e-07
7.36267e-07
-1.89627e-07
-2.95219e-07
8.15826e-07
-1.77071e-07
-4.17118e-07
8.739e-07
-1.78281e-07
-4.8419e-07
7.35602e-07
-1.99259e-07
-4.85743e-07
6.23321e-07
-2.27725e-07
-4.45136e-07
5.50137e-07
-2.62754e-07
-3.89939e-07
5.45251e-07
-2.93648e-07
-3.44558e-07
5.89972e-07
-3.16842e-07
-3.08391e-07
6.39388e-07
-3.35375e-07
-2.74401e-07
6.77799e-07
-3.50138e-07
-2.38252e-07
7.09212e-07
-3.60189e-07
-1.98513e-07
7.35997e-07
-3.65017e-07
-1.59822e-07
7.63762e-07
-3.63502e-07
-1.25451e-07
7.91441e-07
-3.57396e-07
-9.96118e-08
8.20041e-07
-3.48185e-07
-8.03097e-08
8.40579e-07
-3.36936e-07
-6.48667e-08
8.52117e-07
-3.25205e-07
-5.12397e-08
8.57811e-07
-3.1406e-07
-4.00034e-08
8.63771e-07
-3.03448e-07
-3.2953e-08
8.73149e-07
-2.9371e-07
-3.0687e-08
8.82373e-07
-2.85282e-07
-3.25926e-08
8.873e-07
-2.78159e-07
-3.93135e-08
8.87132e-07
-2.71265e-07
-5.24151e-08
8.804e-07
-2.632e-07
-7.87039e-08
8.72018e-07
-2.51722e-07
-1.29725e-07
8.67146e-07
-2.3437e-07
-2.17514e-07
8.65995e-07
-2.09906e-07
-3.45502e-07
8.61199e-07
-1.81062e-07
-5.00608e-07
8.35222e-07
-1.49163e-07
-6.56132e-07
7.52188e-07
-1.138e-07
-7.777e-07
5.69124e-07
-7.77384e-08
-8.7133e-07
2.80659e-07
-3.24578e-08
-1.04082e-06
-2.32432e-08
8.52995e-09
-1.45786e-06
-3.31411e-07
7.71337e-08
-2.17712e-06
-8.39611e-07
7.01687e-08
-2.6226e-06
-2.31166e-06
-2.40106e-07
-2.04783e-06
-5.07178e-06
-1.07058e-06
-2.774e-07
-7.25055e-06
-1.35526e-06
1.52587e-06
-4.18775e-06
-9.16136e-07
-4.98644e-06
-2.25427e-06
1.03986e-06
-1.69339e-05
-1.46669e-05
6.05196e-06
-2.37223e-05
-2.03363e-05
8.14814e-06
-2.64124e-05
4.96602e-07
4.09263e-06
-2.44692e-05
1.27515e-05
-5.25511e-06
-2.45184e-05
1.71529e-05
-6.4965e-06
-2.76164e-05
2.03484e-05
-6.17736e-06
-4.04176e-05
2.20082e-05
-2.05655e-06
-3.40299e-05
3.16533e-05
-9.18844e-06
4.82631e-06
4.03225e-05
-2.79598e-05
-6.07531e-05
-1.1465e-05
7.21939e-06
-0.000147583
-1.11059e-05
8.48657e-06
-0.000152655
-8.74642e-06
5.79693e-06
-0.000155201
-1.25449e-05
9.90516e-07
-0.000152881
-1.09065e-05
-2.17528e-06
-0.000143504
-7.41116e-06
-4.80899e-06
-0.000135635
-4.25486e-07
-4.48684e-06
-0.000130577
5.86273e-06
-2.65424e-06
-0.000127311
9.88153e-06
-6.54355e-07
-0.000125511
1.30771e-05
-1.10366e-06
-0.000124578
1.5783e-05
-1.39123e-06
-0.000125125
1.74488e-05
8.23521e-07
-0.000127901
1.89111e-05
7.30191e-07
-0.00013228
1.74825e-05
2.75602e-07
-0.000136194
1.48399e-05
5.12573e-07
-0.00014075
9.77536e-06
3.67084e-06
-0.000148035
4.45999e-06
7.48663e-06
-0.000158261
-3.48062e-07
9.27547e-06
-0.000166576
-2.23251e-06
8.502e-06
-0.00017098
-5.64256e-06
7.59815e-06
-0.000174136
-7.83521e-06
6.6965e-06
-0.000174559
-8.93928e-06
3.69984e-06
-0.000172186
-9.29002e-06
-7.25956e-07
-0.000168217
-8.14629e-06
-3.63314e-06
-0.000162687
-7.40882e-06
-5.06061e-06
-0.00015638
-6.23282e-06
-4.48861e-06
-0.000150324
-4.89106e-06
-3.09754e-06
-0.000144636
-3.40433e-06
-1.82178e-06
-0.000139651
-1.11048e-06
-9.92047e-07
-0.000135952
4.98414e-07
-2.38233e-07
-0.000131968
1.49159e-06
-5.61619e-07
-0.00011981
2.91307e-06
-2.6249e-06
-8.52295e-05
3.41465e-06
-2.8209e-06
-2.76569e-05
4.09503e-06
-2.15641e-06
6.63568e-06
5.73792e-06
-8.70186e-07
4.06208e-06
9.0634e-06
8.57103e-07
9.75569e-06
2.5888e-06
-3.69813e-06
-3.43158e-06
6.13551e-07
-2.76497e-06
-5.06922e-06
-1.05802e-06
-2.52135e-06
-3.73572e-06
-2.72446e-07
-1.51618e-06
-4.05266e-06
-9.28495e-07
-9.0985e-07
-2.98267e-06
-1.85504e-07
-4.13162e-07
-1.99386e-06
-1.74809e-07
-2.52308e-07
-2.02781e-07
-1.55533e-07
-2.98916e-07
4.20696e-07
-1.22035e-07
-1.76733e-07
5.34713e-07
-2.44274e-07
-1.47487e-07
6.90049e-07
-1.81969e-07
-1.34325e-07
9.08605e-07
-1.85503e-07
-2.13813e-07
1.03187e-06
-1.3656e-07
-3.19672e-07
1.11428e-06
-1.34527e-07
-3.70967e-07
9.55065e-07
-1.68171e-07
-3.65887e-07
8.39519e-07
-2.2128e-07
-3.32938e-07
7.80054e-07
-2.6287e-07
-2.97499e-07
8.02461e-07
-2.92652e-07
-2.77386e-07
8.75965e-07
-3.0611e-07
-2.71909e-07
9.48065e-07
-3.14157e-07
-2.71914e-07
9.98666e-07
-3.20865e-07
-2.72043e-07
1.03465e-06
-3.25312e-07
-2.67285e-07
1.05847e-06
-3.27237e-07
-2.58179e-07
1.07881e-06
-3.24153e-07
-2.47383e-07
1.09708e-06
-3.16444e-07
-2.4063e-07
1.1165e-06
-3.03212e-07
-2.35109e-07
1.12558e-06
-2.90527e-07
-2.26114e-07
1.12238e-06
-2.79263e-07
-2.13352e-07
1.11434e-06
-2.69295e-07
-2.00175e-07
1.11006e-06
-2.59472e-07
-1.92251e-07
1.11499e-06
-2.4977e-07
-1.92677e-07
1.12352e-06
-2.40723e-07
-2.02667e-07
1.12945e-06
-2.3216e-07
-2.24756e-07
1.13191e-06
-2.22689e-07
-2.59344e-07
1.12663e-06
-2.11642e-07
-3.10727e-07
1.1207e-06
-1.97295e-07
-3.8582e-07
1.11965e-06
-1.77415e-07
-4.87788e-07
1.12107e-06
-1.53104e-07
-6.0845e-07
1.11278e-06
-1.30915e-07
-7.28262e-07
1.06409e-06
-1.09056e-07
-8.22294e-07
9.34199e-07
-8.79733e-08
-8.84006e-07
6.98032e-07
-6.71893e-08
-9.39165e-07
3.77548e-07
-4.17212e-08
-1.08442e-06
1.29271e-07
-7.24647e-09
-1.51654e-06
3.4694e-08
6.60284e-08
-2.21129e-06
-1.56165e-07
1.13204e-08
-2.78967e-06
-1.41654e-06
-3.16721e-07
-2.77084e-06
-4.27217e-06
-8.18426e-07
-2.51554e-06
-6.82504e-06
-6.80794e-07
-2.17385e-06
-4.4009e-06
-1.2853e-07
-5.06456e-06
1.91459e-07
4.44966e-07
-1.75356e-05
-7.05302e-06
4.85713e-06
-3.51605e-05
-1.27707e-05
1.00594e-05
-4.31207e-05
-9.75038e-07
9.43201e-06
-4.66887e-05
1.20667e-05
4.25291e-06
-4.76989e-05
1.58602e-05
2.30302e-06
-4.63657e-05
1.66858e-05
2.32953e-06
-4.4812e-05
1.38239e-05
6.63056e-06
-2.97192e-05
1.98091e-05
-3.24853e-06
5.32264e-06
2.07646e-05
-2.11927e-05
-7.00447e-05
-2.81277e-06
7.6316e-06
-0.000158946
6.66621e-06
1.08001e-05
-0.000166878
-3.97932e-06
6.78072e-06
-0.000171529
-7.50691e-06
2.76265e-06
-0.000171346
-1.01415e-05
-8.02742e-07
-0.00016639
-1.10804e-05
-3.99046e-06
-0.000159327
-6.74348e-06
-4.31051e-06
-0.000152021
-3.01973e-07
-2.31682e-06
-0.000147592
6.04845e-06
-1.17402e-06
-0.00014476
1.03483e-05
-1.87487e-06
-0.000141166
1.31193e-05
-2.22207e-06
-0.00013928
1.62788e-05
-7.66053e-07
-0.00014021
1.97675e-05
1.60836e-07
-0.000142268
1.90969e-05
1.69996e-06
-0.000146291
1.59536e-05
3.83712e-06
-0.0001539
1.16692e-05
7.08311e-06
-0.000166434
7.688e-06
9.57956e-06
-0.000178302
2.15303e-06
9.39672e-06
-0.000183931
-3.15863e-06
6.99093e-06
-0.000187994
-7.69983e-06
6.49753e-06
-0.000190483
-8.69418e-06
4.35807e-06
-0.000189942
-9.86387e-06
1.82506e-07
-0.000188849
-8.89106e-06
-2.41433e-06
-0.000186227
-8.292e-06
-3.76584e-06
-0.000182936
-8.3662e-06
-3.64423e-06
-0.000180085
-8.38599e-06
-2.03575e-06
-0.000176868
-8.63295e-06
-9.4562e-07
-0.000172965
-8.13929e-06
-4.33611e-07
-0.000167986
-6.22622e-06
-7.92483e-08
-0.000162223
-4.14836e-06
-6.85167e-07
-0.000156343
-2.20391e-06
-1.36658e-06
-0.00015037
-6.823e-08
-1.99803e-06
-0.000143265
1.37748e-06
-1.92018e-06
-0.000132234
3.34503e-06
-1.71754e-06
-0.000108072
6.75198e-06
-8.82908e-07
-4.47079e-05
1.18826e-05
3.89588e-07
1.35228e-05
8.70709e-07
-3.65003e-06
-2.8666e-06
1.22624e-06
-3.09585e-06
-4.73403e-06
-8.89363e-07
-3.06294e-06
-3.56615e-06
-2.02472e-07
-1.96515e-06
-4.11681e-06
-1.03365e-06
-1.08182e-06
-3.43796e-06
-4.28035e-07
-3.28404e-07
-2.399e-06
-3.48284e-07
-1.65363e-07
-1.99166e-07
-1.66656e-07
-2.18411e-07
5.44779e-07
-7.10326e-08
-1.43511e-07
7.85251e-07
-3.25436e-07
-1.79376e-07
9.38497e-07
-2.1258e-07
-1.36795e-07
1.10631e-06
-2.40281e-07
-1.39822e-07
1.2421e-06
-2.07204e-07
-1.32543e-07
1.33665e-06
-2.29643e-07
-1.20831e-07
1.23024e-06
-2.86881e-07
-1.16439e-07
1.18101e-06
-3.45874e-07
-1.41376e-07
1.18996e-06
-3.84961e-07
-1.82523e-07
1.26031e-06
-4.16695e-07
-2.288e-07
1.35646e-06
-4.34213e-07
-2.75912e-07
1.44365e-06
-4.48467e-07
-3.24214e-07
1.50821e-06
-4.61233e-07
-3.67723e-07
1.54815e-06
-4.69986e-07
-3.96233e-07
1.56344e-06
-4.76449e-07
-4.12903e-07
1.57453e-06
-4.79046e-07
-4.20375e-07
1.58342e-06
-4.78858e-07
-4.18835e-07
1.59136e-06
-4.76393e-07
-4.12743e-07
1.59222e-06
-4.72719e-07
-4.032e-07
1.5833e-06
-4.70453e-07
-3.89318e-07
1.56911e-06
-4.6864e-07
-3.747e-07
1.56085e-06
-4.65395e-07
-3.68413e-07
1.56862e-06
-4.59906e-07
-3.75728e-07
1.58419e-06
-4.53346e-07
-3.97553e-07
1.59739e-06
-4.46101e-07
-4.35657e-07
1.60741e-06
-4.37382e-07
-4.881e-07
1.60719e-06
-4.281e-07
-5.58855e-07
1.60762e-06
-4.16146e-07
-6.48444e-07
1.61015e-06
-4.00888e-07
-7.45707e-07
1.60388e-06
-3.85521e-07
-8.3884e-07
1.57507e-06
-3.69135e-07
-9.13649e-07
1.5015e-06
-3.62572e-07
-9.52472e-07
1.34117e-06
-3.68118e-07
-9.64307e-07
1.09307e-06
-3.83171e-07
-9.94903e-07
7.92747e-07
-3.84566e-07
-1.11996e-06
6.24922e-07
-3.70556e-07
-1.51122e-06
7.49283e-07
-3.23277e-07
-2.18889e-06
9.64809e-07
-4.43251e-07
-2.75286e-06
-2.03255e-08
-8.32192e-07
-2.81698e-06
-3.00567e-06
-1.20232e-06
-3.10102e-06
-5.89594e-06
-6.45015e-07
-4.2151e-06
-3.16553e-06
-1.21253e-07
-7.2784e-06
3.65334e-06
-3.9856e-07
-2.01414e-05
2.46435e-06
3.34569e-06
-4.44192e-05
-8.07857e-07
1.2315e-05
-6.00634e-05
1.36168e-06
1.33077e-05
-6.72091e-05
7.06459e-06
1.21479e-05
-6.95882e-05
4.71433e-06
1.35252e-05
-6.82184e-05
5.06895e-09
1.53112e-05
-6.69713e-05
-7.29601e-06
1.98727e-05
-4.59413e-05
-7.01141e-06
5.7908e-06
2.46013e-06
-1.19158e-05
-2.22115e-05
-7.99192e-05
6.337e-06
5.94193e-06
-0.000185697
2.16268e-05
1.76609e-05
-0.000193328
-7.57575e-07
8.02597e-06
-0.000201639
-3.27225e-07
2.97919e-06
-0.000203202
-3.54993e-06
-6.44194e-06
-0.000200335
-3.4507e-06
-1.02942e-05
-0.000195543
-3.91961e-06
-1.08413e-05
-0.000188591
-2.47309e-06
-6.97837e-06
-0.000180867
1.44761e-06
-2.5565e-06
-0.000175779
7.53648e-06
-6.30058e-07
-0.00017318
1.09444e-05
-1.0017e-06
-0.000170978
1.41798e-05
9.88445e-07
-0.000171316
1.74715e-05
3.49643e-06
-0.000175362
1.75598e-05
6.07291e-06
-0.0001837
1.55483e-05
9.41301e-06
-0.000197732
1.26356e-05
1.1892e-05
-0.000210667
7.5894e-06
1.10641e-05
-0.000214721
6.56065e-07
6.52419e-06
-0.00021785
-3.72694e-06
4.63878e-06
-0.000222147
-5.8787e-06
3.33332e-06
-0.00022443
-5.85395e-06
-1.28213e-07
-0.00022571
-5.13763e-06
-3.33667e-06
-0.000225291
-4.44441e-06
-4.49113e-06
-0.000224332
-4.83241e-06
-4.79334e-06
-0.000224471
-6.4941e-06
-2.20474e-06
-0.000224799
-7.80656e-06
-9.1496e-07
-0.000224574
-8.58512e-06
-2.7912e-07
-0.000224389
-8.38389e-06
-3.71581e-07
-0.00022402
-6.60459e-06
-1.00692e-06
-0.000221673
-5.12221e-06
-2.16488e-06
-0.000217321
-3.83347e-06
-2.97187e-06
-0.000211086
-2.80649e-06
-3.48407e-06
-0.000203924
-2.11445e-06
-3.26495e-06
-0.000197443
-4.58367e-07
-2.85299e-06
-0.000188622
2.36521e-06
-3.12892e-06
-0.000176238
6.59117e-06
-2.54041e-06
8.95107e-06
-2.90245e-07
-3.24881e-06
-1.70001e-06
2.18748e-06
-3.31649e-06
-4.40276e-06
-2.63585e-07
-3.73569e-06
-3.31916e-06
1.72205e-07
-2.669e-06
-4.26292e-06
-9.20574e-07
-1.55648e-06
-3.95946e-06
-5.91012e-07
-3.36441e-07
-3.06415e-06
-5.54878e-07
-1.51174e-08
-7.13348e-07
1.92862e-07
-1.34612e-07
3.03511e-07
3.60766e-07
-1.23727e-07
7.93532e-07
-1.91597e-08
-2.06078e-07
9.30773e-07