/*--------------------------------*- C++ -*----------------------------------*\
| =========                 |                                                 |
| \\      /  F ield         | OpenFOAM: The Open Source CFD Toolbox           |
|  \\    /   O peration     | Version:  2.3.0                                 |
|   \\  /    A nd           | Web:      www.OpenFOAM.org                      |
|    \\/     M anipulation  |                                                 |
\*---------------------------------------------------------------------------*/
FoamFile
{
    version     2.0;
    format      ascii;
    class       surfaceScalarField;
    location    "42";
    object      phi.water;
}
// * * * * * * * * * * * * * * * * * * * * * * * * * * * * * * * * * * * * * //

dimensions      [0 3 -1 0 0 0 0];

internalField   nonuniform List<scalar> 
16448
(
-1.29974e-06
-2.54545e-06
5.53069e-07
5.06249e-07
-2.56748e-06
7.66113e-07
5.08172e-07
-1.16168e-06
1.16379e-06
4.36828e-07
-1.00231e-06
1.07817e-06
1.05026e-07
-5.67505e-07
9.07811e-07
-1.20458e-08
-7.12335e-07
8.39066e-07
-5.53727e-08
-6.64562e-07
7.15552e-07
-7.17543e-08
-6.051e-07
6.27399e-07
-1.59634e-07
-4.51781e-07
5.43505e-07
-3.26683e-07
-3.1942e-07
4.87691e-07
-5.04513e-07
-2.47546e-07
4.2593e-07
-5.73346e-07
-2.6751e-07
3.36621e-07
-5.39289e-07
-3.11217e-07
2.77551e-07
-4.16732e-07
-3.55456e-07
2.33177e-07
-2.80006e-07
-3.73311e-07
2.36942e-07
-1.35257e-07
-3.96975e-07
2.52499e-07
-1.09975e-08
-4.10255e-07
2.8632e-07
9.23492e-08
-4.24678e-07
3.21614e-07
1.67437e-07
-4.35993e-07
3.61198e-07
2.13504e-07
-4.43076e-07
3.97275e-07
2.31182e-07
-4.46238e-07
4.28831e-07
2.30186e-07
-4.50489e-07
4.51729e-07
2.18854e-07
-4.50389e-07
4.61973e-07
2.029e-07
-4.45663e-07
4.61851e-07
1.86228e-07
-4.36461e-07
4.53381e-07
1.72508e-07
-4.24534e-07
4.38488e-07
1.65386e-07
-4.13469e-07
4.20845e-07
1.66823e-07
-4.04118e-07
4.02917e-07
1.75424e-07
-3.9461e-07
3.86266e-07
1.87336e-07
-3.842e-07
3.72526e-07
2.00693e-07
-3.73562e-07
3.60468e-07
2.16871e-07
-3.6396e-07
3.48021e-07
2.39341e-07
-3.55973e-07
3.33772e-07
2.72867e-07
-3.50477e-07
3.17196e-07
3.23406e-07
-3.48679e-07
2.98421e-07
3.96655e-07
-3.52023e-07
2.79029e-07
4.95546e-07
-3.61073e-07
2.62482e-07
6.18312e-07
-3.76858e-07
2.54361e-07
7.572e-07
-3.99555e-07
2.60988e-07
8.98289e-07
-4.30423e-07
2.89632e-07
1.01739e-06
-4.68625e-07
3.49894e-07
1.10623e-06
-5.37417e-07
4.4892e-07
1.27468e-06
-7.06483e-07
5.40768e-07
1.73681e-06
-1.04969e-06
5.98611e-07
2.526e-06
-1.40897e-06
6.38491e-07
3.38104e-06
-1.54183e-06
7.13811e-07
3.63639e-06
-9.99471e-07
8.09162e-07
2.54675e-06
-6.27139e-07
1.87823e-06
2.09831e-06
-4.18213e-06
4.82599e-06
6.24188e-06
-1.08223e-05
6.68056e-06
1.31582e-05
-1.33345e-05
6.38075e-06
1.56319e-05
-8.24116e-06
5.76161e-06
1.23289e-05
-2.79276e-06
6.12975e-06
9.2689e-06
-3.74554e-06
6.66509e-06
8.03522e-06
-2.08707e-06
3.44887e-06
9.82536e-06
-6.22129e-06
4.16209e-06
7.36052e-06
3.21341e-06
-4.18462e-07
1.28199e-05
-5.36876e-06
-8.05448e-07
3.55825e-06
1.85556e-05
1.35137e-06
3.14728e-05
-5.30557e-06
-1.19557e-06
2.29306e-05
-2.76621e-05
6.81187e-06
2.45428e-05
-1.04417e-05
7.30575e-06
2.20995e-05
-3.20807e-06
5.64799e-06
2.01725e-05
-2.12171e-06
4.04871e-06
1.45236e-05
2.6065e-06
3.04232e-06
8.84465e-06
3.29822e-06
2.38077e-06
5.3962e-06
2.10305e-06
1.34539e-06
3.78207e-06
1.25456e-06
3.59566e-07
3.26608e-06
4.75183e-07
4.08067e-08
2.84249e-06
6.42559e-07
-2.18963e-07
6.56452e-07
2.16896e-06
1.70765e-08
-4.73931e-06
4.50071e-06
8.95048e-07
-9.46324e-06
4.34554e-06
3.784e-07
-1.14772e-05
2.20772e-06
-1.93749e-07
-1.02834e-05
-9.06577e-07
-2.87233e-07
-6.97781e-06
-2.57133e-06
-7.34254e-07
-4.20575e-06
-2.97655e-06
2.04489e-07
-2.75452e-06
-1.47132e-06
2.00892e-08
-2.48304e-06
-5.22431e-07
2.50954e-07
-3.21335e-06
5.65188e-08
6.73786e-07
-5.46506e-06
1.36451e-06
8.872e-07
-8.076e-06
1.53146e-06
1.07948e-06
-9.39391e-06
-8.26799e-08
1.40059e-06
-9.75066e-06
-1.08262e-06
1.43938e-06
-8.78556e-06
-1.80065e-06
8.35552e-07
-6.70529e-06
-1.50121e-06
-5.79051e-07
-4.38194e-06
-7.15524e-07
-1.60783e-06
-2.75737e-06
2.71989e-07
-1.89655e-06
-1.13787e-06
1.18117e-06
-2.80067e-06
5.59936e-07
2.073e-06
-3.77081e-06
3.10806e-06
1.69952e-06
-4.24764e-06
6.0365e-06
1.13927e-07
-3.04237e-06
7.24129e-06
-8.88174e-07
-3.16616e-07
5.78482e-06
-8.22868e-07
2.27934e-06
3.29218e-06
-7.82858e-07
3.2755e-06
-2.523e-07
3.54448e-06
-1.95486e-06
-3.67671e-06
-2.16575e-07
-5.08214e-07
-3.88886e-06
-1.16139e-07
-1.49586e-07
-2.16957e-06
6.56388e-07
2.58914e-07
-1.83115e-06
4.27239e-07
2.76301e-07
-8.6282e-07
2.8585e-07
9.20327e-08
-7.87297e-07
2.66521e-07
-8.27151e-08
-6.2394e-07
1.40774e-07
-2.04129e-07
-5.67838e-07
8.94738e-08
-3.54194e-07
-3.70138e-07
7.15649e-08
-5.38574e-07
-2.29665e-07
9.5315e-08
-6.96866e-07
-1.56313e-07
6.73061e-08
-7.38937e-07
-2.21405e-07
-4.16084e-09
-6.98451e-07
-2.86669e-07
-6.49474e-08
-5.79729e-07
-3.62501e-07
-1.11666e-07
-4.37758e-07
-3.93549e-07
-1.21658e-07
-2.81457e-07
-4.3227e-07
-1.21014e-07
-1.4049e-07
-4.50613e-07
-1.00582e-07
-1.89879e-08
-4.68992e-07
-7.7204e-08
7.56227e-08
-4.81057e-07
-4.95641e-08
1.42607e-07
-4.86194e-07
-2.3919e-08
1.80066e-07
-4.83924e-07
1.36561e-10
1.96077e-07
-4.78578e-07
1.19975e-08
1.98361e-07
-4.69677e-07
1.692e-08
1.92691e-07
-4.56443e-07
1.6364e-08
1.83344e-07
-4.38956e-07
1.17372e-08
1.73823e-07
-4.19584e-07
4.45362e-09
1.68179e-07
-4.0146e-07
-6.49552e-09
1.68977e-07
-3.85152e-07
-1.98732e-08
1.74965e-07
-3.68751e-07
-3.19562e-08
1.83993e-07
-3.50839e-07
-4.24846e-08
1.9607e-07
-3.33252e-07
-5.24861e-08
2.13311e-07
-3.1847e-07
-6.2815e-08
2.38376e-07
-3.07375e-07
-7.37505e-08
2.74366e-07
-3.01229e-07
-8.53061e-08
3.24809e-07
-3.02563e-07
-9.66244e-08
3.93888e-07
-3.13605e-07
-1.07531e-07
4.84116e-07
-3.3538e-07
-1.15953e-07
5.92881e-07
-3.68788e-07
-1.16832e-07
7.09047e-07
-4.11612e-07
-1.04095e-07
8.18478e-07
-4.6619e-07
-7.36091e-08
9.02687e-07
-5.32909e-07
-1.98939e-08
9.84041e-07
-6.53758e-07
3.52833e-08
1.19306e-06
-9.55732e-07
4.35874e-08
1.71003e-06
-1.57994e-06
2.51088e-08
2.60285e-06
-2.29112e-06
9.32067e-09
3.71781e-06
-2.74016e-06
1.12036e-07
4.76959e-06
-2.16445e-06
1.50163e-07
4.68576e-06
-1.5909e-06
1.16403e-06
1.46463e-06
-5.38017e-06
4.63029e-06
5.04885e-08
-1.63243e-05
7.06194e-06
8.16636e-07
-2.07576e-05
6.66683e-06
2.39297e-07
-1.25317e-05
4.85598e-06
-8.03921e-07
-2.93257e-06
1.27848e-06
-2.99192e-06
-3.03726e-06
1.37381e-06
3.89919e-06
-5.11535e-06
-3.69552e-06
7.8163e-06
-8.88311e-06
-1.4496e-06
1.07616e-05
7.6454e-06
-6.1743e-06
7.63014e-06
9.35712e-08
-5.21194e-06
1.23004e-05
3.15213e-05
-7.66895e-07
3.12339e-05
-6.04735e-06
-2.84411e-06
3.35336e-06
-3.44292e-05
5.13214e-06
-5.151e-06
-1.28107e-05
9.9451e-06
-7.60867e-06
-1.16441e-05
1.08935e-05
-1.0683e-05
-3.76171e-06
4.71434e-06
-9.70355e-06
-2.05321e-08
1.64758e-06
-7.59143e-06
2.47568e-06
-1.28958e-06
-5.81052e-06
3.35012e-06
-3.02797e-06
-5.03456e-06
3.03718e-06
-2.55858e-06
-5.41607e-06
1.63431e-06
-7.77625e-07
-5.34879e-06
8.99302e-07
-3.24018e-07
-4.75412e-06
2.09913e-06
-5.2483e-07
-6.25181e-06
5.1566e-06
8.41793e-07
-8.51954e-06
5.99993e-06
6.13345e-07
-9.06567e-06
3.05073e-06
-2.96877e-07
-7.34117e-06
-6.37461e-07
-1.99361e-06
-4.24809e-06
-2.27358e-06
-3.39084e-06
-2.14595e-06
-2.81673e-06
-2.26195e-06
-1.24119e-06
-1.00074e-06
-1.37533e-06
-9.82012e-07
1.70869e-07
-9.5248e-07
-1.93962e-06
1.21273e-06
-1.98602e-07
-4.476e-06
2.47483e-06
1.42607e-06
-7.47306e-06
1.75305e-06
2.77547e-06
-9.65592e-06
-1.16621e-06
3.26639e-06
-9.99357e-06
-3.62697e-06
2.882e-06
-8.49547e-06
-4.93019e-06
1.63144e-06
-5.56947e-06
-4.24721e-06
-1.80003e-07
-2.43583e-06
-2.90217e-06
-9.46995e-07
-1.40097e-07
-6.8615e-07
-1.3376e-06
1.59528e-06
7.51982e-07
-1.30618e-06
3.57577e-06
2.11478e-06
-2.02226e-06
6.18719e-06
3.05934e-06
-3.97125e-06
8.4668e-06
2.96559e-06
-5.13127e-06
9.43597e-06
2.21502e-06
-4.07237e-06
7.95301e-06
1.61405e-06
-9.53956e-07
4.17792e-06
1.13727e-06
1.85497e-06
3.29752e-07
3.59586e-06
-2.49365e-06
-4.04708e-06
-4.8039e-07
-1.3323e-06
-4.43621e-06
-6.03661e-07
-8.5307e-07
-2.77979e-06
1.40075e-07
-2.27687e-07
-2.38526e-06
-6.32451e-08
2.83538e-08
-1.01796e-06
-9.31366e-08
-4.82793e-08
-6.65913e-07
-3.86762e-08
-2.16255e-07
-3.18294e-07
-1.31846e-07
-3.3722e-07
-2.9257e-07
-1.50011e-07
-4.35538e-07
-1.05517e-07
-1.6326e-07
-5.04428e-07
-1.74617e-08
-1.41962e-07
-5.83955e-07
5.906e-08
-1.3496e-07
-6.07172e-07
-1.58869e-08
-1.81977e-07
-6.05716e-07
-6.11842e-08
-2.26568e-07
-5.58255e-07
-1.41757e-07
-2.68051e-07
-4.8354e-07
-1.80304e-07
-2.87784e-07
-3.82776e-07
-2.27591e-07
-3.05391e-07
-2.78802e-07
-2.48444e-07
-3.06083e-07
-1.80825e-07
-2.65803e-07
-3.01165e-07
-9.65877e-08
-2.74035e-07
-2.91253e-07
-2.55559e-08
-2.76063e-07
-2.81182e-07
3.13716e-08
-2.68466e-07
-2.72405e-07
7.25857e-08
-2.53943e-07
-2.65874e-07
1.00448e-07
-2.36034e-07
-2.61523e-07
1.1827e-07
-2.15231e-07
-2.5906e-07
1.29504e-07
-1.92407e-07
-2.57798e-07
1.37226e-07
-1.69589e-07
-2.57742e-07
1.4302e-07
-1.48411e-07
-2.58855e-07
1.47705e-07
-1.2897e-07
-2.60885e-07
1.52963e-07
-1.10114e-07
-2.63895e-07
1.60812e-07
-9.06809e-08
-2.68012e-07
1.7326e-07
-7.29439e-08
-2.7274e-07
1.91334e-07
-5.91627e-08
-2.7737e-07
2.15261e-07
-4.99455e-08
-2.81321e-07
2.44987e-07
-4.66002e-08
-2.84323e-07
2.80885e-07
-5.11883e-08
-2.87214e-07
3.22553e-07
-6.59892e-08
-2.89234e-07
3.67979e-07
-9.20932e-08
-2.88628e-07
4.12128e-07
-1.29333e-07
-2.83532e-07
4.43974e-07
-1.73383e-07
-2.69966e-07
4.58274e-07
-2.31983e-07
-2.48408e-07
4.61538e-07
-3.15259e-07
-2.20781e-07
4.75646e-07
-4.68087e-07
-1.99249e-07
5.51427e-07
-8.1342e-07
-2.1417e-07
6.99048e-07
-1.46855e-06
-2.48928e-07
1.0934e-06
-2.34563e-06
-3.25213e-07
2.04046e-06
-3.32387e-06
-3.43544e-07
4.476e-06
-3.84501e-06
-7.27411e-07
6.19027e-06
-3.59008e-06
3.66721e-07
1.95103e-06
-5.14467e-06
4.18716e-06
-1.89755e-06
-1.76558e-05
5.36594e-06
-4.47873e-06
-2.35176e-05
5.31988e-06
-5.73511e-06
-1.44525e-05
3.20639e-06
-4.90329e-06
-1.26181e-06
-2.43404e-06
-4.27295e-06
-9.11366e-08
-3.7848e-06
2.27867e-06
-3.69019e-06
-7.92808e-06
-2.14792e-06
-1.55625e-06
-3.32274e-06
6.80161e-06
1.00846e-05
-9.78784e-06
6.98051e-06
1.9345e-06
-5.19554e-06
1.50456e-05
5.06435e-05
-1.03401e-05
3.03272e-05
-5.31246e-06
-2.69245e-06
-4.53054e-06
-3.57245e-05
7.6263e-06
-9.69397e-06
-1.59493e-05
7.97703e-06
-1.18587e-05
-1.89562e-05
9.47678e-06
-1.2949e-05
-6.5273e-06
3.85586e-06
-1.26405e-05
-3.01368e-06
2.68461e-06
-9.76315e-06
1.4951e-06
-1.89673e-06
-6.30344e-06
3.11945e-06
-3.22904e-06
-4.8286e-06
4.67206e-06
-3.10972e-06
-4.937e-06
4.09216e-06
-2.34944e-06
-5.18324e-06
3.84152e-06
-2.69599e-06
-5.25358e-06
4.74405e-06
-2.57457e-06
-6.07934e-06
6.54399e-06
-5.61631e-07
-7.21314e-06
6.81913e-06
3.14603e-07
-6.79333e-06
3.94016e-06
-1.30925e-06
-5.30881e-06
1.19398e-06
-3.31596e-06
-3.0554e-06
3.11638e-07
-4.83863e-06
-2.80435e-06
2.48163e-07
-3.31594e-06
-3.12321e-06
1.07812e-06
-1.76002e-06
-2.97092e-06
7.15357e-07
-6.96772e-07
-4.18735e-06
2.60565e-07
2.16859e-06
-7.85266e-06
1.11099e-06
5.02916e-06
-1.17262e-05
-1.59321e-07
5.78588e-06
-1.4624e-05
-3.08196e-06
4.81353e-06
-1.4617e-05
-5.51041e-06
1.87653e-06
-1.1725e-05
-6.37177e-06
-1.45048e-06
-7.68729e-06
-5.06168e-06
-3.22322e-06
-3.86894e-06
-3.54437e-06
-3.17614e-06
-8.48937e-07
-8.05355e-07
-2.9008e-06
9.0521e-07
1.35632e-06
-2.35849e-06
2.2412e-06
1.94301e-06
-1.16422e-06
4.98603e-06
3.71379e-06
-3.39927e-06
8.21082e-06
4.78572e-06
-5.04492e-06
1.00313e-05
4.0237e-06
-3.62921e-06
9.03644e-06
3.23986e-06
-6.30902e-07
5.03218e-06
3.04055e-06
2.10098e-06
1.88713e-06
3.4748e-06
-2.90971e-06
-4.13776e-06
-2.79845e-07
-1.79536e-06
-4.75974e-06
-7.81637e-07
-1.41461e-06
-3.1975e-06
4.65059e-08
-7.81835e-07
-2.97118e-06
-3.82003e-08
-4.13994e-07
-1.3485e-06
-2.81719e-08
-2.57886e-07
-7.61885e-07
-5.33456e-08
-2.69693e-07
-1.27874e-07
-1.72753e-07
-3.12755e-07
-7.17188e-08
-1.73623e-07
-3.37882e-07
1.17309e-07
-1.94443e-07
-3.54052e-07
1.9098e-07
-1.90633e-07
-3.93475e-07
3.08746e-07
-2.09121e-07
-4.34112e-07
2.67296e-07
-2.41979e-07
-4.8448e-07
2.57677e-07
-2.67947e-07
-4.92613e-07
1.70318e-07
-3.03622e-07
-4.69817e-07
1.21205e-07
-3.23962e-07
-4.128e-07
6.65384e-08
-3.5088e-07
-3.35891e-07
4.36625e-08
-3.68757e-07
-2.55412e-07
3.59943e-08
-3.8204e-07
-1.80537e-07
3.94341e-08
-3.88109e-07
-1.12156e-07
4.67062e-08
-3.9092e-07
-5.10493e-08
6.08304e-08
-3.90187e-07
2.19153e-09
7.97656e-08
-3.8673e-07
4.53069e-08
1.01781e-07
-3.80731e-07
7.75213e-08
1.26701e-07
-3.73935e-07
9.9334e-08
1.53483e-07
-3.67514e-07
1.13129e-07
1.78598e-07
-3.61776e-07
1.21684e-07
2.00317e-07
-3.57109e-07
1.27905e-07
2.18877e-07
-3.53877e-07
1.34102e-07
2.36416e-07
-3.52571e-07
1.41728e-07
2.54494e-07
-3.52628e-07
1.51399e-07
2.71015e-07
-3.53501e-07
1.63444e-07
2.83351e-07
-3.54412e-07
1.78661e-07
2.89824e-07
-3.54886e-07
1.97621e-07
2.89165e-07
-3.54594e-07
2.18711e-07
2.80736e-07
-3.52923e-07
2.37103e-07
2.64278e-07
-3.48525e-07
2.45917e-07
2.39517e-07
-3.40329e-07
2.37507e-07
2.06968e-07
-3.27745e-07
2.02091e-07
1.71458e-07
-3.09311e-07
1.35908e-07
1.21491e-07
-2.87111e-07
5.13507e-08
3.55714e-08
-2.66089e-07
-3.19003e-08
-1.31171e-07
-2.52861e-07
-1.37922e-07
-4.65482e-07
-2.38653e-07
-3.18201e-07
-1.07033e-06
-2.09998e-07
-4.44193e-07
-1.98069e-06
-2.2778e-07
1.67815e-08
-3.30778e-06
-4.62515e-07
2.52229e-06
-5.1151e-06
-1.22068e-06
5.13428e-06
-5.57823e-06
-5.36793e-07
7.45285e-07
-3.51613e-06
2.91193e-06
-5.84985e-06
-1.4214e-05
3.38849e-06
-1.1065e-05
-2.40948e-05
5.7836e-06
-1.33792e-05
-1.7374e-05
5.25257e-06
-1.39213e-05
1.25227e-06
-1.85988e-06
-1.21902e-05
4.29512e-06
-6.22336e-06
-1.38556e-05
3.85349e-06
-5.8049e-06
-1.6901e-05
4.50003e-06
-3.6062e-06
1.03691e-05
-2.0789e-06
-1.01899e-05
4.38287e-06
8.78425e-06
-2.72193e-06
2.60983e-05
6.31533e-05
-1.12318e-05
3.63051e-05
-2.34373e-06
-2.35542e-06
-9.59558e-06
-3.44238e-05
8.46887e-06
-1.61051e-05
-1.71518e-05
7.51729e-06
-2.05589e-05
-2.14928e-05
6.98819e-06
-1.90542e-05
-1.25288e-05
4.49543e-06
-1.72685e-05
-4.92106e-06
1.21195e-07
-1.20359e-05
-6.49548e-07
-3.08827e-06
-5.40635e-06
1.50861e-06
-5.01908e-06
-1.56727e-06
5.59874e-06
-4.766e-06
2.84765e-08
7.17468e-06
-4.67845e-06
7.92704e-07
8.47319e-06
-5.3961e-06
7.50896e-07
9.79511e-06
-5.00941e-06
-5.79482e-07
1.0926e-05
-3.05162e-06
-2.60423e-06
9.43398e-06
-5.89936e-07
-3.42161e-06
6.34295e-06
-1.58541e-06
-4.07098e-06
6.72063e-06
-4.87726e-06
-6.2572e-06
6.98693e-06
-4.48886e-06
-8.55023e-06
3.51918e-06
-9.77763e-07
-1.01678e-05
-8.44656e-07
3.54023e-06
-1.33649e-05
-1.81585e-06
5.72827e-06
-1.80827e-05
-1.7457e-06
6.72423e-06
-2.10625e-05
-2.80331e-06
6.89409e-06
-2.27967e-05
-4.76052e-06
6.33536e-06
-2.26376e-05
-6.67288e-06
3.43178e-06
-2.02168e-05
-7.92272e-06
-8.48284e-09
-1.55835e-05
-7.54827e-06
-3.45672e-06
-1.01408e-05
-5.45932e-06
-5.0451e-06
-5.36213e-06
-3.14367e-06
-5.17938e-06
-1.80911e-06
-5.70847e-07
-3.78753e-06
1.2617e-07
2.11359e-06
-2.69255e-06
1.44254e-06
1.53274e-06
-9.06095e-07
3.77842e-06
2.75335e-06
-1.37544e-06
7.34966e-06
4.1361e-06
-2.92163e-06
9.60085e-06
3.61179e-06
-1.83928e-06
9.04179e-06
3.11233e-06
6.86587e-07
5.83865e-06
3.92581e-06
2.31788e-06
4.0424e-06
3.68337e-06
-3.19181e-06
-4.07997e-06
-2.10335e-08
-2.12588e-06
-5.00729e-06
-8.10758e-07
-1.82706e-06
-3.5431e-06
5.66337e-08
-1.16342e-06
-3.56828e-06
-5.82698e-08
-7.66015e-07
-1.91249e-06
1.7585e-07
-3.97638e-07
-1.15809e-06
3.64016e-08
-2.59906e-07
-1.00159e-07
-1.58276e-07
-2.66269e-07
1.12132e-07
-1.73289e-07
-2.19289e-07
2.87988e-07
-2.14253e-07
-2.0211e-07
3.81495e-07
-2.05732e-07
-2.20806e-07
5.41661e-07
-2.12808e-07
-2.82472e-07
5.48747e-07
-2.19152e-07
-3.71253e-07
5.73386e-07
-2.26467e-07
-4.20411e-07
4.68904e-07
-2.49299e-07
-4.26281e-07
3.93653e-07
-2.66428e-07
-3.92346e-07
3.27568e-07
-2.94895e-07
-3.34379e-07
3.06346e-07
-3.20582e-07
-2.72398e-07
3.1801e-07
-3.43978e-07
-2.11069e-07
3.39639e-07
-3.61503e-07
-1.50726e-07
3.61061e-07
-3.74714e-07
-9.10281e-08
3.84546e-07
-3.83426e-07
-3.37575e-08
4.10046e-07
-3.87608e-07
1.66082e-08
4.38246e-07
-3.86879e-07
5.73981e-08
4.67665e-07
-3.8184e-07
8.76904e-08
4.96914e-07
-3.73794e-07
1.08976e-07
5.2212e-07
-3.64913e-07
1.23993e-07
5.41502e-07
-3.56285e-07
1.35067e-07
5.5648e-07
-3.48793e-07
1.43127e-07
5.70635e-07
-3.4236e-07
1.48921e-07
5.85521e-07
-3.36933e-07
1.5373e-07
5.98365e-07
-3.32224e-07
1.58785e-07
6.06205e-07
-3.28005e-07
1.64492e-07
6.08099e-07
-3.24026e-07
1.70057e-07
6.03023e-07
-3.19506e-07
1.70746e-07
5.92934e-07
-3.12908e-07
1.57039e-07
5.80672e-07
-3.02743e-07
1.16803e-07
5.67251e-07
-2.87482e-07
3.99346e-08
5.51129e-07
-2.67306e-07
-7.49986e-08
5.30011e-07
-2.43547e-07
-2.19622e-07
4.81997e-07
-2.15865e-07
-3.65794e-07
3.69082e-07
-1.87186e-07
-4.88491e-07
1.53986e-07
-1.61687e-07
-6.33707e-07
-1.8456e-07
-1.32908e-07
-9.42017e-07
-6.71484e-07
-8.41284e-08
-1.37504e-06
-1.48859e-06
-4.86227e-08
-1.40405e-06
-2.99652e-06
-2.63823e-07
2.89613e-07
-5.56505e-06
-1.22561e-06
2.86116e-06
-6.83262e-06
-1.2506e-06
2.35535e-06
-3.29182e-06
4.44789e-07
-5.30854e-06
-7.74189e-06
1.44803e-06
-1.40684e-05
-2.05669e-05
5.24071e-06
-1.83846e-05
-1.89939e-05
5.8795e-06
-1.80006e-05
1.87536e-06
-9.8383e-07
-1.38774e-05
9.38633e-06
-9.40489e-06
-1.24407e-05
1.05947e-05
-8.11352e-06
-1.27909e-05
1.11078e-05
-6.60339e-06
-1.5136e-05
7.39682e-06
-5.98507e-06
-2.6456e-05
2.91072e-05
-9.69452e-06
3.3678e-05
5.53977e-05
-2.20232e-05
3.88425e-05
-2.43585e-06
-1.99527e-06
-1.4244e-05
-2.46579e-05
6.31517e-06
-2.30532e-05
-1.53097e-05
6.34675e-06
-2.85595e-05
-1.91158e-05
3.10811e-06
-2.52641e-05
-1.56029e-05
-2.41615e-07
-1.77196e-05
-8.78651e-06
-3.69052e-06
-9.70337e-06
-2.71455e-06
-5.95787e-06
-3.73151e-06
2.41425e-06
-6.88239e-06
-4.17476e-07
8.18683e-06
-5.90417e-06
1.35634e-06
1.04057e-05
-5.00603e-06
3.56345e-06
1.23866e-05
-6.12237e-06
4.51967e-06
1.51701e-05
-6.33388e-06
2.38504e-06
1.65582e-05
-3.49782e-06
-1.54398e-06
1.46423e-05
-1.27569e-06
-5.81421e-06
1.3684e-05
-3.06955e-06
-8.78504e-06
1.24436e-05
-2.75141e-06
-1.19869e-05
1.02755e-05
-8.26556e-08
-1.62838e-05
1.73806e-06
6.08137e-06
-2.26552e-05
-3.34686e-06
8.87182e-06
-2.90895e-05
-2.97256e-06
7.58934e-06
-3.25945e-05
-4.84362e-06
6.60095e-06
-3.456e-05
-6.8165e-06
5.97612e-06
-3.41265e-05
-8.68604e-06
3.48927e-06
-3.12767e-05
-9.26608e-06
-2.60056e-07
-2.60181e-05
-8.96559e-06
-4.21971e-06
-1.95655e-05
-7.35965e-06
-6.64478e-06
-1.33435e-05
-4.8291e-06
-6.8539e-06
-8.30385e-06
-2.43971e-06
-5.7442e-06
-4.31878e-06
3.46935e-07
-4.90297e-06
-2.24318e-06
2.9991e-06
-2.96112e-06
-1.47792e-06
2.15549e-06
-1.38801e-06
9.13192e-07
2.49079e-06
-2.12855e-06
5.45622e-06
3.05205e-06
-3.45898e-06
8.46676e-06
2.80766e-06
-2.2064e-06
8.81023e-06
3.26341e-06
-4.94555e-07
5.87697e-06
4.81314e-06
2.04593e-06
7.02082e-06
2.89856e-06
-3.46535e-06
-3.86305e-06
2.77102e-07
-2.42354e-06
-5.19433e-06
-8.49132e-07
-2.13836e-06
-3.76483e-06
-5.3967e-08
-1.3344e-06
-3.97597e-06
-3.87652e-07
-8.76754e-07
-2.5618e-06
2.00783e-07
-4.04521e-07
-1.67191e-06
5.05469e-08
-1.90497e-07
-1.97542e-07
-1.07861e-07
-1.97745e-07
2.51879e-07
-1.27338e-07
-1.0881e-07
4.12518e-07
-2.09581e-07
-8.66992e-08
5.37212e-07
-1.75257e-07
-8.90806e-08
7.36131e-07
-1.90153e-07
-1.77343e-07
8.15672e-07
-1.77584e-07
-2.98082e-07
8.73732e-07
-1.78788e-07
-3.644e-07
7.35429e-07
-1.99738e-07
-3.65194e-07
6.23119e-07
-2.2819e-07
-3.23917e-07
5.49899e-07
-2.63192e-07
-2.68054e-07
5.44972e-07
-2.94079e-07
-2.22018e-07
5.89662e-07
-3.17265e-07
-1.85187e-07
6.3904e-07
-3.358e-07
-1.50534e-07
6.77419e-07
-3.50562e-07
-1.13724e-07
7.08789e-07
-3.60621e-07
-7.33203e-08
7.35537e-07
-3.65452e-07
-3.39717e-08
7.63255e-07
-3.63947e-07
1.06518e-09
7.90898e-07
-3.57845e-07
2.75671e-08
8.19449e-07
-3.48644e-07
4.75477e-08
8.39954e-07
-3.37398e-07
6.3658e-08
8.51446e-07
-3.25678e-07
7.79713e-08
8.5711e-07
-3.14536e-07
8.98834e-08
8.63028e-07
-3.03936e-07
9.76364e-08
8.72382e-07
-2.94198e-07
1.00595e-07
8.81568e-07
-2.85781e-07
9.94115e-08
8.86478e-07
-2.78658e-07
9.34042e-08
8.86277e-07
-2.71778e-07
8.10519e-08
8.79543e-07
-2.63716e-07
5.5506e-08
8.71148e-07
-2.52258e-07
5.27179e-09
8.663e-07
-2.34915e-07
-8.1723e-08
8.65168e-07
-2.10481e-07
-2.08864e-07
8.60436e-07
-1.81655e-07
-3.63127e-07
8.34525e-07
-1.49789e-07
-5.17763e-07
7.51609e-07
-1.14448e-07
-6.3835e-07
5.68661e-07
-7.84254e-08
-7.30327e-07
2.80333e-07
-3.31935e-08
-8.96506e-07
-2.353e-08
7.68453e-09
-1.30671e-06
-3.31334e-07
7.61108e-08
-2.01351e-06
-8.39117e-07
6.89816e-08
-2.4298e-06
-2.31024e-06
-2.41463e-07
-1.81768e-06
-5.06838e-06
-1.072e-06
8.45626e-09
-7.24375e-06
-1.36023e-06
1.99794e-06
-4.17756e-06
-9.01848e-07
-4.40163e-06
-2.25392e-06
1.10311e-06
-1.62007e-05
-1.46253e-05
6.03773e-06
-2.30347e-05
-2.02676e-05
8.12242e-06
-2.5635e-05
5.42951e-07
4.03226e-06
-2.36497e-05
1.27946e-05
-5.31722e-06
-2.36385e-05
1.71812e-05
-6.56068e-06
-2.69265e-05
2.03467e-05
-6.21186e-06
-3.76223e-05
2.21207e-05
-2.18695e-06
-3.27995e-05
3.17827e-05
-9.24669e-06
4.09622e-05
4.02175e-05
-2.78816e-05
4.0475e-05
-3.90424e-06
1.27846e-06
-1.86555e-05
-1.00462e-05
6.25516e-06
-3.33823e-05
-7.06284e-06
5.85994e-06
-3.99827e-05
-1.30534e-05
4.68849e-07
-3.96874e-05
-1.35327e-05
-2.44909e-06
-3.02114e-05
-1.28791e-05
-5.4683e-06
-1.93011e-05
-7.95365e-06
-5.74569e-06
-1.17241e-05
-5.08096e-07
-4.70367e-06
-7.31763e-06
5.98368e-06
-2.22464e-06
-3.87615e-06
9.29109e-06
-2.3355e-06
-7.09711e-07
1.24855e-05
-3.27225e-06
4.5807e-07
1.49071e-05
-8.91054e-07
-1.56539e-06
1.84503e-05
1.77589e-07
-5.17122e-06
1.95333e-05
-1.24189e-06
-8.4984e-06
1.8587e-05
-1.53976e-06
-1.15823e-05
1.5387e-05
1.68182e-07
-1.63851e-05
9.86147e-06
5.24488e-06
-2.60692e-05
2.32362e-06
9.11112e-06
-3.61116e-05
-1.83168e-06
8.51751e-06
-4.16121e-05
-4.43994e-06
6.94418e-06
-4.53584e-05
-7.75077e-06
6.6181e-06
-4.70481e-05
-9.0663e-06
3.90272e-06
-4.4648e-05
-1.0024e-05
-1.11621e-06
-4.0666e-05
-9.36714e-06
-3.94881e-06
-3.52863e-05
-8.96867e-06
-5.45004e-06
-2.85391e-05
-8.6267e-06
-5.54922e-06
-2.19774e-05
-7.7124e-06
-3.72437e-06
-1.56168e-05
-6.47049e-06
-2.35586e-06
-1.0284e-05
-3.73368e-06
-1.2642e-06
-5.91086e-06
-8.18927e-07
-5.58949e-07
-4.12869e-06
3.44342e-07
2.81967e-08
-1.67289e-06
1.85218e-06
-1.81782e-06
2.26717e-06
2.7359e-06
-3.62459e-06
6.05319e-06
3.02538e-06
-4.00419e-06
8.02256e-06
3.97881e-06
-2.68493e-06
5.32376e-06
6.64928e-06
8.62648e-07
9.7525e-06
2.59207e-06
-3.65091e-06
-3.43239e-06
6.10945e-07
-2.71328e-06
-5.06972e-06
-1.05902e-06
-2.46053e-06
-3.73622e-06
-2.73178e-07
-1.4457e-06
-4.05301e-06
-9.28634e-07
-8.29404e-07
-2.98294e-06
-1.85772e-07
-3.24451e-07
-1.99411e-06
-1.75416e-07
-1.53682e-07
-2.03002e-07
-1.56159e-07
-1.92212e-07
4.20452e-07
-1.228e-07
-6.5227e-08
5.34384e-07
-2.45007e-07
-3.27326e-08
6.89712e-07
-1.82692e-07
-1.67719e-08
9.08232e-07
-1.86237e-07
-9.45448e-08
1.03152e-06
-1.37273e-07
-1.9902e-07
1.1139e-06
-1.35238e-07
-2.49457e-07
9.54598e-07
-1.68839e-07
-2.43463e-07
8.38958e-07
-2.21905e-07
-2.09744e-07
7.7943e-07
-2.63448e-07
-1.73493e-07
8.01784e-07
-2.93212e-07
-1.52613e-07
8.75239e-07
-3.06673e-07
-1.46337e-07
9.47297e-07
-3.14732e-07
-1.45569e-07
9.97853e-07
-3.21461e-07
-1.44911e-07
1.03381e-06
-3.25928e-07
-1.3938e-07
1.0576e-06
-3.27881e-07
-1.29485e-07
1.07792e-06
-3.24822e-07
-1.17915e-07
1.09619e-06
-3.17149e-07
-1.10364e-07
1.1156e-06
-3.03966e-07
-1.04056e-07
1.12469e-06
-2.91316e-07
-9.42607e-08
1.1215e-06
-2.80062e-07
-8.07043e-08
1.11344e-06
-2.70107e-07
-6.67084e-08
1.10915e-06
-2.60288e-07
-5.79734e-08
1.11405e-06
-2.50597e-07
-5.75599e-08
1.12255e-06
-2.4155e-07
-6.67196e-08
1.12845e-06
-2.32997e-07
-8.79399e-08
1.1309e-06
-2.23529e-07
-1.21663e-07
1.12562e-06
-2.12495e-07
-1.72141e-07
1.11971e-06
-1.98151e-07
-2.46321e-07
1.11871e-06
-1.78288e-07
-3.47324e-07
1.1202e-06
-1.53986e-07
-4.67013e-07
1.11199e-06
-1.31815e-07
-5.85792e-07
1.06343e-06
-1.09971e-07
-6.78783e-07
9.33646e-07
-8.89211e-08
-7.39336e-07
6.97618e-07
-6.81694e-08
-7.92809e-07
3.77269e-07
-4.2751e-08
-9.35273e-07
1.29155e-07
-8.31897e-09
-1.36106e-06
3.4822e-08
6.48188e-08
-2.04167e-06
-1.55782e-07
1.01293e-08
-2.58085e-06
-1.41578e-06
-3.17858e-07
-2.49876e-06
-4.27084e-06
-8.20311e-07
-2.17185e-06
-6.82487e-06
-6.85447e-07
-1.72484e-06
-4.39977e-06
-1.16725e-07
-4.44524e-06
2.07029e-07
5.60082e-07
-1.67584e-05
-7.01686e-06
4.84476e-06
-3.43951e-05
-1.27108e-05
1.00254e-05
-4.23517e-05
-9.26909e-07
9.36529e-06
-4.58067e-05
1.21457e-05
4.15698e-06
-4.68282e-05
1.59103e-05
2.20698e-06
-4.54466e-05
1.6706e-05
2.25185e-06
-4.19971e-05
1.38978e-05
6.35062e-06
-2.87395e-05
1.97686e-05
-3.53589e-06
4.50855e-05
2.07434e-05
-2.10783e-05
3.7332e-05
-1.30504e-06
1.84661e-06
-2.59978e-05
8.2058e-06
7.52174e-06
-3.92784e-05
-7.24014e-07
6.53721e-06
-4.79103e-05
-6.38985e-06
1.89384e-06
-4.9563e-05
-1.01239e-05
-1.86444e-06
-4.52336e-05
-1.28774e-05
-4.45029e-06
-3.67119e-05
-1.16153e-05
-4.98933e-06
-2.81572e-05
-5.94756e-06
-3.21151e-06
-2.19378e-05
1.78317e-06
-2.05377e-06
-1.78086e-05
7.97452e-06
-2.81159e-06
-1.25638e-05
1.05832e-05
-3.33144e-06
-8.96141e-06
1.34012e-05
-2.05131e-06
-8.53613e-06
1.9325e-05
-1.20219e-06
-9.04685e-06
2.0653e-05
-4.99323e-07
-1.06502e-05
1.95039e-05
8.00595e-07
-1.52755e-05
1.5786e-05
4.32368e-06
-2.59354e-05
1.22296e-05
8.37745e-06
-3.9213e-05
5.6848e-06
9.97247e-06
-4.6722e-05
-1.15486e-06
6.82741e-06
-5.08067e-05
-6.33706e-06
5.94117e-06
-5.46628e-05
-8.34136e-06
4.39393e-06
-5.39072e-05
-9.48489e-06
-4.07067e-07
-5.22138e-05
-8.73758e-06
-3.10681e-06
-4.93709e-05
-7.78443e-06
-4.60698e-06
-4.52627e-05
-8.33754e-06
-4.96567e-06
-4.19462e-05
-8.98935e-06
-3.1715e-06
-3.86645e-05
-9.62809e-06
-1.53513e-06
-3.45751e-05
-9.87543e-06
-8.27544e-07
-2.96912e-05
-8.59923e-06
-1.32491e-07
-2.35898e-05
-6.58514e-06
-4.28294e-07
-1.73167e-05
-4.86126e-06
-1.16664e-06
-1.11576e-05
-2.4696e-06
-1.92876e-06
-5.16706e-06
-8.64812e-07
-2.47471e-06
2.00383e-07
2.31967e-07
-2.64703e-06
4.22741e-06
2.31076e-06
-2.41604e-06
3.59561e-06
8.31785e-06
-1.05864e-06
1.29044e-05
4.42424e-07
-3.60326e-06
-2.86732e-06
1.22276e-06
-3.04555e-06
-4.73487e-06
-8.9109e-07
-3.00469e-06
-3.56671e-06
-2.03441e-07
-1.89669e-06
-4.1173e-06
-1.03335e-06
-1.00191e-06
-3.43829e-06
-4.28023e-07
-2.40805e-07
-2.39935e-06
-3.48911e-07
-6.77042e-08
-1.9955e-07
-1.67474e-07
-1.10734e-07
5.44336e-07
-7.18692e-08
-2.97927e-08
7.84619e-07
-3.26197e-07
-6.18789e-08
9.37864e-07
-2.13338e-07
-1.59149e-08
1.10559e-06
-2.41032e-07
-1.69373e-08
1.24132e-06
-2.07917e-07
-7.7764e-09
1.33579e-06
-2.30338e-07
5.0165e-09
1.22931e-06
-2.87519e-07
1.07693e-08
1.18003e-06
-3.46484e-07
-1.30633e-08
1.18893e-06
-3.8553e-07
-5.30289e-08
1.25921e-06
-4.17247e-07
-9.8184e-08
1.35531e-06
-4.34752e-07
-1.44142e-07
1.44245e-06
-4.49004e-07
-1.91297e-07
1.50696e-06
-4.61771e-07
-2.33644e-07
1.54686e-06
-4.70539e-07
-2.60993e-07
1.5621e-06
-4.7702e-07
-2.76503e-07
1.57314e-06
-4.79643e-07
-2.82795e-07
1.58199e-06
-4.79476e-07
-2.80085e-07
1.58987e-06
-4.77038e-07
-2.72806e-07
1.59069e-06
-4.73383e-07
-2.62074e-07
1.58173e-06
-4.71138e-07
-2.46981e-07
1.5675e-06
-4.69339e-07
-2.31154e-07
1.55921e-06
-4.66111e-07
-2.23628e-07
1.56696e-06
-4.60631e-07
-2.29699e-07
1.58251e-06
-4.54087e-07
-2.50251e-07
1.5957e-06
-4.46854e-07
-2.87065e-07
1.60572e-06
-4.38157e-07
-3.38183e-07
1.60552e-06
-4.28893e-07
-4.07588e-07
1.60597e-06
-4.16969e-07
-4.9577e-07
1.60856e-06
-4.01739e-07
-5.91602e-07
1.60235e-06
-3.86415e-07
-6.83257e-07
1.57366e-06
-3.70065e-07
-7.56542e-07
1.50022e-06
-3.63546e-07
-7.93781e-07
1.34008e-06
-3.69148e-07
-8.03939e-07
1.0922e-06
-3.84282e-07
-8.32429e-07
7.92137e-07
-3.85816e-07
-9.54251e-07
6.24587e-07
-3.71941e-07
-1.33851e-06
7.49196e-07
-3.24693e-07
-1.99794e-06
9.6501e-07
-4.44292e-07
-2.50678e-06
-1.90598e-08
-8.32759e-07
-2.47519e-06
-3.00361e-06
-1.20513e-06
-2.64879e-06
-5.89148e-06
-6.51613e-07
-3.64184e-06
-3.15897e-06
-1.0278e-07
-6.49893e-06
3.66585e-06
-3.00602e-07
-1.92641e-05
2.49873e-06
3.3422e-06
-4.34543e-05
-7.58309e-07
1.22763e-05
-5.9116e-05
1.42291e-06
1.32629e-05
-6.62106e-05
7.1005e-06
1.20742e-05
-6.8639e-05
4.70457e-06
1.34453e-05
-6.69986e-05
-3.2579e-08
1.52306e-05
-6.3316e-05
-7.19893e-06
1.95884e-05
-4.49181e-05
-6.58871e-06
5.32446e-06
4.84706e-05
-1.18976e-05
-2.22887e-05
4.18674e-05
1.67457e-06
-6.25807e-07
-3.40797e-05
2.59359e-05
1.58112e-05
-4.48442e-05
1.01818e-06
8.41227e-06
-5.66621e-05
1.50417e-07
5.31118e-06
-5.77627e-05
-4.40754e-06
-4.62464e-06
-5.59604e-05
-3.40991e-06
-1.13805e-05
-5.04096e-05
-4.07558e-06
-1.31921e-05
-4.3547e-05
-4.2505e-06
-8.65567e-06
-3.41635e-05
-3.43392e-06
-4.22468e-06
-2.70957e-05
2.6616e-06
-1.75369e-06
-2.20367e-05
8.07478e-06
-2.51471e-06
-1.77589e-05
1.0907e-05
-1.76978e-06
-1.54241e-05
1.61881e-05
8.61745e-07
-1.58209e-05
1.8635e-05
2.47505e-06
-2.05121e-05
1.79409e-05
6.31659e-06
-3.19208e-05
1.68035e-05
1.04783e-05
-4.69822e-05
1.43196e-05
1.30731e-05
-5.25431e-05
4.04851e-06
7.24301e-06
-5.52244e-05
-2.28581e-06
3.8458e-06
-5.85227e-05
-5.64388e-06
2.65818e-06
-5.99403e-05
-6.11397e-06
-7.57679e-07
-6.01197e-05
-5.16359e-06
-4.14184e-06
-5.90425e-05
-4.01686e-06
-5.89938e-06
-5.66094e-05
-3.87438e-06
-6.49662e-06
-5.48956e-05
-6.25675e-06
-3.91932e-06
-5.38749e-05
-8.74339e-06
-1.26551e-06
-5.31418e-05
-1.01186e-05
-1.78379e-07
-5.25716e-05
-1.02606e-05
-8.52528e-08
-5.1689e-05
-8.42929e-06
-9.70004e-07
-4.94275e-05
-6.77885e-06
-2.04374e-06
-4.50368e-05
-5.60785e-06
-3.80449e-06
-3.85976e-05
-4.8012e-06
-4.41406e-06
-3.10249e-05
-4.43288e-06
-4.44581e-06
-2.33926e-05
-3.76483e-06
-4.15493e-06
-1.54282e-05
-1.74014e-06
-4.56253e-06
-6.2541e-06
2.95376e-06
-4.70425e-06
7.93824e-06
-2.93298e-06
-3.20122e-06
-1.70094e-06
2.18266e-06
-3.26883e-06
-4.40357e-06
-2.66229e-07
-3.68135e-06
-3.3196e-06
1.71043e-07
-2.60506e-06
-4.26311e-06
-9.19843e-07
-1.48002e-06
-3.9593e-06
-5.90524e-07
-2.50952e-07
-3.0642e-06
-5.55201e-07
7.86485e-08
-7.13505e-07
1.91948e-07
-3.15713e-08
3.03456e-07
3.59783e-07
-1.36392e-08
7.93508e-07
-1.9991e-08
-9.25993e-08
9.30682e-07
8.91791e-08
9.7119e-09
1.01996e-06
-1.38606e-08