/*--------------------------------*- C++ -*----------------------------------*\
| =========                 |                                                 |
| \\      /  F ield         | OpenFOAM: The Open Source CFD Toolbox           |
|  \\    /   O peration     | Version:  2.3.0                                 |
|   \\  /    A nd           | Web:      www.OpenFOAM.org                      |
|    \\/     M anipulation  |                                                 |
\*---------------------------------------------------------------------------*/
FoamFile
{
    version     2.0;
    format      ascii;
    class       volScalarField;
    location    "42";
    object      rho;
}
// * * * * * * * * * * * * * * * * * * * * * * * * * * * * * * * * * * * * * //

dimensions      [1 -3 0 0 0 0 0];

internalField   nonuniform List<scalar> 
6144
(
1.16272
1.16344
1.1639
1.16441
1.16508
1.16629
1.1672
1.16799
1.16858
1.16883
1.16887
1.16888
1.16889
1.16889
1.16889
1.1689
1.1689
1.1689
1.1689
1.1689
1.1689
1.16891
1.16891
1.16891
1.16891
1.16891
1.16891
1.16891
1.16891
1.16892
1.16892
1.16892
1.16892
1.16892
1.16892
1.16892
1.16892
1.16892
1.16892
1.16892
1.16893
1.16893
1.16896
1.16958
1.17154
1.17453
1.17982
1.20307
1.24819
1.28325
1.28308
1.28236
1.28263
1.28406
1.28268
1.28533
1.28141
1.2922
2.5434
75.18
990.677
1026.93
1027.1
1027.1
1027.1
1027.1
1027.1
1027.1
1027.1
1027.1
1027.1
1027.1
1027.1
1027.1
1027.1
1027.1
1027.1
1027.1
1027.1
1027.1
1027.1
1027.1
1027.1
1027.1
1027.1
1027.1
1027.1
1027.1
1027.1
1027.1
1027.1
1027.1
1027.1
1027.1
1027.1
1027.1
1.16242
1.16346
1.16425
1.16484
1.16568
1.16652
1.1673
1.16804
1.16859
1.16881
1.16887
1.16888
1.16889
1.1689
1.1689
1.16891
1.16891
1.16891
1.16891
1.16891
1.16891
1.16891
1.16891
1.16892
1.16892
1.16892
1.16892
1.16892
1.16892
1.16892
1.16893
1.16893
1.16893
1.16893
1.16893
1.16893
1.16893
1.16893
1.16893
1.16894
1.16894
1.16894
1.16901
1.16974
1.17163
1.17462
1.17901
1.18747
1.22678
1.27877
1.27902
1.27685
1.27829
1.28069
1.27684
1.28194
1.27637
1.3044
2.00001
72.6444
1004.47
1027.08
1027.1
1027.09
1027.1
1027.1
1027.1
1027.1
1027.1
1027.1
1027.1
1027.1
1027.1
1027.1
1027.1
1027.1
1027.1
1027.1
1027.1
1027.1
1027.1
1027.1
1027.1
1027.1
1027.1
1027.1
1027.1
1027.1
1027.1
1027.1
1027.1
1027.1
1027.1
1027.1
1027.1
1027.1
1.16216
1.16302
1.16415
1.16489
1.16587
1.16663
1.16735
1.16797
1.16841
1.16867
1.16878
1.16884
1.16887
1.16889
1.1689
1.1689
1.16891
1.16891
1.16891
1.16891
1.16891
1.16891
1.16891
1.16892
1.16892
1.16892
1.16892
1.16892
1.16892
1.16892
1.16893
1.16893
1.16893
1.16893
1.16893
1.16893
1.16893
1.16893
1.16893
1.16893
1.16894
1.16895
1.16907
1.16986
1.17141
1.17353
1.17613
1.18074
1.21447
1.27454
1.27752
1.27513
1.27776
1.28051
1.27681
1.28008
1.27052
1.30469
1.69226
82.1681
1009.97
1027.09
1027.09
1027.1
1027.1
1027.1
1027.1
1027.1
1027.1
1027.1
1027.1
1027.1
1027.1
1027.1
1027.1
1027.1
1027.1
1027.1
1027.1
1027.1
1027.1
1027.1
1027.1
1027.1
1027.1
1027.1
1027.1
1027.1
1027.1
1027.1
1027.1
1027.1
1027.1
1027.1
1027.1
1027.1
1.16204
1.16261
1.1638
1.16453
1.16565
1.16651
1.16727
1.16785
1.1683
1.16858
1.16873
1.16882
1.16886
1.16888
1.16889
1.1689
1.1689
1.1689
1.16891
1.16891
1.16891
1.16891
1.16891
1.16891
1.16891
1.16891
1.16891
1.16892
1.16892
1.16892
1.16892
1.16892
1.16892
1.16892
1.16893
1.16893
1.16893
1.16893
1.16893
1.16893
1.16894
1.16895
1.1691
1.16972
1.17088
1.17245
1.17415
1.17656
1.20728
1.26925
1.27627
1.27371
1.27426
1.27503
1.27164
1.27063
1.26767
1.28236
1.34868
133.948
1023.67
1027.07
1027.08
1027.09
1027.09
1027.09
1027.09
1027.09
1027.09
1027.09
1027.09
1027.09
1027.09
1027.09
1027.09
1027.1
1027.1
1027.1
1027.1
1027.1
1027.1
1027.1
1027.1
1027.1
1027.1
1027.1
1027.1
1027.1
1027.1
1027.1
1027.1
1027.1
1027.1
1027.1
1027.1
1027.1
1.16198
1.16226
1.16346
1.16416
1.16524
1.16611
1.16714
1.16773
1.16819
1.1685
1.16869
1.1688
1.16886
1.16889
1.1689
1.1689
1.16891
1.16891
1.16891
1.16891
1.16891
1.16891
1.16891
1.16892
1.16892
1.16892
1.16892
1.16892
1.16892
1.16892
1.16892
1.16892
1.16893
1.16893
1.16893
1.16893
1.16893
1.16893
1.16893
1.16893
1.16894
1.16896
1.16912
1.16962
1.17057
1.17207
1.1743
1.17659
1.19225
1.25513
1.27505
1.27277
1.27153
1.27159
1.26905
1.27062
1.274
1.28421
1.27554
187.618
1016.23
1026.48
1026.62
1026.8
1026.88
1026.91
1026.92
1026.92
1026.91
1026.91
1026.91
1026.9
1026.89
1026.87
1026.88
1026.9
1026.91
1026.93
1026.94
1026.96
1026.98
1027
1027.02
1027.05
1027.08
1027.09
1027.1
1027.1
1027.1
1027.1
1027.1
1027.1
1027.1
1027.1
1027.1
1027.1
1.16194
1.16203
1.16311
1.16376
1.16488
1.16564
1.16683
1.16759
1.16806
1.16841
1.16864
1.16878
1.16885
1.16888
1.16889
1.1689
1.1689
1.1689
1.1689
1.1689
1.16891
1.16891
1.16891
1.16891
1.16891
1.16891
1.16891
1.16892
1.16892
1.16892
1.16892
1.16892
1.16892
1.16892
1.16892
1.16892
1.16892
1.16893
1.16893
1.16893
1.16893
1.16896
1.16909
1.16948
1.17033
1.1721
1.17573
1.18078
1.18951
1.23804
1.27287
1.27379
1.26923
1.26906
1.26973
1.27529
1.28128
1.28437
1.27554
244.791
1014.11
1023.37
1023.61
1024.29
1024.87
1025.39
1025.69
1025.79
1025.74
1025.65
1025.54
1025.12
1024.7
1024.4
1024.17
1024.01
1023.95
1024.01
1024.08
1024.35
1024.61
1024.93
1025.36
1025.89
1026.4
1026.77
1026.97
1027.06
1027.09
1027.09
1027.09
1027.1
1027.1
1027.1
1027.1
1027.1
1.16189
1.16195
1.1628
1.16338
1.16461
1.16534
1.16633
1.16741
1.16796
1.16834
1.16859
1.16877
1.16885
1.16888
1.16889
1.1689
1.1689
1.16891
1.16891
1.16891
1.16891
1.16891
1.16891
1.16891
1.16891
1.16891
1.16892
1.16892
1.16892
1.16892
1.16892
1.16892
1.16892
1.16892
1.16892
1.16892
1.16893
1.16893
1.16893
1.16893
1.16893
1.16896
1.16905
1.16933
1.17012
1.17225
1.17782
1.18711
1.1952
1.21946
1.27175
1.27876
1.27369
1.27304
1.27719
1.28055
1.28192
1.28396
1.27554
295.832
1011.66
1017.48
1017.48
1018.12
1018.97
1020.07
1020.87
1021.11
1021
1020.84
1020.49
1019.66
1018.65
1017.54
1016.55
1015.83
1015.51
1015.44
1015.59
1016
1016.28
1016.94
1018.09
1019.5
1021.02
1022.23
1023.2
1024.03
1024.61
1025.24
1025.85
1026.35
1026.73
1026.97
1027.09
1027.1
1.16176
1.16197
1.16256
1.16303
1.16436
1.16519
1.16596
1.1672
1.16788
1.16831
1.16857
1.16876
1.16885
1.16888
1.16889
1.1689
1.1689
1.16891
1.16891
1.16891
1.16891
1.16891
1.16891
1.16892
1.16892
1.16892
1.16892
1.16892
1.16892
1.16892
1.16892
1.16893
1.16893
1.16893
1.16893
1.16893
1.16893
1.16893
1.16893
1.16894
1.16894
1.16896
1.16903
1.16927
1.17006
1.17259
1.18033
1.19333
1.20766
1.22805
1.27095
1.29062
1.28602
1.28263
1.28224
1.28126
1.28094
1.28201
1.27554
290.801
1005.13
1013.17
1012.67
1012.61
1013.34
1013.98
1014.88
1015.29
1015.31
1014.89
1014.68
1014.11
1013.41
1012.75
1012.06
1011.51
1011.08
1010.7
1010.29
1009.8
1009.52
1009.66
1010.29
1010.99
1011.21
1011.05
1010.63
1010.21
1009.91
1010.16
1011.2
1012.95
1015.16
1017.59
1020.66
1023.85
1.16154
1.1619
1.16227
1.16265
1.16399
1.16504
1.16593
1.16689
1.16779
1.16826
1.16854
1.16874
1.16883
1.16887
1.16888
1.1689
1.1689
1.1689
1.1689
1.1689
1.1689
1.16891
1.16891
1.16891
1.16891
1.16891
1.16891
1.16892
1.16892
1.16892
1.16892
1.16892
1.16892
1.16892
1.16892
1.16893
1.16893
1.16893
1.16893
1.16893
1.16894
1.16895
1.16901
1.16926
1.17013
1.17359
1.18361
1.19712
1.21262
1.23778
1.28836
1.32651
1.3219
1.30302
1.29465
1.28818
1.28321
1.28056
1.27554
162.209
1007.96
1020.22
1019.63
1019.53
1019.4
1019.15
1018.98
1018.86
1018.84
1019.08
1019.45
1020.17
1021.24
1022.53
1023.85
1025.12
1026.03
1026.24
1026.11
1026.03
1026
1025.98
1025.97
1025.93
1025.86
1025.82
1025.81
1025.86
1025.95
1026.09
1026.29
1026.49
1026.69
1026.91
1027.04
1027.1
1.16131
1.16155
1.16187
1.16221
1.16345
1.16477
1.1662
1.16668
1.16767
1.16826
1.16854
1.16873
1.16883
1.16887
1.16889
1.1689
1.1689
1.16891
1.16891
1.16891
1.16891
1.16891
1.16891
1.16891
1.16892
1.16892
1.16892
1.16892
1.16892
1.16892
1.16892
1.16892
1.16892
1.16893
1.16893
1.16893
1.16893
1.16893
1.16893
1.16893
1.16894
1.16895
1.169
1.1693
1.17047
1.17484
1.185
1.19796
1.21101
1.23174
1.27111
1.31678
1.31899
1.31301
1.30873
1.29809
1.29051
1.2879
1.27554
119.724
1016.31
1025.31
1025.21
1025.25
1025.26
1025.28
1025.31
1025.33
1025.45
1025.74
1026.07
1026.43
1026.73
1026.95
1027.05
1027.09
1027.1
1027.1
1027.1
1027.1
1027.1
1027.1
1027.1
1027.1
1027.1
1027.1
1027.1
1027.1
1027.1
1027.1
1027.1
1027.1
1027.1
1027.1
1027.1
1027.1
1.16109
1.1613
1.16146
1.16177
1.16291
1.16428
1.16602
1.16673
1.16768
1.16829
1.16856
1.16872
1.16881
1.16886
1.16888
1.16889
1.1689
1.1689
1.1689
1.1689
1.16891
1.16891
1.16891
1.16891
1.16891
1.16892
1.16892
1.16892
1.16892
1.16892
1.16892
1.16892
1.16892
1.16893
1.16893
1.16893
1.16893
1.16893
1.16893
1.16893
1.16894
1.16895
1.169
1.16934
1.17075
1.17543
1.18544
1.19943
1.21174
1.22217
1.24669
1.28754
1.30525
1.30137
1.29076
1.28779
1.28684
1.29606
1.27554
120.278
1023.47
1026.95
1026.95
1026.97
1026.98
1027
1027.01
1027.03
1027.05
1027.07
1027.08
1027.09
1027.09
1027.1
1027.1
1027.1
1027.1
1027.1
1027.1
1027.1
1027.1
1027.1
1027.1
1027.1
1027.1
1027.1
1027.1
1027.1
1027.1
1027.1
1027.1
1027.1
1027.1
1027.1
1027.1
1027.1
1.16102
1.16114
1.16111
1.16128
1.16223
1.1636
1.16555
1.16712
1.16776
1.16838
1.16863
1.16873
1.16878
1.16883
1.16886
1.16889
1.1689
1.1689
1.1689
1.16891
1.16891
1.16891
1.16891
1.16891
1.16891
1.16892
1.16892
1.16892
1.16892
1.16892
1.16892
1.16893
1.16893
1.16893
1.16893
1.16893
1.16893
1.16893
1.16894
1.16894
1.16894
1.16895
1.16901
1.16939
1.17087
1.17563
1.1862
1.20096
1.21561
1.22431
1.23374
1.25556
1.28015
1.28988
1.28927
1.29139
1.28484
1.28997
1.27554
66.1278
1022.22
1027.09
1027.09
1027.09
1027.09
1027.09
1027.09
1027.1
1027.1
1027.1
1027.1
1027.1
1027.1
1027.1
1027.1
1027.1
1027.1
1027.1
1027.1
1027.1
1027.1
1027.1
1027.1
1027.1
1027.1
1027.1
1027.1
1027.1
1027.1
1027.1
1027.1
1027.1
1027.1
1027.1
1027.1
1027.1
1.16088
1.16111
1.16103
1.16102
1.16155
1.16272
1.16458
1.16658
1.16781
1.16842
1.16866
1.16876
1.1688
1.16883
1.16887
1.1689
1.1689
1.16891
1.16891
1.16891
1.16891
1.16891
1.16891
1.16892
1.16892
1.16892
1.16892
1.16892
1.16892
1.16893
1.16893
1.16893
1.16893
1.16893
1.16893
1.16893
1.16893
1.16894
1.16894
1.16894
1.16895
1.16896
1.16902
1.16941
1.17085
1.1753
1.18612
1.20245
1.21924
1.2286
1.23339
1.24186
1.25824
1.27387
1.28321
1.28989
1.28547
1.29862
1.37128
23.9005
1001.02
1027.06
1027.09
1027.09
1027.09
1027.1
1027.1
1027.1
1027.1
1027.1
1027.1
1027.1
1027.1
1027.1
1027.1
1027.1
1027.1
1027.1
1027.1
1027.1
1027.1
1027.1
1027.1
1027.1
1027.1
1027.1
1027.1
1027.1
1027.1
1027.1
1027.1
1027.1
1027.1
1027.1
1027.1
1027.1
1.16098
1.16147
1.16132
1.16126
1.16118
1.16208
1.16345
1.16551
1.16778
1.16843
1.16864
1.16874
1.16878
1.16882
1.16886
1.1689
1.16891
1.16891
1.16891
1.16891
1.16892
1.16892
1.16892
1.16892
1.16892
1.16892
1.16892
1.16893
1.16893
1.16893
1.16893
1.16893
1.16893
1.16893
1.16893
1.16893
1.16894
1.16894
1.16894
1.16894
1.16895
1.16896
1.16902
1.16942
1.17085
1.17483
1.18503
1.20136
1.22066
1.23572
1.24213
1.2455
1.25115
1.26129
1.27355
1.28698
1.29205
1.34111
1.53125
19.489
944.104
1026.55
1027.09
1027.09
1027.1
1027.1
1027.1
1027.1
1027.1
1027.1
1027.1
1027.1
1027.1
1027.1
1027.1
1027.1
1027.1
1027.1
1027.1
1027.1
1027.1
1027.1
1027.1
1027.1
1027.1
1027.1
1027.1
1027.1
1027.1
1027.1
1027.1
1027.1
1027.1
1027.1
1027.1
1027.1
1.16106
1.16173
1.16165
1.16176
1.16183
1.16183
1.16282
1.16462
1.16744
1.1684
1.16861
1.16871
1.16875
1.1688
1.16884
1.1689
1.16891
1.16891
1.16891
1.16891
1.16891
1.16892
1.16892
1.16892
1.16892
1.16892
1.16892
1.16892
1.16892
1.16893
1.16893
1.16893
1.16893
1.16893
1.16893
1.16893
1.16893
1.16894
1.16894
1.16894
1.16894
1.16895
1.16902
1.1694
1.17084
1.17458
1.18347
1.20025
1.22326
1.2412
1.24766
1.24934
1.25098
1.25747
1.26698
1.28313
1.35533
1.39705
1.35718
92.9206
1015.3
1027.05
1027.09
1027.1
1027.1
1027.1
1027.1
1027.1
1027.1
1027.1
1027.1
1027.1
1027.1
1027.1
1027.1
1027.1
1027.1
1027.1
1027.1
1027.1
1027.1
1027.1
1027.1
1027.1
1027.1
1027.1
1027.1
1027.1
1027.1
1027.1
1027.1
1027.1
1027.1
1027.1
1027.1
1027.1
1.16066
1.16063
1.16069
1.16154
1.16266
1.16253
1.16294
1.16453
1.16751
1.16843
1.16859
1.16867
1.16872
1.16877
1.16884
1.16891
1.16892
1.16892
1.16892
1.16892
1.16892
1.16892
1.16892
1.16893
1.16893
1.16893
1.16893
1.16893
1.16893
1.16893
1.16893
1.16894
1.16894
1.16894
1.16894
1.16894
1.16894
1.16894
1.16894
1.16895
1.16895
1.16896
1.16901
1.16933
1.17059
1.17392
1.18087
1.19347
1.21631
1.24014
1.25277
1.25754
1.26022
1.26546
1.26862
1.28329
1.28861
1.3397
1.33905
57.684
1002.53
1027.09
1027.09
1027.1
1027.1
1027.1
1027.1
1027.1
1027.1
1027.1
1027.1
1027.1
1027.1
1027.1
1027.1
1027.1
1027.1
1027.1
1027.1
1027.1
1027.1
1027.1
1027.1
1027.1
1027.1
1027.1
1027.1
1027.1
1027.1
1027.1
1027.1
1027.1
1027.1
1027.1
1027.1
1027.1
1.16232
1.16337
1.16391
1.1644
1.16508
1.16646
1.16745
1.16817
1.16861
1.16876
1.16881
1.16885
1.16888
1.1689
1.16892
1.16892
1.16892
1.16892
1.16892
1.16892
1.16893
1.16893
1.16893
1.16893
1.16893
1.16893
1.16893
1.16893
1.16894
1.16894
1.16894
1.16894
1.16894
1.16894
1.16894
1.16895
1.16895
1.16895
1.16895
1.16895
1.16895
1.16896
1.16899
1.16952
1.17148
1.17478
1.18075
1.20628
1.24903
1.28235
1.28462
1.28368
1.28329
1.28413
1.28377
1.28516
1.2834
1.28998
2.49242
69.5123
987.598
1026.89
1027.09
1027.1
1027.1
1027.1
1027.1
1027.1
1027.1
1027.1
1027.1
1027.1
1027.1
1027.1
1027.1
1027.1
1027.1
1027.1
1027.1
1027.1
1027.1
1027.1
1027.1
1027.1
1027.1
1027.1
1027.1
1027.1
1027.1
1027.1
1027.1
1027.1
1027.1
1027.1
1027.1
1027.1
1.16162
1.16331
1.16452
1.16513
1.16596
1.16684
1.16755
1.16803
1.16832
1.16851
1.16866
1.16878
1.16885
1.16888
1.1689
1.16891
1.16892
1.16892
1.16892
1.16892
1.16892
1.16892
1.16893
1.16893
1.16893
1.16893
1.16893
1.16893
1.16893
1.16893
1.16894
1.16894
1.16894
1.16894
1.16894
1.16894
1.16894
1.16894
1.16894
1.16895
1.16895
1.16897
1.16905
1.16949
1.17095
1.17418
1.18134
1.19273
1.22666
1.27512
1.28088
1.2776
1.27739
1.2784
1.27923
1.28248
1.28024
1.3017
1.955
72.4988
1014.65
1027.09
1027.1
1027.1
1027.1
1027.1
1027.1
1027.1
1027.1
1027.1
1027.1
1027.1
1027.1
1027.1
1027.1
1027.1
1027.1
1027.1
1027.1
1027.1
1027.1
1027.1
1027.1
1027.1
1027.1
1027.1
1027.1
1027.1
1027.1
1027.1
1027.1
1027.1
1027.1
1027.1
1027.1
1027.1
1.16119
1.16247
1.16434
1.16512
1.16584
1.16647
1.16713
1.16763
1.16806
1.16836
1.16858
1.16874
1.16883
1.16887
1.1689
1.16891
1.16891
1.16892
1.16892
1.16892
1.16892
1.16892
1.16892
1.16892
1.16892
1.16893
1.16893
1.16893
1.16893
1.16893
1.16893
1.16893
1.16893
1.16894
1.16894
1.16894
1.16894
1.16894
1.16894
1.16894
1.16895
1.16897
1.16905
1.16943
1.17042
1.17264
1.17869
1.18438
1.21356
1.2699
1.27918
1.27574
1.27597
1.2785
1.27945
1.28211
1.27828
1.29509
1.55324
75.7112
1022.7
1027.09
1027.09
1027.1
1027.1
1027.1
1027.1
1027.1
1027.1
1027.1
1027.1
1027.1
1027.1
1027.1
1027.1
1027.1
1027.1
1027.1
1027.1
1027.1
1027.1
1027.1
1027.1
1027.1
1027.1
1027.1
1027.1
1027.1
1027.1
1027.1
1027.1
1027.1
1027.1
1027.1
1027.1
1027.1
1.16098
1.16165
1.16349
1.16439
1.16521
1.16601
1.16678
1.16739
1.16793
1.1683
1.16854
1.16873
1.16883
1.16887
1.16889
1.16891
1.16891
1.16891
1.16891
1.16891
1.16892
1.16892
1.16892
1.16892
1.16892
1.16892
1.16892
1.16893
1.16893
1.16893
1.16893
1.16893
1.16893
1.16893
1.16893
1.16893
1.16893
1.16894
1.16894
1.16894
1.16895
1.16896
1.16903
1.16935
1.17024
1.17244
1.17767
1.18037
1.20722
1.26903
1.27776
1.27478
1.27369
1.27531
1.27425
1.27536
1.26881
1.28441
1.37416
126.433
1025.37
1027.06
1027.07
1027.08
1027.08
1027.08
1027.08
1027.08
1027.07
1027.07
1027.07
1027.06
1027.06
1027.06
1027.06
1027.06
1027.07
1027.07
1027.07
1027.07
1027.07
1027.07
1027.08
1027.09
1027.09
1027.1
1027.1
1027.1
1027.1
1027.1
1027.1
1027.1
1027.1
1027.1
1027.1
1027.1
1.16087
1.16108
1.16284
1.16391
1.16477
1.16568
1.16656
1.16725
1.16785
1.16827
1.16853
1.16872
1.16882
1.16887
1.16889
1.16891
1.16891
1.16891
1.16891
1.16891
1.16891
1.16892
1.16892
1.16892
1.16892
1.16892
1.16892
1.16892
1.16892
1.16893
1.16893
1.16893
1.16893
1.16893
1.16893
1.16893
1.16893
1.16893
1.16894
1.16894
1.16895
1.16896
1.16904
1.16938
1.17045
1.17305
1.17808
1.18309
1.20388
1.26945
1.27664
1.27433
1.27131
1.27184
1.26674
1.2649
1.27621
1.29884
1.29849
212.014
1019.03
1025.33
1025.69
1026.2
1026.36
1026.44
1026.49
1026.5
1026.4
1026.29
1026.12
1025.89
1025.72
1025.65
1025.63
1025.59
1025.57
1025.44
1025.29
1025.2
1025.24
1025.51
1025.92
1026.34
1026.65
1026.86
1026.99
1027.07
1027.09
1027.1
1027.1
1027.1
1027.1
1027.1
1027.1
1027.1
1.1608
1.16069
1.16217
1.16346
1.1644
1.16544
1.16643
1.16717
1.16781
1.16825
1.16852
1.16872
1.16882
1.16887
1.16889
1.16891
1.16891
1.16891
1.16891
1.16891
1.16891
1.16891
1.16892
1.16892
1.16892
1.16892
1.16892
1.16892
1.16892
1.16893
1.16893
1.16893
1.16893
1.16893
1.16893
1.16893
1.16893
1.16893
1.16894
1.16894
1.16894
1.16896
1.16904
1.16942
1.17069
1.17376
1.17888
1.18406
1.21222
1.2724
1.27581
1.27406
1.26891
1.2687
1.26516
1.26517
1.27879
1.29792
1.27554
329.455
1006.55
1014.08
1014.65
1016.35
1017.66
1018.6
1019.2
1019.26
1018.61
1017.89
1017.07
1016.35
1015.52
1014.73
1014.21
1013.64
1012.57
1011.31
1010.41
1010.05
1010.29
1011.49
1013.33
1014.89
1016.63
1018.67
1021.08
1023.28
1025.04
1026.15
1026.68
1026.89
1027.01
1027.08
1027.1
1027.1
1.16074
1.16044
1.16152
1.16288
1.16407
1.16523
1.16633
1.16711
1.16778
1.16825
1.16852
1.16872
1.16882
1.16887
1.16888
1.1689
1.16891
1.16891
1.16891
1.16891
1.16891
1.16891
1.16892
1.16892
1.16892
1.16892
1.16892
1.16892
1.16892
1.16892
1.16893
1.16893
1.16893
1.16893
1.16893
1.16893
1.16893
1.16893
1.16894
1.16894
1.16894
1.16896
1.16904
1.16944
1.17079
1.17416
1.17955
1.18489
1.21904
1.27307
1.27618
1.27586
1.2682
1.26616
1.26626
1.27305
1.28273
1.29319
1.27652
365.315
994.838
1002.59
1002.17
1002.08
1002.13
1002.16
1001.86
1001.45
1001.19
1000.71
1000.33
1000.03
999.772
999.481
998.289
996.584
994.218
991.927
990.3
988.834
987.999
987.776
984.569
981.774
979.8
979.159
982.028
984.809
988.431
992.225
996.674
1001.55
1007.67
1015.03
1022.87
1026.52
1.16071
1.16029
1.16098
1.16214
1.16363
1.16497
1.16624
1.16707
1.16777
1.16825
1.16852
1.16872
1.16882
1.16887
1.16888
1.1689
1.16891
1.16891
1.16891
1.16891
1.16891
1.16891
1.16892
1.16892
1.16892
1.16892
1.16892
1.16892
1.16892
1.16893
1.16893
1.16893
1.16893
1.16893
1.16893
1.16893
1.16893
1.16893
1.16893
1.16894
1.16894
1.16896
1.16904
1.16944
1.17082
1.17447
1.18061
1.18918
1.22902
1.28185
1.28288
1.28703
1.27998
1.2777
1.27935
1.28073
1.28092
1.28282
1.27554
213.486
987.877
1005.18
1003.27
1002.87
1002.08
1000.72
999.429
998.414
997.633
997.294
997.057
996.833
996.86
996.302
994.578
992.824
990.669
989.037
987.241
984.787
982.153
977.538
971.501
964.68
959.275
955.196
950.878
944.518
935.866
924.798
911.612
897.839
883.741
863.097
812.705
605.526
1.16064
1.16018
1.16055
1.16136
1.1629
1.16451
1.16609
1.16702
1.16776
1.16826
1.16853
1.16873
1.16883
1.16887
1.16888
1.16891
1.16891
1.16891
1.16891
1.16891
1.16891
1.16892
1.16892
1.16892
1.16892
1.16892
1.16892
1.16892
1.16893
1.16893
1.16893
1.16893
1.16893
1.16893
1.16893
1.16893
1.16893
1.16894
1.16894
1.16894
1.16895
1.16896
1.16903
1.1694
1.17077
1.1745
1.18114
1.19215
1.21848
1.28415
1.29705
1.32335
1.32288
1.30702
1.29931
1.29435
1.29185
1.29325
1.27554
116.67
1002.99
1021.55
1020.81
1020.59
1020.48
1021.23
1021.71
1022.22
1022.39
1022.06
1021.87
1021.97
1022.27
1022.81
1023.75
1024.63
1024.93
1024.47
1024.25
1024.32
1024.41
1024.06
1024
1024.82
1024.63
1024.37
1023.91
1023.3
1022.82
1022.8
1024.63
1026.18
1026.42
1025.92
1025.47
1024.9
1.16054
1.16011
1.16024
1.16066
1.16189
1.16375
1.16585
1.16698
1.16777
1.16828
1.16854
1.16874
1.16883
1.16887
1.16889
1.16891
1.16891
1.16891
1.16891
1.16891
1.16892
1.16892
1.16892
1.16892
1.16892
1.16892
1.16892
1.16893
1.16893
1.16893
1.16893
1.16893
1.16893
1.16893
1.16893
1.16893
1.16894
1.16894
1.16894
1.16894
1.16895
1.16896
1.16903
1.16936
1.17062
1.17408
1.18101
1.19216
1.2073
1.24582
1.28064
1.30974
1.31737
1.30406
1.29648
1.29641
1.29819
1.30541
1.29671
101.785
1018.62
1026.45
1026.48
1026.52
1026.57
1026.71
1026.81
1026.9
1026.96
1026.97
1026.96
1026.99
1027.02
1027.05
1027.07
1027.08
1027.08
1027.08
1027.08
1027.08
1027.08
1027.08
1027.09
1027.09
1027.09
1027.09
1027.09
1027.09
1027.09
1027.09
1027.1
1027.1
1027.1
1027.1
1027.1
1027.1
1.16046
1.16007
1.16009
1.16021
1.16087
1.16262
1.16524
1.1668
1.16778
1.1683
1.16856
1.16875
1.16883
1.16887
1.16888
1.16891
1.16891
1.16891
1.16891
1.16892
1.16892
1.16892
1.16892
1.16892
1.16892
1.16892
1.16893
1.16893
1.16893
1.16893
1.16893
1.16893
1.16893
1.16893
1.16893
1.16894
1.16894
1.16894
1.16894
1.16894
1.16895
1.16896
1.16902
1.16934
1.17052
1.17364
1.17984
1.19207
1.2084
1.22503
1.24968
1.27831
1.29923
1.29819
1.29214
1.29128
1.28942
1.30268
1.34789
100.295
1020.32
1027.07
1027.07
1027.08
1027.08
1027.09
1027.09
1027.09
1027.09
1027.1
1027.1
1027.1
1027.1
1027.1
1027.1
1027.1
1027.1
1027.1
1027.1
1027.1
1027.1
1027.1
1027.1
1027.1
1027.1
1027.1
1027.1
1027.1
1027.1
1027.1
1027.1
1027.1
1027.1
1027.1
1027.1
1027.1
1.16041
1.16005
1.16004
1.16008
1.16037
1.1617
1.16417
1.1664
1.16779
1.16833
1.16858
1.16876
1.16884
1.16886
1.16888
1.1689
1.16891
1.16891
1.16891
1.16892
1.16892
1.16892
1.16892
1.16892
1.16892
1.16892
1.16893
1.16893
1.16893
1.16893
1.16893
1.16893
1.16893
1.16893
1.16893
1.16894
1.16894
1.16894
1.16894
1.16894
1.16895
1.16896
1.16902
1.1693
1.17036
1.17321
1.17912
1.19087
1.20833
1.22888
1.24313
1.25254
1.27053
1.28295
1.28674
1.29033
1.28943
1.29862
1.40909
47.1703
1004.92
1027.09
1027.09
1027.09
1027.09
1027.09
1027.1
1027.1
1027.1
1027.1
1027.1
1027.1
1027.1
1027.1
1027.1
1027.1
1027.1
1027.1
1027.1
1027.1
1027.1
1027.1
1027.1
1027.1
1027.1
1027.1
1027.1
1027.1
1027.1
1027.1
1027.1
1027.1
1027.1
1027.1
1027.1
1027.1
1.16047
1.1602
1.16008
1.16008
1.16007
1.16075
1.16256
1.16523
1.16764
1.16837
1.16861
1.16876
1.16883
1.16885
1.16887
1.1689
1.16891
1.16891
1.16891
1.16892
1.16892
1.16892
1.16892
1.16892
1.16892
1.16892
1.16893
1.16893
1.16893
1.16893
1.16893
1.16893
1.16893
1.16893
1.16893
1.16893
1.16894
1.16894
1.16894
1.16894
1.16895
1.16896
1.16901
1.16924
1.17015
1.17287
1.17884
1.19093
1.21039
1.23145
1.24783
1.25768
1.2609
1.26709
1.27545
1.28521
1.28621
1.2986
1.49441
28.3755
988.32
1027.08
1027.09
1027.09
1027.09
1027.1
1027.1
1027.1
1027.1
1027.1
1027.1
1027.1
1027.1
1027.1
1027.1
1027.1
1027.1
1027.1
1027.1
1027.1
1027.1
1027.1
1027.1
1027.1
1027.1
1027.1
1027.1
1027.1
1027.1
1027.1
1027.1
1027.1
1027.1
1027.1
1027.1
1027.1
1.16066
1.16069
1.16044
1.16043
1.16005
1.1602
1.16085
1.16311
1.16693
1.16841
1.16864
1.16876
1.1688
1.16882
1.16885
1.1689
1.16891
1.16891
1.16891
1.16891
1.16891
1.16892
1.16892
1.16892
1.16892
1.16892
1.16892
1.16892
1.16892
1.16892
1.16893
1.16893
1.16893
1.16893
1.16893
1.16893
1.16893
1.16893
1.16893
1.16894
1.16894
1.16895
1.169
1.16922
1.1701
1.17284
1.17963
1.19234
1.2144
1.23645
1.25047
1.25943
1.26092
1.26361
1.27002
1.28303
1.28297
1.29674
1.55819
26.8833
980.315
1027.01
1027.09
1027.09
1027.09
1027.1
1027.1
1027.1
1027.1
1027.1
1027.1
1027.1
1027.1
1027.1
1027.1
1027.1
1027.1
1027.1
1027.1
1027.1
1027.1
1027.1
1027.1
1027.1
1027.1
1027.1
1027.1
1027.1
1027.1
1027.1
1027.1
1027.1
1027.1
1027.1
1027.1
1027.1
1.16077
1.16085
1.16082
1.16099
1.16059
1.16022
1.16025
1.1614
1.16546
1.16843
1.16865
1.16872
1.16875
1.16877
1.16883
1.16889
1.16891
1.16891
1.16891
1.16891
1.16891
1.16891
1.16892
1.16892
1.16892
1.16892
1.16892
1.16892
1.16892
1.16892
1.16892
1.16892
1.16892
1.16892
1.16892
1.16892
1.16893
1.16893
1.16893
1.16893
1.16893
1.16895
1.16899
1.16927
1.17037
1.17346
1.18054
1.19413
1.21685
1.23894
1.25229
1.26064
1.265
1.26801
1.26868
1.28279
1.29558
1.29923
1.55675
68.5439
1003.34
1027.09
1027.09
1027.09
1027.1
1027.1
1027.1
1027.1
1027.1
1027.1
1027.1
1027.1
1027.1
1027.1
1027.1
1027.1
1027.1
1027.1
1027.1
1027.1
1027.1
1027.1
1027.1
1027.1
1027.1
1027.1
1027.1
1027.1
1027.1
1027.1
1027.1
1027.1
1027.1
1027.1
1027.1
1027.1
1.16043
1.16061
1.16072
1.16122
1.16102
1.16042
1.16037
1.16114
1.16472
1.16839
1.16863
1.16868
1.16871
1.16875
1.16882
1.1689
1.16891
1.16891
1.16891
1.16892
1.16892
1.16892
1.16892
1.16892
1.16892
1.16892
1.16893
1.16893
1.16893
1.16893
1.16893
1.16893
1.16893
1.16893
1.16894
1.16894
1.16894
1.16894
1.16894
1.16894
1.16895
1.16895
1.169
1.16927
1.17035
1.17338
1.17995
1.19205
1.21419
1.23874
1.25297
1.26015
1.26495
1.26921
1.27113
1.28015
1.2699
1.30185
1.43417
37.0148
997.756
1027.04
1027.09
1027.1
1027.1
1027.1
1027.1
1027.1
1027.1
1027.1
1027.1
1027.1
1027.1
1027.1
1027.1
1027.1
1027.1
1027.1
1027.1
1027.1
1027.1
1027.1
1027.1
1027.1
1027.1
1027.1
1027.1
1027.1
1027.1
1027.1
1027.1
1027.1
1027.1
1027.1
1027.1
1027.1
1.16177
1.16285
1.1637
1.16428
1.16507
1.16644
1.16746
1.16827
1.16866
1.16878
1.16882
1.16886
1.16888
1.1689
1.16891
1.16891
1.16891
1.16891
1.16892
1.16892
1.16892
1.16892
1.16892
1.16892
1.16892
1.16892
1.16892
1.16893
1.16893
1.16893
1.16893
1.16893
1.16893
1.16894
1.16894
1.16894
1.16894
1.16894
1.16894
1.16894
1.16895
1.16895
1.16897
1.16942
1.17136
1.17481
1.18095
1.20756
1.24938
1.27813
1.28379
1.28438
1.28475
1.28552
1.28608
1.28608
1.28439
1.2997
2.40322
62.2588
976.124
1026.76
1027.09
1027.1
1027.1
1027.1
1027.1
1027.1
1027.1
1027.1
1027.1
1027.1
1027.1
1027.1
1027.1
1027.1
1027.1
1027.1
1027.1
1027.1
1027.1
1027.1
1027.1
1027.1
1027.1
1027.1
1027.1
1027.1
1027.1
1027.1
1027.1
1027.1
1027.1
1027.1
1027.1
1027.1
1.16075
1.16182
1.16429
1.16481
1.16556
1.16674
1.16772
1.16828
1.16854
1.16865
1.16874
1.16881
1.16886
1.16889
1.1689
1.16891
1.16891
1.16891
1.16891
1.16892
1.16892
1.16892
1.16892
1.16892
1.16892
1.16893
1.16893
1.16893
1.16893
1.16893
1.16893
1.16893
1.16893
1.16893
1.16893
1.16893
1.16893
1.16894
1.16894
1.16894
1.16895
1.16896
1.16901
1.16941
1.17122
1.1749
1.18074
1.19843
1.22561
1.25821
1.27302
1.27903
1.28018
1.28181
1.28291
1.28484
1.2824
1.30938
2.03481
73.346
1007.68
1027.08
1027.1
1027.1
1027.1
1027.1
1027.1
1027.1
1027.1
1027.1
1027.1
1027.1
1027.1
1027.1
1027.1
1027.1
1027.1
1027.1
1027.1
1027.1
1027.1
1027.1
1027.1
1027.1
1027.1
1027.1
1027.1
1027.1
1027.1
1027.1
1027.1
1027.1
1027.1
1027.1
1027.1
1027.1
1.16047
1.16089
1.16437
1.1652
1.1659
1.16682
1.16765
1.16812
1.16836
1.16852
1.16867
1.16878
1.16884
1.16888
1.16889
1.1689
1.1689
1.1689
1.16891
1.16891
1.16891
1.16891
1.16891
1.16891
1.16892
1.16892
1.16892
1.16892
1.16892
1.16892
1.16892
1.16892
1.16892
1.16892
1.16892
1.16892
1.16893
1.16893
1.16893
1.16893
1.16894
1.16897
1.16906
1.16958
1.17127
1.17501
1.18121
1.19226
1.21095
1.24357
1.26786
1.27907
1.28028
1.28108
1.28086
1.28214
1.27908
1.30661
1.70265
80.4643
1022.57
1027.09
1027.1
1027.1
1027.1
1027.1
1027.1
1027.1
1027.1
1027.1
1027.1
1027.1
1027.1
1027.1
1027.1
1027.1
1027.1
1027.1
1027.1
1027.1
1027.1
1027.1
1027.1
1027.1
1027.1
1027.1
1027.1
1027.1
1027.1
1027.1
1027.1
1027.1
1027.1
1027.1
1027.1
1027.1
1.16042
1.16055
1.16397
1.16507
1.16585
1.16676
1.16749
1.16791
1.16823
1.16846
1.16864
1.16877
1.16884
1.16888
1.16889
1.1689
1.1689
1.16891
1.16891
1.16891
1.16891
1.16891
1.16891
1.16891
1.16891
1.16891
1.16891
1.16892
1.16892
1.16892
1.16892
1.16892
1.16892
1.16892
1.16892
1.16892
1.16892
1.16893
1.16893
1.16893
1.16894
1.16896
1.16907
1.16962
1.17109
1.17472
1.18143
1.19087
1.20305
1.2401
1.27322
1.28231
1.27906
1.27632
1.27475
1.27516
1.27121
1.29769
1.47719
99.0318
1023.39
1027.06
1027.06
1027.07
1027.08
1027.08
1027.09
1027.09
1027.09
1027.09
1027.09
1027.09
1027.09
1027.09
1027.09
1027.09
1027.09
1027.09
1027.09
1027.09
1027.09
1027.1
1027.1
1027.1
1027.1
1027.1
1027.1
1027.1
1027.1
1027.1
1027.1
1027.1
1027.1
1027.1
1027.1
1027.1
1.16046
1.16054
1.16262
1.16494
1.16574
1.16664
1.16731
1.16777
1.16815
1.16842
1.16862
1.16876
1.16884
1.16887
1.16889
1.1689
1.1689
1.1689
1.16891
1.16891
1.16891
1.16891
1.16891
1.16891
1.16891
1.16891
1.16892
1.16892
1.16892
1.16892
1.16892
1.16892
1.16892
1.16892
1.16892
1.16892
1.16892
1.16893
1.16893
1.16893
1.16895
1.16897
1.16907
1.16962
1.17129
1.17495
1.18118
1.19254
1.19825
1.2513
1.28282
1.28286
1.27618
1.26889
1.26294
1.2634
1.25883
1.30021
1.4484
169.083
1021.15
1025.91
1025.9
1025.94
1026.04
1026.28
1026.52
1026.68
1026.73
1026.73
1026.72
1026.71
1026.72
1026.73
1026.72
1026.68
1026.66
1026.7
1026.75
1026.82
1026.93
1027.03
1027.08
1027.08
1027.08
1027.08
1027.08
1027.09
1027.09
1027.1
1027.1
1027.1
1027.1
1027.1
1027.1
1027.1
1.16052
1.16058
1.1621
1.16471
1.16557
1.16655
1.16714
1.16765
1.1681
1.1684
1.1686
1.16874
1.16883
1.16887
1.16889
1.16889
1.1689
1.1689
1.1689
1.1689
1.16891
1.16891
1.16891
1.16891
1.16891
1.16891
1.16891
1.16892
1.16892
1.16892
1.16892
1.16892
1.16892
1.16892
1.16892
1.16892
1.16893
1.16893
1.16893
1.16893
1.16896
1.169
1.16913
1.16978
1.17149
1.17511
1.18139
1.19142
1.19946
1.26411
1.2852
1.28218
1.27522
1.27062
1.26519
1.26847
1.25872
1.30799
1.47758
244.914
1010.97
1020.36
1020.74
1021.12
1021.45
1021.86
1022.61
1023.12
1023.3
1023.31
1023.24
1023.4
1023.5
1023.18
1022.69
1022.47
1022.62
1023.38
1024.26
1025.33
1026.36
1026.88
1026.84
1026.79
1026.79
1026.92
1026.97
1026.99
1027.02
1027.04
1027.06
1027.07
1027.08
1027.09
1027.1
1027.1
1.16052
1.16035
1.1618
1.16405
1.16536
1.16647
1.16719
1.16766
1.16808
1.16832
1.16853
1.16871
1.16881
1.16887
1.16889
1.16889
1.16889
1.1689
1.1689
1.1689
1.16891
1.16891
1.16891
1.16892
1.16892
1.16892
1.16892
1.16892
1.16892
1.16892
1.16892
1.16892
1.16893
1.16893
1.16893
1.16893
1.16893
1.16893
1.16893
1.16894
1.16895
1.16904
1.16928
1.16993
1.17144
1.17519
1.18078
1.18777
1.20394
1.26583
1.28605
1.2796
1.27165
1.26601
1.26181
1.26157
1.26185
1.33114
1.56082
254.384
1001.3
1015.51
1016.23
1016.84
1016.74
1016.26
1016.03
1015.97
1015.6
1015.08
1014.55
1014.19
1013.82
1013.57
1013.53
1015.15
1017.24
1019.93
1022.49
1024.78
1026.04
1025.91
1025.83
1026
1026.39
1026.76
1026.85
1026.86
1026.82
1026.77
1026.73
1026.68
1026.67
1026.79
1026.99
1027.06
1.16045
1.16032
1.16136
1.163
1.16481
1.16607
1.16697
1.16738
1.16793
1.16806
1.16839
1.16868
1.16879
1.16886
1.16888
1.16889
1.16889
1.1689
1.1689
1.1689
1.1689
1.1689
1.16891
1.16891
1.16891
1.16891