/*--------------------------------*- C++ -*----------------------------------*\
| =========                 |                                                 |
| \\      /  F ield         | OpenFOAM: The Open Source CFD Toolbox           |
|  \\    /   O peration     | Version:  2.3.0                                 |
|   \\  /    A nd           | Web:      www.OpenFOAM.org                      |
|    \\/     M anipulation  |                                                 |
\*---------------------------------------------------------------------------*/
FoamFile
{
    version     2.0;
    format      ascii;
    class       volScalarField;
    location    "42";
    object      rho;
}
// * * * * * * * * * * * * * * * * * * * * * * * * * * * * * * * * * * * * * //

dimensions      [1 -3 0 0 0 0 0];

internalField   nonuniform List<scalar> 
6144
(
1.16281
1.16372
1.16422
1.1647
1.16518
1.16586
1.16668
1.16782
1.16874
1.16888
1.16889
1.16889
1.1689
1.1689
1.1689
1.1689
1.16891
1.16891
1.16891
1.16891
1.16891
1.16891
1.16892
1.16892
1.16892
1.16892
1.16892
1.16892
1.16892
1.16893
1.16893
1.16893
1.16893
1.16893
1.16893
1.16894
1.16894
1.16894
1.16894
1.16894
1.16894
1.16895
1.16894
1.16895
1.16894
1.16895
1.16895
1.16904
1.17012
1.17366
1.18001
1.19318
1.21065
1.23261
1.23055
1.2624
1.31729
1.66618
2.38254
72.872
1003.74
1027.03
1027.1
1027.1
1027.1
1027.1
1027.1
1027.1
1027.1
1027.1
1027.1
1027.1
1027.1
1027.1
1027.1
1027.1
1027.1
1027.1
1027.1
1027.1
1027.1
1027.1
1027.1
1027.1
1027.1
1027.1
1027.1
1027.1
1027.1
1027.1
1027.1
1027.1
1027.1
1027.1
1027.1
1027.1
1.1624
1.16365
1.16446
1.16503
1.16573
1.16635
1.16695
1.16782
1.16875
1.16888
1.16888
1.16889
1.1689
1.16891
1.16891
1.16891
1.16891
1.16891
1.16892
1.16892
1.16892
1.16892
1.16892
1.16892
1.16892
1.16893
1.16893
1.16893
1.16893
1.16893
1.16893
1.16894
1.16894
1.16894
1.16894
1.16894
1.16894
1.16895
1.16895
1.16895
1.16895
1.16896
1.16895
1.16896
1.16896
1.16897
1.16895
1.1691
1.16999
1.17294
1.18255
1.1957
1.21375
1.22697
1.22261
1.23704
1.31609
1.9102
3.41736
64.8684
993.222
1026.99
1027.1
1027.1
1027.1
1027.1
1027.1
1027.1
1027.1
1027.1
1027.1
1027.1
1027.1
1027.1
1027.1
1027.1
1027.1
1027.1
1027.1
1027.1
1027.1
1027.1
1027.1
1027.1
1027.1
1027.1
1027.1
1027.1
1027.1
1027.1
1027.1
1027.1
1027.1
1027.1
1027.1
1027.1
1.16209
1.16326
1.16423
1.16508
1.16598
1.16653
1.16709
1.16785
1.16858
1.1688
1.16882
1.16886
1.16888
1.1689
1.16891
1.16891
1.16891
1.16891
1.16892
1.16892
1.16892
1.16892
1.16892
1.16892
1.16892
1.16893
1.16893
1.16893
1.16893
1.16893
1.16893
1.16894
1.16894
1.16894
1.16894
1.16894
1.16894
1.16895
1.16895
1.16895
1.16895
1.16896
1.16895
1.16896
1.16896
1.16897
1.16897
1.16923
1.17023
1.17505
1.18882
1.19998
1.20705
1.21693
1.22523
1.24702
1.26552
1.68423
2.37185
61.7054
995.823
1027.02
1027.1
1027.1
1027.1
1027.1
1027.1
1027.1
1027.1
1027.1
1027.1
1027.1
1027.1
1027.1
1027.1
1027.1
1027.1
1027.1
1027.1
1027.1
1027.1
1027.1
1027.1
1027.1
1027.1
1027.1
1027.1
1027.1
1027.1
1027.1
1027.1
1027.1
1027.1
1027.1
1027.1
1027.1
1.16179
1.16275
1.1637
1.16457
1.16565
1.1664
1.16704
1.16771
1.16843
1.16873
1.16879
1.16884
1.16888
1.1689
1.16891
1.16891
1.16891
1.16891
1.16891
1.16891
1.16892
1.16892
1.16892
1.16892
1.16892
1.16892
1.16892
1.16893
1.16893
1.16893
1.16893
1.16893
1.16893
1.16894
1.16894
1.16894
1.16894
1.16894
1.16894
1.16895
1.16895
1.16895
1.16895
1.16896
1.16895
1.16897
1.16898
1.1693
1.17085
1.1774
1.18656
1.19265
1.19881
1.21643
1.24185
1.26796
1.25756
1.51038
1.89543
69.263
994.71
1027.03
1027.09
1027.1
1027.09
1027.1
1027.1
1027.1
1027.1
1027.1
1027.1
1027.1
1027.1
1027.1
1027.1
1027.1
1027.1
1027.1
1027.1
1027.1
1027.1
1027.1
1027.1
1027.1
1027.1
1027.1
1027.1
1027.1
1027.1
1027.1
1027.1
1027.1
1027.1
1027.1
1027.1
1027.1
1.16155
1.16225
1.16316
1.16397
1.16506
1.16602
1.16698
1.16755
1.16828
1.16867
1.16876
1.16884
1.16888
1.1689
1.16891
1.16891
1.16891
1.16891
1.16892
1.16892
1.16892
1.16892
1.16892
1.16892
1.16893
1.16893
1.16893
1.16893
1.16893
1.16893
1.16893
1.16893
1.16894
1.16894
1.16894
1.16894
1.16894
1.16895
1.16895
1.16895
1.16895
1.16895
1.16895
1.16896
1.16895
1.16897
1.16898
1.16932
1.17072
1.17433
1.17851
1.18242
1.18938
1.23188
1.26965
1.29172
1.29287
1.39071
1.2839
89.1414
997.39
1026.95
1027.04
1027.07
1027.08
1027.09
1027.09
1027.09
1027.09
1027.09
1027.09
1027.08
1027.08
1027.08
1027.08
1027.08
1027.08
1027.09
1027.09
1027.09
1027.09
1027.09
1027.09
1027.09
1027.09
1027.09
1027.09
1027.09
1027.1
1027.1
1027.1
1027.1
1027.1
1027.1
1027.1
1027.1
1.16145
1.1619
1.16268
1.16341
1.16442
1.16544
1.16666
1.1674
1.16809
1.16861
1.16875
1.16883
1.16888
1.1689
1.1689
1.1689
1.16891
1.16891
1.16891
1.16891
1.16891
1.16892
1.16892
1.16892
1.16892
1.16892
1.16892
1.16893
1.16893
1.16893
1.16893
1.16893
1.16893
1.16893
1.16894
1.16894
1.16894
1.16894
1.16894
1.16895
1.16894
1.16895
1.16895
1.16896
1.16895
1.16897
1.16898
1.16928
1.17017
1.17207
1.17442
1.17942
1.19632
1.26413
1.30469
1.31755
1.30849
1.33648
1.20126
135.93
996.586
1025.72
1026.01
1026.5
1026.65
1026.68
1026.7
1026.71
1026.65
1026.52
1026.42
1026.34
1026.3
1026.27
1026.21
1026.12
1026.25
1026.67
1026.94
1027.06
1027.09
1027.09
1027.09
1027.08
1027.08
1027.08
1027.08
1027.08
1027.08
1027.08
1027.09
1027.09
1027.1
1027.1
1027.1
1027.1
1.16145
1.16175
1.16236
1.16297
1.16387
1.16485
1.1661
1.16707
1.16781
1.1685
1.16873
1.16883
1.16888
1.1689
1.16891
1.16891
1.16891
1.16891
1.16891
1.16892
1.16892
1.16892
1.16892
1.16892
1.16892
1.16892
1.16892
1.16893
1.16893
1.16893
1.16893
1.16893
1.16893
1.16894
1.16894
1.16894
1.16894
1.16894
1.16894
1.16895
1.16895
1.16895
1.16895
1.16896
1.16896
1.16897
1.16898
1.16924
1.16985
1.17126
1.17416
1.18284
1.20782
1.27969
1.31655
1.3129
1.28626
1.30768
1.16897
225
1016.15
1022.14
1021.99
1023.53
1024.71
1025
1024.77
1023.8
1023.43
1023.18
1022.89
1022.78
1022.75
1023.01
1023.57
1024.3
1025.44
1026.23
1026.56
1026.55
1026.73
1026.73
1026.91
1027.03
1027.1
1027.1
1027.1
1027.08
1027.08
1027.06
1027.05
1027.04
1027.07
1027.08
1027.08
1027.09
1.16164
1.16173
1.16221
1.16268
1.16348
1.16438
1.16567
1.16681
1.1676
1.16836
1.16868
1.16882
1.16887
1.1689
1.1689
1.16891
1.16891
1.16891
1.16891
1.16892
1.16892
1.16892
1.16892
1.16892
1.16892
1.16893
1.16893
1.16893
1.16893
1.16893
1.16893
1.16894
1.16894
1.16894
1.16894
1.16894
1.16894
1.16895
1.16895
1.16895
1.16895
1.16896
1.16896
1.16896
1.16896
1.16898
1.16898
1.16936
1.1708
1.17367
1.17858
1.19264
1.2132
1.26181
1.317
1.31161
1.28895
1.27528
1.16897
267.553
1012.05
1018.08
1017.23
1017.15
1018.15
1019.11
1019.54
1019.66
1019.57
1019.3
1019.02
1018.77
1018.74
1019.57
1020.05
1019.92
1020.01
1020.13
1019.58
1019.21
1019.2
1020.32
1021.25
1022.94
1024.78
1026.18
1027.1
1027.1
1027.1
1027.1
1027.1
1026.82
1026.41
1026.1
1026.87
1026.67
1.16186
1.16209
1.16218
1.16257
1.16327
1.16407
1.16532
1.16667
1.16752
1.16825
1.16863
1.16879
1.16886
1.16889
1.1689
1.1689
1.16891
1.16891
1.16891
1.16891
1.16891
1.16892
1.16892
1.16892
1.16892
1.16892
1.16892
1.16893
1.16893
1.16893
1.16893
1.16893
1.16893
1.16894
1.16894
1.16894
1.16894
1.16894
1.16894
1.16895
1.16895
1.16895
1.16895
1.16896
1.16896
1.16898
1.16898
1.16952
1.17353
1.18749
1.20252
1.21702
1.23787
1.26203
1.30654
1.30385
1.29088
1.28028
1.16897
224.459
1011.65
1019.58
1018.43
1017.8
1017.66
1018.66
1019.28
1020.13
1020.63
1020.43
1020.32
1020.79
1020.81
1020.94
1022.15
1022.71
1023.48
1024.31
1025.02
1025.64
1026.08
1026.34
1026.41
1026.46
1026.51
1026.7
1026.91
1027.05
1027.1
1027.09
1027.1
1027.1
1027.1
1027.1
1027.1
1027.1
1.162
1.16249
1.16275
1.16277
1.16325
1.16399
1.16514
1.16671
1.16761
1.16828
1.16861
1.16877
1.16884
1.16888
1.1689
1.16891
1.16891
1.16891
1.16891
1.16892
1.16892
1.16892
1.16892
1.16892
1.16892
1.16893
1.16893
1.16893
1.16893
1.16893
1.16893
1.16893
1.16894
1.16894
1.16894
1.16894
1.16894
1.16894
1.16895
1.16895
1.16895
1.16895
1.16895
1.16896
1.16896
1.16898
1.16899
1.16988
1.17917
1.20084
1.2227
1.22647
1.23524
1.25299
1.28903
1.29696
1.28814
1.28497
1.16897
181.808
1014.88
1022.25
1021.94
1023.04
1023.4
1022.65
1022.27
1022.28
1022.79
1023.36
1023.99
1024.73
1024.89
1024.73
1025.52
1026.29
1026.68
1026.91
1027.04
1027.08
1027.09
1027.09
1027.09
1027.09
1027.09
1027.09
1027.1
1027.1
1027.1
1027.1
1027.1
1027.1
1027.1
1027.1
1027.1
1027.1
1.16197
1.16262
1.16325
1.16335
1.16404
1.1647
1.16517
1.16705
1.16786
1.16837
1.1686
1.16872
1.16878
1.16884
1.16887
1.1689
1.1689
1.16891
1.16891
1.16891
1.16891
1.16892
1.16892
1.16892
1.16892
1.16892
1.16893
1.16893
1.16893
1.16893
1.16893
1.16893
1.16894
1.16894
1.16894
1.16894
1.16894
1.16894
1.16895
1.16895
1.16895
1.16895
1.16895
1.16896
1.16896
1.16898
1.16898
1.16945
1.17124
1.17341
1.18329
1.20986
1.22226
1.23426
1.26427
1.28883
1.28834
1.28689
1.19556
123.386
1019.53
1025.9
1025.86
1025.97
1026.01
1026.1
1026.21
1026.3
1026.29
1026.3
1026.51
1026.78
1026.87
1026.95
1027.03
1027.08
1027.09
1027.1
1027.1
1027.1
1027.1
1027.1
1027.1
1027.1
1027.1
1027.1
1027.1
1027.1
1027.1
1027.1
1027.1
1027.1
1027.1
1027.1
1027.1
1027.1
1.16174
1.16205
1.16317
1.16336
1.16434
1.16526
1.16563
1.16716
1.1681
1.16847
1.16863
1.16873
1.16878
1.16882
1.16886
1.16889
1.1689
1.16891
1.16891
1.16891
1.16892
1.16892
1.16892
1.16892
1.16892
1.16893
1.16893
1.16893
1.16893
1.16893
1.16893
1.16894
1.16894
1.16894
1.16894
1.16894
1.16895
1.16895
1.16895
1.16895
1.16895
1.16896
1.16896
1.16896
1.16896
1.16898
1.16899
1.1694
1.17074
1.1736
1.17783
1.18733
1.20266
1.2108
1.2354
1.26361
1.27763
1.286
1.21605
74.2466
1001.01
1027.01
1027.04
1027.05
1027.05
1027.05
1027.05
1027.06
1027.07
1027.07
1027.08
1027.09
1027.09
1027.1
1027.1
1027.1
1027.1
1027.1
1027.1
1027.1
1027.1
1027.1
1027.1
1027.1
1027.1
1027.1
1027.1
1027.1
1027.1
1027.1
1027.1
1027.1
1027.1
1027.1
1027.1
1027.1
1.16141
1.1614
1.1623
1.16284
1.16374
1.1652
1.16585
1.16662
1.16812
1.16855
1.1687
1.16879
1.16883
1.16885
1.16888
1.1689
1.16891
1.16891
1.16891
1.16892
1.16892
1.16892
1.16892
1.16892
1.16893
1.16893
1.16893
1.16893
1.16893
1.16893
1.16894
1.16894
1.16894
1.16894
1.16894
1.16894
1.16895
1.16895
1.16895
1.16895
1.16895
1.16896
1.16896
1.16897
1.16896
1.16898
1.16898
1.16932
1.17042
1.17354
1.17952
1.18955
1.20133
1.21092
1.21967
1.23974
1.2632
1.29643
1.21066
49.6217
994.986
1027.09
1027.09
1027.1
1027.09
1027.1
1027.1
1027.1
1027.1
1027.1
1027.1
1027.1
1027.1
1027.1
1027.1
1027.1
1027.1
1027.1
1027.1
1027.1
1027.1
1027.1
1027.1
1027.1
1027.1
1027.1
1027.1
1027.1
1027.1
1027.1
1027.1
1027.1
1027.1
1027.1
1027.1
1027.1
1.16118
1.16143
1.16142
1.16242
1.16241
1.16388
1.16576
1.16654
1.16779
1.16857
1.16872
1.16881
1.16884
1.16887
1.16889
1.16891
1.16892
1.16892
1.16892
1.16892
1.16892
1.16892
1.16893
1.16893
1.16893
1.16893
1.16893
1.16893
1.16893
1.16894
1.16894
1.16894
1.16894
1.16894
1.16894
1.16895
1.16895
1.16895
1.16895
1.16895
1.16895
1.16896
1.16896
1.16897
1.16897
1.16898
1.16898
1.16928
1.17032
1.17325
1.1791
1.18991
1.20233
1.21443
1.22171
1.24409
1.24762
1.45147
1.33435
43.9524
994.503
1027.07
1027.1
1027.1
1027.1
1027.1
1027.1
1027.1
1027.1
1027.1
1027.1
1027.1
1027.1
1027.1
1027.1
1027.1
1027.1
1027.1
1027.1
1027.1
1027.1
1027.1
1027.1
1027.1
1027.1
1027.1
1027.1
1027.1
1027.1
1027.1
1027.1
1027.1
1027.1
1027.1
1027.1
1027.1
1.16083
1.16138
1.16123
1.1624
1.16108
1.16244
1.16468
1.1665
1.16769
1.1685
1.1687
1.16879
1.16883
1.16886
1.16889
1.16891
1.16891
1.16892
1.16892
1.16892
1.16892
1.16892
1.16892
1.16893
1.16893
1.16893
1.16893
1.16893
1.16893
1.16893
1.16894
1.16894
1.16894
1.16894
1.16894
1.16894
1.16895
1.16895
1.16895
1.16895
1.16895
1.16896
1.16896
1.16897
1.16897
1.16898
1.16898
1.16928
1.1703
1.17332
1.17939
1.19148
1.20683
1.21891
1.22311
1.24159
1.32811
1.68927
1.88209
39.6748
984.824
1026.98
1027.1
1027.1
1027.1
1027.1
1027.1
1027.1
1027.1
1027.1
1027.1
1027.1
1027.1
1027.1
1027.1
1027.1
1027.1
1027.1
1027.1
1027.1
1027.1
1027.1
1027.1
1027.1
1027.1
1027.1
1027.1
1027.1
1027.1
1027.1
1027.1
1027.1
1027.1
1027.1
1027.1
1027.1
1.15978
1.1604
1.16036
1.16044
1.1604
1.16056
1.16253
1.16583
1.16767
1.16843
1.16866
1.16876
1.16881
1.16886
1.16891
1.16892
1.16892
1.16892
1.16892
1.16893
1.16893
1.16893
1.16893
1.16893
1.16893
1.16893
1.16894
1.16894
1.16894
1.16894
1.16894
1.16894
1.16895
1.16895
1.16895
1.16895
1.16895
1.16895
1.16896
1.16896
1.16896
1.16896
1.16897
1.16897
1.16897
1.16899
1.169
1.16929
1.17028
1.17348
1.18049
1.19335
1.20951
1.2241
1.23152
1.24979
1.28147
1.51976
1.46188
41.6806
984.79
1026.94
1027.1
1027.1
1027.1
1027.1
1027.1
1027.1
1027.1
1027.1
1027.1
1027.1
1027.1
1027.1
1027.1
1027.1
1027.1
1027.1
1027.1
1027.1
1027.1
1027.1
1027.1
1027.1
1027.1
1027.1
1027.1
1027.1
1027.1
1027.1
1027.1
1027.1
1027.1
1027.1
1027.1
1027.1
1.1622
1.1636
1.16425
1.16473
1.16514
1.16579
1.16688
1.16815
1.16874
1.16879
1.16881
1.16885
1.16889
1.16891
1.16892
1.16892
1.16892
1.16893
1.16893
1.16893
1.16893
1.16893
1.16893
1.16893
1.16893
1.16894
1.16894
1.16894
1.16894
1.16894
1.16895
1.16895
1.16895
1.16895
1.16895
1.16895
1.16896
1.16896
1.16896
1.16896
1.16897
1.16897
1.16897
1.16897
1.16897
1.16899
1.169
1.16917
1.16997
1.17359
1.18079
1.19499
1.21166
1.2316
1.23267
1.25026
1.30413
1.86829
4.06765
76.2436
979.897
1026.87
1027.09
1027.1
1027.1
1027.1
1027.1
1027.1
1027.1
1027.1
1027.1
1027.1
1027.1
1027.1
1027.1
1027.1
1027.1
1027.1
1027.1
1027.1
1027.1
1027.1
1027.1
1027.1
1027.1
1027.1
1027.1
1027.1
1027.1
1027.1
1027.1
1027.1
1027.1
1027.1
1027.1
1027.1
1.16156
1.16343
1.16472
1.16524
1.16581
1.16643
1.16753
1.16812
1.16838
1.1685
1.16866
1.16878
1.16885
1.1689
1.16891
1.16892
1.16892
1.16892
1.16892
1.16893
1.16893
1.16893
1.16893
1.16893
1.16894
1.16894
1.16894
1.16894
1.16894
1.16894
1.16894
1.16895
1.16895
1.16895
1.16895
1.16895
1.16895
1.16896
1.16896
1.16896
1.16896
1.16897
1.16897
1.16897
1.16897
1.16899
1.169
1.16924
1.16998
1.17377
1.1857
1.20261
1.22049
1.22818
1.22695
1.24093
1.35402
1.83881
3.17337
84.265
998.422
1027.08
1027.1
1027.1
1027.1
1027.1
1027.1
1027.1
1027.1
1027.1
1027.1
1027.1
1027.1
1027.1
1027.1
1027.1
1027.1
1027.1
1027.1
1027.1
1027.1
1027.1
1027.1
1027.1
1027.1
1027.1
1027.1
1027.1
1027.1
1027.1
1027.1
1027.1
1027.1
1027.1
1027.1
1027.1
1.16123
1.16275
1.16435
1.16523
1.16597
1.16657
1.16713
1.16763
1.16802
1.16829
1.16856
1.16874
1.16884
1.16889
1.16891
1.16892
1.16892
1.16892
1.16892
1.16892
1.16893
1.16893
1.16893
1.16893
1.16893
1.16893
1.16893
1.16894
1.16894
1.16894
1.16894
1.16894
1.16894
1.16895
1.16895
1.16895
1.16895
1.16895
1.16895
1.16896
1.16896
1.16896
1.16896
1.16897
1.16897
1.16899
1.16899
1.16922
1.17034
1.17683
1.19164
1.20692
1.21869
1.22907
1.23457
1.2497
1.30235
1.69592
1.98787
82.4166
1008.54
1027.09
1027.09
1027.09
1027.1
1027.1
1027.1
1027.1
1027.1
1027.1
1027.1
1027.1
1027.1
1027.1
1027.1
1027.1
1027.1
1027.1
1027.1
1027.1
1027.1
1027.1
1027.1
1027.1
1027.1
1027.1
1027.1
1027.1
1027.1
1027.1
1027.1
1027.1
1027.1
1027.1
1027.1
1027.1
1.16101
1.16199
1.16349
1.16434
1.16514
1.16593
1.16664
1.16729
1.16784
1.1682
1.16852
1.16872
1.16883
1.16889
1.16891
1.16892
1.16892
1.16892
1.16892
1.16892
1.16892
1.16892
1.16893
1.16893
1.16893
1.16893
1.16893
1.16893
1.16894
1.16894
1.16894
1.16894
1.16894
1.16894
1.16895
1.16895
1.16895
1.16895
1.16895
1.16895
1.16896
1.16896
1.16896
1.16897
1.16896
1.16898
1.16899
1.16924
1.17027
1.17476
1.18382
1.1943
1.20515
1.2244
1.24788
1.26576
1.2735
1.53604
1.64691
87.9823
1015.42
1027.09
1027.09
1027.09
1027.09
1027.1
1027.09
1027.09
1027.1
1027.1
1027.1
1027.09
1027.1
1027.1
1027.1
1027.1
1027.1
1027.1
1027.1
1027.1
1027.1
1027.1
1027.1
1027.1
1027.1
1027.1
1027.1
1027.1
1027.1
1027.1
1027.1
1027.1
1027.1
1027.1
1027.1
1027.1
1.16087
1.16137
1.1628
1.1637
1.16447
1.16541
1.16625
1.16702
1.16773
1.16815
1.1685
1.16872
1.16883
1.16888
1.16891
1.16891
1.16892
1.16892
1.16892
1.16892
1.16892
1.16892
1.16893
1.16893
1.16893
1.16893
1.16893
1.16893
1.16893
1.16894
1.16894
1.16894
1.16894
1.16894
1.16894
1.16895
1.16895
1.16895
1.16895
1.16895
1.16895
1.16896
1.16896
1.16896
1.16896
1.16898
1.169
1.16929
1.17034
1.17377
1.17908
1.18617
1.19709
1.25036
1.28213
1.27614
1.36769
1.43937
1.34229
119.03
1014.28
1026.57
1026.71
1026.94
1026.98
1027
1027.01
1027.02
1027.01
1026.98
1026.96
1026.94
1026.93
1026.92
1026.91
1026.9
1026.9
1026.91
1026.93
1026.97
1026.99
1027.01
1027.03
1027.06
1027.06
1027.07
1027.08
1027.09
1027.1
1027.1
1027.1
1027.1
1027.1
1027.1
1027.1
1027.1
1.16083
1.16096
1.16223
1.16325
1.16395
1.16499
1.16593
1.16681
1.16765
1.16812
1.16849
1.16872
1.16883
1.16888
1.16891
1.16891
1.16892
1.16892
1.16892
1.16892
1.16892
1.16892
1.16892
1.16893
1.16893
1.16893
1.16893
1.16893
1.16893
1.16893
1.16894
1.16894
1.16894
1.16894
1.16894
1.16894
1.16895
1.16895
1.16895
1.16895
1.16895
1.16896
1.16896
1.16896
1.16896
1.16898
1.169
1.16965
1.17221
1.17852
1.18616
1.19031
1.20608
1.31268
1.31841
1.3195
1.3245
1.26908
1.20189
226.622
1007.27
1021.19
1022.14
1023.86
1024.5
1024.92
1025.15
1025.26
1025.25
1024.51
1023.32
1022.67
1022.46
1022
1020.13
1018.41
1017.19
1016.8
1017.4
1018
1018.34
1019.35
1020.9
1021.9
1022.03
1022.18
1023.95
1025.57
1026.27
1026.73
1027
1027.09
1027.1
1027.1
1027.1
1027.1
1.16086
1.16076
1.16177
1.16281
1.16354
1.16461
1.16565
1.16664
1.1676
1.16811
1.16849
1.16872
1.16883
1.16888
1.16891
1.16891
1.16892
1.16892
1.16892
1.16892
1.16892
1.16892
1.16892
1.16892
1.16893
1.16893
1.16893
1.16893
1.16893
1.16893
1.16894
1.16894
1.16894
1.16894
1.16894
1.16894
1.16895
1.16895
1.16895
1.16895
1.16895
1.16896
1.16896
1.16896
1.16896
1.16898
1.16902
1.17034
1.17612
1.18675
1.19479
1.20092
1.22256
1.32675
1.33161
1.31064
1.26482
1.19377
1.16897
408.068
990.098
1000.78
1001.37
1005.35
1007.79
1009.14
1009.67
1008.51
1006.82
1004.34
1001.86
999.741
996.67
990.605
984.972
981.368
978.546
976.809
975.892
975.497
976.171
977.024
977.123
976.926
977.298
980.208
985.141
991.003
997.55
1005.07
1013.22
1020.6
1024.91
1024.79
1024.65
1024.42
1.16096
1.16069
1.16137
1.1622
1.16315
1.16411
1.16528
1.16646
1.16758
1.16812
1.1685
1.16872
1.16883
1.16888
1.16891
1.16891
1.16891
1.16892
1.16892
1.16892
1.16892
1.16892
1.16892
1.16893
1.16893
1.16893
1.16893
1.16893
1.16893
1.16893
1.16894
1.16894
1.16894
1.16894
1.16894
1.16894
1.16895
1.16895
1.16895
1.16895
1.16895
1.16896
1.16896
1.16896
1.16896
1.16898
1.16902
1.17088
1.18165
1.20078
1.20827
1.21862
1.23849
1.29888
1.32813
1.3097
1.28331
1.23556
1.16897
461.574
974.814
982.226
979.432
979.319
979.424
980.026
980.278
979.929
979.409
976.789
973.343
971.49
970.619
969.756
969.3
968.97
968.063
965.764
963.219
961.452
960.15
957.032
951.413
942.054
932.949
926.252
916.977
905.071
895.421
887.096
876.191
863.47
849.837
832.92
789.199
599.99
1.16103
1.1606
1.16108
1.16162
1.16261
1.1634
1.16475
1.16623
1.16756
1.16814
1.16851
1.16873
1.16883
1.16889
1.16891
1.16891
1.16892
1.16892
1.16892
1.16892
1.16892
1.16892
1.16893
1.16893
1.16893
1.16893
1.16893
1.16893
1.16893
1.16894
1.16894
1.16894
1.16894
1.16894
1.16894
1.16895
1.16895
1.16895
1.16895
1.16895
1.16896
1.16896
1.16896
1.16896
1.16896
1.16898
1.16901
1.17103
1.18779
1.21836
1.23049
1.24855
1.29425
1.30135
1.29725
1.2856
1.28909
1.25461
1.16897
357.618
988.875
999.328
994.768
993.137
992.757
992.655
992.361
992.007
991.602
991.578
992.778
993.992
996.128
1000.35
1005.63
1010.93
1015.87
1019.97
1022.8
1023.83
1023.56
1023.37
1022.81
1022
1021.03
1020.66
1020.68
1020.78
1021.22
1021.51
1021.19
1022.1
1025.53
1027.03
1027.06
1027.08
1.16099
1.16049
1.16083
1.16115
1.16199
1.16265
1.16403
1.16597
1.16755
1.16816
1.16852
1.16874
1.16884
1.16889
1.16891
1.16892
1.16892
1.16892
1.16892
1.16892
1.16892
1.16892
1.16893
1.16893
1.16893
1.16893
1.16893
1.16893
1.16894
1.16894
1.16894
1.16894
1.16894
1.16894
1.16895
1.16895
1.16895
1.16895
1.16895
1.16895
1.16896
1.16896
1.16896
1.16896
1.16896
1.16898
1.16899
1.17023
1.18861
1.22469
1.24967
1.25588
1.25283
1.24075
1.22621
1.22094
1.20883
1.18574
1.16897
199.853
1010.23
1020.61
1018.85
1017.18
1016.57
1017.26
1017.91
1017.97
1017.87
1019.09
1019.44
1019.53
1022.27
1024.19
1025.32
1026.26
1026.79
1026.98
1027.04
1027.04
1027.05
1027.04
1027.04
1027.04
1027.05
1027.05
1027.07
1027.08
1027.09
1027.09
1027.09
1027.09
1027.1
1027.1
1027.1
1027.1
1.16092
1.16043
1.16064
1.16086
1.16153
1.16232
1.16341
1.16573
1.16762
1.16819
1.16854
1.16875
1.16885
1.16889
1.16891
1.16892
1.16892
1.16892
1.16892
1.16892
1.16892
1.16893
1.16893
1.16893
1.16893
1.16893
1.16893
1.16893
1.16894
1.16894
1.16894
1.16894
1.16894
1.16894
1.16895
1.16895
1.16895
1.16895
1.16895
1.16896
1.16896
1.16896
1.16896
1.16897
1.16897
1.16898
1.16899
1.16922
1.17028
1.17417
1.18951
1.24344
1.24555
1.24263
1.24948
1.2612
1.27716
1.26515
1.18503
121.751
1023.26
1026.61
1026.63
1026.67
1026.64
1026.64
1026.63
1026.63
1026.68
1026.73
1026.81
1026.9
1027
1027.06
1027.08
1027.09
1027.1
1027.1
1027.1
1027.1
1027.1
1027.1
1027.1
1027.1
1027.1
1027.1
1027.1
1027.1
1027.1
1027.1
1027.1
1027.1
1027.1
1027.1
1027.1
1027.1
1.16082
1.16049
1.16053
1.16083
1.16166
1.16329
1.16447
1.1659
1.16782
1.16822
1.16856
1.16878
1.16886
1.16889
1.16891
1.16892
1.16892
1.16892
1.16892
1.16892
1.16892
1.16893
1.16893
1.16893
1.16893
1.16893
1.16893
1.16893
1.16894
1.16894
1.16894
1.16894
1.16894
1.16894
1.16895
1.16895
1.16895
1.16895
1.16895
1.16895
1.16896
1.16896
1.16896
1.16897
1.16897
1.16898
1.16899
1.16923
1.17037
1.17401
1.18011
1.18879
1.22189
1.22617
1.22324
1.22936
1.2765
1.36587
1.32007
85.3413
1021.58
1027.08
1027.08
1027.09
1027.09
1027.09
1027.09
1027.09
1027.09
1027.09
1027.09
1027.1
1027.1
1027.1
1027.1
1027.1
1027.1
1027.1
1027.1
1027.1
1027.1
1027.1
1027.1
1027.1
1027.1
1027.1
1027.1
1027.1
1027.1
1027.1
1027.1
1027.1
1027.1
1027.1
1027.1
1027.1
1.16084
1.16072
1.16069
1.16087
1.16159
1.16371
1.16612
1.16755
1.16809
1.16837
1.16863
1.1688
1.16886
1.16889
1.16891
1.16892
1.16892
1.16892
1.16892
1.16892
1.16892
1.16893
1.16893
1.16893
1.16893
1.16893
1.16893
1.16893
1.16894
1.16894
1.16894
1.16894
1.16894
1.16894
1.16894
1.16895
1.16895
1.16895
1.16895
1.16895
1.16895
1.16896
1.16896
1.16896
1.16897
1.16898
1.16899
1.16921
1.17025
1.17405
1.18186
1.19402
1.20759
1.21794
1.22091
1.2384
1.25558
1.40443
1.76295
51.7679
974.901
1027.1
1027.09
1027.1
1027.1
1027.1
1027.1
1027.1
1027.1
1027.1
1027.1
1027.1
1027.1
1027.1
1027.1
1027.1
1027.1
1027.1
1027.1
1027.1
1027.1
1027.1
1027.1
1027.1
1027.1
1027.1
1027.1
1027.1
1027.1
1027.1
1027.1
1027.1
1027.1
1027.1
1027.1
1027.1
1.16088
1.16104
1.16106
1.16103
1.16097
1.16241
1.16503
1.16735
1.16809
1.16845
1.16867
1.16882
1.16885
1.16887
1.1689
1.16891
1.16891
1.16892
1.16892
1.16892
1.16892
1.16892
1.16892
1.16893
1.16893
1.16893
1.16893
1.16893
1.16893
1.16893
1.16893
1.16894
1.16894
1.16894
1.16894
1.16894
1.16894
1.16894
1.16895
1.16895
1.16895
1.16895
1.16896
1.16896
1.16896
1.16898
1.16899
1.16924
1.17027
1.17407
1.18205
1.19374
1.20527
1.21948
1.22366
1.23854
1.27176
1.52871
2.40398
56.5627
991.725
1027.1
1027.09
1027.09
1027.1
1027.1
1027.1
1027.1
1027.1
1027.1
1027.1
1027.1
1027.1
1027.1
1027.1
1027.1
1027.1
1027.1
1027.1
1027.1
1027.1
1027.1
1027.1
1027.1
1027.1
1027.1
1027.1
1027.1
1027.1
1027.1
1027.1
1027.1
1027.1
1027.1
1027.1
1027.1
1.1608
1.16099
1.16099
1.16111
1.16066
1.16141
1.16325
1.1671
1.16806
1.1685
1.16869
1.16879
1.16882
1.16885
1.1689
1.16891
1.16891
1.16892
1.16892
1.16892
1.16892
1.16892
1.16892
1.16892
1.16893
1.16893
1.16893
1.16893
1.16893
1.16893
1.16893
1.16893
1.16893
1.16894
1.16894
1.16894
1.16894
1.16894
1.16894
1.16895
1.16895
1.16895
1.16895
1.16896
1.16896
1.16898
1.16899
1.16928
1.17028
1.17365
1.18112
1.1941
1.20842
1.22159
1.22652
1.24015
1.31372
1.70149
3.3752
50.1355
946.003
1027.1
1027.1
1027.1
1027.1
1027.1
1027.1
1027.1
1027.1
1027.1
1027.1
1027.1
1027.1
1027.1
1027.1
1027.1
1027.1
1027.1
1027.1
1027.1
1027.1
1027.1
1027.1
1027.1
1027.1
1027.1
1027.1
1027.1
1027.1
1027.1
1027.1
1027.1
1027.1
1027.1
1027.1
1027.1
1.16041
1.16052
1.16049
1.16042
1.16043
1.16112
1.1622
1.16633
1.16794
1.16848
1.16866
1.16876
1.1688
1.16885
1.1689
1.16892
1.16892
1.16892
1.16892
1.16892
1.16892
1.16892
1.16893
1.16893
1.16893
1.16893
1.16893
1.16893
1.16894
1.16894
1.16894
1.16894
1.16894
1.16894
1.16895
1.16895
1.16895
1.16895
1.16895
1.16896
1.16896
1.16896
1.16896
1.16897
1.16897
1.16899
1.169
1.16929
1.17028
1.17363
1.1813
1.19442
1.2079
1.22233
1.23076
1.24668
1.28824
1.69993
2.74599
53.292
956.883
1026.8
1027.1
1027.1
1027.1
1027.1
1027.1
1027.1
1027.1
1027.1
1027.1
1027.1
1027.1
1027.1
1027.1
1027.1
1027.1
1027.1
1027.1
1027.1
1027.1
1027.1
1027.1
1027.1
1027.1
1027.1
1027.1
1027.1
1027.1
1027.1
1027.1
1027.1
1027.1
1027.1
1027.1
1027.1
1.16149
1.16275
1.16395
1.16463
1.16508
1.1657
1.16691
1.16835
1.16875
1.1688
1.16883
1.16886
1.16889
1.16891
1.16891
1.16892
1.16892
1.16892
1.16892
1.16892
1.16892
1.16892
1.16893
1.16893
1.16893
1.16893
1.16893
1.16893
1.16894
1.16894
1.16894
1.16894
1.16894
1.16895
1.16895
1.16895
1.16895
1.16895
1.16895
1.16896
1.16896
1.16896
1.16896
1.16897
1.16896
1.16898
1.16899
1.16916
1.17001
1.17384
1.18186
1.1974
1.21265
1.23172
1.23514
1.24453
1.28883
1.90323
4.4879
69.9061
968.917
1026.71
1027.09
1027.1
1027.1
1027.1
1027.1
1027.1
1027.1
1027.1
1027.1
1027.1
1027.1
1027.1
1027.1
1027.1
1027.1
1027.1
1027.1
1027.1
1027.1
1027.1
1027.1
1027.1
1027.1
1027.1
1027.1
1027.1
1027.1
1027.1
1027.1
1027.1
1027.1
1027.1
1027.1
1027.1
1.16056
1.16154
1.16458
1.16507
1.16542
1.166
1.16732
1.16839
1.1686
1.16865
1.16874
1.16882
1.16887
1.1689
1.16891
1.16891
1.16892
1.16892
1.16892
1.16892
1.16892
1.16893
1.16893
1.16893
1.16893
1.16893
1.16893
1.16894
1.16894
1.16894
1.16894
1.16894
1.16894
1.16895
1.16895
1.16895
1.16895
1.16895
1.16895
1.16896
1.16896
1.16896
1.16896
1.16897
1.16896
1.16899
1.16901
1.16924
1.16997
1.17341
1.18248
1.1987
1.21751
1.23089
1.23175
1.24344
1.33513
1.814
3.25408
83.0119
989.97
1027.08
1027.1
1027.1
1027.1
1027.1
1027.1
1027.1
1027.1
1027.1
1027.1
1027.1
1027.1
1027.1
1027.1
1027.1
1027.1
1027.1
1027.1
1027.1
1027.1
1027.1
1027.1
1027.1
1027.1
1027.1
1027.1
1027.1
1027.1
1027.1
1027.1
1027.1
1027.1
1027.1
1027.1
1027.1
1.16042
1.16097
1.16452
1.1653
1.16578
1.16636
1.1675
1.16822
1.16838
1.16849
1.16866
1.16879
1.16886
1.16889
1.16891
1.16891
1.16891
1.16891
1.16891
1.16892
1.16892
1.16892
1.16892
1.16892
1.16892
1.16893
1.16893
1.16893
1.16893
1.16893
1.16893
1.16893
1.16894
1.16894
1.16894
1.16894
1.16894
1.16894
1.16895
1.16895
1.16895
1.16895
1.16895
1.16896
1.16896
1.16898
1.16902
1.1693
1.17018
1.17447
1.1846
1.19977
1.22002
1.23061
1.23181
1.2438
1.29155
1.7157
1.62599
93.1219
1017.01
1027.09
1027.1
1027.1
1027.1
1027.1
1027.1
1027.1
1027.1
1027.1
1027.1
1027.1
1027.1
1027.1
1027.1
1027.1
1027.1
1027.1
1027.1
1027.1
1027.1
1027.1
1027.1
1027.1
1027.1
1027.1
1027.1
1027.1
1027.1
1027.1
1027.1
1027.1
1027.1
1027.1
1027.1
1027.1
1.16043
1.1608
1.164
1.16519
1.16576
1.16652
1.16743
1.16795
1.16821
1.16842
1.16864
1.16878
1.16885
1.16889
1.16891
1.16891
1.16891
1.16891
1.16891
1.16892
1.16892
1.16892
1.16892
1.16892
1.16892
1.16892
1.16892
1.16893
1.16893
1.16893
1.16893
1.16893
1.16893
1.16894
1.16894
1.16894
1.16894
1.16894
1.16894
1.16895
1.16895
1.16895
1.16895
1.16896
1.16896
1.16898
1.16901
1.1693
1.17011
1.17313
1.1812
1.20011
1.21878
1.23321
1.23732
1.25025
1.2809
1.51104
1.57577
88.1679
1015.39
1027.09
1027.09
1027.09
1027.09
1027.09
1027.1
1027.1
1027.1
1027.1
1027.1
1027.1
1027.1
1027.1
1027.1
1027.1
1027.1
1027.1
1027.1
1027.1
1027.1
1027.1
1027.1
1027.1
1027.1
1027.1
1027.1
1027.1
1027.1
1027.1
1027.1
1027.1
1027.1
1027.1
1027.1
1027.1
1.16056
1.16083
1.16328
1.16507
1.16565
1.16647
1.16725
1.16771
1.16811
1.1684
1.16863
1.16877
1.16885
1.16889
1.1689
1.16891
1.16891
1.16891
1.16891
1.16892
1.16892
1.16892
1.16892
1.16892
1.16892
1.16892
1.16892
1.16893
1.16893
1.16893
1.16893
1.16893
1.16893
1.16894
1.16894
1.16894
1.16894
1.16894
1.16894
1.16895
1.16895
1.16895
1.16895
1.16896
1.16896
1.16901
1.16903
1.16927
1.16994
1.17238
1.1805
1.20079
1.21407
1.22166
1.24438
1.26674
1.39189
1.51698
1.53026
122.721
1018.23
1026.77
1026.86
1026.99
1027.03
1027.05
1027.06
1027.07
1027.07
1027.06
1027.06
1027.05
1027.04
1027.04
1027.04
1027.03
1027.02
1027.01
1027.01
1027.01
1027.04
1027.06
1027.08
1027.09
1027.09
1027.1
1027.1
1027.1
1027.1
1027.1
1027.1
1027.1
1027.1
1027.1
1027.1
1027.1
1.16064
1.16077
1.1629
1.16502
1.16549
1.1664
1.16707
1.16764
1.16812
1.16841
1.16864
1.16877
1.16883
1.16888
1.1689
1.1689
1.16891
1.16891
1.16891
1.16891
1.16892
1.16892
1.16892
1.16892
1.16892
1.16892
1.16892
1.16893
1.16893
1.16893
1.16893
1.16893
1.16893
1.16894
1.16894
1.16894
1.16894
1.16894
1.16894
1.16895
1.16895
1.16895
1.16895
1.16896
1.16896
1.16901
1.1691
1.16932
1.17017
1.1738
1.18323
1.19813
1.1989
1.24857
1.31551
1.34866
1.46421
1.47406
1.43305
168.88
1011.45
1023.54
1024.13
1025.06
1025.66
1026.08
1026.27
1026.36
1026.41
1026.34
1026.06
1025.81
1025.6
1025.33
1025.06
1024.84
1024.3
1023.36
1023.2
1023.42
1023.37
1024.37
1025.13
1025.77
1026.2
1026.4
1026.59
1026.84
1027.01
1027.08
1027.1
1027.1
1027.1
1027.1
1027.1
1027.1
1.16067
1.16042
1.16236
1.16451
1.1654
1.16638
1.16715
1.16777
1.16822
1.1685
1.16864
1.16875
1.16881
1.16886
1.16889
1.1689
1.1689
1.16891
1.16891
1.16891
1.16892
1.16892
1.16892
1.16892
1.16893
1.16893
1.16893
1.16893
1.16893
1.16893
1.16893
1.16894
1.16894
1.16894
1.16894
1.16894
1.16894
1.16895
1.16895
1.16895
1.16895
1.16895
1.16895
1.16896
1.16896
1.16899
1.16906
1.16935
1.17002
1.17232
1.1773
1.18688
1.20921
1.29632
1.3943
1.39522
1.39523
1.36678
1.35039
275.894
1004.79
1015.83
1016.54
1017.52
1018.79
1019.95
1020.76
1021.15
1021.18
1020.05
1018.14
1016.26
1015.28
1014.77
1013.99
1013.55
1013.06
1011.98
1010.1
1008.81
1008.49
1009.8
1013.92
1016.46
1016.99
1016.64
1016.17
1018.09
1021.98
1024.81
1026.31
1026.92
1027.09
1027.1
1027.1
1027.09
1.16068
1.16049
1.16192
1.16359
1.16505
1.16606
1.16699
1.16775
1.16831
1.1684
1.16861
1.16873
1.16879
1.16885
1.16889
1.1689
1.1689
1.1689
1.16891
1.16891
1.16891
1.16891
1.16892
1.16892
1.16892
1.16892
1.16892
1.16892
1.16892
1.16893
1.16893
1.16893