/*--------------------------------*- C++ -*----------------------------------*\
| =========                 |                                                 |
| \\      /  F ield         | OpenFOAM: The Open Source CFD Toolbox           |
|  \\    /   O peration     | Version:  2.3.0                                 |
|   \\  /    A nd           | Web:      www.OpenFOAM.org                      |
|    \\/     M anipulation  |                                                 |
\*---------------------------------------------------------------------------*/
FoamFile
{
    version     2.0;
    format      ascii;
    class       volVectorField;
    location    "42";
    object      U;
}
// * * * * * * * * * * * * * * * * * * * * * * * * * * * * * * * * * * * * * //

dimensions      [0 1 -1 0 0 0 0];

internalField   nonuniform List<vector> 
6144
(
(0.0115706 0.020673 0.000502436)
(0.0112653 -0.00735988 -0.00104272)
(0.00500151 -0.00733503 -0.00237893)
(0.00302651 -0.00777557 -0.00247175)
(0.00186213 -0.00542052 -0.00228751)
(0.00262852 -0.00188712 -0.00242696)
(0.00311383 -0.000225777 -0.00212695)
(0.00289834 0.000878783 -0.00143062)
(0.00200815 0.00125049 -0.000895901)
(0.00139054 0.00322189 -0.000123732)
(0.000988148 0.0050889 0.00054858)
(0.00101635 0.00605788 0.00137095)
(0.00126679 0.0059607 0.00190968)
(0.00145642 0.00496828 0.00231844)
(0.00159011 0.00368427 0.00219181)
(0.0017213 0.00247015 0.00190753)
(0.00182084 0.00140912 0.00149781)
(0.00192273 0.000605935 0.00114325)
(0.00200532 -9.3801e-06 0.00079617)
(0.00206678 -0.000357777 0.000500676)
(0.00211676 -0.000525745 0.000256651)
(0.00214399 -0.000554307 0.000128559)
(0.00214837 -0.000508659 7.82521e-05)
(0.00213156 -0.00042294 8.69136e-05)
(0.00209694 -0.000323615 0.000145704)
(0.00204995 -0.000233279 0.000249382)
(0.00199302 -0.000171119 0.000404627)
(0.0019372 -0.000145354 0.00056169)
(0.00188757 -0.000160003 0.000688358)
(0.00183827 -0.000198017 0.000789813)
(0.00179187 -0.000232922 0.000871323)
(0.00175039 -0.000258707 0.000944054)
(0.00171349 -0.000275846 0.0010137)
(0.00167921 -0.000296463 0.00108063)
(0.00164434 -0.000298324 0.00114872)
(0.0016101 -0.000326777 0.00122206)
(0.00157538 -0.000309088 0.00131698)
(0.00153978 -0.00041464 0.00142519)
(0.00150717 -0.000419349 0.00155855)
(0.00147216 -0.000729582 0.00169539)
(0.00143902 -0.000774595 0.00180854)
(0.00142228 -0.00137008 0.00189011)
(0.00139266 -0.0013041 0.00187589)
(0.00141889 -0.00222387 0.00179694)
(0.00134964 -0.00142004 0.00148191)
(0.00142306 -0.00241178 0.00108886)
(0.00151936 0.000325856 0.000396851)
(0.00185417 -0.000658725 -0.000192956)
(0.00326718 0.0034842 -0.000826051)
(0.00386176 -0.00236841 -0.00170658)
(0.00581072 0.00642496 -0.00257489)
(0.00417061 -0.0114933 -0.00253599)
(0.00827022 0.00979282 -0.00442041)
(0.00526596 -0.0178439 -0.00588698)
(0.00801962 0.0317972 -0.00749806)
(-0.00453424 -0.0308874 -0.0051401)
(0.014942 0.0748131 0.0132337)
(0.00295957 -0.0585267 -0.00700124)
(-0.0487804 0.0955674 -0.120552)
(0.0062161 0.0288914 -0.092234)
(0.0821611 -0.217463 0.012443)
(0.0624083 -0.0692013 -0.000192186)
(0.0363287 -0.153725 -0.012083)
(0.033724 -0.174886 -0.00910608)
(0.0285852 -0.175687 -0.00539161)
(0.0210497 -0.182671 -0.00414133)
(0.0134671 -0.185942 -0.00357184)
(0.00814244 -0.181098 -0.00309379)
(0.00432513 -0.168683 -0.0026993)
(-0.00144098 -0.149485 -0.00224384)
(-0.00655671 -0.124234 -0.00145586)
(-0.0109627 -0.0984742 -0.00340067)
(-0.0167059 -0.0657767 -0.00299739)
(-0.013141 -0.0345682 -0.00055604)
(-0.00472123 -0.018208 -0.00027331)
(0.000111688 -0.00923919 -0.00127814)
(0.00342919 -0.00381866 -0.000676233)
(0.00522372 -0.00480117 0.00129373)
(0.00483867 -0.00982133 0.00333338)
(0.00211518 -0.0154816 0.00536254)
(-0.00193794 -0.0197817 0.00616963)
(-0.00507911 -0.021002 0.00500398)
(-0.0063767 -0.0191614 0.00311408)
(-0.00581552 -0.0148808 0.000716087)
(-0.0033725 -0.00809105 -0.00180205)
(0.000206225 -0.000590984 -0.00347741)
(0.00434361 0.00441764 -0.00599421)
(0.00989049 0.00634085 -0.00866249)
(0.0178236 0.00255578 -0.0116893)
(0.0258154 -0.00781358 -0.0144979)
(0.029132 -0.0275734 -0.0161557)
(0.0288135 -0.0428767 -0.0168147)
(0.0182561 -0.0546174 -0.0129588)
(0.00455714 -0.0516373 -0.00825697)
(-0.00840511 -0.0288297 -0.00327279)
(-0.0127119 -0.00899493 0.00341435)
(0.0221928 0.0203346 0.00359773)
(0.0233274 0.0028745 0.00305948)
(0.0106094 -0.00016846 -0.000854239)
(0.00932014 -0.00266148 -0.000733077)
(0.00506073 -0.00456269 -0.000587645)
(0.00509453 -0.00300055 -0.000478206)
(0.00446728 -0.00135267 0.000819897)
(0.00383401 0.000758749 0.00206204)
(0.00213916 0.00177695 0.00208948)
(0.00111645 0.00470751 0.00218418)
(0.00117619 0.00671529 0.00258798)
(0.00176651 0.00761664 0.00353678)
(0.0025277 0.00727558 0.00416282)
(0.00304416 0.00634621 0.00451738)
(0.00326237 0.00496779 0.00455017)
(0.00340542 0.00365068 0.00446267)
(0.00345466 0.00242257 0.00429874)
(0.00354233 0.00147153 0.00416646)
(0.00359511 0.000694689 0.00405276)
(0.00361857 0.00018035 0.00396978)
(0.00366577 -0.000126961 0.00383028)
(0.00367409 -0.000271046 0.00375955)
(0.00364258 -0.000316851 0.00375312)
(0.00357593 -0.000299756 0.00380008)
(0.00348006 -0.000252323 0.00388956)
(0.00336665 -0.000197299 0.00400816)
(0.00324534 -0.000154383 0.00414419)
(0.00313507 -0.000134415 0.00425856)
(0.00304662 -0.00014004 0.00432667)
(0.00295467 -0.000157264 0.00438964)
(0.00286252 -0.000165085 0.00445068)
(0.00277954 -0.000167904 0.00451044)
(0.00270741 -0.000167607 0.00456921)
(0.00263905 -0.000178834 0.00462661)
(0.00257267 -0.000176658 0.00468511)
(0.00250646 -0.000217199 0.00474268)
(0.00245622 -0.000206076 0.00480797)
(0.00240062 -0.000343208 0.00487263)
(0.00239589 -0.00033733 0.00495013)
(0.00235901 -0.000710233 0.00503057)
(0.00239346 -0.000700229 0.00508996)
(0.00238161 -0.00139853 0.00515424)
(0.00239721 -0.00116427 0.00514332)
(0.00238205 -0.00217735 0.00517074)
(0.00215913 -0.0010476 0.00501484)
(0.00195198 -0.00204673 0.00484478)
(0.00197851 0.00107023 0.0041511)
(0.00261849 9.31782e-05 0.00374712)
(0.0061097 0.00461439 0.00355085)
(0.0071328 -0.000553935 0.00235019)
(0.0149552 0.00935911 0.000992126)
(0.00948798 -0.00701846 -0.000656274)
(0.00960335 0.0169867 0.000140552)
(0.00160593 -0.00259153 -0.00351044)
(0.0195576 0.0424111 -0.00226922)
(0.0210258 -0.0338581 -0.00344122)
(-0.0183977 0.0224887 -0.00166887)
(-0.0034934 -0.00553784 -0.0398482)
(0.0475463 0.163449 -0.056286)
(0.137641 0.0205507 -0.0445757)
(0.141478 -0.215004 0.0498029)
(0.0904827 -0.0249909 0.0271274)
(0.0453878 -0.127393 -0.010255)
(0.0412751 -0.11598 0.00390288)
(0.0310242 -0.12248 0.00948468)
(0.0134699 -0.137695 0.0088228)
(7.28203e-05 -0.143966 0.00721774)
(-0.00995718 -0.141022 0.00671339)
(-0.0185654 -0.132431 0.00558305)
(-0.0251104 -0.119638 0.00436089)
(-0.027477 -0.101181 0.00393419)
(-0.0292345 -0.0783868 -0.000177785)
(-0.0285845 -0.0511071 -0.000347165)
(-0.0224179 -0.0260497 0.00132968)
(-0.0141372 -0.00718624 0.00109053)
(-0.00655531 0.00610202 0.00388858)
(-0.00152745 0.0106552 0.0083188)
(-3.6199e-05 0.00781869 0.0135156)
(-0.00185475 0.00116548 0.0171466)
(-0.00615879 -0.00654937 0.0182178)
(-0.0106878 -0.0129054 0.0151646)
(-0.0130742 -0.015241 0.0108338)
(-0.0137692 -0.0143946 0.00717446)
(-0.0134152 -0.0111062 0.00306516)
(-0.0112256 -0.00513042 -0.000250148)
(-0.00372539 0.000215368 -0.000444668)
(0.00637196 0.0015971 -0.000861581)
(0.0179876 0.000852524 -0.00160403)
(0.0323633 -0.00483955 -0.00392173)
(0.049711 -0.0110838 -0.00672409)
(0.0561718 -0.0257569 -0.0100394)
(0.04567 -0.0314616 -0.00920009)
(0.0190319 -0.0336733 -0.00617478)
(-0.00737519 -0.0277716 -0.00455581)
(-0.0207235 -0.0124624 -0.00110067)
(-0.0260306 -0.00312068 0.00564995)
(0.0261132 0.0230281 0.00475543)
(0.0261721 0.0115319 0.00459408)
(0.0167794 0.00783778 0.00203353)
(0.0138563 0.00448076 0.00318118)
(0.00695437 -7.33588e-05 0.00358401)
(0.00495465 0.000322332 0.00326629)
(0.0022027 -2.17624e-05 0.00372025)
(0.00108969 0.00167145 0.00397067)
(-0.000656064 0.00181953 0.00369587)
(-0.00134041 0.00425318 0.00361081)
(-0.000757347 0.00578336 0.00377174)
(0.000564121 0.00672678 0.00433813)
(0.00153469 0.00657942 0.00482682)
(0.0022216 0.00622105 0.00516139)
(0.00255911 0.00533328 0.00519934)
(0.00274497 0.0044266 0.00514007)
(0.00278762 0.00341483 0.00501481)
(0.00285942 0.00258286 0.00492935)
(0.00288465 0.00185153 0.00486887)
(0.002856 0.00126681 0.00485296)
(0.00277185 0.000806849 0.00486501)
(0.00267416 0.000496492 0.00490096)
(0.0025672 0.000287972 0.00494883)
(0.00244625 0.000162629 0.00500598)
(0.00231442 9.11424e-05 0.00506826)
(0.00218025 5.59268e-05 0.00513112)
(0.00205128 3.7667e-05 0.00519265)
(0.00192139 2.45032e-05 0.005253)
(0.0017798 2.42696e-05 0.00531355)
(0.00163148 4.39242e-05 0.00537431)
(0.00149038 7.18002e-05 0.00543697)
(0.00136804 9.3533e-05 0.00549892)
(0.00126452 0.000109173 0.00555969)
(0.00116889 0.000105964 0.00561776)
(0.0010842 0.000106995 0.00567639)
(0.000995765 5.2671e-05 0.00572691)
(0.000937954 4.4363e-05 0.00578922)
(0.000867925 -9.94124e-05 0.00583915)
(0.000877307 -9.08655e-05 0.00591481)
(0.000844306 -0.000408283 0.00597597)
(0.000897574 -0.000299841 0.00604021)
(0.000849675 -0.000861638 0.00609653)
(0.000841613 -0.000381505 0.00611388)
(0.000677525 -0.00124719 0.00615948)
(0.000378218 7.64372e-05 0.00606062)
(2.63656e-05 -0.000857506 0.00595222)
(0.000261941 0.00175892 0.00563961)
(0.00129309 0.00119654 0.00561764)
(0.00535803 0.00488482 0.00582127)
(0.00768422 0.00312931 0.00506613)
(0.0144461 0.0128631 0.00182099)
(0.00570942 0.020538 -0.000386948)
(0.00466619 0.0362115 0.00408581)
(0.0040754 0.00987553 0.00713391)
(0.0358556 0.0282135 0.00429176)
(0.0436539 -0.0432635 0.00232061)
(-0.022994 0.0364107 0.00649341)
(-0.0396753 -0.0801937 -0.0149317)
(-0.0017374 0.171448 -0.0788203)
(0.14624 0.00497091 -0.00908169)
(0.170377 -0.202164 0.0614257)
(0.114145 0.0281495 0.0211218)
(0.0878292 -0.107825 -0.0108767)
(0.0698521 -0.0714078 0.00750675)
(0.0434076 -0.0901396 0.0111163)
(0.0228239 -0.103538 0.0104376)
(0.00630062 -0.107339 0.00712006)
(-0.00865934 -0.10547 0.00552272)
(-0.0224229 -0.0976936 0.00499812)
(-0.0370819 -0.0855335 0.00484887)
(-0.0477045 -0.0663513 0.00303857)
(-0.0499829 -0.0469386 0.000576251)
(-0.0486073 -0.025064 0.000666283)
(-0.0411622 -0.00113027 4.88082e-05)
(-0.0273006 0.0156125 0.00415603)
(-0.016064 0.0217426 0.0102869)
(-0.0104474 0.0209222 0.0171128)
(-0.0103979 0.0155272 0.0230572)
(-0.0141258 0.00767315 0.0256125)
(-0.0195348 -0.00012452 0.0224362)
(-0.0238786 -0.00525196 0.0160589)
(-0.0249835 -0.00574846 0.0102168)
(-0.0242563 -0.00402187 0.00500392)
(-0.0211305 -0.000820956 0.00124066)
(-0.013621 0.00193897 0.00109435)
(-0.00249816 0.00294955 0.00316679)
(0.00937526 0.00254635 0.00427004)
(0.0231223 0.00122427 0.00398894)
(0.0402775 -0.00329926 0.00124292)
(0.0611761 -0.00726525 -0.0041465)
(0.0696184 -0.0135495 -0.00917703)
(0.0523468 -0.0150895 -0.00741537)
(0.0157045 -0.0122371 0.000205768)
(-0.0127414 -0.00666737 0.00143284)
(-0.0297373 0.000263882 0.003222)
(-0.0370364 0.000359753 0.00810579)
(0.0285174 0.0266858 0.00450098)
(0.0291411 0.0188891 0.00500135)
(0.0194768 0.0147574 0.00213913)
(0.0166646 0.0113208 0.00310656)
(0.00823887 0.00540523 0.00372176)
(0.00507946 0.00407649 0.00369424)
(0.00144992 0.00170244 0.00441426)
(-8.95933e-05 0.00250568 0.00452704)
(-0.00235912 0.00145843 0.00437285)
(-0.00334331 0.00303586 0.00404057)
(-0.00243654 0.00415682 0.0041353)
(-0.000878058 0.00519824 0.00465502)
(0.000242835 0.0054903 0.00502679)
(0.00103746 0.00557163 0.00533687)
(0.00141715 0.00509435 0.005374)
(0.00163084 0.00452832 0.00535918)
(0.00164473 0.00371279 0.00528885)
(0.00163825 0.00300613 0.00525558)
(0.00159993 0.00235341 0.00522546)
(0.00153754 0.00180427 0.00521386)
(0.00141705 0.00132374 0.00520947)
(0.00126791 0.000938524 0.00521999)
(0.0011058 0.000632333 0.00524496)
(0.000936982 0.000411702 0.00528252)
(0.000768863 0.000264243 0.00532709)
(0.000609157 0.000180474 0.0053736)
(0.00046589 0.000144852 0.00541788)
(0.00033245 0.000141503 0.00545815)
(0.000196286 0.000154836 0.00549677)
(5.62204e-05 0.00017789 0.00554071)
(-6.73029e-05 0.00020324 0.00559163)
(-0.000168786 0.000222411 0.00564346)
(-0.000250893 0.000240364 0.00569361)
(-0.000324185 0.000247439 0.00573933)
(-0.00038306 0.000257114 0.00578105)
(-0.000443384 0.000216434 0.00581449)
(-0.000460689 0.000223062 0.00585673)
(-0.000497711 8.54121e-05 0.0058787)
(-0.000419643 0.000129847 0.00594269)
(-0.000459416 -0.000161452 0.00595139)
(-0.000339712 5.55943e-05 0.00602851)
(-0.000445631 -0.000438789 0.00601375)
(-0.000359114 0.000139716 0.00607053)
(-0.000644149 -0.000678759 0.00607587)
(-0.000866722 0.000529416 0.00598459)
(-0.00148842 -1.80759e-05 0.00583975)
(-0.00165215 0.00273128 0.00525228)
(-0.000818493 0.0034545 0.00529283)
(0.00273907 0.00848538 0.00548596)
(0.00425254 0.0121433 0.00472969)
(0.00355888 0.0284182 0.00114242)
(-0.000129793 0.0393588 0.00381851)
(0.00352136 0.0457226 0.00980883)
(0.0128421 -0.00130105 0.0189935)
(0.0490858 -0.0110318 0.0231154)
(0.0176202 -0.0636919 0.0203295)
(-0.0232413 0.0300642 0.0092749)
(-0.0960792 -0.125464 -0.00636385)
(0.0379868 0.204862 -0.125016)
(0.173333 -0.0207762 0.00818279)
(0.192778 -0.204829 0.0669136)
(0.12517 0.0504158 0.0124774)
(0.105522 -0.0976939 -0.00685631)
(0.0633486 -0.0157925 -0.0013581)
(0.0284109 -0.0657768 0.00492119)
(0.0128584 -0.0609997 0.00123914)
(-0.0046259 -0.0668815 -0.00273499)
(-0.0213844 -0.0632318 -0.00392555)
(-0.0359426 -0.0549994 -0.00247123)
(-0.0475225 -0.0447006 -0.000458446)
(-0.0564993 -0.0294748 -0.000445815)
(-0.064284 -0.0106039 -0.00162346)
(-0.0636393 0.0135659 -0.00220986)
(-0.0484753 0.0295126 0.00340789)
(-0.0342028 0.0338412 0.0107802)
(-0.0259057 0.0341236 0.0184932)
(-0.0229882 0.0310574 0.0259869)
(-0.0247539 0.0252292 0.0299505)
(-0.0288383 0.0174393 0.0277584)
(-0.0314005 0.0114238 0.0211128)
(-0.0322466 0.00912012 0.0135683)
(-0.0310777 0.00913171 0.00690006)
(-0.0271256 0.00995461 0.00287343)
(-0.021008 0.00982898 0.00218713)
(-0.0129093 0.0084212 0.00393199)
(-0.00362772 0.00662316 0.00581009)
(0.00786625 0.00473395 0.00626878)
(0.0222796 0.00306143 0.00555801)
(0.0411731 0.00120717 0.00148332)
(0.0650716 0.00228623 -0.00695241)
(0.0751145 0.00310559 -0.0128945)
(0.0474185 0.00713199 -0.0113471)
(0.00221522 0.00597662 0.00333843)
(-0.022276 0.009368 0.0035853)
(-0.0350966 0.00769981 0.00558664)
(-0.0404437 0.00304146 0.00920196)
(0.0298987 0.0277946 0.00479917)
(0.0315377 0.0244145 0.00533769)
(0.0235688 0.0197389 0.00254935)
(0.0218556 0.0170311 0.00196435)
(0.011897 0.0101256 0.00152044)
(0.00797 0.00695608 0.00160283)
(0.00137377 0.00179005 0.00290955)
(-0.0006992 0.00261407 0.00331292)
(-0.00329146 0.000694985 0.00388497)
(-0.00481283 0.0019621 0.00403221)
(-0.0043094 0.00292407 0.00418559)
(-0.00288691 0.00421464 0.00471195)
(-0.00182605 0.00473181 0.00493187)
(-0.000928765 0.00498941 0.00522006)
(-0.000472866 0.0047012 0.00522236)
(-0.000265156 0.00426386 0.00523798)
(-0.000347133 0.0035878 0.00520522)
(-0.000533177 0.0030136 0.00521898)
(-0.000722645 0.00247805 0.00520805)
(-0.000895216 0.00200916 0.00518306)
(-0.00107577 0.00155425 0.00514022)
(-0.00125353 0.00114236 0.00511058)
(-0.00142455 0.000795031 0.00509496)
(-0.00159752 0.000526436 0.00508894)
(-0.00177322 0.000334635 0.00508856)
(-0.00193204 0.000215041 0.00509314)
(-0.00206251 0.0001509 0.00510227)
(-0.00217077 0.000126677 0.00511487)
(-0.00228124 0.000125667 0.00512951)
(-0.0023976 0.000143954 0.00514403)
(-0.00250143 0.000177462 0.0051609)
(-0.00258457 0.000212448 0.0051759)
(-0.00264716 0.000246065 0.00518848)
(-0.00269562 0.00026793 0.00519795)
(-0.00272247 0.000291112 0.0052048)
(-0.00274357 0.000267736 0.00520609)
(-0.00272875 0.000287843 0.00521731)
(-0.00274488 0.00017612 0.00520936)
(-0.00264218 0.000263372 0.00524496)
(-0.00269029 3.92411e-05 0.00521417)
(-0.00251546 0.000318071 0.00526987)
(-0.00266522 -4.5359e-05 0.00520562)
(-0.00251648 0.000573454 0.00524271)
(-0.00292922 0.000148566 0.00516547)
(-0.0032883 0.00146834 0.00489171)
(-0.0042986 0.00164588 0.00441988)
(-0.00471471 0.00462376 0.00315073)
(-0.00398887 0.00615363 0.00248117)
(-0.00197298 0.0123466 0.00172122)
(-0.00223387 0.0201884 0.00173214)
(-0.00458368 0.0311422 0.00119605)
(-0.0048329 0.0312485 0.003704)
(0.0204628 0.034718 0.0164357)
(0.0572044 -0.0318488 0.0377204)
(0.067123 -0.0439589 0.0278402)
(0.0316882 -0.0979663 0.0223166)
(-0.0035876 -0.0659582 0.0383147)
(-0.108223 -0.160428 0.0419418)
(0.0211318 0.140518 -0.144176)
(0.160623 -0.0220669 0.038543)
(0.191065 -0.180888 0.0770081)
(0.113899 0.096579 -0.0117175)
(0.118621 -0.0658087 0.00649294)
(0.0511836 0.0442715 -0.00672369)
(0.0402424 -0.0444556 0.00961298)
(0.0240804 -0.0199811 0.00260108)
(0.00190951 -0.0252261 -0.00213677)
(-0.0166063 -0.01283 -0.00182289)
(-0.0394548 -0.00201178 -0.000844693)
(-0.0601852 0.0119859 -0.00126462)
(-0.0738997 0.0251276 -0.00240786)
(-0.076839 0.0371274 -0.00288227)
(-0.0651395 0.0447921 0.00168992)
(-0.0501687 0.0445763 0.009074)
(-0.0413619 0.0435423 0.0168636)
(-0.0387592 0.0431333 0.0249721)
(-0.0405793 0.0410541 0.0310261)
(-0.0439716 0.0375014 0.0321933)
(-0.044469 0.0328685 0.0266845)
(-0.0424528 0.0311196 0.0180391)
(-0.0384215 0.0305889 0.00974305)
(-0.032035 0.0287737 0.00417798)
(-0.0242067 0.0255997 0.00234119)
(-0.0167877 0.0200679 0.00266348)
(-0.00964593 0.0142979 0.00385779)
(-0.00195945 0.00916511 0.00499871)
(0.0089845 0.00559857 0.00527286)
(0.023108 0.00374145 0.00394937)
(0.041591 0.00283799 -0.000643089)
(0.0658861 0.00890509 -0.00991486)
(0.0750101 0.0184999 -0.0174722)
(0.0486595 0.029195 -0.0190525)
(-0.00178965 0.0195745 0.0023401)
(-0.0248712 0.0197831 0.00537078)
(-0.035356 0.0114915 0.00462933)
(-0.0398514 0.00505477 0.00737285)
(0.0287343 0.0285343 0.00882947)
(0.0318345 0.0268839 0.00680319)
(0.0251839 0.0223852 0.0036691)
(0.0254741 0.0211946 0.00255034)
(0.0174379 0.0145333 -5.54158e-05)
(0.0142098 0.0108863 -8.8729e-05)
(0.00404148 0.00260042 -0.000339261)
(-0.000297404 0.00292885 0.000364836)
(-0.00373188 -0.000511093 0.00189025)
(-0.00661522 0.000479409 0.00295404)
(-0.00613732 0.00132215 0.00340369)
(-0.00442685 0.00288312 0.0042231)
(-0.00275666 0.00366872 0.00450014)
(-0.00152732 0.00417572 0.00505186)
(-0.000875777 0.00396677 0.0052565)
(-0.000603878 0.0035864 0.00546056)
(-0.000797219 0.00297051 0.00545885)
(-0.00115046 0.00252121 0.00545119)
(-0.00145787 0.00216722 0.00539792)
(-0.00170696 0.00189701 0.00531318)
(-0.00194042 0.00161333 0.00518711)
(-0.00216671 0.00132459 0.00505656)
(-0.00239538 0.00105636 0.00493279)
(-0.00260345 0.000826047 0.00482258)
(-0.00278547 0.000654937 0.00472356)
(-0.00293226 0.000546066 0.00462725)
(-0.00304221 0.000478 0.00453798)
(-0.00313039 0.000434586 0.00446085)
(-0.00322052 0.000402649 0.00440553)
(-0.00332295 0.00039049 0.00436785)
(-0.00340295 0.00040361 0.00434515)
(-0.00345498 0.00043031 0.0043295)
(-0.00348362 0.000465373 0.00431694)
(-0.00349581 0.000499284 0.00430389)
(-0.00348444 0.000535401 0.00429124)
(-0.00346417 0.000530945 0.0042792)
(-0.00340069 0.000573094 0.00428292)
(-0.00337113 0.00050375 0.00427254)
(-0.00322891 0.000637212 0.00430671)
(-0.00325388 0.000500807 0.00427648)
(-0.00309706 0.000853132 0.00431196)
(-0.00328541 0.000715574 0.00417787)
(-0.00326498 0.00142867 0.00406139)
(-0.00371828 0.00139299 0.00370032)
(-0.00420065 0.00276326 0.00300413)
(-0.00504037 0.00309418 0.00200146)
(-0.00527809 0.00550998 0.000172601)
(-0.0054062 0.00658195 -0.00162778)
(-0.00570975 0.0122216 -0.00347834)
(-0.00628207 0.0173627 -0.00303112)
(-0.00504537 0.0261827 0.000870466)
(0.00299719 0.0176159 0.00822414)
(0.0393044 0.015715 0.024165)
(0.0764164 -0.0315151 0.0518842)
(0.0687819 -0.0157508 0.0667356)
(0.0235214 -0.0550908 0.0508948)
(-0.0412484 -0.0160821 0.0835583)
(-0.146082 -0.139109 0.111518)
(0.036578 0.0996245 -0.133254)
(0.132584 -0.0420687 0.0504847)
(0.17125 -0.147464 0.077659)
(0.091919 0.109555 -0.0222351)
(0.102239 0.0287515 0.00157112)
(0.0589538 0.0663245 -0.00413148)
(0.042244 0.0376826 -0.00500187)
(0.00440107 0.0458423 -0.00442983)
(-0.00985866 0.0426583 -0.00570194)
(-0.0324588 0.0497508 -0.00558663)
(-0.0508215 0.0537858 -0.00626726)
(-0.0637691 0.0575406 -0.00657777)
(-0.0692476 0.0582835 -0.00610146)
(-0.0669743 0.0579518 -0.000597258)
(-0.0576843 0.0575116 0.00716529)
(-0.0540347 0.0569099 0.0152561)
(-0.0557441 0.0607916 0.0246567)
(-0.058702 0.0652654 0.0324031)
(-0.0592229 0.0666786 0.0358267)
(-0.0564223 0.0645697 0.032769)
(-0.0522945 0.0598263 0.0213111)
(-0.0458004 0.0579988 0.0103888)
(-0.0364463 0.0548985 0.00262022)
(-0.0250376 0.0503024 -5.6387e-05)
(-0.0149247 0.0415714 9.0527e-05)
(-0.00742331 0.0299693 0.00027165)
(-0.00131107 0.0190619 0.00101573)
(0.00466661 0.00982966 0.00215988)
(0.013047 0.00350967 0.00263938)
(0.0250092 0.000479112 0.00123262)
(0.0416281 0.00142853 -0.00288395)
(0.0647312 0.0103761 -0.0105668)
(0.0766844 0.0237846 -0.0197624)
(0.0576024 0.0404461 -0.0283598)
(-0.0019875 0.0304699 -0.0127074)
(-0.0226011 0.0228835 0.000605459)
(-0.0328837 0.0119525 0.00174154)
(-0.0372166 0.00584746 0.00356633)
(0.0256811 0.0282931 0.00976406)
(0.0305155 0.0296037 0.00851363)
(0.0239895 0.0241469 0.00471759)
(0.0253026 0.0241876 0.00476638)
(0.0203443 0.0168534 0.00107225)
(0.0188425 0.0139561 0.00120295)
(0.0079101 0.004412 -0.00196108)
(0.0016343 0.00414216 -0.00177361)
(-0.00259215 -0.000824973 -7.2656e-05)
(-0.00698656 -0.000419186 0.00157217)
(-0.00761905 -0.000131109 0.00235018)
(-0.00639882 0.00190581 0.00367065)
(-0.00527237 0.00273273 0.00413084)
(-0.00379002 0.00315595 0.00512342)
(-0.00300142 0.00296251 0.00575417)
(-0.00274641 0.00274149 0.00625733)
(-0.00309635 0.00228388 0.0063606)
(-0.0037753 0.00198751 0.00627342)
(-0.00434151 0.00179304 0.00609609)
(-0.00472696 0.00171788 0.0058946)
(-0.00497384 0.0016471 0.00564902)
(-0.00517019 0.00157161 0.00540668)
(-0.00532843 0.00148575 0.00518011)
(-0.00547279 0.001399 0.00498826)
(-0.00563005 0.00134134 0.0048417)
(-0.00572304 0.00130576 0.00469664)
(-0.00575956 0.00127143 0.00456966)
(-0.00574904 0.00122592 0.00448603)
(-0.00575963 0.00116628 0.00443699)
(-0.00580407 0.00112783 0.00441758)
(-0.00584059 0.00111615 0.00441652)
(-0.00585369 0.00112315 0.0044218)
(-0.00584433 0.00114555 0.00442955)
(-0.00581531 0.00117734 0.00444158)
(-0.00575358 0.00121931 0.00446086)
(-0.00568402 0.0012454 0.00447776)
(-0.00560824 0.00131321 0.0044921)
(-0.00554993 0.00133531 0.00450373)
(-0.00545498 0.00152131 0.0045321)
(-0.00543464 0.00154161 0.00453066)
(-0.00540732 0.00195248 0.00451948)
(-0.00547409 0.00199369 0.00436362)
(-0.00553679 0.00264752 0.00412281)
(-0.00570336 0.0026385 0.00360961)
(-0.00604497 0.00361872 0.00273236)
(-0.00641243 0.003383 0.0013735)
(-0.00650704 0.00479485 -0.00102882)
(-0.00694656 0.00434694 -0.00472272)
(-0.00760701 0.00835635 -0.00762893)
(-0.00758506 0.00921476 -0.00831022)
(-0.00604232 0.0149904 -0.0053044)
(0.00598787 0.00526143 0.00266304)
(0.0415288 0.00845269 0.0323243)
(0.0496309 -0.00592707 0.0575149)
(0.0247375 0.0261941 0.0770068)
(-0.000354378 -0.02027 0.0937111)
(-0.0136557 -0.0118097 0.145197)
(-0.0847927 -0.152615 0.165591)
(0.0409992 0.0423916 -0.0933116)
(0.0843991 -0.0411501 0.0566232)
(0.111962 -0.0901314 0.0627607)
(0.073876 0.132384 -0.0176527)
(0.0909144 0.0768366 0.00408702)
(0.0684933 0.114339 0.00207888)
(0.0420645 0.0984011 -0.00209103)
(0.0227568 0.0982178 -0.00353829)
(-0.000405594 0.0896743 -0.00538484)
(-0.0198549 0.0936022 -0.00443744)
(-0.037311 0.0881594 -0.00418546)
(-0.0500083 0.0900892 -0.00114211)
(-0.0565607 0.0879233 0.00465406)
(-0.0602481 0.0898259 0.0119424)
(-0.0639511 0.0932692 0.0195037)
(-0.0684827 0.0967487 0.0273813)
(-0.0729128 0.0972521 0.0328033)
(-0.075265 0.0934332 0.0349065)
(-0.0752834 0.0856786 0.0283508)
(-0.0715491 0.0817659 0.0153623)
(-0.0627712 0.0847396 0.00312334)
(-0.0480268 0.088698 -0.000841384)
(-0.0297913 0.0869359 0.00104656)
(-0.0121881 0.0773744 0.00493277)
(0.00455625 0.0646636 0.0100702)
(0.0147921 0.0459938 0.0134518)
(0.0183667 0.0277178 0.0137065)
(0.0185608 0.010834 0.0112026)
(0.0233586 -0.00213502 0.0083987)
(0.032625 -0.00689316 0.00398922)
(0.0448686 -0.00570893 -0.000838109)
(0.0601078 0.0031302 -0.00789416)
(0.0758891 0.0230077 -0.0178915)
(0.0679734 0.0404744 -0.0298445)
(0.0216481 0.0358552 -0.030615)
(-0.00834497 0.0225012 -0.00599465)
(-0.0241741 0.012224 -0.0046419)
(-0.0284298 0.00553793 -0.00413245)
(0.024608 0.0239006 0.00813362)
(0.0283933 0.0315064 0.00808026)
(0.0209714 0.0259402 0.00410989)
(0.0246558 0.0276744 0.00452153)
(0.0205203 0.0190973 0.00180555)
(0.0212461 0.0155522 0.00362799)
(0.01026 0.00495406 -0.00124555)
(0.00286997 0.00464174 -0.00262043)
(-0.00190618 -0.000508331 -9.30265e-05)
(-0.00708491 0.000124497 0.00126318)
(-0.00851288 -0.00103247 0.0021305)
(-0.00749215 0.000355401 0.00362016)
(-0.00501306 0.00035859 0.00471927)
(-0.00322742 0.000593527 0.00601431)
(-0.00261135 0.000465459 0.00694349)
(-0.00254508 0.000752552 0.00782193)
(-0.00288514 0.000997115 0.00825442)
(-0.00347366 0.00131366 0.00833553)
(-0.00399308 0.00153608 0.00820838)
(-0.00435969 0.00180465 0.00799374)
(-0.00462945 0.00200745 0.0076916)
(-0.00484305 0.00211635 0.00737978)
(-0.00501332 0.00216438 0.00708932)
(-0.00515826 0.00217238 0.00682603)
(-0.00528341 0.00214773 0.00659947)
(-0.00535456 0.00210382 0.00641247)
(-0.00536158 0.00205012 0.00625962)
(-0.00531844 0.00197326 0.00615395)
(-0.00530012 0.00187326 0.0060892)
(-0.00531948 0.00180015 0.0060587)
(-0.00532468 0.00177914 0.00605005)
(-0.00530664 0.00178309 0.00604767)
(-0.00527611 0.00180491 0.00604163)
(-0.00523606 0.00184574 0.0060261)
(-0.00516586 0.00189863 0.00600188)
(-0.00508784 0.00194626 0.00596939)
(-0.00501264 0.00202769 0.00593044)
(-0.0049349 0.00210078 0.00588196)
(-0.00486364 0.00231649 0.00584115)
(-0.00482377 0.00238185 0.00576067)
(-0.00482751 0.00275793 0.00568677)
(-0.00477876 0.00278121 0.00546665)
(-0.00484512 0.00329343 0.00521126)
(-0.00480523 0.00307872 0.00473096)
(-0.00504689 0.00361238 0.00414359)
(-0.00505629 0.00249751 0.00330206)
(-0.00524555 0.0029283 0.00142369)
(-0.00677906 -0.000104776 -0.0024287)
(-0.0092186 0.000749911 -0.00626342)
(-0.00805085 -0.00619709 -0.00897163)
(-0.00327307 -0.0121835 -0.0106421)
(0.00565339 -0.0279987 -0.00337235)
(0.0201412 -0.0242693 0.0119101)
(0.0161333 -0.0143371 0.0497668)
(-0.0124568 0.0211356 0.0855737)
(-0.0334953 -0.0163226 0.118558)
(-0.0110331 -0.025882 0.158635)
(-0.0186445 -0.121273 0.145035)
(0.0313873 -0.022484 -0.0978242)
(0.0385122 -0.041613 0.0528625)
(0.0489085 -0.0537788 0.0585894)
(0.0513246 0.153907 -0.0141987)
(0.0579747 0.126181 0.00665696)
(0.0543767 0.166132 0.0104292)
(0.0372977 0.167717 0.00927138)
(0.021049 0.16664 0.00711935)
(0.000772239 0.159699 0.00375537)
(-0.0163509 0.156922 0.00436878)
(-0.0340479 0.148484 0.00531117)
(-0.0463351 0.14718 0.00788845)
(-0.0559945 0.141806 0.0110502)
(-0.0659138 0.140249 0.0153421)
(-0.0727803 0.136369 0.0171447)
(-0.0779498 0.132169 0.019767)
(-0.0799144 0.12641 0.0204565)
(-0.0800458 0.120697 0.014596)
(-0.0791087 0.120392 0.00520623)
(-0.0721364 0.125672 -0.00109721)
(-0.0561479 0.133343 0.0010566)
(-0.0344401 0.131802 0.00730541)
(-0.00996219 0.123948 0.0156406)
(0.0113598 0.10603 0.0209996)
(0.0274446 0.0840422 0.0247303)
(0.040009 0.0586568 0.0282802)
(0.0474725 0.0325607 0.029458)
(0.0525191 0.00630498 0.0281552)
(0.0525506 -0.0185264 0.0244821)
(0.0501439 -0.0266666 0.0183697)
(0.0499409 -0.0252927 0.0133928)
(0.0544316 -0.015347 0.00705727)
(0.0650007 0.00749089 0.00142772)
(0.0659016 0.0317303 -0.0051462)
(0.0314272 0.0374989 -0.0251889)
(-0.0074475 0.0395915 -0.0240703)
(-0.026574 0.0147425 -0.0403999)
(-0.0393547 0.0108508 -0.0697636)
(0.0132852 0.0192878 -0.00293125)
(0.025261 0.0288602 0.0061958)
(0.0155099 0.0254024 0.00166923)
(0.0232942 0.0304334 0.00307223)
(0.0200491 0.0205896 0.00148528)
(0.0215883 0.0181588 0.00418029)
(0.0122093 0.00569747 -0.000551957)
(0.00428652 0.00480033 -0.00545498)
(-0.00292017 -0.000533739 -0.0035603)
(-0.00704372 0.00131712 -0.00256796)
(-0.0089277 -0.0015818 -0.00122852)
(-0.00825018 -0.00117606 -0.000253238)
(-0.00748394 -0.00212547 0.000912401)
(-0.00651682 -0.00155511 0.00212961)
(-0.00639742 -0.00123773 0.00310682)
(-0.0067131 -0.000483966 0.00405325)
(-0.00734636 0.000191829 0.00481436)
(-0.00801443 0.00085166 0.00529043)
(-0.00861013 0.00133322 0.00547878)
(-0.00904152 0.00177502 0.00547902)
(-0.00911376 0.00209567 0.0053356)
(-0.00910573 0.00230538 0.00515933)
(-0.00907137 0.00243598 0.00498669)
(-0.00902061 0.00250309 0.00482664)
(-0.00895636 0.00251482 0.00468104)
(-0.00885515 0.00248627 0.00455009)
(-0.00872212 0.00243835 0.00443497)
(-0.0085612 0.00237793 0.00434343)
(-0.00847494 0.00230371 0.00428166)
(-0.00849607 0.00223477 0.00424558)
(-0.00851344 0.00221054 0.00422487)
(-0.00849459 0.00221368 0.00421184)
(-0.00845205 0.00223272 0.00419602)
(-0.00838932 0.002279 0.00416831)
(-0.0082826 0.00234317 0.0041224)
(-0.00817365 0.00240333 0.00406447)
(-0.00810466 0.00249959 0.00399134)
(-0.00802316 0.00259649 0.00390511)
(-0.00800567 0.00284761 0.0038154)
(-0.00786763 0.00299255 0.00370583)
(-0.00796435 0.00341363 0.00361416)
(-0.00778014 0.00338756 0.00341764)
(-0.00785466 0.00372918 0.00321808)
(-0.0074478 0.00314797 0.0028859)
(-0.00721539 0.00319333 0.00266098)
(-0.00647096 0.00113805 0.00230284)
(-0.00564708 0.000343114 0.00181748)
(-0.00528088 -0.00496502 0.000968295)
(-0.00133177 -0.0105968 0.00326505)
(0.00946078 -0.0258699 0.00739592)
(0.0151092 -0.0355051 -0.00407426)
(0.0169544 -0.0514907 0.000932479)
(0.00443694 -0.0467222 0.00921163)
(-0.0388828 -0.0459987 0.0272093)
(-0.0644705 -0.0061689 0.0711914)
(-0.0598737 -0.0398848 0.0955254)
(-0.0242657 -0.0434191 0.137678)
(-0.00533236 -0.135265 0.133313)
(-0.00336551 0.0307966 -0.11741)
(-0.00466978 -0.0109748 0.0427404)
(-0.0203744 -0.0948166 0.0495492)
(0.0183901 0.162066 -0.0210177)
(0.0223439 0.119379 -6.93879e-06)
(0.0379324 0.171331 0.00778155)