/*--------------------------------*- C++ -*----------------------------------*\
| =========                 |                                                 |
| \\      /  F ield         | OpenFOAM: The Open Source CFD Toolbox           |
|  \\    /   O peration     | Version:  2.3.0                                 |
|   \\  /    A nd           | Web:      www.OpenFOAM.org                      |
|    \\/     M anipulation  |                                                 |
\*---------------------------------------------------------------------------*/
FoamFile
{
    version     2.0;
    format      ascii;
    class       volVectorField;
    location    "42";
    object      Ur;
}
// * * * * * * * * * * * * * * * * * * * * * * * * * * * * * * * * * * * * * //

dimensions      [0 1 -1 0 0 0 0];

internalField   nonuniform List<vector> 
6144
(
(-3.18404e-07 0.000362364 -3.13961e-08)
(-3.61692e-07 0.00039387 -9.91037e-08)
(-2.19995e-07 0.000427908 -9.07763e-08)
(-1.65942e-07 0.000459679 -7.81285e-08)
(-9.61831e-08 0.000504427 -5.92479e-08)
(-9.48774e-08 0.000562375 -8.93387e-08)
(-4.2533e-08 0.000615112 -5.3498e-08)
(-1.5279e-08 0.000656018 -4.54226e-08)
(2.76777e-08 0.000685218 -1.16688e-08)
(5.46384e-08 0.000699546 -4.8982e-09)
(6.65435e-08 0.000703473 -5.38798e-09)
(5.89104e-08 0.000704085 7.44497e-09)
(3.57872e-08 0.000704252 1.46323e-08)
(1.1943e-08 0.000704291 1.61503e-08)
(-8.18571e-09 0.000704213 1.83233e-08)
(-3.15043e-08 0.000704037 1.67298e-08)
(-4.59393e-08 0.000703809 1.5519e-08)
(-6.77342e-08 0.000703566 1.05585e-08)
(-8.12646e-08 0.00070332 8.69523e-09)
(-1.03866e-07 0.000703072 4.04681e-09)
(-1.1594e-07 0.000702825 4.7547e-09)
(-1.39241e-07 0.000702572 2.07986e-09)
(-1.49738e-07 0.000702325 5.74565e-09)
(-1.73537e-07 0.000702087 4.34472e-09)
(-1.81983e-07 0.000701867 9.78087e-09)
(-2.06488e-07 0.000701665 8.67804e-09)
(-2.13122e-07 0.000701485 1.50562e-08)
(-2.38906e-07 0.00070132 1.26716e-08)
(-2.43451e-07 0.000701178 1.85191e-08)
(-2.69953e-07 0.000701057 1.38799e-08)
(-2.7097e-07 0.000700965 1.92432e-08)
(-2.97281e-07 0.0007009 1.23209e-08)
(-2.93175e-07 0.000700872 1.6572e-08)
(-3.17321e-07 0.000700877 5.50612e-09)
(-3.05231e-07 0.000700931 6.61155e-09)
(-3.2266e-07 0.00070103 -9.68396e-09)
(-2.93677e-07 0.000701187 -1.23711e-08)
(-2.94844e-07 0.00070139 -3.79133e-08)
(-2.36978e-07 0.000701643 -5.3176e-08)
(-2.02043e-07 0.000701943 -9.95612e-08)
(-8.91017e-08 0.000702318 -1.40192e-07)
(2.02761e-08 0.000702648 -2.28532e-07)
(2.3983e-07 0.000709818 -3.16356e-07)
(4.95518e-07 0.0007478 -5.19954e-07)
(9.87459e-07 0.000836061 -8.85693e-07)
(1.91612e-06 0.000970311 -1.56404e-06)
(4.27262e-06 0.00128414 -2.06592e-06)
(3.06794e-06 0.00201919 -7.8941e-07)
(-2.03207e-05 0.00306067 7.15102e-06)
(-6.61237e-05 0.00373183 6.49058e-06)
(-6.79641e-05 0.00378947 1.90658e-05)
(-7.40024e-05 0.00377697 3.47769e-05)
(-7.4121e-05 0.00389901 4.08821e-07)
(-3.49024e-05 0.0039185 -5.42315e-05)
(-2.46742e-05 0.00402664 -1.68291e-05)
(-4.9468e-05 0.00397669 -4.53615e-05)
(-0.000317996 0.00456375 5.40074e-05)
(0.000109411 0.00673067 -4.57278e-05)
(-0.000511907 0.0205591 -6.03421e-05)
(0.0158669 0.152253 -0.000848065)
(-0.0287272 0.61629 -0.00034965)
(-0.0422679 0.460916 -0.00218191)
(-0.000616358 0.0211132 7.03979e-05)
(-0.000149621 0.0062089 1.93878e-05)
(-0.000119456 0.00669657 -1.08237e-05)
(-7.22261e-05 0.00689282 -1.13773e-05)
(-1.02208e-05 0.00695988 -1.66504e-06)
(2.1144e-05 0.00715022 4.75182e-06)
(1.63242e-05 0.0073809 6.81531e-06)
(-7.07006e-06 0.0074336 5.58443e-06)
(-1.39473e-05 0.00729048 5.16083e-06)
(-1.25226e-05 0.00695937 2.9421e-06)
(-9.40752e-06 0.00662198 -9.42181e-06)
(-1.14039e-05 0.00651893 1.47645e-05)
(-6.92082e-06 0.00659577 5.66937e-05)
(5.43247e-06 0.00663637 4.65733e-05)
(-5.99438e-07 0.00659458 4.86434e-06)
(-6.53055e-06 0.00650775 -9.04334e-06)
(-4.33587e-06 0.00642976 -8.48019e-06)
(-4.44864e-06 0.00636583 -5.70465e-06)
(-9.22339e-06 0.0063049 -3.95059e-06)
(-7.62073e-06 0.00627141 -2.39653e-06)
(-5.80557e-06 0.00628586 -4.61278e-06)
(-7.57281e-06 0.00632223 -7.00291e-06)
(-6.96391e-06 0.00633651 -5.88268e-06)
(-1.03044e-06 0.00629451 4.14247e-06)
(-7.89163e-07 0.00617237 7.15562e-06)
(-4.39935e-07 0.00598219 6.83576e-06)
(-3.6296e-06 0.00572959 3.92024e-06)
(-1.02838e-05 0.00537784 -3.35105e-06)
(-6.85373e-06 0.00505302 -1.0719e-05)
(7.81261e-06 0.00501836 -1.51158e-05)
(1.06565e-05 0.00529341 -2.16758e-05)
(5.10473e-06 0.00570738 -1.89858e-05)
(1.78676e-07 0.00582158 -1.13354e-05)
(1.42897e-06 0.00548594 -6.34367e-06)
(-4.02747e-07 0.000346422 2.30613e-08)
(-4.93985e-07 0.000394491 -6.85713e-08)
(-4.07698e-07 0.000445453 -4.81238e-08)
(-4.0559e-07 0.000486642 -9.29188e-08)
(-2.61166e-07 0.000531954 -5.37377e-08)
(-1.7534e-07 0.000578585 -3.40552e-08)
(-5.3635e-08 0.000621277 -4.63618e-09)
(1.15836e-08 0.000658946 -3.43959e-09)
(8.222e-08 0.000686088 1.0767e-08)
(1.17745e-07 0.000699202 2.66176e-08)
(1.15288e-07 0.000703142 3.25626e-08)
(8.51693e-08 0.00070404 3.92984e-08)
(1.83163e-08 0.000704342 5.04699e-08)
(-5.1965e-08 0.000704522 6.59652e-08)
(-1.10776e-07 0.000704553 6.54702e-08)
(-1.66631e-07 0.000704423 6.68002e-08)
(-2.09843e-07 0.000704197 5.58231e-08)
(-2.57675e-07 0.000703944 5.22252e-08)
(-3.00411e-07 0.000703686 3.89281e-08)
(-3.50367e-07 0.000703429 3.69638e-08)
(-3.95748e-07 0.000703173 2.48457e-08)
(-4.52613e-07 0.000702911 3.01614e-08)
(-5.01678e-07 0.000702661 2.32047e-08)
(-5.59632e-07 0.000702428 3.27077e-08)
(-6.07597e-07 0.000702214 2.64622e-08)
(-6.65188e-07 0.000702025 3.80921e-08)
(-7.12846e-07 0.000701853 3.23857e-08)
(-7.72523e-07 0.000701698 4.79146e-08)
(-8.18344e-07 0.000701566 4.07462e-08)
(-8.74973e-07 0.000701461 5.64417e-08)
(-9.12892e-07 0.000701386 4.53726e-08)
(-9.61191e-07 0.000701344 6.13092e-08)
(-9.84868e-07 0.000701338 4.68569e-08)
(-1.01667e-06 0.00070137 6.39728e-08)
(-1.01384e-06 0.000701443 4.41723e-08)
(-1.01211e-06 0.000701562 6.11481e-08)
(-9.59035e-07 0.000701729 3.75439e-08)
(-8.91688e-07 0.000701945 4.72676e-08)
(-7.46302e-07 0.000702216 4.46441e-09)
(-5.57957e-07 0.000702549 -7.19037e-09)
(-2.4647e-07 0.000702925 -8.57972e-08)
(1.54344e-07 0.000703709 -1.32036e-07)
(7.52095e-07 0.000713409 -2.4195e-07)
(1.55099e-06 0.000754034 -3.8546e-07)
(2.83838e-06 0.000841625 -8.24207e-07)
(5.11516e-06 0.000975922 -1.45687e-06)
(9.8358e-06 0.00116309 -2.56092e-06)
(9.57153e-06 0.00162201 -1.49398e-07)
(-1.53571e-05 0.00262223 1.05168e-05)
(-8.72813e-05 0.00353441 9.59085e-06)
(-0.000115732 0.00370279 1.4721e-05)
(-0.000150626 0.00367606 1.28554e-05)
(-9.04716e-05 0.00383919 -3.40558e-05)
(-8.74567e-07 0.00386925 -9.59422e-05)
(6.7893e-05 0.00385457 -4.94212e-05)
(7.04336e-05 0.00357934 -3.13638e-05)
(-0.00048572 0.00491918 0.000150013)
(0.000344328 0.00775777 8.41372e-06)
(-0.000566582 0.0190406 0.000139065)
(0.0224315 0.156291 -0.00426026)
(-0.057567 0.609611 -0.00701605)
(-0.0304652 0.328695 -0.0114276)
(-0.000252798 0.0211073 -0.00015623)
(2.19222e-05 0.0073688 3.50017e-05)
(-4.22467e-05 0.00777638 -1.7471e-05)
(-3.71291e-05 0.00771385 -3.75402e-05)
(-2.04269e-05 0.00766365 -1.02485e-05)
(-1.49846e-05 0.00769989 -1.37134e-05)
(-2.08028e-05 0.00768296 7.74008e-06)
(-1.76369e-05 0.00754845 2.8503e-05)
(-1.59729e-05 0.00726294 7.16252e-06)
(-2.04508e-05 0.0068759 -2.59655e-05)
(-2.338e-05 0.00660346 -3.65601e-05)
(-4.81773e-06 0.00659395 -1.20222e-05)
(4.50344e-07 0.00671624 4.19753e-05)
(8.51979e-06 0.00675402 3.86276e-05)
(-9.19976e-06 0.00669347 -7.3825e-06)
(-2.18302e-05 0.00663183 -1.73476e-05)
(-2.42055e-05 0.00660689 -9.7483e-06)
(-3.17809e-05 0.00659155 -9.10448e-06)
(-3.01831e-05 0.00660323 -5.11199e-06)
(-2.14256e-05 0.00670614 -5.05391e-06)
(-2.2418e-05 0.00691251 -1.11216e-05)
(-2.53837e-05 0.00712389 -2.45016e-05)
(-1.09562e-05 0.00726328 -3.65248e-05)
(5.80255e-06 0.0072217 -1.49387e-05)
(4.97412e-06 0.00694214 -7.99265e-06)
(4.01859e-06 0.00661422 -3.55686e-06)
(-5.47859e-07 0.00636817 -2.48767e-06)
(-1.36805e-05 0.0061655 -6.64332e-06)
(-2.08607e-06 0.00598665 -9.29572e-06)
(1.17773e-05 0.00586608 -1.26979e-05)
(1.41472e-05 0.00591482 -2.65579e-05)
(7.2703e-06 0.00611409 -2.66983e-05)
(3.51097e-06 0.0060212 -1.79916e-05)
(5.36759e-06 0.00554019 -8.93296e-06)
(-4.19351e-07 0.000325753 1.08912e-07)
(-5.16648e-07 0.000373754 8.81242e-08)
(-6.18944e-07 0.000436072 -4.64125e-08)
(-6.25529e-07 0.0004896 -7.4648e-08)
(-4.35286e-07 0.000539939 -7.47611e-09)
(-3.02962e-07 0.000585108 3.02352e-08)
(-1.46999e-07 0.000623318 5.66333e-08)
(-5.82905e-08 0.000655479 6.64895e-08)
(6.60718e-09 0.000678528 7.62001e-08)
(2.13982e-08 0.000692105 8.20398e-08)
(-1.06932e-08 0.000698756 8.10404e-08)
(-1.05628e-07 0.000701776 8.88574e-08)
(-2.1997e-07 0.000703275 9.37797e-08)
(-3.39996e-07 0.000704005 1.01914e-07)
(-4.40802e-07 0.000704278 1.04907e-07)
(-5.39167e-07 0.000704272 1.04506e-07)
(-6.17391e-07 0.000704106 1.0237e-07)
(-6.98796e-07 0.000703873 9.86524e-08)
(-7.71815e-07 0.000703619 9.61407e-08)
(-8.53244e-07 0.00070336 9.37967e-08)
(-9.28656e-07 0.000703102 9.38914e-08)
(-1.01641e-06 0.000702844 9.35653e-08)
(-1.09869e-06 0.000702598 9.57487e-08)
(-1.19511e-06 0.000702365 9.72935e-08)
(-1.28286e-06 0.000702151 1.00723e-07)
(-1.38453e-06 0.000701955 1.02903e-07)
(-1.47345e-06 0.000701782 1.06778e-07)
(-1.57522e-06 0.000701629 1.08522e-07)
(-1.65916e-06 0.000701502 1.12542e-07)
(-1.75435e-06 0.0007014 1.1404e-07)
(-1.82467e-06 0.000701329 1.17208e-07)
(-1.90382e-06 0.000701287 1.16915e-07)
(-1.94871e-06 0.000701278 1.18035e-07)
(-1.99516e-06 0.000701305 1.15185e-07)
(-1.99171e-06 0.000701381 1.13731e-07)
(-1.97649e-06 0.000701512 1.08414e-07)
(-1.88718e-06 0.000701705 1.0474e-07)
(-1.759e-06 0.000701964 9.24529e-08)
(-1.51875e-06 0.000702312 7.81121e-08)
(-1.20016e-06 0.000702785 5.38279e-08)
(-7.1439e-07 0.000703402 2.13074e-08)
(-8.01682e-08 0.000705088 -2.60342e-08)
(8.27629e-07 0.00071733 -9.29959e-08)
(2.03758e-06 0.000757189 -2.75972e-07)
(3.9051e-06 0.00082938 -7.74942e-07)
(6.62962e-06 0.000925821 -1.74346e-06)
(1.0975e-05 0.00103726 -3.24171e-06)
(1.48069e-05 0.00139151 2.29808e-07)
(4.08025e-06 0.00236099 6.10151e-06)
(-4.20324e-05 0.0033973 5.60974e-06)
(-7.88276e-05 0.003647 -3.41189e-08)
(-0.000110002 0.00364632 1.17129e-06)
(-6.99691e-05 0.00386684 -6.0355e-05)
(-2.84787e-05 0.00391625 -0.000108653)
(7.19184e-05 0.00384493 -5.23834e-05)
(1.61872e-05 0.00340772 -5.05622e-05)
(-0.000898447 0.00541229 0.000247947)
(0.000156027 0.00951984 -9.53863e-05)
(0.000297509 0.0163328 -0.000168289)
(0.0310333 0.158639 -0.00604065)
(0.0212911 0.498932 -0.00748835)
(-0.000754464 0.0349953 -0.000208363)
(0.000699099 0.00972901 -0.000905899)
(-0.000306628 0.00802837 5.00369e-06)
(6.5933e-05 0.00650019 -0.000112475)
(4.63234e-05 0.00652685 -2.64873e-05)
(-1.85101e-06 0.00659644 4.94131e-07)
(-0.000119122 0.00641947 1.16927e-05)
(-0.000184313 0.00630126 7.50323e-06)
(-8.265e-05 0.00630557 1.14281e-05)
(-0.000116674 0.00632835 1.01409e-05)
(-0.000123481 0.00646633 2.1723e-05)
(-0.000112237 0.00671531 2.18017e-05)
(3.84962e-05 0.00680514 2.52992e-05)
(0.000207332 0.00674566 5.38038e-05)
(-3.36846e-05 0.00678273 2.85876e-05)
(-0.000125975 0.00702819 4.82023e-05)
(-0.000110206 0.0068161 -4.66031e-06)
(-1.91591e-05 0.00680316 -3.13368e-05)
(-2.77586e-05 0.00682162 -2.51806e-05)
(-0.000207572 0.00699755 -2.5443e-05)
(-0.000335016 0.00741818 -3.92559e-05)
(-7.78279e-05 0.00780551 -4.96201e-05)
(-3.75499e-05 0.00807196 -8.14214e-05)
(-3.75913e-06 0.00819368 -8.80523e-05)
(1.05187e-05 0.00809627 -5.6358e-05)
(8.18712e-06 0.00786067 -3.02887e-05)
(1.39855e-06 0.0076221 -1.12357e-05)
(-9.11136e-07 0.00744635 -7.90805e-06)
(-1.12878e-06 0.00735547 -2.76314e-05)
(2.60608e-06 0.00721384 -2.30964e-05)
(4.49962e-06 0.00696345 -7.41974e-06)
(5.55191e-06 0.00678798 -2.75696e-05)
(4.72211e-06 0.00673293 -2.52844e-05)
(6.0517e-06 0.00636674 -1.63919e-05)
(7.20221e-06 0.00568726 -7.11542e-06)
(-5.82932e-07 0.000312323 1.32947e-07)
(-7.59401e-07 0.000351682 1.65788e-07)
(-9.64002e-07 0.000412638 1.43686e-08)
(-8.50108e-07 0.000470533 3.93879e-08)
(-6.16675e-07 0.000527184 5.86781e-08)
(-4.01331e-07 0.000578221 7.89077e-08)
(-2.64607e-07 0.000618347 9.61424e-08)
(-1.69498e-07 0.000649918 1.00657e-07)
(-1.17174e-07 0.000672962 1.00361e-07)
(-1.26114e-07 0.000687759 1.00992e-07)
(-1.96154e-07 0.000696006 1.01127e-07)
(-3.2445e-07 0.000700398 1.06314e-07)
(-4.71698e-07 0.000702621 1.05483e-07)
(-6.24234e-07 0.0007036 1.15949e-07)
(-7.68587e-07 0.000703939 1.11789e-07)
(-9.09256e-07 0.000703953 1.16453e-07)
(-1.04169e-06 0.000703786 1.0958e-07)
(-1.16571e-06 0.000703548 1.14185e-07)
(-1.29016e-06 0.000703289 1.05527e-07)
(-1.40757e-06 0.000703026 1.1223e-07)
(-1.53078e-06 0.000702762 1.03618e-07)
(-1.64887e-06 0.000702502 1.1329e-07)
(-1.77765e-06 0.000702247 1.04087e-07)
(-1.90202e-06 0.000702004 1.16038e-07)
(-2.03912e-06 0.000701775 1.05421e-07)
(-2.16912e-06 0.000701569 1.19021e-07)
(-2.31057e-06 0.000701387 1.06268e-07)
(-2.44026e-06 0.000701234 1.21569e-07)
(-2.57983e-06 0.000701112 1.06948e-07)
(-2.70141e-06 0.000701029 1.24324e-07)
(-2.82724e-06 0.000700982 1.05787e-07)
(-2.92478e-06 0.000700976 1.23402e-07)
(-3.01815e-06 0.000701007 1.00044e-07)
(-3.0692e-06 0.000701087 1.17663e-07)
(-3.10231e-06 0.000701221 8.8998e-08)
(-3.06963e-06 0.000701424 1.06125e-07)
(-2.99122e-06 0.000701699 7.138e-08)
(-2.8118e-06 0.000702063 8.53164e-08)
(-2.54817e-06 0.000702528 4.08588e-08)
(-2.13688e-06 0.000703133 4.56017e-08)
(-1.58953e-06 0.000704 -1.46334e-08)
(-8.18268e-07 0.00070661 -2.35747e-08)
(2.07689e-07 0.00071816 -1.27667e-07)
(1.61734e-06 0.000749946 -3.23038e-07)
(3.57827e-06 0.000805459 -9.48336e-07)
(6.37317e-06 0.000878018 -1.91509e-06)
(1.0494e-05 0.000946486 -3.44267e-06)
(1.76359e-05 0.00123798 -1.3484e-06)
(2.14214e-05 0.00218523 3.30266e-06)
(5.30239e-07 0.0032889 8.56479e-06)
(-1.62131e-05 0.00360362 -3.65632e-07)
(-3.18286e-05 0.00357751 -1.7827e-05)
(-4.39936e-06 0.00375032 -9.13039e-05)
(-8.95205e-06 0.00380662 -9.87369e-05)
(4.60368e-05 0.00362037 -4.68926e-05)
(7.45906e-05 0.00267582 2.11687e-05)
(0.00050453 0.00657078 0.000819418)
(3.65247e-05 0.0148935 -0.00028188)
(-0.00159724 0.0163065 -0.000919646)
(0.0505617 0.195644 -0.00685243)
(-0.00978468 0.68511 -0.00785406)
(-0.0115746 0.524876 0.00272361)
(-0.0303206 0.546474 0.00435335)
(-0.0186107 0.533645 0.00356856)
(-0.0169584 0.526531 -0.001495)
(-0.0115653 0.520557 -6.00617e-05)
(-0.0105726 0.520073 -0.000825969)
(-0.00468468 0.52483 -0.00326042)
(-0.0031474 0.528572 -0.00301254)
(-0.00320404 0.528651 -0.00626768)
(-0.000154849 0.530079 -0.00631436)
(0.00518551 0.530084 0.000951933)
(0.00985698 0.534339 0.0134582)
(0.00430616 0.52987 0.0137324)
(-0.000435074 0.514643 0.00427428)
(-0.00177603 0.491144 -0.0153918)
(0.00184612 0.474534 -0.0189499)
(0.00451705 0.404529 -0.00951747)
(-5.47178e-05 0.0285308 -1.76179e-05)
(-0.000406668 0.0288847 -2.45188e-05)
(-0.00117167 0.299376 -0.0013136)
(-0.00201005 0.38058 -0.00203057)
(-0.000360858 0.0330099 -0.000851931)
(-0.000151347 0.00956989 -0.00113709)
(-3.27001e-05 0.00995039 -0.00100688)
(-3.23981e-05 0.00934437 -0.000558571)
(-0.000118585 0.00814161 -3.81409e-05)
(-3.76435e-05 0.00793869 -1.62e-06)
(-2.2155e-05 0.00781661 -1.02626e-05)
(2.49365e-07 0.00773713 -3.23007e-05)
(4.61827e-06 0.00776017 -2.55129e-05)
(4.06785e-06 0.00770861 -7.66265e-06)
(6.94981e-06 0.0076212 -1.67897e-05)
(9.08103e-06 0.00747139 -1.56049e-05)
(2.00721e-06 0.00688077 -1.67182e-05)
(4.10365e-06 0.00598643 -7.71147e-06)
(-8.93284e-07 0.000302554 -2.66368e-08)
(-1.15743e-06 0.000332564 1.0067e-07)
(-1.43417e-06 0.00039016 -5.59391e-08)
(-1.09787e-06 0.000448278 1.80283e-09)
(-7.70916e-07 0.00050401 7.16953e-08)
(-4.63943e-07 0.000559266 8.53827e-08)
(-3.37575e-07 0.00060846 8.4838e-08)
(-2.5325e-07 0.000644118 1.0278e-07)
(-2.39914e-07 0.000667462 9.40549e-08)
(-2.78187e-07 0.000683654 8.9603e-08)
(-3.652e-07 0.000693713 8.95645e-08)
(-5.05648e-07 0.000699481 8.83229e-08)
(-6.61185e-07 0.000702389 9.07847e-08)
(-8.39664e-07 0.000703582 9.28111e-08)
(-1.01114e-06 0.000703964 9.82782e-08)
(-1.19589e-06 0.000703975 9.38725e-08)
(-1.37256e-06 0.000703812 1.00997e-07)
(-1.55223e-06 0.000703579 9.43874e-08)
(-1.72224e-06 0.000703331 1.01181e-07)
(-1.89426e-06 0.000703077 9.08185e-08)
(-2.05768e-06 0.000702822 9.74646e-08)
(-2.22617e-06 0.000702564 8.46204e-08)
(-2.38796e-06 0.000702311 9.25977e-08)
(-2.55762e-06 0.000702064 7.8166e-08)
(-2.72003e-06 0.000701834 8.79469e-08)
(-2.89277e-06 0.000701621 7.15736e-08)
(-3.05733e-06 0.000701434 8.31091e-08)
(-3.23125e-06 0.00070127 6.44564e-08)
(-3.39264e-06 0.000701139 7.7512e-08)
(-3.55843e-06 0.00070104 5.57613e-08)
(-3.70269e-06 0.000700984 6.89859e-08)
(-3.84185e-06 0.000700971 4.20749e-08)
(-3.94661e-06 0.000701012 5.409e-08)
(-4.03174e-06 0.00070111 2.11919e-08)
(-4.062e-06 0.000701282 3.08256e-08)
(-4.04718e-06 0.000701535 -9.34062e-09)
(-3.94333e-06 0.000701882 -3.59308e-09)
(-3.75861e-06 0.000702329 -5.33707e-08)
(-3.44695e-06 0.000702913 -5.2786e-08)
(-3.01382e-06 0.00070366 -1.12518e-07)
(-2.41378e-06 0.000704799 -1.22544e-07)
(-1.63122e-06 0.000707994 -2.01232e-07)
(-5.61537e-07 0.000718838 -2.73721e-07)
(8.46782e-07 0.000745642 -5.8324e-07)
(2.75232e-06 0.000793905 -1.12267e-06)
(5.64993e-06 0.000868588 -2.11883e-06)
(9.54785e-06 0.000957467 -3.40285e-06)
(1.59819e-05 0.00114021 -3.95921e-06)
(3.18564e-05 0.00186221 1.10382e-06)
(3.70955e-05 0.00303566 4.06546e-07)
(3.41861e-05 0.00355436 -1.34109e-05)
(-1.37467e-06 0.00355086 -1.44332e-05)
(-1.60614e-05 0.00366957 -0.000110739)
(-2.99314e-05 0.00376226 -6.96033e-05)
(6.65402e-05 0.00376292 -4.62174e-05)
(0.000225274 0.00354353 -1.78084e-06)
(0.00165441 0.00528718 3.53031e-05)
(0.000330985 0.00483345 5.23554e-05)
(-0.00172858 0.0108915 8.91444e-05)
(0.0640344 0.223242 -0.00590502)
(0.0184359 0.675917 -0.00350443)
(0.000437252 0.532619 0.00509584)
(-0.0156521 0.531643 0.00244372)
(-0.031108 0.523781 0.0046421)
(-0.0201419 0.521228 -0.00236566)
(-0.0210351 0.526831 -0.00195086)
(-0.0311414 0.53004 -0.00850454)
(-0.0209807 0.539563 -0.00762057)
(-0.0128692 0.536987 0.00129978)
(-0.0132556 0.544523 0.00177014)
(-0.00749047 0.553169 0.000151099)
(0.000796264 0.551758 0.00463862)
(0.011117 0.552967 0.000443788)
(0.00148682 0.556371 -0.0103701)
(0.000144363 0.54931 -0.0237439)
(0.0196318 0.553194 -0.0358226)
(0.02563 0.559095 -0.0163942)
(0.00343306 0.564689 0.0112791)
(-0.00616158 0.551363 0.00880147)
(0.00394459 0.547635 0.000835621)
(-0.000175772 0.542665 0.00290617)
(-0.00252731 0.5376 0.00469537)
(-0.00233668 0.538028 0.00619369)
(-0.00804614 0.531741 0.00416595)
(-0.0125492 0.523535 9.24092e-05)
(-0.0127599 0.502636 -0.00105251)
(-0.0113315 0.412207 -0.00175157)
(-0.000436046 0.0339751 -0.000181499)
(-0.00013549 0.00830486 -0.000331709)
(-5.50528e-06 0.00724756 -0.00060452)
(7.80082e-05 0.00723168 -1.24246e-05)
(6.52264e-05 0.00729942 -1.52005e-08)
(6.18073e-05 0.00740219 -4.99222e-06)
(9.72169e-06 0.00741751 -9.70266e-06)
(-7.79733e-06 0.00698901 -1.53632e-05)
(-5.70496e-06 0.0061822 -6.5146e-06)
(-1.22083e-06 0.000295447 -3.97195e-07)
(-1.60864e-06 0.000317969 -1.34997e-07)
(-1.85975e-06 0.000368655 -1.82637e-07)
(-1.24805e-06 0.000425347 -1.05363e-07)
(-8.86287e-07 0.000481148 1.1833e-08)
(-5.02824e-07 0.000536677 4.06066e-08)
(-3.28467e-07 0.000591871 4.63662e-08)
(-2.38883e-07 0.000634951 6.54561e-08)
(-3.08027e-07 0.000661331 6.78706e-08)
(-3.49585e-07 0.000679212 5.80219e-08)
(-4.82661e-07 0.000691146 5.16077e-08)
(-6.30736e-07 0.000698242 5.69332e-08)
(-8.08808e-07 0.000701772 5.0594e-08)
(-1.00179e-06 0.000703107 6.78485e-08)
(-1.21042e-06 0.000703474 6.78605e-08)
(-1.42574e-06 0.000703467 8.28674e-08)
(-1.64334e-06 0.000703291 8.03851e-08)
(-1.85317e-06 0.000703051 9.10601e-08)
(-2.06219e-06 0.000702799 8.08977e-08)
(-2.26386e-06 0.000702548 8.66578e-08)
(-2.46403e-06 0.000702299 7.04882e-08)
(-2.65762e-06 0.000702057 7.40447e-08)
(-2.85034e-06 0.000701816 5.39808e-08)
(-3.03804e-06 0.000701585 5.84109e-08)
(-3.22919e-06 0.000701365 3.68155e-08)
(-3.41579e-06 0.000701166 4.31545e-08)
(-3.60461e-06 0.000700989 1.99613e-08)
(-3.78853e-06 0.000700842 2.82301e-08)
(-3.97176e-06 0.000700723 3.39189e-09)
(-4.14386e-06 0.000700646 1.29749e-08)
(-4.30654e-06 0.00070061 -1.54304e-08)
(-4.44579e-06 0.000700629 -7.56425e-09)
(-4.55993e-06 0.000700705 -4.25753e-08)
(-4.63196e-06 0.000700857 -3.99009e-08)
(-4.65438e-06 0.000701092 -8.47508e-08)
(-4.60575e-06 0.000701429 -8.93316e-08)
(-4.47128e-06 0.000701881 -1.45147e-07)
(-4.23045e-06 0.000702469 -1.59191e-07)
(-3.86834e-06 0.000703196 -2.21159e-07)
(-3.37524e-06 0.00070406 -2.44091e-07)
(-2.73798e-06 0.000705359 -3.15137e-07)
(-1.94735e-06 0.000708599 -3.63348e-07)
(-9.36287e-07 0.000717866 -5.19781e-07)
(4.06408e-07 0.000740447 -7.42079e-07)
(2.26614e-06 0.000787365 -1.14702e-06)
(4.95186e-06 0.000880445 -1.96054e-06)
(9.48945e-06 0.00103595 -3.23738e-06)
(1.72702e-05 0.00123856 -4.75881e-06)
(3.58252e-05 0.00176414 -1.09582e-06)
(7.02586e-05 0.0027953 -2.73349e-06)
(0.000102746 0.00347318 -2.3703e-05)
(9.9321e-05 0.00352863 -2.2724e-05)
(7.84301e-05 0.00355741 -8.93469e-05)
(2.38286e-06 0.00374214 -0.000110898)
(4.63927e-05 0.00387666 -0.000128885)
(8.34966e-05 0.00397367 -6.19576e-05)
(0.000812763 0.00636947 -0.00031633)
(0.000865279 0.00799001 -0.000101892)
(-0.000682562 0.0112973 0.000362552)
(0.0488425 0.262139 -0.0115746)
(0.0132169 0.682039 -0.00240191)
(0.00740641 0.539977 -0.00485242)
(-0.00173052 0.53195 -0.00275415)
(-0.0157698 0.523549 0.000756211)
(-0.033424 0.509879 -0.00785761)
(-0.0356373 0.516247 -0.00687233)
(-0.0265037 0.525542 -0.00487314)
(-0.0140168 0.53467 -0.00171032)
(-0.0166372 0.536247 0.0053022)
(-0.0150467 0.543692 0.00331072)
(-0.00790636 0.55164 -0.000559545)
(0.000945995 0.553893 -0.00246227)
(0.00154639 0.551553 -0.0101861)
(0.00604718 0.552106 -0.0247774)
(0.0208938 0.552959 -0.0324567)
(0.0275534 0.561269 -0.0261887)
(0.0112623 0.577231 0.00223124)
(-0.00250133 0.556438 0.0108559)
(0.00677551 0.548694 0.000340582)
(-0.00051886 0.545366 0.00282446)
(-0.00082485 0.53811 0.00494853)
(-0.00192011 0.537795 -0.00156735)
(-0.00635295 0.535829 -3.71699e-05)
(-0.00763002 0.532825 -0.000520962)
(-0.0129141 0.529482 -0.00424218)
(-0.0146166 0.527945 -0.00424461)
(-0.0131486 0.526526 -0.00672258)
(-0.00830674 0.52901 -0.00848156)
(0.000261804 0.531658 -0.00562631)
(0.00303309 0.528513 0.0053827)
(0.00266381 0.509234 0.0138678)
(0.00155644 0.44671 0.0070238)
(-0.000220542 0.232805 -0.000449115)
(-4.12442e-05 0.0286777 -0.000150371)
(-4.41652e-05 0.00483341 -7.43367e-06)
(-7.11448e-06 0.00530264 4.52186e-07)
(-1.73512e-06 0.000289679 -9.51052e-07)
(-2.15211e-06 0.000309032 -3.64433e-07)
(-2.20544e-06 0.000350964 -2.10295e-07)
(-1.36398e-06 0.00040451 -2.03386e-08)
(-9.02802e-07 0.000463769 -2.22079e-08)
(-4.80778e-07 0.000517689 -1.37975e-08)
(-2.63413e-07 0.000571033 -6.00828e-09)
(-1.67106e-07 0.000622448 4.0625e-09)
(-3.39807e-07 0.000656007 3.37238e-08)
(-3.7914e-07 0.000675507 3.21335e-08)
(-5.31618e-07 0.000688746 3.44664e-08)
(-6.43516e-07 0.000697197 2.98226e-08)
(-8.33827e-07 0.000701505 3.49283e-08)
(-1.06647e-06 0.000703059 4.17684e-08)
(-1.33438e-06 0.00070348 6.44481e-08)
(-1.58617e-06 0.000703491 8.21612e-08)
(-1.82205e-06 0.000703317 1.02043e-07)
(-2.03524e-06 0.00070307 9.65452e-08)
(-2.24508e-06 0.000702815 9.57731e-08)
(-2.44975e-06 0.000702556 7.59162e-08)
(-2.65315e-06 0.00070229 7.0947e-08)
(-2.84926e-06 0.000702012 4.86241e-08)
(-3.04428e-06 0.000701745 4.46447e-08)
(-3.23246e-06 0.000701495 2.25615e-08)
(-3.42096e-06 0.000701265 2.08065e-08)
(-3.60502e-06 0.000701053 -2.19766e-09)
(-3.79418e-06 0.00070087 -2.48252e-09)
(-3.97542e-06 0.000700719 -2.63117e-08)
(-4.15715e-06 0.000700612 -2.5743e-08)
(-4.31902e-06 0.000700547 -5.1781e-08)
(-4.46999e-06 0.000700538 -5.32251e-08)
(-4.58416e-06 0.000700586 -8.51353e-08)
(-4.67169e-06 0.000700707 -9.27001e-08)
(-4.69545e-06 0.000700911 -1.33658e-07)
(-4.6687e-06 0.000701215 -1.51301e-07)
(-4.5463e-06 0.000701633 -2.0757e-07)
(-4.3444e-06 0.000702186 -2.40635e-07)
(-4.00863e-06 0.000702894 -3.02731e-07)
(-3.5676e-06 0.000703769 -3.41162e-07)
(-2.97753e-06 0.000704829 -4.17568e-07)
(-2.28435e-06 0.000706287 -4.82305e-07)
(-1.4346e-06 0.000709188 -5.80092e-07)
(-4.60126e-07 0.000716432 -6.73788e-07)
(8.58241e-07 0.000735074 -8.08513e-07)
(2.5476e-06 0.000782404 -1.04091e-06)
(4.83455e-06 0.000900804 -1.57452e-06)
(8.36138e-06 0.00113953 -2.45766e-06)
(1.6058e-05 0.00144963 -5.00357e-06)
(3.31512e-05 0.00183001 -2.01665e-06)
(6.37827e-05 0.00257374 -9.10888e-06)
(0.000149801 0.0034614 -3.38055e-05)
(0.000133023 0.00369119 -3.67973e-05)
(0.00017251 0.00358283 -6.5488e-05)
(0.000193868 0.00373804 -0.000174924)
(0.000105337 0.00390251 -0.000216131)
(2.62079e-06 0.00429408 -0.00020377)
(0.000353298 0.00654674 -0.000820396)
(0.000316765 0.00729992 -0.000766987)
(-0.000208269 0.0113579 0.00051069)
(0.0173095 0.29957 -0.0132348)
(0.00253003 0.657118 0.00151191)
(0.010349 0.544896 -0.00283247)
(0.00256097 0.544337 0.00212682)
(-0.003311 0.537068 -0.00144239)
(-0.0135064 0.521133 0.00155044)
(-0.0280727 0.521066 -0.00520215)
(-0.0292764 0.519677 -0.00440535)
(-0.0150167 0.533488 0.000218674)
(-0.00909138 0.532972 0.00439473)
(-0.0082809 0.532166 0.00106662)
(-0.00899942 0.542114 -0.00595193)
(-0.00247227 0.546806 -0.0110315)
(0.00762519 0.545723 -0.02065)
(0.0170849 0.551058 -0.0296226)
(0.0180228 0.559579 -0.0333046)
(0.0153041 0.575068 -0.0153203)
(0.0162215 0.57348 0.0176088)
(0.0106025 0.54748 0.0105931)
(0.00484431 0.550064 0.000627807)
(0.00169478 0.545986 0.00385085)
(0.00289984 0.538766 0.00174967)
(-0.00125727 0.542661 -0.000288594)
(-0.000149469 0.540386 -0.00119784)
(-0.00178731 0.539322 -0.00396414)
(-0.00395742 0.538646 -0.00336263)
(-0.00545122 0.536817 -0.00402207)
(-0.00922772 0.534638 -0.00454437)
(-0.0110391 0.531709 -0.0035405)
(-0.00976757 0.530721 0.00260679)
(-0.00989961 0.530543 0.00758689)
(-0.00786558 0.530264 0.0097725)
(-0.00562062 0.526929 0.00406959)
(-0.00972796 0.515213 -0.00734215)
(-0.0169047 0.480819 -0.00872145)
(-0.013958 0.336439 -0.00376597)
(-4.20235e-05 0.0274108 -2.63414e-05)
(-2.31987e-06 0.00028049 -1.73078e-06)
(-2.98148e-06 0.000303529 -5.61774e-07)
(-2.39659e-06 0.000337562 -1.41677e-07)
(-1.30176e-06 0.000385341 2.14766e-07)
(-7.15532e-07 0.000448968 7.03346e-08)
(-2.88827e-07 0.000505111 1.24843e-08)
(-5.18902e-08 0.000555608 -1.06376e-08)
(6.33336e-08 0.00061066 -4.76375e-08)
(-3.29979e-07 0.000650861 1.9158e-08)
(-3.63959e-07 0.000673367 2.40381e-08)
(-5.60459e-07 0.000687597 3.84074e-08)
(-7.14865e-07 0.000696462 5.46079e-08)
(-9.35537e-07 0.000701052 7.70548e-08)
(-1.21602e-06 0.00070273 1.09181e-07)
(-1.49983e-06 0.000703182 1.25654e-07)
(-1.75912e-06 0.000703238 1.49923e-07)
(-1.99365e-06 0.000703084 1.61889e-07)
(-2.20956e-06 0.000702838 1.78579e-07)
(-2.41242e-06 0.000702582 1.81499e-07)
(-2.61606e-06 0.000702324 1.88986e-07)
(-2.80823e-06 0.000702072 1.78837e-07)
(-3.00379e-06 0.000701835 1.72609e-07)
(-3.18821e-06 0.000701605 1.52011e-07)
(-3.37677e-06 0.000701388 1.4091e-07)
(-3.5536e-06 0.000701185 1.16781e-07)
(-3.73491e-06 0.000701003 1.05239e-07)
(-3.90373e-06 0.000700846 8.14174e-08)
(-4.07544e-06 0.000700723 7.05304e-08)
(-4.22218e-06 0.00070064 4.54466e-08)
(-4.35734e-06 0.000700607 3.33697e-08)
(-4.45355e-06 0.00070063 4.60845e-09)
(-4.52348e-06 0.000700723 -1.3995e-08)
(-4.52915e-06 0.000700903 -5.28661e-08)
(-4.48795e-06 0.000701184 -8.55614e-08)
(-4.35577e-06 0.000701586 -1.41567e-07)
(-4.14675e-06 0.000702127 -1.9522e-07)
(-3.81495e-06 0.000702826 -2.71532e-07)
(-3.37176e-06 0.000703696 -3.38835e-07)
(-2.77578e-06 0.000704752 -4.1934e-07)
(-2.06767e-06 0.000706025 -5.06117e-07)
(-1.2122e-06 0.00070767 -6.17905e-07)
(-2.53867e-07 0.000710406 -7.53574e-07)
(8.76224e-07 0.000716631 -8.62244e-07)
(2.18113e-06 0.000733886 -9.54682e-07)
(3.68394e-06 0.000784192 -1.0421e-06)
(5.23695e-06 0.000931218 -1.19187e-06)
(7.07526e-06 0.00124398 -1.58392e-06)
(9.85926e-06 0.00167718 -5.07043e-06)
(1.95767e-05 0.00215194 -7.58884e-06)
(4.25032e-05 0.00280084 -1.23272e-05)
(8.0785e-05 0.00356943 -2.99456e-05)
(8.49924e-05 0.00393531 -3.38068e-05)
(0.000121772 0.00385137 -3.41136e-05)
(0.000146739 0.00387702 -8.45325e-05)
(2.16319e-05 0.00393675 -0.000119392)
(-8.06911e-05 0.00439424 -0.000126711)
(0.000102191 0.0072888 -0.000737376)
(0.000143963 0.00817893 -0.00116181)
(3.24321e-05 0.0120064 8.67486e-06)
(-0.00813412 0.296049 -0.011022)
(0.00916755 0.647648 -0.00186904)
(0.020232 0.539638 0.0104052)
(0.0035513 0.549664 0.00137157)
(-2.15471e-05 0.548276 0.00205426)
(-0.00233831 0.538485 -2.98688e-06)
(-0.0115469 0.527554 -0.00390847)
(-0.0187978 0.523765 -0.00426729)
(-0.0212155 0.523664 -0.00106597)
(-0.012201 0.53305 -0.000941047)
(-0.0121307 0.532525 -0.00768015)
(-0.0175204 0.5367 -0.019069)
(-0.00584345 0.544874 -0.0213575)
(0.00256173 0.547874 -0.0267537)
(0.00784496 0.558016 -0.0293846)
(0.0139902 0.569866 -0.0182859)
(0.0269251 0.57053 0.0163457)
(0.0162628 0.545785 0.013109)
(0.00700401 0.542739 0.00153491)
(0.00487291 0.547132 0.00355117)
(0.00382915 0.544597 0.00381826)
(0.00207336 0.544345 0.00145054)
(0.00260131 0.545788 0.000997966)
(0.00219075 0.544358 0.000121312)
(-0.000764686 0.545323 0.00294846)
(-0.00263892 0.545272 0.00273389)
(-0.00308721 0.548765 0.00346483)
(-0.00395541 0.54576 0.00399341)
(-0.00527233 0.539626 0.00349637)
(-0.00550953 0.540275 0.00157473)
(-0.00635249 0.535587 -0.000619128)
(-0.00765164 0.531779 -0.00456439)
(-0.0111555 0.529634 -0.00721347)
(-0.0160167 0.530099 -0.0108253)
(-0.0204936 0.524332 -0.0172088)
(-0.0195708 0.520676 -0.0251616)
(-0.0124026 0.501452 -0.0249932)
(-4.26317e-06 0.000138532 -5.15852e-06)
(-3.35231e-06 0.000301014 -1.08872e-06)
(-2.24261e-06 0.000320863 -2.18377e-07)
(-9.41553e-07 0.000362705 2.30175e-07)
(-2.66862e-07 0.00042921 1.99341e-08)
(3.41664e-08 0.000495161 -3.24165e-08)
(4.15996e-07 0.000548812 5.04474e-08)
(3.63419e-07 0.00059998 -1.02837e-07)
(1.64112e-07 0.00064366 -1.61211e-07)
(3.00363e-08 0.000670796 -1.71141e-07)