/*--------------------------------*- C++ -*----------------------------------*\
| =========                 |                                                 |
| \\      /  F ield         | OpenFOAM: The Open Source CFD Toolbox           |
|  \\    /   O peration     | Version:  2.3.0                                 |
|   \\  /    A nd           | Web:      www.OpenFOAM.org                      |
|    \\/     M anipulation  |                                                 |
\*---------------------------------------------------------------------------*/
FoamFile
{
    version     2.0;
    format      ascii;
    class       volScalarField;
    location    "42";
    object      w3;
}
// * * * * * * * * * * * * * * * * * * * * * * * * * * * * * * * * * * * * * //

dimensions      [0 0 0 0 0 0 0];

internalField   nonuniform List<scalar> 
6144
(
0.0283736
0.0283736
0.0283736
0.0283736
0.0283736
0.0283736
0.0283736
0.0283736
0.0283736
0.0283736
0.0283736
0.0283736
0.0283736
0.0283736
0.0283736
0.0283736
0.0283736
0.0283736
0.0283736
0.0283736
0.0283736
0.0283736
0.0283736
0.0283736
0.0283736
0.0283736
0.0283736
0.0283736
0.0283736
0.0283736
0.0283736
0.0283736
0.0283736
0.0283736
0.0283736
0.0283736
0.0283736
0.0283736
0.0283736
0.0283736
0.0283736
0.0283736
0.0283736
0.0283736
0.0283736
0.0283736
0.0283736
0.0283736
0.0283736
0.0283736
0.0283736
0.0283736
0.0283736
0.0283736
0.0283736
0.0283736
0.0283737
0.0283775
0.0312251
0.0320996
0.00835961
2.71156e-05
2.53012e-07
5.76747e-05
5.33718e-05
0.00223412
0.000261662
0.000565898
0.000792713
0.000313227
0.000329043
0.000193384
8.6671e-05
8.07426e-05
0.000227924
0.000834967
0.000565511
0.000986346
0.0112437
0.00193168
0.00949148
0.0011177
0.000617402
0.000769828
0.0059282
0.000529381
0.00052601
0.000838084
0.00396319
0.00103135
0.00206868
0.00119884
0.000579324
0.000883983
6.06222e-05
8.05512e-06
0.0283736
0.0283736
0.0283736
0.0283736
0.0283736
0.0283736
0.0283736
0.0283736
0.0283736
0.0283736
0.0283736
0.0283736
0.0283736
0.0283736
0.0283736
0.0283736
0.0283736
0.0283736
0.0283736
0.0283736
0.0283736
0.0283736
0.0283736
0.0283736
0.0283736
0.0283736
0.0283736
0.0283736
0.0283736
0.0283736
0.0283736
0.0283736
0.0283736
0.0283736
0.0283736
0.0283736
0.0283736
0.0283736
0.0283736
0.0283736
0.0283736
0.0283736
0.0283736
0.0283736
0.0283736
0.0283736
0.0283736
0.0283736
0.0283736
0.0283736
0.0283736
0.0283736
0.0283736
0.0283736
0.0283736
0.0283735
0.0283746
0.0285776
0.0362072
0.0286077
0.0122149
1.13905e-05
2.63888e-07
3.92821e-05
0.000206897
9.09899e-05
0.000285717
0.000672071
0.000251853
0.000200948
0.000407815
0.000182608
5.47676e-05
7.89735e-05
0.00186638
0.000145993
0.00012448
0.000177049
0.000605733
0.000217466
0.000103387
9.12752e-05
0.000115746
0.000226594
0.00103345
0.000811454
0.000404348
0.000303534
0.000207624
0.000129933
0.000186924
0.000682082
0.000411449
0.000497371
5.09478e-05
7.71287e-06
0.0283736
0.0283736
0.0283736
0.0283736
0.0283736
0.0283736
0.0283736
0.0283736
0.0283736
0.0283736
0.0283736
0.0283736
0.0283736
0.0283736
0.0283736
0.0283736
0.0283736
0.0283736
0.0283736
0.0283736
0.0283736
0.0283736
0.0283736
0.0283736
0.0283736
0.0283736
0.0283736
0.0283736
0.0283736
0.0283736
0.0283736
0.0283736
0.0283736
0.0283736
0.0283736
0.0283736
0.0283736
0.0283736
0.0283736
0.0283736
0.0283736
0.0283736
0.0283736
0.0283736
0.0283736
0.0283736
0.0283736
0.0283736
0.0283736
0.0283736
0.0283736
0.0283736
0.0283736
0.0283736
0.0283736
0.0283736
0.0283734
0.0284044
0.0328526
0.0171653
0.042911
1.1556e-06
2.74118e-07
2.66606e-05
0.000122561
0.000250388
0.000331476
0.00174269
0.000955105
0.000229072
0.0003021
0.000180407
3.58598e-05
0.000324844
0.000132443
0.000149796
1.70004e-05
1.37574e-05
0.000169571
0.000182302
0.000141369
0.000281494
0.000111276
0.000228698
0.000455382
0.00366081
4.83785e-05
4.94851e-05
0.000180691
0.000107877
0.000167452
0.000984697
0.000436591
0.000431301
3.81761e-05
7.30381e-06
0.0283736
0.0283736
0.0283736
0.0283736
0.0283736
0.0283736
0.0283736
0.0283736
0.0283736
0.0283736
0.0283736
0.0283736
0.0283736
0.0283736
0.0283736
0.0283736
0.0283736
0.0283736
0.0283736
0.0283736
0.0283736
0.0283736
0.0283736
0.0283736
0.0283736
0.0283736
0.0283736
0.0283736
0.0283736
0.0283736
0.0283736
0.0283736
0.0283736
0.0283736
0.0283736
0.0283736
0.0283736
0.0283736
0.0283736
0.0283736
0.0283736
0.0283736
0.0283736
0.0283736
0.0283736
0.0283736
0.0283736
0.0283736
0.0283736
0.0283736
0.0283736
0.0283736
0.0283736
0.0283736
0.0283736
0.0283735
0.0283736
0.0283694
0.0292837
0.0273492
0.0410683
0.000158604
5.24498e-07
7.59995e-07
2.56535e-05
1.01899e-05
6.29992e-06
5.81193e-06
6.85199e-06
9.12415e-06
4.12447e-05
5.86625e-07
0.000172795
7.50284e-07
2.24276e-05
6.29955e-07
8.29874e-07
1.50356e-06
4.08108e-07
3.72817e-05
5.89091e-07
1.18424e-06
7.83894e-07
4.68535e-07
1.61977e-05
6.85919e-07
8.56692e-07
1.01502e-06
5.84454e-07
3.08132e-05
8.63595e-05
0.000661111
0.000753474
0.000109768
3.14062e-05
7.48541e-06
0.0283736
0.0283736
0.0283736
0.0283736
0.0283736
0.0283736
0.0283736
0.0283736
0.0283736
0.0283736
0.0283736
0.0283736
0.0283736
0.0283736
0.0283736
0.0283736
0.0283736
0.0283736
0.0283736
0.0283736
0.0283736
0.0283736
0.0283736
0.0283736
0.0283736
0.0283736
0.0283736
0.0283736
0.0283736
0.0283736
0.0283736
0.0283736
0.0283736
0.0283736
0.0283736
0.0283736
0.0283736
0.0283736
0.0283736
0.0283736
0.0283736
0.0283736
0.0283736
0.0283736
0.0283736
0.0283736
0.0283736
0.0283736
0.0283736
0.0283736
0.0283736
0.0283735
0.0283736
0.0283736
0.0283736
0.0283735
0.0283737
0.0283711
0.0283618
0.0311249
0.00365772
0.0015135
0.00333313
0.000358523
0.00019723
6.10743e-05
3.94353e-05
6.12541e-05
8.31784e-05
0.000268332
0.000216868
7.95747e-05
0.00122304
0.00185635
0.000113112
0.000532557
0.000845426
0.000317733
0.00224165
8.09071e-05
6.62131e-05
0.000173441
0.000651754
0.000464814
0.00013053
0.000144565
0.0168744
0.000336173
7.62514e-06
1.02837e-06
6.28121e-07
4.92209e-06
0.000103283
8.77717e-05
2.96774e-05
8.12803e-06
0.0283736
0.0283736
0.0283736
0.0283736
0.0283736
0.0283736
0.0283736
0.0283736
0.0283736
0.0283736
0.0283736
0.0283736
0.0283736
0.0283736
0.0283736
0.0283736
0.0283736
0.0283736
0.0283736
0.0283736
0.0283736
0.0283736
0.0283736
0.0283736
0.0283736
0.0283736
0.0283736
0.0283736
0.0283736
0.0283736
0.0283736
0.0283736
0.0283736
0.0283736
0.0283736
0.0283736
0.0283736
0.0283736
0.0283736
0.0283736
0.0283736
0.0283736
0.0283736
0.0283736
0.0283736
0.0283736
0.0283736
0.0283736
0.0283736
0.0283736
0.0283736
0.0283736
0.0283736
0.0283736
0.0283736
0.0283736
0.0283735
0.0283736
0.0283744
0.0275637
0.0145643
0.139012
0.000103291
0.00877134
0.0214447
0.00386259
0.00206379
0.129893
0.00563274
0.00597431
9.6871e-05
0.00175964
0.000476647
0.10106
0.348816
0.0720936
0.0187906
0.144794
0.0546949
2.08364e-10
9.72384e-08
0.000355337
0.0171235
0.000566539
0.000149459
0.000216452
0.000236027
0.000555056
0.000627255
8.81095e-05
1.94706e-05
2.93463e-06
2.52587e-07
6.04344e-05
0.000405592
3.35551e-05
0.0283736
0.0283736
0.0283736
0.0283736
0.0283736
0.0283736
0.0283736
0.0283736
0.0283736
0.0283736
0.0283736
0.0283736
0.0283736
0.0283736
0.0283736
0.0283736
0.0283736
0.0283736
0.0283736
0.0283736
0.0283736
0.0283736
0.0283736
0.0283736
0.0283736
0.0283736
0.0283736
0.0283736
0.0283736
0.0283736
0.0283736
0.0283736
0.0283736
0.0283736
0.0283736
0.0283736
0.0283736
0.0283736
0.0283736
0.0283736
0.0283736
0.0283736
0.0283736
0.0283736
0.0283736
0.0283736
0.0283736
0.0283736
0.0283736
0.0283736
0.0283736
0.0283736
0.0283736
0.0283736
0.0283736
0.0283735
0.0283753
0.0283332
0.0281537
0.0402698
0.0049048
0.0590152
0.116162
0.00732936
0.854703
0.00356376
0.876239
0.0241293
0.000597614
2.03786e-06
0.0150515
0.081326
1.82963e-05
0.000448513
6.74514e-05
0.0158606
0.103043
0.0275368
0.00650204
0.636083
0.00653828
1.74086e-05
0.00528484
3.51686e-05
2.79285e-07
1.61994e-05
1.33337e-06
5.63699e-05
0.000729366
0.00220196
0.00045189
0.000745679
0.000167425
0.000535145
3.16165e-07
1.19708e-06
0.0283736
0.0283736
0.0283736
0.0283736
0.0283736
0.0283736
0.0283736
0.0283736
0.0283736
0.0283736
0.0283736
0.0283736
0.0283736
0.0283736
0.0283736
0.0283736
0.0283736
0.0283736
0.0283736
0.0283736
0.0283736
0.0283736
0.0283736
0.0283736
0.0283736
0.0283736
0.0283736
0.0283736
0.0283736
0.0283736
0.0283736
0.0283736
0.0283736
0.0283736
0.0283736
0.0283736
0.0283736
0.0283736
0.0283736
0.0283736
0.0283736
0.0283736
0.0283736
0.0283736
0.0283736
0.0283736
0.0283736
0.0283736
0.0283736
0.0283736
0.0283736
0.0283736
0.0283736
0.0283736
0.0283736
0.0283735
0.0283734
0.0285312
0.0255639
0.0382324
0.0163162
0.853443
0.0162515
0.000333763
0.0178019
0.070071
0.0416592
0.0168922
0.749614
0.186964
0.0481551
0.0812116
4.92167e-05
0.0328113
0.0395438
0.0495421
0.0696079
0.0482122
0.00207197
0.039125
1.16629e-05
0.00193609
0.0342329
0.548929
0.00934985
0.000496811
5.94871e-05
0.00081405
5.29911e-06
0.409313
1.92696e-07
7.6451e-05
0.00191303
6.8441e-08
0.0322016
0.000182714
0.0283736
0.0283736
0.0283736
0.0283736
0.0283736
0.0283736
0.0283736
0.0283736
0.0283736
0.0283736
0.0283736
0.0283736
0.0283736
0.0283736
0.0283736
0.0283736
0.0283736
0.0283736
0.0283736
0.0283736
0.0283736
0.0283736
0.0283736
0.0283736
0.0283736
0.0283736
0.0283736
0.0283736
0.0283736
0.0283736
0.0283736
0.0283736
0.0283736
0.0283736
0.0283736
0.0283736
0.0283736
0.0283736
0.0283736
0.0283736
0.0283736
0.0283736
0.0283736
0.0283736
0.0283736
0.0283736
0.0283736
0.0283736
0.0283736
0.0283736
0.0283736
0.0283736
0.0283736
0.0283736
0.0283736
0.0283735
0.0283775
0.0283198
0.0298823
0.0372378
0.0185771
0.856019
0.856948
0.825841
0.0149778
0.0837263
0.00754628
0.00729044
0.202247
1.67032e-09
0.0400331
0.000301357
0.026569
0.171826
0.508229
2.32835e-08
0.233404
0.853616
0.844594
3.66063e-06
0.0154457
0.00789757
0.0313287
0.42485
0.609642
0.0149258
0.000579796
0.000108273
2.71286e-06
2.83485e-06
2.60365e-06
9.07057e-05
3.98154e-14
7.60079e-06
3.28039e-05
9.78578e-06
0.0283736
0.0283736
0.0283736
0.0283736
0.0283736
0.0283736
0.0283736
0.0283736
0.0283736
0.0283736
0.0283736
0.0283736
0.0283736
0.0283736
0.0283736
0.0283736
0.0283736
0.0283736
0.0283736
0.0283736
0.0283736
0.0283736
0.0283736
0.0283736
0.0283736
0.0283736
0.0283736
0.0283736
0.0283736
0.0283736
0.0283736
0.0283736
0.0283736
0.0283736
0.0283736
0.0283736
0.0283736
0.0283736
0.0283736
0.0283736
0.0283736
0.0283736
0.0283736
0.0283736
0.0283736
0.0283736
0.0283736
0.0283736
0.0283736
0.0283736
0.0283736
0.0283736
0.0283736
0.0283736
0.0283736
0.0283735
0.0283737
0.0283725
0.0283734
0.0381051
0.000182115
0.012463
0.853223
0.000147063
0.0196661
0.132302
0.0394985
0.0350511
0.0352629
0.854744
1.03842e-05
0.00408523
0.014395
0.00025176
0.00020921
0.113725
0.0459655
0.0335205
0.000928681
2.47952e-05
0.000185435
6.84662e-05
0.000596886
0.000161934
0.00558181
2.96451e-05
8.00243e-06
6.52554e-07
3.4361e-07
1.08493e-05
4.19733e-05
0.000119343
7.205e-05
0.000214903
8.18131e-05
8.76791e-06
0.0283736
0.0283736
0.0283736
0.0283736
0.0283736
0.0283736
0.0283736
0.0283736
0.0283736
0.0283736
0.0283736
0.0283736
0.0283736
0.0283736
0.0283736
0.0283736
0.0283736
0.0283736
0.0283736
0.0283736
0.0283736
0.0283736
0.0283736
0.0283736
0.0283736
0.0283736
0.0283736
0.0283736
0.0283736
0.0283736
0.0283736
0.0283736
0.0283736
0.0283736
0.0283736
0.0283736
0.0283736
0.0283736
0.0283736
0.0283736
0.0283736
0.0283736
0.0283736
0.0283736
0.0283736
0.0283736
0.0283736
0.0283736
0.0283736
0.0283736
0.0283736
0.0283736
0.0283736
0.0283736
0.0283736
0.0283735
0.0283736
0.027976
0.0357297
0.0346743
0.0029023
1.46139e-07
0.853561
0.0355596
0.132368
0.00193574
0.00241048
0.0362475
0.038774
9.71852e-05
0.00272103
0.000636282
0.00191199
0.000375721
0.00101789
0.000288382
7.89607e-06
1.22182e-06
3.49469e-07
9.64587e-06
1.34405e-05
4.65133e-05
0.00171833
0.000263126
0.000174268
0.000139942
6.51304e-05
8.49964e-05
0.00014142
0.000458308
0.00495898
6.22252e-05
3.25927e-05
8.29155e-05
8.22326e-05
8.84764e-06
0.0283736
0.0283736
0.0283736
0.0283736
0.0283736
0.0283736
0.0283736
0.0283736
0.0283736
0.0283736
0.0283736
0.0283736
0.0283736
0.0283736
0.0283736
0.0283736
0.0283736
0.0283736
0.0283736
0.0283736
0.0283736
0.0283736
0.0283736
0.0283736
0.0283736
0.0283736
0.0283736
0.0283736
0.0283736
0.0283736
0.0283736
0.0283736
0.0283736
0.0283736
0.0283736
0.0283736
0.0283736
0.0283736
0.0283736
0.0283736
0.0283736
0.0283736
0.0283736
0.0283736
0.0283736
0.0283736
0.0283736
0.0283736
0.0283736
0.0283736
0.0283736
0.0283736
0.0283736
0.0283736
0.0283736
0.0283735
0.0283736
0.0283685
0.0285021
0.0311724
0.00689904
1.13794e-05
0.00144008
0.000725561
0.00158987
0.000754451
0.00117885
0.00462877
0.00133483
1.17625e-05
0.000441914
4.19648e-05
5.33439e-06
6.80093e-07
1.02801e-06
0.028346
9.51789e-07
2.08271e-05
0.000393188
0.000146941
0.000146895
0.000393588
0.00114732
0.000298266
0.000341537
0.000340549
0.000309037
0.000206938
0.000139398
0.000300261
0.000232315
0.000628091
5.00559e-05
7.85916e-05
0.000113526
8.82895e-06
0.0283736
0.0283736
0.0283736
0.0283736
0.0283736
0.0283736
0.0283736
0.0283736
0.0283736
0.0283736
0.0283736
0.0283736
0.0283736
0.0283736
0.0283736
0.0283736
0.0283736
0.0283736
0.0283736
0.0283736
0.0283736
0.0283736
0.0283736
0.0283736
0.0283736
0.0283736
0.0283736
0.0283736
0.0283736
0.0283736
0.0283736
0.0283736
0.0283736
0.0283736
0.0283736
0.0283736
0.0283736
0.0283736
0.0283736
0.0283736
0.0283736
0.0283736
0.0283736
0.0283736
0.0283736
0.0283736
0.0283736
0.0283736
0.0283736
0.0283736
0.0283736
0.0283736
0.0283736
0.0283736
0.0283736
0.0283736
0.0283736
0.0283736
0.0283724
0.045969
6.35027e-06
5.38784e-07
3.48285e-07
4.37088e-07
1.27635e-05
7.59635e-07
2.90377e-05
8.44013e-06
1.24708e-05
1.70802e-05
2.25821e-05
2.35517e-05
3.18458e-05
7.00885e-05
0.000459037
4.88009e-05
0.000264613
0.00650671
0.000524754
0.000616202
0.0202295
0.00057529
0.000218743
0.000122294
0.000138981
0.000226786
0.00025784
0.00021546
0.000111539
0.000342495
0.000546569
0.000133988
5.47684e-05
0.00011537
6.76004e-05
8.28201e-06
0.0283736
0.0283736
0.0283736
0.0283736
0.0283736
0.0283736
0.0283736
0.0283736
0.0283736
0.0283736
0.0283736
0.0283736
0.0283736
0.0283736
0.0283736
0.0283736
0.0283736
0.0283736
0.0283736
0.0283736
0.0283736
0.0283736
0.0283736
0.0283736
0.0283736
0.0283736
0.0283736
0.0283736
0.0283736
0.0283736
0.0283736
0.0283736
0.0283736
0.0283736
0.0283736
0.0283736
0.0283736
0.0283736
0.0283736
0.0283736
0.0283736
0.0283736
0.0283736
0.0283736
0.0283736
0.0283736
0.0283736
0.0283736
0.0283736
0.0283736
0.0283736
0.0283736
0.0283736
0.0283736
0.0283736
0.0283735
0.0283736
0.0283737
0.0283762
0.0350847
0.00974948
1.52933e-05
1.8682e-07
1.99428e-05
6.79657e-05
4.15025e-05
0.00195764
0.000577264
0.000207272
0.000156125
0.000153503
0.000154144
0.000105031
0.000112857
0.000140677
0.000230805
0.000419512
0.000923418
0.0011621
0.0003239
0.000210999
0.000131174
0.00010754
9.10373e-05
0.000151463
0.00259794
0.0349195
0.000784192
0.000115217
0.000326584
0.000222356
8.12067e-05
4.99134e-05
0.000182566
5.57017e-05
8.07967e-06
0.0283736
0.0283736
0.0283736
0.0283736
0.0283736
0.0283736
0.0283736
0.0283736
0.0283736
0.0283736
0.0283736
0.0283736
0.0283736
0.0283736
0.0283736
0.0283736
0.0283736
0.0283736
0.0283736
0.0283736
0.0283736
0.0283736
0.0283736
0.0283736
0.0283736
0.0283736
0.0283736
0.0283736
0.0283736
0.0283736
0.0283736
0.0283736
0.0283736
0.0283736
0.0283736
0.0283736
0.0283736
0.0283736
0.0283736
0.0283736
0.0283736
0.0283736
0.0283736
0.0283736
0.0283736
0.0283736
0.0283736
0.0283736
0.0283736
0.0283736
0.0283736
0.0283736
0.0283736
0.0283736
0.0283736
0.0283735
0.0283736
0.0283738
0.0286473
0.0375857
0.0196587
3.10684e-05
1.81287e-07
2.55207e-05
2.10144e-05
0.000140764
0.00870602
0.000903719
0.000991195
0.00519631
0.000436525
0.000267708
0.000192883
0.000159864
0.00016533
0.000186289
0.000212723
0.00125372
0.000275389
0.000150168
0.000120142
9.65581e-05
0.00013699
0.000151498
0.00440321
0.000153535
0.000180811
0.000395433
0.000142326
0.000303356
9.00469e-05
6.18424e-05
8.02093e-05
0.000250979
3.87252e-05
7.51379e-06
0.0283736
0.0283736
0.0283736
0.0283736
0.0283736
0.0283736
0.0283736
0.0283736
0.0283736
0.0283736
0.0283736
0.0283736
0.0283736
0.0283736
0.0283736
0.0283736
0.0283736
0.0283736
0.0283736
0.0283736
0.0283736
0.0283736
0.0283736
0.0283736
0.0283736
0.0283736
0.0283736
0.0283736
0.0283736
0.0283736
0.0283736
0.0283736
0.0283736
0.0283736
0.0283736
0.0283736
0.0283736
0.0283736
0.0283736
0.0283736
0.0283736
0.0283736
0.0283736
0.0283736
0.0283736
0.0283736
0.0283736
0.0283736
0.0283736
0.0283736
0.0283736
0.0283736
0.0283736
0.0283736
0.0283736
0.0283735
0.0283737
0.0283737
0.0277363
0.0354586
0.0110462
0.000279574
1.68567e-07
2.23203e-05
7.62458e-05
0.000257376
0.000206862
0.000198149
0.000318042
0.000334718
0.000318722
0.000253984
0.000201333
0.000197643
0.000206143
0.000199059
0.000262322
0.000635523
0.000523054
0.000241552
0.000360044
0.000326568
0.00282541
0.00109336
0.000416515
0.000177701
0.000195928
0.0010125
0.00012152
0.000324683
5.03012e-05
6.26567e-05
0.000598015
7.20732e-05
4.7633e-05
8.27667e-06
0.0283736
0.0283736
0.0283736
0.0283736
0.0283736
0.0283736
0.0283736
0.0283736
0.0283736
0.0283736
0.0283736
0.0283736
0.0283736
0.0283736
0.0283736
0.0283736
0.0283736
0.0283736
0.0283736
0.0283736
0.0283736
0.0283736
0.0283736
0.0283736
0.0283736
0.0283736
0.0283736
0.0283736
0.0283736
0.0283736
0.0283736
0.0283736
0.0283736
0.0283736
0.0283736
0.0283736
0.0283736
0.0283736
0.0283736
0.0283736
0.0283736
0.0283736
0.0283736
0.0283736
0.0283736
0.0283736
0.0283736
0.0283736
0.0283736
0.0283736
0.0283736
0.0283736
0.0283736
0.0283736
0.0283736
0.0283736
0.0283736
0.0286165
0.0355547
0.0295875
0.0138064
0.000116354
2.84668e-07
6.31573e-05
8.77827e-05
0.000435672
0.000337116
0.00139567
0.000633585
0.00065059
0.00561
0.00286976
0.000180865
6.75566e-05
0.000139333
0.000565203
0.000274806
0.000239335
0.000238888
0.000274049
0.00028586
0.00143722
0.000227197
0.000116983
0.00014397
0.00060399
0.000928473
0.00183046
0.000991118
0.000729416
0.000289368
0.000185082
0.00047764
0.0014255
7.94071e-05
8.55041e-06
0.0283736
0.0283736
0.0283736
0.0283736
0.0283736
0.0283736
0.0283736
0.0283736
0.0283736
0.0283736
0.0283736
0.0283736
0.0283736
0.0283736
0.0283736
0.0283736
0.0283736
0.0283736
0.0283736
0.0283736
0.0283736
0.0283736
0.0283736
0.0283736
0.0283736
0.0283736
0.0283736
0.0283736
0.0283736
0.0283736
0.0283736
0.0283736
0.0283736
0.0283736
0.0283736
0.0283736
0.0283736
0.0283736
0.0283736
0.0283736
0.0283736
0.0283736
0.0283736
0.0283736
0.0283736
0.0283736
0.0283736
0.0283736
0.0283736
0.0283736
0.0283736
0.0283736
0.0283736
0.0283736
0.0283736
0.0283736
0.0283737
0.0283806
0.028405
0.0336989
0.00755544
8.63664e-06
2.83883e-07
2.37148e-05
6.29399e-05
8.14936e-05
0.00185259
0.000460478
0.000295755
0.00042318
0.00175029
0.000242701
6.84e-05
5.28163e-05
0.000164052
0.000126977
7.9867e-05
6.87498e-05
6.02784e-05
0.00010924
0.000763096
9.96203e-05
5.80977e-05
6.08091e-05
0.000113778
0.00101961
0.000444656
0.00031766
0.000259686
0.000133505
0.00013733
0.000890163
0.000715385
0.0064473
6.48813e-05
8.29359e-06
0.0283736
0.0283736
0.0283736
0.0283736
0.0283736
0.0283736
0.0283736
0.0283736
0.0283736
0.0283736
0.0283736
0.0283736
0.0283736
0.0283736
0.0283736
0.0283736
0.0283736
0.0283736
0.0283736
0.0283736
0.0283736
0.0283736
0.0283736
0.0283736
0.0283736
0.0283736
0.0283736
0.0283736
0.0283736
0.0283736
0.0283736
0.0283736
0.0283736
0.0283736
0.0283736
0.0283736
0.0283736
0.0283736
0.0283736
0.0283736
0.0283736
0.0283736
0.0283736
0.0283736
0.0283736
0.0283736
0.0283736
0.0283736
0.0283736
0.0283736
0.0283736
0.0283736
0.0283736
0.0283736
0.0283736
0.0283736
0.0283736
0.028374
0.0278456
0.0353475
0.0220117
3.58799e-07
1.10945e-05
5.52376e-06
5.23571e-05
0.000371976
3.74995e-05
1.30205e-05
0.000333606
0.00100932
0.000429745
2.05231e-05
3.63565e-05
6.45386e-05
0.000247902
6.43772e-05
3.37528e-05
3.41412e-05
0.000210443
0.000112424
0.000603433
0.000235213
0.000149076
0.000205905
5.87061e-05
6.13709e-05
0.000381338
0.000919043
0.000523964
0.000138504
0.000127487
0.000283334
0.000126252
0.000190336
5.38128e-05
7.90628e-06
0.0283736
0.0283736
0.0283736
0.0283736
0.0283736
0.0283736
0.0283736
0.0283736
0.0283736
0.0283736
0.0283736
0.0283736
0.0283736
0.0283736
0.0283736
0.0283736
0.0283736
0.0283736
0.0283736
0.0283736
0.0283736
0.0283736
0.0283736
0.0283736
0.0283736
0.0283736
0.0283736
0.0283736
0.0283736
0.0283736
0.0283736
0.0283736
0.0283736
0.0283736
0.0283736
0.0283736
0.0283736
0.0283736
0.0283736
0.0283736
0.0283736
0.0283736
0.0283736
0.0283736
0.0283736
0.0283736
0.0283736
0.0283736
0.0283736
0.0283736
0.0283736
0.0283736
0.0283736
0.0283736
0.0283736
0.0283735
0.0283736
0.0283737
0.0291768
0.0292671
0.0112548
2.96639e-06
2.15865e-05
7.09028e-07
5.00597e-07
1.77352e-06
7.85169e-07
2.94171e-06
5.06119e-07
1.43584e-05
4.87045e-07
1.14454e-06
1.01171e-06
3.87582e-07
3.73609e-05
1.03132e-06
8.35164e-07
2.44456e-06
5.1333e-07
0.00102493
7.4345e-05
5.7224e-05
5.52087e-05
7.81508e-07
8.18669e-07
1.62891e-06
5.60781e-07
1.56556e-05
2.20837e-05
7.60585e-05
6.35435e-05
0.00689003
0.000138486
0.000349103
4.5346e-05
7.86696e-06
0.0283736
0.0283736
0.0283736
0.0283736
0.0283736
0.0283736
0.0283736
0.0283736
0.0283736
0.0283736
0.0283736
0.0283736
0.0283736
0.0283736
0.0283736
0.0283736
0.0283736
0.0283736
0.0283736
0.0283736
0.0283736
0.0283736
0.0283736
0.0283736
0.0283736
0.0283736
0.0283736
0.0283736
0.0283736
0.0283736
0.0283736
0.0283736
0.0283736
0.0283736
0.0283736
0.0283736
0.0283736
0.0283736
0.0283736
0.0283736
0.0283736
0.0283736
0.0283736
0.0283736
0.0283736
0.0283736
0.0283736
0.0283736
0.0283736
0.0283736
0.0283736
0.0283736
0.0283736
0.0283736
0.0283736
0.0283735
0.0283736
0.028375
0.0283985
0.0342287
0.00712603
0.0253335
0.0066484
0.000101024
0.0010529
0.00132497
0.00477266
0.00169958
0.00045419
0.0119434
0.000664371
0.000683859
0.00691088
0.0074638
0.00359743
0.0024856
0.0054582
0.0002993
0.00285626
0.0165723
0.0184586
0.00789278
5.29567e-06
0.00164962
6.56931e-06
0.000176854
8.57237e-05
0.000143309
5.31918e-06
1.29681e-07
4.18202e-07
4.10281e-06
0.000186253
0.00500643
3.82586e-05
7.53209e-06
0.0283736
0.0283736
0.0283736
0.0283736
0.0283736
0.0283736
0.0283736
0.0283736
0.0283736
0.0283736
0.0283736
0.0283736
0.0283736
0.0283736
0.0283736
0.0283736
0.0283736
0.0283736
0.0283736
0.0283736
0.0283736
0.0283736
0.0283736
0.0283736
0.0283736
0.0283736
0.0283736
0.0283736
0.0283736
0.0283736
0.0283736
0.0283736
0.0283736
0.0283736
0.0283736
0.0283736
0.0283736
0.0283736
0.0283736
0.0283736
0.0283736
0.0283736
0.0283736
0.0283736
0.0283736
0.0283736
0.0283736
0.0283736
0.0283736
0.0283736
0.0283736
0.0283736
0.0283736
0.0283736
0.0283735
0.0283736
0.0283732
0.0283707
0.0283486
0.0425187
0.0409024
0.853674
0.058858
0.195448
0.00718143
0.0156395
0.00727153
0.0369412
0.000396891
0.0210219
0.194939
0.000580182
0.267423
0.00654554
0.055671
0.00410178
0.00484268
0.152552
0.136531
0.0232148
1.42793e-06
0.111865
0.853952
0.828512
0.0110368
0.00368757
0.00399667
0.0276116
0.0313145
0.0189266
0.00176929
7.36663e-06
2.68298e-07
1.55167e-05
7.00203e-06
3.0434e-06
0.0283736
0.0283736
0.0283736
0.0283736
0.0283736
0.0283736
0.0283736
0.0283736
0.0283736
0.0283736
0.0283736
0.0283736
0.0283736
0.0283736
0.0283736
0.0283736
0.0283736
0.0283736
0.0283736
0.0283736
0.0283736
0.0283736
0.0283736
0.0283736
0.0283736
0.0283736
0.0283736
0.0283736
0.0283736
0.0283736
0.0283736
0.0283736
0.0283736
0.0283736
0.0283736
0.0283736
0.0283736
0.0283736
0.0283736
0.0283736
0.0283736
0.0283736
0.0283736
0.0283736
0.0283736
0.0283736
0.0283736
0.0283736
0.0283736
0.0283736
0.0283736
0.0283736
0.0283736
0.0283736
0.0283735
0.0283736
0.0283731
0.0283718
0.0280211
0.0525541
1.31848e-05
0.396969
0.017844
0.0211678
0.145623
0.00127885
0.000321434
0.0804178
0.0274645
0.177362
0.00790142
0.00313017
0.00533591
0.103821
0.139151
0.0473681
0.0150716
0.0267161
0.0281736
0.0374899
0.0521924
0.0733123
0.0114112
0.0271603
0.000200255
0.0405454
0.0442382
0.0255971
0.0716252
0.147659
0.104334
0.0178495
0.165723
3.18265e-05
0.853723
0.0356529
0.0283736
0.0283736
0.0283736
0.0283736
0.0283736
0.0283736
0.0283736
0.0283736
0.0283736
0.0283736
0.0283736
0.0283736
0.0283736
0.0283736
0.0283736
0.0283736
0.0283736
0.0283736
0.0283736
0.0283736
0.0283736
0.0283736
0.0283736
0.0283736
0.0283736
0.0283736
0.0283736
0.0283736
0.0283736
0.0283736
0.0283736
0.0283736
0.0283736
0.0283736
0.0283736
0.0283736
0.0283736
0.0283736
0.0283736
0.0283736
0.0283736
0.0283736
0.0283736
0.0283736
0.0283736
0.0283736
0.0283736
0.0283736
0.0283736
0.0283736
0.0283736
0.0283736
0.0283736
0.0283736
0.0283736
0.0283736
0.028375
0.0283709
0.0286712
0.0538184
0.025906
4.54549e-05
0.000186739
0.0408542
0.0584142
0.0866617
6.60046e-11
0.0856731
0.0218968
0.0339245
0.0578689
0.00871882
0.0294866
0.0132008
0.0924449
0.00825223
0.0338403
0.0242309
0.0245985
0.0329334
0.0151063
0.0458
0.0154535
0.0499698
0.0175077
9.8223e-08
0.0868811
0.00189471
0.0711555
0.0502181
0.0742793
0.0281119
0.0185086
0.0715122
0.0464543
1.9505e-06
0.0283736
0.0283736
0.0283736
0.0283736
0.0283736
0.0283736
0.0283736
0.0283736
0.0283736
0.0283736
0.0283736
0.0283736
0.0283736
0.0283736
0.0283736
0.0283736
0.0283736
0.0283736
0.0283736
0.0283736
0.0283736
0.0283736
0.0283736
0.0283736
0.0283736
0.0283736
0.0283736
0.0283736
0.0283736
0.0283736
0.0283736
0.0283736
0.0283736
0.0283736
0.0283736
0.0283736
0.0283736
0.0283736
0.0283736
0.0283736
0.0283736
0.0283736
0.0283736
0.0283736
0.0283736
0.0283736
0.0283736
0.0283736
0.0283736
0.0283736
0.0283736
0.0283736
0.0283736
0.0283735
0.0283736
0.0283735
0.0283736
0.0283625
0.0280397
0.0362977
0.0220966
1.26646e-05
1.4626e-06
0.0145486
0.0841955
0.00468359
0.00682156
0.0178401
0.0632965
2.15567e-05
0.11542
0.000296678
0.0515865
0.0424703
2.66713e-05
5.9363e-20
0.000367445
0.0205086
0.0495746
0.032862
0.0581019
0.0154873
0.0269007
0.012436
0.840204
0.0988764
0.225547
5.49692e-05
0.0577489
0.00915642
0.0346788
0.0205931
0.745807
0.055299
0.000925718
3.98605e-06
0.0283736
0.0283736
0.0283736
0.0283736
0.0283736
0.0283736
0.0283736
0.0283736
0.0283736
0.0283736
0.0283736
0.0283736
0.0283736
0.0283736
0.0283736
0.0283736
0.0283736
0.0283736
0.0283736
0.0283736
0.0283736
0.0283736
0.0283736
0.0283736
0.0283736
0.0283736
0.0283736
0.0283736
0.0283736
0.0283736
0.0283736
0.0283736
0.0283736
0.0283736
0.0283736
0.0283736
0.0283736
0.0283736
0.0283736
0.0283736
0.0283736
0.0283736
0.0283736
0.0283736
0.0283736
0.0283736
0.0283736
0.0283736
0.0283736
0.0283736
0.0283736
0.0283736
0.0283736
0.0283735
0.0283735
0.0283735
0.0283735
0.0283713
0.0283426
0.0359304
0.000986142
0.00617439
0.0783509
0.017118
0.000214328
0.758206
0.852792
0.853506
3.28622e-05
0.000213395
0.839029
0.00115466
1.30101e-05
0.00287966
0.0230791
0.000386392
0.846914
0.00197151
0.000378852
0.000381119
0.000968302
0.00147237
0.000741667
0.0315958
0.00204782
0.00154139
0.00233543
0.00262899
0.000232674
7.73894e-05
2.23321e-05
9.95687e-06
8.05977e-07
6.02924e-07
1.27518e-05
4.57679e-06
0.0283736
0.0283736
0.0283736
0.0283736
0.0283736
0.0283736
0.0283736
0.0283736
0.0283736
0.0283736
0.0283736
0.0283736
0.0283736
0.0283736
0.0283736
0.0283736
0.0283736
0.0283736
0.0283736
0.0283736
0.0283736
0.0283736
0.0283736
0.0283736
0.0283736
0.0283736
0.0283736
0.0283736
0.0283736
0.0283736
0.0283736
0.0283736
0.0283736
0.0283736
0.0283736
0.0283736
0.0283736
0.0283736
0.0283736
0.0283736
0.0283736
0.0283736
0.0283736
0.0283736
0.0283736
0.0283736
0.0283736
0.0283736
0.0283736
0.0283736
0.0283736
0.0283736
0.0283735
0.0283736
0.0283736
0.0283736
0.0283736
0.0283829
0.0264488
0.0381422
0.0119949
0.00312723
0.0211131
0.0367192
8.46578e-07
0.0091645
4.56074e-07
0.020063
1.92715e-09
0.00112882
0.0833776
0.0187149
0.00035949
0.000966333
0.000342409
5.18545e-07
8.05144e-07
4.44222e-07
6.32264e-06
7.85914e-06
2.68421e-05
5.93204e-05
5.75152e-05
6.57777e-05
7.58479e-05
4.43977e-05
3.20872e-05
4.31947e-05
4.27857e-05
6.24959e-05
6.00766e-05
1.24218e-05
8.32979e-06
0.000146348
8.94909e-05
9.52234e-06
0.0283736
0.0283736
0.0283736
0.0283736
0.0283736
0.0283736
0.0283736
0.0283736
0.0283736
0.0283736
0.0283736
0.0283736
0.0283736
0.0283736
0.0283736
0.0283736
0.0283736
0.0283736
0.0283736
0.0283736
0.0283736
0.0283736
0.0283736
0.0283736
0.0283736
0.0283736
0.0283736
0.0283736
0.0283736
0.0283736
0.0283736
0.0283736
0.0283736
0.0283736
0.0283736
0.0283736
0.0283736
0.0283736
0.0283736
0.0283736
0.0283736
0.0283736
0.0283736
0.0283736
0.0283736
0.0283736
0.0283736
0.0283736
0.0283736
0.0283736
0.0283736
0.0283736
0.0283736
0.0283735
0.0283736
0.0283736
0.0283736
0.0283732
0.0240909
0.0345357
0.00781026
1.42697e-05
0.000520818
0.00141257
0.000174419
0.000270017
0.000344364
8.96999e-05
5.97002e-05
2.01084e-05
3.85814e-06
3.27927e-06
6.20067e-07
5.96483e-07
8.31524e-05
5.18705e-05
2.57189e-05
0.000213449
0.000319348
0.000568881
0.000502384
0.000443863
0.000331716
0.000209175
0.000132058
0.000106244
0.000129616
0.000277826
0.00146633
0.00019455
0.000345903
6.68171e-05
5.22816e-05
0.000194715
7.59874e-05
9.14966e-06
0.0283736
0.0283736
0.0283736
0.0283736
0.0283736
0.0283736
0.0283736
0.0283736
0.0283736
0.0283736
0.0283736
0.0283736
0.0283736
0.0283736
0.0283736
0.0283736
0.0283736
0.0283736
0.0283736
0.0283736
0.0283736
0.0283736
0.0283736
0.0283736
0.0283736
0.0283736
0.0283736
0.0283736
0.0283736
0.0283736
0.0283736
0.0283736
0.0283736
0.0283736
0.0283736
0.0283736
0.0283736
0.0283736
0.0283736
0.0283736
0.0283736
0.0283736
0.0283736
0.0283736
0.0283736
0.0283736
0.0283736
0.0283736
0.0283736
0.0283736
0.0283736
0.0283736
0.0283736
0.0283736
0.0283736
0.0283736
0.0283736
0.0283745
0.0287712
0.0359884
0.00939948
4.38475e-11
1.01434e-05
3.71366e-05
2.24596e-05
4.21531e-05
3.0271e-05
1.65568e-05
1.83444e-05
2.14868e-05
2.71595e-05
3.88066e-05
3.92129e-05
0.000236837
0.000563934
0.00252479
0.00555442
0.000912167
0.000223073
0.000185379
0.000171623
0.000167807
0.000183703
0.000191004
0.000211536
0.000179202
0.000179997
0.000214592
0.000459758
0.000198701