/*--------------------------------*- C++ -*----------------------------------*\
| =========                 |                                                 |
| \\      /  F ield         | OpenFOAM: The Open Source CFD Toolbox           |
|  \\    /   O peration     | Version:  2.3.0                                 |
|   \\  /    A nd           | Web:      www.OpenFOAM.org                      |
|    \\/     M anipulation  |                                                 |
\*---------------------------------------------------------------------------*/
FoamFile
{
    version     2.0;
    format      ascii;
    class       volScalarField;
    location    "57";
    object      alpha.water;
}
// * * * * * * * * * * * * * * * * * * * * * * * * * * * * * * * * * * * * * //

dimensions      [0 0 0 0 0 0 0];

internalField   nonuniform List<scalar> 
6144
(
3.68203e-06
4.37401e-06
4.80195e-06
5.22997e-06
5.70793e-06
6.65844e-06
7.75071e-06
8.76539e-06
9.52373e-06
9.88832e-06
9.96292e-06
9.97389e-06
9.97742e-06
9.9823e-06
9.98485e-06
9.98694e-06
9.98727e-06
9.98785e-06
9.98742e-06
9.98742e-06
9.98742e-06
9.98739e-06
9.98702e-06
9.98653e-06
9.98589e-06
9.98539e-06
9.98501e-06
9.98446e-06
9.98371e-06
9.98304e-06
9.98236e-06
9.98174e-06
9.98098e-06
9.98022e-06
9.9794e-06
9.97868e-06
9.97782e-06
9.97714e-06
9.97599e-06
9.97511e-06
9.97511e-06
1.00092e-05
1.0726e-05
1.30779e-05
1.69737e-05
2.19171e-05
2.78938e-05
3.57951e-05
5.04897e-05
7.68347e-05
9.15372e-05
0.000103301
0.000111351
0.000118468
0.000119326
0.000125372
0.000124828
0.000131826
0.000727093
0.0493637
0.966037
0.999842
1
1
1
1
1
1
1
1
1
1
1
1
1
1
1
0.999999
0.999999
0.999999
0.999999
0.999999
0.999999
0.999999
1
1
1
1
1
1
1
1
1
1
1
1
3.36246e-06
4.25553e-06
5.00881e-06
5.49823e-06
6.20658e-06
6.92609e-06
7.89562e-06
8.83234e-06
9.55141e-06
9.87247e-06
9.95176e-06
9.97049e-06
9.97801e-06
9.98539e-06
9.99038e-06
9.99381e-06
9.99478e-06
9.99515e-06
9.9945e-06
9.9942e-06
9.9943e-06
9.99394e-06
9.99347e-06
9.99302e-06
9.99258e-06
9.99233e-06
9.99251e-06
9.99215e-06
9.9917e-06
9.99137e-06
9.99113e-06
9.99077e-06
9.99024e-06
9.98948e-06
9.98861e-06
9.98766e-06
9.98666e-06
9.98556e-06
9.98429e-06
9.98254e-06
9.98124e-06
1.00302e-05
1.07242e-05
1.32046e-05
1.80535e-05
2.56647e-05
3.57009e-05
4.57112e-05
6.20814e-05
7.68187e-05
9.05536e-05
0.000106253
0.000116881
0.000126523
0.000127888
0.000133196
0.000129004
0.00013214
0.000407421
0.0414065
0.967111
0.999873
1
1
1
1
1
1
1
1
0.999999
0.999999
0.999999
1
1
1
0.999999
0.999999
0.999999
0.999999
0.999999
0.999999
0.999999
0.999999
0.999999
0.999999
0.999999
0.999999
0.999999
0.999999
0.999999
1
1
1
1
1
3.14933e-06
3.91848e-06
4.82821e-06
5.51316e-06
6.36367e-06
7.09447e-06
8.02884e-06
8.83676e-06
9.38795e-06
9.72474e-06
9.87083e-06
9.92872e-06
9.95867e-06
9.97557e-06
9.98439e-06
9.99057e-06
9.99305e-06
9.99386e-06
9.99401e-06
9.99427e-06
9.99395e-06
9.99396e-06
9.99373e-06
9.99334e-06
9.99287e-06
9.99249e-06
9.99182e-06
9.99133e-06
9.99103e-06
9.99073e-06
9.99018e-06
9.98936e-06
9.98816e-06
9.98683e-06
9.98536e-06
9.98397e-06
9.98264e-06
9.98133e-06
9.98001e-06
9.97958e-06
9.98496e-06
1.01252e-05
1.08637e-05
1.32873e-05
1.92907e-05
2.99162e-05
4.34881e-05
5.59908e-05
6.6184e-05
7.62401e-05
8.68534e-05
0.000110565
0.000125702
0.000133929
0.000140541
0.000153155
0.000149707
0.000153909
0.000376237
0.0353307
0.961777
0.999839
1
1
1
1
1
1
1
1
0.999999
0.999999
0.999999
0.999999
0.999999
0.999999
0.999999
0.999999
0.999999
0.999999
0.999999
0.999999
0.999999
0.999999
0.999999
0.999999
0.999999
0.999999
0.999999
0.999999
0.999999
0.999999
0.999999
1
1
1
3.03103e-06
3.60029e-06
4.51082e-06
5.15575e-06
6.16276e-06
7.10746e-06
8.03913e-06
8.70256e-06
9.2518e-06
9.62073e-06
9.81107e-06
9.90413e-06
9.94873e-06
9.97023e-06
9.97974e-06
9.98677e-06
9.98937e-06
9.98993e-06
9.98974e-06
9.98971e-06
9.98952e-06
9.98934e-06
9.98909e-06
9.98854e-06
9.98793e-06
9.98722e-06
9.98667e-06
9.98618e-06
9.98594e-06
9.98571e-06
9.9856e-06
9.9852e-06
9.98452e-06
9.98346e-06
9.98237e-06
9.98113e-06
9.97986e-06
9.9792e-06
9.9792e-06
9.97929e-06
1.00182e-05
1.02675e-05
1.10042e-05
1.33622e-05
2.00271e-05
3.11983e-05
4.35277e-05
5.45025e-05
6.4269e-05
7.59103e-05
9.65566e-05
0.000128965
0.000137579
0.000147297
0.000158586
0.000164535
0.000158379
0.000162447
0.000232327
0.0500391
0.976673
0.99995
0.999998
0.999998
0.999999
1
1
0.999999
1
0.999999
0.999998
0.999999
0.999999
0.999999
0.999999
0.999999
0.999998
0.999999
0.999999
0.999999
0.999999
0.999999
0.999999
0.999999
0.999999
0.999999
0.999999
0.999999
0.999999
0.999999
0.999999
0.999999
0.999999
0.999999
1
1
2.9334e-06
3.33775e-06
4.19622e-06
4.79414e-06
5.72739e-06
6.58997e-06
7.84174e-06
8.59801e-06
9.13485e-06
9.52996e-06
9.76213e-06
9.88859e-06
9.94694e-06
9.97267e-06
9.98315e-06
9.99056e-06
9.99314e-06
9.99374e-06
9.99366e-06
9.99378e-06
9.9937e-06
9.99366e-06
9.99338e-06
9.99291e-06
9.9922e-06
9.99149e-06
9.99073e-06
9.99009e-06
9.98939e-06
9.9888e-06
9.9881e-06
9.98728e-06
9.98616e-06
9.98497e-06
9.98364e-06
9.98226e-06
9.98099e-06
9.98046e-06
9.98034e-06
9.99247e-06
1.00798e-05
1.03702e-05
1.11503e-05
1.32943e-05
1.89963e-05
2.88479e-05
4.00883e-05
5.04768e-05
6.29174e-05
8.23146e-05
0.000121022
0.000145631
0.000147131
0.00016659
0.000167827
0.000164355
0.000152139
0.000160808
0.000247137
0.0763208
0.981627
0.999845
0.999911
0.999962
0.999972
0.999974
0.999972
0.999975
0.999972
0.999967
0.999959
0.999952
0.999946
0.999941
0.999941
0.999949
0.999957
0.999968
0.99998
0.999988
0.999994
0.999997
0.999998
0.999999
0.999999
0.999999
0.999999
0.999999
0.999999
0.999999
0.999999
0.999999
0.999999
0.999999
1
1
2.84759e-06
3.14921e-06
3.86985e-06
4.41564e-06
5.37174e-06
6.11814e-06
7.32187e-06
8.44395e-06
9.01299e-06
9.4428e-06
9.71077e-06
9.86703e-06
9.93779e-06
9.96695e-06
9.97675e-06
9.98382e-06
9.98668e-06
9.98724e-06
9.98724e-06
9.98734e-06
9.9875e-06
9.98757e-06
9.98759e-06
9.98738e-06
9.98696e-06
9.98642e-06
9.98596e-06
9.98544e-06
9.98497e-06
9.98444e-06
9.98389e-06
9.98312e-06
9.98215e-06
9.98101e-06
9.97983e-06
9.97873e-06
9.97827e-06
9.97827e-06
9.97827e-06
9.98723e-06
1.00774e-05
1.03767e-05
1.12242e-05
1.32578e-05
1.8045e-05
2.6341e-05
3.62008e-05
4.71509e-05
6.33542e-05
9.44491e-05
0.000142095
0.000155719
0.000158509
0.000179069
0.000165717
0.000159898
0.000152611
0.000165967
0.000366702
0.110517
0.978089
0.998732
0.998908
0.999427
0.999519
0.999574
0.999511
0.99946
0.999393
0.999304
0.999206
0.999118
0.999055
0.999022
0.999047
0.999121
0.999184
0.999292
0.999418
0.999549
0.999668
0.999771
0.999847
0.999908
0.999952
0.999979
0.999993
0.999998
0.999999
1
1
1
1
1
1
1
2.76311e-06
3.01925e-06
3.57995e-06
4.05922e-06
5.08019e-06
5.83298e-06
6.80604e-06
8.18438e-06
8.89732e-06
9.37562e-06
9.67087e-06
9.8547e-06
9.93811e-06
9.97025e-06
9.98038e-06
9.98868e-06
9.99156e-06
9.99209e-06
9.99186e-06
9.9919e-06
9.9918e-06
9.99117e-06
9.99059e-06
9.99007e-06
9.98939e-06
9.98861e-06
9.98785e-06
9.98723e-06
9.98669e-06
9.98614e-06
9.98547e-06
9.98458e-06
9.9834e-06
9.98208e-06
9.98069e-06
9.97957e-06
9.97894e-06
9.97878e-06
9.97886e-06
9.98723e-06
1.00619e-05
1.03564e-05
1.1284e-05
1.33194e-05
1.74527e-05
2.48183e-05
3.45674e-05
4.63075e-05
6.42619e-05
0.000101749
0.000154242
0.000167264
0.000176888
0.000178992
0.000165881
0.000164008
0.000159876
0.000164879
0.000147275
0.137549
0.973849
0.995861
0.99588
0.997112
0.997363
0.997379
0.996895
0.996558
0.996249
0.995936
0.995674
0.99549
0.995406
0.995408
0.995615
0.995748
0.995898
0.996109
0.996421
0.996817
0.997224
0.997622
0.997986
0.998387
0.998789
0.999171
0.999485
0.999705
0.999845
0.999935
0.999992
1
1
1
1
1
2.6333e-06
2.91973e-06
3.35271e-06
3.7532e-06
4.8126e-06
5.67166e-06
6.6689e-06
7.73054e-06
8.70816e-06
9.30804e-06
9.65093e-06
9.84598e-06
9.93486e-06
9.96952e-06
9.97834e-06
9.98805e-06
9.99141e-06
9.99204e-06
9.99182e-06
9.99181e-06
9.99181e-06
9.992e-06
9.99212e-06
9.99211e-06
9.99201e-06
9.9918e-06
9.99152e-06
9.99121e-06
9.99088e-06
9.99041e-06
9.98966e-06
9.98863e-06
9.98738e-06
9.98608e-06
9.98492e-06
9.98416e-06
9.98375e-06
9.98352e-06
9.98414e-06
9.98888e-06
1.00318e-05
1.02624e-05
1.1173e-05
1.31256e-05
1.66032e-05
2.29944e-05
3.23625e-05
4.39344e-05
5.97761e-05
8.03341e-05
0.000153529
0.000177284
0.000183807
0.000180635
0.00016887
0.00016798
0.000168139
0.000159965
0.000147275
0.163494
0.976454
0.992306
0.991835
0.992628
0.992777
0.99232
0.991919
0.991454
0.991138
0.990898
0.99071
0.990584
0.990536
0.990525
0.99062
0.990709
0.990884
0.991064
0.991357
0.991878
0.99253
0.993186
0.993708
0.994199
0.994613
0.995047
0.995627
0.996142
0.996468
0.996595
0.996369
0.995314
0.993016
0.990346
0.988117
0.986526
2.41037e-06
2.80527e-06
3.10574e-06
3.47053e-06
4.52134e-06
5.52867e-06
6.73236e-06
7.25297e-06
8.40241e-06
9.22656e-06
9.61841e-06
9.82909e-06
9.9235e-06
9.9605e-06
9.96939e-06
9.98056e-06
9.98477e-06
9.98608e-06
9.98588e-06
9.98593e-06
9.98617e-06
9.98666e-06
9.98696e-06
9.9871e-06
9.98713e-06
9.98705e-06
9.98687e-06
9.98663e-06
9.98633e-06
9.986e-06
9.98544e-06
9.98462e-06
9.98355e-06
9.98253e-06
9.98192e-06
9.98192e-06
9.98192e-06
9.98192e-06
9.98192e-06
9.98284e-06
1.00038e-05
1.01851e-05
1.10621e-05
1.29177e-05
1.59414e-05
2.15526e-05
3.11191e-05
4.45407e-05
6.16744e-05
7.86937e-05
0.000121773
0.00016406
0.000179688
0.000185917
0.000172395
0.000171473
0.000177125
0.000189685
0.000156671
0.151639
0.975865
0.990956
0.990428
0.99062
0.990864
0.990874
0.990857
0.990812
0.990725
0.990632
0.990552
0.990215
0.989946
0.989685
0.989474
0.989309
0.989214
0.989189
0.989304
0.989745
0.990516
0.991503
0.992186
0.992576
0.992591
0.99239
0.992424
0.992339
0.9921
0.99213
0.991532
0.990981
0.990529
0.990466
0.993487
0.99605
2.17472e-06
2.4796e-06
2.75342e-06
3.08472e-06
4.13405e-06
5.30785e-06
6.74944e-06
7.29795e-06
8.26447e-06
9.19554e-06
9.62355e-06
9.82671e-06
9.91895e-06
9.96192e-06
9.97344e-06
9.98547e-06
9.99054e-06
9.99203e-06
9.99152e-06
9.9914e-06
9.99136e-06
9.99152e-06
9.99152e-06
9.9913e-06
9.99097e-06
9.99052e-06
9.98999e-06
9.98944e-06
9.98885e-06
9.9882e-06
9.98734e-06
9.98623e-06
9.9849e-06
9.98358e-06
9.98276e-06
9.98248e-06
9.98216e-06
9.98204e-06
9.9821e-06
9.98251e-06
9.99144e-06
1.01181e-05
1.08599e-05
1.25314e-05
1.52107e-05
2.01332e-05
2.92163e-05
4.21908e-05
6.16312e-05
8.19207e-05
8.81746e-05
0.000131664
0.000161335
0.00018133
0.00017761
0.000175867
0.00017073
0.000227472
0.000453859
0.103362
0.967407
0.993219
0.992825
0.993346
0.99377
0.994256
0.994835
0.995246
0.995417
0.995451
0.995218
0.995046
0.994783
0.994471
0.994098
0.993729
0.993423
0.993166
0.992875
0.992713
0.99292
0.993945
0.994603
0.994799
0.994182
0.993736
0.993443
0.993024
0.992582
0.992326
0.992184
0.9921
0.993253
0.995041
0.997661
0.998972
1.97168e-06
2.20619e-06
2.37737e-06
2.67166e-06
3.70419e-06
4.95959e-06
6.68714e-06
7.80216e-06
8.30092e-06
9.21001e-06
9.64339e-06
9.82357e-06
9.90493e-06
9.95169e-06
9.96601e-06
9.97936e-06
9.98536e-06
9.98764e-06
9.98773e-06
9.98817e-06
9.98857e-06
9.98906e-06
9.98938e-06
9.98947e-06
9.9895e-06
9.98938e-06
9.98917e-06
9.98883e-06
9.98839e-06
9.98785e-06
9.98717e-06
9.98616e-06
9.98502e-06
9.98401e-06
9.98341e-06
9.98304e-06
9.98274e-06
9.98262e-06
9.98273e-06
9.98305e-06
9.99099e-06
1.00771e-05
1.05618e-05
1.18216e-05
1.40566e-05
1.82516e-05
2.65944e-05
3.92816e-05
5.89825e-05
8.37725e-05
9.0156e-05
0.000103121
0.000129627
0.000163964
0.000175397
0.000173965
0.000160891
0.000183647
0.000356
0.0717898
0.956246
0.997018
0.997116
0.997678
0.997973
0.998328
0.998588
0.998713
0.998745
0.998751
0.998699
0.998672
0.998636
0.998562
0.998429
0.998261
0.998096
0.997936
0.997753
0.99762
0.997567
0.997884
0.998091
0.998163
0.997608
0.997207
0.996664
0.996173
0.99571
0.995532
0.995913
0.996478
0.997777
0.998988
0.999652
0.999858
1.87795e-06
2.01346e-06
2.04177e-06
2.17539e-06
3.03422e-06
4.26773e-06
6.22827e-06
7.87128e-06
8.40091e-06
9.26213e-06
9.69696e-06
9.83766e-06
9.89539e-06
9.9336e-06
9.95183e-06
9.97191e-06
9.98459e-06
9.98846e-06
9.98857e-06
9.98896e-06
9.98929e-06
9.98972e-06
9.98996e-06
9.99005e-06
9.99008e-06
9.99001e-06
9.98982e-06
9.98955e-06
9.9891e-06
9.98871e-06
9.98843e-06
9.98773e-06
9.98698e-06
9.98648e-06
9.98638e-06
9.9862e-06
9.98613e-06
9.98581e-06
9.98593e-06
9.98598e-06
9.99349e-06
1.00595e-05
1.03328e-05
1.12086e-05
1.30767e-05
1.63773e-05
2.3272e-05
3.62503e-05
5.44677e-05
8.17926e-05
9.7172e-05
9.93356e-05
0.00010841
0.000139812
0.000164131
0.000170383
0.000150677
0.000166341
0.000156895
0.0606807
0.968677
0.999437
0.999523
0.999676
0.999741
0.999806
0.999832
0.999842
0.999843
0.999837
0.999835
0.999836
0.999839
0.99984
0.999817
0.999789
0.999759
0.999732
0.999707
0.999693
0.99969
0.999737
0.999757
0.999722
0.999635
0.99957
0.999485
0.999398
0.999322
0.999292
0.999438
0.999635
0.99982
0.999946
0.999984
0.999993
1.76411e-06
1.94854e-06
1.9148e-06
1.90408e-06
2.35563e-06
3.29459e-06
5.02972e-06
7.0604e-06
8.64988e-06
9.29955e-06
9.73771e-06
9.86534e-06
9.91586e-06
9.94024e-06
9.95464e-06
9.97733e-06
9.99001e-06
9.99417e-06
9.99366e-06
9.99344e-06
9.99343e-06
9.9935e-06
9.99354e-06
9.99347e-06
9.99333e-06
9.99306e-06
9.99266e-06
9.99221e-06
9.99165e-06
9.99116e-06
9.99062e-06
9.98969e-06
9.98873e-06
9.98804e-06
9.98786e-06
9.98777e-06
9.98791e-06
9.988e-06
9.98866e-06
9.98914e-06
9.99772e-06
1.00588e-05
1.02926e-05
1.11137e-05
1.29102e-05
1.59279e-05
2.0958e-05
3.37875e-05
5.30701e-05
7.94004e-05
9.77245e-05
0.000105445
0.000103137
0.000127004
0.000157667
0.000157539
0.000142227
0.000172015
0.000186362
0.0605185
0.989841
0.999969
0.999981
0.999989
0.999993
0.999996
0.999997
0.999997
0.999996
0.999996
0.999996
0.999996
0.999996
0.999996
0.999995
0.999994
0.999993
0.999991
0.99999
0.99999
0.999992
0.999995
0.999996
0.999995
0.999994
0.999994
0.999993
0.999992
0.99999
0.999989
0.999992
0.999995
0.999997
0.999999
0.999999
0.999999
1.78023e-06
2.04846e-06
1.97183e-06
1.96582e-06
1.96563e-06
2.67827e-06
3.91935e-06
5.92325e-06
8.38e-06
9.35013e-06
9.7371e-06
9.85483e-06
9.90353e-06
9.9328e-06
9.94956e-06
9.97507e-06
9.99751e-06
9.99752e-06
9.99752e-06
9.99752e-06
9.99752e-06
9.99752e-06
9.99751e-06
9.99751e-06
9.99718e-06
9.99665e-06
9.99597e-06
9.99529e-06
9.99462e-06
9.994e-06
9.99317e-06
9.99207e-06
9.99085e-06
9.9898e-06
9.98929e-06
9.98912e-06
9.98919e-06
9.98921e-06
9.98974e-06
9.99023e-06
9.99951e-06
1.00549e-05
1.02795e-05
1.1135e-05
1.30836e-05
1.62266e-05
2.06318e-05
3.28322e-05
5.29772e-05
7.82825e-05
9.75386e-05
0.000109785
0.00010326
0.000117584
0.00014532
0.000157715
0.000143474
0.000174106
0.000301435
0.0543311
0.975106
0.999998
0.999999
0.999999
0.999999
0.999999
0.999999
0.999999
0.999999
0.999999
1
1
1
1
1
1
1
1
1
0.999999
0.999999
0.999999
1
1
1
1
1
0.999999
0.999999
0.999999
0.999999
0.999999
0.999999
0.999999
0.999999
0.999999
1.9128e-06
2.45514e-06
2.44665e-06
2.4549e-06
2.20786e-06
2.54156e-06
3.25182e-06
4.67528e-06
7.51446e-06
9.36019e-06
9.73344e-06
9.82921e-06
9.87847e-06
9.91484e-06
9.93814e-06
9.96607e-06
9.99345e-06
9.99578e-06
9.9959e-06
9.99599e-06
9.99603e-06
9.996e-06
9.99592e-06
9.99583e-06
9.99543e-06
9.99489e-06
9.99425e-06
9.99362e-06
9.99304e-06
9.99247e-06
9.99172e-06
9.99071e-06
9.98964e-06
9.98877e-06
9.98827e-06
9.98812e-06
9.98816e-06
9.98814e-06
9.9885e-06
9.98906e-06
9.99921e-06
1.00537e-05
1.02963e-05
1.12263e-05
1.33271e-05
1.67558e-05
2.10522e-05
3.11223e-05
4.85523e-05
7.37115e-05
9.65592e-05
0.000112741
0.000105553
0.000112271
0.000125859
0.000151771
0.000141393
0.000175116
0.000373741
0.0606458
0.987073
0.999998
1
0.999999
0.999999
0.999999
0.999999
0.999999
0.999999
0.999999
0.999999
0.999999
1
1
0.999999
0.999999
0.999999
0.999999
0.999999
0.999999
0.999999
0.999999
0.999999
1
1
1
1
1
0.999999
0.999999
0.999999
0.999999
0.999999
0.999999
0.999999
0.999999
1.65235e-06
1.679e-06
2.17183e-06
3.12942e-06
3.02805e-06
2.97328e-06
3.43194e-06
4.32716e-06
6.88476e-06
9.36452e-06
9.73139e-06
9.81651e-06
9.8609e-06
9.89823e-06
9.92879e-06
9.96788e-06
1.00015e-05
1.00027e-05
1.00027e-05
1.00027e-05
1.00027e-05
1.00027e-05
1.00027e-05
1.00027e-05
1.00023e-05
1.00018e-05
1.00012e-05
1.00006e-05
1.00001e-05
9.99956e-06
9.99883e-06
9.99789e-06
9.99688e-06
9.99602e-06
9.99541e-06
9.99515e-06
9.99505e-06
9.99501e-06
9.99522e-06
9.99572e-06
1.00073e-05
1.0078e-05
1.04081e-05
1.14633e-05
1.36703e-05
1.71311e-05
2.13226e-05
2.75671e-05
4.09421e-05
7.27754e-05
0.000106798
0.000119298
0.000116773
0.00011963
0.000120223
0.000142425
0.000129074
0.000162681
0.000729089
0.0598355
0.981803
0.999962
1
0.999999
0.999999
0.999999
0.999999
0.999999
0.999999
0.999999
0.999999
0.999999
0.999999
0.999999
0.999999
0.999999
0.999999
0.999999
0.999999
0.999999
0.999999
0.999999
0.999999
1
1
1
1
1
1
0.999999
0.999999
0.999999
0.999999
0.999999
0.999999
0.999999
3.26167e-06
4.29357e-06
4.84319e-06
5.28363e-06
5.77363e-06
6.81986e-06
7.95414e-06
8.95037e-06
9.62045e-06
9.86205e-06
9.913e-06
9.94437e-06
9.97242e-06
9.98998e-06
1.00003e-05
1.00075e-05
1.00076e-05
1.00076e-05
1.00075e-05
1.00075e-05
1.00069e-05
1.00063e-05
1.00057e-05
1.00051e-05
1.00045e-05
1.00042e-05
1.00041e-05
1.00041e-05
1.00041e-05
1.00039e-05
1.00036e-05
1.00031e-05
1.00023e-05
1.00015e-05
1.00005e-05
9.99961e-06
9.99863e-06
9.99757e-06
9.99625e-06
9.9956e-06
1.00038e-05
1.00322e-05
1.06855e-05
1.30393e-05
1.66601e-05
2.0974e-05
2.65637e-05
3.36652e-05
4.62766e-05
7.53719e-05
8.9867e-05
0.000100034
0.00010727
0.000116192
0.000119686
0.000127832
0.000126888
0.0001434
0.000425044
0.049023
0.958375
0.999901
1
1
1
1
1
1
1
1
1
1
1
1
1
1
1
1
0.999999
0.999999
0.999999
1
1
1
1
1
1
1
1
1
1
1
1
1
1
1
2.5643e-06
3.95255e-06
5.28037e-06
5.84032e-06
6.50781e-06
7.27594e-06
8.2446e-06
8.97231e-06
9.38692e-06
9.59173e-06
9.75013e-06
9.8653e-06
9.9373e-06
9.97143e-06
9.98544e-06
9.99783e-06
1.00031e-05
1.00041e-05
1.00039e-05
1.0004e-05
1.00039e-05
1.00041e-05
1.00042e-05
1.0004e-05
1.00035e-05
1.00029e-05
1.00021e-05
1.00016e-05
1.00012e-05
1.00007e-05
9.99994e-06
9.99887e-06
9.99747e-06
9.99604e-06
9.99464e-06
9.9935e-06
9.99269e-06
9.99214e-06
9.99184e-06
9.99886e-06
1.00462e-05
1.02097e-05
1.07111e-05
1.24302e-05
1.57832e-05
2.20657e-05
3.17958e-05
4.06706e-05
5.52301e-05
7.41494e-05
8.61284e-05
9.59344e-05
0.000108403
0.000117884
0.000120477
0.000126069
0.000126863
0.000193194
0.000314961
0.0767373
0.982507
0.999991
1
1
1
1
1
1
1
1
0.999999
0.999999
0.999999
0.999999
1
1
0.999999
0.999999
0.999999
0.999999
0.999999
0.999999
0.999999
1
1
1
1
0.999999
0.999999
1
1
1
1
1
1
1
2.22925e-06
3.17715e-06
4.96347e-06
5.78314e-06
6.52768e-06
7.15513e-06
7.86453e-06
8.53003e-06
9.03876e-06
9.38482e-06
9.64599e-06
9.82544e-06
9.92149e-06
9.96509e-06
9.97943e-06
9.99349e-06
1e-05
1.0001e-05
1.00009e-05
1.0001e-05
1.0001e-05
1.0001e-05
1.00009e-05
1.00005e-05
9.99993e-06
9.99937e-06
9.99882e-06
9.99826e-06
9.99772e-06
9.99721e-06
9.99648e-06
9.99539e-06
9.99403e-06
9.99267e-06
9.99138e-06
9.9904e-06
9.98981e-06
9.98959e-06
9.98989e-06
1e-05
1.00591e-05
1.02834e-05
1.08318e-05
1.19797e-05
1.53255e-05
2.43609e-05
3.69052e-05
4.82266e-05
5.82376e-05
7.24091e-05
7.62282e-05
0.000104842
0.000124598
0.000129255
0.000131298
0.00013968
0.000131962
0.000160651
0.000251414
0.0560502
0.970545
0.999999
0.999999
0.999999
1
1
0.999999
0.999999
0.999999
1
0.999999
0.999999
0.999998
0.999999
0.999999
0.999999
0.999999
0.999999
0.999999
0.999999
0.999999
0.999999
0.999999
0.999999
0.999999
0.999999
0.999999
0.999999
0.999999
0.999999
0.999999
0.999999
0.999999
0.999999
0.999999
1
2.09743e-06
2.50583e-06
4.21282e-06
5.08005e-06
5.8799e-06
6.63125e-06
7.41761e-06
8.17919e-06
8.82441e-06
9.29192e-06
9.60634e-06
9.8118e-06
9.915e-06
9.96191e-06
9.97575e-06
9.99017e-06
9.99743e-06
9.99827e-06
9.99802e-06
9.99792e-06
9.99775e-06
9.9976e-06
9.99742e-06
9.99703e-06
9.99645e-06
9.99589e-06
9.99536e-06
9.99487e-06
9.99441e-06
9.99397e-06
9.99333e-06
9.99233e-06
9.99105e-06
9.98972e-06
9.98851e-06
9.98758e-06
9.98693e-06
9.98653e-06
9.98641e-06
9.99329e-06
1.00403e-05
1.02876e-05
1.09642e-05
1.23418e-05
1.58902e-05
2.49594e-05
3.6089e-05
4.66136e-05
5.73414e-05
6.98402e-05
8.81514e-05
0.000129975
0.000135031
0.000134233
0.000139424
0.000150405
0.000141859
0.00014757
0.00015793
0.0977826
0.994956
0.999974
0.999973
0.999974
0.999966
0.999961
0.999957
0.999954
0.999952
0.99995
0.99995
0.999955
0.999958
0.999965
0.999973
0.999982
0.99999
0.999995
0.999998
0.999999
0.999999
0.999999
0.999999
0.999999
0.999999
0.999999
0.999999
0.999999
0.999999
0.999999
0.999999
0.999999
0.999999
0.999999
0.999999
1
2.01151e-06
2.0685e-06
3.53981e-06
4.53522e-06
5.41032e-06
6.24719e-06
7.10193e-06
7.94294e-06
8.68733e-06
9.24137e-06
9.58702e-06
9.80606e-06
9.91195e-06
9.96033e-06
9.974e-06
9.98835e-06
9.9962e-06
9.99693e-06
9.99667e-06
9.99651e-06
9.9963e-06
9.99608e-06
9.99585e-06
9.99545e-06
9.99486e-06
9.99429e-06
9.99379e-06
9.99333e-06
9.99292e-06
9.99251e-06
9.99195e-06
9.99098e-06
9.98976e-06
9.98846e-06
9.98728e-06
9.98634e-06
9.98569e-06
9.9853e-06
9.98512e-06
9.99081e-06
1.0026e-05
1.02555e-05
1.10433e-05
1.27943e-05
1.63062e-05
2.26895e-05
3.07528e-05
4.14233e-05
5.5759e-05
8.03659e-05
0.000131481
0.000145112
0.000139194
0.000152057
0.000160769
0.000161516
0.000142
0.000147548
0.000147275
0.142123
0.995662
0.999233
0.999248
0.999227
0.999101
0.998999
0.998876
0.998767
0.998672
0.998592
0.998545
0.998569
0.998747
0.998928
0.999143
0.999361
0.999551
0.99971
0.999835
0.999919
0.999968
0.99999
0.999997
0.999999
0.999999
0.999999
0.999999
0.999999
0.999999
0.999999
0.999999
0.999999
0.999999
0.999999
0.999999
1
1.92638e-06
1.79083e-06
2.90848e-06
4.00198e-06
5.01214e-06
5.96542e-06
6.90219e-06
7.79959e-06
8.60691e-06
9.21569e-06
9.57896e-06
9.80423e-06
9.91058e-06
9.95927e-06
9.97279e-06
9.98693e-06
9.99519e-06
9.99579e-06
9.9955e-06
9.9953e-06
9.99507e-06
9.99481e-06
9.99454e-06
9.99414e-06
9.99355e-06
9.993e-06
9.99252e-06
9.9921e-06
9.99176e-06
9.99142e-06
9.99093e-06
9.99004e-06
9.98886e-06
9.98762e-06
9.98645e-06
9.98549e-06
9.9848e-06
9.98435e-06
9.98425e-06
9.98889e-06
1.00143e-05
1.01911e-05
1.09583e-05
1.28194e-05
1.61389e-05
2.08182e-05
2.66276e-05
3.72902e-05
5.79194e-05
0.000118733
0.00015603
0.000151269
0.000165546
0.000178339
0.000168348
0.000162673
0.000157767
0.000160312
0.000147275
0.213219
0.986638
0.993947
0.993828
0.993641
0.993248
0.992664
0.992038
0.991405
0.99083
0.99039
0.990224
0.990489
0.991087
0.992011
0.993093
0.994286
0.99552
0.996712
0.997746
0.998573
0.999184
0.999576
0.99979
0.999905
0.999962
0.999982
0.999992
0.999998
0.999999
1
1
1
1
1
1
1
1.86909e-06
1.59271e-06
2.38767e-06
3.42722e-06
4.64557e-06
5.72702e-06
6.76585e-06
7.7155e-06
8.56587e-06
9.20545e-06
9.57625e-06
9.80366e-06
9.91005e-06
9.95874e-06
9.97227e-06
9.98628e-06
9.99481e-06
9.99529e-06
9.99502e-06
9.99482e-06
9.99464e-06
9.99436e-06
9.9941e-06
9.9937e-06
9.99314e-06
9.99261e-06
9.99216e-06
9.99177e-06
9.99144e-06
9.99113e-06
9.99069e-06
9.98982e-06
9.98868e-06
9.98745e-06
9.98629e-06
9.9853e-06
9.98456e-06
9.98389e-06
9.98344e-06
9.98767e-06
1.00077e-05
1.01499e-05
1.08311e-05
1.26269e-05
1.58758e-05
2.04268e-05
2.55581e-05
3.52634e-05
6.29706e-05
0.000142795
0.000168497
0.000176185
0.000178729
0.000177973
0.000170973
0.00016896
0.000165416
0.000168445
0.000147275
0.323206
0.975666
0.983505
0.983094
0.982834
0.982769
0.982147
0.981377
0.980323
0.979465
0.978798
0.978449
0.978222
0.978346
0.978908
0.979836
0.98105
0.982767
0.984992
0.987609
0.990299
0.992901
0.995031
0.996592
0.99769
0.998424
0.998892
0.999293
0.999637
0.999826
0.99991
0.999941
0.999941
0.999958
0.999968
0.999958
0.999964
1.82708e-06
1.46504e-06
1.97239e-06
2.79914e-06
4.10701e-06
5.40045e-06
6.64889e-06
7.65784e-06
8.54485e-06
9.20246e-06
9.57741e-06
9.80578e-06
9.91131e-06
9.95872e-06
9.97208e-06
9.98595e-06
9.9946e-06
9.99506e-06
9.99489e-06
9.99478e-06
9.99476e-06
9.99479e-06
9.9947e-06
9.99446e-06
9.99399e-06
9.99353e-06
9.99309e-06
9.99267e-06
9.9923e-06
9.99193e-06
9.99144e-06
9.99047e-06
9.98921e-06
9.98791e-06
9.98675e-06
9.98564e-06
9.98461e-06
9.98393e-06
9.98363e-06
9.98776e-06
1.00058e-05
1.01266e-05
1.07445e-05
1.24137e-05
1.55545e-05
2.02181e-05
2.52848e-05
3.30249e-05
4.80904e-05
0.000106291
0.000180255
0.000180244
0.000178604
0.000177182
0.000173328
0.000170609
0.000165208
0.000168429
0.000147275
0.349756
0.970162
0.978542
0.977779
0.977546
0.977575
0.977812
0.976956
0.97624
0.975599
0.975101
0.974663
0.974128
0.973491
0.972831
0.972236
0.97152
0.970959
0.970793
0.971494
0.972451
0.974268
0.97649
0.979136
0.98181
0.984326
0.986377
0.987785
0.988481
0.987767
0.985257
0.981157
0.973861
0.961827
0.937618
0.878509
0.677628
1.74255e-06
1.39069e-06
1.65733e-06
2.18814e-06
3.38818e-06
4.88303e-06
6.46894e-06
7.61142e-06
8.53518e-06
9.2133e-06
9.59035e-06
9.81193e-06
9.91571e-06
9.96156e-06
9.9736e-06
9.98745e-06
9.99646e-06
9.99657e-06
9.99634e-06
9.99616e-06
9.99602e-06
9.99591e-06
9.99586e-06
9.99568e-06
9.99526e-06
9.99483e-06
9.99443e-06
9.99406e-06
9.99373e-06
9.99342e-06
9.99297e-06
9.99203e-06
9.99085e-06
9.98961e-06
9.98856e-06
9.98761e-06
9.98686e-06
9.9864e-06
9.98647e-06
9.99061e-06
1.00072e-05
1.01183e-05
1.06818e-05
1.2198e-05
1.50974e-05
1.95661e-05
2.48243e-05
3.2016e-05
4.35973e-05
6.58642e-05
0.000122911
0.000174851
0.000186363
0.000187978
0.000177467
0.000173712
0.000165329
0.000158868
0.000147275
0.24684
0.972381
0.984173
0.983449
0.983694
0.984237
0.984479
0.984781
0.984896
0.984809
0.983899
0.982596
0.981362
0.980038
0.978353
0.976417
0.974167
0.971752
0.969634
0.96764
0.965361
0.963588
0.961661
0.960285
0.959765
0.96056
0.960899
0.960375
0.958953
0.955773
0.950237
0.94476
0.938093
0.927988
0.914741
0.896281
0.887092
1.63335e-06
1.34192e-06
1.42444e-06
1.69668e-06
2.55481e-06
4.18e-06
6.18635e-06
7.57941e-06
8.54472e-06
9.23438e-06
9.60288e-06
9.82161e-06
9.92234e-06
9.96375e-06
9.97469e-06
9.98877e-06
9.99813e-06
9.9982e-06
9.99808e-06
9.99796e-06
9.99788e-06
9.99784e-06
9.99781e-06
9.99763e-06
9.99721e-06
9.99676e-06
9.99633e-06
9.99591e-06
9.99553e-06
9.99516e-06
9.99467e-06
9.99364e-06
9.99235e-06
9.99101e-06
9.98985e-06
9.98881e-06
9.98788e-06
9.98728e-06
9.98771e-06
9.99166e-06
1.00094e-05
1.01188e-05
1.06478e-05
1.2024e-05
1.46636e-05
1.87769e-05
2.3917e-05
3.10652e-05
4.20356e-05
6.42992e-05
8.25566e-05
0.000124746
0.000152255
0.000178431
0.000177603
0.000179967
0.00016535
0.000166309
0.000148423
0.214692
0.983113
0.99396
0.994243
0.995078
0.9954
0.995846
0.996097
0.996181
0.995676
0.995075
0.994217
0.993228
0.992143
0.99105
0.989942
0.988524
0.986694
0.984425
0.981594
0.976935
0.971338
0.964882
0.960125
0.957264
0.955314
0.953027
0.951454
0.950552
0.949475
0.947701
0.946545
0.945737
0.947235
0.955016
0.968198
0.98399
1.55091e-06
1.29799e-06
1.29361e-06
1.36349e-06
1.8634e-06
3.2757e-06
5.59165e-06
7.37951e-06
8.54809e-06
9.25786e-06
9.61776e-06
9.83402e-06
9.92794e-06
9.96426e-06
9.97386e-06
9.98874e-06
9.99843e-06
9.99841e-06
9.99843e-06
9.99842e-06
9.99843e-06
9.99842e-06
9.99842e-06
9.99826e-06
9.99789e-06
9.99748e-06
9.99708e-06
9.9967e-06
9.99636e-06
9.99603e-06
9.9956e-06
9.99461e-06
9.99336e-06
9.99209e-06
9.99109e-06
9.99033e-06
9.98976e-06
9.98918e-06
9.98963e-06
9.99343e-06
1.00115e-05
1.01184e-05
1.06101e-05
1.18731e-05
1.42916e-05
1.80402e-05
2.27778e-05
2.92478e-05
3.96348e-05
6.29624e-05
8.97509e-05
0.000101862
0.0001089
0.000140163
0.000163041
0.000177651
0.000160546
0.000175473
0.000176608
0.139854
0.986761
0.9986
0.998799
0.999017
0.999063
0.999139
0.999152
0.999124
0.998991
0.998811
0.998575
0.998314
0.998045
0.997801
0.997551
0.997155
0.996589
0.995853
0.994899
0.993192
0.990839
0.987732
0.98421
0.980225
0.976588
0.973318
0.971026
0.969789
0.969477
0.970693
0.973041
0.979627
0.986962
0.993485
0.997545
0.999141
1.50782e-06
1.26068e-06
1.23812e-06
1.22955e-06
1.48063e-06
2.57735e-06
4.72999e-06
7.0103e-06
8.57822e-06
9.31019e-06
9.65178e-06
9.85273e-06
9.93259e-06
9.96331e-06
9.97132e-06
9.98511e-06
9.99666e-06
9.99842e-06
9.99842e-06
9.99842e-06
9.99842e-06
9.99842e-06
9.99836e-06
9.99813e-06
9.99779e-06
9.99743e-06
9.99706e-06
9.99673e-06
9.99644e-06
9.99609e-06
9.99564e-06
9.99463e-06
9.99334e-06
9.99205e-06
9.99107e-06
9.99041e-06
9.98986e-06
9.98945e-06
9.99008e-06
9.9939e-06
1.00118e-05
1.0115e-05
1.05846e-05
1.17884e-05
1.40977e-05
1.76367e-05
2.21998e-05
2.82987e-05
3.83145e-05
6.40264e-05
9.33149e-05
0.000111889
0.000108127
0.000119769
0.000140188
0.000166928
0.00015778
0.000179062
0.000213506
0.10042
0.990326
0.999771
0.999799
0.999837
0.999843
0.999859
0.999862
0.999853
0.999832
0.999807
0.999779
0.999755
0.99974
0.999728
0.999699
0.999641
0.999552
0.999434
0.999282
0.999027
0.998672
0.998171
0.99754
0.996846
0.996055
0.995285
0.994793
0.994657
0.99495
0.995713
0.996918
0.998338
0.999338
0.999797
0.999949
0.99998
1.51388e-06
1.3354e-06
1.2346e-06
1.21422e-06
1.21114e-06
1.71115e-06
3.19979e-06
5.67065e-06
8.235e-06
9.35485e-06
9.68571e-06
9.86528e-06
9.93318e-06
9.95582e-06
9.96442e-06
9.98259e-06
9.99546e-06
9.99747e-06
9.99777e-06
9.9982e-06
9.99842e-06
9.99832e-06
9.99815e-06
9.99816e-06
9.99788e-06
9.99755e-06
9.9972e-06
9.99686e-06
9.99652e-06
9.99612e-06
9.99519e-06
9.9938e-06
9.9924e-06
9.99087e-06
9.9896e-06
9.98898e-06
9.9886e-06
9.98923e-06
9.98995e-06
9.99221e-06
1.00084e-05
1.01099e-05
1.0564e-05
1.17317e-05
1.39876e-05
1.74287e-05
2.1958e-05
2.78797e-05
3.855e-05
6.89234e-05
0.000102352
0.000115516
0.000110479
0.00011635
0.000131721
0.000156455
0.000142244
0.000187147
0.000302411
0.0873904
0.995856
0.999984
0.999982
0.999988
0.999989
0.999992
0.999993
0.999992
0.999991
0.999989
0.999988
0.999987
0.999987
0.999987
0.999986
0.999983
0.999979
0.999972
0.999962
0.999952
0.999943
0.999932
0.999908
0.999884
0.999857
0.99984
0.999836
0.999863
0.999884
0.999907
0.999949
0.999978
0.999994
0.999998
0.999999
0.999999
1.65159e-06
1.79863e-06
1.56452e-06
1.54802e-06
1.18235e-06
1.20275e-06
1.71791e-06
3.41756e-06
6.9248e-06
9.41507e-06
9.74123e-06
9.87295e-06
9.91303e-06
9.93288e-06
9.94461e-06
9.97114e-06
9.99206e-06
9.99473e-06
9.99496e-06
9.99517e-06
9.99532e-06
9.99536e-06
9.99531e-06
9.99514e-06
9.99473e-06
9.99415e-06
9.99346e-06
9.99271e-06
9.99195e-06
9.99112e-06