/*--------------------------------*- C++ -*----------------------------------*\
| =========                 |                                                 |
| \\      /  F ield         | OpenFOAM: The Open Source CFD Toolbox           |
|  \\    /   O peration     | Version:  2.3.0                                 |
|   \\  /    A nd           | Web:      www.OpenFOAM.org                      |
|    \\/     M anipulation  |                                                 |
\*---------------------------------------------------------------------------*/
FoamFile
{
    version     2.0;
    format      ascii;
    class       volScalarField;
    location    "57";
    object      alpha.air;
}
// * * * * * * * * * * * * * * * * * * * * * * * * * * * * * * * * * * * * * //

dimensions      [0 0 0 0 0 0 0];

internalField   nonuniform List<scalar> 
6144
(
0.999996
0.999996
0.999995
0.999995
0.999994
0.999993
0.999992
0.999991
0.99999
0.99999
0.99999
0.99999
0.99999
0.99999
0.99999
0.99999
0.99999
0.99999
0.99999
0.99999
0.99999
0.99999
0.99999
0.99999
0.99999
0.99999
0.99999
0.99999
0.99999
0.99999
0.99999
0.99999
0.99999
0.99999
0.99999
0.99999
0.99999
0.99999
0.99999
0.99999
0.99999
0.99999
0.999989
0.999987
0.999983
0.999978
0.999972
0.999964
0.99995
0.999923
0.999908
0.999897
0.999889
0.999882
0.999881
0.999875
0.999875
0.999868
0.999273
0.950636
0.0339631
0.000157785
4.62939e-07
4.62636e-07
4.69339e-07
4.70571e-07
4.69802e-07
4.70932e-07
4.70479e-07
4.70493e-07
4.70504e-07
4.74465e-07
4.78888e-07
4.84163e-07
4.85706e-07
4.87971e-07
4.98347e-07
5.04929e-07
5.12111e-07
5.29951e-07
5.34479e-07
5.27504e-07
5.13747e-07
5.01626e-07
4.94591e-07
4.77206e-07
4.56243e-07
4.50068e-07
4.48449e-07
4.47391e-07
4.47067e-07
4.54484e-07
4.79254e-07
4.35398e-07
4.18539e-07
4.18538e-07
0.999997
0.999996
0.999995
0.999995
0.999994
0.999993
0.999992
0.999991
0.99999
0.99999
0.99999
0.99999
0.99999
0.99999
0.99999
0.99999
0.99999
0.99999
0.99999
0.99999
0.99999
0.99999
0.99999
0.99999
0.99999
0.99999
0.99999
0.99999
0.99999
0.99999
0.99999
0.99999
0.99999
0.99999
0.99999
0.99999
0.99999
0.99999
0.99999
0.99999
0.99999
0.99999
0.999989
0.999987
0.999982
0.999974
0.999964
0.999954
0.999938
0.999923
0.999909
0.999894
0.999883
0.999873
0.999872
0.999867
0.999871
0.999868
0.999593
0.958594
0.0328886
0.000126568
4.59238e-07
4.63663e-07
4.59744e-07
4.55596e-07
4.56745e-07
4.60351e-07
4.6811e-07
4.93752e-07
5.69939e-07
5.88237e-07
5.42647e-07
4.96156e-07
4.85078e-07
4.86461e-07
5.13043e-07
5.78575e-07
6.5433e-07
6.80965e-07
6.81184e-07
6.51012e-07
6.22008e-07
5.79372e-07
5.51971e-07
5.55183e-07
5.74306e-07
5.73214e-07
5.53924e-07
5.27382e-07
5.00241e-07
4.631e-07
4.54696e-07
4.55997e-07
4.1854e-07
4.18539e-07
0.999997
0.999996
0.999995
0.999994
0.999994
0.999993
0.999992
0.999991
0.999991
0.99999
0.99999
0.99999
0.99999
0.99999
0.99999
0.99999
0.99999
0.99999
0.99999
0.99999
0.99999
0.99999
0.99999
0.99999
0.99999
0.99999
0.99999
0.99999
0.99999
0.99999
0.99999
0.99999
0.99999
0.99999
0.99999
0.99999
0.99999
0.99999
0.99999
0.99999
0.99999
0.99999
0.999989
0.999987
0.999981
0.99997
0.999957
0.999944
0.999934
0.999924
0.999913
0.999889
0.999874
0.999866
0.999859
0.999847
0.99985
0.999846
0.999624
0.964669
0.0382227
0.000161494
4.59239e-07
4.60336e-07
4.50131e-07
4.50155e-07
4.50208e-07
4.50246e-07
4.50264e-07
4.80869e-07
5.6607e-07
6.00718e-07
5.87581e-07
5.24535e-07
5.16025e-07
5.69426e-07
6.56008e-07
7.43982e-07
7.87072e-07
8.02633e-07
7.82993e-07
7.25534e-07
6.89964e-07
6.73126e-07
6.72445e-07
6.85248e-07
7.0141e-07
7.00397e-07
6.76107e-07
6.22876e-07
5.8615e-07
5.57535e-07
5.21257e-07
4.96429e-07
4.47764e-07
4.18541e-07
0.999997
0.999996
0.999995
0.999995
0.999994
0.999993
0.999992
0.999991
0.999991
0.99999
0.99999
0.99999
0.99999
0.99999
0.99999
0.99999
0.99999
0.99999
0.99999
0.99999
0.99999
0.99999
0.99999
0.99999
0.99999
0.99999
0.99999
0.99999
0.99999
0.99999
0.99999
0.99999
0.99999
0.99999
0.99999
0.99999
0.99999
0.99999
0.99999
0.99999
0.99999
0.99999
0.999989
0.999987
0.99998
0.999969
0.999956
0.999945
0.999936
0.999924
0.999903
0.999871
0.999862
0.999853
0.999841
0.999835
0.999842
0.999838
0.999768
0.949961
0.0233272
4.97877e-05
2.05739e-06
1.59351e-06
9.76826e-07
4.50922e-07
4.65633e-07
6.59822e-07
4.6905e-07
1.30004e-06
2.16668e-06
1.04457e-06
5.54991e-07
5.81184e-07
8.5699e-07
1.49703e-06
1.59964e-06
9.12011e-07
7.86101e-07
9.00637e-07
8.939e-07
7.72425e-07
6.83338e-07
7.02583e-07
7.33566e-07
7.64907e-07
7.71332e-07
7.65871e-07
7.47187e-07
6.91659e-07
6.14313e-07
5.71184e-07
5.42936e-07
5.118e-07
4.72705e-07
4.18542e-07
0.999997
0.999997
0.999996
0.999995
0.999994
0.999993
0.999992
0.999991
0.999991
0.99999
0.99999
0.99999
0.99999
0.99999
0.99999
0.99999
0.99999
0.99999
0.99999
0.99999
0.99999
0.99999
0.99999
0.99999
0.99999
0.99999
0.99999
0.99999
0.99999
0.99999
0.99999
0.99999
0.99999
0.99999
0.99999
0.99999
0.99999
0.99999
0.99999
0.99999
0.99999
0.99999
0.999989
0.999987
0.999981
0.999971
0.99996
0.99995
0.999937
0.999918
0.999879
0.999854
0.999853
0.999833
0.999832
0.999836
0.999848
0.999839
0.999753
0.923679
0.0183725
0.000155096
8.93015e-05
3.76667e-05
2.82014e-05
2.61777e-05
2.80275e-05
2.46529e-05
2.76442e-05
3.3173e-05
4.07124e-05
4.82145e-05
5.44044e-05
5.87242e-05
5.91674e-05
5.07161e-05
4.33623e-05
3.21611e-05
2.03813e-05
1.15322e-05
5.79905e-06
2.70579e-06
1.52625e-06
1.19853e-06
1.03636e-06
7.77693e-07
8.3588e-07
7.96083e-07
7.75435e-07
7.0913e-07
6.34084e-07
5.76525e-07
5.41808e-07
5.11428e-07
4.76983e-07
4.18812e-07
0.999997
0.999997
0.999996
0.999996
0.999995
0.999994
0.999993
0.999992
0.999991
0.999991
0.99999
0.99999
0.99999
0.99999
0.99999
0.99999
0.99999
0.99999
0.99999
0.99999
0.99999
0.99999
0.99999
0.99999
0.99999
0.99999
0.99999
0.99999
0.99999
0.99999
0.99999
0.99999
0.99999
0.99999
0.99999
0.99999
0.99999
0.99999
0.99999
0.99999
0.99999
0.99999
0.999989
0.999987
0.999982
0.999974
0.999964
0.999953
0.999937
0.999906
0.999858
0.999844
0.999841
0.999821
0.999834
0.99984
0.999847
0.999834
0.999633
0.889483
0.0219114
0.00126804
0.00109197
0.000573362
0.000481404
0.00042569
0.000488579
0.000539954
0.000607215
0.000695617
0.00079401
0.000881609
0.000944715
0.000977683
0.000953179
0.000879305
0.000815775
0.000707668
0.000582332
0.000451144
0.00033166
0.000228956
0.000153348
9.20533e-05
4.82022e-05
2.1144e-05
7.214e-06
2.08761e-06
7.69571e-07
3.50148e-07
3.50148e-07
4.17893e-07
4.7267e-07
4.78063e-07
4.59463e-07
4.02637e-07
0.999997
0.999997
0.999996
0.999996
0.999995
0.999994
0.999993
0.999992
0.999991
0.999991
0.99999
0.99999
0.99999
0.99999
0.99999
0.99999
0.99999
0.99999
0.99999
0.99999
0.99999
0.99999
0.99999
0.99999
0.99999
0.99999
0.99999
0.99999
0.99999
0.99999
0.99999
0.99999
0.99999
0.99999
0.99999
0.99999
0.99999
0.99999
0.99999
0.99999
0.99999
0.99999
0.999989
0.999987
0.999983
0.999975
0.999965
0.999954
0.999936
0.999898
0.999846
0.999833
0.999823
0.999821
0.999834
0.999836
0.99984
0.999835
0.999853
0.862451
0.0261506
0.00413857
0.00412037
0.0028881
0.00263655
0.00262069
0.00310528
0.00344171
0.0037515
0.00406395
0.00432648
0.00450999
0.00459436
0.00459243
0.00438526
0.00425165
0.00410217
0.0038914
0.00357944
0.00318279
0.00277583
0.0023776
0.00201418
0.00161292
0.00121132
0.000829109
0.000515336
0.000295046
0.000155346
6.50245e-05
8.24818e-06
3.49462e-07
3.49462e-07
3.49462e-07
3.49462e-07
3.49462e-07
0.999997
0.999997
0.999997
0.999996
0.999995
0.999994
0.999993
0.999992
0.999991
0.999991
0.99999
0.99999
0.99999
0.99999
0.99999
0.99999
0.99999
0.99999
0.99999
0.99999
0.99999
0.99999
0.99999
0.99999
0.99999
0.99999
0.99999
0.99999
0.99999
0.99999
0.99999
0.99999
0.99999
0.99999
0.99999
0.99999
0.99999
0.99999
0.99999
0.99999
0.99999
0.99999
0.999989
0.999987
0.999983
0.999977
0.999968
0.999956
0.99994
0.99992
0.999846
0.999823
0.999816
0.999819
0.999831
0.999832
0.999832
0.99984
0.999853
0.836506
0.0235461
0.00769365
0.00816464
0.00737229
0.00722271
0.00767975
0.00808108
0.00854585
0.00886244
0.00910166
0.00928962
0.00941595
0.00946403
0.0094754
0.00938019
0.00929124
0.00911637
0.00893639
0.00864332
0.00812154
0.00746986
0.0068143
0.00629169
0.00580103
0.005387
0.00495345
0.004373
0.00385765
0.00353164
0.00340471
0.0036307
0.00468633
0.00698395
0.00965427
0.0118831
0.0134737
0.999998
0.999997
0.999997
0.999997
0.999995
0.999994
0.999993
0.999993
0.999992
0.999991
0.99999
0.99999
0.99999
0.99999
0.99999
0.99999
0.99999
0.99999
0.99999
0.99999
0.99999
0.99999
0.99999
0.99999
0.99999
0.99999
0.99999
0.99999
0.99999
0.99999
0.99999
0.99999
0.99999
0.99999
0.99999
0.99999
0.99999
0.99999
0.99999
0.99999
0.99999
0.99999
0.999989
0.999987
0.999984
0.999978
0.999969
0.999955
0.999938
0.999921
0.999878
0.999836
0.99982
0.999814
0.999828
0.999829
0.999823
0.99981
0.999843
0.848361
0.0241346
0.00904364
0.00957235
0.00938037
0.00913635
0.00912639
0.00914276
0.00918809
0.00927481
0.00936753
0.00944758
0.00978501
0.0100537
0.0103149
0.010526
0.0106907
0.0107858
0.010811
0.0106965
0.0102553
0.00948383
0.00849743
0.00781372
0.0074243
0.0074093
0.00760979
0.00757577
0.00766138
0.00789956
0.00786961
0.00846759
0.00901945
0.00947137
0.00953422
0.00651299
0.00395011
0.999998
0.999998
0.999997
0.999997
0.999996
0.999995
0.999993
0.999993
0.999992
0.999991
0.99999
0.99999
0.99999
0.99999
0.99999
0.99999
0.99999
0.99999
0.99999
0.99999
0.99999
0.99999
0.99999
0.99999
0.99999
0.99999
0.99999
0.99999
0.99999
0.99999
0.99999
0.99999
0.99999
0.99999
0.99999
0.99999
0.99999
0.99999
0.99999
0.99999
0.99999
0.99999
0.999989
0.999987
0.999985
0.99998
0.999971
0.999958
0.999938
0.999918
0.999912
0.999868
0.999839
0.999819
0.999822
0.999824
0.999829
0.999773
0.999546
0.896638
0.0325925
0.00678146
0.00717526
0.00665412
0.00623048
0.00574379
0.00516507
0.00475441
0.00458346
0.00454891
0.00478184
0.00495412
0.00521678
0.00552888
0.00590222
0.00627102
0.00657699
0.00683354
0.00712534
0.00728733
0.00708028
0.0060555
0.00539672
0.00520089
0.00581847
0.00626448
0.00655702
0.00697639
0.00741799
0.00767406
0.00781608
0.00789964
0.00674702
0.00495918
0.00233899
0.00102756
0.999998
0.999998
0.999998
0.999997
0.999996
0.999995
0.999993
0.999992
0.999992
0.999991
0.99999
0.99999
0.99999
0.99999
0.99999
0.99999
0.99999
0.99999
0.99999
0.99999
0.99999
0.99999
0.99999
0.99999
0.99999
0.99999
0.99999
0.99999
0.99999
0.99999
0.99999
0.99999
0.99999
0.99999
0.99999
0.99999
0.99999
0.99999
0.99999
0.99999
0.99999
0.99999
0.999989
0.999988
0.999986
0.999982
0.999973
0.999961
0.999941
0.999916
0.99991
0.999897
0.99987
0.999836
0.999825
0.999826
0.999839
0.999816
0.999644
0.92821
0.0437541
0.00298213
0.00288409
0.0023219
0.00202697
0.00167232
0.00141211
0.00128729
0.00125453
0.00124908
0.00130099
0.00132804
0.00136427
0.00143809
0.00157143
0.00173901
0.00190354
0.00206355
0.00224652
0.00238004
0.00243327
0.00211622
0.00190855
0.00183725
0.00239222
0.00279327
0.00333648
0.0038265
0.00428985
0.00446797
0.00408699
0.00352201
0.00222251
0.00101206
0.000347592
0.000142049
0.999998
0.999998
0.999998
0.999998
0.999997
0.999996
0.999994
0.999992
0.999992
0.999991
0.99999
0.99999
0.99999
0.99999
0.99999
0.99999
0.99999
0.99999
0.99999
0.99999
0.99999
0.99999
0.99999
0.99999
0.99999
0.99999
0.99999
0.99999
0.99999
0.99999
0.99999
0.99999
0.99999
0.99999
0.99999
0.99999
0.99999
0.99999
0.99999
0.99999
0.99999
0.99999
0.99999
0.999989
0.999987
0.999984
0.999977
0.999964
0.999946
0.999918
0.999903
0.999901
0.999892
0.99986
0.999836
0.99983
0.999849
0.999834
0.999843
0.939319
0.0313228
0.000562948
0.000477116
0.000324392
0.000259004
0.000193638
0.000168426
0.000158232
0.000157438
0.000162905
0.000164856
0.000164157
0.000161156
0.000159937
0.000183156
0.000211043
0.000240618
0.000268038
0.000292715
0.000306746
0.000309634
0.000263208
0.000242733
0.000278417
0.000364762
0.000430098
0.000514848
0.000601636
0.000678196
0.00070758
0.000561553
0.000365077
0.000180149
5.36981e-05
1.64649e-05
7.1353e-06
0.999998
0.999998
0.999998
0.999998
0.999998
0.999997
0.999995
0.999993
0.999991
0.999991
0.99999
0.99999
0.99999
0.99999
0.99999
0.99999
0.99999
0.99999
0.99999
0.99999
0.99999
0.99999
0.99999
0.99999
0.99999
0.99999
0.99999
0.99999
0.99999
0.99999
0.99999
0.99999
0.99999
0.99999
0.99999
0.99999
0.99999
0.99999
0.99999
0.99999
0.99999
0.99999
0.99999
0.999989
0.999987
0.999984
0.999979
0.999966
0.999947
0.999921
0.999902
0.999895
0.999897
0.999873
0.999842
0.999842
0.999858
0.999828
0.999814
0.939482
0.010159
3.12278e-05
1.9469e-05
1.05599e-05
6.88861e-06
3.83969e-06
3.26504e-06
3.04918e-06
3.64986e-06
4.08411e-06
4.28276e-06
4.31987e-06
3.98432e-06
3.7742e-06
4.72425e-06
5.89076e-06
7.49091e-06
8.97014e-06
9.91857e-06
1.00613e-05
7.81117e-06
5.18163e-06
3.87814e-06
4.95114e-06
6.02451e-06
6.48384e-06
6.86478e-06
8.25449e-06
1.04687e-05
1.14516e-05
8.47098e-06
5.14457e-06
2.74339e-06
1.1142e-06
9.33774e-07
8.9433e-07
0.999998
0.999998
0.999998
0.999998
0.999998
0.999997
0.999996
0.999994
0.999992
0.999991
0.99999
0.99999
0.99999
0.99999
0.99999
0.99999
0.99999
0.99999
0.99999
0.99999
0.99999
0.99999
0.99999
0.99999
0.99999
0.99999
0.99999
0.99999
0.99999
0.99999
0.99999
0.99999
0.99999
0.99999
0.99999
0.99999
0.99999
0.99999
0.99999
0.99999
0.99999
0.99999
0.99999
0.999989
0.999987
0.999984
0.999979
0.999967
0.999947
0.999922
0.999902
0.99989
0.999897
0.999882
0.999855
0.999842
0.999857
0.999826
0.999699
0.945669
0.0248943
2.36879e-06
9.92703e-07
7.36549e-07
5.99395e-07
6.14547e-07
6.99226e-07
7.53905e-07
7.17488e-07
6.1926e-07
4.7745e-07
4.61443e-07
4.61431e-07
4.61422e-07
4.61409e-07
4.61396e-07
4.61409e-07
4.61423e-07
4.61438e-07
5.29156e-07
6.64188e-07
6.68361e-07
4.92055e-07
3.73001e-07
3.73001e-07
3.96486e-07
4.67827e-07
5.03727e-07
6.73271e-07
1.16566e-06
1.05492e-06
7.9816e-07
8.08818e-07
7.91329e-07
7.91538e-07
7.21672e-07
0.999998
0.999998
0.999998
0.999998
0.999998
0.999997
0.999997
0.999995
0.999992
0.999991
0.99999
0.99999
0.99999
0.99999
0.99999
0.99999
0.99999
0.99999
0.99999
0.99999
0.99999
0.99999
0.99999
0.99999
0.99999
0.99999
0.99999
0.99999
0.99999
0.99999
0.99999
0.99999
0.99999
0.99999
0.99999
0.99999
0.99999
0.99999
0.99999
0.99999
0.99999
0.99999
0.99999
0.999989
0.999987
0.999983
0.999979
0.999969
0.999951
0.999926
0.999903
0.999887
0.999894
0.999888
0.999874
0.999848
0.999859
0.999825
0.999626
0.939354
0.012927
2.31281e-06
4.96919e-07
5.43382e-07
5.28418e-07
5.23123e-07
5.20908e-07
5.16736e-07
5.1128e-07
5.11974e-07
5.22998e-07
5.21283e-07
4.96953e-07
4.97472e-07
5.05273e-07
5.14558e-07
5.15389e-07
5.2614e-07
5.30982e-07
5.36027e-07
5.42158e-07
5.37938e-07
5.12525e-07
4.35526e-07
4.16916e-07
4.17719e-07
4.18471e-07
4.65423e-07
5.66867e-07
6.67639e-07
7.4828e-07
8.0071e-07
8.07521e-07
7.77672e-07
7.45806e-07
6.85208e-07
0.999998
0.999998
0.999998
0.999997
0.999997
0.999997
0.999997
0.999996
0.999993
0.999991
0.99999
0.99999
0.99999
0.99999
0.99999
0.99999
0.99999
0.99999
0.99999
0.99999
0.99999
0.99999
0.99999
0.99999
0.99999
0.99999
0.99999
0.99999
0.99999
0.99999
0.99999
0.99999
0.99999
0.99999
0.99999
0.99999
0.99999
0.99999
0.99999
0.99999
0.99999
0.99999
0.99999
0.999989
0.999986
0.999983
0.999979
0.999972
0.999959
0.999927
0.999893
0.999881
0.999883
0.99988
0.99988
0.999858
0.999871
0.999837
0.999271
0.940165
0.0181971
3.75713e-05
4.9692e-07
5.07638e-07
5.04274e-07
5.04274e-07
5.04916e-07
5.05183e-07
5.0512e-07
5.05453e-07
5.06381e-07
5.08205e-07
5.08304e-07
5.0676e-07
5.06944e-07
5.12223e-07
5.14381e-07
5.22824e-07
5.28585e-07
5.36248e-07
5.43384e-07
5.44157e-07
5.22529e-07
4.8166e-07
4.03346e-07
4.02638e-07
4.18911e-07
4.33009e-07
4.751e-07
5.48767e-07
6.19589e-07
6.69908e-07
6.91902e-07
6.91313e-07
6.30747e-07
5.83695e-07
0.999997
0.999996
0.999995
0.999995
0.999994
0.999993
0.999992
0.999991
0.99999
0.99999
0.99999
0.99999
0.99999
0.99999
0.99999
0.99999
0.99999
0.99999
0.99999
0.99999
0.99999
0.99999
0.99999
0.99999
0.99999
0.99999
0.99999
0.99999
0.99999
0.99999
0.99999
0.99999
0.99999
0.99999
0.99999
0.99999
0.99999
0.99999
0.99999
0.99999
0.99999
0.99999
0.999989
0.999987
0.999983
0.999979
0.999973
0.999966
0.999954
0.999925
0.99991
0.9999
0.999893
0.999884
0.99988
0.999872
0.999873
0.999857
0.999575
0.950977
0.0416253
9.85639e-05
4.59238e-07
4.65104e-07
4.6564e-07
4.65418e-07
4.65948e-07
4.67007e-07
4.68657e-07
4.71723e-07
4.71908e-07
4.72881e-07
4.75883e-07
4.80808e-07
4.80536e-07
4.78872e-07
4.82922e-07
4.95565e-07
5.06613e-07
5.11522e-07
5.07496e-07
4.9864e-07
4.8785e-07
4.76168e-07
4.7541e-07
4.73049e-07
4.69084e-07
4.63499e-07
4.55726e-07
4.48368e-07
4.47373e-07
4.51322e-07
4.69054e-07
4.90447e-07
4.34726e-07
4.18539e-07
0.999997
0.999996
0.999995
0.999994
0.999993
0.999993
0.999992
0.999991
0.999991
0.99999
0.99999
0.99999
0.99999
0.99999
0.99999
0.99999
0.99999
0.99999
0.99999
0.99999
0.99999
0.99999
0.99999
0.99999
0.99999
0.99999
0.99999
0.99999
0.99999
0.99999
0.99999
0.99999
0.99999
0.99999
0.99999
0.99999
0.99999
0.99999
0.99999
0.99999
0.99999
0.99999
0.999989
0.999988
0.999984
0.999978
0.999968
0.999959
0.999945
0.999926
0.999914
0.999904
0.999892
0.999882
0.99988
0.999874
0.999873
0.999807
0.999685
0.923263
0.0174926
8.65959e-06
4.59237e-07
4.68876e-07
4.66886e-07
4.61577e-07
4.61985e-07
4.63466e-07
4.63693e-07
4.74942e-07
5.22179e-07
5.49871e-07
5.24286e-07
5.09116e-07
4.96869e-07
4.91982e-07
5.00584e-07
5.27258e-07
5.49988e-07
5.55505e-07
5.47825e-07
5.32528e-07
5.10865e-07
4.71356e-07
4.63882e-07
4.63583e-07
4.80483e-07
5.03509e-07
5.00149e-07
4.89895e-07
4.8419e-07
4.82092e-07
4.80859e-07
4.90046e-07
4.72592e-07
4.29978e-07
0.999998
0.999997
0.999995
0.999994
0.999993
0.999993
0.999992
0.999991
0.999991
0.999991
0.99999
0.99999
0.99999
0.99999
0.99999
0.99999
0.99999
0.99999
0.99999
0.99999
0.99999
0.99999
0.99999
0.99999
0.99999
0.99999
0.99999
0.99999
0.99999
0.99999
0.99999
0.99999
0.99999
0.99999
0.99999
0.99999
0.99999
0.99999
0.99999
0.99999
0.99999
0.99999
0.999989
0.999988
0.999985
0.999976
0.999963
0.999952
0.999942
0.999928
0.999924
0.999895
0.999875
0.999871
0.999869
0.99986
0.999868
0.999839
0.999749
0.94395
0.0294552
9.82148e-07
9.84904e-07
6.67348e-07
4.50342e-07
4.50321e-07
7.02995e-07
1.48246e-06
9.18748e-07
4.75043e-07
5.71204e-07
1.1269e-06
1.62377e-06
8.44048e-07
6.58252e-07
8.1595e-07
8.54181e-07
7.51299e-07
6.25906e-07
5.76976e-07
5.75531e-07
5.98079e-07
5.48985e-07
5.41893e-07
5.42012e-07
5.44966e-07
5.81694e-07
6.26351e-07
6.36597e-07
6.2768e-07
6.00312e-07
5.65714e-07
5.35801e-07
5.25023e-07
5.0783e-07
4.56954e-07
0.999998
0.999997
0.999996
0.999995
0.999994
0.999993
0.999993
0.999992
0.999991
0.999991
0.99999
0.99999
0.99999
0.99999
0.99999
0.99999
0.99999
0.99999
0.99999
0.99999
0.99999
0.99999
0.99999
0.99999
0.99999
0.99999
0.99999
0.99999
0.99999
0.99999
0.99999
0.99999
0.99999
0.99999
0.99999
0.99999
0.99999
0.99999
0.99999
0.99999
0.99999
0.99999
0.999989
0.999988
0.999984
0.999975
0.999964
0.999953
0.999943
0.99993
0.999912
0.99987
0.999865
0.999866
0.999861
0.99985
0.999858
0.999852
0.999842
0.902217
0.00504391
2.61083e-05
2.6863e-05
2.57509e-05
3.35663e-05
3.88349e-05
4.31e-05
4.55045e-05
4.80591e-05
4.98124e-05
4.98794e-05
4.48695e-05
4.23366e-05
3.49588e-05
2.68322e-05
1.7653e-05
1.04984e-05
5.36441e-06
2.42531e-06
1.15499e-06
8.64671e-07
1.00786e-06
5.58597e-07
6.24246e-07
6.76879e-07
7.3986e-07
7.40889e-07
7.39943e-07
7.27521e-07
7.06772e-07
6.77891e-07
6.30865e-07
5.88472e-07
5.64195e-07
5.30585e-07
4.62417e-07
0.999998
0.999998
0.999996
0.999995
0.999995
0.999994
0.999993
0.999992
0.999991
0.999991
0.99999
0.99999
0.99999
0.99999
0.99999
0.99999
0.99999
0.99999
0.99999
0.99999
0.99999
0.99999
0.99999
0.99999
0.99999
0.99999
0.99999
0.99999
0.99999
0.99999
0.99999
0.99999
0.99999
0.99999
0.99999
0.99999
0.99999
0.99999
0.99999
0.99999
0.99999
0.99999
0.999989
0.999987
0.999984
0.999977
0.999969
0.999959
0.999944
0.99992
0.999869
0.999855
0.999861
0.999848
0.999839
0.999838
0.999858
0.999852
0.999853
0.857877
0.00433798
0.000767101
0.000752046
0.000772984
0.000898956
0.00100062
0.0011238
0.00123299
0.00132829
0.00140762
0.001455
0.00143114
0.00125319
0.00107229
0.000857476
0.00063921
0.000449414
0.0002898
0.000164891
8.05969e-05
3.2061e-05
9.95563e-06
2.76015e-06
1.0146e-06
7.2505e-07
1.00484e-06
6.76512e-07
6.53832e-07
6.53371e-07
6.75819e-07
6.73139e-07
6.41002e-07
5.94464e-07
5.63994e-07
5.33172e-07
4.67089e-07
0.999998
0.999998
0.999997
0.999996
0.999995
0.999994
0.999993
0.999992
0.999991
0.999991
0.99999
0.99999
0.99999
0.99999
0.99999
0.99999
0.99999
0.99999
0.99999
0.99999
0.99999
0.99999
0.99999
0.99999
0.99999
0.99999
0.99999
0.99999
0.99999
0.99999
0.99999
0.99999
0.99999
0.99999
0.99999
0.99999
0.99999
0.99999
0.99999
0.99999
0.99999
0.99999
0.999989
0.999987
0.999984
0.999979
0.999973
0.999963
0.999942
0.999881
0.999844
0.999849
0.999834
0.999822
0.999832
0.999837
0.999842
0.99984
0.999853
0.786781
0.0133619
0.00605261
0.00617199
0.00635854
0.00675229
0.00733588
0.00796197
0.00859512
0.0091704
0.00960991
0.00977572
0.00951133
0.00891343
0.0079894
0.00690715
0.00571422
0.00447959
0.003288
0.00225364
0.00142675
0.000815846
0.000423574
0.000209964
9.50006e-05
3.8477e-05
1.78924e-05
7.52711e-06
2.24249e-06
8.22472e-07
3.66186e-07
3.97685e-07
4.50986e-07
4.51598e-07
4.5989e-07
4.60883e-07
4.31803e-07
0.999998
0.999998
0.999998
0.999997
0.999995
0.999994
0.999993
0.999992
0.999991
0.999991
0.99999
0.99999
0.99999
0.99999
0.99999
0.99999
0.99999
0.99999
0.99999
0.99999
0.99999
0.99999
0.99999
0.99999
0.99999
0.99999
0.99999
0.99999
0.99999
0.99999
0.99999
0.99999
0.99999
0.99999
0.99999
0.99999
0.99999
0.99999
0.99999
0.99999
0.99999
0.99999
0.999989
0.999987
0.999984
0.99998
0.999974
0.999965
0.999937
0.999857
0.999832
0.999824
0.999821
0.999822
0.999829
0.999831
0.999835
0.999832
0.999853
0.676794
0.0243341
0.0164954
0.0169057
0.0171664
0.0172312
0.0178528
0.0186227
0.0196775
0.0205352
0.0212017
0.0215508
0.0217783
0.0216537
0.0210922
0.020164
0.0189502
0.0172327
0.0150081
0.0123906
0.00970066
0.00709871
0.00496943
0.00340797
0.0023101
0.00157605
0.00110843
0.000706632
0.000363203
0.000173592
8.99354e-05
5.90969e-05
5.91778e-05
4.16046e-05
3.22995e-05
4.21643e-05
3.608e-05
0.999998
0.999999
0.999998
0.999997
0.999996
0.999995
0.999993
0.999992
0.999991
0.999991
0.99999
0.99999
0.99999
0.99999
0.99999
0.99999
0.99999
0.99999
0.99999
0.99999
0.99999
0.99999
0.99999
0.99999
0.99999
0.99999
0.99999
0.99999
0.99999
0.99999
0.99999
0.99999
0.99999
0.99999
0.99999
0.99999
0.99999
0.99999
0.99999
0.99999
0.99999
0.99999
0.999989
0.999988
0.999984
0.99998
0.999975
0.999967
0.999952
0.999894
0.99982
0.99982
0.999821
0.999823
0.999827
0.999829
0.999835
0.999832
0.999853
0.650244
0.0298383
0.0214579
0.0222209
0.0224545
0.0224255
0.0221877
0.0230445
0.02376
0.0244015
0.0248991
0.0253366
0.0258722
0.0265086
0.0271688
0.0277641
0.0284797
0.0290413
0.0292068
0.0285055
0.0275488
0.0257322
0.0235103
0.0208637
0.0181904
0.0156739
0.0136228
0.0122145
0.0115185
0.0122328
0.0147426
0.0188429
0.0261392
0.0381731
0.0623818
0.121491
0.322372
0.999998
0.999999
0.999998
0.999998
0.999997
0.999995
0.999994
0.999992
0.999991
0.999991
0.99999
0.99999
0.99999
0.99999
0.99999
0.99999
0.99999
0.99999
0.99999
0.99999
0.99999
0.99999
0.99999
0.99999
0.99999
0.99999
0.99999
0.99999
0.99999
0.99999
0.99999
0.99999
0.99999
0.99999
0.99999
0.99999
0.99999
0.99999
0.99999
0.99999
0.99999
0.99999
0.999989
0.999988
0.999985
0.99998
0.999975
0.999968
0.999956
0.999934
0.999877
0.999825
0.999814
0.999812
0.999823
0.999826
0.999835
0.999841
0.999853
0.75316
0.0276191
0.0158269
0.0165507
0.0163057
0.0157628
0.0155209
0.015219
0.015104
0.015191
0.0161009
0.0174036
0.0186376
0.019962
0.0216468
0.023583
0.0258329
0.0282482
0.0303661
0.0323605
0.0346392
0.0364116
0.0383387
0.0397155
0.0402353
0.0394399
0.0391007
0.0396254
0.0410467
0.0442274
0.0497635
0.0552402
0.0619067
0.0720124
0.0852591
0.103719
0.112908
0.999998
0.999999
0.999999
0.999998
0.999997
0.999996
0.999994
0.999992
0.999991
0.999991
0.99999
0.99999
0.99999
0.99999
0.99999
0.99999
0.99999
0.99999
0.99999
0.99999
0.99999
0.99999
0.99999
0.99999
0.99999
0.99999
0.99999
0.99999
0.99999
0.99999
0.99999
0.99999
0.99999
0.99999
0.99999
0.99999
0.99999
0.99999
0.99999
0.99999
0.99999
0.99999
0.999989
0.999988
0.999985
0.999981
0.999976
0.999969
0.999958
0.999936
0.999917
0.999875
0.999848
0.999822
0.999822
0.99982
0.999835
0.999834
0.999852
0.785308
0.0168867
0.00604013
0.0057572
0.0049215
0.00460044
0.00415433
0.00390346
0.00381919
0.00432365
0.00492524
0.00578325
0.00677203
0.00785678
0.00894959
0.0100585
0.0114762
0.0133063
0.0155751
0.018406
0.0230645
0.0286621
0.0351185
0.0398754
0.0427355
0.0446855
0.0469726
0.0485463
0.0494482
0.0505251
0.0522986
0.0534546
0.054263
0.0527654
0.0449844
0.031802
0.0160101
0.999998
0.999999
0.999999
0.999999
0.999998
0.999997
0.999994
0.999993
0.999991
0.999991
0.99999
0.99999
0.99999
0.99999
0.99999
0.99999
0.99999
0.99999
0.99999
0.99999
0.99999
0.99999
0.99999
0.99999
0.99999
0.99999
0.99999
0.99999
0.99999
0.99999
0.99999
0.99999
0.99999
0.99999
0.99999
0.99999
0.99999
0.99999
0.99999
0.99999
0.99999
0.99999
0.999989
0.999988
0.999986
0.999982
0.999977
0.999971
0.99996
0.999937
0.99991
0.999898
0.999891
0.99986
0.999837
0.999822
0.999839
0.999825
0.999823
0.860146
0.0132391
0.00140018
0.00120133
0.000983046
0.000936953
0.000860542
0.000847821
0.000876374
0.00100907
0.00118883
0.00142456
0.00168565
0.00195471
0.00219865
0.00244942
0.00284451
0.0034111
0.00414721
0.0051007
0.00680812
0.00916137
0.0122681
0.0157902
0.0197752
0.0234122
0.0266817
0.0289735
0.0302114
0.0305232
0.0293066
0.0269594
0.0203726
0.0130376
0.00651471
0.00245517
0.00085861
0.999998
0.999999
0.999999
0.999999
0.999999
0.999997
0.999995
0.999993
0.999991
0.999991
0.99999
0.99999
0.99999
0.99999
0.99999
0.99999
0.99999
0.99999
0.99999
0.99999
0.99999
0.99999
0.99999
0.99999
0.99999
0.99999
0.99999
0.99999
0.99999
0.99999
0.99999
0.99999
0.99999
0.99999
0.99999
0.99999
0.99999
0.99999
0.99999
0.99999
0.99999
0.99999
0.999989
0.999988
0.999986
0.999982
0.999978
0.999972
0.999962
0.999936
0.999907
0.999888
0.999892
0.99988
0.99986
0.999833
0.999842
0.999821
0.999786
0.89958
0.00967398
0.000229175
0.000201488
0.000163017
0.000156558
0.000141419
0.000138453
0.000146984
0.00016775
0.000192839
0.000221204
0.000245205
0.000259907
0.000272033
0.000301493
0.000358861
0.000447594
0.000566047
0.000718391
0.00097319
0.00132833
0.00182909
0.00245957
0.00315414
0.0039448
0.00471471
0.00520698
0.00534268
0.00505015
0.0042868
0.00308163
0.00166214
0.0006624
0.000202598
5.05435e-05
2.03955e-05
0.999998
0.999999
0.999999
0.999999
0.999999
0.999998
0.999997
0.999994
0.999992
0.999991
0.99999
0.99999
0.99999
0.99999
0.99999
0.99999
0.99999
0.99999
0.99999
0.99999
0.99999
0.99999
0.99999
0.99999
0.99999
0.99999
0.99999
0.99999
0.99999
0.99999
0.99999
0.99999
0.99999
0.99999
0.99999
0.99999
0.99999
0.99999
0.99999
0.99999
0.99999
0.99999
0.999989
0.999988
0.999986
0.999983
0.999978
0.999972
0.999961
0.999931
0.999898
0.999884
0.99989
0.999884
0.999868
0.999844
0.999858
0.999813
0.999698
0.91261
0.00414376
1.63422e-05
1.75133e-05
1.17447e-05
1.08227e-05
8.12954e-06
7.32291e-06
7.97952e-06
9.10025e-06
1.06731e-05
1.21213e-05
1.27123e-05
1.26797e-05
1.28217e-05
1.37767e-05
1.66103e-05
2.12424e-05
2.82569e-05
3.76302e-05
4.78079e-05
5.69824e-05
6.84419e-05
9.1529e-05
0.000115963
0.000142565
0.000160193
0.000163766
0.000137032
0.000116066
9.34581e-05
5.05123e-05
2.18671e-05
6.20198e-06
1.72983e-06
8.67475e-07
9.29252e-07
0.999998
0.999998
0.999998
0.999998
0.999999
0.999999
0.999998
0.999997
0.999993
0.999991
0.99999
0.99999
0.99999
0.99999
0.99999
0.99999
0.99999
0.99999
0.99999
0.99999
0.99999
0.99999
0.99999
0.99999
0.99999
0.99999
0.99999
0.99999
0.99999
0.99999
0.99999
0.99999
0.99999
0.99999
0.99999
0.99999
0.99999
0.99999
0.99999
0.99999
0.99999
0.99999
0.999989
0.999988
0.999986
0.999983
0.999978
0.999972
0.99996
0.999925
0.999891
0.999882
0.999886
0.999883
0.999877
0.999853
0.999863
0.999818
0.999503
0.940822
0.026671
4.96919e-07
1.31644e-06
6.07703e-07
8.36485e-07
7.87289e-07
6.28228e-07
5.22244e-07
5.24722e-07
5.36446e-07
5.73114e-07
5.36099e-07
4.61444e-07
4.61432e-07
4.61423e-07
4.94193e-07
5.30531e-07
5.46743e-07
4.90061e-07
7.61102e-07
1.37766e-06
8.62799e-07
4.6267e-07
4.63006e-07
7.53256e-07
1.72682e-06
1.51101e-06
7.39512e-07
6.90962e-07
1.06418e-06
1.22237e-06
9.48547e-07
8.10503e-07
8.37113e-07
7.76885e-07
6.86481e-07
0.999998
0.999998
0.999998
0.999998
0.999999
0.999999
0.999999
0.999998
0.999995
0.999991
0.99999
0.99999
0.99999
0.99999
0.99999
0.99999
0.99999
0.99999
0.99999
0.99999
0.99999
0.99999
0.99999
0.99999
0.99999
0.99999
0.99999
0.99999
0.99999
0.99999
0.99999
0.99999
0.99999
0.99999
0.99999
0.99999
0.99999
0.99999
0.99999
0.99999
0.99999
0.99999
0.99999
0.999988
0.999986
0.999983
0.999979
0.999973
0.999959
0.999923
0.999888
0.999881
0.999884
0.999881
0.999881
0.999862
0.999868
0.999809
0.999306
0.914083
0.0100532
4.9692e-07
6.24441e-07
6.08255e-07
5.64166e-07
5.40086e-07
5.24266e-07
5.14641e-07
5.05107e-07
5.0504e-07
5.05676e-07
5.07983e-07
5.07255e-07
5.04602e-07
5.04302e-07
5.07868e-07
5.05948e-07
5.05387e-07
5.05096e-07
5.06098e-07
5.09711e-07
5.07997e-07
4.18337e-07
3.88124e-07
3.65297e-07
3.59642e-07
3.68553e-07
4.2116e-07
5.08832e-07
5.89663e-07
6.60073e-07
7.23642e-07
7.58265e-07
7.65959e-07
7.16747e-07
6.33844e-07
0.999998
0.999998
0.999998
0.999998
0.999998
0.999999
0.999999
0.999998
0.999996
0.999991
0.99999
0.99999
0.99999
0.99999
0.99999
0.99999
0.99999
0.99999
0.99999
0.99999
0.99999
0.99999
0.99999
0.99999
0.99999
0.99999
0.99999
0.99999
0.99999
0.99999
0.99999
0.99999
0.99999
0.99999
0.99999
0.99999
0.99999
0.99999
0.99999
0.99999
0.99999
0.99999
0.99999
0.999989
0.999986
0.999983
0.999979
0.999974
0.99996
0.999922
0.999884
0.999879
0.99988
0.999879
0.999881
0.999863
0.999868
0.99982
0.999286
0.930647
0.0139266
1.1721e-05
4.96921e-07
5.27232e-07
5.20643e-07
5.14839e-07
5.10105e-07
5.07159e-07
5.05482e-07
5.05818e-07
5.05908e-07
5.05995e-07
5.06342e-07
5.0611e-07
5.03824e-07
5.05586e-07
5.04151e-07
5.03947e-07
5.03954e-07
5.03962e-07