/*--------------------------------*- C++ -*----------------------------------*\
| =========                 |                                                 |
| \\      /  F ield         | OpenFOAM: The Open Source CFD Toolbox           |
|  \\    /   O peration     | Version:  2.3.0                                 |
|   \\  /    A nd           | Web:      www.OpenFOAM.org                      |
|    \\/     M anipulation  |                                                 |
\*---------------------------------------------------------------------------*/
FoamFile
{
    version     2.0;
    format      ascii;
    class       volVectorField;
    location    "57";
    object      U.air;
}
// * * * * * * * * * * * * * * * * * * * * * * * * * * * * * * * * * * * * * //

dimensions      [0 1 -1 0 0 0 0];

internalField   nonuniform List<vector> 
6144
(
(0.0107478 0.0199727 -0.00099677)
(0.0108117 -0.00191185 -0.00207576)
(0.00436282 -0.00292923 -0.0029175)
(0.00357193 -0.00275302 -0.00266229)
(0.00218419 -0.00144298 -0.00192467)
(0.00314302 0.00108658 -0.00161804)
(0.0033537 0.000343984 -0.00126144)
(0.00325344 0.000939307 -0.0011483)
(0.00257316 0.000509086 -0.000902197)
(0.00189495 0.00179816 -0.000334614)
(0.00134252 0.00297084 0.000256442)
(0.00126195 0.00413649 0.00096985)
(0.00137219 0.00431322 0.00141138)
(0.00150142 0.00385899 0.00181557)
(0.00154703 0.00302457 0.00186812)
(0.00163072 0.00220988 0.00179521)
(0.00170522 0.00135145 0.00158428)
(0.00178668 0.000633987 0.0013325)
(0.00186162 4.17395e-05 0.00106443)
(0.00192571 -0.000371404 0.000816354)
(0.00196928 -0.000615695 0.000589099)
(0.00200538 -0.000682461 0.000395863)
(0.002024 -0.000633489 0.000276141)
(0.00201832 -0.00051475 0.000243187)
(0.00198801 -0.000358891 0.000283967)
(0.00193879 -0.000188845 0.000388722)
(0.00188168 -3.03555e-05 0.000534641)
(0.0018284 8.66643e-05 0.000687095)
(0.00176842 0.000147959 0.000843247)
(0.00170206 0.00017718 0.000984948)
(0.00163326 0.000194206 0.00111659)
(0.00156629 0.000200507 0.00124857)
(0.00150299 0.000184191 0.00138759)
(0.00144874 0.000122618 0.00153447)
(0.0014065 -1.59583e-05 0.00167251)
(0.00137705 -0.000236057 0.00175524)
(0.00135661 -0.000487628 0.00174845)
(0.00134255 -0.000706857 0.00161843)
(0.00133735 -0.000709254 0.0012971)
(0.00137801 -0.00033011 0.000622539)
(0.00149891 0.000746262 -0.0002803)
(0.00194717 0.00251672 -0.00109952)
(0.0026971 0.00400726 -0.00137467)
(0.00326224 0.00423515 -0.00123959)
(0.00315994 0.00310189 -0.00112633)
(0.0036326 0.00153312 -0.0015523)
(0.0036249 -0.0019671 -0.0025438)
(0.00360526 -0.00207099 -0.00404671)
(0.00597706 0.00180693 -0.00646737)
(0.00437504 0.0142311 -0.00806837)
(0.0049845 0.0331725 -0.0145937)
(0.00714509 0.0385448 -0.0145468)
(0.00453846 0.0363661 -0.00495836)
(0.00597969 -0.0085533 0.000863143)
(0.00533416 -0.00990217 0.00478026)
(0.00248439 -0.0712984 0.0026645)
(0.000692432 -0.00911522 -0.00613964)
(-0.00998357 -0.113259 0.0418557)
(-0.0351466 0.02914 -0.0802179)
(0.0251545 0.0809565 0.0429832)
(0.082507 0.337612 0.0372464)
(0.0484639 0.388379 -0.0159124)
(0.0558655 -0.151725 -0.010351)
(0.0482545 -0.180286 -0.00967123)
(0.0442947 -0.175444 -0.00954037)
(0.0386236 -0.170456 -0.0109358)
(0.0325854 -0.172477 -0.00943734)
(0.027496 -0.168225 -0.00519168)
(0.0214453 -0.163217 -0.00386167)
(0.0204967 -0.155169 -0.00153782)
(0.0233402 -0.150126 0.00143347)
(0.0226758 -0.134194 0.00181525)
(0.0134362 -0.127591 0.00219982)
(0.00596571 -0.117053 0.00367137)
(-0.00295031 -0.110112 0.0117228)
(-0.0167087 -0.100232 0.00766898)
(-0.0366929 -0.0643306 -0.00411205)
(-0.014678 -0.0149443 -0.000377062)
(0.00694465 -0.0114304 -0.00194204)
(0.0179373 -0.00635385 -0.0102289)
(0.0251196 -0.0100489 -0.0146101)
(0.0268244 -0.0150432 -0.0138592)
(0.0288444 -0.0217854 -0.0127907)
(0.0199344 -0.0305155 -0.0106435)
(-0.00405379 -0.0274598 -0.00861423)
(-0.00758804 -0.0153724 -0.00667377)
(0.00559044 -0.0149218 -0.00603029)
(0.021549 -0.0241255 -0.00544517)
(0.0267183 -0.0341989 -0.00331625)
(0.0209928 -0.0390574 4.98791e-05)
(0.0189215 -0.0365691 -0.000307778)
(0.0121802 -0.027196 -0.00801014)
(0.000722951 -0.00649403 -0.0177865)
(-0.00903376 0.0262698 0.003486)
(-0.0057187 0.0497419 0.024671)
(0.00497834 0.0328348 0.0424111)
(0.0205249 0.0207815 0.00293452)
(0.0218278 0.00637184 0.00204103)
(0.0115249 0.00257701 -0.00199773)
(0.00969842 0.00112013 -0.000487858)
(0.00491879 -0.00218202 0.000741312)
(0.00528678 8.85946e-05 0.00129488)
(0.00539483 -0.000251705 0.00211534)
(0.00503609 0.00126116 0.00239094)
(0.00374283 0.00117604 0.00249245)
(0.00246126 0.00300105 0.00258241)
(0.00182432 0.00423229 0.00281646)
(0.00200962 0.00526045 0.00353842)
(0.00236748 0.00524264 0.00406043)
(0.00278259 0.00482296 0.00435613)
(0.00291529 0.0039561 0.00441549)
(0.00306907 0.00311969 0.00439983)
(0.00316049 0.0022013 0.00432593)
(0.00324741 0.0014224 0.00424312)
(0.00331496 0.000736238 0.0041595)
(0.00335812 0.00021557 0.00409447)
(0.0033642 -0.000144428 0.00404798)
(0.00336908 -0.000319824 0.00399012)
(0.0033584 -0.000372187 0.0039514)
(0.0033098 -0.000342411 0.00396803)
(0.0032191 -0.000258901 0.00403235)
(0.00310068 -0.000141914 0.00413385)
(0.002978 -1.38232e-05 0.00424842)
(0.00288171 9.78462e-05 0.00432559)
(0.00278227 0.000166203 0.00441172)
(0.00266842 0.000206809 0.00449565)
(0.00255111 0.000229061 0.004573)
(0.00244093 0.000233708 0.00464418)
(0.0023503 0.000216014 0.00470878)
(0.00229687 0.00016459 0.00476637)
(0.00228709 6.24772e-05 0.00481384)
(0.00229944 -9.6374e-05 0.00484274)
(0.00231043 -0.000280507 0.00484768)
(0.00227368 -0.000414501 0.00481168)
(0.00212906 -0.000282925 0.00470377)
(0.00203724 0.000385824 0.00418377)
(0.00208985 0.00178292 0.00321594)
(0.00276105 0.00344471 0.00239593)
(0.00440126 0.00443257 0.0020722)
(0.00646316 0.00392883 0.00193569)
(0.00864809 0.00137833 0.00183121)
(0.0111901 -0.00397504 0.000660375)
(0.0119208 -0.00963996 -0.000768051)
(0.00883825 -0.0117683 -0.00368271)
(0.00330882 -0.00549641 -0.00732291)
(0.00271044 0.0148941 -0.0103641)
(0.0125838 0.0285174 -0.00911116)
(0.0362525 0.0116667 -0.00629157)
(0.0445345 -0.00486382 -0.0113912)
(0.040528 -0.0509463 -0.00943793)
(0.030102 -0.0472956 -0.0128576)
(0.0219775 -0.0861703 -0.00717681)
(0.00603503 -0.0508295 -0.00444328)
(0.0144991 -0.138251 0.067214)
(-0.00520454 0.053114 -0.0660278)
(0.00168227 0.0446612 0.00570676)
(0.123718 0.348504 0.0872761)
(0.0679191 0.404308 -0.00482025)
(0.0711513 -0.113026 -0.00184242)
(0.0660061 -0.11369 0.008523)
(0.0493349 -0.110257 0.00365687)
(0.039809 -0.0968782 0.00106549)
(0.0215155 -0.087743 0.0108457)
(0.0136549 -0.0699789 0.00759477)
(0.00337379 -0.0430105 0.0134725)
(-0.0131202 -0.0104183 0.01363)
(-0.0263348 0.0289084 6.56873e-05)
(-0.00987852 0.061814 0.0119196)
(0.000740787 0.0661373 0.0161649)
(0.00294481 0.0660673 0.0171296)
(-0.00463113 0.0542401 0.0091494)
(-0.0112164 0.0437375 -0.000371258)
(-0.00609335 0.0484089 -0.0152332)
(0.0209998 0.0534954 -0.0246277)
(0.0382582 0.0488945 -0.0238652)
(0.0509603 0.0424641 -0.0241998)
(0.0558108 0.0311325 -0.0206625)
(0.0543541 0.0149819 -0.0176587)
(0.050945 0.00167878 -0.0165506)
(0.0405024 -0.00735723 -0.0113747)
(0.0349755 -0.0143736 -0.00627443)
(0.0340062 -0.0254747 -0.000940654)
(0.0374585 -0.0401082 0.000512952)
(0.0346616 -0.0516303 -0.00555352)
(0.0282981 -0.0522536 -0.0109092)
(0.0203966 -0.0508753 -0.00982933)
(0.00454341 -0.0478544 -0.00678571)
(-0.0050377 -0.0368076 -0.0162457)
(-0.0193833 -0.01636 -0.0307194)
(-0.0314379 0.0135341 -0.0177689)
(-0.0238699 0.0412337 0.0304856)
(-0.00915843 0.016156 0.0584833)
(0.0234739 0.0209555 0.00419993)
(0.0260233 0.0121521 0.00405509)
(0.0168412 0.00694128 0.00054286)
(0.0138885 0.00550491 0.00206272)
(0.00656318 9.32132e-05 0.00319163)
(0.00490583 0.00117406 0.00326903)
(0.00383755 0.000661922 0.00418749)
(0.00324664 0.0022021 0.00429318)
(0.00172629 0.00200234 0.00419257)
(0.00072478 0.00312519 0.00413021)
(0.000235911 0.00352903 0.00419017)
(0.000754149 0.00435391 0.00450683)
(0.00124115 0.004361 0.00483577)
(0.00170744 0.00434933 0.00507263)
(0.00188487 0.00387728 0.00511285)
(0.00207526 0.00341443 0.00509436)
(0.00218781 0.00279876 0.00503776)
(0.0022998 0.00225574 0.00498746)
(0.00237309 0.00172091 0.00493989)
(0.00241132 0.00127635 0.00491438)
(0.00239575 0.000897802 0.00491003)
(0.00233942 0.000605845 0.00493674)
(0.0022523 0.000394369 0.00498354)
(0.00213937 0.000262821 0.00503594)
(0.00199835 0.000191319 0.00509259)
(0.00184192 0.000164695 0.00515209)
(0.00168373 0.000165523 0.00521314)
(0.00152642 0.000188191 0.00528177)
(0.00137229 0.00022394 0.00535671)
(0.00120332 0.000258182 0.00543337)
(0.00102884 0.000285337 0.00550525)
(0.000872285 0.000309058 0.00557094)
(0.000743775 0.000347483 0.00562316)
(0.000668458 0.00041815 0.00565733)
(0.000661247 0.000531524 0.00567599)
(0.000700601 0.000680628 0.00568928)
(0.000737596 0.000866607 0.00569955)
(0.000680517 0.00115932 0.00569138)
(0.000463725 0.00172299 0.00563273)
(0.000150141 0.00265003 0.00542183)
(0.000265466 0.00377927 0.0049818)
(0.00152953 0.00416191 0.00436443)
(0.00358075 0.00394075 0.00424073)
(0.00657299 0.00373762 0.00425243)
(0.0106129 0.00281307 0.00342929)
(0.0141268 0.00191988 0.00143753)
(0.0128722 0.00554119 -0.00107252)
(0.00774847 0.0118211 -0.0026546)
(0.00548094 0.0166482 -0.00236292)
(0.00703437 0.0172346 0.00400026)
(0.0340035 0.0206922 0.0108147)
(0.0587787 -0.0331701 0.0174811)
(0.0684046 -0.0485585 0.00480442)
(0.0692114 -0.0876983 -0.00410881)
(0.0594137 -0.0872938 -0.0140677)
(0.0594226 -0.126172 -0.0133118)
(0.021727 -0.0871254 -0.0275067)
(0.046955 -0.157527 0.027801)
(-0.0147456 0.0397451 -0.0533453)
(0.055556 0.0576283 -0.0236169)
(0.172769 0.332267 0.10719)
(0.1065 0.414919 0.0303486)
(0.0905694 -0.100795 0.0173326)
(0.0740259 -0.0782065 0.0258536)
(0.0482627 -0.0755469 0.00030485)
(0.0391965 -0.057306 0.00387802)
(0.0286993 -0.0380127 0.002883)
(0.00622097 -0.0187563 -0.0100384)
(-0.0187125 0.00871021 -0.0157824)
(-0.0220628 0.0396984 -0.0106325)
(-0.0196184 0.0551112 0.0036902)
(-0.0154985 0.0754139 0.0192246)
(-0.00868217 0.0777111 0.0308896)
(0.00171424 0.0786595 0.0289732)
(0.015377 0.0813049 0.00784403)
(0.0169985 0.0829744 -0.00667479)
(0.0285016 0.0842474 -0.00818797)
(0.0521507 0.0820807 -0.0080201)
(0.0697742 0.077463 -0.00243967)
(0.0766092 0.0638429 0.000412773)
(0.079497 0.0486893 0.00869849)
(0.0760589 0.0234162 0.00992631)
(0.0693954 0.00451559 0.00548127)
(0.0514427 -0.0103856 0.00593062)
(0.0378551 -0.0227874 0.0144039)
(0.0321722 -0.0336687 0.0199466)
(0.0344969 -0.0472205 0.0202183)
(0.0337049 -0.0591152 0.0140869)
(0.028803 -0.0641879 0.00354384)
(0.0199773 -0.0636945 -0.00246171)
(0.00626517 -0.0617659 0.00400752)
(-0.0170458 -0.0601275 0.00870414)
(-0.0261041 -0.045208 -0.00217398)
(-0.0444359 -0.0294197 -0.0181466)
(-0.043474 0.0185978 0.0110158)
(-0.0362122 0.00318427 0.0615542)
(0.0242471 0.0212785 0.00426409)
(0.0278482 0.0164994 0.00445675)
(0.019928 0.00982109 0.000448099)
(0.0179059 0.0101492 0.00082793)
(0.00902853 0.00306902 0.00138259)
(0.00527633 0.00320311 0.00234941)
(0.00239592 0.00111283 0.00409481)
(0.00184615 0.00284054 0.0044115)
(0.00039573 0.00182042 0.00444353)
(-0.000535384 0.00245962 0.00432506)
(-0.00103849 0.00230797 0.00439126)
(-0.000580248 0.00297478 0.00472871)
(-0.000253702 0.00327005 0.005026)
(0.000254978 0.00365053 0.0052491)
(0.000510732 0.003522 0.00528782)
(0.000733015 0.00334359 0.00530371)
(0.000843483 0.00292828 0.00528299)
(0.000933554 0.00254006 0.00527519)
(0.00097429 0.00211666 0.00525651)
(0.000982247 0.00174455 0.0052428)
(0.000939368 0.00139453 0.00523342)
(0.000858483 0.00108178 0.00523871)
(0.000743096 0.000811611 0.00525632)
(0.000601453 0.000596655 0.00528198)
(0.000438928 0.000436893 0.00531537)
(0.000266939 0.000332725 0.00535311)
(9.89657e-05 0.000277817 0.00539241)
(-5.5659e-05 0.000258863 0.00543425)
(-0.000202113 0.000266447 0.00548371)
(-0.000355071 0.000293528 0.00554161)
(-0.000506903 0.000347681 0.00559953)
(-0.000639743 0.000435262 0.00564065)
(-0.000755714 0.000561603 0.0056526)
(-0.00084212 0.000746176 0.00563179)
(-0.000875433 0.00101126 0.00558766)
(-0.000856182 0.00136601 0.005544)
(-0.000835549 0.00182872 0.00551161)
(-0.000949425 0.00246714 0.00546977)
(-0.00123871 0.00342964 0.0053767)
(-0.00131339 0.0045929 0.00509947)
(-0.000414028 0.00526956 0.00464581)
(0.00142011 0.00469628 0.00430235)
(0.00264097 0.00373288 0.00432657)
(0.00405505 0.00396304 0.00431709)
(0.00650008 0.00642695 0.00325469)
(0.00859237 0.0128174 0.00188556)
(0.00801006 0.0217269 0.00248963)
(0.00732535 0.024483 0.00467881)
(0.00934223 0.0215971 0.0096694)
(0.0158144 0.00677149 0.014486)
(0.0445756 -0.00695519 0.0241632)
(0.0713457 -0.0553276 0.0198997)
(0.0695579 -0.0614424 0.0101973)
(0.0786978 -0.0882665 -0.00735737)
(0.0863194 -0.0781003 -0.0131869)
(0.10261 -0.128677 -0.00337956)
(0.035441 -0.082387 -0.0251169)
(0.0403882 -0.190807 0.0206937)
(-0.0218914 0.106036 -0.0427846)
(0.0697183 -0.0147172 0.0138454)
(0.175118 0.406429 0.0976537)
(0.0846148 0.560212 0.0202102)
(0.0447827 0.407597 0.0224879)
(0.0420004 0.460301 0.0178942)
(0.00599297 0.341598 0.00516827)
(0.00343142 0.0196558 -0.000408595)
(-0.00978854 0.0622242 -0.00687702)
(-0.0163502 0.0839985 0.0128559)
(-0.0317997 0.107612 0.0191154)
(-0.0372394 0.233795 0.0186543)
(-0.0345873 0.527485 0.0182756)
(-0.0266642 0.456251 0.0161578)
(-0.0181983 0.1301 0.0124307)
(-0.00388018 0.109707 0.00401435)
(0.0141695 0.134625 0.00174283)
(0.0278767 0.351259 0.00679543)
(0.0424372 0.544329 0.00290629)
(0.0577066 0.444101 0.00531469)
(0.0662173 0.11937 0.0146572)
(0.0699151 0.0868679 0.0231736)
(0.0718888 0.0662569 0.0298089)
(0.06689 0.0418451 0.0295771)
(0.0613621 0.022403 0.0244354)
(0.042162 -0.00280611 0.0190318)
(0.0281209 -0.01783 0.0204579)
(0.0253163 -0.0297879 0.0210861)
(0.0283216 -0.05131 0.0174458)
(0.0243014 -0.0712236 0.0136303)
(0.0165239 -0.083343 0.00752374)
(-0.00308507 -0.0861393 -0.0118452)
(-0.0186127 -0.0750064 -0.0138645)
(-0.0397721 -0.0625609 0.00542694)
(-0.0558662 -0.0499753 0.00461743)
(-0.0757443 -0.035311 -0.00948455)
(-0.0799516 0.0121718 0.017604)
(-0.0687077 0.00366836 0.069182)
(0.0242136 0.021546 0.00404199)
(0.0290642 0.020178 0.00479598)
(0.0219713 0.0123743 0.000790601)
(0.0223878 0.013528 0.000481182)
(0.0136079 0.00610012 -0.00109467)
(0.00801996 0.00565762 -0.000209987)
(0.00188123 0.000915826 0.00278055)
(0.000433034 0.00305919 0.00354218)
(-0.000963981 0.00154281 0.00379107)
(-0.00186071 0.00199104 0.00396553)
(-0.0026888 0.00135835 0.00411378)
(-0.00266731 0.00190473 0.00452264)
(-0.00262589 0.00233078 0.00477646)
(-0.00208825 0.00299455 0.00502246)
(-0.0017737 0.00309345 0.00505284)
(-0.00153181 0.00306822 0.00510591)
(-0.00143436 0.00276873 0.00513826)
(-0.00141864 0.00249125 0.00518022)
(-0.00145805 0.0021694 0.00518845)
(-0.00151626 0.0018783 0.00517562)
(-0.00159391 0.00157995 0.00514266)
(-0.00169013 0.00128352 0.00510715)
(-0.00180345 0.00100012 0.00507789)
(-0.00193597 0.000749715 0.00505693)
(-0.00209078 0.000541193 0.00504286)
(-0.00225873 0.000381714 0.00503381)
(-0.00241198 0.000272626 0.00503326)
(-0.00254648 0.000204832 0.00504028)
(-0.00267596 0.000183546 0.00504939)
(-0.00282004 0.000214974 0.00506249)
(-0.0029764 0.000303954 0.00507146)
(-0.00312647 0.000456881 0.00506358)
(-0.00325949 0.000682659 0.00502859)
(-0.00335393 0.000994523 0.00495779)
(-0.00339747 0.00141607 0.00486603)
(-0.00341992 0.00199297 0.00477998)
(-0.00352231 0.00277339 0.00470555)
(-0.00385187 0.00377491 0.00461684)
(-0.00427372 0.00499014 0.00447091)
(-0.00401553 0.00614419 0.00416335)
(-0.00232604 0.00647988 0.00373002)
(-0.000407478 0.00571702 0.0035553)
(2.56186e-05 0.0045648 0.00350437)
(-0.000255045 0.00440313 0.00319574)
(0.000493117 0.00793639 0.00278187)
(0.00127823 0.0152533 0.00308093)
(0.00218967 0.0241557 0.00550101)
(0.00758817 0.0249977 0.00953126)
(0.0175611 0.0129281 0.0147533)
(0.0291794 -0.00415633 0.0181342)
(0.0520653 -0.0309459 0.0305148)
(0.0652464 -0.0605492 0.0260452)
(0.0553235 -0.0518675 0.0124745)
(0.0769534 -0.0594016 -0.0137295)
(0.121471 -0.0039169 -0.000582094)
(0.159675 -0.0628658 0.0420766)
(0.0519367 0.0355828 0.0222782)
(0.0698557 -0.208357 0.115953)
(-0.00811094 0.12372 -0.0161393)
(0.0382394 -0.016404 0.00709287)
(0.17555 0.437733 0.112939)
(0.0864245 0.593051 0.033189)
(0.0561919 0.460542 0.0574254)
(0.0186289 0.530685 0.0291707)
(-0.0173335 0.514724 0.0183303)
(-0.0390356 0.561821 -0.00224269)
(-0.0305169 0.61158 0.0125437)
(-0.0235367 0.628267 0.0214916)
(-0.0257325 0.636354 0.0143311)
(-0.0246877 0.648481 0.0115268)
(-0.0225301 0.658706 0.00526528)
(-0.0114471 0.661197 -0.000345066)
(0.00627918 0.661977 0.0046561)
(0.0238496 0.662728 0.0114133)
(0.0317382 0.661486 0.0151562)
(0.0392324 0.65879 0.015204)
(0.0512933 0.658333 0.0165036)
(0.0624482 0.655937 0.0212301)
(0.0649479 0.640326 0.0245027)
(0.0651881 0.622853 0.0300538)
(0.0627282 0.59332 0.0280837)
(0.0566912 0.546197 0.0281347)
(0.0524869 0.452372 0.025408)
(0.0438988 0.331291 0.0214648)
(0.0285939 0.293645 0.0106313)
(0.0319413 -0.0148781 0.00200411)
(0.0371093 -0.056818 -0.000305775)
(0.0334387 -0.0773792 -0.000604796)
(0.0231286 -0.0955499 0.00217551)
(0.00645798 -0.113027 -0.00750506)
(-0.0221087 -0.108547 -0.0271522)
(-0.0550591 -0.0815923 -0.0133918)
(-0.0716205 -0.0556981 -0.00433827)
(-0.101275 -0.0448547 -0.018173)
(-0.109498 -0.000222859 0.00149586)
(-0.112276 -0.00641414 0.0621985)
(0.0231296 0.0210617 0.00368787)
(0.0301006 0.0244596 0.00599656)
(0.0229739 0.0147964 0.00226315)
(0.0246175 0.0158846 0.00217058)
(0.0188046 0.00712867 -0.00121711)
(0.0134553 0.0072126 -0.00179662)
(0.00275582 6.03966e-05 0.000486478)
(-0.000696071 0.00283798 0.00185239)
(-0.00165292 0.000928112 0.00257988)
(-0.00267117 0.00164424 0.00316166)
(-0.00352567 0.000633247 0.0033392)
(-0.00371328 0.0011933 0.00384424)
(-0.00379162 0.00164925 0.00408176)
(-0.00308621 0.00253008 0.00447935)
(-0.00252375 0.00266092 0.00468116)
(-0.00216059 0.0026388 0.00490563)
(-0.00204795 0.00234964 0.00506892)
(-0.00211142 0.00212973 0.00518678)
(-0.00222777 0.00191434 0.00522255)
(-0.00234751 0.00175092 0.00519775)
(-0.00246666 0.00158099 0.00511686)
(-0.00259575 0.00139542 0.00500339)
(-0.00274799 0.00119735 0.00488056)
(-0.00290847 0.00100421 0.00476036)
(-0.00306342 0.000830955 0.00465071)
(-0.00321014 0.000697871 0.00454955)
(-0.00333835 0.000599657 0.0044526)
(-0.00345192 0.000526601 0.0043676)
(-0.00357885 0.000487257 0.00429891)
(-0.00372205 0.000501252 0.00425146)
(-0.00387693 0.00059403 0.00421726)
(-0.00403167 0.000780424 0.00417506)
(-0.0041899 0.00107207 0.0041003)
(-0.00435682 0.00148236 0.00397612)
(-0.00455259 0.00202853 0.00380147)
(-0.00481167 0.00274016 0.00359727)
(-0.00514001 0.00361263 0.00340864)
(-0.00550185 0.0045504 0.00329927)
(-0.00566428 0.00540308 0.00334667)
(-0.00483855 0.00594966 0.00362524)
(-0.00263899 0.00608805 0.00427324)
(-0.0010473 0.00585503 0.00487935)
(-0.000891484 0.0052041 0.00506239)
(-0.00261999 0.00508685 0.00436265)
(-0.00448205 0.00820102 0.00395049)
(-0.00506339 0.0148608 0.00433629)
(-0.00351264 0.0204587 0.00607896)
(0.00662367 0.0174129 0.0104219)
(0.0212292 0.00527478 0.0150268)
(0.0386975 -0.00981284 0.0234735)
(0.0515632 -0.0368243 0.0426948)
(0.0370028 -0.032949 0.0416669)
(0.0285117 -0.0180187 0.0150694)
(0.074402 0.0137486 -0.00412766)
(0.122599 0.0735852 0.0415357)
(0.12008 0.0385817 0.0786213)
(0.111781 0.162132 0.114893)
(0.14393 -0.245748 0.207148)
(-0.010247 0.221433 0.0697452)
(0.0404667 -0.0390095 0.0342667)
(0.147453 0.481887 0.123319)
(0.076113 0.611476 0.0393091)
(0.0541904 0.490044 0.0738481)
(-0.00675394 0.556329 0.0411122)
(-0.0408223 0.541102 0.0328797)
(-0.0582526 0.582325 0.00027409)
(-0.0446522 0.616984 0.00550798)
(-0.0349998 0.643721 0.00965043)
(-0.0292347 0.66544 -0.00499726)
(-0.0235825 0.681986 0.00248594)
(-0.0169173 0.688924 0.00849002)
(-0.00210299 0.685655 0.0102035)
(0.0149836 0.678572 0.0159154)
(0.0251265 0.674742 0.0182172)
(0.0342086 0.66839 0.0228098)
(0.0384989 0.663333 0.0242579)
(0.0458213 0.66306 0.025766)
(0.0566407 0.659127 0.0251089)
(0.0625642 0.649985 0.0276094)
(0.0634148 0.635081 0.0303645)
(0.0621138 0.617553 0.0293274)
(0.0538326 0.598994 0.0274705)
(0.0540836 0.578532 0.0215343)
(0.0516464 0.557079 0.00851183)
(0.050605 0.523638 -0.00298647)
(0.0540714 0.506824 -0.00555206)
(0.046065 0.462272 0.00322991)
(0.0355874 0.318364 0.00343062)
(0.0381398 -0.0538527 0.00441342)
(0.015889 -0.108009 0.00760874)
(-0.0173505 -0.1203 -0.0173271)
(-0.06754 -0.105509 -0.0129712)
(-0.088653 -0.0676369 -0.0022789)
(-0.116698 -0.0390084 -0.0176283)
(-0.137751 0.0143734 0.013873)
(-0.14212 0.00197255 0.0644342)
(0.0208116 0.019581 0.00409654)
(0.0307924 0.0287797 0.00836075)
(0.0231039 0.0174125 0.00484497)
(0.0247697 0.0184119 0.00502667)
(0.0212459 0.00703399 0.00127633)
(0.0179725 0.00711477 0.000229573)
(0.00478675 -0.00152772 -0.00107031)
(-0.00116307 0.0024725 0.000405219)
(-0.00296771 0.000274882 0.00150138)
(-0.00387579 0.00150845 0.00240438)
(-0.00501292 0.000408699 0.00245929)
(-0.00586759 0.00100598 0.00313432)
(-0.00633987 0.00117723 0.00348129)
(-0.00552491 0.00192218 0.00426022)
(-0.00477453 0.00185814 0.00484705)
(-0.0044303 0.00184839 0.00533377)
(-0.00446771 0.00161392 0.00563361)
(-0.0047478 0.00152262 0.00580039)
(-0.00505555 0.00147468 0.00583021)
(-0.00529823 0.00149719 0.00577147)
(-0.00546364 0.00152353 0.00562799)
(-0.00558268 0.00153609 0.00543133)
(-0.00568207 0.00152403 0.00521579)
(-0.00577775 0.0014846 0.00500042)
(-0.00589316 0.00143901 0.00481676)
(-0.00600934 0.00141193 0.00466724)
(-0.0060586 0.00138868 0.00453873)
(-0.00607965 0.00135088 0.0044507)
(-0.00611895 0.00131129 0.00440798)
(-0.00621498 0.00130087 0.00440358)
(-0.00637542 0.00137199 0.00441991)
(-0.00657089 0.00155492 0.00441311)
(-0.00680274 0.00184936 0.00434202)
(-0.00704444 0.00224642 0.00420756)
(-0.0073016 0.00272818 0.0040038)
(-0.0075774 0.00326725 0.00376173)
(-0.00787092 0.00380765 0.00351989)
(-0.00814907 0.00422218 0.00330424)
(-0.00816851 0.00444439 0.00340229)
(-0.00746923 0.00444232 0.00401218)
(-0.00600781 0.00468292 0.00526949)
(-0.00499681 0.0050732 0.00664204)
(-0.00535013 0.00570176 0.00694175)
(-0.00754291 0.00647287 0.00562091)
(-0.0101972 0.00906116 0.00444959)
(-0.0108399 0.0133866 0.00463327)
(-0.00662653 0.0182892 0.00665141)
(0.00693861 0.0143499 0.0104181)
(0.0246426 0.00871787 0.0166861)
(0.0306806 -0.00596976 0.0366064)
(0.016212 -0.0129017 0.064402)
(0.00935901 -0.0122097 0.0512574)
(0.0227063 -0.00757347 0.022603)
(0.0597726 0.0393002 0.0158964)
(0.0830517 0.0970482 0.0536122)
(0.140906 0.0698505 0.0751581)
(0.201866 0.147151 0.070424)
(0.200564 -0.0864368 0.0740324)
(-0.0533215 0.335862 0.081128)
(0.0109747 -0.0689269 0.0379665)
(0.0976266 0.515536 0.126783)
(0.0426368 0.623096 0.0408729)
(0.0322508 0.545916 0.0730044)
(-0.0119328 0.592781 0.0574189)
(-0.0353171 0.572312 0.0415889)
(-0.064897 0.606269 0.00672756)
(-0.0604613 0.638571 0.00369933)
(-0.0467291 0.672766 -0.00185511)
(-0.0343832 0.69697 -0.00726327)
(-0.0239928 0.705126 0.00649287)
(-0.0113019 0.702671 0.00684189)
(0.00581168 0.697378 0.00960175)
(0.0175307 0.692558 0.0142105)
(0.0305872 0.683452 0.0172526)
(0.0351536 0.675982 0.0197597)
(0.0376589 0.670518 0.0219481)
(0.0450337 0.667143 0.0196799)
(0.0551226 0.666488 0.0192795)
(0.0666399 0.657869 0.0235564)
(0.0696504 0.643941 0.0263928)
(0.0694743 0.626765 0.0251263)
(0.0628598 0.610138 0.0214006)
(0.0660585 0.59227 0.00930085)
(0.0684255 0.576592 -0.0106262)
(0.067064 0.560925 -0.016181)
(0.059617 0.549885 -0.0100649)
(0.0480057 0.527205 0.000286122)
(0.029378 0.495375 -0.00713336)
(0.00596632 0.459378 -0.0136351)
(-0.0197717 0.412442 -0.0133261)
(-0.0695742 0.241678 -0.0265336)
(-0.0814304 -0.0753832 -0.018429)
(-0.111582 -0.0709696 -0.00518607)
(-0.138231 -0.042577 -0.0238729)
(-0.158037 0.0059667 0.00516241)
(-0.17157 -0.00733635 0.0578328)
(0.0201095 0.0142602 0.00399132)
(0.0301208 0.0314087 0.0100339)
(0.0223819 0.0196421 0.00550902)
(0.0247417 0.0226081 0.00571945)
(0.0224261 0.00869965 0.00237994)
(0.0196579 0.00722231 0.00239132)
(0.00610387 -0.00313668 -0.00234421)
(-0.0029902 0.00172673 -0.000853842)
(-0.00335646 -0.00125718 0.00191317)
(-0.00458392 0.00154424 0.00285845)
(-0.0052046 0.00031861 0.00285142)
(-0.00570746 0.00110196 0.00371835)
(-0.00590536 0.000576014 0.00437955)
(-0.00491351 0.000821335 0.00549129)
(-0.00422923 0.000569505 0.00630657)
(-0.00394242 0.000729204 0.00708972)
(-0.00407233 0.000776916 0.00756905)
(-0.00441196 0.00100541 0.00783106)
(-0.00473023 0.00121715 0.00790723)
(-0.00495892 0.00148576 0.0078641)
(-0.00511823 0.00173966 0.00771053)
(-0.00523911 0.00193777 0.0074792)
(-0.00533872 0.00207043 0.00721709)
(-0.00542271 0.002149 0.00695725)
(-0.00551341 0.00217626 0.00671482)
(-0.00558843 0.00216238 0.00650624)
(-0.00561798 0.00213192 0.00634739)
(-0.00561214 0.00208834 0.00624723)
(-0.00564078 0.00203013 0.00618808)
(-0.00575451 0.00199994 0.0061644)
(-0.00596924 0.00205404 0.00615052)
(-0.00623536 0.00222049 0.00611395)
(-0.0065132 0.00247898 0.00603573)
(-0.00681271 0.00279378 0.00588331)
(-0.00714142 0.00311048 0.00564308)
(-0.00747877 0.00337204 0.00532647)
(-0.00776222 0.00352144 0.00495764)
(-0.00786543 0.00343554 0.00473111)
(-0.00762922 0.00310536 0.00480229)
(-0.00681618 0.0026099 0.00554267)
(-0.0057038 0.00228482 0.00707172)
(-0.00528485 0.00336309 0.00875729)
(-0.00592153 0.00525144 0.00896495)
(-0.00814811 0.0065569 0.00732477)
(-0.0115788 0.008162 0.00572557)
(-0.0137434 0.0105294 0.00628957)
(-0.0102122 0.0142936 0.00799689)
(0.00490211 0.0120245 0.0101653)
(0.019171 0.00837569 0.011039)
(0.0163052 0.00797897 0.0283291)
(-0.0211696 -0.0304048 0.0704354)
(-0.0141749 -0.0276795 0.0725821)
(-0.00987986 -0.0258833 0.0389174)
(-0.000601497 0.0314099 0.0108679)
(0.0515392 0.0930018 0.0454084)
(0.112498 0.0971566 0.0351585)
(0.141893 0.164573 -0.0221712)
(0.130687 0.135051 0.026688)
(0.0796854 0.419533 0.0558232)
(-0.00189359 -0.105431 0.0435104)
(0.0309754 0.563739 0.107304)
(0.00932774 0.633639 0.0320181)
(0.00873637 0.567741 0.057952)
(-0.0244478 0.628539 0.0378995)
(-0.0659382 0.625486 0.0190966)
(-0.0813073 0.667168 -0.00634844)
(-0.0740833 0.684373 -0.0119322)
(-0.049242 0.702751 -0.0159502)
(-0.0320004 0.707175 -0.00885228)
(-0.0111952 0.704319 -0.00221729)
(0.00463028 0.691069 -0.00450585)
(0.0223483 0.685817 0.000140158)
(0.0343911 0.684206 0.00180683)
(0.0420363 0.681375 0.00367749)
(0.0435689 0.676651 0.00646723)
(0.0436311 0.67143 0.00683895)
(0.0484132 0.666808 0.00954067)
(0.0628584 0.667856 0.0176999)
(0.0806811 0.659335 0.0317068)
(0.0870044 0.643384 0.0345139)
(0.0842437 0.628542 0.0327109)
(0.0750114 0.612923 0.0240452)
(0.0749316 0.602383 0.00974685)
(0.0744371 0.59449 -0.0159977)
(0.0710382 0.583663 -0.0265987)
(0.0676638 0.5692 -0.020875)
(0.0608364 0.549495 -0.02061)
(0.0485758 0.522935 -0.0331327)
(0.0362775 0.506362 -0.0198485)
(-0.00354099 0.484877 -0.0195829)
(-0.0681373 0.470837 -0.0112547)
(-0.11466 0.426249 -0.00201999)
(-0.150909 0.435443 -0.000803986)
(-0.16418 0.462664 0.00105766)
(-0.175477 0.474912 0.0291064)
(-0.192878 0.412929 0.0529776)
(0.013413 0.0069619 0.000473696)
(0.0267777 0.031867 0.00964516)
(0.0202632 0.0217925 0.0033947)
(0.0241679 0.0279105 0.00344958)
(0.0235165 0.0128642 0.00158916)
(0.0213846 0.00960085 0.00236579)
(0.0080921 -0.00342093 -0.00520965)
(-0.00228075 0.00114581 -0.00531937)
(-0.00623834 -0.00141385 -0.00174197)
(-0.007658 0.00179144 1.91683e-05)
(-0.00766666 0.000265276 0.000110096)
(-0.00818147 0.000931833 0.000870485)
(-0.00835297 -0.000121037 0.00156253)
(-0.00792651 -4.3346e-05 0.00253225)
(-0.00779223 -0.000239397 0.0032633)
(-0.00794057 0.000133931 0.00399849)
(-0.0083051 0.000395791 0.00460905)
(-0.00874779 0.000811007 0.00505058)
(-0.00915605 0.00114584 0.00530803)
(-0.00947479 0.00150391 0.00542162)
(-0.00959134 0.00182342 0.00540168)
(-0.00956819 0.00208556 0.00529364)
(-0.00950597 0.00228967 0.00514133)
(-0.00941648 0.00242462 0.00498406)
(-0.00932785 0.00249385 0.00483154)
(-0.00923158 0.00250812 0.00469262)
(-0.009111 0.00249245 0.00458272)
(-0.00898862 0.00247155 0.00451128)
(-0.00891967 0.00244741 0.00447533)
(-0.00898949 0.00244324 0.00446597)
(-0.00921941 0.00251087 0.00446767)
(-0.00948274 0.0026467 0.00444153)
(-0.00975461 0.00284546 0.00437166)
(-0.0099858 0.00307228 0.00423432)
(-0.0101594 0.00325861 0.00401832)
(-0.0102624 0.00334905 0.00373796)
(-0.010222 0.00330573 0.00342406)
(-0.0100553 0.00297897 0.00322216)
(-0.00967644 0.00228245 0.00322621)
(-0.00907823 0.0015969 0.00369757)
(-0.00890572 0.00151894 0.00485855)
(-0.00968851 0.00316533 0.00631954)
(-0.0103623 0.00568242 0.00627854)
(-0.0117174 0.00737564 0.00467705)
(-0.0149907 0.00815154 0.00309845)
(-0.0184001 0.00847297 0.00332088)
(-0.0160167 0.00856964 0.00488141)
(-0.00170552 0.00673523 0.00530142)
(0.0156192 0.0026099 0.00365408)
(0.0229417 0.0073815 0.00628238)
(-0.0201007 -0.0181074 0.0503293)
(-0.0539613 -0.0644053 0.0540749)
(-0.0613334 -0.0662441 0.033085)
(-0.0620933 -0.0568299 -0.00780041)
(-0.00618151 0.0495805 0.0383746)
(0.0910387 0.0862301 -0.00150432)
(0.113775 0.192639 -0.0499443)
(0.15514 0.140371 -0.0156608)
(0.188736 0.418957 0.0396729)
(-0.0222949 -0.107805 0.0393525)
(-0.0304417 0.57324 0.0595412)
(-0.0102338 0.668919 -0.011046)
(-0.0246128 0.608784 0.00631056)
(-0.0342039 0.673886 -0.00331721)
(-0.0625595 0.676414 -0.0115139)
(-0.0680975 0.682919 -0.0181948)
(-0.0610769 0.673308 -0.0203882)
(-0.0314933 0.669682 -0.0160105)
(-0.00676503 0.642471 -0.0089476)
(0.0124624 0.623975 -0.00539431)
(0.0205803 0.607963 -0.0117605)
(0.0362595 0.603955 -0.0127927)
(0.0450738 0.606556 -0.0152524)
(0.0546731 0.61809 -0.00909767)
(0.0551985 0.630153 -0.0079676)
(0.0525839 0.641709 -0.00102061)
(0.0528707 0.647397 0.00986913)
(0.0630525 0.644771 0.0168015)
(0.0824085 0.632773 0.0355444)
(0.0926853 0.615056 0.0449011)
(0.093046 0.602201 0.0504347)
(0.0853838 0.588664 0.0414184)
(0.0841231 0.585786 0.0255965)
(0.0872582 0.588456 0.00225037)