/*--------------------------------*- C++ -*----------------------------------*\
| =========                 |                                                 |
| \\      /  F ield         | OpenFOAM: The Open Source CFD Toolbox           |
|  \\    /   O peration     | Version:  2.3.0                                 |
|   \\  /    A nd           | Web:      www.OpenFOAM.org                      |
|    \\/     M anipulation  |                                                 |
\*---------------------------------------------------------------------------*/
FoamFile
{
    version     2.0;
    format      ascii;
    class       volVectorField;
    location    "57";
    object      U.airMean;
}
// * * * * * * * * * * * * * * * * * * * * * * * * * * * * * * * * * * * * * //

dimensions      [0 1 -1 0 0 0 0];

internalField   nonuniform List<vector> 
6144
(
(0.00994575 0.0202389 -0.000569004)
(0.0102407 -0.000732635 -0.00155177)
(0.00456494 -0.00225326 -0.00254614)
(0.00409883 -0.00277184 -0.00243241)
(0.00256278 -0.00247982 -0.00192158)
(0.00299474 -0.00065868 -0.00166103)
(0.00272156 -0.000770078 -0.00131312)
(0.00267428 0.000262256 -0.00103993)
(0.00230365 0.000371334 -0.000895214)
(0.00203421 0.00159681 -0.000551017)
(0.00181235 0.00250807 -0.000220601)
(0.00186139 0.00329753 0.000232686)
(0.0019864 0.00332054 0.000453504)
(0.00212124 0.00293284 0.000700394)
(0.00218689 0.00224341 0.000648156)
(0.00226398 0.00161625 0.000549178)
(0.00231277 0.000993147 0.000344313)
(0.00236547 0.000536982 0.000161207)
(0.00240831 0.000165347 -3.20526e-05)
(0.00244082 -5.60421e-05 -0.000185753)
(0.00246043 -0.000189261 -0.000310147)
(0.00247289 -0.000221146 -0.000395485)
(0.0024727 -0.000205988 -0.000433842)
(0.00246109 -0.000154859 -0.000430006)
(0.00243848 -9.13592e-05 -0.000391443)
(0.00240787 -2.42645e-05 -0.000323874)
(0.00237354 3.47669e-05 -0.000237987)
(0.00233867 7.53935e-05 -0.000145522)
(0.00230214 9.74215e-05 -5.0904e-05)
(0.00226363 9.42397e-05 3.96508e-05)
(0.00222438 9.44584e-05 0.000128904)
(0.00218044 5.15712e-05 0.000223829)
(0.00213626 4.46218e-05 0.000331153)
(0.00208504 -7.53354e-05 0.000458211)
(0.00203994 -0.000120087 0.000610238)
(0.0019915 -0.000424805 0.000777918)
(0.00196124 -0.000582201 0.000939537)
(0.00193246 -0.00115685 0.0010479)
(0.00193074 -0.00135207 0.001056)
(0.0019332 -0.00201531 0.000897343)
(0.00194863 -0.0018405 0.000534301)
(0.00196849 -0.00199891 -4.40856e-05)
(0.00206311 -0.000738991 -0.000631536)
(0.00244495 -0.000231549 -0.00107239)
(0.00314346 0.00104591 -0.00149216)
(0.00391076 0.000498905 -0.00205499)
(0.00434609 0.00143338 -0.00277037)
(0.00370216 0.00189592 -0.00386753)
(0.00291305 0.00791858 -0.00558203)
(0.00616199 0.0124148 -0.00753171)
(0.017999 0.013435 -0.00999697)
(0.026957 -0.00752477 -0.0102519)
(0.0311979 -0.0194302 -0.0107731)
(0.0292263 -0.0558776 -0.00979545)
(0.0242925 -0.0515629 -0.0103987)
(0.0201673 -0.0904887 -0.00688359)
(0.00159891 -0.0430572 -0.0123036)
(0.00498599 -0.0936363 0.0237815)
(-0.0372175 0.0120185 -0.045574)
(0.0333281 0.114678 0.0395947)
(0.111911 0.31655 0.0327482)
(0.0464074 0.387924 -0.00863168)
(0.0450361 -0.0873143 -0.00082969)
(0.050993 -0.181047 0.00450501)
(0.042682 -0.186851 0.00512346)
(0.0354958 -0.181141 0.00517337)
(0.0293125 -0.180048 0.00449573)
(0.0246603 -0.175111 0.00414143)
(0.0215014 -0.171974 0.00418863)
(0.0187939 -0.165477 0.00444881)
(0.0163282 -0.160389 0.00474109)
(0.0137738 -0.15226 0.00515402)
(0.0115298 -0.144087 0.00562631)
(0.00879309 -0.134422 0.00608081)
(0.00555551 -0.123957 0.00617999)
(0.00312751 -0.110912 0.00483195)
(0.00229732 -0.0977018 0.00260719)
(0.00160763 -0.0851378 0.00140511)
(0.000906659 -0.0726796 0.0014037)
(0.0020287 -0.0609407 0.00214861)
(0.00351502 -0.0514841 0.00285977)
(0.00402121 -0.043991 0.00362915)
(0.0039447 -0.0390975 0.00455263)
(0.00280078 -0.0353748 0.00468106)
(0.00228265 -0.0309942 0.00412309)
(0.00265729 -0.0258233 0.0033929)
(0.00308534 -0.0205386 0.00311061)
(0.00288348 -0.0148031 0.00239674)
(0.0020496 -0.0091084 0.00144654)
(0.000712556 -0.00137958 0.000832528)
(0.000779305 0.00610334 0.0014712)
(0.00125053 0.0127247 0.00252312)
(0.00117841 0.0176604 0.00371829)
(0.000766708 0.0213418 0.00630139)
(0.00149622 0.0228846 0.0103303)
(0.00443593 0.0154944 0.0166287)
(0.0193287 0.021238 0.00302554)
(0.0205741 0.00731203 0.00244143)
(0.0105547 0.00380605 -0.000688734)
(0.0099651 0.00256297 9.24225e-05)
(0.00566807 -0.000407425 0.00100738)
(0.00573204 0.000633739 0.00152117)
(0.00454969 -0.000250269 0.00209312)
(0.00433615 0.00117643 0.00216231)
(0.00358973 0.00138496 0.00215834)
(0.00315906 0.00294647 0.0022186)
(0.00296341 0.00375797 0.00238796)
(0.00330015 0.0044355 0.0028806)
(0.00366796 0.00426677 0.00314754)
(0.00406308 0.00386901 0.00334843)
(0.00420117 0.00309952 0.00334308)
(0.0043437 0.00241766 0.00331436)
(0.00438239 0.00169422 0.00322796)
(0.00443794 0.0011569 0.00316038)
(0.00446813 0.000690284 0.00308088)
(0.00448691 0.000384331 0.00302983)
(0.00448529 0.000171688 0.00299001)
(0.00447817 7.64204e-05 0.00296002)
(0.00445137 3.74909e-05 0.00296202)
(0.00440578 4.79532e-05 0.00299619)
(0.00434207 8.10896e-05 0.00305505)
(0.00426669 0.000128756 0.00313224)
(0.00418939 0.000177346 0.00321255)
(0.004118 0.00021437 0.00328426)
(0.00404706 0.000235132 0.00335651)
(0.00397377 0.00023105 0.00342359)
(0.00390127 0.000225464 0.00348887)
(0.00382222 0.000166032 0.00355663)
(0.00375193 0.000137752 0.00362945)
(0.00367734 -2.27793e-05 0.00370786)
(0.0036371 -9.15418e-05 0.00379583)
(0.00360054 -0.000437063 0.00388497)
(0.00361821 -0.000568313 0.00397113)
(0.00361849 -0.00114567 0.00403054)
(0.00365277 -0.00123859 0.00404538)
(0.00362156 -0.00188717 0.00395453)
(0.00356841 -0.00156769 0.00369617)
(0.00350132 -0.00185875 0.00320955)
(0.00364691 -0.00076328 0.0025711)
(0.00425043 -0.000872766 0.00202581)
(0.00542222 0.000475953 0.0014629)
(0.00648229 0.000494272 0.000667486)
(0.0063067 0.00318902 -0.000506583)
(0.00527317 0.00517581 -0.00196559)
(0.00659348 0.0102811 -0.00342805)
(0.0159595 0.00798095 -0.00431723)
(0.0381241 0.00205067 -0.0057038)
(0.0520346 -0.0147282 -0.00572021)
(0.0587206 -0.0196143 -0.00352291)
(0.0539208 -0.0479402 -0.000696134)
(0.0413609 -0.0374946 0.00457484)
(0.0391632 -0.093903 0.0118846)
(-0.00142019 -0.042427 0.0118142)
(-0.0021138 -0.156091 0.0442326)
(-0.0953763 0.0390723 -0.0733499)
(0.0223803 0.0451367 0.0227911)
(0.123581 0.350328 0.0766397)
(0.0244782 0.428072 0.00394697)
(0.0207008 -0.0691854 0.00590503)
(0.026011 -0.0397126 0.0157742)
(0.0132376 -0.0560451 0.0168792)
(0.00567623 -0.0467253 0.0149915)
(0.00234777 -0.0475816 0.0123485)
(0.00182882 -0.0426068 0.0117197)
(0.00259531 -0.0409889 0.0112223)
(0.0019804 -0.0359783 0.00990045)
(-0.000133455 -0.0353695 0.0105985)
(-0.00216103 -0.0347251 0.0118819)
(-0.0030836 -0.0364688 0.0127333)
(-0.00503631 -0.037881 0.0122188)
(-0.00775233 -0.039038 0.0109553)
(-0.00874553 -0.0373881 0.00962236)
(-0.00827804 -0.0356002 0.00828595)
(-0.00854414 -0.0333775 0.0075967)
(-0.00834312 -0.0303837 0.00732108)
(-0.00670183 -0.0277862 0.00762001)
(-0.00484509 -0.0246817 0.00769353)
(-0.00343071 -0.021661 0.00807563)
(-0.00246981 -0.021049 0.0088696)
(-0.00244237 -0.0219933 0.00874604)
(-0.00269379 -0.0222765 0.00744503)
(-0.00225459 -0.0215767 0.0062812)
(-0.00195628 -0.0189682 0.00484476)
(-0.0023472 -0.0148606 0.00343431)
(-0.00309105 -0.0102848 0.00227373)
(-0.00403193 -0.00479297 0.0015335)
(-0.00399738 0.000664771 0.00241555)
(-0.00313545 0.00564819 0.00353416)
(-0.00381242 0.0114041 0.00523908)
(-0.00469471 0.0142127 0.00892887)
(-0.00436357 0.0167271 0.0142275)
(-0.00148005 0.0104153 0.0214166)
(0.0226155 0.0211733 0.00413848)
(0.0246494 0.012116 0.00403586)
(0.0147653 0.00742876 0.00120589)
(0.0135578 0.00680422 0.00216776)
(0.00698221 0.0021785 0.0029267)
(0.00605869 0.00275151 0.00313447)
(0.00358181 0.000935467 0.00373397)
(0.00316835 0.00226019 0.00364202)
(0.00221025 0.00225501 0.0035699)
(0.00205621 0.00347845 0.00363584)
(0.0019416 0.00370104 0.00370577)
(0.0025839 0.00422611 0.00400308)
(0.00303179 0.00399526 0.00419605)
(0.00353342 0.00385244 0.00435878)
(0.0037177 0.0033089 0.00435095)
(0.00390673 0.00284797 0.0043399)
(0.00392952 0.00225974 0.00429192)
(0.00397548 0.00181074 0.00426873)
(0.0039602 0.00137264 0.00424774)
(0.00393926 0.0010565 0.00425155)
(0.00388274 0.000789072 0.00426735)
(0.00381186 0.000612316 0.00430217)
(0.00373037 0.000488584 0.00434429)
(0.00364215 0.000420696 0.00439249)
(0.00354544 0.000384781 0.00444366)
(0.0034457 0.000372173 0.00449652)
(0.00334535 0.000368941 0.00455099)
(0.00324539 0.000368238 0.0046088)
(0.00314687 0.000366236 0.00466901)
(0.0030436 0.000347651 0.00473098)
(0.00294091 0.000328647 0.00479419)
(0.00283488 0.000259576 0.00485831)
(0.00274432 0.000220629 0.0049237)
(0.00265106 6.91671e-05 0.00498767)
(0.00260554 3.20659e-05 0.00505054)
(0.0025638 -0.000217582 0.00510404)
(0.00259563 -0.000190036 0.00514716)
(0.00260857 -0.000513369 0.00516284)
(0.00268216 -0.0002951 0.00514266)
(0.00267356 -0.00059116 0.00504914)
(0.00271509 1.99545e-06 0.00484517)
(0.00272545 -0.000298493 0.00456333)
(0.00296274 0.000494961 0.00430003)
(0.00359063 -9.65122e-05 0.00407311)
(0.00460262 0.00130892 0.00353816)
(0.00553628 0.00154727 0.00293297)
(0.00562965 0.00430423 0.00203064)
(0.00626764 0.00417373 0.000789878)
(0.0111364 0.00714855 -0.000425811)
(0.0266796 0.000429454 -0.000237404)
(0.0525524 -0.00243509 -0.00154344)
(0.0699287 -0.0103938 -0.000644724)
(0.0742762 -0.00531947 0.00266581)
(0.0683182 -0.0236315 0.00610843)
(0.0585583 -0.0103962 0.0149942)
(0.0528792 -0.0751053 0.0230387)
(-0.00132246 -0.0116924 0.0330535)
(0.011972 -0.179413 0.0624795)
(-0.114996 0.0827475 -0.0607753)
(0.0521287 0.0207009 -0.00397096)
(0.171216 0.37026 0.0911096)
(0.0764558 0.44299 0.0255415)
(0.0709824 -0.0100149 0.0206954)
(0.0468504 0.0497111 0.0152609)
(0.0313627 0.0142862 0.0116169)
(0.0216736 0.0268438 0.0123335)
(0.0186905 0.020092 0.012598)
(0.014425 0.0227602 0.0104061)
(0.0127437 0.0231703 0.00912758)
(0.0123597 0.0232854 0.00997443)
(0.0107739 0.0171064 0.012757)
(0.00722138 0.010845 0.0152202)
(0.00424909 0.0047762 0.0160365)
(0.00101464 0.00233488 0.0151574)
(-0.00219976 -0.000528251 0.0131227)
(-0.00373994 -0.000986132 0.0107118)
(-0.004083 -0.000307828 0.00943592)
(-0.00479332 0.000795649 0.00866541)
(-0.00584243 0.000694929 0.00917183)
(-0.00528732 -0.000178989 0.00956792)
(-0.00372515 -0.000496082 0.0096746)
(-0.00190253 -0.00119774 0.0103995)
(-0.00080061 -0.00326709 0.0115113)
(-0.00204099 -0.00530132 0.0107763)
(-0.00303327 -0.00704955 0.00983834)
(-0.00345946 -0.00809812 0.00850836)
(-0.00347782 -0.0075918 0.00641639)
(-0.00369032 -0.00648573 0.00405143)
(-0.00402654 -0.004701 0.0014792)
(-0.00475813 -0.000441019 0.000104198)
(-0.0054093 0.00339685 0.00279291)
(-0.00617823 0.00672202 0.00556493)
(-0.0070541 0.010205 0.00817579)
(-0.00837829 0.0109874 0.0114892)
(-0.0103251 0.0132296 0.0164653)
(-0.010353 0.00773397 0.0229979)
(0.0237713 0.0212296 0.00436774)
(0.0272557 0.015433 0.00453047)
(0.0168585 0.00920891 0.000961775)
(0.0165686 0.0100085 0.00138043)
(0.00884514 0.0041043 0.00200078)
(0.00726588 0.00479423 0.002504)
(0.00313064 0.00148142 0.0035278)
(0.00222083 0.00252642 0.00353858)
(0.000890889 0.00179443 0.00363621)
(0.00096063 0.00297894 0.00375482)
(0.000866372 0.00284824 0.00390479)
(0.00149103 0.00346392 0.00430247)
(0.00185813 0.00344532 0.00451047)
(0.00238201 0.00360516 0.00467476)
(0.00259927 0.00326357 0.00465245)
(0.00280971 0.00298844 0.00465663)
(0.00282222 0.00249816 0.00462984)
(0.00285311 0.00212829 0.00463629)
(0.00280906 0.00172635 0.00463273)
(0.00276579 0.00142358 0.00464372)
(0.00268123 0.00114229 0.00465676)
(0.00258625 0.000931805 0.0046819)
(0.00247513 0.000758453 0.00471295)
(0.00235931 0.000638179 0.00475036)
(0.00224165 0.00055595 0.00479166)
(0.00212717 0.000507388 0.00483667)
(0.0020193 0.000479753 0.00488306)
(0.00191952 0.000462819 0.00493056)
(0.00182584 0.000449218 0.00498022)
(0.00173397 0.000425649 0.00503231)
(0.00164879 0.000405799 0.00508652)
(0.00156589 0.000350611 0.0051402)
(0.00150258 0.000333721 0.00518994)
(0.00143926 0.000231042 0.0052302)
(0.00142521 0.000257727 0.0052566)
(0.00140362 0.000112699 0.00526182)
(0.00145427 0.000269861 0.00524414)
(0.00145897 0.000127278 0.0051929)
(0.00152625 0.00055331 0.00510562)
(0.00151592 0.000475489 0.00496217)
(0.00166234 0.00121133 0.00475148)
(0.0018485 0.000903356 0.00452294)
(0.00223831 0.00150077 0.00432384)
(0.00263062 0.000712075 0.00415441)
(0.00330827 0.00165672 0.00391719)
(0.00411331 0.00118954 0.0037939)
(0.00494268 0.00309717 0.00346657)
(0.00680167 0.000889346 0.00254008)
(0.014434 0.00178192 0.00174087)
(0.0308278 -0.0059006 0.0019438)
(0.0560348 -0.00271467 0.00136187)
(0.0725178 0.00110504 0.00390262)
(0.0788273 0.0158082 0.00814811)
(0.0749321 0.00901133 0.0122149)
(0.0650797 0.028923 0.0240409)
(0.0580353 -0.0290207 0.039311)
(0.0149163 0.0559378 0.0728571)
(0.030678 -0.189692 0.0994483)
(-0.149519 0.205823 -0.0429767)
(0.0564723 -0.0438928 0.021558)
(0.153866 0.453204 0.0907077)
(0.0521105 0.570769 0.0170569)
(0.037671 0.37992 0.0156571)
(0.0133566 0.420819 0.00283895)
(0.0101694 0.373194 0.00759844)
(0.00261196 0.352915 0.00783739)
(0.00252303 0.327599 0.00924582)
(0.00172828 0.306561 0.0092451)
(0.00255914 0.283238 0.00883397)
(0.00244253 0.261717 0.00897776)
(0.00163523 0.232764 0.0101561)
(-0.000495602 0.206916 0.01029)
(-0.00318241 0.178895 0.0104278)
(-0.00560928 0.151082 0.00992735)
(-0.0070492 0.125795 0.00868222)
(-0.00791002 0.110931 0.00808562)
(-0.00832066 0.0990543 0.00807411)
(-0.00836468 0.088207 0.00791703)
(-0.00831447 0.073506 0.00914268)
(-0.00771608 0.0600205 0.0103046)
(-0.00691165 0.0521871 0.0120461)
(-0.00701055 0.0469318 0.0118411)
(-0.00716875 0.0413257 0.0123137)
(-0.00756326 0.0338078 0.0116306)
(-0.00862329 0.0286964 0.0108131)
(-0.00911565 0.0247455 0.00962564)
(-0.00847813 0.0214302 0.00623267)
(-0.00743239 0.0197237 0.00374924)
(-0.00808286 0.0171699 0.00142878)
(-0.008617 0.0165695 -5.60634e-05)
(-0.00911815 0.0159902 0.00383962)
(-0.0101331 0.0145698 0.00694137)
(-0.0114903 0.0143543 0.00939534)
(-0.0143651 0.0121013 0.0131748)
(-0.0190081 0.0127431 0.0173436)
(-0.0212219 0.0068924 0.0233832)
(0.0237853 0.0213749 0.00448632)
(0.0290941 0.0185091 0.00515476)
(0.0185272 0.0105492 0.000878081)
(0.0197059 0.0123638 0.000949444)
(0.011169 0.00497696 0.000248159)
(0.00923433 0.00638597 0.000850369)
(0.00358563 0.00171218 0.00220761)
(0.00198789 0.00299539 0.00272076)
(-0.000274073 0.00100955 0.00309331)
(-0.000423527 0.00210566 0.00345273)
(-0.000788299 0.00169616 0.00369133)
(-0.000426991 0.00256812 0.00423727)
(-0.000238833 0.0027869 0.00445018)
(0.000327599 0.00324798 0.00464262)
(0.00058632 0.00307653 0.00459339)
(0.00079862 0.00291492 0.00461709)
(0.00075688 0.00248672 0.00460515)
(0.000696567 0.00218701 0.00463614)
(0.000565923 0.0018377 0.00463747)
(0.000458508 0.00157465 0.00463906)
(0.000329293 0.00130412 0.0046266)
(0.000208349 0.00108221 0.00462042)
(8.52818e-05 0.000883869 0.00461816)
(-3.62148e-05 0.000733274 0.00462383)
(-0.000158304 0.000618344 0.00463491)
(-0.000271356 0.000538939 0.00465191)
(-0.000371402 0.0004843 0.00467348)
(-0.000456887 0.000445429 0.00469815)
(-0.000532764 0.000417345 0.00472338)
(-0.000606715 0.000391856 0.00474959)
(-0.000676871 0.000379417 0.00477612)
(-0.000746079 0.000348711 0.00479963)
(-0.000798355 0.000366856 0.00481678)
(-0.000851649 0.00033 0.00481939)
(-0.000854246 0.00043833 0.00480255)
(-0.000866753 0.000418554 0.00475582)
(-0.000809382 0.000716328 0.00467721)
(-0.000810278 0.000760636 0.00455682)
(-0.000729724 0.00136849 0.00440915)
(-0.000685359 0.0014547 0.00424674)
(-0.000355823 0.00223379 0.00411393)
(2.75234e-05 0.00184067 0.00400184)
(0.000613472 0.00226565 0.00383782)
(0.00115581 0.00116421 0.00362106)
(0.00195444 0.00162696 0.0035935)
(0.00266476 0.000455442 0.00375191)
(0.00395439 0.00134697 0.00421262)
(0.00725327 -0.00221362 0.0039738)
(0.0167965 -0.00347327 0.00405475)
(0.0317294 -0.00761201 0.00559145)
(0.0503088 0.00304586 0.00689898)
(0.0651994 0.0172599 0.011633)
(0.0709404 0.0435448 0.0150333)
(0.0681 0.0500339 0.0186175)
(0.0596818 0.0787548 0.0336764)
(0.0496926 0.0380079 0.0497109)
(0.0175397 0.126757 0.0837355)
(0.0259536 -0.109525 0.102341)
(-0.121297 0.312847 -0.0147411)
(0.0450971 -0.0751007 0.0277842)
(0.143498 0.502975 0.0970272)
(0.0463666 0.61993 0.0165191)
(0.0376688 0.547411 0.0163357)
(0.0135149 0.600663 0.00187773)
(0.0114907 0.59112 0.00715858)
(0.00400935 0.602513 0.00659781)
(0.00449701 0.597927 0.00786891)
(0.00223604 0.596384 0.00801199)
(0.00232073 0.590144 0.00859872)
(0.00191869 0.585517 0.00963457)
(0.0016075 0.579052 0.010737)
(0.000377919 0.570699 0.0108867)
(-6.14638e-05 0.560703 0.0105629)
(-0.000502841 0.548309 0.0100372)
(-0.000491432 0.531773 0.00969452)
(-0.000876183 0.507796 0.00904834)
(-0.00146204 0.487613 0.00893204)
(-0.00295436 0.467845 0.00934642)
(-0.00406897 0.44906 0.0112014)
(-0.00497507 0.430916 0.0124765)
(-0.00592558 0.410804 0.0130103)
(-0.00662387 0.379445 0.013867)
(-0.00655843 0.33836 0.0130646)
(-0.00625549 0.292661 0.0105217)
(-0.00476113 0.248723 0.00720453)
(-0.00306173 0.215832 0.00333154)
(-0.00225132 0.17805 0.00155564)
(-0.00196148 0.148031 0.00101252)
(-0.00350032 0.124546 0.000601618)
(-0.00464014 0.10655 0.00328031)
(-0.00759439 0.09091 0.00678865)
(-0.0098807 0.0696801 0.00906914)
(-0.0123136 0.0541282 0.0125292)
(-0.0172283 0.0356389 0.0157262)
(-0.0251554 0.0236965 0.0179421)
(-0.032097 0.0110375 0.0222346)
(0.0224359 0.0209811 0.00498774)
(0.0304066 0.0219407 0.00645038)
(0.019251 0.0116793 0.00181405)
(0.021922 0.0144354 0.00230639)
(0.0137865 0.00458262 -0.000216111)
(0.0115548 0.00697402 -0.000281962)
(0.00465346 0.00102451 0.000774655)
(0.00223539 0.00332998 0.00154672)
(-0.000487184 0.000371878 0.00221411)
(-0.0014048 0.0013912 0.00281482)
(-0.00204709 0.00043902 0.00310037)
(-0.0018818 0.00153634 0.00380537)
(-0.00163523 0.00199475 0.00410602)
(-0.000879917 0.00280533 0.00448631)
(-0.000408054 0.00269628 0.00458904)
(-0.000117113 0.00260225 0.00474491)
(-0.00017654 0.00219479 0.00478345)
(-0.000306631 0.00197511 0.00482865)
(-0.000496541 0.00172261 0.00480787)
(-0.000642491 0.00157077 0.00477119)
(-0.000796075 0.00139442 0.00470063)
(-0.000933705 0.00124576 0.00462408)
(-0.00107624 0.0010937 0.0045463)
(-0.00120742 0.00096634 0.00447766)
(-0.00132255 0.000861175 0.00441811)
(-0.0014171 0.000786023 0.00436764)
(-0.00148992 0.000731071 0.00432619)
(-0.00154591 0.000689733 0.00429407)
(-0.00159524 0.000657992 0.00427106)
(-0.00164003 0.000633311 0.00425943)
(-0.00167906 0.000630939 0.00425721)
(-0.00171455 0.000631154 0.00425656)
(-0.00173636 0.000694496 0.00425095)
(-0.00176234 0.000734506 0.00422636)
(-0.00175367 0.000928443 0.00417472)
(-0.00177123 0.00102364 0.00408431)
(-0.00174148 0.0014157 0.00395578)
(-0.00178111 0.00155102 0.00378799)
(-0.00172215 0.00215569 0.003619)
(-0.00162885 0.00217428 0.00350909)
(-0.0011831 0.00280419 0.00353088)
(-0.000653273 0.00235814 0.00363119)
(7.86595e-05 0.00271306 0.00362305)
(0.000697573 0.00150799 0.00356632)
(0.00149758 0.00181477 0.0038544)
(0.00208935 0.000269213 0.00431043)
(0.00390375 -0.000188583 0.00474302)
(0.00880902 -0.00421398 0.00460011)
(0.0163578 -0.00562846 0.00583784)
(0.0255857 -0.00640791 0.0101665)
(0.0361655 0.00832475 0.0141979)
(0.044373 0.0309808 0.0196158)
(0.0523351 0.0644697 0.0251988)
(0.0533519 0.0793621 0.0322765)
(0.0496642 0.108662 0.0487898)
(0.0435243 0.0718067 0.0584734)
(0.0277176 0.149121 0.08043)
(0.0453099 -0.0854862 0.0822356)
(-0.0341251 0.354217 0.0171557)
(0.034906 -0.0800599 0.0322482)
(0.0936514 0.541497 0.0937501)
(0.0190914 0.640448 0.011083)
(0.0150364 0.600094 0.0141484)
(-0.0033092 0.653273 0.00358864)
(-0.00175429 0.652244 0.0108391)
(-0.00469286 0.665796 0.0109941)
(-0.00144357 0.666111 0.0130121)
(-0.000318465 0.670587 0.0134656)
(0.00181341 0.669969 0.0145141)
(0.00298708 0.669624 0.0147579)
(0.0041612 0.66421 0.0143759)
(0.00432725 0.660779 0.0137987)
(0.00483647 0.658175 0.0130333)
(0.00436029 0.656385 0.0125752)
(0.003233 0.65344 0.0125821)
(0.00159335 0.651592 0.012594)
(3.7011e-05 0.64858 0.0130594)
(-0.00190668 0.643831 0.0139165)
(-0.00394984 0.636836 0.0144267)
(-0.00532306 0.626091 0.0145061)
(-0.00633174 0.613966 0.0139136)
(-0.00662782 0.599167 0.0121399)
(-0.00551775 0.583313 0.00915252)
(-0.00414489 0.564317 0.00543301)
(-0.00325667 0.54477 0.00168979)
(-0.00261203 0.520952 -0.000832372)
(-0.00286239 0.481786 -0.00092139)
(-0.00335756 0.427055 0.00119857)
(-0.00544094 0.376825 0.00461082)
(-0.00779292 0.329654 0.00768014)
(-0.0107415 0.279985 0.00866822)
(-0.0138749 0.226269 0.0105748)
(-0.0173623 0.192161 0.0141645)
(-0.0230058 0.150359 0.0172052)
(-0.0308586 0.102995 0.0192764)
(-0.0376958 0.071973 0.0200472)
(0.0190183 0.019434 0.00518145)
(0.0304859 0.0256991 0.00855752)
(0.0182243 0.0122726 0.0038018)
(0.0219246 0.0166348 0.00504252)
(0.0146478 0.00366593 0.0014985)
(0.0125784 0.00665772 0.000653813)
(0.00484213 -0.000411267 0.00075951)
(0.00213601 0.00322752 0.00108056)
(-0.000969921 -1.31997e-05 0.0016457)
(-0.00236393 0.00129278 0.00242387)
(-0.00371388 -0.000193741 0.00261614)
(-0.00439489 0.0009395 0.00338267)
(-0.00453989 0.00130349 0.00380444)
(-0.00354894 0.00220165 0.0045729)
(-0.00293968 0.00206304 0.00498284)
(-0.00266053 0.00208993 0.00532993)
(-0.00286142 0.00176739 0.00541717)
(-0.00319308 0.00167947 0.00543354)
(-0.00354475 0.0015512 0.00534704)
(-0.00377933 0.00154092 0.0052413)
(-0.00396246 0.00150032 0.00509699)
(-0.0040869 0.00148419 0.00495082)
(-0.00418859 0.00144307 0.00480699)
(-0.00427363 0.00140239 0.00468252)
(-0.00435787 0.00136265 0.00458339)
(-0.00441457 0.00133579 0.00450208)
(-0.00444019 0.00131055 0.00443656)
(-0.00443912 0.00128466 0.00439497)
(-0.00442753 0.00125827 0.00437623)
(-0.00442187 0.00123718 0.00437747)
(-0.00442691 0.00124514 0.0043933)
(-0.00443803 0.00127445 0.0044115)
(-0.00444983 0.00138084 0.00442045)
(-0.00447018 0.00148634 0.00440317)
(-0.00445328 0.00173325 0.00435673)
(-0.00444781 0.00187414 0.00427366)
(-0.00437477 0.00224713 0.00416454)
(-0.00433807 0.00229949 0.00403042)
(-0.00417906 0.00269065 0.00390639)
(-0.00400872 0.00243344 0.00383123)
(-0.00357283 0.00277554 0.00386367)
(-0.00309866 0.00222111 0.00391547)
(-0.00225128 0.00268581 0.00391628)
(-0.00147957 0.00172357 0.00406695)
(-0.000658473 0.00196242 0.00449476)
(0.000377215 0.000188892 0.00491433)
(0.00343772 -0.000893196 0.00505679)
(0.00837127 -0.00380425 0.00502937)
(0.01391 -0.00361828 0.00682387)
(0.0162199 0.00043632 0.0131896)
(0.0139844 0.019664 0.0208397)
(0.0174135 0.0440441 0.0262004)
(0.02436 0.0807054 0.0330612)
(0.0294805 0.102514 0.0415169)
(0.0357116 0.128278 0.0545158)
(0.0405204 0.093898 0.0607524)
(0.0458762 0.165988 0.0754359)
(0.0435389 -0.0746018 0.0647946)
(0.00764723 0.350422 0.0455382)
(0.0127098 -0.0657032 0.0329067)
(0.0364928 0.57353 0.0816021)
(-0.00314742 0.659597 0.0107331)
(-0.00292527 0.639008 0.0128173)
(-0.011657 0.686805 0.00586007)
(-0.00641927 0.684484 0.014186)
(-0.00528845 0.696712 0.0134542)
(-0.00182434 0.696468 0.0150943)
(-7.0662e-05 0.701336 0.0153811)
(0.00236045 0.7021 0.0162613)
(0.00445312 0.702303 0.0164171)
(0.00618603 0.701089 0.0161135)
(0.00673587 0.699035 0.0158894)
(0.00704369 0.698709 0.0159324)
(0.00633254 0.697335 0.0159242)
(0.00548025 0.695158 0.0162589)
(0.00397125 0.689949 0.0162916)
(0.00274665 0.682862 0.0163262)
(0.00147496 0.674872 0.0161874)
(0.000778105 0.668067 0.0159256)
(0.000270898 0.660016 0.0157758)
(0.000562479 0.651034 0.0142336)
(0.00144178 0.642825 0.0114788)
(0.00319042 0.637852 0.00761142)
(0.00438644 0.633281 0.0029481)
(0.00516707 0.625198 -0.000993806)
(0.00460342 0.613568 -0.00348752)
(0.00272745 0.602586 -0.00268714)
(0.000769941 0.587727 -5.66817e-05)
(-0.00151706 0.560291 0.00236457)
(-0.00536067 0.535437 0.00436189)
(-0.0106381 0.510749 0.00543786)
(-0.0173879 0.481819 0.00748843)
(-0.0240842 0.441684 0.00998673)
(-0.0316452 0.384487 0.01196)
(-0.039307 0.315691 0.0141935)
(-0.0477011 0.280072 0.0135514)
(0.0160584 0.0141715 0.00432456)
(0.0293505 0.0287611 0.0095217)
(0.0158125 0.0124573 0.00452563)
(0.0208297 0.0197198 0.00596167)
(0.0144577 0.00397798 0.00261465)
(0.0120863 0.00675492 0.00167244)
(0.00350149 -0.00170107 0.00138171)
(0.000509245 0.00291249 0.00118577)
(-0.0016638 -0.000686741 0.00212226)
(-0.0031994 0.00154538 0.00281025)
(-0.00442935 -0.000276625 0.00307778)
(-0.00516502 0.000725157 0.00393329)
(-0.00513021 0.00020747 0.00461928)
(-0.00397076 0.000821538 0.00565136)
(-0.00332806 0.000597785 0.00638007)
(-0.00307446 0.000993524 0.00699132)
(-0.00326896 0.00104886 0.00727725)
(-0.00355764 0.00135156 0.00738216)
(-0.00386142 0.00147704 0.00732469)
(-0.00405092 0.00168355 0.00721177)
(-0.00420375 0.00180114 0.00704201)
(-0.00429991 0.00190557 0.00686469)
(-0.00437245 0.00194979 0.00669167)
(-0.00442169 0.0019733 0.00654013)
(-0.00445917 0.00196804 0.00640987)
(-0.00447081 0.00195058 0.00630608)
(-0.00445255 0.00192788 0.00623009)
(-0.00440961 0.00190187 0.00618013)
(-0.00436112 0.00187302 0.00615229)
(-0.00432627 0.00185352 0.00614346)
(-0.00431322 0.00187225 0.00614443)
(-0.00431663 0.00192752 0.00614085)
(-0.00433158 0.0020658 0.00612275)
(-0.00435126 0.00220964 0.00608032)
(-0.00433092 0.00246236 0.00601239)
(-0.00431769 0.00258394 0.00591622)
(-0.00421735 0.00285598 0.00581061)
(-0.00412299 0.00277126 0.00569907)
(-0.00387022 0.0029531 0.00561608)
(-0.00363184 0.00253064 0.00557635)
(-0.00324081 0.00269318 0.00561361)
(-0.00291855 0.00210152 0.00566252)
(-0.00223534 0.00258807 0.00568365)
(-0.00143646 0.0016826 0.00587863)
(-0.000638563 0.00200389 0.00622832)
(0.000596369 -0.000147852 0.0061615)
(0.00320831 8.19438e-05 0.00529037)
(0.00629384 0.000243069 0.00543463)
(0.00776078 0.00403876 0.00797679)
(0.00189366 0.012801 0.0174682)
(-0.00739825 0.0310478 0.0273847)
(-0.0122478 0.0516556 0.031662)
(-0.00774338 0.0846558 0.0343042)
(0.00665306 0.11099 0.0393675)
(0.0240624 0.141928 0.0511542)
(0.0497714 0.12558 0.0588238)
(0.0746256 0.185438 0.0758984)
(0.0826256 -0.0181737 0.0706303)
(0.0892288 0.384831 0.0350223)
(-0.0238784 -0.0745546 0.0270108)
(-0.0507272 0.606976 0.0452772)
(-0.0352433 0.690483 -0.00675485)
(-0.031506 0.671367 0.00257605)
(-0.0232081 0.712128 0.000113414)
(-0.0158546 0.706297 0.00740491)
(-0.00832827 0.715169 0.00647455)
(-0.00475978 0.713377 0.00765592)
(0.00048245 0.715025 0.00779461)
(0.00399304 0.716784 0.00929068)
(0.00736928 0.716446 0.0102558)
(0.0090785 0.716361 0.0108631)
(0.0100346 0.717239 0.0117177)
(0.0111787 0.716185 0.013087)
(0.012169 0.713652 0.0145829)
(0.0128958 0.709044 0.0161226)
(0.0134026 0.70415 0.0174469)
(0.0139181 0.696621 0.0185595)
(0.0141037 0.687362 0.0193836)
(0.014075 0.676549 0.0196726)
(0.0141021 0.664719 0.0192375)
(0.0143456 0.654486 0.0180589)
(0.0147073 0.641081 0.0158145)
(0.0146044 0.627904 0.0127684)
(0.0138725 0.62068 0.00899795)
(0.0125669 0.616071 0.00595197)
(0.0106822 0.609397 0.00381092)
(0.00900546 0.602118 0.00329185)
(0.0073224 0.59466 0.00338008)
(0.00557063 0.58716 0.00536012)
(0.0025025 0.576788 0.00825835)
(-0.00287378 0.558138 0.0113697)
(-0.00995227 0.534385 0.0140982)
(-0.0174444 0.510651 0.0148641)
(-0.0267856 0.488097 0.0116898)
(-0.0353295 0.463541 0.00298842)
(-0.0421427 0.446959 -0.013834)
(0.00689379 0.00849435 -0.00204672)
(0.0267139 0.0304231 0.00785883)
(0.0119535 0.0129391 0.00227455)
(0.0188755 0.0237537 0.0036884)
(0.0138511 0.00633466 0.00140617)
(0.0115168 0.00833799 0.000505925)
(0.00183488 -0.00211016 -0.00202497)
(-0.000878616 0.00314419 -0.00228737)
(-0.00403623 -0.000621378 -0.00118498)
(-0.00537173 0.00204724 -0.000407969)
(-0.0066432 -0.00018185 -3.39265e-05)
(-0.00735849 0.000579979 0.000818583)
(-0.00776829 -0.000650371 0.00153368)
(-0.00720383 -0.000135918 0.00240619)
(-0.00715474 -0.000268982 0.00312844)
(-0.00722841 0.00041117 0.00375205)
(-0.00763228 0.000675777 0.00422134)
(-0.00798206 0.00118423 0.00451697)
(-0.00833406 0.00143475 0.00463962)
(-0.00853537 0.00174319 0.00466155)
(-0.00862848 0.00193079 0.00460156)
(-0.0086263 0.00209629 0.0045152)
(-0.00859713 0.0021918 0.00442314)
(-0.00854855 0.00225278 0.00434139)
(-0.00849076 0.0022751 0.00426889)
(-0.00841718 0.00227567 0.00420862)
(-0.00832596 0.00226559 0.00416184)
(-0.00822206 0.00225531 0.00412881)
(-0.00812353 0.0022491 0.00410782)
(-0.00806681 0.00225465 0.00409614)
(-0.00805827 0.00229212 0.00408806)
(-0.00806896 0.00236101 0.00407298)
(-0.00808748 0.00249463 0.00404418)
(-0.00808771 0.00262103 0.00399547)
(-0.00801293 0.00283124 0.00392557)
(-0.00790272 0.00291548 0.00384166)
(-0.00768627 0.00313861 0.00375049)
(-0.00749033 0.00303895 0.00365925)
(-0.00722076 0.00318525 0.00357146)
(-0.0070456 0.00275599 0.00350366)
(-0.00675274 0.00287561 0.00345879)
(-0.00652313 0.00220634 0.00340986)
(-0.00579345 0.00247974 0.00330274)
(-0.00495575 0.00137782 0.00340285)
(-0.00401255 0.00152692 0.00351778)
(-0.00315561 -0.00070452 0.00279126)
(-0.00152752 0.00165584 0.00208049)
(0.000181803 0.00214367 0.00238324)
(-0.00215652 0.00851604 0.00519839)
(-0.0128081 0.0144866 0.0145917)
(-0.0282736 0.0257037 0.0267953)
(-0.034461 0.03441 0.0311385)
(-0.0340741 0.0571389 0.0292927)
(-0.0201941 0.0699519 0.0257212)
(-0.000506082 0.115689 0.0349913)
(0.036803 0.0838111 0.0418887)
(0.0756216 0.18374 0.0617432)
(0.0972654 -0.0366974 0.0691165)
(0.169399 0.407795 0.0330364)
(-0.0481415 -0.0994338 0.0185642)
(-0.121694 0.575839 0.0250757)
(-0.0517315 0.674906 -0.00690266)
(-0.0463266 0.631393 0.00282071)
(-0.0226697 0.670852 0.00346687)
(-0.0171975 0.648877 0.0080969)
(-0.00596808 0.65182 0.00470469)
(-0.00531737 0.642296 0.00334255)
(-0.00144061 0.64193 0.00158688)
(0.000774617 0.640771 0.0013596)
(0.00398664 0.641112 0.000812463)
(0.00528984 0.641101 -0.000230197)
(0.00641046 0.642911 -0.000183312)
(0.00727658 0.643016 0.000652367)
(0.00902228 0.644202 0.00236427)
(0.0111291 0.644888 0.00428435)
(0.0131903 0.644465 0.00628508)