/*--------------------------------*- C++ -*----------------------------------*\
| =========                 |                                                 |
| \\      /  F ield         | OpenFOAM: The Open Source CFD Toolbox           |
|  \\    /   O peration     | Version:  2.3.0                                 |
|   \\  /    A nd           | Web:      www.OpenFOAM.org                      |
|    \\/     M anipulation  |                                                 |
\*---------------------------------------------------------------------------*/
FoamFile
{
    version     2.0;
    format      ascii;
    class       volVectorField;
    location    "57";
    object      U.water;
}
// * * * * * * * * * * * * * * * * * * * * * * * * * * * * * * * * * * * * * //

dimensions      [0 1 -1 0 0 0 0];

internalField   nonuniform List<vector> 
6144
(
(0.010748 0.0196153 -0.000996574)
(0.0108118 -0.00230146 -0.00207545)
(0.00436265 -0.00335184 -0.00291727)
(0.00357159 -0.00320239 -0.00266216)
(0.00218369 -0.00192669 -0.00192461)
(0.00314246 0.000552137 -0.001618)
(0.00335313 -0.000249091 -0.00126141)
(0.0032529 0.00029407 -0.00114829)
(0.00257265 -0.000173219 -0.000902219)
(0.0018945 0.0010976 -0.000334639)
(0.00134213 0.00226586 0.00025643)
(0.00126162 0.00343207 0.000969834)
(0.00137194 0.00360991 0.00141135)
(0.00150123 0.00315666 0.00181555)
(0.00154689 0.0023231 0.0018681)
(0.00163063 0.00150918 0.0017952)
(0.00170515 0.000651419 0.00158428)
(0.00178665 -6.54542e-05 0.0013325)
(0.0018616 -0.000657193 0.00106443)
(0.00192572 -0.00106991 0.00081637)
(0.0019693 -0.00131384 0.000589119)
(0.00200542 -0.00138031 0.00039589)
(0.00202405 -0.00133108 0.000276169)
(0.00201838 -0.00121211 0.000243222)
(0.00198807 -0.00105607 0.000284003)
(0.00193886 -0.000885878 0.000388765)
(0.00188174 -0.000727291 0.000534685)
(0.00182848 -0.000610208 0.000687149)
(0.00176849 -0.000548891 0.000843304)
(0.00170213 -0.000519695 0.000985017)
(0.00163332 -0.000502757 0.00111666)
(0.00156636 -0.000496606 0.00124867)
(0.00150304 -0.00051315 0.0013877)
(0.00144879 -0.000575036 0.0015346)
(0.00140653 -0.000714034 0.00167266)
(0.00137707 -0.000934671 0.00175543)
(0.00135659 -0.00118692 0.00174866)
(0.00134253 -0.00140699 0.00161869)
(0.00133727 -0.00141039 0.00129739)
(0.00137792 -0.00103246 0.000622865)
(0.00149878 4.2571e-05 -0.000279962)
(0.00194708 0.00180347 -0.0010992)
(0.00269711 0.00324705 -0.0013744)
(0.00326264 0.00336235 -0.00123937)
(0.00316098 0.00205772 -0.00112621)
(0.00363471 0.000283095 -0.00155225)
(0.0036279 -0.00345061 -0.00254338)
(0.00360757 -0.00385506 -0.00404623)
(0.0059771 -0.000456424 -0.00646561)
(0.00437581 0.0113773 -0.00806439)
(0.0049937 0.0298879 -0.0145878)
(0.00715097 0.0349723 -0.0145363)
(0.00454162 0.0325708 -0.00494401)
(0.00598313 -0.0125094 0.000887964)
(0.00532316 -0.0140314 0.00479354)
(0.00247102 -0.0755194 0.00268061)
(0.000680834 -0.0139624 -0.00602858)
(-0.00992479 -0.119562 0.0417701)
(-0.0349076 0.0128868 -0.0798417)
(0.0179646 -0.0458805 0.0400375)
(0.094594 -0.283098 0.0686201)
(0.0723722 -0.103219 0.0236131)
(0.0561452 -0.172735 -0.00986611)
(0.0483099 -0.18586 -0.00962906)
(0.0443582 -0.181358 -0.00950419)
(0.0386723 -0.176362 -0.0108997)
(0.032606 -0.178411 -0.00942649)
(0.0275073 -0.174191 -0.00519994)
(0.0214513 -0.169195 -0.00387558)
(0.02048 -0.161155 -0.00155541)
(0.0233314 -0.156142 0.00141883)
(0.0227058 -0.140233 0.00180867)
(0.0134831 -0.13364 0.00218891)
(0.00601033 -0.123142 0.00365731)
(-0.00290461 -0.116255 0.0117176)
(-0.016665 -0.106456 0.00768973)
(-0.036664 -0.0706517 -0.00407256)
(-0.0146557 -0.0212805 -0.000340702)
(0.00697938 -0.0178305 -0.00192102)
(0.0179859 -0.0128814 -0.0101944)
(0.0251637 -0.0166289 -0.014571)
(0.026864 -0.021561 -0.0138179)
(0.0288777 -0.0281764 -0.0127534)
(0.0199629 -0.03679 -0.0106121)
(-0.0040386 -0.03363 -0.00858742)
(-0.00758598 -0.021383 -0.00664917)
(0.00559079 -0.0207589 -0.00601131)
(0.0215618 -0.0298657 -0.00542771)
(0.0267416 -0.0399059 -0.00329932)
(0.0210184 -0.0447564 6.19938e-05)
(0.018943 -0.0422968 -0.000297605)
(0.012199 -0.0330554 -0.00799614)
(0.000735722 -0.0123901 -0.0177738)
(-0.00902776 0.0206221 0.00349346)
(-0.0057077 0.0443047 0.0246872)
(0.00499344 0.027446 0.0424254)
(0.020525 0.0204436 0.00293473)
(0.0218274 0.00598846 0.00204133)
(0.0115241 0.00214492 -0.00199754)
(0.00969727 0.000650955 -0.000487753)
(0.00491729 -0.0026899 0.000741327)
(0.0052851 -0.000463458 0.00129486)
(0.00539314 -0.000853321 0.00211531)
(0.0050345 0.000611944 0.00239091)
(0.0037414 0.000492505 0.0024924)
(0.00246003 0.00230095 0.00258236)
(0.00182329 0.00352804 0.00281641)
(0.00200879 0.00455638 0.00353838)
(0.00236684 0.00453943 0.00406037)
(0.00278213 0.00412057 0.00435606)
(0.00291497 0.00325444 0.00441543)
(0.00306886 0.00241871 0.00439977)
(0.00316037 0.00150096 0.00432588)
(0.00324736 0.000722639 0.00424307)
(0.00331496 3.69903e-05 0.00415947)
(0.00335817 -0.000483245 0.00409445)
(0.00336427 -0.00084289 0.00404797)
(0.0033692 -0.00101798 0.00399012)
(0.00335854 -0.00107008 0.0039514)
(0.00330996 -0.00104009 0.00396803)
(0.00321927 -0.000956405 0.00403237)
(0.00310087 -0.000839298 0.00413385)
(0.00297818 -0.000711133 0.00424843)
(0.0028819 -0.000599421 0.0043256)
(0.00278245 -0.000531057 0.00441175)
(0.00266859 -0.000490499 0.00449567)
(0.00255126 -0.000468356 0.00457303)
(0.00244106 -0.00046388 0.00464422)
(0.00235038 -0.000481815 0.00470884)
(0.0022969 -0.000533561 0.00476643)
(0.00228706 -0.000636095 0.00481393)
(0.00229933 -0.000795486 0.00484284)
(0.0023102 -0.000980295 0.00484782)
(0.00227333 -0.00111512 0.00481184)
(0.00212854 -0.000984545 0.00470399)
(0.00203657 -0.00031696 0.00418401)
(0.00208901 0.00107866 0.00321618)
(0.00276008 0.00273089 0.00239609)
(0.00440032 0.00367159 0.00207223)
(0.00646278 0.00304487 0.00193547)
(0.00864915 0.000280104 0.00183086)
(0.0111931 -0.00536931 0.000660045)
(0.0119253 -0.0113666 -0.000768355)
(0.00884104 -0.0138545 -0.00368296)
(0.00330794 -0.00800433 -0.00732151)
(0.00271039 0.0119921 -0.0103617)
(0.0125928 0.02525 -0.00910512)
(0.0362511 0.0080488 -0.006282)
(0.0445299 -0.00876258 -0.0113769)
(0.0405265 -0.0550412 -0.00941827)
(0.0300822 -0.051564 -0.0128396)
(0.0219582 -0.0904843 -0.00719146)
(0.0060609 -0.0558908 -0.00434535)
(0.0143851 -0.144592 0.0669789)
(-0.00500855 0.0392381 -0.0656574)
(-0.0116723 -0.072971 -0.00582229)
(0.138609 -0.258639 0.112131)
(0.109884 -0.0510185 0.0468394)
(0.0716182 -0.134193 -0.00126818)
(0.0661343 -0.119366 0.00850308)
(0.0494279 -0.116061 0.00368239)
(0.0398892 -0.102665 0.00109885)
(0.0215665 -0.0935621 0.0108533)
(0.0136952 -0.0758695 0.00759299)
(0.0034036 -0.0490469 0.0134677)
(-0.0131025 -0.0168243 0.0136228)
(-0.0263203 0.0219763 3.36864e-05)
(-0.0098532 0.0547243 0.0118871)
(0.000760439 0.0593879 0.0161474)
(0.00295151 0.0597393 0.0171076)
(-0.00461965 0.0480777 0.0091221)
(-0.0111923 0.0374646 -0.000377605)
(-0.00602767 0.0418176 -0.015202)
(0.0211046 0.0463425 -0.0245955)
(0.0383605 0.041119 -0.0238349)
(0.0510483 0.0343436 -0.0241527)
(0.055873 0.0230205 -0.0205991)
(0.054395 0.0071041 -0.0175926)
(0.0509736 -0.00585307 -0.016494)
(0.040514 -0.0145265 -0.0113406)
(0.0349686 -0.0212983 -0.00625092)
(0.0339963 -0.0323967 -0.000923536)
(0.0374591 -0.0471471 0.000526093)
(0.03468 -0.0586716 -0.00554476)
(0.0283263 -0.059124 -0.0109016)
(0.0204325 -0.0574837 -0.00982628)
(0.00458266 -0.0541471 -0.00678072)
(-0.00500066 -0.0427992 -0.0162315)
(-0.0193524 -0.0222049 -0.030699)
(-0.0314184 0.00784533 -0.0177497)
(-0.023851 0.0357471 0.0304997)
(-0.00914837 0.0107677 0.0584852)
(0.0234736 0.0206343 0.00419996)
(0.0260221 0.0117869 0.00405519)
(0.0168396 0.0065203 0.000543007)
(0.0138865 0.00503521 0.00206276)
(0.00656076 -0.000422645 0.00319156)
(0.00490321 0.000612576 0.00326892)
(0.00383498 5.39315e-05 0.00418736)
(0.00324424 0.00155326 0.00429306)
(0.00172418 0.00132564 0.00419244)
(0.000723015 0.00243263 0.0041301)
(0.000234485 0.00282956 0.00419007)
(0.000753077 0.00365241 0.00450674)
(0.0012404 0.00365915 0.00483567)
(0.00170697 0.0036477 0.00507252)
(0.00188461 0.0031761 0.00511275)
(0.00207518 0.00271377 0.00509426)
(0.00218786 0.00209863 0.00503766)
(0.00229996 0.00155614 0.00498737)
(0.00237333 0.00102177 0.00493981)
(0.00241163 0.000577614 0.00491431)
(0.00239611 0.000199409 0.00490995)
(0.00233983 -9.22595e-05 0.00493667)
(0.00225274 -0.000303495 0.00498347)
(0.00213984 -0.000434838 0.00503588)
(0.00199883 -0.000506176 0.00509252)
(0.00184242 -0.000532672 0.00515203)
(0.00168423 -0.000531752 0.00521308)
(0.00152692 -0.000509038 0.00528172)
(0.00137277 -0.000473296 0.00535667)
(0.00120378 -0.000439112 0.00543333)
(0.00102925 -0.000412067 0.00550521)
(0.000872635 -0.000388506 0.00557091)
(0.000744032 -0.000350307 0.00562315)
(0.000668614 -0.000279949 0.00565733)
(0.000661254 -0.000166991 0.00567601)
(0.000700443 -1.8428e-05 0.00568933)
(0.000737212 0.000166862 0.00569963)
(0.000679882 0.000458726 0.00569148)
(0.000462766 0.00102136 0.00563286)
(0.000148824 0.00194717 0.00542197)
(0.00026373 0.00307363 0.00498193)
(0.00152742 0.00344346 0.00436447)
(0.00357835 0.00317447 0.00424055)
(0.00657073 0.00284065 0.00425182)
(0.0106116 0.00165523 0.00342822)
(0.0141269 0.000379802 0.00143637)
(0.0128728 0.00358221 -0.00107384)
(0.00774739 0.00949907 -0.00265487)
(0.00547993 0.0140285 -0.00235999)
(0.00703516 0.0143496 0.00400667)
(0.0339931 0.017464 0.0108254)
(0.0587656 -0.0368631 0.0175043)
(0.0683876 -0.0526006 0.00484154)
(0.0691829 -0.0919308 -0.00407486)
(0.0593633 -0.0917569 -0.0140344)
(0.059394 -0.130751 -0.0133087)
(0.0219506 -0.0928473 -0.027292)
(0.0466222 -0.164905 0.0275891)
(-0.0143226 0.0261265 -0.052992)
(0.0425316 -0.0499253 -0.0362907)
(0.19061 -0.274273 0.115399)
(0.149219 -0.0395881 0.0591069)
(0.0919842 -0.122825 0.0179086)
(0.0743527 -0.0849012 0.0259149)
(0.0485921 -0.0815173 0.000404686)
(0.0391949 -0.0630293 0.00387325)
(0.0286979 -0.0437301 0.00287249)
(0.00625248 -0.0245123 -0.010059)
(-0.0186759 0.0028548 -0.0158953)
(-0.0218217 0.0335031 -0.010637)
(-0.0192642 0.0482118 0.00368126)
(-0.0151215 0.0681149 0.0192124)
(-0.00865739 0.0705215 0.0307482)
(0.0017244 0.0719686 0.0289128)
(0.0153887 0.0746767 0.00783778)
(0.0173722 0.0757223 -0.00665195)
(0.0289474 0.0758375 -0.00813371)
(0.0525826 0.0729067 -0.00793549)
(0.0698721 0.0681917 -0.00234502)
(0.0766678 0.0544403 0.000529914)
(0.079506 0.0395057 0.00882877)
(0.0760333 0.0146952 0.0100285)
(0.0693675 -0.00382492 0.00554098)
(0.0514123 -0.0185573 0.00596598)
(0.0378209 -0.0309516 0.0144264)
(0.0321468 -0.0419458 0.0199503)
(0.0344907 -0.0556144 0.0202143)
(0.0337201 -0.0674933 0.0140878)
(0.0288375 -0.0723042 0.00356267)
(0.020017 -0.0713789 -0.00243526)
(0.00632299 -0.0690525 0.00403034)
(-0.0169776 -0.0670729 0.00873396)
(-0.0260322 -0.0518095 -0.00213875)
(-0.0443757 -0.0356035 -0.0181178)
(-0.0434406 0.0128041 0.0109895)
(-0.0361878 -0.00229376 0.0615352)
(0.0242465 0.0209679 0.00426399)
(0.0278463 0.0161519 0.00445662)
(0.0199256 0.00942131 0.000448127)
(0.017903 0.00969888 0.000827834)
(0.00902522 0.00256438 0.0013824)
(0.00527283 0.00264344 0.00234922)
(0.00239258 0.00050591 0.00409462)
(0.00184311 0.00219747 0.00441133)
(0.000393106 0.00115105 0.00444338)
(-0.000537554 0.00177277 0.00432493)
(-0.00104019 0.0016121 0.00439114)
(-0.000581486 0.00227515 0.00472859)
(-0.000254522 0.00256915 0.00502589)
(0.000254516 0.00294951 0.00524898)
(0.000510564 0.00282129 0.00528771)
(0.000733086 0.00264332 0.00530359)
(0.000843749 0.0022285 0.00528288)
(0.000933973 0.00184078 0.00527508)
(0.000974838 0.00141784 0.00525642)
(0.000982892 0.00104613 0.0052427)
(0.000940096 0.000696434 0.00523334)
(0.000859271 0.000383967 0.00523862)
(0.000743938 0.000114034 0.00525624)
(0.000602329 -0.000100722 0.00528189)
(0.000439835 -0.000260317 0.0053153)
(0.000267859 -0.000364359 0.00535303)
(9.98961e-05 -0.000419185 0.00539235)
(-5.47406e-05 -0.000438108 0.00543418)
(-0.000201211 -0.000430548 0.00548366)
(-0.000354215 -0.00040355 0.00554156)
(-0.000506102 -0.000349542 0.00559949)
(-0.000639033 -0.000262169 0.00564062)
(-0.000755115 -0.000136103 0.0056526)
(-0.000841682 4.81106e-05 0.00563179)
(-0.000875182 0.000312732 0.0055877)
(-0.000856178 0.000666885 0.00554404)
(-0.000835831 0.00112886 0.0055117)
(-0.000950071 0.00176634 0.00546986)
(-0.00123978 0.00272773 0.00537683)
(-0.00131497 0.00388938 0.00509958)
(-0.000416165 0.00456091 0.0046459)
(0.00141735 0.00397126 0.00430229)
(0.0026375 0.00296019 0.00432626)
(0.00405091 0.0030559 0.00431621)
(0.00649567 0.00524139 0.00325305)
(0.00858839 0.0112455 0.00188349)
(0.0080074 0.0197671 0.00248818)
(0.0073239 0.0221958 0.00468027)
(0.00934192 0.0190239 0.00967475)
(0.0158133 0.00385633 0.0144942)
(0.0445539 -0.0103798 0.0241728)
(0.0713221 -0.0593177 0.019927)
(0.0695119 -0.0657293 0.0102464)
(0.0785829 -0.0927311 -0.00729496)
(0.0861889 -0.0827823 -0.0131384)
(0.102458 -0.133264 -0.00334011)
(0.0358351 -0.0887456 -0.024736)
(0.0399778 -0.199359 0.0206342)
(-0.0213763 0.0929836 -0.0427419)
(0.0520718 -0.143214 0.000312418)
(0.200056 -0.257427 0.124126)
(0.137598 0.0591282 0.0385098)
(0.071607 -0.105809 0.0349576)
(0.0600059 -0.0399578 0.0300691)
(0.0300898 -0.0440766 0.0206192)
(0.00369943 -0.00779934 -0.000198283)
(-0.00975174 0.0562422 -0.00671289)
(-0.0164463 0.0770647 0.0129267)
(-0.0318189 0.0801751 0.0190604)
(-0.0370198 0.0950737 0.0183716)
(-0.0369673 0.0990288 0.0182023)
(-0.0288981 0.103919 0.0178159)
(-0.0179677 0.102531 0.0124984)
(-0.00355742 0.102388 0.00412386)
(0.0144275 0.104729 0.00186739)
(0.0260361 0.104477 0.00887821)
(0.040498 0.104431 0.00578405)
(0.0563238 0.0996572 0.00715851)
(0.0663966 0.0903652 0.0155173)
(0.0700053 0.0754565 0.0240931)
(0.0719159 0.0547818 0.0298817)
(0.0669115 0.0313795 0.0300083)
(0.0613103 0.0133135 0.0244552)
(0.042104 -0.0115476 0.0190469)
(0.0281032 -0.0267819 0.0204706)
(0.0253063 -0.0388162 0.0211015)
(0.0283294 -0.0604136 0.0174585)
(0.0243478 -0.0802744 0.0136269)
(0.0166067 -0.0921638 0.00753116)
(-0.00297574 -0.0944396 -0.0118019)
(-0.0185062 -0.0826479 -0.0138315)
(-0.0396664 -0.0697017 0.00545211)
(-0.0557536 -0.0567727 0.00464497)
(-0.0756351 -0.0417271 -0.00946671)
(-0.0798673 0.00618913 0.0175865)
(-0.0686341 -0.00187734 0.0691655)
(0.0242129 0.0212437 0.00404183)
(0.0290616 0.0198458 0.00479567)
(0.0219681 0.0119949 0.000790566)
(0.022384 0.0131004 0.000481083)
(0.0136037 0.00562205 -0.0010949)
(0.00801564 0.00512296 -0.000210215)
(0.0018772 0.00032323 0.00278034)
(0.000429449 0.00242317 0.003542)
(-0.000967005 0.000879642 0.00379092)
(-0.00186317 0.00130934 0.0039654)
(-0.0026907 0.000665635 0.00411367)
(-0.00266867 0.00120659 0.00452254)
(-0.00262678 0.00163049 0.00477636)
(-0.00208872 0.0022938 0.00502237)
(-0.00177383 0.00239288 0.00505274)
(-0.00153163 0.00236802 0.00510581)
(-0.00143395 0.00206897 0.00513816)
(-0.00141802 0.00179195 0.00518013)
(-0.00145726 0.00147052 0.00518836)
(-0.00151533 0.00117978 0.00517554)
(-0.00159287 0.000881733 0.00514258)
(-0.001689 0.000585561 0.00510708)
(-0.00180225 0.000302378 0.00507782)
(-0.00193471 5.21648e-05 0.00505688)
(-0.00208949 -0.000156203 0.0050428)
(-0.00225742 -0.000315565 0.00503376)
(-0.00241066 -0.000424578 0.00503321)
(-0.00254517 -0.000492344 0.00504025)
(-0.00267469 -0.000513656 0.00504936)
(-0.00281882 -0.000482308 0.00506248)
(-0.00297526 -0.000393473 0.00507145)
(-0.00312544 -0.000240757 0.0050636)
(-0.00325861 -1.52705e-05 0.00502861)
(-0.00335323 0.00029621 0.00495785)
(-0.00339701 0.000717257 0.0048661)
(-0.00341974 0.00129353 0.00478009)
(-0.00352249 0.00207315 0.00470566)
(-0.00385248 0.00307369 0.00461699)
(-0.00427486 0.00428764 0.00447104)
(-0.00401726 0.0054391 0.00416349)
(-0.00232845 0.00576761 0.00373007)
(-0.000410666 0.00498596 0.00355525)
(2.14007e-05 0.00378623 0.00350403)
(-0.000260538 0.00350361 0.00319483)
(0.000486438 0.00679087 0.00278)
(0.00127129 0.0137575 0.00307842)
(0.00218397 0.022297 0.00549964)
(0.00758603 0.022807 0.00953394)
(0.0175644 0.0103736 0.0147616)
(0.0291775 -0.00725559 0.0181458)
(0.0520534 -0.0347627 0.0305278)
(0.065234 -0.0648541 0.0260739)
(0.0552901 -0.0564051 0.012552)
(0.07683 -0.0641369 -0.0136333)
(0.121356 -0.00876345 -0.000500651)
(0.159525 -0.0672431 0.0421896)
(0.0524836 0.0288078 0.0224657)
(0.0694029 -0.218204 0.116219)
(-0.00785305 0.109862 -0.0156491)
(0.0144331 -0.175363 -0.010458)
(0.18384 -0.233413 0.131389)
(0.121558 0.0962451 0.0215316)
(0.0867805 -0.0981008 0.0797976)
(0.0570871 -0.0191311 0.0523496)
(0.0152764 -0.0375883 0.0377572)
(-0.0264253 0.000116526 0.00162066)
(-0.0399394 0.0522635 -0.00188269)
(-0.0249053 0.0865234 0.0244363)
(-0.0251929 0.103353 0.0208098)
(-0.0241132 0.109066 0.0168134)
(-0.0256345 0.111864 0.0120697)
(-0.0227485 0.115255 0.00116103)
(-0.00994349 0.117671 -0.000634724)
(0.0139543 0.117051 0.00678717)
(0.0267157 0.117573 0.0142201)
(0.0327927 0.113969 0.016167)
(0.0436017 0.112702 0.0157757)
(0.0595462 0.113783 0.0205762)
(0.0668117 0.101428 0.0231773)
(0.0690437 0.0886253 0.0308751)
(0.0698368 0.0684024 0.0310721)
(0.0640751 0.0470325 0.0309691)
(0.0616095 0.0284151 0.0305116)
(0.0472954 0.00770352 0.0246329)
(0.0282625 -0.0222291 0.0126168)
(0.0320544 -0.0447151 0.00198278)
(0.0373704 -0.0668084 -0.000323598)
(0.0337824 -0.087098 -0.000611737)
(0.0232471 -0.104598 0.00216427)
(0.00660344 -0.121502 -0.00748319)
(-0.0219508 -0.116353 -0.0271094)
(-0.0549037 -0.0888244 -0.0133683)
(-0.07148 -0.0624944 -0.00431738)
(-0.101148 -0.0512654 -0.0181563)
(-0.109372 -0.00623098 0.00148955)
(-0.112144 -0.0119732 0.062172)
(0.0231285 0.0207654 0.00368766)
(0.0300972 0.0241397 0.00599609)
(0.0229698 0.0144371 0.00226304)
(0.0246127 0.0154801 0.00217048)
(0.0187997 0.0066744 -0.00121727)
(0.0134503 0.00670526 -0.0017968)
(0.00275114 -0.000507483 0.000486264)
(-0.000700171 0.00221515 0.00185224)
(-0.00165628 0.000271703 0.00257976)
(-0.00267388 0.000967771 0.00316156)
(-0.00352771 -5.613e-05 0.00333911)
(-0.00371474 0.000497012 0.00384415)
(-0.00379257 0.000950012 0.00408169)
(-0.0030867 0.00183009 0.00447928)
(-0.00252384 0.00196104 0.00468108)
(-0.00216034 0.00193924 0.00490554)
(-0.00204741 0.00165046 0.00506885)
(-0.00211064 0.00143097 0.00518669)
(-0.00222679 0.00121597 0.00522248)
(-0.00234637 0.00105288 0.00519767)
(-0.00246538 0.000883218 0.0051168)
(-0.00259436 0.000697874 0.00500332)
(-0.00274652 0.000499993 0.00488052)
(-0.00290694 0.000307002 0.00476031)
(-0.00306185 0.000133873 0.00465068)
(-0.00320855 8.76387e-07 0.00454952)
(-0.00333676 -9.72921e-05 0.0044526)
(-0.00345036 -0.000170352 0.0043676)
(-0.00357733 -0.000209749 0.00429893)
(-0.00372061 -0.000195867 0.00425148)
(-0.00387559 -0.000103266 0.0042173)
(-0.00403046 8.28777e-05 0.0041751)
(-0.00418886 0.00037419 0.00410038)
(-0.004356 0.000784048 0.0039762)
(-0.00455204 0.00132967 0.0038016)
(-0.00481146 0.00204059 0.00359741)
(-0.00514021 0.00291216 0.00340882)
(-0.00550257 0.00384885 0.00329945)
(-0.0056656 0.00470021 0.00334687)
(-0.00484058 0.00524416 0.00362541)
(-0.00264181 0.00537521 0.00427337)
(-0.00105105 0.00512211 0.00487937)
(-0.000896415 0.00442208 0.00506221)
(-0.00262651 0.00419377 0.00436188)
(-0.00449032 0.00709499 0.00394874)
(-0.00507279 0.0134495 0.00433364)
(-0.00352256 0.0187101 0.00607727)
(0.00661447 0.0153058 0.0104244)
(0.0212237 0.00268122 0.0150382)
(0.038677 -0.0131534 0.023483)
(0.0515591 -0.0409664 0.0427004)
(0.0370297 -0.0374611 0.0417194)
(0.0284778 -0.02275 0.0151579)
(0.0743345 0.00882857 -0.00405156)
(0.122548 0.0688096 0.0416407)
(0.119939 0.0345221 0.0787969)
(0.111598 0.154901 0.114531)
(0.144012 -0.257012 0.207423)
(-0.00938726 0.205176 0.0706305)
(0.0256521 -0.234621 0.0259087)
(0.139154 -0.195547 0.135929)
(0.0908984 0.12228 0.0123862)
(0.0903185 -0.0620325 0.0915137)
(0.0397341 0.0157126 0.0602529)
(-0.0162481 -0.0148406 0.0561605)
(-0.0521349 0.0156114 0.0114617)
(-0.0548046 0.05281 -0.000193295)
(-0.0423395 0.0827929 0.0192069)
(-0.0334415 0.109416 0.00209961)
(-0.0263502 0.130719 -0.0039548)
(-0.0234448 0.142524 0.00557503)
(-0.0142408 0.143343 0.0087857)
(0.00640253 0.137352 0.0130448)
(0.0198843 0.132074 0.0149587)
(0.0323908 0.125284 0.020404)
(0.0365295 0.12052 0.0232658)
(0.0401967 0.119274 0.0259064)
(0.0521288 0.116839 0.0254858)
(0.0635997 0.110637 0.0268502)
(0.0682092 0.0984433 0.0321181)
(0.0713325 0.0823542 0.0343424)
(0.0617113 0.0648269 0.0352255)
(0.0585103 0.0459143 0.0347401)
(0.0571045 0.029225 0.0254064)
(0.0527013 -0.00906037 0.00558663)
(0.0619526 -0.0203984 -0.00894943)
(0.0625382 -0.0389867 -0.00274374)
(0.0532983 -0.0616695 0.00344692)
(0.0386254 -0.0826856 0.00435593)
(0.0165835 -0.113235 0.00761836)
(-0.0162804 -0.125004 -0.0172647)
(-0.0673489 -0.110866 -0.0129571)
(-0.0884995 -0.0735414 -0.00227161)
(-0.116573 -0.0450103 -0.0176137)
(-0.137617 0.00862005 0.0138664)
(-0.14197 -0.00336188 0.0644355)
(0.0208101 0.019289 0.00409625)
(0.0307878 0.0284691 0.00835994)
(0.0230987 0.0170711 0.00484461)
(0.0247638 0.0180288 0.00502636)
(0.0212402 0.00659894 0.00127618)
(0.0179671 0.00662816 0.000229509)
(0.00478166 -0.00207169 -0.00107053)
(-0.00116757 0.00186643 0.000405095)
(-0.00297132 -0.000373681 0.00150127)
(-0.00387867 0.000836423 0.0024043)
(-0.00501507 -0.000277935 0.00245922)
(-0.00586917 0.000311106 0.00313427)
(-0.0063409 0.000478614 0.00348123)
(-0.00552544 0.00122251 0.00426017)
(-0.0047746 0.00115845 0.00484698)
(-0.00442999 0.00114893 0.00533369)
(-0.00446708 0.000914768 0.00563351)
(-0.00474693 0.000823845 0.00580031)
(-0.00505447 0.00077626 0.00583012)
(-0.00529698 0.00079907 0.00577139)
(-0.00546226 0.000825674 0.00562792)
(-0.00558119 0.000838462 0.00543128)
(-0.00568051 0.000826601 0.00521574)
(-0.00577614 0.000787319 0.0050004)
(-0.00589152 0.000741852 0.00481674)
(-0.00600769 0.000714851 0.00466724)
(-0.00605697 0.000691646 0.00453874)
(-0.00607805 0.000653831 0.00445073)
(-0.00611741 0.000614162 0.00440801)
(-0.00621353 0.000603606 0.00440363)
(-0.00637409 0.000674515 0.00441996)
(-0.00656973 0.000857173 0.0044132)
(-0.00680178 0.00115124 0.00434211)
(-0.00704375 0.00154784 0.00420769)
(-0.00730125 0.00202898 0.00400394)
(-0.00757746 0.00256728 0.00376191)
(-0.00787148 0.00310671 0.00352009)
(-0.00815025 0.00352006 0.00330448)
(-0.00817042 0.00374082 0.00340254)
(-0.00747202 0.0037362 0.00401243)
(-0.0060116 0.0039699 0.0052697)
(-0.00500177 0.00433929 0.00664214)
(-0.00535648 0.00491595 0.00694164)
(-0.00755107 0.00558082 0.00562036)
(-0.0102073 0.00797864 0.00444819)
(-0.0108522 0.0120221 0.00463091)
(-0.00664109 0.0165862 0.00664933)
(0.00692107 0.0122629 0.0104188)
(0.0246212 0.00607367 0.0166904)
(0.0306592 -0.00945754 0.0365955)
(0.0161747 -0.0171957 0.0643903)
(0.00933134 -0.0169385 0.0513142)
(0.0226668 -0.0125339 0.0227069)
(0.0597564 0.0343377 0.0159838)
(0.0829428 0.092263 0.0537524)
(0.140818 0.0655287 0.0753554)
(0.20106 0.139882 0.0705699)
(0.201088 -0.0974718 0.0739121)
(-0.0525545 0.323748 0.0812315)
(-0.00511113 -0.277083 0.0276999)
(0.0912893 -0.169074 0.138252)
(0.0486931 0.110832 0.0189632)
(0.0566684 -0.000126268 0.0754356)
(0.00737798 0.0614831 0.0668298)
(-0.00788569 0.0285917 0.0692959)
(-0.056354 0.0400559 0.0210141)
(-0.0696474 0.0730173 0.00920924)
(-0.0592253 0.107824 0.0097685)
(-0.0422967 0.14122 -0.010617)
(-0.0292939 0.159801 0.00289614)
(-0.0209219 0.162425 0.00803475)
(-0.00258425 0.15621 0.00728954)
(0.00981765 0.151135 0.0105723)
(0.0280384 0.141572 0.0148275)
(0.0355205 0.132671 0.017093)
(0.0357919 0.127239 0.0224041)
(0.0389431 0.124711 0.0221978)
(0.0482714 0.123078 0.0189828)
(0.0646778 0.117843 0.0224843)
(0.0727063 0.106455 0.0293661)
(0.0765132 0.0909747 0.0330802)
(0.0680499 0.0760131 0.0354639)
(0.0676013 0.0604928 0.0318223)
(0.0726896 0.0419781 0.00735937)
(0.0753395 0.0238239 -0.0161325)
(0.0746897 0.0202071 -0.0194187)
(0.0709871 0.00193998 -0.000533887)
(0.0604076 -0.0255137 0.00211758)
(0.0429152 -0.0581128 -0.00805418)
(0.0304406 -0.0786744 -0.00740474)
(-0.00694303 -0.109134 -0.0206645)
(-0.0800866 -0.10308 -0.0185533)
(-0.110814 -0.0756259 -0.00487874)
(-0.137673 -0.0474752 -0.023414)
(-0.157614 0.000775881 0.0056444)
(-0.171134 -0.0131535 0.058422)
(0.0201067 0.0139738 0.00399064)
(0.0301147 0.0311057 0.0100324)
(0.0223755 0.0193153 0.00550818)
(0.024735 0.022244 0.00571877)
(0.0224197 0.00828127 0.00237961)
(0.019652 0.00674688 0.0023912)
(0.00609846 -0.00366764 -0.0023445)
(-0.00299507 0.00113935 -0.000853977)
(-0.00336022 -0.00189257 0.00191307)
(-0.0045869 0.000877203 0.00285838)
(-0.00520681 -0.000365889 0.00285135)
(-0.00570903 0.000408235 0.00371828)
(-0.00590632 -0.000121814 0.00437946)
(-0.00491391 0.000122251 0.00549117)
(-0.00422915 -0.000129671 0.00630644)
(-0.00394194 3.01514e-05 0.00708956)
(-0.00407153 7.80727e-05 0.00756888)
(-0.00441091 0.000306889 0.00783088)
(-0.00472898 0.000518937 0.00790704)
(-0.00495751 0.000787812 0.00786391)
(-0.00511669 0.00104193 0.00771035)
(-0.00523747 0.00124021 0.00747903)
(-0.00533701 0.001373 0.00721693)
(-0.00542096 0.00145167 0.00695711)
(-0.00551164 0.001479 0.0067147)
(-0.00558665 0.00146515 0.00650613)
(-0.00561623 0.00143469 0.00634731)
(-0.00561043 0.00139105 0.00624715)
(-0.00563915 0.00133273 0.00618803)
(-0.00575299 0.00130236 0.00616436)
(-0.00596789 0.00135622 0.00615051)
(-0.00623421 0.00152234 0.00611395)
(-0.00651233 0.00178042 0.00603578)
(-0.00681216 0.00209467 0.00588339)
(-0.00714129 0.00241067 0.0056432)
(-0.00747914 0.00267135 0.00532663)
(-0.00776322 0.00281966 0.00495786)
(-0.00786717 0.00273244 0.00473138)
(-0.00763185 0.00240068 0.00480262)
(-0.00681984 0.00190294 0.00554303)
(-0.00570872 0.00157244 0.0070721)
(-0.00529123 0.00263196 0.00875759)
(-0.00592957 0.0044697 0.00896508)
(-0.00815803 0.00567655 0.00732462)
(-0.0115909 0.00711419 0.00572486)
(-0.0137577 0.00922435 0.00628791)
(-0.0102292 0.0126576 0.00799418)
(0.00488283 0.010001 0.0101632)
(0.0191485 0.00590911 0.0110392)
(0.0162977 0.00478177 0.0282987)
(-0.0212091 -0.0346719 0.070362)
(-0.0142187 -0.0325277 0.0725967)
(-0.00987381 -0.0309271 0.0390455)
(-0.000613103 0.0263677 0.0110379)
(0.0514582 0.0881154 0.0456154)
(0.112465 0.0923446 0.0353573)
(0.141289 0.157439 -0.0216468)
(0.130118 0.125797 0.0264584)
(0.0801841 0.407932 0.0554614)
(0.000166576 -0.327185 0.0327409)
(0.0314896 -0.110373 0.117423)
(0.0127285 0.117843 0.0150305)
(0.024249 0.0230901 0.0616174)
(0.00781459 0.0846348 0.0533666)
(-0.0453762 0.0677498 0.0459364)
(-0.0859879 0.103803 0.00808587)
(-0.0918951 0.129474 -0.00253757)
(-0.0658156 0.151533 -0.0134402)
(-0.0442592 0.163293 -0.0131988)
(-0.0234553 0.165833 -0.00171604)
(-0.00665437 0.153048 -0.00378502)
(0.0127023 0.145386 -0.00254202)
(0.0282077 0.138675 3.51687e-05)
(0.0424911 0.134486 0.000969686)
(0.0456629 0.130098 0.00494893)
(0.0436735 0.127328 0.00613562)
(0.0421394 0.127207 0.00664142)
(0.0502276 0.124194 0.00935308)
(0.0742513 0.118585 0.0250267)
(0.0897108 0.104711 0.0354745)
(0.091894 0.0910526 0.0407716)
(0.0811285 0.0770995 0.0393415)
(0.0782207 0.0669384 0.0343645)
(0.0805221 0.0538214 0.00703167)
(0.07698 0.0447442 -0.0191389)
(0.0744214 0.040676 -0.0178065)
(0.0757638 0.0229981 -0.00541268)
(0.0636082 -0.00666187 -0.026489)
(0.0746465 -0.0183686 -0.023042)
(0.0683363 -0.0340562 -0.0196683)
(0.0288466 -0.0307459 -0.0233666)
(-0.0707702 -0.0725325 -0.0123686)
(-0.121158 -0.0536385 -0.00598352)
(-0.145421 -0.0263271 -0.0265841)
(-0.167722 0.0193466 0.0136204)
(-0.188223 -0.0037471 0.0506878)
(0.0134088 0.00679503 0.000471943)
(0.02677 0.0315671 0.00964279)
(0.0202557 0.021482 0.00339357)
(0.0241604 0.0275659 0.00344876)
(0.0235096 0.0124634 0.0015888)
(0.0213784 0.00913379 0.00236567)
(0.00808654 -0.00394508 -0.00520983)
(-0.00228573 0.000576873 -0.0053195)
(-0.00624247 -0.00203172 -0.00174191)
(-0.00766133 0.00113149 1.92841e-05)
(-0.00766922 -0.000416548 0.000110241)
(-0.00818339 0.000239773 0.000870661)
(-0.0083543 -0.000817653 0.00156271)
(-0.00792734 -0.000741426 0.00253241)
(-0.00779262 -0.000937706 0.00326346)
(-0.00794063 -0.000564386 0.00399866)
(-0.00830486 -0.000302428 0.00460924)
(-0.00874732 0.000113021 0.00505078)
(-0.00915538 0.000448113 0.00530823)
(-0.00947398 0.000806401 0.00542183)
(-0.00959039 0.00112608 0.00540188)
(-0.00956714 0.00138835 0.00529386)
(-0.00950484 0.00159257 0.00514154)
(-0.0094153 0.00172758 0.00498427)
(-0.00932663 0.00179685 0.00483175)
(-0.00923036 0.00181112 0.00469284)
(-0.00910979 0.00179541 0.00458295)
(-0.00898747 0.00177443 0.00451152)
(-0.0089186 0.00175012 0.00447558)
(-0.00898855 0.00174573 0.00446624)
(-0.00921865 0.00181306 0.00446796)
(-0.00948224 0.0019485 0.00444183)
(-0.00975441 0.00214677 0.00437198)
(-0.009986 0.00237294 0.00423467)
(-0.0101601 0.00255845 0.00401869)
(-0.0102637 0.00264785 0.00373835)
(-0.010224 0.00260328 0.00342446)
(-0.0100581 0.00227505 0.00322258)
(-0.0096803 0.00157683 0.00322666)
(-0.00908329 0.000889172 0.00369805)
(-0.00891221 0.000806871 0.00485907)
(-0.00969671 0.0024363 0.00632007)
(-0.0103723 0.00490477 0.00627899)
(-0.0117292 0.00650586 0.00467728)
(-0.0150047 0.00713224 0.00309821)
(-0.0184161 0.00721372 0.00331962)
(-0.0160351 0.00696445 0.00487846)
(-0.00172551 0.00469564 0.00529697)
(0.0156019 0.000108643 0.00365167)
(0.0229277 0.00431557 0.00627362)
(-0.0200864 -0.0219782 0.0503215)
(-0.0539623 -0.0690139 0.0540725)
(-0.0612871 -0.0712365 0.0331843)
(-0.0620372 -0.06195 -0.00769924)
(-0.00623753 0.0445834 0.0385403)
(0.090844 0.0812711 -0.00144296)
(0.113928 0.185901 -0.0495061)
(0.154872 0.132892 -0.0155097)
(0.188953 0.407447 0.0395572)
(-0.000978151 -0.32305 0.0353201)
(-0.0293187 -0.11838 0.0882803)
(0.00106964 0.147161 -0.0207687)
(-0.0153556 0.0544783 0.00957344)
(-0.0196714 0.129441 0.00334094)
(-0.0607334 0.126072 -0.00219742)
(-0.0748408 0.139111 -0.0146737)
(-0.0773764 0.139754 -0.0171765)
(-0.056735 0.137922 -0.0191836)
(-0.0265392 0.11663 -0.0130549)
(-0.000442815 0.0907394 -0.000159805)
(0.0091604 0.0661734 -0.00550475)
(0.0235699 0.0588517 -0.00856469)
(0.0346771 0.0551136 -0.015822)
(0.0489031 0.0626653 -0.0132397)
(0.0574107 0.0756631 -0.0133268)