/*--------------------------------*- C++ -*----------------------------------*\
| =========                 |                                                 |
| \\      /  F ield         | OpenFOAM: The Open Source CFD Toolbox           |
|  \\    /   O peration     | Version:  2.3.0                                 |
|   \\  /    A nd           | Web:      www.OpenFOAM.org                      |
|    \\/     M anipulation  |                                                 |
\*---------------------------------------------------------------------------*/
FoamFile
{
    version     2.0;
    format      ascii;
    class       volScalarField;
    location    "14";
    object      alpha.air;
}
// * * * * * * * * * * * * * * * * * * * * * * * * * * * * * * * * * * * * * //

dimensions      [0 0 0 0 0 0 0];

internalField   nonuniform List<scalar> 
6144
(
0.999992
0.999992
0.999991
0.999991
0.99999
0.99999
0.99999
0.99999
0.99999
0.99999
0.99999
0.99999
0.99999
0.99999
0.99999
0.99999
0.99999
0.99999
0.99999
0.99999
0.99999
0.99999
0.99999
0.99999
0.99999
0.99999
0.99999
0.99999
0.99999
0.99999
0.99999
0.99999
0.99999
0.99999
0.99999
0.99999
0.99999
0.99999
0.99999
0.99999
0.99999
0.99999
0.99999
0.99999
0.99999
0.99999
0.99999
0.999988
0.999976
0.999958
0.999946
0.999922
0.999916
0.999916
0.999919
0.99992
0.999923
0.999919
0.999038
0.941256
0.0259881
0.000102394
6.37126e-07
6.3718e-07
6.41058e-07
6.44582e-07
6.50583e-07
6.60541e-07
6.71802e-07
6.83724e-07
7.05931e-07
7.31111e-07
7.43729e-07
7.50055e-07
7.546e-07
7.56097e-07
7.54143e-07
7.48796e-07
7.4053e-07
7.30568e-07
7.23552e-07
7.1875e-07
7.11588e-07
7.00474e-07
6.87218e-07
6.35064e-07
5.26678e-07
5.08562e-07
5.08662e-07
5.02938e-07
5.0206e-07
5.10769e-07
5.15418e-07
5.18019e-07
4.6051e-07
3.50151e-07
0.999993
0.999993
0.999991
0.999992
0.999991
0.99999
0.99999
0.99999
0.99999
0.99999
0.99999
0.99999
0.99999
0.99999
0.99999
0.99999
0.99999
0.99999
0.99999
0.99999
0.99999
0.99999
0.99999
0.99999
0.99999
0.99999
0.99999
0.99999
0.99999
0.99999
0.99999
0.99999
0.99999
0.99999
0.99999
0.99999
0.99999
0.99999
0.99999
0.99999
0.99999
0.99999
0.99999
0.99999
0.99999
0.99999
0.999989
0.999987
0.999982
0.999974
0.999954
0.999921
0.999919
0.999919
0.999921
0.999916
0.999915
0.999908
0.999441
0.941098
0.0147627
3.26854e-05
8.82354e-07
1.78333e-06
8.71137e-07
6.44689e-07
7.5001e-07
7.85689e-07
7.7722e-07
7.89971e-07
8.07742e-07
7.47427e-07
7.37848e-07
7.5287e-07
7.66632e-07
7.78742e-07
7.85755e-07
7.84724e-07
7.77323e-07
7.63135e-07
7.45271e-07
7.30035e-07
7.15809e-07
7.02426e-07
6.87242e-07
6.27672e-07
5.40872e-07
5.59942e-07
5.80678e-07
5.61144e-07
5.36931e-07
5.22545e-07
5.53373e-07
5.81143e-07
5.27065e-07
3.87923e-07
0.999995
0.999994
0.999993
0.999994
0.999991
0.999991
0.99999
0.99999
0.99999
0.99999
0.99999
0.99999
0.99999
0.99999
0.99999
0.99999
0.99999
0.99999
0.99999
0.99999
0.99999
0.99999
0.99999
0.99999
0.99999
0.99999
0.99999
0.99999
0.99999
0.99999
0.99999
0.99999
0.99999
0.99999
0.99999
0.99999
0.99999
0.99999
0.99999
0.99999
0.99999
0.99999
0.99999
0.99999
0.99999
0.99999
0.999989
0.999986
0.999983
0.999976
0.999942
0.999914
0.99992
0.999919
0.999913
0.999893
0.999889
0.999881
0.999622
0.929415
0.0141442
4.66285e-05
1.96e-05
2.40333e-05
2.52458e-05
2.535e-05
1.96276e-05
1.23474e-05
5.71336e-06
2.28229e-06
1.07206e-06
7.83191e-07
7.40356e-07
7.62003e-07
7.57603e-07
7.31583e-07
7.19381e-07
7.45235e-07
7.689e-07
7.68661e-07
7.61593e-07
7.46184e-07
7.25179e-07
7.04598e-07
6.79318e-07
6.0561e-07
5.74215e-07
6.08161e-07
6.01877e-07
5.89341e-07
5.84133e-07
5.93903e-07
6.0506e-07
5.85713e-07
5.00995e-07
3.80288e-07
0.999995
0.999995
0.999995
0.999995
0.999993
0.999992
0.999991
0.99999
0.99999
0.99999
0.99999
0.99999
0.99999
0.99999
0.99999
0.99999
0.99999
0.99999
0.99999
0.99999
0.99999
0.99999
0.99999
0.99999
0.99999
0.99999
0.99999
0.99999
0.99999
0.99999
0.99999
0.99999
0.99999
0.99999
0.99999
0.99999
0.99999
0.99999
0.99999
0.99999
0.99999
0.99999
0.99999
0.99999
0.99999
0.99999
0.999989
0.999987
0.999983
0.999968
0.999923
0.999911
0.99992
0.999901
0.999882
0.999867
0.99987
0.999866
0.999691
0.901507
0.0156207
0.000403672
0.000418971
0.000459354
0.000487879
0.000499109
0.000436543
0.000351336
0.000227011
0.000130276
6.27705e-05
2.48926e-05
7.63715e-06
2.07999e-06
9.3379e-07
7.38247e-07
5.89177e-07
5.89176e-07
5.89176e-07
6.2566e-07
6.92292e-07
7.10762e-07
6.98199e-07
6.59212e-07
6.13592e-07
5.77077e-07
5.84447e-07
6.09945e-07
6.39071e-07
5.77463e-07
5.75335e-07
5.91121e-07
5.66094e-07
5.2191e-07
4.4942e-07
3.49291e-07
0.999995
0.999995
0.999995
0.999995
0.999994
0.999993
0.999992
0.999991
0.99999
0.99999
0.99999
0.99999
0.99999
0.99999
0.99999
0.99999
0.99999
0.99999
0.99999
0.99999
0.99999
0.99999
0.99999
0.99999
0.99999
0.99999
0.99999
0.99999
0.99999
0.99999
0.99999
0.99999
0.99999
0.99999
0.99999
0.99999
0.99999
0.99999
0.99999
0.99999
0.99999
0.99999
0.99999
0.99999
0.99999
0.99999
0.999989
0.999987
0.999981
0.999947
0.999909
0.999908
0.999906
0.999873
0.999863
0.999863
0.999869
0.999863
0.999663
0.877669
0.0156249
0.00196992
0.00222512
0.00230095
0.00240672
0.00246579
0.00222987
0.00200404
0.00167278
0.00132706
0.000971728
0.000650316
0.000378814
0.000190265
8.93007e-05
3.76404e-05
1.49185e-05
6.39135e-06
4.26324e-06
3.60018e-06
2.87378e-06
2.32693e-06
2.12329e-06
2.30368e-06
2.39031e-06
1.46475e-06
1.0455e-06
8.68559e-07
5.7799e-07
5.75983e-07
5.75658e-07
5.75983e-07
5.93458e-07
5.7158e-07
4.48686e-07
3.2197e-07
0.999995
0.999996
0.999996
0.999996
0.999995
0.999994
0.999993
0.999991
0.999991
0.99999
0.99999
0.99999
0.99999
0.99999
0.99999
0.99999
0.99999
0.99999
0.99999
0.99999
0.99999
0.99999
0.99999
0.99999
0.99999
0.99999
0.99999
0.99999
0.99999
0.99999
0.99999
0.99999
0.99999
0.99999
0.99999
0.99999
0.99999
0.99999
0.99999
0.99999
0.99999
0.99999
0.99999
0.99999
0.99999
0.99999
0.999989
0.999987
0.999966
0.999923
0.999899
0.999896
0.999888
0.999859
0.99986
0.999873
0.999876
0.999862
0.999677
0.868973
0.0197087
0.00456963
0.005005
0.00508797
0.00516124
0.0047148
0.00428379
0.00397178
0.00378429
0.00360862
0.00335347
0.00305954
0.00263527
0.00208268
0.00154122
0.00112507
0.000786019
0.000555345
0.000404143
0.000299275
0.00022166
0.000190211
0.000194746
0.000220319
0.000233604
0.000176662
0.00014595
0.000140683
0.00014871
0.000130079
9.94757e-05
6.78205e-05
3.2771e-05
1.09695e-05
2.48721e-06
2.88165e-07
0.999995
0.999996
0.999996
0.999996
0.999995
0.999995
0.999993
0.999992
0.999991
0.999991
0.99999
0.99999
0.99999
0.99999
0.99999
0.99999
0.99999
0.99999
0.99999
0.99999
0.99999
0.99999
0.99999
0.99999
0.99999
0.99999
0.99999
0.99999
0.99999
0.99999
0.99999
0.99999
0.99999
0.99999
0.99999
0.99999
0.99999
0.99999
0.99999
0.99999
0.99999
0.99999
0.99999
0.99999
0.99999
0.99999
0.999989
0.999981
0.99994
0.999899
0.999891
0.999882
0.999865
0.999874
0.99989
0.999894
0.999896
0.99988
0.999543
0.886159
0.0280807
0.00636095
0.00671836
0.00613142
0.00569758
0.00509744
0.00484024
0.00478053
0.00481924
0.00486943
0.00493723
0.00498499
0.00499226
0.00492182
0.00443008
0.00394371
0.00331397
0.00272001
0.00214018
0.00162964
0.00120408
0.00107806
0.00118297
0.00133237
0.00150296
0.00169363
0.00190189
0.00209681
0.00228567
0.00247934
0.00268296
0.00286556
0.00294619
0.00225667
0.00175498
0.00110884
0.999995
0.999995
0.999996
0.999996
0.999996
0.999995
0.999994
0.999992
0.999991
0.999991
0.99999
0.99999
0.99999
0.99999
0.99999
0.99999
0.99999
0.99999
0.99999
0.99999
0.99999
0.99999
0.99999
0.99999
0.99999
0.99999
0.99999
0.99999
0.99999
0.99999
0.99999
0.99999
0.99999
0.99999
0.99999
0.99999
0.99999
0.99999
0.99999
0.99999
0.99999
0.99999
0.99999
0.99999
0.99999
0.99999
0.999989
0.999973
0.99991
0.999886
0.999879
0.999876
0.999878
0.999895
0.999908
0.999912
0.999915
0.99988
0.999414
0.908732
0.0313239
0.0053021
0.00540905
0.00462978
0.00426783
0.00401251
0.0039698
0.00406602
0.00431563
0.0045982
0.00497406
0.00533063
0.00560388
0.0057574
0.0058104
0.00571575
0.00536525
0.00494243
0.00445167
0.00408667
0.00393822
0.00394556
0.00400524
0.00408977
0.00418786
0.00432663
0.00453234
0.00485558
0.00529483
0.00582076
0.00644415
0.00713649
0.00783126
0.00849079
0.00850538
0.00758633
0.999995
0.999995
0.999995
0.999995
0.999996
0.999995
0.999994
0.999992
0.999991
0.999991
0.99999
0.99999
0.99999
0.99999
0.99999
0.99999
0.99999
0.99999
0.99999
0.99999
0.99999
0.99999
0.99999
0.99999
0.99999
0.99999
0.99999
0.99999
0.99999
0.99999
0.99999
0.99999
0.99999
0.99999
0.99999
0.99999
0.99999
0.99999
0.99999
0.99999
0.99999
0.99999
0.99999
0.99999
0.99999
0.99999
0.999988
0.999968
0.999906
0.999886
0.99988
0.999877
0.999886
0.9999
0.999909
0.99991
0.999916
0.9999
0.999525
0.926496
0.0369781
0.00271976
0.00249675
0.00200454
0.00181711
0.00169557
0.00168134
0.00171073
0.0017946
0.00195893
0.00219604
0.00245575
0.00270589
0.00288965
0.00296556
0.00300383
0.00301681
0.00291251
0.00274911
0.00246525
0.00211809
0.00172893
0.00128671
0.000885028
0.000603226
0.000393795
0.000253398
0.000227194
0.000244683
0.000238974
0.000205904
0.000189201
0.000242735
0.000271922
0.000230221
0.000147049
0.999996
0.999995
0.999995
0.999994
0.999995
0.999994
0.999993
0.999992
0.999991
0.999991
0.99999
0.99999
0.99999
0.99999
0.99999
0.99999
0.99999
0.99999
0.99999
0.99999
0.99999
0.99999
0.99999
0.99999
0.99999
0.99999
0.99999
0.99999
0.99999
0.99999
0.99999
0.99999
0.99999
0.99999
0.99999
0.99999
0.99999
0.99999
0.99999
0.99999
0.99999
0.99999
0.99999
0.99999
0.99999
0.99999
0.999988
0.999979
0.999911
0.999887
0.999882
0.999879
0.999885
0.999895
0.999905
0.999906
0.999914
0.999916
0.999921
0.947422
0.0257506
0.000718807
0.00056992
0.000411571
0.000352137
0.000298307
0.000277089
0.000266486
0.000260928
0.000290917
0.000338874
0.000407698
0.000473006
0.000514545
0.000524466
0.000518774
0.000495428
0.000462736
0.000395276
0.000311451
0.000200889
0.000104644
3.77244e-05
7.03894e-06
9.64013e-07
2.50948e-07
2.50948e-07
2.50947e-07
2.50947e-07
2.50947e-07
2.50947e-07
2.50946e-07
2.50946e-07
2.50946e-07
2.50946e-07
2.50946e-07
0.999997
0.999996
0.999994
0.999994
0.999995
0.999993
0.999992
0.999991
0.999991
0.99999
0.99999
0.99999
0.99999
0.99999
0.99999
0.99999
0.99999
0.99999
0.99999
0.99999
0.99999
0.99999
0.99999
0.99999
0.99999
0.99999
0.99999
0.99999
0.99999
0.99999
0.99999
0.99999
0.99999
0.99999
0.99999
0.99999
0.99999
0.99999
0.99999
0.99999
0.99999
0.99999
0.99999
0.99999
0.99999
0.99999
0.999988
0.999981
0.999933
0.999892
0.999885
0.999884
0.999887
0.999893
0.9999
0.999904
0.999914
0.999915
0.999921
0.964864
0.0222789
8.85634e-05
4.44283e-05
2.80095e-05
2.17181e-05
1.61549e-05
1.23075e-05
9.5337e-06
7.618e-06
6.92344e-06
8.34534e-06
1.01805e-05
1.23461e-05
1.31681e-05
1.07887e-05
8.4667e-06
7.34491e-06
6.27992e-06
4.47066e-06
3.05645e-06
1.62022e-06
9.96953e-07
6.67321e-07
5.79263e-07
7.39911e-07
7.48635e-07
7.44173e-07
7.42e-07
7.42167e-07
7.44534e-07
7.49146e-07
7.48011e-07
7.51439e-07
7.49666e-07
6.39357e-07
3.03447e-07
0.999999
0.999997
0.999994
0.999993
0.999994
0.999992
0.999992
0.999991
0.99999
0.99999
0.99999
0.99999
0.99999
0.99999
0.99999
0.99999
0.99999
0.99999
0.99999
0.99999
0.99999
0.99999
0.99999
0.99999
0.99999
0.99999
0.99999
0.99999
0.99999
0.99999
0.99999
0.99999
0.99999
0.99999
0.99999
0.99999
0.99999
0.99999
0.99999
0.99999
0.99999
0.99999
0.99999
0.99999
0.99999
0.99999
0.999988
0.999984
0.99997
0.999909
0.99989
0.999888
0.99989
0.999894
0.999902
0.999908
0.999916
0.999916
0.999833
0.974086
0.0321502
6.79264e-05
1.03741e-06
1.02385e-06
1.0165e-06
1.0397e-06
8.62649e-07
7.48201e-07
7.10551e-07
7.1056e-07
7.10568e-07
7.10576e-07
7.69737e-07
7.96952e-07
7.57882e-07
7.55304e-07
7.45253e-07
7.4901e-07
7.89475e-07
8.2818e-07
8.38101e-07
8.45557e-07
7.94357e-07
7.72589e-07
7.56047e-07
7.44034e-07
7.40617e-07
7.38221e-07
7.34533e-07
7.32337e-07
7.32416e-07
7.34649e-07
7.40619e-07
7.37498e-07
6.40981e-07
3.16865e-07
0.999999
0.999997
0.999994
0.999993
0.999994
0.999992
0.999991
0.999991
0.99999
0.99999
0.99999
0.99999
0.99999
0.99999
0.99999
0.99999
0.99999
0.99999
0.99999
0.99999
0.99999
0.99999
0.99999
0.99999
0.99999
0.99999
0.99999
0.99999
0.99999
0.99999
0.99999
0.99999
0.99999
0.99999
0.99999
0.99999
0.99999
0.99999
0.99999
0.99999
0.99999
0.99999
0.99999
0.99999
0.99999
0.99999
0.999988
0.999982
0.999971
0.999934
0.999903
0.999893
0.999894
0.999898
0.999904
0.99991
0.999917
0.999918
0.999776
0.97466
0.045268
0.000153711
7.17236e-07
7.35525e-07
7.2469e-07
7.48075e-07
7.49113e-07
7.4504e-07
7.28941e-07
7.28079e-07
7.26595e-07
7.3931e-07
7.53984e-07
7.55491e-07
7.57455e-07
7.56869e-07
7.51203e-07
7.46214e-07
7.4456e-07
7.38988e-07
7.35057e-07
7.32762e-07
7.29441e-07
7.26302e-07
7.22288e-07
7.23653e-07
7.28427e-07
7.25785e-07
7.19749e-07
7.16056e-07
7.21026e-07
7.33586e-07
7.45714e-07
7.3531e-07
6.06073e-07
2.84929e-07
0.999999
0.999996
0.999994
0.999993
0.999993
0.999991
0.999991
0.99999
0.99999
0.99999
0.99999
0.99999
0.99999
0.99999
0.99999
0.99999
0.99999
0.99999
0.99999
0.99999
0.99999
0.99999
0.99999
0.99999
0.99999
0.99999
0.99999
0.99999
0.99999
0.99999
0.99999
0.99999
0.99999
0.99999
0.99999
0.99999
0.99999
0.99999
0.99999
0.99999
0.99999
0.99999
0.99999
0.99999
0.99999
0.99999
0.999987
0.999982
0.999974
0.999957
0.999925
0.999903
0.9999
0.999902
0.999906
0.999911
0.999918
0.99992
0.999686
0.969514
0.0583539
0.000367315
9.65762e-07
7.2469e-07
7.2469e-07
7.25279e-07
7.30064e-07
7.36107e-07
7.33835e-07
7.3411e-07
7.3875e-07
7.34339e-07
7.34351e-07
7.43186e-07
7.49088e-07
7.46235e-07
7.44062e-07
7.42121e-07
7.38905e-07
7.35055e-07
7.34442e-07
7.31162e-07
7.25834e-07
7.23437e-07
7.19966e-07
7.22703e-07
7.25759e-07
7.17173e-07
7.03965e-07
7.04429e-07
7.17576e-07
7.38229e-07
7.56417e-07
7.47432e-07
6.28306e-07
3.21069e-07
0.999999
0.999996
0.999994
0.999993
0.999992
0.999991
0.999991
0.99999
0.99999
0.99999
0.99999
0.99999
0.99999
0.99999
0.99999
0.99999
0.99999
0.99999
0.99999
0.99999
0.99999
0.99999
0.99999
0.99999
0.99999
0.99999
0.99999
0.99999
0.99999
0.99999
0.99999
0.99999
0.99999
0.99999
0.99999
0.99999
0.99999
0.99999
0.99999
0.99999
0.99999
0.99999
0.99999
0.99999
0.99999
0.999989
0.999986
0.99998
0.999973
0.999961
0.999941
0.999918
0.99991
0.999911
0.999914
0.999919
0.999929
0.999927
0.999659
0.960281
0.0502268
0.000264743
7.30332e-07
7.32439e-07
7.34789e-07
7.31486e-07
7.24448e-07
7.2324e-07
7.23263e-07
7.2339e-07
7.23389e-07
7.23389e-07
7.24332e-07
7.27961e-07
7.31447e-07
7.31689e-07
7.33343e-07
7.34975e-07
7.34259e-07
7.33763e-07
7.34144e-07
7.32792e-07
7.31138e-07
7.25125e-07
7.20301e-07
7.28772e-07
7.29959e-07
7.11175e-07
6.87346e-07
6.92085e-07
7.1101e-07
7.34427e-07
7.28761e-07
6.71109e-07
5.51433e-07
2.62418e-07
0.999999
0.999995
0.999994
0.999993
0.999992
0.999991
0.999991
0.99999
0.99999
0.99999
0.99999
0.99999
0.99999
0.99999
0.99999
0.99999
0.99999
0.99999
0.99999
0.99999
0.99999
0.99999
0.99999
0.99999
0.99999
0.99999
0.99999
0.99999
0.99999
0.99999
0.99999
0.99999
0.99999
0.99999
0.99999
0.99999
0.99999
0.99999
0.99999
0.99999
0.99999
0.99999
0.99999
0.99999
0.99999
0.999989
0.999984
0.999977
0.999969
0.99996
0.999948
0.999937
0.999932
0.999933
0.999934
0.999943
0.999929
0.999879
0.999369
0.954205
0.0499282
0.000305587
8.79181e-07
7.56704e-07
7.41015e-07
7.32966e-07
7.26197e-07
7.2551e-07
7.25547e-07
7.25206e-07
7.26813e-07
7.26592e-07
7.25345e-07
7.26598e-07
7.29477e-07
7.29909e-07
7.29946e-07
7.31276e-07
7.336e-07
7.3545e-07
7.38905e-07
7.38486e-07
7.37412e-07
7.32993e-07
7.2866e-07
7.33654e-07
7.20457e-07
6.85025e-07
6.85168e-07
7.00778e-07
7.22804e-07
7.3693e-07
6.92827e-07
4.10685e-07
3.12419e-07
2.45832e-07
0.999992
0.999991
0.999991
0.999991
0.99999
0.99999
0.99999
0.99999
0.99999
0.99999
0.99999
0.99999
0.99999
0.99999
0.99999
0.99999
0.99999
0.99999
0.99999
0.99999
0.99999
0.99999
0.99999
0.99999
0.99999
0.99999
0.99999
0.99999
0.99999
0.99999
0.99999
0.99999
0.99999
0.99999
0.99999
0.99999
0.99999
0.99999
0.99999
0.99999
0.99999
0.99999
0.99999
0.99999
0.99999
0.99999
0.99999
0.999988
0.999975
0.999955
0.999948
0.999931
0.99992
0.999918
0.999919
0.999921
0.999925
0.999918
0.999363
0.93711
0.0211997
2.8741e-05
6.37125e-07
6.38781e-07
6.39532e-07
6.41803e-07
6.46088e-07
6.54065e-07
6.69103e-07
6.78789e-07
6.96656e-07
7.12773e-07
7.27127e-07
7.30282e-07
7.2861e-07
7.24808e-07
7.22316e-07
7.22949e-07
7.26309e-07
7.35125e-07
7.45582e-07
7.46051e-07
7.37775e-07
7.24258e-07
6.92449e-07
6.09085e-07
5.35091e-07
5.60583e-07
5.51379e-07
5.06254e-07
4.7832e-07
4.77236e-07
4.76631e-07
4.64099e-07
4.15345e-07
3.36195e-07
0.999993
0.999992
0.999991
0.999992
0.999991
0.999991
0.999991
0.999991
0.999991
0.999991
0.99999
0.99999
0.99999
0.99999
0.99999
0.99999
0.99999
0.99999
0.99999
0.99999
0.99999
0.99999
0.99999
0.99999
0.99999
0.99999
0.99999
0.99999
0.99999
0.99999
0.99999
0.99999
0.99999
0.99999
0.99999
0.99999
0.99999
0.99999
0.99999
0.99999
0.99999
0.99999
0.99999
0.99999
0.99999
0.99999
0.999989
0.999988
0.999979
0.99997
0.999959
0.999938
0.99993
0.999929
0.99993
0.999932
0.999933
0.999917
0.999614
0.900022
0.00458702
3.53338e-06
7.09119e-07
9.64489e-07
6.59492e-07
7.50077e-07
8.46193e-07
9.93866e-07
9.23835e-07
7.64639e-07
8.19335e-07
8.38626e-07
8.48784e-07
8.52427e-07
8.51201e-07
8.44269e-07
8.28127e-07
8.06531e-07
7.82712e-07
7.64935e-07
7.52519e-07
7.42758e-07
7.27472e-07
7.12821e-07
6.85588e-07
6.06052e-07
5.66244e-07
5.85782e-07
5.67264e-07
5.25874e-07
5.03387e-07
4.70865e-07
4.61416e-07
4.68203e-07
4.66206e-07
3.60253e-07
0.999995
0.999993
0.999993
0.999994
0.999992
0.999992
0.999992
0.999991
0.999991
0.999991
0.99999
0.99999
0.99999
0.99999
0.99999
0.99999
0.99999
0.99999
0.99999
0.99999
0.99999
0.99999
0.99999
0.99999
0.99999
0.99999
0.99999
0.99999
0.99999
0.99999
0.99999
0.99999
0.99999
0.99999
0.99999
0.99999
0.99999
0.99999
0.99999
0.99999
0.99999
0.99999
0.99999
0.99999
0.99999
0.99999
0.999989
0.999986
0.999979
0.999974
0.999957
0.999939
0.999933
0.999933
0.999936
0.999936
0.999934
0.999889
0.999729
0.844678
0.00135219
2.51176e-05
2.417e-05
2.122e-05
1.92204e-05
1.4167e-05
9.32547e-06
4.54685e-06
2.15934e-06
1.10386e-06
8.77824e-07
9.88891e-07
9.50496e-07
9.35337e-07
9.24051e-07
9.02674e-07
8.85414e-07
8.52758e-07
8.07327e-07
7.69478e-07
7.42568e-07
7.28387e-07
7.13809e-07
6.94842e-07
6.60785e-07
5.86431e-07
5.87101e-07
5.86144e-07
5.29688e-07
5.08729e-07
5.09772e-07
5.17857e-07
4.88699e-07
4.65217e-07
4.09791e-07
3.39656e-07
0.999995
0.999994
0.999994
0.999995
0.999993
0.999993
0.999992
0.999992
0.999992
0.999991
0.99999
0.99999
0.99999
0.99999
0.99999
0.99999
0.99999
0.99999
0.99999
0.99999
0.99999
0.99999
0.99999
0.99999
0.99999
0.99999
0.99999
0.99999
0.99999
0.99999
0.99999
0.99999
0.99999
0.99999
0.99999
0.99999
0.99999
0.99999
0.99999
0.99999
0.99999
0.99999
0.99999
0.99999
0.99999
0.99999
0.999989
0.999984
0.999978
0.999973
0.999944
0.999938
0.999922
0.999916
0.999915
0.999874
0.999859
0.999841
0.999831
0.764444
0.00250757
0.000918741
0.000884045
0.000833544
0.000809844
0.000659941
0.000508289
0.000330512
0.000192922
9.34153e-05
3.92219e-05
1.48285e-05
5.99501e-06
2.5606e-06
1.01073e-06
6.24766e-07
5.89177e-07
6.13542e-07
6.66578e-07
7.10241e-07
7.68174e-07
7.44932e-07
6.57401e-07
9.03758e-07
9.98667e-07
7.76371e-07
8.42496e-07
7.66432e-07
7.47374e-07
4.65047e-07
4.50972e-07
4.97299e-07
5.08168e-07
4.46977e-07
3.96535e-07
2.99574e-07
0.999996
0.999995
0.999995
0.999995
0.999993
0.999994
0.999993
0.999993
0.999992
0.999991
0.99999
0.99999
0.99999
0.99999
0.99999
0.99999
0.99999
0.99999
0.99999
0.99999
0.99999
0.99999
0.99999
0.99999
0.99999
0.99999
0.99999
0.99999
0.99999
0.99999
0.99999
0.99999
0.99999
0.99999
0.99999
0.99999
0.99999
0.99999
0.99999
0.99999
0.99999
0.99999
0.99999
0.99999
0.99999
0.99999
0.999989
0.999984
0.999976
0.999964
0.999933
0.999932
0.999902
0.999877
0.999884
0.999844
0.999847
0.999845
0.999856
0.730292
0.0116843
0.00685557
0.0069927
0.00700745
0.00702162
0.00632448
0.00566547
0.00474684
0.00371342
0.0027424
0.00190028
0.00121946
0.000731366
0.000416127
0.000213311
0.000110764
7.37386e-05
6.91297e-05
7.61972e-05
8.22096e-05
9.18267e-05
0.000102433
0.000109791
0.000111445
8.01687e-05
5.86769e-05
4.47391e-05
3.54853e-05
1.97194e-05
5.17583e-06
8.90778e-07
7.44931e-07
1.04172e-06
1.68763e-06
9.34742e-07
2.60069e-07
0.999996
0.999996
0.999996
0.999996
0.999994
0.999994
0.999993
0.999993
0.999992
0.999991
0.99999
0.99999
0.99999
0.99999
0.99999
0.99999
0.99999
0.99999
0.99999
0.99999
0.99999
0.99999
0.99999
0.99999
0.99999
0.99999
0.99999
0.99999
0.99999
0.99999
0.99999
0.99999
0.99999
0.99999
0.99999
0.99999
0.99999
0.99999
0.99999
0.99999
0.99999
0.99999
0.99999
0.99999
0.99999
0.999989
0.999988
0.999984
0.999972
0.99995
0.999925
0.999927
0.99989
0.999848
0.999837
0.99983
0.999832
0.999819
0.999856
0.696358
0.0230612
0.0153629
0.0166284
0.0168213
0.0165704
0.0165188
0.0160207
0.0155937
0.0147668
0.0140792
0.0132307
0.0118851
0.010187
0.00851032
0.00687849
0.00544746
0.00445923
0.00406977
0.00407562
0.00473228
0.00524092
0.00567516
0.00606041
0.00635825
0.00658849
0.00672492
0.00675669
0.00607203
0.00521538
0.00411077
0.00314491
0.00227068
0.00140634
0.000727342
0.000248037
4.11139e-05
0.999996
0.999996
0.999996
0.999996
0.999995
0.999995
0.999993
0.999993
0.999992
0.999991
0.99999
0.99999
0.99999
0.99999
0.99999
0.99999
0.99999
0.99999
0.99999
0.99999
0.99999
0.99999
0.99999
0.99999
0.99999
0.99999
0.99999
0.99999
0.99999
0.99999
0.99999
0.99999
0.99999
0.99999
0.99999
0.99999
0.99999
0.99999
0.99999
0.99999
0.99999
0.99999
0.99999
0.99999
0.99999
0.999989
0.999986
0.999983
0.999962
0.999929
0.999922
0.999895
0.999853
0.999851
0.999853
0.999848
0.999844
0.999841
0.999856
0.731562
0.028984
0.0175947
0.0187399
0.0188382
0.0186441
0.0190029
0.0191839
0.01972
0.0206938
0.0219537
0.0230862
0.0239251
0.0242638
0.0243609
0.0243366
0.0240302
0.0238809
0.0239016
0.0242978
0.0252163
0.0263194
0.0277251
0.0292896
0.0313772
0.0336215
0.0356699
0.037343
0.0389325
0.0406923
0.0419153
0.0426597
0.0429894
0.0412139
0.0391275
0.0325523
0.0267365
0.999995
0.999995
0.999996
0.999995
0.999995
0.999995
0.999994
0.999993
0.999992
0.999991
0.99999
0.99999
0.99999
0.99999
0.99999
0.99999
0.99999
0.99999
0.99999
0.99999
0.99999
0.99999
0.99999
0.99999
0.99999
0.99999
0.99999
0.99999
0.99999
0.99999
0.99999
0.99999
0.99999
0.99999
0.99999
0.99999
0.99999
0.99999
0.99999
0.99999
0.99999
0.99999
0.99999
0.99999
0.99999
0.999989
0.999985
0.999981
0.999942
0.999909
0.999891
0.99988
0.999888
0.999896
0.999897
0.999897
0.999888
0.999856
0.99971
0.810609
0.0260269
0.01134
0.0113977
0.00969523
0.00868842
0.00813555
0.00805593
0.00879991
0.00981149
0.0114139
0.0135885
0.0162383
0.0187242
0.0206179
0.0218983
0.0226917
0.023098
0.0234493
0.0236146
0.023574
0.0234079
0.0242831
0.025991
0.0285352
0.0318484
0.0355416
0.0396779
0.0450755
0.0525253
0.0621016
0.0737672
0.0880847
0.106534
0.132612
0.18474
0.370466
0.999996
0.999995
0.999995
0.999995
0.999996
0.999995
0.999994
0.999992
0.999991
0.999991
0.99999
0.99999
0.99999
0.99999
0.99999
0.99999
0.99999
0.99999
0.99999
0.99999
0.99999
0.99999
0.99999
0.99999
0.99999
0.99999
0.99999
0.99999
0.99999
0.99999
0.99999
0.99999
0.99999
0.99999
0.99999
0.99999
0.99999
0.99999
0.99999
0.99999
0.99999
0.99999
0.99999
0.99999
0.99999
0.999989
0.999985
0.999979
0.999938
0.999907
0.999896
0.999884
0.999898
0.999908
0.99991
0.999912
0.999915
0.999909
0.999815
0.85744
0.0165271
0.00283638
0.00227425
0.00150093
0.00125547
0.00116873
0.00120758
0.0013273
0.00152291
0.00182949
0.00220048
0.00253831
0.00278962
0.00297493
0.00324355
0.0035058
0.00365348
0.00342835
0.00302429
0.00271843
0.00232551
0.00166955
0.00116313
0.0010644
0.0010536
0.00120953
0.00133252
0.00146181
0.00160608
0.00186829
0.00207753
0.00245742
0.00327819
0.00433688
0.0059741
0.00760241
0.999998
0.999995
0.999994
0.999993
0.999994
0.999993
0.999993
0.999992
0.999991
0.99999
0.99999
0.99999
0.99999
0.99999
0.99999
0.99999
0.99999
0.99999
0.99999
0.99999
0.99999
0.99999
0.99999
0.99999
0.99999
0.99999
0.99999
0.99999
0.99999
0.99999
0.99999
0.99999
0.99999
0.99999
0.99999
0.99999
0.99999
0.99999
0.99999
0.99999
0.99999
0.99999
0.99999
0.99999
0.99999
0.999989
0.999985
0.999978
0.999957
0.999912
0.999907
0.999894
0.999897
0.999897
0.999901
0.999906
0.999917
0.999919
0.999921
0.88379
0.00776145
0.000309508
0.000197604
0.000125327
0.000106893
9.23822e-05
8.98156e-05
9.9201e-05
0.000115124
0.00014475
0.000182661
0.00022266
0.000240339
0.000238271
0.000209241
0.000175402
0.000138776
0.000107423
7.6469e-05
5.32842e-05
3.52528e-05
1.97806e-05
1.37032e-05
1.17784e-05
9.27801e-06
7.2777e-06
6.30717e-06
5.88327e-06
7.13107e-06
7.60045e-06
6.51693e-06
3.94009e-06
7.48719e-07
2.50948e-07
2.6731e-07
3.45898e-07
0.999998
0.999995
0.999993
0.999993
0.999992
0.999992
0.999991
0.999991
0.999991
0.99999
0.99999
0.99999
0.99999
0.99999
0.99999
0.99999
0.99999
0.99999
0.99999
0.99999
0.99999
0.99999
0.99999
0.99999
0.99999
0.99999
0.99999
0.99999
0.99999
0.99999
0.99999
0.99999
0.99999
0.99999
0.99999
0.99999
0.99999
0.99999
0.99999
0.99999
0.99999
0.99999
0.99999
0.99999
0.99999
0.999989
0.999986
0.999978
0.999968
0.999933
0.999911
0.999907
0.999909
0.999905
0.999908
0.999914
0.999921
0.999918
0.999921
0.908944
0.00339269
1.94618e-05
1.40396e-05
8.78252e-06
6.8629e-06
4.78497e-06
4.11377e-06
3.75177e-06
3.64729e-06
4.19536e-06
5.07476e-06
6.12991e-06
6.54399e-06
4.78998e-06
3.19695e-06
2.29688e-06
1.48297e-06
9.83404e-07
7.98078e-07
8.15861e-07
6.58383e-07
6.58504e-07
6.59201e-07
8.2852e-07
8.40447e-07
8.23245e-07
7.21579e-07
6.45135e-07
6.73031e-07
7.17304e-07
7.71757e-07
8.1234e-07
7.78423e-07
7.31842e-07
5.97929e-07
3.32776e-07
0.999997
0.999994
0.999993
0.999992
0.999992
0.999991
0.999991
0.999991
0.999991
0.99999
0.99999
0.99999
0.99999
0.99999
0.99999
0.99999
0.99999
0.99999
0.99999
0.99999
0.99999
0.99999
0.99999
0.99999
0.99999
0.99999
0.99999
0.99999
0.99999
0.99999
0.99999
0.99999
0.99999
0.99999
0.99999
0.99999
0.99999
0.99999
0.99999
0.99999
0.99999
0.99999
0.99999
0.99999
0.99999
0.999989
0.999987
0.999978
0.999965
0.99996
0.999926
0.999914
0.999917
0.999921
0.99993
0.99993
0.999927
0.999917
0.999907
0.945609
0.0105066
1.1456e-06
1.64914e-06
7.95371e-07
1.00439e-06
7.2926e-07
7.29104e-07
7.2926e-07
7.86009e-07
8.40421e-07
7.3851e-07
7.36204e-07
8.30977e-07
8.98409e-07
8.73401e-07
8.40515e-07
8.13872e-07
7.90425e-07
7.76752e-07
7.77582e-07
7.7963e-07
7.90283e-07
7.81496e-07
7.59457e-07
7.45763e-07
7.41899e-07
7.48881e-07
7.47443e-07
7.39037e-07
7.2166e-07
7.05559e-07
7.1272e-07
7.26863e-07
7.26744e-07
6.2706e-07
3.35609e-07
0.999996
0.999994
0.999993
0.999992
0.999992
0.999991
0.999991
0.999991
0.99999
0.99999
0.99999
0.99999
0.99999
0.99999
0.99999
0.99999
0.99999
0.99999
0.99999
0.99999
0.99999
0.99999
0.99999
0.99999
0.99999
0.99999
0.99999
0.99999
0.99999
0.99999
0.99999
0.99999
0.99999
0.99999
0.99999
0.99999
0.99999
0.99999
0.99999
0.99999
0.99999
0.99999
0.99999
0.99999
0.99999
0.99999
0.999988
0.99998
0.999965
0.999955
0.99995
0.999928
0.999928
0.999934
0.999935
0.999933
0.99993
0.999923
0.999867
0.937508
0.0143873
1.26347e-06
7.17235e-07
7.94995e-07
8.27073e-07
8.15007e-07
7.93673e-07
7.79349e-07
7.61987e-07
7.39042e-07
7.26724e-07
7.34733e-07
7.54015e-07
7.65072e-07
7.69765e-07
7.54304e-07
7.46129e-07
7.411e-07
7.41083e-07
7.4316e-07
7.4505e-07
7.37709e-07
7.17698e-07
7.11954e-07
7.14942e-07
7.17219e-07
7.19853e-07
7.1273e-07
6.97362e-07
6.86391e-07
6.81684e-07
7.12232e-07
7.27783e-07
7.19336e-07
5.87482e-07
2.96723e-07
0.999996
0.999995
0.999993
0.999992
0.999991
0.999991
0.999991
0.99999
0.99999
0.99999
0.99999
0.99999
0.99999
0.99999
0.99999
0.99999
0.99999
0.99999
0.99999
0.99999
0.99999
0.99999
0.99999
0.99999
0.99999
0.99999
0.99999
0.99999
0.99999
0.99999
0.99999
0.99999
0.99999
0.99999
0.99999
0.99999
0.99999
0.99999
0.99999
0.99999
0.99999
0.99999
0.99999
0.99999
0.99999
0.99999
0.999987
0.99998
0.99997
0.999958
0.999951
0.999946
0.999943
0.999943
0.999932
0.999915
0.999923
0.999918
0.999828
0.921479
0.0134466
8.21783e-06
7.17233e-07
7.57524e-07
7.46846e-07
7.48022e-07
7.47234e-07
7.45214e-07
7.43927e-07
7.43997e-07
7.41848e-07
7.33952e-07
7.37609e-07
7.48962e-07
7.50894e-07
7.49415e-07
7.46853e-07
7.45396e-07
7.4198e-07
7.44439e-07
7.5198e-07
7.41333e-07
7.15465e-07
7.11965e-07
7.16862e-07
7.17355e-07
7.0498e-07
7.00345e-07
6.74698e-07
6.36348e-07
6.54236e-07
7.08983e-07
7.02251e-07
7.18592e-07
5.98475e-07
3.11775e-07
0.999998
0.999996
0.999994
0.999993
0.999992
0.999991
0.99999
0.99999
0.99999
0.99999
0.99999
0.99999
0.99999
0.99999
0.99999
0.99999
0.99999
0.99999
0.99999
0.99999
0.99999
0.99999
0.99999
0.99999
0.99999
0.99999
0.99999
0.99999
0.99999
0.99999
0.99999
0.99999
0.99999
0.99999
0.99999
0.99999
0.99999
0.99999
0.99999
0.99999
0.99999
0.99999
0.99999
0.99999
0.99999
0.999989
0.999986
0.999979
0.999971
0.999963
0.999953
0.999945
0.99994
0.999932
0.999911
0.9999
0.999902
0.999903
0.999749
0.907993
0.0116983
1.24877e-05
7.17233e-07
7.38248e-07
7.33084e-07
7.25457e-07
7.24551e-07
7.25363e-07
7.26953e-07
7.29301e-07
7.28258e-07
7.24011e-07
7.24117e-07
7.2577e-07
7.30497e-07
7.32437e-07
7.31855e-07
7.32923e-07
7.37017e-07
7.44677e-07
7.59922e-07
7.5427e-07
7.25892e-07
7.19867e-07
7.26376e-07
7.30052e-07
7.18839e-07
6.75467e-07
6.07135e-07
5.98868e-07
6.51887e-07
6.92772e-07
6.26991e-07
6.14627e-07
4.96008e-07
2.45833e-07
0.999999
0.999997
0.999994
0.999993
0.999992
0.999991
0.999991
0.99999
0.99999
0.99999
0.99999
0.99999
0.99999
0.99999
0.99999
0.99999
0.99999
0.99999
0.99999
0.99999
0.99999
0.99999
0.99999
0.99999
0.99999
0.99999
0.99999
0.99999
0.99999
0.99999
0.99999
0.99999
0.99999
0.99999
0.99999
0.99999
0.99999
0.99999
0.99999
0.99999
0.99999
0.99999
0.99999
0.99999
0.99999
0.999989
0.999985
0.999977
0.999969
0.999961
0.999953
0.999946
0.999943
0.999941
0.999917
0.99983
0.999704
0.999611
0.99942
0.931815
0.0447265
1.99306e-05
7.17233e-07
7.37895e-07
7.33049e-07
7.24869e-07
7.24903e-07
7.25598e-07
7.26403e-07
7.27216e-07
7.2864e-07
7.29422e-07
7.29824e-07
7.30628e-07
7.30811e-07
7.31046e-07
7.30933e-07
7.32828e-07
7.35446e-07
7.44854e-07