/*--------------------------------*- C++ -*----------------------------------*\
| =========                 |                                                 |
| \\      /  F ield         | OpenFOAM: The Open Source CFD Toolbox           |
|  \\    /   O peration     | Version:  2.3.0                                 |
|   \\  /    A nd           | Web:      www.OpenFOAM.org                      |
|    \\/     M anipulation  |                                                 |
\*---------------------------------------------------------------------------*/
FoamFile
{
    version     2.0;
    format      ascii;
    class       volScalarField;
    location    "14";
    object      nut.water;
}
// * * * * * * * * * * * * * * * * * * * * * * * * * * * * * * * * * * * * * //

dimensions      [0 2 -1 0 0 0 0];

internalField   nonuniform List<scalar> 
6144
(
9.98199e-06
9.71512e-06
6.89305e-06
6.7167e-06
6.12046e-06
5.93703e-06
5.54612e-06
5.24949e-06
4.56093e-06
4.12432e-06
4.0777e-06
4.29995e-06
4.44246e-06
4.52819e-06
4.49683e-06
4.46853e-06
4.40411e-06
4.37159e-06
4.33093e-06
4.31621e-06
4.30034e-06
4.30176e-06
4.30433e-06
4.31473e-06
4.32809e-06
4.34461e-06
4.36231e-06
4.38118e-06
4.40079e-06
4.42083e-06
4.4419e-06
4.46065e-06
4.48593e-06
4.49911e-06
4.53796e-06
4.53396e-06
4.59603e-06
4.558e-06
4.65626e-06
4.57091e-06
4.74472e-06
4.61066e-06
4.89992e-06
4.71356e-06
5.1245e-06
4.9892e-06
5.48509e-06
5.68977e-06
6.74192e-06
8.68173e-06
1.2208e-05
1.47801e-05
1.62849e-05
2.00257e-05
2.80412e-05
3.52351e-05
4.08142e-05
5.26174e-05
6.88392e-05
8.7628e-05
0.000151364
0.000117893
0.000105921
9.43065e-05
8.60996e-05
8.11432e-05
7.75651e-05
7.46427e-05
7.20786e-05
6.97875e-05
6.7708e-05
6.57499e-05
6.38868e-05
6.20415e-05
6.02279e-05
5.83839e-05
5.64422e-05
5.43313e-05
5.19543e-05
4.939e-05
4.67006e-05
4.3666e-05
4.03782e-05
3.6951e-05
3.30699e-05
2.86719e-05
2.4354e-05
2.05376e-05
1.74479e-05
1.37741e-05
9.39271e-06
8.88428e-06
1.0465e-05
1.22364e-05
1.28203e-05
1.25375e-05
1.44077e-05
1.43365e-05
9.34527e-06
9.76261e-06
8.25688e-06
7.957e-06
7.99894e-06
7.87469e-06
7.71463e-06
7.25984e-06
7.19422e-06
7.46559e-06
7.63972e-06
7.73149e-06
7.70675e-06
7.65946e-06
7.57403e-06
7.5181e-06
7.4659e-06
7.44733e-06
7.43802e-06
7.45209e-06
7.47296e-06
7.50648e-06
7.54464e-06
7.58782e-06
7.63318e-06
7.68052e-06
7.72888e-06
7.77788e-06
7.82761e-06
7.87481e-06
7.92835e-06
7.96988e-06
8.03852e-06
8.05527e-06
8.15273e-06
8.11161e-06
8.25379e-06
8.13408e-06
8.38801e-06
8.18982e-06
8.62447e-06
8.33254e-06
8.96776e-06
8.80101e-06
9.48663e-06
9.64652e-06
1.02699e-05
1.23574e-05
1.60225e-05
2.06336e-05
2.56258e-05
2.99788e-05
4.11512e-05
5.25001e-05
6.76954e-05
7.97076e-05
8.96697e-05
8.92876e-05
0.000132885
7.91842e-05
7.57986e-05
7.09763e-05
7.08559e-05
7.15658e-05
7.15923e-05
7.12448e-05
7.05777e-05
6.97645e-05
6.86555e-05
6.73151e-05
6.59595e-05
6.4545e-05
6.31321e-05
6.15467e-05
5.96909e-05
5.76721e-05
5.5205e-05
5.24398e-05
4.96606e-05
4.63433e-05
4.25486e-05
3.83466e-05
3.19297e-05
2.59835e-05
2.30465e-05
2.15993e-05
2.02489e-05
1.75763e-05
1.34553e-05
1.24495e-05
1.3042e-05
1.51074e-05
1.59981e-05
1.42009e-05
1.79834e-05
1.7821e-05
1.17131e-05
1.25424e-05
9.03815e-06
8.55873e-06
8.46724e-06
8.35441e-06
8.96925e-06
8.67907e-06
8.66125e-06
8.94059e-06
9.1527e-06
9.26394e-06
9.31815e-06
9.36174e-06
9.39289e-06
9.42774e-06
9.46615e-06
9.51308e-06
9.56706e-06
9.62662e-06
9.68957e-06
9.75459e-06
9.8196e-06
9.88508e-06
9.95066e-06
1.00164e-05
1.00815e-05
1.01459e-05
1.02099e-05
1.02727e-05
1.03366e-05
1.03987e-05
1.04648e-05
1.0512e-05
1.05806e-05
1.05837e-05
1.06553e-05
1.05896e-05
1.07201e-05
1.05913e-05
1.08397e-05
1.06281e-05
1.10603e-05
1.10856e-05
1.17342e-05
1.24745e-05
1.26755e-05
1.50037e-05
1.79226e-05
2.36973e-05
3.21528e-05
3.76151e-05
4.92854e-05
6.42497e-05
7.59785e-05
8.7083e-05
8.42925e-05
7.92668e-05
0.000125588
7.30603e-05
7.33442e-05
6.89546e-05
6.99393e-05
7.0102e-05
6.88598e-05
6.78998e-05
6.73151e-05
6.70258e-05
6.64131e-05
6.58528e-05
6.50753e-05
6.37772e-05
6.25546e-05
6.11124e-05
5.93834e-05
5.77377e-05
5.52964e-05
5.26808e-05
4.96718e-05
4.32201e-05
3.64993e-05
3.29472e-05
3.11728e-05
3.03115e-05
3.04022e-05
2.97648e-05
2.7072e-05
2.30988e-05
1.9118e-05
1.69823e-05
1.70235e-05
1.87053e-05
1.93594e-05
1.5375e-05
2.23264e-05
2.18735e-05
1.60635e-05
1.68451e-05
1.19622e-05
1.08306e-05
8.91023e-06
8.37461e-06
8.82829e-06
8.86027e-06
8.98326e-06
9.22527e-06
9.46392e-06
9.61285e-06
9.72598e-06
9.84752e-06
9.98003e-06
1.0101e-05
1.02137e-05
1.03144e-05
1.04128e-05
1.05055e-05
1.05967e-05
1.06825e-05
1.07661e-05
1.08461e-05
1.0924e-05
1.10004e-05
1.10754e-05
1.1149e-05
1.12223e-05
1.12962e-05
1.13701e-05
1.14447e-05
1.15149e-05
1.15822e-05
1.16404e-05
1.16728e-05
1.17065e-05
1.16751e-05
1.17212e-05
1.16533e-05
1.17646e-05
1.16439e-05
1.19084e-05
1.21436e-05
1.28515e-05
1.42331e-05
1.48569e-05
1.72282e-05
1.9335e-05
2.46975e-05
3.51696e-05
4.41783e-05
6.62085e-05
8.30218e-05
9.80826e-05
0.000108436
7.82683e-05
7.67098e-05
0.00012538
7.36844e-05
6.74818e-05
6.70194e-05
6.91486e-05
6.6593e-05
6.47136e-05
6.41143e-05
6.38183e-05
6.34888e-05
6.26517e-05
6.19899e-05
6.11277e-05
5.99254e-05
5.83507e-05
5.65323e-05
5.4912e-05
5.23914e-05
4.80335e-05
4.4228e-05
4.22083e-05
4.11033e-05
4.04205e-05
4.0131e-05
4.03084e-05
4.03227e-05
3.85118e-05
3.55253e-05
3.16198e-05
2.72592e-05
2.30236e-05
2.05999e-05
2.06602e-05
2.22332e-05
2.29492e-05
1.63128e-05
2.49853e-05
2.4914e-05
2.09426e-05
2.10092e-05
1.6517e-05
1.45985e-05
1.1499e-05
9.74608e-06
9.29477e-06
9.13906e-06
9.42075e-06
9.62028e-06
9.81938e-06
9.92563e-06
1.00732e-05
1.02483e-05
1.04361e-05
1.06059e-05
1.07577e-05
1.089e-05
1.10107e-05
1.11192e-05
1.1221e-05
1.13159e-05
1.14083e-05
1.14981e-05
1.1586e-05
1.16725e-05
1.17579e-05
1.18431e-05
1.19279e-05
1.20137e-05
1.20973e-05
1.21835e-05
1.2266e-05
1.23484e-05
1.24143e-05
1.24675e-05
1.24891e-05
1.24894e-05
1.24867e-05
1.24679e-05
1.24801e-05
1.24575e-05
1.2521e-05
1.30588e-05
1.36764e-05
1.56805e-05
1.6773e-05
1.90388e-05
2.15465e-05
2.74133e-05
4.25007e-05
5.77973e-05
8.84379e-05
0.000107261
0.000117136
0.000114827
7.85315e-05
8.03194e-05
0.000113759
7.75305e-05
7.37176e-05
7.12658e-05
6.63994e-05
5.84784e-05
5.70905e-05
5.68305e-05
5.69264e-05
5.67345e-05
5.5957e-05
5.43765e-05
5.2407e-05
5.11818e-05
5.15602e-05
5.22677e-05
5.23897e-05
5.22255e-05
5.19553e-05
5.1543e-05
5.13443e-05
5.13126e-05
5.1333e-05
5.02682e-05
4.79243e-05
4.48783e-05
4.1258e-05
3.7386e-05
3.34497e-05
2.95994e-05
2.62044e-05
2.40488e-05
2.38725e-05
2.49244e-05
2.56555e-05
1.70918e-05
2.54919e-05
2.55702e-05
2.4056e-05
2.25246e-05
1.97931e-05
1.747e-05
1.4505e-05
1.17808e-05
1.0574e-05
9.87743e-06
1.0022e-05
9.93555e-06
9.98611e-06
1.00187e-05
1.02055e-05
1.04368e-05
1.0674e-05
1.0886e-05
1.10695e-05
1.12262e-05
1.13636e-05
1.14834e-05
1.1593e-05
1.16927e-05
1.17875e-05
1.18777e-05
1.19653e-05
1.20505e-05
1.21344e-05
1.22188e-05
1.23045e-05
1.23919e-05
1.2478e-05
1.25672e-05
1.26482e-05
1.27337e-05
1.27961e-05
1.28652e-05
1.2876e-05
1.29029e-05
1.28727e-05
1.28898e-05
1.28383e-05
1.28976e-05
1.28274e-05
1.36857e-05
1.43825e-05
1.70728e-05
1.87894e-05
2.09134e-05
2.41224e-05
3.1806e-05
4.84237e-05
6.78864e-05
9.59206e-05
0.000113811
0.000120286
0.00012005
9.09074e-05
9.63225e-05
0.000108297
8.7058e-05
8.47446e-05
8.07829e-05
7.60178e-05
7.25285e-05
7.12252e-05
6.94159e-05
6.85634e-05
6.77055e-05
6.72663e-05
6.70412e-05
6.66762e-05
6.65289e-05
6.65717e-05
6.6482e-05
6.62354e-05
6.62607e-05
6.62205e-05
6.61415e-05
6.5395e-05
6.37096e-05
6.09633e-05
5.79745e-05
5.4654e-05
5.13033e-05
4.81235e-05
4.50601e-05
4.20616e-05
3.90912e-05
3.56014e-05
3.21562e-05
2.93149e-05
2.78476e-05
2.78411e-05
1.72559e-05
2.13739e-05
2.33666e-05
2.46152e-05
2.22295e-05
2.07817e-05
1.88941e-05
1.66979e-05
1.34753e-05
1.16127e-05
1.09933e-05
1.10282e-05
1.04693e-05
1.00407e-05
9.8029e-06
9.87674e-06
1.01286e-05
1.04485e-05
1.07389e-05
1.09838e-05
1.11832e-05
1.13487e-05
1.14882e-05
1.16122e-05
1.17217e-05
1.18241e-05
1.19196e-05
1.20123e-05
1.21039e-05
1.21956e-05
1.22897e-05
1.23857e-05
1.24828e-05
1.25774e-05
1.26733e-05
1.27602e-05
1.28534e-05
1.29121e-05
1.2999e-05
1.2961e-05
1.30271e-05
1.28609e-05
1.29779e-05
1.26088e-05
1.29461e-05
1.24803e-05
1.40874e-05
1.48612e-05
1.81624e-05
2.05357e-05
2.2436e-05
2.56662e-05
3.2607e-05
4.55778e-05
6.01148e-05
8.86349e-05
0.0001122
0.000124448
0.000126259
0.000100822
0.00011076
0.00010556
9.94716e-05
0.00010071
9.90238e-05
9.66197e-05
9.46893e-05
9.27814e-05
9.11955e-05
8.94229e-05
8.82606e-05
8.67278e-05
8.59643e-05
8.51338e-05
8.4657e-05
8.39691e-05
8.34001e-05
8.28013e-05
8.15859e-05
8.05335e-05
7.85878e-05
7.6538e-05
7.39615e-05
7.10848e-05
6.81018e-05
6.51524e-05
6.25976e-05
6.04525e-05
5.82337e-05
5.59505e-05
5.37561e-05
5.09533e-05
4.73515e-05
4.22375e-05
3.50851e-05
3.23274e-05
1.84494e-05
1.87473e-05
1.82236e-05
2.07396e-05
2.00051e-05
2.03609e-05
1.91659e-05
1.76278e-05
1.43646e-05
1.2262e-05
1.16789e-05
1.18485e-05
1.10828e-05
1.01632e-05
9.65961e-06
9.65496e-06
9.90757e-06
1.02488e-05
1.05824e-05
1.08829e-05
1.11426e-05
1.13685e-05
1.15639e-05
1.17369e-05
1.1891e-05
1.20329e-05
1.21674e-05
1.22979e-05
1.24252e-05
1.25514e-05
1.2679e-05
1.28076e-05
1.29361e-05
1.30602e-05
1.31812e-05
1.32893e-05
1.33998e-05
1.34691e-05
1.35644e-05
1.35092e-05
1.35614e-05
1.33614e-05
1.34826e-05
1.3102e-05
1.343e-05
1.30304e-05
1.47015e-05
1.58056e-05
1.905e-05
2.21906e-05
2.36515e-05
2.69335e-05
3.24307e-05
4.23135e-05
5.68266e-05
9.29109e-05
0.0001249
0.000140283
0.000149658
0.000109299
0.000119675
0.000111094
0.000109447
0.000112481
0.000112084
0.000111216
0.000110798
0.000110254
0.000110082
0.000109681
0.000109429
0.000108778
0.000107797
0.000106891
0.00010586
0.000104539
0.00010296
0.00010083
9.85125e-05
9.60879e-05
9.29495e-05
8.97281e-05
8.58378e-05
8.2075e-05
7.85846e-05
7.57611e-05
7.33392e-05
7.08782e-05
6.97465e-05
6.89021e-05
6.77903e-05
6.61913e-05
6.37155e-05
6.10639e-05
5.66963e-05
5.12312e-05
2.64226e-05
1.7183e-05
1.52532e-05
1.71598e-05
1.78588e-05
1.87282e-05
1.80501e-05
1.70369e-05
1.41732e-05
1.16206e-05
1.06581e-05
1.09317e-05
1.00681e-05
9.01385e-06
8.22371e-06
7.98979e-06
8.12096e-06
8.41409e-06
8.7162e-06
8.99168e-06
9.22256e-06
9.41925e-06
9.58365e-06
9.72605e-06
9.85366e-06
9.97495e-06
1.00978e-05
1.02214e-05
1.03429e-05
1.04642e-05
1.05868e-05
1.07081e-05
1.08265e-05
1.09402e-05
1.10464e-05
1.11406e-05
1.12298e-05
1.12849e-05
1.13528e-05
1.12627e-05
1.12914e-05
1.10539e-05
1.11923e-05
1.08502e-05
1.11836e-05
1.10913e-05
1.24761e-05
1.40142e-05
1.64638e-05
1.93583e-05
2.00737e-05
2.28951e-05
2.76675e-05
3.6148e-05
5.10097e-05
7.42997e-05
0.00010197
0.000118119
0.000142081
9.57556e-05
0.000101387
0.000109862
9.03793e-05
8.89228e-05
8.85696e-05
8.8016e-05
8.81691e-05
8.8555e-05
8.8516e-05
8.88675e-05
8.88113e-05
8.87132e-05
8.79061e-05
8.69621e-05
8.59039e-05
8.45814e-05
8.28843e-05
8.09393e-05
7.81352e-05
7.5325e-05
7.19769e-05
6.8514e-05
6.44505e-05
6.00217e-05
5.50626e-05
4.98971e-05
4.58956e-05
4.2075e-05
3.97611e-05
3.91934e-05
4.00156e-05
4.39598e-05
4.55219e-05
4.53918e-05
4.40268e-05
4.16322e-05
2.21937e-05
1.96035e-05
1.37802e-05
1.53318e-05
1.64878e-05
1.74868e-05
1.72399e-05
1.59852e-05
1.34927e-05
1.09706e-05
9.80023e-06
9.28051e-06
8.42577e-06
7.52254e-06
6.69654e-06
6.40267e-06
6.43451e-06
6.61638e-06
6.8113e-06
7.00186e-06
7.15998e-06
7.29961e-06
7.41716e-06
7.52135e-06
7.61539e-06
7.70383e-06
7.78805e-06
7.87165e-06
7.95724e-06
8.04608e-06
8.13779e-06
8.2299e-06
8.32283e-06
8.41609e-06
8.50393e-06
8.58326e-06
8.65529e-06
8.71093e-06
8.75724e-06
8.7144e-06
8.69399e-06
8.60912e-06
8.67307e-06
8.60948e-06
8.81018e-06
9.08366e-06
1.0102e-05
1.17616e-05
1.33768e-05
1.56004e-05
1.61219e-05
1.84017e-05
2.36229e-05
3.32075e-05
4.89436e-05
6.52717e-05
9.37288e-05
0.000105989
0.000131402
8.44135e-05
8.41124e-05
0.000114796
7.44615e-05
6.84437e-05
6.51267e-05
6.31461e-05
6.26174e-05
6.42075e-05
6.51829e-05
6.66423e-05
6.72421e-05
6.75435e-05
6.69237e-05
6.64816e-05
6.5863e-05
6.47357e-05
6.32086e-05
6.17594e-05
5.963e-05
5.75001e-05
5.50229e-05
5.27801e-05
5.06022e-05
4.85578e-05
4.66023e-05
4.40781e-05
4.01057e-05
3.75305e-05
3.50833e-05
3.03732e-05
2.59262e-05
2.43975e-05
2.44786e-05
2.81801e-05
2.89947e-05
2.87795e-05
1.69343e-05
1.61786e-05
1.25197e-05
1.39088e-05
1.4051e-05
1.52356e-05
1.51969e-05
1.38868e-05
1.17116e-05
9.91623e-06
9.32204e-06
8.53745e-06
7.30316e-06
6.3377e-06
5.61916e-06
5.3134e-06
5.27085e-06
5.34627e-06
5.43875e-06
5.54327e-06
5.63349e-06
5.71746e-06
5.79107e-06
5.85907e-06
5.92244e-06
5.98439e-06
6.04479e-06
6.10471e-06
6.16505e-06
6.22699e-06
6.29117e-06
6.35664e-06
6.42609e-06
6.50051e-06
6.57502e-06
6.64888e-06
6.72184e-06
6.78799e-06
6.84697e-06
6.8883e-06
6.93801e-06
6.98351e-06
7.05105e-06
7.10244e-06
7.2819e-06
7.58798e-06
8.33935e-06
9.67101e-06
1.07701e-05
1.25553e-05
1.32796e-05
1.5126e-05
1.95643e-05
2.82486e-05
4.30205e-05
6.32231e-05
8.7739e-05
0.000109175
0.000124094
8.56745e-05
8.02387e-05
0.000125733
6.7228e-05
5.43059e-05
5.09509e-05
4.71023e-05
4.57056e-05
4.66299e-05
4.80657e-05
4.95595e-05
5.09126e-05
5.15973e-05
5.19478e-05
5.19145e-05
5.1843e-05
5.1398e-05
5.04998e-05
4.94813e-05
4.80402e-05
4.6428e-05
4.47099e-05
4.32172e-05
4.18639e-05
4.08684e-05
4.04954e-05
4.12022e-05
4.13609e-05
4.04173e-05
3.9477e-05
3.77927e-05
3.42334e-05
2.84768e-05
2.06491e-05
1.70461e-05
1.91464e-05
1.95241e-05
1.28821e-05
1.25216e-05
1.17826e-05
1.28918e-05
1.29998e-05
1.32788e-05
1.27854e-05
1.06757e-05
9.53506e-06
9.02631e-06
8.95216e-06
8.3622e-06
7.30322e-06
6.07204e-06
5.3226e-06
4.98606e-06
4.86037e-06
4.85359e-06
4.89126e-06
4.96017e-06
5.02255e-06
5.09081e-06
5.15008e-06
5.20828e-06
5.26087e-06
5.31381e-06
5.36471e-06
5.41586e-06
5.47223e-06
5.53848e-06
5.6119e-06
5.68222e-06
5.74953e-06
5.82341e-06
5.90026e-06
5.97079e-06
6.03528e-06
6.08316e-06
6.12577e-06
6.13154e-06
6.172e-06
6.17541e-06
6.28638e-06
6.29245e-06
6.49883e-06
6.66888e-06
7.20854e-06
8.21503e-06
9.14763e-06
1.06388e-05
1.14462e-05
1.31048e-05
1.74456e-05
2.55268e-05
4.0002e-05
6.33527e-05
8.30182e-05
9.55192e-05
0.000116565
9.59528e-05
8.30244e-05
0.000127569
6.49092e-05
5.08471e-05
5.53947e-05
5.26953e-05
4.97948e-05
4.95959e-05
4.90695e-05
4.69109e-05
4.17774e-05
3.91106e-05
3.88536e-05
3.91028e-05
3.90257e-05
3.87082e-05
3.81266e-05
3.74557e-05
3.6752e-05
3.60835e-05
3.5419e-05
3.55961e-05
3.6088e-05
3.69013e-05
3.79803e-05
3.96337e-05
4.12174e-05
4.1608e-05
4.13673e-05
4.05186e-05
3.8772e-05
3.58554e-05
3.00639e-05
1.71477e-05
1.35799e-05
1.44374e-05
1.04399e-05
1.20753e-05
1.09349e-05
1.17214e-05
1.16796e-05
1.11433e-05
1.03051e-05
8.78057e-06
8.50332e-06
8.46339e-06
8.50362e-06
7.93102e-06
6.97177e-06
5.90484e-06
5.30546e-06
5.03894e-06
4.91683e-06
4.8836e-06
4.88123e-06
4.90013e-06
4.9177e-06
4.94174e-06
4.96887e-06
5.00012e-06
5.02915e-06
5.06087e-06
5.09401e-06
5.12998e-06
5.16743e-06
5.20521e-06
5.2392e-06
5.27579e-06
5.33197e-06
5.39076e-06
5.44869e-06
5.50172e-06
5.55091e-06
5.59367e-06
5.63152e-06
5.65281e-06
5.70139e-06
5.76353e-06
5.83684e-06
5.88129e-06
6.00286e-06
6.17913e-06
6.43759e-06
7.11933e-06
7.8828e-06
9.02388e-06
1.00046e-05
1.18406e-05
1.62286e-05
2.22508e-05
3.29723e-05
5.04746e-05
6.52285e-05
8.73645e-05
0.000108435
0.000111418
9.49275e-05
0.000138189
6.69475e-05
5.42674e-05
5.77314e-05
6.40501e-05
6.2361e-05
6.03102e-05
5.86041e-05
5.69364e-05
5.44633e-05
5.22924e-05
5.02581e-05
4.83958e-05
4.64492e-05
4.44397e-05
4.22887e-05
4.04078e-05
3.92624e-05
3.88108e-05
3.8833e-05
3.90661e-05
3.94365e-05
3.98158e-05
4.02078e-05
4.07395e-05
4.14585e-05
4.16021e-05
4.139e-05
4.06859e-05
3.90255e-05
3.6355e-05
3.30093e-05
2.52677e-05
1.32087e-05
1.12703e-05
8.72761e-06
1.09476e-05
1.02073e-05
1.05163e-05
1.03253e-05
9.12893e-06
8.40537e-06
7.55379e-06
7.5591e-06
7.54481e-06
7.54314e-06
7.04668e-06
6.03322e-06
5.23176e-06
4.81147e-06
4.62166e-06
4.53882e-06
4.51369e-06
4.50969e-06
4.5244e-06
4.53974e-06
4.55936e-06
4.57244e-06
4.59164e-06
4.61337e-06
4.63862e-06
4.66669e-06
4.69707e-06
4.72458e-06
4.74372e-06
4.76262e-06
4.80317e-06
4.85718e-06
4.91121e-06
4.96441e-06
5.01308e-06
5.05712e-06
5.09781e-06
5.13775e-06
5.16701e-06
5.1912e-06
5.22657e-06
5.28129e-06
5.35552e-06
5.4195e-06
5.58001e-06
5.77276e-06
6.30873e-06
6.99278e-06
7.94397e-06
8.93738e-06
1.07368e-05
1.50506e-05
2.21272e-05
3.2683e-05
4.17266e-05
5.68766e-05
8.38606e-05
0.000105882
0.00011709
0.000103225
0.000139844
7.27075e-05
7.71233e-05
7.167e-05
7.00821e-05
6.71884e-05
6.41651e-05
6.18762e-05
6.00095e-05
5.83007e-05
5.66527e-05
5.51521e-05
5.37917e-05
5.23942e-05
5.10247e-05
4.96302e-05
4.829e-05
4.7077e-05
4.60049e-05
4.50746e-05
4.42415e-05
4.35108e-05
4.27973e-05
4.20823e-05
4.14479e-05
4.10523e-05
4.06886e-05
4.00293e-05
3.9056e-05
3.74715e-05
3.4988e-05
3.20732e-05
2.63721e-05
1.57571e-05
1.01772e-05
7.68392e-06
9.0599e-06
9.29602e-06
9.06376e-06
8.72127e-06
7.33993e-06
6.80682e-06
6.12119e-06
5.9899e-06
5.87817e-06
5.84712e-06
5.40479e-06
4.76344e-06
4.42314e-06
4.24947e-06
4.16508e-06
4.13169e-06
4.12522e-06
4.13245e-06
4.15188e-06
4.17278e-06
4.19909e-06
4.22311e-06
4.24897e-06
4.27596e-06
4.30481e-06
4.33491e-06
4.36569e-06
4.39462e-06
4.41809e-06
4.43759e-06
4.46964e-06
4.51515e-06
4.56297e-06
4.61101e-06
4.65541e-06
4.69471e-06
4.73084e-06
4.76642e-06
4.79415e-06
4.81328e-06
4.84248e-06
4.88656e-06
4.95166e-06
5.00433e-06
5.14347e-06
5.31733e-06
5.79309e-06
6.4518e-06
7.35271e-06
8.26747e-06
9.57806e-06
1.25856e-05
1.82993e-05
2.7031e-05
3.75316e-05
5.26106e-05
8.2426e-05
0.000106627
0.000125956
0.000112579
0.000147352
8.71173e-05
8.4679e-05
7.01567e-05
6.70869e-05
6.64261e-05
6.49531e-05
6.34066e-05
6.1858e-05
6.02788e-05
5.87026e-05
5.71326e-05
5.55932e-05
5.40413e-05
5.25001e-05
5.09064e-05
4.93522e-05
4.78784e-05
4.65242e-05
4.52709e-05
4.40925e-05
4.29814e-05
4.18739e-05
4.07901e-05
3.97637e-05
3.89255e-05
3.81816e-05
3.73548e-05
3.63382e-05
3.4773e-05
3.25456e-05
2.99002e-05
2.49798e-05
1.53065e-05
9.36453e-06
7.11209e-06
8.19246e-06
8.17483e-06
7.4763e-06
7.08149e-06
5.978e-06
5.63601e-06
4.95577e-06
4.73716e-06
4.44424e-06
4.33785e-06
4.02746e-06
3.76161e-06
3.62476e-06
3.55777e-06
3.52524e-06
3.51547e-06
3.51686e-06
3.52715e-06
3.54328e-06
3.56152e-06
3.5838e-06
3.60644e-06
3.63061e-06
3.65546e-06
3.68128e-06
3.70796e-06
3.73533e-06
3.76337e-06
3.79137e-06
3.81741e-06
3.84169e-06
3.86998e-06
3.9015e-06
3.9349e-06
3.96729e-06
3.99646e-06
4.02315e-06
4.0497e-06
4.0734e-06
4.08911e-06
4.11191e-06
4.13748e-06
4.18559e-06
4.2192e-06
4.32282e-06
4.45815e-06
4.85039e-06
5.50911e-06
6.32681e-06
7.13756e-06
7.89802e-06
9.54223e-06
1.27781e-05
1.72394e-05
2.64092e-05
3.97172e-05
5.65362e-05
6.86123e-05
9.11396e-05
0.000104198
0.000155663
0.00012127
0.000104827
8.99874e-05
8.01306e-05
7.36172e-05
6.88687e-05
6.52178e-05
6.22168e-05
5.96299e-05
5.73104e-05
5.51883e-05
5.32184e-05
5.13406e-05
4.95507e-05
4.77931e-05
4.61139e-05
4.451e-05
4.30342e-05
4.16663e-05
4.03878e-05
3.91887e-05
3.79927e-05
3.68459e-05
3.57428e-05
3.47421e-05
3.39157e-05
3.29929e-05
3.20732e-05
3.04474e-05
2.84793e-05
2.55882e-05
1.92588e-05
1.05902e-05
6.98229e-06
6.42278e-06
1.27247e-05
1.19383e-05
9.97847e-06
1.045e-05
1.04107e-05
1.08739e-05
1.08708e-05
1.06759e-05
9.29308e-06
8.06674e-06
7.80822e-06
8.17024e-06
8.34842e-06
8.43873e-06
8.21858e-06
7.98393e-06
7.68252e-06
7.50125e-06
7.36006e-06
7.28128e-06
7.21436e-06
7.18743e-06
7.16943e-06
7.17185e-06
7.18075e-06
7.19759e-06
7.21831e-06
7.24202e-06
7.26744e-06
7.29346e-06
7.32123e-06
7.34569e-06
7.38132e-06
7.39736e-06
7.45663e-06
7.44505e-06
7.54614e-06
7.47197e-06
7.64021e-06
7.48535e-06
7.80548e-06
7.583e-06
8.14758e-06
7.83483e-06
8.78125e-06
8.35169e-06
9.2056e-06
8.69455e-06
8.4791e-06
9.62371e-06
1.28576e-05
1.67047e-05
2.01853e-05
2.35338e-05
3.37723e-05
4.44741e-05
5.60918e-05
6.50632e-05
7.36421e-05
9.05525e-05
0.000130293
0.000107752
0.00010004
9.36451e-05
8.80517e-05
8.41695e-05
8.12392e-05
7.87604e-05
7.64314e-05
7.42876e-05
7.22406e-05
7.02806e-05
6.83942e-05
6.6534e-05
6.46751e-05
6.27697e-05
6.07248e-05
5.85874e-05
5.62205e-05
5.37111e-05
5.10687e-05
4.82555e-05
4.52205e-05
4.21477e-05
3.8992e-05
3.56321e-05
3.21262e-05
2.86064e-05
2.55999e-05
2.2466e-05
1.90242e-05
1.23107e-05
9.29063e-06
1.07441e-05
1.4597e-05
1.55984e-05
4.64671e-05
4.1096e-05
3.18478e-05
3.17996e-05
3.09906e-05
3.08624e-05
3.33646e-05
3.34279e-05
3.29513e-05
3.12945e-05
3.02317e-05
2.9812e-05
2.95388e-05
2.94091e-05
2.92155e-05
2.90672e-05
2.88151e-05
2.84491e-05
2.80038e-05
2.77143e-05
2.74952e-05
2.73991e-05
2.7355e-05
2.73767e-05
2.74289e-05
2.75093e-05
2.76048e-05
2.77125e-05
2.78275e-05
2.79456e-05
2.80686e-05
2.81895e-05
2.83376e-05
2.84507e-05
2.86661e-05
2.871e-05
2.90038e-05
2.88438e-05
2.92626e-05
2.88809e-05
2.97198e-05
2.92547e-05
3.07257e-05
3.02601e-05
3.2255e-05
3.31077e-05
3.58382e-05
3.53644e-05
3.26057e-05
3.51109e-05
4.10163e-05
5.86663e-05
7.9479e-05
9.07255e-05
0.000142168
0.000179215
0.000305444
0.000391878
0.000604895
0.00055949
3.03824e-05
3.61107e-05
9.88672e-05
0.000106376
0.000112656
0.000112568
0.000110814
0.000108
0.000105639
0.000103932
0.000102586
0.000102785
0.000102872
0.000102026
0.000100384
9.74894e-05
9.29949e-05
8.79667e-05
8.16154e-05
7.55641e-05
6.9653e-05
6.39547e-05
5.9269e-05
5.56261e-05
5.14458e-05
4.76685e-05
4.62957e-05
4.66606e-05
4.76408e-05
4.63607e-05
4.13894e-05
3.13014e-05
1.85327e-05
1.92656e-05
2.14452e-05
1.665e-05
5.57829e-05
4.77322e-05
3.45628e-05
3.38955e-05
3.25628e-05
3.0598e-05
3.5267e-05
3.53125e-05
3.80724e-05
3.77409e-05
3.64129e-05
3.5074e-05
3.38696e-05
3.31502e-05
3.2798e-05
3.30032e-05
3.34307e-05
3.37977e-05
3.40022e-05
3.41288e-05
3.42272e-05
3.43289e-05
3.44416e-05
3.45651e-05
3.46952e-05
3.48296e-05
3.49672e-05
3.51084e-05
3.52505e-05
3.53906e-05
3.55302e-05
3.56722e-05
3.58185e-05
3.59718e-05
3.61353e-05
3.62642e-05
3.63825e-05
3.63535e-05
3.64062e-05
3.61558e-05
3.6242e-05
3.59733e-05
3.60737e-05
3.60225e-05
3.68138e-05
3.89922e-05
4.234e-05
4.5149e-05
4.7144e-05
5.05631e-05
5.66448e-05
7.20752e-05
9.74867e-05
0.000115811
0.000160977
0.000168397
0.000298433
0.000358263
0.00046829
0.000345636
2.9275e-05
0.000108184
0.000184633
0.000149808
0.000141681
0.000131287
0.000124099
0.000120732
0.000122391
0.000124338
0.000128314
0.000133029
0.000134646
0.000134646
0.0001329
0.000125864
0.00011775
0.000109291
0.000103899
9.85735e-05
8.86639e-05
7.43102e-05
6.87767e-05
6.80553e-05
6.91672e-05
7.23546e-05
7.67339e-05
8.09677e-05
7.68248e-05
7.20631e-05
6.64608e-05
5.75148e-05
4.5079e-05
3.88901e-05
3.50939e-05
1.81855e-05
7.35783e-05
6.02512e-05
4.22291e-05
4.37056e-05
3.61989e-05
3.00782e-05
3.33954e-05
3.41254e-05
3.96795e-05
4.02202e-05
3.90796e-05
3.69934e-05
3.50936e-05
3.38694e-05
3.33205e-05
3.35914e-05
3.43079e-05
3.50116e-05
3.56404e-05
3.60953e-05
3.63997e-05
3.66061e-05
3.67778e-05
3.69277e-05
3.7071e-05
3.72101e-05
3.73477e-05
3.74833e-05
3.7619e-05
3.77575e-05
3.79022e-05
3.80527e-05
3.82002e-05
3.83646e-05
3.85284e-05
3.86782e-05
3.8777e-05
3.87212e-05
3.8643e-05
3.82847e-05
3.7943e-05
3.76944e-05
3.71865e-05
3.7327e-05
3.73822e-05
4.05998e-05
4.40606e-05
4.98657e-05
5.41999e-05
5.94594e-05
6.59114e-05
7.59925e-05
0.00010039
0.000119862
0.000167305
0.000212201
0.000287087
0.000317506
0.000210264
0.000119392
2.86766e-05
0.000124423
0.000180621
0.000151947
0.000147057
0.000132533
0.000130553
0.000132338
0.00013583
0.000139008
0.000141087
0.000139789
0.000135883
0.000131893
0.000126349
0.000122318
0.000116454
0.000106102
9.50207e-05
8.95739e-05
8.77442e-05
8.81513e-05
9.2684e-05
9.88153e-05
0.000102094
9.96215e-05
9.53752e-05
8.9402e-05
8.22995e-05
7.60143e-05
7.03807e-05
6.22639e-05
5.42772e-05
4.75999e-05
4.2171e-05
1.91476e-05
9.14886e-05
7.49987e-05
6.00286e-05
5.72882e-05
4.89005e-05
4.24715e-05
3.91404e-05
3.70906e-05
4.19054e-05
4.2347e-05
4.12584e-05
3.81809e-05
3.50939e-05
3.25069e-05
3.16839e-05
3.17898e-05
3.25184e-05
3.33234e-05
3.40685e-05
3.46918e-05
3.5212e-05
3.55885e-05
3.58834e-05
3.61163e-05
3.63174e-05
3.64937e-05
3.66561e-05
3.68043e-05
3.69463e-05
3.70954e-05
3.72472e-05
3.73925e-05
3.75184e-05
3.76253e-05
3.76899e-05
3.77409e-05
3.76852e-05
3.76463e-05
3.72302e-05
3.70998e-05
3.63236e-05
3.6279e-05
3.51494e-05
3.58136e-05
3.48583e-05
3.9171e-05
4.2136e-05
5.0749e-05
5.71507e-05
6.3623e-05
6.9373e-05
7.70617e-05
9.72012e-05
0.000144687
0.000201086
0.000258987
0.000265784
0.000246788
7.1627e-05
6.01165e-05
2.6919e-05
0.000135027
0.00018725
0.000163285
0.000164731
0.000157403
0.000154302
0.000144307
0.000140427
0.000137157
0.000132202
0.000124418
0.000117815
0.000116939
0.000119075
0.000119534
0.000116001
0.000111408
0.000110241
0.00011203
0.000117123
0.000122565
0.000120227
0.00011477
0.000106429
9.7035e-05
8.75121e-05
7.80355e-05
7.03374e-05
6.51881e-05
6.14236e-05
5.75097e-05
5.28301e-05
4.6819e-05
4.2482e-05
1.95858e-05
0.0001033
7.9261e-05
6.98051e-05
5.99502e-05
5.36734e-05
5.02859e-05
4.71733e-05
4.28799e-05
4.51106e-05
4.30664e-05
4.16862e-05
3.84769e-05
3.49064e-05
3.19719e-05
3.10471e-05
3.10554e-05
3.14549e-05
3.19159e-05
3.23423e-05
3.27211e-05
3.30792e-05
3.34019e-05
3.36604e-05
3.3861e-05
3.4033e-05
3.41815e-05
3.43152e-05
3.44351e-05
3.45507e-05
3.46772e-05
3.4805e-05
3.4923e-05
3.50173e-05
3.508e-05
3.50889e-05
3.50898e-05
3.49855e-05
3.49218e-05
3.45818e-05
3.43436e-05
3.3958e-05
3.36115e-05
3.34183e-05
3.32608e-05
3.35599e-05
3.61316e-05
3.9178e-05
4.78929e-05
5.62549e-05
6.16789e-05
6.75094e-05
7.43499e-05
8.87901e-05
0.000151618
0.00020629
0.000224861
0.00021519
0.000197447
3.51894e-05
4.02776e-05
3.90003e-05
0.000165628
0.000207649
0.000189575
0.000185211
0.000174238
0.000169267
0.000163674
0.000160274
0.000157258
0.000155178
0.00015339
0.000151162
0.000148754
0.000146895
0.000145668
0.000145182
0.000145338
0.000145885
0.00014174
0.000134257
0.000125253
0.000113484
9.92425e-05
8.50512e-05
7.37785e-05
6.47604e-05
5.75749e-05
5.2665e-05
4.87918e-05
4.49516e-05
4.14244e-05
4.1671e-05
3.98241e-05
3.76014e-05
1.97543e-05
9.00224e-05
7.48129e-05
6.87759e-05
5.93661e-05
5.14135e-05
5.05619e-05
4.86827e-05
4.71607e-05
4.57176e-05
4.31282e-05
4.15306e-05
3.8352e-05
3.44447e-05
3.01936e-05
2.79757e-05
2.77903e-05
2.85185e-05
2.94433e-05
3.03156e-05
3.10154e-05
3.155e-05
3.19408e-05
3.22359e-05
3.24541e-05
3.26328e-05
3.27802e-05
3.29054e-05
3.30128e-05
3.31133e-05
3.32224e-05
3.3326e-05
3.34141e-05
3.34748e-05
3.34868e-05
3.34279e-05
3.33645e-05
3.31599e-05
3.31101e-05
3.24681e-05
3.24008e-05
3.09949e-05
3.13272e-05
2.90113e-05
3.05598e-05
2.82616e-05
3.39123e-05
3.68411e-05
4.61056e-05
5.38467e-05
6.00114e-05
6.59555e-05
7.2731e-05
8.3145e-05
0.000117396
0.000179336
0.000192339
0.000175643
0.000154047
3.76971e-05
4.63356e-05
5.83e-05
0.000186875
0.000219224
0.000216437
0.000209879
0.000201523
0.000195633
0.000190921
0.000187429
0.00018494
0.000182322
0.000179042
0.000175782
0.000174121
0.000170616
0.000166077
0.000161919
0.000155332
0.000148679
0.000140492
0.000131517
0.00012274
0.00011303
0.000103357
9.39152e-05
8.4305e-05
7.60156e-05
6.97663e-05
6.28802e-05
5.77252e-05
5.26048e-05
4.80672e-05
4.30634e-05
3.00819e-05
3.31077e-05
2.17411e-05
8.14546e-05
5.32987e-05
5.58945e-05
4.71154e-05
4.03286e-05
4.27058e-05
4.57176e-05
4.71909e-05
4.4773e-05
4.14347e-05
4.00377e-05
3.5909e-05
3.01487e-05
2.53024e-05
2.32063e-05
2.26903e-05
2.28411e-05
2.32475e-05
2.37275e-05
2.41653e-05
2.45412e-05
2.48213e-05
2.50297e-05
2.5174e-05
2.52779e-05
2.53542e-05
2.54155e-05
2.54737e-05
2.55388e-05
2.56092e-05
2.56596e-05
2.56947e-05
2.57116e-05
2.56744e-05
2.55623e-05
2.54443e-05
2.51868e-05
2.50262e-05
2.44277e-05
2.41813e-05
2.3113e-05
2.31829e-05
2.19063e-05
2.2613e-05
2.16741e-05
2.47299e-05
2.89789e-05
3.60142e-05
4.68811e-05
4.90601e-05
5.7524e-05
7.00402e-05
8.47595e-05
0.000108348
0.000167382
0.00019696
0.000226378
0.000231587
4.2643e-05
5.18239e-05
6.66051e-05
0.000195583
0.000229343
0.000229914
0.000225563
0.000216796
0.000212864
0.000206991
0.000203777
0.000199674
0.000197019
0.000192278
0.000188786
0.000184298
0.000179167
0.000173779
0.000168142
0.000162373
0.000157175
0.000152369
0.000147779
0.000143049
0.000137364
0.000129686
0.000120309
0.000108075
9.59551e-05
8.51349e-05
7.62625e-05
7.01675e-05
6.55017e-05
6.51627e-05
6.56303e-05
6.95939e-05
8.14596e-05
6.674e-05
6.98914e-05
4.23731e-05
4.17983e-05
3.70538e-05
3.6845e-05
3.71265e-05
3.82819e-05
4.17324e-05
4.0888e-05
3.72289e-05
3.51955e-05
3.11743e-05
2.61061e-05
2.08578e-05
1.80582e-05
1.72257e-05
1.731e-05
1.76484e-05
1.8016e-05
1.8294e-05
1.85089e-05
1.8635e-05
1.87205e-05
1.87698e-05
1.88138e-05
1.88155e-05
1.88019e-05
1.88155e-05
1.8868e-05
1.89386e-05
1.89759e-05
1.89968e-05
1.90187e-05
1.89891e-05
1.88788e-05
1.87418e-05
1.84981e-05
1.83474e-05
1.78241e-05
1.77254e-05
1.67875e-05
1.70985e-05
1.59988e-05
1.68639e-05
1.63868e-05
1.84094e-05
2.22817e-05
2.73024e-05
3.67783e-05
3.66019e-05
4.27587e-05
6.15858e-05
8.43636e-05
0.000115919
0.000165393
0.000192269
0.000253039
0.000266166
4.84024e-05
4.83381e-05
4.51226e-05
0.000141288
0.000182995
0.00017697
0.000178937
0.000174756
0.000172195
0.000169522
0.0001655
0.000160593
0.000155352
0.000150361
0.000146572
0.000143042
0.000139981
0.000137105
0.000133785
0.000129472
0.000124887
0.000120898
0.000118702
0.000117094
0.000116219
0.000115504
0.000115294
0.000110252
0.000100705
8.69293e-05
6.45519e-05
4.97657e-05
4.17432e-05
3.29097e-05
2.53556e-05
2.34468e-05
2.77537e-05
2.02975e-05
5.60943e-05
3.55991e-05
3.86448e-05
3.57161e-05
3.59164e-05
3.58465e-05
3.64082e-05
3.66881e-05
3.2667e-05
3.25419e-05
3.11231e-05
2.72271e-05
2.21082e-05
1.74489e-05
1.5204e-05
1.44933e-05
1.42999e-05
1.42611e-05
1.43078e-05
1.43258e-05
1.43445e-05
1.43177e-05
1.42793e-05
1.42015e-05
1.41247e-05
1.40421e-05
1.39796e-05
1.39701e-05
1.39957e-05
1.40302e-05
1.40453e-05
1.40977e-05
1.41853e-05
1.42593e-05
1.42826e-05
1.42772e-05
1.42118e-05
1.41564e-05
1.39918e-05
1.40212e-05
1.38514e-05
1.40136e-05
1.37887e-05
1.40599e-05
1.40918e-05
1.46114e-05
1.68357e-05
1.99265e-05
2.65543e-05
2.6231e-05
3.12115e-05
5.13321e-05
8.01286e-05