/*--------------------------------*- C++ -*----------------------------------*\
| =========                 |                                                 |
| \\      /  F ield         | OpenFOAM: The Open Source CFD Toolbox           |
|  \\    /   O peration     | Version:  2.3.0                                 |
|   \\  /    A nd           | Web:      www.OpenFOAM.org                      |
|    \\/     M anipulation  |                                                 |
\*---------------------------------------------------------------------------*/
FoamFile
{
    version     2.0;
    format      ascii;
    class       surfaceScalarField;
    location    "14";
    object      phi;
}
// * * * * * * * * * * * * * * * * * * * * * * * * * * * * * * * * * * * * * //

dimensions      [0 3 -1 0 0 0 0];

internalField   nonuniform List<scalar> 
16448
(
-1.0572e-06
-1.90661e-06
5.09993e-07
5.55405e-07
-2.10494e-06
4.92329e-07
6.70994e-07
-6.44491e-07
5.28903e-07
1.10094e-06
-9.94664e-07
5.64721e-07
1.00577e-06
-3.3403e-07
4.29193e-07
1.02735e-06
-4.66902e-07
4.45327e-07
8.52387e-07
-2.73851e-07
4.48815e-07
7.19246e-07
-3.41929e-07
4.7507e-07
4.5484e-07
-3.15347e-07
5.79752e-07
1.90769e-07
-3.48339e-07
6.12409e-07
-4.10067e-08
-3.85516e-07
6.17289e-07
-1.5655e-07
-4.64685e-07
5.80227e-07
-1.79985e-07
-5.40976e-07
5.64409e-07
-1.44018e-07
-5.96133e-07
5.60164e-07
-9.77197e-08
-6.26818e-07
5.80518e-07
-5.07261e-08
-6.45493e-07
5.98497e-07
-1.63559e-08
-6.5615e-07
6.21777e-07
9.32212e-09
-6.63291e-07
6.3761e-07
2.48264e-08
-6.68207e-07
6.52698e-07
3.46755e-08
-6.72133e-07
6.6228e-07
3.88022e-08
-6.74575e-07
6.70444e-07
4.06454e-08
-6.77059e-07
6.75212e-07
3.98998e-08
-6.78295e-07
6.79035e-07
3.8321e-08
-6.79537e-07
6.81111e-07
3.58274e-08
-6.80113e-07
6.826e-07
3.30912e-08
-6.80522e-07
6.83252e-07
3.01069e-08
-6.80579e-07
6.83557e-07
2.70302e-08
-6.80449e-07
6.83519e-07
2.38273e-08
-6.80139e-07
6.83334e-07
2.0426e-08
-6.79553e-07
6.82946e-07
1.72434e-08
-6.79348e-07
6.82521e-07
1.2417e-08
-6.77339e-07
6.82155e-07
1.02768e-08
-6.79051e-07
6.81181e-07
1.80875e-09
-6.72967e-07
6.81423e-07
3.30461e-09
-6.79833e-07
6.78324e-07
-1.05939e-08
-6.66159e-07
6.80043e-07
-3.45548e-09
-6.80583e-07
6.73429e-07
-2.48604e-08
-6.56662e-07
6.78051e-07
-1.08938e-08
-6.79323e-07
6.65339e-07
-4.08132e-08
-6.43879e-07
6.73779e-07
-1.27616e-08
-6.76241e-07
6.48169e-07
-4.73641e-08
-6.28229e-07
6.62809e-07
4.46341e-09
-6.70329e-07
6.18478e-07
-2.63231e-08
-6.10012e-07
6.40772e-07
2.53936e-08
-6.43347e-07
5.91603e-07
-2.34509e-09
-5.84507e-07
6.12216e-07
-1.08161e-07
-5.10336e-07
6.16121e-07
-2.68803e-07
-4.95622e-07
6.5623e-07
-8.06992e-07
-2.44554e-07
7.8271e-07
-1.04585e-06
-5.19249e-07
7.58071e-07
-7.59521e-07
-1.07787e-06
7.91508e-07
-8.60127e-08
-1.61487e-06
9.41327e-07
9.57453e-08
-1.45642e-06
1.27462e-06
-1.2061e-06
-1.93495e-07
1.4953e-06
-1.7024e-06
-1.21653e-06
1.7128e-06
-2.19513e-06
-2.46834e-06
2.96104e-06
-2.24951e-06
8.80882e-07
-8.26533e-07
-4.12832e-06
1.00392e-06
8.74862e-07
-9.23328e-06
3.47721e-06
1.62778e-06
-5.09252e-08
-2.1516e-05
1.23337e-05
1.98729e-05
-2.60514e-05
6.12755e-06
2.65903e-05
-1.04504e-05
3.73304e-06
2.58871e-05
-6.31754e-07
1.3349e-06
2.81853e-05
-2.55939e-06
2.61205e-07
3.02246e-05
-1.47931e-06
-5.59937e-07
3.16274e-05
-1.98527e-07
-1.20435e-06
3.24648e-05
6.68292e-07
-1.50567e-06
3.30213e-05
1.07516e-06
-1.63165e-06
3.33605e-05
1.2759e-06
-1.61514e-06
3.34649e-05
1.42353e-06
-1.52794e-06
3.33213e-05
1.54722e-06
-1.40356e-06
3.29548e-05
1.61085e-06
-1.24441e-06
3.2379e-05
1.64533e-06
-1.06953e-06
3.16333e-05
1.62824e-06
-8.82494e-07
3.06607e-05
1.65528e-06
-6.82695e-07
2.94611e-05
1.70124e-06
-5.01623e-07
2.79487e-05
1.79127e-06
-2.78917e-07
2.60869e-05
1.92964e-06
-6.7876e-08
2.41034e-05
1.7872e-06
1.96331e-07
2.19871e-05
1.63408e-06
4.8224e-07
1.96433e-05
1.574e-06
7.69746e-07
1.72859e-05
1.26873e-06
1.0887e-06
1.49695e-05
9.09997e-07
1.40639e-06
1.2581e-05
7.49937e-07
1.63852e-06
1.01181e-05
5.8154e-07
1.88143e-06
7.64263e-06
4.66212e-07
2.00922e-06
5.25928e-06
5.35957e-07
1.84739e-06
3.03713e-06
7.67775e-07
1.45438e-06
8.79409e-07
1.09669e-06
1.06103e-06
-1.46739e-06
1.53467e-06
8.12129e-07
-3.22413e-06
9.81245e-07
7.75496e-07
-4.37789e-06
-2.95326e-07
1.44909e-06
-5.55837e-06
-6.2932e-07
1.8098e-06
-5.9581e-06
-2.35312e-07
6.35048e-07
-4.30279e-06
4.45735e-07
-2.10105e-06
-1.38765e-07
-4.16403e-06
-1.73719e-06
-2.96358e-06
3.23888e-08
-2.70449e-07
-3.3911e-06
-1.80569e-07
2.46752e-08
-1.14997e-06
2.10357e-07
4.90773e-07
-1.75664e-06
2.95881e-07
4.76774e-07
-4.16199e-07
9.61733e-08
4.54109e-07
-6.35293e-07
1.91062e-07
3.50286e-07
-2.1373e-07
4.37063e-08
2.28571e-07
-3.3009e-07
1.0988e-07
8.70983e-08
-2.79529e-07
1.05656e-07
-1.11387e-07
-3.0763e-07
1.57778e-07
-2.83193e-07
-3.6224e-07
1.48529e-07
-3.50046e-07
-5.0149e-07
1.03659e-07
-3.31275e-07
-6.31715e-07
7.19684e-08
-2.60487e-07
-7.25263e-07
5.83432e-08
-1.88902e-07
-7.67159e-07
6.87563e-08
-1.24019e-07
-7.90361e-07
7.99832e-08
-7.78154e-08
-7.97021e-07
9.46649e-08
-4.39737e-08
-8.02187e-07
1.05051e-07
-2.3476e-08
-8.03131e-07
1.14422e-07
-1.10465e-08
-8.04688e-07
1.20121e-07
-5.09635e-09
-8.04972e-07
1.24441e-07
-3.12297e-09
-8.05728e-07
1.26689e-07
-3.8684e-09
-8.05668e-07
1.28111e-07
-6.32462e-09
-8.05626e-07
1.28537e-07
-9.75326e-09
-8.0517e-07
1.28478e-07
-1.36815e-08
-8.04523e-07
1.2792e-07
-1.79079e-08
-8.03538e-07
1.27174e-07
-2.22623e-08
-8.02337e-07
1.26231e-07
-2.67277e-08
-8.00918e-07
1.2523e-07
-3.12751e-08
-7.99239e-07
1.24219e-07
-3.60453e-08
-7.97775e-07
1.23181e-07
-4.13757e-08
-7.9442e-07
1.22394e-07
-4.66249e-08
-7.95122e-07
1.21301e-07
-5.37278e-08
-7.86849e-07
1.20964e-07
-5.75259e-08
-7.94379e-07
1.18321e-07
-6.81514e-08
-7.74957e-07
1.19398e-07
-6.7601e-08
-7.95266e-07
1.14105e-07
-8.42109e-08
-7.58059e-07
1.17976e-07
-7.57452e-08
-7.95149e-07
1.07327e-07
-1.00862e-07
-7.34999e-07
1.162e-07
-7.48008e-08
-7.96414e-07
9.40722e-08
-1.0604e-07
-7.08548e-07
1.11516e-07
-4.19989e-08
-8.05645e-07
7.12293e-08
-7.4672e-08
-6.79321e-07
1.01933e-07
2.7879e-08
-7.97673e-07
5.17215e-08
-9.61897e-09
-6.36934e-07
8.98687e-08
9.88782e-09
-6.22088e-07
9.21853e-08
-9.52216e-08
-5.07993e-07
1.17417e-07
-5.45895e-07
-1.29339e-07
3.35391e-07
-5.5356e-07
-6.88529e-07
1.76875e-07
-7.56403e-07
-1.29273e-06
4.17623e-07
-8.38572e-07
-2.09882e-06
5.66043e-07
-7.64928e-07
-1.82216e-06
2.92028e-07
-2.14956e-06
6.19724e-07
5.71344e-07
-6.25334e-07
-2.88772e-06
1.46905e-07
1.6084e-06
-5.71755e-06
1.01541e-06
-2.06952e-06
7.65221e-06
-3.09346e-06
-8.97213e-06
8.50807e-06
-6.0159e-07
-6.28819e-06
6.65931e-06
-5.86602e-06
-2.93835e-07
-3.17853e-05
4.27489e-06
3.78783e-06
-3.72143e-05
7.08128e-06
4.93696e-06
-1.35026e-05
1.90309e-06
1.44728e-05
-6.87192e-06
-3.29567e-06
1.82754e-05
-3.09554e-06
-3.2665e-06
2.08467e-05
-5.3121e-07
-3.5194e-06
2.35192e-05
1.03322e-06
-3.90427e-06
2.6004e-05
1.95944e-06
-3.77586e-06
2.79134e-05
2.60426e-06
-3.43858e-06
2.92265e-05
3.00893e-06
-3.04612e-06
3.00382e-05
3.22256e-06
-2.61074e-06
3.04652e-05
3.31448e-06
-2.19426e-06
3.05483e-05
3.34861e-06
-1.82082e-06
3.0399e-05
3.29748e-06
-1.5029e-06
3.00404e-05
3.15956e-06
-1.17268e-06
2.9407e-05
3.12244e-06
-8.33777e-07
2.84855e-05
3.10093e-06
-4.78262e-07
2.70999e-05
3.29114e-06
-1.1428e-07
2.52226e-05
3.68278e-06
1.24188e-07
2.3183e-05
3.44058e-06
3.86235e-07
2.11201e-05
2.97356e-06
7.23368e-07
1.89312e-05
2.71095e-06
1.05204e-06
1.63269e-05
2.49232e-06
1.3807e-06
1.32985e-05
2.46635e-06
1.47205e-06
9.78022e-06
2.6249e-06
1.64328e-06
5.81905e-06
2.516e-06
2.02671e-06
2.69112e-06
1.86622e-06
1.72793e-06
1.00511e-06
1.17116e-06
1.05079e-06
2.03746e-07
9.99562e-07
5.69581e-07
-5.11369e-07
1.48888e-06
3.22928e-07
-1.41239e-06
2.07372e-06
3.61965e-07
-2.29524e-06
1.67572e-06
1.88372e-07
-3.49244e-06
4.34197e-07
4.67679e-07
-4.93025e-06
-8.53987e-09
8.17029e-07
-5.2895e-06
6.18855e-07
-4.94911e-07
-3.69223e-06
1.6245e-06
-2.77604e-06
1.56808e-06
-5.39907e-06
-2.33033e-06
-3.76657e-06
2.08209e-08
-7.81754e-07
-4.43275e-06
-5.06928e-07
-4.83841e-07
-1.85629e-06
4.08414e-07
6.8477e-08
-2.77114e-06
4.62197e-07
2.1557e-07
-8.11488e-07
2.48203e-07
1.6908e-07
-9.5138e-07
3.62583e-07
8.05534e-08
-1.35196e-07
9.99781e-09
-1.23035e-07
-1.77441e-07
5.09434e-08
-2.42646e-07
-7.1733e-08
-8.81836e-08
-3.5868e-07
-1.21236e-07
-7.03591e-08
-4.71631e-07
-1.65457e-07
-8.38322e-08
-5.01486e-07
-3.32495e-07
-1.3914e-07
-4.53489e-07
-4.86027e-07
-1.93685e-07
-3.65755e-07
-5.89879e-07
-2.23118e-07
-2.79578e-07
-6.26852e-07
-2.26485e-07
-2.06752e-07
-6.42926e-07
-2.20262e-07
-1.53899e-07
-6.40038e-07
-2.09838e-07
-1.16291e-07
-6.37655e-07
-2.02144e-07
-9.24987e-08
-6.3087e-07
-1.96057e-07
-7.76506e-08
-6.26594e-07
-1.92947e-07
-6.98229e-08
-6.21695e-07
-1.91111e-07
-6.62048e-08
-6.185e-07
-1.90852e-07
-6.59394e-08
-6.14861e-07
-1.91079e-07
-6.75335e-08
-6.12035e-07
-1.92004e-07
-7.04338e-08
-6.09214e-07
-1.93064e-07
-7.40165e-08
-6.06484e-07
-1.94466e-07
-7.79841e-08
-6.03693e-07
-1.95888e-07
-8.21514e-08
-6.00826e-07
-1.97355e-07
-8.65018e-08
-5.9781e-07
-1.9877e-07
-9.09889e-08
-5.9457e-07
-2.00196e-07
-9.59128e-08
-5.91205e-07
-2.01661e-07
-1.00684e-07
-5.86997e-07
-2.02668e-07
-1.06884e-07
-5.85784e-07
-2.03158e-07
-1.12144e-07
-5.77435e-07
-2.04174e-07
-1.18604e-07
-5.82448e-07
-2.05492e-07
-1.25846e-07
-5.62811e-07
-2.04928e-07
-1.29812e-07
-5.83269e-07
-2.08057e-07
-1.40417e-07
-5.42569e-07
-2.04913e-07
-1.3781e-07
-5.85977e-07
-2.11811e-07
-1.52911e-07
-5.16174e-07
-2.03757e-07
-1.34241e-07
-5.95382e-07
-2.19738e-07
-1.52878e-07
-4.88344e-07
-2.01606e-07
-9.9649e-08
-6.23453e-07
-2.35463e-07
-1.24263e-07
-4.57245e-07
-1.97508e-07
-1.51712e-08
-6.53613e-07
-2.53199e-07
-6.20167e-08
-3.99941e-07
-1.902e-07
-7.02685e-09
-4.75246e-07
-2.01887e-07
-8.6284e-08
-2.61471e-07
-1.67323e-07
-3.53048e-07
1.0443e-07
3.29339e-08
-3.34459e-07
-5.30725e-07
-1.76457e-07
-1.00299e-06
-7.82135e-07
1.57874e-07
-1.84479e-06
-1.60622e-06
3.49136e-07
-7.30327e-07
-2.22984e-06
-7.0684e-07
-6.41097e-07
1.17637e-06
-6.45945e-07
7.94776e-07
-4.06949e-06
-2.54164e-07
-1.27362e-06
-5.59923e-06
1.95002e-06
4.72063e-06
5.4741e-06
-3.81621e-06
7.25394e-07
1.37673e-05
-1.26409e-06
-3.13749e-06
1.26431e-05
-2.1209e-06
6.59822e-07
-3.61219e-05
5.39169e-07
-2.28132e-06
-4.21541e-05
7.88099e-06
-8.87745e-07
-1.69795e-05
2.08331e-06
1.06171e-05
-1.6511e-05
-1.8658e-06
1.25507e-05
-2.10698e-06
-2.9222e-06
1.58613e-05
-1.62648e-07
-3.67916e-06
1.92903e-05
1.23242e-06
-3.62817e-06
2.17637e-05
2.46478e-06
-2.97874e-06
2.34904e-05
3.48436e-06
-2.60679e-06
2.46606e-05
4.1309e-06
-2.29218e-06
2.53538e-05
4.42218e-06
-1.89281e-06
2.56869e-05
4.43558e-06
-1.45427e-06
2.574e-05
4.31854e-06
-1.02301e-06
2.55955e-05
4.01201e-06
-5.70045e-07
2.53655e-05
3.4922e-06
-1.02627e-07
2.49362e-05
3.16879e-06
3.82947e-07
2.41322e-05
3.08372e-06
8.21216e-07
2.28375e-05
3.56121e-06
1.02467e-06
2.11819e-05
4.15226e-06
1.18611e-06
1.91111e-05
4.11035e-06
1.40103e-06
1.66891e-05
3.72627e-06
1.66922e-06
1.31131e-05
3.85394e-06
2.43301e-06
8.02568e-06
4.29794e-06
3.28184e-06
3.1671e-06
4.23253e-06
3.0924e-06
4.89331e-08
3.52537e-06
2.21769e-06
-1.48095e-06
2.42586e-06
1.62003e-06
-1.90342e-06
1.36187e-06
9.2681e-07
-1.8336e-06
9.06397e-07
1.94951e-07
-1.5606e-06
1.06742e-06
-3.40863e-07
-1.43318e-06
1.84101e-06
-4.79551e-07
-1.52523e-06
2.45051e-06
-2.84735e-07
-1.99713e-06
2.31761e-06
-1.69988e-07
-3.03483e-06
1.33955e-06
1.32342e-07
-4.27493e-06
1.03645e-06
1.95115e-07
-4.51968e-06
1.66872e-06
-8.05115e-07
-3.29375e-06
3.07546e-06
-2.6769e-06
3.7636e-06
-5.48927e-06
-3.54442e-06
-4.39261e-06
-6.99264e-08
-1.6089e-06
-5.49262e-06
-8.75641e-07
-1.37353e-06
-2.8482e-06
7.5656e-07
-5.19951e-07
-4.0359e-06
4.11187e-07
-6.38735e-08
-1.89978e-06
6.32222e-07
1.44764e-07
-1.96603e-06
8.06017e-07
2.26129e-07
-5.5776e-07
3.41205e-07
-4.33375e-08
-2.03975e-07
2.96002e-07
-2.16124e-07
1.17917e-07
-1.68619e-08
-3.88703e-07
9.70365e-08
-4.5694e-08
-5.02513e-07
4.30817e-08
-9.47277e-08
-5.47223e-07
-1.2373e-07
-1.64056e-07
-5.13254e-07
-2.73709e-07
-2.46286e-07
-4.43847e-07
-3.60717e-07
-2.9857e-07
-3.63231e-07
-3.83398e-07
-3.24071e-07
-2.93545e-07
-3.81146e-07
-3.3147e-07
-2.38808e-07
-3.6368e-07
-3.31097e-07
-1.998e-07
-3.49039e-07
-3.27628e-07
-1.73069e-07
-3.32839e-07
-3.24765e-07
-1.56551e-07
-3.20378e-07
-3.22739e-07
-1.46666e-07
-3.09664e-07
-3.21921e-07
-1.41676e-07
-3.01832e-07
-3.21664e-07
-1.39981e-07
-2.95001e-07
-3.21561e-07
-1.40744e-07
-2.89682e-07
-3.21598e-07
-1.42797e-07
-2.8503e-07
-3.22139e-07
-1.45695e-07
-2.80925e-07
-3.22671e-07
-1.4908e-07
-2.77094e-07
-3.23225e-07
-1.52783e-07
-2.73486e-07
-3.23648e-07
-1.56773e-07
-2.69983e-07
-3.2385e-07
-1.61116e-07
-2.66389e-07
-3.23852e-07
-1.66099e-07
-2.62487e-07
-3.2375e-07
-1.70763e-07
-2.58382e-07
-3.23968e-07
-1.77214e-07
-2.55136e-07
-3.24215e-07
-1.81456e-07
-2.48661e-07
-3.24553e-07
-1.89403e-07
-2.50846e-07
-3.23677e-07
-1.93472e-07
-2.35585e-07
-3.2318e-07
-2.00586e-07
-2.52132e-07
-3.24049e-07
-2.05055e-07
-2.1647e-07
-3.21658e-07
-2.05959e-07
-2.59036e-07
-3.26067e-07
-2.1072e-07
-1.92745e-07
-3.18701e-07
-1.95341e-07
-2.78892e-07
-3.31904e-07
-2.01715e-07
-1.69486e-07
-3.12522e-07
-1.55787e-07
-3.2551e-07
-3.43912e-07
-1.74325e-07
-1.40472e-07
-2.98278e-07
-1.07243e-07
-3.73058e-07
-3.47685e-07
-1.48929e-07
-8.23738e-08
-2.7593e-07
-1.79066e-07
-1.73023e-07
-2.72139e-07
-2.65117e-07
6.41011e-08
-2.39578e-07
-3.54777e-07
3.05925e-07
-1.11892e-07
-4.52419e-07
-2.28534e-07
-2.0461e-07
-3.11273e-07
-7.91389e-07
-1.31954e-07
-9.70075e-07
-1.07759e-06
1.30108e-07
-6.23551e-07
-2.48726e-06
-8.91671e-08
3.98088e-08
8.12579e-07
-2.99626e-07
3.21726e-07
-2.96331e-06
-1.38816e-06
-3.46644e-06
-2.68749e-06
8.76369e-07
6.11008e-06
-2.63815e-07
-3.83866e-06
8.37224e-06
1.87147e-05
-7.20954e-06
9.10345e-06
7.70222e-06
4.20955e-06
3.40123e-06
-3.30417e-05
2.62173e-06
-2.52077e-06
-4.51489e-05
8.91655e-06
-7.3743e-06
-1.53914e-05
3.26549e-06
-5.43262e-06
-1.89744e-05
5.21796e-07
4.19059e-07
-3.85657e-06
-4.10209e-06
8.10023e-06
-2.41892e-06
-5.4249e-06
1.17371e-05
1.3446e-06
-3.74902e-06
1.43889e-05
2.15213e-06
-2.33913e-06
1.65195e-05
3.00664e-06
-1.65295e-06
1.80593e-05
3.61331e-06
-1.02216e-06
1.90076e-05
3.9157e-06
-4.41876e-07
1.94729e-05
3.86571e-06
1.04579e-07
1.95243e-05
3.52737e-06
7.39794e-07
1.92474e-05
3.0021e-06
1.28672e-06
1.85425e-05
2.48e-06
1.71716e-06
1.73654e-05
2.29997e-06
2.0459e-06
1.57068e-05
2.62609e-06
2.11624e-06
1.36724e-05
3.54335e-06
2.05223e-06
1.0467e-05
4.74701e-06
2.61067e-06
5.38405e-06
5.45636e-06
3.7369e-06
-1.8987e-07
5.19748e-06
4.10271e-06
-4.36986e-06
4.52435e-06
3.50958e-06
-6.60264e-06
3.76681e-06
2.7639e-06
-7.1262e-06
2.91466e-06
1.84143e-06
-6.69116e-06
2.18635e-06
9.0399e-07
-5.82902e-06
1.56194e-06
1.78482e-09
-5.00929e-06
1.22577e-06
-6.83623e-07
-4.20433e-06
1.28364e-06
-1.18221e-06
-3.43049e-06
1.68695e-06
-1.39337e-06
-2.76697e-06
2.38457e-06
-1.20708e-06
-2.20365e-06
2.75694e-06
-8.69758e-07
-1.95996e-06
2.63295e-06
-5.59032e-07
-2.54406e-06
2.16562e-06
-2.41976e-07
-3.43568e-06
2.30593e-06
-3.7786e-07
-3.78055e-06
3.17146e-06
-1.15787e-06
-2.91493e-06
4.97309e-06
-2.76324e-06
6.33403e-06
-5.48536e-06
-4.68875e-06
-4.41665e-06
-3.91223e-07
-2.35086e-06
-6.22495e-06
-1.60555e-06
-2.05908e-06
-3.45672e-06
3.16747e-07
-8.65562e-07
-4.5821e-06
-6.47316e-07
-3.3563e-07
-2.81018e-06
3.80483e-07
-1.02048e-07
-2.94187e-06
7.42263e-07
1.71538e-07
-1.38674e-06
5.55395e-07
7.46829e-08
-6.08904e-07
5.01786e-07
7.33272e-08
2.31198e-08
9.61518e-08
-1.08928e-07
2.81825e-07
-2.53289e-09
-2.64783e-07
2.8126e-07
-8.23253e-08
-3.90781e-07
1.4122e-07
-1.38953e-07
-4.25083e-07
-1.76392e-08
-2.21769e-07
-4.10087e-07
-9.56998e-08
-2.80014e-07
-3.68343e-07
-1.03457e-07
-3.21687e-07
-3.22021e-07
-8.40639e-08
-3.43406e-07
-2.79114e-07
-5.33483e-08
-3.53243e-07
-2.44775e-07
-2.75578e-08
-3.55822e-07
-2.17992e-07
-4.37516e-09
-3.55252e-07
-2.00875e-07
1.63173e-08
-3.53817e-07
-1.90133e-07
3.227e-08
-3.52683e-07
-1.84689e-07
4.38684e-08
-3.5115e-07
-1.82077e-07
5.23875e-08
-3.50008e-07
-1.81865e-07
5.87658e-08
-3.48667e-07
-1.83306e-07
6.33711e-08
-3.46969e-07
-1.85932e-07
6.67062e-08
-3.45013e-07
-1.89405e-07
6.93223e-08
-3.42953e-07
-1.93425e-07
7.13875e-08
-3.40864e-07
-1.97838e-07
7.3153e-08
-3.38736e-07
-2.02595e-07
7.48446e-08
-3.36488e-07
-2.07737e-07
7.66615e-08
-3.34021e-07
-2.12766e-07
7.84143e-08
-3.31783e-07
-2.19699e-07
8.07536e-08
-3.28974e-07
-2.24965e-07
8.3656e-08
-3.27069e-07
-2.33398e-07
8.27497e-08
-3.25182e-07
-2.3765e-07
9.25727e-08
-3.23927e-07
-2.46329e-07
7.9001e-08
-3.22477e-07
-2.49929e-07
1.06555e-07
-3.19451e-07
-2.52559e-07
6.39533e-08
-3.20386e-07
-2.54485e-07
1.21268e-07
-3.12115e-07
-2.42317e-07
2.8613e-08
-3.19704e-07
-2.45555e-07
1.32954e-07
-2.99233e-07
-2.21859e-07
-2.9746e-08
-3.19496e-07
-2.35556e-07
1.51001e-07
-2.77812e-07
-2.60772e-07
-5.26729e-08
-2.95208e-07
-2.97148e-07
2.12306e-07
-2.58344e-07
-4.73004e-07
2.00492e-07
-1.97703e-07
-5.24e-07
3.48233e-07
-2.3318e-07
-4.74368e-07
3.51539e-07
-9.52945e-08
-5.75386e-07
3.17098e-08
-1.59275e-07
-2.98358e-07
-1.03632e-06
-3.21444e-08
-6.53821e-07
-6.65042e-07
-5.71387e-08
-1.48001e-06
-1.93152e-06
2.70396e-07
-3.18272e-07
6.94995e-08
-4.18704e-07
2.60794e-06
-1.73073e-06
-4.15884e-06
6.82971e-07
2.44516e-06
-3.20772e-06
6.88287e-06
-8.01694e-07
-5.66207e-06
1.33134e-05
2.08401e-05
-8.55601e-06
1.56588e-05
-9.1802e-06
1.45368e-05
-1.94166e-07
-2.12004e-05
4.0116e-06
-1.18759e-05
-4.2768e-05
9.30096e-06
-1.43229e-05
-1.62884e-05
3.34395e-06
-1.58582e-05
-1.79551e-05
5.15925e-07
-8.64728e-06
-8.85057e-06
-2.21694e-06
-2.73548e-06
-6.2103e-06
-2.12043e-06
1.14914e-06
-2.11799e-06
-4.22029e-07
4.18245e-06
-1.06931e-06
1.88119e-07
6.32331e-06
-2.81589e-08
8.93943e-07
7.61671e-06
8.24675e-07
1.49523e-06
8.0534e-06
1.36929e-06
2.10972e-06
7.41707e-06
1.79524e-06
2.70681e-06
5.55529e-06
2.04391e-06
3.34523e-06
2.31436e-06
2.40637e-06
3.83667e-06
-1.9115e-06
2.77747e-06
3.92838e-06
-6.28777e-06
3.06061e-06
3.61563e-06
-9.99121e-06
3.20243e-06
3.1271e-06
-1.29158e-05
3.5549e-06
2.91306e-06
-1.49912e-05
3.88801e-06
2.93436e-06
-1.6017e-05
3.72453e-06
2.75763e-06
-1.61679e-05
3.22513e-06
2.12327e-06
-1.57222e-05
2.78217e-06
1.29649e-06
-1.47094e-05
2.34538e-06
4.08666e-07
-1.34029e-05
2.04739e-06
-4.39295e-07
-1.18816e-05
1.85254e-06
-1.18741e-06
-1.02881e-05
1.76418e-06
-1.79577e-06
-8.77138e-06
1.87034e-06
-2.16132e-06
-7.31371e-06
2.09213e-06
-2.26616e-06
-5.84901e-06
2.33556e-06
-2.1133e-06
-4.39266e-06
2.69857e-06
-1.77036e-06
-3.14415e-06
2.94082e-06
-1.43239e-06
-2.48995e-06
3.10358e-06
-1.12482e-06
-2.72816e-06
3.19874e-06
-7.94905e-07
-3.34788e-06
3.75907e-06
-8.3342e-07
-3.56067e-06
4.84887e-06
-1.46461e-06
-2.66603e-06
6.92461e-06
-2.84617e-06
9.10855e-06
-5.44055e-06
-5.41163e-06
-3.81311e-06
-4.66329e-07
-2.76684e-06
-6.626e-06
-2.24373e-06
-2.09922e-06
-3.02399e-06
-1.10034e-06
-5.94132e-07
-4.42941e-06
-1.65777e-06
8.99302e-08
-2.53827e-06
-9.55969e-07
-5.69043e-09
-2.87063e-06
2.4387e-08
1.03364e-07
-1.86565e-06
3.69855e-07
-6.337e-08
-9.98872e-07
5.56701e-07
9.83018e-08
-2.65726e-07
1.27174e-07
1.28644e-07
2.66367e-07
-1.48878e-08
1.08988e-07
4.40329e-07
-1.39416e-07
-4.20705e-08
4.54859e-07
-1.62584e-07
-1.68199e-07
3.26035e-07
-2.17547e-07
-2.42882e-07
2.38303e-07
-2.59324e-07
-2.73469e-07
2.27534e-07
-3.00406e-07
-2.78942e-07
2.49867e-07
-3.28461e-07
-2.70913e-07
2.84706e-07
-3.46085e-07
-2.58947e-07
3.15511e-07
-3.5504e-07
-2.49416e-07
3.43945e-07
-3.57855e-07
-2.4256e-07
3.6511e-07
-3.55655e-07
-2.38665e-07
3.79739e-07
-3.51369e-07
-2.38005e-07
3.88932e-07
-3.45731e-07
-2.39165e-07
3.93732e-07
-3.40189e-07
-2.4196e-07
3.95768e-07
-3.34216e-07
-2.45753e-07
3.95195e-07
-3.28038e-07
-2.50396e-07
3.92896e-07
-3.21555e-07
-2.55436e-07
3.89592e-07
-3.15238e-07
-2.60769e-07
3.85926e-07
-3.09215e-07
-2.66414e-07
3.82319e-07
-3.0353e-07
-2.72311e-07
3.78915e-07
-2.98186e-07
-2.78397e-07
3.75785e-07
-2.93048e-07
-2.84491e-07
3.72901e-07
-2.88405e-07
-2.91312e-07
3.71565e-07
-2.84004e-07
-2.96639e-07
3.69962e-07
-2.80994e-07
-3.05736e-07
3.69156e-07
-2.77324e-07
-3.1001e-07
3.72499e-07
-2.75669e-07
-3.21818e-07
3.64356e-07
-2.73562e-07
-3.2395e-07
3.79382e-07
-2.70713e-07
-3.33638e-07
3.48661e-07
-2.75038e-07
-3.30525e-07
3.84066e-07
-2.65931e-07
-3.41778e-07
3.18943e-07
-2.79097e-07
-3.39114e-07
3.87652e-07
-2.57384e-07
-3.82117e-07
2.84164e-07
-2.70929e-07
-3.8919e-07
4.03179e-07
-2.4513e-07
-5.56997e-07
3.32534e-07
-2.17422e-07
-5.81948e-07
4.77142e-07
-2.39908e-07
-8.41466e-07
5.8843e-07
-1.28443e-07
-7.86087e-07
5.49673e-07
-2.56843e-07
-6.92853e-07
4.28408e-07
-1.70126e-07
-6.94335e-07
2.69576e-07
-2.3641e-07
-1.61261e-06
-3.13502e-07
1.95426e-07
-2.1301e-06
-6.30674e-08
-8.45021e-08
-3.70803e-06
-6.87834e-07
3.34215e-07
-8.82164e-07
-1.50083e-06
-1.25556e-06
1.49253e-06
-6.4035e-07
-3.46509e-06
2.92133e-06
7.14054e-06
-6.12421e-06
8.56746e-06
6.37362e-07
-7.08521e-06
2.83974e-05
9.89462e-06
-8.88452e-06
1.18014e-05
-1.36279e-05
2.10435e-05
-1.24174e-06
-1.21618e-05
4.00467e-06
-2.45022e-05
-3.12961e-05
1.17888e-05
-3.01714e-05
-1.50947e-05
4.47567e-06
-3.50353e-05
-1.33951e-05
3.04123e-07
-3.27209e-05
-9.83232e-06
-1.3326e-06
-3.05263e-05
-7.73318e-06
-6.7166e-07
-2.79218e-05
-5.6716e-06
9.49089e-07
-2.64214e-05
-4.12514e-06
1.55545e-06
-2.5818e-05
-2.76e-06
2.12847e-06
-2.58983e-05
-1.55441e-06
2.45939e-06
-2.65707e-05
-6.37324e-07
2.67906e-06
-2.77396e-05
2.44085e-07
2.72003e-06
-2.88601e-05
6.20259e-07
2.54421e-06
-2.98781e-05
1.06839e-06
2.35599e-06
-3.06188e-05
1.37811e-06
2.14008e-06
-3.10458e-05
1.60544e-06
1.88218e-06
-3.11134e-05
1.66562e-06
1.60443e-06
-3.08692e-05
2.04364e-06
1.26701e-06
-2.99955e-05
2.10558e-06
9.08813e-07
-2.8651e-05
2.01948e-06
3.60546e-07
-2.70766e-05
1.93806e-06
-2.87334e-07
-2.52793e-05
1.94978e-06
-9.64956e-07
-2.3335e-05
2.01009e-06
-1.60895e-06
-2.12717e-05
2.11728e-06
-2.13322e-06
-1.90876e-05
2.19567e-06
-2.52722e-06
-1.6796e-05
2.22246e-06
-2.74986e-06
-1.46388e-05
2.56982e-06
-2.85665e-06
-1.25215e-05
2.83116e-06
-2.85637e-06
-1.01598e-05
2.74907e-06
-2.77517e-06
-7.78857e-06
3.07585e-06
-2.74856e-06
-5.45179e-06
3.34277e-06
-2.73872e-06
-3.58944e-06
3.8404e-06
-2.59917e-06
-2.44696e-06
4.43843e-06
-2.38218e-06
-1.96277e-06
5.33829e-06
-2.06341e-06
-2.03051e-06
7.06192e-06
-2.14532e-06
-1.55261e-06
9.60548e-06
-3.15877e-06
1.25614e-05
-5.00547e-06
-5.47401e-06
-3.32687e-06
6.36641e-07
-2.79572e-06
-6.87509e-06
-2.42919e-06
-2.13398e-06
-1.92189e-06
-1.76383e-06
-6.53976e-07
-3.76745e-06
-2.14195e-06
3.77618e-07
-1.71066e-06
-1.8592e-06
5.28201e-07
-1.96597e-06
-1.05524e-06
3.93717e-07
-1.21151e-06
-5.19653e-07
-1.14274e-09
-7.99462e-07
1.95448e-07
-1.75726e-08
-2.11387e-07
-3.79137e-08
9.79702e-08
3.24485e-07
-1.73662e-07
2.92477e-07
5.81802e-07
-3.35985e-07
2.40626e-07
7.73556e-07
-2.66849e-07
7.74113e-08
7.16887e-07
-2.27643e-07
-5.91347e-08
5.97409e-07
-2.22562e-07
-1.49536e-07
5.54841e-07
-2.36911e-07
-2.06609e-07
5.58422e-07
-2.51485e-07
-2.41828e-07
5.89612e-07
-2.69692e-07
-2.64756e-07
6.16688e-07
-2.78252e-07
-2.80858e-07
6.41029e-07
-2.80988e-07
-2.92571e-07
6.56652e-07
-2.79831e-07
-3.02298e-07
6.65816e-07
-2.76356e-07
-3.10749e-07
6.68944e-07
-2.71564e-07
-3.18115e-07
6.67905e-07
-2.66813e-07
-3.24952e-07
6.64347e-07
-2.61746e-07
-3.31744e-07
6.58627e-07
-2.56647e-07
-3.38616e-07
6.50971e-07
-2.51208e-07
-3.45583e-07
6.42028e-07
-2.45477e-07
-3.52398e-07
6.32624e-07
-2.39888e-07
-3.58865e-07
6.23297e-07
-2.34519e-07
-3.64901e-07
6.14539e-07
-2.29594e-07
-3.70391e-07
6.06633e-07
-2.25366e-07
-3.75058e-07
5.99143e-07
-2.21581e-07
-3.80087e-07
5.94124e-07
-2.17538e-07
-3.84323e-07
5.89003e-07
-2.14812e-07
-3.90808e-07
5.8691e-07
-2.11278e-07
-3.92591e-07
5.85447e-07
-2.11172e-07
-4.02749e-07
5.8171e-07
-2.07205e-07
-4.01193e-07
5.88126e-07
-2.10307e-07
-4.17822e-07
5.71642e-07
-2.06359e-07
-4.11584e-07
5.8873e-07
-2.10908e-07
-4.4932e-07
5.58845e-07
-2.02175e-07
-4.45595e-07
5.92055e-07
-2.08133e-07
-5.47286e-07
5.60972e-07
-1.75122e-07
-5.53969e-07
6.16656e-07
-2.06795e-07
-7.82753e-07
6.6998e-07
-1.08665e-07
-7.87722e-07
7.00758e-07
-2.18643e-07
-1.02693e-06
9.05553e-07
-7.7909e-08
-9.44804e-07
7.23792e-07
-2.56239e-07
-8.70773e-07
6.69643e-07
-3.1526e-07
-8.24768e-07
5.69431e-07
-3.45849e-07
-2.1126e-06
8.447e-07
1.29636e-07
-2.64367e-06
6.19094e-07
-1.5107e-07
-4.67172e-06
9.09406e-07
4.30819e-07
-2.88921e-06
-2.7331e-06
-5.5021e-07
-5.21969e-08
-7.39632e-07
-2.73772e-06
8.04875e-06
5.55868e-06
-6.51908e-06
1.42215e-05
4.4269e-06
-9.96225e-06
3.57735e-05
2.91166e-07
-1.19486e-05
6.73417e-06
-7.9078e-06
2.33192e-05
-7.7711e-06
-2.65995e-06
5.00389e-06
-4.52482e-05
-6.79865e-06
1.29813e-05
-5.85416e-05
-6.8018e-06
5.00246e-06
-6.444e-05
-7.8168e-06
3.22212e-07
-6.53538e-05
-7.68297e-06
-1.23346e-06
-6.52484e-05
-6.93808e-06
-8.98774e-07
-6.37303e-05
-6.83667e-06
-3.51581e-07
-6.21842e-05
-5.75998e-06
8.97631e-08
-6.03934e-05
-4.96212e-06
4.12042e-07
-5.90655e-05
-3.57906e-06
6.97427e-07
-5.77055e-05
-2.76192e-06
7.65226e-07
-5.65394e-05
-1.74031e-06
8.19125e-07
-5.56013e-05
-1.15559e-06
8.38541e-07
-5.46948e-05
-5.19229e-07
6.81909e-07
-5.37621e-05
2.40842e-08
4.21956e-07
-5.28421e-05
5.19741e-07
1.66181e-07
-5.18789e-05
7.3736e-07
-3.44004e-08
-5.03888e-05
9.5952e-07
-4.05423e-07
-4.85432e-05
9.90624e-07
-7.30113e-07
-4.64447e-05
1.09173e-06
-1.17025e-06
-4.43421e-05
1.3393e-06
-1.50345e-06
-4.18424e-05
1.28252e-06
-1.83196e-06
-3.9079e-05
1.32021e-06
-2.07303e-06
-3.61617e-05
1.39631e-06
-2.19603e-06
-3.32899e-05
1.5321e-06
-2.2079e-06
-3.06228e-05
1.69996e-06
-2.14437e-06
-2.74035e-05
1.60911e-06
-2.25838e-06
-2.39949e-05
1.7641e-06
-2.34139e-06
-2.06755e-05
1.72769e-06
-2.29795e-06
-1.71422e-05
2.04621e-06
-2.50352e-06
-1.35075e-05
2.42608e-06
-2.71792e-06
-9.93399e-06
3.24028e-06
-2.97338e-06
-6.69829e-06
4.46276e-06
-3.26002e-06
-3.91103e-06
6.10283e-06
-3.55179e-06
-2.26886e-06
9.09725e-06
-3.6775e-06
-1.23322e-06
1.28996e-05
-4.32973e-06
1.67998e-05
-5.47156e-06
-4.86562e-06
-1.88139e-06
9.51845e-07
-2.80833e-06
-6.73963e-06
-2.19274e-06
-2.79853e-06
-8.09036e-07
-1.12263e-06
-1.2949e-06
-3.13429e-06
-2.13679e-06
-5.70478e-08
-7.19882e-07
-2.22862e-06
3.70811e-07
-7.78322e-07
-1.61551e-06
5.82891e-07
-1.83027e-07
-1.24057e-06
1.56196e-07
-1.35856e-07
-2.36917e-07
-5.61927e-08
1.50453e-07
-1.49455e-07
-1.75055e-08
5.54816e-07
-2.69025e-07
2.67744e-07
7.7585e-07
-4.79302e-07
3.38238e-07
1.08922e-06
-3.86166e-07
2.56316e-07
1.10898e-06
-3.10172e-07
1.31748e-07
1.01356e-06
-2.91595e-07
1.008e-08
9.84282e-07
-3.07777e-07
-9.56179e-08
9.95755e-07
-3.31641e-07
-1.83074e-07
1.02575e-06
-3.48683e-07
-2.49769e-07
1.05135e-06
-3.67976e-07
-3.00386e-07
1.07606e-06
-3.84414e-07
-3.39398e-07
1.09334e-06
-3.97679e-07
-3.69948e-07
1.1053e-06
-4.08936e-07
-3.94604e-07
1.11223e-06
-4.1864e-07
-4.15573e-07
1.11626e-06
-4.27385e-07
-4.34204e-07
1.11795e-06
-4.34973e-07
-4.51321e-07
1.116e-06
-4.40256e-07
-4.64256e-07
1.10812e-06
-4.44222e-07
-4.73721e-07
1.09957e-06
-4.4808e-07
-4.81292e-07
1.09198e-06
-4.51795e-07
-4.87526e-07
1.08524e-06
-4.55712e-07
-4.9326e-07
1.07925e-06
-4.58984e-07
-4.98987e-07
1.07461e-06
-4.62249e-07
-5.04459e-07
1.07098e-06
-4.66369e-07
-5.09702e-07
1.06977e-06
-4.70401e-07
-5.13799e-07
1.06827e-06
-4.75175e-07
-5.18769e-07
1.07039e-06
-4.78504e-07
-5.20064e-07
1.07183e-06
-4.85083e-07
-5.30486e-07
1.0781e-06
-4.85969e-07
-5.28282e-07
1.08278e-06
-4.96859e-07
-5.57991e-07
1.09348e-06
-4.92121e-07
-5.52695e-07
1.09236e-06
-5.08921e-07
-6.30887e-07
1.12663e-06
-4.8958e-07
-6.31649e-07
1.11038e-06
-5.17557e-07
-8.1338e-07
1.19856e-06
-4.5584e-07
-8.23902e-07
1.15068e-06
-5.23485e-07
-1.08866e-06
1.30733e-06
-3.72569e-07
-1.05709e-06
1.18964e-06
-5.2042e-07
-1.14404e-06
1.34389e-06
-3.51346e-07
-1.03951e-06
1.12523e-06
-5.05931e-07
-7.14636e-07
1.07546e-06
-7.30648e-07
-6.85422e-07
1.2494e-06
-7.09142e-07
-1.33751e-06
1.94045e-06
-4.43604e-07
-1.27181e-06
1.54445e-06
-9.91004e-07
-1.77784e-06
1.54979e-06
-1.34299e-07
1.02881e-07
-3.75885e-06
-8.54915e-07
2.44708e-06
2.59044e-06
-5.67423e-06
1.1483e-05
7.53825e-06
-1.10154e-05
1.48909e-05
1.26994e-05
-1.16804e-05
3.47498e-05
-7.37068e-06
-1.2197e-05
4.80281e-06
-5.5681e-06
2.76073e-05
-1.18758e-05
8.077e-06
5.94307e-06
-6.10845e-05
2.61059e-05
1.63087e-05
-8.06037e-05
6.64513e-06
6.07859e-06
-9.03677e-05
2.13569e-06
-1.81398e-07
-9.37822e-05
-2.59968e-06
-1.66096e-06
-9.67749e-05
-2.68309e-06
-1.25482e-06
-9.8628e-05
-3.90402e-06
-1.07182e-06
-0.000100076
-3.68389e-06
-6.20222e-07
-0.000100964
-3.52768e-06
-5.37652e-07
-0.000101545
-2.60252e-06
-3.8765e-07
-0.000101802
-2.00809e-06
-4.88475e-07
-0.000101633
-1.32109e-06
-5.79042e-07
-0.000101126
-9.50715e-07
-7.0312e-07
-0.000100311
-4.54863e-07
-8.7114e-07
-9.91736e-05
9.13706e-08
-1.19596e-06
-9.76083e-05
4.10575e-07
-1.4478e-06
-9.6053e-05
8.18399e-07
-1.62894e-06
-9.44543e-05
1.17434e-06
-1.80702e-06
-9.29127e-05
1.38109e-06
-1.92572e-06
-9.13283e-05
1.59374e-06
-2.07927e-06
-8.9539e-05
1.69359e-06
-2.13597e-06
-8.7852e-05
1.68368e-06
-2.08021e-06
-8.61946e-05
1.59334e-06
-1.92219e-06
-8.43755e-05
1.28713e-06
-1.70135e-06
-8.22963e-05
9.58145e-07
-1.49633e-06
-7.98167e-05
6.10217e-07
-1.38077e-06
-7.69347e-05
6.51598e-08
-1.32894e-06
-7.37906e-05
-2.24033e-07
-1.14698e-06
-7.02788e-05
-5.58647e-07
-1.2167e-06
-6.56039e-05
-7.7879e-07
-1.84168e-06
-6.04839e-05
-4.0131e-07
-2.28488e-06
-5.45687e-05
4.80125e-07
-3.14784e-06
-4.77918e-05
1.99409e-06
-4.30135e-06
-3.95966e-05
3.60822e-06
-5.69437e-06
-2.89807e-05
5.33859e-06
-6.85182e-06
-1.65111e-05
8.08491e-06
-7.65063e-06
8.71892e-06
-8.42864e-06
-3.98716e-06
1.46101e-06
8.05614e-07
-2.75546e-06
-6.51037e-06
-1.46096e-06
-3.68801e-06
7.11073e-07
-5.87545e-07
-1.91298e-06
-2.82173e-06
-2.08758e-06
-1.00446e-06
3.56136e-07
-1.98454e-06
-3.21052e-07
1.81039e-07
-1.64277e-06
1.56309e-07
6.78908e-07
-1.3393e-06
-2.42379e-07
5.53573e-07
-2.90746e-07
-3.38345e-07
2.64576e-07
-1.81631e-08
-2.85812e-07
4.53501e-07
4.8776e-08
4.88793e-08
6.49248e-07
-2.08096e-07
2.39514e-07
9.71309e-07
-7.27277e-08