/*--------------------------------*- C++ -*----------------------------------*\
| =========                 |                                                 |
| \\      /  F ield         | OpenFOAM: The Open Source CFD Toolbox           |
|  \\    /   O peration     | Version:  2.3.0                                 |
|   \\  /    A nd           | Web:      www.OpenFOAM.org                      |
|    \\/     M anipulation  |                                                 |
\*---------------------------------------------------------------------------*/
FoamFile
{
    version     2.0;
    format      ascii;
    class       volScalarField;
    location    "14";
    object      rho;
}
// * * * * * * * * * * * * * * * * * * * * * * * * * * * * * * * * * * * * * //

dimensions      [1 -3 0 0 0 0 0];

internalField   nonuniform List<scalar> 
6144
(
1.16788
1.16793
1.16829
1.16841
1.16854
1.16871
1.16879
1.16884
1.16887
1.16888
1.16889
1.16889
1.1689
1.1689
1.1689
1.1689
1.1689
1.16891
1.16891
1.16891
1.16891
1.16891
1.16891
1.16892
1.16892
1.16892
1.16892
1.16892
1.16892
1.16893
1.16893
1.16893
1.16893
1.16893
1.16894
1.16894
1.16894
1.16894
1.16894
1.16895
1.16894
1.16895
1.16895
1.16896
1.16895
1.16896
1.16895
1.16897
1.16895
1.16911
1.17031
1.17471
1.18518
1.21591
1.23782
1.29656
1.36405
1.8799
3.43011
61.1513
986.928
1026.85
1027.09
1027.09
1027.09
1027.1
1027.1
1027.1
1027.1
1027.1
1027.1
1027.1
1027.1
1027.1
1027.1
1027.1
1027.1
1027.1
1027.1
1027.1
1027.1
1027.1
1027.1
1027.1
1027.1
1027.1
1027.1
1027.1
1027.1
1027.1
1027.1
1027.1
1027.1
1027.1
1027.1
1027.1
1.16698
1.16698
1.16811
1.16808
1.16844
1.16859
1.16866
1.16873
1.16877
1.16882
1.16887
1.16889
1.1689
1.1689
1.1689
1.1689
1.16891
1.16891
1.16891
1.16891
1.16891
1.16891
1.16892
1.16892
1.16892
1.16892
1.16892
1.16892
1.16893
1.16893
1.16893
1.16893
1.16893
1.16894
1.16894
1.16894
1.16894
1.16895
1.16894
1.16895
1.16894
1.16896
1.16895
1.16896
1.16895
1.16896
1.16895
1.16898
1.16896
1.16968
1.17279
1.17783
1.18613
1.21213
1.23106
1.28912
1.37335
1.97413
3.06167
56.0859
992.305
1027.05
1027.09
1027.09
1027.09
1027.1
1027.1
1027.1
1027.1
1027.1
1027.1
1027.1
1027.1
1027.1
1027.1
1027.1
1027.1
1027.1
1027.1
1027.1
1027.1
1027.1
1027.1
1027.1
1027.1
1027.1
1027.1
1027.1
1027.1
1027.1
1027.1
1027.1
1027.1
1027.1
1027.1
1027.1
1.16591
1.16606
1.16757
1.16718
1.16826
1.16837
1.16858
1.16867
1.16867
1.16874
1.16882
1.16888
1.1689
1.1689
1.1689
1.16891
1.16891
1.16891
1.16891
1.16891
1.16891
1.16892
1.16892
1.16892
1.16892
1.16892
1.16892
1.16893
1.16893
1.16893
1.16893
1.16893
1.16893
1.16894
1.16894
1.16894
1.16894
1.16895
1.16894
1.16895
1.16894
1.16896
1.16895
1.16896
1.16895
1.16897
1.16895
1.16899
1.16899
1.16996
1.17316
1.17658
1.18001
1.20242
1.23775
1.3189
1.32785
1.78517
2.10963
48.1006
986.451
1027.09
1027.09
1027.09
1027.1
1027.1
1027.1
1027.1
1027.1
1027.1
1027.1
1027.1
1027.1
1027.1
1027.1
1027.1
1027.1
1027.1
1027.1
1027.1
1027.1
1027.1
1027.1
1027.1
1027.1
1027.1
1027.1
1027.1
1027.1
1027.1
1027.1
1027.1
1027.1
1027.1
1027.1
1027.1
1.16496
1.16511
1.16627
1.16586
1.16753
1.16775
1.1684
1.16865
1.16868
1.16874
1.16881
1.16887
1.1689
1.1689
1.1689
1.1689
1.16891
1.16891
1.16891
1.16891
1.16891
1.16891
1.16892
1.16892
1.16892
1.16892
1.16892
1.16892
1.16893
1.16893
1.16893
1.16893
1.16893
1.16893
1.16894
1.16894
1.16894
1.16894
1.16894
1.16895
1.16894
1.16896
1.16895
1.16896
1.16895
1.16896
1.16895
1.16898
1.16898
1.16982
1.17168
1.17473
1.17801
1.20059
1.24674
1.33784
1.33872
1.64914
1.54107
69.9517
994.212
1027.09
1027.09
1027.09
1027.1
1027.1
1027.1
1027.1
1027.1
1027.1
1027.1
1027.1
1027.1
1027.1
1027.1
1027.1
1027.1
1027.1
1027.1
1027.1
1027.1
1027.1
1027.1
1027.1
1027.1
1027.1
1027.1
1027.1
1027.1
1027.1
1027.1
1027.1
1027.1
1027.1
1027.1
1027.1
1.16429
1.1642
1.16493
1.16464
1.16623
1.16676
1.16773
1.16816
1.16868
1.16882
1.16882
1.16887
1.16889
1.1689
1.1689
1.16891
1.16891
1.16891
1.16891
1.16891
1.16891
1.16892
1.16892
1.16892
1.16892
1.16892
1.16892
1.16893
1.16893
1.16893
1.16893
1.16893
1.16893
1.16894
1.16894
1.16894
1.16894
1.16894
1.16894
1.16895
1.16894
1.16896
1.16895
1.16896
1.16895
1.16897
1.16895
1.16899
1.16905
1.17001
1.17136
1.17392
1.17845
1.20148
1.25281
1.34963
1.35804
1.51981
1.29583
167.458
1024.21
1027.07
1027.09
1027.09
1027.09
1027.1
1027.1
1027.1
1027.1
1027.1
1027.1
1027.1
1027.1
1027.1
1027.1
1027.1
1027.1
1027.1
1027.1
1027.1
1027.1
1027.1
1027.1
1027.1
1027.1
1027.1
1027.1
1027.1
1027.1
1027.1
1027.1
1027.1
1027.1
1027.1
1027.1
1027.1
1.16398
1.16365
1.16402
1.1637
1.16502
1.16571
1.16693
1.16762
1.16809
1.1687
1.16884
1.16887
1.16889
1.1689
1.1689
1.1689
1.1689
1.1689
1.16891
1.16891
1.16891
1.16891
1.16891
1.16891
1.16892
1.16892
1.16892
1.16892
1.16892
1.16892
1.16893
1.16893
1.16893
1.16893
1.16893
1.16893
1.16894
1.16894
1.16894
1.16894
1.16894
1.16895
1.16895
1.16895
1.16895
1.16896
1.16895
1.169
1.16917
1.1701
1.17143
1.17398
1.17899
1.19584
1.25722
1.3503
1.34472
1.40118
1.169
344.11
1022.8
1025.74
1026.2
1026.58
1026.81
1026.95
1027.01
1027.03
1027.04
1027.04
1027.04
1027.05
1027.05
1027.05
1027.05
1027.05
1027.05
1027.05
1027.05
1027.05
1027.05
1027.06
1027.07
1027.07
1027.08
1027.09
1027.09
1027.1
1027.1
1027.1
1027.1
1027.1
1027.1
1027.1
1027.1
1027.1
1.16398
1.16349
1.16345
1.16313
1.16407
1.16485
1.16603
1.16726
1.16756
1.1682
1.16873
1.16887
1.1689
1.1689
1.1689
1.16891
1.16891
1.16891
1.16891
1.16891
1.16891
1.16892
1.16892
1.16892
1.16892
1.16892
1.16892
1.16893
1.16893
1.16893
1.16893
1.16893
1.16894
1.16894
1.16894
1.16894
1.16894
1.16895
1.16895
1.16895
1.16895
1.16896
1.16895
1.16896
1.16895
1.16897
1.16895
1.16903
1.16917
1.17002
1.17141
1.17474
1.18241
1.19581
1.21127
1.32303
1.40106
1.42659
1.169
574.707
1012.88
1015.41
1015.43
1016.19
1018.48
1020.53
1022.03
1023.12
1023.56
1023.35
1022.73
1022.58
1023.42
1024.21
1024.48
1024.48
1024.24
1024.24
1024.6
1024.58
1024.45
1024.89
1025.23
1025.36
1025.58
1025.59
1025.99
1026.35
1026.52
1026.71
1026.89
1027.03
1027.1
1027.1
1027.1
1027.09
1.16421
1.16365
1.16328
1.16298
1.16333
1.1642
1.16543
1.1669
1.16733
1.1678
1.16852
1.16883
1.16889
1.1689
1.16891
1.16891
1.16891
1.16891
1.16891
1.16892
1.16892
1.16892
1.16892
1.16892
1.16892
1.16893
1.16893
1.16893
1.16893
1.16893
1.16894
1.16894
1.16894
1.16894
1.16894
1.16895
1.16895
1.16895
1.16895
1.16895
1.16896
1.16896
1.16896
1.16896
1.16896
1.16897
1.16896
1.16902
1.16907
1.16969
1.17079
1.1738
1.18097
1.20385
1.22032
1.33119
1.39629
1.45931
1.169
637.843
996.797
998.137
997.524
997.566
997.583
997.275
997.202
997.316
996.934
996.723
996.585
996.401
996.365
996.746
998.509
1000.57
1001.82
1000.59
999.75
999.482
997.634
996.266
994.921
993.663
992.834
992.508
992.448
992.866
994.541
996.143
996.957
997.721
999.358
1001.26
1004.73
1009.45
1.16401
1.164
1.16336
1.16298
1.16301
1.16397
1.16524
1.16682
1.16728
1.16767
1.16832
1.16873
1.16887
1.1689
1.1689
1.1689
1.1689
1.16891
1.16891
1.16891
1.16891
1.16891
1.16892
1.16892
1.16892
1.16892
1.16892
1.16893
1.16893
1.16893
1.16893
1.16893
1.16893
1.16894
1.16894
1.16894
1.16894
1.16895
1.16895
1.16895
1.16895
1.16895
1.16895
1.16896
1.16895
1.16897
1.16897
1.16901
1.169
1.16947
1.1704
1.17344
1.18159
1.21527
1.2173
1.28302
1.33794
1.46982
1.169
388.591
1010.98
1018.03
1018.33
1018.77
1019.8
1020.55
1020.56
1019.55
1018.96
1019.11
1019.34
1019.17
1018.9
1018.93
1019.03
1019.65
1020.29
1020.54
1020.23
1020.19
1020.01
1020.26
1020.85
1020.83
1020.85
1021.04
1021.07
1021.1
1021.33
1021.44
1021.6
1022.07
1022.98
1024.06
1025.27
1026.33
1.16107
1.16427
1.164
1.16341
1.16295
1.16391
1.16537
1.16685
1.16741
1.16791
1.16839
1.16874
1.16888
1.1689
1.1689
1.16891
1.16891
1.16891
1.16891
1.16891
1.16892
1.16892
1.16892
1.16892
1.16892
1.16892
1.16893
1.16893
1.16893
1.16893
1.16893
1.16893
1.16894
1.16894
1.16894
1.16894
1.16894
1.16894
1.16894
1.16895
1.16895
1.16895
1.16895
1.16896
1.16895
1.16897
1.16896
1.169
1.16896
1.16928
1.17004
1.17247
1.18909
1.22428
1.24127
1.27179
1.28769
1.52025
1.30344
182.826
1015.18
1026.5
1026.62
1026.79
1026.85
1026.89
1026.9
1026.9
1026.9
1026.9
1026.9
1026.92
1026.92
1026.92
1026.93
1026.94
1026.97
1026.99
1027.01
1027.02
1027.03
1027.04
1027.04
1027.05
1027.04
1027.05
1027.06
1027.06
1027.06
1027.06
1027.06
1027.07
1027.08
1027.09
1027.1
1027.1
1.16052
1.16449
1.1652
1.16455
1.16368
1.16487
1.16611
1.16718
1.16784
1.16839
1.16868
1.16883
1.16889
1.1689
1.1689
1.1689
1.1689
1.16891
1.16891
1.16891
1.16891
1.16891
1.16892
1.16892
1.16892
1.16892
1.16892
1.16893
1.16893
1.16893
1.16893
1.16893
1.16893
1.16894
1.16894
1.16894
1.16894
1.16894
1.16894
1.16895
1.16895
1.16895
1.16895
1.16896
1.16895
1.16897
1.16896
1.169
1.16895
1.16916
1.1697
1.17169
1.18312
1.21632
1.27111
1.27887
1.27353
1.67269
1.43723
79.3368
994.005
1027.09
1027.09
1027.09
1027.09
1027.1
1027.1
1027.1
1027.1
1027.09
1027.1
1027.1
1027.1
1027.1
1027.1
1027.1
1027.1
1027.1
1027.1
1027.1
1027.1
1027.1
1027.1
1027.1
1027.1
1027.1
1027.1
1027.1
1027.1
1027.1
1027.1
1027.1
1027.1
1027.1
1027.1
1027.1
1.16096
1.16456
1.16542
1.16501
1.16473
1.16595
1.1669
1.16767
1.16829
1.16868
1.16884
1.16889
1.16891
1.16891
1.16891
1.16891
1.16891
1.16892
1.16892
1.16892
1.16892
1.16892
1.16892
1.16893
1.16893
1.16893
1.16893
1.16893
1.16893
1.16894
1.16894
1.16894
1.16894
1.16894
1.16894
1.16895
1.16895
1.16895
1.16895
1.16896
1.16895
1.16896
1.16895
1.16897
1.16896
1.16897
1.16896
1.169
1.16895
1.16913
1.16962
1.17219
1.1782
1.21007
1.29311
1.3065
1.30678
1.79973
1.55579
30.2658
931.174
1027.1
1027.09
1027.09
1027.1
1027.1
1027.1
1027.1
1027.1
1027.1
1027.1
1027.1
1027.1
1027.1
1027.1
1027.1
1027.1
1027.1
1027.1
1027.1
1027.1
1027.1
1027.1
1027.1
1027.1
1027.1
1027.1
1027.1
1027.1
1027.1
1027.1
1027.1
1027.1
1027.1
1027.1
1027.1
1.16091
1.16431
1.16531
1.16552
1.1658
1.16669
1.16745
1.1681
1.16856
1.16879
1.16888
1.16891
1.16891
1.16891
1.16891
1.16892
1.16892
1.16892
1.16892
1.16892
1.16892
1.16893
1.16893
1.16893
1.16893
1.16893
1.16893
1.16893
1.16894
1.16894
1.16894
1.16894
1.16894
1.16894
1.16895
1.16895
1.16895
1.16895
1.16895
1.16896
1.16896
1.16896
1.16896
1.16897
1.16896
1.16897
1.16895
1.169
1.16895
1.16912
1.16962
1.17322
1.1794
1.1963
1.25063
1.29653
1.36935
1.92389
1.70265
31.4718
938.026
1027.09
1027.1
1027.1
1027.1
1027.1
1027.1
1027.1
1027.1
1027.1
1027.1
1027.1
1027.1
1027.1
1027.1
1027.1
1027.1
1027.1
1027.1
1027.1
1027.1
1027.1
1027.1
1027.1
1027.1
1027.1
1027.1
1027.1
1027.1
1027.1
1027.1
1027.1
1027.1
1027.1
1027.1
1027.1
1.16102
1.16436
1.16534
1.16587
1.16637
1.16713
1.16786
1.16841
1.16872
1.16885
1.16889
1.16891
1.16891
1.16891
1.16891
1.16891
1.16892
1.16892
1.16892
1.16892
1.16892
1.16892
1.16893
1.16893
1.16893
1.16893
1.16893
1.16893
1.16894
1.16894
1.16894
1.16894
1.16894
1.16894
1.16895
1.16895
1.16895
1.16895
1.16895
1.16896
1.16896
1.16896
1.16896
1.16897
1.16896
1.16897
1.16895
1.16899
1.16895
1.16911
1.1696
1.17467
1.18321
1.19566
1.22195
1.25563
1.44713
2.04882
1.85784
44.0602
963.01
1027.09
1027.1
1027.1
1027.1
1027.1
1027.1
1027.1
1027.1
1027.1
1027.1
1027.1
1027.1
1027.1
1027.1
1027.1
1027.1
1027.1
1027.1
1027.1
1027.1
1027.1
1027.1
1027.1
1027.1
1027.1
1027.1
1027.1
1027.1
1027.1
1027.1
1027.1
1027.1
1027.1
1027.1
1027.1
1.16165
1.16477
1.16548
1.16609
1.16672
1.16745
1.16807
1.16851
1.16873
1.16884
1.16888
1.1689
1.1689
1.16891
1.16891
1.16891
1.16891
1.16891
1.16891
1.16892
1.16892
1.16892
1.16892
1.16892
1.16893
1.16893
1.16893
1.16893
1.16893
1.16893
1.16894
1.16894
1.16894
1.16894
1.16894
1.16894
1.16895
1.16895
1.16895
1.16895
1.16895
1.16896
1.16895
1.16897
1.16896
1.16897
1.16895
1.16899
1.16895
1.16911
1.16963
1.17381
1.18587
1.20902
1.22022
1.26156
1.59043
2.17405
2.41393
40.663
964.988
1026.94
1027.1
1027.1
1027.1
1027.1
1027.1
1027.1
1027.1
1027.1
1027.1
1027.1
1027.1
1027.1
1027.1
1027.1
1027.1
1027.1
1027.1
1027.1
1027.1
1027.1
1027.1
1027.1
1027.1
1027.1
1027.1
1027.1
1027.1
1027.1
1027.1
1027.1
1027.1
1027.1
1027.1
1027.1
1.16141
1.16437
1.1653
1.16602
1.1667
1.16742
1.16799
1.16842
1.16868
1.16882
1.16888
1.1689
1.16891
1.16891
1.16891
1.16892
1.16892
1.16892
1.16892
1.16892
1.16892
1.16893
1.16893
1.16893
1.16893
1.16893
1.16893
1.16894
1.16894
1.16894
1.16894
1.16894
1.16894
1.16895
1.16895
1.16895
1.16895
1.16895
1.16896
1.16896
1.16896
1.16896
1.16896
1.16897
1.16897
1.16897
1.16895
1.169
1.16897
1.16921
1.17002
1.17409
1.18413
1.20364
1.2267
1.34659
1.43731
2.10659
2.24422
48.4385
948.927
1026.39
1027.09
1027.1
1027.1
1027.1
1027.1
1027.1
1027.1
1027.1
1027.1
1027.1
1027.1
1027.1
1027.1
1027.1
1027.1
1027.1
1027.1
1027.1
1027.1
1027.1
1027.1
1027.1
1027.1
1027.1
1027.1
1027.1
1027.1
1027.1
1027.1
1027.1
1027.1
1027.1
1027.1
1027.1
1.16792
1.16806
1.16826
1.16831
1.16838
1.16841
1.1684
1.16843
1.16851
1.16865
1.16881
1.16889
1.16891
1.16891
1.16891
1.16891
1.16892
1.16892
1.16892
1.16892
1.16892
1.16892
1.16893
1.16893
1.16893
1.16893
1.16893
1.16893
1.16894
1.16894
1.16894
1.16894
1.16894
1.16894
1.16895
1.16895
1.16895
1.16895
1.16895
1.16896
1.16896
1.16896
1.16896
1.16896
1.16896
1.16897
1.16895
1.16899
1.16896
1.16914
1.16983
1.17311
1.18493
1.21512
1.23394
1.29143
1.36076
2.09157
5.46427
73.8434
967.469
1026.55
1027.09
1027.09
1027.1
1027.1
1027.1
1027.1
1027.1
1027.1
1027.1
1027.1
1027.1
1027.1
1027.1
1027.1
1027.1
1027.1
1027.1
1027.1
1027.1
1027.1
1027.1
1027.1
1027.1
1027.1
1027.1
1027.1
1027.1
1027.1
1027.1
1027.1
1027.1
1027.1
1027.1
1027.1
1.16704
1.16727
1.16789
1.16778
1.16806
1.16804
1.16802
1.16809
1.16821
1.16838
1.16863
1.16883
1.1689
1.16891
1.16891
1.16891
1.16892
1.16892
1.16892
1.16892
1.16892
1.16892
1.16893
1.16893
1.16893
1.16893
1.16893
1.16893
1.16894
1.16894
1.16894
1.16894
1.16894
1.16894
1.16895
1.16895
1.16895
1.16895
1.16895
1.16896
1.16896
1.16896
1.16896
1.16896
1.16897
1.16897
1.16896
1.169
1.16896
1.16944
1.17102
1.17511
1.18701
1.21261
1.22405
1.28753
1.40408
1.97963
3.48595
63.6187
986.168
1027.02
1027.09
1027.09
1027.09
1027.1
1027.1
1027.1
1027.1
1027.1
1027.1
1027.1
1027.1
1027.1
1027.1
1027.1
1027.1
1027.1
1027.1
1027.1
1027.1
1027.1
1027.1
1027.1
1027.1
1027.1
1027.1
1027.1
1027.1
1027.1
1027.1
1027.1
1027.1
1027.1
1027.1
1027.1
1.16585
1.16631
1.16743
1.16693
1.16757
1.16766
1.16763
1.16769
1.16788
1.16825
1.16858
1.16881
1.1689
1.16891
1.16891
1.16891
1.16891
1.16892
1.16892
1.16892
1.16892
1.16892
1.16892
1.16893
1.16893
1.16893
1.16893
1.16893
1.16893
1.16894
1.16894
1.16894
1.16894
1.16894
1.16894
1.16895
1.16895
1.16895
1.16895
1.16896
1.16895
1.16896
1.16896
1.16896
1.16896
1.16897
1.16896
1.169
1.16897
1.16949
1.17105
1.17502
1.18467
1.21
1.21248
1.30628
1.34149
1.74431
2.18374
52.9555
987.14
1027.09
1027.09
1027.09
1027.09
1027.1
1027.1
1027.1
1027.1
1027.1
1027.1
1027.1
1027.1
1027.1
1027.1
1027.1
1027.1
1027.1
1027.1
1027.1
1027.1
1027.1
1027.1
1027.1
1027.1
1027.1
1027.1
1027.1
1027.1
1027.1
1027.1
1027.1
1027.1
1027.1
1027.1
1027.1
1.16465
1.16554
1.16682
1.16603
1.16688
1.16717
1.16727
1.16726
1.16734
1.16804
1.16857
1.16882
1.16889
1.16891
1.16891
1.16891
1.16891
1.16891
1.16891
1.16892
1.16892
1.16892
1.16892
1.16892
1.16892
1.16893
1.16893
1.16893
1.16893
1.16893
1.16893
1.16894
1.16894
1.16894
1.16894
1.16894
1.16894
1.16895
1.16895
1.16895
1.16895
1.16896
1.16895
1.16896
1.16896
1.16897
1.16895
1.169
1.16901
1.16958
1.17083
1.17386
1.1788
1.20141
1.2404
1.33506
1.45704
1.63445
1.51101
61.0068
987.471
1027.09
1027.09
1027.09
1027.09
1027.1
1027.1
1027.1
1027.1
1027.1
1027.1
1027.1
1027.1
1027.1
1027.1
1027.1
1027.1
1027.1
1027.1
1027.1
1027.1
1027.1
1027.1
1027.1
1027.1
1027.1
1027.1
1027.1
1027.1
1027.1
1027.1
1027.1
1027.1
1027.1
1027.1
1027.1
1.16373
1.16436
1.16587
1.16503
1.16604
1.16647
1.1668
1.16687
1.16701
1.16789
1.16862
1.16886
1.1689
1.16891
1.16891
1.16891
1.16891
1.16891
1.16891
1.16892
1.16892
1.16892
1.16892
1.16892
1.16892
1.16892
1.16893
1.16893
1.16893
1.16893
1.16893
1.16893
1.16894
1.16894
1.16894
1.16894
1.16894
1.16895
1.16895
1.16895
1.16895
1.16896
1.16895
1.16896
1.16895
1.16897
1.16895
1.16899
1.16902
1.16958
1.17068
1.17384
1.17965
1.18767
1.30364
1.41126
1.41117
1.37635
1.26656
137.692
1012.65
1026.78
1026.9
1027.03
1027.07
1027.09
1027.09
1027.09
1027.09
1027.09
1027.09
1027.1
1027.09
1027.09
1027.1
1027.1
1027.1
1027.1
1027.1
1027.1
1027.1
1027.1
1027.1
1027.1
1027.1
1027.1
1027.1
1027.1
1027.1
1027.1
1027.1
1027.1
1027.1
1027.1
1027.1
1027.1
1.1633
1.16305
1.16444
1.16374
1.16529
1.1657
1.16618
1.16638
1.1668
1.16785
1.16866
1.16887
1.1689
1.1689
1.16891
1.16891
1.16891
1.16891
1.16891
1.16891
1.16892
1.16892
1.16892
1.16892
1.16892
1.16892
1.16893
1.16893
1.16893
1.16893
1.16893
1.16893
1.16894
1.16894
1.16894
1.16894
1.16894
1.16894
1.16894
1.16895
1.16895
1.16896
1.16895
1.16896
1.16895
1.16897
1.16895
1.16899
1.16902
1.16947
1.17048
1.17405
1.18104
1.18724
1.32192
1.36933
1.35324
1.33464
1.169
301.772
1015.28
1020.95
1021.84
1023.54
1024.52
1025.26
1025.71
1025.98
1026.12
1026.2
1026.23
1026.21
1026.22
1026.29
1026.3
1026.26
1026.2
1026.2
1026.22
1026.22
1026.23
1026.25
1026.33
1026.42
1026.53
1026.66
1026.79
1026.89
1026.97
1027.03
1027.08
1027.1
1027.1
1027.1
1027.1
1027.1
1.16327
1.16271
1.16291
1.16249
1.164
1.1649
1.16563
1.16597
1.16669
1.16788
1.16871
1.16888
1.1689
1.1689
1.16891
1.16891
1.16891
1.16891
1.16891
1.16891
1.16892
1.16892
1.16892
1.16892
1.16892
1.16892
1.16893
1.16893
1.16893
1.16893
1.16893
1.16893
1.16894
1.16894
1.16894
1.16894
1.16894
1.16894
1.16894
1.16895
1.16895
1.16896
1.16895
1.16896
1.16895
1.16897
1.16895
1.16899
1.16901
1.16939
1.1703
1.17403
1.18197
1.19143
1.22021
1.38649
1.49067
1.4588
1.169
490.472
996.629
1000.46
1000.54
1002.66
1003.8
1004.66
1004.84
1004.44
1003.05
1002.44
1002.33
1002.57
1003.42
1004.41
1004.67
1004.56
1004.4
1004.44
1004.48
1004.1
1003.57
1003.36
1003.31
1004.38
1006.39
1008.25
1010.16
1011.88
1012.64
1014.72
1017.84
1021.25
1025
1027
1026.9
1026.34
1.1633
1.16271
1.16264
1.1622
1.16277
1.16352
1.16489
1.16581
1.16681
1.1681
1.16876
1.16889
1.1689
1.1689
1.16891
1.16891
1.16891
1.16891
1.16891
1.16891
1.16892
1.16892
1.16892
1.16892
1.16892
1.16892
1.16893
1.16893
1.16893
1.16893
1.16893
1.16893
1.16894
1.16894
1.16894
1.16894
1.16894
1.16894
1.16895
1.16895
1.16895
1.16896
1.16895
1.16896
1.16895
1.16897
1.16895
1.16898
1.169
1.16933
1.17014
1.174
1.18214
1.19451
1.25322
1.4196
1.46933
1.48964
1.169
527.501
983.951
988.043
987.487
987.57
986.654
985.958
984.76
983.758
983.055
982.372
981.253
980.407
979.645
978.89
978.303
977.698
976.963
975.791
973.742
970.235
965.8
962.054
959.988
959.316
959.178
959.202
958.433
953.574
945.07
936.354
928.692
920.54
908.261
884.091
829.339
628.183
1.16294
1.16326
1.16254
1.16218
1.16219
1.16283
1.16445
1.16585
1.16719
1.1683
1.16878
1.16889
1.1689
1.16891
1.16891
1.16891
1.16891
1.16891
1.16891
1.16892
1.16892
1.16892
1.16892
1.16892
1.16892
1.16893
1.16893
1.16893
1.16893
1.16893
1.16893
1.16894
1.16894
1.16894
1.16894
1.16894
1.16894
1.16895
1.16895
1.16895
1.16895
1.16896
1.16895
1.16896
1.16895
1.16897
1.16895
1.16899
1.16901
1.16928
1.16996
1.17365
1.18206
1.20064
1.2274
1.28804
1.39986
1.60468
1.169
261.951
1011.59
1023.88
1024.84
1025.24
1025.25
1025.21
1024.91
1024.84
1024.97
1025.05
1025.09
1025.09
1025.04
1024.83
1024.6
1024.36
1024.07
1023.82
1023.7
1023.6
1023.13
1022.39
1021.86
1021.54
1021.37
1021.26
1021.08
1020.18
1018.9
1017.45
1016
1014.86
1014.34
1015.38
1017.52
1019.62
1.16286
1.16393
1.16268
1.16236
1.16194
1.16257
1.16423
1.16593
1.16754
1.16844
1.1688
1.16888
1.1689
1.16891
1.16891
1.16891
1.16891
1.16891
1.16892
1.16892
1.16892
1.16892
1.16892
1.16892
1.16893
1.16893
1.16893
1.16893
1.16893
1.16893
1.16894
1.16894
1.16894
1.16894
1.16894
1.16894
1.16895
1.16895
1.16895
1.16895
1.16895
1.16896
1.16895
1.16897
1.16895
1.16897
1.16895
1.16898
1.16897
1.16917
1.1698
1.17291
1.18143
1.2007
1.24302
1.29527
1.32088
1.67068
1.25296
119.358
1011.48
1027.06
1027.06
1027.08
1027.08
1027.08
1027.08
1027.09
1027.09
1027.09
1027.09
1027.09
1027.09
1027.09
1027.09
1027.08
1027.08
1027.08
1027.07
1027.07
1027.07
1027.07
1027.07
1027.06
1027.06
1027.06
1027.07
1027.07
1027.07
1027.06
1027.05
1027.04
1027.04
1027.06
1027.08
1027.1
1.16281
1.16454
1.16406
1.1643
1.16367
1.16407
1.16529
1.16685
1.16793
1.16853
1.1688
1.16889
1.1689
1.16891
1.16891
1.16891
1.16891
1.16891
1.16891
1.16892
1.16892
1.16892
1.16892
1.16892
1.16893
1.16893
1.16893
1.16893
1.16893
1.16893
1.16894
1.16894
1.16894
1.16894
1.16894
1.16894
1.16895
1.16895
1.16895
1.16895
1.16895
1.16896
1.16895
1.16897
1.16896
1.16897
1.16895
1.16898
1.16895
1.16913
1.16974
1.17233
1.18041
1.19354
1.2445
1.31222
1.3623
1.75898
1.35154
52.7945
957.142
1027.1
1027.09
1027.1
1027.09
1027.1
1027.1
1027.1
1027.1
1027.1
1027.1
1027.1
1027.1
1027.1
1027.1
1027.1
1027.1
1027.1
1027.1
1027.1
1027.1
1027.1
1027.1
1027.1
1027.1
1027.1
1027.1
1027.1
1027.1
1027.1
1027.1
1027.1
1027.1
1027.1
1027.1
1027.1
1.16236
1.16487
1.16514
1.16551
1.16569
1.16646
1.16707
1.16751
1.16818
1.16859
1.16881
1.16889
1.1689
1.16891
1.16891
1.16891
1.16891
1.16891
1.16891
1.16892
1.16892
1.16892
1.16892
1.16892
1.16893
1.16893
1.16893
1.16893
1.16893
1.16893
1.16893
1.16894
1.16894
1.16894
1.16894
1.16894
1.16894
1.16895
1.16895
1.16895
1.16895
1.16896
1.16895
1.16897
1.16896
1.16897
1.16895
1.16898
1.16895
1.16911
1.16967
1.17211
1.18022
1.19589
1.25774
1.29714
1.33824
1.88956
1.60014
28.7369
931.245
1027.1
1027.09
1027.09
1027.09
1027.1
1027.1
1027.1
1027.1
1027.1
1027.1
1027.1
1027.1
1027.1
1027.1
1027.1
1027.1
1027.1
1027.1
1027.1
1027.1
1027.1
1027.1
1027.1
1027.1
1027.1
1027.1
1027.1
1027.1
1027.1
1027.1
1027.1
1027.1
1027.1
1027.1
1027.1
1.16242
1.16498
1.1656
1.16617
1.16679
1.16746
1.16783
1.16795
1.16841
1.16869
1.16885
1.16889
1.1689
1.1689
1.16891
1.16891
1.16891
1.16891
1.16891
1.16892
1.16892
1.16892
1.16892
1.16892
1.16892
1.16893
1.16893
1.16893
1.16893
1.16893
1.16893
1.16894
1.16894
1.16894
1.16894
1.16894
1.16894
1.16895
1.16895
1.16895
1.16895
1.16896
1.16895
1.16896
1.16895
1.16897
1.16895
1.16898
1.16895
1.1691
1.16963
1.17246
1.18199
1.20401
1.22268
1.26753
1.37717
2.0004
2.11481
30.2263
940.826
1027.09
1027.09
1027.09
1027.1
1027.1
1027.1
1027.1
1027.1
1027.1
1027.1
1027.1
1027.1
1027.1
1027.1
1027.1
1027.1
1027.1
1027.1
1027.1
1027.1
1027.1
1027.1
1027.1
1027.1
1027.1
1027.1
1027.1
1027.1
1027.1
1027.1
1027.1
1027.1
1027.1
1027.1
1027.1
1.16274
1.16505
1.16579
1.16645
1.16717
1.16782
1.16817
1.16835
1.16866
1.16882
1.16889
1.1689
1.1689
1.1689
1.16891
1.16891
1.16891
1.16891
1.16891
1.16891
1.16891
1.16892
1.16892
1.16892
1.16892
1.16892
1.16892
1.16892
1.16893
1.16893
1.16893
1.16893
1.16893
1.16893
1.16894
1.16894
1.16894
1.16894
1.16894
1.16895
1.16895
1.16895
1.16895
1.16896
1.16895
1.16896
1.16895
1.16897
1.16895
1.16914
1.16979
1.17342
1.18464
1.20858
1.21966
1.24093
1.4726
2.10449
2.33587
34.7053
948.518
1027.09
1027.1
1027.1
1027.1
1027.1
1027.1
1027.1
1027.1
1027.1
1027.1
1027.1
1027.1
1027.1
1027.1
1027.1
1027.1
1027.1
1027.1
1027.1
1027.1
1027.1
1027.1
1027.1
1027.1
1027.1
1027.1
1027.1
1027.1
1027.1
1027.1
1027.1
1027.1
1027.1
1027.1
1027.1
1.16194
1.16475
1.16577
1.16647
1.1672
1.1679
1.16838
1.16867
1.16881
1.16887
1.16889
1.1689
1.1689
1.1689
1.1689
1.1689
1.16891
1.16891
1.16891
1.16891
1.16891
1.16891
1.16891
1.16892
1.16892
1.16892
1.16892
1.16892
1.16892
1.16893
1.16893
1.16893
1.16893
1.16893
1.16893
1.16893
1.16894
1.16894
1.16894
1.16894
1.16894
1.16895
1.16895
1.16895
1.16895
1.16896
1.16895
1.16897
1.16896
1.16922
1.16999
1.17379
1.18564
1.20827
1.22136
1.25258
1.56991
2.24461
3.29628
45.0507
945.551
1026.72
1027.09
1027.1
1027.1
1027.1
1027.1
1027.1
1027.1
1027.1
1027.1
1027.1
1027.1
1027.1
1027.1
1027.1
1027.1
1027.1
1027.1
1027.1
1027.1
1027.1
1027.1
1027.1
1027.1
1027.1
1027.1
1027.1
1027.1
1027.1
1027.1
1027.1
1027.1
1027.1
1027.1
1027.1
1.16111
1.16432
1.16545
1.16625
1.16692
1.16765
1.16815
1.16852
1.16871
1.16883
1.16888
1.1689
1.1689
1.16891
1.16891
1.16891
1.16891
1.16891
1.16892
1.16892
1.16892
1.16892
1.16892
1.16892
1.16893
1.16893
1.16893
1.16893
1.16893
1.16893
1.16894
1.16894
1.16894
1.16894
1.16894
1.16895
1.16895
1.16895
1.16895
1.16896
1.16896
1.16896
1.16896
1.16897
1.16896
1.16897
1.16895
1.169
1.16898
1.16926
1.17019
1.1743
1.18423
1.20487
1.21693
1.29166
1.47059
2.29787
4.24584
61.7081
926.327
1025.72
1027.09
1027.1
1027.1
1027.1
1027.1
1027.1
1027.1
1027.1
1027.1
1027.1
1027.1
1027.1
1027.1
1027.1
1027.1
1027.1
1027.1
1027.1
1027.1
1027.1
1027.1
1027.1
1027.1
1027.1
1027.1
1027.1
1027.1
1027.1
1027.1
1027.1
1027.1
1027.1
1027.1
1027.1
1.16799
1.16811
1.16819
1.16824
1.16828
1.16831
1.16836
1.16842
1.16852
1.16868
1.16884
1.16889
1.1689
1.16891
1.16891
1.16891
1.16891
1.16891
1.16891
1.16892
1.16892
1.16892
1.16892
1.16892
1.16892
1.16893
1.16893
1.16893
1.16893
1.16893
1.16893
1.16894
1.16894
1.16894
1.16894
1.16894
1.16894
1.16895
1.16895
1.16895
1.16895
1.16896
1.16895
1.16896
1.16896
1.16896
1.16895
1.16898
1.16896
1.16912
1.16965
1.17332
1.18457
1.21243
1.2322
1.28737
1.35967
2.05339
5.24152
69.8371
949.715
1026.18
1027.09
1027.09
1027.1
1027.1
1027.1
1027.1
1027.1
1027.1
1027.1
1027.1
1027.1
1027.1
1027.1
1027.1
1027.1
1027.1
1027.1
1027.1
1027.1
1027.1
1027.1
1027.1
1027.1
1027.1
1027.1
1027.1
1027.1
1027.1
1027.1
1027.1
1027.1
1027.1
1027.1
1027.1
1.1677
1.1679
1.168
1.16799
1.16809
1.1681
1.16813
1.16821
1.16831
1.16849
1.16873
1.16886
1.1689
1.16891
1.16891
1.16891
1.16891
1.16891
1.16891
1.16892
1.16892
1.16892
1.16892
1.16892
1.16892
1.16893
1.16893
1.16893
1.16893
1.16893
1.16893
1.16894
1.16894
1.16894
1.16894
1.16894
1.16894
1.16895
1.16895
1.16895
1.16895
1.16896
1.16895
1.16896
1.16895
1.16897
1.16895
1.16899
1.16897
1.16932
1.17019
1.17332
1.18478
1.21124
1.22897
1.27615
1.41876
2.00945
3.78997
54.4833
960.623
1026.73
1027.09
1027.09
1027.09
1027.1
1027.1
1027.1
1027.1
1027.1
1027.1
1027.1
1027.1
1027.1
1027.1
1027.1
1027.1
1027.1
1027.1
1027.1
1027.1
1027.1
1027.1
1027.1
1027.1
1027.1
1027.1
1027.1
1027.1
1027.1
1027.1
1027.1
1027.1
1027.1
1027.1
1027.1
1.16719
1.16773
1.16779
1.1677
1.16791
1.16791
1.16798
1.16806
1.16821
1.16841
1.16867
1.16884
1.16889
1.1689
1.1689
1.16891
1.16891
1.16891
1.16891
1.16891
1.16891
1.16892
1.16892
1.16892
1.16892
1.16892
1.16892
1.16893
1.16893
1.16893
1.16893
1.16893
1.16893
1.16894
1.16894
1.16894
1.16894
1.16895
1.16894
1.16895
1.16895
1.16896
1.16895
1.16896
1.16895
1.16897
1.16895
1.16899
1.16897
1.16947
1.1706
1.17339
1.18579
1.21281
1.22617
1.27824
1.35497
1.86643
2.01533
52.9613
992.261
1027.08
1027.09
1027.09
1027.09
1027.1
1027.1
1027.1
1027.1
1027.1
1027.1
1027.1
1027.1
1027.1
1027.1
1027.1
1027.1
1027.1
1027.1
1027.1
1027.1
1027.1
1027.1
1027.1
1027.1
1027.1
1027.1
1027.1
1027.1
1027.1
1027.1
1027.1
1027.1
1027.1
1027.1
1027.1
1.16634
1.16793
1.16759
1.16745
1.16764
1.16765
1.16778
1.16786
1.16809
1.16838
1.16866
1.16883
1.16889
1.1689
1.1689
1.1689
1.1689
1.1689
1.16891
1.16891
1.16891
1.16891
1.16891
1.16891
1.16892
1.16892
1.16892
1.16892
1.16892
1.16892
1.16893
1.16893
1.16893
1.16893
1.16893
1.16893
1.16894
1.16894
1.16894
1.16894
1.16894
1.16895
1.16894
1.16896
1.16895
1.16896
1.16895
1.16899
1.16899
1.16961
1.17096
1.1741
1.18039
1.21252
1.24416
1.30869
1.31798
1.78892
1.72711
54.2001
1001.73
1027.09
1027.09
1027.09
1027.09
1027.1
1027.1
1027.1
1027.1
1027.1
1027.1
1027.1
1027.1
1027.1
1027.1
1027.1
1027.1
1027.1
1027.1
1027.1
1027.1
1027.1
1027.1
1027.1
1027.1
1027.1
1027.1
1027.1
1027.1
1027.1
1027.1
1027.1
1027.1
1027.1
1027.1
1027.1
1.16541
1.16799
1.16764
1.16781
1.16752
1.16745
1.1676
1.16771
1.16802
1.16838
1.16869
1.16885
1.16889
1.1689
1.1689
1.1689
1.1689
1.16891
1.16891
1.16891
1.16891
1.16891
1.16891
1.16892
1.16892
1.16892
1.16892
1.16892
1.16892
1.16892
1.16893
1.16893
1.16893
1.16893
1.16893
1.16893
1.16894
1.16894
1.16894
1.16894
1.16894
1.16895
1.16894
1.16896
1.16895
1.16896
1.16895
1.16898
1.16899
1.16977
1.17141
1.17426
1.17815
1.20565
1.2607
1.31936
1.35426
1.67302
1.69958
93.0064
1007.76
1026.96
1027
1027.05
1027.07
1027.09
1027.09
1027.09
1027.1
1027.1
1027.1
1027.1
1027.1
1027.1
1027.1
1027.1
1027.1
1027.1
1027.1
1027.1
1027.1
1027.1
1027.1
1027.1
1027.1
1027.1
1027.1
1027.1
1027.1
1027.1
1027.1
1027.1
1027.1
1027.1
1027.1
1027.1
1.16421
1.16552
1.1673
1.168
1.16804
1.16782
1.16757
1.16765
1.16812
1.1685
1.16876
1.16887
1.1689
1.1689
1.1689
1.16891
1.16891
1.16891
1.16891
1.16891
1.16891
1.16891
1.16891
1.16891
1.16891
1.16892
1.16892
1.16892
1.16892
1.16892
1.16892
1.16893
1.16893
1.16893
1.16893
1.16893
1.16893
1.16894
1.16894
1.16894
1.16894
1.16895
1.16894
1.16895
1.16895
1.16896
1.16895
1.16896
1.16897
1.16973
1.1716
1.17483
1.179
1.20369
1.23997
1.30624
1.40803
1.61888
1.65041
178.138
1012.14
1025.83
1026.15
1026.34
1026.48
1026.61
1026.68
1026.76
1026.84
1026.88
1026.9
1026.93
1026.96
1026.99
1027.02
1027.04
1027.05
1027.07
1027.08
1027.09
1027.1
1027.1
1027.1
1027.1
1027.1
1027.1
1027.1
1027.1
1027.1
1027.1
1027.1
1027.1
1027.1
1027.1
1027.1
1027.1
1.16347
1.16291
1.16384
1.16505
1.16692
1.16789
1.16825
1.16804
1.16832
1.16869
1.16885
1.16889
1.1689
1.1689
1.16891
1.16891
1.16891
1.16892
1.16892
1.16892
1.16892
1.16892
1.16892
1.16893
1.16893
1.16893
1.16893
1.16893
1.16893
1.16894
1.16894
1.16894
1.16894
1.16894
1.16894
1.16895
1.16895
1.16895
1.16895
1.16895
1.16895
1.16896
1.16896
1.16896
1.16896
1.16897
1.16895
1.16898
1.16897
1.16965
1.17134
1.17382
1.17958
1.19812
1.22934
1.40279
1.51664
1.53747
1.52735
283.806
1014.43
1023.87
1024.79
1024.87
1024.86
1024.7
1024.68
1024.79
1024.86
1025.06
1025.32
1025.63
1026.13
1026.52
1026.75
1026.92
1027.04
1027.09
1027.09
1027.07
1027.07
1027.09
1027.1
1027.1
1027.1
1027.1
1027.1
1027.1
1027.1
1027.1
1027.1
1027.1
1027.09
1027.1
1027.1
1027.1
1.1623
1.16231
1.16293
1.16358
1.16517
1.16663
1.1677
1.16814
1.16835
1.16862
1.16885
1.16888
1.16889
1.16889
1.1689
1.1689
1.1689
1.1689
1.16891
1.16891
1.16891
1.16891
1.16891
1.16892
1.16892
1.16892
1.16892
1.16892
1.16892
1.16893
1.16893
1.16893
1.16893
1.16893
1.16893
1.16893
1.16894
1.16894
1.16894
1.16894
1.16894
1.16895
1.16895
1.16895
1.16895