/*--------------------------------*- C++ -*----------------------------------*\
| =========                 |                                                 |
| \\      /  F ield         | OpenFOAM: The Open Source CFD Toolbox           |
|  \\    /   O peration     | Version:  2.3.0                                 |
|   \\  /    A nd           | Web:      www.OpenFOAM.org                      |
|    \\/     M anipulation  |                                                 |
\*---------------------------------------------------------------------------*/
FoamFile
{
    version     2.0;
    format      ascii;
    class       volVectorField;
    location    "14";
    object      U;
}
// * * * * * * * * * * * * * * * * * * * * * * * * * * * * * * * * * * * * * //

dimensions      [0 1 -1 0 0 0 0];

internalField   nonuniform List<vector> 
6144
(
(0.00753805 0.0156261 -0.000302028)
(0.00832932 -0.00188208 0.00013737)
(0.00267463 -0.00439733 -0.000171059)
(0.00355839 -0.00511364 -0.000105438)
(0.00159624 -0.00781914 0.000637546)
(0.0018916 -0.00588792 0.000853092)
(0.00136283 -0.00650711 0.00085954)
(0.00157076 -0.00480596 0.000667629)
(0.00151402 -0.00402207 -0.000255082)
(0.0016935 -0.00194516 -0.000570591)
(0.00184061 -0.000392104 -0.000539969)
(0.00213669 0.000867491 -0.000271975)
(0.00241845 0.00113688 -0.000150981)
(0.0026222 0.00109462 -9.63275e-05)
(0.00274329 0.000751351 -0.000205352)
(0.00281827 0.000469991 -0.000302443)
(0.00286788 0.000185068 -0.000432903)
(0.00289917 1.73516e-05 -0.000520695)
(0.00292291 -0.000128798 -0.000605464)
(0.00294174 -0.000189122 -0.000657356)
(0.0029516 -0.00024157 -0.0007005)
(0.00296323 -0.000250203 -0.000723423)
(0.0029668 -0.000257637 -0.000740406)
(0.00297148 -0.00024554 -0.000746861)
(0.00297204 -0.000234212 -0.000749426)
(0.00297228 -0.000216136 -0.000747275)
(0.00297078 -0.000198362 -0.000743197)
(0.00296856 -0.00017913 -0.000737255)
(0.00296557 -0.000158535 -0.00073071)
(0.00296144 -0.000141811 -0.000723093)
(0.00295935 -0.000109123 -0.000715855)
(0.00294874 -0.000113423 -0.000709659)
(0.00295553 -3.25797e-05 -0.00069749)
(0.00292567 -0.000107242 -0.000699109)
(0.0029582 9.15691e-05 -0.000669999)
(0.00289604 -0.000145038 -0.000687712)
(0.00295675 0.000304635 -0.000633772)
(0.00285911 -0.00028091 -0.000676336)
(0.00294584 0.000654148 -0.000576905)
(0.00281307 -0.000569927 -0.000656368)
(0.00292334 0.00119604 -0.00045921)
(0.00275924 -0.00111731 -0.000603522)
(0.00287456 0.00188827 -0.00025402)
(0.00269663 -0.00202722 -0.000486936)
(0.00271841 0.00254148 -8.76295e-05)
(0.00260892 -0.00307262 -0.000278123)
(0.00217752 0.00328881 -0.000367296)
(0.00228173 -0.00249001 -0.000467835)
(0.00154105 0.00678667 -0.00153437)
(0.00252595 0.00116751 -0.00164787)
(0.00528273 0.0147179 -0.00184631)
(0.0077119 -0.00884661 -0.00174907)
(0.00604726 0.0119832 -0.00158614)
(0.0026205 -0.0158206 -0.00380351)
(0.00325894 0.0386919 -0.00662896)
(0.00300242 -0.0275097 -0.0111599)
(0.0133814 0.0715183 -0.00627164)
(0.0121635 -0.0482361 -0.0275855)
(-0.0317792 0.119248 -0.0693792)
(0.0712251 0.0510823 -0.117252)
(0.136182 -0.234697 -0.0263567)
(0.0849239 -0.0953332 -0.0112334)
(0.035168 -0.164871 -0.00389647)
(0.0349542 -0.176889 0.00118227)
(0.0289435 -0.178607 0.00453536)
(0.0210254 -0.186787 0.00672026)
(0.0150136 -0.194804 0.00795428)
(0.0108683 -0.200201 0.00832869)
(0.00796739 -0.202946 0.00812026)
(0.00553508 -0.203787 0.00756475)
(0.00340849 -0.203287 0.00683448)
(0.00169642 -0.201487 0.00594442)
(0.000232023 -0.198553 0.00499069)
(-0.000669096 -0.194205 0.00410253)
(-0.00171262 -0.188958 0.00310323)
(-0.00277423 -0.182376 0.00222312)
(-0.00387024 -0.174356 0.000994538)
(-0.00520495 -0.164528 -0.000226966)
(-0.00576095 -0.152178 -0.00125742)
(-0.00538263 -0.138948 -0.0024231)
(-0.00492486 -0.125906 -0.00351235)
(-0.00365107 -0.1113 -0.00498378)
(-0.00341014 -0.0964269 -0.00656845)
(-0.00308531 -0.0827831 -0.00754645)
(0.00165516 -0.0683572 -0.00799044)
(0.00444651 -0.0525022 -0.00735883)
(0.00245031 -0.0380191 -0.00536954)
(-0.0010038 -0.0246117 -0.00285397)
(-0.00344572 -0.0120762 -0.00113522)
(-0.00641506 0.00105455 -0.000809997)
(-0.0031494 0.0161833 5.65512e-05)
(0.0046089 0.0223848 -0.00784214)
(0.00531865 0.031203 -0.0113392)
(0.00437149 0.0378178 -0.00744832)
(0.00153988 0.0302452 0.00831499)
(0.00468136 0.0189902 0.0185574)
(0.0161816 0.0176081 0.00266682)
(0.018076 0.00420272 0.00352904)
(0.0057046 -0.00019452 0.00168523)
(0.00892511 -0.00031751 0.00173962)
(0.00259767 -0.00508174 0.00325029)
(0.00391323 -0.00165248 0.00312228)
(0.00196695 -0.00356153 0.0042078)
(0.00260472 -0.00121059 0.00376204)
(0.00231133 -0.00146027 0.00354083)
(0.00254765 0.000265865 0.00299137)
(0.00286789 0.00121212 0.0028025)
(0.00355863 0.00223132 0.00309148)
(0.00422982 0.00216842 0.00334634)
(0.0047178 0.00191154 0.0034709)
(0.00498166 0.00136247 0.00337407)
(0.00513953 0.000970959 0.0032585)
(0.00521898 0.00058716 0.00310502)
(0.00527152 0.000370515 0.00300257)
(0.00530212 0.000182877 0.00291219)
(0.00532513 0.00010349 0.00286299)
(0.00533817 3.61739e-05 0.00282967)
(0.0053494 2.51273e-05 0.00282012)
(0.00535345 1.45088e-05 0.00282031)
(0.00535571 3.19276e-05 0.00283227)
(0.00535382 4.66128e-05 0.00284941)
(0.00535012 7.15596e-05 0.00287235)
(0.00534383 9.55315e-05 0.00289711)
(0.00533593 0.000121845 0.00292384)
(0.00532655 0.000148658 0.00295093)
(0.00531515 0.000174053 0.00297773)
(0.00530631 0.000208222 0.00300342)
(0.00528414 0.000218824 0.00302631)
(0.00528985 0.000295025 0.00305236)
(0.00523592 0.000243804 0.00306747)
(0.00528033 0.000435265 0.00311058)
(0.00516539 0.000209114 0.00310738)
(0.00527319 0.000671654 0.00317921)
(0.0050707 5.5746e-05 0.00314165)
(0.00525278 0.0010585 0.00326978)
(0.00494431 -0.000284614 0.00317805)
(0.005223 0.00166163 0.00342686)
(0.00479219 -0.000960734 0.00324861)
(0.00519447 0.00248135 0.00368243)
(0.00461504 -0.00218372 0.0033635)
(0.00501901 0.00337402 0.00387568)
(0.00437641 -0.00392937 0.00344074)
(0.0040043 0.00424172 0.00322012)
(0.0036261 -0.00460981 0.00297219)
(0.00158313 0.00632966 0.000751767)
(0.00409178 -0.00167896 0.00180043)
(0.0083964 0.0103491 0.000501899)
(0.0124531 -0.00460996 0.00178377)
(0.0106188 0.0186475 0.00463867)
(-0.000577605 -0.0143739 0.000933474)
(0.0116891 0.0498907 0.00209114)
(0.0290234 -0.0486479 -0.00139948)
(-0.0267739 0.0444979 0.0149527)
(-0.0259615 -0.0264365 -0.00474534)
(-0.013052 0.178281 -0.00122829)
(0.180266 -0.0196433 -0.0602144)
(0.194709 -0.184168 -0.0256724)
(0.0566096 0.0984548 0.0030308)
(-0.0217899 -0.121321 0.0114266)
(-0.00720017 -0.0824178 0.0131525)
(-0.00917263 -0.104642 0.0147545)
(-0.017273 -0.129574 0.0167507)
(-0.0208067 -0.143637 0.0162313)
(-0.0216006 -0.154043 0.0150253)
(-0.021347 -0.162132 0.0136914)
(-0.0207391 -0.167995 0.0120161)
(-0.0201442 -0.171519 0.0102638)
(-0.0193502 -0.172674 0.00851912)
(-0.0185 -0.171967 0.00706433)
(-0.0174776 -0.169729 0.00561633)
(-0.0166701 -0.166836 0.00402479)
(-0.0161429 -0.162287 0.0024454)
(-0.0161526 -0.156102 0.000514908)
(-0.0166777 -0.147784 -0.000686721)
(-0.0158601 -0.135712 -0.00184808)
(-0.015146 -0.122538 -0.00324462)
(-0.0148715 -0.111041 -0.00470434)
(-0.0114414 -0.0984553 -0.00693723)
(-0.00766534 -0.082307 -0.00694449)
(-0.00703512 -0.065993 -0.0077041)
(-0.0101441 -0.0428032 -0.00915403)
(-0.0110959 -0.0197303 -0.00405081)
(-0.00854253 -0.00869988 0.000992324)
(-0.00736046 -0.00264639 0.00240272)
(-0.00874948 0.000205561 0.00127465)
(-0.0109863 0.00504224 -0.000783927)
(-0.00773036 0.010655 0.00156393)
(-0.00126121 0.0147642 -0.000495349)
(0.00165567 0.0239939 -0.00265863)
(-0.00163797 0.0317348 0.00507489)
(-0.00526031 0.0246389 0.0188241)
(-0.00165074 0.0126187 0.0290715)
(0.0209696 0.0198719 0.00294809)
(0.0244774 0.00885731 0.0025449)
(0.00851148 0.00200004 -0.00137541)
(0.0131644 0.00326662 -0.00111218)
(0.00275535 -0.00380375 0.00097554)
(0.00422864 0.000567932 0.00156081)
(0.000844163 -0.00229756 0.00365379)
(0.00167365 0.00108085 0.00379547)
(0.0012828 0.00066033 0.00448642)
(0.00136418 0.00215503 0.004407)
(0.00168622 0.00245643 0.00420271)
(0.00270565 0.00325948 0.00439012)
(0.00361552 0.00294065 0.00467806)
(0.00425271 0.00258574 0.00484555)
(0.0044753 0.00192336 0.00488602)
(0.00457888 0.00148797 0.00487889)
(0.00455837 0.00105339 0.00485552)
(0.00454891 0.000815887 0.00484558)
(0.00450957 0.000605087 0.00484785)
(0.00448682 0.00051138 0.00486343)
(0.00445882 0.000430166 0.0048877)
(0.00444017 0.000407165 0.00491892)
(0.00441898 0.000388882 0.00495414)
(0.00440124 0.00039777 0.00499207)
(0.0043829 0.000407693 0.00502993)
(0.00436494 0.000428072 0.0050695)
(0.00434577 0.000448619 0.005108)
(0.00432601 0.000471894 0.0051457)
(0.00430541 0.000495682 0.00518172)
(0.00428387 0.000519605 0.00521638)
(0.00426233 0.000548306 0.00524872)
(0.00423231 0.000565897 0.00527523)
(0.00422278 0.000622769 0.00530223)
(0.00416732 0.000594694 0.00532034)
(0.00420025 0.000745378 0.00535465)
(0.00407368 0.000569854 0.00535369)
(0.00419631 0.000960337 0.00540335)
(0.00394678 0.000431001 0.00537638)
(0.00419491 0.00131404 0.00545198)
(0.00378203 9.97596e-05 0.00538428)
(0.00422131 0.00185596 0.00551831)
(0.00360747 -0.000566454 0.00537767)
(0.00434046 0.0026085 0.00561823)
(0.00342976 -0.00177421 0.00534506)
(0.00443153 0.0035616 0.00568248)
(0.00314431 -0.00354775 0.00527447)
(0.00336016 0.00460851 0.00517153)
(0.00237543 -0.00479048 0.00508108)
(4.73538e-06 0.00633174 0.00293991)
(0.00374199 -0.003803 0.00447797)
(0.00598318 0.00917005 0.0036183)
(0.0112808 -0.00119667 0.0035214)
(0.0112617 0.0276405 0.00814403)
(-0.0058598 -0.0247502 0.00323923)
(0.023222 0.0379584 0.00359745)
(0.0345784 -0.0527146 -0.00296765)
(-0.0538547 0.0836258 0.027563)
(-0.0680545 -0.118142 -0.00975246)
(-0.0719171 0.178438 -0.0350254)
(0.178581 -0.02849 -0.0406382)
(0.216446 -0.139095 -0.0254531)
(0.086007 0.137529 0.00537672)
(0.0892884 -0.107779 0.0199109)
(0.0396189 -0.0392418 0.0226225)
(0.015252 -0.0752071 0.0234424)
(0.00535287 -0.0990382 0.0227931)
(-0.00217288 -0.111347 0.0195595)
(-0.00836538 -0.120654 0.0166876)
(-0.0126652 -0.127962 0.0143546)
(-0.0153073 -0.132862 0.0121067)
(-0.0165958 -0.135323 0.00972763)
(-0.0173325 -0.135989 0.00757462)
(-0.0175525 -0.135414 0.0055505)
(-0.0177116 -0.133415 0.00328996)
(-0.0187414 -0.131128 0.000989979)
(-0.0193017 -0.127861 -0.00168787)
(-0.021314 -0.122685 -0.00324108)
(-0.0235536 -0.116038 -0.00454609)
(-0.0203478 -0.10505 -0.00597475)
(-0.0156214 -0.0920808 -0.00660308)
(-0.0150753 -0.080224 -0.0123519)
(-0.0186065 -0.0565362 -0.0162739)
(-0.0220964 -0.0248317 -0.0110532)
(-0.0213721 -0.00635376 -0.00684825)
(-0.0158877 0.00582585 -0.00343859)
(-0.00769766 0.00971799 0.00110386)
(-0.00330618 0.0100233 0.00379951)
(-0.00299933 0.00837434 0.00471199)
(-0.00694656 0.00700641 0.00277297)
(-0.0108657 0.00700189 0.000107958)
(-0.0103394 0.00856328 0.000527742)
(-0.00377993 0.0116716 -0.000502023)
(-0.00177894 0.0194424 0.000450589)
(-0.00433635 0.0246912 0.00958986)
(-0.00996895 0.0210553 0.0210314)
(-0.0111836 0.00913221 0.0305414)
(0.0265084 0.0271386 0.00447904)
(0.031348 0.0158946 0.00306293)
(0.0142999 0.00620492 -0.00470077)
(0.0211214 0.00952105 -0.00306235)
(0.00723874 -0.00206293 -0.00397603)
(0.00754354 0.00254312 -0.00304669)
(0.000995002 -0.00391743 0.000298999)
(0.00066321 0.000688052 0.00142147)
(-0.000246347 1.05844e-05 0.00315399)
(0.000321598 0.0024092 0.00350094)
(0.000560101 0.00255238 0.00355231)
(0.001636 0.00346843 0.00401931)
(0.00261537 0.00320186 0.00450973)
(0.00323155 0.0029768 0.00480639)
(0.00341821 0.00238393 0.00492445)
(0.00347119 0.00198525 0.00497133)
(0.00342412 0.00155118 0.00499674)
(0.00338632 0.00130618 0.00502279)
(0.00333124 0.00108134 0.00505821)
(0.00329193 0.00097299 0.00509853)
(0.0032504 0.000879818 0.00514322)
(0.00322107 0.000844524 0.00518794)
(0.00319048 0.000816666 0.00522843)
(0.003166 0.000816248 0.00526736)
(0.00314093 0.000819432 0.00530478)
(0.0031161 0.000832827 0.00534073)
(0.00309228 0.000847237 0.00537458)
(0.00306907 0.000864944 0.00540554)
(0.00304581 0.000883581 0.00543284)
(0.00302187 0.000903539 0.00545705)
(0.00299758 0.000927862 0.0054794)
(0.00297153 0.00094892 0.00550285)
(0.00295635 0.000987083 0.00552639)
(0.00291249 0.000982912 0.0055379)
(0.00292861 0.00108976 0.00555207)
(0.00282648 0.000965249 0.00554585)
(0.00292808 0.00127317 0.00557676)
(0.00270999 0.000834885 0.00554457)
(0.0029515 0.00158164 0.00559865)
(0.0025666 0.000496179 0.00552416)
(0.0030325 0.00205223 0.00562974)
(0.00242221 -0.000194201 0.0054725)
(0.0032335 0.00273065 0.00570103)
(0.00224665 -0.00139339 0.00537027)
(0.00347029 0.00371905 0.00579927)
(0.00189344 -0.00296111 0.00525009)
(0.00247224 0.00510059 0.00542935)
(0.00106504 -0.00385998 0.00518907)
(-0.000900142 0.00765989 0.00385526)
(0.00248922 -0.00522763 0.00517161)
(0.00336594 0.0118682 0.00452253)
(0.00725016 -0.0103735 0.00439762)
(0.0139707 0.0250325 0.00568296)
(-0.00622732 -0.0232241 -0.0029724)
(0.0199492 0.0279507 0.0125569)
(0.0233301 -0.0360977 0.000473782)
(-0.00155847 0.0954117 0.0372778)
(-0.0790958 -0.136679 0.0332459)
(-0.0743452 0.178402 -0.11144)
(0.200587 -0.0886116 -0.0316669)
(0.243049 -0.118938 -0.0295786)
(0.0835113 0.117446 -0.00097479)
(0.0907244 -0.00616243 0.0144595)
(-0.00934184 0.0410417 0.0237256)
(-0.0088743 -0.0419945 0.0302927)
(-0.0132777 -0.0476468 0.0245392)
(-0.01833 -0.0654667 0.0173999)
(-0.0229883 -0.0783809 0.0123192)
(-0.0260623 -0.0871157 0.00866808)
(-0.0272552 -0.0929706 0.0056442)
(-0.0269597 -0.0962789 0.0027623)
(-0.0254545 -0.0971112 -0.000249352)
(-0.0218552 -0.0958555 -0.00302808)
(-0.0160306 -0.0926186 -0.0053392)
(-0.0117727 -0.0876998 -0.00807867)
(-0.0107098 -0.079905 -0.00932775)
(-0.013954 -0.0715812 -0.00929452)
(-0.0206907 -0.0626702 -0.0132588)
(-0.0261026 -0.0419872 -0.0166205)
(-0.0274307 -0.00974963 -0.0180626)
(-0.0268862 0.0123283 -0.0166726)
(-0.0243675 0.0290259 -0.010565)
(-0.0185952 0.0339166 -0.00389031)
(-0.0127012 0.0335035 0.000931046)
(-0.00792313 0.0301536 0.00467709)
(-0.00504568 0.0256347 0.00725454)
(-0.00476083 0.0216099 0.00798678)
(-0.00696537 0.0177076 0.00677489)
(-0.0112798 0.0139926 0.0035914)
(-0.0136914 0.0115281 0.00137679)
(-0.012689 0.00911073 0.000723302)
(-0.00909234 0.00951815 0.000818515)
(-0.0078444 0.0145194 0.00341271)
(-0.00969915 0.0181173 0.0116893)
(-0.0156738 0.0175909 0.0221166)
(-0.0192446 0.00700859 0.0313106)
(0.0284873 0.0327293 0.00634173)
(0.0366673 0.0234561 0.00687038)
(0.0210775 0.00924165 -0.00251991)
(0.0282776 0.0140101 0.00215328)
(0.015618 -0.00181484 -0.00506953)
(0.0162683 0.00519456 -0.0056001)
(0.00563198 -0.00355782 -0.00329359)
(0.0019527 0.00103527 -0.00136704)
(-0.00115544 -0.00172775 0.000920761)
(-0.00148773 0.000670075 0.0015732)
(-0.00102436 0.000777873 0.00221831)
(-7.53062e-06 0.00231225 0.00316201)
(0.000869516 0.00244815 0.00398331)
(0.00129982 0.00259165 0.00442322)
(0.00134411 0.00227826 0.00462382)
(0.00123413 0.00206926 0.00469586)
(0.00105033 0.00173729 0.00471162)
(0.000896289 0.0015387 0.00471984)
(0.000748852 0.00132585 0.00473285)
(0.000643429 0.00121468 0.00475628)
(0.000562228 0.00111565 0.00478609)
(0.00050281 0.00107516 0.00481496)
(0.000456319 0.00104152 0.00483715)
(0.000421919 0.00103358 0.00485439)
(0.000397701 0.00103081 0.00486422)
(0.000381214 0.00103926 0.0048725)
(0.000367853 0.00105087 0.0048773)
(0.000356795 0.00106765 0.00487944)
(0.000346954 0.001086 0.00487848)
(0.000336659 0.0011061 0.00487379)
(0.000323161 0.00112959 0.00486496)
(0.000308965 0.00114972 0.00485533)
(0.000293539 0.00118146 0.00483855)
(0.000271325 0.00119487 0.00482425)
(0.00028541 0.00127553 0.00482303)
(0.000224948 0.0011905 0.00480642)
(0.000309384 0.00144521 0.00482381)
(0.000142139 0.00107532 0.00477305)
(0.000364137 0.00174087 0.00481833)
(3.59895e-05 0.000740714 0.00471625)
(0.000494293 0.00219449 0.00482804)
(-6.69141e-05 5.81553e-05 0.00462872)
(0.000799668 0.00287089 0.00492425)
(-0.000201115 -0.00096209 0.004498)
(0.00109408 0.00389756 0.005079)
(-0.000461137 -0.00179574 0.0043914)
(-4.57543e-05 0.00558668 0.00475943)
(-0.00117183 -0.00179998 0.00441855)
(-0.00183449 0.00847023 0.00342955)
(0.000412622 -0.00515352 0.00483286)
(0.00544053 0.0129893 0.0029474)
(0.00438454 -0.0117078 0.00440931)
(0.0130727 0.0218493 0.00680568)
(-0.0024094 -0.0137313 0.00732181)
(0.0154765 0.0213429 0.0416069)
(0.00649379 -0.0569181 0.0339235)
(0.0104284 0.0628818 0.0685707)
(-0.105273 -0.11646 0.0538916)
(0.00499176 0.170202 -0.190836)
(0.131076 -0.110852 -0.0114134)
(0.210286 -0.0559787 -0.0306722)
(0.0818253 0.116465 -0.00298857)
(0.0970315 0.0590522 0.0109857)
(0.0478413 0.070539 0.0131945)
(0.0328319 0.0204149 0.0109069)
(0.00276153 0.00288925 0.00385864)
(-0.0021462 -0.0131762 -0.000430589)
(-0.00667252 -0.02604 -0.00338938)
(-0.00950964 -0.0338099 -0.00578947)
(-0.0110447 -0.0377083 -0.00880881)
(-0.0116415 -0.0373439 -0.0121342)
(-0.0115424 -0.0323451 -0.0158298)
(-0.0116372 -0.0203468 -0.0198315)
(-0.0130542 -0.00186832 -0.0198525)
(-0.0154911 0.0202346 -0.0181987)
(-0.0190114 0.0393136 -0.0169893)
(-0.022932 0.0522358 -0.0153818)
(-0.0255618 0.0626796 -0.0140738)
(-0.0245567 0.0712801 -0.0108427)
(-0.0199151 0.0737932 -0.00625526)
(-0.0150711 0.0724934 -0.00130349)
(-0.0113849 0.0687905 0.00351233)
(-0.00857474 0.062728 0.00740346)
(-0.00653763 0.0561102 0.0100961)
(-0.00518891 0.0490185 0.0115649)
(-0.00490333 0.042061 0.0117124)
(-0.00578777 0.035366 0.0104355)
(-0.00753511 0.0286717 0.00796617)
(-0.00995517 0.022056 0.00505257)
(-0.0110303 0.0158858 0.00348685)
(-0.0107843 0.0114553 0.00309227)
(-0.00996059 0.0105037 0.00351922)
(-0.0117047 0.013477 0.00632921)
(-0.0164392 0.0156901 0.0130602)
(-0.0246511 0.0156207 0.0226992)
(-0.0312659 0.00538296 0.0314924)
(0.0271333 0.0339772 0.00949569)
(0.0416388 0.0298482 0.0110713)
(0.0214278 0.00869377 0.00468004)
(0.0287016 0.0145885 0.010532)
(0.0184958 -0.00589682 0.00212698)
(0.0194045 0.00428497 -0.00397513)
(0.0109464 -0.00404949 -0.00456621)
(0.00523042 0.00241786 -0.0033552)
(0.000882386 -0.00141942 -0.000458058)
(-0.0018516 -4.69585e-06 -0.000137073)
(-0.00235738 -0.00137198 0.00067396)
(-0.00162353 -2.69277e-05 0.00189504)
(-0.000464888 0.000580922 0.0031775)
(0.000120634 0.00135404 0.00383738)
(0.000212559 0.00150791 0.00415274)
(0.000112869 0.00165956 0.00428423)
(-6.30964e-05 0.00157423 0.00431092)
(-0.000214943 0.00154089 0.00430666)
(-0.000357874 0.00143692 0.00428547)
(-0.000457011 0.00140329 0.0042595)
(-0.00052362 0.00135019 0.0042306)
(-0.000568034 0.00134085 0.00420311)
(-0.000592919 0.00132904 0.00417368)
(-0.000607229 0.0013368 0.00414233)
(-0.000613986 0.00134576 0.00410404)
(-0.000615674 0.00136278 0.00406415)
(-0.000613628 0.00138155 0.00402445)
(-0.000608561 0.00140246 0.00398662)
(-0.000602005 0.0014243 0.00394958)
(-0.000594639 0.00144768 0.00391247)
(-0.000585643 0.00147274 0.00387613)
(-0.00057506 0.00149624 0.00384395)
(-0.000569544 0.00152503 0.00381491)
(-0.000562874 0.0015402 0.00378993)
(-0.000553414 0.00159816 0.00376655)
(-0.000579346 0.00154722 0.00373831)
(-0.00051008 0.00175572 0.003745)
(-0.00061012 0.00144959 0.00370209)
(-0.00038309 0.00205138 0.00378337)
(-0.000625267 0.0011387 0.00368553)
(-0.000136584 0.00250776 0.00389686)
(-0.000614259 0.00060439 0.00367309)
(0.000224704 0.00323375 0.0041027)
(-0.000641545 7.79e-05 0.00363864)
(0.000220203 0.00441421 0.00423749)
(-0.000982557 0.000293805 0.00350068)
(-0.00123078 0.00641783 0.00374401)
(-0.00158753 0.000527787 0.0034656)
(-0.00117845 0.00866754 0.00297751)
(6.12207e-05 -0.00359892 0.00433785)
(0.00494425 0.0123488 0.00185422)
(0.00317796 -0.000257321 0.00345244)
(0.00655461 0.0262442 0.00594463)
(0.00381966 -0.000143857 0.0133118)
(0.00797855 0.0134802 0.047523)
(-0.0242626 -0.0348387 0.0523407)
(0.0122989 0.0208772 0.0703093)
(-0.073642 -0.100274 0.0667299)
(0.0392085 -0.0215722 -0.199325)
(0.0730026 -0.0818592 -0.00633022)
(0.170934 0.0163986 -0.039061)
(0.0781031 0.154269 -0.00854999)
(0.06754 0.151254 0.00852083)
(0.0410958 0.154621 0.00518104)
(0.0303341 0.141832 0.000135842)
(0.0183344 0.127794 -0.00562279)
(0.0120318 0.12146 -0.0084134)
(0.0057625 0.115098 -0.0105009)
(0.000461841 0.113826 -0.0115823)
(-0.00395143 0.115017 -0.0121492)
(-0.00739777 0.118482 -0.0122017)
(-0.00852638 0.124579 -0.0111791)
(-0.0108528 0.128555 -0.00950326)
(-0.011831 0.131455 -0.00762547)
(-0.0116984 0.133878 -0.00560062)
(-0.0102644 0.134643 -0.00351556)
(-0.0113371 0.132603 -0.000676335)
(-0.0113174 0.130066 0.00162924)
(-0.0102225 0.125044 0.00480005)
(-0.0092372 0.118282 0.00768366)
(-0.00862915 0.110498 0.0104726)
(-0.00786526 0.102352 0.0128635)
(-0.00756236 0.0932235 0.0146465)
(-0.00746314 0.0841853 0.0158089)
(-0.00759707 0.0744662 0.0160757)
(-0.00866614 0.0651017 0.0156925)
(-0.00997627 0.0559057 0.014748)
(-0.0108059 0.0463402 0.0135718)
(-0.0120041 0.0364878 0.0126042)
(-0.0133014 0.0267598 0.0117979)
(-0.0150802 0.0176553 0.0107827)
(-0.0166218 0.0116878 0.0104998)
(-0.0189495 0.00842684 0.0108419)
(-0.0218449 0.00733889 0.0130722)
(-0.0282884 0.00942038 0.0210223)
(-0.0359139 0.00197183 0.0300623)
(0.0225056 0.0284032 0.00629455)
(0.0432519 0.0335547 0.012335)
(0.0159922 0.00634681 0.00842035)
(0.0263076 0.0167795 0.0139759)
(0.013313 -0.00705773 0.00848302)
(0.0157672 0.00118079 0.00369928)
(0.0110308 -0.00646525 -0.00116406)
(0.00636974 0.000929687 -0.00347034)
(0.00211702 -0.000815283 -4.65723e-05)
(-0.00150922 0.000928305 0.000427173)
(-0.00304396 -0.00195406 0.000902555)
(-0.00387344 -0.00164685 0.0015041)
(-0.00338027 -0.001044 0.00253106)
(-0.00282573 0.000108401 0.00321351)
(-0.0027245 0.000598504 0.00354818)
(-0.00284516 0.00109567 0.00367742)
(-0.00304347 0.00126391 0.0037015)
(-0.00322203 0.00146299 0.00365425)
(-0.00338448 0.00152422 0.0035627)
(-0.00349811 0.00161182 0.00346651)
(-0.00357206 0.0016422 0.00337084)
(-0.00360661 0.00169304 0.00329123)
(-0.00360871 0.00171876 0.00322321)
(-0.0035902 0.00174942 0.00316801)
(-0.00355119 0.00177227 0.00311706)
(-0.00349633 0.00179868 0.00306826)
(-0.00343193 0.00182387 0.0030243)
(-0.00336532 0.0018494 0.00298771)
(-0.00330055 0.00187295 0.00295781)
(-0.00323922 0.00189392 0.00293486)
(-0.00318375 0.0019124 0.00291632)
(-0.00313366 0.0019258 0.00290055)
(-0.00309504 0.00194103 0.00288634)
(-0.00305431 0.00194854 0.00288051)
(-0.00302457 0.00197756 0.00287897)
(-0.0030016 0.00194234 0.00289198)
(-0.00295007 0.00208009 0.002925)
(-0.00297471 0.00182831 0.00296442)
(-0.00283698 0.0023346 0.00307374)
(-0.00293243 0.00155866 0.00311135)
(-0.00269185 0.00278661 0.00332572)
(-0.00290275 0.00122161 0.00328834)
(-0.00260537 0.00356428 0.00362143)
(-0.00295375 0.00113693 0.00346734)
(-0.00299983 0.00486499 0.00375368)
(-0.00328551 0.00169808 0.00340536)
(-0.00408688 0.00683719 0.00313227)
(-0.00330084 0.00147784 0.0031659)
(-0.00261443 0.00897309 0.00287329)
(-0.00208632 -0.002632 0.00393066)
(-0.00197392 0.0124208 0.00156005)
(-0.00232338 0.0033089 0.0017383)
(-0.000325561 0.0269896 0.0012221)
(0.00979886 0.00729057 0.0026699)
(0.006582 0.0277827 0.0296609)
(-0.0270506 -0.0316072 0.0527769)
(-0.00440806 -0.027297 0.0870684)
(-0.0113598 -0.110605 0.0901211)
(0.0411252 -0.157908 -0.202074)
(0.0389543 -0.101221 -0.0158939)
(0.0765318 0.119575 -0.0396039)
(0.0437538 0.243111 -0.00565517)
(0.0472175 0.269905 0.00663095)
(0.0404896 0.279766 0.0107854)
(0.0338606 0.279974 0.00831928)
(0.0291144 0.274045 0.00634868)
(0.0232989 0.267331 0.00464158)
(0.0189385 0.258441 0.0035396)
(0.0131824 0.249723 0.00256053)
(0.00941912 0.243886 0.00262067)
(0.00508867 0.236865 0.00269111)
(0.00281568 0.231893 0.00310866)
(0.000593428 0.226351 0.00415248)
(-0.00115844 0.221784 0.0058016)
(-0.00265423 0.216957 0.00698794)
(-0.00341021 0.21176 0.00796558)
(-0.0042541 0.205995 0.00969602)
(-0.00435318 0.19919 0.0106445)
(-0.00433861 0.19007 0.0126865)
(-0.00462206 0.180344 0.0139177)
(-0.00468461 0.170618 0.0152345)
(-0.00493398 0.159785 0.0159757)
(-0.00523126 0.148191 0.0164603)
(-0.00555936 0.136226 0.016496)
(-0.00619142 0.123415 0.0156802)
(-0.00720006 0.110997 0.0153126)
(-0.00796122 0.0979431 0.0148248)
(-0.00642307 0.086305 0.0137503)
(-0.00799028 0.07244 0.0130903)
(-0.00871625 0.0588051 0.0124787)
(-0.0109416 0.0446567 0.0117215)
(-0.0142135 0.031021 0.0114266)
(-0.0190463 0.0195203 0.0116156)
(-0.0294592 0.00948927 0.0157748)
(-0.0413663 0.00805405 0.0226138)
(-0.0555869 0.000520889 0.0269729)
(0.0213427 0.0167969 0.00650797)
(0.0446513 0.0350017 0.00941787)
(0.00902756 0.00657704 0.00606355)
(0.0219931 0.0229954 0.0138066)
(0.00856959 -0.00430188 0.00999682)
(0.00878406 0.00451316 0.00732746)
(0.00437751 -0.00786275 0.004126)
(0.00338605 -0.000165364 -0.00135852)
(0.000379568 -0.00118891 0.000199102)
(-0.00215399 0.0016703 0.00129957)
(-0.00355574 -0.0014314 0.00198785)
(-0.00482188 -0.00179562 0.00244774)
(-0.00458745 -0.00191158 0.00313935)
(-0.0037097 -0.00102974 0.00381648)
(-0.00329141 -0.000410205 0.00427327)
(-0.00317526 0.000292905 0.00452566)
(-0.00323596 0.000769628 0.00459346)
(-0.00326428 0.00120995 0.00460921)
(-0.00328891 0.00147543 0.00458204)
(-0.00327083 0.0017156 0.00454598)
(-0.00322436 0.00186361 0.00450805)
(-0.003152 0.00200117 0.00448439)
(-0.00306739 0.00209208 0.00446819)
(-0.0029769 0.00217813 0.00446256)
(-0.00288821 0.00224792 0.00445689)
(-0.0028054 0.00230429 0.00444476)
(-0.00273228 0.00233833 0.00443108)
(-0.00266409 0.00235982 0.00442384)
(-0.00260074 0.00237293 0.00442459)
(-0.00254285 0.00238148 0.00443529)
(-0.00249069 0.0023893 0.00445407)
(-0.00244274 0.00239509 0.00447661)
(-0.00240503 0.00240216 0.00449967)
(-0.00236307 0.00240106 0.0045299)
(-0.00233608 0.00240995 0.00456263)
(-0.00230546 0.00237832 0.00460917)
(-0.00227653 0.0024668 0.00465906)
(-0.00226996 0.00225799 0.00472692)
(-0.00217926 0.00270442 0.00482485)
(-0.00221386 0.00204891 0.00488576)
(-0.00205779 0.0032028 0.0050545)
(-0.00216301 0.0019425 0.00505803)
(-0.00202985 0.0041008 0.00521821)
(-0.00224216 0.00231278 0.00512894)
(-0.00264749 0.0055473 0.00483342)
(-0.00265404 0.00278492 0.00471959)
(-0.0038929 0.00731697 0.00361051)
(-0.00283898 0.000928899 0.00399319)
(-0.00296188 0.00936535 0.00393651)
(-0.00231775 -0.00505335 0.00502913)
(-0.0047774 0.0126552 0.00472708)
(-0.0023518 -0.00500902 0.00687927)
(-0.00641575 0.0196679 0.00580368)
(0.0182921 -0.0108855 0.00186414)
(0.00639218 0.0135312 0.0359476)
(-0.0117204 -0.0411995 0.0682539)
(-0.0149248 -0.0334061 0.0830692)
(0.0330036 -0.0930834 0.0773172)
(-0.0219986 -0.153699 -0.183519)
(-0.0221354 -0.104748 -0.0185883)
(-0.0445199 0.156265 -0.0390998)
(0.00506603 0.282673 -0.00528159)
(0.0167043 0.32253 0.00838531)
(0.0278875 0.340232 0.0110545)
(0.025298 0.351828 0.0110192)
(0.0281904 0.356167 0.0100217)
(0.0240732 0.362101 0.00924465)
(0.0217427 0.36296 0.00905863)
(0.0164488 0.363335 0.00895589)
(0.0136577 0.361551 0.00926448)
(0.0100861 0.360529 0.00941898)
(0.00861226 0.35583 0.00956152)
(0.00660277 0.351713 0.0101021)
(0.00447066 0.345749 0.0109527)
(0.00269467 0.33864 0.0114404)
(0.00162248 0.32965 0.0119256)
(0.000799705 0.323245 0.0124593)
(0.000336273 0.313751 0.0127604)
(-0.000407995 0.309143 0.0134843)
(-0.00146863 0.299799 0.01371)
(-0.00095449 0.292849 0.0140265)
(-0.00115623 0.285199 0.0138684)
(-0.00108337 0.277847 0.0135174)
(-0.00117632 0.269993 0.01315)
(-0.00108091 0.260236 0.013161)
(5.56053e-05 0.248578 0.0135307)
(-0.000380408 0.236314 0.0131015)
(-0.000961654 0.227519 0.0131098)
(-0.000695408 0.212519 0.016114)
(-0.00247656 0.195875 0.0180218)
(-0.00564521 0.178991 0.0205492)
(-0.0106676 0.15737 0.0233719)
(-0.0170786 0.133532 0.0263567)
(-0.0266856 0.104094 0.0275674)
(-0.0412415 0.0689224 0.0239386)
(-0.0534406 0.0240551 0.015413)
(0.00455477 0.00861694 0.000846466)
(0.0437439 0.0332509 0.00328719)
(0.000938968 0.00958006 0.00365388)
(0.0189757 0.0291236 0.0113328)
(0.00107592 -0.00110126 0.0064329)
(0.00203423 0.0110461 0.00635595)
(-0.00164608 -0.00610784 0.00348673)
(-0.00179586 0.00358995 -0.00246006)
(-0.00211109 -1.90113e-05 -0.00213106)
(-0.00410405 0.00362146 -0.00199083)
(-0.00504346 3.17422e-05 -0.000703766)
(-0.00733007 -0.000727314 -0.000774914)
(-0.00760956 -0.00196479 -0.000616455)
(-0.00714727 -0.00167286 -0.000153322)
(-0.0069928 -0.00104198 0.00039404)
(-0.00703301 -0.000143225 0.00078061)
(-0.00715413 0.000536769 0.000980837)
(-0.00726924 0.0011476 0.00108288)
(-0.00738554 0.00154298 0.00113679)
(-0.00746754 0.00186467 0.00116034)
(-0.00752512 0.00206114 0.00117236)
(-0.00755635 0.00222395 0.00118401)
(-0.00756686 0.00232883 0.00119644)
(-0.00755497 0.00241108 0.00121657)
(-0.00750791 0.00245554 0.00124179)
(-0.0073969 0.00247754 0.00128418)
(-0.00726214 0.00249058 0.00134421)
(-0.00712964 0.00250512 0.00141121)
(-0.00699983 0.00251874 0.0014807)
(-0.00687332 0.00252993 0.00155137)
(-0.00675629 0.00253816 0.00162456)
(-0.00664528 0.00254313 0.00170495)
(-0.00654727 0.00254859 0.00178993)
(-0.00644889 0.00254909 0.00187882)
(-0.006371 0.00255822 0.00196753)
(-0.00628659 0.00254321 0.00206181)
(-0.00624658 0.00261367 0.00214643)
(-0.00616372 0.00246183 0.00225687)
(-0.0062157 0.00286142 0.00231769)
(-0.00603859 0.00234472 0.0024531)
(-0.00636064 0.0034074 0.00247131)
(-0.00598033 0.00244849 0.00264534)
(-0.00681607 0.00443734 0.0024873)
(-0.00604806 0.00311321 0.00271786)
(-0.00725797 0.0061292 0.00201621)
(-0.00609253 0.00354521 0.00217105)
(-0.00688284 0.00786069 0.000845236)
(-0.00568784 0.000351944 0.00126405)
(-0.00483657 0.00977114 0.00177526)
(-0.006567 -0.00858446 0.00223075)
(-0.00957755 0.0114818 0.00388825)
(-0.0073249 -0.00903582 0.00666787)
(-0.00484366 0.015988 0.00361179)
(0.0177048 -0.0134211 0.00745932)
(-0.0105741 0.0433666 0.0212912)
(-0.0217674 -0.0528028 0.0432703)
(-0.0545723 -0.0314523 0.0504401)
(0.0694785 -0.126844 0.0554509)
(-0.0482931 -0.0574815 -0.194937)
(-0.0609053 -0.0924573 -0.0137014)
(-0.165187 0.0427766 -0.0437944)
(-0.0479961 0.176633 -0.00759191)
(-0.0210487 0.179496 0.00647911)
(0.0042398 0.193321 0.00638232)
(0.0106551 0.202603 0.00770322)
(0.0151245 0.211708 0.00672358)
(0.0152306 0.217885 0.00641217)