/*--------------------------------*- C++ -*----------------------------------*\
| =========                 |                                                 |
| \\      /  F ield         | OpenFOAM: The Open Source CFD Toolbox           |
|  \\    /   O peration     | Version:  2.3.0                                 |
|   \\  /    A nd           | Web:      www.OpenFOAM.org                      |
|    \\/     M anipulation  |                                                 |
\*---------------------------------------------------------------------------*/
FoamFile
{
    version     2.0;
    format      ascii;
    class       volVectorField;
    location    "14";
    object      U;
}
// * * * * * * * * * * * * * * * * * * * * * * * * * * * * * * * * * * * * * //

dimensions      [0 1 -1 0 0 0 0];

internalField   nonuniform List<vector> 
6144
(
(0.00886283 0.0169952 -0.00124078)
(0.00931241 -0.00456812 -0.000483467)
(0.00312806 -0.00773179 -0.00130742)
(0.00357327 -0.0091094 -0.00061317)
(0.00119875 -0.0114396 -0.000248834)
(0.00147086 -0.00888509 0.000612879)
(0.000970193 -0.00889167 0.000306164)
(0.00126617 -0.00645947 0.000504795)
(0.00129753 -0.00516361 -0.00046331)
(0.00149997 -0.00247159 -0.000772344)
(0.00158273 -0.000510119 -0.000729644)
(0.00187279 0.00127563 -0.000290522)
(0.00218844 0.00172904 1.20893e-05)
(0.00241344 0.00169959 0.000175206)
(0.00254002 0.00125797 0.000110045)
(0.00260563 0.000875388 1.76024e-05)
(0.00264143 0.0005046 -0.000111475)
(0.00266294 0.000261871 -0.000199569)
(0.00267793 6.3672e-05 -0.000279488)
(0.00268674 -4.70221e-05 -0.00032506)
(0.00268959 -0.000139152 -0.000357489)
(0.00269202 -0.000187417 -0.000369919)
(0.00268872 -0.000229982 -0.000374183)
(0.00268628 -0.000255236 -0.000367891)
(0.00268062 -0.000281816 -0.000356451)
(0.00267491 -0.000306407 -0.000339723)
(0.00266808 -0.000335405 -0.000319503)
(0.00266156 -0.000372338 -0.000295915)
(0.00265467 -0.000417136 -0.000268735)
(0.00264825 -0.00048059 -0.000237875)
(0.00264139 -0.000556709 -0.000200125)
(0.0026355 -0.000669221 -0.000156305)
(0.00262965 -0.000804986 -9.71261e-05)
(0.00262637 -0.00101319 -2.54941e-05)
(0.00262621 -0.00127189 7.66213e-05)
(0.00263396 -0.00167595 0.000199185)
(0.00265213 -0.00218657 0.000362268)
(0.0026887 -0.00295194 0.000532473)
(0.00275095 -0.00388104 0.000682962)
(0.00284295 -0.00512871 0.000736665)
(0.00294188 -0.00642516 0.000624478)
(0.00309517 -0.00774218 0.000291457)
(0.00334694 -0.0086901 -0.000497237)
(0.00372942 -0.00937161 -0.00135678)
(0.00412099 -0.00955638 -0.00215483)
(0.00438171 -0.0103448 -0.0026928)
(0.00479812 -0.0107333 -0.00341926)
(0.00513886 -0.0117189 -0.00423371)
(0.00405691 -0.00771886 -0.00534742)
(0.0084294 -0.00638597 -0.0107029)
(0.019815 0.000762709 -0.015681)
(0.026088 -0.0219048 -0.0136731)
(0.0319867 -0.0278574 -0.00965631)
(0.0371628 -0.0512214 -0.00676295)
(0.0335415 -0.048617 -0.00861346)
(0.0338369 -0.0805512 -0.00575974)
(0.0217484 -0.044093 -0.0218784)
(0.0191963 -0.112569 -0.0078971)
(-0.0566715 0.0298676 -0.0811047)
(0.0146069 0.085818 0.0230785)
(0.0735574 -0.268836 0.0910722)
(0.0371127 -0.0988418 0.04092)
(0.022081 -0.163424 0.00786373)
(0.0210358 -0.156901 0.0100332)
(0.0154372 -0.144415 0.00606663)
(0.0164594 -0.137701 -0.00346815)
(0.0161856 -0.12636 -0.00957294)
(0.0126558 -0.116628 -0.0221884)
(0.0203457 -0.105932 -0.024364)
(0.0370763 -0.105175 -0.0253767)
(0.0435216 -0.119473 -0.0241537)
(0.0498179 -0.131939 -0.0209813)
(0.0509593 -0.14965 -0.0150537)
(0.0455575 -0.174173 -0.00846694)
(0.0386914 -0.194706 -0.00288914)
(0.0334485 -0.212554 0.00261907)
(0.0226357 -0.231042 0.00459603)
(0.0136835 -0.240223 0.00772406)
(0.0044214 -0.241866 0.00859313)
(-0.00874257 -0.238226 0.0145672)
(-0.0127497 -0.231338 0.0161409)
(-0.0171147 -0.225241 0.0187247)
(-0.0236692 -0.217368 0.0142126)
(-0.0234055 -0.207014 -0.00300507)
(-0.0206046 -0.173546 -0.0171562)
(-0.0179064 -0.0936011 -0.0282685)
(-0.011778 -0.036834 -0.0173555)
(-0.0077413 -0.0107404 -0.00255917)
(-0.00280162 -0.00163671 0.00223255)
(-0.00256891 -0.000594307 0.0012865)
(-0.00248153 0.00237174 0.0008966)
(0.00729317 0.00610489 0.00116933)
(0.0112223 0.00865701 0.00194727)
(0.0134477 0.00660792 -0.000184573)
(0.0171253 0.00643318 -0.00288076)
(0.0191206 -0.00291014 -0.00888827)
(0.021175 0.0241915 0.00274786)
(0.021712 0.00597879 0.00314329)
(0.00815658 -0.000109764 -9.56068e-05)
(0.0100632 -0.00271123 0.000900113)
(0.0025975 -0.00852576 0.00183277)
(0.00321928 -0.00528523 0.00263078)
(0.00107334 -0.00674171 0.00308771)
(0.00192433 -0.00332606 0.00312618)
(0.00156845 -0.00267182 0.00306035)
(0.0020445 -0.000265287 0.00266903)
(0.00223471 0.00117176 0.00249259)
(0.00297542 0.00272482 0.00291188)
(0.00373446 0.00281644 0.00339588)
(0.00427712 0.0025418 0.00368031)
(0.00455223 0.00187982 0.00367276)
(0.00468837 0.00137486 0.00359597)
(0.00474443 0.000902257 0.0034695)
(0.00477198 0.000607047 0.00338113)
(0.00478183 0.000362833 0.00331008)
(0.00478223 0.000229316 0.00327721)
(0.00477749 0.0001213 0.00326535)
(0.00476946 6.83781e-05 0.00327427)
(0.00475734 2.24921e-05 0.00329565)
(0.00474349 -6.44749e-07 0.00332869)
(0.00472712 -2.60706e-05 0.00336753)
(0.00470959 -4.72764e-05 0.00341188)
(0.00469169 -7.42422e-05 0.00346001)
(0.00467378 -0.000110444 0.00351183)
(0.0046565 -0.000155985 0.00356757)
(0.00463974 -0.000224635 0.00362739)
(0.0046246 -0.000306281 0.00369503)
(0.0046118 -0.000434984 0.00377073)
(0.00460437 -0.000584874 0.0038638)
(0.0046023 -0.000827665 0.00397442)
(0.00461799 -0.00111464 0.00411607)
(0.00465281 -0.00158153 0.00428211)
(0.00473398 -0.00213733 0.00447046)
(0.0048747 -0.00298284 0.00464008)
(0.00511041 -0.00393933 0.00472917)
(0.0054591 -0.00522885 0.00465512)
(0.00590636 -0.00649852 0.00431928)
(0.0064339 -0.00791475 0.00366419)
(0.00693747 -0.00889276 0.00268468)
(0.00755631 -0.00964393 0.00171456)
(0.00853214 -0.00990685 0.000940983)
(0.00976993 -0.0108976 0.000721321)
(0.00986034 -0.0122522 -0.000645421)
(0.00778474 -0.00962309 -0.00215093)
(0.007528 -0.00404943 -0.00117018)
(0.0128085 -0.00756317 -0.00574269)
(0.0426188 -0.00853676 -0.0138125)
(0.0607184 -0.0302091 -0.00833461)
(0.0552213 -0.0306934 0.008511)
(0.0564218 -0.0543497 0.0194297)
(0.0486389 -0.0489384 0.0182233)
(0.0513765 -0.0922467 0.0272884)
(0.0315783 -0.0594229 0.00543591)
(0.029996 -0.153129 0.0290864)
(-0.00958806 0.048437 -0.113092)
(0.0278468 0.0417542 -0.00919271)
(0.0895967 -0.238229 0.126731)
(0.0350052 -0.0442514 0.0548956)
(0.00669159 -0.111526 0.0067744)
(0.00320145 -0.0821237 0.0120866)
(0.00192579 -0.0548455 -0.0261764)
(0.00314301 -0.00145813 -0.0266933)
(0.0211215 0.0471973 -0.0286266)
(0.0536977 0.0606147 -0.0292268)
(0.0788885 0.0614687 -0.0274377)
(0.0935008 0.0471658 -0.0225643)
(0.0930734 0.0220553 -0.0125077)
(0.0902246 -0.0085667 0.00026761)
(0.077322 -0.0464425 0.0108689)
(0.0584018 -0.0819014 0.0183659)
(0.0438352 -0.110803 0.0214498)
(0.0304058 -0.134561 0.0206115)
(0.0110281 -0.155266 0.018618)
(-0.00810724 -0.173418 0.0203345)
(-0.0243293 -0.191216 0.0198638)
(-0.0369649 -0.201557 0.0213869)
(-0.0409446 -0.204065 0.0219726)
(-0.043079 -0.20298 0.0209842)
(-0.0446322 -0.200178 0.0137495)
(-0.0384825 -0.190203 -0.00136579)
(-0.0341221 -0.156737 -0.0195711)
(-0.0269746 -0.08223 -0.0274939)
(-0.0216677 -0.0325338 -0.0106461)
(-0.0118978 -0.00972148 -0.00148533)
(-0.00121629 -0.00159975 0.00257046)
(0.00279483 0.000387716 0.00507205)
(0.00137809 -0.00661869 0.00590863)
(-0.0046288 -0.0124854 0.0053643)
(-0.00212972 -0.00546029 0.00414611)
(0.00637995 -0.00676639 0.00322129)
(0.0191558 -0.00598358 0.00324393)
(0.0175418 -0.0114948 -0.003449)
(0.0290484 0.0315007 0.00381843)
(0.0299742 0.0155549 0.00204118)
(0.0150255 0.00894595 -0.00231287)
(0.0179753 0.00659599 0.000168924)
(0.0034146 -0.00495859 2.93368e-05)
(0.00369925 -0.00203632 0.00101842)
(-0.000975239 -0.00567083 0.00253084)
(0.000302157 -0.00117223 0.00291677)
(-5.26741e-05 -0.00069274 0.00359614)
(0.000733663 0.00190572 0.0036627)
(0.000903753 0.00240483 0.00364404)
(0.00208393 0.00372409 0.00398487)
(0.00319807 0.00350162 0.00441919)
(0.00392645 0.00316407 0.00471267)
(0.00415068 0.00244876 0.00482663)
(0.00418769 0.00193005 0.0048709)
(0.00410672 0.00142879 0.00488493)
(0.00403306 0.00111925 0.00490299)
(0.00394561 0.000857487 0.00493074)
(0.00387775 0.000710586 0.00496852)
(0.00381521 0.00059 0.0050146)
(0.00376401 0.000524711 0.00506359)
(0.00371802 0.000470569 0.00511435)
(0.00367774 0.000437993 0.005167)
(0.00364154 0.000406971 0.00521911)
(0.00360955 0.000380837 0.00527041)
(0.00358228 0.000350465 0.0053209)
(0.00355912 0.000312373 0.00537109)
(0.00354181 0.000265036 0.00542072)
(0.00352896 0.000196293 0.00546923)
(0.0035267 0.000115706 0.00551792)
(0.00353105 -9.16785e-06 0.00556574)
(0.00355901 -0.000154435 0.00561682)
(0.00360596 -0.000381856 0.00567078)
(0.00370853 -0.000646821 0.00572941)
(0.00385723 -0.00105457 0.00579244)
(0.00410468 -0.00150919 0.00584659)
(0.00443358 -0.00214881 0.00589019)
(0.00488952 -0.00277063 0.0058853)
(0.00545393 -0.00352481 0.0058241)
(0.00608284 -0.004135 0.00563668)
(0.0067181 -0.00483495 0.00537795)
(0.00724812 -0.00529842 0.00498954)
(0.00796348 -0.00580767 0.00467915)
(0.00944086 -0.00584675 0.00434452)
(0.0113552 -0.00640693 0.00383578)
(0.0116253 -0.00787298 0.00243458)
(0.00792108 -0.00905754 0.00213002)
(0.0094576 -0.00840214 0.00380977)
(0.0214422 -0.0124291 -0.00185614)
(0.0620133 -0.0205073 -0.00666592)
(0.075437 -0.0236968 0.00633653)
(0.0629667 -0.0214949 0.0274458)
(0.0612164 -0.0497318 0.0343009)
(0.0495978 -0.0534661 0.0302747)
(0.0576872 -0.115585 0.0455088)
(0.0294375 -0.101483 0.0476284)
(0.0408913 -0.208754 0.0899799)
(-0.00395677 0.0875159 -0.0603501)
(0.0370058 0.001784 -0.00529324)
(0.128362 -0.229067 0.143328)
(0.0717368 -0.0314361 0.0907151)
(0.0266791 -0.0947799 0.0512555)
(0.0192394 -0.0555001 0.0358955)
(-0.0017575 0.00778671 -0.0217335)
(-0.000726764 0.0791228 -0.0113398)
(0.0451804 0.0905664 -0.00951826)
(0.0679313 0.100948 -0.000119631)
(0.095348 0.101504 -0.000840898)
(0.108717 0.0945857 0.0034065)
(0.108294 0.0725987 0.0100646)
(0.101283 0.0345525 0.0162908)
(0.0808244 -0.00837831 0.0239351)
(0.0581949 -0.0456561 0.0270199)
(0.0432731 -0.0720041 0.0224595)
(0.0364401 -0.0875985 0.0114042)
(0.0254948 -0.103007 0.00662608)
(0.00837333 -0.1244 0.0135027)
(-0.0160435 -0.147149 0.0133887)
(-0.0392988 -0.161095 0.01487)
(-0.05658 -0.170675 0.0204092)
(-0.0678131 -0.176191 0.0165367)
(-0.0686771 -0.174165 0.00859848)
(-0.06068 -0.163467 -0.00485481)
(-0.0499617 -0.126915 -0.0223309)
(-0.0532685 -0.064733 -0.0198392)
(-0.0437407 -0.0226811 -0.0127566)
(-0.0219498 0.00193286 -0.00786477)
(-0.007316 0.0135577 -0.000165598)
(0.00205959 0.01699 0.00718394)
(0.00652696 0.0159147 0.0112632)
(0.00416565 0.00419879 0.00910957)
(0.00578082 0.000645661 0.00488106)
(0.0118847 -9.81632e-05 0.00684499)
(0.0257616 -0.00401267 0.00730859)
(0.0173684 -0.011594 0.0010894)
(0.0340879 0.0360667 0.0050121)
(0.0380264 0.0242162 0.00428142)
(0.0229743 0.0159036 -0.000723226)
(0.0272232 0.0148879 0.00204374)
(0.0118674 0.00143085 -0.00258067)
(0.00974381 0.00397646 -0.00175035)
(-0.000447611 -0.00521667 0.000440612)
(-0.000801423 -0.00105946 0.00108117)
(-0.00216111 -0.00146135 0.0020685)
(-0.000634664 0.00213443 0.00249768)
(-0.000176546 0.00221385 0.00273825)
(0.00111946 0.00360435 0.00349352)
(0.00224183 0.00334377 0.00414468)
(0.00293434 0.00321541 0.00456916)
(0.00310057 0.00266073 0.0047391)
(0.00307555 0.002249 0.00482096)
(0.00296215 0.00179706 0.00487291)
(0.00284962 0.00149978 0.00492481)
(0.00273567 0.00123669 0.00498343)
(0.00264156 0.00107846 0.00504454)
(0.00256 0.000950802 0.0051058)
(0.00249279 0.000877095 0.00516723)
(0.00243629 0.000816722 0.00522892)
(0.00238757 0.00077699 0.0052863)
(0.00234484 0.000740926 0.00533724)
(0.00230808 0.000710631 0.00538229)
(0.00227871 0.000678435 0.00542343)
(0.00225633 0.000641037 0.00546271)
(0.00224225 0.000594829 0.00549962)
(0.00223839 0.000528965 0.0055336)
(0.00225052 0.000449944 0.00556452)
(0.00228059 0.000329991 0.0055922)
(0.00234109 0.00019263 0.00561751)
(0.00243548 -1.5019e-05 0.0056379)
(0.00258511 -0.000246636 0.00565193)
(0.00278271 -0.000578297 0.00565522)
(0.00305875 -0.000901451 0.00563487)
(0.00339888 -0.00127613 0.00558095)
(0.00384123 -0.00150064 0.00547291)
(0.0044164 -0.00167513 0.00534379)
(0.00514098 -0.00158931 0.00523401)
(0.00602488 -0.00156326 0.00528593)
(0.00686715 -0.00154535 0.00546576)
(0.00752098 -0.00196394 0.0058078)
(0.00828387 -0.00175324 0.00608588)
(0.0106143 -0.00061801 0.00584751)
(0.0131008 0.000555025 0.00514899)
(0.00990089 0.00164498 0.00703538)
(0.0108006 -0.00247744 0.00684897)
(0.0287771 -0.0136647 -0.00215512)
(0.0662661 -0.0251762 -0.00350386)
(0.0681187 -0.0110017 0.0151772)
(0.0580065 -0.0158961 0.0436709)
(0.0720057 -0.0617785 0.0469027)
(0.0810743 -0.0730251 0.0412634)
(0.115087 -0.151616 0.0616781)
(0.0580836 -0.114631 0.0947483)
(0.0811307 -0.238365 0.158671)
(-0.00630906 0.155499 0.0100665)
(0.0246131 -0.0356569 0.0119707)
(0.116905 -0.198367 0.144941)
(0.0535481 0.0590453 0.0730495)
(-0.018445 -0.0661594 0.0716817)
(-0.0449955 0.0574711 -0.013784)
(-0.0412866 0.0916366 -0.00493962)
(0.00161217 0.102434 0.0138775)
(0.0246945 0.106636 0.00788523)
(0.0583889 0.11051 0.012483)
(0.0856291 0.117181 0.00819916)
(0.108659 0.120246 -0.000345327)
(0.117663 0.124568 -0.00184277)
(0.122777 0.113153 -0.00640295)
(0.106011 0.0930418 0.00268884)
(0.075594 0.0448141 0.0113482)
(0.057879 0.0149941 0.00912699)
(0.0487823 -0.00656089 0.0106013)
(0.0347978 -0.0317889 0.0223243)
(0.010648 -0.0608038 0.025862)
(-0.0159102 -0.0876712 0.0222433)
(-0.0439259 -0.106969 0.0230522)
(-0.0715077 -0.12903 0.0206699)
(-0.0832793 -0.137621 0.0106677)
(-0.0820745 -0.134658 0.00671263)
(-0.0673696 -0.123159 -0.00444775)
(-0.0612199 -0.0698448 -0.0211551)
(-0.0640754 -0.017148 -0.0175209)
(-0.0473718 0.00446494 -0.0110247)
(-0.0288242 0.00555205 0.00068923)
(-0.0192342 0.0104105 0.0126987)
(-0.0110096 0.0203927 0.0160085)
(-0.0037651 0.0248984 0.0207518)
(0.00241997 0.0220928 0.0197904)
(0.00193822 0.0162857 0.0142133)
(0.00804985 0.00839517 0.0150519)
(0.0201625 0.000302752 0.0226696)
(0.0106711 -0.011845 0.00540095)
(0.0354243 0.0369031 0.00750597)
(0.0417817 0.0283094 0.0087088)
(0.0258998 0.0162769 0.00265548)
(0.0315649 0.0173146 0.00609467)
(0.0168956 0.00354973 -0.00168698)
(0.0171712 0.00818017 -0.00143595)
(0.00472074 -0.00262421 -0.00169474)
(0.000856896 0.00115355 -0.000426888)
(-0.00306207 -0.00216109 0.000522405)
(-0.00224755 0.00100796 0.000964148)
(-0.00149937 0.00059807 0.00139532)
(-0.000163489 0.00217401 0.00264638)
(0.000681436 0.00219877 0.00356933)
(0.00117468 0.00252452 0.00411575)
(0.00116371 0.00231862 0.00432883)
(0.000972221 0.00216068 0.00442115)
(0.000704896 0.00184167 0.00445546)
(0.000478261 0.00160386 0.00448804)
(0.000271963 0.00136744 0.00452103)
(0.000104287 0.0012192 0.00455794)
(-2.85388e-05 0.00109392 0.00459665)
(-0.00013478 0.00101801 0.00463359)
(-0.000218083 0.000956533 0.00466117)
(-0.000281453 0.000919107 0.00468419)
(-0.000328478 0.000885473 0.00470291)
(-0.000361005 0.000856606 0.00471708)
(-0.000379614 0.000829933 0.0047243)
(-0.000382998 0.000803253 0.00472785)
(-0.000372306 0.000771176 0.00473042)
(-0.000347592 0.000727304 0.00473043)
(-0.00030586 0.000673833 0.00472668)
(-0.000239654 0.000588062 0.00471618)
(-0.000142125 0.000485599 0.0046977)
(-4.9197e-06 0.000322591 0.00466755)
(0.000200997 0.000146408 0.00462945)
(0.000474531 -8.57267e-05 0.00457794)
(0.000834845 -0.000246841 0.00449562)
(0.00124281 -0.000393691 0.00436074)
(0.00174466 -0.000351543 0.00418705)
(0.00233729 -0.000229744 0.00402896)
(0.00310259 0.000124167 0.00399548)
(0.00410574 0.000400656 0.00425846)
(0.0051466 0.000616799 0.00465542)
(0.00580667 0.000332168 0.00500833)
(0.00602799 0.000598018 0.00512476)
(0.00750108 0.00233626 0.00519656)
(0.00908086 0.00573255 0.00599514)
(0.00700094 0.00721379 0.00879512)
(0.0140572 -0.00304429 0.0057818)
(0.0448366 -0.0296029 -0.0022965)
(0.0603952 -0.026506 -0.00131718)
(0.0518649 -0.00741059 0.0206091)
(0.0549023 -0.00688294 0.0467371)
(0.0814453 -0.0550038 0.0524236)
(0.102403 -0.037442 0.0540447)
(0.148014 -0.118877 0.0663263)
(0.0405431 0.0223867 0.137458)
(0.0989361 -0.237605 0.194857)
(-0.0396658 0.228715 0.062857)
(0.0106761 -0.0607335 0.0213198)
(0.066254 -0.188662 0.139101)
(-0.00694759 0.152004 0.0151639)
(-0.0361608 -0.0160532 0.0318689)
(-0.0626438 0.106952 -0.0206109)
(-0.0391082 0.0830879 -0.00152219)
(-0.00717562 0.108314 0.0125473)
(0.0159189 0.102091 0.0251052)
(0.0493677 0.106663 0.0183854)
(0.0798491 0.115314 0.0245573)
(0.107677 0.12505 0.016027)
(0.121384 0.138306 0.0159717)
(0.125681 0.142968 0.0154463)
(0.123437 0.140823 0.0175223)
(0.102984 0.120864 0.0233092)
(0.0811454 0.0798879 0.0241413)
(0.057674 0.0457507 0.0276501)
(0.036964 0.0149333 0.033757)
(0.0109391 -0.0266817 0.0348806)
(-0.0143094 -0.0577661 0.0326773)
(-0.0421004 -0.0815601 0.0296264)
(-0.0677364 -0.100228 0.0202824)
(-0.0721577 -0.102065 0.0124773)
(-0.0667425 -0.0965179 0.00163759)
(-0.0745713 -0.0799697 -0.0198155)
(-0.0893517 -0.0300821 -0.0191274)
(-0.0788914 0.000689164 -0.00358592)
(-0.0472794 0.0123026 0.0144104)
(-0.0392185 0.0149094 0.0278097)
(-0.0354515 0.0184216 0.0221628)
(-0.0301618 0.0255714 0.0188594)
(-0.0261229 0.0342687 0.0264827)
(-0.0196744 0.0334164 0.0322066)
(-0.0105146 0.0284621 0.0336399)
(0.000799783 0.00973468 0.0338327)
(0.00747666 0.00312272 0.0364073)
(-0.00214684 -0.01212 0.0107615)
(0.0344095 0.0360482 0.00940615)
(0.0441815 0.0310367 0.0100143)
(0.0231831 0.0143191 0.00627673)
(0.0316711 0.0192877 0.00932355)
(0.0164414 0.00192939 0.00369627)
(0.0195742 0.00881505 0.00256411)
(0.00808376 -0.00125495 -0.00182465)
(0.00329569 0.0038528 -0.00107804)
(-0.00172612 -0.000807528 5.37338e-05)
(-0.00276806 0.00177653 0.000346307)
(-0.00244123 -0.000876355 0.000531365)
(-0.00167515 -2.21056e-05 0.00171148)
(-0.000658362 0.000149675 0.00289629)
(-3.14878e-05 0.00114463 0.00359915)
(1.20062e-05 0.00138354 0.0038965)
(-0.000121202 0.00161922 0.0040426)
(-0.000346054 0.00157752 0.00408695)
(-0.000548372 0.00153359 0.00408314)
(-0.000734905 0.00141723 0.00405562)
(-0.000888451 0.0013477 0.00402233)
(-0.00100026 0.0012765 0.00398671)
(-0.00107849 0.0012435 0.00395362)
(-0.00113053 0.00121465 0.00391953)
(-0.00115829 0.00120727 0.00388774)
(-0.00116686 0.00120217 0.00385897)
(-0.00116462 0.0011975 0.00383113)
(-0.00115243 0.00119165 0.0038003)
(-0.00112567 0.00118267 0.00376674)
(-0.00108328 0.00117048 0.00373557)
(-0.00101827 0.00114843 0.00370948)
(-0.000923625 0.00111964 0.00368957)
(-0.000786323 0.00107291 0.00367346)
(-0.000601411 0.00102228 0.00365935)
(-0.000360639 0.000945729 0.0036421)
(-6.24902e-05 0.000903501 0.00361487)
(0.000296111 0.000863268 0.00356477)
(0.000720243 0.000911184 0.00347437)
(0.00116355 0.000984841 0.00333022)
(0.0015951 0.00118444 0.00312027)
(0.00205555 0.00134626 0.00290842)
(0.00259729 0.00157912 0.00276711)
(0.00334603 0.00168798 0.00283833)
(0.0042797 0.00183729 0.00298899)
(0.0047779 0.00167984 0.00306845)
(0.0043051 0.00196895 0.00268652)
(0.00459012 0.00313459 0.00243051)
(0.00586735 0.00446256 0.00493724)
(0.0069819 0.000537451 0.00979582)
(0.0244093 -0.023989 0.00490228)
(0.0499785 -0.0386789 3.55744e-05)
(0.0455552 -0.0280242 0.00363237)
(0.0350297 -0.00794534 0.0274774)
(0.0510047 -0.00593427 0.0508612)
(0.0684194 -0.00787166 0.0672926)
(0.0633258 0.054634 0.0955868)
(0.062177 -0.00239371 0.0963558)
(0.0317381 0.176086 0.138787)
(0.0889687 -0.275159 0.171381)
(-0.0509608 0.365884 0.0397152)
(-0.00621788 -0.107334 0.0308736)
(0.00506547 -0.14925 0.122119)
(-0.0244662 0.154194 -0.0213807)
(-0.0491342 0.0220137 0.0140822)
(-0.0639736 0.111466 -0.00795283)
(-0.0431559 0.0837599 0.0141855)
(-0.0208625 0.0948541 0.023408)
(0.00198512 0.0715029 0.0227142)
(0.0277613 0.0745717 0.0115224)
(0.0540743 0.0809673 0.0188497)
(0.0780291 0.102748 0.0244233)
(0.1035 0.132492 0.0244852)
(0.11171 0.151658 0.0222749)
(0.111512 0.157441 0.0226006)
(0.0980214 0.155872 0.0296708)
(0.0855085 0.140311 0.0349869)
(0.071906 0.118286 0.0329186)
(0.054484 0.0848198 0.0346633)
(0.0259667 0.0394998 0.0272548)
(-0.00442555 0.00800056 0.0264493)
(-0.0341865 -0.0271554 0.0263334)
(-0.066437 -0.045881 0.0190626)
(-0.0823701 -0.0458388 0.0119075)
(-0.0837451 -0.0274493 0.00533763)
(-0.0930192 0.00655644 0.00440809)
(-0.0968143 0.0323795 0.0130764)
(-0.0829934 0.035284 0.0175275)
(-0.0688355 0.0363929 0.0241169)
(-0.0573048 0.0387074 0.0187576)
(-0.049221 0.0476638 0.00512641)
(-0.0426192 0.0525413 0.00420146)
(-0.0372919 0.0542338 0.0110608)
(-0.0288711 0.0537048 0.0170915)
(-0.0161682 0.0446468 0.0260505)
(-0.00838333 0.0322961 0.0319914)
(-0.0045766 0.0262837 0.0316656)
(-0.0199256 -0.00105479 0.0151595)
(0.031005 0.0324021 0.00661703)
(0.0453214 0.0344756 0.00902585)
(0.0182376 0.0142876 0.0062699)
(0.0302744 0.0244476 0.0104876)
(0.0113062 0.00189406 0.00705785)
(0.0149408 0.0100418 0.00791466)
(0.00662923 -0.00230569 0.00277422)
(0.00377758 0.00455335 -9.63595e-05)
(-0.00129594 8.91427e-05 0.000558823)
(-0.00265902 0.00314795 0.00151196)
(-0.00269117 -0.00094566 0.0015745)
(-0.00358858 -0.00115002 0.00213521)
(-0.00360494 -0.00133507 0.00279331)
(-0.00316213 -6.34616e-05 0.00342737)
(-0.00301937 0.000487264 0.00377032)
(-0.00307607 0.00103649 0.00392784)
(-0.00326633 0.0012484 0.00393622)
(-0.00349578 0.00143381 0.00388775)
(-0.00373189 0.00149979 0.00381433)
(-0.00391827 0.00156741 0.00368944)
(-0.00405119 0.00159744 0.00356039)
(-0.00413666 0.00163792 0.00344687)
(-0.00417988 0.00166328 0.00334909)
(-0.00418898 0.00169078 0.00327222)
(-0.00417322 0.00170584 0.0032093)
(-0.00413607 0.00171765 0.00315912)
(-0.00407834 0.00172475 0.00311614)
(-0.0039959 0.00172762 0.00307467)
(-0.003891 0.00172813 0.00303741)
(-0.00376137 0.00172541 0.00300897)
(-0.00361199 0.00172612 0.00299187)
(-0.00342632 0.00172343 0.00298531)
(-0.0032021 0.00173159 0.00299037)
(-0.00292027 0.00173601 0.00300738)
(-0.00258762 0.00177957 0.00303383)
(-0.00219552 0.00183587 0.00306499)
(-0.00174496 0.00196399 0.00309601)
(-0.00123311 0.00206499 0.00310794)
(-0.00066777 0.0021987 0.00306203)
(-4.5673e-05 0.00222347 0.00295215)
(0.000688808 0.00221332 0.00274417)
(0.00155702 0.00208044 0.00249133)
(0.00251061 0.00226356 0.00212897)
(0.003148 0.0023213 0.00165451)
(0.0030994 0.00284328 0.000817056)
(0.00377749 0.00231568 0.00101343)
(0.00685548 -0.00100281 0.00518315)
(0.0142225 -0.0159296 0.00953357)
(0.0337477 -0.0375297 0.00462228)
(0.0437178 -0.0242177 0.00581682)
(0.0379374 0.00785398 0.0255342)
(0.0228392 0.0201868 0.0593224)
(0.0019192 0.030614 0.0698552)
(-0.012628 0.0773252 0.0805905)
(0.000343176 0.100868 0.101155)
(0.0302887 0.0445347 0.127886)
(0.0827814 0.175999 0.21356)
(0.0791919 -0.247328 0.236363)
(-0.0331195 0.257944 0.052376)
(-0.0234978 -0.0698202 0.0276122)
(-0.0506067 -0.185952 0.136749)
(-0.0607879 0.142104 -0.0311448)
(-0.0762425 0.0245993 0.00885818)
(-0.0737075 0.0987278 -0.0011071)
(-0.0632091 0.0519437 0.0219517)
(-0.0339075 0.0332979 0.00437613)
(-0.0129873 0.00588433 -0.00343809)
(0.012242 0.010178 -0.0178287)
(0.0260111 0.026351 -0.0128916)
(0.0459422 0.0479039 0.0122316)
(0.0578744 0.0671738 0.0232031)
(0.0792974 0.117276 0.0305547)
(0.0901251 0.145024 0.032011)
(0.0901376 0.158007 0.0326142)
(0.0752958 0.1578 0.0405032)
(0.0660862 0.148652 0.0403877)
(0.0499357 0.135193 0.044169)
(0.0235665 0.118279 0.0438442)
(-0.00476775 0.0853504 0.0419839)
(-0.030765 0.0714929 0.0494527)
(-0.052992 0.0474174 0.0447159)
(-0.0796794 0.0344743 0.0253751)
(-0.101132 0.0453362 0.0106358)
(-0.109596 0.0536719 0.00718565)
(-0.097264 0.0570318 0.00281842)
(-0.0783184 0.0491847 0.0104137)
(-0.0646801 0.0497047 0.0143666)
(-0.0505855 0.0540977 0.00110246)
(-0.0379917 0.0509023 -0.000932098)
(-0.0256036 0.0457422 0.00240838)
(-0.0197954 0.0426191 0.00150321)
(-0.0187014 0.0487938 -0.00936142)
(-0.0204858 0.057022 -0.0203736)
(-0.0189193 0.0614625 -0.0230363)
(-0.0132668 0.0518688 -0.00570943)
(-0.0165737 0.0174926 0.0108281)
(0.0305849 0.0290031 0.00248958)
(0.0449589 0.0392167 0.00907164)
(0.0113898 0.0169694 0.00629162)
(0.0273312 0.0285902 0.0132943)
(0.00622378 0.00286121 0.00875047)
(0.0105257 0.0136225 0.010518)
(0.00148184 -0.00381066 0.00684127)
(0.00116371 0.00521228 0.00280258)
(-0.00278437 -0.000520395 0.00184462)
(-0.00343256 0.00419302 0.00319768)
(-0.0032858 -0.000178674 0.00363629)
(-0.00464658 -0.000680541 0.0038677)
(-0.00493073 -0.00148715 0.00419395)
(-0.00433475 -0.000631812 0.00464407)
(-0.00388851 -0.000231191 0.00502731)
(-0.00375853 0.000382754 0.00523629)
(-0.003794 0.000811339 0.00527857)
(-0.00382758 0.00123055 0.00523326)
(-0.0038544 0.00149694 0.00512981)
(-0.00384716 0.00170779 0.0050544)
(-0.00380701 0.00183961 0.00498446)
(-0.00373915 0.00194634 0.00493282)
(-0.00364611 0.00201731 0.00489592)
(-0.00353071 0.00208282 0.0048772)
(-0.00340386 0.00213792 0.00486877)
(-0.00327186 0.00219389 0.00486811)
(-0.0031405 0.0022484 0.00486738)
(-0.0030047 0.00229517 0.00485958)
(-0.00286763 0.00232931 0.00484596)
(-0.0027153 0.00235082 0.00483683)
(-0.00254703 0.00237245 0.00483783)
(-0.00234274 0.00239753 0.00485343)
(-0.00209879 0.0024558 0.00488895)
(-0.00179884 0.00253331 0.00494313)
(-0.00144753 0.00267488 0.00501901)
(-0.00102866 0.00285114 0.00510869)
(-0.000547796 0.0031145 0.00520099)
(6.81526e-06 0.00335898 0.00526242)
(0.000667226 0.00360119 0.00523554)
(0.00136197 0.00366215 0.00500887)
(0.0020435 0.00370266 0.0045025)
(0.00255751 0.00355979 0.00365837)
(0.00312333 0.0038511 0.00250795)
(0.00364847 0.0039138 0.00118503)
(0.00405964 0.00431162 0.000126955)
(0.00676891 0.0024699 0.000725974)
(0.0134493 -0.00295248 0.00539857)
(0.0179391 -0.0222807 0.00493447)
(0.0159945 -0.00475871 0.00922067)
(-0.00420268 0.0439688 0.0314469)
(-0.017056 0.0598137 0.0647567)
(-0.0383093 0.0774164 0.0726347)
(-0.0532192 0.0803948 0.0724007)
(-0.0495399 0.0884915 0.0839556)
(-0.0405089 0.0999434 0.104786)
(0.00319283 0.0268222 0.123683)
(0.131954 0.198292 0.198082)
(0.125194 -0.245859 0.215882)
(-0.11666 0.356039 -0.0230508)
(-0.0264461 -0.105996 0.0366512)
(-0.0786126 -0.184782 0.134338)
(-0.0982646 0.157191 -0.0518514)
(-0.0919397 0.0128738 0.00872367)
(-0.0698763 0.0800864 -0.00600184)
(-0.0480798 0.0139322 0.0185243)
(0.006521 0.0193577 0.00737225)
(0.0126601 -0.0121816 -0.005791)
(0.0145193 -0.00134663 -0.0259321)
(0.0248715 0.0156716 -0.0392193)
(0.0425793 0.0312679 -0.0205027)
(0.0545497 0.0273112 -0.00443752)
(0.059481 0.037146 0.0122891)
(0.066454 0.0521582 0.0305206)
(0.0743496 0.0956592 0.0373237)
(0.0751949 0.124827 0.0397891)
(0.0662815 0.136263 0.0452928)
(0.0557495 0.134561 0.0474568)
(0.0391772 0.129241 0.0487985)
(0.0137639 0.111112 0.042423)
(-0.0276087 0.0987756 0.0310152)
(-0.0723979 0.0949913 0.013392)
(-0.0938727 0.103188 -0.00251267)
(-0.099509 0.106716 -0.00778313)
(-0.0881658 0.0995218 -0.012896)
(-0.0737159 0.0754344 -0.00559568)
(-0.0600237 0.0634702 -0.00144356)
(-0.050972 0.0529925 -0.00428796)
(-0.0309765 0.0351457 -0.0154847)
(-0.0137466 0.0260052 -0.0129675)
(-0.00723696 0.0172989 -0.0114635)
(-0.0155269 0.0152259 -0.0249269)
(-0.0262778 0.0325748 -0.0403101)
(-0.0151048 0.04973 -0.0481465)
(-0.00569707 0.0648691 -0.0482554)
(0.00325868 0.063968 -0.0375643)
(0.0118237 0.017021 -0.0164043)
(0.00901465 0.0308102 -0.0107221)
(0.0444162 0.0407288 0.0117414)
(0.00271728 0.0155988 0.00652837)
(0.0241316 0.03134 0.0134436)
(-0.00196559 0.00476371 0.00717515)
(0.00409676 0.0190021 0.00971899)
(-0.00439448 -0.00248156 0.00550412)
(-0.00361987 0.00851614 0.00145541)
(-0.00561848 0.000321441 -0.000508707)
(-0.00618872 0.00560094 0.000482134)
(-0.00533165 0.00101635 0.0012841)
(-0.0076178 0.000698073 0.00104345)
(-0.00859954 -0.00117647 0.000723844)
(-0.00797889 -0.000976194 0.000963457)
(-0.00761217 -0.000730108 0.00131483)
(-0.00753668 -4.49057e-05 0.00161908)
(-0.00761403 0.000539045 0.00179787)
(-0.00771301 0.00109921 0.00188154)
(-0.00781357 0.00148589 0.00191723)
(-0.00789482 0.00179621 0.00192742)
(-0.00795397 0.00199805 0.00192048)
(-0.00799032 0.00215832 0.00191145)
(-0.00800884 0.00226385 0.00190295)
(-0.00801082 0.00235705 0.00190342)
(-0.00799855 0.00243055 0.00190778)
(-0.00796626 0.00249528 0.00191643)
(-0.00789977 0.00254577 0.00192637)
(-0.00776765 0.00257596 0.00194195)
(-0.00758421 0.00260071 0.00197233)
(-0.00737233 0.00262802 0.00200712)
(-0.00714622 0.00265968 0.00204544)
(-0.00689478 0.00269541 0.00208781)
(-0.0066173 0.00276256 0.00214026)
(-0.00631095 0.00286032 0.00220388)
(-0.00599245 0.00304019 0.00228803)
(-0.0056285 0.00328239 0.00238995)
(-0.00518973 0.00364828 0.00248525)
(-0.00465331 0.00405898 0.00251236)
(-0.00401272 0.00458945 0.00237048)
(-0.00331723 0.00507066 0.00192195)
(-0.00262371 0.00558492 0.00102089)
(-0.00197075 0.00583077 -0.000348595)
(-0.000939928 0.00596385 -0.00207256)
(0.000442523 0.00572371 -0.00363184)
(0.00227108 0.00596893 -0.00461065)
(0.0075698 0.00427678 -0.00293423)
(0.0158234 -0.000551896 0.00246156)
(0.0040797 -0.0172404 0.000277257)
(-0.0222773 0.000977526 0.0102802)
(-0.0348475 0.0427385 0.0315453)
(-0.0588673 0.0446497 0.051941)
(-0.0658392 0.0530692 0.0578888)
(-0.081711 0.0481805 0.0505372)
(-0.0844853 0.03049 0.0477743)
(-0.0638039 0.0557678 0.0773334)
(-0.0472401 -0.098397 0.0708397)
(0.0994752 0.0404259 0.0760052)
(0.0390285 -0.121367 0.0537197)
(0.0292352 0.365751 -0.0734935)
(-0.0366112 -0.104519 0.0368964)
(-0.117784 -0.198791 0.116929)
(-0.125817 0.164293 -0.0489155)
(-0.113763 -0.0288658 0.00961895)
(-0.0634076 0.0659686 0.00181326)
(-0.0528106 -0.0398711 0.0370043)
(-0.00158549 -0.00624138 0.0246146)
(0.0129304 -0.0206778 0.0138404)
(0.00873836 -0.0135031 0.000770746)
(0.00663019 -0.00373822 -0.0302787)
(0.0332599 0.0122971 -0.0113796)
(0.0573887 0.0165523 -0.00926575)
(0.0660915 0.0169217 -0.00998123)
(0.0635672 0.0094063 -0.00868339)
(0.0491901 0.0213156 -0.00843878)
(0.0409332 0.051912 -0.0200097)
(0.0505185 0.0995065 0.00970217)