/*--------------------------------*- C++ -*----------------------------------*\
| =========                 |                                                 |
| \\      /  F ield         | OpenFOAM: The Open Source CFD Toolbox           |
|  \\    /   O peration     | Version:  2.3.0                                 |
|   \\  /    A nd           | Web:      www.OpenFOAM.org                      |
|    \\/     M anipulation  |                                                 |
\*---------------------------------------------------------------------------*/
FoamFile
{
    version     2.0;
    format      ascii;
    class       volVectorField;
    location    "14";
    object      U.airMean;
}
// * * * * * * * * * * * * * * * * * * * * * * * * * * * * * * * * * * * * * //

dimensions      [0 1 -1 0 0 0 0];

internalField   nonuniform List<vector> 
6144
(
(0.00683217 0.0201965 -0.000432166)
(0.00684237 0.0065562 -0.000573077)
(0.00407718 0.00448144 -0.00142512)
(0.00421027 0.00258795 -0.00164131)
(0.00330151 0.00134718 -0.00158673)
(0.00345671 0.00147017 -0.00164989)
(0.00319871 0.00103277 -0.0017733)
(0.00334672 0.00131971 -0.00184718)
(0.00326577 0.00125379 -0.00202762)
(0.00339289 0.0015387 -0.00208766)
(0.00339703 0.00156184 -0.00214745)
(0.00351241 0.00163557 -0.00213996)
(0.00353628 0.00145811 -0.0021886)
(0.00360422 0.00134157 -0.00221079)
(0.00361137 0.00111946 -0.00227494)
(0.00363926 0.000988541 -0.00231007)
(0.00364133 0.000825228 -0.00236231)
(0.00365024 0.000737433 -0.00239098)
(0.0036511 0.000638298 -0.00242451)
(0.00365392 0.000587901 -0.00244371)
(0.00365365 0.000534954 -0.00246327)
(0.00365441 0.000507556 -0.00247492)
(0.00365372 0.000481357 -0.00248553)
(0.00365329 0.000466849 -0.00249229)
(0.00365228 0.000454816 -0.00249773)
(0.00365122 0.000447606 -0.00250136)
(0.00364984 0.000442457 -0.00250404)
(0.0036483 0.000439368 -0.00250581)
(0.0036466 0.000437764 -0.00250694)
(0.00364468 0.000436279 -0.00250741)
(0.0036431 0.000439428 -0.00250754)
(0.00363964 0.00043113 -0.00250672)
(0.00364029 0.000451658 -0.00250545)
(0.00363145 0.000409009 -0.00250411)
(0.0036396 0.000488843 -0.00249957)
(0.00362162 0.000347344 -0.00249924)
(0.00363933 0.000572089 -0.00248973)
(0.0036129 0.000209551 -0.0024922)
(0.00363568 0.00072994 -0.00247272)
(0.00360635 -4.69504e-05 -0.00248095)
(0.00363095 0.000989417 -0.00244039)
(0.00360019 -0.000476735 -0.00245753)
(0.00362148 0.00135065 -0.00238151)
(0.00359639 -0.00113507 -0.00241144)
(0.00359063 0.00179376 -0.00231302)
(0.00357583 -0.00205655 -0.00232089)
(0.00351671 0.00247031 -0.00229783)
(0.00348036 -0.00315498 -0.00223708)
(0.00343947 0.00402382 -0.00253516)
(0.00333485 -0.00414355 -0.00242121)
(0.00389792 0.00776275 -0.00304767)
(0.00310483 -0.00696868 -0.0026787)
(0.00334334 0.0153982 -0.003711)
(0.00362298 -0.00858512 -0.00497108)
(0.00652185 0.0380842 -0.00590755)
(0.00400117 -0.0306311 -0.00976629)
(0.0123763 0.0620121 -0.0044533)
(0.0142993 -0.0588582 -0.0224047)
(-0.0373092 0.115967 -0.0841805)
(0.0382457 0.0314778 -0.105771)
(0.0802473 0.339757 -0.00259977)
(0.0420058 0.384654 -0.00186979)
(0.0207172 -0.0388439 -0.000106108)
(0.0301547 -0.0892886 0.000120198)
(0.0250359 -0.109142 0.000725953)
(0.0156684 -0.1021 0.00318367)
(0.0103084 -0.113501 0.00400603)
(0.00640625 -0.107321 0.00377241)
(0.00388423 -0.11031 0.00311236)
(0.00188774 -0.102484 0.00229134)
(0.000497784 -0.101426 0.00143657)
(-0.000323581 -0.0932829 0.000647651)
(-0.000548894 -0.0898387 -0.000110857)
(-0.000462781 -0.0827073 -0.000803819)
(-0.00022932 -0.0784714 -0.00144555)
(3.55356e-05 -0.0723157 -0.00201695)
(0.000323277 -0.0678707 -0.00253875)
(0.000664108 -0.0626204 -0.00298044)
(0.00104564 -0.0579817 -0.0033424)
(0.00141277 -0.0536542 -0.00360667)
(0.00169544 -0.0491276 -0.00379457)
(0.00189815 -0.0442998 -0.00391073)
(0.00193274 -0.0392811 -0.00399547)
(0.00192993 -0.0334206 -0.00397369)
(0.00169205 -0.0272848 -0.003979)
(0.00131173 -0.0205792 -0.0038509)
(0.000775719 -0.0136966 -0.00386945)
(0.000521605 -0.00623831 -0.00378324)
(0.000306186 0.00103282 -0.00399994)
(0.000441694 0.00862113 -0.00388608)
(0.00221714 0.0136238 -0.00352941)
(0.00432983 0.0158298 -0.00495445)
(0.00536552 0.0168215 -0.00593323)
(0.00593675 0.0174218 -0.00552398)
(0.00655285 0.0175258 -0.00416001)
(0.00705777 0.0154876 -0.00242024)
(0.013859 0.0213774 0.00304477)
(0.0149097 0.00981293 0.00296677)
(0.00872967 0.00700205 0.00126234)
(0.00949228 0.00534999 0.00104817)
(0.00685565 0.00348462 0.00101796)
(0.00735963 0.00369702 0.000859021)
(0.00654703 0.00274319 0.000836341)
(0.00689742 0.00300158 0.000729564)
(0.00663293 0.00256172 0.000523943)
(0.00692351 0.00275947 0.000439734)
(0.0068784 0.00257102 0.000330945)
(0.00719347 0.0025674 0.000389804)
(0.00722138 0.002239 0.000332573)
(0.00740462 0.00204184 0.000332801)
(0.00738929 0.00171455 0.000240141)
(0.00745791 0.00153127 0.000203963)
(0.00743408 0.00130451 0.000127404)
(0.00745156 0.0011854 9.60597e-05)
(0.00743462 0.0010508 4.99886e-05)
(0.00743476 0.000981513 3.06732e-05)
(0.00742346 0.000909138 7.92865e-06)
(0.00741887 0.000870361 -7.71045e-07)
(0.00741087 0.000833274 -8.88697e-06)
(0.00740491 0.000812073 -1.05449e-05)
(0.00739814 0.000794104 -1.04777e-05)
(0.0073919 0.000782806 -7.4637e-06)
(0.00738536 0.000774303 -3.10004e-06)
(0.0073788 0.000768843 2.64765e-06)
(0.00737216 0.000765415 9.34377e-06)
(0.00736529 0.000762356 1.69172e-05)
(0.00735897 0.000762664 2.52909e-05)
(0.00735002 0.00075521 3.4784e-05)
(0.00734728 0.000771052 4.52419e-05)
(0.00732981 0.000731927 5.56595e-05)
(0.00733923 0.000807827 7.11077e-05)
(0.00730509 0.000659816 8.01124e-05)
(0.00733432 0.000899113 0.00010442)
(0.00727794 0.000493941 0.000108866)
(0.00732802 0.00107717 0.000148089)
(0.00724972 0.000186978 0.000145641)
(0.00732001 0.00137294 0.000214736)
(0.00722039 -0.000329757 0.000203487)
(0.00730712 0.0017981 0.000323121)
(0.00717611 -0.0011319 0.000289391)
(0.00724736 0.0023114 0.000441357)
(0.00706682 -0.00227589 0.000412316)
(0.00702931 0.00300548 0.000417995)
(0.00673274 -0.00358636 0.000400235)
(0.00648788 0.00451816 -0.000161532)
(0.00614603 -0.00389454 -0.000211211)
(0.00651434 0.00867413 -0.00114979)
(0.0052989 -0.00391195 -0.000843487)
(0.00404084 0.0175057 -0.000439748)
(0.00310976 -0.00993339 -0.000749988)
(0.015571 0.0364197 0.000601368)
(0.0264638 -0.0364445 -0.00155076)
(-0.0136964 0.0370211 0.0068304)
(-0.00825769 -0.0168149 -0.0115473)
(0.0186639 0.185899 -0.0109165)
(0.144158 -0.00525352 -0.0607393)
(0.0844015 0.350388 0.00386352)
(0.00443619 0.436741 0.00755507)
(-0.0209842 -0.0645625 0.00922229)
(-0.00703776 -0.0270185 0.00918588)
(-0.0108345 -0.0540949 0.00961419)
(-0.0172399 -0.0614509 0.0111791)
(-0.0180659 -0.0745186 0.010332)
(-0.0177827 -0.0727425 0.00907547)
(-0.0165494 -0.0800914 0.00742114)
(-0.0153383 -0.0763167 0.00576808)
(-0.0137832 -0.07847 0.00424604)
(-0.012188 -0.0729273 0.00295535)
(-0.0103815 -0.07167 0.00170915)
(-0.00863582 -0.0663794 0.000572958)
(-0.00686082 -0.0638351 -0.000444459)
(-0.00506915 -0.0591398 -0.00123622)
(-0.00309642 -0.0552283 -0.00183318)
(-0.00139479 -0.0501714 -0.00223684)
(-0.000326116 -0.0454386 -0.00248693)
(0.000155566 -0.0405016 -0.00257786)
(0.000175156 -0.0354868 -0.00254219)
(-0.000149808 -0.0304051 -0.00236577)
(-0.000704921 -0.0253742 -0.0021155)
(-0.00128952 -0.0195103 -0.00182963)
(-0.0017224 -0.0141828 -0.00139441)
(-0.00214908 -0.00927845 -0.000905261)
(-0.00257761 -0.0047522 -0.000767409)
(-0.00307063 -0.000348304 -0.000730554)
(-0.00337639 0.00385131 -0.00107683)
(-0.00258443 0.00840845 -0.000705502)
(-0.000436225 0.0121186 0.000365704)
(0.00247164 0.0142214 -0.000160175)
(0.00468629 0.0155979 -0.0009259)
(0.00561512 0.0169328 -0.000255554)
(0.00605561 0.0167168 0.00164893)
(0.00686026 0.0154223 0.00348876)
(0.0162193 0.0198156 0.0043546)
(0.0186043 0.010578 0.00438228)
(0.0100914 0.00700504 0.00219486)
(0.0117973 0.00676791 0.00211346)
(0.00780647 0.00411214 0.00230939)
(0.00862804 0.00473952 0.00234612)
(0.00722119 0.00340691 0.00250761)
(0.00775325 0.0037378 0.00255349)
(0.00721428 0.0030465 0.00242612)
(0.00758574 0.00319764 0.00242164)
(0.00742943 0.00282449 0.00229645)
(0.00788128 0.0028376 0.00237865)
(0.00788368 0.0023968 0.00235177)
(0.00813444 0.00220387 0.00238365)
(0.00807382 0.00181161 0.00232556)
(0.00815322 0.00163171 0.00231914)
(0.00808801 0.00137851 0.00227397)
(0.00809893 0.00126349 0.00226795)
(0.00805363 0.00111971 0.00224706)
(0.00804135 0.00105371 0.00224906)
(0.00801075 0.000978851 0.00224621)
(0.0079931 0.000941704 0.00225535)
(0.00797036 0.000904756 0.0022636)
(0.00795187 0.000884653 0.00227736)
(0.00793242 0.000867315 0.00229184)
(0.00791422 0.000856974 0.00230865)
(0.00789583 0.000849161 0.0023261)
(0.0078776 0.000844306 0.00234445)
(0.0078594 0.000841183 0.0023633)
(0.00784115 0.00083891 0.00238255)
(0.00782298 0.000839133 0.00240171)
(0.0078034 0.000833573 0.00242068)
(0.00778779 0.000846748 0.00243995)
(0.00776204 0.000813974 0.0024583)
(0.00775755 0.000881131 0.00247979)
(0.00771534 0.000746921 0.00249547)
(0.00773354 0.000970312 0.00252353)
(0.00766265 0.000587262 0.00253289)
(0.00771453 0.00114767 0.00257211)
(0.00760541 0.000285288 0.00257104)
(0.00770313 0.00144447 0.00263366)
(0.00754905 -0.00023388 0.00261824)
(0.00770819 0.00187537 0.00272093)
(0.00747321 -0.00106521 0.00266911)
(0.00768138 0.00242404 0.00281167)
(0.00731714 -0.00228325 0.00271914)
(0.00740304 0.00312773 0.00270774)
(0.00682342 -0.00366156 0.00263455)
(0.00630529 0.00463606 0.00182544)
(0.00584626 -0.00381503 0.00175482)
(0.00605806 0.00934985 0.000736362)
(0.00574046 -0.00354503 0.00136934)
(0.00607559 0.0178145 0.00264448)
(0.00309435 -0.0189524 0.00155627)
(0.0219827 0.0284914 0.003081)
(0.0328676 -0.0444524 0.00133621)
(-0.0465764 0.0664391 0.0235784)
(-0.0564038 -0.105438 -0.00463657)
(-0.0461601 0.182618 -0.0405294)
(0.15451 -0.016385 -0.0348983)
(0.15235 0.31993 0.00114298)
(0.0675466 0.357036 -0.000678985)
(0.0642165 -0.0598582 0.0119894)
(0.0266489 0.00213657 0.0149549)
(0.00366558 -0.0337405 0.0142106)
(-0.00369857 -0.0374786 0.0130119)
(-0.009149 -0.0488498 0.0102455)
(-0.0131578 -0.0462468 0.00787582)
(-0.0149575 -0.0527165 0.00518477)
(-0.0155665 -0.0483602 0.00294627)
(-0.014897 -0.0499288 0.000948117)
(-0.0127557 -0.0444142 -0.00074672)
(-0.00940631 -0.0426327 -0.0023435)
(-0.00692696 -0.0366336 -0.00384382)
(-0.00519083 -0.0324087 -0.00477225)
(-0.0041176 -0.0254118 -0.0055181)
(-0.00313188 -0.0180804 -0.00585968)
(-0.00207303 -0.0100756 -0.00526922)
(-0.000944828 -0.00411524 -0.00408642)
(-0.000239923 0.000295325 -0.00282679)
(-7.60866e-05 0.00283621 -0.00150526)
(-0.000352047 0.00405241 -0.000237575)
(-0.00087382 0.00407063 0.000747834)
(-0.00147693 0.00379489 0.00132247)
(-0.00201613 0.00382919 0.00160483)
(-0.00267169 0.00417997 0.00161966)
(-0.00352445 0.00540891 0.00148223)
(-0.00432687 0.00717967 0.00122007)
(-0.00525883 0.0091091 0.000481602)
(-0.00532209 0.0112828 0.00047521)
(-0.00298787 0.0130033 0.00153319)
(0.000275384 0.0138859 0.00166429)
(0.00231242 0.0149589 0.00188489)
(0.00328435 0.0160726 0.00335788)
(0.00375566 0.0163717 0.00513807)
(0.00430937 0.0146817 0.00643452)
(0.0166033 0.0185987 0.00484847)
(0.0211307 0.0113302 0.00482309)
(0.00998584 0.00645002 0.00166631)
(0.0135782 0.00818863 0.00146483)
(0.00806068 0.00419896 0.00171942)
(0.00939315 0.00570482 0.00190703)
(0.00715133 0.00350214 0.00250475)
(0.00785506 0.00431314 0.00275183)
(0.0069542 0.00328655 0.00287655)
(0.00744416 0.00366267 0.0029723)
(0.00706003 0.00309799 0.00291791)
(0.00759858 0.00320799 0.00307756)
(0.0075221 0.00264303 0.00312664)
(0.00780312 0.00249752 0.00320301)
(0.00767261 0.00202453 0.00318324)
(0.00774666 0.00186849 0.00319912)
(0.00763324 0.00156942 0.00317863)
(0.00763154 0.00146588 0.00318835)
(0.00755508 0.00130172 0.00318385)
(0.00752922 0.00124016 0.00319795)
(0.00747858 0.00115712 0.00320617)
(0.0074486 0.001121 0.00322414)
(0.00741184 0.00108096 0.00323972)
(0.0073824 0.00106083 0.0032598)
(0.00735228 0.001042 0.00327925)
(0.00732424 0.00103114 0.00329995)
(0.00729657 0.00102265 0.00332068)
(0.00726948 0.00101734 0.00334169)
(0.00724275 0.00101369 0.00336263)
(0.00721635 0.0010111 0.00338349)
(0.00719035 0.0010106 0.00340422)
(0.00716393 0.00100633 0.00342481)
(0.00714031 0.00101567 0.00344532)
(0.00711088 0.000989854 0.00346443)
(0.00709844 0.00104654 0.00348411)
(0.00705576 0.000927503 0.00350098)
(0.00706548 0.00113153 0.00352413)
(0.00699635 0.000775378 0.00353336)
(0.00704265 0.00130518 0.00356562)
(0.00693377 0.000477015 0.00355988)
(0.00703779 0.00159815 0.00361683)
(0.00688138 -4.81669e-05 0.00358325)
(0.00706761 0.00201612 0.00369045)
(0.00680993 -0.000910997 0.00359646)
(0.00712298 0.00253939 0.0037789)
(0.00661935 -0.00218772 0.00358823)
(0.00693098 0.00314793 0.00366904)
(0.00604954 -0.00368719 0.00343676)
(0.00567525 0.00428534 0.00272001)
(0.00486791 -0.00508776 0.00255819)
(0.00532861 0.00746792 0.00217844)
(0.00553096 -0.00815014 0.00319871)
(0.00741868 0.011159 0.00541303)
(0.00465401 -0.0222068 0.00237782)
(0.0214129 0.0248848 0.00649316)
(0.0220576 -0.0337351 0.00351057)
(-0.00234103 0.091842 0.0192033)
(-0.0664811 -0.130011 0.0139429)
(-0.0546143 0.228548 -0.0919951)
(0.175201 -0.0627791 -0.0116735)
(0.185673 0.322306 0.00354315)
(0.0688803 0.259952 -0.00189994)
(0.0727555 0.034012 0.00906194)
(-0.0188522 0.0966355 0.016875)
(-0.0144663 0.0144347 0.0186032)
(-0.0163372 0.0183823 0.0115385)
(-0.0182028 -0.00125946 0.00601497)
(-0.0186773 -0.00104526 0.0013821)
(-0.0169222 -0.00728934 -0.00202639)
(-0.0146848 -0.0016361 -0.00488736)
(-0.0127148 -0.000117396 -0.00784363)
(-0.0110482 0.0114526 -0.00983118)
(-0.00867102 0.0221278 -0.0104084)
(-0.0066334 0.0335195 -0.00867362)
(-0.00498709 0.0395658 -0.00702097)
(-0.00346701 0.0449624 -0.00549572)
(-0.00150855 0.0474636 -0.0039102)
(0.000579814 0.0484599 -0.00239705)
(0.00229978 0.0474649 -0.00106755)
(0.0032187 0.0446505 0.000125002)
(0.00325409 0.0405769 0.0010148)
(0.00242294 0.0356913 0.00160246)
(0.000943308 0.0307931 0.00187354)
(-0.000900265 0.0263096 0.00189219)
(-0.00282924 0.0225427 0.00172889)
(-0.00468634 0.0198496 0.00139649)
(-0.0064561 0.0182204 0.000858755)
(-0.00799522 0.0173292 0.000245753)
(-0.00834546 0.0165203 2.61429e-05)
(-0.00697336 0.0156994 0.00066648)
(-0.00440566 0.0146377 0.00161059)
(-0.00207577 0.0142836 0.00214392)
(-0.000740613 0.0143387 0.00303121)
(-0.000174567 0.0145547 0.00453847)
(-6.46793e-05 0.0146742 0.00612538)
(0.000239871 0.0137997 0.0071748)
(0.0155385 0.017912 0.00551599)
(0.0229498 0.0129219 0.00565293)
(0.00952478 0.0058964 0.00100091)
(0.0152176 0.00996455 0.000960504)
(0.00867518 0.00391722 0.000427428)
(0.0106615 0.00660033 0.000631322)
(0.0070609 0.00312023 0.0014594)
(0.00761295 0.00437795 0.0019856)
(0.00593444 0.00270384 0.00243123)
(0.00640124 0.0034488 0.002757)
(0.00577709 0.00277128 0.00291481)
(0.00633917 0.00319623 0.00327314)
(0.00611989 0.00260202 0.00344545)
(0.00637162 0.00259705 0.00361647)
(0.00612774 0.00209174 0.00363493)
(0.00616071 0.00200456 0.00368342)
(0.00597367 0.00168222 0.00367278)
(0.00593685 0.00160897 0.00369365)
(0.00581662 0.00143034 0.00369392)
(0.0057642 0.00138158 0.00371227)
(0.00568779 0.00129264 0.00372175)
(0.00563918 0.00126074 0.00374102)
(0.00558568 0.00121876 0.0037564)
(0.00554232 0.00119932 0.00377606)
(0.00550011 0.0011801 0.00379439)
(0.00546134 0.00116928 0.00381347)
(0.00542392 0.00116051 0.00383104)
(0.00538794 0.00115485 0.00384781)
(0.00535309 0.00115055 0.00386369)
(0.00531901 0.0011473 0.00387858)
(0.00528523 0.001146 0.00389185)
(0.00525196 0.00114185 0.0039044)
(0.00521999 0.00114901 0.00391591)
(0.00518636 0.0011273 0.00392662)
(0.00516418 0.00117737 0.00393851)
(0.00512156 0.00106934 0.00394686)
(0.0051195 0.00126 0.00396095)
(0.00505602 0.000924666 0.00395867)
(0.00509299 0.00143165 0.00397963)
(0.00499233 0.000631717 0.00395699)
(0.00510431 0.00172359 0.00400449)
(0.00495008 0.000110498 0.00394214)
(0.00518104 0.002143 0.00404909)
(0.00492167 -0.000718315 0.00390803)
(0.00531274 0.00266147 0.00409478)
(0.00482432 -0.0018269 0.00382395)
(0.00516729 0.00328433 0.00387596)
(0.00445167 -0.00291024 0.00354334)
(0.00438402 0.00436251 0.00285057)
(0.00379931 -0.00468599 0.00304537)
(0.0056842 0.00583075 0.00345064)
(0.00565814 -0.0105722 0.0068452)
(0.00770755 0.0100033 0.00974723)
(-0.000813758 -0.0209254 0.00945109)
(0.0194045 0.0284113 0.0307857)
(0.0119517 -0.050197 0.0279757)
(0.00226824 0.0515305 0.0617361)
(-0.0977763 -0.126282 0.0430207)
(-0.00203112 0.195673 -0.168578)
(0.132132 -0.0750563 0.00858327)
(0.159186 0.453512 0.00662681)
(0.0556919 0.589308 -0.00207379)
(0.0527945 0.516217 0.00404827)
(0.0137766 0.541234 0.00316485)
(0.0119189 0.463614 0.00117981)
(-0.00447432 0.416962 -0.00265299)
(-0.00664406 0.411967 -0.00613633)
(-0.00887106 0.418965 -0.00802119)
(-0.0092634 0.425326 -0.00971147)
(-0.00978185 0.438281 -0.00927032)
(-0.00890954 0.446533 -0.00796832)
(-0.00729934 0.454738 -0.00576137)
(-0.00448098 0.450779 -0.00382622)
(-0.00195279 0.445813 -0.00184815)
(0.000518325 0.434223 -0.000268647)
(0.00236151 0.407532 0.00100501)
(0.00420836 0.359102 0.00205389)
(0.00578917 0.298497 0.00281022)
(0.00703238 0.24408 0.00324928)
(0.00762195 0.194109 0.0033691)
(0.00735002 0.146361 0.00317392)
(0.00638112 0.104551 0.0027204)
(0.00476982 0.0743534 0.00202005)
(0.00275744 0.0564569 0.00124557)
(0.000532634 0.0458335 0.000568276)
(-0.00156075 0.038786 6.69436e-05)
(-0.00329349 0.0331263 -0.000245259)
(-0.00453313 0.0279918 -0.000246277)
(-0.00500414 0.0235884 6.13137e-05)
(-0.00455199 0.0199767 0.000810354)
(-0.00382707 0.0176447 0.00155027)
(-0.00354431 0.0162485 0.00205099)
(-0.00380842 0.0153176 0.00273047)
(-0.00488501 0.0149681 0.0035413)
(-0.00615561 0.0152264 0.00468114)
(-0.00769798 0.0137921 0.00546278)
(0.0129321 0.0169491 0.00594096)
(0.0238477 0.0155606 0.00682919)
(0.00850395 0.00524564 0.00100513)
(0.0159826 0.0117365 0.00174336)
(0.0094918 0.00305259 -7.1691e-06)
(0.0119665 0.00737021 -0.000180402)
(0.00779583 0.00253951 0.000246829)
(0.00780459 0.00455092 0.000920782)
(0.00536555 0.00181881 0.0015715)
(0.00532657 0.00281445 0.00209274)
(0.00419443 0.00184641 0.00252909)
(0.00471997 0.00266564 0.00319233)
(0.00445543 0.0021209 0.00360057)
(0.00470262 0.00239607 0.00392933)
(0.00438792 0.00192358 0.00403966)
(0.00438731 0.00198412 0.00414851)
(0.00415695 0.00167434 0.0041701)
(0.00410148 0.00167069 0.00420912)
(0.00396278 0.00149741 0.0042164)
(0.00390404 0.00148252 0.00423526)
(0.00382602 0.00139961 0.00424054)
(0.00377992 0.0013825 0.00425158)
(0.00373201 0.00134571 0.00425488)
(0.00369471 0.00133217 0.00426021)
(0.00366013 0.00131651 0.00426246)
(0.00362992 0.00130892 0.00426566)
(0.00360269 0.00130317 0.00426859)
(0.0035776 0.00130023 0.0042707)
(0.00355389 0.00129843 0.0042714)
(0.00353137 0.00129756 0.00427115)
(0.00350997 0.00129801 0.00427037)
(0.00348952 0.00129575 0.00426911)
(0.00346888 0.00130354 0.00426597)
(0.00344909 0.00128516 0.00426144)
(0.00343676 0.00133162 0.00425741)
(0.00341181 0.00123578 0.00425075)
(0.00341904 0.0014185 0.0042513)
(0.00338404 0.00111067 0.00424302)
(0.0034334 0.00159911 0.00425777)
(0.00337296 0.000843471 0.00423838)
(0.00350159 0.00190193 0.0042827)
(0.00339975 0.000371668 0.00423099)
(0.00364746 0.00235463 0.00433005)
(0.00347846 -0.000332575 0.00421284)
(0.00380915 0.00295501 0.0043427)
(0.00352404 -0.00115076 0.00410619)
(0.00363751 0.00376113 0.00400275)
(0.00337609 -0.00194887 0.00369435)
(0.00335432 0.00477859 0.00301934)
(0.00360127 -0.00390933 0.00354132)
(0.00552572 0.00546766 0.00423979)
(0.00404475 -0.00912523 0.00784483)
(0.00504524 0.00977606 0.00977167)
(-0.00787609 -0.0153496 0.0193958)
(0.00899845 0.0187487 0.0444708)
(-0.0032142 -0.0239742 0.0502246)
(0.0171536 0.0399862 0.104203)
(-0.0733924 -0.122396 0.0848649)
(0.0358163 0.0715384 -0.159932)
(0.0810609 -0.00781193 0.0218528)
(0.149535 0.482793 0.00360351)
(0.0470328 0.59916 -0.00372472)
(0.0456636 0.567954 0.00358268)
(0.0144766 0.612752 0.00101718)
(0.0070505 0.605939 -0.00078023)
(-0.00103898 0.614451 -0.00281687)
(-0.00364989 0.614537 -0.00309545)
(-0.00638728 0.608307 -0.00285463)
(-0.00676688 0.604495 -0.00163835)
(-0.00681449 0.606528 -0.00011605)
(-0.00551583 0.613091 0.00184034)
(-0.00387585 0.606384 0.00342936)
(-0.00139166 0.609848 0.00515794)
(0.000587036 0.621221 0.00650381)
(0.00232931 0.613479 0.00772011)
(0.00457989 0.603358 0.0085105)
(0.00671504 0.601522 0.00897167)
(0.00855415 0.592266 0.00907581)
(0.00996011 0.583349 0.00895621)
(0.0108572 0.576973 0.00839698)
(0.0107155 0.556643 0.00779959)
(0.0100296 0.544991 0.00707014)
(0.00888804 0.526213 0.0062387)
(0.00720545 0.503011 0.00529033)
(0.00514117 0.444439 0.00452683)
(0.00293249 0.366327 0.00391583)
(0.000676982 0.309494 0.00345792)
(-0.00102782 0.210878 0.0033693)
(-0.00240066 0.121687 0.00350283)
(-0.00347898 0.0542218 0.00375009)
(-0.00449082 0.0231287 0.00401745)
(-0.00526202 0.0166236 0.0042698)
(-0.00587627 0.0138856 0.00438889)
(-0.00669794 0.0125498 0.00446839)
(-0.00732323 0.0123617 0.0040239)
(-0.00820555 0.0122648 0.0020172)
(0.0085053 0.0151561 0.00523915)
(0.023629 0.0193034 0.00809057)
(0.00537962 0.00408461 0.00199983)
(0.0147509 0.0136082 0.00385706)
(0.00827562 0.00186798 0.00137032)
(0.0116171 0.00762735 0.000614838)
(0.0075646 0.00180363 0.000337491)
(0.00748741 0.00468104 0.000845393)
(0.00439486 0.00117136 0.00139957)
(0.00368204 0.00233577 0.00195257)
(0.00186956 0.000895253 0.00232379)
(0.00205728 0.0019257 0.0030569)
(0.00147203 0.00138953 0.0035709)
(0.00164716 0.00197132 0.00401668)
(0.00115702 0.001557 0.00418066)
(0.00108901 0.0018117 0.00433333)
(0.000750526 0.00155314 0.00436789)
(0.000647949 0.0016625 0.00442014)
(0.00044675 0.00152286 0.00442278)
(0.000358277 0.0015676 0.00444112)
(0.000254668 0.00150524 0.0044396)
(0.000195607 0.0015175 0.0044454)
(0.000141456 0.00149404 0.00444129)
(0.000104912 0.00149342 0.00444063)
(7.52172e-05 0.00148556 0.00443625)
(5.26475e-05 0.00148371 0.00443263)
(3.41452e-05 0.00148224 0.0044278)
(2.04456e-05 0.0014831 0.00442328)
(1.04234e-05 0.00148462 0.00441914)
(2.73285e-06 0.0014867 0.00441534)
(-3.81492e-06 0.00148972 0.00441131)
(-9.03288e-06 0.00149128 0.00440723)
(-1.37255e-05 0.00150128 0.00440242)
(-1.52758e-05 0.00148729 0.00439848)
(-1.40953e-05 0.00153347 0.0043943)
(-2.16522e-05 0.00144772 0.00439045)
(-6.72682e-06 0.00162203 0.00439292)
(-2.1446e-05 0.0013367 0.0043974)
(3.10242e-05 0.001808 0.00442567)
(3.91182e-06 0.00109808 0.00444092)
(0.000115768 0.00212899 0.00449298)
(7.07881e-05 0.000698399 0.00449448)
(0.00026428 0.00263494 0.00457973)
(0.0002108 0.000155819 0.00454628)
(0.00040331 0.00337174 0.00460896)
(0.000407044 -0.000438775 0.00449841)
(0.000363605 0.00440742 0.0042981)
(0.000689774 -0.00128396 0.00416266)
(0.000698372 0.00563065 0.00361114)
(0.00172247 -0.00339336 0.00414093)
(0.002913 0.00660454 0.00462438)
(0.00225634 -0.00812534 0.00697928)
(0.000378531 0.00717437 0.00726834)
(-0.0098175 -0.0162699 0.00941022)
(-0.0178026 -0.00265253 0.0297722)
(-0.0331156 -0.0408158 0.0511964)
(0.00310013 -0.0220658 0.087179)
(-0.0165882 -0.116574 0.0793702)
(0.0308176 -0.0460535 -0.154683)
(0.0433657 0.0660129 0.0243203)
(0.0796204 0.569667 0.00106102)
(0.0270766 0.644951 -0.00429204)
(0.0262056 0.604596 0.00429095)
(0.0117331 0.678084 0.00595898)
(0.00720265 0.640695 0.00782535)
(0.00170505 0.657715 0.00647892)
(-0.000731597 0.646588 0.00691602)
(-0.00298299 0.636165 0.00683306)
(-0.00404921 0.647949 0.00767835)
(-0.00473598 0.631324 0.00861446)
(-0.00420887 0.648174 0.00975755)
(-0.00338781 0.652412 0.0105232)
(-0.0016004 0.655506 0.0115086)
(5.74815e-05 0.636783 0.0121882)
(0.00233627 0.619314 0.013356)
(0.004609 0.637944 0.0136386)
(0.00687376 0.641783 0.0139269)
(0.00894542 0.617567 0.0139114)
(0.0112313 0.643523 0.0137847)
(0.0133674 0.630416 0.0132464)
(0.0142598 0.607396 0.0128975)
(0.0148654 0.617621 0.0121761)
(0.0148969 0.614304 0.011097)
(0.0138539 0.598523 0.00978294)
(0.0120893 0.580217 0.00845692)
(0.0100884 0.546961 0.00747278)
(0.00738824 0.543922 0.00618034)
(0.00433027 0.538947 0.0047253)
(0.00106269 0.516536 0.00333313)
(-0.00217494 0.506284 0.00214405)
(-0.00590655 0.492358 0.00079593)
(-0.00933192 0.460743 -0.000344859)
(-0.0123373 0.388714 -0.000910005)
(-0.0149165 0.290029 -0.00176144)
(-0.0173166 0.206304 -0.00293921)
(-0.02144 0.215099 -0.0049103)
(0.00185467 0.00975962 0.00436922)
(0.0221529 0.023005 0.00825907)
(0.0010892 0.00295735 0.00269866)
(0.011704 0.0162471 0.00572567)
(0.00561108 0.00120717 0.0033703)
(0.00948835 0.00809857 0.00252112)
(0.0057589 0.000923483 0.00179628)
(0.00632959 0.00463376 0.00161998)
(0.00327786 0.000652821 0.0021009)
(0.00204906 0.00201303 0.00263653)
(-0.000224174 4.96742e-05 0.00306682)
(-0.000105362 0.00119153 0.00377389)
(-0.000779631 0.000454246 0.00431738)
(-0.000511286 0.00128423 0.00485654)
(-0.00102657 0.00094071 0.00509839)
(-0.00106449 0.00144844 0.00531425)
(-0.00141949 0.00128728 0.0053848)
(-0.00148675 0.00156214 0.00547744)
(-0.00167217 0.00149626 0.00550942)
(-0.00172032 0.00163217 0.00556074)
(-0.00179388 0.00161738 0.00558811)
(-0.0018148 0.00168053 0.00562629)
(-0.00183373 0.00168916 0.00565333)
(-0.00183309 0.00171592 0.00568677)
(-0.00182669 0.0017284 0.00571705)
(-0.00181249 0.00174237 0.00574941)
(-0.00179305 0.00175204 0.00578201)
(-0.00176919 0.00176036 0.00581552)
(-0.00174284 0.00176742 0.00584943)
(-0.00171359 0.00177406 0.00588407)
(-0.0016826 0.00178088 0.00591887)
(-0.00164899 0.00178573 0.00595426)
(-0.00161458 0.00179674 0.00598889)
(-0.00157534 0.00178645 0.00602567)
(-0.00153487 0.00183041 0.00606079)
(-0.00149954 0.00175121 0.00609827)
(-0.00144183 0.00191708 0.00613783)
(-0.00140947 0.00165194 0.00618016)
(-0.00131468 0.00211135 0.00623111)
(-0.00129114 0.00145073 0.00627674)
(-0.00114466 0.00246364 0.00633789)
(-0.0011258 0.00113353 0.006377)
(-0.000920947 0.00304014 0.00643686)
(-0.000888078 0.000744752 0.00645285)
(-0.000744682 0.0039311 0.00641337)
(-0.000598722 0.000277998 0.00637834)
(-0.000724879 0.00515177 0.00604795)
(-0.000222731 -0.000861086 0.00596907)
(-0.000427792 0.00646291 0.0056026)
(0.000905591 -0.00357967 0.00606513)
(0.00149722 0.00768756 0.00689866)
(0.00301097 -0.00670043 0.00908992)
(0.00071532 0.00979958 0.0103147)
(0.00223068 -0.0109307 0.0101997)
(-0.0152116 0.00518817 0.0296286)
(-0.0293733 -0.0450219 0.0449983)
(-0.015289 -0.0337716 0.0760882)
(0.0169467 -0.0939585 0.0692244)
(-0.00366946 -0.0785165 -0.141359)
(-0.0132923 0.102769 0.0229086)
(-0.0289537 0.611789 -0.00543157)
(-0.00953307 0.707715 -0.00564262)
(-0.00647401 0.716658 0.00935553)
(-0.00137888 0.745592 0.0108061)
(5.89892e-05 0.742206 0.0136357)
(-0.00027285 0.740571 0.0134587)
(-0.000960471 0.744133 0.0141253)
(-0.00147395 0.758091 0.014253)
(-0.00192593 0.737055 0.014845)
(-0.00173655 0.738513 0.0155775)
(-0.00106699 0.731808 0.0163842)
(-1.04786e-05 0.730346 0.0169884)
(0.00154499 0.724635 0.0177075)
(0.00369318 0.718925 0.0181974)
(0.00636869 0.710668 0.0188976)
(0.00868384 0.700809 0.0192404)
(0.0109752 0.691146 0.0197539)
(0.0132515 0.69187 0.0201005)
(0.0154529 0.687935 0.020541)
(0.0175046 0.681394 0.0209941)
(0.0195013 0.674922 0.0214947)
(0.0207198 0.6684 0.0218387)
(0.0215302 0.660207 0.0220151)
(0.0218217 0.652055 0.0219992)
(0.0217836 0.640448 0.0217302)
(0.0213524 0.620094 0.0212041)
(0.0202864 0.608453 0.0203117)
(0.0186887 0.594049 0.0189055)
(0.0166737 0.574926 0.0168941)
(0.0136093 0.560626 0.0137526)
(0.00966692 0.522592 0.00936553)
(0.00477057 0.490269 0.00335765)
(-0.000597448 0.457616 -0.00430311)
(-0.00650112 0.41569 -0.0157306)
(-0.0150125 0.415243 -0.0358248)
(-0.02254 0.428925 -0.0593026)
(-0.00731249 0.00599545 -0.00454065)
(0.0200025 0.0272865 0.00509871)
(-0.00462807 0.00316029 -0.000736177)
(0.00722456 0.0200127 0.00346489)
(0.00147081 0.00179428 0.00202365)
(0.00573046 0.00970424 0.00134267)
(0.00257195 0.000718102 0.000631494)
(0.0038937 0.00519255 -0.000209996)
(0.00114839 0.000461618 -4.26381e-05)
(-0.000398403 0.00195413 -4.87576e-05)
(-0.00330792 -0.000472875 0.000141782)
(-0.00355767 0.000808141 0.000715675)
(-0.00459283 -5.67562e-05 0.00123063)
(-0.00456734 0.000950251 0.00176881)
(-0.00523145 0.000678986 0.00207925)
(-0.0053258 0.00134815 0.00233369)
(-0.00572597 0.0012491 0.00245234)
(-0.00581729 0.00161005 0.00257088)
(-0.00602602 0.00157367 0.00263378)
(-0.00609065 0.0017465 0.00270664)
(-0.00617967 0.00174557 0.00275841)
(-0.00621406 0.00182112 0.00281805)
(-0.006241 0.00183719 0.00286832)
(-0.00624847 0.00186911 0.00292407)
(-0.00624675 0.00188544 0.0029779)
(-0.00623594 0.00190289 0.00303371)
(-0.00622066 0.00191671 0.00308882)
(-0.00620186 0.0019295 0.00314336)
(-0.00618098 0.00194051 0.00319693)
(-0.00615885 0.00195034 0.00324965)
(-0.00613587 0.00196009 0.00330129)
(-0.00611084 0.00196766 0.00335211)
(-0.00608639 0.00198061 0.00340116)
(-0.00605711 0.00197506 0.00345014)
(-0.00602948 0.00201946 0.00349492)
(-0.00600682 0.00195047 0.00354153)
(-0.00597191 0.00210875 0.00358325)
(-0.00596019 0.00186591 0.00363086)
(-0.00590198 0.00230278 0.00366857)
(-0.00588449 0.0016949 0.00372065)
(-0.00581642 0.002665 0.00374628)
(-0.00577066 0.00144519 0.00380674)
(-0.00573367 0.00328397 0.00379796)
(-0.00560565 0.00118825 0.00385596)
(-0.00563437 0.00427603 0.00374112)
(-0.00529084 0.000853151 0.00374611)
(-0.00530441 0.00562651 0.00343854)
(-0.00455964 -0.000429072 0.00342188)
(-0.00438206 0.00700951 0.00339833)
(-0.00341432 -0.00413594 0.00370863)
(-0.00411158 0.00785514 0.00458366)
(-0.0024038 -0.00685255 0.00662985)
(-0.00748721 0.0125 0.00720648)
(-0.00291252 -0.00919802 0.00888091)
(-0.0194997 0.0234129 0.0236231)
(-0.0200861 -0.0487894 0.0364764)
(-0.0318402 -0.0266922 0.058468)
(0.0547314 -0.125823 0.0592204)
(-0.0353722 0.000889281 -0.160741)
(-0.0611606 0.0342616 0.0109417)
(-0.136561 0.516921 -0.019268)
(-0.0422738 0.597825 -0.00636162)
(-0.0359561 0.587075 0.00318592)
(-0.0149603 0.619661 0.00735286)
(-0.00988755 0.607546 0.00873649)
(-0.00629857 0.593557 0.00906619)
(-0.00562674 0.606482 0.00965188)