/*--------------------------------*- C++ -*----------------------------------*\
| =========                 |                                                 |
| \\      /  F ield         | OpenFOAM: The Open Source CFD Toolbox           |
|  \\    /   O peration     | Version:  2.3.0                                 |
|   \\  /    A nd           | Web:      www.OpenFOAM.org                      |
|    \\/     M anipulation  |                                                 |
\*---------------------------------------------------------------------------*/
FoamFile
{
    version     2.0;
    format      ascii;
    class       volVectorField;
    location    "14";
    object      U.air;
}
// * * * * * * * * * * * * * * * * * * * * * * * * * * * * * * * * * * * * * //

dimensions      [0 1 -1 0 0 0 0];

internalField   nonuniform List<vector> 
6144
(
(0.00753805 0.0156261 -0.000302028)
(0.00832932 -0.00188207 0.00013737)
(0.00267463 -0.00439733 -0.000171059)
(0.00355839 -0.00511363 -0.000105438)
(0.00159624 -0.00781913 0.000637546)
(0.0018916 -0.00588791 0.000853092)
(0.00136283 -0.0065071 0.00085954)
(0.00157076 -0.00480596 0.000667629)
(0.00151402 -0.00402206 -0.000255082)
(0.0016935 -0.00194515 -0.000570591)
(0.00184061 -0.000392098 -0.000539969)
(0.00213669 0.000867497 -0.000271975)
(0.00241845 0.00113688 -0.000150981)
(0.0026222 0.00109462 -9.63275e-05)
(0.00274329 0.000751356 -0.000205352)
(0.00281827 0.000469997 -0.000302443)
(0.00286788 0.000185073 -0.000432903)
(0.00289917 1.73573e-05 -0.000520695)
(0.00292291 -0.000128793 -0.000605464)
(0.00294174 -0.000189116 -0.000657356)
(0.0029516 -0.000241564 -0.0007005)
(0.00296323 -0.000250197 -0.000723423)
(0.0029668 -0.000257632 -0.000740406)
(0.00297148 -0.000245534 -0.000746861)
(0.00297204 -0.000234206 -0.000749426)
(0.00297228 -0.00021613 -0.000747275)
(0.00297078 -0.000198356 -0.000743197)
(0.00296856 -0.000179124 -0.000737255)
(0.00296557 -0.00015853 -0.00073071)
(0.00296144 -0.000141805 -0.000723093)
(0.00295935 -0.000109117 -0.000715855)
(0.00294874 -0.000113417 -0.000709659)
(0.00295553 -3.2574e-05 -0.00069749)
(0.00292567 -0.000107236 -0.000699109)
(0.0029582 9.15748e-05 -0.000669999)
(0.00289604 -0.000145032 -0.000687712)
(0.00295675 0.000304641 -0.000633772)
(0.00285911 -0.000280905 -0.000676336)
(0.00294584 0.000654153 -0.000576905)
(0.00281307 -0.000569922 -0.000656368)
(0.00292334 0.00119604 -0.00045921)
(0.00275924 -0.0011173 -0.000603522)
(0.00287456 0.00188828 -0.00025402)
(0.00269663 -0.00202721 -0.000486936)
(0.00271841 0.00254149 -8.76295e-05)
(0.00260892 -0.00307261 -0.000278123)
(0.00217752 0.00328881 -0.000367296)
(0.00228173 -0.00249001 -0.000467835)
(0.00154105 0.00678668 -0.00153437)
(0.00252595 0.00116751 -0.00164787)
(0.00528273 0.0147179 -0.00184631)
(0.0077119 -0.00884659 -0.00174907)
(0.00604726 0.0119832 -0.00158614)
(0.0026205 -0.0158205 -0.00380351)
(0.00325894 0.0386921 -0.00662896)
(0.00300241 -0.0275093 -0.0111599)
(0.0133815 0.0715194 -0.00627164)
(0.0121635 -0.0482292 -0.0275855)
(-0.0317785 0.119304 -0.069376)
(0.0715181 0.0592253 -0.116319)
(0.0979487 0.309789 -0.00758727)
(0.0456164 0.33847 -0.00577424)
(0.0342589 -0.140662 -0.00316482)
(0.0349808 -0.167693 0.00120888)
(0.0288939 -0.169568 0.00455408)
(0.0209466 -0.17777 0.00673382)
(0.0149577 -0.185796 0.00795593)
(0.0108336 -0.19118 0.00831946)
(0.00794318 -0.193908 0.00810432)
(0.00551499 -0.194736 0.00754611)
(0.00339174 -0.19423 0.00681541)
(0.00168347 -0.192431 0.00592563)
(0.000222802 -0.189504 0.00497238)
(-0.000675781 -0.185165 0.00408477)
(-0.00171984 -0.179922 0.00308646)
(-0.00278275 -0.173334 0.00220774)
(-0.00387997 -0.165304 0.000980091)
(-0.00521341 -0.155463 -0.000240037)
(-0.00576299 -0.143103 -0.0012693)
(-0.00537924 -0.129877 -0.00243422)
(-0.00492027 -0.11684 -0.00352299)
(-0.0036476 -0.10223 -0.00499482)
(-0.00341007 -0.0873637 -0.00657886)
(-0.00308226 -0.0737335 -0.0075544)
(0.0016633 -0.0593102 -0.00799704)
(0.0044479 -0.0434328 -0.00736444)
(0.00244222 -0.0289155 -0.00537251)
(-0.00101226 -0.015655 -0.00285455)
(-0.00345076 -0.00425681 -0.0011346)
(-0.00641683 0.00654236 -0.000807312)
(-0.00314941 0.0197854 5.86351e-05)
(0.00460874 0.0255511 -0.00784169)
(0.00531907 0.0345788 -0.0113416)
(0.00437253 0.0414448 -0.00745644)
(0.00153672 0.0340634 0.00829406)
(0.00468396 0.0228371 0.0185557)
(0.0161816 0.0176081 0.00266682)
(0.018076 0.00420272 0.00352904)
(0.0057046 -0.000194515 0.00168523)
(0.00892511 -0.000317505 0.00173962)
(0.00259767 -0.00508173 0.00325029)
(0.00391323 -0.00165248 0.00312228)
(0.00196695 -0.00356153 0.0042078)
(0.00260472 -0.00121059 0.00376204)
(0.00231133 -0.00146026 0.00354083)
(0.00254765 0.000265871 0.00299137)
(0.00286789 0.00121213 0.0028025)
(0.00355863 0.00223133 0.00309148)
(0.00422982 0.00216843 0.00334634)
(0.0047178 0.00191155 0.0034709)
(0.00498166 0.00136248 0.00337407)
(0.00513953 0.000970964 0.0032585)
(0.00521898 0.000587166 0.00310502)
(0.00527152 0.00037052 0.00300257)
(0.00530212 0.000182883 0.00291219)
(0.00532513 0.000103496 0.00286299)
(0.00533817 3.61795e-05 0.00282967)
(0.0053494 2.5133e-05 0.00282012)
(0.00535345 1.45144e-05 0.00282031)
(0.00535571 3.19333e-05 0.00283227)
(0.00535382 4.66185e-05 0.00284941)
(0.00535012 7.15652e-05 0.00287235)
(0.00534383 9.55372e-05 0.00289711)
(0.00533593 0.000121851 0.00292384)
(0.00532655 0.000148664 0.00295093)
(0.00531515 0.000174059 0.00297773)
(0.00530631 0.000208227 0.00300342)
(0.00528414 0.000218829 0.00302631)
(0.00528985 0.00029503 0.00305236)
(0.00523592 0.00024381 0.00306747)
(0.00528033 0.00043527 0.00311058)
(0.00516539 0.000209119 0.00310738)
(0.00527319 0.000671659 0.00317921)
(0.0050707 5.57516e-05 0.00314165)
(0.00525278 0.00105851 0.00326978)
(0.00494431 -0.000284608 0.00317805)
(0.005223 0.00166163 0.00342686)
(0.00479219 -0.000960728 0.00324861)
(0.00519447 0.00248136 0.00368243)
(0.00461504 -0.00218371 0.0033635)
(0.00501901 0.00337402 0.00387568)
(0.00437641 -0.00392936 0.00344074)
(0.0040043 0.00424172 0.00322012)
(0.0036261 -0.0046098 0.00297219)
(0.00158313 0.00632967 0.000751767)
(0.00409178 -0.00167895 0.00180043)
(0.0083964 0.0103492 0.000501899)
(0.0124531 -0.00460994 0.00178377)
(0.0106188 0.0186476 0.00463867)
(-0.000577605 -0.0143738 0.000933474)
(0.0116891 0.0498909 0.00209114)
(0.0290234 -0.0486475 -0.00139948)
(-0.0267739 0.0444991 0.0149527)
(-0.0259616 -0.0264288 -0.00474538)
(-0.0130551 0.178328 -0.00122529)
(0.180107 -0.0128903 -0.0597891)
(0.110624 0.353513 -0.0089947)
(0.00276926 0.418719 0.00645074)
(-0.0223627 -0.0986714 0.0114408)
(-0.00716856 -0.0735217 0.0131416)
(-0.00924821 -0.0959484 0.0147621)
(-0.0173571 -0.120802 0.0167446)
(-0.0208657 -0.134786 0.0162115)
(-0.0216417 -0.145149 0.0150017)
(-0.0213792 -0.153207 0.0136674)
(-0.0207661 -0.159046 0.0119921)
(-0.0201662 -0.16255 0.0102405)
(-0.0193664 -0.16369 0.00849724)
(-0.0185104 -0.162972 0.00704427)
(-0.017484 -0.160731 0.00559703)
(-0.0166759 -0.157837 0.00400688)
(-0.0161515 -0.153285 0.00242865)
(-0.0161647 -0.147094 0.000499703)
(-0.0166885 -0.138755 -0.000698926)
(-0.0158643 -0.126656 -0.00185963)
(-0.0151486 -0.113468 -0.00325689)
(-0.0148729 -0.101981 -0.00471631)
(-0.011435 -0.0894156 -0.00694752)
(-0.00765892 -0.0732736 -0.00695075)
(-0.00704068 -0.056906 -0.00771029)
(-0.0101563 -0.0336165 -0.00916114)
(-0.0111105 -0.010507 -0.00405456)
(-0.00855495 0.000401435 0.000994148)
(-0.00736985 0.00593061 0.0024059)
(-0.00875545 0.00734368 0.00127637)
(-0.0109879 0.0100569 -0.000782943)
(-0.0077305 0.014291 0.00156449)
(-0.00126072 0.0183416 -0.000495468)
(0.00165703 0.0279838 -0.00266139)
(-0.0016355 0.0360339 0.00506874)
(-0.00526175 0.029096 0.0188145)
(-0.00165072 0.0170768 0.0290659)
(0.0209696 0.0198719 0.00294809)
(0.0244774 0.00885731 0.0025449)
(0.00851148 0.00200005 -0.00137541)
(0.0131644 0.00326663 -0.00111218)
(0.00275535 -0.00380374 0.00097554)
(0.00422864 0.000567937 0.00156081)
(0.000844163 -0.00229755 0.00365379)
(0.00167365 0.00108086 0.00379547)
(0.0012828 0.000660336 0.00448642)
(0.00136418 0.00215504 0.004407)
(0.00168622 0.00245644 0.00420271)
(0.00270565 0.00325948 0.00439012)
(0.00361552 0.00294066 0.00467806)
(0.00425271 0.00258575 0.00484555)
(0.0044753 0.00192337 0.00488602)
(0.00457888 0.00148798 0.00487889)
(0.00455837 0.00105339 0.00485552)
(0.00454891 0.000815892 0.00484558)
(0.00450957 0.000605093 0.00484785)
(0.00448682 0.000511386 0.00486343)
(0.00445882 0.000430172 0.0048877)
(0.00444017 0.000407171 0.00491892)
(0.00441898 0.000388888 0.00495414)
(0.00440124 0.000397775 0.00499207)
(0.0043829 0.000407699 0.00502993)
(0.00436494 0.000428078 0.0050695)
(0.00434577 0.000448625 0.005108)
(0.00432601 0.0004719 0.0051457)
(0.00430541 0.000495688 0.00518172)
(0.00428387 0.000519611 0.00521638)
(0.00426233 0.000548312 0.00524872)
(0.00423231 0.000565903 0.00527523)
(0.00422278 0.000622774 0.00530223)
(0.00416732 0.000594699 0.00532034)
(0.00420025 0.000745384 0.00535465)
(0.00407368 0.000569859 0.00535369)
(0.00419631 0.000960342 0.00540335)
(0.00394678 0.000431007 0.00537638)
(0.00419491 0.00131404 0.00545198)
(0.00378203 9.97653e-05 0.00538428)
(0.00422131 0.00185597 0.00551831)
(0.00360747 -0.000566448 0.00537767)
(0.00434046 0.0026085 0.00561823)
(0.00342976 -0.00177421 0.00534506)
(0.00443153 0.00356161 0.00568248)
(0.00314431 -0.00354774 0.00527447)
(0.00336016 0.00460851 0.00517153)
(0.00237543 -0.00479048 0.00508108)
(4.73536e-06 0.00633175 0.00293991)
(0.00374199 -0.00380299 0.00447797)
(0.00598318 0.00917006 0.0036183)
(0.0112808 -0.00119665 0.0035214)
(0.0112617 0.0276406 0.00814403)
(-0.0058598 -0.0247501 0.00323923)
(0.023222 0.0379586 0.00359745)
(0.0345784 -0.0527141 -0.00296766)
(-0.0538547 0.0836266 0.027563)
(-0.0680548 -0.118137 -0.0097525)
(-0.0719197 0.178455 -0.0350246)
(0.178781 -0.0232631 -0.0402955)
(0.200733 0.261383 -0.0187734)
(0.0856333 0.173013 0.00501669)
(0.0893352 -0.0994217 0.0200944)
(0.0394602 -0.0301282 0.0226434)
(0.015083 -0.0665882 0.0234482)
(0.00528887 -0.0902053 0.0227827)
(-0.00222957 -0.102406 0.0195372)
(-0.00841689 -0.111667 0.0166647)
(-0.0127058 -0.118948 0.0143317)
(-0.0153349 -0.123827 0.012083)
(-0.0166112 -0.126272 0.00970333)
(-0.0173392 -0.126925 0.00755115)
(-0.0175541 -0.126336 0.00552836)
(-0.0177129 -0.124321 0.00326795)
(-0.0187469 -0.122019 0.000968154)
(-0.0193129 -0.11874 -0.00170744)
(-0.0213293 -0.113558 -0.00325632)
(-0.023563 -0.106916 -0.00455908)
(-0.0203368 -0.0959514 -0.00598897)
(-0.0156062 -0.0830075 -0.00661923)
(-0.0150796 -0.0711301 -0.0123733)
(-0.0186229 -0.0473919 -0.0162975)
(-0.0221186 -0.0156731 -0.0110678)
(-0.0213968 0.00280632 -0.00685341)
(-0.015911 0.0149757 -0.00344032)
(-0.0077142 0.0187101 0.00110134)
(-0.00331323 0.0186165 0.00379814)
(-0.00300121 0.0161271 0.0047123)
(-0.00694825 0.0133009 0.00277147)
(-0.0108659 0.0116604 0.000105659)
(-0.0103389 0.0123619 0.0005249)
(-0.00377912 0.0155538 -0.000504849)
(-0.0017778 0.0236832 0.000447194)
(-0.00433427 0.0291957 0.00958644)
(-0.00997034 0.0256877 0.0210266)
(-0.0111869 0.0137475 0.0305389)
(0.0265084 0.0271386 0.00447904)
(0.031348 0.0158946 0.00306293)
(0.0142999 0.00620492 -0.00470077)
(0.0211214 0.00952105 -0.00306235)
(0.00723874 -0.00206293 -0.00397603)
(0.00754354 0.00254312 -0.00304669)
(0.000995002 -0.00391742 0.000298999)
(0.00066321 0.000688057 0.00142147)
(-0.000246347 1.05899e-05 0.00315399)
(0.000321598 0.00240921 0.00350094)
(0.000560101 0.00255239 0.00355231)
(0.001636 0.00346844 0.00401931)
(0.00261537 0.00320187 0.00450973)
(0.00323155 0.00297681 0.00480639)
(0.00341821 0.00238394 0.00492445)
(0.00347119 0.00198526 0.00497133)
(0.00342412 0.00155118 0.00499674)
(0.00338632 0.00130618 0.00502279)
(0.00333124 0.00108134 0.00505821)
(0.00329193 0.000972995 0.00509853)
(0.0032504 0.000879824 0.00514322)
(0.00322107 0.00084453 0.00518794)
(0.00319048 0.000816671 0.00522843)
(0.003166 0.000816254 0.00526736)
(0.00314093 0.000819438 0.00530478)
(0.0031161 0.000832833 0.00534073)
(0.00309228 0.000847243 0.00537458)
(0.00306907 0.000864949 0.00540554)
(0.00304581 0.000883586 0.00543284)
(0.00302187 0.000903545 0.00545705)
(0.00299758 0.000927868 0.0054794)
(0.00297153 0.000948926 0.00550285)
(0.00295635 0.000987089 0.00552639)
(0.00291249 0.000982918 0.0055379)
(0.00292861 0.00108976 0.00555207)
(0.00282648 0.000965255 0.00554585)
(0.00292808 0.00127318 0.00557676)
(0.00270999 0.000834891 0.00554457)
(0.0029515 0.00158164 0.00559865)
(0.0025666 0.000496185 0.00552416)
(0.0030325 0.00205224 0.00562974)
(0.00242221 -0.000194196 0.0054725)
(0.0032335 0.00273065 0.00570103)
(0.00224665 -0.00139339 0.00537027)
(0.00347029 0.00371906 0.00579927)
(0.00189344 -0.0029611 0.00525009)
(0.00247224 0.0051006 0.00542935)
(0.00106504 -0.00385998 0.00518907)
(-0.000900142 0.0076599 0.00385526)
(0.00248922 -0.00522762 0.00517161)
(0.00336594 0.0118682 0.00452253)
(0.00725016 -0.0103735 0.00439762)
(0.0139707 0.0250326 0.00568296)
(-0.00622732 -0.0232241 -0.0029724)
(0.0199492 0.027951 0.0125569)
(0.0233301 -0.036097 0.000473771)
(-0.00155846 0.0954126 0.0372779)
(-0.079096 -0.136677 0.0332461)
(-0.0743464 0.178409 -0.111439)
(0.201617 -0.0798578 -0.0311874)
(0.236147 0.3127 -0.0201519)
(0.0824182 0.153233 -0.00127224)
(0.0916785 0.00399186 0.0145483)
(-0.00967738 0.0505184 0.0237365)
(-0.00890575 -0.0332814 0.0302988)
(-0.0133519 -0.0388567 0.0245184)
(-0.0183954 -0.0565978 0.0173652)
(-0.0230398 -0.0693979 0.0122861)
(-0.0260975 -0.0780856 0.00863758)
(-0.0272753 -0.0839228 0.00561478)
(-0.0269659 -0.0872186 0.00273269)
(-0.0254478 -0.0880402 -0.000276829)
(-0.0218354 -0.086774 -0.00305128)
(-0.0160033 -0.0835252 -0.00535725)
(-0.0117526 -0.078589 -0.00809169)
(-0.0107065 -0.0707702 -0.00933616)
(-0.0139623 -0.0624152 -0.00930061)
(-0.0206986 -0.0534817 -0.0132679)
(-0.0261085 -0.0328531 -0.0166309)
(-0.0274367 -0.000732746 -0.0180809)
(-0.0268994 0.0212911 -0.0166892)
(-0.0243913 0.0379955 -0.0105799)
(-0.0186229 0.0428396 -0.00390431)
(-0.012721 0.0422923 0.00092106)
(-0.00793665 0.0386912 0.00466915)
(-0.00505152 0.0338033 0.00725104)
(-0.00476073 0.029223 0.00798575)
(-0.00696338 0.0244525 0.00677401)
(-0.0112786 0.0196054 0.00358934)
(-0.0136914 0.0161222 0.00137281)
(-0.0126896 0.0132247 0.000718693)
(-0.00909304 0.0136774 0.000815134)
(-0.00784484 0.0189175 0.00341033)
(-0.00969917 0.0227405 0.011687)
(-0.0156771 0.0223121 0.0221142)
(-0.0192507 0.0116639 0.0313105)
(0.0284873 0.0327293 0.00634173)
(0.0366673 0.0234561 0.00687038)
(0.0210775 0.00924165 -0.00251991)
(0.0282776 0.0140101 0.00215328)
(0.015618 -0.00181483 -0.00506953)
(0.0162683 0.00519456 -0.0056001)
(0.00563198 -0.00355781 -0.00329359)
(0.0019527 0.00103527 -0.00136704)
(-0.00115544 -0.00172775 0.000920761)
(-0.00148773 0.000670081 0.0015732)
(-0.00102436 0.000777878 0.00221831)
(-7.53062e-06 0.00231226 0.00316201)
(0.000869516 0.00244816 0.00398331)
(0.00129982 0.00259166 0.00442322)
(0.00134411 0.00227826 0.00462382)
(0.00123413 0.00206927 0.00469586)
(0.00105033 0.0017373 0.00471162)
(0.000896289 0.0015387 0.00471984)
(0.000748852 0.00132586 0.00473285)
(0.000643429 0.00121469 0.00475628)
(0.000562228 0.00111566 0.00478609)
(0.00050281 0.00107516 0.00481496)
(0.000456319 0.00104152 0.00483715)
(0.000421919 0.00103358 0.00485439)
(0.000397701 0.00103082 0.00486422)
(0.000381214 0.00103926 0.0048725)
(0.000367853 0.00105088 0.0048773)
(0.000356795 0.00106765 0.00487944)
(0.000346954 0.00108601 0.00487848)
(0.000336659 0.00110611 0.00487379)
(0.000323161 0.0011296 0.00486496)
(0.000308965 0.00114972 0.00485533)
(0.000293539 0.00118147 0.00483855)
(0.000271325 0.00119488 0.00482425)
(0.00028541 0.00127554 0.00482303)
(0.000224948 0.0011905 0.00480642)
(0.000309384 0.00144521 0.00482381)
(0.000142139 0.00107532 0.00477305)
(0.000364137 0.00174087 0.00481833)
(3.59895e-05 0.00074072 0.00471625)
(0.000494293 0.00219449 0.00482804)
(-6.69141e-05 5.81609e-05 0.00462872)
(0.000799668 0.0028709 0.00492425)
(-0.000201115 -0.000962084 0.004498)
(0.00109408 0.00389756 0.005079)
(-0.000461137 -0.00179573 0.0043914)
(-4.57544e-05 0.00558668 0.00475943)
(-0.00117183 -0.00179997 0.00441855)
(-0.00183449 0.00847023 0.00342955)
(0.000412622 -0.00515351 0.00483286)
(0.00544053 0.0129893 0.0029474)
(0.00438454 -0.0117078 0.00440931)
(0.0130727 0.0218493 0.00680568)
(-0.0024094 -0.0137312 0.00732181)
(0.0154765 0.0213431 0.0416069)
(0.00649379 -0.0569173 0.0339235)
(0.0104284 0.0628828 0.0685707)
(-0.105273 -0.116459 0.0538917)
(0.00499148 0.170205 -0.190836)
(0.135053 -0.0783274 -0.00880061)
(0.203666 0.496306 -0.0190262)
(0.0801358 0.595326 0.00138621)
(0.0914839 0.493917 0.017448)
(0.0127758 0.442525 0.0109772)
(0.0340019 0.181298 0.0108829)
(0.00274058 0.0345619 0.00371305)
(-0.0021348 -0.00412416 -0.000675718)
(-0.00665203 -0.0177821 -0.00361965)
(-0.00947679 -0.0269892 -0.00601069)
(-0.0109983 -0.031694 -0.00905666)
(-0.0116091 -0.0315626 -0.0124065)
(-0.0115293 -0.0265968 -0.0158438)
(-0.0116965 -0.0145895 -0.0200492)
(-0.0131476 0.00387423 -0.020058)
(-0.0155501 0.0259463 -0.0184121)
(-0.0189942 0.0449891 -0.0169874)
(-0.022875 0.0578601 -0.0155507)
(-0.0255214 0.0683441 -0.0142492)
(-0.0245766 0.0769429 -0.0110694)
(-0.0199582 0.0795218 -0.00626348)
(-0.0151153 0.0782237 -0.00131807)
(-0.0114445 0.0745128 0.00325955)
(-0.00862773 0.0685514 0.00719611)
(-0.00658417 0.0620498 0.00991806)
(-0.0052174 0.0548541 0.0115613)
(-0.00492502 0.0476913 0.0117108)
(-0.00580571 0.0406683 0.0104348)
(-0.00755341 0.0336079 0.00796589)
(-0.00997968 0.0266588 0.00505202)
(-0.0110333 0.0202764 0.00348626)
(-0.010787 0.0158322 0.00309019)
(-0.00996234 0.0150303 0.00351767)
(-0.0117075 0.0181859 0.00632782)
(-0.0164424 0.0205641 0.013057)
(-0.0246577 0.0205148 0.0226959)
(-0.0312743 0.0101146 0.0314926)
(0.0271333 0.0339772 0.00949569)
(0.0416388 0.0298482 0.0110713)
(0.0214278 0.00869377 0.00468004)
(0.0287016 0.0145885 0.010532)
(0.0184958 -0.00589682 0.00212698)
(0.0194045 0.00428497 -0.00397513)
(0.0109464 -0.00404949 -0.00456621)
(0.00523042 0.00241787 -0.0033552)
(0.000882386 -0.00141941 -0.000458058)
(-0.0018516 -4.6904e-06 -0.000137073)
(-0.00235738 -0.00137197 0.00067396)
(-0.00162353 -2.69221e-05 0.00189504)
(-0.000464888 0.000580928 0.0031775)
(0.000120634 0.00135404 0.00383738)
(0.000212559 0.00150792 0.00415274)
(0.000112869 0.00165956 0.00428423)
(-6.30964e-05 0.00157424 0.00431092)
(-0.000214943 0.0015409 0.00430666)
(-0.000357874 0.00143693 0.00428547)
(-0.000457011 0.0014033 0.0042595)
(-0.00052362 0.00135019 0.0042306)
(-0.000568034 0.00134086 0.00420311)
(-0.000592919 0.00132904 0.00417368)
(-0.000607229 0.00133681 0.00414233)
(-0.000613986 0.00134577 0.00410404)
(-0.000615674 0.00136278 0.00406415)
(-0.000613628 0.00138156 0.00402445)
(-0.000608561 0.00140246 0.00398662)
(-0.000602005 0.00142431 0.00394958)
(-0.000594639 0.00144769 0.00391247)
(-0.000585643 0.00147274 0.00387613)
(-0.00057506 0.00149624 0.00384395)
(-0.000569544 0.00152504 0.00381491)
(-0.000562874 0.00154021 0.00378993)
(-0.000553414 0.00159817 0.00376655)
(-0.000579346 0.00154723 0.00373831)
(-0.00051008 0.00175573 0.003745)
(-0.00061012 0.0014496 0.00370209)
(-0.00038309 0.00205139 0.00378337)
(-0.000625267 0.0011387 0.00368553)
(-0.000136584 0.00250776 0.00389686)
(-0.000614259 0.000604396 0.00367309)
(0.000224704 0.00323375 0.0041027)
(-0.000641545 7.79057e-05 0.00363864)
(0.000220203 0.00441421 0.00423749)
(-0.000982557 0.000293811 0.00350068)
(-0.00123078 0.00641783 0.00374401)
(-0.00158753 0.000527793 0.0034656)
(-0.00117845 0.00866754 0.00297751)
(6.12206e-05 -0.00359892 0.00433785)
(0.00494425 0.0123488 0.00185422)
(0.00317796 -0.000257309 0.00345244)
(0.00655461 0.0262442 0.00594463)
(0.00381966 -0.000143799 0.0133118)
(0.00797855 0.0134804 0.047523)
(-0.0242627 -0.034838 0.0523408)
(0.012299 0.020878 0.0703093)
(-0.073642 -0.100273 0.06673)
(0.0392085 -0.021572 -0.199325)
(0.0826767 0.0201693 0.000939163)
(0.19871 0.512392 -0.0327654)
(0.070416 0.58131 -0.00422224)
(0.0642634 0.632597 0.00590552)
(0.0401937 0.646374 0.00253425)
(0.027181 0.549478 -0.00163523)
(0.0165704 0.422296 -0.00652653)
(0.0085359 0.607541 -0.00967483)
(0.00327922 0.613832 -0.0110963)
(-0.000770229 0.609599 -0.0117916)
(-0.00434107 0.616998 -0.0118785)
(-0.00783922 0.607791 -0.0110147)
(-0.00889956 0.633231 -0.00958651)
(-0.0104183 0.620392 -0.00818077)
(-0.0112307 0.626581 -0.00535506)
(-0.0107126 0.633013 -0.00400068)
(-0.00985487 0.628235 -0.00166358)
(-0.0102803 0.624241 0.00150747)
(-0.0100066 0.620312 0.00403417)
(-0.00924791 0.614299 0.00682889)
(-0.00855004 0.605107 0.00964339)
(-0.00830715 0.600364 0.0117817)
(-0.00806851 0.59227 0.0137086)
(-0.0080723 0.585674 0.0152712)
(-0.00833535 0.572289 0.0160099)
(-0.0088838 0.564063 0.0158729)
(-0.0102108 0.552297 0.0153151)
(-0.0116 0.536113 0.0143025)
(-0.0125589 0.494452 0.0130004)
(-0.0136821 0.353198 0.0120494)
(-0.0133773 0.0571409 0.01175)
(-0.0152006 0.024912 0.0106416)
(-0.0167437 0.0164268 0.0103388)
(-0.0190349 0.0126088 0.010842)
(-0.0218567 0.0119491 0.0130723)
(-0.02831 0.0137794 0.0210191)
(-0.0360377 0.00591425 0.0300521)
(0.0225056 0.0284032 0.00629455)
(0.0432519 0.0335547 0.012335)
(0.0159922 0.00634682 0.00842035)
(0.0263076 0.0167795 0.0139759)
(0.013313 -0.00705773 0.00848302)
(0.0157672 0.00118079 0.00369928)
(0.0110308 -0.00646524 -0.00116406)
(0.00636974 0.000929691 -0.00347034)
(0.00211702 -0.000815279 -4.65723e-05)
(-0.00150922 0.00092831 0.000427173)
(-0.00304396 -0.00195405 0.000902555)
(-0.00387344 -0.00164685 0.0015041)
(-0.00338027 -0.00104399 0.00253106)
(-0.00282573 0.000108407 0.00321351)
(-0.0027245 0.000598509 0.00354818)
(-0.00284516 0.00109568 0.00367742)
(-0.00304347 0.00126392 0.0037015)
(-0.00322203 0.00146299 0.00365425)
(-0.00338448 0.00152423 0.0035627)
(-0.00349811 0.00161182 0.00346651)
(-0.00357206 0.0016422 0.00337084)
(-0.00360661 0.00169305 0.00329123)
(-0.00360871 0.00171876 0.00322321)
(-0.0035902 0.00174943 0.00316801)
(-0.00355119 0.00177228 0.00311706)
(-0.00349633 0.00179868 0.00306826)
(-0.00343193 0.00182387 0.0030243)
(-0.00336532 0.0018494 0.00298771)
(-0.00330055 0.00187295 0.00295781)
(-0.00323922 0.00189392 0.00293486)
(-0.00318375 0.00191241 0.00291632)
(-0.00313366 0.00192581 0.00290055)
(-0.00309504 0.00194104 0.00288634)
(-0.00305431 0.00194855 0.00288051)
(-0.00302457 0.00197757 0.00287897)
(-0.0030016 0.00194235 0.00289198)
(-0.00295007 0.00208009 0.002925)
(-0.00297471 0.00182832 0.00296442)
(-0.00283698 0.00233461 0.00307374)
(-0.00293243 0.00155866 0.00311135)
(-0.00269185 0.00278661 0.00332572)
(-0.00290275 0.00122161 0.00328834)
(-0.00260537 0.00356428 0.00362143)
(-0.00295375 0.00113693 0.00346734)
(-0.00299983 0.00486499 0.00375368)
(-0.00328551 0.00169809 0.00340536)
(-0.00408688 0.0068372 0.00313227)
(-0.00330084 0.00147785 0.0031659)
(-0.00261443 0.0089731 0.00287329)
(-0.00208632 -0.00263199 0.00393066)
(-0.00197392 0.0124208 0.00156005)
(-0.00232338 0.00330891 0.0017383)
(-0.000325561 0.0269896 0.0012221)
(0.00979886 0.00729062 0.0026699)
(0.006582 0.0277828 0.0296609)
(-0.0270506 -0.0316066 0.0527769)
(-0.00440806 -0.0272958 0.0870684)
(-0.0113598 -0.110604 0.0901212)
(0.0411252 -0.157908 -0.202074)
(0.0480496 0.141712 -0.00260821)
(0.0941971 0.648687 -0.0383439)
(0.0545717 0.708059 -0.00946039)
(0.0499539 0.674675 0.00338952)
(0.0428398 0.753429 0.00943138)
(0.0352626 0.72888 0.00891076)
(0.0281739 0.769514 0.00623298)
(0.0249352 0.748099 0.00524365)
(0.0204401 0.745293 0.00393139)
(0.0138828 0.631565 0.00255494)
(0.0108509 0.525881 0.00259518)
(0.00713203 0.666363 0.00319152)
(0.00293714 0.711739 0.00441639)
(0.00137054 0.729889 0.00522625)
(-0.000865171 0.692729 0.00650619)
(-0.0024756 0.708517 0.00767464)
(-0.00322272 0.638512 0.00863618)
(-0.00362255 0.67589 0.0102156)
(-0.00366536 0.688471 0.0113194)
(-0.00400682 0.66749 0.0130652)
(-0.00472487 0.644008 0.0145419)
(-0.00517525 0.63566 0.015323)
(-0.00583221 0.657794 0.0161066)
(-0.00674326 0.634995 0.0165071)
(-0.00766393 0.616115 0.0159822)
(-0.00815852 0.540548 0.0152203)
(-0.00824816 0.426972 0.0152138)
(-0.00934976 0.581616 0.0146401)
(-0.00956277 0.576918 0.0132835)
(-0.0118304 0.557516 0.0128702)
(-0.0125804 0.519842 0.0122669)
(-0.0158694 0.543196 0.0114983)
(-0.0203374 0.479758 0.0116076)
(-0.0255157 0.330216 0.0126355)
(-0.0295594 0.0363851 0.0155451)
(-0.0415848 0.0373219 0.022445)
(-0.0545775 0.409273 0.0268433)
(0.0213427 0.0167969 0.00650797)
(0.0446513 0.0350017 0.00941787)
(0.00902756 0.00657704 0.00606355)
(0.0219931 0.0229954 0.0138066)
(0.00856959 -0.00430188 0.00999682)
(0.00878406 0.00451317 0.00732746)
(0.00437751 -0.00786274 0.004126)
(0.00338605 -0.00016536 -0.00135852)
(0.000379568 -0.00118891 0.000199102)
(-0.00215399 0.00167031 0.00129957)
(-0.00355574 -0.00143139 0.00198785)
(-0.00482188 -0.00179561 0.00244774)
(-0.00458745 -0.00191157 0.00313935)
(-0.0037097 -0.00102973 0.00381648)
(-0.00329141 -0.000410199 0.00427327)
(-0.00317526 0.000292911 0.00452566)
(-0.00323596 0.000769634 0.00459346)
(-0.00326428 0.00120995 0.00460921)
(-0.00328891 0.00147543 0.00458204)
(-0.00327083 0.0017156 0.00454598)
(-0.00322436 0.00186361 0.00450805)
(-0.003152 0.00200118 0.00448439)
(-0.00306739 0.00209208 0.00446819)
(-0.0029769 0.00217813 0.00446256)
(-0.00288821 0.00224792 0.00445689)
(-0.0028054 0.0023043 0.00444476)
(-0.00273228 0.00233834 0.00443108)
(-0.00266409 0.00235982 0.00442384)
(-0.00260074 0.00237293 0.00442459)
(-0.00254285 0.00238148 0.00443529)
(-0.00249069 0.00238931 0.00445407)
(-0.00244274 0.00239509 0.00447661)
(-0.00240503 0.00240217 0.00449967)
(-0.00236307 0.00240106 0.0045299)
(-0.00233608 0.00240996 0.00456263)
(-0.00230546 0.00237833 0.00460917)
(-0.00227653 0.00246681 0.00465906)
(-0.00226996 0.00225799 0.00472692)
(-0.00217926 0.00270443 0.00482485)
(-0.00221386 0.00204891 0.00488576)
(-0.00205779 0.00320281 0.0050545)
(-0.00216301 0.0019425 0.00505803)
(-0.00202985 0.00410081 0.00521821)
(-0.00224216 0.00231279 0.00512894)
(-0.00264749 0.0055473 0.00483342)
(-0.00265404 0.00278493 0.00471959)
(-0.0038929 0.00731698 0.00361051)
(-0.00283898 0.000928905 0.00399319)
(-0.00296188 0.00936535 0.00393651)
(-0.00231775 -0.00505334 0.00502913)
(-0.0047774 0.0126552 0.00472708)
(-0.0023518 -0.00500901 0.00687927)
(-0.00641575 0.019668 0.00580368)
(0.0182921 -0.0108854 0.00186414)
(0.00639218 0.0135313 0.0359476)
(-0.0117204 -0.0411988 0.0682539)
(-0.0149249 -0.0334049 0.0830692)
(0.0330036 -0.0930821 0.0773172)
(-0.0219985 -0.153699 -0.183519)
(-0.0270508 0.177912 -0.00621873)
(-0.0518692 0.674891 -0.0416924)
(0.0111374 0.759612 -0.00294378)
(0.013784 0.806262 0.00669112)
(0.0266912 0.829245 0.0116077)
(0.0255251 0.836373 0.012263)
(0.0281942 0.841345 0.0113546)
(0.0246336 0.844122 0.0098525)
(0.022953 0.859568 0.00995493)
(0.0189924 0.839153 0.0097433)
(0.0144157 0.84055 0.00983462)
(0.0122879 0.841282 0.00991292)
(0.00972236 0.837288 0.0100736)
(0.00778212 0.834643 0.0105538)
(0.00511978 0.819775 0.0115012)
(0.00334303 0.757055 0.0119435)
(0.00171573 0.630837 0.0121774)
(0.000598793 0.7874 0.0125493)
(-3.75235e-05 0.716727 0.0127078)
(-0.00130327 0.808172 0.0133989)
(-0.00206345 0.78074 0.0139136)
(-0.00211335 0.772631 0.0142868)
(-0.00269103 0.765232 0.01412)
(-0.00262387 0.755306 0.0137317)
(-0.00269643 0.747135 0.0135613)
(-0.00239485 0.735822 0.0137602)
(-0.00159768 0.723493 0.0141084)
(-0.00247357 0.712583 0.0142898)
(-0.00294116 0.702301 0.0158567)
(-0.00357617 0.684965 0.0187956)
(-0.00686632 0.671757 0.0199279)
(-0.0113641 0.647941 0.0223204)
(-0.0178826 0.624372 0.0247491)
(-0.0257972 0.606959 0.0262605)
(-0.0340155 0.556064 0.0240255)
(-0.048651 0.535335 0.0142736)
(-0.0562023 0.481065 -0.000329098)
(0.00455477 0.00861694 0.000846466)
(0.0437439 0.0332509 0.00328719)
(0.000938968 0.00958006 0.00365388)
(0.0189757 0.0291236 0.0113328)
(0.00107592 -0.00110126 0.0064329)
(0.00203423 0.0110461 0.00635595)
(-0.00164608 -0.00610784 0.00348673)
(-0.00179586 0.00358995 -0.00246006)
(-0.00211109 -1.90071e-05 -0.00213106)
(-0.00410405 0.00362146 -0.00199083)
(-0.00504346 3.17473e-05 -0.000703766)
(-0.00733007 -0.000727308 -0.000774914)
(-0.00760956 -0.00196478 -0.000616455)
(-0.00714727 -0.00167285 -0.000153322)
(-0.0069928 -0.00104197 0.00039404)
(-0.00703301 -0.000143219 0.00078061)
(-0.00715413 0.000536775 0.000980837)
(-0.00726924 0.00114761 0.00108288)
(-0.00738554 0.00154299 0.00113679)
(-0.00746754 0.00186467 0.00116034)
(-0.00752512 0.00206115 0.00117236)
(-0.00755635 0.00222396 0.00118401)
(-0.00756686 0.00232883 0.00119644)
(-0.00755497 0.00241108 0.00121657)
(-0.00750791 0.00245554 0.00124179)
(-0.0073969 0.00247755 0.00128418)
(-0.00726214 0.00249058 0.00134421)
(-0.00712964 0.00250512 0.00141121)
(-0.00699983 0.00251874 0.0014807)
(-0.00687332 0.00252993 0.00155137)
(-0.00675629 0.00253817 0.00162456)
(-0.00664528 0.00254313 0.00170495)
(-0.00654727 0.0025486 0.00178993)
(-0.00644889 0.0025491 0.00187882)
(-0.006371 0.00255823 0.00196753)
(-0.00628659 0.00254321 0.00206181)
(-0.00624658 0.00261367 0.00214643)
(-0.00616372 0.00246183 0.00225687)
(-0.0062157 0.00286142 0.00231769)
(-0.00603859 0.00234472 0.0024531)
(-0.00636064 0.0034074 0.00247131)
(-0.00598033 0.0024485 0.00264534)
(-0.00681607 0.00443734 0.0024873)
(-0.00604806 0.00311322 0.00271786)
(-0.00725797 0.00612921 0.00201621)
(-0.00609253 0.00354521 0.00217105)
(-0.00688284 0.00786069 0.000845236)
(-0.00568784 0.000351949 0.00126405)
(-0.00483657 0.00977114 0.00177526)
(-0.006567 -0.00858446 0.00223075)
(-0.00957755 0.0114818 0.00388825)
(-0.0073249 -0.00903581 0.00666787)
(-0.00484366 0.015988 0.00361179)
(0.0177048 -0.013421 0.00745932)
(-0.0105741 0.0433668 0.0212912)
(-0.0217674 -0.0528024 0.0432703)
(-0.0545723 -0.0314515 0.0504401)
(0.0694786 -0.126843 0.055451)
(-0.0482931 -0.0574812 -0.194937)
(-0.071854 0.0400907 -0.0061353)
(-0.195217 0.559793 -0.040945)
(-0.0364153 0.539032 -0.00296311)
(-0.029446 0.332937 0.0034545)
(0.00392966 0.396975 0.00726321)
(0.0105956 0.657704 0.00898644)
(0.0144343 0.653327 0.0072418)
(0.0154909 0.63727 0.00657427)
(0.0151401 0.644958 0.00699672)