/*--------------------------------*- C++ -*----------------------------------*\
| =========                 |                                                 |
| \\      /  F ield         | OpenFOAM: The Open Source CFD Toolbox           |
|  \\    /   O peration     | Version:  2.3.0                                 |
|   \\  /    A nd           | Web:      www.OpenFOAM.org                      |
|    \\/     M anipulation  |                                                 |
\*---------------------------------------------------------------------------*/
FoamFile
{
    version     2.0;
    format      ascii;
    class       volVectorField;
    location    "14";
    object      U.air;
}
// * * * * * * * * * * * * * * * * * * * * * * * * * * * * * * * * * * * * * //

dimensions      [0 1 -1 0 0 0 0];

internalField   nonuniform List<vector> 
6144
(
(0.00886283 0.0169952 -0.00124078)
(0.00931241 -0.00456812 -0.000483467)
(0.00312806 -0.00773178 -0.00130742)
(0.00357327 -0.00910939 -0.00061317)
(0.00119875 -0.0114396 -0.000248834)
(0.00147086 -0.00888508 0.000612879)
(0.000970193 -0.00889166 0.000306164)
(0.00126617 -0.00645946 0.000504795)
(0.00129753 -0.0051636 -0.00046331)
(0.00149997 -0.00247158 -0.000772344)
(0.00158273 -0.000510112 -0.000729644)
(0.00187279 0.00127564 -0.000290522)
(0.00218844 0.00172905 1.20893e-05)
(0.00241344 0.0016996 0.000175206)
(0.00254002 0.00125798 0.000110045)
(0.00260563 0.000875395 1.76024e-05)
(0.00264143 0.000504607 -0.000111475)
(0.00266294 0.000261878 -0.000199569)
(0.00267793 6.3679e-05 -0.000279488)
(0.00268674 -4.70151e-05 -0.00032506)
(0.00268959 -0.000139145 -0.000357489)
(0.00269202 -0.00018741 -0.000369919)
(0.00268872 -0.000229975 -0.000374183)
(0.00268628 -0.000255229 -0.000367891)
(0.00268062 -0.000281809 -0.000356451)
(0.00267491 -0.0003064 -0.000339723)
(0.00266808 -0.000335398 -0.000319503)
(0.00266156 -0.000372331 -0.000295915)
(0.00265467 -0.000417129 -0.000268735)
(0.00264825 -0.000480583 -0.000237875)
(0.00264139 -0.000556702 -0.000200125)
(0.0026355 -0.000669214 -0.000156305)
(0.00262965 -0.000804979 -9.71261e-05)
(0.00262637 -0.00101319 -2.54941e-05)
(0.00262621 -0.00127188 7.66213e-05)
(0.00263396 -0.00167594 0.000199185)
(0.00265213 -0.00218656 0.000362268)
(0.0026887 -0.00295193 0.000532473)
(0.00275095 -0.00388103 0.000682962)
(0.00284295 -0.0051287 0.000736665)
(0.00294188 -0.00642515 0.000624478)
(0.00309517 -0.00774218 0.000291457)
(0.00334694 -0.00869009 -0.000497237)
(0.00372942 -0.00937161 -0.00135678)
(0.00412099 -0.00955638 -0.00215483)
(0.00438171 -0.0103448 -0.0026928)
(0.00479812 -0.0107333 -0.00341926)
(0.00513886 -0.0117189 -0.00423371)
(0.00405691 -0.00771883 -0.00534742)
(0.0084294 -0.00638589 -0.0107029)
(0.019815 0.00076284 -0.015681)
(0.026088 -0.0219046 -0.0136731)
(0.0319867 -0.0278572 -0.00965631)
(0.0371628 -0.0512212 -0.00676295)
(0.0335415 -0.0486167 -0.00861346)
(0.0338369 -0.0805509 -0.00575975)
(0.0217483 -0.0440928 -0.0218784)
(0.0191963 -0.112568 -0.0078971)
(-0.0566717 0.0298849 -0.081105)
(0.0150401 0.093885 0.0235773)
(0.0524203 0.339353 0.0616177)
(0.00864584 0.388607 -0.00383836)
(0.0218476 -0.140947 0.0073556)
(0.0208758 -0.149211 0.0100293)
(0.015261 -0.136503 0.00602472)
(0.0164584 -0.129816 -0.00353067)
(0.0161389 -0.118499 -0.00962828)
(0.0125349 -0.108755 -0.0222623)
(0.0201972 -0.0980438 -0.0244693)
(0.0369357 -0.0972117 -0.0254967)
(0.0434146 -0.111303 -0.0242771)
(0.049735 -0.123537 -0.0211043)
(0.0509061 -0.141036 -0.0151463)
(0.0455259 -0.165431 -0.0085239)
(0.0386841 -0.185849 -0.00291544)
(0.0334505 -0.203616 0.00261647)
(0.0226172 -0.222069 0.00461699)
(0.0136494 -0.231216 0.00775417)
(0.0043508 -0.232869 0.00863074)
(-0.0088291 -0.229305 0.0146174)
(-0.0128089 -0.222512 0.0161626)
(-0.0171613 -0.216521 0.018698)
(-0.0237032 -0.20874 0.0141003)
(-0.0233913 -0.198409 -0.00318325)
(-0.020578 -0.165069 -0.0172784)
(-0.0178982 -0.0857847 -0.0283239)
(-0.0117798 -0.0299974 -0.0173708)
(-0.0077422 -0.00436972 -0.00256802)
(-0.00280286 0.00468345 0.00222531)
(-0.00256773 0.00570262 0.00127969)
(-0.00248191 0.00867993 0.000891966)
(0.00729269 0.0124801 0.00116676)
(0.0112239 0.0150991 0.00194386)
(0.013449 0.0129333 -0.000188837)
(0.0171238 0.0121198 -0.00288601)
(0.0191178 0.00195281 -0.00889081)
(0.021175 0.0241915 0.00274786)
(0.021712 0.00597879 0.00314329)
(0.00815658 -0.000109759 -9.56068e-05)
(0.0100632 -0.00271122 0.000900113)
(0.0025975 -0.00852576 0.00183277)
(0.00321928 -0.00528523 0.00263078)
(0.00107334 -0.0067417 0.00308771)
(0.00192433 -0.00332605 0.00312618)
(0.00156845 -0.00267181 0.00306035)
(0.0020445 -0.000265281 0.00266903)
(0.00223471 0.00117177 0.00249259)
(0.00297542 0.00272483 0.00291188)
(0.00373446 0.00281645 0.00339588)
(0.00427712 0.0025418 0.00368031)
(0.00455223 0.00187983 0.00367276)
(0.00468837 0.00137487 0.00359597)
(0.00474443 0.000902263 0.0034695)
(0.00477198 0.000607054 0.00338113)
(0.00478183 0.00036284 0.00331008)
(0.00478223 0.000229323 0.00327721)
(0.00477749 0.000121307 0.00326535)
(0.00476946 6.83851e-05 0.00327427)
(0.00475734 2.24991e-05 0.00329565)
(0.00474349 -6.37732e-07 0.00332869)
(0.00472712 -2.60635e-05 0.00336753)
(0.00470959 -4.72694e-05 0.00341188)
(0.00469169 -7.42352e-05 0.00346001)
(0.00467378 -0.000110437 0.00351183)
(0.0046565 -0.000155978 0.00356757)
(0.00463974 -0.000224628 0.00362739)
(0.0046246 -0.000306274 0.00369503)
(0.0046118 -0.000434977 0.00377073)
(0.00460437 -0.000584867 0.0038638)
(0.0046023 -0.000827658 0.00397442)
(0.00461799 -0.00111463 0.00411607)
(0.00465281 -0.00158152 0.00428211)
(0.00473398 -0.00213732 0.00447046)
(0.0048747 -0.00298283 0.00464008)
(0.00511041 -0.00393932 0.00472917)
(0.0054591 -0.00522884 0.00465512)
(0.00590636 -0.00649852 0.00431928)
(0.0064339 -0.00791474 0.00366419)
(0.00693747 -0.00889275 0.00268468)
(0.00755631 -0.00964392 0.00171456)
(0.00853214 -0.00990685 0.000940983)
(0.00976993 -0.0108976 0.000721321)
(0.00986034 -0.0122522 -0.000645421)
(0.00778474 -0.00962308 -0.00215093)
(0.007528 -0.00404941 -0.00117018)
(0.0128085 -0.00756313 -0.00574269)
(0.0426188 -0.00853666 -0.0138125)
(0.0607184 -0.0302089 -0.00833461)
(0.0552213 -0.0306932 0.008511)
(0.0564218 -0.0543494 0.0194297)
(0.0486389 -0.0489382 0.0182233)
(0.0513765 -0.0922464 0.0272884)
(0.0315783 -0.0594225 0.0054359)
(0.029996 -0.153128 0.0290864)
(-0.00958832 0.0484458 -0.113092)
(0.0283033 0.0499476 -0.00794782)
(0.0523877 0.36552 0.0935713)
(-0.00672093 0.408921 -0.00351043)
(0.00613233 -0.0662479 0.00623926)
(0.00275363 0.35386 -0.00656168)
(0.00338631 0.343272 -0.0333167)
(0.00282313 0.0239769 -0.0267026)
(0.0204993 0.0565485 -0.0286706)
(0.0530636 0.0711653 -0.0293271)
(0.0783055 0.0723359 -0.0275861)
(0.0930972 0.0573745 -0.0227275)
(0.0928234 0.0315502 -0.0126743)
(0.0901579 0.000312991 0.000161904)
(0.0772861 -0.0377715 0.0108162)
(0.0583904 -0.0730754 0.0183446)
(0.0438419 -0.101786 0.0214305)
(0.0304035 -0.125383 0.0205906)
(0.0109809 -0.145959 0.0186166)
(-0.00820093 -0.164046 0.0203562)
(-0.0244512 -0.181863 0.0198989)
(-0.0370914 -0.192311 0.0214271)
(-0.0410609 -0.195007 0.0219916)
(-0.0431955 -0.194111 0.0209547)
(-0.0447133 -0.191449 0.0136178)
(-0.0384858 -0.18154 -0.00155361)
(-0.0340983 -0.148277 -0.0196843)
(-0.026983 -0.0744466 -0.0275412)
(-0.0216886 -0.0255182 -0.0106551)
(-0.0119107 -0.00282572 -0.00149572)
(-0.0012247 0.00542589 0.00256302)
(0.0027862 0.00730111 0.00506247)
(0.00136947 6.50951e-05 0.00590379)
(-0.00463362 -0.00585078 0.00536055)
(-0.00212828 0.00140195 0.00414025)
(0.00638757 0.000200683 0.00321457)
(0.0191584 0.000365196 0.00323555)
(0.0175391 -0.00611931 -0.0034548)
(0.0290484 0.0315007 0.00381843)
(0.0299742 0.0155549 0.00204118)
(0.0150255 0.00894595 -0.00231287)
(0.0179753 0.00659599 0.000168924)
(0.0034146 -0.00495858 2.93368e-05)
(0.00369925 -0.00203632 0.00101842)
(-0.000975239 -0.00567082 0.00253084)
(0.000302157 -0.00117223 0.00291677)
(-5.26742e-05 -0.000692733 0.00359614)
(0.000733663 0.00190572 0.0036627)
(0.000903753 0.00240483 0.00364404)
(0.00208393 0.00372409 0.00398487)
(0.00319807 0.00350162 0.00441919)
(0.00392645 0.00316408 0.00471267)
(0.00415068 0.00244876 0.00482663)
(0.00418769 0.00193005 0.0048709)
(0.00410672 0.0014288 0.00488493)
(0.00403306 0.00111926 0.00490299)
(0.00394561 0.000857494 0.00493074)
(0.00387775 0.000710593 0.00496852)
(0.00381521 0.000590007 0.0050146)
(0.00376401 0.000524718 0.00506359)
(0.00371802 0.000470576 0.00511435)
(0.00367774 0.000438 0.005167)
(0.00364154 0.000406978 0.00521911)
(0.00360955 0.000380844 0.00527041)
(0.00358228 0.000350472 0.0053209)
(0.00355912 0.00031238 0.00537109)
(0.00354181 0.000265043 0.00542072)
(0.00352896 0.0001963 0.00546923)
(0.0035267 0.000115713 0.00551792)
(0.00353105 -9.16081e-06 0.00556574)
(0.00355901 -0.000154428 0.00561682)
(0.00360596 -0.000381849 0.00567078)
(0.00370853 -0.000646814 0.00572941)
(0.00385723 -0.00105456 0.00579244)
(0.00410468 -0.00150918 0.00584659)
(0.00443358 -0.0021488 0.00589019)
(0.00488952 -0.00277062 0.0058853)
(0.00545393 -0.0035248 0.0058241)
(0.00608284 -0.004135 0.00563668)
(0.0067181 -0.00483494 0.00537795)
(0.00724812 -0.00529842 0.00498954)
(0.00796348 -0.00580766 0.00467915)
(0.00944086 -0.00584675 0.00434452)
(0.0113552 -0.00640693 0.00383578)
(0.0116253 -0.00787298 0.00243458)
(0.00792108 -0.00905753 0.00213002)
(0.0094576 -0.00840212 0.00380977)
(0.0214422 -0.0124291 -0.00185614)
(0.0620133 -0.0205072 -0.00666592)
(0.075437 -0.0236965 0.00633653)
(0.0629667 -0.0214947 0.0274458)
(0.0612165 -0.0497316 0.0343009)
(0.0495978 -0.0534659 0.0302747)
(0.0576872 -0.115584 0.0455088)
(0.0294375 -0.101482 0.0476283)
(0.0408913 -0.208753 0.0899799)
(-0.00395702 0.0875216 -0.0603503)
(0.0380095 0.0125394 -0.0036083)
(0.10163 0.411075 0.129918)
(0.0254056 0.529173 0.04184)
(0.00627179 0.450649 0.0208948)
(0.0128741 0.533794 0.00104256)
(0.00166985 0.588998 -0.0277735)
(0.0220193 0.631486 -0.0101157)
(0.0612601 0.631396 -0.0112248)
(0.0780986 0.636195 -0.00468209)
(0.0991023 0.611727 -0.00667737)
(0.104102 0.520283 0.00225206)
(0.107076 0.249343 0.00911884)
(0.101166 0.0665113 0.0162776)
(0.0806796 0.00138466 0.0239014)
(0.0580023 -0.0364216 0.0269808)
(0.0432544 -0.0631416 0.0224054)
(0.036438 -0.0788951 0.0113275)
(0.0254804 -0.0943107 0.00656216)
(0.00832648 -0.115453 0.013491)
(-0.0161184 -0.137934 0.0134039)
(-0.0394156 -0.151798 0.0149048)
(-0.05673 -0.161473 0.0204329)
(-0.0679485 -0.16717 0.0164879)
(-0.0687404 -0.165292 0.00847511)
(-0.0606757 -0.154733 -0.00498577)
(-0.0499541 -0.118547 -0.0224231)
(-0.053309 -0.0570391 -0.0198707)
(-0.0437862 -0.0154128 -0.0127725)
(-0.0219843 0.0092527 -0.00788066)
(-0.00733973 0.0209059 -0.000178356)
(0.00203932 0.0242412 0.00717274)
(0.00651324 0.0231379 0.0112558)
(0.00416112 0.0115032 0.00910489)
(0.00577754 0.00800276 0.00487709)
(0.0118908 0.00696106 0.00683952)
(0.0257668 0.00217197 0.00730016)
(0.0173668 -0.00636107 0.00108371)
(0.0340879 0.0360667 0.0050121)
(0.0380264 0.0242162 0.00428142)
(0.0229743 0.0159036 -0.000723226)
(0.0272232 0.0148879 0.00204374)
(0.0118674 0.00143085 -0.00258067)
(0.00974381 0.00397646 -0.00175035)
(-0.000447611 -0.00521667 0.000440612)
(-0.000801423 -0.00105945 0.00108117)
(-0.00216111 -0.00146134 0.0020685)
(-0.000634664 0.00213443 0.00249768)
(-0.000176546 0.00221386 0.00273825)
(0.00111946 0.00360435 0.00349352)
(0.00224183 0.00334377 0.00414468)
(0.00293434 0.00321541 0.00456916)
(0.00310057 0.00266074 0.0047391)
(0.00307555 0.00224901 0.00482096)
(0.00296215 0.00179707 0.00487291)
(0.00284962 0.00149978 0.00492481)
(0.00273567 0.0012367 0.00498343)
(0.00264156 0.00107847 0.00504454)
(0.00256 0.000950809 0.0051058)
(0.00249279 0.000877102 0.00516723)
(0.00243629 0.000816729 0.00522892)
(0.00238757 0.000776997 0.0052863)
(0.00234484 0.000740933 0.00533724)
(0.00230808 0.000710638 0.00538229)
(0.00227871 0.000678442 0.00542343)
(0.00225633 0.000641044 0.00546271)
(0.00224225 0.000594836 0.00549962)
(0.00223839 0.000528972 0.0055336)
(0.00225052 0.000449951 0.00556452)
(0.00228059 0.000329998 0.0055922)
(0.00234109 0.000192637 0.00561751)
(0.00243548 -1.5012e-05 0.0056379)
(0.00258511 -0.000246629 0.00565193)
(0.00278271 -0.00057829 0.00565522)
(0.00305875 -0.000901444 0.00563487)
(0.00339888 -0.00127612 0.00558095)
(0.00384123 -0.00150063 0.00547291)
(0.0044164 -0.00167512 0.00534379)
(0.00514098 -0.0015893 0.00523401)
(0.00602488 -0.00156326 0.00528593)
(0.00686715 -0.00154535 0.00546576)
(0.00752098 -0.00196393 0.0058078)
(0.00828387 -0.00175323 0.00608588)
(0.0106143 -0.000618003 0.00584751)
(0.0131008 0.000555034 0.00514899)
(0.00990089 0.001645 0.00703538)
(0.0108006 -0.00247742 0.00684897)
(0.0287771 -0.0136647 -0.00215512)
(0.0662661 -0.025176 -0.00350386)
(0.0681187 -0.0110014 0.0151772)
(0.0580065 -0.0158959 0.0436709)
(0.0720057 -0.0617782 0.0469027)
(0.0810743 -0.0730247 0.0412634)
(0.115087 -0.151615 0.0616781)
(0.0580835 -0.11463 0.0947483)
(0.0811307 -0.238364 0.158671)
(-0.00630921 0.155504 0.0100664)
(0.0257039 -0.017463 0.0135273)
(0.092483 0.459047 0.13823)
(0.000760616 0.592758 0.0411641)
(-0.0354535 0.525238 0.0295002)
(-0.0391142 0.622735 -0.0133689)
(-0.0178297 0.63659 0.00649617)
(0.0193549 0.646587 0.0111665)
(0.039081 0.648561 0.00579252)
(0.073213 0.652797 0.00861262)
(0.0919556 0.665169 0.000504077)
(0.104781 0.663335 -0.00425976)
(0.109186 0.655154 -0.00329376)
(0.102331 0.628078 -0.000851991)
(0.081248 0.567252 0.0091426)
(0.0619331 0.380955 0.0114632)
(0.0582299 0.0459634 0.00876378)
(0.0491854 0.00266785 0.0105662)
(0.0351607 -0.0237714 0.0222935)
(0.0108997 -0.0535801 0.0258517)
(-0.0158602 -0.0803272 0.0222436)
(-0.0441233 -0.0992547 0.0230707)
(-0.07179 -0.120778 0.0206553)
(-0.0833733 -0.129046 0.0106215)
(-0.0819685 -0.126142 0.00664856)
(-0.0672653 -0.114982 -0.00455687)
(-0.0613676 -0.0622076 -0.0216222)
(-0.0643658 -0.00993364 -0.0175233)
(-0.0476273 0.0116429 -0.0110299)
(-0.0288818 0.0130092 0.000691486)
(-0.0192844 0.0179483 0.0126871)
(-0.011051 0.0276629 0.0160012)
(-0.0037971 0.0320422 0.0207452)
(0.00239961 0.0292629 0.019783)
(0.00192896 0.0232456 0.0142071)
(0.00805079 0.0148465 0.0150469)
(0.02016 0.00593055 0.0226613)
(0.0106706 -0.0070284 0.00539514)
(0.0354243 0.0369031 0.00750597)
(0.0417817 0.0283094 0.0087088)
(0.0258998 0.0162769 0.00265548)
(0.0315649 0.0173146 0.00609467)
(0.0168956 0.00354973 -0.00168698)
(0.0171712 0.00818017 -0.00143595)
(0.00472074 -0.00262421 -0.00169474)
(0.000856896 0.00115355 -0.000426888)
(-0.00306207 -0.00216108 0.000522405)
(-0.00224755 0.00100796 0.000964148)
(-0.00149937 0.000598077 0.00139532)
(-0.000163489 0.00217402 0.00264638)
(0.000681436 0.00219878 0.00356933)
(0.00117468 0.00252453 0.00411575)
(0.00116371 0.00231863 0.00432883)
(0.000972221 0.00216068 0.00442115)
(0.000704896 0.00184168 0.00445546)
(0.000478261 0.00160387 0.00448804)
(0.000271963 0.00136745 0.00452103)
(0.000104287 0.00121921 0.00455794)
(-2.85388e-05 0.00109392 0.00459665)
(-0.00013478 0.00101802 0.00463359)
(-0.000218083 0.00095654 0.00466117)
(-0.000281453 0.000919114 0.00468419)
(-0.000328478 0.00088548 0.00470291)
(-0.000361005 0.000856614 0.00471708)
(-0.000379614 0.00082994 0.0047243)
(-0.000382998 0.00080326 0.00472785)
(-0.000372306 0.000771183 0.00473042)
(-0.000347592 0.000727311 0.00473043)
(-0.00030586 0.00067384 0.00472668)
(-0.000239654 0.000588069 0.00471618)
(-0.000142125 0.000485606 0.0046977)
(-4.91974e-06 0.000322598 0.00466755)
(0.000200997 0.000146415 0.00462945)
(0.000474531 -8.57196e-05 0.00457794)
(0.000834845 -0.000246834 0.00449562)
(0.00124281 -0.000393684 0.00436074)
(0.00174466 -0.000351536 0.00418705)
(0.00233729 -0.000229737 0.00402896)
(0.00310259 0.000124174 0.00399548)
(0.00410574 0.000400663 0.00425846)
(0.0051466 0.000616807 0.00465542)
(0.00580667 0.000332175 0.00500833)
(0.00602799 0.000598026 0.00512476)
(0.00750107 0.00233627 0.00519656)
(0.00908086 0.00573256 0.00599514)
(0.00700094 0.0072138 0.00879512)
(0.0140572 -0.00304427 0.0057818)
(0.0448366 -0.0296027 -0.0022965)
(0.0603952 -0.0265057 -0.00131718)
(0.0518649 -0.00741029 0.0206091)
(0.0549023 -0.00688261 0.0467371)
(0.0814453 -0.0550033 0.0524236)
(0.102403 -0.0374415 0.0540446)
(0.148014 -0.118877 0.0663263)
(0.0405431 0.0223875 0.137458)
(0.0989361 -0.237604 0.194857)
(-0.039666 0.228721 0.0628569)
(0.0115214 -0.035794 0.0223705)
(0.0446263 0.504708 0.115049)
(-0.021878 0.658984 0.0079907)
(-0.0377755 0.566131 0.0145491)
(-0.0465939 0.649472 -0.00904806)
(-0.0233829 0.624997 0.00691703)
(0.00839057 0.647114 0.0182139)
(0.0325618 0.640792 0.023537)
(0.0681382 0.650069 0.0186732)
(0.0943644 0.663451 0.0218902)
(0.111589 0.679449 0.0145311)
(0.117133 0.684028 0.0143406)
(0.119127 0.675905 0.0143208)
(0.106463 0.667727 0.0197795)
(0.0836075 0.642381 0.0230293)
(0.060518 0.601545 0.0231762)
(0.0362074 0.568888 0.0279161)
(0.0117841 0.532193 0.0323342)
(-0.0163816 0.486433 0.0312233)
(-0.0416718 0.448185 0.0269928)
(-0.0642315 0.423834 0.0212764)
(-0.0730588 0.409277 0.0131625)
(-0.0725914 0.408953 0.000652679)
(-0.0706171 0.424418 -0.00950349)
(-0.0786607 0.46178 -0.0147445)
(-0.0800065 0.489499 -0.00641052)
(-0.0631685 0.481065 0.0125756)
(-0.0429947 0.351569 0.0236456)
(-0.0396269 0.0446604 0.0279095)
(-0.0357938 0.026056 0.0219976)
(-0.030419 0.0328568 0.0185367)
(-0.0263356 0.0413722 0.0264398)
(-0.0199283 0.040569 0.0321709)
(-0.0107918 0.0356894 0.0336123)
(0.000559548 0.016861 0.0335653)
(0.00729754 0.00883396 0.036355)
(-0.00215293 -0.0075525 0.0107579)
(0.0344095 0.0360482 0.00940615)
(0.0441815 0.0310367 0.0100143)
(0.0231831 0.0143191 0.00627673)
(0.0316711 0.0192877 0.00932355)
(0.0164414 0.0019294 0.00369627)
(0.0195742 0.00881505 0.00256411)
(0.00808376 -0.00125495 -0.00182465)
(0.00329569 0.0038528 -0.00107804)
(-0.00172612 -0.000807522 5.37338e-05)
(-0.00276806 0.00177654 0.000346307)
(-0.00244123 -0.000876349 0.000531365)
(-0.00167515 -2.20988e-05 0.00171148)
(-0.000658362 0.000149682 0.00289629)
(-3.14878e-05 0.00114464 0.00359915)
(1.20061e-05 0.00138354 0.0038965)
(-0.000121202 0.00161922 0.0040426)
(-0.000346054 0.00157753 0.00408695)
(-0.000548372 0.0015336 0.00408314)
(-0.000734905 0.00141723 0.00405562)
(-0.000888451 0.0013477 0.00402233)
(-0.00100026 0.0012765 0.00398671)
(-0.00107849 0.0012435 0.00395362)
(-0.00113053 0.00121466 0.00391953)
(-0.00115829 0.00120728 0.00388774)
(-0.00116686 0.00120218 0.00385897)
(-0.00116462 0.00119751 0.00383113)
(-0.00115243 0.00119165 0.0038003)
(-0.00112567 0.00118268 0.00376674)
(-0.00108328 0.00117048 0.00373557)
(-0.00101827 0.00114844 0.00370948)
(-0.000923625 0.00111965 0.00368957)
(-0.000786323 0.00107292 0.00367346)
(-0.000601411 0.00102229 0.00365935)
(-0.000360639 0.000945737 0.0036421)
(-6.24903e-05 0.000903508 0.00361487)
(0.000296111 0.000863275 0.00356477)
(0.000720243 0.000911191 0.00347437)
(0.00116355 0.000984848 0.00333022)
(0.0015951 0.00118445 0.00312027)
(0.00205555 0.00134627 0.00290842)
(0.00259729 0.00157912 0.00276711)
(0.00334603 0.00168799 0.00283833)
(0.0042797 0.0018373 0.00298899)
(0.0047779 0.00167985 0.00306845)
(0.0043051 0.00196896 0.00268652)
(0.00459012 0.00313459 0.00243051)
(0.00586735 0.00446257 0.00493724)
(0.0069819 0.000537464 0.00979582)
(0.0244093 -0.023989 0.00490228)
(0.0499785 -0.0386786 3.55751e-05)
(0.0455552 -0.0280238 0.00363237)
(0.0350298 -0.00794497 0.0274774)
(0.0510047 -0.00593384 0.0508612)
(0.0684194 -0.00787107 0.0672926)
(0.0633258 0.0546346 0.0955868)
(0.062177 -0.00239326 0.0963558)
(0.0317382 0.176087 0.138787)
(0.0889688 -0.275157 0.171381)
(-0.0509607 0.365888 0.0397155)
(-0.00582809 -0.0803125 0.0319084)
(-0.0117545 0.539809 0.0896155)
(-0.0356051 0.664965 -0.011031)
(-0.0500249 0.585301 0.010917)
(-0.0532968 0.645376 0.00151)
(-0.0357562 0.614898 0.0175524)
(-0.00518175 0.622801 0.0236279)
(0.0177561 0.607362 0.0196442)
(0.0478037 0.621307 0.0164449)
(0.0724 0.631597 0.0257492)
(0.0952309 0.663544 0.0250298)
(0.108232 0.690665 0.0236587)
(0.111617 0.695383 0.0227055)
(0.106766 0.69035 0.0249533)
(0.0925245 0.691385 0.0297049)
(0.0785471 0.662683 0.0294793)
(0.057526 0.637359 0.0282409)
(0.0326503 0.598168 0.0302762)
(-0.000742694 0.558201 0.0265178)
(-0.0321669 0.533284 0.0286849)
(-0.0610525 0.510862 0.0239144)
(-0.0796711 0.505986 0.0170011)
(-0.0867802 0.513787 0.00993403)
(-0.0877211 0.544634 0.00823139)
(-0.0925943 0.574865 0.0130425)
(-0.0900555 0.581429 0.0182265)
(-0.0761437 0.569047 0.0206616)
(-0.0632748 0.571466 0.019335)
(-0.0536725 0.561025 0.0118143)
(-0.0440277 0.568448 0.00421579)
(-0.036676 0.578735 0.00946902)
(-0.0306793 0.580703 0.0162523)
(-0.0222462 0.579028 0.0210912)
(-0.0145661 0.56338 0.0269943)
(-0.012276 0.518605 0.0270276)
(-0.0138168 0.358296 0.0209481)
(-0.0199446 0.0256181 0.0149449)
(0.031005 0.0324021 0.00661703)
(0.0453214 0.0344756 0.00902585)
(0.0182376 0.0142876 0.0062699)
(0.0302744 0.0244476 0.0104876)
(0.0113062 0.00189406 0.00705785)
(0.0149408 0.0100418 0.00791466)
(0.00662923 -0.00230569 0.00277422)
(0.00377758 0.00455335 -9.63595e-05)
(-0.00129594 8.9148e-05 0.000558823)
(-0.00265902 0.00314796 0.00151196)
(-0.00269117 -0.000945653 0.0015745)
(-0.00358858 -0.00115001 0.00213521)
(-0.00360494 -0.00133507 0.00279331)
(-0.00316213 -6.34547e-05 0.00342737)
(-0.00301937 0.000487271 0.00377032)
(-0.00307607 0.0010365 0.00392784)
(-0.00326633 0.00124841 0.00393622)
(-0.00349578 0.00143382 0.00388775)
(-0.00373189 0.0014998 0.00381433)
(-0.00391827 0.00156742 0.00368944)
(-0.00405119 0.00159745 0.00356039)
(-0.00413666 0.00163793 0.00344687)
(-0.00417988 0.00166328 0.00334909)
(-0.00418898 0.00169079 0.00327222)
(-0.00417322 0.00170585 0.0032093)
(-0.00413607 0.00171766 0.00315912)
(-0.00407834 0.00172476 0.00311614)
(-0.0039959 0.00172763 0.00307467)
(-0.003891 0.00172813 0.00303741)
(-0.00376137 0.00172541 0.00300897)
(-0.00361199 0.00172613 0.00299187)
(-0.00342632 0.00172344 0.00298531)
(-0.0032021 0.00173159 0.00299037)
(-0.00292027 0.00173602 0.00300738)
(-0.00258762 0.00177957 0.00303383)
(-0.00219552 0.00183588 0.00306499)
(-0.00174496 0.00196399 0.00309601)
(-0.00123311 0.00206499 0.00310794)
(-0.00066777 0.00219871 0.00306203)
(-4.5673e-05 0.00222348 0.00295215)
(0.000688808 0.00221333 0.00274417)
(0.00155702 0.00208045 0.00249133)
(0.00251061 0.00226357 0.00212897)
(0.003148 0.00232131 0.00165451)
(0.0030994 0.00284328 0.000817056)
(0.00377749 0.00231569 0.00101343)
(0.00685548 -0.0010028 0.00518315)
(0.0142225 -0.0159296 0.00953357)
(0.0337477 -0.0375296 0.00462228)
(0.0437178 -0.0242173 0.00581682)
(0.0379374 0.00785437 0.0255342)
(0.0228392 0.0201872 0.0593224)
(0.0019192 0.0306145 0.0698552)
(-0.012628 0.0773257 0.0805905)
(0.000343166 0.100868 0.101155)
(0.0302887 0.0445351 0.127886)
(0.0827814 0.176 0.21356)
(0.0791919 -0.247326 0.236363)
(-0.0331192 0.257952 0.0523758)
(-0.0239742 -0.0472309 0.0283551)
(-0.0687698 0.504192 0.0968486)
(-0.0689752 0.6582 -0.0215709)
(-0.074452 0.574966 0.00746085)
(-0.065941 0.618999 0.00204456)
(-0.0495967 0.569 0.0123979)
(-0.0134845 0.55871 -0.00646759)
(0.00585054 0.545867 -0.00670197)
(0.0302524 0.561679 -0.00905535)
(0.0420762 0.58203 0.0102277)
(0.0601626 0.605582 0.0269835)
(0.0705699 0.632121 0.0294539)
(0.0865783 0.674012 0.0329942)
(0.0913098 0.691279 0.0333418)
(0.0853285 0.699917 0.034998)
(0.0703127 0.691576 0.0406416)
(0.0587726 0.680881 0.0405303)
(0.035551 0.662975 0.0453637)
(0.00748554 0.641864 0.0454255)
(-0.0198326 0.613498 0.0465793)
(-0.0458573 0.604555 0.0462164)
(-0.0694154 0.58814 0.029669)
(-0.0902344 0.596886 0.0117135)
(-0.0978723 0.606437 0.00644608)
(-0.0995308 0.602193 0.00456658)
(-0.081614 0.593568 0.00393459)
(-0.0672017 0.590989 0.00839907)
(-0.0528887 0.593197 0.00319829)
(-0.0396481 0.593737 -0.0052254)
(-0.0280147 0.591117 -0.0033259)
(-0.0210433 0.588793 -0.00454102)
(-0.0182884 0.586775 -0.00927911)
(-0.0191155 0.600063 -0.0175304)
(-0.0201263 0.602468 -0.0205427)
(-0.0191881 0.594461 -0.0157757)
(-0.0175854 0.583226 0.00220381)
(-0.0219588 0.52812 0.0108873)
(0.0305849 0.0290031 0.00248958)
(0.0449589 0.0392167 0.00907164)
(0.0113898 0.0169694 0.00629162)
(0.0273312 0.0285902 0.0132943)
(0.00622378 0.00286121 0.00875047)
(0.0105257 0.0136225 0.010518)
(0.00148184 -0.00381066 0.00684127)
(0.00116371 0.00521229 0.00280258)
(-0.00278437 -0.00052039 0.00184462)
(-0.00343256 0.00419302 0.00319768)
(-0.0032858 -0.000178667 0.00363629)
(-0.00464658 -0.000680534 0.0038677)
(-0.00493073 -0.00148714 0.00419395)
(-0.00433475 -0.000631805 0.00464407)
(-0.00388851 -0.000231184 0.00502731)
(-0.00375853 0.000382761 0.00523629)
(-0.003794 0.000811346 0.00527857)
(-0.00382758 0.00123055 0.00523326)
(-0.0038544 0.00149695 0.00512981)
(-0.00384716 0.00170779 0.0050544)
(-0.00380701 0.00183961 0.00498446)
(-0.00373915 0.00194635 0.00493282)
(-0.00364611 0.00201731 0.00489592)
(-0.00353071 0.00208283 0.0048772)
(-0.00340386 0.00213793 0.00486877)
(-0.00327186 0.0021939 0.00486811)
(-0.0031405 0.00224841 0.00486738)
(-0.0030047 0.00229518 0.00485958)
(-0.00286763 0.00232932 0.00484596)
(-0.0027153 0.00235083 0.00483683)
(-0.00254703 0.00237245 0.00483783)
(-0.00234274 0.00239753 0.00485343)
(-0.00209879 0.0024558 0.00488895)
(-0.00179884 0.00253332 0.00494313)
(-0.00144753 0.00267488 0.00501901)
(-0.00102866 0.00285115 0.00510869)
(-0.000547796 0.00311451 0.00520099)
(6.81521e-06 0.00335899 0.00526242)
(0.000667226 0.0036012 0.00523554)
(0.00136197 0.00366216 0.00500887)
(0.0020435 0.00370267 0.0045025)
(0.00255751 0.0035598 0.00365837)
(0.00312333 0.00385111 0.00250795)
(0.00364847 0.0039138 0.00118503)
(0.00405964 0.00431162 0.000126955)
(0.00676891 0.00246991 0.000725974)
(0.0134493 -0.00295247 0.00539857)
(0.0179391 -0.0222807 0.00493447)
(0.0159945 -0.00475844 0.00922067)
(-0.00420268 0.0439692 0.0314469)
(-0.017056 0.0598142 0.0647567)
(-0.0383093 0.0774169 0.0726346)
(-0.0532192 0.0803953 0.0724007)
(-0.04954 0.0884919 0.0839556)
(-0.0405089 0.0999437 0.104786)
(0.0031928 0.0268224 0.123683)
(0.131954 0.198292 0.198082)
(0.125194 -0.245858 0.215882)
(-0.11666 0.356048 -0.0230516)
(-0.0267765 -0.0896698 0.0374094)
(-0.100643 0.508982 0.0866074)
(-0.0926984 0.659664 -0.0326185)
(-0.0767052 0.556903 0.0045526)
(-0.0487138 0.594295 -0.00439666)
(-0.0238296 0.545368 0.00478127)
(0.011196 0.552735 -0.00837297)
(0.0151402 0.533771 -0.0180226)
(0.0250735 0.54421 -0.0313661)
(0.038077 0.5668 -0.0219473)
(0.0512831 0.575512 -0.00148091)
(0.0575504 0.576224 0.0126631)
(0.0635285 0.59429 0.0296289)
(0.0723636 0.616643 0.0405735)
(0.0753544 0.656275 0.0400526)
(0.0704046 0.673168 0.0404985)
(0.0583569 0.674894 0.0451558)
(0.0440891 0.668537 0.0452453)
(0.0205185 0.659243 0.0418248)
(-0.0104314 0.643204 0.0297776)
(-0.0475484 0.641198 0.0139256)
(-0.0743498 0.64993 -0.00220699)
(-0.0842182 0.653878 -0.0097471)
(-0.0868725 0.646121 -0.0124566)
(-0.0723463 0.633558 -0.0103758)
(-0.0608409 0.608082 -0.00522019)
(-0.048533 0.595326 -0.00726343)
(-0.037501 0.585335 -0.0132494)
(-0.0227476 0.572532 -0.01971)
(-0.0145666 0.565812 -0.0187741)
(-0.0139345 0.55712 -0.0233479)
(-0.0190892 0.558254 -0.0385132)
(-0.0161306 0.584524 -0.0481145)
(-0.00757928 0.601013 -0.0524626)
(-0.00422923 0.602914 -0.0521489)
(-0.000322881 0.583447 -0.042424)
(0.002427 0.530985 -0.0301042)
(0.00901465 0.0308102 -0.0107221)
(0.0444162 0.0407288 0.0117414)
(0.00271728 0.0155988 0.00652837)
(0.0241316 0.03134 0.0134436)
(-0.00196559 0.00476371 0.00717515)
(0.00409676 0.0190021 0.00971899)
(-0.00439448 -0.00248156 0.00550412)
(-0.00361987 0.00851614 0.00145541)
(-0.00561848 0.000321446 -0.000508707)
(-0.00618872 0.00560094 0.000482134)
(-0.00533165 0.00101636 0.0012841)
(-0.0076178 0.00069808 0.00104345)
(-0.00859954 -0.00117646 0.000723844)
(-0.00797889 -0.000976187 0.000963457)
(-0.00761217 -0.000730101 0.00131483)
(-0.00753668 -4.48988e-05 0.00161908)
(-0.00761403 0.000539052 0.00179787)
(-0.00771301 0.00109922 0.00188154)
(-0.00781357 0.00148589 0.00191723)
(-0.00789482 0.00179622 0.00192742)
(-0.00795397 0.00199806 0.00192048)
(-0.00799032 0.00215833 0.00191145)
(-0.00800884 0.00226386 0.00190295)
(-0.00801082 0.00235705 0.00190342)
(-0.00799855 0.00243056 0.00190778)
(-0.00796626 0.00249529 0.00191643)
(-0.00789977 0.00254577 0.00192637)
(-0.00776765 0.00257597 0.00194195)
(-0.00758421 0.00260072 0.00197233)
(-0.00737233 0.00262803 0.00200712)
(-0.00714622 0.00265969 0.00204544)
(-0.00689478 0.00269541 0.00208781)
(-0.0066173 0.00276257 0.00214026)
(-0.00631095 0.00286033 0.00220388)
(-0.00599245 0.0030402 0.00228803)
(-0.0056285 0.0032824 0.00238995)
(-0.00518973 0.00364829 0.00248525)
(-0.00465331 0.00405899 0.00251236)
(-0.00401272 0.00458946 0.00237048)
(-0.00331723 0.00507066 0.00192195)
(-0.00262371 0.00558493 0.00102089)
(-0.00197075 0.00583078 -0.000348595)
(-0.000939928 0.00596385 -0.00207256)
(0.000442523 0.00572372 -0.00363184)
(0.00227108 0.00596893 -0.00461065)
(0.0075698 0.00427679 -0.00293423)
(0.0158234 -0.000551885 0.00246156)
(0.0040797 -0.0172403 0.000277258)
(-0.0222773 0.000977812 0.0102802)
(-0.0348475 0.0427389 0.0315453)
(-0.0588673 0.0446502 0.051941)
(-0.0658392 0.0530696 0.0578887)
(-0.0817111 0.0481809 0.0505372)
(-0.0844853 0.0304904 0.0477743)
(-0.0638039 0.0557681 0.0773334)
(-0.0472401 -0.0983967 0.0708397)
(0.0994752 0.0404263 0.0760053)
(0.0390284 -0.121366 0.0537198)
(0.0292355 0.365758 -0.0734938)
(-0.037515 -0.0927952 0.0374729)
(-0.141279 0.488073 0.0743003)
(-0.106639 0.656215 -0.0239414)
(-0.082497 0.522 0.0115179)
(-0.0430457 0.571394 0.0110397)
(-0.0257791 0.509345 0.0232886)
(0.00583923 0.534442 0.00942801)
(0.0105416 0.52129 -0.00106531)
(0.0119945 0.530212 -0.0180437)
(0.0266134 0.549359 -0.0268126)
(0.0456669 0.562254 -0.0137622)
(0.0552479 0.562412 -0.0158286)
(0.05668 0.561863 -0.0141957)
(0.0509362 0.560318 -0.0102682)
(0.0412319 0.579739 -0.00730371)
(0.0449059 0.625768 -0.00297905)
(0.0456398 0.650376 0.0175178)
(0.0298946 0.654599 0.0231922)
(0.0118801 0.658145 0.0193402)
(-0.0133203 0.668842 0.00565645)
(-0.0391268 0.672905 -0.00564842)
(-0.0470646 0.670416 -0.0152181)
(-0.0524744 0.66383 -0.0148135)