/*--------------------------------*- C++ -*----------------------------------*\
| =========                 |                                                 |
| \\      /  F ield         | OpenFOAM: The Open Source CFD Toolbox           |
|  \\    /   O peration     | Version:  2.3.0                                 |
|   \\  /    A nd           | Web:      www.OpenFOAM.org                      |
|    \\/     M anipulation  |                                                 |
\*---------------------------------------------------------------------------*/
FoamFile
{
    version     2.0;
    format      ascii;
    class       volVectorField;
    location    "14";
    object      U.water;
}
// * * * * * * * * * * * * * * * * * * * * * * * * * * * * * * * * * * * * * //

dimensions      [0 1 -1 0 0 0 0];

internalField   nonuniform List<vector> 
6144
(
(0.00886281 0.0164278 -0.00124336)
(0.00931309 -0.00514009 -0.000486194)
(0.00312888 -0.00832507 -0.00130895)
(0.00357442 -0.00972063 -0.000613799)
(0.00120017 -0.0120625 -0.000248942)
(0.00147239 -0.00951955 0.000613014)
(0.000971894 -0.00953605 0.000306491)
(0.00126783 -0.00711215 0.000505133)
(0.00129912 -0.00582326 -0.000462953)
(0.0015014 -0.00313771 -0.000772044)
(0.00158397 -0.00118208 -0.000729376)
(0.00187384 0.000598488 -0.000290281)
(0.00218933 0.00104743 1.2306e-05)
(0.00241418 0.00101417 0.0001754)
(0.00254063 0.000569324 0.000110226)
(0.00260613 0.000184007 1.77738e-05)
(0.00264184 -0.000189104 -0.000111316)
(0.00266328 -0.00043378 -0.000199422)
(0.00267822 -0.000633596 -0.000279357)
(0.00268699 -0.000745616 -0.000324942)
(0.0026898 -0.000838833 -0.000357386)
(0.00269222 -0.000887988 -0.000369828)
(0.00268891 -0.000931273 -0.000374106)
(0.00268647 -0.000957102 -0.000367824)
(0.00268081 -0.000984152 -0.000356398)
(0.00267512 -0.00100913 -0.000339678)
(0.0026683 -0.00103847 -0.00031947)
(0.00266181 -0.0010757 -0.000295886)
(0.00265493 -0.00112079 -0.000268718)
(0.00264856 -0.00118454 -0.000237861)
(0.00264172 -0.00126098 -0.000200121)
(0.00263587 -0.00137386 -0.000156299)
(0.00263005 -0.00151007 -9.71308e-05)
(0.00262682 -0.00171879 -2.54959e-05)
(0.00262669 -0.00197812 7.66094e-05)
(0.00263451 -0.00238293 0.000199178)
(0.0026527 -0.00289445 0.000362254)
(0.00268934 -0.00366088 0.000532472)
(0.00275162 -0.00459125 0.000682964)
(0.00284369 -0.0058404 0.000736707)
(0.00294264 -0.00713857 0.00062457)
(0.003096 -0.0084576 0.000291644)
(0.00334778 -0.00940789 -0.000496968)
(0.00373032 -0.0100922 -0.00135638)
(0.00412189 -0.0102804 -0.00215432)
(0.00438266 -0.0110752 -0.00269206)
(0.00479906 -0.0114881 -0.00341822)
(0.00513952 -0.0126433 -0.00423225)
(0.00405721 -0.0090945 -0.00534576)
(0.00843428 -0.00831274 -0.010704)
(0.0198281 -0.00165637 -0.0156836)
(0.0261057 -0.0248012 -0.0136672)
(0.0320054 -0.0309909 -0.00963935)
(0.0371851 -0.0543911 -0.00674101)
(0.0335719 -0.0518444 -0.00859091)
(0.0338782 -0.0838262 -0.00573403)
(0.0218535 -0.0477246 -0.0217858)
(0.0192241 -0.117797 -0.00789143)
(-0.0564909 0.0118668 -0.0807424)
(0.00766566 -0.0434399 0.0150867)
(0.0741213 -0.285064 0.0918581)
(0.0371156 -0.0988917 0.0409246)
(0.022081 -0.163424 0.00786373)
(0.0210358 -0.156901 0.0100332)
(0.0154372 -0.144415 0.00606663)
(0.0164594 -0.137701 -0.00346815)
(0.0161856 -0.12636 -0.00957294)
(0.0126558 -0.116628 -0.0221884)
(0.0203457 -0.105932 -0.024364)
(0.0370763 -0.105175 -0.0253767)
(0.0435216 -0.119473 -0.0241537)
(0.0498179 -0.131939 -0.0209813)
(0.0509593 -0.14965 -0.0150537)
(0.0455575 -0.174173 -0.00846694)
(0.0386914 -0.194706 -0.00288914)
(0.0334485 -0.212554 0.00261907)
(0.0226357 -0.231042 0.00459603)
(0.0136835 -0.240223 0.00772406)
(0.0044214 -0.241866 0.00859313)
(-0.00874257 -0.238226 0.0145672)
(-0.0127497 -0.231338 0.0161409)
(-0.0171147 -0.225241 0.0187247)
(-0.0236692 -0.217368 0.0142126)
(-0.0234055 -0.207014 -0.00300507)
(-0.0206046 -0.173546 -0.0171562)
(-0.0179064 -0.0936011 -0.0282685)
(-0.011778 -0.036834 -0.0173555)
(-0.0077413 -0.0107404 -0.00255917)
(-0.00280162 -0.00163671 0.00223255)
(-0.00256891 -0.00059431 0.0012865)
(-0.00248153 0.00237174 0.0008966)
(0.00729317 0.00610489 0.00116933)
(0.0112223 0.00865701 0.00194727)
(0.0134477 0.00660791 -0.000184573)
(0.0171253 0.00643318 -0.00288076)
(0.0191206 -0.00291014 -0.00888827)
(0.0211756 0.0237213 0.0027435)
(0.0217143 0.00547557 0.00313993)
(0.00815927 -0.000660497 -9.71346e-05)
(0.0100667 -0.00327978 0.000899453)
(0.00260146 -0.0091204 0.00183273)
(0.0032236 -0.00591059 0.00263093)
(0.00107802 -0.00738095 0.00308803)
(0.00192883 -0.00397413 0.00312652)
(0.00157266 -0.00332743 0.0030607)
(0.0020482 -0.000928683 0.00266934)
(0.00223787 0.000500805 0.00249285)
(0.00297804 0.00204756 0.00291209)
(0.0037366 0.00213433 0.00339606)
(0.00427884 0.00185583 0.00368047)
(0.0045536 0.00119067 0.00367291)
(0.00468945 0.000683037 0.0035961)
(0.00474528 0.000208162 0.00346961)
(0.00477265 -8.89459e-05 0.00338123)
(0.00478237 -0.000334734 0.00331016)
(0.00478268 -0.000469544 0.00327728)
(0.00477789 -0.000578614 0.00326541)
(0.00476983 -0.000632387 0.00327432)
(0.00475772 -0.000678961 0.00329569)
(0.00474389 -0.000702654 0.00332871)
(0.00472756 -0.000728533 0.00336754)
(0.00471008 -0.000750115 0.00341188)
(0.00469225 -0.000777405 0.00346001)
(0.00467441 -0.000813898 0.00351181)
(0.00465721 -0.000859723 0.00356755)
(0.00464056 -0.000928662 0.00362736)
(0.0046255 -0.00101063 0.00369501)
(0.00461281 -0.00113969 0.00377069)
(0.00460549 -0.00129001 0.00386377)
(0.00460354 -0.00153332 0.00397438)
(0.00461934 -0.00182091 0.00411604)
(0.00465429 -0.00228856 0.00428206)
(0.00473556 -0.00284526 0.00447043)
(0.00487641 -0.00369185 0.00464004)
(0.00511221 -0.0046496 0.00472917)
(0.00546101 -0.00594061 0.00465511)
(0.00590832 -0.00721201 0.00431933)
(0.00643592 -0.00863025 0.00366428)
(0.00693949 -0.00961059 0.00268486)
(0.00755834 -0.0103645 0.00171482)
(0.00853416 -0.0106315 0.000941405)
(0.00977201 -0.011636 0.000721951)
(0.00986248 -0.0130353 -0.000644445)
(0.00778651 -0.0105287 -0.00214964)
(0.00753028 -0.00518476 -0.00116887)
(0.012814 -0.00907602 -0.005744)
(0.0426335 -0.010714 -0.0138181)
(0.0607371 -0.0330806 -0.00832877)
(0.0552324 -0.0337896 0.00852837)
(0.0564308 -0.0574387 0.0194572)
(0.0486559 -0.0520927 0.0182535)
(0.051429 -0.0954938 0.0273111)
(0.0318129 -0.0633957 0.0056379)
(0.0300971 -0.158715 0.0291521)
(-0.00911634 0.0327497 -0.112667)
(0.0205525 -0.0891548 -0.0290828)
(0.0901542 -0.247275 0.127228)
(0.0350066 -0.0442662 0.0548976)
(0.00669159 -0.111526 0.0067744)
(0.00320145 -0.0821245 0.0120867)
(0.00192578 -0.0548459 -0.0261764)
(0.00314301 -0.00145814 -0.0266933)
(0.0211215 0.0471973 -0.0286266)
(0.0536977 0.0606147 -0.0292268)
(0.0788885 0.0614687 -0.0274377)
(0.0935008 0.0471658 -0.0225643)
(0.0930734 0.0220553 -0.0125077)
(0.0902246 -0.00856671 0.00026761)
(0.077322 -0.0464425 0.0108689)
(0.0584018 -0.0819014 0.0183659)
(0.0438352 -0.110803 0.0214498)
(0.0304058 -0.134561 0.0206115)
(0.0110281 -0.155266 0.018618)
(-0.00810724 -0.173418 0.0203345)
(-0.0243293 -0.191216 0.0198638)
(-0.0369649 -0.201557 0.0213869)
(-0.0409446 -0.204065 0.0219726)
(-0.043079 -0.20298 0.0209842)
(-0.0446322 -0.200178 0.0137495)
(-0.0384825 -0.190203 -0.00136579)
(-0.0341221 -0.156737 -0.0195711)
(-0.0269746 -0.08223 -0.0274939)
(-0.0216677 -0.0325338 -0.0106461)
(-0.0118978 -0.00972148 -0.00148533)
(-0.00121629 -0.00159975 0.00257046)
(0.00279483 0.000387712 0.00507205)
(0.00137809 -0.00661869 0.00590863)
(-0.0046288 -0.0124855 0.0053643)
(-0.00212972 -0.00546029 0.00414611)
(0.00637995 -0.00676639 0.00322129)
(0.0191558 -0.00598358 0.00324393)
(0.0175418 -0.0114948 -0.003449)
(0.0290506 0.0310978 0.0038144)
(0.0299785 0.0151274 0.00203811)
(0.0150306 0.00849339 -0.00231439)
(0.0179814 0.00611283 0.000168269)
(0.00342085 -0.00551446 2.93065e-05)
(0.00370618 -0.00264422 0.00101854)
(-0.000968049 -0.00630012 0.00253111)
(0.000308968 -0.00181671 0.00291711)
(-4.64328e-05 -0.00134456 0.00359647)
(0.00073902 0.0012457 0.00366302)
(0.000908241 0.00173568 0.00364431)
(0.00208762 0.00304726 0.00398508)
(0.00320106 0.00281912 0.00441935)
(0.00392883 0.00247754 0.0047128)
(0.00415254 0.00175911 0.00482674)
(0.00418913 0.0012378 0.00487099)
(0.00410783 0.000734356 0.004885)
(0.00403394 0.00042299 0.00490305)
(0.00394632 0.000159716 0.00493078)
(0.00387837 1.15785e-05 0.00496855)
(0.00381577 -0.000110015 0.00501461)
(0.00376458 -0.000176119 0.00506359)
(0.00371862 -0.000230919 0.00511434)
(0.00367841 -0.000264024 0.00516697)
(0.00364231 -0.000295479 0.00521907)
(0.00361043 -0.000321971 0.00527037)
(0.00358329 -0.000352654 0.00532085)
(0.00356028 -0.000391027 0.00537103)
(0.00354312 -0.000438638 0.00542066)
(0.00353044 -0.000507664 0.00546916)
(0.00352834 -0.000588563 0.00551784)
(0.00353288 -0.000713799 0.00556566)
(0.00356102 -0.000859495 0.00561674)
(0.00360816 -0.00108743 0.00567069)
(0.00371091 -0.00135302 0.00572932)
(0.0038598 -0.00176153 0.00579236)
(0.00410742 -0.00221706 0.00584652)
(0.0044365 -0.00285777 0.00589013)
(0.00489255 -0.00348088 0.00588526)
(0.00545708 -0.00423659 0.00582408)
(0.00608603 -0.00484855 0.0056367)
(0.0067213 -0.00555056 0.00537801)
(0.00725123 -0.00601647 0.00498965)
(0.0079665 -0.00652864 0.00467934)
(0.00944378 -0.00657266 0.00434485)
(0.0113581 -0.00715148 0.00383633)
(0.0116284 -0.00868159 0.00243544)
(0.00792448 -0.00998949 0.00213134)
(0.00946265 -0.00949942 0.00381073)
(0.0214454 -0.0139554 -0.00185895)
(0.0620202 -0.0228962 -0.00667462)
(0.0754305 -0.0267161 0.00634668)
(0.0629532 -0.0245854 0.027465)
(0.0611962 -0.0528146 0.0343176)
(0.0495809 -0.0567485 0.030297)
(0.0577392 -0.119101 0.0454737)
(0.0297924 -0.106152 0.047814)
(0.0408655 -0.215657 0.0898211)
(-0.00329341 0.07246 -0.0600409)
(0.0237908 -0.139835 -0.0274792)
(0.128745 -0.238251 0.14352)
(0.071739 -0.0314622 0.0907174)
(0.0266795 -0.0947906 0.0512561)
(0.0192396 -0.0555143 0.0358964)
(-0.00175759 0.00777203 -0.0217333)
(-0.00072734 0.0791088 -0.0113398)
(0.0451801 0.0905557 -0.00951822)
(0.0679312 0.100941 -0.000119575)
(0.095348 0.101501 -0.000840865)
(0.108717 0.0945847 0.0034065)
(0.108294 0.0725985 0.0100646)
(0.101283 0.0345524 0.0162908)
(0.0808244 -0.00837832 0.0239351)
(0.0581949 -0.0456561 0.0270199)
(0.0432731 -0.0720041 0.0224595)
(0.0364401 -0.0875985 0.0114042)
(0.0254948 -0.103007 0.00662608)
(0.00837333 -0.1244 0.0135027)
(-0.0160435 -0.147149 0.0133887)
(-0.0392988 -0.161095 0.01487)
(-0.05658 -0.170675 0.0204092)
(-0.0678131 -0.176191 0.0165367)
(-0.0686771 -0.174165 0.00859848)
(-0.06068 -0.163467 -0.00485481)
(-0.0499617 -0.126915 -0.0223309)
(-0.0532685 -0.064733 -0.0198392)
(-0.0437407 -0.0226811 -0.0127566)
(-0.0219498 0.00193285 -0.00786477)
(-0.007316 0.0135577 -0.000165598)
(0.00205959 0.01699 0.00718394)
(0.00652696 0.0159147 0.0112632)
(0.00416565 0.00419879 0.00910957)
(0.00578082 0.000645656 0.00488106)
(0.0118847 -9.81674e-05 0.00684499)
(0.0257616 -0.00401267 0.00730859)
(0.0173684 -0.011594 0.0010894)
(0.0340907 0.0357106 0.0050104)
(0.0380321 0.0238536 0.00427957)
(0.0229816 0.0155298 -0.000724072)
(0.0272312 0.0144791 0.00204358)
(0.0118762 0.000949607 -0.00258067)
(0.00975312 0.00343159 -0.00175033)
(-0.000438331 -0.00581783 0.000440845)
(-0.000792754 -0.00169994 0.00108142)
(-0.00215329 -0.00211505 0.0020688)
(-0.000628062 0.00147297 0.00249798)
(-0.000171079 0.00154424 0.00273855)
(0.00112389 0.00292698 0.00349374)
(0.00224541 0.00266061 0.00414486)
(0.00293718 0.00252827 0.00456929)
(0.0031028 0.00197058 0.00473921)
(0.00307728 0.00155637 0.00482104)
(0.00296351 0.00110236 0.00487297)
(0.00285071 0.000803356 0.00492485)
(0.00273659 0.000538853 0.00498346)
(0.00264239 0.000379464 0.00504456)
(0.00256081 0.000250867 0.0051058)
(0.00249363 0.000176399 0.00516721)
(0.00243722 0.000115415 0.0052289)
(0.00238861 7.51882e-05 0.00528626)
(0.00234604 3.87233e-05 0.0053372)
(0.00230945 8.09127e-06 0.00538223)
(0.00228028 -2.43933e-05 0.00542338)
(0.00225811 -6.20593e-05 0.00546264)
(0.00224425 -0.000108528 0.00549956)
(0.00224063 -0.000174669 0.00553352)
(0.00225301 -0.000253996 0.00556445)
(0.00228333 -0.000374308 0.00559211)
(0.00234409 -0.000512096 0.00561743)
(0.00243873 -0.000720269 0.00563781)
(0.00258861 -0.000952523 0.00565186)
(0.00278644 -0.00128496 0.00565515)
(0.00306272 -0.00160906 0.00563483)
(0.00340304 -0.00198487 0.0055809)
(0.00384557 -0.00221072 0.00547292)
(0.00442086 -0.00238681 0.0053438)
(0.00514553 -0.00230285 0.00523407)
(0.00602946 -0.00227897 0.005286)
(0.00687171 -0.00226367 0.0054659)
(0.00752543 -0.00268566 0.00580799)
(0.00828818 -0.00248023 0.00608624)
(0.0106185 -0.00136063 0.00584807)
(0.0131054 -0.000243485 0.00514985)
(0.00990647 0.000740222 0.00703656)
(0.0108079 -0.00361428 0.00684881)
(0.0287791 -0.0154619 -0.00216023)
(0.0662566 -0.0279261 -0.00351009)
(0.0680893 -0.014148 0.0151877)
(0.0579602 -0.0190587 0.0436982)
(0.071922 -0.0651923 0.0469289)
(0.0809514 -0.0767774 0.0412922)
(0.115009 -0.155371 0.0615959)
(0.0588718 -0.119978 0.0944436)
(0.0811666 -0.246796 0.158245)
(-0.00585137 0.140127 0.0105422)
(0.0146297 -0.202185 -0.00227657)
(0.117293 -0.208799 0.145048)
(0.0535695 0.0588298 0.0730623)
(-0.0184379 -0.0664072 0.0716993)
(-0.0449982 0.0572113 -0.0137842)
(-0.041298 0.0913706 -0.0049452)
(0.00160331 0.102162 0.0138788)
(0.0246882 0.106399 0.00788614)
(0.0583837 0.110319 0.0124844)
(0.0856277 0.117056 0.0082009)
(0.108659 0.120175 -0.000344817)
(0.117664 0.124535 -0.00184268)
(0.122778 0.11314 -0.00640309)
(0.106011 0.0930382 0.00268879)
(0.075594 0.0448134 0.0113482)
(0.057879 0.014994 0.00912699)
(0.0487823 -0.00656089 0.0106013)
(0.0347978 -0.0317889 0.0223243)
(0.010648 -0.0608038 0.025862)
(-0.0159102 -0.0876712 0.0222433)
(-0.0439259 -0.106969 0.0230522)
(-0.0715077 -0.12903 0.0206699)
(-0.0832793 -0.137621 0.0106677)
(-0.0820745 -0.134658 0.00671263)
(-0.0673696 -0.123159 -0.00444775)
(-0.0612199 -0.0698448 -0.0211551)
(-0.0640754 -0.017148 -0.0175209)
(-0.0473718 0.00446493 -0.0110247)
(-0.0288242 0.00555205 0.00068923)
(-0.0192342 0.0104105 0.0126987)
(-0.0110096 0.0203927 0.0160085)
(-0.0037651 0.0248984 0.0207518)
(0.00241997 0.0220928 0.0197904)
(0.00193822 0.0162857 0.0142133)
(0.00804985 0.00839516 0.0150519)
(0.0201625 0.000302749 0.0226696)
(0.0106711 -0.011845 0.00540095)
(0.035427 0.0365683 0.00750537)
(0.0417881 0.0279789 0.00870813)
(0.0259085 0.0159468 0.00265538)
(0.0315748 0.0169629 0.00609499)
(0.0169066 0.00314455 -0.00168659)
(0.0171825 0.00770922 -0.00143569)
(0.00473161 -0.0031742 -0.00169448)
(0.000866877 0.000540182 -0.000426695)
(-0.00305328 -0.00280885 0.000522603)
(-0.00224024 0.000342771 0.000964393)
(-0.00149337 -7.44311e-05 0.00139561)
(-0.000158706 0.00149533 0.00264662)
(0.000685267 0.00151464 0.00356953)
(0.00117767 0.00183651 0.0041159)
(0.00116606 0.00162773 0.00432897)
(0.000974045 0.00146744 0.00442126)
(0.000706343 0.00114649 0.00445554)
(0.00047945 0.000907087 0.00448811)
(0.000273005 0.00066935 0.00452109)
(0.000105267 0.000520041 0.00455799)
(-2.75418e-05 0.000393883 0.00459668)
(-0.000133706 0.00031728 0.00463361)
(-0.00021688 0.000255233 0.00466118)
(-0.000280078 0.000217355 0.0046842)
(-0.0003269 0.00018335 0.0047029)
(-0.000359192 0.000154177 0.00471708)
(-0.000377549 0.000127234 0.00472429)
(-0.000380656 0.000100308 0.00472784)
(-0.00036968 6.79822e-05 0.0047304)
(-0.000344665 2.38467e-05 0.00473042)
(-0.000302633 -2.99283e-05 0.00472666)
(-0.000236113 -0.000116056 0.00471618)
(-0.000138282 -0.000218953 0.00469769)
(-7.65987e-07 -0.00038249 0.00466757)
(0.000205439 -0.000559332 0.00462946)
(0.000479265 -0.000792267 0.004578)
(0.000839824 -0.000954345 0.00449568)
(0.00124802 -0.00110236 0.00436085)
(0.00175006 -0.0010616 0.00418716)
(0.00234285 -0.000941444 0.00402914)
(0.00310827 -0.000589458 0.00399567)
(0.00411153 -0.000315243 0.00425873)
(0.00515246 -0.000101876 0.0046557)
(0.00581253 -0.000390248 0.00500869)
(0.0060338 -0.0001299 0.00512519)
(0.00750692 0.00159645 0.00519714)
(0.00908702 0.00495365 0.00599581)
(0.00700854 0.00631925 0.00879562)
(0.0140637 -0.00437439 0.00577906)
(0.0448381 -0.0318655 -0.00230557)
(0.0603639 -0.0295837 -0.00131676)
(0.0518195 -0.0107021 0.0206226)
(0.0548237 -0.0103644 0.0467649)
(0.0812741 -0.0589086 0.0524576)
(0.10215 -0.0415148 0.0541395)
(0.147612 -0.122229 0.0663423)
(0.0409159 0.0166973 0.136759)
(0.0986041 -0.248948 0.194241)
(-0.0391797 0.212424 0.0631965)
(0.00461095 -0.239663 0.0137816)
(0.0665973 -0.199668 0.139483)
(-0.00691812 0.151003 0.0151781)
(-0.0361572 -0.0173515 0.0319075)
(-0.0626808 0.105701 -0.0206375)
(-0.0391461 0.0817805 -0.00154255)
(-0.0072141 0.106982 0.0125333)
(0.0158817 0.100887 0.0251087)
(0.0493301 0.105572 0.0183848)
(0.0798247 0.114396 0.0245617)
(0.107672 0.124313 0.016029)
(0.121388 0.137775 0.0159733)
(0.125686 0.142621 0.015447)
(0.123443 0.140624 0.0175214)
(0.102988 0.120765 0.0233093)
(0.0811472 0.0798413 0.0241414)
(0.0576748 0.045731 0.0276501)
(0.0369644 0.0149255 0.033757)
(0.0109393 -0.026685 0.0348806)
(-0.0143093 -0.0577682 0.0326773)
(-0.0421003 -0.0815619 0.0296264)
(-0.0677364 -0.10023 0.0202824)
(-0.0721577 -0.102066 0.0124773)
(-0.0667425 -0.096519 0.00163762)
(-0.0745713 -0.0799709 -0.0198155)
(-0.0893517 -0.0300833 -0.0191275)
(-0.0788914 0.00068846 -0.00358595)
(-0.0472794 0.0123023 0.0144104)
(-0.0392185 0.0149094 0.0278097)
(-0.0354515 0.0184216 0.0221628)
(-0.0301618 0.0255714 0.0188594)
(-0.0261229 0.0342687 0.0264827)
(-0.0196744 0.0334164 0.0322066)
(-0.0105146 0.0284621 0.0336399)
(0.000799783 0.00973467 0.0338327)
(0.00747666 0.00312271 0.0364073)
(-0.00214684 -0.01212 0.0107615)
(0.0344131 0.0357209 0.00940493)
(0.0441891 0.0307203 0.0100143)
(0.023193 0.0140107 0.0062773)
(0.0316824 0.018967 0.00932398)
(0.016454 0.00156922 0.00369735)
(0.0195867 0.00839868 0.00256477)
(0.00809575 -0.00175259 -0.00182413)
(0.00330632 0.00327525 -0.00107791)
(-0.00171683 -0.00143551 5.39616e-05)
(-0.00276038 0.00111885 0.000346464)
(-0.00243497 -0.0015493 0.000531581)
(-0.00167025 -0.000702406 0.00171165)
(-0.000654486 -0.000535476 0.00289645)
(-2.84913e-05 0.000455922 0.0035993)
(1.43212e-05 0.000692171 0.00389662)
(-0.000119402 0.000925711 0.00404271)
(-0.000344619 0.00088225 0.00408704)
(-0.000547167 0.00083687 0.00408322)
(-0.000733825 0.000719317 0.00405569)
(-0.000887398 0.000648821 0.00402239)
(-0.000999159 0.000576842 0.00398676)
(-0.00107727 0.00054321 0.00395367)
(-0.00112915 0.000513865 0.00391958)
(-0.0011567 0.000506073 0.00388778)
(-0.00116502 0.000500646 0.00385901)
(-0.00116251 0.00049569 0.00383116)
(-0.00115002 0.00048959 0.00380035)
(-0.00112296 0.000480376 0.00376677)
(-0.00108024 0.000467947 0.00373562)
(-0.00101489 0.000445633 0.00370953)
(-0.000919907 0.000416543 0.00368964)
(-0.000782268 0.000369436 0.00367352)
(-0.000597021 0.000318363 0.00365944)
(-0.000355928 0.000241248 0.00364219)
(-5.74722e-05 0.00019834 0.00361501)
(0.000301412 0.000157256 0.00356491)
(0.000725789 0.000204138 0.00347457)
(0.0011693 0.000276564 0.00333043)
(0.001601 0.000474702 0.00312055)
(0.00206158 0.000634797 0.00290873)
(0.00260344 0.000865631 0.00276749)
(0.00335228 0.000972096 0.00283874)
(0.00428605 0.00111844 0.00298947)
(0.00478433 0.000956961 0.00306895)
(0.00431157 0.00124037 0.00268711)
(0.00459678 0.00239513 0.00243112)
(0.00587418 0.00369379 0.00493763)
(0.00699085 -0.000478485 0.00979399)
(0.0244177 -0.0257685 0.00489553)
(0.0499683 -0.0414631 2.62837e-05)
(0.0455185 -0.0314025 0.00363571)
(0.0349813 -0.0114949 0.0275013)
(0.0509016 -0.00975482 0.050901)
(0.068297 -0.0120788 0.0673478)
(0.0631882 0.0504163 0.0956723)
(0.0618641 -0.00592201 0.0965205)
(0.0315067 0.170591 0.139035)
(0.0879925 -0.285517 0.170866)
(-0.0512106 0.351198 0.0389751)
(-0.00880295 -0.286542 0.024011)
(0.00540364 -0.163103 0.122772)
(-0.0244151 0.15185 -0.0214282)
(-0.0491297 0.0191803 0.0140981)
(-0.0640282 0.108736 -0.00800123)
(-0.0431943 0.0810043 0.0141681)
(-0.0209368 0.0923531 0.023407)
(0.00191727 0.0691975 0.0227274)
(0.0276814 0.0723915 0.0115027)
(0.0540046 0.0788756 0.0188235)
(0.0779668 0.100717 0.0244211)
(0.103484 0.130614 0.0244879)
(0.11171 0.149989 0.0222736)
(0.111524 0.156033 0.0225943)
(0.0980329 0.154754 0.0296707)
(0.0855193 0.139505 0.0349954)
(0.0719221 0.117701 0.0329239)
(0.0545012 0.084416 0.0346667)
(0.0259816 0.0392115 0.0272552)
(-0.00441433 0.00778819 0.0264484)
(-0.0341785 -0.0273165 0.0263341)
(-0.066434 -0.0460033 0.0190631)
(-0.0823693 -0.0459453 0.0119078)
(-0.0837443 -0.0275607 0.00533706)
(-0.0930193 0.0064312 0.00440619)
(-0.0968159 0.0322512 0.0130751)
(-0.0829946 0.0351896 0.017527)
(-0.0688363 0.0363148 0.0241176)
(-0.0573053 0.0386339 0.0187586)
(-0.0492218 0.0475864 0.00512654)
(-0.04262 0.0524728 0.00420077)
(-0.0372925 0.0541814 0.0110602)
(-0.0288716 0.0536691 0.0170913)
(-0.0161683 0.0446298 0.0260505)
(-0.00838329 0.0322908 0.0319915)
(-0.00457658 0.0262829 0.0316656)
(-0.0199256 -0.0010548 0.0151595)
(0.0310103 0.0320725 0.00661665)
(0.0453312 0.0341618 0.00902655)
(0.0182492 0.0139875 0.00627058)
(0.0302872 0.024143 0.0104879)
(0.01132 0.00156091 0.007059)
(0.0149539 0.00965878 0.00791545)
(0.00664191 -0.00276771 0.0027751)
(0.00378852 0.00400599 -9.6184e-05)
(-0.0012863 -0.000514237 0.000559147)
(-0.00265107 0.00250742 0.00151209)
(-0.00268465 -0.00161302 0.00157471)
(-0.00358357 -0.00183094 0.0021353)
(-0.00360106 -0.00202169 0.00279341)
(-0.00315923 -0.000753434 0.00342745)
(-0.00301719 -0.000205094 0.00377039)
(-0.00307442 0.000342198 0.00392788)
(-0.00326504 0.000552512 0.00393625)
(-0.00349471 0.000736616 0.00388777)
(-0.00373093 0.000801515 0.00381435)
(-0.00391731 0.000868262 0.00368945)
(-0.00405016 0.000897581 0.0035604)
(-0.00413549 0.000937493 0.00344688)
(-0.00417852 0.00096239 0.0033491)
(-0.00418739 0.000989524 0.00327224)
(-0.00417136 0.00100428 0.00320932)
(-0.00413391 0.00101583 0.00315914)
(-0.00407586 0.0010227 0.00311617)
(-0.00399309 0.00102535 0.00307471)
(-0.00388785 0.00102561 0.00303745)
(-0.00375789 0.00102262 0.00300903)
(-0.00360816 0.00102302 0.00299193)
(-0.00342216 0.00101994 0.00298541)
(-0.00319762 0.00102761 0.00299047)
(-0.0029155 0.00103143 0.00300753)
(-0.00258258 0.00107423 0.003034)
(-0.00219026 0.00112959 0.00306522)
(-0.00173951 0.00125656 0.00309627)
(-0.00122754 0.0013562 0.00310826)
(-0.000662107 0.00148836 0.00306241)
(-3.99725e-05 0.00151134 0.0029526)
(0.000694537 0.00149912 0.00274466)
(0.00156273 0.00136383 0.0024919)
(0.00251631 0.00154399 0.00212958)
(0.00315369 0.00159774 0.00165518)
(0.00310517 0.00211392 0.00081773)
(0.00378347 0.00157907 0.00101403)
(0.00686215 -0.0018195 0.00518292)
(0.0142324 -0.0172492 0.00952823)
(0.0337513 -0.0399121 0.00461001)
(0.0436806 -0.0274957 0.00581672)
(0.0378789 0.00423131 0.0255437)
(0.0227734 0.0163204 0.059347)
(0.00185945 0.0265021 0.0699099)
(-0.0126479 0.0733676 0.0806619)
(0.0004331 0.0971494 0.101207)
(0.0305103 0.0415793 0.127976)
(0.0828019 0.169914 0.21264)
(0.079069 -0.258944 0.235984)
(-0.0337717 0.240723 0.0527345)
(-0.0197891 -0.245659 0.0218297)
(-0.050082 -0.205891 0.137902)
(-0.0607354 0.1388 -0.0312061)
(-0.0762546 0.0208767 0.00886763)
(-0.0737554 0.0955181 -0.00112654)
(-0.0632871 0.0489808 0.0220064)
(-0.0340121 0.0306059 0.00443169)
(-0.0130789 0.00325797 -0.00342221)
(0.0121555 0.00752891 -0.0178708)
(0.0259333 0.0236601 -0.0130036)
(0.0458727 0.045175 0.0121594)
(0.0578115 0.0643707 0.0231721)
(0.079261 0.114486 0.0305425)
(0.0901192 0.142283 0.0320044)
(0.0901614 0.155327 0.0326024)
(0.0753179 0.155425 0.0405026)
(0.0661151 0.146544 0.0403871)
(0.0499835 0.133438 0.044165)
(0.0236104 0.116851 0.0438399)
(-0.00473544 0.0842176 0.0419741)
(-0.0307404 0.0706228 0.049458)
(-0.0529723 0.0467655 0.0447341)
(-0.079668 0.0338673 0.0253898)
(-0.101136 0.0446716 0.0106408)
(-0.10961 0.0529401 0.00718914)
(-0.0972875 0.0562242 0.00281674)
(-0.0783373 0.0482656 0.0104172)
(-0.0647026 0.0486691 0.0143879)
(-0.0506085 0.0529638 0.00111575)
(-0.0380145 0.0496647 -0.000926614)
(-0.0256149 0.0443925 0.00242565)
(-0.0197994 0.0411553 0.00153221)
(-0.0187002 0.0472095 -0.00933794)
(-0.0204868 0.0554103 -0.0203731)
(-0.0189186 0.0602569 -0.0230527)
(-0.0132592 0.0509346 -0.00572334)
(-0.0165677 0.0169257 0.010828)
(0.0305906 0.0286739 0.0024911)
(0.0449715 0.0388986 0.00907345)
(0.0114038 0.0166664 0.00629226)
(0.0273456 0.0282887 0.0132946)
(0.00623869 0.00254004 0.00875157)
(0.0105392 0.0132528 0.0105185)
(0.00149483 -0.00425791 0.00684215)
(0.00117484 0.00468199 0.00280282)
(-0.00277463 -0.0011092 0.00184495)
(-0.00342467 0.00356418 0.00319778)
(-0.00327929 -0.000839878 0.00363643)
(-0.00464164 -0.00136092 0.00386772)
(-0.00492699 -0.00217485 0.00419393)
(-0.00433198 -0.00132288 0.00464405)
(-0.00388646 -0.000924426 0.00502727)
(-0.00375699 -0.000312222 0.00523624)
(-0.00379281 0.000114948 0.0052785)
(-0.00382657 0.000532988 0.00523318)
(-0.00385346 0.000798421 0.00512972)
(-0.00384621 0.00100849 0.0050543)
(-0.00380595 0.00113968 0.00498436)
(-0.00373793 0.00124591 0.00493272)
(-0.00364468 0.00131647 0.00489582)
(-0.00352903 0.00138164 0.0048771)
(-0.0034019 0.00143647 0.00486868)
(-0.00326959 0.00149219 0.00486803)
(-0.00313792 0.00154649 0.00486731)
(-0.0030018 0.00159303 0.00485951)
(-0.00286441 0.00162691 0.00484591)
(-0.00271174 0.00164813 0.00483679)
(-0.00254317 0.00166941 0.00483783)
(-0.00233857 0.00169407 0.00485345)
(-0.00209435 0.00175184 0.00488901)
(-0.00179415 0.00182872 0.00494322)
(-0.00144265 0.00196949 0.00501917)
(-0.00102362 0.00214478 0.0051089)
(-0.00054268 0.00240696 0.00520127)
(1.19524e-05 0.00265004 0.00526276)
(0.000672301 0.00289061 0.00523595)
(0.00136692 0.0029497 0.00500934)
(0.00204824 0.00298802 0.00450305)
(0.00256198 0.0028426 0.003659)
(0.00312749 0.00313081 0.00250865)
(0.0036524 0.00318957 0.0011858)
(0.00406336 0.00358189 0.000127695)
(0.00677259 0.00173133 0.000726347)
(0.013454 -0.0038492 0.00539708)
(0.0179469 -0.0239571 0.00492307)
(0.0159953 -0.00769107 0.00922208)
(-0.00423098 0.0403233 0.0314474)
(-0.0171021 0.0559747 0.0647697)
(-0.0383332 0.0735005 0.0726685)
(-0.0531438 0.0765206 0.0724491)
(-0.0494178 0.0849107 0.0840005)
(-0.0403121 0.0966543 0.104779)
(0.00348482 0.0242467 0.123699)
(0.131321 0.192972 0.197085)
(0.125588 -0.256676 0.215442)
(-0.116045 0.339427 -0.0217564)
(-0.0231572 -0.268548 0.0291029)
(-0.0779002 -0.207216 0.135881)
(-0.0982942 0.154513 -0.0519539)
(-0.0920226 0.00991507 0.00874635)
(-0.0699748 0.0776946 -0.00600931)
(-0.0481837 0.0116544 0.0185832)
(0.00650216 0.0172089 0.00743568)
(0.0126502 -0.0143576 -0.00574225)
(0.0144762 -0.00357393 -0.02591)
(0.0248143 0.0132828 -0.0392941)
(0.0425391 0.0287538 -0.0205905)
(0.0545347 0.0245672 -0.004523)
(0.0594593 0.0341601 0.0121962)
(0.0664207 0.048977 0.030464)
(0.0743438 0.0924128 0.0373079)
(0.0752229 0.121622 0.0397849)
(0.0663271 0.133167 0.0452936)
(0.0558124 0.131681 0.0474688)
(0.0392699 0.126609 0.0488331)
(0.0138721 0.108733 0.0424795)
(-0.0275269 0.0965498 0.0310853)
(-0.0723901 0.0927972 0.0134537)
(-0.0939109 0.101006 -0.00248402)
(-0.0995598 0.104547 -0.00776434)
(-0.0882308 0.0973287 -0.0129063)
(-0.07377 0.0731944 -0.00559726)
(-0.0600736 0.0611591 -0.00141827)
(-0.0510333 0.0505687 -0.00424716)
(-0.0310167 0.0325236 -0.015464)
(-0.0137423 0.0231318 -0.0129366)
(-0.00719774 0.0141384 -0.0113939)
(-0.0155038 0.0117039 -0.0248387)
(-0.0263507 0.0286075 -0.040254)
(-0.0151642 0.0453787 -0.0481124)
(-0.00570963 0.0602616 -0.048222)
(0.0032894 0.0595117 -0.0375226)
(0.0118956 0.0130921 -0.0162996)
(0.00903237 0.0306825 -0.0107132)
(0.0444344 0.0403965 0.0117444)
(0.00273548 0.0152721 0.00652949)
(0.0241474 0.0310117 0.0134441)
(-0.00195022 0.00443325 0.00717621)
(0.00411021 0.0186261 0.00971948)
(-0.00438171 -0.00294086 0.00550489)
(-0.00360922 0.00797506 0.00145559)
(-0.00560939 -0.000269576 -0.00050833)
(-0.00618177 0.00497823 0.000482373)
(-0.00532604 0.000362071 0.00128442)
(-0.00761377 2.07409e-05 0.00104368)
(-0.00859677 -0.00186398 0.000724041)
(-0.007977 -0.00166784 0.000963642)
(-0.00761096 -0.00142377 0.00131502)
(-0.00753593 -0.00074007 0.00161926)
(-0.0076136 -0.000157344 0.00179804)
(-0.00771275 0.000401806 0.00188169)
(-0.00781337 0.000787648 0.00191737)
(-0.00789457 0.00109729 0.00192755)
(-0.00795363 0.00129858 0.00192061)
(-0.00798981 0.00145841 0.00191157)
(-0.00800813 0.00156357 0.00190307)
(-0.00800987 0.00165647 0.00190355)
(-0.00799735 0.00172971 0.00190791)
(-0.00796478 0.00179422 0.00191657)
(-0.007898 0.00184449 0.00192652)
(-0.00776557 0.00187446 0.00194212)
(-0.00758183 0.00189896 0.0019725)
(-0.00736965 0.00192597 0.00200732)
(-0.00714326 0.00195727 0.00204565)
(-0.00689158 0.00199255 0.00208806)
(-0.00661388 0.00205915 0.00214053)
(-0.00630736 0.00215622 0.00220418)
(-0.00598875 0.00233522 0.00228837)
(-0.00562478 0.00257636 0.00239032)
(-0.00518605 0.00294096 0.00248565)
(-0.00464979 0.00335013 0.00251279)
(-0.00400943 0.00387884 0.00237093)
(-0.0033143 0.004358 0.00192242)
(-0.00262124 0.00486992 0.00102138)
(-0.00196887 0.00511311 -0.000348109)
(-0.00093867 0.00524307 -0.00207211)
(0.000443177 0.00499918 -0.00363146)
(0.00227115 0.00523945 -0.00461045)
(0.00756933 0.00353553 -0.00293455)
(0.0158232 -0.0014933 0.00245898)
(0.00407952 -0.0190251 0.00026549)
(-0.022264 -0.00204847 0.0102861)
(-0.0348128 0.039066 0.0315579)
(-0.0588078 0.0408176 0.0519667)
(-0.0657606 0.0492468 0.0579392)
(-0.0815659 0.0444851 0.0506316)
(-0.0843101 0.0270509 0.0479228)
(-0.0636117 0.0524821 0.0774136)
(-0.0471033 -0.101441 0.0708456)
(0.0988347 0.0358168 0.0757739)
(0.0393659 -0.129066 0.0534286)
(0.028662 0.350511 -0.072806)
(-0.0252197 -0.252294 0.0296287)
(-0.116882 -0.225165 0.118566)
(-0.125869 0.162951 -0.0489836)
(-0.113842 -0.0302446 0.0096142)
(-0.0634485 0.0649535 0.00179473)
(-0.0528598 -0.0408709 0.0370292)
(-0.0015981 -0.0071597 0.0246403)
(0.0129344 -0.0215906 0.0138655)
(0.00873278 -0.0144349 0.000802987)
(0.00659426 -0.0047326 -0.0302849)
(0.0332356 0.0112177 -0.0113749)
(0.0573934 0.0153509 -0.00925131)
(0.0661147 0.0155801 -0.00997085)
(0.0636015 0.00791155 -0.00867909)
(0.0492132 0.0196973 -0.00844207)