/*--------------------------------*- C++ -*----------------------------------*\
| =========                 |                                                 |
| \\      /  F ield         | OpenFOAM: The Open Source CFD Toolbox           |
|  \\    /   O peration     | Version:  2.3.0                                 |
|   \\  /    A nd           | Web:      www.OpenFOAM.org                      |
|    \\/     M anipulation  |                                                 |
\*---------------------------------------------------------------------------*/
FoamFile
{
    version     2.0;
    format      ascii;
    class       volScalarField;
    location    "34";
    object      alpha.water;
}
// * * * * * * * * * * * * * * * * * * * * * * * * * * * * * * * * * * * * * //

dimensions      [0 0 0 0 0 0 0];

internalField   nonuniform List<scalar> 
6144
(
4.44171e-06
5.24617e-06
5.84937e-06
6.42826e-06
6.94829e-06
7.59483e-06
8.29645e-06
9.11672e-06
9.73523e-06
9.94366e-06
9.97428e-06
9.98173e-06
9.98502e-06
9.98797e-06
9.98857e-06
9.98955e-06
9.9885e-06
9.98896e-06
9.98842e-06
9.98854e-06
9.98813e-06
9.98803e-06
9.98775e-06
9.98754e-06
9.98725e-06
9.98707e-06
9.98687e-06
9.98675e-06
9.98651e-06
9.98621e-06
9.98576e-06
9.98531e-06
9.9847e-06
9.98409e-06
9.98335e-06
9.98291e-06
9.98246e-06
9.98221e-06
9.98169e-06
9.98105e-06
9.98087e-06
9.98087e-06
9.98087e-06
1.00542e-05
1.1004e-05
1.53879e-05
3.10675e-05
5.85584e-05
7.60959e-05
7.74334e-05
6.71274e-05
6.60704e-05
7.0194e-05
8.12259e-05
9.22021e-05
0.000107872
0.000111224
0.00011543
0.00128848
0.0711356
0.952782
0.999641
0.999999
0.999999
0.999999
0.999999
0.999999
0.999999
0.999999
0.999999
0.999999
0.999999
0.999999
0.999999
0.999999
0.999999
0.999999
0.999999
0.999999
0.999999
0.999999
0.999999
0.999999
0.999999
0.999999
1
1
1
1
1
1
1
1
1
1
1
4.10515e-06
5.10001e-06
6.20923e-06
6.82725e-06
7.44076e-06
7.94997e-06
8.48894e-06
9.15049e-06
9.74679e-06
9.94247e-06
9.97333e-06
9.983e-06
9.98829e-06
9.99475e-06
9.99718e-06
9.9981e-06
9.99731e-06
9.99743e-06
9.99676e-06
9.99662e-06
9.99587e-06
9.99549e-06
9.99504e-06
9.99475e-06
9.99451e-06
9.99444e-06
9.99447e-06
9.99451e-06
9.99444e-06
9.99433e-06
9.99419e-06
9.99402e-06
9.99378e-06
9.99344e-06
9.99309e-06
9.99271e-06
9.99218e-06
9.99147e-06
9.99042e-06
9.98938e-06
9.98783e-06
9.98691e-06
9.98593e-06
1.0058e-05
1.07478e-05
1.46999e-05
2.98794e-05
5.38275e-05
6.57439e-05
5.37658e-05
3.73012e-05
4.03743e-05
4.98411e-05
6.44741e-05
8.0368e-05
9.30448e-05
0.00010098
0.000110543
0.000514042
0.0428418
0.948939
0.999656
0.999999
0.999999
0.999999
0.999999
0.999999
0.999999
0.999999
0.999999
0.999999
0.999999
0.999999
0.999999
0.999999
0.999999
0.999999
0.999999
0.999999
0.999999
0.999999
0.999999
0.999999
0.999999
0.999999
0.999999
0.999999
0.999999
0.999999
1
1
1
1
1
1
1
3.98032e-06
4.83537e-06
6.09193e-06
6.86197e-06
7.58503e-06
8.04391e-06
8.55847e-06
9.08501e-06
9.56369e-06
9.80811e-06
9.89173e-06
9.93997e-06
9.97151e-06
9.98921e-06
9.99577e-06
9.99805e-06
9.99773e-06
9.99792e-06
9.99748e-06
9.99738e-06
9.99672e-06
9.99643e-06
9.99596e-06
9.99562e-06
9.99531e-06
9.99514e-06
9.995e-06
9.9949e-06
9.99476e-06
9.99462e-06
9.99441e-06
9.99418e-06
9.9938e-06
9.99328e-06
9.99249e-06
9.9916e-06
9.99044e-06
9.98926e-06
9.98798e-06
9.98736e-06
9.9871e-06
9.98981e-06
9.99855e-06
1.00939e-05
1.05058e-05
1.23256e-05
2.32331e-05
4.34011e-05
5.22488e-05
3.32645e-05
2.79937e-05
3.77041e-05
6.29754e-05
9.09068e-05
0.000109387
0.000119288
0.000120379
0.000123853
0.000290364
0.0279101
0.964146
0.999843
0.999999
0.999999
0.999999
0.999999
0.999999
0.999999
0.999999
0.999999
0.999999
0.999999
0.999999
0.999999
0.999999
0.999999
0.999999
0.999999
0.999999
0.999999
0.999999
0.999999
0.999999
0.999999
0.999999
0.999999
0.999999
0.999999
0.999999
0.999999
0.999999
1
1
1
1
1
3.9192e-06
4.58254e-06
5.76456e-06
6.53063e-06
7.48575e-06
7.98434e-06
8.48796e-06
8.98169e-06
9.4314e-06
9.709e-06
9.8381e-06
9.91742e-06
9.96213e-06
9.98428e-06
9.99163e-06
9.99414e-06
9.99391e-06
9.99391e-06
9.99359e-06
9.99351e-06
9.99298e-06
9.99251e-06
9.99197e-06
9.99141e-06
9.99093e-06
9.99047e-06
9.99015e-06
9.98979e-06
9.98961e-06
9.98938e-06
9.98932e-06
9.9892e-06
9.98914e-06
9.98889e-06
9.98853e-06
9.98793e-06
9.98734e-06
9.98648e-06
9.98561e-06
9.98539e-06
9.98554e-06
9.98914e-06
1.00019e-05
1.00918e-05
1.03449e-05
1.09919e-05
1.51482e-05
2.80399e-05
3.1398e-05
1.94492e-05
2.58152e-05
5.94521e-05
9.99792e-05
0.000122256
0.000126438
0.000129461
0.000128001
0.000129194
0.000162008
0.0303186
0.984292
0.999967
0.999999
0.999999
0.999999
0.999999
0.999999
0.999999
0.999999
0.999999
0.999999
0.999999
0.999999
0.999999
0.999999
0.999999
0.999999
0.999999
0.999999
0.999999
0.999999
0.999999
0.999999
0.999999
0.999999
0.999999
0.999999
0.999999
0.999999
0.999999
0.999999
0.999999
0.999999
1
1
1
3.84147e-06
4.38329e-06
5.36125e-06
6.03929e-06
7.20373e-06
7.89825e-06
8.44136e-06
8.91636e-06
9.32536e-06
9.62118e-06
9.79541e-06
9.90754e-06
9.96332e-06
9.98714e-06
9.99473e-06
9.99712e-06
9.99719e-06
9.99758e-06
9.99741e-06
9.9976e-06
9.99723e-06
9.99703e-06
9.99652e-06
9.99608e-06
9.99548e-06
9.99502e-06
9.99446e-06
9.994e-06
9.99343e-06
9.99297e-06
9.9924e-06
9.99185e-06
9.99119e-06
9.99057e-06
9.9898e-06
9.98908e-06
9.98827e-06
9.98743e-06
9.98638e-06
9.98555e-06
9.98509e-06
9.98982e-06
1.00103e-05
1.00909e-05
1.02504e-05
1.054e-05
1.1413e-05
1.52153e-05
1.4885e-05
1.43122e-05
4.26665e-05
9.69704e-05
0.000127644
0.000130941
0.000126648
0.000125606
0.000124134
0.000129431
0.000114527
0.0741
0.991747
0.999956
0.999974
0.999984
0.999986
0.999986
0.999984
0.999983
0.999981
0.99998
0.999979
0.999979
0.999979
0.999979
0.999982
0.999985
0.99999
0.999994
0.999996
0.999998
0.999999
0.999999
0.999999
0.999999
1
1
1
1
1
1
1
0.999999
1
1
1
1
3.71078e-06
4.21316e-06
4.93266e-06
5.4769e-06
6.74832e-06
7.64315e-06
8.33272e-06
8.83347e-06
9.23029e-06
9.5436e-06
9.74954e-06
9.89467e-06
9.95908e-06
9.98213e-06
9.98839e-06
9.99069e-06
9.99065e-06
9.99065e-06
9.99062e-06
9.9907e-06
9.9908e-06
9.99083e-06
9.99071e-06
9.9905e-06
9.99018e-06
9.98985e-06
9.98952e-06
9.98914e-06
9.9888e-06
9.9884e-06
9.988e-06
9.98748e-06
9.98697e-06
9.9864e-06
9.98584e-06
9.98524e-06
9.98467e-06
9.98397e-06
9.98372e-06
9.98372e-06
9.98372e-06
9.98396e-06
1.00117e-05
1.00853e-05
1.02368e-05
1.04527e-05
1.07693e-05
1.1104e-05
1.11962e-05
1.43729e-05
7.35106e-05
0.000125803
0.000134533
0.000124301
0.000119376
0.000119787
0.000117069
0.000118242
0.000114527
0.176421
0.993288
0.998862
0.999032
0.999226
0.999276
0.99929
0.999222
0.999159
0.999076
0.998994
0.998924
0.998881
0.998858
0.998853
0.998918
0.99904
0.999209
0.999391
0.99955
0.999659
0.999717
0.999758
0.999809
0.999855
0.999871
0.999862
0.999854
0.999846
0.999885
0.999902
0.99994
0.99997
0.999989
0.999998
1
1
3.53896e-06
4.04979e-06
4.574e-06
4.97857e-06
6.29392e-06
7.2759e-06
8.11592e-06
8.75653e-06
9.17695e-06
9.48352e-06
9.70932e-06
9.88431e-06
9.95978e-06
9.98572e-06
9.99285e-06
9.99578e-06
9.99553e-06
9.99563e-06
9.99521e-06
9.99476e-06
9.99404e-06
9.99366e-06
9.99322e-06
9.99286e-06
9.99235e-06
9.99184e-06
9.99128e-06
9.9908e-06
9.99039e-06
9.99004e-06
9.98962e-06
9.98912e-06
9.98849e-06
9.9878e-06
9.98708e-06
9.98637e-06
9.9857e-06
9.98504e-06
9.98476e-06
9.9849e-06
9.98519e-06
9.9875e-06
1.00178e-05
1.0088e-05
1.02426e-05
1.07073e-05
1.18267e-05
1.27823e-05
1.28664e-05
2.01197e-05
9.46979e-05
0.000133121
0.000131834
0.000121648
0.00011939
0.000118951
0.000117071
0.000117231
0.000114527
0.255443
0.984902
0.992958
0.993036
0.993486
0.993618
0.993758
0.993772
0.99358
0.993294
0.992903
0.992475
0.992137
0.991939
0.991852
0.991932
0.992597
0.993329
0.994263
0.995256
0.996375
0.997516
0.998248
0.998365
0.998367
0.998049
0.997801
0.997566
0.997402
0.997488
0.997561
0.998107
0.998604
0.999095
0.999558
0.999858
1
3.29226e-06
3.89659e-06
4.36019e-06
4.66798e-06
5.90395e-06
6.91566e-06
7.83006e-06
8.61413e-06
9.11143e-06
9.44742e-06
9.67703e-06
9.87265e-06
9.95621e-06
9.98433e-06
9.99191e-06
9.99574e-06
9.99545e-06
9.99557e-06
9.99516e-06
9.99498e-06
9.99513e-06
9.99518e-06
9.99518e-06
9.99523e-06
9.99529e-06
9.99528e-06
9.99514e-06
9.99492e-06
9.99476e-06
9.99458e-06
9.99426e-06
9.99384e-06
9.99331e-06
9.99274e-06
9.9922e-06
9.99175e-06
9.99137e-06
9.99087e-06
9.9905e-06
9.99081e-06
9.99216e-06
9.9989e-06
1.00231e-05
1.00892e-05
1.02972e-05
1.11165e-05
1.36035e-05
1.72899e-05
1.81148e-05
2.69159e-05
9.39725e-05
0.000131157
0.000131496
0.000121479
0.00012041
0.0001199
0.000119492
0.00012112
0.000114527
0.365525
0.977229
0.983457
0.982898
0.98275
0.982744
0.982757
0.98265
0.9823
0.98193
0.981576
0.981315
0.981167
0.98117
0.981717
0.982308
0.982771
0.983114
0.983254
0.983286
0.983191
0.982876
0.982347
0.981534
0.980358
0.979093
0.977797
0.976749
0.975761
0.975104
0.974866
0.974743
0.975288
0.975719
0.977345
0.979572
0.982976
2.97778e-06
3.70816e-06
4.18716e-06
4.5195e-06
5.53157e-06
6.52699e-06
7.57821e-06
8.34377e-06
9.0439e-06
9.43832e-06
9.65779e-06
9.85414e-06
9.94588e-06
9.97911e-06
9.98557e-06
9.98977e-06
9.98916e-06
9.98933e-06
9.98886e-06
9.98909e-06
9.98955e-06
9.9899e-06
9.99009e-06
9.99029e-06
9.99045e-06
9.99054e-06
9.9905e-06
9.99036e-06
9.99023e-06
9.99007e-06
9.9898e-06
9.98953e-06
9.98911e-06
9.98862e-06
9.98812e-06
9.98774e-06
9.98772e-06
9.98772e-06
9.98772e-06
9.98772e-06
9.98798e-06
9.99531e-06
1.00174e-05
1.00858e-05
1.03203e-05
1.1434e-05
1.62345e-05
2.35171e-05
2.78271e-05
3.62186e-05
9.9701e-05
0.000129691
0.000124405
0.000121407
0.000121217
0.000121226
0.000120733
0.000122587
0.000114527
0.297687
0.978422
0.986411
0.98649
0.986796
0.987025
0.987129
0.986999
0.986965
0.987039
0.987131
0.987302
0.987555
0.987849
0.988118
0.988213
0.987855
0.987153
0.986282
0.98555
0.984945
0.984404
0.984071
0.984032
0.985143
0.986211
0.987749
0.989328
0.990938
0.992448
0.993652
0.994706
0.995635
0.996602
0.997566
0.998574
0.999333
2.70616e-06
3.36386e-06
3.85558e-06
4.28031e-06
5.26392e-06
6.30717e-06
7.55297e-06
8.21041e-06
8.94271e-06
9.44395e-06
9.66332e-06
9.83929e-06
9.93488e-06
9.97857e-06
9.98864e-06
9.99491e-06
9.99489e-06
9.99505e-06
9.99441e-06
9.99458e-06
9.99457e-06
9.99458e-06
9.99437e-06
9.99418e-06
9.99397e-06
9.99376e-06
9.99348e-06
9.99315e-06
9.99282e-06
9.99244e-06
9.99193e-06
9.99135e-06
9.99057e-06
9.98969e-06
9.98883e-06
9.98804e-06
9.98772e-06
9.98772e-06
9.98772e-06
9.98772e-06
9.98773e-06
9.99072e-06
1.00118e-05
1.0085e-05
1.0415e-05
1.26854e-05
2.09508e-05
3.13806e-05
3.96492e-05
6.07068e-05
0.000119702
0.000125008
0.000121475
0.000120689
0.000121007
0.000122118
0.000119292
0.000124089
0.000114527
0.180696
0.984503
0.995816
0.996347
0.996815
0.996757
0.996699
0.996577
0.996528
0.996584
0.996627
0.996724
0.996885
0.997086
0.997222
0.997262
0.996962
0.99659
0.995996
0.9953
0.994664
0.994293
0.994216
0.995191
0.996328
0.997564
0.998596
0.999271
0.999655
0.999867
0.999948
0.999982
0.999991
0.999995
0.999997
0.999999
0.999999
2.42535e-06
2.95749e-06
3.43954e-06
3.97924e-06
5.14075e-06
6.31283e-06
7.58668e-06
8.36772e-06
8.9716e-06
9.47305e-06
9.68944e-06
9.82469e-06
9.90311e-06
9.94994e-06
9.97061e-06
9.98542e-06
9.9884e-06
9.99005e-06
9.99037e-06
9.99125e-06
9.99182e-06
9.99228e-06
9.9925e-06
9.9927e-06
9.99286e-06
9.99294e-06
9.99294e-06
9.99278e-06
9.99256e-06
9.99224e-06
9.99185e-06
9.99136e-06
9.99067e-06
9.98995e-06
9.98922e-06
9.98857e-06
9.98821e-06
9.9881e-06
9.98808e-06
9.98827e-06
9.98829e-06
9.99037e-06
1.00067e-05
1.01025e-05
1.08061e-05
1.49024e-05
2.54234e-05
3.71261e-05
4.66256e-05
6.01846e-05
0.00011863
0.000121704
0.000120051
0.000119848
0.000121766
0.000125161
0.0001188
0.000126601
0.000114527
0.108732
0.992297
0.999729
0.9998
0.999851
0.999824
0.999809
0.9998
0.999799
0.999805
0.999807
0.99982
0.999832
0.999837
0.999835
0.999809
0.999778
0.999734
0.999674
0.99961
0.999564
0.999548
0.999624
0.999745
0.999851
0.999942
0.999983
0.999996
0.999999
0.999999
0.999999
0.999999
0.999999
0.999999
0.999999
1
1
2.23239e-06
2.56693e-06
2.86905e-06
3.34204e-06
4.64381e-06
6.11836e-06
7.68993e-06
8.66812e-06
9.08132e-06
9.50731e-06
9.68762e-06
9.79861e-06
9.86705e-06
9.93393e-06
9.97117e-06
9.98911e-06
9.98979e-06
9.99069e-06
9.9908e-06
9.99171e-06
9.99234e-06
9.99281e-06
9.99307e-06
9.99332e-06
9.99352e-06
9.99366e-06
9.99372e-06
9.99367e-06
9.99346e-06
9.99332e-06
9.99349e-06
9.99356e-06
9.99328e-06
9.99309e-06
9.99287e-06
9.99274e-06
9.99274e-06
9.99278e-06
9.99299e-06
9.99349e-06
9.99396e-06
9.99622e-06
1.00117e-05
1.01865e-05
1.15077e-05
1.70503e-05
2.81912e-05
4.02537e-05
5.00773e-05
5.73203e-05
0.000114183
0.000122132
0.000118979
0.000118982
0.000118679
0.000124922
0.000118557
0.000127678
0.000114527
0.0683502
0.988974
0.999998
0.999999
0.999999
0.999999
0.999999
0.999999
0.999999
0.999999
0.999999
0.999998
0.999998
0.999999
0.999999
0.999998
0.999998
0.999997
0.999996
0.999995
0.999995
0.999996
0.999997
0.999998
0.999999
0.999999
1
1
0.999999
0.999999
0.999999
0.999999
0.999999
0.999999
0.999999
1
1
2.07637e-06
2.31569e-06
2.40949e-06
2.69029e-06
3.7215e-06
5.20334e-06
7.20172e-06
8.63091e-06
9.204e-06
9.54795e-06
9.70971e-06
9.82583e-06
9.89637e-06
9.9596e-06
9.99739e-06
1.00069e-05
1.00021e-05
9.99747e-06
9.99573e-06
9.99585e-06
9.99616e-06
9.99645e-06
9.99662e-06
9.99675e-06
9.9968e-06
9.9968e-06
9.99667e-06
9.99643e-06
9.99605e-06
9.99574e-06
9.99572e-06
9.99562e-06
9.99509e-06
9.99477e-06
9.99444e-06
9.9941e-06
9.99378e-06
9.99352e-06
9.99333e-06
9.99385e-06
9.99545e-06
1.00007e-05
1.00208e-05
1.02739e-05
1.20404e-05
1.84451e-05
3.02329e-05
4.31524e-05
5.522e-05
6.67117e-05
9.96042e-05
0.000120893
0.000120006
0.000118679
0.000118679
0.000121341
0.000119023
0.000125932
0.000124515
0.0333389
0.960049
0.999999
0.999999
0.999999
0.999999
0.999999
0.999999
0.999999
0.999999
0.999999
0.999999
0.999999
0.999999
0.999999
0.999999
0.999999
0.999999
0.999999
0.999999
0.999999
0.999999
0.999999
0.999999
0.999999
0.999999
0.999999
0.999999
0.999999
0.999999
0.999999
0.999999
0.999999
0.999999
0.999999
0.999999
1
2.0281e-06
2.23625e-06
2.20376e-06
2.33369e-06
2.92924e-06
4.15478e-06
6.24569e-06
8.33391e-06
9.33486e-06
9.59757e-06
9.73512e-06
9.82396e-06
9.88461e-06
9.95025e-06
9.99799e-06
1.00069e-05
1.00069e-05
1.00053e-05
1.00026e-05
1.00016e-05
1.00013e-05
1.00011e-05
1.00009e-05
1.00008e-05
1.00006e-05
1.00003e-05
9.99989e-06
9.9994e-06
9.99883e-06
9.9983e-06
9.99791e-06
9.99753e-06
9.9967e-06
9.99616e-06
9.99574e-06
9.99524e-06
9.99476e-06
9.99445e-06
9.99432e-06
9.99528e-06
9.99822e-06
1.00041e-05
1.00236e-05
1.03104e-05
1.23911e-05
2.003e-05
3.38443e-05
4.81321e-05
5.99858e-05
7.05035e-05
8.40033e-05
0.000112325
0.000118887
0.000120183
0.0001206
0.000122692
0.000121848
0.000127623
0.000271919
0.0411443
0.962984
0.99999
0.999999
0.999999
0.999999
0.999999
0.999999
0.999999
0.999999
0.999999
0.999999
0.999999
0.999999
0.999999
0.999999
0.999999
0.999999
0.999999
0.999999
0.999999
0.999999
0.999999
0.999999
0.999999
0.999999
0.999999
0.999999
0.999999
0.999999
0.999999
0.999999
0.999999
0.999999
0.999999
0.999999
1
2.08827e-06
2.5131e-06
2.5616e-06
2.58651e-06
2.55665e-06
3.59386e-06
5.26402e-06
7.78923e-06
9.31258e-06
9.60545e-06
9.72393e-06
9.78217e-06
9.84182e-06
9.91966e-06
9.98764e-06
1.0005e-05
1.00056e-05
1.00045e-05
1.00019e-05
1.00006e-05
1e-05
9.99975e-06
9.9995e-06
9.99921e-06
9.99893e-06
9.99863e-06
9.99826e-06
9.9978e-06
9.9973e-06
9.99683e-06
9.99645e-06
9.99614e-06
9.99567e-06
9.99522e-06
9.99486e-06
9.99445e-06
9.99407e-06
9.99393e-06
9.99402e-06
9.99521e-06
9.99801e-06
1.00035e-05
1.00279e-05
1.03951e-05
1.2994e-05
2.2337e-05
3.8532e-05
5.3414e-05
6.38969e-05
7.23992e-05
8.16246e-05
9.75329e-05
0.000112144
0.000118146
0.000119275
0.000120757
0.000121453
0.000126461
0.000745043
0.0303446
0.940885
0.999722
0.999999
0.999999
0.999999
0.999999
0.999999
0.999999
0.999999
0.999999
0.999999
0.999999
0.999999
0.999999
0.999999
0.999999
0.999999
0.999999
0.999999
0.999999
0.999999
0.999999
0.999999
0.999999
0.999999
0.999999
0.999999
0.999999
0.999999
0.999999
0.999999
0.999999
0.999999
0.999999
0.999999
1
1.75717e-06
1.91791e-06
2.68556e-06
3.12553e-06
3.25244e-06
3.70149e-06
5.12916e-06
7.48438e-06
9.29558e-06
9.61383e-06
9.71285e-06
9.78197e-06
9.84206e-06
9.91739e-06
9.99664e-06
1.0011e-05
1.0011e-05
1.0011e-05
1.00104e-05
1.00089e-05
1.00079e-05
1.00073e-05
1.00068e-05
1.00064e-05
1.00061e-05
1.00058e-05
1.00054e-05
1.00049e-05
1.00045e-05
1.0004e-05
1.00037e-05
1.00033e-05
1.0003e-05
1.00026e-05
1.00023e-05
1.00019e-05
1.00016e-05
1.00015e-05
1.00018e-05
1.0003e-05
1.00054e-05
1.0011e-05
1.00412e-05
1.04136e-05
1.26461e-05
1.98276e-05
3.33077e-05
5.01935e-05
6.56843e-05
7.67701e-05
8.55718e-05
9.53445e-05
0.000105321
0.000113172
0.000115257
0.000117783
0.000121762
0.000127748
0.00153825
0.0441008
0.927055
0.999018
0.999996
0.999999
0.999999
0.999999
0.999999
0.999999
0.999999
0.999999
0.999999
0.999999
0.999999
0.999999
0.999999
0.999999
0.999999
0.999999
0.999999
0.999999
0.999999
0.999999
0.999999
0.999999
0.999999
0.999999
0.999999
0.999999
0.999999
0.999999
0.999999
0.999999
0.999999
0.999999
1
1
3.7248e-06
4.94206e-06
5.84446e-06
6.43652e-06
6.91115e-06
7.59746e-06
8.52574e-06
9.31461e-06
9.72194e-06
9.83666e-06
9.89495e-06
9.94337e-06
9.98232e-06
1.0005e-05
1.00108e-05
1.00108e-05
1.00108e-05
1.00108e-05
1.00105e-05
1.00096e-05
1.00083e-05
1.00077e-05
1.00072e-05
1.00069e-05
1.0007e-05
1.0007e-05
1.00069e-05
1.00069e-05
1.00069e-05
1.00069e-05
1.00069e-05
1.00069e-05
1.00069e-05
1.00068e-05
1.00065e-05
1.00062e-05
1.00057e-05
1.00051e-05
1.00042e-05
1.00033e-05
1.00025e-05
1.00041e-05
1.00109e-05
1.00932e-05
1.11453e-05
1.67923e-05
3.52292e-05
6.1547e-05
7.62287e-05
7.79279e-05
7.25426e-05
7.198e-05
7.54619e-05
8.65233e-05
9.36994e-05
0.000108267
0.000107465
0.000173952
0.00097674
0.0397298
0.936949
0.999566
0.999999
0.999999
0.999999
0.999999
0.999999
0.999999
0.999999
0.999999
0.999999
0.999999
0.999999
0.999999
0.999999
0.999999
0.999999
0.999999
0.999999
0.999999
0.999999
0.999999
0.999999
1
1
1
1
1
1
1
1
0.999999
0.999999
0.999999
1
1
3.06353e-06
4.36036e-06
6.36954e-06
6.9834e-06
7.56997e-06
8.25985e-06
8.80555e-06
9.1604e-06
9.40055e-06
9.58163e-06
9.73504e-06
9.85795e-06
9.93976e-06
9.98491e-06
1.00023e-05
1.00085e-05
1.00084e-05
1.00088e-05
1.00084e-05
1.00087e-05
1.00086e-05
1.00084e-05
1.0008e-05
1.00077e-05
1.00073e-05
1.00069e-05
1.00063e-05
1.00058e-05
1.00055e-05
1.00051e-05
1.00046e-05
1.00041e-05
1.00036e-05
1.0003e-05
1.00022e-05
1.00014e-05
1.00006e-05
9.99975e-06
9.99916e-06
9.99926e-06
1.00019e-05
1.00113e-05
1.00325e-05
1.01564e-05
1.08292e-05
1.50824e-05
3.26749e-05
5.81122e-05
6.90935e-05
6.28206e-05
5.01974e-05
5.04006e-05
5.54652e-05
6.87295e-05
7.60285e-05
8.90944e-05
9.42938e-05
0.000112192
0.000337327
0.0450311
0.964961
0.999963
0.999999
0.999999
0.999999
0.999999
0.999999
0.999999
0.999999
0.999999
0.999999
0.999999
0.999999
0.999999
0.999999
0.999999
0.999999
0.999999
0.999999
0.999999
0.999999
0.999999
0.999999
0.999999
0.999999
0.999999
0.999999
0.999999
0.999999
1
1
1
0.999999
0.999999
0.999999
1
2.8616e-06
3.59789e-06
5.94217e-06
6.83923e-06
7.50105e-06
8.01027e-06
8.4982e-06
8.86714e-06
9.18921e-06
9.44391e-06
9.65258e-06
9.82291e-06
9.92246e-06
9.97631e-06
9.99705e-06
1.00051e-05
1.00053e-05
1.00056e-05
1.00053e-05
1.00054e-05
1.00049e-05
1.00046e-05
1.00042e-05
1.00037e-05
1.00033e-05
1.00029e-05
1.00025e-05
1.00022e-05
1.00018e-05
1.00014e-05
1.00009e-05
1.00006e-05
1.00001e-05
9.99952e-06
9.99887e-06
9.99825e-06
9.99762e-06
9.99702e-06
9.99669e-06
9.99742e-06
1.0002e-05
1.00136e-05
1.00348e-05
1.01165e-05
1.04202e-05
1.14894e-05
2.00116e-05
4.7042e-05
6.24991e-05
4.7728e-05
3.94861e-05
4.69253e-05
6.56563e-05
8.44057e-05
9.19671e-05
0.000102713
0.000101
0.000108775
0.000184378
0.0592741
0.97894
0.999999
0.999999
0.999999
0.999999
0.999999
0.999999
0.999999
0.999999
0.999999
0.999999
0.999999
0.999999
0.999999
0.999999
0.999999
0.999999
0.999999
0.999999
0.999999
0.999999
0.999999
0.999999
0.999999
0.999999
0.999999
0.999999
0.999999
0.999999
0.999999
0.999999
0.999999
1
0.999999
0.999999
1
2.78523e-06
3.00345e-06
5.19081e-06
6.24697e-06
7.00501e-06
7.58103e-06
8.1866e-06
8.67428e-06
9.09253e-06
9.40048e-06
9.6273e-06
9.81416e-06
9.91762e-06
9.97218e-06
9.99347e-06
1.00026e-05
1.00026e-05
1.00028e-05
1.00023e-05
1.00022e-05
1.00016e-05
1.00012e-05
1.00007e-05
1.00002e-05
9.9998e-06
9.99941e-06
9.99906e-06
9.99874e-06
9.99842e-06
9.99807e-06
9.99769e-06
9.99734e-06
9.9969e-06
9.99641e-06
9.99589e-06
9.99538e-06
9.99486e-06
9.9943e-06
9.99392e-06
9.99479e-06
9.99902e-06
1.00106e-05
1.00303e-05
1.009e-05
1.02715e-05
1.0643e-05
1.32347e-05
3.29138e-05
4.25335e-05
2.81297e-05
3.70282e-05
7.17558e-05
0.000101384
0.000116413
0.000119126
0.000120451
0.000114055
0.000116901
0.000114527
0.0543674
0.980365
0.999999
0.999998
0.999999
0.999999
0.999999
0.999999
0.999999
0.999999
0.999999
0.999999
0.999999
0.999999
0.999999
0.999999
0.999999
0.999999
0.999999
0.999999
0.999999
0.999999
0.999999
0.999999
0.999999
0.999999
0.999999
0.999999
0.999999
0.999999
0.999999
0.999999
0.999999
0.999999
0.999999
1
1
2.68257e-06
2.63254e-06
4.38629e-06
5.64427e-06
6.57936e-06
7.19135e-06
7.90381e-06
8.515e-06
9.02801e-06
9.38134e-06
9.61897e-06
9.81254e-06
9.91668e-06
9.97046e-06
9.99164e-06
1.00013e-05
1.00013e-05
1.00014e-05
1.00009e-05
1.00007e-05
1.00001e-05
9.99956e-06
9.99904e-06
9.99857e-06
9.99812e-06
9.99773e-06
9.99741e-06
9.99712e-06
9.99682e-06
9.9965e-06
9.99618e-06
9.99584e-06
9.99543e-06
9.99497e-06
9.99448e-06
9.99398e-06
9.99347e-06
9.99286e-06
9.99247e-06
9.99352e-06
9.99812e-06
1.00102e-05
1.00324e-05
1.01151e-05
1.04253e-05
1.09523e-05
1.23241e-05
2.10508e-05
1.79561e-05
2.48144e-05
7.32137e-05
0.000114148
0.000128679
0.000128748
0.000128348
0.000128364
0.000122158
0.000124637
0.000114527
0.13543
0.995109
0.999844
0.99989
0.999941
0.999956
0.999969
0.999973
0.999972
0.999971
0.99997
0.999969
0.999969
0.999969
0.999971
0.999971
0.999975
0.99998
0.999985
0.999987
0.999986
0.999988
0.999988
0.999989
0.999988
0.999988
0.99999
0.999989
0.999989
0.999992
0.999993
0.999995
0.999997
0.999998
0.999999
1
1
2.55864e-06
2.36389e-06
3.6605e-06
4.96799e-06
6.19101e-06
6.9007e-06
7.70448e-06
8.40928e-06
8.9899e-06
9.37391e-06
9.61702e-06
9.81643e-06
9.91837e-06
9.96967e-06
9.9904e-06
1.00004e-05
1.00003e-05
1.00002e-05
9.99972e-06
9.99941e-06
9.99875e-06
9.99818e-06
9.99764e-06
9.99717e-06
9.99673e-06
9.99638e-06
9.99609e-06
9.99584e-06
9.99563e-06
9.99538e-06
9.99514e-06
9.99487e-06
9.9945e-06
9.9941e-06
9.99368e-06
9.99323e-06
9.99277e-06
9.99221e-06
9.99189e-06
9.99311e-06
9.998e-06
1.00102e-05
1.00354e-05
1.01791e-05
1.08524e-05
1.22437e-05
1.36672e-05
1.59749e-05
1.6528e-05
5.61365e-05
0.0001214
0.000134305
0.000134075
0.00012595
0.000122014
0.000121987
0.000119355
0.000120124
0.000114527
0.208623
0.985467
0.995489
0.996029
0.996866
0.997347
0.997703
0.997828
0.997679
0.997509
0.997302
0.997093
0.996916
0.996814
0.996798
0.996801
0.997078
0.997325
0.997677
0.998093
0.998353
0.998376
0.998225
0.998011
0.997726
0.9976
0.997569
0.997481
0.997395
0.997333
0.997867
0.998391
0.998918
0.999399
0.999809
0.999981
1
2.45503e-06
2.14261e-06
3.07939e-06
4.26282e-06
5.80246e-06
6.66769e-06
7.58288e-06
8.35635e-06
8.97559e-06
9.37283e-06
9.62241e-06
9.82023e-06
9.92045e-06
9.96944e-06
9.98988e-06
9.9999e-06
9.99988e-06
9.99971e-06
9.99923e-06
9.99889e-06
9.99828e-06
9.99771e-06
9.99717e-06
9.99672e-06
9.99632e-06
9.99599e-06
9.99574e-06
9.99553e-06
9.99536e-06
9.99514e-06
9.99494e-06
9.9947e-06
9.99436e-06
9.99398e-06
9.99359e-06
9.99319e-06
9.99277e-06
9.99234e-06
9.99214e-06
9.99389e-06
9.99988e-06
1.00124e-05
1.0041e-05
1.02527e-05
1.12329e-05
1.332e-05
1.5913e-05
2.13917e-05
2.79561e-05
8.79845e-05
0.000134494
0.000135915
0.000134106
0.000123139
0.000119542
0.000119934
0.000119637
0.00012201
0.000114527
0.404707
0.97382
0.979373
0.979079
0.979402
0.979509
0.979223
0.978642
0.978096
0.977551
0.977195
0.976946
0.976787
0.976659
0.976704
0.97692
0.976882
0.976607
0.976303
0.976406
0.97704
0.977199
0.976642
0.975462
0.974083
0.972636
0.970978
0.969358
0.96787
0.967315
0.967847
0.969214
0.972079
0.976066
0.982594
0.991679
1
2.34413e-06
1.98146e-06
2.64729e-06
3.53531e-06
5.16435e-06
6.40227e-06
7.48234e-06
8.32585e-06
8.97109e-06
9.38185e-06
9.62977e-06
9.82644e-06
9.92404e-06
9.97032e-06
9.98953e-06
9.99934e-06
9.99938e-06
9.99939e-06
9.99912e-06
9.99891e-06
9.99863e-06
9.99827e-06
9.99785e-06
9.99753e-06
9.99722e-06
9.99696e-06
9.99672e-06
9.99648e-06
9.99623e-06
9.99595e-06
9.99571e-06
9.99539e-06
9.99495e-06
9.99447e-06
9.99403e-06
9.9937e-06
9.99339e-06
9.99311e-06
9.993e-06
9.99514e-06
1.00017e-05
1.00142e-05
1.00512e-05
1.03354e-05
1.15659e-05
1.41703e-05
1.77891e-05
2.69974e-05
3.86319e-05
8.48364e-05
0.000135206
0.000135209
0.000131196
0.000123703
0.000119795
0.000120713
0.000119494
0.000129443
0.000114527
0.536392
0.971641
0.974259
0.974283
0.974271
0.974205
0.973525
0.972397
0.97111
0.970117
0.969474
0.969155
0.969026
0.96885
0.968272
0.967023
0.964797
0.96195
0.959494
0.957206
0.954835
0.952567
0.951012
0.950383
0.949692
0.946968
0.943565
0.939989
0.93741
0.932584
0.926285
0.919055
0.910161
0.897916
0.876833
0.827329
0.628253
2.19466e-06
1.86387e-06
2.2934e-06
2.87209e-06
4.37328e-06
5.97135e-06
7.3471e-06
8.30832e-06
8.97996e-06
9.39534e-06
9.64317e-06
9.8365e-06
9.93022e-06
9.97257e-06
9.99184e-06
1.00014e-05
1.00013e-05
1.0001e-05
1.00007e-05
1.00004e-05
9.99992e-06
9.99952e-06
9.99913e-06
9.99882e-06
9.99852e-06
9.99825e-06
9.99802e-06
9.99781e-06
9.99762e-06
9.9974e-06
9.99721e-06
9.99694e-06
9.99658e-06
9.99617e-06
9.99573e-06
9.99533e-06
9.99495e-06
9.99473e-06
9.99464e-06
9.99706e-06
1.0004e-05
1.00178e-05
1.00636e-05
1.0401e-05
1.18102e-05
1.49027e-05
1.99099e-05
3.13265e-05
4.61974e-05
7.02125e-05
0.000127832
0.000131909
0.000125631
0.000123343
0.000125344
0.000131614
0.000128706
0.000136009
0.000114527
0.253326
0.982203
0.99264
0.9933
0.993839
0.994113
0.994288
0.994617
0.994834
0.994989
0.9951
0.995154
0.995106
0.994649
0.994137
0.993426
0.992596
0.991574
0.990293
0.98909
0.988565
0.988601
0.989806
0.990974
0.993211
0.995694
0.997529
0.997724
0.997755
0.997618
0.997434
0.997197
0.996816
0.996035
0.994861
0.993372
0.99265
2.04384e-06
1.754e-06
1.98755e-06
2.3965e-06
3.48161e-06
5.31265e-06
7.13594e-06
8.29478e-06
8.99154e-06
9.41041e-06
9.65941e-06
9.85204e-06
9.93785e-06
9.97423e-06
9.99327e-06
1.00029e-05
1.00028e-05
1.00027e-05
1.00025e-05
1.00022e-05
1.00019e-05
1.00015e-05
1.00011e-05
1.00008e-05
1.00005e-05
1.00002e-05
9.9999e-06
9.99962e-06
9.99936e-06
9.99908e-06
9.99884e-06
9.99852e-06
9.99806e-06
9.99752e-06
9.99691e-06
9.99637e-06
9.99584e-06
9.99563e-06
9.99555e-06
9.99817e-06
1.00048e-05
1.00192e-05
1.00707e-05
1.04388e-05
1.19076e-05
1.52669e-05
2.16422e-05
3.37905e-05
5.018e-05
6.84697e-05
0.000124927
0.000127303
0.000123079
0.000122754
0.000128335
0.000130611
0.000121034
0.00013867
0.000114527
0.156691
0.989653
0.998019
0.998083
0.99816
0.998144
0.998125
0.998212
0.99834
0.998506
0.998732
0.998932
0.999082
0.999138
0.999001
0.998784
0.9985
0.998179
0.997845
0.997584
0.997483
0.997889
0.998463
0.999028
0.999548
0.999865
0.999953
0.999973
0.999988
0.999993
0.999995
0.999997
0.999999
0.999999
0.999999
1
1
1.8921e-06
1.64951e-06
1.74119e-06
2.02373e-06
2.79989e-06
4.59531e-06
6.82626e-06
8.20107e-06
8.99421e-06
9.42007e-06
9.67727e-06
9.86796e-06
9.94357e-06
9.97418e-06
9.9933e-06
1.0003e-05
1.0003e-05
1.0003e-05
1.0003e-05
1.00028e-05
1.00024e-05
1.00021e-05
1.00018e-05
1.00015e-05
1.00012e-05
1.00009e-05
1.00006e-05
1.00004e-05
1.00001e-05
9.99987e-06
9.99965e-06
9.99936e-06
9.99893e-06
9.99845e-06
9.99788e-06
9.99742e-06
9.99708e-06
9.99682e-06
9.99677e-06
9.99929e-06
1.00062e-05
1.00215e-05
1.00788e-05
1.04745e-05
1.20487e-05
1.58767e-05
2.32923e-05
3.60468e-05
5.30743e-05
6.81656e-05
0.000119328
0.000122888
0.000120534
0.000123598
0.000126354
0.000127492
0.00011913
0.000134164
0.000114527
0.0884698
0.99169
0.999803
0.999805
0.999855
0.999854
0.99986
0.999853
0.999862
0.999878
0.999893
0.999905
0.999913
0.999914
0.9999
0.99988
0.999851
0.999819
0.999789
0.999775
0.999777
0.999836
0.999895
0.999949
0.999982
0.999996
0.999999
0.999999
0.999999
0.999999
0.999999
0.999999
0.999999
0.999999
0.999999
1
1
1.79224e-06
1.55802e-06
1.54907e-06
1.70608e-06
2.4309e-06
4.10645e-06
6.41952e-06
8.08357e-06
9.01843e-06
9.44746e-06
9.70426e-06
9.88524e-06
9.94731e-06
9.97433e-06
9.9938e-06
1.00028e-05
1.00028e-05
1.0003e-05
1.00029e-05
1.00026e-05
1.00023e-05
1.0002e-05
1.00017e-05
1.00014e-05
1.00011e-05
1.00009e-05
1.00006e-05
1.00004e-05
1.00001e-05
9.9999e-06
9.99962e-06
9.99927e-06
9.9988e-06
9.99828e-06
9.99767e-06
9.99723e-06
9.997e-06
9.99675e-06
9.99677e-06
9.99937e-06
1.00064e-05
1.00223e-05
1.00825e-05
1.04879e-05
1.21623e-05
1.64368e-05
2.47462e-05
3.81136e-05
5.51345e-05
6.90767e-05
0.000106281
0.000123344
0.000119972
0.000119779
0.000120096
0.000124176
0.000118564
0.000132946
0.000199962
0.0446788
0.961364
0.999999
0.999988
0.999996
0.999997
0.999997
0.999997
0.999997
0.999997
0.999997
0.999997
0.999997
0.999997
0.999996
0.999996
0.999995
0.999995
0.999995
0.999995
0.999996
0.999998
0.999999
0.999999
0.999999
0.999999
0.999999
0.999999
0.999999
0.999999
0.999999
0.999999
0.999999
0.999999
0.999999
0.999999
1
1.7442e-06
1.53695e-06
1.49752e-06
1.49382e-06
1.85543e-06
3.13695e-06
5.52781e-06
7.94203e-06
9.10366e-06
9.49476e-06
9.73865e-06
9.89457e-06
9.94276e-06
9.96248e-06
9.9912e-06
1.00031e-05
1.00031e-05
1.00031e-05
1.00031e-05
1.00028e-05
1.00025e-05
1.00022e-05
1.00019e-05
1.00016e-05
1.00014e-05
1.00011e-05
1.00008e-05
1.00006e-05
1.00003e-05
9.99995e-06
9.99936e-06
9.99876e-06
9.99806e-06
9.99712e-06
9.99627e-06
9.99553e-06
9.99495e-06
9.99478e-06
9.99485e-06
9.99707e-06
1.00043e-05
1.00217e-05
1.00826e-05
1.04902e-05
1.22423e-05
1.69574e-05
2.60891e-05
4.0504e-05
5.7644e-05
7.26841e-05
8.68191e-05
0.000118341
0.000120577
0.000120549
0.000121335
0.000124326
0.000118143
0.00014217
0.000358408
0.0303862
0.945353
0.999999
0.999999
0.999999
0.999999
0.999999
0.999999