/*--------------------------------*- C++ -*----------------------------------*\
| =========                 |                                                 |
| \\      /  F ield         | OpenFOAM: The Open Source CFD Toolbox           |
|  \\    /   O peration     | Version:  2.3.0                                 |
|   \\  /    A nd           | Web:      www.OpenFOAM.org                      |
|    \\/     M anipulation  |                                                 |
\*---------------------------------------------------------------------------*/
FoamFile
{
    version     2.0;
    format      ascii;
    class       volScalarField;
    location    "34";
    object      alpha.airMean;
}
// * * * * * * * * * * * * * * * * * * * * * * * * * * * * * * * * * * * * * //

dimensions      [0 0 0 0 0 0 0];

internalField   nonuniform List<scalar> 
6144
(
0.999992
0.999992
0.999992
0.999991
0.999991
0.999991
0.999991
0.99999
0.99999
0.99999
0.99999
0.99999
0.99999
0.99999
0.99999
0.99999
0.99999
0.99999
0.99999
0.99999
0.99999
0.99999
0.99999
0.99999
0.99999
0.99999
0.99999
0.99999
0.99999
0.99999
0.99999
0.99999
0.99999
0.99999
0.99999
0.99999
0.99999
0.99999
0.99999
0.99999
0.99999
0.99999
0.99999
0.99999
0.99999
0.99999
0.99999
0.99999
0.99999
0.999989
0.999988
0.999982
0.999969
0.99995
0.999936
0.999889
0.999805
0.999414
0.998546
0.935538
0.0374209
0.000218514
1.09048e-06
9.24093e-07
9.24053e-07
9.11878e-07
9.12385e-07
9.03648e-07
9.0409e-07
8.98684e-07
8.9626e-07
8.90573e-07
8.8606e-07
8.79939e-07
8.74986e-07
8.69084e-07
8.64135e-07
8.59311e-07
8.54135e-07
8.49323e-07
8.44486e-07
8.39388e-07
8.34812e-07
8.30684e-07
8.26434e-07
8.21852e-07
8.16448e-07
8.07561e-07
7.81861e-07
7.16836e-07
6.44227e-07
5.96057e-07
5.44572e-07
4.97167e-07
4.61222e-07
4.24506e-07
0.999993
0.999993
0.999992
0.999991
0.999991
0.999991
0.99999
0.99999
0.99999
0.99999
0.99999
0.99999
0.99999
0.99999
0.99999
0.99999
0.99999
0.99999
0.99999
0.99999
0.99999
0.99999
0.99999
0.99999
0.99999
0.99999
0.99999
0.99999
0.99999
0.99999
0.99999
0.99999
0.99999
0.99999
0.99999
0.99999
0.99999
0.99999
0.99999
0.99999
0.99999
0.99999
0.99999
0.99999
0.99999
0.99999
0.99999
0.99999
0.99999
0.99999
0.999988
0.999981
0.99997
0.999952
0.999941
0.999903
0.999792
0.999279
0.998304
0.94293
0.0393708
8.5967e-05
9.346e-07
9.5252e-07
9.40398e-07
9.27629e-07
9.25484e-07
9.16646e-07
9.13671e-07
9.04932e-07
8.99727e-07
8.91895e-07
8.86541e-07
8.80166e-07
8.74255e-07
8.67718e-07
8.61501e-07
8.56034e-07
8.50778e-07
8.45726e-07
8.40357e-07
8.35716e-07
8.32066e-07
8.27521e-07
8.22368e-07
8.16375e-07
8.0895e-07
7.96933e-07
7.69427e-07
7.11188e-07
6.467e-07
6.00479e-07
5.49101e-07
5.02663e-07
4.71454e-07
4.33477e-07
0.999993
0.999993
0.999992
0.999992
0.999991
0.999991
0.99999
0.99999
0.99999
0.99999
0.99999
0.99999
0.99999
0.99999
0.99999
0.99999
0.99999
0.99999
0.99999
0.99999
0.99999
0.99999
0.99999
0.99999
0.99999
0.99999
0.99999
0.99999
0.99999
0.99999
0.99999
0.99999
0.99999
0.99999
0.99999
0.99999
0.99999
0.99999
0.99999
0.99999
0.99999
0.99999
0.99999
0.99999
0.99999
0.99999
0.99999
0.99999
0.99999
0.99999
0.999987
0.999981
0.999972
0.999958
0.999938
0.999886
0.999847
0.999446
0.999074
0.944208
0.0426508
3.99041e-05
2.02542e-06
1.7392e-06
1.61767e-06
1.42491e-06
1.27661e-06
1.15085e-06
1.07214e-06
1.00348e-06
9.57141e-07
9.22613e-07
9.03218e-07
8.89769e-07
8.82234e-07
8.73202e-07
8.64138e-07
8.54606e-07
8.45764e-07
8.38935e-07
8.32669e-07
8.25989e-07
8.18949e-07
8.12478e-07
8.06804e-07
8.02771e-07
7.96799e-07
7.8357e-07
7.55084e-07
7.05555e-07
6.54726e-07
6.12895e-07
5.60828e-07
5.09667e-07
4.78714e-07
4.37955e-07
0.999993
0.999993
0.999993
0.999992
0.999992
0.999991
0.999991
0.99999
0.99999
0.99999
0.99999
0.99999
0.99999
0.99999
0.99999
0.99999
0.99999
0.99999
0.99999
0.99999
0.99999
0.99999
0.99999
0.99999
0.99999
0.99999
0.99999
0.99999
0.99999
0.99999
0.99999
0.99999
0.99999
0.99999
0.99999
0.99999
0.99999
0.99999
0.99999
0.99999
0.99999
0.99999
0.99999
0.99999
0.99999
0.99999
0.99999
0.99999
0.99999
0.999989
0.999987
0.999981
0.999974
0.999955
0.999923
0.99987
0.999869
0.99956
0.999548
0.931986
0.0445618
7.12061e-05
4.48995e-05
3.83142e-05
3.41521e-05
2.81534e-05
2.16571e-05
1.55827e-05
1.13407e-05
8.21674e-06
5.71752e-06
3.89236e-06
2.65283e-06
1.79746e-06
1.2767e-06
1.03309e-06
9.17086e-07
8.68781e-07
8.49029e-07
8.37577e-07
8.27781e-07
8.18462e-07
8.10343e-07
8.0298e-07
7.96791e-07
7.90569e-07
7.80373e-07
7.62969e-07
7.34785e-07
6.98549e-07
6.64257e-07
6.23342e-07
5.68842e-07
5.14168e-07
4.83105e-07
4.38632e-07
0.999994
0.999993
0.999993
0.999993
0.999992
0.999991
0.999991
0.99999
0.99999
0.99999
0.99999
0.99999
0.99999
0.99999
0.99999
0.99999
0.99999
0.99999
0.99999
0.99999
0.99999
0.99999
0.99999
0.99999
0.99999
0.99999
0.99999
0.99999
0.99999
0.99999
0.99999
0.99999
0.99999
0.99999
0.99999
0.99999
0.99999
0.99999
0.99999
0.99999
0.99999
0.99999
0.99999
0.99999
0.99999
0.99999
0.99999
0.99999
0.99999
0.999989
0.999987
0.999982
0.999972
0.999951
0.999917
0.999856
0.999846
0.999664
0.999816
0.875891
0.0202835
0.000372595
0.000337825
0.000302883
0.000275164
0.000242693
0.000211932
0.000175513
0.000137331
0.000105674
7.98295e-05
6.0286e-05
4.56672e-05
3.23096e-05
2.04607e-05
1.27464e-05
7.64509e-06
4.51287e-06
2.67729e-06
1.66863e-06
1.18513e-06
9.56045e-07
8.51554e-07
8.0444e-07
7.7918e-07
7.518e-07
7.38158e-07
7.26474e-07
7.13561e-07
6.926e-07
6.63616e-07
6.23549e-07
5.70315e-07
5.17191e-07
4.84588e-07
4.3682e-07
0.999994
0.999993
0.999993
0.999993
0.999992
0.999992
0.999991
0.999991
0.99999
0.99999
0.99999
0.99999
0.99999
0.99999
0.99999
0.99999
0.99999
0.99999
0.99999
0.99999
0.99999
0.99999
0.99999
0.99999
0.99999
0.99999
0.99999
0.99999
0.99999
0.99999
0.99999
0.99999
0.99999
0.99999
0.99999
0.99999
0.99999
0.99999
0.99999
0.99999
0.99999
0.99999
0.99999
0.99999
0.99999
0.99999
0.99999
0.99999
0.99999
0.999989
0.999986
0.999982
0.999967
0.999945
0.999908
0.999851
0.999851
0.999761
0.999937
0.772931
0.0131258
0.00196813
0.00178151
0.0014829
0.00134393
0.00125156
0.0011785
0.00112806
0.00106517
0.000980104
0.000896726
0.000824563
0.000760505
0.000680656
0.000605443
0.000533714
0.000452274
0.00036884
0.000284813
0.000207036
0.000145639
9.66406e-05
6.1384e-05
3.73906e-05
2.08204e-05
1.00428e-05
4.1965e-06
1.89049e-06
1.10921e-06
7.7075e-07
6.00559e-07
5.12986e-07
4.658e-07
4.52124e-07
4.3755e-07
4.07587e-07
0.999994
0.999994
0.999993
0.999993
0.999993
0.999992
0.999992
0.999991
0.999991
0.99999
0.99999
0.99999
0.99999
0.99999
0.99999
0.99999
0.99999
0.99999
0.99999
0.99999
0.99999
0.99999
0.99999
0.99999
0.99999
0.99999
0.99999
0.99999
0.99999
0.99999
0.99999
0.99999
0.99999
0.99999
0.99999
0.99999
0.99999
0.99999
0.99999
0.99999
0.99999
0.99999
0.99999
0.99999
0.99999
0.99999
0.99999
0.99999
0.99999
0.999989
0.999987
0.999982
0.999969
0.999945
0.999912
0.999854
0.999828
0.999794
0.999988
0.631767
0.0137852
0.0085052
0.00871116
0.0080631
0.0076102
0.0075199
0.00733812
0.00738842
0.00730133
0.00723484
0.00714986
0.0069145
0.0067901
0.00673084
0.0066636
0.00629848
0.005833
0.0054958
0.00496093
0.00436186
0.00389284
0.00328249
0.0026826
0.00218351
0.00173533
0.00135937
0.000993344
0.000656737
0.000418477
0.000241513
0.000120678
4.82102e-05
1.39111e-05
8.60953e-06
1.04217e-05
1.11042e-05
0.999994
0.999994
0.999994
0.999994
0.999993
0.999992
0.999992
0.999991
0.999991
0.99999
0.99999
0.99999
0.99999
0.99999
0.99999
0.99999
0.99999
0.99999
0.99999
0.99999
0.99999
0.99999
0.99999
0.99999
0.99999
0.99999
0.99999
0.99999
0.99999
0.99999
0.99999
0.99999
0.99999
0.99999
0.99999
0.99999
0.99999
0.99999
0.99999
0.99999
0.99999
0.99999
0.99999
0.99999
0.99999
0.99999
0.99999
0.99999
0.99999
0.999989
0.999987
0.999983
0.999972
0.999949
0.999919
0.999862
0.99983
0.999801
0.999982
0.565311
0.0232102
0.018465
0.0189922
0.0189955
0.0188426
0.0188951
0.018798
0.0186446
0.0187263
0.0187621
0.0186943
0.0186604
0.0186171
0.018644
0.0186913
0.0187254
0.0187142
0.0186247
0.0185644
0.018549
0.0185501
0.0185687
0.0186076
0.018671
0.0187401
0.0188381
0.0188194
0.0186713
0.0184674
0.0180645
0.0176259
0.0169525
0.0158314
0.0145382
0.0123104
0.00950066
0.999994
0.999994
0.999994
0.999994
0.999993
0.999993
0.999992
0.999991
0.999991
0.99999
0.99999
0.99999
0.99999
0.99999
0.99999
0.99999
0.99999
0.99999
0.99999
0.99999
0.99999
0.99999
0.99999
0.99999
0.99999
0.99999
0.99999
0.99999
0.99999
0.99999
0.99999
0.99999
0.99999
0.99999
0.99999
0.99999
0.99999
0.99999
0.99999
0.99999
0.99999
0.99999
0.99999
0.99999
0.99999
0.99999
0.99999
0.99999
0.99999
0.999989
0.999987
0.999983
0.999972
0.999949
0.999928
0.99988
0.999854
0.999794
0.999962
0.664048
0.0184019
0.0102897
0.0102163
0.00962809
0.00911334
0.00896424
0.0086301
0.0082372
0.00803697
0.00782848
0.0076855
0.00735569
0.00705354
0.0068167
0.00665247
0.00657678
0.00652302
0.00661983
0.00692528
0.0072526
0.00730815
0.0073381
0.00741446
0.00738943
0.00733093
0.00724909
0.00714453
0.00693929
0.00662803
0.00626724
0.00572992
0.0050988
0.00428734
0.00325412
0.00201992
0.000979168
0.999995
0.999994
0.999994
0.999994
0.999993
0.999992
0.999992
0.999991
0.999991
0.99999
0.99999
0.99999
0.99999
0.99999
0.99999
0.99999
0.99999
0.99999
0.99999
0.99999
0.99999
0.99999
0.99999
0.99999
0.99999
0.99999
0.99999
0.99999
0.99999
0.99999
0.99999
0.99999
0.99999
0.99999
0.99999
0.99999
0.99999
0.99999
0.99999
0.99999
0.99999
0.99999
0.99999
0.99999
0.99999
0.99999
0.99999
0.99999
0.99999
0.999989
0.999987
0.999983
0.999972
0.999949
0.99993
0.999889
0.999873
0.999756
0.999902
0.773754
0.0137804
0.00343107
0.00334799
0.00301951
0.00283311
0.00273608
0.00258777
0.00246659
0.00236507
0.00228596
0.00219976
0.00210344
0.00201698
0.00190805
0.00178983
0.00170193
0.00163085
0.0015787
0.00155464
0.00156257
0.00155284
0.00153404
0.00156884
0.00160192
0.00158436
0.00160365
0.00162607
0.00161327
0.00153976
0.00135395
0.00113419
0.000889264
0.000591117
0.000326229
0.000136461
5.52997e-05
0.999995
0.999994
0.999993
0.999994
0.999993
0.999992
0.999992
0.999991
0.999991
0.99999
0.99999
0.99999
0.99999
0.99999
0.99999
0.99999
0.99999
0.99999
0.99999
0.99999
0.99999
0.99999
0.99999
0.99999
0.99999
0.99999
0.99999
0.99999
0.99999
0.99999
0.99999
0.99999
0.99999
0.99999
0.99999
0.99999
0.99999
0.99999
0.99999
0.99999
0.99999
0.99999
0.99999
0.99999
0.99999
0.99999
0.99999
0.99999
0.99999
0.999989
0.999987
0.999982
0.999972
0.99995
0.999927
0.999894
0.999883
0.99966
0.999798
0.874528
0.0227053
0.00111013
0.00112858
0.0011274
0.00115486
0.0011153
0.00106475
0.00103587
0.000988641
0.000921186
0.000835671
0.000738596
0.000652126
0.000555612
0.000460849
0.000378197
0.000300289
0.000232513
0.000177159
0.000139352
0.000119755
0.000113142
0.000119314
0.000134835
0.000150601
0.00016003
0.000165478
0.000167733
0.000155662
0.000124066
8.7587e-05
5.27986e-05
2.51519e-05
9.55216e-06
3.04815e-06
1.38808e-06
0.999995
0.999995
0.999994
0.999994
0.999993
0.999992
0.999992
0.999991
0.999991
0.99999
0.99999
0.99999
0.99999
0.99999
0.99999
0.99999
0.99999
0.99999
0.99999
0.99999
0.99999
0.99999
0.99999
0.99999
0.99999
0.99999
0.99999
0.99999
0.99999
0.99999
0.99999
0.99999
0.99999
0.99999
0.99999
0.99999
0.99999
0.99999
0.99999
0.99999
0.99999
0.99999
0.99999
0.99999
0.99999
0.99999
0.99999
0.99999
0.99999
0.999989
0.999987
0.999982
0.999973
0.999954
0.999919
0.999888
0.999881
0.999559
0.999698
0.930601
0.040268
0.000276878
0.000271511
0.00026644
0.000281091
0.000284571
0.00027386
0.000256077
0.000233002
0.000195565
0.000155267
0.000122186
9.37226e-05
6.4958e-05
4.3232e-05
2.73467e-05
1.59088e-05
8.58098e-06
4.50639e-06
2.68078e-06
2.17282e-06
2.3912e-06
2.91664e-06
3.41892e-06
3.71869e-06
3.82132e-06
3.84488e-06
3.69253e-06
3.18445e-06
2.356e-06
1.50371e-06
8.69796e-07
5.31532e-07
4.15392e-07
3.90711e-07
3.87031e-07
0.999996
0.999996
0.999995
0.999994
0.999994
0.999993
0.999992
0.999991
0.999991
0.99999
0.99999
0.99999
0.99999
0.99999
0.99999
0.99999
0.99999
0.99999
0.99999
0.99999
0.99999
0.99999
0.99999
0.99999
0.99999
0.99999
0.99999
0.99999
0.99999
0.99999
0.99999
0.99999
0.99999
0.99999
0.99999
0.99999
0.99999
0.99999
0.99999
0.99999
0.99999
0.99999
0.99999
0.99999
0.99999
0.99999
0.99999
0.99999
0.99999
0.99999
0.999987
0.999981
0.999973
0.99996
0.999932
0.999893
0.999857
0.999455
0.999544
0.954392
0.0467585
5.28349e-05
2.3176e-05
2.1238e-05
2.2942e-05
2.28896e-05
2.20468e-05
1.92874e-05
1.59421e-05
1.18022e-05
8.38545e-06
5.61001e-06
3.57768e-06
2.16224e-06
1.3817e-06
9.75505e-07
7.854e-07
7.08895e-07
6.74481e-07
6.51183e-07
6.35208e-07
6.2314e-07
6.12094e-07
6.02683e-07
5.94877e-07
5.87866e-07
5.81104e-07
5.6456e-07
5.40819e-07
5.10687e-07
4.77141e-07
4.4335e-07
4.08202e-07
3.7598e-07
3.61434e-07
3.49565e-07
0.999997
0.999996
0.999996
0.999995
0.999995
0.999994
0.999992
0.999991
0.999991
0.99999
0.99999
0.99999
0.99999
0.99999
0.99999
0.99999
0.99999
0.99999
0.99999
0.99999
0.99999
0.99999
0.99999
0.99999
0.99999
0.99999
0.99999
0.99999
0.99999
0.99999
0.99999
0.99999
0.99999
0.99999
0.99999
0.99999
0.99999
0.99999
0.99999
0.99999
0.99999
0.99999
0.99999
0.99999
0.99999
0.99999
0.99999
0.99999
0.99999
0.99999
0.999988
0.99998
0.999972
0.99996
0.999944
0.999913
0.999807
0.99935
0.999363
0.95448
0.0441807
2.80204e-05
9.82449e-07
9.55347e-07
1.00064e-06
9.94218e-07
9.79203e-07
9.18287e-07
8.72947e-07
8.10611e-07
7.75655e-07
7.46398e-07
7.27092e-07
7.03132e-07
6.83845e-07
6.67467e-07
6.55572e-07
6.4455e-07
6.33361e-07
6.23626e-07
6.14755e-07
6.05398e-07
5.9674e-07
5.88651e-07
5.81865e-07
5.76757e-07
5.68737e-07
5.49017e-07
5.15707e-07
4.89531e-07
4.65923e-07
4.38469e-07
4.07768e-07
3.87034e-07
3.66891e-07
3.43558e-07
0.999997
0.999996
0.999996
0.999996
0.999995
0.999995
0.999994
0.999991
0.999991
0.99999
0.99999
0.99999
0.99999
0.99999
0.99999
0.99999
0.99999
0.99999
0.99999
0.99999
0.99999
0.99999
0.99999
0.99999
0.99999
0.99999
0.99999
0.99999
0.99999
0.99999
0.99999
0.99999
0.99999
0.99999
0.99999
0.99999
0.99999
0.99999
0.99999
0.99999
0.99999
0.99999
0.99999
0.99999
0.99999
0.99999
0.99999
0.99999
0.99999
0.99999
0.999988
0.999981
0.99997
0.999956
0.999946
0.99992
0.999717
0.999231
0.998821
0.954924
0.0447749
0.000107537
6.99451e-07
6.86115e-07
6.8362e-07
6.70079e-07
6.76462e-07
6.72644e-07
6.70521e-07
6.65655e-07
6.61338e-07
6.53763e-07
6.47739e-07
6.39003e-07
6.32028e-07
6.2434e-07
6.16925e-07
6.10747e-07
6.04412e-07
5.97807e-07
5.92308e-07
5.87038e-07
5.81249e-07
5.76142e-07
5.72635e-07
5.70985e-07
5.65728e-07
5.49936e-07
5.20115e-07
4.86074e-07
4.6307e-07
4.38511e-07
4.09166e-07
3.90124e-07
3.7614e-07
3.47169e-07
0.999998
0.999997
0.999997
0.999997
0.999996
0.999996
0.999995
0.999992
0.999991
0.99999
0.99999
0.99999
0.99999
0.99999
0.99999
0.99999
0.99999
0.99999
0.99999
0.99999
0.99999
0.99999
0.99999
0.99999
0.99999
0.99999
0.99999
0.99999
0.99999
0.99999
0.99999
0.99999
0.99999
0.99999
0.99999
0.99999
0.99999
0.99999
0.99999
0.99999
0.99999
0.99999
0.99999
0.99999
0.99999
0.99999
0.99999
0.99999
0.99999
0.99999
0.999988
0.999982
0.99997
0.999955
0.999944
0.999874
0.999804
0.999325
0.999048
0.952517
0.0505065
0.000333364
1.13431e-06
6.17638e-07
6.16386e-07
6.06706e-07
6.07868e-07
6.03658e-07
6.07533e-07
6.10676e-07
6.13897e-07
6.11546e-07
6.09371e-07
6.05164e-07
6.01701e-07
5.96701e-07
5.92267e-07
5.88509e-07
5.846e-07
5.80835e-07
5.78255e-07
5.75527e-07
5.72497e-07
5.69695e-07
5.68162e-07
5.68467e-07
5.65851e-07
5.51253e-07
5.22106e-07
4.90843e-07
4.5774e-07
4.35236e-07
4.09444e-07
3.89998e-07
3.74039e-07
3.39419e-07
0.999992
0.999992
0.999992
0.999991
0.999991
0.999991
0.99999
0.99999
0.99999
0.99999
0.99999
0.99999
0.99999
0.99999
0.99999
0.99999
0.99999
0.99999
0.99999
0.99999
0.99999
0.99999
0.99999
0.99999
0.99999
0.99999
0.99999
0.99999
0.99999
0.99999
0.99999
0.99999
0.99999
0.99999
0.99999
0.99999
0.99999
0.99999
0.99999
0.99999
0.99999
0.99999
0.99999
0.99999
0.99999
0.99999
0.99999
0.99999
0.99999
0.999989
0.999988
0.999982
0.999971
0.999951
0.999938
0.999895
0.99981
0.999208
0.996889
0.931374
0.0528823
0.000397064
1.39998e-06
9.20547e-07
9.20204e-07
9.07703e-07
9.08689e-07
8.99368e-07
9.00216e-07
8.94293e-07
8.93185e-07
8.87174e-07
8.83143e-07
8.76572e-07
8.70688e-07
8.6436e-07
8.58437e-07
8.52496e-07
8.47121e-07
8.41802e-07
8.36117e-07
8.30574e-07
8.24665e-07
8.18219e-07
8.11175e-07
8.03822e-07
7.96959e-07
7.89987e-07
7.79249e-07
7.53812e-07
6.94573e-07
6.1384e-07
5.60119e-07
5.40204e-07
5.28934e-07
4.63795e-07
0.999993
0.999992
0.999992
0.999991
0.999991
0.999991
0.999991
0.99999
0.99999
0.99999
0.99999
0.99999
0.99999
0.99999
0.99999
0.99999
0.99999
0.99999
0.99999
0.99999
0.99999
0.99999
0.99999
0.99999
0.99999
0.99999
0.99999
0.99999
0.99999
0.99999
0.99999
0.99999
0.99999
0.99999
0.99999
0.99999
0.99999
0.99999
0.99999
0.99999
0.99999
0.99999
0.99999
0.99999
0.99999
0.99999
0.99999
0.99999
0.99999
0.999989
0.999988
0.999983
0.99997
0.999952
0.999942
0.999905
0.999774
0.999266
0.998042
0.934868
0.0435108
9.43232e-05
9.53511e-07
9.48254e-07
9.42125e-07
9.25848e-07
9.27722e-07
9.17927e-07
9.176e-07
9.09983e-07
9.06006e-07
8.97315e-07
8.91019e-07
8.81597e-07
8.73196e-07
8.65681e-07
8.59303e-07
8.52535e-07
8.45468e-07
8.35587e-07
8.2414e-07
8.15403e-07
8.08732e-07
8.03046e-07
7.98303e-07
7.93036e-07
7.87934e-07
7.83677e-07
7.76734e-07
7.60221e-07
7.17154e-07
6.434e-07
5.76993e-07
5.45924e-07
5.43934e-07
4.79121e-07
0.999993
0.999993
0.999992
0.999992
0.999992
0.999992
0.999991
0.999991
0.99999
0.99999
0.99999
0.99999
0.99999
0.99999
0.99999
0.99999
0.99999
0.99999
0.99999
0.99999
0.99999
0.99999
0.99999
0.99999
0.99999
0.99999
0.99999
0.99999
0.99999
0.99999
0.99999
0.99999
0.99999
0.99999
0.99999
0.99999
0.99999
0.99999
0.99999
0.99999
0.99999
0.99999
0.99999
0.99999
0.99999
0.99999
0.99999
0.99999
0.99999
0.999989
0.999987
0.999981
0.999972
0.999955
0.999944
0.999892
0.999827
0.999449
0.999074
0.935572
0.0367989
5.51523e-06
1.8894e-06
1.5931e-06
1.54928e-06
1.466e-06
1.3904e-06
1.27436e-06
1.18499e-06
1.0977e-06
1.03486e-06
9.82073e-07
9.4677e-07
9.17614e-07
9.00345e-07
8.84999e-07
8.67016e-07
8.53713e-07
8.452e-07
8.36114e-07
8.27006e-07
8.18645e-07
8.09654e-07
8.01915e-07
7.97646e-07
7.94353e-07
7.89604e-07
7.83681e-07
7.78133e-07
7.66726e-07
7.32781e-07
6.70006e-07
6.01896e-07
5.62519e-07
5.55025e-07
4.87899e-07
0.999994
0.999993
0.999993
0.999992
0.999992
0.999992
0.999992
0.999991
0.999991
0.99999
0.99999
0.99999
0.99999
0.99999
0.99999
0.99999
0.99999
0.99999
0.99999
0.99999
0.99999
0.99999
0.99999
0.99999
0.99999
0.99999
0.99999
0.99999
0.99999
0.99999
0.99999
0.99999
0.99999
0.99999
0.99999
0.99999
0.99999
0.99999
0.99999
0.99999
0.99999
0.99999
0.99999
0.99999
0.99999
0.99999
0.99999
0.99999
0.99999
0.999989
0.999986
0.999982
0.999973
0.999956
0.999929
0.999862
0.999832
0.99953
0.9996
0.929704
0.0343512
4.73513e-05
5.1179e-05
4.18084e-05
4.11922e-05
3.75425e-05
3.33712e-05
2.71241e-05
2.11448e-05
1.55803e-05
1.11513e-05
7.90857e-06
5.66157e-06
3.86313e-06
2.52129e-06
1.68403e-06
1.19817e-06
1.01887e-06
9.49097e-07
9.075e-07
8.78543e-07
8.55718e-07
8.42606e-07
8.30566e-07
8.17441e-07
8.03457e-07
7.92325e-07
7.82529e-07
7.74928e-07
7.62883e-07
7.34141e-07
6.81183e-07
6.21919e-07
5.82712e-07
5.64506e-07
4.88994e-07
0.999994
0.999993
0.999993
0.999992
0.999992
0.999992
0.999992
0.999991
0.999991
0.99999
0.99999
0.99999
0.99999
0.99999
0.99999
0.99999
0.99999
0.99999
0.99999
0.99999
0.99999
0.99999
0.99999
0.99999
0.99999
0.99999
0.99999
0.99999
0.99999
0.99999
0.99999
0.99999
0.99999
0.99999
0.99999
0.99999
0.99999
0.99999
0.99999
0.99999
0.99999
0.99999
0.99999
0.99999
0.99999
0.99999
0.99999
0.99999
0.99999
0.999989
0.999986
0.99998
0.999967
0.999946
0.999893
0.999825
0.999777
0.999709
0.999844
0.877323
0.0160876
0.000767993
0.000733122
0.000604942
0.000563259
0.000515107
0.000459514
0.000414176
0.000367918
0.00030367
0.000249664
0.000207042
0.000170742
0.000139087
0.000112373
8.7943e-05
6.2844e-05
4.23392e-05
2.83437e-05
1.8055e-05
1.10772e-05
6.60202e-06
3.76074e-06
2.18058e-06
1.41156e-06
1.06239e-06
9.1386e-07
8.44345e-07
7.98332e-07
7.60526e-07
7.26099e-07
6.75215e-07
6.34707e-07
6.00562e-07
5.70333e-07
4.86036e-07
0.999994
0.999994
0.999993
0.999993
0.999992
0.999992
0.999992
0.999991
0.999991
0.99999
0.99999
0.99999
0.99999
0.99999
0.99999
0.99999
0.99999
0.99999
0.99999
0.99999
0.99999
0.99999
0.99999
0.99999
0.99999
0.99999
0.99999
0.99999
0.99999
0.99999
0.99999
0.99999
0.99999
0.99999
0.99999
0.99999
0.99999
0.99999
0.99999
0.99999
0.99999
0.99999
0.99999
0.99999
0.99999
0.99999
0.99999
0.99999
0.99999
0.999989
0.999986
0.999978
0.999958
0.999932
0.999865
0.999822
0.999825
0.999843
0.999954
0.761254
0.0168558
0.00698816
0.00676299
0.00585193
0.00553498
0.00515554
0.00486146
0.00474504
0.00460868
0.00455082
0.00450065
0.00442591
0.00423651
0.00397571
0.00372156
0.00342948
0.00318901
0.00271317
0.00225216
0.00184556
0.001421
0.00108471
0.000788251
0.000535513
0.000351854
0.00021923
0.000129005
7.44857e-05
4.11288e-05
2.09612e-05
8.41722e-06
2.93912e-06
1.0453e-06
6.84729e-07
5.69441e-07
4.52499e-07
0.999994
0.999994
0.999994
0.999993
0.999993
0.999992
0.999992
0.999991
0.999991
0.99999
0.99999
0.99999
0.99999
0.99999
0.99999
0.99999
0.99999
0.99999
0.99999
0.99999
0.99999
0.99999
0.99999
0.99999
0.99999
0.99999
0.99999
0.99999
0.99999
0.99999
0.99999
0.99999
0.99999
0.99999
0.99999
0.99999
0.99999
0.99999
0.99999
0.99999
0.99999
0.99999
0.99999
0.99999
0.99999
0.99999
0.99999
0.99999
0.99999
0.999989
0.999987
0.999981
0.999962
0.999938
0.999886
0.999815
0.999782
0.999822
0.999964
0.60605
0.0325231
0.0254254
0.0262426
0.0257525
0.0255107
0.0254334
0.0254325
0.0257044
0.0259152
0.026171
0.0266455
0.0270625
0.027289
0.0274718
0.0274229
0.027367
0.0271403
0.0265842
0.0258416
0.0248704
0.0235479
0.0219284
0.0201826
0.0181295
0.0156568
0.0133753
0.0112277
0.00911571
0.00726875
0.00560118
0.00381104
0.00240635
0.00143679
0.000902868
0.000899942
0.00106251
0.999995
0.999995
0.999994
0.999994
0.999993
0.999993
0.999992
0.999991
0.999991
0.99999
0.99999
0.99999
0.99999
0.99999
0.99999
0.99999
0.99999
0.99999
0.99999
0.99999
0.99999
0.99999
0.99999
0.99999
0.99999
0.99999
0.99999
0.99999
0.99999
0.99999
0.99999
0.99999
0.99999
0.99999
0.99999
0.99999
0.99999
0.99999
0.99999
0.99999
0.99999
0.99999
0.99999
0.99999
0.99999
0.99999
0.99999
0.99999
0.99999
0.999989
0.999988
0.999982
0.999968
0.999948
0.999903
0.999829
0.999788
0.999807
0.99987
0.573758
0.0413721
0.0342731
0.0353918
0.0358069
0.0365951
0.0375032
0.0383054
0.0392968
0.0402509
0.0412486
0.0424076
0.0437307
0.0452241
0.0468868
0.0487756
0.0509145
0.0532858
0.0558912
0.0586831
0.061722
0.0650195
0.0684809
0.072064
0.0759477
0.0800531
0.0843651
0.0890155
0.0938657
0.099099
0.105044
0.112053
0.121026
0.133813
0.15511
0.203198
0.396581
0.999995
0.999995
0.999995
0.999994
0.999994
0.999993
0.999992
0.999991
0.999991
0.99999
0.99999
0.99999
0.99999
0.99999
0.99999
0.99999
0.99999
0.99999
0.99999
0.99999
0.99999
0.99999
0.99999
0.99999
0.99999
0.99999
0.99999
0.99999
0.99999
0.99999
0.99999
0.99999
0.99999
0.99999
0.99999
0.99999
0.99999
0.99999
0.99999
0.99999
0.99999
0.99999
0.99999
0.99999
0.99999
0.99999
0.99999
0.99999
0.99999
0.999989
0.999988
0.999982
0.99997
0.999948
0.999916
0.999864
0.999816
0.999779
0.999953
0.724719
0.0219465
0.00881125
0.00799905
0.00714531
0.00683558
0.00664649
0.00657604
0.00652949
0.00647239
0.00637171
0.00630275
0.00626294
0.00623765
0.00629685
0.00651023
0.00685906
0.00743431
0.00808155
0.00866999
0.00931334
0.0100678
0.010854
0.011634
0.0123897
0.013191
0.0139849
0.0146617
0.0154221
0.0163068
0.0172333
0.0181312
0.0189374
0.0193782
0.0193063
0.0183877
0.016249
0.999995
0.999995
0.999995
0.999995
0.999995
0.999994
0.999993
0.999991
0.999991
0.999991
0.99999
0.99999
0.99999
0.99999
0.99999
0.99999
0.99999
0.99999
0.99999
0.99999
0.99999
0.99999
0.99999
0.99999
0.99999
0.99999
0.99999
0.99999
0.99999
0.99999
0.99999
0.99999
0.99999
0.99999
0.99999
0.99999
0.99999
0.99999
0.99999
0.99999
0.99999
0.99999
0.99999
0.99999
0.99999
0.99999
0.99999
0.99999
0.99999
0.999989
0.999987
0.999981
0.999969
0.999951
0.999919
0.99987
0.999834
0.999764
0.999928
0.836866
0.0119634
0.00156424
0.0015139
0.00139863
0.00142176
0.00143052
0.00142874
0.00141823
0.00142988
0.00142266
0.00139884
0.00136876
0.00130736
0.00126112
0.00121474
0.00115562
0.00110245
0.00104739
0.00100346
0.000994791
0.0010301
0.0011041
0.00120999
0.00130881
0.00141664
0.0015572
0.00170379
0.00184281
0.00195346
0.00204994
0.00212577
0.0021124
0.00193865
0.00144895
0.000822133
0.000347745
0.999996
0.999995
0.999995
0.999995
0.999995
0.999994
0.999993
0.999992
0.999991
0.999991
0.99999
0.99999
0.99999
0.99999
0.99999
0.99999
0.99999
0.99999
0.99999
0.99999
0.99999
0.99999
0.99999
0.99999
0.99999
0.99999
0.99999
0.99999
0.99999
0.99999
0.99999
0.99999
0.99999
0.99999
0.99999
0.99999
0.99999
0.99999
0.99999
0.99999
0.99999
0.99999
0.99999
0.99999
0.99999
0.99999
0.99999
0.99999
0.99999
0.999989
0.999987
0.99998
0.99997
0.999955
0.999931
0.999892
0.999829
0.999655
0.999829
0.913113
0.0355052
0.00030467
0.000306906
0.000287632
0.000307471
0.000309193
0.000315941
0.000318568
0.000305588
0.000281257
0.00024751
0.000212335
0.000175487
0.00014002
0.000110876
8.51559e-05
6.49705e-05
5.02961e-05
4.23306e-05
4.08273e-05
4.48404e-05
5.24808e-05
6.22083e-05
7.01602e-05
7.34728e-05
7.28647e-05
6.96048e-05
6.49657e-05
6.05235e-05
5.75865e-05
5.37238e-05
4.50844e-05
3.35687e-05
1.95895e-05
7.53208e-06
2.95522e-06
0.999996
0.999995
0.999995
0.999995
0.999995
0.999994
0.999993
0.999991
0.999991
0.999991
0.99999
0.99999
0.99999
0.99999
0.99999
0.99999
0.99999
0.99999
0.99999
0.99999
0.99999
0.99999
0.99999
0.99999
0.99999
0.99999
0.99999
0.99999
0.99999
0.99999
0.99999
0.99999
0.99999
0.99999
0.99999
0.99999
0.99999
0.99999
0.99999
0.99999
0.99999
0.99999
0.99999
0.99999
0.99999
0.99999
0.99999
0.99999
0.99999
0.99999
0.999988
0.999982
0.999971
0.999956
0.999933
0.999895
0.999854
0.999531
0.999644
0.9421
0.0394773
4.87894e-05
4.53698e-05
3.80247e-05
3.94989e-05
3.85794e-05
3.63953e-05
3.35805e-05
2.90893e-05
2.26973e-05
1.75079e-05
1.29147e-05
9.06095e-06
6.07253e-06
4.03522e-06
2.69298e-06
1.9102e-06
1.5174e-06
1.39586e-06
1.46517e-06
1.66158e-06
1.92985e-06
2.17222e-06
2.26113e-06
2.11325e-06
1.7764e-06
1.44571e-06
1.14503e-06
9.02812e-07
7.32408e-07
6.18561e-07
5.35114e-07
4.68279e-07
4.26046e-07
4.08481e-07
3.88285e-07
0.999996
0.999996
0.999996
0.999995
0.999995
0.999994
0.999993
0.999991
0.999991
0.999991
0.99999
0.99999
0.99999
0.99999
0.99999
0.99999
0.99999
0.99999
0.99999
0.99999
0.99999
0.99999
0.99999
0.99999
0.99999
0.99999
0.99999
0.99999
0.99999
0.99999
0.99999
0.99999
0.99999
0.99999
0.99999
0.99999
0.99999
0.99999
0.99999
0.99999
0.99999
0.99999
0.99999
0.99999
0.99999
0.99999
0.99999
0.99999
0.99999
0.99999
0.999988
0.999982
0.999971
0.999957
0.999944
0.999905
0.999835
0.999434
0.99924
0.955112
0.0516302
1.13054e-05
4.69391e-06
3.7337e-06
3.76022e-06
3.36065e-06
2.70967e-06
2.01624e-06
1.60372e-06
1.32351e-06
1.13676e-06
9.88098e-07
8.91772e-07
8.30748e-07
7.95443e-07
7.68296e-07
7.43852e-07
7.21015e-07
7.02138e-07
6.87777e-07
6.73933e-07
6.60353e-07
6.48518e-07
6.39378e-07
6.3043e-07
6.17043e-07
5.99411e-07
5.81664e-07
5.5159e-07
5.14213e-07
4.74661e-07
4.30711e-07
3.83401e-07
3.53744e-07
3.44318e-07
3.26587e-07
0.999997
0.999996
0.999996
0.999996
0.999995
0.999995
0.999993
0.999992
0.999991
0.999991
0.99999
0.99999
0.99999
0.99999
0.99999
0.99999
0.99999
0.99999
0.99999
0.99999
0.99999
0.99999
0.99999
0.99999
0.99999
0.99999
0.99999
0.99999
0.99999
0.99999
0.99999
0.99999
0.99999
0.99999
0.99999
0.99999
0.99999
0.99999
0.99999
0.99999
0.99999
0.99999
0.99999
0.99999
0.99999
0.99999
0.99999
0.99999
0.99999
0.99999
0.999988
0.999982
0.999971
0.999955
0.999946
0.999921
0.999791
0.999347
0.998947
0.954616
0.05484
9.55713e-06
9.3825e-07
8.4724e-07
8.58824e-07
8.45158e-07
8.52642e-07
8.42001e-07
8.36646e-07
8.22365e-07
8.16331e-07
8.02037e-07
7.87686e-07
7.65136e-07
7.45223e-07
7.25448e-07
7.07581e-07
6.91849e-07
6.78538e-07
6.67117e-07
6.54441e-07
6.41597e-07
6.27794e-07
6.15243e-07
6.04712e-07
5.958e-07
5.85304e-07
5.67155e-07
5.35565e-07
5.03078e-07
4.69706e-07
4.34962e-07
3.96388e-07
3.69537e-07
3.52355e-07
3.27034e-07
0.999997
0.999997
0.999997
0.999996
0.999996
0.999995
0.999993
0.999992
0.999991
0.999991
0.99999
0.99999
0.99999
0.99999
0.99999
0.99999
0.99999
0.99999
0.99999
0.99999
0.99999
0.99999
0.99999
0.99999
0.99999
0.99999
0.99999
0.99999
0.99999
0.99999
0.99999
0.99999
0.99999
0.99999
0.99999
0.99999
0.99999
0.99999
0.99999
0.99999
0.99999
0.99999
0.99999
0.99999
0.99999
0.99999
0.99999
0.99999
0.99999
0.99999
0.999988
0.999982
0.99997
0.999955
0.999945
0.999918
0.999728
0.999204
0.998083
0.948324
0.0631104
0.000167116
7.83398e-07
6.89733e-07
6.70143e-07
6.5548e-07
6.59579e-07
6.64069e-07
6.78396e-07
6.83135e-07
6.89055e-07
6.86493e-07
6.85651e-07
6.79576e-07
6.7273e-07
6.63227e-07
6.52743e-07
6.43144e-07
6.34555e-07
6.25942e-07
6.17524e-07
6.09985e-07
6.03909e-07
5.98071e-07
5.92604e-07
5.87617e-07
5.79587e-07
5.63638e-07
5.34818e-07
4.95946e-07
4.63558e-07
4.35742e-07
4.07067e-07
3.89611e-07
3.72991e-07
3.3922e-07
0.999998
0.999997
0.999997
0.999997
0.999996
0.999996
0.999995
0.999992
0.999991
0.99999
0.99999
0.99999
0.99999
0.99999
0.99999
0.99999
0.99999
0.99999
0.99999
0.99999
0.99999
0.99999
0.99999
0.99999
0.99999
0.99999
0.99999
0.99999
0.99999
0.99999
0.99999
0.99999
0.99999
0.99999
0.99999
0.99999
0.99999
0.99999
0.99999
0.99999
0.99999
0.99999
0.99999
0.99999
0.99999
0.99999
0.99999
0.99999
0.99999
0.99999
0.999988
0.999982
0.99997
0.999955
0.999947
0.9999
0.999787
0.999137
0.997342
0.944358
0.0693404
0.000642099
1.84449e-06
6.12025e-07
6.11615e-07
6.01386e-07
6.0338e-07
5.96512e-07
5.98262e-07
5.99331e-07
6.04404e-07
6.03356e-07
6.03754e-07
6.01761e-07
6.00206e-07
5.97939e-07
5.95874e-07
5.93267e-07
5.91962e-07
5.91569e-07
5.90256e-07
5.89551e-07
5.9001e-07
5.891e-07
5.8695e-07
5.84153e-07
5.77279e-07
5.62182e-07
5.33901e-07
4.96169e-07
4.60051e-07
4.34607e-07
4.08288e-07
3.90308e-07
3.72588e-07
3.36339e-07