/*--------------------------------*- C++ -*----------------------------------*\
| =========                 |                                                 |
| \\      /  F ield         | OpenFOAM: The Open Source CFD Toolbox           |
|  \\    /   O peration     | Version:  2.3.0                                 |
|   \\  /    A nd           | Web:      www.OpenFOAM.org                      |
|    \\/     M anipulation  |                                                 |
\*---------------------------------------------------------------------------*/
FoamFile
{
    version     2.0;
    format      ascii;
    class       volScalarField;
    location    "34";
    object      alpha.air;
}
// * * * * * * * * * * * * * * * * * * * * * * * * * * * * * * * * * * * * * //

dimensions      [0 0 0 0 0 0 0];

internalField   nonuniform List<scalar> 
6144
(
0.999996
0.999995
0.999994
0.999994
0.999993
0.999992
0.999992
0.999991
0.99999
0.99999
0.99999
0.99999
0.99999
0.99999
0.99999
0.99999
0.99999
0.99999
0.99999
0.99999
0.99999
0.99999
0.99999
0.99999
0.99999
0.99999
0.99999
0.99999
0.99999
0.99999
0.99999
0.99999
0.99999
0.99999
0.99999
0.99999
0.99999
0.99999
0.99999
0.99999
0.99999
0.99999
0.99999
0.99999
0.999989
0.999985
0.999969
0.999941
0.999924
0.999923
0.999933
0.999934
0.99993
0.999919
0.999908
0.999892
0.999889
0.999885
0.998712
0.928864
0.0472181
0.000359407
1.01322e-06
5.2739e-07
5.30016e-07
5.32701e-07
5.32103e-07
5.31875e-07
5.32758e-07
5.342e-07
5.36346e-07
5.40867e-07
5.44124e-07
5.46386e-07
5.5015e-07
5.61179e-07
6.16e-07
6.75349e-07
6.68356e-07
6.46058e-07
6.24238e-07
5.93993e-07
5.70733e-07
5.55361e-07
5.31533e-07
4.93933e-07
4.58553e-07
4.336e-07
4.18782e-07
4.11627e-07
4.10058e-07
4.10404e-07
4.03424e-07
3.89673e-07
3.89677e-07
3.89682e-07
0.999996
0.999995
0.999994
0.999993
0.999993
0.999992
0.999992
0.999991
0.99999
0.99999
0.99999
0.99999
0.99999
0.99999
0.99999
0.99999
0.99999
0.99999
0.99999
0.99999
0.99999
0.99999
0.99999
0.99999
0.99999
0.99999
0.99999
0.99999
0.99999
0.99999
0.99999
0.99999
0.99999
0.99999
0.99999
0.99999
0.99999
0.99999
0.99999
0.99999
0.99999
0.99999
0.99999
0.99999
0.999989
0.999985
0.99997
0.999946
0.999934
0.999946
0.999963
0.99996
0.99995
0.999936
0.99992
0.999907
0.999899
0.999889
0.999486
0.957158
0.0510607
0.000343508
9.88109e-07
5.27354e-07
5.2739e-07
5.27431e-07
5.27446e-07
5.31115e-07
5.33135e-07
5.3292e-07
5.39058e-07
5.58172e-07
5.66213e-07
5.57729e-07
5.52914e-07
5.70988e-07
6.37965e-07
6.93819e-07
6.85626e-07
6.71679e-07
6.56755e-07
6.22123e-07
5.84279e-07
5.80794e-07
5.94352e-07
6.03998e-07
6.04084e-07
5.85338e-07
5.20501e-07
4.6758e-07
4.53532e-07
4.51332e-07
4.51577e-07
4.5178e-07
4.27347e-07
3.97622e-07
0.999996
0.999995
0.999994
0.999993
0.999992
0.999992
0.999991
0.999991
0.99999
0.99999
0.99999
0.99999
0.99999
0.99999
0.99999
0.99999
0.99999
0.99999
0.99999
0.99999
0.99999
0.99999
0.99999
0.99999
0.99999
0.99999
0.99999
0.99999
0.99999
0.99999
0.99999
0.99999
0.99999
0.99999
0.99999
0.99999
0.99999
0.99999
0.99999
0.99999
0.99999
0.99999
0.99999
0.99999
0.999989
0.999988
0.999977
0.999957
0.999948
0.999967
0.999972
0.999962
0.999937
0.999909
0.999891
0.999881
0.99988
0.999876
0.99971
0.97209
0.0358541
0.000157428
5.38707e-07
5.2739e-07
5.27431e-07
5.27445e-07
5.31058e-07
5.38831e-07
5.59542e-07
5.70175e-07
5.5456e-07
5.56344e-07
5.62015e-07
5.83935e-07
6.14034e-07
6.61586e-07
6.92362e-07
6.72327e-07
6.57677e-07
6.58875e-07
6.53447e-07
6.11464e-07
5.52833e-07
5.55379e-07
5.82455e-07
5.99008e-07
6.06739e-07
6.07801e-07
5.842e-07
5.10108e-07
5.04487e-07
4.71766e-07
4.43844e-07
4.30908e-07
4.11317e-07
3.84023e-07
0.999996
0.999995
0.999994
0.999993
0.999993
0.999992
0.999992
0.999991
0.999991
0.99999
0.99999
0.99999
0.99999
0.99999
0.99999
0.99999
0.99999
0.99999
0.99999
0.99999
0.99999
0.99999
0.99999
0.99999
0.99999
0.99999
0.99999
0.99999
0.99999
0.99999
0.99999
0.99999
0.99999
0.99999
0.99999
0.99999
0.99999
0.99999
0.99999
0.99999
0.99999
0.99999
0.99999
0.99999
0.99999
0.999989
0.999985
0.999972
0.999969
0.999981
0.999974
0.999941
0.9999
0.999878
0.999874
0.999871
0.999872
0.999871
0.999838
0.969681
0.0157077
3.26796e-05
5.25248e-07
5.48678e-07
5.28059e-07
6.19488e-07
6.58597e-07
6.08516e-07
5.4224e-07
8.19607e-07
1.4462e-06
8.94656e-07
5.61544e-07
5.9233e-07
6.69793e-07
7.26131e-07
7.23644e-07
7.51616e-07
7.94678e-07
8.00566e-07
7.11782e-07
6.04175e-07
5.32141e-07
5.38717e-07
5.88363e-07
6.43268e-07
6.29824e-07
6.00193e-07
5.47689e-07
5.1431e-07
5.72916e-07
5.86697e-07
5.2905e-07
4.65823e-07
3.99989e-07
3.59768e-07
0.999996
0.999996
0.999995
0.999994
0.999993
0.999992
0.999992
0.999991
0.999991
0.99999
0.99999
0.99999
0.99999
0.99999
0.99999
0.99999
0.99999
0.99999
0.99999
0.99999
0.99999
0.99999
0.99999
0.99999
0.99999
0.99999
0.99999
0.99999
0.99999
0.99999
0.99999
0.99999
0.99999
0.99999
0.99999
0.99999
0.99999
0.99999
0.99999
0.99999
0.99999
0.99999
0.99999
0.99999
0.99999
0.999989
0.999989
0.999985
0.999985
0.999986
0.999957
0.999903
0.999872
0.999869
0.999873
0.999874
0.999876
0.999871
0.999885
0.9259
0.00825284
4.40145e-05
2.63812e-05
1.62403e-05
1.4151e-05
1.35923e-05
1.56834e-05
1.73847e-05
1.91772e-05
2.02904e-05
2.05978e-05
2.06646e-05
2.06168e-05
2.05815e-05
1.84462e-05
1.45286e-05
1.02533e-05
6.47481e-06
3.94178e-06
2.22652e-06
1.20624e-06
8.0451e-07
7.95367e-07
6.76236e-07
4.4103e-07
4.38941e-07
4.3894e-07
4.38941e-07
4.38942e-07
4.38943e-07
4.38944e-07
5.31463e-07
4.79839e-07
4.22956e-07
3.9381e-07
3.50437e-07
0.999996
0.999996
0.999995
0.999995
0.999993
0.999992
0.999992
0.999991
0.999991
0.99999
0.99999
0.99999
0.99999
0.99999
0.99999
0.99999
0.99999
0.99999
0.99999
0.99999
0.99999
0.99999
0.99999
0.99999
0.99999
0.99999
0.99999
0.99999
0.99999
0.99999
0.99999
0.99999
0.99999
0.99999
0.99999
0.99999
0.99999
0.99999
0.99999
0.99999
0.99999
0.99999
0.99999
0.99999
0.99999
0.99999
0.999989
0.999989
0.999989
0.999986
0.999926
0.999874
0.999865
0.999876
0.999881
0.99988
0.999883
0.999882
0.999885
0.823579
0.00671215
0.00113845
0.000968353
0.000774184
0.000724288
0.000710396
0.000778151
0.000840769
0.000924422
0.00100578
0.00107578
0.00111944
0.00114193
0.00114726
0.00108216
0.000960244
0.00079129
0.00060883
0.000450065
0.000341269
0.000283011
0.00024233
0.000190507
0.000144832
0.000128901
0.000138283
0.000146173
0.000153771
0.000115119
9.83867e-05
5.95118e-05
2.95993e-05
1.06521e-05
2.36647e-06
3.153e-07
3.00503e-07
0.999996
0.999996
0.999995
0.999995
0.999994
0.999993
0.999992
0.999991
0.999991
0.999991
0.99999
0.99999
0.99999
0.99999
0.99999
0.99999
0.99999
0.99999
0.99999
0.99999
0.99999
0.99999
0.99999
0.99999
0.99999
0.99999
0.99999
0.99999
0.99999
0.99999
0.99999
0.99999
0.99999
0.99999
0.99999
0.99999
0.99999
0.99999
0.99999
0.99999
0.99999
0.99999
0.99999
0.99999
0.99999
0.999989
0.999988
0.999987
0.999987
0.99998
0.999905
0.999867
0.999868
0.999878
0.999881
0.999881
0.999883
0.999883
0.999885
0.744557
0.0150983
0.00704216
0.00696445
0.00651441
0.00638217
0.00624203
0.00622791
0.00642011
0.00670601
0.00709683
0.00752476
0.00786292
0.00806146
0.00814842
0.00806763
0.00740319
0.00667065
0.0057366
0.00474375
0.00362467
0.00248352
0.00175192
0.00163451
0.00163285
0.0019514
0.00219882
0.0024339
0.00259805
0.0025119
0.00243899
0.00189272
0.00139637
0.000905254
0.00044181
0.00014171
2.61775e-07
0.999997
0.999996
0.999996
0.999995
0.999994
0.999993
0.999992
0.999991
0.999991
0.999991
0.99999
0.99999
0.99999
0.99999
0.99999
0.99999
0.99999
0.99999
0.99999
0.99999
0.99999
0.99999
0.99999
0.99999
0.99999
0.99999
0.99999
0.99999
0.99999
0.99999
0.99999
0.99999
0.99999
0.99999
0.99999
0.99999
0.99999
0.99999
0.99999
0.99999
0.99999
0.99999
0.99999
0.99999
0.99999
0.999989
0.999986
0.999983
0.999982
0.999973
0.999906
0.999869
0.999869
0.999879
0.99988
0.99988
0.999881
0.999879
0.999885
0.634475
0.0227707
0.0165429
0.0171025
0.0172498
0.0172556
0.0172428
0.0173501
0.0176995
0.0180704
0.0184241
0.0186853
0.018833
0.0188299
0.0182832
0.017692
0.0172285
0.0168857
0.0167464
0.0167137
0.0168088
0.0171244
0.0176534
0.0184658
0.0196419
0.0209074
0.0222031
0.0232509
0.0242389
0.024896
0.0251336
0.0252571
0.0247119
0.024281
0.0226554
0.0204285
0.0170238
0.999997
0.999996
0.999996
0.999995
0.999994
0.999993
0.999992
0.999992
0.999991
0.999991
0.99999
0.99999
0.99999
0.99999
0.99999
0.99999
0.99999
0.99999
0.99999
0.99999
0.99999
0.99999
0.99999
0.99999
0.99999
0.99999
0.99999
0.99999
0.99999
0.99999
0.99999
0.99999
0.99999
0.99999
0.99999
0.99999
0.99999
0.99999
0.99999
0.99999
0.99999
0.99999
0.99999
0.99999
0.99999
0.999989
0.999984
0.999976
0.999972
0.999964
0.9999
0.99987
0.999876
0.999879
0.999879
0.999879
0.999879
0.999877
0.999885
0.702313
0.0215783
0.0135888
0.0135104
0.0132037
0.0129749
0.0128714
0.0130011
0.0130351
0.0129613
0.0128692
0.0126982
0.0124448
0.0121513
0.0118819
0.011787
0.0121449
0.0128466
0.0137183
0.01445
0.0150551
0.015596
0.0159291
0.0159684
0.0148571
0.0137895
0.0122511
0.0106719
0.0090617
0.00755175
0.00634768
0.00529365
0.00436504
0.00339847
0.00243442
0.00142622
0.000667388
0.999997
0.999997
0.999996
0.999996
0.999995
0.999994
0.999992
0.999992
0.999991
0.999991
0.99999
0.99999
0.99999
0.99999
0.99999
0.99999
0.99999
0.99999
0.99999
0.99999
0.99999
0.99999
0.99999
0.99999
0.99999
0.99999
0.99999
0.99999
0.99999
0.99999
0.99999
0.99999
0.99999
0.99999
0.99999
0.99999
0.99999
0.99999
0.99999
0.99999
0.99999
0.99999
0.99999
0.99999
0.99999
0.999987
0.999979
0.999969
0.99996
0.999939
0.99988
0.999875
0.999879
0.999879
0.999879
0.999878
0.999881
0.999876
0.999885
0.819304
0.0154973
0.00418379
0.00365264
0.00318524
0.00324346
0.00330142
0.00342287
0.0034716
0.00341628
0.00337286
0.00327579
0.00311516
0.0029136
0.00277833
0.00273843
0.00303797
0.00341036
0.00400363
0.00470046
0.00533554
0.00570714
0.00578382
0.00480856
0.00367167
0.00243649
0.00140359
0.000729186
0.00034493
0.000132986
5.19917e-05
1.81794e-05
8.5011e-06
4.55627e-06
2.86283e-06
1.48065e-06
5.08206e-07
0.999998
0.999997
0.999997
0.999996
0.999995
0.999994
0.999992
0.999992
0.999991
0.999991
0.99999
0.99999
0.99999
0.99999
0.99999
0.99999
0.99999
0.99999
0.99999
0.99999
0.99999
0.99999
0.99999
0.99999
0.99999
0.99999
0.99999
0.99999
0.99999
0.99999
0.99999
0.99999
0.99999
0.99999
0.99999
0.99999
0.99999
0.99999
0.99999
0.99999
0.99999
0.99999
0.99999
0.99999
0.999989
0.999985
0.999975
0.999963
0.999953
0.99994
0.999881
0.999878
0.99988
0.99988
0.999878
0.999875
0.999881
0.999873
0.999885
0.891268
0.00770307
0.000271064
0.000200246
0.000149138
0.000175876
0.000190858
0.000200324
0.000201224
0.0001953
0.000193401
0.000180301
0.000167589
0.000162719
0.000165467
0.000191292
0.000221636
0.000266054
0.000325776
0.000390023
0.000435538
0.000452104
0.000375894
0.00025494
0.000148902
5.82678e-05
1.6855e-05
3.67086e-06
1.01307e-06
5.1621e-07
5.1621e-07
5.1621e-07
5.23841e-07
5.42976e-07
5.34122e-07
4.2311e-07
3.37908e-07
0.999998
0.999997
0.999997
0.999997
0.999995
0.999994
0.999992
0.999991
0.999991
0.99999
0.99999
0.99999
0.99999
0.99999
0.99999
0.99999
0.99999
0.99999
0.99999
0.99999
0.99999
0.99999
0.99999
0.99999
0.99999
0.99999
0.99999
0.99999
0.99999
0.99999
0.99999
0.99999
0.99999
0.99999
0.99999
0.99999
0.99999
0.99999
0.99999
0.99999
0.99999
0.99999
0.99999
0.99999
0.999988
0.999983
0.999972
0.99996
0.99995
0.999943
0.999886
0.999878
0.999881
0.999881
0.999881
0.999875
0.999881
0.999872
0.999885
0.93165
0.0110261
2.45449e-06
1.33251e-06
6.28571e-07
6.28571e-07
6.2857e-07
7.85624e-07
8.70683e-07
6.89949e-07
1.01582e-06
2.02143e-06
1.77143e-06
1.1705e-06
1.09179e-06
1.54073e-06
2.18818e-06
3.01347e-06
4.06106e-06
4.99667e-06
5.33281e-06
4.17774e-06
2.56318e-06
1.66499e-06
1.00544e-06
5.85125e-07
4.64122e-07
4.64122e-07
5.36012e-07
5.76103e-07
5.87849e-07
5.93684e-07
5.95874e-07
6.0705e-07
5.36869e-07
3.76261e-07
2.76259e-07
0.999998
0.999998
0.999998
0.999997
0.999996
0.999995
0.999993
0.999991
0.999991
0.99999
0.99999
0.99999
0.99999
0.99999
0.99999
0.99999
0.99999
0.99999
0.99999
0.99999
0.99999
0.99999
0.99999
0.99999
0.99999
0.99999
0.99999
0.99999
0.99999
0.99999
0.99999
0.99999
0.99999
0.99999
0.99999
0.99999
0.99999
0.99999
0.99999
0.99999
0.99999
0.99999
0.99999
0.99999
0.999988
0.999982
0.99997
0.999957
0.999945
0.999933
0.9999
0.999879
0.99988
0.999881
0.999881
0.999879
0.999881
0.999874
0.999875
0.966661
0.0399508
6.29216e-07
6.29217e-07
6.72161e-07
6.67185e-07
6.9365e-07
6.96299e-07
7.00201e-07
7.02109e-07
6.90036e-07
6.77739e-07
6.52631e-07
6.24655e-07
6.24723e-07
6.24792e-07
6.2486e-07
6.58997e-07
7.44606e-07
7.34278e-07
6.97334e-07
7.15294e-07
7.65411e-07
8.43543e-07
8.09121e-07
6.8481e-07
5.65551e-07
5.32274e-07
5.43926e-07
5.56464e-07
5.67648e-07
5.82587e-07
5.99838e-07
6.27599e-07
6.46605e-07
5.87642e-07
3.34212e-07
0.999998
0.999998
0.999998
0.999998
0.999997
0.999996
0.999994
0.999992
0.999991
0.99999
0.99999
0.99999
0.99999
0.99999
0.99999
0.99999
0.99999
0.99999
0.99999
0.99999
0.99999
0.99999
0.99999
0.99999
0.99999
0.99999
0.99999
0.99999
0.99999
0.99999
0.99999
0.99999
0.99999
0.99999
0.99999
0.99999
0.99999
0.99999
0.99999
0.99999
0.99999
0.99999
0.99999
0.99999
0.999988
0.99998
0.999966
0.999952
0.99994
0.999929
0.999916
0.999888
0.999881
0.99988
0.999879
0.999877
0.999878
0.999872
0.999728
0.958856
0.0370156
9.80028e-06
6.29216e-07
6.62172e-07
6.58311e-07
6.55775e-07
6.56744e-07
6.5817e-07
6.58876e-07
6.5917e-07
6.56257e-07
6.49626e-07
6.43551e-07
6.40446e-07
6.38634e-07
6.37878e-07
6.38022e-07
6.3898e-07
6.39803e-07
6.4106e-07
6.43362e-07
6.45942e-07
6.50473e-07
6.65554e-07
6.70363e-07
6.63802e-07
6.5872e-07
6.6234e-07
6.70957e-07
6.72895e-07
6.69721e-07
6.60974e-07
6.59853e-07
6.58803e-07
6.16673e-07
3.80246e-07
0.999998
0.999997
0.999997
0.999997
0.999997
0.999996
0.999995
0.999992
0.999991
0.99999
0.99999
0.99999
0.99999
0.99999
0.99999
0.99999
0.99999
0.99999
0.99999
0.99999
0.99999
0.99999
0.99999
0.99999
0.99999
0.99999
0.99999
0.99999
0.99999
0.99999
0.99999
0.99999
0.99999
0.99999
0.99999
0.99999
0.99999
0.99999
0.99999
0.99999
0.99999
0.99999
0.99999
0.99999
0.999987
0.999978
0.999961
0.999947
0.999936
0.999928
0.999918
0.999902
0.999888
0.999882
0.999881
0.999879
0.999879
0.999874
0.999255
0.969655
0.0591151
0.000277759
8.13905e-07
6.87202e-07
6.56686e-07
6.38917e-07
6.33374e-07
6.33457e-07
6.36254e-07
6.37329e-07
6.36248e-07
6.31237e-07
6.30472e-07
6.30502e-07
6.30532e-07
6.30561e-07
6.32801e-07
6.38232e-07
6.42872e-07
6.45203e-07
6.47126e-07
6.46954e-07
6.47565e-07
6.49279e-07
6.50841e-07
6.49838e-07
6.4733e-07
6.44319e-07
6.41808e-07
6.42411e-07
6.43185e-07
6.45046e-07
6.49107e-07
6.35636e-07
5.7855e-07
3.47824e-07
0.999998
0.999998
0.999997
0.999997
0.999997
0.999996
0.999995
0.999993
0.999991
0.99999
0.99999
0.99999
0.99999
0.99999
0.99999
0.99999
0.99999
0.99999
0.99999
0.99999
0.99999
0.99999
0.99999
0.99999
0.99999
0.99999
0.99999
0.99999
0.99999
0.99999
0.99999
0.99999
0.99999
0.99999
0.99999
0.99999
0.99999
0.99999
0.99999
0.99999
0.99999
0.99999
0.99999
0.99999
0.999987
0.99998
0.999967
0.99995
0.999934
0.999923
0.999914
0.999905
0.999895
0.999887
0.999885
0.999882
0.999878
0.999872
0.998462
0.955899
0.0729452
0.000981711
3.83173e-06
6.2885e-07
6.28855e-07
6.28861e-07
6.28865e-07
6.29325e-07
6.30218e-07
6.30519e-07
6.3056e-07
6.31151e-07
6.3281e-07
6.34647e-07
6.36626e-07
6.3685e-07
6.37298e-07
6.37778e-07
6.3859e-07
6.40918e-07
6.4366e-07
6.44142e-07
6.4374e-07
6.4469e-07
6.44356e-07
6.42552e-07
6.42858e-07
6.44096e-07
6.46055e-07
6.48867e-07
6.48787e-07
6.49089e-07
6.48962e-07
5.83467e-07
3.70825e-07
2.75637e-07
0.999996
0.999995
0.999994
0.999994
0.999993
0.999992
0.999991
0.999991
0.99999
0.99999
0.99999
0.99999
0.99999
0.99999
0.99999
0.99999
0.99999
0.99999
0.99999
0.99999
0.99999
0.99999
0.99999
0.99999
0.99999
0.99999
0.99999
0.99999
0.99999
0.99999
0.99999
0.99999
0.99999
0.99999
0.99999
0.99999
0.99999
0.99999
0.99999
0.99999
0.99999
0.99999
0.99999
0.99999
0.999989
0.999983
0.999965
0.999938
0.999924
0.999922
0.999927
0.999928
0.999925
0.999913
0.999906
0.999892
0.999893
0.999826
0.999023
0.96027
0.0630513
0.000434133
9.41779e-07
5.2743e-07
5.29383e-07
5.29179e-07
5.28677e-07
5.29599e-07
5.31907e-07
5.33485e-07
5.34737e-07
5.36412e-07
5.38147e-07
5.40097e-07
5.43014e-07
5.48742e-07
5.87442e-07
6.3355e-07
6.19108e-07
6.02573e-07
5.8142e-07
5.53756e-07
5.27851e-07
4.99501e-07
4.69888e-07
4.46317e-07
4.36027e-07
4.35303e-07
4.33684e-07
4.4877e-07
4.80837e-07
5.07601e-07
5.1359e-07
5.04765e-07
4.28998e-07
3.89686e-07
0.999997
0.999996
0.999994
0.999993
0.999992
0.999992
0.999991
0.999991
0.999991
0.99999
0.99999
0.99999
0.99999
0.99999
0.99999
0.99999
0.99999
0.99999
0.99999
0.99999
0.99999
0.99999
0.99999
0.99999
0.99999
0.99999
0.99999
0.99999
0.99999
0.99999
0.99999
0.99999
0.99999
0.99999
0.99999
0.99999
0.99999
0.99999
0.99999
0.99999
0.99999
0.99999
0.99999
0.99999
0.999989
0.999985
0.999967
0.999942
0.999931
0.999937
0.99995
0.99995
0.999945
0.999931
0.999924
0.999911
0.999906
0.999888
0.999663
0.954969
0.0350395
3.69647e-05
5.25226e-07
5.31034e-07
5.27431e-07
5.27446e-07
5.27464e-07
5.27595e-07
5.27613e-07
5.2763e-07
5.27729e-07
5.33046e-07
5.397e-07
5.47135e-07
5.49039e-07
5.53589e-07
5.92721e-07
6.46333e-07
6.33896e-07
6.35121e-07
6.3239e-07
6.06361e-07
5.80623e-07
5.67747e-07
5.71566e-07
5.76712e-07
5.73846e-07
5.50701e-07
5.11882e-07
4.81612e-07
4.79942e-07
4.97076e-07
5.07992e-07
5.31047e-07
5.16702e-07
4.56009e-07
0.999997
0.999996
0.999994
0.999993
0.999992
0.999992
0.999992
0.999991
0.999991
0.999991
0.99999
0.99999
0.99999
0.99999
0.99999
0.99999
0.99999
0.99999
0.99999
0.99999
0.99999
0.99999
0.99999
0.99999
0.99999
0.99999
0.99999
0.99999
0.99999
0.99999
0.99999
0.99999
0.99999
0.99999
0.99999
0.99999
0.99999
0.99999
0.99999
0.99999
0.99999
0.99999
0.99999
0.99999
0.99999
0.999989
0.99998
0.999953
0.999938
0.999952
0.999961
0.999953
0.999934
0.999916
0.999908
0.999897
0.999899
0.999891
0.999816
0.940726
0.0210601
5.25215e-07
5.63032e-07
5.61588e-07
5.40893e-07
5.34585e-07
5.35957e-07
5.34201e-07
5.3524e-07
5.51278e-07
5.76116e-07
5.76499e-07
5.72673e-07
5.56885e-07
5.59035e-07
5.84009e-07
6.32419e-07
6.39819e-07
5.97759e-07
5.78489e-07
5.68639e-07
5.51928e-07
5.29968e-07
5.29326e-07
5.37486e-07
5.41174e-07
5.42928e-07
5.49178e-07
5.594e-07
5.51835e-07
5.52933e-07
5.13651e-07
4.90225e-07
5.32362e-07
5.03256e-07
4.29236e-07
0.999997
0.999997
0.999995
0.999994
0.999993
0.999992
0.999992
0.999991
0.999991
0.999991
0.99999
0.99999
0.99999
0.99999
0.99999
0.99999
0.99999
0.99999
0.99999
0.99999
0.99999
0.99999
0.99999
0.99999
0.99999
0.99999
0.99999
0.99999
0.99999
0.99999
0.99999
0.99999
0.99999
0.99999
0.99999
0.99999
0.99999
0.99999
0.99999
0.99999
0.99999
0.99999
0.99999
0.99999
0.99999
0.999989
0.999987
0.999967
0.999957
0.999972
0.999963
0.999928
0.999899
0.999884
0.999881
0.99988
0.999886
0.999883
0.999885
0.945633
0.0196352
5.25215e-07
1.97435e-06
7.10751e-07
1.01382e-06
5.34553e-07
7.33916e-07
5.7183e-07
5.39512e-07
5.43594e-07
5.43335e-07
5.43869e-07
5.90502e-07
6.86356e-07
7.46402e-07
8.26846e-07
8.94205e-07
8.77766e-07
8.03973e-07
7.75172e-07
7.12556e-07
6.24988e-07
5.2892e-07
5.28919e-07
5.59745e-07
6.19495e-07
5.73789e-07
5.0435e-07
5.06982e-07
5.31831e-07
9.48864e-07
9.78994e-07
6.88954e-07
5.73213e-07
4.50021e-07
3.99854e-07
0.999997
0.999997
0.999996
0.999994
0.999993
0.999993
0.999992
0.999991
0.999991
0.999991
0.99999
0.99999
0.99999
0.99999
0.99999
0.99999
0.99999
0.99999
0.99999
0.99999
0.99999
0.99999
0.99999
0.99999
0.99999
0.99999
0.99999
0.99999
0.99999
0.99999
0.99999
0.99999
0.99999
0.99999
0.99999
0.99999
0.99999
0.99999
0.99999
0.99999
0.99999
0.99999
0.99999
0.99999
0.99999
0.999989
0.999988
0.999979
0.999982
0.999975
0.999927
0.999886
0.999871
0.999871
0.999872
0.999872
0.999878
0.999875
0.999885
0.86457
0.00489103
0.000155704
0.000109925
5.92477e-05
4.35674e-05
3.12086e-05
2.72412e-05
2.75092e-05
2.89403e-05
2.99103e-05
3.07415e-05
3.09144e-05
3.09596e-05
2.90805e-05
2.94942e-05
2.54904e-05
2.04306e-05
1.46596e-05
1.33096e-05
1.38307e-05
1.23282e-05
1.17945e-05
1.12696e-05
1.15674e-05
1.20512e-05
1.04451e-05
1.07185e-05
1.08214e-05
8.15384e-06
6.55847e-06
5.44439e-06
3.01929e-06
1.72285e-06
8.99717e-07
3.73656e-07
3.74126e-07
0.999997
0.999998
0.999996
0.999995
0.999994
0.999993
0.999992
0.999992
0.999991
0.999991
0.99999
0.99999
0.99999
0.99999
0.99999
0.99999
0.99999
0.99999
0.99999
0.99999
0.99999
0.99999
0.99999
0.99999
0.99999
0.99999
0.99999
0.99999
0.99999
0.99999
0.99999
0.99999
0.99999
0.99999
0.99999
0.99999
0.99999
0.99999
0.99999
0.99999
0.99999
0.99999
0.99999
0.99999
0.999989
0.999988
0.999986
0.999984
0.999983
0.999944
0.999879
0.999866
0.999866
0.999874
0.999878
0.999878
0.999881
0.99988
0.999885
0.791377
0.014533
0.00451098
0.00397076
0.00313419
0.00265346
0.00229672
0.0021716
0.00232102
0.0024913
0.00269785
0.00290694
0.00308411
0.00318615
0.00320215
0.00319892
0.00292185
0.00267465
0.00232282
0.00190692
0.00164742
0.0016239
0.00177519
0.00198931
0.00227354
0.00240039
0.0024308
0.00251901
0.00260507
0.00266718
0.0021335
0.00160855
0.001082
0.000600727
0.00019103
1.85976e-05
2.35535e-07
0.999998
0.999998
0.999997
0.999996
0.999994
0.999993
0.999992
0.999992
0.999991
0.999991
0.99999
0.99999
0.99999
0.99999
0.99999
0.99999
0.99999
0.99999
0.99999
0.99999
0.99999
0.99999
0.99999
0.99999
0.99999
0.99999
0.99999
0.99999
0.99999
0.99999
0.99999
0.99999
0.99999
0.99999
0.99999
0.99999
0.99999
0.99999
0.99999
0.99999
0.99999
0.99999
0.99999
0.99999
0.999989
0.999987
0.999984
0.999979
0.999972
0.999912
0.999866
0.999864
0.999866
0.999877
0.99988
0.99988
0.99988
0.999878
0.999885
0.595293
0.0261798
0.0206267
0.0209211
0.0205981
0.020491
0.0207769
0.021358
0.021904
0.0224489
0.0228055
0.0230545
0.0232134
0.0233412
0.0232962
0.0230802
0.0231182
0.0233931
0.0236972
0.0235943
0.0229604
0.0228013
0.0233577
0.0245375
0.0259173
0.0273645
0.0290218
0.0306423
0.0321297
0.0326851
0.0321526
0.0307862
0.0279215
0.0239343
0.0174061
0.00832051
2.35534e-07
0.999998
0.999998
0.999997
0.999996
0.999995
0.999994
0.999993
0.999992
0.999991
0.999991
0.99999
0.99999
0.99999
0.99999
0.99999
0.99999
0.99999
0.99999
0.99999
0.99999
0.99999
0.99999
0.99999
0.99999
0.99999
0.99999
0.99999
0.99999
0.99999
0.99999
0.99999
0.99999
0.99999
0.99999
0.99999
0.99999
0.99999
0.99999
0.99999
0.99999
0.99999
0.99999
0.99999
0.99999
0.999988
0.999986
0.999982
0.999973
0.999961
0.999915
0.999865
0.999865
0.999869
0.999876
0.99988
0.999879
0.999881
0.999871
0.999885
0.463608
0.0283593
0.025741
0.0257168
0.0257289
0.0257949
0.0264747
0.0276034
0.0288901
0.0298832
0.0305255
0.0308452
0.0309735
0.0311497
0.0317279
0.0329768
0.035203
0.0380501
0.0405062
0.0427939
0.0451648
0.0474327
0.0489882
0.0496167
0.0503075
0.0530318
0.0564346
0.0600115
0.0625903
0.0674157
0.0737153
0.0809449
0.0898393
0.102084
0.123167
0.172671
0.371747
0.999998
0.999998
0.999998
0.999997
0.999996
0.999994
0.999993
0.999992
0.999991
0.999991
0.99999
0.99999
0.99999
0.99999
0.99999
0.99999
0.99999
0.99999
0.99999
0.99999
0.99999
0.99999
0.99999
0.99999
0.99999
0.99999
0.99999
0.99999
0.99999
0.99999
0.99999
0.99999
0.99999
0.99999
0.99999
0.99999
0.99999
0.99999
0.99999
0.99999
0.99999
0.99999
0.99999
0.99999
0.999988
0.999985
0.99998
0.999969
0.999954
0.99993
0.999872
0.999868
0.999874
0.999877
0.999875
0.999868
0.999871
0.999864
0.999885
0.746674
0.0177967
0.00736049
0.00669993
0.00616123
0.00588674
0.00571173
0.00538268
0.00516558
0.00501082
0.00490027
0.00484568
0.00489422
0.00535135
0.00586297
0.00657427
0.00740441
0.00842579
0.00970672
0.0109103
0.0114349
0.0113989
0.0101939
0.0090264
0.00678906
0.00430633
0.00247061
0.002276
0.00224487
0.00238209
0.00256561
0.00280256
0.00318396
0.00396529
0.00513893
0.00662768
0.00734998
0.999998
0.999998
0.999998
0.999998
0.999997
0.999995
0.999993
0.999992
0.999991
0.999991
0.99999
0.99999
0.99999
0.99999
0.99999
0.99999
0.99999
0.99999
0.99999
0.99999
0.99999
0.99999
0.99999
0.99999
0.99999
0.99999
0.99999
0.99999
0.99999
0.99999
0.99999
0.99999
0.99999
0.99999
0.99999
0.99999
0.99999
0.99999
0.99999
0.99999
0.99999
0.99999
0.99999
0.99999
0.999988
0.999985
0.999978
0.999966
0.99995
0.999932
0.999875
0.999873
0.999877
0.999877
0.999872
0.999869
0.999879
0.999861
0.999885
0.843309
0.0103473
0.00198093
0.00191653
0.00184028
0.00185611
0.00187536
0.00178825
0.0016596
0.00149433
0.0012684
0.00106817
0.000918142
0.000862034
0.000998511
0.00121588
0.00150002
0.00182142
0.00215533
0.00241594
0.00251736
0.00211051
0.00153674
0.000972062
0.000452047
0.000135415
4.67872e-05
2.67119e-05
1.21147e-05
6.75064e-06
4.55351e-06
2.74432e-06
1.47987e-06
8.91143e-07
6.56129e-07
4.24227e-07
2.95521e-07
0.999998
0.999998
0.999998
0.999998
0.999997
0.999995
0.999993
0.999992
0.999991
0.999991
0.99999
0.99999
0.99999
0.99999
0.99999
0.99999
0.99999
0.99999
0.99999
0.99999
0.99999
0.99999
0.99999
0.99999
0.99999
0.99999
0.99999
0.99999
0.99999
0.99999
0.99999
0.99999
0.99999
0.99999
0.99999
0.99999
0.99999
0.99999
0.99999
0.99999
0.99999
0.99999
0.99999
0.99999
0.999988
0.999984
0.999977
0.999964
0.999947
0.999932
0.999881
0.999877
0.999879
0.999876
0.999874
0.999873
0.999881
0.999866
0.999885
0.91153
0.00831016
0.000197468
0.000194767
0.00014482
0.000145682
0.000140317
0.000147109
0.000137989
0.000121702
0.00010695
9.47694e-05
8.748e-05
8.56619e-05
0.000100012
0.000120098
0.000148588
0.000181122
0.000210802
0.000225113
0.000223071
0.000164114
0.000105005
5.10248e-05
1.83696e-05
4.39789e-06
9.40068e-07
5.67555e-07
5.9533e-07
5.26769e-07
5.39262e-07
5.3569e-07
5.81824e-07
6.38608e-07
5.50255e-07
4.72942e-07
3.45424e-07
0.999998
0.999998
0.999998
0.999998
0.999998
0.999996
0.999994
0.999992
0.999991
0.999991
0.99999
0.99999
0.99999
0.99999
0.99999
0.99999
0.99999
0.99999
0.99999
0.99999
0.99999
0.99999
0.99999
0.99999
0.99999
0.99999
0.99999
0.99999
0.99999
0.99999
0.99999
0.99999
0.99999
0.99999
0.99999
0.99999
0.99999
0.99999
0.99999
0.99999
0.99999
0.99999
0.99999
0.99999
0.999988
0.999984
0.999975
0.999962
0.999945
0.999931
0.999894
0.999877
0.99988
0.99988
0.99988
0.999876
0.999881
0.999867
0.9998
0.955321
0.038636
6.29216e-07
1.18017e-05
3.57838e-06
3.47246e-06
3.15115e-06
3.23037e-06
3.10627e-06
3.033e-06
3.06562e-06
3.11999e-06
3.04496e-06
3.23434e-06
3.75723e-06
4.30404e-06
4.79941e-06
5.1559e-06
5.30965e-06
4.79204e-06
3.81928e-06
2.30726e-06
1.13613e-06
7.99115e-07
8.08359e-07
6.45619e-07
6.02763e-07
5.5707e-07
6.27981e-07
6.45328e-07
6.43198e-07
6.39159e-07
6.32451e-07
6.2623e-07
6.00418e-07
5.24646e-07
3.83384e-07
0.999998
0.999998
0.999999
0.999999
0.999998
0.999997
0.999994
0.999992
0.999991
0.999991
0.99999
0.99999
0.99999
0.99999
0.99999
0.99999
0.99999
0.99999
0.99999
0.99999
0.99999
0.99999
0.99999
0.99999
0.99999
0.99999
0.99999
0.99999
0.99999
0.99999
0.99999
0.99999
0.99999
0.99999
0.99999
0.99999
0.99999
0.99999
0.99999
0.99999
0.99999
0.99999
0.99999
0.99999
0.999988
0.999983
0.999974
0.999959
0.999942
0.999927
0.999913
0.999882
0.999879
0.999879
0.999879
0.999876
0.999882
0.999858
0.999642
0.969614
0.0546474
6.29216e-07
1.10821e-06
7.63943e-07
7.05835e-07
7.94378e-07
8.04171e-07
8.39072e-07
8.25692e-07
7.26122e-07
6.24786e-07
6.24789e-07
6.24722e-07
6.24789e-07
6.37862e-07
6.60089e-07
6.82988e-07
7.12106e-07
7.34997e-07
7.67174e-07
8.32154e-07
9.45466e-07
9.24607e-07
8.77185e-07
7.71189e-07
6.68191e-07
6.09697e-07
6.1274e-07
6.21717e-07
6.23091e-07
6.22938e-07
6.26556e-07
6.41252e-07
6.47757e-07
6.0276e-07
4.04532e-07
0.999998
0.999998
0.999998
0.999999
0.999999
0.999998
0.999996
0.999993
0.999991
0.99999
0.99999
0.99999
0.99999
0.99999
0.99999
0.99999
0.99999
0.99999
0.99999
0.99999
0.99999
0.99999
0.99999
0.99999
0.99999
0.99999
0.99999
0.99999
0.99999
0.99999
0.99999
0.99999
0.99999
0.99999
0.99999
0.99999
0.99999
0.99999
0.99999
0.99999
0.99999
0.99999
0.99999
0.99999
0.999988
0.999982
0.999971
0.999955
0.999938
0.999925
0.999914
0.999898
0.999881
0.999879
0.99988
0.999881
0.999884
0.999842
0.999337
0.961118
0.0516721
6.29216e-07
6.46574e-07
6.8295e-07
6.73665e-07
6.89097e-07
6.9982e-07
6.94456e-07
7.03563e-07
7.12471e-07
6.97948e-07
6.71483e-07
6.51967e-07
6.4196e-07
6.39187e-07
6.42558e-07
6.44615e-07
6.42623e-07
6.35507e-07
6.30618e-07
6.35341e-07
6.41193e-07
6.43603e-07
6.50259e-07
6.63505e-07
6.59165e-07
6.62785e-07
6.67131e-07
6.6836e-07
6.67946e-07
6.66456e-07
6.6439e-07
6.61232e-07
6.5741e-07
6.14206e-07
4.01334e-07
0.999998
0.999998
0.999998
0.999998
0.999998
0.999999
0.999998
0.999995
0.999991
0.99999
0.99999
0.99999
0.99999
0.99999
0.99999
0.99999
0.99999
0.99999
0.99999
0.99999
0.99999
0.99999
0.99999
0.99999
0.99999
0.99999
0.99999
0.99999
0.99999
0.99999
0.99999
0.99999
0.99999
0.99999
0.99999
0.99999
0.99999
0.99999
0.99999
0.99999
0.99999
0.99999
0.99999
0.99999
0.999987
0.99998
0.999967
0.999951
0.999934
0.999922
0.999913
0.999903
0.999889
0.999888
0.99989
0.999889
0.999884
0.999829
0.999173
0.954224
0.0405249
8.40629e-06
6.28874e-07
6.42198e-07
6.33539e-07
6.34648e-07
6.36403e-07
6.39756e-07
6.53501e-07
6.61614e-07
6.58278e-07
6.48361e-07
6.3975e-07
6.36469e-07
6.35094e-07
6.35512e-07
6.3752e-07
6.4324e-07
6.44994e-07
6.44912e-07
6.4303e-07
6.44031e-07
6.44747e-07
6.36796e-07
6.24679e-07
6.246e-07
6.25628e-07
6.27676e-07
6.31115e-07
6.36355e-07
6.4227e-07
6.45099e-07
6.38521e-07
6.08288e-07
5.46423e-07
3.25912e-07
0.999998
0.999998
0.999998
0.999998
0.999998
0.999998
0.999998
0.999996
0.999991
0.99999
0.99999
0.99999
0.99999
0.99999
0.99999
0.99999
0.99999
0.99999
0.99999
0.99999
0.99999
0.99999
0.99999
0.99999
0.99999
0.99999
0.99999
0.99999
0.99999
0.99999
0.99999
0.99999
0.99999
0.99999
0.99999
0.99999
0.99999
0.99999
0.99999
0.99999
0.99999
0.99999
0.99999
0.99999
0.999988
0.999981
0.99997
0.999953
0.999936
0.999923
0.999913
0.999905
0.999899
0.999893
0.99989
0.999884
0.999879
0.999854
0.998957
0.95889
0.0597578
0.000469764
1.13785e-06
6.28854e-07
6.30618e-07
6.30398e-07
6.30197e-07
6.30025e-07
6.29074e-07
6.29026e-07
6.29026e-07
6.2925e-07
6.3126e-07
6.36277e-07
6.39465e-07
6.37929e-07
6.37033e-07
6.36874e-07
6.39122e-07
6.45007e-07
6.41031e-07
6.32834e-07