/*--------------------------------*- C++ -*----------------------------------*\
| =========                 |                                                 |
| \\      /  F ield         | OpenFOAM: The Open Source CFD Toolbox           |
|  \\    /   O peration     | Version:  2.3.0                                 |
|   \\  /    A nd           | Web:      www.OpenFOAM.org                      |
|    \\/     M anipulation  |                                                 |
\*---------------------------------------------------------------------------*/
FoamFile
{
    version     2.0;
    format      ascii;
    class       volScalarField;
    location    "34";
    object      alpha.water;
}
// * * * * * * * * * * * * * * * * * * * * * * * * * * * * * * * * * * * * * //

dimensions      [0 0 0 0 0 0 0];

internalField   nonuniform List<scalar> 
6144
(
5.18186e-06
5.9009e-06
6.32812e-06
6.74383e-06
7.18807e-06
7.77278e-06
8.49435e-06
9.46047e-06
9.92273e-06
9.98612e-06
9.99006e-06
9.99327e-06
9.99548e-06
9.99671e-06
9.99632e-06
9.99701e-06
9.99618e-06
9.99691e-06
9.99636e-06
9.99679e-06
9.99647e-06
9.99658e-06
9.99643e-06
9.99638e-06
9.99615e-06
9.99566e-06
9.99507e-06
9.99492e-06
9.99471e-06
9.99472e-06
9.99427e-06
9.99467e-06
9.99371e-06
9.99482e-06
9.9931e-06
9.99536e-06
9.99238e-06
9.99587e-06
9.99078e-06
9.99503e-06
9.98881e-06
9.99413e-06
9.98702e-06
9.99495e-06
9.98507e-06
9.99675e-06
9.9871e-06
1.0038e-05
1.11161e-05
1.58251e-05
2.26653e-05
3.18071e-05
4.35329e-05
6.31921e-05
8.37696e-05
0.000134867
0.000158381
0.000213384
0.000987286
0.0717435
0.973285
0.999927
0.999999
0.999999
0.999999
0.999999
0.999999
0.999999
0.999999
0.999999
0.999999
0.999999
0.999999
0.999999
0.999999
0.999999
0.999999
0.999999
0.999999
0.999999
0.999999
0.999999
0.999999
0.999999
0.999999
0.999999
0.999999
0.999999
0.999999
0.999999
0.999999
0.999999
0.999999
1
1
1
4.67844e-06
5.65172e-06
6.47893e-06
6.97903e-06
7.57676e-06
8.12195e-06
8.7545e-06
9.55769e-06
9.94759e-06
9.98739e-06
9.98808e-06
9.99176e-06
9.99883e-06
1.00023e-05
1.00027e-05
1.00032e-05
1.00025e-05
1.00027e-05
1.00022e-05
1.00021e-05
1.00016e-05
1.00016e-05
1.00014e-05
1.00013e-05
1.00011e-05
1.00009e-05
1.00008e-05
1.00009e-05
1.00011e-05
1.00012e-05
1.0001e-05
1.00014e-05
1.0001e-05
1.0002e-05
1.00011e-05
1.00029e-05
1.00007e-05
1.00039e-05
9.99974e-06
1.0004e-05
9.99868e-06
1.00045e-05
9.99769e-06
1.00063e-05
9.99645e-06
1.00104e-05
9.99686e-06
1.00581e-05
1.03728e-05
1.31697e-05
2.04934e-05
3.38666e-05
5.01004e-05
7.23213e-05
8.95238e-05
0.000113298
0.000173451
0.000285919
0.0003425
0.118282
0.984101
0.999997
0.999999
0.999999
0.999999
0.999999
0.999999
0.999999
0.999999
0.999999
0.999999
0.999999
0.999999
0.999999
0.999999
0.999999
0.999999
0.999999
0.999999
0.999999
0.999999
0.999999
0.999999
0.999999
0.999999
0.999999
0.999999
0.999999
0.999999
0.999999
0.999999
0.999999
0.999999
0.999999
1
1
4.31844e-06
5.22508e-06
6.19813e-06
6.81117e-06
7.62152e-06
8.17484e-06
8.79011e-06
9.42643e-06
9.83058e-06
9.91056e-06
9.93415e-06
9.96698e-06
9.98983e-06
1.00005e-05
1.00029e-05
1.00035e-05
1.00031e-05
1.00033e-05
1.0003e-05
1.00029e-05
1.00026e-05
1.00025e-05
1.00022e-05
1.00021e-05
1.00018e-05
1.00016e-05
1.00015e-05
1.00016e-05
1.00016e-05
1.00016e-05
1.00015e-05
1.00018e-05
1.00016e-05
1.00024e-05
1.00017e-05
1.0003e-05
1.00013e-05
1.0003e-05
1.00002e-05
1.00034e-05
9.99899e-06
1.0005e-05
9.99832e-06
1.00068e-05
9.99754e-06
1.00121e-05
9.99522e-06
1.00695e-05
1.02226e-05
1.16152e-05
1.81396e-05
3.63093e-05
5.27953e-05
7.76849e-05
0.000106193
0.000123425
0.000146556
0.000256177
7.81009e-05
0.179466
0.998046
0.999921
0.999945
0.99997
0.999975
0.999975
0.999974
0.999977
0.999984
0.999991
0.999995
0.999997
0.999997
0.999998
0.999999
0.999999
0.999999
0.999999
0.999999
0.999999
0.999999
0.999999
0.999999
0.999999
0.999999
0.999999
0.999999
0.999999
0.999999
0.999999
0.999999
0.999999
0.999999
0.999999
1
1
4.05004e-06
4.7875e-06
5.83234e-06
6.43941e-06
7.25422e-06
7.8369e-06
8.53111e-06
9.25358e-06
9.75236e-06
9.86806e-06
9.90732e-06
9.95421e-06
9.98369e-06
9.9968e-06
9.99985e-06
1.00007e-05
1.00003e-05
1.00005e-05
1.00003e-05
1.00003e-05
9.99998e-06
9.99982e-06
9.99945e-06
9.9991e-06
9.99866e-06
9.9983e-06
9.99805e-06
9.99793e-06
9.99781e-06
9.9978e-06
9.99772e-06
9.99793e-06
9.99792e-06
9.99862e-06
9.99834e-06
9.99937e-06
9.99841e-06
9.99986e-06
9.99765e-06
1.00007e-05
9.99691e-06
1.00024e-05
9.9963e-06
1.00045e-05
9.99517e-06
1.001e-05
9.99383e-06
1.00641e-05
1.02049e-05
1.14408e-05
1.66881e-05
3.73298e-05
5.5081e-05
8.5847e-05
0.00012133
0.000134096
0.000145882
0.000185166
9.99334e-06
0.258286
0.995806
0.998612
0.998862
0.999048
0.999028
0.998802
0.998774
0.999056
0.999343
0.999552
0.999651
0.999684
0.99971
0.999813
0.999926
0.999967
0.999984
0.999993
0.999998
0.999999
0.999999
0.999999
0.999999
0.999999
0.999999
0.999999
0.999999
0.999999
0.999999
0.999999
0.999999
0.999999
0.999999
0.999999
1
1
3.85018e-06
4.39545e-06
5.43795e-06
6.04521e-06
6.92093e-06
7.53831e-06
8.32122e-06
9.00994e-06
9.66414e-06
9.8449e-06
9.90061e-06
9.95771e-06
9.98718e-06
9.99922e-06
1.00022e-05
1.00031e-05
1.00029e-05
1.00034e-05
1.00035e-05
1.00036e-05
1.00035e-05
1.00035e-05
1.00032e-05
1.0003e-05
1.00026e-05
1.00022e-05
1.00018e-05
1.00015e-05
1.00012e-05
1.0001e-05
1.00006e-05
1.00006e-05
1.00001e-05
1.00006e-05
9.99992e-06
1.00008e-05
9.99953e-06
1.00008e-05
9.99833e-06
1.00014e-05
9.99728e-06
1.0003e-05
9.99652e-06
1.00057e-05
9.99664e-06
1.0011e-05
9.99383e-06
1.00537e-05
1.02814e-05
1.15642e-05
1.68937e-05
3.8099e-05
6.19881e-05
0.000102323
0.000134098
0.000139187
0.000132312
0.000145547
9.99334e-06
0.331232
0.989236
0.994235
0.994353
0.994251
0.993651
0.992608
0.992374
0.993272
0.995095
0.995798
0.996059
0.996231
0.996169
0.996923
0.998065
0.998508
0.998916
0.999413
0.999781
0.999938
0.999985
0.999997
0.999999
0.999999
0.999999
0.999999
0.999999
0.999999
0.999999
0.999999
0.999999
0.999999
0.999999
0.999999
1
1
3.72474e-06
4.10644e-06
5.03947e-06
5.595e-06
6.49223e-06
7.14992e-06
8.0073e-06
8.71619e-06
9.53334e-06
9.83015e-06
9.88811e-06
9.95312e-06
9.98264e-06
9.99375e-06
9.9962e-06
9.99715e-06
9.99682e-06
9.99722e-06
9.99743e-06
9.99787e-06
9.99804e-06
9.99826e-06
9.99829e-06
9.99826e-06
9.99807e-06
9.99783e-06
9.99762e-06
9.99751e-06
9.99736e-06
9.9973e-06
9.99703e-06
9.9971e-06
9.9967e-06
9.9972e-06
9.9966e-06
9.99749e-06
9.99643e-06
9.99759e-06
9.99544e-06
9.99813e-06
9.99465e-06
9.99968e-06
9.99453e-06
1.00021e-05
9.99581e-06
1.00075e-05
9.99383e-06
1.0106e-05
1.04561e-05
1.19446e-05
1.76736e-05
3.57338e-05
5.95853e-05
0.000102639
0.000140663
0.0001571
0.000153971
0.000162434
9.99335e-06
0.349511
0.98257
0.98868
0.988917
0.988628
0.987397
0.985399
0.98489
0.984975
0.986147
0.98634
0.986679
0.988155
0.988758
0.989134
0.989502
0.989938
0.991293
0.994015
0.996392
0.997908
0.998891
0.999499
0.99983
0.999957
0.999993
0.999999
1
0.999999
0.999999
0.999999
1
1
1
1
1
1
3.6479e-06
3.91552e-06
4.65278e-06
5.13521e-06
6.03102e-06
6.72721e-06
7.68167e-06
8.44871e-06
9.29196e-06
9.7827e-06
9.85989e-06
9.94826e-06
9.98602e-06
9.99863e-06
1.00015e-05
1.00027e-05
1.0002e-05
1.00019e-05
1.00015e-05
1.0001e-05
1.00005e-05
1.00003e-05
1.00001e-05
9.99987e-06
9.99954e-06
9.99917e-06
9.99885e-06
9.99864e-06
9.99844e-06
9.99836e-06
9.99814e-06
9.99821e-06
9.99787e-06
9.99834e-06
9.99778e-06
9.99852e-06
9.99756e-06
9.99839e-06
9.99652e-06
9.99876e-06
9.9958e-06
1.00003e-05
9.99584e-06
1.0003e-05
9.99736e-06
1.00097e-05
9.99617e-06
1.01607e-05
1.06275e-05
1.25602e-05
1.97662e-05
3.55427e-05
5.25498e-05
7.17396e-05
0.000112394
0.000153724
0.000155242
0.000194118
9.99335e-06
0.333249
0.976779
0.984616
0.984598
0.985791
0.98494
0.979882
0.979232
0.982209
0.983263
0.983379
0.98394
0.983893
0.982359
0.980892
0.980435
0.980552
0.982047
0.984609
0.986735
0.988577
0.990637
0.992575
0.994651
0.996677
0.998284
0.999365
0.999906
0.999991
0.999978
0.999997
0.999996
0.999973
0.999937
0.999907
0.999898
0.999962
3.5929e-06
3.81907e-06
4.2939e-06
4.70555e-06
5.60339e-06
6.33184e-06
7.43665e-06
8.3488e-06
9.06473e-06
9.67091e-06
9.80823e-06
9.93e-06
9.98092e-06
9.99783e-06
1.0001e-05
1.00025e-05
1.0002e-05
1.00018e-05
1.00015e-05
1.00018e-05
1.00019e-05
1.00021e-05
1.00021e-05
1.00022e-05
1.00021e-05
1.00022e-05
1.00021e-05
1.00021e-05
1.00021e-05
1.00022e-05
1.00021e-05
1.00021e-05
1.0002e-05
1.00023e-05
1.0002e-05
1.00025e-05
1.00019e-05
1.00022e-05
1.00011e-05
1.00027e-05
1.00006e-05
1.00045e-05
1.00008e-05
1.00074e-05
1.00017e-05
1.00144e-05
1.00003e-05
1.01538e-05
1.0702e-05
1.39162e-05
2.30981e-05
3.39857e-05
4.53367e-05
5.56034e-05
7.61666e-05
0.000142271
0.000167685
0.000261336
9.99335e-06
0.293099
0.97573
0.985217
0.985357
0.985672
0.985975
0.986029
0.985762
0.985207
0.984984
0.985018
0.985168
0.984871
0.982227
0.979378
0.978653
0.978999
0.980346
0.98078
0.980709
0.980653
0.980999
0.981144
0.981295
0.981854
0.982601
0.983482
0.984349
0.985009
0.985196
0.984747
0.984317
0.984287
0.985057
0.987136
0.990602
0.994804
3.51643e-06
3.78991e-06
3.97104e-06
4.30397e-06
5.20185e-06
5.9428e-06
7.15365e-06
8.2866e-06
8.91186e-06
9.5203e-06
9.72957e-06
9.88967e-06
9.96526e-06
9.9923e-06
9.99512e-06
9.99638e-06
9.99618e-06
9.99612e-06
9.99624e-06
9.99701e-06
9.99746e-06
9.99785e-06
9.99807e-06
9.99823e-06
9.99832e-06
9.99841e-06
9.99848e-06
9.99856e-06
9.9986e-06
9.99865e-06
9.99862e-06
9.99874e-06
9.99869e-06
9.99907e-06
9.99892e-06
9.9993e-06
9.99887e-06
9.99905e-06
9.99812e-06
9.99952e-06
9.99785e-06
1.00017e-05
9.9985e-06
1.00055e-05
1.00009e-05
1.00144e-05
1.00029e-05
1.01838e-05
1.09122e-05
1.5033e-05
2.38294e-05
3.18281e-05
4.19995e-05
6.30176e-05
7.51464e-05
0.000117403
0.000133673
0.000333069
0.000117749
0.179142
0.983175
0.995429
0.995937
0.996782
0.996811
0.996786
0.996919
0.996547
0.995601
0.995306
0.995524
0.995123
0.99325
0.992817
0.992937
0.993264
0.993304
0.991022
0.98856
0.988065
0.987977
0.987179
0.985974
0.985358
0.985247
0.985854
0.985929
0.986546
0.987665
0.988729
0.990222
0.991974
0.994172
0.9964
0.998386
0.999536
3.45183e-06
3.62718e-06
3.71726e-06
3.90229e-06
4.75001e-06
5.51404e-06
6.83469e-06
8.12257e-06
8.85081e-06
9.411e-06
9.69139e-06
9.8623e-06
9.94943e-06
9.98826e-06
9.9973e-06
1.00013e-05
1.00011e-05
1.0001e-05
1.00009e-05
1.00012e-05
1.00012e-05
1.00012e-05
1.00011e-05
1.00009e-05
1.00007e-05
1.00005e-05
1.00004e-05
1.00002e-05
1.00001e-05
9.99994e-06
9.9998e-06
9.99982e-06
9.99971e-06
1e-05
9.99979e-06
1e-05
9.99949e-06
9.99946e-06
9.9986e-06
9.99968e-06
9.99844e-06
1.00017e-05
9.99899e-06
1.00056e-05
1.00012e-05
1.00171e-05
1.0012e-05
1.02765e-05
1.13216e-05
1.56454e-05
2.3407e-05
3.03333e-05
4.7704e-05
7.38292e-05
8.49774e-05
0.000132643
0.000132693
0.000435522
0.000216595
0.0926417
0.984506
0.999515
0.99957
0.999648
0.999629
0.999628
0.999608
0.999518
0.999313
0.999186
0.999163
0.999204
0.999263
0.999345
0.999351
0.999185
0.998941
0.998758
0.998593
0.998262
0.997648
0.997244
0.997089
0.997028
0.997166
0.997122
0.996639
0.996261
0.996417
0.997692
0.998483
0.999052
0.999535
0.999856
0.999974
0.999996
3.1962e-06
3.34567e-06
3.48494e-06
3.508e-06
4.26174e-06
5.01645e-06
6.53809e-06
7.98357e-06
8.94442e-06
9.44266e-06
9.7028e-06
9.84461e-06
9.91575e-06
9.96485e-06
9.98674e-06
9.99607e-06
9.99648e-06
9.99744e-06
9.99792e-06
9.99881e-06
9.99942e-06
9.99987e-06
1.00001e-05
1.00002e-05
1.00002e-05
1.00003e-05
1.00003e-05
1.00003e-05
1.00002e-05
1.00002e-05
1.00002e-05
1.00002e-05
1.00002e-05
1.00004e-05
1.00003e-05
1.00005e-05
9.99991e-06
9.99985e-06
9.99904e-06
1.00002e-05
9.99907e-06
1.00023e-05
9.99992e-06
1.00062e-05
1.0002e-05
1.00218e-05
1.00332e-05
1.03557e-05
1.1571e-05
1.57067e-05
2.20932e-05
2.81849e-05
4.55791e-05
7.89752e-05
0.000117832
0.00013988
0.00014051
0.000529015
0.000246659
0.0582831
0.982934
0.999987
0.999991
0.999995
0.999993
0.999992
0.99999
0.999987
0.999983
0.999979
0.999976
0.999975
0.999976
0.999977
0.999979
0.999979
0.999978
0.99997
0.99996
0.99995
0.999936
0.999921
0.999913
0.999911
0.999911
0.999918
0.999923
0.999919
0.999916
0.999956
0.999979
0.999992
0.999998
0.999999
0.999999
0.999999
2.59401e-06
2.97243e-06
3.11245e-06
3.18243e-06
3.78735e-06
4.47597e-06
6.32712e-06
7.89613e-06
8.9711e-06
9.47887e-06
9.72064e-06
9.85518e-06
9.91693e-06
9.97153e-06
9.99162e-06
9.99924e-06
9.99786e-06
9.99841e-06
9.99839e-06
9.99926e-06
9.99985e-06
1.00003e-05
1.00005e-05
1.00007e-05
1.00007e-05
1.00008e-05
1.00009e-05
1.0001e-05
1.00011e-05
1.00012e-05
1.00016e-05
1.00019e-05
1.00022e-05
1.00026e-05
1.00026e-05
1.00029e-05
1.00025e-05
1.00026e-05
1.00019e-05
1.00032e-05
1.00021e-05
1.00055e-05
1.00029e-05
1.00098e-05
1.00053e-05
1.00248e-05
1.0034e-05
1.03074e-05
1.12969e-05
1.44047e-05
1.99607e-05
2.63344e-05
4.02394e-05
6.9678e-05
0.000100859
0.000136978
0.000163458
0.000604414
0.00030679
0.0385927
0.975785
0.999989
1
1
1
1
1
1
1
1
1
1
1
1
1
1
1
1
1
1
1
1
1
1
1
0.999999
0.999999
0.999999
0.999999
0.999999
0.999999
0.999999
0.999999
0.999999
0.999999
0.999999
2.13168e-06
2.59191e-06
2.62821e-06
2.78394e-06
3.36246e-06
4.12446e-06
6.24694e-06
7.86275e-06
8.84472e-06
9.47385e-06
9.75066e-06
9.90702e-06
9.96182e-06
9.99951e-06
1.00088e-05
1.00093e-05
1.00056e-05
1.00037e-05
1.00025e-05
1.00028e-05
1.0003e-05
1.00033e-05
1.00034e-05
1.00034e-05
1.00034e-05
1.00034e-05
1.00035e-05
1.00035e-05
1.00034e-05
1.00033e-05
1.00035e-05
1.00038e-05
1.0004e-05
1.00042e-05
1.00041e-05
1.00043e-05
1.00037e-05
1.00039e-05
1.00031e-05
1.00053e-05
1.00031e-05
1.00078e-05
1.00036e-05
1.00121e-05
1.00061e-05
1.00224e-05
1.00241e-05
1.02011e-05
1.07248e-05
1.23921e-05
1.69559e-05
2.43482e-05
3.49787e-05
5.83321e-05
7.79225e-05
0.000117504
0.000183287
0.000703091
0.000461795
0.0366574
0.974709
0.999994
1
1
1
1
1
1
1
1
0.999999
0.999999
0.999999
0.999999
0.999999
0.999999
0.999999
0.999999
0.999999
0.999999
0.999999
0.999999
0.999999
0.999999
1
1
1
1
1
1
1
0.999999
0.999999
0.999999
1
1
1.8681e-06
2.143e-06
2.18863e-06
2.29223e-06
2.89374e-06
3.86297e-06
6.06062e-06
7.94372e-06
8.8041e-06
9.45875e-06
9.78603e-06
9.91693e-06
9.96375e-06
1.00051e-05
1.00093e-05
1.00093e-05
1.00093e-05
1.00093e-05
1.00079e-05
1.00076e-05
1.00074e-05
1.00073e-05
1.00071e-05
1.00069e-05
1.00067e-05
1.00067e-05
1.00066e-05
1.00064e-05
1.00061e-05
1.00058e-05
1.00058e-05
1.00058e-05
1.00058e-05
1.00058e-05
1.00055e-05
1.00055e-05
1.0005e-05
1.0005e-05
1.00047e-05
1.00053e-05
1.00048e-05
1.00078e-05
1.00049e-05
1.00121e-05
1.00057e-05
1.00192e-05
1.00097e-05
1.01278e-05
1.03647e-05
1.11596e-05
1.41588e-05
2.27987e-05
3.55413e-05
5.66179e-05
6.85208e-05
9.10074e-05
0.000268412
0.000819149
0.000590311
0.0346433
0.974775
0.999987
1
1
1
1
1
1
1
1
1
1
0.999999
0.999999
0.999999
0.999999
0.999999
0.999999
0.999999
0.999999
0.999999
0.999999
0.999999
0.999999
0.999999
1
1
1
1
1
1
1
1
1
1
1
1.70024e-06
1.97137e-06
2.10245e-06
2.09577e-06
2.6587e-06
3.42255e-06
5.15931e-06
8.16707e-06
8.97993e-06
9.49145e-06
9.77334e-06
9.89802e-06
9.95387e-06
9.99844e-06
1.00072e-05
1.00084e-05
1.00081e-05
1.00083e-05
1.0007e-05
1.00067e-05
1.00064e-05
1.00062e-05
1.0006e-05
1.00057e-05
1.00055e-05
1.00055e-05
1.00055e-05
1.00053e-05
1.0005e-05
1.00048e-05
1.00047e-05
1.00048e-05
1.00048e-05
1.00049e-05
1.00048e-05
1.00048e-05
1.00043e-05
1.00044e-05
1.00039e-05
1.00048e-05
1.0004e-05
1.00072e-05
1.00038e-05
1.00109e-05
1.00027e-05
1.00152e-05
9.99713e-06
1.00709e-05
1.01684e-05
1.05466e-05
1.17914e-05
2.05734e-05
3.5934e-05
5.85707e-05
7.09255e-05
9.0914e-05
0.000426968
0.000932331
0.00111597
0.0325094
0.959959
0.999903
1
1
1
1
1
1
1
1
1
1
1
0.999999
0.999999
0.999999
0.999999
0.999999
0.999999
0.999999
0.999999
0.999999
0.999999
0.999999
0.999999
1
1
1
1
1
1
1
1
1
1
1
1.24068e-06
1.5448e-06
1.80193e-06
2.1028e-06
2.29945e-06
2.4393e-06
3.93773e-06
7.83902e-06
9.34569e-06
9.72258e-06
9.84789e-06
9.91558e-06
9.95924e-06
1.00044e-05
1.00134e-05
1.00134e-05
1.00134e-05
1.00134e-05
1.00131e-05
1.00128e-05
1.00123e-05
1.00121e-05
1.00117e-05
1.00114e-05
1.00113e-05
1.00113e-05
1.00113e-05
1.00112e-05
1.00109e-05
1.00108e-05
1.00108e-05
1.00108e-05
1.00108e-05
1.00108e-05
1.00108e-05
1.00108e-05
1.00106e-05
1.00106e-05
1.00101e-05
1.00113e-05
1.00113e-05
1.00129e-05
1.00127e-05
1.00144e-05
1.00115e-05
1.00159e-05
9.9998e-06
1.00519e-05
1.00965e-05
1.03926e-05
1.11776e-05
1.73874e-05
3.13801e-05
5.67627e-05
7.62065e-05
0.000173209
0.000234786
0.00087532
0.000791626
0.0380753
0.953485
0.999846
1
1
1
1
1
1
1
1
1
1
1
1
0.999999
0.999999
0.999999
0.999999
0.999999
0.999999
0.999999
0.999999
0.999999
1
1
1
1
1
1
1
1
1
1
1
1
1
4.63901e-06
5.70628e-06
6.27755e-06
6.70537e-06
7.08438e-06
7.71088e-06
8.80254e-06
9.61913e-06
9.83053e-06
9.86552e-06
9.92479e-06
9.9737e-06
1.00037e-05
1.00138e-05
1.00138e-05
1.00138e-05
1.00138e-05
1.00138e-05
1.00133e-05
1.00129e-05
1.00121e-05
1.00118e-05
1.00116e-05
1.00115e-05
1.00114e-05
1.00113e-05
1.00113e-05
1.00114e-05
1.00115e-05
1.00119e-05
1.00121e-05
1.00125e-05
1.0013e-05
1.00133e-05
1.00133e-05
1.00133e-05
1.00133e-05
1.00133e-05
1.00133e-05
1.00133e-05
1.00133e-05
1.00133e-05
1.00122e-05
1.00163e-05
1.00141e-05
1.00191e-05
1.00112e-05
1.00644e-05
1.10158e-05
1.60231e-05
2.29827e-05
3.17563e-05
4.13423e-05
5.91342e-05
7.7717e-05
0.000126561
0.000139292
0.000322417
0.00259063
0.0803864
0.963156
0.999852
0.999999
0.999999
0.999999
0.999999
0.999999
0.999999
0.999999
0.999999
0.999999
0.999999
0.999999
0.999999
0.999999
0.999999
0.999999
0.999999
0.999999
0.999999
0.999999
0.999999
0.999999
0.999999
0.999999
0.999999
0.999999
0.999999
0.999999
0.999999
0.999999
0.999999
0.999999
1
1
1
3.87558e-06
5.31223e-06
6.54988e-06
7.1508e-06
7.82553e-06
8.69133e-06
9.07072e-06
9.25836e-06
9.46327e-06
9.60833e-06
9.763e-06
9.88731e-06
9.96638e-06
1.00032e-05
1.00109e-05
1.00129e-05
1.00123e-05
1.00126e-05
1.00123e-05
1.00127e-05
1.00127e-05
1.00127e-05
1.00125e-05
1.00123e-05
1.00121e-05
1.0012e-05
1.00118e-05
1.00117e-05
1.00116e-05
1.00114e-05
1.00112e-05
1.00112e-05
1.00112e-05
1.00114e-05
1.00114e-05
1.00118e-05
1.00114e-05
1.00119e-05
1.00112e-05
1.0013e-05
1.0013e-05
1.00133e-05
1.00127e-05
1.00163e-05
1.00158e-05
1.00191e-05
1.00123e-05
1.01072e-05
1.0369e-05
1.23981e-05
2.04331e-05
3.24457e-05
4.60988e-05
6.93456e-05
8.38666e-05
0.000105944
0.000188343
0.000386416
0.00139245
0.11595
0.97248
0.999999
0.999999
0.999999
0.999999
0.999999
0.999999
0.999999
0.999999
0.999999
0.999999
0.999999
0.999999
0.999999
0.999999
0.999999
0.999999
0.999999
0.999999
0.999999
0.999999
0.999999
0.999999
0.999999
0.999999
0.999999
0.999999
0.999999
0.999999
0.999999
0.999999
0.999999
0.999999
0.999999
1
1
3.45914e-06
4.63109e-06
6.0667e-06
6.94081e-06
7.70123e-06
8.11775e-06
8.45873e-06
8.79919e-06
9.19857e-06
9.46713e-06
9.67524e-06
9.83707e-06
9.94019e-06
9.99568e-06
1.00076e-05
1.00104e-05
1.00101e-05
1.00103e-05
1.00102e-05
1.00102e-05
1.00101e-05
1.001e-05
1.00098e-05
1.00096e-05
1.00093e-05
1.0009e-05
1.00089e-05
1.00087e-05
1.00086e-05
1.00084e-05
1.00083e-05
1.00083e-05
1.00084e-05
1.00086e-05
1.00085e-05
1.00086e-05
1.00083e-05
1.00084e-05
1.00078e-05
1.0009e-05
1.0007e-05
1.0011e-05
1.00067e-05
1.00138e-05
1.00075e-05
1.00191e-05
1.00086e-05
1.01298e-05
1.05049e-05
1.2204e-05
1.95687e-05
3.62275e-05
4.90015e-05
6.97533e-05
9.48299e-05
0.000118792
0.000240144
0.000290297
0.000221315
0.165234
0.998613
0.999982
0.999984
0.999987
0.999988
0.999988
0.999988
0.999986
0.999984
0.999983
0.999982
0.999983
0.999988
0.999996
0.999998
0.999999
0.999999
0.999999
0.999999
0.999999
0.999999
0.999999
0.999999
0.999999
0.999999
0.999999
0.999999
0.999999
0.999999
0.999999
0.999999
0.999999
0.999999
0.999999
1
1
3.18783e-06
3.93634e-06
5.334e-06
6.09581e-06
6.87963e-06
7.48781e-06
7.96901e-06
8.48278e-06
9.05179e-06
9.41169e-06
9.64406e-06
9.81786e-06
9.92616e-06
9.99046e-06
1.0005e-05
1.00084e-05
1.0008e-05
1.00081e-05
1.00078e-05
1.00077e-05
1.00075e-05
1.00074e-05
1.00071e-05
1.00069e-05
1.00066e-05
1.00063e-05
1.00062e-05
1.00061e-05
1.0006e-05
1.00058e-05
1.00057e-05
1.00057e-05
1.00058e-05
1.00059e-05
1.00059e-05
1.00059e-05
1.00057e-05
1.00057e-05
1.00051e-05
1.00064e-05
1.00044e-05
1.00084e-05
1.00043e-05
1.00111e-05
1.00052e-05
1.00149e-05
1.00081e-05
1.01408e-05
1.07133e-05
1.37845e-05
2.35645e-05
4.0366e-05
5.09967e-05
6.59827e-05
0.000119699
0.000145334
0.000163925
0.000118715
4.25718e-05
0.195934
0.997219
0.99927
0.999358
0.999428
0.999423
0.999363
0.999326
0.999325
0.999336
0.99932
0.999217
0.999135
0.999324
0.99971
0.999818
0.999886
0.999948
0.999981
0.999994
0.999998
0.999999
0.999999
0.999999
0.999999
0.999999
0.999999
0.999999
0.999999
0.999999
0.999999
0.999999
0.999999
0.999999
0.999999
1
1
3.02196e-06
3.38828e-06
4.83105e-06
5.59105e-06
6.31042e-06
7.0735e-06
7.66718e-06
8.30403e-06
8.97049e-06
9.3867e-06
9.63333e-06
9.81168e-06
9.91991e-06
9.98752e-06
1.00036e-05
1.00074e-05
1.0007e-05
1.0007e-05
1.00067e-05
1.00066e-05
1.00063e-05
1.00062e-05
1.00059e-05
1.00056e-05
1.00053e-05
1.0005e-05
1.00049e-05
1.00048e-05
1.00047e-05
1.00046e-05
1.00045e-05
1.00045e-05
1.00046e-05
1.00047e-05
1.00046e-05
1.00046e-05
1.00044e-05
1.00045e-05
1.00038e-05
1.00052e-05
1.00031e-05
1.00072e-05
1.0003e-05
1.00099e-05
1.00034e-05
1.00141e-05
1.00055e-05
1.01204e-05
1.08098e-05
1.49628e-05
2.59089e-05
4.18983e-05
6.26065e-05
0.000119711
0.000149372
0.0001467
0.000144561
0.000134083
4.50989e-05
0.258252
0.988712
0.994622
0.994838
0.994362
0.992618
0.992619
0.993779
0.993096
0.992631
0.99376
0.993551
0.992138
0.992854
0.994921
0.995568
0.996471
0.997744
0.998791
0.999443
0.999825
0.999959
0.999992
0.999998
0.999999
0.999999
0.999999
0.999999
0.999999
0.999999
0.999999
0.999999
0.999999
0.999999
0.999999
1
1
2.91721e-06
2.99169e-06
4.39151e-06
5.25421e-06
5.9028e-06
6.79059e-06
7.48753e-06
8.21614e-06
8.93571e-06
9.37744e-06
9.63077e-06
9.81053e-06
9.91787e-06
9.98578e-06
1.00026e-05
1.00066e-05
1.00062e-05
1.0006e-05
1.00058e-05
1.00056e-05
1.00053e-05
1.00051e-05
1.00048e-05
1.00045e-05
1.00042e-05
1.00039e-05
1.00038e-05
1.00038e-05
1.00037e-05
1.00036e-05
1.00036e-05
1.00037e-05
1.00038e-05
1.00038e-05
1.00038e-05
1.00038e-05
1.00037e-05
1.00038e-05
1.00032e-05
1.00045e-05
1.00025e-05
1.00067e-05
1.00024e-05
1.00094e-05
1.00022e-05
1.00136e-05
1.00033e-05
1.01001e-05
1.06699e-05
1.4587e-05
2.48894e-05
3.96047e-05
5.88542e-05
0.000128526
0.000176198
0.000178857
0.000168061
0.000155774
3.47493e-05
0.289442
0.975489
0.98439
0.983274
0.981569
0.97903
0.97762
0.977378
0.977736
0.980019
0.983218
0.984219
0.982153
0.977535
0.976413
0.977547
0.979194
0.982661
0.986343
0.991084
0.995324
0.997655
0.998934
0.999581
0.999882
0.999981
0.999999
0.999999
0.999999
0.999999
0.999999
0.999999
0.999999
0.999999
0.999999
1
1
2.85529e-06
2.75175e-06
3.91728e-06
4.91094e-06
5.5857e-06
6.55261e-06
7.3521e-06
8.17144e-06
8.92844e-06
9.37821e-06
9.63976e-06
9.8165e-06
9.91781e-06
9.98493e-06
1.00021e-05
1.00062e-05
1.00058e-05
1.00056e-05
1.00054e-05
1.00052e-05
1.00049e-05
1.00047e-05
1.00044e-05
1.00041e-05
1.00038e-05
1.00036e-05
1.00035e-05
1.00035e-05
1.00034e-05
1.00034e-05
1.00034e-05
1.00035e-05
1.00036e-05
1.00037e-05
1.00037e-05
1.00037e-05
1.00037e-05
1.00038e-05
1.00032e-05
1.00045e-05
1.00025e-05
1.00068e-05
1.00025e-05
1.00095e-05
1.00019e-05
1.00137e-05
1.00019e-05
1.00858e-05
1.04819e-05
1.36508e-05
2.3627e-05
3.78744e-05
5.27989e-05
8.03048e-05
0.000144514
0.000178918
0.000172128
0.000142846
2.40716e-05
0.280199
0.964479
0.976849
0.975484
0.974844
0.974309
0.972887
0.972537
0.972529
0.973307
0.978343
0.980247
0.977182
0.965583
0.962087
0.961787
0.960958
0.960832
0.963014
0.968266
0.974138
0.978438
0.982456
0.986577
0.990704
0.994882
0.998236
0.999487
0.999426
0.999394
0.999276
0.99909
0.998864
0.998407
0.997769
0.997072
0.996316
2.82305e-06
2.58036e-06
3.40549e-06
4.31451e-06
5.30635e-06
6.27512e-06
7.20236e-06
8.13044e-06
8.94805e-06
9.40027e-06
9.65144e-06
9.82314e-06
9.9221e-06
9.98478e-06
1.00017e-05
1.00058e-05
1.00055e-05
1.00054e-05
1.00053e-05
1.00053e-05
1.00052e-05
1.00051e-05
1.00049e-05
1.00047e-05
1.00045e-05
1.00044e-05
1.00043e-05
1.00042e-05
1.00042e-05
1.00041e-05
1.00041e-05
1.00041e-05
1.0004e-05
1.0004e-05
1.0004e-05
1.00041e-05
1.00041e-05
1.00042e-05
1.00037e-05
1.00049e-05
1.0003e-05
1.00071e-05
1.0003e-05
1.00101e-05
1.00019e-05
1.00143e-05
1.00012e-05
1.00768e-05
1.03769e-05
1.27288e-05
2.141e-05
3.51497e-05
4.90109e-05
6.07956e-05
8.47968e-05
0.000177082
0.00021706
0.000238775
1.77582e-05
0.235298
0.965483
0.980889
0.980796
0.981437
0.981452
0.980496
0.98005
0.979126
0.978214
0.977124
0.974325
0.972076
0.971083
0.969992
0.967175
0.961956
0.958089
0.955971
0.955304
0.955216
0.953155
0.950108
0.947087
0.943816
0.940351
0.936816
0.933181
0.929803
0.925483
0.919294
0.910812
0.899373
0.882293
0.855927
0.804138
0.603836
2.84357e-06
2.4388e-06
2.95541e-06
3.65825e-06
4.83276e-06
5.90142e-06
6.99746e-06
8.07716e-06
8.96988e-06
9.42495e-06
9.66996e-06
9.83432e-06
9.92822e-06
9.98816e-06
1.00033e-05
1.00072e-05
1.00069e-05
1.00066e-05
1.00064e-05
1.00064e-05
1.00062e-05
1.00061e-05
1.00059e-05
1.00057e-05
1.00055e-05
1.00054e-05
1.00053e-05
1.00053e-05
1.00052e-05
1.00052e-05
1.00052e-05
1.00053e-05
1.00053e-05
1.00053e-05
1.00053e-05
1.00054e-05
1.00054e-05
1.00055e-05
1.00051e-05
1.00061e-05
1.00044e-05
1.00085e-05
1.00044e-05
1.00115e-05
1.00037e-05
1.00151e-05
1.00018e-05
1.00736e-05
1.03057e-05
1.20024e-05
1.86498e-05
3.12875e-05
4.5887e-05
6.76182e-05
7.97622e-05
0.000114173
0.000152116
0.000464475
5.74409e-05
0.14503
0.977293
0.995502
0.996127
0.997072
0.997302
0.997384
0.997116
0.996981
0.996817
0.996581
0.995958
0.994919
0.993939
0.993279
0.99271
0.991582
0.98868
0.985051
0.983053
0.980021
0.973226
0.967695
0.963114
0.959133
0.955148
0.950817
0.946312
0.942217
0.93941
0.937842
0.936129
0.934686
0.934376
0.941719
0.951186
0.960955
2.7529e-06
2.3363e-06
2.56452e-06
3.10484e-06
4.15004e-06
5.33494e-06
6.64335e-06
7.99061e-06
8.99883e-06
9.46146e-06
9.69189e-06
9.84956e-06
9.93907e-06
9.99116e-06
1.00044e-05
1.00082e-05
1.00081e-05
1.00079e-05
1.00078e-05
1.00078e-05
1.00077e-05
1.00077e-05
1.00075e-05
1.00073e-05
1.0007e-05
1.00069e-05
1.00067e-05
1.00067e-05
1.00065e-05
1.00064e-05
1.00065e-05
1.00064e-05
1.00064e-05
1.00064e-05
1.00063e-05
1.00063e-05
1.00063e-05
1.00062e-05
1.0006e-05
1.00066e-05
1.00052e-05
1.0009e-05
1.00052e-05
1.0012e-05
1.00043e-05
1.00151e-05
9.99948e-06
1.00628e-05
1.02388e-05
1.15147e-05
1.62917e-05
2.77284e-05
4.42343e-05
6.87291e-05
8.06961e-05
0.000118556
0.000153702
0.000534606
0.00011232
0.0823425
0.984576
0.999565
0.999589
0.999694
0.999711
0.999733
0.999737
0.999734
0.999641
0.999458
0.999359
0.99931
0.999271
0.999252
0.999223
0.998906
0.998258
0.997911
0.997691
0.996993
0.995659
0.99421
0.992379
0.990724
0.989906
0.98865
0.987225
0.985809
0.985065
0.984787
0.987629
0.991046
0.993923
0.996802
0.998639
0.99954
2.61242e-06
2.24321e-06
2.23668e-06
2.63964e-06
3.34596e-06
4.57276e-06
6.06313e-06
7.85838e-06
9.02825e-06
9.49996e-06
9.71427e-06
9.8664e-06
9.94864e-06
9.99266e-06
1.00044e-05
1.00082e-05
1.00082e-05
1.00082e-05
1.00082e-05
1.00082e-05
1.00082e-05
1.00082e-05
1.00081e-05
1.00079e-05
1.00076e-05
1.00075e-05
1.00074e-05
1.00073e-05
1.00072e-05
1.00071e-05
1.00071e-05
1.00071e-05
1.00071e-05
1.00071e-05
1.00071e-05
1.00071e-05
1.00071e-05
1.00071e-05
1.0007e-05
1.00075e-05
1.00062e-05
1.001e-05
1.00063e-05
1.00128e-05
1.00058e-05
1.00153e-05
9.99949e-06
1.00599e-05
1.0158e-05
1.09549e-05
1.4251e-05
2.45604e-05
4.01477e-05
6.6472e-05
8.39794e-05
0.000127014
0.000185161
0.000588719
0.000224033
0.0432687
0.964702
0.999998
0.999965
0.999984
0.999983
0.999984
0.999983
0.999983
0.999979
0.99997
0.999961
0.999953
0.999948
0.999943
0.999937
0.999927
0.999914
0.999902
0.99989
0.999865
0.99981
0.99974
0.9997
0.999685
0.99965
0.999625
0.999639
0.999667
0.999674
0.999714
0.999799
0.999907
0.999957
0.999987
0.999997
0.999999
2.13127e-06
1.97818e-06
1.91311e-06
2.21254e-06
2.55416e-06
3.3299e-06
5.05324e-06
7.72257e-06
9.09486e-06
9.55132e-06
9.74762e-06
9.89457e-06
9.95933e-06
9.99396e-06
1.00042e-05
1.00081e-05
1.00081e-05
1.00082e-05
1.00081e-05
1.00081e-05
1.00081e-05
1.00081e-05
1.0008e-05
1.00078e-05
1.00076e-05
1.00075e-05
1.00074e-05
1.00074e-05
1.00073e-05
1.00072e-05
1.00071e-05
1.00071e-05
1.00071e-05
1.00071e-05
1.00071e-05
1.00071e-05
1.00067e-05
1.00071e-05
1.00064e-05
1.00075e-05
1.00057e-05
1.001e-05
1.00059e-05
1.00128e-05
1.00061e-05
1.00136e-05
9.99826e-06
1.00527e-05
1.00897e-05
1.06035e-05
1.29775e-05
2.22745e-05
3.62568e-05
6.44727e-05
7.38075e-05
0.000114509
0.000217751
0.000666271
0.000866611
0.0364263
0.960325
0.999999
0.999998
1
0.999999
0.999999
0.999999
0.999999
1
0.999999
0.999999
0.999999
0.999999
0.999999
0.999999
0.999999
0.999999
0.999999
0.999999
1
0.999999
0.999999
0.999998
0.999999
0.999999
0.999999
0.999999
0.999999
0.999999
0.999999
0.999999
0.999999
0.999999
1
1
1
1.71381e-06
1.59733e-06
1.55165e-06
1.79063e-06
1.93362e-06
2.43312e-06
4.57986e-06
7.88809e-06
9.17296e-06
9.61296e-06
9.80178e-06
9.92213e-06
9.9631e-06
9.99109e-06
1.00043e-05
1.00083e-05
1.00083e-05
1.00083e-05
1.00083e-05
1.00083e-05
1.00083e-05
1.00083e-05
1.00083e-05
1.00081e-05
1.00079e-05
1.00078e-05
1.00077e-05
1.00076e-05
1.00074e-05
1.00073e-05
1.00072e-05
1.00071e-05
1.00068e-05
1.00069e-05
1.00063e-05
1.00065e-05
1.00058e-05
1.00066e-05
1.00051e-05
1.00074e-05
1.00043e-05
1.00097e-05
1.00048e-05
1.00127e-05
1.00061e-05
1.0012e-05
9.99794e-06
1.00421e-05
1.00755e-05
1.04897e-05
1.21859e-05
1.95535e-05
3.28683e-05
6.46539e-05
7.50621e-05
0.000100907
0.000269903
0.000752993
0.00142488
0.0380109
0.943913
0.999997
1
1
0.999999
0.999999
0.999999
0.999999
0.999999
0.999999
0.999999
0.999999
0.999999
0.999999
0.999999
0.999999
0.999999
0.999999
0.999999
0.999999
0.999999
0.999999
0.999999
0.999999
0.999999
0.999999
0.999999
0.999999
1
1
1
1
1
1
1
1
1.49791e-06
1.30894e-06
1.24604e-06
1.35694e-06
1.47411e-06
2.01375e-06
4.4398e-06
7.85941e-06
9.23614e-06
9.6676e-06
9.8406e-06
9.92786e-06
9.94975e-06
9.98648e-06
1.00023e-05
1.00061e-05
1.0006e-05
1.00063e-05
1.00063e-05
1.00064e-05
1.00064e-05
1.00064e-05