/*--------------------------------*- C++ -*----------------------------------*\
| =========                 |                                                 |
| \\      /  F ield         | OpenFOAM: The Open Source CFD Toolbox           |
|  \\    /   O peration     | Version:  2.3.0                                 |
|   \\  /    A nd           | Web:      www.OpenFOAM.org                      |
|    \\/     M anipulation  |                                                 |
\*---------------------------------------------------------------------------*/
FoamFile
{
    version     2.0;
    format      ascii;
    class       volScalarField;
    location    "34";
    object      dsauterMean;
}
// * * * * * * * * * * * * * * * * * * * * * * * * * * * * * * * * * * * * * //

dimensions      [0 0 0 0 0 0 0];

internalField   nonuniform List<scalar> 
6144
(
0.00833335
0.00833335
0.00833335
0.00833335
0.00833335
0.00833335
0.00833335
0.00833335
0.00833335
0.00833335
0.00833335
0.00833335
0.00833335
0.00833335
0.00833335
0.00833335
0.00833335
0.00833335
0.00833335
0.00833335
0.00833335
0.00833335
0.00833335
0.00833335
0.00833335
0.00833335
0.00833335
0.00833335
0.00833335
0.00833335
0.00833335
0.00833335
0.00833335
0.00833335
0.00833335
0.00833335
0.00833335
0.00833335
0.00833335
0.00833335
0.00833335
0.00833335
0.00833335
0.00833335
0.00833335
0.00833335
0.00833335
0.00833335
0.00833335
0.00833335
0.00833335
0.00833335
0.00833335
0.00833335
0.00833335
0.00833335
0.00833335
0.00833327
0.00832378
0.0083456
0.00833612
0.00833309
0.00257478
0.000293803
0.00028767
0.00028283
0.000277986
0.000270723
0.000265877
0.00025983
0.000254982
0.000248927
0.000244085
0.000239241
0.000234399
0.000228342
0.000223502
0.000218655
0.000213814
0.000209035
0.000203773
0.000200082
0.000193544
0.000191175
0.000185637
0.000182333
0.000177432
0.000173976
0.000170152
0.000167804
0.000165382
0.000162961
0.000161751
0.000160539
0.000161742
0.000160559
0.00833335
0.00833335
0.00833335
0.00833335
0.00833335
0.00833335
0.00833335
0.00833335
0.00833335
0.00833335
0.00833335
0.00833335
0.00833335
0.00833335
0.00833335
0.00833335
0.00833335
0.00833335
0.00833335
0.00833335
0.00833335
0.00833335
0.00833335
0.00833335
0.00833335
0.00833335
0.00833335
0.00833335
0.00833335
0.00833335
0.00833335
0.00833335
0.00833335
0.00833335
0.00833335
0.00833335
0.00833335
0.00833335
0.00833335
0.00833335
0.00833335
0.00833335
0.00833335
0.00833335
0.00833335
0.00833335
0.00833335
0.00833335
0.00833335
0.00833335
0.00833335
0.00833335
0.00833335
0.00833335
0.00833335
0.00833335
0.00833335
0.00833311
0.00832364
0.00834483
0.00837738
0.00833047
0.000371216
0.000370016
0.000317857
0.000328622
0.000297325
0.000290093
0.000271959
0.00026135
0.000256284
0.00024997
0.000245259
0.000239216
0.000233568
0.000228191
0.000223694
0.000219237
0.000213295
0.000208919
0.000204429
0.000199191
0.000194791
0.000190824
0.000185985
0.000182425
0.000178701
0.000175069
0.000171439
0.000167804
0.000165383
0.000164172
0.000161453
0.000161864
0.000161762
0.000161774
0.00833335
0.00833335
0.00833335
0.00833335
0.00833335
0.00833335
0.00833335
0.00833335
0.00833335
0.00833335
0.00833335
0.00833335
0.00833335
0.00833335
0.00833335
0.00833335
0.00833335
0.00833335
0.00833335
0.00833335
0.00833335
0.00833335
0.00833335
0.00833335
0.00833335
0.00833335
0.00833335
0.00833335
0.00833335
0.00833335
0.00833335
0.00833335
0.00833335
0.00833335
0.00833335
0.00833335
0.00833335
0.00833335
0.00833335
0.00833335
0.00833335
0.00833335
0.00833335
0.00833335
0.00833335
0.00833335
0.00833335
0.00833335
0.00833335
0.00833335
0.00833335
0.00833335
0.00833335
0.00833335
0.00833335
0.00833335
0.00833335
0.00833335
0.00833368
0.00835748
0.00764651
0.00620905
0.00087708
0.000804986
0.000750535
0.000700185
0.000677961
0.000589098
0.000543375
0.000439301
0.000403565
0.000352643
0.000319246
0.000257703
0.000251019
0.000228617
0.000223596
0.000218961
0.000213025
0.000209538
0.000204546
0.000199284
0.000195653
0.000190804
0.000185884
0.000182336
0.000178701
0.00017507
0.000171437
0.000167804
0.000165532
0.000164051
0.000161772
0.000161178
0.000163279
0.000161859
0.00833335
0.00833335
0.00833335
0.00833335
0.00833335
0.00833335
0.00833335
0.00833335
0.00833335
0.00833335
0.00833335
0.00833335
0.00833335
0.00833335
0.00833335
0.00833335
0.00833335
0.00833335
0.00833335
0.00833335
0.00833335
0.00833335
0.00833335
0.00833335
0.00833335
0.00833335
0.00833335
0.00833335
0.00833335
0.00833335
0.00833335
0.00833335
0.00833335
0.00833335
0.00833335
0.00833335
0.00833335
0.00833335
0.00833335
0.00833335
0.00833335
0.00833335
0.00833335
0.00833335
0.00833335
0.00833335
0.00833335
0.00833335
0.00833335
0.00833335
0.00833335
0.00833335
0.00833335
0.00833335
0.00833335
0.00833335
0.00833335
0.00833335
0.00833024
0.00833671
0.00835113
0.00429854
0.00173455
0.00126694
0.00113495
0.000960501
0.000892284
0.000849561
0.000789423
0.000725536
0.00068237
0.000614228
0.000535465
0.000474188
0.000408846
0.000357274
0.000316755
0.000269501
0.000225351
0.000209136
0.000204142
0.000198702
0.00019478
0.000191131
0.000185698
0.000182328
0.000178702
0.000175252
0.000170924
0.000167804
0.000165388
0.000163761
0.00016222
0.000161747
0.00016175
0.000162961
0.00833335
0.00833335
0.00833335
0.00833335
0.00833335
0.00833335
0.00833335
0.00833335
0.00833335
0.00833335
0.00833335
0.00833335
0.00833335
0.00833335
0.00833335
0.00833335
0.00833335
0.00833335
0.00833335
0.00833335
0.00833335
0.00833335
0.00833335
0.00833335
0.00833335
0.00833335
0.00833335
0.00833335
0.00833335
0.00833335
0.00833335
0.00833335
0.00833335
0.00833335
0.00833335
0.00833335
0.00833335
0.00833335
0.00833335
0.00833335
0.00833335
0.00833335
0.00833335
0.00833335
0.00833335
0.00833335
0.00833335
0.00833335
0.00833335
0.00833335
0.00833335
0.00833335
0.00833335
0.00833335
0.00833335
0.00833335
0.00833335
0.00833335
0.00833331
0.0083541
0.00737811
0.00832422
0.00829063
0.00823401
0.00782627
0.00612625
0.00608785
0.00572058
0.00570009
0.00564565
0.0056644
0.00561072
0.00546684
0.00537646
0.00518535
0.0047999
0.00439267
0.0038505
0.00331193
0.00253836
0.00186055
0.00136005
0.000885223
0.00040052
0.000207759
0.000181455
0.000177837
0.000174173
0.00017033
0.000167634
0.000165382
0.000162961
0.000160535
0.000160533
0.000161756
0.00016175
0.00833335
0.00833335
0.00833335
0.00833335
0.00833335
0.00833335
0.00833335
0.00833335
0.00833335
0.00833335
0.00833335
0.00833335
0.00833335
0.00833335
0.00833335
0.00833335
0.00833335
0.00833335
0.00833335
0.00833335
0.00833335
0.00833335
0.00833335
0.00833335
0.00833335
0.00833335
0.00833335
0.00833335
0.00833335
0.00833335
0.00833335
0.00833335
0.00833335
0.00833335
0.00833335
0.00833335
0.00833335
0.00833335
0.00833335
0.00833335
0.00833335
0.00833335
0.00833335
0.00833335
0.00833335
0.00833335
0.00833335
0.00833335
0.00833335
0.00833335
0.00833335
0.00833335
0.00833335
0.00833335
0.00833335
0.00833335
0.00833335
0.00833335
0.00833335
0.00834831
0.00730797
0.00776996
0.00789506
0.00831122
0.00815123
0.00824306
0.00830845
0.0081574
0.00824142
0.00794496
0.00838435
0.00796511
0.00812675
0.00807404
0.00808618
0.00791628
0.0079501
0.00787656
0.00756652
0.00776018
0.00758705
0.00742431
0.00718722
0.00670729
0.00598659
0.00497023
0.00442498
0.00344591
0.00182367
0.00104167
0.000581451
0.000242581
0.000161804
0.000159461
0.000159294
0.000161845
0.00833335
0.00833335
0.00833335
0.00833335
0.00833335
0.00833335
0.00833335
0.00833335
0.00833335
0.00833335
0.00833335
0.00833335
0.00833335
0.00833335
0.00833335
0.00833335
0.00833335
0.00833335
0.00833335
0.00833335
0.00833335
0.00833335
0.00833335
0.00833335
0.00833335
0.00833335
0.00833335
0.00833335
0.00833335
0.00833335
0.00833335
0.00833335
0.00833335
0.00833335
0.00833335
0.00833335
0.00833335
0.00833335
0.00833335
0.00833335
0.00833335
0.00833335
0.00833335
0.00833335
0.00833335
0.00833335
0.00833335
0.00833335
0.00833335
0.00833335
0.00833335
0.00833335
0.00833335
0.00833335
0.00833335
0.00833335
0.00833335
0.00833333
0.0083336
0.0083331
0.00833265
0.00925717
0.00595679
0.00833148
0.00816803
0.00796933
0.00828762
0.00724123
0.00803292
0.00772601
0.008023
0.00787572
0.00824807
0.00782085
0.00823035
0.00788096
0.00879613
0.00727186
0.00814655
0.00839901
0.00788534
0.00844345
0.00832574
0.008285
0.00813279
0.0078213
0.00784327
0.00777239
0.00729418
0.00636909
0.00576907
0.00549516
0.00559956
0.00441294
0.00375325
0.00531625
0.00833335
0.00833335
0.00833335
0.00833335
0.00833335
0.00833335
0.00833335
0.00833335
0.00833335
0.00833335
0.00833335
0.00833335
0.00833335
0.00833335
0.00833335
0.00833335
0.00833335
0.00833335
0.00833335
0.00833335
0.00833335
0.00833335
0.00833335
0.00833335
0.00833335
0.00833335
0.00833335
0.00833335
0.00833335
0.00833335
0.00833335
0.00833335
0.00833335
0.00833335
0.00833335
0.00833335
0.00833335
0.00833335
0.00833335
0.00833335
0.00833335
0.00833335
0.00833335
0.00833335
0.00833335
0.00833335
0.00833335
0.00833335
0.00833335
0.00833335
0.00833335
0.00833335
0.00833335
0.00833335
0.00833335
0.00833335
0.00833335
0.00833335
0.00833363
0.00833279
0.00831475
0.00837823
0.00832686
0.00826295
0.00833016
0.00817069
0.00795857
0.00874961
0.00806853
0.00839799
0.00814156
0.00830853
0.00832776
0.00832577
0.00831447
0.00829228
0.00805746
0.00840589
0.00830035
0.00830268
0.00831379
0.00832426
0.0083088
0.00830027
0.00830298
0.00826154
0.00829656
0.00818126
0.00803591
0.00829664
0.00796038
0.0076985
0.00801227
0.00745638
0.00778471
0.00812613
0.00833335
0.00833335
0.00833335
0.00833335
0.00833335
0.00833335
0.00833335
0.00833335
0.00833335
0.00833335
0.00833335
0.00833335
0.00833335
0.00833335
0.00833335
0.00833335
0.00833335
0.00833335
0.00833335
0.00833335
0.00833335
0.00833335
0.00833335
0.00833335
0.00833335
0.00833335
0.00833335
0.00833335
0.00833335
0.00833335
0.00833335
0.00833335
0.00833335
0.00833335
0.00833335
0.00833335
0.00833335
0.00833335
0.00833335
0.00833335
0.00833335
0.00833335
0.00833335
0.00833335
0.00833335
0.00833335
0.00833335
0.00833335
0.00833335
0.00833335
0.00833335
0.00833335
0.00833335
0.00833335
0.00833335
0.00833335
0.00833335
0.00833333
0.00833358
0.00833548
0.00807694
0.00770464
0.00770813
0.00759553
0.00828636
0.00712825
0.00765408
0.00813892
0.00805719
0.00790286
0.00774393
0.00841707
0.00761914
0.00848279
0.00780902
0.00820307
0.00827805
0.00832916
0.00810894
0.00798723
0.00807592
0.00807293
0.00796186
0.00823425
0.00801768
0.00852609
0.00807339
0.00840844
0.00803189
0.00832655
0.00824926
0.0081857
0.0082724
0.00828617
0.00685012
0.00735751
0.00833335
0.00833335
0.00833335
0.00833335
0.00833335
0.00833335
0.00833335
0.00833335
0.00833335
0.00833335
0.00833335
0.00833335
0.00833335
0.00833335
0.00833335
0.00833335
0.00833335
0.00833335
0.00833335
0.00833335
0.00833335
0.00833335
0.00833335
0.00833335
0.00833335
0.00833335
0.00833335
0.00833335
0.00833335
0.00833335
0.00833335
0.00833335
0.00833335
0.00833335
0.00833335
0.00833335
0.00833335
0.00833335
0.00833335
0.00833335
0.00833335
0.00833335
0.00833335
0.00833335
0.00833335
0.00833335
0.00833335
0.00833335
0.00833335
0.00833335
0.00833335
0.00833335
0.00833335
0.00833335
0.00833335
0.00833335
0.00833335
0.00833336
0.00833321
0.00833494
0.00819155
0.00838395
0.00720452
0.00825444
0.00811421
0.00770055
0.00757437
0.00755824
0.0073401
0.00739705
0.00725479
0.00728536
0.00678567
0.0069915
0.00671696
0.0065146
0.00625968
0.00593784
0.00567366
0.00532432
0.00490215
0.00485452
0.00438147
0.00473629
0.00476917
0.00483537
0.00502728
0.004722
0.00495226
0.00509083
0.00480655
0.00464793
0.00483792
0.00469176
0.00435324
0.00396865
0.00833335
0.00833335
0.00833335
0.00833335
0.00833335
0.00833335
0.00833335
0.00833335
0.00833335
0.00833335
0.00833335
0.00833335
0.00833335
0.00833335
0.00833335
0.00833335
0.00833335
0.00833335
0.00833335
0.00833335
0.00833335
0.00833335
0.00833335
0.00833335
0.00833335
0.00833335
0.00833335
0.00833335
0.00833335
0.00833335
0.00833335
0.00833335
0.00833335
0.00833335
0.00833335
0.00833335
0.00833335
0.00833335
0.00833335
0.00833335
0.00833335
0.00833335
0.00833335
0.00833335
0.00833335
0.00833335
0.00833335
0.00833335
0.00833335
0.00833335
0.00833335
0.00833335
0.00833335
0.00833335
0.00833335
0.00833335
0.00833335
0.00833388
0.00831525
0.00833753
0.0083337
0.00795786
0.00739857
0.00663122
0.00652655
0.00604795
0.00610906
0.00560826
0.00531303
0.00488439
0.00453774
0.00431947
0.0039183
0.00379425
0.00349529
0.00341577
0.00336466
0.00334707
0.00332684
0.0032779
0.00320332
0.00327828
0.00319349
0.00319031
0.00313201
0.0030894
0.0030648
0.00291873
0.00286943
0.00273971
0.00270931
0.00251192
0.00201834
0.00171622
0.00151818
0.00126962
0.00833335
0.00833335
0.00833335
0.00833335
0.00833335
0.00833335
0.00833335
0.00833335
0.00833335
0.00833335
0.00833335
0.00833335
0.00833335
0.00833335
0.00833335
0.00833335
0.00833335
0.00833335
0.00833335
0.00833335
0.00833335
0.00833335
0.00833335
0.00833335
0.00833335
0.00833335
0.00833335
0.00833335
0.00833335
0.00833335
0.00833335
0.00833335
0.00833335
0.00833335
0.00833335
0.00833335
0.00833335
0.00833335
0.00833335
0.00833335
0.00833335
0.00833335
0.00833335
0.00833335
0.00833335
0.00833335
0.00833335
0.00833335
0.00833335
0.00833335
0.00833335
0.00833335
0.00833335
0.00833335
0.00833335
0.00833335
0.00833335
0.00833334
0.00833376
0.00835018
0.00830412
0.00420086
0.00265995
0.00222384
0.00209753
0.00208032
0.0020476
0.00191264
0.00192106
0.00172
0.00177516
0.00173734
0.0016712
0.00163143
0.00161631
0.00162634
0.00164944
0.00164352
0.00153385
0.00155784
0.00150041
0.00138867
0.00123623
0.00105637
0.00103093
0.00106316
0.00106333
0.00106595
0.00109009
0.0010726
0.00101828
0.000976135
0.000788831
0.000566256
0.000223505
0.00030099
0.00833335
0.00833335
0.00833335
0.00833335
0.00833335
0.00833335
0.00833335
0.00833335
0.00833335
0.00833335
0.00833335
0.00833335
0.00833335
0.00833335
0.00833335
0.00833335
0.00833335
0.00833335
0.00833335
0.00833335
0.00833335
0.00833335
0.00833335
0.00833335
0.00833335
0.00833335
0.00833335
0.00833335
0.00833335
0.00833335
0.00833335
0.00833335
0.00833335
0.00833335
0.00833335
0.00833335
0.00833335
0.00833335
0.00833335
0.00833335
0.00833335
0.00833335
0.00833335
0.00833335
0.00833335
0.00833335
0.00833335
0.00833335
0.00833335
0.00833335
0.00833335
0.00833335
0.00833335
0.00833335
0.00833335
0.00833335
0.00833335
0.00833335
0.00833335
0.00833452
0.00833459
0.00412202
0.00196617
0.00161845
0.00162847
0.0015825
0.00157199
0.00149069
0.00145098
0.00135332
0.0012648
0.00113867
0.0010161
0.000931877
0.000833395
0.000750179
0.000648393
0.000446674
0.000247834
0.000208971
0.000204119
0.000199266
0.000195694
0.000190365
0.000186127
0.000182688
0.000202919
0.000225187
0.000217464
0.000219877
0.000207797
0.000189598
0.000165383
0.00016175
0.000162961
0.000162961
0.00833335
0.00833335
0.00833335
0.00833335
0.00833335
0.00833335
0.00833335
0.00833335
0.00833335
0.00833335
0.00833335
0.00833335
0.00833335
0.00833335
0.00833335
0.00833335
0.00833335
0.00833335
0.00833335
0.00833335
0.00833335
0.00833335
0.00833335
0.00833335
0.00833335
0.00833335
0.00833335
0.00833335
0.00833335
0.00833335
0.00833335
0.00833335
0.00833335
0.00833335
0.00833335
0.00833335
0.00833335
0.00833335
0.00833335
0.00833335
0.00833335
0.00833335
0.00833335
0.00833335
0.00833335
0.00833335
0.00833335
0.00833335
0.00833335
0.00833335
0.00833335
0.00833335
0.00833335
0.00833335
0.00833335
0.00833335
0.00833335
0.00833335
0.00833335
0.00833051
0.00833334
0.0068533
0.00112004
0.00100319
0.00104197
0.00101329
0.00102113
0.000918466
0.000862798
0.000742235
0.000649725
0.000481412
0.000350669
0.000258613
0.000234002
0.000229476
0.000223131
0.000218018
0.000213183
0.000208971
0.000204126
0.000199434
0.000194965
0.000191727
0.000185945
0.000182302
0.000178664
0.000175068
0.000171437
0.000167787
0.000165325
0.000164032
0.000162021
0.00016175
0.000162961
0.000162961
0.00833335
0.00833335
0.00833335
0.00833335
0.00833335
0.00833335
0.00833335
0.00833335
0.00833335
0.00833335
0.00833335
0.00833335
0.00833335
0.00833335
0.00833335
0.00833335
0.00833335
0.00833335
0.00833335
0.00833335
0.00833335
0.00833335
0.00833335
0.00833335
0.00833335
0.00833335
0.00833335
0.00833335
0.00833335
0.00833335
0.00833335
0.00833335
0.00833335
0.00833335
0.00833335
0.00833335
0.00833335
0.00833335
0.00833335
0.00833335
0.00833335
0.00833335
0.00833335
0.00833335
0.00833335
0.00833335
0.00833335
0.00833335
0.00833335
0.00833335
0.00833335
0.00833335
0.00833335
0.00833335
0.00833335
0.00833335
0.00833335
0.00833335
0.00833282
0.00830233
0.0091315
0.00764058
0.000384523
0.000321562
0.000337428
0.000332367
0.000323981
0.000311888
0.000294933
0.00027389
0.000256479
0.000250138
0.000245234
0.000239241
0.000234397
0.000229554
0.00022496
0.000219879
0.000212448
0.000209811
0.000204119
0.000198918
0.000195899
0.000190831
0.000186072
0.000180715
0.000179322
0.000174554
0.000171112
0.000167904
0.000165044
0.000164566
0.00016169
0.00016175
0.000162962
0.000162961
0.00833335
0.00833335
0.00833335
0.00833335
0.00833335
0.00833335
0.00833335
0.00833335
0.00833335
0.00833335
0.00833335
0.00833335
0.00833335
0.00833335
0.00833335
0.00833335
0.00833335
0.00833335
0.00833335
0.00833335
0.00833335
0.00833335
0.00833335
0.00833335
0.00833335
0.00833335
0.00833335
0.00833335
0.00833335
0.00833335
0.00833335
0.00833335
0.00833335
0.00833335
0.00833335
0.00833335
0.00833335
0.00833335
0.00833335
0.00833335
0.00833335
0.00833335
0.00833335
0.00833335
0.00833335
0.00833335
0.00833335
0.00833335
0.00833335
0.00833335
0.00833335
0.00833335
0.00833335
0.00833335
0.00833335
0.00833335
0.00833335
0.00833334
0.00832932
0.00833761
0.00833747
0.00808624
0.00370737
0.000293887
0.000288718
0.000282826
0.00027819
0.000270516
0.000265922
0.000261034
0.000254998
0.000250148
0.000245993
0.00023907
0.000234727
0.000229728
0.00022337
0.000218656
0.000213814
0.000209441
0.000203749
0.000199284
0.000195611
0.000190621
0.000185968
0.000182337
0.000178161
0.000175637
0.000171471
0.000167804
0.000165383
0.000164228
0.000161756
0.00016175
0.000162938
0.000162982
0.00833335
0.00833335
0.00833335
0.00833335
0.00833335
0.00833335
0.00833335
0.00833335
0.00833335
0.00833335
0.00833335
0.00833335
0.00833335
0.00833335
0.00833335
0.00833335
0.00833335
0.00833335
0.00833335
0.00833335
0.00833335
0.00833335
0.00833335
0.00833335
0.00833335
0.00833335
0.00833335
0.00833335
0.00833335
0.00833335
0.00833335
0.00833335
0.00833335
0.00833335
0.00833335
0.00833335
0.00833335
0.00833335
0.00833335
0.00833335
0.00833335
0.00833335
0.00833335
0.00833335
0.00833335
0.00833335
0.00833335
0.00833335
0.00833335
0.00833335
0.00833335
0.00833335
0.00833335
0.00833335
0.00833335
0.00833335
0.00833335
0.00833298
0.00833358
0.00833191
0.00833303
0.00833338
0.00578948
0.000293723
0.000287674
0.000283205
0.000276
0.000271313
0.000265791
0.000259811
0.000254869
0.000248949
0.000244086
0.000239239
0.000234771
0.000228436
0.0002235
0.000218667
0.000213813
0.00020897
0.000204001
0.000199468
0.000195652
0.000191132
0.000185375
0.000182845
0.000178701
0.000175084
0.000171659
0.000167712
0.000165273
0.000164222
0.000161751
0.00016175
0.00016175
0.00016175
0.00833335
0.00833335
0.00833335
0.00833335
0.00833335
0.00833335
0.00833335
0.00833335
0.00833335
0.00833335
0.00833335
0.00833335
0.00833335
0.00833335
0.00833335
0.00833335
0.00833335
0.00833335
0.00833335
0.00833335
0.00833335
0.00833335
0.00833335
0.00833335
0.00833335
0.00833335
0.00833335
0.00833335
0.00833335
0.00833335
0.00833335
0.00833335
0.00833335
0.00833335
0.00833335
0.00833335
0.00833335
0.00833335
0.00833335
0.00833335
0.00833335
0.00833335
0.00833335
0.00833335
0.00833335
0.00833335
0.00833335
0.00833335
0.00833335
0.00833335
0.00833335
0.00833335
0.00833335
0.00833335
0.00833335
0.00833335
0.00833335
0.00833334
0.00833344
0.00833347
0.00841077
0.00768992
0.000540429
0.000360322
0.000356022
0.000345735
0.000330702
0.000314461
0.000298485
0.000290117
0.000278152
0.000263456
0.000250138
0.000239241
0.000234951
0.000229037
0.000224711
0.000218657
0.000213793
0.000208981
0.000204127
0.000200499
0.000195653
0.000191251
0.000186517
0.000182334
0.000178701
0.000175068
0.000171437
0.000167804
0.000165382
0.000164172
0.000161996
0.000161945
0.000163083
0.000161731
0.00833335
0.00833335
0.00833335
0.00833335
0.00833335
0.00833335
0.00833335
0.00833335
0.00833335
0.00833335
0.00833335
0.00833335
0.00833335
0.00833335
0.00833335
0.00833335
0.00833335
0.00833335
0.00833335
0.00833335
0.00833335
0.00833335
0.00833335
0.00833335
0.00833335
0.00833335
0.00833335
0.00833335
0.00833335
0.00833335
0.00833335
0.00833335
0.00833335
0.00833335
0.00833335
0.00833335
0.00833335
0.00833335
0.00833335
0.00833335
0.00833335
0.00833335
0.00833335
0.00833335
0.00833335
0.00833335
0.00833335
0.00833335
0.00833335
0.00833335
0.00833335
0.00833335
0.00833335
0.00833335
0.00833335
0.00833335
0.00833335
0.00833335
0.00833735
0.00832908
0.00828306
0.00165106
0.00241394
0.000934172
0.000904627
0.000809496
0.000786415
0.000702112
0.000662885
0.000596693
0.000529934
0.000458397
0.000402683
0.000346829
0.000310266
0.000262549
0.00022471
0.000220426
0.00021332
0.00020948
0.000204747
0.000200118
0.000194959
0.000191209
0.000187321
0.000182212
0.000178701
0.000175066
0.000171529
0.000167484
0.000165301
0.000164168
0.00016159
0.000161901
0.00016296
0.000162961
0.00833335
0.00833335
0.00833335
0.00833335
0.00833335
0.00833335
0.00833335
0.00833335
0.00833335
0.00833335
0.00833335
0.00833335
0.00833335
0.00833335
0.00833335
0.00833335
0.00833335
0.00833335
0.00833335
0.00833335
0.00833335
0.00833335
0.00833335
0.00833335
0.00833335
0.00833335
0.00833335
0.00833335
0.00833335
0.00833335
0.00833335
0.00833335
0.00833335
0.00833335
0.00833335
0.00833335
0.00833335
0.00833335
0.00833335
0.00833335
0.00833335
0.00833335
0.00833335
0.00833335
0.00833335
0.00833335
0.00833335
0.00833335
0.00833335
0.00833335
0.00833335
0.00833335
0.00833335
0.00833335
0.00833335
0.00833335
0.00833335
0.00833335
0.00833332
0.00834691
0.00772767
0.00272427
0.00812046
0.00325912
0.00370885
0.00257931
0.0025999
0.00251453
0.00245968
0.00236835
0.00230324
0.00220811
0.00207018
0.00194041
0.00178139
0.00158391
0.00137735
0.00109205
0.000782088
0.000555962
0.000424451
0.000292435
0.000218654
0.000190933
0.000185094
0.000182815
0.00017869
0.000175853
0.000170788
0.00016751
0.000165534
0.000163143
0.000160566
0.000161754
0.000161725
0.000162988
0.00833335
0.00833335
0.00833335
0.00833335
0.00833335
0.00833335
0.00833335
0.00833335
0.00833335
0.00833335
0.00833335
0.00833335
0.00833335
0.00833335
0.00833335
0.00833335
0.00833335
0.00833335
0.00833335
0.00833335
0.00833335
0.00833335
0.00833335
0.00833335
0.00833335
0.00833335
0.00833335
0.00833335
0.00833335
0.00833335
0.00833335
0.00833335
0.00833335
0.00833335
0.00833335
0.00833335
0.00833335
0.00833335
0.00833335
0.00833335
0.00833335
0.00833335
0.00833335
0.00833335
0.00833335
0.00833335
0.00833335
0.00833335
0.00833335
0.00833335
0.00833335
0.00833335
0.00833335
0.00833335
0.00833335
0.00833335
0.00833335
0.00833335
0.00833334
0.00834154
0.00731592
0.00781729
0.00827602
0.00825208
0.00824625
0.00825674
0.00836789
0.0080966
0.00792087
0.00769366
0.00763304
0.00754254
0.00756024
0.00761447
0.00734851
0.0071194
0.00715027
0.00700318
0.00669754
0.00624767
0.00561031
0.00487006
0.00417885
0.00338827
0.00267658
0.00189988
0.00118125
0.000581984
0.000422094
0.000313121
0.000181131
0.000164174
0.000161727
0.000160552
0.000161756
0.00016175
0.00833335
0.00833335
0.00833335
0.00833335
0.00833335
0.00833335
0.00833335
0.00833335
0.00833335
0.00833335
0.00833335
0.00833335
0.00833335
0.00833335
0.00833335
0.00833335
0.00833335
0.00833335
0.00833335
0.00833335
0.00833335
0.00833335
0.00833335
0.00833335
0.00833335
0.00833335
0.00833335
0.00833335
0.00833335
0.00833335
0.00833335
0.00833335
0.00833335
0.00833335
0.00833335
0.00833335
0.00833335
0.00833335
0.00833335
0.00833335
0.00833335
0.00833335
0.00833335
0.00833335
0.00833335
0.00833335
0.00833335
0.00833335
0.00833335
0.00833335
0.00833335
0.00833335
0.00833335
0.00833335
0.00833335
0.00833335
0.00833335
0.00833335
0.00833339
0.00831854
0.0095852
0.00828627
0.00833222
0.00876845
0.00715071
0.00833566
0.00794336
0.00841577
0.00835273
0.00823248
0.0082933
0.00783445
0.00852972
0.00834537
0.00831809
0.00916328
0.00687475
0.00904326
0.00735325
0.0085529
0.00890993
0.00832947
0.00786765
0.00840823
0.00724083
0.00810312
0.00722875
0.00694059
0.00587602
0.00466002
0.0034176
0.00205013
0.000584743
0.000158935
0.000161669
0.000161819
0.00833335
0.00833335
0.00833335
0.00833335
0.00833335
0.00833335
0.00833335
0.00833335
0.00833335
0.00833335
0.00833335
0.00833335
0.00833335
0.00833335
0.00833335
0.00833335
0.00833335
0.00833335
0.00833335
0.00833335
0.00833335
0.00833335
0.00833335
0.00833335
0.00833335
0.00833335
0.00833335
0.00833335
0.00833335
0.00833335
0.00833335
0.00833335
0.00833335
0.00833335
0.00833335
0.00833335
0.00833335
0.00833335
0.00833335
0.00833335
0.00833335
0.00833335
0.00833335
0.00833335
0.00833335
0.00833335
0.00833335
0.00833335
0.00833335
0.00833335
0.00833335
0.00833335
0.00833335
0.00833335
0.00833335
0.00833335
0.00833335
0.00833336
0.00833334
0.00829328
0.00923209
0.00826471
0.00830371
0.00831234
0.00831695
0.00831775
0.00832599
0.00823581
0.00809277
0.00854764
0.00812772
0.00830489
0.0081996
0.00809348
0.00850756
0.00833903
0.00830874
0.00831559
0.00833775
0.0082396
0.00826657
0.00832902
0.00815957
0.00776959
0.00862231
0.0083313
0.00831947
0.00832584
0.00825064
0.0072359
0.00828358
0.00826769
0.00833308
0.00843609
0.00833056
0.00825576
0.00833335
0.00833335
0.00833335
0.00833335
0.00833335
0.00833335
0.00833335
0.00833335
0.00833335
0.00833335
0.00833335
0.00833335
0.00833335
0.00833335
0.00833335
0.00833335
0.00833335
0.00833335
0.00833335
0.00833335
0.00833335
0.00833335
0.00833335
0.00833335
0.00833335
0.00833335
0.00833335
0.00833335
0.00833335
0.00833335
0.00833335
0.00833335
0.00833335
0.00833335
0.00833335
0.00833335
0.00833335
0.00833335
0.00833335
0.00833335
0.00833335
0.00833335
0.00833335
0.00833335
0.00833335
0.00833335
0.00833335
0.00833335
0.00833335
0.00833335
0.00833335
0.00833335
0.00833335
0.00833335
0.00833335
0.00833335
0.00833335
0.00833318
0.00833349
0.00829713
0.00874361
0.00828027
0.00807185
0.00835415
0.00812966
0.00832944
0.008303
0.00816916
0.00822573
0.00824727
0.00835632
0.00825322
0.00833934
0.00832957
0.00832681
0.00833301
0.00833006
0.00832624
0.00833152
0.00833191
0.00828372
0.00828411
0.00832635
0.00828796
0.0083298
0.00833082
0.00831194
0.0083126
0.00840407
0.00831146
0.00834317
0.00835548
0.00839663
0.0082104
0.00835696
0.00833332
0.00833335
0.00833335
0.00833335
0.00833335
0.00833335
0.00833335
0.00833335
0.00833335
0.00833335
0.00833335
0.00833335
0.00833335
0.00833335
0.00833335
0.00833335
0.00833335
0.00833335
0.00833335
0.00833335
0.00833335
0.00833335
0.00833335
0.00833335
0.00833335
0.00833335
0.00833335
0.00833335
0.00833335
0.00833335
0.00833335
0.00833335
0.00833335
0.00833335
0.00833335
0.00833335
0.00833335
0.00833335
0.00833335
0.00833335
0.00833335
0.00833335
0.00833335
0.00833335
0.00833335
0.00833335
0.00833335
0.00833335
0.00833335
0.00833335
0.00833335
0.00833335
0.00833335
0.00833335
0.00833335
0.00833335
0.00833335
0.00833335
0.00833334
0.0083332
0.00832948
0.0075368
0.00897158
0.00802651
0.00811611
0.00825947
0.00831882
0.00832689
0.00827745
0.00829512
0.00835268
0.00833892
0.00820893
0.00828842
0.00834368
0.00829272
0.00833075
0.00805382
0.00815848
0.00811294
0.0082839
0.00829634
0.00833604
0.00826813
0.00832296
0.00827591
0.00800132
0.00843753
0.00832914
0.0082248
0.00833602
0.00829161
0.00836361
0.00832737
0.00833367
0.00833144
0.00833148
0.00833335
0.00833335
0.00833335
0.00833335
0.00833335
0.00833335
0.00833335
0.00833335
0.00833335
0.00833335
0.00833335
0.00833335
0.00833335
0.00833335
0.00833335
0.00833335
0.00833335
0.00833335
0.00833335
0.00833335
0.00833335
0.00833335
0.00833335
0.00833335
0.00833335
0.00833335
0.00833335
0.00833335
0.00833335
0.00833335
0.00833335
0.00833335
0.00833335
0.00833335
0.00833335
0.00833335
0.00833335
0.00833335
0.00833335
0.00833335
0.00833335
0.00833335
0.00833335
0.00833335
0.00833335
0.00833335
0.00833335
0.00833335
0.00833335
0.00833335
0.00833335
0.00833335
0.00833335
0.00833335
0.00833335
0.00833335
0.00833335
0.00833335
0.00833335
0.00833062
0.00859666
0.00835038
0.00834874
0.00834681
0.00823911
0.0081655
0.00837735
0.00815191
0.00832595
0.00810611
0.00801318
0.00791116
0.00820933
0.00794777
0.00816275
0.00826576
0.00818421
0.00823242
0.00841259
0.00832084
0.00828257
0.00812309
0.00834516
0.00826243
0.00828087
0.00825755
0.00816933
0.0071628
0.00687136
0.00591267
0.00549659
0.00534223
0.00538463
0.00524423
0.0049167
0.00349959
0.00833335
0.00833335
0.00833335
0.00833335
0.00833335
0.00833335
0.00833335
0.00833335
0.00833335
0.00833335
0.00833335
0.00833335
0.00833335
0.00833335
0.00833335
0.00833335
0.00833335
0.00833335
0.00833335
0.00833335
0.00833335
0.00833335
0.00833335
0.00833335
0.00833335
0.00833335
0.00833335
0.00833335
0.00833335
0.00833335
0.00833335
0.00833335
0.00833335
0.00833335
0.00833335
0.00833335
0.00833335
0.00833335
0.00833335
0.00833335
0.00833335
0.00833335
0.00833335
0.00833335
0.00833335
0.00833335
0.00833335
0.00833335
0.00833335
0.00833335
0.00833335
0.00833335
0.00833335
0.00833335
0.00833335
0.00833335
0.00833335
0.00833334
0.00833299
0.00833327
0.00833894
0.00300592
0.00790626
0.00474227
0.0051543
0.00447401
0.00415057
0.00377097
0.00352759
0.00327604
0.00308435
0.00286973
0.00287736
0.00292098
0.00292322
0.00295152
0.00301042
0.00302879
0.00300399
0.00301021
0.00299794
0.00296909
0.00291811
0.00283967
0.00275022
0.00249651
0.00234664
0.0021968
0.0021143
0.00192976
0.00189757
0.00184969
0.001792
0.00182959
0.00178031
0.00160894
0.00833335
0.00833335
0.00833335
0.00833335
0.00833335
0.00833335
0.00833335
0.00833335
0.00833335
0.00833335
0.00833335
0.00833335
0.00833335
0.00833335
0.00833335
0.00833335
0.00833335
0.00833335
0.00833335
0.00833335
0.00833335
0.00833335
0.00833335
0.00833335
0.00833335
0.00833335
0.00833335
0.00833335
0.00833335