/*--------------------------------*- C++ -*----------------------------------*\
| =========                 |                                                 |
| \\      /  F ield         | OpenFOAM: The Open Source CFD Toolbox           |
|  \\    /   O peration     | Version:  2.3.0                                 |
|   \\  /    A nd           | Web:      www.OpenFOAM.org                      |
|    \\/     M anipulation  |                                                 |
\*---------------------------------------------------------------------------*/
FoamFile
{
    version     2.0;
    format      ascii;
    class       volScalarField;
    location    "34";
    object      epsilon.water;
}
// * * * * * * * * * * * * * * * * * * * * * * * * * * * * * * * * * * * * * //

dimensions      [0 2 -3 0 0 0 0];

internalField   nonuniform List<scalar> 
6144
(
5.03545e-05
3.86537e-05
2.31065e-05
1.74746e-05
1.00989e-05
6.87393e-06
5.3488e-06
5.26658e-06
5.5183e-06
6.95733e-06
8.26305e-06
9.4117e-06
9.90005e-06
9.98307e-06
9.44137e-06
9.10871e-06
8.60156e-06
8.23613e-06
7.88017e-06
7.76363e-06
7.67999e-06
7.65048e-06
7.65918e-06
7.68467e-06
7.72698e-06
7.78453e-06
7.85324e-06
7.92886e-06
8.0219e-06
8.20939e-06
8.41092e-06
8.55045e-06
8.62979e-06
8.65629e-06
8.68935e-06
8.70109e-06
8.79232e-06
8.87377e-06
9.06995e-06
9.12205e-06
9.27815e-06
9.25193e-06
9.34555e-06
9.32782e-06
9.14509e-06
8.82818e-06
7.7219e-06
7.60888e-06
1.11776e-05
2.10818e-05
3.70381e-05
5.0257e-05
6.68674e-05
0.000130186
0.000292828
0.000664639
0.00155179
0.00284616
0.00861657
0.0129069
0.0593904
0.026034
0.0115459
0.00554444
0.00273493
0.00132348
0.000739511
0.000598635
0.000730467
0.000870901
0.00107602
0.00125618
0.0013948
0.00147458
0.00162098
0.00172839
0.00176669
0.00184032
0.00193998
0.00200021
0.00203146
0.0020364
0.00203301
0.00202598
0.0020109
0.00197767
0.00193699
0.00187816
0.00177012
0.00165128
0.00139155
0.000580373
0.00010396
5.23026e-05
3.53563e-05
2.79219e-05
9.21114e-05
6.8587e-05
4.39261e-05
3.65448e-05
2.17951e-05
1.86123e-05
1.7722e-05
1.77227e-05
1.7979e-05
2.10772e-05
2.36945e-05
2.59944e-05
2.62954e-05
2.52611e-05
2.35876e-05
2.26753e-05
2.19296e-05
2.17234e-05
2.16653e-05
2.21538e-05
2.25638e-05
2.29626e-05
2.33189e-05
2.36227e-05
2.3892e-05
2.41439e-05
2.43953e-05
2.46488e-05
2.49604e-05
2.5491e-05
2.59593e-05
2.62727e-05
2.64905e-05
2.66236e-05
2.67554e-05
2.6841e-05
2.70532e-05
2.71919e-05
2.75429e-05
2.76356e-05
2.79889e-05
2.8069e-05
2.83951e-05
2.85876e-05
2.80799e-05
2.70721e-05
2.42443e-05
2.20385e-05
2.47088e-05
4.0275e-05
6.34593e-05
9.66934e-05
0.000167234
0.000428717
0.00106345
0.00162551
0.00320735
0.00438642
0.00653506
0.00636166
0.0258756
0.00322934
0.00167953
0.00152052
0.00145419
0.00147397
0.00165747
0.00194849
0.00225431
0.0024311
0.00251645
0.0025203
0.00249068
0.00240778
0.00235267
0.00240581
0.00243289
0.00239931
0.00233257
0.00226064
0.00215136
0.0020988
0.00204086
0.002005
0.00197017
0.00189522
0.00184028
0.00176932
0.0016502
0.00153631
0.00132278
0.000698882
0.000153295
8.83298e-05
5.28519e-05
3.09922e-05
0.000110293
8.41349e-05
6.3471e-05
6.00436e-05
4.24659e-05
3.72242e-05
3.56576e-05
3.05179e-05
2.69325e-05
2.84952e-05
3.09038e-05
3.16938e-05
3.00193e-05
2.79153e-05
2.65047e-05
2.60342e-05
2.62844e-05
2.73431e-05
2.89043e-05
3.0291e-05
3.13953e-05
3.23449e-05
3.30894e-05
3.36639e-05
3.41207e-05
3.44994e-05
3.48449e-05
3.51752e-05
3.54882e-05
3.57707e-05
3.59731e-05
3.60889e-05
3.61747e-05
3.62113e-05
3.62308e-05
3.621e-05
3.62016e-05
3.60992e-05
3.61745e-05
3.61519e-05
3.64343e-05
3.64913e-05
3.68597e-05
3.69558e-05
3.70351e-05
3.71135e-05
3.4148e-05
3.29144e-05
3.57494e-05
5.22569e-05
7.13684e-05
0.000124661
0.000313817
0.000902646
0.00221282
0.00363491
0.00783391
0.00836355
0.00547551
0.00546983
0.0162434
0.00251657
0.00225016
0.00244516
0.00269756
0.00294813
0.00325579
0.00340626
0.00347068
0.00341267
0.00325526
0.0030114
0.00279536
0.00263859
0.00242119
0.00210935
0.0017719
0.00150936
0.00129168
0.00116228
0.00105754
0.000994658
0.000984632
0.00099618
0.00106554
0.00115792
0.00130862
0.00145331
0.00145286
0.00140254
0.00123528
0.000656737
0.000194798
0.000172652
9.94504e-05
3.99293e-05
0.000128197
9.61117e-05
7.39061e-05
7.44446e-05
5.85043e-05
5.27698e-05
4.61118e-05
3.79225e-05
3.15887e-05
3.11839e-05
3.29762e-05
3.29802e-05
3.0615e-05
2.81793e-05
2.68473e-05
2.65466e-05
2.72294e-05
2.85765e-05
3.00972e-05
3.14602e-05
3.26357e-05
3.3649e-05
3.44218e-05
3.49915e-05
3.54209e-05
3.57608e-05
3.60586e-05
3.63415e-05
3.66112e-05
3.68361e-05
3.69788e-05
3.70354e-05
3.70401e-05
3.69916e-05
3.69316e-05
3.6858e-05
3.67948e-05
3.67223e-05
3.67725e-05
3.68078e-05
3.70637e-05
3.7047e-05
3.73202e-05
3.7122e-05
3.78526e-05
3.92159e-05
4.16431e-05
4.78012e-05
5.10366e-05
6.50454e-05
7.58617e-05
0.00016075
0.000487756
0.00147942
0.00348575
0.00547461
0.00882393
0.00848675
0.00545078
0.00538657
0.0128993
0.00334059
0.0033352
0.00379277
0.00404174
0.00421791
0.00430232
0.00430912
0.00416476
0.00391072
0.00357455
0.00318305
0.00281807
0.00242781
0.00207196
0.00177215
0.00153272
0.00131905
0.00115232
0.000995442
0.000861661
0.000777802
0.000748414
0.000750597
0.000771253
0.000831257
0.000934913
0.00101502
0.00111576
0.00114627
0.0010743
0.000560682
0.000206575
0.00021972
0.000132513
4.88938e-05
0.000146431
0.000102165
7.88576e-05
7.83064e-05
6.55018e-05
6.35204e-05
4.78562e-05
4.04849e-05
3.575e-05
3.35535e-05
3.4406e-05
3.25566e-05
2.91675e-05
2.62547e-05
2.50913e-05
2.49691e-05
2.59181e-05
2.74967e-05
2.92416e-05
3.08703e-05
3.24007e-05
3.3651e-05
3.45448e-05
3.51411e-05
3.55225e-05
3.57772e-05
3.59487e-05
3.60875e-05
3.62119e-05
3.62864e-05
3.62829e-05
3.61873e-05
3.60273e-05
3.58191e-05
3.56157e-05
3.54356e-05
3.52938e-05
3.52073e-05
3.52165e-05
3.52766e-05
3.54362e-05
3.53545e-05
3.55044e-05
3.56117e-05
3.74507e-05
4.1559e-05
5.08084e-05
6.20317e-05
7.01902e-05
7.68121e-05
7.86305e-05
0.000185026
0.000678971
0.00221171
0.00441306
0.00600215
0.00711523
0.00704661
0.00531529
0.00527828
0.0106799
0.0038001
0.00420387
0.00459855
0.00477213
0.00483493
0.00484761
0.00473328
0.00447373
0.00414671
0.00374588
0.00331244
0.00286805
0.00244921
0.00207836
0.0018171
0.00166964
0.00151394
0.00136533
0.00115884
0.000947791
0.00083075
0.000767709
0.000773545
0.000857654
0.000977368
0.000994005
0.00099249
0.0010032
0.000990582
0.000856244
0.000331755
0.00021441
0.000233915
0.000138131
5.61907e-05
0.000154206
0.000105003
8.21984e-05
8.66455e-05
7.20252e-05
7.39006e-05
5.30424e-05
4.41563e-05
3.80679e-05
3.37117e-05
3.44642e-05
3.13246e-05
2.75376e-05
2.41573e-05
2.22265e-05
2.18821e-05
2.30641e-05
2.51086e-05
2.75029e-05
2.9714e-05
3.15334e-05
3.2844e-05
3.37306e-05
3.42864e-05
3.45935e-05
3.47423e-05
3.47945e-05
3.48142e-05
3.48243e-05
3.47892e-05
3.46727e-05
3.4475e-05
3.42216e-05
3.39295e-05
3.36384e-05
3.33942e-05
3.32164e-05
3.31428e-05
3.31576e-05
3.32411e-05
3.33286e-05
3.32518e-05
3.33789e-05
3.38473e-05
3.65505e-05
4.25966e-05
5.66397e-05
7.03294e-05
8.19491e-05
8.12575e-05
8.06282e-05
0.000169526
0.00060561
0.00197406
0.00387492
0.00575756
0.00741915
0.0085397
0.00502929
0.00496443
0.0100816
0.00400362
0.00449972
0.00482949
0.00496158
0.00500584
0.00500109
0.00486969
0.00463122
0.00429027
0.00387078
0.00342272
0.00295756
0.00252566
0.0021473
0.00185834
0.00168463
0.00157139
0.00147421
0.00136592
0.00118967
0.000977564
0.000796801
0.000714333
0.000680497
0.000694003
0.000748037
0.000774427
0.000760902
0.000671044
0.000401811
0.000236104
0.000224925
0.000221032
0.000129124
5.9404e-05
0.000128479
0.000105718
8.26418e-05
9.05915e-05
7.36478e-05
7.92931e-05
6.04322e-05
4.79636e-05
4.00171e-05
3.38042e-05
3.42925e-05
3.00358e-05
2.51905e-05
2.04932e-05
1.87761e-05
1.85767e-05
1.97089e-05
2.13967e-05
2.33379e-05
2.53795e-05
2.715e-05
2.85366e-05
2.95114e-05
3.00972e-05
3.03514e-05
3.03937e-05
3.03067e-05
3.01877e-05
3.00776e-05
2.99568e-05
2.97712e-05
2.94752e-05
2.90896e-05
2.86645e-05
2.82937e-05
2.80174e-05
2.78158e-05
2.775e-05
2.77339e-05
2.78075e-05
2.77759e-05
2.77239e-05
2.79107e-05
2.89343e-05
3.28926e-05
4.00433e-05
5.5477e-05
6.32473e-05
7.22458e-05
7.35099e-05
7.67475e-05
0.000150867
0.000407158
0.00105561
0.00269971
0.00605453
0.00865663
0.0116978
0.00496268
0.00484165
0.0102621
0.00376196
0.00410072
0.00447084
0.00463032
0.00466541
0.00468296
0.00467914
0.00458852
0.00430603
0.0039588
0.00352802
0.00305682
0.00263356
0.00226307
0.00195593
0.00170967
0.001595
0.00151842
0.00145794
0.00136492
0.0012219
0.00102795
0.000840763
0.000664294
0.000554418
0.000504586
0.000490105
0.000450807
0.000373086
0.000285246
0.000248882
0.000267581
0.000231051
0.000130402
6.50823e-05
9.49494e-05
9.12008e-05
7.41264e-05
8.45469e-05
6.93509e-05
7.49195e-05
5.75691e-05
4.40774e-05
3.94427e-05
3.38206e-05
3.45958e-05
3.00688e-05
2.50354e-05
1.94626e-05
1.657e-05
1.60644e-05
1.74933e-05
1.95972e-05
2.18071e-05
2.39079e-05
2.56603e-05
2.6991e-05
2.79254e-05
2.84965e-05
2.87613e-05
2.88316e-05
2.87811e-05
2.86832e-05
2.85459e-05
2.83629e-05
2.80869e-05
2.77086e-05
2.72724e-05
2.68098e-05
2.63576e-05
2.59949e-05
2.57096e-05
2.55435e-05
2.54168e-05
2.53892e-05
2.52652e-05
2.52193e-05
2.53854e-05
2.62912e-05
2.97135e-05
3.52909e-05
4.75794e-05
5.06402e-05
5.27431e-05
5.75424e-05
7.45323e-05
0.000144407
0.000303235
0.000546329
0.00160463
0.0055509
0.0102766
0.0131596
0.00500719
0.00482129
0.00994694
0.00276617
0.00260118
0.00253753
0.00259314
0.00254203
0.00288613
0.00313808
0.00339848
0.00349544
0.0034968
0.00328297
0.00294834
0.00263169
0.00234409
0.00205651
0.00171447
0.00150959
0.00143956
0.0014292
0.00139371
0.00131202
0.00121057
0.00108811
0.000960516
0.00083597
0.000695278
0.000593338
0.000521209
0.000459031
0.000403098
0.000361286
0.0002983
0.000216944
0.000137111
0.000120952
6.89893e-05
7.15962e-05
6.32628e-05
7.01277e-05
5.75622e-05
6.23642e-05
4.88558e-05
3.843e-05
3.68825e-05
3.23251e-05
3.27091e-05
2.8096e-05
2.24423e-05
1.54846e-05
1.1481e-05
1.06229e-05
1.19618e-05
1.39517e-05
1.58809e-05
1.75894e-05
1.90284e-05
2.01995e-05
2.10718e-05
2.16539e-05
2.19836e-05
2.21384e-05
2.21877e-05
2.21832e-05
2.21219e-05
2.19807e-05
2.17163e-05
2.13734e-05
2.09891e-05
2.06149e-05
2.02605e-05
1.99871e-05
1.97567e-05
1.96108e-05
1.94581e-05
1.94184e-05
1.92581e-05
1.92745e-05
1.94203e-05
2.00765e-05
2.23922e-05
2.57127e-05
3.40985e-05
3.5336e-05
3.76513e-05
4.59947e-05
7.26634e-05
0.000130711
0.000236188
0.000412426
0.000964436
0.00299043
0.00600482
0.0119872
0.00476314
0.00452982
0.0127254
0.00187937
0.00131655
0.00109247
0.000957931
0.000832613
0.000781441
0.000850992
0.00110508
0.00138199
0.00153793
0.00160158
0.00159457
0.00152723
0.0014287
0.00130552
0.00119008
0.00104761
0.000970671
0.00103852
0.001183
0.00124513
0.00121686
0.00112096
0.0010203
0.000943434
0.000845177
0.000744761
0.000635045
0.000542386
0.000446844
0.000358822
0.000276247
0.000199381
0.000133397
0.000106639
6.14984e-05
6.48359e-05
5.94528e-05
6.47736e-05
4.78797e-05
4.83414e-05
4.21879e-05
3.19067e-05
2.81339e-05
2.62194e-05
2.68479e-05
2.31486e-05
1.74121e-05
1.11283e-05
7.58385e-06
6.64453e-06
7.42356e-06
8.88366e-06
1.02615e-05
1.14529e-05
1.25263e-05
1.33318e-05
1.39388e-05
1.43797e-05
1.46587e-05
1.48227e-05
1.49255e-05
1.49888e-05
1.50027e-05
1.49568e-05
1.48401e-05
1.46727e-05
1.44898e-05
1.43356e-05
1.41936e-05
1.40917e-05
1.39801e-05
1.3902e-05
1.38036e-05
1.37473e-05
1.36922e-05
1.37373e-05
1.39574e-05
1.43828e-05
1.57873e-05
1.73159e-05
2.16796e-05
2.28693e-05
2.90402e-05
4.19536e-05
6.88784e-05
0.000114088
0.000229443
0.000539848
0.00110745
0.00243667
0.00539674
0.0106299
0.00556957
0.00543297
0.0186935
0.00208382
0.00133839
0.0015307
0.00120971
0.000996135
0.00069003
0.000500796
0.000510835
0.000700721
0.000877214
0.00102849
0.00112652
0.00116502
0.00114077
0.00105405
0.000952554
0.000844714
0.00070709
0.000628153
0.000626395
0.000712115
0.000772464
0.00078922
0.000736
0.000690802
0.000656632
0.000608769
0.000545215
0.000470722
0.000384323
0.000299919
0.000222409
0.00017085
0.000114745
8.48573e-05
5.88467e-05
6.30954e-05
5.76741e-05
6.18888e-05
4.07606e-05
3.81e-05
3.0272e-05
2.48233e-05
2.12371e-05
2.03168e-05
2.06075e-05
1.64628e-05
1.20345e-05
7.53721e-06
5.14939e-06
4.33264e-06
4.65318e-06
5.57026e-06
6.49821e-06
7.29313e-06
8.01206e-06
8.5675e-06
8.99821e-06
9.32565e-06
9.56217e-06
9.73229e-06
9.87022e-06
9.98996e-06
1.00572e-05
1.00678e-05
1.00284e-05
9.96606e-06
9.90741e-06
9.88203e-06
9.88109e-06
9.90194e-06
9.91713e-06
9.93174e-06
9.92595e-06
9.91829e-06
9.95633e-06
9.98814e-06
1.03072e-05
1.04677e-05
1.14526e-05
1.21288e-05
1.51795e-05
1.6852e-05
2.57776e-05
4.0775e-05
6.59854e-05
9.76705e-05
0.000196661
0.000503713
0.00125803
0.00299211
0.00602499
0.0105957
0.00826315
0.00847466
0.0267428
0.00313244
0.00158284
0.00186745
0.00225773
0.00199864
0.00154992
0.000884432
0.000478712
0.000473538
0.000630404
0.000778898
0.000891428
0.000965371
0.000992224
0.000952708
0.000875579
0.000779717
0.000661279
0.000542907
0.000484155
0.000467289
0.000464577
0.000443348
0.000407532
0.000372904
0.000359104
0.000349137
0.000320211
0.000266345
0.000225083
0.000189098
0.000141204
0.00011713
8.12514e-05
6.79678e-05
5.7111e-05
6.33352e-05
5.9538e-05
6.3166e-05
3.83574e-05
3.44101e-05
2.38008e-05
1.61605e-05
1.36433e-05
1.51069e-05
1.63954e-05
1.2138e-05
7.72483e-06
4.70681e-06
3.43466e-06
3.06807e-06
3.31532e-06
3.89163e-06
4.49402e-06
5.02923e-06
5.50484e-06
5.89698e-06
6.22661e-06
6.5061e-06
6.73426e-06
6.92802e-06
7.10448e-06
7.27244e-06
7.41153e-06
7.52497e-06
7.57856e-06
7.59853e-06
7.61242e-06
7.6635e-06
7.72805e-06
7.80805e-06
7.86322e-06
7.89423e-06
7.89364e-06
7.87889e-06
7.91162e-06
7.96104e-06
8.35104e-06
8.51992e-06
9.34817e-06
9.54137e-06
1.1732e-05
1.27107e-05
2.2297e-05
3.76606e-05
6.07612e-05
7.81901e-05
0.00013771
0.000343728
0.000834778
0.00242523
0.00606454
0.0109801
0.0166193
0.0173801
0.0445204
0.00856347
0.00262042
0.002674
0.00284986
0.00267159
0.00217578
0.00161841
0.000953752
0.000469898
0.000416351
0.000536318
0.000682807
0.000781714
0.000837747
0.000863662
0.000831269
0.000759765
0.000665018
0.000562992
0.000459354
0.000390749
0.000343173
0.000311817
0.000278881
0.0002273
0.000192448
0.000179341
0.000171653
0.000152907
0.000123382
0.000107602
8.85371e-05
7.17252e-05
5.16963e-05
5.45635e-05
5.64054e-05
6.40041e-05
6.23247e-05
6.65431e-05
3.87075e-05
3.1378e-05
2.09332e-05
1.38969e-05
1.02222e-05
1.01288e-05
1.12609e-05
8.26798e-06
5.1745e-06
3.3592e-06
2.66986e-06
2.45439e-06
2.6221e-06
2.97779e-06
3.35703e-06
3.69141e-06
3.98697e-06
4.24497e-06
4.46598e-06
4.65188e-06
4.84063e-06
5.02514e-06
5.2068e-06
5.38973e-06
5.56243e-06
5.71078e-06
5.80558e-06
5.85406e-06
5.89493e-06
5.97129e-06
6.07036e-06
6.17582e-06
6.26284e-06
6.32526e-06
6.34887e-06
6.34047e-06
6.38268e-06
6.39954e-06
6.78655e-06
6.95456e-06
7.61652e-06
7.60439e-06
8.96453e-06
9.24104e-06
1.62639e-05
2.81164e-05
4.90747e-05
6.12771e-05
9.82753e-05
0.000254076
0.000532946
0.00157549
0.00599857
0.0125475
0.0287327
0.0328148
0.0702165
0.0103719
0.00591338
0.00523069
0.00431529
0.00334043
0.00252359
0.00189463
0.00141837
0.00086933
0.000440601
0.000360822
0.000449009
0.000587873
0.000674179
0.000711558
0.000714717
0.000677861
0.000612266
0.000541103
0.000447878
0.000343606
0.000272854
0.000242368
0.00023028
0.00020154
0.000162804
0.000133295
0.000112848
8.81458e-05
7.83588e-05
7.15099e-05
6.17822e-05
5.03085e-05
3.66487e-05
3.94639e-05
5.49149e-05
6.26175e-05
6.32778e-05
6.64752e-05
3.48985e-05
2.20915e-05
1.43147e-05
1.01799e-05
8.68664e-06
7.76527e-06
8.26048e-06
6.36652e-06
4.09021e-06
2.87135e-06
2.3046e-06
2.09467e-06
2.21717e-06
2.47735e-06
2.75261e-06
2.99187e-06
3.19655e-06
3.36952e-06
3.51894e-06
3.657e-06
3.79023e-06
3.91352e-06
4.04229e-06
4.18624e-06
4.33317e-06
4.46928e-06
4.56233e-06
4.60022e-06
4.6294e-06
4.70146e-06
4.81938e-06
4.94567e-06
5.05639e-06
5.14266e-06
5.1917e-06
5.1998e-06
5.24741e-06
5.26079e-06
5.60645e-06
5.75914e-06
6.2783e-06
6.20433e-06
7.05069e-06
6.97513e-06
1.10146e-05
1.8487e-05
3.89687e-05
5.19426e-05
8.30317e-05
0.000225641
0.000516839
0.0015141
0.00513409
0.0143693
0.0382703
0.0452079
0.0912535
0.0133531
0.0108267
0.00737288
0.00500712
0.00357413
0.00266216
0.00201601
0.00153757
0.00116118
0.000746652
0.000400777
0.000308646
0.000370793
0.000484928
0.000546656
0.000565548
0.000544639
0.000498928
0.000436052
0.000350069
0.000247378
0.000199707
0.000187706
0.000184021
0.000166275
0.000144195
0.00012015
9.98267e-05
7.68523e-05
5.92751e-05
5.15671e-05
4.33978e-05
3.9143e-05
3.10624e-05
3.23713e-05
4.37042e-05
4.18765e-05
4.5737e-05
4.88213e-05
2.62704e-05
1.71316e-05
9.98328e-06
7.35108e-06
6.89173e-06
5.75665e-06
5.33518e-06
4.32348e-06
3.10271e-06
2.23989e-06
1.76325e-06
1.60688e-06
1.69445e-06
1.88217e-06
2.07103e-06
2.23386e-06
2.37688e-06
2.5061e-06
2.62824e-06
2.7493e-06
2.87702e-06
3.00704e-06
3.14472e-06
3.29744e-06
3.45707e-06
3.61001e-06
3.73023e-06
3.80318e-06
3.86266e-06
3.95103e-06
4.07582e-06
4.20157e-06
4.31788e-06
4.41143e-06
4.47281e-06
4.49191e-06
4.54777e-06
4.57184e-06
4.87364e-06
5.00657e-06
5.43995e-06
5.35408e-06
5.96979e-06
5.81969e-06
7.75516e-06
1.17739e-05
2.6007e-05
4.31628e-05
6.55398e-05
0.000184046
0.000496398
0.00171539
0.00656282
0.0192878
0.0448363
0.0570934
0.108229
0.0346204
0.0151272
0.00717649
0.00460845
0.00326508
0.00243307
0.00186751
0.0014627
0.00117942
0.000929691
0.000618026
0.000342911
0.000248034
0.000282937
0.000360842
0.000392672
0.000386864
0.000340511
0.0002704
0.000200941
0.000151721
0.000134871
0.000135687
0.000139082
0.000129346
0.000110576
9.67332e-05
8.56416e-05
7.71074e-05
6.1202e-05
5.36068e-05
4.38101e-05
3.82483e-05
3.4618e-05
3.80973e-05
4.46073e-05
2.82658e-05
2.06729e-05
2.02259e-05
1.75799e-05
1.74064e-05
8.70601e-06
4.01257e-06
3.72907e-06
3.18763e-06
2.8436e-06
2.36846e-06
1.82991e-06
1.37148e-06
1.09731e-06
1.00709e-06
1.05006e-06
1.14693e-06
1.24286e-06
1.32637e-06
1.4021e-06
1.47399e-06
1.5459e-06
1.6207e-06
1.7017e-06
1.78832e-06
1.87981e-06
1.98035e-06
2.08746e-06
2.19389e-06
2.28604e-06
2.35275e-06
2.40737e-06
2.47504e-06
2.57292e-06
2.67392e-06
2.77546e-06
2.86098e-06
2.93058e-06
2.96093e-06
3.02096e-06
3.05325e-06
3.23995e-06
3.31454e-06
3.57606e-06
3.48715e-06
3.78475e-06
3.71799e-06
4.42928e-06
5.89506e-06
1.13778e-05
2.22062e-05
3.0324e-05
7.80527e-05
0.000251898
0.00106335
0.0032324
0.00814775
0.0302718
0.0561064
0.118829
0.0499411
0.0211501
0.00942271
0.00535014
0.00353745
0.00256887
0.00196596
0.00155926
0.00126035
0.00102452
0.000774504
0.000483212
0.00026566
0.000190741
0.000189891
0.00020401
0.00020042
0.000176362
0.000142036
0.000110382
8.68901e-05
8.2155e-05
9.19438e-05
9.54101e-05
8.63273e-05
6.94469e-05
6.25464e-05
6.01245e-05
6.00754e-05
5.77207e-05
5.53518e-05
5.08681e-05
4.78182e-05
4.73586e-05
4.47834e-05
0.000147197
0.000122536
5.69895e-05
3.20726e-05
1.50586e-05
1.03953e-05
1.19341e-05
1.68604e-05
2.33544e-05
3.54871e-05
4.2851e-05
4.80825e-05
4.88895e-05
4.82896e-05
4.49322e-05
4.27684e-05
3.98971e-05
3.74072e-05
3.45512e-05
3.21319e-05
3.04239e-05
2.95947e-05
2.94466e-05
2.97176e-05
3.03606e-05
3.1311e-05
3.24705e-05
3.37914e-05
3.51978e-05
3.65128e-05
3.76648e-05
3.84308e-05
3.88493e-05
3.90669e-05
3.92693e-05
3.94504e-05
4.00009e-05
4.06469e-05
4.16553e-05
4.20957e-05
4.28619e-05
4.31555e-05
4.40878e-05
4.49047e-05
4.48809e-05
4.30407e-05
3.56058e-05
2.50448e-05
2.04401e-05
3.34622e-05
6.27404e-05
7.60724e-05
7.47067e-05
0.000115033
0.000270909
0.000671636
0.00362566
0.00478447
0.00599696
0.011566
0.0424187
0.0236433
0.0123537
0.00695313
0.00405096
0.00243759
0.00144978
0.000935063
0.000852655
0.000952629
0.00132698
0.00171182
0.00205557
0.00247851
0.00292102
0.00330402
0.00354607
0.00354429
0.00345917
0.00324405
0.00304459
0.00284591
0.00265225
0.00252597
0.00236201
0.00226185
0.0021223
0.0020202
0.00187833
0.00170934
0.0015071
0.000931841
0.000331429
0.00015061
3.74826e-05
2.36065e-05
0.000132826
0.000101165
6.49973e-05
4.55443e-05
2.75796e-05
2.63936e-05
3.2053e-05
3.77562e-05
4.16933e-05
5.02928e-05
5.45768e-05
5.80063e-05
5.80074e-05
5.56717e-05
5.2811e-05
5.11565e-05
5.00374e-05
4.95288e-05
4.88123e-05
4.80493e-05
4.75834e-05
4.75368e-05
4.78599e-05
4.84691e-05
4.93234e-05
5.0384e-05
5.15988e-05
5.29208e-05
5.4268e-05
5.54771e-05
5.64356e-05
5.70902e-05
5.75613e-05
5.79271e-05
5.82484e-05
5.85642e-05
5.90293e-05
5.9554e-05
6.023e-05
6.07742e-05
6.1491e-05
6.23811e-05
6.35759e-05
6.5019e-05
6.57606e-05
6.46122e-05
5.87054e-05
4.89442e-05
3.99786e-05
4.84559e-05
6.91671e-05
0.000100038
0.000135425
0.000344073
0.00103213
0.00202378
0.00526492
0.00802092
0.00730315
0.00765656
0.0441558
0.0045122
0.00618063
0.00589882
0.00416052
0.00408075
0.00307588
0.00287587
0.00311377
0.00340614
0.00369656
0.00382893
0.00389767
0.00390929
0.00381601
0.00362349
0.00338718
0.00311388
0.00287153
0.00260804
0.00233907
0.00209428
0.00188556
0.00176108
0.00161044
0.00154022
0.00150984
0.00148312
0.00147916
0.00142716
0.00133058
0.00107079
0.000734776
0.000445598
0.000186374
3.176e-05
0.000184187
0.000119115
9.86998e-05
7.74828e-05
5.97745e-05
5.33415e-05
5.41256e-05
5.82601e-05
5.90546e-05
6.35387e-05
6.63595e-05
6.84394e-05
6.66425e-05
6.26388e-05
5.91568e-05
5.7688e-05
5.77558e-05
5.89443e-05
6.03236e-05
6.15034e-05
6.25985e-05
6.36422e-05
6.46065e-05
6.55891e-05
6.66034e-05
6.76608e-05
6.87664e-05
6.99169e-05
7.10679e-05
7.21269e-05
7.29203e-05
7.35114e-05
7.40247e-05
7.44676e-05
7.48606e-05
7.52273e-05
7.56199e-05
7.60571e-05
7.668e-05
7.73352e-05
7.8064e-05
7.88638e-05
7.95387e-05
8.065e-05
8.12588e-05
8.2513e-05
8.10729e-05
7.8483e-05
7.33055e-05
7.15084e-05
8.52234e-05
0.000142332
0.00026392
0.00076133
0.00253418
0.00409297
0.0106005
0.0121498
0.00748789
0.00744566
0.0455363
0.00363685
0.00396447
0.00395685
0.00474428
0.00470499
0.00502801
0.00531055
0.00583667
0.00619609
0.00637029
0.00633788
0.00598959
0.00545984
0.0048471
0.00411362
0.0034762
0.00308552
0.00288439
0.00263516
0.00235199
0.00209956
0.00189532
0.00176201
0.00166466
0.00159717
0.00155303
0.00152679
0.00151313
0.00141812
0.00129195
0.0010101
0.000746166
0.000629116
0.000397305
6.49868e-05
0.000289154
0.000163604
0.000131856
0.000120521
0.000102163
8.47996e-05
7.81011e-05
7.76534e-05
7.58674e-05
7.80323e-05
8.06735e-05
8.10939e-05
7.72211e-05
7.15811e-05
6.69306e-05
6.51778e-05
6.5422e-05
6.70989e-05
6.91605e-05
7.12462e-05
7.33624e-05
7.51735e-05
7.65737e-05
7.78111e-05
7.89886e-05
8.01805e-05
8.13555e-05
8.25394e-05
8.36957e-05
8.47016e-05
8.54482e-05
8.59916e-05
8.64232e-05
8.67555e-05
8.70763e-05
8.74204e-05
8.78432e-05
8.83718e-05
8.9072e-05
8.98125e-05
9.04733e-05
9.096e-05
9.12732e-05
9.2424e-05
9.4711e-05
0.000100295
0.000105467
0.000112136
0.000113451
0.000104011
0.000111528
0.000227095
0.000538105
0.00175261
0.00494592
0.00721835
0.0115863
0.0109994
0.00654829
0.00655165
0.0464701
0.00464245
0.00407847
0.00461323
0.00587732
0.00641326
0.00729132
0.00786987
0.00856148
0.00891679
0.00903275
0.00862042
0.00773172
0.0066674
0.00544308
0.00432203
0.00367078
0.00327674
0.00300429
0.00272587
0.00234142
0.00196052
0.00166904
0.00150532
0.00150701
0.00155766
0.00154126
0.00149664
0.00145625
0.00131341
0.0011754
0.000846861
0.000682851
0.000620302
0.000449867
8.91439e-05
0.000468286
0.000212774
0.000159201
0.000142486
0.000135401
0.000115767
0.000100617
9.58498e-05
9.28194e-05
9.42621e-05
9.70737e-05
9.50251e-05
8.84849e-05
7.82808e-05
7.12085e-05
6.85279e-05
6.96617e-05
7.27593e-05
7.6612e-05
8.03596e-05
8.36849e-05
8.64567e-05
8.87258e-05
9.06168e-05
9.21899e-05
9.35454e-05
9.48353e-05
9.61274e-05
9.74037e-05
9.84852e-05
9.92772e-05
9.98004e-05
0.000100156
0.000100402
0.000100682
0.000101054
0.000101585
0.000102307
0.000103147
0.000104055
0.000104746
0.000105423
0.000106131
0.000108573
0.000113579
0.000124032
0.000137164
0.000149348
0.000149396
0.000136911
0.000129796
0.000291753
0.00105173
0.00391984
0.00809816
0.00862909
0.011072
0.0122549
0.00821464
0.00836847
0.0427404
0.00516303
0.00511563
0.00628353
0.00779403
0.00856574
0.00944739
0.0100149
0.0104823
0.0107041
0.0105757
0.00991732
0.00895095
0.0077034
0.00620255
0.00484255
0.00396669
0.00343673
0.00307583
0.00278314
0.00238252
0.00190525
0.00150718
0.00125951
0.00119429
0.0012992
0.00139291
0.00140452
0.00133084
0.00116802
0.00100635
0.000623127
0.000591971
0.000570714
0.000442803
9.88871e-05
0.000678968
0.000259242
0.000189347
0.000168459
0.000155916
0.00014793
0.000125964
0.000116398
0.000109543
0.000106892
0.000108902
0.000103648
9.37899e-05
8.00247e-05
7.14263e-05
6.79404e-05
6.95397e-05
7.33241e-05
7.80882e-05
8.28235e-05
8.69491e-05
9.04161e-05
9.3468e-05
9.59354e-05
9.78903e-05
9.95132e-05
0.000100933
0.000102293
0.000103603
0.000104699
0.000105396
0.000105755
0.000105907
0.000105931
0.000106193
0.000106592
0.000107174
0.000108036
0.000108976
0.000110064
0.000110781
0.000111527
0.000112927
0.000116607
0.000126301
0.000140053
0.000159487
0.000166958
0.000163406
0.000153697
0.000154825
0.000262054
0.000812735
0.0032752
0.00799306
0.0103549
0.0143767
0.0172169
0.00903781
0.00926237
0.0452357
0.00617669
0.00617224
0.00780476
0.00896131
0.00949822
0.00993004
0.0103801
0.0107652
0.0109465
0.0108361
0.0103097
0.0093661
0.00819483
0.0069672
0.00574923
0.00471506
0.00401312
0.00344681
0.00309367
0.00273148
0.00225766
0.00176108
0.00134557
0.00110611
0.00102057
0.00102646
0.00102304
0.000928778
0.000831692
0.000635074
0.000504981
0.000511168
0.000483706
0.000395877
9.79741e-05
0.000641746
0.000280733
0.000222646
0.000193449
0.000179625
0.000173395
0.000153138
0.000138187
0.000125246
0.000115412
0.000115731
0.000107425
9.4809e-05
7.64786e-05
6.4595e-05
6.01428e-05
6.24756e-05
6.73372e-05
7.32019e-05
7.90472e-05
8.43126e-05
8.87971e-05
9.23809e-05
9.52311e-05
9.73921e-05
9.90808e-05
0.000100459
0.000101732
0.000102919
0.000103868
0.000104332
0.000104407
0.000104254
0.000103954
0.000104069
0.000104335
0.000104789
0.000105573
0.000106406
0.000107433
0.000108032
0.000108668
0.000110571
0.000114933
0.000127906
0.000143026
0.000166121
0.000167058
0.000151556
0.000150433
0.000163623
0.000225812
0.000471186
0.00161125
0.00531703
0.0124763
0.0181781
0.020413
0.00918311
0.00935141
0.0460666
0.0063884
0.00640833
0.00799558
0.00864424
0.00881567
0.00892177
0.00918419
0.00955239
0.0100198
0.0101876
0.0100786
0.00937961
0.00827341
0.00741681
0.00690538
0.00596412
0.00504251
0.00432714
0.00392614
0.00354178
0.00315706
0.00281262
0.00235363
0.00188025
0.00145868
0.00119038
0.00106586
0.00095996
0.000883876
0.000772918
0.000727488
0.000656244
0.000583083
0.000390927
0.00011117
0.000497342
0.000283368
0.000234349
0.000200163
0.000188858
0.000180758
0.000164499
0.000147636
0.000135138
0.00012029
0.000119356
0.000108027
9.19251e-05
6.74405e-05
5.23841e-05
4.69672e-05
5.08781e-05
5.74839e-05
6.48339e-05
7.15306e-05
7.7154e-05
8.17255e-05
8.53422e-05
8.81615e-05
9.01973e-05
9.16631e-05
9.27428e-05
9.35725e-05
9.40809e-05
9.42164e-05
9.38315e-05
9.31282e-05
9.22944e-05
9.13067e-05
9.00751e-05
8.90162e-05
8.81858e-05
8.76413e-05
8.7151e-05
8.70806e-05
8.65689e-05
8.65877e-05
8.75841e-05
9.08344e-05
0.00010332
0.000118653
0.000143727
0.000133492
9.4934e-05
0.000105738
0.000143321
0.00021087
0.000327175
0.000694231
0.00276279
0.0101428
0.0188547
0.0233865
0.00944497
0.0094678
0.0463524
0.00583604
0.00568282
0.00641808
0.00660748
0.00602503
0.00578152
0.0056846
0.00593454
0.00629759
0.00666116
0.00689544
0.00697813
0.00692579
0.00708431
0.00738011
0.00719062
0.00625119
0.00512313
0.0044464
0.00402081
0.00376082
0.00355688
0.00325186
0.00302297
0.00286483
0.00256989
0.00229177
0.00210665
0.00196969
0.00183475
0.00165955
0.0012842
0.000872343
0.000664579
0.000781137
0.000368593
0.000288128
0.000228625
0.000192275
0.000178356
0.000174058
0.000167958
0.000151671
0.000141388
0.00012428
0.000122375
0.000107304
8.6421e-05
5.52402e-05
3.58386e-05
2.88439e-05
2.99001e-05
3.34056e-05
3.80005e-05
4.30875e-05
4.84789e-05
5.29585e-05
5.65462e-05
5.92631e-05
6.1126e-05
6.2282e-05
6.30427e-05
6.36092e-05
6.40655e-05
6.41534e-05
6.35741e-05
6.26378e-05
6.14595e-05
6.0395e-05
5.95449e-05
5.90469e-05
5.85385e-05
5.83343e-05
5.79915e-05
5.83042e-05
5.75894e-05
5.80289e-05
5.84493e-05
6.09587e-05
6.92572e-05
7.939e-05
9.70752e-05
9.07771e-05
5.76382e-05
6.20557e-05
9.2389e-05
0.000151162
0.000282793
0.000511467
0.00143764
0.00477646
0.00994069
0.017276
0.00838615
0.00843692
0.0459291
0.00428507
0.00369192
0.0035931
0.00350843
0.00232913
0.00182788
0.00159287
0.00171118
0.00199269
0.00230711
0.00252747
0.00258259
0.00246331
0.00228625
0.00224557
0.0024183
0.00322491
0.00411238
0.00394898
0.00385419
0.00389812
0.00390249
0.00361669
0.00321908
0.00303371
0.00298056
0.00293217
0.00278656
0.00257159
0.00235628
0.00211167
0.00177929
0.00138848
0.000984023
0.000426516
0.000342088
0.000283417
0.00022736
0.000189964
0.00013388
0.000124546
0.000128782
0.00012204
0.000115228
0.000105641
0.000103347
8.50225e-05
6.33881e-05
3.87396e-05
2.5902e-05
2.15208e-05
2.14457e-05
2.30267e-05
2.53968e-05
2.79563e-05
3.06646e-05
3.28404e-05
3.46315e-05
3.60791e-05
3.71663e-05
3.79277e-05
3.85937e-05
3.92791e-05
3.97845e-05
3.99892e-05
3.97478e-05
3.93143e-05
3.87911e-05
3.83417e-05
3.79189e-05
3.76775e-05
3.73209e-05
3.72019e-05
3.69256e-05
3.69273e-05
3.64845e-05
3.65125e-05
3.68435e-05
3.75339e-05
4.14995e-05
4.47584e-05
5.14419e-05
4.66226e-05
3.35485e-05
4.08528e-05
6.8853e-05
0.000105203
0.000218736
0.000622614
0.00144004
0.00351566
0.00629224
0.0118472
0.00778156
0.00773234
0.0480407
0.00440655
0.00337585
0.00345154
0.00284164
0.0015323
0.000987447
0.000665735
0.000603291
0.000699515
0.000892252
0.00115588
0.0013591
0.00144724
0.00142041
0.00131498
0.00127264
0.00142284
0.00187414
0.00213864
0.00197291
0.00182243
0.00183341
0.00206013
0.00216028
0.00194779
0.00186871
0.00187314
0.00188127
0.00183975
0.00177832
0.00165917
0.00143958
0.00107235
0.000602855
0.000156594
0.000254101
0.000263552
0.000226327
0.000196047
0.000103335
8.34325e-05
8.49876e-05
8.23508e-05
8.21918e-05
8.22876e-05
8.19367e-05
6.98928e-05
5.092e-05
3.12515e-05
2.23483e-05
1.96387e-05
1.93288e-05
1.97185e-05
2.06695e-05
2.19251e-05
2.32658e-05