/*--------------------------------*- C++ -*----------------------------------*\
| =========                 |                                                 |
| \\      /  F ield         | OpenFOAM: The Open Source CFD Toolbox           |
|  \\    /   O peration     | Version:  2.3.0                                 |
|   \\  /    A nd           | Web:      www.OpenFOAM.org                      |
|    \\/     M anipulation  |                                                 |
\*---------------------------------------------------------------------------*/
FoamFile
{
    version     2.0;
    format      ascii;
    class       volScalarField;
    location    "34";
    object      k.water;
}
// * * * * * * * * * * * * * * * * * * * * * * * * * * * * * * * * * * * * * //

dimensions      [0 2 -2 0 0 0 0];

internalField   nonuniform List<scalar> 
6144
(
8.51386e-05
7.14086e-05
5.06845e-05
4.20846e-05
2.92051e-05
2.26016e-05
1.9125e-05
1.89314e-05
1.95333e-05
2.28028e-05
2.55816e-05
2.79095e-05
2.88752e-05
2.9044e-05
2.79907e-05
2.73364e-05
2.6319e-05
2.55748e-05
2.48385e-05
2.45993e-05
2.44287e-05
2.43725e-05
2.43973e-05
2.44578e-05
2.45538e-05
2.4682e-05
2.48334e-05
2.49991e-05
2.5201e-05
2.5599e-05
2.6023e-05
2.63167e-05
2.6486e-05
2.65471e-05
2.66215e-05
2.66524e-05
2.68451e-05
2.70178e-05
2.74214e-05
2.75339e-05
2.7854e-05
2.78101e-05
2.80041e-05
2.79783e-05
2.76167e-05
2.69813e-05
2.46783e-05
2.44396e-05
3.15934e-05
4.82385e-05
7.02435e-05
8.60805e-05
0.000104296
0.000162774
0.00027965
0.000481446
0.00084721
0.00127251
0.00266459
0.00348699
0.00965407
0.00557089
0.00324067
0.00198881
0.00124166
0.000764503
0.000517856
0.000449906
0.000514689
0.000579315
0.000667403
0.000739965
0.000793525
0.000823236
0.0008763
0.000914994
0.000928732
0.000954108
0.000988589
0.00100959
0.00102061
0.0010228
0.00102195
0.00101994
0.00101525
0.00100451
0.000990879
0.000971431
0.000934077
0.000892451
0.000798645
0.000453735
0.000143174
8.96175e-05
6.87736e-05
5.73414e-05
0.000127408
0.000104802
7.79506e-05
6.90401e-05
4.89702e-05
4.41261e-05
4.2755e-05
4.28022e-05
4.3262e-05
4.81566e-05
5.21283e-05
5.55162e-05
5.60101e-05
5.45939e-05
5.22143e-05
5.09169e-05
4.98511e-05
4.95947e-05
4.95625e-05
5.03619e-05
5.10398e-05
5.16983e-05
5.22911e-05
5.28043e-05
5.32652e-05
5.36996e-05
5.41328e-05
5.45686e-05
5.509e-05
5.59309e-05
5.6677e-05
5.7196e-05
5.75759e-05
5.78333e-05
5.80887e-05
5.82775e-05
5.86494e-05
5.89152e-05
5.94869e-05
5.96871e-05
6.02607e-05
6.04444e-05
6.09768e-05
6.13228e-05
6.06564e-05
5.92596e-05
5.51116e-05
5.17653e-05
5.59258e-05
7.75369e-05
0.000105087
0.000139275
0.000201305
0.000377667
0.000693083
0.000919611
0.00144706
0.00178533
0.00232603
0.00228807
0.00585114
0.00146091
0.000945968
0.000886244
0.000861113
0.000868654
0.00094049
0.00104937
0.001158
0.00121929
0.00124868
0.00125103
0.00124195
0.00121518
0.00119705
0.00121581
0.0012265
0.00121636
0.00119483
0.001172
0.001135
0.0011173
0.00109789
0.00108619
0.00107514
0.00104941
0.00102994
0.00100493
0.00096048
0.000917075
0.000832492
0.000551973
0.000200677
0.000137174
9.76269e-05
6.148e-05
0.000143723
0.00012023
9.98119e-05
9.63799e-05
7.66501e-05
7.03344e-05
6.84754e-05
6.18413e-05
5.70031e-05
5.92968e-05
6.27135e-05
6.38985e-05
6.17426e-05
5.89312e-05
5.70334e-05
5.64601e-05
5.69259e-05
5.85521e-05
6.08725e-05
6.29198e-05
6.45581e-05
6.59738e-05
6.71043e-05
6.80021e-05
6.87401e-05
6.93729e-05
6.99609e-05
7.05286e-05
7.10734e-05
7.15774e-05
7.19748e-05
7.22571e-05
7.24998e-05
7.26769e-05
7.28312e-05
7.29314e-05
7.30483e-05
7.30382e-05
7.32674e-05
7.33647e-05
7.38736e-05
7.40787e-05
7.47034e-05
7.49632e-05
7.51966e-05
7.54302e-05
7.14682e-05
6.98579e-05
7.39228e-05
9.53553e-05
0.000117586
0.000170844
0.000317072
0.000642268
0.00116931
0.00163077
0.00272451
0.00285079
0.00215141
0.00215374
0.00445798
0.00128823
0.0011973
0.0012669
0.00135483
0.00143996
0.00154126
0.00159102
0.00161363
0.00159845
0.00155119
0.00147482
0.00140519
0.00135418
0.00128104
0.00117093
0.00104468
0.000940503
0.000849304
0.000792618
0.000745276
0.000715912
0.000711648
0.00071786
0.000750995
0.000795483
0.000863669
0.0009295
0.000931593
0.000912192
0.000841414
0.000560328
0.000247842
0.000226765
0.000158067
7.28569e-05
0.000158961
0.000131532
0.000110675
0.000111503
9.52134e-05
8.91253e-05
8.16751e-05
7.18794e-05
6.37994e-05
6.34139e-05
6.59911e-05
6.61664e-05
6.31244e-05
5.98813e-05
5.81253e-05
5.78361e-05
5.8972e-05
6.10549e-05
6.33612e-05
6.54234e-05
6.72103e-05
6.87647e-05
6.99863e-05
7.09308e-05
7.16855e-05
7.23197e-05
7.28977e-05
7.34564e-05
7.39977e-05
7.44792e-05
7.48504e-05
7.51058e-05
7.52911e-05
7.54039e-05
7.55007e-05
7.55784e-05
7.56695e-05
7.57474e-05
7.59936e-05
7.62189e-05
7.67489e-05
7.69015e-05
7.74564e-05
7.73585e-05
7.85503e-05
8.06108e-05
8.4094e-05
9.24004e-05
9.67066e-05
0.000113937
0.000126528
0.00020908
0.000439327
0.000923243
0.00163761
0.00221833
0.00305636
0.00298417
0.00222548
0.00221277
0.0039711
0.00161704
0.00161781
0.00176616
0.0018462
0.00190321
0.00193251
0.00193856
0.00189904
0.00182476
0.00172205
0.00159754
0.00147685
0.00134064
0.00120917
0.00109251
0.000994325
0.000902012
0.000826371
0.000750808
0.00068317
0.000638939
0.000623204
0.000625399
0.000637764
0.000670822
0.000727563
0.000769557
0.000821309
0.000838989
0.000807187
0.000531711
0.000270399
0.000281014
0.000202284
8.34493e-05
0.000173769
0.000137144
0.000115784
0.000115625
0.000102999
0.000101264
8.41299e-05
7.54945e-05
6.97144e-05
6.70474e-05
6.83997e-05
6.61411e-05
6.16663e-05
5.76729e-05
5.61348e-05
5.61306e-05
5.7727e-05
6.02383e-05
6.29586e-05
6.54805e-05
6.78385e-05
6.97892e-05
7.12397e-05
7.22792e-05
7.30246e-05
7.35973e-05
7.40567e-05
7.44717e-05
7.48674e-05
7.51946e-05
7.54139e-05
7.55047e-05
7.55045e-05
7.54347e-05
7.53694e-05
7.53345e-05
7.53518e-05
7.54464e-05
7.5677e-05
7.59796e-05
7.64254e-05
7.65233e-05
7.69563e-05
7.73295e-05
8.01995e-05
8.62079e-05
9.88469e-05
0.000113219
0.000123249
0.000131276
0.00013364
0.000236736
0.000564845
0.001246
0.00198017
0.00243806
0.00273819
0.00272863
0.0022692
0.00226468
0.00362955
0.00182741
0.00195869
0.00208378
0.00214076
0.00216491
0.0021743
0.00214486
0.00207089
0.00197336
0.00184864
0.00170808
0.00155619
0.00140495
0.00126331
0.0011581
0.00109696
0.00103086
0.000965546
0.000869077
0.000762022
0.000698804
0.000663616
0.000667246
0.000715264
0.000782976
0.000794811
0.000795583
0.00080344
0.000798915
0.000730643
0.000393768
0.000289516
0.000308187
0.000218627
9.16038e-05
0.000179937
0.000139813
0.000119265
0.000124032
0.000110093
0.000112453
9.05189e-05
8.04238e-05
7.31415e-05
6.7716e-05
6.89879e-05
6.49875e-05
5.98708e-05
5.50762e-05
5.23001e-05
5.19563e-05
5.40165e-05
5.73808e-05
6.12037e-05
6.46842e-05
6.75502e-05
6.96671e-05
7.11773e-05
7.22213e-05
7.29174e-05
7.33919e-05
7.37307e-05
7.40234e-05
7.43022e-05
7.45159e-05
7.4612e-05
7.45892e-05
7.44826e-05
7.43158e-05
7.41459e-05
7.40409e-05
7.40307e-05
7.41731e-05
7.44465e-05
7.48222e-05
7.5204e-05
7.53378e-05
7.57809e-05
7.67437e-05
8.10527e-05
9.00623e-05
0.000109267
0.000126619
0.000140638
0.00014035
0.000139998
0.000229888
0.000538142
0.00118848
0.00187342
0.00245036
0.00291088
0.00320865
0.00225831
0.00224563
0.00361448
0.00195853
0.00212262
0.00223007
0.00227592
0.00229597
0.00230164
0.00226704
0.00219858
0.00209518
0.00196246
0.00181367
0.00164965
0.00148855
0.00134028
0.00122179
0.00114814
0.00109958
0.00105701
0.001008
0.000923598
0.000812469
0.000710137
0.00066157
0.000641977
0.000651226
0.000687029
0.000705662
0.000699993
0.000647717
0.000464843
0.000323827
0.00031232
0.000311075
0.000218821
9.50331e-05
0.000159388
0.000140598
0.000119916
0.000128099
0.00011211
0.000118328
9.91945e-05
8.54378e-05
7.60772e-05
6.82934e-05
6.92634e-05
6.36988e-05
5.69081e-05
4.98163e-05
4.72027e-05
4.70765e-05
4.9188e-05
5.21871e-05
5.554e-05
5.89895e-05
6.19691e-05
6.43365e-05
6.60743e-05
6.72296e-05
6.78923e-05
6.82397e-05
6.83925e-05
6.84953e-05
6.86092e-05
6.87045e-05
6.86976e-05
6.85162e-05
6.81892e-05
6.77921e-05
6.74724e-05
6.72964e-05
6.72352e-05
6.73901e-05
6.76241e-05
6.80033e-05
6.82108e-05
6.8384e-05
6.89536e-05
7.08997e-05
7.75314e-05
8.87246e-05
0.000110668
0.000121181
0.000132853
0.000134921
0.000139324
0.00021933
0.000426691
0.000808916
0.00151805
0.00261189
0.00332423
0.00408029
0.00231082
0.00228085
0.00377885
0.00194216
0.00206378
0.00219128
0.00224771
0.00226608
0.00228073
0.0022869
0.00226272
0.00217536
0.00206394
0.0019172
0.00174734
0.00158627
0.0014388
0.00131152
0.00120421
0.00115335
0.00111971
0.00109323
0.00104976
0.000978457
0.000875938
0.000768662
0.000658852
0.000584977
0.000550705
0.00054183
0.000514589
0.000455803
0.00038132
0.0003479
0.000366095
0.00033464
0.000229936
0.000100969
0.000130305
0.000127571
0.000111772
0.000122714
0.000108123
0.000114454
9.65359e-05
8.12448e-05
7.58621e-05
6.88356e-05
7.02522e-05
6.4328e-05
5.72375e-05
4.86475e-05
4.39266e-05
4.32511e-05
4.60162e-05
4.98911e-05
5.38488e-05
5.75446e-05
6.06272e-05
6.30191e-05
6.47853e-05
6.59896e-05
6.67231e-05
6.7157e-05
6.74029e-05
6.7573e-05
6.76786e-05
6.77085e-05
6.7585e-05
6.72902e-05
6.68917e-05
6.64389e-05
6.59917e-05
6.56838e-05
6.54983e-05
6.55102e-05
6.5586e-05
6.583e-05
6.5906e-05
6.61159e-05
6.67001e-05
6.85795e-05
7.47452e-05
8.41903e-05
0.000103186
0.000107989
0.000111372
0.000118511
0.000141364
0.000220736
0.000363586
0.000540717
0.00111384
0.00255682
0.00387182
0.00458587
0.00241927
0.00236849
0.0038523
0.00164949
0.00158928
0.00156916
0.00159726
0.00158102
0.00172476
0.00182886
0.0019355
0.00197921
0.00198679
0.00191086
0.00178438
0.00165986
0.00154301
0.00142111
0.00126567
0.00116644
0.00113391
0.00113242
0.00111813
0.0010782
0.00102578
0.000958207
0.000884943
0.000809296
0.000717438
0.00064697
0.000595045
0.000547976
0.000504393
0.00047145
0.000417586
0.000339837
0.000251206
0.000153166
0.000105276
0.000108442
0.000100333
0.00010798
9.51116e-05
0.00010079
8.60398e-05
7.36617e-05
7.19908e-05
6.6222e-05
6.70364e-05
6.08535e-05
5.26259e-05
4.12753e-05
3.39598e-05
3.2385e-05
3.5204e-05
3.91767e-05
4.28943e-05
4.61146e-05
4.88031e-05
5.09997e-05
5.26774e-05
5.38665e-05
5.4637e-05
5.51188e-05
5.54261e-05
5.56436e-05
5.5765e-05
5.57497e-05
5.55218e-05
5.51532e-05
5.47044e-05
5.42638e-05
5.38489e-05
5.35699e-05
5.33619e-05
5.33018e-05
5.32262e-05
5.33544e-05
5.326e-05
5.34894e-05
5.39616e-05
5.53769e-05
5.9786e-05
6.57959e-05
7.97018e-05
8.18775e-05
8.56827e-05
9.82084e-05
0.000133675
0.000198612
0.000295855
0.000430174
0.000760459
0.00162442
0.00258932
0.00412244
0.0022402
0.00217472
0.00434044
0.00121757
0.000963539
0.000853098
0.000784768
0.000716444
0.000688797
0.000729463
0.000869812
0.00101319
0.00109166
0.00112509
0.00112537
0.00109672
0.00105219
0.000993785
0.000936436
0.000863452
0.000823613
0.000864369
0.000946671
0.000983047
0.000972284
0.000922712
0.000869539
0.000827784
0.00077168
0.000711216
0.000640928
0.000578584
0.000510223
0.000443051
0.000374254
0.000302058
0.000231736
0.000141192
9.75003e-05
0.000101418
9.61028e-05
0.000102174
8.38762e-05
8.47603e-05
7.77144e-05
6.47726e-05
5.97923e-05
5.72634e-05
5.83918e-05
5.31089e-05
4.41001e-05
3.28492e-05
2.55357e-05
2.34689e-05
2.53646e-05
2.86987e-05
3.17139e-05
3.42518e-05
3.64954e-05
3.81848e-05
3.94801e-05
4.04562e-05
4.11272e-05
4.15837e-05
4.19263e-05
4.21955e-05
4.23719e-05
4.24353e-05
4.23628e-05
4.2191e-05
4.19856e-05
4.18319e-05
4.16986e-05
4.16412e-05
4.15626e-05
4.15482e-05
4.14917e-05
4.15178e-05
4.15454e-05
4.17757e-05
4.23618e-05
4.33617e-05
4.62952e-05
4.93926e-05
5.75522e-05
5.98016e-05
7.03077e-05
9.00961e-05
0.000125801
0.000176874
0.000282832
0.000501643
0.000811927
0.00137872
0.00234718
0.00370414
0.00241743
0.00238557
0.0054582
0.001267
0.000945844
0.00103674
0.000889041
0.000784133
0.000616392
0.000498564
0.000504691
0.000623103
0.000726481
0.000810358
0.000863963
0.000886359
0.000876811
0.000834559
0.000782332
0.000724527
0.000646396
0.000599196
0.000599075
0.000653981
0.000692267
0.000704305
0.000674299
0.000648268
0.000628728
0.000599784
0.000559193
0.000508624
0.00044585
0.000379853
0.000312805
0.000262751
0.000201783
0.000121063
9.46273e-05
9.94816e-05
9.40132e-05
9.88722e-05
7.50909e-05
7.20475e-05
6.20131e-05
5.45305e-05
4.93141e-05
4.80317e-05
4.86417e-05
4.20174e-05
3.42124e-05
2.51274e-05
1.95543e-05
1.74835e-05
1.83945e-05
2.08053e-05
2.31308e-05
2.5061e-05
2.67673e-05
2.80795e-05
2.91047e-05
2.99004e-05
3.04992e-05
3.09562e-05
3.1345e-05
3.16955e-05
3.19354e-05
3.20553e-05
3.20689e-05
3.20326e-05
3.20031e-05
3.20444e-05
3.21382e-05
3.22791e-05
3.24077e-05
3.2535e-05
3.26176e-05
3.2696e-05
3.28748e-05
3.30401e-05
3.38372e-05
3.42859e-05
3.65077e-05
3.80376e-05
4.42903e-05
4.76032e-05
6.33349e-05
8.62001e-05
0.000119155
0.000155342
0.000248467
0.000466247
0.000860538
0.00153849
0.00246169
0.00359385
0.0030527
0.00310934
0.00672086
0.00160996
0.00102541
0.00114857
0.00130715
0.00120802
0.00102408
0.00070947
0.00047064
0.000465448
0.000562986
0.000650668
0.00071409
0.000755409
0.000771683
0.000753522
0.000714386
0.000663311
0.000596661
0.000525284
0.000487744
0.000477271
0.000476426
0.000462772
0.000438519
0.000414302
0.000404986
0.000398554
0.000377373
0.000335082
0.000300828
0.00026839
0.000221478
0.000196204
0.000153948
0.00010408
9.27401e-05
9.961e-05
9.58377e-05
9.99677e-05
7.18727e-05
6.70497e-05
5.25662e-05
4.07427e-05
3.65128e-05
3.9194e-05
4.1498e-05
3.40514e-05
2.52636e-05
1.82058e-05
1.47946e-05
1.37581e-05
1.45263e-05
1.62079e-05
1.78878e-05
1.93324e-05
2.05872e-05
2.16103e-05
2.24671e-05
2.3195e-05
2.37958e-05
2.43129e-05
2.47879e-05
2.52417e-05
2.56279e-05
2.59546e-05
2.61436e-05
2.62557e-05
2.63539e-05
2.65382e-05
2.67538e-05
2.70052e-05
2.71994e-05
2.73382e-05
2.74041e-05
2.74371e-05
2.75805e-05
2.77628e-05
2.87315e-05
2.91877e-05
3.11236e-05
3.16258e-05
3.63789e-05
3.84629e-05
5.60612e-05
7.96634e-05
0.000109823
0.000130346
0.00019063
0.000351582
0.000636288
0.00129893
0.00240285
0.0035731
0.00470458
0.00485356
0.00911828
0.00303732
0.00138782
0.00141105
0.00147688
0.00141805
0.00124015
0.00102162
0.000724265
0.000451422
0.000413938
0.000488907
0.000576489
0.000632684
0.000664509
0.000679831
0.000664804
0.000627917
0.000576205
0.000517498
0.000453525
0.00040789
0.000374577
0.000352
0.000327497
0.00028642
0.000257067
0.00024584
0.000239318
0.000221838
0.000192726
0.000176443
0.000155258
0.000135272
0.000108887
8.9806e-05
9.19309e-05
0.00010021
9.8669e-05
0.000103285
7.21013e-05
6.28196e-05
4.80604e-05
3.66498e-05
2.99425e-05
2.98313e-05
3.20883e-05
2.61707e-05
1.91887e-05
1.44157e-05
1.23946e-05
1.17428e-05
1.22972e-05
1.34135e-05
1.45599e-05
1.55437e-05
1.63966e-05
1.71318e-05
1.77578e-05
1.82847e-05
1.88145e-05
1.9329e-05
1.98322e-05
2.03352e-05
2.08092e-05
2.122e-05
2.1497e-05
2.16596e-05
2.18037e-05
2.20354e-05
2.23227e-05
2.26251e-05
2.2882e-05
2.30789e-05
2.31815e-05
2.32064e-05
2.33549e-05
2.34418e-05
2.44246e-05
2.48739e-05
2.64773e-05
2.64997e-05
2.96254e-05
3.02943e-05
4.4253e-05
6.3851e-05
9.26573e-05
0.0001077
0.000147952
0.000279397
0.000458535
0.000946391
0.0023141
0.00378745
0.00658351
0.00719341
0.0119835
0.00337182
0.00231267
0.00213392
0.00188086
0.00158904
0.00132115
0.00109387
0.000904979
0.000658526
0.000418543
0.000363745
0.00041904
0.000503357
0.000553045
0.000574707
0.000577632
0.000558962
0.000523536
0.000483478
0.000427672
0.000359294
0.000308377
0.000285258
0.000276099
0.00025297
0.000219747
0.000192704
0.000172808
0.000147067
0.00013633
0.000128466
0.000116672
0.000101887
8.26248e-05
7.23566e-05
9.0256e-05
9.86718e-05
9.95617e-05
0.000103074
6.71308e-05
4.95816e-05
3.71603e-05
2.96478e-05
2.67166e-05
2.48326e-05
2.59205e-05
2.18201e-05
1.62708e-05
1.28717e-05
1.11337e-05
1.04621e-05
1.08821e-05
1.17351e-05
1.26079e-05
1.33482e-05
1.3971e-05
1.44919e-05
1.49393e-05
1.53501e-05
1.57436e-05
1.61067e-05
1.64821e-05
1.68957e-05
1.73138e-05
1.77e-05
1.79705e-05
1.80957e-05
1.81983e-05
1.84133e-05
1.87468e-05
1.91e-05
1.94116e-05
1.96596e-05
1.98124e-05
1.98611e-05
2.00106e-05
2.00733e-05
2.09729e-05
2.13823e-05
2.26787e-05
2.25325e-05
2.4569e-05
2.44335e-05
3.32033e-05
4.69744e-05
7.72408e-05
9.36478e-05
0.000128359
0.000250334
0.00043571
0.000893486
0.00202026
0.00401607
0.00773082
0.00865573
0.0138234
0.0038724
0.00334873
0.00258951
0.00200337
0.00160221
0.00131874
0.0010978
0.000918275
0.000764173
0.000573422
0.000378971
0.000316024
0.000354911
0.000425924
0.000462528
0.000474038
0.000463057
0.000437319
0.000400604
0.000346786
0.000275623
0.000239342
0.00022996
0.000227165
0.000212411
0.00019345
0.000171441
0.000151766
0.000127552
0.000107623
9.82871e-05
8.78226e-05
8.21043e-05
7.03687e-05
6.33432e-05
7.745e-05
7.53697e-05
8.00976e-05
8.37278e-05
5.54392e-05
4.17434e-05
2.91113e-05
2.3752e-05
2.27711e-05
2.02147e-05
1.92327e-05
1.67323e-05
1.34245e-05
1.08133e-05
9.2271e-06
8.68053e-06
9.0008e-06
9.66234e-06
1.03074e-05
1.08503e-05
1.13185e-05
1.17352e-05
1.21239e-05
1.25042e-05
1.28996e-05
1.32967e-05
1.37113e-05
1.41638e-05
1.46298e-05
1.50709e-05
1.54165e-05
1.56299e-05
1.58059e-05
1.60598e-05
1.64101e-05
1.676e-05
1.70823e-05
1.73426e-05
1.75178e-05
1.75824e-05
1.77429e-05
1.78208e-05
1.86125e-05
1.89657e-05
2.00602e-05
1.98661e-05
2.13769e-05
2.10378e-05
2.55185e-05
3.37644e-05
5.73056e-05
8.02759e-05
0.000106298
0.00021169
0.000410515
0.000938087
0.00229806
0.00471992
0.00829695
0.00976541
0.0149467
0.00700701
0.0040307
0.0024499
0.00182382
0.00145106
0.00119425
0.00100265
0.000853023
0.000739905
0.000633481
0.000485481
0.000328144
0.000262377
0.000284476
0.000335321
0.000355476
0.000352483
0.000324061
0.000278151
0.000228368
0.000189658
0.000175661
0.000176615
0.000179597
0.00017106
0.000154193
0.000141199
0.000130403
0.000121572
0.000104296
9.55783e-05
8.364e-05
7.65053e-05
7.1607e-05
7.04519e-05
7.84639e-05
5.78498e-05
4.69541e-05
4.62696e-05
4.2195e-05
4.19638e-05
2.6408e-05
1.57454e-05
1.49849e-05
1.34927e-05
1.25012e-05
1.10649e-05
9.31506e-06
7.68443e-06
6.62122e-06
6.2517e-06
6.42694e-06
6.81509e-06
7.18863e-06
7.50568e-06
7.7872e-06
8.04957e-06
8.30762e-06
8.57177e-06
8.85327e-06
9.14933e-06
9.45687e-06
9.78917e-06
1.01369e-05
1.04765e-05
1.07654e-05
1.09715e-05
1.11383e-05
1.13438e-05
1.16386e-05
1.19388e-05
1.22365e-05
1.2484e-05
1.26829e-05
1.27676e-05
1.2937e-05
1.30265e-05
1.35497e-05
1.37545e-05
1.4465e-05
1.42218e-05
1.50158e-05
1.48361e-05
1.66785e-05
2.01902e-05
3.13216e-05
4.88568e-05
6.0149e-05
0.00011298
0.000246644
0.000643227
0.00135016
0.00250062
0.00598546
0.00903872
0.014913
0.00836753
0.0047168
0.00274962
0.00188424
0.00142967
0.0011551
0.000966615
0.000828396
0.000718974
0.000626688
0.000521634
0.000382402
0.000256335
0.000203843
0.000202389
0.000212122
0.000209748
0.000192616
0.000166674
0.000140754
0.000120091
0.000115883
0.000124955
0.000127893
0.000119384
0.000103304
9.64794e-05
9.40214e-05
9.39777e-05
9.13985e-05
8.88095e-05
8.38831e-05
8.04517e-05
7.99054e-05
7.70094e-05
0.000174046
0.000154076
9.25206e-05
6.3081e-05
3.81101e-05
2.97688e-05
3.26377e-05
4.10947e-05
5.10725e-05
6.75194e-05
7.65843e-05
8.27204e-05
8.36624e-05
8.29919e-05
7.91128e-05
7.65655e-05
7.31128e-05
7.00518e-05
6.6452e-05
6.33243e-05
6.1071e-05
5.99671e-05
5.9778e-05
6.01554e-05
6.10315e-05
6.23105e-05
6.38516e-05
6.55844e-05
6.74046e-05
6.90863e-05
7.05447e-05
7.15109e-05
7.20424e-05
7.23249e-05
7.2588e-05
7.28248e-05
7.35145e-05
7.4318e-05
7.55561e-05
7.61032e-05
7.70386e-05
7.74089e-05
7.85352e-05
7.95247e-05
7.95072e-05
7.7331e-05
6.8135e-05
5.38852e-05
4.70505e-05
6.53932e-05
9.94279e-05
0.000113024
0.000111801
0.000149262
0.000264842
0.000483704
0.00148947
0.00179257
0.00208629
0.00323003
0.00767379
0.00519902
0.00337443
0.00230179
0.00160638
0.00114495
0.000808958
0.000603392
0.000567531
0.000611382
0.000762662
0.000903967
0.00102144
0.00115673
0.00129099
0.00140147
0.00147009
0.00147044
0.00144788
0.00138861
0.00133114
0.00127335
0.0012146
0.00117606
0.00112459
0.00109252
0.00104746
0.00101334
0.000966165
0.000907091
0.000835369
0.00061211
0.000306822
0.000181065
7.15381e-05
5.12711e-05
0.00031536
0.000261551
0.000182365
0.000139588
9.75769e-05
9.73718e-05
0.000114014
0.000127688
0.000136459
0.000154138
0.000162552
0.000167773
0.000164525
0.000157281
0.000150303
0.000146915
0.000145761
0.000146001
0.000145794
0.000145327
0.000145046
0.000145559
0.000146692
0.000148213
0.000150056
0.000152169
0.0001545
0.000156972
0.000159413
0.00016152
0.000163142
0.000164211
0.000164933
0.000165448
0.000165878
0.000166294
0.000166986
0.000167811
0.000169032
0.00017006
0.000171428
0.000172943
0.000175036
0.000177692
0.000179642
0.0001791
0.000169474
0.000149402
0.000128307
0.000149952
0.000192899
0.000228164
0.000236544
0.000419181
0.000967747
0.00163076
0.0035067
0.00463572
0.00441124
0.00375474
0.00255567
0.00169225
0.00246248
0.00260153
0.00208688
0.0021835
0.00188301
0.00181747
0.00198687
0.00220725
0.00241912
0.00255562
0.00263644
0.00266
0.00259251
0.00245588
0.00231955
0.0021689
0.00204311
0.00190683
0.00176307
0.00163316
0.00150788
0.00143862
0.0013574
0.00129071
0.00124481
0.001161
0.00111134
0.000997658
0.000904672
0.000746403
0.000563209
0.000394989
0.000205506
6.27409e-05
0.000367258
0.000288432
0.00025607
0.000219943
0.000182594
0.000168783
0.000170097
0.000177943
0.000178792
0.000185195
0.000187915
0.000188454
0.000180527
0.000168259
0.000159138
0.000155676
0.00015687
0.000160663
0.000164773
0.000168564
0.000171788
0.000174891
0.000177597
0.000179948
0.000182026
0.000183931
0.000185782
0.000187632
0.000189423
0.000190981
0.000192087
0.000192807
0.000193314
0.000193674
0.000193989
0.000194335
0.000194818
0.000195449
0.000196404
0.000197437
0.000198612
0.000199736
0.000201141
0.000203703
0.000207881
0.000213345
0.000215117
0.000212582
0.000204267
0.000202625
0.000223762
0.000283933
0.000374845
0.000781254
0.00189706
0.00275868
0.00521475
0.00561437
0.00296868
0.00257911
0.0025122
0.00168989
0.00221427
0.00234773
0.00269317
0.0027038
0.00291965
0.00310715
0.00340705
0.00364039
0.00376816
0.00379135
0.00362763
0.00334206
0.00301877
0.00268343
0.00241576
0.00221071
0.00210055
0.00196157
0.00180267
0.00165448
0.00152052
0.00144087
0.00137646
0.00133098
0.00132169
0.001302
0.00128344
0.00118797
0.00102687
0.000752705
0.000614058
0.000561132
0.000403393
0.000101807
0.000487665
0.000353033
0.000310816
0.000293843
0.000265959
0.000234053
0.000219537
0.000216295
0.000208897
0.000207172
0.000207962
0.000201936
0.000188319
0.000172672
0.000161654
0.000157804
0.000159862
0.00016527
0.000171704
0.000177717
0.00018308
0.000187855
0.000191631
0.000194593
0.000196943
0.0001989
0.00020064
0.000202304
0.000203887
0.000205198
0.000206072
0.000206553
0.000206788
0.000206869
0.000206991
0.000207245
0.000207704
0.000208422
0.000209396
0.000210429
0.000211445
0.000212063
0.000213101
0.000215745
0.000222813
0.000236732
0.000252973
0.000271164
0.000277564
0.000261004
0.000259808
0.000370567
0.000633648
0.00142531
0.00291704
0.00378697
0.00538554
0.00509808
0.00240369
0.00236053
0.00291759
0.0022007
0.00236402
0.00273596
0.00335421
0.00362668
0.0040113
0.00430532
0.00461965
0.00478376
0.00483373
0.00466001
0.00426218
0.00378766
0.00329952
0.0028473
0.0025088
0.00226481
0.00211096
0.00198164
0.00179372
0.00160746
0.00145401
0.00135923
0.00136144
0.00140352
0.00139516
0.00135273
0.00129336
0.00115904
0.000994198
0.000707959
0.000592472
0.000579941
0.000457243
0.000125785
0.000653756
0.000406691
0.000344991
0.000326848
0.000315914
0.000288507
0.000259285
0.000246301
0.000232836
0.000226039
0.000225442
0.000214772
0.000196879
0.000175585
0.000162801
0.000158293
0.000160578
0.000166567
0.000173781
0.000180721
0.000187483
0.000193271
0.000197721
0.000201128
0.000203723
0.000205805
0.000207571
0.000209234
0.000210818
0.000212101
0.000212904
0.000213248
0.000213288
0.000213167
0.00021317
0.000213388
0.000213891
0.000214758
0.000215825
0.00021702
0.00021797
0.000218757
0.000220556
0.000225168
0.000237219
0.00025777
0.000287131
0.000311856
0.000320806
0.000305566
0.000277571
0.000427642
0.000985497
0.00239909
0.00388917
0.00393655
0.00422312
0.00414448
0.00191428
0.00188278
0.00296409
0.00246558
0.0030437
0.00362872
0.00430538
0.00463816
0.00497195
0.00520949
0.00537885
0.00544308
0.00533871
0.00505188
0.00463642
0.00414725
0.00357813
0.00302526
0.00261061
0.002329
0.00212892
0.00198505
0.00181599
0.00158373
0.00136966
0.00121647
0.00117409
0.00124242
0.00131052
0.0013109
0.00124382
0.00107358
0.000901498
0.000590279
0.000563932
0.000567089
0.000453835
0.00013482
0.000835633
0.000443984
0.000370683
0.000353389
0.0003395
0.000330721
0.000296563
0.000272386
0.000251278
0.000236895
0.000235001
0.000220703
0.00020002
0.000174796
0.000154836
0.000146832
0.000149906
0.00015812
0.000168493
0.00017888
0.000187488
0.000193832
0.000198702
0.000202418
0.000205192
0.000207355
0.000209152
0.00021083
0.000212426
0.000213715
0.00021447
0.000214716
0.000214624
0.000214362
0.000214288
0.000214464
0.000214952
0.000215851
0.000216913
0.000218134
0.000219005
0.000219823
0.000221949
0.000227363
0.000241948
0.000264866
0.000300079
0.000324823
0.000332717
0.000322159
0.000318029
0.000415215
0.000839479
0.00213866
0.00376865
0.00426745
0.00484784
0.00523806
0.00182826
0.00180466
0.00319226
0.0029265
0.00371873
0.00438354
0.00490843
0.00513437
0.00528398
0.00541049
0.00547832
0.00549756
0.00536522
0.00512935
0.00476164
0.0043278
0.00384333
0.00337364
0.00291033
0.00256681
0.00227615
0.00206225
0.00188069
0.0016759
0.0014453
0.00123974
0.00110578
0.00105706
0.00106178
0.00105238
0.000951288
0.000821965
0.000647836
0.00053064
0.00055212
0.000527802
0.000419882
0.000133831
0.000786724
0.000458488
0.000389666
0.000367883
0.000353165
0.00035053
0.000320464
0.00028963
0.000264359
0.000241755
0.000238471
0.000221819
0.000197207
0.000160801
0.00013799
0.000129199
0.000132588
0.000140469
0.000149898
0.000159451
0.000168308
0.000175942
0.000182101
0.000186799
0.000190126
0.000192497
0.000194261
0.00019585
0.000197281
0.000198327
0.00019858
0.000198169
0.000197258
0.000196175
0.000195662
0.000195459
0.000195558
0.000196165
0.000196841
0.000197806
0.000198263
0.000198913
0.000202269
0.000209482
0.000232197
0.000257714
0.000297328
0.000297229
0.000288012
0.000303113
0.0003298
0.000391508
0.000601878
0.0013254
0.00299908
0.00531127
0.00643548
0.0065207
0.00187064
0.00184725
0.0033259
0.00304737
0.00390341
0.0044979
0.00476374
0.00483855
0.00487515
0.00493913
0.00501586
0.00507049
0.00508277
0.00500143
0.00475853
0.00439589
0.00401382
0.0037303
0.00342996
0.00305757
0.0027222
0.00247256
0.00225107
0.00204284
0.00189475
0.00172159
0.00150849
0.00127936
0.00112535
0.00102008
0.000920426
0.000836405
0.000733944
0.000695427
0.000667616
0.000596388
0.000422725
0.000145078
0.000629075
0.000461558
0.000388482
0.000361135
0.000354347
0.000350147
0.000324461
0.000292508
0.000268545
0.000241802
0.000236735
0.000215066
0.000183791
0.000141147
0.000111869
0.000100699
0.000106184
0.000117361
0.000129471
0.000140414
0.000149527
0.000156484
0.000161763
0.000165721
0.000168418
0.000170204
0.000171397
0.00017224
0.000172547
0.000172284
0.000171203
0.000169622
0.000167891
0.000166084
0.000164061
0.00016234
0.000160936
0.000159914
0.000158974
0.000158555
0.000157624
0.000157403
0.000159147
0.000163721
0.000181682
0.000202979
0.000239328
0.00022956
0.000189781
0.000219681
0.000287242
0.000377038
0.000482022
0.000756691
0.00196511
0.00490455
0.00740242
0.00835333
0.00210779
0.00205292
0.00315447
0.00289716
0.00357899
0.00381667
0.00387047
0.00363823
0.00354526
0.00350842
0.0036107
0.00373066
0.00384544
0.00389402
0.00387707
0.00378535
0.0037512
0.00383184
0.00381021
0.00353061
0.00310212
0.00276251
0.00253521
0.00236532
0.00221123
0.00207104
0.00198096
0.00190804
0.00177487
0.00162929
0.00151281
0.00142531
0.00133342
0.00121031
0.000996766
0.000767035
0.000657702
0.00070477
0.00046129
0.0004647
0.000355263
0.000318051
0.000306285
0.000309621
0.00030998
0.000285496
0.000268278
0.000237021
0.000230179
0.000202768
0.00016648
0.000115466
8.3417e-05
7.09298e-05
7.22775e-05
7.80533e-05
8.54373e-05
9.27231e-05
9.98787e-05
0.000106498
0.000111769
0.000115662
0.000118189
0.000119621
0.000120475
0.000121178
0.0001218
0.000121872
0.000120936
0.000119423
0.000117478
0.000115759
0.000114423
0.000113559
0.000112697
0.000112217
0.000111565
0.000111692
0.00011056
0.000110868
0.000111948
0.000115782
0.0001286
0.000142963
0.000169312
0.000161882
0.00012376
0.000140032
0.000202599
0.000293235
0.000435058
0.000631402
0.00133921
0.00323938
0.00590024
0.00766439
0.00269937
0.0025443
0.00282074
0.00224014
0.00253819
0.00250977
0.00240014
0.00179801
0.00151159
0.00136349
0.00143813
0.00159844
0.00178552
0.00190395
0.00193072
0.00188454
0.00179689
0.00173461
0.00174745
0.00205912
0.00254757
0.00255982
0.00249578
0.00246206
0.00237466
0.00215337
0.00192526
0.00180626
0.00175864
0.00171804
0.00163416
0.00150323
0.00136254
0.00120256
0.00100327
0.000814248
0.000624883
0.000354389
0.000434943
0.000434719
0.000345161
0.00030101
0.000235017
0.000223899
0.000234244
0.000227453
0.000217032
0.000201526
0.000197569
0.000169777
0.000132276
9.05084e-05
6.60168e-05
5.78423e-05
5.77464e-05
6.08476e-05
6.51795e-05
6.99707e-05
7.54748e-05
7.8972e-05
8.16498e-05
8.38554e-05
8.53446e-05
8.6158e-05
8.68189e-05
8.76734e-05
8.82979e-05
8.84466e-05
8.78794e-05
8.69447e-05
8.59169e-05
8.51408e-05
8.44752e-05
8.40862e-05
8.35741e-05
8.33115e-05
8.28428e-05
8.26836e-05
8.18991e-05
8.16227e-05
8.23525e-05
8.34709e-05
8.93449e-05
9.34932e-05
0.000104143
9.79738e-05
8.27992e-05
9.98144e-05
0.000155289
0.00022793
0.000382492
0.000762074
0.00142924
0.00260544
0.00451486
0.00617468
0.003575
0.00339468
0.00256846
0.00215036
0.00236713
0.00240264
0.00206129
0.00132361
0.000948953
0.000700365
0.000647546
0.00072677
0.000884712
0.00108363
0.00122832
0.00131763
0.00131972
0.00126858
0.00117923
0.00122048
0.00145178
0.00167352
0.00163475
0.00156744
0.00153938
0.00159158
0.00150924
0.0013094
0.00120316
0.00116836
0.00112162
0.00108001
0.00103371
0.00095671
0.000843157
0.000671286
0.000454012
0.000182141
0.000351626
0.000376311
0.000338325
0.000297915
0.000184156
0.000157585
0.0001614
0.000162345
0.000164469
0.000164612