/*--------------------------------*- C++ -*----------------------------------*\
| =========                 |                                                 |
| \\      /  F ield         | OpenFOAM: The Open Source CFD Toolbox           |
|  \\    /   O peration     | Version:  2.3.0                                 |
|   \\  /    A nd           | Web:      www.OpenFOAM.org                      |
|    \\/     M anipulation  |                                                 |
\*---------------------------------------------------------------------------*/
FoamFile
{
    version     2.0;
    format      ascii;
    class       surfaceScalarField;
    location    "34";
    object      phi.air;
}
// * * * * * * * * * * * * * * * * * * * * * * * * * * * * * * * * * * * * * //

dimensions      [0 3 -1 0 0 0 0];

internalField   nonuniform List<scalar> 
16448
(
-9.05106e-07
-2.53573e-06
4.66551e-07
9.9186e-07
-2.58828e-06
6.91314e-07
1.02088e-06
-1.18796e-06
1.15894e-06
1.01801e-06
-1.15068e-06
1.15355e-06
6.15482e-07
-6.26038e-07
1.02856e-06
3.14081e-07
-6.10471e-07
9.1187e-07
7.19114e-08
-4.50866e-07
6.93036e-07
-8.08631e-08
-3.88866e-07
5.41642e-07
-3.14044e-07
-2.5063e-07
4.83816e-07
-5.61306e-07
-1.81344e-07
4.28613e-07
-7.18902e-07
-1.95825e-07
3.53429e-07
-7.3926e-07
-2.59499e-07
2.79867e-07
-6.60706e-07
-3.27291e-07
2.48747e-07
-5.09355e-07
-3.83278e-07
2.31936e-07
-3.58673e-07
-4.12248e-07
2.61576e-07
-2.1028e-07
-4.3931e-07
2.90927e-07
-9.65018e-08
-4.508e-07
3.37033e-07
-1.17236e-08
-4.64634e-07
3.79867e-07
3.91253e-08
-4.75138e-07
4.243e-07
6.54303e-08
-4.86065e-07
4.59771e-07
7.2934e-08
-4.91687e-07
4.84194e-07
6.91504e-08
-4.9301e-07
4.96804e-07
5.91046e-08
-4.90208e-07
5.00264e-07
4.58977e-08
-4.83714e-07
4.96931e-07
3.22363e-08
-4.74472e-07
4.88143e-07
2.06344e-08
-4.63443e-07
4.75054e-07
1.24968e-08
-4.51111e-07
4.59258e-07
8.29756e-09
-4.37685e-07
4.41893e-07
8.61165e-09
-4.24465e-07
4.24159e-07
1.45112e-08
-4.14235e-07
4.08343e-07
2.56446e-08
-4.05309e-07
3.94183e-07
3.83605e-08
-3.96154e-07
3.83445e-07
5.00038e-08
-3.87231e-07
3.75594e-07
5.89474e-08
-3.7839e-07
3.69452e-07
6.64207e-08
-3.7059e-07
3.63122e-07
7.24869e-08
-3.62875e-07
3.56814e-07
8.23109e-08
-3.57314e-07
3.47495e-07
9.64205e-08
-3.51826e-07
3.37721e-07
1.19433e-07
-3.49657e-07
3.26648e-07
1.46325e-07
-3.47327e-07
3.2044e-07
1.77618e-07
-3.46487e-07
3.15198e-07
2.11904e-07
-3.49757e-07
3.15473e-07
2.3845e-07
-3.44603e-07
3.1806e-07
2.7017e-07
-3.54458e-07
3.22741e-07
2.49394e-07
-3.22488e-07
3.43267e-07
1.95472e-07
-3.27013e-07
3.80937e-07
-6.65582e-08
-2.22674e-07
4.84707e-07
-3.93579e-07
-2.44949e-07
5.71973e-07
-9.87765e-07
-1.48934e-07
7.43125e-07
-1.35242e-06
-3.64378e-07
7.29038e-07
-1.2256e-06
-8.51011e-07
7.24198e-07
-4.92901e-07
-1.38659e-06
6.5389e-07
1.23432e-07
-2.06968e-06
1.45334e-06
2.47263e-07
-2.09409e-06
1.97026e-06
2.93107e-07
-2.99417e-06
2.9483e-06
-1.58727e-06
-1.74057e-06
3.62096e-06
4.35351e-06
-5.05044e-06
-8.90449e-07
5.96396e-06
2.06813e-06
-3.67831e-06
-6.0281e-06
9.63429e-06
1.89318e-06
-3.02359e-05
-1.64435e-05
1.04886e-05
-6.52523e-05
-1.25217e-05
4.58946e-06
-2.46504e-05
-2.22454e-06
3.38902e-06
1.02214e-05
-7.43169e-07
2.57644e-06
8.10192e-06
-1.72249e-07
2.08532e-06
4.43381e-06
2.108e-06
1.60668e-06
1.59919e-06
1.65038e-06
1.18085e-06
-6.82882e-07
6.80693e-07
1.55465e-06
-2.55584e-06
-4.63814e-07
2.2657e-06
-3.64673e-06
-1.94943e-06
2.97645e-06
-4.22819e-06
-2.92514e-06
3.46981e-06
-4.07715e-06
-4.09053e-06
3.90225e-06
-3.28206e-06
-4.90412e-06
4.09741e-06
-1.70079e-06
-5.74482e-06
4.14431e-06
6.57889e-07
-6.26021e-06
3.89326e-06
4.02301e-06
-6.50803e-06
3.15271e-06
8.61255e-06
-6.56858e-06
1.98816e-06
1.39144e-05
-5.97643e-06
6.75495e-07
1.96234e-05
-5.13425e-06
-5.78193e-07
2.53167e-05
-4.00818e-06
-1.67953e-06
3.03761e-05
-2.58451e-06
-2.45629e-06
3.47111e-05
-1.70937e-06
-2.62245e-06
3.80477e-05
-6.94207e-07
-2.63888e-06
4.0183e-05
3.97026e-07
-2.5172e-06
4.13938e-05
9.96661e-07
-2.23669e-06
4.12941e-05
2.24067e-06
-2.16435e-06
3.99655e-05
3.08694e-06
-1.75022e-06
3.79603e-05
3.8921e-06
-1.9043e-06
3.41889e-05
5.16077e-06
-1.39491e-06
2.94511e-05
5.51246e-06
-7.83451e-07
2.36447e-05
6.66283e-06
-8.60274e-07
1.38805e-05
7.32295e-06
2.42309e-06
4.04981e-06
5.33226e-06
4.64939e-06
-4.63704e-07
3.83942e-06
8.42194e-07
-6.88186e-07
2.8344e-06
-2.57334e-06
2.37905e-07
1.50823e-06
-2.29716e-06
8.8091e-07
2.11945e-07
-1.75899e-06
-3.67418e-06
-8.63222e-08
-4.05402e-07
-3.96651e-06
2.46416e-08
-1.22003e-07
-2.22493e-06
7.53571e-07
2.13305e-07
-2.0664e-06
5.80401e-07
2.63181e-07
-1.08112e-06
4.05202e-07
2.38331e-07
-8.02526e-07
2.169e-07
1.19115e-07
-3.59866e-07
2.82139e-08
-1.26488e-07
-1.90339e-07
4.70763e-08
-5.0761e-07
2.69515e-08
1.03546e-07
-8.21872e-07
4.15235e-08
9.14019e-08
-9.80367e-07
-6.06176e-08
2.32992e-08
-9.79604e-07
-1.99367e-07
-6.08841e-08
-8.79928e-07
-3.16836e-07
-1.1012e-07
-7.14428e-07
-4.12485e-07
-1.3628e-07
-5.406e-07
-4.63805e-07
-1.22257e-07
-3.69418e-07
-5.07503e-07
-1.02975e-07
-2.30687e-07
-5.21246e-07
-6.82705e-08
-1.19736e-07
-5.37998e-07
-3.75723e-08
-4.70807e-08
-5.44575e-07
-3.203e-09
-1.89766e-09
-5.48573e-07
1.73397e-08
2.19624e-08
-5.46997e-07
3.14648e-08
3.02748e-08
-5.4018e-07
3.88716e-08
2.89849e-08
-5.29408e-07
4.05034e-08
2.18742e-08
-5.15096e-07
3.85062e-08
1.25005e-08
-4.98411e-07
3.33256e-08
3.74695e-09
-4.80014e-07
2.5336e-08
-2.91788e-09
-4.60447e-07
1.60118e-08
-6.93639e-09
-4.40108e-07
6.45204e-09
-6.83038e-09
-4.20077e-07
-4.4843e-09
-1.19882e-09
-4.02698e-07
-1.71592e-08
8.84159e-09
-3.87375e-07
-2.79662e-08
1.97259e-08
-3.7102e-07
-3.60103e-08
3.03998e-08
-3.55112e-07
-4.27858e-08
3.93926e-08
-3.38782e-07
-4.8594e-08
4.84227e-08
-3.25072e-07
-5.45417e-08
5.64032e-08
-3.11244e-07
-5.96062e-08
6.92713e-08
-3.03368e-07
-6.68095e-08
8.30707e-08
-2.93855e-07
-7.1766e-08
1.05516e-07
-2.93709e-07
-7.83896e-08
1.25559e-07
-2.87759e-07
-7.96078e-08
1.5268e-07
-2.9114e-07
-8.24657e-08
1.80776e-07
-2.94961e-07
-8.28879e-08
2.14997e-07
-3.02189e-07
-7.6633e-08
2.58454e-07
-3.20985e-07
-7.69271e-08
2.6848e-07
-2.9427e-07
-3.82429e-08
2.2262e-07
-2.91558e-07
1.0407e-08
-3.60357e-08
-1.01763e-07
1.37747e-07
-5.06409e-07
-1.38885e-08
2.39316e-07
-1.28953e-06
2.50873e-07
3.83319e-07
-1.54417e-06
-1.31978e-07
2.22448e-08
-1.21301e-06
-1.15097e-06
-3.11945e-08
-2.96293e-07
-2.26059e-06
-4.27167e-08
-1.26561e-06
-2.48888e-06
1.38851e-06
-1.81913e-06
-3.00885e-06
1.46828e-06
-5.39607e-07
-6.02665e-06
1.75294e-06
2.438e-06
-6.71236e-06
1.99417e-06
-2.17464e-06
-1.46235e-06
1.02443e-06
-1.00939e-05
9.44016e-06
5.4718e-07
3.46194e-07
1.06871e-07
-1.92832e-06
-3.60474e-05
-1.97914e-05
4.41495e-06
-9.23294e-05
-1.49147e-05
6.35474e-06
-5.08165e-05
-2.39166e-06
3.90842e-06
-1.17326e-05
-4.34693e-06
5.31278e-06
-1.23589e-05
1.56042e-08
5.55377e-07
-1.177e-05
1.05277e-07
1.03177e-06
-1.23583e-05
-3.41645e-07
1.63365e-06
-1.34498e-05
-1.97781e-06
2.83248e-06
-1.44794e-05
-3.39093e-06
2.92891e-06
-1.50035e-05
-5.28518e-06
3.27254e-06
-1.49065e-05
-6.61789e-06
3.02807e-06
-1.39977e-05
-8.23605e-06
2.63685e-06
-1.24477e-05
-9.23251e-06
2.3485e-06
-1.00221e-05
-1.03393e-05
1.81762e-06
-6.45389e-06
-1.0882e-05
9.20946e-07
-1.67369e-06
-1.07912e-05
-3.1934e-07
4.0432e-06
-1.05192e-05
-1.67263e-06
1.04754e-05
-9.56388e-06
-2.81889e-06
1.71026e-05
-8.31781e-06
-3.43448e-06
2.36033e-05
-6.89416e-06
-3.59424e-06
2.9438e-05
-5.29249e-06
-3.11526e-06
3.41801e-05
-4.14123e-06
-2.29943e-06
3.79967e-05
-2.7532e-06
-1.7636e-06
4.06462e-05
-1.23825e-06
-1.02464e-06
4.22953e-05
-9.35719e-08
-5.7731e-07
4.26541e-05
2.41819e-06
-5.87612e-07
4.14242e-05
4.52176e-06
-2.47985e-07
3.93014e-05
6.62541e-06
-6.64427e-07
3.56848e-05
9.27778e-06
-5.53795e-07
3.10165e-05
1.02416e-05
-1.18598e-07
2.62011e-05
1.18851e-05
-4.52373e-07
1.82317e-05
1.32493e-05
2.02267e-06
7.86544e-06
1.1277e-05
4.50189e-06
7.63996e-07
8.81366e-06
2.29335e-06
-7.45651e-07
6.75067e-06
-2.3598e-06
2.13618e-07
4.62629e-06
-3.96203e-06
3.39339e-06
-1.36085e-06
-2.44078e-06
-4.00891e-06
-3.1987e-07
-1.41842e-06
-4.50578e-06
-4.83084e-07
-1.17243e-06
-2.6652e-06
1.94278e-07
-6.58004e-07
-2.51217e-06
-6.86528e-08
-3.21313e-07
-1.29961e-06
-1.18212e-07
-1.02255e-07
-8.60116e-07
-1.61473e-07
-4.31428e-09
-1.79481e-07
-2.78328e-07
-1.52435e-07
1.0991e-07
-1.52126e-07
-4.97793e-07
4.46121e-07
-7.38054e-08
-7.95419e-07
3.97256e-07
-5.80969e-08
-9.41225e-07
2.11682e-07
-1.26483e-07
-9.58386e-07
2.48125e-08
-2.07006e-07
-8.99696e-07
-1.08055e-07
-2.67458e-07
-7.89836e-07
-2.18606e-07
-3.03726e-07
-6.52557e-07
-2.80223e-07
-3.20847e-07
-5.11803e-07
-3.28449e-07
-3.19793e-07
-3.89644e-07
-3.37702e-07
-3.05688e-07
-2.82474e-07
-3.52081e-07
-2.93071e-07
-1.96092e-07
-3.52361e-07
-2.78581e-07
-1.31221e-07
-3.46317e-07
-2.67112e-07
-8.56767e-08
-3.34608e-07
-2.57918e-07
-5.57542e-08
-3.18502e-07
-2.51586e-07
-3.84233e-08
-2.98756e-07
-2.47969e-07
-3.01198e-08
-2.76527e-07
-2.46859e-07
-2.7323e-08
-2.535e-07
-2.47695e-07
-2.71847e-08
-2.30384e-07
-2.49756e-07
-2.75937e-08
-2.07434e-07
-2.52593e-07
-2.68584e-08
-1.8512e-07
-2.55712e-07
-2.39261e-08
-1.64164e-07
-2.58835e-07
-1.99551e-08
-1.44539e-07
-2.6212e-07
-1.61738e-08
-1.26022e-07
-2.65125e-07
-1.28752e-08
-1.0649e-07
-2.67821e-07
-8.25375e-09
-8.85565e-08
-2.7117e-07
-2.42882e-09
-7.03231e-08
-2.74277e-07
6.20171e-09
-5.64134e-08
-2.77284e-07
1.47006e-08
-4.13705e-08
-2.78366e-07
2.585e-08
-3.47802e-08
-2.79732e-07
3.2681e-08
-2.44384e-08
-2.76244e-07
4.39054e-08
-2.88294e-08
-2.761e-07
4.89843e-08
-2.31347e-08
-2.697e-07
6.67274e-08
-3.68413e-08
-2.72039e-07
8.63747e-08
-4.83591e-08
-2.66247e-07
1.328e-07
-8.21652e-08
-2.66447e-07
1.80122e-07
-1.16791e-07
-2.51515e-07
2.36475e-07
-1.48378e-07
-2.02243e-07
2.3605e-07
-1.51205e-07
-1.39927e-07
1.39753e-07
-1.5774e-08
1.03107e-08
-1.63959e-07
1.99194e-07
9.06306e-08
-4.96881e-07
3.99971e-07
1.83828e-07
-5.74505e-07
1.75573e-07
-2.29925e-07
-4.26351e-07
-1.00506e-06
-2.94063e-07
-3.06117e-07
-2.20161e-06
-1.79219e-07
-1.88664e-06
-2.0761e-06
1.16773e-06
-1.8087e-06
-3.95409e-06
8.67297e-07
6.86729e-07
-8.7703e-06
2.48214e-07
4.46249e-06
-1.01161e-05
-3.71973e-07
7.21475e-06
-4.80021e-07
-3.73478e-06
1.01271e-05
1.2835e-05
-6.30719e-06
7.53959e-06
-6.78831e-06
7.46973e-06
-4.26543e-05
-1.44748e-05
4.64217e-06
-0.000108715
-1.59188e-05
8.52303e-06
-0.000109766
-4.18957e-06
4.89183e-06
-0.000111852
-4.55303e-06
5.17198e-06
-0.000114285
-1.18073e-06
3.07707e-06
-0.000113721
-1.6602e-06
3.46191e-06
-0.000115746
-2.41816e-06
2.92967e-06
-0.000116523
-3.99261e-06
2.95715e-06
-0.000116435
-5.68818e-06
2.62223e-06
-0.000117202
-7.33242e-06
2.2936e-06
-0.000115583
-8.63382e-06
1.82499e-06
-0.000112519
-1.02994e-05
1.35092e-06
-0.000108743
-1.13911e-05
7.07458e-07
-9.99353e-05
-1.23609e-05
-7.19422e-08
-5.42015e-05
-1.30479e-05
-9.39421e-07
-1.05104e-05
-1.41933e-05
-2.13616e-06
-4.08708e-06
-1.43643e-05
-2.72513e-06
2.37531e-06
-1.41499e-05
-2.0465e-06
8.96011e-06
-1.39796e-05
-1.22398e-06
1.53394e-05
-1.36432e-05
-2.2337e-07
2.07966e-05
-1.16336e-05
1.07199e-06
2.53389e-05
-1.06761e-05
2.06645e-06
2.90636e-05
-9.14523e-06
2.69344e-06
3.17104e-05
-7.26862e-06
3.34603e-06
3.3847e-05
-5.30851e-06
3.06445e-06
3.60028e-05
-2.32399e-06
2.581e-06
3.70058e-05
1.29348e-06
2.1936e-06
3.63387e-05
6.23578e-06
1.00082e-06
3.37203e-05
1.10422e-05
7.63504e-07
2.96325e-05
1.37037e-05
5.55608e-07
2.47764e-05
1.64293e-05
2.92997e-07
1.69637e-05
1.81046e-05
2.93239e-06
6.92746e-06
1.63255e-05
5.0905e-06
-9.24216e-08
1.29918e-05
3.03276e-06
-1.69888e-06
1.04697e-05
-2.0311e-06
-4.93622e-07
8.24454e-06
-4.68388e-06
6.63099e-06
-2.72625e-06
-2.94661e-06
-4.07756e-06
-1.46132e-07
-1.92517e-06
-4.7916e-06
-7.3562e-07
-1.81955e-06
-2.88303e-06
1.12206e-07
-1.25328e-06
-2.87351e-06
-2.04937e-07
-8.68862e-07
-1.54793e-06
-1.36102e-07
-4.14178e-07
-1.11354e-06
-2.0127e-07
-8.92058e-08
-2.03605e-07
-3.00851e-07
-4.33516e-08
2.44603e-07
-1.80544e-07
-2.59847e-07
7.7613e-07
-1.13508e-07
-5.49873e-07
7.77092e-07
-8.97987e-08
-7.17363e-07
5.38124e-07
-1.5894e-07
-8.2142e-07
3.55531e-07
-2.26647e-07
-8.50411e-07
2.03359e-07
-2.82409e-07
-8.04896e-07
6.72831e-08
-3.31388e-07
-7.04246e-07
-1.62762e-08
-3.64581e-07
-5.83782e-07
-6.46636e-08
-3.84233e-07
-4.75774e-07
-5.52669e-08
-3.90426e-07
-3.78568e-07
-5.38663e-08
-3.95403e-07
-2.91085e-07
-4.21393e-08
-3.97689e-07
-2.15719e-07
-2.63785e-08
-3.95288e-07
-1.56218e-07
-4.23316e-09
-3.89859e-07
-1.10381e-07
1.85382e-08
-3.82862e-07
-7.71444e-08
4.38565e-08
-3.75834e-07
-5.51162e-08
7.13778e-08
-3.69919e-07
-4.18257e-08
9.90338e-08
-3.65811e-07
-3.43884e-08
1.25272e-07
-3.63081e-07
-3.08351e-08
1.50232e-07
-3.61207e-07
-2.9561e-08
1.73251e-07
-3.59634e-07
-2.92002e-08
1.93598e-07
-3.58113e-07
-2.91422e-08
2.12067e-07
-3.56655e-07
-2.98043e-08
2.30182e-07
-3.55533e-07
-3.06708e-08
2.49647e-07
-3.55263e-07
-3.05881e-08
2.67459e-07
-3.56091e-07
-2.91643e-08
2.84972e-07
-3.56712e-07
-2.63203e-08
2.97775e-07
-3.57027e-07
-2.36761e-08
3.11729e-07
-3.55739e-07
-2.13917e-08
3.16243e-07
-3.53303e-07
-2.19523e-08
3.24246e-07
-3.4812e-07
-1.80142e-08
3.13494e-07
-3.46257e-07
-1.73024e-08
3.15249e-07
-3.39092e-07
3.49028e-09
2.85085e-07
-3.42717e-07
6.80393e-09
2.75122e-07
-3.26792e-07
4.5907e-08
2.05769e-07
-3.27036e-07
3.67795e-08
1.76874e-07
-2.84535e-07
6.48882e-08
7.33444e-08
-2.4983e-07
2.69627e-08
6.32368e-08
-1.76514e-07
8.7261e-08
2.45791e-08
-1.00651e-07
2.76347e-07
1.34846e-07
-1.24736e-07
5.11849e-07
1.8313e-07
-1.86598e-08
7.32599e-07
2.78759e-07
-3.23933e-07
4.49793e-07
-4.65127e-07
-2.57128e-07
-2.55361e-07
-1.55201e-06
5.55548e-08
-8.30092e-07
-1.91254e-06
4.11164e-07
1.43209e-07
-4.29972e-06
-6.27682e-07
1.59134e-07
-8.30173e-06
-4.84528e-07
8.52445e-07
-7.28001e-06
-3.52944e-06
6.29551e-06
8.58177e-07
-6.78135e-06
1.83325e-05
1.12633e-05
-1.04653e-05
4.83358e-06
-8.31263e-06
1.14845e-05
-5.3225e-05
-9.34769e-06
4.71067e-06
-0.000117875
-1.24666e-05
1.10977e-05
-0.000120566
-3.00077e-06
5.80785e-06
-0.000124727
-3.95984e-06
6.06208e-06
-0.000123989
-2.43143e-06
3.67662e-06
-0.000121511
-3.4368e-06
3.12747e-06
-0.000127216
-4.18176e-06
2.39446e-06
-0.000132744
-5.37093e-06
2.28436e-06
-0.000133342
-6.98303e-06
1.88754e-06
-0.000130019
-8.55623e-06
1.56547e-06
-0.000128625
-9.80015e-06
1.24081e-06
-0.000131509
-1.14513e-05
7.51203e-07
-0.000130944
-1.30717e-05
3.80291e-07
-0.000129359
-1.41085e-05
-2.06388e-07
-0.000126614
-1.54366e-05
-5.45721e-07
-0.000122149
-1.64962e-05
-8.10612e-07
-0.000116483
-1.71178e-05
-5.31898e-07
-0.000107979
-1.73812e-05
1.81992e-07
-8.97604e-05
-1.74829e-05
7.29816e-07
-4.02861e-05
-1.72242e-05
1.04156e-06
9.01656e-07
-1.71316e-05
1.13899e-06
4.96182e-06
-1.56553e-05
1.53561e-06
8.33099e-06
-1.38272e-05
1.77551e-06
1.11942e-05
-1.19056e-05
1.78925e-06
1.34473e-05
-9.39678e-06
1.80245e-06
1.62373e-05
-6.50117e-06
1.34174e-06
2.04896e-05
-2.68226e-06
-2.36365e-07
2.47065e-05
3.08511e-06
-1.01427e-06
2.55504e-05
9.68607e-06
4.15198e-07
2.33186e-05
1.50019e-05
7.61166e-07
1.98147e-05
1.91369e-05
7.08123e-07
1.29237e-05
2.1585e-05
3.43523e-06
3.93889e-06
2.00558e-05
5.35489e-06
-1.91863e-06
1.5913e-05
3.06746e-06
-2.71098e-06
1.35388e-05
-2.19629e-06
-7.68123e-07
1.17975e-05
-5.30902e-06
1.01907e-05
-3.20423e-06
-3.30603e-06
-3.96939e-06
-2.93633e-08
-2.20325e-06
-4.92931e-06
-9.65073e-07
-2.22367e-06
-3.02347e-06
1.60845e-07
-1.63339e-06
-3.34606e-06
-1.17749e-07
-1.23873e-06
-1.95425e-06
1.16655e-08
-6.49077e-07
-1.54786e-06
-1.55335e-07
-2.26613e-07
-4.18568e-07
-2.07498e-07
-1.68497e-08
1.88823e-07
-1.53979e-07
-3.68868e-08
9.17062e-07
-1.20883e-07
-3.07608e-07
1.12664e-06
-7.88204e-08
-5.00446e-07
8.61131e-07
-1.30153e-07
-6.72461e-07
6.85283e-07
-1.57722e-07
-7.75633e-07
5.00731e-07
-1.94183e-07
-7.85805e-07
3.24004e-07
-2.46531e-07
-7.12516e-07
2.00993e-07
-2.9054e-07
-5.99778e-07
1.47978e-07
-3.25362e-07
-4.99853e-07
1.90922e-07
-3.46095e-07
-4.12144e-07
2.23086e-07
-3.64644e-07
-3.32274e-07
2.57883e-07
-3.79874e-07
-2.58301e-07
2.89971e-07
-3.90306e-07
-1.92867e-07
3.2434e-07
-3.93989e-07
-1.3778e-07
3.5745e-07
-3.93983e-07
-9.41542e-08
3.91036e-07
-3.90789e-07
-6.18643e-08
4.24311e-07
-3.85208e-07
-3.98734e-08
4.5545e-07
-3.78394e-07
-2.59541e-08
4.8272e-07
-3.71353e-07
-1.89158e-08
5.07157e-07
-3.63951e-07
-1.6477e-08
5.27521e-07
-3.56697e-07
-1.65797e-08
5.43529e-07
-3.49818e-07
-1.90301e-08
5.57731e-07
-3.43203e-07
-2.28834e-08
5.71657e-07
-3.37614e-07
-2.7166e-08
5.86675e-07
-3.32737e-07
-3.06216e-08
5.99404e-07
-3.28483e-07
-3.40783e-08
6.12751e-07
-3.24316e-07
-3.83813e-08
6.21968e-07
-3.19883e-07
-4.43177e-08
6.32507e-07
-3.14835e-07
-5.11696e-08
6.32764e-07
-3.09665e-07
-5.85657e-08
6.3513e-07
-3.03483e-07
-6.30595e-08
6.17619e-07
-2.99628e-07
-6.57599e-08
6.10055e-07
-2.92103e-07
-6.44013e-08
5.73984e-07
-2.90255e-07
-7.32606e-08
5.57059e-07
-2.73076e-07
-9.32845e-08
4.9054e-07
-2.64745e-07
-1.41075e-07
4.57238e-07
-2.32573e-07
-1.97389e-07
3.51038e-07
-2.21377e-07
-1.90006e-07
2.65915e-07
-2.1006e-07
4.69572e-09
1.21298e-07
-2.91418e-07
6.44082e-07
-9.70446e-08
-4.07496e-07
1.26395e-06
-3.86873e-08
-3.98048e-07
1.86735e-06
1.53237e-07
-4.77877e-07
9.61814e-07
3.04177e-07
1.36228e-07
-5.16838e-08
-7.1833e-07
1.79814e-07
-1.06183e-06
-7.36891e-07
-1.65525e-07
-1.77605e-06
-1.95155e-06
-1.63396e-06
-7.12423e-06
-6.35537e-07
-2.31802e-06
-8.13722e-06
-1.48989e-06
-4.77708e-06
1.3397e-06
-7.15141e-07
-7.90363e-06
2.28083e-05
3.60212e-07
-1.05654e-05
8.07064e-07
-7.64249e-06
1.64557e-05
-6.28495e-05
-3.27802e-06
3.5636e-06
-0.000130125
-5.03762e-06
1.13904e-05
-0.000137228
-1.28212e-06
6.07718e-06
-0.000141369
-2.16968e-06
5.55893e-06
-0.000144161
-2.46378e-06
2.71576e-06
-0.000145749
-4.14248e-06
2.01482e-06
-0.0001468
-5.17602e-06
1.58475e-06
-0.000147172
-6.12897e-06
1.21541e-06
-0.000146618
-7.38296e-06
1.03942e-06
-0.000143181
-8.918e-06
8.62949e-07
-0.000145671
-1.01162e-05
6.87675e-07
-0.000149324
-1.19375e-05
3.33343e-07
-0.00014387
-1.34463e-05
7.98413e-08
-0.000143711
-1.51758e-05
-2.12175e-07
-0.00014582
-1.7057e-05
-5.11965e-07
-0.000142391
-1.89158e-05
-7.23453e-07
-0.000140968
-2.03487e-05
-5.95065e-07
-0.000137389
-2.12026e-05
-4.62035e-07
-0.000131811
-2.18165e-05
-3.36004e-07
-0.000127223
-2.15708e-05
-2.51696e-07
-0.000119083
-2.03447e-05
-8.22729e-08
-9.97957e-05
-1.84103e-05
-4.71093e-08
-4.71881e-05
-1.59499e-05
-2.53633e-07
-4.78757e-06
-1.3458e-05
-8.97844e-07
-1.39416e-06
-9.94104e-06
-1.47244e-06
1.88331e-06
-5.91824e-06
-2.59154e-06
5.77124e-06
-2.8751e-06
-3.7517e-06
1.0053e-05
2.71284e-06
-3.91369e-06
1.32945e-05
9.37368e-06
-2.97114e-06
1.43676e-05
1.56341e-05
-1.77016e-06
1.10927e-05
2.10508e-05
1.32259e-06
3.63202e-06
2.40516e-05
4.98668e-06
-2.35648e-06
2.10553e-05
5.05948e-06
-4.922e-06
1.65124e-05
2.08128e-06
-4.17812e-06
1.57539e-05
-2.90534e-06
-1.39761e-06
1.49692e-05
-5.75947e-06
1.38104e-05
-3.83923e-06
-3.67106e-06
-3.56311e-06
2.74656e-08
-2.55882e-06
-4.95397e-06
-1.08757e-06
-2.74788e-06
-3.13073e-06
2.96316e-07
-2.06655e-06
-3.76931e-06
-2.58084e-07
-1.65497e-06
-2.44778e-06
8.1938e-08
-9.31345e-07
-2.10673e-06
-1.64761e-07
-4.1634e-07
-8.06955e-07
-1.26616e-07
-9.73168e-08
-2.12174e-08
-1.08972e-07
7.66269e-08
8.29318e-07
-8.61909e-08
-5.68663e-08
1.27148e-06
-1.13242e-08
-2.06582e-07
1.09215e-06
-8.12852e-08
-4.52007e-07
1.02185e-06
-9.112e-08
-6.38166e-07
8.13001e-07
-1.26096e-07
-6.90827e-07
5.58541e-07
-1.81856e-07
-6.38555e-07
3.94609e-07
-2.4587e-07
-5.35478e-07
3.40449e-07
-2.95529e-07
-4.46711e-07
4.2232e-07
-3.20147e-07
-3.80872e-07
4.98414e-07
-3.41148e-07
-3.27861e-07
5.63866e-07
-3.58977e-07
-2.76992e-07
6.12088e-07
-3.72968e-07
-2.28749e-07
6.55378e-07
-3.79265e-07
-1.8368e-07
6.91989e-07
-3.79591e-07
-1.43502e-07
7.26133e-07
-3.7526e-07
-1.10649e-07
7.58761e-07
-3.67289e-07
-8.70248e-08
7.88857e-07
-3.57016e-07
-7.23015e-08
8.1354e-07
-3.4553e-07
-6.52638e-08
8.33523e-07
-3.33391e-07
-6.41782e-08
8.48044e-07
-3.21598e-07
-6.59768e-08
8.55913e-07
-3.10574e-07
-6.83695e-08
8.6044e-07
-3.00307e-07
-7.10114e-08
8.65795e-07
-2.91486e-07
-7.45084e-08
8.73834e-07
-2.83653e-07
-7.91079e-08
8.80878e-07
-2.76866e-07
-8.62175e-08
8.90102e-07
-2.70236e-07
-9.71816e-08
8.96505e-07
-2.63566e-07
-1.11036e-07
9.03873e-07
-2.57506e-07
-1.26197e-07
9.00484e-07
-2.52554e-07
-1.38481e-07
8.9564e-07
-2.48221e-07
-1.47493e-07
8.72439e-07
-2.45804e-07
-1.50535e-07
8.54453e-07
-2.41351e-07
-1.62466e-07
8.24228e-07
-2.38309e-07
-1.82534e-07
8.0305e-07
-2.25919e-07
-2.4572e-07
7.74471e-07
-2.20743e-07
-3.03944e-07
7.26364e-07
-2.10898e-07
-3.82009e-07
6.71838e-07
-2.42732e-07
-3.07899e-07
4.79232e-07
-2.87424e-07
5.28837e-09
3.23448e-07
-5.15336e-07
7.37582e-07
-1.73586e-07
-6.55748e-07
1.47472e-06
1.77484e-08
-7.93569e-07
2.3017e-06
-3.39273e-08
-6.39812e-07
1.62459e-06
8.45763e-07
1.35513e-07
1.18031e-06
-4.40781e-07
1.66732e-07
5.88137e-07
4.81241e-07
-6.25984e-07
-6.41938e-07
6.02791e-07
-1.32429e-06
-5.30677e-06
5.42851e-06
-1.39926e-06
-5.39437e-06
2.986e-06
-4.38825e-06
2.5182e-06
-1.65738e-06
-6.97038e-06
2.47731e-05
-1.14729e-05
-1.04216e-05
-9.65338e-08
-5.4812e-06
1.73817e-05
-6.73959e-05
3.02733e-06
3.51822e-06
-0.000136572
5.4174e-06
1.18936e-05
-0.000141233
2.57348e-06
5.71611e-06
-0.000136985
1.33395e-06
4.51554e-06
-0.000133717
-1.07564e-06
2.01791e-06
-0.000145087
-3.24976e-06
7.58683e-07
-0.000154527
-4.77695e-06
3.54163e-07
-0.000151466
-5.84807e-06
2.0152e-07
-0.000154074
-7.0528e-06
1.84455e-07
-0.000157344
-8.24278e-06
1.72677e-07
-0.000157933
-9.87833e-06
9.41506e-08
-0.00015972
-1.16643e-05
-1.1357e-07
-0.00016001
-1.29922e-05
-1.4181e-07
-0.000159956
-1.54172e-05
-5.42226e-08
-0.000160222
-1.75893e-05
1.93322e-07
-0.000160384
-2.00667e-05
4.03657e-07
-0.000159283
-2.20059e-05
5.06227e-07
-0.00015772
-2.36235e-05
5.66532e-07
-0.0001556
-2.52043e-05
5.69108e-07
-0.000152724
-2.57117e-05
3.43918e-07
-0.000150222
-2.52592e-05
-2.94046e-08
-0.000144423
-2.35423e-05
-4.4996e-07
-0.000141616
-2.12603e-05
-7.36464e-07
-0.000134354
-1.66526e-05
-1.06335e-06
-0.000110056
-1.23184e-05
-1.47175e-06
-5.33739e-05
-7.2694e-06
-2.13861e-06
-8.10538e-06
-3.84252e-06
-2.86242e-06
-4.97402e-06
2.60866e-06
-2.47827e-06
-3.2183e-06
7.25491e-06
-1.17892e-06
-3.48918e-06
1.34844e-05
1.62337e-06
-5.7316e-06
1.76301e-05
3.85709e-06
-6.51914e-06
2.01182e-05
5.92222e-06
-6.23869e-06
1.69557e-05
3.86711e-06
-6.05168e-06
1.67854e-05
2.227e-07
-3.89143e-06
1.80115e-05
-3.8838e-06
-1.09847e-06
1.87096e-05
-6.00909e-06
1.77632e-05
-3.24949e-06
-4.06868e-06
-2.8893e-06
2.90726e-07
-3.01417e-06
-4.80987e-06
-1.19861e-06
-3.26301e-06
-3.04632e-06
1.64427e-07
-2.39816e-06
-3.97106e-06
-6.63112e-07
-1.97162e-06
-2.86931e-06
-5.00447e-09
-1.10037e-06
-2.61807e-06
-3.59915e-07
-5.20857e-07
-1.12479e-06
-2.61667e-07
-2.70109e-07
-1.19013e-07
-1.52942e-07
-4.34424e-08
7.10365e-07
-1.07697e-07
-2.21882e-09
1.23342e-06
-3.15315e-09
-2.80669e-08
1.16764e-06
-4.96293e-08
-2.48585e-07
1.26146e-06
-1.90752e-08
-4.41114e-07
1.05987e-06
-5.43215e-08
-5.19695e-07
7.60961e-07
-1.23821e-07
-5.03385e-07
5.90994e-07
-2.12674e-07
-4.28485e-07
5.46646e-07
-2.81078e-07
-3.56453e-07
6.58649e-07
-3.08341e-07
-3.12357e-07
7.75248e-07
-3.20912e-07
-2.89677e-07
8.69523e-07
-3.28318e-07
-2.73611e-07
9.31799e-07
-3.35759e-07
-2.60502e-07
9.80246e-07
-3.37959e-07
-2.46555e-07
1.01428e-06
-3.36223e-07
-2.31498e-07
1.04141e-06
-3.30317e-07
-2.17928e-07
1.0659e-06
-3.2069e-07
-2.0861e-07
1.08701e-06
-3.0746e-07
-2.02295e-07
1.10134e-06
-2.94095e-07
-2.00347e-07
1.11217e-06
-2.8058e-07
-2.02267e-07
1.1181e-06
-2.6812e-07
-2.052e-07
1.11694e-06
-2.58087e-07
-2.06161e-07
1.11167e-06
-2.50262e-07
-2.06252e-07
1.10926e-06
-2.43367e-07
-2.07582e-07
1.11176e-06
-2.36587e-07
-2.1231e-07
1.11572e-06
-2.30105e-07
-2.22593e-07
1.12368e-06
-2.23283e-07
-2.39048e-07
1.12987e-06
-2.16899e-07
-2.57928e-07
1.13436e-06
-2.116e-07
-2.77774e-07
1.1276e-06
-2.07262e-07
-2.92674e-07
1.11529e-06
-2.04748e-07
-3.06037e-07
1.08818e-06
-2.02375e-07
-3.10061e-07
1.05902e-06
-2.00537e-07
-3.30156e-07
1.03966e-06
-1.95335e-07
-3.4482e-07
1.00767e-06
-1.89956e-07
-4.01578e-07
1.02013e-06
-1.88899e-07
-4.18501e-07
9.41591e-07
-1.98301e-07
-4.20095e-07
9.32315e-07
-2.58877e-07
-2.76401e-07
6.4692e-07
-3.11377e-07
1.09933e-07
5.11168e-07
-5.74047e-07
7.02187e-07
-8.53852e-08
-6.80453e-07
1.1969e-06
3.27213e-07
-8.04175e-07
1.5029e-06
2.4124e-07
-5.81159e-07
6.22176e-07
1.66124e-06
6.52499e-08
-1.01699e-06
8.40368e-07
3.58016e-07
-5.65805e-07
1.48119e-06
-1.45113e-06
1.30137e-07
1.51038e-06
-1.60354e-06
1.13189e-06
5.58907e-06
-1.16238e-06
4.1049e-06
4.37405e-06
-4.36107e-06
6.87737e-06
1.37521e-06
-5.80514e-06
2.56181e-05
-2.08146e-05
-9.39897e-06
2.4245e-08
-2.11098e-06
1.68951e-05
-7.00229e-05
1.00222e-05
3.23906e-06
-0.000141606
1.67307e-05
1.10132e-05
-0.000137512
6.56656e-06
5.03246e-06
-0.000140219
5.26225e-06
3.54329e-06
-0.000146405
4.87469e-07
8.73735e-07
-0.000146273
-2.01817e-06
-6.53889e-07
-0.000154785
-4.06085e-06
-7.65632e-07
-0.000157166
-5.09161e-06
-1.08485e-06
-0.000156663
-6.26171e-06
-1.0438e-06
-0.000158353
-6.78019e-06
-9.11495e-07
-0.00016165
-8.29186e-06
-9.20411e-07
-0.000162998
-9.598e-06
-1.0834e-06
-0.000162733
-1.12844e-05
-9.93845e-07
-0.000164818
-1.35682e-05
-4.36225e-07
-0.000167364
-1.60683e-05
4.27478e-07
-0.000170237
-1.91331e-05
6.87686e-07
-0.000170124
-2.18763e-05
8.79166e-07
-0.000171563
-2.4394e-05
9.10038e-07
-0.000174043
-2.61861e-05
9.20991e-07
-0.000174002
-2.70122e-05
7.75229e-07
-0.000171842
-2.73271e-05
3.11413e-07
-0.000153347
-2.64952e-05
-2.16768e-07
-0.00015224
-2.50783e-05
-7.17383e-07
-0.00016535
-2.1679e-05
-1.17983e-06
-0.000156046
-1.76567e-05
-9.12663e-07
-0.00014079
-1.24144e-05
-6.87208e-07
-0.000128667
-6.84024e-06
-3.44017e-07
-0.000108951
6.96623e-08
7.28236e-07
-9.09714e-05
4.53822e-06
1.64725e-06
-8.3274e-05
1.04001e-05
2.53806e-06
-4.51442e-05
1.40939e-05
2.67509e-06
-6.82009e-05
1.50463e-05
2.1185e-06
-0.000125237
1.66951e-05
-8.74196e-07
-0.000121587
1.85145e-05
-3.56139e-06
-0.000118065
2.02513e-05
-4.91058e-06
-0.000120175
2.13758e-05
-4.92117e-06
2.10605e-05
-2.55296e-06
-4.31409e-06
-1.82899e-06
7.61366e-07
-3.50235e-06
-4.51396e-06
-1.10766e-06
-3.87467e-06
-2.88762e-06
2.13614e-07
-2.81052e-06
-3.97341e-06
-1.0618e-06
-2.28199e-06
-3.28135e-06
-1.16479e-07
-1.24923e-06
-3.21378e-06
-4.37048e-07
-5.79459e-07
-1.57636e-06
-2.18189e-07
-4.30538e-07
-2.60661e-07
-7.25725e-09
-3.02518e-07
6.42637e-07
-6.02779e-08
-1.24134e-07
1.02694e-06
2.81185e-08
4.47012e-08
1.06199e-06
-6.31702e-08
4.15281e-08
1.31581e-06
-5.11615e-08
-2.81489e-09
1.24038e-06
-1.36143e-07
-6.47903e-08
1.03858e-06
-2.15624e-07
-1.32421e-07
9.66995e-07
-3.08351e-07
-1.98639e-07
1.00006e-06
-3.87179e-07
-2.4793e-07
1.14155e-06
-4.33586e-07
-2.9225e-07
1.28017e-06
-4.60584e-07
-3.3592e-07
1.38883e-06
-4.75623e-07
-3.62287e-07
1.44367e-06
-4.85484e-07
-3.76692e-07
1.48444e-06
-4.89772e-07
-3.82696e-07
1.51126e-06
-4.90962e-07
-3.82697e-07
1.53069e-06
-4.8926e-07
-3.79195e-07
1.54761e-06
-4.85203e-07
-3.75175e-07
1.56209e-06
-4.79084e-07
-3.72972e-07
1.57242e-06
-4.73272e-07
-3.72049e-07
1.5785e-06
-4.67244e-07
-3.70725e-07
1.57912e-06
-4.62331e-07
-3.6685e-07
1.57215e-06
-4.59065e-07
-3.61267e-07
1.56342e-06
-4.57317e-07
-3.59149e-07
1.5628e-06
-4.55649e-07
-3.61671e-07
1.56802e-06
-4.5373e-07
-3.69705e-07
1.57567e-06
-4.51904e-07
-3.84993e-07
1.58794e-06
-4.48967e-07
-4.06989e-07
1.59815e-06
-4.46279e-07
-4.29963e-07
1.60318e-06
-4.45839e-07
-4.50658e-07
1.59554e-06
-4.47243e-07
-4.65213e-07
1.58045e-06
-4.50597e-07
-4.77769e-07
1.5549e-06
-4.54158e-07
-4.77134e-07
1.5193e-06
-4.60912e-07
-4.96955e-07
1.51959e-06
-4.60097e-07
-4.98904e-07
1.47879e-06
-4.69161e-07
-5.35422e-07
1.53117e-06
-4.74515e-07
-5.03088e-07
1.41601e-06
-5.06745e-07
-4.07355e-07
1.42567e-06
-5.89081e-07
-1.7611e-07
1.07101e-06
-6.55328e-07
3.19607e-07
9.59602e-07
-9.44146e-07
8.45857e-07
4.25179e-07
-1.03681e-06
1.06629e-06
1.22159e-06
-1.1148e-06
7.73618e-07
1.23994e-06
-7.06019e-07
-4.53338e-07
2.71116e-06
1.77039e-07
-2.21928e-06
2.47433e-06
1.31984e-07
-1.22361e-06
2.79211e-06
-2.3066e-06
2.49553e-06
1.03479e-06
-3.24355e-06
4.47214e-06
6.09465e-06
-2.48227e-06
9.61099e-06
5.19339e-06
-5.95821e-06
1.18061e-05
6.91428e-06
-7.73448e-06
2.74103e-05
-2.39162e-05
-1.25025e-05
2.06284e-06
-2.17776e-06
1.99328e-05
-7.53255e-05
1.92509e-05
3.22635e-06
-0.000161369
2.68944e-05
1.14223e-05
-0.000165474
8.19346e-06
5.00358e-06
-0.000170704
8.55502e-06
3.05341e-06
-0.000172697
-6.50872e-09
6.57118e-08
-0.000171348
-1.49816e-06
-1.43767e-06
-0.000170222
-3.91453e-06
-1.6004e-06
-0.000169206
-3.9969e-06
-1.83679e-06
-0.00016854
-4.60209e-06
-2.2008e-06
-0.000168384
-4.44169e-06
-2.58432e-06
-0.000168721
-4.67986e-06
-2.83871e-06
-0.000169633
-5.25637e-06
-2.71519e-06
-0.000171896
-6.37543e-06
-2.15437e-06
-0.000175667
-7.69547e-06
-1.54613e-06
-0.000180646
-9.58494e-06
-1.03508e-06
-0.000186712
-1.18064e-05
-1.20104e-06
-0.0001933
-1.45827e-05
-1.37641e-06
-0.000199949
-1.79839e-05
-1.02609e-06
-0.00020442
-2.08175e-05
-2.25308e-07
-0.000207683
-2.22081e-05
-1.76926e-07
-0.000211461
-2.28153e-05
-9.97648e-07
-0.000214749
-2.22833e-05
-1.72452e-06
-0.000215403
-2.13845e-05
-2.43051e-06
-0.000213551
-1.96261e-05
-2.9022e-06
-0.000214275
-1.6187e-05
-3.44482e-06
-0.000213832
-1.22488e-05
-3.23649e-06
-0.000208938
-8.49708e-06
-2.82972e-06
-0.000202999
-3.56405e-06
-2.19365e-06
-0.000199439
2.96801e-06
-1.41539e-06
-0.000188053
7.32463e-06
-1.09399e-06
-0.000183122
1.13563e-05
-1.33224e-06
-0.0001879
1.42342e-05
-2.36403e-06
-0.000184745
1.66771e-05
-3.82637e-06
-0.000180617
1.88086e-05
-4.89762e-06
-0.000174546
1.96787e-05
-5.30259e-06
-0.000166926
1.87727e-05
-4.36022e-06
1.65341e-05
-8.54803e-07
-4.0382e-06
-1.20018e-07
2.46152e-06
-3.67377e-06
-4.51372e-06
-3.64665e-07
-4.37378e-06
-2.58111e-06
3.93505e-07
-3.24946e-06
-3.90394e-06
-1.19379e-06
-2.65679e-06
-3.50365e-06
-3.70374e-07
-1.48993e-06
-3.60067e-06
-7.79956e-07
-6.15224e-07
-2.17227e-06
-2.78787e-07
-3.74262e-07
-6.81225e-07
1.79617e-07
-3.16234e-07
5.01694e-07
8.29325e-08
-1.40885e-07
7.02526e-07