/*--------------------------------*- C++ -*----------------------------------*\
| =========                 |                                                 |
| \\      /  F ield         | OpenFOAM: The Open Source CFD Toolbox           |
|  \\    /   O peration     | Version:  2.3.0                                 |
|   \\  /    A nd           | Web:      www.OpenFOAM.org                      |
|    \\/     M anipulation  |                                                 |
\*---------------------------------------------------------------------------*/
FoamFile
{
    version     2.0;
    format      ascii;
    class       volScalarField;
    location    "34";
    object      rho;
}
// * * * * * * * * * * * * * * * * * * * * * * * * * * * * * * * * * * * * * //

dimensions      [1 -3 0 0 0 0 0];

internalField   nonuniform List<scalar> 
6144
(
1.16394
1.16468
1.16512
1.16555
1.166
1.16661
1.16735
1.16834
1.16882
1.16888
1.16889
1.16889
1.1689
1.1689
1.1689
1.1689
1.16891
1.16891
1.16891
1.16891
1.16891
1.16891
1.16892
1.16892
1.16892
1.16892
1.16892
1.16892
1.16892
1.16893
1.16893
1.16893
1.16893
1.16893
1.16893
1.16894
1.16893
1.16894
1.16894
1.16894
1.16894
1.16894
1.16894
1.16895
1.16894
1.16895
1.16895
1.169
1.17011
1.17494
1.18196
1.19134
1.20337
1.22354
1.24466
1.29708
1.32121
1.37764
2.17161
74.763
999.687
1027.02
1027.09
1027.1
1027.1
1027.1
1027.1
1027.1
1027.1
1027.1
1027.1
1027.1
1027.1
1027.1
1027.1
1027.1
1027.1
1027.1
1027.1
1027.1
1027.1
1027.1
1027.1
1027.1
1027.1
1027.1
1027.1
1027.1
1027.1
1027.1
1027.1
1027.1
1027.1
1027.1
1027.1
1027.1
1.16342
1.16442
1.16527
1.16579
1.1664
1.16696
1.16761
1.16844
1.16884
1.16888
1.16889
1.16889
1.1689
1.16891
1.16891
1.16891
1.16891
1.16891
1.16891
1.16892
1.16892
1.16892
1.16892
1.16892
1.16892
1.16893
1.16893
1.16893
1.16893
1.16893
1.16893
1.16894
1.16894
1.16894
1.16894
1.16894
1.16894
1.16895
1.16895
1.16895
1.16895
1.16896
1.16895
1.16896
1.16895
1.16897
1.16896
1.16902
1.16934
1.17222
1.17973
1.19345
1.21011
1.23291
1.25056
1.27495
1.33667
1.45205
1.5101
122.508
1010.78
1027.09
1027.09
1027.1
1027.1
1027.1
1027.1
1027.1
1027.1
1027.1
1027.1
1027.1
1027.1
1027.1
1027.1
1027.1
1027.1
1027.1
1027.1
1027.1
1027.1
1027.1
1027.1
1027.1
1027.1
1027.1
1027.1
1027.1
1027.1
1027.1
1027.1
1027.1
1027.1
1027.1
1027.1
1027.1
1.16305
1.16399
1.16499
1.16562
1.16645
1.16702
1.16765
1.16831
1.16872
1.16881
1.16883
1.16887
1.16889
1.1689
1.16891
1.16891
1.16891
1.16891
1.16892
1.16892
1.16892
1.16892
1.16892
1.16892
1.16892
1.16893
1.16893
1.16893
1.16893
1.16893
1.16893
1.16894
1.16894
1.16894
1.16894
1.16894
1.16894
1.16895
1.16895
1.16895
1.16895
1.16896
1.16895
1.16896
1.16895
1.16897
1.16895
1.16903
1.16919
1.17062
1.17732
1.19596
1.21287
1.23841
1.26766
1.28534
1.30907
1.42154
1.23885
185.28
1025.09
1027.01
1027.04
1027.06
1027.07
1027.07
1027.07
1027.07
1027.08
1027.09
1027.09
1027.09
1027.09
1027.1
1027.1
1027.1
1027.1
1027.1
1027.1
1027.1
1027.1
1027.1
1027.1
1027.1
1027.1
1027.1
1027.1
1027.1
1027.1
1027.1
1027.1
1027.1
1027.1
1027.1
1027.1
1027.1
1.16278
1.16354
1.16461
1.16523
1.16607
1.16667
1.16739
1.16813
1.16864
1.16876
1.1688
1.16885
1.16889
1.1689
1.16891
1.16891
1.16891
1.16891
1.16891
1.16891
1.16892
1.16892
1.16892
1.16892
1.16892
1.16892
1.16892
1.16893
1.16893
1.16893
1.16893
1.16893
1.16893
1.16894
1.16894
1.16894
1.16894
1.16894
1.16894
1.16895
1.16895
1.16895
1.16895
1.16896
1.16895
1.16897
1.16895
1.16903
1.16917
1.17044
1.17583
1.19701
1.21522
1.24679
1.28319
1.29629
1.30838
1.34869
1.16897
266.144
1022.79
1025.67
1025.93
1026.12
1026.1
1025.87
1025.84
1026.13
1026.42
1026.64
1026.74
1026.77
1026.8
1026.91
1027.02
1027.06
1027.08
1027.09
1027.1
1027.1
1027.1
1027.1
1027.1
1027.1
1027.1
1027.1
1027.1
1027.1
1027.1
1027.1
1027.1
1027.1
1027.1
1027.1
1027.1
1027.1
1.16257
1.16313
1.16421
1.16483
1.16573
1.16637
1.16717
1.16788
1.16855
1.16874
1.1688
1.16886
1.16889
1.1689
1.16891
1.16891
1.16891
1.16891
1.16892
1.16892
1.16892
1.16892
1.16892
1.16892
1.16893
1.16893
1.16893
1.16893
1.16893
1.16893
1.16893
1.16893
1.16894
1.16894
1.16894
1.16894
1.16894
1.16895
1.16894
1.16895
1.16895
1.16895
1.16895
1.16896
1.16895
1.16897
1.16895
1.16902
1.16925
1.17057
1.17604
1.1978
1.22231
1.26369
1.29629
1.30151
1.29446
1.30804
1.16897
340.982
1016.05
1021.18
1021.3
1021.2
1020.58
1019.51
1019.27
1020.19
1022.06
1022.79
1023.05
1023.23
1023.17
1023.94
1025.11
1025.57
1025.99
1026.49
1026.87
1027.03
1027.08
1027.09
1027.1
1027.1
1027.1
1027.1
1027.1
1027.1
1027.1
1027.1
1027.1
1027.1
1027.1
1027.1
1027.1
1027.1
1.16244
1.16284
1.1638
1.16437
1.16529
1.16597
1.16685
1.16758
1.16842
1.16872
1.16878
1.16885
1.16888
1.1689
1.1689
1.1689
1.16891
1.16891
1.16891
1.16891
1.16891
1.16892
1.16892
1.16892
1.16892
1.16892
1.16892
1.16893
1.16893
1.16893
1.16893
1.16893
1.16893
1.16893
1.16894
1.16894
1.16894
1.16894
1.16894
1.16895
1.16894
1.16895
1.16895
1.16896
1.16895
1.16897
1.16895
1.16907
1.16943
1.17096
1.17684
1.19537
1.21984
1.26401
1.30302
1.31989
1.31668
1.32537
1.16897
359.735
1009.21
1015.48
1015.73
1015.43
1014.17
1012.12
1011.59
1011.68
1012.88
1013.08
1013.43
1014.94
1015.56
1015.95
1016.33
1016.77
1018.16
1020.96
1023.4
1024.95
1025.96
1026.58
1026.92
1027.05
1027.09
1027.1
1027.1
1027.1
1027.1
1027.1
1027.1
1027.1
1027.1
1027.1
1027.1
1027.1
1.16237
1.16264
1.1634
1.1639
1.16482
1.16553
1.16651
1.1673
1.16817
1.16867
1.16876
1.16885
1.16889
1.1689
1.16891
1.16891
1.16891
1.16891
1.16891
1.16892
1.16892
1.16892
1.16892
1.16892
1.16892
1.16892
1.16892
1.16893
1.16893
1.16893
1.16893
1.16893
1.16893
1.16894
1.16894
1.16894
1.16894
1.16894
1.16894
1.16895
1.16894
1.16895
1.16895
1.16896
1.16895
1.16897
1.16896
1.16913
1.16961
1.17159
1.17899
1.19517
1.21262
1.23231
1.27402
1.31643
1.31798
1.35787
1.16897
343.051
1003.27
1011.31
1011.29
1012.52
1011.65
1006.46
1005.79
1008.84
1009.93
1010.04
1010.62
1010.57
1009
1007.49
1007.03
1007.15
1008.68
1011.31
1013.49
1015.38
1017.49
1019.48
1021.61
1023.69
1025.34
1026.45
1027
1027.09
1027.08
1027.1
1027.1
1027.07
1027.03
1027
1026.99
1027.06
1.16231
1.16254
1.16303
1.16346
1.16438
1.16513
1.16626
1.1672
1.16794
1.16856
1.1687
1.16883
1.16888
1.1689
1.16891
1.16891
1.16891
1.16891
1.16891
1.16892
1.16892
1.16892
1.16892
1.16892
1.16892
1.16893
1.16893
1.16893
1.16893
1.16893
1.16893
1.16894
1.16894
1.16894
1.16894
1.16894
1.16894
1.16895
1.16895
1.16895
1.16895
1.16896
1.16895
1.16896
1.16896
1.16897
1.16896
1.16912
1.16968
1.17298
1.1824
1.19358
1.20522
1.21576
1.23686
1.30468
1.33075
1.42683
1.16897
301.86
1002.2
1011.93
1012.07
1012.4
1012.71
1012.76
1012.49
1011.92
1011.69
1011.73
1011.88
1011.58
1008.86
1005.94
1005.2
1005.55
1006.93
1007.38
1007.31
1007.25
1007.6
1007.75
1007.91
1008.48
1009.25
1010.15
1011.04
1011.72
1011.91
1011.45
1011.01
1010.98
1011.77
1013.9
1017.46
1021.77
1.16223
1.16251
1.1627
1.16304
1.16397
1.16473
1.16597
1.16714
1.16778
1.16841
1.16862
1.16879
1.16887
1.1689
1.1689
1.1689
1.16891
1.16891
1.16891
1.16891
1.16891
1.16892
1.16892
1.16892
1.16892
1.16892
1.16892
1.16893
1.16893
1.16893
1.16893
1.16893
1.16893
1.16894
1.16894
1.16894
1.16894
1.16894
1.16894
1.16895
1.16895
1.16895
1.16895
1.16896
1.16896
1.16897
1.16896
1.16915
1.1699
1.17413
1.18315
1.19136
1.2018
1.22336
1.23581
1.27916
1.29586
1.50043
1.27952
184.947
1009.83
1022.41
1022.93
1023.79
1023.82
1023.8
1023.94
1023.55
1022.58
1022.28
1022.5
1022.09
1020.17
1019.73
1019.85
1020.19
1020.23
1017.89
1015.36
1014.85
1014.76
1013.94
1012.71
1012.08
1011.96
1012.59
1012.66
1013.3
1014.44
1015.54
1017.07
1018.87
1021.12
1023.41
1025.44
1026.62
1.16216
1.16235
1.16244
1.16263
1.1635
1.16429
1.16565
1.16697
1.16772
1.16829
1.16858
1.16876
1.16885
1.16889
1.1689
1.16891
1.16891
1.16891
1.16891
1.16892
1.16892
1.16892
1.16892
1.16892
1.16892
1.16892
1.16893
1.16893
1.16893
1.16893
1.16893
1.16893
1.16894
1.16894
1.16894
1.16894
1.16894
1.16894
1.16894
1.16895
1.16895
1.16895
1.16895
1.16896
1.16896
1.16898
1.16897
1.16924
1.17032
1.17476
1.18272
1.18983
1.20765
1.23446
1.24589
1.2948
1.29485
1.60554
1.38093
96.2033
1011.2
1026.6
1026.65
1026.73
1026.71
1026.71
1026.69
1026.6
1026.39
1026.26
1026.24
1026.28
1026.34
1026.42
1026.43
1026.26
1026.01
1025.82
1025.65
1025.31
1024.69
1024.27
1024.11
1024.05
1024.19
1024.15
1023.65
1023.26
1023.42
1024.73
1025.54
1026.13
1026.62
1026.95
1027.07
1027.1
1.1619
1.16206
1.1622
1.16223
1.163
1.16378
1.16534
1.16683
1.16781
1.16833
1.16859
1.16874
1.16882
1.16887
1.16889
1.1689
1.16891
1.16891
1.16891
1.16891
1.16892
1.16892
1.16892
1.16892
1.16892
1.16892
1.16893
1.16893
1.16893
1.16893
1.16893
1.16893
1.16894
1.16894
1.16894
1.16894
1.16894
1.16894
1.16894
1.16895
1.16895
1.16895
1.16895
1.16896
1.16896
1.16898
1.16899
1.16933
1.17057
1.17482
1.18137
1.18762
1.20547
1.23974
1.2796
1.30222
1.30287
1.70146
1.41178
60.9535
1009.59
1027.08
1027.09
1027.09
1027.09
1027.09
1027.09
1027.08
1027.08
1027.07
1027.07
1027.07
1027.07
1027.07
1027.08
1027.08
1027.07
1027.07
1027.06
1027.05
1027.03
1027.02
1027.01
1027.01
1027.01
1027.01
1027.02
1027.01
1027.01
1027.05
1027.08
1027.09
1027.1
1027.1
1027.1
1027.1
1.16128
1.16167
1.16182
1.16189
1.16252
1.16322
1.16512
1.16674
1.16784
1.16836
1.16861
1.16875
1.16882
1.16888
1.1689
1.16891
1.16891
1.16891
1.16891
1.16891
1.16892
1.16892
1.16892
1.16892
1.16892
1.16893
1.16893
1.16893
1.16893
1.16893
1.16893
1.16894
1.16894
1.16894
1.16894
1.16894
1.16895
1.16895
1.16895
1.16895
1.16895
1.16896
1.16896
1.16896
1.16896
1.16898
1.16899
1.16928
1.17029
1.17348
1.17918
1.18573
1.19999
1.2302
1.26219
1.29925
1.32641
1.77881
1.47347
40.7524
1002.25
1027.08
1027.1
1027.1
1027.1
1027.1
1027.1
1027.1
1027.1
1027.1
1027.1
1027.1
1027.1
1027.1
1027.1
1027.1
1027.1
1027.1
1027.1
1027.1
1027.1
1027.1
1027.1
1027.1
1027.1
1027.1
1027.1
1027.1
1027.1
1027.1
1027.1
1027.1
1027.1
1027.1
1027.1
1027.1
1.16081
1.16128
1.16132
1.16148
1.16208
1.16286
1.16504
1.1667
1.16771
1.16836
1.16864
1.16881
1.16886
1.1689
1.16892
1.16892
1.16892
1.16891
1.16892
1.16892
1.16892
1.16892
1.16892
1.16892
1.16893
1.16893
1.16893
1.16893
1.16893
1.16893
1.16894
1.16894
1.16894
1.16894
1.16894
1.16895
1.16895
1.16895
1.16895
1.16895
1.16895
1.16896
1.16896
1.16897
1.16896
1.16898
1.16898
1.16917
1.16971
1.17142
1.1761
1.18369
1.1946
1.21856
1.23866
1.27927
1.34676
1.88005
1.63249
38.7669
1001.15
1027.09
1027.1
1027.1
1027.1
1027.1
1027.1
1027.1
1027.1
1027.1
1027.1
1027.1
1027.1
1027.1
1027.1
1027.1
1027.1
1027.1
1027.1
1027.1
1027.1
1027.1
1027.1
1027.1
1027.1
1027.1
1027.1
1027.1
1027.1
1027.1
1027.1
1027.1
1027.1
1027.1
1027.1
1027.1
1.16054
1.16082
1.16087
1.16098
1.1616
1.16259
1.16485
1.16678
1.16767
1.16834
1.16868
1.16882
1.16887
1.16891
1.16892
1.16892
1.16892
1.16892
1.16892
1.16892
1.16892
1.16893
1.16893
1.16893
1.16893
1.16893
1.16893
1.16893
1.16894
1.16894
1.16894
1.16894
1.16894
1.16894
1.16894
1.16895
1.16895
1.16895
1.16895
1.16895
1.16895
1.16896
1.16896
1.16897
1.16896
1.16898
1.16897
1.16909
1.16934
1.17015
1.17323
1.1821
1.19517
1.2168
1.22901
1.25208
1.43409
1.99911
1.76434
36.7006
1001.22
1027.08
1027.1
1027.1
1027.1
1027.1
1027.1
1027.1
1027.1
1027.1
1027.1
1027.1
1027.1
1027.1
1027.1
1027.1
1027.1
1027.1
1027.1
1027.1
1027.1
1027.1
1027.1
1027.1
1027.1
1027.1
1027.1
1027.1
1027.1
1027.1
1027.1
1027.1
1027.1
1027.1
1027.1
1027.1
1.16037
1.16065
1.16078
1.16078
1.16136
1.16214
1.16393
1.16701
1.16785
1.16838
1.16867
1.1688
1.16886
1.1689
1.16891
1.16892
1.16892
1.16892
1.16892
1.16892
1.16892
1.16892
1.16893
1.16893
1.16893
1.16893
1.16893
1.16893
1.16893
1.16894
1.16894
1.16894
1.16894
1.16894
1.16894
1.16895
1.16895
1.16895
1.16895
1.16895
1.16895
1.16896
1.16896
1.16897
1.16896
1.16897
1.16896
1.16903
1.16914
1.16952
1.1708
1.17982
1.19558
1.2188
1.23148
1.25199
1.59676
2.11523
2.30363
34.5113
986.016
1027
1027.1
1027.1
1027.1
1027.1
1027.1
1027.1
1027.1
1027.1
1027.1
1027.1
1027.1
1027.1
1027.1
1027.1
1027.1
1027.1
1027.1
1027.1
1027.1
1027.1
1027.1
1027.1
1027.1
1027.1
1027.1
1027.1
1027.1
1027.1
1027.1
1027.1
1027.1
1027.1
1027.1
1027.1
1.1599
1.16021
1.16048
1.16079
1.16099
1.16113
1.16267
1.16668
1.16822
1.16861
1.16874
1.16881
1.16886
1.16891
1.16892
1.16892
1.16892
1.16892
1.16893
1.16893
1.16893
1.16893
1.16893
1.16893
1.16893
1.16894
1.16894
1.16894
1.16894
1.16894
1.16894
1.16895
1.16895
1.16895
1.16895
1.16895
1.16895
1.16896
1.16896
1.16896
1.16896
1.16896
1.16897
1.16897
1.16897
1.16897
1.16896
1.16901
1.16906
1.16937
1.17017
1.17655
1.1909
1.21695
1.2369
1.33642
1.39959
2.05674
1.97088
40.2215
979.373
1026.94
1027.1
1027.1
1027.1
1027.1
1027.1
1027.1
1027.1
1027.1
1027.1
1027.1
1027.1
1027.1
1027.1
1027.1
1027.1
1027.1
1027.1
1027.1
1027.1
1027.1
1027.1
1027.1
1027.1
1027.1
1027.1
1027.1
1027.1
1027.1
1027.1
1027.1
1027.1
1027.1
1027.1
1027.1
1.16338
1.16448
1.16507
1.16551
1.1659
1.16654
1.16766
1.1685
1.16872
1.16876
1.16882
1.16887
1.16891
1.16892
1.16892
1.16892
1.16892
1.16893
1.16893
1.16893
1.16893
1.16893
1.16893
1.16893
1.16893
1.16894
1.16894
1.16894
1.16894
1.16894
1.16895
1.16895
1.16895
1.16895
1.16895
1.16895
1.16896
1.16896
1.16896
1.16896
1.16896
1.16896
1.16897
1.16897
1.16897
1.16898
1.16897
1.16903
1.17
1.17514
1.18229
1.19129
1.20112
1.21938
1.23845
1.28856
1.30162
1.4895
3.81654
83.6301
989.295
1026.94
1027.09
1027.1
1027.1
1027.1
1027.1
1027.1
1027.1
1027.1
1027.1
1027.1
1027.1
1027.1
1027.1
1027.1
1027.1
1027.1
1027.1
1027.1
1027.1
1027.1
1027.1
1027.1
1027.1
1027.1
1027.1
1027.1
1027.1
1027.1
1027.1
1027.1
1027.1
1027.1
1027.1
1027.1
1.1626
1.16408
1.16535
1.16596
1.16666
1.16755
1.16794
1.16813
1.16835
1.1685
1.16866
1.16879
1.16887
1.16891
1.16892
1.16892
1.16892
1.16892
1.16893
1.16893
1.16893
1.16893
1.16893
1.16893
1.16894
1.16894
1.16894
1.16894
1.16894
1.16894
1.16894
1.16895
1.16895
1.16895
1.16895
1.16895
1.16895
1.16896
1.16896
1.16896
1.16896
1.16896
1.16897
1.16897
1.16897
1.16898
1.16897
1.16907
1.16934
1.17142
1.17967
1.192
1.206
1.22986
1.24476
1.26741
1.35194
1.55516
2.58729
120.116
998.861
1027.09
1027.09
1027.1
1027.1
1027.1
1027.1
1027.1
1027.1
1027.09
1027.1
1027.1
1027.1
1027.1
1027.1
1027.1
1027.1
1027.1
1027.1
1027.1
1027.1
1027.1
1027.1
1027.1
1027.1
1027.1
1027.1
1027.1
1027.1
1027.1
1027.1
1027.1
1027.1
1027.1
1027.1
1027.1
1.16217
1.16338
1.16485
1.16575
1.16653
1.16696
1.16731
1.16766
1.16807
1.16835
1.16857
1.16873
1.16884
1.1689
1.16891
1.16892
1.16892
1.16892
1.16892
1.16892
1.16893
1.16893
1.16893
1.16893
1.16893
1.16893
1.16894
1.16894
1.16894
1.16894
1.16894
1.16894
1.16894
1.16895
1.16895
1.16895
1.16895
1.16895
1.16895
1.16896
1.16896
1.16896
1.16896
1.16897
1.16896
1.16898
1.16897
1.16909
1.16948
1.17123
1.17878
1.19588
1.20898
1.23027
1.256
1.28059
1.40509
1.45654
1.38578
170.678
1025.67
1027.08
1027.08
1027.08
1027.08
1027.08
1027.08
1027.08
1027.08
1027.08
1027.08
1027.08
1027.08
1027.09
1027.1
1027.1
1027.1
1027.1
1027.1
1027.1
1027.1
1027.1
1027.1
1027.1
1027.1
1027.1
1027.1
1027.1
1027.1
1027.1
1027.1
1027.1
1027.1
1027.1
1027.1
1027.1
1.16189
1.16266
1.1641
1.16488
1.16569
1.16631
1.16681
1.16734
1.16792
1.16829
1.16853
1.16871
1.16883
1.16889
1.16891
1.16892
1.16892
1.16892
1.16892
1.16892
1.16892
1.16893
1.16893
1.16893
1.16893
1.16893
1.16893
1.16893
1.16894
1.16894
1.16894
1.16894
1.16894
1.16894
1.16895
1.16895
1.16895
1.16895
1.16895
1.16895
1.16895
1.16896
1.16896
1.16897
1.16896
1.16897
1.16897
1.16911
1.16969
1.17285
1.18288
1.20012
1.21103
1.22641
1.28152
1.30782
1.32689
1.28051
1.2024
202.175
1024.24
1026.35
1026.44
1026.51
1026.5
1026.44
1026.4
1026.4
1026.42
1026.4
1026.29
1026.21
1026.4
1026.8
1026.91
1026.98
1027.04
1027.08
1027.09
1027.1
1027.1
1027.1
1027.1
1027.1
1027.1
1027.1
1027.1
1027.1
1027.1
1027.1
1027.1
1027.1
1027.1
1027.1
1027.1
1027.1
1.16172
1.1621
1.16358
1.16436
1.1651
1.16589
1.1665
1.16715
1.16784
1.16827
1.16852
1.16871
1.16882
1.16889
1.16891
1.16892
1.16892
1.16892
1.16892
1.16892
1.16892
1.16892
1.16893
1.16893
1.16893
1.16893
1.16893
1.16893
1.16893
1.16894
1.16894
1.16894
1.16894
1.16894
1.16894
1.16895
1.16895
1.16895
1.16895
1.16895
1.16895
1.16896
1.16896
1.16896
1.16896
1.16897
1.16896
1.16908
1.16979
1.17406
1.18529
1.20169
1.22294
1.28153
1.31196
1.30922
1.30703
1.29628
1.20499
266.109
1015.51
1021.58
1021.8
1021.31
1019.52
1019.52
1020.71
1020.01
1019.54
1020.7
1020.48
1019.03
1019.77
1021.89
1022.55
1023.48
1024.78
1025.86
1026.53
1026.92
1027.06
1027.09
1027.1
1027.1
1027.1
1027.1
1027.1
1027.1
1027.1
1027.1
1027.1
1027.1
1027.1
1027.1
1027.1
1027.1
1.16162
1.16169
1.16313
1.16402
1.16469
1.1656
1.16632
1.16706
1.1678
1.16826
1.16852
1.16871
1.16882
1.16889
1.16891
1.16891
1.16892
1.16892
1.16892
1.16892
1.16892
1.16892
1.16892
1.16893
1.16893
1.16893
1.16893
1.16893
1.16893
1.16893
1.16894
1.16894
1.16894
1.16894
1.16894
1.16894
1.16895
1.16895
1.16895
1.16895
1.16895
1.16896
1.16896
1.16896
1.16896
1.16897
1.16896
1.16906
1.16965
1.17367
1.18424
1.19934
1.21909
1.29057
1.33948
1.34221
1.33114
1.31853
1.19437
298.108
1001.95
1011.08
1009.94
1008.19
1005.58
1004.14
1003.89
1004.25
1006.6
1009.88
1010.91
1008.79
1004.05
1002.9
1004.06
1005.75
1009.31
1013.09
1017.95
1022.3
1024.69
1026
1026.67
1026.98
1027.08
1027.1
1027.1
1027.1
1027.1
1027.1
1027.1
1027.1
1027.1
1027.1
1027.1
1027.1
1.16155
1.16145
1.16265
1.16367
1.16436
1.16535
1.16618
1.16702
1.1678
1.16826
1.16853
1.16871
1.16882
1.16889
1.16891
1.16891
1.16892
1.16892
1.16892
1.16892
1.16892
1.16892
1.16892
1.16893
1.16893
1.16893
1.16893
1.16893
1.16893
1.16893
1.16894
1.16894
1.16894
1.16894
1.16894
1.16894
1.16895
1.16895
1.16895
1.16895
1.16895
1.16896
1.16896
1.16896
1.16896
1.16897
1.16896
1.16905
1.16946
1.17271
1.18295
1.19756
1.21288
1.2411
1.30698
1.34227
1.33531
1.30527
1.18342
288.625
990.653
1003.34
1001.94
1001.29
1000.74
999.28
998.921
998.913
999.711
1004.88
1006.83
1003.69
991.788
988.201
987.894
987.044
986.914
989.153
994.542
1000.56
1004.98
1009.1
1013.33
1017.56
1021.85
1025.29
1026.57
1026.51
1026.48
1026.36
1026.17
1025.93
1025.47
1024.81
1024.1
1023.32
1.16152
1.16127
1.16212
1.16305
1.16407
1.16507
1.16602
1.16698
1.16782
1.16828
1.16854
1.16872
1.16882
1.16889
1.16891
1.16891
1.16892
1.16892
1.16892
1.16892
1.16892
1.16892
1.16892
1.16893
1.16893
1.16893
1.16893
1.16893
1.16893
1.16894
1.16894
1.16894
1.16894
1.16894
1.16894
1.16895
1.16895
1.16895
1.16895
1.16895
1.16895
1.16896
1.16896
1.16896
1.16896
1.16897
1.16896
1.16904
1.16935
1.17176
1.18067
1.19477
1.20899
1.22108
1.24571
1.34039
1.38141
1.40369
1.17694
242.56
991.683
1007.49
1007.39
1008.05
1008.07
1007.09
1006.63
1005.68
1004.75
1003.63
1000.76
998.449
997.43
996.312
993.421
988.067
984.1
981.927
981.244
981.153
979.039
975.913
972.814
969.459
965.904
962.277
958.548
955.083
950.652
944.303
935.601
923.866
906.344
879.296
826.166
620.679
1.16154
1.16113
1.16166
1.16238
1.16359
1.16469
1.16581
1.16692
1.16784
1.16831
1.16856
1.16873
1.16883
1.16889
1.16891
1.16892
1.16892
1.16892
1.16892
1.16892
1.16892
1.16892
1.16893
1.16893
1.16893
1.16893
1.16893
1.16893
1.16893
1.16894
1.16894
1.16894
1.16894
1.16894
1.16894
1.16895
1.16895
1.16895
1.16895
1.16895
1.16895
1.16896
1.16896
1.16897
1.16896
1.16897
1.16896
1.16904
1.16928
1.17102
1.17784
1.19081
1.20579
1.22808
1.24054
1.27585
1.31478
1.63524
1.21765
149.95
1003.8
1022.48
1023.12
1024.09
1024.33
1024.41
1024.14
1024
1023.83
1023.59
1022.95
1021.88
1020.88
1020.2
1019.62
1018.46
1015.48
1011.76
1009.71
1006.6
999.63
993.955
989.257
985.173
981.085
976.641
972.019
967.819
964.939
963.331
961.574
960.094
959.776
967.309
977.022
987.044
1.16145
1.16102
1.16126
1.16181
1.16289
1.16411
1.16545
1.16683
1.16787
1.16835
1.16858
1.16875
1.16884
1.1689
1.16891
1.16892
1.16892
1.16892
1.16892
1.16892
1.16892
1.16893
1.16893
1.16893
1.16893
1.16893
1.16893
1.16893
1.16894
1.16894
1.16894
1.16894
1.16894
1.16894
1.16895
1.16895
1.16895
1.16895
1.16895
1.16895
1.16895
1.16896
1.16896
1.16897
1.16896
1.16897
1.16896
1.16903
1.16921
1.17052
1.17542
1.18716
1.20409
1.22922
1.2415
1.28035
1.31641
1.70719
1.27395
85.6369
1011.27
1026.65
1026.67
1026.78
1026.8
1026.82
1026.83
1026.82
1026.73
1026.54
1026.44
1026.39
1026.35
1026.33
1026.3
1025.98
1025.31
1024.95
1024.73
1024.01
1022.64
1021.16
1019.28
1017.58
1016.74
1015.45
1013.99
1012.54
1011.78
1011.49
1014.41
1017.91
1020.86
1023.82
1025.7
1026.63
1.1613
1.16093
1.16092
1.16134
1.16206
1.16332
1.16485
1.1667
1.1679
1.16838
1.16861
1.16876
1.16885
1.1689
1.16891
1.16892
1.16892
1.16892
1.16892
1.16892
1.16892
1.16893
1.16893
1.16893
1.16893
1.16893
1.16893
1.16894
1.16894
1.16894
1.16894
1.16894
1.16894
1.16894
1.16895
1.16895
1.16895
1.16895
1.16895
1.16896
1.16896
1.16896
1.16896
1.16897
1.16896
1.16897
1.16896
1.16902
1.16912
1.16994
1.17333
1.18391
1.1999
1.22691
1.24487
1.28902
1.34868
1.76271
1.38856
45.5497
990.882
1027.09
1027.06
1027.08
1027.08
1027.08
1027.08
1027.08
1027.07
1027.07
1027.06
1027.05
1027.04
1027.04
1027.03
1027.02
1027.01
1027
1026.98
1026.96
1026.9
1026.83
1026.79
1026.77
1026.74
1026.71
1026.73
1026.76
1026.76
1026.81
1026.89
1027
1027.05
1027.09
1027.1
1027.1
1.16081
1.16065
1.16059
1.1609
1.16125
1.16205
1.16382
1.16656
1.16797
1.16844
1.16864
1.16879
1.16886
1.1689
1.16891
1.16892
1.16892
1.16892
1.16892
1.16892
1.16892
1.16893
1.16893
1.16893
1.16893
1.16893
1.16893
1.16894
1.16894
1.16894
1.16894
1.16894
1.16894
1.16894
1.16895
1.16895
1.16895
1.16895
1.16895
1.16896
1.16896
1.16896
1.16896
1.16897
1.16896
1.16897
1.16896
1.16901
1.16905
1.16958
1.17202
1.18156
1.19591
1.22486
1.23444
1.27619
1.38212
1.84227
2.04781
38.5298
986.391
1027.09
1027.09
1027.1
1027.1
1027.1
1027.1
1027.1
1027.1
1027.1
1027.1
1027.1
1027.1
1027.1
1027.1
1027.1
1027.1
1027.1
1027.1
1027.1
1027.1
1027.1
1027.1
1027.1
1027.1
1027.1
1027.1
1027.1
1027.1
1027.1
1027.1
1027.1
1027.1
1027.1
1027.1
1027.1
1.16038
1.16026
1.16022
1.16047
1.16061
1.16113
1.16333
1.16673
1.16805
1.1685
1.1687
1.16882
1.16886
1.1689
1.16891
1.16892
1.16892
1.16892
1.16892
1.16892
1.16892
1.16893
1.16893
1.16893
1.16893
1.16893
1.16893
1.16894
1.16894
1.16894
1.16894
1.16894
1.16894
1.16894
1.16895
1.16895
1.16895
1.16895
1.16895
1.16896
1.16895
1.16896
1.16896
1.16897
1.16896
1.16897
1.16896
1.169
1.16904
1.16947
1.17121
1.17877
1.19243
1.22504
1.23572
1.26224
1.43562
1.93124
2.62055
40.1555
969.553
1027.09
1027.1
1027.1
1027.1
1027.1
1027.1
1027.1
1027.1
1027.1
1027.1
1027.1
1027.1
1027.1
1027.1
1027.1
1027.1
1027.1
1027.1
1027.1
1027.1
1027.1
1027.1
1027.1
1027.1
1027.1
1027.1
1027.1
1027.1
1027.1
1027.1
1027.1
1027.1
1027.1
1027.1
1027.1
1.16016
1.15997
1.15991
1.16002
1.16014
1.1607
1.16319
1.1667
1.16811
1.16856
1.16874
1.16883
1.16885
1.16889
1.16891
1.16891
1.16892
1.16892
1.16892
1.16892
1.16892
1.16892
1.16893
1.16893
1.16893
1.16893
1.16893
1.16893
1.16893
1.16893
1.16894
1.16894
1.16894
1.16894
1.16894
1.16894
1.16894
1.16895
1.16895
1.16895
1.16895
1.16895
1.16895
1.16896
1.16896
1.16896
1.16895
1.16899
1.16903
1.16937
1.17051
1.17657
1.19037
1.22569
1.24062
1.25295
1.47726
2.01159
2.86636
43.0319
960.842
1027.1
1027.1
1027.1
1027.1
1027.1
1027.1
1027.1
1027.1
1027.1
1027.1
1027.1
1027.1
1027.1
1027.1
1027.1
1027.1
1027.1
1027.1
1027.1
1027.1
1027.1
1027.1
1027.1
1027.1
1027.1
1027.1
1027.1
1027.1
1027.1
1027.1
1027.1
1027.1
1027.1
1027.1
1027.1
1.16013
1.16
1.1598
1.15977
1.15981
1.16028
1.16174
1.16485
1.16807
1.16858
1.16874
1.1688
1.16884
1.16889
1.16891
1.16891
1.16891
1.16892
1.16892
1.16892
1.16892
1.16892
1.16892
1.16893
1.16893
1.16893
1.16893
1.16893
1.16893
1.16893
1.16893
1.16893
1.16894
1.16894
1.16894
1.16894
1.16894
1.16894
1.16894
1.16895
1.16895
1.16895
1.16895
1.16896
1.16896
1.16896
1.16895
1.16899
1.16905
1.16935
1.17015
1.17645
1.19078
1.22232
1.23805
1.25857
1.53837
2.14929
3.64355
50.6209
951.034
1027.1
1027.1
1027.1
1027.1
1027.1
1027.1
1027.1
1027.1
1027.1
1027.1
1027.1
1027.1
1027.1
1027.1
1027.1
1027.1
1027.1
1027.1
1027.1
1027.1
1027.1
1027.1
1027.1
1027.1
1027.1
1027.1
1027.1
1027.1
1027.1
1027.1
1027.1
1027.1
1027.1
1027.1
1027.1
1.15988
1.16014
1.15998
1.15979
1.15971
1.1597
1.15989
1.16242
1.16779
1.16858
1.16872
1.16879
1.16885
1.1689
1.16892
1.16892
1.16892
1.16892
1.16892
1.16892
1.16893
1.16893
1.16893
1.16893
1.16893
1.16893
1.16893
1.16894
1.16894
1.16894
1.16894
1.16894
1.16894
1.16895
1.16895
1.16895
1.16895
1.16895
1.16895
1.16896
1.16896
1.16896
1.16896
1.16897
1.16896
1.16897
1.16895
1.169
1.16905
1.16935
1.17018
1.17617
1.18902
1.21346
1.22964
1.28531
1.48187
2.21281
3.08566
47.5067
958.167
1026.76
1027.1
1027.1
1027.1
1027.1
1027.1
1027.1
1027.1
1027.1
1027.1
1027.1
1027.1
1027.1
1027.1
1027.1
1027.1
1027.1
1027.1
1027.1
1027.1
1027.1
1027.1
1027.1
1027.1
1027.1
1027.1
1027.1
1027.1
1027.1
1027.1
1027.1
1027.1
1027.1
1027.1
1027.1
1.16269
1.16388
1.16477
1.16534
1.16577
1.16643
1.1677
1.16859
1.16874
1.16879
1.16885
1.16888
1.16891
1.16891
1.16891
1.16892
1.16892
1.16892
1.16892
1.16892
1.16892
1.16892
1.16893
1.16893
1.16893
1.16893
1.16893
1.16893
1.16894
1.16894
1.16894
1.16894
1.16894
1.16894
1.16895
1.16895
1.16895
1.16895
1.16895
1.16895
1.16896
1.16896
1.16896
1.16896
1.16896
1.16897
1.16897
1.16907
1.17014
1.17571
1.18365
1.19253
1.20142
1.22023
1.23753
1.27988
1.27988
1.58507
4.1821
77.5167
975.084
1026.8
1027.09
1027.1
1027.1
1027.1
1027.1
1027.1
1027.1
1027.1
1027.1
1027.1
1027.1
1027.1
1027.1
1027.1
1027.1
1027.1
1027.1
1027.1
1027.1
1027.1
1027.1
1027.1
1027.1
1027.1
1027.1
1027.1
1027.1
1027.1
1027.1
1027.1
1027.1
1027.1
1027.1
1027.1
1.16175
1.16315
1.16514
1.1657
1.16613
1.16697
1.16803
1.16842
1.16855
1.16864
1.16875
1.16883
1.16888
1.16891
1.16891
1.16891
1.16892
1.16892
1.16892
1.16892
1.16892
1.16893
1.16893
1.16893
1.16893
1.16893
1.16893
1.16894
1.16894
1.16894
1.16894
1.16894
1.16894
1.16895
1.16895
1.16895
1.16895
1.16895
1.16895
1.16896
1.16896
1.16896
1.16896
1.16897
1.16897
1.16897
1.16897
1.16907
1.16985
1.17453
1.1825
1.19253
1.20341
1.22659
1.2416
1.2678
1.32069
1.54685
3.17559
101.62
999.753
1027.08
1027.09
1027.1
1027.1
1027.1
1027.1
1027.1
1027.1
1027.1
1027.1
1027.1
1027.1
1027.1
1027.1
1027.1
1027.1
1027.1
1027.1
1027.1
1027.1
1027.1
1027.1
1027.1
1027.1
1027.1
1027.1
1027.1
1027.1
1027.1
1027.1
1027.1
1027.1
1027.1
1027.1
1027.1
1.16138
1.16272
1.16509
1.16585
1.16644
1.16725
1.16794
1.16817
1.16836
1.16852
1.16868
1.1688
1.16887
1.1689
1.16891
1.16891
1.16891
1.16891
1.16891
1.16892
1.16892
1.16892
1.16892
1.16892
1.16892
1.16893
1.16893
1.16893
1.16893
1.16893
1.16893
1.16893
1.16894
1.16894
1.16894
1.16894
1.16894
1.16894
1.16895
1.16895
1.16895
1.16895
1.16895
1.16896
1.16896
1.16897
1.16897
1.16907
1.1696
1.17297
1.181
1.19257
1.20632
1.22888
1.24178
1.26124
1.32013
1.46688
1.83996
121.101
1015.84
1027.09
1027.09
1027.09
1027.09
1027.09
1027.1
1027.1
1027.09
1027.09
1027.1
1027.1
1027.1
1027.1
1027.1
1027.1
1027.1
1027.1
1027.1
1027.1
1027.1
1027.1
1027.1
1027.1
1027.1
1027.1
1027.1
1027.1
1027.1
1027.1
1027.1
1027.1
1027.1
1027.1
1027.1
1027.1
1.16117
1.16224
1.16472
1.16577
1.16641
1.1672
1.16772
1.16795
1.16825
1.16848
1.16866
1.16879
1.16886
1.1689
1.16891
1.16891
1.16891
1.16891
1.16891
1.16892
1.16892
1.16892
1.16892
1.16892
1.16892
1.16892
1.16892
1.16893
1.16893
1.16893
1.16893
1.16893
1.16893
1.16894
1.16894
1.16894
1.16894
1.16894
1.16894
1.16895
1.16895
1.16895
1.16895
1.16896
1.16896
1.16897
1.16897
1.1691
1.16961
1.17226
1.18068
1.19463
1.21155
1.23051
1.24371
1.27493
1.30703
1.39071
1.77791
138.287
1020.8
1027
1027.01
1027.03
1027.04
1027.05
1027.06
1027.07
1027.07
1027.08
1027.09
1027.1
1027.1
1027.1
1027.1
1027.1
1027.1
1027.1
1027.1
1027.1
1027.1
1027.1
1027.1
1027.1
1027.1
1027.1
1027.1
1027.1
1027.1
1027.1
1027.1
1027.1
1027.1
1027.1
1027.1
1027.1
1.16104
1.16178
1.16431
1.16558
1.16627
1.16706
1.16748
1.16781
1.1682
1.16845
1.16864
1.16877
1.16885
1.16889
1.1689
1.16891
1.16891
1.16891
1.16892
1.16892
1.16892
1.16892
1.16892
1.16892
1.16892
1.16892
1.16893
1.16893
1.16893
1.16893
1.16893
1.16893
1.16893
1.16894
1.16894
1.16894
1.16894
1.16894
1.16894
1.16894
1.16895
1.16895
1.16895
1.16896
1.16896
1.16897
1.16899
1.16921
1.16994
1.17305
1.18209
1.19643
1.21107
1.2355
1.27348
1.2857
1.31104
1.47362
1.78415
184.988
1020.94
1026.14
1026.33
1026.59
1026.69
1026.79
1026.89
1026.96
1027.02
1027.05
1027.06
1027.05
1027.05
1027.06
1027.07
1027.09
1027.09
1027.1
1027.1
1027.1
1027.1
1027.1
1027.1
1027.1
1027.1
1027.1
1027.1
1027.1
1027.1
1027.1
1027.1
1027.1
1027.1
1027.1
1027.1
1027.1
1.1612
1.16143
1.16374
1.16562
1.16604
1.16691
1.16726
1.16774
1.16817
1.16844
1.16863
1.16876
1.16884
1.16889
1.1689
1.1689
1.16891
1.16891
1.16891
1.16891
1.16892
1.16892
1.16892
1.16892
1.16892
1.16892
1.16892
1.16893
1.16893
1.16893
1.16893
1.16893
1.16893
1.16894
1.16894
1.16894
1.16894
1.16894
1.16894
1.16895
1.16895
1.16895
1.16895
1.16896
1.16896
1.16897
1.169
1.16938
1.17039
1.17286
1.18208
1.19677
1.20994
1.23342
1.30665
1.28922
1.32767
1.51866
1.81295
195.017
1015.2
1025.06
1025.69
1026.38
1026.58
1026.59
1026.66
1026.68
1026.69
1026.62
1026.53
1026.5
1026.5
1026.6
1026.74
1026.91
1027.03
1027.08
1027.08
1027.09
1027.09
1027.09
1027.09
1027.09
1027.1
1027.1
1027.1
1027.1
1027.1
1027.1
1027.1
1027.1
1027.1
1027.1
1027.1
1027.1
1.16126
1.16122
1.16305
1.16514
1.16591
1.16687
1.16733
1.16786
1.16821
1.1684
1.16859
1.16873
1.16882
1.16887
1.1689
1.1689
1.1689
1.16891
1.16891
1.16891
1.16892
1.16892
1.16892
1.16892
1.16893
1.16893
1.16893
1.16893
1.16893
1.16893
1.16893
1.16894
1.16894
1.16894
1.16894
1.16894
1.16894
1.16895
1.16895
1.16895
1.16895
1.16895
1.16895
1.16896
1.16896
1.16897
1.16899
1.16926
1.16974
1.17187
1.17921
1.1958
1.21149
1.23587
1.27633
1.27671
1.31894
1.55235
1.7739
189.733
1009.97
1024.12
1025
1025.68
1025.63
1025.48
1025.58
1025.63
1025.62
1025.38
1025.2
1025.14
1025.36
1025.52
1025.66
1026.08
1026.55
1026.91
1027.01
1027.04
1027.05
1027.05
1027.04
1027.03
1027.04
1027.05
1027.06
1027.05
1027.05
1027.06
1027.07
1027.09
1027.09
1027.1
1027.09
1027.1
1.16126
1.16115
1.16243
1.16405
1.16546
1.16659
1.16726
1.1678
1.16819
1.16826
1.16852
1.1687
1.16878
1.16886
1.16889
1.1689
1.1689
1.1689
1.16891
1.16891
1.16891
1.16891