/*--------------------------------*- C++ -*----------------------------------*\
| =========                 |                                                 |
| \\      /  F ield         | OpenFOAM: The Open Source CFD Toolbox           |
|  \\    /   O peration     | Version:  2.3.0                                 |
|   \\  /    A nd           | Web:      www.OpenFOAM.org                      |
|    \\/     M anipulation  |                                                 |
\*---------------------------------------------------------------------------*/
FoamFile
{
    version     2.0;
    format      ascii;
    class       volVectorField;
    location    "34";
    object      U;
}
// * * * * * * * * * * * * * * * * * * * * * * * * * * * * * * * * * * * * * //

dimensions      [0 1 -1 0 0 0 0];

internalField   nonuniform List<vector> 
6144
(
(0.0106801 0.0188472 0.000643382)
(0.0105352 -0.0062321 -0.00080113)
(0.00442261 -0.00660794 -0.0026239)
(0.00409931 -0.00682372 -0.0025836)
(0.00252523 -0.0056423 -0.00247104)
(0.0027051 -0.00252765 -0.00227358)
(0.0023596 -0.00120111 -0.00153314)
(0.0022142 0.000199586 -0.0007929)
(0.00163061 0.000931052 -0.000273615)
(0.00118321 0.00295652 0.000486635)
(0.00106057 0.00425066 0.00101237)
(0.00118823 0.00479511 0.00147743)
(0.00142464 0.00454495 0.00171365)
(0.00161704 0.00375824 0.00191625)
(0.00174605 0.00272476 0.00170709)
(0.00187071 0.00178055 0.00149235)
(0.00194824 0.000911983 0.00113326)
(0.00203048 0.000298322 0.000822691)
(0.0020999 -0.000140971 0.000497635)
(0.00215554 -0.000355249 0.000253161)
(0.00218568 -0.000460977 0.000101257)
(0.0021999 -0.000457661 2.10697e-05)
(0.00219601 -0.000410891 -3.08743e-06)
(0.00217596 -0.000332691 1.56287e-05)
(0.00214307 -0.000244637 6.96331e-05)
(0.00210268 -0.000162119 0.000152396)
(0.00205703 -9.81361e-05 0.000256156)
(0.00200535 -6.00886e-05 0.000395633)
(0.0019533 -4.53416e-05 0.000545551)
(0.00190915 -6.44087e-05 0.000677561)
(0.00186822 -0.000118805 0.000794571)
(0.00182872 -0.000202582 0.000884686)
(0.00179099 -0.000275474 0.000951371)
(0.00175638 -0.000349548 0.00100341)
(0.00172341 -0.000383906 0.00105572)
(0.00169161 -0.000447376 0.00110684)
(0.00166088 -0.000452187 0.00118409)
(0.00163184 -0.000582726 0.00126625)
(0.00160685 -0.000605873 0.00136236)
(0.00159245 -0.00090106 0.00142754)
(0.00157722 -0.000882 0.00148057)
(0.00159617 -0.00138291 0.00151142)
(0.00156271 -0.00114597 0.00150879)
(0.00161953 -0.00196986 0.00151269)
(0.00148103 -0.00112537 0.00136524)
(0.00154687 -0.00229438 0.00107794)
(0.00124106 0.000285156 0.000305332)
(0.00151838 0.000204678 -0.00045657)
(0.00154168 0.00568576 -0.00153)
(0.00232899 0.00474344 -0.00152999)
(0.003534 0.0152961 -0.00147388)
(0.00579134 -0.00430789 -0.00205573)
(0.0101786 0.0134832 -0.00522359)
(0.0105884 -0.0176738 -0.00785317)
(0.011013 0.0186021 -0.0104165)
(0.0055837 -0.0271695 -0.0058367)
(0.0400693 0.0593561 0.013061)
(0.0151838 -0.137289 0.0198341)
(-0.0799817 0.127108 -0.0999099)
(0.0539905 0.0193959 -0.097878)
(0.104506 -0.210416 -0.0293813)
(0.0586159 -0.0149565 -0.0161544)
(0.016753 -0.095693 -0.00939567)
(0.0133863 -0.0648404 -0.00391127)
(-0.00878134 -0.0437435 -0.0010493)
(-0.0109359 -0.0253586 0.00197671)
(-0.00925555 -0.00980994 -0.00197728)
(-0.00464971 0.00252556 -0.00661313)
(0.00360088 0.01198 -0.0106729)
(0.00944799 0.015063 -0.0131406)
(0.0152575 0.0177354 -0.0152057)
(0.0199239 0.0138503 -0.0150024)
(0.0243691 0.00737105 -0.013344)
(0.0273021 -0.00468887 -0.0109125)
(0.028961 -0.0220689 -0.00816557)
(0.0296371 -0.0462153 -0.00264728)
(0.0270972 -0.0758451 0.0030328)
(0.0239486 -0.107896 0.00795732)
(0.0193233 -0.142073 0.0122108)
(0.0128001 -0.17485 0.0147895)
(0.00998197 -0.203355 0.0161233)
(0.00507253 -0.227423 0.0166067)
(0.00111256 -0.24427 0.0157463)
(-0.000271882 -0.255876 0.0153189)
(-0.00600023 -0.25794 0.0137746)
(-0.00822525 -0.25393 0.0114103)
(-0.0113986 -0.244354 0.0137186)
(-0.0167833 -0.230248 0.00681911)
(-0.0182508 -0.200479 0.00877271)
(-0.0273881 -0.174985 0.00399992)
(-0.0280654 -0.131779 -0.0136519)
(-0.0158785 -0.0490683 -0.00883974)
(-0.0103753 -0.00845381 0.00284179)
(-0.00748121 0.00127992 0.0122945)
(-0.00230938 -0.00558418 0.00839589)
(-0.00170538 -0.00774257 -0.00397687)
(0.0214447 0.0189658 0.00355043)
(0.0230458 0.00431801 0.00262609)
(0.0114734 0.00111811 -0.0012946)
(0.0111614 0.000152734 -0.00102331)
(0.00582012 -0.00255623 -0.000402788)
(0.00516055 -0.00111397 0.00108152)
(0.00318603 -0.00165803 0.0025736)
(0.00249704 3.29396e-05 0.00268061)
(0.00135904 0.00170512 0.00244566)
(0.000965497 0.0045604 0.0027445)
(0.00127755 0.00584394 0.00331781)
(0.0019443 0.00635405 0.00393916)
(0.00254983 0.00586473 0.00425267)
(0.00305147 0.00504846 0.00441195)
(0.00327918 0.00387443 0.00433876)
(0.00349033 0.00282135 0.00425904)
(0.00355418 0.00180287 0.00412556)
(0.00364211 0.00104664 0.00401855)
(0.00370049 0.000457089 0.0039055)
(0.00377467 0.000120658 0.00374848)
(0.00380853 -9.49936e-05 0.00365069)
(0.00380374 -0.000176258 0.00360962)
(0.00376607 -0.000194404 0.00362027)
(0.00369949 -0.00016185 0.00367528)
(0.00361264 -0.000106844 0.00376284)
(0.00351217 -4.74488e-05 0.00387324)
(0.00340169 1.03784e-06 0.00400108)
(0.00328455 3.33143e-05 0.00413864)
(0.0031703 4.86233e-05 0.0042691)
(0.00308491 3.16008e-05 0.00435281)
(0.00301348 -1.75975e-05 0.00442697)
(0.00293804 -9.01437e-05 0.00449075)
(0.00286382 -0.000147438 0.00454894)
(0.00278776 -0.000221257 0.00460164)
(0.00272282 -0.000250926 0.00465007)
(0.00265875 -0.00033479 0.00469588)
(0.00262025 -0.000338521 0.00474954)
(0.00258236 -0.000499523 0.00479989)
(0.00258093 -0.000481208 0.00485748)
(0.00256751 -0.000800167 0.00490466)
(0.00257229 -0.000656501 0.00494929)
(0.00258905 -0.00122347 0.0050094)
(0.00256251 -0.00081631 0.00501499)
(0.00261676 -0.00189187 0.00509445)
(0.00236871 -0.000907794 0.00490137)
(0.00233951 -0.00260449 0.00466767)
(0.00134562 0.000413323 0.00352965)
(0.00128812 -0.00022917 0.00246389)
(6.12525e-05 0.00723867 0.00114705)
(0.00233451 0.00596102 0.00275038)
(0.00706703 0.0154908 0.00276008)
(0.012177 -0.00548443 0.00190966)
(0.0150383 0.0112913 -0.00554543)
(0.0148854 -0.00164738 -0.00490723)
(0.0234573 0.0302835 -0.0006464)
(0.0178269 -0.0289144 -0.00179867)
(0.0145531 0.0116944 0.000107846)
(-0.0364714 0.000715575 -0.0498927)
(-0.0128183 0.235991 -0.117175)
(0.132184 -0.0574888 -0.0408496)
(0.123676 -0.136383 -0.0246501)
(0.00567096 0.131211 -0.010603)
(-0.00339472 -0.00185192 -0.0112598)
(-0.0105888 0.087154 0.00940613)
(-0.0127206 0.0504743 -0.00297966)
(-0.00869484 0.0629544 -0.00316985)
(-4.95602e-05 0.0645018 -0.0125347)
(0.00905693 0.0711863 -0.0110785)
(0.0190727 0.0749031 -0.010735)
(0.0261534 0.0737658 -0.00965126)
(0.0352241 0.0733391 -0.00742257)
(0.0409707 0.0648854 -0.0046405)
(0.0471833 0.0547179 -0.00042735)
(0.0508275 0.0381475 0.00460175)
(0.0522745 0.0152144 0.0101837)
(0.0516042 -0.0137408 0.0150967)
(0.0470153 -0.0480488 0.0188731)
(0.040362 -0.0836636 0.0211505)
(0.0318504 -0.119378 0.0218203)
(0.0211111 -0.154696 0.0186593)
(0.0130633 -0.183401 0.014355)
(0.00521757 -0.207238 0.0124132)
(-0.00413002 -0.226084 0.00790477)
(-0.00978682 -0.237397 0.00636969)
(-0.0188449 -0.24352 0.00515581)
(-0.0268345 -0.241206 0.00191499)
(-0.0322731 -0.231244 0.00487779)
(-0.0419258 -0.218714 0.000360461)
(-0.0445701 -0.192561 0.00191848)
(-0.0484767 -0.168699 0.00247086)
(-0.0556488 -0.140472 -0.014322)
(-0.0467542 -0.0755671 -0.0145494)
(-0.03455 -0.0190225 0.00115313)
(-0.0246268 -0.00146162 0.0146495)
(-0.0149933 -0.00321299 0.0180369)
(-0.0092002 -0.00914638 0.00227488)
(0.0248987 0.0197352 0.00448061)
(0.0271098 0.0116531 0.00471562)
(0.016077 0.00693388 0.00268986)
(0.0146974 0.0070527 0.00306618)
(0.00756905 0.00177353 0.00363766)
(0.00483421 0.00185738 0.00368414)
(0.00131085 -0.000398668 0.0043262)
(-9.74382e-06 0.000418446 0.0039621)
(-0.00162317 0.00163775 0.00363817)
(-0.00139113 0.00444556 0.00383215)
(-0.000408824 0.00551291 0.00420819)
(0.000670877 0.00605952 0.00478127)
(0.00146949 0.00573568 0.00502761)
(0.00211854 0.00528132 0.00514372)
(0.00248579 0.0043914 0.005051)
(0.00278284 0.0035677 0.00495949)
(0.0028582 0.00270463 0.0048623)
(0.00295236 0.00203084 0.00480471)
(0.00295359 0.00141425 0.00476778)
(0.00291598 0.000966366 0.00476651)
(0.00285288 0.000626471 0.00478723)
(0.00276931 0.000406551 0.0048222)
(0.00267272 0.000265224 0.00486847)
(0.00256376 0.000193935 0.00492818)
(0.00244781 0.00016405 0.00499458)
(0.00232635 0.000158566 0.00506262)
(0.00220271 0.00016145 0.00513326)
(0.00207879 0.000161908 0.00520515)
(0.00195859 0.000151602 0.00527694)
(0.00184224 0.000127421 0.00535073)
(0.00173587 0.000105289 0.00541862)
(0.00162116 8.14543e-05 0.00548078)
(0.00151062 6.78567e-05 0.00554308)
(0.00139681 2.41632e-05 0.00560149)
(0.00130576 6.04657e-06 0.0056592)
(0.00121105 -8.04054e-05 0.00570945)
(0.00116533 -8.58843e-05 0.00576536)
(0.00109819 -0.000220272 0.00579937)
(0.00110586 -0.000144397 0.00585552)
(0.00105756 -0.000378995 0.0058727)
(0.00109352 -0.000151968 0.00592172)
(0.001144 -0.000658 0.00594675)
(0.00124605 -0.000246192 0.00597227)
(0.00145675 -0.0013935 0.00599529)
(0.00141549 -0.000419911 0.00578768)
(0.0014564 -0.00258115 0.00549466)
(0.000187245 0.000382578 0.0044688)
(-0.000919937 -0.00239141 0.00330702)
(-0.0025857 0.00485776 0.00241139)
(-0.000490247 -0.000668236 0.00398072)
(0.00682542 0.0092071 0.00519974)
(0.013643 -0.00692685 0.00295069)
(0.0127204 0.0128116 -0.0040639)
(0.0203423 0.00207202 -0.000761399)
(0.046253 0.0245208 0.0152771)
(0.0572255 -0.0368051 0.0141698)
(0.00691487 0.00196736 0.0429146)
(-0.0647294 -0.0881895 0.0143805)
(0.00833322 0.134804 -0.195606)
(0.0877638 -0.0747123 -0.0290427)
(0.107582 -0.078094 -0.0335463)
(0.0324984 0.145661 -0.0135345)
(0.0364661 0.0703047 -0.0157971)
(0.00372342 0.12012 -0.00859416)
(0.00242489 0.114471 -0.0112444)
(0.00300443 0.120988 -0.00960921)
(0.0140525 0.122459 -0.00966215)
(0.0215781 0.125148 -0.0074834)
(0.0330456 0.126027 -0.00553766)
(0.0404532 0.123603 -0.00282141)
(0.0499532 0.120499 0.000607086)
(0.0559477 0.111965 0.00384907)
(0.0619491 0.0996664 0.00742628)
(0.0655931 0.0816332 0.0107076)
(0.0671548 0.0572558 0.0132619)
(0.0661892 0.0283456 0.013838)
(0.0612997 -0.00443431 0.0108947)
(0.0547117 -0.0374091 0.00586811)
(0.0474374 -0.0698209 9.04499e-05)
(0.0399433 -0.100804 -0.00574853)
(0.03474 -0.124515 -0.00948717)
(0.0269824 -0.14672 -0.0115938)
(0.0188767 -0.163002 -0.0156797)
(0.0110596 -0.172205 -0.0143457)
(-0.00416433 -0.186167 -0.0133002)
(-0.0188326 -0.19444 -0.0125433)
(-0.0355954 -0.195859 -0.00579679)
(-0.0540145 -0.189808 -0.00805496)
(-0.0604254 -0.169159 -0.0037905)
(-0.0731042 -0.149313 -0.00377378)
(-0.083628 -0.123246 -0.0209493)
(-0.0721302 -0.065404 -0.0183372)
(-0.0562943 -0.0132597 4.93983e-05)
(-0.0429413 0.00252528 0.0154721)
(-0.0307996 0.00118949 0.0211444)
(-0.0265202 -0.00620395 0.00666606)
(0.0260312 0.0202359 0.00441935)
(0.0295582 0.015677 0.00537918)
(0.0174713 0.0101407 0.00307336)
(0.0166676 0.011467 0.00322543)
(0.0086752 0.00511666 0.00402373)
(0.00592408 0.00500834 0.00393263)
(0.00105452 0.000495458 0.00475005)
(-0.00124728 0.000455202 0.00425414)
(-0.00383782 0.000166294 0.00403857)
(-0.00347253 0.00293798 0.004154)
(-0.00206359 0.00389374 0.00451486)
(-0.000805935 0.00487012 0.00521761)
(9.26658e-05 0.00511999 0.00546165)
(0.000840115 0.00514356 0.00556766)
(0.00123698 0.00454654 0.00542436)
(0.00152549 0.00389145 0.00531157)
(0.00154996 0.00312746 0.0052263)
(0.00161676 0.00254935 0.00518671)
(0.00160307 0.00196791 0.0051492)
(0.00155042 0.00148557 0.00512899)
(0.0014604 0.00107377 0.00512845)
(0.00134072 0.000766809 0.00514428)
(0.00119649 0.00053125 0.00517123)
(0.00104144 0.000371539 0.00521241)
(0.000888891 0.000270476 0.00526574)
(0.000744301 0.000212862 0.00532592)
(0.000606195 0.000182691 0.00538997)
(0.000477323 0.000169751 0.00545382)
(0.000361038 0.000166795 0.00551358)
(0.000256286 0.000163298 0.0055673)
(0.000155395 0.000166533 0.00561357)
(5.16483e-05 0.000167468 0.00565955)
(-3.60156e-05 0.000177669 0.00571216)
(-0.00012324 0.000161463 0.00576479)
(-0.000182815 0.000167535 0.00581591)
(-0.000252446 0.000119121 0.00585439)
(-0.000271257 0.000151947 0.00588076)
(-0.000316866 7.15658e-05 0.00587763)
(-0.000257598 0.000188771 0.00589177)
(-0.000271021 -1.65108e-05 0.00587057)
(-0.000122315 0.000239716 0.00590361)
(-4.64755e-05 -0.000290341 0.00588127)
(0.000278479 0.000238211 0.00594969)
(0.000450598 -0.000826511 0.00583983)
(0.000869161 0.000535271 0.00577742)
(0.000762013 -0.00142082 0.00520431)
(0.000456799 0.00128046 0.00452819)
(-0.000955502 -0.00255973 0.00351896)
(-0.00149224 0.000362579 0.00291722)
(-0.00103568 -0.00709692 0.00404345)
(0.00485137 0.00159847 0.0053631)
(0.0106719 -0.00861489 0.00240663)
(0.0106969 0.0137715 -0.00214597)
(0.0228719 -0.00965869 0.00511666)
(0.0543865 0.011121 0.0245276)
(0.0562375 -0.0164715 0.0322473)
(0.00385655 0.0143739 0.060129)
(-0.0672564 -0.0892764 0.0578272)
(0.0317596 0.0526973 -0.186633)
(0.0604001 -0.0618234 -0.0234178)
(0.0839974 -0.0492623 -0.035857)
(0.0156043 0.154536 -0.0211619)
(0.0214271 0.122009 -0.0212232)
(0.00799882 0.162051 -0.011281)
(0.0118962 0.165422 -0.00842506)
(0.0166387 0.168385 -0.00654983)
(0.0252844 0.170286 -0.00472504)
(0.0313236 0.171869 -0.00340422)
(0.0405856 0.173465 -0.00101232)
(0.0476377 0.17273 0.0012742)
(0.055601 0.170104 0.00413777)
(0.0623263 0.164591 0.00625849)
(0.0687087 0.15438 0.00814205)
(0.0744913 0.13999 0.00925458)
(0.0779882 0.120036 0.00923177)
(0.0812045 0.098783 0.00702797)
(0.0820309 0.073251 0.0045443)
(0.0825619 0.0471013 0.00136144)
(0.0819245 0.0235997 -0.000661702)
(0.0775654 -0.00232821 -0.00248247)
(0.0716244 -0.0220694 -0.0049266)
(0.0640238 -0.0384119 -0.00540985)
(0.0536365 -0.053104 -0.00478743)
(0.0413561 -0.0652205 -0.00594834)
(0.0267703 -0.0744908 -0.00574507)
(0.00735144 -0.0896281 0.00118941)
(-0.0216936 -0.11769 0.00225818)
(-0.0527936 -0.133613 -0.0103797)
(-0.073691 -0.123906 -0.00914613)
(-0.0866731 -0.111871 -0.00718642)
(-0.094465 -0.094706 -0.0248579)
(-0.0886622 -0.0442269 -0.0219513)
(-0.0683095 -0.00240137 0.00211287)
(-0.0542326 0.00785606 0.0181028)
(-0.0437864 0.00309979 0.0241926)
(-0.0354848 -0.00605494 0.00748353)
(0.0260593 0.0207567 0.00425649)
(0.0309815 0.0183979 0.00513773)
(0.0187368 0.0116924 0.00139992)
(0.0194536 0.0144104 0.00137127)
(0.0106507 0.00715281 0.00247102)
(0.00797927 0.00726865 0.00251983)
(0.00164383 0.00123574 0.00360277)
(-0.00160456 0.00127179 0.0035808)
(-0.0054647 -0.00101401 0.00384747)
(-0.00579294 0.00141788 0.00414283)
(-0.00426416 0.00238599 0.00436295)
(-0.00328488 0.00368686 0.00512855)
(-0.00231623 0.00442267 0.00541671)
(-0.00139966 0.00481742 0.00555391)
(-0.000793609 0.00448776 0.00539252)
(-0.000508336 0.00390245 0.00527375)
(-0.000645585 0.00318436 0.00520016)
(-0.000726826 0.00267179 0.00518614)
(-0.000844954 0.00215286 0.00515302)
(-0.000965564 0.001707 0.0051141)
(-0.00111059 0.0012877 0.0050777)
(-0.00125519 0.000937267 0.00505466)
(-0.00140149 0.000646706 0.00504787)
(-0.00155517 0.000429768 0.00505591)
(-0.00170638 0.00027535 0.00507477)
(-0.00184317 0.000175317 0.00510426)
(-0.00196627 0.000117383 0.0051408)
(-0.00207198 9.31007e-05 0.00517915)
(-0.00215611 8.84349e-05 0.00521113)
(-0.00222631 9.37516e-05 0.00522322)
(-0.00229413 0.000114523 0.00522381)
(-0.00236923 0.000133962 0.00522467)
(-0.00243477 0.000162003 0.00523168)
(-0.00250162 0.000167495 0.00524142)
(-0.00254503 0.000204525 0.00525127)
(-0.00259392 0.00020265 0.00524937)
(-0.0025914 0.00028165 0.00523807)
(-0.00260255 0.000248319 0.00520031)
(-0.00251719 0.000399811 0.00517216)
(-0.00249087 0.000230917 0.00512061)
(-0.00230176 0.000515591 0.00511282)
(-0.00222452 9.4379e-05 0.00506554)
(-0.00183332 0.000765349 0.00507345)
(-0.00168964 7.83474e-05 0.00494819)
(-0.00105994 0.0015951 0.00489583)
(-0.00088899 0.000122933 0.00461631)
(-0.000188203 0.00222391 0.00472732)
(-4.4718e-05 -0.0024021 0.004618)
(-8.49722e-05 -0.00316231 0.00499475)
(-0.00128595 -0.01152 0.00495585)
(0.000141281 -0.00416793 0.00224218)
(0.0047451 -0.00830021 -0.000105336)
(0.00781419 0.0107787 0.00410072)
(0.0214084 -0.00461241 0.0239252)
(0.0285086 0.0285109 0.0413954)
(0.0188184 0.0291719 0.037708)
(-0.00373511 0.0687451 0.0649188)
(-0.0343996 -0.0800524 0.0795301)
(0.0241399 -0.0143303 -0.193171)
(0.029826 -0.0548722 -0.0142653)
(0.0466658 -0.00465185 -0.0278231)
(0.0118429 0.169207 -0.0200788)
(0.0164247 0.160272 -0.0172825)
(0.01203 0.19625 -0.00702305)
(0.0184469 0.201764 -0.00147162)
(0.0228053 0.204353 -0.000891739)
(0.0296522 0.204767 0.00113981)
(0.0347582 0.206106 0.00150107)
(0.0417957 0.206316 0.00385073)
(0.048467 0.207198 0.00523198)
(0.0553378 0.205925 0.00741669)
(0.0633269 0.204129 0.00912646)
(0.0720681 0.198581 0.0110779)
(0.0810274 0.190557 0.0130061)
(0.0893988 0.178706 0.0149173)
(0.0961987 0.16607 0.0150981)
(0.0987697 0.148007 0.014878)
(0.0988348 0.127758 0.0130723)
(0.0961231 0.106278 0.0115137)
(0.0902413 0.0819105 0.00932811)
(0.0819648 0.0601018 0.00776476)
(0.0714282 0.0384976 0.0075459)
(0.0594546 0.020589 0.00899023)
(0.0471004 0.00613834 0.0124578)
(0.0338977 -0.00766026 0.0172999)
(0.0186464 -0.0215068 0.0211239)
(-0.00447807 -0.0423944 0.0195827)
(-0.0326047 -0.0626397 0.0141885)
(-0.058846 -0.0712054 0.00751964)
(-0.087338 -0.0730718 -0.0164952)
(-0.108348 -0.0448754 -0.0342244)
(-0.095184 -0.00384357 -0.0129724)
(-0.070651 0.0124652 0.0084228)
(-0.0620718 0.0148421 0.0215627)
(-0.056546 0.00661997 0.0263923)
(-0.0534852 -0.00491894 0.0117051)
(0.024389 0.0209371 0.00676497)
(0.0315634 0.0215601 0.00530481)
(0.0194504 0.0138674 5.1311e-05)
(0.0223099 0.0179847 -0.000512836)
(0.0135049 0.00932393 -0.000588392)
(0.0110588 0.00986778 5.95757e-05)
(0.00347508 0.00215311 0.000957364)
(-0.000653384 0.00254021 0.00162125)
(-0.00552206 -0.00124936 0.00281409)
(-0.00758935 0.000240525 0.00320373)
(-0.00586818 0.000484733 0.00336178)
(-0.0045789 0.00201838 0.00436257)
(-0.0032606 0.00338491 0.00490274)
(-0.00202795 0.00410502 0.00536978)
(-0.00116261 0.00394969 0.00546137)
(-0.000806563 0.00344102 0.0054842)
(-0.00113191 0.00277918 0.00539738)
(-0.00138048 0.00237156 0.00537818)
(-0.00162241 0.00201109 0.00531624)
(-0.00183177 0.00172083 0.00522629)
(-0.00204182 0.00142355 0.00512125)
(-0.00223709 0.0011549 0.00501757)
(-0.00243316 0.000905081 0.00492142)
(-0.00261441 0.000695847 0.00483976)
(-0.00277059 0.000534114 0.00477013)
(-0.00289496 0.000426626 0.00471183)
(-0.00299973 0.000366365 0.00466271)
(-0.00307551 0.000344224 0.0046172)
(-0.00312498 0.000349162 0.00456658)
(-0.00316985 0.000358716 0.00450485)
(-0.00321315 0.000373012 0.0044474)
(-0.00325897 0.000382196 0.00440257)
(-0.00328777 0.000409047 0.00437201)
(-0.00332082 0.000423069 0.00434825)
(-0.00333319 0.00048543 0.00432722)
(-0.00335539 0.000523035 0.00429706)
(-0.00332237 0.000638341 0.00426249)
(-0.0033014 0.000645141 0.00420901)
(-0.00316913 0.000809658 0.00416963)
(-0.00308587 0.000650873 0.00411768)
(-0.00286467 0.000950264 0.00410264)
(-0.00274242 0.000604539 0.00406423)
(-0.00242015 0.00136323 0.00407038)
(-0.00219992 0.000909668 0.00400951)
(-0.00173224 0.00240489 0.00406013)
(-0.00100668 0.000961933 0.00423436)
(-0.000145482 0.00255978 0.00535041)
(0.00199561 -0.00274313 0.00652903)
(0.00164089 -0.00344957 0.00872585)
(0.000978958 -0.0128498 0.00761974)
(-0.00240578 -0.00624238 0.0028197)
(0.00333535 -0.0127023 -0.00201377)
(0.0011383 0.0052841 0.00558679)
(0.00353943 -0.013848 0.0222724)
(-0.0138777 0.0242178 0.0371336)
(0.00196206 0.0137884 0.0391905)
(0.0218695 0.0521619 0.0657948)
(0.0449774 -0.0772745 0.0907839)
(0.0120844 -0.0388476 -0.189106)
(-0.000377396 -0.0540079 -0.0127482)
(-0.00131793 0.00086844 -0.0302147)
(-0.00353543 0.176923 -0.0195802)
(0.00195136 0.173822 -0.0125826)
(0.00828458 0.206336 -0.00253359)
(0.0184434 0.208511 0.00368282)
(0.0234263 0.211752 0.00506608)
(0.0285046 0.209716 0.00691859)
(0.0332697 0.211123 0.00693758)
(0.0388089 0.211098 0.00768434)
(0.0453322 0.213057 0.0076353)
(0.0516451 0.211663 0.00865394)
(0.0598784 0.210709 0.00996913)
(0.0684404 0.207176 0.010794)
(0.0771335 0.204732 0.0105511)
(0.0875164 0.202516 0.0107508)
(0.0971296 0.20052 0.0113007)
(0.104275 0.195948 0.0122)
(0.109003 0.188751 0.0125092)
(0.11093 0.177803 0.0124418)
(0.107961 0.160161 0.0112033)
(0.101063 0.139393 0.0100117)
(0.0881551 0.113426 0.00806433)
(0.0697937 0.0873697 0.00671188)
(0.0502384 0.0676865 0.00691621)
(0.0294413 0.0482692 0.00797179)
(0.00801846 0.0336836 0.00865162)
(-0.017934 0.0193239 0.00578967)
(-0.048277 0.0087349 -0.00155326)
(-0.0772484 0.00365668 -0.0148977)
(-0.0986882 0.00924792 -0.0286351)
(-0.0991085 0.0211647 -0.0198256)
(-0.0791549 0.0233017 -0.00105765)
(-0.0644138 0.0224883 0.0128231)
(-0.0629013 0.0162307 0.024775)
(-0.0607759 0.00528634 0.0262346)
(-0.0574078 -0.00445977 0.00549433)
(0.0202368 0.0202386 0.00591089)
(0.0312233 0.0259061 0.00608926)
(0.0197513 0.0162465 0.000583296)
(0.0242738 0.0209964 0.00029623)
(0.0164464 0.0108643 -0.00255338)
(0.0144453 0.0117756 -0.00140808)
(0.00613825 0.00229652 -0.00148786)
(0.000911462 0.00359391 -0.000749389)
(-0.00450738 -0.000146184 0.000973856)
(-0.00771949 0.000569745 0.00180159)
(-0.00709697 -0.000527902 0.00188344)
(-0.0074566 0.000829692 0.00314913)
(-0.00624542 0.00213623 0.00415553)
(-0.00437997 0.00297698 0.00528455)
(-0.00324684 0.0029987 0.00587071)
(-0.00291753 0.00272981 0.00623563)
(-0.00352424 0.00216289 0.00619079)
(-0.00411855 0.00187101 0.00610667)
(-0.00458184 0.00166703 0.00594324)
(-0.00486704 0.00157117 0.00573478)
(-0.00508833 0.0014757 0.00551987)
(-0.0052442 0.00139846 0.00531992)
(-0.00536937 0.00130498 0.00513752)
(-0.00548979 0.00121675 0.00499224)
(-0.00560445 0.00114541 0.0048854)
(-0.00569079 0.00109718 0.00479769)
(-0.00574386 0.0010655 0.00470728)
(-0.00576334 0.0010611 0.00462399)
(-0.00573739 0.00107326 0.00455939)
(-0.00568469 0.0010761 0.0045102)
(-0.00564323 0.00107338 0.00447423)
(-0.00562636 0.00106401 0.00445268)
(-0.00561515 0.00107626 0.0044438)
(-0.0056203 0.00109575 0.0044411)
(-0.00561182 0.00117239 0.00445209)
(-0.00560156 0.00123971 0.00445515)
(-0.00553541 0.00135948 0.00444783)
(-0.00544526 0.00139835 0.00443285)
(-0.00527901 0.00154458 0.0044195)
(-0.00511997 0.00142473 0.00441364)
(-0.00498059 0.00170471 0.00440718)
(-0.00483209 0.00140714 0.00442612)
(-0.00480997 0.00210194 0.00445772)
(-0.00448763 0.00153898 0.00454078)
(-0.00433128 0.00281044 0.00470945)
(-0.00306117 0.000750191 0.00501398)
(-0.00212237 0.00232789 0.00638161)
(0.000834523 -0.00371802 0.00769187)
(-0.000124489 -0.00187578 0.0108668)
(0.000786464 -0.0111079 0.00917231)
(-0.00574456 0.000107112 0.00391058)
(-0.000611346 -0.00809749 -0.00325331)
(-0.00489537 0.0216842 0.00525059)
(-0.00704013 -0.020306 0.00665574)
(-0.0289596 0.0221839 0.0273616)
(-0.018233 -0.0378245 0.0404495)
(0.0065794 0.0134619 0.0649587)
(0.0847795 -0.0809406 0.090362)
(-0.000276283 -0.0283741 -0.179239)
(-0.0251744 -0.0500429 -0.00990964)
(-0.0520165 -0.00563485 -0.0254055)
(-0.0240124 0.174116 -0.0149926)
(-0.017858 0.165887 -0.00748495)
(-3.80212e-05 0.196465 0.0045056)
(0.0127563 0.19228 0.0105209)
(0.0190635 0.192898 0.011677)
(0.0229417 0.188343 0.0133601)
(0.0281706 0.18518 0.0137572)
(0.0316046 0.182478 0.0134175)
(0.0373227 0.183073 0.0129777)
(0.0437863 0.185435 0.0125429)
(0.0526454 0.186978 0.0129302)
(0.0615549 0.189945 0.0125755)
(0.0712381 0.194795 0.0105434)
(0.0823406 0.198961 0.0093714)
(0.0927873 0.204276 0.0115599)
(0.10193 0.205758 0.0126723)
(0.106908 0.206791 0.0143226)
(0.109893 0.207912 0.0162281)
(0.110368 0.207486 0.0175053)
(0.108053 0.202908 0.0190109)
(0.101365 0.193147 0.0175256)
(0.0889964 0.176219 0.0156611)
(0.0718151 0.150893 0.0116862)
(0.0499502 0.121842 0.00603684)
(0.0260237 0.0974506 0.00184095)
(-7.38333e-05 0.0751535 -0.00381304)
(-0.0268169 0.060147 -0.0101456)
(-0.0502569 0.048306 -0.0156595)
(-0.0643227 0.0394116 -0.0143214)
(-0.0633334 0.0324165 -0.00132653)
(-0.0569932 0.0261011 0.0109925)
(-0.0594189 0.0210639 0.021727)
(-0.0675998 0.0121587 0.0300079)
(-0.0734475 0.0017406 0.0263097)
(-0.0726222 -0.00766666 0.00621466)
(0.018382 0.0166256 0.00449187)
(0.0298204 0.0305872 0.00648447)
(0.0187257 0.0188303 0.000880968)
(0.0250262 0.0246834 0.00163317)
(0.0187612 0.0124846 -0.00302334)
(0.017682 0.0133329 -0.00181356)
(0.00775508 0.00230095 -0.00357825)
(0.000542679 0.0040996 -0.00364937)
(-0.00389659 0.00131144 -0.000717927)
(-0.00674002 0.00195053 0.000822342)
(-0.00654172 -0.000381139 0.00135197)
(-0.0071476 -0.000200894 0.00289855)
(-0.00571324 -0.000224252 0.0044776)
(-0.00385527 0.000252043 0.00603338)
(-0.00285232 0.000484467 0.00702378)
(-0.00252376 0.000950728 0.00790528)
(-0.00306733 0.00120882 0.00821628)
(-0.00368079 0.0014705 0.00827445)
(-0.00418801 0.00168686 0.00813538)
(-0.0045378 0.00187174 0.00787887)
(-0.00480746 0.00194567 0.00759081)
(-0.0049861 0.00198605 0.00731952)
(-0.00512009 0.00197793 0.0070702)
(-0.00523181 0.00194964 0.00685263)
(-0.00532144 0.00190936 0.00667097)
(-0.00537445 0.00187557 0.00652376)
(-0.00539826 0.00185236 0.00639476)
(-0.00538892 0.0018344 0.00628061)
(-0.0053387 0.00180835 0.00618401)
(-0.00526152 0.0017661 0.00610873)
(-0.00519399 0.00173093 0.00605876)
(-0.00514893 0.00171471 0.0060298)
(-0.00511336 0.00172726 0.00601477)
(-0.00510455 0.00175557 0.00599641)
(-0.00509264 0.00184406 0.00597569)
(-0.00507039 0.00192206 0.00593999)
(-0.00499671 0.00203235 0.0058944)
(-0.00489623 0.00206211 0.00584)
(-0.00472549 0.00218163 0.00579053)
(-0.00453193 0.00204373 0.00575502)
(-0.00440449 0.00229824 0.00573338)
(-0.00416685 0.00195664 0.0057295)
(-0.00421842 0.00260128 0.00577264)
(-0.00369319 0.00176974 0.00583423)
(-0.00362187 0.00294013 0.00604188)
(-0.00204847 8.81696e-05 0.00630002)
(-0.00134837 0.0017644 0.00766939)
(0.00167154 -0.0050245 0.00880834)
(-0.000337641 -0.000960469 0.0124239)
(-0.000930172 -0.00954642 0.00986634)
(-0.0091701 0.00529995 0.00387689)
(-0.00752747 -0.00325098 -0.00116531)
(-0.0083874 0.0262083 0.00965551)
(-0.00433139 -0.0207805 0.0123174)
(-0.0157253 0.00792652 0.0286116)
(-0.0124367 -0.053576 0.0428522)
(-0.00520596 -0.00335581 0.0643767)
(0.122598 -0.0939726 0.0809954)
(-0.0270178 0.0278211 -0.159455)
(-0.0598719 -0.0506242 -0.00862341)
(-0.102296 -0.00927965 -0.0257482)
(-0.0379792 0.160707 -0.0114454)
(-0.0334973 0.136848 -0.00317242)
(-0.00378333 0.161274 0.00522252)
(0.00848229 0.147155 0.00911415)
(0.0173353 0.141244 0.00922052)
(0.0188222 0.12965 0.0124022)
(0.0224861 0.124137 0.0150502)
(0.0230479 0.117154 0.016981)
(0.02492 0.112725 0.0185514)
(0.0279942 0.10858 0.0179903)
(0.0329512 0.108477 0.0164252)
(0.0394623 0.113811 0.013631)
(0.04893 0.123896 0.012347)
(0.0605992 0.138214 0.0121881)
(0.0738811 0.154339 0.0121868)
(0.0877794 0.172021 0.0114422)
(0.0974332 0.187459 0.0120458)
(0.103199 0.199455 0.0150937)
(0.105491 0.211069 0.019049)
(0.103869 0.216558 0.021725)
(0.098635 0.220208 0.0230302)
(0.0888745 0.219424 0.0240202)
(0.0761148 0.215657 0.0248035)
(0.0589059 0.206243 0.0239228)
(0.0393204 0.192852 0.021834)
(0.0174908 0.175126 0.0191191)
(-0.00473108 0.154894 0.0163003)
(-0.0233765 0.136341 0.0157495)
(-0.0379195 0.118049 0.0176505)
(-0.0463539 0.101498 0.0211733)
(-0.050728 0.0888739 0.0260623)
(-0.0591889 0.0739157 0.0310508)
(-0.0669652 0.0565649 0.0325566)
(-0.0744225 0.0351074 0.0197572)
(-0.0808118 0.00464393 -0.01807)
(0.00614637 0.0122709 -0.00518699)
(0.0285925 0.0326659 0.0052608)
(0.0175883 0.0202816 0.000445096)
(0.0250935 0.0289576 0.00184686)
(0.0214991 0.014664 -0.00268214)
(0.0216131 0.0159193 -0.000720433)
(0.0111221 0.00290798 -0.00548448)
(0.00202361 0.0039409 -0.00885909)
(-0.00405213 0.001001 -0.00607431)
(-0.00550857 0.00246911 -0.00368487)
(-0.00583968 -0.000623755 -0.00210282)
(-0.0077937 -0.00101064 -0.000608705)
(-0.00787878 -0.0023021 0.000875476)
(-0.00694731 -0.00182831 0.00221758)
(-0.00673349 -0.00120009 0.00335113)
(-0.00703266 -0.000199357 0.00436473)
(-0.00775505 0.000586959 0.00510935)
(-0.00842901 0.00122259 0.00552333)
(-0.00893172 0.00166112 0.00561779)
(-0.00903274 0.00196613 0.00554852)
(-0.00907132 0.00214038 0.00541079)
(-0.00905033 0.00226129 0.00525876)
(-0.00899641 0.00231501 0.00511454)
(-0.00893939 0.00233199 0.00497596)
(-0.00887655 0.00232319 0.00484845)
(-0.00880246 0.0023027 0.00473395)
(-0.00871334 0.00227951 0.00463092)
(-0.00860103 0.00225587 0.00453433)
(-0.00845043 0.00222803 0.00444099)
(-0.00830864 0.00219267 0.00435507)
(-0.00823673 0.00216915 0.00428811)
(-0.00819763 0.00216423 0.00424142)
(-0.00816749 0.00217979 0.00421204)
(-0.00815807 0.00220891 0.0041841)
(-0.00813395 0.00229013 0.00415295)
(-0.00807842 0.00235985 0.00410447)
(-0.00795639 0.00245413 0.00403942)
(-0.00779473 0.00247778 0.00396016)
(-0.007604 0.00258582 0.00387469)
(-0.00734111 0.0024869 0.00381471)
(-0.00734676 0.00276205 0.00376915)
(-0.00708224 0.00243534 0.00376519)
(-0.00736095 0.00309317 0.00382082)
(-0.00668927 0.00212256 0.0038748)
(-0.00662749 0.00329634 0.00407501)
(-0.00477219 8.01622e-05 0.00414246)
(-0.00372343 0.00197226 0.00525317)
(-0.00145977 -0.00477889 0.0053735)
(-0.00482404 0.000259991 0.00832582)
(-0.00657024 -0.00901277 0.00424588)
(-0.013753 0.00673982 0.00162706)
(-0.0148998 -0.00338646 -0.00160279)
(-0.00966446 0.026486 0.0083603)
(0.00200607 -0.0257685 0.0120479)
(-0.0242063 0.0178851 0.0259)
(-0.0117524 -0.0713391 0.0273493)
(-0.0207205 0.0136225 0.0407317)
(0.114665 -0.136209 0.0430367)
(-0.0412473 0.134606 -0.15289)
(-0.106391 -0.0800289 -0.0157263)
(-0.148641 -0.0637883 -0.024012)
(-0.0417338 0.131166 -0.00990624)
(-0.0577478 0.058145 -0.00536171)
(0.0037794 0.0963651 -0.000247988)
(0.00384815 0.0685383 -0.00380755)
(0.0192141 0.0660311 -0.00790427)
(0.0184404 0.0576553 -0.00773903)
(0.0215173 0.057541 -0.000547667)
(0.0214074 0.0530254 0.00643985)
(0.0220863 0.0508522 0.0125889)
(0.0230904 0.0448776 0.0167243)
(0.0248551 0.040292 0.0185248)
(0.0268554 0.0388707 0.0178881)
(0.0300819 0.0402612 0.0169969)