/*--------------------------------*- C++ -*----------------------------------*\
| =========                 |                                                 |
| \\      /  F ield         | OpenFOAM: The Open Source CFD Toolbox           |
|  \\    /   O peration     | Version:  2.3.0                                 |
|   \\  /    A nd           | Web:      www.OpenFOAM.org                      |
|    \\/     M anipulation  |                                                 |
\*---------------------------------------------------------------------------*/
FoamFile
{
    version     2.0;
    format      ascii;
    class       volVectorField;
    location    "34";
    object      U.airMean;
}
// * * * * * * * * * * * * * * * * * * * * * * * * * * * * * * * * * * * * * //

dimensions      [0 1 -1 0 0 0 0];

internalField   nonuniform List<vector> 
6144
(
(0.00866081 0.0195331 -0.00115705)
(0.00873252 0.00195 -0.00164632)
(0.00462896 0.000469478 -0.0023565)
(0.00452834 -0.00150768 -0.00233105)
(0.00299022 -0.00236778 -0.00192073)
(0.00294284 -0.0015134 -0.00170167)
(0.00237323 -0.00139043 -0.0013737)
(0.00243755 -0.000152615 -0.00116855)
(0.0022656 0.000579241 -0.00114948)
(0.00222003 0.0019415 -0.000825296)
(0.00220564 0.00272376 -0.000591073)
(0.00236506 0.00312833 -0.000298551)
(0.00251445 0.00287683 -0.000212446)
(0.00264739 0.00240937 -0.000143741)
(0.00270134 0.00178282 -0.000305279)
(0.00275959 0.00129924 -0.000434046)
(0.00278567 0.000860151 -0.000623301)
(0.00281891 0.000592126 -0.000755065)
(0.0028406 0.00036587 -0.000884783)
(0.00285306 0.000247897 -0.000957577)
(0.00285687 0.000158163 -0.001009)
(0.00285513 0.000124942 -0.00103201)
(0.00284798 0.000106271 -0.0010393)
(0.00283793 0.000106991 -0.00103141)
(0.00282435 0.000114373 -0.00101348)
(0.00280936 0.00012516 -0.000987599)
(0.0027933 0.000136094 -0.000956421)
(0.00277676 0.000142097 -0.000918367)
(0.0027596 0.000147641 -0.000875877)
(0.00274253 0.000142027 -0.000835655)
(0.00272755 0.00015064 -0.000795595)
(0.00271027 0.000117324 -0.000764944)
(0.00269867 0.000159964 -0.000729129)
(0.002676 7.2827e-05 -0.000713012)
(0.002673 0.000218337 -0.000668516)
(0.00264086 -3.93162e-06 -0.000661572)
(0.00264527 0.000341616 -0.000592882)
(0.00260396 -0.000163244 -0.000590515)
(0.00260977 0.000525012 -0.000486232)
(0.00256749 -0.000480439 -0.000486406)
(0.00257217 0.000730744 -0.000358837)
(0.00255198 -0.00104998 -0.000367848)
(0.00254542 0.00091627 -0.00026934)
(0.00260091 -0.00194691 -0.000328178)
(0.00251813 0.00118512 -0.000351489)
(0.00264289 -0.0030313 -0.000489997)
(0.00244882 0.00211214 -0.000771991)
(0.0024877 -0.00356113 -0.000771501)
(0.00241588 0.00456309 -0.00113775)
(0.00249341 -0.00346777 -0.00116851)
(0.00402035 0.00930928 -0.00187138)
(0.00374255 -0.00842431 -0.00246999)
(0.00470756 0.0152327 -0.00429925)
(0.00458528 -0.00968812 -0.00581373)
(0.00710342 0.0385399 -0.00775501)
(0.00557322 -0.0289734 -0.0117397)
(0.0146231 0.0664634 -0.00394897)
(0.00958527 -0.0559837 -0.0211256)
(-0.0412286 0.113828 -0.0862047)
(0.0362484 0.0389283 -0.107377)
(0.0820557 0.333804 0.000187384)
(0.0406194 0.375599 -0.00544881)
(0.0204097 -0.0584636 -0.0017745)
(0.0314772 -0.12208 -0.00183476)
(0.026111 -0.134491 -0.000504354)
(0.0180783 -0.135409 0.0013714)
(0.0127946 -0.143321 0.00209567)
(0.00925428 -0.142304 0.00207954)
(0.00693407 -0.14344 0.00168904)
(0.00490928 -0.139093 0.00118038)
(0.00326911 -0.136615 0.000675457)
(0.00199853 -0.130535 0.000269109)
(0.0011353 -0.125889 -8.47778e-05)
(0.000623646 -0.119486 -0.00037081)
(0.00033361 -0.114263 -0.000567628)
(0.000224136 -0.108464 -0.000712881)
(0.000180288 -0.103598 -0.000829932)
(0.000214057 -0.0986877 -0.000968349)
(0.000340842 -0.0943082 -0.00113994)
(0.000559623 -0.0901662 -0.0013586)
(0.000781593 -0.0859445 -0.0015629)
(0.000925917 -0.0814398 -0.00177608)
(0.000942864 -0.0766717 -0.00196779)
(0.000833327 -0.0713056 -0.00213284)
(0.000597124 -0.0655876 -0.0022853)
(0.000309142 -0.059343 -0.00235326)
(-0.000122659 -0.052596 -0.00249829)
(-0.000651598 -0.0449129 -0.00261669)
(-0.00137078 -0.0363505 -0.00276166)
(-0.00176989 -0.0264254 -0.00264599)
(-0.00100843 -0.0168667 -0.0026592)
(-0.000174109 -0.00812331 -0.0043165)
(-0.000305995 0.00150438 -0.00461239)
(-0.00134429 0.010323 -0.0019139)
(-0.00138536 0.0157763 0.00541768)
(-0.000931115 0.0129323 0.0116092)
(0.0177706 0.0226007 0.00246593)
(0.0183303 0.0102131 0.00211516)
(0.0107636 0.00737023 -1.71072e-06)
(0.010734 0.00486818 0.00085777)
(0.006588 0.00161422 0.00128096)
(0.00627602 0.00134172 0.00167244)
(0.0042847 -5.44741e-05 0.00210151)
(0.00410117 0.0011888 0.00185806)
(0.00363483 0.00190566 0.00162516)
(0.00375434 0.00347379 0.00175503)
(0.00397414 0.00404314 0.00194409)
(0.00452267 0.00432872 0.00233617)
(0.00487094 0.00385786 0.00247218)
(0.00519834 0.00335091 0.00256936)
(0.00527383 0.00260121 0.00249023)
(0.00537495 0.00203317 0.00243513)
(0.00537283 0.00147696 0.00233342)
(0.00541496 0.00112809 0.00226035)
(0.00542897 0.000820832 0.00217094)
(0.0054394 0.000648901 0.00212157)
(0.00543026 0.000512348 0.00208892)
(0.00541273 0.000448119 0.0020854)
(0.00538563 0.000405737 0.00209722)
(0.00535281 0.000392126 0.00212554)
(0.00531506 0.000389661 0.0021631)
(0.00527506 0.000394145 0.00220841)
(0.0052336 0.00040107 0.00225841)
(0.00519185 0.000404204 0.00231066)
(0.00515032 0.000409686 0.00236392)
(0.00510872 0.000404357 0.00241157)
(0.00507616 0.000413068 0.00245671)
(0.00503226 0.000379637 0.00249258)
(0.00500944 0.00042493 0.00253455)
(0.00494865 0.00033227 0.00255862)
(0.00495029 0.000488683 0.0026071)
(0.00486333 0.000235931 0.00261988)
(0.0048973 0.000622753 0.0026865)
(0.00477802 3.07704e-05 0.00268677)
(0.00485124 0.000828086 0.00278008)
(0.00470981 -0.000363528 0.00276711)
(0.00482809 0.0010885 0.00288445)
(0.004691 -0.00102837 0.00285853)
(0.00484087 0.00142329 0.00297212)
(0.00475035 -0.002011 0.00292932)
(0.0048322 0.00195127 0.00296448)
(0.0047826 -0.00326635 0.00284796)
(0.0046159 0.00296788 0.00257853)
(0.00445564 -0.00431087 0.00248435)
(0.00404039 0.00482134 0.00175892)
(0.00403536 -0.00467156 0.00207952)
(0.0068387 0.0078973 0.000814659)
(0.00668357 -0.0069426 -5.51005e-05)
(0.00574199 0.0166524 -0.000897437)
(0.0049168 -0.00694742 -0.000848162)
(0.0198081 0.0400258 0.00244378)
(0.0308884 -0.0402863 -0.00139522)
(-0.0166969 0.0350155 0.00517725)
(-0.0123869 -0.014378 -0.0145813)
(0.0179314 0.180958 -0.0201313)
(0.153742 0.00386659 -0.0603887)
(0.0898583 0.349 0.00855326)
(0.00830963 0.427327 0.00473313)
(-0.0125752 -0.0811709 0.00349798)
(0.00208379 -0.0474168 0.00755367)
(-0.00173737 -0.0729218 0.00869318)
(-0.00798459 -0.0859038 0.00988264)
(-0.00970474 -0.0977381 0.00900801)
(-0.0103371 -0.101012 0.00802898)
(-0.0102301 -0.106662 0.00677452)
(-0.0103491 -0.10625 0.00557735)
(-0.0102154 -0.106957 0.0045479)
(-0.00995189 -0.103518 0.00366601)
(-0.00933709 -0.101148 0.00287302)
(-0.00851504 -0.0966579 0.00216228)
(-0.00759406 -0.0932163 0.00152594)
(-0.00661766 -0.0889626 0.00104254)
(-0.00533227 -0.0851651 0.000721445)
(-0.00400776 -0.080951 0.000569669)
(-0.0031638 -0.0768354 0.00046805)
(-0.00284597 -0.0725419 0.000393351)
(-0.00283892 -0.0680881 0.000379291)
(-0.00296577 -0.0634718 0.000413279)
(-0.00307315 -0.0587572 0.000491937)
(-0.00316499 -0.0537197 0.000626535)
(-0.00335917 -0.0489713 0.000793528)
(-0.00377241 -0.0442609 0.000995673)
(-0.00447455 -0.0395431 0.0010661)
(-0.005419 -0.0345354 0.000956192)
(-0.00667942 -0.0291198 0.000453649)
(-0.0074439 -0.0224173 0.000185942)
(-0.00675941 -0.015046 0.000139206)
(-0.00550591 -0.00741665 -0.00128431)
(-0.00537493 0.00130557 -0.00170045)
(-0.00614542 0.00958208 0.00147099)
(-0.0073697 0.0142416 0.00950462)
(-0.00665208 0.0118335 0.0164969)
(0.021344 0.0232904 0.00359612)
(0.0227346 0.0145475 0.00352534)
(0.0142798 0.0110174 0.00126119)
(0.0143409 0.00964324 0.00226008)
(0.00840705 0.00509553 0.00248463)
(0.00749626 0.00423011 0.00294461)
(0.00401017 0.00150365 0.00347993)
(0.00344142 0.00232344 0.00325601)
(0.00260934 0.00263739 0.00301178)
(0.0030388 0.00398946 0.00313291)
(0.00343998 0.00416059 0.00326787)
(0.00432757 0.00439936 0.00358588)
(0.00475755 0.00391824 0.00370266)
(0.00519166 0.00359192 0.00379683)
(0.00528147 0.00293716 0.00374917)
(0.00539651 0.0024612 0.00373708)
(0.0053305 0.00191672 0.00369524)
(0.00532592 0.00156291 0.00369243)
(0.00525563 0.00122328 0.00368602)
(0.0052086 0.00102094 0.00370161)
(0.00513942 0.000847737 0.00371974)
(0.00507729 0.000751836 0.00374995)
(0.00501157 0.000681292 0.00378243)
(0.00494964 0.000646351 0.00382121)
(0.00488816 0.000628274 0.00386132)
(0.00482922 0.000622788 0.00390301)
(0.00477224 0.000624288 0.00394506)
(0.00471677 0.000624478 0.00398766)
(0.00466274 0.000627682 0.00403008)
(0.00460823 0.000624177 0.00407238)
(0.00456042 0.000629001 0.004115)
(0.00449764 0.000607399 0.00415288)
(0.00445789 0.000642087 0.00419421)
(0.00437292 0.000563708 0.0042254)
(0.00436502 0.000689215 0.00427321)
(0.00424407 0.000457865 0.00429551)
(0.00429051 0.000793192 0.0043538)
(0.0041164 0.00023916 0.00436445)
(0.00424109 0.000982673 0.00443742)
(0.00400696 -0.000130364 0.00442796)
(0.00423656 0.00130569 0.00451311)
(0.00393794 -0.000673189 0.00447029)
(0.00430042 0.00183383 0.00456531)
(0.00397815 -0.00142319 0.00448347)
(0.00439433 0.00264455 0.00457299)
(0.00408153 -0.00256735 0.00446722)
(0.00421215 0.00368918 0.00440154)
(0.00383092 -0.00411162 0.00434936)
(0.00336501 0.0050318 0.00360949)
(0.00383044 -0.00544209 0.00415148)
(0.00585871 0.00685261 0.00262287)
(0.00595817 -0.00474734 0.00207093)
(0.00457803 0.0194048 0.00239686)
(0.00372793 -0.0166656 0.00424635)
(0.028855 0.0252301 0.0068207)
(0.0419254 -0.0518081 0.00273282)
(-0.0437665 0.0598437 0.020082)
(-0.0606172 -0.103115 -0.00441662)
(-0.0475736 0.173902 -0.0484179)
(0.160818 -0.0132455 -0.0360361)
(0.151839 0.328733 0.0050845)
(0.0698147 0.374222 0.00164616)
(0.0695448 -0.0472167 0.00899936)
(0.03716 0.0123728 0.0135978)
(0.0161451 -0.0247845 0.0134645)
(0.0080253 -0.0356351 0.0127024)
(0.00211028 -0.0463244 0.0103621)
(-0.00317434 -0.052424 0.00814143)
(-0.00640191 -0.0600449 0.00579353)
(-0.00871735 -0.0624917 0.00379892)
(-0.0100133 -0.0644262 0.00206873)
(-0.0103671 -0.0625237 0.000640017)
(-0.00968623 -0.0617284 -0.000678286)
(-0.00865367 -0.0584096 -0.0017567)
(-0.00775651 -0.0543695 -0.00213587)
(-0.00726606 -0.0494941 -0.00220575)
(-0.00690851 -0.0443703 -0.00193382)
(-0.00648521 -0.0384705 -0.00139745)
(-0.0057982 -0.0337429 -0.000695987)
(-0.00515501 -0.0302434 0.000313032)
(-0.00481206 -0.0281618 0.00133833)
(-0.0047659 -0.0269839 0.00217581)
(-0.00491336 -0.0263282 0.0028198)
(-0.00521162 -0.0257113 0.00330118)
(-0.00568235 -0.0248985 0.00360299)
(-0.00634508 -0.0238923 0.00375554)
(-0.00733496 -0.022394 0.00374024)
(-0.00866178 -0.0204172 0.00335321)
(-0.0104866 -0.0177502 0.00230159)
(-0.0119937 -0.0139252 0.00109211)
(-0.0116324 -0.00882955 0.000568314)
(-0.0104474 -0.00328297 -0.000327137)
(-0.010903 0.00366911 -7.32571e-05)
(-0.0130825 0.0101713 0.00358933)
(-0.0154159 0.0141345 0.0114626)
(-0.0170411 0.010853 0.0180597)
(0.0230376 0.0235662 0.00370545)
(0.0260106 0.0172274 0.00408105)
(0.0162785 0.0124839 0.00109151)
(0.017642 0.0127732 0.00158316)
(0.0109047 0.00735622 0.0014419)
(0.0100574 0.00679249 0.00218449)
(0.00440543 0.0021705 0.00299841)
(0.00296296 0.00246193 0.00293188)
(0.00145093 0.0019438 0.00293842)
(0.00218297 0.00359208 0.00318514)
(0.00261336 0.00357836 0.00345264)
(0.00352017 0.00404077 0.00392694)
(0.00391305 0.00372172 0.00408964)
(0.00436686 0.00362865 0.00420807)
(0.00444217 0.0030749 0.00414851)
(0.00455607 0.00270115 0.0041442)
(0.00445486 0.00217746 0.0041153)
(0.00443247 0.00185245 0.00412881)
(0.00432936 0.00149951 0.00413202)
(0.00425853 0.00127875 0.00415614)
(0.00416368 0.001075 0.00418092)
(0.00408191 0.000952976 0.00421751)
(0.00399384 0.000859509 0.00425313)
(0.00390976 0.000807331 0.00429216)
(0.00382958 0.000774454 0.00433264)
(0.00375563 0.000760068 0.00437455)
(0.0036865 0.000755699 0.00441631)
(0.00362128 0.000754445 0.00445798)
(0.0035589 0.000758123 0.00449875)
(0.00349904 0.000758775 0.00453825)
(0.00344467 0.000767486 0.00457691)
(0.0033816 0.000756153 0.00461195)
(0.00333793 0.000787064 0.0046515)
(0.00325835 0.000724097 0.00468007)
(0.00324757 0.000832747 0.00472335)
(0.00313277 0.000626415 0.00474211)
(0.00318622 0.000935637 0.00479271)
(0.00301124 0.00042881 0.00479505)
(0.00316209 0.00114318 0.00485379)
(0.00290742 0.000112389 0.00482951)
(0.00318577 0.00151463 0.00489593)
(0.00284126 -0.000328838 0.00483386)
(0.00327142 0.00211239 0.00491841)
(0.00288374 -0.000937113 0.00481658)
(0.00348293 0.00298239 0.0049558)
(0.00301642 -0.00190527 0.00480187)
(0.0035842 0.00403788 0.00487708)
(0.00289759 -0.00335267 0.00470164)
(0.00293703 0.00514784 0.00433053)
(0.00322744 -0.0055931 0.00472039)
(0.00383335 0.00728487 0.00344925)
(0.00335769 -0.00556316 0.00333758)
(0.00804048 0.0164446 0.00479057)
(0.00990462 -0.0233568 0.00477348)
(0.0308155 0.0141278 0.01192)
(0.0303077 -0.0412701 0.00762497)
(-0.0114714 0.0803769 0.0203276)
(-0.0736355 -0.125002 0.0130733)
(-0.0456386 0.214759 -0.097471)
(0.180417 -0.0563231 -0.0173253)
(0.179191 0.348539 0.00300124)
(0.0754821 0.327914 -0.00267591)
(0.0824409 0.0526702 0.0081624)
(0.00220109 0.113254 0.0137565)
(0.000976669 0.0321353 0.0162045)
(-0.00305864 0.0299482 0.0109419)
(-0.00647922 0.0122935 0.00591082)
(-0.00940904 0.00827759 0.00182723)
(-0.0104483 0.00253079 -0.0012889)
(-0.0110963 0.0036858 -0.0035581)
(-0.0114382 0.00399985 -0.00529429)
(-0.0114142 0.00868001 -0.00631986)
(-0.010769 0.0131128 -0.00639914)
(-0.00994159 0.0192954 -0.00487197)
(-0.00921814 0.0222845 -0.00320583)
(-0.00846337 0.0244377 -0.00153956)
(-0.00746421 0.0245729 -0.000124768)
(-0.0061165 0.0230485 0.00103823)
(-0.00479968 0.0206124 0.00198223)
(-0.00415043 0.0180145 0.00297899)
(-0.00410831 0.0149613 0.00383671)
(-0.00460367 0.0114167 0.00447633)
(-0.00542358 0.00785511 0.00485248)
(-0.00646393 0.00448829 0.00505096)
(-0.00768718 0.00146233 0.00505825)
(-0.00911858 -0.00103453 0.00486445)
(-0.0108212 -0.00273573 0.00433021)
(-0.0127385 -0.0036694 0.00328164)
(-0.0144917 -0.0037283 0.00187907)
(-0.0153286 -0.00281698 0.000790201)
(-0.0149628 -0.000677353 0.000580587)
(-0.0145196 0.00257348 0.000608896)
(-0.0157432 0.00705305 0.00139364)
(-0.0183092 0.0112255 0.0052012)
(-0.0217423 0.013674 0.0125639)
(-0.0242703 0.0102563 0.0187581)
(0.023284 0.0236323 0.00440294)
(0.0282259 0.0197303 0.00507578)
(0.0175049 0.0129964 0.00119647)
(0.0201838 0.0146093 0.00157318)
(0.0133172 0.00801242 0.000400626)
(0.0132803 0.00879976 0.000952205)
(0.00635702 0.00327013 0.00116696)
(0.00374579 0.00341987 0.00179323)
(0.000448462 0.000918803 0.00222309)
(0.000696097 0.00251387 0.00275981)
(0.0010789 0.00234223 0.00319246)
(0.00186362 0.00326901 0.0039129)
(0.00213956 0.0032237 0.00412288)
(0.00259334 0.0034225 0.00428094)
(0.00266652 0.00299774 0.00419637)
(0.00273667 0.00271929 0.00420391)
(0.00253471 0.00223042 0.00417152)
(0.00241934 0.0019557 0.00419478)
(0.00223691 0.00162241 0.00419261)
(0.00210923 0.00141755 0.00420747)
(0.00196378 0.00120798 0.00421303)
(0.00184549 0.00107435 0.00422838)
(0.00173245 0.000960105 0.0042448)
(0.00163382 0.000889905 0.00426829)
(0.00154421 0.000843728 0.00429336)
(0.0014658 0.000821105 0.00432104)
(0.00139699 0.000810207 0.00434913)
(0.00133523 0.000806742 0.0043767)
(0.00127899 0.000809103 0.00440343)
(0.00122708 0.000810568 0.00442747)
(0.00117945 0.000820075 0.0044476)
(0.00112731 0.000813863 0.004463)
(0.00108853 0.000843873 0.00448207)
(0.00102096 0.000792527 0.00448936)
(0.00101453 0.000893934 0.00451617)
(0.000914065 0.000708053 0.00451202)
(0.000970728 0.00100604 0.00454856)
(0.000807713 0.000543336 0.00452287)
(0.000960629 0.00124159 0.00456648)
(0.000712897 0.000294663 0.00451221)
(0.000986918 0.00165844 0.0045604)
(0.000651831 -4.2538e-05 0.00447187)
(0.00107134 0.00230529 0.00453713)
(0.000710203 -0.000479323 0.00442538)
(0.0013026 0.00321562 0.00454726)
(0.000931341 -0.00106925 0.00440761)
(0.0014875 0.00432613 0.00448779)
(0.00110778 -0.00211259 0.0042882)
(0.00158179 0.00543118 0.00398311)
(0.00171252 -0.00462123 0.00390263)
(0.00237069 0.00774208 0.00265568)
(0.00213869 -0.00700156 0.00458918)
(0.0109264 0.0118851 0.00816629)
(0.0132696 -0.0223905 0.0121194)
(0.0269842 0.0166236 0.030871)
(0.0176661 -0.0479016 0.0300068)
(-0.0024141 0.0551438 0.0578715)
(-0.101366 -0.127688 0.0458204)
(-0.00562795 0.185518 -0.160091)
(0.139089 -0.0689656 0.00450166)
(0.159627 0.4538 0.00546675)
(0.0629392 0.591882 -0.00292202)
(0.0623386 0.512032 0.00602097)
(0.0217337 0.53195 0.00466677)
(0.0216117 0.440251 0.00401861)
(0.00584718 0.381047 -0.000831607)
(0.00245883 0.364522 -0.0040365)
(-0.00169971 0.358389 -0.00558222)
(-0.00392826 0.362262 -0.0067688)
(-0.00637882 0.368959 -0.00640892)
(-0.00797726 0.374652 -0.00537433)
(-0.00876442 0.378425 -0.0035557)
(-0.00855154 0.374514 -0.00165168)
(-0.00790493 0.367971 0.000178395)
(-0.00694733 0.353931 0.00167544)
(-0.0060748 0.3269 0.00314083)
(-0.00492064 0.295509 0.00434645)
(-0.00366474 0.257519 0.00517622)
(-0.00264508 0.21779 0.00585568)
(-0.00215718 0.172568 0.00636976)
(-0.00228489 0.134526 0.00669084)
(-0.0028225 0.100141 0.00677525)
(-0.00361775 0.0682351 0.00655603)
(-0.00464045 0.0424466 0.00623746)
(-0.00593999 0.0305713 0.0057926)
(-0.007486 0.0236525 0.00523088)
(-0.00922386 0.0184206 0.0042017)
(-0.0110596 0.014335 0.00283422)
(-0.0129626 0.0117773 0.00161887)
(-0.0145213 0.0105448 0.00135645)
(-0.0155547 0.0102724 0.00182244)
(-0.0165385 0.0108213 0.00227063)
(-0.0190906 0.0123603 0.00318521)
(-0.0231567 0.0139659 0.00665366)
(-0.0287536 0.0147053 0.0126427)
(-0.0351756 0.0101527 0.0176759)
(0.0215251 0.0234028 0.00679558)
(0.0293558 0.0222843 0.00654747)
(0.0175139 0.0131137 0.00194575)
(0.0215624 0.0161655 0.00285867)
(0.0146915 0.00715379 0.00067967)
(0.0153754 0.0094271 0.000646356)
(0.00870455 0.00326255 -0.000233631)
(0.00580667 0.00446006 0.000527287)
(0.00111337 0.000553516 0.00140139)
(-1.8801e-05 0.00155754 0.00215209)
(-0.000274607 0.000626916 0.00269912)
(0.000369633 0.00193814 0.00368974)
(0.000775011 0.00222066 0.00404667)
(0.00136592 0.002851 0.00438013)
(0.0015501 0.00257415 0.00440581)
(0.00163625 0.0024493 0.00449152)
(0.00137457 0.00202736 0.00446084)
(0.0011991 0.00185898 0.00447986)
(0.000966818 0.00160488 0.00444317)
(0.000808165 0.00148149 0.00441888)
(0.000644707 0.00132486 0.00437522)
(0.000518041 0.0012303 0.00433993)
(0.000401716 0.00113731 0.00430426)
(0.000304437 0.00107839 0.00427605)
(0.000222525 0.00103518 0.00425091)
(0.00015816 0.00101353 0.00423216)
(0.000107162 0.00100285 0.00421778)
(6.52662e-05 0.00100264 0.00420574)
(3.02421e-05 0.00100868 0.00419508)
(-1.07746e-07 0.0010151 0.00418377)
(-2.72111e-05 0.00102736 0.00417215)
(-5.88959e-05 0.00102348 0.0041589)
(-7.81828e-05 0.00105237 0.00415245)
(-0.000122323 0.001008 0.00413597)
(-0.000107138 0.00110927 0.00414445)
(-0.000188202 0.000950959 0.00411302)
(-0.000110696 0.00124882 0.00414199)
(-0.000257242 0.000843293 0.00408357)
(-8.19444e-05 0.00151949 0.00413817)
(-0.000305949 0.000664912 0.00404731)
(-2.7313e-05 0.00195545 0.00411761)
(-0.000308282 0.000400763 0.0039944)
(4.15587e-05 0.00259257 0.0040708)
(-0.000181037 7.65949e-05 0.00395976)
(0.000171534 0.00349204 0.00404249)
(0.000115184 -0.00026627 0.00400028)
(0.000407743 0.00468321 0.00407819)
(0.000525383 -0.00120983 0.00405181)
(0.00113283 0.0057942 0.00404345)
(0.00132725 -0.00371393 0.00359302)
(0.00245455 0.00773582 0.00257323)
(0.00327099 -0.00697943 0.00514402)
(0.00986497 0.00966191 0.0108728)
(0.00899863 -0.0116782 0.0193403)
(0.0148032 0.0216626 0.0428451)
(-0.00404314 -0.0267057 0.0523491)
(0.0131585 0.0371741 0.0919552)
(-0.0802894 -0.121325 0.0792389)
(0.0300725 0.0735383 -0.16535)
(0.0890123 -0.0144104 0.0140714)
(0.150798 0.481772 7.82155e-05)
(0.055862 0.595176 -0.00499663)
(0.0581275 0.559665 0.00394566)
(0.0260814 0.601107 0.00256601)
(0.0188913 0.586565 0.00136757)
(0.00692535 0.594281 -0.00163752)
(0.00299293 0.597155 -0.00255694)
(-0.00183033 0.591422 -0.00271824)
(-0.00485299 0.59093 -0.00177364)
(-0.00778566 0.59462 -0.000349388)
(-0.00953275 0.604067 0.00152874)
(-0.0100551 0.595673 0.0032809)
(-0.00930727 0.59598 0.00504789)
(-0.00824859 0.601742 0.00635237)
(-0.00672384 0.593793 0.00750087)
(-0.004685 0.582664 0.00822331)
(-0.00257324 0.578159 0.00866681)
(-0.000931267 0.566645 0.00877977)
(0.000148422 0.553231 0.00869579)
(0.000363643 0.543897 0.00834026)
(-0.000355205 0.519295 0.00799613)
(-0.00142097 0.498526 0.00757887)
(-0.0025695 0.465858 0.00709274)
(-0.00367158 0.425354 0.00655015)
(-0.00484336 0.365458 0.00600298)
(-0.00662697 0.30684 0.00541221)
(-0.00904355 0.260534 0.00459279)
(-0.0114283 0.182069 0.0038544)
(-0.0136494 0.10654 0.00351672)
(-0.0158511 0.0630647 0.00362551)
(-0.0175249 0.0384662 0.0040772)
(-0.0193273 0.0206009 0.00485456)
(-0.0224006 0.0158698 0.00684972)
(-0.0265807 0.0132895 0.00936066)
(-0.0315042 0.0126723 0.0131006)
(-0.0374513 0.00915627 0.0157263)
(0.0171742 0.0222792 0.0065733)
(0.0287821 0.0258605 0.00814117)
(0.015151 0.0127848 0.00336484)
(0.0208367 0.0181923 0.00554625)
(0.0136717 0.0059315 0.00271909)
(0.0151634 0.00909022 0.00253904)
(0.00923822 0.00170421 0.000702287)
(0.00671581 0.00431264 0.000337308)
(0.00158573 0.000320026 0.00103015)
(-0.000502972 0.00147561 0.00206259)
(-0.00186744 -0.000443237 0.00252934)
(-0.00228904 0.000903057 0.0034644)
(-0.00227566 0.00128107 0.00393283)
(-0.00150208 0.00216097 0.00456899)
(-0.0012663 0.00197248 0.00481037)
(-0.00120093 0.00204626 0.00501633)
(-0.00160517 0.00173578 0.00497693)
(-0.00192407 0.00171477 0.00495331)
(-0.00225876 0.00156631 0.00485426)
(-0.00246922 0.00155548 0.00477349)
(-0.00265621 0.00148568 0.0046754)
(-0.00278212 0.00146998 0.00459473)
(-0.00288315 0.00143449 0.00451834)
(-0.00295811 0.00141991 0.00445882)
(-0.00301263 0.00140637 0.00441036)
(-0.0030491 0.00140221 0.00437542)
(-0.00306883 0.00140192 0.00434687)
(-0.00307577 0.00140685 0.00432323)
(-0.00307247 0.00141521 0.0043044)
(-0.00306048 0.00142333 0.00428918)
(-0.00304519 0.00143356 0.00427704)
(-0.00303213 0.00143148 0.00426715)
(-0.00301936 0.00145208 0.00426323)
(-0.00302271 0.00142012 0.0042555)
(-0.00299538 0.00151156 0.00426473)
(-0.00302597 0.00139065 0.00424786)
(-0.0029597 0.00166375 0.004281)
(-0.00302104 0.0013328 0.00424809)
(-0.00289575 0.00194582 0.00431525)
(-0.00298188 0.00121169 0.00426322)
(-0.00282522 0.00237456 0.00433824)
(-0.00290353 0.000983807 0.00426891)
(-0.00278379 0.00296825 0.00431624)
(-0.00273588 0.000617429 0.00427737)
(-0.00277648 0.00380047 0.00425448)
(-0.00241237 0.000167801 0.00429974)
(-0.00248647 0.00492193 0.00423647)
(-0.00176152 -0.000901968 0.0044265)
(-0.00136028 0.00604806 0.00454617)
(-0.000455669 -0.00313642 0.00416909)
(0.00018886 0.00762851 0.00322575)
(0.00259965 -0.00654372 0.0044794)
(0.00208086 0.00833832 0.0100362)
(-0.00297286 -0.0141021 0.0157724)
(-0.00555784 0.0137991 0.0373304)
(-0.0201787 -0.0328241 0.0528151)
(0.00567087 -0.00610674 0.0893399)
(-0.032843 -0.111626 0.0853531)
(0.0304977 -0.0390254 -0.16585)
(0.0490934 0.0592435 0.0162741)
(0.0869799 0.563464 -0.00332065)
(0.0365486 0.640593 -0.00551599)
(0.038717 0.592083 0.00421909)
(0.0244373 0.667181 0.00678069)
(0.0190868 0.632985 0.00773613)
(0.0104153 0.648395 0.00624486)
(0.00538457 0.640938 0.00599631)
(0.000290053 0.63066 0.00604287)
(-0.00364005 0.646638 0.00669218)
(-0.00675671 0.631439 0.00757002)
(-0.00845936 0.651297 0.00842042)
(-0.00928842 0.656156 0.00899745)
(-0.00873498 0.657687 0.00961523)
(-0.00764556 0.639642 0.0100622)
(-0.00579468 0.626626 0.0106799)
(-0.0029809 0.641254 0.0108964)
(-0.000365026 0.64372 0.0108185)
(0.00227595 0.622176 0.0108008)
(0.00510425 0.639681 0.0108457)
(0.0075844 0.630339 0.0104733)
(0.00830573 0.608216 0.0103082)
(0.00856008 0.611643 0.0100674)
(0.00798887 0.605561 0.00958387)
(0.0064086 0.588278 0.00873991)
(0.00447374 0.567588 0.00760918)
(0.00190788 0.536067 0.00699697)
(-0.00145904 0.514866 0.00597648)
(-0.00502049 0.488264 0.00511219)
(-0.00928883 0.436406 0.00418971)
(-0.0130022 0.385328 0.00396231)
(-0.0170512 0.340449 0.00472429)
(-0.0212661 0.310918 0.00600537)
(-0.0266869 0.285849 0.00826166)
(-0.0330072 0.236522 0.0106859)
(-0.041761 0.217896 0.0125522)
(-0.0510098 0.268927 0.0121848)
(0.013239 0.0175514 0.0047514)
(0.0270003 0.0290966 0.0083069)
(0.0110694 0.0120213 0.00404129)
(0.0183997 0.0207155 0.00714837)
(0.0113893 0.00570562 0.00438905)
(0.0132623 0.00956987 0.00432628)
(0.00742627 0.000395001 0.00254333)
(0.00575959 0.00383156 0.00127682)
(0.00103527 -0.0001746 0.00165563)
(-0.000994879 0.00164735 0.00262091)
(-0.00275205 -0.000836646 0.00312336)
(-0.0035349 0.00020322 0.00399218)
(-0.003438 -0.000176074 0.00475863)
(-0.00251615 0.000701135 0.00559625)
(-0.00224554 0.000575377 0.00615176)
(-0.00219322 0.00113393 0.00657723)
(-0.00255765 0.00117137 0.00670942)
(-0.00281163 0.00151117 0.00675752)
(-0.00309496 0.0015761 0.00667753)
(-0.00325431 0.00174268 0.00658947)
(-0.00339816 0.00177865 0.00647654)
(-0.00347797 0.00184327 0.0063839)
(-0.00353578 0.00185705 0.00629784)
(-0.00356618 0.00187463 0.00623276)
(-0.00357567 0.0018805 0.00618146)
(-0.00356604 0.0018867 0.00614451)
(-0.00354494 0.00189225 0.00611578)
(-0.00351402 0.00189784 0.00609424)
(-0.00347714 0.00190169 0.00607822)
(-0.00343381 0.00190335 0.00606676)
(-0.0033882 0.00190589 0.00606008)
(-0.00334291 0.00189961 0.00605764)
(-0.00330436 0.00191259 0.00605979)
(-0.0032756 0.00188881 0.00606049)
(-0.00323418 0.00197387 0.0060694)
(-0.00322961 0.00188013 0.00605619)
(-0.00316729 0.00213823 0.00607206)
(-0.00318542 0.00185021 0.00603074)
(-0.00308061 0.00242141 0.00606307)
(-0.00309762 0.00174335 0.00599472)
(-0.0029725 0.00282889 0.00603977)
(-0.00292499 0.00150736 0.00595469)
(-0.00286981 0.00339832 0.00598942)
(-0.00266094 0.0010781 0.00592362)
(-0.00290325 0.00418725 0.00584762)
(-0.00229569 0.000363887 0.00587936)
(-0.00270259 0.0051989 0.00571002)
(-0.00169432 -0.0011116 0.00594316)
(-0.00182941 0.00650762 0.00626619)
(-0.000552325 -0.00340156 0.00591856)
(-0.000343902 0.0086767 0.00577295)
(0.00412443 -0.00697755 0.00645352)
(0.0027131 0.00911392 0.0114754)
(-0.00254094 -0.0158935 0.0153708)
(-0.0142902 0.0103754 0.0359963)
(-0.0220595 -0.0383862 0.0515152)
(-0.00969697 -0.0195751 0.0883028)
(0.0134814 -0.0953015 0.0836741)
(0.00217363 -0.0699334 -0.15202)
(-0.00489079 0.0967408 0.0130268)
(-0.0100152 0.599174 -0.00949072)
(0.000941915 0.693402 -0.00512659)
(0.00733833 0.700516 0.00762823)
(0.0112411 0.728283 0.0110155)
(0.0109124 0.728055 0.012705)
(0.00765771 0.722596 0.0123311)
(0.00376515 0.730402 0.0123402)
(0.000867458 0.741409 0.0123283)
(-0.00245565 0.727808 0.0125314)
(-0.00466704 0.732502 0.0128602)
(-0.00588152 0.727274 0.0131786)
(-0.00638005 0.728596 0.0134308)
(-0.00567594 0.723935 0.013744)
(-0.00378894 0.71804 0.0139274)
(-0.000828612 0.709507 0.0143657)
(0.00221823 0.701351 0.014564)
(0.0058102 0.696406 0.0147703)
(0.00875334 0.696636 0.014892)
(0.0117407 0.690739 0.0149756)
(0.0144031 0.68727 0.0148414)
(0.0161726 0.682589 0.0147425)
(0.0167727 0.6783 0.0145996)
(0.0161479 0.672547 0.0145542)
(0.0146774 0.66629 0.0146373)
(0.0127559 0.657584 0.0148137)
(0.0101938 0.642541 0.0154686)
(0.00739033 0.631302 0.0159744)
(0.00395159 0.620442 0.0167078)
(0.000298015 0.605008 0.0169497)
(-0.00454284 0.594496 0.0170821)
(-0.00998125 0.565438 0.0169829)
(-0.0168302 0.544819 0.0153719)
(-0.0242304 0.522701 0.0125087)
(-0.0329269 0.485629 0.00599767)
(-0.0446284 0.468359 -0.00835255)
(-0.0531752 0.44289 -0.0281133)
(0.00229425 0.013885 -0.00651201)
(0.0245006 0.0312271 0.00552572)
(0.00495497 0.0112813 0.00156506)
(0.0143795 0.0236742 0.00522747)
(0.00764537 0.00664035 0.00293769)
(0.0101758 0.0113613 0.00310826)
(0.00462083 0.000675298 0.00128369)
(0.00326868 0.00430629 -0.000571033)
(-0.001028 1.78627e-06 -0.00103572)
(-0.00278154 0.00207646 -0.000609499)
(-0.00466163 -0.000850837 -3.45085e-05)
(-0.00580572 -2.9787e-05 0.000581767)
(-0.00661854 -0.00121009 0.00133661)
(-0.00619133 -0.000299723 0.0021197)
(-0.00643683 -0.000263468 0.00281238)
(-0.00656635 0.00061913 0.00332324)
(-0.00705584 0.000846377 0.0036512)
(-0.00733239 0.00137888 0.00384523)
(-0.00760801 0.00154623 0.00390758)
(-0.00772206 0.00181021 0.00392276)
(-0.00781881 0.00191035 0.00389542)
(-0.00785341 0.00202301 0.00387142)
(-0.0078638 0.00207045 0.003847)
(-0.00785241 0.00210929 0.00383312)
(-0.00782406 0.00212866 0.00382503)
(-0.00777884 0.00214382 0.00382422)
(-0.00771721 0.00215389 0.00382778)
(-0.00764197 0.00216179 0.0038349)
(-0.00756071 0.00216807 0.00384283)
(-0.00747412 0.00217272 0.00385052)
(-0.0073905 0.00217886 0.00385833)
(-0.00731099 0.00218027 0.0038668)
(-0.00725054 0.00219762 0.00387613)
(-0.00719749 0.00218636 0.0038836)
(-0.00715438 0.00226577 0.00389139)
(-0.00710561 0.00219689 0.00388589)
(-0.00706715 0.00243084 0.00388468)
(-0.00698552 0.00218918 0.00385825)
(-0.00695971 0.00272243 0.00384657)
(-0.00680817 0.00212227 0.00380755)
(-0.00687192 0.00315232 0.0037903)
(-0.0066096 0.00189462 0.0037481)
(-0.00683784 0.00370473 0.00371757)
(-0.00635956 0.00144328 0.00368381)
(-0.00681125 0.00450123 0.00356084)
(-0.00596779 0.000665975 0.00355125)
(-0.00641395 0.00556908 0.00331313)
(-0.00536279 -0.00104005 0.00337364)
(-0.00566009 0.00697777 0.003735)
(-0.00443009 -0.00410928 0.00316507)
(-0.00459117 0.00892299 0.00382383)
(0.000666116 -0.00798393 0.00511799)
(-0.00326239 0.0111383 0.0080594)
(-0.00711 -0.0169929 0.00997942)
(-0.021884 0.0176134 0.0259227)
(-0.0197442 -0.0520124 0.0403566)
(-0.0284681 -0.0215151 0.0668536)
(0.0487962 -0.124656 0.0691112)
(-0.0326948 -0.014825 -0.166301)
(-0.0532867 0.0428557 0.00282326)
(-0.111721 0.52195 -0.0222344)
(-0.0340549 0.605376 -0.00721718)
(-0.024981 0.590552 0.0026637)
(-0.003614 0.626719 0.00728432)
(-0.000194512 0.625925 0.00840401)
(0.00150517 0.609487 0.00879656)
(-0.00106465 0.630284 0.00936459)