/*--------------------------------*- C++ -*----------------------------------*\
| =========                 |                                                 |
| \\      /  F ield         | OpenFOAM: The Open Source CFD Toolbox           |
|  \\    /   O peration     | Version:  2.3.0                                 |
|   \\  /    A nd           | Web:      www.OpenFOAM.org                      |
|    \\/     M anipulation  |                                                 |
\*---------------------------------------------------------------------------*/
FoamFile
{
    version     2.0;
    format      ascii;
    class       volVectorField;
    location    "34";
    object      U.waterMean;
}
// * * * * * * * * * * * * * * * * * * * * * * * * * * * * * * * * * * * * * //

dimensions      [0 1 -1 0 0 0 0];

internalField   nonuniform List<vector> 
6144
(
(0.00866103 0.0190759 -0.00115711)
(0.00873275 0.00147872 -0.00164633)
(0.00462912 -1.74512e-05 -0.00235646)
(0.00452848 -0.00200624 -0.00233098)
(0.00299032 -0.00287836 -0.00192068)
(0.00294291 -0.00203745 -0.00170161)
(0.00237328 -0.00192891 -0.00137365)
(0.00243757 -0.0007049 -0.00116851)
(0.00226562 1.85081e-05 -0.00114944)
(0.00222005 0.00137832 -0.000825251)
(0.00220568 0.00216039 -0.000591021)
(0.00236511 0.00256487 -0.000298504)
(0.0025145 0.00231326 -0.000212402)
(0.00264744 0.00184575 -0.0001437)
(0.00270138 0.00121915 -0.00030524)
(0.00275963 0.000735531 -0.000434008)
(0.00278571 0.00029643 -0.000623257)
(0.00281895 2.84046e-05 -0.000755019)
(0.00284063 -0.000197843 -0.000884737)
(0.0028531 -0.000315788 -0.000957532)
(0.0028569 -0.000405467 -0.00100895)
(0.00285516 -0.000438615 -0.00103196)
(0.00284801 -0.000457213 -0.00103924)
(0.00283796 -0.000456391 -0.00103135)
(0.00282439 -0.000448949 -0.00101342)
(0.0028094 -0.000438147 -0.000987537)
(0.00279334 -0.000427247 -0.000956362)
(0.00277679 -0.000421279 -0.000918311)
(0.00275963 -0.00041575 -0.000875825)
(0.00274256 -0.000421362 -0.000835607)
(0.00272758 -0.000412736 -0.000795549)
(0.0027103 -0.000446025 -0.0007649)
(0.0026987 -0.000403355 -0.000729087)
(0.00267603 -0.000490452 -0.000712974)
(0.00267303 -0.000344899 -0.000668479)
(0.00264089 -0.000567102 -0.000661534)
(0.0026453 -0.000221465 -0.000592846)
(0.002604 -0.00072624 -0.00059047)
(0.00260981 -3.79488e-05 -0.000486187)
(0.00256754 -0.0010434 -0.000486355)
(0.00257222 0.000167722 -0.00035879)
(0.00255203 -0.00161303 -0.000367808)
(0.00254547 0.000353135 -0.000269304)
(0.00260095 -0.00251004 -0.000328145)
(0.00251817 0.000621903 -0.000351458)
(0.00264294 -0.00359443 -0.000489958)
(0.00244889 0.00154885 -0.000771953)
(0.00248777 -0.00412444 -0.000771455)
(0.00241598 0.00399475 -0.00113771)
(0.00249359 -0.00405954 -0.00116846)
(0.0040206 0.00863439 -0.00187131)
(0.00374304 -0.00930501 -0.00246984)
(0.0047079 0.0139717 -0.00429894)
(0.00458748 -0.0113766 -0.00581244)
(0.00710604 0.036342 -0.00775351)
(0.00559103 -0.0319398 -0.0117261)
(0.0145989 0.0616157 -0.0039613)
(0.00954649 -0.0641679 -0.02112)
(-0.0418997 0.0918897 -0.0879488)
(0.0272575 -0.101827 -0.123714)
(0.110782 -0.23985 -0.0128642)
(0.0731751 -0.0701172 -0.00515112)
(0.0315798 -0.151632 -0.00448213)
(0.0314622 -0.146675 -0.00183266)
(0.0261811 -0.154633 -0.000505684)
(0.0181433 -0.153928 0.00137469)
(0.0128416 -0.162645 0.00210286)
(0.00928418 -0.160525 0.00209665)
(0.00695704 -0.161952 0.00170594)
(0.00492837 -0.156985 0.00119838)
(0.00328409 -0.154412 0.000690959)
(0.00200887 -0.147915 0.000283383)
(0.00114169 -0.143103 -7.23888e-05)
(0.000627108 -0.136315 -0.000359876)
(0.000335953 -0.130834 -0.000558198)
(0.000225894 -0.124755 -0.000704485)
(0.000181801 -0.119526 -0.000822166)
(0.000215082 -0.114369 -0.000960801)
(0.00034137 -0.109745 -0.00113222)
(0.000559965 -0.105279 -0.00135069)
(0.000782364 -0.100797 -0.00155484)
(0.000927482 -0.0960614 -0.00176781)
(0.000945403 -0.0909909 -0.00195945)
(0.00083682 -0.0854413 -0.00212448)
(0.000601533 -0.0794758 -0.00227703)
(0.000314335 -0.0730055 -0.00234505)
(-0.000116593 -0.06602 -0.00249006)
(-0.00064488 -0.0580563 -0.0026084)
(-0.00136383 -0.0490334 -0.0027535)
(-0.00176352 -0.0384291 -0.0026383)
(-0.00100269 -0.0280314 -0.00265199)
(-0.00016869 -0.0186408 -0.00430897)
(-0.000301488 -0.00847001 -0.00460343)
(-0.00134095 0.000972697 -0.00190557)
(-0.00138228 0.00675611 0.00542413)
(-0.000929501 0.00434784 0.0116109)
(0.0177709 0.0221618 0.00246572)
(0.0183304 0.00975512 0.00211502)
(0.0107638 0.00689092 -1.74296e-06)
(0.0107342 0.00437303 0.000857784)
(0.00658813 0.00110273 0.00128095)
(0.00627611 0.000813846 0.00167242)
(0.00428477 -0.000597434 0.00210147)
(0.00410122 0.000633646 0.00185802)
(0.00363488 0.00134426 0.00162512)
(0.00375441 0.00291076 0.00175499)
(0.00397422 0.00347988 0.00194406)
(0.00452277 0.00376527 0.00233613)
(0.00487103 0.00329421 0.00247213)
(0.00519843 0.00278717 0.0025693)
(0.00527389 0.00203742 0.00249017)
(0.005375 0.00146936 0.00243507)
(0.00537288 0.000913144 0.00233337)
(0.005415 0.000564285 0.0022603)
(0.00542902 0.000257042 0.0021709)
(0.00543944 8.51489e-05 0.00212152)
(0.0054303 -5.13435e-05 0.00208887)
(0.00541277 -0.000115495 0.00208536)
(0.00538567 -0.000157794 0.00209717)
(0.00535286 -0.000171299 0.0021255)
(0.00531512 -0.000173707 0.00216306)
(0.00527511 -0.000169222 0.00220838)
(0.00523366 -0.000162354 0.00225837)
(0.0051919 -0.00015926 0.00231061)
(0.00515036 -0.000153796 0.00236387)
(0.00510875 -0.000159121 0.00241152)
(0.0050762 -0.000150395 0.00245666)
(0.0050323 -0.000183802 0.00249253)
(0.0050095 -0.000138484 0.00253449)
(0.00494872 -0.000231107 0.00255856)
(0.00495035 -7.46563e-05 0.00260703)
(0.00486339 -0.000327338 0.00261982)
(0.00489738 5.95792e-05 0.00268643)
(0.0047781 -0.000532312 0.00268671)
(0.00485134 0.000265036 0.00278003)
(0.00470991 -0.00092659 0.00276705)
(0.0048282 0.000525347 0.00288439)
(0.0046911 -0.00159155 0.00285847)
(0.00484097 0.000860009 0.00297206)
(0.00475045 -0.00257425 0.00292925)
(0.00483232 0.00138792 0.00296441)
(0.00478273 -0.00382955 0.00284789)
(0.00461607 0.0024044 0.00257847)
(0.00445585 -0.00487443 0.00248429)
(0.00404068 0.00425467 0.00175888)
(0.00403579 -0.00526095 0.00207944)
(0.00683921 0.00721428 0.000814584)
(0.00668421 -0.00783595 -5.50598e-05)
(0.00574301 0.0154015 -0.000897337)
(0.00492101 -0.00858546 -0.000846513)
(0.0198134 0.0379501 0.00244352)
(0.0308921 -0.0431152 -0.00138775)
(-0.0166535 0.0298959 0.00515738)
(-0.0122133 -0.0232745 -0.0144867)
(0.0192485 0.156247 -0.0217571)
(0.156092 -0.124121 -0.0715385)
(0.163028 -0.2211 -0.00113105)
(0.0584787 0.0749386 0.00867258)
(-0.0113806 -0.117999 0.00370543)
(0.00206178 -0.0686474 0.0075349)
(-0.00165272 -0.0944258 0.00868756)
(-0.00791866 -0.10583 0.00989359)
(-0.00964607 -0.117948 0.00902188)
(-0.010297 -0.119875 0.00805054)
(-0.010192 -0.125492 0.00679234)
(-0.0103211 -0.124295 0.0055963)
(-0.0101923 -0.124898 0.0045629)
(-0.00993633 -0.120991 0.00367961)
(-0.00932636 -0.118365 0.00288423)
(-0.00850944 -0.113493 0.00217175)
(-0.00758962 -0.109751 0.00153357)
(-0.00661604 -0.105166 0.00104869)
(-0.00533257 -0.101095 0.00072648)
(-0.00400794 -0.0966256 0.000574193)
(-0.00316155 -0.0921903 0.00047283)
(-0.0028409 -0.0876237 0.000398425)
(-0.00283181 -0.0828951 0.000384641)
(-0.00295737 -0.0779664 0.000418961)
(-0.0030638 -0.0728951 0.000497757)
(-0.00315528 -0.0678032 0.000632376)
(-0.00334844 -0.0627885 0.000799389)
(-0.00376071 -0.0578778 0.00100136)
(-0.0044614 -0.0529546 0.00107187)
(-0.00540438 -0.0476263 0.000962436)
(-0.00666446 -0.041732 0.000460357)
(-0.00742946 -0.0343519 0.000192711)
(-0.00674645 -0.0262855 0.000145864)
(-0.00549332 -0.0180296 -0.00127772)
(-0.00536218 -0.008724 -0.00169313)
(-0.00613459 1.60156e-05 0.00147726)
(-0.00735963 0.00511408 0.00950775)
(-0.00664451 0.00307635 0.0164967)
(0.0213442 0.0228678 0.00359582)
(0.0227346 0.0141068 0.00352509)
(0.01428 0.0105545 0.00126111)
(0.0143411 0.00916081 0.00226001)
(0.00840721 0.00459281 0.00248454)
(0.00749639 0.00370801 0.00294452)
(0.00401034 0.000963581 0.00347981)
(0.00344157 0.00177005 0.0032559)
(0.00260951 0.00207817 0.00301169)
(0.00303899 0.00342827 0.00313282)
(0.00344018 0.0035984 0.00326779)
(0.00432778 0.00383636 0.00358579)
(0.00475776 0.00335471 0.00370257)
(0.00519184 0.00302818 0.00379673)
(0.00528163 0.00237336 0.00374908)
(0.00539666 0.00189737 0.00373699)
(0.00533065 0.00135289 0.00369515)
(0.00532608 0.000999102 0.00369234)
(0.0052558 0.000659488 0.00368593)
(0.00520877 0.000457179 0.00370152)
(0.0051396 0.000284034 0.00371964)
(0.00507746 0.000188211 0.00374985)
(0.00501173 0.000117753 0.00378234)
(0.0049498 8.29148e-05 0.00382112)
(0.00488833 6.48922e-05 0.00386123)
(0.00482938 5.93953e-05 0.00390292)
(0.0047724 6.08293e-05 0.00394497)
(0.00471692 6.09891e-05 0.00398757)
(0.00466288 6.41804e-05 0.00402998)
(0.00460838 6.06835e-05 0.00407227)
(0.00456058 6.55274e-05 0.00411489)
(0.00449782 4.39539e-05 0.00415278)
(0.0044581 7.86644e-05 0.0041941)
(0.00437314 3.17486e-07 0.00422528)
(0.00436524 0.000125858 0.0042731)
(0.00424429 -0.000105424 0.00429539)
(0.00429073 0.000230003 0.00435369)
(0.00411664 -0.000323933 0.00436434)
(0.00424133 0.000419603 0.00443732)
(0.00400721 -0.000693453 0.00442786)
(0.00423681 0.000742503 0.004513)
(0.00393819 -0.00123641 0.00447019)
(0.00430066 0.0012705 0.0045652)
(0.00397841 -0.00198647 0.00448336)
(0.00439461 0.00208117 0.00457287)
(0.00408184 -0.00313055 0.00446711)
(0.00421252 0.00312564 0.00440142)
(0.00383137 -0.00467541 0.00434923)
(0.00336559 0.00446398 0.00360939)
(0.0038312 -0.00603863 0.00415131)
(0.00585951 0.00615065 0.00262269)
(0.00595913 -0.0056436 0.00207091)
(0.00457982 0.0182264 0.00239682)
(0.00373401 -0.0182082 0.00424799)
(0.0288537 0.0230644 0.00682027)
(0.0418876 -0.0546461 0.00274541)
(-0.0437004 0.0552504 0.0200213)
(-0.0602317 -0.109875 -0.0044005)
(-0.0451806 0.153735 -0.0493773)
(0.158662 -0.13571 -0.0444013)
(0.184885 -0.186855 0.00242091)
(0.0784312 0.121109 0.00821506)
(0.0704039 -0.109357 0.00905602)
(0.0369952 -0.0350663 0.0135067)
(0.0161135 -0.0704949 0.0134036)
(0.00786872 -0.0776424 0.0126637)
(0.002041 -0.0869767 0.0103533)
(-0.00319346 -0.0877051 0.00815257)
(-0.00638516 -0.0921261 0.00581888)
(-0.0086993 -0.0897512 0.00382665)
(-0.00998962 -0.0893652 0.00209885)
(-0.0103456 -0.0848325 0.000665269)
(-0.00967103 -0.0818294 -0.00065729)
(-0.00864407 -0.0761253 -0.00174241)
(-0.0077427 -0.0714511 -0.00212432)
(-0.00725431 -0.0658463 -0.00219916)
(-0.00689704 -0.060342 -0.00192832)
(-0.00647426 -0.0541043 -0.00139227)
(-0.00578906 -0.0490484 -0.000691465)
(-0.0051456 -0.0452715 0.000317485)
(-0.00480287 -0.042902 0.00134272)
(-0.00475698 -0.041476 0.00217999)
(-0.0049048 -0.0405206 0.00282379)
(-0.00520378 -0.0396485 0.00330514)
(-0.00567361 -0.0386193 0.00360708)
(-0.00633539 -0.0373454 0.00375981)
(-0.0073241 -0.0356492 0.003745)
(-0.00864884 -0.0334068 0.00335899)
(-0.0104719 -0.0302208 0.00230858)
(-0.011979 -0.0257974 0.00109958)
(-0.0116176 -0.0201255 0.000575432)
(-0.0104318 -0.0140389 -0.000320744)
(-0.010887 -0.00646152 -6.64866e-05)
(-0.0130656 0.000514526 0.00359475)
(-0.0154009 0.00482037 0.0114648)
(-0.0170268 0.00208208 0.018059)
(0.0230378 0.0231577 0.0037052)
(0.0260104 0.0168033 0.00408081)
(0.0162788 0.0120383 0.00109144)
(0.0176421 0.0123079 0.00158308)
(0.0109049 0.00687045 0.0014418)
(0.0100576 0.00628438 0.00218437)
(0.00440567 0.00163847 0.00299827)
(0.00296319 0.00191113 0.00293177)
(0.0014512 0.0013853 0.00293831)
(0.00218325 0.00303157 0.00318505)
(0.00261365 0.00301673 0.00345255)
(0.00352048 0.00347804 0.00392684)
(0.00391335 0.00315829 0.00408954)
(0.00436714 0.00306497 0.00420796)
(0.00444242 0.00251114 0.00414841)
(0.00455633 0.00213737 0.00414409)
(0.00445514 0.0016137 0.0041152)
(0.00443276 0.00128871 0.0041287)
(0.00432969 0.000935784 0.00413192)
(0.00425886 0.000715052 0.00415603)
(0.00416402 0.000511357 0.0041808)
(0.00408224 0.000389411 0.00421739)
(0.00399416 0.00029603 0.00425302)
(0.00391008 0.000243954 0.00429206)
(0.0038299 0.000211134 0.00433254)
(0.00375595 0.00019673 0.00437445)
(0.0036868 0.000192303 0.0044162)
(0.00362157 0.000191021 0.00445787)
(0.00355919 0.000194696 0.00449863)
(0.00349934 0.000195363 0.00453813)
(0.00344499 0.000204104 0.00457679)
(0.00338195 0.0001928 0.00461183)
(0.00333831 0.000223732 0.00465139)
(0.00325875 0.000160787 0.00467995)
(0.00324797 0.000269463 0.00472323)
(0.00313317 6.31915e-05 0.00474198)
(0.00318662 0.000372512 0.00479259)
(0.00301164 -0.000134213 0.00479493)
(0.00316249 0.000580175 0.00485369)
(0.00290783 -0.000450646 0.0048294)
(0.00318617 0.000951498 0.00489582)
(0.00284166 -0.000892016 0.00483374)
(0.00327182 0.00154912 0.00491829)
(0.00288416 -0.00150034 0.00481647)
(0.00348338 0.00241907 0.00495568)
(0.00301692 -0.00246842 0.00480175)
(0.00358474 0.00347437 0.00487695)
(0.00289825 -0.00391647 0.00470151)
(0.00293781 0.00457635 0.0043304)
(0.00322844 -0.00620169 0.00472019)
(0.00383445 0.00657427 0.00344906)
(0.00335956 -0.00644027 0.00333765)
(0.00804283 0.0152888 0.00479051)
(0.00990813 -0.0249862 0.00477709)
(0.0308113 0.0116978 0.0119248)
(0.0302782 -0.0442716 0.00765137)
(-0.0114979 0.0760492 0.0202976)
(-0.0733076 -0.130428 0.0129556)
(-0.0432631 0.195706 -0.0983241)
(0.171403 -0.187079 -0.0259262)
(0.200663 -0.166928 0.00357173)
(0.0780791 0.115191 0.00033318)
(0.0826761 -0.042518 0.0083483)
(0.00182341 0.0432387 0.0133189)
(0.000726831 -0.0313916 0.0162407)
(-0.00319556 -0.025143 0.01104)
(-0.00643569 -0.0401322 0.00604074)
(-0.00935784 -0.0411503 0.00194161)
(-0.0103318 -0.043918 -0.00117629)
(-0.0108736 -0.0388745 -0.00344053)
(-0.0111635 -0.0356204 -0.00517962)
(-0.0111322 -0.0270112 -0.00622576)
(-0.0104821 -0.0187103 -0.00629678)
(-0.00967731 -0.00935982 -0.00475872)
(-0.00900121 -0.00315548 -0.00310303)
(-0.00830412 0.00158503 -0.00146076)
(-0.00735156 0.00415761 -7.17116e-05)
(-0.00604678 0.00521529 0.00106974)
(-0.0047619 0.00479569 0.00199805)
(-0.00413033 0.00292665 0.00298933)
(-0.00409892 0.000250526 0.0038434)
(-0.00459836 -0.00294499 0.00447991)
(-0.00542101 -0.00622209 0.00485456)
(-0.00646405 -0.00936134 0.00505265)
(-0.00768689 -0.0121163 0.0050603)
(-0.00911662 -0.0143573 0.00486704)
(-0.0108169 -0.0158146 0.00433359)
(-0.0127307 -0.0164355 0.00328626)
(-0.0144813 -0.0159934 0.001885)
(-0.0153168 -0.0146094 0.000796882)
(-0.0149479 -0.0120337 0.000587079)
(-0.0145043 -0.00829984 0.000614385)
(-0.0157271 -0.00317517 0.00139988)
(-0.0182912 0.00150196 0.00520647)
(-0.0217258 0.00438002 0.0125658)
(-0.024253 0.00139631 0.0187579)
(0.0232843 0.0232359 0.00440286)
(0.0282257 0.0193215 0.00507562)
(0.0175053 0.0125674 0.00119647)
(0.0201839 0.0141603 0.00157321)
(0.0133175 0.00754351 0.000400613)
(0.0132806 0.00830813 0.000952132)
(0.00635729 0.00275296 0.00116685)
(0.00374607 0.00287884 0.00179312)
(0.000448821 0.000363026 0.00222299)
(0.000696447 0.00195313 0.00275973)
(0.00107928 0.00178057 0.00319238)
(0.00186401 0.00270631 0.0039128)
(0.00213995 0.00266023 0.00412278)
(0.0025937 0.00285875 0.00428084)
(0.00266689 0.00243392 0.00419627)
(0.00273705 0.00215548 0.00420381)
(0.00253512 0.00166662 0.00417143)
(0.00241979 0.00139192 0.00419469)
(0.00223739 0.00105864 0.00419252)
(0.00210974 0.00085379 0.00420737)
(0.00196431 0.000644259 0.00421294)
(0.00184601 0.00051069 0.00422828)
(0.00173296 0.000396536 0.00424471)
(0.00163432 0.000326424 0.0042682)
(0.00154471 0.000280293 0.00429327)
(0.00146628 0.000257653 0.00432095)
(0.00139746 0.000246716 0.00434903)
(0.00133568 0.000243228 0.0043766)
(0.00127944 0.000245591 0.00440334)
(0.00122754 0.000247081 0.00442737)
(0.00117994 0.000256627 0.00444751)
(0.00112783 0.000250453 0.00446291)
(0.00108908 0.000280484 0.00448198)
(0.00102153 0.000229156 0.00448927)
(0.00101511 0.000330581 0.00451607)
(0.000914631 0.000144757 0.00451193)
(0.000971287 0.000442837 0.00454847)
(0.000808272 -1.97559e-05 0.00452279)
(0.000961178 0.000678521 0.0045664)
(0.000713449 -0.000268425 0.00451214)
(0.00098745 0.00109526 0.00456033)
(0.00065236 -0.000605767 0.0044718)
(0.00107187 0.00174196 0.00453705)
(0.000710769 -0.0010426 0.0044253)
(0.00130318 0.00265226 0.00454718)
(0.000932 -0.00163245 0.00440754)
(0.00148818 0.00376259 0.0044877)
(0.00110861 -0.00267765 0.0042881)
(0.00158268 0.00485346 0.00398298)
(0.00171369 -0.00523933 0.00390249)
(0.00237219 0.00703132 0.00265553)
(0.00214132 -0.00788309 0.00458829)
(0.0109277 0.0106799 0.00816442)
(0.0132645 -0.0241035 0.0121187)
(0.0269669 0.0140557 0.0308538)
(0.0176532 -0.0511113 0.0300074)
(-0.00247677 0.050791 0.0577548)
(-0.100842 -0.131846 0.0455061)
(-0.0034144 0.16391 -0.161215)
(0.12367 -0.239602 -0.00883534)
(0.181756 -0.12032 0.00560946)
(0.0692376 0.116642 -0.00542079)
(0.0799447 0.025798 0.0062096)
(0.0282866 0.0739894 0.00633032)
(0.0286727 0.0237804 0.00712038)
(0.00912415 0.0291639 0.00191084)
(0.00410522 0.0205561 -0.00221943)
(-0.000656588 0.0255759 -0.004578)
(-0.00322289 0.0286389 -0.00653586)
(-0.00589498 0.0383695 -0.00706961)
(-0.00775293 0.0448095 -0.00649055)
(-0.00905278 0.0536346 -0.00475124)
(-0.00913831 0.0586374 -0.0026299)
(-0.00867541 0.0628796 -0.000370151)
(-0.00776313 0.0642206 0.00141797)
(-0.00664226 0.0645341 0.00299974)
(-0.00522568 0.0624026 0.0043176)
(-0.00379407 0.0588721 0.00524823)
(-0.00260328 0.0542234 0.00598266)
(-0.00206955 0.0483041 0.00655448)
(-0.00219154 0.0419415 0.00688216)
(-0.00272385 0.0352498 0.00692726)
(-0.00356321 0.0287167 0.00666555)
(-0.00462461 0.0222906 0.00629635)
(-0.00593683 0.0162422 0.00583873)
(-0.00748264 0.0106243 0.00526606)
(-0.00921951 0.00581857 0.00422567)
(-0.0110542 0.00202351 0.00284783)
(-0.0129506 -0.000248237 0.00163012)
(-0.0145068 -0.00114642 0.00136614)
(-0.0155379 -0.00104598 0.00182757)
(-0.0165252 -9.9791e-06 0.00227494)
(-0.0190768 0.00219484 0.00319125)
(-0.0231375 0.00428316 0.00666187)
(-0.0287344 0.00540785 0.0126479)
(-0.0351548 0.00137518 0.0176796)
(0.0215255 0.0230151 0.00679529)
(0.0293555 0.0218885 0.00654739)
(0.0175143 0.0127007 0.00194586)
(0.0215624 0.0157327 0.00285885)
(0.0146918 0.00670055 0.000679836)
(0.0153756 0.00895121 0.00064643)
(0.00870485 0.00276209 -0.000233629)
(0.00580698 0.00393403 0.000527225)
(0.00111378 6.47411e-06 0.00140132)
(-1.83729e-05 0.000999378 0.00215202)
(-0.000274147 6.56302e-05 0.00269906)
(0.000370078 0.00137559 0.00368966)
(0.000775457 0.0016573 0.00404658)
(0.00136636 0.00228737 0.00438003)
(0.00155055 0.00201046 0.00440571)
(0.00163672 0.00188563 0.00449143)
(0.0013751 0.00146373 0.00446075)
(0.00119969 0.00129536 0.00447977)
(0.000967456 0.00104127 0.00444308)
(0.000808835 0.000917891 0.00441879)
(0.000645401 0.000761285 0.00437513)
(0.000518734 0.000666768 0.00433984)
(0.000402389 0.000573853 0.00430418)
(0.00030509 0.000515011 0.00427598)
(0.000223158 0.000471836 0.00425083)
(0.000158772 0.000450168 0.00423209)
(0.000107748 0.000439462 0.00421771)
(6.58293e-05 0.000439232 0.00420567)
(3.08012e-05 0.00044528 0.00419501)
(4.69637e-07 0.00045174 0.0041837)
(-2.6611e-05 0.000464045 0.00417209)
(-5.82647e-05 0.00046019 0.00415884)
(-7.75212e-05 0.000489099 0.0041524)
(-0.000121648 0.000444739 0.00413591)
(-0.00010646 0.000546022 0.00414439)
(-0.00018754 0.000387763 0.00411296)
(-0.000110044 0.0006857 0.00414194)
(-0.000256603 0.000280278 0.00408352)
(-8.13249e-05 0.000956489 0.00413813)
(-0.000305335 0.00010191 0.00404727)
(-2.67248e-05 0.00139237 0.00411757)
(-0.000307696 -0.000162374 0.00399436)
(4.21448e-05 0.00202934 0.00407075)
(-0.00018041 -0.000486579 0.00395972)
(0.000172171 0.00292879 0.00404244)
(0.000115896 -0.000829356 0.00400024)
(0.000408469 0.00411966 0.00407813)
(0.000526239 -0.00177575 0.00405173)
(0.00113371 0.00521451 0.0040433)
(0.00132838 -0.00433428 0.00359289)
(0.00245596 0.00702537 0.00257307)
(0.00327378 -0.00788857 0.00514337)
(0.00986682 0.00837073 0.0108702)
(0.00899657 -0.0135182 0.0193368)
(0.0147851 0.0189728 0.0428146)
(-0.00401464 -0.0299823 0.052316)
(0.0130728 0.0331475 0.0917922)
(-0.0800197 -0.124726 0.0789414)
(0.0310372 0.0497274 -0.16772)
(0.0728174 -0.252702 -0.00398811)
(0.147104 -0.06406 0.000348615)
(0.0573907 0.135923 -0.0072149)
(0.0638348 0.0904624 0.00523995)
(0.0302188 0.123515 0.00411878)
(0.0242973 0.107395 0.00330524)
(0.0110393 0.112687 -0.000338448)
(0.00629992 0.108841 -0.00191704)
(0.00122375 0.115274 -0.00287223)
(-0.00189631 0.117267 -0.00249742)
(-0.0052668 0.123904 -0.00128403)
(-0.00753718 0.126127 0.00042329)
(-0.00845176 0.130117 0.00237683)
(-0.00835559 0.129839 0.00428326)
(-0.00771058 0.129484 0.00585542)
(-0.00697366 0.126642 0.00706115)
(-0.00479592 0.123569 0.00802075)
(-0.00271986 0.118755 0.0086807)
(-0.000717021 0.11291 0.00900715)
(0.000853548 0.106105 0.00910527)
(0.00155604 0.0978038 0.0089712)
(0.0010914 0.0885897 0.00871019)
(-1.2133e-05 0.0786904 0.00829831)
(-0.00117978 0.0691168 0.00771377)
(-0.00234816 0.0593332 0.00717518)
(-0.00384188 0.0497376 0.00651779)
(-0.0058843 0.0402435 0.00576643)
(-0.00824888 0.0316296 0.00476023)
(-0.0109605 0.0240027 0.0036936)
(-0.0136721 0.0182274 0.00312648)
(-0.0159158 0.0138509 0.00329687)
(-0.0175233 0.0105797 0.00389337)
(-0.0192672 0.00829402 0.00490075)
(-0.0223661 0.00659985 0.00686193)
(-0.0265601 0.00462317 0.00937142)
(-0.0314749 0.00414881 0.0131145)
(-0.0373872 0.000773448 0.0157471)
(0.017175 0.021896 0.00657311)
(0.0287817 0.0254734 0.00814109)
(0.0151516 0.0123859 0.00336506)
(0.0208367 0.0177753 0.00554645)
(0.0136721 0.0054933 0.00271936)
(0.0151636 0.00862768 0.00253924)
(0.00923866 0.00121626 0.000702427)
(0.00671625 0.00379968 0.000337338)
(0.00158628 -0.000214024 0.00103014)
(-0.000502407 0.000925682 0.00206255)
(-0.00186683 -0.00100199 0.0025293)
(-0.0022885 0.000340736 0.00346434)
(-0.00227514 0.00071763 0.00393277)
(-0.00150157 0.00159723 0.0045689)
(-0.00126575 0.00140868 0.00481027)
(-0.00120033 0.00148249 0.00501623)
(-0.00160451 0.00117204 0.00497683)
(-0.00192335 0.00115106 0.00495321)
(-0.00225799 0.00100261 0.00485418)
(-0.00246841 0.000991757 0.0047734)
(-0.00265538 0.000921973 0.00467532)
(-0.00278129 0.000906323 0.00459465)
(-0.00288234 0.000870899 0.00451827)
(-0.00295733 0.000856372 0.00445876)
(-0.00301187 0.00084286 0.00441031)
(-0.00304838 0.000838699 0.00437537)
(-0.00306814 0.000838403 0.00434682)
(-0.0030751 0.000843317 0.00432318)
(-0.00307181 0.000851703 0.00430434)
(-0.0030598 0.000859866 0.00428913)
(-0.00304449 0.000870141 0.004277)
(-0.0030314 0.00086809 0.00426712)
(-0.00301861 0.00088871 0.00426319)
(-0.00302195 0.000856759 0.00425546)
(-0.00299462 0.000948199 0.00426468)
(-0.00302523 0.000827335 0.00424782)
(-0.00295898 0.0011005 0.00428096)
(-0.00302034 0.00076965 0.00424806)
(-0.00289507 0.00138269 0.00431522)
(-0.00298121 0.000648553 0.0042632)
(-0.00282458 0.00181135 0.00433821)
(-0.0029029 0.000420559 0.00426888)
(-0.00278317 0.00240492 0.00431621)
(-0.00273522 5.41711e-05 0.00427733)
(-0.00277581 0.00323714 0.00425445)
(-0.00241164 -0.000395344 0.00429971)
(-0.00248571 0.00435825 0.00423643)
(-0.00176066 -0.00146822 0.00442644)
(-0.00135939 0.00546855 0.00454603)
(-0.000454631 -0.0037557 0.00416894)
(0.000190222 0.00692317 0.00322569)
(0.00260144 -0.00743251 0.00447964)
(0.0020842 0.00707239 0.0100347)
(-0.00296071 -0.0159185 0.0157712)
(-0.00554971 0.0111868 0.0373136)
(-0.0201372 -0.0361702 0.0527921)
(0.0055969 -0.0101998 0.0892081)
(-0.0327673 -0.114804 0.085195)
(0.0304117 -0.061989 -0.168834)
(0.0375139 -0.268765 -0.00403764)
(0.0777354 0.005417 -0.00230277)
(0.032166 0.180317 -0.00653158)
(0.0378559 0.171953 0.00603974)
(0.0234754 0.199445 0.00719841)
(0.0203853 0.195334 0.00839787)
(0.0121017 0.20171 0.00616757)
(0.00716937 0.198849 0.0059236)
(0.0018545 0.202051 0.00571777)
(-0.00193925 0.199754 0.00645379)
(-0.00512843 0.200633 0.00727817)
(-0.00683634 0.197698 0.0083487)
(-0.00782882 0.197165 0.00891355)
(-0.00739949 0.192856 0.00978566)
(-0.00654206 0.189378 0.0102485)
(-0.00471257 0.183739 0.0111023)
(-0.00259502 0.17873 0.0110484)
(0.000197442 0.173127 0.0113374)
(0.00300668 0.166279 0.0112126)
(0.00573533 0.15927 0.0111371)
(0.0078982 0.151565 0.0108214)
(0.00930037 0.143129 0.0106331)
(0.00966775 0.133476 0.0103938)
(0.00915711 0.122917 0.0100428)
(0.00814427 0.11147 0.00956119)
(0.00666915 0.0998028 0.00866143)
(0.00434492 0.0881933 0.00795369)
(0.00131077 0.0764265 0.00699396)
(-0.00223865 0.0646381 0.00601905)
(-0.00648941 0.0528937 0.00481638)
(-0.0105758 0.0417144 0.00419123)
(-0.0146721 0.0316458 0.00482335)
(-0.0184749 0.0230126 0.00644451)
(-0.0236348 0.0151322 0.00856133)
(-0.0309779 0.00772525 0.010768)
(-0.039842 0.00354865 0.0123097)
(-0.0509634 -0.00074396 0.0119966)
(0.0132398 0.0171702 0.00475133)
(0.0270001 0.0287126 0.00830668)
(0.0110702 0.0116316 0.00404151)
(0.0184 0.020312 0.00714839)
(0.0113899 0.00528143 0.00438927)
(0.0132627 0.00911892 0.0043264)
(0.00742694 -8.41315e-05 0.00254345)
(0.00576024 0.00332663 0.00127685)
(0.00103601 -0.000699196 0.00165562)
(-0.000994172 0.00110479 0.00262085)
(-0.0027513 -0.00139241 0.0031233)
(-0.00353425 -0.000358387 0.00399209)
(-0.00343736 -0.000739382 0.00475852)
(-0.00251553 0.000137443 0.00559611)
(-0.00224486 1.16317e-05 0.00615159)
(-0.00219249 0.00057021 0.00657704)
(-0.00255685 0.000607681 0.00670923)
(-0.00281076 0.000947485 0.00675733)
(-0.00309403 0.00101241 0.00667734)
(-0.00325333 0.00117897 0.00658927)
(-0.00339715 0.00121493 0.00647635)
(-0.00347697 0.00127957 0.00638371)
(-0.00353478 0.0012934 0.00629765)
(-0.0035652 0.00131101 0.00623258)
(-0.00357473 0.0013169 0.00618129)
(-0.00356513 0.0013231 0.00614434)
(-0.00354405 0.00132863 0.00611561)
(-0.00351315 0.00133422 0.00609407)
(-0.00347627 0.00133809 0.00607805)
(-0.00343292 0.0013398 0.0060666)
(-0.00338727 0.00134239 0.00605992)
(-0.00334197 0.00133614 0.00605749)
(-0.0033034 0.00134912 0.00605965)
(-0.00327462 0.00132534 0.00606034)
(-0.0032332 0.00141039 0.00606925)
(-0.00322864 0.00131667 0.00605604)
(-0.00316635 0.00157481 0.00607191)
(-0.0031845 0.00128688 0.0060306)
(-0.00307971 0.00185812 0.00606294)
(-0.00309675 0.00118005 0.00599459)
(-0.00297166 0.00226552 0.00603963)
(-0.00292414 0.000943988 0.00595456)
(-0.00286898 0.00283488 0.00598929)
(-0.00266009 0.000514731 0.00592349)
(-0.00290239 0.00362381 0.0058475)
(-0.0022948 -0.000199321 0.00587923)
(-0.00270168 0.0046352 0.00570989)
(-0.0016934 -0.00167742 0.00594301)
(-0.00182846 0.00592911 0.00626596)
(-0.000551361 -0.00401839 0.00591829)
(-0.000342495 0.00797776 0.00577262)
(0.00412617 -0.0078439 0.00645365)
(0.00271585 0.00789636 0.0114739)
(-0.00253131 -0.017632 0.0153724)
(-0.0142745 0.00788095 0.0359813)
(-0.0220272 -0.041637 0.0514914)
(-0.00966663 -0.0235748 0.0881695)
(0.0134721 -0.0985127 0.0835722)
(0.00215849 -0.0916894 -0.154702)
(-0.00230545 -0.263071 -0.00520156)
(-0.00938518 0.0390916 -0.00612681)
(-0.00149013 0.207608 -0.0074138)
(0.00688864 0.211804 0.00729139)
(0.0113334 0.241299 0.0103131)
(0.0114147 0.240131 0.0125046)
(0.00830854 0.248385 0.0115918)
(0.00488436 0.245254 0.0118327)
(0.00127203 0.247848 0.0116972)
(-0.00200337 0.243731 0.0122331)
(-0.00397243 0.24292 0.0125252)
(-0.00539823 0.238416 0.0130286)
(-0.00595924 0.235472 0.0132772)
(-0.0054272 0.230521 0.0137146)
(-0.00382423 0.226091 0.0138)
(-0.00100376 0.220821 0.0141904)
(0.00179886 0.21554 0.0142293)
(0.00525305 0.20992 0.0144082)
(0.00855251 0.204213 0.0143752)
(0.0115343 0.198715 0.0143564)
(0.013995 0.193724 0.0141277)
(0.015934 0.189047 0.0139105)
(0.0169299 0.184693 0.0137373)
(0.0166408 0.180394 0.0136434)
(0.0155108 0.175897 0.0136141)
(0.0138798 0.170934 0.0136033)
(0.0116026 0.165311 0.0142467)
(0.00922259 0.158131 0.014849)
(0.00640042 0.149965 0.0155206)
(0.0030849 0.139448 0.0162702)
(-0.000804056 0.126903 0.0167599)
(-0.00535738 0.113576 0.0170356)
(-0.0107691 0.0980262 0.0166834)
(-0.0174004 0.0813554 0.0157743)
(-0.026084 0.0614242 0.0127995)
(-0.0380767 0.036696 0.00281133)
(-0.0494568 0.0111767 -0.0141281)
(0.00229665 0.0136698 -0.0065102)
(0.0244999 0.0308308 0.00552552)
(0.00495612 0.0108919 0.00156542)
(0.0143799 0.0232752 0.00522744)
(0.00764605 0.00622473 0.00293795)
(0.0101763 0.0109176 0.0031084)
(0.0046215 0.000199872 0.00128389)
(0.00326931 0.00380229 -0.000570887)
(-0.00102736 -0.000521405 -0.00103558)
(-0.00278097 0.00153663 -0.000609391)
(-0.00466104 -0.00140449 -3.43976e-05)
(-0.00580525 -0.000590462 0.000581869)
(-0.00661812 -0.00177304 0.00133669)
(-0.00619096 -0.00086322 0.00211976)
(-0.00643645 -0.000827009 0.00281242)
(-0.00656594 5.56258e-05 0.00332329)
(-0.00705537 0.000282913 0.00365125)
(-0.00733186 0.000815401 0.00384528)
(-0.00760742 0.000982737 0.00390763)
(-0.00772141 0.00124668 0.0039228)
(-0.00781813 0.0013468 0.00389547)
(-0.0078527 0.00145947 0.00387147)
(-0.00786309 0.00150695 0.00384705)
(-0.00785172 0.00154581 0.00383317)
(-0.00782339 0.00156519 0.00382507)
(-0.00777818 0.00158034 0.00382427)
(-0.00771656 0.0015904 0.00382782)
(-0.00764133 0.0015983 0.00383494)
(-0.00756005 0.00160462 0.00384287)
(-0.00747343 0.00160933 0.00385056)
(-0.00738977 0.00161552 0.00385838)
(-0.00731024 0.00161697 0.00386686)
(-0.00724975 0.0016343 0.00387618)
(-0.00719668 0.00162302 0.00388365)
(-0.00715356 0.00170243 0.00389144)
(-0.00710478 0.00163356 0.00388594)
(-0.00706634 0.00186754 0.00388473)
(-0.00698472 0.00162594 0.0038583)
(-0.00695894 0.00215922 0.00384663)
(-0.00680741 0.00155908 0.00380761)
(-0.0068712 0.00258906 0.00379036)
(-0.00660886 0.00133135 0.00374815)
(-0.00683712 0.00314138 0.00371763)
(-0.00635881 0.000880014 0.00368386)
(-0.0068105 0.0039379 0.00356089)
(-0.00596703 0.000102822 0.00355129)
(-0.00641316 0.00500543 0.00331317)
(-0.00536207 -0.0016056 0.00337367)
(-0.00565935 0.00640034 0.00373496)
(-0.00442945 -0.00472243 0.00316503)
(-0.00459022 0.00823006 0.00382369)
(0.000667318 -0.00884148 0.00511825)
(-0.00325956 0.0099261 0.00805883)
(-0.00710524 -0.0187022 0.00998204)
(-0.0218686 0.0152647 0.0259172)
(-0.0197258 -0.0549843 0.0403494)
(-0.0283781 -0.0253355 0.0667904)
(0.0486214 -0.127821 0.0689478)
(-0.0331637 -0.0379782 -0.169611)
(-0.0391516 -0.257807 -0.0149348)
(-0.100641 -0.00197748 -0.020613)