/*--------------------------------*- C++ -*----------------------------------*\
| =========                 |                                                 |
| \\      /  F ield         | OpenFOAM: The Open Source CFD Toolbox           |
|  \\    /   O peration     | Version:  2.3.0                                 |
|   \\  /    A nd           | Web:      www.OpenFOAM.org                      |
|    \\/     M anipulation  |                                                 |
\*---------------------------------------------------------------------------*/
FoamFile
{
    version     2.0;
    format      ascii;
    class       volVectorField;
    location    "34";
    object      Ur;
}
// * * * * * * * * * * * * * * * * * * * * * * * * * * * * * * * * * * * * * //

dimensions      [0 1 -1 0 0 0 0];

internalField   nonuniform List<vector> 
6144
(
(-3.00861e-07 0.000345197 1.79924e-08)
(-3.23755e-07 0.000369141 -1.40057e-08)
(-2.77616e-07 0.000393809 -3.5501e-08)
(-2.15575e-07 0.000413602 -2.51447e-08)
(-2.30656e-07 0.000435443 1.87783e-09)
(-2.06847e-07 0.00046209 -4.18136e-09)
(-2.34803e-07 0.00049615 -1.64423e-08)
(-2.50794e-07 0.00053188 -2.41598e-08)
(-2.55403e-07 0.000553706 -1.69975e-08)
(-2.44302e-07 0.000560053 -2.50153e-08)
(-2.30623e-07 0.00056125 -2.30796e-08)
(-2.14485e-07 0.000562052 6.19679e-10)
(-1.96987e-07 0.000562762 8.74482e-09)
(-1.76242e-07 0.000563342 1.4568e-08)
(-1.53136e-07 0.000563809 1.19519e-08)
(-1.32719e-07 0.0005642 7.3341e-09)
(-1.15847e-07 0.000564521 -5.4119e-10)
(-9.97561e-08 0.000564795 -6.78965e-09)
(-8.98329e-08 0.000565018 -1.39049e-08)
(-7.77263e-08 0.000565202 -1.9258e-08)
(-7.22855e-08 0.000565345 -2.44065e-08)
(-6.23419e-08 0.000565456 -2.47631e-08)
(-5.88335e-08 0.000565537 -2.58113e-08)
(-5.02907e-08 0.00056559 -2.30614e-08)
(-4.80168e-08 0.000565616 -2.19194e-08)
(-4.0486e-08 0.000565613 -1.74229e-08)
(-3.87846e-08 0.000565593 -1.68509e-08)
(-3.16612e-08 0.000565566 -1.26239e-08)
(-2.98429e-08 0.000565532 -1.15317e-08)
(-2.29178e-08 0.000565486 -8.02883e-09)
(-2.14192e-08 0.000565431 -7.59759e-09)
(-1.42819e-08 0.000565366 -5.44223e-09)
(-1.16333e-08 0.000565294 -5.79703e-09)
(-3.50682e-09 0.000565215 -3.86223e-09)
(1.81658e-10 0.000565129 -4.36836e-09)
(8.98982e-09 0.000565037 -2.46113e-09)
(1.36606e-08 0.00056493 -3.35856e-09)
(2.30663e-08 0.000564811 -1.41503e-10)
(2.87544e-08 0.000564654 -1.39511e-09)
(4.0378e-08 0.000564495 1.0972e-09)
(4.65991e-08 0.000564308 4.45634e-10)
(6.1767e-08 0.000564111 6.6184e-09)
(6.66065e-08 0.000563923 4.90136e-09)
(8.50831e-08 0.000563674 1.532e-08)
(8.91975e-08 0.000563505 1.1e-08)
(1.11972e-07 0.000563193 1.07709e-08)
(1.35935e-07 0.000563043 1.14618e-09)
(1.45232e-07 0.000571758 1.35583e-09)
(9.77517e-08 0.000637628 1.98298e-08)
(-6.26931e-07 0.000799874 8.85044e-08)
(-2.02045e-06 0.00103878 3.77544e-07)
(-4.19955e-06 0.00131448 5.39843e-07)
(-4.15862e-06 0.00167349 1.74998e-06)
(-5.98674e-06 0.00208408 -1.03788e-06)
(5.66478e-06 0.00267736 -1.30217e-06)
(-1.85108e-05 0.00331566 -1.73442e-05)
(5.39874e-05 0.00403851 5.4237e-06)
(-2.72408e-05 0.00479117 2.70694e-05)
(0.000405605 0.0205125 0.00191274)
(0.00931625 0.148971 0.0137271)
(-0.0233675 0.571375 0.0170606)
(-0.0247169 0.403009 0.00458666)
(-0.000361119 0.0227574 5.28904e-05)
(-5.18771e-05 0.00708809 1.88455e-05)
(-5.07141e-05 0.00727965 6.9898e-06)
(-1.39427e-05 0.00736706 8.49977e-06)
(-6.53472e-06 0.00764755 2.36836e-06)
(-1.11402e-05 0.00815767 1.91056e-07)
(-2.3047e-05 0.00869607 -1.936e-06)
(-2.99856e-05 0.00903571 -7.72708e-06)
(-3.61932e-05 0.00915461 -1.39821e-05)
(-3.88049e-05 0.00912658 -2.17825e-05)
(-4.10184e-05 0.00901286 -2.96588e-05)
(-4.08474e-05 0.00888378 -3.27048e-05)
(-4.07298e-05 0.00877433 -2.60591e-05)
(-3.32765e-05 0.00864327 -1.81202e-05)
(-3.97279e-05 0.00848567 -3.54246e-06)
(-4.51621e-05 0.00833113 7.69686e-06)
(-5.34111e-05 0.00818993 1.43867e-05)
(-5.72512e-05 0.00809149 1.24283e-05)
(-4.93642e-05 0.00804132 5.91937e-06)
(-5.24665e-05 0.00802758 -2.7391e-06)
(-4.575e-05 0.00805979 -1.03064e-05)
(-3.75086e-05 0.00812066 -1.17169e-05)
(-5.27542e-05 0.00820868 -1.50048e-05)
(-4.88416e-05 0.00830602 -1.74506e-05)
(-5.19493e-05 0.00838627 -9.72431e-06)
(-5.47888e-05 0.00846538 -2.67438e-05)
(-4.49199e-05 0.00859437 -1.70279e-05)
(-6.19118e-05 0.00867034 -3.69912e-05)
(-5.61701e-05 0.00843284 -7.36823e-05)
(-2.52404e-05 0.00757336 -4.33461e-05)
(-9.45019e-06 0.00662599 -1.11676e-05)
(-1.15059e-05 0.00615817 -1.29971e-05)
(-4.37704e-06 0.00555874 -3.55186e-06)
(-2.29118e-06 0.0047715 -1.97615e-07)
(-4.02786e-07 0.000321503 1.07151e-07)
(-4.76403e-07 0.000357852 5.43265e-08)
(-5.42288e-07 0.000397424 2.31317e-08)
(-5.14534e-07 0.000425692 1.38567e-09)
(-6.07069e-07 0.000451406 2.01961e-08)
(-6.37091e-07 0.000477615 4.35096e-08)
(-7.3983e-07 0.000506918 5.93328e-08)
(-7.96341e-07 0.000536932 6.12329e-08)
(-8.27021e-07 0.000555096 7.08704e-08)
(-8.18608e-07 0.000560271 8.06719e-08)
(-7.7179e-07 0.00056124 8.89142e-08)
(-7.17032e-07 0.000562101 1.20293e-07)
(-6.44023e-07 0.000562963 1.37698e-07)
(-5.69822e-07 0.000563648 1.43728e-07)
(-4.88928e-07 0.000564139 1.38133e-07)
(-4.21408e-07 0.000564515 1.28951e-07)
(-3.61343e-07 0.000564819 1.21956e-07)
(-3.11916e-07 0.000565072 1.12871e-07)
(-2.71432e-07 0.000565277 1.08941e-07)
(-2.38695e-07 0.000565441 1.02842e-07)
(-2.15139e-07 0.000565571 1.03484e-07)
(-1.94171e-07 0.000565674 1.00122e-07)
(-1.80646e-07 0.00056575 1.03747e-07)
(-1.66641e-07 0.000565801 1.03264e-07)
(-1.58194e-07 0.000565828 1.09025e-07)
(-1.48048e-07 0.000565836 1.10092e-07)
(-1.42326e-07 0.000565833 1.16988e-07)
(-1.3389e-07 0.000565822 1.18743e-07)
(-1.28982e-07 0.0005658 1.24712e-07)
(-1.21052e-07 0.000565762 1.26178e-07)
(-1.15467e-07 0.000565714 1.31794e-07)
(-1.04714e-07 0.000565657 1.31945e-07)
(-9.48581e-08 0.000565595 1.36147e-07)
(-7.97119e-08 0.000565527 1.35557e-07)
(-6.67942e-08 0.000565453 1.39121e-07)
(-4.90016e-08 0.000565368 1.38698e-07)
(-3.35894e-08 0.000565272 1.42157e-07)
(-1.30224e-08 0.000565163 1.42927e-07)
(5.52465e-09 0.000565026 1.46422e-07)
(3.34638e-08 0.000564882 1.49142e-07)
(5.63626e-08 0.000564723 1.50892e-07)
(9.15426e-08 0.000564541 1.58911e-07)
(1.16317e-07 0.000564379 1.50392e-07)
(1.57991e-07 0.000564133 1.67451e-07)
(1.70281e-07 0.000564019 1.50052e-07)
(2.18289e-07 0.000563683 1.48861e-07)
(2.33982e-07 0.00056404 1.07949e-07)
(2.75887e-07 0.00056648 1.36157e-07)
(8.27344e-08 0.000597996 1.50484e-07)
(-9.6393e-07 0.000719153 2.7734e-07)
(-3.92193e-06 0.00098576 6.72089e-07)
(-8.22034e-06 0.00136455 7.52017e-07)
(-1.037e-05 0.00181942 2.26616e-06)
(-1.13506e-05 0.00226655 -9.88239e-07)
(8.20012e-06 0.00268291 -3.40442e-06)
(-1.387e-05 0.00317858 -1.60679e-05)
(1.76897e-05 0.00430825 -4.38816e-05)
(-0.000144462 0.00459694 -4.06118e-05)
(-0.00171715 0.0234196 0.00214504)
(0.00536186 0.171108 0.0105901)
(-0.0536743 0.601882 0.0126877)
(-0.0101986 0.408751 -0.00396153)
(0.000654171 0.0286707 0.000202978)
(6.71019e-05 0.00774883 0.000114596)
(2.34833e-05 0.00707254 7.33981e-06)
(-0.000182246 0.00758613 2.4022e-05)
(-0.000277406 0.0083318 2.46428e-06)
(-0.000327045 0.00942232 -5.64789e-06)
(-0.000329575 0.0104683 -7.1902e-05)
(-0.000297627 0.0107037 -0.000132158)
(-0.000270869 0.0104552 -3.3204e-05)
(-0.000265356 0.00992668 -3.79564e-05)
(-0.000254406 0.00978138 -5.0795e-05)
(-0.00024182 0.00938853 -5.71048e-05)
(-7.48389e-05 0.00863937 -4.81488e-05)
(-6.66036e-05 0.00837945 -3.3379e-05)
(-8.28382e-05 0.0081436 -1.86614e-05)
(-9.7014e-05 0.00792555 -1.03407e-05)
(-0.000107191 0.00768941 -9.89148e-06)
(-0.000106945 0.00746146 -2.04564e-05)
(-9.7849e-05 0.00728013 -2.8316e-05)
(-9.51293e-05 0.00717503 -3.01191e-05)
(-9.58923e-05 0.00717599 -3.64054e-05)
(-0.000102896 0.00725911 -3.04709e-05)
(-0.000127052 0.00739347 -2.67958e-05)
(-0.000127599 0.00759645 -2.5643e-05)
(-0.000131852 0.00784685 -1.16966e-05)
(-0.000141542 0.00810558 -2.75384e-05)
(-0.00012793 0.00838919 -2.09009e-05)
(-0.000131969 0.00858871 -3.47374e-05)
(-0.000135336 0.00849483 -6.38345e-05)
(-8.24259e-05 0.00780049 -5.63667e-05)
(-4.0819e-05 0.00683067 -2.00301e-05)
(-3.69087e-05 0.00623704 -8.34159e-06)
(-1.85657e-05 0.00559609 -3.00275e-06)
(-9.08098e-06 0.00481273 -6.65736e-07)
(-4.37497e-07 0.000301114 1.6367e-07)
(-5.21558e-07 0.000338279 1.64942e-07)
(-8.58873e-07 0.000382805 1.16922e-07)
(-8.95547e-07 0.000418606 8.37173e-08)
(-1.09687e-06 0.000451081 1.26731e-07)
(-1.24401e-06 0.000479767 1.12033e-07)
(-1.4179e-06 0.000506836 1.47698e-07)
(-1.50774e-06 0.000532981 1.31034e-07)
(-1.50635e-06 0.000550263 1.32765e-07)
(-1.456e-06 0.000556946 1.32625e-07)
(-1.35724e-06 0.000559166 1.36494e-07)
(-1.2672e-06 0.000561074 1.5577e-07)
(-1.15412e-06 0.000562653 1.66127e-07)
(-1.04014e-06 0.000563653 1.64962e-07)
(-9.24452e-07 0.000564241 1.57035e-07)
(-8.25298e-07 0.000564622 1.48606e-07)
(-7.40886e-07 0.000564914 1.43568e-07)
(-6.70457e-07 0.000565156 1.4203e-07)
(-6.13118e-07 0.000565351 1.41939e-07)
(-5.64135e-07 0.000565507 1.44642e-07)
(-5.29313e-07 0.000565632 1.47004e-07)
(-4.9875e-07 0.000565729 1.51076e-07)
(-4.80238e-07 0.000565798 1.53962e-07)
(-4.61583e-07 0.000565844 1.58255e-07)
(-4.51827e-07 0.000565868 1.6099e-07)
(-4.39229e-07 0.000565875 1.64735e-07)
(-4.33189e-07 0.00056587 1.67002e-07)
(-4.22652e-07 0.000565854 1.70437e-07)
(-4.17133e-07 0.000565827 1.72242e-07)
(-4.0532e-07 0.000565788 1.75147e-07)
(-3.95988e-07 0.000565741 1.76036e-07)
(-3.78588e-07 0.000565685 1.78035e-07)
(-3.62609e-07 0.000565627 1.78893e-07)
(-3.38865e-07 0.000565561 1.80887e-07)
(-3.17035e-07 0.000565486 1.81734e-07)
(-2.87298e-07 0.0005654 1.83226e-07)
(-2.60296e-07 0.000565295 1.83208e-07)
(-2.22517e-07 0.000565174 1.84822e-07)
(-1.90004e-07 0.000565046 1.84494e-07)
(-1.36724e-07 0.000564902 1.87838e-07)
(-1.01534e-07 0.000564758 1.86113e-07)
(-3.70102e-08 0.000564591 1.94296e-07)
(9.36278e-09 0.00056444 1.81553e-07)
(8.39106e-08 0.000564187 1.98078e-07)
(1.17853e-07 0.000564109 1.65482e-07)
(2.06401e-07 0.000563716 1.89576e-07)
(2.19278e-07 0.000564192 1.19534e-07)
(2.38967e-07 0.000565961 1.42749e-07)
(2.55967e-08 0.000581003 2.10952e-07)
(-7.7273e-07 0.000663131 3.0637e-07)
(-3.30698e-06 0.000940823 1.0915e-06)
(-8.48061e-06 0.00139611 1.85776e-06)
(-1.4093e-05 0.00188867 4.36325e-06)
(-6.82754e-06 0.00240398 9.38369e-07)
(7.96886e-06 0.00293538 -5.03573e-06)
(3.40156e-05 0.00322793 -1.38696e-05)
(-6.68517e-06 0.00412361 6.64105e-05)
(-0.000234035 0.00342125 0.000165348)
(-0.00166244 0.0237697 0.00214958)
(0.00885881 0.209767 0.0182935)
(-0.0147687 0.577063 0.0103409)
(-0.00409723 0.486234 0.00101471)
(-0.00896743 0.507033 0.00243445)
(-0.000157564 0.495161 3.82443e-05)
(0.00157095 0.494318 0.000459899)
(0.00477413 0.486567 0.000495078)
(0.00329996 0.506728 0.000520549)
(0.00399827 0.484867 0.000663946)
(0.00274906 0.498516 0.000222532)
(0.00278946 0.490557 0.000407562)
(0.00166041 0.486028 6.77693e-06)
(0.000159631 0.46832 -0.000519624)
(-0.000206283 0.462296 -0.000626959)
(-0.00177695 0.381704 -0.00101831)
(-0.000271272 0.0342526 -0.000263163)
(-0.000293269 0.00921984 -0.000188433)
(-0.000345995 0.00900846 -3.02408e-05)
(-0.000352064 0.00900606 -2.74895e-05)
(-0.000355498 0.00803952 -2.59486e-05)
(-8.20555e-05 0.00715531 -2.34202e-05)
(-6.82779e-05 0.00679091 -2.51591e-05)
(-6.59747e-05 0.00661728 -2.4223e-05)
(-6.84667e-05 0.00660988 -2.78656e-05)
(-8.39511e-05 0.00667566 -1.24185e-05)
(-0.000117637 0.00676703 -7.23365e-06)
(-0.000139473 0.00691782 -2.90051e-06)
(-0.00016832 0.00715365 8.83728e-06)
(-0.000174017 0.00749403 -1.20404e-05)
(-0.000146219 0.00794028 -7.18133e-06)
(-0.000166301 0.00836517 -2.73182e-05)
(-0.000155677 0.00844105 -7.02013e-05)
(-0.000100671 0.00779514 -6.42319e-05)
(-7.00403e-05 0.00684829 -2.89534e-05)
(-5.25164e-05 0.00629162 -1.04806e-05)
(-3.44234e-05 0.00562393 -3.89888e-06)
(-1.97272e-05 0.00477547 2.12055e-06)
(-6.33812e-07 0.000283884 1.72929e-07)
(-7.78708e-07 0.000318068 2.57529e-07)
(-1.45565e-06 0.000363098 1.75821e-07)
(-1.51995e-06 0.000400615 2.18707e-07)
(-1.83672e-06 0.000433826 2.11358e-07)
(-1.99858e-06 0.000464603 1.90487e-07)
(-2.17957e-06 0.000495198 1.84933e-07)
(-2.18929e-06 0.000525574 1.6424e-07)
(-2.11898e-06 0.000546508 1.55243e-07)
(-1.97574e-06 0.00055518 1.54384e-07)
(-1.82259e-06 0.000558217 1.46341e-07)
(-1.67701e-06 0.000560643 1.68483e-07)
(-1.53081e-06 0.000562526 1.72454e-07)
(-1.39511e-06 0.00056363 1.7026e-07)
(-1.26559e-06 0.000564239 1.60085e-07)
(-1.16169e-06 0.00056461 1.46951e-07)
(-1.07469e-06 0.000564886 1.4477e-07)
(-1.01025e-06 0.000565111 1.40092e-07)
(-9.53363e-07 0.000565297 1.45617e-07)
(-9.09403e-07 0.000565444 1.42948e-07)
(-8.6906e-07 0.000565559 1.50375e-07)
(-8.4163e-07 0.000565645 1.48629e-07)
(-8.15647e-07 0.000565702 1.56886e-07)
(-7.9854e-07 0.000565736 1.54873e-07)
(-7.79848e-07 0.000565749 1.62581e-07)
(-7.67377e-07 0.000565747 1.59753e-07)
(-7.51098e-07 0.000565734 1.6647e-07)
(-7.38917e-07 0.000565713 1.62963e-07)
(-7.21121e-07 0.000565682 1.68464e-07)
(-7.05471e-07 0.000565643 1.63884e-07)
(-6.82417e-07 0.000565596 1.68014e-07)
(-6.59573e-07 0.000565545 1.63469e-07)
(-6.28941e-07 0.000565491 1.67925e-07)
(-5.98681e-07 0.000565432 1.63767e-07)
(-5.60136e-07 0.000565365 1.67675e-07)
(-5.20682e-07 0.000565287 1.63025e-07)
(-4.73569e-07 0.000565198 1.65908e-07)
(-4.23261e-07 0.000565088 1.59479e-07)
(-3.66859e-07 0.000564977 1.63013e-07)
(-3.0015e-07 0.000564842 1.5415e-07)
(-2.32632e-07 0.000564711 1.62014e-07)
(-1.42103e-07 0.000564553 1.55007e-07)
(-5.62557e-08 0.000564418 1.51008e-07)
(5.41793e-08 0.000564166 1.44429e-07)
(1.55165e-07 0.000564101 1.31721e-07)
(2.87167e-07 0.000563707 1.17808e-07)
(3.67037e-07 0.000564109 6.73862e-08)
(3.44393e-07 0.000565573 6.84419e-08)
(2.85324e-07 0.000579424 1.0437e-08)
(-5.65857e-07 0.00064561 -5.43268e-08)
(-1.87906e-06 0.00091599 1.06081e-06)
(-7.10706e-06 0.00140548 3.38629e-06)
(-8.46383e-06 0.00195905 8.34645e-06)
(-2.94598e-07 0.00256129 3.64767e-08)
(4.01871e-05 0.00316531 3.70819e-06)
(7.1165e-05 0.00339956 -6.78613e-06)
(1.22558e-05 0.00387601 9.48031e-05)
(-0.000194167 0.00300434 0.00013108)
(-0.000893675 0.0255466 0.0029871)
(0.00582378 0.266517 0.0183246)
(-0.0117051 0.589289 0.00205861)
(-0.000286551 0.476063 0.00171071)
(-0.00154376 0.496435 0.00246267)
(0.0011839 0.479198 0.000514629)
(0.00162202 0.444755 0.00027829)
(0.000871574 0.44559 -0.000250666)
(-0.000747887 0.495509 -0.000501006)
(0.00259913 0.491239 0.000259195)
(0.00035265 0.495534 -0.000379932)
(-0.000507613 0.451618 -0.000847801)
(0.000470748 0.47902 -0.000831099)
(0.000410084 0.48741 -0.000933182)
(-0.00175234 0.483046 -0.00144736)
(-0.00272442 0.489876 -0.00161557)
(-0.00332142 0.487969 -0.00212098)
(-0.00494465 0.484416 -0.00223428)
(-0.00565259 0.476679 -0.00253656)
(-0.00536022 0.450434 -0.00223048)
(-0.00462764 0.326383 -0.00148596)
(-0.000169995 0.0291278 -0.000165719)
(-0.000104539 0.00784398 -1.42373e-05)
(-4.10483e-05 0.00701246 -2.36111e-05)
(-6.19459e-06 0.00659023 -1.7087e-05)
(-1.79103e-05 0.00665071 -1.43603e-05)
(-4.29851e-05 0.00674297 -1.07672e-05)
(-6.63286e-05 0.00684338 1.02105e-05)
(-9.69559e-05 0.0069839 1.81462e-05)
(-0.000120759 0.00723075 -7.42788e-06)
(-0.000128216 0.00764624 6.77442e-07)
(-0.000119877 0.00813466 -1.09024e-05)
(-0.000103572 0.00827035 -6.62571e-05)
(-9.26178e-05 0.00766648 -6.38002e-05)
(-8.16002e-05 0.00680308 -2.7186e-05)
(-5.3003e-05 0.00634411 -1.2678e-05)
(-3.73922e-05 0.00566385 -2.79768e-07)
(-2.4583e-05 0.0047784 3.90405e-06)
(-9.25482e-07 0.00026963 6.08559e-08)
(-1.36316e-06 0.000299075 2.38183e-07)
(-2.30901e-06 0.000342388 1.19139e-07)
(-2.38951e-06 0.000381691 1.55041e-07)
(-2.71544e-06 0.000417361 2.05569e-07)
(-2.80141e-06 0.000451287 1.58192e-07)
(-2.84788e-06 0.000484391 1.87564e-07)
(-2.75969e-06 0.000516922 1.39233e-07)
(-2.59663e-06 0.000541981 1.58244e-07)
(-2.36225e-06 0.000554098 1.42581e-07)
(-2.15018e-06 0.000558169 1.38874e-07)
(-1.95372e-06 0.000560936 1.50191e-07)
(-1.77238e-06 0.000562864 1.55552e-07)
(-1.61932e-06 0.000563906 1.58653e-07)
(-1.49589e-06 0.000564473 1.47473e-07)
(-1.40062e-06 0.000564826 1.40478e-07)
(-1.33127e-06 0.000565087 1.30398e-07)
(-1.27991e-06 0.000565306 1.33329e-07)
(-1.24392e-06 0.000565488 1.27002e-07)
(-1.20935e-06 0.000565633 1.3029e-07)
(-1.18463e-06 0.000565745 1.23726e-07)
(-1.15814e-06 0.00056583 1.29467e-07)
(-1.13716e-06 0.000565888 1.23856e-07)
(-1.11157e-06 0.000565922 1.2997e-07)
(-1.09082e-06 0.000565935 1.24399e-07)
(-1.06448e-06 0.000565931 1.30113e-07)
(-1.04134e-06 0.000565914 1.24365e-07)
(-1.01169e-06 0.000565887 1.29271e-07)
(-9.84442e-07 0.000565851 1.22469e-07)
(-9.50469e-07 0.000565804 1.24805e-07)
(-9.17509e-07 0.000565749 1.168e-07)
(-8.76288e-07 0.000565687 1.19207e-07)
(-8.34943e-07 0.000565621 1.11969e-07)
(-7.85192e-07 0.000565551 1.1412e-07)
(-7.34506e-07 0.000565476 1.07107e-07)
(-6.74757e-07 0.000565392 1.08591e-07)
(-6.13501e-07 0.000565298 1.01175e-07)
(-5.43326e-07 0.000565184 1.00606e-07)
(-4.68378e-07 0.00056507 9.34178e-08)
(-3.84153e-07 0.000564939 9.12501e-08)
(-2.84955e-07 0.000564817 8.64246e-08)
(-1.723e-07 0.00056467 7.94954e-08)
(-5.35519e-08 0.000564543 6.55126e-08)
(8.29452e-08 0.000564341 5.42953e-08)
(2.21435e-07 0.000564284 3.71284e-08)
(3.53048e-07 0.000563897 1.87869e-08)
(4.57864e-07 0.000564015 -4.27773e-09)
(4.84345e-07 0.000566054 -1.52629e-08)
(5.42386e-07 0.000581879 -1.9448e-07)
(1.9721e-08 0.000650209 -3.29924e-07)
(-3.20027e-08 0.000921996 4.53819e-07)
(-4.72991e-06 0.00144781 2.32645e-06)
(-2.51958e-06 0.0021174 4.05941e-06)
(-9.29507e-06 0.00282994 1.12776e-05)
(9.23311e-06 0.00338774 3.20854e-05)
(3.40301e-05 0.00343145 -1.69551e-05)
(1.00165e-05 0.00360071 3.96731e-05)
(-3.73998e-05 0.00252883 0.000121618)
(-0.000326159 0.0251753 0.00323867)
(0.00361542 0.305314 0.0211571)
(-0.00218974 0.570319 -0.00269274)
(0.000439954 0.503829 0.00175174)
(6.75429e-05 0.508653 0.00176598)
(0.00155187 0.493649 0.000582664)
(0.00205327 0.491627 -0.000565683)
(0.0015858 0.497864 -0.00056101)
(-0.000490757 0.493023 -0.000636458)
(0.000897556 0.489974 -0.000288154)
(0.00215671 0.480635 -0.000417649)
(0.0012278 0.455068 -0.000328622)
(0.00150994 0.49828 -0.000275982)
(0.0024878 0.480618 7.76889e-05)
(-0.000798245 0.454271 -0.000505932)
(-0.00194559 0.488517 -0.000255014)
(-0.00320591 0.482319 -0.000414721)
(-0.0064309 0.480571 -0.000841033)
(-0.00751493 0.493174 -0.00217968)
(-0.0082359 0.479174 -0.00269476)
(-0.00855862 0.481906 -0.00297521)
(-0.00877631 0.478758 -0.00297725)
(-0.00797127 0.450733 -0.00160042)
(-0.00644 0.325317 -0.00061936)
(0.000266293 0.0287829 -0.000248891)
(0.000276697 0.00729639 8.55911e-07)
(0.000274315 0.00687494 -2.70648e-06)
(1.40691e-05 0.00688833 2.24794e-07)
(1.25493e-05 0.00709741 1.32665e-05)
(-1.23383e-05 0.00736244 1.63543e-05)
(-3.86159e-05 0.00776788 1.63455e-05)
(-5.00065e-05 0.00819844 -3.11822e-05)
(-7.23029e-05 0.00813961 -7.03465e-05)
(-6.65015e-05 0.00737794 -3.87792e-05)
(-5.3186e-05 0.00672168 -1.68112e-05)
(-3.62104e-05 0.00642783 -1.13338e-05)
(-2.89867e-05 0.00568896 1.55676e-06)
(-2.68821e-05 0.00476801 4.70146e-06)
(-1.42384e-06 0.000259165 2.04785e-07)
(-2.28103e-06 0.000283321 1.22881e-07)
(-3.46488e-06 0.000321754 3.83323e-08)
(-3.35838e-06 0.000359756 1.3883e-08)
(-3.63328e-06 0.000396603 4.02364e-08)
(-3.49604e-06 0.000433517 3.27114e-08)
(-3.39647e-06 0.000469645 5.82247e-08)
(-3.18087e-06 0.000505577 6.50829e-08)
(-2.91264e-06 0.000536152 7.4171e-08)
(-2.56655e-06 0.000552782 9.08937e-08)
(-2.33584e-06 0.000558063 8.56481e-08)
(-2.1018e-06 0.000560916 1.01037e-07)
(-1.90199e-06 0.000562875 1.1013e-07)
(-1.74183e-06 0.000563841 1.2739e-07)
(-1.60883e-06 0.000564355 1.27474e-07)
(-1.5222e-06 0.000564668 1.20435e-07)
(-1.46483e-06 0.000564902 1.21619e-07)
(-1.43675e-06 0.000565099 1.16907e-07)
(-1.41963e-06 0.000565277 1.23462e-07)
(-1.40987e-06 0.000565426 1.14531e-07)
(-1.39522e-06 0.000565546 1.17167e-07)
(-1.37705e-06 0.00056564 1.05428e-07)
(-1.35122e-06 0.000565708 1.0703e-07)
(-1.32375e-06 0.000565752 9.5547e-08)
(-1.29044e-06 0.000565774 9.79243e-08)
(-1.25575e-06 0.000565779 8.71018e-08)
(-1.21576e-06 0.000565771 8.934e-08)
(-1.17518e-06 0.000565753 7.86144e-08)
(-1.13018e-06 0.000565725 7.98106e-08)
(-1.08405e-06 0.000565687 6.88613e-08)
(-1.03276e-06 0.000565639 7.07179e-08)
(-9.79521e-07 0.000565584 6.21381e-08)
(-9.20281e-07 0.000565525 6.507e-08)
(-8.58529e-07 0.000565462 5.73595e-08)
(-7.89825e-07 0.000565393 6.01542e-08)
(-7.17957e-07 0.000565317 5.21504e-08)
(-6.39422e-07 0.000565229 5.41972e-08)
(-5.57513e-07 0.000565125 4.48431e-08)
(-4.64283e-07 0.000565019 4.58802e-08)
(-3.64813e-07 0.000564902 3.6032e-08)
(-2.4391e-07 0.000564792 3.72057e-08)
(-1.18984e-07 0.000564664 2.29008e-08)
(2.51933e-08 0.000564552 1.38353e-08)
(1.73348e-07 0.000564372 -7.70799e-09)
(3.27873e-07 0.000564322 -2.86939e-08)
(4.67418e-07 0.00056389 -4.60895e-08)
(6.09101e-07 0.000564511 -1.4004e-08)
(7.25507e-07 0.000568903 -9.88114e-09)
(1.03071e-06 0.000589586 -8.0482e-08)
(1.2083e-06 0.000668038 -2.14739e-07)
(2.4719e-06 0.000925699 1.86376e-07)
(4.4964e-06 0.00140554 3.65062e-07)
(5.56012e-06 0.00206957 9.31994e-07)
(-8.57936e-06 0.00282398 2.48434e-06)
(-4.95766e-05 0.0035039 3.17688e-05)
(-5.90024e-05 0.00367721 5.45716e-06)
(-2.60794e-06 0.00391678 4.55863e-05)
(6.35209e-05 0.00279192 0.000166131)
(0.000700712 0.0247745 0.00346401)
(-0.00136101 0.313854 0.0210339)
(-5.38726e-05 0.570732 -0.000883285)
(0.00096647 0.497906 0.00240765)
(0.00078121 0.465702 0.00148461)
(0.00193133 0.403973 0.00144908)
(0.000804584 0.402616 -0.000894034)
(0.00175511 0.501142 -0.000664832)
(0.000963454 0.48085 -0.00107062)
(0.00122263 0.467641 -0.000923922)
(0.00185688 0.498367 -0.00143259)
(0.000468592 0.484856 -0.000779671)
(0.00403649 0.495748 0.000490986)
(0.000300658 0.500164 -0.000170614)
(0.00173565 0.493752 -0.000529475)
(0.00182134 0.496069 -0.00107005)
(0.000707368 0.495345 -0.000658395)
(-0.000259288 0.49705 -0.000324606)
(-0.00218344 0.486709 -0.000993374)
(-0.00185258 0.48575 -0.00166855)
(-0.00391851 0.478489 -0.00278212)
(-0.00650381 0.482535 -0.00303352)
(-0.0103786 0.488994 -0.00287182)
(-0.0103941 0.477011 -0.00151938)
(-0.0135662 0.511737 -2.87118e-05)
(-0.0103439 0.453866 0.000470073)
(-0.00854671 0.324078 0.000333478)
(0.000470289 0.0289324 -1.11906e-05)
(0.000517442 0.00649539 3.13403e-05)
(0.000572327 0.00647999 8.50929e-05)
(0.000534703 0.00674323 3.60847e-05)
(0.000336578 0.00668193 -2.55725e-06)
(-4.65618e-05 0.0058744 -0.000422461)
(-7.00487e-05 0.00449945 -1.31424e-05)
(-3.11742e-05 0.00397272 -1.45626e-05)
(-6.8438e-05 0.0040141 -3.59153e-06)
(-0.000165291 0.00401096 -5.4613e-06)
(-0.000202526 0.00398213 -3.21891e-06)
(-2.37415e-06 0.000250928 -7.95129e-08)
(-3.63781e-06 0.000270573 -8.90695e-08)
(-4.91795e-06 0.000302246 -7.23209e-08)
(-4.4885e-06 0.000336993 -1.20928e-07)
(-4.45484e-06 0.000374297 -1.01476e-07)
(-4.05016e-06 0.000414285 -1.39192e-07)
(-3.80056e-06 0.000454573 -9.33063e-08)
(-3.4173e-06 0.000493649 -4.87758e-08)
(-3.08725e-06 0.000527717 -2.39575e-08)
(-2.68899e-06 0.000549393 -9.78658e-09)
(-2.44458e-06 0.000557336 2.46085e-08)
(-2.1438e-06 0.000560855 5.18662e-08)
(-1.94709e-06 0.000563186 5.69348e-08)
(-1.78185e-06 0.000564205 8.51896e-08)
(-1.68823e-06 0.000564701 1.0126e-07)
(-1.62947e-06 0.00056499 1.2685e-07)
(-1.58829e-06 0.000565186 1.21962e-07)
(-1.56297e-06 0.00056535 1.23212e-07)
(-1.5454e-06 0.000565487 1.09918e-07)
(-1.52789e-06 0.000565596 1.06942e-07)
(-1.50856e-06 0.000565685 9.14807e-08)
(-1.48456e-06 0.000565761 8.84136e-08)
(-1.45574e-06 0.000565819 7.38465e-08)
(-1.42021e-06 0.000565858 7.21915e-08)
(-1.37878e-06 0.000565877 6.0197e-08)
(-1.33249e-06 0.000565879 5.99966e-08)
(-1.28267e-06 0.000565868 4.91193e-08)
(-1.23038e-06 0.000565849 4.98317e-08)
(-1.17683e-06 0.000565822 4.1196e-08)
(-1.12234e-06 0.000565785 4.38243e-08)
(-1.06504e-06 0.000565741 3.71062e-08)
(-1.00311e-06 0.000565691 4.07264e-08)
(-9.36106e-07 0.000565636 3.53367e-08)
(-8.64137e-07 0.000565576 3.96964e-08)
(-7.87291e-07 0.000565509 3.60983e-08)
(-7.04813e-07 0.000565435 3.99143e-08)
(-6.17719e-07 0.000565349 3.40146e-08)
(-5.264e-07 0.000565246 3.56281e-08)
(-4.2445e-07 0.000565147 2.8662e-08)
(-3.13425e-07 0.000565042 2.8941e-08)
(-1.81993e-07 0.000564945 2.23609e-08)
(-4.48976e-08 0.000564826 1.91794e-08)
(1.09172e-07 0.00056473 5.75301e-09)
(2.70927e-07 0.000564549 -4.0748e-09)
(4.11239e-07 0.000564534 -1.96548e-08)
(5.92008e-07 0.000564097 -4.77671e-08)
(7.53211e-07 0.000565204 7.20603e-09)
(1.00022e-06 0.000571863 -1.17853e-08)
(1.45467e-06 0.000599219 7.06207e-08)
(2.0459e-06 0.000701087 -6.26345e-08)
(4.42408e-06 0.000974229 -7.4905e-09)
(1.06771e-05 0.00139476 2.85781e-07)
(1.63601e-05 0.0018507 9.02555e-07)
(1.03531e-05 0.00234445 -9.44478e-06)
(-2.7447e-05 0.00309556 1.85271e-05)
(-9.02733e-05 0.00353883 4.35078e-05)
(-6.13484e-05 0.00402898 6.64627e-05)
(0.000117766 0.00316185 0.000194669)
(0.00120087 0.025403 0.00299221)
(-0.00784497 0.309155 0.0200067)
(-0.00085375 0.577289 7.70566e-05)
(0.00113267 0.484128 0.00301037)
(0.00158755 0.402435 0.00212146)
(0.000687782 0.462829 0.000375634)
(-0.000812457 0.421899 -0.00107476)
(0.00100198 0.461408 -0.00036468)
(0.00289902 0.497778 -0.000234196)
(0.00297811 0.48219 -0.000627686)
(0.00311119 0.491751 -0.00099629)
(0.00618245 0.48905 -0.000999194)
(0.00552731 0.513888 -0.000140481)
(0.00326036 0.490842 -0.000134686)
(0.00487481 0.495888 -0.00120999)
(0.00425611 0.49242 -0.00210859)
(0.00475058 0.50433 0.000407308)
(0.00153807 0.505011 0.000300675)
(-0.000144239 0.490138 0.000240342)
(0.0021061 0.499908 0.000231715)
(0.00191643 0.498789 -0.000866572)
(0.00185546 0.494105 -0.00130997)
(-0.00042891 0.472175 -0.002946)
(6.45025e-05 0.361168 -0.00256101)
(-0.00522602 0.484878 -0.00400362)
(-0.00718203 0.48732 -0.00437113)
(-0.00784338 0.462594 -0.00351883)
(-0.00648456 0.416237 -0.00208557)
(-0.00958631 0.411488 -0.0023792)
(0.00488569 0.295536 0.00119851)
(0.00246944 0.294098 0.00114595)
(0.00259713 0.232403 0.00158119)
(0.000180194 0.0519284 -5.85515e-05)
(-0.00395381 0.432028 0.00319774)
(-0.00466711 0.451879 0.00186561)
(-0.00170088 0.428129 -0.00365362)
(-0.000464968 0.44205 -0.00895488)
(0.000108301 0.459488 0.00156461)
(-3.43996e-06 0.000243291 -8.26425e-07)
(-5.61906e-06 0.000260938 -4.71635e-07)
(-6.66974e-06 0.000284963 -3.15367e-07)
(-5.68472e-06 0.000315679 -7.91684e-08)
(-5.18554e-06 0.000353422 -2.5122e-07)
(-4.4411e-06 0.000396869 -1.62151e-07)
(-4.00058e-06 0.000443666 -1.9115e-07)
(-3.46083e-06 0.000486897 -1.00614e-07)
(-3.12538e-06 0.00052071 -1.11436e-07)
(-2.74172e-06 0.000544291 -7.04342e-08)
(-2.48446e-06 0.00055528 -1.64397e-08)
(-2.18773e-06 0.000560174 3.40446e-08)
(-2.00168e-06 0.000563086 7.58404e-08)
(-1.85105e-06 0.000564269 1.22213e-07)
(-1.76183e-06 0.000564772 1.56966e-07)
(-1.72029e-06 0.000565047 1.92202e-07)
(-1.69924e-06 0.00056524 2.24963e-07)
(-1.68619e-06 0.000565392 2.40942e-07)
(-1.67573e-06 0.000565537 2.54351e-07)
(-1.66003e-06 0.000565672 2.48553e-07)
(-1.64478e-06 0.000565787 2.44359e-07)
(-1.62004e-06 0.000565879 2.30027e-07)
(-1.59385e-06 0.000565951 2.23596e-07)
(-1.55796e-06 0.000566004 2.09989e-07)
(-1.52075e-06 0.000566038 2.05384e-07)
(-1.47572e-06 0.000566056 1.94156e-07)
(-1.43164e-06 0.000566061 1.90907e-07)
(-1.38151e-06 0.000566053 1.8168e-07)
(-1.33297e-06 0.000566032 1.80085e-07)
(-1.27867e-06 0.000566002 1.73407e-07)
(-1.22331e-06 0.000565964 1.74711e-07)
(-1.15908e-06 0.000565921 1.71028e-07)
(-1.09347e-06 0.000565874 1.73567e-07)
(-1.01991e-06 0.000565821 1.7075e-07)
(-9.44402e-07 0.000565758 1.73023e-07)
(-8.60998e-07 0.00056569 1.67875e-07)
(-7.76754e-07 0.000565609 1.66103e-07)
(-6.85063e-07 0.000565514 1.58664e-07)
(-5.85331e-07 0.000565429 1.55e-07)
(-4.72124e-07 0.000565338 1.4698e-07)
(-3.38154e-07 0.00056526 1.45251e-07)
(-1.92737e-07 0.000565152 1.34645e-07)
(-2.96774e-08 0.000565076 1.31774e-07)
(1.58865e-07 0.000564888 1.18536e-07)
(3.34667e-07 0.000564904 1.33544e-07)
(5.69989e-07 0.000564477 1.06573e-07)
(7.98521e-07 0.000565471 2.14152e-07)
(1.17795e-06 0.000572053 2.67979e-07)
(1.84551e-06 0.000612191 5.26953e-07)
(2.86572e-06 0.000758842 5.64508e-07)
(4.98638e-06 0.00104198 6.70061e-08)
(7.25571e-06 0.00136513 -8.06471e-07)
(9.59536e-06 0.00167466 -8.57125e-07)
(4.35679e-06 0.00195996 -3.3457e-06)
(-6.69411e-07 0.00258324 2.78632e-06)
(-3.00483e-05 0.00334058 2.7919e-05)
(-0.000129591 0.00431213 9.40735e-05)
(0.000542424 0.00373909 0.000425171)
(0.00163254 0.0279533 0.00228056)
(-0.0111884 0.283646 0.0178896)
(0.00223613 0.569339 0.00515607)
(0.00368174 0.486772 0.00422113)
(0.0051555 0.493393 0.00321034)
(0.00285788 0.493119 0.00213156)
(0.00080935 0.4895 0.0013364)
(0.00133715 0.493231 0.00281361)
(0.00208904 0.493708 0.00228028)
(0.00294652 0.493645 0.00201833)
(0.00279148 0.495474 0.000829207)
(0.00409972 0.49305 -0.000202157)
(0.00515038 0.496208 -0.00105476)
(0.00669838 0.497021 -0.00252621)
(0.00730216 0.500029 -0.00251969)
(0.00828568 0.502514 -0.00138269)
(0.00909594 0.503158 -0.000325593)
(0.0103824 0.504251 0.000611304)
(0.00901983 0.505197 0.00162361)
(0.00628693 0.507354 0.00216541)
(0.0042313 0.496527 0.0018059)
(0.00368652 0.496381 0.00146462)
(0.0024578 0.496248 0.00192973)
(0.00176218 0.498194 0.0018754)
(0.00137144 0.487548 0.00150207)
(0.000218891 0.482177 0.00099674)
(-0.00175955 0.495042 0.00079413)
(-0.0031281 0.491607 0.000607158)
(-0.00436411 0.485336 0.000719596)
(-0.00423277 0.48057 0.00167308)
(-0.00409099 0.491268 0.00269041)
(-0.000993265 0.443989 0.00183959)
(-0.0022696 0.490761 0.00133993)
(-0.00460751 0.488006 0.00026738)
(-0.00495532 0.492533 -0.00602827)
(-0.00479311 0.488216 -0.0175533)
(-0.00568467 0.487032 -0.0318466)
(-0.00599673 0.480709 -0.033231)
(-7.24048e-06 0.0001175 -3.80897e-06)
(-8.18904e-06 0.000259843 -1.32567e-06)
(-8.5169e-06 0.000270015 -7.23161e-07)
(-6.70839e-06 0.00029611 -2.0331e-07)
(-5.72888e-06 0.000333726 -4.36759e-07)
(-4.56601e-06 0.000379437 -3.16368e-07)
(-3.94643e-06 0.000432199 -4.61273e-07)
(-3.2908e-06 0.000481438 -3.4693e-07)