/*--------------------------------*- C++ -*----------------------------------*\
| =========                 |                                                 |
| \\      /  F ield         | OpenFOAM: The Open Source CFD Toolbox           |
|  \\    /   O peration     | Version:  2.3.0                                 |
|   \\  /    A nd           | Web:      www.OpenFOAM.org                      |
|    \\/     M anipulation  |                                                 |
\*---------------------------------------------------------------------------*/
FoamFile
{
    version     2.0;
    format      ascii;
    class       volVectorField;
    location    "34";
    object      Ur;
}
// * * * * * * * * * * * * * * * * * * * * * * * * * * * * * * * * * * * * * //

dimensions      [0 1 -1 0 0 0 0];

internalField   nonuniform List<vector> 
6144
(
(-2.39783e-07 0.000411771 -9.24699e-08)
(-2.92208e-07 0.000448845 -2.55446e-07)
(1.07209e-07 0.000490042 -1.73442e-07)
(3.28035e-07 0.00052344 -1.02832e-07)
(4.87326e-07 0.000554944 -4.53389e-08)
(5.89924e-07 0.000588708 -3.02821e-08)
(6.22911e-07 0.000626289 -6.98719e-09)
(5.91845e-07 0.000664496 1.76076e-08)
(5.28444e-07 0.000692422 3.9396e-08)
(4.53212e-07 0.00070339 2.46013e-08)
(3.72707e-07 0.000704203 7.98839e-09)
(2.92128e-07 0.000702747 1.70471e-08)
(2.09505e-07 0.000701279 2.51936e-08)
(1.38378e-07 0.000699977 2.17385e-08)
(7.9909e-08 0.000698847 1.9427e-08)
(2.89971e-08 0.000697888 1.18663e-08)
(-3.1851e-09 0.0006971 6.988e-09)
(-3.62804e-08 0.000696482 -1.67747e-09)
(-5.59481e-08 0.000696002 -6.98161e-09)
(-8.01956e-08 0.000695629 -1.50473e-08)
(-9.18503e-08 0.000695349 -1.80914e-08)
(-1.09421e-07 0.000695146 -2.57451e-08)
(-1.13573e-07 0.000695012 -2.63342e-08)
(-1.26855e-07 0.000694932 -3.06537e-08)
(-1.25443e-07 0.000694905 -3.02201e-08)
(-1.35841e-07 0.000694923 -3.51509e-08)
(-1.2977e-07 0.000694988 -3.4635e-08)
(-1.37701e-07 0.000695091 -4.23018e-08)
(-1.27175e-07 0.000695237 -4.30345e-08)
(-1.33968e-07 0.00069542 -5.39838e-08)
(-1.1861e-07 0.000695653 -5.8708e-08)
(-1.2284e-07 0.000695936 -7.49821e-08)
(-1.00189e-07 0.000696286 -8.26919e-08)
(-9.96811e-08 0.000696702 -1.03937e-07)
(-6.7205e-08 0.000697209 -1.17318e-07)
(-5.89029e-08 0.000697815 -1.49559e-07)
(-1.05602e-08 0.00069854 -1.73063e-07)
(1.562e-08 0.00069938 -2.17787e-07)
(9.58059e-08 0.000700343 -2.5423e-07)
(1.63312e-07 0.000701428 -3.20817e-07)
(3.11081e-07 0.000702666 -3.9177e-07)
(4.74035e-07 0.000704011 -5.24015e-07)
(7.63292e-07 0.000705755 -6.89889e-07)
(1.1339e-06 0.000718028 -9.92205e-07)
(1.70081e-06 0.000786571 -1.5148e-06)
(2.5725e-06 0.00104285 -2.48092e-06)
(4.23719e-06 0.00162088 -3.41768e-06)
(8.4141e-06 0.0023501 -4.2442e-06)
(8.22249e-06 0.00281117 -7.0891e-06)
(5.52207e-06 0.00287217 -1.0573e-05)
(-7.34033e-06 0.00274325 -1.03479e-05)
(-7.32695e-06 0.00272308 -9.26451e-06)
(-1.01892e-05 0.00288751 -8.11853e-06)
(1.40038e-06 0.00316024 -9.15446e-06)
(-1.32876e-06 0.00353363 -2.06514e-05)
(-2.55001e-06 0.00383742 -7.59632e-06)
(2.73518e-05 0.0040883 -0.000123279)
(6.70754e-05 0.00581162 6.86064e-05)
(-0.000250109 0.0196634 -0.000488538)
(0.009022 0.153224 0.00103142)
(-0.0245852 0.624958 -0.0399066)
(-0.0570082 0.562612 -0.045807)
(-0.0687779 0.315415 -0.0469717)
(-0.000214147 0.026797 -0.000109284)
(-0.00013889 0.00623632 -2.31937e-05)
(-0.000130758 0.00653512 -1.90439e-05)
(-0.000116268 0.00658155 2.76691e-07)
(-6.88577e-05 0.00667495 3.13868e-05)
(-4.28124e-05 0.00673422 1.68425e-05)
(-5.88239e-05 0.00674566 -9.25532e-06)
(-2.4903e-05 0.00676178 -2.41059e-05)
(1.95073e-06 0.00678101 -3.09875e-05)
(-2.8847e-05 0.00681618 -6.24736e-06)
(-4.67549e-05 0.00689683 4.20524e-06)
(-5.26282e-05 0.00697136 -7.52306e-06)
(-2.90557e-05 0.00716884 -1.04291e-05)
(-7.71665e-06 0.00759091 -6.39653e-06)
(-2.71589e-05 0.00796299 2.13917e-05)
(-1.69238e-05 0.00802395 8.77425e-06)
(-1.42242e-05 0.00783726 4.06223e-06)
(-2.02916e-05 0.00759325 -2.78619e-06)
(-1.92262e-05 0.00731846 -1.05818e-05)
(-2.03058e-05 0.00707522 -1.64628e-05)
(-2.64222e-05 0.00687323 -2.19186e-05)
(-3.61792e-05 0.00661001 -3.76232e-05)
(-3.32596e-05 0.00622952 -3.85494e-05)
(-2.38763e-05 0.00584408 -3.45441e-05)
(-6.70508e-06 0.0055533 -2.4542e-05)
(2.44725e-06 0.00537455 -1.75243e-05)
(-3.7457e-06 0.00528905 -2.1248e-05)
(-1.02835e-05 0.00527848 -2.61236e-05)
(1.5615e-06 0.00526613 -1.70115e-05)
(3.96284e-06 0.00518042 -7.4485e-06)
(-1.04901e-06 0.00507067 -2.83667e-07)
(-1.61499e-05 0.00503575 -7.82105e-06)
(-7.64497e-06 0.0050326 -4.27146e-06)
(-8.33245e-08 0.000391806 3.42061e-08)
(1.3437e-07 0.000443767 -1.91269e-07)
(6.99341e-07 0.000505488 -1.66444e-07)
(1.1246e-06 0.000548352 -5.63238e-08)
(1.4439e-06 0.000580381 -1.34681e-08)
(1.70576e-06 0.000608591 -3.1251e-09)
(1.74147e-06 0.000636764 2.56503e-08)
(1.64232e-06 0.000667746 5.52781e-08)
(1.4394e-06 0.000692841 6.22034e-08)
(1.20487e-06 0.000703262 4.99694e-08)
(9.6383e-07 0.000703958 3.17761e-08)
(7.34242e-07 0.00070262 3.64155e-08)
(5.04867e-07 0.000701296 5.03065e-08)
(3.06725e-07 0.000700163 6.39748e-08)
(1.52323e-07 0.000699146 6.03794e-08)
(2.98161e-08 0.000698232 5.7794e-08)
(-5.63994e-08 0.000697463 4.34051e-08)
(-1.30087e-07 0.00069685 3.65596e-08)
(-1.84733e-07 0.000696369 2.05455e-08)
(-2.34536e-07 0.000695992 1.54015e-08)
(-2.73817e-07 0.000695704 5.75018e-09)
(-3.0958e-07 0.000695495 7.45618e-09)
(-3.31262e-07 0.000695358 -1.36447e-09)
(-3.53187e-07 0.000695281 3.08045e-09)
(-3.61138e-07 0.000695259 -5.74815e-09)
(-3.71513e-07 0.00069529 2.5831e-10)
(-3.6741e-07 0.000695367 -1.00543e-08)
(-3.6808e-07 0.000695486 -3.72405e-09)
(-3.53428e-07 0.000695642 -1.4416e-08)
(-3.43935e-07 0.000695842 -6.60399e-09)
(-3.14859e-07 0.000696092 -2.22774e-08)
(-2.89373e-07 0.000696399 -1.64206e-08)
(-2.37888e-07 0.000696769 -3.73606e-08)
(-1.88934e-07 0.000697212 -3.31676e-08)
(-1.05494e-07 0.00069774 -6.04801e-08)
(-1.711e-08 0.000698366 -6.01176e-08)
(1.21017e-07 0.000699098 -9.75623e-08)
(2.81235e-07 0.000699941 -1.06417e-07)
(5.21403e-07 0.000700907 -1.62509e-07)
(8.16962e-07 0.000702005 -1.9415e-07)
(1.2509e-06 0.000703254 -2.91495e-07)
(1.82059e-06 0.000704626 -3.8251e-07)
(2.6641e-06 0.000706664 -5.40711e-07)
(3.87668e-06 0.000716257 -7.64987e-07)
(5.675e-06 0.000773732 -1.20191e-06)
(8.22074e-06 0.00101641 -2.11203e-06)
(1.22362e-05 0.00156698 -3.38656e-06)
(1.52133e-05 0.00222419 -5.00904e-06)
(1.40105e-05 0.0025217 -8.41989e-06)
(1.91855e-06 0.00230004 -1.17363e-05)
(-1.0589e-05 0.00198323 -8.38184e-06)
(-1.51002e-05 0.00203003 -9.47046e-06)
(-1.92922e-05 0.00235976 -5.55181e-06)
(-1.19187e-05 0.00278069 -5.84917e-06)
(-1.65474e-05 0.00324351 -1.31839e-05)
(-3.82615e-06 0.00362397 -1.52151e-05)
(1.38609e-05 0.00420482 -0.000159683)
(0.000152507 0.00517873 3.27921e-05)
(-0.00027442 0.0142037 -0.000527007)
(0.0133521 0.118207 0.0101807)
(-0.0452418 0.60583 -0.0159949)
(-0.0822417 0.494851 -0.0490925)
(-0.00418646 0.0225299 -0.00100563)
(-0.000247116 0.00711796 0.000131945)
(-0.000190534 0.00639141 -1.42159e-05)
(-0.000177678 0.00651918 -2.6272e-05)
(-0.000101827 0.0066254 1.24611e-05)
(-3.93137e-05 0.00671845 2.71103e-05)
(-1.28889e-05 0.00674055 2.39303e-05)
(1.74538e-05 0.00674632 1.53864e-05)
(-1.713e-06 0.00678107 -2.6925e-05)
(-4.03965e-05 0.0068833 -6.49629e-05)
(-4.74173e-05 0.00698065 -1.51483e-05)
(-2.47854e-05 0.0070133 2.93326e-05)
(-2.04422e-05 0.00709308 2.75567e-05)
(-5.5367e-05 0.00733002 -2.1706e-05)
(-7.31163e-05 0.00778965 -1.97873e-05)
(-1.62888e-05 0.00816517 1.46211e-05)
(2.48104e-07 0.00822387 6.81075e-06)
(-1.53864e-05 0.00809672 -8.58171e-06)
(-2.95284e-05 0.00791083 -2.78975e-05)
(-3.79125e-05 0.00759769 -3.27455e-05)
(-3.63357e-05 0.00728994 -4.19423e-05)
(-2.69792e-05 0.00721669 -4.77194e-05)
(-2.27573e-05 0.00731808 -4.83444e-05)
(-2.56468e-05 0.00741252 -5.2406e-05)
(-2.06439e-05 0.00740052 -5.22346e-05)
(-9.11294e-06 0.00712852 -4.91101e-05)
(-2.18341e-06 0.00653964 -3.22944e-05)
(-9.83385e-06 0.00601241 -2.58772e-05)
(-1.07421e-05 0.00580519 -4.35586e-05)
(1.26887e-05 0.00577537 -3.04815e-05)
(1.71719e-05 0.00575351 -1.19783e-05)
(8.15016e-06 0.00565885 -3.0888e-06)
(-1.00622e-05 0.00544793 6.77575e-06)
(-1.13306e-05 0.00521505 4.21396e-06)
(2.28981e-07 0.000381901 2.29432e-07)
(1.00958e-06 0.000431548 9.57891e-10)
(1.5423e-06 0.000498587 -8.75195e-08)
(1.99792e-06 0.000550379 -1.0834e-08)
(2.34785e-06 0.00058697 6.10703e-08)
(2.59037e-06 0.000614444 6.45682e-08)
(2.59898e-06 0.000639193 1.0695e-07)
(2.41138e-06 0.000664246 1.32079e-07)
(2.09563e-06 0.000684753 1.32617e-07)
(1.71475e-06 0.000695855 1.11586e-07)
(1.31264e-06 0.000699229 9.0708e-08)
(9.05289e-07 0.000699923 9.00444e-08)
(5.38412e-07 0.00069996 9.58759e-08)
(2.20075e-07 0.000699534 9.98e-08)
(-2.23291e-08 0.000698824 1.00917e-07)
(-2.16121e-07 0.000698041 9.64378e-08)
(-3.52647e-07 0.000697334 9.16958e-08)
(-4.67236e-07 0.000696755 8.51624e-08)
(-5.49864e-07 0.000696301 8.07447e-08)
(-6.21198e-07 0.000695947 7.59808e-08)
(-6.71238e-07 0.000695677 7.34838e-08)
(-7.19249e-07 0.000695485 7.00781e-08)
(-7.49467e-07 0.000695359 6.90854e-08)
(-7.80911e-07 0.000695291 6.69863e-08)
(-7.94644e-07 0.000695276 6.70614e-08)
(-8.11149e-07 0.000695309 6.53092e-08)
(-8.07743e-07 0.000695388 6.50821e-08)
(-8.07214e-07 0.000695509 6.22902e-08)
(-7.82225e-07 0.000695675 6.02839e-08)
(-7.59114e-07 0.000695885 5.469e-08)
(-7.05899e-07 0.000696147 5.00083e-08)
(-6.50207e-07 0.000696465 4.20855e-08)
(-5.56012e-07 0.000696847 3.49607e-08)
(-4.51145e-07 0.0006973 2.45164e-08)
(-2.95596e-07 0.00069784 1.29332e-08)
(-1.20073e-07 0.000698473 -4.72432e-09)
(1.30429e-07 0.000699222 -2.27915e-08)
(4.25398e-07 0.000700096 -4.72831e-08)
(8.35664e-07 0.000701126 -7.35963e-08)
(1.34059e-06 0.000702342 -1.10445e-07)
(2.03758e-06 0.000703803 -1.5665e-07)
(2.94606e-06 0.000705571 -2.25824e-07)
(4.24258e-06 0.000708649 -3.25333e-07)
(6.04962e-06 0.000717682 -5.45534e-07)
(8.69784e-06 0.000747365 -9.13261e-07)
(1.21282e-05 0.000903902 -1.59278e-06)
(1.80355e-05 0.00134478 -3.34545e-06)
(1.908e-05 0.00192971 -6.39185e-06)
(9.79119e-06 0.00211809 -1.0135e-05)
(-4.1677e-06 0.00179278 -6.95771e-06)
(-1.31861e-05 0.0016374 -5.8426e-06)
(-2.16356e-05 0.00197927 -8.22404e-06)
(-2.23387e-05 0.00266408 -8.37644e-06)
(-1.28331e-05 0.00333478 -1.05389e-05)
(1.52527e-06 0.00378867 -6.99559e-06)
(-5.45578e-07 0.00408527 -2.25534e-05)
(-0.000116347 0.00484584 -0.000236496)
(0.000161191 0.00569565 -5.72372e-07)
(-0.000537169 0.0121081 -0.000310602)
(0.0135291 0.0957036 0.0118677)
(-0.047957 0.593065 -0.00430194)
(-0.0640973 0.422943 -0.0241288)
(-0.000603149 0.0210897 -0.000259326)
(-2.36172e-05 0.00622661 0.000204371)
(-6.80433e-05 0.00641863 7.0749e-05)
(-8.4366e-06 0.00658376 3.48472e-05)
(2.56627e-05 0.00673236 3.80793e-05)
(2.01231e-05 0.00689623 3.24764e-05)
(-5.27642e-07 0.00706683 2.13258e-05)
(-1.67318e-05 0.00706638 -1.15609e-05)
(-0.000210263 0.00684546 8.83477e-06)
(8.0722e-05 0.00686819 1.5646e-05)
(1.00195e-05 0.00706178 -1.94921e-05)
(3.62461e-05 0.00735491 -2.80393e-05)
(4.7458e-05 0.00771999 -1.63596e-05)
(-2.37054e-05 0.00808442 -2.21857e-05)
(-5.22998e-05 0.00824186 -2.48482e-05)
(-1.53199e-05 0.00815052 -2.00026e-06)
(2.50356e-05 0.00798126 -2.06963e-05)
(2.88504e-05 0.00792245 -1.70037e-05)
(9.18048e-06 0.0078176 -1.45452e-05)
(-8.41211e-06 0.00743271 -2.45634e-05)
(-1.06253e-05 0.0070276 -4.69768e-05)
(-1.57407e-06 0.0069718 -5.21112e-05)
(1.38423e-05 0.00717731 -4.5142e-05)
(2.94448e-05 0.00735895 -4.46473e-05)
(1.63752e-05 0.00745381 -5.73882e-05)
(7.10087e-07 0.00741806 -5.69531e-05)
(6.66055e-06 0.00706548 -3.28061e-05)
(1.17516e-05 0.00657216 -1.11243e-05)
(3.08875e-05 0.00629188 -8.89883e-06)
(1.66593e-05 0.00603348 -5.07459e-06)
(-1.70119e-06 0.00570535 -1.79926e-05)
(2.43011e-07 0.00546169 -1.164e-05)
(6.07798e-06 0.0052443 -4.57889e-06)
(-1.09539e-05 0.00503982 -2.56239e-06)
(4.63064e-07 0.000376178 1.90384e-07)
(1.79449e-06 0.000418217 2.11396e-07)
(2.36341e-06 0.000479905 6.27055e-08)
(2.88894e-06 0.000534561 1.04303e-07)
(3.17645e-06 0.000579227 1.36404e-07)
(3.36305e-06 0.000610954 1.38894e-07)
(3.28423e-06 0.000635038 1.51291e-07)
(3.01289e-06 0.000658421 1.62402e-07)
(2.57647e-06 0.000678017 1.5527e-07)
(2.0733e-06 0.000690273 1.38392e-07)
(1.53114e-06 0.000695771 1.13931e-07)
(1.00583e-06 0.000698063 1.06938e-07)
(5.2321e-07 0.00069893 1.01471e-07)
(1.148e-07 0.000698852 1.12054e-07)
(-2.19005e-07 0.000698283 1.03863e-07)
(-4.82914e-07 0.000697581 1.07177e-07)
(-6.91246e-07 0.000696927 9.65511e-08)
(-8.53627e-07 0.000696386 9.97544e-08)
(-9.86591e-07 0.000695965 8.93716e-08)
(-1.08514e-06 0.000695641 9.47071e-08)
(-1.1671e-06 0.000695393 8.44926e-08)
(-1.22589e-06 0.000695213 9.08149e-08)
(-1.27846e-06 0.000695094 7.99664e-08)
(-1.31238e-06 0.00069503 8.76207e-08)
(-1.34433e-06 0.000695015 7.53744e-08)
(-1.3573e-06 0.00069505 8.39284e-08)
(-1.3679e-06 0.000695129 6.91796e-08)
(-1.3555e-06 0.000695256 7.77961e-08)
(-1.33924e-06 0.000695429 5.91811e-08)
(-1.29504e-06 0.000695658 6.74703e-08)
(-1.2432e-06 0.000695942 4.49639e-08)
(-1.15461e-06 0.000696293 5.36431e-08)
(-1.05147e-06 0.000696717 2.66393e-08)
(-8.9712e-07 0.000697224 3.18251e-08)
(-7.16486e-07 0.000697818 -3.32005e-09)
(-4.67362e-07 0.000698524 1.21774e-09)
(-1.71328e-07 0.000699355 -4.12471e-08)
(2.24083e-07 0.000700331 -3.90814e-08)
(7.05541e-07 0.000701484 -9.16116e-08)
(1.34705e-06 0.000702855 -1.03664e-07)
(2.14997e-06 0.00070451 -1.82078e-07)
(3.22676e-06 0.000706599 -2.27308e-07)
(4.63144e-06 0.000710177 -3.71046e-07)
(6.55671e-06 0.000718361 -6.07389e-07)
(9.2798e-06 0.000735292 -1.12361e-06)
(1.25935e-05 0.00079957 -1.86094e-06)
(1.75967e-05 0.00104246 -3.48318e-06)
(1.71193e-05 0.00143114 -5.637e-06)
(6.30795e-06 0.0015212 -6.63383e-06)
(-1.3061e-07 0.00132838 -3.64101e-06)
(-1.54801e-05 0.00160777 -8.01294e-06)
(-2.83878e-05 0.00251456 -1.30697e-05)
(1.77703e-07 0.00342201 -1.1647e-05)
(2.20185e-05 0.00392697 -1.78829e-05)
(2.19293e-05 0.00410364 -1.65092e-05)
(-1.09751e-05 0.00416797 -6.25084e-06)
(-0.00036758 0.00543937 -0.000255133)
(0.000539032 0.00675394 -3.78951e-05)
(-0.000796935 0.0114586 -0.000170325)
(0.0196442 0.102579 0.0120203)
(-0.0598935 0.619427 -0.029289)
(-0.033813 0.381993 -0.0153814)
(0.000492756 0.0231721 -0.000102808)
(-0.00013164 0.007324 -5.47106e-05)
(0.000318224 0.0072852 -0.000228022)
(0.000417755 0.00751942 1.99335e-05)
(0.00034849 0.00779669 1.32529e-05)
(0.000210964 0.0074311 1.79013e-05)
(7.43099e-05 0.00720084 3.99909e-05)
(-2.70148e-05 0.0297405 3.14329e-05)
(0.000104524 0.33427 -0.00165233)
(-0.00237985 0.338978 -0.00314588)
(0.000222736 0.0244088 2.59488e-05)
(0.000172993 0.00714644 -4.17925e-05)
(9.79034e-06 0.00825084 -3.90378e-05)
(-0.000170058 0.00898162 -4.75376e-05)
(-9.82499e-05 0.00925799 -3.00651e-05)
(0.000103667 0.00952847 -1.57726e-05)
(8.43953e-05 0.0099053 -2.00912e-05)
(0.000143804 0.0096478 -3.5707e-06)
(0.000202148 0.00877852 -3.59324e-05)
(5.39329e-05 0.00747502 -5.84825e-05)
(3.81968e-05 0.0068234 -3.62339e-05)
(1.3289e-05 0.00683824 -4.25878e-05)
(-2.54715e-05 0.00730229 -3.62613e-05)
(-3.78084e-05 0.00770472 -3.36294e-05)
(-1.53557e-06 0.00766666 -3.94872e-05)
(6.74049e-06 0.00733505 -4.23485e-05)
(8.8312e-06 0.006857 -1.83333e-05)
(2.24621e-05 0.00668558 1.09465e-05)
(2.41804e-05 0.00700633 -8.22482e-06)
(-5.67855e-06 0.00709141 -2.83524e-05)
(-1.86783e-05 0.00659073 -2.87107e-06)
(-1.65122e-05 0.00588494 -4.45233e-06)
(-1.18332e-05 0.00520109 -8.23976e-06)
(-1.61977e-05 0.00478095 -6.56362e-06)
(7.04831e-07 0.000370869 2.78332e-07)
(2.5467e-06 0.000405634 4.09676e-07)
(3.15715e-06 0.000457172 1.2586e-07)
(3.74514e-06 0.000509601 1.35698e-07)
(4.01245e-06 0.000563116 2.201e-07)
(4.13943e-06 0.000604517 1.77242e-07)
(3.8852e-06 0.00063175 1.56972e-07)
(3.49635e-06 0.000654199 1.50379e-07)
(2.92856e-06 0.000672442 1.4412e-07)
(2.30433e-06 0.000685254 1.29277e-07)
(1.67679e-06 0.000692745 1.16464e-07)
(1.07412e-06 0.000696696 8.94921e-08)
(5.2799e-07 0.000698332 8.95376e-08)
(4.14029e-08 0.000698497 8.74438e-08)
(-3.56244e-07 0.000698031 9.38089e-08)
(-6.93393e-07 0.000697404 8.50973e-08)
(-9.55872e-07 0.000696824 9.04596e-08)
(-1.17841e-06 0.000696351 8.02527e-08)
(-1.35169e-06 0.000695984 8.55134e-08)
(-1.49725e-06 0.000695704 7.35803e-08)
(-1.60516e-06 0.000695497 7.78615e-08)
(-1.69588e-06 0.000695348 6.35493e-08)
(-1.75969e-06 0.000695254 6.86501e-08)
(-1.81355e-06 0.000695207 5.32464e-08)
(-1.84427e-06 0.000695208 5.93224e-08)
(-1.86799e-06 0.000695252 4.18681e-08)
(-1.86791e-06 0.000695341 4.83332e-08)
(-1.86025e-06 0.000695473 2.74146e-08)
(-1.82597e-06 0.000695654 3.33096e-08)
(-1.78206e-06 0.000695884 8.11632e-09)
(-1.70455e-06 0.000696173 1.40252e-08)
(-1.60914e-06 0.000696526 -1.57951e-08)
(-1.46764e-06 0.000696959 -1.16238e-08)
(-1.29998e-06 0.000697481 -4.90759e-08)
(-1.07012e-06 0.000698111 -4.74852e-08)
(-7.95209e-07 0.000698864 -9.19643e-08)
(-4.36429e-07 0.000699763 -9.59293e-08)
(-5.84874e-09 0.000700822 -1.54121e-07)
(5.45475e-07 0.000702073 -1.73135e-07)
(1.21017e-06 0.000703544 -2.58599e-07)
(2.03906e-06 0.000705348 -3.09442e-07)
(3.04436e-06 0.00070778 -4.44754e-07)
(4.30625e-06 0.000711862 -5.92784e-07)
(5.92554e-06 0.000719286 -1.00912e-06)
(7.99683e-06 0.000732256 -1.63514e-06)
(1.04363e-05 0.000756045 -2.36743e-06)
(1.30636e-05 0.000834195 -3.22994e-06)
(1.32252e-05 0.000954648 -3.86619e-06)
(7.5027e-06 0.000973537 -4.68834e-06)
(4.13888e-06 0.00117682 -4.91707e-06)
(-1.76389e-06 0.00207305 -1.41299e-05)
(2.30327e-05 0.00327982 -2.41066e-05)
(6.58933e-05 0.00396181 -4.54377e-05)
(6.225e-05 0.00409525 -6.58223e-05)
(6.49143e-05 0.00407914 -6.44012e-05)
(0.000105567 0.00392334 2.66096e-05)
(-0.000540987 0.00614771 -0.000142441)
(0.000895583 0.00829786 -0.000341004)
(-0.000606056 0.0127489 -5.49957e-05)
(0.0396252 0.158197 0.0140801)
(-0.0602398 0.679256 -0.0460521)
(-0.0192327 0.528753 -0.00363854)
(-0.0180609 0.560425 0.00163532)
(-0.00948636 0.54022 0.000920286)
(-0.0168263 0.539199 0.000434793)
(-0.00896814 0.541509 0.000834793)
(-0.00364579 0.544853 0.000677712)
(0.002793 0.545268 0.00294431)
(0.00563563 0.53952 0.00465059)
(0.0102305 0.537075 0.00698475)
(0.00727286 0.547558 0.00750111)
(0.00727519 0.544184 0.0103197)
(0.00641411 0.542449 0.00960215)
(0.00849521 0.540381 0.00714549)
(0.0114956 0.542922 0.00208705)
(0.00683303 0.538789 -0.000703507)
(0.00481365 0.531364 0.00265167)
(0.00507083 0.529191 0.00620118)
(-0.000194427 0.523313 0.00587939)
(-3.99254e-06 0.508328 0.00666808)
(-0.00329799 0.410388 0.00355662)
(-0.00031626 0.0301416 -0.000140645)
(-0.000457455 0.00948521 -0.000327527)
(-0.000397424 0.00836033 -0.00046142)
(-0.000101957 0.00620997 -0.000521848)
(7.59741e-05 0.00565025 -0.000669251)
(-9.47969e-06 0.00565515 -0.000636553)
(-3.31131e-05 0.00561502 -0.000389092)
(-1.91851e-05 0.00555003 -0.00024355)
(-2.55519e-05 0.00563927 -0.000170002)
(-5.95115e-05 0.00601927 -8.29691e-05)
(-0.000152924 0.00653033 -5.01906e-05)
(-0.000212627 0.00628763 -9.65012e-05)
(-0.000301532 0.00549323 -1.92284e-05)
(-4.4047e-05 0.00502224 -4.51358e-06)
(-2.72098e-05 0.00468055 -1.19563e-05)
(9.70475e-07 0.000363556 3.83235e-07)
(3.31062e-06 0.000393041 5.99463e-07)
(3.95298e-06 0.000432783 1.382e-07)
(4.62981e-06 0.000478979 6.80276e-08)
(4.79192e-06 0.000537877 2.69398e-07)
(4.88245e-06 0.000589616 2.46175e-07)
(4.45211e-06 0.000624155 1.60414e-07)
(3.93533e-06 0.000648805 1.32667e-07)
(3.22192e-06 0.000666979 1.00147e-07)
(2.52249e-06 0.000680489 1.11034e-07)
(1.78531e-06 0.000689582 8.60485e-08)
(1.13417e-06 0.000695041 7.34081e-08)
(5.17735e-07 0.000697369 5.3451e-08)
(-1.94623e-08 0.000697669 7.26555e-08)
(-4.86712e-07 0.000697244 6.97413e-08)
(-8.70549e-07 0.00069668 8.41355e-08)
(-1.18173e-06 0.00069616 7.39015e-08)
(-1.43438e-06 0.000695734 8.06747e-08)
(-1.64313e-06 0.000695412 6.57344e-08)
(-1.80912e-06 0.000695178 6.90739e-08)
(-1.94307e-06 0.000695018 4.99967e-08)
(-2.04334e-06 0.000694915 5.12579e-08)
(-2.12001e-06 0.00069486 3.03491e-08)
(-2.17165e-06 0.00069485 3.26667e-08)
(-2.2079e-06 0.00069488 1.10765e-08)
(-2.22178e-06 0.000694955 1.42564e-08)
(-2.22069e-06 0.00069507 -1.00794e-08)
(-2.19692e-06 0.000695232 -6.7657e-09)
(-2.1558e-06 0.00069544 -3.3948e-08)
(-2.08889e-06 0.000695704 -2.97303e-08)
(-2.0003e-06 0.000696026 -5.98922e-08)
(-1.87538e-06 0.00069642 -5.7096e-08)
(-1.71645e-06 0.000696895 -9.51736e-08)
(-1.50884e-06 0.000697472 -9.80692e-08)
(-1.25132e-06 0.000698163 -1.45912e-07)
(-9.26319e-07 0.000698994 -1.55665e-07)
(-5.31385e-07 0.00069998 -2.16352e-07)
(-4.39421e-08 0.000701151 -2.38683e-07)
(5.38607e-07 0.000702535 -3.22223e-07)
(1.23053e-06 0.000704162 -3.78597e-07)
(2.02943e-06 0.000706051 -5.13583e-07)
(2.94934e-06 0.000708596 -6.55203e-07)
(3.98692e-06 0.000712943 -9.33787e-07)
(5.19584e-06 0.000720439 -1.38192e-06)
(6.46742e-06 0.000732859 -2.12853e-06)
(7.9229e-06 0.000750451 -2.916e-06)
(8.56504e-06 0.000773064 -3.76736e-06)
(1.04127e-05 0.000795494 -4.31261e-06)
(7.14831e-06 0.000818855 -4.98864e-06)
(7.5427e-06 0.00132744 -7.09523e-06)
(1.99368e-05 0.0027002 -1.07488e-05)
(7.59328e-05 0.00383883 -2.60751e-05)
(0.000130155 0.00410327 -7.9078e-05)
(0.000150467 0.00397019 -0.00011381)
(0.000157757 0.00394465 -8.37652e-05)
(6.6689e-05 0.0036649 -6.60087e-05)
(-0.000390603 0.00683529 0.000389925)
(0.000591391 0.0101104 -0.000380259)
(-0.000186247 0.0136465 -0.000300788)
(0.0446342 0.238103 0.0118126)
(-0.00462614 0.651595 -0.0186913)
(-0.000719369 0.532399 -0.0051878)
(-0.0131165 0.54579 -0.00506786)
(-0.00970901 0.540799 0.000463459)
(-0.00791017 0.53801 0.000324556)
(-0.00439248 0.545275 0.00267203)
(-0.00138976 0.545339 0.00651839)
(0.00188567 0.546201 0.0099419)
(0.00625061 0.547539 0.0137315)
(0.0071747 0.548609 0.0104581)
(0.00800691 0.549241 0.0075946)
(0.00784954 0.549996 0.00418461)
(0.00524624 0.549467 -0.00275025)
(0.00274285 0.54741 -0.00607701)
(0.00183487 0.543931 -0.00272599)
(0.00175894 0.536181 0.00179582)
(-0.00320295 0.52969 0.00249648)
(-0.00990696 0.525122 -0.000136961)
(-0.0182959 0.51679 0.000189243)
(-0.023989 0.518481 -0.0011961)
(-0.0150985 0.532918 -0.000776663)
(-0.00654281 0.533026 -0.00650208)
(-0.0070126 0.530667 -0.00674648)
(-0.00269107 0.527224 -0.00983964)
(0.00242997 0.532461 -0.020398)
(0.00441553 0.541342 -0.0146244)
(0.00477285 0.545907 0.007153)
(0.00419132 0.540836 0.00940896)
(0.00345612 0.531115 0.00710957)
(9.05012e-05 0.525602 0.00472852)
(-0.00378262 0.522925 0.0029079)
(-0.00403308 0.515578 0.00298246)
(-0.00722695 0.482849 -0.000627236)
(-0.0112241 0.332572 -0.0023396)
(-0.000296111 0.0267343 -0.000432517)
(-5.17748e-05 0.00380481 -7.90945e-06)
(1.19937e-06 0.000354504 4.95126e-07)
(4.26541e-06 0.000381202 9.01056e-07)
(4.82924e-06 0.00041147 3.14775e-07)
(5.55029e-06 0.000450934 1.77303e-07)
(5.39944e-06 0.000511357 2.46703e-07)
(5.44985e-06 0.000569363 3.48521e-07)
(4.8486e-06 0.000611629 2.10201e-07)
(4.26765e-06 0.000642659 1.39924e-07)
(3.43585e-06 0.000662982 1.04775e-07)
(2.66981e-06 0.000676689 9.77163e-08)
(1.87489e-06 0.000686683 8.94839e-08)
(1.23241e-06 0.00069348 6.25035e-08)
(5.79086e-07 0.000696625 5.56319e-08)
(-3.58824e-08 0.00069722 5.70214e-08)
(-5.66997e-07 0.000696952 8.4132e-08)
(-9.94523e-07 0.000696502 9.53465e-08)
(-1.32126e-06 0.000696065 1.07252e-07)
(-1.57875e-06 0.000695702 8.98207e-08)
(-1.78619e-06 0.00069542 8.23564e-08)
(-1.95181e-06 0.0006952 5.72939e-08)
(-2.08116e-06 0.000695041 5.08532e-08)
(-2.17676e-06 0.000694941 2.72465e-08)
(-2.24698e-06 0.000694897 2.32504e-08)
(-2.29009e-06 0.000694898 1.21276e-09)
(-2.31206e-06 0.000694941 -8.78835e-10)
(-2.31316e-06 0.000695024 -2.34195e-08)
(-2.29895e-06 0.000695153 -2.49701e-08)
(-2.26116e-06 0.000695328 -4.85044e-08)
(-2.20726e-06 0.00069556 -4.93838e-08)
(-2.12381e-06 0.00069585 -7.54305e-08)
(-2.01508e-06 0.000696207 -7.78076e-08)
(-1.86093e-06 0.000696636 -1.10059e-07)
(-1.67022e-06 0.000697156 -1.18869e-07)
(-1.41933e-06 0.000697777 -1.61451e-07)
(-1.11856e-06 0.000698527 -1.80062e-07)
(-7.39831e-07 0.000699425 -2.35347e-07)
(-2.97355e-07 0.000700499 -2.63315e-07)
(2.45507e-07 0.000701766 -3.30703e-07)
(8.66764e-07 0.000703258 -3.77171e-07)
(1.59143e-06 0.000704993 -4.79471e-07)
(2.3682e-06 0.000707013 -5.89578e-07)
(3.21324e-06 0.000709757 -7.87925e-07)
(4.0711e-06 0.000714267 -1.0561e-06)
(4.922e-06 0.000721627 -1.58249e-06)
(5.72264e-06 0.000736045 -2.17956e-06)
(5.76338e-06 0.00076856 -3.6184e-06)
(4.35353e-06 0.000824518 -5.14779e-06)
(5.79688e-06 0.000868205 -6.12425e-06)
(6.03581e-06 0.000928762 -7.34777e-06)
(7.48554e-06 0.0015882 -9.69603e-06)
(1.44077e-05 0.00307625 -9.13567e-06)
(5.34503e-05 0.00403267 -1.9218e-05)
(0.000117267 0.00409736 -6.51718e-05)
(0.000140442 0.00396678 -0.000126667)
(0.000124899 0.00389478 -8.06298e-05)
(6.39965e-05 0.00339412 -2.77702e-06)
(0.000746739 0.00729091 0.000646981)
(-0.000220833 0.0121038 -0.000428713)
(-0.000428931 0.0129732 -0.000244669)
(0.0488019 0.270794 0.0185983)
(0.017219 0.659864 0.0035134)
(-0.00159565 0.542683 -0.00257655)
(0.00111067 0.541115 0.00379511)
(-0.00208576 0.541992 0.000677744)
(-0.00537777 0.53618 0.00187353)
(-0.00365721 0.541275 -7.8444e-05)
(-0.0048798 0.541847 -0.000467944)
(-0.00474649 0.543308 -0.00314492)
(-0.00407451 0.545237 -0.00863932)
(-0.00144806 0.546519 -0.0109335)
(0.00177652 0.547396 -0.0106307)
(0.0032782 0.547803 -0.00795198)
(0.00539292 0.544788 -0.00483232)
(0.00911336 0.543289 0.00166204)
(0.0115139 0.540826 0.0072375)
(0.0073941 0.537121 0.00749041)
(0.0011968 0.532923 0.00403314)
(-0.0111193 0.52847 0.000137761)
(-0.0318593 0.518175 -0.00537401)
(-0.0500387 0.505811 -0.00551834)
(-0.0519554 0.515141 0.00407505)
(-0.0117071 0.551409 0.00414399)
(0.000115231 0.543281 -0.00110811)
(0.00821252 0.544097 -0.0108951)
(0.00390601 0.555566 -0.0247977)
(-0.00742391 0.553609 -0.0185993)
(-0.00214533 0.554605 0.00647451)
(0.00849008 0.549183 0.0165369)
(0.00166907 0.542194 0.00942057)
(-0.00335595 0.538972 0.00328265)
(-0.00776434 0.535363 -0.000670663)
(-0.0117283 0.533677 -0.00450648)
(-0.0171062 0.522919 -0.00793125)
(-0.0222651 0.484784 -0.00705442)
(-0.0167566 0.320607 -0.000863125)
(0.00015096 0.0267576 -1.62861e-05)
(2.06978e-06 0.000341899 9.33316e-07)
(5.46112e-06 0.000370918 1.69411e-06)
(5.79044e-06 0.000397931 8.27715e-07)
(6.28664e-06 0.000431895 5.77995e-07)
(6.00759e-06 0.000489109 3.7839e-07)
(5.83049e-06 0.000548622 4.30042e-07)
(5.19452e-06 0.000595989 2.87526e-07)
(4.59987e-06 0.000633374 1.49045e-07)
(3.59083e-06 0.000658057 1.06155e-07)
(2.79003e-06 0.000673512 9.78337e-08)
(1.94698e-06 0.00068423 9.12399e-08)
(1.25907e-06 0.00069185 9.87022e-08)
(5.44028e-07 0.00069561 1.02393e-07)
(-1.1659e-07 0.000696476 1.23109e-07)
(-6.65757e-07 0.000696368 1.28743e-07)
(-1.11519e-06 0.000696047 1.4972e-07)
(-1.45818e-06 0.000695703 1.5815e-07)
(-1.72941e-06 0.000695406 1.72926e-07)
(-1.93737e-06 0.000695184 1.71743e-07)
(-2.104e-06 0.000695032 1.74415e-07)
(-2.2246e-06 0.000694948 1.57611e-07)
(-2.32002e-06 0.000694912 1.48391e-07)
(-2.38092e-06 0.000694917 1.2636e-07)
(-2.42448e-06 0.000694967 1.15491e-07)
(-2.43702e-06 0.000695058 9.24813e-08)
(-2.4374e-06 0.000695189 8.22953e-08)
(-2.40892e-06 0.00069536 5.91554e-08)
(-2.36606e-06 0.000695578 4.86023e-08)
(-2.28887e-06 0.000695848 2.32695e-08)
(-2.19222e-06 0.000696183 1.08096e-08)
(-2.04564e-06 0.000696586 -1.84382e-08)
(-1.8642e-06 0.000697071 -3.74986e-08)
(-1.62213e-06 0.000697653 -7.78421e-08)
(-1.33584e-06 0.000698351 -1.0954e-07)
(-9.73197e-07 0.000699188 -1.64888e-07)
(-5.55102e-07 0.000700191 -2.1103e-07)
(-4.25216e-08 0.000701377 -2.76995e-07)
(5.52011e-07 0.000702755 -3.30739e-07)
(1.24979e-06 0.000704349 -4.07278e-07)
(1.9978e-06 0.00070619 -4.86695e-07)
(2.8107e-06 0.000708384 -6.07214e-07)
(3.60689e-06 0.000711259 -7.75599e-07)
(4.41068e-06 0.000715606 -1.04783e-06)
(4.98234e-06 0.000723158 -1.50741e-06)
(5.56603e-06 0.000741943 -2.02028e-06)
(4.57059e-06 0.000797709 -3.0985e-06)
(2.77755e-06 0.000920307 -4.62864e-06)
(5.77295e-08 0.00105186 -6.9244e-06)
(4.61847e-06 0.00116555 -9.55029e-06)
(7.07548e-06 0.00178519 -8.80285e-06)
(2.55391e-05 0.00312396 4.76985e-06)
(5.95722e-05 0.00401927 -1.45577e-05)
(4.86258e-05 0.00414081 -5.5908e-05)
(-9.67252e-05 0.00402207 -7.5302e-05)
(-0.000110701 0.00380357 -6.58865e-05)
(-8.22505e-05 0.00401215 1.0981e-05)
(0.00080665 0.0068735 -0.00027734)
(-0.000266085 0.00825555 -0.000844517)
(-0.000299781 0.0123992 0.000346666)
(-0.00554511 0.34412 -0.0162303)
(-0.00765059 0.647122 -0.00770453)
(0.00265963 0.542455 -0.00805316)
(0.00561636 0.542694 0.00100976)
(0.0013567 0.541779 -0.00301704)
(0.00434622 0.544562 -0.0016653)
(0.00258876 0.545142 -0.00235827)
(0.00343554 0.543892 -0.0010975)
(0.00290483 0.543633 -0.00130341)
(0.00365786 0.539827 -0.000349159)
(0.00422055 0.539838 0.00134753)
(0.00427159 0.539896 0.00307481)
(0.00441402 0.538445 0.0057931)
(0.00369719 0.536847 0.00584179)
(0.00494705 0.534838 0.00526534)
(0.00784283 0.534385 0.00528465)
(0.00929652 0.536107 0.00641209)
(0.00822314 0.538078 0.00866802)
(0.00227562 0.538996 0.00780157)
(-0.0086129 0.535384 0.00283262)
(-0.025366 0.528708 -0.00116445)
(-0.0479163 0.51768 0.00209905)
(-0.0211563 0.533493 -0.00834606)
(-0.0170022 0.550176 -0.0250379)
(-0.015718 0.563982 -0.0275367)
(-0.00641658 0.578184 -0.00652424)
(0.00626782 0.564858 0.0176603)
(0.00412293 0.545861 0.0139055)
(0.000837185 0.548702 0.00424689)
(-0.00132293 0.544283 0.0015223)
(-0.00354069 0.538117 -0.000407836)
(-0.00592237 0.534254 -0.0010847)
(-0.00739575 0.534603 -0.0018248)
(-0.0113447 0.530653 -0.00303178)
(-0.0148516 0.522244 -0.00184823)
(-0.0132788 0.509817 -0.00247918)
(-0.00694932 0.477145 -0.00691116)
(3.20594e-06 0.000196883 2.09314e-06)
(6.78302e-06 0.00036842 2.59383e-06)
(6.57895e-06 0.000386883 1.11354e-06)
(6.72863e-06 0.000419024 7.58278e-07)
(6.3792e-06 0.000468951 3.13065e-07)
(5.77836e-06 0.000527095 1.64547e-07)
(5.45148e-06 0.000579022 3.10457e-07)
(4.70777e-06 0.000620589 1.28674e-07)
(3.86758e-06 0.000651656 2.44585e-09)
(3.06776e-06 0.000671384 -7.08019e-08)
(2.281e-06 0.000682377 -1.27655e-07)