/*--------------------------------*- C++ -*----------------------------------*\
| =========                 |                                                 |
| \\      /  F ield         | OpenFOAM: The Open Source CFD Toolbox           |
|  \\    /   O peration     | Version:  2.3.0                                 |
|   \\  /    A nd           | Web:      www.OpenFOAM.org                      |
|    \\/     M anipulation  |                                                 |
\*---------------------------------------------------------------------------*/
FoamFile
{
    version     2.0;
    format      ascii;
    class       volScalarField;
    location    "34";
    object      w2;
}
// * * * * * * * * * * * * * * * * * * * * * * * * * * * * * * * * * * * * * //

dimensions      [0 0 0 0 0 0 0];

internalField   nonuniform List<scalar> 
6144
(
0.452838
0.452838
0.452838
0.452838
0.452838
0.452838
0.452838
0.452838
0.452838
0.452838
0.452838
0.452838
0.452838
0.452838
0.452838
0.452838
0.452838
0.452838
0.452838
0.452838
0.452838
0.452838
0.452838
0.452838
0.452838
0.452838
0.452838
0.452838
0.452838
0.452838
0.452838
0.452838
0.452838
0.452838
0.452838
0.452838
0.452838
0.452838
0.452838
0.452838
0.452838
0.452838
0.452838
0.452838
0.452838
0.452838
0.452838
0.452838
0.452838
0.452838
0.452838
0.452838
0.452838
0.452838
0.452838
0.452838
0.452839
0.452842
0.483448
0.484201
0.13516
0.00046355
4.38676e-06
0.000780615
0.00348417
0.0447207
0.00361695
0.00258988
0.00313438
0.00566072
0.0056732
0.0177045
0.0106791
0.0239035
0.0214007
0.0226974
0.2912
0.0513437
0.0367617
0.0104806
0.0668072
0.0626803
0.011832
0.00668524
0.00863281
0.0231168
0.0106262
0.0331177
0.0212254
0.0471338
0.0106875
0.00114574
0.000848888
0.00385084
0.000927547
0.000112934
0.452838
0.452838
0.452838
0.452838
0.452838
0.452838
0.452838
0.452838
0.452838
0.452838
0.452838
0.452838
0.452838
0.452838
0.452838
0.452838
0.452838
0.452838
0.452838
0.452838
0.452838
0.452838
0.452838
0.452838
0.452838
0.452838
0.452838
0.452838
0.452838
0.452838
0.452838
0.452838
0.452838
0.452838
0.452838
0.452838
0.452838
0.452838
0.452838
0.452838
0.452838
0.452838
0.452838
0.452838
0.452838
0.452838
0.452838
0.452838
0.452838
0.452838
0.452838
0.452838
0.452838
0.452838
0.452838
0.452838
0.452839
0.452881
0.456519
0.521643
0.0786458
1.89191e-05
6.77427e-06
0.0017011
0.00045109
0.000186697
0.000207024
0.000215479
0.000432679
0.000457417
0.000399533
0.000526278
0.00062804
0.00162732
0.00121146
0.0022398
0.00800082
0.0231279
0.00966988
0.0171856
0.0174594
0.0290033
0.0168188
0.0099291
0.00354533
0.00434821
0.00355683
0.00370561
0.00353337
0.00463583
0.0104136
0.00247633
0.000970509
0.00333772
0.00121312
0.000114875
0.452838
0.452838
0.452838
0.452838
0.452838
0.452838
0.452838
0.452838
0.452838
0.452838
0.452838
0.452838
0.452838
0.452838
0.452838
0.452838
0.452838
0.452838
0.452838
0.452838
0.452838
0.452838
0.452838
0.452838
0.452838
0.452838
0.452838
0.452838
0.452838
0.452838
0.452838
0.452838
0.452838
0.452838
0.452838
0.452838
0.452838
0.452838
0.452838
0.452838
0.452838
0.452838
0.452838
0.452838
0.452838
0.452838
0.452838
0.452838
0.452838
0.452838
0.452838
0.452838
0.452838
0.452838
0.452838
0.452838
0.452839
0.452834
0.452818
0.513634
0.979347
0.0133548
0.00620011
0.0236307
0.00310185
0.00764911
0.039403
0.115666
0.0100784
0.00194611
0.000702803
0.000342799
9.75537e-05
1.21353e-05
8.05117e-06
0.00150219
0.00129874
0.000709857
0.000348617
0.00103157
0.00249415
0.00688442
0.00462604
0.012646
0.0309427
0.00596344
0.00335144
0.00216529
0.00296024
0.0117199
0.00909974
0.00209201
0.000920939
0.00210967
0.00109866
0.00011525
0.452838
0.452838
0.452838
0.452838
0.452838
0.452838
0.452838
0.452838
0.452838
0.452838
0.452838
0.452838
0.452838
0.452838
0.452838
0.452838
0.452838
0.452838
0.452838
0.452838
0.452838
0.452838
0.452838
0.452838
0.452838
0.452838
0.452838
0.452838
0.452838
0.452838
0.452838
0.452838
0.452838
0.452838
0.452838
0.452838
0.452838
0.452838
0.452838
0.452838
0.452838
0.452838
0.452838
0.452838
0.452838
0.452838
0.452838
0.452838
0.452838
0.452838
0.452838
0.452838
0.452838
0.452838
0.452838
0.452838
0.452839
0.453042
0.488811
0.497271
0.978187
0.671223
0.181184
0.110854
0.0964705
0.0610206
0.139327
0.775942
0.0330052
0.173876
0.0329961
0.100241
0.834284
0.194627
0.972879
0.00427872
0.000896897
0.000138975
1.49109e-05
7.08629e-06
0.000313543
0.000409985
0.0125417
0.00584498
0.00424044
0.004924
0.00382812
0.00208567
0.00124304
0.00264685
0.0102786
0.00224365
0.00144478
0.00234749
0.000893444
0.000111551
0.452838
0.452838
0.452838
0.452838
0.452838
0.452838
0.452838
0.452838
0.452838
0.452838
0.452838
0.452838
0.452838
0.452838
0.452838
0.452838
0.452838
0.452838
0.452838
0.452838
0.452838
0.452838
0.452838
0.452838
0.452838
0.452838
0.452838
0.452838
0.452838
0.452838
0.452838
0.452838
0.452838
0.452838
0.452838
0.452838
0.452838
0.452838
0.452838
0.452838
0.452838
0.452838
0.452838
0.452838
0.452838
0.452838
0.452838
0.452838
0.452838
0.452838
0.452838
0.452838
0.452838
0.452838
0.452838
0.452838
0.452838
0.452834
0.452054
0.499302
0.175868
0.99999
0.000217678
0.462715
0.855437
0.412583
0.467914
0.998329
0.312099
0.369263
0.93174
0.95777
0.9202
0.919513
0.789612
0.881919
0.78328
0.999202
0.793577
0.981379
0.000351351
2.60565e-05
6.69172e-06
0.000149489
0.000162817
0.003712
0.0474462
0.00527131
0.00360807
0.00660953
0.033107
0.00319149
0.00178369
0.00384114
0.000933557
0.000114104
0.452838
0.452838
0.452838
0.452838
0.452838
0.452838
0.452838
0.452838
0.452838
0.452838
0.452838
0.452838
0.452838
0.452838
0.452838
0.452838
0.452838
0.452838
0.452838
0.452838
0.452838
0.452838
0.452838
0.452838
0.452838
0.452838
0.452838
0.452838
0.452838
0.452838
0.452838
0.452838
0.452838
0.452838
0.452838
0.452838
0.452838
0.452838
0.452838
0.452838
0.452838
0.452838
0.452838
0.452838
0.452838
0.452838
0.452838
0.452838
0.452838
0.452838
0.452838
0.452838
0.452838
0.452838
0.452839
0.452838
0.452839
0.452838
0.452894
0.498464
0.260029
0.00445341
0.0873942
7.47365e-05
0.272277
0.388206
0.952852
0.830768
0.827408
0.812578
0.20166
0.831376
0.198399
0.533466
0.546824
0.959274
0.702009
0.552723
0.482996
0.512918
0.992793
0.0558661
0.0126496
0.000403681
3.39487e-05
6.82685e-06
0.000351466
0.000139895
0.000274786
0.000127633
0.000169424
0.00265422
0.000187237
0.000246396
0.000243616
7.14821e-05
0.452838
0.452838
0.452838
0.452838
0.452838
0.452838
0.452838
0.452838
0.452838
0.452838
0.452838
0.452838
0.452838
0.452838
0.452838
0.452838
0.452838
0.452838
0.452838
0.452838
0.452838
0.452838
0.452838
0.452838
0.452838
0.452838
0.452838
0.452838
0.452838
0.452838
0.452838
0.452838
0.452838
0.452838
0.452838
0.452838
0.452838
0.452838
0.452838
0.452838
0.452838
0.452838
0.452838
0.452838
0.452838
0.452838
0.452838
0.452838
0.452838
0.452838
0.452838
0.452838
0.452838
0.452838
0.452839
0.452838
0.452839
0.452837
0.452969
0.516611
0.140791
0.0586022
0.999548
0.409988
0.98843
0.471889
0.971598
0.858119
0.94279
0.817292
0.879283
0.551217
0.759644
0.635753
0.261372
0.981945
0.810097
0.357036
0.955018
0.568181
0.493895
0.898202
0.298584
0.994364
0.0810201
0.175651
0.0017509
0.99975
0.00178105
1
8.16879e-06
0.00019936
0.0148925
0.931257
0.0199938
0.000139653
0.452838
0.452838
0.452838
0.452838
0.452838
0.452838
0.452838
0.452838
0.452838
0.452838
0.452838
0.452838
0.452838
0.452838
0.452838
0.452838
0.452838
0.452838
0.452838
0.452838
0.452838
0.452838
0.452838
0.452838
0.452838
0.452838
0.452838
0.452838
0.452838
0.452838
0.452838
0.452838
0.452838
0.452838
0.452838
0.452838
0.452838
0.452838
0.452838
0.452838
0.452838
0.452838
0.452838
0.452838
0.452838
0.452838
0.452838
0.452838
0.452838
0.452838
0.452838
0.452838
0.452838
0.452838
0.452839
0.452839
0.452839
0.453439
0.439644
0.524628
0.135439
0.982898
0.147346
0.365227
0.999967
0.711995
0.252206
0.625267
0.355213
0.233144
0.562937
0.31433
0.256024
0.609184
0.475564
0.293177
0.689367
0.181383
0.917604
0.595431
0.836284
0.975492
0.984465
0.568877
0.564534
0.972653
0.869827
0.990207
0.977698
0.99158
0.9157
0.684261
0.24572
0.0472851
0.471841
0.984212
0.452838
0.452838
0.452838
0.452838
0.452838
0.452838
0.452838
0.452838
0.452838
0.452838
0.452838
0.452838
0.452838
0.452838
0.452838
0.452838
0.452838
0.452838
0.452838
0.452838
0.452838
0.452838
0.452838
0.452838
0.452838
0.452838
0.452838
0.452838
0.452838
0.452838
0.452838
0.452838
0.452838
0.452838
0.452838
0.452838
0.452838
0.452838
0.452838
0.452838
0.452838
0.452838
0.452838
0.452838
0.452838
0.452838
0.452838
0.452838
0.452838
0.452838
0.452838
0.452838
0.452838
0.452838
0.452838
0.452839
0.452818
0.45193
0.456204
0.518503
0.969516
0.0359305
0.485188
0.87654
0.959935
0.0213808
0.88868
0.562705
0.252839
0.140789
0.991365
0.842137
0.957429
0.270283
0.97824
0.895723
0.99837
0.941582
0.736076
0.571438
0.597474
0.990759
0.275636
0.675629
0.777914
0.975626
0.892478
0.288625
0.865655
0.812952
0.715071
0.997362
1.11246e-06
0.968762
0.303598
0.000938303
0.452838
0.452838
0.452838
0.452838
0.452838
0.452838
0.452838
0.452838
0.452838
0.452838
0.452838
0.452838
0.452838
0.452838
0.452838
0.452838
0.452838
0.452838
0.452838
0.452838
0.452838
0.452838
0.452838
0.452838
0.452838
0.452838
0.452838
0.452838
0.452838
0.452838
0.452838
0.452838
0.452838
0.452838
0.452838
0.452838
0.452838
0.452838
0.452838
0.452838
0.452838
0.452838
0.452838
0.452838
0.452838
0.452838
0.452838
0.452838
0.452838
0.452838
0.452838
0.452838
0.452838
0.452838
0.452839
0.452838
0.452838
0.452864
0.453464
0.532354
0.0473666
0.989953
0.0729447
0.0445984
0.0834216
0.75237
0.10697
0.113215
0.972239
0.652149
7.23258e-05
0.775279
0.831669
0.0656127
0.999998
0.163452
0.0003446
0.00145
0.318288
0.167567
0.335282
0.948012
0.0372033
0.985341
0.805913
0.865235
0.792995
0.266503
0.965299
0.450045
0.959726
0.582803
0.965526
0.0279681
0.00315495
1.1829e-05
0.452838
0.452838
0.452838
0.452838
0.452838
0.452838
0.452838
0.452838
0.452838
0.452838
0.452838
0.452838
0.452838
0.452838
0.452838
0.452838
0.452838
0.452838
0.452838
0.452838
0.452838
0.452838
0.452838
0.452838
0.452838
0.452838
0.452838
0.452838
0.452838
0.452838
0.452838
0.452838
0.452838
0.452838
0.452838
0.452838
0.452838
0.452838
0.452838
0.452838
0.452838
0.452838
0.452838
0.452838
0.452838
0.452838
0.452838
0.452838
0.452838
0.452838
0.452838
0.452838
0.452838
0.452838
0.452839
0.452838
0.45284
0.452162
0.49612
0.514676
0.0711092
0.000355731
0.00215573
0.000486067
0.0175541
0.00440248
0.0174707
0.00243885
0.00429084
0.995128
0.988396
0.0123376
0.00673117
0.00980398
0.101916
0.0151777
0.0109818
0.976844
0.00957382
0.0710809
0.0333001
0.983857
0.000245099
0.981628
0.0417918
0.196419
0.0658993
0.677581
0.58446
0.0382581
0.00164346
0.000185613
1.7478e-05
7.70873e-06
0.000795922
0.00011676
0.452838
0.452838
0.452838
0.452838
0.452838
0.452838
0.452838
0.452838
0.452838
0.452838
0.452838
0.452838
0.452838
0.452838
0.452838
0.452838
0.452838
0.452838
0.452838
0.452838
0.452838
0.452838
0.452838
0.452838
0.452838
0.452838
0.452838
0.452838
0.452838
0.452838
0.452838
0.452838
0.452838
0.452838
0.452838
0.452838
0.452838
0.452838
0.452838
0.452838
0.452838
0.452838
0.452838
0.452838
0.452838
0.452838
0.452838
0.452838
0.452838
0.452838
0.452838
0.452838
0.452838
0.452838
0.452839
0.452838
0.45284
0.452842
0.452127
0.496888
0.100712
6.21535e-05
2.27984e-06
7.08411e-05
0.00139862
0.000199873
0.000167095
9.76195e-05
0.000116629
0.000145953
0.000195497
0.000221391
0.000297094
0.000954456
0.000720001
0.000300536
0.000152621
0.000141553
0.000144331
0.000301803
0.00154738
0.000910474
0.00135058
0.010478
0.00169945
0.00057611
0.000403566
0.0013503
0.000401912
0.000632805
0.00103917
0.000555686
0.000586111
0.00214792
0.00151592
0.000120616
0.452838
0.452838
0.452838
0.452838
0.452838
0.452838
0.452838
0.452838
0.452838
0.452838
0.452838
0.452838
0.452838
0.452838
0.452838
0.452838
0.452838
0.452838
0.452838
0.452838
0.452838
0.452838
0.452838
0.452838
0.452838
0.452838
0.452838
0.452838
0.452838
0.452838
0.452838
0.452838
0.452838
0.452838
0.452838
0.452838
0.452838
0.452838
0.452838
0.452838
0.452838
0.452838
0.452838
0.452838
0.452838
0.452838
0.452838
0.452838
0.452838
0.452838
0.452838
0.452838
0.452838
0.452838
0.452838
0.452838
0.45284
0.452841
0.452864
0.555482
0.0815987
4.07013e-05
2.5195e-06
0.000190245
0.000266522
0.000658969
0.0019323
0.00227164
0.00383166
0.000586083
0.000580371
0.00311473
0.0110115
0.0136012
0.0140224
0.217844
0.0699274
0.0393606
0.0691725
0.00755853
0.00404486
0.0042495
0.0085941
0.00266938
0.00137751
0.00120536
0.000952292
0.00118827
0.00296333
0.000556464
0.000887014
0.00203366
0.00313786
0.00485574
0.00128333
0.000124165
0.452838
0.452838
0.452838
0.452838
0.452838
0.452838
0.452838
0.452838
0.452838
0.452838
0.452838
0.452838
0.452838
0.452838
0.452838
0.452838
0.452838
0.452838
0.452838
0.452838
0.452838
0.452838
0.452838
0.452838
0.452838
0.452838
0.452838
0.452838
0.452838
0.452838
0.452838
0.452838
0.452838
0.452838
0.452838
0.452838
0.452838
0.452838
0.452838
0.452838
0.452838
0.452838
0.452838
0.452838
0.452838
0.452838
0.452838
0.452838
0.452838
0.452838
0.452838
0.452838
0.452838
0.452838
0.452838
0.452839
0.452841
0.452841
0.452905
0.517933
0.111848
8.40494e-05
2.54043e-06
0.000196256
0.000244398
0.000600432
0.000664847
0.00253883
0.00193851
0.00205439
0.00131463
0.000499252
0.00109986
0.00548243
0.0103371
0.0266979
0.440986
0.999987
0.0207582
0.0110306
0.00506002
0.0045272
0.00911842
0.0167832
0.00326995
0.00194107
0.00128632
0.00089669
0.00121554
0.00635141
0.00139303
0.00261427
0.00455896
0.00200988
0.00111402
0.000121865
0.452838
0.452838
0.452838
0.452838
0.452838
0.452838
0.452838
0.452838
0.452838
0.452838
0.452838
0.452838
0.452838
0.452838
0.452838
0.452838
0.452838
0.452838
0.452838
0.452838
0.452838
0.452838
0.452838
0.452838
0.452838
0.452838
0.452838
0.452838
0.452838
0.452838
0.452838
0.452838
0.452838
0.452838
0.452838
0.452838
0.452838
0.452838
0.452838
0.452838
0.452838
0.452838
0.452838
0.452838
0.452838
0.452838
0.452838
0.452838
0.452838
0.452838
0.452838
0.452838
0.452838
0.452838
0.452838
0.452838
0.452843
0.452841
0.455744
0.558494
0.0816676
0.000785014
2.45127e-06
0.000323542
0.000283688
0.00230498
0.000832307
0.0015868
0.00894956
0.0042871
0.00362266
0.00513371
0.000540549
0.000767262
0.0237449
0.0186559
0.0975342
0.0128088
0.00547452
0.00540177
0.00505563
0.003085
0.00353793
0.00908757
0.00634821
0.00371987
0.00349293
0.00192598
0.00139035
0.000945591
0.00104888
0.00826084
0.111323
0.00606523
0.00119429
0.000123235
0.452838
0.452838
0.452838
0.452838
0.452838
0.452838
0.452838
0.452838
0.452838
0.452838
0.452838
0.452838
0.452838
0.452838
0.452838
0.452838
0.452838
0.452838
0.452838
0.452838
0.452838
0.452838
0.452838
0.452838
0.452838
0.452838
0.452838
0.452838
0.452838
0.452838
0.452838
0.452838
0.452838
0.452838
0.452838
0.452838
0.452838
0.452838
0.452838
0.452838
0.452838
0.452838
0.452838
0.452838
0.452838
0.452838
0.452838
0.452838
0.452838
0.452838
0.452838
0.452838
0.452838
0.452838
0.452839
0.452838
0.452842
0.452845
0.448974
0.51881
0.159877
0.964832
2.31861e-06
0.000239822
0.0012667
0.0662195
0.000971934
0.00120715
0.00183754
0.00545067
0.00648661
0.00563669
0.00178511
0.000734928
0.00135879
0.0552863
0.0432639
0.00962361
0.0484233
0.0588221
0.00628441
0.00206916
0.00207152
0.0051947
0.0976462
0.0123071
0.00810149
0.0185475
0.00463741
0.00542672
0.00230054
0.104762
0.00477325
0.00187024
0.00309715
0.000123176
0.452838
0.452838
0.452838
0.452838
0.452838
0.452838
0.452838
0.452838
0.452838
0.452838
0.452838
0.452838
0.452838
0.452838
0.452838
0.452838
0.452838
0.452838
0.452838
0.452838
0.452838
0.452838
0.452838
0.452838
0.452838
0.452838
0.452838
0.452838
0.452838
0.452838
0.452838
0.452838
0.452838
0.452838
0.452838
0.452838
0.452838
0.452838
0.452838
0.452838
0.452838
0.452838
0.452838
0.452838
0.452838
0.452838
0.452838
0.452838
0.452838
0.452838
0.452838
0.452838
0.452838
0.452838
0.452838
0.452838
0.452835
0.45342
0.492179
0.4967
0.138552
0.00116926
4.35099e-06
0.000635068
0.00712201
0.0069203
0.00558003
0.00246065
0.00666983
0.00796299
0.0140465
0.0622322
0.0115186
0.0102946
0.00695864
0.00691526
0.00528031
0.00531003
0.00490366
0.0103252
0.0252462
0.00657929
0.003615
0.00704042
0.00783854
0.00393266
0.0051761
0.0146635
0.0338396
0.0104788
0.00796317
0.0309843
0.00102865
0.000620644
0.000503231
0.000107647
0.452838
0.452838
0.452838
0.452838
0.452838
0.452838
0.452838
0.452838
0.452838
0.452838
0.452838
0.452838
0.452838
0.452838
0.452838
0.452838
0.452838
0.452838
0.452838
0.452838
0.452838
0.452838
0.452838
0.452838
0.452838
0.452838
0.452838
0.452838
0.452838
0.452838
0.452838
0.452838
0.452838
0.452838
0.452838
0.452838
0.452838
0.452838
0.452838
0.452838
0.452838
0.452838
0.452838
0.452838
0.452838
0.452838
0.452838
0.452838
0.452838
0.452838
0.452838
0.452838
0.452838
0.452838
0.452838
0.452838
0.452839
0.452851
0.451839
0.511458
0.417867
4.02115e-06
0.0105483
0.000357437
0.000325788
0.00105417
0.000782012
1.53696e-05
9.65375e-06
3.91174e-05
9.33867e-06
0.000297763
0.000193963
0.000223835
0.000338633
0.000782093
0.00139939
0.00247129
0.00181822
0.00136272
0.00143354
0.00138121
0.00188705
0.00277573
0.00429441
0.0213393
0.00388528
0.0376176
0.00850681
0.00335501
0.00173726
0.00385583
0.00115666
0.000838065
0.000464308
0.000102509
0.452838
0.452838
0.452838
0.452838
0.452838
0.452838
0.452838
0.452838
0.452838
0.452838
0.452838
0.452838
0.452838
0.452838
0.452838
0.452838
0.452838
0.452838
0.452838
0.452838
0.452838
0.452838
0.452838
0.452838
0.452838
0.452838
0.452838
0.452838
0.452838
0.452838
0.452838
0.452838
0.452838
0.452838
0.452838
0.452838
0.452838
0.452838
0.452838
0.452838
0.452838
0.452838
0.452838
0.452838
0.452838
0.452838
0.452838
0.452838
0.452838
0.452838
0.452838
0.452838
0.452838
0.452838
0.452838
0.452839
0.452839
0.452839
0.481737
0.507268
0.00664977
0.000910919
0.988517
0.951219
0.998898
0.00367409
0.0153287
0.00953329
0.00741835
0.987507
0.782594
0.00699366
0.0050505
0.000345312
2.95737e-05
8.62707e-06
1.02466e-05
0.000487992
0.000289849
0.000438591
0.00101237
0.00197266
0.135602
0.0118074
0.0159865
0.0256045
0.992753
0.0146197
0.0215207
0.0396827
0.0163207
0.00173605
0.000827388
0.000755391
0.000476384
9.78789e-05
0.452838
0.452838
0.452838
0.452838
0.452838
0.452838
0.452838
0.452838
0.452838
0.452838
0.452838
0.452838
0.452838
0.452838
0.452838
0.452838
0.452838
0.452838
0.452838
0.452838
0.452838
0.452838
0.452838
0.452838
0.452838
0.452838
0.452838
0.452838
0.452838
0.452838
0.452838
0.452838
0.452838
0.452838
0.452838
0.452838
0.452838
0.452838
0.452838
0.452838
0.452838
0.452838
0.452838
0.452838
0.452838
0.452838
0.452838
0.452838
0.452838
0.452838
0.452838
0.452838
0.452838
0.452838
0.452839
0.452838
0.452838
0.452882
0.455302
0.507785
0.762501
0.493325
0.926353
0.760016
0.0961381
0.0424065
0.000415531
0.00466924
0.318545
0.95621
0.386881
0.66495
0.0671833
0.986145
0.935799
0.00495408
0.00382026
0.000585519
0.999919
1.488e-05
7.12015e-06
0.000256911
0.000228356
0.0025284
0.00610924
0.00904917
0.0133241
0.00259889
0.00224225
0.0105207
0.00578324
0.00153706
0.000905516
0.0013144
0.000493262
9.60801e-05
0.452838
0.452838
0.452838
0.452838
0.452838
0.452838
0.452838
0.452838
0.452838
0.452838
0.452838
0.452838
0.452838
0.452838
0.452838
0.452838
0.452838
0.452838
0.452838
0.452838
0.452838
0.452838
0.452838
0.452838
0.452838
0.452838
0.452838
0.452838
0.452838
0.452838
0.452838
0.452838
0.452838
0.452838
0.452838
0.452838
0.452838
0.452838
0.452838
0.452838
0.452838
0.452838
0.452838
0.452838
0.452838
0.452838
0.452838
0.452838
0.452838
0.452838
0.452838
0.452838
0.452838
0.452838
0.452838
0.452838
0.452838
0.452844
0.452928
0.508246
0.150889
0.91659
0.0423203
0.319477
0.38571
0.00731158
0.127913
0.482565
0.482732
0.193451
0.952524
0.99998
0.33863
0.157963
0.000454073
0.996735
0.68688
0.950207
0.879429
0.0098783
0.00226622
0.000192009
1.06249e-05
5.22004e-06
0.000218069
0.00168249
0.00443897
0.000792695
0.000296487
0.00448417
0.00687698
0.00110227
0.00107735
0.00115972
0.000472018
9.39886e-05
0.452838
0.452838
0.452838
0.452838
0.452838
0.452838
0.452838
0.452838
0.452838
0.452838
0.452838
0.452838
0.452838
0.452838
0.452838
0.452838
0.452838
0.452838
0.452838
0.452838
0.452838
0.452838
0.452838
0.452838
0.452838
0.452838
0.452838
0.452838
0.452838
0.452838
0.452838
0.452838
0.452838
0.452838
0.452838
0.452838
0.452838
0.452838
0.452838
0.452838
0.452838
0.452838
0.452838
0.452838
0.452838
0.452838
0.452838
0.452838
0.452838
0.452838
0.452838
0.452838
0.452838
0.452839
0.452839
0.452838
0.452837
0.452819
0.452461
0.576981
0.940844
0.961196
0.712408
0.409366
0.960288
0.589934
0.576242
0.254044
0.306841
0.991386
0.961517
0.956714
0.526827
0.407643
0.531296
0.98921
0.419556
0.359399
0.620844
0.341207
0.854639
0.0542638
0.0317226
0.0138904
0.000395009
9.80771e-06
1.61254e-05
1.2541e-05
2.89161e-05
0.000115825
0.000278454
1.15395e-05
0.00149498
0.0428152
0.000120497
3.61437e-05
0.452838
0.452838
0.452838
0.452838
0.452838
0.452838
0.452838
0.452838
0.452838
0.452838
0.452838
0.452838
0.452838
0.452838
0.452838
0.452838
0.452838
0.452838
0.452838
0.452838
0.452838
0.452838
0.452838
0.452838
0.452838
0.452838
0.452838
0.452838
0.452838
0.452838
0.452838
0.452838
0.452838
0.452838
0.452838
0.452838
0.452838
0.452838
0.452838
0.452838
0.452838
0.452838
0.452838
0.452838
0.452838
0.452838
0.452838
0.452838
0.452838
0.452838
0.452838
0.452838
0.452838
0.452838
0.452838
0.452838
0.452838
0.452838
0.449779
0.592477
0.0757764
0.107307
0.55385
0.461884
0.845424
0.357443
0.497655
0.959164
0.999874
0.998768
0.966461
0.924673
0.864097
0.44623
0.890521
0.380952
0.42396
0.57213
0.39338
0.802021
0.934725
0.761128
0.945004
0.980384
0.0907079
0.0407255
0.0447077
0.0349446
0.0247284
0.0466318
0.0178061
0.187244
0.833558
0.985017
0.99462
0.0232593
0.452838
0.452838
0.452838
0.452838
0.452838
0.452838
0.452838
0.452838
0.452838
0.452838
0.452838
0.452838
0.452838
0.452838
0.452838
0.452838
0.452838
0.452838
0.452838
0.452838
0.452838
0.452838
0.452838
0.452838
0.452838
0.452838
0.452838
0.452838
0.452838
0.452838
0.452838
0.452838
0.452838
0.452838
0.452838
0.452838
0.452838
0.452838
0.452838
0.452838
0.452838
0.452838
0.452838
0.452838
0.452838
0.452838
0.452838
0.452838
0.452838
0.452838
0.452838
0.452838
0.452838
0.452838
0.452838
0.452839
0.452839
0.452836
0.45308
0.60476
0.0903236
1
0.392299
0.24555
0.72169
0.859047
0.999903
0.940104
0.517967
0.999993
0.884986
0.24596
0.645456
0.602631
0.873339
0.157178
0.560502
0.367531
0.563483
0.318339
0.926405
0.00600961
0.995443
0.999517
0.529807
0.999038
0.719685
0.783672
0.869846
0.434182
0.375315
0.319937
0.261315
0.959359
0.918913
0.999887
0.452838
0.452838
0.452838
0.452838
0.452838
0.452838
0.452838
0.452838
0.452838
0.452838
0.452838
0.452838
0.452838
0.452838
0.452838
0.452838
0.452838
0.452838
0.452838
0.452838
0.452838
0.452838
0.452838
0.452838
0.452838
0.452838
0.452838
0.452838
0.452838
0.452838
0.452838
0.452838
0.452838
0.452838
0.452838
0.452838
0.452838
0.452838
0.452838
0.452838
0.452838
0.452838
0.452838
0.452838
0.452838
0.452838
0.452838
0.452838
0.452838
0.452838
0.452838
0.452838
0.452838
0.452838
0.452838
0.452838
0.45284
0.452856
0.455315
0.525668
0.187793
0.0387157
0.0251929
0.248434
0.914253
0.0835689
0.063002
0.346939
0.532215
0.234679
0.98869
0.999888
0.99966
0.928332
0.145599
0.795668
0.266178
0.260673
0.99915
0.922651
0.327516
0.884374
0.841654
0.721542
0.55918
0.698521
0.186716
0.56967
0.315543
0.44037
0.51623
0.353163
0.902729
0.838065
0.973195
0.926725
0.452838
0.452838
0.452838
0.452838
0.452838
0.452838
0.452838
0.452838
0.452838
0.452838
0.452838
0.452838
0.452838
0.452838
0.452838
0.452838
0.452838
0.452838
0.452838
0.452838
0.452838
0.452838
0.452838
0.452838
0.452838
0.452838
0.452838
0.452838
0.452838
0.452838
0.452838
0.452838
0.452838
0.452838
0.452838
0.452838
0.452838
0.452838
0.452838
0.452838
0.452838
0.452838
0.452838
0.452838
0.452838
0.452838
0.452838
0.452838
0.452838
0.452838
0.452838
0.452838
0.452838
0.452838
0.452838
0.452838
0.45284
0.452844
0.452846
0.517727
0.0575706
0.0275478
0.077517
0.0603707
0.356181
0.0781209
0.894286
0.3064
0.796312
0.524502
0.841621
0.304961
0.967199
0.941949
0.902028
0.209403
0.303104
0.994889
0.824735
0.864275
0.957941
0.589841
0.328913
0.205185
0.969582
0.447451
0.86093
0.805931
0.946907
0.860513
0.479081
0.933034
0.998199
0.872536
0.984585
0.00193296
0.452838
0.452838
0.452838
0.452838
0.452838
0.452838
0.452838
0.452838
0.452838
0.452838
0.452838
0.452838
0.452838
0.452838
0.452838
0.452838
0.452838
0.452838
0.452838
0.452838
0.452838
0.452838
0.452838
0.452838
0.452838
0.452838
0.452838
0.452838
0.452838
0.452838
0.452838
0.452838
0.452838
0.452838
0.452838
0.452838
0.452838
0.452838
0.452838
0.452838
0.452838
0.452838
0.452838
0.452838
0.452838
0.452838
0.452838
0.452838
0.452838
0.452838
0.452838
0.452838
0.452838
0.452838
0.452838
0.452838
0.45284
0.452842
0.44814
0.55357
0.10733
0.00200399
0.000905864
0.00482923
0.00342586
0.0028908
0.00549786
0.0173509
0.0276844
0.002655
0.028113
0.000983308
0.0160852
0.000835745
0.0592867
0.01825
0.0182626
0.0248315
0.023281
0.0249671
0.116925
0.0880828
0.058838
0.896945
0.899401
0.0462731
0.0395724
0.0619417
0.0646644
0.0625213
0.965288
0.0775443
0.99685
0.00916816
0.000219427
4.0662e-06
0.452838
0.452838
0.452838
0.452838
0.452838
0.452838
0.452838
0.452838
0.452838
0.452838
0.452838
0.452838
0.452838
0.452838
0.452838
0.452838
0.452838
0.452838
0.452838
0.452838
0.452838
0.452838
0.452838
0.452838
0.452838
0.452838
0.452838
0.452838
0.452838
0.452838
0.452838
0.452838
0.452838
0.452838
0.452838
0.452838
0.452838
0.452838
0.452838
0.452838
0.452838
0.452838
0.452838
0.452838
0.452838
0.452838
0.452838
0.452838
0.452838
0.452838
0.452838
0.452838
0.452838
0.452838
0.452838
0.452838
0.452841
0.452841
0.475154
0.488159
0.670055
0.999996
0.00189772
3.30787e-06
0.000763537
0.000705437
0.00168051
0.00112512
0.000496533
0.000533199
0.00102949
0.00246905
0.00118415
0.000470914
0.000442001
0.000384868
9.84546e-06
0.000555143
9.06618e-06
6.36411e-05
0.000204943
6.43733e-06
1.58323e-05
1.53504e-05
5.92317e-06
9.09446e-06
1.18729e-05
2.19895e-05
9.35544e-06
1.6675e-05
0.000330437
1.91227e-05
0.000429369
0.000367564
0.000123082
0.000386114
0.452838
0.452838
0.452838
0.452838
0.452838
0.452838
0.452838
0.452838
0.452838
0.452838
0.452838
0.452838
0.452838
0.452838
0.452838
0.452838
0.452838
0.452838
0.452838
0.452838
0.452838
0.452838
0.452838
0.452838
0.452838
0.452838
0.452838
0.452838
0.452838
0.452838
0.452838
0.452838
0.452838
0.452838
0.452838
0.452838
0.452838
0.452838
0.452838
0.452838
0.452838
0.452838
0.452838
0.452838
0.452838
0.452838
0.452838
0.452838
0.452838
0.452838
0.452838
0.452838
0.452838
0.452838
0.452838
0.452838
0.452841
0.452835
0.452735
0.548117
0.168059
9.66689e-05
5.85521e-06
0.000200506
0.00168082
0.000796899
0.00362338
0.00134535
0.00101727
0.00623193
0.0038713
0.00199427
0.00188945
0.0155682
0.00427848
0.0025624
0.00337631
0.00079241
0.0235133
0.004483
0.00537276
0.0168612
0.000453007
0.000958476
0.0443985
0.00838677
0.000297855
0.000389012
0.000684395
0.000674196
0.000543227
0.00173757
0.00126577
0.000935612
0.00116958
0.000137689
0.452838
0.452838
0.452838
0.452838
0.452838
0.452838
0.452838
0.452838
0.452838
0.452838
0.452838
0.452838
0.452838
0.452838
0.452838
0.452838
0.452838
0.452838
0.452838
0.452838
0.452838
0.452838
0.452838
0.452838
0.452838
0.452838
0.452838
0.452838
0.452838
0.452838
0.452838
0.452838
0.452838
0.452838
0.452838
0.452838
0.452838
0.452838
0.452838
0.452838
0.452838
0.452838
0.452838
0.452838
0.452838
0.452838
0.452838
0.452838
0.452838
0.452838
0.452838
0.452838
0.452838
0.452838
0.452838
0.452838
0.452842
0.452695
0.455268
0.501249
0.693573
5.50061e-05
0.0280259
0.000110109
0.000609235
0.000475462
0.00095616
0.00597508
0.0026757
0.00131111
0.00179348
0.00617678
0.00206745
0.000796895
0.00181101
0.00324846
0.00214831
0.00332599
0.0122092
0.00269629
0.00530181
0.00581628
0.00403291
0.00659578
0.0103696
0.0166137
0.00283023
0.00121677
0.000776129
0.000687081
0.000757724
0.00184504
0.00310462
0.00299156
0.000981512
0.00011674
0.452838
0.452838
0.452838
0.452838
0.452838
0.452838
0.452838
0.452838
0.452838
0.452838
0.452838
0.452838
0.452838
0.452838
0.452838
0.452838
0.452838
0.452838
0.452838
0.452838
0.452838
0.452838
0.452838
0.452838
0.452838
0.452838
0.452838
0.452838
0.452838
0.452838
0.452838
0.452838
0.452838
0.452838
0.452838
0.452838
0.452838
0.452838
0.452838
0.452838
0.452838
0.452838
0.452838
0.452838
0.452838
0.452838
0.452838
0.452838
0.452838
0.452838
0.452838
0.452838
0.452838
0.452838
0.452838
0.452838
0.452842
0.453573
0.494896
0.365039
0.577039
2.84422e-05
2.90075e-06
0.000152441
0.000439283
0.00145587
0.00115697
0.00233425
0.0267409
0.00295208
0.00137439
0.00120325
0.00222101
0.00168088
0.000552038
0.000998054
0.00517582
0.0047638
0.0126577
0.0266496
0.00579456
0.00261231
0.00372009
0.00797524
0.00425649
0.00510233
0.00280281
0.0013385
0.00125672
0.00096525
0.000751178
0.00133681
0.00245988
0.0141097
0.00142925
0.000110948
0.452838
0.452838
0.452838
0.452838
0.452838
0.452838
0.452838
0.452838
0.452838
0.452838
0.452838
0.452838
0.452838
0.452838
0.452838
0.452838
0.452838
0.452838
0.452838
0.452838
0.452838
0.452838
0.452838
0.452838
0.452838
0.452838
0.452838
0.452838
0.452838
0.452838
0.452838
0.452838
0.452838
0.452838
0.452838
0.452838
0.452838
0.452838
0.452838
0.452838
0.452838
0.452838
0.452838
0.452838
0.452838
0.452838
0.452838
0.452838
0.452838
0.452838
0.452838
0.452838
0.452838
0.452838
0.452838
0.452839
0.452842
0.452949
0.456739
0.554705
0.178959
0.0140079
3.27755e-06
0.000388362
0.000813005
0.00108042
0.0040965
0.00235735
0.00260943
0.00411176
0.039547
0.00313493
0.00144562
0.0108821
0.000928352
0.00156231
0.0100069
0.00675185
0.0747428
0.00594537
0.0114549
0.00373767
0.00254736
0.00578984
0.00861475
0.00511701
0.00246265
0.00311239
0.0391897
0.0131607
0.00267972
0.00487511
0.0466765
0.0200241
0.000932188
0.000114795
0.452838
0.452838
0.452838