/*--------------------------------*- C++ -*----------------------------------*\
| =========                 |                                                 |
| \\      /  F ield         | OpenFOAM: The Open Source CFD Toolbox           |
|  \\    /   O peration     | Version:  2.3.0                                 |
|   \\  /    A nd           | Web:      www.OpenFOAM.org                      |
|    \\/     M anipulation  |                                                 |
\*---------------------------------------------------------------------------*/
FoamFile
{
    version     2.0;
    format      ascii;
    class       volScalarField;
    location    "29";
    object      alpha.water;
}
// * * * * * * * * * * * * * * * * * * * * * * * * * * * * * * * * * * * * * //

dimensions      [0 0 0 0 0 0 0];

internalField   nonuniform List<scalar> 
6144
(
5.23401e-06
5.96467e-06
6.43889e-06
6.8981e-06
7.34857e-06
7.89521e-06
8.46925e-06
9.23297e-06
9.77977e-06
9.95073e-06
9.97627e-06
9.98304e-06
9.98657e-06
9.98877e-06
9.98887e-06
9.98937e-06
9.98843e-06
9.98914e-06
9.98837e-06
9.98879e-06
9.98834e-06
9.98851e-06
9.98824e-06
9.98821e-06
9.98801e-06
9.9879e-06
9.98771e-06
9.9876e-06
9.98741e-06
9.98719e-06
9.98671e-06
9.98627e-06
9.98574e-06
9.98527e-06
9.98468e-06
9.98435e-06
9.98405e-06
9.98404e-06
9.9839e-06
9.98379e-06
9.98341e-06
9.98341e-06
9.98341e-06
9.98497e-06
1.02575e-05
1.15783e-05
1.42968e-05
1.8773e-05
3.45362e-05
6.44658e-05
9.13048e-05
0.000130354
0.000141894
0.000144597
0.000140979
0.000141675
0.000138007
0.000144605
0.000965533
0.0496589
0.95763
0.999714
0.999999
0.999999
0.999999
0.999999
0.999999
0.999999
0.999999
0.999999
0.999999
0.999999
0.999999
0.999999
0.999999
0.999999
0.999999
0.999999
0.999999
0.999999
0.999999
0.999999
0.999999
0.999999
0.999999
0.999999
0.999999
0.999999
0.999999
0.999999
0.999999
0.999999
0.999999
1
1
1
4.84996e-06
5.94315e-06
6.70355e-06
7.15731e-06
7.66359e-06
8.16184e-06
8.76427e-06
9.38507e-06
9.82532e-06
9.94985e-06
9.97312e-06
9.98414e-06
9.99152e-06
9.99619e-06
9.99706e-06
9.99749e-06
9.99671e-06
9.99689e-06
9.99607e-06
9.99606e-06
9.99534e-06
9.99535e-06
9.99496e-06
9.99489e-06
9.99477e-06
9.99479e-06
9.99483e-06
9.99494e-06
9.99507e-06
9.99504e-06
9.99493e-06
9.99484e-06
9.99466e-06
9.99439e-06
9.99413e-06
9.99394e-06
9.99373e-06
9.99335e-06
9.99267e-06
9.99173e-06
9.99024e-06
9.98838e-06
9.98608e-06
1.0007e-05
1.05683e-05
1.29576e-05
1.76499e-05
2.44751e-05
3.17925e-05
4.18934e-05
8.93555e-05
0.000146171
0.000151967
0.000144119
0.000135602
0.000135648
0.000130129
0.000145189
0.000476858
0.0411767
0.963699
0.999876
0.999999
0.999999
0.999999
0.999999
0.999999
0.999999
0.999999
0.999999
0.999999
0.999999
0.999999
0.999999
0.999999
0.999999
0.999999
0.999999
0.999999
0.999999
0.999999
0.999999
0.999999
0.999999
0.999999
0.999999
0.999999
0.999999
0.999999
0.999999
0.999999
0.999999
0.999999
0.999999
1
1
4.48327e-06
5.44754e-06
6.54097e-06
7.0109e-06
7.5656e-06
8.10572e-06
8.80783e-06
9.36808e-06
9.69051e-06
9.82794e-06
9.89732e-06
9.94849e-06
9.97947e-06
9.99374e-06
9.99706e-06
9.99786e-06
9.99741e-06
9.99748e-06
9.99697e-06
9.99691e-06
9.99639e-06
9.99634e-06
9.9959e-06
9.99577e-06
9.99559e-06
9.99555e-06
9.9955e-06
9.9955e-06
9.99551e-06
9.99549e-06
9.99542e-06
9.99531e-06
9.99503e-06
9.99466e-06
9.99411e-06
9.99347e-06
9.9924e-06
9.9913e-06
9.99006e-06
9.98913e-06
9.98831e-06
9.98849e-06
9.99489e-06
1.01227e-05
1.10812e-05
1.40285e-05
1.94759e-05
2.73773e-05
3.67204e-05
4.71527e-05
0.000101397
0.000155029
0.000149269
0.000138443
0.000134363
0.000132514
0.000130175
0.000156301
0.000429111
0.0524489
0.96049
0.999905
0.999999
0.999999
0.999999
0.999999
0.999999
0.999999
0.999999
0.999999
0.999999
0.999999
0.999999
0.999999
0.999999
0.999999
0.999999
0.999999
0.999999
0.999999
0.999999
0.999999
0.999999
0.999999
0.999999
0.999999
0.999999
0.999999
0.999999
0.999999
0.999999
0.999999
0.999999
0.999999
1
1
4.19766e-06
4.84815e-06
6.23636e-06
6.75096e-06
7.34022e-06
7.8137e-06
8.51024e-06
9.19615e-06
9.59355e-06
9.75841e-06
9.85703e-06
9.93144e-06
9.97208e-06
9.98954e-06
9.99354e-06
9.99458e-06
9.99411e-06
9.99406e-06
9.99369e-06
9.99354e-06
9.99306e-06
9.99277e-06
9.9922e-06
9.99179e-06
9.99144e-06
9.99114e-06
9.99091e-06
9.99066e-06
9.99052e-06
9.99037e-06
9.99037e-06
9.99027e-06
9.99023e-06
9.99002e-06
9.98978e-06
9.98936e-06
9.98883e-06
9.98816e-06
9.98739e-06
9.98739e-06
9.98739e-06
9.98761e-06
1.00144e-05
1.02484e-05
1.12517e-05
1.40037e-05
1.95445e-05
2.79427e-05
3.76102e-05
5.04152e-05
0.000110064
0.000156857
0.000148931
0.000138703
0.00013464
0.000132757
0.000131093
0.000149874
0.00024959
0.0762222
0.950589
0.999913
0.999998
0.999998
0.999998
0.999999
0.999999
0.999999
0.999999
0.999999
0.999999
0.999999
0.999999
0.999999
0.999999
0.999999
0.999999
0.999999
0.999999
0.999999
0.999999
0.999999
0.999999
0.999999
0.999999
0.999999
0.999999
0.999999
0.999999
0.999999
0.999999
0.999999
0.999999
0.999999
1
1
3.99797e-06
4.25146e-06
5.83211e-06
6.40421e-06
7.15226e-06
7.60385e-06
8.22917e-06
8.91858e-06
9.44257e-06
9.67977e-06
9.8231e-06
9.92589e-06
9.97418e-06
9.99286e-06
9.99662e-06
9.99773e-06
9.99756e-06
9.99782e-06
9.99774e-06
9.99792e-06
9.99758e-06
9.99756e-06
9.99714e-06
9.99685e-06
9.99638e-06
9.99602e-06
9.99556e-06
9.99517e-06
9.9947e-06
9.99431e-06
9.99381e-06
9.99331e-06
9.99268e-06
9.99211e-06
9.99148e-06
9.99101e-06
9.99039e-06
9.98963e-06
9.98856e-06
9.98822e-06
9.98804e-06
9.99439e-06
1.00531e-05
1.03304e-05
1.12274e-05
1.36185e-05
1.86463e-05
2.65255e-05
3.55453e-05
5.25945e-05
0.000115149
0.000156309
0.000147219
0.000143068
0.000137255
0.000133913
0.000129321
0.000128867
0.000114551
0.114596
0.965172
0.99993
0.999972
0.999973
0.999978
0.999981
0.999982
0.999978
0.999975
0.999972
0.999972
0.999973
0.999976
0.999979
0.99998
0.999981
0.99998
0.999979
0.999978
0.999982
0.999987
0.999993
0.999997
0.999999
0.999999
0.999999
0.999999
0.999999
0.999999
0.999999
0.999999
0.999999
0.999999
0.999999
1
1
3.85927e-06
3.87459e-06
5.36984e-06
5.94056e-06
6.96467e-06
7.45549e-06
8.00856e-06
8.62562e-06
9.24952e-06
9.58399e-06
9.7676e-06
9.90861e-06
9.96763e-06
9.9866e-06
9.98954e-06
9.99066e-06
9.99045e-06
9.99045e-06
9.99045e-06
9.99052e-06
9.99084e-06
9.99105e-06
9.99103e-06
9.99097e-06
9.99083e-06
9.99062e-06
9.99038e-06
9.99009e-06
9.98984e-06
9.98954e-06
9.98927e-06
9.98889e-06
9.9885e-06
9.98803e-06
9.98762e-06
9.9872e-06
9.98676e-06
9.98623e-06
9.98576e-06
9.98576e-06
9.98576e-06
9.98969e-06
1.0052e-05
1.03196e-05
1.1166e-05
1.34103e-05
1.84178e-05
2.62085e-05
3.43706e-05
4.61286e-05
9.22808e-05
0.000152301
0.00015754
0.000149114
0.000138943
0.000135887
0.000129722
0.000131511
0.000114551
0.137561
0.969666
0.999482
0.999457
0.999447
0.999449
0.999399
0.999328
0.999243
0.999159
0.999098
0.999073
0.999064
0.999103
0.999145
0.999184
0.99921
0.999218
0.999214
0.999229
0.999302
0.999405
0.999542
0.999686
0.999815
0.999914
0.999971
0.999994
0.999999
1
1
1
1
1
1
1
1
3.71512e-06
3.70999e-06
4.92124e-06
5.3991e-06
6.76202e-06
7.36095e-06
7.87661e-06
8.48214e-06
9.10058e-06
9.49168e-06
9.71402e-06
9.8948e-06
9.9702e-06
9.9916e-06
9.99548e-06
9.99694e-06
9.99658e-06
9.99626e-06
9.9957e-06
9.9953e-06
9.99433e-06
9.99386e-06
9.99342e-06
9.99315e-06
9.9928e-06
9.99251e-06
9.99208e-06
9.9917e-06
9.99131e-06
9.99097e-06
9.99063e-06
9.99028e-06
9.9898e-06
9.98922e-06
9.98859e-06
9.98797e-06
9.9874e-06
9.98682e-06
9.98628e-06
9.98599e-06
9.98581e-06
9.99032e-06
1.00406e-05
1.0272e-05
1.10703e-05
1.32162e-05
1.80636e-05
2.57762e-05
3.41618e-05
4.18667e-05
7.65229e-05
0.000140618
0.000163891
0.000150871
0.00013685
0.00013345
0.000129146
0.000128627
0.000114551
0.13985
0.963984
0.998143
0.997587
0.997247
0.99693
0.996595
0.996216
0.995811
0.995399
0.995063
0.994863
0.994751
0.994664
0.994616
0.99459
0.994733
0.994939
0.995231
0.995576
0.996001
0.996402
0.996758
0.997086
0.997391
0.997742
0.998286
0.998883
0.999382
0.999707
0.999861
0.999903
0.999888
0.999872
0.999858
0.99985
0.999899
3.56638e-06
3.6489e-06
4.52381e-06
4.84784e-06
6.52994e-06
7.33661e-06
7.75547e-06
8.42515e-06
9.02277e-06
9.46988e-06
9.69142e-06
9.87986e-06
9.96473e-06
9.99006e-06
9.99439e-06
9.99634e-06
9.99614e-06
9.99595e-06
9.99551e-06
9.99566e-06
9.99576e-06
9.99586e-06
9.99582e-06
9.99585e-06
9.99584e-06
9.99589e-06
9.99589e-06
9.99578e-06
9.99562e-06
9.99544e-06
9.99524e-06
9.99494e-06
9.99438e-06
9.99367e-06
9.99304e-06
9.9924e-06
9.99182e-06
9.99125e-06
9.99077e-06
9.99061e-06
9.99063e-06
9.99557e-06
1.0027e-05
1.02061e-05
1.09279e-05
1.28023e-05
1.69021e-05
2.45954e-05
3.45036e-05
4.26494e-05
6.11854e-05
0.000115409
0.000159969
0.00016616
0.000140918
0.00013309
0.00013068
0.000133835
0.000114551
0.10468
0.963334
0.994533
0.992865
0.991997
0.991188
0.990659
0.990352
0.990139
0.989859
0.989459
0.989161
0.989046
0.989056
0.989011
0.989105
0.989642
0.990129
0.990774
0.991504
0.992345
0.993151
0.993696
0.993854
0.993653
0.992883
0.991925
0.990868
0.989867
0.989027
0.988422
0.988015
0.987733
0.98757
0.988405
0.989655
0.992561
3.35284e-06
3.61578e-06
4.10825e-06
4.31072e-06
6.14933e-06
7.4979e-06
7.77522e-06
8.42335e-06
9.03664e-06
9.4911e-06
9.69883e-06
9.86395e-06
9.95294e-06
9.9839e-06
9.98653e-06
9.98878e-06
9.98816e-06
9.9885e-06
9.98852e-06
9.98944e-06
9.99001e-06
9.99047e-06
9.99068e-06
9.9909e-06
9.99103e-06
9.99119e-06
9.99129e-06
9.9913e-06
9.99125e-06
9.99116e-06
9.99103e-06
9.99085e-06
9.9905e-06
9.99004e-06
9.98965e-06
9.98934e-06
9.98932e-06
9.98932e-06
9.98932e-06
9.98932e-06
9.98932e-06
9.9903e-06
1.00118e-05
1.01508e-05
1.08253e-05
1.26353e-05
1.66383e-05
2.5031e-05
3.47937e-05
4.65965e-05
5.96165e-05
9.74561e-05
0.000151395
0.000169081
0.000144843
0.000139662
0.000130964
0.000150692
0.000180574
0.0701517
0.966915
0.996904
0.996826
0.99746
0.997844
0.998122
0.998395
0.998573
0.998716
0.998832
0.998964
0.999053
0.999109
0.99914
0.999141
0.999069
0.998999
0.998905
0.998803
0.998697
0.998586
0.998474
0.998334
0.998151
0.997892
0.997568
0.997205
0.996916
0.996703
0.996541
0.996438
0.996709
0.997196
0.998057
0.999118
0.999771
3.20241e-06
3.34203e-06
3.61339e-06
3.7903e-06
5.48317e-06
7.25819e-06
8.18901e-06
8.6336e-06
9.08286e-06
9.49123e-06
9.70025e-06
9.84545e-06
9.93397e-06
9.97673e-06
9.98898e-06
9.99529e-06
9.99463e-06
9.99481e-06
9.99432e-06
9.99461e-06
9.99471e-06
9.99476e-06
9.99454e-06
9.99437e-06
9.99417e-06
9.99407e-06
9.99397e-06
9.99383e-06
9.99363e-06
9.99335e-06
9.99294e-06
9.99243e-06
9.99181e-06
9.99118e-06
9.99065e-06
9.99023e-06
9.98992e-06
9.98961e-06
9.98952e-06
9.98957e-06
9.9899e-06
9.99177e-06
1.00025e-05
1.00986e-05
1.07181e-05
1.25493e-05
1.67914e-05
2.36225e-05
3.29554e-05
4.77026e-05
6.23449e-05
8.81192e-05
0.000134522
0.000166826
0.000149775
0.000150825
0.000131173
0.000142501
0.000137594
0.0330488
0.959953
0.999541
0.999739
0.999877
0.999928
0.999951
0.999964
0.999974
0.999979
0.999981
0.999984
0.999985
0.999986
0.999987
0.999987
0.999987
0.999985
0.999981
0.999978
0.999973
0.999968
0.999961
0.999953
0.999944
0.999931
0.99992
0.999916
0.999915
0.999911
0.999909
0.999908
0.999916
0.999948
0.999976
0.999995
0.999999
2.9822e-06
3.117e-06
3.21399e-06
3.33544e-06
4.65324e-06
6.21071e-06
8.313e-06
8.90034e-06
9.13908e-06
9.42889e-06
9.63599e-06
9.7814e-06
9.87315e-06
9.94248e-06
9.97498e-06
9.98842e-06
9.98898e-06
9.99019e-06
9.99046e-06
9.99141e-06
9.99214e-06
9.99276e-06
9.99311e-06
9.99338e-06
9.99353e-06
9.99364e-06
9.9937e-06
9.9937e-06
9.9936e-06
9.9934e-06
9.99311e-06
9.9927e-06
9.99213e-06
9.99159e-06
9.99117e-06
9.9908e-06
9.99047e-06
9.9902e-06
9.99005e-06
9.99025e-06
9.99103e-06
9.99345e-06
9.99829e-06
1.00531e-05
1.05835e-05
1.24152e-05
1.63433e-05
2.12784e-05
2.99325e-05
4.91182e-05
6.70472e-05
8.67465e-05
0.000113291
0.000154689
0.000157054
0.000158877
0.000149907
0.000157567
0.000130454
0.013507
0.934868
0.999745
0.999997
0.999999
0.999999
0.999999
0.999999
0.999999
0.999999
0.999999
0.999999
1
1
1
1
1
1
1
0.999999
0.999999
0.999999
0.999999
0.999999
0.999999
0.999999
0.999999
0.999999
0.999999
0.999999
0.999999
0.999999
0.999999
0.999999
0.999999
1
1
2.7829e-06
2.89464e-06
2.91576e-06
2.97069e-06
3.8663e-06
5.17431e-06
7.45319e-06
8.9864e-06
9.27285e-06
9.52787e-06
9.64045e-06
9.81815e-06
9.91089e-06
9.97811e-06
9.99107e-06
9.99522e-06
9.9917e-06
9.99143e-06
9.99096e-06
9.99169e-06
9.99231e-06
9.99298e-06
9.9934e-06
9.99375e-06
9.99396e-06
9.99414e-06
9.99426e-06
9.99435e-06
9.99437e-06
9.99422e-06
9.99405e-06
9.99423e-06
9.99425e-06
9.99424e-06
9.99426e-06
9.99417e-06
9.99407e-06
9.99384e-06
9.99353e-06
9.99384e-06
9.99507e-06
9.9974e-06
1.00005e-05
1.00384e-05
1.04388e-05
1.20301e-05
1.51313e-05
1.94928e-05
2.74628e-05
4.75315e-05
7.06174e-05
9.16003e-05
0.000107
0.000134492
0.000151018
0.00016282
0.000151374
0.000159272
0.000175005
0.00877883
0.909549
0.99956
0.999999
0.999999
0.999999
0.999999
0.999999
0.999999
0.999999
0.999999
0.999999
0.999999
0.999999
0.999999
1
0.999999
0.999999
0.999999
0.999999
0.999999
0.999999
0.999999
0.999999
0.999999
0.999999
0.999999
0.999999
0.999999
0.999999
0.999999
0.999999
0.999999
0.999999
0.999999
0.999999
1
2.52227e-06
2.79999e-06
2.77884e-06
2.80785e-06
3.38833e-06
4.2428e-06
6.37121e-06
8.64966e-06
9.33213e-06
9.62853e-06
9.76339e-06
9.88955e-06
9.96459e-06
1.00071e-05
1.00094e-05
1.00094e-05
1.00061e-05
1.00012e-05
9.99758e-06
9.99653e-06
9.99625e-06
9.99642e-06
9.99662e-06
9.99682e-06
9.99696e-06
9.99704e-06
9.99707e-06
9.99699e-06
9.99688e-06
9.99658e-06
9.99629e-06
9.99631e-06
9.99624e-06
9.99611e-06
9.99601e-06
9.99575e-06
9.99555e-06
9.9955e-06
9.99564e-06
9.99675e-06
9.99903e-06
1.00016e-05
1.00064e-05
1.00445e-05
1.03364e-05
1.15109e-05
1.39314e-05
1.82505e-05
2.65748e-05
4.94284e-05
8.14851e-05
0.000101592
0.000111081
0.000130389
0.000143609
0.000160642
0.000139603
0.00015842
0.000216741
0.00903784
0.906926
0.999577
0.999999
0.999999
0.999999
0.999999
0.999999
0.999999
0.999999
0.999999
0.999999
0.999999
0.999999
0.999999
0.999999
0.999999
0.999999
0.999999
0.999999
0.999999
0.999999
0.999999
0.999999
0.999999
0.999999
0.999999
0.999999
0.999999
0.999999
0.999999
0.999999
0.999999
0.999999
0.999999
0.999999
1
2.53867e-06
2.88991e-06
2.80476e-06
2.77145e-06
3.27463e-06
3.8239e-06
5.27612e-06
7.77407e-06
9.31501e-06
9.63459e-06
9.74693e-06
9.85984e-06
9.93858e-06
9.99821e-06
1.00094e-05
1.00094e-05
1.00094e-05
1.00093e-05
1.00068e-05
1.0005e-05
1.00037e-05
1.00029e-05
1.00023e-05
1.00019e-05
1.00015e-05
1.00012e-05
1.00008e-05
1.00004e-05
9.99992e-06
9.9994e-06
9.99891e-06
9.99855e-06
9.99819e-06
9.99785e-06
9.99764e-06
9.99731e-06
9.99708e-06
9.99708e-06
9.99741e-06
9.9982e-06
9.99956e-06
1.00024e-05
1.00105e-05
1.00524e-05
1.02775e-05
1.11795e-05
1.32711e-05
1.76017e-05
2.69574e-05
5.21898e-05
9.07265e-05
0.000112874
0.000124776
0.000138383
0.000143098
0.00015472
0.000137953
0.000187017
0.000294008
0.0147349
0.898433
0.999492
0.999999
0.999999
0.999999
0.999999
0.999999
0.999999
0.999999
0.999999
0.999999
0.999999
0.999999
0.999999
0.999999
0.999999
0.999999
0.999999
0.999999
0.999999
0.999999
0.999999
0.999999
0.999999
0.999999
0.999999
0.999999
0.999999
0.999999
0.999999
0.999999
0.999999
0.999999
0.999999
0.999999
1
2.46917e-06
2.76682e-06
2.758e-06
2.73827e-06
3.28727e-06
3.88324e-06
4.45521e-06
6.95075e-06
9.12253e-06
9.64572e-06
9.75579e-06
9.83937e-06
9.90497e-06
9.97466e-06
1.00035e-05
1.00077e-05
1.00076e-05
1.00078e-05
1.00062e-05
1.00047e-05
1.00034e-05
1.00024e-05
1.00016e-05
1.0001e-05
1.00005e-05
1e-05
9.99959e-06
9.99913e-06
9.99868e-06
9.9982e-06
9.99777e-06
9.99741e-06
9.99732e-06
9.99718e-06
9.997e-06
9.99681e-06
9.99659e-06
9.99652e-06
9.99657e-06
9.99708e-06
9.99782e-06
1.00007e-05
1.00103e-05
1.00566e-05
1.02548e-05
1.0946e-05
1.27681e-05
1.68084e-05
2.60365e-05
5.80304e-05
9.78311e-05
0.000115556
0.000128182
0.000137999
0.000140429
0.000144121
0.000137567
0.000171078
0.000382587
0.0241636
0.889738
0.999248
0.999999
0.999999
0.999999
0.999999
0.999999
0.999999
0.999999
0.999999
0.999999
0.999999
0.999999
0.999999
0.999999
0.999999
0.999999
0.999999
0.999999
0.999999
0.999999
0.999999
0.999999
0.999999
0.999999
0.999999
0.999999
0.999999
0.999999
0.999999
0.999999
0.999999
0.999999
0.999999
0.999999
1
1.9595e-06
2.1904e-06
2.24747e-06
2.17419e-06
2.2828e-06
4.1617e-06
4.26736e-06
6.35504e-06
9.13757e-06
9.74594e-06
9.82125e-06
9.86847e-06
9.9145e-06
9.97829e-06
1.00134e-05
1.00134e-05
1.00134e-05
1.00134e-05
1.00134e-05
1.00128e-05
1.00116e-05
1.00107e-05
1.00098e-05
1.0009e-05
1.00083e-05
1.00078e-05
1.00073e-05
1.00068e-05
1.00063e-05
1.00058e-05
1.00054e-05
1.0005e-05
1.00049e-05
1.00048e-05
1.00047e-05
1.00045e-05
1.00043e-05
1.00042e-05
1.00042e-05
1.00047e-05
1.00051e-05
1.0009e-05
1.00256e-05
1.00924e-05
1.02955e-05
1.08744e-05
1.23141e-05
1.58898e-05
2.53429e-05
5.93196e-05
0.000103111
0.000116404
0.000120904
0.000127816
0.000132291
0.000136115
0.000128168
0.00019439
0.000558876
0.0371866
0.874793
0.998379
0.999996
0.999999
0.999999
0.999999
0.999999
0.999999
0.999999
0.999999
0.999999
0.999999
0.999999
0.999999
0.999999
0.999999
0.999999
0.999999
0.999999
0.999999
0.999999
0.999999
0.999999
0.999999
0.999999
0.999999
0.999999
0.999999
0.999999
0.999999
0.999999
0.999999
0.999999
0.999999
0.999999
1
4.57645e-06
5.76793e-06
6.37185e-06
6.85394e-06
7.27176e-06
7.86385e-06
8.721e-06
9.46504e-06
9.74548e-06
9.83409e-06
9.90041e-06
9.95659e-06
9.99404e-06
1.00104e-05
1.00104e-05
1.00104e-05
1.00104e-05
1.00104e-05
1.00094e-05
1.00088e-05
1.0008e-05
1.00077e-05
1.00073e-05
1.00072e-05
1.00071e-05
1.00072e-05
1.00072e-05
1.00073e-05
1.0008e-05
1.00081e-05
1.00081e-05
1.00081e-05
1.00081e-05
1.00081e-05
1.00081e-05
1.00081e-05
1.00081e-05
1.00079e-05
1.0007e-05
1.00061e-05
1.00047e-05
1.0005e-05
1.00086e-05
1.00204e-05
1.02248e-05
1.12679e-05
1.37524e-05
1.80139e-05
3.51446e-05
6.60079e-05
8.92888e-05
0.00011876
0.000129039
0.00013956
0.000139039
0.000140551
0.000136779
0.000157612
0.00063957
0.0467397
0.955301
0.999833
0.999999
0.999999
0.999999
0.999999
0.999999
0.999999
0.999999
0.999999
0.999999
0.999999
0.999999
0.999999
0.999999
0.999999
0.999999
0.999999
0.999999
0.999999
0.999999
0.999999
0.999999
0.999999
0.999999
0.999999
0.999999
0.999999
0.999999
0.999999
0.999999
0.999999
0.999999
0.999999
0.999999
1
3.83237e-06
5.53505e-06
6.79113e-06
7.32317e-06
8.00251e-06
8.69722e-06
9.04308e-06
9.17204e-06
9.39023e-06
9.57309e-06
9.73994e-06
9.87321e-06
9.95711e-06
9.9973e-06
1.00068e-05
1.00094e-05
1.00087e-05
1.0009e-05
1.00089e-05
1.00089e-05
1.00087e-05
1.00087e-05
1.00084e-05
1.00082e-05
1.0008e-05
1.00078e-05
1.00076e-05
1.00073e-05
1.00067e-05
1.00064e-05
1.00061e-05
1.00057e-05
1.00052e-05
1.00046e-05
1.00041e-05
1.00035e-05
1.00027e-05
1.00017e-05
1.00008e-05
1.00004e-05
1.00009e-05
1.00083e-05
1.00554e-05
1.02475e-05
1.06868e-05
1.2159e-05
1.62065e-05
2.29357e-05
3.41664e-05
5.84634e-05
8.02532e-05
0.000121523
0.000142845
0.000151328
0.000148043
0.000147773
0.000138854
0.000151781
0.000323462
0.0698209
0.980289
0.999986
0.999999
0.999999
0.999999
0.999999
0.999999
0.999999
0.999999
0.999999
0.999999
0.999999
0.999999
0.999999
0.999999
0.999999
0.999999
0.999999
0.999999
0.999999
0.999999
0.999999
0.999999
0.999999
0.999999
0.999999
0.999999
0.999999
0.999999
0.999999
0.999999
0.999999
0.999999
0.999999
0.999999
1
3.38067e-06
4.79943e-06
6.50014e-06
7.15694e-06
7.70386e-06
8.11726e-06
8.49329e-06
8.81705e-06
9.15477e-06
9.42997e-06
9.65267e-06
9.82906e-06
9.93492e-06
9.99036e-06
1.00028e-05
1.00062e-05
1.00058e-05
1.00059e-05
1.00056e-05
1.00056e-05
1.00053e-05
1.00051e-05
1.00048e-05
1.00046e-05
1.00043e-05
1.0004e-05
1.00037e-05
1.00034e-05
1.00031e-05
1.00029e-05
1.00025e-05
1.0002e-05
1.00015e-05
1.0001e-05
1.00005e-05
1.00001e-05
9.99933e-06
9.99856e-06
9.9979e-06
9.9977e-06
9.99779e-06
1.00062e-05
1.0081e-05
1.04312e-05
1.13027e-05
1.31013e-05
1.72894e-05
2.47975e-05
3.47116e-05
5.16359e-05
8.38847e-05
0.000130373
0.000156957
0.000156036
0.000149388
0.000149917
0.000136319
0.00015375
0.000248035
0.0874494
0.974616
0.999999
0.999999
0.999999
0.999999
0.999999
0.999999
0.999999
0.999999
0.999999
0.999999
0.999999
0.999999
0.999999
0.999999
0.999999
0.999999
0.999999
0.999999
0.999999
0.999999
0.999999
0.999999
0.999999
0.999999
0.999999
0.999999
0.999999
0.999999
0.999999
0.999999
0.999999
0.999999
0.999999
0.999999
1
3.05736e-06
3.86439e-06
5.73283e-06
6.62291e-06
7.33712e-06
7.84115e-06
8.29511e-06
8.71531e-06
9.08071e-06
9.38309e-06
9.61909e-06
9.81026e-06
9.92272e-06
9.98554e-06
9.99982e-06
1.00037e-05
1.00031e-05
1.00031e-05
1.00027e-05
1.00025e-05
1.00021e-05
1.00018e-05
1.00015e-05
1.00012e-05
1.00008e-05
1.00005e-05
1.00002e-05
9.99993e-06
9.99964e-06
9.9994e-06
9.99911e-06
9.99866e-06
9.99822e-06
9.99776e-06
9.99732e-06
9.99694e-06
9.99645e-06
9.99585e-06
9.99508e-06
9.99471e-06
9.99439e-06
1.00009e-05
1.00617e-05
1.0409e-05
1.1361e-05
1.31834e-05
1.66336e-05
2.37189e-05
3.39157e-05
5.07705e-05
0.000108343
0.000141497
0.000159295
0.000150924
0.000153517
0.000159776
0.000160253
0.000160473
0.000154565
0.191881
0.996494
0.999985
0.999991
0.999995
0.999997
0.999998
0.999999
0.999999
0.999999
0.999999
0.999999
0.999999
0.999999
0.999999
0.999999
0.999999
0.999999
0.999999
0.999999
0.999999
0.999999
0.999999
0.999999
0.999999
0.999999
0.999999
0.999999
0.999999
0.999999
0.999999
0.999999
0.999999
0.999999
0.999999
0.999999
1
2.88759e-06
3.13794e-06
4.95555e-06
6.06247e-06
6.99595e-06
7.73001e-06
8.27681e-06
8.70776e-06
9.07136e-06
9.3737e-06
9.60737e-06
9.80196e-06
9.91587e-06
9.98266e-06
9.99817e-06
1.00025e-05
1.00019e-05
1.00018e-05
1.00013e-05
1.00011e-05
1.00006e-05
1.00003e-05
9.99985e-06
9.9995e-06
9.99913e-06
9.99881e-06
9.99851e-06
9.99823e-06
9.99797e-06
9.99775e-06
9.9975e-06
9.99709e-06
9.9967e-06
9.99625e-06
9.99582e-06
9.99541e-06
9.99502e-06
9.99455e-06
9.9938e-06
9.99354e-06
9.99345e-06
9.99976e-06
1.00387e-05
1.02554e-05
1.10114e-05
1.27093e-05
1.59642e-05
2.32322e-05
3.5483e-05
7.98163e-05
0.000144179
0.000142402
0.000142409
0.000142494
0.000145266
0.000145853
0.000140153
0.000131156
0.000114551
0.325581
0.996607
0.999102
0.999185
0.999345
0.999482
0.999618
0.999721
0.999803
0.999861
0.999902
0.999931
0.999955
0.999973
0.999987
0.999995
0.999998
0.999999
0.999998
0.999999
0.999999
0.999999
0.999999
0.999999
0.999999
0.999999
0.999999
0.999999
0.999999
0.999999
0.999999
0.999999
0.999999
0.999999
0.999999
0.999999
1
2.77702e-06
2.69709e-06
4.27482e-06
5.5433e-06
6.58982e-06
7.58106e-06
8.28148e-06
8.72027e-06
9.0746e-06
9.37115e-06
9.60244e-06
9.79832e-06
9.91219e-06
9.9805e-06
9.99691e-06
1.00015e-05
1.00008e-05
1.00007e-05
1.00001e-05
9.99977e-06
9.99923e-06
9.99886e-06
9.99841e-06
9.99805e-06
9.99767e-06
9.99736e-06
9.99709e-06
9.99685e-06
9.99663e-06
9.99647e-06
9.99628e-06
9.99597e-06
9.99564e-06
9.99526e-06
9.99482e-06
9.99443e-06
9.99408e-06
9.99366e-06
9.99293e-06
9.9928e-06
9.99289e-06
9.999e-06
1.00296e-05
1.01843e-05
1.07983e-05
1.24417e-05
1.59243e-05
2.34139e-05
3.2625e-05
7.08708e-05
0.000150546
0.000154661
0.000161313
0.000167742
0.000170452
0.000169668
0.000161657
0.00017395
0.000114551
0.561267
0.987059
0.988971
0.988774
0.988732
0.989112
0.990061
0.990926
0.991844
0.992578
0.993368
0.994186
0.995071
0.995877
0.996581
0.997152
0.997563
0.997954
0.998294
0.998663
0.998969
0.999217
0.999417
0.999569
0.999707
0.999826
0.999911
0.999967
0.999993
0.999997
0.999996
0.999997
0.999999
1
1
1
1
2.67618e-06
2.43577e-06
3.66693e-06
5.0501e-06
6.19306e-06
7.35387e-06
8.18692e-06
8.68907e-06
9.05143e-06
9.36208e-06
9.59793e-06
9.79644e-06
9.91059e-06
9.97939e-06
9.99632e-06
1.0001e-05
1.00004e-05
1.00002e-05
9.9996e-06
9.99933e-06
9.99876e-06
9.99837e-06
9.99791e-06
9.99756e-06
9.99721e-06
9.99692e-06
9.99668e-06
9.99646e-06
9.99626e-06
9.99614e-06
9.99598e-06
9.9957e-06
9.9954e-06
9.99503e-06
9.99459e-06
9.9942e-06
9.99387e-06
9.99345e-06
9.99272e-06
9.99244e-06
9.99252e-06
9.99859e-06
1.00251e-05
1.01505e-05
1.06942e-05
1.23268e-05
1.63644e-05
2.41414e-05
3.17493e-05
3.78417e-05
0.000142122
0.000160973
0.000162398
0.000162783
0.000155296
0.000148662
0.000140882
0.000146335
0.000114551
0.595035
0.969404
0.971299
0.969387
0.96789
0.966353
0.965892
0.965733
0.965651
0.965638
0.965592
0.9663
0.966895
0.967576
0.968301
0.96921
0.969976
0.97061
0.971242
0.972063
0.973155
0.974736
0.976681
0.978972
0.981535
0.984289
0.987159
0.990063
0.992842
0.995178
0.996651
0.997533
0.997742
0.997424
0.996903
0.995771
0.994408
2.60569e-06
2.23722e-06
3.02884e-06
4.29831e-06
5.79909e-06
7.10085e-06
8.06798e-06
8.6396e-06
9.029e-06
9.35536e-06
9.59557e-06
9.79584e-06
9.91034e-06
9.97902e-06
9.99583e-06
1.00004e-05
9.99998e-06
9.99995e-06
9.99954e-06
9.99952e-06
9.99921e-06
9.99898e-06
9.99862e-06
9.99834e-06
9.99807e-06
9.99785e-06
9.99764e-06
9.99743e-06
9.99721e-06
9.99703e-06
9.99678e-06
9.99648e-06
9.99607e-06
9.9956e-06
9.99497e-06
9.99445e-06
9.99411e-06
9.99361e-06
9.99287e-06
9.9922e-06
9.99292e-06
9.99859e-06
1.00215e-05
1.01253e-05
1.0604e-05
1.21916e-05
1.64431e-05
2.40956e-05
3.33418e-05
4.10609e-05
7.06508e-05
0.000154624
0.000166175
0.000160808
0.000149574
0.00014719
0.000140696
0.000141465
0.000114551
0.392881
0.957189
0.967769
0.964395
0.962485
0.961239
0.960958
0.959742
0.957503
0.955455
0.953927
0.95315
0.95219
0.950941
0.949608
0.948192
0.946069
0.943539
0.940632
0.936984
0.933619
0.930062
0.926368
0.922922
0.91966
0.915868
0.911975
0.907882
0.904038
0.900333
0.896135
0.891367
0.885503
0.876084
0.858741
0.815453
0.612772
2.51246e-06
2.0822e-06
2.50698e-06
3.47019e-06
5.14548e-06
6.71996e-06
7.94436e-06
8.60562e-06
9.01319e-06
9.35299e-06
9.59644e-06
9.80189e-06
9.91624e-06
9.98236e-06
9.99815e-06
1.00024e-05
1.00019e-05
1.00017e-05
1.00011e-05
1.0001e-05
1.00005e-05
1.00003e-05
9.99994e-06
9.99967e-06
9.99939e-06
9.99917e-06
9.99895e-06
9.99874e-06
9.99855e-06
9.99839e-06
9.99819e-06
9.99798e-06
9.99762e-06
9.99727e-06
9.99686e-06
9.99646e-06
9.99611e-06
9.99565e-06
9.99504e-06
9.99452e-06
9.99505e-06
1.0001e-05
1.00198e-05
1.01007e-05
1.04958e-05
1.19289e-05
1.59736e-05
2.41126e-05
3.44562e-05
4.86267e-05
5.39682e-05
0.000119865
0.000163643
0.000167344
0.000152908
0.000182061
0.000146938
0.000138037
0.000114551
0.21743
0.972292
0.99113
0.992004
0.993138
0.993435
0.993981
0.994733
0.99579
0.996883
0.997657
0.997417
0.997563
0.997686
0.997783
0.997736
0.997396
0.997191
0.996668
0.996099
0.995314
0.99426
0.992699
0.990637
0.988202
0.985577
0.983101
0.980497
0.97719
0.973902
0.971203
0.969011
0.967466
0.966861
0.970025
0.973784
0.978498
2.41275e-06
1.97851e-06
2.13271e-06
2.68641e-06
4.10191e-06
6.01356e-06
7.74124e-06
8.58358e-06
9.00605e-06
9.3614e-06
9.61182e-06
9.81272e-06
9.92239e-06
9.98482e-06
9.99981e-06
1.00039e-05
1.00036e-05
1.00034e-05
1.0003e-05
1.0003e-05
1.00026e-05
1.00024e-05
1.0002e-05
1.00017e-05
1.00014e-05
1.00011e-05
1.00009e-05
1.00006e-05
1.00004e-05
1.00001e-05
9.99984e-06
9.99959e-06
9.99917e-06
9.99878e-06
9.99826e-06
9.99773e-06
9.99728e-06
9.99674e-06
9.99603e-06
9.99559e-06
9.99649e-06
1.00019e-05
1.0019e-05
1.00884e-05
1.04195e-05
1.16924e-05
1.54364e-05
2.28463e-05
3.46425e-05
5.26938e-05
6.36666e-05
8.8873e-05
0.000146682
0.000173512
0.000171182
0.000180775
0.000156504
0.000166768
0.000114551
0.0772573
0.977992
0.999596
0.999708
0.999825
0.999819
0.999861
0.999892
0.999937
0.999964
0.999973
0.999969
0.999968
0.999966
0.999964
0.999959
0.99995
0.999937
0.999918
0.999894
0.999865
0.999828
0.999781
0.999724
0.999664
0.99961
0.999578
0.999613
0.999696
0.99973
0.999779
0.999854
0.999884
0.99991
0.999918
0.999922
0.999997
2.29837e-06
1.90724e-06
1.92634e-06
2.14328e-06
3.00148e-06
4.97414e-06
7.25255e-06
8.47402e-06
8.99751e-06
9.36448e-06
9.62868e-06
9.82407e-06
9.92718e-06
9.98563e-06
1.00001e-05
1.0004e-05
1.00039e-05
1.00039e-05
1.00036e-05
1.00036e-05
1.00033e-05
1.00031e-05
1.00028e-05
1.00025e-05
1.00022e-05
1.0002e-05
1.00017e-05
1.00014e-05
1.00012e-05
1.0001e-05
1.00007e-05
1.00005e-05
1.00001e-05
9.99979e-06
9.99932e-06
9.99884e-06
9.99851e-06
9.99823e-06
9.99762e-06
9.99724e-06
9.99805e-06
1.00032e-05
1.00194e-05
1.00817e-05
1.03712e-05
1.1518e-05
1.47836e-05
2.08694e-05
3.22267e-05
5.44629e-05
7.52054e-05
8.39592e-05
0.000119178
0.000162377
0.000183652
0.000188004
0.000176196
0.000184452
0.000114551
0.0237963
0.967726
0.999999
0.999998
0.999999
0.999999
0.999999
0.999999
0.999999
0.999999
0.999999
0.999999
0.999999
0.999999
0.999999
0.999999
0.999999
0.999999
0.999999
0.999999
0.999999
0.999999
0.999999
0.999999
0.999998
0.999998
0.999999
0.999999
0.999999
0.999999
0.999999
0.999999
0.999999
0.999999
0.999999
0.999999
1
2.1871e-06
1.83368e-06
1.81728e-06
1.86102e-06
2.29604e-06
3.63378e-06
6.42386e-06
8.30365e-06
8.9999e-06
9.39702e-06
9.65712e-06
9.8388e-06
9.93267e-06
9.98753e-06
1.00008e-05
1.0004e-05
1.00037e-05
1.00038e-05
1.00035e-05
1.00035e-05
1.00032e-05
1.0003e-05
1.00027e-05
1.00025e-05
1.00022e-05
1.0002e-05
1.00017e-05
1.00015e-05
1.00013e-05
1.0001e-05
1.00008e-05
1.00005e-05
1.00001e-05
9.99971e-06
9.99918e-06
9.99865e-06
9.99832e-06
9.99817e-06
9.99769e-06
9.99734e-06
9.99813e-06
1.00032e-05
1.00198e-05
1.00798e-05
1.03458e-05
1.13932e-05
1.39308e-05
1.82856e-05
2.88349e-05
5.38921e-05
8.17716e-05
9.43175e-05
0.000106773
0.00014256
0.000179884
0.000191833
0.000186183
0.000194362
0.000142013
0.0161994
0.9586
0.999993
0.999999
0.999999
0.999999
0.999999
0.999999
0.999999
0.999999
0.999999
0.999999
0.999999
0.999999
0.999999
0.999999
0.999999
0.999999
0.999999
0.999999
0.999999
0.999999
0.999999
0.999999
0.999999
0.999999
0.999999
0.999999
1
0.999999
0.999999
0.999999
0.999999
0.999999
0.999999
0.999999
1
2.02341e-06
1.74132e-06
1.73688e-06
1.72518e-06
1.85602e-06
2.38508e-06
4.81348e-06
7.92715e-06
9.02037e-06
9.4378e-06
9.685e-06
9.84486e-06
9.9332e-06
9.98312e-06
1.00008e-05
1.00041e-05
1.0004e-05
1.0004e-05
1.0004e-05
1.00039e-05
1.00037e-05
1.00035e-05
1.00032e-05
1.00029e-05
1.00026e-05
1.00024e-05
1.00021e-05
1.00017e-05
1.00014e-05
1.00011e-05
1.00009e-05
1.00004e-05
9.99984e-06
9.99915e-06
9.99842e-06
9.99769e-06
9.99699e-06
9.99643e-06
9.99608e-06
9.99622e-06
9.99677e-06
1.00013e-05