/*--------------------------------*- C++ -*----------------------------------*\
| =========                 |                                                 |
| \\      /  F ield         | OpenFOAM: The Open Source CFD Toolbox           |
|  \\    /   O peration     | Version:  2.3.0                                 |
|   \\  /    A nd           | Web:      www.OpenFOAM.org                      |
|    \\/     M anipulation  |                                                 |
\*---------------------------------------------------------------------------*/
FoamFile
{
    version     2.0;
    format      ascii;
    class       volScalarField;
    location    "29";
    object      alpha.air;
}
// * * * * * * * * * * * * * * * * * * * * * * * * * * * * * * * * * * * * * //

dimensions      [0 0 0 0 0 0 0];

internalField   nonuniform List<scalar> 
6144
(
0.999995
0.999994
0.999994
0.999993
0.999993
0.999992
0.999992
0.999991
0.99999
0.99999
0.99999
0.99999
0.99999
0.99999
0.99999
0.99999
0.99999
0.99999
0.99999
0.99999
0.99999
0.99999
0.99999
0.99999
0.99999
0.99999
0.99999
0.99999
0.99999
0.99999
0.99999
0.99999
0.99999
0.99999
0.99999
0.99999
0.99999
0.99999
0.99999
0.99999
0.99999
0.99999
0.99999
0.99999
0.99999
0.999988
0.999986
0.999981
0.999965
0.999936
0.999909
0.99987
0.999858
0.999855
0.999859
0.999858
0.999862
0.999855
0.999034
0.950341
0.0423701
0.000286219
1.01835e-06
5.28227e-07
5.39851e-07
5.52838e-07
5.52739e-07
5.5161e-07
5.50366e-07
5.48735e-07
5.46185e-07
5.44663e-07
5.4377e-07
5.4455e-07
5.45502e-07
5.41681e-07
5.43436e-07
5.49709e-07
5.59755e-07
5.6572e-07
5.67293e-07
5.65206e-07
5.61815e-07
5.63969e-07
5.6826e-07
5.69902e-07
5.70502e-07
5.64088e-07
5.47158e-07
5.31009e-07
5.23967e-07
5.20024e-07
5.17179e-07
4.93748e-07
4.48273e-07
3.75769e-07
0.999995
0.999994
0.999993
0.999993
0.999992
0.999992
0.999991
0.999991
0.99999
0.99999
0.99999
0.99999
0.99999
0.99999
0.99999
0.99999
0.99999
0.99999
0.99999
0.99999
0.99999
0.99999
0.99999
0.99999
0.99999
0.99999
0.99999
0.99999
0.99999
0.99999
0.99999
0.99999
0.99999
0.99999
0.99999
0.99999
0.99999
0.99999
0.99999
0.99999
0.99999
0.99999
0.99999
0.99999
0.999989
0.999987
0.999982
0.999976
0.999968
0.999958
0.999911
0.999854
0.999848
0.999856
0.999864
0.999864
0.99987
0.999855
0.999523
0.958823
0.0363013
0.000123753
5.24853e-07
6.87262e-07
6.72004e-07
6.79472e-07
6.02682e-07
5.73142e-07
5.67217e-07
5.73579e-07
5.72446e-07
5.70588e-07
5.79139e-07
5.86469e-07
5.86047e-07
5.73464e-07
5.67691e-07
5.70821e-07
5.72439e-07
5.74359e-07
5.813e-07
5.85151e-07
5.79438e-07
5.65818e-07
5.65356e-07
5.64744e-07
5.66272e-07
5.67598e-07
5.68219e-07
5.50081e-07
5.31607e-07
5.23106e-07
5.18545e-07
5.02151e-07
4.58253e-07
3.83142e-07
0.999996
0.999995
0.999993
0.999993
0.999992
0.999992
0.999991
0.999991
0.99999
0.99999
0.99999
0.99999
0.99999
0.99999
0.99999
0.99999
0.99999
0.99999
0.99999
0.99999
0.99999
0.99999
0.99999
0.99999
0.99999
0.99999
0.99999
0.99999
0.99999
0.99999
0.99999
0.99999
0.99999
0.99999
0.99999
0.99999
0.99999
0.99999
0.99999
0.99999
0.99999
0.99999
0.99999
0.99999
0.999989
0.999986
0.999981
0.999973
0.999963
0.999953
0.999899
0.999845
0.999851
0.999862
0.999866
0.999867
0.99987
0.999844
0.999571
0.947551
0.0395098
9.46315e-05
5.24852e-07
8.79863e-07
7.17011e-07
6.39655e-07
5.68807e-07
5.64007e-07
5.63983e-07
5.64405e-07
5.70446e-07
5.85096e-07
6.08958e-07
6.23356e-07
6.25888e-07
6.23664e-07
6.15238e-07
6.11023e-07
6.10403e-07
6.18853e-07
6.4442e-07
6.56517e-07
6.12268e-07
5.63126e-07
5.47935e-07
5.47032e-07
5.52515e-07
5.61489e-07
5.66667e-07
5.64612e-07
5.50556e-07
5.29197e-07
5.19437e-07
5.0726e-07
4.63918e-07
3.89431e-07
0.999996
0.999995
0.999994
0.999993
0.999993
0.999992
0.999991
0.999991
0.99999
0.99999
0.99999
0.99999
0.99999
0.99999
0.99999
0.99999
0.99999
0.99999
0.99999
0.99999
0.99999
0.99999
0.99999
0.99999
0.99999
0.99999
0.99999
0.99999
0.99999
0.99999
0.99999
0.99999
0.99999
0.99999
0.99999
0.99999
0.99999
0.99999
0.99999
0.99999
0.99999
0.99999
0.99999
0.99999
0.999989
0.999986
0.99998
0.999972
0.999962
0.99995
0.99989
0.999843
0.999851
0.999861
0.999865
0.999867
0.999869
0.99985
0.99975
0.923778
0.0494106
8.69227e-05
1.50181e-06
2.07598e-06
1.98331e-06
1.09291e-06
5.6385e-07
5.63851e-07
5.68638e-07
5.92629e-07
6.39992e-07
6.78741e-07
6.85289e-07
6.62194e-07
6.47933e-07
6.71526e-07
7.19684e-07
7.66742e-07
8.338e-07
9.04854e-07
9.2816e-07
8.28148e-07
6.2353e-07
5.54912e-07
5.42302e-07
5.49234e-07
5.49805e-07
5.63347e-07
5.68353e-07
5.6828e-07
5.68096e-07
5.47738e-07
5.30309e-07
5.14977e-07
4.73764e-07
3.99186e-07
0.999996
0.999996
0.999994
0.999994
0.999993
0.999992
0.999992
0.999991
0.999991
0.99999
0.99999
0.99999
0.99999
0.99999
0.99999
0.99999
0.99999
0.99999
0.99999
0.99999
0.99999
0.99999
0.99999
0.99999
0.99999
0.99999
0.99999
0.99999
0.99999
0.99999
0.99999
0.99999
0.99999
0.99999
0.99999
0.99999
0.99999
0.99999
0.99999
0.99999
0.99999
0.99999
0.99999
0.99999
0.999989
0.999986
0.999981
0.999973
0.999964
0.999947
0.999885
0.999844
0.999853
0.999857
0.999863
0.999866
0.999871
0.999871
0.999885
0.885404
0.0348285
7.0402e-05
2.84164e-05
2.653e-05
2.16287e-05
1.88815e-05
1.82788e-05
2.1917e-05
2.49225e-05
2.7515e-05
2.84749e-05
2.71327e-05
2.42863e-05
2.14419e-05
1.95254e-05
1.88857e-05
2.00492e-05
2.12982e-05
2.1518e-05
1.79219e-05
1.26394e-05
7.19341e-06
3.18001e-06
1.18664e-06
5.8837e-07
5.34676e-07
5.34676e-07
5.68066e-07
5.69961e-07
5.66957e-07
5.67303e-07
5.56317e-07
5.38654e-07
5.18769e-07
4.78045e-07
4.05209e-07
0.999996
0.999996
0.999995
0.999994
0.999993
0.999993
0.999992
0.999991
0.999991
0.99999
0.99999
0.99999
0.99999
0.99999
0.99999
0.99999
0.99999
0.99999
0.99999
0.99999
0.99999
0.99999
0.99999
0.99999
0.99999
0.99999
0.99999
0.99999
0.99999
0.99999
0.99999
0.99999
0.99999
0.99999
0.99999
0.99999
0.99999
0.99999
0.99999
0.99999
0.99999
0.99999
0.99999
0.99999
0.999989
0.999987
0.999982
0.999974
0.999966
0.999954
0.999908
0.999848
0.999842
0.999851
0.999861
0.999864
0.99987
0.999868
0.999885
0.862439
0.0303338
0.000518068
0.000543133
0.000553084
0.000551197
0.000600596
0.000671991
0.000756999
0.000840794
0.000901791
0.00092725
0.000936474
0.000897281
0.00085542
0.000816135
0.000790235
0.000782445
0.000786124
0.00077114
0.000697696
0.000595239
0.000458164
0.000313691
0.000185338
8.64996e-05
2.88125e-05
6.33926e-06
9.9391e-07
3.81346e-07
3.74707e-07
3.74708e-07
3.7471e-07
3.74712e-07
3.74714e-07
3.74716e-07
3.74716e-07
0.999996
0.999996
0.999995
0.999995
0.999993
0.999993
0.999992
0.999992
0.999991
0.999991
0.99999
0.99999
0.99999
0.99999
0.99999
0.99999
0.99999
0.99999
0.99999
0.99999
0.99999
0.99999
0.99999
0.99999
0.99999
0.99999
0.99999
0.99999
0.99999
0.99999
0.99999
0.99999
0.99999
0.99999
0.99999
0.99999
0.99999
0.99999
0.99999
0.99999
0.99999
0.99999
0.99999
0.99999
0.999989
0.999987
0.999982
0.999974
0.999966
0.999958
0.999923
0.999859
0.999836
0.999849
0.999863
0.999867
0.999871
0.999871
0.999885
0.86015
0.0360164
0.00185685
0.00241344
0.00275321
0.00307005
0.00340514
0.00378386
0.00418851
0.00460146
0.00493692
0.00513749
0.00524872
0.00533601
0.00538447
0.00540953
0.00526654
0.00506079
0.00476861
0.00442367
0.0039985
0.00359838
0.00324231
0.00291377
0.00260858
0.00225758
0.00171417
0.00111666
0.000617677
0.000292971
0.000139182
9.68636e-05
0.000112379
0.000128156
0.000141545
0.000149525
0.000100949
0.999996
0.999996
0.999995
0.999995
0.999993
0.999993
0.999992
0.999992
0.999991
0.999991
0.99999
0.99999
0.99999
0.99999
0.99999
0.99999
0.99999
0.99999
0.99999
0.99999
0.99999
0.99999
0.99999
0.99999
0.99999
0.99999
0.99999
0.99999
0.99999
0.99999
0.99999
0.99999
0.99999
0.99999
0.99999
0.99999
0.99999
0.99999
0.99999
0.99999
0.99999
0.99999
0.99999
0.99999
0.999989
0.999987
0.999983
0.999975
0.999965
0.999957
0.999939
0.999885
0.99984
0.999834
0.999859
0.999867
0.999869
0.999866
0.999885
0.89532
0.0366655
0.00546666
0.00713501
0.00800349
0.00881201
0.00934057
0.0096482
0.00986076
0.0101408
0.0105409
0.0108391
0.010954
0.010944
0.0109889
0.0108952
0.010358
0.00987149
0.00922585
0.00849649
0.00765466
0.0068486
0.00630403
0.00614613
0.00634695
0.00711743
0.00807506
0.00913232
0.0101335
0.010973
0.0115782
0.0119854
0.0122672
0.0124295
0.0115954
0.0103447
0.00743873
0.999997
0.999996
0.999996
0.999996
0.999994
0.999993
0.999992
0.999992
0.999991
0.999991
0.99999
0.99999
0.99999
0.99999
0.99999
0.99999
0.99999
0.99999
0.99999
0.99999
0.99999
0.99999
0.99999
0.99999
0.99999
0.99999
0.99999
0.99999
0.99999
0.99999
0.99999
0.99999
0.99999
0.99999
0.99999
0.99999
0.99999
0.99999
0.99999
0.99999
0.99999
0.99999
0.99999
0.99999
0.999989
0.999987
0.999983
0.999975
0.999965
0.999953
0.99994
0.999903
0.999849
0.999831
0.999855
0.99986
0.999869
0.999849
0.999819
0.929848
0.0330846
0.00309603
0.00317414
0.00254039
0.00215616
0.00187803
0.00160539
0.00142704
0.00128397
0.0011678
0.00103638
0.000946828
0.000891092
0.000860213
0.00085913
0.000931061
0.00100074
0.00109461
0.00119717
0.00130334
0.00141445
0.00152557
0.00166588
0.00184915
0.00210762
0.00243247
0.00279478
0.00308405
0.00329656
0.00345902
0.00356241
0.00329117
0.00280388
0.00194288
0.000882122
0.000228592
0.999997
0.999997
0.999996
0.999996
0.999995
0.999993
0.999992
0.999991
0.999991
0.999991
0.99999
0.99999
0.99999
0.99999
0.99999
0.99999
0.99999
0.99999
0.99999
0.99999
0.99999
0.99999
0.99999
0.99999
0.99999
0.99999
0.99999
0.99999
0.99999
0.99999
0.99999
0.99999
0.99999
0.99999
0.99999
0.99999
0.99999
0.99999
0.99999
0.99999
0.99999
0.99999
0.99999
0.99999
0.999989
0.999987
0.999983
0.999976
0.999967
0.999952
0.999938
0.999912
0.999865
0.999833
0.99985
0.999849
0.999869
0.999857
0.999862
0.966951
0.0400474
0.000459407
0.000261349
0.000122922
7.16069e-05
4.86594e-05
3.57495e-05
2.63934e-05
2.13782e-05
1.85534e-05
1.63491e-05
1.49318e-05
1.3778e-05
1.30967e-05
1.26296e-05
1.26846e-05
1.5492e-05
1.86475e-05
2.2481e-05
2.70732e-05
3.2474e-05
3.88589e-05
4.6735e-05
5.64552e-05
6.94559e-05
7.95123e-05
8.35525e-05
8.52153e-05
8.94058e-05
9.08967e-05
9.21534e-05
8.39513e-05
5.22879e-05
2.38042e-05
5.18501e-06
9.13269e-07
0.999997
0.999997
0.999997
0.999997
0.999995
0.999994
0.999992
0.999991
0.999991
0.999991
0.99999
0.99999
0.99999
0.99999
0.99999
0.99999
0.99999
0.99999
0.99999
0.99999
0.99999
0.99999
0.99999
0.99999
0.99999
0.99999
0.99999
0.99999
0.99999
0.99999
0.99999
0.99999
0.99999
0.99999
0.99999
0.99999
0.99999
0.99999
0.99999
0.99999
0.99999
0.99999
0.99999
0.99999
0.999989
0.999988
0.999984
0.999979
0.99997
0.999951
0.999933
0.999913
0.999887
0.999845
0.999843
0.999841
0.99985
0.999842
0.99987
0.986493
0.0651324
0.0002547
2.747e-06
9.5927e-07
8.82107e-07
1.00875e-06
9.09397e-07
9.4326e-07
9.04204e-07
5.9161e-07
5.04273e-07
4.80495e-07
4.80495e-07
4.80495e-07
4.80495e-07
4.80495e-07
4.80495e-07
4.90404e-07
5.0884e-07
5.13628e-07
5.13152e-07
5.10381e-07
5.09461e-07
5.09461e-07
5.09459e-07
5.09458e-07
5.09458e-07
5.09459e-07
5.09461e-07
5.09462e-07
5.32019e-07
6.87575e-07
7.45521e-07
7.16779e-07
3.85377e-07
2.85678e-07
0.999997
0.999997
0.999997
0.999997
0.999996
0.999995
0.999993
0.999991
0.999991
0.99999
0.99999
0.99999
0.99999
0.99999
0.99999
0.99999
0.99999
0.99999
0.99999
0.99999
0.99999
0.99999
0.99999
0.99999
0.99999
0.99999
0.99999
0.99999
0.99999
0.99999
0.99999
0.99999
0.99999
0.99999
0.99999
0.99999
0.99999
0.99999
0.99999
0.99999
0.99999
0.99999
0.99999
0.99999
0.99999
0.999988
0.999985
0.999981
0.999973
0.999952
0.999929
0.999908
0.999893
0.999866
0.999849
0.999837
0.999849
0.999841
0.999825
0.991221
0.0904513
0.000439549
6.51912e-07
6.6955e-07
7.38231e-07
7.40119e-07
7.13638e-07
7.18679e-07
6.37667e-07
5.97056e-07
5.7968e-07
5.57313e-07
5.18224e-07
5.00381e-07
4.97619e-07
5.09971e-07
5.38949e-07
5.91676e-07
6.46439e-07
6.70135e-07
6.66225e-07
6.63015e-07
6.6413e-07
6.47276e-07
6.05713e-07
5.54486e-07
5.21008e-07
5.12637e-07
5.41494e-07
5.70394e-07
5.85695e-07
5.97225e-07
6.05068e-07
6.03164e-07
5.01855e-07
3.23161e-07
0.999997
0.999997
0.999997
0.999997
0.999997
0.999996
0.999994
0.999991
0.999991
0.99999
0.99999
0.99999
0.99999
0.99999
0.99999
0.99999
0.99999
0.99999
0.99999
0.99999
0.99999
0.99999
0.99999
0.99999
0.99999
0.99999
0.99999
0.99999
0.99999
0.99999
0.99999
0.99999
0.99999
0.99999
0.99999
0.99999
0.99999
0.99999
0.99999
0.99999
0.99999
0.99999
0.99999
0.99999
0.99999
0.999988
0.999986
0.999982
0.999973
0.999951
0.999919
0.999898
0.999889
0.99987
0.999856
0.999839
0.99986
0.999842
0.999783
0.990962
0.093074
0.0004229
6.51911e-07
7.07422e-07
7.04782e-07
7.28382e-07
7.12472e-07
6.99312e-07
6.6821e-07
6.58154e-07
6.73572e-07
6.65654e-07
6.20283e-07
5.82541e-07
5.65984e-07
5.87722e-07
6.25753e-07
6.61899e-07
6.73182e-07
6.73016e-07
6.73149e-07
6.73187e-07
6.71548e-07
6.55183e-07
6.31917e-07
5.96492e-07
5.4362e-07
5.22824e-07
5.29875e-07
5.61376e-07
5.86333e-07
5.9693e-07
6.05194e-07
6.14982e-07
5.54857e-07
3.78959e-07
0.999997
0.999997
0.999997
0.999997
0.999997
0.999996
0.999995
0.999992
0.999991
0.99999
0.99999
0.99999
0.99999
0.99999
0.99999
0.99999
0.99999
0.99999
0.99999
0.99999
0.99999
0.99999
0.99999
0.99999
0.99999
0.99999
0.99999
0.99999
0.99999
0.99999
0.99999
0.99999
0.99999
0.99999
0.99999
0.99999
0.99999
0.99999
0.99999
0.99999
0.99999
0.99999
0.99999
0.99999
0.99999
0.999989
0.999987
0.999982
0.999973
0.999948
0.999909
0.999887
0.999875
0.999862
0.999857
0.999845
0.999862
0.999813
0.999706
0.985265
0.101567
0.000507853
6.51912e-07
6.96668e-07
6.97041e-07
7.00397e-07
6.9989e-07
7.02162e-07
7.0191e-07
6.99329e-07
6.94816e-07
6.90076e-07
6.86798e-07
6.66545e-07
6.22028e-07
6.49819e-07
6.69848e-07
6.71146e-07
6.58107e-07
6.55519e-07
6.50421e-07
6.69779e-07
6.65141e-07
6.42116e-07
6.18881e-07
5.92521e-07
5.67146e-07
5.56244e-07
5.46316e-07
5.60272e-07
5.88411e-07
6.06243e-07
6.03338e-07
6.08381e-07
5.77513e-07
4.47015e-07
0.999998
0.999997
0.999997
0.999997
0.999997
0.999996
0.999996
0.999993
0.999991
0.99999
0.99999
0.99999
0.99999
0.99999
0.99999
0.99999
0.99999
0.99999
0.99999
0.99999
0.99999
0.99999
0.99999
0.99999
0.99999
0.99999
0.99999
0.99999
0.99999
0.99999
0.99999
0.99999
0.99999
0.99999
0.99999
0.99999
0.99999
0.99999
0.99999
0.99999
0.99999
0.99999
0.99999
0.99999
0.99999
0.999989
0.999987
0.999983
0.999974
0.999942
0.999902
0.999884
0.999872
0.999862
0.99986
0.999856
0.999862
0.999829
0.999617
0.975836
0.110262
0.000751573
1.15355e-06
6.50016e-07
6.6968e-07
6.70859e-07
6.72721e-07
6.76968e-07
6.82583e-07
6.89417e-07
6.90685e-07
6.92197e-07
6.91299e-07
6.83259e-07
6.67937e-07
6.38625e-07
6.32857e-07
6.33794e-07
6.35689e-07
6.49139e-07
6.22382e-07
6.27913e-07
6.26558e-07
6.02712e-07
5.87332e-07
5.78475e-07
5.74059e-07
5.72695e-07
5.66926e-07
5.70338e-07
5.89856e-07
6.01745e-07
5.96039e-07
5.95608e-07
5.77157e-07
4.66994e-07
0.999998
0.999998
0.999998
0.999998
0.999998
0.999996
0.999996
0.999994
0.999991
0.99999
0.99999
0.99999
0.99999
0.99999
0.99999
0.99999
0.99999
0.99999
0.99999
0.99999
0.99999
0.99999
0.99999
0.99999
0.99999
0.99999
0.99999
0.99999
0.99999
0.99999
0.99999
0.99999
0.99999
0.99999
0.99999
0.99999
0.99999
0.99999
0.99999
0.99999
0.99999
0.99999
0.99999
0.99999
0.99999
0.999989
0.999988
0.999984
0.999975
0.999941
0.999897
0.999884
0.999879
0.999872
0.999868
0.999864
0.999872
0.999806
0.999441
0.962813
0.125207
0.00162101
4.11403e-06
6.50002e-07
6.51763e-07
6.50995e-07
6.51047e-07
6.5266e-07
6.5539e-07
6.57287e-07
6.5868e-07
6.60497e-07
6.63221e-07
6.66635e-07
6.66637e-07
6.6477e-07
6.59994e-07
6.5018e-07
6.43722e-07
6.49582e-07
6.08863e-07
5.81813e-07
5.79503e-07
5.72291e-07
5.68834e-07
5.69922e-07
5.72653e-07
5.76185e-07
5.66589e-07
5.69331e-07
5.85522e-07
5.99067e-07
5.97176e-07
5.938e-07
5.72048e-07
4.59002e-07
0.999995
0.999994
0.999994
0.999993
0.999993
0.999992
0.999991
0.999991
0.99999
0.99999
0.99999
0.99999
0.99999
0.99999
0.99999
0.99999
0.99999
0.99999
0.99999
0.99999
0.99999
0.99999
0.99999
0.99999
0.99999
0.99999
0.99999
0.99999
0.99999
0.99999
0.99999
0.99999
0.99999
0.99999
0.99999
0.99999
0.99999
0.99999
0.99999
0.99999
0.99999
0.99999
0.99999
0.99999
0.99999
0.999989
0.999986
0.999982
0.999965
0.999934
0.999911
0.999881
0.999871
0.99986
0.999861
0.999859
0.999863
0.999842
0.99936
0.95326
0.0446991
0.00016724
5.24853e-07
5.28304e-07
5.32771e-07
5.33298e-07
5.33249e-07
5.33515e-07
5.33506e-07
5.33506e-07
5.34034e-07
5.33463e-07
5.31749e-07
5.30851e-07
5.30282e-07
5.2913e-07
5.29581e-07
5.31377e-07
5.34909e-07
5.41728e-07
5.48902e-07
5.47192e-07
5.422e-07
5.432e-07
5.48671e-07
5.49451e-07
5.43716e-07
5.43139e-07
5.53971e-07
5.58216e-07
5.39147e-07
5.40611e-07
5.45921e-07
5.50648e-07
5.44527e-07
4.31885e-07
0.999996
0.999994
0.999993
0.999993
0.999992
0.999991
0.999991
0.999991
0.999991
0.99999
0.99999
0.99999
0.99999
0.99999
0.99999
0.99999
0.99999
0.99999
0.99999
0.99999
0.99999
0.99999
0.99999
0.99999
0.99999
0.99999
0.99999
0.99999
0.99999
0.99999
0.99999
0.99999
0.99999
0.99999
0.99999
0.99999
0.99999
0.99999
0.99999
0.99999
0.99999
0.99999
0.99999
0.99999
0.999989
0.999988
0.999984
0.999977
0.999966
0.999942
0.99992
0.999878
0.999857
0.999849
0.999852
0.999852
0.999861
0.999848
0.999677
0.930179
0.0197113
1.38078e-05
5.24851e-07
6.03644e-07
6.01159e-07
6.0097e-07
5.84829e-07
5.70958e-07
5.62268e-07
5.64084e-07
5.69705e-07
5.65846e-07
5.56514e-07
5.49708e-07
5.44701e-07
5.4022e-07
5.43475e-07
5.46418e-07
5.46265e-07
5.47469e-07
5.46301e-07
5.39577e-07
5.36234e-07
5.38781e-07
5.44158e-07
5.43128e-07
5.39744e-07
5.39743e-07
5.46716e-07
5.61053e-07
5.53334e-07
5.34787e-07
5.45544e-07
5.5275e-07
5.47034e-07
4.51429e-07
0.999997
0.999995
0.999993
0.999993
0.999992
0.999992
0.999992
0.999991
0.999991
0.999991
0.99999
0.99999
0.99999
0.99999
0.99999
0.99999
0.99999
0.99999
0.99999
0.99999
0.99999
0.99999
0.99999
0.99999
0.99999
0.99999
0.99999
0.99999
0.99999
0.99999
0.99999
0.99999
0.99999
0.99999
0.99999
0.99999
0.99999
0.99999
0.99999
0.99999
0.99999
0.99999
0.99999
0.99999
0.999989
0.999987
0.999983
0.999975
0.999965
0.999948
0.999916
0.99987
0.999843
0.999844
0.999851
0.99985
0.999864
0.999846
0.999752
0.912551
0.0253837
8.01574e-07
9.00354e-07
9.72661e-07
7.94577e-07
6.94817e-07
6.71637e-07
6.59341e-07
6.45722e-07
5.70541e-07
5.57947e-07
5.56462e-07
5.56676e-07
5.59598e-07
5.60335e-07
5.55462e-07
5.44368e-07
5.44122e-07
5.42799e-07
5.40823e-07
5.40266e-07
5.41444e-07
5.43206e-07
5.5053e-07
5.60538e-07
5.57105e-07
5.49454e-07
5.42865e-07
5.45874e-07
5.6096e-07
5.59776e-07
5.40041e-07
5.438e-07
5.52658e-07
5.47215e-07
4.52719e-07
0.999997
0.999996
0.999994
0.999993
0.999993
0.999992
0.999992
0.999991
0.999991
0.999991
0.99999
0.99999
0.99999
0.99999
0.99999
0.99999
0.99999
0.99999
0.99999
0.99999
0.99999
0.99999
0.99999
0.99999
0.99999
0.99999
0.99999
0.99999
0.99999
0.99999
0.99999
0.99999
0.99999
0.99999
0.99999
0.99999
0.99999
0.99999
0.99999
0.99999
0.99999
0.99999
0.99999
0.99999
0.999989
0.999987
0.999983
0.999976
0.999966
0.999949
0.999892
0.999859
0.999841
0.999849
0.999846
0.99984
0.99984
0.99984
0.999845
0.808119
0.00350647
1.49814e-05
9.22181e-06
5.40945e-06
3.14509e-06
1.55907e-06
8.94015e-07
7.90507e-07
8.14088e-07
7.98449e-07
9.58252e-07
9.47323e-07
1.0009e-06
9.0315e-07
8.37906e-07
8.02287e-07
7.83434e-07
7.48325e-07
7.04286e-07
6.55547e-07
6.31468e-07
6.17876e-07
6.07975e-07
6.04244e-07
5.82501e-07
5.56548e-07
5.48724e-07
5.45042e-07
5.48208e-07
5.64818e-07
5.6641e-07
5.57029e-07
5.54199e-07
5.56864e-07
5.52046e-07
4.61682e-07
0.999997
0.999997
0.999995
0.999994
0.999993
0.999992
0.999992
0.999991
0.999991
0.999991
0.99999
0.99999
0.99999
0.99999
0.99999
0.99999
0.99999
0.99999
0.99999
0.99999
0.99999
0.99999
0.99999
0.99999
0.99999
0.99999
0.99999
0.99999
0.99999
0.99999
0.99999
0.99999
0.99999
0.99999
0.99999
0.99999
0.99999
0.99999
0.99999
0.99999
0.99999
0.99999
0.99999
0.99999
0.999989
0.999987
0.999984
0.999977
0.999965
0.99992
0.999856
0.999858
0.999858
0.999858
0.999855
0.999854
0.99986
0.999869
0.999885
0.674419
0.00339282
0.000898483
0.000814807
0.000654757
0.000518158
0.000381822
0.000278578
0.000196642
0.000138753
9.76904e-05
6.86281e-05
4.53835e-05
2.66524e-05
1.27279e-05
4.59431e-06
2.008e-06
1.40293e-06
1.58123e-06
1.35704e-06
1.25178e-06
6.53998e-07
6.45713e-07
7.35025e-07
1.07029e-06
1.01359e-06
8.42266e-07
5.88853e-07
5.45099e-07
5.70561e-07
6.13805e-07
6.35575e-07
6.0108e-07
5.55757e-07
5.56946e-07
5.52566e-07
4.71859e-07
0.999997
0.999997
0.999996
0.999994
0.999993
0.999992
0.999992
0.999991
0.999991
0.999991
0.99999
0.99999
0.99999
0.99999
0.99999
0.99999
0.99999
0.99999
0.99999
0.99999
0.99999
0.99999
0.99999
0.99999
0.99999
0.99999
0.99999
0.99999
0.99999
0.99999
0.99999
0.99999
0.99999
0.99999
0.99999
0.99999
0.99999
0.99999
0.99999
0.99999
0.99999
0.99999
0.99999
0.99999
0.999989
0.999988
0.999984
0.999977
0.999967
0.999929
0.999849
0.999845
0.999839
0.999832
0.99983
0.99983
0.999838
0.999826
0.999885
0.438733
0.0129406
0.0110293
0.0112264
0.0112678
0.0108882
0.00993852
0.009074
0.00815576
0.0074217
0.00663221
0.00581407
0.00492856
0.00412267
0.00341889
0.00284828
0.00243738
0.00204607
0.00170577
0.00133721
0.00103059
0.00078321
0.000582648
0.000430927
0.000293251
0.000173886
8.85576e-05
3.30876e-05
7.09797e-06
3.12213e-06
4.36537e-06
2.64326e-06
1.46326e-06
3.74714e-07
3.83211e-07
4.67374e-07
4.26136e-07
0.999997
0.999998
0.999996
0.999995
0.999994
0.999993
0.999992
0.999991
0.999991
0.999991
0.99999
0.99999
0.99999
0.99999
0.99999
0.99999
0.99999
0.99999
0.99999
0.99999
0.99999
0.99999
0.99999
0.99999
0.99999
0.99999
0.99999
0.99999
0.99999
0.99999
0.99999
0.99999
0.99999
0.99999
0.99999
0.99999
0.99999
0.99999
0.99999
0.99999
0.99999
0.99999
0.99999
0.99999
0.999989
0.999988
0.999984
0.999976
0.999968
0.999962
0.999858
0.999839
0.999838
0.999837
0.999845
0.999851
0.999859
0.999854
0.999885
0.404965
0.0305963
0.0287006
0.0306126
0.0321104
0.0336472
0.0341081
0.0342666
0.0343494
0.0343617
0.0344076
0.0337001
0.0331046
0.0324241
0.0316987
0.0307903
0.0300244
0.0293895
0.0287584
0.0279373
0.0268449
0.0252643
0.0233195
0.0210282
0.0184647
0.0157107
0.0128412
0.00993663
0.00715837
0.00482158
0.003349
0.00246741
0.00225832
0.00257603
0.0030971
0.0042287
0.0055919
0.999997
0.999998
0.999997
0.999996
0.999994
0.999993
0.999992
0.999991
0.999991
0.999991
0.99999
0.99999
0.99999
0.99999
0.99999
0.99999
0.99999
0.99999
0.99999
0.99999
0.99999
0.99999
0.99999
0.99999
0.99999
0.99999
0.99999
0.99999
0.99999
0.99999
0.99999
0.99999
0.99999
0.99999
0.99999
0.99999
0.99999
0.99999
0.99999
0.99999
0.99999
0.99999
0.99999
0.99999
0.999989
0.999988
0.999984
0.999976
0.999967
0.999959
0.999929
0.999845
0.999834
0.999839
0.99985
0.999853
0.999859
0.999859
0.999885
0.607119
0.0428108
0.0322306
0.0356046
0.0375146
0.0387606
0.0390423
0.0402577
0.0424974
0.0445455
0.0460732
0.0468505
0.0478103
0.0490585
0.0503919
0.0518079
0.0539311
0.0564608
0.0593681
0.0630155
0.0663813
0.069938
0.0736321
0.0770777
0.0803404
0.084132
0.088025
0.0921184
0.0959616
0.099667
0.103865
0.108633
0.114497
0.123916
0.141259
0.184547
0.387228
0.999997
0.999998
0.999997
0.999997
0.999995
0.999993
0.999992
0.999991
0.999991
0.999991
0.99999
0.99999
0.99999
0.99999
0.99999
0.99999
0.99999
0.99999
0.99999
0.99999
0.99999
0.99999
0.99999
0.99999
0.99999
0.99999
0.99999
0.99999
0.99999
0.99999
0.99999
0.99999
0.99999
0.99999
0.99999
0.99999
0.99999
0.99999
0.99999
0.99999
0.99999
0.99999
0.99999
0.99999
0.99999
0.999988
0.999984
0.999976
0.999966
0.999951
0.999946
0.99988
0.999836
0.999833
0.999847
0.999818
0.999853
0.999862
0.999885
0.78257
0.0277077
0.0088705
0.00799562
0.00686242
0.00656498
0.00601893
0.00526653
0.00420961
0.00311707
0.00234278
0.00258322
0.00243691
0.00231406
0.00221722
0.00226437
0.00260445
0.0028089
0.00333157
0.00390107
0.00468649
0.00573967
0.00730092
0.00936322
0.0117976
0.0144232
0.0168989
0.0195031
0.0228101
0.0260982
0.0287969
0.0309889
0.0325337
0.033139
0.0299755
0.0262165
0.021502
0.999998
0.999998
0.999998
0.999997
0.999996
0.999994
0.999992
0.999991
0.999991
0.999991
0.99999
0.99999
0.99999
0.99999
0.99999
0.99999
0.99999
0.99999
0.99999
0.99999
0.99999
0.99999
0.99999
0.99999
0.99999
0.99999
0.99999
0.99999
0.99999
0.99999
0.99999
0.99999
0.99999
0.99999
0.99999
0.99999
0.99999
0.99999
0.99999
0.99999
0.99999
0.99999
0.99999
0.99999
0.99999
0.999988
0.999985
0.999977
0.999965
0.999947
0.999936
0.999911
0.999853
0.999826
0.999829
0.999819
0.999843
0.999833
0.999885
0.922743
0.0220075
0.000403777
0.000291674
0.000174974
0.000181276
0.000139245
0.000107695
6.32515e-05
3.58645e-05
2.66931e-05
3.1178e-05
3.22408e-05
3.42302e-05
3.64437e-05
4.09246e-05
5.00237e-05
6.29684e-05
8.18285e-05
0.000106111
0.000135331
0.000172037
0.000219345
0.00027628
0.000336267
0.000390161
0.000422244
0.00038712
0.000303678
0.00027044
0.000220983
0.00014589
0.000115828
8.96374e-05
8.17969e-05
7.76137e-05
2.97517e-06
0.999998
0.999998
0.999998
0.999998
0.999997
0.999995
0.999993
0.999992
0.999991
0.999991
0.99999
0.99999
0.99999
0.99999
0.99999
0.99999
0.99999
0.99999
0.99999
0.99999
0.99999
0.99999
0.99999
0.99999
0.99999
0.99999
0.99999
0.99999
0.99999
0.99999
0.99999
0.99999
0.99999
0.99999
0.99999
0.99999
0.99999
0.99999
0.99999
0.99999
0.99999
0.99999
0.99999
0.99999
0.99999
0.999988
0.999985
0.999979
0.999968
0.999946
0.999925
0.999916
0.999881
0.999838
0.999816
0.999812
0.999824
0.999816
0.999885
0.976204
0.0322738
1.17382e-06
2.15216e-06
7.02182e-07
8.10021e-07
8.15938e-07
1.02296e-06
7.87937e-07
5.79736e-07
5.79742e-07
5.91291e-07
7.0137e-07
7.22968e-07
7.31177e-07
6.96174e-07
6.49822e-07
6.09773e-07
5.9173e-07
5.93875e-07
6.11124e-07
6.79977e-07
9.57882e-07
1.03903e-06
1.61854e-06
1.59766e-06
9.87666e-07
9.41458e-07
1.01886e-06
9.6196e-07
7.963e-07
6.81725e-07
6.47318e-07
6.84547e-07
8.02035e-07
6.15173e-07
3.22969e-07
0.999998
0.999998
0.999998
0.999998
0.999998
0.999996
0.999994
0.999992
0.999991
0.999991
0.99999
0.99999
0.99999
0.99999
0.99999
0.99999
0.99999
0.99999
0.99999
0.99999
0.99999
0.99999
0.99999
0.99999
0.99999
0.99999
0.99999
0.99999
0.99999
0.99999
0.99999
0.99999
0.99999
0.99999
0.99999
0.99999
0.99999
0.99999
0.99999
0.99999
0.99999
0.99999
0.99999
0.99999
0.99999
0.999989
0.999986
0.999982
0.999971
0.999946
0.999918
0.999906
0.999893
0.999857
0.99982
0.999808
0.999814
0.999806
0.999858
0.983801
0.0414
7.40802e-06
6.51912e-07
7.03599e-07
7.2457e-07
7.6418e-07
7.25444e-07
6.99059e-07
6.52073e-07
6.13537e-07
5.87221e-07
5.79124e-07
5.76607e-07
5.70478e-07
5.71408e-07
6.18763e-07
6.53949e-07
6.61467e-07
6.61887e-07
6.6194e-07
6.61717e-07
6.56604e-07
6.47348e-07
6.3278e-07
5.87397e-07
5.35616e-07
5.10056e-07
4.92134e-07
5.26582e-07
5.90999e-07
6.26615e-07
6.2427e-07
6.15616e-07
6.10869e-07
5.12077e-07
3.25842e-07
0.999998
0.999998
0.999998
0.999998
0.999998
0.999998
0.999995
0.999992
0.999991
0.999991
0.99999
0.99999
0.99999
0.99999
0.99999
0.99999
0.99999
0.99999
0.99999
0.99999
0.99999
0.99999
0.99999
0.99999
0.99999
0.99999
0.99999
0.99999
0.99999
0.99999
0.99999
0.99999
0.99999
0.99999
0.99999
0.99999
0.99999
0.99999
0.99999
0.99999
0.99999
0.99999
0.99999
0.99999
0.99999
0.999989
0.999987
0.999984
0.999973
0.999947
0.999913
0.999894
0.999891
0.999867
0.999828
0.99981
0.999815
0.999796
0.999819
0.983393
0.0456255
9.0883e-06
6.51911e-07
7.29979e-07
7.29753e-07
7.49544e-07
7.37172e-07
7.25089e-07
7.04693e-07
6.79526e-07
6.78154e-07
6.80235e-07
6.78489e-07
6.6633e-07
6.41571e-07
6.37835e-07
6.47321e-07
6.55829e-07
6.58901e-07
6.55677e-07
6.57584e-07
6.52427e-07
6.446e-07
6.47607e-07
6.49736e-07
6.48485e-07
6.12805e-07
5.31543e-07
5.11334e-07
5.45443e-07
6.0014e-07
6.33687e-07
6.33596e-07
6.13754e-07
5.27672e-07
3.65905e-07
0.999998
0.999998
0.999998
0.999998
0.999998
0.999998
0.999997
0.999994
0.999991
0.999991
0.99999
0.99999
0.99999
0.99999
0.99999
0.99999
0.99999
0.99999
0.99999
0.99999
0.99999
0.99999
0.99999
0.99999
0.99999
0.99999
0.99999
0.99999
0.99999
0.99999
0.99999
0.99999
0.99999
0.99999
0.99999
0.99999
0.99999
0.99999
0.99999
0.99999
0.99999
0.99999
0.99999
0.99999
0.99999
0.999989
0.999988
0.999984
0.999974
0.999943
0.999905
0.999888
0.999881
0.999861
0.999829
0.999814
0.999819
0.999743
0.999735
0.956446
0.0462423
1.49457e-05
6.51911e-07
7.08562e-07
7.40548e-07
7.47315e-07
7.46954e-07
7.21359e-07
7.00291e-07
6.94577e-07
6.90606e-07
6.86423e-07
6.82602e-07
6.78368e-07
6.71132e-07
6.66275e-07
6.62542e-07
6.58175e-07
6.4532e-07
6.3949e-07
6.47838e-07
6.5296e-07
6.48922e-07
6.47502e-07
6.52366e-07
6.56894e-07
6.49108e-07
6.25561e-07
5.78446e-07
5.40603e-07
5.95264e-07
6.25667e-07
6.23463e-07
6.07333e-07
5.57742e-07
4.25903e-07
0.999998
0.999998
0.999998
0.999998
0.999998
0.999998
0.999998
0.999996
0.999991
0.99999
0.99999
0.99999
0.99999
0.99999
0.99999
0.99999
0.99999
0.99999
0.99999
0.99999
0.99999
0.99999
0.99999
0.99999
0.99999
0.99999
0.99999
0.99999
0.99999
0.99999
0.99999
0.99999
0.99999
0.99999
0.99999
0.99999
0.99999
0.99999
0.99999
0.99999
0.99999
0.99999
0.99999
0.99999
0.99999
0.999989
0.999988
0.999985
0.999975
0.999941
0.999901
0.999886
0.999878
0.99986
0.999829
0.999828
0.999819
0.999707
0.999607
0.947529
0.0602596
0.000104269
6.9403e-07
7.22325e-07
7.1244e-07
6.71789e-07
6.59643e-07
6.60005e-07
6.62409e-07
6.64031e-07
6.63694e-07
6.62073e-07
6.60347e-07
6.60569e-07
6.60546e-07
6.55981e-07
6.49849e-07
6.35315e-07
6.35197e-07
6.36348e-07
6.44898e-07
6.41323e-07
6.23795e-07
6.22094e-07
6.38995e-07
6.54517e-07
6.56512e-07
6.45398e-07
6.18889e-07
5.72821e-07
6.02653e-07
6.20557e-07
6.20098e-07
5.94706e-07
5.56167e-07
4.42224e-07
0.999998
0.999998
0.999998
0.999998
0.999998
0.999998
0.999998
0.999996
0.999992
0.99999
0.99999
0.99999
0.99999
0.99999
0.99999
0.99999
0.99999
0.99999
0.99999
0.99999
0.99999
0.99999
0.99999
0.99999
0.99999
0.99999
0.99999
0.99999
0.99999
0.99999
0.99999
0.99999
0.99999
0.99999
0.99999
0.99999
0.99999
0.99999
0.99999
0.99999
0.99999
0.99999
0.99999
0.99999
0.99999
0.999989
0.999988
0.999984
0.999975
0.999941
0.999898
0.999884
0.999878
0.999866
0.999854
0.999855
0.999857
0.999688
0.99933
0.965091
0.105158
0.00103357
1.85908e-06
6.50001e-07
6.50003e-07
6.50016e-07
6.50029e-07
6.5134e-07
6.54483e-07
6.5722e-07
6.57938e-07
6.58775e-07