/*--------------------------------*- C++ -*----------------------------------*\
| =========                 |                                                 |
| \\      /  F ield         | OpenFOAM: The Open Source CFD Toolbox           |
|  \\    /   O peration     | Version:  2.3.0                                 |
|   \\  /    A nd           | Web:      www.OpenFOAM.org                      |
|    \\/     M anipulation  |                                                 |
\*---------------------------------------------------------------------------*/
FoamFile
{
    version     2.0;
    format      ascii;
    class       volScalarField;
    location    "29";
    object      alpha.air;
}
// * * * * * * * * * * * * * * * * * * * * * * * * * * * * * * * * * * * * * //

dimensions      [0 0 0 0 0 0 0];

internalField   nonuniform List<scalar> 
6144
(
0.999995
0.999994
0.999993
0.999993
0.999993
0.999992
0.999992
0.999991
0.99999
0.99999
0.99999
0.99999
0.99999
0.99999
0.99999
0.99999
0.99999
0.99999
0.99999
0.99999
0.99999
0.99999
0.99999
0.99999
0.99999
0.99999
0.99999
0.99999
0.99999
0.99999
0.99999
0.99999
0.99999
0.99999
0.99999
0.99999
0.99999
0.99999
0.99999
0.99999
0.99999
0.99999
0.99999
0.99999
0.99999
0.99999
0.99999
0.99999
0.99999
0.99999
0.999989
0.999977
0.999942
0.999921
0.999921
0.999894
0.999725
0.999285
0.998264
0.93632
0.0249136
8.12281e-05
6.19498e-07
6.25795e-07
6.34007e-07
6.33803e-07
6.33497e-07
6.32998e-07
6.32914e-07
6.33602e-07
6.35572e-07
6.37828e-07
6.40883e-07
6.45731e-07
6.51885e-07
6.57501e-07
6.63027e-07
6.66225e-07
6.66365e-07
6.66587e-07
6.66687e-07
6.6623e-07
6.64751e-07
6.62294e-07
6.59071e-07
6.57102e-07
6.5668e-07
6.56197e-07
6.55233e-07
6.53196e-07
6.512e-07
6.52174e-07
6.55229e-07
6.53119e-07
5.77154e-07
4.38458e-07
0.999995
0.999994
0.999993
0.999993
0.999992
0.999992
0.999991
0.999991
0.99999
0.99999
0.99999
0.99999
0.99999
0.99999
0.99999
0.99999
0.99999
0.99999
0.99999
0.99999
0.99999
0.99999
0.99999
0.99999
0.99999
0.99999
0.99999
0.99999
0.99999
0.99999
0.99999
0.99999
0.99999
0.99999
0.99999
0.99999
0.99999
0.99999
0.99999
0.99999
0.99999
0.99999
0.99999
0.99999
0.99999
0.99999
0.99999
0.99999
0.99999
0.99999
0.999989
0.999978
0.999955
0.999939
0.999939
0.99991
0.999724
0.99906
0.997694
0.946085
0.0277687
5.63206e-05
6.19498e-07
6.37608e-07
6.33734e-07
6.28926e-07
6.29877e-07
6.30469e-07
6.30295e-07
6.30247e-07
6.3102e-07
6.32872e-07
6.35853e-07
6.43498e-07
6.56311e-07
6.59128e-07
6.61094e-07
6.63546e-07
6.61093e-07
6.46529e-07
6.17628e-07
5.936e-07
5.84976e-07
5.86776e-07
5.87649e-07
5.83781e-07
5.72222e-07
5.7075e-07
5.73518e-07
5.78219e-07
5.82292e-07
5.89842e-07
6.05567e-07
6.30132e-07
5.74963e-07
4.38406e-07
0.999996
0.999995
0.999994
0.999993
0.999993
0.999992
0.999991
0.99999
0.99999
0.99999
0.99999
0.99999
0.99999
0.99999
0.99999
0.99999
0.99999
0.99999
0.99999
0.99999
0.99999
0.99999
0.99999
0.99999
0.99999
0.99999
0.99999
0.99999
0.99999
0.99999
0.99999
0.99999
0.99999
0.99999
0.99999
0.99999
0.99999
0.99999
0.99999
0.99999
0.99999
0.99999
0.99999
0.99999
0.99999
0.99999
0.99999
0.99999
0.99999
0.999989
0.999988
0.999974
0.999962
0.999951
0.999942
0.999894
0.999806
0.999225
0.998965
0.953164
0.0229265
3.03169e-05
6.19498e-07
6.56393e-07
6.53635e-07
6.54407e-07
6.46745e-07
6.39981e-07
6.38993e-07
6.39439e-07
6.41464e-07
6.44483e-07
6.45969e-07
6.48806e-07
6.53063e-07
6.49776e-07
6.18771e-07
5.40724e-07
5.06334e-07
4.94858e-07
4.87937e-07
4.86829e-07
4.92262e-07
5.08514e-07
5.31162e-07
5.52474e-07
5.6703e-07
5.79888e-07
6.05167e-07
6.24219e-07
6.21394e-07
6.11371e-07
6.09891e-07
6.1444e-07
5.65199e-07
4.33036e-07
0.999996
0.999995
0.999994
0.999994
0.999993
0.999992
0.999991
0.999991
0.99999
0.99999
0.99999
0.99999
0.99999
0.99999
0.99999
0.99999
0.99999
0.99999
0.99999
0.99999
0.99999
0.99999
0.99999
0.99999
0.99999
0.99999
0.99999
0.99999
0.99999
0.99999
0.99999
0.99999
0.99999
0.99999
0.99999
0.99999
0.99999
0.99999
0.99999
0.99999
0.99999
0.99999
0.99999
0.99999
0.99999
0.99999
0.99999
0.99999
0.99999
0.999989
0.999986
0.999975
0.999967
0.999945
0.999921
0.999875
0.999811
0.9993
0.99931
0.952152
0.0220059
2.56749e-05
6.19498e-07
7.41256e-07
7.52911e-07
7.18934e-07
6.33623e-07
5.9054e-07
5.90026e-07
5.95865e-07
6.02303e-07
5.99376e-07
6.0408e-07
6.19323e-07
6.58192e-07
6.59428e-07
5.93139e-07
5.17221e-07
5.04474e-07
5.02404e-07
5.01147e-07
5.07536e-07
5.21116e-07
5.3746e-07
5.51948e-07
5.67606e-07
5.91967e-07
6.3206e-07
6.57114e-07
6.58661e-07
6.59219e-07
6.57472e-07
6.43729e-07
6.2359e-07
5.51223e-07
4.21188e-07
0.999996
0.999996
0.999995
0.999994
0.999993
0.999993
0.999992
0.999991
0.99999
0.99999
0.99999
0.99999
0.99999
0.99999
0.99999
0.99999
0.99999
0.99999
0.99999
0.99999
0.99999
0.99999
0.99999
0.99999
0.99999
0.99999
0.99999
0.99999
0.99999
0.99999
0.99999
0.99999
0.99999
0.99999
0.99999
0.99999
0.99999
0.99999
0.99999
0.99999
0.99999
0.99999
0.99999
0.99999
0.99999
0.99999
0.99999
0.99999
0.99999
0.999989
0.999987
0.999979
0.999958
0.999919
0.999888
0.999864
0.99987
0.999492
0.999824
0.935136
0.0195107
3.72328e-05
9.19764e-06
1.86618e-06
1.10142e-06
8.06152e-07
9.38406e-07
9.11151e-07
8.55914e-07
6.1578e-07
1.11233e-06
1.11106e-06
6.92155e-07
7.78479e-07
9.10052e-07
8.69931e-07
7.28541e-07
5.71512e-07
5.22958e-07
5.0129e-07
5.01235e-07
5.01324e-07
5.01423e-07
5.15357e-07
5.45421e-07
6.01242e-07
6.86401e-07
7.14952e-07
6.60971e-07
6.54436e-07
6.54957e-07
6.50936e-07
6.41258e-07
6.17398e-07
5.25103e-07
4.16389e-07
0.999996
0.999996
0.999995
0.999995
0.999994
0.999993
0.999992
0.999992
0.999991
0.99999
0.99999
0.99999
0.99999
0.99999
0.99999
0.99999
0.99999
0.99999
0.99999
0.99999
0.99999
0.99999
0.99999
0.99999
0.99999
0.99999
0.99999
0.99999
0.99999
0.99999
0.99999
0.99999
0.99999
0.99999
0.99999
0.99999
0.99999
0.99999
0.99999
0.99999
0.99999
0.99999
0.99999
0.99999
0.99999
0.99999
0.99999
0.99999
0.99999
0.999988
0.999984
0.999973
0.999948
0.999892
0.999853
0.999843
0.999865
0.99965
0.999857
0.894154
0.0162302
0.00042064
0.00025069
9.78022e-05
6.64239e-05
4.97844e-05
4.6199e-05
4.52125e-05
4.46546e-05
4.92707e-05
5.31206e-05
5.30389e-05
4.53654e-05
3.77912e-05
2.44034e-05
1.12792e-05
4.24238e-06
3.49299e-06
4.33421e-06
4.92924e-06
5.50454e-06
5.99003e-06
6.34836e-06
6.60642e-06
6.71194e-06
6.24191e-06
5.67249e-06
4.66004e-06
3.83889e-06
1.5933e-06
8.99895e-07
6.06101e-07
6.00288e-07
5.67382e-07
4.73814e-07
4.02373e-07
0.999996
0.999996
0.999995
0.999995
0.999994
0.999993
0.999993
0.999992
0.999991
0.99999
0.99999
0.99999
0.99999
0.99999
0.99999
0.99999
0.99999
0.99999
0.99999
0.99999
0.99999
0.99999
0.99999
0.99999
0.99999
0.99999
0.99999
0.99999
0.99999
0.99999
0.99999
0.99999
0.99999
0.99999
0.99999
0.99999
0.99999
0.99999
0.99999
0.99999
0.99999
0.99999
0.99999
0.99999
0.99999
0.99999
0.99999
0.99999
0.999989
0.999987
0.99998
0.999969
0.999942
0.99986
0.999826
0.999822
0.999847
0.999739
0.999969
0.801343
0.0141318
0.00246742
0.00210406
0.00143016
0.00103112
0.000740779
0.000573976
0.000559664
0.000528884
0.000498913
0.000517916
0.00058207
0.000638278
0.000672378
0.00068476
0.00069287
0.000570319
0.000416877
0.00040588
0.000401143
0.00039756
0.000428515
0.000463247
0.000480848
0.000496453
0.000524169
0.000560979
0.000554677
0.000490083
0.000376039
0.000214361
5.40003e-05
3.6559e-07
3.6559e-07
3.6559e-07
3.6559e-07
0.999996
0.999996
0.999995
0.999995
0.999994
0.999994
0.999993
0.999992
0.999991
0.99999
0.99999
0.99999
0.99999
0.99999
0.99999
0.99999
0.99999
0.99999
0.99999
0.99999
0.99999
0.99999
0.99999
0.99999
0.99999
0.99999
0.99999
0.99999
0.99999
0.99999
0.99999
0.99999
0.99999
0.99999
0.99999
0.99999
0.99999
0.99999
0.99999
0.99999
0.99999
0.99999
0.99999
0.99999
0.99999
0.99999
0.99999
0.99999
0.99999
0.999987
0.999982
0.999973
0.99996
0.999924
0.999833
0.999804
0.999854
0.999816
0.99999
0.706324
0.0148377
0.00787177
0.00871048
0.00895097
0.00829415
0.00772678
0.00594738
0.00450276
0.00435062
0.00543469
0.00802363
0.0100368
0.0114718
0.0128494
0.0142716
0.0154884
0.01628
0.0167605
0.0176877
0.0187322
0.0195875
0.020159
0.0202973
0.020331
0.0204831
0.0210264
0.0215029
0.022128
0.0226467
0.0232656
0.0237306
0.0239867
0.0237023
0.0238286
0.0222428
0.0182746
0.999996
0.999996
0.999995
0.999995
0.999994
0.999994
0.999993
0.999992
0.999991
0.999991
0.99999
0.99999
0.99999
0.99999
0.99999
0.99999
0.99999
0.99999
0.99999
0.99999
0.99999
0.99999
0.99999
0.99999
0.99999
0.99999
0.99999
0.99999
0.99999
0.99999
0.99999
0.99999
0.99999
0.99999
0.99999
0.99999
0.99999
0.99999
0.99999
0.99999
0.99999
0.99999
0.99999
0.99999
0.99999
0.99999
0.99999
0.99999
0.99999
0.999988
0.999983
0.999973
0.999955
0.999937
0.999886
0.999817
0.999828
0.999828
0.99999
0.709501
0.019502
0.0122372
0.0142913
0.0162735
0.0157341
0.0119457
0.011317
0.014814
0.0180779
0.0181585
0.0177335
0.0169929
0.0167041
0.017418
0.0184141
0.0185536
0.0171069
0.0151783
0.0145956
0.0145136
0.0173113
0.0192299
0.017974
0.0182304
0.0236552
0.0269417
0.0248617
0.0220683
0.0219
0.0216164
0.0205906
0.0194555
0.0171383
0.013625
0.00875822
0.00437904
0.999996
0.999995
0.999995
0.999994
0.999994
0.999994
0.999993
0.999992
0.999991
0.999991
0.99999
0.99999
0.99999
0.99999
0.99999
0.99999
0.99999
0.99999
0.99999
0.99999
0.99999
0.99999
0.99999
0.99999
0.99999
0.99999
0.99999
0.99999
0.99999
0.99999
0.99999
0.99999
0.99999
0.99999
0.99999
0.99999
0.99999
0.99999
0.99999
0.99999
0.99999
0.99999
0.99999
0.99999
0.99999
0.99999
0.99999
0.99999
0.99999
0.999988
0.999983
0.99997
0.99995
0.999923
0.999911
0.999844
0.999844
0.999846
0.99999
0.701533
0.0193344
0.0119734
0.0136824
0.0150581
0.0130828
0.0113805
0.0114862
0.0145491
0.0176605
0.0183243
0.0174376
0.0138426
0.0109968
0.00941087
0.00802331
0.00659935
0.00546659
0.00463435
0.0042324
0.00491083
0.00514534
0.0044583
0.0063269
0.00863038
0.00858257
0.00819142
0.00785417
0.00894088
0.00980371
0.00793762
0.00756113
0.00775399
0.00461596
0.00226857
0.000943369
0.000379778
0.999996
0.999996
0.999995
0.999994
0.999993
0.999993
0.999992
0.999991
0.999991
0.999991
0.99999
0.99999
0.99999
0.99999
0.99999
0.99999
0.99999
0.99999
0.99999
0.99999
0.99999
0.99999
0.99999
0.99999
0.99999
0.99999
0.99999
0.99999
0.99999
0.99999
0.99999
0.99999
0.99999
0.99999
0.99999
0.99999
0.99999
0.99999
0.99999
0.99999
0.99999
0.99999
0.99999
0.99999
0.99999
0.99999
0.99999
0.99999
0.99999
0.999988
0.999982
0.999965
0.99994
0.999918
0.999907
0.999879
0.999871
0.999877
0.99999
0.722139
0.0150454
0.00911817
0.00953944
0.00956666
0.0086062
0.00763986
0.00768341
0.00898689
0.0104105
0.0107935
0.00900589
0.00477741
0.00240561
0.00134986
0.000776018
0.000455497
0.000305917
0.000253686
0.000247533
0.000360026
0.000473192
0.000517422
0.000509479
0.000528199
0.000700776
0.000827052
0.000862087
0.000866535
0.000787532
0.000629392
0.000545251
0.000406905
0.000192059
6.40503e-05
1.91917e-05
7.52549e-06
0.999996
0.999996
0.999995
0.999995
0.999993
0.999992
0.999992
0.999991
0.999991
0.99999
0.99999
0.99999
0.99999
0.99999
0.99999
0.99999
0.99999
0.99999
0.99999
0.99999
0.99999
0.99999
0.99999
0.99999
0.99999
0.99999
0.99999
0.99999
0.99999
0.99999
0.99999
0.99999
0.99999
0.99999
0.99999
0.99999
0.99999
0.99999
0.99999
0.99999
0.99999
0.99999
0.99999
0.99999
0.99999
0.99999
0.99999
0.99999
0.99999
0.999988
0.999983
0.999967
0.999948
0.999921
0.999903
0.999898
0.999902
0.999892
0.99999
0.766835
0.00632803
0.00272593
0.00279473
0.00307903
0.00317887
0.00256969
0.0020219
0.00198857
0.00201977
0.001719
0.00106826
0.000347962
8.57322e-05
2.54577e-05
8.84144e-06
3.52508e-06
1.76881e-06
1.2081e-06
1.02571e-06
1.07788e-06
1.93525e-06
3.47189e-06
4.66676e-06
5.2799e-06
5.96412e-06
6.96721e-06
8.03377e-06
8.55895e-06
8.56396e-06
6.59415e-06
4.07152e-06
1.99829e-06
1.01534e-06
7.71518e-07
1.03115e-06
8.12991e-07
0.999997
0.999997
0.999997
0.999996
0.999994
0.999992
0.999991
0.999991
0.99999
0.99999
0.99999
0.99999
0.99999
0.99999
0.99999
0.99999
0.99999
0.99999
0.99999
0.99999
0.99999
0.99999
0.99999
0.99999
0.99999
0.99999
0.99999
0.99999
0.99999
0.99999
0.99999
0.99999
0.99999
0.99999
0.99999
0.99999
0.99999
0.99999
0.99999
0.99999
0.99999
0.99999
0.99999
0.99999
0.99999
0.99999
0.99999
0.99999
0.99999
0.999988
0.999983
0.999967
0.999951
0.999928
0.999907
0.999895
0.999889
0.999839
0.999949
0.848038
0.00286332
0.000230006
0.000236638
0.000229042
0.000260549
0.000241444
0.000136045
7.86941e-05
5.40173e-05
3.10836e-05
1.2722e-05
2.82824e-06
6.89434e-07
5.2112e-07
5.04095e-07
5.04095e-07
5.04095e-07
5.22571e-07
5.62435e-07
5.72705e-07
5.60955e-07
5.15236e-07
4.37303e-07
3.57913e-07
3.2144e-07
3.03747e-07
2.86069e-07
2.67664e-07
7.67376e-07
1.12046e-06
6.51172e-07
6.39662e-07
7.6239e-07
7.04767e-07
6.63736e-07
5.98397e-07
0.999997
0.999998
0.999998
0.999998
0.999997
0.999994
0.999991
0.999991
0.99999
0.99999
0.99999
0.99999
0.99999
0.99999
0.99999
0.99999
0.99999
0.99999
0.99999
0.99999
0.99999
0.99999
0.99999
0.99999
0.99999
0.99999
0.99999
0.99999
0.99999
0.99999
0.99999
0.99999
0.99999
0.99999
0.99999
0.99999
0.99999
0.99999
0.99999
0.99999
0.99999
0.99999
0.99999
0.99999
0.99999
0.99999
0.99999
0.99999
0.99999
0.999989
0.999983
0.999964
0.999951
0.999934
0.999913
0.999893
0.999901
0.999789
0.999829
0.89584
0.00484651
2.04091e-06
2.11201e-06
2.89964e-06
3.85785e-06
2.4053e-06
1.44177e-06
8.32836e-07
7.6369e-07
8.03429e-07
8.3328e-07
8.86627e-07
8.33618e-07
7.62029e-07
7.10557e-07
6.8648e-07
6.9378e-07
6.97565e-07
6.88964e-07
6.60652e-07
6.08422e-07
5.39625e-07
4.69738e-07
4.12252e-07
3.96244e-07
3.89405e-07
3.82076e-07
3.72699e-07
3.67868e-07
4.85989e-07
7.26728e-07
7.36379e-07
7.36905e-07
6.63718e-07
5.80006e-07
5.05558e-07
0.999998
0.999998
0.999998
0.999998
0.999998
0.999997
0.999994
0.99999
0.99999
0.99999
0.99999
0.99999
0.99999
0.99999
0.99999
0.99999
0.99999
0.99999
0.99999
0.99999
0.99999
0.99999
0.99999
0.99999
0.99999
0.99999
0.99999
0.99999
0.99999
0.99999
0.99999
0.99999
0.99999
0.99999
0.99999
0.99999
0.99999
0.99999
0.99999
0.99999
0.99999
0.99999
0.99999
0.99999
0.99999
0.99999
0.99999
0.99999
0.99999
0.999989
0.999982
0.999965
0.999951
0.999933
0.999916
0.999895
0.999904
0.99971
0.999276
0.921024
0.0279544
4.33611e-06
3.20017e-07
4.06732e-07
4.89605e-07
5.3714e-07
5.69055e-07
5.76019e-07
5.72172e-07
5.70444e-07
5.72226e-07
5.85187e-07
6.2021e-07
6.3004e-07
6.2547e-07
6.13661e-07
5.93822e-07
5.63179e-07
5.23041e-07
4.78132e-07
4.33879e-07
3.95116e-07
3.64942e-07
3.51619e-07
3.577e-07
3.69962e-07
3.69698e-07
3.66009e-07
3.57669e-07
3.85596e-07
6.2924e-07
6.99642e-07
6.88749e-07
6.14147e-07
5.33279e-07
4.61955e-07
0.999998
0.999998
0.999998
0.999998
0.999998
0.999998
0.999998
0.999991
0.99999
0.99999
0.99999
0.99999
0.99999
0.99999
0.99999
0.99999
0.99999
0.99999
0.99999
0.99999
0.99999
0.99999
0.99999
0.99999
0.99999
0.99999
0.99999
0.99999
0.99999
0.99999
0.99999
0.99999
0.99999
0.99999
0.99999
0.99999
0.99999
0.99999
0.99999
0.99999
0.99999
0.99999
0.99999
0.99999
0.99999
0.99999
0.99999
0.99999
0.99999
0.999988
0.999982
0.999968
0.999943
0.999924
0.999913
0.999905
0.999912
0.999803
0.999339
0.947137
0.0354028
0.000120691
3.20017e-07
3.24636e-07
3.24656e-07
3.28673e-07
3.37271e-07
3.50135e-07
3.63185e-07
3.72798e-07
3.75848e-07
3.75125e-07
3.73495e-07
3.69939e-07
3.6508e-07
3.60718e-07
3.56603e-07
3.52675e-07
3.48715e-07
3.45408e-07
3.423e-07
3.38723e-07
3.36493e-07
3.3747e-07
3.47271e-07
3.63702e-07
3.64251e-07
3.61781e-07
3.55479e-07
3.36656e-07
3.62717e-07
5.86555e-07
5.98601e-07
5.41836e-07
4.66442e-07
3.90276e-07
0.999995
0.999994
0.999993
0.999993
0.999993
0.999992
0.999991
0.99999
0.99999
0.99999
0.99999
0.99999
0.99999
0.99999
0.99999
0.99999
0.99999
0.99999
0.99999
0.99999
0.99999
0.99999
0.99999
0.99999
0.99999
0.99999
0.99999
0.99999
0.99999
0.99999
0.99999
0.99999
0.99999
0.99999
0.99999
0.99999
0.99999
0.99999
0.99999
0.99999
0.99999
0.99999
0.99999
0.99999
0.99999
0.99999
0.99999
0.99999
0.99999
0.99999
0.999989
0.999975
0.999943
0.99992
0.999914
0.999887
0.999736
0.99906
0.996168
0.923861
0.064134
0.000431852
1.04614e-06
6.29493e-07
6.3088e-07
6.29123e-07
6.27004e-07
6.27225e-07
6.28674e-07
6.317e-07
6.34666e-07
6.36021e-07
6.37208e-07
6.39346e-07
6.4031e-07
6.40599e-07
6.43811e-07
6.52091e-07
6.57838e-07
6.57405e-07
6.5321e-07
6.41266e-07
6.21241e-07
5.97735e-07
5.7733e-07
5.67496e-07
5.6803e-07
5.6391e-07
5.64383e-07
5.68152e-07
5.72591e-07
5.79711e-07
5.90627e-07
6.19363e-07
6.07802e-07
5.15265e-07
0.999996
0.999994
0.999993
0.999992
0.999992
0.999991
0.999991
0.999991
0.99999
0.99999
0.99999
0.99999
0.99999
0.99999
0.99999
0.99999
0.99999
0.99999
0.99999
0.99999
0.99999
0.99999
0.99999
0.99999
0.99999
0.99999
0.99999
0.99999
0.99999
0.99999
0.99999
0.99999
0.99999
0.99999
0.99999
0.99999
0.99999
0.99999
0.99999
0.99999
0.99999
0.99999
0.99999
0.99999
0.99999
0.99999
0.99999
0.99999
0.99999
0.999989
0.999988
0.99998
0.999949
0.999928
0.999927
0.999905
0.999682
0.999135
0.997566
0.928882
0.0419454
5.61025e-05
6.19498e-07
6.32749e-07
6.29416e-07
6.24609e-07
6.24976e-07
6.2521e-07
6.25295e-07
6.26009e-07
6.27619e-07
6.29158e-07
6.31339e-07
6.36011e-07
6.41065e-07
6.44417e-07
6.4866e-07
6.45497e-07
6.15015e-07
5.21829e-07
4.22187e-07
3.84658e-07
3.81427e-07
3.91259e-07
4.10132e-07
4.26728e-07
4.47639e-07
4.88322e-07
5.4464e-07
5.88324e-07
5.86787e-07
5.8433e-07
5.87431e-07
6.1055e-07
6.02198e-07
5.1552e-07
0.999996
0.999995
0.999993
0.999993
0.999992
0.999992
0.999991
0.999991
0.999991
0.999991
0.99999
0.99999
0.99999
0.99999
0.99999
0.99999
0.99999
0.99999
0.99999
0.99999
0.99999
0.99999
0.99999
0.99999
0.99999
0.99999
0.99999
0.99999
0.99999
0.99999
0.99999
0.99999
0.99999
0.99999
0.99999
0.99999
0.99999
0.99999
0.99999
0.99999
0.99999
0.99999
0.99999
0.99999
0.99999
0.99999
0.99999
0.99999
0.999989
0.999988
0.999987
0.999978
0.999958
0.999933
0.999933
0.999909
0.999751
0.999311
0.998588
0.943203
0.027357
9.54335e-07
9.91131e-07
6.36893e-07
6.22139e-07
6.22166e-07
6.2325e-07
6.2462e-07
6.26506e-07
6.28098e-07
6.30367e-07
6.34331e-07
6.35278e-07
6.35485e-07
6.36056e-07
6.28953e-07
5.44329e-07
4.04976e-07
3.76865e-07
3.59504e-07
3.59204e-07
3.70345e-07
3.93751e-07
4.2478e-07
4.91414e-07
5.38203e-07
5.3369e-07
5.25049e-07
5.73636e-07
6.19232e-07
6.25373e-07
6.15921e-07
5.99998e-07
6.0813e-07
5.91941e-07
5.05751e-07
0.999997
0.999996
0.999994
0.999993
0.999993
0.999992
0.999992
0.999992
0.999991
0.999991
0.99999
0.99999
0.99999
0.99999
0.99999
0.99999
0.99999
0.99999
0.99999
0.99999
0.99999
0.99999
0.99999
0.99999
0.99999
0.99999
0.99999
0.99999
0.99999
0.99999
0.99999
0.99999
0.99999
0.99999
0.99999
0.99999
0.99999
0.99999
0.99999
0.99999
0.99999
0.99999
0.99999
0.99999
0.99999
0.99999
0.99999
0.99999
0.999989
0.999988
0.999985
0.999981
0.999963
0.999938
0.999928
0.999886
0.999815
0.999399
0.999221
0.948813
0.0336733
9.51888e-07
6.83684e-06
9.85099e-07
6.27569e-07
7.09854e-07
6.72916e-07
5.87945e-07
5.88333e-07
5.87867e-07
5.88333e-07
5.8815e-07
6.08542e-07
6.6897e-07
7.33132e-07
7.05088e-07
5.58898e-07
4.7112e-07
4.71457e-07
4.87788e-07
5.22077e-07
5.70557e-07
6.31439e-07
6.75957e-07
6.88868e-07
6.11984e-07
5.42967e-07
5.11415e-07
5.66977e-07
6.23268e-07
6.40686e-07
6.4219e-07
6.3006e-07
6.18604e-07
5.84743e-07
4.93313e-07
0.999997
0.999996
0.999995
0.999994
0.999993
0.999993
0.999992
0.999992
0.999991
0.999991
0.99999
0.99999
0.99999
0.99999
0.99999
0.99999
0.99999
0.99999
0.99999
0.99999
0.99999
0.99999
0.99999
0.99999
0.99999
0.99999
0.99999
0.99999
0.99999
0.99999
0.99999
0.99999
0.99999
0.99999
0.99999
0.99999
0.99999
0.99999
0.99999
0.99999
0.99999
0.99999
0.99999
0.99999
0.99999
0.99999
0.99999
0.99999
0.999989
0.999988
0.999985
0.999973
0.99994
0.999884
0.999873
0.999861
0.999869
0.999495
0.999785
0.905127
0.0109285
0.000111451
7.23364e-05
2.06781e-05
1.38378e-05
1.0824e-05
1.04877e-05
1.18114e-05
1.23273e-05
1.27335e-05
1.30575e-05
1.2667e-05
1.15841e-05
1.0691e-05
8.65165e-06
5.9499e-06
4.47046e-06
3.73755e-06
2.96582e-06
2.31808e-06
2.17295e-06
2.26211e-06
2.05008e-06
1.1092e-06
9.92653e-07
1.84767e-06
2.11743e-06
1.15956e-06
7.94513e-07
7.82407e-07
6.87278e-07
6.24618e-07
6.24578e-07
6.15978e-07
5.78147e-07
4.8041e-07
0.999997
0.999997
0.999996
0.999995
0.999994
0.999993
0.999993
0.999992
0.999991
0.999991
0.99999
0.99999
0.99999
0.99999
0.99999
0.99999
0.99999
0.99999
0.99999
0.99999
0.99999
0.99999
0.99999
0.99999
0.99999
0.99999
0.99999
0.99999
0.99999
0.99999
0.99999
0.99999
0.99999
0.99999
0.99999
0.99999
0.99999
0.99999
0.99999
0.99999
0.99999
0.99999
0.99999
0.99999
0.99999
0.99999
0.99999
0.99999
0.999989
0.999988
0.999984
0.999967
0.999909
0.999826
0.999834
0.999848
0.999869
0.999577
0.999861
0.844994
0.0134389
0.00153254
0.00114423
0.000571528
0.000414852
0.000357154
0.000364036
0.000416639
0.00044262
0.000498876
0.000577435
0.000667415
0.00074977
0.0007932
0.000817144
0.00083653
0.000859874
0.000831588
0.000818955
0.000850284
0.000774221
0.000684143
0.000581267
0.000498452
0.00044146
0.000367231
0.000307317
0.000256863
0.000159496
8.63913e-05
2.91975e-05
4.11084e-06
5.48606e-07
5.48582e-07
5.3673e-07
4.38316e-07
0.999997
0.999997
0.999996
0.999995
0.999994
0.999994
0.999993
0.999992
0.999991
0.999991
0.99999
0.99999
0.99999
0.99999
0.99999
0.99999
0.99999
0.99999
0.99999
0.99999
0.99999
0.99999
0.99999
0.99999
0.99999
0.99999
0.99999
0.99999
0.99999
0.99999
0.99999
0.99999
0.99999
0.99999
0.99999
0.99999
0.99999
0.99999
0.99999
0.99999
0.99999
0.99999
0.99999
0.99999
0.99999
0.99999
0.99999
0.99999
0.999989
0.999988
0.999983
0.999962
0.999886
0.999803
0.999783
0.999784
0.99979
0.999839
0.999951
0.763493
0.017753
0.00689833
0.00677083
0.00563581
0.00442715
0.00364342
0.00355386
0.00398472
0.00393703
0.00391708
0.00491061
0.00615303
0.00689873
0.0077799
0.00916785
0.0101769
0.0108324
0.0118601
0.0127826
0.013115
0.0131728
0.0128883
0.0123746
0.0120101
0.0118124
0.0113547
0.0104448
0.00936416
0.00827244
0.00750972
0.00549004
0.00275373
0.000682466
5.8869e-05
8.29697e-05
5.35796e-05
0.999997
0.999997
0.999997
0.999996
0.999995
0.999994
0.999993
0.999992
0.999991
0.999991
0.99999
0.99999
0.99999
0.99999
0.99999
0.99999
0.99999
0.99999
0.99999
0.99999
0.99999
0.99999
0.99999
0.99999
0.99999
0.99999
0.99999
0.99999
0.99999
0.99999
0.99999
0.99999
0.99999
0.99999
0.99999
0.99999
0.99999
0.99999
0.99999
0.99999
0.99999
0.99999
0.99999
0.99999
0.99999
0.99999
0.99999
0.99999
0.999989
0.999988
0.999983
0.999974
0.999951
0.999912
0.999787
0.99978
0.99984
0.999921
0.99999
0.704669
0.0204465
0.0127051
0.0167149
0.0195766
0.0194164
0.0181701
0.0167743
0.0176664
0.0198709
0.0198807
0.0196758
0.021105
0.0224944
0.0233388
0.024278
0.0250339
0.0261948
0.0274702
0.0282504
0.028844
0.0294574
0.0306171
0.0327435
0.0356813
0.0383574
0.0403701
0.0415755
0.0423941
0.0436925
0.0469654
0.0541772
0.063292
0.0775278
0.101074
0.15574
0.3638
0.999997
0.999997
0.999997
0.999997
0.999996
0.999995
0.999993
0.999992
0.999991
0.999991
0.99999
0.99999
0.99999
0.99999
0.99999
0.99999
0.99999
0.99999
0.99999
0.99999
0.99999
0.99999
0.99999
0.99999
0.99999
0.99999
0.99999
0.99999
0.99999
0.99999
0.99999
0.99999
0.99999
0.99999
0.99999
0.99999
0.99999
0.99999
0.99999
0.99999
0.99999
0.99999
0.99999
0.99999
0.99999
0.99999
0.99999
0.99999
0.99999
0.999987
0.999982
0.999963
0.999929
0.999906
0.999868
0.999795
0.999818
0.999841
0.999939
0.738419
0.0244123
0.0145025
0.0186753
0.0199473
0.0198535
0.0182001
0.0171454
0.0178296
0.0187051
0.0188897
0.0192888
0.0195648
0.01753
0.0158161
0.0145674
0.0133119
0.0125589
0.0122357
0.0126406
0.0130978
0.0137957
0.01504
0.0183432
0.0211199
0.0237326
0.0269786
0.0283318
0.0305186
0.0337939
0.0375081
0.04129
0.04852
0.0567484
0.0636528
0.0678899
0.0622175
0.999997
0.999997
0.999997
0.999997
0.999996
0.999996
0.999994
0.999992
0.999991
0.999991
0.99999
0.99999
0.99999
0.99999
0.99999
0.99999
0.99999
0.99999
0.99999
0.99999
0.99999
0.99999
0.99999
0.99999
0.99999
0.99999
0.99999
0.99999
0.99999
0.99999
0.99999
0.99999
0.99999
0.99999
0.99999
0.99999
0.99999
0.99999
0.99999
0.99999
0.99999
0.99999
0.99999
0.99999
0.99999
0.99999
0.99999
0.99999
0.99999
0.999987
0.999979
0.999951
0.999915
0.999887
0.999848
0.999822
0.999869
0.999883
0.999883
0.757179
0.0146013
0.00850374
0.0125094
0.0131386
0.0122841
0.0123134
0.0126154
0.0128736
0.0131774
0.0126122
0.0100358
0.00831563
0.00568666
0.00373482
0.00257284
0.00183425
0.00164584
0.00175902
0.00204225
0.00219284
0.00232929
0.00253117
0.00325525
0.00462835
0.00553892
0.0055809
0.0054722
0.00546271
0.0062955
0.00656915
0.00639193
0.00759477
0.00962331
0.0101702
0.00542361
0.00212955
0.999997
0.999998
0.999997
0.999997
0.999996
0.999996
0.999995
0.999992
0.999991
0.999991
0.99999
0.99999
0.99999
0.99999
0.99999
0.99999
0.99999
0.99999
0.99999
0.99999
0.99999
0.99999
0.99999
0.99999
0.99999
0.99999
0.99999
0.99999
0.99999
0.99999
0.99999
0.99999
0.99999
0.99999
0.99999
0.99999
0.99999
0.99999
0.99999
0.99999
0.99999
0.99999
0.99999
0.99999
0.99999
0.99999
0.99999
0.99999
0.99999
0.999988
0.999977
0.999947
0.999921
0.999911
0.999908
0.999916
0.999937
0.999947
0.999974
0.794435
0.00749526
0.002922
0.00353443
0.00380381
0.00387136
0.00427779
0.00476661
0.0045557
0.00398436
0.00365756
0.00221005
0.000971622
0.000424541
0.000210256
0.000128664
0.000101754
9.55965e-05
0.000109562
0.000133286
0.000156945
0.000178204
0.00019043
0.000209026
0.000317111
0.000378959
0.000369816
0.000388366
0.000352914
0.000288495
0.000243418
0.000207698
0.000168933
0.000140124
0.000110109
3.64217e-05
1.44363e-05
0.999997
0.999998
0.999998
0.999997
0.999996
0.999995
0.999993
0.999992
0.999991
0.99999
0.99999
0.99999
0.99999
0.99999
0.99999
0.99999
0.99999
0.99999
0.99999
0.99999
0.99999
0.99999
0.99999
0.99999
0.99999
0.99999
0.99999
0.99999
0.99999
0.99999
0.99999
0.99999
0.99999
0.99999
0.99999
0.99999
0.99999
0.99999
0.99999
0.99999
0.99999
0.99999
0.99999
0.99999
0.99999
0.99999
0.99999
0.99999
0.99999
0.999988
0.999982
0.999966
0.999944
0.999916
0.999911
0.999916
0.999917
0.999923
0.999966
0.825774
0.00216553
0.0005887
0.000575153
0.000568104
0.000624567
0.000632073
0.000563456
0.000463049
0.000340875
0.000227707
0.00011277
3.39128e-05
1.02895e-05
5.44265e-06
4.09893e-06
3.56178e-06
3.33681e-06
3.48884e-06
4.04717e-06
4.49634e-06
5.00197e-06
5.60845e-06
6.0555e-06
6.21476e-06
5.84336e-06
4.77122e-06
3.88387e-06
3.03449e-06
2.21656e-06
1.23634e-06
8.00294e-07
7.05815e-07
7.82446e-07
7.94476e-07
8.66517e-07
9.30332e-07
0.999997
0.999998
0.999998
0.999997
0.999996
0.999994
0.999992
0.999991
0.999991
0.99999
0.99999
0.99999
0.99999
0.99999
0.99999
0.99999
0.99999
0.99999
0.99999
0.99999
0.99999
0.99999
0.99999
0.99999
0.99999
0.99999
0.99999
0.99999
0.99999
0.99999
0.99999
0.99999
0.99999
0.99999
0.99999
0.99999
0.99999
0.99999
0.99999
0.99999
0.99999
0.99999
0.99999
0.99999
0.99999
0.99999
0.99999
0.99999
0.99999
0.999988
0.999983
0.999967
0.999949
0.999939
0.999915
0.999896
0.999852
0.99985
0.999905
0.868454
0.0018677
3.61654e-05
3.76409e-05
3.60364e-05
4.22e-05
4.08898e-05
2.23469e-05
1.04872e-05
5.54686e-06
2.72055e-06
1.39432e-06
9.08648e-07
8.09523e-07
8.3849e-07
8.06475e-07
7.28289e-07
6.81485e-07
6.76852e-07
6.74593e-07
6.6224e-07
6.33596e-07
5.96293e-07
5.5555e-07
5.31284e-07
5.17557e-07
4.90553e-07
4.91052e-07
4.68449e-07
4.47717e-07
6.69614e-07
7.70323e-07
5.76984e-07
3.42772e-07
2.4063e-07
2.30611e-07
2.48862e-07
0.999998
0.999998
0.999998
0.999998
0.999998
0.999995
0.999992
0.999991
0.999991
0.99999
0.99999
0.99999
0.99999
0.99999
0.99999
0.99999
0.99999
0.99999
0.99999
0.99999
0.99999
0.99999
0.99999
0.99999
0.99999
0.99999
0.99999
0.99999
0.99999
0.99999
0.99999
0.99999
0.99999
0.99999
0.99999
0.99999
0.99999
0.99999
0.99999
0.99999
0.99999
0.99999
0.99999
0.99999
0.99999
0.99999
0.99999
0.99999
0.99999
0.999988
0.999982
0.999967
0.999948
0.999933
0.999922
0.999901
0.999891
0.999756
0.999539
0.91501
0.0193918
3.19642e-07
1.02529e-06
5.54204e-07
9.05064e-07
1.20378e-06
1.08492e-06
8.33843e-07
1.04313e-06
1.01271e-06
9.3135e-07
9.28085e-07
8.86355e-07
8.61929e-07
8.35977e-07
8.0817e-07
7.88034e-07
7.69104e-07
7.42107e-07
7.0411e-07
6.56171e-07
6.02491e-07
5.4799e-07
5.09264e-07
4.76045e-07
4.33783e-07
4.07909e-07
3.87455e-07
3.68342e-07
4.60214e-07
6.85186e-07
6.63164e-07
4.9616e-07
2.69156e-07
1.85446e-07
1.80562e-07
0.999999
0.999999
0.999999
0.999998
0.999998
0.999997
0.999994
0.999991
0.99999
0.99999
0.99999
0.99999
0.99999
0.99999
0.99999
0.99999
0.99999
0.99999
0.99999
0.99999
0.99999
0.99999
0.99999
0.99999
0.99999
0.99999
0.99999
0.99999
0.99999
0.99999
0.99999
0.99999
0.99999
0.99999
0.99999
0.99999
0.99999
0.99999
0.99999
0.99999
0.99999
0.99999
0.99999
0.99999
0.99999
0.99999
0.99999
0.99999
0.99999
0.999988
0.999982
0.999967
0.999947
0.999931
0.999922
0.999902
0.999892
0.999681
0.998314
0.92503
0.04408
3.19642e-07
5.74478e-07
5.54483e-07
4.93791e-07
4.99092e-07
5.23017e-07
5.55078e-07
5.91935e-07
6.33794e-07
6.81096e-07
7.21838e-07
7.3841e-07
7.32705e-07
7.1623e-07
6.88444e-07
6.49874e-07
6.03851e-07
5.55954e-07
5.13767e-07
4.80047e-07
4.55665e-07
4.41392e-07
4.51562e-07
4.52192e-07
4.31455e-07
4.07351e-07
3.87271e-07
3.63232e-07
3.74143e-07
5.67168e-07
6.65317e-07
6.39551e-07
5.35699e-07
4.21866e-07
3.41652e-07
0.999999
0.999999
0.999999
0.999999
0.999998
0.999998
0.999996
0.999991
0.99999
0.99999
0.99999
0.99999
0.99999
0.99999
0.99999
0.99999
0.99999
0.99999
0.99999
0.99999
0.99999
0.99999
0.99999
0.99999
0.99999
0.99999
0.99999
0.99999
0.99999
0.99999
0.99999
0.99999
0.99999
0.99999
0.99999
0.99999
0.99999
0.99999
0.99999
0.99999
0.99999
0.99999
0.99999
0.99999
0.99999
0.99999
0.99999
0.99999
0.99999
0.999988
0.999982
0.999968
0.999943
0.999926
0.999917
0.999906
0.999912
0.999653
0.997835
0.937927
0.0542815
0.000251631
3.69817e-07
3.4859e-07
3.43543e-07
3.48512e-07
3.55519e-07
3.57451e-07
3.5942e-07
3.61617e-07
3.65178e-07
3.70422e-07
3.71966e-07
3.72882e-07
3.74582e-07
3.77448e-07
3.8078e-07
3.84566e-07
3.87922e-07
3.92343e-07
3.95898e-07
4.0096e-07
4.09212e-07
4.33224e-07
4.42757e-07
4.22334e-07
3.98467e-07
3.79575e-07
3.59409e-07
3.32647e-07
3.41086e-07
5.4811e-07
5.73023e-07
5.15584e-07
4.36442e-07
3.55619e-07
0.999996