/*--------------------------------*- C++ -*----------------------------------*\
| =========                 |                                                 |
| \\      /  F ield         | OpenFOAM: The Open Source CFD Toolbox           |
|  \\    /   O peration     | Version:  2.3.0                                 |
|   \\  /    A nd           | Web:      www.OpenFOAM.org                      |
|    \\/     M anipulation  |                                                 |
\*---------------------------------------------------------------------------*/
FoamFile
{
    version     2.0;
    format      ascii;
    class       volScalarField;
    location    "29";
    object      nut.water;
}
// * * * * * * * * * * * * * * * * * * * * * * * * * * * * * * * * * * * * * //

dimensions      [0 2 -1 0 0 0 0];

internalField   nonuniform List<scalar> 
6144
(
1.3228e-05
1.11239e-05
9.38727e-06
8.5228e-06
7.44088e-06
6.92534e-06
6.22511e-06
5.97809e-06
6.07221e-06
6.51521e-06
6.87848e-06
7.2243e-06
7.3817e-06
7.43099e-06
7.34587e-06
7.24901e-06
7.10326e-06
7.03998e-06
7.00381e-06
6.98069e-06
6.96593e-06
6.96472e-06
6.97192e-06
6.98585e-06
7.00493e-06
7.028e-06
7.05372e-06
7.07956e-06
7.10522e-06
7.12859e-06
7.16763e-06
7.20026e-06
7.23911e-06
7.25059e-06
7.29025e-06
7.29729e-06
7.35264e-06
7.37251e-06
7.45673e-06
7.49976e-06
7.57689e-06
7.60348e-06
7.62598e-06
7.59658e-06
7.6276e-06
7.65654e-06
8.04638e-06
8.42922e-06
9.29759e-06
8.81852e-06
9.77015e-06
1.27926e-05
1.83563e-05
2.53423e-05
3.23144e-05
4.00884e-05
4.59123e-05
6.4281e-05
8.95697e-05
0.000111489
0.000183272
0.000139757
0.000118808
0.000101363
8.97684e-05
8.30935e-05
7.8208e-05
7.37436e-05
6.96833e-05
6.5814e-05
6.17906e-05
5.72258e-05
5.19357e-05
4.58752e-05
3.85e-05
3.16177e-05
2.83215e-05
2.70742e-05
2.68565e-05
2.69852e-05
2.71538e-05
2.72926e-05
2.73295e-05
2.72457e-05
2.71159e-05
2.70831e-05
2.71616e-05
2.76372e-05
2.85609e-05
3.01583e-05
3.13106e-05
3.12304e-05
3.06253e-05
2.93312e-05
2.38344e-05
2.03152e-05
1.65316e-05
1.37419e-05
1.17504e-05
1.07877e-05
9.7268e-06
9.48846e-06
8.98657e-06
9.14077e-06
9.42953e-06
9.88778e-06
1.0131e-05
1.02631e-05
1.02916e-05
1.02772e-05
1.01774e-05
1.01094e-05
1.00497e-05
1.00812e-05
1.01578e-05
1.02269e-05
1.02972e-05
1.03713e-05
1.04413e-05
1.05086e-05
1.05738e-05
1.06385e-05
1.07032e-05
1.07667e-05
1.08298e-05
1.08913e-05
1.09834e-05
1.10641e-05
1.11429e-05
1.11934e-05
1.12633e-05
1.13017e-05
1.13827e-05
1.14289e-05
1.15371e-05
1.15862e-05
1.1693e-05
1.1693e-05
1.18062e-05
1.17483e-05
1.20128e-05
1.20658e-05
1.27005e-05
1.31993e-05
1.43366e-05
1.51667e-05
1.63498e-05
1.79502e-05
2.31738e-05
3.27878e-05
4.35197e-05
5.5148e-05
7.02514e-05
8.88865e-05
0.000107842
0.000120975
0.000178993
0.000114575
8.48445e-05
7.04391e-05
6.62495e-05
6.55521e-05
6.4304e-05
6.27987e-05
6.0768e-05
5.91856e-05
5.76872e-05
5.57006e-05
5.2723e-05
4.78832e-05
4.13113e-05
3.59837e-05
3.39598e-05
3.41924e-05
3.47486e-05
3.56741e-05
3.63057e-05
3.63363e-05
3.57826e-05
3.50153e-05
3.45231e-05
3.45686e-05
3.53233e-05
3.72186e-05
3.87511e-05
3.94849e-05
3.99361e-05
3.90572e-05
3.73224e-05
3.48863e-05
2.78787e-05
2.15464e-05
1.77528e-05
1.53117e-05
1.39598e-05
1.29072e-05
1.18219e-05
1.16114e-05
1.09588e-05
1.0717e-05
1.08191e-05
1.11729e-05
1.1359e-05
1.1269e-05
1.11053e-05
1.10156e-05
1.09792e-05
1.10076e-05
1.11131e-05
1.13023e-05
1.1491e-05
1.16582e-05
1.18147e-05
1.19577e-05
1.20808e-05
1.21901e-05
1.22898e-05
1.23842e-05
1.24763e-05
1.25667e-05
1.26564e-05
1.27444e-05
1.28333e-05
1.29148e-05
1.29929e-05
1.30514e-05
1.31106e-05
1.31504e-05
1.3197e-05
1.32277e-05
1.32672e-05
1.3296e-05
1.33545e-05
1.34074e-05
1.35555e-05
1.36686e-05
1.39855e-05
1.41759e-05
1.46186e-05
1.50408e-05
1.61197e-05
1.95297e-05
2.28252e-05
2.54076e-05
3.62056e-05
4.77984e-05
5.30184e-05
6.25628e-05
7.75577e-05
9.15372e-05
0.000107188
0.000114694
0.000175779
9.99256e-05
6.92153e-05
6.09088e-05
6.08204e-05
6.04196e-05
5.90363e-05
5.7636e-05
5.62379e-05
5.54389e-05
5.45731e-05
5.30663e-05
5.15958e-05
4.77153e-05
4.29563e-05
4.1174e-05
4.41434e-05
4.7238e-05
4.70345e-05
4.58529e-05
4.45643e-05
4.33603e-05
4.20474e-05
4.08937e-05
4.01605e-05
3.99739e-05
3.99444e-05
4.00265e-05
4.04492e-05
4.10914e-05
4.16504e-05
4.11997e-05
4.01624e-05
3.82879e-05
3.16426e-05
2.3358e-05
1.83756e-05
1.62716e-05
1.54343e-05
1.51118e-05
1.35977e-05
1.32513e-05
1.19239e-05
1.11855e-05
1.11525e-05
1.14644e-05
1.16718e-05
1.15687e-05
1.14291e-05
1.13298e-05
1.13145e-05
1.13828e-05
1.15392e-05
1.17441e-05
1.19589e-05
1.21598e-05
1.23502e-05
1.25201e-05
1.26657e-05
1.2792e-05
1.29061e-05
1.30134e-05
1.31178e-05
1.32209e-05
1.33235e-05
1.3425e-05
1.35259e-05
1.36192e-05
1.37068e-05
1.37759e-05
1.38442e-05
1.3894e-05
1.39457e-05
1.39865e-05
1.40351e-05
1.40814e-05
1.41576e-05
1.42588e-05
1.44382e-05
1.45949e-05
1.48606e-05
1.50115e-05
1.52725e-05
1.57157e-05
1.71269e-05
2.23904e-05
2.96714e-05
3.78918e-05
5.77865e-05
6.62398e-05
6.77502e-05
7.32882e-05
7.84265e-05
9.02004e-05
0.000100415
0.0001065
0.000171414
8.9109e-05
6.45989e-05
5.28248e-05
5.38698e-05
5.29096e-05
5.15811e-05
4.97665e-05
4.9554e-05
5.00685e-05
5.12974e-05
5.09517e-05
4.97877e-05
4.97165e-05
5.03259e-05
5.56231e-05
5.78698e-05
5.6002e-05
5.31968e-05
5.06944e-05
4.85407e-05
4.67205e-05
4.50047e-05
4.35584e-05
4.2719e-05
4.23783e-05
4.17502e-05
4.0945e-05
4.14083e-05
4.24959e-05
4.29668e-05
4.15781e-05
4.11513e-05
4.04717e-05
3.47936e-05
2.46039e-05
1.87435e-05
1.64662e-05
1.5931e-05
1.62005e-05
1.50466e-05
1.47411e-05
1.30789e-05
1.21712e-05
1.18374e-05
1.1802e-05
1.19187e-05
1.16791e-05
1.15144e-05
1.13966e-05
1.13978e-05
1.14866e-05
1.16759e-05
1.19228e-05
1.2192e-05
1.24665e-05
1.27174e-05
1.29286e-05
1.31025e-05
1.32474e-05
1.33733e-05
1.34883e-05
1.35974e-05
1.37036e-05
1.3808e-05
1.3911e-05
1.40116e-05
1.41046e-05
1.41887e-05
1.42532e-05
1.43151e-05
1.43611e-05
1.44047e-05
1.44428e-05
1.44803e-05
1.45428e-05
1.46341e-05
1.47793e-05
1.49697e-05
1.51359e-05
1.5314e-05
1.53815e-05
1.53666e-05
1.6015e-05
1.91932e-05
2.76762e-05
4.10367e-05
5.47698e-05
7.35171e-05
8.1215e-05
8.21938e-05
8.71377e-05
8.46946e-05
9.47147e-05
8.68544e-05
8.83123e-05
0.000157755
7.66705e-05
6.48897e-05
5.59601e-05
5.88913e-05
5.5714e-05
5.15775e-05
4.81155e-05
4.70564e-05
4.81423e-05
5.09813e-05
5.3714e-05
5.66947e-05
6.15431e-05
6.56077e-05
6.64746e-05
6.38097e-05
6.01012e-05
5.63552e-05
5.31208e-05
5.05007e-05
4.83677e-05
4.63521e-05
4.47281e-05
4.39033e-05
4.34877e-05
4.32051e-05
4.36849e-05
4.48854e-05
4.57534e-05
4.54113e-05
4.22618e-05
3.98081e-05
4.05923e-05
3.70267e-05
2.61515e-05
1.8823e-05
1.62799e-05
1.59685e-05
1.64584e-05
1.56262e-05
1.54013e-05
1.45926e-05
1.37603e-05
1.29094e-05
1.23263e-05
1.22443e-05
1.18006e-05
1.15984e-05
1.14234e-05
1.13786e-05
1.14601e-05
1.17039e-05
1.20269e-05
1.23838e-05
1.27192e-05
1.30038e-05
1.32378e-05
1.34291e-05
1.35849e-05
1.37173e-05
1.38358e-05
1.39462e-05
1.40523e-05
1.41566e-05
1.426e-05
1.43601e-05
1.44504e-05
1.45325e-05
1.45966e-05
1.46579e-05
1.47033e-05
1.47465e-05
1.47876e-05
1.48335e-05
1.49126e-05
1.50237e-05
1.51875e-05
1.53817e-05
1.55327e-05
1.56375e-05
1.56199e-05
1.55165e-05
1.66346e-05
2.13948e-05
3.17815e-05
4.62206e-05
6.11053e-05
8.0714e-05
9.15231e-05
9.7711e-05
0.000107952
9.94733e-05
0.000108829
7.84304e-05
7.84058e-05
0.000140217
7.27744e-05
6.66794e-05
6.32945e-05
6.33724e-05
5.65217e-05
5.00028e-05
4.73956e-05
5.06599e-05
5.52452e-05
6.10569e-05
6.77112e-05
7.26681e-05
7.49361e-05
7.37368e-05
7.07603e-05
6.54275e-05
5.88542e-05
5.41147e-05
5.14191e-05
5.01939e-05
4.92014e-05
4.79506e-05
4.6831e-05
4.65616e-05
4.70477e-05
4.81998e-05
5.0598e-05
5.22687e-05
5.22506e-05
5.04306e-05
4.65467e-05
4.22253e-05
4.09055e-05
3.96918e-05
2.6694e-05
1.6375e-05
1.53449e-05
1.46706e-05
1.54186e-05
1.56491e-05
1.55713e-05
1.53253e-05
1.45428e-05
1.41181e-05
1.32092e-05
1.27862e-05
1.19937e-05
1.14551e-05
1.11201e-05
1.10592e-05
1.11487e-05
1.14066e-05
1.17346e-05
1.2107e-05
1.24626e-05
1.27837e-05
1.30615e-05
1.32858e-05
1.34578e-05
1.35943e-05
1.37055e-05
1.38014e-05
1.38927e-05
1.39807e-05
1.40682e-05
1.41547e-05
1.42391e-05
1.43028e-05
1.43505e-05
1.43818e-05
1.44106e-05
1.44258e-05
1.44709e-05
1.45116e-05
1.46183e-05
1.47531e-05
1.49485e-05
1.51207e-05
1.52429e-05
1.52308e-05
1.5275e-05
1.52544e-05
1.70404e-05
2.26293e-05
3.26844e-05
4.50163e-05
6.05674e-05
8.49939e-05
9.85996e-05
0.000118571
0.000129797
0.000131712
0.000123799
7.72302e-05
7.88294e-05
0.000126338
7.25769e-05
6.92375e-05
6.91557e-05
6.74861e-05
6.4455e-05
6.32589e-05
6.50095e-05
6.92512e-05
7.36474e-05
7.7907e-05
7.97891e-05
7.97876e-05
7.85007e-05
7.43456e-05
6.66913e-05
5.95976e-05
5.61484e-05
5.48559e-05
5.42814e-05
5.36433e-05
5.25623e-05
5.15155e-05
5.12316e-05
5.15017e-05
5.33041e-05
5.62062e-05
5.96096e-05
6.19251e-05
6.21564e-05
6.01886e-05
5.66862e-05
5.16728e-05
4.69713e-05
4.38996e-05
2.79392e-05
1.53483e-05
1.52046e-05
1.30633e-05
1.328e-05
1.33077e-05
1.41362e-05
1.47228e-05
1.41364e-05
1.43627e-05
1.36321e-05
1.32856e-05
1.2234e-05
1.16089e-05
1.10596e-05
1.08558e-05
1.09567e-05
1.13448e-05
1.1792e-05
1.22416e-05
1.26399e-05
1.29873e-05
1.32884e-05
1.35369e-05
1.37329e-05
1.38915e-05
1.40267e-05
1.41459e-05
1.42581e-05
1.43619e-05
1.44612e-05
1.45565e-05
1.46472e-05
1.47141e-05
1.47692e-05
1.48041e-05
1.48438e-05
1.48597e-05
1.49094e-05
1.49454e-05
1.50542e-05
1.51792e-05
1.53727e-05
1.55443e-05
1.56886e-05
1.56995e-05
1.5759e-05
1.57897e-05
1.73067e-05
2.18611e-05
2.7415e-05
3.30207e-05
4.44607e-05
6.39138e-05
9.1546e-05
0.000131169
0.000137932
0.000132532
0.000128541
8.14046e-05
8.49972e-05
0.000114181
7.59133e-05
7.34329e-05
7.57722e-05
7.52618e-05
7.62662e-05
7.60743e-05
7.79203e-05
7.94867e-05
8.15949e-05
8.32385e-05
8.31053e-05
7.95687e-05
7.31775e-05
6.88615e-05
6.73113e-05
6.72011e-05
6.76917e-05
6.80872e-05
6.84396e-05
6.88897e-05
6.93986e-05
7.00596e-05
7.12265e-05
7.22196e-05
7.38246e-05
7.58018e-05
7.77212e-05
7.88508e-05
7.93734e-05
7.80567e-05
7.48551e-05
6.96778e-05
6.27052e-05
5.68562e-05
3.25784e-05
1.5205e-05
1.60705e-05
1.22977e-05
1.22609e-05
1.18998e-05
1.22672e-05
1.24987e-05
1.19264e-05
1.28482e-05
1.26395e-05
1.26595e-05
1.15996e-05
1.06963e-05
9.70337e-06
9.19731e-06
9.23925e-06
9.69549e-06
1.02079e-05
1.06781e-05
1.10574e-05
1.13796e-05
1.16628e-05
1.18953e-05
1.20745e-05
1.22154e-05
1.23316e-05
1.24328e-05
1.25242e-05
1.26071e-05
1.26839e-05
1.2753e-05
1.28134e-05
1.28461e-05
1.28738e-05
1.28776e-05
1.29022e-05
1.28945e-05
1.2941e-05
1.29581e-05
1.30393e-05
1.31033e-05
1.32184e-05
1.33043e-05
1.34014e-05
1.34002e-05
1.34402e-05
1.35876e-05
1.49332e-05
1.85821e-05
2.22957e-05
2.65975e-05
3.91694e-05
5.57714e-05
6.82664e-05
0.00010432
0.000123207
0.000121885
0.000117883
7.28641e-05
7.60811e-05
0.000100392
7.00489e-05
6.74418e-05
6.87124e-05
6.80988e-05
7.00819e-05
7.0757e-05
7.18749e-05
7.28895e-05
7.40338e-05
7.23126e-05
6.9901e-05
6.73647e-05
6.58559e-05
6.48579e-05
6.42842e-05
6.37876e-05
6.27322e-05
6.13943e-05
6.02114e-05
5.96038e-05
6.00746e-05
6.07442e-05
6.2675e-05
6.50881e-05
6.7361e-05
6.95141e-05
7.11936e-05
7.13919e-05
7.16389e-05
7.16305e-05
7.04541e-05
6.88886e-05
6.55568e-05
5.89266e-05
3.46851e-05
1.56473e-05
1.72607e-05
1.20936e-05
1.18321e-05
1.13753e-05
1.16841e-05
1.16068e-05
1.04093e-05
1.12902e-05
1.14789e-05
1.14705e-05
1.05157e-05
9.49991e-06
8.3932e-06
7.75843e-06
7.68538e-06
8.05028e-06
8.54293e-06
8.97981e-06
9.32434e-06
9.62646e-06
9.87642e-06
1.00825e-05
1.02442e-05
1.03694e-05
1.04742e-05
1.05676e-05
1.0653e-05
1.0731e-05
1.08022e-05
1.08654e-05
1.0921e-05
1.09609e-05
1.10006e-05
1.10254e-05
1.10705e-05
1.10929e-05
1.11528e-05
1.11837e-05
1.12503e-05
1.13013e-05
1.13812e-05
1.1451e-05
1.15517e-05
1.162e-05
1.1691e-05
1.19564e-05
1.30298e-05
1.59262e-05
1.84576e-05
2.50054e-05
4.4286e-05
6.61111e-05
7.16866e-05
8.3651e-05
0.000106741
0.000110257
0.000108362
7.06859e-05
7.45722e-05
9.09214e-05
6.71973e-05
6.5047e-05
6.66628e-05
6.466e-05
6.4606e-05
6.49325e-05
6.57283e-05
6.62353e-05
6.59038e-05
6.51292e-05
6.40904e-05
6.34698e-05
6.25917e-05
6.10388e-05
5.89902e-05
5.70115e-05
5.53483e-05
5.39083e-05
5.31551e-05
5.19586e-05
5.12163e-05
5.04953e-05
5.00147e-05
4.97146e-05
5.11217e-05
5.40594e-05
5.89039e-05
6.21159e-05
6.35289e-05
6.46008e-05
6.42127e-05
6.31502e-05
6.06942e-05
5.54176e-05
3.37482e-05
1.63326e-05
1.86071e-05
1.16434e-05
1.07782e-05
1.04837e-05
1.0428e-05
1.06928e-05
9.64535e-06
1.01838e-05
1.04093e-05
1.02312e-05
9.19195e-06
8.2094e-06
7.22711e-06
6.6126e-06
6.44354e-06
6.68717e-06
7.09445e-06
7.48166e-06
7.79173e-06
8.05607e-06
8.27363e-06
8.45472e-06
8.59994e-06
8.71701e-06
8.81668e-06
8.90737e-06
8.99378e-06
9.07472e-06
9.14777e-06
9.21076e-06
9.26234e-06
9.30293e-06
9.34286e-06
9.37771e-06
9.42903e-06
9.47266e-06
9.54096e-06
9.59903e-06
9.66657e-06
9.72085e-06
9.78183e-06
9.84977e-06
9.94322e-06
1.00652e-05
1.01688e-05
1.0522e-05
1.12612e-05
1.34611e-05
1.55429e-05
2.44928e-05
4.61593e-05
6.82363e-05
7.20602e-05
7.42512e-05
8.48532e-05
9.19181e-05
9.15266e-05
6.98097e-05
7.39982e-05
9.42012e-05
6.50474e-05
6.2382e-05
6.51315e-05
6.16865e-05
6.03314e-05
5.97721e-05
6.01202e-05
6.06697e-05
6.08235e-05
6.07588e-05
6.03097e-05
5.86748e-05
5.5971e-05
5.39416e-05
5.29239e-05
5.26191e-05
5.22672e-05
5.17924e-05
5.13578e-05
5.08778e-05
5.03006e-05
5.02698e-05
5.10491e-05
5.01187e-05
4.75376e-05
4.45907e-05
4.24833e-05
4.69506e-05
5.2432e-05
5.48383e-05
5.56786e-05
5.57789e-05
5.47367e-05
5.05831e-05
3.27971e-05
1.83952e-05
2.22165e-05
1.09902e-05
9.61148e-06
9.04984e-06
8.8876e-06
9.52295e-06
8.7704e-06
9.25325e-06
9.43264e-06
9.21603e-06
7.94649e-06
6.92804e-06
6.09966e-06
5.73555e-06
5.65964e-06
5.83293e-06
6.10301e-06
6.39435e-06
6.64433e-06
6.86128e-06
7.04705e-06
7.2087e-06
7.34629e-06
7.46544e-06
7.57364e-06
7.6738e-06
7.76906e-06
7.86177e-06
7.94847e-06
8.0306e-06
8.10793e-06
8.16605e-06
8.21928e-06
8.27015e-06
8.3338e-06
8.39703e-06
8.46455e-06
8.50859e-06
8.54439e-06
8.5512e-06
8.57582e-06
8.61548e-06
8.71886e-06
8.86904e-06
8.9883e-06
9.29895e-06
9.73451e-06
1.14635e-05
1.32111e-05
1.69318e-05
2.49143e-05
4.59073e-05
6.86827e-05
7.7426e-05
8.12135e-05
8.76897e-05
8.88205e-05
6.89057e-05
7.24416e-05
9.68523e-05
6.13216e-05
5.7357e-05
6.02628e-05
5.7634e-05
5.71662e-05
5.72756e-05
5.70373e-05
5.71593e-05
5.64876e-05
5.5374e-05
5.32891e-05
5.05368e-05
4.8662e-05
4.77061e-05
4.75834e-05
4.87711e-05
4.92265e-05
4.94799e-05
5.09854e-05
5.16089e-05
5.18353e-05
5.08872e-05
4.98187e-05
4.97792e-05
4.92865e-05
4.74809e-05
4.34243e-05
3.70123e-05
4.19336e-05
4.65352e-05
4.83657e-05
4.92255e-05
4.82503e-05
4.57241e-05
3.13543e-05
2.26125e-05
2.89004e-05
1.40773e-05
9.12772e-06
8.415e-06
8.11103e-06
8.72845e-06
8.28943e-06
8.52256e-06
8.55329e-06
8.25758e-06
7.09976e-06
6.14747e-06
5.42974e-06
5.15824e-06
5.09718e-06
5.2729e-06
5.46695e-06
5.65564e-06
5.8172e-06
5.96643e-06
6.10351e-06
6.23048e-06
6.34379e-06
6.44628e-06
6.54276e-06
6.6411e-06
6.7434e-06
6.84388e-06
6.94201e-06
7.03519e-06
7.11907e-06
7.18198e-06
7.23273e-06
7.28743e-06
7.35355e-06
7.42266e-06
7.49056e-06
7.54135e-06
7.57588e-06
7.60253e-06
7.67096e-06
7.72876e-06
7.81357e-06
7.96188e-06
8.05538e-06
8.30239e-06
8.51399e-06
9.75769e-06
1.15492e-05
1.42116e-05
1.83598e-05
2.81747e-05
4.75048e-05
6.69412e-05
7.06056e-05
8.43769e-05
8.7759e-05
6.58164e-05
6.80438e-05
0.00010692
5.94915e-05
5.22304e-05
5.65504e-05
5.16478e-05
4.97744e-05
5.07984e-05
5.1108e-05
5.14886e-05
5.02425e-05
4.87116e-05
4.62558e-05
4.41356e-05
4.26835e-05
4.1654e-05
4.09639e-05
4.09759e-05
4.31694e-05
4.74907e-05
5.0782e-05
5.16906e-05
5.16905e-05
5.11748e-05
4.99942e-05
4.95023e-05
4.85337e-05
4.60084e-05
4.3444e-05
3.76841e-05
3.2814e-05
3.89266e-05
4.19411e-05
4.32068e-05
4.23109e-05
3.9991e-05
2.96348e-05
2.01476e-05
1.74651e-05
1.26854e-05
1.06269e-05
9.2236e-06
7.73978e-06
7.53321e-06
7.79492e-06
8.10269e-06
7.93308e-06
7.6594e-06
6.63283e-06
5.7685e-06
5.14305e-06
4.85862e-06
4.78244e-06
4.92816e-06
5.07706e-06
5.22327e-06
5.33587e-06
5.43398e-06
5.51835e-06
5.59513e-06
5.66418e-06
5.73191e-06
5.80969e-06
5.88852e-06
5.96526e-06
6.04794e-06
6.13411e-06
6.21898e-06
6.29561e-06
6.35032e-06
6.38831e-06
6.43731e-06
6.50347e-06
6.57919e-06
6.64725e-06
6.71196e-06
6.75224e-06
6.7868e-06
6.81509e-06
6.87782e-06
6.9414e-06
7.0754e-06
7.13889e-06
7.3213e-06
7.50202e-06
8.49472e-06
1.02243e-05
1.30619e-05
1.6509e-05
2.12925e-05
3.25212e-05
4.96775e-05
5.42297e-05
6.58582e-05
7.15055e-05
6.48654e-05
6.65517e-05
0.000118434
6.15798e-05
5.31882e-05
6.06072e-05
5.50457e-05
4.97617e-05
4.65757e-05
4.62045e-05
4.66141e-05
4.71719e-05
4.74374e-05
4.79501e-05
4.79962e-05
4.78557e-05
4.75635e-05
4.76743e-05
4.83722e-05
5.01092e-05
5.14429e-05
5.27242e-05
5.26512e-05
5.20949e-05
5.10513e-05
4.88849e-05
4.73655e-05
4.58279e-05
4.35126e-05
4.0999e-05
3.72018e-05
2.95072e-05
3.13697e-05
3.56029e-05
3.7376e-05
3.68634e-05
3.44628e-05
2.6958e-05
2.05518e-05
1.99756e-05
1.95946e-05
1.55766e-05
1.63015e-05
1.04857e-05
7.27368e-06
7.09915e-06
7.27147e-06
6.95122e-06
6.58749e-06
5.6817e-06
5.0466e-06
4.59344e-06
4.3382e-06
4.27095e-06
4.37418e-06
4.48653e-06
4.59648e-06
4.68389e-06
4.76353e-06
4.83418e-06
4.90273e-06
4.96994e-06
5.03965e-06
5.11786e-06
5.19993e-06
5.28193e-06
5.36944e-06
5.46003e-06
5.54938e-06
5.63077e-06
5.69439e-06
5.74279e-06
5.80219e-06
5.86897e-06
5.94347e-06
6.00741e-06
6.07408e-06
6.11472e-06
6.15474e-06
6.17943e-06
6.23953e-06
6.28773e-06
6.39937e-06
6.43963e-06
6.5791e-06
6.74139e-06
7.58306e-06
9.26388e-06
1.18649e-05
1.41701e-05
1.77572e-05
2.62599e-05
3.8305e-05
4.16728e-05
5.43213e-05
6.153e-05
7.20115e-05
7.33653e-05
0.000133058
7.13461e-05
6.52251e-05
5.9491e-05
5.88719e-05
5.43933e-05
5.27155e-05
5.24492e-05
5.21557e-05
5.27362e-05
5.3684e-05
5.46823e-05
5.56472e-05
5.62043e-05
5.64592e-05
5.6679e-05
5.63763e-05
5.60924e-05
5.52498e-05
5.42258e-05
5.2797e-05
5.09843e-05
4.90092e-05
4.62324e-05
4.43717e-05
4.19344e-05
3.98183e-05
3.71848e-05
3.45231e-05
2.80663e-05
2.50459e-05
2.9729e-05
3.1842e-05
3.20317e-05
3.04962e-05
2.5893e-05
2.20724e-05
2.24255e-05
2.23447e-05
2.18877e-05
2.07151e-05
1.81591e-05
1.05199e-05
5.29111e-06
5.12369e-06
4.98479e-06
4.81198e-06
4.38118e-06
4.02783e-06
3.74344e-06
3.58326e-06
3.53746e-06
3.59227e-06
3.65669e-06
3.72139e-06
3.773e-06
3.82178e-06
3.86666e-06
3.91188e-06
3.95823e-06
4.00776e-06
4.06277e-06
4.1207e-06
4.17931e-06
4.24225e-06
4.30726e-06
4.37161e-06
4.43112e-06
4.48019e-06
4.52095e-06
4.57146e-06
4.62544e-06
4.69337e-06
4.74893e-06
4.81751e-06
4.8592e-06
4.90972e-06
4.93216e-06
4.98592e-06
5.00856e-06
5.07228e-06
5.06939e-06
5.12751e-06
5.27558e-06
5.94472e-06
7.50635e-06
9.39481e-06
1.09858e-05
1.59103e-05
2.20622e-05
2.75995e-05
2.99238e-05
3.80301e-05
4.70976e-05
7.53122e-05
8.813e-05
0.000152372
0.000108372
8.82121e-05
6.8575e-05
5.93878e-05
5.3136e-05
4.97419e-05
4.8669e-05
4.85739e-05
4.92575e-05
5.0254e-05
5.12433e-05
5.22061e-05
5.2786e-05
5.32112e-05
5.32505e-05
5.29767e-05
5.24742e-05
5.14075e-05
5.00752e-05
4.83021e-05
4.61828e-05
4.39914e-05
4.11675e-05
3.90855e-05
3.65403e-05
3.45785e-05
3.24317e-05
2.90745e-05
2.43752e-05
1.82079e-05
2.03584e-05
2.30137e-05
2.35873e-05
2.27654e-05
2.18437e-05
1.90333e-05
1.54467e-05
1.16915e-05
9.79914e-06
8.30484e-06
7.8022e-06
7.66715e-06
8.56092e-06
9.91327e-06
1.1294e-05
1.19219e-05
1.23609e-05
1.24221e-05
1.24357e-05
1.22585e-05
1.20704e-05
1.17642e-05
1.15072e-05
1.12389e-05
1.10423e-05
1.09039e-05
1.08469e-05
1.08514e-05
1.08992e-05
1.09837e-05
1.10914e-05
1.12126e-05
1.134e-05
1.1471e-05
1.15977e-05
1.17156e-05
1.18114e-05
1.18906e-05
1.19351e-05
1.20026e-05
1.20384e-05
1.21447e-05
1.22124e-05
1.23927e-05
1.24837e-05
1.26486e-05
1.26296e-05
1.27106e-05
1.2616e-05
1.27498e-05
1.28286e-05
1.35357e-05
1.41616e-05
1.56154e-05
1.41335e-05
1.29276e-05
1.34128e-05
1.89339e-05
2.73817e-05
3.86022e-05
5.04349e-05
5.94913e-05
7.50402e-05
8.75382e-05
0.000100194
0.000135317
0.000109958
0.000104168
9.62223e-05
8.94251e-05
8.47867e-05
8.09096e-05
7.68851e-05
7.29915e-05
6.90411e-05
6.49694e-05
6.05761e-05
5.58471e-05
5.08921e-05
4.57009e-05
4.10267e-05
3.71926e-05
3.42888e-05
3.22565e-05
3.09362e-05
3.01025e-05
2.95054e-05
2.89641e-05
2.83828e-05
2.79128e-05
2.7736e-05
2.79248e-05
2.91031e-05
3.18415e-05
3.3679e-05
3.42546e-05
3.37413e-05
3.26439e-05
3.1134e-05
2.76127e-05
2.26354e-05
6.84503e-05
5.6068e-05
3.78209e-05
3.28641e-05
3.03188e-05
3.14338e-05
3.40508e-05
3.76325e-05
4.03394e-05
4.23875e-05
4.28931e-05
4.21188e-05
4.06894e-05
3.9349e-05
3.85272e-05
3.83104e-05
3.8494e-05
3.87437e-05
3.8971e-05
3.91431e-05
3.93925e-05
3.97265e-05
4.00458e-05
4.03405e-05
4.06126e-05
4.08677e-05
4.11164e-05
4.13576e-05
4.15899e-05
4.18012e-05
4.19649e-05
4.20879e-05
4.21735e-05
4.21982e-05
4.22038e-05
4.21687e-05
4.21549e-05
4.21467e-05
4.22061e-05
4.23006e-05
4.25462e-05
4.27238e-05
4.31409e-05
4.34264e-05
4.423e-05
4.4402e-05
4.52792e-05
4.63269e-05
4.89108e-05
5.03986e-05
4.72233e-05
4.15662e-05
5.41789e-05
8.48711e-05
0.000138566
0.000213404
0.000306772
0.000420591
0.000703083
0.000679849
2.31173e-05
4.62043e-05
0.000118377
0.000112807
0.000106345
0.00010186
9.69334e-05
9.20227e-05
8.76277e-05
8.26051e-05
7.78167e-05
7.27292e-05
6.77286e-05
6.29849e-05
5.79789e-05
5.27731e-05
5.12462e-05
5.41403e-05
5.83189e-05
6.15599e-05
6.11769e-05
5.90729e-05
5.54448e-05
5.52258e-05
5.70147e-05
6.16546e-05
7.04584e-05
7.3273e-05
7.33427e-05
7.19925e-05
7.09814e-05
6.32971e-05
5.46638e-05
4.2929e-05
3.79957e-05
2.42223e-05
6.81154e-05
5.83068e-05
5.12041e-05
4.76311e-05
4.53526e-05
4.48412e-05
4.57643e-05
4.81348e-05
4.88834e-05
4.83746e-05
4.72969e-05
4.47046e-05
4.234e-05
4.02891e-05
3.91183e-05
3.88333e-05
3.92932e-05
4.00127e-05
4.08613e-05
4.16586e-05
4.24424e-05
4.31601e-05
4.3714e-05
4.41084e-05
4.43875e-05
4.45872e-05
4.47467e-05
4.48814e-05
4.49971e-05
4.50924e-05
4.51549e-05
4.51729e-05
4.51435e-05
4.50609e-05
4.49524e-05
4.48112e-05
4.46636e-05
4.45781e-05
4.45411e-05
4.46241e-05
4.48247e-05
4.51141e-05
4.54246e-05
4.55687e-05
4.56169e-05
4.56718e-05
4.63006e-05
4.83349e-05
5.26544e-05
5.8144e-05
6.35684e-05
6.5467e-05
8.4937e-05
0.000109214
0.000149482
0.000207192
0.000329751
0.000410301
0.00064158
0.000592745
1.9913e-05
8.18723e-05
0.000149566
0.000120316
0.00010353
9.53608e-05
9.16694e-05
8.98389e-05
8.78924e-05
8.70619e-05
8.36531e-05
8.28819e-05
8.15366e-05
7.58911e-05
7.02989e-05
7.09543e-05
7.87759e-05
8.07936e-05
8.10513e-05
8.0337e-05
7.9536e-05
7.80637e-05
7.72999e-05
7.76573e-05
7.81725e-05
7.81656e-05
7.57032e-05
6.91923e-05
6.64072e-05
6.96961e-05
7.1754e-05
6.78303e-05
5.90383e-05
4.7227e-05
4.13279e-05
2.61229e-05
7.4763e-05
6.39468e-05
6.10164e-05
5.65375e-05
5.40066e-05
5.27894e-05
5.23882e-05
5.2825e-05
5.16858e-05
4.95418e-05
4.71143e-05
4.2863e-05
3.96779e-05
3.71321e-05
3.58864e-05
3.57204e-05
3.65196e-05
3.77332e-05
3.91261e-05
4.02535e-05
4.13322e-05
4.23185e-05
4.3057e-05
4.35488e-05
4.3849e-05
4.40214e-05
4.41302e-05
4.42043e-05
4.42586e-05
4.43036e-05
4.43311e-05
4.43281e-05
4.42619e-05
4.41424e-05
4.39794e-05
4.38035e-05
4.35987e-05
4.35147e-05
4.34432e-05
4.34871e-05
4.3623e-05
4.39616e-05
4.43147e-05
4.44967e-05
4.43623e-05
4.4572e-05
4.44533e-05
4.70606e-05
5.19038e-05
6.20587e-05
8.08365e-05
0.000100182
0.000128941
0.000134951
0.00015468
0.000184292
0.000296559
0.000319195
0.000404526
0.000305837
2.05684e-05
7.7951e-05
0.00011678
8.55385e-05
8.72979e-05
8.89403e-05
8.7755e-05
8.65908e-05
8.6567e-05
8.85298e-05
9.32015e-05
9.04649e-05
8.84491e-05
8.96658e-05
9.58484e-05
0.000100185
0.00010267
0.000103669
0.000106294
0.000108768
0.000107012
0.000101887
9.55269e-05
8.83504e-05
8.31306e-05
7.88425e-05
7.33729e-05
6.5124e-05
6.28046e-05
6.45985e-05
6.87937e-05
6.65243e-05
5.95433e-05
4.92036e-05
4.41551e-05
2.73435e-05
7.8974e-05
6.3556e-05
6.15464e-05
6.04215e-05
6.02086e-05
5.85506e-05
5.68994e-05
5.61002e-05
5.39169e-05
5.00087e-05
4.64416e-05
4.14629e-05
3.76832e-05
3.4964e-05
3.38839e-05
3.36843e-05
3.4144e-05
3.49336e-05
3.58581e-05
3.69509e-05
3.80464e-05
3.88996e-05
3.95136e-05
3.99147e-05
4.01801e-05
4.03592e-05
4.04693e-05
4.05424e-05
4.05949e-05
4.0637e-05
4.0666e-05
4.06637e-05
4.05928e-05
4.0468e-05
4.02927e-05
4.01148e-05
3.9939e-05
3.98274e-05
3.97525e-05
3.98772e-05
4.0078e-05
4.0473e-05
4.07011e-05
4.08722e-05
4.05115e-05
4.06662e-05
4.099e-05
4.53685e-05
5.20844e-05
6.47452e-05
9.79491e-05
0.000137607
0.00016559
0.000165256
0.000175417
0.000222035
0.00029654
0.000259535
0.000117978
7.31286e-05
1.77463e-05
8.20864e-05
0.000110629
8.69792e-05
9.86184e-05
9.43528e-05
9.49638e-05
9.35986e-05
9.41273e-05
9.61783e-05
9.72156e-05
0.00010369
0.000110035
0.00011503
0.000118624
0.000120589
0.000121447
0.000123734
0.000123652
0.000121261
0.000117085
0.000110948
0.000102669
9.31208e-05
8.91515e-05
8.47544e-05
8.24075e-05
7.25285e-05
6.18827e-05
5.98733e-05
6.35679e-05
6.43394e-05
5.7827e-05
4.83841e-05
4.65361e-05
2.82323e-05
8.62885e-05
6.23132e-05
5.97831e-05
5.81411e-05
5.96628e-05
5.99177e-05
5.88103e-05
5.59435e-05
5.33154e-05
4.88543e-05
4.58152e-05
4.03777e-05
3.67191e-05
3.35456e-05
3.0999e-05
3.02129e-05
3.09324e-05
3.23336e-05
3.40262e-05
3.55264e-05
3.66414e-05
3.73474e-05
3.7842e-05
3.81667e-05
3.83836e-05
3.85305e-05
3.86371e-05
3.87168e-05
3.8788e-05
3.88544e-05
3.89059e-05
3.89221e-05
3.8899e-05
3.88029e-05
3.86931e-05
3.85463e-05
3.84239e-05
3.8309e-05
3.82519e-05
3.83145e-05
3.84675e-05
3.87227e-05
3.89689e-05
3.90232e-05
3.89843e-05
3.87161e-05
3.90367e-05
4.28806e-05
5.15264e-05
6.72927e-05
0.000104024
0.000140992
0.000174811
0.000190492
0.000197863
0.000225385
0.000238135
0.000266213
5.56687e-05
3.84038e-05
1.78448e-05
9.42431e-05
0.000112127
9.99363e-05
0.000109877
0.000107225
0.00010773
0.000104349
0.000108023
0.000113945
0.000117722
0.000124836
0.000128894
0.00013291
0.000136384
0.000136639
0.000129399
0.000118675
0.000114427
0.000112236
0.000110456
0.000107466
0.000102739
9.6077e-05
9.40383e-05
9.42378e-05
9.43593e-05
9.40972e-05
7.54229e-05
6.21595e-05
6.10848e-05
6.24737e-05
6.53099e-05
5.63498e-05
5.09593e-05
2.86436e-05
7.28516e-05
5.41157e-05
5.05696e-05
5.39991e-05
5.76932e-05
5.92032e-05
5.87973e-05
5.51905e-05
5.25376e-05
4.77169e-05
4.43512e-05
3.95478e-05
3.43215e-05
2.91278e-05
2.65353e-05
2.57496e-05
2.61919e-05
2.71377e-05
2.82726e-05
2.94316e-05
3.05518e-05
3.15592e-05
3.2324e-05
3.28226e-05
3.31206e-05
3.32888e-05
3.33787e-05
3.34461e-05
3.34952e-05
3.35308e-05
3.35433e-05
3.35087e-05
3.33473e-05
3.31102e-05
3.28072e-05
3.25235e-05
3.22233e-05
3.20807e-05
3.19345e-05
3.20529e-05
3.21852e-05
3.24883e-05
3.2533e-05
3.2627e-05
3.20657e-05
3.27573e-05
3.35605e-05
3.91841e-05
4.85799e-05
6.28382e-05
9.16428e-05
0.000133971
0.000174142
0.000198626
0.000209297
0.000190456
0.000173712
0.000169509
2.37517e-05
2.45992e-05
1.84243e-05
0.000122732
0.000115046
0.000110626
0.000119968
0.000122943
0.00012699
0.000128653
0.00013027
0.000133582
0.000138599
0.000141531
0.000142348
0.000140861
0.000133934
0.000121243
0.000109668
0.0001037
0.00010042
9.87555e-05
9.75634e-05
9.63945e-05
9.58156e-05
9.50224e-05
9.687e-05
0.000102318
0.000108198
0.000109801
0.000103719
8.69799e-05
7.36004e-05
6.80566e-05
6.66605e-05
6.55089e-05
5.69034e-05
3.07561e-05
5.71009e-05
4.78785e-05
3.89117e-05
3.80239e-05
4.35126e-05
4.64072e-05
4.98454e-05
4.74793e-05
4.74072e-05
4.4783e-05
4.24619e-05
3.62784e-05
3.05526e-05
2.51079e-05
2.15652e-05
2.04919e-05
2.13777e-05
2.27656e-05
2.41417e-05
2.53623e-05
2.63323e-05
2.70553e-05
2.75702e-05
2.78884e-05
2.80552e-05
2.81352e-05
2.81602e-05
2.81523e-05
2.8091e-05
2.79958e-05
2.78671e-05
2.76895e-05
2.74256e-05
2.71588e-05
2.68435e-05
2.65816e-05
2.62724e-05
2.60602e-05
2.58021e-05
2.57257e-05
2.56414e-05
2.57276e-05
2.57175e-05
2.5861e-05
2.56468e-05
2.58371e-05
2.63704e-05
2.9913e-05
3.93738e-05
4.87107e-05
6.38073e-05
9.25026e-05
0.00013373
0.000178086
0.000221843
0.000189619
0.000132572
0.000113589
1.36582e-05
1.80529e-05
1.86742e-05
0.000152703
0.000120697
0.000116742
0.000123023
0.000130286
0.000133066
0.00013412
0.000136442
0.000137068
0.000134345
0.000126352
0.000114124
0.000102094
9.57141e-05
9.3775e-05
9.40409e-05
9.5067e-05
9.57799e-05
9.55907e-05
9.43965e-05
9.25559e-05
9.37006e-05
9.51224e-05
9.84383e-05
0.000107644
0.000117237
0.000120204
0.000119954
0.000107053
9.86188e-05
9.61086e-05
9.4816e-05
9.27428e-05
9.90372e-05
9.92635e-05
5.01194e-05
4.77445e-05
3.51167e-05
3.10509e-05
3.10879e-05
3.19125e-05
3.73092e-05
3.97279e-05
4.16226e-05
4.04489e-05
3.90507e-05
3.23665e-05
2.56076e-05
1.97021e-05
1.67591e-05
1.58757e-05
1.6214e-05
1.68572e-05
1.75736e-05
1.80646e-05
1.85616e-05
1.9261e-05
1.97606e-05
2.00642e-05
2.02108e-05
2.02645e-05
2.02738e-05
2.02902e-05
2.03288e-05
2.03734e-05
2.03913e-05
2.0359e-05
2.01837e-05
1.99683e-05
1.96987e-05
1.94863e-05
1.92937e-05
1.92411e-05
1.90949e-05
1.91076e-05
1.90519e-05
1.91599e-05
1.90956e-05
1.91955e-05
1.91743e-05
1.9515e-05
2.04285e-05
2.28901e-05
3.06402e-05
3.95689e-05
5.35863e-05
8.35039e-05
0.000128528
0.000147575
0.000180702
0.000202098
0.000172936
0.000112944
1.71461e-05
1.87152e-05
1.72664e-05
0.000158048
0.00012876
0.00012022
0.000116596
0.000116112
0.000116838
0.000117205
0.000113583
0.000107685
0.000100438
9.61126e-05
9.5005e-05
9.68e-05
9.96104e-05
0.000101785
0.000102702
9.97563e-05
9.8934e-05
0.000100344
0.000101806
9.98403e-05
0.000100191
0.000102054
9.79371e-05
0.000100615
0.000102008
0.000104965
0.000107192
0.000105321
9.31559e-05
8.74527e-05
8.1788e-05
8.42815e-05
6.85496e-05
4.42232e-05
5.0689e-05
5.42312e-05
3.24272e-05
2.60281e-05
2.59253e-05
2.55089e-05
2.93731e-05
3.20936e-05
3.4989e-05
3.52237e-05
3.42489e-05
2.84833e-05
2.25205e-05
1.70916e-05
1.47068e-05
1.40428e-05
1.43769e-05
1.47776e-05
1.52081e-05
1.56289e-05
1.64821e-05
1.68709e-05
1.71954e-05
1.7394e-05
1.73952e-05
1.73495e-05
1.73002e-05
1.72917e-05
1.73033e-05
1.73154e-05
1.73102e-05
1.7245e-05
1.7132e-05
1.69968e-05
1.68703e-05
1.67782e-05
1.67462e-05
1.6717e-05
1.66502e-05
1.65713e-05
1.6537e-05
1.66168e-05
1.66791e-05
1.68602e-05
1.70835e-05
1.71573e-05
1.7576e-05
1.84659e-05
2.34476e-05
2.8623e-05
4.79117e-05