/*--------------------------------*- C++ -*----------------------------------*\
| =========                 |                                                 |
| \\      /  F ield         | OpenFOAM: The Open Source CFD Toolbox           |
|  \\    /   O peration     | Version:  2.3.0                                 |
|   \\  /    A nd           | Web:      www.OpenFOAM.org                      |
|    \\/     M anipulation  |                                                 |
\*---------------------------------------------------------------------------*/
FoamFile
{
    version     2.0;
    format      ascii;
    class       surfaceScalarField;
    location    "29";
    object      phi.water;
}
// * * * * * * * * * * * * * * * * * * * * * * * * * * * * * * * * * * * * * //

dimensions      [0 3 -1 0 0 0 0];

internalField   nonuniform List<scalar> 
16448
(
-7.36225e-07
-2.56175e-06
4.29652e-07
1.07853e-06
-2.54745e-06
7.37326e-07
9.39342e-07
-1.09981e-06
1.24244e-06
8.37652e-07
-1.09196e-06
1.19674e-06
4.68656e-07
-6.81435e-07
1.05466e-06
2.23623e-07
-6.76321e-07
9.25711e-07
1.48236e-09
-4.88163e-07
7.16404e-07
-9.75166e-08
-4.67119e-07
5.71698e-07
-2.07459e-07
-3.63327e-07
4.76396e-07
-3.47169e-07
-2.98328e-07
4.38641e-07
-4.75185e-07
-2.57067e-07
3.85354e-07
-5.17759e-07
-2.83163e-07
3.25866e-07
-4.82283e-07
-3.35074e-07
2.99836e-07
-3.65733e-07
-3.90795e-07
2.74409e-07
-2.33841e-07
-4.21722e-07
2.90083e-07
-1.02347e-07
-4.44448e-07
3.13161e-07
-1.46316e-09
-4.52391e-07
3.51789e-07
7.41537e-08
-4.6219e-07
3.86812e-07
1.2037e-07
-4.702e-07
4.24253e-07
1.46208e-07
-4.78679e-07
4.53089e-07
1.5472e-07
-4.82176e-07
4.73929e-07
1.51861e-07
-4.81659e-07
4.8477e-07
1.41789e-07
-4.77646e-07
4.87989e-07
1.27835e-07
-4.70863e-07
4.85082e-07
1.12203e-07
-4.61839e-07
4.77755e-07
9.63744e-08
-4.51043e-07
4.67153e-07
8.10458e-08
-4.38551e-07
4.54184e-07
6.62712e-08
-4.24374e-07
4.39451e-07
5.27517e-08
-4.09689e-07
4.23538e-07
4.3034e-08
-3.97131e-07
4.07174e-07
3.82595e-08
-3.83903e-07
3.89031e-07
3.7879e-08
-3.68778e-07
3.69507e-07
4.04191e-08
-3.50818e-07
3.48658e-07
4.73528e-08
-3.31249e-07
3.24692e-07
6.57959e-08
-3.13331e-07
2.95299e-07
1.05298e-07
-3.00628e-07
2.61527e-07
1.68777e-07
-2.93697e-07
2.30656e-07
2.46457e-07
-2.90498e-07
2.13243e-07
3.18683e-07
-2.87757e-07
2.16001e-07
3.54444e-07
-2.79261e-07
2.43958e-07
3.13076e-07
-2.5915e-07
3.01044e-07
1.62592e-07
-2.41561e-07
3.92581e-07
-1.00909e-07
-2.40315e-07
5.04307e-07
-3.80844e-07
-3.16128e-07
5.97379e-07
-5.12701e-07
-5.30997e-07
6.69435e-07
-4.38024e-07
-8.13919e-07
7.54901e-07
-3.70786e-07
-8.74528e-07
8.30526e-07
-4.64239e-07
-7.38472e-07
8.93639e-07
-1.39906e-06
-1.71966e-08
1.0526e-06
-2.34148e-06
-1.4255e-07
1.25569e-06
9.26685e-07
-6.43692e-06
3.30281e-06
4.28245e-06
-8.13368e-06
4.77809e-06
6.34214e-06
-7.85722e-06
5.80737e-06
8.75389e-06
-9.03592e-06
6.52888e-06
1.06345e-05
-9.519e-06
7.6899e-06
1.46287e-05
-1.23075e-05
8.0735e-06
1.11987e-05
-4.20172e-06
8.01436e-06
1.28554e-05
-6.1977e-06
3.49775e-06
-1.59329e-06
1.23294e-05
1.09382e-05
3.01238e-05
-2.54893e-06
-7.76127e-06
2.81474e-05
-2.38379e-05
-2.51715e-06
3.39264e-05
-1.20714e-05
4.38695e-06
3.3263e-05
-5.25832e-06
5.91259e-06
3.42118e-05
-6.48741e-06
5.53859e-06
3.48248e-05
-5.35117e-06
4.73817e-06
3.41323e-05
-3.2081e-06
3.90057e-06
3.30908e-05
-2.21196e-06
3.25343e-06
3.20387e-05
-1.77806e-06
2.83017e-06
3.10258e-05
-1.48028e-06
2.49319e-06
2.98966e-05
-9.96814e-07
2.12602e-06
2.86016e-05
-8.5405e-07
2.14902e-06
2.73414e-05
-1.31288e-06
2.57307e-06
2.6062e-05
-1.67472e-06
2.95413e-06
2.4486e-05
-1.75227e-06
3.32826e-06
2.28273e-05
-1.46955e-06
3.12825e-06
1.97693e-05
5.07675e-07
2.55033e-06
1.37233e-05
3.25321e-06
2.79283e-06
5.30487e-06
5.07179e-06
3.34659e-06
7.09044e-07
1.25259e-06
3.34324e-06
-3.37819e-07
-2.38815e-06
3.43501e-06
4.27388e-07
-4.64569e-06
3.88048e-06
1.87354e-06
-5.56043e-06
4.11428e-06
3.18559e-06
-4.61612e-06
3.30407e-06
3.33473e-06
-2.03223e-06
1.88309e-06
1.4434e-06
4.08453e-07
1.48288e-06
-1.58758e-06
1.36624e-06
1.66474e-06
-3.59821e-06
1.43471e-06
5.75923e-07
-5.39051e-06
1.84306e-06
-5.07588e-08
-7.54848e-06
1.13832e-06
1.01965e-06
-9.56302e-06
-2.96466e-07
2.31101e-06
-1.24252e-05
-6.29179e-08
2.92514e-06
-1.49767e-05
1.51543e-06
1.03603e-06
-1.47676e-05
2.48e-06
-2.68912e-06
-1.16824e-05
3.39001e-06
-6.47523e-06
-5.80941e-06
4.04925e-06
-9.92219e-06
2.84414e-06
-8.65354e-06
-1.50271e-06
-3.74411e-06
-1.25959e-07
-2.28599e-07
-3.90332e-06
9.06246e-08
-1.87051e-07
-2.00988e-06
8.74917e-07
-2.32108e-08
-1.87681e-06
6.253e-07
2.18317e-08
-1.1261e-06
4.04849e-07
5.8245e-08
-9.20985e-07
2.13024e-07
3.83162e-10
-5.00883e-07
7.59867e-08
-1.4137e-07
-3.97848e-07
7.63011e-08
-3.60799e-07
-2.25587e-07
8.36639e-08
-5.64911e-07
-1.77185e-07
8.27884e-08
-6.96838e-07
-1.5898e-07
3.36437e-08
-7.20857e-07
-2.32079e-07
-2.73899e-08
-6.69114e-07
-3.22445e-07
-6.44888e-08
-5.45032e-07
-4.19468e-07
-9.55576e-08
-3.98383e-07
-4.75863e-07
-9.25775e-08
-2.46868e-07
-5.15363e-07
-8.06968e-08
-1.20713e-07
-5.24579e-07
-5.40077e-08
-1.97344e-08
-5.33862e-07
-2.93824e-08
4.73985e-08
-5.36208e-07
-1.19286e-09
9.02121e-08
-5.36836e-07
1.52955e-08
1.12038e-07
-5.31664e-07
2.76456e-08
1.18802e-07
-5.22717e-07
3.42905e-08
1.15288e-07
-5.10247e-07
3.61172e-08
1.05118e-07
-4.94863e-07
3.41799e-08
9.13922e-08
-4.77606e-07
2.95049e-08
7.61925e-08
-4.5863e-07
2.28033e-08
6.07589e-08
-4.37868e-07
1.47618e-08
4.57412e-08
-4.15332e-07
5.98658e-09
3.31506e-08
-3.91848e-07
-5.24255e-09
2.63151e-08
-3.70122e-07
-2.01241e-08
2.65872e-08
-3.48388e-07
-3.57143e-08
3.34478e-08
-3.23847e-07
-5.16847e-08
4.48842e-08
-2.94479e-07
-6.7646e-08
6.06817e-08
-2.62614e-07
-8.42623e-08
8.57374e-08
-2.35672e-07
-1.02521e-07
1.25154e-07
-2.19601e-07
-1.20203e-07
1.78894e-07
-2.1331e-07
-1.33861e-07
2.37205e-07
-2.11399e-07
-1.37097e-07
2.81205e-07
-2.04368e-07
-1.2704e-07
2.81714e-07
-1.81932e-07
-9.74298e-08
2.00951e-07
-1.33197e-07
-4.47556e-08
9.19546e-09
-7.10863e-08
2.17691e-08
-2.80366e-07
-3.21259e-08
8.18895e-08
-5.81477e-07
-1.28016e-07
1.15782e-07
-7.82579e-07
-4.64538e-07
1.47635e-07
-9.84066e-07
-8.49813e-07
2.66015e-07
-1.34499e-06
-9.31921e-07
4.60116e-07
-1.72177e-06
-9.10305e-07
5.96766e-07
-1.27656e-06
-8.69497e-07
4.48522e-07
1.71461e-06
-2.34474e-06
-5.89108e-07
4.58674e-06
-9.9098e-06
8.01375e-07
3.52778e-06
-1.04912e-05
3.53192e-06
1.36909e-06
-9.44276e-06
3.76859e-06
-2.48529e-06
-1.00901e-05
4.77764e-06
-1.20213e-06
-1.53173e-05
4.62409e-06
-2.14535e-06
-1.63456e-05
4.63895e-06
5.38474e-06
-1.35406e-05
2.87313e-06
2.11858e-05
-2.19132e-05
-1.66817e-06
5.77069e-06
2.13721e-05
1.58149e-05
3.07416e-05
-9.32064e-07
-3.36589e-06
1.68595e-05
-3.19182e-05
-6.78909e-06
1.3171e-05
-1.60711e-05
6.07568e-06
6.85331e-06
-9.6608e-06
1.07175e-05
1.23329e-06
-8.86065e-06
7.99327e-06
-5.42077e-07
-9.20678e-06
5.63098e-06
-2.92699e-06
-4.40078e-06
3.57759e-06
-5.71677e-06
-2.19692e-06
2.77474e-06
-9.18568e-06
-8.74109e-07
2.56497e-06
-1.22529e-05
-7.64097e-07
2.35101e-06
-1.42466e-05
-1.35377e-06
2.3507e-06
-1.49163e-05
-2.82148e-06
2.63715e-06
-1.5021e-05
-4.43101e-06
3.22282e-06
-1.49243e-05
-5.5447e-06
3.77322e-06
-1.39257e-05
-6.12844e-06
3.37758e-06
-1.18709e-05
-5.77817e-06
2.25388e-06
-9.51252e-06
-2.9747e-06
1.12396e-06
-8.13694e-06
1.43359e-08
1.86329e-06
-7.0735e-06
5.29052e-07
3.4793e-06
-6.69609e-06
-2.79657e-06
3.67174e-06
-6.33948e-06
-5.71969e-06
2.97493e-06
-5.54917e-06
-8.39665e-06
2.96065e-06
-4.5404e-06
-9.61701e-06
3.04781e-06
-2.4843e-06
-8.57204e-06
1.89981e-06
1.53457e-07
-4.93588e-06
2.65892e-07
1.76031e-06
-1.66616e-06
4.67763e-07
1.83798e-06
3.56419e-07
9.32149e-07
8.2477e-07
2.22627e-06
2.21647e-07
-4.94528e-07
4.18992e-06
-1.02756e-06
-3.33114e-06
4.5611e-06
-5.8617e-07
-8.10621e-06
1.9111e-06
2.56751e-06
-1.26722e-05
3.9737e-07
4.10568e-06
-1.55093e-05
2.45791e-06
1.89468e-06
-1.54037e-05
4.86426e-06
-2.4899e-06
-1.18276e-05
6.4668e-06
-6.6529e-06
-5.59615e-06
8.31941e-06
-1.05016e-05
7.55104e-06
-1.0303e-05
-2.299e-06
-4.14231e-06
-3.68592e-07
-1.27849e-06
-4.48296e-06
-4.30551e-07
-1.13035e-06
-2.4315e-06
2.8097e-07
-7.65191e-07
-2.26603e-06
2.79818e-08
-5.7557e-07
-1.27212e-06
-3.82752e-08
-2.54088e-07
-1.09559e-06
-1.41681e-07
-1.27343e-07
-4.3486e-07
-1.87297e-07
-2.1027e-07
-2.20544e-07
-9.13007e-08
-4.40911e-07
5.53513e-08
-4.85643e-08
-6.03657e-07
5.00963e-08
-6.41944e-08
-6.9893e-07
6.21785e-08
-1.25474e-07
-7.13193e-07
-2.58086e-08
-1.91828e-07
-6.78316e-07
-1.13357e-07
-2.43823e-07
-5.99468e-07
-2.20625e-07
-2.77712e-07
-4.91744e-07
-2.88816e-07
-2.94802e-07
-3.70429e-07
-3.36598e-07
-3.00159e-07
-2.58102e-07
-3.44383e-07
-2.92558e-07
-1.59141e-07
-3.49542e-07
-2.83337e-07
-7.97393e-08
-3.43944e-07
-2.71694e-07
-2.07701e-08
-3.33794e-07
-2.62036e-07
1.96408e-08
-3.18192e-07
-2.53879e-07
4.48759e-08
-2.99439e-07
-2.48505e-07
5.72481e-08
-2.77461e-07
-2.45126e-07
6.03717e-08
-2.53713e-07
-2.44236e-07
5.74755e-08
-2.29329e-07
-2.45322e-07
5.16146e-08
-2.04682e-07
-2.48023e-07
4.52526e-08
-1.79475e-07
-2.51946e-07
4.0806e-08
-1.53862e-07
-2.56931e-07
4.03311e-08
-1.28289e-07
-2.62966e-07
4.39441e-08
-1.03602e-07
-2.70001e-07
5.24547e-08
-7.95533e-08
-2.7718e-07
6.55162e-08
-5.29806e-08
-2.83744e-07
8.18076e-08
-2.16902e-08
-2.8885e-07
9.86793e-08
1.26811e-08
-2.91914e-07
1.12704e-07
4.31187e-08
-2.92519e-07
1.2033e-07
6.3552e-08
-2.90464e-07
1.13963e-07
7.68379e-08
-2.83409e-07
8.62937e-08
8.94696e-08
-2.72803e-07
2.63067e-08
1.1431e-07
-2.58242e-07
-7.47322e-08
1.6116e-07
-2.41589e-07
-2.17726e-07
2.33784e-07
-2.23473e-07
-4.01469e-07
3.16866e-07
-2.03666e-07
-6.15349e-07
3.66515e-07
-1.83756e-07
-8.61247e-07
2.93474e-07
-1.70545e-07
-1.25123e-06
7.82899e-08
-1.36808e-07
-1.79363e-06
-2.2171e-07
-5.30048e-08
-2.00904e-06
-6.5158e-07
-1.31252e-08
-1.21902e-06
-1.52388e-06
-1.17452e-07
1.34781e-06
-2.5679e-06
-8.04122e-07
4.97988e-06
-3.93509e-06
-1.8688e-06
3.24853e-06
-9.10018e-06
1.08132e-06
-1.91171e-06
-8.22382e-06
2.96492e-06
-6.86349e-06
-6.85249e-06
2.3128e-06
-9.99885e-06
-9.82167e-06
2.79189e-06
-1.20823e-05
-1.80632e-05
4.8164e-06
-1.13569e-05
-2.05387e-05
3.1582e-06
-1.15268e-06
-2.53007e-05
2.98933e-06
8.85999e-06
-3.33708e-05
3.61352e-07
9.86132e-06
1.83842e-05
1.53415e-05
3.18427e-05
-2.20924e-06
-2.07508e-06
1.09047e-05
-3.22443e-05
-8.60096e-06
-5.36796e-08
-1.12203e-05
4.28512e-06
-6.70802e-06
-1.21593e-05
9.15085e-06
-1.41336e-05
-9.60776e-06
8.17266e-06
-1.49833e-05
-9.20762e-06
8.5054e-07
-1.42841e-05
-3.87498e-06
-1.22497e-06
-1.49951e-05
-9.31944e-07
-5.53936e-07
-1.67461e-05
5.84017e-07
2.9287e-07
-1.7675e-05
-7.13941e-08
2.36144e-07
-1.7511e-05
-2.43376e-06
9.16072e-07
-1.70148e-05
-5.14206e-06
1.82439e-06
-1.75184e-05
-6.43694e-06
2.50952e-06
-1.82842e-05
-7.3542e-06
2.57527e-06
-1.88926e-05
-7.6572e-06
2.13712e-06
-1.90284e-05
-7.17369e-06
1.53139e-06
-1.73949e-05
-5.44067e-06
8.32448e-07
-1.41053e-05
-3.09928e-06
-1.76004e-07
-1.07091e-05
-2.66486e-06
-2.02319e-07
-8.65394e-06
-4.21468e-06
-6.37011e-07
-7.36642e-06
-6.04365e-06
-9.63554e-07
-6.71162e-06
-7.71949e-06
-1.33196e-06
-5.78234e-06
-9.23494e-06
-1.31134e-06
-3.54095e-06
-9.62886e-06
-1.18457e-06
-1.08984e-07
-7.47408e-06
-8.93769e-07
2.56021e-06
-4.65124e-06
3.15877e-07
3.72603e-06
-1.7678e-06
9.58408e-07
3.2553e-06
2.22073e-06
4.76271e-07
2.00614e-06
5.74372e-06
-3.04634e-07
4.58051e-07
6.6938e-06
-5.84615e-07
-3.46415e-06
4.38962e-06
1.44368e-06
-1.01452e-05
1.97593e-06
5.10247e-06
-1.47639e-05
3.43192e-06
3.64473e-06
-1.51377e-05
6.58078e-06
-1.34274e-06
-1.23301e-05
9.14274e-06
-5.48352e-06
-5.89215e-06
1.21367e-05
-1.02552e-05
1.21778e-05
-1.05189e-05
-2.81577e-06
-4.19934e-06
-2.36489e-07
-1.70953e-06
-4.85334e-06
-7.26046e-07
-1.54935e-06
-2.69478e-06
1.12888e-07
-1.11325e-06
-2.57971e-06
-1.18561e-07
-9.3222e-07
-1.34441e-06
-1.03274e-07
-4.83647e-07
-1.30176e-06
-2.37859e-07
-1.50446e-07
-4.85639e-07
-2.76156e-07
-7.44325e-08
-1.62372e-07
-1.30122e-07
-2.04553e-07
2.69145e-07
-8.15057e-08
-3.55954e-07
2.90325e-07
-8.82689e-08
-4.9054e-07
3.51178e-07
-1.5374e-07
-5.8735e-07
2.88892e-07
-2.17518e-07
-6.25527e-07
2.01752e-07
-2.76612e-07
-5.97612e-07
7.2828e-08
-3.21191e-07
-5.20848e-07
-1.44636e-08
-3.50933e-07
-4.20486e-07
-6.55608e-08
-3.71231e-07
-3.24566e-07
-6.02793e-08
-3.79812e-07
-2.38854e-07
-4.88888e-08
-3.86144e-07
-1.61934e-07
-3.06125e-08
-3.90028e-07
-9.59347e-08
-1.0235e-08
-3.8933e-07
-4.30671e-08
1.42285e-08
-3.85062e-07
-3.49246e-09
3.98377e-08
-3.78606e-07
2.36234e-08
6.78504e-08
-3.72178e-07
3.98045e-08
9.73568e-08
-3.66979e-07
4.80306e-08
1.26505e-07
-3.63791e-07
5.1662e-08
1.54678e-07
-3.62696e-07
5.3195e-08
1.82354e-07
-3.63074e-07
5.48494e-08
2.09198e-07
-3.64397e-07
5.83629e-08
2.3473e-07
-3.66225e-07
6.45117e-08
2.58808e-07
-3.68224e-07
7.26931e-08
2.82605e-07
-3.70024e-07
8.11427e-08
3.09701e-07
-3.70793e-07
8.76918e-08
3.4205e-07
-3.69974e-07
9.0423e-08
3.76716e-07
-3.66413e-07
8.66549e-08
4.05927e-07
-3.58686e-07
6.77166e-08
4.28517e-07
-3.45614e-07
2.57986e-08
4.48782e-07
-3.29612e-07
-4.12224e-08
4.72858e-07
-3.15897e-07
-1.35247e-07
5.16279e-07
-3.07467e-07
-2.61204e-07
5.91229e-07
-3.0356e-07
-4.21607e-07
6.94199e-07
-2.99436e-07
-6.06213e-07
7.88647e-07
-2.86458e-07
-8.05162e-07
8.30269e-07
-2.63081e-07
-1.02752e-06
7.65181e-07
-2.43215e-07
-1.36313e-06
6.73723e-07
-2.43237e-07
-1.67446e-06
4.24923e-07
-2.99802e-07
-1.23028e-06
-5.204e-07
-5.1557e-07
5.08921e-07
-2.22582e-06
-9.72734e-07
3.38636e-06
-3.42297e-06
-1.94786e-06
5.99052e-06
-3.76841e-06
-2.60348e-06
2.01716e-06
-5.84362e-06
9.16007e-07
-3.16078e-06
-4.73968e-06
1.78751e-06
-6.88142e-06
-3.04931e-06
-1.26528e-07
-1.10921e-05
-9.25678e-06
3.5807e-06
-1.51634e-05
-1.96177e-05
5.70041e-06
-1.61301e-05
-2.33181e-05
3.54103e-06
-1.81924e-05
-2.34576e-05
2.02094e-06
-1.94428e-05
-3.82188e-05
4.71196e-06
1.87445e-05
-1.58296e-05
1.6618e-05
3.78106e-05
-3.59992e-06
-4.6454e-06
7.22489e-06
-2.58183e-05
-9.4272e-06
-7.10689e-06
-5.84213e-06
6.21567e-06
-1.74727e-05
-6.66422e-06
4.86653e-06
-2.26143e-05
-5.82474e-06
1.35864e-06
-2.20669e-05
-4.98243e-06
-4.77269e-06
-1.87497e-05
-1.16815e-06
-6.02418e-06
-1.72271e-05
1.99014e-06
-4.44467e-06
-1.62025e-05
2.82282e-06
-3.26336e-06
-1.61375e-05
1.42561e-06
-1.56208e-06
-1.82276e-05
-1.23689e-07
-2.19932e-07
-2.31395e-05
-2.04795e-06
1.81782e-06
-2.87136e-05
-3.97852e-06
3.11568e-06
-3.19517e-05
-6.41576e-06
2.29976e-06
-3.28217e-05
-8.00035e-06
1.21316e-06
-3.16801e-05
-8.22611e-06
-8.92249e-08
-2.91718e-05
-6.85879e-06
-1.09017e-06
-2.5151e-05
-5.21415e-06
-1.9059e-06
-2.07897e-05
-4.34146e-06
-2.68472e-06
-1.74673e-05
-3.96042e-06
-3.57661e-06
-1.55237e-05
-4.45556e-06
-3.53171e-06
-1.47154e-05
-5.88705e-06
-2.64076e-06
-1.41114e-05
-8.20658e-06
-1.63232e-06
-1.28425e-05
-9.986e-06
-9.11749e-07
-1.01179e-05
-1.05724e-05
3.73798e-07
-6.63254e-06
-9.64726e-06
1.51064e-06
-3.29289e-06
-6.61121e-06
1.50375e-06
-1.09761e-06
-1.2333e-06
1.25875e-06
-1.55871e-07
4.19238e-06
6.09595e-07
-6.70633e-07
6.41596e-06
7.92607e-07
-2.86378e-06
4.544e-06
2.03876e-06
-7.78432e-06
2.87875e-06
4.01772e-06
-1.26527e-05
4.38649e-06
3.91381e-06
-1.30229e-05
8.00137e-06
-1.05039e-06
-1.08091e-05
1.14627e-05
-4.53376e-06
-5.36728e-06
1.60078e-05
-9.31301e-06
1.70863e-05
-1.02758e-05
-3.11274e-06
-4.10692e-06
-7.43475e-08
-1.87403e-06
-5.07895e-06
-1.00397e-06
-1.69477e-06
-2.94222e-06
7.92846e-08
-1.17089e-06
-3.00003e-06
-9.87971e-08
-1.00154e-06
-1.41312e-06
-9.45068e-08
-5.74116e-07
-1.44466e-06
-2.80421e-07
-2.50617e-07
-4.91921e-07
-3.11138e-07
-1.63376e-08
-1.65911e-07
-2.26018e-07
7.78657e-08
3.62438e-07
-1.84458e-07
-3.75122e-08
5.33578e-07
-1.26895e-07
-2.20794e-07
6.71291e-07
-1.35967e-07
-4.21539e-07
6.52558e-07
-1.62631e-07
-5.48207e-07
5.34244e-07
-2.05603e-07
-5.77661e-07
3.55369e-07
-2.53063e-07
-5.23946e-07
2.21684e-07
-2.89843e-07
-4.28513e-07
1.60345e-07
-3.21371e-07
-3.37563e-07
1.88973e-07
-3.40181e-07
-2.60166e-07
2.30935e-07
-3.57228e-07
-1.90507e-07
2.72867e-07
-3.73116e-07
-1.24699e-07
3.0891e-07
-3.84957e-07
-6.69568e-08
3.46596e-07
-3.90085e-07
-1.85172e-08
3.82269e-07
-3.90876e-07
1.92584e-08
4.1869e-07
-3.88603e-07
4.61255e-08
4.54504e-07
-3.84023e-07
6.39762e-08
4.87589e-07
-3.78919e-07
7.58048e-08
5.17271e-07
-3.74426e-07
8.41568e-08
5.44146e-07
-3.70118e-07
9.10497e-08
5.68156e-07
-3.65839e-07
9.80759e-08
5.89056e-07
-3.61301e-07
1.04656e-07
6.08284e-07
-3.56013e-07
1.09474e-07
6.27498e-07
-3.49614e-07
1.11629e-07
6.49849e-07
-3.42206e-07
1.07749e-07
6.79117e-07
-3.33027e-07
9.45027e-08
7.11785e-07
-3.21661e-07
6.92114e-08
7.39925e-07
-3.0848e-07
2.57472e-08
7.653e-07
-2.93091e-07
-4.25928e-08
7.96273e-07
-2.7885e-07
-1.41259e-07
8.42322e-07
-2.70492e-07
-2.71828e-07
9.15306e-07
-2.68046e-07
-4.25939e-07
1.01232e-06
-2.66544e-07
-5.8969e-07
1.11431e-06
-2.55785e-07
-7.57741e-07
1.18245e-06
-2.24904e-07
-9.4021e-07
1.18581e-06
-1.70856e-07
-1.13129e-06
1.10386e-06
-1.41662e-07
-1.38114e-06
1.1235e-06
-1.84881e-07
-1.5732e-06
9.78867e-07
-3.28557e-07
-1.1029e-06
-2.09088e-07
-7.25252e-07
4.7642e-07
-2.31013e-06
-1.43395e-06
3.16346e-06
-3.36046e-06
-2.65857e-06
5.1661e-06
-2.53222e-06
-3.03619e-06
1.52831e-06
-1.15421e-06
-7.80721e-07
-4.10855e-06
7.84983e-07
1.53665e-07
-1.01121e-05
4.58472e-07
2.48428e-06
-1.41298e-05
-9.12228e-06
3.80006e-06
-1.97031e-05
-1.7036e-05
3.14791e-06
-2.2868e-05
-2.2144e-05
1.73262e-06
-2.16404e-05
-2.00853e-05
-1.68238e-06
-2.31494e-05
-4.01074e-05
2.52313e-06
2.74003e-05
-4.37837e-05
1.52055e-06
4.27477e-05
-4.0661e-06
-4.57082e-06
6.42018e-06
-1.33289e-05
-1.37705e-05
-8.41274e-06
2.52293e-06
4.27299e-06
-2.15839e-05
2.07425e-06
4.4298e-06
-2.93763e-05
-1.39426e-06
3.36111e-06
-3.20009e-05
-1.96136e-06
-3.97626e-07
-3.21195e-05
9.75774e-08
-1.14792e-06
-3.29582e-05
2.43764e-06
3.91221e-07
-3.48389e-05
3.45929e-06
1.24529e-06
-3.81319e-05
1.94776e-06
2.7722e-06
-4.04694e-05
-1.19555e-06
3.41076e-06
-4.1395e-05
-4.08658e-06
2.96498e-06
-4.16957e-05
-6.32921e-06
2.65166e-06
-4.19799e-05
-8.4411e-06
2.30941e-06
-4.1763e-05
-9.01021e-06
7.92517e-07
-4.05023e-05
-8.30553e-06
-1.18174e-06
-3.83291e-05
-6.70768e-06
-2.32445e-06
-3.57111e-05
-5.56105e-06
-2.2708e-06
-3.33003e-05
-5.59589e-06
-1.15597e-06
-3.04834e-05
-6.72219e-06
-5.48004e-08
-2.73525e-05
-8.81002e-06
1.22341e-06
-2.4086e-05
-1.14096e-05
2.25548e-06
-2.13026e-05
-1.36957e-05
2.70498e-06
-1.88906e-05
-1.50141e-05
2.61556e-06
-1.66944e-05
-1.51178e-05
2.34877e-06
-1.39006e-05
-1.41866e-05
1.74537e-06
-1.02277e-05
-1.10072e-05
7.23035e-07
-6.25328e-06
-5.41854e-06
2.10817e-07
-3.75102e-06
1.05811e-06
6.32014e-07
-2.25188e-06
3.37965e-06
1.53716e-06
-2.72093e-06
2.73237e-06
2.28069e-06
-5.7497e-06
2.8136e-06
3.09392e-06
-9.66543e-06
4.6137e-06
3.68852e-06
-1.02197e-05
9.11589e-06
-5.60218e-07
-8.20122e-06
1.35399e-05
-4.09567e-06
-3.98548e-06
1.97224e-05
-7.93033e-06
2.32177e-05
-1.01168e-05
-3.33456e-06
-3.82872e-06
1.54036e-07
-1.98888e-06
-5.20169e-06
-1.21521e-06
-1.7731e-06
-3.21991e-06
7.32443e-08
-1.10386e-06
-3.44949e-06
-2.13185e-07
-8.6364e-07
-1.57425e-06
-7.14346e-08
-6.05186e-07
-1.39131e-06
-3.08393e-07
-4.36463e-07
-3.45823e-07
-3.09308e-07
-1.46881e-07
-1.24898e-07
-3.25489e-07
1.72981e-07
3.52038e-07
-3.05358e-07
2.04602e-07
6.92893e-07
-1.89014e-07
5.22626e-08
9.72533e-07
-1.47541e-07
-2.33185e-07
1.05638e-06
-1.17583e-07
-4.46589e-07
8.98557e-07
-1.50337e-07
-5.089e-07
6.17023e-07
-1.99077e-07
-4.663e-07
4.3486e-07
-2.55473e-07
-3.76209e-07
3.70767e-07
-3.00233e-07
-2.91219e-07
4.26005e-07
-3.21679e-07
-2.29876e-07
5.08369e-07
-3.38382e-07
-1.82171e-07
5.80159e-07
-3.54574e-07
-1.38032e-07
6.32969e-07
-3.6775e-07
-9.67492e-08
6.80007e-07
-3.74251e-07
-5.81921e-08
7.19438e-07
-3.7526e-07
-2.30894e-08
7.55971e-07
-3.71937e-07
6.73239e-09
7.9035e-07
-3.65191e-07
3.04964e-08
8.21276e-07
-3.56994e-07
4.75015e-08
8.49157e-07
-3.48395e-07
5.81571e-08
8.73248e-07
-3.3928e-07
6.43129e-08
8.92364e-07
-3.29843e-07
6.7601e-08
9.0641e-07
-3.20142e-07
6.86837e-08
9.17586e-07
-3.09841e-07
6.76784e-08
9.28679e-07
-2.99655e-07
6.28296e-08
9.44659e-07
-2.89388e-07
4.91915e-08
9.71572e-07
-2.7826e-07
2.222e-08
1.00614e-06
-2.66766e-07
-2.13583e-08
1.03962e-06
-2.55522e-07
-8.47375e-08
1.07411e-06
-2.44768e-07
-1.67078e-07
1.11588e-06
-2.36619e-07
-2.69137e-07
1.17735e-06
-2.32253e-07
-3.95407e-07
1.27089e-06
-2.28577e-07
-5.38133e-07
1.37801e-06
-2.2213e-07
-6.80759e-07
1.46084e-06
-2.02978e-07
-7.96675e-07
1.45738e-06
-1.57782e-07
-8.91859e-07
1.37277e-06
-8.92733e-08
-1.00695e-06
1.29211e-06
-6.70028e-08
-1.22837e-06
1.442e-06
-8.18523e-08
-1.4281e-06
1.42782e-06
-2.14551e-07
-1.18969e-06
3.03147e-07
-6.92471e-07
-8.353e-08
-1.84104e-06
-1.50894e-06
2.68324e-06
-3.33061e-06
-2.72091e-06
5.57798e-06
-2.27784e-06
-2.95612e-06
3.59469e-06
2.30048e-06
-1.10648e-06
-6.76821e-07
5.69176e-06
-4.18347e-07
-5.54185e-06
4.73213e-06
5.89122e-07
-1.3278e-05
-3.90729e-06
2.39934e-06
-2.22588e-05
-7.27167e-06
-7.12805e-07
-2.48928e-05
-1.66508e-05
-3.73083e-06
-1.06446e-06
-3.03395e-05
-8.46387e-06
-7.51618e-07
-3.84552e-05
-2.40481e-06
3.02058e-05
-3.81875e-05
-1.23733e-05
4.2566e-05
-2.38096e-06
-3.96221e-06
5.53742e-06
1.07108e-06
-1.58326e-05
-5.34243e-06
8.89457e-06
2.55419e-06
-1.80817e-05
1.01133e-05
4.69192e-06
-2.92834e-05
5.25989e-06
4.5386e-06
-3.33323e-05
9.21241e-07
1.16032e-06
-3.44961e-05
1.02612e-06
2.34996e-07
-3.42972e-05
1.86673e-06
3.7761e-07
-3.42298e-05
2.56094e-06
8.41369e-07
-3.55419e-05
1.77951e-06
1.49317e-06
-3.79685e-05
-5.7366e-07
1.81711e-06
-3.92625e-05
-4.07842e-06
1.28908e-06
-4.03182e-05
-6.52161e-06
1.24489e-06
-4.22603e-05
-7.99966e-06
1.49499e-06
-4.37609e-05
-8.4288e-06
9.11785e-07
-4.35894e-05
-8.32212e-06
-1.6232e-07
-4.19932e-05
-7.77447e-06
-5.34823e-07
-3.9443e-05
-7.09493e-06
-1.0178e-06
-3.63044e-05
-7.3733e-06
-1.36107e-06
-3.26554e-05
-8.77908e-06
-1.59566e-06
-2.90025e-05
-1.09378e-05
-1.5342e-06
-2.58413e-05
-1.36529e-05
-9.32568e-07
-2.33096e-05
-1.56832e-05
-5.63218e-07
-2.1051e-05
-1.67874e-05
-5.05182e-07
-1.85437e-05
-1.71255e-05
-5.17585e-07
-1.65309e-05
-1.62258e-05
1.20009e-08
-1.49348e-05
-1.35793e-05
9.67086e-07
-1.22426e-05
-9.43835e-06
1.32365e-06
-9.35962e-06
-3.61645e-06
1.79134e-06
-7.50422e-06
-8.93699e-07
2.41794e-06
-6.63429e-06
1.23292e-08
1.85004e-06
-8.01599e-06
1.91476e-06
2.28047e-06
-9.91826e-06
4.4693e-06
2.04654e-06
-9.6208e-06
9.76615e-06
-9.47898e-07
-7.82699e-06
1.59142e-05
-4.16836e-06
-4.38459e-06
2.4201e-05
-7.92108e-06
2.85566e-05
-9.72356e-06
-3.60463e-06
-3.34523e-06
4.69747e-07
-2.22885e-06
-5.17012e-06
-1.40164e-06
-1.92782e-06
-3.37731e-06
-1.34193e-07
-9.12368e-07
-3.81553e-06
-6.40875e-07
-4.07614e-07
-1.98275e-06
-8.72127e-08
-4.16004e-07
-1.11929e-06
-2.6011e-07
-4.5771e-07
-2.28986e-08
-2.76219e-07
-2.98988e-07
9.55634e-08
-3.74274e-07
6.4695e-08
4.04712e-07
-4.12407e-07
2.0039e-07
8.3682e-07
-2.77784e-07
1.42084e-07
1.21838e-06
-1.86334e-07
-1.38707e-07
1.42208e-06
-8.43276e-08
-3.53907e-07
1.22537e-06
-1.11513e-07
-4.12305e-07
8.6281e-07
-1.87667e-07
-3.82395e-07
6.64305e-07
-2.59556e-07
-3.07399e-07
6.03824e-07
-3.08298e-07
-2.31118e-07
6.75719e-07
-3.26208e-07
-1.81791e-07
7.90117e-07
-3.31346e-07
-1.54366e-07
8.87204e-07
-3.34701e-07
-1.37188e-07
9.53676e-07
-3.38144e-07
-1.25805e-07
1.007e-06
-3.38588e-07
-1.14553e-07
1.0449e-06
-3.36931e-07
-1.00966e-07
1.07435e-06
-3.32139e-07
-8.64277e-08
1.10009e-06
-3.24469e-07
-7.32547e-08
1.12217e-06
-3.14216e-07
-6.26975e-08
1.13997e-06
-3.01531e-07
-5.57679e-08
1.15519e-06
-2.88974e-07
-5.3717e-08
1.16695e-06
-2.76744e-07
-5.61109e-08
1.17458e-06
-2.65834e-07
-6.07975e-08
1.17856e-06
-2.56347e-07
-6.74419e-08
1.18299e-06
-2.47673e-07
-8.01426e-08
1.19671e-06
-2.39372e-07
-1.07595e-07
1.22862e-06
-2.29551e-07
-1.53089e-07
1.27017e-06
-2.18491e-07
-2.16109e-07
1.31126e-06
-2.0848e-07
-2.9302e-07
1.3526e-06
-2.01404e-07
-3.70385e-07
1.39417e-06
-2.00656e-07
-4.34647e-07
1.44572e-06
-2.03808e-07
-4.88006e-07
1.52596e-06
-2.01305e-07
-5.49902e-07
1.6282e-06
-1.87842e-07
-6.28842e-07
1.70766e-06
-1.67273e-07
-6.80179e-07
1.66108e-06
-1.5154e-07
-6.78264e-07
1.51723e-06
-1.44436e-07
-7.03198e-07
1.44394e-06
-1.21235e-07
-8.61852e-07
1.70469e-06
-8.92264e-08
-1.04363e-06
1.84617e-06
-2.02548e-07
-8.50221e-07
9.08139e-07
-7.40456e-07
2.49618e-07
-1.24841e-06
-1.62461e-06
2.94175e-06
-3.44161e-06
-2.52061e-06
6.27187e-06
-2.52394e-06
-2.95485e-06
5.64941e-06
4.64305e-06
-1.39226e-06
3.28728e-06
8.96097e-06
-6.6107e-07
-4.14918e-06
9.90513e-06
2.23029e-06
-1.62597e-05
3.87351e-06
4.19294e-06
-2.52472e-05
1.35267e-06
4.90989e-07
-2.53981e-05
-1.20925e-05
-4.93037e-06
-1.54251e-05
-3.182e-05
-5.70177e-06
-1.68023e-05
-4.08311e-05
2.71033e-06
3.25299e-05
-4.75702e-05
-1.22977e-05
4.39007e-05
3.89868e-07
-4.4826e-06
5.06966e-06
1.79874e-05
-1.73361e-05
-1.6657e-06
1.07355e-05
2.56646e-06
-7.74428e-06
1.02863e-05
5.91494e-06
-1.78465e-05
7.86043e-06
7.49823e-06
-2.27451e-05
2.15605e-06
3.67287e-06
-2.55731e-05
2.05118e-06
1.82051e-06
-2.63247e-05
1.46645e-06
1.18286e-06
-2.59682e-05
1.46406e-06
7.73202e-07
-2.67251e-05
1.4786e-06
1.08869e-06
-2.98967e-05
9.99185e-07
1.62066e-06
-3.37389e-05
-2.02049e-06
1.79375e-06
-3.7389e-05
-4.56753e-06
1.68802e-06
-4.18129e-05
-5.09311e-06
1.51131e-06
-4.60682e-05
-4.88468e-06
7.11953e-07
-4.82316e-05
-5.71122e-06
-4.65695e-07
-4.78077e-05
-6.88505e-06
-1.34354e-06
-4.52458e-05
-7.55076e-06
-2.14488e-06
-4.16619e-05
-8.67944e-06
-2.32469e-06
-3.73018e-05
-1.06457e-05
-2.54879e-06
-3.2972e-05
-1.31392e-05
-2.18942e-06
-2.94659e-05
-1.55674e-05
-1.64792e-06
-2.63852e-05
-1.7537e-05
-1.28282e-06
-2.3609e-05
-1.8773e-05
-8.47589e-07
-2.09414e-05
-1.96736e-05
-1.84206e-07
-1.88979e-05
-1.91161e-05
7.63345e-07
-1.77866e-05
-1.63636e-05
1.57198e-06
-1.72523e-05
-1.20675e-05
1.99891e-06
-1.50786e-05
-7.53391e-06
1.66911e-06
-1.29735e-05
-3.68946e-06
6.43784e-07
-1.16211e-05
-1.31312e-06
-5.77602e-08
-1.10405e-05
1.40471e-06
-9.43233e-08
-1.11657e-05
5.21826e-06
-6.48569e-07
-9.76872e-06
1.04409e-05
-2.09996e-06
-7.76856e-06
1.74289e-05
-3.53964e-06
-4.34822e-06
2.6317e-05
-5.54944e-06
3.03109e-05
-6.11776e-06
-3.73036e-06
-2.68694e-06
1.07591e-06
-2.57114e-06
-4.94801e-06
-1.37788e-06
-2.3313e-06
-3.42737e-06
-1.81994e-07
-9.95785e-07
-4.23935e-06
-9.00018e-07
4.99117e-08
-2.94713e-06
-7.03594e-08
-4.04042e-08
-9.5977e-07
-6.49171e-08
-2.5258e-07
3.42234e-07
-1.48252e-07
-3.34327e-07
4.41121e-07
-2.58823e-07
-1.79474e-07
7.09603e-07
-4.55026e-07
-5.1604e-08
1.03997e-06
-3.28592e-07
4.08428e-08
1.38999e-06
-2.62246e-07
1.30851e-08
1.6099e-06
-1.59258e-07
-1.13116e-08
1.46368e-06
-2.13462e-07
-4.34199e-08
1.17982e-06
-2.84874e-07
-8.08511e-08
1.06564e-06
-3.63749e-07
-1.23148e-07
1.06831e-06
-4.22065e-07
-1.58773e-07
1.17102e-06
-4.59513e-07
-1.89563e-07
1.30057e-06
-4.79497e-07
-2.18707e-07
1.40639e-06
-4.89843e-07
-2.32834e-07
1.46477e-06
-4.96811e-07
-2.39702e-07
1.51256e-06
-4.98588e-07
-2.4064e-07
1.54491e-06
-4.99004e-07
-2.35891e-07
1.5672e-06
-4.97594e-07
-2.26889e-07
1.58544e-06
-4.94363e-07
-2.17186e-07
1.60141e-06
-4.89015e-07
-2.08881e-07
1.61497e-06
-4.83407e-07
-2.03633e-07
1.62678e-06
-4.7701e-07
-2.02014e-07
1.6358e-06
-4.70641e-07
-2.05013e-07
1.64191e-06
-4.64524e-07
-2.1066e-07
1.64344e-06
-4.59413e-07
-2.19683e-07
1.64651e-06
-4.54699e-07
-2.40891e-07
1.66628e-06
-4.48531e-07
-2.82324e-07
1.70874e-06
-4.38845e-07
-3.43105e-07
1.75966e-06
-4.28816e-07
-4.12657e-07
1.80166e-06
-4.20972e-07
-4.79181e-07
1.83612e-06
-4.1706e-07
-5.26427e-07
1.86095e-06
-4.1961e-07
-5.45496e-07
1.88926e-06
-4.24497e-07
-5.3389e-07
1.93637e-06
-4.21998e-07
-5.04368e-07
2.009e-06
-4.10272e-07
-4.77586e-07
2.08014e-06
-3.99095e-07
-4.3612e-07
2.03503e-06
-4.14989e-07
-3.37822e-07
1.87815e-06
-4.57743e-07
-2.13208e-07
1.80584e-06
-4.81178e-07
-2.20807e-07
2.19026e-06
-4.63704e-07
-3.12768e-07
2.5564e-06
-5.85722e-07
4.12661e-08
1.8863e-06
-1.27002e-06
1.60566e-06
-4.22857e-07
-2.29928e-06
4.35117e-06
-2.82005e-06
-3.29231e-06
7.63107e-06
-2.76623e-06
-2.92359e-06
9.57277e-06
4.727e-06
-1.79345e-06
7.51546e-06
1.16814e-05
-3.02742e-07
3.45398e-06
1.2449e-05
1.74349e-06
-5.2254e-06
8.68162e-06
3.78972e-06
-1.63601e-05
9.15743e-06
3.34404e-06
-2.35395e-05
-6.3437e-07
-4.59723e-06
-3.75613e-05
-8.26449e-06
-8.28019e-06
-4.2262e-05
-2.68399e-05
-1.14303e-05
3.93552e-05
-7.12016e-05
-2.26584e-05
4.92489e-05
5.02562e-06
-5.0873e-06
1.30966e-06
3.95481e-05
-1.92162e-05
-9.6321e-06
9.24917e-06
9.95866e-06
-2.55745e-05
1.50942e-05
1.12755e-05
-4.03085e-05
1.22936e-05
1.0384e-05
-4.68415e-05
6.58885e-06
2.14081e-06
-4.82053e-05
4.58518e-06
-1.13559e-06
-4.65289e-05
2.42899e-06
-2.63392e-06
-4.47745e-05
2.05439e-06
-2.33474e-06
-4.41029e-05
2.0622e-06
-1.23425e-06
-4.44561e-05
2.31975e-06
-9.41059e-07
-4.62327e-05
1.66547e-06
-1.89828e-06
-4.85261e-05
2.06191e-07
-2.50505e-06
-5.10382e-05
-3.80004e-07
-2.22812e-06
-5.30984e-05
-6.45304e-07
-2.18972e-06
-5.45423e-05
-1.18384e-06
-3.14154e-06
-5.42093e-05
-2.75941e-06
-4.56518e-06
-5.17285e-05
-4.77315e-06
-5.38077e-06
-4.80486e-05
-6.88299e-06
-5.62819e-06
-4.37001e-05
-9.40727e-06
-5.75995e-06
-3.93985e-05
-1.20436e-05
-5.59801e-06
-3.55711e-05
-1.4999e-05
-4.56896e-06
-3.22166e-05
-1.77627e-05
-3.26601e-06
-2.92383e-05
-1.98821e-05
-1.93685e-06
-2.7445e-05
-2.0917e-05
-5.5656e-07
-2.6408e-05
-2.05938e-05
4.80703e-07
-2.64959e-05
-1.74487e-05
1.2186e-06
-2.81125e-05
-1.26828e-05
2.31482e-06
-2.90318e-05
-8.47799e-06
1.94993e-06
-3.00116e-05
-4.08479e-06
1.45038e-06
-3.15718e-05
-3.3913e-07
6.50109e-07
-3.15308e-05
2.05792e-06
-6.71347e-07
-2.98615e-05
5.0019e-06
-1.44646e-06
-2.63165e-05
9.51825e-06
-2.7062e-06
-2.05471e-05
1.53442e-05
-3.9254e-06
-1.05693e-05
2.11243e-05
-5.35112e-06
2.27066e-05
-5.26277e-06
-3.49403e-06
-1.23734e-06
2.1948e-06
-2.9081e-06
-4.6829e-06
-8.54358e-07
-3.08429e-06
-3.30042e-06
5.50283e-08
-1.70468e-06
-4.55647e-06
-1.05001e-06
-2.51843e-07
-3.98774e-06
-3.96845e-07
2.19633e-07
-1.5781e-06
1.53858e-07
3.32811e-09
8.57158e-08
4.76008e-07
-2.74196e-07
2.47106e-07
4.76292e-07
-2.51643e-07
6.54855e-07
3.72511e-08
-1.47279e-07
8.60787e-07
7.72704e-08
4.23252e-08