/*--------------------------------*- C++ -*----------------------------------*\
| =========                 |                                                 |
| \\      /  F ield         | OpenFOAM: The Open Source CFD Toolbox           |
|  \\    /   O peration     | Version:  2.3.0                                 |
|   \\  /    A nd           | Web:      www.OpenFOAM.org                      |
|    \\/     M anipulation  |                                                 |
\*---------------------------------------------------------------------------*/
FoamFile
{
    version     2.0;
    format      ascii;
    class       surfaceScalarField;
    location    "29";
    object      phi.air;
}
// * * * * * * * * * * * * * * * * * * * * * * * * * * * * * * * * * * * * * //

dimensions      [0 3 -1 0 0 0 0];

internalField   nonuniform List<scalar> 
16448
(
-1.03149e-06
-2.56399e-06
5.88274e-07
5.00321e-07
-2.46088e-06
9.2907e-07
5.78064e-07
-1.25681e-06
1.17907e-06
5.90559e-07
-1.16798e-06
1.1555e-06
3.49551e-07
-7.60742e-07
1.00177e-06
1.36147e-07
-6.75803e-07
8.89226e-07
-1.34819e-07
-4.43637e-07
7.14619e-07
-3.1048e-07
-4.0544e-07
5.81113e-07
-4.85714e-07
-3.33762e-07
5.09003e-07
-6.64527e-07
-2.84607e-07
4.63422e-07
-7.76867e-07
-2.89646e-07
4.01984e-07
-7.70337e-07
-3.40952e-07
3.34419e-07
-6.76949e-07
-4.0141e-07
3.0802e-07
-5.22476e-07
-4.49036e-07
2.94563e-07
-3.7111e-07
-4.70468e-07
3.19098e-07
-2.32749e-07
-4.84643e-07
3.46279e-07
-1.35259e-07
-4.86826e-07
3.89328e-07
-6.25303e-08
-4.95967e-07
4.23231e-07
-1.58688e-08
-5.03793e-07
4.57121e-07
1.25925e-08
-5.07349e-07
4.78879e-07
2.50838e-08
-5.0697e-07
4.94468e-07
2.72405e-08
-5.03281e-07
5.01114e-07
2.27423e-08
-4.97247e-07
5.01734e-07
1.4821e-08
-4.89279e-07
4.97191e-07
5.78235e-09
-4.79825e-07
4.88854e-07
-2.48033e-09
-4.6955e-07
4.77804e-07
-8.6487e-09
-4.58859e-07
4.65018e-07
-1.2475e-08
-4.47626e-07
4.51444e-07
-1.38549e-08
-4.3615e-07
4.37522e-07
-1.37529e-08
-4.24407e-07
4.24298e-07
-1.05102e-08
-4.15166e-07
4.11916e-07
-7.36816e-09
-4.05022e-07
4.01874e-07
-3.64887e-09
-3.96159e-07
3.92433e-07
-4.71591e-09
-3.84355e-07
3.85417e-07
-4.28334e-09
-3.75999e-07
3.75561e-07
-9.52885e-09
-3.62714e-07
3.67956e-07
-8.78524e-09
-3.54366e-07
3.53618e-07
-1.32252e-08
-3.38884e-07
3.4332e-07
-5.1514e-10
-3.33883e-07
3.2117e-07
2.19028e-09
-3.15025e-07
3.12318e-07
3.15388e-08
-3.20058e-07
2.90706e-07
3.35806e-08
-2.9363e-07
2.91587e-07
5.82665e-08
-3.14024e-07
2.89336e-07
1.87522e-08
-2.70291e-07
3.09805e-07
1.24563e-08
-3.18198e-07
3.24492e-07
-8.14309e-08
-2.56249e-07
3.50137e-07
-1.15652e-07
-3.23511e-07
3.57732e-07
-1.75099e-07
-2.8563e-07
3.45079e-07
-6.44309e-08
-4.03425e-07
2.92758e-07
-2.32084e-07
-2.9873e-07
4.66385e-07
-1.40169e-08
-7.38694e-07
5.20627e-07
2.03468e-08
-1.15032e-06
1.11596e-06
-9.74753e-07
-1.00646e-06
2.00154e-06
-2.20508e-06
-1.41517e-06
2.6455e-06
-7.5674e-07
-4.52814e-06
3.07978e-06
2.68712e-07
-5.59504e-06
4.56955e-06
-3.15909e-06
1.55012e-06
1.87697e-06
-3.82539e-06
1.8588e-07
4.79055e-07
-4.43565e-06
-1.38932e-06
1.61313e-06
-3.04446e-05
-1.42432e-05
9.99293e-06
-6.30342e-05
-1.46831e-05
3.44473e-06
-1.54003e-05
-7.58462e-06
6.2514e-06
2.46747e-05
-4.60913e-06
4.63276e-06
2.75129e-05
-6.8933e-06
3.79873e-06
3.00708e-05
-5.81264e-06
3.06192e-06
3.1031e-05
-3.55569e-06
2.60695e-06
3.08706e-05
-2.14116e-06
2.32048e-06
2.98678e-05
-1.16838e-06
2.16041e-06
2.81202e-05
-2.91428e-07
2.03189e-06
2.55409e-05
7.55755e-07
1.81924e-06
2.22239e-05
1.72662e-06
1.57561e-06
1.82782e-05
2.55296e-06
1.3718e-06
1.41078e-05
2.96585e-06
1.16925e-06
9.96786e-06
3.09656e-06
1.00916e-06
6.35476e-06
2.99926e-06
6.15005e-07
4.44609e-06
2.22522e-06
-2.91023e-07
4.67519e-06
1.15063e-06
-1.39298e-06
5.95654e-06
6.44509e-07
-1.94191e-06
7.40224e-06
6.25751e-07
-2.06725e-06
8.53184e-06
9.0807e-07
-2.03544e-06
9.27718e-06
1.29909e-06
-2.04218e-06
9.68713e-06
1.69197e-06
-2.09749e-06
9.80632e-06
1.99699e-06
-2.10947e-06
9.75902e-06
2.12477e-06
-2.07248e-06
9.65215e-06
2.04484e-06
-1.92886e-06
9.668e-06
1.80709e-06
-1.81699e-06
1.00142e-05
1.31446e-06
-1.65275e-06
1.09668e-05
8.20813e-07
-1.78116e-06
1.24101e-05
3.10041e-07
-1.76167e-06
1.41202e-05
-1.80803e-07
-1.53951e-06
1.47183e-05
4.88942e-07
-1.08081e-06
1.36958e-05
1.20273e-06
-1.62197e-07
1.17013e-05
2.04891e-06
-4.79944e-08
7.07003e-06
3.22861e-06
1.41749e-06
1.39397e-06
4.0294e-06
1.88221e-06
4.5016e-06
-2.02853e-06
-2.24126e-06
-3.84616e-06
-7.71799e-09
-1.23204e-06
-3.78913e-06
3.19046e-07
-9.36268e-07
-2.40632e-06
8.53776e-07
-4.93291e-07
-2.10699e-06
4.96068e-07
-2.66516e-07
-1.33e-06
3.4252e-07
-1.24583e-07
-1.02021e-06
2.02506e-07
-1.85149e-07
-4.54666e-07
7.16253e-08
-3.75829e-07
-2.87608e-07
7.28678e-08
-6.66187e-07
-1.4313e-07
9.97357e-08
-9.04805e-07
-1.38003e-07
9.20184e-08
-1.01285e-06
-2.18715e-07
3.71146e-08
-9.79116e-07
-3.44273e-07
-3.04127e-08
-8.71868e-07
-4.48991e-07
-5.96671e-08
-7.09093e-07
-5.34334e-07
-7.74763e-08
-5.382e-07
-5.75629e-07
-6.57333e-08
-3.76602e-07
-5.97425e-07
-4.8824e-08
-2.51401e-07
-5.92877e-07
-1.91598e-08
-1.55384e-07
-5.96045e-07
4.04723e-09
-8.82257e-08
-5.92581e-07
2.1617e-08
-4.34203e-08
-5.87146e-07
3.49767e-08
-1.9501e-08
-5.75959e-07
4.50554e-08
-9.57064e-09
-5.62331e-07
4.91058e-08
-8.96589e-09
-5.46918e-07
4.90519e-08
-1.39037e-08
-5.3038e-07
4.60245e-08
-2.10898e-08
-5.1306e-07
4.04078e-08
-2.81389e-08
-4.95509e-07
3.29953e-08
-3.37611e-08
-4.77885e-07
2.46363e-08
-3.75531e-08
-4.59863e-07
1.60179e-08
-3.93683e-08
-4.41919e-07
7.57362e-09
-4.0027e-08
-4.23258e-07
-5.00221e-10
-3.65082e-08
-4.06933e-07
-1.17606e-08
-3.25917e-08
-3.8833e-07
-2.06165e-08
-2.74948e-08
-3.72458e-07
-2.88044e-08
-2.69375e-08
-3.49553e-07
-3.53656e-08
-2.36515e-08
-3.3498e-07
-4.43094e-08
-2.63438e-08
-3.08993e-07
-5.10336e-08
-2.05332e-08
-2.9727e-07
-6.29095e-08
-2.11707e-08
-2.67784e-07
-7.04645e-08
-2.53687e-09
-2.65231e-07
-8.72872e-08
2.71895e-10
-2.28847e-07
-8.89883e-08
2.90552e-08
-2.44097e-07
-1.04744e-07
1.03619e-08
-1.83539e-07
-9.13969e-08
2.37e-08
-2.25907e-07
-1.01453e-07
-4.88112e-08
-1.28005e-07
-6.97726e-08
-7.60067e-08
-2.10609e-07
-8.03898e-08
-1.67694e-07
-1.01638e-07
-6.29198e-08
-1.60425e-07
-2.48605e-07
-8.2169e-08
-1.97262e-07
-1.54769e-07
-9.40188e-08
-8.6322e-08
-4.0652e-07
-1.07839e-07
-2.03999e-07
-1.43805e-07
-3.72405e-08
1.21344e-07
-1.02529e-06
-3.87364e-08
-6.13709e-07
-1.21979e-06
8.04528e-07
-9.02554e-07
-1.53784e-06
8.20218e-07
-8.47906e-07
-2.55007e-06
1.08025e-06
-3.71219e-07
-5.97093e-06
9.66089e-07
1.86571e-06
-9.74128e-06
1.90924e-06
-3.79366e-06
7.56851e-06
-3.59925e-07
-1.09833e-05
6.14244e-06
1.23081e-06
-9.17826e-06
-6.06768e-07
-2.93077e-06
-3.0743e-05
-2.84531e-05
4.89813e-06
-7.3071e-05
-2.17826e-05
1.30014e-06
-2.7939e-05
-1.25236e-05
3.91274e-06
1.68893e-05
-1.28523e-05
3.28599e-06
2.10465e-05
-1.20052e-05
5.5921e-07
2.38898e-05
-8.16437e-06
-2.89556e-07
2.5912e-05
-4.85964e-06
-5.55258e-07
2.68527e-05
-2.65989e-06
-4.07761e-07
2.64583e-05
-6.18719e-07
-1.52249e-07
2.49107e-05
1.19379e-06
8.13141e-08
2.25156e-05
3.05756e-06
1.24184e-07
1.95836e-05
4.49929e-06
1.82289e-07
1.64586e-05
5.60753e-06
9.282e-08
1.28078e-05
6.48419e-06
1.56817e-07
8.99599e-06
6.74238e-06
1.42983e-07
6.32114e-06
6.14982e-06
-5.32876e-07
5.35757e-06
4.9231e-06
-1.73248e-06
5.96112e-06
3.45833e-06
-2.90089e-06
7.13917e-06
3.19874e-06
-3.73996e-06
8.16766e-06
3.86884e-06
-4.28545e-06
9.0002e-06
4.55843e-06
-4.49658e-06
9.52711e-06
4.97045e-06
-4.20402e-06
9.67174e-06
5.12329e-06
-3.58936e-06
9.5323e-06
5.09528e-06
-2.99158e-06
9.22134e-06
4.89904e-06
-2.50041e-06
8.82651e-06
4.54208e-06
-2.12063e-06
8.51332e-06
4.02784e-06
-1.90311e-06
8.61203e-06
3.05226e-06
-1.82946e-06
9.67573e-06
1.72542e-06
-1.98796e-06
1.15684e-05
1.90897e-07
-1.81556e-06
1.367e-05
-8.11112e-07
-1.49123e-06
1.46658e-05
1.32846e-07
-6.25113e-07
1.38663e-05
1.51549e-06
4.77108e-07
1.1826e-05
3.48297e-06
5.65902e-07
7.09236e-06
6.14799e-06
1.76799e-06
1.35302e-06
8.30205e-06
1.65822e-06
9.40496e-06
-2.43267e-06
-3.10256e-06
-4.4018e-06
-2.94695e-07
-2.35409e-06
-4.42664e-06
-1.1095e-07
-2.10744e-06
-3.07626e-06
4.23328e-07
-1.51677e-06
-2.72046e-06
2.28354e-08
-1.02637e-06
-1.82006e-06
-2.88752e-10
-5.3419e-07
-1.38632e-06
-1.26024e-07
-3.57701e-07
-4.49096e-07
-1.82029e-07
-4.8155e-07
-8.06737e-08
-8.30645e-08
-7.68846e-07
1.85476e-07
-4.13023e-08
-9.53519e-07
1.08233e-07
-6.15608e-08
-1.00933e-06
-3.00307e-08
-1.32874e-07
-9.73596e-07
-1.72925e-07
-2.07085e-07
-8.93647e-07
-2.83527e-07
-2.45417e-07
-7.75083e-07
-3.83401e-07
-2.695e-07
-6.38236e-07
-4.33915e-07
-2.7857e-07
-4.99823e-07
-4.57678e-07
-2.7817e-07
-3.77292e-07
-4.4572e-07
-2.69702e-07
-2.74646e-07
-4.37225e-07
-2.61478e-07
-1.96723e-07
-4.19373e-07
-2.51146e-07
-1.39776e-07
-4.00817e-07
-2.4329e-07
-1.02676e-07
-3.77091e-07
-2.35984e-07
-7.97682e-08
-3.53295e-07
-2.31959e-07
-6.8046e-08
-3.28538e-07
-2.30117e-07
-6.41305e-08
-3.03602e-07
-2.30707e-07
-6.51052e-08
-2.79286e-07
-2.32813e-07
-6.84272e-08
-2.56064e-07
-2.36136e-07
-7.24529e-08
-2.33743e-07
-2.40129e-07
-7.60178e-08
-2.11846e-07
-2.44464e-07
-7.81942e-08
-1.90735e-07
-2.49019e-07
-7.8349e-08
-1.69626e-07
-2.53487e-07
-7.62589e-08
-1.50377e-07
-2.58655e-07
-7.32193e-08
-1.28072e-07
-2.63306e-07
-6.8016e-08
-1.08987e-07
-2.68681e-07
-6.43295e-08
-8.07683e-08
-2.72477e-07
-5.79363e-08
-6.38469e-08
-2.77532e-07
-5.43943e-08
-3.21113e-08
-2.80427e-07
-4.55134e-08
-2.06092e-08
-2.85546e-07
-4.32413e-08
1.60453e-08
-2.86104e-07
-3.76732e-08
1.8115e-08
-2.88916e-07
-4.78735e-08
6.35661e-08
-2.82213e-07
-6.39566e-08
5.49338e-08
-2.82948e-07
-1.08013e-07
1.28364e-07
-2.67846e-07
-1.53887e-07
9.43412e-08
-2.74374e-07
-2.1392e-07
1.96087e-07
-2.64057e-07
-2.38348e-07
1.02968e-07
-2.89146e-07
-2.63452e-07
2.15245e-07
-2.91775e-07
-1.72505e-07
-2.53276e-08
-3.14221e-07
-1.98235e-07
1.67836e-07
-2.96871e-07
-2.47676e-07
-1.71139e-07
-1.85936e-07
-2.39416e-07
1.41938e-07
-2.93994e-07
-6.49541e-07
-4.66763e-07
-1.48398e-07
-2.54684e-06
7.45774e-08
6.02938e-07
-2.67986e-06
-1.38394e-06
-2.08775e-08
-3.01834e-07
-4.04023e-06
-8.87857e-07
1.24111e-06
-7.46496e-06
-4.89422e-08
1.07372e-06
-1.10675e-05
1.49356e-06
1.16021e-06
9.98915e-06
-2.5081e-06
-5.34683e-06
1.14592e-05
1.18972e-06
-6.25194e-06
2.59605e-06
-2.58156e-06
-3.18901e-05
-3.70677e-05
2.63733e-06
-8.02468e-05
-2.97236e-05
3.44441e-07
-3.47488e-05
-2.04464e-05
1.71562e-06
1.54917e-05
-2.29232e-05
9.17621e-07
1.89574e-05
-1.42282e-05
-1.86292e-06
2.0673e-05
-7.46356e-06
-2.17314e-06
2.2534e-05
-5.17915e-06
-1.62399e-06
2.33376e-05
-2.77259e-06
-7.7262e-07
2.3006e-05
-1.4882e-07
-1.53088e-07
2.12458e-05
2.7643e-06
1.73625e-07
1.87199e-05
5.62536e-06
-7.81934e-08
1.54063e-05
7.83552e-06
-7.8091e-08
1.17434e-05
9.2355e-06
-1.48475e-08
8.57058e-06
1.04295e-05
-8.28319e-07
5.87658e-06
1.0381e-05
-9.85515e-07
4.163e-06
9.0424e-06
-1.11141e-06
4.18219e-06
8.10352e-06
-3.09891e-06
5.4266e-06
8.27915e-06
-6.0385e-06
6.44469e-06
8.69203e-06
-6.48743e-06
6.99677e-06
8.78679e-06
-5.46416e-06
7.26884e-06
8.74774e-06
-4.47069e-06
7.35472e-06
8.48362e-06
-3.60504e-06
7.23284e-06
8.09962e-06
-2.85669e-06
6.8965e-06
7.68136e-06
-2.26495e-06
6.34691e-06
7.25034e-06
-1.84109e-06
5.71493e-06
6.73863e-06
-1.60823e-06
5.16326e-06
6.03628e-06
-1.49238e-06
5.18971e-06
4.57862e-06
-1.57806e-06
6.61477e-06
2.07259e-06
-1.81583e-06
9.20253e-06
-7.04539e-07
-1.77596e-06
1.20578e-05
-2.45547e-06
-1.22265e-06
1.35793e-05
-1.60431e-06
2.69535e-07
1.31584e-05
5.14598e-07
1.4401e-06
1.12803e-05
4.0096e-06
1.35642e-06
6.33078e-06
8.69227e-06
2.41336e-06
9.33317e-07
1.21136e-05
1.82832e-06
1.40451e-05
-2.44096e-06
-3.6621e-06
-4.72456e-06
-1.06757e-07
-2.7912e-06
-4.83179e-06
-4.65718e-07
-2.65317e-06
-3.4549e-06
2.4064e-07
-2.04263e-06
-3.18171e-06
-1.49243e-07
-1.57791e-06
-2.24839e-06
-3.63338e-08
-8.82794e-07
-1.91648e-06
-1.64913e-07
-3.33011e-07
-8.05273e-07
-1.93571e-07
-2.42281e-07
-1.34671e-07
-3.67206e-08
-5.01071e-07
4.45098e-07
-8.24703e-10
-7.34487e-07
3.76218e-07
-3.45745e-08
-8.41642e-07
2.16691e-07
-1.39569e-07
-8.85313e-07
9.21386e-08
-2.21402e-07
-8.59444e-07
-2.74277e-08
-2.81972e-07
-7.76645e-07
-1.41187e-07
-3.25025e-07
-6.61977e-07
-2.01727e-07
-3.46865e-07
-5.41194e-07
-2.18675e-07
-3.59802e-07
-4.3273e-07
-1.87577e-07
-3.66619e-07
-3.40801e-07
-1.57471e-07
-3.717e-07
-2.63203e-07
-1.23379e-07
-3.73606e-07
-2.00796e-07
-9.12082e-08
-3.72034e-07
-1.52763e-07
-5.67313e-08
-3.68409e-07
-1.18014e-07
-2.41369e-08
-3.63924e-07
-9.58845e-08
8.68691e-09
-3.5937e-07
-8.24063e-08
3.86039e-08
-3.55701e-07
-7.55452e-08
6.73965e-08
-3.53559e-07
-7.33292e-08
9.44416e-08
-3.52737e-07
-7.40811e-08
1.19945e-07
-3.52949e-07
-7.62509e-08
1.44136e-07
-3.53825e-07
-7.88149e-08
1.66916e-07
-3.55098e-07
-8.1018e-08
1.88926e-07
-3.5636e-07
-8.18637e-08
2.0879e-07
-3.5833e-07
-8.16389e-08
2.31333e-07
-3.59639e-07
-7.9011e-08
2.50909e-07
-3.62531e-07
-7.73713e-08
2.81518e-07
-3.63933e-07
-7.24855e-08
2.98265e-07
-3.67003e-07
-7.02693e-08
3.32608e-07
-3.66941e-07
-6.64858e-08
3.42975e-07
-3.6737e-07
-7.12962e-08
3.82986e-07
-3.62134e-07
-8.15655e-08
3.85951e-07
-3.57568e-07
-1.04176e-07
4.33415e-07
-3.47241e-07
-1.38033e-07
4.3224e-07
-3.43449e-07
-1.73799e-07
4.99808e-07
-3.35679e-07
-2.03659e-07
4.70438e-07
-3.46234e-07
-2.16289e-07
5.51692e-07
-3.42977e-07
-1.7263e-07
4.30757e-07
-3.71446e-07
-1.538e-07
5.44794e-07
-3.48378e-07
-9.50794e-08
2.46668e-07
-3.30713e-07
-2.0382e-07
5.26713e-07
-2.50134e-07
-5.66104e-07
2.18561e-07
-2.74079e-08
-7.72081e-07
5.61649e-07
-2.13728e-07
-1.75917e-06
6.00677e-07
-8.03384e-08
-3.35232e-06
1.6033e-06
6.44356e-08
-2.66046e-06
-1.71812e-06
-3.57668e-07
-3.03675e-07
-5.31975e-06
-1.07726e-06
1.37487e-06
-9.10571e-06
-3.78304e-08
-2.86881e-06
-9.71318e-06
2.88936e-06
-1.26742e-06
9.51317e-06
-1.12645e-06
-6.68502e-06
1.59292e-05
9.47543e-07
-4.90536e-06
1.07927e-06
-5.88469e-07
-3.406e-05
-4.12525e-05
-3.504e-07
-8.89575e-05
-3.52037e-05
1.8809e-06
-4.04783e-05
-2.3549e-05
2.19869e-06
7.10374e-06
-2.53697e-05
9.92229e-07
7.94126e-06
-1.32322e-05
-1.12996e-06
1.28962e-05
-1.10606e-05
-1.3039e-06
1.58338e-05
-7.72484e-06
-3.63899e-07
1.64175e-05
-4.08756e-06
9.65001e-07
1.5163e-05
-2.93105e-07
1.49929e-06
1.31331e-05
3.50176e-06
1.32234e-06
1.05485e-05
7.65783e-06
5.7251e-07
8.02347e-06
1.11233e-05
-3.22788e-07
5.17583e-06
1.32489e-05
-2.79056e-07
2.39693e-06
1.32868e-05
-5.61438e-08
6.82257e-07
1.36162e-05
-1.53458e-06
1.33738e-07
1.3981e-05
-4.46896e-06
8.38073e-07
1.44967e-05
-7.11717e-06
2.09239e-06
1.45402e-05
-7.42272e-06
2.94117e-06
1.3591e-05
-5.66065e-06
3.43623e-06
1.22757e-05
-3.96388e-06
3.86154e-06
1.10724e-05
-2.74986e-06
4.11134e-06
1.01472e-05
-1.92293e-06
4.02811e-06
9.50921e-06
-1.35077e-06
3.6352e-06
8.98995e-06
-9.55529e-07
3.049e-06
8.49014e-06
-6.94474e-07
2.35182e-06
7.99767e-06
-5.86764e-07
1.72773e-06
7.20918e-06
-5.83172e-07
1.70978e-06
5.3613e-06
-8.25016e-07
2.87172e-06
2.21786e-06
-1.38802e-06
5.41609e-06
-1.2013e-06
-2.12275e-06
8.64829e-06
-3.4354e-06
-2.26166e-06
1.06922e-05
-3.00087e-06
-6.22737e-07
1.09647e-05
-6.35187e-07
8.66626e-07
9.66867e-06
4.08756e-06
1.24029e-06
5.31841e-06
1.07436e-05
2.321e-06
2.18167e-07
1.59596e-05
1.4949e-06
1.83991e-05
-2.79651e-06
-3.97859e-06
-4.67848e-06
-1.34307e-07
-3.11081e-06
-5.04771e-06
-6.51848e-07
-2.92959e-06
-3.67629e-06
4.02189e-08
-2.19293e-06
-3.51224e-06
-4.06071e-07
-1.83182e-06
-2.4896e-06
-1.19845e-07
-1.17082e-06
-2.31306e-06
-2.64376e-07
-5.67369e-07
-1.26038e-06
-1.48331e-07
-1.28399e-07
-5.26131e-07
-4.74976e-08
-8.4192e-08
4.19693e-07
-1.88102e-08
-3.52e-07
6.39946e-07
4.07632e-09
-5.75148e-07
5.25959e-07
-8.61339e-08
-7.44693e-07
4.08219e-07
-1.46542e-07
-8.03753e-07
2.49227e-07
-2.17612e-07
-7.65971e-07
9.72543e-08
-2.76232e-07
-6.58703e-07
4.04956e-11
-3.09054e-07
-5.36655e-07
-1.05372e-08
-3.30199e-07
-4.34148e-07
5.35442e-08
-3.43649e-07
-3.54178e-07
1.1919e-07
-3.56646e-07
-2.86951e-07
1.79414e-07
-3.70041e-07
-2.27362e-07
2.29001e-07
-3.79815e-07
-1.75762e-07
2.75548e-07
-3.83899e-07
-1.32462e-07
3.16306e-07
-3.8376e-07
-9.9534e-08
3.56199e-07
-3.80459e-07
-7.7761e-08
3.92997e-07
-3.76182e-07
-6.49357e-08
4.25938e-07
-3.71385e-07
-5.84882e-08
4.54797e-07
-3.66817e-07
-5.63375e-08
4.80375e-07
-3.62596e-07
-5.67896e-08
5.03164e-07
-3.58589e-07
-5.85144e-08
5.23335e-07
-3.54707e-07
-6.03321e-08
5.41566e-07
-3.50832e-07
-6.21785e-08
5.57736e-07
-3.47111e-07
-6.44256e-08
5.76538e-07
-3.42966e-07
-6.47824e-08
5.91408e-07
-3.40152e-07
-6.59836e-08
6.18264e-07
-3.35552e-07
-6.39233e-08
6.28965e-07
-3.32768e-07
-6.62205e-08
6.61934e-07
-3.27033e-07
-6.88114e-08
6.66413e-07
-3.20853e-07
-8.21293e-08
7.07167e-07
-3.10867e-07
-1.03973e-07
7.0771e-07
-2.99919e-07
-1.35317e-07
7.54216e-07
-2.89459e-07
-1.75159e-07
7.55119e-07
-2.8304e-07
-2.03707e-07
8.05932e-07
-2.77577e-07
-2.2363e-07
7.74501e-07
-2.84143e-07
-2.22676e-07
8.23294e-07
-2.72556e-07
-2.00762e-07
6.85507e-07
-2.76666e-07
-1.9629e-07
7.692e-07
-2.28878e-07
-3.44551e-07
5.37338e-07
-1.4241e-07
-5.79803e-07
8.15319e-07
-5.33503e-08
-1.34332e-06
7.46163e-07
2.35919e-07
-1.98775e-06
9.60421e-07
2.45665e-07
-2.28338e-06
5.75783e-07
3.20533e-07
-4.05017e-07
-2.67833e-07
-7.2185e-09
3.41542e-06
-4.24067e-06
-1.29791e-06
5.93365e-06
-5.977e-06
-1.86099e-06
6.58427e-06
-8.8772e-06
-8.79191e-07
8.21466e-07
-4.55739e-06
6.07034e-07
6.71006e-06
5.56798e-06
-1.94425e-06
4.24164e-06
2.20436e-05
-3.64613e-06
1.1098e-06
-9.52855e-07
4.6235e-06
-3.74797e-05
-3.83165e-05
-1.61706e-06
-0.000107849
-3.9829e-05
2.56832e-06
-0.000100819
-2.4155e-05
3.02772e-06
-9.94283e-05
-2.50317e-05
1.6889e-07
-8.06029e-05
-1.41269e-05
-1.23239e-08
-2.58695e-05
-1.30086e-05
-2.62501e-07
1.08351e-05
-6.55194e-06
9.57164e-07
1.01107e-05
-2.20789e-06
1.945e-06
8.72333e-06
2.14334e-06
1.85633e-06
6.42395e-06
7.28317e-06
1.37937e-06
-1.92127e-05
1.20471e-05
8.60812e-07
-5.76783e-05
1.54171e-05
-1.84122e-08
-3.89392e-05
1.7772e-05
-2.04283e-06
-6.38422e-06
1.99354e-05
-4.50574e-06
-7.0312e-06
2.06456e-05
-6.58665e-06
-6.22529e-06
2.03331e-05
-6.98052e-06
-4.33626e-06
1.87475e-05
-5.56969e-06
-2.29247e-06
1.62508e-05
-3.25416e-06
-5.66729e-07
1.33508e-05
-1.351e-06
7.84837e-07
1.13273e-05
-2.75469e-07
1.75374e-06
1.00789e-05
3.73583e-07
2.2814e-06
9.43324e-06
6.95449e-07
2.24687e-06
9.08535e-06
9.47655e-07
1.84286e-06
8.65979e-06
1.15331e-06
1.22802e-06
8.19502e-06
1.26246e-06
2.91723e-07
7.67251e-06
7.23834e-07
-8.48374e-07
6.83184e-06
9.5616e-07
-1.6356e-06
5.05876e-06
1.44951e-07
-1.40083e-06
2.84343e-06
-1.62691e-06
4.00946e-09
6.99646e-07
-2.88309e-06
2.22575e-06
-6.38577e-07
-4.08237e-06
5.0942e-06
-1.68788e-06
-4.20678e-06
6.64652e-06
4.33631e-07
-2.58182e-06
6.18692e-06
5.11185e-06
-4.34702e-07
2.26461e-06
1.3032e-05
1.77789e-06
-1.16805e-06
1.92126e-05
4.96668e-07
2.22064e-05
-3.60736e-06
-4.16377e-06
-4.1734e-06
-3.47408e-07
-3.25918e-06
-4.95053e-06
-1.00174e-06
-3.16323e-06
-3.52816e-06
-2.44024e-07
-2.26948e-06
-3.65091e-06
-7.55008e-07
-1.87726e-06
-2.50988e-06
-3.71888e-07
-1.2431e-06
-2.48494e-06
-4.62249e-07
-7.9872e-07
-1.44754e-06
-2.57192e-07
-2.44506e-07
-8.95365e-07
-1.84987e-07
1.6638e-07
1.47896e-07
-1.39092e-07
1.00652e-07
7.4317e-07
-3.75143e-08
-1.52522e-07
8.57937e-07
-7.88135e-08
-4.62816e-07
8.25627e-07
-1.07135e-07
-6.45747e-07
6.12845e-07
-1.80697e-07
-6.63424e-07
3.68255e-07
-2.53345e-07
-5.85183e-07
2.33544e-07
-3.11758e-07
-4.72936e-07
2.1986e-07
-3.42668e-07
-3.83692e-07
3.1662e-07
-3.52334e-07
-3.25414e-07
4.20839e-07
-3.59951e-07
-2.81158e-07
5.05489e-07
-3.70347e-07
-2.41882e-07
5.68929e-07
-3.79227e-07
-2.05159e-07
6.2191e-07
-3.83103e-07
-1.71759e-07
6.65019e-07
-3.82135e-07
-1.42566e-07
7.04003e-07
-3.77014e-07
-1.19834e-07
7.39165e-07
-3.68919e-07
-1.03364e-07
7.68744e-07
-3.59292e-07
-9.30765e-08
7.93793e-07
-3.49301e-07
-8.89567e-08
8.1558e-07
-3.3934e-07
-8.87347e-08
8.32466e-07
-3.2954e-07
-9.12113e-08
8.45913e-07
-3.20114e-07
-9.47575e-08
8.56209e-07
-3.11111e-07
-9.80374e-08
8.63465e-07
-3.02459e-07
-1.00582e-07
8.73045e-07
-2.93973e-07
-1.02776e-07
8.80841e-07
-2.87247e-07
-1.0675e-07
9.01427e-07
-2.79199e-07
-1.12112e-07
9.07449e-07
-2.73128e-07
-1.22669e-07
9.36561e-07
-2.64079e-07
-1.38567e-07
9.38718e-07
-2.56411e-07
-1.6029e-07
9.74715e-07
-2.45832e-07
-1.89999e-07
9.74705e-07
-2.37291e-07
-2.17052e-07
1.01037e-06
-2.29107e-07
-2.4523e-07
1.00803e-06
-2.24737e-07
-2.51964e-07
1.03303e-06
-2.20367e-07
-2.49727e-07
9.94865e-07
-2.22605e-07
-2.34454e-07
1.01586e-06
-2.07843e-07
-2.44111e-07
8.9593e-07
-2.0077e-07
-2.50061e-07
9.34298e-07
-1.59156e-07
-4.02485e-07
7.97687e-07
-1.07927e-07
-4.9478e-07
9.83086e-07
-7.54786e-08
-8.11764e-07
1.06342e-06
-2.76366e-10
-7.309e-07
8.93031e-07
-1.3475e-08
7.07045e-07
-9.15159e-07
5.30027e-08
4.31116e-06
-3.90391e-06
3.19636e-08
7.24127e-06
-6.07608e-06
-1.09473e-06
8.33108e-06
-5.09289e-06
-1.97398e-06
9.19557e-06
-8.01166e-06
-1.73011e-06
1.17313e-05
-3.10671e-06
-3.98638e-06
1.52582e-05
4.18126e-06
-2.14066e-06
1.31124e-05
3.28427e-05
-8.65341e-06
7.4811e-06
-3.99454e-06
7.60491e-06
-4.16819e-05
-3.1079e-05
-1.56501e-07
-0.000115235
-4.12399e-05
2.66818e-06
-0.000109776
-2.44525e-05
3.36225e-06
-0.00011041
-2.76599e-05
-5.68722e-07
-0.000108217
-1.68687e-05
-7.88341e-07
-0.000106332
-1.27469e-05
-8.9767e-07
-0.00010787
-3.4757e-06
5.23986e-07
-0.000109993
1.18308e-06
8.99415e-07
-0.000113209
6.95333e-06
5.11156e-07
-0.00011518
1.25505e-05
-9.53906e-07
-0.000119452
1.77951e-05
-2.48403e-06
-0.000123625
2.17197e-05
-4.42885e-06
-0.000121159
2.34599e-05
-5.71477e-06
-0.000116444
2.4561e-05
-6.12614e-06
-0.000114953
2.37944e-05
-5.01698e-06
-0.000114224
2.13967e-05
-2.90072e-06
-0.000113104
1.89316e-05
-1.07325e-06
-0.000112839
1.48032e-05
5.00109e-07
-0.00011364
1.18914e-05
1.74966e-06
-0.000114112
9.58754e-06
2.1749e-06
-0.000114129
8.20912e-06
2.32719e-06
-0.000114272
7.33302e-06
2.3595e-06
-0.000114954
7.06281e-06
2.39778e-06
-0.000115327
6.57489e-06
2.43729e-06
-0.000115867
6.46318e-06
2.3801e-06
-0.00011771
6.31788e-06
2.13708e-06
-0.000120023
5.99807e-06
1.68094e-06
-0.000122007
5.27861e-06
3.64313e-07
-0.000120155
4.44616e-06
-1.52431e-06
-0.000103587
3.54859e-06
-3.68689e-06
-4.76625e-05
3.25771e-06
-5.129e-06
-3.11922e-06
4.08147e-06
-6.2264e-06
-9.46588e-07
6.52039e-06
-5.37743e-06
-1.2461e-06
9.07596e-06
-3.56056e-06
-3.21608e-06
1.62417e-05
-1.03457e-06
-3.40126e-06
2.15754e-05
-1.87523e-06
2.50058e-05
-4.75304e-06
-4.25122e-06
-3.43736e-06
-1.61989e-07
-3.34802e-06
-4.77517e-06
-1.07852e-06
-3.39282e-06
-3.00701e-06
-4.76299e-07
-2.40613e-06
-3.59389e-06
-1.04363e-06
-1.87349e-06
-2.37656e-06
-6.65923e-07
-1.03211e-06
-2.51922e-06
-8.07068e-07
-5.92542e-07
-1.24361e-06
-6.43512e-07
-2.6119e-07
-8.38358e-07
-3.88362e-07
1.73454e-07
6.89231e-08
-3.55692e-07
3.08435e-07
8.10113e-07
-2.01936e-07
1.54947e-07
1.17737e-06
-1.65966e-07
-2.44934e-07
1.31584e-06
-9.03468e-08
-5.04528e-07
1.01814e-06
-1.45722e-07
-5.51436e-07
6.57867e-07
-2.42719e-07
-4.99451e-07
4.99487e-07
-3.17951e-07
-4.09859e-07
4.86418e-07
-3.56167e-07
-3.34322e-07
6.009e-07
-3.59841e-07
-2.9066e-07
7.32614e-07
-3.55455e-07
-2.65616e-07
8.34935e-07
-3.54514e-07
-2.51716e-07
9.08505e-07
-3.53494e-07
-2.42853e-07
9.64321e-07
-3.51297e-07
-2.3482e-07
1.00434e-06
-3.4737e-07
-2.26096e-07
1.03574e-06
-3.40484e-07
-2.18945e-07
1.06216e-06
-3.30162e-07
-2.12975e-07
1.08164e-06
-3.18888e-07
-2.08425e-07
1.09524e-06
-3.06009e-07
-2.06828e-07
1.10683e-06
-2.92867e-07
-2.08022e-07
1.11423e-06
-2.80583e-07
-2.11701e-07
1.11857e-06
-2.68991e-07
-2.16412e-07
1.11975e-06
-2.58844e-07
-2.20664e-07
1.11779e-06
-2.50083e-07
-2.21976e-07
1.11678e-06
-2.42435e-07
-2.25818e-07
1.11966e-06
-2.34988e-07
-2.31894e-07
1.1346e-06
-2.27109e-07
-2.46636e-07
1.14141e-06
-2.19226e-07
-2.66069e-07
1.16639e-06
-2.10409e-07
-2.96612e-07
1.17144e-06
-2.02189e-07
-3.26256e-07
1.19852e-06
-1.94165e-07
-3.61769e-07
1.19745e-06
-1.87245e-07
-3.82483e-07
1.21354e-06
-1.82463e-07
-3.94611e-07
1.19937e-06
-1.79228e-07
-3.78429e-07
1.1927e-06
-1.75866e-07
-3.54079e-07
1.14121e-06
-1.70712e-07
-3.23862e-07
1.14466e-06
-1.5903e-07
-3.47215e-07
1.05624e-06
-1.36976e-07
-3.36181e-07
1.05028e-06
-1.27025e-07
-4.27503e-07
9.87407e-07
-9.84134e-08
-3.36538e-07
1.03167e-06
-1.39554e-07
-1.47766e-07
1.06076e-06
-1.86123e-07
7.3648e-07
2.63033e-07
-2.54253e-07
2.0036e-06
-2.11428e-06
-6.80063e-08
3.99671e-06
-5.80922e-06
-8.7815e-08
3.48999e-06
-4.62614e-06
-9.43283e-07
-1.62048e-06
1.29084e-06
-1.27332e-06
-8.34002e-06
2.20626e-06
-3.49843e-06
-7.31868e-06
3.71817e-06
-7.84616e-06
7.57887e-06
8.5245e-07
-1.1569e-05
1.92e-05
3.14851e-05
-1.02637e-05
7.79045e-06
-1.36446e-05
1.82667e-05
-5.25458e-05
-2.29343e-05
4.04679e-07
-0.000128274
-3.60357e-05
3.51637e-06
-0.000119935
-2.23495e-05
3.35849e-06
-0.000120731
-2.61298e-05
-9.41028e-07
-0.000125613
-1.81458e-05
-1.69486e-06
-0.000127135
-1.21684e-05
-1.28001e-06
-0.000128866
-3.35956e-06
-1.10988e-06
-0.000130295
3.53428e-06
-1.69551e-06
-0.000133746
9.90196e-06
-2.61601e-06
-0.000135771
1.62772e-05
-3.69917e-06
-0.00013725
2.20223e-05
-4.35624e-06
-0.000136003
2.50474e-05
-4.5261e-06
-0.000135006
2.69988e-05
-3.9182e-06
-0.000126473
2.67346e-05
-1.88619e-06
-0.000127482
2.44426e-05
1.98317e-07
-0.000133025
2.08214e-05
2.11323e-06
-0.00013475
1.76105e-05
3.78031e-06
-0.000141559
1.28947e-05
4.76484e-06
-0.000140136
1.02425e-05
4.83984e-06
-0.000139912
6.50307e-06
4.77942e-06
-0.000140248
3.41529e-06
4.73833e-06
-0.00013705
1.64701e-06
4.71509e-06
-0.000134786
9.80544e-07
4.72776e-06
-0.000133796
4.90378e-07
4.66266e-06
-0.000131662
1.79381e-06
4.33158e-06
-0.000130137
2.92205e-06
3.80172e-06
-0.000133584
4.3333e-06
3.15429e-06
-0.000137501
5.3759e-06
1.91711e-06
-0.00013406
5.7949e-06
-1.29631e-07
-0.000126151
6.44679e-06
-2.99005e-06
-0.000124003
7.01309e-06
-4.49143e-06
-0.000107681
8.71556e-06
-6.51944e-06
-4.72254e-05
1.21092e-05
-6.87236e-06
-3.38177e-06
1.6502e-05
-6.81211e-06
-2.46693e-06
2.21376e-05
-5.25768e-06
-1.52619e-06
2.73727e-05
-5.59149e-06
3.14103e-05
-6.47432e-06
-3.97143e-06
-2.52644e-06
3.02916e-07
-3.11311e-06
-4.44171e-06
-1.19174e-06
-3.38781e-06
-2.18649e-06
-5.45745e-07
-2.46312e-06
-3.33408e-06
-1.18445e-06
-1.90719e-06
-2.13575e-06
-7.96692e-07
-8.19825e-07
-2.5005e-06
-1.10607e-06
-2.25598e-07
-9.80024e-07
-8.57808e-07
-1.51021e-07
-4.65935e-07
-4.4702e-07
2.73257e-08
3.74988e-07
-4.84425e-07
1.53771e-07
9.78657e-07
-2.95016e-07
2.28566e-07
1.37326e-06
-2.70703e-07
1.0425e-07
1.60452e-06
-1.64393e-07
-1.72377e-08
1.39582e-06
-2.5621e-07
-1.09721e-07
1.09122e-06
-3.40895e-07
-1.77973e-07
9.8998e-07
-4.22259e-07
-2.39352e-07
1.0263e-06
-4.78531e-07
-2.88684e-07
1.15367e-06
-5.03458e-07
-3.32245e-07
1.29014e-06
-5.13992e-07
-3.5668e-07
1.37881e-06
-5.19458e-07
-3.70333e-07
1.44176e-06
-5.19629e-07
-3.79245e-07
1.49083e-06
-5.17613e-07
-3.83121e-07
1.5238e-06
-5.15605e-07
-3.82113e-07
1.547e-06
-5.12284e-07
-3.78206e-07
1.56525e-06
-5.07014e-07
-3.73635e-07
1.57794e-06
-5.00882e-07
-3.70429e-07
1.58642e-06
-4.94408e-07
-3.68953e-07
1.59272e-06
-4.87375e-07
-3.69795e-07
1.59617e-06
-4.8112e-07
-3.72495e-07
1.59634e-06
-4.7509e-07
-3.75222e-07
1.59251e-06
-4.70043e-07
-3.76521e-07
1.58518e-06
-4.6611e-07
-3.75769e-07
1.57952e-06
-4.63509e-07
-3.81274e-07
1.58462e-06
-4.59472e-07
-3.9185e-07
1.59965e-06
-4.54486e-07
-4.16148e-07
1.61389e-06
-4.48194e-07
-4.44242e-07
1.63631e-06
-4.41836e-07
-4.85728e-07
1.64881e-06
-4.35891e-07
-5.18069e-07
1.66282e-06
-4.31976e-07
-5.49713e-07
1.658e-06
-4.28912e-07
-5.58596e-07
1.65175e-06
-4.2934e-07
-5.54737e-07
1.62652e-06
-4.31013e-07
-5.29024e-07
1.60054e-06
-4.33567e-07
-5.05314e-07
1.55261e-06
-4.35123e-07
-4.78628e-07
1.54985e-06
-4.31901e-07
-5.1733e-07
1.50378e-06
-4.08853e-07
-5.07435e-07
1.45746e-06
-4.17105e-07
-5.29528e-07
1.41713e-06
-4.07653e-07
-3.26124e-07
1.3154e-06
-4.87161e-07
2.64969e-07
1.21932e-06
-7.49667e-07
1.2443e-06
1.23322e-07
-8.39645e-07
1.58298e-06
-1.67057e-06
-7.82404e-07
1.03206e-06
-4.90885e-06
-3.49473e-07
1.175e-06
-4.78032e-06
1.12142e-08
1.68375e-06
8.65518e-07
-8.35134e-08
-2.74534e-06
1.26367e-05
-6.00155e-06
-3.12313e-06
1.72857e-05
-1.31897e-05
1.15447e-05
5.36541e-06
-1.91809e-05
3.31383e-05
1.79509e-05
-8.0594e-06
2.07572e-06
-1.68776e-05
2.90045e-05
-7.07461e-05
-1.44114e-05
-3.49745e-07
-0.000141135
-2.06687e-05
4.79472e-06
-0.000136185
-1.60507e-05
2.05281e-06
-0.000146755
-1.81361e-05
-2.7316e-06
-0.000157089
-1.45424e-05
-4.80706e-06
-0.000156644
-9.46176e-06
-4.30018e-06
-0.000150792
-2.37872e-06
-3.7957e-06
-0.000159063
5.47624e-06
-2.80867e-06
-0.000169162
1.11653e-05
-2.476e-06
-0.000168902
1.80324e-05
-1.77998e-06
-0.000168547
2.38305e-05
-5.38907e-07
-0.000168465
2.65724e-05
9.45314e-07
-0.000173805
2.76637e-05
2.87399e-06
-0.000179305
2.68795e-05
5.94009e-06
-0.000186875
2.50304e-05
8.29695e-06
-0.000194322
2.10762e-05
8.76789e-06
-0.000201988
1.62042e-05
8.49606e-06
-0.000210762
1.0605e-05
7.83576e-06
-0.000211766
5.78139e-06
7.44697e-06
-0.000208841
1.16664e-06
7.31885e-06
-0.000207852
-2.99432e-06
7.41112e-06
-0.000204149
-6.16442e-06
7.74241e-06
-0.000203518
-7.95033e-06
8.13059e-06
-0.000204312
-9.32054e-06
8.20553e-06
-0.000201639
-8.38971e-06
7.61447e-06
-0.000199225
-6.42002e-06
7.26473e-06
-0.000198466
-3.19873e-06
6.41082e-06
-0.000198726
7.01877e-07
5.03861e-06
-0.000198423
2.90178e-06
1.99755e-06
-0.000198877
6.55182e-06
-4.62798e-07
-0.000195511
9.7484e-06
-4.50573e-06
-0.000188362
1.27972e-05
-7.55893e-06
-0.000184559
1.7098e-05
-8.90776e-06
-0.000175135
2.21562e-05
-9.36024e-06
-0.000164102
2.64619e-05
-9.47525e-06
-0.00015207
2.96887e-05
-9.84845e-06
2.97683e-05
-7.3752e-06
-3.61737e-06
-3.49591e-07
1.51137e-06
-2.59255e-06
-4.10109e-06
-1.3654e-06
-3.01589e-06
-1.35545e-06
-4.07646e-07
-2.27718e-06
-3.01671e-06
-1.05603e-06
-1.77412e-06
-1.84644e-06
-7.9234e-07
-6.67064e-07
-2.45213e-06
-1.15541e-06
-4.04868e-09
-9.50643e-07
-6.92406e-07
-1.1177e-07
-2.46361e-07
-1.11868e-07
-1.48828e-07
5.27186e-07
-1.15165e-07
-3.62746e-08
8.59723e-07
6.35927e-09
2.17987e-07
1.2387e-06
-1.19725e-07
3.4771e-07
1.39435e-06
8.04239e-08