/*--------------------------------*- C++ -*----------------------------------*\
| =========                 |                                                 |
| \\      /  F ield         | OpenFOAM: The Open Source CFD Toolbox           |
|  \\    /   O peration     | Version:  2.3.0                                 |
|   \\  /    A nd           | Web:      www.OpenFOAM.org                      |
|    \\/     M anipulation  |                                                 |
\*---------------------------------------------------------------------------*/
FoamFile
{
    version     2.0;
    format      ascii;
    class       volVectorField;
    location    "29";
    object      U.airMean;
}
// * * * * * * * * * * * * * * * * * * * * * * * * * * * * * * * * * * * * * //

dimensions      [0 1 -1 0 0 0 0];

internalField   nonuniform List<vector> 
6144
(
(0.00832057 0.0196157 -0.00125799)
(0.00843966 0.0031503 -0.00159871)
(0.00464995 0.00126046 -0.00227334)
(0.0045814 -0.0008509 -0.00224923)
(0.00301388 -0.00208046 -0.00180065)
(0.00296932 -0.00148985 -0.00158139)
(0.00237481 -0.00158961 -0.00133501)
(0.00246255 -0.000400584 -0.00123903)
(0.00234901 0.000355147 -0.00131349)
(0.00236671 0.0016556 -0.00105665)
(0.00237361 0.00238881 -0.000860357)
(0.00253833 0.00279705 -0.000584624)
(0.00267358 0.00256432 -0.00050983)
(0.0027981 0.00215796 -0.000457123)
(0.00284271 0.00160441 -0.000614915)
(0.00289404 0.00120021 -0.000730132)
(0.00291466 0.000828339 -0.000894519)
(0.002942 0.000611697 -0.00100027)
(0.00295747 0.000418776 -0.00110139)
(0.00296564 0.000318609 -0.00115397)
(0.00296708 0.000234161 -0.0011923)
(0.00296459 0.000197189 -0.00120848)
(0.00295829 0.000170301 -0.00121443)
(0.00295062 0.000159972 -0.00120916)
(0.00294062 0.000155724 -0.00119744)
(0.00292988 0.000155669 -0.00118057)
(0.00291854 0.000158134 -0.00116043)
(0.00290734 0.000158336 -0.00113644)
(0.00289586 0.000160798 -0.00111031)
(0.00288369 0.000154408 -0.0010853)
(0.00287303 0.000167371 -0.00105818)
(0.00285982 0.000137819 -0.00103853)
(0.0028531 0.000192395 -0.00100963)
(0.00283363 9.92468e-05 -0.00100076)
(0.00283665 0.000264543 -0.000960164)
(0.00280642 1.29625e-05 -0.00096179)
(0.00281852 0.000401132 -0.000898329)
(0.0027783 -0.000167845 -0.000908907)
(0.00279187 0.000610773 -0.000811648)
(0.00275054 -0.000506462 -0.000821618)
(0.00275985 0.000860284 -0.000692331)
(0.00274297 -0.00111464 -0.000698315)
(0.00273636 0.00106427 -0.000590901)
(0.0028081 -0.00212009 -0.000641864)
(0.0027192 0.00128547 -0.000666976)
(0.00287807 -0.00343967 -0.000807749)
(0.00269794 0.00211646 -0.00109874)
(0.00275434 -0.00435247 -0.00106558)
(0.0027182 0.00433381 -0.00144545)
(0.0026525 -0.00470658 -0.00140799)
(0.00386134 0.00894254 -0.00200739)
(0.0029372 -0.00877165 -0.00218401)
(0.00408801 0.0164968 -0.00371386)
(0.00416364 -0.010937 -0.00531076)
(0.00674195 0.0399897 -0.00731591)
(0.00443543 -0.031562 -0.0114981)
(0.0141371 0.0689602 -0.00427039)
(0.00997199 -0.0560931 -0.0233789)
(-0.0391114 0.121553 -0.0818229)
(0.0388106 0.0360924 -0.111513)
(0.0847927 0.331077 -0.000832965)
(0.042144 0.375937 -0.00432715)
(0.0197619 -0.0498749 0.000189904)
(0.0320118 -0.122826 -0.000430648)
(0.026659 -0.13671 0.000823707)
(0.0175937 -0.1363 0.00298473)
(0.0116333 -0.144037 0.00392172)
(0.00759301 -0.141381 0.00386171)
(0.00479093 -0.141444 0.00331677)
(0.00254316 -0.13507 0.00259887)
(0.000870322 -0.131161 0.00186284)
(-0.000237803 -0.123352 0.00117476)
(-0.00075706 -0.117618 0.000514347)
(-0.000794742 -0.110244 -6.64295e-05)
(-0.000495501 -0.10466 -0.000543624)
(-5.57984e-05 -0.0987875 -0.00093902)
(0.000303454 -0.0942381 -0.00132299)
(0.000669292 -0.0897209 -0.00171274)
(0.00106217 -0.0858744 -0.00209545)
(0.00146664 -0.082366 -0.00246986)
(0.00180595 -0.0788614 -0.00277812)
(0.00204602 -0.0751047 -0.00307804)
(0.00214735 -0.0710965 -0.00330201)
(0.00213523 -0.0664417 -0.00346724)
(0.00196308 -0.0614208 -0.00359311)
(0.001686 -0.0557835 -0.00361501)
(0.00119065 -0.049538 -0.00371942)
(0.000484831 -0.0421355 -0.00381256)
(-0.000472597 -0.0334992 -0.00401635)
(-0.0011184 -0.0229899 -0.00388252)
(-0.000515658 -0.0125357 -0.00400799)
(0.000370659 -0.00253621 -0.00584562)
(0.000222625 0.00849062 -0.00600305)
(-0.000820762 0.0183032 -0.00238475)
(-0.000657368 0.0229313 0.00688224)
(0.00031166 0.0165771 0.0145819)
(0.0170987 0.0229368 0.00239912)
(0.0176918 0.0109169 0.00222565)
(0.0105472 0.00788704 0.000309877)
(0.0106725 0.00532243 0.00115926)
(0.00659886 0.00190466 0.00154939)
(0.00641719 0.00152427 0.00179412)
(0.00446177 -1.11386e-05 0.00205184)
(0.00434787 0.0011718 0.00172534)
(0.00395805 0.00176519 0.00148226)
(0.00416152 0.00317348 0.00157607)
(0.00437032 0.00366633 0.00171132)
(0.0049053 0.00394845 0.00207044)
(0.00521792 0.00349902 0.0021884)
(0.00551988 0.00304877 0.00227917)
(0.00557346 0.00237258 0.00219629)
(0.00566502 0.00188644 0.0021419)
(0.00565834 0.00140557 0.00204137)
(0.00569664 0.00111987 0.00197273)
(0.0057025 0.000856597 0.00189321)
(0.00570704 0.000712723 0.00185799)
(0.00569532 0.000590022 0.00183363)
(0.00567919 0.000528947 0.00183396)
(0.00565627 0.000483429 0.00184439)
(0.00563058 0.000462372 0.00186734)
(0.00560179 0.000450919 0.00189635)
(0.0055721 0.000446435 0.00193109)
(0.0055419 0.000446183 0.0019688)
(0.00551227 0.000443754 0.0020077)
(0.00548308 0.000445709 0.00204743)
(0.00545172 0.000439012 0.00208538)
(0.00542705 0.000451044 0.00212467)
(0.0053901 0.000421172 0.00215471)
(0.00537716 0.000477123 0.00219322)
(0.00532238 0.000379607 0.00221182)
(0.00533689 0.000556212 0.00225938)
(0.00525191 0.000274517 0.00226582)
(0.0053009 0.000708532 0.00233263)
(0.00517882 4.77635e-05 0.00232401)
(0.00526524 0.000945802 0.00241892)
(0.00511957 -0.000378171 0.00239915)
(0.00524909 0.00124676 0.00252195)
(0.00511986 -0.00111096 0.00249327)
(0.00528011 0.00159423 0.00261101)
(0.00522522 -0.00222982 0.00256345)
(0.00532424 0.00210576 0.00260087)
(0.00532743 -0.00368341 0.00247515)
(0.00521948 0.00310002 0.00224399)
(0.00509625 -0.00499733 0.00221137)
(0.00472751 0.00471488 0.00149858)
(0.00454538 -0.00561252 0.00173308)
(0.00628226 0.00812161 0.000507842)
(0.00522361 -0.006977 0.000156053)
(0.0048419 0.0172741 -0.000121702)
(0.00384457 -0.00914851 -0.000539414)
(0.0195802 0.0409541 0.00244371)
(0.0308001 -0.0437882 -0.00168406)
(-0.0193225 0.0369825 0.00442217)
(-0.0144571 -0.0146568 -0.0134069)
(0.0158249 0.188529 -0.00956119)
(0.159272 -0.000696698 -0.0636052)
(0.0919066 0.345535 0.0064995)
(0.00557027 0.429021 0.00656616)
(-0.0189461 -0.0845651 0.00650428)
(-0.00356424 -0.0529676 0.00875699)
(-0.00767842 -0.0767279 0.0102118)
(-0.0148299 -0.0901442 0.0116518)
(-0.0170175 -0.100416 0.010797)
(-0.0174661 -0.10169 0.00946995)
(-0.0170336 -0.105964 0.00781793)
(-0.0163559 -0.103453 0.00618422)
(-0.0152654 -0.102746 0.00475387)
(-0.0139138 -0.0975418 0.00354098)
(-0.0121573 -0.0938948 0.00244604)
(-0.0102246 -0.0881544 0.00152705)
(-0.00827266 -0.0840458 0.000734528)
(-0.00630926 -0.079332 0.000128977)
(-0.00416369 -0.0753547 -0.000291192)
(-0.00219036 -0.0710307 -0.000566281)
(-0.000882665 -0.0669487 -0.000796553)
(-0.000237772 -0.0628049 -0.00102673)
(-1.4257e-05 -0.0586167 -0.00115018)
(-3.02547e-06 -0.054398 -0.00113607)
(-3.7656e-05 -0.0502379 -0.000986574)
(-9.86067e-05 -0.0458459 -0.000740664)
(-0.0003122 -0.0418945 -0.000443047)
(-0.000866609 -0.038032 -0.000128716)
(-0.00183912 -0.0341762 2.68245e-05)
(-0.00326129 -0.0299256 -4.97797e-05)
(-0.00518292 -0.0250224 -0.000634991)
(-0.00666078 -0.0181898 -0.000840742)
(-0.00646189 -0.01033 -0.000845234)
(-0.00533554 -0.0016223 -0.00225893)
(-0.0050108 0.00828955 -0.00247823)
(-0.00548693 0.0174039 0.00164502)
(-0.00591737 0.0212024 0.011687)
(-0.00460342 0.0154032 0.020014)
(0.0206069 0.0234656 0.0034653)
(0.0221326 0.0147609 0.00346058)
(0.0137818 0.0111044 0.00122334)
(0.0142021 0.00972442 0.00217075)
(0.00834084 0.00517852 0.00239969)
(0.00777778 0.00437178 0.00286897)
(0.00436958 0.00162035 0.00339996)
(0.00394329 0.00246677 0.00317844)
(0.0032122 0.00260064 0.00295771)
(0.00366854 0.00376549 0.0030412)
(0.00398595 0.00384151 0.00312448)
(0.00485176 0.0040696 0.00340252)
(0.00523361 0.00358384 0.00350801)
(0.00563539 0.00329413 0.00360392)
(0.00568526 0.00268561 0.00356231)
(0.00578155 0.00226972 0.00355717)
(0.00570289 0.00178141 0.00351804)
(0.00569342 0.00148306 0.00351921)
(0.0056203 0.00118815 0.00351415)
(0.0055775 0.00102237 0.00353138)
(0.00551354 0.000873984 0.00354837)
(0.00545939 0.000795044 0.00357715)
(0.00540195 0.000733985 0.00360675)
(0.00534981 0.000702706 0.00364154)
(0.00529867 0.000684693 0.00367703)
(0.00525079 0.000677094 0.00371417)
(0.00520528 0.000676058 0.00375137)
(0.00516172 0.000673466 0.00378897)
(0.0051194 0.000675276 0.00382619)
(0.00507672 0.00067192 0.00386303)
(0.00504008 0.000678055 0.00390009)
(0.00498775 0.000656607 0.00393252)
(0.0049619 0.000696293 0.00396927)
(0.00488764 0.00061271 0.0039954)
(0.00489781 0.000754474 0.00404113)
(0.00478163 0.000499162 0.00405762)
(0.00484912 0.000879112 0.00411498)
(0.00467066 0.000258373 0.0041191)
(0.00481891 0.00109342 0.00419227)
(0.0045767 -0.000165501 0.00417862)
(0.00483919 0.00143294 0.00426702)
(0.00453655 -0.000805602 0.00421843)
(0.00494158 0.0019784 0.00431694)
(0.00461751 -0.0016576 0.00422124)
(0.0050806 0.00286017 0.0043278)
(0.00477615 -0.00286235 0.00421871)
(0.00495288 0.00400292 0.00424704)
(0.00470468 -0.00453148 0.00428014)
(0.00419134 0.0051834 0.00356525)
(0.00442307 -0.00596491 0.00390079)
(0.00501801 0.00769199 0.00232214)
(0.0043842 -0.0051348 0.00220028)
(0.00375831 0.0198366 0.00302071)
(0.0024049 -0.0198454 0.00445292)
(0.0286976 0.0239381 0.00604518)
(0.0403661 -0.0546049 0.00200708)
(-0.0490847 0.0651156 0.0190271)
(-0.0634376 -0.107297 -0.00774873)
(-0.0548366 0.183368 -0.0368717)
(0.168265 -0.0179363 -0.0387259)
(0.159281 0.317066 0.00259113)
(0.0710303 0.352836 0.00242989)
(0.0699042 -0.0817862 0.0121916)
(0.0331332 -0.0203907 0.0157727)
(0.00881948 -0.0551537 0.0154865)
(1.11878e-05 -0.0633729 0.0144453)
(-0.00689154 -0.0710565 0.0118265)
(-0.0120918 -0.0710795 0.00919039)
(-0.0149992 -0.0741313 0.00640403)
(-0.0163744 -0.0705158 0.003945)
(-0.0164648 -0.0686645 0.00176711)
(-0.015395 -0.0627783 2.88591e-05)
(-0.013086 -0.0584045 -0.00158954)
(-0.0103569 -0.0514408 -0.00288888)
(-0.00792816 -0.0458213 -0.00320997)
(-0.00627896 -0.0394934 -0.00314042)
(-0.00503082 -0.0333008 -0.00287444)
(-0.00386286 -0.0263742 -0.00239696)
(-0.00248378 -0.0210269 -0.00167613)
(-0.00121995 -0.0173205 -0.000596998)
(-0.000407883 -0.0154771 0.000481012)
(-6.29077e-05 -0.0149029 0.00138531)
(-6.21002e-05 -0.0151502 0.00209949)
(-0.000316562 -0.0156011 0.00265395)
(-0.000838832 -0.0159615 0.00301464)
(-0.00168872 -0.0162014 0.00319878)
(-0.00307008 -0.0159391 0.00318661)
(-0.00515902 -0.0150833 0.00275949)
(-0.00810744 -0.0132926 0.00157192)
(-0.0109496 -0.00971977 0.000417428)
(-0.0116709 -0.00445062 -0.00010177)
(-0.0110369 0.00221948 -0.00103761)
(-0.0112968 0.010285 -0.000488201)
(-0.0128037 0.0175962 0.00422596)
(-0.0138533 0.020606 0.0142281)
(-0.0137356 0.0141872 0.0220024)
(0.0222765 0.0237321 0.00359151)
(0.0254668 0.0172182 0.00393103)
(0.0157634 0.0123502 0.000810809)
(0.0176294 0.0127191 0.001351)
(0.0109191 0.00726587 0.00116193)
(0.010405 0.00683726 0.00200331)
(0.0047795 0.00225881 0.00284234)
(0.00355376 0.00273121 0.00283181)
(0.00220225 0.00211718 0.00288603)
(0.00295694 0.00358278 0.0030997)
(0.00324634 0.00342571 0.0033069)
(0.00413328 0.00382438 0.00373785)
(0.00445679 0.00344111 0.00389826)
(0.00486944 0.00335969 0.00402583)
(0.004904 0.00283276 0.00398182)
(0.00500172 0.00251387 0.00398792)
(0.00489023 0.00203231 0.0039606)
(0.00486658 0.00174936 0.00397629)
(0.00475919 0.00143095 0.00398235)
(0.00469385 0.00124806 0.00401049)
(0.00460464 0.00107492 0.00403713)
(0.00453278 0.000979403 0.00407489)
(0.00445689 0.000905239 0.00411044)
(0.00438704 0.000866625 0.00414833)
(0.0043208 0.000841962 0.0041861)
(0.00426036 0.000831964 0.00422449)
(0.00420437 0.000829406 0.00426212)
(0.00415174 0.000827955 0.00429941)
(0.00410074 0.000830624 0.00433583)
(0.00405136 0.000830297 0.0043713)
(0.0040063 0.000838058 0.00440626)
(0.00395281 0.000824979 0.0044377)
(0.00391993 0.00085682 0.00447376)
(0.00384943 0.000787104 0.00449763)
(0.0038526 0.000906542 0.00453856)
(0.00374089 0.000676199 0.00455253)
(0.00381342 0.00102133 0.00460426)
(0.00363233 0.000445504 0.00460464)
(0.00380886 0.0012418 0.0046683)
(0.00354027 6.41834e-05 0.0046441)
(0.00385591 0.00162761 0.00471609)
(0.00348941 -0.000456774 0.00464717)
(0.00395805 0.00227241 0.00473016)
(0.00354268 -0.00110816 0.00461374)
(0.00417025 0.0032568 0.00476475)
(0.00370203 -0.0021001 0.00462328)
(0.00431713 0.00444381 0.0048085)
(0.0037773 -0.00373685 0.00469587)
(0.00366399 0.00565747 0.00435057)
(0.00361451 -0.00597052 0.00445942)
(0.00314573 0.00796428 0.00319503)
(0.00194835 -0.00762129 0.00339616)
(0.00749991 0.0156824 0.00522469)
(0.00981042 -0.0265299 0.0048329)
(0.0296953 0.0135754 0.0105653)
(0.0262822 -0.0416116 0.00598863)
(-0.0124952 0.0880015 0.0178986)
(-0.0778406 -0.130617 0.00993628)
(-0.0584712 0.230981 -0.0906359)
(0.190679 -0.0673126 -0.0184142)
(0.19065 0.331907 0.00145082)
(0.0767363 0.289051 -0.00189809)
(0.0832314 0.0033151 0.0105787)
(-0.00805104 0.0705289 0.0163773)
(-0.0102133 -0.0108594 0.0189192)
(-0.0144831 -0.00797061 0.01307)
(-0.0183372 -0.0233237 0.00731971)
(-0.0205987 -0.0248151 0.00250156)
(-0.0205455 -0.0265022 -0.00126245)
(-0.0195058 -0.0204872 -0.00415233)
(-0.0180653 -0.0154023 -0.00648494)
(-0.0163178 -0.00482248 -0.00794493)
(-0.0138915 0.00550298 -0.00810746)
(-0.011364 0.0165437 -0.00620781)
(-0.0091851 0.0237463 -0.00418173)
(-0.00726094 0.0292482 -0.00235744)
(-0.00523711 0.0321617 -0.00101839)
(-0.00292476 0.0333357 7.65146e-05)
(-0.00075051 0.0326779 0.00102342)
(0.000624298 0.0302864 0.00212195)
(0.00121141 0.026815 0.00308708)
(0.00103131 0.0226266 0.00382274)
(0.000348482 0.0182943 0.00429302)
(-0.000697486 0.0140314 0.00457487)
(-0.00202879 0.0100482 0.0046267)
(-0.00368482 0.00658106 0.0044959)
(-0.00586555 0.00374228 0.00402922)
(-0.00872265 0.00157275 0.0030054)
(-0.0119014 0.000355686 0.00160354)
(-0.0144225 0.000629724 0.000399247)
(-0.0155451 0.00267192 -0.00039522)
(-0.0159245 0.00707958 -0.00093065)
(-0.01688 0.0128659 0.000346395)
(-0.0183046 0.0178818 0.00558694)
(-0.0198147 0.0194913 0.0153816)
(-0.0206872 0.0131994 0.0227628)
(0.0224714 0.0238446 0.00433183)
(0.0277665 0.0197311 0.00502792)
(0.0169361 0.012729 0.000941796)
(0.0201881 0.0145155 0.00144904)
(0.0133737 0.0077787 8.88194e-05)
(0.0136832 0.00879583 0.000772426)
(0.00672365 0.00328573 0.000966211)
(0.00435063 0.00362299 0.0016545)
(0.0012551 0.00120494 0.0021224)
(0.0015893 0.00267449 0.0026479)
(0.00180148 0.00230463 0.00303981)
(0.00257955 0.00313915 0.00372402)
(0.00275472 0.00297961 0.00393773)
(0.00314576 0.00317102 0.00410969)
(0.00315405 0.00275902 0.00404619)
(0.00321122 0.00254546 0.00406886)
(0.00301466 0.00209939 0.00403688)
(0.0029113 0.00186283 0.00405948)
(0.0027296 0.00155477 0.00405781)
(0.00260866 0.00138348 0.0040769)
(0.00246885 0.00120318 0.00408609)
(0.00235933 0.00110025 0.00410578)
(0.00225603 0.00101145 0.00412451)
(0.00216928 0.000961234 0.00414907)
(0.00209156 0.000928979 0.00417373)
(0.00202464 0.00091568 0.00419967)
(0.00196668 0.000909922 0.00422492)
(0.00191462 0.000908271 0.00424896)
(0.00186621 0.000910259 0.00427217)
(0.00182076 0.000910693 0.00429401)
(0.0017787 0.000917921 0.00431373)
(0.00173312 0.000908288 0.00432946)
(0.00170232 0.000936303 0.00434861)
(0.00164276 0.000877429 0.00435429)
(0.00164813 0.000984971 0.0043816)
(0.00155039 0.000773077 0.00437523)
(0.00162469 0.0010992 0.00441678)
(0.00145488 0.000565908 0.00439091)
(0.0016347 0.00133896 0.00444493)
(0.00136987 0.000249822 0.0043912)
(0.00168151 0.00177271 0.00444843)
(0.00131606 -0.000155184 0.00435219)
(0.00176807 0.00247068 0.00441575)
(0.00137146 -0.000637323 0.00429296)
(0.00198047 0.00346001 0.00442273)
(0.00159994 -0.00129938 0.00430192)
(0.00221538 0.00466082 0.00445485)
(0.00184989 -0.00251499 0.00427246)
(0.00225524 0.00609273 0.0040092)
(0.00219173 -0.0052178 0.0039629)
(0.00258636 0.00755779 0.00301887)
(0.00124791 -0.0100668 0.00528441)
(0.0103734 0.0101342 0.00851902)
(0.0131003 -0.0251807 0.0116448)
(0.0255691 0.0185819 0.030947)
(0.0140534 -0.0498178 0.0300455)
(-0.00118588 0.0581063 0.0600453)
(-0.107661 -0.131868 0.0435656)
(-0.00985973 0.201581 -0.161135)
(0.145688 -0.0830671 0.00468407)
(0.168676 0.45271 0.00482918)
(0.0623108 0.589418 -0.0016578)
(0.0595821 0.509699 0.00726096)
(0.0141059 0.526447 0.00583458)
(0.0114211 0.435291 0.00444779)
(-0.00634302 0.374605 -0.00107938)
(-0.00980869 0.366646 -0.00486282)
(-0.0134057 0.366148 -0.0067906)
(-0.0145557 0.375532 -0.0083174)
(-0.0155336 0.38833 -0.00810353)
(-0.0152063 0.399484 -0.00701345)
(-0.0140589 0.408952 -0.00491584)
(-0.0118076 0.41011 -0.00279095)
(-0.00929547 0.406386 -0.00080955)
(-0.00663948 0.393914 0.00067047)
(-0.00426461 0.366447 0.0020196)
(-0.00171088 0.332203 0.00310819)
(0.000763739 0.290842 0.00390899)
(0.00273844 0.246963 0.00460897)
(0.00395145 0.197054 0.00517947)
(0.00424359 0.155596 0.00554822)
(0.0038779 0.118084 0.00567294)
(0.00303908 0.082728 0.00552742)
(0.00184149 0.0528516 0.00534936)
(0.000287621 0.0390059 0.00504262)
(-0.00156361 0.0308166 0.00466323)
(-0.00378417 0.0243157 0.00386429)
(-0.00650701 0.0188467 0.002753)
(-0.00977391 0.0149715 0.00149563)
(-0.0130088 0.0129026 0.000492466)
(-0.0157306 0.0125422 -0.00029645)
(-0.0179543 0.0141365 -0.00087972)
(-0.020436 0.0173569 0.000529913)
(-0.0235216 0.0198597 0.0060345)
(-0.0270776 0.0197144 0.0150364)
(-0.0308996 0.0128966 0.0213556)
(0.0206785 0.0236481 0.00650643)
(0.0289332 0.0224349 0.00659898)
(0.0168513 0.0127585 0.00190866)
(0.021404 0.0159794 0.00310439)
(0.0146579 0.00661354 0.000675798)
(0.0157184 0.00928613 0.000656795)
(0.00910671 0.00312736 -0.000379169)
(0.00634418 0.00455061 0.00037707)
(0.00184646 0.000799584 0.00126045)
(0.000961985 0.00183021 0.00205305)
(0.000486947 0.000720284 0.00261616)
(0.00105697 0.00192101 0.00355609)
(0.00131693 0.00201725 0.00389729)
(0.00181006 0.00263962 0.0042233)
(0.00190004 0.00236487 0.00424737)
(0.00196769 0.00231283 0.00434443)
(0.00173532 0.00193116 0.00432198)
(0.0015937 0.00179948 0.00434723)
(0.00137764 0.0015586 0.00431534)
(0.00123722 0.00145843 0.0042992)
(0.00108745 0.00132021 0.00426317)
(0.000976006 0.00124952 0.00423726)
(0.000876048 0.00117856 0.00420986)
(0.000795326 0.00114071 0.00418876)
(0.000727963 0.00111421 0.0041694)
(0.000675827 0.00110501 0.00415514)
(0.000635944 0.00110134 0.00414421)
(0.000602764 0.00110419 0.00413477)
(0.000573635 0.00110987 0.00412681)
(0.000548033 0.00111489 0.00411947)
(0.000525828 0.00112475 0.00411265)
(0.000500385 0.0011193 0.00410387)
(0.000486974 0.0011462 0.00410016)
(0.000450168 0.00109508 0.00408474)
(0.000474789 0.00119873 0.004096)
(0.000397481 0.00101263 0.00406415)
(0.000491418 0.00133142 0.00410138)
(0.000339182 0.000855843 0.00404263)
(0.000539824 0.00160244 0.00411246)
(0.000295712 0.000619006 0.00401896)
(0.000608771 0.00206539 0.00410559)
(0.000293563 0.000307396 0.0039712)
(0.000666318 0.00275262 0.00404947)
(0.000411233 -7.53314e-05 0.00392773)
(0.000761431 0.00367844 0.00400272)
(0.000696064 -0.000545127 0.00397152)
(0.00104139 0.00491275 0.00404884)
(0.00110833 -0.00159054 0.00397858)
(0.00189232 0.00637864 0.00394475)
(0.00195223 -0.00420637 0.00364049)
(0.00312459 0.00767614 0.00300797)
(0.00234024 -0.00906948 0.00625745)
(0.00891604 0.00846481 0.0112762)
(0.00687875 -0.0114096 0.0189627)
(0.0123613 0.0261143 0.0436476)
(-0.00911094 -0.0248505 0.0541129)
(0.0143754 0.0419994 0.099019)
(-0.0872003 -0.125083 0.080939)
(0.032106 0.0777496 -0.16575)
(0.0917025 -0.0196945 0.0156671)
(0.162793 0.481475 -0.000735215)
(0.0559835 0.591834 -0.00406296)
(0.055572 0.56157 0.00451684)
(0.0189898 0.603734 0.00261809)
(0.00856468 0.590774 0.000790884)
(-0.00409621 0.597839 -0.00253524)
(-0.00831009 0.600306 -0.00369891)
(-0.0125788 0.596251 -0.00394106)
(-0.0146072 0.59756 -0.00290381)
(-0.0160223 0.601663 -0.00123823)
(-0.0158763 0.613112 0.000960678)
(-0.0145499 0.609681 0.00283014)
(-0.0118346 0.616346 0.00457566)
(-0.00877347 0.62758 0.0057831)
(-0.00541813 0.622874 0.00686061)
(-0.00172314 0.613829 0.00760218)
(0.00184225 0.612692 0.00811743)
(0.00461611 0.603655 0.00841757)
(0.00651091 0.591714 0.00854568)
(0.00739525 0.582702 0.00836526)
(0.00695608 0.557058 0.00813019)
(0.00594519 0.537481 0.00776201)
(0.00471877 0.506383 0.00723562)
(0.00340231 0.464228 0.00666548)
(0.00186752 0.39707 0.00614299)
(-0.000497329 0.329658 0.00562346)
(-0.00374083 0.275594 0.00474521)
(-0.00717788 0.183153 0.00377162)
(-0.0106732 0.0945445 0.00290938)
(-0.0143154 0.0444969 0.00208369)
(-0.017236 0.0236664 0.00136941)
(-0.0200031 0.0199709 0.00117688)
(-0.022879 0.0191757 0.00308316)
(-0.0257794 0.0182775 0.00769614)
(-0.0292984 0.0167409 0.0147005)
(-0.0330236 0.0113276 0.0191017)
(0.0162979 0.0225937 0.0062682)
(0.0283547 0.0261487 0.00830015)
(0.0142275 0.0123132 0.00358099)
(0.0203555 0.0179858 0.00621108)
(0.0131807 0.00511909 0.00323245)
(0.0151035 0.00878025 0.00290916)
(0.00944633 0.00153278 0.000831985)
(0.00715362 0.00432309 0.000335177)
(0.00212961 0.000376224 0.000965897)
(0.000372417 0.00169288 0.00201969)
(-0.00113033 -0.000308025 0.00255493)
(-0.00150289 0.000956374 0.00343386)
(-0.00170689 0.00110871 0.00383435)
(-0.00113326 0.00200431 0.00440143)
(-0.00101791 0.0017981 0.00460509)
(-0.000969627 0.00194512 0.00480219)
(-0.0013192 0.001677 0.00477328)
(-0.00157582 0.00170177 0.0047654)
(-0.00188212 0.00156224 0.00468322)
(-0.00207234 0.00156569 0.00462339)
(-0.00224905 0.00149792 0.00454279)
(-0.00236645 0.00148967 0.00447959)
(-0.00246068 0.00146128 0.00441851)
(-0.00252561 0.00145635 0.00437114)
(-0.0025704 0.00145105 0.0043313)
(-0.00259668 0.00145377 0.00430164)
(-0.00260882 0.00145808 0.00427864)
(-0.00261071 0.0014652 0.00426183)
(-0.00260619 0.00147251 0.00424904)
(-0.00259646 0.0014794 0.00423825)
(-0.00258418 0.00148883 0.00422918)
(-0.00257055 0.00148773 0.00422147)
(-0.00255436 0.00150802 0.00421796)
(-0.0025502 0.00147001 0.00421023)
(-0.00251382 0.00156058 0.00421996)
(-0.00253679 0.00141074 0.00420196)
(-0.00245849 0.00169875 0.00423974)
(-0.00252199 0.00130045 0.00420601)
(-0.00238409 0.00197926 0.00428583)
(-0.00248248 0.00112882 0.00423243)
(-0.0023088 0.00244089 0.00432465)
(-0.00240054 0.000867616 0.00424879)
(-0.00226515 0.00308919 0.00430111)
(-0.002212 0.000443233 0.0042528)
(-0.00225543 0.0039454 0.00420939)
(-0.00189186 -0.000124283 0.00425157)
(-0.00194261 0.00513108 0.00415613)
(-0.00132143 -0.00120169 0.00431842)
(-0.000669329 0.00659034 0.00439167)
(8.06386e-05 -0.00329178 0.00415397)
(0.000867405 0.00806135 0.00348462)
(0.00176626 -0.00756385 0.0055484)
(-4.92245e-06 0.00759591 0.0101335)
(-0.00734832 -0.0132633 0.0146395)
(-0.00983496 0.0159365 0.0365043)
(-0.0258168 -0.0332495 0.0539517)
(0.00812193 -0.00800187 0.0917788)
(-0.0317628 -0.11447 0.0845536)
(0.0330498 -0.0483224 -0.165572)
(0.0512465 0.0645459 0.0184812)
(0.0943839 0.570916 -0.00423758)
(0.0357684 0.644406 -0.00526607)
(0.0350415 0.604559 0.0044045)
(0.0172931 0.676567 0.00667639)
(0.00921059 0.641781 0.00732591)
(-0.000682281 0.658263 0.00545231)
(-0.00599256 0.651956 0.0051135)
(-0.0108683 0.640181 0.00497275)
(-0.0139703 0.656872 0.00569248)
(-0.0157122 0.640755 0.00665007)
(-0.015605 0.661673 0.00760699)
(-0.014385 0.667413 0.00821817)
(-0.011698 0.670198 0.00890747)
(-0.00855665 0.64955 0.00943605)
(-0.00468327 0.635712 0.010318)
(-6.98557e-06 0.655317 0.0106381)
(0.00390344 0.660213 0.0108543)
(0.00770831 0.634158 0.0110005)
(0.0116543 0.656558 0.0110652)
(0.0146506 0.644808 0.0107588)
(0.0155131 0.621345 0.0106413)
(0.0156647 0.626952 0.0104345)
(0.0147323 0.619309 0.010024)
(0.0127672 0.603606 0.00923293)
(0.0103804 0.584296 0.00821337)
(0.00748209 0.551715 0.00756682)
(0.00375454 0.533663 0.00635151)
(-0.000418831 0.504641 0.0051741)
(-0.00554764 0.446891 0.0036495)
(-0.0102167 0.389024 0.00248963)
(-0.015194 0.334622 0.00176138)
(-0.0200031 0.301962 0.00183345)
(-0.0253346 0.282197 0.00390463)
(-0.0310277 0.245438 0.00770077)
(-0.0387562 0.235053 0.0122206)
(-0.0465606 0.307627 0.0143798)
(0.0120033 0.0177941 0.00440325)
(0.0265374 0.0294565 0.00845149)
(0.00978795 0.0114747 0.00448966)
(0.017458 0.0205399 0.00810339)
(0.0103187 0.00482122 0.00533822)
(0.0125428 0.00919485 0.00504276)
(0.00727931 0.000280492 0.00311357)
(0.00614688 0.00393259 0.00166629)
(0.00141793 -0.00030397 0.00172677)
(-0.000350904 0.00163578 0.00266764)
(-0.00218769 -0.000825336 0.00322851)
(-0.00292309 0.000329211 0.00400395)
(-0.00308254 -0.000146408 0.00466915)
(-0.00236204 0.000764398 0.00542137)
(-0.00220344 0.000570748 0.00591775)
(-0.00218108 0.00114247 0.0062908)
(-0.00250446 0.00114415 0.00641101)
(-0.00268756 0.00149466 0.00647087)
(-0.00292443 0.00154117 0.00641363)
(-0.00304266 0.00171527 0.00635835)
(-0.00316011 0.00174933 0.00627554)
(-0.00322013 0.00181967 0.00621231)
(-0.00326296 0.00183808 0.00615232)
(-0.00327811 0.00186407 0.00611127)
(-0.00327414 0.00187831 0.00608038)
(-0.00325291 0.00189204 0.00606142)
(-0.00322224 0.00190283 0.00604839)
(-0.00318538 0.00191176 0.00604069)
(-0.00314596 0.00191825 0.00603768)
(-0.00310351 0.0019236 0.00603809)
(-0.00305996 0.00193006 0.00604105)
(-0.00301352 0.00192713 0.00604625)
(-0.00297056 0.00194021 0.00605359)
(-0.00293181 0.00191032 0.00606023)
(-0.00287929 0.00199197 0.00607557)
(-0.00286266 0.00187053 0.00606968)
(-0.00278884 0.00214158 0.00609621)
(-0.00280286 0.00179189 0.00606456)
(-0.00269021 0.0024301 0.00611455)
(-0.00271738 0.0016486 0.0060517)
(-0.00258628 0.00288187 0.00611682)
(-0.00255234 0.00138853 0.00602776)
(-0.00248903 0.00350665 0.00607227)
(-0.00226994 0.000888506 0.00599702)
(-0.00251326 0.00431804 0.00591751)
(-0.00189846 6.03254e-05 0.00595112)
(-0.00227652 0.00540185 0.00577971)
(-0.00132341 -0.0013939 0.00604127)
(-0.00118048 0.00694062 0.00638577)
(4.00914e-05 -0.00366937 0.00635759)
(0.000493418 0.00882718 0.00660484)
(0.00379032 -0.00782564 0.00777108)
(0.000539465 0.00854782 0.0119616)
(-0.00678117 -0.0155321 0.0144058)
(-0.0171813 0.0120167 0.0326727)
(-0.024733 -0.0412659 0.050146)
(-0.010626 -0.0251054 0.0855909)
(0.0150221 -0.0953533 0.0803444)
(0.00191392 -0.0851644 -0.152116)
(-0.00538979 0.107495 0.0160077)
(-0.011511 0.612937 -0.0103374)
(-0.00293463 0.705796 -0.00497889)
(0.00158022 0.720132 0.00833247)
(0.00274706 0.746983 0.0109558)
(0.00107283 0.747978 0.0124076)
(-0.00270543 0.743854 0.0115754)
(-0.00652045 0.751308 0.0113178)
(-0.0089427 0.763466 0.0110724)
(-0.0112663 0.74713 0.0111665)
(-0.0121631 0.750208 0.0114388)
(-0.0117256 0.743773 0.0118707)
(-0.010312 0.743554 0.0122288)
(-0.00762263 0.738611 0.0127747)
(-0.00379437 0.732363 0.0132371)
(0.000984993 0.723606 0.0139694)
(0.00557945 0.715135 0.014345)
(0.0105115 0.708537 0.0147729)
(0.0145772 0.707393 0.0149632)
(0.018504 0.701734 0.0151141)
(0.0216689 0.696413 0.0151326)
(0.0237701 0.69115 0.015221)
(0.0244271 0.685819 0.0154463)
(0.0236549 0.679126 0.0158927)
(0.0219401 0.671615 0.0164965)
(0.0196705 0.661311 0.0169152)
(0.0167622 0.644834 0.0174236)
(0.0134568 0.633278 0.0175989)
(0.00933002 0.620521 0.0175656)
(0.00518172 0.602827 0.0170887)
(-0.00042638 0.593663 0.0160151)
(-0.00640981 0.562263 0.0143056)
(-0.013588 0.540132 0.0118495)
(-0.0207909 0.517637 0.00866442)
(-0.0290545 0.483501 0.00286504)
(-0.039774 0.472469 -0.00972398)
(-0.0475579 0.455277 -0.027518)
(0.000876734 0.0140765 -0.00718014)
(0.0240397 0.0317222 0.00541121)
(0.00311224 0.0107574 0.00189472)
(0.0128557 0.0235813 0.00594874)
(0.00577845 0.0058704 0.00377572)
(0.00863091 0.0110663 0.00367328)
(0.0037528 0.000687852 0.00200189)
(0.00340316 0.00466158 0.000310726)
(-0.000624449 -1.3191e-05 -0.000637183)
(-0.00232473 0.00202037 -0.000428716)
(-0.00441239 -0.000840506 2.00338e-05)
(-0.00534995 0.000159823 0.000580285)
(-0.0063227 -0.00101669 0.00126911)
(-0.00602535 -7.61149e-05 0.00198956)
(-0.00636345 -0.00014971 0.00262631)
(-0.00646821 0.000716019 0.00306794)
(-0.00692085 0.000859899 0.00334512)
(-0.00713201 0.00137966 0.00351538)
(-0.00739533 0.00150985 0.00358188)
(-0.00750793 0.00177322 0.00361699)
(-0.00760694 0.00186575 0.00361161)
(-0.00764662 0.00198014 0.00361043)
(-0.00766591 0.00202908 0.00360566)
(-0.007661 0.0020736 0.00361168)
(-0.00763817 0.00209902 0.00362253)
(-0.00759689 0.00212076 0.00364005)
(-0.0075379 0.0021366 0.00366069)
(-0.00746604 0.00214919 0.00368431)
(-0.00739113 0.00215919 0.00370904)
(-0.0073132 0.00216775 0.00373342)
(-0.00723398 0.00217702 0.00375662)
(-0.00715069 0.00218018 0.00377829)
(-0.0070818 0.00219662 0.00379791)
(-0.00701567 0.00218003 0.00381556)
(-0.00695975 0.0022551 0.00383286)
(-0.00689469 0.00216323 0.00383974)
(-0.00685208 0.00240853 0.00385225)
(-0.0067638 0.00211211 0.00384414)
(-0.00675198 0.00270471 0.00384969)
(-0.00659557 0.00200767 0.00382576)
(-0.00667013 0.00317777 0.00382483)
(-0.0063859 0.00175986 0.00378755)
(-0.00660092 0.00378573 0.00376409)
(-0.00608136 0.00123022 0.00372572)
(-0.00652864 0.00459775 0.00360985)
(-0.00569891 0.000322422 0.00361066)
(-0.00613109 0.00572611 0.00341699)
(-0.00513186 -0.00137957 0.00356611)
(-0.00507741 0.00733065 0.00407115)
(-0.00382022 -0.0044354 0.00395107)
(-0.0038705 0.00916796 0.00475791)
(0.000360281 -0.00848201 0.00611016)
(-0.00598972 0.0114531 0.00831297)
(-0.0121464 -0.0167783 0.0108394)
(-0.0237973 0.0189849 0.0245631)
(-0.0182268 -0.0525372 0.0388851)
(-0.0293125 -0.0237504 0.065044)
(0.0509311 -0.12571 0.0674916)
(-0.0351984 -0.0258471 -0.168305)
(-0.0566648 0.0488728 0.00673662)
(-0.12318 0.528645 -0.0239557)
(-0.0407354 0.614067 -0.00766645)
(-0.0326706 0.605071 0.00315192)
(-0.0137117 0.637605 0.00703216)
(-0.0103626 0.6375 0.00805611)
(-0.00890474 0.620181 0.00797445)
(-0.0106483 0.638971 0.00801135)
(-0.0118575 0.638093 0.00807927)