/*--------------------------------*- C++ -*----------------------------------*\
| =========                 |                                                 |
| \\      /  F ield         | OpenFOAM: The Open Source CFD Toolbox           |
|  \\    /   O peration     | Version:  2.3.0                                 |
|   \\  /    A nd           | Web:      www.OpenFOAM.org                      |
|    \\/     M anipulation  |                                                 |
\*---------------------------------------------------------------------------*/
FoamFile
{
    version     2.0;
    format      ascii;
    class       volVectorField;
    location    "29";
    object      U.waterMean;
}
// * * * * * * * * * * * * * * * * * * * * * * * * * * * * * * * * * * * * * //

dimensions      [0 1 -1 0 0 0 0];

internalField   nonuniform List<vector> 
6144
(
(0.00858158 0.0192143 -0.00103941)
(0.00876581 0.00188474 -0.00162728)
(0.00482819 0.000192858 -0.00232413)
(0.00472471 -0.00180691 -0.00228215)
(0.00304586 -0.0029298 -0.00184334)
(0.00293964 -0.00211623 -0.00157347)
(0.00233721 -0.00217178 -0.00123932)
(0.00241267 -0.00104459 -0.00104785)
(0.00231577 -0.000489202 -0.00110377)
(0.00231562 0.000663901 -0.000914173)
(0.00227815 0.0014024 -0.000750313)
(0.00240984 0.00193807 -0.000465852)
(0.00254042 0.00183324 -0.000384333)
(0.00267485 0.00150796 -0.000290151)
(0.00273441 0.000971542 -0.000421502)
(0.00279209 0.000555685 -0.000529807)
(0.00281694 0.000163259 -0.000698241)
(0.00284514 -6.98541e-05 -0.000806875)
(0.00286248 -0.000272153 -0.000921889)
(0.00287373 -0.000378157 -0.00098717)
(0.00287612 -0.000464011 -0.00103186)
(0.00287292 -0.000497615 -0.00105083)
(0.00286517 -0.000520317 -0.00105604)
(0.00285474 -0.000521181 -0.00104749)
(0.00284161 -0.000517049 -0.0010294)
(0.00282672 -0.000507207 -0.00100349)
(0.00280998 -0.000495088 -0.000970988)
(0.00279153 -0.000483579 -0.000933286)
(0.00277226 -0.000464133 -0.000891836)
(0.00275155 -0.000460036 -0.000847195)
(0.00273159 -0.00042953 -0.000796698)
(0.00270403 -0.000469857 -0.000734815)
(0.00267809 -0.000423146 -0.000657791)
(0.00263946 -0.0005703 -0.000560083)
(0.00261005 -0.000517883 -0.000433951)
(0.00256553 -0.000895435 -0.000284078)
(0.00254367 -0.000889817 -0.000115492)
(0.00250677 -0.00163882 3.42512e-05)
(0.00250509 -0.00166189 0.000130501)
(0.00249347 -0.00274751 0.000107663)
(0.00250644 -0.00252758 -8.56844e-05)
(0.00252001 -0.00353141 -0.000523474)
(0.00254763 -0.00234977 -0.00109229)
(0.00267344 -0.00258868 -0.00165059)
(0.00291167 -0.000110596 -0.0020783)
(0.00341855 -0.000718021 -0.00230565)
(0.00412757 0.000952923 -0.00280383)
(0.00424259 -0.000859679 -0.00371087)
(0.00249679 0.00449023 -0.00493696)
(0.00303412 0.00842588 -0.00710249)
(0.0118305 0.0160805 -0.00994105)
(0.0228173 0.00173819 -0.0107751)
(0.0304279 -0.0048301 -0.0116004)
(0.0325718 -0.0430011 -0.0117906)
(0.0312475 -0.0378311 -0.0146934)
(0.0300609 -0.0831979 -0.0106504)
(0.014242 -0.043093 -0.020303)
(0.0116431 -0.0986029 0.0155448)
(-0.028506 0.0054253 -0.0527683)
(0.023082 -0.0360778 0.0395988)
(0.129448 -0.290453 0.0711411)
(0.0895521 -0.113052 0.0338597)
(0.0598337 -0.186081 0.0116426)
(0.0491948 -0.192281 0.00628204)
(0.0401533 -0.196132 0.0057257)
(0.0333348 -0.18623 0.00529535)
(0.0273678 -0.188822 0.00425867)
(0.0229626 -0.181663 0.00342225)
(0.0202114 -0.181247 0.00330143)
(0.0184583 -0.174087 0.00351383)
(0.0173555 -0.172044 0.00411602)
(0.016097 -0.165769 0.0044401)
(0.014337 -0.161009 0.00493516)
(0.0116659 -0.152932 0.00491347)
(0.00789625 -0.144026 0.00494928)
(0.00498195 -0.132186 0.00445818)
(0.00325117 -0.120423 0.00340774)
(0.00142666 -0.10724 0.00257212)
(-0.000355768 -0.0922279 0.00260308)
(0.000410756 -0.0765025 0.00260077)
(0.00300095 -0.0633496 0.00228367)
(0.00482538 -0.0526933 0.00234303)
(0.00547804 -0.0458375 0.00369228)
(0.00441914 -0.0414427 0.00409389)
(0.00393211 -0.0361893 0.00352987)
(0.0038914 -0.0312883 0.00302777)
(0.00342552 -0.0259851 0.00280912)
(0.00240448 -0.0194499 0.00168786)
(0.000889878 -0.0121159 -0.000111155)
(-0.000366495 -0.00195372 -0.00193856)
(0.000725773 0.00777699 -0.00213273)
(0.00167363 0.0150659 -0.000740132)
(0.00213071 0.0198976 0.00241281)
(0.0030305 0.0211245 0.00592878)
(0.0051788 0.0186553 0.00888015)
(0.00672402 0.00835512 0.0130716)
(0.017398 0.0217354 0.00251319)
(0.0181782 0.00940914 0.00211938)
(0.0106016 0.00665756 1.12888e-05)
(0.0108417 0.00462307 0.000842564)
(0.00662908 0.00122363 0.00137288)
(0.00624656 0.000962613 0.00178145)
(0.00432011 -0.000542439 0.00214196)
(0.00423264 0.000544939 0.0019613)
(0.00387091 0.000949544 0.00176042)
(0.0040048 0.00220102 0.00179727)
(0.00409866 0.00270041 0.00186627)
(0.00455754 0.00310524 0.00220126)
(0.00488122 0.00278536 0.00233189)
(0.00522371 0.00241238 0.00245115)
(0.00532074 0.00175742 0.00238927)
(0.00542874 0.00125984 0.00234365)
(0.00542938 0.000753609 0.002249)
(0.00546342 0.000443143 0.00219494)
(0.00547193 0.000164205 0.00211572)
(0.00548058 8.78441e-06 0.00207768)
(0.00546943 -0.000119769 0.00205179)
(0.00545054 -0.000180217 0.00205271)
(0.00542262 -0.000222962 0.00206609)
(0.00538988 -0.000235737 0.00209428)
(0.00535318 -0.000239711 0.00213039)
(0.00531371 -0.000234193 0.00217316)
(0.00527154 -0.000224911 0.00222003)
(0.00522594 -0.000215714 0.0022707)
(0.00517822 -0.000200193 0.00232399)
(0.00513003 -0.000201664 0.00237184)
(0.00508764 -0.00018147 0.00241871)
(0.00503267 -0.000243667 0.00247071)
(0.00499112 -0.000216109 0.00253003)
(0.00492842 -0.000410655 0.00259583)
(0.00490823 -0.000374836 0.00267745)
(0.00486196 -0.000822935 0.00276539)
(0.00489462 -0.00079743 0.00286612)
(0.00488266 -0.00162526 0.00294901)
(0.00496144 -0.00154793 0.00300601)
(0.00495687 -0.00272572 0.0029833)
(0.00497789 -0.00231604 0.00285416)
(0.00491402 -0.00346964 0.00247098)
(0.00489676 -0.00205044 0.00176841)
(0.00484475 -0.00262089 0.000999645)
(0.00522403 1.55429e-05 0.000501311)
(0.0062639 -0.00104816 0.000269127)
(0.00692815 0.00148703 -0.00061412)
(0.00582677 0.00170669 -0.00181901)
(0.00398486 0.00812235 -0.00229643)
(0.00737906 0.00543497 -0.00316815)
(0.0248117 0.00416055 -0.00459182)
(0.0410102 -0.0130902 -0.00413206)
(0.0554934 -0.0152333 -0.00100736)
(0.0585967 -0.0469612 0.00146679)
(0.0533019 -0.0346906 0.00546862)
(0.0568802 -0.0968625 0.0146774)
(0.0167868 -0.0526448 0.0106994)
(0.00903682 -0.164959 0.0395988)
(-0.078503 0.024303 -0.0879953)
(0.00385358 -0.0809271 0.012444)
(0.165856 -0.263822 0.113637)
(0.0861203 -0.00212587 0.0475073)
(0.0260858 -0.115096 0.0113332)
(0.0261943 -0.0556366 0.0139791)
(0.0151752 -0.0761167 0.0140133)
(0.00777491 -0.0604475 0.0117889)
(0.00458777 -0.0634551 0.00973799)
(0.00496609 -0.0554734 0.00999933)
(0.00631722 -0.0553986 0.0108266)
(0.00595484 -0.0501983 0.0100406)
(0.00430508 -0.0504903 0.0109748)
(0.00188383 -0.0483943 0.0119058)
(-0.000153817 -0.0502133 0.0118954)
(-0.00270851 -0.0502713 0.0104537)
(-0.00460376 -0.0506673 0.00894831)
(-0.00515661 -0.0487069 0.00806852)
(-0.00542891 -0.0457954 0.00650941)
(-0.00762124 -0.0410049 0.00680816)
(-0.0094179 -0.0359173 0.0066366)
(-0.00771315 -0.0304375 0.00654703)
(-0.00528357 -0.0250207 0.00627051)
(-0.00259643 -0.0194236 0.00749778)
(-0.000615832 -0.0182086 0.00992323)
(-0.000902643 -0.0190719 0.0106155)
(-0.00209215 -0.0188433 0.00985541)
(-0.00227476 -0.0182724 0.0098757)
(-0.0026982 -0.0166483 0.00940384)
(-0.00376941 -0.0137126 0.00805049)
(-0.00435247 -0.0105437 0.00599279)
(-0.00425555 -0.00636214 0.00293799)
(-0.00308767 -0.00137968 0.00138828)
(-0.00140374 0.00399305 0.000215366)
(-0.000435456 0.0105851 0.00221433)
(0.00148447 0.013087 0.00734541)
(0.00440297 0.0123809 0.0120369)
(0.00628934 0.00471516 0.0171629)
(0.0208788 0.0219353 0.00366071)
(0.0224046 0.0130704 0.0034079)
(0.0138567 0.00956794 0.00108195)
(0.0143544 0.00890602 0.00197635)
(0.0084439 0.00448344 0.00237531)
(0.00754557 0.00374163 0.002856)
(0.00411093 0.00104314 0.00338201)
(0.00374883 0.00185013 0.00325567)
(0.00309161 0.00194757 0.00310621)
(0.00349457 0.00299274 0.00320238)
(0.00362866 0.00301576 0.00323613)
(0.00436742 0.00330092 0.00349387)
(0.00475307 0.00289373 0.00360538)
(0.00520594 0.00266318 0.00371947)
(0.00531954 0.00208711 0.0036879)
(0.00544748 0.00167203 0.00368442)
(0.00538793 0.00116797 0.00364578)
(0.00538651 0.000846133 0.00364485)
(0.00531481 0.000528448 0.00364089)
(0.0052717 0.00034509 0.0036589)
(0.00520278 0.00018343 0.00367784)
(0.0051432 9.71345e-05 0.00370872)
(0.00507862 3.21196e-05 0.00374082)
(0.00501726 3.17627e-06 0.0037782)
(0.00495622 -1.27322e-05 0.00381691)
(0.00489685 -1.58088e-05 0.00385695)
(0.00483747 -1.44307e-05 0.00389716)
(0.00477714 -1.43078e-05 0.00393799)
(0.00471652 -1.46397e-05 0.00397964)
(0.00465278 -3.70052e-05 0.00402324)
(0.00459415 -4.45647e-05 0.00406946)
(0.00452337 -0.000129766 0.00411729)
(0.00447103 -0.000134956 0.00416787)
(0.00439309 -0.000342345 0.00421905)
(0.00437678 -0.00031511 0.0042763)
(0.00433037 -0.00071331 0.00433099)
(0.00439295 -0.000600322 0.00438993)
(0.0043927 -0.00123571 0.00442885)
(0.00452121 -0.000903121 0.0044492)
(0.00453279 -0.00171774 0.00441256)
(0.00463771 -0.000922457 0.00430956)
(0.00453011 -0.00180978 0.00410342)
(0.00444831 -0.000335709 0.00377251)
(0.00438424 -0.00129796 0.00330253)
(0.00490168 0.000708645 0.00284237)
(0.00595399 -0.000685958 0.00250724)
(0.00634133 0.00250603 0.00169741)
(0.00554524 0.00175857 0.000638392)
(0.00577848 0.00648279 0.000515993)
(0.0149983 -0.00239748 -8.51457e-05)
(0.0379678 -0.00398599 -0.000904729)
(0.0598291 -0.0165055 0.0014099)
(0.0720936 -0.0116367 0.00720528)
(0.0778189 -0.0356439 0.0101472)
(0.0778666 -0.0178304 0.0190177)
(0.0821224 -0.0857647 0.0293939)
(0.0301966 -0.0253553 0.0381799)
(0.0391283 -0.186818 0.0732499)
(-0.0843688 0.0641551 -0.0726821)
(0.025825 -0.114851 -0.0210082)
(0.190095 -0.242442 0.122532)
(0.104679 0.045511 0.0550562)
(0.0676535 -0.0932826 0.0295258)
(0.0463247 -0.00884678 0.0150168)
(0.0299476 -0.0366396 0.0134538)
(0.0183775 -0.0143599 0.0128787)
(0.0170038 -0.0208278 0.0141502)
(0.0144902 -0.0125793 0.0123433)
(0.0154688 -0.0106745 0.0106043)
(0.0153712 -0.00541594 0.0111139)
(0.0136087 -0.00902119 0.0119879)
(0.010779 -0.0101005 0.0123277)
(0.00849377 -0.0145518 0.0111298)
(0.00588251 -0.0149419 0.00953722)
(0.00280573 -0.0154346 0.00732535)
(-0.000595282 -0.0132197 0.00577015)
(-0.00320479 -0.0105155 0.0061504)
(-0.00505005 -0.00846037 0.00775072)
(-0.00649426 -0.00800674 0.0082358)
(-0.00632382 -0.00719945 0.00837264)
(-0.00503575 -0.00539177 0.00793504)
(-0.00250184 -0.00421866 0.0095149)
(-0.000566788 -0.00481419 0.012953)
(-0.00316879 -0.00644132 0.0132865)
(-0.0058972 -0.0079413 0.0122568)
(-0.00711457 -0.00811651 0.0121032)
(-0.0072117 -0.00654907 0.0105229)
(-0.00732725 -0.00469269 0.00810742)
(-0.00716394 -0.0019662 0.00662488)
(-0.00621244 0.000680817 0.00453236)
(-0.00431832 0.00407406 0.00335733)
(-0.0035672 0.00670127 0.00387863)
(-0.00205155 0.00960322 0.00605096)
(0.000130336 0.00996299 0.00988055)
(0.00155909 0.00844138 0.0143612)
(0.00134195 0.00111367 0.0189304)
(0.0223093 0.0220914 0.00394409)
(0.0255935 0.0155307 0.00405645)
(0.0154047 0.0105403 0.000927043)
(0.0173286 0.0114903 0.0013771)
(0.0107805 0.00625118 0.00132347)
(0.0101182 0.00611685 0.00198225)
(0.00448771 0.00157747 0.00282825)
(0.00331796 0.00200595 0.00286559)
(0.00199523 0.00141385 0.00299764)
(0.0027208 0.00278833 0.00324848)
(0.00287011 0.00255922 0.0033944)
(0.003592 0.00300089 0.00380017)
(0.00389829 0.00270645 0.00397035)
(0.00435599 0.00270078 0.0041147)
(0.0044665 0.00222255 0.00407806)
(0.00460349 0.00191538 0.00408391)
(0.0045192 0.00142598 0.00405504)
(0.00450251 0.00112306 0.00407047)
(0.00439905 0.000786896 0.00407633)
(0.00433323 0.000585427 0.00410368)
(0.00423974 0.000397262 0.00412971)
(0.00415837 0.000290229 0.00416632)
(0.00407014 0.000204692 0.00420217)
(0.00398886 0.000159586 0.00424186)
(0.00391086 0.000131075 0.00428198)
(0.00383757 0.000118725 0.00432335)
(0.0037677 0.000111933 0.00436491)
(0.0037005 0.00010532 0.00440661)
(0.00363649 9.68322e-05 0.00444837)
(0.00357551 6.86366e-05 0.00449077)
(0.00352422 4.98391e-05 0.00453437)
(0.00346651 -3.60961e-05 0.00457875)
(0.00343356 -4.61147e-05 0.00462314)
(0.0033789 -0.000230405 0.00466437)
(0.00339338 -0.000177883 0.00470195)
(0.00336445 -0.000499915 0.00472766)
(0.00345056 -0.00028952 0.00474146)
(0.00343552 -0.000750172 0.00472516)
(0.00355896 -0.000199557 0.00468074)
(0.00352582 -0.000723553 0.00459248)
(0.00366248 0.000392792 0.00446834)
(0.00366199 -0.000268651 0.00430862)
(0.00388276 0.00114485 0.00411587)
(0.00393098 -0.000319032 0.00391003)
(0.00418854 0.00116757 0.00377024)
(0.00469242 -0.000661484 0.00363516)
(0.00537624 0.00238085 0.00311924)
(0.00548275 0.000244977 0.002525)
(0.00836092 0.00241419 0.00283437)
(0.0189766 -0.00915069 0.00135466)
(0.0426159 -0.00802165 0.00153824)
(0.0646869 -0.0109123 0.00845533)
(0.0776459 0.00290359 0.016458)
(0.0828785 -0.00956603 0.022494)
(0.0824246 0.018656 0.0382773)
(0.0828508 -0.0481767 0.0508244)
(0.0323647 0.0492259 0.0943492)
(0.0664567 -0.203608 0.12966)
(-0.102841 0.186221 -0.0423741)
(0.0251813 -0.20566 0.00749838)
(0.169358 -0.20663 0.132924)
(0.0760229 0.0720363 0.0431304)
(0.0446183 -0.0583238 0.0293152)
(0.0116005 0.0385219 0.0032142)
(0.00733058 0.0138876 0.009463)
(0.00119774 0.037237 0.0100466)
(0.0024397 0.0331643 0.0106678)
(0.0022988 0.0425715 0.00919951)
(0.00534492 0.0402305 0.00825378)
(0.00687521 0.0438107 0.00815464)
(0.00708979 0.0390541 0.00815952)
(0.00595357 0.0384013 0.00646905)
(0.00385937 0.0356488 0.00465711)
(0.000755221 0.0357239 0.00369839)
(-0.00138616 0.0352723 0.00358093)
(-0.00435097 0.0334249 0.00571674)
(-0.00752166 0.0288875 0.00800515)
(-0.0101916 0.0253134 0.0102306)
(-0.0117796 0.0213098 0.0114495)
(-0.0117186 0.020254 0.0110064)
(-0.010829 0.0193934 0.0115619)
(-0.0106025 0.0196242 0.0114688)
(-0.0104223 0.0195293 0.0128751)
(-0.0107826 0.0174207 0.0128525)
(-0.0132006 0.0154957 0.0119546)
(-0.0145714 0.0135771 0.0107267)
(-0.0134286 0.0143603 0.00740593)
(-0.012518 0.0154789 0.00609996)
(-0.0112977 0.0145985 0.00526003)
(-0.00918781 0.0147896 0.00333394)
(-0.00739701 0.0156173 0.00358986)
(-0.00576342 0.0148572 0.00531565)
(-0.00442867 0.0138437 0.00823279)
(-0.00262113 0.0110589 0.0128915)
(-0.00349738 0.00809348 0.0162728)
(-0.00603143 0.000364365 0.0194945)
(0.0223536 0.022176 0.00446586)
(0.0277812 0.018161 0.00514226)
(0.0163315 0.0108478 0.00105567)
(0.0194728 0.0131166 0.0015199)
(0.0127072 0.0064437 0.000462655)
(0.0130674 0.00774044 0.000890974)
(0.00629588 0.00226293 0.00117583)
(0.00406121 0.00266318 0.00183166)
(0.00101188 0.000340218 0.00232788)
(0.00139591 0.0017865 0.002846)
(0.00140807 0.0013873 0.00311662)
(0.00198194 0.00224641 0.00375908)
(0.00211288 0.00219769 0.00398406)
(0.00256121 0.00249191 0.0041777)
(0.00266447 0.00214727 0.00411654)
(0.00277316 0.00194433 0.00413517)
(0.00261544 0.00148721 0.00410103)
(0.00251694 0.00122756 0.00412407)
(0.00233496 0.000904201 0.00412189)
(0.00221117 0.000714292 0.00413887)
(0.00206667 0.000515058 0.00414573)
(0.00194987 0.000391612 0.00416401)
(0.00183638 0.000287226 0.00418175)
(0.0017383 0.000226822 0.0042051)
(0.00165046 0.000184709 0.00423004)
(0.00157263 0.000161129 0.00425798)
(0.00150173 0.000145551 0.00428678)
(0.00143803 0.000132163 0.00431688)
(0.00138155 0.000116383 0.00434798)
(0.00133121 8.51715e-05 0.00437861)
(0.00129073 6.3138e-05 0.00440772)
(0.00124576 -1.01924e-05 0.00443407)
(0.00122215 -8.52144e-06 0.00445806)
(0.0011755 -0.000148276 0.00447528)
(0.00120075 -5.09849e-05 0.00448546)
(0.00118253 -0.000275806 0.00447382)
(0.00128294 3.26298e-05 0.00444019)
(0.00125694 -0.000255759 0.00435985)
(0.00136689 0.000468721 0.00424311)
(0.0012797 0.000168154 0.00408532)
(0.00148325 0.00142289 0.00394175)
(0.00166708 0.000806019 0.00383988)
(0.00227159 0.00208712 0.00377074)
(0.00253443 0.000333504 0.00373709)
(0.00276465 0.00147604 0.00379621)
(0.00299883 -0.000824043 0.00383613)
(0.00381996 0.00172584 0.00384368)
(0.00532187 -0.00111674 0.00427288)
(0.010353 -0.000843382 0.00489563)
(0.0218988 -0.0129169 0.00394608)
(0.0412247 -0.00697969 0.00664863)
(0.0604913 0.00039786 0.0187018)
(0.0707158 0.0249591 0.0266854)
(0.0738733 0.0225738 0.0316428)
(0.0701413 0.0558892 0.0534796)
(0.0691021 0.0019532 0.0662364)
(0.0480883 0.117388 0.112214)
(0.0803642 -0.155136 0.1317)
(-0.0690066 0.30866 -0.00606005)
(0.0186848 -0.265397 0.0183834)
(0.146288 -0.173939 0.136994)
(0.0558751 0.0845309 0.0354652)
(0.0431376 -0.0170687 0.0294445)
(0.0100051 0.0691302 0.00063655)
(0.0131054 0.052738 0.00848152)
(0.00517322 0.0741641 0.00840837)
(0.00583186 0.0725447 0.00910418)
(0.00511599 0.0818843 0.0077396)
(0.0078963 0.0804886 0.00752875)
(0.00928991 0.0852204 0.00702971)
(0.009993 0.0832593 0.00663993)
(0.00914627 0.0847997 0.00604236)
(0.00829178 0.0832324 0.00629429)
(0.00598762 0.0816882 0.00706802)
(0.00361916 0.0778771 0.00865451)
(-1.6622e-05 0.0729053 0.00965362)
(-0.00339826 0.0680181 0.0103745)
(-0.00673508 0.0633681 0.0104317)
(-0.0089989 0.0596493 0.0106239)
(-0.00935477 0.0575042 0.0107469)
(-0.00991378 0.0556339 0.0114448)
(-0.0106633 0.0517046 0.012802)
(-0.0102049 0.0465143 0.0144131)
(-0.0105762 0.0414686 0.0126564)
(-0.0118172 0.0371048 0.00880072)
(-0.0122209 0.0351311 0.0040702)
(-0.0104 0.034689 0.00163066)
(-0.00842713 0.033093 0.000929708)
(-0.00751032 0.0303112 0.000852567)
(-0.0070698 0.0280068 0.00212198)
(-0.00707505 0.0256415 0.00468284)
(-0.00651245 0.0219842 0.00705634)
(-0.0062235 0.019049 0.0106821)
(-0.0060345 0.0129682 0.0149705)
(-0.00828311 0.00990613 0.0184302)
(-0.0137702 0.000114075 0.0191676)
(0.0207916 0.0219151 0.0057721)
(0.0292035 0.0210631 0.00669279)
(0.0162814 0.0107994 0.00186869)
(0.0206778 0.0145582 0.00296605)
(0.013665 0.00515118 0.00108309)
(0.0148307 0.00798169 0.00097387)
(0.00842112 0.00183093 0.000205477)
(0.00571419 0.00337627 0.000810773)
(0.00136705 -0.0002735 0.00159247)
(0.000570776 0.000906124 0.00231963)
(0.000101804 -0.000158949 0.00266829)
(0.000438304 0.00101544 0.00351807)
(0.000630117 0.00124089 0.00387285)
(0.00120489 0.00198505 0.00423611)
(0.00143945 0.00177232 0.00428007)
(0.00158952 0.00171984 0.00438701)
(0.00140282 0.00132255 0.0043648)
(0.00125851 0.00116124 0.00438797)
(0.00103425 0.000906289 0.00435261)
(0.000884948 0.000789516 0.00433251)
(0.000725965 0.000638135 0.004291)
(0.000603514 0.000552048 0.00425884)
(0.000489322 0.000466946 0.00422511)
(0.000394705 0.000415525 0.00419954)
(0.000316188 0.000375285 0.00417824)
(0.000253076 0.000349998 0.00416419)
(0.000203017 0.000332634 0.00415639)
(0.000165098 0.000319863 0.00415484)
(0.000137462 0.000308489 0.00415814)
(0.000119111 0.000289206 0.00416567)
(0.000110897 0.000282147 0.00417615)
(0.000102596 0.000240635 0.00418696)
(0.000115185 0.000274721 0.00420036)
(0.000109661 0.000204317 0.00420611)
(0.000167187 0.000372599 0.00420053)
(0.000173813 0.000275774 0.00416315)
(0.000263386 0.000694202 0.00408843)
(0.000192024 0.00055884 0.00394685)
(0.000237702 0.00134036 0.00375462)
(0.000133733 0.0010614 0.00354024)
(0.000398881 0.00215567 0.00338609)
(0.00072056 0.00140976 0.00334025)
(0.00153974 0.00255059 0.00343013)
(0.00185224 0.0006638 0.0035944)
(0.00198819 0.0016704 0.00371191)
(0.00176905 -0.000725499 0.00355159)
(0.00254942 0.00187683 0.00370738)
(0.0047548 -0.0017739 0.00534473)
(0.0115728 -0.00293582 0.00652496)
(0.0216348 -0.0139053 0.00766738)
(0.0335945 -0.00353473 0.0138272)
(0.0434942 0.00891017 0.0282767)
(0.0546669 0.0366386 0.038722)
(0.0583578 0.0382607 0.0441865)
(0.0552709 0.0735219 0.0618298)
(0.0534198 0.0160077 0.0662543)
(0.0496862 0.119536 0.0892877)
(0.0680224 -0.125217 0.0863347)
(0.00378702 0.359522 0.033828)
(0.0174467 -0.303477 0.0260383)
(0.0841778 -0.134491 0.127085)
(0.0208675 0.105493 0.0157005)
(0.0130807 0.0349369 0.0154278)
(-0.00798095 0.10812 -0.00154508)
(-0.00531683 0.104748 0.00889869)
(-0.00749142 0.122224 0.0101304)
(-0.00305544 0.120644 0.0113308)
(0.00053211 0.12781 0.0104545)
(0.00533179 0.125438 0.0102618)
(0.00881253 0.129348 0.0100768)
(0.011987 0.127795 0.0103274)
(0.012764 0.12837 0.010476)
(0.0130214 0.125477 0.010864)
(0.0116114 0.123841 0.0116781)
(0.00970168 0.119371 0.012617)
(0.00679924 0.114745 0.0133003)
(0.00399999 0.108752 0.0136258)
(0.000917311 0.102676 0.0132799)
(-0.00175486 0.0966428 0.012819)
(-0.00357659 0.0900622 0.0127753)
(-0.00503627 0.083144 0.0126984)
(-0.00623663 0.0755134 0.0128188)
(-0.0066025 0.0678911 0.0112452)
(-0.00704501 0.061303 0.00640427)
(-0.00809058 0.0569019 0.0012087)
(-0.00851758 0.0546057 -0.00155038)
(-0.00755031 0.0526881 -0.00252984)
(-0.0064267 0.0511362 -0.00259433)
(-0.00580383 0.0488632 -0.000175315)
(-0.00674093 0.0451021 0.00417605)
(-0.0078255 0.0391808 0.0067769)
(-0.00881816 0.0330527 0.00970775)
(-0.00941266 0.0268406 0.0134363)
(-0.0104097 0.0181188 0.0167573)
(-0.0139399 0.0129537 0.0187356)
(-0.0181245 0.000400252 0.0160161)
(0.0165552 0.0204793 0.00592091)
(0.0288326 0.0245692 0.0086319)
(0.0139431 0.0100715 0.00343743)
(0.0198198 0.0163996 0.00557159)
(0.0122549 0.00359466 0.00318255)
(0.0140404 0.00749716 0.00297894)
(0.00833034 0.000316866 0.00147521)
(0.00628738 0.00322368 0.00100015)
(0.00145757 -0.000718924 0.00144771)
(-0.000223478 0.000757683 0.00226657)
(-0.00157683 -0.00110256 0.00254506)
(-0.00211756 0.000157073 0.00334915)
(-0.0024042 0.000391337 0.00375275)
(-0.00171128 0.00136615 0.0044012)
(-0.00140582 0.00120208 0.00465775)
(-0.00127218 0.00134339 0.00488137)
(-0.00156752 0.0010463 0.00486449)
(-0.00184477 0.0010343 0.00485291)
(-0.00217353 0.000881535 0.00475994)
(-0.0023794 0.000871965 0.00468921)
(-0.00256752 0.000800051 0.00459735)
(-0.0026952 0.0007851 0.00452428)
(-0.00279864 0.000750449 0.00445487)
(-0.00287248 0.000735936 0.00440262)
(-0.002924 0.000718986 0.00436101)
(-0.00295854 0.0007078 0.00433355)
(-0.00298176 0.000697892 0.00431549)
(-0.00299026 0.00069151 0.00430713)
(-0.00298575 0.00068881 0.00430765)
(-0.00296982 0.000684978 0.00431634)
(-0.00294661 0.000699554 0.00433321)
(-0.00292422 0.000697233 0.00435446)
(-0.00289744 0.000776141 0.00437904)
(-0.00290098 0.000786607 0.0043911)
(-0.00285468 0.00102791 0.00438957)
(-0.0028518 0.00103607 0.00435655)
(-0.00274546 0.00150371 0.00430372)
(-0.0027441 0.00139907 0.00419847)
(-0.00258175 0.00204255 0.00404341)
(-0.00255809 0.00154384 0.0038206)
(-0.00219386 0.00228116 0.00361999)
(-0.00184626 0.00124704 0.00348004)
(-0.000945327 0.00223883 0.00356572)
(-0.000582577 0.000429469 0.00375243)
(-0.000478449 0.00157886 0.00384231)
(-0.00097016 -0.000548032 0.00335924)
(0.000324501 0.00177417 0.00346345)
(0.00360991 -0.00318781 0.00544286)
(0.0110328 -0.00579792 0.0069733)
(0.0185351 -0.0117988 0.00996591)
(0.0189413 0.00517368 0.0184527)
(0.0227178 0.0229047 0.033027)
(0.0291758 0.0519822 0.0451531)
(0.0341187 0.0610774 0.0529313)
(0.0420485 0.0942606 0.0661529)
(0.0462336 0.0379181 0.0683159)
(0.0614445 0.134727 0.0807821)
(0.0563825 -0.117066 0.0651588)
(0.0260954 0.341593 0.063589)
(0.0101138 -0.312858 0.0312707)
(0.0236256 -0.0996174 0.110374)
(-0.00867994 0.12141 0.014447)
(-0.0113746 0.0764145 0.00972981)
(-0.0193509 0.143437 -0.00137709)
(-0.0124108 0.137191 0.0110784)
(-0.00919129 0.150408 0.0116241)
(-0.00361903 0.144953 0.0117899)
(0.00159411 0.151236 0.0112119)
(0.00629601 0.149361 0.0120865)
(0.00956617 0.153526 0.0126277)
(0.012953 0.151966 0.0135248)
(0.0146801 0.154402 0.0139043)
(0.0163458 0.152364 0.0151864)
(0.01546 0.150437 0.0151752)
(0.0145109 0.145424 0.0160116)
(0.0118644 0.140049 0.015504)
(0.00942942 0.133965 0.014894)
(0.00613417 0.127078 0.0136452)
(0.00356109 0.12036 0.0128662)
(0.00165398 0.113273 0.0130119)
(0.00124799 0.105771 0.0131203)
(0.00140357 0.0973528 0.0113334)
(0.00203536 0.0896706 0.00783964)
(0.00141747 0.0834435 0.00303151)
(0.000289252 0.0790654 -0.00143482)
(-0.000609776 0.0742865 -0.00483245)
(-0.00128307 0.0709168 -0.00635275)
(-0.00203176 0.0671931 -0.00626838)
(-0.00279765 0.0627698 -0.00464073)
(-0.00300896 0.0588463 -0.00110015)
(-0.00376467 0.0519893 0.00183153)
(-0.00646234 0.0445992 0.00437965)
(-0.00838748 0.0364165 0.00687148)
(-0.0109049 0.0261337 0.0105542)
(-0.0149027 0.0175721 0.0134961)
(-0.0232463 -0.000103223 0.00900543)
(0.0119836 0.0151177 0.00455602)
(0.0273344 0.0278474 0.00914491)
(0.00999352 0.00879633 0.00417682)
(0.0174204 0.0188281 0.00695891)
(0.00997615 0.00278918 0.00460445)
(0.0116583 0.00772423 0.00450857)
(0.00611873 -0.000836133 0.00327888)
(0.00504866 0.00316737 0.00215957)
(0.000615222 -0.00108577 0.00214031)
(-0.0011554 0.000974313 0.0028147)
(-0.0026945 -0.00135481 0.00318363)
(-0.00350737 -0.000228863 0.00394038)
(-0.00368337 -0.000753575 0.00459234)
(-0.00283649 0.000122548 0.00542906)
(-0.00247117 -7.10529e-05 0.00599415)
(-0.00234642 0.000472117 0.00641933)
(-0.00261363 0.000476169 0.00657328)
(-0.00282416 0.000813044 0.00663536)
(-0.00308773 0.000860136 0.0065711)
(-0.00323062 0.00102537 0.00650029)
(-0.00336495 0.00105442 0.00640032)
(-0.00343932 0.00111607 0.0063208)
(-0.00349326 0.00112761 0.00624623)
(-0.00351615 0.00114282 0.00619309)
(-0.00351776 0.001144 0.00615328)
(-0.0035007 0.00114531 0.00612922)
(-0.00347286 0.00114429 0.0061166)
(-0.00343399 0.00114616 0.0061145)
(-0.00338791 0.00115264 0.00611992)
(-0.00333511 0.00116385 0.00613281)
(-0.00328145 0.00119571 0.0061505)
(-0.00323436 0.00122474 0.00616951)
(-0.00319332 0.00133826 0.00618849)
(-0.00318226 0.00140954 0.00619808)
(-0.00311772 0.00168737 0.00619804)
(-0.00309166 0.00174407 0.00617061)
(-0.002951 0.00218118 0.00612839)
(-0.00289188 0.00204481 0.00603689)
(-0.00260656 0.00256654 0.00591719)
(-0.00244665 0.00197543 0.0057324)
(-0.00200185 0.00250889 0.00553532)
(-0.00176965 0.00130749 0.00532359)
(-0.00112353 0.00208655 0.00528902)
(-0.00102604 0.000274162 0.00540377)
(-0.00128557 0.00152403 0.00541225)
(-0.00204344 -0.000828414 0.00478244)
(-0.000231666 4.28657e-05 0.0044844)
(0.00426291 -0.00589758 0.00553086)
(0.00947953 -0.00546718 0.00735146)
(0.00592339 0.000304519 0.015688)
(-0.00447956 0.0207042 0.0267565)
(-0.00658817 0.0416142 0.0374732)
(-3.42336e-05 0.0690409 0.0455698)
(0.0119752 0.0852634 0.0517327)
(0.030238 0.118497 0.0655756)
(0.0540619 0.0941606 0.0729822)
(0.0843214 0.164456 0.092289)
(0.0757929 -0.0413085 0.0837771)
(0.0664307 0.367117 0.0426142)
(-0.00991793 -0.331324 0.0290477)
(-0.0563344 -0.0720479 0.0778419)
(-0.0433032 0.155225 -0.0091413)
(-0.0434784 0.108945 0.00226335)
(-0.0325994 0.165479 -0.00484596)
(-0.0247473 0.148858 0.00687679)
(-0.012382 0.155682 0.00564931)
(-0.00600207 0.148381 0.00540371)
(0.000687656 0.153425 0.0045434)
(0.00569813 0.153586 0.00509678)
(0.0102138 0.158545 0.0069247)
(0.0136113 0.158861 0.00829406)
(0.0157234 0.162292 0.00946964)
(0.0177058 0.163296 0.0111285)
(0.0187968 0.165594 0.012319)
(0.0193039 0.16411 0.0139321)
(0.0186362 0.160779 0.0152207)
(0.0174023 0.15571 0.0160185)
(0.0156922 0.149689 0.0164313)
(0.0136605 0.142509 0.0164934)
(0.0123719 0.134606 0.01615)
(0.0116263 0.126526 0.0154251)
(0.0118068 0.118692 0.0139943)
(0.0114897 0.112736 0.0116928)
(0.0107464 0.108675 0.00770945)
(0.0102366 0.105834 0.00509773)
(0.00759698 0.102863 0.00274883)
(0.00549855 0.100415 0.000737651)
(0.00447285 0.0960842 -0.00106527)
(0.00393055 0.09268 -0.00129023)
(0.00410821 0.0880258 0.000841043)
(0.00336215 0.0823332 0.00396883)
(0.000752006 0.0755809 0.00744647)
(-0.000909152 0.0660558 0.00985273)
(-0.00300941 0.0529821 0.0107593)
(-0.00674521 0.0342059 0.00658326)
(-0.0129876 0.00682791 -0.00845583)
(0.00115616 0.0104484 -0.0048517)
(0.0246723 0.0300872 0.00652233)
(0.00414673 0.00801243 0.00141222)
(0.0138039 0.0220158 0.0045079)
(0.00656441 0.00353962 0.00275741)
(0.00792661 0.00922029 0.00250277)
(0.00253483 -0.000388225 0.00140136)
(0.00236456 0.00414027 2.60613e-05)
(-0.00138381 -0.000391628 -0.000654161)
(-0.00310728 0.00166354 -0.000391692)
(-0.00493564 -0.00110638 -4.34095e-06)
(-0.00587931 -0.000213089 0.000636418)
(-0.00671892 -0.00150044 0.00130378)
(-0.00635075 -0.000689691 0.00205921)
(-0.00653926 -0.000817609 0.00273425)
(-0.00660028 2.07109e-05 0.00320872)
(-0.0070329 0.000176046 0.00352869)
(-0.00726965 0.000695735 0.00371916)
(-0.0075542 0.000833493 0.003791)
(-0.0076731 0.00109073 0.00381864)
(-0.00777824 0.00118103 0.00380141)
(-0.00782495 0.00129136 0.00378621)
(-0.00784681 0.00133638 0.00376827)
(-0.00784248 0.00137273 0.00376212)
(-0.00782072 0.00138821 0.00376251)
(-0.00778398 0.00140023 0.00377137)
(-0.00773648 0.00140919 0.00378568)
(-0.00767811 0.00142099 0.00380447)
(-0.00761081 0.00143932 0.00382514)
(-0.00753858 0.00146686 0.00384656)
(-0.00747181 0.00151379 0.00386658)
(-0.00741775 0.00156521 0.00388315)
(-0.00738731 0.00168929 0.00389527)
(-0.00738878 0.00177033 0.00390105)
(-0.00732837 0.00202615 0.00389562)
(-0.00727537 0.00207818 0.00387934)
(-0.00707976 0.00248729 0.00384567)
(-0.00693532 0.0023883 0.00378188)
(-0.00661088 0.00291249 0.003662)
(-0.00641123 0.00238656 0.00348447)
(-0.00593126 0.0029262 0.00325053)
(-0.00565676 0.00174196 0.00300501)
(-0.00495936 0.0022788 0.00289617)
(-0.00487499 0.000273088 0.0030507)
(-0.00495125 0.00111213 0.00296102)
(-0.00460587 -0.00162842 0.00208664)
(-0.00144232 -0.00100212 0.00210173)
(0.00122814 -0.00462207 0.00198266)
(-0.00258447 0.00179316 0.00354363)
(-0.0125937 0.00902929 0.0124974)
(-0.0284238 0.0201837 0.0255183)
(-0.0309574 0.0274276 0.0345027)
(-0.0258851 0.0483972 0.0379856)
(-0.0151739 0.0515948 0.0364191)
(-0.00197334 0.0975049 0.0469399)
(0.0271873 0.0500235 0.0460171)
(0.0749684 0.159476 0.0681041)
(0.0898273 -0.0375673 0.0760191)
(0.151172 0.396327 0.0256831)
(-0.0127772 -0.309625 0.0234326)
(-0.117146 -0.120063 0.0661628)
(-0.0654983 0.14331 -0.00989952)
(-0.0624141 0.0588731 0.00436758)
(-0.0325224 0.120884 -0.000315035)
(-0.0271477 0.0813797 0.0117606)
(-0.0103963 0.0889347 0.00865869)
(-0.00578733 0.074218 0.00696935)
(-0.000132728 0.0766482 0.0046717)
(0.0025815 0.0732722 0.00277639)
(0.00690118 0.0765739 0.00298076)
(0.0089547 0.0746806 0.0022639)