/*--------------------------------*- C++ -*----------------------------------*\
| =========                 |                                                 |
| \\      /  F ield         | OpenFOAM: The Open Source CFD Toolbox           |
|  \\    /   O peration     | Version:  2.3.0                                 |
|   \\  /    A nd           | Web:      www.OpenFOAM.org                      |
|    \\/     M anipulation  |                                                 |
\*---------------------------------------------------------------------------*/
FoamFile
{
    version     2.0;
    format      ascii;
    class       volScalarField;
    location    "59";
    object      alpha.airMean;
}
// * * * * * * * * * * * * * * * * * * * * * * * * * * * * * * * * * * * * * //

dimensions      [0 0 0 0 0 0 0];

internalField   nonuniform List<scalar> 
6144
(
0.999994
0.999994
0.999993
0.999993
0.999992
0.999992
0.999991
0.999991
0.99999
0.99999
0.99999
0.99999
0.99999
0.99999
0.99999
0.99999
0.99999
0.99999
0.99999
0.99999
0.99999
0.99999
0.99999
0.99999
0.99999
0.99999
0.99999
0.99999
0.99999
0.99999
0.99999
0.99999
0.99999
0.99999
0.99999
0.99999
0.99999
0.99999
0.99999
0.99999
0.99999
0.99999
0.99999
0.99999
0.999988
0.999986
0.999981
0.999972
0.999957
0.999939
0.999926
0.999914
0.999909
0.999904
0.999901
0.999896
0.999895
0.999889
0.998648
0.934258
0.0369409
0.000240342
1.00828e-06
6.85165e-07
6.84969e-07
6.81629e-07
6.83217e-07
6.81239e-07
6.83629e-07
6.82353e-07
6.82714e-07
6.81228e-07
6.80176e-07
6.78499e-07
6.76464e-07
6.74354e-07
6.73438e-07
6.72587e-07
6.72246e-07
6.71627e-07
6.68188e-07
6.62277e-07
6.56819e-07
6.50216e-07
6.40338e-07
6.24829e-07
6.09642e-07
5.96545e-07
5.80131e-07
5.56666e-07
5.28452e-07
5.05196e-07
4.78341e-07
4.49953e-07
4.17296e-07
3.89685e-07
0.999994
0.999994
0.999993
0.999993
0.999992
0.999992
0.999991
0.999991
0.99999
0.99999
0.99999
0.99999
0.99999
0.99999
0.99999
0.99999
0.99999
0.99999
0.99999
0.99999
0.99999
0.99999
0.99999
0.99999
0.99999
0.99999
0.99999
0.99999
0.99999
0.99999
0.99999
0.99999
0.99999
0.99999
0.99999
0.99999
0.99999
0.99999
0.99999
0.99999
0.99999
0.99999
0.99999
0.999989
0.999988
0.999986
0.999981
0.999972
0.999961
0.999946
0.999928
0.999912
0.999905
0.999899
0.999896
0.99989
0.99989
0.999881
0.999341
0.949229
0.0315461
0.000131097
7.58203e-07
7.17844e-07
7.14053e-07
7.16221e-07
7.17589e-07
7.17913e-07
7.18897e-07
7.13011e-07
7.11082e-07
7.06153e-07
7.0351e-07
6.99217e-07
6.95624e-07
6.93222e-07
6.93345e-07
6.93912e-07
6.93064e-07
6.88981e-07
6.81814e-07
6.73348e-07
6.63801e-07
6.55149e-07
6.43185e-07
6.29073e-07
6.16052e-07
6.05938e-07
5.95871e-07
5.80868e-07
5.59902e-07
5.32104e-07
5.00309e-07
4.75726e-07
4.44735e-07
4.02222e-07
0.999995
0.999994
0.999993
0.999993
0.999992
0.999992
0.999991
0.999991
0.99999
0.99999
0.99999
0.99999
0.99999
0.99999
0.99999
0.99999
0.99999
0.99999
0.99999
0.99999
0.99999
0.99999
0.99999
0.99999
0.99999
0.99999
0.99999
0.99999
0.99999
0.99999
0.99999
0.99999
0.99999
0.99999
0.99999
0.99999
0.99999
0.99999
0.99999
0.99999
0.99999
0.99999
0.99999
0.999989
0.999988
0.999985
0.999981
0.999973
0.999962
0.999946
0.999923
0.999907
0.999899
0.999892
0.999889
0.999883
0.999886
0.999876
0.999564
0.942024
0.0276104
8.71031e-05
1.29045e-06
1.28901e-06
1.26929e-06
1.24322e-06
1.12187e-06
9.9298e-07
8.74326e-07
7.92382e-07
7.58361e-07
7.43774e-07
7.37318e-07
7.3184e-07
7.31359e-07
7.29176e-07
7.27295e-07
7.21968e-07
7.13781e-07
7.05881e-07
6.97836e-07
6.85725e-07
6.72028e-07
6.58317e-07
6.44864e-07
6.33549e-07
6.25226e-07
6.2197e-07
6.16687e-07
6.05052e-07
5.88766e-07
5.61481e-07
5.2369e-07
4.91779e-07
4.62131e-07
4.12385e-07
0.999995
0.999994
0.999994
0.999993
0.999992
0.999992
0.999991
0.999991
0.99999
0.99999
0.99999
0.99999
0.99999
0.99999
0.99999
0.99999
0.99999
0.99999
0.99999
0.99999
0.99999
0.99999
0.99999
0.99999
0.99999
0.99999
0.99999
0.99999
0.99999
0.99999
0.99999
0.99999
0.99999
0.99999
0.99999
0.99999
0.99999
0.99999
0.99999
0.99999
0.99999
0.99999
0.99999
0.999989
0.999988
0.999985
0.999981
0.999974
0.999962
0.999942
0.999917
0.9999
0.999892
0.999886
0.999884
0.999879
0.999883
0.999869
0.999696
0.917743
0.0209537
6.5498e-05
2.43649e-05
2.06829e-05
1.92804e-05
1.76254e-05
1.54658e-05
1.25426e-05
9.3509e-06
6.36207e-06
4.06693e-06
2.528e-06
1.67865e-06
1.29548e-06
1.14006e-06
1.04495e-06
9.5896e-07
8.8142e-07
8.24871e-07
7.87657e-07
7.69866e-07
7.55789e-07
7.3223e-07
7.11556e-07
6.99788e-07
6.9454e-07
6.83805e-07
6.77291e-07
6.63567e-07
6.41629e-07
6.2129e-07
5.94943e-07
5.52577e-07
5.12497e-07
4.78595e-07
4.23925e-07
0.999995
0.999995
0.999994
0.999994
0.999993
0.999992
0.999991
0.999991
0.99999
0.99999
0.99999
0.99999
0.99999
0.99999
0.99999
0.99999
0.99999
0.99999
0.99999
0.99999
0.99999
0.99999
0.99999
0.99999
0.99999
0.99999
0.99999
0.99999
0.99999
0.99999
0.99999
0.99999
0.99999
0.99999
0.99999
0.99999
0.99999
0.99999
0.99999
0.99999
0.99999
0.99999
0.99999
0.999989
0.999988
0.999985
0.999981
0.999973
0.999959
0.999937
0.99991
0.999894
0.999887
0.999882
0.99988
0.999876
0.999877
0.999862
0.999731
0.883617
0.0210071
0.000482489
0.000421921
0.000355745
0.000332533
0.000302379
0.000271759
0.000236753
0.000204019
0.00017176
0.000141819
0.000116043
9.52979e-05
8.00322e-05
6.92322e-05
6.07957e-05
5.35742e-05
4.68684e-05
4.08166e-05
3.54154e-05
3.08916e-05
2.7192e-05
2.39173e-05
2.05566e-05
1.78039e-05
1.53914e-05
1.30716e-05
1.06929e-05
8.45072e-06
6.04639e-06
3.65161e-06
2.02601e-06
1.10891e-06
6.78392e-07
5.28625e-07
4.57286e-07
0.999995
0.999995
0.999994
0.999994
0.999993
0.999993
0.999992
0.999991
0.999991
0.99999
0.99999
0.99999
0.99999
0.99999
0.99999
0.99999
0.99999
0.99999
0.99999
0.99999
0.99999
0.99999
0.99999
0.99999
0.99999
0.99999
0.99999
0.99999
0.99999
0.99999
0.99999
0.99999
0.99999
0.99999
0.99999
0.99999
0.99999
0.99999
0.99999
0.99999
0.99999
0.99999
0.99999
0.999989
0.999988
0.999985
0.99998
0.999972
0.999957
0.999933
0.999906
0.99989
0.999884
0.99988
0.999878
0.999876
0.999879
0.999859
0.999733
0.838491
0.0221657
0.00270111
0.00270673
0.00250436
0.00245019
0.00232995
0.00221741
0.00209338
0.00197481
0.00185773
0.00174156
0.00163258
0.00152702
0.00142647
0.00133277
0.00124764
0.00116826
0.00108795
0.00100702
0.000924224
0.000838917
0.000752311
0.000665204
0.000579311
0.000504308
0.00044451
0.000393452
0.000345556
0.000294392
0.000235009
0.000172321
0.0001142
6.66728e-05
3.22781e-05
1.22753e-05
4.85216e-06
0.999995
0.999995
0.999995
0.999994
0.999993
0.999993
0.999992
0.999991
0.999991
0.99999
0.99999
0.99999
0.99999
0.99999
0.99999
0.99999
0.99999
0.99999
0.99999
0.99999
0.99999
0.99999
0.99999
0.99999
0.99999
0.99999
0.99999
0.99999
0.99999
0.99999
0.99999
0.99999
0.99999
0.99999
0.99999
0.99999
0.99999
0.99999
0.99999
0.99999
0.99999
0.99999
0.99999
0.999989
0.999988
0.999985
0.999979
0.99997
0.999954
0.999929
0.999903
0.999888
0.999882
0.999879
0.999878
0.999877
0.99988
0.999866
0.999807
0.78706
0.0251482
0.0074284
0.00772166
0.00753182
0.0074713
0.00736147
0.00725101
0.00715867
0.00706575
0.00697706
0.00690092
0.00682224
0.00675752
0.00668371
0.00659506
0.00648213
0.00635454
0.00618926
0.00599629
0.00576473
0.00550169
0.00520022
0.00487
0.00451014
0.00413116
0.00373342
0.00332604
0.00289762
0.00245031
0.00202018
0.00161957
0.00127617
0.000985302
0.00071303
0.00044073
0.000235528
0.999995
0.999995
0.999995
0.999994
0.999994
0.999993
0.999992
0.999991
0.999991
0.999991
0.99999
0.99999
0.99999
0.99999
0.99999
0.99999
0.99999
0.99999
0.99999
0.99999
0.99999
0.99999
0.99999
0.99999
0.99999
0.99999
0.99999
0.99999
0.99999
0.99999
0.99999
0.99999
0.99999
0.99999
0.99999
0.99999
0.99999
0.99999
0.99999
0.99999
0.99999
0.99999
0.99999
0.999989
0.999988
0.999985
0.999978
0.999968
0.999951
0.999927
0.999901
0.999887
0.999881
0.99988
0.999881
0.999881
0.999883
0.99987
0.999813
0.763771
0.0278116
0.0119232
0.012569
0.0125924
0.0125614
0.012574
0.0125818
0.0126543
0.0127337
0.0128294
0.0129368
0.0130425
0.0131389
0.0132204
0.0132853
0.0133314
0.0133608
0.0133645
0.0133498
0.0133227
0.0132975
0.0132937
0.013347
0.0134725
0.0136609
0.0138974
0.0141342
0.0143488
0.0145246
0.0146598
0.0146914
0.0145353
0.0140796
0.0132531
0.0117561
0.00965189
0.999996
0.999995
0.999995
0.999995
0.999994
0.999993
0.999992
0.999992
0.999991
0.999991
0.99999
0.99999
0.99999
0.99999
0.99999
0.99999
0.99999
0.99999
0.99999
0.99999
0.99999
0.99999
0.99999
0.99999
0.99999
0.99999
0.99999
0.99999
0.99999
0.99999
0.99999
0.99999
0.99999
0.99999
0.99999
0.99999
0.99999
0.99999
0.99999
0.99999
0.99999
0.99999
0.99999
0.999989
0.999988
0.999984
0.999977
0.999967
0.999951
0.999929
0.999905
0.999889
0.999884
0.999882
0.999884
0.999884
0.999888
0.999875
0.999805
0.823404
0.0256417
0.00722065
0.00713232
0.0065924
0.00629152
0.00608027
0.00596781
0.00587869
0.00581254
0.0057531
0.0057022
0.00564372
0.00558258
0.0055221
0.00546221
0.00540982
0.00536975
0.00533264
0.00528746
0.00523322
0.00517679
0.00510967
0.00504442
0.0049784
0.00493021
0.00491037
0.00489334
0.00485962
0.00479089
0.00467885
0.00450828
0.00417926
0.00367566
0.00295818
0.00191166
0.00104117
0.999996
0.999995
0.999995
0.999995
0.999994
0.999993
0.999992
0.999992
0.999991
0.999991
0.99999
0.99999
0.99999
0.99999
0.99999
0.99999
0.99999
0.99999
0.99999
0.99999
0.99999
0.99999
0.99999
0.99999
0.99999
0.99999
0.99999
0.99999
0.99999
0.99999
0.99999
0.99999
0.99999
0.99999
0.99999
0.99999
0.99999
0.99999
0.99999
0.99999
0.99999
0.99999
0.99999
0.999989
0.999987
0.999984
0.999977
0.999968
0.999954
0.999935
0.999912
0.999895
0.999888
0.999884
0.999884
0.999883
0.999889
0.999878
0.99984
0.886161
0.0213449
0.00231416
0.00209109
0.00172634
0.00155715
0.00142775
0.0013525
0.00128144
0.00122786
0.00117704
0.00113629
0.00109847
0.00106548
0.00104194
0.00103196
0.0010332
0.00104644
0.00107087
0.00111064
0.00116281
0.00122185
0.00127158
0.0013161
0.00134938
0.0013785
0.00140853
0.00142364
0.00141133
0.00137633
0.00129453
0.00115405
0.000954446
0.000710619
0.000442556
0.000205373
9.39789e-05
0.999996
0.999996
0.999995
0.999995
0.999994
0.999993
0.999992
0.999991
0.999991
0.999991
0.99999
0.99999
0.99999
0.99999
0.99999
0.99999
0.99999
0.99999
0.99999
0.99999
0.99999
0.99999
0.99999
0.99999
0.99999
0.99999
0.99999
0.99999
0.99999
0.99999
0.99999
0.99999
0.99999
0.99999
0.99999
0.99999
0.99999
0.99999
0.99999
0.99999
0.99999
0.99999
0.99999
0.999989
0.999988
0.999985
0.999979
0.999969
0.999956
0.99994
0.999921
0.999903
0.999894
0.999887
0.999887
0.999884
0.99989
0.999879
0.999856
0.930895
0.0233411
0.000378413
0.000277175
0.000198732
0.000171836
0.000149485
0.000140401
0.000132891
0.000127783
0.000122128
0.000117892
0.000113532
0.000110121
0.00010787
0.00010863
0.000112018
0.000118597
0.000129284
0.000144683
0.000162993
0.000182919
0.000199941
0.000215917
0.000233593
0.00025685
0.000278916
0.000291102
0.000293128
0.000281909
0.000249582
0.000199267
0.000139569
8.23614e-05
3.71767e-05
1.41232e-05
6.25263e-06
0.999997
0.999996
0.999996
0.999995
0.999995
0.999994
0.999992
0.999991
0.999991
0.99999
0.99999
0.99999
0.99999
0.99999
0.99999
0.99999
0.99999
0.99999
0.99999
0.99999
0.99999
0.99999
0.99999
0.99999
0.99999
0.99999
0.99999
0.99999
0.99999
0.99999
0.99999
0.99999
0.99999
0.99999
0.99999
0.99999
0.99999
0.99999
0.99999
0.99999
0.99999
0.99999
0.99999
0.999989
0.999988
0.999985
0.99998
0.999971
0.999958
0.999943
0.999927
0.999912
0.999902
0.999893
0.99989
0.999887
0.999892
0.999879
0.999824
0.957044
0.0333263
9.82979e-05
1.67583e-05
1.10933e-05
9.32529e-06
8.01935e-06
7.67605e-06
7.34526e-06
7.14907e-06
7.02932e-06
6.99083e-06
6.88879e-06
6.79121e-06
6.80393e-06
7.28528e-06
8.06804e-06
9.27508e-06
1.08915e-05
1.28771e-05
1.50499e-05
1.71964e-05
1.89032e-05
2.08072e-05
2.37275e-05
2.76401e-05
3.01943e-05
3.14959e-05
3.12109e-05
2.89179e-05
2.43052e-05
1.7631e-05
1.07333e-05
5.30806e-06
2.20671e-06
1.04274e-06
6.63495e-07
0.999997
0.999996
0.999996
0.999996
0.999995
0.999994
0.999993
0.999992
0.999991
0.99999
0.99999
0.99999
0.99999
0.99999
0.99999
0.99999
0.99999
0.99999
0.99999
0.99999
0.99999
0.99999
0.99999
0.99999
0.99999
0.99999
0.99999
0.99999
0.99999
0.99999
0.99999
0.99999
0.99999
0.99999
0.99999
0.99999
0.99999
0.99999
0.99999
0.99999
0.99999
0.99999
0.99999
0.999989
0.999988
0.999985
0.99998
0.999972
0.999959
0.999945
0.999931
0.999919
0.99991
0.999899
0.999895
0.99989
0.999895
0.999876
0.999735
0.969394
0.0471795
0.000152446
1.28842e-06
1.06496e-06
9.91985e-07
9.40633e-07
9.19376e-07
9.08182e-07
9.05868e-07
8.98433e-07
8.97346e-07
8.90775e-07
8.83558e-07
8.77083e-07
8.88639e-07
9.14757e-07
9.59641e-07
1.02122e-06
1.0885e-06
1.15482e-06
1.19379e-06
1.22711e-06
1.26969e-06
1.35962e-06
1.43899e-06
1.44758e-06
1.41255e-06
1.36235e-06
1.26197e-06
1.12267e-06
9.45164e-07
7.75756e-07
6.40602e-07
5.71317e-07
5.21322e-07
4.53366e-07
0.999997
0.999997
0.999997
0.999996
0.999996
0.999995
0.999994
0.999992
0.999991
0.99999
0.99999
0.99999
0.99999
0.99999
0.99999
0.99999
0.99999
0.99999
0.99999
0.99999
0.99999
0.99999
0.99999
0.99999
0.99999
0.99999
0.99999
0.99999
0.99999
0.99999
0.99999
0.99999
0.99999
0.99999
0.99999
0.99999
0.99999
0.99999
0.99999
0.99999
0.99999
0.99999
0.99999
0.999989
0.999988
0.999986
0.999981
0.999972
0.99996
0.999945
0.999932
0.999921
0.999913
0.999904
0.999899
0.999893
0.999893
0.999865
0.999628
0.96777
0.0567442
0.000281663
1.11235e-06
7.99387e-07
7.89294e-07
7.95269e-07
7.99149e-07
7.95243e-07
7.91122e-07
7.85449e-07
7.78652e-07
7.71378e-07
7.66357e-07
7.61442e-07
7.5592e-07
7.49598e-07
7.43512e-07
7.40437e-07
7.38163e-07
7.36709e-07
7.34249e-07
7.34238e-07
7.31833e-07
7.28434e-07
7.24276e-07
7.17984e-07
7.07945e-07
6.95501e-07
6.76571e-07
6.49841e-07
6.22699e-07
6.0234e-07
5.77375e-07
5.56839e-07
5.21227e-07
4.4814e-07
0.999997
0.999997
0.999997
0.999996
0.999996
0.999996
0.999995
0.999993
0.999991
0.99999
0.99999
0.99999
0.99999
0.99999
0.99999
0.99999
0.99999
0.99999
0.99999
0.99999
0.99999
0.99999
0.99999
0.99999
0.99999
0.99999
0.99999
0.99999
0.99999
0.99999
0.99999
0.99999
0.99999
0.99999
0.99999
0.99999
0.99999
0.99999
0.99999
0.99999
0.99999
0.99999
0.99999
0.999989
0.999988
0.999986
0.999981
0.999972
0.99996
0.999946
0.999932
0.999922
0.999915
0.999908
0.999903
0.999895
0.99989
0.999863
0.999548
0.961833
0.0566325
0.000282689
1.07302e-06
7.76617e-07
7.70662e-07
7.69197e-07
7.70063e-07
7.68515e-07
7.68362e-07
7.65516e-07
7.64245e-07
7.60227e-07
7.558e-07
7.51818e-07
7.48017e-07
7.43721e-07
7.39344e-07
7.37729e-07
7.36468e-07
7.34568e-07
7.31698e-07
7.30283e-07
7.27211e-07
7.22994e-07
7.18439e-07
7.13865e-07
7.04973e-07
6.91017e-07
6.69903e-07
6.42754e-07
6.17905e-07
5.96228e-07
5.76977e-07
5.54269e-07
5.15316e-07
4.46727e-07
0.999998
0.999997
0.999997
0.999996
0.999996
0.999996
0.999995
0.999993
0.999991
0.99999
0.99999
0.99999
0.99999
0.99999
0.99999
0.99999
0.99999
0.99999
0.99999
0.99999
0.99999
0.99999
0.99999
0.99999
0.99999
0.99999
0.99999
0.99999
0.99999
0.99999
0.99999
0.99999
0.99999
0.99999
0.99999
0.99999
0.99999
0.99999
0.99999
0.99999
0.99999
0.99999
0.99999
0.99999
0.999988
0.999986
0.999981
0.999972
0.99996
0.999945
0.99993
0.99992
0.999915
0.999909
0.999906
0.999895
0.999895
0.999871
0.999213
0.95379
0.0633293
0.000588883
1.90191e-06
7.71406e-07
7.68968e-07
7.64279e-07
7.61924e-07
7.58222e-07
7.57855e-07
7.54986e-07
7.53607e-07
7.51262e-07
7.49064e-07
7.46942e-07
7.44883e-07
7.42706e-07
7.39655e-07
7.37355e-07
7.35293e-07
7.33458e-07
7.31483e-07
7.30356e-07
7.27608e-07
7.23777e-07
7.19417e-07
7.1617e-07
7.10802e-07
6.99946e-07
6.81315e-07
6.55626e-07
6.25694e-07
5.96588e-07
5.72074e-07
5.41636e-07
5.0472e-07
4.36933e-07
0.999994
0.999994
0.999993
0.999993
0.999992
0.999992
0.999991
0.999991
0.99999
0.99999
0.99999
0.99999
0.99999
0.99999
0.99999
0.99999
0.99999
0.99999
0.99999
0.99999
0.99999
0.99999
0.99999
0.99999
0.99999
0.99999
0.99999
0.99999
0.99999
0.99999
0.99999
0.99999
0.99999
0.99999
0.99999
0.99999
0.99999
0.99999
0.99999
0.99999
0.99999
0.99999
0.99999
0.99999
0.999989
0.999986
0.999981
0.999972
0.999958
0.99994
0.999927
0.999915
0.99991
0.999905
0.999903
0.999898
0.999898
0.999876
0.999155
0.944863
0.0361325
0.000142672
7.70723e-07
6.86047e-07
6.83312e-07
6.77825e-07
6.78034e-07
6.7454e-07
6.75069e-07
6.73079e-07
6.73532e-07
6.72066e-07
6.71789e-07
6.70571e-07
6.69444e-07
6.67731e-07
6.66676e-07
6.66195e-07
6.65364e-07
6.64938e-07
6.64253e-07
6.60481e-07
6.53566e-07
6.43177e-07
6.34069e-07
6.25712e-07
6.16742e-07
6.0739e-07
5.95624e-07
5.78056e-07
5.55539e-07
5.32307e-07
5.04554e-07
4.7787e-07
4.45304e-07
4.0301e-07
0.999995
0.999994
0.999993
0.999993
0.999992
0.999992
0.999991
0.999991
0.999991
0.99999
0.99999
0.99999
0.99999
0.99999
0.99999
0.99999
0.99999
0.99999
0.99999
0.99999
0.99999
0.99999
0.99999
0.99999
0.99999
0.99999
0.99999
0.99999
0.99999
0.99999
0.99999
0.99999
0.99999
0.99999
0.99999
0.99999
0.99999
0.99999
0.99999
0.99999
0.99999
0.99999
0.99999
0.99999
0.999988
0.999986
0.999981
0.999973
0.999961
0.999946
0.999929
0.999915
0.999907
0.999901
0.999898
0.999894
0.999894
0.999868
0.999548
0.921109
0.0171294
1.37089e-05
6.92941e-07
7.32333e-07
7.19262e-07
7.19328e-07
7.21398e-07
7.16494e-07
7.16618e-07
7.10944e-07
7.08469e-07
7.02564e-07
6.96899e-07
6.91536e-07
6.88261e-07
6.85341e-07
6.84527e-07
6.8416e-07
6.83595e-07
6.83072e-07
6.81005e-07
6.7575e-07
6.64118e-07
6.50493e-07
6.38268e-07
6.26677e-07
6.16269e-07
6.07607e-07
5.98832e-07
5.87275e-07
5.72124e-07
5.50614e-07
5.20149e-07
4.9668e-07
4.73805e-07
4.23639e-07
0.999995
0.999995
0.999993
0.999993
0.999992
0.999992
0.999991
0.999991
0.999991
0.99999
0.99999
0.99999
0.99999
0.99999
0.99999
0.99999
0.99999
0.99999
0.99999
0.99999
0.99999
0.99999
0.99999
0.99999
0.99999
0.99999
0.99999
0.99999
0.99999
0.99999
0.99999
0.99999
0.99999
0.99999
0.99999
0.99999
0.99999
0.99999
0.99999
0.99999
0.99999
0.99999
0.99999
0.999989
0.999988
0.999986
0.999981
0.999974
0.999962
0.999947
0.999926
0.999908
0.999898
0.999893
0.999891
0.999889
0.999891
0.999865
0.999689
0.905012
0.0163738
3.72512e-06
3.23022e-06
2.79815e-06
2.72141e-06
2.2593e-06
1.88323e-06
1.45302e-06
1.17137e-06
9.71337e-07
8.71945e-07
8.10025e-07
7.833e-07
7.72654e-07
7.66232e-07
7.58862e-07
7.54547e-07
7.4401e-07
7.35656e-07
7.32243e-07
7.23257e-07
7.09243e-07
6.90677e-07
6.73197e-07
6.57935e-07
6.44443e-07
6.32358e-07
6.2178e-07
6.13263e-07
6.04607e-07
5.95418e-07
5.7618e-07
5.43274e-07
5.16049e-07
4.90898e-07
4.38963e-07
0.999996
0.999995
0.999994
0.999993
0.999993
0.999992
0.999992
0.999991
0.999991
0.999991
0.99999
0.99999
0.99999
0.99999
0.99999
0.99999
0.99999
0.99999
0.99999
0.99999
0.99999
0.99999
0.99999
0.99999
0.99999
0.99999
0.99999
0.99999
0.99999
0.99999
0.99999
0.99999
0.99999
0.99999
0.99999
0.99999
0.99999
0.99999
0.99999
0.99999
0.99999
0.99999
0.99999
0.999989
0.999988
0.999985
0.999981
0.999974
0.999963
0.999944
0.999918
0.999898
0.999889
0.999885
0.999884
0.999879
0.999875
0.999851
0.999766
0.855651
0.00769452
0.000150272
0.00013261
0.000107616
9.89514e-05
8.13172e-05
6.46599e-05
4.81907e-05
3.47217e-05
2.42328e-05
1.70878e-05
1.23922e-05
9.53275e-06
7.84106e-06
6.83684e-06
6.12291e-06
5.65262e-06
5.20067e-06
4.76522e-06
4.33306e-06
3.91625e-06
3.50432e-06
3.07468e-06
2.62991e-06
2.26627e-06
1.95946e-06
1.67649e-06
1.43126e-06
1.11686e-06
8.66708e-07
7.24601e-07
6.58208e-07
6.18041e-07
5.70277e-07
5.26518e-07
4.61573e-07
0.999996
0.999996
0.999994
0.999994
0.999993
0.999993
0.999992
0.999991
0.999991
0.999991
0.99999
0.99999
0.99999
0.99999
0.99999
0.99999
0.99999
0.99999
0.99999
0.99999
0.99999
0.99999
0.99999
0.99999
0.99999
0.99999
0.99999
0.99999
0.99999
0.99999
0.99999
0.99999
0.99999
0.99999
0.99999
0.99999
0.99999
0.99999
0.99999
0.99999
0.99999
0.99999
0.99999
0.999989
0.999988
0.999985
0.99998
0.999974
0.99996
0.999937
0.999908
0.99989
0.999881
0.999877
0.999874
0.999865
0.999858
0.999842
0.999832
0.782574
0.00911968
0.00241411
0.00226788
0.00199231
0.00183867
0.00161738
0.00141676
0.00121474
0.00103105
0.000864932
0.00072837
0.000618095
0.000533223
0.000469333
0.000422726
0.000389732
0.000366631
0.000349212
0.000337009
0.000327731
0.000318752
0.000303286
0.000276234
0.000247073
0.00021634
0.000188462
0.000163664
0.000134153
0.000100606
6.7098e-05
3.86417e-05
1.87291e-05
7.76619e-06
2.91151e-06
1.15908e-06
6.65178e-07
0.999996
0.999996
0.999995
0.999994
0.999993
0.999993
0.999992
0.999992
0.999991
0.999991
0.99999
0.99999
0.99999
0.99999
0.99999
0.99999
0.99999
0.99999
0.99999
0.99999
0.99999
0.99999
0.99999
0.99999
0.99999
0.99999
0.99999
0.99999
0.99999
0.99999
0.99999
0.99999
0.99999
0.99999
0.99999
0.99999
0.99999
0.99999
0.99999
0.99999
0.99999
0.99999
0.99999
0.999989
0.999988
0.999985
0.99998
0.999972
0.999958
0.99993
0.999899
0.999884
0.999877
0.999871
0.999865
0.999859
0.999855
0.999849
0.999833
0.673017
0.018856
0.0115192
0.0117169
0.011465
0.0112356
0.0109324
0.0106125
0.010266
0.0098703
0.00944377
0.00897356
0.0084879
0.00800852
0.00753892
0.00709135
0.00668916
0.00633165
0.00602058
0.00575379
0.00551977
0.0052826
0.0049904
0.00464944
0.00431825
0.00396931
0.00359893
0.00323657
0.00287033
0.00250149
0.00209828
0.00167832
0.00123768
0.000810102
0.000446487
0.000190795
7.08335e-05
0.999996
0.999996
0.999995
0.999995
0.999994
0.999993
0.999992
0.999992
0.999991
0.999991
0.99999
0.99999
0.99999
0.99999
0.99999
0.99999
0.99999
0.99999
0.99999
0.99999
0.99999
0.99999
0.99999
0.99999
0.99999
0.99999
0.99999
0.99999
0.99999
0.99999
0.99999
0.99999
0.99999
0.99999
0.99999
0.99999
0.99999
0.99999
0.99999
0.99999
0.99999
0.99999
0.99999
0.999989
0.999988
0.999985
0.999979
0.99997
0.999953
0.999924
0.999895
0.999881
0.999874
0.99987
0.999866
0.999862
0.999862
0.999856
0.99966
0.598742
0.028567
0.0221139
0.0230385
0.0234504
0.0237647
0.0241849
0.0245766
0.0249965
0.0253601
0.0257178
0.0260327
0.0263319
0.02656
0.0267279
0.0268073
0.0268291
0.026774
0.0266568
0.0264499
0.0261492
0.0257452
0.0252496
0.0247448
0.0241745
0.0234863
0.0226627
0.0216372
0.0204734
0.0193197
0.0181853
0.0170283
0.0157867
0.0143216
0.0123752
0.0101238
0.00825473
0.999996
0.999996
0.999996
0.999995
0.999994
0.999993
0.999992
0.999992
0.999991
0.999991
0.99999
0.99999
0.99999
0.99999
0.99999
0.99999
0.99999
0.99999
0.99999
0.99999
0.99999
0.99999
0.99999
0.99999
0.99999
0.99999
0.99999
0.99999
0.99999
0.99999
0.99999
0.99999
0.99999
0.99999
0.99999
0.99999
0.99999
0.99999
0.99999
0.99999
0.99999
0.99999
0.99999
0.999989
0.999988
0.999985
0.999978
0.999968
0.99995
0.999921
0.999893
0.999879
0.999875
0.999873
0.999872
0.999871
0.999873
0.999868
0.999454
0.680389
0.0315463
0.020614
0.0213935
0.0216544
0.0220836
0.0227894
0.0236608
0.0246363
0.0256824
0.0268097
0.0280201
0.0293551
0.0307903
0.0322967
0.0338893
0.0355659
0.0373646
0.0392767
0.0412672
0.0433444
0.0455587
0.0479765
0.0506442
0.0535591
0.0568172
0.0604054
0.0643309
0.0687493
0.0738946
0.0800702
0.0877094
0.0974822
0.110795
0.132457
0.182028
0.377507
0.999996
0.999997
0.999996
0.999996
0.999995
0.999994
0.999992
0.999992
0.999991
0.999991
0.99999
0.99999
0.99999
0.99999
0.99999
0.99999
0.99999
0.99999
0.99999
0.99999
0.99999
0.99999
0.99999
0.99999
0.99999
0.99999
0.99999
0.99999
0.99999
0.99999
0.99999
0.99999
0.99999
0.99999
0.99999
0.99999
0.99999
0.99999
0.99999
0.99999
0.99999
0.99999
0.99999
0.999989
0.999988
0.999985
0.999978
0.999968
0.999953
0.999928
0.999901
0.999885
0.999879
0.999877
0.999876
0.999875
0.999877
0.999873
0.999846
0.814143
0.0218256
0.0068535
0.00646803
0.0056586
0.00533123
0.00503001
0.00484053
0.00472722
0.00470394
0.00472819
0.00480635
0.00489646
0.00503144
0.0052292
0.00550759
0.00585922
0.00629859
0.0068131
0.00738923
0.00800849
0.00866393
0.00935418
0.0100803
0.0108296
0.0115607
0.0123114
0.0131062
0.0139769
0.0149372
0.0158747
0.0167317
0.0177696
0.0190404
0.0202558
0.0210268
0.0199736
0.999997
0.999997
0.999997
0.999996
0.999995
0.999994
0.999993
0.999992
0.999991
0.999991
0.99999
0.99999
0.99999
0.99999
0.99999
0.99999
0.99999
0.99999
0.99999
0.99999
0.99999
0.99999
0.99999
0.99999
0.99999
0.99999
0.99999
0.99999
0.99999
0.99999
0.99999
0.99999
0.99999
0.99999
0.99999
0.99999
0.99999
0.99999
0.99999
0.99999
0.99999
0.99999
0.99999
0.999989
0.999988
0.999985
0.999978
0.999969
0.999957
0.999938
0.999912
0.999894
0.999886
0.999881
0.999879
0.999876
0.99988
0.99987
0.999882
0.879436
0.0130794
0.00134784
0.00117963
0.000926596
0.000830099
0.000738477
0.000688008
0.000654566
0.000649711
0.000655881
0.000675111
0.000703869
0.000741349
0.000792294
0.000857183
0.000940546
0.00105731
0.00121742
0.00141723
0.00166962
0.00197345
0.00233164
0.0027085
0.00308235
0.0034621
0.00380587
0.00411764
0.0044007
0.00467228
0.00489832
0.00501381
0.00496568
0.00462168
0.00367029
0.00226188
0.00108976
0.999997
0.999997
0.999997
0.999997
0.999996
0.999995
0.999993
0.999992
0.999991
0.999991
0.99999
0.99999
0.99999
0.99999
0.99999
0.99999
0.99999
0.99999
0.99999
0.99999
0.99999
0.99999
0.99999
0.99999
0.99999
0.99999
0.99999
0.99999
0.99999
0.99999
0.99999
0.99999
0.99999
0.99999
0.99999
0.99999
0.99999
0.99999
0.99999
0.99999
0.99999
0.99999
0.99999
0.999989
0.999988
0.999985
0.99998
0.99997
0.999958
0.999943
0.999924
0.999906
0.999895
0.999888
0.999886
0.999882
0.999882
0.999865
0.999873
0.923138
0.0154028
0.000167725
0.000147778
0.00011102
0.000101479
9.0379e-05
8.65739e-05
8.32467e-05
8.28436e-05
8.39583e-05
8.73526e-05
9.18988e-05
9.77149e-05
0.000105582
0.000116496
0.000132876
0.000157431
0.000195883
0.000249316
0.000322678
0.000416116
0.000532117
0.00067492
0.000851573
0.00104945
0.00123554
0.00137012
0.00145241
0.00148398
0.00140989
0.00123497
0.000919524
0.000564754
0.000268873
9.4462e-05
3.47938e-05
0.999997
0.999997
0.999997
0.999997
0.999996
0.999995
0.999993
0.999992
0.999991
0.999991
0.99999
0.99999
0.99999
0.99999
0.99999
0.99999
0.99999
0.99999
0.99999
0.99999
0.99999
0.99999
0.99999
0.99999
0.99999
0.99999
0.99999
0.99999
0.99999
0.99999
0.99999
0.99999
0.99999
0.99999
0.99999
0.99999
0.99999
0.99999
0.99999
0.99999
0.99999
0.99999
0.99999
0.999989
0.999988
0.999986
0.999981
0.999972
0.99996
0.999945
0.99993
0.999916
0.999904
0.999896
0.999893
0.999888
0.999886
0.999858
0.999822
0.950027
0.0229517
1.33706e-05
1.3156e-05
9.18327e-06
8.74898e-06
7.88984e-06
7.8579e-06
7.86325e-06
8.06713e-06
8.38864e-06
8.9137e-06
9.40034e-06
9.85761e-06
1.04674e-05
1.15256e-05
1.35878e-05
1.6746e-05
2.17477e-05
2.86725e-05
3.8249e-05
5.05372e-05
6.61435e-05
8.663e-05
0.000111731
0.000139953
0.000167048
0.00018255
0.000184242
0.000169579
0.000137844
9.34077e-05
4.95518e-05
1.97163e-05
6.23153e-06
1.93951e-06
1.00996e-06
0.999997
0.999997
0.999997
0.999997
0.999997
0.999996
0.999994
0.999992
0.999991
0.999991
0.99999
0.99999
0.99999
0.99999
0.99999
0.99999
0.99999
0.99999
0.99999
0.99999
0.99999
0.99999
0.99999
0.99999
0.99999
0.99999
0.99999
0.99999
0.99999
0.99999
0.99999
0.99999
0.99999
0.99999
0.99999
0.99999
0.99999
0.99999
0.99999
0.99999
0.99999
0.99999
0.99999
0.999989
0.999988
0.999986
0.999981
0.999973
0.999961
0.999947
0.999932
0.999919
0.99991
0.9999
0.999896
0.999888
0.999882
0.999846
0.999733
0.960554
0.0333433
9.44715e-06
1.53983e-06
1.19916e-06
1.19764e-06
1.13393e-06
1.11837e-06
1.12095e-06
1.13709e-06
1.14775e-06
1.16699e-06
1.18139e-06
1.19053e-06
1.21483e-06
1.25045e-06
1.34363e-06
1.49033e-06
1.72471e-06
2.04064e-06
2.42525e-06
2.84031e-06
3.33403e-06
4.06541e-06
4.84804e-06
5.64843e-06
6.12107e-06
5.89637e-06
5.00429e-06
4.05549e-06
2.98873e-06
1.80658e-06
1.06402e-06
7.03506e-07
5.81809e-07
5.23965e-07
4.47812e-07
0.999997
0.999997
0.999997
0.999997
0.999997
0.999997
0.999995
0.999993
0.999991
0.999991
0.99999
0.99999
0.99999
0.99999
0.99999
0.99999
0.99999
0.99999
0.99999
0.99999
0.99999
0.99999
0.99999
0.99999
0.99999
0.99999
0.99999
0.99999
0.99999
0.99999
0.99999
0.99999
0.99999
0.99999
0.99999
0.99999
0.99999
0.99999
0.99999
0.99999
0.99999
0.99999
0.99999
0.999989
0.999988
0.999986
0.999981
0.999973
0.999961
0.999946
0.999932
0.99992
0.999912
0.999902
0.999894
0.999884
0.999872
0.999823
0.999597
0.956056
0.0392981
2.8021e-05
8.67367e-07
8.23822e-07
8.09923e-07
8.10959e-07
8.10869e-07
8.0504e-07
7.99938e-07
7.93692e-07
7.89013e-07
7.81348e-07
7.75815e-07
7.69818e-07
7.63717e-07
7.5782e-07
7.53254e-07
7.49709e-07
7.49897e-07
7.50996e-07
7.48435e-07
7.47191e-07
7.48695e-07
7.48555e-07
7.46915e-07
7.3913e-07
7.20151e-07
6.98604e-07
6.77287e-07
6.47543e-07
6.15561e-07
5.93289e-07
5.78178e-07
5.61502e-07
5.23451e-07
4.40724e-07
0.999997
0.999997
0.999997
0.999997
0.999997
0.999997
0.999996
0.999994
0.999992
0.999991
0.99999
0.99999
0.99999
0.99999
0.99999
0.99999
0.99999
0.99999
0.99999
0.99999
0.99999
0.99999
0.99999
0.99999
0.99999
0.99999
0.99999
0.99999
0.99999
0.99999
0.99999
0.99999
0.99999
0.99999
0.99999
0.99999
0.99999
0.99999
0.99999
0.99999
0.99999
0.99999
0.99999
0.999989
0.999988
0.999986
0.999981
0.999972
0.99996
0.999946
0.999932
0.999921
0.999912
0.999902
0.999892
0.999876
0.999861
0.999813
0.999542
0.938896
0.0368389
5.67727e-05
8.85471e-07
7.83759e-07
7.74751e-07
7.7151e-07
7.72811e-07
7.69824e-07
7.6891e-07
7.66098e-07
7.64921e-07
7.61217e-07
7.57779e-07
7.53048e-07
7.49271e-07
7.45474e-07
7.42224e-07
7.40117e-07
7.36401e-07
7.32983e-07
7.30517e-07
7.27845e-07
7.23851e-07
7.19329e-07
7.15304e-07
7.11473e-07
7.02285e-07
6.87198e-07
6.65308e-07
6.34642e-07
6.03979e-07
5.81238e-07
5.69198e-07
5.51417e-07
5.13454e-07
4.37646e-07
0.999998
0.999998
0.999997
0.999997
0.999997
0.999997
0.999997
0.999995
0.999992
0.999991
0.99999
0.99999
0.99999
0.99999
0.99999
0.99999
0.99999
0.99999
0.99999
0.99999
0.99999
0.99999
0.99999
0.99999
0.99999
0.99999
0.99999
0.99999
0.99999
0.99999
0.99999
0.99999
0.99999
0.99999
0.99999
0.99999
0.99999
0.99999
0.99999
0.99999
0.99999
0.99999
0.99999
0.99999
0.999988
0.999986
0.999981
0.999972
0.99996
0.999945
0.99993
0.99992
0.999914
0.999907
0.999899
0.999884
0.999877
0.999829
0.999353
0.953571
0.0576717
0.000460549
1.52661e-06
7.72634e-07
7.68411e-07
7.61683e-07
7.60643e-07
7.56594e-07
7.55462e-07
7.51967e-07
7.5056e-07
7.47806e-07
7.46531e-07
7.44643e-07
7.4355e-07
7.42662e-07
7.41937e-07
7.40527e-07