/*--------------------------------*- C++ -*----------------------------------*\
| =========                 |                                                 |
| \\      /  F ield         | OpenFOAM: The Open Source CFD Toolbox           |
|  \\    /   O peration     | Version:  2.3.0                                 |
|   \\  /    A nd           | Web:      www.OpenFOAM.org                      |
|    \\/     M anipulation  |                                                 |
\*---------------------------------------------------------------------------*/
FoamFile
{
    version     2.0;
    format      ascii;
    class       volScalarField;
    location    "59";
    object      alpha.air;
}
// * * * * * * * * * * * * * * * * * * * * * * * * * * * * * * * * * * * * * //

dimensions      [0 0 0 0 0 0 0];

internalField   nonuniform List<scalar> 
6144
(
0.999996
0.999996
0.999995
0.999995
0.999994
0.999993
0.999992
0.999991
0.999991
0.99999
0.99999
0.99999
0.99999
0.99999
0.99999
0.99999
0.99999
0.99999
0.99999
0.99999
0.99999
0.99999
0.99999
0.99999
0.99999
0.99999
0.99999
0.99999
0.99999
0.99999
0.99999
0.99999
0.99999
0.99999
0.99999
0.99999
0.99999
0.99999
0.99999
0.99999
0.99999
0.99999
0.99999
0.999989
0.999986
0.999982
0.999977
0.999971
0.999959
0.999931
0.999897
0.999883
0.999883
0.999881
0.999885
0.999863
0.99986
0.999849
0.999215
0.940908
0.0316916
0.000136931
4.48507e-07
4.54751e-07
4.52697e-07
4.51187e-07
4.51418e-07
4.51771e-07
4.51902e-07
4.53162e-07
4.56454e-07
4.55932e-07
4.54663e-07
4.54814e-07
4.55743e-07
4.57439e-07
4.60677e-07
4.66133e-07
4.70661e-07
5.00828e-07
5.97469e-07
6.9062e-07
7.55129e-07
7.69155e-07
7.64489e-07
7.53448e-07
7.35982e-07
7.30302e-07
7.29954e-07
7.23405e-07
6.82768e-07
5.3007e-07
3.63891e-07
3.63884e-07
3.63917e-07
3.63964e-07
0.999997
0.999996
0.999995
0.999994
0.999994
0.999993
0.999992
0.999991
0.99999
0.99999
0.99999
0.99999
0.99999
0.99999
0.99999
0.99999
0.99999
0.99999
0.99999
0.99999
0.99999
0.99999
0.99999
0.99999
0.99999
0.99999
0.99999
0.99999
0.99999
0.99999
0.99999
0.99999
0.99999
0.99999
0.99999
0.99999
0.99999
0.99999
0.99999
0.99999
0.99999
0.99999
0.99999
0.999989
0.999987
0.999984
0.99998
0.999974
0.99996
0.999926
0.999906
0.999894
0.999895
0.999891
0.999893
0.99987
0.999864
0.999853
0.999548
0.948528
0.0257275
8.07758e-05
4.43913e-07
4.48998e-07
4.44199e-07
4.43918e-07
4.45057e-07
4.58854e-07
4.93895e-07
5.12138e-07
5.39394e-07
5.4808e-07
5.41332e-07
4.97617e-07
4.72618e-07
4.67667e-07
4.8176e-07
5.62502e-07
7.04719e-07
7.86788e-07
8.27453e-07
8.41276e-07
8.43292e-07
8.23107e-07
7.77359e-07
7.33611e-07
7.00344e-07
6.94358e-07
6.93769e-07
7.0262e-07
7.07992e-07
6.36613e-07
4.29142e-07
3.63901e-07
3.63949e-07
3.64052e-07
0.999997
0.999996
0.999995
0.999994
0.999994
0.999993
0.999992
0.999991
0.999991
0.99999
0.99999
0.99999
0.99999
0.99999
0.99999
0.99999
0.99999
0.99999
0.99999
0.99999
0.99999
0.99999
0.99999
0.99999
0.99999
0.99999
0.99999
0.99999
0.99999
0.99999
0.99999
0.99999
0.99999
0.99999
0.99999
0.99999
0.99999
0.99999
0.99999
0.99999
0.99999
0.99999
0.999989
0.999989
0.999987
0.999985
0.999981
0.999974
0.99996
0.999936
0.999919
0.999901
0.999898
0.999895
0.999894
0.999866
0.99986
0.999846
0.999536
0.958083
0.0260958
8.66822e-05
4.4391e-07
4.43912e-07
4.43914e-07
4.43916e-07
5.13945e-07
5.67287e-07
6.05314e-07
6.08774e-07
6.25982e-07
6.51616e-07
6.54251e-07
6.44986e-07
6.7997e-07
7.67866e-07
8.72117e-07
9.42928e-07
9.57414e-07
9.20375e-07
8.72335e-07
8.64434e-07
8.40198e-07
8.31513e-07
7.86518e-07
7.32698e-07
7.21681e-07
7.09569e-07
6.87229e-07
6.67597e-07
6.67037e-07
6.67963e-07
5.89382e-07
4.13359e-07
3.64053e-07
3.64063e-07
0.999997
0.999996
0.999995
0.999995
0.999994
0.999993
0.999992
0.999991
0.999991
0.99999
0.99999
0.99999
0.99999
0.99999
0.99999
0.99999
0.99999
0.99999
0.99999
0.99999
0.99999
0.99999
0.99999
0.99999
0.99999
0.99999
0.99999
0.99999
0.99999
0.99999
0.99999
0.99999
0.99999
0.99999
0.99999
0.99999
0.99999
0.99999
0.99999
0.99999
0.99999
0.99999
0.999989
0.999989
0.999987
0.999984
0.999979
0.99997
0.999957
0.999942
0.999929
0.999913
0.999905
0.999899
0.999894
0.999859
0.999854
0.999842
0.999691
0.946561
0.014399
2.93956e-05
2.46831e-06
1.88217e-06
2.62501e-06
3.61546e-06
4.76222e-06
6.00685e-06
7.01543e-06
7.65482e-06
7.92097e-06
8.12133e-06
8.24846e-06
8.48972e-06
8.86546e-06
8.8914e-06
6.624e-06
4.50681e-06
2.65334e-06
1.64838e-06
1.08239e-06
8.55813e-07
8.41985e-07
8.43472e-07
8.52624e-07
7.54132e-07
7.8112e-07
7.34565e-07
6.87796e-07
6.53781e-07
6.49873e-07
6.55895e-07
6.46061e-07
5.13234e-07
3.8691e-07
3.79439e-07
0.999997
0.999997
0.999996
0.999995
0.999994
0.999994
0.999992
0.999991
0.999991
0.99999
0.99999
0.99999
0.99999
0.99999
0.99999
0.99999
0.99999
0.99999
0.99999
0.99999
0.99999
0.99999
0.99999
0.99999
0.99999
0.99999
0.99999
0.99999
0.99999
0.99999
0.99999
0.99999
0.99999
0.99999
0.99999
0.99999
0.99999
0.99999
0.99999
0.99999
0.99999
0.99999
0.999989
0.999988
0.999986
0.999983
0.999976
0.999966
0.999956
0.999947
0.999935
0.99992
0.99991
0.999901
0.999888
0.999848
0.999849
0.999838
0.999722
0.92212
0.0139622
0.000340341
0.00031461
0.000327532
0.000382928
0.000448028
0.000525713
0.000604342
0.000677664
0.000738717
0.000783625
0.000809597
0.000824669
0.000827846
0.000785993
0.00071626
0.000591717
0.000444288
0.000296091
0.000176649
9.03711e-05
3.94538e-05
1.39099e-05
4.28308e-06
1.73157e-06
1.05658e-06
9.08697e-07
7.02873e-07
5.90144e-07
5.85472e-07
5.93274e-07
6.18e-07
6.35999e-07
5.82077e-07
4.3504e-07
4.02779e-07
0.999997
0.999997
0.999996
0.999996
0.999995
0.999994
0.999993
0.999992
0.999991
0.999991
0.99999
0.99999
0.99999
0.99999
0.99999
0.99999
0.99999
0.99999
0.99999
0.99999
0.99999
0.99999
0.99999
0.99999
0.99999
0.99999
0.99999
0.99999
0.99999
0.99999
0.99999
0.99999
0.99999
0.99999
0.99999
0.99999
0.99999
0.99999
0.99999
0.99999
0.99999
0.99999
0.999989
0.999988
0.999986
0.999982
0.999974
0.999966
0.999959
0.99995
0.99994
0.999925
0.999914
0.999897
0.999871
0.999838
0.999846
0.999834
0.999628
0.877128
0.0186867
0.00314612
0.00349665
0.00366971
0.00410732
0.00453789
0.00499709
0.00543782
0.00585777
0.00624505
0.00655205
0.00673631
0.00680375
0.00672381
0.00647218
0.00612631
0.00552882
0.00475898
0.0038759
0.00298279
0.00210047
0.00135203
0.000761471
0.000354474
0.000135894
4.2043e-05
1.3797e-05
3.48229e-06
9.27639e-07
5.85651e-07
5.9031e-07
6.09874e-07
6.17483e-07
5.6467e-07
3.95445e-07
3.95445e-07
0.999997
0.999997
0.999996
0.999996
0.999995
0.999994
0.999993
0.999992
0.999991
0.999991
0.99999
0.99999
0.99999
0.99999
0.99999
0.99999
0.99999
0.99999
0.99999
0.99999
0.99999
0.99999
0.99999
0.99999
0.99999
0.99999
0.99999
0.99999
0.99999
0.99999
0.99999
0.99999
0.99999
0.99999
0.99999
0.99999
0.99999
0.99999
0.99999
0.99999
0.99999
0.99999
0.999989
0.999988
0.999985
0.999981
0.999974
0.999967
0.99996
0.999951
0.99994
0.999921
0.999899
0.999877
0.99985
0.999834
0.999845
0.999842
0.999853
0.79278
0.021259
0.0101338
0.0112194
0.0116444
0.0120487
0.0125253
0.0129881
0.0133078
0.0135426
0.0137987
0.0140082
0.0140937
0.0141345
0.0141353
0.0140825
0.0138931
0.0135333
0.0128887
0.0119616
0.0108259
0.00939681
0.00782278
0.00612862
0.00442527
0.00296281
0.00185964
0.00112963
0.000622132
0.000274171
6.81159e-05
3.49464e-07
3.49463e-07
3.49463e-07
3.49464e-07
4.33345e-05
4.58287e-05
0.999997
0.999997
0.999997
0.999996
0.999995
0.999994
0.999993
0.999992
0.999991
0.999991
0.99999
0.99999
0.99999
0.99999
0.99999
0.99999
0.99999
0.99999
0.99999
0.99999
0.99999
0.99999
0.99999
0.99999
0.99999
0.99999
0.99999
0.99999
0.99999
0.99999
0.99999
0.99999
0.99999
0.99999
0.99999
0.99999
0.99999
0.99999
0.99999
0.99999
0.99999
0.99999
0.999989
0.999988
0.999985
0.99998
0.999973
0.999966
0.999957
0.999941
0.999927
0.999898
0.999873
0.999856
0.999839
0.999838
0.999846
0.999841
0.999853
0.761223
0.024313
0.0132665
0.0141016
0.0142759
0.014194
0.014257
0.0142608
0.0143044
0.0143823
0.0145225
0.0147742
0.0151635
0.0156438
0.0160814
0.0165035
0.0168007
0.0168728
0.0168603
0.0165917
0.0162196
0.0158604
0.0153622
0.0146261
0.0134246
0.0119292
0.0103622
0.00889805
0.00757363
0.00629605
0.00568567
0.00663945
0.00822154
0.00980587
0.0109004
0.011459
0.01015
0.999998
0.999997
0.999997
0.999997
0.999995
0.999994
0.999993
0.999993
0.999992
0.999991
0.99999
0.99999
0.99999
0.99999
0.99999
0.99999
0.99999
0.99999
0.99999
0.99999
0.99999
0.99999
0.99999
0.99999
0.99999
0.99999
0.99999
0.99999
0.99999
0.99999
0.99999
0.99999
0.99999
0.99999
0.99999
0.99999
0.99999
0.99999
0.99999
0.99999
0.99999
0.99999
0.999989
0.999987
0.999984
0.999979
0.999972
0.999965
0.999953
0.99993
0.99991
0.999878
0.999856
0.999846
0.999837
0.99984
0.999846
0.999832
0.999734
0.779191
0.0182015
0.00794536
0.00760395
0.00662495
0.00603438
0.00573385
0.00567851
0.00584973
0.00614053
0.00647032
0.00687239
0.00733052
0.00798573
0.00890991
0.0100364
0.0111925
0.0123516
0.013446
0.0142732
0.014852
0.0153579
0.0156927
0.0158819
0.0157397
0.0152622
0.0147325
0.0139491
0.0130959
0.0118885
0.0109308
0.0105083
0.00997186
0.00902639
0.00736963
0.00475757
0.0029129
0.999998
0.999998
0.999997
0.999997
0.999996
0.999995
0.999993
0.999993
0.999992
0.999991
0.99999
0.99999
0.99999
0.99999
0.99999
0.99999
0.99999
0.99999
0.99999
0.99999
0.99999
0.99999
0.99999
0.99999
0.99999
0.99999
0.99999
0.99999
0.99999
0.99999
0.99999
0.99999
0.99999
0.99999
0.99999
0.99999
0.99999
0.99999
0.99999
0.99999
0.99999
0.99999
0.999989
0.999987
0.999984
0.999978
0.999972
0.999964
0.999949
0.999919
0.999898
0.999868
0.99985
0.999842
0.99984
0.999834
0.999846
0.999842
0.999853
0.880421
0.0111183
0.00167084
0.00136812
0.000924802
0.000828106
0.000782117
0.000897628
0.000986639
0.00111141
0.00125983
0.00143958
0.0016283
0.00184196
0.0021198
0.00247409
0.00283872
0.00323559
0.00378473
0.00447358
0.00524998
0.00614248
0.00683985
0.0073904
0.00794348
0.00835947
0.00867369
0.00881092
0.00889745
0.0083338
0.00755257
0.0067355
0.00547397
0.00392135
0.00223775
0.000935601
0.000456187
0.999998
0.999998
0.999998
0.999997
0.999996
0.999995
0.999993
0.999992
0.999992
0.999991
0.99999
0.99999
0.99999
0.99999
0.99999
0.99999
0.99999
0.99999
0.99999
0.99999
0.99999
0.99999
0.99999
0.99999
0.99999
0.99999
0.99999
0.99999
0.99999
0.99999
0.99999
0.99999
0.99999
0.99999
0.99999
0.99999
0.99999
0.99999
0.99999
0.99999
0.99999
0.99999
0.999989
0.999986
0.999983
0.999978
0.999972
0.999962
0.99994
0.999911
0.999894
0.999871
0.999852
0.999843
0.999842
0.999836
0.999844
0.999835
0.999853
0.937949
0.0112989
0.000150509
0.000117707
9.21154e-05
8.85058e-05
8.55818e-05
9.97913e-05
0.000113703
0.000132616
0.000156891
0.000184385
0.000216599
0.000256024
0.00030069
0.00034773
0.000399355
0.000461647
0.000559876
0.000708838
0.000900506
0.00114486
0.00136871
0.00153445
0.00168524
0.00185706
0.0019721
0.00204358
0.00210089
0.00210248
0.00172121
0.00130675
0.000815142
0.000390108
0.00014608
4.74311e-05
2.11553e-05
0.999998
0.999998
0.999998
0.999998
0.999997
0.999996
0.999994
0.999992
0.999992
0.999991
0.99999
0.99999
0.99999
0.99999
0.99999
0.99999
0.99999
0.99999
0.99999
0.99999
0.99999
0.99999
0.99999
0.99999
0.99999
0.99999
0.99999
0.99999
0.99999
0.99999
0.99999
0.99999
0.99999
0.99999
0.99999
0.99999
0.99999
0.99999
0.99999
0.99999
0.99999
0.99999
0.999989
0.999986
0.999982
0.999977
0.999971
0.999959
0.999935
0.99991
0.999895
0.999882
0.999861
0.999845
0.999845
0.99984
0.999847
0.99984
0.999853
0.957239
0.0193576
1.58433e-05
9.74728e-06
8.23429e-06
7.40219e-06
6.63177e-06
6.65224e-06
6.7832e-06
7.38059e-06
8.30146e-06
8.74901e-06
8.73917e-06
8.76375e-06
1.0227e-05
1.21731e-05
1.33438e-05
1.38562e-05
1.53623e-05
2.61426e-05
4.30079e-05
6.04397e-05
7.34905e-05
7.86359e-05
8.61226e-05
9.41196e-05
9.62459e-05
9.27874e-05
9.08632e-05
7.88661e-05
5.84568e-05
3.68747e-05
1.6277e-05
5.19676e-06
1.71453e-06
1.07017e-06
1.08331e-06
0.999998
0.999998
0.999998
0.999998
0.999998
0.999997
0.999995
0.999993
0.999991
0.999991
0.99999
0.99999
0.99999
0.99999
0.99999
0.99999
0.99999
0.99999
0.99999
0.99999
0.99999
0.99999
0.99999
0.99999
0.99999
0.99999
0.99999
0.99999
0.99999
0.99999
0.99999
0.99999
0.99999
0.99999
0.99999
0.99999
0.99999
0.99999
0.99999
0.99999
0.99999
0.99999
0.999989
0.999986
0.999982
0.999977
0.99997
0.999957
0.999931
0.999907
0.999892
0.999881
0.999869
0.999858
0.999855
0.999847
0.999853
0.999842
0.999668
0.963745
0.0351132
2.52362e-05
5.14458e-07
8.50517e-07
7.60995e-07
9.55633e-07
1.36792e-06
8.44053e-07
6.27403e-07
8.10084e-07
9.24663e-07
9.52676e-07
9.1599e-07
8.36732e-07
6.73046e-07
5.43375e-07
5.29809e-07
5.2981e-07
5.29812e-07
5.29814e-07
5.29816e-07
5.40431e-07
9.0847e-07
7.0874e-07
7.46116e-07
7.29651e-07
7.2965e-07
9.73151e-07
1.3284e-06
8.18416e-07
7.29033e-07
7.8369e-07
9.22791e-07
9.50519e-07
8.26788e-07
6.96744e-07
0.999998
0.999998
0.999998
0.999998
0.999998
0.999997
0.999996
0.999994
0.999992
0.999991
0.99999
0.99999
0.99999
0.99999
0.99999
0.99999
0.99999
0.99999
0.99999
0.99999
0.99999
0.99999
0.99999
0.99999
0.99999
0.99999
0.99999
0.99999
0.99999
0.99999
0.99999
0.99999
0.99999
0.99999
0.99999
0.99999
0.99999
0.99999
0.99999
0.99999
0.99999
0.99999
0.999989
0.999986
0.999982
0.999977
0.999971
0.999957
0.999927
0.999902
0.999891
0.999885
0.999878
0.999873
0.999869
0.999848
0.999855
0.999841
0.999394
0.966643
0.0570817
0.000210227
4.97681e-07
5.02619e-07
4.97789e-07
4.9878e-07
4.96224e-07
4.96226e-07
4.97443e-07
5.06496e-07
5.33699e-07
5.78617e-07
6.29444e-07
6.76112e-07
6.94638e-07
6.80918e-07
6.51135e-07
6.16114e-07
5.77194e-07
5.4324e-07
5.50143e-07
6.70018e-07
7.08503e-07
7.10502e-07
7.74892e-07
8.26434e-07
8.28843e-07
8.62052e-07
8.56179e-07
7.56906e-07
7.15424e-07
7.08188e-07
7.16606e-07
7.43403e-07
7.33905e-07
6.17592e-07
0.999998
0.999998
0.999998
0.999998
0.999998
0.999998
0.999997
0.999996
0.999993
0.999991
0.99999
0.99999
0.99999
0.99999
0.99999
0.99999
0.99999
0.99999
0.99999
0.99999
0.99999
0.99999
0.99999
0.99999
0.99999
0.99999
0.99999
0.99999
0.99999
0.99999
0.99999
0.99999
0.99999
0.99999
0.99999
0.99999
0.99999
0.99999
0.99999
0.99999
0.99999
0.99999
0.999989
0.999987
0.999983
0.999978
0.999971
0.999959
0.999928
0.9999
0.999892
0.999889
0.999883
0.99987
0.999856
0.99982
0.999834
0.999831
0.999472
0.96397
0.063932
0.000449934
1.05222e-06
4.96212e-07
4.96213e-07
4.96216e-07
4.96221e-07
4.96516e-07
4.98047e-07
5.0057e-07
5.0536e-07
5.1673e-07
5.40174e-07
5.6243e-07
5.77521e-07
5.77508e-07
5.74809e-07
5.65334e-07
5.46653e-07
5.30861e-07
5.36028e-07
6.33043e-07
7.07789e-07
6.94769e-07
7.00439e-07
7.2583e-07
7.4141e-07
7.5464e-07
7.58716e-07
7.25553e-07
7.02425e-07
6.78191e-07
6.45875e-07
6.24069e-07
5.98204e-07
5.33085e-07
0.999998
0.999998
0.999998
0.999997
0.999997
0.999997
0.999997
0.999996
0.999993
0.999991
0.99999
0.99999
0.99999
0.99999
0.99999
0.99999
0.99999
0.99999
0.99999
0.99999
0.99999
0.99999
0.99999
0.99999
0.99999
0.99999
0.99999
0.99999
0.99999
0.99999
0.99999
0.99999
0.99999
0.99999
0.99999
0.99999
0.99999
0.99999
0.99999
0.99999
0.99999
0.99999
0.999989
0.999987
0.999984
0.999979
0.999972
0.99996
0.999933
0.9999
0.999883
0.99988
0.99988
0.99987
0.999855
0.999816
0.999829
0.999823
0.999092
0.937781
0.0531817
0.000433438
1.02765e-06
4.96214e-07
4.97096e-07
4.96797e-07
4.97249e-07
4.99096e-07
5.01747e-07
5.03562e-07
5.05156e-07
5.07628e-07
5.12052e-07
5.16531e-07
5.20857e-07
5.26424e-07
5.33778e-07
5.36104e-07
5.32034e-07
5.27062e-07
5.32564e-07
6.23728e-07
7.05641e-07
6.84918e-07
6.80595e-07
6.78176e-07
6.75731e-07
6.84609e-07
6.8913e-07
6.85555e-07
6.57433e-07
6.15181e-07
5.69956e-07
5.29695e-07
4.88559e-07
4.50148e-07
0.999997
0.999996
0.999995
0.999995
0.999994
0.999993
0.999992
0.999991
0.99999
0.99999
0.99999
0.99999
0.99999
0.99999
0.99999
0.99999
0.99999
0.99999
0.99999
0.99999
0.99999
0.99999
0.99999
0.99999
0.99999
0.99999
0.99999
0.99999
0.99999
0.99999
0.99999
0.99999
0.99999
0.99999
0.99999
0.99999
0.99999
0.99999
0.99999
0.99999
0.99999
0.99999
0.99999
0.999989
0.999986
0.999982
0.999976
0.99997
0.99996
0.999934
0.999898
0.99988
0.999878
0.999878
0.999883
0.999851
0.999853
0.999818
0.999411
0.935717
0.0318266
3.2072e-05
4.43917e-07
4.54842e-07
4.53981e-07
4.511e-07
4.50508e-07
4.5168e-07
4.53836e-07
4.53592e-07
4.54725e-07
4.5473e-07
4.54043e-07
4.5431e-07
4.54317e-07
4.54321e-07
4.55342e-07
4.61224e-07
4.68842e-07
4.92668e-07
5.6987e-07
6.68738e-07
7.28459e-07
7.50856e-07
7.57091e-07
7.35229e-07
7.02163e-07
6.80698e-07
6.73812e-07
6.69731e-07
6.63825e-07
6.0058e-07
4.48425e-07
3.83244e-07
3.68479e-07
3.64065e-07
0.999997
0.999996
0.999995
0.999994
0.999994
0.999993
0.999992
0.999991
0.999991
0.99999
0.99999
0.99999
0.99999
0.99999
0.99999
0.99999
0.99999
0.99999
0.99999
0.99999
0.99999
0.99999
0.99999
0.99999
0.99999
0.99999
0.99999
0.99999
0.99999
0.99999
0.99999
0.99999
0.99999
0.99999
0.99999
0.99999
0.99999
0.99999
0.99999
0.99999
0.99999
0.99999
0.999989
0.999989
0.999987
0.999983
0.999978
0.999972
0.999961
0.999933
0.999901
0.999882
0.999882
0.999882
0.999882
0.999853
0.999846
0.999801
0.999666
0.889546
0.00964218
7.16416e-06
4.43914e-07
4.4776e-07
4.44233e-07
4.46479e-07
4.50056e-07
4.57418e-07
4.63172e-07
4.68677e-07
4.85734e-07
5.21633e-07
5.29979e-07
5.16559e-07
4.81723e-07
4.67607e-07
5.01294e-07
5.94e-07
7.01569e-07
7.49757e-07
7.60962e-07
7.67828e-07
7.68573e-07
7.54765e-07
7.59496e-07
7.20184e-07
6.98766e-07
6.78968e-07
6.51959e-07
6.16179e-07
6.13407e-07
6.17423e-07
5.47534e-07
4.32438e-07
3.75821e-07
3.64063e-07
0.999998
0.999997
0.999995
0.999994
0.999994
0.999993
0.999992
0.999992
0.999991
0.999991
0.99999
0.99999
0.99999
0.99999
0.99999
0.99999
0.99999
0.99999
0.99999
0.99999
0.99999
0.99999
0.99999
0.99999
0.99999
0.99999
0.99999
0.99999
0.99999
0.99999
0.99999
0.99999
0.99999
0.99999
0.99999
0.99999
0.99999
0.99999
0.99999
0.99999
0.99999
0.99999
0.999989
0.999988
0.999986
0.999983
0.999978
0.999971
0.999961
0.999939
0.999907
0.999888
0.999885
0.999881
0.999873
0.99984
0.999858
0.999806
0.999729
0.921011
0.0161382
8.10565e-07
5.39893e-07
7.02014e-07
5.42079e-07
5.15866e-07
1.00686e-06
1.39067e-06
6.69103e-07
4.73282e-07
5.13227e-07
5.06716e-07
4.98407e-07
6.85268e-07
1.65989e-06
1.69891e-06
6.57633e-07
5.93903e-07
7.09419e-07
7.38304e-07
7.33107e-07
7.34854e-07
6.87098e-07
6.97042e-07
7.70646e-07
7.78374e-07
7.93804e-07
7.52079e-07
7.03533e-07
6.58172e-07
6.05527e-07
5.89044e-07
5.85549e-07
5.30907e-07
4.53704e-07
3.99238e-07
0.999998
0.999998
0.999996
0.999995
0.999994
0.999993
0.999993
0.999992
0.999991
0.999991
0.99999
0.99999
0.99999
0.99999
0.99999
0.99999
0.99999
0.99999
0.99999
0.99999
0.99999
0.99999
0.99999
0.99999
0.99999
0.99999
0.99999
0.99999
0.99999
0.99999
0.99999
0.99999
0.99999
0.99999
0.99999
0.99999
0.99999
0.99999
0.99999
0.99999
0.99999
0.99999
0.999989
0.999988
0.999985
0.999981
0.999974
0.999966
0.999957
0.999944
0.999926
0.999901
0.99989
0.999881
0.999859
0.999831
0.999852
0.999833
0.999792
0.894424
0.00444706
4.68574e-05
4.16465e-05
3.17559e-05
3.41452e-05
3.33769e-05
3.01721e-05
3.08438e-05
3.17326e-05
2.8012e-05
2.67444e-05
2.65549e-05
2.96462e-05
3.25521e-05
3.58212e-05
3.89031e-05
4.19899e-05
4.30521e-05
3.58459e-05
2.81997e-05
1.88025e-05
1.12639e-05
5.89795e-06
2.70353e-06
1.21329e-06
8.71754e-07
9.20555e-07
7.95506e-07
6.14602e-07
5.71564e-07
5.92715e-07
5.8787e-07
5.80893e-07
5.7257e-07
5.40774e-07
4.59295e-07
0.999998
0.999998
0.999997
0.999996
0.999995
0.999994
0.999993
0.999992
0.999991
0.999991
0.99999
0.99999
0.99999
0.99999
0.99999
0.99999
0.99999
0.99999
0.99999
0.99999
0.99999
0.99999
0.99999
0.99999
0.99999
0.99999
0.99999
0.99999
0.99999
0.99999
0.99999
0.99999
0.99999
0.99999
0.99999
0.99999
0.99999
0.99999
0.99999
0.99999
0.99999
0.99999
0.999989
0.999988
0.999985
0.999979
0.999972
0.999964
0.999956
0.99995
0.999943
0.999912
0.999894
0.999879
0.999845
0.999825
0.999833
0.999833
0.99985
0.834353
0.00725183
0.00165209
0.00164063
0.0016181
0.0017732
0.00184549
0.00192028
0.00193232
0.00191821
0.00192963
0.00199281
0.00203435
0.00207461
0.0020937
0.00206964
0.00197082
0.00182324
0.00160746
0.00135327
0.00109245
0.00082857
0.000583763
0.000374058
0.000207939
9.49112e-05
3.42237e-05
7.51294e-06
1.30152e-06
4.75041e-07
4.74916e-07
4.74799e-07
5.08077e-07
5.4881e-07
5.7227e-07
5.68339e-07
5.05231e-07
0.999998
0.999998
0.999997
0.999996
0.999995
0.999994
0.999993
0.999992
0.999991
0.999991
0.99999
0.99999
0.99999
0.99999
0.99999
0.99999
0.99999
0.99999
0.99999
0.99999
0.99999
0.99999
0.99999
0.99999
0.99999
0.99999
0.99999
0.99999
0.99999
0.99999
0.99999
0.99999
0.99999
0.99999
0.99999
0.99999
0.99999
0.99999
0.99999
0.99999
0.99999
0.99999
0.999989
0.999988
0.999985
0.999979
0.999971
0.999963
0.999956
0.99995
0.999946
0.99992
0.9999
0.99987
0.999835
0.999825
0.999825
0.999834
0.999853
0.744921
0.0165734
0.00935912
0.0100116
0.0102674
0.0105036
0.0107149
0.0108646
0.0109669
0.0110418
0.0111402
0.0112448
0.0113145
0.0113651
0.0113617
0.0110776
0.0107567
0.0102592
0.00959935
0.00877304
0.00781547
0.00683936
0.00576984
0.0045472
0.00326637
0.00202601
0.0010621
0.000432259
0.000132195
2.29491e-05
2.2151e-06
3.58154e-07
3.64419e-07
4.41091e-07
5.00803e-07
5.28318e-07
4.20675e-07
0.999998
0.999998
0.999998
0.999997
0.999995
0.999994
0.999993
0.999992
0.999991
0.999991
0.99999
0.99999
0.99999
0.99999
0.99999
0.99999
0.99999
0.99999
0.99999
0.99999
0.99999
0.99999
0.99999
0.99999
0.99999
0.99999
0.99999
0.99999
0.99999
0.99999
0.99999
0.99999
0.99999
0.99999
0.99999
0.99999
0.99999
0.99999
0.99999
0.99999
0.99999
0.99999
0.999989
0.999988
0.999984
0.999979
0.999971
0.999962
0.999952
0.999941
0.999938
0.99991
0.999874
0.999838
0.99983
0.999826
0.999831
0.99982
0.999853
0.578573
0.0205829
0.0163922
0.0168359
0.0170607
0.0171857
0.0172992
0.0173611
0.0174891
0.0176151
0.0177781
0.0179077
0.0179753
0.0180195
0.0180399
0.0180448
0.0179154
0.0176794
0.0174834
0.0173216
0.0171341
0.017055
0.0169452
0.0161985
0.0149024
0.0124613
0.00959481
0.00650796
0.00405971
0.00219911
0.00107278
0.000690879
0.000993631
0.00130917
0.00175008
0.00236742
0.00298518
0.999998
0.999999
0.999998
0.999997
0.999996
0.999995
0.999993
0.999992
0.999992
0.999991
0.99999
0.99999
0.99999
0.99999
0.99999
0.99999
0.99999
0.99999
0.99999
0.99999
0.99999
0.99999
0.99999
0.99999
0.99999
0.99999
0.99999
0.99999
0.99999
0.99999
0.99999
0.99999
0.99999
0.99999
0.99999
0.99999
0.99999
0.99999
0.99999
0.99999
0.99999
0.99999
0.999989
0.999987
0.999984
0.999978
0.999971
0.999961
0.999948
0.999931
0.999918
0.999865
0.999832
0.999831
0.999832
0.999831
0.999838
0.999824
0.999853
0.613711
0.0245062
0.0187236
0.0189545
0.0190157
0.019002
0.0187489
0.018755
0.0189508
0.0191372
0.0195705
0.0199315
0.0201434
0.0202377
0.0203148
0.0203152
0.0202801
0.0200735
0.020439
0.0210193
0.022011
0.0234195
0.0253441
0.0274661
0.0292388
0.0303515
0.0308144
0.0301219
0.0297221
0.0317724
0.0385029
0.046584
0.0584822
0.0746966
0.100948
0.158703
0.351335
0.999998
0.999999
0.999998
0.999998
0.999997
0.999995
0.999994
0.999993
0.999992
0.999991
0.99999
0.99999
0.99999
0.99999
0.99999
0.99999
0.99999
0.99999
0.99999
0.99999
0.99999
0.99999
0.99999
0.99999
0.99999
0.99999
0.99999
0.99999
0.99999
0.99999
0.99999
0.99999
0.99999
0.99999
0.99999
0.99999
0.99999
0.99999
0.99999
0.99999
0.99999
0.99999
0.999989
0.999987
0.999984
0.999978
0.99997
0.999959
0.999941
0.999918
0.999894
0.99984
0.999828
0.999834
0.999836
0.999838
0.99984
0.999841
0.999853
0.782747
0.021109
0.0103047
0.00998182
0.00920159
0.00895387
0.00894613
0.0096029
0.0102011
0.0110411
0.0118924
0.0126567
0.0133379
0.0141766
0.0149925
0.0155948
0.0160369
0.0164234
0.0168073
0.0177459
0.0196205
0.0225697
0.0261599
0.0293633
0.0328933
0.0371826
0.0411089
0.044773
0.0482016
0.0526391
0.0574901
0.0606416
0.0647073
0.0721205
0.0803138
0.0847365
0.0749506
0.999998
0.999999
0.999999
0.999998
0.999997
0.999996
0.999994
0.999993
0.999992
0.999991
0.99999
0.99999
0.99999
0.99999
0.99999
0.99999
0.99999
0.99999
0.99999
0.99999
0.99999
0.99999
0.99999
0.99999
0.99999
0.99999
0.99999
0.99999
0.99999
0.99999
0.99999
0.99999
0.99999
0.99999
0.99999
0.99999
0.99999
0.99999
0.99999
0.99999
0.99999
0.99999
0.999989
0.999987
0.999984
0.999978
0.999969
0.999956
0.999935
0.999909
0.999888
0.999843
0.999827
0.999832
0.999834
0.999836
0.999841
0.999839
0.999853
0.872876
0.0139317
0.00296699
0.00275715
0.00232517
0.0022723
0.0022337
0.0025686
0.00285522
0.0032166
0.00358383
0.00392676
0.00422295
0.00448753
0.00473625
0.0049839
0.0052295
0.0054858
0.00579908
0.0063487
0.00766965
0.00959817
0.0122865
0.0151844
0.0180669
0.0222258
0.0273052
0.0320815
0.0355241
0.0381058
0.0392971
0.0371916
0.0324162
0.026539
0.0181789
0.00952544
0.00404174
0.999998
0.999999
0.999999
0.999999
0.999998
0.999997
0.999995
0.999993
0.999992
0.999991
0.99999
0.99999
0.99999
0.99999
0.99999
0.99999
0.99999
0.99999
0.99999
0.99999
0.99999
0.99999
0.99999
0.99999
0.99999
0.99999
0.99999
0.99999
0.99999
0.99999
0.99999
0.99999
0.99999
0.99999
0.99999
0.99999
0.99999
0.99999
0.99999
0.99999
0.99999
0.99999
0.999989
0.999987
0.999984
0.999978
0.999969
0.999954
0.999931
0.999906
0.999892
0.999856
0.999832
0.999831
0.999838
0.99983
0.999846
0.99983
0.999853
0.900278
0.00730735
0.000628009
0.000591225
0.000446442
0.000408186
0.000362603
0.000385642
0.000440971
0.000528332
0.00063209
0.000728052
0.000805997
0.000861532
0.000890489
0.00092262
0.000951772
0.000977811
0.0010175
0.00115934
0.00146426
0.00195092
0.00264016
0.00343584
0.00430265
0.00545022
0.00705839
0.0081414
0.00842884
0.00844004
0.00718405
0.00551442
0.00335994
0.0016628
0.000586464
0.000159386
6.04654e-05
0.999999
0.999999
0.999999
0.999999
0.999999
0.999997
0.999995
0.999993
0.999992
0.999991
0.99999
0.99999
0.99999
0.99999
0.99999
0.99999
0.99999
0.99999
0.99999
0.99999
0.99999
0.99999
0.99999
0.99999
0.99999
0.99999
0.99999
0.99999
0.99999
0.99999
0.99999
0.99999
0.99999
0.99999
0.99999
0.99999
0.99999
0.99999
0.99999
0.99999
0.99999
0.99999
0.999989
0.999987
0.999984
0.999979
0.99997
0.999954
0.99993
0.999906
0.999889
0.99988
0.999847
0.999833
0.999838
0.999836
0.999846
0.999828
0.999853
0.927279
0.00331577
9.84834e-05
9.03829e-05
6.0457e-05
5.44485e-05
4.66961e-05
4.57642e-05
4.7185e-05
5.21489e-05
5.99378e-05
6.8943e-05
7.63038e-05
8.10131e-05
8.24969e-05
8.26155e-05
8.13463e-05
7.84068e-05
7.55317e-05
9.14315e-05
0.00011935
0.000160036
0.000213458
0.000269434
0.000314609
0.00037059
0.000423588
0.000424589
0.000323546
0.000264893
0.000187398
0.000107051
4.27029e-05
1.269e-05
2.79088e-06
1.18165e-06
9.86085e-07
0.999999
0.999999
0.999999
0.999999
0.999999
0.999998
0.999997
0.999995
0.999992
0.999991
0.99999
0.99999
0.99999
0.99999
0.99999
0.99999
0.99999
0.99999
0.99999
0.99999
0.99999
0.99999
0.99999
0.99999
0.99999
0.99999
0.99999
0.99999
0.99999
0.99999
0.99999
0.99999
0.99999
0.99999
0.99999
0.99999
0.99999
0.99999
0.99999
0.99999
0.99999
0.99999
0.999989
0.999987
0.999984
0.999979
0.99997
0.999953
0.999928
0.999904
0.999887
0.999877
0.999859
0.999843
0.999846
0.999844
0.99983
0.999796
0.999763
0.917656
0.00792432
3.19917e-06
7.1758e-06
3.29299e-06
2.88543e-06
2.68291e-06
2.78986e-06
3.11236e-06
3.39783e-06
3.56608e-06
3.65989e-06
3.64089e-06
3.37574e-06
3.08994e-06
2.8868e-06
2.6183e-06
2.23701e-06
1.97046e-06
2.50512e-06
3.39416e-06
4.47976e-06
5.27422e-06
4.97911e-06
4.48628e-06
4.54172e-06
4.13326e-06
2.52712e-06
1.64254e-06
1.29735e-06
1.0606e-06
1.08767e-06
1.04643e-06
7.91006e-07
8.17451e-07
9.77545e-07
5.06208e-07
0.999998
0.999998
0.999998
0.999998
0.999999
0.999999
0.999998
0.999997
0.999993
0.999991
0.99999
0.99999
0.99999
0.99999
0.99999
0.99999
0.99999
0.99999
0.99999
0.99999
0.99999
0.99999
0.99999
0.99999
0.99999
0.99999
0.99999
0.99999
0.99999
0.99999
0.99999
0.99999
0.99999
0.99999
0.99999
0.99999
0.99999
0.99999
0.99999
0.99999
0.99999
0.99999
0.999989
0.999987
0.999984
0.999979
0.999971
0.999954
0.999927
0.999901
0.999886
0.999876
0.999868
0.999857
0.999855
0.9998
0.999794
0.999765
0.999627
0.953738
0.0794611
9.36825e-07
9.48742e-07
6.52456e-07
6.08589e-07
5.87682e-07
5.58259e-07
5.37821e-07
5.51204e-07
6.19707e-07
6.82002e-07
7.82516e-07
9.01283e-07
9.71121e-07
9.48443e-07
8.50073e-07
6.80907e-07
5.37629e-07
5.13418e-07
5.0189e-07
5.0993e-07
6.08011e-07
6.96265e-07
6.07704e-07
7.34636e-07
7.8316e-07
7.27452e-07
7.59462e-07
8.55701e-07
7.80673e-07
7.21931e-07
6.83998e-07
6.57798e-07
6.49312e-07
6.61903e-07
4.90403e-07
0.999998
0.999998
0.999998
0.999998
0.999999
0.999999
0.999999
0.999998
0.999995
0.999991
0.99999
0.99999
0.99999
0.99999
0.99999
0.99999
0.99999
0.99999
0.99999
0.99999
0.99999
0.99999
0.99999
0.99999
0.99999
0.99999
0.99999
0.99999
0.99999
0.99999
0.99999
0.99999
0.99999
0.99999
0.99999
0.99999
0.99999
0.99999
0.99999
0.99999
0.99999
0.99999
0.999989
0.999987
0.999983
0.999978
0.999971
0.999957
0.999929
0.9999
0.999886
0.999879
0.999872
0.999854
0.999822
0.999748
0.999787
0.999788
0.999349
0.937181
0.039196
6.10696e-06
4.96279e-07
5.13346e-07
5.05631e-07
4.9967e-07
5.00139e-07
4.99677e-07
4.99386e-07
5.01442e-07
5.25561e-07
6.17341e-07
7.11917e-07
7.14967e-07
7.02864e-07
6.86516e-07
6.58316e-07
6.3221e-07
6.08512e-07
5.76132e-07
5.49003e-07
6.03632e-07
6.75919e-07
5.83167e-07
6.02144e-07
6.55989e-07
7.33762e-07
7.51319e-07
7.51354e-07
7.21745e-07
6.83672e-07
6.3336e-07
5.68298e-07
5.03642e-07
4.54123e-07
4.29376e-07
0.999999
0.999998
0.999998
0.999998
0.999998
0.999999
0.999999
0.999998
0.999996
0.999991
0.99999
0.99999
0.99999
0.99999
0.99999
0.99999
0.99999
0.99999
0.99999
0.99999
0.99999
0.99999
0.99999
0.99999
0.99999
0.99999
0.99999
0.99999
0.99999
0.99999
0.99999
0.99999
0.99999
0.99999
0.99999
0.99999
0.99999
0.99999
0.99999
0.99999
0.99999
0.99999
0.999989
0.999987
0.999984
0.999979
0.999972
0.99996
0.999933
0.999898
0.999881
0.999877
0.999874
0.999852
0.999798
0.999736
0.999758
0.999738
0.99956
0.948746
0.0306058
7.17409e-05
4.96278e-07
5.08643e-07
5.06276e-07
5.00361e-07
5.00544e-07
5.01651e-07
5.02127e-07
5.0249e-07
5.04455e-07
5.08418e-07
5.15762e-07
5.30902e-07
5.56612e-07
5.88342e-07
6.18265e-07
6.24484e-07
6.16487e-07
5.90819e-07
5.51596e-07
5.97593e-07
6.75673e-07
5.8338e-07