/*--------------------------------*- C++ -*----------------------------------*\
| =========                 |                                                 |
| \\      /  F ield         | OpenFOAM: The Open Source CFD Toolbox           |
|  \\    /   O peration     | Version:  2.3.0                                 |
|   \\  /    A nd           | Web:      www.OpenFOAM.org                      |
|    \\/     M anipulation  |                                                 |
\*---------------------------------------------------------------------------*/
FoamFile
{
    version     2.0;
    format      ascii;
    class       surfaceScalarField;
    location    "59";
    object      phi.air;
}
// * * * * * * * * * * * * * * * * * * * * * * * * * * * * * * * * * * * * * //

dimensions      [0 3 -1 0 0 0 0];

internalField   nonuniform List<scalar> 
16448
(
-1.24815e-06
-2.41754e-06
6.23393e-07
4.72937e-07
-2.51506e-06
7.93966e-07
4.99891e-07
-1.21278e-06
1.18582e-06
4.42944e-07
-1.01901e-06
1.07595e-06
1.13036e-07
-5.59477e-07
8.89375e-07
-4.51296e-09
-6.71984e-07
7.89524e-07
2.64377e-09
-7.00326e-07
6.9316e-07
-5.24221e-09
-6.53944e-07
6.61821e-07
-9.30925e-08
-4.97719e-07
5.85561e-07
-2.83701e-07
-3.37189e-07
5.2779e-07
-4.96241e-07
-2.45835e-07
4.58369e-07
-6.05154e-07
-2.55694e-07
3.646e-07
-5.99223e-07
-2.96986e-07
2.91049e-07
-5.01287e-07
-3.41319e-07
2.43375e-07
-3.8277e-07
-3.58944e-07
2.40419e-07
-2.54042e-07
-3.79523e-07
2.50787e-07
-1.36312e-07
-3.946e-07
2.76863e-07
-3.4451e-08
-4.09888e-07
3.08018e-07
4.43678e-08
-4.23189e-07
3.44362e-07
9.8483e-08
-4.33337e-07
3.79213e-07
1.25565e-07
-4.38937e-07
4.11845e-07
1.3034e-07
-4.43621e-07
4.38836e-07
1.2097e-07
-4.46502e-07
4.55862e-07
1.0403e-07
-4.44401e-07
4.61332e-07
8.3874e-08
-4.37054e-07
4.57201e-07
6.49349e-08
-4.25893e-07
4.44821e-07
5.16152e-08
-4.13435e-07
4.26744e-07
4.81755e-08
-4.0398e-07
4.07409e-07
5.46371e-08
-3.94191e-07
3.8772e-07
6.78415e-08
-3.83316e-07
3.70101e-07
8.56855e-08
-3.72234e-07
3.5438e-07
1.08648e-07
-3.62485e-07
3.39511e-07
1.38369e-07
-3.54999e-07
3.25267e-07
1.78404e-07
-3.51635e-07
3.11588e-07
2.328e-07
-3.541e-07
2.99691e-07
3.01995e-07
-3.6248e-07
2.93272e-07
3.81126e-07
-3.75116e-07
2.95973e-07
4.54836e-07
-3.8725e-07
3.13527e-07
4.99893e-07
-3.9733e-07
3.52259e-07
4.97284e-07
-4.29447e-07
4.32042e-07
4.23632e-07
-4.85896e-07
5.59534e-07
3.62721e-07
-6.38758e-07
6.99654e-07
4.28491e-07
-8.88983e-07
8.23199e-07
5.98032e-07
-1.12005e-06
9.50491e-07
6.51209e-07
-1.12921e-06
1.07602e-06
5.26836e-07
-1.06634e-06
1.1907e-06
4.59723e-07
-1.29171e-06
1.3588e-06
9.19587e-07
-2.03982e-06
1.57993e-06
1.85393e-06
-2.76806e-06
1.83369e-06
1.9847e-06
-1.8707e-06
1.73989e-06
2.66297e-07
1.29853e-07
1.58852e-06
-1.65221e-06
-2.02238e-07
2.12073e-06
-2.80393e-06
-1.13253e-06
2.28423e-06
-3.83331e-06
-2.27971e-06
3.3091e-06
-2.0745e-06
-5.50259e-06
3.74374e-06
6.35068e-06
-1.05818e-05
2.15659e-06
9.21466e-06
-7.45477e-06
4.59069e-06
1.32952e-05
-4.90733e-06
8.26741e-07
-7.52704e-06
1.2241e-06
1.92819e-05
-3.22818e-05
-2.78706e-06
-4.3259e-06
-6.80323e-05
-1.45158e-05
2.53787e-06
-1.8325e-05
-8.87926e-06
1.08581e-05
2.40868e-05
-8.73e-06
9.80544e-06
2.70799e-05
-7.83069e-06
4.64727e-06
2.82409e-05
-4.47897e-06
3.25036e-06
2.81255e-05
-2.37327e-06
2.49231e-06
2.85197e-05
-2.54715e-06
2.09731e-06
2.93437e-05
-3.03764e-06
2.19801e-06
2.94866e-05
-2.21887e-06
2.13494e-06
2.95735e-05
-1.9738e-06
1.85839e-06
2.9568e-05
-1.75618e-06
1.70728e-06
2.89284e-05
-7.91474e-07
1.44882e-06
2.74849e-05
9.98325e-08
1.33291e-06
2.42022e-05
1.91169e-06
1.32023e-06
1.97252e-05
2.86045e-06
1.55541e-06
1.38612e-05
4.07143e-06
1.75864e-06
7.78131e-06
4.02923e-06
2.05233e-06
4.89453e-06
1.74657e-06
1.12051e-06
4.49348e-06
-8.34633e-08
4.84965e-07
3.89158e-06
-2.31948e-07
7.18294e-07
2.91678e-06
-6.22216e-07
1.43979e-06
2.07605e-06
-1.29659e-06
2.04246e-06
1.65007e-06
-2.37368e-06
2.72515e-06
7.23762e-07
-1.70342e-06
2.64254e-06
1.09397e-07
-1.47073e-06
2.11926e-06
1.57136e-06
-2.84275e-06
1.40451e-06
4.59378e-06
-4.1054e-06
1.09448e-06
7.48033e-06
-3.88488e-06
1.01659e-06
9.27719e-06
-3.00192e-06
1.23226e-06
9.53768e-06
-2.07396e-06
1.89954e-06
6.81063e-06
2.53646e-07
2.6481e-06
7.94203e-07
2.38335e-06
3.89162e-06
-4.43145e-06
1.70878e-06
3.61259e-06
-6.97721e-06
1.6802e-06
8.98604e-07
-6.6195e-06
2.62594e-06
-3.01203e-06
3.98258e-07
-6.30889e-06
-1.94939e-06
-3.45243e-06
-1.48084e-07
-5.51656e-07
-3.76247e-06
-1.50336e-07
-2.0573e-07
-2.27209e-06
7.13379e-07
1.86989e-07
-1.85875e-06
4.47005e-07
2.4174e-07
-9.17725e-07
3.03482e-07
1.42226e-07
-8.18503e-07
2.46018e-07
3.58496e-08
-7.27996e-07
1.34032e-07
-6.35202e-08
-6.41667e-07
8.708e-08
-2.24732e-07
-4.08324e-07
7.18059e-08
-4.58266e-07
-2.08374e-07
1.04708e-07
-6.77327e-07
-1.20863e-07
9.40783e-08
-7.67941e-07
-1.82286e-07
1.71952e-08
-7.55665e-07
-2.58807e-07
-5.04661e-08
-6.6006e-07
-3.35198e-07
-1.0174e-07
-5.34889e-07
-3.68544e-07
-1.15584e-07
-3.97351e-07
-4.00956e-07
-1.16118e-07
-2.6751e-07
-4.22466e-07
-1.01989e-07
-1.51178e-07
-4.43117e-07
-8.31183e-08
-5.56039e-08
-4.59128e-07
-5.96508e-08
1.66222e-08
-4.69797e-07
-3.57826e-08
6.27009e-08
-4.72644e-07
-1.23881e-08
8.48878e-08
-4.71479e-07
5.65473e-09
9.12932e-08
-4.66675e-07
1.37502e-08
8.75652e-08
-4.56735e-07
1.60437e-08
7.8047e-08
-4.41256e-07
1.37015e-08
6.66967e-08
-4.22206e-07
7.64486e-09
5.72495e-08
-4.02461e-07
-1.5466e-09
5.51557e-08
-3.85553e-07
-1.63535e-08
6.17286e-08
-3.6965e-07
-3.11353e-08
7.59296e-08
-3.52682e-07
-4.48568e-08
9.64682e-08
-3.35645e-07
-5.715e-08
1.23254e-07
-3.21243e-07
-6.80502e-08
1.56077e-07
-3.11389e-07
-7.64567e-08
1.95794e-07
-3.0905e-07
-8.23252e-08
2.44837e-07
-3.17729e-07
-8.54393e-08
3.05385e-07
-3.38489e-07
-8.45637e-08
3.73069e-07
-3.66563e-07
-7.6264e-08
4.28243e-07
-3.89623e-07
-5.28288e-08
4.36824e-07
-4.03269e-07
-2.66951e-09
3.89082e-07
-4.41017e-07
5.92845e-08
3.15405e-07
-5.53436e-07
1.41186e-07
3.06778e-07
-8.3313e-07
2.0297e-07
3.75652e-07
-1.20065e-06
2.42764e-07
4.42036e-07
-1.50259e-06
3.16125e-07
4.65036e-07
-1.56637e-06
4.14126e-07
5.27054e-07
-1.59498e-06
4.66588e-07
6.26058e-07
-1.96191e-06
5.71167e-07
4.89685e-07
-2.85292e-06
9.49446e-07
-2.72362e-07
-3.91467e-06
1.90862e-06
-1.59815e-06
-2.74521e-06
2.20025e-06
-1.25507e-06
-1.46484e-06
1.25156e-06
-7.23966e-07
-7.1891e-07
-1.44484e-08
4.33894e-07
-2.27388e-06
-1.65381e-08
5.66696e-07
-3.90101e-06
1.48847e-06
1.80565e-06
-7.78448e-06
1.04289e-06
7.6094e-06
-1.59572e-05
-4.28336e-07
1.13565e-05
-1.19799e-05
7.77921e-07
1.48343e-05
-1.25062e-05
4.12094e-06
-5.80352e-06
-1.77956e-06
2.33373e-05
-3.27084e-05
-5.56003e-06
-2.8379e-06
-7.42599e-05
-2.20706e-05
-1.87441e-06
-2.45894e-05
-1.29117e-05
1.28211e-05
1.64765e-05
-1.25314e-05
6.80675e-06
1.64842e-05
-8.76163e-06
5.85583e-07
1.56298e-05
-2.40998e-06
-1.11678e-06
1.36894e-05
1.32144e-06
-1.57547e-06
1.01761e-05
1.56245e-06
-6.23414e-07
4.76905e-06
4.20412e-07
1.84759e-06
1.85741e-06
-2.79701e-07
9.74974e-07
1.08875e-06
-6.17885e-07
-5.75557e-07
7.7617e-07
-9.30018e-07
-5.43572e-07
1.14072e-07
1.73493e-07
-2.88181e-07
3.46649e-07
1.58172e-06
-1.67038e-06
1.13119e-06
3.79442e-06
-2.52997e-06
1.34465e-06
5.30683e-06
-2.56058e-06
8.55701e-07
6.29138e-06
-1.66997e-06
-1.78414e-06
6.16204e-06
3.43271e-07
-4.85966e-06
2.83409e-06
1.70357e-06
-6.16517e-06
-1.77222e-06
2.8477e-06
-5.59968e-06
-4.38513e-06
3.5507e-06
-3.65372e-06
-5.58515e-06
2.98745e-06
-2.50044e-06
-5.07169e-06
2.60931e-06
-1.8558e-06
-5.54417e-06
2.57614e-06
-1.63417e-06
-3.36416e-06
1.53715e-06
-1.50997e-06
-2.66047e-06
1.18035e-06
5.84389e-07
-4.92344e-06
1.00833e-07
3.98991e-06
-6.1753e-06
-1.23463e-06
7.37342e-06
-5.5459e-06
-1.659e-06
9.54283e-06
-3.74778e-06
-1.35402e-06
1.05496e-05
-1.95721e-06
-1.04913e-06
9.32356e-06
1.09915e-06
4.9693e-07
4.29594e-06
4.74477e-06
2.9361e-06
-2.34826e-06
4.89359e-06
3.69279e-06
-5.89058e-06
3.53719e-06
1.72645e-06
-5.59515e-06
4.29424e-06
-1.91239e-06
1.73769e-06
-6.16872e-06
-2.47773e-06
-3.71752e-06
-4.27154e-07
-1.32931e-06
-4.23318e-06
-6.77716e-07
-9.17586e-07
-2.9098e-06
2.25978e-07
-3.25348e-07
-2.5115e-06
6.04977e-08
-4.25848e-09
-1.24041e-06
1.58358e-09
-2.38522e-08
-7.97408e-07
-1.51647e-09
-1.26723e-07
-4.69295e-07
-1.55844e-07
-2.23427e-07
-3.68935e-07
-1.76041e-07
-3.27989e-07
-1.22075e-07
-1.81698e-07
-4.37876e-07
4.37364e-08
-1.42233e-07
-5.66577e-07
1.2464e-07
-1.16813e-07
-6.40093e-07
4.80672e-08
-1.56848e-07
-6.63067e-07
-2.43647e-08
-2.11479e-07
-6.31692e-07
-1.07763e-07
-2.58822e-07
-5.67121e-07
-1.51681e-07
-2.81447e-07
-4.81548e-07
-1.90177e-07
-2.96366e-07
-3.91849e-07
-2.13607e-07
-2.98572e-07
-3.04523e-07
-2.34047e-07
-2.9641e-07
-2.26223e-07
-2.47557e-07
-2.89886e-07
-1.58414e-07
-2.55401e-07
-2.82221e-07
-1.02118e-07
-2.54779e-07
-2.74177e-07
-5.7763e-08
-2.47426e-07
-2.68425e-07
-2.5595e-08
-2.34668e-07
-2.64192e-07
-3.54112e-09
-2.17634e-07
-2.61172e-07
1.11553e-08
-1.96845e-07
-2.59126e-07
2.12777e-08
-1.74058e-07
-2.5829e-07
2.93527e-08
-1.51726e-07
-2.58828e-07
3.63655e-08
-1.31541e-07
-2.61044e-07
4.46673e-08
-1.13336e-07
-2.64636e-07
5.58936e-08
-9.51157e-08
-2.68813e-07
6.99987e-08
-7.75645e-08
-2.72207e-07
8.60177e-08
-6.36086e-08
-2.73676e-07
1.01933e-07
-5.46016e-08
-2.72725e-07
1.14617e-07
-5.32001e-08
-2.68557e-07
1.22228e-07
-6.38736e-08
-2.61489e-07
1.25698e-07
-8.93465e-08
-2.52637e-07
1.22389e-07
-1.22828e-07
-2.40451e-07
9.94076e-08
-1.46899e-07
-2.19768e-07
4.39959e-08
-1.6158e-07
-1.86304e-07
-2.57781e-08
-2.25259e-07
-1.46011e-07
-1.47793e-08
-4.48035e-07
-1.16427e-07
1.59703e-07
-8.83488e-07
-1.24153e-07
3.71776e-07
-1.29863e-06
-1.1412e-07
4.78684e-07
-1.54217e-06
-6.73548e-08
5.46533e-07
-1.57995e-06
-5.42969e-08
7.27977e-07
-1.69565e-06
-8.08043e-08
8.69326e-07
-2.1218e-06
1.85053e-08
4.14173e-07
-3.05544e-06
6.57634e-07
-1.46301e-06
-3.9184e-06
1.88089e-06
-3.9527e-06
-2.70482e-06
2.44927e-06
-2.96275e-06
-2.39444e-06
-6.03814e-08
-4.91276e-07
-1.23861e-06
-1.95179e-06
1.01376e-06
-1.53987e-06
-2.23907e-06
1.35007e-06
-3.76929e-06
-4.68051e-07
3.98614e-06
-9.59522e-06
-8.25397e-07
7.18571e-06
-1.79347e-05
-1.22206e-06
1.04926e-05
-1.75063e-05
2.21939e-06
1.91808e-05
-1.74028e-05
-3.79173e-06
-9.39042e-06
5.28131e-06
2.12897e-05
-3.29945e-05
-1.25943e-05
-3.13889e-06
-7.56083e-05
-2.81717e-05
-4.28011e-06
-2.62309e-05
-1.14828e-05
6.32904e-06
1.04864e-05
-5.30385e-06
7.33391e-06
4.5143e-06
-6.8999e-07
1.21154e-06
-4.82134e-07
3.49848e-06
7.8466e-07
-5.65759e-06
6.09172e-06
6.61139e-07
-9.04654e-06
6.06468e-06
-1.50149e-06
-1.1298e-05
3.77295e-06
6.07211e-07
-1.14719e-05
1.98795e-06
-2.12617e-06
-1.26328e-05
-8.62161e-08
3.95745e-07
-1.45539e-05
-8.3999e-07
1.80599e-06
-1.6203e-05
-7.56209e-07
2.53352e-06
-1.83153e-05
7.11212e-07
2.51618e-06
-2.00307e-05
2.48949e-06
1.86812e-06
-2.0586e-05
2.76107e-06
2.4339e-06
-2.023e-05
1.63658e-06
2.92038e-06
-1.88648e-05
-1.06956e-06
3.29404e-06
-1.65883e-05
-5.01455e-06
3.70045e-06
-1.50712e-05
-8.2059e-06
3.59344e-06
-1.35925e-05
-1.07214e-05
3.64145e-06
-1.12686e-05
-1.21115e-05
3.40587e-06
-8.69567e-06
-1.10884e-05
3.51728e-06
-5.93248e-06
-1.05435e-05
2.28646e-06
-3.22357e-06
-7.09008e-06
1.06604e-06
-1.45381e-06
-5.41606e-06
1.11574e-06
1.45215e-06
-6.72837e-06
-1.01071e-06
4.81562e-06
-7.01038e-06
-2.48726e-06
8.4281e-06
-5.56179e-06
-3.58963e-06
1.16576e-05
-3.12813e-06
-3.80403e-06
1.37326e-05
-8.58208e-08
-3.91411e-06
1.40597e-05
3.89972e-06
-3.09336e-06
1.17413e-05
8.38333e-06
-1.25771e-06
4.32991e-06
9.51013e-06
3.12762e-06
-2.37833e-06
7.31497e-06
3.06649e-06
-4.05417e-06
6.80213e-06
-6.65592e-07
4.08831e-06
-5.501e-06
-2.92259e-06
-3.76168e-06
-2.45962e-07
-1.83099e-06
-4.44517e-06
-8.79612e-07
-1.51871e-06
-3.29453e-06
7.24358e-08
-8.98543e-07
-3.17412e-06
4.24428e-08
-4.21361e-07
-1.85489e-06
1.37279e-07
-1.89543e-07
-1.08875e-06
5.95057e-08
-2.07582e-07
-2.98538e-07
-1.52731e-07
-2.6649e-07
-1.10772e-07
-1.99267e-07
-2.84223e-07
1.17367e-07
-2.2172e-07
-3.22839e-07
2.7468e-07
-1.92338e-07
-3.8162e-07
3.81527e-07
-1.98117e-07
-4.58579e-07
3.47243e-07
-2.22228e-07
-5.37599e-07
3.09324e-07
-2.54682e-07
-5.65089e-07
2.15182e-07
-2.95467e-07
-5.51073e-07
1.56328e-07
-3.22038e-07
-5.04303e-07
1.09633e-07
-3.46594e-07
-4.40618e-07
8.42923e-08
-3.61598e-07
-3.72546e-07
7.12889e-08
-3.73421e-07
-3.07138e-07
6.75159e-08
-3.80497e-07
-2.46554e-07
6.86443e-08
-3.84644e-07
-1.90533e-07
7.55409e-08
-3.86357e-07
-1.39916e-07
8.74325e-08
-3.85491e-07
-9.60849e-08
1.03523e-07
-3.8204e-07
-6.00489e-08
1.23215e-07
-3.76902e-07
-3.1949e-08
1.4623e-07
-3.71193e-07
-1.15315e-08
1.7115e-07
-3.65643e-07
2.97835e-09
1.94277e-07
-3.60532e-07
1.40711e-08
2.13801e-07
-3.56454e-07
2.2841e-08
2.31443e-07
-3.53569e-07
2.92844e-08
2.49523e-07
-3.51103e-07
3.25289e-08
2.6776e-07
-3.48591e-07
3.17103e-08
2.82114e-07
-3.44926e-07
2.61473e-08
2.89748e-07
-3.38809e-07
1.48546e-08
2.88833e-07
-3.30763e-07
-4.42402e-09
2.76632e-07
-3.21251e-07
-3.42221e-08
2.52275e-07
-3.11848e-07
-8.06288e-08
2.26619e-07
-3.03065e-07
-1.56692e-07
2.20142e-07
-2.91003e-07
-2.6457e-07
2.18243e-07
-2.71971e-07
-3.45099e-07
1.10718e-07
-2.55475e-07
-2.71274e-07
-2.53577e-07
-2.68311e-07
-1.38363e-08
-8.05974e-07
-3.34979e-07
2.96026e-07
-1.23934e-06
-3.6919e-07
5.30546e-07
-1.43777e-06
-3.38953e-07
7.00693e-07
-1.43774e-06
-3.1239e-07
8.40508e-07
-1.52278e-06
-3.12722e-07
8.64063e-07
-1.94714e-06
-1.98241e-07
9.72889e-08
-2.79629e-06
5.0759e-07
-2.44165e-06
-3.08821e-06
1.70871e-06
-5.31945e-06
-2.62873e-06
2.80168e-06
-5.21515e-06
-2.82991e-06
3.31142e-07
-2.64111e-06
-1.68969e-06
-2.12299e-06
1.81088e-07
-1.92062e-06
-2.44148e-06
1.47074e-06
-4.19957e-06
-8.59389e-07
6.59305e-06
-1.31186e-05
-1.59905e-06
1.20489e-05
-2.37191e-05
3.2856e-07
1.67542e-05
-2.63013e-05
4.08955e-06
2.4297e-05
-2.21443e-05
-2.80121e-06
-4.18393e-06
9.55465e-06
2.37892e-05
-3.90456e-05
-1.2287e-05
-4.45748e-06
-0.000104691
-3.00608e-05
-3.66116e-06
-0.000106798
-6.32395e-06
5.92772e-06
-0.000115251
-7.63317e-07
4.68781e-06
-0.000121665
3.6457e-06
1.85744e-06
-0.000121208
4.75868e-06
-4.04301e-10
-0.000120971
5.99908e-06
-3.82475e-07
-0.000121555
5.60781e-06
1.58009e-07
-0.000124449
3.80511e-06
1.39033e-06
-0.000128332
2.54707e-06
2.04991e-06
-0.000132882
4.44644e-07
2.74481e-06
-0.000137866
-7.11575e-07
4.04316e-06
-0.000141163
-1.56008e-06
5.51429e-06
-0.000141902
-1.36864e-06
5.63416e-06
-0.000141911
-1.01255e-06
5.72913e-06
-0.000141506
-1.87607e-06
5.28497e-06
-0.000139611
-4.12361e-06
4.87727e-06
-0.000136527
-7.2652e-06
5.03049e-06
-0.00013149
-1.05312e-05
4.23551e-06
-0.000121946
-1.31118e-05
4.20945e-06
-0.000102731
-1.55654e-05
3.92634e-06
-5.4892e-05
-1.66922e-05
3.61971e-06
-1.64082e-05
-1.82939e-05
3.63811e-06
-1.20756e-05
-1.70595e-05
2.72725e-06
-6.51899e-06
-1.37024e-05
1.44251e-06
-1.53421e-06
-9.87884e-06
-9.06309e-07
2.77723e-06
-8.10724e-06
-3.12954e-06
7.05996e-06
-7.23435e-06
-4.05896e-06
1.10928e-05
-4.91938e-06
-4.5797e-06
1.41544e-05
-1.42391e-06
-4.70109e-06
1.56726e-05
3.58201e-06
-5.19253e-06
1.61321e-05
8.67306e-06
-5.22041e-06
1.53476e-05
1.41496e-05
-5.08866e-06
1.03479e-05
1.67992e-05
-2.22128e-06
2.24297e-06
1.42026e-05
1.41554e-06
-1.89393e-06
1.20688e-05
-9.44328e-07
9.30802e-06
-6.0077e-06
-3.36537e-06
-3.67244e-06
8.85285e-09
-2.31358e-06
-4.57364e-06
-9.23313e-07
-2.03751e-06
-3.51711e-06
-5.34943e-08
-1.38126e-06
-3.70356e-06
-1.26828e-07
-8.72412e-07
-2.66019e-06
2.96447e-07
-3.66413e-07
-1.79911e-06
2.04354e-07
-2.10642e-07
-3.36148e-07
-1.18173e-07
-2.64064e-07
1.09855e-07
-1.67215e-07
-2.32179e-07
3.05369e-07
-2.19896e-07
-2.21551e-07
4.70158e-07
-2.06117e-07
-2.31613e-07
6.05533e-07
-2.13955e-07
-3.07125e-07
6.32919e-07
-2.10174e-07
-4.20474e-07
6.40733e-07
-2.18072e-07
-4.92658e-07
5.32802e-07
-2.45447e-07
-5.10443e-07
4.44413e-07
-2.70313e-07
-4.86571e-07
3.83008e-07
-2.97259e-07
-4.40136e-07
3.56274e-07
-3.18428e-07
-3.87932e-07
3.5649e-07
-3.37419e-07
-3.35609e-07
3.67973e-07
-3.52794e-07
-2.84528e-07
3.82657e-07
-3.65109e-07
-2.33145e-07
3.99012e-07
-3.74868e-07
-1.81839e-07
4.17568e-07
-3.81457e-07
-1.33489e-07
4.39141e-07
-3.83983e-07
-9.03874e-08
4.62656e-07
-3.82559e-07
-5.36305e-08
4.87368e-07
-3.77912e-07
-2.42689e-08
5.11898e-07
-3.70128e-07
-1.8822e-09
5.32772e-07
-3.60899e-07
1.44143e-08
5.49081e-07
-3.51595e-07
2.33397e-08
5.6456e-07
-3.4206e-07
2.34661e-08
5.81816e-07
-3.32438e-07
1.36732e-08
6.00288e-07
-3.22754e-07
-5.51626e-09
6.1449e-07
-3.13206e-07
-3.30761e-08
6.21984e-07
-3.04696e-07
-6.98769e-08
6.23036e-07
-2.97423e-07
-1.19322e-07
6.17542e-07
-2.91486e-07
-1.87995e-07
6.08199e-07
-2.87272e-07
-2.79081e-07
6.02486e-07
-2.84802e-07
-3.84069e-07
6.07308e-07
-2.822e-07
-4.78404e-07
5.88685e-07
-2.76129e-07
-4.9464e-07
4.01471e-07
-2.74539e-07
-3.82017e-07
-5.85783e-08
-3.07645e-07
-1.81374e-07
-6.00642e-07
-4.05999e-07
6.2056e-08
-9.82777e-07
-5.00014e-07
2.78259e-07
-1.12421e-06
-5.29786e-07
4.31495e-07
-1.04138e-06
-5.49622e-07
3.92148e-07
-9.98508e-07
-4.84947e-07
-2.21455e-07
-1.13573e-06
-1.97836e-07
-1.73577e-06
-1.74623e-06
4.64241e-07
-4.45201e-06
-1.79926e-06
1.42726e-06
-6.76056e-06
-2.60323e-06
2.28303e-06
-7.1228e-06
-3.41243e-06
9.44733e-07
-4.52508e-06
-2.30861e-06
-1.97882e-06
-1.77017e-07
-3.60284e-06
-2.66587e-06
4.16585e-06
-6.96241e-06
-1.58005e-06
1.10108e-05
-1.81905e-05
-1.77314e-06
1.73051e-05
-3.12844e-05
1.27104e-06
2.26037e-05
-3.54097e-05
3.80984e-06
3.02537e-05
-3.54631e-05
5.66882e-06
-2.56331e-06
1.76754e-05
2.39004e-05
-4.40746e-05
-1.02123e-05
-4.13745e-06
-0.00011631
-3.06737e-05
-4.85098e-06
-0.000120745
-2.81928e-06
5.01561e-06
-0.000126204
3.93784e-07
3.29633e-06
-0.000131182
4.72349e-06
2.35749e-06
-0.000131781
5.43399e-06
4.20344e-07
-0.000132647
6.35142e-06
6.46532e-07
-0.000132846
5.168e-06
8.67834e-07
-0.000134605
3.88444e-06
1.85286e-06
-0.000137808
2.83604e-06
2.87296e-06
-0.000142132
1.65389e-06
3.65689e-06
-0.000147633
2.95566e-07
4.11961e-06
-0.000152834
-1.17092e-06
4.03527e-06
-0.000156118
-2.55587e-06
4.25043e-06
-0.000157544
-3.97877e-06
4.57323e-06
-0.000157353
-6.077e-06
4.42219e-06
-0.000155896
-9.09405e-06
4.30359e-06
-0.000154215
-1.24801e-05
4.20686e-06
-0.000152248
-1.58222e-05
3.85712e-06
-0.000150211
-1.8069e-05
3.65709e-06
-0.000147913
-2.02246e-05
3.38585e-06
-0.000144908
-2.1301e-05
3.0286e-06
-0.000139951
-2.17069e-05
2.61009e-06
-0.000130745
-2.00971e-05
1.35075e-06
-0.000109213
-1.62329e-05
-2.22928e-07
-6.01161e-05
-1.12636e-05
-2.32978e-06
-1.17338e-05
-8.08612e-06
-2.96739e-06
8.53768e-06
-6.9731e-06
-4.27745e-06
1.35919e-05
-3.51958e-06
-4.15238e-06
1.78385e-05
-2.14208e-06
-3.31328e-06
1.97928e-05
5.71548e-06
-4.15245e-06
1.75836e-05
1.43484e-05
-3.4045e-06
1.61048e-05
2.00091e-05
-4.42271e-06
1.36296e-05
2.30149e-05
-3.72323e-06
6.37376e-06
2.18578e-05
-2.63124e-07
1.09346e-06
1.84265e-05
-7.45938e-07
1.69629e-05
-5.33344e-06
-3.79542e-06
-3.47963e-06
3.8727e-07
-2.82833e-06
-4.73337e-06
-8.07366e-07
-2.52492e-06
-3.66992e-06
-1.50606e-07
-1.65471e-06
-3.98119e-06
-5.92584e-07
-1.10862e-06
-3.32146e-06
1.15172e-07
-4.38618e-07
-2.64071e-06
1.71587e-07
-1.42391e-07
-6.07028e-07
-2.53578e-08
-2.00593e-07
2.41051e-07
-7.30018e-08
-1.51051e-07
4.50061e-07
-1.94243e-07
-1.32868e-07
6.32907e-07
-1.80939e-07
-1.15873e-07
7.84876e-07
-1.96347e-07
-1.97061e-07
8.93859e-07
-1.79761e-07
-3.373e-07
9.50632e-07
-1.69669e-07
-4.35028e-07
8.19947e-07
-1.89427e-07
-4.57583e-07
6.88627e-07
-2.21669e-07
-4.32982e-07
6.14965e-07
-2.56567e-07
-3.89574e-07
5.98492e-07
-2.85637e-07
-3.49096e-07
6.24131e-07
-3.08129e-07
-3.14879e-07
6.59677e-07
-3.25931e-07
-2.84289e-07
6.91787e-07
-3.3973e-07
-2.52598e-07
7.17823e-07
-3.50515e-07
-2.18041e-07
7.40348e-07
-3.57347e-07
-1.82489e-07
7.62813e-07
-3.59235e-07
-1.4775e-07
7.84989e-07
-3.57083e-07
-1.17444e-07
8.07936e-07
-3.50886e-07
-9.35025e-08
8.29198e-07
-3.41253e-07
-7.37528e-08
8.41931e-07
-3.28921e-07
-5.81951e-08
8.49059e-07
-3.15548e-07
-4.96873e-08
8.56657e-07
-3.00618e-07
-5.10117e-08
8.68685e-07
-2.85557e-07
-6.50573e-08
8.85662e-07
-2.71342e-07
-9.29937e-08
9.01571e-07
-2.59157e-07
-1.34646e-07
9.13111e-07
-2.49488e-07
-1.89083e-07
9.19833e-07
-2.42372e-07
-2.56567e-07
9.22674e-07
-2.37661e-07
-3.3783e-07
9.24674e-07
-2.35224e-07
-4.2533e-07
9.26071e-07
-2.36098e-07
-4.92725e-07
9.16579e-07
-2.41889e-07
-5.05686e-07
8.50614e-07
-2.48981e-07
-4.36316e-07
5.98448e-07
-2.66359e-07
-3.22188e-07
1.42214e-07
-3.14933e-07
-1.74953e-07
-3.42703e-07
-4.05186e-07
-3.7725e-08
-6.24805e-07
-4.95212e-07
5.40527e-08
-6.55271e-07
-5.60729e-07
6.4948e-08
-4.68689e-07
-5.83596e-07
-2.89757e-07
-2.33043e-07
-4.10771e-07
-1.33711e-06
-9.49522e-08
6.56225e-09
-3.07539e-06
-5.10889e-07
5.02931e-07
-4.8372e-06
-1.07017e-06
1.03272e-06
-6.27369e-06
-2.13577e-06
9.69022e-07
-6.46375e-06
-2.58095e-06
-6.41422e-07
-3.81773e-06
-2.80916e-06
-2.14547e-06
6.36342e-07
-6.20303e-06
-1.8539e-06
5.03748e-06
-9.87689e-06
-1.48668e-06
1.03372e-05
-2.2743e-05
-7.47238e-07
1.11075e-05
-3.33178e-05
1.26321e-06
1.43254e-05
-3.98824e-05
1.25455e-06
9.81477e-06
-3.57465e-05
4.7941e-06
-3.04914e-06
1.43914e-05
1.45076e-05
-5.13201e-05
-7.01012e-06
-5.30728e-06
-0.00013199
-2.29769e-05
-5.02721e-06
-0.000133638
4.49699e-07
4.25655e-06
-0.0001367
2.16078e-06
9.24164e-07
-0.000141816
7.80486e-06
1.86237e-06
-0.000143748
7.37443e-06
1.27842e-06
-0.000147006
7.74466e-06
1.64557e-06
-0.000149014
5.8589e-06
1.55813e-06
-0.000150559
4.27987e-06
1.92804e-06
-0.000152785
3.47252e-06
2.46323e-06
-0.000156208
2.65373e-06
3.01512e-06
-0.000160498
1.07267e-06
3.3409e-06
-0.000164829
-1.33897e-06
3.93491e-06
-0.000167328
-4.48571e-06
4.12712e-06
-0.000167936
-7.16456e-06
3.86128e-06
-0.000168107
-9.4371e-06
3.45629e-06
-0.0001679
-1.2568e-05
2.78572e-06
-0.000167179
-1.59584e-05
1.83566e-06
-0.000165753
-1.90108e-05
8.70752e-07
-0.000162921
-2.09148e-05
-3.39908e-07
-0.000160017
-2.25922e-05
-1.05592e-06
-0.000157274
-2.28705e-05
-1.69104e-06
-0.000153569
-2.41028e-05
-1.52419e-06
-0.000148437
-2.3843e-05
-1.61752e-06
-0.000141059
-2.15211e-05
-1.23691e-06
-0.000132
-1.64567e-05
-1.24707e-06
-0.0001218
-1.13455e-05
-3.36138e-07
-9.90492e-05
-8.91303e-06
-5.37576e-07
-3.45758e-05
-4.29857e-06
4.33786e-07
2.06647e-05
-3.62973e-06
2.25648e-07
2.4227e-05
8.29921e-06
4.22135e-06
1.94172e-05
1.65258e-05
2.76319e-06
1.33202e-05
2.52524e-05
8.69936e-07
9.83868e-06
2.87381e-05
-2.21167e-06
5.06039e-06
2.7703e-05
-9.2929e-07
3.08614e-07
2.64822e-05
-2.1828e-06
2.61291e-05
-6.40514e-06
-4.15595e-06
-3.16431e-06
8.51575e-07
-3.35847e-06
-4.77891e-06
-7.51945e-07
-3.05894e-06
-3.64424e-06
-3.25211e-07
-1.86788e-06
-3.9853e-06
-1.18696e-06
-1.14233e-06
-3.6058e-06
-4.41223e-07
-3.4426e-07
-3.11387e-06
-3.24919e-07
-7.91975e-09
-8.53802e-07
-8.95715e-08
-1.31681e-07
4.0266e-07
-3.78533e-08
-7.59915e-08
6.0871e-07
-2.14344e-07
-9.02727e-08
8.27228e-07
-1.80046e-07
-7.82139e-08
9.72562e-07
-1.99751e-07
-1.49905e-07
1.11356e-06
-1.48016e-07
-2.60202e-07
1.18785e-06
-1.26922e-07
-3.2814e-07
1.03848e-06
-1.50599e-07
-3.36404e-07
9.01546e-07
-2.0466e-07
-3.12733e-07
8.37636e-07
-2.46348e-07
-2.83991e-07
8.4646e-07
-2.76715e-07
-2.68356e-07
9.01931e-07
-2.93441e-07
-2.64813e-07
9.60439e-07
-3.04309e-07
-2.6728e-07
1.00642e-06
-3.1217e-07
-2.70314e-07
1.0388e-06
-3.17951e-07
-2.70178e-07
1.06125e-06
-3.21041e-07
-2.65765e-07
1.07841e-06
-3.2002e-07
-2.57987e-07
1.09185e-06
-3.14641e-07
-2.51398e-07
1.10534e-06
-3.04002e-07
-2.47212e-07
1.11573e-06
-2.90718e-07
-2.40158e-07
1.11338e-06
-2.78508e-07
-2.31249e-07
1.1066e-06
-2.66448e-07
-2.2376e-07
1.10307e-06
-2.5391e-07
-2.23095e-07
1.10948e-06
-2.41465e-07
-2.358e-07
1.12789e-06
-2.29521e-07
-2.63264e-07
1.1473e-06
-2.18269e-07
-3.03463e-07
1.16256e-06
-2.09257e-07
-3.50979e-07
1.17127e-06
-2.03926e-07
-3.98963e-07
1.17275e-06
-2.02093e-07
-4.40442e-07
1.16864e-06
-2.02485e-07
-4.66991e-07
1.1568e-06
-2.04176e-07
-4.67193e-07
1.12324e-06
-2.0646e-07
-4.15649e-07
1.01661e-06
-2.17541e-07
-3.11665e-07
7.44732e-07
-2.50265e-07
-1.75977e-07
3.15139e-07
-3.0861e-07
-4.36139e-08
-7.25769e-08
-4.02485e-07
6.28724e-08
-2.81426e-07
-4.49859e-07
7.08561e-08
-2.02289e-07
-4.60958e-07
-4.65737e-08
1.14853e-07
-4.66103e-07
-5.08839e-07
5.23911e-07
-2.94679e-07
-1.41515e-06
7.3079e-07
8.05837e-08
-2.40866e-06
2.16117e-07
2.66511e-07
-3.13528e-06
-1.06062e-06
7.17084e-07
-3.31526e-06
-2.25381e-06
2.98045e-07
-1.746e-06
-2.1108e-06
-2.03941e-06
1.79688e-06
-2.36938e-06
-3.98265e-06
4.33239e-06
-5.59389e-06
-3.14467e-06
4.86919e-06
-9.01659e-06
-1.39711e-06
2.54539e-06
-1.96371e-05
-7.82195e-07
-5.62616e-06
-2.15841e-05
-3.56203e-06
-1.81198e-05
-2.43751e-05
-3.01364e-06
-2.60601e-05
-2.33895e-05
-4.41661e-06
-2.52887e-06
-6.78438e-06
-6.09818e-06
-6.09467e-05
-2.51942e-06
-2.30557e-06
-0.000147261
-5.68561e-06
-2.86475e-06
-0.000149078
4.67331e-06
4.24036e-06
-0.000154317
6.84219e-06
2.34172e-06
-0.000161253
9.44658e-06
2.91493e-06
-0.000163961
6.98661e-06
2.93876e-06
-0.000164789
5.77151e-06
3.46245e-06
-0.000165385
3.27851e-06
3.27008e-06
-0.000166109
8.66321e-07
3.75315e-06
-0.000165109
-7.77029e-07
3.63129e-06
-0.000163682
-2.18057e-06
4.16111e-06
-0.000163445
-3.90979e-06
4.1316e-06
-0.00016396
-5.95139e-06
4.55004e-06
-0.00016545
-7.98122e-06
4.55109e-06
-0.000167613
-9.29767e-06
4.14761e-06
-0.000170227
-1.01709e-05
3.2199e-06
-0.000173065
-1.21605e-05
2.16915e-06
-0.000175057
-1.60249e-05
1.0888e-06
-0.000175663
-1.99302e-05
-7.76806e-08
-0.00017388
-2.22316e-05
-1.838e-06
-0.000170878
-2.36433e-05
-3.63507e-06
-0.000168264
-2.25722e-05
-4.59771e-06
-0.000165517
-2.38458e-05
-4.64649e-06
-0.000161676
-2.53963e-05
-4.10565e-06
-0.000156002
-2.60722e-05
-2.7664e-06
-0.00014827
-2.3091e-05
-1.94017e-06
-0.000139864
-1.8817e-05
-1.01759e-06
-0.000130898
-1.51989e-05
-6.69043e-07
-0.000117277
-1.01393e-05
2.22406e-07
-8.82617e-05
-1.81974e-06
2.80636e-06
-2.14697e-05
1.37239e-05
7.11516e-06
2.04953e-05
1.9924e-05
5.73726e-06
1.38043e-05
2.99218e-05
3.68156e-06
8.23483e-06
3.2878e-05
1.63848e-06
-5.93893e-05
3.09289e-05
1.40826e-06
-0.000124612
3.05544e-05
-2.64061e-06
3.29765e-05
-6.67898e-06
-4.0811e-06
-2.74617e-06
1.51128e-06
-3.68428e-06
-4.45805e-06
-7.17674e-07
-3.66771e-06
-3.4331e-06
-2.27712e-07
-2.37688e-06
-3.8673e-06
-1.40882e-06
-1.36395e-06
-3.73366e-06
-8.85074e-07
-2.73711e-07
-3.34911e-06
-8.54999e-07
1.24169e-07
-1.15502e-06
-9.66701e-08
2.61906e-09
4.74817e-07
4.93901e-08
2.11766e-08
8.59865e-07
-2.69715e-07
-9.28871e-08
1.13754e-06
-1.9625e-07
-9.90236e-08
1.21027e-06
-2.31577e-07
-1.21757e-07
1.32459e-06
-1.88294e-07
-1.21328e-07
1.39137e-06
-2.03959e-07
-1.19246e-07
1.29424e-06
-2.57844e-07
-1.21292e-07
1.22703e-06
-3.23442e-07
-1.35991e-07
1.22647e-06
-3.74131e-07
-1.64421e-07
1.28432e-06
-4.09428e-07
-2.04099e-07
1.37082e-06
-4.29211e-07
-2.50243e-07
1.45097e-06
-4.44387e-07
-3.00978e-07
1.51404e-06
-4.56883e-07
-3.47609e-07
1.55193e-06
-4.66492e-07
-3.82194e-07
1.56941e-06
-4.73578e-07
-4.06085e-07
1.57982e-06
-4.77509e-07
-4.20482e-07
1.58518e-06
-4.7893e-07
-4.26385e-07
1.58906e-06
-4.77806e-07
-4.25855e-07
1.58983e-06
-4.74632e-07
-4.22745e-07
1.5822e-06
-4.71923e-07
-4.16387e-07
1.56949e-06
-4.69249e-07
-4.08249e-07
1.56078e-06
-4.65841e-07
-4.06662e-07
1.56853e-06
-4.60626e-07
-4.2133e-07
1.59619e-06
-4.53626e-07
-4.4892e-07
1.62276e-06
-4.47858e-07
-4.83506e-07
1.64207e-06
-4.44906e-07
-5.16495e-07
1.65012e-06
-4.45843e-07
-5.36948e-07
1.64348e-06
-4.5026e-07
-5.38325e-07
1.62674e-06
-4.56706e-07
-5.08432e-07
1.59174e-06
-4.64817e-07
-4.31027e-07
1.52408e-06
-4.78226e-07
-2.98899e-07
1.39546e-06
-5.10954e-07
-1.294e-07
1.1546e-06
-5.79348e-07
2.17198e-08
8.50578e-07
-6.86536e-07
6.1619e-08
6.72732e-07
-7.85184e-07
2.16237e-08
5.79049e-07
-8.20451e-07
-1.03629e-07
6.78019e-07
-7.55023e-07
-3.02976e-07
9.67835e-07
-6.53602e-07
-6.94614e-07
1.37682e-06
-4.6124e-07
-1.15835e-06
1.27598e-06
-8.14204e-08
-1.21859e-06
6.06841e-07
-3.30445e-07
-9.1276e-07
-8.45878e-07
-5.20541e-07
4.2356e-07
-2.61639e-06
-9.73719e-07
3.24498e-06
-1.12532e-06
-3.8069e-06
6.51885e-06
1.26906e-06
-6.91232e-06
5.6118e-06
3.68854e-07
-5.05571e-06
-4.37487e-07
-3.63074e-07
-2.60419e-06
-1.18882e-05
-3.62169e-06
-4.56459e-06
-1.82965e-05
-5.37095e-06
-9.80467e-06
-2.78106e-05
-5.4598e-06
-9.40146e-06
-2.7983e-05
-1.17319e-05
-1.14848e-05
1.22687e-06
-1.37025e-05
-2.74229e-05
-7.37387e-05
4.22699e-06
2.22556e-06
-0.000176047
1.89804e-05
2.12022e-07
-0.000181613
1.25391e-05
5.0786e-06
-0.000188916
1.36959e-05
2.8061e-06
-0.000194654
9.39816e-06
2.5434e-06
-0.000196098
5.653e-06
2.09158e-06
-0.000195643
1.41956e-06
2.80167e-06
-0.000193183
-6.48875e-07
1.1836e-06
-0.000189258
-3.94801e-06
3.99687e-07
-0.00018366
-5.65903e-06
-4.68434e-07
-0.000177102
-8.32096e-06
2.91413e-08
-0.000171096
-1.05357e-05
1.43421e-06
-0.000167243
-1.30967e-05
3.66142e-06
-0.000166273
-1.43997e-05
4.85998e-06
-0.000166951
-1.50379e-05
6.02091e-06
-0.000169272
-1.39733e-05
6.31495e-06
-0.000176592
-1.24262e-05
6.03906e-06
-0.000187137
-1.30486e-05
5.37296e-06
-0.000197276
-1.55037e-05
3.3143e-06
-0.000203969
-1.91365e-05
4.77498e-09
-0.000205017
-2.22967e-05
-3.04227e-06
-0.000202562
-1.97977e-05
-6.85273e-06
-0.000199775
-1.82683e-05
-8.37049e-06
-0.000197799
-1.98553e-05
-8.47757e-06
-0.000194112
-2.33334e-05
-7.54105e-06
-0.000188422
-2.44407e-05
-6.12023e-06
-0.000181415
-2.26772e-05
-4.19409e-06
-0.000173282
-1.98275e-05
-3.5945e-06
-0.000161869
-1.69921e-05
-2.9682e-06
-0.000152788
-9.55394e-06
1.70586e-06
-0.000148091
5.08626e-06
6.08539e-06
-0.0001488
2.26526e-05
6.0547e-06
-0.000155747
3.08112e-05
7.28221e-06
-0.000166869
3.21969e-05
6.15384e-06
-0.000178878
3.09403e-05
4.41096e-06
-0.000176101
3.15735e-05
-2.01658e-06
3.51209e-05
-4.58906e-06
-3.50621e-06
-1.64e-06
2.50488e-06
-3.83357e-06
-4.06266e-06
-6.8022e-08
-4.31765e-06
-3.17523e-06
2.26214e-07
-3.15145e-06
-3.90444e-06
-1.12907e-06
-1.94192e-06
-3.96309e-06
-9.80092e-07
-4.79824e-07
-3.70948e-06
-1.10174e-06
1.16605e-07
-1.67099e-06
-8.0452e-08
-5.15754e-09
2.30214e-07
3.66364e-07
-2.32442e-08
8.22554e-07
5.53969e-08
-1.28266e-07
1.12818e-06
1.14384e-07
-9.23425e-08
1.14156e-06
3.27932e-08