/*--------------------------------*- C++ -*----------------------------------*\
| =========                 |                                                 |
| \\      /  F ield         | OpenFOAM: The Open Source CFD Toolbox           |
|  \\    /   O peration     | Version:  2.3.0                                 |
|   \\  /    A nd           | Web:      www.OpenFOAM.org                      |
|    \\/     M anipulation  |                                                 |
\*---------------------------------------------------------------------------*/
FoamFile
{
    version     2.0;
    format      ascii;
    class       volScalarField;
    location    "59";
    object      rho;
}
// * * * * * * * * * * * * * * * * * * * * * * * * * * * * * * * * * * * * * //

dimensions      [1 -3 0 0 0 0 0];

internalField   nonuniform List<scalar> 
6144
(
1.16251
1.16319
1.1636
1.16402
1.16449
1.16541
1.16652
1.16756
1.16837
1.16877
1.16886
1.16887
1.16888
1.16889
1.16889
1.16889
1.1689
1.1689
1.1689
1.1689
1.1689
1.1689
1.16891
1.16891
1.16891
1.16891
1.16891
1.16891
1.16891
1.16891
1.16891
1.16892
1.16892
1.16892
1.16892
1.16892
1.16892
1.16892
1.16892
1.16892
1.16892
1.16893
1.16924
1.17044
1.17293
1.1769
1.18221
1.18845
1.20035
1.22945
1.26425
1.2785
1.2783
1.28069
1.2769
1.29912
1.30256
1.31337
1.96454
61.7831
994.582
1026.95
1027.1
1027.1
1027.1
1027.1
1027.1
1027.1
1027.1
1027.1
1027.1
1027.1
1027.1
1027.1
1027.1
1027.1
1027.1
1027.1
1027.1
1027.1
1027.1
1027.1
1027.1
1027.1
1027.1
1027.1
1027.1
1027.1
1027.1
1027.1
1027.1
1027.1
1027.1
1027.1
1027.1
1027.1
1.16218
1.16306
1.16379
1.16427
1.16497
1.16571
1.16668
1.16763
1.1684
1.16876
1.16885
1.16887
1.16888
1.16889
1.1689
1.1689
1.1689
1.16891
1.16891
1.16891
1.16891
1.16891
1.16891
1.16891
1.16891
1.16892
1.16892
1.16892
1.16892
1.16892
1.16892
1.16892
1.16893
1.16893
1.16893
1.16893
1.16893
1.16893
1.16893
1.16893
1.16893
1.16898
1.16931
1.17025
1.17199
1.1748
1.17889
1.18555
1.19988
1.23439
1.25543
1.26741
1.26644
1.27012
1.26855
1.29228
1.29794
1.30925
1.62238
53.9662
1000.7
1027.01
1027.1
1027.1
1027.1
1027.1
1027.1
1027.1
1027.1
1027.1
1027.1
1027.1
1027.1
1027.1
1027.1
1027.1
1027.1
1027.1
1027.1
1027.1
1027.1
1027.1
1027.1
1027.1
1027.1
1027.1
1027.1
1027.1
1027.1
1027.1
1027.1
1027.1
1027.1
1027.1
1027.1
1027.1
1.16196
1.16271
1.16361
1.16428
1.16512
1.16586
1.16682
1.16764
1.16823
1.1686
1.16876
1.16883
1.16886
1.16888
1.16889
1.1689
1.1689
1.1689
1.16891
1.16891
1.16891
1.16891
1.16891
1.16891
1.16891
1.16892
1.16892
1.16892
1.16892
1.16892
1.16892
1.16892
1.16892
1.16892
1.16892
1.16892
1.16892
1.16892
1.16892
1.16893
1.16894
1.16909
1.16948
1.17024
1.17171
1.17428
1.1783
1.18546
1.2002
1.22441
1.24144
1.26001
1.26362
1.26665
1.26743
1.29644
1.30274
1.31661
1.63442
44.163
1000.32
1027.01
1027.1
1027.1
1027.1
1027.1
1027.1
1027.1
1027.1
1027.1
1027.1
1027.1
1027.1
1027.1
1027.1
1027.1
1027.1
1027.1
1027.1
1027.1
1027.1
1027.1
1027.1
1027.1
1027.1
1027.1
1027.1
1027.1
1027.1
1027.1
1027.1
1027.1
1027.1
1027.1
1027.1
1027.1
1.16183
1.16239
1.16328
1.16391
1.16489
1.16583
1.16682
1.16751
1.16809
1.16849
1.1687
1.1688
1.16885
1.16887
1.16888
1.16889
1.1689
1.1689
1.1689
1.1689
1.1689
1.16891
1.16891
1.16891
1.16891
1.16891
1.16891
1.16891
1.16891
1.16892
1.16892
1.16892
1.16892
1.16892
1.16892
1.16892
1.16892
1.16892
1.16892
1.16893
1.16898
1.16918
1.1696
1.1704
1.17195
1.17486
1.18009
1.18943
1.20278
1.21813
1.23138
1.24834
1.25577
1.26194
1.26767
1.30305
1.30811
1.32064
1.47559
55.9834
1012.32
1027.07
1027.09
1027.09
1027.09
1027.09
1027.09
1027.09
1027.09
1027.09
1027.09
1027.09
1027.09
1027.09
1027.09
1027.09
1027.09
1027.09
1027.09
1027.1
1027.1
1027.1
1027.1
1027.1
1027.1
1027.1
1027.1
1027.1
1027.1
1027.1
1027.1
1027.1
1027.1
1027.1
1027.1
1027.1
1.16172
1.16213
1.16295
1.16353
1.16447
1.16529
1.16659
1.16741
1.16798
1.1684
1.16865
1.16878
1.16885
1.16887
1.16889
1.1689
1.1689
1.1689
1.16891
1.16891
1.16891
1.16891
1.16891
1.16891
1.16891
1.16892
1.16892
1.16892
1.16892
1.16892
1.16892
1.16892
1.16892
1.16892
1.16892
1.16892
1.16892
1.16892
1.16893
1.16894
1.16903
1.16922
1.16968
1.17065
1.17259
1.17628
1.18295
1.19322
1.20408
1.21323
1.22535
1.24093
1.25105
1.26029
1.27406
1.31511
1.31403
1.32453
1.44431
81.0583
1012.77
1026.75
1026.77
1026.76
1026.7
1026.64
1026.56
1026.48
1026.4
1026.34
1026.29
1026.27
1026.25
1026.25
1026.29
1026.36
1026.49
1026.64
1026.79
1026.92
1027
1027.06
1027.08
1027.09
1027.1
1027.1
1027.1
1027.1
1027.1
1027.1
1027.1
1027.1
1027.1
1027.1
1027.1
1027.1
1.16159
1.16194
1.16261
1.16313
1.16411
1.16486
1.16603
1.16726
1.16786
1.16831
1.16859
1.16876
1.16884
1.16887
1.16888
1.16889
1.1689
1.1689
1.1689
1.1689
1.1689
1.1689
1.16891
1.16891
1.16891
1.16891
1.16891
1.16891
1.16891
1.16891
1.16892
1.16892
1.16892
1.16892
1.16892
1.16892
1.16892
1.16892
1.16892
1.16894
1.16902
1.16921
1.16974
1.17088
1.17315
1.17753
1.18502
1.19391
1.20095
1.20966
1.22048
1.23548
1.24719
1.26405
1.2913
1.32512
1.317
1.32878
1.54053
127.218
1007.92
1023.87
1023.51
1023.33
1022.88
1022.44
1021.97
1021.52
1021.09
1020.69
1020.37
1020.19
1020.12
1020.2
1020.46
1020.81
1021.43
1022.22
1023.12
1024.04
1024.94
1025.71
1026.32
1026.73
1026.96
1027.06
1027.08
1027.09
1027.1
1027.1
1027.1
1027.1
1027.1
1027.1
1027.1
1027.1
1.16145
1.16178
1.16231
1.16276
1.16381
1.16459
1.16555
1.16699
1.16774
1.16824
1.16855
1.16875
1.16884
1.16887
1.16888
1.1689
1.1689
1.1689
1.1689
1.16891
1.16891
1.16891
1.16891
1.16891
1.16891
1.16891
1.16891
1.16891
1.16892
1.16892
1.16892
1.16892
1.16892
1.16892
1.16892
1.16892
1.16892
1.16892
1.16892
1.16894
1.169
1.16919
1.16978
1.17109
1.17365
1.17846
1.18566
1.19303
1.19951
1.20931
1.22036
1.23989
1.26222
1.28487
1.31305
1.32859
1.31811
1.32101
1.30979
213.754
1005.28
1016.7
1015.59
1015.15
1014.73
1014.25
1013.77
1013.44
1013.2
1012.94
1012.73
1012.64
1012.6
1012.6
1012.65
1012.84
1013.21
1013.87
1014.83
1015.99
1017.46
1019.07
1020.81
1022.56
1024.06
1025.19
1025.94
1026.46
1026.82
1027.03
1027.1
1027.1
1027.1
1027.1
1027.05
1027.05
1.16126
1.16163
1.16208
1.16246
1.16353
1.16442
1.16547
1.16654
1.16754
1.16817
1.16853
1.16874
1.16883
1.16887
1.16888
1.16889
1.1689
1.1689
1.1689
1.16891
1.16891
1.16891
1.16891
1.16891
1.16891
1.16892
1.16892
1.16892
1.16892
1.16892
1.16892
1.16892
1.16892
1.16892
1.16892
1.16892
1.16893
1.16893
1.16893
1.16894
1.16898
1.16913
1.16976
1.17132
1.17425
1.17954
1.18645
1.19334
1.2024
1.21888
1.23365
1.26348
1.28921
1.30595
1.32423
1.32506
1.31714
1.32185
1.30979
246.128
1002.15
1013.48
1012.63
1012.45
1012.53
1012.47
1012.47
1012.42
1012.34
1012.2
1011.94
1011.54
1011.05
1010.6
1010.17
1009.86
1009.79
1009.8
1010.08
1010.46
1010.83
1011.34
1012.09
1013.33
1014.86
1016.47
1017.97
1019.33
1020.64
1021.27
1020.29
1018.66
1017.04
1015.92
1015.34
1016.69
1.16101
1.16146
1.16182
1.1622
1.16325
1.16428
1.16553
1.16606
1.16727
1.1681
1.1685
1.16872
1.16882
1.16886
1.16887
1.16889
1.16889
1.1689
1.1689
1.1689
1.1689
1.1689
1.16891
1.16891
1.16891
1.16891
1.16891
1.16891
1.16891
1.16892
1.16892
1.16892
1.16892
1.16892
1.16892
1.16892
1.16892
1.16892
1.16893
1.16893
1.16895
1.16913
1.16996
1.17183
1.17503
1.18038
1.187
1.1941
1.20649
1.23014
1.25103
1.28346
1.30596
1.31687
1.32566
1.32295
1.31698
1.33081
1.4318
227.695
1008.42
1018.94
1019.29
1020.3
1020.9
1021.21
1021.27
1021.09
1020.8
1020.46
1020.05
1019.58
1018.9
1017.96
1016.8
1015.61
1014.43
1013.3
1012.45
1011.86
1011.34
1011
1010.8
1010.95
1011.44
1011.98
1012.79
1013.66
1014.9
1015.88
1016.32
1016.87
1017.84
1019.54
1022.22
1024.11
1.16077
1.16111
1.16144
1.16182
1.16289
1.16407
1.16554
1.16614
1.16717
1.16809
1.16851
1.16872
1.16882
1.16886
1.16888
1.16889
1.1689
1.1689
1.1689
1.16891
1.16891
1.16891
1.16891
1.16891
1.16891
1.16891
1.16892
1.16892
1.16892
1.16892
1.16892
1.16892
1.16892
1.16892
1.16892
1.16892
1.16892
1.16892
1.16893
1.16893
1.16895
1.16918
1.17023
1.17229
1.17561
1.18083
1.18718
1.19517
1.2114
1.24161
1.26315
1.29397
1.31296
1.32052
1.32276
1.32862
1.31714
1.32034
1.30979
123.839
1015.69
1025.38
1025.69
1026.15
1026.25
1026.29
1026.18
1026.08
1025.96
1025.8
1025.62
1025.43
1025.21
1024.92
1024.56
1024.18
1023.78
1023.21
1022.51
1021.71
1020.8
1020.08
1019.52
1018.95
1018.52
1018.2
1018.06
1017.97
1018.55
1019.35
1020.19
1021.48
1023.08
1024.8
1026.14
1026.63
1.16055
1.16081
1.16102
1.16137
1.16243
1.16373
1.1655
1.16667
1.16719
1.16809
1.16854
1.16872
1.16881
1.16885
1.16887
1.16889
1.16889
1.1689
1.1689
1.1689
1.1689
1.16891
1.16891
1.16891
1.16891
1.16891
1.16891
1.16892
1.16892
1.16892
1.16892
1.16892
1.16892
1.16892
1.16892
1.16892
1.16892
1.16893
1.16893
1.16893
1.16895
1.16923
1.17037
1.17262
1.17625
1.18149
1.18757
1.1977
1.2201
1.25008
1.2677
1.29097
1.31039
1.32015
1.3206
1.32648
1.31832
1.32801
1.30979
64.8188
1015.5
1026.94
1026.97
1027
1027
1027.01
1026.99
1026.98
1026.96
1026.94
1026.91
1026.87
1026.83
1026.79
1026.74
1026.69
1026.62
1026.52
1026.37
1026.17
1025.92
1025.69
1025.52
1025.37
1025.19
1025.08
1025
1024.94
1024.94
1025.33
1025.76
1026.26
1026.7
1026.95
1027.05
1027.08
1.16045
1.1606
1.16065
1.16083
1.1617
1.16297
1.16495
1.16663
1.16729
1.16813
1.16859
1.16874
1.1688
1.16884
1.16886
1.16888
1.16889
1.1689
1.1689
1.1689
1.1689
1.16891
1.16891
1.16891
1.16891
1.16891
1.16892
1.16892
1.16892
1.16892
1.16892
1.16892
1.16892
1.16892
1.16892
1.16893
1.16893
1.16893
1.16893
1.16893
1.16895
1.16921
1.1703
1.17276
1.17698
1.18237
1.18851
1.20074
1.22576
1.25105
1.26647
1.2798
1.30122
1.31748
1.31762
1.32264
1.31556
1.32282
1.3098
45.0284
1007.24
1027.08
1027.09
1027.09
1027.09
1027.09
1027.09
1027.09
1027.09
1027.09
1027.09
1027.09
1027.09
1027.09
1027.08
1027.08
1027.08
1027.08
1027.07
1027.05
1027.04
1027.02
1027.02
1027.01
1027
1027
1027
1027.01
1027.02
1027.04
1027.06
1027.08
1027.09
1027.1
1027.1
1027.1
1.16034
1.16052
1.16051
1.16051
1.16096
1.16193
1.16366
1.16571
1.16745
1.16816
1.16863
1.16877
1.16882
1.16884
1.16886
1.16888
1.1689
1.1689
1.16891
1.16891
1.16891
1.16891
1.16891
1.16891
1.16892
1.16892
1.16892
1.16892
1.16892
1.16892
1.16892
1.16892
1.16892
1.16892
1.16893
1.16893
1.16893
1.16893
1.16893
1.16894
1.16896
1.16918
1.17017
1.17273
1.17718
1.1826
1.18919
1.20304
1.22939
1.2546
1.26935
1.28092
1.2933
1.30481
1.30769
1.3155
1.30912
1.32057
1.49929
38.3542
991.071
1027.07
1027.09
1027.09
1027.09
1027.09
1027.09
1027.1
1027.1
1027.1
1027.1
1027.1
1027.1
1027.1
1027.1
1027.1
1027.1
1027.1
1027.1
1027.1
1027.1
1027.1
1027.1
1027.1
1027.1
1027.1
1027.1
1027.1
1027.1
1027.1
1027.1
1027.1
1027.1
1027.1
1027.1
1027.1
1.16036
1.16062
1.16053
1.16053
1.16053
1.16124
1.16248
1.16447
1.16698
1.16823
1.16864
1.16876
1.16881
1.16884
1.16886
1.16888
1.16891
1.16891
1.16891
1.16891
1.16891
1.16891
1.16892
1.16892
1.16892
1.16892
1.16892
1.16892
1.16892
1.16892
1.16892
1.16893
1.16893
1.16893
1.16893
1.16893
1.16893
1.16893
1.16894
1.16894
1.16896
1.16915
1.17007
1.17264
1.17705
1.18236
1.18891
1.20305
1.23338
1.25949
1.27018
1.27707
1.28346
1.289
1.29287
1.31495
1.30735
1.32141
1.78069
35.3809
968.533
1026.88
1027.1
1027.1
1027.1
1027.1
1027.1
1027.1
1027.1
1027.1
1027.1
1027.1
1027.1
1027.1
1027.1
1027.1
1027.1
1027.1
1027.1
1027.1
1027.1
1027.1
1027.1
1027.1
1027.1
1027.1
1027.1
1027.1
1027.1
1027.1
1027.1
1027.1
1027.1
1027.1
1027.1
1027.1
1.16046
1.16093
1.16094
1.16088
1.16074
1.16106
1.16179
1.16324
1.16619
1.16826
1.16863
1.16873
1.16878
1.16882
1.16884
1.16887
1.1689
1.16891
1.16891
1.16891
1.16891
1.16891
1.16891
1.16892
1.16892
1.16892
1.16892
1.16892
1.16892
1.16892
1.16892
1.16892
1.16892
1.16893
1.16893
1.16893
1.16893
1.16893
1.16893
1.16894
1.16896
1.16912
1.16993
1.17229
1.17642
1.18168
1.18816
1.20117
1.23282
1.26109
1.26945
1.27284
1.27842
1.29187
1.30617
1.3429
1.32942
1.33239
1.7006
38.1232
961.505
1026.63
1027.09
1027.1
1027.1
1027.1
1027.1
1027.1
1027.1
1027.1
1027.1
1027.1
1027.1
1027.1
1027.1
1027.1
1027.1
1027.1
1027.1
1027.1
1027.1
1027.1
1027.1
1027.1
1027.1
1027.1
1027.1
1027.1
1027.1
1027.1
1027.1
1027.1
1027.1
1027.1
1027.1
1027.1
1.1602
1.16027
1.16095
1.16147
1.16137
1.16135
1.16183
1.16288
1.16563
1.16823
1.16861
1.16871
1.16876
1.1688
1.16884
1.16888
1.16891
1.16891
1.16892
1.16892
1.16892
1.16892
1.16892
1.16892
1.16892
1.16893
1.16893
1.16893
1.16893
1.16893
1.16893
1.16893
1.16893
1.16893
1.16893
1.16894
1.16894
1.16894
1.16894
1.16894
1.16897
1.1691
1.16977
1.17178
1.17547
1.18058
1.18738
1.19958
1.22737
1.26168
1.27917
1.28161
1.28197
1.29235
1.30759
1.34741
1.3343
1.3405
2.09061
64.9919
972.534
1026.65
1027.09
1027.1
1027.1
1027.1
1027.1
1027.1
1027.1
1027.1
1027.1
1027.1
1027.1
1027.1
1027.1
1027.1
1027.1
1027.1
1027.1
1027.1
1027.1
1027.1
1027.1
1027.1
1027.1
1027.1
1027.1
1027.1
1027.1
1027.1
1027.1
1027.1
1027.1
1027.1
1027.1
1027.1
1.16198
1.16306
1.16362
1.16406
1.16457
1.16561
1.16675
1.16775
1.16847
1.16874
1.1688
1.16884
1.16887
1.16889
1.1689
1.16892
1.16892
1.16892
1.16892
1.16892
1.16892
1.16892
1.16892
1.16893
1.16893
1.16893
1.16893
1.16893
1.16893
1.16893
1.16894
1.16894
1.16894
1.16894
1.16894
1.16894
1.16894
1.16894
1.16894
1.16894
1.16896
1.16899
1.16927
1.17043
1.17305
1.1774
1.18305
1.18927
1.2
1.22651
1.26335
1.28171
1.28338
1.28374
1.27842
1.31143
1.30985
1.3452
1.76328
67.1093
994.443
1027.06
1027.1
1027.1
1027.1
1027.1
1027.1
1027.1
1027.1
1027.1
1027.1
1027.1
1027.1
1027.1
1027.1
1027.1
1027.1
1027.1
1027.1
1027.1
1027.1
1027.1
1027.1
1027.1
1027.1
1027.1
1027.1
1027.1
1027.1
1027.1
1027.1
1027.1
1027.1
1027.1
1027.1
1027.1
1.16123
1.16261
1.16404
1.16461
1.16528
1.16608
1.16703
1.16777
1.16822
1.16845
1.16863
1.16876
1.16883
1.16887
1.16889
1.1689
1.16891
1.16891
1.16892
1.16892
1.16892
1.16892
1.16892
1.16892
1.16893
1.16893
1.16893
1.16893
1.16893
1.16893
1.16893
1.16893
1.16893
1.16893
1.16893
1.16893
1.16893
1.16894
1.16894
1.16894
1.16898
1.1691
1.1695
1.17042
1.17252
1.17624
1.18119
1.18728
1.19829
1.22793
1.2606
1.27947
1.2797
1.27929
1.28026
1.30954
1.31696
1.36293
1.50098
114.478
1017.2
1027.09
1027.1
1027.1
1027.1
1027.1
1027.1
1027.1
1027.1
1027.1
1027.1
1027.1
1027.1
1027.1
1027.1
1027.1
1027.1
1027.1
1027.1
1027.1
1027.1
1027.1
1027.1
1027.1
1027.1
1027.1
1027.1
1027.1
1027.1
1027.1
1027.1
1027.1
1027.1
1027.1
1027.1
1027.1
1.1609
1.16181
1.16369
1.16453
1.16524
1.16584
1.16658
1.1673
1.16786
1.16824
1.16852
1.16872
1.16882
1.16887
1.16888
1.1689
1.16891
1.16891
1.16891
1.16892
1.16892
1.16892
1.16892
1.16892
1.16892
1.16892
1.16892
1.16893
1.16893
1.16893
1.16893
1.16893
1.16893
1.16893
1.16893
1.16893
1.16893
1.16893
1.16893
1.16894
1.16897
1.1691
1.16957
1.17063
1.17271
1.17653
1.18177
1.18817
1.19903
1.22124
1.25371
1.2732
1.27668
1.28091
1.2895
1.32304
1.30457
1.35779
1.43642
82.1969
1010.54
1027.09
1027.09
1027.09
1027.1
1027.1
1027.09
1027.09
1027.1
1027.1
1027.1
1027.1
1027.1
1027.1
1027.1
1027.1
1027.1
1027.1
1027.1
1027.1
1027.1
1027.1
1027.1
1027.1
1027.1
1027.1
1027.1
1027.1
1027.1
1027.1
1027.1
1027.1
1027.1
1027.1
1027.1
1027.1
1.16078
1.16115
1.16289
1.16377
1.16458
1.16531
1.16612
1.16693
1.16764
1.16815
1.16848
1.1687
1.16881
1.16886
1.16888
1.1689
1.16891
1.16891
1.16891
1.16891
1.16891
1.16891
1.16892
1.16892
1.16892
1.16892
1.16892
1.16892
1.16892
1.16892
1.16893
1.16893
1.16893
1.16893
1.16893
1.16893
1.16893
1.16893
1.16893
1.16894
1.16896
1.16907
1.16958
1.17099
1.17377
1.17847
1.18512
1.19316
1.20287
1.21659
1.23511
1.26077
1.27148
1.28056
1.30336
1.33226
1.31036
1.33018
1.37187
109.473
1022.53
1027.05
1027.05
1027.06
1027.06
1027.06
1027.07
1027.06
1027.06
1027.07
1027.07
1027.07
1027.07
1027.06
1027.06
1027.06
1027.05
1027.05
1027.06
1027.07
1027.08
1027.09
1027.09
1027.1
1027.1
1027.1
1027.1
1027.1
1027.1
1027.1
1027.1
1027.1
1027.1
1027.1
1027.1
1027.1
1.1607
1.16073
1.1622
1.1632
1.1641
1.16493
1.16581
1.1667
1.1675
1.1681
1.16847
1.1687
1.16881
1.16886
1.16888
1.16889
1.16891
1.16891
1.16891
1.16891
1.16891
1.16891
1.16891
1.16892
1.16892
1.16892
1.16892
1.16892
1.16892
1.16892
1.16892
1.16892
1.16892
1.16893
1.16893
1.16893
1.16893
1.16893
1.16893
1.16894
1.16896
1.16907
1.16965
1.17128
1.17445
1.17997
1.18771
1.19605
1.20368
1.2102
1.21734
1.24923
1.26794
1.28235
1.31758
1.33776
1.33001
1.32967
1.31309
171.102
1019.66
1025.4
1025.41
1025.44
1025.28
1025.2
1025.13
1025.11
1025.13
1025.12
1025.05
1025.01
1024.97
1024.95
1024.97
1025.08
1025.23
1025.45
1025.71
1025.98
1026.25
1026.5
1026.71
1026.88
1027
1027.06
1027.09
1027.1
1027.1
1027.1
1027.1
1027.1
1027.1
1027.1
1027.1
1027.1
1.16061
1.16046
1.16157
1.16264
1.16368
1.16464
1.16561
1.16655
1.16741
1.16807
1.16846
1.16869
1.16881
1.16886
1.16888
1.16889
1.1689
1.16891
1.16891
1.16891
1.16891
1.16891
1.16891
1.16891
1.16892
1.16892
1.16892
1.16892
1.16892
1.16892
1.16892
1.16892
1.16892
1.16892
1.16892
1.16893
1.16893
1.16893
1.16893
1.16894
1.16896
1.16909
1.16971
1.17137
1.1746
1.18023
1.18818
1.19644
1.20361
1.20958
1.21427
1.24061
1.26161
1.29226
1.32769
1.33841
1.3383
1.32933
1.30979
262.854
1010.09
1017.49
1016.82
1016.56
1016.32
1016.1
1015.95
1015.84
1015.77
1015.67
1015.56
1015.49
1015.44
1015.44
1015.73
1016.06
1016.57
1017.25
1018.1
1019.08
1020.08
1021.18
1022.43
1023.75
1025.02
1026.01
1026.65
1026.96
1027.08
1027.1
1027.1
1027.1
1027.1
1027.1
1027.1
1027.1
1.16054
1.16026
1.16106
1.16206
1.16329
1.16439
1.16546
1.16646
1.16737
1.16806
1.16845
1.16869
1.16881
1.16886
1.16888
1.16889
1.1689
1.16891
1.16891
1.16891
1.16891
1.16891
1.16891
1.16891
1.16892
1.16892
1.16892
1.16892
1.16892
1.16892
1.16892
1.16892
1.16892
1.16892
1.16892
1.16893
1.16893
1.16893
1.16893
1.16894
1.16897
1.1691
1.16975
1.17146
1.17476
1.18041
1.1884
1.19736
1.20761
1.21946
1.22258
1.25109
1.28837
1.3251
1.33318
1.33767
1.33251
1.34318
1.30979
433.516
1005.98
1010.28
1009.82
1009.59
1009.46
1009.35
1009.28
1009.15
1009.02
1008.86
1008.72
1008.66
1008.61
1008.59
1008.58
1008.72
1008.96
1009.16
1009.33
1009.52
1009.6
1009.71
1010.48
1011.81
1014.31
1017.25
1020.42
1022.93
1024.84
1026
1026.39
1026.08
1025.76
1025.3
1024.67
1024.04
1.16047
1.16013
1.16065
1.16144
1.16275
1.16406
1.16533
1.1664
1.16734
1.16805
1.16845
1.1687
1.16881
1.16886
1.16888
1.16889
1.1689
1.16891
1.16891
1.16891
1.16891
1.16891
1.16891
1.16892
1.16892
1.16892
1.16892
1.16892
1.16892
1.16892
1.16892
1.16892
1.16892
1.16892
1.16893
1.16893
1.16893
1.16893
1.16893
1.16894
1.16897
1.16911
1.16976
1.17153
1.17501
1.1808
1.18894
1.19857
1.21212
1.22901
1.24245
1.29736
1.3309
1.33178
1.33067
1.33191
1.32499
1.33898
1.30979
397.467
1001.95
1007.89
1007.65
1007.59
1007.6
1007.86
1007.85
1007.65
1007.46
1007.02
1006.65
1006.43
1006.33
1006.26
1006.26
1006.29
1006.5
1006.13
1005.53
1004.52
1003.07
1001.1
998.92
997.102
995.96
995.486
996.196
996.607
994.503
987.599
979.309
967.102
950.468
923.538
864.288
666.669
1.16037
1.16006
1.16034
1.16084
1.16203
1.16353
1.16513
1.16633
1.16732
1.16806
1.16846
1.1687
1.16881
1.16886
1.16888
1.16889
1.16891
1.16891
1.16891
1.16891
1.16891
1.16891
1.16891
1.16892
1.16892
1.16892
1.16892
1.16892
1.16892
1.16892
1.16893
1.16893
1.16893
1.16893
1.16893
1.16893
1.16893
1.16893
1.16894
1.16895
1.16898
1.16912
1.16977
1.17156
1.17513
1.18108
1.18962
1.20095
1.2192
1.24334
1.26793
1.32237
1.33469
1.32863
1.3266
1.32511
1.32306
1.32235
1.30979
224.046
1005.44
1016.52
1016.85
1017.66
1017.91
1017.92
1017.24
1016.63
1015.77
1014.9
1014.11
1013.41
1012.55
1011.72
1011.1
1010.64
1010.25
1009.85
1008.89
1006.97
1003.94
1000.26
996.974
993.353
988.952
984.925
981.166
977.649
973.096
968.12
964.887
960.716
953.111
944.706
940.169
950.209
1.16026
1.16
1.1601
1.16037
1.16121
1.16282
1.1648
1.16626
1.16731
1.16807
1.16848
1.16871
1.16882
1.16887
1.16888
1.1689
1.16891
1.16891
1.16891
1.16891
1.16891
1.16892
1.16892
1.16892
1.16892
1.16892
1.16892
1.16892
1.16892
1.16893
1.16893
1.16893
1.16893
1.16893
1.16893
1.16893
1.16893
1.16893
1.16894
1.16895
1.16898
1.16912
1.16977
1.17155
1.17511
1.18115
1.19024
1.20387
1.2256
1.25185
1.27355
1.32011
1.33575
1.33149
1.3292
1.32686
1.32174
1.32388
1.30979
131.58
1012.8
1024.05
1024.27
1024.71
1024.76
1024.8
1024.46
1024.17
1023.8
1023.42
1023.07
1022.76
1022.49
1022.24
1021.98
1021.73
1021.47
1021.15
1020.58
1019.23
1017.25
1014.49
1011.52
1008.56
1004.3
999.086
994.186
990.654
988.006
986.784
988.944
993.843
999.873
1008.45
1017.33
1022.95
1.16017
1.15996
1.15996
1.16004
1.16055
1.16195
1.16417
1.16601
1.16729
1.16808
1.16849
1.16872
1.16883
1.16887
1.16888
1.1689
1.16891
1.16891
1.16891
1.16891
1.16891
1.16892
1.16892
1.16892
1.16892
1.16892
1.16892
1.16892
1.16893
1.16893
1.16893
1.16893
1.16893
1.16893
1.16893
1.16893
1.16893
1.16893
1.16894
1.16895
1.16898
1.16913
1.16978
1.1716
1.17513
1.18091
1.19051
1.2059
1.22936
1.25503
1.26999
1.30643
1.33109
1.33248
1.32458
1.33302
1.31709
1.33353
1.30979
103.467
1019.6
1026.45
1026.49
1026.64
1026.68
1026.72
1026.7
1026.64
1026.55
1026.45
1026.35
1026.27
1026.21
1026.18
1026.15
1026.12
1026.09
1026.05
1025.91
1025.6
1025.1
1024.39
1023.57
1022.68
1021.51
1019.86
1018.75
1018.45
1018.44
1019.73
1021.44
1023.65
1025.39
1026.5
1026.94
1027.04
1.16013
1.15992
1.1599
1.15989
1.16016
1.16122
1.16327
1.16556
1.16729
1.16813
1.16852
1.16874
1.16883
1.16887
1.16888
1.16889
1.16891
1.16891
1.16891
1.16891
1.16891
1.16892
1.16892
1.16892
1.16892
1.16892
1.16892
1.16892
1.16893
1.16893
1.16893
1.16893
1.16893
1.16893
1.16893
1.16893
1.16893
1.16893
1.16894
1.16895
1.16898
1.16913
1.16977
1.17164
1.1752
1.18064
1.18973
1.20598
1.23021
1.2555
1.27245
1.28191
1.31531
1.32988
1.32532
1.32701
1.31658
1.3348
1.30979
75.7662
1023.69
1026.99
1027
1027.03
1027.04
1027.05
1027.05
1027.05
1027.04
1027.03
1027.03
1027.02
1027.01
1027.01
1027.01
1027.01
1027.02
1027.02
1027
1026.98
1026.93
1026.88
1026.82
1026.78
1026.72
1026.66
1026.66
1026.77
1026.83
1026.91
1026.99
1027.06
1027.09
1027.1
1027.1
1027.1
1.16013
1.15998
1.15989
1.15987
1.15986
1.16032
1.1617
1.16411
1.16682
1.16817
1.16855
1.16876
1.16883
1.16886
1.16887
1.16889
1.1689
1.16891
1.16891
1.16891
1.16891
1.16892
1.16892
1.16892
1.16892
1.16892
1.16892
1.16892
1.16893
1.16893
1.16893
1.16893
1.16893
1.16893
1.16893
1.16893
1.16893
1.16893
1.16894
1.16894
1.16897
1.1691
1.16974
1.17169
1.17529
1.18046
1.1892
1.20653
1.23227
1.25748
1.27488
1.28499
1.3033
1.31973
1.31652
1.31877
1.33272
1.36752
1.40162
85.638
1018.97
1027.09
1027.09
1027.09
1027.09
1027.09
1027.09
1027.09
1027.09
1027.09
1027.09
1027.09
1027.09
1027.09
1027.09
1027.09
1027.09
1027.1
1027.09
1027.09
1027.09
1027.09
1027.09
1027.09
1027.09
1027.09
1027.1
1027.1
1027.1
1027.1
1027.1
1027.1
1027.1
1027.1
1027.1
1027.1
1.16026
1.16041
1.1602
1.16019
1.15981
1.15982
1.16029
1.16188
1.16547
1.16825
1.16862
1.16877
1.16882
1.16884
1.16885
1.16888
1.1689
1.16891
1.16891
1.16891
1.16891
1.16891
1.16891
1.16892
1.16892
1.16892
1.16892
1.16892
1.16892
1.16892
1.16892
1.16892
1.16892
1.16892
1.16892
1.16892
1.16893
1.16893
1.16893
1.16894
1.16896
1.16909
1.16975
1.17181
1.17548
1.1804
1.18862
1.20605
1.23381
1.26021
1.27602
1.28642
1.29456
1.30537
1.30763
1.36359
1.3701
1.39944
1.54123
48.621
945.573
1027.09
1027.09
1027.09
1027.1
1027.1
1027.1
1027.1
1027.1
1027.1
1027.1
1027.1
1027.1
1027.1
1027.1
1027.1
1027.1
1027.1
1027.1
1027.1
1027.1
1027.1
1027.1
1027.1
1027.1
1027.1
1027.1
1027.1
1027.1
1027.1
1027.1
1027.1
1027.1
1027.1
1027.1
1027.1
1.16041
1.16073
1.16076
1.16076
1.16013
1.15996
1.15991
1.16038
1.16361
1.16798
1.16867
1.16877
1.16878
1.1688
1.16882
1.16887
1.1689
1.1689
1.16891
1.16891
1.16891
1.16891
1.16891
1.16891
1.16892
1.16892
1.16892
1.16892
1.16892
1.16892
1.16892
1.16892
1.16892
1.16892
1.16892
1.16892
1.16892
1.16892
1.16893
1.16893
1.16895
1.1691
1.16981
1.17192
1.17573
1.18079
1.1881
1.20305
1.23151
1.26101
1.27594
1.28238
1.29049
1.30824
1.3416
1.41727
1.37683
1.37639
1.82642
65.6072
986.883
1027.09
1027.1
1027.1
1027.1
1027.1
1027.1
1027.1
1027.1
1027.1
1027.1
1027.1
1027.1
1027.1
1027.1
1027.1
1027.1
1027.1
1027.1
1027.1
1027.1
1027.1
1027.1
1027.1
1027.1
1027.1
1027.1
1027.1
1027.1
1027.1
1027.1
1027.1
1027.1
1027.1
1027.1
1027.1
1.16015
1.16029
1.1607
1.16107
1.16031
1.16008
1.16005
1.16018
1.16244
1.16753
1.16863
1.16873
1.16875
1.16879
1.16882
1.16886
1.1689
1.16891
1.16891
1.16891
1.16891
1.16892
1.16892
1.16892
1.16892
1.16892
1.16892
1.16892
1.16892
1.16893
1.16893
1.16893
1.16893
1.16893
1.16893
1.16893
1.16893
1.16893
1.16894
1.16894
1.16896
1.1691
1.16976
1.17175
1.17536
1.18026
1.18712
1.20024
1.22779
1.26318
1.28126
1.2849
1.2879
1.31035
1.3656
1.42975
1.40679
1.42803
1.61048
53.7422
995.696
1027.02
1027.1
1027.1
1027.1
1027.1
1027.1
1027.1
1027.1
1027.1
1027.1
1027.1
1027.1
1027.1
1027.1
1027.1
1027.1
1027.1
1027.1
1027.1
1027.1
1027.1
1027.1
1027.1
1027.1
1027.1
1027.1
1027.1
1027.1
1027.1
1027.1
1027.1
1027.1
1027.1
1027.1
1027.1
1.16173
1.16278
1.1635
1.16399
1.1645
1.16554
1.16668
1.16774
1.16854
1.16876
1.16881
1.16885
1.16887
1.16889
1.1689
1.16891
1.16891
1.16891
1.16891
1.16891
1.16892
1.16892
1.16892
1.16892
1.16892
1.16892
1.16892
1.16892
1.16893
1.16893
1.16893
1.16893
1.16893
1.16893
1.16893
1.16893
1.16893
1.16893
1.16893
1.16894
1.16894
1.16896
1.16921
1.17044
1.17342
1.17827
1.18442
1.19143
1.20243
1.22803
1.26501
1.28289
1.28904
1.29246
1.2873
1.31972
1.3109
1.35499
1.79206
55.6349
998.469
1027.05
1027.1
1027.1
1027.1
1027.1
1027.1
1027.1
1027.1
1027.1
1027.1
1027.1
1027.1
1027.1
1027.1
1027.1
1027.1
1027.1
1027.1
1027.1
1027.1
1027.1
1027.1
1027.1
1027.1
1027.1
1027.1
1027.1
1027.1
1027.1
1027.1
1027.1
1027.1
1027.1
1027.1
1027.1
1.16075
1.16182
1.16392
1.16437
1.16494
1.16586
1.16693
1.16795
1.16845
1.16863
1.16872
1.1688
1.16885
1.16888
1.16889
1.1689
1.16891
1.16891
1.16891
1.16891
1.16891
1.16892
1.16892
1.16892
1.16892
1.16892
1.16892
1.16892
1.16893
1.16893
1.16893
1.16893
1.16893
1.16893
1.16893
1.16893
1.16893
1.16893
1.16893
1.16894
1.16896
1.16903
1.16934
1.17054
1.17358
1.17867
1.18523
1.19204
1.20019
1.22662
1.26237
1.27929
1.28415
1.29123
1.28287
1.30832
1.31445
1.40879
1.54969
77.1724
1013.28
1027.09
1027.1
1027.1
1027.1
1027.1
1027.1
1027.1
1027.1
1027.1
1027.1
1027.1
1027.1
1027.1
1027.1
1027.1
1027.1
1027.1
1027.1
1027.1
1027.1
1027.1
1027.1
1027.1
1027.1
1027.1
1027.1
1027.1
1027.1
1027.1
1027.1
1027.1
1027.1
1027.1
1027.1
1027.1
1.16037
1.16081
1.1639
1.16463
1.16527
1.16605
1.167
1.16786
1.16827
1.16847
1.16863
1.16876
1.16883
1.16887
1.16888
1.16889
1.1689
1.1689
1.1689
1.1689
1.16891
1.16891
1.16891
1.16891
1.16891
1.16891
1.16892
1.16892
1.16892
1.16892
1.16892
1.16892
1.16892
1.16892
1.16892
1.16892
1.16892
1.16892
1.16892
1.16893
1.16897
1.16909
1.16949
1.17078
1.17399
1.17928
1.18586
1.19229
1.19977
1.22242
1.25546
1.27386
1.28039
1.28632
1.28776
1.31451
1.31047
1.40472
1.45847
65.9394
1012.67
1027.09
1027.09
1027.09
1027.1
1027.1
1027.1
1027.1
1027.1
1027.1
1027.1
1027.1
1027.1
1027.1
1027.1
1027.1
1027.1
1027.1
1027.1
1027.1
1027.1
1027.1
1027.1
1027.1
1027.1
1027.1
1027.1
1027.1
1027.1
1027.1
1027.1
1027.1
1027.1
1027.1
1027.1
1027.1
1.16031
1.16037
1.1631
1.16447
1.16518
1.16603
1.16693
1.16765
1.16808
1.16837
1.16859
1.16875
1.16883
1.16887
1.16888
1.16889
1.1689
1.1689
1.1689
1.1689
1.16891
1.16891
1.16891
1.16891
1.16891
1.16891
1.16891
1.16891
1.16891
1.16891
1.16892
1.16892
1.16892
1.16892
1.16892
1.16892
1.16892
1.16892
1.16893
1.16894
1.16898
1.16915
1.16971
1.17114
1.17415
1.17899
1.18534
1.19255
1.20236
1.21804
1.24269
1.26779
1.27951
1.28552
1.29513
1.32296
1.31813
1.38994
1.36982
109.343
1024.33
1027.07
1027.07
1027.08
1027.08
1027.08
1027.08
1027.08
1027.09
1027.09
1027.09
1027.09
1027.09
1027.09
1027.09
1027.09
1027.09
1027.09
1027.09
1027.09
1027.09
1027.09
1027.09
1027.09
1027.1
1027.1
1027.1
1027.1
1027.1
1027.1
1027.1
1027.1
1027.1
1027.1
1027.1
1027.1
1.16034
1.16035
1.16119
1.164
1.16502
1.16593
1.16681
1.16743
1.16795
1.16832
1.16857
1.16873
1.16882
1.16886
1.16888
1.16889
1.1689
1.1689
1.1689
1.16891
1.16891
1.16891
1.16891
1.16891
1.16891
1.16891
1.16891
1.16891
1.16891
1.16892
1.16892
1.16892
1.16892
1.16892
1.16892
1.16892
1.16892
1.16895
1.16899
1.16903
1.16908
1.16935
1.17002
1.17128
1.17401
1.1784
1.1847
1.19351
1.20386
1.21303
1.22908
1.25921
1.27694
1.29032
1.3116
1.33232
1.34153
1.36112
1.33909
157.395
1022.9
1026.23
1026.27
1026.35
1026.37
1026.38
1026.38
1026.35
1026.34
1026.35
1026.36
1026.38
1026.42
1026.47
1026.51
1026.54
1026.56
1026.57
1026.59
1026.62
1026.66
1026.71
1026.76
1026.82
1026.91
1027
1027.07
1027.09
1027.1
1027.1
1027.1
1027.1
1027.1
1027.1
1027.1
1027.1
1.16036
1.16034
1.16086
1.16311
1.16475
1.16585
1.16667
1.16727
1.16786
1.16828
1.16855
1.16872
1.16881
1.16886
1.16888
1.16889
1.16889
1.1689
1.1689
1.1689
1.1689
1.16891
1.16891
1.16891
1.16891
1.16891
1.16891
1.16891
1.16891
1.16891
1.16892
1.16892
1.16892
1.16892
1.16892
1.16892
1.16892
1.16896
1.16904
1.16913
1.16923
1.16942
1.16989
1.17112
1.17374
1.17801
1.18411
1.19369
1.20342
1.21011
1.2226
1.24932
1.2763
1.30853
1.33442
1.33831
1.34089
1.34149
1.32746
231.698
1016.08
1022.21
1022.26
1022.34
1022.36
1022.27
1022.16
1022.1
1022.15
1022.31
1022.49
1022.71
1022.98
1023.25
1023.5
1023.7
1023.83
1023.87
1023.77
1023.7
1023.61
1023.58
1023.74
1023.92
1024.47
1025.32
1026.26
1026.86
1027.07
1027.1
1027.1
1027.1
1027.1
1027.1
1027.1
1027.1
1.1603
1.16015
1.16073
1.16251
1.16433
1.16571
1.16679
1.16733
1.16787
1.16825
1.16851
1.16867
1.16879
1.16885
1.16888
1.16889
1.16889
1.1689
1.1689
1.1689
1.1689
1.16891
1.16891
1.16891
1.16891
1.16892
1.16892
1.16892
1.16892
1.16892
1.16892
1.16892
1.16892
1.16892
1.16892
1.16893
1.16893
1.16894
1.16898
1.16904
1.16909
1.16923
1.16991
1.1715
1.17394
1.17826
1.18459
1.19232
1.19877
1.20417
1.21557
1.26114
1.31948
1.33959
1.34189
1.34431
1.34487
1.34483
1.3351
339.2
1011.76
1017.19
1017.32
1017.48
1017.58
1017.72
1018.04
1018.39
1018.86
1019.36
1019.98
1020.59
1021.23
1021.79
1022.21
1022.46
1022.55
1022.55
1022.23
1021.8
1021.19
1020.46
1019.77
1019.28
1019.06
1019.53
1021.01
1023.22
1025.4
1026.79
1027.05
1027.06
1027.08
1027.09
1027.1
1027.1
1.16022
1.16002
1.16048
1.16166
1.16362
1.16518
1.16639
1.16702
1.16772
1.16804
1.16826
1.16863
1.16877
1.16884
1.16888
1.16889
1.16889
1.16889
1.16889
1.1689