/*--------------------------------*- C++ -*----------------------------------*\
| =========                 |                                                 |
| \\      /  F ield         | OpenFOAM: The Open Source CFD Toolbox           |
|  \\    /   O peration     | Version:  2.3.0                                 |
|   \\  /    A nd           | Web:      www.OpenFOAM.org                      |
|    \\/     M anipulation  |                                                 |
\*---------------------------------------------------------------------------*/
FoamFile
{
    version     2.0;
    format      ascii;
    class       volVectorField;
    location    "59";
    object      U.water;
}
// * * * * * * * * * * * * * * * * * * * * * * * * * * * * * * * * * * * * * //

dimensions      [0 1 -1 0 0 0 0];

internalField   nonuniform List<vector> 
6144
(
(0.0107349 0.0189487 -0.000934283)
(0.0108836 -0.0027399 -0.0022077)
(0.00445713 -0.00392821 -0.00302255)
(0.00366652 -0.00369988 -0.00274438)
(0.00223644 -0.00246059 -0.00197334)
(0.00310671 -0.000150687 -0.00153219)
(0.00336764 -0.000878925 -0.00112957)
(0.00318739 -0.000405265 -0.00113116)
(0.00249919 -0.000818533 -0.000884131)
(0.00181529 0.000549124 -0.000361353)
(0.00129176 0.00176914 0.000219248)
(0.0012239 0.00302177 0.000941948)
(0.00133817 0.00325667 0.00138368)
(0.00146043 0.00286658 0.00181056)
(0.00151694 0.0020921 0.00185791)
(0.00160619 0.00132218 0.00178071)
(0.00168607 0.000505232 0.00157569)
(0.00177248 -0.000186751 0.00133358)
(0.00185256 -0.000768795 0.00107509)
(0.00192007 -0.00118505 0.00083246)
(0.00196831 -0.00144305 0.000607058)
(0.00200789 -0.0015296 0.000416207)
(0.00203291 -0.00150418 0.000291009)
(0.00203409 -0.0014133 0.000251399)
(0.00201107 -0.00129054 0.00028605)
(0.0019697 -0.00116118 0.00038633)
(0.00192036 -0.00105285 0.000532099)
(0.00187637 -0.000995861 0.00068345)
(0.00182758 -0.00100894 0.000839887)
(0.00177454 -0.00107475 0.000981482)
(0.00172026 -0.00117235 0.00110685)
(0.0016695 -0.00129789 0.00122438)
(0.00162466 -0.00145862 0.00133731)
(0.00159293 -0.00166972 0.00144716)
(0.00158063 -0.00196015 0.00154585)
(0.00159001 -0.00234912 0.0016044)
(0.00161796 -0.0028203 0.0015947)
(0.00165809 -0.00332766 0.00148142)
(0.00171977 -0.00371672 0.00123329)
(0.00185902 -0.00390447 0.000678707)
(0.00205487 -0.00365525 7.82219e-05)
(0.00266214 -0.00298169 -0.000572438)
(0.00364131 -0.00296075 -0.00109495)
(0.00445775 -0.00403864 -0.00165095)
(0.00417774 -0.00507493 -0.00249746)
(0.00380163 -0.00474659 -0.0032698)
(0.00475721 -0.00375403 -0.00384538)
(0.00895659 -0.00535904 -0.00428906)
(0.0131958 -0.00978647 -0.00593918)
(0.00796643 -0.0195633 -0.00589462)
(-0.00402287 -0.00825687 -0.00775439)
(0.000100075 -0.0036817 -0.0105237)
(0.000823546 0.0209539 -0.00819635)
(0.0102579 -0.00163408 -0.0097971)
(0.0308742 0.0531687 -0.0106494)
(0.0464971 -0.0463145 0.00177133)
(0.0338126 -0.022083 -0.00956476)
(0.00946338 -0.13362 0.0311593)
(-0.0211967 0.0092795 -0.0808928)
(0.0165891 -0.0582905 0.0356952)
(0.0863499 -0.274582 0.0779725)
(0.0691238 -0.0822299 0.0323687)
(0.0537975 -0.15917 -0.00815558)
(0.0461888 -0.172442 0.00191229)
(0.0396242 -0.176648 0.0110272)
(0.0312323 -0.18003 0.0119108)
(0.0280568 -0.179546 0.00929092)
(0.0285893 -0.181257 0.00481472)
(0.0283467 -0.183879 0.00524043)
(0.0264432 -0.186007 0.00817028)
(0.025602 -0.183203 0.0111754)
(0.021306 -0.183319 0.0126991)
(0.0125862 -0.18003 0.0129352)
(0.00307049 -0.166531 0.0111463)
(-0.00188884 -0.141097 0.00826215)
(-0.0124635 -0.111512 0.00752121)
(-0.0156182 -0.0709367 0.00504168)
(0.0022411 -0.0362915 0.00534661)
(0.00488993 -0.03247 0.00549301)
(-0.00610078 -0.0341152 0.00438896)
(-0.0110237 -0.0255657 0.00169162)
(-0.000759568 -0.0238848 -0.00501737)
(0.00931048 -0.018972 -0.0115939)
(0.00891856 -0.0177336 -0.00990058)
(0.00886587 -0.00929437 -0.00379111)
(0.0139894 -0.0114805 0.00368721)
(0.020406 -0.0255574 0.00528314)
(0.0196305 -0.0456741 0.00567416)
(0.0190829 -0.0596053 0.00350815)
(0.0143358 -0.0674385 0.000368473)
(0.000858287 -0.0652959 -0.00275628)
(-0.00501532 -0.0336097 -0.00558886)
(-0.00358301 0.011976 -0.00485673)
(-0.00659737 0.0349833 0.0188587)
(-0.00971255 0.0374233 0.0279553)
(0.000228787 0.0280224 0.0386642)
(0.0203513 0.0195944 0.00313837)
(0.021833 0.00511967 0.00210951)
(0.0116084 0.00131743 -0.00206395)
(0.00977647 7.29246e-05 -0.000517079)
(0.00505206 -0.0031837 0.000816385)
(0.00531455 -0.00118422 0.00149844)
(0.00531354 -0.00157108 0.00229189)
(0.00489663 -0.000186851 0.00250027)
(0.00359021 -0.000242337 0.00263087)
(0.00226344 0.00159263 0.00266559)
(0.00166651 0.00290879 0.00285436)
(0.00186497 0.00406013 0.00357086)
(0.00226516 0.00415032 0.0040542)
(0.00269396 0.00381432 0.00434522)
(0.00285192 0.00300915 0.00440736)
(0.00301437 0.00221528 0.00439049)
(0.00311767 0.00133302 0.00431861)
(0.00321746 0.00057845 0.00423926)
(0.00329859 -9.48553e-05 0.00415982)
(0.003353 -0.000613659 0.00409815)
(0.00336988 -0.000984446 0.00405375)
(0.00338248 -0.00118087 0.00400289)
(0.00338612 -0.0012578 0.00396132)
(0.00335326 -0.00125782 0.00397436)
(0.00328103 -0.00121176 0.00403569)
(0.00318128 -0.00114181 0.00413607)
(0.00307431 -0.00107185 0.0042564)
(0.00299821 -0.00102858 0.00433693)
(0.00292399 -0.00104306 0.00442506)
(0.00284125 -0.00110745 0.00451231)
(0.00275792 -0.00121265 0.00459162)
(0.00268826 -0.00135476 0.00466197)
(0.00264114 -0.00153342 0.00472185)
(0.0026326 -0.00174815 0.004769)
(0.00267653 -0.00200924 0.00480463)
(0.00277077 -0.00233648 0.00483271)
(0.0028977 -0.0027287 0.00485407)
(0.0030057 -0.00313063 0.00486191)
(0.00306174 -0.00336523 0.00484771)
(0.00329041 -0.00324812 0.00447935)
(0.00374896 -0.00276175 0.00381566)
(0.00496368 -0.00235537 0.00324816)
(0.00696412 -0.00265103 0.00294887)
(0.00879653 -0.00325008 0.00233436)
(0.00898311 -0.00353484 0.00111213)
(0.00849663 -0.0039853 -5.18885e-05)
(0.0102927 -0.00464909 -0.000681919)
(0.0155167 -0.00610776 -0.00232342)
(0.0210589 -0.00205224 -0.00630226)
(0.0143922 0.00065139 -0.00820023)
(0.00252761 0.0151951 -0.00472709)
(0.00248913 -0.0109627 0.00193637)
(0.0144238 0.0154233 0.00173848)
(0.019048 -0.0313727 -0.0048551)
(0.0383689 0.0227932 0.00556936)
(0.0874882 -0.0611831 0.0284396)
(0.0604938 -0.0180051 0.0132045)
(0.057598 -0.151084 0.0739242)
(0.0126147 0.0524179 -0.0538138)
(-0.00213725 -0.0876937 -0.00153627)
(0.117046 -0.253601 0.117539)
(0.0950554 -0.0407002 0.0492636)
(0.0606913 -0.128022 -0.00108825)
(0.0519484 -0.0968075 0.0212592)
(0.0185932 -0.0935959 0.0312921)
(0.00143773 -0.0913139 0.0245917)
(0.00338858 -0.083345 0.016609)
(0.00472817 -0.0463531 0.00362354)
(-0.00202349 -0.0159252 0.0306054)
(-0.000301812 -0.0169069 0.0568775)
(-0.000816463 -0.00983876 0.0658278)
(-0.00771356 -0.00982652 0.0463492)
(-0.0114357 -0.00371524 0.0177009)
(-0.0200591 -0.0142312 0.00636855)
(-0.0270563 -0.0135048 0.00364107)
(-0.0319462 -0.014178 0.00760732)
(-0.0352263 -0.00997584 0.0106521)
(-0.0262016 0.0160075 0.00312292)
(-0.00451693 0.0261481 -0.00753223)
(0.00827312 0.0257556 -0.0207436)
(0.0174889 0.0166544 -0.0189761)
(0.0142582 0.0044279 -0.0185864)
(0.0188248 0.00430255 -0.0154326)
(0.0118701 -0.0032124 -0.0100495)
(0.00957296 0.00221741 -0.00432008)
(0.0217278 -0.00400246 0.00409088)
(0.0302007 -0.020112 0.0116076)
(0.0274595 -0.040231 0.0133011)
(0.0173487 -0.0550835 0.0125626)
(0.0106761 -0.0643901 0.00622434)
(-0.0039943 -0.0691283 -0.00719818)
(-0.0235554 -0.0521569 -0.0128267)
(-0.0172872 -0.00889434 -0.0062983)
(-0.011851 0.0255925 0.0168699)
(-0.0174128 0.0321954 0.0250591)
(-0.00193136 0.0144577 0.0394204)
(0.0232262 0.0198929 0.00435925)
(0.0257523 0.0108474 0.00426953)
(0.0167976 0.00560597 0.000505861)
(0.013744 0.00439242 0.0020205)
(0.00658084 -0.000971718 0.00332557)
(0.00493613 -7.78381e-05 0.00340061)
(0.00374312 -0.000692579 0.00431792)
(0.0030904 0.000908593 0.00437221)
(0.00152902 0.000726409 0.00429966)
(0.000442332 0.00186243 0.00421728)
(-6.85724e-05 0.00230695 0.00425386)
(0.000482695 0.00321474 0.00454037)
(0.00101901 0.00332152 0.00485619)
(0.00152506 0.00337941 0.00508371)
(0.00176231 0.002968 0.00512622)
(0.00197954 0.00253851 0.00510369)
(0.00211918 0.00194426 0.00504399)
(0.00225126 0.00141448 0.00499137)
(0.002346 0.000890347 0.00494304)
(0.00240489 0.000450649 0.00491742)
(0.00240935 6.93131e-05 0.00491404)
(0.00237409 -0.000234882 0.0049395)
(0.00230789 -0.000465949 0.00498776)
(0.00221861 -0.000624678 0.00504243)
(0.00210493 -0.000731177 0.00510104)
(0.00197792 -0.000800847 0.00516217)
(0.00185233 -0.000852518 0.00522562)
(0.00173286 -0.000894715 0.00529888)
(0.00162441 -0.000935352 0.00537936)
(0.00151291 -0.000991111 0.00546316)
(0.00140173 -0.00106534 0.00554261)
(0.00130894 -0.00115427 0.00561151)
(0.0012482 -0.00124998 0.0056612)
(0.0012373 -0.00133611 0.00568903)
(0.00130281 -0.00139339 0.00570061)
(0.00145735 -0.00142272 0.00571093)
(0.00165821 -0.00143048 0.00572817)
(0.00181129 -0.00137773 0.0057505)
(0.00190048 -0.00116117 0.00574826)
(0.00209743 -0.000735738 0.00567151)
(0.00292737 -0.000385105 0.00548058)
(0.00494074 -0.000877384 0.00521597)
(0.00718005 -0.00233543 0.00506439)
(0.00874908 -0.0033184 0.00478215)
(0.00917982 -0.00366724 0.00434529)
(0.00982527 -0.00455592 0.00398327)
(0.0120033 -0.00625352 0.00338551)
(0.0166849 -0.00670464 -0.000364265)
(0.0224868 -0.000229264 -0.00551212)
(0.0160553 0.0132293 -0.00674556)
(0.0136752 0.0296899 0.00205673)
(0.0060124 -0.00859604 0.0103833)
(0.0105546 0.00955288 0.0130671)
(0.0236581 -0.0329304 0.0108922)
(0.0498216 0.0181731 0.0253329)
(0.0932521 -0.0825321 0.0386729)
(0.0725727 0.0123695 -0.00581503)
(0.0810937 -0.166314 0.0490177)
(-0.00385279 0.0340466 -0.0399)
(0.0431439 -0.0453733 -0.00954984)
(0.184747 -0.289063 0.116505)
(0.128675 -0.0525811 0.0647321)
(0.0810192 -0.1185 0.0110037)
(0.0546007 -0.0287731 0.0195198)
(0.0119619 -0.0240337 0.00821189)
(-0.0170422 0.0164317 0.0126992)
(-0.0186573 0.0322521 0.0671066)
(-0.00620872 0.0523118 0.0654937)
(0.00743537 0.0538899 0.0275632)
(0.00950565 0.0554855 0.00891037)
(0.0130126 0.0641926 0.00258723)
(0.00670904 0.07247 -7.06537e-05)
(-0.0103361 0.084229 -0.00496877)
(-0.0280224 0.0944639 -0.00564266)
(-0.0356186 0.0981185 -0.00398993)
(-0.0382612 0.0974891 -0.0081887)
(-0.0281043 0.0865078 -0.0169102)
(-0.0024202 0.0837063 -0.0198498)
(0.0218302 0.0687186 -0.0166558)
(0.0353036 0.0659261 -0.0107639)
(0.0415338 0.0548657 -0.00642721)
(0.0404873 0.040685 -0.00821622)
(0.0405512 0.0300519 -0.00252292)
(0.0233067 0.0112316 -9.39128e-05)
(0.0189069 0.00289821 7.49762e-05)
(0.0309631 -0.00678613 0.00650639)
(0.0358308 -0.0253003 0.0139396)
(0.0316724 -0.0411493 0.0209805)
(0.0223808 -0.0588927 0.0208461)
(0.0102932 -0.0732729 0.024542)
(-0.00842797 -0.0798205 0.0159738)
(-0.0299131 -0.0806212 -0.00565369)
(-0.0369299 -0.052514 -0.0199307)
(-0.0265026 -0.00606175 -0.00107899)
(-0.0229576 0.0223815 0.0270679)
(-0.0100128 0.00435695 0.0430317)
(0.0239762 0.0202354 0.00445589)
(0.0275454 0.0150462 0.00465629)
(0.0196532 0.00841917 0.000475618)
(0.0176231 0.00885602 0.000794977)
(0.00912749 0.00192353 0.00145298)
(0.00527657 0.00182561 0.00240068)
(0.0022225 -0.00037168 0.00417527)
(0.00155146 0.00152586 0.00440268)
(9.88875e-05 0.000634463 0.00447181)
(-0.000876492 0.00139428 0.00437434)
(-0.00137095 0.00126844 0.00444589)
(-0.00092459 0.00194333 0.00476418)
(-0.000544916 0.0023113 0.00506574)
(2.05974e-05 0.00275275 0.00528421)
(0.000344484 0.00267763 0.00531792)
(0.000611986 0.00252258 0.00532338)
(0.000762719 0.00212002 0.00529348)
(0.000880243 0.00173058 0.00527864)
(0.00094705 0.00130762 0.0052564)
(0.00097944 0.000934633 0.00524184)
(0.000963171 0.000582236 0.00523406)
(0.000906242 0.000263268 0.00524003)
(0.000817119 -1.90739e-05 0.00525929)
(0.000704016 -0.000254958 0.00528634)
(0.000574628 -0.000443385 0.00532079)
(0.000438794 -0.00058328 0.00536036)
(0.000309277 -0.000680937 0.00540158)
(0.000199679 -0.000752449 0.00544606)
(0.000104373 -0.000808018 0.0054997)
(1.35874e-05 -0.000851643 0.0055596)
(-6.88441e-05 -0.000880134 0.00561826)
(-0.000127409 -0.000887109 0.00566035)
(-0.000161297 -0.000869378 0.00567211)
(-0.000157365 -0.000823866 0.0056523)
(-9.06606e-05 -0.000742483 0.00561237)
(5.66312e-05 -0.000612404 0.00557584)
(0.000245368 -0.000409528 0.00556855)
(0.000367392 -9.94539e-05 0.00559086)
(0.000435216 0.000433282 0.00559638)
(0.000899698 0.00109012 0.00549745)
(0.00251594 0.0012986 0.00529651)
(0.00529632 0.000238992 0.00521209)
(0.0075955 -0.0015796 0.00521557)
(0.00871661 -0.00316484 0.00522706)
(0.0088049 -0.0043267 0.00551334)
(0.0094974 -0.00543585 0.00611978)
(0.0121597 -0.00620294 0.00600159)
(0.0169914 -0.00599016 0.00196859)
(0.0195557 0.00208308 -0.00399437)
(0.0123901 0.0204472 -0.00653333)
(0.0125202 0.0353205 0.00379912)
(0.00845838 0.00734613 0.00921433)
(0.00861091 0.0191403 0.0138501)
(0.0195068 -0.0305211 0.0160765)
(0.0573929 0.0147165 0.0299929)
(0.103848 -0.105701 0.0290235)
(0.117292 -0.00436375 -0.00851451)
(0.0948778 -0.21265 0.0258413)
(-0.0597895 0.105825 -0.0393488)
(0.0599397 -0.140512 0.0116552)
(0.216045 -0.261111 0.132403)
(0.114831 0.0395756 0.0482969)
(0.0299944 -0.0574313 -0.0150653)
(-0.0150625 0.0918607 0.00946372)
(-0.0266717 0.0705121 0.0381875)
(-0.0341723 0.0820455 0.0392656)
(-0.03482 0.0723056 0.0292314)
(-0.02585 0.0732259 0.0131973)
(-0.022747 0.0801773 0.00310972)
(-0.00943536 0.0936991 0.00336635)
(-0.0032146 0.109095 -0.00507769)
(0.0023556 0.138239 -0.0158204)
(0.00027969 0.151974 -0.0142281)
(-0.00685626 0.156306 -0.0143694)
(-0.00924976 0.156284 -0.0151411)
(-0.00516815 0.14615 -0.0138363)
(0.0112063 0.132242 -0.0128798)
(0.0325631 0.125599 -0.00490282)
(0.0485664 0.115183 0.00195972)
(0.0627979 0.106284 0.00346492)
(0.0731783 0.0946849 0.00286261)
(0.0733583 0.0784809 0.00022395)
(0.0669424 0.0572452 -0.0054338)
(0.0480703 0.0338013 -0.0117477)
(0.0344585 0.00598082 -0.00576847)
(0.0359339 -0.0116472 0.00812696)
(0.0366021 -0.0323611 0.0158456)
(0.029125 -0.0504968 0.0243424)
(0.0144275 -0.0689605 0.0273019)
(-0.00442925 -0.0770601 0.0307829)
(-0.0246635 -0.0818901 0.0312719)
(-0.0523513 -0.0870136 0.0220608)
(-0.0607356 -0.074476 -0.00528942)
(-0.0445093 -0.0384237 -0.0091623)
(-0.0402439 0.0100073 0.0361512)
(-0.022504 -0.00442257 0.0543374)
(0.023912 0.0206781 0.00421562)
(0.028574 0.0190924 0.00491223)
(0.0216248 0.0111891 0.000842034)
(0.0219757 0.0122329 0.000476107)
(0.0136855 0.00480801 -0.000956023)
(0.00816461 0.00426197 -0.000236124)
(0.00170342 -0.000536137 0.00286018)
(-2.67702e-07 0.00172058 0.00351418)
(-0.00138016 0.000391509 0.00375764)
(-0.00229779 0.000980455 0.00398008)
(-0.00307604 0.000407817 0.00417302)
(-0.0030777 0.000944883 0.00459344)
(-0.00298836 0.00142429 0.00486051)
(-0.00238649 0.00215374 0.00509607)
(-0.00197683 0.00231059 0.00511364)
(-0.00167441 0.00230677 0.00514622)
(-0.00151569 0.00201799 0.0051615)
(-0.00146524 0.00173154 0.00519178)
(-0.00147516 0.00140024 0.00519321)
(-0.00150896 0.0010993 0.00517717)
(-0.00156208 0.000794093 0.00514445)
(-0.00163214 0.000490472 0.00510952)
(-0.00171653 0.000196052 0.00508127)
(-0.00181584 -7.01911e-05 0.00506228)
(-0.0019341 -0.000300747 0.00505083)
(-0.0020639 -0.000489862 0.00504354)
(-0.002174 -0.000634473 0.00504437)
(-0.00225657 -0.000743012 0.0050543)
(-0.00232621 -0.000814534 0.00506795)
(-0.00240075 -0.000841043 0.00508318)
(-0.0024815 -0.000814439 0.00509443)
(-0.00254325 -0.000733637 0.00508792)
(-0.0025671 -0.000606108 0.00505641)
(-0.00254175 -0.000433796 0.00499306)
(-0.00245471 -0.000208578 0.00490795)
(-0.00231312 9.72837e-05 0.00483253)
(-0.00219758 0.000528455 0.00479216)
(-0.00222546 0.00105471 0.00479088)
(-0.00224946 0.00164115 0.00478378)
(-0.00153308 0.00205195 0.0047134)
(0.000731362 0.00177837 0.00470195)
(0.00388007 0.000831259 0.00494707)
(0.00618733 -0.000417624 0.00537601)
(0.00712963 -0.00181415 0.00591168)
(0.00699221 -0.0029252 0.00714241)
(0.00724065 -0.00367873 0.00803535)
(0.00867944 -0.0024388 0.00720228)
(0.0121344 0.00196122 0.00304576)
(0.0117258 0.0135283 -0.00218066)
(0.0141332 0.0279145 -0.0053476)
(0.0174705 0.0397004 0.0017161)
(0.0105005 0.0199467 0.0066701)
(0.0126992 0.0246738 0.0130807)
(0.0283227 -0.0319646 0.0222983)
(0.0826178 -0.00882655 0.0249108)
(0.14554 -0.123097 0.00771458)
(0.15691 -0.0299124 0.00839805)
(0.15749 -0.24079 0.0785605)
(-0.0282751 0.117302 -0.0161801)
(0.0266313 -0.184056 -0.00354089)
(0.217783 -0.221433 0.13254)
(0.0707426 0.0771589 0.0222097)
(0.019208 -0.00514296 0.000699464)
(-0.00685872 0.0929722 0.0128222)
(-0.0110331 0.07535 0.0241071)
(-0.0222435 0.0859789 0.0243867)
(-0.0226766 0.0842813 0.021038)
(-0.0194532 0.0837782 0.0202826)
(-0.0169231 0.0866494 0.0159948)
(-0.0118396 0.0977494 0.00808461)
(-0.00500391 0.115336 -0.00124729)
(0.00588281 0.142103 0.00170637)
(0.0111661 0.166335 0.00759823)
(0.0103764 0.177535 0.00402441)
(0.0146744 0.180669 -0.00115379)
(0.0278603 0.175044 -0.00324787)
(0.0456008 0.16578 -0.000595497)
(0.0640246 0.156817 0.00437368)
(0.0760891 0.14343 0.00798562)
(0.0884726 0.132379 0.00966595)
(0.0983234 0.119926 0.0131606)
(0.105433 0.106064 0.0120212)
(0.103452 0.084427 0.00884342)
(0.0885942 0.0569084 -0.0041821)
(0.0635994 0.0185198 -0.00243494)
(0.0395206 -0.016504 -0.00441294)
(0.034955 -0.033455 0.00180264)
(0.0226306 -0.0596272 0.0112435)
(0.00353694 -0.074492 0.00553307)
(-0.0214861 -0.0923485 0.0161142)
(-0.0438977 -0.0884961 0.0260139)
(-0.0643738 -0.0812405 0.0277177)
(-0.0859564 -0.0787249 0.00654089)
(-0.0831236 -0.0572249 -0.0123422)
(-0.0620362 -0.00511409 0.0208872)
(-0.0513299 -0.0175579 0.0517936)
(0.0230266 0.020472 0.00385845)
(0.0297672 0.0235133 0.00598222)
(0.022863 0.01405 0.00220992)
(0.0244099 0.0148335 0.00207718)
(0.0190592 0.00591403 -0.00102376)
(0.0136591 0.00584782 -0.00185932)
(0.00252145 -0.00118869 0.000504674)
(-0.00120415 0.00156915 0.00171958)
(-0.00214448 -0.000227936 0.00242207)
(-0.00317568 0.000602766 0.00308359)
(-0.00395272 -0.000297341 0.00337121)
(-0.00419275 0.000244884 0.00393151)
(-0.00428658 0.000777215 0.00418375)
(-0.00353083 0.0017475 0.00455234)
(-0.00284365 0.00195623 0.00473215)
(-0.00237488 0.00194792 0.00493512)
(-0.00217454 0.00166282 0.0050834)
(-0.0021778 0.00142028 0.00519723)
(-0.00225188 0.00118699 0.00523114)
(-0.00233975 0.00100433 0.00520661)
(-0.00242969 0.000821488 0.00512875)
(-0.00252921 0.000626567 0.0050183)
(-0.0026488 0.000419354 0.00489971)
(-0.0027747 0.000215355 0.00478378)
(-0.00289306 2.65171e-05 0.00467669)
(-0.00299629 -0.000126468 0.00457726)
(-0.00307756 -0.000247463 0.00448437)
(-0.00313496 -0.000347699 0.00440543)
(-0.00319488 -0.000417757 0.00434191)
(-0.00326773 -0.000442834 0.00429493)
(-0.00334599 -0.000406239 0.00425933)
(-0.00339651 -0.000296537 0.00421783)
(-0.00341526 -0.000114439 0.00414682)
(-0.00341816 0.000135697 0.0040336)
(-0.00341768 0.000447425 0.00388489)
(-0.00343245 0.000829891 0.00373211)
(-0.00345443 0.00128602 0.00362765)
(-0.00343098 0.00171068 0.00363049)
(-0.0031567 0.00195155 0.00375029)
(-0.00187569 0.00180709 0.0040713)
(0.000666114 0.00128354 0.00474691)
(0.00344055 0.000536104 0.00570078)
(0.00523308 -0.000219908 0.0065263)
(0.00576495 -0.000975746 0.00711099)
(0.00506799 -0.00133186 0.00794832)
(0.0040655 -0.00126784 0.00799422)
(0.00344729 0.0019034 0.00538618)
(0.00516786 0.00912557 1.53263e-05)
(0.005268 0.0186834 -0.00568647)
(0.0108503 0.0241906 -0.0026093)
(0.0162744 0.0349879 0.00926625)
(0.0139829 0.0163257 0.0139732)
(0.0269737 0.0190423 0.0112139)
(0.0453448 -0.0359914 0.0212803)
(0.103099 -0.0110812 0.0139966)
(0.1631 -0.111788 -0.0109385)
(0.200121 0.0258604 -0.0286472)
(0.207434 -0.197525 0.0513636)
(-0.121518 0.270204 0.00197294)
(0.0276956 -0.273384 0.0275994)
(0.18078 -0.163218 0.121989)
(0.0136593 0.134875 -0.000365292)
(0.0104981 0.0212888 0.0107222)
(-0.022564 0.10111 0.0116561)
(-0.0256849 0.0951608 0.0202423)
(-0.0340677 0.107861 0.0205314)
(-0.0296904 0.116362 0.0180845)
(-0.0205157 0.121727 0.0179322)
(-0.0149424 0.12407 0.0154603)
(-0.0128035 0.129407 0.0117322)
(-0.0090066 0.143652 0.00906318)
(-0.00453403 0.162014 0.0033938)
(0.00328569 0.180543 -0.00641533)
(0.015189 0.185948 -0.00802454)
(0.0258779 0.184054 -0.00709624)
(0.0405417 0.181514 -0.00416938)
(0.0583129 0.176992 0.000794602)
(0.0757709 0.170338 0.00643073)
(0.0862335 0.162658 0.0161001)
(0.0955427 0.144151 0.0240017)
(0.0984874 0.133015 0.0327254)
(0.105408 0.117463 0.0310276)
(0.111209 0.101355 0.0301088)
(0.106272 0.0793333 0.0179616)
(0.0837569 0.0444847 0.000703659)
(0.0501651 0.00611116 -0.0211579)
(0.0372376 -0.0131036 -0.0263921)
(0.0232471 -0.0485916 -0.0179033)
(0.0122966 -0.0723941 -0.0198002)
(-0.0282737 -0.104352 -0.0386105)
(-0.0749704 -0.103539 -0.0169593)
(-0.0943894 -0.0721548 0.0174875)
(-0.102119 -0.0559324 0.00583914)
(-0.0992237 -0.0415719 -0.00783141)
(-0.0842769 -0.00677733 0.0210208)
(-0.0734081 -0.00745993 0.0554357)
(0.0209834 0.0191915 0.00410137)
(0.0305477 0.0280214 0.00824172)
(0.0232012 0.0170753 0.0047104)
(0.024657 0.0176257 0.00482394)
(0.0216064 0.00605436 0.00147122)
(0.0182672 0.00594739 -4.02257e-05)
(0.00462428 -0.00244579 -0.00119959)
(-0.00170657 0.00136134 9.31622e-05)
(-0.00337234 -0.000872363 0.00121809)
(-0.00442636 0.000371916 0.00221001)
(-0.00544657 -0.000584063 0.00238534)
(-0.00635227 7.14369e-05 0.00311899)
(-0.00686804 0.0003657 0.00351804)
(-0.00600992 0.00120136 0.00428463)
(-0.00509521 0.00121436 0.00487489)
(-0.00463261 0.00121218 0.00535423)
(-0.00457022 0.000966261 0.00564862)
(-0.00479216 0.000849085 0.00581217)
(-0.00505971 0.000780095 0.00584185)
(-0.0052743 0.000781566 0.00578489)
(-0.00541774 0.000792535 0.00564538)
(-0.00551105 0.000794101 0.00544937)
(-0.00558252 0.000772229 0.00523333)
(-0.00564301 0.000725805 0.00501907)
(-0.0057175 0.000672658 0.00483429)
(-0.00578733 0.000637163 0.00467986)
(-0.00578645 0.000603051 0.00454507)
(-0.00574772 0.000550003 0.00445181)
(-0.00571203 0.000493145 0.00440116)
(-0.00571008 0.000455762 0.00438813)
(-0.00575209 0.000474337 0.00439432)
(-0.00580737 0.000570526 0.00437281)
(-0.00584872 0.000741929 0.00430883)
(-0.00585791 0.000963796 0.0042053)
(-0.00583316 0.00120239 0.00405726)
(-0.00578252 0.00142961 0.00388762)
(-0.00571452 0.00160627 0.00372372)
(-0.00556966 0.00167799 0.00362298)
(-0.00508676 0.0015695 0.00376358)
(-0.00368923 0.00111451 0.0044281)
(-0.00138069 0.000525293 0.00569005)
(0.00080309 -0.000242069 0.00751094)
(0.00191262 -0.000806359 0.00860914)
(0.00173641 -0.00132997 0.00853971)
(0.000619281 -0.00101417 0.00782999)
(-0.000839233 -0.00060306 0.00590765)
(-0.00215019 0.00333764 0.000786262)
(-0.000657973 0.00760718 -0.00327606)
(0.00415908 0.0124556 -0.00829697)
(0.00947183 0.0118924 -0.00167347)
(0.0113486 0.0161326 0.0174696)
(0.0164895 -0.00845538 0.0286508)
(0.0323864 -0.0112246 0.0229269)
(0.0494056 -0.0432038 0.0297983)
(0.106442 -0.00135449 0.0136098)
(0.129257 -0.0415051 -0.00913646)
(0.137533 0.10109 -0.0387416)
(0.115362 -0.000911093 0.0430623)
(0.0166834 0.4298 0.0906224)
(0.0115761 -0.341798 0.0356469)
(0.0822438 -0.0714076 0.0752161)
(0.00194457 0.13547 -0.00383756)
(-0.00539799 0.0913362 0.00574256)
(-0.0347823 0.143643 0.00226979)
(-0.0344943 0.152418 0.00387072)
(-0.0351788 0.157587 0.00131657)
(-0.0262906 0.160251 0.000288577)
(-0.0193671 0.158899 -0.000789552)
(-0.0149501 0.158152 -0.00146132)
(-0.0136862 0.148537 -0.000302225)
(-0.0133792 0.143412 -0.00114541)
(-0.00586044 0.138009 -0.00673151)
(0.0108108 0.136244 -0.0129324)
(0.0270748 0.139293 -0.0133545)
(0.0360748 0.143744 -0.0100859)
(0.0475883 0.152299 -0.00273527)
(0.0631144 0.160418 0.00201745)
(0.0781734 0.160314 0.00235271)
(0.0882074 0.164025 0.0145219)
(0.097265 0.147628 0.0236692)
(0.0949328 0.136018 0.0393179)
(0.100116 0.120765 0.043817)
(0.1088 0.111225 0.0472671)
(0.117354 0.0947109 0.0400297)
(0.109385 0.073544 0.0257291)
(0.0828 0.0376921 -0.0061864)
(0.0705169 0.00783941 -0.0222448)
(0.0651459 -0.0250318 -0.013665)
(0.0553786 -0.0576584 -0.0157513)
(0.0134115 -0.101199 -0.0343484)
(-0.0668025 -0.105641 -0.0433053)
(-0.105323 -0.0687749 -0.0185384)
(-0.119872 -0.0477305 -0.00745189)
(-0.11652 -0.0329837 -0.0192932)
(-0.104672 -0.00286772 0.0145748)
(-0.0993697 -0.0160664 0.0545626)
(0.0211514 0.0141008 0.00386498)
(0.0300698 0.0305744 0.00988157)
(0.0227428 0.0194955 0.00564988)
(0.0248544 0.0218492 0.00589674)
(0.0228252 0.00802876 0.00252989)
(0.0200769 0.00628495 0.00215453)
(0.00589633 -0.00365854 -0.00249751)
(-0.00322873 0.000824214 -0.00116066)
(-0.00366586 -0.00204338 0.00147817)
(-0.00514427 0.000433706 0.00238768)
(-0.00568322 -0.000590564 0.00256263)
(-0.00637576 0.000249444 0.00337009)
(-0.0066069 -0.000184797 0.00412818)
(-0.00553055 0.000100079 0.00529437)
(-0.00463575 -0.000120606 0.00618272)
(-0.00418373 3.05681e-05 0.0070159)
(-0.00419566 7.36824e-05 0.00753347)
(-0.00446894 0.000293936 0.00781355)
(-0.00473984 0.000501939 0.00790105)
(-0.00493177 0.000763255 0.00786657)
(-0.00506052 0.00101511 0.0077224)
(-0.00515033 0.00121446 0.00749622)
(-0.00521706 0.00134577 0.00723708)
(-0.00526491 0.00142428 0.00697725)
(-0.00531027 0.00145342 0.00673215)
(-0.00534078 0.00144566 0.00651655)
(-0.00531354 0.00141926 0.00635654)
(-0.00524415 0.00137547 0.00624174)
(-0.00518642 0.00131771 0.00617102)
(-0.00518363 0.00126427 0.00613781)
(-0.00525343 0.00127166 0.00611772)
(-0.00532307 0.00136481 0.00608137)
(-0.00537179 0.00150128 0.00600337)
(-0.00539535 0.0016537 0.00587483)
(-0.00539067 0.00176782 0.00568675)
(-0.00536371 0.00180519 0.00545742)
(-0.00527796 0.00174038 0.00522566)
(-0.00503822 0.00149259 0.00508552)
(-0.00435072 0.000989815 0.00526499)
(-0.00283641 0.000284895 0.00609727)
(-0.000557599 -0.000572953 0.00770013)
(0.00140852 -0.00104811 0.00974761)
(0.0025178 -0.000923898 0.0109342)
(0.00197067 -0.00081275 0.0107023)
(-8.03605e-05 -2.61136e-05 0.00920859)
(-0.00302388 0.000627787 0.00564959)
(-0.00477766 0.00301997 -0.000525134)
(-0.00175204 0.00403395 -0.0011409)
(0.00487445 0.00237826 -0.00323899)
(0.0119183 0.000266677 0.00259948)
(0.0119348 -0.00854925 0.0204835)
(0.0123192 -0.0283793 0.0465175)
(0.0244177 -0.0266949 0.0553649)
(0.0342261 -0.0334462 0.0420671)
(0.061484 0.0294082 0.0157658)
(0.065752 0.0418532 0.0378168)
(0.0838252 0.12706 0.0522368)
(0.0882399 0.0160953 0.0867063)
(0.0515831 0.395915 0.137993)
(0.0156823 -0.364547 0.0290778)
(0.0004981 -0.0554176 0.055014)
(-0.0359099 0.152295 -0.0081435)
(-0.0467745 0.138659 -0.00481262)
(-0.0447674 0.178891 -0.00639902)
(-0.0296548 0.183252 0.000454755)
(-0.0185283 0.179121 0.006056)
(-0.0044124 0.173442 0.00681007)
(0.00962392 0.157689 0.00803355)
(0.0237074 0.140038 0.0125112)
(0.0328255 0.1138 0.0121123)
(0.0415583 0.0887305 0.0161752)
(0.0469977 0.0606894 0.0165956)
(0.0478526 0.0391833 0.0118457)
(0.0476535 0.0291293 0.000475632)
(0.0394295 0.0263841 -0.00937218)
(0.0304519 0.0288299 -0.0145523)
(0.0362293 0.0536777 -0.0130846)
(0.0575253 0.0795851 -0.0216499)
(0.0777361 0.119439 -0.0170966)
(0.0938153 0.132679 -0.000571836)
(0.0883987 0.134817 0.0289552)
(0.0849455 0.117142 0.0432457)
(0.0945149 0.109388 0.05098)
(0.112459 0.0987181 0.0498603)
(0.117835 0.085212 0.0424627)
(0.107628 0.0624599 0.0221486)
(0.0908057 0.0421004 0.00549661)
(0.087419 0.0185777 0.00894668)
(0.0786128 -0.0230895 -0.00787222)
(0.0505271 -0.0348436 -0.0198661)
(-0.0503674 -0.0674085 -0.0356082)
(-0.103103 -0.0387903 -0.0255714)
(-0.126476 -0.015427 -0.0154068)
(-0.120654 -0.00556811 -0.0163547)
(-0.104064 0.0236171 0.0171807)
(-0.1162 -0.00940021 0.0416104)
(0.0144371 0.00827337 0.000432079)
(0.0269176 0.0310655 0.00944627)
(0.0207276 0.0220622 0.00342514)
(0.0243815 0.0274029 0.00360956)
(0.0238817 0.0124925 0.00184985)
(0.0216251 0.00890001 0.00215851)
(0.0078684 -0.00359819 -0.00535779)
(-0.00264552 0.000826944 -0.00564754)
(-0.00628661 -0.00190229 -0.00229175)
(-0.00784154 0.000832403 -0.000666292)
(-0.0080387 -0.0004931 -0.000473613)
(-0.00841841 0.000104367 0.000399497)
(-0.00863184 -0.000925476 0.00122312)
(-0.00818391 -0.000874465 0.00229658)
(-0.00795782 -0.0010526 0.00313022)
(-0.00804281 -0.000664943 0.00392145)
(-0.00835897 -0.000370224 0.00456551)
(-0.00877063 6.23873e-05 0.00502254)
(-0.00914883 0.000411878 0.00528738)
(-0.00944242 0.000778126 0.00540725)
(-0.00955179 0.00110511 0.00539219)
(-0.00950028 0.00137545 0.00528511)
(-0.00940853 0.00158379 0.00513183)
(-0.00928825 0.0017247 0.00496816)
(-0.00916001 0.00180231 0.00480736)
(-0.00901949 0.00182664 0.00465798)
(-0.0088442 0.00182055 0.00453713)
(-0.00864826 0.00180291 0.00445084)
(-0.00847469 0.00178145 0.00439951)
(-0.00840581 0.00176113 0.00437922)
(-0.00846395 0.00178263 0.0043719)
(-0.00851717 0.00186043 0.00434816)
(-0.008531 0.00196563 0.00428627)
(-0.00847781 0.00207369 0.00417107)
(-0.00833622 0.00212354 0.00399295)
(-0.00814241 0.00206631 0.00376629)
(-0.00784273 0.00185555 0.00353097)
(-0.00735459 0.00139241 0.00338143)
(-0.00661035 0.000593184 0.00347211)
(-0.00536303 -0.00033465 0.00407587)
(-0.00393508 -0.00104963 0.0054321)
(-0.00318423 -0.00111429 0.00721982)
(-0.00284021 -0.000908503 0.00805282)
(-0.00332299 -0.000875444 0.00759551)
(-0.0046978 -0.000343595 0.00594685)
(-0.00722246 0.000930729 0.0024182)
(-0.00726461 0.00106784 -0.00228373)
(-0.00406209 0.00154546 -0.00159573)
(0.00295398 -0.00460708 -0.000152191)
(0.014667 -0.0057688 0.00263258)
(0.00979361 -0.0189656 0.0198818)
(0.00271913 -0.0349513 0.053148)
(0.00502012 -0.0331939 0.061252)
(-0.00553607 -0.034439 0.0411492)
(-0.0154443 0.0301682 0.0147942)
(0.0130103 0.0556105 0.0362435)
(-0.00548821 0.112077 0.0620719)
(0.0671141 0.0446579 0.0867966)
(0.158588 0.440796 0.0797958)
(0.0118396 -0.356802 0.0314353)
(-0.0936631 -0.0479659 0.0329262)
(-0.0609854 0.156841 -0.0151216)
(-0.0720419 0.121829 -0.00491198)
(-0.0472095 0.149635 -0.00340586)
(-0.0256014 0.12671 0.00616989)
(0.000621388 0.0984252 0.00741539)
(0.00563674 0.0802984 0.0141028)
(0.0210793 0.0593416 0.0141462)
(0.0264164 0.0499152 0.0193443)
(0.0361117 0.0357979 0.0194596)
(0.0461837 0.0324597 0.0263158)
(0.0612709 0.0253337 0.0383987)