/*--------------------------------*- C++ -*----------------------------------*\
| =========                 |                                                 |
| \\      /  F ield         | OpenFOAM: The Open Source CFD Toolbox           |
|  \\    /   O peration     | Version:  2.3.0                                 |
|   \\  /    A nd           | Web:      www.OpenFOAM.org                      |
|    \\/     M anipulation  |                                                 |
\*---------------------------------------------------------------------------*/
FoamFile
{
    version     2.0;
    format      ascii;
    class       volVectorField;
    location    "59";
    object      U.waterMean;
}
// * * * * * * * * * * * * * * * * * * * * * * * * * * * * * * * * * * * * * //

dimensions      [0 1 -1 0 0 0 0];

internalField   nonuniform List<vector> 
6144
(
(0.0099722 0.0197372 -0.000583006)
(0.0102607 -0.00128262 -0.00157126)
(0.00455956 -0.00281458 -0.00256027)
(0.00408245 -0.00333114 -0.0024413)
(0.00255117 -0.00303034 -0.00192254)
(0.00299952 -0.00121977 -0.00165808)
(0.00274331 -0.0013845 -0.00130916)
(0.00269307 -0.000398585 -0.00104305)
(0.00231143 -0.000327789 -0.000895004)
(0.00202801 0.000890831 -0.000543747)
(0.0017954 0.00180925 -0.000204647)
(0.00184032 0.00261221 0.000257607)
(0.00196497 0.0026411 0.000485879)
(0.0020995 0.00225189 0.000738455)
(0.00216468 0.00155835 0.000689585)
(0.00224212 0.000925419 0.000591357)
(0.00229191 0.000294859 0.000386335)
(0.0023457 -0.000169932 0.000201033)
(0.00238976 -0.000549116 5.36646e-06)
(0.00242343 -0.000777349 -0.000151471)
(0.00244398 -0.000914918 -0.000279353)
(0.00245736 -0.000948746 -0.000368333)
(0.00245797 -0.000933355 -0.000409573)
(0.00244676 -0.000881028 -0.00040713)
(0.00242409 -0.000815705 -0.00036864)
(0.00239309 -0.000746714 -0.000299927)
(0.00235822 -0.000686245 -0.000212062)
(0.00232302 -0.000645341 -0.000117663)
(0.00228605 -0.000624803 -2.10532e-05)
(0.00224702 -0.000630351 7.11101e-05)
(0.00220724 -0.000633698 0.000161555)
(0.00216307 -0.000679769 0.00025733)
(0.00211887 -0.000692611 0.000365096)
(0.00206831 -0.000816856 0.000491991)
(0.00202426 -0.000871847 0.000642646)
(0.00197761 -0.00118188 0.00080674)
(0.001949 -0.00135238 0.000962239)
(0.00192208 -0.00192691 0.00106236)
(0.00192172 -0.00212997 0.00106004)
(0.0019272 -0.00277601 0.000885719)
(0.001947 -0.00259359 0.00051008)
(0.00198149 -0.00271639 -7.10109e-05)
(0.00209386 -0.00149057 -0.000647528)
(0.00246803 -0.00104014 -0.00107547)
(0.00311568 0.000118415 -0.00148682)
(0.00384302 -0.000503132 -0.00204916)
(0.00428679 0.000212685 -0.00277521)
(0.00376415 0.000373273 -0.00387845)
(0.00309809 0.00576812 -0.00560082)
(0.0060628 0.00985306 -0.00752199)
(0.0173511 0.0110651 -0.0100276)
(0.0262192 -0.00927312 -0.0102811)
(0.03029 -0.0207 -0.0106806)
(0.0284834 -0.0570743 -0.00973728)
(0.0243364 -0.0520021 -0.0103771)
(0.0203116 -0.0926163 -0.00676338)
(0.00228602 -0.0454698 -0.0124551)
(0.0049497 -0.0994044 0.0240511)
(-0.0358312 -0.00676694 -0.0461169)
(0.023816 -0.0317839 0.0379566)
(0.134784 -0.293888 0.0625294)
(0.091922 -0.120025 0.0277126)
(0.060304 -0.18806 0.00711753)
(0.0509497 -0.200107 0.00423238)
(0.0427727 -0.200357 0.00489163)
(0.0356022 -0.193848 0.00484955)
(0.0295009 -0.193232 0.00413559)
(0.0249542 -0.187607 0.00375223)
(0.0217918 -0.184403 0.00389794)
(0.0190673 -0.177364 0.00426747)
(0.01652 -0.172096 0.00469506)
(0.0139456 -0.163692 0.00519576)
(0.0116465 -0.155441 0.00574234)
(0.00885102 -0.145796 0.00623494)
(0.0054783 -0.135327 0.00633223)
(0.00294086 -0.122175 0.00498632)
(0.00199917 -0.108671 0.00270075)
(0.00117972 -0.0954468 0.00142264)
(0.000396216 -0.0825846 0.00140494)
(0.00170915 -0.0703488 0.00198953)
(0.00379764 -0.0607658 0.00242326)
(0.00460453 -0.0535561 0.00300639)
(0.00471715 -0.048798 0.00383405)
(0.00359569 -0.0452602 0.00404395)
(0.00297108 -0.0410068 0.00366683)
(0.00317115 -0.0359625 0.00308879)
(0.00350266 -0.0308217 0.00286825)
(0.00327732 -0.0251939 0.00225492)
(0.00242893 -0.0195134 0.0013316)
(0.000974085 -0.0116564 0.000763978)
(0.000896791 -0.00365512 0.00131201)
(0.00140878 0.00376556 0.00220583)
(0.00116806 0.00998833 0.0032545)
(0.0005859 0.014878 0.0065356)
(0.00122018 0.0167376 0.0110071)
(0.00429624 0.00920281 0.0176609)
(0.0193655 0.0207474 0.00302512)
(0.0206158 0.00677325 0.00242877)
(0.0105891 0.00322015 -0.000734089)
(0.00995734 0.00194411 7.26456e-05)
(0.00564541 -0.00106448 0.000999487)
(0.00571766 -1.5792e-05 0.00151695)
(0.00457729 -0.000909837 0.00209699)
(0.0043578 0.000491187 0.0021722)
(0.0035921 0.00067201 0.00217212)
(0.00313187 0.00223339 0.00223261)
(0.00292198 0.00305791 0.00240337)
(0.00325387 0.00374839 0.00290376)
(0.00362214 0.00358612 0.00317862)
(0.00401818 0.00318864 0.00338258)
(0.00415652 0.00241662 0.00337942)
(0.00429964 0.00173005 0.00335108)
(0.00434038 0.00100045 0.0032651)
(0.00439729 0.000455167 0.00319705)
(0.00442907 -1.88895e-05 0.00311746)
(0.00444897 -0.000332364 0.00306598)
(0.00444792 -0.00055051 0.00302595)
(0.00444147 -0.000649243 0.0029951)
(0.00441564 -0.000689527 0.00299564)
(0.00437041 -0.000679497 0.0030291)
(0.00430633 -0.000645988 0.00308805)
(0.00423009 -0.000597626 0.003166)
(0.00415185 -0.000548353 0.00324754)
(0.00408035 -0.000511161 0.00331944)
(0.00400934 -0.000491631 0.00339209)
(0.00393576 -0.000497712 0.00345968)
(0.00386298 -0.000506578 0.00352528)
(0.00378438 -0.00056879 0.00359299)
(0.00371512 -0.000602378 0.00366527)
(0.00364316 -0.000765455 0.00374256)
(0.00360615 -0.000842198 0.00382871)
(0.00357406 -0.00118923 0.00391553)
(0.00359496 -0.00133172 0.00399895)
(0.00359778 -0.00190543 0.00405556)
(0.00363041 -0.00200474 0.00406746)
(0.00360281 -0.00262733 0.00396452)
(0.00355862 -0.00229779 0.00368857)
(0.0035214 -0.00256058 0.00319942)
(0.00371089 -0.00152135 0.00258144)
(0.00432926 -0.00170518 0.00205063)
(0.00545159 -0.000554388 0.0014908)
(0.00647038 -0.000790477 0.000681521)
(0.00634255 0.00148834 -0.000498323)
(0.00541299 0.00312158 -0.00200268)
(0.00669354 0.00796193 -0.00354146)
(0.0156185 0.00585771 -0.00445333)
(0.0370556 0.00015447 -0.00569179)
(0.0510802 -0.0173034 -0.00539405)
(0.0579432 -0.0221905 -0.00349945)
(0.0534382 -0.0510834 -0.00088835)
(0.0416938 -0.0404332 0.00408159)
(0.0403848 -0.0969861 0.0114361)
(0.000196515 -0.0464639 0.0111577)
(-0.000553019 -0.160282 0.0444342)
(-0.0908921 0.0245208 -0.0726394)
(0.00551713 -0.0836158 0.0116377)
(0.173211 -0.261926 0.101949)
(0.0874593 0.00406077 0.0437528)
(0.0271469 -0.114937 0.0093601)
(0.0269375 -0.0593884 0.015769)
(0.0139646 -0.0746764 0.0169329)
(0.00604029 -0.0637777 0.0148282)
(0.00273005 -0.0635144 0.0122293)
(0.00173567 -0.0557518 0.0115316)
(0.00229289 -0.0525117 0.0118539)
(0.00160718 -0.0465047 0.0110728)
(-0.000471225 -0.0453818 0.0119195)
(-0.00237919 -0.0445226 0.0127125)
(-0.00313536 -0.046433 0.013026)
(-0.00507503 -0.047947 0.012434)
(-0.00797467 -0.0493082 0.0110805)
(-0.00922666 -0.0476028 0.00952901)
(-0.00891771 -0.04561 0.00799687)
(-0.0087285 -0.0425632 0.00700942)
(-0.00799045 -0.0394526 0.0065783)
(-0.00571402 -0.0366911 0.00675988)
(-0.00342128 -0.0338541 0.00692181)
(-0.00200072 -0.0312654 0.00739439)
(-0.000929067 -0.0307505 0.00820187)
(-0.00100611 -0.0318104 0.00821102)
(-0.00140117 -0.0321333 0.00716252)
(-0.00104872 -0.0316625 0.00619884)
(-0.00087326 -0.0293609 0.00487646)
(-0.00145155 -0.0255633 0.00354036)
(-0.00241197 -0.0211613 0.00238454)
(-0.00358517 -0.0157032 0.0015788)
(-0.00393352 -0.0099324 0.00237275)
(-0.00344137 -0.00433136 0.00318823)
(-0.00423686 0.00298545 0.00446445)
(-0.00508981 0.00735438 0.00898527)
(-0.00491652 0.0103299 0.0148874)
(-0.00173079 0.00378193 0.0225665)
(0.0226399 0.0207089 0.00414322)
(0.0246903 0.0116269 0.00403913)
(0.0148343 0.0068807 0.00118261)
(0.013566 0.00619666 0.00216382)
(0.00696831 0.00151242 0.00293789)
(0.00602028 0.00206774 0.00314176)
(0.00358926 0.00026656 0.0037516)
(0.00316861 0.00157469 0.00366583)
(0.00219044 0.00154774 0.00359302)
(0.00200621 0.00275858 0.00365427)
(0.00187857 0.00298349 0.00372344)
(0.00251731 0.00351771 0.00402089)
(0.00296739 0.00329532 0.00421823)
(0.00346848 0.00315747 0.00438328)
(0.00365359 0.002617 0.00437708)
(0.00384319 0.00215636 0.00436568)
(0.00386959 0.00156738 0.00431732)
(0.00391827 0.00111525 0.00429315)
(0.0039065 0.00067384 0.00427123)
(0.00388808 0.000353185 0.00427403)
(0.00383348 8.16307e-05 0.00428914)
(0.00376366 -9.96136e-05 0.00432364)
(0.00368259 -0.000227106 0.00436591)
(0.00359425 -0.000298152 0.00441428)
(0.00349686 -0.000336514 0.00446563)
(0.00339616 -0.000351108 0.00451871)
(0.00329494 -0.000356028 0.0045734)
(0.00319433 -0.000358158 0.00463159)
(0.00309546 -0.000361505 0.00469231)
(0.00299184 -0.000381431 0.00475482)
(0.00288886 -0.00040248 0.00481835)
(0.00278344 -0.000472584 0.00488244)
(0.0026942 -0.000513951 0.00494715)
(0.00260438 -0.000663815 0.00500977)
(0.00256343 -0.00070257 0.00507077)
(0.00252871 -0.000946345 0.00512266)
(0.00256593 -0.000922293 0.0051646)
(0.00258234 -0.00123552 0.00517983)
(0.0026532 -0.00101967 0.00515929)
(0.00264466 -0.00129338 0.0050643)
(0.00270171 -0.000710736 0.00485791)
(0.00276375 -0.00102806 0.00457484)
(0.00305341 -0.000334551 0.00432647)
(0.00370777 -0.0010147 0.00411786)
(0.00471218 0.000159387 0.00359416)
(0.00565477 0.000109202 0.00296795)
(0.00575689 0.0024845 0.00202281)
(0.006355 0.00213752 0.000698338)
(0.0110296 0.00494196 -0.000553577)
(0.0259059 -0.00166622 -0.000291537)
(0.0515597 -0.00446227 -0.00115919)
(0.0686464 -0.014087 1.92096e-05)
(0.0730376 -0.0093902 0.00299393)
(0.067822 -0.0283633 0.00600099)
(0.0590638 -0.0147335 0.014528)
(0.0548207 -0.0795855 0.0224959)
(0.000833383 -0.0160818 0.0315762)
(0.0139966 -0.183398 0.0617252)
(-0.110468 0.0675646 -0.0598632)
(0.0300769 -0.113265 -0.0189523)
(0.197878 -0.239514 0.105199)
(0.108415 0.0518669 0.0489129)
(0.0748162 -0.0896978 0.024212)
(0.0480321 -0.0075552 0.0163642)
(0.0311808 -0.034751 0.0118474)
(0.0205611 -0.0166992 0.0120491)
(0.0175859 -0.0191401 0.0131491)
(0.0134466 -0.0121973 0.0113935)
(0.011797 -0.00843093 0.00983813)
(0.0115955 -0.00260127 0.010478)
(0.0101117 -0.00272834 0.0131051)
(0.00677839 -0.00341476 0.0153729)
(0.00397665 -0.00696011 0.0160547)
(0.000884959 -0.00840347 0.0150173)
(-0.00232337 -0.0105271 0.0127956)
(-0.0038272 -0.0104935 0.0102241)
(-0.00387347 -0.00946928 0.00877814)
(-0.00408612 -0.00820674 0.00797517)
(-0.00470005 -0.00847062 0.00852641)
(-0.00378856 -0.00947813 0.00903393)
(-0.00192889 -0.0100311 0.00937435)
(-0.000142069 -0.0111452 0.010143)
(0.00102334 -0.0132489 0.0112616)
(-0.000406417 -0.0155635 0.0106337)
(-0.00158396 -0.0174802 0.00983869)
(-0.00210614 -0.018749 0.00865808)
(-0.00231052 -0.0185594 0.00666846)
(-0.00280931 -0.0177795 0.00442294)
(-0.00339362 -0.0161987 0.00190455)
(-0.00451679 -0.0120722 0.000528338)
(-0.00549558 -0.00803719 0.00293406)
(-0.00673347 -0.00421478 0.00551021)
(-0.00774443 0.000425791 0.00746869)
(-0.00907973 0.00293797 0.010981)
(-0.0109937 0.00640755 0.0168765)
(-0.0107237 0.000723751 0.0241982)
(0.0237826 0.0207887 0.00436766)
(0.0272694 0.0149931 0.00453098)
(0.0169572 0.00871581 0.000943978)
(0.0166082 0.00946323 0.00136097)
(0.00885239 0.00348564 0.00198098)
(0.00719862 0.00411692 0.00250015)
(0.00310307 0.000812907 0.00354832)
(0.00220373 0.00185734 0.00356833)
(0.000869343 0.00110136 0.00366429)
(0.000904329 0.00225941 0.00377519)
(0.000796258 0.00212302 0.00392234)
(0.00141509 0.00273724 0.00431764)
(0.00178172 0.00272879 0.00452873)
(0.00230609 0.00289634 0.00469492)
(0.00252589 0.00256252 0.00467458)
(0.00273759 0.00229088 0.00467895)
(0.00275424 0.0018032 0.00465218)
(0.00278778 0.00143254 0.00465799)
(0.00274724 0.0010297 0.00465384)
(0.00270635 0.000724336 0.00466395)
(0.0026239 0.000440408 0.00467625)
(0.00253011 0.00022602 0.0047007)
(0.00241962 4.87884e-05 0.00473129)
(0.00230382 -7.55195e-05 0.00476829)
(0.00218569 -0.00016142 0.00480933)
(0.00207046 -0.000213135 0.0048541)
(0.00196191 -0.000243213 0.00490024)
(0.00186187 -0.000262079 0.00494753)
(0.00176829 -0.00027719 0.00499715)
(0.00167661 -0.000301624 0.0050494)
(0.0015918 -0.00032207 0.00510365)
(0.00151011 -0.000376036 0.00515677)
(0.00144838 -0.000392298 0.00520499)
(0.00138816 -0.000490514 0.00524297)
(0.00137784 -0.000462402 0.00526685)
(0.0013629 -0.00059863 0.00527038)
(0.00141877 -0.000440878 0.00525257)
(0.00142698 -0.00056919 0.00520291)
(0.00149191 -0.000140626 0.0051177)
(0.00149257 -0.000196845 0.00497414)
(0.00168041 0.000511683 0.00476265)
(0.00193853 0.000157708 0.00454168)
(0.00237131 0.000631575 0.00436396)
(0.00278041 -0.000263402 0.00422216)
(0.00345499 0.000473957 0.00399828)
(0.00426293 -0.000167119 0.00386239)
(0.00507138 0.00149465 0.0035174)
(0.00687007 -0.000878412 0.00253158)
(0.0142116 -0.000298462 0.00171307)
(0.0299432 -0.00805916 0.00190153)
(0.0548001 -0.00556503 0.0019367)
(0.0712347 -0.0034653 0.00449314)
(0.0773621 0.0105762 0.00829288)
(0.0742383 0.00297942 0.0118898)
(0.0658145 0.0240055 0.023561)
(0.0605486 -0.0348943 0.0386506)
(0.0175165 0.0510905 0.070494)
(0.0325815 -0.195036 0.0977539)
(-0.145359 0.190282 -0.0423132)
(0.0310335 -0.205861 0.00807463)
(0.183369 -0.203509 0.113897)
(0.0812762 0.0809219 0.0359826)
(0.053093 -0.0463552 0.02417)
(0.01693 0.0423059 0.00375945)
(0.0116358 0.0215021 0.00707112)
(0.00172123 0.0418061 0.00822821)
(0.000248372 0.0401433 0.00991347)
(-0.000637771 0.0465533 0.0102836)
(0.000541741 0.0449525 0.00963761)
(0.000950434 0.0476652 0.00926096)
(0.000442278 0.0457718 0.0102382)
(-0.00100247 0.0436521 0.0102816)
(-0.00310652 0.03979 0.0103473)
(-0.00549381 0.0372256 0.00988832)
(-0.00715516 0.033444 0.00849786)
(-0.0077138 0.0313235 0.0078722)
(-0.00763381 0.0282943 0.00771377)
(-0.00715732 0.0266331 0.00758285)
(-0.00667911 0.0234715 0.00900262)
(-0.00591796 0.0215559 0.0102937)
(-0.00499259 0.0193888 0.0119657)
(-0.0050181 0.0175735 0.0116465)
(-0.00508171 0.0156115 0.0120803)
(-0.0057212 0.0117251 0.0114686)
(-0.00707877 0.00804087 0.0107862)
(-0.00778405 0.00457812 0.00973163)
(-0.00745397 0.00181025 0.00645987)
(-0.00673897 0.00100453 0.00414314)
(-0.00774299 -0.000486344 0.00189757)
(-0.00869453 0.00116693 0.000470698)
(-0.00977481 0.00265942 0.00401085)
(-0.0113272 0.0026307 0.00687203)
(-0.012905 0.00372093 0.00889957)
(-0.0155227 0.00329334 0.0126094)
(-0.0201378 0.005455 0.0180797)
(-0.0220044 -0.000346657 0.024999)
(0.0237941 0.020952 0.00447439)
(0.0290822 0.0181115 0.00514404)
(0.018637 0.0101191 0.00087536)
(0.0197882 0.0118725 0.000932736)
(0.0112516 0.00444804 0.00020475)
(0.00919516 0.00575416 0.000814385)
(0.0035249 0.00104226 0.00222833)
(0.00192842 0.00232545 0.00274822)
(-0.000304193 0.00033838 0.00311649)
(-0.00047937 0.00140287 0.00347051)
(-0.00085914 0.000980548 0.00370672)
(-0.000509809 0.00183729 0.00424816)
(-0.000325839 0.0020618 0.0044627)
(0.000240767 0.00252995 0.00465678)
(0.000503112 0.00236829 0.00461006)
(0.000717565 0.00221151 0.0046344)
(0.000681803 0.00178773 0.00462365)
(0.000624887 0.0014885 0.00465479)
(0.000498087 0.00113981 0.00465621)
(0.00039303 0.000875443 0.00465724)
(0.000266285 0.000603621 0.00464408)
(0.000146973 0.000378783 0.00463691)
(2.51495e-05 0.000177039 0.00463376)
(-9.56669e-05 2.24019e-05 0.00463857)
(-0.000217686 -9.65304e-05 0.00464882)
(-0.000331267 -0.000179695 0.00466495)
(-0.000431549 -0.000237425 0.00468578)
(-0.000516826 -0.000278741 0.00470991)
(-0.000592368 -0.000308397 0.00473472)
(-0.000666146 -0.000334069 0.00476052)
(-0.000736302 -0.000345468 0.00478647)
(-0.000804727 -0.000372771 0.00480891)
(-0.000855467 -0.000351225 0.00482437)
(-0.000905315 -0.000381104 0.00482468)
(-0.00090382 -0.000268546 0.0048055)
(-0.00091009 -0.000276488 0.00475785)
(-0.000850252 2.68922e-05 0.00468046)
(-0.000852759 8.92832e-05 0.0045635)
(-0.000777696 0.000698879 0.00441967)
(-0.000712491 0.000797228 0.00425872)
(-0.00032051 0.00153217 0.00412771)
(0.000142786 0.00109239 0.00403004)
(0.000762427 0.00140394 0.00389302)
(0.00130079 0.000205259 0.00371186)
(0.00207602 0.000512305 0.00372237)
(0.00276576 -0.000751846 0.00389249)
(0.00400409 -6.94052e-06 0.00430998)
(0.00725287 -0.00367707 0.00399136)
(0.0164793 -0.00537799 0.00401588)
(0.0311306 -0.0100251 0.00545009)
(0.0494883 -0.000717772 0.00724248)
(0.0638813 0.0118904 0.0119553)
(0.0694129 0.0371811 0.0149717)
(0.0673279 0.0429714 0.0181922)
(0.0609413 0.0728287 0.0331178)
(0.0527909 0.0308863 0.0490242)
(0.021594 0.120419 0.0819582)
(0.0297608 -0.117897 0.102127)
(-0.11743 0.295197 -0.0138777)
(0.017677 -0.264939 0.0143097)
(0.159679 -0.167062 0.117227)
(0.0635656 0.0940099 0.0301812)
(0.0534968 -0.00583133 0.0287007)
(0.0183698 0.0739228 0.00364132)
(0.0167758 0.0618858 0.00840863)
(0.00664895 0.079647 0.00841879)
(0.00564795 0.0796219 0.00940944)
(0.00325161 0.0862819 0.00895763)
(0.00304062 0.0860859 0.00910206)
(0.00249039 0.0887672 0.00977698)
(0.00264648 0.0865876 0.0113326)
(0.00173328 0.0854994 0.0115793)
(0.00114215 0.0829703 0.0115022)
(0.000771939 0.0799944 0.0110166)
(0.000865756 0.0762072 0.0108913)
(0.000445966 0.0725849 0.0101595)
(0.00040093 0.06988 0.00939298)
(-0.000642413 0.0676171 0.0089295)
(-0.00181845 0.0655448 0.0107361)
(-0.00268939 0.063171 0.0124505)
(-0.00352291 0.0598527 0.0129893)
(-0.0045588 0.0542931 0.0142002)
(-0.00471503 0.0473137 0.0145333)
(-0.00517749 0.0398973 0.0124073)
(-0.00557101 0.0327146 0.00921005)
(-0.00460293 0.0273152 0.00513067)
(-0.00333357 0.0235297 0.00227931)
(-0.00279667 0.0213304 0.00112547)
(-0.00408437 0.0195691 0.000534014)
(-0.00536717 0.0181099 0.00326907)
(-0.00877934 0.0154962 0.00678056)
(-0.0117121 0.0122714 0.00880323)
(-0.0144847 0.0108789 0.0118)
(-0.0193084 0.00632056 0.0147983)
(-0.0264404 0.00707518 0.0182993)
(-0.0334282 -0.000772081 0.0237128)
(0.0224572 0.0205692 0.00494675)
(0.0303878 0.0215881 0.00643395)
(0.019374 0.0113197 0.00182758)
(0.0220079 0.0139784 0.00229904)
(0.0139599 0.00412241 -0.000247167)
(0.0116218 0.00639332 -0.000334281)
(0.00458505 0.000368085 0.000765142)
(0.00212799 0.00265423 0.00155481)
(-0.000534632 -0.00029105 0.00222388)
(-0.00145563 0.000704346 0.00282538)
(-0.00210411 -0.000256378 0.00310897)
(-0.00195173 0.000817435 0.00380812)
(-0.00171656 0.00127439 0.00410684)
(-0.000962005 0.00208786 0.00448721)
(-0.000484823 0.00198795 0.00459297)
(-0.000189556 0.00189645 0.0047508)
(-0.000241423 0.001493 0.00479334)
(-0.000368003 0.00127287 0.00484092)
(-0.00055443 0.00102119 0.00482203)
(-0.000698658 0.000868482 0.00478577)
(-0.000850253 0.000691938 0.00471492)
(-0.000986725 0.000541632 0.00463719)
(-0.00112862 0.000387601 0.00455796)
(-0.00125973 0.000257536 0.00448767)
(-0.00137499 0.000149445 0.00442647)
(-0.00146982 7.15603e-05 0.00437435)
(-0.00154286 1.4265e-05 0.00433112)
(-0.00159884 -2.91805e-05 0.00429733)
(-0.00164839 -6.23946e-05 0.00427295)
(-0.00169383 -8.7289e-05 0.00426017)
(-0.00173369 -8.84246e-05 0.00425692)
(-0.00176926 -8.44626e-05 0.00425497)
(-0.00179067 -1.6841e-05 0.00424723)
(-0.00181554 3.09668e-05 0.00421965)
(-0.00180686 0.00023031 0.00416461)
(-0.00182425 0.00033758 0.00407179)
(-0.00179668 0.000734584 0.00394365)
(-0.0018355 0.00088237 0.00378146)
(-0.00177074 0.00147656 0.00362337)
(-0.00163632 0.00148991 0.00353086)
(-0.00111482 0.00207304 0.00357889)
(-0.000514884 0.00159592 0.00371058)
(0.000240325 0.00186299 0.00373219)
(0.000830887 0.000588122 0.00369934)
(0.00156125 0.000771128 0.00401353)
(0.00209589 -0.000831936 0.00446507)
(0.00383047 -0.00141541 0.00482253)
(0.00870995 -0.00564579 0.00460914)
(0.0161326 -0.00762258 0.00566057)
(0.0254705 -0.00933855 0.0099997)
(0.0358577 0.00382375 0.0145849)
(0.0433969 0.02497 0.0198359)
(0.0511094 0.0573124 0.0247746)
(0.0529326 0.0718222 0.031495)
(0.0511385 0.101998 0.0475956)
(0.0470067 0.0645229 0.0572242)
(0.0329153 0.142967 0.078169)
(0.0495968 -0.0921679 0.0817563)
(-0.0354051 0.339488 0.0170381)
(0.0199341 -0.303905 0.0227107)
(0.103944 -0.127067 0.112225)
(0.0288301 0.109776 0.0190896)
(0.0246561 0.0408422 0.0226772)
(-0.000519093 0.108218 0.00400599)
(-5.86357e-06 0.105952 0.0112349)
(-0.00448389 0.121235 0.0117791)
(-0.00261371 0.121858 0.0132591)
(-0.00151969 0.128076 0.0134704)
(0.000837215 0.127237 0.0141111)
(0.00254718 0.129116 0.0148866)
(0.00430818 0.126597 0.0151741)
(0.00496404 0.125833 0.0148392)
(0.00572828 0.122928 0.014245)
(0.00602939 0.121768 0.0136478)
(0.00583099 0.119685 0.0136807)
(0.00471967 0.117307 0.0135534)
(0.00382384 0.114936 0.0136766)
(0.00276681 0.112019 0.0146422)
(0.00126528 0.107382 0.0155964)
(-0.000232522 0.100597 0.0161729)
(-0.00152616 0.0927732 0.0166721)
(-0.00274889 0.0830418 0.0163072)
(-0.00226291 0.0734558 0.0140525)
(-0.00134308 0.0643717 0.00987001)
(-0.00088982 0.0572175 0.00484402)
(-0.000241826 0.0523515 0.000652627)
(-0.000268768 0.048745 -0.00140684)
(-0.00150473 0.0455469 -0.00121029)
(-0.0036767 0.0414057 0.00155697)
(-0.00701647 0.0355155 0.00602039)
(-0.0112912 0.0291034 0.00801799)
(-0.0153784 0.0237979 0.0105776)
(-0.0189465 0.0198412 0.0141978)
(-0.024396 0.0134628 0.0171544)
(-0.0325229 0.0115545 0.0202471)
(-0.0394201 0.000474978 0.0218896)
(0.0190829 0.0190346 0.00514488)
(0.0304896 0.0253794 0.0085475)
(0.0183907 0.0120065 0.00383357)
(0.0220172 0.0162133 0.00503629)
(0.0148771 0.00325492 0.0014943)
(0.0127659 0.00610385 0.000634583)
(0.00483755 -0.00105209 0.000694753)
(0.00201573 0.00255763 0.00105242)
(-0.00104427 -0.000675716 0.00163595)
(-0.00242364 0.000609132 0.00241981)
(-0.00376453 -0.000873633 0.00260923)
(-0.0044525 0.00023565 0.00337372)
(-0.00460952 0.000591663 0.00379375)
(-0.00362386 0.00148492 0.00456235)
(-0.00300686 0.00134975 0.00497842)
(-0.00272333 0.00137544 0.00533016)
(-0.00291677 0.00105562 0.00542458)
(-0.00324545 0.000967151 0.00544603)
(-0.00359467 0.00084118 0.00536351)
(-0.00382874 0.000831572 0.00525942)
(-0.00401056 0.00079286 0.00511523)
(-0.004134 0.000777386 0.00496738)
(-0.00423469 0.000736924 0.00482113)
(-0.00431897 0.000695984 0.00469366)
(-0.00440286 0.000655673 0.00459166)
(-0.00446009 0.000628367 0.00450803)
(-0.00448477 0.000602678 0.00444031)
(-0.00448234 0.000575706 0.0043971)
(-0.00446995 0.00054805 0.00437746)
(-0.00446451 0.000526249 0.00437845)
(-0.0044709 0.000534741 0.00439426)
(-0.00448365 0.000566763 0.00441131)
(-0.00449703 0.000676228 0.00441775)
(-0.00451783 0.000787085 0.00439715)
(-0.00450171 0.00103585 0.00434668)
(-0.00449573 0.00118228 0.00426014)
(-0.00442354 0.00155114 0.00414862)
(-0.00438388 0.00160434 0.00401508)
(-0.00421499 0.00197648 0.0039011)
(-0.00400501 0.00170894 0.0038534)
(-0.00350689 0.00201744 0.00393136)
(-0.00297939 0.00144977 0.00404087)
(-0.00212822 0.00185311 0.00407509)
(-0.00140227 0.00084097 0.00421749)
(-0.000659609 0.00097851 0.00463141)
(0.00031677 -0.000878438 0.00502472)
(0.00333284 -0.00209184 0.00508326)
(0.00834179 -0.00536469 0.00500617)
(0.0140765 -0.00578545 0.00662809)
(0.016545 -0.00299864 0.0132546)
(0.0140895 0.0146669 0.0215041)
(0.0172775 0.0372503 0.0265922)
(0.0239468 0.0724413 0.0323108)
(0.0291566 0.0940374 0.0403217)
(0.0371707 0.121065 0.052846)
(0.0439935 0.0869691 0.0591502)
(0.0501578 0.159792 0.0720931)
(0.047239 -0.0766006 0.0632626)
(0.00968015 0.339035 0.0460902)
(0.00829881 -0.321891 0.0285282)
(0.0433064 -0.0867104 0.0979373)
(0.00212401 0.124756 0.0188669)
(0.00275736 0.0834536 0.0189583)
(-0.0115471 0.143225 0.00512048)
(-0.00686316 0.140982 0.0145652)
(-0.00667938 0.153801 0.0142028)
(-0.00363747 0.153219 0.0147745)
(-0.00206606 0.159386 0.0147387)
(0.000322761 0.160755 0.0155669)
(0.00286153 0.163603 0.0162191)
(0.00571166 0.162244 0.0163449)
(0.00696035 0.163777 0.0160096)
(0.00822356 0.162953 0.0162804)
(0.00813725 0.162655 0.0163235)
(0.00812813 0.160926 0.0168863)
(0.00713706 0.157956 0.0171882)
(0.0063813 0.153493 0.017561)
(0.00543042 0.147495 0.0178405)
(0.00496392 0.140682 0.0177822)
(0.00457027 0.132131 0.0185185)
(0.00442154 0.122186 0.0186374)
(0.00462399 0.111805 0.016855)
(0.00624556 0.102636 0.01348)
(0.00766933 0.0952262 0.00857218)
(0.00864508 0.0899577 0.00334076)
(0.00868978 0.0851236 -0.00198418)
(0.00708821 0.0811516 -0.00402992)
(0.00509804 0.0754951 -0.00175779)
(0.00304623 0.0668789 0.00115512)
(-0.000849829 0.0570102 0.0032364)
(-0.00649579 0.0459126 0.00452116)
(-0.0135255 0.0364668 0.00665743)
(-0.0200414 0.0285925 0.00983929)
(-0.0274228 0.0192856 0.0120236)
(-0.0360488 0.0140405 0.0157971)
(-0.0478599 -3.71431e-05 0.0158698)
(0.0162164 0.0137798 0.0043113)
(0.0293738 0.0284306 0.00953504)
(0.0160416 0.012276 0.00456109)
(0.0209632 0.0193514 0.00595655)
(0.0147347 0.00363293 0.00260932)
(0.0123504 0.00621693 0.00169245)
(0.00358679 -0.0023352 0.00125182)
(0.000387359 0.00224094 0.00111142)
(-0.00172574 -0.00136474 0.00210768)
(-0.0032545 0.000860257 0.00280364)
(-0.00446237 -0.000952577 0.00306494)
(-0.00519353 3.43153e-05 0.00391972)
(-0.00516734 -0.000486204 0.00460637)
(-0.00401233 0.000114545 0.00564211)
(-0.00336465 -0.00011004 0.00637496)
(-0.00310707 0.00027736 0.00699297)
(-0.00329721 0.000332285 0.00728617)
(-0.0035863 0.000632281 0.00739677)
(-0.00388949 0.000760591 0.00734409)
(-0.00407941 0.000969045 0.00723373)
(-0.00423161 0.00109117 0.0070647)
(-0.00432774 0.0011987 0.00688565)
(-0.00440023 0.0012458 0.00670966)
(-0.00444956 0.00127103 0.0065544)
(-0.00448751 0.00126677 0.00642029)
(-0.00449983 0.00124937 0.00631281)
(-0.0044814 0.00122627 0.00623399)
(-0.00443755 0.00119942 0.00618208)
(-0.00438895 0.00116928 0.00615301)
(-0.00435558 0.00114868 0.00614354)
(-0.00434593 0.00116743 0.00614397)
(-0.00435248 0.00122471 0.00613955)
(-0.00436964 0.00136425 0.00611951)
(-0.00439089 0.00151015 0.00607378)
(-0.00437285 0.00176026 0.00600084)
(-0.00436064 0.00188094 0.0058985)
(-0.00426133 0.00214288 0.0057863)
(-0.00416124 0.00205197 0.00567206)
(-0.00389313 0.00220818 0.00559612)
(-0.00361223 0.00177203 0.0055853)
(-0.00316059 0.00189751 0.005677)
(-0.00278907 0.0013147 0.00579419)
(-0.00209704 0.00178036 0.00584865)
(-0.00134873 0.000861254 0.00602133)
(-0.000648983 0.00109747 0.00633)
(0.000500166 -0.00113592 0.0062345)
(0.00311893 -0.00110941 0.00531582)
(0.00643089 -0.00143629 0.00545351)
(0.0082088 0.00163383 0.0077627)
(0.00250862 0.00936495 0.017524)
(-0.00708015 0.0255838 0.0282891)
(-0.0116027 0.0446304 0.0326694)
(-0.0073398 0.0759253 0.0343694)
(0.00632253 0.101854 0.0379961)
(0.0247795 0.133861 0.0492939)
(0.0521276 0.118541 0.0571547)
(0.0767189 0.179631 0.0731264)
(0.0843023 -0.020407 0.068657)
(0.0898245 0.374068 0.0353616)
(-0.0035525 -0.343704 0.0282639)
(-0.0410171 -0.0523037 0.0676785)
(-0.0338686 0.157787 -0.00514187)
(-0.0318222 0.12366 0.00612605)
(-0.0250031 0.174658 -0.000612589)
(-0.0192052 0.167954 0.0085841)
(-0.0120079 0.175357 0.00769422)
(-0.00806771 0.173436 0.00789639)
(-0.00315313 0.177276 0.00767838)
(0.00102313 0.178471 0.00886294)
(0.00565731 0.180012 0.0100074)
(0.00850232 0.180025 0.0104201)
(0.00971972 0.181363 0.0108311)
(0.0108887 0.181422 0.0120268)
(0.0121387 0.182131 0.0134984)
(0.0132301 0.180877 0.0151652)
(0.0139769 0.177661 0.01665)
(0.0150182 0.173054 0.0180987)
(0.0159489 0.166672 0.0192297)
(0.0165702 0.159525 0.0201544)
(0.0169686 0.151198 0.0205729)
(0.0172529 0.143083 0.0206494)
(0.0177514 0.134014 0.0195324)
(0.0183292 0.126482 0.0171562)
(0.0183981 0.121229 0.0127222)
(0.017612 0.118069 0.00853859)
(0.0153153 0.116467 0.00520139)
(0.0128419 0.114474 0.00354368)
(0.011021 0.11142 0.00282107)
(0.00999677 0.107129 0.00358502)
(0.00750625 0.100756 0.00577934)
(0.00183798 0.0922978 0.00847148)
(-0.00595321 0.0816544 0.0120224)
(-0.0127897 0.069697 0.0151527)
(-0.0207914 0.053424 0.0157532)
(-0.0306281 0.0353835 0.0123644)
(-0.0406393 0.00734835 0.000316805)
(0.00713713 0.00824312 -0.00196067)
(0.0267169 0.0300454 0.00791478)
(0.0122444 0.0128306 0.0023125)
(0.0190583 0.0234444 0.00368299)
(0.0141854 0.00606801 0.00141741)
(0.0118564 0.00783761 0.000564943)
(0.00204482 -0.00273078 -0.00213573)
(-0.000931509 0.00246049 -0.00239545)
(-0.00411097 -0.00129637 -0.00121298)
(-0.0054514 0.00136001 -0.000404765)
(-0.00668353 -0.000857475 -3.94763e-05)
(-0.0073894 -0.000110123 0.000811935)
(-0.00779196 -0.0013385 0.00152834)
(-0.00723197 -0.000841049 0.00240618)
(-0.00717852 -0.000976332 0.00313055)
(-0.00725364 -0.000306565 0.003759)
(-0.00765524 -4.15628e-05 0.0042337)
(-0.00800746 0.000463973 0.0045346)
(-0.00836061 0.00071759 0.00466198)
(-0.00856521 0.00102784 0.00468717)
(-0.0086586 0.00122001 0.00462864)
(-0.00865481 0.00138891 0.00454157)
(-0.00862353 0.00148816 0.00444744)
(-0.00857244 0.00155173 0.00436302)
(-0.00851224 0.00157576 0.00428766)
(-0.0084363 0.00157695 0.00422455)
(-0.0083422 0.00156684 0.00417542)
(-0.00823522 0.00155626 0.00414087)
(-0.00813452 0.0015495 0.00411912)
(-0.00807793 0.00155447 0.00410734)
(-0.00807248 0.00159223 0.00409946)
(-0.00808574 0.00166244 0.00408407)
(-0.00810552 0.00179676 0.00405398)
(-0.00810516 0.00192459 0.0040025)
(-0.00802901 0.0021316 0.00392806)
(-0.00791572 0.00221323 0.00383802)
(-0.00769457 0.00242393 0.00374011)
(-0.00748509 0.00231319 0.00364575)
(-0.00719499 0.00242716 0.00356233)
(-0.00698216 0.0019814 0.00351564)
(-0.00665624 0.00207711 0.00351738)
(-0.00641455 0.00144313 0.00353122)
(-0.00569237 0.00172352 0.00344944)
(-0.00489136 0.000635263 0.00352161)
(-0.00402374 0.000700812 0.00359841)
(-0.00323592 -0.00161445 0.00287387)
(-0.00154243 0.000386945 0.00215324)
(0.000419649 0.000435067 0.00245758)
(-0.0014759 0.0059596 0.00507169)
(-0.0115524 0.0114519 0.0143204)
(-0.0273772 0.020745 0.0273479)
(-0.0336402 0.0279313 0.0324123)
(-0.0333638 0.0490809 0.0303352)
(-0.0203607 0.0610626 0.0254921)
(-0.000528781 0.107155 0.0340272)
(0.0381839 0.0778695 0.0410694)
(0.0769347 0.178128 0.0605333)
(0.0976388 -0.0393556 0.0669489)
(0.168277 0.394387 0.0321554)
(-0.0107344 -0.324689 0.0227789)
(-0.111752 -0.0924655 0.0487747)
(-0.0565012 0.148537 -0.00914824)
(-0.0545503 0.0818618 0.00387363)
(-0.0278252 0.13717 0.00132546)
(-0.024566 0.110932 0.0103972)
(-0.0101718 0.113785 0.00823722)
(-0.00738319 0.101973 0.00632092)
(-0.0033807 0.100798 0.00423309)