/*--------------------------------*- C++ -*----------------------------------*\
| =========                 |                                                 |
| \\      /  F ield         | OpenFOAM: The Open Source CFD Toolbox           |
|  \\    /   O peration     | Version:  2.3.0                                 |
|   \\  /    A nd           | Web:      www.OpenFOAM.org                      |
|    \\/     M anipulation  |                                                 |
\*---------------------------------------------------------------------------*/
FoamFile
{
    version     2.0;
    format      ascii;
    class       volScalarField;
    location    "23";
    object      alpha.water;
}
// * * * * * * * * * * * * * * * * * * * * * * * * * * * * * * * * * * * * * //

dimensions      [0 0 0 0 0 0 0];

internalField   nonuniform List<scalar> 
6144
(
6.95113e-06
7.40588e-06
7.69899e-06
7.96162e-06
8.26088e-06
8.6126e-06
9.06998e-06
9.69155e-06
9.9753e-06
9.99868e-06
9.99561e-06
9.9968e-06
9.99693e-06
9.99802e-06
9.99717e-06
9.99772e-06
9.99723e-06
9.99798e-06
9.99826e-06
9.99918e-06
9.99887e-06
9.99862e-06
9.99838e-06
9.99829e-06
9.99787e-06
9.99637e-06
9.99527e-06
9.99511e-06
9.9947e-06
9.99448e-06
9.99438e-06
9.99484e-06
9.9943e-06
9.99501e-06
9.99401e-06
9.9955e-06
9.9936e-06
9.99541e-06
9.991e-06
9.99214e-06
9.98739e-06
9.98999e-06
9.98614e-06
9.99482e-06
9.98496e-06
9.99893e-06
9.98381e-06
1.00067e-05
1.00314e-05
1.10336e-05
1.39199e-05
2.03419e-05
3.42248e-05
4.57853e-05
5.06406e-05
9.77024e-05
0.000123426
0.000502743
0.00193792
0.0820492
0.972038
0.999874
0.999999
0.999999
0.999999
0.999999
0.999999
0.999999
0.999999
0.999999
0.999999
0.999999
0.999999
0.999999
0.999999
0.999999
0.999999
0.999999
0.999999
0.999999
0.999999
0.999999
0.999999
0.999999
0.999999
0.999999
0.999999
0.999999
0.999999
0.999999
0.999999
0.999999
0.999999
0.999999
1
1
6.08777e-06
6.80795e-06
7.33005e-06
7.77369e-06
8.36479e-06
8.78735e-06
9.36485e-06
9.88972e-06
1.00007e-05
1.00008e-05
9.99614e-06
9.99682e-06
1.00008e-05
1.00032e-05
1.00021e-05
1.00033e-05
1.00022e-05
1.00033e-05
1.00027e-05
1.00032e-05
1.00027e-05
1.00028e-05
1.00027e-05
1.00027e-05
1.00023e-05
1.00013e-05
1.00009e-05
1.00009e-05
1.00007e-05
1.00006e-05
1.00005e-05
1.00013e-05
1.00001e-05
1.00021e-05
9.99907e-06
1.00039e-05
9.99733e-06
1.00058e-05
9.99267e-06
1.00057e-05
9.98907e-06
1.00052e-05
9.98666e-06
1.00093e-05
9.98496e-06
1.00103e-05
9.98381e-06
1.00299e-05
1.00305e-05
1.10792e-05
1.51159e-05
2.26599e-05
3.36117e-05
4.32931e-05
4.84557e-05
8.95981e-05
0.000124169
0.000647329
0.00255107
0.0652959
0.959982
0.999839
0.999999
0.999999
0.999999
0.999999
0.999999
0.999999
0.999999
0.999999
0.999999
0.999999
0.999999
0.999999
0.999999
0.999999
0.999999
0.999999
0.999999
0.999999
0.999999
0.999999
0.999999
0.999999
0.999999
0.999999
0.999999
0.999999
0.999999
0.999999
0.999999
0.999999
0.999999
0.999999
1
1
5.49238e-06
6.24376e-06
6.74449e-06
7.18576e-06
7.8668e-06
8.48283e-06
9.22424e-06
9.7454e-06
9.88615e-06
9.92019e-06
9.94673e-06
9.9799e-06
9.99621e-06
1.0002e-05
1.00026e-05
1.00034e-05
1.00026e-05
1.00034e-05
1.00029e-05
1.00034e-05
1.0003e-05
1.00032e-05
1.00031e-05
1.00032e-05
1.00027e-05
1.0002e-05
1.00018e-05
1.00018e-05
1.00017e-05
1.00017e-05
1.00015e-05
1.00021e-05
1.00007e-05
1.0003e-05
9.99969e-06
1.00052e-05
9.99772e-06
1.00072e-05
9.9936e-06
1.00084e-05
9.99006e-06
1.00099e-05
9.98705e-06
1.00134e-05
9.98496e-06
1.00137e-05
9.98577e-06
1.00538e-05
1.00264e-05
1.11387e-05
1.61396e-05
2.33912e-05
3.01453e-05
3.91741e-05
5.38042e-05
0.000100896
0.000105496
0.00043751
0.00128696
0.0572117
0.948064
0.999834
0.999999
0.999999
0.999999
0.999999
0.999999
0.999999
0.999999
0.999999
0.999999
0.999999
0.999999
0.999999
0.999999
0.999999
0.999999
0.999999
0.999999
0.999999
0.999999
0.999999
0.999999
0.999999
0.999999
0.999999
0.999999
0.999999
0.999999
0.999999
0.999999
0.999999
0.999999
0.999999
1
1
4.89304e-06
5.67531e-06
6.31304e-06
6.70187e-06
7.28364e-06
8.06167e-06
9.1133e-06
9.79525e-06
9.89053e-06
9.90743e-06
9.91847e-06
9.97046e-06
9.99244e-06
9.99938e-06
1.00002e-05
1.00008e-05
1.00001e-05
1.00007e-05
1.00002e-05
1.00006e-05
1.00001e-05
1.00001e-05
9.99994e-06
9.99984e-06
9.99921e-06
9.99857e-06
9.99836e-06
9.99828e-06
9.99818e-06
9.99817e-06
9.99796e-06
9.99812e-06
9.99729e-06
9.99871e-06
9.99681e-06
1.00004e-05
9.99568e-06
1.00019e-05
9.99175e-06
1.0004e-05
9.98815e-06
1.0006e-05
9.98684e-06
1.00074e-05
9.9867e-06
1.00122e-05
9.99424e-06
1.00631e-05
1.01551e-05
1.15244e-05
1.56665e-05
2.23599e-05
2.89689e-05
4.0373e-05
6.954e-05
0.000111362
0.000109671
0.000295457
0.000558057
0.0647362
0.942407
0.999858
0.999999
0.999999
0.999999
0.999999
0.999999
0.999999
0.999999
0.999999
0.999999
0.999999
0.999999
0.999999
0.999999
0.999999
0.999999
0.999999
0.999999
0.999999
0.999999
0.999999
0.999999
0.999999
0.999999
0.999999
0.999999
0.999999
0.999999
0.999999
0.999999
0.999999
0.999999
0.999999
1
1
4.30511e-06
4.96473e-06
5.85176e-06
6.28251e-06
6.75841e-06
7.44109e-06
8.64549e-06
9.44484e-06
9.91301e-06
9.94055e-06
9.92118e-06
9.97168e-06
9.99479e-06
1.00019e-05
1.0003e-05
1.00032e-05
1.00029e-05
1.00035e-05
1.00032e-05
1.00039e-05
1.00037e-05
1.00038e-05
1.00037e-05
1.00036e-05
1.00031e-05
1.00025e-05
1.00023e-05
1.00022e-05
1.0002e-05
1.00022e-05
1.00019e-05
1.00018e-05
1.00008e-05
1.00021e-05
1.00001e-05
1.0004e-05
9.99917e-06
1.00046e-05
9.99446e-06
1.00055e-05
9.99037e-06
1.00079e-05
9.99087e-06
1.00094e-05
9.99273e-06
1.00153e-05
1.00004e-05
1.00804e-05
1.0232e-05
1.12565e-05
1.38322e-05
1.98825e-05
2.78316e-05
4.42232e-05
9.22654e-05
0.000126646
0.00016067
0.000239074
0.000104305
0.105651
0.962522
0.999897
0.999969
0.999994
0.999998
0.999999
0.999999
0.999999
0.999999
0.999999
0.999999
0.999999
0.999999
0.999999
0.999999
0.999999
0.999999
0.999999
0.999999
0.999999
0.999999
0.999999
0.999999
0.999999
0.999999
0.999999
0.999999
0.999999
0.999999
0.999999
0.999999
0.999999
0.999999
0.999999
1
1
3.94261e-06
4.28664e-06
5.25442e-06
5.80955e-06
6.348e-06
6.82686e-06
7.8154e-06
8.84241e-06
9.74414e-06
9.91957e-06
9.91348e-06
9.97056e-06
9.99172e-06
9.99798e-06
9.99881e-06
9.99881e-06
9.99856e-06
9.99856e-06
9.99844e-06
9.99859e-06
9.99852e-06
9.99864e-06
9.99875e-06
9.9987e-06
9.99816e-06
9.99776e-06
9.99768e-06
9.99767e-06
9.99765e-06
9.99772e-06
9.99756e-06
9.99755e-06
9.99695e-06
9.99784e-06
9.99689e-06
9.99903e-06
9.99712e-06
9.99894e-06
9.99367e-06
9.99905e-06
9.98843e-06
1.00041e-05
9.98915e-06
1.00067e-05
9.99059e-06
1.00125e-05
9.99626e-06
1.00916e-05
1.02912e-05
1.12815e-05
1.33925e-05
2.00824e-05
3.55143e-05
7.45883e-05
0.000122483
0.000156906
0.000152077
0.000194583
3.19467e-05
0.185102
0.979553
0.998907
0.999132
0.999526
0.999731
0.999853
0.99993
0.999966
0.999978
0.999982
0.999982
0.999977
0.999973
0.999972
0.999972
0.999975
0.999977
0.999977
0.999977
0.999981
0.999987
0.999993
0.999995
0.999997
0.999998
0.999999
0.999999
0.999999
1
0.999999
0.999999
0.999999
0.999999
1
1
1
3.80417e-06
3.84885e-06
4.55718e-06
5.11968e-06
5.93263e-06
6.41004e-06
7.30451e-06
8.40256e-06
9.11094e-06
9.66815e-06
9.84861e-06
9.96407e-06
9.99314e-06
1.00003e-05
1.00031e-05
1.00034e-05
1.00032e-05
1.00032e-05
1.00031e-05
1.00033e-05
1.00032e-05
1.00032e-05
1.00032e-05
1.0003e-05
1.00022e-05
1.00015e-05
1.00009e-05
1.00005e-05
1.00004e-05
1.00004e-05
1.00001e-05
9.99981e-06
9.99914e-06
9.99985e-06
9.99862e-06
1.00008e-05
9.99805e-06
1.00009e-05
9.9946e-06
1.00006e-05
9.99063e-06
1.00047e-05
9.9907e-06
1.0008e-05
9.99125e-06
1.00142e-05
9.99466e-06
1.01175e-05
1.04178e-05
1.17464e-05
1.46629e-05
2.15661e-05
5.2395e-05
8.81037e-05
0.000114656
0.000116055
0.000101425
0.00013472
9.99659e-06
0.29628
0.991851
0.995722
0.995261
0.995384
0.995942
0.996298
0.996965
0.997749
0.998296
0.998627
0.99867
0.998574
0.998278
0.997758
0.997412
0.997503
0.998177
0.998483
0.998666
0.998712
0.998648
0.998569
0.998729
0.998984
0.998974
0.998841
0.998813
0.999411
0.999846
1
1
1
1
0.999978
0.999971
0.999974
3.77709e-06
3.73859e-06
4.05852e-06
4.40283e-06
5.26906e-06
5.99098e-06
7.0112e-06
8.13539e-06
8.75934e-06
9.24495e-06
9.68437e-06
9.94207e-06
9.99302e-06
1.00029e-05
1.00027e-05
1.00033e-05
1.00027e-05
1.00029e-05
1.00027e-05
1.00031e-05
1.0003e-05
1.00033e-05
1.00033e-05
1.00033e-05
1.00032e-05
1.00031e-05
1.00034e-05
1.00035e-05
1.00037e-05
1.00037e-05
1.00037e-05
1.00036e-05
1.00034e-05
1.0004e-05
1.00034e-05
1.00054e-05
1.00032e-05
1.00057e-05
1.00008e-05
1.00061e-05
9.99909e-06
1.0009e-05
9.99744e-06
1.00136e-05
9.99619e-06
1.00161e-05
9.99105e-06
1.01046e-05
1.03688e-05
1.16165e-05
1.45251e-05
2.60087e-05
7.16346e-05
8.89372e-05
9.13015e-05
8.84778e-05
6.60099e-05
8.53712e-05
9.99659e-06
0.341282
0.987015
0.99242
0.990844
0.989529
0.988902
0.9886
0.988449
0.988899
0.989157
0.990247
0.990837
0.990733
0.9894
0.98747
0.9867
0.986561
0.987259
0.987993
0.98798
0.987784
0.987661
0.987975
0.989166
0.989485
0.988107
0.984315
0.982133
0.981597
0.981631
0.983055
0.983873
0.984016
0.983889
0.985352
0.987617
0.990842
3.81756e-06
3.93266e-06
3.88927e-06
4.03653e-06
4.7518e-06
5.6828e-06
6.78772e-06
7.98491e-06
8.72887e-06
9.17779e-06
9.62401e-06
9.92221e-06
9.98779e-06
1.00002e-05
9.9981e-06
9.99903e-06
9.99754e-06
9.99812e-06
9.99764e-06
9.99814e-06
9.99813e-06
9.9987e-06
9.99894e-06
9.99906e-06
9.99889e-06
9.99892e-06
9.99932e-06
9.99967e-06
9.99981e-06
9.99985e-06
9.99985e-06
9.99977e-06
9.99966e-06
1.00004e-05
1e-05
1.00021e-05
1.00006e-05
1.00022e-05
9.99913e-06
1.00026e-05
9.99706e-06
1.00075e-05
9.99565e-06
1.00132e-05
9.99284e-06
1.00161e-05
9.98299e-06
1.00876e-05
1.03344e-05
1.15393e-05
1.40558e-05
2.09542e-05
4.86005e-05
8.57985e-05
0.000104633
0.000100573
8.34388e-05
0.000133342
9.99659e-06
0.206316
0.988381
0.995909
0.995993
0.995839
0.995389
0.995351
0.995241
0.994264
0.993951
0.994362
0.994342
0.994622
0.995381
0.995487
0.995642
0.996152
0.996578
0.99714
0.997679
0.997885
0.998045
0.998423
0.998604
0.99851
0.998182
0.998034
0.997964
0.99786
0.997729
0.997773
0.998074
0.998172
0.998659
0.999194
0.999689
0.999933
3.83632e-06
4.11664e-06
4.21976e-06
4.21557e-06
4.55757e-06
5.51884e-06
6.67061e-06
7.90064e-06
8.82794e-06
9.35563e-06
9.75936e-06
9.96005e-06
9.99316e-06
1.00035e-05
1.00027e-05
1.00042e-05
1.00029e-05
1.00037e-05
1.00029e-05
1.00035e-05
1.00031e-05
1.00034e-05
1.00034e-05
1.00033e-05
1.00029e-05
1.00028e-05
1.0003e-05
1.00033e-05
1.00033e-05
1.00032e-05
1.00029e-05
1.00026e-05
1.00023e-05
1.00028e-05
1.00023e-05
1.00039e-05
1.0002e-05
1.00038e-05
9.99988e-06
1.0004e-05
9.99787e-06
1.00084e-05
9.99597e-06
1.00142e-05
9.99335e-06
1.00161e-05
9.98299e-06
1.00757e-05
1.02884e-05
1.14163e-05
1.33806e-05
1.80752e-05
2.71888e-05
6.16333e-05
9.41251e-05
0.000104878
0.000110035
0.000200712
8.42308e-05
0.100332
0.964391
0.999113
0.999334
0.999551
0.999557
0.999485
0.999422
0.999355
0.999322
0.999349
0.9995
0.999629
0.99971
0.999783
0.999853
0.999907
0.999938
0.999964
0.999985
0.999994
0.999998
0.999999
1
0.999995
0.999988
0.99999
0.999992
0.999993
0.999993
0.999993
0.999994
0.999995
0.999998
0.999999
1
1
3.65643e-06
4.15206e-06
4.77059e-06
4.85099e-06
4.8225e-06
5.5855e-06
6.56449e-06
7.86293e-06
8.93312e-06
9.65776e-06
9.94622e-06
1.00045e-05
9.99876e-06
1.00019e-05
1.00007e-05
1.00007e-05
9.99954e-06
1e-05
9.99973e-06
1.00005e-05
1.00005e-05
1.00011e-05
1.00013e-05
1.00015e-05
1.00014e-05
1.00014e-05
1.00018e-05
1.00023e-05
1.00026e-05
1.00027e-05
1.00026e-05
1.00025e-05
1.00024e-05
1.0003e-05
1.00028e-05
1.00047e-05
1.00027e-05
1.00055e-05
1.00007e-05
1.00061e-05
9.99901e-06
1.00102e-05
9.99717e-06
1.00172e-05
9.99525e-06
1.00161e-05
9.98299e-06
1.00788e-05
1.02159e-05
1.11605e-05
1.26331e-05
1.65808e-05
2.35408e-05
4.76992e-05
7.17984e-05
9.79938e-05
9.28121e-05
0.000288465
0.000157232
0.0505236
0.938408
0.999893
0.99998
0.999993
0.999994
0.999995
0.999995
0.999994
0.999994
0.999995
0.999997
0.999998
0.999999
0.999999
0.999999
0.999999
0.999999
0.999999
0.999999
0.999999
0.999999
0.999999
1
1
1
1
1
1
1
1
1
1
1
1
1
1
3.18266e-06
3.25104e-06
4.65589e-06
5.098e-06
5.31509e-06
5.91036e-06
6.93046e-06
8.14053e-06
9.2189e-06
9.90857e-06
9.99948e-06
1.00107e-05
1.00064e-05
1.00095e-05
1.00031e-05
1.00065e-05
1.00019e-05
1.00022e-05
1.00008e-05
1.00015e-05
1.00012e-05
1.00019e-05
1.0002e-05
1.00022e-05
1.00021e-05
1.00022e-05
1.00025e-05
1.00031e-05
1.00035e-05
1.00036e-05
1.00035e-05
1.00034e-05
1.00034e-05
1.00042e-05
1.00042e-05
1.00064e-05
1.00046e-05
1.00087e-05
1.00031e-05
1.00104e-05
1.00018e-05
1.00158e-05
1.00032e-05
1.00182e-05
1.00005e-05
1.00161e-05
9.98306e-06
1.00798e-05
1.01354e-05
1.08617e-05
1.20186e-05
1.52973e-05
2.00999e-05
4.09447e-05
6.96589e-05
0.000105939
0.000104987
0.00042457
0.000257554
0.0285605
0.932937
0.999877
1
1
0.999999
0.999999
0.999999
0.999999
1
0.999999
0.999999
0.999999
0.999999
0.999999
0.999999
0.999999
0.999999
0.999999
0.999999
0.999999
0.999999
0.999999
1
1
1
1
1
1
1
1
1
1
1
1
1
1
2.36428e-06
2.60465e-06
2.85206e-06
4.68869e-06
5.31767e-06
5.96816e-06
7.54911e-06
8.70044e-06
9.65413e-06
9.97165e-06
9.99898e-06
1.00107e-05
1.00107e-05
1.00107e-05
1.00107e-05
1.00107e-05
1.00105e-05
1.00105e-05
1.00091e-05
1.00093e-05
1.00083e-05
1.00085e-05
1.00079e-05
1.00075e-05
1.0007e-05
1.00067e-05
1.00066e-05
1.00069e-05
1.00071e-05
1.00068e-05
1.00062e-05
1.00059e-05
1.00059e-05
1.00065e-05
1.00062e-05
1.00086e-05
1.0007e-05
1.001e-05
1.00048e-05
1.00127e-05
1.00035e-05
1.00181e-05
1.00057e-05
1.00182e-05
1.00025e-05
1.00161e-05
9.984e-06
1.00723e-05
1.00428e-05
1.05659e-05
1.14922e-05
1.4827e-05
1.99028e-05
3.13615e-05
5.59101e-05
9.85798e-05
0.000131625
0.000525626
0.000434792
0.023751
0.928962
0.999774
1
1
1
1
1
1
1
1
1
1
1
1
1
0.999999
0.999999
0.999999
1
1
1
1
1
1
1
1
1
1
1
1
1
1
1
1
1
1
2.11259e-06
2.75214e-06
2.66863e-06
3.07986e-06
3.42134e-06
3.72969e-06
7.05065e-06
9.24139e-06
9.81307e-06
9.95568e-06
9.97942e-06
1.00085e-05
1.00101e-05
1.00107e-05
1.00107e-05
1.00107e-05
1.00103e-05
1.00105e-05
1.00103e-05
1.00103e-05
1.00103e-05
1.00103e-05
1.00102e-05
1.00102e-05
1.00101e-05
1.001e-05
1.001e-05
1.001e-05
1.001e-05
1.00097e-05
1.00092e-05
1.00089e-05
1.00087e-05
1.00094e-05
1.001e-05
1.001e-05
1.001e-05
1.001e-05
1.00082e-05
1.00127e-05
1.0007e-05
1.00181e-05
1.00093e-05
1.00182e-05
1.00048e-05
1.00161e-05
9.98454e-06
1.0064e-05
9.99872e-06
1.03382e-05
1.10512e-05
1.44071e-05
2.01907e-05
3.08452e-05
4.1758e-05
7.46817e-05
0.000152065
0.000605201
0.000537732
0.0267618
0.928864
0.999705
1
1
1
1
1
1
1
1
1
1
1
1
1
1
1
1
1
1
1
1
1
1
1
1
1
1
1
1
1
1
1
1
1
1
1.92537e-06
2.49417e-06
1.91432e-06
2.32341e-06
1.97307e-06
2.13813e-06
4.16561e-06
9.44612e-06
9.88126e-06
9.96315e-06
9.98065e-06
1.00052e-05
1.00045e-05
1.00071e-05
1.00065e-05
1.00078e-05
1.0006e-05
1.00073e-05
1.00067e-05
1.00072e-05
1.00072e-05
1.00076e-05
1.00077e-05
1.00079e-05
1.0008e-05
1.00081e-05
1.00082e-05
1.00083e-05
1.00083e-05
1.00083e-05
1.00079e-05
1.00077e-05
1.00076e-05
1.00083e-05
1.00085e-05
1.00094e-05
1.00084e-05
1.001e-05
1.00073e-05
1.00127e-05
1.00063e-05
1.00181e-05
1.00083e-05
1.00182e-05
1.00036e-05
1.00159e-05
9.98349e-06
1.00512e-05
9.99803e-06
1.01545e-05
1.05658e-05
1.34029e-05
1.84068e-05
4.23128e-05
4.54157e-05
5.91224e-05
0.000245455
0.000791985
0.000914235
0.0303186
0.932739
0.999615
0.999999
1
1
1
1
1
1
1
1
1
1
1
1
1
1
1
1
1
1
1
1
1
1
1
1
1
1
1
1
1
1
1
1
1
1.56273e-06
1.59009e-06
1.59301e-06
1.62788e-06
1.69768e-06
1.81605e-06
1.8322e-06
6.63184e-06
9.82041e-06
9.99246e-06
9.99996e-06
1.00109e-05
1.00109e-05
1.00109e-05
1.00109e-05
1.00109e-05
1.00109e-05
1.00109e-05
1.00108e-05
1.00116e-05
1.00116e-05
1.00125e-05
1.00131e-05
1.00132e-05
1.00132e-05
1.00132e-05
1.00132e-05
1.00132e-05
1.00132e-05
1.00132e-05
1.00132e-05
1.00132e-05
1.00132e-05
1.00137e-05
1.00138e-05
1.00143e-05
1.00143e-05
1.00159e-05
1.00158e-05
1.00182e-05
1.00183e-05
1.00182e-05
1.00182e-05
1.00182e-05
1.00148e-05
1.00164e-05
9.98871e-06
1.0049e-05
9.99822e-06
1.01099e-05
1.04117e-05
1.29541e-05
1.83935e-05
4.03471e-05
4.82469e-05
0.000127548
0.000150496
0.000637568
0.000637468
0.0410473
0.934927
0.999615
0.999999
1
1
1
1
1
1
1
1
1
1
1
1
1
1
1
1
1
1
1
1
1
1
1
1
1
1
1
1
1
1
1
1
1
7.00732e-06
7.51493e-06
7.7571e-06
8.01256e-06
8.29655e-06
8.70732e-06
9.30043e-06
9.6991e-06
9.80507e-06
9.83299e-06
9.9268e-06
9.98443e-06
1.0009e-05
1.00133e-05
1.00133e-05
1.00133e-05
1.00133e-05
1.00133e-05
1.00133e-05
1.00133e-05
1.00131e-05
1.00131e-05
1.00128e-05
1.00128e-05
1.00126e-05
1.0012e-05
1.00116e-05
1.00116e-05
1.00116e-05
1.00116e-05
1.00116e-05
1.00116e-05
1.00113e-05
1.00122e-05
1.00122e-05
1.00125e-05
1.00125e-05
1.00129e-05
1.00117e-05
1.00133e-05
1.00101e-05
1.00142e-05
1.00139e-05
1.00142e-05
1.00088e-05
1.00165e-05
9.99258e-06
1.00445e-05
1.00923e-05
1.10948e-05
1.352e-05
1.95811e-05
3.19069e-05
4.55933e-05
5.26113e-05
9.15499e-05
0.000132423
0.00060563
0.00358809
0.0879551
0.965771
0.999833
0.999999
0.999999
0.999999
0.999999
0.999999
0.999999
0.999999
0.999999
0.999999
0.999999
0.999999
0.999999
0.999999
0.999999
0.999999
0.999999
0.999999
0.999999
0.999999
0.999999
0.999999
0.999999
0.999999
0.999999
0.999999
0.999999
0.999999
0.999999
0.999999
0.999999
0.999999
0.999999
0.999999
1
6.08164e-06
7.02436e-06
7.47326e-06
7.79385e-06
8.17623e-06
8.50197e-06
8.8452e-06
9.12837e-06
9.39599e-06
9.59667e-06
9.79064e-06
9.93478e-06
9.98964e-06
1.00099e-05
1.00113e-05
1.00129e-05
1.00111e-05
1.00121e-05
1.00112e-05
1.00119e-05
1.00115e-05
1.00119e-05
1.00117e-05
1.00115e-05
1.00114e-05
1.00115e-05
1.00115e-05
1.00115e-05
1.00115e-05
1.00115e-05
1.00112e-05
1.00112e-05
1.00108e-05
1.00116e-05
1.00106e-05
1.00123e-05
1.00099e-05
1.00129e-05
1.00092e-05
1.00133e-05
1.00093e-05
1.00142e-05
1.00094e-05
1.00142e-05
1.00044e-05
1.00165e-05
9.99336e-06
1.01177e-05
1.02183e-05
1.12146e-05
1.41896e-05
2.06587e-05
3.17445e-05
4.48735e-05
4.87057e-05
8.55052e-05
0.000168209
0.000577701
0.00218451
0.0869946
0.978475
0.999982
0.999999
0.999999
0.999999
0.999999
0.999999
0.999999
0.999999
0.999999
0.999999
0.999999
0.999999
0.999999
0.999999
0.999999
0.999999
0.999999
0.999999
0.999999
0.999999
0.999999
0.999999
0.999999
0.999999
0.999999
0.999999
0.999999
0.999999
0.999999
0.999999
0.999999
0.999999
0.999999
0.999999
1
5.13992e-06
6.35971e-06
7.0104e-06
7.31742e-06
7.5335e-06
7.88946e-06
8.29067e-06
8.71355e-06
9.17394e-06
9.49655e-06
9.72806e-06
9.91419e-06
9.98216e-06
1.00077e-05
1.00094e-05
1.00102e-05
1.00091e-05
1.00096e-05
1.0009e-05
1.00094e-05
1.0009e-05
1.00091e-05
1.00087e-05
1.00085e-05
1.00081e-05
1.00079e-05
1.00078e-05
1.00078e-05
1.00077e-05
1.00076e-05
1.00074e-05
1.00074e-05
1.00071e-05
1.00076e-05
1.00065e-05
1.00081e-05
1.0005e-05
1.00088e-05
1.00025e-05
1.001e-05
1.00005e-05
1.00139e-05
1.00011e-05
1.00142e-05
9.99958e-06
1.00165e-05
9.99495e-06
1.01017e-05
1.02451e-05
1.14035e-05
1.48162e-05
2.11026e-05
2.73152e-05
4.38687e-05
4.4034e-05
9.85835e-05
0.000121922
0.000387245
0.000967666
0.086523
0.984577
0.999999
0.999999
0.999999
0.999999
0.999999
0.999999
0.999999
0.999999
0.999999
0.999999
0.999999
0.999999
0.999999
0.999999
0.999999
0.999999
0.999999
0.999999
0.999999
0.999999
0.999999
0.999999
0.999999
0.999999
0.999999
0.999999
0.999999
0.999999
0.999999
0.999999
0.999999
0.999999
0.999999
0.999999
1
4.24739e-06
5.40538e-06
6.70478e-06
7.30135e-06
7.47421e-06
7.75297e-06
8.07663e-06
8.45874e-06
9.0052e-06
9.43446e-06
9.69427e-06
9.90378e-06
9.97864e-06
1.00062e-05
1.00074e-05
1.00081e-05
1.00069e-05
1.00072e-05
1.00065e-05
1.00068e-05
1.00064e-05
1.00064e-05
1.00061e-05
1.00059e-05
1.00055e-05
1.00053e-05
1.00052e-05
1.00051e-05
1.0005e-05
1.00049e-05
1.00047e-05
1.00046e-05
1.00043e-05
1.00047e-05
1.00039e-05
1.00052e-05
1.00024e-05
1.00058e-05
9.99998e-06
1.00068e-05
9.99808e-06
1.00097e-05
9.9962e-06
1.00142e-05
9.99346e-06
1.00165e-05
9.9894e-06
1.00667e-05
1.02248e-05
1.15787e-05
1.46094e-05
2.07652e-05
2.7063e-05
3.54128e-05
5.69549e-05
0.000133753
0.000161947
0.000411634
0.000500376
0.0966873
0.985269
0.999997
0.999996
0.999999
0.999999
0.999999
0.999999
0.999999
0.999999
0.999999
0.999999
0.999999
0.999999
0.999999
0.999999
0.999999
0.999999
0.999999
0.999999
0.999999
0.999999
0.999999
0.999999
0.999999
0.999999
0.999999
0.999999
0.999999
0.999999
0.999999
0.999999
0.999999
0.999999
0.999999
0.999999
1
3.73613e-06
4.29705e-06
5.93205e-06
7.35228e-06
7.55729e-06
7.70743e-06
8.00479e-06
8.31972e-06
8.88205e-06
9.38067e-06
9.66405e-06
9.89587e-06
9.97699e-06
1.00055e-05
1.00065e-05
1.00071e-05
1.00058e-05
1.00061e-05
1.00054e-05
1.00056e-05
1.00052e-05
1.00052e-05
1.00049e-05
1.00047e-05
1.00043e-05
1.00041e-05
1.0004e-05
1.00039e-05
1.00038e-05
1.00036e-05
1.00034e-05
1.00033e-05
1.00031e-05
1.00033e-05
1.00027e-05
1.0004e-05
1.00012e-05
1.00046e-05
9.99872e-06
1.00055e-05
9.99677e-06
1.00086e-05
9.99431e-06
1.00131e-05
9.99085e-06
1.00165e-05
9.98887e-06
1.00517e-05
1.01258e-05
1.13157e-05
1.37152e-05
2.02316e-05
3.51869e-05
6.23451e-05
0.000116299
0.000191533
0.000261608
0.00025033
0.000131784
0.145077
0.985954
0.99957
0.999766
0.999948
0.999982
0.999994
0.999998
0.999999
0.999999
0.999999
0.999997
0.999998
0.999999
0.999999
0.999999
0.999998
0.999999
0.999999
0.999999
0.999999
0.999999
0.999999
0.999999
0.999999
0.999999
0.999999
0.999999
0.999999
0.999999
0.999999
0.999999
0.999999
0.999999
0.999999
0.999999
1
3.45572e-06
3.61777e-06
4.90692e-06
6.86845e-06
7.64913e-06
7.69874e-06
7.94603e-06
8.22582e-06
8.83498e-06
9.35949e-06
9.65034e-06
9.89162e-06
9.9765e-06
1.00048e-05
1.00057e-05
1.00062e-05
1.0005e-05
1.00052e-05
1.00044e-05
1.00046e-05
1.00041e-05
1.00041e-05
1.00038e-05
1.00036e-05
1.00031e-05
1.0003e-05
1.00029e-05
1.00028e-05
1.00027e-05
1.00026e-05
1.00023e-05
1.00022e-05
1.0002e-05
1.00023e-05
1.00017e-05
1.00031e-05
1.00003e-05
1.00038e-05
9.99787e-06
1.00049e-05
9.99581e-06
1.00081e-05
9.99304e-06
1.00127e-05
9.98865e-06
1.00163e-05
9.98664e-06
1.00422e-05
1.00498e-05
1.08868e-05
1.32029e-05
2.1484e-05
4.88216e-05
0.000116751
0.000178161
0.000165801
0.000139246
5.75048e-05
9.99659e-06
0.319952
0.983669
0.992142
0.993714
0.99618
0.997558
0.998453
0.998981
0.999275
0.999437
0.999479
0.999473
0.999441
0.999382
0.99936
0.999369
0.999421
0.999441
0.999474
0.999468
0.999422
0.999479
0.999575
0.999647
0.999758
0.99985
0.999911
0.999957
0.999985
0.999997
0.999999
0.999999
0.999999
0.999999
0.999999
0.999999
1
3.3042e-06
3.28742e-06
4.15248e-06
5.64991e-06
7.06431e-06
7.36102e-06
7.91354e-06
8.19144e-06
8.83298e-06
9.35945e-06
9.64979e-06
9.88974e-06
9.97759e-06
1.00045e-05
1.00052e-05
1.00056e-05
1.00046e-05
1.00047e-05
1.0004e-05
1.00041e-05
1.00036e-05
1.00036e-05
1.00034e-05
1.00032e-05
1.00027e-05
1.00026e-05
1.00025e-05
1.00025e-05
1.00024e-05
1.00023e-05
1.0002e-05
1.00018e-05
1.00017e-05
1.00021e-05
1.00015e-05
1.00029e-05
1e-05
1.00036e-05
9.99761e-06
1.00048e-05
9.99548e-06
1.00081e-05
9.99253e-06
1.00127e-05
9.98797e-06
1.0016e-05
9.98439e-06
1.00378e-05
1.00232e-05
1.06913e-05
1.29819e-05
2.57426e-05
6.936e-05
0.000121595
0.000130314
8.6044e-05
4.67536e-05
1.94091e-05
9.99659e-06
0.50856
0.960111
0.965621
0.966132
0.969248
0.971969
0.974463
0.976483
0.977742
0.978582
0.978878
0.978655
0.978199
0.977802
0.977319
0.976685
0.975729
0.974812
0.974193
0.97378
0.973609
0.974365
0.975313
0.977299
0.979717
0.982193
0.984234
0.987172
0.991233
0.994286
0.996816
0.998541
0.998612
0.99855
0.99829
0.997897
0.997535
3.24397e-06
3.04637e-06
3.46777e-06
4.12059e-06
5.42237e-06
6.2762e-06
7.52968e-06
8.2035e-06
8.95489e-06
9.4068e-06
9.66368e-06
9.89201e-06
9.98035e-06
1.00043e-05
1.00047e-05
1.0005e-05
1.00042e-05
1.00043e-05
1.00038e-05
1.00039e-05
1.00035e-05
1.00035e-05
1.00034e-05
1.00034e-05
1.00031e-05
1.0003e-05
1.0003e-05
1.0003e-05
1.00029e-05
1.00028e-05
1.00025e-05
1.00024e-05
1.00023e-05
1.00027e-05
1.00021e-05
1.00036e-05
1.00005e-05
1.00045e-05
9.99783e-06
1.00058e-05
9.99547e-06
1.00091e-05
9.99239e-06
1.00137e-05
9.98781e-06
1.00159e-05
9.98299e-06
1.00319e-05
1.00067e-05
1.05531e-05
1.31244e-05
3.22595e-05
8.93882e-05
0.000100024
9.79913e-05
7.60036e-05
5.24351e-05
2.90016e-05
9.99659e-06
0.529339
0.942974
0.946972
0.945175
0.944936
0.944023
0.94321
0.941817
0.93952
0.936247
0.933218
0.931211
0.930116
0.929477
0.928863
0.92817
0.927279
0.926206
0.924726
0.922791
0.92029
0.917639
0.915195
0.912897
0.910575
0.906622
0.897573
0.88911
0.885087
0.881858
0.876636
0.870133
0.86275
0.852009
0.83359
0.787677
0.593266
3.38374e-06
3.04387e-06
3.08393e-06
3.10291e-06
3.8953e-06
5.27188e-06
7.00004e-06
8.14427e-06
9.05231e-06
9.4614e-06
9.68963e-06
9.90319e-06
9.98559e-06
1.00063e-05
1.00064e-05
1.00064e-05
1.00058e-05
1.00059e-05
1.00053e-05
1.00053e-05
1.00051e-05
1.0005e-05
1.0005e-05
1.00048e-05
1.00045e-05
1.00043e-05
1.00043e-05
1.00043e-05
1.00042e-05
1.00041e-05
1.00038e-05
1.00037e-05
1.00037e-05
1.00041e-05
1.00035e-05
1.0005e-05
1.0002e-05
1.00059e-05
9.9993e-06
1.00074e-05
9.99683e-06
1.00109e-05
9.99388e-06
1.00155e-05
9.99027e-06
1.00161e-05
9.98299e-06
1.00316e-05
1.00067e-05
1.04838e-05
1.24492e-05
1.6522e-05
3.44936e-05
0.000118209
0.000136752
0.00012065
9.71744e-05
4.8704e-05
9.99659e-06
0.261656
0.982564
0.996116
0.996472
0.996562
0.996454
0.996295
0.996064
0.995952
0.995863
0.995946
0.99616
0.996465
0.996718
0.996974
0.997124
0.99714
0.996845
0.996754
0.996639
0.996269
0.995991
0.995779
0.995466
0.995212
0.994924
0.995121
0.995687
0.996113
0.995974
0.996475
0.997641
0.99869
0.999488
0.999952
0.999976
0.999992
3.25528e-06
3.10226e-06
3.23813e-06
3.03221e-06
3.29747e-06
4.56649e-06
6.45736e-06
8.00394e-06
9.09475e-06
9.50229e-06
9.72306e-06
9.92092e-06
9.9921e-06
1.00072e-05
1.00072e-05
1.00072e-05
1.0007e-05
1.00071e-05
1.00067e-05
1.00066e-05
1.00065e-05
1.00065e-05
1.00064e-05
1.00063e-05
1.0006e-05
1.00058e-05
1.00058e-05
1.00058e-05
1.00057e-05
1.00056e-05
1.00052e-05
1.00051e-05
1.00049e-05
1.00054e-05
1.00047e-05
1.00062e-05
1.00031e-05
1.00069e-05
1.00002e-05
1.00084e-05
9.99743e-06
1.00121e-05
9.99455e-06
1.00165e-05
9.99131e-06
1.00161e-05
9.98299e-06
1.00348e-05
1.00052e-05
1.04123e-05
1.22161e-05
1.56514e-05
1.94578e-05
3.92747e-05
9.20011e-05
0.000140461
0.000161653
0.000174768
9.99024e-05
0.10673
0.994064
0.999873
0.999905
0.999938
0.999946
0.999953
0.999962
0.999974
0.999985
0.999993
0.999998
0.999999
0.999999
0.999999
0.999999
0.999997
0.999995
0.999994
0.999993
0.999992
0.99999
0.999988
0.999987
0.999985
0.999985
0.999988
0.999992
0.999996
0.999998
0.999999
1
1
1
1
1
1
2.04559e-06
3.11719e-06
3.3846e-06
3.37442e-06
3.23297e-06
4.29856e-06
6.07014e-06
7.88104e-06
9.05982e-06
9.53211e-06
9.7497e-06
9.93426e-06
9.99462e-06
1.00072e-05
1.00072e-05
1.00072e-05
1.00071e-05
1.00071e-05
1.00069e-05
1.00069e-05
1.00069e-05
1.00069e-05
1.00069e-05
1.00068e-05
1.00065e-05
1.00063e-05
1.00063e-05
1.00063e-05
1.00062e-05
1.00061e-05
1.00057e-05
1.00056e-05
1.00054e-05
1.00061e-05
1.00053e-05
1.00069e-05
1.00038e-05
1.00079e-05
1.0001e-05
1.00099e-05
9.99837e-06
1.00137e-05
9.99651e-06
1.00174e-05
9.99384e-06
1.00161e-05
9.98299e-06
1.00377e-05
1.00054e-05
1.03494e-05
1.17814e-05
1.51502e-05
1.93664e-05
3.5824e-05
5.06208e-05
0.000100859
8.8441e-05
0.000269443
0.000262306
0.0434471
0.974647
1
0.999995
0.999998
0.999999
0.999999
0.999999
0.999999
0.999999
0.999999
0.999999
0.999999
0.999999
0.999999
0.999999
0.999999
0.999999
0.999999
0.999999
0.999999
0.999999
0.999999
0.999999
0.999999
0.999999
0.999999
0.999999
1
1
1
1
1
1
1
1
1
2.30752e-06
3.16123e-06
3.26277e-06
3.52016e-06
3.33608e-06
4.46411e-06
5.98763e-06
7.86101e-06
9.06875e-06
9.58341e-06
9.79841e-06
9.96185e-06
9.99949e-06
1.00064e-05
1.00059e-05
1.00072e-05
1.00059e-05
1.00065e-05
1.00059e-05
1.00062e-05
1.0006e-05
1.00064e-05
1.00064e-05
1.00063e-05
1.00061e-05
1.00061e-05
1.00061e-05
1.00061e-05
1.0006e-05
1.00059e-05
1.00056e-05
1.00055e-05
1.00053e-05
1.00061e-05
1.00052e-05
1.00069e-05
1.00037e-05
1.00081e-05
1.00009e-05
1.00103e-05
9.99833e-06
1.00141e-05
9.99729e-06
1.00174e-05
9.99455e-06
1.00161e-05
9.98317e-06
1.00352e-05
9.99805e-06
1.02601e-05
1.14019e-05
1.43267e-05
1.83231e-05
3.68365e-05
5.01359e-05
8.93793e-05
8.8897e-05
0.000346586
0.000449539
0.0288444
0.964609
1
0.999999
0.999999
0.999999
0.999999
0.999999
0.999999
0.999999
0.999999
0.999999
0.999999
0.999999
0.999999
0.999999
0.999999
0.999999
0.999999
0.999999
0.999999
0.999999
0.999999
0.999999
0.999999
0.999999
1
1
1
1
1
1
1
1
1
1
1
2.43402e-06
2.66699e-06
2.6909e-06
3.07785e-06
3.33825e-06
4.67842e-06
6.53931e-06
8.28944e-06
9.24687e-06
9.69076e-06
9.86425e-06
9.98644e-06
1.00027e-05
1.00059e-05
1.00056e-05
1.00062e-05
1.00055e-05
1.00057e-05
1.00056e-05
1.00057e-05
1.00058e-05
1.00061e-05
1.00062e-05
1.00062e-05
1.00062e-05
1.00062e-05
1.00062e-05
1.00062e-05
1.00062e-05
1.00061e-05
1.00058e-05
1.00057e-05
1.00055e-05
1.00062e-05
1.00054e-05
1.00069e-05
1.00041e-05
1.00082e-05
1.00017e-05
1.00104e-05
9.99993e-06
1.00139e-05
9.99931e-06
1.00153e-05
9.99575e-06
1.00159e-05
9.98316e-06
1.00348e-05
9.99803e-06
1.01724e-05
1.08775e-05
1.34478e-05
1.79842e-05
3.98907e-05
4.50712e-05
7.68228e-05
0.000112813
0.000486954
0.000789788
0.0225629
0.914364
1
0.999999
0.999999
0.999999
0.999999
0.999999
0.999999
0.999999
0.999999
0.999999
0.999999
0.999999
0.999999
0.999999
0.999999
0.999999
0.999999
0.999999
0.999999
0.999999
0.999999
0.999999
0.999999
1
1
1
1
1
1
1
1
1
1
1
1
2.21956e-06
2.30112e-06
2.17843e-06
2.38904e-06
2.32808e-06
3.6745e-06
6.64082e-06
8.60432e-06
9.39406e-06
9.78324e-06
9.92409e-06
9.99824e-06
1.00038e-05
1.00048e-05
1.00043e-05
1.00045e-05
1.00039e-05
1.0004e-05
1.00039e-05
1.0004e-05
1.00041e-05
1.00046e-05
1.00046e-05
1.00045e-05
1.00044e-05
1.00043e-05
1.00043e-05
1.00042e-05
1.0004e-05
1.00038e-05
1.00034e-05
1.00032e-05
1.00031e-05
1.00034e-05
1.0003e-05
1.00039e-05
1.00026e-05
1.00051e-05
1.00008e-05
1.0008e-05
9.99956e-06
1.0011e-05
9.999e-06
1.00126e-05
9.99531e-06
1.00121e-05
9.98336e-06
1.00317e-05
9.99803e-06
1.01262e-05
1.06118e-05
1.32336e-05
1.84044e-05
4.13767e-05
4.92375e-05
6.57074e-05
0.000160424
0.000619278
0.000997735
0.0262118
0.910675
1
0.999999
0.999999
0.999999
0.999999