/*--------------------------------*- C++ -*----------------------------------*\
| =========                 |                                                 |
| \\      /  F ield         | OpenFOAM: The Open Source CFD Toolbox           |
|  \\    /   O peration     | Version:  2.3.0                                 |
|   \\  /    A nd           | Web:      www.OpenFOAM.org                      |
|    \\/     M anipulation  |                                                 |
\*---------------------------------------------------------------------------*/
FoamFile
{
    version     2.0;
    format      ascii;
    class       volScalarField;
    location    "23";
    object      alpha.air;
}
// * * * * * * * * * * * * * * * * * * * * * * * * * * * * * * * * * * * * * //

dimensions      [0 0 0 0 0 0 0];

internalField   nonuniform List<scalar> 
6144
(
0.999993
0.999993
0.999992
0.999992
0.999992
0.999991
0.999991
0.99999
0.99999
0.99999
0.99999
0.99999
0.99999
0.99999
0.99999
0.99999
0.99999
0.99999
0.99999
0.99999
0.99999
0.99999
0.99999
0.99999
0.99999
0.99999
0.99999
0.99999
0.99999
0.99999
0.99999
0.99999
0.99999
0.99999
0.99999
0.99999
0.99999
0.99999
0.99999
0.99999
0.99999
0.99999
0.99999
0.99999
0.99999
0.99999
0.99999
0.99999
0.99999
0.999989
0.999986
0.99998
0.999966
0.999954
0.999949
0.999902
0.999877
0.999497
0.998062
0.917951
0.0279622
0.000126329
6.6386e-07
6.66313e-07
6.70823e-07
6.72473e-07
6.72107e-07
6.72143e-07
6.726e-07
6.73363e-07
6.74133e-07
6.7478e-07
6.7504e-07
6.75291e-07
6.75764e-07
6.76903e-07
6.79175e-07
6.82213e-07
6.85398e-07
6.89183e-07
6.93975e-07
6.96217e-07
6.95495e-07
6.9518e-07
6.96605e-07
7.00095e-07
7.04776e-07
7.07035e-07
7.07989e-07
7.10693e-07
7.16842e-07
7.22219e-07
7.16146e-07
6.4492e-07
4.30117e-07
3.83667e-07
0.999994
0.999993
0.999993
0.999992
0.999992
0.999991
0.999991
0.99999
0.99999
0.99999
0.99999
0.99999
0.99999
0.99999
0.99999
0.99999
0.99999
0.99999
0.99999
0.99999
0.99999
0.99999
0.99999
0.99999
0.99999
0.99999
0.99999
0.99999
0.99999
0.99999
0.99999
0.99999
0.99999
0.99999
0.99999
0.99999
0.99999
0.99999
0.99999
0.99999
0.99999
0.99999
0.99999
0.99999
0.99999
0.99999
0.99999
0.99999
0.99999
0.999989
0.999985
0.999977
0.999966
0.999957
0.999952
0.99991
0.999876
0.999353
0.997449
0.934704
0.040018
0.000160923
6.6386e-07
6.72511e-07
6.70033e-07
6.70044e-07
6.70295e-07
6.71328e-07
6.7253e-07
6.7339e-07
6.74518e-07
6.76746e-07
6.79757e-07
6.80712e-07
6.80478e-07
6.80016e-07
6.80072e-07
6.81101e-07
6.83814e-07
6.88201e-07
6.9046e-07
6.90179e-07
6.92161e-07
7.01238e-07
7.00956e-07
6.82635e-07
6.58321e-07
6.5042e-07
6.53002e-07
6.62805e-07
6.83865e-07
7.08414e-07
7.0449e-07
6.2362e-07
4.28044e-07
3.83667e-07
0.999995
0.999994
0.999993
0.999993
0.999992
0.999992
0.999991
0.99999
0.99999
0.99999
0.99999
0.99999
0.99999
0.99999
0.99999
0.99999
0.99999
0.99999
0.99999
0.99999
0.99999
0.99999
0.99999
0.99999
0.99999
0.99999
0.99999
0.99999
0.99999
0.99999
0.99999
0.99999
0.99999
0.99999
0.99999
0.99999
0.99999
0.99999
0.99999
0.99999
0.99999
0.99999
0.99999
0.99999
0.99999
0.99999
0.99999
0.99999
0.99999
0.999989
0.999984
0.999977
0.99997
0.999961
0.999946
0.999899
0.999895
0.999562
0.998713
0.942788
0.0519356
0.000166268
6.6386e-07
6.73081e-07
6.69456e-07
6.77633e-07
6.91302e-07
7.01032e-07
7.03852e-07
7.06982e-07
7.12131e-07
7.14792e-07
7.14573e-07
7.12492e-07
7.08232e-07
7.03158e-07
6.98221e-07
6.93714e-07
6.89764e-07
6.91417e-07
6.98472e-07
7.0092e-07
6.81608e-07
6.45497e-07
6.2249e-07
6.09696e-07
6.02707e-07
6.05901e-07
6.19099e-07
6.37569e-07
6.59932e-07
6.9346e-07
7.07124e-07
6.3688e-07
4.49695e-07
3.83667e-07
0.999995
0.999994
0.999994
0.999993
0.999993
0.999992
0.999991
0.99999
0.99999
0.99999
0.99999
0.99999
0.99999
0.99999
0.99999
0.99999
0.99999
0.99999
0.99999
0.99999
0.99999
0.99999
0.99999
0.99999
0.99999
0.99999
0.99999
0.99999
0.99999
0.99999
0.99999
0.99999
0.99999
0.99999
0.99999
0.99999
0.99999
0.99999
0.99999
0.99999
0.99999
0.99999
0.99999
0.99999
0.99999
0.99999
0.99999
0.99999
0.99999
0.999988
0.999984
0.999978
0.999971
0.99996
0.99993
0.999889
0.99989
0.999705
0.999442
0.935264
0.0575929
0.000141667
7.71072e-07
6.63889e-07
6.63889e-07
7.00645e-07
7.18102e-07
7.12818e-07
7.07483e-07
7.05213e-07
7.04646e-07
7.04387e-07
7.03032e-07
7.00134e-07
6.98167e-07
6.9603e-07
6.94161e-07
6.94886e-07
6.94516e-07
6.90611e-07
6.77314e-07
6.49505e-07
6.32712e-07
6.18731e-07
6.05361e-07
5.90348e-07
5.75602e-07
5.81237e-07
6.00021e-07
6.42404e-07
6.87524e-07
7.1531e-07
7.11701e-07
6.34796e-07
4.5859e-07
3.84206e-07
0.999996
0.999995
0.999994
0.999994
0.999993
0.999993
0.999991
0.999991
0.99999
0.99999
0.99999
0.99999
0.99999
0.99999
0.99999
0.99999
0.99999
0.99999
0.99999
0.99999
0.99999
0.99999
0.99999
0.99999
0.99999
0.99999
0.99999
0.99999
0.99999
0.99999
0.99999
0.99999
0.99999
0.99999
0.99999
0.99999
0.99999
0.99999
0.99999
0.99999
0.99999
0.99999
0.99999
0.99999
0.99999
0.99999
0.99999
0.99999
0.99999
0.999989
0.999986
0.99998
0.999972
0.999956
0.999908
0.999873
0.999839
0.999761
0.999896
0.894349
0.0374783
0.000102983
3.10341e-05
6.07673e-06
1.7794e-06
8.30114e-07
8.46782e-07
6.05388e-07
5.95859e-07
5.95887e-07
5.95944e-07
5.96015e-07
5.96101e-07
5.96194e-07
5.96296e-07
5.96397e-07
5.96504e-07
5.96631e-07
5.96759e-07
5.96884e-07
6.04331e-07
6.52352e-07
6.70244e-07
6.72485e-07
6.536e-07
6.46613e-07
6.38052e-07
6.52356e-07
6.6314e-07
6.93839e-07
7.15715e-07
7.20391e-07
7.01793e-07
5.98072e-07
4.40339e-07
3.7659e-07
0.999996
0.999996
0.999995
0.999994
0.999994
0.999993
0.999992
0.999991
0.99999
0.99999
0.99999
0.99999
0.99999
0.99999
0.99999
0.99999
0.99999
0.99999
0.99999
0.99999
0.99999
0.99999
0.99999
0.99999
0.99999
0.99999
0.99999
0.99999
0.99999
0.99999
0.99999
0.99999
0.99999
0.99999
0.99999
0.99999
0.99999
0.99999
0.99999
0.99999
0.99999
0.99999
0.99999
0.99999
0.99999
0.99999
0.99999
0.99999
0.99999
0.999989
0.999987
0.99998
0.999964
0.999925
0.999878
0.999843
0.999848
0.999805
0.999968
0.814898
0.0204474
0.00109293
0.000868462
0.000474097
0.000269213
0.000147118
6.99566e-05
3.3745e-05
2.15801e-05
1.77257e-05
1.79715e-05
2.30117e-05
2.68964e-05
2.77747e-05
2.78638e-05
2.51645e-05
2.30903e-05
2.29269e-05
2.31461e-05
1.9193e-05
1.25709e-05
7.42162e-06
4.57003e-06
2.8489e-06
1.73981e-06
1.13651e-06
9.66102e-07
5.57774e-07
4.50645e-07
5.56409e-07
6.68534e-07
6.1779e-07
5.22236e-07
3.44248e-07
3.39425e-07
3.39425e-07
0.999996
0.999996
0.999995
0.999995
0.999994
0.999994
0.999993
0.999992
0.999991
0.99999
0.99999
0.99999
0.99999
0.99999
0.99999
0.99999
0.99999
0.99999
0.99999
0.99999
0.99999
0.99999
0.99999
0.99999
0.99999
0.99999
0.99999
0.99999
0.99999
0.99999
0.99999
0.99999
0.99999
0.99999
0.99999
0.99999
0.99999
0.99999
0.99999
0.99999
0.99999
0.99999
0.99999
0.99999
0.99999
0.99999
0.99999
0.99999
0.99999
0.999988
0.999985
0.999978
0.999948
0.999912
0.999885
0.999884
0.999899
0.999865
0.99999
0.70372
0.00814896
0.0042779
0.00473867
0.00461637
0.00405754
0.00370233
0.00303513
0.00225118
0.00170396
0.00137252
0.00133005
0.00142612
0.00172189
0.00224247
0.00258785
0.00249726
0.00182337
0.00151744
0.00133438
0.00128821
0.00135166
0.00143063
0.00127063
0.00101647
0.00102567
0.00115874
0.00118672
0.000589469
0.000154353
4.89941e-07
4.89941e-07
4.89941e-07
4.89941e-07
2.22892e-05
2.89999e-05
2.60852e-05
0.999996
0.999996
0.999996
0.999996
0.999995
0.999994
0.999993
0.999992
0.999991
0.999991
0.99999
0.99999
0.99999
0.99999
0.99999
0.99999
0.99999
0.99999
0.99999
0.99999
0.99999
0.99999
0.99999
0.99999
0.99999
0.99999
0.99999
0.99999
0.99999
0.99999
0.99999
0.99999
0.99999
0.99999
0.99999
0.99999
0.99999
0.99999
0.99999
0.99999
0.99999
0.99999
0.99999
0.99999
0.99999
0.99999
0.99999
0.99999
0.99999
0.999988
0.999985
0.999974
0.999928
0.999911
0.999909
0.999912
0.999934
0.999915
0.99999
0.658718
0.0129847
0.00758026
0.00915595
0.0104708
0.0110985
0.0114005
0.0115512
0.0111011
0.0108433
0.00975264
0.00916273
0.00926743
0.0106001
0.0125298
0.0133
0.0134386
0.0127407
0.0120071
0.0120196
0.0122161
0.0123394
0.0120251
0.0108343
0.0105155
0.0118928
0.0156848
0.0178669
0.0184032
0.0183693
0.016945
0.0161268
0.0159843
0.0161111
0.014648
0.0123828
0.00915805
0.999996
0.999996
0.999996
0.999996
0.999995
0.999994
0.999993
0.999992
0.999991
0.999991
0.99999
0.99999
0.99999
0.99999
0.99999
0.99999
0.99999
0.99999
0.99999
0.99999
0.99999
0.99999
0.99999
0.99999
0.99999
0.99999
0.99999
0.99999
0.99999
0.99999
0.99999
0.99999
0.99999
0.99999
0.99999
0.99999
0.99999
0.99999
0.99999
0.99999
0.99999
0.99999
0.99999
0.99999
0.99999
0.99999
0.99999
0.99999
0.99999
0.999988
0.999986
0.999979
0.999951
0.999914
0.999895
0.999899
0.999917
0.999867
0.99999
0.793684
0.0116193
0.00409125
0.00400693
0.00416102
0.00461056
0.00464895
0.0047595
0.00573604
0.00604906
0.0056379
0.00565768
0.0053784
0.00461948
0.0045133
0.00435787
0.00384834
0.00342206
0.00286045
0.00232115
0.00211466
0.00195483
0.00157732
0.00139628
0.00148954
0.00181825
0.00196591
0.00203579
0.00214028
0.00227137
0.00222659
0.00192636
0.00182793
0.00134115
0.000806395
0.000310765
6.66637e-05
0.999996
0.999996
0.999996
0.999996
0.999995
0.999994
0.999993
0.999992
0.999991
0.999991
0.99999
0.99999
0.99999
0.99999
0.99999
0.99999
0.99999
0.99999
0.99999
0.99999
0.99999
0.99999
0.99999
0.99999
0.99999
0.99999
0.99999
0.99999
0.99999
0.99999
0.99999
0.99999
0.99999
0.99999
0.99999
0.99999
0.99999
0.99999
0.99999
0.99999
0.99999
0.99999
0.99999
0.99999
0.99999
0.99999
0.99999
0.99999
0.99999
0.999989
0.999987
0.999982
0.999973
0.999938
0.999906
0.999895
0.99989
0.999799
0.999916
0.899668
0.0356093
0.000887496
0.000666477
0.000449326
0.000442949
0.000514855
0.000578298
0.000645158
0.000677512
0.000650682
0.00050043
0.000371439
0.000290478
0.000217271
0.000146654
9.31577e-05
6.15728e-05
3.57879e-05
1.53803e-05
5.87777e-06
2.33803e-06
8.70309e-07
3.60395e-07
4.98757e-06
1.17612e-05
9.62951e-06
7.88717e-06
7.16187e-06
7.38523e-06
7.35891e-06
6.30084e-06
4.66314e-06
2.37186e-06
9.92037e-07
3.93713e-07
1.9384e-07
0.999996
0.999996
0.999995
0.999995
0.999995
0.999994
0.999993
0.999992
0.999991
0.99999
0.99999
0.99999
0.99999
0.99999
0.99999
0.99999
0.99999
0.99999
0.99999
0.99999
0.99999
0.99999
0.99999
0.99999
0.99999
0.99999
0.99999
0.99999
0.99999
0.99999
0.99999
0.99999
0.99999
0.99999
0.99999
0.99999
0.99999
0.99999
0.99999
0.99999
0.99999
0.99999
0.99999
0.99999
0.99999
0.99999
0.99999
0.99999
0.99999
0.999989
0.999987
0.999983
0.999976
0.999952
0.999928
0.999902
0.999907
0.999712
0.999843
0.949476
0.0615921
0.000107402
1.97202e-05
7.48968e-06
6.12492e-06
4.96713e-06
5.29788e-06
5.88981e-06
6.07675e-06
5.22073e-06
3.05395e-06
1.78154e-06
1.43299e-06
1.1965e-06
9.22223e-07
6.71938e-07
5.45199e-07
5.08709e-07
5.08589e-07
5.08873e-07
5.17945e-07
5.08793e-07
4.98594e-07
4.84651e-07
4.5997e-07
4.30134e-07
4.04164e-07
3.8073e-07
3.50756e-07
2.92291e-07
2.3439e-07
2.35226e-07
2.27936e-07
2.09019e-07
1.9384e-07
1.9384e-07
0.999997
0.999997
0.999995
0.999995
0.999995
0.999994
0.999993
0.999992
0.999991
0.99999
0.99999
0.99999
0.99999
0.99999
0.99999
0.99999
0.99999
0.99999
0.99999
0.99999
0.99999
0.99999
0.99999
0.99999
0.99999
0.99999
0.99999
0.99999
0.99999
0.99999
0.99999
0.99999
0.99999
0.99999
0.99999
0.99999
0.99999
0.99999
0.99999
0.99999
0.99999
0.99999
0.99999
0.99999
0.99999
0.99999
0.99999
0.99999
0.99999
0.999989
0.999988
0.999985
0.99998
0.999959
0.99993
0.999894
0.999895
0.999575
0.999742
0.971439
0.0670633
0.000123195
3.19276e-07
3.63343e-07
5.69775e-07
5.7933e-07
5.66997e-07
5.27821e-07
4.83456e-07
5.14219e-07
8.3395e-07
9.81219e-07
7.32272e-07
6.85288e-07
5.43958e-07
5.24351e-07
5.23949e-07
5.21417e-07
5.25461e-07
5.26446e-07
5.18516e-07
5.02991e-07
4.8168e-07
4.58811e-07
4.35475e-07
4.13051e-07
3.93356e-07
3.77037e-07
3.65386e-07
3.51059e-07
3.22079e-07
2.55484e-07
2.31251e-07
2.27618e-07
2.08735e-07
1.9384e-07
0.999998
0.999997
0.999997
0.999995
0.999995
0.999994
0.999992
0.999991
0.99999
0.99999
0.99999
0.99999
0.99999
0.99999
0.99999
0.99999
0.99999
0.99999
0.99999
0.99999
0.99999
0.99999
0.99999
0.99999
0.99999
0.99999
0.99999
0.99999
0.99999
0.99999
0.99999
0.99999
0.99999
0.99999
0.99999
0.99999
0.99999
0.99999
0.99999
0.99999
0.99999
0.99999
0.99999
0.99999
0.99999
0.99999
0.99999
0.99999
0.99999
0.999989
0.999989
0.999985
0.99998
0.999969
0.999944
0.999901
0.999868
0.999474
0.999565
0.976249
0.0710378
0.000226226
3.19276e-07
3.78583e-07
4.09418e-07
4.5169e-07
4.86793e-07
4.87098e-07
4.81358e-07
4.68072e-07
4.56896e-07
4.58496e-07
4.64003e-07
4.79422e-07
4.96657e-07
5.17394e-07
5.1907e-07
5.11948e-07
4.94568e-07
4.69591e-07
4.42979e-07
4.18847e-07
3.99797e-07
3.87455e-07
3.7859e-07
3.71247e-07
3.6327e-07
3.56077e-07
3.50109e-07
3.44597e-07
3.39213e-07
3.14058e-07
2.63353e-07
2.45551e-07
2.34933e-07
2.12133e-07
0.999998
0.999997
0.999997
0.999997
0.999997
0.999996
0.999993
0.999991
0.99999
0.99999
0.99999
0.99999
0.99999
0.99999
0.99999
0.99999
0.99999
0.99999
0.99999
0.99999
0.99999
0.99999
0.99999
0.99999
0.99999
0.99999
0.99999
0.99999
0.99999
0.99999
0.99999
0.99999
0.99999
0.99999
0.99999
0.99999
0.99999
0.99999
0.99999
0.99999
0.99999
0.99999
0.99999
0.99999
0.99999
0.99999
0.99999
0.99999
0.99999
0.99999
0.999989
0.999986
0.99998
0.999969
0.999958
0.999925
0.999848
0.999395
0.999462
0.973238
0.0711355
0.000294622
3.32979e-07
3.66583e-07
3.96306e-07
4.16546e-07
4.29602e-07
4.27999e-07
4.21396e-07
4.11591e-07
4.03195e-07
3.96601e-07
3.93872e-07
3.92937e-07
3.90658e-07
3.85822e-07
3.78305e-07
3.68769e-07
3.58036e-07
3.48499e-07
3.41044e-07
3.36304e-07
3.36915e-07
3.39909e-07
3.43009e-07
3.46521e-07
3.45784e-07
3.431e-07
3.39506e-07
3.35047e-07
3.31238e-07
3.26723e-07
3.0784e-07
2.81682e-07
2.66132e-07
2.33604e-07
0.999998
0.999998
0.999998
0.999998
0.999998
0.999998
0.999996
0.999991
0.99999
0.99999
0.99999
0.99999
0.99999
0.99999
0.99999
0.99999
0.99999
0.99999
0.99999
0.99999
0.99999
0.99999
0.99999
0.99999
0.99999
0.99999
0.99999
0.99999
0.99999
0.99999
0.99999
0.99999
0.99999
0.99999
0.99999
0.99999
0.99999
0.99999
0.99999
0.99999
0.99999
0.99999
0.99999
0.99999
0.99999
0.99999
0.99999
0.99999
0.99999
0.99999
0.999989
0.999987
0.999982
0.999958
0.999955
0.999941
0.999755
0.999208
0.999086
0.969681
0.067261
0.000385025
6.8934e-07
3.92314e-07
3.82289e-07
3.73707e-07
3.64977e-07
3.54802e-07
3.46224e-07
3.43841e-07
3.43943e-07
3.43383e-07
3.39648e-07
3.33122e-07
3.27873e-07
3.24269e-07
3.20491e-07
3.15578e-07
3.09887e-07
3.0489e-07
3.01185e-07
3.01582e-07
3.05194e-07
3.13812e-07
3.2271e-07
3.32903e-07
3.35202e-07
3.33378e-07
3.30695e-07
3.27377e-07
3.24188e-07
3.22044e-07
3.17407e-07
3.08046e-07
2.94111e-07
2.47799e-07
0.999998
0.999998
0.999998
0.999998
0.999998
0.999998
0.999998
0.999993
0.99999
0.99999
0.99999
0.99999
0.99999
0.99999
0.99999
0.99999
0.99999
0.99999
0.99999
0.99999
0.99999
0.99999
0.99999
0.99999
0.99999
0.99999
0.99999
0.99999
0.99999
0.99999
0.99999
0.99999
0.99999
0.99999
0.99999
0.99999
0.99999
0.99999
0.99999
0.99999
0.99999
0.99999
0.99999
0.99999
0.99999
0.99999
0.99999
0.99999
0.99999
0.99999
0.99999
0.999987
0.999982
0.99996
0.999952
0.999872
0.99985
0.999362
0.999363
0.958953
0.0650733
0.000384732
8.86506e-07
3.97096e-07
3.98128e-07
3.9878e-07
4.04664e-07
4.20284e-07
4.3099e-07
4.29612e-07
4.15931e-07
3.82651e-07
3.38005e-07
2.97638e-07
2.74495e-07
2.69021e-07
2.68977e-07
2.69551e-07
2.70998e-07
2.73249e-07
2.75696e-07
2.78981e-07
2.85921e-07
2.98002e-07
3.10218e-07
3.22238e-07
3.2811e-07
3.25809e-07
3.23047e-07
3.1996e-07
3.18232e-07
3.16122e-07
3.1145e-07
3.05338e-07
2.90783e-07
2.37858e-07
0.999993
0.999992
0.999992
0.999992
0.999992
0.999991
0.999991
0.99999
0.99999
0.99999
0.99999
0.99999
0.99999
0.99999
0.99999
0.99999
0.99999
0.99999
0.99999
0.99999
0.99999
0.99999
0.99999
0.99999
0.99999
0.99999
0.99999
0.99999
0.99999
0.99999
0.99999
0.99999
0.99999
0.99999
0.99999
0.99999
0.99999
0.99999
0.99999
0.99999
0.99999
0.99999
0.99999
0.99999
0.99999
0.99999
0.99999
0.99999
0.99999
0.999989
0.999986
0.99998
0.999968
0.999954
0.999947
0.999908
0.999868
0.999394
0.996412
0.912045
0.034229
0.000166676
6.92149e-07
6.66361e-07
6.69241e-07
6.71407e-07
6.71166e-07
6.71016e-07
6.71244e-07
6.71534e-07
6.71771e-07
6.72005e-07
6.72191e-07
6.72366e-07
6.72653e-07
6.73353e-07
6.74924e-07
6.77388e-07
6.79923e-07
6.82073e-07
6.85202e-07
6.89588e-07
6.91293e-07
6.91286e-07
6.91605e-07
6.92677e-07
6.95181e-07
6.98992e-07
7.03253e-07
7.07656e-07
7.12303e-07
7.17436e-07
7.16142e-07
7.00082e-07
6.28996e-07
4.63843e-07
0.999994
0.999993
0.999993
0.999992
0.999992
0.999991
0.999991
0.999991
0.999991
0.99999
0.99999
0.99999
0.99999
0.99999
0.99999
0.99999
0.99999
0.99999
0.99999
0.99999
0.99999
0.99999
0.99999
0.99999
0.99999
0.99999
0.99999
0.99999
0.99999
0.99999
0.99999
0.99999
0.99999
0.99999
0.99999
0.99999
0.99999
0.99999
0.99999
0.99999
0.99999
0.99999
0.99999
0.99999
0.99999
0.99999
0.99999
0.99999
0.99999
0.999989
0.999986
0.999979
0.999968
0.999955
0.999951
0.999914
0.999832
0.999422
0.997815
0.913005
0.0215249
1.7708e-05
6.63859e-07
6.91864e-07
7.04713e-07
7.12981e-07
7.13182e-07
7.10443e-07
7.02964e-07
6.9251e-07
6.83533e-07
6.79107e-07
6.77925e-07
6.77611e-07
6.77261e-07
6.77276e-07
6.77538e-07
6.78454e-07
6.80179e-07
6.82593e-07
6.86455e-07
6.89508e-07
6.90684e-07
6.92897e-07
6.95866e-07
6.95142e-07
6.93816e-07
6.94436e-07
6.95218e-07
6.92308e-07
6.88274e-07
6.91996e-07
7.01448e-07
6.96899e-07
6.3947e-07
4.73982e-07
0.999995
0.999994
0.999993
0.999993
0.999992
0.999992
0.999992
0.999991
0.999991
0.999991
0.99999
0.99999
0.99999
0.99999
0.99999
0.99999
0.99999
0.99999
0.99999
0.99999
0.99999
0.99999
0.99999
0.99999
0.99999
0.99999
0.99999
0.99999
0.99999
0.99999
0.99999
0.99999
0.99999
0.99999
0.99999
0.99999
0.99999
0.99999
0.99999
0.99999
0.99999
0.99999
0.99999
0.99999
0.99999
0.99999
0.99999
0.99999
0.99999
0.999989
0.999985
0.999979
0.999973
0.999956
0.999956
0.999901
0.999878
0.999613
0.999032
0.913477
0.0154232
1.12909e-06
7.1329e-07
7.65759e-07
7.77079e-07
7.90443e-07
7.9078e-07
7.7719e-07
7.43543e-07
7.18904e-07
7.14597e-07
7.14622e-07
7.14321e-07
7.11856e-07
7.05637e-07
6.97649e-07
6.90813e-07
6.84824e-07
6.8229e-07
6.82905e-07
6.8753e-07
6.94273e-07
6.9425e-07
6.92668e-07
6.91992e-07
6.89392e-07
6.77534e-07
6.5501e-07
6.42346e-07
6.39853e-07
6.41398e-07
6.54658e-07
6.84124e-07
7.01151e-07
6.50978e-07
4.89038e-07
0.999996
0.999995
0.999993
0.999993
0.999993
0.999992
0.999992
0.999992
0.999991
0.999991
0.99999
0.99999
0.99999
0.99999
0.99999
0.99999
0.99999
0.99999
0.99999
0.99999
0.99999
0.99999
0.99999
0.99999
0.99999
0.99999
0.99999
0.99999
0.99999
0.99999
0.99999
0.99999
0.99999
0.99999
0.99999
0.99999
0.99999
0.99999
0.99999
0.99999
0.99999
0.99999
0.99999
0.99999
0.99999
0.99999
0.99999
0.99999
0.99999
0.999988
0.999985
0.999979
0.999973
0.999965
0.999943
0.999866
0.999838
0.999588
0.9995
0.903313
0.0147313
2.92567e-06
3.87159e-06
6.63889e-07
9.38611e-07
8.36582e-07
7.61524e-07
7.17489e-07
7.05845e-07
7.09423e-07
7.14727e-07
7.09997e-07
6.93498e-07
6.76989e-07
6.74677e-07
6.74651e-07
6.82665e-07
7.03526e-07
7.16153e-07
7.23867e-07
7.29136e-07
7.29759e-07
7.30009e-07
6.95717e-07
6.68166e-07
6.43159e-07
6.05232e-07
5.83547e-07
5.83231e-07
6.04266e-07
6.5058e-07
6.77529e-07
6.99064e-07
7.01613e-07
6.57844e-07
4.92284e-07
0.999996
0.999996
0.999994
0.999993
0.999992
0.999992
0.999992
0.999992
0.999991
0.999991
0.99999
0.99999
0.99999
0.99999
0.99999
0.99999
0.99999
0.99999
0.99999
0.99999
0.99999
0.99999
0.99999
0.99999
0.99999
0.99999
0.99999
0.99999
0.99999
0.99999
0.99999
0.99999
0.99999
0.99999
0.99999
0.99999
0.99999
0.99999
0.99999
0.99999
0.99999
0.99999
0.99999
0.99999
0.99999
0.99999
0.99999
0.99999
0.99999
0.999989
0.999986
0.99998
0.999965
0.999938
0.999884
0.999808
0.999738
0.99975
0.999868
0.854923
0.0140459
0.0004304
0.000233854
5.23002e-05
1.79833e-05
5.70586e-06
2.30894e-06
8.81237e-07
5.96007e-07
1.17887e-06
2.6328e-06
1.72626e-06
5.96225e-07
6.3084e-07
1.39719e-06
2.06231e-06
1.35529e-06
1.01132e-06
9.01484e-07
7.29332e-07
6.44642e-07
7.13379e-07
7.1208e-07
7.682e-07
7.56235e-07
7.18452e-07
6.05591e-07
6.40806e-07
6.50985e-07
7.02179e-07
7.01381e-07
7.08811e-07
7.0877e-07
7.01509e-07
6.4617e-07
4.81437e-07
0.999997
0.999996
0.999995
0.999993
0.999992
0.999992
0.999992
0.999992
0.999991
0.999991
0.99999
0.99999
0.99999
0.99999
0.99999
0.99999
0.99999
0.99999
0.99999
0.99999
0.99999
0.99999
0.99999
0.99999
0.99999
0.99999
0.99999
0.99999
0.99999
0.99999
0.99999
0.99999
0.99999
0.99999
0.99999
0.99999
0.99999
0.99999
0.99999
0.99999
0.99999
0.99999
0.99999
0.99999
0.99999
0.99999
0.99999
0.99999
0.99999
0.999989
0.999987
0.999979
0.999951
0.999883
0.999822
0.999834
0.999861
0.999942
0.99999
0.680048
0.0163312
0.00785776
0.00628634
0.00382049
0.00244195
0.00154713
0.00101941
0.00072473
0.000563202
0.000521081
0.000527447
0.000558835
0.000617857
0.000640304
0.000631426
0.000579228
0.000559177
0.000525571
0.000531509
0.000577631
0.000520864
0.000425139
0.000353021
0.000241674
0.000150402
8.8598e-05
4.27737e-05
1.47656e-05
3.00285e-06
5.55356e-07
9.24742e-07
6.47946e-07
6.32576e-07
6.37593e-07
5.81088e-07
4.11296e-07
0.999997
0.999997
0.999996
0.999994
0.999993
0.999993
0.999992
0.999992
0.999991
0.999991
0.99999
0.99999
0.99999
0.99999
0.99999
0.99999
0.99999
0.99999
0.99999
0.99999
0.99999
0.99999
0.99999
0.99999
0.99999
0.99999
0.99999
0.99999
0.99999
0.99999
0.99999
0.99999
0.99999
0.99999
0.99999
0.99999
0.99999
0.99999
0.99999
0.99999
0.99999
0.99999
0.99999
0.99999
0.99999
0.99999
0.99999
0.99999
0.99999
0.999989
0.999987
0.999974
0.999931
0.999878
0.99987
0.999914
0.999953
0.999981
0.99999
0.49144
0.0398894
0.0343787
0.0338683
0.0307523
0.0280306
0.0255371
0.023517
0.0222584
0.0214177
0.0211217
0.0213449
0.0218014
0.022198
0.0226808
0.0233145
0.0242709
0.0251877
0.0258068
0.0262205
0.0263914
0.025635
0.0246874
0.0227011
0.020283
0.0178069
0.0157661
0.0128278
0.00876741
0.00571415
0.00318387
0.00145895
0.00138817
0.00145012
0.00170982
0.00210256
0.0024645
0.999997
0.999997
0.999997
0.999996
0.999995
0.999994
0.999992
0.999992
0.999991
0.999991
0.99999
0.99999
0.99999
0.99999
0.99999
0.99999
0.99999
0.99999
0.99999
0.99999
0.99999
0.99999
0.99999
0.99999
0.99999
0.99999
0.99999
0.99999
0.99999
0.99999
0.99999
0.99999
0.99999
0.99999
0.99999
0.99999
0.99999
0.99999
0.99999
0.99999
0.99999
0.99999
0.99999
0.99999
0.99999
0.99999
0.99999
0.99999
0.99999
0.999989
0.999987
0.999968
0.999911
0.9999
0.999902
0.999924
0.999948
0.999971
0.99999
0.470661
0.057026
0.0530276
0.0548246
0.0550641
0.055977
0.0567898
0.0581835
0.0604802
0.0637533
0.0667825
0.0687889
0.0698844
0.0705233
0.0711365
0.0718299
0.0727212
0.073794
0.0752739
0.0772091
0.0797095
0.0823607
0.0848046
0.0871027
0.0894253
0.0933775
0.102427
0.11089
0.114913
0.118142
0.123364
0.129867
0.13725
0.147991
0.16641
0.212323
0.406734
0.999997
0.999997
0.999997
0.999997
0.999996
0.999995
0.999993
0.999992
0.999991
0.999991
0.99999
0.99999
0.99999
0.99999
0.99999
0.99999
0.99999
0.99999
0.99999
0.99999
0.99999
0.99999
0.99999
0.99999
0.99999
0.99999
0.99999
0.99999
0.99999
0.99999
0.99999
0.99999
0.99999
0.99999
0.99999
0.99999
0.99999
0.99999
0.99999
0.99999
0.99999
0.99999
0.99999
0.99999
0.99999
0.99999
0.99999
0.99999
0.99999
0.99999
0.999988
0.999983
0.999966
0.999882
0.999863
0.999879
0.999903
0.999951
0.99999
0.738344
0.0174363
0.00388408
0.00352818
0.00343802
0.00354617
0.00370462
0.00393631
0.00404815
0.00413654
0.00405354
0.00384024
0.00353471
0.00328177
0.0030257
0.00287631
0.00285952
0.00315465
0.00324568
0.0033612
0.0037309
0.00400911
0.00422053
0.00453396
0.00478825
0.00507573
0.00487897
0.0043125
0.00388666
0.00402585
0.00352479
0.00235906
0.00130972
0.000511884
4.79938e-05
2.4317e-05
7.68657e-06
0.999997
0.999997
0.999997
0.999997
0.999997
0.999995
0.999994
0.999992
0.999991
0.99999
0.99999
0.99999
0.99999
0.99999
0.99999
0.99999
0.99999
0.99999
0.99999
0.99999
0.99999
0.99999
0.99999
0.99999
0.99999
0.99999
0.99999
0.99999
0.99999
0.99999
0.99999
0.99999
0.99999
0.99999
0.99999
0.99999
0.99999
0.99999
0.99999
0.99999
0.99999
0.99999
0.99999
0.99999
0.99999
0.99999
0.99999
0.99999
0.99999
0.99999
0.999988
0.999984
0.999981
0.999961
0.999908
0.99986
0.999838
0.999825
0.9999
0.89327
0.00593554
0.000126823
9.45079e-05
6.22968e-05
5.37629e-05
4.68233e-05
3.81556e-05
2.60299e-05
1.54869e-05
7.05884e-06
2.23221e-06
5.56826e-07
5.5663e-07
5.56826e-07
5.5663e-07
3.38885e-06
4.79302e-06
6.10434e-06
7.47164e-06
8.22731e-06
9.86136e-06
1.19459e-05
1.34257e-05
1.52145e-05
1.48127e-05
1.18576e-05
7.56042e-06
3.85323e-06
1.85096e-06
7.5374e-07
4.30367e-07
1.93841e-07
1.9384e-07
1.93841e-07
1.93841e-07
1.9384e-07
0.999998
0.999997
0.999997
0.999997
0.999997
0.999996
0.999994
0.999992
0.999991
0.99999
0.99999
0.99999
0.99999
0.99999
0.99999
0.99999
0.99999
0.99999
0.99999
0.99999
0.99999
0.99999
0.99999
0.99999
0.99999
0.99999
0.99999
0.99999
0.99999
0.99999
0.99999
0.99999
0.99999
0.99999
0.99999
0.99999
0.99999
0.99999
0.99999
0.99999
0.99999
0.99999
0.99999
0.99999
0.99999
0.99999
0.99999
0.99999
0.99999
0.99999
0.999988
0.999985
0.999981
0.999964
0.999949
0.999899
0.999912
0.999731
0.999738
0.956553
0.0253526
3.36067e-07
4.74151e-06
1.83351e-06
1.48014e-06
8.91409e-07
7.96467e-07
1.08279e-06
1.34872e-06
1.3119e-06
8.92236e-07
7.5582e-07
7.98589e-07
6.18439e-07
5.64267e-07
5.5504e-07
5.55048e-07
5.55694e-07
5.5963e-07
5.62364e-07
5.60035e-07
5.57284e-07
5.56191e-07
5.61144e-07
5.6237e-07
5.5697e-07
5.39189e-07
4.87304e-07
4.2478e-07
3.631e-07
2.75867e-07
2.53663e-07
2.53425e-07
2.51837e-07
2.33048e-07
2.05842e-07
0.999998
0.999997
0.999997
0.999996
0.999997
0.999996
0.999994
0.999992
0.999991
0.99999
0.99999
0.99999
0.99999
0.99999
0.99999
0.99999
0.99999
0.99999
0.99999
0.99999
0.99999
0.99999
0.99999
0.99999
0.99999
0.99999
0.99999
0.99999
0.99999
0.99999
0.99999
0.99999
0.99999
0.99999
0.99999
0.99999
0.99999
0.99999
0.99999
0.99999
0.99999
0.99999
0.99999
0.99999
0.99999
0.99999
0.99999
0.99999
0.99999
0.99999
0.999989
0.999986
0.999982
0.999963
0.99995
0.999911
0.999911
0.999653
0.99955
0.971156
0.0353912
3.36067e-07
1.0053e-06
5.54163e-07
8.06514e-07
7.894e-07
7.63908e-07
7.25666e-07
6.7622e-07
6.32042e-07
7.2717e-07
8.96268e-07
8.10293e-07
7.27359e-07
6.1175e-07
5.63763e-07
5.47849e-07
5.47983e-07
5.57915e-07
5.69413e-07
5.73829e-07
5.73134e-07
5.67097e-07
5.53515e-07
5.20648e-07
4.87287e-07
4.50297e-07
4.09664e-07
3.76283e-07
3.5681e-07
3.30149e-07
2.6889e-07
2.46194e-07
2.63024e-07
2.5803e-07
2.21972e-07
0.999998
0.999997
0.999997
0.999997
0.999997
0.999995
0.999993
0.999992
0.999991
0.99999
0.99999
0.99999
0.99999
0.99999
0.99999
0.99999
0.99999
0.99999
0.99999
0.99999
0.99999
0.99999
0.99999
0.99999
0.99999
0.99999
0.99999
0.99999
0.99999
0.99999
0.99999
0.99999
0.99999
0.99999
0.99999
0.99999
0.99999
0.99999
0.99999
0.99999
0.99999
0.99999
0.99999
0.99999
0.99999
0.99999
0.99999
0.99999
0.99999
0.99999
0.999989
0.999987
0.999982
0.99996
0.999955
0.999923
0.999887
0.999513
0.99921
0.977437
0.0856357
3.36066e-07
7.96546e-07
7.55127e-07
6.90951e-07
6.84264e-07
6.71394e-07
6.6146e-07
6.48313e-07
6.2912e-07
5.9658e-07
5.64034e-07
5.34679e-07
5.19139e-07
5.19718e-07
5.24292e-07
5.25847e-07
5.21632e-07
5.14786e-07
5.16744e-07
5.22794e-07
5.27997e-07
5.24971e-07
5.11159e-07
4.83492e-07
4.56218e-07
4.24931e-07
3.82881e-07
3.4665e-07
3.38455e-07
3.34612e-07
3.16034e-07
2.74311e-07
2.57326e-07
2.66371e-07
2.34267e-07
0.999998
0.999998
0.999998
0.999998
0.999998
0.999996
0.999993
0.999991
0.999991
0.99999
0.99999
0.99999
0.99999
0.99999
0.99999
0.99999
0.99999
0.99999
0.99999
0.99999
0.99999
0.99999
0.99999
0.99999
0.99999
0.99999
0.99999
0.99999
0.99999
0.99999
0.99999
0.99999
0.99999
0.99999
0.99999
0.99999
0.99999
0.99999
0.99999
0.99999
0.99999
0.99999
0.99999
0.99999
0.99999
0.99999
0.99999
0.99999
0.99999
0.99999
0.999989
0.999987
0.999982
0.999959
0.999951
0.999934
0.99984
0.999381
0.999002
0.973788
0.089325
3.36067e-07
5.51468e-07
6.66115e-07
6.41069e-07
5.9973e-07
5.72686e-07
5.59866e-07
5.49195e-07
5.43352e-07
5.45544e-07
5.53049e-07
5.51774e-07
5.42907e-07
5.26825e-07
5.06529e-07
4.86873e-07
4.70846e-07
4.72932e-07
4.80885e-07
4.88792e-07
4.87941e-07
4.82737e-07
4.67355e-07
4.45719e-07
4.26663e-07
3.94941e-07
3.38867e-07
3.06721e-07
3.11738e-07
3.20448e-07
3.19915e-07
3.07917e-07
2.89073e-07
2.79358e-07
2.4407e-07
0.999998
0.999998
0.999998
0.999998
0.999998
0.999998
0.999995
0.999991
0.99999
0.99999
0.99999
0.99999
0.99999
0.99999
0.99999
0.99999
0.99999
0.99999
0.99999
0.99999
0.99999
0.99999
0.99999
0.99999
0.99999
0.99999
0.99999
0.99999
0.99999
0.99999
0.99999
0.99999
0.99999
0.99999
0.99999
0.99999
0.99999
0.99999
0.99999
0.99999
0.99999
0.99999
0.99999
0.99999
0.99999
0.99999
0.99999
0.99999
0.99999
0.99999
0.99999
0.999987
0.999982
0.999959
0.999948
0.999932
0.999766
0.999225
0.998368
0.963708
0.0869363
0.000180477
3.59118e-07
3.89998e-07
3.84642e-07
3.75413e-07
3.70608e-07
3.71176e-07
3.74764e-07
3.82276e-07
3.91356e-07
3.99111e-07
4.06689e-07
4.13538e-07
4.15288e-07
4.16018e-07
4.17953e-07
4.2266e-07
4.28487e-07
4.30797e-07
4.29799e-07
4.32062e-07
4.3968e-07
4.31512e-07
4.20205e-07
4.06687e-07
3.6532e-07
3.00916e-07
2.91419e-07
2.9914e-07
3.07128e-07
3.14129e-07
3.12533e-07
3.0786e-07
2.96486e-07
2.49328e-07
0.999999
0.999998
0.999998
0.999998
0.999998
0.999998
0.999997
0.999992
0.99999
0.99999
0.99999
0.99999
0.99999
0.99999
0.99999
0.99999
0.99999
0.99999
0.99999
0.99999
0.99999
0.99999
0.99999
0.99999
0.99999
0.99999
0.99999
0.99999
0.99999
0.99999
0.99999
0.99999
0.99999
0.99999
0.99999
0.99999
0.99999
0.99999
0.99999
0.99999
0.99999
0.99999
0.99999
0.99999
0.99999
0.99999
0.99999
0.99999
0.99999
0.99999
0.99999
0.999987
0.999981
0.999957
0.999954
0.99991
0.999798
0.999188
0.998504
0.958806
0.0936897
0.000663605
1.04121e-06
3.05474e-07
3.10095e-07
3.16027e-07
3.23483e-07
3.26563e-07
3.2541e-07
3.20339e-07
3.09342e-07
2.96941e-07
2.9417e-07
2.95236e-07
2.99396e-07
3.0738e-07
3.19288e-07
3.3526e-07
3.53277e-07
3.70219e-07
3.84399e-07
4.0047e-07
4.22207e-07
4.15247e-07
4.06309e-07
3.93482e-07
3.41331e-07