/*--------------------------------*- C++ -*----------------------------------*\
| =========                 |                                                 |
| \\      /  F ield         | OpenFOAM: The Open Source CFD Toolbox           |
|  \\    /   O peration     | Version:  2.3.0                                 |
|   \\  /    A nd           | Web:      www.OpenFOAM.org                      |
|    \\/     M anipulation  |                                                 |
\*---------------------------------------------------------------------------*/
FoamFile
{
    version     2.0;
    format      ascii;
    class       volScalarField;
    location    "23";
    object      nut.water;
}
// * * * * * * * * * * * * * * * * * * * * * * * * * * * * * * * * * * * * * //

dimensions      [0 2 -1 0 0 0 0];

internalField   nonuniform List<scalar> 
6144
(
1.16146e-05
1.01569e-05
9.01845e-06
8.67094e-06
7.86711e-06
7.61026e-06
6.87265e-06
6.29821e-06
6.15615e-06
6.62919e-06
7.06072e-06
7.41145e-06
7.51344e-06
7.54676e-06
7.33742e-06
7.23795e-06
7.07157e-06
7.02567e-06
7.00061e-06
7.00018e-06
7.00814e-06
7.02466e-06
7.04258e-06
7.06101e-06
7.07903e-06
7.0956e-06
7.10977e-06
7.12214e-06
7.13353e-06
7.14339e-06
7.15644e-06
7.16048e-06
7.17754e-06
7.16882e-06
7.22117e-06
7.18663e-06
7.27774e-06
7.21291e-06
7.36011e-06
7.28151e-06
7.51374e-06
7.45908e-06
7.68892e-06
7.73557e-06
7.66561e-06
7.68605e-06
7.40034e-06
7.39423e-06
7.58833e-06
8.82068e-06
1.06352e-05
1.21675e-05
1.49499e-05
2.13588e-05
2.96381e-05
3.2137e-05
3.84167e-05
5.62565e-05
8.8722e-05
0.000107774
0.000180592
0.000144034
0.000124425
0.000110998
9.99009e-05
9.279e-05
8.76565e-05
8.33157e-05
7.94527e-05
7.59666e-05
7.28885e-05
7.00973e-05
6.75254e-05
6.49486e-05
6.22525e-05
5.9439e-05
5.64711e-05
5.33181e-05
4.97929e-05
4.59415e-05
4.19952e-05
3.79727e-05
3.4498e-05
3.15031e-05
2.87421e-05
2.63607e-05
2.44065e-05
2.29292e-05
2.23064e-05
2.20377e-05
2.16404e-05
2.08821e-05
1.93935e-05
1.73534e-05
1.43402e-05
1.50205e-05
1.60581e-05
1.38644e-05
1.20019e-05
1.14233e-05
1.04906e-05
1.03639e-05
9.94147e-06
9.42079e-06
9.24902e-06
9.59098e-06
9.88704e-06
1.02424e-05
1.03802e-05
1.04406e-05
1.02831e-05
1.02027e-05
1.00893e-05
1.01147e-05
1.01679e-05
1.02439e-05
1.03215e-05
1.04036e-05
1.04765e-05
1.05416e-05
1.05999e-05
1.0655e-05
1.07075e-05
1.07564e-05
1.08016e-05
1.08427e-05
1.08836e-05
1.09155e-05
1.09615e-05
1.09819e-05
1.10729e-05
1.10568e-05
1.11823e-05
1.11175e-05
1.12954e-05
1.11873e-05
1.14289e-05
1.13229e-05
1.15358e-05
1.15103e-05
1.15584e-05
1.165e-05
1.1736e-05
1.18417e-05
1.21891e-05
1.33708e-05
1.49699e-05
1.74301e-05
2.13816e-05
2.99689e-05
4.59428e-05
5.20112e-05
6.1324e-05
7.32824e-05
9.1001e-05
0.000110674
0.00017489
0.000125055
9.74926e-05
8.0412e-05
7.25324e-05
6.96102e-05
6.78896e-05
6.64444e-05
6.54075e-05
6.4451e-05
6.35238e-05
6.24808e-05
6.11808e-05
5.98528e-05
5.84656e-05
5.6982e-05
5.52915e-05
5.33427e-05
5.06806e-05
4.74582e-05
4.39586e-05
3.9986e-05
3.64918e-05
3.27618e-05
2.91545e-05
2.7844e-05
2.82198e-05
2.92659e-05
2.95568e-05
2.9331e-05
2.82277e-05
2.62607e-05
2.35235e-05
2.01051e-05
1.76433e-05
1.58242e-05
1.88142e-05
1.66992e-05
1.39977e-05
1.30895e-05
1.177e-05
1.15416e-05
1.12693e-05
1.06911e-05
1.05271e-05
1.06441e-05
1.08493e-05
1.09969e-05
1.1093e-05
1.11307e-05
1.11246e-05
1.11472e-05
1.12332e-05
1.13713e-05
1.15058e-05
1.16515e-05
1.17901e-05
1.19217e-05
1.20353e-05
1.2136e-05
1.22261e-05
1.23122e-05
1.23957e-05
1.24752e-05
1.255e-05
1.26197e-05
1.26857e-05
1.27441e-05
1.28093e-05
1.28594e-05
1.29344e-05
1.29582e-05
1.30347e-05
1.30146e-05
1.30849e-05
1.30172e-05
1.30886e-05
1.30227e-05
1.31339e-05
1.32083e-05
1.35057e-05
1.38742e-05
1.41899e-05
1.48325e-05
1.47347e-05
1.63397e-05
1.81603e-05
2.24067e-05
2.79337e-05
3.70523e-05
6.08274e-05
6.78429e-05
7.20412e-05
8.10271e-05
9.10919e-05
0.000105108
0.000173877
0.000113234
7.93623e-05
6.60939e-05
6.4015e-05
6.30251e-05
6.24723e-05
6.24526e-05
6.24712e-05
6.24707e-05
6.20999e-05
6.13142e-05
6.00067e-05
5.85121e-05
5.70666e-05
5.54465e-05
5.38194e-05
5.18162e-05
4.96662e-05
4.73248e-05
4.29566e-05
3.74211e-05
3.3729e-05
3.30902e-05
3.4407e-05
3.59659e-05
3.69445e-05
3.7075e-05
3.66586e-05
3.51622e-05
3.31765e-05
3.07774e-05
2.81322e-05
2.43155e-05
2.2179e-05
1.75015e-05
2.17688e-05
1.98634e-05
1.6596e-05
1.54951e-05
1.30822e-05
1.21305e-05
1.07289e-05
1.02927e-05
1.05952e-05
1.08677e-05
1.12018e-05
1.12767e-05
1.13939e-05
1.14305e-05
1.14826e-05
1.15312e-05
1.16386e-05
1.17985e-05
1.19627e-05
1.2139e-05
1.23061e-05
1.246e-05
1.25923e-05
1.27094e-05
1.2816e-05
1.29181e-05
1.30172e-05
1.31123e-05
1.32031e-05
1.32886e-05
1.33693e-05
1.34443e-05
1.35231e-05
1.35914e-05
1.36743e-05
1.37193e-05
1.37962e-05
1.37993e-05
1.38573e-05
1.38225e-05
1.38619e-05
1.38721e-05
1.3939e-05
1.42268e-05
1.45122e-05
1.51387e-05
1.54548e-05
1.61604e-05
1.61588e-05
1.81433e-05
2.11062e-05
2.71054e-05
3.67619e-05
5.01775e-05
8.47643e-05
9.32432e-05
9.67455e-05
0.000104567
9.20293e-05
9.85332e-05
0.000172915
0.000101392
7.26225e-05
6.38382e-05
6.40329e-05
6.22435e-05
6.21704e-05
6.24809e-05
6.2083e-05
6.10648e-05
5.89798e-05
5.68708e-05
5.48389e-05
5.33496e-05
5.24119e-05
5.14792e-05
5.04435e-05
4.86918e-05
4.65645e-05
4.4726e-05
4.32393e-05
4.26072e-05
4.45475e-05
4.58733e-05
4.53406e-05
4.4093e-05
4.30901e-05
4.15072e-05
3.90385e-05
3.56547e-05
3.38919e-05
3.24378e-05
3.06634e-05
2.73656e-05
2.60821e-05
1.9169e-05
2.47484e-05
2.2415e-05
1.93839e-05
1.87104e-05
1.5705e-05
1.44458e-05
1.14622e-05
1.04993e-05
1.0582e-05
1.08695e-05
1.1314e-05
1.13089e-05
1.14375e-05
1.14664e-05
1.15509e-05
1.16323e-05
1.17936e-05
1.19975e-05
1.22236e-05
1.24555e-05
1.26619e-05
1.28369e-05
1.29865e-05
1.31192e-05
1.32403e-05
1.33537e-05
1.34616e-05
1.35648e-05
1.3664e-05
1.37586e-05
1.38484e-05
1.39347e-05
1.4021e-05
1.40985e-05
1.41844e-05
1.42378e-05
1.43086e-05
1.43172e-05
1.4355e-05
1.43363e-05
1.4346e-05
1.44263e-05
1.45255e-05
1.49599e-05
1.53745e-05
1.61302e-05
1.65324e-05
1.72574e-05
1.74166e-05
1.98258e-05
2.35045e-05
3.26802e-05
5.24175e-05
7.97117e-05
0.000118388
0.000126005
0.000147572
0.000134272
9.1496e-05
9.19938e-05
0.000165275
8.65181e-05
7.32429e-05
7.22602e-05
7.22901e-05
6.77199e-05
6.5087e-05
6.23383e-05
5.94116e-05
5.66063e-05
5.45093e-05
5.25976e-05
5.1472e-05
5.21527e-05
5.39192e-05
5.54067e-05
5.57806e-05
5.57886e-05
5.61883e-05
5.81954e-05
5.90234e-05
5.8333e-05
5.5612e-05
5.25762e-05
4.92533e-05
4.65273e-05
4.44889e-05
4.16314e-05
3.71776e-05
3.17961e-05
2.9773e-05
2.99275e-05
3.01793e-05
2.90794e-05
2.9481e-05
2.03685e-05
2.62392e-05
2.45805e-05
2.17222e-05
2.16721e-05
1.86601e-05
1.75951e-05
1.40254e-05
1.17691e-05
1.08609e-05
1.09315e-05
1.12738e-05
1.12354e-05
1.1412e-05
1.14013e-05
1.15389e-05
1.16349e-05
1.18948e-05
1.21699e-05
1.24803e-05
1.27548e-05
1.29886e-05
1.31795e-05
1.33409e-05
1.34803e-05
1.36053e-05
1.37217e-05
1.38326e-05
1.39392e-05
1.40427e-05
1.41431e-05
1.424e-05
1.43351e-05
1.44276e-05
1.45126e-05
1.46026e-05
1.46591e-05
1.47307e-05
1.47358e-05
1.47721e-05
1.47544e-05
1.47745e-05
1.48856e-05
1.50481e-05
1.55586e-05
1.60965e-05
1.68986e-05
1.74867e-05
1.82587e-05
1.87099e-05
2.16996e-05
2.76778e-05
4.3796e-05
7.19168e-05
0.000103848
0.000144107
0.000142569
0.000144005
0.000138032
9.08294e-05
9.20091e-05
0.000149235
8.28548e-05
7.8115e-05
7.98225e-05
7.94532e-05
7.64916e-05
7.27441e-05
6.7671e-05
6.47141e-05
6.35773e-05
6.4034e-05
6.536e-05
6.70534e-05
6.89262e-05
7.12774e-05
7.34659e-05
7.43012e-05
7.45062e-05
7.32065e-05
7.07236e-05
6.73174e-05
6.38427e-05
5.99056e-05
5.70354e-05
5.40098e-05
5.04743e-05
4.57067e-05
3.97171e-05
3.35738e-05
2.99915e-05
2.94445e-05
3.02794e-05
3.11055e-05
3.1138e-05
3.13511e-05
2.04882e-05
2.64574e-05
2.57152e-05
2.29259e-05
2.29586e-05
2.05288e-05
1.91829e-05
1.65355e-05
1.35954e-05
1.15926e-05
1.11479e-05
1.12172e-05
1.09395e-05
1.10091e-05
1.09823e-05
1.11869e-05
1.12873e-05
1.15998e-05
1.18904e-05
1.22563e-05
1.25788e-05
1.28693e-05
1.31074e-05
1.33032e-05
1.34605e-05
1.35928e-05
1.37082e-05
1.38128e-05
1.39102e-05
1.40017e-05
1.40903e-05
1.41734e-05
1.42552e-05
1.43315e-05
1.44122e-05
1.44759e-05
1.45452e-05
1.45645e-05
1.45999e-05
1.4559e-05
1.45999e-05
1.45879e-05
1.4821e-05
1.51131e-05
1.57614e-05
1.65961e-05
1.72692e-05
1.79365e-05
1.85202e-05
1.92143e-05
2.32485e-05
3.30301e-05
5.76019e-05
8.84822e-05
0.000113286
0.000135967
0.000135912
0.000131988
0.00012906
0.00010028
0.000104983
0.000138259
8.56028e-05
8.37359e-05
8.64613e-05
8.71832e-05
8.67301e-05
8.58861e-05
8.44321e-05
8.36005e-05
8.27837e-05
8.2526e-05
8.2549e-05
8.28543e-05
8.30644e-05
8.22901e-05
8.08381e-05
7.81547e-05
7.45769e-05
6.99569e-05
6.58747e-05
6.32738e-05
6.12636e-05
6.03021e-05
5.93082e-05
5.78393e-05
5.65994e-05
5.49776e-05
5.31103e-05
4.75774e-05
4.07446e-05
3.70181e-05
3.58346e-05
3.49992e-05
3.48734e-05
3.37622e-05
2.03177e-05
2.42821e-05
2.5016e-05
2.28934e-05
2.30249e-05
2.11176e-05
1.96976e-05
1.75035e-05
1.49637e-05
1.26844e-05
1.14595e-05
1.12386e-05
1.0847e-05
1.091e-05
1.078e-05
1.09937e-05
1.10628e-05
1.14841e-05
1.18499e-05
1.23024e-05
1.26847e-05
1.30345e-05
1.33146e-05
1.35471e-05
1.37371e-05
1.3899e-05
1.4042e-05
1.41713e-05
1.42897e-05
1.43995e-05
1.45049e-05
1.46037e-05
1.46993e-05
1.47826e-05
1.48728e-05
1.49336e-05
1.50218e-05
1.5026e-05
1.50973e-05
1.50422e-05
1.51243e-05
1.51263e-05
1.53748e-05
1.57062e-05
1.63177e-05
1.72265e-05
1.78574e-05
1.8615e-05
1.88969e-05
1.9683e-05
2.46616e-05
4.24018e-05
7.40721e-05
0.000106649
0.000119945
0.00013218
0.000137444
0.000139591
0.000131571
0.000108429
0.000114333
0.000138966
9.08009e-05
8.90018e-05
9.16657e-05
9.29081e-05
9.28583e-05
9.2905e-05
9.1979e-05
9.19962e-05
9.15716e-05
9.14092e-05
9.06326e-05
8.98011e-05
8.7975e-05
8.53408e-05
8.21132e-05
7.86903e-05
7.52225e-05
7.29259e-05
7.10951e-05
6.92161e-05
6.69443e-05
6.57871e-05
6.39269e-05
6.2195e-05
6.11925e-05
6.07323e-05
6.02693e-05
5.93807e-05
5.77592e-05
5.50041e-05
5.31287e-05
4.99556e-05
4.76818e-05
4.46011e-05
2.37985e-05
2.20161e-05
2.29251e-05
2.00348e-05
1.98811e-05
1.95034e-05
1.80435e-05
1.68457e-05
1.47887e-05
1.32953e-05
1.14029e-05
1.06917e-05
1.00659e-05
9.94051e-06
9.51433e-06
9.46455e-06
9.42321e-06
9.81482e-06
1.01773e-05
1.06161e-05
1.09752e-05
1.13092e-05
1.15767e-05
1.18016e-05
1.19796e-05
1.21238e-05
1.22445e-05
1.23488e-05
1.24411e-05
1.25249e-05
1.26036e-05
1.26757e-05
1.27439e-05
1.27991e-05
1.28613e-05
1.28903e-05
1.29677e-05
1.29466e-05
1.30368e-05
1.29768e-05
1.31034e-05
1.31134e-05
1.33424e-05
1.36695e-05
1.40868e-05
1.49537e-05
1.53017e-05
1.62242e-05
1.5984e-05
1.70156e-05
2.0232e-05
3.19282e-05
5.43142e-05
8.58646e-05
0.000106631
0.000119423
0.000122
0.000126629
0.00012036
9.38858e-05
9.7081e-05
0.000143287
8.3624e-05
7.85913e-05
8.22698e-05
8.40475e-05
8.58453e-05
8.73524e-05
8.81254e-05
8.85298e-05
8.82069e-05
8.81374e-05
8.76221e-05
8.66863e-05
8.53253e-05
8.33585e-05
8.11395e-05
7.89056e-05
7.62653e-05
7.41058e-05
7.19385e-05
6.96598e-05
6.66247e-05
6.24409e-05
5.77653e-05
5.19674e-05
4.75553e-05
4.42205e-05
4.06799e-05
3.99675e-05
4.04131e-05
4.14215e-05
4.16307e-05
3.96664e-05
3.68491e-05
3.24595e-05
1.72139e-05
2.12456e-05
2.2039e-05
1.68173e-05
1.69102e-05
1.71009e-05
1.59464e-05
1.53436e-05
1.38364e-05
1.23694e-05
1.0407e-05
9.68161e-06
9.05166e-06
8.77998e-06
8.18327e-06
7.94094e-06
7.82255e-06
8.12717e-06
8.44106e-06
8.83186e-06
9.15116e-06
9.44321e-06
9.67255e-06
9.86814e-06
1.00313e-05
1.01675e-05
1.02792e-05
1.03727e-05
1.04546e-05
1.05297e-05
1.06004e-05
1.0666e-05
1.07274e-05
1.07827e-05
1.08399e-05
1.08827e-05
1.09504e-05
1.09707e-05
1.10431e-05
1.1059e-05
1.11486e-05
1.12319e-05
1.14018e-05
1.16985e-05
1.19726e-05
1.27111e-05
1.28984e-05
1.39294e-05
1.35538e-05
1.48037e-05
1.63775e-05
2.24408e-05
3.46284e-05
6.17035e-05
8.53608e-05
0.000100702
0.0001063
0.000120026
0.000112446
9.34303e-05
9.55345e-05
0.000158072
8.17624e-05
6.56349e-05
6.3505e-05
6.38534e-05
6.55431e-05
7.03224e-05
7.24243e-05
7.40257e-05
7.4746e-05
7.52475e-05
7.49094e-05
7.41996e-05
7.25006e-05
7.06112e-05
6.75229e-05
6.48732e-05
6.13921e-05
5.82922e-05
5.46161e-05
5.1174e-05
4.82038e-05
4.64772e-05
4.57436e-05
4.52749e-05
4.31026e-05
4.14037e-05
3.81793e-05
3.18429e-05
2.8943e-05
2.85801e-05
2.87006e-05
2.69223e-05
2.49069e-05
2.21386e-05
1.23639e-05
2.2185e-05
2.26149e-05
1.3318e-05
1.30411e-05
1.41422e-05
1.43246e-05
1.33284e-05
1.22804e-05
1.14015e-05
9.60586e-06
8.80494e-06
8.0609e-06
7.60319e-06
6.83357e-06
6.55505e-06
6.40195e-06
6.63881e-06
6.88499e-06
7.20794e-06
7.47507e-06
7.72827e-06
7.93216e-06
8.10968e-06
8.26012e-06
8.38866e-06
8.49707e-06
8.59041e-06
8.67459e-06
8.7539e-06
8.82833e-06
8.8979e-06
8.96249e-06
9.02086e-06
9.07472e-06
9.12929e-06
9.1919e-06
9.24443e-06
9.31063e-06
9.37639e-06
9.44868e-06
9.58698e-06
9.66874e-06
9.98927e-06
1.0129e-05
1.07867e-05
1.08768e-05
1.18228e-05
1.15161e-05
1.27199e-05
1.35769e-05
1.67571e-05
2.32243e-05
4.16996e-05
6.16752e-05
8.13749e-05
8.61544e-05
8.73188e-05
9.63264e-05
0.00010356
0.000106803
0.000176525
9.06727e-05
6.51509e-05
5.64553e-05
5.42259e-05
4.89907e-05
5.11092e-05
5.5239e-05
5.72743e-05
5.86314e-05
5.94173e-05
5.91533e-05
5.8408e-05
5.66205e-05
5.49974e-05
5.25327e-05
5.08074e-05
4.7982e-05
4.55957e-05
4.25317e-05
4.03117e-05
3.95701e-05
4.02189e-05
4.14925e-05
4.29003e-05
4.32348e-05
4.31025e-05
4.2188e-05
4.02955e-05
3.49183e-05
2.51397e-05
2.40189e-05
2.39814e-05
2.30889e-05
2.11873e-05
1.32493e-05
2.71719e-05
2.10994e-05
1.27713e-05
1.11079e-05
1.10437e-05
1.14403e-05
1.11483e-05
1.01975e-05
9.65755e-06
8.26887e-06
7.83962e-06
7.17067e-06
6.49326e-06
5.83423e-06
5.6425e-06
5.5763e-06
5.73886e-06
5.88562e-06
6.08959e-06
6.2659e-06
6.44458e-06
6.60141e-06
6.74961e-06
6.88404e-06
7.00738e-06
7.11871e-06
7.22026e-06
7.31532e-06
7.40811e-06
7.49815e-06
7.58201e-06
7.65783e-06
7.72634e-06
7.80395e-06
7.87675e-06
7.96333e-06
8.03262e-06
8.11688e-06
8.19332e-06
8.27783e-06
8.40356e-06
8.46865e-06
8.71347e-06
8.7911e-06
9.30299e-06
9.37227e-06
1.01775e-05
9.95709e-06
1.09006e-05
1.15025e-05
1.36551e-05
1.7785e-05
2.84252e-05
4.35232e-05
5.92466e-05
6.60866e-05
7.4952e-05
9.69047e-05
0.000118485
0.000124567
0.000181506
0.000104608
6.94364e-05
5.50183e-05
5.53352e-05
5.37976e-05
5.21146e-05
5.08327e-05
4.9681e-05
4.80396e-05
4.52169e-05
4.35122e-05
4.30321e-05
4.25003e-05
4.13958e-05
3.9592e-05
3.80508e-05
3.64675e-05
3.56727e-05
3.64748e-05
3.78016e-05
3.92442e-05
4.06453e-05
4.2298e-05
4.38319e-05
4.44487e-05
4.44183e-05
4.38577e-05
4.26175e-05
4.0779e-05
3.67833e-05
2.56573e-05
2.16653e-05
2.14844e-05
2.03322e-05
1.36882e-05
3.06795e-05
2.69765e-05
2.0315e-05
1.08381e-05
9.67108e-06
9.58423e-06
9.18399e-06
8.35092e-06
7.7249e-06
7.22331e-06
7.30788e-06
6.82468e-06
6.18468e-06
5.43619e-06
5.28464e-06
5.19999e-06
5.35674e-06
5.45974e-06
5.57641e-06
5.65917e-06
5.74264e-06
5.81407e-06
5.88736e-06
5.95857e-06
6.03172e-06
6.10615e-06
6.18289e-06
6.26822e-06
6.35528e-06
6.44182e-06
6.52559e-06
6.60619e-06
6.68275e-06
6.76001e-06
6.835e-06
6.91925e-06
6.99821e-06
7.07483e-06
7.1685e-06
7.24085e-06
7.38195e-06
7.4266e-06
7.64566e-06
7.67716e-06
8.07647e-06
8.08495e-06
8.68351e-06
8.5551e-06
9.24944e-06
9.77503e-06
1.15625e-05
1.50298e-05
2.0972e-05
2.99908e-05
4.09673e-05
5.37355e-05
7.35607e-05
0.000106445
0.000136286
0.000138744
0.000183603
0.0001221
8.25732e-05
6.44054e-05
5.96057e-05
5.81433e-05
5.76468e-05
5.72332e-05
5.61265e-05
5.47874e-05
5.30857e-05
5.11342e-05
4.88097e-05
4.62372e-05
4.38318e-05
4.15673e-05
4.00221e-05
3.94798e-05
3.98678e-05
4.0592e-05
4.13702e-05
4.21864e-05
4.2812e-05
4.34368e-05
4.4194e-05
4.42712e-05
4.403e-05
4.32866e-05
4.22546e-05
4.0426e-05
3.85331e-05
3.44984e-05
2.44036e-05
1.89487e-05
1.83725e-05
1.50845e-05
2.94378e-05
2.29246e-05
2.03928e-05
1.47602e-05
1.08773e-05
9.24892e-06
7.3168e-06
6.7408e-06
6.93116e-06
6.83344e-06
7.05842e-06
6.39055e-06
5.7839e-06
5.17761e-06
5.00827e-06
4.92604e-06
5.04798e-06
5.12388e-06
5.21796e-06
5.27887e-06
5.33594e-06
5.37387e-06
5.40675e-06
5.43518e-06
5.46734e-06
5.50807e-06
5.54968e-06
5.59278e-06
5.64179e-06
5.69541e-06
5.75128e-06
5.80828e-06
5.86479e-06
5.92211e-06
5.98255e-06
6.05459e-06
6.13121e-06
6.19713e-06
6.29196e-06
6.35193e-06
6.49398e-06
6.53331e-06
6.735e-06
6.74526e-06
7.05158e-06
7.02698e-06
7.41228e-06
7.38097e-06
7.85021e-06
8.23415e-06
9.88393e-06
1.33093e-05
1.72398e-05
2.29707e-05
3.17526e-05
4.41046e-05
6.92936e-05
0.000105588
0.000142338
0.00014285
0.000180274
0.000127774
9.46791e-05
7.98559e-05
7.24339e-05
6.86154e-05
6.54015e-05
6.28399e-05
6.06779e-05
5.86434e-05
5.65086e-05
5.43936e-05
5.24985e-05
5.07746e-05
4.92746e-05
4.79794e-05
4.68393e-05
4.59568e-05
4.5128e-05
4.45405e-05
4.39005e-05
4.33611e-05
4.27117e-05
4.25239e-05
4.25432e-05
4.24296e-05
4.2023e-05
4.11144e-05
3.9931e-05
3.85545e-05
3.65056e-05
3.46079e-05
3.11221e-05
2.45931e-05
1.95109e-05
1.62095e-05
3.09651e-05
2.3659e-05
2.26185e-05
1.73715e-05
1.80118e-05
1.55579e-05
9.80667e-06
5.87313e-06
6.22412e-06
6.10641e-06
6.08018e-06
5.3882e-06
4.91717e-06
4.59131e-06
4.46674e-06
4.42047e-06
4.48848e-06
4.52988e-06
4.59066e-06
4.62779e-06
4.66338e-06
4.69534e-06
4.73028e-06
4.76604e-06
4.80396e-06
4.84467e-06
4.88701e-06
4.93195e-06
4.98093e-06
5.03269e-06
5.08574e-06
5.13955e-06
5.19369e-06
5.25016e-06
5.31352e-06
5.38331e-06
5.46162e-06
5.52021e-06
5.61946e-06
5.67931e-06
5.82827e-06
5.87414e-06
6.05912e-06
6.05579e-06
6.29003e-06
6.21673e-06
6.45369e-06
6.46132e-06
6.70638e-06
7.02484e-06
8.34361e-06
1.10739e-05
1.39003e-05
1.96955e-05
3.00881e-05
4.41872e-05
7.33144e-05
0.000103966
0.000132697
0.000139139
0.000178685
0.000135075
0.000107285
8.77662e-05
7.76021e-05
7.21933e-05
6.80097e-05
6.45275e-05
6.15216e-05
5.89376e-05
5.66346e-05
5.44588e-05
5.23941e-05
5.05556e-05
4.89732e-05
4.76812e-05
4.65044e-05
4.54622e-05
4.44056e-05
4.34085e-05
4.23559e-05
4.13918e-05
4.03442e-05
3.96903e-05
3.90934e-05
3.85743e-05
3.78365e-05
3.66084e-05
3.54481e-05
3.41302e-05
3.2479e-05
3.04443e-05
2.8993e-05
2.59403e-05
2.34403e-05
1.68709e-05
3.0617e-05
2.92009e-05
2.77292e-05
2.51457e-05
2.33155e-05
2.15667e-05
1.73465e-05
6.25948e-06
4.71938e-06
4.55911e-06
4.37262e-06
4.05423e-06
3.83391e-06
3.68774e-06
3.64847e-06
3.62238e-06
3.65172e-06
3.6694e-06
3.70052e-06
3.72056e-06
3.74225e-06
3.76186e-06
3.78373e-06
3.80682e-06
3.83158e-06
3.85869e-06
3.88743e-06
3.91855e-06
3.95246e-06
3.98807e-06
4.02458e-06
4.0613e-06
4.09861e-06
4.13828e-06
4.18218e-06
4.22868e-06
4.28167e-06
4.32083e-06
4.39503e-06
4.44096e-06
4.56233e-06
4.60363e-06
4.75859e-06
4.73452e-06
4.90307e-06
4.81575e-06
4.94128e-06
4.9864e-06
5.17575e-06
5.59508e-06
6.79068e-06
8.47755e-06
9.99433e-06
1.37835e-05
2.21882e-05
3.41596e-05
5.24808e-05
6.93322e-05
0.00010754
0.000127066
0.000173009
0.000132709
0.000111362
9.54587e-05
8.43435e-05
7.71631e-05
7.16374e-05
6.69306e-05
6.29021e-05
5.94102e-05
5.61665e-05
5.31021e-05
5.02756e-05
4.78631e-05
4.58497e-05
4.4261e-05
4.28763e-05
4.16668e-05
4.04813e-05
3.93335e-05
3.81817e-05
3.70151e-05
3.59012e-05
3.48235e-05
3.36888e-05
3.2809e-05
3.14118e-05
2.99094e-05
2.84079e-05
2.72878e-05
2.57602e-05
2.31958e-05
2.13861e-05
1.99569e-05
1.82394e-05
1.47672e-05
1.53317e-05
1.28857e-05
1.09428e-05
1.03199e-05
9.7008e-06
9.81467e-06
9.74398e-06
9.96335e-06
1.03049e-05
1.13741e-05
1.18241e-05
1.2412e-05
1.25262e-05
1.25971e-05
1.22362e-05
1.20025e-05
1.16362e-05
1.14349e-05
1.12285e-05
1.11331e-05
1.10839e-05
1.10941e-05
1.11251e-05
1.11714e-05
1.12275e-05
1.12874e-05
1.13451e-05
1.13992e-05
1.14498e-05
1.14973e-05
1.15475e-05
1.1585e-05
1.16417e-05
1.16535e-05
1.17297e-05
1.17063e-05
1.18336e-05
1.17766e-05
1.19964e-05
1.19275e-05
1.22857e-05
1.21983e-05
1.25811e-05
1.24594e-05
1.23604e-05
1.18394e-05
1.09296e-05
1.04209e-05
1.06639e-05
1.18529e-05
1.30851e-05
1.41619e-05
1.57157e-05
2.29275e-05
3.456e-05
3.97166e-05
4.93322e-05
6.06924e-05
7.30741e-05
8.6638e-05
0.000118325
0.000101545
0.000101453
9.91168e-05
9.45982e-05
9.07737e-05
8.73828e-05
8.42683e-05
8.12512e-05
7.83933e-05
7.56884e-05
7.30899e-05
7.05542e-05
6.80138e-05
6.54111e-05
6.27171e-05
5.98979e-05
5.69511e-05
5.38163e-05
5.05455e-05
4.72915e-05
4.3984e-05
4.08548e-05
3.79597e-05
3.53192e-05
3.27617e-05
3.05082e-05
2.83865e-05
2.65612e-05
2.51285e-05
2.39577e-05
2.28537e-05
2.12931e-05
1.9659e-05
1.72332e-05
1.69268e-05
6.04314e-05
5.07828e-05
4.11466e-05
3.93479e-05
3.88536e-05
3.95372e-05
3.90777e-05
3.87685e-05
3.85437e-05
3.98146e-05
4.03004e-05
4.03696e-05
4.01858e-05
3.98755e-05
3.9402e-05
3.9127e-05
3.89345e-05
3.89957e-05
3.90703e-05
3.92545e-05
3.95466e-05
3.99058e-05
4.02229e-05
4.04797e-05
4.06858e-05
4.08707e-05
4.10407e-05
4.11911e-05
4.13176e-05
4.14169e-05
4.15e-05
4.15548e-05
4.16273e-05
4.16397e-05
4.16854e-05
4.16152e-05
4.16589e-05
4.14834e-05
4.1539e-05
4.13336e-05
4.15563e-05
4.1572e-05
4.22094e-05
4.28386e-05
4.36346e-05
4.39345e-05
4.40713e-05
4.35688e-05
4.56735e-05
4.7415e-05
4.74684e-05
4.85451e-05
4.93633e-05
6.59699e-05
0.000127689
0.000165782
0.000250852
0.000306213
0.00048652
0.000480658
1.9194e-05
6.16402e-05
0.000161752
0.000149867
0.000140938
0.000134634
0.000128341
0.000122777
0.000118336
0.000114137
0.000110389
0.000106947
0.000103655
0.000100022
9.57491e-05
9.08334e-05
8.55454e-05
8.00673e-05
7.47234e-05
7.00103e-05
6.5274e-05
6.05345e-05
5.67949e-05
5.37574e-05
5.09971e-05
4.95173e-05
4.90417e-05
4.96945e-05
5.06722e-05
5.08119e-05
4.95482e-05
4.66688e-05
4.38566e-05
3.79105e-05
2.96158e-05
1.83719e-05
6.72898e-05
5.79337e-05
5.18611e-05
4.84713e-05
4.68384e-05
4.64527e-05
4.44426e-05
4.35812e-05
4.35863e-05
4.37309e-05
4.35216e-05
4.22889e-05
4.15638e-05
4.06192e-05
4.01637e-05
3.99591e-05
4.02072e-05
4.06984e-05
4.13513e-05
4.19538e-05
4.26303e-05
4.32231e-05
4.36937e-05
4.40411e-05
4.42836e-05
4.44626e-05
4.45947e-05
4.46932e-05
4.47708e-05
4.48285e-05
4.48665e-05
4.48807e-05
4.48898e-05
4.48705e-05
4.48526e-05
4.47675e-05
4.46776e-05
4.44652e-05
4.42909e-05
4.40826e-05
4.40833e-05
4.43521e-05
4.50164e-05
4.59783e-05
4.73017e-05
4.86789e-05
4.94722e-05
5.1353e-05
5.32801e-05
5.58046e-05
5.47437e-05
6.37573e-05
7.44896e-05
8.22335e-05
0.000142707
0.000183491
0.000254012
0.000290387
0.000276516
0.000138206
1.80878e-05
0.000124597
0.000185799
0.000156547
0.000145264
0.000139739
0.000137917
0.000135501
0.000134937
0.000135077
0.000136024
0.000136415
0.000136242
0.00013526
0.000130814
0.000123997
0.000116405
0.000108652
0.000102958
0.000100379
9.11939e-05
7.99783e-05
7.53968e-05
7.59128e-05
7.85724e-05
8.03056e-05
8.12137e-05
7.74618e-05
7.09029e-05
6.30685e-05
5.48392e-05
5.02078e-05
4.89491e-05
4.73565e-05
4.25031e-05
2.11313e-05
8.33779e-05
6.96457e-05
6.31848e-05
5.50915e-05
5.02772e-05
4.91172e-05
4.57959e-05
4.3963e-05
4.32306e-05
4.23388e-05
4.18854e-05
3.9225e-05
3.83609e-05
3.73538e-05
3.72126e-05
3.71479e-05
3.79077e-05
3.8813e-05
3.98863e-05
4.0797e-05
4.17449e-05
4.25375e-05
4.31179e-05
4.35229e-05
4.37765e-05
4.39476e-05
4.4066e-05
4.41469e-05
4.42032e-05
4.42382e-05
4.42498e-05
4.42445e-05
4.42243e-05
4.4193e-05
4.41511e-05
4.40627e-05
4.39071e-05
4.36779e-05
4.33597e-05
4.31189e-05
4.29111e-05
4.3207e-05
4.37287e-05
4.53786e-05
4.70056e-05
4.94888e-05
5.08048e-05
5.31665e-05
5.45895e-05
5.98548e-05
6.03294e-05
7.3307e-05
9.42357e-05
0.000111182
0.000179532
0.0002268
0.000282354
0.000334567
0.000190276
4.81201e-05
1.93079e-05
0.000115964
0.000166553
0.000143037
0.000146846
0.000144884
0.000144209
0.000144397
0.00014706
0.000151935
0.00015137
0.000147317
0.000142005
0.000139559
0.000138588
0.00013642
0.000130902
0.000121425
0.000114276
0.000110223
0.000107706
0.000111426
0.000111625
0.00010815
9.98902e-05
8.83767e-05
7.70764e-05
6.43669e-05
5.24018e-05
4.31719e-05
4.10509e-05
4.41744e-05
4.66286e-05
4.72975e-05
4.45997e-05
2.26626e-05
0.000100202
8.08357e-05
7.37559e-05
6.40335e-05
5.7474e-05
5.47657e-05
4.7626e-05
4.3734e-05
4.21326e-05
4.04134e-05
3.96561e-05
3.72302e-05
3.62338e-05
3.52789e-05
3.48729e-05
3.47833e-05
3.5119e-05
3.56997e-05
3.65189e-05
3.7467e-05
3.83641e-05
3.9015e-05
3.95007e-05
3.98399e-05
4.01037e-05
4.02851e-05
4.04071e-05
4.0484e-05
4.05332e-05
4.05639e-05
4.05715e-05
4.0567e-05
4.05381e-05
4.05091e-05
4.04366e-05
4.04058e-05
4.01993e-05
4.00782e-05
3.97277e-05
3.963e-05
3.94401e-05
3.99498e-05
4.07857e-05
4.23646e-05
4.45168e-05
4.63111e-05
4.76851e-05
4.94444e-05
5.07201e-05
6.17065e-05
6.78538e-05
8.6324e-05
0.000121393
0.000178486
0.000240951
0.000273498
0.000291808
0.000252417
6.45251e-05
2.78335e-05
2.13131e-05
0.000116568
0.000170664
0.000163128
0.000167789
0.000161992
0.00016253
0.000163124
0.00016131
0.00015552
0.00014794
0.000143241
0.000141515
0.000142186
0.000143757
0.000145911
0.000145573
0.000144638
0.000147446
0.000142237
0.000135745
0.000122319
0.000105385
8.88519e-05
7.30594e-05
5.96699e-05
5.11197e-05
4.40031e-05
3.88957e-05
3.72565e-05
3.72926e-05
3.92869e-05
4.1724e-05
4.4601e-05
4.41603e-05
2.33325e-05
0.000114076
8.50901e-05
7.85061e-05
6.95788e-05
6.5508e-05
6.25572e-05
5.47237e-05
4.78973e-05
4.3463e-05
4.03707e-05
3.86367e-05
3.64199e-05
3.526e-05
3.29714e-05
3.23021e-05
3.1695e-05
3.25872e-05
3.36425e-05
3.50625e-05
3.61302e-05
3.69771e-05
3.74933e-05
3.78764e-05
3.81448e-05
3.83341e-05
3.8469e-05
3.85671e-05
3.86302e-05
3.86802e-05
3.87195e-05
3.87415e-05
3.87469e-05
3.87487e-05
3.8734e-05
3.87357e-05
3.86245e-05
3.85425e-05
3.82922e-05
3.8153e-05
3.78872e-05
3.78855e-05
3.80767e-05
3.86755e-05
3.99184e-05
4.14779e-05
4.32322e-05
4.49002e-05
4.66789e-05
4.86763e-05
5.83148e-05
7.81229e-05
0.000110309
0.000159029
0.000219291
0.000286358
0.000267172
0.000256596
0.00022568
1.68763e-05
2.3033e-05
2.96312e-05
0.000148581
0.000186092
0.00018532
0.000192879
0.000192653
0.000192925
0.00018817
0.000176402
0.000170188
0.000168466
0.000170839
0.000174249
0.000175386
0.000176074
0.000173954
0.000168942
0.00016121
0.000147116
0.000135877
0.000121335
0.000110693
0.000100679
9.42351e-05
8.60592e-05
7.82953e-05
7.02884e-05
6.05757e-05
5.13165e-05
4.08877e-05
3.74998e-05
3.97235e-05
4.31789e-05
4.70116e-05
4.10854e-05
2.31229e-05
0.000112952
8.3996e-05
7.79465e-05
6.90243e-05
6.52968e-05
6.20407e-05
5.80675e-05
5.15303e-05
4.57538e-05
4.06747e-05
3.75371e-05
3.32817e-05
3.12065e-05
2.86533e-05
2.74842e-05
2.6681e-05
2.71058e-05
2.77495e-05
2.88194e-05
2.98566e-05
3.09285e-05
3.17901e-05
3.24492e-05
3.28832e-05
3.31602e-05
3.33263e-05
3.3421e-05
3.34666e-05
3.34681e-05
3.34483e-05
3.33966e-05
3.332e-05
3.31907e-05
3.30721e-05
3.28692e-05
3.28418e-05
3.2481e-05
3.24737e-05
3.19461e-05
3.2055e-05
3.18079e-05
3.24643e-05
3.34323e-05
3.48031e-05
3.7654e-05
3.80793e-05
3.92984e-05
3.8576e-05
3.99393e-05
5.51024e-05
8.05848e-05
0.000138048
0.000189288
0.000232245
0.000250354
0.000240174
0.000213519
0.000189807
2.56576e-05
3.49269e-05
4.15352e-05
0.000172996
0.00019297
0.000190419
0.000196057
0.000197982
0.000199099
0.000199323
0.000199303
0.000199487
0.000198904
0.000195105
0.000189146
0.000182057
0.00017308
0.000161806
0.000149635
0.000136568
0.000124122
0.000116526
0.000111944
0.00010873
0.000104147
0.000103483
0.000100218
9.91526e-05
9.80958e-05
9.42234e-05
8.81026e-05
8.4182e-05
7.37535e-05
7.0777e-05
6.88918e-05
7.61277e-05
4.19757e-05
2.36752e-05
9.47416e-05
8.27193e-05
7.71175e-05
6.89573e-05
6.12332e-05
6.04141e-05
5.86481e-05
5.2562e-05
4.47258e-05
3.93359e-05
3.49781e-05
3.052e-05
2.79014e-05
2.43833e-05
2.2612e-05
2.13666e-05
2.21974e-05
2.31098e-05
2.43666e-05
2.53413e-05
2.62648e-05
2.68521e-05
2.72815e-05
2.75528e-05
2.77187e-05
2.78063e-05
2.78439e-05
2.78222e-05
2.77446e-05
2.76495e-05
2.75313e-05
2.73917e-05
2.71917e-05
2.69949e-05
2.67268e-05
2.6621e-05
2.62452e-05
2.61926e-05
2.57245e-05
2.57227e-05
2.54819e-05
2.57125e-05
2.61588e-05
2.69633e-05
2.86423e-05
2.93909e-05
3.10085e-05
2.9651e-05
2.88467e-05
3.87894e-05
7.87687e-05
0.000149835
0.000213054
0.000223644
0.000219858
0.000215945
0.000212664
0.000209031
2.92609e-05
3.86406e-05
4.58799e-05
0.000183089
0.000203337
0.000189479
0.000187276
0.000181275
0.000176635
0.000171045
0.000168495
0.000164936
0.000161957
0.000158065
0.0001542
0.000150011
0.000144231
0.000140747
0.000136336
0.00013167
0.000126463
0.000123563
0.000118865
0.000115171
0.00011175
0.00010711
0.000103312
9.94412e-05
9.82527e-05
9.54154e-05
9.35155e-05
8.77275e-05
8.6511e-05
8.21944e-05
7.88425e-05
7.0083e-05
6.02915e-05
4.67481e-05
6.48736e-05
7.76334e-05
6.29909e-05
5.75089e-05
5.20079e-05
4.98462e-05
4.81019e-05
4.63363e-05
4.32871e-05
3.78771e-05
3.19412e-05
2.62546e-05
2.26243e-05
1.89754e-05
1.72274e-05
1.6354e-05
1.6603e-05
1.69892e-05
1.76118e-05
1.8149e-05
1.8336e-05
1.86956e-05
1.90835e-05
1.93264e-05
1.94676e-05
1.95358e-05
1.95704e-05
1.95808e-05
1.95727e-05
1.95548e-05
1.95181e-05
1.94604e-05
1.93555e-05
1.92466e-05
1.90781e-05
1.90883e-05
1.88313e-05
1.89439e-05
1.86069e-05
1.88447e-05
1.86199e-05
1.90284e-05
1.91729e-05
1.98537e-05
2.0776e-05
2.13243e-05
2.29255e-05
2.16336e-05
2.15695e-05
2.62586e-05
4.21061e-05
9.07481e-05
0.000183614
0.000216455
0.000229646
0.000235433
0.00022387
0.000213306
1.93866e-05
2.36444e-05
2.78512e-05
0.000130721
0.000182447
0.000183668
0.000189575
0.000190996
0.000192633
0.000187884
0.000183298
0.000177051
0.000170851
0.000163532
0.000156517
0.000150449
0.000143803
0.000136935
0.000129965
0.000123174
0.000116985
0.000112864
0.000108823
0.000106773
0.000106001
0.000104008
0.000102117
9.46973e-05
8.12348e-05
6.4061e-05
5.83823e-05
6.02948e-05
5.37252e-05
4.75983e-05
4.70345e-05
4.54475e-05
2.69629e-05
1.88138e-05
5.79097e-05
7.25223e-05
4.8141e-05
4.41694e-05
4.56795e-05
4.06881e-05
3.8936e-05
3.79645e-05
3.55758e-05
3.17354e-05
2.86042e-05
2.42996e-05
2.07093e-05
1.69176e-05
1.49907e-05
1.44144e-05
1.4633e-05
1.48762e-05
1.52104e-05
1.54783e-05
1.57201e-05
1.58989e-05
1.61145e-05
1.63806e-05
1.66326e-05
1.67916e-05
1.68115e-05
1.682e-05
1.68145e-05
1.68145e-05
1.68132e-05
1.67788e-05
1.66937e-05
1.65677e-05
1.6449e-05
1.64332e-05
1.63445e-05
1.6352e-05
1.62512e-05
1.629e-05
1.61955e-05
1.61231e-05
1.60112e-05
1.61322e-05
1.61785e-05
1.66805e-05
1.80679e-05
1.74356e-05
1.84234e-05
2.15496e-05