/*--------------------------------*- C++ -*----------------------------------*\
| =========                 |                                                 |
| \\      /  F ield         | OpenFOAM: The Open Source CFD Toolbox           |
|  \\    /   O peration     | Version:  2.3.0                                 |
|   \\  /    A nd           | Web:      www.OpenFOAM.org                      |
|    \\/     M anipulation  |                                                 |
\*---------------------------------------------------------------------------*/
FoamFile
{
    version     2.0;
    format      ascii;
    class       surfaceScalarField;
    location    "23";
    object      phi;
}
// * * * * * * * * * * * * * * * * * * * * * * * * * * * * * * * * * * * * * //

dimensions      [0 3 -1 0 0 0 0];

internalField   nonuniform List<scalar> 
16448
(
-1.01767e-06
-2.0438e-06
7.35137e-07
2.59777e-07
-2.09149e-06
8.14042e-07
5.54107e-07
-1.33526e-06
1.04092e-06
7.88796e-07
-1.23693e-06
1.00223e-06
6.94731e-07
-7.54644e-07
8.48706e-07
6.29812e-07
-6.64519e-07
7.29435e-07
4.40336e-07
-3.61694e-07
5.51166e-07
2.18148e-07
-2.79018e-07
5.01201e-07
-7.21606e-08
-1.91552e-07
4.81855e-07
-3.21487e-07
-1.75062e-07
4.24381e-07
-4.81707e-07
-2.15388e-07
3.756e-07
-4.9317e-07
-2.91447e-07
3.02902e-07
-4.26668e-07
-3.52057e-07
2.85547e-07
-3.03342e-07
-3.99373e-07
2.7604e-07
-2.05804e-07
-4.18726e-07
3.21179e-07
-1.15244e-07
-4.4164e-07
3.51072e-07
-6.13101e-08
-4.50918e-07
3.96973e-07
-1.98383e-08
-4.65688e-07
4.24205e-07
4.63647e-09
-4.75741e-07
4.51254e-07
1.98879e-08
-4.80636e-07
4.65372e-07
2.69264e-08
-4.82013e-07
4.74962e-07
2.99643e-08
-4.80793e-07
4.77742e-07
2.99551e-08
-4.77562e-07
4.77559e-07
2.8687e-08
-4.73325e-07
4.74581e-07
2.68454e-08
-4.68151e-07
4.6998e-07
2.50434e-08
-4.62604e-07
4.64394e-07
2.36101e-08
-4.57011e-07
4.58432e-07
2.2535e-08
-4.51383e-07
4.52446e-07
2.18259e-08
-4.45788e-07
4.46486e-07
2.07956e-08
-4.39702e-07
4.4072e-07
2.09863e-08
-4.34786e-07
4.34584e-07
1.79521e-08
-4.27029e-07
4.30051e-07
1.8972e-08
-4.23961e-07
4.2293e-07
9.97894e-09
-4.12618e-07
4.216e-07
1.56789e-08
-4.16487e-07
4.10776e-07
-5.66225e-10
-3.9764e-07
4.13873e-07
1.41875e-08
-4.09457e-07
3.94692e-07
-6.04278e-09
-3.8201e-07
4.02228e-07
2.04369e-08
-3.99158e-07
3.72666e-07
1.02813e-08
-3.69144e-07
3.79287e-07
6.05378e-08
-3.94005e-07
3.43735e-07
9.38489e-08
-3.71872e-07
3.38547e-07
1.7438e-07
-4.01571e-07
3.21026e-07
2.48356e-07
-4.1709e-07
3.43098e-07
3.0317e-07
-4.22181e-07
3.67351e-07
3.05782e-07
-4.61612e-07
4.58982e-07
2.19671e-07
-4.66406e-07
5.52498e-07
8.78573e-08
-4.33833e-07
5.65628e-07
-1.17154e-07
-4.79442e-07
6.84434e-07
-2.22927e-07
-3.97402e-07
5.03154e-07
7.37569e-08
-1.0482e-06
7.51491e-07
-5.23708e-08
-7.17142e-07
8.43247e-07
-1.46807e-06
-2.85437e-07
1.70112e-06
-3.16514e-06
-3.21527e-08
1.7292e-06
-1.7259e-06
-2.54444e-06
1.10517e-06
-1.59731e-06
-1.7808e-06
1.6522e-06
-1.02975e-06
2.89134e-07
-8.56716e-07
-3.63541e-07
-2.0202e-06
1.35396e-06
-7.15327e-06
8.82045e-07
5.90772e-06
-6.33172e-07
-1.52769e-05
8.75691e-06
1.92659e-05
-2.10585e-05
1.1595e-06
2.86853e-05
-1.30507e-05
3.63133e-06
3.09772e-05
-6.71944e-06
4.42754e-06
3.42642e-05
-6.89255e-06
3.60556e-06
3.73181e-05
-5.96104e-06
2.90708e-06
3.86271e-05
-3.8146e-06
2.50567e-06
3.88266e-05
-2.42265e-06
2.22308e-06
3.8502e-05
-1.676e-06
2.00061e-06
3.79408e-05
-1.25647e-06
1.8177e-06
3.71561e-05
-9.18431e-07
1.70311e-06
3.61429e-05
-5.93816e-07
1.60701e-06
3.49209e-05
-3.07018e-07
1.52902e-06
3.34944e-05
-3.77926e-08
1.46433e-06
3.17876e-05
3.11482e-07
1.39526e-06
2.97902e-05
6.71507e-07
1.32586e-06
2.74962e-05
1.04932e-06
1.24468e-06
2.4926e-05
1.41324e-06
1.15696e-06
2.21531e-05
1.68376e-06
1.08919e-06
1.93256e-05
1.7189e-06
1.10861e-06
1.66176e-05
1.55151e-06
1.15646e-06
1.42156e-05
1.18373e-06
1.21828e-06
1.23889e-05
5.2595e-07
1.30071e-06
1.1177e-05
-7.44157e-08
1.28634e-06
1.02978e-05
-3.92534e-07
1.2717e-06
9.54782e-06
-6.47955e-07
1.39796e-06
8.69001e-06
-8.47855e-07
1.70567e-06
7.74248e-06
-9.57617e-07
1.90514e-06
6.89044e-06
-1.08181e-06
1.93384e-06
6.44387e-06
-1.29584e-06
1.74241e-06
6.09475e-06
-1.245e-06
1.59412e-06
5.54214e-06
-8.87309e-07
1.43991e-06
4.54045e-06
-4.01561e-07
1.40325e-06
3.15378e-06
7.90368e-08
1.30763e-06
7.46026e-07
1.01149e-06
1.39627e-06
-1.11428e-06
1.99846e-06
-1.38146e-07
2.37028e-06
-3.48457e-06
-2.11346e-06
-3.10243e-06
9.31571e-08
-1.0197e-06
-3.24033e-06
5.50858e-08
-5.61213e-07
-2.22672e-06
4.32979e-07
-2.04976e-08
-2.04837e-06
2.7073e-07
3.03739e-07
-1.231e-06
1.52116e-07
5.11587e-07
-9.3487e-07
6.25023e-08
4.33253e-07
-2.72913e-07
-1.04479e-08
1.47881e-07
-6.02099e-08
6.65618e-08
-2.35377e-07
8.10447e-08
1.10655e-07
-5.09318e-07
1.48405e-08
8.40308e-08
-6.66559e-07
-9.74498e-08
3.92925e-08
-6.72831e-07
-2.51933e-07
-3.32512e-08
-6.07867e-07
-3.54972e-07
-6.20578e-08
-4.84159e-07
-4.41337e-07
-8.17535e-08
-3.66907e-07
-4.76158e-07
-5.98312e-08
-2.50076e-07
-5.14968e-07
-4.35175e-08
-1.72426e-07
-5.19772e-07
-8.81117e-09
-1.08723e-07
-5.3688e-07
7.4725e-09
-6.9541e-08
-5.38878e-07
2.39383e-08
-4.14834e-08
-5.40557e-07
3.18465e-08
-2.5698e-08
-5.35097e-07
3.72807e-08
-1.6382e-08
-5.28447e-07
3.83215e-08
-1.21471e-08
-5.19286e-07
3.74711e-08
-1.07774e-08
-5.09517e-07
3.48051e-08
-1.10794e-08
-4.99156e-07
3.129e-08
-1.18718e-08
-4.88962e-07
2.71342e-08
-1.25131e-08
-4.79063e-07
2.2677e-08
-1.31513e-08
-4.69131e-07
1.83698e-08
-1.36194e-08
-4.59431e-07
1.40946e-08
-1.46166e-08
-4.49074e-07
1.03528e-08
-1.44434e-08
-4.41175e-07
6.19986e-09
-1.83232e-08
-4.27122e-07
3.95611e-09
-1.80615e-08
-4.22258e-07
-1.98137e-09
-2.75247e-08
-4.01433e-07
-1.73878e-09
-2.21198e-08
-4.07394e-07
-1.45152e-08
-3.60438e-08
-3.74145e-07
-9.58865e-09
-2.08811e-08
-3.94925e-07
-2.9713e-08
-3.94404e-08
-3.44202e-07
-1.92675e-08
-1.25851e-09
-3.86581e-07
-5.07787e-08
-2.08027e-08
-3.15923e-07
-3.36971e-08
4.88796e-08
-3.92605e-07
-7.11031e-08
5.08614e-08
-3.17101e-07
-5.67754e-08
1.43956e-07
-4.29859e-07
-6.48315e-08
1.33502e-07
-3.58673e-07
-4.79885e-08
2.05778e-07
-5.00554e-07
6.06988e-09
1.05701e-07
-3.96697e-07
3.51327e-08
9.85958e-08
-5.586e-07
9.92683e-08
2.76565e-08
-4.14972e-07
5.20452e-08
-3.57642e-09
-5.89797e-07
1.41553e-07
1.38958e-07
-4.53162e-07
-8.68112e-08
-2.14554e-08
-1.26941e-06
3.81591e-07
-5.46437e-07
-6.26942e-07
4.34744e-07
-1.95872e-06
6.27389e-08
1.06407e-06
-3.54671e-06
6.22175e-07
9.33623e-07
-1.76777e-06
-4.27677e-06
-4.66409e-08
1.89805e-06
-4.9397e-06
-5.06966e-07
-3.21003e-07
4.82291e-06
-2.31476e-06
-9.41654e-06
4.74831e-06
2.327e-06
-1.10596e-05
8.98724e-07
1.62646e-06
-4.13804e-07
-2.67584e-05
8.35817e-07
1.312e-05
-3.24131e-05
-2.17921e-06
1.8039e-05
-2.02005e-05
2.23079e-06
2.06115e-05
-1.43899e-05
5.09801e-06
2.42343e-05
-1.23272e-05
1.81176e-06
2.65822e-05
-9.25178e-06
9.42803e-07
2.79553e-05
-5.731e-06
5.43291e-07
2.89504e-05
-3.68225e-06
2.64465e-07
2.94792e-05
-2.24668e-06
4.19065e-08
2.96284e-05
-1.26964e-06
-1.35965e-07
2.94034e-05
-5.29795e-07
-1.6369e-07
2.88999e-05
4.69431e-08
-1.37279e-07
2.82747e-05
4.02404e-07
-8.42086e-08
2.7453e-05
7.83867e-07
7.48021e-11
2.64386e-05
1.20976e-06
1.16119e-07
2.51782e-05
1.7501e-06
1.81749e-07
2.36778e-05
2.34469e-06
2.05041e-07
2.18487e-05
3.04686e-06
1.9549e-07
1.97365e-05
3.59786e-06
1.98081e-07
1.74188e-05
3.7063e-06
3.30366e-07
1.52137e-05
3.30856e-06
4.4797e-07
1.32062e-05
2.54944e-06
6.41865e-07
1.1457e-05
1.52502e-06
7.50063e-07
1.00683e-05
6.72362e-07
6.41933e-07
8.52048e-06
2.59676e-07
8.95618e-07
6.84243e-06
-1.93815e-07
1.22391e-06
5.79317e-06
-9.06026e-07
1.10743e-06
5.6147e-06
-1.61341e-06
8.34261e-07
5.91059e-06
-1.94068e-06
5.62987e-07
6.38182e-06
-1.86651e-06
9.94398e-08
6.69809e-06
-1.41375e-06
-1.47525e-07
6.3069e-06
-2.14884e-07
-2.81229e-07
4.94489e-06
9.76021e-07
-1.55798e-08
2.69672e-06
2.11299e-06
2.1421e-07
-2.06893e-07
3.22303e-06
6.92076e-07
-1.66099e-06
4.37451e-06
-9.21959e-07
4.88838e-06
-4.17909e-06
-3.00383e-06
-3.66062e-06
-1.10297e-07
-1.98582e-06
-3.95883e-06
-2.99509e-07
-1.59678e-06
-2.79673e-06
1.80964e-07
-9.25875e-07
-2.7517e-06
3.24316e-08
-4.25738e-07
-1.69433e-06
-3.68032e-08
-1.57083e-08
-1.21009e-06
-1.34804e-07
1.27265e-07
-1.45342e-07
-2.70544e-07
-3.37423e-08
2.44641e-07
-1.43846e-07
-3.06226e-07
4.64617e-07
-1.11095e-07
-5.13133e-07
3.2143e-07
-9.96906e-08
-6.36165e-07
1.60892e-07
-1.3532e-07
-6.71067e-07
-1.95456e-08
-1.97495e-07
-6.53245e-07
-1.37477e-07
-2.35328e-07
-5.87627e-07
-2.42808e-07
-2.64157e-07
-4.92953e-07
-3.02463e-07
-2.68383e-07
-3.857e-07
-3.53418e-07
-2.68816e-07
-2.99074e-07
-3.53687e-07
-2.52727e-07
-2.21083e-07
-3.69749e-07
-2.45137e-07
-1.68682e-07
-3.58018e-07
-2.33278e-07
-1.285e-07
-3.52954e-07
-2.27802e-07
-1.03346e-07
-3.3785e-07
-2.22418e-07
-8.66761e-08
-3.24743e-07
-2.20392e-07
-7.76143e-08
-3.08775e-07
-2.19589e-07
-7.37827e-08
-2.92887e-07
-2.20479e-07
-7.36137e-08
-2.77426e-07
-2.21915e-07
-7.49068e-08
-2.63518e-07
-2.24168e-07
-7.61924e-08
-2.50818e-07
-2.26976e-07
-7.70774e-08
-2.38455e-07
-2.29808e-07
-7.76807e-08
-2.26297e-07
-2.32547e-07
-7.7734e-08
-2.13881e-07
-2.35156e-07
-7.79316e-08
-2.03165e-07
-2.37828e-07
-7.88669e-08
-1.87238e-07
-2.38964e-07
-7.86368e-08
-1.80322e-07
-2.42182e-07
-8.07068e-08
-1.57645e-07
-2.41735e-07
-7.62899e-08
-1.62465e-07
-2.49362e-07
-7.98882e-08
-1.25287e-07
-2.45276e-07
-6.57983e-08
-1.50311e-07
-2.58721e-07
-7.05311e-08
-9.06159e-08
-2.48871e-07
-3.93525e-08
-1.48644e-07
-2.69133e-07
-4.92429e-08
-5.76913e-08
-2.48361e-07
-1.22775e-09
-1.68449e-07
-2.72191e-07
-4.25812e-08
-4.31111e-08
-2.32657e-07
-1.81455e-08
-2.04835e-07
-2.49482e-07
-1.11964e-07
-6.92792e-08
-1.95599e-07
-1.33628e-07
-2.75985e-07
-2.0293e-07
-2.1124e-07
-1.25751e-07
-1.9336e-07
-2.04367e-07
-3.93865e-07
-1.71636e-07
-1.48339e-07
-1.90335e-07
-2.80696e-07
-1.60452e-07
-4.64634e-07
-1.13081e-07
-5.73949e-08
-2.19933e-07
-3.36319e-07
-1.25931e-06
-4.44358e-07
3.76826e-07
-2.09759e-06
-2.84925e-08
2.398e-07
-1.91691e-06
-2.34718e-07
1.16744e-07
-1.87387e-06
7.26125e-07
-1.47017e-07
1.57928e-06
-7.94966e-06
2.1971e-07
3.05119e-06
-6.16387e-06
-2.47778e-07
7.22247e-06
4.48005e-06
-3.82847e-06
-1.02023e-06
1.4047e-05
-1.05606e-06
-9.11385e-06
3.11201e-06
5.88036e-06
-4.68382e-07
-3.15532e-05
-3.85062e-06
7.92085e-06
-3.86125e-05
-2.18982e-06
1.00125e-05
-2.46815e-05
2.38933e-06
1.39594e-05
-2.20752e-05
3.73838e-06
1.65708e-05
-1.53795e-05
4.40895e-07
1.79679e-05
-1.01586e-05
-4.90334e-07
1.93551e-05
-6.05405e-06
-1.06417e-06
2.03058e-05
-3.2538e-06
-1.37914e-06
2.10938e-05
-1.41836e-06
-1.61627e-06
2.16747e-05
-1.99352e-07
-1.65125e-06
2.19038e-05
7.40073e-07
-1.4989e-06
2.19014e-05
1.20223e-06
-1.15294e-06
2.15668e-05
1.45799e-06
-7.20948e-07
2.09442e-05
1.70267e-06
-2.96212e-07
1.9876e-05
2.23405e-06
4.39098e-08
1.84613e-05
2.90383e-06
2.60967e-07
1.68436e-05
3.60123e-06
3.61164e-07
1.49647e-05
4.53767e-06
3.88063e-07
1.31694e-05
5.04279e-06
3.50425e-07
1.16368e-05
5.07644e-06
1.62419e-07
1.01449e-05
4.74728e-06
5.31707e-08
7.93838e-06
3.98711e-06
7.68882e-07
5.22992e-06
2.7108e-06
1.52268e-06
3.29048e-06
1.29598e-06
1.31583e-06
2.71729e-06
3.03056e-08
8.02559e-07
3.21904e-06
-1.03681e-06
3.41244e-07
4.21594e-06
-1.76061e-06
-1.42315e-07
5.22848e-06
-1.98182e-06
-6.44131e-07
6.18753e-06
-1.60754e-06
-1.29219e-06
7.1279e-06
-7.40973e-07
-2.06591e-06
7.62512e-06
4.02098e-07
-2.31308e-06
7.48057e-06
2.12811e-06
-2.19844e-06
6.02973e-06
4.02984e-06
-1.60299e-06
3.69301e-06
5.41412e-06
-9.64404e-07
5.29508e-07
6.58646e-06
-1.99934e-07
-1.30028e-06
7.69342e-06
-1.48912e-06
8.21254e-06
-4.62444e-06
-3.6624e-06
-4.12936e-06
2.37688e-09
-2.4283e-06
-4.57605e-06
-6.16878e-07
-2.22098e-06
-3.23245e-06
2.28409e-07
-1.57622e-06
-3.4426e-06
4.61548e-08
-9.93494e-07
-2.45751e-06
1.80467e-07
-3.03754e-07
-1.96484e-06
6.50159e-08
8.04364e-08
-4.1295e-07
-1.1658e-07
8.83887e-08
2.55659e-07
-1.89758e-08
-1.29465e-07
7.64532e-07
-8.20674e-08
-3.50447e-07
6.57751e-07
-1.15352e-07
-4.85507e-07
4.89215e-07
-1.93275e-07
-5.99861e-07
3.35074e-07
-2.40279e-07
-6.41009e-07
1.92553e-07
-2.88893e-07
-6.27258e-07
6.39771e-08
-3.20552e-07
-5.55198e-07
-3.51326e-08
-3.39404e-07
-4.62167e-07
-9.59912e-08
-3.50474e-07
-3.71925e-07
-9.41371e-08
-3.49809e-07
-2.86284e-07
-1.02626e-07
-3.52782e-07
-2.20338e-07
-7.74025e-08
-3.4658e-07
-1.67621e-07
-6.20189e-08
-3.43671e-07
-1.32148e-07
-3.50067e-08
-3.38335e-07
-1.09611e-07
-1.2139e-08
-3.35159e-07
-9.78897e-08
1.13819e-08
-3.31897e-07
-9.32935e-08
3.21468e-08
-3.29648e-07
-9.3778e-08
5.15692e-08
-3.28529e-07
-9.66323e-08
6.81605e-08
-3.28842e-07
-9.97828e-08
8.23936e-08
-3.30079e-07
-1.02113e-07
9.5589e-08
-3.3173e-07
-1.03437e-07
1.08575e-07
-3.33565e-07
-1.03908e-07
1.2173e-07
-3.35156e-07
-1.04646e-07
1.34152e-07
-3.36595e-07
-1.04965e-07
1.49835e-07
-3.3677e-07
-1.04289e-07
1.57983e-07
-3.38997e-07
-1.04548e-07
1.79778e-07
-3.37179e-07
-9.94153e-08
1.75586e-07
-3.432e-07
-1.00919e-07
2.13186e-07
-3.36986e-07
-8.83045e-08
1.8574e-07
-3.48683e-07
-9.25499e-08
2.48933e-07
-3.3532e-07
-7.63307e-08
1.85753e-07
-3.50635e-07
-8.94508e-08
2.83837e-07
-3.28426e-07
-9.91525e-08
1.76648e-07
-3.35415e-07
-1.33801e-07
3.03283e-07
-3.11765e-07
-2.2524e-07
1.78442e-07
-2.91858e-07
-2.81297e-07
2.81278e-07
-2.94521e-07
-4.44701e-07
1.41112e-07
-2.53716e-07
-4.41388e-07
1.91164e-07
-3.20251e-07
-5.95628e-07
1.99734e-09
-2.41647e-07
-4.41307e-07
5.97787e-08
-4.04462e-07
-7.75768e-07
-4.85482e-08
-8.16537e-08
-8.08946e-07
1.0628e-07
-2.93064e-07
-1.85271e-06
3.62093e-07
2.37285e-07
-2.15324e-06
2.04819e-07
6.71847e-08
-3.91138e-07
-1.84425e-06
-1.52598e-07
2.39613e-06
-2.22632e-06
1.65139e-07
6.02364e-06
-1.08226e-05
-7.54571e-07
6.55747e-06
-5.58909e-06
-1.10865e-06
9.96634e-06
3.76492e-06
-2.69379e-06
4.76515e-06
2.26478e-05
-3.39968e-06
-3.57334e-06
-3.60755e-06
1.5058e-05
1.10488e-06
-3.20612e-05
-4.17012e-06
5.44107e-06
-4.03613e-05
-2.58742e-06
2.70104e-06
-2.54301e-05
3.48864e-06
4.58962e-06
-2.61242e-05
2.16042e-06
4.49223e-06
-1.53837e-05
1.01528e-07
7.26768e-06
-1.19001e-05
-1.03393e-06
8.88474e-06
-5.80595e-06
-1.86518e-06
1.06789e-05
-2.57628e-06
-2.47172e-06
1.19186e-05
-2.11069e-07
-2.44698e-06
1.24452e-05
1.10055e-06
-1.8265e-06
1.23951e-05
1.79118e-06
-1.00095e-06
1.18929e-05
1.96273e-06
-2.58373e-07
1.10557e-05
1.94758e-06
3.47659e-07
9.91505e-06
2.14436e-06
6.98928e-07
8.58821e-06
2.83739e-06
7.23498e-07
7.23798e-06
3.7699e-06
4.84165e-07
5.98618e-06
4.71175e-06
1.41274e-07
4.80549e-06
5.68584e-06
3.25148e-08
2.85941e-06
6.44926e-06
5.39609e-07
4.05263e-07
6.35437e-06
1.17622e-06
-1.51615e-06
5.36254e-06
1.30615e-06
-2.57055e-06
3.93228e-06
1.10923e-06
-2.67695e-06
2.32984e-06
4.8737e-07
-2.00294e-06
9.53498e-07
-3.31538e-07
-9.22989e-07
5.43365e-08
-1.10398e-06
3.87605e-07
-5.33674e-07
-1.81373e-06
1.85315e-06
-7.02594e-07
-2.52356e-06
3.47043e-06
-3.04414e-07
-3.29469e-06
5.30158e-06
7.83831e-07
-4.22252e-06
6.88086e-06
2.20138e-06
-4.52165e-06
7.81414e-06
3.34946e-06
-3.88064e-06
7.63827e-06
4.78908e-06
-2.48511e-06
6.31783e-06
6.54951e-06
-1.19922e-06
4.12562e-06
8.21711e-06
-6.10777e-07
8.24308e-07
9.96581e-06
-7.80423e-08
-1.11786e-06
1.11029e-05
-1.46732e-06
1.18009e-05
-4.70624e-06
-4.17995e-06
-4.4383e-06
4.80448e-08
-2.71804e-06
-5.12029e-06
-9.17669e-07
-2.62123e-06
-3.52027e-06
1.91018e-07
-2.00937e-06
-3.87427e-06
-1.80168e-07
-1.68235e-06
-3.06339e-06
2.78858e-07
-9.35856e-07
-2.86906e-06
1.57734e-07
-2.40132e-07
-1.29374e-06
1.85065e-07
5.87022e-08
-2.36513e-07
1.93334e-07
7.6008e-08
7.03834e-07
4.33792e-08
-9.89565e-08
8.57522e-07
-2.48171e-08
-2.79742e-07
8.04177e-07
-1.34192e-07
-4.94114e-07
7.19134e-07
-1.69701e-07
-6.05818e-07
5.37118e-07
-2.32878e-07
-6.37928e-07
3.6863e-07
-2.72557e-07
-5.82853e-07
2.17788e-07
-3.08013e-07
-4.98001e-07
1.48344e-07
-3.29203e-07
-4.07308e-07
1.56418e-07
-3.41268e-07
-3.24939e-07
1.67245e-07
-3.52257e-07
-2.55466e-07
2.09564e-07
-3.56457e-07
-1.97025e-07
2.38948e-07
-3.59426e-07
-1.54006e-07
2.7814e-07
-3.56184e-07
-1.24504e-07
3.10187e-07
-3.51846e-07
-1.07264e-07
3.40976e-07
-3.46852e-07
-9.96879e-08
3.67192e-07
-3.4264e-07
-9.86315e-08
3.89613e-07
-3.39118e-07
-1.00992e-07
4.07241e-07
-3.36738e-07
-1.04472e-07
4.2115e-07
-3.35294e-07
-1.07735e-07
4.33274e-07
-3.34439e-07
-1.102e-07
4.44815e-07
-3.33791e-07
-1.11674e-07
4.562e-07
-3.33012e-07
-1.12528e-07
4.67121e-07
-3.32129e-07
-1.11999e-07
4.79982e-07
-3.30693e-07
-1.10012e-07
4.86882e-07
-3.309e-07
-1.08928e-07
5.0587e-07
-3.27191e-07
-1.0166e-07
4.98624e-07
-3.30321e-07
-1.02966e-07
5.34879e-07
-3.20402e-07
-9.23733e-08
5.02807e-07
-3.27674e-07
-1.0191e-07
5.67764e-07
-3.09311e-07
-1.03339e-07
5.04183e-07
-3.17015e-07
-1.27575e-07
6.00929e-07
-2.92873e-07
-1.83192e-07
5.21344e-07
-2.89095e-07
-2.25121e-07
6.21106e-07
-2.75911e-07
-3.80943e-07
5.84479e-07
-2.50232e-07
-4.28456e-07
6.04465e-07
-2.75693e-07
-6.63846e-07
6.14584e-07
-2.38101e-07
-6.46287e-07
5.02668e-07
-3.29081e-07
-8.69467e-07
4.8413e-07
-2.58972e-07
-7.36971e-07
3.48549e-07
-4.21287e-07
-1.09886e-06
4.21742e-07
-1.08428e-07
-1.10814e-06
4.04955e-07
-2.89415e-07
-1.41355e-06
5.26771e-07
1.40711e-07
-1.42316e-06
2.16952e-07
-2.54091e-09
6.82183e-07
-3.43361e-06
-5.1601e-07
6.64499e-06
-6.79403e-06
-1.39512e-06
1.03116e-05
-1.20408e-05
-2.44856e-06
1.3731e-05
-4.7231e-06
-4.28538e-06
1.97741e-05
7.96353e-06
-1.02417e-05
2.04491e-05
2.42603e-05
-2.28755e-06
4.89953e-06
-1.08345e-05
2.27764e-05
1.97182e-06
-2.49087e-05
-4.2249e-06
1.83335e-06
-3.67695e-05
-3.45328e-06
-8.11276e-06
-2.11445e-05
5.66057e-06
-9.99925e-06
-2.5071e-05
8.33309e-07
-7.41897e-06
-1.75159e-05
-4.48029e-07
-4.44026e-06
-1.30657e-05
-1.81314e-06
-1.23617e-06
-7.03582e-06
-1.97424e-06
1.71459e-06
-3.54319e-06
-1.98386e-06
3.88429e-06
-1.0244e-06
-1.35637e-06
5.02525e-06
3.97238e-07
-4.37647e-07
4.95491e-06
1.30821e-06
5.53312e-07
3.88043e-06
1.72568e-06
1.31152e-06
1.99705e-06
2.2269e-06
1.60407e-06
-3.84806e-07
3.04765e-06
1.47857e-06
-3.07622e-06
4.22449e-06
1.30433e-06
-6.18583e-06
5.62602e-06
1.25348e-06
-8.89098e-06
6.49294e-06
9.23967e-07
-1.07722e-05
6.97919e-06
5.87892e-07
-1.18181e-05
7.0834e-06
4.11763e-07
-1.20086e-05
6.54835e-06
-3.5333e-09
-1.15068e-05
5.61224e-06
-7.51478e-07
-1.0567e-05
4.4826e-06
-1.4901e-06
-9.32143e-06
3.31722e-06
-2.23295e-06
-7.88029e-06
2.44969e-06
-2.93733e-06
-6.1748e-06
1.89447e-06
-3.54562e-06
-4.22949e-06
1.59429e-06
-4.07327e-06
-1.89544e-06
1.51687e-06
-4.55352e-06
9.03279e-07
1.78556e-06
-4.8887e-06
3.91577e-06
2.52485e-06
-4.75352e-06
5.90899e-06
3.47605e-06
-3.26788e-06
6.17176e-06
4.11424e-06
-1.02755e-06
5.38546e-06
5.27477e-06
3.00604e-07
3.79035e-06
7.45632e-06
6.88292e-07
1.26303e-06
1.00751e-05
6.69286e-07
-1.59016e-06
1.2408e-05
4.11052e-07
-2.13118e-06
1.31449e-05
-1.50097e-06
1.42407e-05
-4.57099e-06
-4.64948e-06
-4.35052e-06
-5.53349e-08
-3.03709e-06
-5.48006e-06
-1.25261e-06
-2.91259e-06
-3.68446e-06
3.96916e-08
-2.08822e-06
-3.97054e-06
-7.28081e-07
-1.78346e-06
-3.23857e-06
-1.29567e-07
-1.11748e-06
-3.28673e-06
-2.48298e-07
-4.48663e-07
-2.21919e-06
2.56628e-07
-6.66111e-08
-9.37492e-07
3.18916e-07
1.48785e-07
3.17511e-07
1.70918e-07
1.31378e-07
7.99751e-07
7.5161e-08
-1.23494e-08
9.96332e-07
-4.8439e-08
-2.90192e-07
1.07484e-06
-7.78839e-08
-5.02555e-07
9.12456e-07
-1.62988e-07
-5.92943e-07
6.82951e-07
-2.23951e-07
-5.5067e-07
4.68292e-07
-2.92792e-07
-4.68177e-07
3.9997e-07
-3.34137e-07
-3.81934e-07
4.25192e-07
-3.55034e-07
-3.15505e-07
4.69596e-07
-3.68798e-07
-2.61872e-07
5.3058e-07
-3.74667e-07
-2.19602e-07
5.73899e-07
-3.77241e-07
-1.88745e-07
6.19509e-07
-3.72244e-07
-1.66531e-07
6.53403e-07
-3.65448e-07
-1.52377e-07
6.83611e-07
-3.56807e-07
-1.45493e-07
7.07812e-07
-3.47521e-07
-1.438e-07
7.26513e-07
-3.38611e-07
-1.45391e-07
7.39563e-07
-3.30746e-07
-1.48693e-07
7.48423e-07
-3.23987e-07
-1.52578e-07
7.55421e-07
-3.18277e-07
-1.5657e-07
7.62278e-07
-3.13487e-07
-1.59637e-07
7.68474e-07
-3.09222e-07
-1.62126e-07
7.75021e-07
-3.05426e-07
-1.6285e-07
7.82843e-07
-3.0215e-07
-1.63449e-07
7.87469e-07
-3.00002e-07
-1.62619e-07
8.00065e-07
-2.95038e-07
-1.60829e-07
7.92499e-07
-2.95678e-07
-1.61969e-07
8.19984e-07
-2.83977e-07
-1.66051e-07
7.94568e-07
-2.87693e-07
-1.76473e-07
8.45342e-07
-2.67167e-07
-2.07865e-07
8.05617e-07
-2.70055e-07
-2.31219e-07
8.71964e-07
-2.47692e-07
-3.23057e-07
8.53068e-07
-2.39899e-07
-3.52735e-07
8.86604e-07
-2.35832e-07
-5.1571e-07
9.62928e-07
-2.15485e-07
-5.2312e-07
8.64384e-07
-2.5252e-07
-7.2245e-07
1.06255e-06
-2.48647e-07
-6.6613e-07
7.73091e-07
-3.26755e-07
-8.62055e-07
1.00587e-06
-3.25829e-07
-7.40714e-07
6.77182e-07
-4.49987e-07
-1.02028e-06
9.61523e-07
-2.60224e-07
-8.88021e-07
7.52081e-07
-4.79397e-07
-7.46107e-07
6.66714e-07
-2.81866e-07
-7.90227e-07
3.58816e-07
-9.77552e-08
9.70691e-07
-4.20262e-06
-9.91909e-07
5.41599e-06
-7.15839e-06
-4.08096e-06
7.72217e-06
-5.5784e-06
-8.76856e-06
1.14614e-05
-3.51364e-08
-8.4272e-06
2.20695e-05
6.00772e-06
-8.65236e-06
2.95102e-05
1.62607e-05
5.58801e-07
7.9038e-06
-1.24891e-05
2.3261e-05
2.02356e-06
-1.48969e-05
-4.13167e-06
-5.72676e-06
-2.53004e-05
-3.71866e-06
-1.72962e-05
-1.40781e-05
4.50318e-06
-2.32989e-05
-2.00466e-05
9.78466e-07
-2.36028e-05
-1.73916e-05
1.79626e-07
-2.18201e-05
-1.43453e-05
-5.03084e-07
-1.76237e-05
-1.05986e-05
-6.3357e-07
-1.3966e-05
-6.81221e-06
-3.88641e-07
-1.17304e-05
-3.47077e-06
2.1082e-07
-1.12539e-05
-1.10972e-06
1.03045e-06
-1.23247e-05
6.74034e-07
1.70496e-06
-1.47856e-05
2.3693e-06
1.8173e-06
-1.76122e-05
3.77611e-06
1.27737e-06
-2.02517e-05
4.96362e-06
7.23508e-07
-2.23415e-05
5.95709e-06
3.57286e-07
-2.40131e-05
7.34842e-06
-5.0827e-08
-2.48018e-05
7.92731e-06
-6.45664e-07
-2.50401e-05
8.45905e-06
-1.24155e-06
-2.46125e-05
8.41184e-06
-1.75603e-06
-2.36262e-05
7.75335e-06
-2.1913e-06
-2.22094e-05
6.62952e-06
-2.4341e-06
-2.05719e-05
5.34434e-06
-2.49921e-06
-1.88335e-05
3.99972e-06
-2.42088e-06
-1.69079e-05
2.77814e-06
-2.25406e-06
-1.47199e-05
1.76857e-06
-2.06214e-06
-1.21033e-05
9.36567e-07
-1.95888e-06
-8.92428e-06
1.65762e-07
-1.82791e-06
-5.34866e-06
-1.66134e-07
-1.62393e-06
-2.38791e-06
9.09484e-07
-1.34538e-06
-8.74858e-07
2.62063e-06
-6.57632e-07
-1.05652e-06
3.90954e-06
3.86358e-07
-2.40996e-06
5.77064e-06
8.57565e-07
-3.77753e-06
7.77087e-06
1.05303e-06
-4.76878e-06
1.01462e-05
9.20191e-07
-4.66327e-06
1.19792e-05
3.23213e-07
-3.1749e-06
1.32287e-05
-1.57217e-06
1.537e-05
-4.30415e-06
-5.22248e-06
-3.68706e-06
-2.06685e-07
-3.35526e-06
-5.27838e-06
-2.0689e-06
-3.15404e-06
-3.29026e-06
-5.95404e-07
-2.00152e-06
-3.54699e-06
-1.57605e-06
-1.43885e-06
-2.83204e-06
-9.69195e-07
-9.12378e-07
-2.88745e-06
-9.25743e-07
-3.72682e-07
-2.39677e-06
-3.62117e-07
-5.19065e-08
-1.35155e-06
9.32766e-08
1.15602e-07
1.75705e-08
1.32415e-07
1.53967e-07
6.8068e-07
8.06936e-08
1.25615e-07
1.00916e-06
1.55096e-08
-1.2395e-07
1.30391e-06
2.04844e-08
-3.64682e-07
1.23077e-06
-7.75992e-08
-4.86169e-07
9.8232e-07
-1.77897e-07
-4.56741e-07
7.33616e-07
-2.94769e-07
-4.00516e-07
6.93209e-07
-3.49479e-07
-3.39572e-07
7.40519e-07
-3.76289e-07
-3.0376e-07
8.13236e-07
-3.79467e-07
-2.78069e-07
8.83576e-07
-3.78704e-07
-2.61495e-07
9.31569e-07
-3.7426e-07
-2.50641e-07
9.74943e-07
-3.66305e-07
-2.42495e-07
1.00437e-06
-3.5913e-07
-2.38218e-07
1.02975e-06
-3.50437e-07
-2.37982e-07
1.04815e-06
-3.40589e-07
-2.40581e-07
1.06014e-06
-3.31041e-07
-2.44605e-07
1.06574e-06
-3.22168e-07
-2.49222e-07
1.06705e-06
-3.14021e-07
-2.54101e-07
1.06597e-06
-3.05683e-07
-2.59532e-07
1.06472e-06
-2.97025e-07
-2.64305e-07
1.06279e-06
-2.89555e-07
-2.68503e-07
1.06144e-06
-2.82234e-07
-2.70892e-07
1.06091e-06
-2.75688e-07
-2.74915e-07
1.06118e-06
-2.697e-07
-2.74971e-07
1.06435e-06
-2.64243e-07
-2.80861e-07
1.05821e-06
-2.59833e-07
-2.80931e-07
1.07116e-06
-2.5111e-07
-3.01113e-07
1.06087e-06
-2.46129e-07
-3.07474e-07
1.08515e-06
-2.33457e-07
-3.6196e-07
1.0845e-06
-2.24405e-07
-3.75054e-07
1.10026e-06
-2.15205e-07
-4.73781e-07
1.15081e-06
-1.99024e-07
-4.73872e-07
1.09354e-06
-2.06852e-07
-5.86303e-07
1.27341e-06
-1.9806e-07
-5.32401e-07
1.0355e-06
-2.25021e-07
-6.44253e-07
1.41952e-06
-2.45122e-07
-5.21996e-07
9.33457e-07
-2.82623e-07
-6.64954e-07
1.44999e-06
-3.01162e-07
-4.57383e-07
8.59101e-07
-3.89486e-07
-5.07268e-07
1.29594e-06
-2.84535e-07
-1.61527e-07
8.34501e-07
-4.28156e-07
9.9802e-08
7.50283e-07
-3.44896e-07
1.43928e-07
2.75479e-07
3.92187e-08
9.45579e-07
-3.1804e-06
-1.82388e-06
5.76721e-07
-2.21549e-06
-4.57403e-06
1.02917e-06
3.11331e-06
-9.14417e-06
5.99356e-06
4.96317e-06
-9.96268e-06
1.60569e-05
4.69138e-06
-8.74705e-06
2.91485e-05
5.21198e-06
-2.0429e-06
6.37867e-06
-6.00895e-06
1.62896e-05
-2.69988e-06
-3.65326e-06
-2.16502e-06
-1.87683e-05
-5.95641e-06
-3.27503e-06
-3.01808e-05
-5.66652e-06
3.00163e-06
-4.01853e-05
-1.082e-05
7.78537e-07
-4.51245e-05
-1.30679e-05
6.16183e-07
-4.67176e-05
-1.28324e-05
8.09671e-08
-4.58769e-05
-1.15669e-05
1.28263e-07
-4.37319e-05
-9.02252e-06
6.58156e-08
-4.12407e-05
-6.20767e-06
2.46215e-07
-3.99225e-05
-2.8056e-06
3.78015e-07
-3.96855e-05
-1.19972e-09
4.38551e-07
-3.9953e-05
2.37628e-06
2.60705e-07
-4.0441e-05
4.20849e-06
5.59664e-08
-4.12829e-05
6.00597e-06
-2.00172e-07
-4.2019e-05
7.23415e-06
-5.40486e-07
-4.1471e-05
7.81138e-06
-1.01043e-06
-4.06859e-05
8.31052e-06
-1.16791e-06
-3.93562e-05
8.38743e-06
-1.2577e-06
-3.7767e-05
7.87535e-06
-1.05234e-06
-3.63504e-05
7.02606e-06
-6.8903e-07
-3.52637e-05
5.76572e-06
-2.22632e-07
-3.44302e-05
4.41504e-06
9.60473e-08
-3.3875e-05
3.00094e-06
4.43818e-07
-3.31908e-05
1.42911e-06
6.65073e-07
-3.21732e-05
-1.67795e-07
9.18971e-07
-3.07557e-05
-1.46391e-06
9.83194e-07
-2.86338e-05
-2.80879e-06
8.52871e-07
-2.51455e-05
-3.89538e-06
2.41119e-07
-2.02858e-05
-3.52794e-06
-4.22218e-07
-1.56757e-05
-1.49692e-06
-4.92446e-07
-1.23136e-05
6.51877e-07
-1.04485e-07
-1.03606e-05
3.44476e-06
3.72931e-07
-9.00834e-06
5.97194e-06
4.46621e-07
-7.63064e-06
8.60393e-06
1.64557e-07
-5.9596e-06
1.08167e-05
-5.08542e-07
-3.64573e-06
1.299e-05
-2.07516e-06
1.55935e-05
-3.86921e-06
-5.4581e-06
-2.74543e-06
3.02981e-07
-3.65402e-06
-4.81999e-06
-2.26246e-06
-3.51251e-06
-2.3681e-06
-1.06366e-06
-2.18437e-06
-2.69389e-06
-2.18122e-06
-1.35426e-06
-2.00532e-06
-1.65682e-06
-7.88111e-07
-2.0518e-06
-1.4018e-06
-2.7942e-07
-1.83252e-06
-1.07295e-06
4.75017e-08
-1.20195e-06
-4.76536e-07
2.5392e-07
-4.70903e-08
-1.4177e-07
1.99516e-07
7.09069e-07
2.59955e-08
1.95556e-07
9.94338e-07
1.8763e-08
1.29852e-07
1.32874e-06
4.08528e-08
4.7598e-08
1.40505e-06
-9.2038e-08
-3.44963e-08
1.28484e-06
-2.20449e-07
-9.08993e-08
1.15941e-06
-3.69407e-07
-1.55192e-07
1.19415e-06
-4.36666e-07
-2.09129e-07
1.28363e-06
-4.89188e-07
-2.58329e-07
1.36797e-06
-5.05546e-07
-2.98256e-07
1.44494e-06
-5.21452e-07
-3.37558e-07
1.49884e-06
-5.27984e-07
-3.62892e-07
1.53492e-06
-5.34655e-07
-3.77045e-07
1.55461e-06
-5.36099e-07
-3.83949e-07
1.57143e-06
-5.34788e-07
-3.87623e-07
1.58391e-06
-5.32102e-07
-3.89862e-07
1.592e-06
-5.29631e-07
-3.9197e-07
1.59551e-06
-5.27671e-07
-3.9505e-07
1.59587e-06
-5.25757e-07
-3.98693e-07
1.59368e-06
-5.24079e-07
-4.02536e-07
1.5909e-06
-5.22344e-07
-4.0642e-07
1.58755e-06
-5.20889e-07
-4.10734e-07
1.58475e-06
-5.19006e-07
-4.13969e-07
1.58146e-06
-5.17326e-07
-4.20453e-07
1.58162e-06
-5.13966e-07
-4.24678e-07
1.58166e-06
-5.13084e-07
-4.40393e-07
1.58258e-06
-5.08658e-07
-4.44403e-07
1.58341e-06
-5.08247e-07
-4.7987e-07
1.59373e-06
-4.97393e-07
-4.83315e-07
1.58703e-06
-4.98431e-07
-5.48032e-07
1.62805e-06
-4.78835e-07
-5.42823e-07
1.58239e-06
-4.87344e-07
-6.24321e-07
1.69573e-06
-4.63421e-07
-5.84443e-07
1.54169e-06
-4.88023e-07
-6.12968e-07
1.77998e-06
-4.78036e-07
-4.95796e-07
1.43492e-06
-5.16588e-07
-4.82112e-07
1.91817e-06
-5.12322e-07
-3.00541e-07
1.32879e-06
-5.76893e-07
-3.67533e-07
2.06132e-06
-5.44322e-07
-1.71264e-07
1.29583e-06
-6.32989e-07
-3.05291e-07
1.98185e-06
-5.51866e-07
1.2268e-07
9.78584e-07
-5.72036e-07
3.73797e-08
1.7335e-06
-8.9789e-07
2.22673e-07
1.05404e-06
-9.63832e-07
-2.93579e-06
4.59919e-06
-4.6211e-06
-7.18557e-06
8.20243e-06
-6.1681e-06
-6.01065e-06
1.0422e-05
-8.48354e-06
-1.55554e-06
1.0158e-05
-9.64992e-06
7.06662e-06
7.14817e-06
-1.10789e-05
2.62124e-05
-9.61007e-06
-4.32375e-06
6.01281e-06
-1.8874e-06
1.6078e-05
-5.23335e-06
1.13033e-05
-3.71011e-06
-2.82185e-05
2.25313e-05
-5.50141e-06
-4.02061e-05
3.84006e-06
2.48257e-06
-5.34568e-05
2.655e-06
-2.22354e-07
-6.10961e-05
-5.65931e-06
2.33019e-07
-6.64276e-05
-7.04619e-06
-4.52124e-07
-6.93008e-05
-8.29753e-06
-3.93355e-07
-7.1267e-05
-6.48957e-06
-5.63935e-07
-7.20254e-05
-5.04489e-06
-4.01428e-07
-7.21081e-05
-2.20735e-06
-5.12708e-07
-7.15446e-05
-8.89181e-08
-4.73272e-07
-7.08866e-05
2.20304e-06
-4.82398e-07
-7.02168e-05
4.04632e-06
-5.05153e-07
-6.96983e-05
6.06894e-06
-5.78715e-07
-6.84426e-05
6.56289e-06
-5.8119e-07
-6.71005e-05
7.09544e-06
-6.227e-07
-6.52865e-05
7.02677e-06
-5.268e-07
-6.32879e-05
6.7088e-06
-3.16574e-07
-6.13922e-05
6.03427e-06
-5.14804e-08
-5.97754e-05
5.35472e-06
5.75861e-08
-5.83849e-05
4.27163e-06
1.06751e-07
-5.71408e-05
2.92394e-06
2.50154e-07
-5.60397e-05
1.32073e-06
5.82106e-07
-5.50644e-05
-3.35695e-07
7.92285e-07
-5.48811e-05
-1.79979e-06
1.45138e-06
-5.53496e-05
-3.00794e-06
2.01567e-06
-5.62642e-05
-4.29538e-06
2.40517e-06
-5.74241e-05
-4.92889e-06
2.19791e-06
-5.74824e-05
-4.7498e-06
1.28485e-06
-5.48291e-05
-4.16833e-06
2.28091e-08
-5.06461e-05
-2.68607e-06
-8.40716e-07
-4.56594e-05
-3.04119e-07
-1.23386e-06
-4.01084e-05
2.02336e-06
-1.59858e-06
-3.33309e-05
3.92328e-06
-2.09323e-06
-2.49559e-05
5.49465e-06
-3.04958e-06
-1.44572e-05
6.67575e-06
-4.18192e-06
5.4814e-06
-4.34407e-06
-4.98939e-06
-8.15067e-07
3.15303e-06
-3.75116e-06
-4.51434e-06
-1.54386e-06
-4.07293e-06
-1.2249e-06
-8.21415e-07
-2.95305e-06
-2.05435e-06
-1.7594e-06
-2.05707e-06
-1.30885e-06
-1.59244e-06
-1.14223e-06
-1.52312e-06
-1.44353e-06
-4.2344e-07
-1.28188e-06
-1.26944e-06
-1.30622e-08
-8.2229e-07
-7.90054e-07
2.4419e-07
1.13121e-07
-4.17481e-07
2.61405e-07
7.74997e-07
-8.31597e-08
2.99469e-07
8.21945e-07
1.34311e-07
3.54636e-07
9.50065e-07
3.23492e-07
3.53603e-07
1.10587e-06
3.00195e-07