/*--------------------------------*- C++ -*----------------------------------*\
| =========                 |                                                 |
| \\      /  F ield         | OpenFOAM: The Open Source CFD Toolbox           |
|  \\    /   O peration     | Version:  2.3.0                                 |
|   \\  /    A nd           | Web:      www.OpenFOAM.org                      |
|    \\/     M anipulation  |                                                 |
\*---------------------------------------------------------------------------*/
FoamFile
{
    version     2.0;
    format      ascii;
    class       surfaceScalarField;
    location    "23";
    object      phi.air;
}
// * * * * * * * * * * * * * * * * * * * * * * * * * * * * * * * * * * * * * //

dimensions      [0 3 -1 0 0 0 0];

internalField   nonuniform List<scalar> 
16448
(
-1.01767e-06
-2.0438e-06
7.35137e-07
2.59776e-07
-2.09149e-06
8.14042e-07
5.54107e-07
-1.33526e-06
1.04092e-06
7.88796e-07
-1.23693e-06
1.00223e-06
6.9473e-07
-7.54644e-07
8.48706e-07
6.29811e-07
-6.64519e-07
7.29435e-07
4.40335e-07
-3.61694e-07
5.51166e-07
2.18147e-07
-2.79018e-07
5.01201e-07
-7.21615e-08
-1.91552e-07
4.81855e-07
-3.21487e-07
-1.75062e-07
4.24381e-07
-4.81707e-07
-2.15388e-07
3.756e-07
-4.93171e-07
-2.91447e-07
3.02902e-07
-4.26669e-07
-3.52057e-07
2.85547e-07
-3.03343e-07
-3.99373e-07
2.7604e-07
-2.05805e-07
-4.18726e-07
3.21179e-07
-1.15245e-07
-4.4164e-07
3.51072e-07
-6.1311e-08
-4.50918e-07
3.96973e-07
-1.98392e-08
-4.65688e-07
4.24205e-07
4.63558e-09
-4.75741e-07
4.51254e-07
1.98871e-08
-4.80636e-07
4.65372e-07
2.69255e-08
-4.82013e-07
4.74962e-07
2.99634e-08
-4.80793e-07
4.77742e-07
2.99542e-08
-4.77562e-07
4.77559e-07
2.86862e-08
-4.73325e-07
4.74581e-07
2.68445e-08
-4.68151e-07
4.6998e-07
2.50425e-08
-4.62604e-07
4.64394e-07
2.36092e-08
-4.57011e-07
4.58432e-07
2.25341e-08
-4.51383e-07
4.52446e-07
2.1825e-08
-4.45788e-07
4.46486e-07
2.07947e-08
-4.39702e-07
4.4072e-07
2.09854e-08
-4.34786e-07
4.34584e-07
1.79512e-08
-4.27029e-07
4.30051e-07
1.89711e-08
-4.23961e-07
4.2293e-07
9.97804e-09
-4.12618e-07
4.216e-07
1.5678e-08
-4.16487e-07
4.10776e-07
-5.67129e-10
-3.9764e-07
4.13873e-07
1.41865e-08
-4.09457e-07
3.94692e-07
-6.04369e-09
-3.8201e-07
4.02228e-07
2.0436e-08
-3.99158e-07
3.72666e-07
1.02804e-08
-3.69144e-07
3.79287e-07
6.05369e-08
-3.94005e-07
3.43735e-07
9.3848e-08
-3.71872e-07
3.38547e-07
1.74379e-07
-4.01571e-07
3.21026e-07
2.48355e-07
-4.1709e-07
3.43098e-07
3.03169e-07
-4.22181e-07
3.67351e-07
3.05781e-07
-4.61612e-07
4.58982e-07
2.19671e-07
-4.66406e-07
5.52498e-07
8.78564e-08
-4.33833e-07
5.65628e-07
-1.17155e-07
-4.79442e-07
6.84434e-07
-2.22928e-07
-3.97402e-07
5.03154e-07
7.37545e-08
-1.0482e-06
7.51491e-07
-5.23756e-08
-7.17142e-07
8.43248e-07
-1.46808e-06
-2.85437e-07
1.70112e-06
-3.16515e-06
-3.21527e-08
1.7292e-06
-1.72594e-06
-2.54444e-06
1.10517e-06
-1.59736e-06
-1.7808e-06
1.6522e-06
-1.03025e-06
2.89134e-07
-8.56716e-07
-3.65235e-07
-2.02021e-06
1.35397e-06
-7.70399e-06
8.82084e-07
5.90744e-06
-3.25344e-05
-1.53486e-05
8.59767e-06
-6.07677e-05
-1.4547e-05
2.43234e-06
-1.26574e-05
-6.39685e-06
5.75134e-06
2.99719e-05
-6.69525e-06
4.4058e-06
3.31612e-05
-6.91485e-06
3.59633e-06
3.59915e-05
-5.97292e-06
2.91603e-06
3.7278e-05
-3.83311e-06
2.5123e-06
3.75143e-05
-2.43813e-06
2.22606e-06
3.72062e-05
-1.68913e-06
2.00204e-06
3.66296e-05
-1.26806e-06
1.81723e-06
3.58232e-05
-9.27736e-07
1.70023e-06
3.47959e-05
-5.99872e-07
1.60295e-06
3.35678e-05
-3.09244e-07
1.52449e-06
3.21392e-05
-3.46384e-08
1.45991e-06
3.04324e-05
3.09379e-07
1.39146e-06
2.84335e-05
6.66674e-07
1.3224e-06
2.61359e-05
1.04244e-06
1.24119e-06
2.35606e-05
1.40515e-06
1.15317e-06
2.07778e-05
1.67669e-06
1.0852e-06
1.79341e-05
1.71669e-06
1.10481e-06
1.52155e-05
1.55487e-06
1.15257e-06
1.28066e-05
1.18491e-06
1.21441e-06
1.09764e-05
5.21909e-07
1.29698e-06
9.77311e-06
-7.47451e-08
1.28283e-06
8.89988e-06
-3.88661e-07
1.26864e-06
8.13743e-06
-6.4154e-07
1.39434e-06
7.27128e-06
-8.46805e-07
1.69972e-06
6.31444e-06
-9.61886e-07
1.89686e-06
5.46162e-06
-1.08741e-06
1.9242e-06
5.01157e-06
-1.30253e-06
1.73289e-06
4.65503e-06
-1.25094e-06
1.58551e-06
4.09738e-06
-8.91315e-07
1.4326e-06
3.09867e-06
-4.02537e-07
1.39638e-06
1.78093e-06
7.99481e-08
1.29984e-06
-3.88131e-07
1.01666e-06
1.38589e-06
-1.97955e-06
2.00605e-06
-1.43465e-07
2.3789e-06
-3.50155e-06
-2.11347e-06
-3.10243e-06
9.31571e-08
-1.0197e-06
-3.24033e-06
5.50858e-08
-5.61214e-07
-2.22672e-06
4.32979e-07
-2.04982e-08
-2.04837e-06
2.7073e-07
3.03739e-07
-1.231e-06
1.52116e-07
5.11587e-07
-9.3487e-07
6.25023e-08
4.33253e-07
-2.72913e-07
-1.04479e-08
1.4788e-07
-6.02099e-08
6.65618e-08
-2.35378e-07
8.10447e-08
1.10655e-07
-5.09319e-07
1.48405e-08
8.40308e-08
-6.6656e-07
-9.74498e-08
3.92925e-08
-6.72831e-07
-2.51933e-07
-3.32511e-08
-6.07868e-07
-3.54972e-07
-6.20578e-08
-4.8416e-07
-4.41337e-07
-8.17535e-08
-3.66908e-07
-4.76158e-07
-5.98312e-08
-2.50077e-07
-5.14968e-07
-4.35175e-08
-1.72427e-07
-5.19772e-07
-8.81117e-09
-1.08724e-07
-5.3688e-07
7.4725e-09
-6.9542e-08
-5.38878e-07
2.39383e-08
-4.14843e-08
-5.40557e-07
3.18465e-08
-2.56989e-08
-5.35097e-07
3.72807e-08
-1.6383e-08
-5.28447e-07
3.83215e-08
-1.21481e-08
-5.19286e-07
3.74711e-08
-1.07783e-08
-5.09517e-07
3.48051e-08
-1.10803e-08
-4.99156e-07
3.129e-08
-1.18727e-08
-4.88962e-07
2.71342e-08
-1.2514e-08
-4.79063e-07
2.2677e-08
-1.31523e-08
-4.69131e-07
1.83698e-08
-1.36203e-08
-4.59431e-07
1.40946e-08
-1.46175e-08
-4.49074e-07
1.03528e-08
-1.44443e-08
-4.41175e-07
6.19986e-09
-1.83242e-08
-4.27122e-07
3.95611e-09
-1.80625e-08
-4.22258e-07
-1.98137e-09
-2.75256e-08
-4.01433e-07
-1.73878e-09
-2.21208e-08
-4.07394e-07
-1.45152e-08
-3.60447e-08
-3.74145e-07
-9.58865e-09
-2.0882e-08
-3.94925e-07
-2.9713e-08
-3.94413e-08
-3.44202e-07
-1.92675e-08
-1.25946e-09
-3.86581e-07
-5.07787e-08
-2.08036e-08
-3.15923e-07
-3.36971e-08
4.88787e-08
-3.92605e-07
-7.11031e-08
5.08605e-08
-3.17101e-07
-5.67754e-08
1.43955e-07
-4.29859e-07
-6.48315e-08
1.33501e-07
-3.58673e-07
-4.79885e-08
2.05777e-07
-5.00554e-07
6.06988e-09
1.057e-07
-3.96697e-07
3.51327e-08
9.85948e-08
-5.586e-07
9.92683e-08
2.76556e-08
-4.14972e-07
5.20452e-08
-3.57748e-09
-5.89797e-07
1.41553e-07
1.38956e-07
-4.53162e-07
-8.68112e-08
-2.14584e-08
-1.26941e-06
3.81591e-07
-5.46442e-07
-6.26942e-07
4.34744e-07
-1.95873e-06
6.27389e-08
1.06407e-06
-3.54672e-06
6.22175e-07
9.33623e-07
-1.76781e-06
-4.27676e-06
-4.66408e-08
1.89801e-06
-4.9397e-06
-5.06966e-07
-3.21572e-07
4.82291e-06
-2.31476e-06
-9.41869e-06
4.74839e-06
2.32699e-06
-1.15179e-05
8.99907e-07
1.62595e-06
-3.16595e-05
-2.67448e-05
7.53921e-07
-6.93829e-05
-2.38619e-05
2.27299e-07
-2.34807e-05
-1.2556e-05
4.1995e-06
1.95064e-05
-1.42815e-05
5.08955e-06
2.2795e-05
-1.22955e-05
1.82073e-06
2.51322e-05
-9.24031e-06
9.47003e-07
2.65837e-05
-5.70901e-06
5.40802e-07
2.75735e-05
-3.63985e-06
2.63377e-07
2.80728e-05
-2.21342e-06
4.38828e-08
2.81959e-05
-1.24631e-06
-1.32448e-07
2.79619e-05
-5.16378e-07
-1.60293e-07
2.74536e-05
4.93587e-08
-1.35151e-07
2.68109e-05
4.11921e-07
-8.2322e-08
2.5978e-05
7.9618e-07
2.79467e-09
2.496e-05
1.22395e-06
1.17528e-07
2.37005e-05
1.76585e-06
1.82896e-07
2.21995e-05
2.36218e-06
2.07277e-07
2.0373e-05
3.06376e-06
1.97981e-07
1.8251e-05
3.60429e-06
1.99999e-07
1.59165e-05
3.7025e-06
3.31349e-07
1.36965e-05
3.31505e-06
4.48449e-07
1.16792e-05
2.56236e-06
6.4266e-07
9.93915e-06
1.53738e-06
7.51042e-07
8.55177e-06
6.78462e-07
6.41653e-07
6.9814e-06
2.57568e-07
8.93981e-07
5.31136e-06
-1.96717e-07
1.21998e-06
4.31108e-06
-9.13632e-07
1.10155e-06
4.16043e-06
-1.62259e-06
8.28005e-07
4.45887e-06
-1.95097e-06
5.57783e-07
4.9166e-06
-1.87446e-06
9.90776e-08
5.19624e-06
-1.41086e-06
-1.48462e-07
4.77052e-06
-2.09292e-07
-2.82661e-07
3.38508e-06
9.86066e-07
-1.31408e-08
1.21953e-06
2.12651e-06
2.13823e-07
-1.42353e-06
3.2342e-06
6.86627e-07
-2.60806e-06
4.37701e-06
-9.33874e-07
4.8856e-06
-4.19526e-06
-3.00383e-06
-3.66062e-06
-1.10297e-07
-1.98582e-06
-3.95883e-06
-2.99509e-07
-1.59678e-06
-2.79673e-06
1.80964e-07
-9.25876e-07
-2.7517e-06
3.24316e-08
-4.25738e-07
-1.69433e-06
-3.68032e-08
-1.5709e-08
-1.21009e-06
-1.34804e-07
1.27264e-07
-1.45342e-07
-2.70544e-07
-3.37432e-08
2.44641e-07
-1.43846e-07
-3.06227e-07
4.64617e-07
-1.11095e-07
-5.13134e-07
3.2143e-07
-9.96906e-08
-6.36166e-07
1.60892e-07
-1.3532e-07
-6.71067e-07
-1.95456e-08
-1.97495e-07
-6.53245e-07
-1.37477e-07
-2.35328e-07
-5.87628e-07
-2.42808e-07
-2.64157e-07
-4.92954e-07
-3.02463e-07
-2.68383e-07
-3.85701e-07
-3.53418e-07
-2.68816e-07
-2.99075e-07
-3.53687e-07
-2.52727e-07
-2.21084e-07
-3.69749e-07
-2.45137e-07
-1.68682e-07
-3.58018e-07
-2.33278e-07
-1.28501e-07
-3.52954e-07
-2.27802e-07
-1.03347e-07
-3.3785e-07
-2.22418e-07
-8.66771e-08
-3.24743e-07
-2.20392e-07
-7.76152e-08
-3.08775e-07
-2.19589e-07
-7.37836e-08
-2.92887e-07
-2.20479e-07
-7.36147e-08
-2.77426e-07
-2.21915e-07
-7.49078e-08
-2.63518e-07
-2.24168e-07
-7.61934e-08
-2.50818e-07
-2.26976e-07
-7.70783e-08
-2.38455e-07
-2.29808e-07
-7.76817e-08
-2.26297e-07
-2.32547e-07
-7.77349e-08
-2.13881e-07
-2.35156e-07
-7.79326e-08
-2.03165e-07
-2.37828e-07
-7.88679e-08
-1.87238e-07
-2.38964e-07
-7.86378e-08
-1.80322e-07
-2.42182e-07
-8.07078e-08
-1.57645e-07
-2.41735e-07
-7.62909e-08
-1.62465e-07
-2.49362e-07
-7.98892e-08
-1.25287e-07
-2.45276e-07
-6.57992e-08
-1.50311e-07
-2.58721e-07
-7.05321e-08
-9.06159e-08
-2.48871e-07
-3.93535e-08
-1.48644e-07
-2.69133e-07
-4.92439e-08
-5.76913e-08
-2.48361e-07
-1.22874e-09
-1.68449e-07
-2.72191e-07
-4.25822e-08
-4.31111e-08
-2.32657e-07
-1.81465e-08
-2.04835e-07
-2.49482e-07
-1.11965e-07
-6.92792e-08
-1.95599e-07
-1.33629e-07
-2.75985e-07
-2.0293e-07
-2.11241e-07
-1.25751e-07
-1.9336e-07
-2.04368e-07
-3.93865e-07
-1.71636e-07
-1.4834e-07
-1.90335e-07
-2.80696e-07
-1.60453e-07
-4.64634e-07
-1.13081e-07
-5.73965e-08
-2.19933e-07
-3.36319e-07
-1.25931e-06
-4.44358e-07
3.76826e-07
-2.09759e-06
-2.84925e-08
2.398e-07
-1.91692e-06
-2.34718e-07
1.16744e-07
-1.87389e-06
7.26125e-07
-1.47017e-07
1.57923e-06
-7.94966e-06
2.1971e-07
3.05114e-06
-6.16387e-06
-2.47778e-07
7.22193e-06
4.48005e-06
-3.82847e-06
-1.02052e-06
1.40471e-05
-1.05607e-06
-9.50691e-06
3.11234e-06
5.88036e-06
-3.13091e-05
-3.16062e-05
-3.88746e-06
-7.62018e-05
-3.30756e-05
2.12555e-07
-3.21163e-05
-2.10269e-05
2.42133e-06
1.26988e-05
-2.2103e-05
3.73016e-06
1.49549e-05
-1.53858e-05
4.39034e-07
1.65014e-05
-1.01878e-05
-4.86384e-07
1.78766e-05
-6.06088e-06
-1.05305e-06
1.87671e-05
-3.26796e-06
-1.36774e-06
1.95058e-05
-1.42934e-06
-1.60858e-06
2.00617e-05
-1.97224e-07
-1.65174e-06
2.0287e-05
7.31664e-07
-1.49932e-06
2.02717e-05
1.18924e-06
-1.15197e-06
1.99233e-05
1.4456e-06
-7.18353e-07
1.92863e-05
1.69173e-06
-2.92479e-07
1.82277e-05
2.22135e-06
4.86079e-08
1.68258e-05
2.8877e-06
2.63718e-07
1.5211e-05
3.58276e-06
3.63207e-07
1.33424e-05
4.52112e-06
3.90267e-07
1.15466e-05
5.05169e-06
3.55036e-07
1.00122e-05
5.0949e-06
1.65968e-07
8.51523e-06
4.75454e-06
5.67305e-08
6.28413e-06
3.97263e-06
7.70191e-07
3.57788e-06
2.69264e-06
1.52167e-06
1.70639e-06
1.28521e-06
1.3147e-06
1.2006e-06
3.03392e-08
8.00904e-07
1.73337e-06
-1.03281e-06
3.39817e-07
2.74546e-06
-1.75337e-06
-1.42571e-07
3.75698e-06
-1.96939e-06
-6.49454e-07
4.69778e-06
-1.59053e-06
-1.30171e-06
5.59666e-06
-7.27095e-07
-2.07765e-06
6.05014e-06
4.13078e-07
-2.32281e-06
5.84399e-06
2.14285e-06
-2.20479e-06
4.34798e-06
4.02728e-06
-1.60596e-06
2.06737e-06
5.40368e-06
-9.66193e-07
-8.39435e-07
6.57302e-06
-1.99423e-07
-2.36156e-06
7.67839e-06
-1.50124e-06
8.20312e-06
-4.63885e-06
-3.6624e-06
-4.12936e-06
2.37688e-09
-2.4283e-06
-4.57605e-06
-6.16878e-07
-2.22098e-06
-3.23245e-06
2.28409e-07
-1.57622e-06
-3.4426e-06
4.61548e-08
-9.93495e-07
-2.45751e-06
1.80467e-07
-3.03755e-07
-1.96484e-06
6.50159e-08
8.04356e-08
-4.1295e-07
-1.1658e-07
8.83878e-08
2.55659e-07
-1.89758e-08
-1.29466e-07
7.64532e-07
-8.20674e-08
-3.50448e-07
6.57751e-07
-1.15352e-07
-4.85507e-07
4.89215e-07
-1.93275e-07
-5.99862e-07
3.35074e-07
-2.40279e-07
-6.4101e-07
1.92553e-07
-2.88893e-07
-6.27259e-07
6.39771e-08
-3.20552e-07
-5.55199e-07
-3.51326e-08
-3.39404e-07
-4.62168e-07
-9.59912e-08
-3.50474e-07
-3.71926e-07
-9.41371e-08
-3.49809e-07
-2.86285e-07
-1.02626e-07
-3.52782e-07
-2.20339e-07
-7.74025e-08
-3.4658e-07
-1.67622e-07
-6.20189e-08
-3.43671e-07
-1.32149e-07
-3.50067e-08
-3.38335e-07
-1.09612e-07
-1.2139e-08
-3.35159e-07
-9.78907e-08
1.13819e-08
-3.31897e-07
-9.32945e-08
3.21468e-08
-3.29648e-07
-9.3779e-08
5.15692e-08
-3.28529e-07
-9.66333e-08
6.81605e-08
-3.28842e-07
-9.97838e-08
8.23936e-08
-3.30079e-07
-1.02114e-07
9.5589e-08
-3.3173e-07
-1.03438e-07
1.08575e-07
-3.33565e-07
-1.03909e-07
1.2173e-07
-3.35156e-07
-1.04647e-07
1.34152e-07
-3.36595e-07
-1.04966e-07
1.49835e-07
-3.3677e-07
-1.0429e-07
1.57983e-07
-3.38997e-07
-1.04549e-07
1.79778e-07
-3.37179e-07
-9.94163e-08
1.75586e-07
-3.432e-07
-1.0092e-07
2.13186e-07
-3.36986e-07
-8.83055e-08
1.8574e-07
-3.48683e-07
-9.25509e-08
2.48933e-07
-3.3532e-07
-7.63317e-08
1.85753e-07
-3.50635e-07
-8.94518e-08
2.83837e-07
-3.28426e-07
-9.91535e-08
1.76648e-07
-3.35415e-07
-1.33802e-07
3.03283e-07
-3.11765e-07
-2.25241e-07
1.78442e-07
-2.91858e-07
-2.81298e-07
2.81278e-07
-2.94521e-07
-4.44702e-07
1.41112e-07
-2.53716e-07
-4.4139e-07
1.91164e-07
-3.20251e-07
-5.95629e-07
1.99734e-09
-2.41647e-07
-4.41308e-07
5.97787e-08
-4.04462e-07
-7.75769e-07
-4.85482e-08
-8.16537e-08
-8.08948e-07
1.0628e-07
-2.93064e-07
-1.85271e-06
3.62093e-07
2.37285e-07
-2.15324e-06
2.04819e-07
6.71847e-08
-3.91149e-07
-1.84425e-06
-1.52598e-07
2.39611e-06
-2.22632e-06
1.65139e-07
6.02358e-06
-1.08226e-05
-7.54571e-07
6.55741e-06
-5.58909e-06
-1.10865e-06
9.966e-06
3.76491e-06
-2.69379e-06
4.76496e-06
2.26479e-05
-3.39973e-06
-4.07986e-06
-3.6074e-06
1.50581e-05
-3.1978e-05
-3.22592e-05
-4.24058e-06
-8.36449e-05
-3.67781e-05
2.78099e-07
-3.94123e-05
-2.35257e-05
3.68217e-06
2.67476e-06
-2.38524e-05
1.33688e-06
2.70474e-06
-1.48007e-05
1.12146e-07
5.69809e-06
-1.03329e-05
-1.03381e-06
7.20449e-06
-5.76228e-06
-1.86422e-06
8.97745e-06
-2.5485e-06
-2.47334e-06
1.02104e-05
-2.02034e-07
-2.44996e-06
1.07391e-05
1.12076e-06
-1.8265e-06
1.06888e-05
1.81275e-06
-9.98268e-07
1.01763e-05
1.97976e-06
-2.52597e-07
9.31594e-06
1.96003e-06
3.52618e-07
8.16539e-06
2.15533e-06
7.02452e-07
6.84732e-06
2.85337e-06
7.27401e-07
5.49548e-06
3.7938e-06
4.90054e-07
4.24588e-06
4.73826e-06
1.4712e-07
3.06897e-06
5.70842e-06
3.80536e-08
1.11039e-06
6.45109e-06
5.4896e-07
-1.35068e-06
6.34497e-06
1.18849e-06
-3.25398e-06
5.36358e-06
1.31803e-06
-4.27147e-06
3.94696e-06
1.11256e-06
-4.32872e-06
2.34815e-06
4.88092e-07
-3.61852e-06
9.66453e-07
-3.31235e-07
-2.50812e-06
5.70567e-08
-1.10631e-06
-1.16866e-06
-5.26012e-07
-1.81861e-06
3.25126e-07
-6.94139e-07
-2.53238e-06
1.95562e-06
-2.98638e-07
-3.30902e-06
3.74747e-06
7.79301e-07
-4.24245e-06
5.23939e-06
2.1844e-06
-4.54146e-06
6.06786e-06
3.32654e-06
-3.89467e-06
5.82159e-06
4.76526e-06
-2.48965e-06
4.46963e-06
6.52742e-06
-1.19745e-06
2.36432e-06
8.19818e-06
-6.07735e-07
-6.67323e-07
9.94785e-06
-7.38828e-08
-2.28133e-06
1.1086e-05
-1.47732e-06
1.1779e-05
-4.71952e-06
-4.17995e-06
-4.4383e-06
4.80448e-08
-2.71804e-06
-5.12029e-06
-9.17669e-07
-2.62123e-06
-3.52027e-06
1.91018e-07
-2.00937e-06
-3.87427e-06
-1.80168e-07
-1.68235e-06
-3.06339e-06
2.78858e-07
-9.35856e-07
-2.86906e-06
1.57734e-07
-2.40133e-07
-1.29374e-06
1.85065e-07
5.87013e-08
-2.36513e-07
1.93334e-07
7.60071e-08
7.03834e-07
4.33792e-08
-9.89575e-08
8.57522e-07
-2.48171e-08
-2.79743e-07
8.04177e-07
-1.34192e-07
-4.94115e-07
7.19134e-07
-1.69701e-07
-6.05819e-07
5.37118e-07
-2.32878e-07
-6.37929e-07
3.6863e-07
-2.72557e-07
-5.82854e-07
2.17788e-07
-3.08013e-07
-4.98002e-07
1.48344e-07
-3.29203e-07
-4.07309e-07
1.56418e-07
-3.41268e-07
-3.2494e-07
1.67245e-07
-3.52257e-07
-2.55467e-07
2.09564e-07
-3.56457e-07
-1.97026e-07
2.38948e-07
-3.59426e-07
-1.54007e-07
2.7814e-07
-3.56184e-07
-1.24505e-07
3.10187e-07
-3.51846e-07
-1.07265e-07
3.40976e-07
-3.46852e-07
-9.96889e-08
3.67192e-07
-3.4264e-07
-9.86325e-08
3.89613e-07
-3.39118e-07
-1.00993e-07
4.07241e-07
-3.36738e-07
-1.04473e-07
4.2115e-07
-3.35294e-07
-1.07736e-07
4.33274e-07
-3.34439e-07
-1.10201e-07
4.44815e-07
-3.33791e-07
-1.11675e-07
4.562e-07
-3.33012e-07
-1.12529e-07
4.67121e-07
-3.32129e-07
-1.12e-07
4.79982e-07
-3.30693e-07
-1.10013e-07
4.86882e-07
-3.309e-07
-1.08929e-07
5.0587e-07
-3.27191e-07
-1.01661e-07
4.98624e-07
-3.30321e-07
-1.02967e-07
5.34879e-07
-3.20402e-07
-9.23744e-08
5.02807e-07
-3.27674e-07
-1.01911e-07
5.67764e-07
-3.09311e-07
-1.0334e-07
5.04183e-07
-3.17015e-07
-1.27576e-07
6.00929e-07
-2.92873e-07
-1.83193e-07
5.21344e-07
-2.89095e-07
-2.25122e-07
6.21106e-07
-2.75911e-07
-3.80945e-07
5.84479e-07
-2.50232e-07
-4.28457e-07
6.04465e-07
-2.75693e-07
-6.63847e-07
6.14584e-07
-2.38101e-07
-6.46288e-07
5.02668e-07
-3.29081e-07
-8.69468e-07
4.8413e-07
-2.58972e-07
-7.36972e-07
3.48549e-07
-4.21287e-07
-1.09886e-06
4.21742e-07
-1.08428e-07
-1.10814e-06
4.04955e-07
-2.89415e-07
-1.41355e-06
5.26771e-07
1.40711e-07
-1.42317e-06
2.16952e-07
-2.54089e-09
6.82171e-07
-3.43361e-06
-5.1601e-07
6.64496e-06
-6.79403e-06
-1.39512e-06
1.03116e-05
-1.20408e-05
-2.44856e-06
1.37309e-05
-4.7231e-06
-4.28538e-06
1.97738e-05
7.96354e-06
-1.02418e-05
2.04488e-05
2.42603e-05
-2.28758e-06
3.82064e-06
-1.08344e-05
2.27764e-05
-3.82554e-05
-2.53363e-05
-4.4339e-06
-0.000107379
-3.55788e-05
-4.06874e-07
-0.000109186
-2.13683e-05
4.7263e-06
-0.000107181
-2.23977e-05
6.31855e-08
-9.14582e-05
-1.55527e-05
-5.63736e-07
-4.12453e-05
-1.00355e-05
-1.90654e-06
-3.33488e-06
-6.4115e-06
-1.76109e-06
-1.57551e-07
-3.14988e-06
-1.45929e-06
2.30891e-06
-8.08286e-07
-7.04538e-07
3.46692e-06
3.34445e-07
-4.4066e-07
3.39075e-06
1.46229e-06
5.58311e-07
2.29919e-06
2.0202e-06
1.78234e-06
3.97817e-07
2.69113e-06
1.92979e-06
-1.98476e-06
3.62921e-06
1.48516e-06
-4.67325e-06
4.82244e-06
1.31204e-06
-7.79258e-06
6.05818e-06
1.44079e-06
-1.05083e-05
6.71446e-06
1.09641e-06
-1.2372e-05
7.09866e-06
8.19535e-07
-1.34311e-05
7.03294e-06
5.75073e-07
-1.3643e-05
6.53508e-06
-2.58905e-08
-1.31594e-05
5.62506e-06
-7.49703e-07
-1.22975e-05
4.59179e-06
-1.48152e-06
-1.11333e-05
3.50623e-06
-2.22807e-06
-9.71337e-06
2.72979e-06
-2.93734e-06
-7.9917e-06
2.2053e-06
-3.54913e-06
-6.01495e-06
1.94938e-06
-4.08229e-06
-3.66786e-06
1.91603e-06
-4.56861e-06
-8.90509e-07
2.19237e-06
-4.90892e-06
2.07735e-06
2.53036e-06
-4.77225e-06
4.01418e-06
3.50807e-06
-3.28625e-06
4.21476e-06
4.14873e-06
-1.03132e-06
3.39256e-06
5.30689e-06
3.04807e-07
1.80298e-06
7.47988e-06
6.91206e-07
-5.84421e-07
1.00815e-05
6.72858e-07
-3.12725e-06
1.23947e-05
4.1343e-07
-3.34594e-06
1.31315e-05
-1.51086e-06
1.4244e-05
-4.58401e-06
-4.64948e-06
-4.35052e-06
-5.53349e-08
-3.03709e-06
-5.48006e-06
-1.25261e-06
-2.91259e-06
-3.68446e-06
3.96916e-08
-2.08822e-06
-3.97054e-06
-7.28081e-07
-1.78346e-06
-3.23857e-06
-1.29567e-07
-1.11748e-06
-3.28673e-06
-2.48298e-07
-4.48664e-07
-2.21919e-06
2.56628e-07
-6.66119e-08
-9.37492e-07
3.18916e-07
1.48784e-07
3.17511e-07
1.70918e-07
1.31377e-07
7.99751e-07
7.5161e-08
-1.23504e-08
9.96332e-07
-4.8439e-08
-2.90193e-07
1.07484e-06
-7.78839e-08
-5.02556e-07
9.12456e-07
-1.62988e-07
-5.92944e-07
6.82951e-07
-2.23951e-07
-5.50671e-07
4.68292e-07
-2.92792e-07
-4.68178e-07
3.9997e-07
-3.34137e-07
-3.81935e-07
4.25192e-07
-3.55034e-07
-3.15506e-07
4.69596e-07
-3.68798e-07
-2.61873e-07
5.3058e-07
-3.74667e-07
-2.19603e-07
5.73899e-07
-3.77241e-07
-1.88746e-07
6.19509e-07
-3.72244e-07
-1.66532e-07
6.53403e-07
-3.65448e-07
-1.52378e-07
6.83611e-07
-3.56807e-07
-1.45494e-07
7.07812e-07
-3.47521e-07
-1.43801e-07
7.26513e-07
-3.38611e-07
-1.45392e-07
7.39563e-07
-3.30746e-07
-1.48694e-07
7.48423e-07
-3.23987e-07
-1.52579e-07
7.55421e-07
-3.18277e-07
-1.56571e-07
7.62278e-07
-3.13487e-07
-1.59638e-07
7.68474e-07
-3.09222e-07
-1.62127e-07
7.75021e-07
-3.05426e-07
-1.62851e-07
7.82843e-07
-3.0215e-07
-1.6345e-07
7.87469e-07
-3.00002e-07
-1.6262e-07
8.00065e-07
-2.95038e-07
-1.6083e-07
7.92499e-07
-2.95678e-07
-1.6197e-07
8.19984e-07
-2.83977e-07
-1.66052e-07
7.94568e-07
-2.87693e-07
-1.76474e-07
8.45342e-07
-2.67167e-07
-2.07866e-07
8.05617e-07
-2.70055e-07
-2.3122e-07
8.71964e-07
-2.47692e-07
-3.23058e-07
8.53068e-07
-2.39899e-07
-3.52736e-07
8.86604e-07
-2.35832e-07
-5.15711e-07
9.62928e-07
-2.15485e-07
-5.23122e-07
8.64384e-07
-2.5252e-07
-7.22452e-07
1.06255e-06
-2.48647e-07
-6.66131e-07
7.73091e-07
-3.26755e-07
-8.62056e-07
1.00587e-06
-3.25829e-07
-7.40715e-07
6.77182e-07
-4.49987e-07
-1.02028e-06
9.61523e-07
-2.60224e-07
-8.88023e-07
7.52081e-07
-4.79397e-07
-7.4611e-07
6.66714e-07
-2.81866e-07
-7.90234e-07
3.58816e-07
-9.77551e-08
9.70665e-07
-4.20262e-06
-9.91908e-07
5.41594e-06
-7.15839e-06
-4.08096e-06
7.72206e-06
-5.5784e-06
-8.76857e-06
1.14613e-05
-3.5135e-08
-8.4272e-06
2.20693e-05
6.00772e-06
-8.65237e-06
2.95101e-05
1.62607e-05
5.58871e-07
5.44321e-06
-1.24891e-05
2.3261e-05
-4.72951e-05
-1.53923e-05
-4.74028e-06
-0.000118709
-2.62521e-05
-1.22922e-06
-0.000122316
-1.60872e-05
4.33239e-06
-0.000126576
-1.95201e-05
1.24138e-06
-0.000129432
-1.60571e-05
5.46365e-07
-0.000128137
-1.22338e-05
1.66255e-08
-0.000126927
-8.34432e-06
1.17151e-07
-0.00012379
-5.47738e-06
5.36995e-07
-0.000123078
-2.50353e-06
1.13983e-06
-0.000124112
-7.12892e-07
1.74721e-06
-0.000125577
1.4538e-06
2.04919e-06
-0.000126361
2.73105e-06
1.78956e-06
-0.000130107
4.17042e-06
1.33335e-06
-0.000134191
5.48686e-06
8.82224e-07
-0.000135973
6.67761e-06
3.47972e-07
-0.00013785
7.62625e-06
-1.40456e-07
-0.000138335
8.20862e-06
-5.95487e-07
-0.000138108
8.32554e-06
-1.07105e-06
-0.000138042
7.95658e-06
-1.51311e-06
-0.000138024
7.15896e-06
-1.75529e-06
-0.000137326
6.01068e-06
-2.02028e-06
-0.000136226
4.95467e-06
-2.02778e-06
-0.000135195
3.93105e-06
-1.99754e-06
-0.000132674
2.97572e-06
-1.87866e-06
-0.000127568
1.66031e-06
-1.7273e-06
-0.000115159
8.488e-07
-1.59197e-06
-8.25169e-05
2.97145e-07
-1.4072e-06
-3.30327e-05
4.92182e-07
-1.18553e-06
-3.95731e-06
3.82491e-07
-1.07838e-06
-2.42727e-06
2.0274e-06
-2.33759e-07
-2.91607e-06
3.8962e-06
3.87999e-07
-4.35041e-06
5.72975e-06
8.60708e-07
-5.52235e-06
7.75504e-06
1.05512e-06
-6.12765e-06
1.01926e-05
9.20685e-07
-5.78869e-06
1.23003e-05
3.23526e-07
-4.26313e-06
1.38355e-05
-1.58412e-06
1.55313e-05
-4.32005e-06
-5.22248e-06
-3.68706e-06
-2.06685e-07
-3.35526e-06
-5.27838e-06
-2.0689e-06
-3.15404e-06
-3.29026e-06
-5.95404e-07
-2.00152e-06
-3.54699e-06
-1.57605e-06
-1.43885e-06
-2.83204e-06
-9.69195e-07
-9.12379e-07
-2.88745e-06
-9.25743e-07
-3.72683e-07
-2.39677e-06
-3.62117e-07
-5.19072e-08
-1.35155e-06
9.32766e-08
1.15601e-07
1.75705e-08
1.32415e-07
1.53966e-07
6.8068e-07
8.06936e-08
1.25614e-07
1.00916e-06
1.55096e-08
-1.23951e-07
1.30391e-06
2.04845e-08
-3.64682e-07
1.23077e-06
-7.75992e-08
-4.8617e-07
9.8232e-07
-1.77897e-07
-4.56742e-07
7.33616e-07
-2.94769e-07
-4.00517e-07
6.93209e-07
-3.49479e-07
-3.39573e-07
7.40519e-07
-3.76289e-07
-3.03761e-07
8.13236e-07
-3.79467e-07
-2.78071e-07
8.83576e-07
-3.78704e-07
-2.61496e-07
9.31569e-07
-3.7426e-07
-2.50642e-07
9.74943e-07
-3.66305e-07
-2.42496e-07
1.00437e-06
-3.5913e-07
-2.38219e-07
1.02975e-06
-3.50437e-07
-2.37983e-07
1.04815e-06
-3.40589e-07
-2.40582e-07
1.06014e-06
-3.31041e-07
-2.44606e-07
1.06574e-06
-3.22168e-07
-2.49224e-07
1.06705e-06
-3.14021e-07
-2.54102e-07
1.06597e-06
-3.05683e-07
-2.59533e-07
1.06472e-06
-2.97025e-07
-2.64306e-07
1.06279e-06
-2.89555e-07
-2.68504e-07
1.06144e-06
-2.82234e-07
-2.70893e-07
1.06091e-06
-2.75688e-07
-2.74916e-07
1.06118e-06
-2.697e-07
-2.74972e-07
1.06435e-06
-2.64243e-07
-2.80862e-07
1.05821e-06
-2.59833e-07
-2.80932e-07
1.07116e-06
-2.5111e-07
-3.01115e-07
1.06087e-06
-2.46129e-07
-3.07476e-07
1.08515e-06
-2.33457e-07
-3.61961e-07
1.0845e-06
-2.24405e-07
-3.75055e-07
1.10026e-06
-2.15205e-07
-4.73783e-07
1.15081e-06
-1.99024e-07
-4.73873e-07
1.09354e-06
-2.06852e-07
-5.86304e-07
1.27341e-06
-1.9806e-07
-5.32402e-07
1.0355e-06
-2.25021e-07
-6.44255e-07
1.41952e-06
-2.45122e-07
-5.21998e-07
9.33457e-07
-2.82623e-07
-6.64955e-07
1.44999e-06
-3.01162e-07
-4.57384e-07
8.59101e-07
-3.89486e-07
-5.07269e-07
1.29594e-06
-2.84535e-07
-1.61529e-07
8.34501e-07
-4.28156e-07
9.97986e-08
7.50283e-07
-3.44896e-07
1.43918e-07
2.75479e-07
3.92188e-08
9.45541e-07
-3.1804e-06
-1.82388e-06
5.7666e-07
-2.21549e-06
-4.57403e-06
1.02909e-06
3.11332e-06
-9.14417e-06
5.99349e-06
4.96317e-06
-9.96268e-06
1.60568e-05
4.69138e-06
-8.74704e-06
2.91484e-05
5.21196e-06
-2.04288e-06
1.55741e-06
-6.00895e-06
1.62896e-05
-6.57214e-05
-3.74482e-06
-2.70156e-06
-0.000137002
-7.35548e-06
-1.67897e-06
-0.000134569
-7.81237e-06
3.57573e-06
-0.000142429
-1.1502e-05
1.31054e-06
-0.000158617
-1.32914e-05
1.23446e-06
-0.000161045
-1.23143e-05
6.57707e-07
-0.000157959
-1.05531e-05
6.93008e-07
-0.000157044
-8.0703e-06
5.64682e-07
-0.000159244
-5.41476e-06
7.15905e-07
-0.000159871
-2.65627e-06
7.84741e-07
-0.000153832
6.58177e-07
7.54512e-07
-0.000151934
2.50221e-06
6.58574e-07
-0.000152961
4.68449e-06
4.25972e-07
-0.000153256
6.23692e-06
2.00461e-07
-0.000157313
7.23718e-06
-1.59001e-07
-0.000158935
7.80303e-06
-3.51384e-07
-0.000163608
8.33353e-06
-5.04303e-07
-0.000165331
8.21995e-06
-5.13156e-07
-0.000161059
7.6288e-06
-3.17624e-07
-0.000157274
6.60322e-06
2.49176e-08
-0.000154735
5.26287e-06
4.25859e-07
-0.000154802
3.97151e-06
6.40255e-07
-0.000158123
2.75854e-06
9.23892e-07
-0.000157615
1.30605e-06
1.07161e-06
-0.000154171
-4.41892e-07
1.28572e-06
-0.000147447
-1.77888e-06
1.24782e-06
-0.000146705
-2.77046e-06
9.45106e-07
-0.000146569
-3.07729e-06
3.20049e-07
-0.000122127
-2.07985e-06
-9.80014e-08
-5.95941e-05
-2.64464e-07
-9.10567e-08
-1.40655e-05
1.16005e-06
-1.62649e-07
-1.21115e-05
3.73146e-06
4.83479e-07
-1.1316e-05
6.49585e-06
5.44074e-07
-6.72707e-05
8.60034e-06
2.42327e-08
-0.000124341
1.18822e-05
-1.0954e-06
-0.000125669
1.40865e-05
-2.83355e-06
1.55738e-05
-4.18141e-06
-5.4581e-06
-2.74543e-06
3.02981e-07
-3.65402e-06
-4.81999e-06
-2.26246e-06
-3.51251e-06
-2.3681e-06
-1.06366e-06
-2.18437e-06
-2.69389e-06
-2.18122e-06
-1.35426e-06
-2.00532e-06
-1.65682e-06
-7.88112e-07
-2.0518e-06
-1.4018e-06
-2.79421e-07
-1.83252e-06
-1.07295e-06
4.75009e-08
-1.20195e-06
-4.76536e-07
2.53919e-07
-4.70903e-08
-1.4177e-07
1.99515e-07
7.09069e-07
2.59955e-08
1.95555e-07
9.94338e-07
1.8763e-08
1.29851e-07
1.32874e-06
4.08528e-08
4.7597e-08
1.40505e-06
-9.2038e-08
-3.44973e-08
1.28484e-06
-2.20449e-07
-9.09003e-08
1.15941e-06
-3.69407e-07
-1.55193e-07
1.19415e-06
-4.36666e-07
-2.0913e-07
1.28363e-06
-4.89188e-07
-2.5833e-07
1.36797e-06
-5.05546e-07
-2.98257e-07
1.44494e-06
-5.21452e-07
-3.37559e-07
1.49884e-06
-5.27984e-07
-3.62893e-07
1.53492e-06
-5.34655e-07
-3.77046e-07
1.55461e-06
-5.36099e-07
-3.8395e-07
1.57143e-06
-5.34788e-07
-3.87624e-07
1.58391e-06
-5.32102e-07
-3.89863e-07
1.592e-06
-5.29631e-07
-3.91971e-07
1.59551e-06
-5.27671e-07
-3.95051e-07
1.59587e-06
-5.25757e-07
-3.98695e-07
1.59368e-06
-5.24079e-07
-4.02537e-07
1.5909e-06
-5.22344e-07
-4.06421e-07
1.58755e-06
-5.20889e-07
-4.10735e-07
1.58475e-06
-5.19006e-07
-4.1397e-07
1.58146e-06
-5.17326e-07
-4.20454e-07
1.58162e-06
-5.13966e-07
-4.24679e-07
1.58166e-06
-5.13084e-07
-4.40394e-07
1.58258e-06
-5.08658e-07
-4.44404e-07
1.58341e-06
-5.08247e-07
-4.79872e-07
1.59373e-06
-4.97393e-07
-4.83316e-07
1.58703e-06
-4.98431e-07
-5.48033e-07
1.62805e-06
-4.78835e-07
-5.42825e-07
1.58239e-06
-4.87344e-07
-6.24323e-07
1.69573e-06
-4.63421e-07
-5.84444e-07
1.54169e-06
-4.88023e-07
-6.12969e-07
1.77998e-06
-4.78036e-07
-4.95798e-07
1.43492e-06
-5.16588e-07
-4.82113e-07
1.91817e-06
-5.12322e-07
-3.00542e-07
1.32879e-06
-5.76893e-07
-3.67534e-07
2.06132e-06
-5.44322e-07
-1.71266e-07
1.29583e-06
-6.32988e-07
-3.05293e-07
1.98185e-06
-5.51866e-07
1.22678e-07
9.78584e-07
-5.72036e-07
3.73751e-08
1.7335e-06
-8.9789e-07
2.22654e-07
1.05404e-06
-9.63832e-07
-2.93584e-06
4.5992e-06
-4.6211e-06
-7.18563e-06
8.20243e-06
-6.1681e-06
-6.01071e-06
1.0422e-05
-8.48354e-06
-1.55558e-06
1.0158e-05
-9.64992e-06
7.06657e-06
7.14817e-06
-1.10789e-05
2.62123e-05
-9.61005e-06
-4.32374e-06
-5.20148e-07
-1.8874e-06
1.6078e-05
-8.17743e-05
1.21431e-05
-4.24116e-06
-0.000161104
2.05477e-05
-3.39755e-06
-0.000171287
3.41373e-06
3.39871e-06
-0.000184253
2.11436e-06
4.71872e-07
-0.000192491
-5.85796e-06
9.99659e-07
-0.0001954
-6.83467e-06
8.73563e-08
-0.000200363
-7.72031e-06
2.07195e-07
-0.000209013
-5.87272e-06
-3.48403e-09
-0.000209359
-4.7142e-06
9.02242e-08
-0.00020764
-2.17574e-06
-3.43808e-08
-0.000208953
3.73327e-07
9.67107e-08
-0.00020904
2.3869e-06
2.07965e-07
-0.000209572
4.55424e-06
3.72112e-07
-0.000209045
6.1568e-06
4.39736e-07
-0.000209016
6.76114e-06
4.85502e-07
-0.000208847
7.12302e-06
4.46366e-07
-0.00020836
6.99806e-06
5.52318e-07
-0.000208556
6.68584e-06
7.0353e-07
-0.000207982
5.95455e-06
9.03817e-07
-0.00020643
5.12005e-06
9.56075e-07
-0.000205993
4.05964e-06
1.03925e-06
-0.000205881
2.50356e-06
1.19519e-06
-0.000206133
1.08894e-06
1.55942e-06
-0.000206349
-5.67404e-07
1.83041e-06
-0.000206844
-1.65994e-06
2.69663e-06
-0.00020806
-2.66817e-06
3.02902e-06
-0.000208501
-3.73042e-06
3.22066e-06
-0.00020945
-4.18526e-06
2.79903e-06
-0.000209648
-3.8412e-06
2.029e-06
-0.000209832
-2.77338e-06
2.96711e-07
-0.000206012
-7.21689e-07
-4.23759e-07
-0.00019955
1.30147e-06
-7.64378e-07
-0.000193252
4.02585e-06
-1.22024e-06
-0.000189411
5.00829e-06
-1.74931e-06
-0.000182591
5.90184e-06
-2.68977e-06
-0.000171373
6.34838e-06
-3.57276e-06
5.33319e-06
-2.69643e-06
-4.98939e-06
-8.15067e-07
3.15303e-06
-3.75116e-06
-4.51434e-06
-1.54386e-06
-4.07293e-06
-1.2249e-06
-8.21415e-07
-2.95305e-06
-2.05435e-06
-1.7594e-06
-2.05707e-06
-1.30885e-06
-1.59244e-06
-1.14223e-06
-1.52312e-06
-1.44353e-06
-4.2344e-07
-1.28188e-06
-1.26944e-06
-1.30629e-08
-8.2229e-07
-7.90054e-07
2.44189e-07
1.13121e-07
-4.17481e-07
2.61404e-07
7.74997e-07
-8.31597e-08
2.99468e-07
8.21945e-07
1.34311e-07
3.54635e-07
9.50065e-07
3.23492e-07
3.53602e-07
1.10587e-06
3.00195e-07