/*--------------------------------*- C++ -*----------------------------------*\
| =========                 |                                                 |
| \\      /  F ield         | OpenFOAM: The Open Source CFD Toolbox           |
|  \\    /   O peration     | Version:  2.3.0                                 |
|   \\  /    A nd           | Web:      www.OpenFOAM.org                      |
|    \\/     M anipulation  |                                                 |
\*---------------------------------------------------------------------------*/
FoamFile
{
    version     2.0;
    format      ascii;
    class       surfaceScalarField;
    location    "23";
    object      phi.water;
}
// * * * * * * * * * * * * * * * * * * * * * * * * * * * * * * * * * * * * * //

dimensions      [0 3 -1 0 0 0 0];

internalField   nonuniform List<scalar> 
16448
(
-6.85731e-07
-2.31869e-06
7.25004e-07
7.33532e-07
-2.33431e-06
9.20725e-07
1.01815e-06
-1.32886e-06
1.0475e-06
1.22328e-06
-1.19795e-06
9.95792e-07
1.08311e-06
-7.1228e-07
8.55723e-07
9.24867e-07
-5.60179e-07
7.21546e-07
6.71602e-07
-2.97246e-07
5.5488e-07
4.36068e-07
-2.4668e-07
4.86191e-07
1.7278e-07
-2.06311e-07
4.71887e-07
-7.06708e-08
-1.93916e-07
4.37883e-07
-2.59579e-07
-2.14458e-07
4.0353e-07
-3.32578e-07
-2.67432e-07
3.40498e-07
-3.17701e-07
-3.28616e-07
3.13929e-07
-2.28988e-07
-3.82599e-07
2.93994e-07
-1.3689e-07
-4.14086e-07
3.22223e-07
-4.34552e-08
-4.38832e-07
3.45555e-07
1.63381e-08
-4.47774e-07
3.88247e-07
6.25631e-08
-4.59762e-07
4.13739e-07
8.95943e-08
-4.6879e-07
4.42013e-07
1.07145e-07
-4.73952e-07
4.56628e-07
1.15533e-07
-4.74789e-07
4.66653e-07
1.17729e-07
-4.71783e-07
4.69825e-07
1.15788e-07
-4.66968e-07
4.69169e-07
1.11174e-07
-4.60447e-07
4.65313e-07
1.05412e-07
-4.53084e-07
4.59118e-07
9.90655e-08
-4.45023e-07
4.51633e-07
9.23341e-08
-4.36393e-07
4.43411e-07
8.48209e-08
-4.27033e-07
4.34823e-07
7.62898e-08
-4.16883e-07
4.25716e-07
6.76427e-08
-4.07012e-07
4.1595e-07
6.08347e-08
-3.97496e-07
4.04624e-07
5.77891e-08
-3.86589e-07
3.89943e-07
6.24158e-08
-3.74657e-07
3.70374e-07
8.07809e-08
-3.62708e-07
3.44673e-07
1.20746e-07
-3.5208e-07
3.12482e-07
1.89204e-07
-3.44117e-07
2.76017e-07
2.9069e-07
-3.40421e-07
2.39332e-07
4.20198e-07
-3.40169e-07
2.11035e-07
5.65576e-07
-3.42494e-07
1.97532e-07
7.02392e-07
-3.44085e-07
2.07653e-07
7.86603e-07
-3.38718e-07
2.54972e-07
7.6117e-07
-3.3177e-07
3.57627e-07
5.63112e-07
-3.29208e-07
5.27766e-07
2.33447e-07
-3.33448e-07
6.63459e-07
-4.51652e-08
-4.37254e-07
7.19568e-07
-2.01897e-08
-7.18512e-07
7.08259e-07
5.82567e-08
-7.50907e-07
6.98871e-07
-1.52639e-07
-5.04345e-07
7.73594e-07
-1.45052e-06
-1.90287e-07
1.60162e-06
-4.14804e-06
-4.78625e-07
3.40228e-06
-3.36723e-06
-8.0174e-06
7.32826e-06
3.13494e-07
-1.46684e-05
1.09047e-05
3.85957e-06
-1.60743e-05
1.24268e-05
7.53478e-06
-1.67906e-05
1.29537e-05
1.17631e-05
-1.66124e-05
1.23216e-05
1.70697e-05
-1.57761e-05
1.02436e-05
1.14763e-05
-2.66383e-06
8.43547e-06
9.41306e-06
1.36956e-06
3.12482e-07
-7.58657e-06
1.24255e-05
1.19931e-05
2.88415e-05
-7.30857e-06
-7.32956e-06
3.33135e-05
-3.41507e-05
1.71057e-06
4.00027e-05
-1.54889e-05
5.97629e-06
3.49131e-05
-1.28232e-06
6.34056e-06
3.4706e-05
-4.71197e-06
4.91904e-06
3.25688e-05
-2.90426e-06
5.04145e-06
3.08125e-05
-2.38074e-06
4.13699e-06
2.94409e-05
-1.86981e-06
3.2414e-06
2.88286e-05
-1.65222e-06
2.2646e-06
2.86817e-05
-1.21779e-06
1.36461e-06
2.91154e-05
-9.65946e-07
5.32303e-07
3.0002e-05
-6.12118e-07
-2.74521e-07
3.08069e-05
-1.0477e-07
-7.0014e-07
3.13675e-05
1.32916e-07
-6.93484e-07
3.17843e-05
2.15493e-08
-4.38347e-07
3.21307e-05
-5.86538e-08
-2.87767e-07
3.22188e-05
-7.71656e-08
-1.09116e-08
3.21218e-05
-7.92085e-08
1.76229e-07
3.24842e-05
-3.80272e-07
1.77773e-08
3.32775e-05
-7.30081e-07
-6.32061e-08
3.35351e-05
-5.64261e-07
3.06656e-07
3.31041e-05
-4.3705e-07
8.68041e-07
3.28422e-05
-1.32774e-06
1.58963e-06
3.05444e-05
-2.80509e-07
2.57836e-06
2.5822e-05
1.74062e-06
2.98175e-06
1.4704e-05
6.4077e-06
4.7103e-06
4.13817e-07
7.58091e-06
6.70927e-06
-9.2207e-06
3.76296e-06
5.87156e-06
-1.56722e-05
1.89148e-06
4.56003e-06
-2.02375e-05
1.12264e-06
3.4427e-06
-2.11894e-05
1.22705e-06
-2.75205e-07
-1.8175e-05
1.64956e-06
-4.66398e-06
-1.29758e-05
8.44848e-07
-6.04403e-06
-8.03587e-06
-4.04706e-07
-4.53521e-06
-5.23135e-06
-1.65051e-06
-1.154e-06
-3.40278e-06
-2.47763e-06
6.49056e-07
-3.5853e-06
1.82516e-07
-1.92255e-06
-3.51364e-06
4.41561e-08
-8.46665e-07
-3.47236e-06
6.98265e-08
-5.20931e-07
-2.17185e-06
5.21852e-07
5.3617e-08
-2.06321e-06
2.95406e-07
4.28958e-07
-1.23778e-06
1.55869e-07
6.41004e-07
-8.29059e-07
6.13018e-08
6.04151e-07
-2.30951e-07
-2.4874e-08
3.77169e-07
-5.02132e-08
3.31751e-08
3.9907e-08
4.71985e-08
8.45054e-08
-2.42219e-07
-1.77575e-09
8.96937e-08
-4.39676e-07
-7.41166e-08
5.67681e-08
-5.14393e-07
-1.91665e-07
-1.44473e-09
-4.99435e-07
-3.02554e-07
-4.11932e-08
-4.07943e-07
-4.05081e-07
-6.92215e-08
-2.94883e-07
-4.65646e-07
-6.15979e-08
-1.75222e-07
-5.09571e-07
-4.90823e-08
-8.91685e-08
-5.16621e-07
-1.72785e-08
-1.93003e-08
-5.31091e-07
1.31059e-09
2.46567e-08
-5.30706e-07
1.791e-08
5.63344e-08
-5.31811e-07
2.61164e-08
7.32918e-08
-5.24105e-07
3.23325e-08
8.20181e-08
-5.14556e-07
3.4016e-08
8.35562e-08
-5.02045e-07
3.35203e-08
8.09553e-08
-4.88414e-07
3.05497e-08
7.55791e-08
-4.74066e-07
2.63382e-08
6.88675e-08
-4.59603e-07
2.12742e-08
6.15148e-08
-4.44816e-07
1.57492e-08
5.38171e-08
-4.29348e-07
9.98935e-09
4.58348e-08
-4.13021e-07
4.08183e-09
3.88341e-08
-3.9654e-07
-3.50127e-09
3.63404e-08
-3.7983e-07
-1.51839e-08
4.04916e-08
-3.6227e-07
-2.84464e-08
5.51867e-08
-3.447e-07
-4.46133e-08
8.58509e-08
-3.29119e-07
-6.4178e-08
1.38264e-07
-3.1808e-07
-8.63197e-08
2.16827e-07
-3.13856e-07
-1.08679e-07
3.23327e-07
-3.17649e-07
-1.29106e-07
4.5325e-07
-3.27199e-07
-1.42676e-07
5.94892e-07
-3.40541e-07
-1.43361e-07
7.24224e-07
-3.51543e-07
-1.21579e-07
7.97224e-07
-3.47701e-07
-6.37172e-08
7.59803e-07
-3.31174e-07
3.71796e-08
5.98686e-07
-3.21947e-07
1.54285e-07
4.12147e-07
-3.64605e-07
2.18611e-07
3.76164e-07
-5.56518e-07
1.58533e-07
5.9245e-07
-9.09124e-07
-1.53367e-08
9.01909e-07
-8.61618e-07
-1.76347e-07
8.32708e-07
-3.75752e-07
-1.56696e-08
-8.81736e-07
5.13349e-07
1.09579e-06
-2.1944e-06
-1.3943e-06
2.5482e-06
-4.91389e-06
-1.24089e-05
7.25438e-06
-9.10093e-06
-2.02531e-05
9.73597e-06
-9.81159e-06
-2.38838e-05
8.44112e-06
-9.64225e-06
-2.50776e-05
8.02227e-06
-6.70097e-06
-2.6005e-05
6.54901e-06
-4.24387e-06
-2.1929e-05
3.44742e-06
5.78307e-06
-1.09316e-05
-1.03272e-06
2.02393e-05
-8.68659e-06
-6.00984e-06
1.55176e-06
2.71835e-05
1.47099e-05
3.00403e-05
-1.23607e-05
-1.7966e-06
1.29754e-05
-4.28529e-05
-2.51823e-06
6.54234e-06
-1.44764e-05
3.46545e-06
2.54587e-06
1.06058e-06
1.64924e-06
-1.22369e-06
-2.36481e-06
1.42241e-06
3.11045e-06
-2.58233e-06
-4.65608e-06
5.19339e-06
1.50132e-06
-5.96499e-06
8.10664e-06
1.85134e-06
-6.6344e-06
1.10974e-05
2.98172e-06
-7.62474e-06
1.39195e-05
4.54988e-06
-8.58971e-06
1.64691e-05
5.96532e-06
-9.48089e-06
1.80957e-05
6.32905e-06
-8.56782e-06
1.89441e-05
5.8679e-06
-6.82105e-06
1.95126e-05
5.11808e-06
-5.55364e-06
1.94511e-05
4.37649e-06
-4.29348e-06
1.9694e-05
3.3682e-06
-3.6697e-06
2.04749e-05
2.3199e-06
-3.17797e-06
2.18048e-05
1.10473e-06
-2.51389e-06
2.28839e-05
3.37386e-07
-1.79672e-06
2.34606e-05
5.30182e-08
-1.35977e-06
2.11322e-05
7.02884e-07
1.06117e-06
1.4103e-05
1.95974e-06
4.63246e-06
7.87268e-06
-5.95315e-07
5.49788e-06
6.28099e-06
-7.96251e-07
2.10743e-06
4.66644e-06
3.23118e-06
1.23991e-07
9.76149e-07
7.9252e-06
2.17279e-06
-3.88927e-06
7.95563e-06
4.49071e-06
-9.85515e-06
4.84362e-06
4.88522e-06
-1.59632e-05
3.56411e-06
4.43541e-06
-1.99021e-05
2.459e-06
2.60254e-06
-2.07338e-05
3.052e-06
-9.93231e-07
-1.77395e-05
3.80866e-06
-5.15337e-06
-1.23877e-05
2.658e-06
-7.16501e-06
-7.61264e-06
3.75762e-07
-5.55549e-06
-4.90881e-06
-1.5305e-06
-2.82385e-06
-3.18173e-06
-3.00859e-06
-1.19613e-06
-4.39226e-06
-2.37476e-06
-2.62365e-06
-4.02919e-06
-2.67997e-07
-1.45349e-06
-4.09524e-06
-5.38013e-07
-1.41526e-06
-2.517e-06
3.13042e-07
-9.8184e-07
-2.55202e-06
5.89309e-08
-4.89441e-07
-1.70028e-06
-2.43607e-08
-3.61209e-08
-1.12475e-06
-1.5182e-07
1.53413e-07
-1.31084e-07
-2.84395e-07
1.58128e-08
2.68472e-07
-1.78595e-07
-2.2213e-07
4.29009e-07
-1.42843e-07
-3.93624e-07
2.94997e-07
-1.24929e-07
-5.0704e-07
1.81867e-07
-1.42251e-07
-5.63379e-07
5.04995e-08
-1.85617e-07
-5.64304e-07
-7.35559e-08
-2.27982e-07
-5.14071e-07
-1.96561e-07
-2.58792e-07
-4.225e-07
-2.85672e-07
-2.71595e-07
-3.12906e-07
-3.44329e-07
-2.74938e-07
-2.16907e-07
-3.50617e-07
-2.62027e-07
-1.30096e-07
-3.64e-07
-2.53988e-07
-6.96237e-08
-3.4929e-07
-2.41896e-07
-2.29238e-08
-3.42359e-07
-2.36203e-07
6.52939e-09
-3.23869e-07
-2.29691e-07
2.438e-08
-3.0568e-07
-2.26749e-07
3.16479e-08
-2.84225e-07
-2.2508e-07
3.2141e-08
-2.63306e-07
-2.25598e-07
2.80546e-08
-2.42693e-07
-2.27262e-07
2.17719e-08
-2.23244e-07
-2.30053e-07
1.52606e-08
-2.04604e-07
-2.33659e-07
1.05641e-08
-1.86537e-07
-2.38075e-07
9.67621e-09
-1.68692e-07
-2.43381e-07
1.37758e-08
-1.50879e-07
-2.49702e-07
2.39009e-08
-1.32869e-07
-2.56999e-07
4.16615e-08
-1.14973e-07
-2.64968e-07
6.78521e-08
-9.77971e-08
-2.7297e-07
1.02813e-07
-8.37768e-08
-2.80171e-07
1.46574e-07
-7.53803e-08
-2.86286e-07
1.98673e-07
-7.45467e-08
-2.91218e-07
2.56911e-07
-8.21226e-08
-2.93526e-07
3.15515e-07
-9.47415e-08
-2.90805e-07
3.63767e-07
-1.09846e-07
-2.7864e-07
3.8418e-07
-1.23147e-07
-2.48498e-07
3.66601e-07
-1.35333e-07
-1.94406e-07
3.08934e-07
-1.58019e-07
-1.15141e-07
2.56102e-07
-2.39071e-07
-2.94946e-08
3.83749e-07
-4.27076e-07
-6.38584e-08
7.98057e-07
-7.58486e-07
-2.07977e-07
1.42821e-06
-1.10957e-06
-4.17135e-07
2.21694e-06
-1.06923e-06
-5.52286e-07
2.74801e-06
-3.86057e-07
-4.81855e-07
1.1675e-06
1.4423e-06
7.54771e-07
-1.6148e-06
-1.55205e-06
3.16989e-06
-9.29007e-06
-1.18758e-05
7.32929e-06
-1.61744e-05
-1.94413e-05
5.99424e-06
-1.84358e-05
-2.72666e-05
5.55098e-06
-2.02752e-05
-2.94019e-05
6.06104e-06
-1.92584e-05
-3.0148e-05
3.17499e-06
-1.30988e-05
-2.5481e-05
-2.87462e-06
7.7625e-06
-2.24831e-05
-8.24228e-06
2.78053e-05
-2.08296e-05
-1.00951e-05
1.34333e-05
4.14254e-05
1.31361e-05
3.31165e-05
-8.22602e-06
-1.89492e-06
3.88268e-06
-4.20017e-05
-2.15083e-06
-7.69965e-06
-6.83861e-06
2.23634e-06
-4.94388e-06
-2.04552e-06
3.49731e-07
-7.24467e-06
1.25469e-06
-1.31871e-06
-5.83024e-06
1.58063e-07
-4.15483e-06
-3.71635e-06
3.33285e-06
-3.94542e-06
4.57423e-07
1.66023e-06
-3.98266e-06
4.81576e-06
2.54086e-06
-3.91747e-06
9.1496e-06
3.85751e-06
-3.64148e-06
1.32594e-05
4.27752e-06
-2.42204e-06
1.68089e-05
4.29729e-06
-1.51765e-06
1.98363e-05
3.41142e-06
-5.70962e-07
2.15816e-05
2.54884e-06
8.2394e-07
2.24239e-05
1.50652e-06
2.02764e-06
2.27959e-05
5.97395e-07
2.39885e-06
2.18481e-05
-4.85404e-08
3.3162e-06
1.8168e-05
-4.36744e-07
5.22161e-06
1.29295e-05
-4.97903e-07
6.07373e-06
8.47012e-06
-1.26956e-07
4.63939e-06
5.46704e-06
7.44857e-07
2.96111e-06
3.31834e-06
1.0919e-06
3.01654e-06
-2.41047e-07
2.98295e-07
2.66577e-06
-2.35529e-06
7.51076e-07
5.66919e-07
-4.22256e-06
5.6581e-06
-5.59656e-07
-5.66505e-06
8.94416e-06
4.23535e-07
-6.96344e-06
7.2958e-06
1.95821e-06
-1.10734e-05
5.17001e-06
3.78355e-06
-1.62071e-05
4.09377e-06
4.60406e-06
-1.95429e-05
3.14426e-06
2.65057e-06
-1.92836e-05
4.47264e-06
-1.67999e-06
-1.61378e-05
5.97833e-06
-5.31549e-06
-1.18681e-05
6.1116e-06
-7.72329e-06
-7.36708e-06
3.192e-06
-7.31723e-06
-4.52753e-06
1.26654e-08
-4.38271e-06
-2.3948e-06
-2.12508e-06
-3.01624e-06
-4.00868e-06
-2.77838e-06
-3.00696e-06
-4.20168e-06
-3.77868e-07
-1.67193e-06
-4.50193e-06
-9.18389e-07
-1.75779e-06
-2.67296e-06
2.502e-07
-1.44034e-06
-2.83529e-06
-3.16733e-08
-1.06113e-06
-2.14132e-06
6.71776e-08
-3.96457e-07
-1.74698e-06
-3.52877e-08
1.06181e-07
-4.52629e-07
-1.74159e-07
1.03986e-07
3.63805e-07
-9.02551e-08
-1.19623e-07
8.00686e-07
-1.47848e-07
-3.02849e-07
6.42789e-07
-1.6449e-07
-4.03242e-07
4.91954e-07
-2.09304e-07
-5.06141e-07
3.97511e-07
-2.43668e-07
-5.56103e-07
2.64072e-07
-2.87468e-07
-5.51458e-07
1.18932e-07
-3.20008e-07
-4.84037e-07
-1.03922e-08
-3.42608e-07
-3.88378e-07
-8.21402e-08
-3.57713e-07
-2.88064e-07
-8.95299e-08
-3.61233e-07
-1.96056e-07
-9.12951e-08
-3.64538e-07
-1.23146e-07
-6.13407e-08
-3.60652e-07
-6.49536e-08
-4.17212e-08
-3.58638e-07
-2.55891e-08
-9.9439e-09
-3.53084e-07
-2.39558e-10
1.73172e-08
-3.48135e-07
1.30615e-08
4.61705e-08
-3.43474e-07
1.75561e-08
7.32098e-08
-3.40767e-07
1.64289e-08
9.82992e-08
-3.3963e-07
1.2443e-08
1.21078e-07
-3.40077e-07
7.88158e-09
1.42043e-07
-3.41843e-07
5.13306e-09
1.61347e-07
-3.44866e-07
6.34332e-09
1.79319e-07
-3.48972e-07
1.32653e-08
1.9631e-07
-3.5383e-07
2.6794e-08
2.12947e-07
-3.59088e-07
4.64655e-08
2.29824e-07
-3.64178e-07
6.99619e-08
2.46589e-07
-3.67617e-07
9.45722e-08
2.60649e-07
-3.68732e-07
1.18134e-07
2.68386e-07
-3.67051e-07
1.38296e-07
2.68194e-07
-3.6258e-07
1.51067e-07
2.6075e-07
-3.55352e-07
1.46596e-07
2.52295e-07
-3.42221e-07
1.07756e-07
2.49174e-07
-3.19857e-07
1.78499e-08
2.49577e-07
-2.82414e-07
-1.0569e-07
2.16683e-07
-2.28031e-07
-1.84031e-07
8.89362e-08
-1.68096e-07
-1.10159e-07
-1.86055e-07
-1.26128e-07
2.39075e-07
-5.93403e-07
-1.80709e-07
9.1584e-07
-1.07613e-06
-3.5174e-07
1.71018e-06
-1.49312e-06
-3.89934e-07
2.84459e-06
-1.70027e-06
-4.57797e-07
4.19987e-06
-1.24557e-06
-4.5198e-07
3.9751e-06
1.29312e-06
5.15952e-07
-7.21424e-07
2.18061e-08
3.22338e-06
-1.03782e-05
-7.64161e-06
5.72792e-06
-1.72594e-05
-1.5499e-05
2.84081e-06
-2.39169e-05
-2.5429e-05
4.7033e-06
-2.919e-05
-3.03177e-05
6.14234e-06
-2.85788e-05
-3.1071e-05
3.80938e-07
-2.13765e-05
-2.56372e-05
-7.26252e-06
-4.48234e-06
-2.5959e-05
-1.13477e-05
7.45388e-06
-2.46259e-05
-8.59003e-06
2.26237e-05
3.63137e-05
7.5114e-06
3.71431e-05
-7.60265e-07
-5.77628e-06
2.17124e-06
-3.58334e-05
-1.42066e-06
-1.01639e-05
6.25153e-07
2.72342e-06
-9.35932e-06
-1.93631e-06
-9.13988e-07
-1.15738e-05
5.41724e-06
-1.94807e-06
-1.01673e-05
2.56982e-06
-3.81833e-06
-5.9406e-06
1.75099e-06
-2.64481e-06
-2.48552e-06
5.58853e-08
-1.85077e-06
9.88485e-07
3.02086e-07
-1.23527e-06
3.93937e-06
9.13414e-07
-6.82441e-09
4.92606e-06
1.5076e-06
1.7832e-06
4.30716e-06
2.15426e-06
2.7619e-06
2.04871e-06
2.27671e-06
3.39315e-06
-1.31452e-06
2.25231e-06
3.65975e-06
-5.61934e-06
1.52082e-06
4.29051e-06
-8.42347e-06
5.68519e-07
2.83299e-06
-9.06331e-06
6.73698e-07
-8.24078e-08
-8.70989e-06
4.27528e-07
-1.21769e-06
-7.75684e-06
5.55393e-07
-2.00635e-06
-6.86462e-06
4.8425e-07
-1.50343e-06
-5.81464e-06
1.00189e-06
-1.30701e-06
-5.18657e-06
2.23085e-06
-1.76701e-06
-7.32423e-06
4.07166e-06
-1.6357e-06
-1.04099e-05
4.7659e-06
-9.29113e-07
-1.09696e-05
5.25419e-06
9.63612e-07
-1.01039e-05
5.40249e-06
2.67597e-06
-1.12051e-05
4.88356e-06
3.51337e-06
-1.53444e-05
3.74715e-06
5.56224e-06
-1.97904e-05
2.76384e-06
5.77591e-06
-2.10815e-05
2.27313e-06
2.16219e-06
-1.83852e-05
4.1779e-06
-2.40147e-06
-1.46007e-05
7.47385e-06
-5.28006e-06
-1.02439e-05
9.31982e-06
-7.56505e-06
-6.2329e-06
6.65862e-06
-7.47759e-06
-3.89362e-06
2.59415e-06
-4.92076e-06
-2.03358e-06
-1.07235e-06
-2.91277e-06
-3.40392e-06
-2.63833e-06
-3.51255e-06
-4.23887e-06
-8.20805e-08
-2.16436e-06
-4.79188e-06
-1.04831e-06
-2.10165e-06
-2.89848e-06
1.73224e-07
-1.63468e-06
-2.99694e-06
-3.03274e-07
-1.36932e-06
-2.3325e-06
-7.02398e-08
-7.82923e-07
-2.23615e-06
-9.20375e-08
-1.74257e-07
-1.13954e-06
8.62178e-08
1.53133e-07
-1.61656e-08
5.8647e-08
1.51496e-07
8.63989e-07
-5.95284e-08
-5.24222e-08
9.69042e-07
-1.22505e-07
-2.20266e-07
8.35595e-07
-1.75488e-07
-4.09718e-07
7.8785e-07
-2.0039e-07
-5.28783e-07
6.26661e-07
-2.4334e-07
-5.71941e-07
4.42486e-07
-2.80347e-07
-5.19427e-07
2.52743e-07
-3.15688e-07
-4.25404e-07
1.62119e-07
-3.38318e-07
-3.20662e-07
1.57754e-07
-3.5204e-07
-2.28571e-07
1.78566e-07
-3.6199e-07
-1.51805e-07
2.29424e-07
-3.67527e-07
-8.89912e-08
2.66538e-07
-3.71112e-07
-4.12987e-08
3.11917e-07
-3.69542e-07
-6.87799e-09
3.50525e-07
-3.67664e-07
1.50614e-08
3.88236e-07
-3.64015e-07
2.67289e-08
4.21732e-07
-3.60232e-07
3.13102e-08
4.5072e-07
-3.57018e-07
3.18369e-08
4.75314e-07
-3.54806e-07
3.10246e-08
4.96387e-07
-3.53544e-07
3.14318e-08
5.14174e-07
-3.53274e-07
3.54427e-08
5.29089e-07
-3.53785e-07
4.44334e-08
5.41767e-07
-3.54479e-07
5.826e-08
5.53523e-07
-3.5439e-07
7.39922e-08
5.66306e-07
-3.52225e-07
8.82431e-08
5.80066e-07
-3.47685e-07
9.65715e-08
5.92744e-07
-3.40402e-07
9.60925e-08
5.99632e-07
-3.30678e-07
8.28846e-08
6.00088e-07
-3.18616e-07
4.61901e-08
5.99821e-07
-3.02218e-07
-3.30844e-08
6.09609e-07
-2.77886e-07
-1.73723e-07
6.3254e-07
-2.42477e-07
-3.72643e-07
6.44894e-07
-1.96177e-07
-5.75016e-07
5.70974e-07
-1.51618e-07
-6.59628e-07
3.10595e-07
-1.367e-07
-5.0316e-07
-1.63253e-07
-1.78584e-07
-1.24235e-07
-6.82311e-07
-2.87675e-07
3.64644e-07
-1.13958e-06
-4.15205e-07
7.97045e-07
-1.5446e-06
-3.51558e-07
1.71318e-06
-2.13701e-06
-4.20031e-07
3.33741e-06
-2.34525e-06
-4.68428e-07
5.47232e-06
-4.62038e-07
-2.43407e-07
2.41691e-06
1.10273e-06
2.03489e-06
-7.96896e-06
-5.74767e-07
3.62469e-06
-1.70689e-05
-6.71099e-06
1.76074e-07
-2.77218e-05
-1.63378e-05
1.46367e-06
-3.44378e-05
-2.5296e-05
1.5516e-06
-3.63814e-05
-2.68888e-05
-2.39918e-06
-3.53382e-05
-2.36538e-05
-3.11487e-06
-3.68866e-05
-1.71486e-05
-6.7369e-06
-3.29812e-05
-2.25423e-05
-7.7853e-06
2.81125e-05
4.06897e-06
-2.50051e-06
4.28085e-05
-2.74996e-06
-3.48012e-06
1.62851e-06
-3.18548e-05
-4.01196e-07
-4.85874e-06
2.31209e-06
2.26269e-06
-1.93061e-06
-3.34848e-06
-1.52405e-06
-6.61841e-06
8.50789e-06
1.59668e-06
-8.88272e-06
3.94237e-06
8.90089e-07
-1.65394e-05
6.08047e-06
3.32611e-06
-2.48253e-05
4.50915e-06
3.83223e-06
-2.94589e-05
4.04111e-06
8.93366e-07
-3.12121e-05
2.70138e-06
-3.6275e-08
-3.19136e-05
2.12006e-06
8.71235e-08
-3.20273e-05
1.55283e-06
7.13028e-07
-3.21589e-05
9.83241e-07
1.42346e-06
-3.20322e-05
1.99068e-07
1.92545e-06
-3.08456e-05
-1.30858e-06
1.64066e-06
-2.8865e-05
-2.80096e-06
1.38562e-06
-2.67083e-05
-2.88106e-06
1.39554e-06
-2.42433e-05
-3.23783e-06
1.19878e-06
-2.22298e-05
-2.9386e-06
1.47952e-06
-2.10396e-05
-2.73705e-06
2.03058e-06
-2.05819e-05
-2.6899e-06
3.23369e-06
-1.98799e-05
-2.37916e-06
3.90768e-06
-1.85674e-05
-1.69449e-06
4.45398e-06
-1.75752e-05
-1.33496e-06
5.10877e-06
-1.68952e-05
-8.01901e-07
5.37614e-06
-1.68517e-05
-6.15021e-08
5.42057e-06
-1.79027e-05
3.74223e-07
5.56037e-06
-2.07487e-05
3.42754e-07
6.25038e-06
-2.28677e-05
-9.51303e-08
4.97798e-06
-2.20009e-05
9.18285e-07
4.88017e-07
-1.8773e-05
3.98287e-06
-3.03286e-06
-1.51812e-05
8.01527e-06
-4.13327e-06
-1.01992e-05
1.04668e-05
-6.12892e-06
-5.33738e-06
8.07622e-06
-6.27944e-06
-2.62767e-06
4.74642e-06
-4.86198e-06
-1.30801e-06
-1.94339e-07
-2.19767e-06
-2.05237e-06
-2.65956e-06
-4.07115e-06
-4.0083e-06
1.40818e-07
-2.77765e-06
-4.96476e-06
-1.11323e-06
-2.53907e-06
-3.09996e-06
-2.58003e-08
-1.67449e-06
-3.05367e-06
-8.04167e-07
-1.29557e-06
-2.28127e-06
-4.25665e-07
-8.11194e-07
-2.27921e-06
-4.37766e-07
-3.52686e-07
-1.58261e-06
-8.98925e-09
5.41389e-08
-5.54759e-07
1.40214e-07
3.06745e-07
6.1229e-07
4.1903e-09
2.49757e-07
1.09029e-06
-6.38167e-08
6.61563e-08
1.14351e-06
-1.24185e-07
-2.28077e-07
1.22192e-06
-1.39201e-07
-4.55395e-07
1.04359e-06
-1.89186e-07
-5.47636e-07
7.76661e-07
-2.41656e-07
-4.97638e-07
5.06799e-07
-3.03841e-07
-3.98178e-07
4.08348e-07
-3.45399e-07
-2.91881e-07
4.15969e-07
-3.64234e-07
-2.11948e-07
4.73872e-07
-3.74882e-07
-1.52222e-07
5.48357e-07
-3.78273e-07
-1.09115e-07
6.03078e-07
-3.7923e-07
-7.52582e-08
6.55744e-07
-3.77266e-07
-4.81098e-08
6.97059e-07
-3.73242e-07
-2.78399e-08
7.34629e-07
-3.66234e-07
-1.41833e-08
7.66146e-07
-3.57611e-07
-5.48608e-09
7.91104e-07
-3.48643e-07
-3.77076e-11
8.10643e-07
-3.403e-07
3.82568e-09
8.26088e-07
-3.33113e-07
7.64814e-09
8.38057e-07
-3.27207e-07
1.23795e-08
8.47147e-07
-3.22317e-07
1.84302e-08
8.53959e-07
-3.17719e-07
2.429e-08
8.60734e-07
-3.12574e-07
2.69699e-08
8.69741e-07
-3.05561e-07
2.19329e-08
8.82714e-07
-2.9709e-07
2.56006e-09
8.99143e-07
-2.8644e-07
-3.56229e-08
9.11567e-07
-2.732e-07
-9.83443e-08
9.19128e-07
-2.557e-07
-1.94955e-07
9.26726e-07
-2.29706e-07
-3.33001e-07
9.41119e-07
-1.92806e-07
-5.12008e-07
9.58525e-07
-1.46344e-07
-7.0384e-07
9.38043e-07
-1.00616e-07
-8.58843e-07
8.0168e-07
-7.50501e-08
-9.11646e-07
4.70479e-07
-1.06224e-07
-7.77971e-07
-5.72642e-08
-2.38427e-07
-5.71208e-07
-5.03295e-07
-3.82308e-07
-5.81878e-07
-6.6082e-07
-4.55263e-07
-8.62947e-07
-8.19309e-07
-4.11359e-07
-9.13946e-07
-1.62839e-06
-4.05414e-07
2.75312e-08
-2.44701e-06
-7.97864e-07
4.17351e-06
-2.92398e-06
-1.58575e-06
6.78145e-06
-9.97874e-07
-3.84489e-07
4.59607e-07
4.24476e-06
1.86875e-06
-6.07484e-06
2.7639e-06
-2.87772e-06
-1.7277e-05
-4.23299e-06
-8.72616e-07
-2.6867e-05
-1.76247e-05
1.81747e-06
-3.20277e-05
-2.26224e-05
7.99478e-07
-3.14512e-05
-2.36723e-05
-9.79255e-07
-2.40517e-05
-1.89972e-05
-3.11642e-06
-2.13012e-05
-2.47446e-05
-2.65081e-06
4.07009e-05
-2.00893e-05
-7.70619e-06
3.81521e-05
-7.79946e-07
1.71117e-06
-1.67276e-05
-1.91238e-05
4.50186e-06
-2.5472e-05
6.26489e-06
4.3186e-06
-3.79135e-05
6.56445e-06
2.53423e-06
-4.32772e-05
1.2021e-05
1.86586e-06
-5.12049e-05
9.85992e-06
2.02927e-06
-5.71424e-05
1.02707e-05
1.75801e-06
-6.08156e-05
6.43503e-06
1.75751e-06
-6.2158e-05
4.29281e-06
1.09282e-06
-6.31648e-05
1.92835e-06
1.77666e-06
-6.36195e-05
4.91064e-07
2.07182e-06
-6.38378e-05
-7.34113e-07
2.48571e-06
-6.41239e-05
-1.59157e-06
2.83409e-06
-6.31868e-05
-3.36948e-06
2.59761e-06
-6.19389e-05
-5.04381e-06
2.43839e-06
-6.058e-05
-6.57492e-06
2.35803e-06
-5.86039e-05
-7.37222e-06
2.45549e-06
-5.59263e-05
-8.45712e-06
2.48173e-06
-5.26997e-05
-8.83178e-06
2.60936e-06
-4.93001e-05
-8.95473e-06
2.76802e-06
-4.57319e-05
-9.06378e-06
2.76213e-06
-4.21536e-05
-8.96899e-06
2.97513e-06
-3.82289e-05
-8.66642e-06
3.01842e-06
-3.42139e-05
-8.35335e-06
2.98117e-06
-3.04032e-05
-7.50779e-06
2.87876e-06
-2.7644e-05
-5.91077e-06
3.08049e-06
-2.58748e-05
-4.52536e-06
3.12535e-06
-2.48462e-05
-3.55862e-06
2.86993e-06
-2.39835e-05
-2.33527e-06
1.37525e-06
-2.21016e-05
7.5184e-07
-1.71746e-06
-1.96574e-05
4.53633e-06
-2.99902e-06
-1.58395e-05
8.41554e-06
-4.21862e-06
-1.04162e-05
1.03375e-05
-5.29359e-06
-5.2887e-06
7.53986e-06
-4.59095e-06
-1.46334e-06
4.72057e-06
-3.79975e-06
-4.66342e-07
1.02236e-06
-2.21396e-06
1.33968e-06
-3.85855e-06
-4.53928e-06
-3.42246e-06
2.47637e-07
-3.25719e-06
-4.78952e-06
-1.45431e-06
-3.00196e-06
-2.85939e-06
-4.86043e-07
-1.7788e-06
-2.85279e-06
-1.4185e-06
-1.09963e-06
-1.94022e-06
-1.01432e-06
-5.74767e-07
-1.94324e-06
-8.56605e-07
-2.39103e-07
-1.43493e-06
-4.77147e-07
1.67873e-08
-7.43652e-07
-6.08943e-08
2.40867e-07
4.31221e-07
-3.70261e-08
3.03801e-07
1.08272e-06
-5.22784e-08
2.288e-07
1.29088e-06
-7.18403e-08
-7.4488e-08
1.56937e-06
-4.35119e-08
-3.528e-07
1.43047e-06
-1.08291e-07
-4.64448e-07
1.09568e-06
-2.07423e-07
-4.19341e-07
7.756e-07
-3.14145e-07
-3.39352e-07
6.94228e-07
-3.66056e-07
-2.48921e-07
7.14111e-07
-3.88795e-07
-1.94441e-07
8.04727e-07
-3.8556e-07
-1.59009e-07
8.92007e-07
-3.79306e-07
-1.39543e-07
9.54588e-07
-3.71237e-07
-1.25276e-07
1.00664e-06
-3.6539e-07
-1.14415e-07
1.04456e-06
-3.58624e-07
-1.06769e-07
1.07668e-06
-3.49913e-07
-1.01464e-07
1.10062e-06
-3.40013e-07
-9.66224e-08
1.11625e-06
-3.30189e-07
-9.17064e-08
1.12602e-06
-3.20516e-07
-8.73698e-08
1.13268e-06
-3.11108e-07
-8.42699e-08
1.13636e-06
-3.01615e-07
-8.28337e-08
1.13821e-06
-2.92667e-07
-8.39972e-08
1.13871e-06
-2.83771e-07
-9.05765e-08
1.14111e-06
-2.73914e-07
-1.05629e-07
1.14761e-06
-2.62941e-07
-1.35585e-07
1.16293e-06
-2.50295e-07
-1.88475e-07
1.18629e-06
-2.34282e-07
-2.66988e-07
1.20603e-06
-2.15868e-07
-3.71294e-07
1.21828e-06
-1.94748e-07
-4.9896e-07
1.22422e-06
-1.69633e-07
-6.35915e-07
1.22003e-06
-1.41742e-07
-7.59004e-07
1.19673e-06
-1.14798e-07
-8.39106e-07
1.11502e-06
-9.65759e-08
-8.60726e-07
9.25568e-07
-1.01932e-07
-8.40562e-07
6.01977e-07
-1.51149e-07
-7.803e-07
1.61741e-07
-2.78239e-07
-8.1151e-07
-7.31172e-08
-3.95969e-07
-1.15219e-06
1.30079e-07
-4.3757e-07
-1.79925e-06
2.92795e-07
-4.34492e-07
-2.3089e-06
-5.47958e-07
-5.24135e-07
-1.81214e-06
-1.77667e-06
-1.12595e-06
1.67029e-06
-3.93956e-06
-2.41991e-06
7.09005e-06
-3.58127e-06
-2.7221e-06
7.81727e-06
3.98576e-06
-1.23999e-07
8.35191e-06
6.30476e-06
-3.84082e-06
5.63672e-08
5.98166e-06
-1.82391e-06
-1.42886e-05
-3.45109e-06
1.70909e-07
-2.53753e-05
-1.34171e-05
1.92206e-06
-2.60511e-05
-2.48123e-05
1.39089e-06
-1.58458e-05
-2.91035e-05
3.38492e-06
-7.77684e-06
-3.46451e-05
8.55837e-07
4.76648e-05
-2.89158e-05
-1.16484e-05
2.96476e-05
2.69616e-06
3.78007e-06
-4.06783e-05
8.86251e-06
1.05979e-05
-5.64327e-05
1.58859e-05
5.87436e-06
-6.69064e-05
1.45971e-05
2.49378e-06
-6.98727e-05
1.51643e-05
-9.53681e-08
-7.28557e-05
1.40249e-05
-1.13133e-06
-7.43364e-05
1.22718e-05
-4.62835e-07
-7.50757e-05
7.4991e-06
-2.96036e-07
-7.52163e-05
4.05739e-06
3.84775e-07
-7.46464e-05
9.48872e-07
4.00073e-07
-7.44712e-05
-6.45479e-07
9.38856e-07
-7.3843e-05
-2.20593e-06
8.23435e-07
-7.3484e-05
-3.18617e-06
1.20991e-06
-7.30734e-05
-4.74045e-06
9.34688e-07
-7.27405e-05
-6.54907e-06
1.13477e-06
-7.20784e-05
-8.17427e-06
8.92192e-07
-7.1111e-05
-9.348e-06
9.42837e-07
-6.97819e-05
-1.08448e-05
9.75013e-07
-6.83001e-05
-1.15622e-05
1.14718e-06
-6.65107e-05
-1.20967e-05
1.23491e-06
-6.46401e-05
-1.22142e-05
1.14399e-06
-6.26071e-05
-1.23499e-05
1.19798e-06
-6.00994e-05
-1.21055e-05
7.64588e-07
-5.72684e-05
-1.17907e-05
4.22456e-07
-5.33566e-05
-1.14231e-05
-1.99194e-07
-4.81004e-05
-1.05571e-05
-8.14194e-07
-4.22965e-05
-8.96083e-06
-1.56392e-06
-3.69862e-05
-6.83322e-06
-2.21e-06
-3.34065e-05
-3.92264e-06
-2.11779e-06
-3.05943e-05
-4.84632e-07
-1.64147e-06
-2.78009e-05
2.66241e-06
-9.44148e-07
-2.35368e-05
5.35035e-06
-1.2214e-06
-1.78709e-05
6.26537e-06
-1.62967e-06
-1.2865e-05
4.49537e-06
-2.00538e-06
-8.11031e-06
1.94505e-06
-2.01588e-06
-4.1593e-06
-5.66619e-07
-2.40108e-06
1.76334e-06
-4.62568e-06
-4.54269e-06
-2.45523e-06
5.41606e-07
-3.51321e-06
-4.21693e-06
-1.60227e-06
-3.47161e-06
-2.24943e-06
-6.43931e-07
-2.16979e-06
-2.42651e-06
-1.72174e-06
-1.24719e-06
-1.5685e-06
-1.28619e-06
-5.05904e-07
-1.52564e-06
-1.15315e-06
-1.34116e-07
-1.02451e-06
-7.75018e-07
1.58408e-08
-6.24583e-07
-2.63476e-07
1.31682e-07
3.13475e-07
6.89892e-09
1.71761e-07
1.06871e-06
-2.20517e-08
2.25501e-07
1.29829e-06
-5.892e-08
1.63975e-07
1.63758e-06
-5.53367e-09
8.3908e-08
1.63898e-06
-1.28047e-07
1.69839e-08
1.41821e-06
-2.55457e-07
-2.21473e-08
1.20224e-06
-3.8728e-07
-6.92558e-08
1.19484e-06
-4.53293e-07
-1.13309e-07
1.26247e-06
-5.04067e-07
-1.57375e-07
1.36637e-06
-5.17345e-07
-1.95843e-07
1.45947e-06
-5.2875e-07
-2.24153e-07
1.5171e-06
-5.34006e-07
-2.36405e-07
1.5552e-06
-5.36166e-07
-2.40791e-07
1.58352e-06
-5.34449e-07
-2.39865e-07
1.60651e-06
-5.30685e-07
-2.35951e-07
1.62294e-06
-5.26187e-07
-2.2973e-07
1.63276e-06
-5.22725e-07
-2.22106e-07
1.63831e-06
-5.19901e-07
-2.15458e-07
1.64231e-06
-5.16314e-07
-2.11723e-07
1.64482e-06
-5.1222e-07
-2.12884e-07
1.64705e-06
-5.07743e-07
-2.21421e-07
1.64986e-06
-5.0266e-07
-2.40946e-07
1.65616e-06
-4.95608e-07
-2.74665e-07
1.66746e-06
-4.86195e-07
-3.29715e-07
1.69104e-06
-4.73167e-07
-4.12695e-07
1.72626e-06
-4.5705e-07
-5.15644e-07
1.75082e-06
-4.41936e-07
-6.26298e-07
1.75849e-06
-4.29632e-07
-7.35454e-07
1.75146e-06
-4.18172e-07
-8.25953e-07
1.71986e-06
-4.09404e-07
-8.81544e-07
1.65884e-06
-4.06553e-07
-8.70185e-07
1.533e-06
-4.29289e-07
-7.7016e-07
1.31326e-06
-4.87705e-07
-6.33554e-07
1.02882e-06
-5.63473e-07
-5.69457e-07
7.79588e-07
-6.81293e-07
-7.99529e-07
8.70888e-07
-7.10942e-07
-1.5558e-06
1.5807e-06
-6.8061e-07
-2.53358e-06
2.06965e-06
-7.67223e-07
-2.98207e-06
1.0412e-06
-1.08847e-06
-2.59963e-06
-3.53328e-07
-1.74497e-06
-7.78627e-07
-2.47946e-06
-3.2186e-06
3.76567e-06
-3.60248e-06
-4.41172e-06
7.57495e-06
2.39502e-06
-2.01576e-06
1.35657e-05
6.78527e-06
-6.24689e-06
1.49301e-05
1.18388e-05
-6.86826e-06
1.17426e-06
1.18553e-05
-1.4837e-06
-1.7769e-05
5.91336e-06
-3.25869e-07
-2.66724e-05
-1.27419e-05
-3.42953e-06
-3.22309e-05
-1.41812e-05
-7.22226e-06
-2.74431e-05
-3.17475e-05
-9.99473e-06
5.35287e-05
-4.7301e-05
-2.15001e-05
3.55217e-05
4.36214e-06
1.99266e-06
-4.59613e-05
3.59647e-05
1.72514e-05
-6.09299e-05
2.12596e-05
9.17331e-06
-6.81185e-05
1.89306e-05
2.86025e-06
-6.31636e-05
1.38023e-05
-3.54843e-06
-5.93069e-05
1.53042e-05
-5.15535e-06
-5.08538e-05
7.94162e-06
-4.1179e-06
-4.37044e-05
2.31781e-06
-1.97705e-06
-3.8355e-05
-1.95091e-06
6.68102e-07
-3.51307e-05
-3.79423e-06
1.55182e-06
-3.48357e-05
-3.59182e-06
2.69548e-06
-3.69014e-05
-3.3472e-06
3.25223e-06
-4.02032e-05
-2.95193e-06
3.10358e-06
-4.39081e-05
-3.46016e-06
2.46442e-06
-4.72512e-05
-5.11515e-06
1.97701e-06
-4.97959e-05
-7.19891e-06
1.6513e-06
-5.20062e-05
-8.33539e-06
1.28495e-06
-5.4761e-05
-9.67085e-06
1.68115e-06
-5.76315e-05
-1.0728e-05
2.14922e-06
-6.10543e-05
-1.12677e-05
2.71172e-06
-6.46273e-05
-1.11583e-05
2.66075e-06
-6.72523e-05
-1.16464e-05
2.03662e-06
-6.89641e-05
-1.21032e-05
1.80569e-06
-7.03514e-05
-1.17411e-05
1.4705e-06
-7.21613e-05
-1.09609e-05
1.47119e-06
-7.40802e-05
-1.00847e-05
1.54055e-06
-7.54856e-05
-8.99763e-06
1.52962e-06
-7.57946e-05
-7.22992e-06
7.68548e-07
-7.40795e-05
-5.24667e-06
-3.94932e-07
-7.07601e-05
-3.21566e-06
-6.19048e-07
-6.6092e-05
-7.2533e-07
-1.34057e-06
-5.95749e-05
1.21058e-06
-2.47128e-06
-5.03737e-05
5.59926e-07
-3.62613e-06
-4.02428e-05
-3.98319e-07
-5.56764e-06
-2.80976e-05
-4.33627e-06
-6.41933e-06
-1.44401e-05
-7.04104e-06
-8.07388e-06
-7.57556e-06
-8.94929e-06
-3.8382e-06
-1.16049e-06
1.33321e-06
-3.54243e-06
-3.66679e-06
-8.49081e-07
-3.85159e-06
-1.62452e-06
-3.09178e-07
-2.78541e-06
-2.20275e-06
-1.28363e-06
-1.88081e-06
-1.5011e-06
-9.61676e-07
-8.55553e-07
-1.54317e-06
-1.00005e-06
-3.33661e-07
-8.12467e-07
-7.25908e-07
-1.35395e-07
-4.24556e-07
-3.92893e-07
-1.01302e-10
2.85581e-07
-1.04007e-07
6.89432e-08
1.00648e-06
-4.18458e-09
1.96907e-07
1.11224e-06
6.08278e-08
3.40517e-07
1.25285e-06
2.42968e-07
4.06716e-07
1.31576e-06