/*--------------------------------*- C++ -*----------------------------------*\
| =========                 |                                                 |
| \\      /  F ield         | OpenFOAM: The Open Source CFD Toolbox           |
|  \\    /   O peration     | Version:  2.3.0                                 |
|   \\  /    A nd           | Web:      www.OpenFOAM.org                      |
|    \\/     M anipulation  |                                                 |
\*---------------------------------------------------------------------------*/
FoamFile
{
    version     2.0;
    format      ascii;
    class       surfaceScalarField;
    location    "23";
    object      phi.water;
}
// * * * * * * * * * * * * * * * * * * * * * * * * * * * * * * * * * * * * * //

dimensions      [0 3 -1 0 0 0 0];

internalField   nonuniform List<scalar> 
16448
(
-9.48258e-07
-2.04327e-06
7.35667e-07
3.32149e-07
-2.09115e-06
8.14086e-07
6.28692e-07
-1.33528e-06
1.04078e-06
8.65342e-07
-1.23698e-06
1.00204e-06
7.73969e-07
-7.54755e-07
8.48623e-07
7.11733e-07
-6.64484e-07
7.29459e-07
5.26243e-07
-3.61552e-07
5.513e-07
3.07114e-07
-2.78819e-07
5.0128e-07
1.78103e-08
-1.91363e-07
4.81864e-07
-2.3166e-07
-1.74893e-07
4.24398e-07
-3.91889e-07
-2.15233e-07
3.75666e-07
-4.03483e-07
-2.913e-07
3.03011e-07
-3.36991e-07
-3.51921e-07
2.85673e-07
-2.13785e-07
-3.99245e-07
2.76174e-07
-1.16233e-07
-4.18605e-07
3.21317e-07
-2.5747e-08
-4.41528e-07
3.51208e-07
2.82138e-08
-4.50813e-07
3.97104e-07
6.96679e-08
-4.6559e-07
4.2433e-07
9.41682e-08
-4.75646e-07
4.51372e-07
1.09433e-07
-4.80546e-07
4.65485e-07
1.16505e-07
-4.81926e-07
4.75072e-07
1.1957e-07
-4.80709e-07
4.77851e-07
1.19605e-07
-4.7748e-07
4.77666e-07
1.18379e-07
-4.73245e-07
4.74688e-07
1.16584e-07
-4.6807e-07
4.70089e-07
1.14826e-07
-4.62525e-07
4.64504e-07
1.13449e-07
-4.56931e-07
4.58544e-07
1.1243e-07
-4.51305e-07
4.5256e-07
1.11788e-07
-4.45709e-07
4.46602e-07
1.10815e-07
-4.39623e-07
4.40837e-07
1.11085e-07
-4.34706e-07
4.34702e-07
1.08106e-07
-4.26949e-07
4.30169e-07
1.09217e-07
-4.23881e-07
4.2305e-07
1.00271e-07
-4.12537e-07
4.21719e-07
1.06078e-07
-4.16405e-07
4.10898e-07
8.98775e-08
-3.97558e-07
4.13992e-07
1.04744e-07
-4.09371e-07
3.94819e-07
8.45226e-08
-3.81923e-07
4.0235e-07
1.11143e-07
-3.99072e-07
3.72797e-07
1.00955e-07
-3.69044e-07
3.79419e-07
1.51445e-07
-3.93915e-07
3.43855e-07
1.84524e-07
-3.71781e-07
3.38689e-07
2.65612e-07
-4.0148e-07
3.21153e-07
3.38985e-07
-4.16986e-07
3.43217e-07
3.94771e-07
-4.221e-07
3.67461e-07
3.96397e-07
-4.61493e-07
4.59074e-07
3.1151e-07
-4.66321e-07
5.52571e-07
1.78797e-07
-4.33731e-07
5.65712e-07
-2.0896e-08
-4.79477e-07
6.84548e-07
-1.19611e-07
-3.97504e-07
5.0325e-07
2.14849e-07
-1.04889e-06
7.51163e-07
1.2168e-07
-7.17618e-07
8.426e-07
-1.20211e-06
-2.85155e-07
1.69876e-06
-2.90708e-06
-3.33954e-08
1.72719e-06
-1.19811e-06
-2.54278e-06
1.10407e-06
-1.20188e-06
-1.78105e-06
1.64691e-06
5.69155e-07
2.95083e-07
-8.56221e-07
1.02253e-06
-1.99959e-06
1.33815e-06
5.41191e-06
8.64683e-07
6.0075e-06
2.80007e-05
-1.43769e-05
1.04694e-05
2.04061e-05
-2.12872e-05
1.11854e-06
2.86879e-05
-1.30517e-05
3.63102e-06
3.09772e-05
-6.71944e-06
4.42754e-06
3.42642e-05
-6.89255e-06
3.60556e-06
3.73181e-05
-5.96104e-06
2.90708e-06
3.86271e-05
-3.8146e-06
2.50567e-06
3.88266e-05
-2.42265e-06
2.22308e-06
3.8502e-05
-1.676e-06
2.00061e-06
3.79408e-05
-1.25647e-06
1.8177e-06
3.71561e-05
-9.18431e-07
1.70311e-06
3.61429e-05
-5.93816e-07
1.60701e-06
3.49209e-05
-3.07018e-07
1.52902e-06
3.34944e-05
-3.77926e-08
1.46433e-06
3.17876e-05
3.11482e-07
1.39526e-06
2.97902e-05
6.71507e-07
1.32586e-06
2.74962e-05
1.04932e-06
1.24468e-06
2.4926e-05
1.41324e-06
1.15696e-06
2.21531e-05
1.68376e-06
1.08919e-06
1.93256e-05
1.7189e-06
1.10861e-06
1.66176e-05
1.55151e-06
1.15646e-06
1.42156e-05
1.18373e-06
1.21828e-06
1.23889e-05
5.2595e-07
1.30071e-06
1.1177e-05
-7.44157e-08
1.28634e-06
1.02978e-05
-3.92534e-07
1.2717e-06
9.54783e-06
-6.47955e-07
1.39796e-06
8.69001e-06
-8.47855e-07
1.70567e-06
7.74249e-06
-9.57617e-07
1.90514e-06
6.89045e-06
-1.08181e-06
1.93384e-06
6.44387e-06
-1.29584e-06
1.74241e-06
6.09475e-06
-1.245e-06
1.59412e-06
5.54214e-06
-8.87309e-07
1.43991e-06
4.54045e-06
-4.01561e-07
1.40325e-06
3.15378e-06
7.90368e-08
1.30763e-06
7.46026e-07
1.01149e-06
1.39627e-06
-1.11428e-06
1.99846e-06
-1.38146e-07
2.37028e-06
-3.48457e-06
-2.04925e-06
-3.1021e-06
9.30064e-08
-9.50567e-07
-3.24e-06
5.50273e-08
-4.88231e-07
-2.22635e-06
4.32855e-07
5.63666e-08
-2.04802e-06
2.70533e-07
3.84508e-07
-1.23073e-06
1.5194e-07
5.95783e-07
-9.347e-07
6.23034e-08
5.21609e-07
-2.72806e-07
-1.07487e-08
2.38397e-07
-6.0114e-08
6.61258e-08
-1.44436e-07
8.11357e-08
1.10312e-07
-4.185e-07
1.49409e-08
8.38148e-08
-5.75638e-07
-9.73735e-08
3.91555e-08
-5.81931e-07
-2.51863e-07
-3.33182e-08
-5.16863e-07
-3.54898e-07
-6.20779e-08
-3.9317e-07
-4.41275e-07
-8.17495e-08
-2.75808e-07
-4.76099e-07
-5.98408e-08
-1.58952e-07
-5.14914e-07
-4.35395e-08
-8.11729e-08
-5.1972e-07
-8.87226e-09
-1.7401e-08
-5.36833e-07
7.40761e-09
2.19148e-08
-5.38835e-07
2.38887e-08
5.00776e-08
-5.40518e-07
3.18025e-08
6.59966e-08
-5.35061e-07
3.72387e-08
7.54419e-08
-5.28415e-07
3.82807e-08
7.98199e-08
-5.19256e-07
3.74289e-08
8.13333e-08
-5.0949e-07
3.47621e-08
8.11772e-08
-4.99131e-07
3.12444e-08
8.05339e-08
-4.8894e-07
2.70875e-08
8.005e-08
-4.79042e-07
2.2627e-08
7.95703e-08
-4.69111e-07
1.83174e-08
7.92677e-08
-4.59412e-07
1.40379e-08
7.84297e-08
-4.49055e-07
1.02929e-08
7.8782e-08
-4.41157e-07
6.13363e-09
7.50554e-08
-4.27105e-07
3.88566e-09
7.55118e-08
-4.22241e-07
-2.05432e-09
6.61829e-08
-4.01419e-07
-1.81221e-09
7.18146e-08
-4.07378e-07
-1.45664e-08
5.79863e-08
-3.74132e-07
-9.64943e-09
7.34193e-08
-3.94909e-07
-2.97456e-08
5.4893e-08
-3.44191e-07
-1.93168e-08
9.33547e-08
-3.86563e-07
-5.07898e-08
7.38774e-08
-3.15913e-07
-3.37327e-08
1.43926e-07
-3.92602e-07
-7.11034e-08
1.45817e-07
-3.17063e-07
-5.67856e-08
2.39519e-07
-4.29858e-07
-6.4841e-08
2.2865e-07
-3.58622e-07
-4.80121e-08
3.01856e-07
-5.00504e-07
5.99384e-09
2.01135e-07
-3.96635e-07
3.50932e-08
1.95073e-07
-5.58542e-07
9.92272e-08
1.23632e-07
-4.14838e-07
5.20588e-08
9.70778e-08
-5.89748e-07
1.41653e-07
2.51789e-07
-4.5305e-07
-8.67372e-08
1.37419e-07
-1.26892e-06
3.80965e-07
-3.56354e-07
-6.26531e-07
4.33678e-07
-1.68595e-06
6.17055e-08
1.06234e-06
-3.28225e-06
6.20679e-07
9.32048e-07
-1.24102e-06
-4.28353e-06
-4.81864e-08
2.32226e-06
-4.94636e-06
-5.12126e-07
1.15517e-06
4.80316e-06
-2.30579e-06
-8.0693e-06
4.61097e-06
2.33888e-06
1.99519e-06
2.8543e-07
1.84264e-06
2.93065e-05
-2.69661e-05
1.81721e-06
1.48119e-05
-3.28247e-05
-2.25367e-06
1.80424e-05
-2.02018e-05
2.23062e-06
2.06115e-05
-1.43899e-05
5.09801e-06
2.42343e-05
-1.23272e-05
1.81176e-06
2.65822e-05
-9.25178e-06
9.42803e-07
2.79553e-05
-5.731e-06
5.43291e-07
2.89505e-05
-3.68225e-06
2.64465e-07
2.94792e-05
-2.24668e-06
4.19065e-08
2.96284e-05
-1.26964e-06
-1.35965e-07
2.94034e-05
-5.29795e-07
-1.6369e-07
2.88999e-05
4.69431e-08
-1.37279e-07
2.82747e-05
4.02404e-07
-8.42086e-08
2.7453e-05
7.83867e-07
7.48002e-11
2.64386e-05
1.20976e-06
1.16119e-07
2.51782e-05
1.7501e-06
1.81749e-07
2.36778e-05
2.34469e-06
2.05041e-07
2.18487e-05
3.04686e-06
1.9549e-07
1.97365e-05
3.59786e-06
1.98081e-07
1.74188e-05
3.7063e-06
3.30366e-07
1.52137e-05
3.30856e-06
4.4797e-07
1.32062e-05
2.54944e-06
6.41865e-07
1.1457e-05
1.52502e-06
7.50063e-07
1.00683e-05
6.72362e-07
6.41933e-07
8.52048e-06
2.59676e-07
8.95618e-07
6.84243e-06
-1.93815e-07
1.22391e-06
5.79317e-06
-9.06026e-07
1.10743e-06
5.6147e-06
-1.61341e-06
8.34261e-07
5.91059e-06
-1.94068e-06
5.62987e-07
6.38182e-06
-1.86651e-06
9.94398e-08
6.69809e-06
-1.41375e-06
-1.47525e-07
6.3069e-06
-2.14884e-07
-2.81229e-07
4.94489e-06
9.76021e-07
-1.55798e-08
2.69672e-06
2.11299e-06
2.1421e-07
-2.06892e-07
3.22303e-06
6.92076e-07
-1.66099e-06
4.37451e-06
-9.21959e-07
4.88838e-06
-4.17909e-06
-2.94374e-06
-3.66036e-06
-1.10564e-07
-1.92094e-06
-3.95836e-06
-2.99548e-07
-1.52777e-06
-2.79636e-06
1.80884e-07
-8.5259e-07
-2.75126e-06
3.23278e-08
-3.47258e-07
-1.69391e-06
-3.7048e-08
6.77439e-08
-1.2098e-06
-1.35109e-07
2.15373e-07
-1.45186e-07
-2.70981e-07
5.67153e-08
2.44836e-07
-1.44452e-07
-2.1506e-07
4.64791e-07
-1.11491e-07
-4.21764e-07
3.21558e-07
-9.99576e-08
-5.44401e-07
1.60984e-07
-1.35481e-07
-5.79032e-07
-1.94903e-08
-1.97568e-07
-5.6099e-07
-1.37474e-07
-2.35361e-07
-4.95232e-07
-2.42846e-07
-2.64167e-07
-4.00371e-07
-3.02526e-07
-2.6839e-07
-2.9298e-07
-3.53503e-07
-2.68826e-07
-2.06131e-07
-3.53781e-07
-2.52744e-07
-1.27969e-07
-3.69853e-07
-2.45159e-07
-7.5333e-08
-3.58125e-07
-2.33304e-07
-3.49497e-08
-3.53066e-07
-2.2783e-07
-9.55781e-09
-3.37966e-07
-2.22447e-07
7.33882e-09
-3.24864e-07
-2.20422e-07
1.66449e-08
-3.08899e-07
-2.1962e-07
2.07189e-08
-2.93015e-07
-2.20507e-07
2.11355e-08
-2.77555e-07
-2.21942e-07
2.00924e-08
-2.63649e-07
-2.24193e-07
1.90649e-08
-2.50949e-07
-2.26998e-07
1.84383e-08
-2.38588e-07
-2.29828e-07
1.8101e-08
-2.2643e-07
-2.32564e-07
1.83049e-08
-2.14015e-07
-2.35171e-07
1.839e-08
-2.03299e-07
-2.37841e-07
1.76946e-08
-1.87372e-07
-2.38977e-07
1.82425e-08
-1.80454e-07
-2.42192e-07
1.63671e-08
-1.57775e-07
-2.41745e-07
2.11732e-08
-1.62593e-07
-2.49366e-07
1.76766e-08
-1.25412e-07
-2.45285e-07
3.2251e-08
-1.50433e-07
-2.58719e-07
2.75267e-08
-9.07318e-08
-2.48879e-07
5.92388e-08
-1.48756e-07
-2.69124e-07
4.93587e-08
-5.77941e-08
-2.48372e-07
9.78534e-08
-1.68544e-07
-2.72181e-07
5.653e-08
-4.31976e-08
-2.32675e-07
8.15631e-08
-2.04904e-07
-2.49483e-07
-1.27707e-08
-6.93467e-08
-1.95638e-07
-3.26723e-08
-2.76033e-07
-2.02957e-07
-1.11673e-07
-1.25791e-07
-1.93394e-07
-1.02496e-07
-3.93839e-07
-1.71674e-07
-4.84449e-08
-1.90406e-07
-2.80671e-07
-5.37063e-08
-4.6454e-07
-1.13028e-07
6.38951e-08
-2.20058e-07
-3.36178e-07
-1.08721e-06
-4.44743e-07
3.75974e-07
-1.90046e-06
-2.89528e-08
2.38802e-07
-1.64399e-06
-2.35665e-07
1.15632e-07
-1.6064e-06
7.22155e-07
-1.48361e-07
2.19632e-06
-7.96095e-06
2.16217e-07
3.53678e-06
-6.15024e-06
-2.53277e-07
9.20559e-06
4.47036e-06
-3.8215e-06
-6.86381e-07
1.39393e-05
-1.03591e-06
3.937e-06
2.75876e-06
5.88031e-06
3.00722e-05
-3.0736e-05
-3.38866e-06
1.01719e-05
-3.89332e-05
-2.26715e-06
1.0016e-05
-2.4682e-05
2.38932e-06
1.39594e-05
-2.20752e-05
3.73838e-06
1.65708e-05
-1.53795e-05
4.40895e-07
1.79679e-05
-1.01586e-05
-4.90334e-07
1.93551e-05
-6.05405e-06
-1.06417e-06
2.03058e-05
-3.2538e-06
-1.37914e-06
2.10938e-05
-1.41836e-06
-1.61627e-06
2.16747e-05
-1.99352e-07
-1.65125e-06
2.19038e-05
7.40073e-07
-1.4989e-06
2.19014e-05
1.20223e-06
-1.15294e-06
2.15668e-05
1.45799e-06
-7.20948e-07
2.09442e-05
1.70267e-06
-2.96212e-07
1.9876e-05
2.23405e-06
4.39098e-08
1.84613e-05
2.90383e-06
2.60967e-07
1.68436e-05
3.60123e-06
3.61164e-07
1.49647e-05
4.53767e-06
3.88063e-07
1.31694e-05
5.04279e-06
3.50425e-07
1.16368e-05
5.07644e-06
1.62419e-07
1.01449e-05
4.74728e-06
5.31707e-08
7.93838e-06
3.98711e-06
7.68882e-07
5.22992e-06
2.7108e-06
1.52268e-06
3.29048e-06
1.29598e-06
1.31583e-06
2.71729e-06
3.03056e-08
8.02559e-07
3.21904e-06
-1.03681e-06
3.41244e-07
4.21594e-06
-1.76061e-06
-1.42315e-07
5.22848e-06
-1.98182e-06
-6.44131e-07
6.18753e-06
-1.60754e-06
-1.29219e-06
7.1279e-06
-7.40973e-07
-2.06591e-06
7.62512e-06
4.02098e-07
-2.31308e-06
7.48057e-06
2.12811e-06
-2.19844e-06
6.02973e-06
4.02984e-06
-1.60299e-06
3.69301e-06
5.41412e-06
-9.64404e-07
5.29509e-07
6.58646e-06
-1.99934e-07
-1.30028e-06
7.69342e-06
-1.48912e-06
8.21254e-06
-4.62444e-06
-3.60631e-06
-4.12912e-06
1.89475e-09
-2.3673e-06
-4.57549e-06
-6.16892e-07
-2.15502e-06
-3.23218e-06
2.28221e-07
-1.50663e-06
-3.44218e-06
4.59785e-08
-9.18089e-07
-2.45691e-06
1.80331e-07
-2.21503e-07
-1.96415e-06
6.47527e-08
1.69139e-07
-4.1252e-07
-1.17216e-07
1.79822e-07
2.55948e-07
-1.98089e-08
-3.74613e-08
7.64655e-07
-8.27018e-08
-2.58254e-07
6.57862e-07
-1.15747e-07
-3.92841e-07
4.89271e-07
-1.93518e-07
-5.06688e-07
3.35088e-07
-2.40442e-07
-5.47519e-07
1.92547e-07
-2.89013e-07
-5.33478e-07
6.39477e-08
-3.20652e-07
-4.61158e-07
-3.51784e-08
-3.39504e-07
-3.6787e-07
-9.60468e-08
-3.50574e-07
-2.77317e-07
-9.42041e-08
-3.49911e-07
-1.91398e-07
-1.027e-07
-3.52883e-07
-1.25123e-07
-7.74862e-08
-3.46683e-07
-7.21012e-08
-6.21082e-08
-3.43771e-07
-3.62945e-08
-3.51077e-08
-3.38436e-07
-1.3429e-08
-1.22496e-08
-3.35258e-07
-1.36594e-09
1.1266e-08
-3.31998e-07
3.57263e-09
3.20365e-08
-3.29748e-07
3.43273e-09
5.14584e-08
-3.28629e-07
9.31061e-10
6.80516e-08
-3.28939e-07
-1.86444e-09
8.22823e-08
-3.30176e-07
-3.83451e-09
9.5479e-08
-3.31824e-07
-4.79584e-09
1.08463e-07
-3.33659e-07
-4.90751e-09
1.2162e-07
-3.35247e-07
-5.26528e-09
1.3404e-07
-3.36686e-07
-5.24965e-09
1.49726e-07
-3.36859e-07
-4.13175e-09
1.57872e-07
-3.39085e-07
-4.15296e-09
1.79669e-07
-3.37269e-07
1.55815e-09
1.75475e-07
-3.43287e-07
1.53135e-10
2.13079e-07
-3.37076e-07
1.34777e-08
1.85629e-07
-3.48768e-07
9.17609e-09
2.48826e-07
-3.35413e-07
2.62302e-08
1.85647e-07
-3.50719e-07
1.29219e-08
2.83729e-07
-3.28523e-07
4.37293e-09
1.76563e-07
-3.35507e-07
-3.08738e-08
3.03188e-07
-3.1187e-07
-1.20892e-07
1.78405e-07
-2.91974e-07
-1.77637e-07
2.81211e-07
-2.94627e-07
-3.3935e-07
1.41134e-07
-2.53852e-07
-3.37225e-07
1.91143e-07
-3.2034e-07
-4.89005e-07
2.03774e-09
-2.41773e-07
-3.36158e-07
5.98258e-08
-4.04514e-07
-6.61923e-07
-4.84383e-08
-8.17855e-08
-6.81747e-07
1.06355e-07
-2.93042e-07
-1.67577e-06
3.61526e-07
2.36844e-07
-1.95197e-06
2.04417e-07
6.63781e-08
-1.00928e-07
-1.84458e-06
-1.52731e-07
2.7164e-06
-2.2333e-06
1.66872e-07
6.68762e-06
-1.08354e-05
-7.60913e-07
7.08427e-06
-5.60192e-06
-1.11047e-06
1.1662e-05
3.8137e-06
-2.66817e-06
5.21616e-06
2.24729e-05
-3.25979e-06
1.14435e-05
-4.04592e-06
1.49276e-05
3.37507e-05
-2.99309e-05
-3.39874e-06
8.0907e-06
-4.05405e-05
-2.6824e-06
2.70404e-06
-2.54303e-05
3.48863e-06
4.58962e-06
-2.61242e-05
2.16043e-06
4.49224e-06
-1.53837e-05
1.01528e-07
7.26768e-06
-1.19001e-05
-1.03393e-06
8.88474e-06
-5.80595e-06
-1.86518e-06
1.06789e-05
-2.57628e-06
-2.47172e-06
1.19186e-05
-2.11069e-07
-2.44698e-06
1.24452e-05
1.10055e-06
-1.8265e-06
1.23951e-05
1.79118e-06
-1.00095e-06
1.18929e-05
1.96273e-06
-2.58373e-07
1.10557e-05
1.94758e-06
3.47659e-07
9.91505e-06
2.14436e-06
6.98928e-07
8.58821e-06
2.83739e-06
7.23498e-07
7.23798e-06
3.7699e-06
4.84165e-07
5.98618e-06
4.71175e-06
1.41274e-07
4.80549e-06
5.68584e-06
3.25148e-08
2.85942e-06
6.44926e-06
5.39609e-07
4.05264e-07
6.35437e-06
1.17622e-06
-1.51615e-06
5.36254e-06
1.30615e-06
-2.57055e-06
3.93228e-06
1.10923e-06
-2.67695e-06
2.32984e-06
4.8737e-07
-2.00294e-06
9.53498e-07
-3.31538e-07
-9.22988e-07
5.43365e-08
-1.10398e-06
3.87606e-07
-5.33674e-07
-1.81373e-06
1.85315e-06
-7.02594e-07
-2.52356e-06
3.47043e-06
-3.04414e-07
-3.29469e-06
5.30158e-06
7.83831e-07
-4.22252e-06
6.88087e-06
2.20138e-06
-4.52165e-06
7.81414e-06
3.34946e-06
-3.88064e-06
7.63828e-06
4.78908e-06
-2.48511e-06
6.31783e-06
6.54951e-06
-1.19922e-06
4.12562e-06
8.21711e-06
-6.10777e-07
8.24308e-07
9.96581e-06
-7.80423e-08
-1.11786e-06
1.11029e-05
-1.46732e-06
1.18009e-05
-4.70624e-06
-4.12881e-06
-4.43803e-06
4.7532e-08
-2.66163e-06
-5.11971e-06
-9.17586e-07
-2.55809e-06
-3.52002e-06
1.90636e-07
-1.94322e-06
-3.87376e-06
-1.80898e-07
-1.61082e-06
-3.0629e-06
2.78315e-07
-8.56664e-07
-2.86826e-06
1.57475e-07
-1.53566e-07
-1.29278e-06
1.84694e-07
1.49827e-07
-2.36005e-07
1.92573e-07
1.69131e-07
7.0409e-07
4.26176e-08
-5.74781e-09
8.57661e-07
-2.54088e-08
-1.86016e-07
8.04229e-07
-1.34584e-07
-3.9977e-07
7.19126e-07
-1.69998e-07
-5.11049e-07
5.37044e-07
-2.33121e-07
-5.42745e-07
3.68524e-07
-2.72781e-07
-4.8732e-07
2.1766e-07
-3.08237e-07
-4.02093e-07
1.48194e-07
-3.29431e-07
-3.11001e-07
1.56246e-07
-3.41497e-07
-2.28242e-07
1.67048e-07
-3.52487e-07
-1.5834e-07
2.09346e-07
-3.56684e-07
-9.9493e-08
2.3871e-07
-3.59653e-07
-5.60358e-08
2.77891e-07
-3.5641e-07
-2.61082e-08
3.09926e-07
-3.52074e-07
-8.42412e-09
3.40711e-07
-3.47079e-07
-4.0791e-10
3.66919e-07
-3.42869e-07
1.09742e-09
3.89339e-07
-3.39346e-07
-8.14831e-10
4.06962e-07
-3.36968e-07
-3.83601e-09
4.20871e-07
-3.35522e-07
-6.64255e-09
4.3299e-07
-3.34668e-07
-8.6413e-09
4.44531e-07
-3.34018e-07
-9.65758e-09
4.55911e-07
-3.33241e-07
-1.0033e-08
4.66833e-07
-3.32356e-07
-9.06809e-09
4.79692e-07
-3.30922e-07
-6.55157e-09
4.86594e-07
-3.31127e-07
-5.11675e-09
5.05581e-07
-3.27423e-07
2.82599e-09
4.98342e-07
-3.30549e-07
1.72127e-09
5.34597e-07
-3.20639e-07
1.31237e-08
5.02537e-07
-3.27905e-07
3.62101e-09
5.67498e-07
-3.09554e-07
3.22593e-09
5.03937e-07
-3.17249e-07
-2.12441e-08
6.00687e-07
-2.93122e-07
-7.56409e-08
5.21131e-07
-2.8934e-07
-1.17811e-07
6.20898e-07
-2.76163e-07
-2.72274e-07
5.84305e-07
-2.505e-07
-3.20378e-07
6.04299e-07
-2.75932e-07
-5.53915e-07
6.1445e-07
-2.3838e-07
-5.37535e-07
5.02551e-07
-3.29287e-07
-7.57996e-07
4.84045e-07
-2.59222e-07
-6.26705e-07
3.4849e-07
-4.21466e-07
-9.80287e-07
4.21764e-07
-1.08734e-07
-9.81512e-07
4.04985e-07
-2.89561e-07
-1.24174e-06
5.26888e-07
1.40185e-07
-1.2262e-06
2.16024e-07
-3.54063e-09
1.00258e-06
-3.43497e-06
-5.195e-07
7.0573e-06
-6.80358e-06
-1.39611e-06
1.10172e-05
-1.19973e-05
-2.45408e-06
1.43132e-05
-4.72828e-06
-4.26863e-06
2.10115e-05
7.89986e-06
-1.00636e-05
2.19413e-05
2.41664e-05
-2.15421e-06
2.42381e-05
-1.10917e-05
2.26453e-05
3.71053e-05
-2.23881e-05
-2.82717e-06
3.92625e-06
-3.68051e-05
-3.52472e-06
-8.10598e-06
-2.11444e-05
5.66086e-06
-9.99745e-06
-2.50722e-05
8.33431e-07
-7.41864e-06
-1.75164e-05
-4.48025e-07
-4.44022e-06
-1.30661e-05
-1.81314e-06
-1.23617e-06
-7.03587e-06
-1.97424e-06
1.71459e-06
-3.54321e-06
-1.98386e-06
3.88429e-06
-1.0244e-06
-1.35637e-06
5.02525e-06
3.97238e-07
-4.37647e-07
4.95491e-06
1.30821e-06
5.53312e-07
3.88043e-06
1.72568e-06
1.31152e-06
1.99705e-06
2.22689e-06
1.60407e-06
-3.84805e-07
3.04764e-06
1.47857e-06
-3.07622e-06
4.22448e-06
1.30433e-06
-6.18583e-06
5.62601e-06
1.25348e-06
-8.89098e-06
6.49294e-06
9.23967e-07
-1.07722e-05
6.97919e-06
5.87892e-07
-1.18181e-05
7.0834e-06
4.11763e-07
-1.20086e-05
6.54835e-06
-3.53328e-09
-1.15068e-05
5.61224e-06
-7.51478e-07
-1.0567e-05
4.4826e-06
-1.4901e-06
-9.32143e-06
3.31722e-06
-2.23295e-06
-7.88029e-06
2.44969e-06
-2.93733e-06
-6.1748e-06
1.89447e-06
-3.54562e-06
-4.22949e-06
1.59429e-06
-4.07327e-06
-1.89544e-06
1.51687e-06
-4.55352e-06
9.0328e-07
1.78556e-06
-4.8887e-06
3.91578e-06
2.52485e-06
-4.75352e-06
5.90899e-06
3.47605e-06
-3.26788e-06
6.17176e-06
4.11424e-06
-1.02755e-06
5.38546e-06
5.27477e-06
3.00604e-07
3.79035e-06
7.45632e-06
6.88292e-07
1.26303e-06
1.00751e-05
6.69286e-07
-1.59016e-06
1.2408e-05
4.11052e-07
-2.13118e-06
1.31449e-05
-1.50097e-06
1.42407e-05
-4.57099e-06
-4.60249e-06
-4.3502e-06
-5.55938e-08
-2.9858e-06
-5.4793e-06
-1.25272e-06
-2.85314e-06
-3.68382e-06
3.92366e-08
-2.02521e-06
-3.96979e-06
-7.29423e-07
-1.71534e-06
-3.23784e-06
-1.30755e-07
-1.04335e-06
-3.28598e-06
-2.49023e-07
-3.66811e-07
-2.21834e-06
2.56229e-07
2.26407e-08
-9.36851e-07
3.18548e-07
2.42178e-07
3.17956e-07
1.70218e-07
2.25462e-07
7.99969e-07
7.44982e-08
8.2371e-08
9.96404e-07
-4.89718e-08
-1.94764e-07
1.07489e-06
-7.83324e-08
-4.06529e-07
9.1248e-07
-1.63367e-07
-4.96414e-07
6.82955e-07
-2.24292e-07
-4.53696e-07
4.68282e-07
-2.93123e-07
-3.70716e-07
3.99941e-07
-3.34459e-07
-2.83987e-07
4.2515e-07
-3.55361e-07
-2.17057e-07
4.69547e-07
-3.69121e-07
-1.62901e-07
5.30524e-07
-3.74994e-07
-1.20115e-07
5.73842e-07
-3.77567e-07
-8.87237e-08
6.19445e-07
-3.72578e-07
-6.59784e-08
6.5334e-07
-3.65785e-07
-5.12857e-08
6.83543e-07
-3.57153e-07
-4.38569e-08
7.07747e-07
-3.4787e-07
-4.16209e-08
7.26447e-07
-3.38967e-07
-4.26583e-08
7.395e-07
-3.31105e-07
-4.54075e-08
7.48358e-07
-3.24351e-07
-4.87311e-08
7.55361e-07
-3.18642e-07
-5.21624e-08
7.62218e-07
-3.13857e-07
-5.46655e-08
7.6842e-07
-3.09594e-07
-5.65823e-08
7.74967e-07
-3.05802e-07
-5.67606e-08
7.82795e-07
-3.02527e-07
-5.67499e-08
7.8742e-07
-3.00382e-07
-5.54128e-08
8.00022e-07
-2.95421e-07
-5.29401e-08
7.92456e-07
-2.96063e-07
-5.36568e-08
8.1995e-07
-2.8437e-07
-5.6944e-08
7.94537e-07
-2.88085e-07
-6.70941e-08
8.45321e-07
-2.6757e-07
-9.75308e-08
8.05605e-07
-2.70457e-07
-1.20795e-07
8.71961e-07
-2.48102e-07
-2.11441e-07
8.53084e-07
-2.40313e-07
-2.4126e-07
8.8663e-07
-2.36242e-07
-4.0272e-07
9.62971e-07
-2.15915e-07
-4.10697e-07
8.64447e-07
-2.52909e-07
-6.08001e-07
1.06261e-06
-2.49068e-07
-5.52835e-07
7.73193e-07
-3.271e-07
-7.45823e-07
1.00592e-06
-3.26168e-07
-6.25369e-07
6.77287e-07
-4.50283e-07
-8.95992e-07
9.61427e-07
-2.60572e-07
-7.56696e-07
7.52093e-07
-4.79682e-07
-5.68432e-07
6.66357e-07
-2.8259e-07
-5.71765e-07
3.57902e-07
-9.92696e-08
1.44507e-06
-4.20709e-06
-9.9924e-07
5.96565e-06
-7.1418e-06
-4.07616e-06
8.49367e-06
-5.55939e-06
-8.71387e-06
1.21427e-05
-4.52728e-08
-8.38859e-06
2.31592e-05
6.0667e-06
-8.60027e-06
3.10135e-05
1.63699e-05
-9.21747e-08
3.20459e-05
-1.25116e-05
2.31427e-05
3.74426e-05
-1.33304e-05
-2.50345e-06
-4.49581e-06
-2.52866e-05
-3.76373e-06
-1.7193e-05
-1.40728e-05
4.50412e-06
-2.32295e-05
-2.00481e-05
9.77304e-07
-2.35634e-05
-1.7395e-05
1.78647e-07
-2.17979e-05
-1.43498e-05
-5.03967e-07
-1.76118e-05
-1.0603e-05
-6.34373e-07
-1.39603e-05
-6.81426e-06
-3.89287e-07
-1.17274e-05
-3.47187e-06
2.10363e-07
-1.12517e-05
-1.11006e-06
1.03018e-06
-1.23227e-05
6.73497e-07
1.70484e-06
-1.47833e-05
2.36905e-06
1.81731e-06
-1.76094e-05
3.77582e-06
1.27735e-06
-2.02486e-05
4.96317e-06
7.23441e-07
-2.23384e-05
5.95628e-06
3.5729e-07
-2.40101e-05
7.34806e-06
-5.07877e-08
-2.47991e-05
7.92696e-06
-6.45685e-07
-2.50375e-05
8.45917e-06
-1.24162e-06
-2.46099e-05
8.41219e-06
-1.75612e-06
-2.36238e-05
7.75375e-06
-2.19146e-06
-2.22076e-05
6.62992e-06
-2.43427e-06
-2.05708e-05
5.3446e-06
-2.49938e-06
-1.88328e-05
3.99977e-06
-2.42101e-06
-1.69075e-05
2.77801e-06
-2.25415e-06
-1.47196e-05
1.76862e-06
-2.0622e-06
-1.21031e-05
9.36611e-07
-1.95892e-06
-8.92421e-06
1.65687e-07
-1.82793e-06
-5.34864e-06
-1.66521e-07
-1.62394e-06
-2.38791e-06
9.09638e-07
-1.34539e-06
-8.74857e-07
2.62068e-06
-6.57633e-07
-1.05652e-06
3.90954e-06
3.86358e-07
-2.40996e-06
5.77064e-06
8.57565e-07
-3.77753e-06
7.77087e-06
1.05303e-06
-4.76878e-06
1.01462e-05
9.20191e-07
-4.66327e-06
1.19792e-05
3.23213e-07
-3.1749e-06
1.32287e-05
-1.57217e-06
1.537e-05
-4.30415e-06
-5.17732e-06
-3.68731e-06
-2.0689e-07
-3.30874e-06
-5.27766e-06
-2.06895e-06
-3.10009e-06
-3.28965e-06
-5.95801e-07
-1.94227e-06
-3.54636e-06
-1.57719e-06
-1.37363e-06
-2.8315e-06
-9.7074e-07
-8.41619e-07
-2.88705e-06
-9.26768e-07
-2.93875e-07
-2.3963e-06
-3.63063e-07
3.40491e-08
-1.35108e-06
9.28514e-08
2.06492e-07
1.78427e-08
1.31932e-07
2.47931e-07
6.8089e-07
8.0097e-08
2.21175e-07
1.00925e-06
1.48892e-08
-2.74033e-08
1.30393e-06
1.98839e-08
-2.6738e-07
1.23073e-06
-7.81345e-08
-3.88248e-07
9.82166e-07
-1.78372e-07
-3.58267e-07
7.33357e-07
-2.95203e-07
-3.01444e-07
6.92894e-07
-3.49891e-07
-2.3991e-07
7.40164e-07
-3.76702e-07
-2.03492e-07
8.12852e-07
-3.79888e-07
-1.77172e-07
8.83177e-07
-3.79139e-07
-1.59985e-07
9.31159e-07
-3.74713e-07
-1.4849e-07
9.74542e-07
-3.66779e-07
-1.39719e-07
1.00398e-06
-3.59625e-07
-1.34798e-07
1.02938e-06
-3.50949e-07
-1.33925e-07
1.04778e-06
-3.41121e-07
-1.35877e-07
1.05979e-06
-3.31586e-07
-1.39258e-07
1.06541e-06
-3.22728e-07
-1.43222e-07
1.06673e-06
-3.14591e-07
-1.47446e-07
1.06567e-06
-3.06272e-07
-1.52212e-07
1.06445e-06
-2.97634e-07
-1.56327e-07
1.06253e-06
-2.90179e-07
-1.59851e-07
1.06122e-06
-2.82866e-07
-1.616e-07
1.06071e-06
-2.76329e-07
-1.64908e-07
1.061e-06
-2.70344e-07
-1.64367e-07
1.06419e-06
-2.64897e-07
-1.69464e-07
1.05807e-06
-2.60488e-07
-1.69023e-07
1.07103e-06
-2.51775e-07
-1.88298e-07
1.06076e-06
-2.4679e-07
-1.94295e-07
1.08507e-06
-2.34127e-07
-2.47705e-07
1.08443e-06
-2.25069e-07
-2.6064e-07
1.10023e-06
-2.15874e-07
-3.58014e-07
1.1508e-06
-1.99692e-07
-3.58237e-07
1.09357e-06
-2.07518e-07
-4.68934e-07
1.27346e-06
-1.98739e-07
-4.15627e-07
1.03559e-06
-2.25682e-07
-5.25222e-07
1.4196e-06
-2.45803e-07
-4.04144e-07
9.33635e-07
-2.83287e-07
-5.4385e-07
1.45011e-06
-3.01679e-07
-3.36657e-07
8.59338e-07
-3.9011e-07
-3.75125e-07
1.29619e-06
-2.8498e-07
-1.70345e-08
8.3452e-07
-4.29078e-07
2.88134e-07
7.50727e-07
-3.45504e-07
4.26934e-07
2.75005e-07
3.76435e-08
1.47879e-06
-3.14997e-06
-1.8287e-06
1.17182e-06
-2.20343e-06
-4.56487e-06
1.7264e-06
3.0911e-06
-9.10514e-06
6.59442e-06
4.96586e-06
-9.94536e-06
1.69504e-05
4.71681e-06
-8.83579e-06
3.0518e-05
5.36009e-06
-2.45098e-06
3.41303e-05
-6.1039e-06
1.61141e-05
3.21746e-05
-3.45625e-06
-1.47799e-06
-1.80289e-05
-5.9417e-06
-3.32355e-06
-2.97081e-05
-5.65397e-06
2.98715e-06
-3.97048e-05
-1.08153e-05
7.65183e-07
-4.46301e-05
-1.30662e-05
6.02013e-07
-4.62723e-05
-1.28362e-05
6.89349e-08
-4.54981e-05
-1.15743e-05
1.17514e-07
-4.34315e-05
-9.02922e-06
5.7118e-08
-4.10069e-05
-6.21273e-06
2.38541e-07
-3.97377e-05
-2.80649e-06
3.71662e-07
-3.95311e-05
-4.67432e-09
4.33699e-07
-3.97984e-05
2.37565e-06
2.54515e-07
-4.02636e-05
4.20608e-06
5.00573e-08
-4.10605e-05
6.00462e-06
-2.06744e-07
-4.17399e-05
7.23413e-06
-5.46959e-07
-4.11716e-05
7.81144e-06
-1.02203e-06
-4.04197e-05
8.31035e-06
-1.18007e-06
-3.91454e-05
8.38858e-06
-1.27175e-06
-3.75909e-05
7.87692e-06
-1.06652e-06
-3.61916e-05
7.0287e-06
-7.03036e-07
-3.51058e-05
5.76889e-06
-2.35471e-07
-3.42625e-05
4.41788e-06
8.55363e-08
-3.37069e-05
3.00247e-06
4.34848e-07
-3.30483e-05
1.4298e-06
6.58081e-07
-3.20485e-05
-1.66325e-07
9.13339e-07
-3.06281e-05
-1.46202e-06
9.79612e-07
-2.84952e-05
-2.80909e-06
8.51757e-07
-2.50375e-05
-3.90259e-06
2.40338e-07
-2.02479e-05
-3.54057e-06
-4.24392e-07
-1.56723e-05
-1.50734e-06
-4.94178e-07
-1.23136e-05
6.47961e-07
-1.04347e-07
-1.03606e-05
3.44266e-06
3.7281e-07
-9.00834e-06
5.96814e-06
4.46519e-07
-7.62996e-06
8.60395e-06
1.64711e-07
-5.95656e-06
1.08097e-05
-5.07778e-07
-3.64236e-06
1.29838e-05
-2.07395e-06
1.55935e-05
-3.86862e-06
-5.41226e-06
-2.74478e-06
3.02908e-07
-3.61032e-06
-4.81916e-06
-2.2621e-06
-3.46336e-06
-2.3673e-06
-1.06396e-06
-2.13015e-06
-2.69348e-06
-2.18163e-06
-1.29279e-06
-2.0051e-06
-1.65777e-06
-7.19036e-07
-2.05169e-06
-1.40254e-06
-2.01454e-07
-1.83253e-06
-1.07406e-06
1.32913e-07
-1.20204e-06
-4.77261e-07
3.43922e-07
-4.70952e-08
-1.42402e-07
2.93662e-07
7.08961e-07
2.54008e-08
2.93187e-07
9.94135e-07
1.81291e-08
2.29334e-07
1.32843e-06
4.0222e-08
1.48157e-07
1.40462e-06
-9.26265e-08
6.69279e-08
1.28434e-06
-2.20965e-07
1.14355e-08
1.15884e-06
-3.69855e-07
-5.20014e-08
1.19353e-06
-4.37078e-07
-1.05032e-07
1.28295e-06
-4.89584e-07
-1.53343e-07
1.36725e-06
-5.05937e-07
-1.92351e-07
1.44419e-06
-5.21846e-07
-2.30725e-07
1.49807e-06
-5.28383e-07
-2.55131e-07
1.53413e-06
-5.3507e-07
-2.6835e-07
1.5538e-06
-5.36528e-07
-2.7431e-07
1.57062e-06
-5.35235e-07
-2.77033e-07
1.58309e-06
-5.32561e-07
-2.78318e-07
1.59117e-06
-5.30102e-07
-2.79457e-07
1.59468e-06
-5.2815e-07
-2.81564e-07
1.59504e-06
-5.26247e-07
-2.84223e-07
1.59284e-06
-5.24576e-07
-2.87082e-07
1.59005e-06
-5.22851e-07
-2.89973e-07
1.58671e-06
-5.21402e-07
-2.93288e-07
1.5839e-06
-5.19529e-07
-2.95537e-07
1.58061e-06
-5.17856e-07
-3.00975e-07
1.58077e-06
-5.14505e-07
-3.04259e-07
1.58081e-06
-5.13631e-07
-3.18821e-07
1.58173e-06
-5.09214e-07
-3.21991e-07
1.58257e-06
-5.08813e-07
-3.56158e-07
1.5929e-06
-4.97966e-07
-3.58934e-07
1.5862e-06
-4.99015e-07
-4.22133e-07
1.62724e-06
-4.79428e-07
-4.16497e-07
1.58159e-06
-4.87946e-07
-4.9614e-07
1.69495e-06
-4.64039e-07
-4.56206e-07
1.54096e-06
-4.88642e-07
-4.824e-07
1.77925e-06
-4.78675e-07
-3.65691e-07
1.4343e-06
-5.1722e-07
-3.49137e-07
1.91751e-06
-5.12985e-07
-1.68692e-07
1.32826e-06
-5.77541e-07
-2.31753e-07
2.06077e-06
-5.44894e-07
-3.58515e-08
1.29547e-06
-6.33624e-07
-1.5728e-07
1.98153e-06
-5.52407e-07
2.85411e-07
9.78762e-07
-5.73404e-07
2.64167e-07
1.73288e-06
-8.9899e-07
6.2498e-07
1.05151e-06
-9.60943e-07
-2.32351e-06
4.55561e-06
-4.61172e-06
-6.54263e-06
8.17992e-06
-6.16825e-06
-5.3113e-06
1.0416e-05
-8.46815e-06
-9.95857e-07
1.01219e-05
-9.63942e-06
7.83333e-06
7.11376e-06
-1.10852e-05
2.78768e-05
-9.75962e-06
-4.47918e-06
3.78118e-05
-2.17864e-06
1.58805e-05
3.35426e-05
9.01515e-06
-3.1073e-06
-2.68375e-05
2.25559e-05
-5.59564e-06
-3.91e-05
3.8425e-06
2.44584e-06
-5.21607e-05
2.65846e-06
-2.5158e-07
-5.96636e-05
-5.6579e-06
2.00159e-07
-6.49602e-05
-7.04781e-06
-4.75804e-07
-6.77793e-05
-8.30203e-06
-4.20226e-07
-6.96889e-05
-6.49446e-06
-5.89711e-07
-7.05018e-05
-5.04761e-06
-4.249e-07
-7.06978e-05
-2.20761e-06
-5.36782e-07
-7.02326e-05
-9.24147e-08
-5.0319e-07
-6.96016e-05
2.2017e-06
-5.19707e-07
-6.88187e-05
4.04266e-06
-5.5351e-07
-6.80681e-05
6.06829e-06
-6.35995e-07
-6.66034e-05
6.56126e-06
-6.42557e-07
-6.51798e-05
7.0952e-06
-6.85252e-07
-6.33888e-05
7.027e-06
-5.90957e-07
-6.14678e-05
6.70897e-06
-3.78074e-07
-5.96098e-05
6.03483e-06
-1.1019e-07
-5.79764e-05
5.3563e-06
7.61314e-10
-5.65501e-05
4.27305e-06
4.56023e-08
-5.53064e-05
2.92674e-06
1.85858e-07
-5.43042e-05
1.32218e-06
5.13486e-07
-5.3432e-05
-3.34387e-07
7.17508e-07
-5.31593e-05
-1.80056e-06
1.35903e-06
-5.32148e-05
-3.0101e-06
1.93641e-06
-5.3667e-05
-4.29998e-06
2.33379e-06
-5.46162e-05
-4.9357e-06
2.14019e-06
-5.46322e-05
-4.75839e-06
1.21034e-06
-5.20429e-05
-4.18158e-06
-5.51071e-09
-4.80338e-05
-2.70339e-06
-8.85805e-07
-4.31483e-05
-3.17403e-07
-1.28755e-06
-3.76107e-05
2.00705e-06
-1.64463e-06
-3.08928e-05
3.91469e-06
-2.13884e-06
-2.2796e-05
5.49181e-06
-3.10395e-06
-1.27484e-05
6.6776e-06
-4.30365e-06
5.482e-06
-5.10803e-06
-4.9388e-06
-8.14386e-07
3.1522e-06
-3.70837e-06
-4.5127e-06
-1.5436e-06
-4.02657e-06
-1.22381e-06
-8.21659e-07
-2.90379e-06
-2.05336e-06
-1.75919e-06
-1.99996e-06
-1.30817e-06
-1.59247e-06
-1.07642e-06
-1.52266e-06
-1.44395e-06
-3.48638e-07
-1.28157e-06
-1.27052e-06
6.9529e-08
-8.22032e-07
-7.90988e-07
3.31298e-07
1.13227e-07
-4.18501e-07
3.5206e-07
7.74965e-07
-8.39227e-08
3.93445e-07
8.21861e-07
1.33627e-07
4.50258e-07
9.49998e-07
3.22771e-07
4.50092e-07
1.10586e-06
2.99441e-07
3.66753e-07
1.0919e-06
2.76021e-07
2.23424e-07
1.11425e-06
1.88411e-07
8.52397e-08
1.17828e-06
1.53891e-07