/*--------------------------------*- C++ -*----------------------------------*\
| =========                 |                                                 |
| \\      /  F ield         | OpenFOAM: The Open Source CFD Toolbox           |
|  \\    /   O peration     | Version:  2.3.0                                 |
|   \\  /    A nd           | Web:      www.OpenFOAM.org                      |
|    \\/     M anipulation  |                                                 |
\*---------------------------------------------------------------------------*/
FoamFile
{
    version     2.0;
    format      ascii;
    class       volScalarField;
    location    "23";
    object      rho;
}
// * * * * * * * * * * * * * * * * * * * * * * * * * * * * * * * * * * * * * //

dimensions      [1 -3 0 0 0 0 0];

internalField   nonuniform List<scalar> 
6144
(
1.16575
1.16622
1.16653
1.1668
1.16711
1.16747
1.16794
1.16858
1.16887
1.1689
1.16889
1.1689
1.1689
1.1689
1.1689
1.16891
1.16891
1.16891
1.16891
1.16891
1.16891
1.16892
1.16892
1.16892
1.16892
1.16892
1.16892
1.16892
1.16892
1.16893
1.16893
1.16893
1.16893
1.16893
1.16893
1.16894
1.16894
1.16894
1.16894
1.16894
1.16894
1.16894
1.16894
1.16895
1.16894
1.16896
1.16894
1.16897
1.16899
1.17002
1.17299
1.17958
1.19382
1.20568
1.21067
1.25895
1.28534
1.6745
3.1469
85.336
998.408
1026.97
1027.09
1027.09
1027.1
1027.1
1027.1
1027.1
1027.1
1027.1
1027.1
1027.1
1027.1
1027.1
1027.1
1027.1
1027.1
1027.1
1027.1
1027.1
1027.1
1027.1
1027.1
1027.1
1027.1
1027.1
1027.1
1027.1
1027.1
1027.1
1027.1
1027.1
1027.1
1027.1
1027.1
1027.1
1.16487
1.16561
1.16615
1.1666
1.16721
1.16765
1.16824
1.16878
1.1689
1.1689
1.1689
1.1689
1.1689
1.16891
1.16891
1.16891
1.16891
1.16891
1.16892
1.16892
1.16892
1.16892
1.16892
1.16892
1.16893
1.16893
1.16893
1.16893
1.16893
1.16893
1.16893
1.16894
1.16894
1.16894
1.16894
1.16894
1.16894
1.16895
1.16894
1.16895
1.16894
1.16896
1.16894
1.16896
1.16894
1.16897
1.16894
1.16899
1.16899
1.17007
1.17421
1.18196
1.19319
1.20313
1.20843
1.25064
1.28611
1.82284
3.77596
68.1482
986.039
1026.93
1027.09
1027.09
1027.1
1027.1
1027.1
1027.1
1027.1
1027.1
1027.1
1027.1
1027.1
1027.1
1027.1
1027.1
1027.1
1027.1
1027.1
1027.1
1027.1
1027.1
1027.1
1027.1
1027.1
1027.1
1027.1
1027.1
1027.1
1027.1
1027.1
1027.1
1027.1
1027.1
1027.1
1027.1
1.16426
1.16503
1.16555
1.166
1.1667
1.16733
1.1681
1.16863
1.16878
1.16882
1.16884
1.16888
1.1689
1.16891
1.16891
1.16891
1.16891
1.16891
1.16892
1.16892
1.16892
1.16892
1.16892
1.16892
1.16893
1.16893
1.16893
1.16893
1.16893
1.16893
1.16893
1.16894
1.16894
1.16894
1.16894
1.16895
1.16894
1.16895
1.16894
1.16896
1.16894
1.16896
1.16894
1.16897
1.16894
1.16897
1.16894
1.16902
1.16899
1.17013
1.17526
1.18271
1.18964
1.1989
1.21391
1.26223
1.26695
1.60758
2.47906
59.8543
973.813
1026.92
1027.09
1027.09
1027.1
1027.1
1027.1
1027.1
1027.1
1027.1
1027.1
1027.1
1027.1
1027.1
1027.1
1027.1
1027.1
1027.1
1027.1
1027.1
1027.1
1027.1
1027.1
1027.1
1027.1
1027.1
1027.1
1027.1
1027.1
1027.1
1027.1
1027.1
1027.1
1027.1
1027.1
1027.1
1.16364
1.16445
1.1651
1.1655
1.1661
1.1669
1.16798
1.16868
1.16878
1.1688
1.16882
1.16887
1.16889
1.1689
1.16891
1.16891
1.16891
1.16891
1.16891
1.16891
1.16892
1.16892
1.16892
1.16892
1.16892
1.16892
1.16892
1.16893
1.16893
1.16893
1.16893
1.16893
1.16893
1.16894
1.16894
1.16894
1.16894
1.16895
1.16894
1.16895
1.16894
1.16896
1.16894
1.16896
1.16894
1.16897
1.16895
1.16903
1.16912
1.17053
1.17478
1.18165
1.18843
1.20013
1.23006
1.27297
1.27123
1.46184
1.73125
67.574
968.009
1026.95
1027.09
1027.09
1027.1
1027.1
1027.1
1027.1
1027.1
1027.1
1027.1
1027.1
1027.1
1027.1
1027.1
1027.1
1027.1
1027.1
1027.1
1027.1
1027.1
1027.1
1027.1
1027.1
1027.1
1027.1
1027.1
1027.1
1027.1
1027.1
1027.1
1027.1
1027.1
1027.1
1027.1
1027.1
1.16304
1.16372
1.16463
1.16507
1.16556
1.16627
1.1675
1.16832
1.16881
1.16884
1.16882
1.16887
1.1689
1.16891
1.16891
1.16891
1.16891
1.16891
1.16892
1.16892
1.16892
1.16892
1.16892
1.16892
1.16893
1.16893
1.16893
1.16893
1.16893
1.16893
1.16893
1.16894
1.16894
1.16894
1.16894
1.16895
1.16894
1.16895
1.16894
1.16895
1.16894
1.16896
1.16894
1.16896
1.16895
1.16897
1.16896
1.16904
1.1692
1.17025
1.1729
1.17911
1.18726
1.20408
1.25337
1.28865
1.32355
1.40399
1.26573
109.55
988.645
1026.99
1027.06
1027.09
1027.09
1027.1
1027.1
1027.1
1027.1
1027.1
1027.1
1027.1
1027.1
1027.1
1027.1
1027.1
1027.1
1027.1
1027.1
1027.1
1027.1
1027.1
1027.1
1027.1
1027.1
1027.1
1027.1
1027.1
1027.1
1027.1
1027.1
1027.1
1027.1
1027.1
1027.1
1027.1
1.16267
1.16302
1.16402
1.16459
1.16514
1.16564
1.16665
1.16771
1.16863
1.16882
1.16881
1.16887
1.16889
1.1689
1.1689
1.16891
1.16891
1.16891
1.16891
1.16891
1.16891
1.16892
1.16892
1.16892
1.16892
1.16892
1.16892
1.16893
1.16893
1.16893
1.16893
1.16893
1.16893
1.16894
1.16894
1.16894
1.16894
1.16894
1.16894
1.16895
1.16894
1.16896
1.16894
1.16896
1.16895
1.16897
1.16896
1.16905
1.16926
1.17028
1.17245
1.17931
1.19515
1.23523
1.28437
1.31969
1.31474
1.35835
1.1915
191.061
1006.12
1025.97
1026.2
1026.61
1026.82
1026.94
1027.02
1027.06
1027.07
1027.08
1027.08
1027.07
1027.07
1027.07
1027.07
1027.07
1027.07
1027.07
1027.07
1027.08
1027.08
1027.09
1027.09
1027.1
1027.1
1027.1
1027.1
1027.1
1027.1
1027.1
1027.1
1027.1
1027.1
1027.1
1027.1
1027.1
1.16253
1.16257
1.1633
1.16388
1.16472
1.16521
1.16613
1.16726
1.16798
1.16856
1.16874
1.16886
1.1689
1.1689
1.16891
1.16891
1.16891
1.16891
1.16892
1.16892
1.16892
1.16892
1.16892
1.16892
1.16892
1.16893
1.16893
1.16893
1.16893
1.16893
1.16893
1.16893
1.16894
1.16894
1.16894
1.16894
1.16894
1.16895
1.16894
1.16895
1.16894
1.16896
1.16894
1.16896
1.16895
1.16897
1.16895
1.16908
1.16939
1.17076
1.17375
1.18083
1.21246
1.2491
1.27634
1.27778
1.26277
1.29693
1.16898
305.124
1018.73
1022.71
1022.23
1022.36
1022.93
1023.3
1023.98
1024.79
1025.35
1025.69
1025.73
1025.63
1025.33
1024.8
1024.44
1024.54
1025.23
1025.54
1025.73
1025.78
1025.71
1025.63
1025.79
1026.06
1026.05
1025.91
1025.88
1026.49
1026.94
1027.1
1027.1
1027.1
1027.1
1027.08
1027.07
1027.07
1.1625
1.16246
1.16279
1.16315
1.16404
1.16478
1.16583
1.16698
1.16762
1.16812
1.16858
1.16884
1.1689
1.16891
1.16891
1.16891
1.16891
1.16891
1.16892
1.16892
1.16892
1.16892
1.16892
1.16892
1.16893
1.16893
1.16893
1.16893
1.16893
1.16893
1.16894
1.16894
1.16894
1.16894
1.16894
1.16895
1.16895
1.16895
1.16895
1.16895
1.16895
1.16896
1.16895
1.16897
1.16895
1.16897
1.16895
1.16907
1.16934
1.17062
1.17361
1.18539
1.2322
1.24996
1.25238
1.24949
1.22644
1.2463
1.16898
351.293
1013.77
1019.32
1017.7
1016.35
1015.71
1015.4
1015.25
1015.71
1015.97
1017.09
1017.7
1017.59
1016.22
1014.24
1013.45
1013.31
1014.03
1014.78
1014.77
1014.56
1014.44
1014.76
1015.98
1016.31
1014.9
1011.01
1008.77
1008.22
1008.25
1009.71
1010.55
1010.7
1010.57
1012.07
1014.4
1017.7
1.16254
1.16266
1.16262
1.16277
1.16351
1.16446
1.1656
1.16683
1.16759
1.16805
1.16851
1.16882
1.16889
1.1689
1.1689
1.16891
1.16891
1.16891
1.16891
1.16891
1.16891
1.16892
1.16892
1.16892
1.16892
1.16892
1.16893
1.16893
1.16893
1.16893
1.16893
1.16893
1.16894
1.16894
1.16894
1.16894
1.16894
1.16895
1.16895
1.16895
1.16895
1.16896
1.16895
1.16897
1.16895
1.16897
1.16894
1.16905
1.16931
1.17054
1.17313
1.18021
1.20857
1.24674
1.26606
1.2619
1.24432
1.29552
1.16898
212.826
1015.17
1022.9
1022.98
1022.83
1022.37
1022.33
1022.21
1021.21
1020.89
1021.31
1021.29
1021.58
1022.36
1022.47
1022.63
1023.15
1023.59
1024.16
1024.72
1024.93
1025.09
1025.48
1025.67
1025.57
1025.23
1025.08
1025.01
1024.9
1024.77
1024.81
1025.12
1025.22
1025.72
1026.27
1026.78
1027.03
1.16256
1.16285
1.16296
1.16295
1.16331
1.16429
1.16548
1.16674
1.16769
1.16824
1.16865
1.16886
1.1689
1.16891
1.16891
1.16891
1.16891
1.16891
1.16892
1.16892
1.16892
1.16892
1.16892
1.16892
1.16893
1.16893
1.16893
1.16893
1.16893
1.16893
1.16894
1.16894
1.16894
1.16894
1.16894
1.16894
1.16894
1.16895
1.16895
1.16895
1.16895
1.16896
1.16895
1.16897
1.16895
1.16897
1.16894
1.16904
1.16926
1.17042
1.17243
1.17725
1.1866
1.22194
1.25528
1.26631
1.27161
1.36464
1.24514
104.093
990.562
1026.18
1026.41
1026.63
1026.64
1026.57
1026.5
1026.43
1026.4
1026.43
1026.58
1026.72
1026.8
1026.87
1026.95
1027
1027.03
1027.06
1027.08
1027.09
1027.1
1027.1
1027.1
1027.09
1027.09
1027.09
1027.09
1027.09
1027.09
1027.09
1027.09
1027.09
1027.1
1027.1
1027.1
1027.1
1.16237
1.16288
1.16352
1.16361
1.16358
1.16436
1.16537
1.1667
1.1678
1.16855
1.16884
1.16891
1.1689
1.16891
1.16891
1.16891
1.16891
1.16891
1.16891
1.16891
1.16892
1.16892
1.16892
1.16892
1.16892
1.16893
1.16893
1.16893
1.16893
1.16893
1.16894
1.16894
1.16894
1.16894
1.16894
1.16895
1.16895
1.16895
1.16895
1.16895
1.16895
1.16896
1.16895
1.16897
1.16895
1.16897
1.16894
1.16904
1.16918
1.17015
1.17167
1.17572
1.18286
1.20765
1.23237
1.25925
1.25394
1.45467
1.32003
52.9927
963.906
1026.99
1027.08
1027.09
1027.09
1027.09
1027.09
1027.09
1027.09
1027.09
1027.09
1027.09
1027.1
1027.1
1027.1
1027.1
1027.1
1027.1
1027.1
1027.1
1027.1
1027.1
1027.1
1027.1
1027.1
1027.1
1027.1
1027.1
1027.1
1027.1
1027.1
1027.1
1027.1
1027.1
1027.1
1027.1
1.16189
1.16196
1.1634
1.16386
1.16408
1.1647
1.16574
1.16699
1.16809
1.1688
1.1689
1.16891
1.16891
1.16891
1.16891
1.16891
1.16891
1.16891
1.16891
1.16892
1.16892
1.16892
1.16892
1.16892
1.16892
1.16893
1.16893
1.16893
1.16893
1.16893
1.16894
1.16894
1.16894
1.16894
1.16894
1.16895
1.16895
1.16895
1.16895
1.16896
1.16895
1.16897
1.16896
1.16897
1.16896
1.16897
1.16894
1.16904
1.1691
1.16985
1.17104
1.1744
1.17933
1.20072
1.23018
1.2674
1.26643
1.5943
1.42295
30.46
958.293
1026.97
1027.1
1027.1
1027.1
1027.1
1027.1
1027.1
1027.1
1027.1
1027.1
1027.1
1027.1
1027.1
1027.1
1027.1
1027.1
1027.1
1027.1
1027.1
1027.1
1027.1
1027.1
1027.1
1027.1
1027.1
1027.1
1027.1
1027.1
1027.1
1027.1
1027.1
1027.1
1027.1
1027.1
1027.1
1.16105
1.1613
1.16155
1.16344
1.16409
1.16475
1.16638
1.16756
1.16854
1.16887
1.1689
1.16891
1.16891
1.16892
1.16892
1.16892
1.16892
1.16892
1.16892
1.16892
1.16892
1.16893
1.16893
1.16893
1.16893
1.16893
1.16893
1.16893
1.16894
1.16894
1.16894
1.16894
1.16894
1.16894
1.16895
1.16895
1.16895
1.16895
1.16895
1.16896
1.16895
1.16897
1.16896
1.16897
1.16896
1.16897
1.16894
1.16904
1.16901
1.16954
1.1705
1.17392
1.17913
1.19089
1.21607
1.25985
1.29376
1.69798
1.60479
25.5257
954.215
1026.86
1027.1
1027.1
1027.1
1027.1
1027.1
1027.1
1027.1
1027.1
1027.1
1027.1
1027.1
1027.1
1027.1
1027.1
1027.1
1027.1
1027.1
1027.1
1027.1
1027.1
1027.1
1027.1
1027.1
1027.1
1027.1
1027.1
1027.1
1027.1
1027.1
1027.1
1027.1
1027.1
1027.1
1027.1
1.16079
1.16145
1.16136
1.16179
1.16214
1.16246
1.16587
1.16812
1.1687
1.16885
1.16888
1.16891
1.16891
1.16892
1.16892
1.16892
1.16892
1.16892
1.16892
1.16892
1.16893
1.16893
1.16893
1.16893
1.16893
1.16893
1.16894
1.16894
1.16894
1.16894
1.16894
1.16894
1.16894
1.16895
1.16895
1.16895
1.16895
1.16895
1.16895
1.16896
1.16896
1.16897
1.16896
1.16897
1.16896
1.16897
1.16894
1.16903
1.16896
1.16931
1.17004
1.17349
1.17942
1.19036
1.20155
1.23533
1.31473
1.77962
1.7104
28.6146
954.115
1026.79
1027.1
1027.1
1027.1
1027.1
1027.1
1027.1
1027.1
1027.1
1027.1
1027.1
1027.1
1027.1
1027.1
1027.1
1027.1
1027.1
1027.1
1027.1
1027.1
1027.1
1027.1
1027.1
1027.1
1027.1
1027.1
1027.1
1027.1
1027.1
1027.1
1027.1
1027.1
1027.1
1027.1
1027.1
1.1606
1.16118
1.16059
1.16101
1.16065
1.16083
1.16291
1.16833
1.16877
1.16886
1.16888
1.16891
1.16891
1.16891
1.16891
1.16892
1.16892
1.16892
1.16892
1.16892
1.16892
1.16893
1.16893
1.16893
1.16893
1.16893
1.16893
1.16894
1.16894
1.16894
1.16894
1.16894
1.16894
1.16895
1.16895
1.16895
1.16895
1.16895
1.16895
1.16896
1.16896
1.16897
1.16896
1.16897
1.16896
1.16897
1.16894
1.16901
1.16896
1.16912
1.16955
1.17246
1.17759
1.20212
1.20531
1.21937
1.41054
1.97125
2.09667
32.2637
958.09
1026.7
1027.09
1027.1
1027.1
1027.1
1027.1
1027.1
1027.1
1027.1
1027.1
1027.1
1027.1
1027.1
1027.1
1027.1
1027.1
1027.1
1027.1
1027.1
1027.1
1027.1
1027.1
1027.1
1027.1
1027.1
1027.1
1027.1
1027.1
1027.1
1027.1
1027.1
1027.1
1027.1
1027.1
1027.1
1.16023
1.16026
1.16026
1.1603
1.16037
1.16049
1.16051
1.16544
1.16871
1.16889
1.1689
1.16891
1.16891
1.16892
1.16892
1.16892
1.16892
1.16892
1.16892
1.16893
1.16893
1.16893
1.16893
1.16893
1.16894
1.16894
1.16894
1.16894
1.16894
1.16894
1.16895
1.16895
1.16895
1.16895
1.16895
1.16896
1.16896
1.16896
1.16896
1.16897
1.16897
1.16897
1.16897
1.16897
1.16897
1.16897
1.16895
1.16901
1.16896
1.16908
1.16939
1.172
1.17758
1.20011
1.20821
1.28957
1.31312
1.81282
1.81272
43.2706
960.334
1026.7
1027.09
1027.1
1027.1
1027.1
1027.1
1027.1
1027.1
1027.1
1027.1
1027.1
1027.1
1027.1
1027.1
1027.1
1027.1
1027.1
1027.1
1027.1
1027.1
1027.1
1027.1
1027.1
1027.1
1027.1
1027.1
1027.1
1027.1
1027.1
1027.1
1027.1
1027.1
1027.1
1027.1
1027.1
1.16581
1.16633
1.16659
1.16685
1.16714
1.16756
1.16818
1.16859
1.1687
1.16873
1.16882
1.16889
1.16891
1.16892
1.16892
1.16892
1.16892
1.16892
1.16893
1.16893
1.16893
1.16893
1.16893
1.16893
1.16894
1.16894
1.16894
1.16894
1.16894
1.16894
1.16894
1.16895
1.16895
1.16895
1.16895
1.16895
1.16896
1.16896
1.16896
1.16896
1.16896
1.16897
1.16897
1.16897
1.16896
1.16897
1.16895
1.16901
1.16906
1.17009
1.17258
1.1788
1.19144
1.20549
1.21269
1.25264
1.29457
1.78006
4.83987
91.3951
991.979
1026.92
1027.09
1027.09
1027.1
1027.1
1027.1
1027.1
1027.1
1027.1
1027.1
1027.1
1027.1
1027.1
1027.1
1027.1
1027.1
1027.1
1027.1
1027.1
1027.1
1027.1
1027.1
1027.1
1027.1
1027.1
1027.1
1027.1
1027.1
1027.1
1027.1
1027.1
1027.1
1027.1
1027.1
1027.1
1.16486
1.16583
1.16629
1.16662
1.16702
1.16735
1.16771
1.168
1.16828
1.16848
1.16868
1.16883
1.16889
1.16891
1.16892
1.16892
1.16892
1.16892
1.16892
1.16893
1.16893
1.16893
1.16893
1.16893
1.16893
1.16894
1.16894
1.16894
1.16894
1.16894
1.16894
1.16895
1.16895
1.16895
1.16895
1.16895
1.16895
1.16896
1.16896
1.16896
1.16896
1.16897
1.16896
1.16897
1.16896
1.16897
1.16895
1.16908
1.16919
1.17021
1.17326
1.1799
1.19128
1.20475
1.20868
1.24644
1.33129
1.7514
3.39989
90.4097
1005.01
1027.08
1027.09
1027.09
1027.1
1027.1
1027.1
1027.1
1027.1
1027.1
1027.1
1027.1
1027.1
1027.1
1027.1
1027.1
1027.1
1027.1
1027.1
1027.1
1027.1
1027.1
1027.1
1027.1
1027.1
1027.1
1027.1
1027.1
1027.1
1027.1
1027.1
1027.1
1027.1
1027.1
1027.1
1027.1
1.1639
1.16515
1.16582
1.16614
1.16636
1.16673
1.16714
1.16757
1.16805
1.16838
1.16862
1.16881
1.16888
1.16891
1.16892
1.16892
1.16892
1.16892
1.16892
1.16892
1.16893
1.16893
1.16893
1.16893
1.16893
1.16893
1.16893
1.16894
1.16894
1.16894
1.16894
1.16894
1.16894
1.16895
1.16895
1.16895
1.16895
1.16895
1.16895
1.16896
1.16895
1.16897
1.16895
1.16897
1.16896
1.16897
1.16895
1.16907
1.16921
1.1704
1.17391
1.18036
1.18673
1.20372
1.20389
1.25986
1.2838
1.55601
2.15148
89.9259
1011.27
1027.09
1027.09
1027.09
1027.09
1027.1
1027.1
1027.1
1027.1
1027.1
1027.1
1027.1
1027.1
1027.1
1027.1
1027.1
1027.1
1027.1
1027.1
1027.1
1027.1
1027.1
1027.1
1027.1
1027.1
1027.1
1027.1
1027.1
1027.1
1027.1
1027.1
1027.1
1027.1
1027.1
1027.1
1027.1
1.16298
1.16417
1.16551
1.16612
1.1663
1.16659
1.16692
1.16731
1.16788
1.16832
1.16859
1.1688
1.16888
1.16891
1.16891
1.16892
1.16892
1.16892
1.16892
1.16892
1.16892
1.16892
1.16893
1.16893
1.16893
1.16893
1.16893
1.16893
1.16893
1.16894
1.16894
1.16894
1.16894
1.16894
1.16894
1.16895
1.16895
1.16895
1.16895
1.16895
1.16895
1.16896
1.16895
1.16897
1.16895
1.16897
1.16895
1.16903
1.16919
1.17058
1.17369
1.18001
1.18647
1.19504
1.21715
1.29594
1.32486
1.58103
1.67207
100.354
1011.98
1027.09
1027.09
1027.09
1027.09
1027.1
1027.1
1027.1
1027.1
1027.1
1027.1
1027.1
1027.1
1027.1
1027.1
1027.1
1027.1
1027.1
1027.1
1027.1
1027.1
1027.1
1027.1
1027.1
1027.1
1027.1
1027.1
1027.1
1027.1
1027.1
1027.1
1027.1
1027.1
1027.1
1027.1
1027.1
1.16246
1.16303
1.16471
1.16617
1.16638
1.16654
1.16685
1.16717
1.16775
1.16826
1.16855
1.16879
1.16888
1.16891
1.16891
1.16892
1.16892
1.16892
1.16892
1.16892
1.16892
1.16892
1.16892
1.16893
1.16893
1.16893
1.16893
1.16893
1.16893
1.16893
1.16894
1.16894
1.16894
1.16894
1.16894
1.16895
1.16894
1.16895
1.16894
1.16895
1.16895
1.16896
1.16895
1.16897
1.16895
1.16897
1.16895
1.16901
1.16909
1.17031
1.17278
1.17946
1.19481
1.22267
1.27803
1.35522
1.42711
1.41554
1.29392
149.999
1012.69
1026.65
1026.86
1027.04
1027.08
1027.09
1027.09
1027.1
1027.1
1027.1
1027.09
1027.09
1027.1
1027.1
1027.1
1027.09
1027.1
1027.1
1027.1
1027.1
1027.1
1027.1
1027.1
1027.1
1027.1
1027.1
1027.1
1027.1
1027.1
1027.1
1027.1
1027.1
1027.1
1027.1
1027.1
1027.1
1.16217
1.16234
1.16366
1.16568
1.16648
1.16653
1.16679
1.16707
1.1677
1.16824
1.16854
1.16879
1.16888
1.16891
1.16891
1.16891
1.16891
1.16892
1.16892
1.16892
1.16892
1.16892
1.16892
1.16892
1.16893
1.16893
1.16893
1.16893
1.16893
1.16893
1.16893
1.16894
1.16894
1.16894
1.16894
1.16894
1.16894
1.16895
1.16894
1.16895
1.16894
1.16896
1.16895
1.16897
1.16894
1.16897
1.16895
1.169
1.16901
1.16987
1.17225
1.18075
1.2088
1.27849
1.3415
1.32882
1.30157
1.21771
1.16898
329.409
1010.34
1019.03
1020.65
1023.18
1024.59
1025.51
1026.05
1026.35
1026.52
1026.56
1026.56
1026.52
1026.46
1026.44
1026.45
1026.5
1026.52
1026.56
1026.55
1026.5
1026.56
1026.66
1026.74
1026.85
1026.94
1027.01
1027.05
1027.08
1027.1
1027.1
1027.1
1027.1
1027.1
1027.1
1027.1
1027.1
1.16201
1.162
1.16289
1.16442
1.16588
1.16618
1.16675
1.16704
1.1677
1.16824
1.16854
1.16879
1.16888
1.16891
1.16891
1.16891
1.16891
1.16892
1.16892
1.16892
1.16892
1.16892
1.16892
1.16892
1.16893
1.16893
1.16893
1.16893
1.16893
1.16893
1.16893
1.16894
1.16894
1.16894
1.16894
1.16894
1.16894
1.16895
1.16894
1.16895
1.16894
1.16896
1.16894
1.16897
1.16894
1.16897
1.16894
1.169
1.16899
1.16967
1.17203
1.18512
1.22987
1.28346
1.29241
1.24699
1.20668
1.17863
1.16898
522.909
986.171
991.825
992.349
995.546
998.338
1000.9
1002.97
1004.26
1005.12
1005.43
1005.2
1004.73
1004.32
1003.83
1003.18
1002.2
1001.26
1000.62
1000.2
1000.02
1000.8
1001.77
1003.81
1006.29
1008.83
1010.92
1013.94
1018.1
1021.24
1023.83
1025.6
1025.67
1025.61
1025.35
1024.94
1024.57
1.16195
1.16175
1.16218
1.16286
1.16419
1.16507
1.16636
1.16705
1.16782
1.16829
1.16855
1.16879
1.16888
1.16891
1.16891
1.16891
1.16891
1.16892
1.16892
1.16892
1.16892
1.16892
1.16892
1.16892
1.16893
1.16893
1.16893
1.16893
1.16893
1.16893
1.16894
1.16894
1.16894
1.16894
1.16894
1.16894
1.16894
1.16895
1.16894
1.16895
1.16894
1.16896
1.16894
1.16897
1.16894
1.16897
1.16894
1.16899
1.16897
1.16953
1.17217
1.1918
1.25042
1.26133
1.25925
1.23669
1.21251
1.18847
1.16898
544.227
968.59
972.693
970.849
970.604
969.667
968.834
967.404
965.048
961.69
958.583
956.524
955.401
954.745
954.117
953.405
952.491
951.391
949.873
947.888
945.323
942.603
940.096
937.739
935.356
931.302
922.018
913.336
909.21
905.897
900.54
893.869
886.295
875.276
856.381
809.279
609.835
1.16209
1.16175
1.16179
1.16181
1.16263
1.16404
1.16581
1.16699
1.16792
1.16835
1.16858
1.1688
1.16889
1.16891
1.16891
1.16891
1.16892
1.16892
1.16892
1.16892
1.16892
1.16892
1.16892
1.16893
1.16893
1.16893
1.16893
1.16893
1.16893
1.16894
1.16894
1.16894
1.16894
1.16894
1.16894
1.16895
1.16894
1.16895
1.16895
1.16896
1.16895
1.16896
1.16895
1.16897
1.16895
1.16897
1.16894
1.16899
1.16897
1.16946
1.17148
1.17566
1.1941
1.27999
1.29901
1.28249
1.25841
1.20869
1.16898
269.601
1009.21
1023.11
1023.48
1023.57
1023.46
1023.3
1023.06
1022.94
1022.85
1022.94
1023.16
1023.47
1023.73
1023.99
1024.15
1024.16
1023.86
1023.77
1023.65
1023.27
1022.98
1022.77
1022.45
1022.19
1021.89
1022.09
1022.67
1023.11
1022.97
1023.48
1024.68
1025.76
1026.57
1027.05
1027.07
1027.09
1.16196
1.16181
1.16195
1.16174
1.16201
1.16332
1.16526
1.16685
1.16797
1.16839
1.16862
1.16882
1.16889
1.16891
1.16891
1.16892
1.16892
1.16892
1.16892
1.16892
1.16892
1.16892
1.16893
1.16893
1.16893
1.16893
1.16893
1.16893
1.16894
1.16894
1.16894
1.16894
1.16894
1.16894
1.16894
1.16895
1.16895
1.16895
1.16895
1.16896
1.16895
1.16896
1.16895
1.16897
1.16895
1.16897
1.16894
1.169
1.16897
1.16939
1.17124
1.17477
1.17867
1.199
1.2531
1.30282
1.32456
1.33802
1.26121
110.657
1021.01
1026.97
1027
1027.03
1027.04
1027.05
1027.06
1027.07
1027.08
1027.09
1027.09
1027.1
1027.1
1027.1
1027.1
1027.09
1027.09
1027.09
1027.09
1027.09
1027.09
1027.09
1027.08
1027.08
1027.08
1027.09
1027.09
1027.09
1027.1
1027.1
1027.1
1027.1
1027.1
1027.1
1027.1
1027.1
1.16072
1.16182
1.1621
1.16209
1.16195
1.16304
1.16486
1.16672
1.16793
1.16842
1.16864
1.16883
1.1689
1.16891
1.16891
1.16892
1.16892
1.16892
1.16892
1.16892
1.16892
1.16892
1.16893
1.16893
1.16893
1.16893
1.16893
1.16893
1.16894
1.16894
1.16894
1.16894
1.16894
1.16894
1.16894
1.16895
1.16895
1.16895
1.16895
1.16896
1.16895
1.16896
1.16895
1.16897
1.16895
1.16897
1.16894
1.169
1.16897
1.16932
1.17079
1.17425
1.17858
1.19546
1.21065
1.26219
1.24945
1.43515
1.42783
45.7327
1001.09
1027.1
1027.09
1027.09
1027.09
1027.09
1027.1
1027.1
1027.09
1027.1
1027.1
1027.1
1027.1
1027.1
1027.1
1027.1
1027.1
1027.1
1027.1
1027.1
1027.1
1027.1
1027.1
1027.1
1027.1
1027.1
1027.1
1027.1
1027.1
1027.1
1027.1
1027.1
1027.1
1027.1
1027.1
1027.1
1.16099
1.16187
1.16197
1.16224
1.16205
1.16321
1.16478
1.1667
1.16794
1.16847
1.16869
1.16886
1.1689
1.16891
1.16891
1.16892
1.16892
1.16892
1.16892
1.16892
1.16892
1.16892
1.16893
1.16893
1.16893
1.16893
1.16893
1.16893
1.16894
1.16894
1.16894
1.16894
1.16894
1.16894
1.16894
1.16895
1.16895
1.16895
1.16895
1.16896
1.16895
1.16897
1.16895
1.16897
1.16895
1.16897
1.16894
1.169
1.16896
1.16923
1.1704
1.17341
1.17751
1.1965
1.21015
1.25041
1.24992
1.51429
1.61992
30.7512
990.786
1027.1
1027.09
1027.1
1027.09
1027.1
1027.1
1027.1
1027.1
1027.1
1027.1
1027.1
1027.1
1027.1
1027.1
1027.1
1027.1
1027.1
1027.1
1027.1
1027.1
1027.1
1027.1
1027.1
1027.1
1027.1
1027.1
1027.1
1027.1
1027.1
1027.1
1027.1
1027.1
1027.1
1027.1
1027.1
1.16112
1.16136
1.16139
1.16179
1.16205
1.16343
1.16534
1.16714
1.16812
1.16858
1.16876
1.16889
1.16891
1.16891
1.16891
1.16891
1.16892
1.16892
1.16892
1.16892
1.16892
1.16892
1.16893
1.16893
1.16893
1.16893
1.16893
1.16893
1.16894
1.16894
1.16894
1.16894
1.16894
1.16894
1.16894
1.16895
1.16895
1.16895
1.16895
1.16896
1.16895
1.16897
1.16895
1.16897
1.16895
1.16897
1.16894
1.169
1.16896
1.16914
1.16987
1.1725
1.17716
1.19964
1.20495
1.23753
1.27446
1.6583
1.96899
24.3068
939.238
1027.1
1027.09
1027.09
1027.1
1027.1
1027.1
1027.1
1027.1
1027.1
1027.1
1027.1
1027.1
1027.1
1027.1
1027.1
1027.1
1027.1
1027.1
1027.1
1027.1
1027.1
1027.1
1027.1
1027.1
1027.1
1027.1
1027.1
1027.1
1027.1
1027.1
1027.1
1027.1
1027.1
1027.1
1027.1
1.1609
1.16099
1.16086
1.16108
1.16102
1.1624
1.16545
1.16746
1.16827
1.16868
1.16882
1.1689
1.16891
1.16891
1.16891
1.16891
1.16891
1.16892
1.16892
1.16892
1.16892
1.16892
1.16892
1.16893
1.16893
1.16893
1.16893
1.16893
1.16893
1.16893
1.16894
1.16894
1.16894
1.16894
1.16894
1.16894
1.16895
1.16895
1.16895
1.16896
1.16895
1.16896
1.16895
1.16897
1.16895
1.16897
1.16894
1.16899
1.16896
1.16909
1.16959
1.17228
1.17759
1.20116
1.20923
1.22613
1.3233
1.79406
2.18233
28.0504
935.453
1027.1
1027.09
1027.09
1027.1
1027.1
1027.1
1027.1
1027.1
1027.1
1027.1
1027.1
1027.1
1027.1
1027.1
1027.1
1027.1
1027.1
1027.1
1027.1
1027.1
1027.1
1027.1
1027.1
1027.1
1027.1
1027.1
1027.1
1027.1
1027.1
1027.1
1027.1
1027.1
1027.1
1027.1
1027.1
1.16068
1.1606
1.16048
1.16062
1.1605
1.16083
1.16328
1.16765
1.16847
1.16877
1.16885
1.1689
1.16891
1.16891
1.16891
1.16891
1.16891
1.16891
1.16892
1.16892
1.16892
1.16892
1.16892
1.16892
1.16893
1.16893
1.16893
1.16893
1.16893
1.16893
1.16893
1.16894
1.16894
1.16894
1.16894
1.16894
1.16895
1.16895
1.16895
1.16895
1.16895
1.16896
1.16895
1.16897
1.16895
1.16897
1.16894
1.16899
1.16896
1.16906
1.16944
1.17213
1.17736
1.20113
1.21176
1.22822
1.39907
1.95332
2.83271
38.3922
937.904
1026.91
1027.1
1027.1
1027.1
1027.1
1027.1
1027.1
1027.1
1027.1
1027.1
1027.1
1027.1
1027.1
1027.1
1027.1
1027.1
1027.1
1027.1
1027.1
1027.1
1027.1
1027.1
1027.1
1027.1
1027.1
1027.1
1027.1
1027.1
1027.1
1027.1
1027.1
1027.1
1027.1
1027.1
1027.1
1.16013
1.16029
1.16035
1.16039
1.16043
1.16047
1.16125
1.167
1.16863
1.16883
1.16887
1.16891
1.16891
1.16891
1.16891
1.16891
1.16891
1.16892
1.16892
1.16892
1.16892
1.16893
1.16893
1.16893
1.16893
1.16893
1.16893
1.16894
1.16894
1.16894
1.16894
1.16894
1.16895
1.16895
1.16895
1.16895
1.16895
1.16896
1.16896
1.16896
1.16896
1.16897
1.16897
1.16897
1.16897
1.16897
1.16894
1.169
1.16896
1.16908
1.16945
1.1721
1.17844
1.20233
1.20639
1.25087
1.36586
1.99204
2.69314
43.4215
930.976
1026.41
1027.09
1027.1
1027.1
1027.1
1027.1
1027.1
1027.1
1027.1
1027.1
1027.1
1027.1
1027.1
1027.1
1027.1
1027.1
1027.1
1027.1
1027.1
1027.1
1027.1
1027.1
1027.1
1027.1
1027.1
1027.1
1027.1
1027.1
1027.1
1027.1
1027.1
1027.1
1027.1
1027.1
1027.1
1.16597
1.16635
1.16657
1.16682
1.1671
1.16753
1.16821
1.16866
1.16874
1.16877
1.16885
1.16889
1.16891
1.16891
1.16891
1.16892
1.16892
1.16892
1.16892
1.16892
1.16892
1.16893
1.16893
1.16893
1.16893
1.16893
1.16893
1.16893
1.16894
1.16894
1.16894
1.16894
1.16894
1.16894
1.16894
1.16895
1.16895
1.16895
1.16895
1.16896
1.16895
1.16896
1.16896
1.16897
1.16896
1.16897
1.16895
1.16899
1.16903
1.16992
1.17189
1.178
1.18851
1.20498
1.21537
1.25422
1.28736
1.80906
5.11549
85.4342
983.685
1026.82
1027.09
1027.09
1027.1
1027.1
1027.1
1027.1
1027.1
1027.1
1027.1
1027.1
1027.1
1027.1
1027.1
1027.1
1027.1
1027.1
1027.1
1027.1
1027.1
1027.1
1027.1
1027.1
1027.1
1027.1
1027.1
1027.1
1027.1
1027.1
1027.1
1027.1
1027.1
1027.1
1027.1
1027.1
1.16538
1.16633
1.16662
1.16693
1.16736
1.16781
1.16817
1.16835
1.16849
1.16861
1.16876
1.16886
1.1689
1.16891
1.16891
1.16892
1.16892
1.16892
1.16892
1.16892
1.16892
1.16893
1.16893
1.16893
1.16893
1.16893
1.16893
1.16894
1.16894
1.16894
1.16894
1.16894
1.16894
1.16895
1.16895
1.16895
1.16895
1.16896
1.16895
1.16896
1.16896
1.16897
1.16896
1.16897
1.16895
1.16897
1.16895
1.16904
1.16913
1.17012
1.17211
1.1784
1.18772
1.20385
1.21487
1.24754
1.32399
1.76133
3.63507
83.9249
1000.82
1027.06
1027.09
1027.09
1027.1
1027.1
1027.1
1027.1
1027.1
1027.1
1027.1
1027.1
1027.1
1027.1
1027.1
1027.1
1027.1
1027.1
1027.1
1027.1
1027.1
1027.1
1027.1
1027.1
1027.1
1027.1
1027.1
1027.1
1027.1
1027.1
1027.1
1027.1
1027.1
1027.1
1027.1
1027.1
1.16487
1.16625
1.16652
1.16691
1.16733
1.16769
1.16788
1.16802
1.1683
1.16852
1.16871
1.16884
1.16889
1.1689
1.16891
1.16891
1.16891
1.16891
1.16891
1.16892
1.16892
1.16892
1.16892
1.16892
1.16892
1.16893
1.16893
1.16893
1.16893
1.16893
1.16893
1.16894
1.16894
1.16894
1.16894
1.16894
1.16894
1.16895
1.16894
1.16895
1.16894
1.16896
1.16895
1.16896
1.16895
1.16897
1.16895
1.16908
1.16919
1.17018
1.1721
1.17778
1.18899
1.20422
1.20389
1.26789
1.28602
1.60788
1.84825
85.6013
1015.67
1027.09
1027.09
1027.09
1027.1
1027.1
1027.1
1027.1
1027.1
1027.1
1027.1
1027.1
1027.1
1027.1
1027.1
1027.1
1027.1
1027.1
1027.1
1027.1
1027.1
1027.1
1027.1
1027.1
1027.1
1027.1
1027.1
1027.1
1027.1
1027.1
1027.1
1027.1
1027.1
1027.1
1027.1
1027.1
1.16353
1.1661
1.16645
1.16694
1.1672
1.16741
1.16755
1.16784
1.16822
1.16849
1.16869
1.16883
1.16889
1.16891
1.16891
1.16891
1.16891
1.16891
1.16891
1.16891
1.16891
1.16892
1.16892
1.16892
1.16892
1.16892
1.16892
1.16893
1.16893
1.16893
1.16893
1.16893
1.16893
1.16894
1.16894
1.16894
1.16894
1.16894
1.16894
1.16895
1.16894
1.16896
1.16895
1.16896
1.16895
1.16897
1.16895
1.16907
1.16917
1.17007
1.17221
1.17795
1.18654
1.20072
1.22039
1.30998
1.30556
1.46251
1.60665
84.037
1014.75
1027.09
1027.09
1027.09
1027.1
1027.1
1027.1
1027.1
1027.1
1027.1
1027.1
1027.1
1027.1
1027.1
1027.1
1027.1
1027.1
1027.1
1027.1
1027.1
1027.1
1027.1
1027.1
1027.1
1027.1
1027.1
1027.1
1027.1
1027.1
1027.1
1027.1
1027.1
1027.1
1027.1
1027.1
1027.1
1.16162
1.16416
1.16617
1.167
1.1671
1.1672
1.16743
1.16776
1.16813
1.16841
1.16864
1.16881
1.16888
1.1689
1.16891
1.16891
1.16891
1.16892
1.16892
1.16892
1.16892
1.16892
1.16892
1.16892
1.16892
1.16892
1.16893
1.16893
1.16893
1.16893
1.16893
1.16893
1.16893
1.16894
1.16894
1.16894
1.16894
1.16895
1.16894
1.16895
1.16894
1.16896
1.16895
1.16896
1.16895
1.16897
1.16896
1.16906
1.16916
1.17002
1.17232
1.17869
1.18465
1.2001
1.27465
1.37181
1.43625
1.44083
1.42218
148.12
1019.83
1027
1027.04
1027.08
1027.09
1027.09
1027.1
1027.1
1027.1
1027.1
1027.1
1027.1
1027.1
1027.1
1027.1
1027.1
1027.1
1027.1
1027.1
1027.1
1027.1
1027.1
1027.1
1027.1
1027.1
1027.1
1027.1
1027.1
1027.1
1027.1
1027.1
1027.1
1027.1
1027.1
1027.1
1027.1
1.16113
1.16303
1.16552
1.16694
1.16715
1.16725
1.16741
1.16767
1.168
1.16829
1.16855
1.16875
1.16885
1.16889
1.1689
1.16891
1.16891
1.16891
1.16891
1.16892
1.16892
1.16892
1.16892
1.16892
1.16892
1.16893
1.16893
1.16893
1.16893
1.16893
1.16893
1.16894
1.16894
1.16894
1.16894
1.16894
1.16894
1.16895
1.16894
1.16895
1.16894
1.16896
1.16895
1.16896
1.16895
1.16898
1.16897
1.1691
1.16932
1.17013
1.17202
1.17818
1.19344
1.27505
1.34161
1.33467
1.3245
1.28994
1.24848
254.032
1017.94
1024.82
1025.18
1025.72
1026.24
1026.65
1026.85
1026.95
1026.99
1027.01
1027.01
1027.02
1027.01
1027.01
1027.02
1027.04
1027.05
1027.06
1027.06
1027.07
1027.07
1027.07
1027.07
1027.09
1027.09
1027.1
1027.1
1027.1
1027.1
1027.1
1027.1
1027.1
1027.1
1027.1
1027.1
1027.1
1.1616
1.16284
1.16526
1.16665
1.16707
1.16739
1.16759
1.16771
1.16793
1.16816
1.1684
1.16866
1.16881
1.16888
1.1689
1.1689
1.1689
1.16891
1.16891
1.16892
1.16892
1.16892
1.16892
1.16893
1.16893
1.16893
1.16893
1.16893
1.16893
1.16893
1.16894
1.16894
1.16894
1.16894
1.16894
1.16894
1.16894
1.16895
1.16894
1.16895
1.16894
1.16895
1.16895
1.16896
1.16896
1.169
1.16902
1.16918
1.16933
1.17047
1.17197
1.17651
1.21436
1.27867
1.29963
1.26201
1.2284
1.20795
1.18794
430.988
1010.21
1015.47
1015.44
1015.58
1017.26
1019.14
1020.71
1021.91
1022.61
1022.83
1022.63
1021.88
1021.76
1022.11
1022.56
1023
1023.54
1024
1024.07
1023.5
1022.87
1022.83
1024.04
1025.15
1025.86
1026.38
1026.72
1026.96
1027.06
1027.09
1027.09
1027.1
1027.1
1027.1
1027.1
1027.1
1.16171
1.1616
1.16374
1.16541
1.16655
1.16718
1.16767
1.16799
1.16805
1.16812
1.16832
1.16856
1.16875
1.16887
1.1689
1.1689
1.1689
1.1689
1.16891
1.16891
1.16891
1.16891
1.16891
1.16892
1.16892
1.16892
1.16892
1.16892
1.16892
1.16892
1.16893
1.16893
1.16893
1.16893
1.16893
1.16894
1.16893
1.16894
1.16894
1.16894