/*--------------------------------*- C++ -*----------------------------------*\
| =========                 |                                                 |
| \\      /  F ield         | OpenFOAM: The Open Source CFD Toolbox           |
|  \\    /   O peration     | Version:  2.3.0                                 |
|   \\  /    A nd           | Web:      www.OpenFOAM.org                      |
|    \\/     M anipulation  |                                                 |
\*---------------------------------------------------------------------------*/
FoamFile
{
    version     2.0;
    format      ascii;
    class       volScalarField;
    location    "23";
    object      rho;
}
// * * * * * * * * * * * * * * * * * * * * * * * * * * * * * * * * * * * * * //

dimensions      [1 -3 0 0 0 0 0];

internalField   nonuniform List<scalar> 
6144
(
1.16494
1.16564
1.1661
1.16646
1.16686
1.16726
1.16772
1.16828
1.1687
1.16885
1.16888
1.16889
1.16889
1.16889
1.16889
1.1689
1.1689
1.1689
1.1689
1.1689
1.1689
1.16891
1.16891
1.16891
1.16891
1.16891
1.16891
1.16892
1.16892
1.16892
1.16892
1.16892
1.16892
1.16892
1.16893
1.16893
1.16893
1.16893
1.16893
1.16893
1.16894
1.16894
1.16894
1.16894
1.16897
1.16988
1.17245
1.17758
1.1922
1.24228
1.28186
1.29986
1.29883
1.29554
1.29136
1.29063
1.28878
1.29074
2.51264
52.404
962.309
1026.31
1027.09
1027.1
1027.1
1027.1
1027.1
1027.1
1027.1
1027.1
1027.1
1027.1
1027.1
1027.1
1027.1
1027.1
1027.1
1027.1
1027.1
1027.1
1027.1
1027.1
1027.1
1027.1
1027.1
1027.1
1027.1
1027.1
1027.1
1027.1
1027.1
1027.1
1027.1
1027.1
1027.1
1027.1
1.16394
1.16504
1.16569
1.16609
1.16677
1.16733
1.16793
1.1685
1.16878
1.16886
1.16888
1.16889
1.16889
1.1689
1.1689
1.1689
1.16891
1.16891
1.16891
1.16891
1.16891
1.16891
1.16891
1.16892
1.16892
1.16892
1.16892
1.16892
1.16892
1.16893
1.16893
1.16893
1.16893
1.16893
1.16893
1.16894
1.16894
1.16894
1.16894
1.16894
1.16894
1.16894
1.16894
1.16894
1.16906
1.16964
1.17142
1.17558
1.18499
1.21817
1.29606
1.3081
1.3006
1.29248
1.28835
1.28704
1.28447
1.28917
1.83318
38.8909
980.283
1026.88
1027.09
1027.09
1027.09
1027.1
1027.1
1027.1
1027.1
1027.1
1027.1
1027.1
1027.1
1027.1
1027.1
1027.1
1027.1
1027.1
1027.1
1027.1
1027.1
1027.1
1027.1
1027.1
1027.1
1027.1
1027.1
1027.1
1027.1
1027.1
1027.1
1027.1
1027.1
1027.1
1027.1
1027.1
1.16334
1.16449
1.16542
1.16581
1.16636
1.16705
1.16781
1.16836
1.16859
1.16872
1.16879
1.16885
1.16888
1.1689
1.1689
1.16891
1.16891
1.16891
1.16891
1.16891
1.16891
1.16891
1.16892
1.16892
1.16892
1.16892
1.16892
1.16892
1.16893
1.16893
1.16893
1.16893
1.16893
1.16893
1.16893
1.16894
1.16894
1.16894
1.16894
1.16894
1.16894
1.16894
1.16894
1.16896
1.16916
1.16983
1.17202
1.17659
1.18637
1.21938
1.30569
1.31203
1.3028
1.29353
1.28869
1.28655
1.28447
1.28977
1.48988
63.5925
987.395
1027.06
1027.09
1027.09
1027.09
1027.09
1027.1
1027.1
1027.1
1027.1
1027.1
1027.1
1027.1
1027.1
1027.1
1027.1
1027.1
1027.1
1027.1
1027.1
1027.1
1027.1
1027.1
1027.1
1027.1
1027.1
1027.1
1027.1
1027.1
1027.1
1027.1
1027.1
1027.1
1027.1
1027.1
1027.1
1.16294
1.16389
1.16515
1.16554
1.166
1.16666
1.16764
1.16838
1.16857
1.16866
1.16874
1.16883
1.16888
1.1689
1.1689
1.1689
1.1689
1.1689
1.16891
1.16891
1.16891
1.16891
1.16891
1.16891
1.16891
1.16892
1.16892
1.16892
1.16892
1.16892
1.16892
1.16892
1.16893
1.16893
1.16893
1.16893
1.16893
1.16893
1.16893
1.16894
1.16894
1.16894
1.16894
1.169
1.16929
1.17042
1.17383
1.18033
1.19035
1.22853
1.30722
1.31497
1.30775
1.29693
1.29074
1.28751
1.28468
1.29125
1.30194
71.4743
962.976
1027.09
1027.09
1027.09
1027.09
1027.1
1027.1
1027.1
1027.1
1027.1
1027.1
1027.1
1027.1
1027.1
1027.1
1027.1
1027.1
1027.1
1027.1
1027.1
1027.1
1027.1
1027.1
1027.1
1027.1
1027.1
1027.1
1027.1
1027.1
1027.1
1027.1
1027.1
1027.1
1027.1
1027.1
1027.1
1.16272
1.16334
1.16478
1.16526
1.16569
1.16615
1.16701
1.16801
1.16858
1.16868
1.16872
1.16882
1.16888
1.1689
1.1689
1.1689
1.16891
1.16891
1.16891
1.16891
1.16891
1.16892
1.16892
1.16892
1.16892
1.16892
1.16892
1.16892
1.16893
1.16893
1.16893
1.16893
1.16893
1.16893
1.16893
1.16893
1.16894
1.16894
1.16894
1.16894
1.16894
1.16894
1.16895
1.16904
1.16943
1.17118
1.17592
1.18376
1.19227
1.21899
1.30316
1.31613
1.31341
1.30334
1.29464
1.29098
1.2893
1.28882
1.28049
100.349
984.516
1027
1026.99
1027.03
1027.03
1027.03
1027.03
1027.04
1027.04
1027.04
1027.04
1027.04
1027.05
1027.05
1027.06
1027.07
1027.08
1027.09
1027.09
1027.1
1027.1
1027.1
1027.1
1027.1
1027.1
1027.1
1027.1
1027.1
1027.1
1027.1
1027.1
1027.1
1027.1
1027.1
1027.1
1027.1
1.1626
1.16282
1.16418
1.16479
1.16542
1.16579
1.16645
1.16736
1.16842
1.16869
1.16871
1.16881
1.16887
1.16889
1.1689
1.1689
1.1689
1.1689
1.1689
1.1689
1.16891
1.16891
1.16891
1.16891
1.16891
1.16891
1.16892
1.16892
1.16892
1.16892
1.16892
1.16892
1.16893
1.16893
1.16893
1.16893
1.16893
1.16893
1.16893
1.16893
1.16894
1.16894
1.16896
1.16907
1.16956
1.17178
1.17684
1.18294
1.18773
1.20346
1.27409
1.31499
1.31711
1.31255
1.30142
1.29481
1.29161
1.29576
1.28049
204.077
1016.48
1023.83
1023.52
1023.45
1023.13
1022.95
1022.73
1022.64
1022.6
1022.66
1022.7
1022.82
1023
1023.35
1023.77
1024.25
1024.72
1025.21
1025.65
1026.04
1026.37
1026.63
1026.82
1026.95
1027.02
1027.06
1027.08
1027.08
1027.09
1027.09
1027.09
1027.09
1027.1
1027.1
1027.1
1027.1
1.16254
1.16252
1.1635
1.16414
1.16501
1.1655
1.16623
1.16704
1.16781
1.16856
1.16867
1.16879
1.16887
1.16889
1.1689
1.1689
1.16891
1.16891
1.16891
1.16891
1.16891
1.16891
1.16891
1.16891
1.16892
1.16892
1.16892
1.16892
1.16892
1.16892
1.16892
1.16893
1.16893
1.16893
1.16893
1.16893
1.16893
1.16893
1.16893
1.16894
1.16894
1.16894
1.16896
1.16908
1.16961
1.1718
1.17629
1.18135
1.18671
1.19235
1.23214
1.29063
1.31662
1.31785
1.3116
1.30416
1.29737
1.29906
1.28049
428.225
1007.4
1011.85
1010.95
1010.51
1010.12
1009.87
1009.74
1009.71
1009.8
1009.94
1010.12
1010.4
1010.68
1011.03
1011.41
1011.9
1012.47
1013.16
1013.97
1014.94
1016.04
1017.28
1018.64
1020.06
1021.49
1022.89
1024.13
1025.08
1025.59
1025.7
1025.74
1025.96
1026.34
1026.67
1026.82
1026.98
1.16254
1.16248
1.16311
1.16356
1.1646
1.16528
1.16614
1.16697
1.16753
1.16819
1.16853
1.16875
1.16886
1.16889
1.1689
1.1689
1.1689
1.16891
1.16891
1.16891
1.16891
1.16891
1.16892
1.16892
1.16892
1.16892
1.16892
1.16892
1.16893
1.16893
1.16893
1.16893
1.16893
1.16893
1.16893
1.16894
1.16894
1.16894
1.16894
1.16894
1.16895
1.16895
1.16896
1.16906
1.16959
1.17166
1.1757
1.18123
1.18907
1.19598
1.21436
1.25337
1.29653
1.31597
1.31851
1.31733
1.30878
1.3026
1.28049
402.554
1003.34
1008.95
1008.49
1008.36
1008.82
1009
1009.27
1009.46
1009.51
1009.1
1008.86
1008.74
1008.66
1008.44
1008.12
1007.68
1007.14
1006.49
1005.72
1004.92
1004.22
1003.28
1002.14
1001.21
1000.3
999.357
998.636
998.215
998.021
998.01
998.637
999.035
1000.31
1002.92
1006.78
1011.79
1.16263
1.16277
1.16305
1.16337
1.16434
1.16515
1.16617
1.16705
1.1676
1.16799
1.16834
1.16866
1.16883
1.16889
1.16889
1.1689
1.1689
1.1689
1.1689
1.1689
1.16891
1.16891
1.16891
1.16891
1.16891
1.16892
1.16892
1.16892
1.16892
1.16892
1.16892
1.16893
1.16893
1.16893
1.16893
1.16893
1.16893
1.16894
1.16894
1.16894
1.16894
1.16895
1.16895
1.16904
1.16953
1.17134
1.17479
1.18024
1.18855
1.19807
1.20956
1.23516
1.27101
1.3022
1.30808
1.32225
1.31498
1.31057
1.28049
248.549
1003.56
1018.97
1020.12
1022.22
1023.82
1025.61
1026.37
1026.56
1026.53
1026.74
1026.9
1026.97
1026.98
1026.9
1026.84
1026.79
1026.76
1026.74
1026.75
1026.68
1026.54
1026.41
1026.33
1026.25
1026.19
1026.12
1026.06
1026.1
1026.08
1026.26
1026.29
1026.63
1026.72
1026.76
1026.83
1026.94
1.16256
1.163
1.16323
1.16361
1.16427
1.16508
1.16622
1.16717
1.16777
1.16805
1.16836
1.16865
1.16881
1.16889
1.1689
1.1689
1.1689
1.16891
1.16891
1.16891
1.16891
1.16891
1.16891
1.16892
1.16892
1.16892
1.16892
1.16892
1.16892
1.16893
1.16893
1.16893
1.16893
1.16893
1.16893
1.16893
1.16894
1.16894
1.16894
1.16894
1.16894
1.16895
1.16896
1.16905
1.16953
1.171
1.17387
1.1784
1.18612
1.19781
1.20869
1.2289
1.25067
1.27873
1.29248
1.31057
1.30396
1.31443
1.28048
123.877
1011.65
1026.28
1026.59
1026.92
1027.02
1027.09
1027.09
1027.09
1027.1
1027.1
1027.1
1027.1
1027.1
1027.1
1027.1
1027.1
1027.1
1027.1
1027.1
1027.09
1027.09
1027.09
1027.09
1027.09
1027.09
1027.09
1027.1
1027.1
1027.1
1027.1
1027.1
1027.1
1027.1
1027.1
1027.1
1027.1
1.16249
1.1631
1.1634
1.1639
1.16463
1.16539
1.16628
1.16718
1.16787
1.16823
1.16853
1.16876
1.16884
1.16889
1.16889
1.1689
1.1689
1.1689
1.1689
1.16891
1.16891
1.16891
1.16891
1.16891
1.16892
1.16892
1.16892
1.16892
1.16892
1.16893
1.16893
1.16893
1.16893
1.16893
1.16893
1.16894
1.16894
1.16894
1.16894
1.16894
1.16894
1.16895
1.16896
1.16908
1.16956
1.17074
1.17319
1.17696
1.18387
1.20056
1.21555
1.23058
1.24167
1.26095
1.27454
1.30099
1.28915
1.31866
1.28048
73.7561
1017.6
1027.08
1027.09
1027.09
1027.09
1027.09
1027.09
1027.1
1027.1
1027.1
1027.1
1027.1
1027.1
1027.1
1027.1
1027.1
1027.1
1027.1
1027.1
1027.1
1027.1
1027.1
1027.1
1027.1
1027.1
1027.1
1027.1
1027.1
1027.1
1027.1
1027.1
1027.1
1027.1
1027.1
1027.1
1027.1
1.16249
1.16308
1.16341
1.16381
1.1649
1.16579
1.16671
1.16733
1.16803
1.16854
1.16879
1.16889
1.1689
1.16891
1.1689
1.16891
1.1689
1.16891
1.16891
1.16891
1.16891
1.16891
1.16891
1.16892
1.16892
1.16892
1.16892
1.16892
1.16892
1.16893
1.16893
1.16893
1.16893
1.16893
1.16894
1.16894
1.16894
1.16894
1.16894
1.16895
1.16895
1.16895
1.16897
1.16912
1.16957
1.17051
1.17256
1.17598
1.18193
1.20273
1.23006
1.24326
1.24259
1.25094
1.25958
1.28649
1.28253
1.31077
1.36372
43.4836
1014.36
1027.09
1027.09
1027.09
1027.09
1027.1
1027.1
1027.1
1027.1
1027.1
1027.1
1027.1
1027.1
1027.1
1027.1
1027.1
1027.1
1027.1
1027.1
1027.1
1027.1
1027.1
1027.1
1027.1
1027.1
1027.1
1027.1
1027.1
1027.1
1027.1
1027.1
1027.1
1027.1
1027.1
1027.1
1027.1
1.16232
1.16263
1.16277
1.16274
1.16411
1.16526
1.16707
1.16774
1.16832
1.16876
1.16883
1.16889
1.16891
1.16892
1.16892
1.16892
1.16892
1.16892
1.16892
1.16892
1.16892
1.16892
1.16892
1.16892
1.16892
1.16892
1.16892
1.16893
1.16893
1.16893
1.16893
1.16893
1.16893
1.16894
1.16894
1.16894
1.16894
1.16894
1.16895
1.16895
1.16895
1.16895
1.16898
1.16912
1.1695
1.17022
1.17202
1.17538
1.18092
1.19891
1.23455
1.25962
1.24873
1.25921
1.274
1.29279
1.2788
1.31345
1.51377
33.9161
1002.84
1027.09
1027.09
1027.09
1027.1
1027.1
1027.1
1027.1
1027.1
1027.1
1027.1
1027.1
1027.1
1027.1
1027.1
1027.1
1027.1
1027.1
1027.1
1027.1
1027.1
1027.1
1027.1
1027.1
1027.1
1027.1
1027.1
1027.1
1027.1
1027.1
1027.1
1027.1
1027.1
1027.1
1027.1
1027.1
1.16212
1.16223
1.16179
1.16158
1.16209
1.16325
1.16616
1.16823
1.16859
1.16876
1.16879
1.16886
1.1689
1.16892
1.16892
1.16892
1.16892
1.16892
1.16892
1.16892
1.16893
1.16893
1.16893
1.16893
1.16893
1.16893
1.16893
1.16893
1.16893
1.16893
1.16893
1.16894
1.16894
1.16894
1.16894
1.16894
1.16894
1.16894
1.16895
1.16895
1.16895
1.16896
1.16898
1.1691
1.16939
1.16995
1.17162
1.17483
1.18063
1.19794
1.23852
1.27144
1.27959
1.28962
1.28881
1.28188
1.27532
1.35076
1.81999
45.3771
994.052
1027.09
1027.09
1027.09
1027.1
1027.1
1027.1
1027.1
1027.1
1027.1
1027.1
1027.1
1027.1
1027.1
1027.1
1027.1
1027.1
1027.1
1027.1
1027.1
1027.1
1027.1
1027.1
1027.1
1027.1
1027.1
1027.1
1027.1
1027.1
1027.1
1027.1
1027.1
1027.1
1027.1
1027.1
1027.1
1.16185
1.16237
1.16163
1.16126
1.16128
1.16155
1.16343
1.16779
1.16864
1.16876
1.16878
1.16884
1.16889
1.16891
1.16891
1.16892
1.16892
1.16892
1.16892
1.16892
1.16892
1.16892
1.16893
1.16893
1.16893
1.16893
1.16893
1.16893
1.16893
1.16893
1.16893
1.16893
1.16894
1.16894
1.16894
1.16894
1.16894
1.16894
1.16895
1.16895
1.16895
1.16896
1.16897
1.16904
1.16921
1.16962
1.17128
1.17474
1.18135
1.20038
1.24484
1.27824
1.2901
1.29484
1.29174
1.28603
1.27522
1.39174
2.15648
56.5473
987.945
1027.05
1027.09
1027.09
1027.1
1027.1
1027.1
1027.1
1027.1
1027.1
1027.1
1027.1
1027.1
1027.1
1027.1
1027.1
1027.1
1027.1
1027.1
1027.1
1027.1
1027.1
1027.1
1027.1
1027.1
1027.1
1027.1
1027.1
1027.1
1027.1
1027.1
1027.1
1027.1
1027.1
1027.1
1027.1
1.16073
1.16165
1.16167
1.16165
1.16159
1.16146
1.16123
1.16492
1.16852
1.16881
1.16883
1.16887
1.1689
1.16892
1.16892
1.16892
1.16892
1.16892
1.16893
1.16893
1.16893
1.16893
1.16893
1.16893
1.16893
1.16894
1.16894
1.16894
1.16894
1.16894
1.16894
1.16894
1.16894
1.16895
1.16895
1.16895
1.16895
1.16895
1.16895
1.16896
1.16896
1.16896
1.16897
1.16899
1.16905
1.16956
1.17147
1.17569
1.18475
1.20684
1.25119
1.27832
1.28561
1.28918
1.28672
1.2911
1.27522
1.44694
3.05758
64.2268
966.109
1026.5
1027.09
1027.09
1027.1
1027.1
1027.1
1027.1
1027.1
1027.1
1027.1
1027.1
1027.1
1027.1
1027.1
1027.1
1027.1
1027.1
1027.1
1027.1
1027.1
1027.1
1027.1
1027.1
1027.1
1027.1
1027.1
1027.1
1027.1
1027.1
1027.1
1027.1
1027.1
1027.1
1027.1
1027.1
1.1643
1.16567
1.16623
1.16658
1.16694
1.16736
1.16789
1.16836
1.16857
1.16867
1.16877
1.16885
1.1689
1.16891
1.16892
1.16892
1.16892
1.16892
1.16892
1.16892
1.16892
1.16893
1.16893
1.16893
1.16893
1.16893
1.16893
1.16894
1.16894
1.16894
1.16894
1.16894
1.16895
1.16895
1.16895
1.16895
1.16895
1.16895
1.16896
1.16896
1.16896
1.16896
1.16896
1.16896
1.16898
1.16992
1.17262
1.1784
1.19071
1.23801
1.27317
1.29663
1.29785
1.29633
1.29293
1.29212
1.28947
1.29839
1.66845
34.593
982.884
1026.9
1027.09
1027.1
1027.1
1027.1
1027.1
1027.1
1027.1
1027.1
1027.1
1027.1
1027.1
1027.1
1027.1
1027.1
1027.1
1027.1
1027.1
1027.1
1027.1
1027.1
1027.1
1027.1
1027.1
1027.1
1027.1
1027.1
1027.1
1027.1
1027.1
1027.1
1027.1
1027.1
1027.1
1027.1
1.1627
1.16481
1.16599
1.16642
1.16693
1.16732
1.16764
1.16791
1.16817
1.16838
1.16859
1.16877
1.16887
1.16891
1.16892
1.16892
1.16892
1.16892
1.16892
1.16892
1.16892
1.16893
1.16893
1.16893
1.16893
1.16893
1.16893
1.16894
1.16894
1.16894
1.16894
1.16894
1.16894
1.16894
1.16895
1.16895
1.16895
1.16895
1.16895
1.16895
1.16895
1.16895
1.16896
1.169
1.16914
1.16967
1.17183
1.17809
1.18715
1.21607
1.26889
1.30188
1.29966
1.29477
1.28801
1.28815
1.28522
1.2965
1.47208
55.9035
1008.28
1027.08
1027.09
1027.09
1027.1
1027.1
1027.1
1027.1
1027.1
1027.1
1027.1
1027.1
1027.1
1027.1
1027.1
1027.1
1027.1
1027.1
1027.1
1027.1
1027.1
1027.1
1027.1
1027.1
1027.1
1027.1
1027.1
1027.1
1027.1
1027.1
1027.1
1027.1
1027.1
1027.1
1027.1
1027.1
1.16205
1.16368
1.16574
1.16626
1.16654
1.16688
1.16719
1.16754
1.16791
1.16823
1.16849
1.16873
1.16886
1.1689
1.16891
1.16891
1.16891
1.16892
1.16892
1.16892
1.16892
1.16892
1.16892
1.16893
1.16893
1.16893
1.16893
1.16893
1.16893
1.16893
1.16894
1.16894
1.16894
1.16894
1.16894
1.16894
1.16894
1.16895
1.16895
1.16895
1.16895
1.16895
1.16896
1.16905
1.16943
1.17064
1.17384
1.1798
1.18791
1.20273
1.27354
1.30295
1.2997
1.29195
1.28539
1.28812
1.28486
1.29359
1.365
82.313
1009.94
1027.09
1027.09
1027.09
1027.09
1027.1
1027.1
1027.1
1027.1
1027.1
1027.1
1027.1
1027.1
1027.1
1027.1
1027.1
1027.1
1027.1
1027.1
1027.1
1027.1
1027.1
1027.1
1027.1
1027.1
1027.1
1027.1
1027.1
1027.1
1027.1
1027.1
1027.1
1027.1
1027.1
1027.1
1027.1
1.16176
1.16253
1.16519
1.16622
1.16644
1.1667
1.16696
1.1673
1.16776
1.16815
1.16844
1.1687
1.16885
1.1689
1.16891
1.16891
1.16891
1.16891
1.16892
1.16892
1.16892
1.16892
1.16892
1.16892
1.16892
1.16893
1.16893
1.16893
1.16893
1.16893
1.16893
1.16893
1.16894
1.16894
1.16894
1.16894
1.16894
1.16894
1.16894
1.16894
1.16894
1.16895
1.16896
1.16912
1.1699
1.17216
1.17669
1.18403
1.19355
1.20882
1.27121
1.30105
1.29524
1.28801
1.28418
1.28418
1.28722
1.29425
1.28049
150.559
1025.16
1027.09
1027.09
1027.09
1027.09
1027.09
1027.09
1027.09
1027.1
1027.1
1027.1
1027.1
1027.1
1027.1
1027.1
1027.1
1027.1
1027.1
1027.1
1027.1
1027.1
1027.1
1027.1
1027.1
1027.1
1027.1
1027.1
1027.1
1027.1
1027.1
1027.1
1027.1
1027.1
1027.1
1027.1
1027.1
1.16166
1.16187
1.16423
1.16611
1.16647
1.16659
1.1668
1.16713
1.16768
1.16813
1.16842
1.16869
1.16884
1.1689
1.16891
1.16891
1.16891
1.16891
1.16891
1.16892
1.16892
1.16892
1.16892
1.16892
1.16892
1.16892
1.16893
1.16893
1.16893
1.16893
1.16893
1.16893
1.16893
1.16894
1.16894
1.16894
1.16894
1.16894
1.16894
1.16894
1.16894
1.16894
1.16896
1.16914
1.17006
1.17269
1.17822
1.18813
1.20078
1.21371
1.27065
1.29825
1.29122
1.28842
1.28798
1.29298
1.29898
1.30356
1.28049
219.922
1025.66
1026.69
1026.7
1026.75
1026.77
1026.8
1026.82
1026.84
1026.88
1026.91
1026.95
1026.98
1027.01
1027.04
1027.06
1027.08
1027.09
1027.09
1027.1
1027.1
1027.1
1027.1
1027.1
1027.1
1027.1
1027.1
1027.1
1027.1
1027.1
1027.1
1027.1
1027.1
1027.1
1027.1
1027.1
1027.1
1.16158
1.16153
1.16327
1.16523
1.16641
1.16643
1.16661
1.16699
1.16766
1.16815
1.16842
1.16868
1.16884
1.1689
1.16891
1.16891
1.16891
1.16891
1.16891
1.16891
1.16892
1.16892
1.16892
1.16892
1.16892
1.16892
1.16892
1.16893
1.16893
1.16893
1.16893
1.16893
1.16893
1.16893
1.16894
1.16894
1.16894
1.16894
1.16894
1.16894
1.16894
1.16894
1.16896
1.16912
1.16994
1.17205
1.17723
1.18846
1.19926
1.20284
1.24887
1.2995
1.30338
1.3027
1.30746
1.31468
1.31954
1.3219
1.28049
315.628
1017.89
1021.61
1021.38
1021.36
1021.29
1021.24
1021.22
1021.35
1021.46
1021.76
1022.09
1022.48
1022.98
1023.61
1024.26
1024.89
1025.46
1025.94
1026.31
1026.57
1026.74
1026.82
1026.84
1026.84
1026.82
1026.81
1026.8
1026.8
1026.89
1026.93
1026.93
1026.92
1026.95
1027.05
1027.09
1027.1
1.16154
1.16131
1.16244
1.16406
1.16553
1.16583
1.16636
1.16693
1.16771
1.16821
1.16845
1.16869
1.16884
1.1689
1.16891
1.16891
1.16891
1.16891
1.16891
1.16891
1.16891
1.16892
1.16892
1.16892
1.16892
1.16892
1.16892
1.16892
1.16893
1.16893
1.16893
1.16893
1.16893
1.16893
1.16894
1.16894
1.16894
1.16894
1.16894
1.16894
1.16894
1.16894
1.16896
1.16906
1.1696
1.17144
1.17669
1.18854
1.20185
1.21294
1.23054
1.29602
1.31165
1.31087
1.31352
1.31475
1.31153
1.32344
1.28049
421.706
1002.45
1007.16
1006.22
1005.69
1005
1004.35
1003.93
1003.64
1003.5
1003.5
1003.42
1003.41
1003.54
1003.88
1004.43
1005.21
1006.24
1007.52
1009.07
1010.82
1012.72
1014.68
1016.46
1017.76
1018.33
1018.32
1017.91
1017.67
1017.39
1016.04
1014.59
1013.53
1013.31
1017.43
1020.34
1021.25
1.16161
1.16121
1.16183
1.16284
1.1643
1.16518
1.16613
1.16694
1.16779
1.16825
1.16847
1.1687
1.16884
1.1689
1.1689
1.16891
1.16891
1.16891
1.16891
1.16891
1.16891
1.16892
1.16892
1.16892
1.16892
1.16892
1.16892
1.16893
1.16893
1.16893
1.16893
1.16893
1.16893
1.16893
1.16894
1.16894
1.16894
1.16894
1.16894
1.16894
1.16894
1.16895
1.16896
1.16901
1.16939
1.17098
1.17612
1.1884
1.20468
1.21838
1.22871
1.25744
1.31554
1.32312
1.32982
1.3372
1.33859
1.31378
1.28048
368.286
997.61
1005.23
1004.95
1004.53
1003.67
1002.53
1001.69
1000.91
1000.23
999.404
998.697
997.937
996.789
995.362
993.434
990.863
987.763
984.315
980.569
976.913
973.213
969.603
966.128
962.726
959.236
956.28
953.921
951.977
947.821
942.749
936.19
926.593
912.037
887.235
834.541
640.94
1.1617
1.1612
1.16155
1.162
1.16328
1.16462
1.16605
1.16709
1.16788
1.1683
1.1685
1.16871
1.16885
1.1689
1.16891
1.16891
1.16891
1.16891
1.16891
1.16892
1.16892
1.16892
1.16892
1.16892
1.16892
1.16892
1.16893
1.16893
1.16893
1.16893
1.16893
1.16893
1.16894
1.16894
1.16894
1.16894
1.16894
1.16894
1.16894
1.16894
1.16894
1.16895
1.16895
1.16898
1.16926
1.17068
1.1755
1.18683
1.20259
1.2174
1.23283
1.24806
1.29528
1.31975
1.32558
1.34701
1.3656
1.3597
1.29914
185.696
998.331
1015.25
1016.2
1018.49
1020.36
1022.29
1023.58
1024.31
1024.21
1024.71
1024.95
1024.99
1024.82
1024.61
1024.26
1023.69
1022.91
1022.01
1021.01
1019.58
1017.81
1016.01
1014.65
1013.97
1013.82
1013.63
1013.42
1013.21
1015.33
1017.43
1021.02
1023.99
1025.08
1024.52
1024.1
1023.54
1.16171
1.16121
1.16149
1.16175
1.16266
1.16408
1.16592
1.16718
1.16796
1.16834
1.16853
1.16874
1.16886
1.1689
1.16891
1.16891
1.16891
1.16891
1.16892
1.16892
1.16892
1.16892
1.16892
1.16892
1.16892
1.16893
1.16893
1.16893
1.16893
1.16893
1.16893
1.16894
1.16894
1.16894
1.16894
1.16894
1.16894
1.16894
1.16894
1.16895
1.16895
1.16895
1.16895
1.16897
1.16921
1.17049
1.17496
1.18437
1.19611
1.20968
1.23187
1.2574
1.26508
1.29534
1.30976
1.31662
1.33188
1.36641
1.31775
116.931
1007.34
1024.97
1025.5
1026.39
1026.73
1026.95
1026.99
1027
1026.99
1026.99
1026.98
1026.98
1026.98
1026.98
1026.96
1026.94
1026.91
1026.86
1026.8
1026.72
1026.65
1026.62
1026.66
1026.7
1026.73
1026.79
1026.88
1026.93
1026.98
1027.05
1027.09
1027.1
1027.1
1027.1
1027.1
1027.1
1.16149
1.16119
1.16149
1.1618
1.16251
1.16379
1.16584
1.16724
1.16802
1.16839
1.16856
1.16876
1.16887
1.16891
1.16891
1.16891
1.16891
1.16892
1.16892
1.16892
1.16892
1.16892
1.16892
1.16892
1.16893
1.16893
1.16893
1.16893
1.16893
1.16893
1.16894
1.16894
1.16894
1.16894
1.16894
1.16894
1.16894
1.16894
1.16895
1.16895
1.16895
1.16895
1.16895
1.16897
1.16917
1.17032
1.17439
1.18236
1.19226
1.20565
1.23139
1.26201
1.26829
1.27483
1.28624
1.29961
1.31033
1.35645
1.35426
73.3144
1015.93
1027.02
1027.04
1027.09
1027.09
1027.09
1027.09
1027.09
1027.09
1027.09
1027.09
1027.09
1027.09
1027.09
1027.09
1027.09
1027.09
1027.09
1027.09
1027.09
1027.09
1027.09
1027.1
1027.1
1027.1
1027.1
1027.1
1027.1
1027.1
1027.1
1027.1
1027.1
1027.1
1027.1
1027.1
1027.1
1.16142
1.16111
1.16131
1.16172
1.16259
1.16397
1.16596
1.16734
1.16809
1.16843
1.1686
1.16879
1.16888
1.16891
1.16891
1.16891
1.16891
1.16892
1.16892
1.16892
1.16892
1.16892
1.16892
1.16892
1.16893
1.16893
1.16893
1.16893
1.16893
1.16893
1.16894
1.16894
1.16894
1.16894
1.16894
1.16894
1.16894
1.16894
1.16895
1.16895
1.16895
1.16895
1.16895
1.16897
1.16912
1.17015
1.17366
1.18082
1.19032
1.2035
1.23575
1.2683
1.27447
1.27475
1.27486
1.28333
1.29139
1.3357
1.41643
38.7745
1015.16
1027.09
1027.09
1027.09
1027.09
1027.1
1027.1
1027.1
1027.1
1027.1
1027.1
1027.1
1027.1
1027.1
1027.1
1027.1
1027.1
1027.1
1027.1
1027.1
1027.1
1027.1
1027.1
1027.1
1027.1
1027.1
1027.1
1027.1
1027.1
1027.1
1027.1
1027.1
1027.1
1027.1
1027.1
1027.1
1.1615
1.16111
1.16106
1.16119
1.16174
1.16277
1.16563
1.16747
1.16819
1.16849
1.16866
1.16883
1.16889
1.16891
1.16891
1.16891
1.16891
1.16892
1.16892
1.16892
1.16892
1.16892
1.16892
1.16893
1.16893
1.16893
1.16893
1.16893
1.16893
1.16893
1.16894
1.16894
1.16894
1.16894
1.16894
1.16894
1.16894
1.16894
1.16894
1.16895
1.16895
1.16895
1.16895
1.16897
1.16909
1.16989
1.17253
1.17867
1.1867
1.20228
1.24164
1.27356
1.27754
1.27929
1.2771
1.28775
1.29079
1.31447
1.58632
25.6355
1007.87
1027.09
1027.09
1027.09
1027.1
1027.1
1027.1
1027.1
1027.1
1027.1
1027.1
1027.1
1027.1
1027.1
1027.1
1027.1
1027.1
1027.1
1027.1
1027.1
1027.1
1027.1
1027.1
1027.1
1027.1
1027.1
1027.1
1027.1
1027.1
1027.1
1027.1
1027.1
1027.1
1027.1
1027.1
1027.1
1.16139
1.16166
1.16102
1.16083
1.16086
1.16112
1.16348
1.16743
1.16828
1.16856
1.16872
1.16884
1.16889
1.16891
1.16891
1.16891
1.16891
1.16891
1.16892
1.16892
1.16892
1.16892
1.16892
1.16892
1.16892
1.16893
1.16893
1.16893
1.16893
1.16893
1.16893
1.16893
1.16893
1.16893
1.16893
1.16894
1.16894
1.16894
1.16894
1.16894
1.16894
1.16895
1.16895
1.16897
1.16906
1.16971
1.17174
1.17674
1.18441
1.20308
1.24801
1.27637
1.285
1.29033
1.29028
1.29132
1.28923
1.33787
1.93674
34.8844
994.883
1027.09
1027.09
1027.09
1027.1
1027.1
1027.1
1027.1
1027.1
1027.1
1027.1
1027.1
1027.1
1027.1
1027.1
1027.1
1027.1
1027.1
1027.1
1027.1
1027.1
1027.1
1027.1
1027.1
1027.1
1027.1
1027.1
1027.1
1027.1
1027.1
1027.1
1027.1
1027.1
1027.1
1027.1
1027.1
1.1612
1.16201
1.16136
1.1607
1.16067
1.1607
1.16127
1.16613
1.16834
1.16865
1.16875
1.16884
1.16888
1.16891
1.16891
1.16891
1.16891
1.16891
1.16891
1.16892
1.16892
1.16892
1.16892
1.16892
1.16892
1.16892
1.16893
1.16893
1.16893
1.16893
1.16893
1.16893
1.16893
1.16893
1.16893
1.16893
1.16894
1.16894
1.16894
1.16894
1.16894
1.16895
1.16895
1.16897
1.16906
1.16962
1.17153
1.17596
1.18447
1.20523
1.25046
1.27721
1.28205
1.28322
1.27861
1.29128
1.28232
1.37306
2.23706
45.7546
981.581
1027.02
1027.09
1027.09
1027.1
1027.1
1027.1
1027.1
1027.1
1027.1
1027.1
1027.1
1027.1
1027.1
1027.1
1027.1
1027.1
1027.1
1027.1
1027.1
1027.1
1027.1
1027.1
1027.1
1027.1
1027.1
1027.1
1027.1
1027.1
1027.1
1027.1
1027.1
1027.1
1027.1
1027.1
1027.1
1.16035
1.16079
1.16094
1.16093
1.16085
1.1608
1.16081
1.16438
1.16829
1.16868
1.16875
1.16885
1.16889
1.16891
1.16891
1.16891
1.16892
1.16892
1.16892
1.16892
1.16892
1.16892
1.16893
1.16893
1.16893
1.16893
1.16893
1.16893
1.16894
1.16894
1.16894
1.16894
1.16894
1.16894
1.16894
1.16894
1.16895
1.16895
1.16895
1.16895
1.16896
1.16896
1.16896
1.16897
1.16903
1.16957
1.17159
1.17631
1.18642
1.20961
1.25259
1.27613
1.28019
1.28147
1.27944
1.28092
1.27522
1.42766
3.0465
59.5799
956.419
1026.24
1027.09
1027.09
1027.1
1027.1
1027.1
1027.1
1027.1
1027.1
1027.1
1027.1
1027.1
1027.1
1027.1
1027.1
1027.1
1027.1
1027.1
1027.1
1027.1
1027.1
1027.1
1027.1
1027.1
1027.1
1027.1
1027.1
1027.1
1027.1
1027.1
1027.1
1027.1
1027.1
1027.1
1027.1
1.16486
1.16586
1.16637
1.16666
1.16694
1.16734
1.16794
1.16843
1.16859
1.16868
1.16879
1.16886
1.1689
1.16891
1.16891
1.16891
1.16891
1.16891
1.16891
1.16892
1.16892
1.16892
1.16892
1.16892
1.16892
1.16893
1.16893
1.16893
1.16893
1.16893
1.16893
1.16894
1.16894
1.16894
1.16894
1.16894
1.16894
1.16895
1.16895
1.16895
1.16895
1.16895
1.16895
1.16896
1.16898
1.17003
1.17317
1.17911
1.19239
1.23102
1.26435
1.28864
1.29366
1.29501
1.29388
1.29408
1.29192
1.31129
1.78189
34.4717
955.58
1026.54
1027.09
1027.1
1027.1
1027.1
1027.1
1027.1
1027.1
1027.1
1027.1
1027.1
1027.1
1027.1
1027.1
1027.1
1027.1
1027.1
1027.1
1027.1
1027.1
1027.1
1027.1
1027.1
1027.1
1027.1
1027.1
1027.1
1027.1
1027.1
1027.1
1027.1
1027.1
1027.1
1027.1
1027.1
1.16321
1.16541
1.16634
1.16671
1.16709
1.16756
1.16797
1.1682
1.16837
1.16853
1.16869
1.16881
1.16888
1.1689
1.16891
1.16891
1.16891
1.16891
1.16892
1.16892
1.16892
1.16892
1.16892
1.16892
1.16893
1.16893
1.16893
1.16893
1.16893
1.16893
1.16893
1.16894
1.16894
1.16894
1.16894
1.16894
1.16894
1.16894
1.16894
1.16894
1.16894
1.16895
1.16895
1.16897
1.16904
1.16994
1.17318
1.18005
1.19455
1.22379
1.2518
1.28101
1.28966
1.29237
1.29057
1.29138
1.28906
1.30363
1.52984
36.472
980.988
1027.03
1027.09
1027.1
1027.1
1027.1
1027.1
1027.1
1027.1
1027.1
1027.1
1027.1
1027.1
1027.1
1027.1
1027.1
1027.1
1027.1
1027.1
1027.1
1027.1
1027.1
1027.1
1027.1
1027.1
1027.1
1027.1
1027.1
1027.1
1027.1
1027.1
1027.1
1027.1
1027.1
1027.1
1027.1
1.16173
1.16441
1.1663
1.16676
1.16714
1.16753
1.16777
1.16792
1.16817
1.1684
1.16861
1.16878
1.16886
1.16889
1.1689
1.1689
1.1689
1.16891
1.16891
1.16891
1.16891
1.16891
1.16891
1.16892
1.16892
1.16892
1.16892
1.16892
1.16892
1.16892
1.16893
1.16893
1.16893
1.16893
1.16893
1.16893
1.16893
1.16893
1.16893
1.16893
1.16894
1.16894
1.16895
1.169
1.16914
1.17014
1.17377
1.18114
1.19562
1.21559
1.24645
1.27923
1.28914
1.29227
1.29223
1.29212
1.28828
1.30431
1.42366
67.2311
998.066
1027.09
1027.09
1027.1
1027.1
1027.1
1027.1
1027.1
1027.1
1027.1
1027.1
1027.1
1027.1
1027.1
1027.1
1027.1
1027.1
1027.1
1027.1
1027.1
1027.1
1027.1
1027.1
1027.1
1027.1
1027.1
1027.1
1027.1
1027.1
1027.1
1027.1
1027.1
1027.1
1027.1
1027.1
1027.1
1.16079
1.1622
1.16587
1.16681
1.16715
1.1674
1.16752
1.16776
1.16809
1.16836
1.16859
1.16877
1.16886
1.1689
1.1689
1.1689
1.1689
1.16891
1.16891
1.16891
1.16891
1.16891
1.16891
1.16891
1.16891
1.16891
1.16892
1.16892
1.16892
1.16892
1.16892
1.16892
1.16893
1.16893
1.16893
1.16893
1.16893
1.16893
1.16893
1.16893
1.16894
1.16894
1.16895
1.16905
1.16944
1.17119
1.17529
1.18217
1.19504
1.21158
1.24368
1.27417
1.28924
1.291
1.28763
1.28356
1.28798
1.31471
1.44018
104.355
1013.65
1027.09
1027.09
1027.09
1027.09
1027.09
1027.09
1027.09
1027.1
1027.1
1027.09
1027.09
1027.1
1027.1
1027.1
1027.1
1027.1
1027.1
1027.1
1027.1
1027.1
1027.1
1027.1
1027.1
1027.1
1027.1
1027.1
1027.1
1027.1
1027.1
1027.1
1027.1
1027.1
1027.1
1027.1
1027.1
1.16096
1.16166
1.16477
1.16671
1.16713
1.16724
1.16736
1.16768
1.16802
1.16831
1.16856
1.16875
1.16885
1.16889
1.1689
1.1689
1.1689
1.16891
1.16891
1.16891
1.16891
1.16891
1.16891
1.16891
1.16892
1.16892
1.16892
1.16892
1.16892
1.16892
1.16892
1.16893
1.16893
1.16893
1.16893
1.16893
1.16893
1.16893
1.16893
1.16893
1.16894
1.16894
1.16896
1.16917
1.17005
1.17242
1.17781
1.18555
1.1962
1.2115
1.2451
1.28114
1.29346
1.29233
1.28128
1.28618
1.3081
1.34947
1.39698
167.329
1025.36
1026.91
1026.92
1026.94
1026.94
1026.95
1026.96
1026.96
1026.97
1026.99
1027.01
1027.03
1027.05
1027.06
1027.08
1027.08
1027.09
1027.09
1027.09
1027.09
1027.1
1027.1
1027.1
1027.1
1027.1
1027.1
1027.1
1027.1
1027.1
1027.1
1027.1
1027.1
1027.1
1027.1
1027.1
1027.1
1.16124
1.16166
1.16357
1.16614
1.16707
1.16725
1.16735
1.1676
1.16798
1.16828
1.16852
1.16872
1.16883
1.16888
1.16889
1.1689
1.1689
1.1689
1.1689
1.16891
1.16891
1.16891
1.16891
1.16891
1.16891
1.16892
1.16892
1.16892
1.16892
1.16892
1.16892
1.16893
1.16893
1.16893
1.16893
1.16893
1.16893
1.16893
1.16893
1.16893
1.16894
1.16894
1.16898
1.16935
1.17038
1.17237
1.17909
1.18943
1.20026
1.21386
1.23982
1.28662
1.2996
1.29667
1.30076
1.33039
1.38506
1.44578
1.45226
221.261
1020.98
1024.97
1025.03
1025.04
1024.9
1024.78
1024.67
1024.61
1024.59
1024.67
1024.86
1025.08
1025.42
1025.74
1026.06
1026.32
1026.53
1026.67
1026.77
1026.84
1026.89
1026.92
1026.94
1026.95
1026.96
1026.98
1027
1027.04
1027.08
1027.09
1027.1
1027.1
1027.1
1027.1
1027.1
1027.1
1.16131
1.16115
1.16298
1.16541
1.16685
1.16725
1.16745
1.16763
1.16797
1.16822
1.16843
1.16863
1.16877
1.16886
1.16889
1.16889
1.1689
1.1689
1.1689
1.16891
1.16891
1.16891
1.16891
1.16892
1.16892
1.16892
1.16892
1.16892
1.16892
1.16893
1.16893
1.16893
1.16893
1.16893
1.16893
1.16893
1.16893
1.16893
1.16894
1.16894
1.16894
1.16896
1.16906
1.16943
1.17
1.17185
1.18038
1.19262
1.20493
1.21939
1.23397
1.28743
1.30773
1.31462
1.33209
1.34734
1.34966
1.40794
1.51309
313.411
1013.21
1020.05
1020.54
1020.67
1019.78
1018.96
1018.34
1017.84
1017.55
1017.34
1017.3
1017.45
1017.87
1018.41
1019.18
1020.06
1021.07
1022.08
1023.04
1023.9
1024.66
1025.25
1025.65
1025.91
1026.04
1026.08
1026.01
1026
1026.22
1026.43
1026.62
1026.8
1026.95
1027.04
1027.1
1027.09
1.16128
1.161
1.16226
1.16406
1.1661
1.16703
1.16745
1.16767
1.16793
1.16815
1.16837
1.16854
1.1687
1.16884
1.16889
1.16889
1.16889
1.1689
1.1689
1.1689
1.1689
1.1689
1.16891
1.16891
1.16891
1.16891
1.16891
1.16891
1.16892
1.16892
1.16892
1.16892
1.16892