/*--------------------------------*- C++ -*----------------------------------*\
| =========                 |                                                 |
| \\      /  F ield         | OpenFOAM: The Open Source CFD Toolbox           |
|  \\    /   O peration     | Version:  2.3.0                                 |
|   \\  /    A nd           | Web:      www.OpenFOAM.org                      |
|    \\/     M anipulation  |                                                 |
\*---------------------------------------------------------------------------*/
FoamFile
{
    version     2.0;
    format      ascii;
    class       volVectorField;
    location    "23";
    object      U.airMean;
}
// * * * * * * * * * * * * * * * * * * * * * * * * * * * * * * * * * * * * * //

dimensions      [0 1 -1 0 0 0 0];

internalField   nonuniform List<vector> 
6144
(
(0.00822277 0.0206001 -0.00116206)
(0.00836673 0.00468846 -0.00139591)
(0.0047711 0.00236176 -0.00203963)
(0.00472442 -0.000119844 -0.00205655)
(0.00305435 -0.0016435 -0.00161466)
(0.0029819 -0.00111241 -0.00135498)
(0.00243026 -0.0014293 -0.00113739)
(0.00252535 -0.000455092 -0.00109026)
(0.00244942 7.91409e-05 -0.0013108)
(0.00250223 0.0012114 -0.00120335)
(0.00250854 0.00187773 -0.00109102)
(0.00266633 0.00236572 -0.000843129)
(0.00278924 0.00222154 -0.000790142)
(0.00291475 0.00193635 -0.000734141)
(0.00295913 0.00147282 -0.000874719)
(0.0030071 0.00114985 -0.000969893)
(0.00302491 0.000833674 -0.00110704)
(0.00304576 0.000654557 -0.00118826)
(0.00305559 0.000489772 -0.00126794)
(0.00306215 0.000402998 -0.00131104)
(0.00306236 0.000327392 -0.00134187)
(0.00305999 0.000290427 -0.00135448)
(0.00305423 0.000260503 -0.00135876)
(0.00304728 0.000246854 -0.0013539)
(0.00303855 0.000237284 -0.00134325)
(0.00302887 0.000232716 -0.00132806)
(0.0030182 0.000231491 -0.00131013)
(0.00300658 0.000229647 -0.00128977)
(0.00299476 0.000237612 -0.00126693)
(0.00298068 0.000227333 -0.00124047)
(0.00296856 0.000254882 -0.00120893)
(0.00294959 0.000199838 -0.00116823)
(0.00293583 0.000262547 -0.00111498)
(0.00290869 9.3206e-05 -0.0010454)
(0.00289412 0.000197404 -0.000953088)
(0.00285909 -0.000204045 -0.000842125)
(0.00284914 -7.35432e-05 -0.000711164)
(0.0028156 -0.000845277 -0.00058703)
(0.0028205 -0.00067249 -0.000488326)
(0.00280894 -0.00183906 -0.000475989)
(0.00282476 -0.00143081 -0.000587309)
(0.00283757 -0.00270882 -0.000891082)
(0.00285386 -0.00148827 -0.00135545)
(0.00291783 -0.00230833 -0.00184269)
(0.00301732 0.000268637 -0.0022117)
(0.00335936 -0.000728177 -0.00237022)
(0.00395175 0.00152546 -0.00282655)
(0.00364962 -0.000325192 -0.00377698)
(0.00211287 0.00744455 -0.00493979)
(0.00320755 0.0100283 -0.00659448)
(0.00714114 0.0197524 -0.00806432)
(0.014998 0.0102247 -0.00828532)
(0.0249026 0.00915039 -0.0092309)
(0.0304187 -0.0306449 -0.00967617)
(0.031704 -0.0268505 -0.0134532)
(0.0297154 -0.0760897 -0.0100905)
(0.0165688 -0.0366931 -0.0233389)
(0.0159894 -0.089496 0.0116758)
(-0.0276997 0.0275381 -0.0551037)
(0.03059 0.107734 0.0388833)
(0.105294 0.321828 0.041368)
(0.0447469 0.390915 -0.00306801)
(0.0478233 -0.0905259 0.00700285)
(0.0471741 -0.157955 0.00704477)
(0.0379063 -0.165458 0.00638977)
(0.0314047 -0.155563 0.0059495)
(0.0254874 -0.157082 0.00493449)
(0.0209054 -0.14989 0.00395439)
(0.0179399 -0.149719 0.00371159)
(0.0161328 -0.142487 0.00382316)
(0.0150578 -0.141333 0.0042733)
(0.0139654 -0.135467 0.00429854)
(0.012242 -0.131521 0.0046121)
(0.0094575 -0.123775 0.00445722)
(0.00538682 -0.11533 0.00439704)
(0.00257749 -0.103228 0.00370447)
(0.00127844 -0.0915531 0.00231702)
(-0.000430731 -0.0788529 0.000943338)
(-0.00253975 -0.0634952 0.000643227)
(-0.00132694 -0.0472073 0.000575589)
(0.0021902 -0.0342049 0.000354201)
(0.00455408 -0.0235061 0.00046311)
(0.00539028 -0.0167769 0.00228567)
(0.00427956 -0.0129769 0.00293345)
(0.00383147 -0.00806206 0.00243257)
(0.00389487 -0.00371842 0.00195983)
(0.00369968 6.32031e-05 0.00191355)
(0.00280411 0.00429805 0.00079318)
(0.00111917 0.0083983 -0.000338854)
(-0.00052467 0.0149476 -0.00141956)
(0.00105707 0.0211561 -0.00200694)
(0.00282615 0.0262131 -0.00244091)
(0.00353679 0.0301822 -0.000205082)
(0.00447631 0.0304911 0.00365962)
(0.00701857 0.0264768 0.00613352)
(0.00883902 0.016944 0.00792416)
(0.0166087 0.0233451 0.00254533)
(0.0174087 0.0115298 0.00239495)
(0.0105914 0.00837312 0.000681801)
(0.0108634 0.00570066 0.00129607)
(0.00660352 0.0022556 0.00159807)
(0.00641131 0.0019429 0.0018121)
(0.00463514 0.000455432 0.00201883)
(0.00467222 0.00149996 0.00176805)
(0.00434831 0.00177581 0.00152291)
(0.00458198 0.00285006 0.00152077)
(0.00469785 0.003196 0.00152791)
(0.00518603 0.0035177 0.0018214)
(0.0054564 0.00313453 0.00192223)
(0.00575468 0.00278432 0.00202192)
(0.00580855 0.002197 0.0019399)
(0.00590222 0.00179564 0.00189128)
(0.00589878 0.00138107 0.00179262)
(0.00592826 0.00114224 0.00174196)
(0.00592678 0.00091764 0.00167597)
(0.00592904 0.00079406 0.00165009)
(0.00591621 0.000686198 0.00163212)
(0.00590159 0.000629455 0.0016349)
(0.00588087 0.000583778 0.00164512)
(0.00585845 0.000560434 0.00166587)
(0.00583365 0.000543496 0.00169144)
(0.00580748 0.000534309 0.00172141)
(0.00577982 0.000529217 0.00175375)
(0.00575005 0.00052425 0.00178851)
(0.00571949 0.000528117 0.00182538)
(0.00568534 0.000513745 0.00186205)
(0.00565698 0.000535252 0.00190001)
(0.00561502 0.000464322 0.00194239)
(0.00559234 0.000518819 0.00199266)
(0.00554211 0.000307903 0.00204895)
(0.00553919 0.000407689 0.00212122)
(0.00549147 -7.24332e-05 0.00219754)
(0.00552901 8.2301e-05 0.00228868)
(0.00550107 -0.000801627 0.00236483)
(0.00558645 -0.000525168 0.00242622)
(0.00557925 -0.00184249 0.00241228)
(0.00564815 -0.00122748 0.00230195)
(0.0056147 -0.00274052 0.00196838)
(0.00561195 -0.00124498 0.00135114)
(0.00547066 -0.00243532 0.000646169)
(0.00556892 0.000410808 0.000165464)
(0.00626871 -0.00121036 -3.76935e-07)
(0.00662309 0.00173073 -0.000890354)
(0.00468054 0.00203836 -0.00227024)
(0.00276789 0.0101153 -0.00267598)
(0.00561903 0.00825074 -0.00269734)
(0.0162154 0.0111058 -0.00193478)
(0.0282248 -0.00992853 -0.000160178)
(0.0479412 -0.0145987 0.00409961)
(0.058749 -0.0544377 0.00649765)
(0.0566877 -0.0476675 0.00627685)
(0.0590913 -0.10518 0.0127356)
(0.0254701 -0.0689584 0.00565014)
(0.0177443 -0.166214 0.0342231)
(-0.070723 0.0378908 -0.0880309)
(0.0247637 0.0472426 0.0241287)
(0.113709 0.350802 0.0831133)
(0.0215955 0.42783 0.00281473)
(0.0194498 -0.0607554 0.00857771)
(0.0214872 -0.0146606 0.0129175)
(0.0104681 -0.0360118 0.0133443)
(0.00436165 -0.0203039 0.011009)
(0.00209026 -0.0249137 0.00881669)
(0.00309297 -0.0197519 0.00920206)
(0.00522966 -0.0224809 0.0100157)
(0.0054554 -0.0196448 0.00851981)
(0.00438943 -0.0227135 0.00886898)
(0.0026474 -0.0224231 0.00917299)
(0.000615675 -0.026761 0.0090138)
(-0.00224542 -0.028245 0.00702516)
(-0.00447002 -0.0302388 0.00482497)
(-0.00468259 -0.0291169 0.00421328)
(-0.00416408 -0.0272254 0.00311381)
(-0.00632717 -0.0221944 0.00375939)
(-0.00815854 -0.0157747 0.00363429)
(-0.0058642 -0.00880337 0.00419296)
(-0.00307197 -0.00246339 0.00441355)
(-0.000583768 0.00432074 0.00644677)
(0.00104673 0.00570861 0.00951756)
(0.000325865 0.00526833 0.0100457)
(-0.00126058 0.00631751 0.0091707)
(-0.00111073 0.00726226 0.00961519)
(-0.000845754 0.00832597 0.00958695)
(-0.00104655 0.00955894 0.00808587)
(-0.0010951 0.0100572 0.00622735)
(-0.00121656 0.0104058 0.00399748)
(-1.7993e-05 0.0109662 0.00151941)
(0.00220714 0.0137105 -0.00212277)
(0.00355445 0.0197814 -0.0013196)
(0.0057833 0.0220738 0.00416362)
(0.00885107 0.020298 0.0087701)
(0.0113071 0.0138253 0.0112928)
(0.0199517 0.0230492 0.00365575)
(0.0217572 0.014432 0.00352956)
(0.0135581 0.0106986 0.0014485)
(0.014453 0.00959753 0.00211276)
(0.00840391 0.00507421 0.00235065)
(0.00791917 0.00443869 0.00273309)
(0.00459421 0.00189291 0.00325017)
(0.00448519 0.00269576 0.00314731)
(0.00390418 0.00261477 0.00300518)
(0.00437864 0.00353767 0.00304942)
(0.00449535 0.00347338 0.00301455)
(0.00524753 0.00371958 0.00324588)
(0.00555667 0.0032574 0.00333826)
(0.00594258 0.00302629 0.003451)
(0.00597182 0.00247751 0.00341899)
(0.00606539 0.00212817 0.00342406)
(0.00599041 0.00170127 0.00338594)
(0.00598479 0.0014528 0.00338894)
(0.00591657 0.0012002 0.00338353)
(0.00587846 0.00106248 0.00340196)
(0.0058207 0.000936482 0.00341889)
(0.0057741 0.000868455 0.00344652)
(0.00572361 0.000813232 0.00347379)
(0.00567728 0.000783662 0.00350515)
(0.00563148 0.000762509 0.00353704)
(0.00558765 0.000750849 0.00357015)
(0.00554432 0.000743145 0.0036032)
(0.00550042 0.000734927 0.00363648)
(0.00545688 0.000731288 0.0036699)
(0.00541047 0.000707693 0.00370393)
(0.00537103 0.000711863 0.00373935)
(0.0053186 0.000629016 0.00377624)
(0.00529379 0.000657774 0.00381713)
(0.0052377 0.000440241 0.00385937)
(0.00524934 0.000524172 0.003909)
(0.00520558 7.77922e-05 0.00395477)
(0.00528086 0.000278281 0.00400636)
(0.00526381 -0.000468921 0.0040385)
(0.00540882 -1.70384e-05 0.0040572)
(0.00542119 -0.00105664 0.00401878)
(0.00558486 -0.000140828 0.00391402)
(0.00553043 -0.0014161 0.0036992)
(0.00548154 0.000194107 0.00335269)
(0.00525741 -0.00120257 0.00292017)
(0.00549124 0.00123006 0.00253908)
(0.00627033 -0.000697606 0.00224769)
(0.00617892 0.00277189 0.00126593)
(0.0043114 0.00210095 -0.000130218)
(0.00386824 0.00811539 -0.000320546)
(0.0108437 0.000970254 0.000322188)
(0.0287009 0.000670355 0.00186687)
(0.0483746 -0.0217818 0.00419543)
(0.06642 -0.0218376 0.0108179)
(0.0784503 -0.052896 0.012261)
(0.0780063 -0.0338665 0.0178779)
(0.0852334 -0.0971585 0.0272005)
(0.0362482 -0.0430556 0.0323399)
(0.0450029 -0.190303 0.0708985)
(-0.0801731 0.0801978 -0.0692652)
(0.0465921 0.019757 0.00205928)
(0.156843 0.380283 0.103138)
(0.067089 0.462533 0.0262399)
(0.0592014 0.0295893 0.0238706)
(0.039248 0.104101 0.0107468)
(0.0254035 0.0693031 0.0108283)
(0.0174219 0.0874764 0.0114553)
(0.0164802 0.0740183 0.012965)
(0.0140636 0.0740376 0.0116259)
(0.0154226 0.0656444 0.0101434)
(0.0152415 0.0555103 0.00949307)
(0.0138698 0.0359283 0.00919116)
(0.0114273 0.0230542 0.00933896)
(0.00879719 0.0132807 0.00834018)
(0.00563069 0.011687 0.00661572)
(0.00234041 0.00983101 0.00455896)
(-0.00111068 0.0114937 0.00366831)
(-0.0045429 0.0128128 0.00476924)
(-0.00719167 0.013829 0.00640733)
(-0.00832654 0.0138405 0.00664304)
(-0.00696983 0.0146774 0.00677774)
(-0.00478549 0.0175422 0.00620367)
(-0.00275765 0.0197603 0.00884428)
(-0.00192941 0.0187392 0.0138928)
(-0.00513896 0.0166811 0.0146559)
(-0.0077037 0.0145672 0.0137717)
(-0.0084171 0.0134694 0.0137078)
(-0.00754303 0.0148292 0.0124985)
(-0.00635554 0.0156124 0.0100818)
(-0.0047972 0.0164155 0.00786305)
(-0.00281926 0.0160692 0.00610291)
(-0.00021493 0.016092 0.00458975)
(0.000800035 0.0159439 0.00301342)
(0.0028667 0.0178196 0.00347534)
(0.00609529 0.0180194 0.00706995)
(0.00860538 0.0158927 0.011263)
(0.00917874 0.00998676 0.0134285)
(0.0212239 0.0227488 0.00396884)
(0.0248685 0.016152 0.00403116)
(0.0150712 0.0111922 0.00101234)
(0.0176761 0.0120289 0.00133561)
(0.0109128 0.00665111 0.00116732)
(0.0105743 0.00669644 0.00170419)
(0.00508988 0.00246659 0.00261113)
(0.00429564 0.00303667 0.00275447)
(0.00298272 0.00222913 0.00293968)
(0.0037321 0.00350938 0.003126)
(0.00384276 0.00317682 0.0031678)
(0.00462456 0.00354729 0.00354328)
(0.00484442 0.00313504 0.0037174)
(0.00522527 0.00310166 0.00388407)
(0.00522856 0.00262512 0.00386951)
(0.0053216 0.00237265 0.00389012)
(0.00521326 0.00194492 0.00386179)
(0.00519457 0.00170424 0.00387708)
(0.00509287 0.0014246 0.00388172)
(0.00503589 0.00127196 0.00391088)
(0.00495564 0.00112497 0.00393754)
(0.00489225 0.00104626 0.00397419)
(0.00482512 0.000981083 0.00400866)
(0.00476534 0.00094675 0.00404518)
(0.0047079 0.000922778 0.00408056)
(0.00465379 0.000910633 0.00411596)
(0.00460198 0.00090227 0.0041506)
(0.00455156 0.000893757 0.00418431)
(0.00450304 0.000886157 0.00421694)
(0.00445565 0.000859885 0.00424905)
(0.00441815 0.000853303 0.00428141)
(0.00437294 0.000769444 0.00431473)
(0.00436147 0.000786269 0.00434948)
(0.00432204 0.000584269 0.00438296)
(0.00436063 0.000677571 0.00441601)
(0.00433096 0.000293539 0.00443819)
(0.00443535 0.000564443 0.00445126)
(0.00441036 -3.68471e-05 0.00443327)
(0.00456997 0.000591044 0.00438703)
(0.00455239 -0.00020002 0.00429048)
(0.00477207 0.000992043 0.0041556)
(0.00478192 -8.58099e-05 0.00399512)
(0.00492673 0.00154523 0.00382927)
(0.00467667 -0.000230542 0.00371641)
(0.00463203 0.00185617 0.00373314)
(0.00504364 -0.000365305 0.00367713)
(0.00527949 0.00311507 0.00293947)
(0.004166 0.00108092 0.00196404)
(0.00624926 0.00431411 0.00219481)
(0.0154394 -0.00594628 0.00200681)
(0.0369069 -0.00810564 0.00379726)
(0.0575467 -0.0222915 0.0111601)
(0.0726623 -0.0139595 0.0211778)
(0.0828912 -0.0322301 0.0247103)
(0.0833019 0.00476903 0.0375648)
(0.0886086 -0.0638748 0.049763)
(0.0393827 0.0372456 0.0929806)
(0.0684711 -0.205139 0.131125)
(-0.0959313 0.206217 -0.0345993)
(0.0446999 -0.0400362 0.0249086)
(0.135389 0.455723 0.107542)
(0.039966 0.580352 0.0180264)
(0.0228401 0.433884 0.0146895)
(0.00237916 0.484821 0.00028317)
(0.00323207 0.435315 0.00929572)
(0.000116255 0.417627 0.00758853)
(0.00356146 0.3786 0.00820786)
(0.00407485 0.348018 0.00776896)
(0.0068868 0.316039 0.00652691)
(0.0071943 0.296854 0.00549928)
(0.00660426 0.265719 0.0050744)
(0.00480515 0.237938 0.00359672)
(0.00235254 0.206661 0.00238499)
(-0.000698536 0.178721 0.00245547)
(-0.00197033 0.152753 0.00355428)
(-0.00387369 0.1341 0.00455468)
(-0.00618448 0.121059 0.00547326)
(-0.0081683 0.103494 0.00688888)
(-0.00921165 0.0814051 0.00767497)
(-0.00881692 0.062381 0.0078038)
(-0.00757177 0.0537902 0.0103027)
(-0.00795108 0.0507559 0.0124947)
(-0.00958297 0.0461796 0.0150424)
(-0.0116289 0.0420073 0.0156083)
(-0.0146042 0.0428127 0.0149512)
(-0.0168147 0.0438321 0.0147532)
(-0.0156882 0.0459285 0.0122462)
(-0.0127268 0.0448894 0.00915611)
(-0.00937243 0.0411858 0.0070167)
(-0.00588935 0.0346073 0.00528784)
(-0.00334339 0.0293439 0.00553645)
(-0.00153654 0.0248365 0.00580332)
(0.000341455 0.0228209 0.00691093)
(0.00341464 0.0193511 0.0107943)
(0.00409666 0.0158798 0.0135174)
(0.00280967 0.00940817 0.0141842)
(0.0210685 0.0225568 0.00458765)
(0.0269412 0.018179 0.00502888)
(0.0156818 0.0110318 0.000848741)
(0.0199664 0.0136235 0.00135061)
(0.0130401 0.00678128 5.59279e-05)
(0.0136788 0.00834074 0.000362682)
(0.00688367 0.00307409 0.000817248)
(0.00522936 0.00378858 0.00160904)
(0.0021944 0.00140326 0.00218073)
(0.00256172 0.00275215 0.00265856)
(0.00254061 0.00216001 0.00282228)
(0.00321031 0.00286619 0.00345212)
(0.00321072 0.00263164 0.00370667)
(0.00353346 0.00287691 0.00395079)
(0.00348212 0.00252272 0.00393496)
(0.00353842 0.00239955 0.00398178)
(0.00336184 0.00201112 0.00395235)
(0.00328291 0.00181759 0.00397234)
(0.00311436 0.00154205 0.00396618)
(0.00300739 0.00139815 0.00398499)
(0.00288037 0.0012404 0.00399545)
(0.00278169 0.00115394 0.00401747)
(0.00268646 0.00108013 0.00403671)
(0.00260721 0.00104062 0.00406012)
(0.00253638 0.00101163 0.00408264)
(0.00247396 0.000995269 0.00410587)
(0.00241742 0.000984012 0.00412812)
(0.00236674 0.00097385 0.00415013)
(0.00232157 0.000962825 0.00417197)
(0.00228094 0.000936733 0.00419278)
(0.00225104 0.000926068 0.00421258)
(0.00221671 0.000852335 0.00423084)
(0.00221408 0.000872056 0.00424854)
(0.002185 0.000707131 0.00426083)
(0.00223652 0.00082977 0.00426994)
(0.00221834 0.000532672 0.00425943)
(0.00234157 0.000879977 0.00423164)
(0.00231099 0.000426231 0.00415553)
(0.00248151 0.00117423 0.00404862)
(0.00244139 0.000553711 0.00389562)
(0.00275001 0.00184425 0.00375929)
(0.0028983 0.00084558 0.00369272)
(0.0033265 0.00242717 0.00370777)
(0.00318935 0.000431062 0.00379683)
(0.0031809 0.00219176 0.0039648)
(0.0034005 -0.000439999 0.00408994)
(0.00366666 0.00274314 0.00390125)
(0.00384977 -0.000296727 0.00399355)
(0.00827717 0.000874532 0.00437725)
(0.0205649 -0.0110625 0.00427434)
(0.04108 -0.00900057 0.00771547)
(0.057613 -0.0121631 0.0192431)
(0.0673208 0.00628598 0.0298135)
(0.0725762 -0.00306017 0.033377)
(0.0700174 0.0397898 0.0547645)
(0.0711681 -0.0207858 0.0651287)
(0.0478286 0.109268 0.112608)
(0.0785804 -0.15571 0.133369)
(-0.0696689 0.328618 -0.0036751)
(0.0353889 -0.0732505 0.0314369)
(0.122317 0.498077 0.113749)
(0.0333664 0.614835 0.0160617)
(0.0235866 0.545484 0.0142101)
(0.00594681 0.606421 -0.00115846)
(0.00886216 0.594885 0.00604086)
(0.00387647 0.611058 0.0058204)
(0.00671733 0.60786 0.0066843)
(0.00665504 0.611863 0.00521887)
(0.0091588 0.606067 0.00442534)
(0.00986356 0.602139 0.0034899)
(0.0101393 0.591254 0.003367)
(0.00915472 0.583989 0.00365841)
(0.00792218 0.574403 0.00428744)
(0.00553163 0.561967 0.00513092)
(0.00337871 0.545519 0.00614787)
(0.000373319 0.521602 0.0068383)
(-0.00170533 0.499442 0.00794006)
(-0.0040572 0.475501 0.00911275)
(-0.00536822 0.447116 0.0109711)
(-0.00634476 0.423608 0.0126693)
(-0.00868214 0.40695 0.0147152)
(-0.0114477 0.379424 0.0163841)
(-0.0135372 0.334169 0.0168258)
(-0.0160197 0.295506 0.0145668)
(-0.0171672 0.263621 0.010826)
(-0.0174863 0.248362 0.00684222)
(-0.0146341 0.231312 0.00497993)
(-0.0113734 0.212695 0.00347119)
(-0.00809087 0.18922 0.00244048)
(-0.0060734 0.166262 0.00384767)
(-0.00495044 0.144532 0.0067221)
(-0.00349759 0.115506 0.00844102)
(-0.0018192 0.096983 0.0102802)
(0.000155351 0.0679844 0.01363)
(-0.000383671 0.0384525 0.0158842)
(-0.00461714 0.0189894 0.0141224)
(0.0193298 0.0221478 0.00599777)
(0.0282737 0.0209374 0.00637253)
(0.0152341 0.0106858 0.00154477)
(0.0210174 0.0150503 0.00280584)
(0.0141511 0.00550574 0.000634294)
(0.0157127 0.00863974 0.000450156)
(0.00918943 0.00242976 -0.000342613)
(0.00691558 0.0043236 0.000397974)
(0.00261509 0.000838206 0.00126532)
(0.00192069 0.00214608 0.00204919)
(0.00135626 0.000783421 0.00234847)
(0.00173825 0.00170249 0.00319861)
(0.00172274 0.00163541 0.00358967)
(0.00211937 0.00233249 0.00400148)
(0.00211625 0.00213175 0.00407108)
(0.00218028 0.00219495 0.00419716)
(0.00198244 0.00188065 0.00419062)
(0.00187888 0.00179441 0.00422133)
(0.00168753 0.00157312 0.00419312)
(0.00157026 0.00148843 0.00418367)
(0.00143942 0.00136365 0.00415466)
(0.00134447 0.00130608 0.00413612)
(0.00125797 0.0012472 0.00411471)
(0.0011902 0.0012189 0.00409937)
(0.00113448 0.00119762 0.00408589)
(0.00108944 0.00118735 0.00407642)
(0.00105289 0.00118134 0.00406969)
(0.00102424 0.00117639 0.00406623)
(0.00100165 0.00117131 0.00406524)
(0.000986241 0.00115588 0.00406765)
(0.000982732 0.00115522 0.00407365)
(0.000981078 0.00110901 0.00408038)
(0.00101007 0.00115303 0.00409039)
(0.00101874 0.00105217 0.00409296)
(0.00109948 0.00123092 0.00408983)
(0.0011135 0.00104934 0.00406166)
(0.00125118 0.00147967 0.00400897)
(0.00123026 0.00116434 0.00390233)
(0.001397 0.00195422 0.00376143)
(0.00135709 0.0013846 0.00358691)
(0.00166172 0.00258539 0.00344246)
(0.00179585 0.00157378 0.0033836)
(0.00230349 0.00310494 0.00346317)
(0.00217824 0.000978729 0.00363106)
(0.00217283 0.00243348 0.00371655)
(0.00191237 -0.000359199 0.00359915)
(0.00230881 0.00284142 0.00371927)
(0.00333355 -0.0015322 0.00518735)
(0.00968194 -0.0021214 0.00593004)
(0.0222084 -0.013209 0.00699482)
(0.0373856 -0.0035237 0.0130793)
(0.0454248 0.00260318 0.0262349)
(0.0533398 0.0251864 0.0386149)
(0.055638 0.0186231 0.0456434)
(0.0516866 0.0609425 0.0656587)
(0.0481882 -0.00712165 0.068865)
(0.0421273 0.109541 0.0913874)
(0.0559791 -0.135041 0.0850182)
(0.00570976 0.370452 0.0363426)
(0.0253777 -0.0816511 0.0347866)
(0.0641738 0.541038 0.100723)
(0.00547473 0.646435 0.00488884)
(0.00106552 0.60642 0.00837527)
(-0.0112959 0.661836 5.8056e-05)
(-0.00634845 0.659059 0.00947719)
(-0.00543749 0.673441 0.0100863)
(0.000662593 0.670417 0.011312)
(0.00517213 0.674608 0.0104341)
(0.0102355 0.671212 0.0102942)
(0.0139237 0.669847 0.00952703)
(0.016533 0.659959 0.00926566)
(0.0170713 0.652328 0.0091291)
(0.0169365 0.64687 0.00898678)
(0.014989 0.642437 0.00926336)
(0.012886 0.634941 0.00982572)
(0.00974798 0.630821 0.0101992)
(0.00667807 0.62377 0.0105522)
(0.00292663 0.616482 0.0105628)
(-0.000865159 0.608809 0.0108231)
(-0.00447395 0.598206 0.0113069)
(-0.00847803 0.588329 0.0111811)
(-0.0122459 0.575513 0.0108196)
(-0.0147382 0.559428 0.00885223)
(-0.0163896 0.539199 0.00415304)
(-0.0171327 0.513947 0.000552231)
(-0.0157773 0.486074 -0.000837749)
(-0.0127029 0.450605 -0.000393446)
(-0.00927651 0.408914 0.00102984)
(-0.00693765 0.374225 0.003815)
(-0.00592327 0.349175 0.00669351)
(-0.0053141 0.322178 0.00895021)
(-0.00490094 0.299552 0.0113026)
(-0.00509946 0.278155 0.0142081)
(-0.00570987 0.240633 0.0159344)
(-0.00841873 0.181964 0.0155597)
(-0.0106994 0.140263 0.0101594)
(0.0149917 0.0208789 0.00589613)
(0.027887 0.0246516 0.0082166)
(0.0124857 0.00981747 0.00308232)
(0.0198008 0.0169725 0.00566393)
(0.0125676 0.00404145 0.00311553)
(0.0150419 0.00838988 0.00278686)
(0.00927731 0.000937484 0.00102173)
(0.00753472 0.00405214 0.000546618)
(0.00263071 0.000178313 0.00103383)
(0.00117935 0.00197643 0.00195284)
(-0.000120153 -0.000133318 0.00226642)
(-0.000599926 0.000866484 0.00306193)
(-0.00122207 0.000686863 0.00346192)
(-0.000900442 0.00168407 0.00406142)
(-0.000883795 0.00154015 0.00429871)
(-0.000823193 0.00181475 0.00452809)
(-0.00111025 0.00161526 0.00453455)
(-0.00129491 0.00169609 0.0045564)
(-0.00156751 0.00157685 0.00449701)
(-0.00173284 0.0015961 0.00446197)
(-0.00189656 0.00153456 0.00440099)
(-0.00200521 0.00153108 0.00435499)
(-0.00209484 0.0015057 0.00430856)
(-0.00215512 0.00150205 0.00427415)
(-0.00219686 0.00149587 0.00424506)
(-0.00222344 0.00149546 0.00422429)
(-0.00223877 0.00149604 0.00420976)
(-0.0022424 0.00149739 0.00420243)
(-0.00223719 0.00149961 0.00420135)
(-0.00222269 0.00149689 0.0042059)
(-0.00220105 0.00151285 0.00421655)
(-0.00217743 0.00150194 0.00423031)
(-0.00213598 0.0015808 0.00424799)
(-0.00211592 0.00154921 0.00425902)
(-0.00203349 0.00177834 0.00427086)
(-0.0020077 0.00168457 0.00426384)
(-0.00184558 0.00214183 0.00425171)
(-0.00180327 0.00186435 0.00419971)
(-0.00154458 0.00255934 0.00412802)
(-0.00149796 0.00188524 0.00398827)
(-0.00112893 0.00284371 0.00384337)
(-0.00101216 0.00163966 0.00366652)
(-0.000400017 0.00302529 0.00362635)
(-0.000301637 0.000954279 0.00364237)
(-0.000138515 0.00246103 0.00356984)
(-0.000666492 -0.000133285 0.00313812)
(0.000373829 0.0025736 0.00329332)
(0.00268797 -0.00342903 0.00532749)
(0.0097412 -0.00622856 0.00648926)
(0.019995 -0.0114958 0.00891127)
(0.0238925 0.00952913 0.0172823)
(0.0256793 0.0234711 0.0297113)
(0.0294141 0.0511732 0.0424166)
(0.0295264 0.0528117 0.052682)
(0.0377086 0.0886698 0.0686518)
(0.036987 0.0205617 0.0698792)
(0.0518086 0.126911 0.0843632)
(0.0407266 -0.132585 0.0685751)
(0.0116184 0.34695 0.0666932)
(0.00684686 -0.063251 0.0327687)
(0.00455301 0.565548 0.0835863)
(-0.0197634 0.662182 0.00328042)
(-0.0188079 0.635953 0.00547405)
(-0.0204167 0.686998 0.0015759)
(-0.0115214 0.677024 0.0116799)
(-0.00464246 0.688478 0.0113303)
(0.00249397 0.683256 0.012293)
(0.00881614 0.686162 0.0116401)
(0.0134588 0.682437 0.0125962)
(0.0174485 0.680529 0.012644)
(0.0206061 0.676826 0.012979)
(0.0225072 0.668886 0.0132097)
(0.0231816 0.66683 0.0135604)
(0.0220077 0.662744 0.0133143)
(0.0199395 0.65773 0.0133669)
(0.0166584 0.648999 0.0123808)
(0.0129565 0.638688 0.0117285)
(0.00851937 0.629136 0.0108187)
(0.00437059 0.625629 0.0106407)
(0.000421607 0.62272 0.0107292)
(-0.00254998 0.61846 0.00994641)
(-0.00526917 0.616335 0.00766513)
(-0.00706201 0.621606 0.00361459)
(-0.00894278 0.617744 -0.00106071)
(-0.00990225 0.60718 -0.00447472)
(-0.0101458 0.588953 -0.00614617)
(-0.00935282 0.573258 -0.00574826)
(-0.0079133 0.555158 -0.00393676)
(-0.00596609 0.522776 -0.00119867)
(-0.00482629 0.507767 0.0016793)
(-0.00478442 0.495594 0.0029327)
(-0.00550736 0.476038 0.00464798)
(-0.00636781 0.444241 0.00638666)
(-0.00874821 0.392319 0.0076983)
(-0.0131441 0.31428 0.006946)
(-0.0191605 0.245999 0.000587479)
(0.0101892 0.0156718 0.00422169)
(0.0263067 0.02823 0.00877272)
(0.00807752 0.00850484 0.00398069)
(0.0166474 0.0194376 0.0075863)
(0.00960043 0.0033596 0.00521442)
(0.0124901 0.00898579 0.00502457)
(0.00716371 -0.000118982 0.00332951)
(0.00649037 0.00386665 0.00210291)
(0.0017239 -0.000593051 0.00195559)
(0.000132417 0.00181138 0.00264263)
(-0.00139632 -0.000665176 0.00306289)
(-0.00203843 0.000506992 0.00378229)
(-0.00269717 -0.000159431 0.0043288)
(-0.00228625 0.000784765 0.00506696)
(-0.00223261 0.000546312 0.00554822)
(-0.00219056 0.00114294 0.00590978)
(-0.00248013 0.00111546 0.00603707)
(-0.00259657 0.00147428 0.00611951)
(-0.00279678 0.00150337 0.00609719)
(-0.0028777 0.00167858 0.00608132)
(-0.0029692 0.00171147 0.00603395)
(-0.00300904 0.00178506 0.00600258)
(-0.00303791 0.00180735 0.0059697)
(-0.00303914 0.00183738 0.00595226)
(-0.00302504 0.00185407 0.00594183)
(-0.00299747 0.00187067 0.00594129)
(-0.00296153 0.00188372 0.00594695)
(-0.00291768 0.00189608 0.00595891)
(-0.00287026 0.00190892 0.0059752)
(-0.00281794 0.00191981 0.00599697)
(-0.00276409 0.00194956 0.00602281)
(-0.00271138 0.001966 0.00605129)
(-0.00264489 0.00206953 0.00608426)
(-0.00259831 0.00208957 0.00611337)
(-0.00248893 0.00234196 0.00614619)
(-0.0024293 0.00230336 0.00616444)
(-0.00222156 0.00275038 0.00618627)
(-0.00212189 0.00250406 0.0061759)
(-0.00177484 0.00314227 0.00615329)
(-0.00165731 0.00247752 0.00604621)
(-0.00125505 0.003333 0.00588562)
(-0.00128011 0.00208603 0.00558866)
(-0.000931929 0.00328884 0.00531424)
(-0.001128 0.00117056 0.0050498)
(-0.00131631 0.00260484 0.00479439)
(-0.00206704 -0.000443146 0.00417362)
(-0.000126504 0.000579205 0.00406)
(0.00400717 -0.00655823 0.00520368)
(0.00837796 -0.00555009 0.00671687)
(0.00414416 0.00326785 0.0151725)
(-0.00310434 0.0310053 0.024903)
(-0.00436445 0.0519656 0.0340365)
(0.000420191 0.0798313 0.0435735)
(0.00944734 0.0924975 0.0528324)
(0.0273703 0.122651 0.0689774)
(0.0450471 0.0920932 0.0772393)
(0.0786428 0.163477 0.101049)
(0.0565518 -0.0564649 0.0938301)
(0.0358525 0.36676 0.0442972)
(-0.0251268 -0.07269 0.0243869)
(-0.0727361 0.588384 0.0481573)
(-0.047307 0.683253 -0.00907487)
(-0.0432679 0.642786 0.00193534)
(-0.0295491 0.683653 5.01865e-05)
(-0.0186206 0.666607 0.00823832)
(-0.00434733 0.674508 0.00617852)
(0.00160605 0.668272 0.00662417)
(0.00906295 0.669437 0.00604788)
(0.013801 0.671777 0.00765069)
(0.0188348 0.672936 0.00960247)
(0.0221108 0.672552 0.0108912)
(0.0246834 0.675214 0.0121552)
(0.0265563 0.674888 0.0134053)
(0.0270466 0.670862 0.0144912)
(0.0264689 0.662836 0.0160006)
(0.0245073 0.657474 0.0168755)
(0.0217859 0.648336 0.0174092)
(0.018294 0.637359 0.0174685)
(0.0144386 0.624036 0.0170005)
(0.0107971 0.611539 0.0158563)
(0.00770557 0.604978 0.0138101)
(0.00536719 0.598315 0.0107041)
(0.00359586 0.592285 0.00752491)
(0.00291528 0.585902 0.00481599)
(0.00266254 0.574367 0.0036534)
(0.00179518 0.5534 0.00230213)
(0.00190738 0.532325 0.00182754)
(0.00228789 0.511978 0.00193953)
(0.00284578 0.497154 0.00370712)
(0.00420577 0.481798 0.00625831)
(0.0038096 0.463671 0.00834889)
(0.00235405 0.452064 0.0103819)
(0.000220074 0.444977 0.00966918)
(-0.00345279 0.442527 0.00575589)
(-0.00697458 0.438053 -0.00438322)
(-0.0121559 0.431657 -0.0237031)
(-0.00109733 0.0118995 -0.0065857)
(0.0236041 0.030861 0.00606685)
(0.00156427 0.00795858 0.00108912)
(0.0120603 0.0227044 0.00526679)
(0.00479014 0.00411778 0.00354864)
(0.0081065 0.010897 0.0034923)
(0.00340995 0.00046703 0.00226314)
(0.00351239 0.00485136 0.000775725)
(-0.000381571 1.32903e-05 -0.000234134)
(-0.00200603 0.00230359 -0.000256613)
(-0.00392903 -0.000585611 3.35255e-05)
(-0.0048279 0.000636585 0.000534826)
(-0.00599313 -0.000627255 0.00112372)
(-0.00587281 0.000274735 0.00178692)
(-0.00629371 2.13049e-05 0.00236465)
(-0.00634979 0.00085427 0.00273675)
(-0.00676474 0.000907154 0.0029809)
(-0.00691034 0.00140763 0.00313702)
(-0.00716056 0.00149757 0.00321231)
(-0.00727487 0.00174498 0.00326923)
(-0.00738599 0.00182232 0.00328921)
(-0.00743803 0.00193481 0.00331171)
(-0.00747182 0.0019851 0.00332585)
(-0.00747921 0.00203364 0.00334819)
(-0.00747016 0.00206309 0.00337347)
(-0.00744588 0.00208909 0.00340428)
(-0.00740904 0.00211054 0.00343797)
(-0.00735945 0.00213141 0.00347442)
(-0.00729997 0.00215395 0.00351199)
(-0.0072356 0.00217743 0.00355014)
(-0.00717617 0.00221636 0.00358702)
(-0.00712061 0.00224597 0.00362314)
(-0.00706403 0.00234842 0.00365809)
(-0.0070245 0.00237654 0.00369319)
(-0.00692433 0.00260796 0.00372939)
(-0.00685804 0.00257766 0.00376647)
(-0.00663539 0.003002 0.00379642)
(-0.00649931 0.00281344 0.00380914)
(-0.00615594 0.00350463 0.00376829)
(-0.00605352 0.00302053 0.00365058)
(-0.00568272 0.00398296 0.00342667)
(-0.00563362 0.00285575 0.00310394)
(-0.00502086 0.00379038 0.00280039)
(-0.00489412 0.00136169 0.00265062)
(-0.00462896 0.00215668 0.00227261)
(-0.0040193 -0.00149857 0.00136545)
(-0.000555265 -0.000720163 0.00178159)
(0.00151583 -0.00505398 0.00152962)
(-0.00501668 0.00295701 0.00296282)
(-0.0176278 0.0124059 0.0123785)
(-0.0308359 0.0284157 0.0236768)
(-0.0314519 0.0396153 0.032206)
(-0.0264319 0.0626401 0.0348864)
(-0.0164 0.0677234 0.0377802)
(-0.00124031 0.106327 0.0514298)
(0.0266273 0.0597228 0.0526284)
(0.0796186 0.1537 0.0738785)
(0.0809865 -0.0284792 0.0860019)
(0.120436 0.391645 0.0297693)
(-0.0466101 -0.0995189 0.0197612)
(-0.127072 0.551526 0.0384592)
(-0.0577691 0.663051 -0.00392045)
(-0.0497601 0.5993 0.00669725)
(-0.0235296 0.640694 0.00585755)
(-0.0165976 0.606829 0.0112612)
(-0.00230198 0.613927 0.00699517)
(-9.39818e-05 0.60267 0.00523123)
(0.00489711 0.607125 0.00320116)
(0.00760711 0.607003 0.0025813)
(0.0113552 0.609916 0.00260867)
(0.0129625 0.609376 0.00219759)
(0.0144805 0.613774 0.00259354)
(0.0156652 0.617141 0.00313532)
(0.0178959 0.625658 0.00484667)
(0.0199332 0.630536 0.00653696)
(0.0210484 0.633249 0.00845982)
(0.0203236 0.630668 0.00873575)
(0.0187906 0.628434 0.00849425)
(0.0165743 0.622583 0.00811603)
(0.0143043 0.616922 0.00726312)
(0.0124196 0.611693 0.00716623)
(0.0106782 0.602147 0.00689221)