/*--------------------------------*- C++ -*----------------------------------*\
| =========                 |                                                 |
| \\      /  F ield         | OpenFOAM: The Open Source CFD Toolbox           |
|  \\    /   O peration     | Version:  2.3.0                                 |
|   \\  /    A nd           | Web:      www.OpenFOAM.org                      |
|    \\/     M anipulation  |                                                 |
\*---------------------------------------------------------------------------*/
FoamFile
{
    version     2.0;
    format      ascii;
    class       volVectorField;
    location    "23";
    object      U.air;
}
// * * * * * * * * * * * * * * * * * * * * * * * * * * * * * * * * * * * * * //

dimensions      [0 1 -1 0 0 0 0];

internalField   nonuniform List<vector> 
6144
(
(0.00805462 0.0147812 -0.00184007)
(0.00826549 -0.000813844 -0.00244266)
(0.00525582 -0.00262971 -0.00296653)
(0.0050287 -0.00465005 -0.00315603)
(0.00313787 -0.00508419 -0.00256169)
(0.00291625 -0.0040642 -0.00181494)
(0.00196383 -0.0037046 -0.00079966)
(0.00181791 -0.00205415 -0.000407087)
(0.00142283 -0.000594599 -0.000218621)
(0.00113799 0.00146061 0.000443572)
(0.00113412 0.00270765 0.000770711)
(0.00134891 0.00330605 0.00129264)
(0.00155168 0.00297471 0.00146941)
(0.00171848 0.00234901 0.00159173)
(0.00182099 0.00155343 0.00123756)
(0.0019291 0.00100119 0.0010298)
(0.00199821 0.000497499 0.000699186)
(0.00206865 0.000252194 0.000503744)
(0.00211968 1.29299e-05 0.00030121)
(0.00214163 -7.6856e-05 0.000210667)
(0.00215123 -0.000164856 0.000152628)
(0.00214895 -0.000180219 0.000137956)
(0.00213859 -0.000192672 0.00014174)
(0.00212466 -0.000185254 0.000163715)
(0.00210622 -0.000174958 0.000197176)
(0.00208594 -0.000162898 0.000237357)
(0.00206508 -0.000151605 0.000283493)
(0.00204401 -0.000146191 0.000335188)
(0.00202249 -0.000134187 0.000388198)
(0.00199942 -0.000143882 0.000438775)
(0.00197876 -0.000109176 0.000496187)
(0.00195196 -0.000164699 0.00053577)
(0.00193845 -4.39458e-05 0.000604386)
(0.00190009 -0.000215419 0.000613475)
(0.00190977 0.00011333 0.000714585)
(0.00184545 -0.000347816 0.000684139)
(0.00187838 0.000370039 0.000852234)
(0.00178891 -0.00060579 0.00077948)
(0.00181801 0.000731576 0.0010366)
(0.00173714 -0.00108135 0.000953819)
(0.001748 0.00102728 0.00126252)
(0.00173636 -0.0019919 0.00127932)
(0.00169226 0.00112977 0.00139241)
(0.00194043 -0.00375975 0.00124574)
(0.00168739 0.00132382 0.000985255)
(0.00218128 -0.00586953 0.000495359)
(0.00189466 0.00297929 -0.000357315)
(0.00201034 -0.00651716 -0.000181628)
(0.00223424 0.00600817 -0.000688269)
(0.00198513 -0.0053554 8.45768e-05)
(0.00461366 0.00938786 -0.000857242)
(0.0034837 -0.0112129 -0.00144632)
(0.00218415 0.013045 -0.00546102)
(0.002057 0.000602611 -0.00617996)
(0.0107717 0.0488915 -0.00337248)
(0.00149153 -0.0367052 -0.00817368)
(0.0107485 0.0709112 0.00074618)
(0.0186701 -0.0609517 -0.0184521)
(-0.0424777 0.0806929 -0.10605)
(0.0326864 0.0723541 -0.0834906)
(0.0754024 0.33347 0.0111027)
(0.0403623 0.343065 -0.0132476)
(0.0449623 -0.155663 -0.00843949)
(0.0399202 -0.20958 -0.00952293)
(0.0361351 -0.213796 -0.00786909)
(0.0280894 -0.221859 -0.00730574)
(0.0219366 -0.227871 -0.0063142)
(0.017904 -0.229323 -0.00548851)
(0.0152302 -0.226707 -0.00480065)
(0.0129977 -0.221426 -0.0043195)
(0.0106826 -0.215104 -0.00402319)
(0.00867665 -0.207761 -0.00383814)
(0.00684221 -0.199704 -0.00381375)
(0.0052343 -0.190321 -0.00377506)
(0.00357264 -0.179137 -0.0036371)
(0.00184313 -0.166152 -0.00337981)
(-0.000150245 -0.151284 -0.00311817)
(-0.00219842 -0.134898 -0.0029682)
(-0.00327401 -0.117054 -0.00321369)
(-0.00380146 -0.0992701 -0.00342125)
(-0.00310831 -0.0835965 -0.00383958)
(-0.00109804 -0.0698472 -0.00436983)
(0.000286509 -0.0610414 -0.00424463)
(0.00322704 -0.0559305 -0.00434643)
(0.00736276 -0.0511422 -0.00526709)
(0.00799036 -0.0459242 -0.00701135)
(0.00571496 -0.0405956 -0.00755019)
(0.00419355 -0.0341558 -0.00620413)
(0.00608522 -0.0306633 -0.00315463)
(0.00709298 -0.0288817 -0.00111583)
(0.00685663 -0.0266145 -0.000552133)
(0.00509138 -0.0229316 -0.00131877)
(0.00464732 -0.0152754 -0.00183844)
(-0.00186691 -0.00775089 -0.00581505)
(-0.00752757 0.0133754 0.0028544)
(-0.00971496 0.0094843 0.0208943)
(0.0174045 0.0196292 0.00310196)
(0.0179637 0.00814623 0.00265618)
(0.0119577 0.00481444 0.000286863)
(0.0109435 0.00193092 0.0015388)
(0.0066869 -0.00160906 0.00242148)
(0.00548461 -0.00251926 0.00307276)
(0.00245192 -0.00370391 0.00373838)
(0.00150823 -0.00193089 0.00327386)
(0.000826736 0.000176373 0.00275669)
(0.00092897 0.00268513 0.00295545)
(0.00144681 0.003816 0.00323417)
(0.00218285 0.0044224 0.00378446)
(0.00273691 0.00401188 0.00400378)
(0.00315808 0.0034943 0.0041751)
(0.00329088 0.00259332 0.00409879)
(0.0034658 0.00192076 0.00405373)
(0.00350916 0.00123664 0.00394378)
(0.00361896 0.000867138 0.00385936)
(0.00368753 0.00050589 0.0037319)
(0.00372217 0.000337148 0.00368776)
(0.00372463 0.000185707 0.00366485)
(0.0037069 0.000124705 0.00368312)
(0.00367238 8.01568e-05 0.00371749)
(0.00362869 6.70677e-05 0.00376961)
(0.00357818 6.48864e-05 0.00383114)
(0.00352534 6.92477e-05 0.00390007)
(0.00347276 7.45113e-05 0.00397275)
(0.00342022 7.58599e-05 0.00404459)
(0.00336902 8.54697e-05 0.00411579)
(0.00331325 7.49752e-05 0.00418088)
(0.00327101 0.000108839 0.00425275)
(0.0031981 5.48088e-05 0.00430655)
(0.00317233 0.00018344 0.00438634)
(0.00306545 9.73219e-06 0.00440867)
(0.00310247 0.000360534 0.0044839)
(0.00293087 -0.000143165 0.00448266)
(0.00304074 0.000651874 0.00459161)
(0.00278768 -0.000478053 0.00455861)
(0.00297718 0.00107265 0.00471946)
(0.00266742 -0.00110303 0.00464645)
(0.0029802 0.00147185 0.00482869)
(0.00272401 -0.00224794 0.00476096)
(0.00313317 0.0018683 0.00481303)
(0.00305466 -0.00400229 0.00467687)
(0.00341065 0.00289671 0.00453085)
(0.00330887 -0.0059807 0.00405181)
(0.00369567 0.0052582 0.00364559)
(0.00316022 -0.00697353 0.00361174)
(0.00368584 0.00699318 0.00304323)
(0.00299905 -0.00741306 0.00405303)
(0.00870898 0.00673979 0.00194182)
(0.00540888 -0.00721707 0.000937799)
(0.000722293 0.0161437 -0.00183263)
(-0.00178286 0.00206871 -0.00184939)
(0.0188301 0.0494174 0.00348377)
(0.0209586 -0.0375222 0.00605606)
(-0.0156628 0.0287725 0.0137276)
(0.00401494 -0.0271157 -0.025964)
(0.0212902 0.161357 -0.0498809)
(0.149454 0.0410433 -0.0306115)
(0.10654 0.337797 0.036713)
(0.0427753 0.388316 0.00175093)
(0.0471056 -0.110807 -0.0124843)
(0.0465376 -0.12349 -0.00385676)
(0.0387452 -0.131584 0.00128938)
(0.0221375 -0.148142 0.00223374)
(0.0106086 -0.15689 0.00203222)
(0.0046306 -0.160037 0.00243975)
(0.00174368 -0.160491 0.00312805)
(-0.000384619 -0.159402 0.00341485)
(-0.00235226 -0.157249 0.00333206)
(-0.00431929 -0.153567 0.00285884)
(-0.00640545 -0.148805 0.00227341)
(-0.00843916 -0.143419 0.00151995)
(-0.0107599 -0.137035 0.000980563)
(-0.0132824 -0.129269 0.000456903)
(-0.0154821 -0.120111 0.000139356)
(-0.0168356 -0.109122 5.53203e-05)
(-0.0168731 -0.0956668 -0.000833405)
(-0.0151048 -0.0818674 -0.00117579)
(-0.0113668 -0.0698184 -0.00234786)
(-0.00506992 -0.0583393 -0.00227036)
(0.0002917 -0.0512043 -0.000896171)
(0.000447848 -0.0440214 -0.00398634)
(-0.00110582 -0.032619 -0.00565009)
(0.00145072 -0.0246318 -0.00192929)
(0.00591437 -0.0223173 0.00284429)
(0.00926391 -0.0227969 0.00616582)
(0.0101476 -0.0255916 0.00832455)
(0.00849053 -0.027934 0.00814448)
(0.00427677 -0.0283213 0.00687377)
(-0.000152202 -0.0245354 0.00349854)
(-0.00571002 -0.0134156 0.000257986)
(-0.0107501 -0.00147658 -0.00449152)
(-0.0160356 0.0174315 0.00787706)
(-0.0169705 0.00989126 0.02444)
(0.0215146 0.0234605 0.00401567)
(0.0227912 0.014647 0.00349825)
(0.0157048 0.0110051 0.00146584)
(0.0145735 0.00854959 0.002655)
(0.0085955 0.00341737 0.00319783)
(0.00626508 0.00156995 0.00378211)
(0.00108492 -0.00132831 0.0049428)
(-0.000631408 -0.000370406 0.00459756)
(-0.00172409 0.000841986 0.00403762)
(-0.00103451 0.00287174 0.00396842)
(-0.000127468 0.00358446 0.00405334)
(0.00103671 0.00421182 0.00442925)
(0.00171103 0.00404688 0.004634)
(0.00234207 0.0039438 0.00478252)
(0.00261036 0.00327499 0.00471306)
(0.00289264 0.00272312 0.00467529)
(0.00288459 0.00202477 0.00460298)
(0.00296985 0.00158545 0.00459859)
(0.00291235 0.00112941 0.0045925)
(0.00288766 0.000893608 0.0046266)
(0.00280905 0.000672227 0.00466119)
(0.00273845 0.000563887 0.00471169)
(0.00265562 0.000480976 0.00476069)
(0.00257672 0.000445817 0.00481522)
(0.00249832 0.00043427 0.00486985)
(0.00242511 0.000439202 0.00492649)
(0.0023559 0.000447051 0.00498467)
(0.00228699 0.000451228 0.005042)
(0.00221984 0.000456811 0.00509705)
(0.00215066 0.000451013 0.00514946)
(0.00209631 0.000467779 0.00520133)
(0.00200355 0.000427495 0.0052414)
(0.00197054 0.000517793 0.00529463)
(0.0018346 0.000357416 0.00532306)
(0.00186794 0.000635289 0.00539943)
(0.00165119 0.000170811 0.00540891)
(0.00179026 0.0008523 0.00551111)
(0.00145137 -0.00021525 0.00549489)
(0.0017648 0.00117749 0.00562936)
(0.00125728 -0.000869225 0.00556969)
(0.00187225 0.00161482 0.005722)
(0.00118941 -0.00167991 0.00559673)
(0.00216904 0.00238759 0.00566661)
(0.0013404 -0.00235455 0.00548459)
(0.00263436 0.00406481 0.00548152)
(0.00151742 -0.00310458 0.00544645)
(0.00299467 0.00623646 0.00552688)
(0.00176899 -0.00478227 0.00583547)
(0.00330804 0.00722842 0.0054849)
(0.00233563 -0.00641182 0.00563192)
(0.00545623 0.00773144 0.00289096)
(0.0015064 0.00362211 0.00220992)
(-0.00142204 0.0241718 -0.000152698)
(-0.00573667 -0.00830413 -0.00106482)
(0.0326318 0.0365249 0.00308406)
(0.0364079 -0.061113 0.00701334)
(-0.0347542 0.0463276 0.0210602)
(-0.0614094 -0.123706 -0.00918069)
(-0.0401451 0.192237 -0.0878372)
(0.155047 0.0125062 -4.11886e-05)
(0.166681 0.335941 0.0393698)
(0.0988343 0.416706 -0.00374222)
(0.108652 -0.0840821 -0.0132296)
(0.0898567 -0.0646206 0.000370132)
(0.0673438 -0.0825127 0.00523692)
(0.0424472 -0.0956235 0.0082226)
(0.0278526 -0.0998979 0.0101431)
(0.0180619 -0.10268 0.0116358)
(0.0107253 -0.10482 0.0121384)
(0.00542556 -0.10704 0.0113821)
(0.00197775 -0.107712 0.00960769)
(-0.000726116 -0.106503 0.00728989)
(-0.00311749 -0.103115 0.00499136)
(-0.00596009 -0.0984115 0.00283742)
(-0.0097109 -0.0923889 0.00123902)
(-0.0138811 -0.0842156 0.000237566)
(-0.0193378 -0.0750885 -0.000758945)
(-0.0229696 -0.064953 -0.00157266)
(-0.0230201 -0.0556453 0.000297214)
(-0.0215345 -0.0485453 0.00110811)
(-0.0182723 -0.0403614 -0.00513016)
(-0.0137294 -0.0241531 -0.0081015)
(-0.00871245 -0.0110444 -0.0033869)
(-0.00315551 -0.00577435 0.00132006)
(0.00367358 -0.00646843 0.00504108)
(0.0095885 -0.010894 0.00830392)
(0.0133043 -0.0164699 0.0115739)
(0.0139955 -0.0209511 0.0157305)
(0.0123806 -0.0262241 0.0189505)
(0.00808246 -0.0297107 0.0182016)
(-0.00103574 -0.0310264 0.0150687)
(-0.0101955 -0.0277885 0.0102577)
(-0.0175226 -0.0170302 0.00539696)
(-0.0247609 -0.00526827 -0.002039)
(-0.0292751 0.014322 0.00892115)
(-0.0310094 0.00840183 0.0258582)
(0.0248196 0.0264427 0.00369024)
(0.0269167 0.0182572 0.00269514)
(0.0191935 0.0138617 -5.09675e-05)
(0.0197611 0.0131517 0.000440972)
(0.0124403 0.00714507 2.0195e-06)
(0.00889689 0.00457449 0.00170744)
(0.000922496 -0.000590344 0.00412288)
(-0.00228642 -0.000542941 0.00378086)
(-0.00394344 -0.000442093 0.00392922)
(-0.00281002 0.00195084 0.00396907)
(-0.00172407 0.00241158 0.00422872)
(-0.000645536 0.00349651 0.00474286)
(0.000181454 0.00376021 0.00489364)
(0.00087034 0.00400055 0.00496518)
(0.00133692 0.00353946 0.00480817)
(0.00167607 0.0031242 0.00473699)
(0.00167603 0.00244135 0.00463996)
(0.00177521 0.0019816 0.00462471)
(0.00167869 0.00145307 0.0046044)
(0.00163647 0.00114492 0.00463632)
(0.00153088 0.00085161 0.00467336)
(0.00144523 0.000699161 0.00473275)
(0.00133824 0.000592026 0.00478452)
(0.00122901 0.000549285 0.00483555)
(0.00112608 0.000536691 0.00488771)
(0.00103797 0.000548122 0.00494366)
(0.000961607 0.000565415 0.00500173)
(0.000890057 0.00057923 0.00505972)
(0.000820304 0.000588666 0.0051164)
(0.000750279 0.000586949 0.00516924)
(0.000686627 0.000600319 0.00521732)
(0.000599247 0.000570054 0.00525319)
(0.00056006 0.000638958 0.00530194)
(0.000437286 0.000495808 0.00532422)
(0.000470524 0.000731451 0.00539407)
(0.000261414 0.000302762 0.00540113)
(0.000425431 0.000922363 0.00549415)
(7.94759e-05 -6.79996e-05 0.00548561)
(0.000452176 0.001249 0.00559432)
(-8.50833e-05 -0.000586037 0.00555659)
(0.000577211 0.00179116 0.00561934)
(-0.000162032 -0.000978656 0.00555592)
(0.000680761 0.00279305 0.00541762)
(-6.31617e-06 -0.000870881 0.00544069)
(0.00101036 0.00456849 0.00514439)
(0.000468055 -0.000693481 0.00550688)
(0.00188641 0.00645387 0.00524311)
(0.00104004 -0.00137827 0.00568637)
(0.00221922 0.00732023 0.00503674)
(0.000828769 -0.000870794 0.00497373)
(-0.000129386 0.0116343 0.00254149)
(-0.000840774 0.00469561 0.00337771)
(0.00446337 0.0224348 0.000925802)
(-0.00114049 -0.0210841 -0.00335989)
(0.0545396 0.00223184 0.0121048)
(0.0277465 -0.0767257 0.0129764)
(-0.00990139 0.0328362 0.0227326)
(-0.0892394 -0.139481 0.0143919)
(0.00221019 0.213146 -0.161446)
(0.181973 -0.0229683 0.0162552)
(0.191628 0.358028 0.041008)
(0.123944 0.426704 -0.0111437)
(0.131349 -0.0461892 -0.00764841)
(0.0742715 0.0152862 -0.00180503)
(0.0458976 -0.0324862 0.00576783)
(0.0240368 -0.0313551 0.0103159)
(0.0100005 -0.0416008 0.0137801)
(0.000437812 -0.0491361 0.0145265)
(-0.00635986 -0.0530626 0.0124538)
(-0.0102825 -0.0544729 0.00891897)
(-0.011762 -0.0527542 0.00513593)
(-0.0122753 -0.0488126 0.00158754)
(-0.0128674 -0.0425134 -0.00105969)
(-0.0154303 -0.0366047 -0.00203356)
(-0.0181326 -0.0303038 -0.00111341)
(-0.0206249 -0.0234326 0.00115763)
(-0.0248805 -0.0185219 0.00128782)
(-0.0292631 -0.0127866 -0.00361828)
(-0.0306782 0.00112562 -0.00833866)
(-0.0275414 0.0118123 -0.00835582)
(-0.0210599 0.0193761 -0.00456524)
(-0.011864 0.0222259 0.00249897)
(-0.00251826 0.0198316 0.00871326)
(0.00420688 0.0149443 0.0132449)
(0.0081079 0.00892869 0.0169022)
(0.00951069 0.00218916 0.0202573)
(0.00798804 -0.0049697 0.0239202)
(0.00372298 -0.0136508 0.0273367)
(-0.00262793 -0.0212405 0.0277652)
(-0.00970201 -0.0265898 0.0217335)
(-0.0186249 -0.0290311 0.0121809)
(-0.0273382 -0.0257834 0.00455443)
(-0.0333414 -0.0168526 0.00107199)
(-0.0383198 -0.00656366 -0.00467015)
(-0.0423887 0.0134179 0.00752365)
(-0.0427956 0.0068523 0.0265651)
(0.0275747 0.0285173 0.003658)
(0.0306455 0.0213792 0.00291476)
(0.0215565 0.0152752 -0.000560795)
(0.0233529 0.015985 -0.000614827)
(0.0178855 0.0102406 -0.00255801)
(0.0152097 0.00974314 -0.00091018)
(0.00416079 0.00178534 0.000139173)
(-0.000786707 0.000881346 0.00148408)
(-0.00518071 -0.0014951 0.00271124)
(-0.00502541 0.000484205 0.00348316)
(-0.00400267 0.00078284 0.00409528)
(-0.00316879 0.00255103 0.00482541)
(-0.00227796 0.00333839 0.00490387)
(-0.00141546 0.00390473 0.00491293)
(-0.000706051 0.00362882 0.00461387)
(-0.000331771 0.00326658 0.00451124)
(-0.000363012 0.00260688 0.00438389)
(-0.00036477 0.00216851 0.00437607)
(-0.00056286 0.00164605 0.00432915)
(-0.000692178 0.00131353 0.00433542)
(-0.000884319 0.000981782 0.00433109)
(-0.00103832 0.000788822 0.00434548)
(-0.0011906 0.000645572 0.00436128)
(-0.00131965 0.000579249 0.00438846)
(-0.00143106 0.000554215 0.0044194)
(-0.00151901 0.000559339 0.00445626)
(-0.00158791 0.000575123 0.0044958)
(-0.00164755 0.000592005 0.0045363)
(-0.00170511 0.000606361 0.00457681)
(-0.00176318 0.000611359 0.00461511)
(-0.0018183 0.000625208 0.00464995)
(-0.001886 0.00059705 0.00467349)
(-0.00191327 0.000650637 0.00470706)
(-0.00201189 0.000510738 0.00470519)
(-0.00196701 0.000723455 0.00475954)
(-0.00215206 0.000301779 0.00473324)
(-0.00197293 0.000902235 0.00482677)
(-0.00229676 -3.35354e-05 0.00478106)
(-0.00193417 0.00127452 0.00489307)
(-0.00243204 -0.000366698 0.00482829)
(-0.00191964 0.00195891 0.00485043)
(-0.00249931 -0.000370538 0.00480265)
(-0.00206305 0.00315267 0.00453559)
(-0.00237908 0.000199346 0.00469171)
(-0.00202978 0.00498634 0.0041347)
(-0.00185913 0.000850049 0.00472843)
(-0.00134632 0.00693073 0.00404522)
(-0.00107613 0.000536798 0.00449484)
(-0.00123599 0.00846368 0.00337326)
(-0.00155032 0.000739449 0.00294149)
(-0.00321226 0.0128675 0.000743468)
(-0.000972079 -0.00167791 0.00261067)
(0.0150373 0.0197269 0.000869502)
(0.0264571 -0.0304576 0.00797339)
(0.0636102 -0.0289339 0.024414)
(0.035372 -0.0854587 0.0328478)
(-0.0262935 -0.0350695 0.068426)
(-0.124319 -0.155072 0.0714425)
(0.0266107 0.147285 -0.147842)
(0.149352 -0.0340438 0.0455762)
(0.185434 0.411611 0.0453148)
(0.108203 0.580579 -0.0154823)
(0.107587 0.50209 0.00233589)
(0.0736821 0.518659 0.00650566)
(0.0478263 0.33831 0.0184833)
(0.0318969 0.0453854 0.012023)
(0.0151642 0.00604809 0.0123638)
(0.00283073 -0.00606574 0.0101036)
(-0.00480138 -0.0152838 0.00605781)
(-0.00848073 -0.0178927 0.000696544)
(-0.0089426 -0.0147352 -0.00430719)
(-0.00826245 -0.00695109 -0.00706929)
(-0.00954916 0.00382457 -0.00749389)
(-0.0140704 0.0145946 -0.00703312)
(-0.0209656 0.0277431 -0.00793008)
(-0.0271765 0.0433415 -0.0062376)
(-0.0313557 0.0526138 -0.00408325)
(-0.0323663 0.058143 -0.00200543)
(-0.028798 0.0622672 0.00266731)
(-0.0227265 0.0608544 0.0081774)
(-0.0158741 0.0579811 0.0134303)
(-0.00923283 0.0530525 0.017553)
(-0.0044976 0.0468368 0.0203273)
(-0.00146733 0.0395002 0.0223351)
(0.000143133 0.0312168 0.0241359)
(0.000740849 0.0214852 0.0258044)
(-0.000536927 0.0105739 0.0267648)
(-0.00486941 -0.0022259 0.0247365)
(-0.0109356 -0.014936 0.0156566)
(-0.0153587 -0.0193043 0.00429021)
(-0.0209228 -0.0175394 -0.00158604)
(-0.0294162 -0.0126292 -0.0050548)
(-0.0392635 -0.00387789 -0.00700178)
(-0.0506791 0.00801078 -0.00662427)
(-0.0537904 0.0196622 0.00886835)
(-0.0551144 0.00793611 0.0251043)
(0.0284455 0.0297254 0.00623504)
(0.0340039 0.02512 0.00466159)
(0.0232364 0.0163391 0.000700708)
(0.0251141 0.0175726 0.00110878)
(0.0202266 0.0100731 -0.00222118)
(0.0198229 0.0108638 -0.000383417)
(0.0112105 0.00278338 -0.00330373)
(0.00359954 0.00232168 -0.00164775)
(-0.0033607 -0.00143618 0.000915318)
(-0.00521198 -0.000468954 0.00228555)
(-0.00546286 -0.00100328 0.00340303)
(-0.0051583 0.00112926 0.0044274)
(-0.00377459 0.00236844 0.00464553)
(-0.0025906 0.00350967 0.00486759)
(-0.00150654 0.00337357 0.00468868)
(-0.00104792 0.00304192 0.00472243)
(-0.00108714 0.00238226 0.00459946)
(-0.00117754 0.00203067 0.00461972)
(-0.00143069 0.00160615 0.00452882)
(-0.00160059 0.00137485 0.00448364)
(-0.00181945 0.00112819 0.0043882)
(-0.00199461 0.00099297 0.00430153)
(-0.00215596 0.000878183 0.0042155)
(-0.00228613 0.000820625 0.00414851)
(-0.00238887 0.000792796 0.0040949)
(-0.00245905 0.000791062 0.00405917)
(-0.00250503 0.000801616 0.00403682)
(-0.00253871 0.000817842 0.00402503)
(-0.00256637 0.000835858 0.0040224)
(-0.00259082 0.000848711 0.00402466)
(-0.00261243 0.000866379 0.00402967)
(-0.00264342 0.000848725 0.00402951)
(-0.00264985 0.000904287 0.00403832)
(-0.00271847 0.000778965 0.0040096)
(-0.00264411 0.000991821 0.00405178)
(-0.00281259 0.000599576 0.0039814)
(-0.0026063 0.0012024 0.00408537)
(-0.00294057 0.000361786 0.00396176)
(-0.00258886 0.00164727 0.00410673)
(-0.00307929 0.00022928 0.00394886)
(-0.00273037 0.00243451 0.00399045)
(-0.00315575 0.000418065 0.00386804)
(-0.00322437 0.00363869 0.00354949)
(-0.00304781 0.000843871 0.00372954)
(-0.00355069 0.00516402 0.0031253)
(-0.00244292 0.000966429 0.00393118)
(-0.00281946 0.00673592 0.00360247)
(-0.00162852 0.000330887 0.00424322)
(-0.00241747 0.00836823 0.00355753)
(-0.00208109 -0.000299418 0.0025518)
(-0.00220059 0.0109267 0.000201845)
(-0.000739753 -0.00599769 -5.96766e-05)
(0.019079 0.0166642 0.00220516)
(0.0419315 -0.0302376 0.0235179)
(0.0567913 -0.0189764 0.0620423)
(0.0242065 -0.0576418 0.0692264)
(-0.0235974 -0.0356326 0.116858)
(-0.0844929 -0.158147 0.11809)
(0.0446343 0.0978607 -0.137887)
(0.103783 -0.0145689 0.0541341)
(0.159741 0.456942 0.0469404)
(0.0909315 0.596411 -0.0155507)
(0.102364 0.545282 -0.000809008)
(0.0745038 0.601317 0.000709827)
(0.0497482 0.574811 0.00416423)
(0.0296365 0.582982 0.0036025)
(0.015165 0.555687 0.00123311)
(0.00458179 0.550015 -0.00242591)
(0.000239382 0.546624 -0.00504573)
(-0.00660336 0.551857 -0.00762286)
(-0.0103149 0.556584 -0.00575838)
(-0.0145243 0.556665 -0.00194174)
(-0.0194358 0.583723 0.00148299)
(-0.0246442 0.582268 0.00432382)
(-0.0289564 0.593601 0.00753416)
(-0.0300267 0.600052 0.0106251)
(-0.030686 0.591129 0.0131668)
(-0.0290753 0.58965 0.0156079)
(-0.0269326 0.587803 0.0159981)
(-0.0231968 0.583718 0.0154683)
(-0.0194434 0.576822 0.0137617)
(-0.015483 0.569889 0.0115823)
(-0.0127182 0.562751 0.00962226)
(-0.0106859 0.544841 0.00787705)
(-0.00984518 0.516345 0.00641772)
(-0.010034 0.437614 0.00450365)
(-0.011287 0.2205 0.002509)
(-0.0145974 0.0439718 -0.000286029)
(-0.0194011 0.0107139 -0.00383112)
(-0.022324 0.00920369 -0.00612076)
(-0.0271111 0.0143857 -0.00677514)
(-0.0367839 0.0197345 -0.00842434)
(-0.0474554 0.0235536 -0.00776647)
(-0.053276 0.0248794 -0.00282941)
(-0.0521186 0.0226448 0.0119911)
(-0.0571473 0.00998113 0.0231812)
(0.0262214 0.0308259 0.0074063)
(0.0346064 0.0297224 0.0092253)
(0.0225731 0.0166105 0.00408948)
(0.0239307 0.0194721 0.00706616)
(0.019435 0.00708028 0.00302034)
(0.0201148 0.00948901 0.00402792)
(0.015165 0.00198433 -0.0011059)
(0.0072514 0.00219714 -0.00302764)
(-0.000678531 -0.00151054 -0.00117345)
(-0.00443549 1.98669e-05 0.00111448)
(-0.00627956 -0.0017277 0.0024198)
(-0.00743722 0.000162657 0.00365062)
(-0.00683561 0.00135779 0.00423192)
(-0.00524555 0.00282766 0.00511898)
(-0.0037964 0.00271488 0.0054177)
(-0.00341238 0.00253762 0.00569391)
(-0.00364695 0.00202097 0.00556975)
(-0.00403056 0.00184414 0.005521)
(-0.00444529 0.00159132 0.00534024)
(-0.00472534 0.00151542 0.00521357)
(-0.00497877 0.00139952 0.00502703)
(-0.00513506 0.00135905 0.0048644)
(-0.00525998 0.00130532 0.00471625)
(-0.00534447 0.00128988 0.00460783)
(-0.00539267 0.00128631 0.00452866)
(-0.00540593 0.00129873 0.00447788)
(-0.00539533 0.0013159 0.00445107)
(-0.00537718 0.00133215 0.00444509)
(-0.00536195 0.00135127 0.00445183)
(-0.00534258 0.00136943 0.00445811)
(-0.00532975 0.00138878 0.00446112)
(-0.00532162 0.00138316 0.00445924)
(-0.00530242 0.00143228 0.00446477)
(-0.00530752 0.00133837 0.00444997)
(-0.00523526 0.00153267 0.00448684)
(-0.00529898 0.00120517 0.00444073)
(-0.00516589 0.00176295 0.0045373)
(-0.00530634 0.00106114 0.00443024)
(-0.00517043 0.00223128 0.00456318)
(-0.00530534 0.0010402 0.00443895)
(-0.00540261 0.00301646 0.00444602)
(-0.00525464 0.00112375 0.00438026)
(-0.00593397 0.00405199 0.00405257)
(-0.00502955 0.000868411 0.00421673)
(-0.0064924 0.00506447 0.00360722)
(-0.00457089 6.1481e-05 0.00430713)
(-0.00636789 0.00593669 0.00413462)
(-0.00413114 -0.000964785 0.00534747)
(-0.00578253 0.00647225 0.00542659)
(-0.00429051 -0.00318226 0.004716)
(-0.00351326 0.00556986 0.00154498)
(-0.00256525 -0.00721396 -0.000766103)
(0.0238799 0.00687065 0.0124683)
(0.029655 -0.0185448 0.0299739)
(0.00306278 0.0148338 0.0601434)
(-0.01117 -0.0266013 0.077055)
(-0.0195293 -0.0164614 0.108113)
(-0.0539219 -0.11808 0.0928761)
(0.0270683 0.0149338 -0.141767)
(0.0496253 0.0377798 0.0536484)
(0.0829564 0.537176 0.0476349)
(0.0530965 0.631373 -0.00718736)
(0.0699482 0.556988 0.000578581)
(0.0678159 0.676962 0.00380097)
(0.0592437 0.689781 0.00572216)
(0.0451895 0.689832 0.00610588)
(0.0349239 0.658272 0.00617892)
(0.0190995 0.674947 0.00549558)
(0.00743912 0.671589 0.00538999)
(-0.00473901 0.674026 0.00577399)
(-0.0119221 0.616266 0.00673292)
(-0.0193927 0.647278 0.00854865)
(-0.0257645 0.617293 0.0100615)
(-0.029863 0.649865 0.0119604)
(-0.032638 0.640008 0.0132459)
(-0.0356584 0.657189 0.0137551)
(-0.0350897 0.674918 0.0127442)
(-0.0330468 0.661298 0.0104396)
(-0.028662 0.633018 0.00647648)
(-0.0232247 0.625794 0.00267639)
(-0.0186748 0.608703 0.000396882)
(-0.0147859 0.623546 -0.00135252)
(-0.0101235 0.627995 -0.00304894)
(-0.00184972 0.608761 -0.00533824)
(0.00357531 0.594728 -0.0067775)
(0.00798109 0.556691 -0.00752762)
(0.0088325 0.585193 -0.00753087)
(0.00325648 0.546925 -0.00755652)
(-0.00392013 0.368611 -0.00968537)
(-0.00793837 0.0803233 -0.0104759)
(-0.0181171 0.0467621 -0.00888778)
(-0.0257869 0.0430968 -0.00631743)
(-0.0356193 0.0595195 -0.00457722)
(-0.0468378 0.447564 0.0070872)
(-0.0531462 0.467562 0.0167493)
(-0.0577669 0.469189 0.0200664)
(0.0228311 0.0276155 0.00453962)
(0.0324607 0.0335554 0.0098555)
(0.0186736 0.0173542 0.00621343)
(0.0203026 0.0222159 0.0104627)
(0.0154769 0.00640764 0.00669944)
(0.0155742 0.00891256 0.00689581)
(0.0138127 0.000886257 0.00356703)
(0.00868686 0.00214656 -0.00144244)
(0.000357555 -0.00266268 -0.0019171)
(-0.00371917 -0.000443611 0.000605879)
(-0.00557421 -0.00174655 0.00197205)
(-0.00765869 -0.000606589 0.00336441)
(-0.0072214 -0.000794391 0.00453369)
(-0.00559294 0.000230145 0.00596735)
(-0.00392066 0.000176431 0.00698866)
(-0.00368056 0.000796235 0.00778625)
(-0.00386399 0.000912974 0.00805614)
(-0.00419259 0.00133484 0.00815197)
(-0.00447726 0.00145327 0.00802475)
(-0.00464777 0.00171718 0.00788459)
(-0.00481401 0.00183548 0.00765262)
(-0.00492401 0.00194455 0.00744155)
(-0.00501934 0.00196188 0.00724941)
(-0.00507567 0.00197401 0.00710051)
(-0.00509563 0.00196985 0.00698733)
(-0.00507822 0.00196367 0.00690645)
(-0.00503709 0.00195809 0.00684582)
(-0.00498037 0.00195832 0.00680197)
(-0.00492343 0.00196024 0.00676878)
(-0.00486855 0.00196189 0.00674207)
(-0.00482089 0.00196779 0.00671893)
(-0.00477456 0.00196004 0.00670048)
(-0.00473539 0.00199596 0.00668386)
(-0.00469908 0.00192679 0.00665546)
(-0.00463461 0.00212106 0.00664885)
(-0.00465001 0.00184872 0.00657259)
(-0.00459232 0.00240112 0.00657854)
(-0.00466935 0.00176019 0.00642079)
(-0.00469752 0.0028888 0.00644267)
(-0.00470997 0.00167316 0.00622995)
(-0.00500456 0.00359001 0.00623788)
(-0.00456359 0.0013728 0.00598695)
(-0.00555672 0.00438423 0.00591468)
(-0.00410333 0.000166886 0.00577359)
(-0.00623497 0.00492416 0.00571165)
(-0.00340813 -0.00172329 0.00606556)
(-0.00625859 0.0050888 0.00666837)
(-0.00264584 -0.00298956 0.00781887)
(-0.00474303 0.00516281 0.00977843)
(-0.0015271 -0.00369815 0.00935677)
(-0.00256374 0.00329977 0.00897691)
(0.000956587 -0.0041621 0.0111192)
(0.00454796 0.00304211 0.031651)
(-0.00591243 0.0196932 0.042185)
(-0.017088 0.0424147 0.0581224)
(-0.0172416 -0.00205209 0.0718924)
(0.00650285 0.0211161 0.1176)
(0.034708 -0.0790053 0.070776)
(-0.0117565 -0.00839231 -0.125922)
(-0.00611749 0.055982 0.0637589)
(-0.015803 0.560994 0.0566677)
(0.0109896 0.638411 -0.00349908)
(0.0285016 0.662384 0.00734948)
(0.0465798 0.707528 0.00745735)
(0.04763 0.720552 0.0111821)
(0.0462692 0.716451 0.011989)
(0.0347006 0.743805 0.0126778)
(0.0288687 0.772392 0.0123842)
(0.0177075 0.736306 0.0121838)
(0.00288256 0.746812 0.0113848)
(-0.0054632 0.736812 0.0107433)
(-0.0155988 0.73626 0.0098061)
(-0.0212019 0.727933 0.00913085)
(-0.0238937 0.726218 0.00848895)
(-0.0254167 0.717214 0.00844165)
(-0.0259806 0.712796 0.00755638)
(-0.0252765 0.706539 0.00695712)
(-0.0229417 0.702446 0.0060403)
(-0.0197781 0.692197 0.0061471)
(-0.0147916 0.684626 0.00686051)
(-0.0090254 0.679597 0.0074411)
(-0.00308692 0.673534 0.00736543)
(0.00341959 0.673559 0.0070607)
(0.00758151 0.668476 0.00577175)
(0.0119204 0.662588 0.00330277)
(0.0144705 0.666415 0.00238239)
(0.015132 0.662609 0.00172269)
(0.0127275 0.663065 0.00220587)
(0.00602618 0.652257 0.00419615)
(-0.00451933 0.656625 0.00515897)
(-0.012613 0.617879 0.0058477)
(-0.0240442 0.607461 0.00548704)
(-0.0290932 0.576745 0.00468619)
(-0.0367928 0.577819 0.00208213)
(-0.046132 0.524439 -0.00672603)
(-0.0536511 0.500679 -0.0247856)
(0.0130793 0.0217987 -0.0115098)
(0.0299381 0.0342729 0.00700078)
(0.0113222 0.0191969 0.00512)
(0.0150277 0.0270607 0.00803305)
(0.0106276 0.0119105 0.00578551)
(0.0109857 0.0118755 0.0062657)
(0.00954129 0.00222835 0.004474)
(0.00627023 0.0025213 0.000515701)
(-2.6181e-05 -0.00234965 -0.00296099)
(-0.00473444 -0.000768929 -0.00277624)
(-0.00600915 -0.00220341 -0.00173107)
(-0.00745229 -0.00151226 -0.00041299)
(-0.00828707 -0.00253019 0.000967176)
(-0.00803069 -0.00169801 0.00231984)
(-0.00781304 -0.00135971 0.00362728)
(-0.00805862 -0.000151422 0.00449142)
(-0.00856428 0.000313825 0.0050433)
(-0.0089233 0.00103098 0.00531612)
(-0.00928433 0.00131009 0.00540839)
(-0.0095159 0.00169103 0.0054232)
(-0.00957356 0.00188729 0.00536604)
(-0.00951492 0.00208659 0.00529985)
(-0.00944676 0.00218288 0.00522906)
(-0.00936955 0.00224439 0.00517489)
(-0.00928121 0.00227094 0.00513509)
(-0.00917622 0.00228386 0.00510891)
(-0.00905824 0.00228955 0.00508884)
(-0.00892848 0.00229526 0.00507493)
(-0.00879393 0.00230284 0.00506509)
(-0.00865421 0.00231261 0.00505746)
(-0.00851689 0.00232703 0.00504923)
(-0.00837664 0.00233196 0.00503761)
(-0.0082675 0.00236433 0.00501997)
(-0.00816095 0.0023212 0.00499345)
(-0.00808769 0.00249965 0.00496681)
(-0.00796144 0.00229406 0.00490799)
(-0.00798026 0.00280318 0.0048572)
(-0.0077572 0.00223935 0.00474555)
(-0.00798656 0.00330676 0.00468126)
(-0.00749676 0.00209263 0.0045206)
(-0.00813802 0.00407194 0.00447682)
(-0.00716592 0.00151622 0.00421518)
(-0.00825115 0.00475598 0.00428242)
(-0.00653499 -0.000244002 0.00398753)
(-0.00865786 0.00492355 0.00423384)
(-0.00583795 -0.00293743 0.00432249)
(-0.00916688 0.00497382 0.00511477)
(-0.00514916 -0.00462457 0.00615113)
(-0.00790264 0.00573756 0.00869652)
(-0.00280159 -0.00490587 0.00762226)
(-0.00698297 0.00641637 0.00998004)
(-0.00375165 -0.00998974 0.00815466)
(-0.0247773 0.00905285 0.0202621)
(-0.0401884 -0.0218473 0.0367425)
(-0.0391865 0.00349679 0.0642138)
(-0.0242334 -0.0482273 0.0700317)
(0.00746445 -0.0127061 0.115411)
(0.0998624 -0.151587 0.0856203)
(-0.0383841 0.0891417 -0.140416)
(-0.0641578 -0.0164389 0.0478773)
(-0.118833 0.505296 0.020629)
(-0.0396673 0.601878 -0.0188793)
(-0.0337671 0.573452 -0.000557505)
(0.0134345 0.585963 -0.000130923)
(0.0199625 0.627066 0.00186149)
(0.0287116 0.653536 0.00385278)
(0.0240943 0.673809 0.0045203)