/*--------------------------------*- C++ -*----------------------------------*\
| =========                 |                                                 |
| \\      /  F ield         | OpenFOAM: The Open Source CFD Toolbox           |
|  \\    /   O peration     | Version:  2.3.0                                 |
|   \\  /    A nd           | Web:      www.OpenFOAM.org                      |
|    \\/     M anipulation  |                                                 |
\*---------------------------------------------------------------------------*/
FoamFile
{
    version     2.0;
    format      ascii;
    class       volVectorField;
    location    "23";
    object      U.waterMean;
}
// * * * * * * * * * * * * * * * * * * * * * * * * * * * * * * * * * * * * * //

dimensions      [0 1 -1 0 0 0 0];

internalField   nonuniform List<vector> 
6144
(
(0.00822302 0.0199748 -0.00116209)
(0.00836699 0.00405241 -0.00139592)
(0.00477124 0.00171175 -0.00203959)
(0.00472456 -0.000780812 -0.00205647)
(0.00305445 -0.00231516 -0.0016146)
(0.00298197 -0.00179553 -0.00135491)
(0.00243032 -0.0021226 -0.00113732)
(0.0025254 -0.0011559 -0.00109019)
(0.00244946 -0.000625617 -0.00131073)
(0.00250228 0.000505171 -0.00120328)
(0.0025086 0.00117104 -0.00109095)
(0.00266638 0.00165884 -0.000843053)
(0.0027893 0.0015146 -0.000790065)
(0.00291481 0.00122937 -0.000734063)
(0.00295919 0.000765824 -0.000874638)
(0.00300716 0.00044284 -0.000969808)
(0.00302497 0.000126636 -0.00110695)
(0.00304582 -5.2516e-05 -0.00118817)
(0.00305565 -0.000217342 -0.00126785)
(0.00306221 -0.000304163 -0.00131095)
(0.00306243 -0.00037982 -0.00134177)
(0.00306005 -0.00041684 -0.00135439)
(0.00305429 -0.000446824 -0.00135867)
(0.00304735 -0.000460537 -0.0013538)
(0.00303861 -0.000470177 -0.00134315)
(0.00302894 -0.000474821 -0.00132796)
(0.00301828 -0.000476129 -0.00131003)
(0.00300666 -0.000478063 -0.00128967)
(0.00299484 -0.000470198 -0.00126683)
(0.00298076 -0.000480586 -0.00124036)
(0.00296864 -0.000453159 -0.00120883)
(0.00294967 -0.000508337 -0.00116813)
(0.00293591 -0.000445779 -0.00111487)
(0.00290878 -0.000615284 -0.00104529)
(0.00289421 -0.00051127 -0.000952982)
(0.00285919 -0.000912937 -0.000842016)
(0.00284923 -0.000782662 -0.000711053)
(0.0028157 -0.00155465 -0.000586913)
(0.0028206 -0.00138214 -0.000488201)
(0.00280903 -0.00254903 -0.000475849)
(0.00282484 -0.00214112 -0.000587147)
(0.00283763 -0.00341951 -0.000890888)
(0.00285389 -0.00219938 -0.00135522)
(0.00291781 -0.00301983 -0.00184244)
(0.00301723 -0.000445316 -0.00221143)
(0.00335916 -0.00146464 -0.00236991)
(0.0039514 0.000700074 -0.00282619)
(0.00364896 -0.00134843 -0.00377652)
(0.00211199 0.00613488 -0.00493916)
(0.0032074 0.00842325 -0.00659308)
(0.00714255 0.0179045 -0.00806084)
(0.0150011 0.00820122 -0.00827836)
(0.0249067 0.00698606 -0.00921737)
(0.0304246 -0.0329527 -0.00965591)
(0.0317045 -0.0293176 -0.01343)
(0.0297025 -0.0786815 -0.0100754)
(0.0165662 -0.0393769 -0.0233122)
(0.016044 -0.0939127 0.0116426)
(-0.026897 0.00853682 -0.0541831)
(0.0221515 -0.0389506 0.0360473)
(0.127128 -0.288518 0.0698142)
(0.0876228 -0.108418 0.034047)
(0.058103 -0.185015 0.012371)
(0.0472519 -0.185939 0.0071109)
(0.0380155 -0.191217 0.0064105)
(0.0314559 -0.178546 0.00596581)
(0.0255436 -0.181395 0.00495157)
(0.0209496 -0.172562 0.00397241)
(0.0179753 -0.172696 0.00372962)
(0.0161639 -0.164582 0.00384216)
(0.0150894 -0.163324 0.00429291)
(0.0139966 -0.156765 0.00431945)
(0.0122738 -0.152591 0.00463331)
(0.00949004 -0.144448 0.00447873)
(0.00541937 -0.13546 0.00441758)
(0.00260847 -0.122966 0.0037228)
(0.00130837 -0.110925 0.00233279)
(-0.00040377 -0.0977362 0.000956753)
(-0.00251653 -0.0820111 0.000654079)
(-0.00130775 -0.0653014 0.000587835)
(0.00220762 -0.0517613 0.000368539)
(0.00457173 -0.0406283 0.000478422)
(0.00540683 -0.0335399 0.00230361)
(0.00429236 -0.0292608 0.00295498)
(0.00384109 -0.0238363 0.0024547)
(0.00390097 -0.0189963 0.00198025)
(0.00370391 -0.0147271 0.00193154)
(0.00280791 -0.00994026 0.000808515)
(0.00112256 -0.00537063 -0.000325277)
(-0.000522868 0.00165647 -0.00140921)
(0.00105819 0.00853556 -0.00199965)
(0.00282766 0.0140882 -0.00243331)
(0.0035373 0.0186107 -0.000193639)
(0.00447676 0.019436 0.00367018)
(0.00702257 0.0156991 0.00614181)
(0.00884245 0.00649215 0.00792822)
(0.0166089 0.0227401 0.00254516)
(0.0174088 0.0109108 0.00239483)
(0.0105915 0.00773623 0.00068178)
(0.0108636 0.00504896 0.00129612)
(0.00660361 0.00158747 0.0015981)
(0.00641139 0.00125935 0.00181213)
(0.00463521 -0.000239231 0.00201885)
(0.00467228 0.000798634 0.00176807)
(0.00434836 0.00107177 0.00152294)
(0.00458203 0.00214465 0.0015208)
(0.0046979 0.00248965 0.00152795)
(0.00518609 0.00281088 0.00182143)
(0.00545645 0.00242753 0.00192226)
(0.00575473 0.00207725 0.00202195)
(0.0058086 0.00148991 0.00193993)
(0.00590227 0.00108853 0.00189131)
(0.00589882 0.000673942 0.00179266)
(0.0059283 0.000435086 0.00174201)
(0.00592681 0.00021045 0.00167601)
(0.00592908 8.68275e-05 0.00165013)
(0.00591625 -2.10827e-05 0.00163217)
(0.00590163 -7.78779e-05 0.00163495)
(0.00588091 -0.000123613 0.00164517)
(0.0058585 -0.000147021 0.00166592)
(0.00583371 -0.000164029 0.00169149)
(0.00580754 -0.000173292 0.00172146)
(0.00577988 -0.000178468 0.00175381)
(0.00575012 -0.000183527 0.00178856)
(0.00571957 -0.000179762 0.00182543)
(0.00568542 -0.000194244 0.0018621)
(0.00565706 -0.000172861 0.00190006)
(0.00561511 -0.000243926 0.00194244)
(0.00559243 -0.000189581 0.00199271)
(0.00554221 -0.000400664 0.002049)
(0.00553929 -0.000301063 0.00212128)
(0.00549157 -0.000781403 0.00219759)
(0.00552911 -0.000626893 0.00228874)
(0.00550116 -0.00151108 0.00236489)
(0.00558652 -0.0012349 0.00242629)
(0.00557929 -0.00255253 0.00241236)
(0.00564814 -0.00193786 0.00230205)
(0.00561461 -0.00345127 0.00196851)
(0.00561176 -0.00195614 0.0013513)
(0.0054703 -0.00314702 0.000646349)
(0.00556831 -0.000304591 0.000165659)
(0.00626772 -0.00195577 -1.66878e-07)
(0.00662151 0.000885087 -0.000890127)
(0.00467811 0.00101031 -0.0022699)
(0.0027647 0.00886105 -0.00267525)
(0.00561526 0.00675679 -0.0026958)
(0.0162105 0.00936011 -0.00193104)
(0.0282178 -0.0119175 -0.000152331)
(0.0479326 -0.016832 0.00411387)
(0.0587367 -0.05691 0.00651772)
(0.0566572 -0.0503574 0.00630155)
(0.0590172 -0.107991 0.0127492)
(0.0254287 -0.0719288 0.00566824)
(0.0178506 -0.170091 0.0341579)
(-0.0696758 0.0233483 -0.0874646)
(0.00919413 -0.0842341 0.0112286)
(0.161405 -0.262284 0.11167)
(0.0815362 0.0022016 0.0445657)
(0.0221925 -0.113242 0.0100732)
(0.0215275 -0.0475302 0.0130505)
(0.0105228 -0.0701169 0.0134813)
(0.00426452 -0.0502036 0.0111191)
(0.00204402 -0.0542258 0.00888555)
(0.00312764 -0.0452349 0.009223)
(0.00527398 -0.0468267 0.010033)
(0.00549177 -0.042344 0.0085357)
(0.00441857 -0.0450768 0.00888635)
(0.00266506 -0.0439983 0.00918896)
(0.000634118 -0.0480612 0.00902575)
(-0.00222363 -0.049132 0.00703815)
(-0.00444345 -0.0505318 0.00483934)
(-0.00465098 -0.0490057 0.00422469)
(-0.00412539 -0.0467422 0.00312297)
(-0.00628499 -0.0411674 0.00376891)
(-0.00812013 -0.0343885 0.0036425)
(-0.00583047 -0.0269279 0.00420376)
(-0.00304315 -0.019979 0.00442745)
(-0.000560261 -0.0127842 0.00646136)
(0.00106303 -0.0109533 0.00953364)
(0.000339507 -0.0108112 0.0100652)
(-0.00124756 -0.00923731 0.00918996)
(-0.00110097 -0.00781436 0.00963397)
(-0.00083736 -0.00627157 0.00960529)
(-0.0010384 -0.00460644 0.00810316)
(-0.0010868 -0.00378499 0.00624324)
(-0.00121115 -0.00311889 0.00400865)
(-1.56871e-05 -0.00202261 0.00152697)
(0.00220845 0.00125113 -0.00211516)
(0.00355231 0.00792214 -0.00130896)
(0.00577989 0.0107358 0.00417575)
(0.00885395 0.00924605 0.00877826)
(0.0113108 0.00312366 0.0112944)
(0.0199519 0.0224605 0.00365539)
(0.0217571 0.0138304 0.00352925)
(0.0135583 0.0100797 0.0014484)
(0.0144531 0.00896172 0.00211269)
(0.00840399 0.00441839 0.00235059)
(0.00791925 0.00376451 0.00273304)
(0.00459432 0.0012039 0.00325011)
(0.00448527 0.00199736 0.00314727)
(0.00390427 0.00191321 0.00300515)
(0.00437872 0.00283434 0.00304939)
(0.00449542 0.00276831 0.00301454)
(0.00524762 0.00301333 0.00324586)
(0.00555676 0.00255055 0.00333824)
(0.00594268 0.00231923 0.00345097)
(0.00597191 0.0017704 0.00341896)
(0.00606547 0.00142104 0.00342404)
(0.00599047 0.000994114 0.00338593)
(0.00598486 0.000745621 0.00338892)
(0.00591663 0.000492987 0.00338352)
(0.00587853 0.000355217 0.00340195)
(0.00582076 0.000229176 0.00341888)
(0.00577416 0.000161098 0.00344651)
(0.00572368 0.000105818 0.00347378)
(0.00567736 7.61852e-05 0.00350514)
(0.00563156 5.49624e-05 0.00353703)
(0.00558774 4.32271e-05 0.00357014)
(0.00554442 3.54397e-05 0.00360319)
(0.00550053 2.71321e-05 0.00363647)
(0.00545699 2.33914e-05 0.00366989)
(0.0054106 -3.13487e-07 0.00370392)
(0.00537116 3.73381e-06 0.00373934)
(0.00531874 -7.9249e-05 0.00377624)
(0.00529393 -5.06428e-05 0.00381713)
(0.00523785 -0.000268342 0.00385936)
(0.00524948 -0.000184599 0.003909)
(0.00520572 -0.000631193 0.00395478)
(0.00528098 -0.000430932 0.00400637)
(0.0052639 -0.0011784 0.00403852)
(0.00540887 -0.000726798 0.00405722)
(0.00542117 -0.00176673 0.00401881)
(0.00558475 -0.000851273 0.00391407)
(0.00553017 -0.00212694 0.00369928)
(0.00548108 -0.000517236 0.0033528)
(0.00525668 -0.0019151 0.00292029)
(0.00549011 0.000510978 0.00253922)
(0.00626859 -0.00144939 0.00224785)
(0.00617628 0.00192483 0.0012661)
(0.00430755 0.00108415 -0.000129913)
(0.00386287 0.00688218 -0.000319647)
(0.0108353 -0.000521129 0.000323965)
(0.0286871 -0.0011375 0.00187161)
(0.0483525 -0.0239189 0.0042052)
(0.0663858 -0.0243008 0.0108372)
(0.0783976 -0.0556392 0.0122856)
(0.0779295 -0.0368448 0.0179148)
(0.0850535 -0.100228 0.0272255)
(0.0361547 -0.0463003 0.0323551)
(0.0450585 -0.19421 0.0708424)
(-0.0788197 0.0666076 -0.0687243)
(0.0244179 -0.124038 -0.0167846)
(0.183701 -0.237813 0.121363)
(0.0993675 0.05037 0.0514077)
(0.0633061 -0.0910111 0.0284179)
(0.0399207 -0.000710396 0.0135265)
(0.0240604 -0.0313551 0.0115979)
(0.0150773 -0.0053748 0.0116183)
(0.0154723 -0.0139529 0.0131622)
(0.0134464 -0.00546407 0.0119104)
(0.0149552 -0.00672349 0.0103601)
(0.0152229 -0.00243972 0.00963473)
(0.0138816 -0.00751271 0.00930445)
(0.0114986 -0.00763904 0.0094144)
(0.00883046 -0.0123886 0.00836073)
(0.00567947 -0.0122861 0.0066315)
(0.00239278 -0.0127417 0.0045701)
(-0.00106053 -0.00993955 0.00367913)
(-0.00448439 -0.00736577 0.00478009)
(-0.00713249 -0.00544866 0.00641642)
(-0.0082735 -0.00490244 0.00665258)
(-0.00692821 -0.00335871 0.00679226)
(-0.00475623 -4.13402e-05 0.00622335)
(-0.00273775 0.00254808 0.00886418)
(-0.0019184 0.00215626 0.0139137)
(-0.00512782 0.00063768 0.0146755)
(-0.00768519 -0.00100247 0.0137888)
(-0.00839534 -0.00156598 0.0137248)
(-0.00751926 0.000165965 0.0125169)
(-0.00633234 0.00122255 0.0101006)
(-0.00477665 0.00229305 0.00788226)
(-0.00280341 0.00229987 0.0061193)
(-0.000203019 0.00273818 0.00460169)
(0.000804614 0.00310429 0.00302361)
(0.00286633 0.00576495 0.0034871)
(0.00609422 0.00640881 0.00708076)
(0.00860641 0.00465039 0.0112687)
(0.00918523 -0.000818942 0.0134304)
(0.0212242 0.0221745 0.00396853)
(0.0248683 0.0155659 0.00403085)
(0.0150714 0.0105895 0.00101227)
(0.0176762 0.0114103 0.00133551)
(0.0109129 0.00601324 0.00116724)
(0.0105744 0.00603738 0.0017041)
(0.00508999 0.00178591 0.00261104)
(0.00429572 0.00234075 0.0027544)
(0.00298284 0.00152794 0.00293963)
(0.0037322 0.0028065 0.00312595)
(0.00384288 0.00247241 0.00316776)
(0.00462471 0.00284144 0.00354324)
(0.00484459 0.00242834 0.00371736)
(0.00522544 0.00239467 0.00388402)
(0.00522873 0.00191807 0.00386946)
(0.00532176 0.00166557 0.00389007)
(0.00521341 0.00123782 0.00386174)
(0.00519472 0.000997113 0.00387703)
(0.00509302 0.000717441 0.00388168)
(0.00503604 0.000564767 0.00391084)
(0.00495579 0.000417736 0.00393749)
(0.00489241 0.00033898 0.00397414)
(0.00482528 0.000273747 0.00400861)
(0.00476551 0.000239355 0.00404513)
(0.00470808 0.000215317 0.00408052)
(0.00465398 0.000203099 0.00411592)
(0.00460219 0.000194656 0.00415056)
(0.00455178 0.000186055 0.00418426)
(0.00450327 0.000178356 0.0042169)
(0.00445588 0.000151975 0.00424901)
(0.0044184 0.00014527 0.00428137)
(0.00437319 6.12752e-05 0.00431469)
(0.00436172 7.79479e-05 0.00434945)
(0.0043223 -0.000124222 0.00438293)
(0.00436089 -3.11117e-05 0.00441598)
(0.0043312 -0.000415364 0.00443816)
(0.00443556 -0.000144703 0.00445124)
(0.00441054 -0.000746275 0.00443326)
(0.00457009 -0.000118694 0.00438703)
(0.00455241 -0.00091012 0.00429049)
(0.00477197 0.000281541 0.00415562)
(0.00478165 -0.000796763 0.00399515)
(0.00492622 0.000833632 0.00382933)
(0.00467585 -0.000944082 0.00371648)
(0.00463074 0.00113351 0.00373323)
(0.00504164 -0.00112186 0.00367724)
(0.00527642 0.00227244 0.00293963)
(0.00416153 8.3291e-05 0.00196437)
(0.0062433 0.00308729 0.00219549)
(0.0154289 -0.00749624 0.00200894)
(0.0368888 -0.0100681 0.00380245)
(0.0575148 -0.0246601 0.0111718)
(0.0726073 -0.0166816 0.0212002)
(0.0828002 -0.0352209 0.0247469)
(0.0831593 0.00151712 0.0376124)
(0.0883263 -0.0672018 0.0498471)
(0.039187 0.0336897 0.0928965)
(0.0683042 -0.209392 0.131053)
(-0.094668 0.193012 -0.034252)
(0.0233907 -0.211896 0.00960204)
(0.161013 -0.203826 0.131102)
(0.0697753 0.0739929 0.0397748)
(0.0384137 -0.0531468 0.0272067)
(0.00405691 0.0483333 0.00018164)
(0.0031964 0.0201124 0.00718384)
(-0.000944746 0.0459101 0.00785082)
(0.00195468 0.0386075 0.00876753)
(0.00247022 0.0471793 0.00832661)
(0.00586441 0.0425721 0.00685964)
(0.00709013 0.046842 0.00558852)
(0.00693363 0.0418129 0.00541454)
(0.00571529 0.0421732 0.00430398)
(0.00326436 0.0387576 0.00298394)
(-0.000446821 0.038564 0.00291825)
(-0.00226598 0.037188 0.00354647)
(-0.00430991 0.0351275 0.00453881)
(-0.00654036 0.030947 0.00559299)
(-0.00843683 0.0273422 0.00714303)
(-0.00926573 0.0239607 0.0080197)
(-0.00872004 0.0243869 0.00806561)
(-0.00750319 0.0248788 0.0104831)
(-0.00790613 0.0255567 0.0126379)
(-0.00953545 0.0235541 0.0151145)
(-0.0115419 0.0199306 0.015647)
(-0.0145531 0.0167896 0.0150113)
(-0.0168495 0.014464 0.014805)
(-0.0157701 0.0145026 0.012354)
(-0.0127962 0.014541 0.0092552)
(-0.00939857 0.0138929 0.0071037)
(-0.00584017 0.013327 0.00533275)
(-0.00329827 0.0134121 0.00557039)
(-0.00150656 0.0112507 0.00583377)
(0.000361401 0.0103084 0.00692898)
(0.00343167 0.00744607 0.0108116)
(0.00411019 0.00433534 0.0135264)
(0.00282263 -0.00149591 0.0141895)
(0.0210688 0.0219956 0.00458756)
(0.026941 0.0176072 0.00502869)
(0.0156822 0.0104438 0.00084875)
(0.0199664 0.0130202 0.00135063)
(0.0130403 0.00616066 5.59122e-05)
(0.0136789 0.00769932 0.000362619)
(0.00688377 0.00240966 0.000817163)
(0.00522944 0.00310312 0.00160896)
(0.00219452 0.000704452 0.00218067)
(0.00256183 0.00204848 0.0026585)
(0.00254077 0.00145548 0.00282223)
(0.00321051 0.00216054 0.00345208)
(0.00321095 0.00192497 0.00370662)
(0.0035337 0.00216989 0.00395073)
(0.00348237 0.0018156 0.0039349)
(0.00353868 0.0016924 0.00398173)
(0.0033621 0.00130395 0.00395229)
(0.00328317 0.00111038 0.00397229)
(0.00311463 0.000834804 0.00396613)
(0.00300766 0.000690867 0.00398495)
(0.00288065 0.000533067 0.0039954)
(0.00278198 0.000446559 0.00401743)
(0.00268676 0.000372698 0.00403666)
(0.00260752 0.000333131 0.00406008)
(0.0025367 0.000304075 0.0040826)
(0.00247429 0.000287638 0.00410583)
(0.00241776 0.000276301 0.00412808)
(0.00236709 0.000266051 0.00415009)
(0.00232193 0.000254927 0.00417194)
(0.0022813 0.000228729 0.00419275)
(0.00225142 0.000217942 0.00421255)
(0.00221709 0.000144075 0.00423081)
(0.00221446 0.000163643 0.00424851)
(0.00218538 -1.4521e-06 0.0042608)
(0.00223689 0.000120994 0.00426992)
(0.00221869 -0.000176325 0.00425942)
(0.00234189 0.000170732 0.00423164)
(0.00231125 -0.0002833 0.00415554)
(0.0024817 0.000464381 0.00404863)
(0.00244149 -0.000156512 0.00389564)
(0.00274999 0.00113361 0.00375933)
(0.00289812 0.000134424 0.00369277)
(0.0033261 0.00171524 0.00370783)
(0.00318865 -0.00028357 0.0037969)
(0.00317976 0.00146564 0.00396487)
(0.0033987 -0.00120027 0.00409003)
(0.00366386 0.00190673 0.00390135)
(0.00384564 -0.00128343 0.0039937)
(0.00827142 -0.000380792 0.0043776)
(0.0205545 -0.0127312 0.00427669)
(0.0410592 -0.0111711 0.00772152)
(0.0575765 -0.0147691 0.0192556)
(0.0672622 0.00334212 0.0298364)
(0.0724758 -0.00625933 0.0334144)
(0.069865 0.0363114 0.0548105)
(0.0709142 -0.0243174 0.0652423)
(0.0475996 0.105517 0.112482)
(0.0782929 -0.160059 0.133206)
(-0.0691005 0.316041 -0.00363801)
(0.0163244 -0.268182 0.0177255)
(0.136733 -0.171504 0.133671)
(0.0489457 0.0894881 0.0318937)
(0.0341916 -0.00923695 0.025732)
(0.00521944 0.0772452 -0.00269895)
(0.0112761 0.0607901 0.00542027)
(0.00520805 0.0831918 0.00675891)
(0.00771382 0.0783566 0.00853196)
(0.00707772 0.0874853 0.00705756)
(0.00963735 0.0841853 0.00615387)
(0.0108636 0.0888158 0.0047397)
(0.0115541 0.0854735 0.00376494)
(0.010764 0.0864696 0.00352374)
(0.0100691 0.0829042 0.0040127)
(0.00774564 0.0794771 0.00488408)
(0.00560791 0.0743503 0.0062695)
(0.00229801 0.0690361 0.00712256)
(-0.000256804 0.0640856 0.00802799)
(-0.00305309 0.0599523 0.00907737)
(-0.00492214 0.056587 0.010614)
(-0.00509384 0.054638 0.0118586)
(-0.00666411 0.0529511 0.0136682)
(-0.00939036 0.0490055 0.0160481)
(-0.0111082 0.0435499 0.0181006)
(-0.01396 0.0384974 0.0170377)
(-0.0176691 0.0342328 0.0133477)
(-0.0197784 0.0324667 0.00860043)
(-0.01742 0.0311567 0.00565886)
(-0.0138227 0.0296092 0.00361251)
(-0.00990419 0.0277947 0.0023027)
(-0.00714239 0.0262769 0.00352785)
(-0.00557674 0.0236885 0.00654906)
(-0.00388681 0.0190114 0.00832191)
(-0.0018945 0.0156617 0.0101497)
(0.000297207 0.0092758 0.013635)
(6.77649e-06 0.00620105 0.0161209)
(-0.0045434 -0.0019276 0.0141831)
(0.0193303 0.0215982 0.00599765)
(0.0282734 0.0203794 0.00637245)
(0.0152345 0.0101121 0.00154492)
(0.0210173 0.0144611 0.00280604)
(0.0141513 0.00490001 0.000634462)
(0.0157127 0.00801386 0.000450251)
(0.00918955 0.00178168 -0.00034262)
(0.00691566 0.00365244 0.000397922)
(0.00261524 0.000148277 0.00126526)
(0.00192084 0.0014457 0.00204914)
(0.00135648 7.95917e-05 0.00234843)
(0.00173849 0.000997108 0.00319857)
(0.00172303 0.000928966 0.00358963)
(0.0021197 0.00162564 0.00400142)
(0.0021166 0.0014248 0.00407103)
(0.00218065 0.00148797 0.00419711)
(0.00198283 0.00117366 0.00419056)
(0.00187929 0.00108739 0.00422128)
(0.00168795 0.000866073 0.00419307)
(0.00157068 0.000781348 0.00418362)
(0.00143985 0.000656522 0.00415462)
(0.00134491 0.000598901 0.00413608)
(0.00125841 0.000539965 0.00411467)
(0.00119065 0.000511609 0.00409933)
(0.00113494 0.000490265 0.00408586)
(0.00108991 0.000479921 0.00407639)
(0.00105337 0.000473825 0.00406966)
(0.00102473 0.000468793 0.0040662)
(0.00100215 0.00046361 0.00406521)
(0.000986737 0.000448065 0.00406763)
(0.000983232 0.000447283 0.00407363)
(0.00098158 0.00040094 0.00408036)
(0.00101056 0.000444797 0.00409038)
(0.00101923 0.000343759 0.00409295)
(0.00109995 0.000522316 0.00408983)
(0.00111394 0.000340498 0.00406166)
(0.00125159 0.000770573 0.00400898)
(0.00123061 0.000454934 0.00390234)
(0.00139728 0.00124447 0.00376146)
(0.00135728 0.000674452 0.00358695)
(0.0016618 0.00187478 0.00344252)
(0.00179582 0.000862607 0.00338366)
(0.0023033 0.00239273 0.00346325)
(0.00217783 0.000262441 0.00363114)
(0.00217209 0.00170284 0.00371663)
(0.00191115 -0.00112463 0.00359925)
(0.0023069 0.00200604 0.00371941)
(0.00333074 -0.00251837 0.00518748)
(0.00967776 -0.00342125 0.00592991)
(0.0222003 -0.0150159 0.00699653)
(0.0373679 -0.00589913 0.013085)
(0.0453946 -0.000200471 0.0262463)
(0.0532947 0.0220913 0.0386293)
(0.0555718 0.0153252 0.0456666)
(0.0515945 0.0574019 0.0656662)
(0.0480601 -0.0106545 0.0689208)
(0.0420157 0.105845 0.0913243)
(0.0558247 -0.138893 0.0849951)
(0.00582429 0.35893 0.0361648)
(0.0170604 -0.303838 0.0258182)
(0.0736034 -0.131657 0.121382)
(0.0115888 0.116818 0.0111027)
(0.00604086 0.0438956 0.0140291)
(-0.0114739 0.117903 -0.00239754)
(-0.00629428 0.113553 0.00888228)
(-0.00586173 0.131616 0.0107993)
(-0.000690574 0.126751 0.0123018)
(0.00321843 0.134007 0.0112473)
(0.0081893 0.128624 0.0109209)
(0.0119697 0.131507 0.00998194)
(0.015795 0.127793 0.00973733)
(0.0172422 0.127133 0.00949014)
(0.0179941 0.12202 0.009426)
(0.016603 0.119016 0.0097969)
(0.014885 0.113004 0.0106016)
(0.0120748 0.107812 0.0113086)
(0.00933486 0.101384 0.0119679)
(0.00596885 0.0952476 0.012039)
(0.00268516 0.089214 0.01185)
(-0.00048098 0.0828293 0.0121803)
(-0.00433018 0.0763546 0.0125506)
(-0.00856407 0.0699866 0.0134984)
(-0.0115177 0.06331 0.0134333)
(-0.014225 0.0578272 0.00905566)
(-0.0168122 0.0541304 0.00379704)
(-0.0173548 0.0520721 0.000652701)
(-0.0152203 0.0504499 -7.91264e-05)
(-0.0119678 0.0489024 -0.000383476)
(-0.00880356 0.0469583 0.00153372)
(-0.00705992 0.0437017 0.00546136)
(-0.00598785 0.0380505 0.00809146)
(-0.00519685 0.0321463 0.0106594)
(-0.00441839 0.025299 0.0142594)
(-0.0041956 0.0162887 0.0170477)
(-0.0070663 0.0102276 0.017134)
(-0.0099602 -0.0013069 0.0108146)
(0.0149928 0.0203379 0.00589618)
(0.0278865 0.0241056 0.00821655)
(0.0124863 0.00925837 0.0030826)
(0.0198007 0.0163978 0.00566419)
(0.0125678 0.00344963 0.00311582)
(0.015042 0.00777672 0.00278709)
(0.00927757 0.000301518 0.00102184)
(0.00753493 0.00339353 0.000546642)
(0.00263099 -0.000498474 0.0010338)
(0.00117964 0.00128516 0.0019528)
(-0.000119771 -0.000833805 0.00226638)
(-0.000599568 0.000161733 0.00306189)
(-0.00122169 -1.96082e-05 0.00346187)
(-0.000900035 0.000977071 0.00406136)
(-0.000883332 0.000833035 0.00429864)
(-0.000822699 0.00110761 0.00452801)
(-0.00110973 0.000908093 0.00453447)
(-0.00129437 0.000988903 0.00455632)
(-0.00156696 0.000869631 0.00449694)
(-0.00173227 0.000888835 0.00446191)
(-0.00189598 0.00082725 0.00440092)
(-0.00200463 0.000823722 0.00435494)
(-0.00209426 0.000798292 0.00430851)
(-0.00215453 0.00079458 0.00427411)
(-0.00219626 0.000788337 0.00424501)
(-0.00222285 0.000787851 0.00422425)
(-0.00223816 0.000788347 0.00420972)
(-0.0022418 0.000789608 0.00420239)
(-0.00223658 0.000791732 0.00420131)
(-0.00222208 0.000788897 0.00420587)
(-0.00220045 0.000804724 0.00421652)
(-0.00217683 0.000793671 0.00423029)
(-0.00213539 0.000872368 0.00424797)
(-0.00211534 0.000840605 0.00425901)
(-0.00203293 0.00106952 0.00427085)
(-0.00200717 0.000975506 0.00426384)
(-0.00184509 0.00143248 0.00425171)
(-0.00180284 0.00115468 0.00419972)
(-0.0015442 0.0018493 0.00412805)
(-0.00149765 0.00117478 0.00398831)
(-0.00112869 0.00213277 0.00384342)
(-0.00101201 0.000928169 0.00366659)
(-0.000399943 0.00231249 0.00362643)
(-0.000301663 0.000236092 0.00364244)
(-0.000138676 0.00172701 0.00356992)
(-0.000666856 -0.000900657 0.00313822)
(0.000373247 0.00174139 0.00329354)
(0.00268702 -0.00442924 0.00532756)
(0.00973807 -0.00761491 0.00648876)
(0.0199859 -0.0134658 0.00891432)
(0.023879 0.00698451 0.0172902)
(0.0256677 0.020544 0.0297214)
(0.0293996 0.0480241 0.0424247)
(0.0295213 0.0495478 0.0526982)
(0.0377078 0.0852217 0.0686552)
(0.0370559 0.0171503 0.0699151)
(0.0518239 0.123275 0.0843914)
(0.0407009 -0.13661 0.0686324)
(0.011544 0.335481 0.0662593)
(0.00752376 -0.310883 0.0311775)
(0.0126227 -0.0979922 0.103271)
(-0.0169365 0.128507 0.0119593)
(-0.017453 0.0787638 0.00926876)
(-0.021954 0.147881 -0.00181174)
(-0.0135943 0.138384 0.0118703)
(-0.0071702 0.152901 0.0127349)
(-0.000587764 0.144186 0.0130876)
(0.00543415 0.150251 0.0116112)
(0.0106699 0.146125 0.0120562)
(0.0144534 0.150167 0.0120334)
(0.0185488 0.147616 0.0127532)
(0.0209091 0.150155 0.0127463)
(0.0230161 0.147443 0.0138805)
(0.0222457 0.145376 0.0136461)
(0.0212754 0.139716 0.0145908)
(0.0182411 0.1343 0.0140181)
(0.0152456 0.128427 0.0135333)
(0.011058 0.122057 0.0122941)
(0.00716453 0.116207 0.0115723)
(0.00329032 0.110197 0.012133)
(0.000368502 0.103745 0.0129932)
(-0.00273675 0.0959559 0.012374)
(-0.00510014 0.0880201 0.00903298)
(-0.00782361 0.0814391 0.00401829)
(-0.0100208 0.0766839 -0.000908239)
(-0.010908 0.0712756 -0.00443139)
(-0.0105447 0.0677959 -0.00578878)
(-0.00908314 0.0642737 -0.00461962)
(-0.00684636 0.0592287 -0.00251638)
(-0.004627 0.0542225 0.000809163)
(-0.00357923 0.0474062 0.00287405)
(-0.00378086 0.0411159 0.00492572)
(-0.00353348 0.0335633 0.00735206)
(-0.00431908 0.0239471 0.0100474)
(-0.00695528 0.0152448 0.0116006)
(-0.0149745 -0.0025421 0.00344404)
(0.0101904 0.0151358 0.00422193)
(0.0263063 0.0276908 0.00877252)
(0.0080785 0.00795726 0.00398099)
(0.0166477 0.0188764 0.00758636)
(0.00960101 0.00278103 0.00521463)
(0.0124905 0.00838309 0.00502467)
(0.00716427 -0.000746812 0.00332958)
(0.00649087 0.00321525 0.00210291)
(0.00172442 -0.00126166 0.00195556)
(0.000132895 0.00112827 0.00264259)
(-0.00139571 -0.00136102 0.00306285)
(-0.00203788 -0.000196442 0.00378223)
(-0.00269657 -0.000865676 0.00432873)
(-0.00228564 7.78046e-05 0.00506686)
(-0.00223192 -0.000160787 0.0055481)
(-0.00218984 0.0004358 0.00590964)
(-0.00247938 0.000408288 0.00603693)
(-0.00259579 0.000767071 0.00611937)
(-0.00279597 0.000796117 0.00609705)
(-0.00287688 0.000971275 0.00608118)
(-0.00296836 0.00100412 0.00603381)
(-0.00300819 0.00107765 0.00600244)
(-0.00303705 0.00109988 0.00596956)
(-0.00303827 0.00112984 0.00595212)
(-0.00302415 0.00114646 0.0059417)
(-0.00299658 0.00116297 0.00594116)
(-0.00296063 0.00117594 0.00594683)
(-0.00291678 0.0011882 0.00595878)
(-0.00286935 0.00120093 0.00597508)
(-0.00281702 0.00121171 0.00599686)
(-0.00276317 0.00124132 0.00602269)
(-0.00271047 0.00125762 0.00605118)
(-0.00264398 0.00136097 0.00608416)
(-0.00259741 0.00138083 0.00611327)
(-0.00248805 0.001633 0.00614611)
(-0.00242843 0.00159416 0.00616436)
(-0.00222073 0.00204089 0.0061862)
(-0.00212109 0.00179426 0.00617584)
(-0.00177408 0.0024321 0.00615324)
(-0.00165659 0.00176695 0.00604617)
(-0.00125438 0.00262195 0.00588559)
(-0.00127949 0.00137443 0.00558864)
(-0.000931343 0.00257582 0.00531423)
(-0.00112739 0.000452203 0.0050498)
(-0.00131564 0.00187128 0.00479438)
(-0.00206624 -0.00121114 0.00417363)
(-0.000125392 -0.000270166 0.00406003)
(0.00400834 -0.00764065 0.0052033)
(0.00837822 -0.00710475 0.00671648)
(0.00414245 0.00112229 0.0151757)
(-0.00310117 0.0283482 0.0249101)
(-0.00434939 0.0490052 0.0340481)
(0.000457927 0.076726 0.04359)
(0.00951443 0.0893552 0.0528636)
(0.0274872 0.119442 0.0690054)
(0.0452256 0.0889539 0.0772895)
(0.0786685 0.160037 0.10104)
(0.0565719 -0.0598233 0.093796)
(0.0356655 0.355202 0.0440621)
(-0.0105467 -0.326246 0.0275848)
(-0.063772 -0.0737169 0.0731989)
(-0.0478261 0.157669 -0.007857)
(-0.0458203 0.10348 0.00513327)
(-0.0334594 0.160577 -0.00263004)
(-0.0244851 0.1375 0.0104854)
(-0.00907738 0.145061 0.00875115)
(-0.00208139 0.135551 0.00783764)
(0.00523428 0.142276 0.00635437)
(0.010675 0.143017 0.00662398)
(0.0158616 0.150056 0.00859747)
(0.0198058 0.151398 0.00980942)
(0.0222119 0.156784 0.0108528)
(0.0244734 0.159341 0.0123364)
(0.0256827 0.163558 0.0132647)
(0.0261203 0.163318 0.0148298)
(0.0248945 0.160746 0.0161739)
(0.0226685 0.156502 0.0169444)
(0.0196554 0.150965 0.0171731)
(0.0161197 0.144716 0.0173042)
(0.0126878 0.137541 0.017419)
(0.0094371 0.130398 0.0169139)
(0.00662795 0.12338 0.014843)
(0.00399242 0.117948 0.0115473)
(0.00201997 0.113697 0.00715472)
(0.00135864 0.109855 0.00501237)
(-0.000549979 0.104269 0.00336528)
(-0.00111444 0.0981274 0.00226815)
(3.37738e-05 0.0900547 0.00161386)
(0.00194278 0.0827597 0.00206915)
(0.00461346 0.0753146 0.00420957)
(0.00530248 0.0677033 0.00646343)
(0.00407087 0.0611155 0.00914217)
(0.00351601 0.0532759 0.0105525)
(0.0023222 0.0427901 0.0106266)
(-0.000371286 0.0274721 0.00517787)
(-0.00617136 0.00428505 -0.0118005)
(-0.00109395 0.0115846 -0.00658303)
(0.0236033 0.0303066 0.00606658)
(0.00156555 0.00741595 0.00108956)
(0.0120607 0.0221508 0.00526673)
(0.00479083 0.00354834 0.00354888)
(0.00810697 0.0103002 0.00349238)
(0.00341054 -0.000158203 0.00226326)
(0.00351291 0.00420117 0.000775782)
(-0.000381103 -0.000652519 -0.000234051)
(-0.00200565 0.00162477 -0.000256548)
(-0.0039286 -0.00127811 3.36114e-05)
(-0.00482755 -6.5192e-05 0.000534919)
(-0.00599279 -0.00133284 0.00112382)
(-0.00587247 -0.000431908 0.00178701)
(-0.00629334 -0.000685524 0.00236475)
(-0.00634941 0.000147395 0.00273684)
(-0.00676433 0.000200245 0.00298099)
(-0.00690991 0.000700675 0.00313712)
(-0.00716011 0.000790566 0.00321241)
(-0.00727439 0.00103792 0.00326933)
(-0.00738549 0.0011152 0.00328931)
(-0.00743751 0.00122764 0.00331182)
(-0.00747127 0.00127786 0.00332596)
(-0.00747864 0.00132633 0.0033483)
(-0.00746957 0.0013557 0.00337358)
(-0.00744527 0.00138162 0.00340439)
(-0.00740841 0.00140299 0.00343808)
(-0.0073588 0.00142376 0.00347454)
(-0.0072993 0.00144619 0.00351211)
(-0.00723492 0.00146955 0.00355026)
(-0.00717547 0.00150834 0.00358715)
(-0.00711991 0.00153781 0.00362327)
(-0.00706333 0.00164008 0.00365823)
(-0.00702379 0.00166801 0.00369334)
(-0.00692363 0.00189921 0.00372954)
(-0.00685734 0.00186866 0.00376662)
(-0.00663471 0.00229272 0.00379657)
(-0.00649864 0.00210384 0.00380929)
(-0.00615528 0.00279466 0.00376844)
(-0.00605288 0.00231015 0.00365073)
(-0.00568209 0.0032721 0.00342681)
(-0.00563298 0.00214432 0.00310408)
(-0.00502017 0.00307746 0.00280051)
(-0.00489325 0.000643905 0.00265075)
(-0.0046279 0.00142299 0.00227273)
(-0.00401799 -0.00228251 0.00136549)
(-0.000553091 -0.00162882 0.00178152)
(0.00151884 -0.00622032 0.00152944)
(-0.00501189 0.0013639 0.00296336)
(-0.0176122 0.0102912 0.0123832)
(-0.0308047 0.0258283 0.0236845)
(-0.031401 0.036735 0.0322236)
(-0.0263458 0.0596186 0.0349187)
(-0.0162928 0.0646775 0.0378348)
(-0.00109329 0.103184 0.0514826)
(0.0267511 0.0565843 0.0527091)
(0.0796778 0.150379 0.0739238)
(0.0811239 -0.0319503 0.0859297)
(0.120001 0.380297 0.0297443)
(-0.0160882 -0.304263 0.021606)
(-0.119587 -0.119178 0.064134)
(-0.0666841 0.143188 -0.00547405)
(-0.0612859 0.0500654 0.00834651)
(-0.0305607 0.114089 0.00227003)
(-0.025615 0.0661055 0.0147393)
(-0.00700045 0.0766651 0.0106554)
(-0.00239469 0.0601112 0.00830007)
(0.00295921 0.0653117 0.0056254)
(0.0055972 0.0625349 0.00364098)
(0.0104086 0.0676244 0.00442724)
(0.0128404 0.0662034 0.00368448)