/*--------------------------------*- C++ -*----------------------------------*\
| =========                 |                                                 |
| \\      /  F ield         | OpenFOAM: The Open Source CFD Toolbox           |
|  \\    /   O peration     | Version:  2.3.0                                 |
|   \\  /    A nd           | Web:      www.OpenFOAM.org                      |
|    \\/     M anipulation  |                                                 |
\*---------------------------------------------------------------------------*/
FoamFile
{
    version     2.0;
    format      ascii;
    class       volVectorField;
    location    "23";
    object      U.water;
}
// * * * * * * * * * * * * * * * * * * * * * * * * * * * * * * * * * * * * * //

dimensions      [0 1 -1 0 0 0 0];

internalField   nonuniform List<vector> 
6144
(
(0.00805529 0.0143422 -0.00184145)
(0.0082661 -0.00126656 -0.00244304)
(0.00525618 -0.00309849 -0.00296644)
(0.00502887 -0.00513241 -0.00315588)
(0.00313788 -0.00558104 -0.00256159)
(0.00291612 -0.00457776 -0.00181485)
(0.00196357 -0.00423926 -0.000799624)
(0.00181757 -0.00261081 -0.00040709)
(0.00142246 -0.00116367 -0.000218637)
(0.00113764 0.00088943 0.00044356)
(0.0011338 0.00213744 0.000770707)
(0.00134865 0.0027368 0.00129263)
(0.00155147 0.00240632 0.0014694)
(0.0017183 0.00178141 0.00159171)
(0.00182085 0.000986559 0.00123754)
(0.00192898 0.000434957 0.00102979)
(0.00199811 -6.81857e-05 0.000699183)
(0.00206858 -0.000313034 0.000503749)
(0.00211963 -0.000551924 0.00030122)
(0.00214158 -0.000641394 0.000210683)
(0.00215119 -0.000729112 0.000152647)
(0.00214892 -0.000744229 0.000137979)
(0.00213856 -0.000756482 0.000141764)
(0.00212465 -0.000748901 0.000163741)
(0.00210621 -0.000738458 0.000197201)
(0.00208593 -0.000726253 0.000237384)
(0.00206507 -0.000714847 0.000283519)
(0.002044 -0.000709364 0.000335215)
(0.00202248 -0.000697313 0.000388224)
(0.00199941 -0.000706977 0.0004388)
(0.00197875 -0.000672265 0.000496211)
(0.00195195 -0.000727793 0.000535795)
(0.00193844 -0.000607055 0.00060441)
(0.00190007 -0.000778542 0.000613499)
(0.00190975 -0.000449832 0.000714609)
(0.00184544 -0.000910995 0.000684165)
(0.00187836 -0.00019319 0.000852254)
(0.00178889 -0.00116901 0.000779503)
(0.00181799 0.000168366 0.00103662)
(0.00173709 -0.00164452 0.00095383)
(0.00174797 0.000464112 0.00126256)
(0.00173631 -0.00255505 0.00127932)
(0.00169221 0.000566507 0.00139244)
(0.00194036 -0.00432305 0.00124578)
(0.00168733 0.000760423 0.000985304)
(0.00218119 -0.00643298 0.000495409)
(0.00189458 0.00241575 -0.000357266)
(0.00201023 -0.0070808 -0.000181612)
(0.00223427 0.00543515 -0.000688302)
(0.0019853 -0.00597638 8.45266e-05)
(0.00461398 0.00864541 -0.000857289)
(0.00348401 -0.0122066 -0.00144619)
(0.00218423 0.0116835 -0.0054599)
(0.00205966 -0.00103312 -0.00617767)
(0.0107727 0.0468704 -0.00336977)
(0.00150063 -0.0393606 -0.00816398)
(0.0107305 0.0668431 0.000740438)
(0.0186603 -0.0689995 -0.0184462)
(-0.0427959 0.0551728 -0.107352)
(0.0209065 -0.088065 -0.101937)
(0.103502 -0.239457 0.0151184)
(0.0737607 -0.103109 0.00201798)
(0.0454593 -0.177097 -0.00827534)
(0.03999 -0.216982 -0.00951347)
(0.0362179 -0.221683 -0.00787223)
(0.0281887 -0.229784 -0.00730805)
(0.0220127 -0.235858 -0.00631481)
(0.0179524 -0.237388 -0.00548846)
(0.0152643 -0.234836 -0.00479903)
(0.0130281 -0.229598 -0.00431557)
(0.0107104 -0.223305 -0.00401761)
(0.00869956 -0.215984 -0.00383244)
(0.00686099 -0.207945 -0.00380897)
(0.00525172 -0.198579 -0.00377117)
(0.00358958 -0.187414 -0.00363395)
(0.00185949 -0.174452 -0.00337712)
(-0.000135175 -0.159614 -0.00311555)
(-0.0021875 -0.143256 -0.00296456)
(-0.00326917 -0.125436 -0.00320862)
(-0.00380197 -0.107676 -0.00341516)
(-0.00311324 -0.0920238 -0.00383322)
(-0.00110368 -0.0782782 -0.00436427)
(0.00028112 -0.0694575 -0.00424068)
(0.00321948 -0.0643375 -0.00434339)
(0.00735587 -0.0595602 -0.00526344)
(0.00799085 -0.0543723 -0.00700608)
(0.0057208 -0.0490811 -0.00754424)
(0.00420043 -0.042669 -0.00619889)
(0.00609172 -0.0391982 -0.00315006)
(0.00709933 -0.037456 -0.00111148)
(0.00686301 -0.0352509 -0.000547818)
(0.00509626 -0.0316097 -0.001315)
(0.00465195 -0.0237656 -0.00183369)
(-0.00186292 -0.0152437 -0.00581205)
(-0.00752556 0.00742559 0.00285055)
(-0.0097142 0.00440988 0.0208929)
(0.0174052 0.0192299 0.00310227)
(0.0179643 0.00772198 0.00265647)
(0.0119578 0.00436286 0.000287056)
(0.0109433 0.00145566 0.00153893)
(0.00668651 -0.00210847 0.0024215)
(0.00548396 -0.00304143 0.00307273)
(0.00245108 -0.00424948 0.00373829)
(0.00150729 -0.00249545 0.00327376)
(0.000825783 -0.000395099 0.00275659)
(0.000928108 0.00211385 0.00295534)
(0.00144606 0.00324585 0.00323407)
(0.00218225 0.00385319 0.00378434)
(0.00273642 0.00344342 0.00400365)
(0.0031577 0.00292657 0.00417495)
(0.00329057 0.0020263 0.00409865)
(0.00346556 0.00135436 0.0040536)
(0.00350896 0.00067079 0.00394366)
(0.0036188 0.000301739 0.00385924)
(0.0036874 -5.91196e-05 0.0037318)
(0.00372207 -0.000227529 0.00368766)
(0.00372455 -0.000378686 0.00366474)
(0.00370684 -0.000439454 0.00368302)
(0.00367233 -0.000483813 0.00371739)
(0.00362865 -0.000496747 0.00376951)
(0.00357816 -0.000498788 0.00383104)
(0.00352533 -0.000494302 0.00389997)
(0.00347275 -0.000488949 0.00397265)
(0.00342021 -0.000487545 0.00404448)
(0.00336901 -0.000477897 0.00411569)
(0.00331325 -0.000488366 0.00418077)
(0.003271 -0.000454503 0.00425265)
(0.00319809 -0.000508538 0.00430644)
(0.00317232 -0.000379928 0.00438623)
(0.00306543 -0.000553647 0.00440856)
(0.00310245 -0.000202892 0.00448379)
(0.00293084 -0.000706608 0.00448255)
(0.00304071 8.83664e-05 0.00459149)
(0.00278764 -0.00104154 0.0045585)
(0.00297713 0.000509133 0.00471934)
(0.00266734 -0.00166651 0.00464634)
(0.00298013 0.000908344 0.00482858)
(0.00272388 -0.00281142 0.00476083)
(0.00313307 0.0013047 0.00481293)
(0.00305447 -0.00456586 0.00467674)
(0.00341047 0.00233301 0.00453078)
(0.00330858 -0.0065443 0.00405168)
(0.00369543 0.00469427 0.00364553)
(0.00315986 -0.00753753 0.00361159)
(0.00368573 0.00642026 0.00304303)
(0.00299907 -0.00804422 0.00405274)
(0.00870928 0.00595377 0.00194162)
(0.00540903 -0.00825982 0.000937741)
(0.000723847 0.0147906 -0.00183178)
(-0.00177789 0.000483328 -0.00184729)
(0.0188331 0.0474719 0.00348621)
(0.0209656 -0.0400591 0.0060674)
(-0.0156499 0.0245168 0.0137074)
(0.00408377 -0.0361037 -0.0259034)
(0.0227123 0.132447 -0.0511346)
(0.151378 -0.102663 -0.0428496)
(0.170335 -0.232565 0.048241)
(0.0992426 -0.0158292 0.0199981)
(0.0477512 -0.132476 -0.0121475)
(0.0466521 -0.131155 -0.00393866)
(0.0389371 -0.139436 0.00124807)
(0.0222995 -0.156054 0.00223718)
(0.0107116 -0.164904 0.00203826)
(0.00468509 -0.168125 0.00244002)
(0.00177342 -0.168629 0.00312737)
(-0.000364334 -0.167578 0.00341675)
(-0.00233579 -0.165462 0.00333572)
(-0.00430383 -0.161821 0.00286244)
(-0.00638957 -0.157095 0.00227653)
(-0.00842103 -0.151732 0.00152174)
(-0.0107388 -0.14536 0.000980852)
(-0.0132602 -0.137602 0.000455663)
(-0.0154612 -0.128453 0.000136905)
(-0.0168196 -0.117478 5.38052e-05)
(-0.0168644 -0.104042 -0.000832769)
(-0.0151062 -0.0902597 -0.00117381)
(-0.0113799 -0.0782095 -0.00234516)
(-0.00508911 -0.0667174 -0.00226939)
(0.00027827 -0.0596022 -0.000895925)
(0.000443791 -0.0524667 -0.00398349)
(-0.0011039 -0.0410303 -0.00564624)
(0.00145513 -0.0328699 -0.00192635)
(0.00592136 -0.0303527 0.00284776)
(0.0092735 -0.030735 0.0061698)
(0.0101585 -0.0335551 0.0083287)
(0.00850199 -0.036021 0.00814951)
(0.00428815 -0.0366231 0.00687888)
(-0.000140822 -0.0330294 0.0035037)
(-0.00569914 -0.0217554 0.000263623)
(-0.0107401 -0.00881901 -0.0044907)
(-0.0160305 0.0115545 0.0078742)
(-0.0169659 0.00482158 0.0244369)
(0.0215146 0.0230904 0.00401575)
(0.0227908 0.0142505 0.00349842)
(0.0157044 0.0105808 0.00146603)
(0.0145727 0.00810044 0.00265504)
(0.0085945 0.00293931 0.00319777)
(0.00626382 0.00106136 0.00378196)
(0.00108355 -0.00186633 0.00494259)
(-0.000632834 -0.000929224 0.00459736)
(-0.00172541 0.000275424 0.00403745)
(-0.00103564 0.00230402 0.00396825)
(-0.000128398 0.00301653 0.00405317)
(0.001036 0.00364365 0.00442908)
(0.00171051 0.00347883 0.00463383)
(0.00234171 0.00337625 0.00478235)
(0.00261011 0.00270807 0.0047129)
(0.00289248 0.00215679 0.00467514)
(0.00288449 0.00145897 0.00460283)
(0.00296981 0.0010201 0.00459844)
(0.00291234 0.00056444 0.00459235)
(0.00288769 0.000328956 0.00462646)
(0.00280911 0.000107849 0.00466104)
(0.00273853 -2.63711e-07 0.00471155)
(0.00265572 -8.29908e-05 0.00476054)
(0.00257684 -0.000117998 0.00481508)
(0.00249844 -0.000129411 0.0048697)
(0.00242525 -0.000124365 0.00492635)
(0.00235604 -0.000116437 0.00498453)
(0.00228714 -0.000112208 0.00504185)
(0.00221999 -0.000106591 0.0050969)
(0.0021508 -0.000112368 0.00514931)
(0.00209646 -9.56003e-05 0.00520118)
(0.0020037 -0.000135883 0.00524125)
(0.00197068 -4.56034e-05 0.00529447)
(0.00183474 -0.000205996 0.00532291)
(0.00186807 7.18274e-05 0.00539928)
(0.00165132 -0.000392674 0.00540875)
(0.00179036 0.000288754 0.00551095)
(0.00145147 -0.000778787 0.00549474)
(0.00176486 0.000613899 0.0056292)
(0.00125733 -0.00143279 0.00556955)
(0.00187226 0.00105117 0.00572184)
(0.00118937 -0.00224351 0.00559658)
(0.00216897 0.00182385 0.00566645)
(0.00134024 -0.00291827 0.00548445)
(0.00263415 0.00350103 0.00548138)
(0.00151713 -0.00366827 0.00544629)
(0.00299433 0.00567223 0.0055267)
(0.00176862 -0.00534675 0.00583527)
(0.00330774 0.00665554 0.00548462)
(0.00233548 -0.0070527 0.00563154)
(0.00545631 0.00691727 0.0028904)
(0.00150698 0.00258015 0.00220955)
(-0.00141829 0.0228992 -0.000151866)
(-0.00572892 -0.00982762 -0.00106446)
(0.0326299 0.0344727 0.00308604)
(0.0363953 -0.0637275 0.00702351)
(-0.034731 0.0423804 0.0210309)
(-0.0611362 -0.130163 -0.00920079)
(-0.0373837 0.169016 -0.0881099)
(0.152519 -0.119133 -0.00865882)
(0.205505 -0.215746 0.0564058)
(0.129081 0.0421909 0.00972472)
(0.108929 -0.106114 -0.0130818)
(0.0899569 -0.0723769 0.000299973)
(0.0675543 -0.0903645 0.00519961)
(0.0425592 -0.103689 0.0082133)
(0.0279194 -0.108174 0.010137)
(0.0181059 -0.111091 0.0116336)
(0.0107552 -0.113302 0.0121416)
(0.0054437 -0.115579 0.0113896)
(0.00198649 -0.11631 0.00961762)
(-0.00072012 -0.115143 0.00729995)
(-0.00310922 -0.111767 0.00500079)
(-0.00594678 -0.107053 0.00284557)
(-0.00969318 -0.101004 0.00124485)
(-0.0138613 -0.0927936 0.000241518)
(-0.0193197 -0.0836249 -0.000757101)
(-0.022959 -0.0734435 -0.00157286)
(-0.0230162 -0.0640968 0.000296325)
(-0.0215335 -0.056997 0.00111123)
(-0.0182736 -0.0488415 -0.00512131)
(-0.0137311 -0.0325882 -0.00809383)
(-0.00871245 -0.0192605 -0.00338489)
(-0.00315297 -0.0136696 0.00132023)
(0.0036758 -0.0141064 0.00504259)
(0.00958711 -0.0183805 0.00830755)
(0.0133017 -0.0238913 0.0115779)
(0.0139927 -0.0284101 0.0157343)
(0.0123793 -0.0338208 0.0189546)
(0.00808909 -0.0375095 0.0182074)
(-0.00101944 -0.0390925 0.0150761)
(-0.0101726 -0.0361451 0.0102657)
(-0.0174977 -0.0253799 0.00540602)
(-0.0247387 -0.0127513 -0.00203397)
(-0.0292617 0.00828223 0.00891757)
(-0.0309991 0.00327263 0.0258546)
(0.0248192 0.0261024 0.00369014)
(0.0269155 0.0178872 0.00269519)
(0.0191925 0.01346 -5.07233e-05)
(0.0197597 0.0127256 0.000441049)
(0.0124386 0.00669108 1.9316e-06)
(0.00889499 0.00408335 0.00170724)
(0.000920529 -0.00112214 0.00412262)
(-0.00228834 -0.00110203 0.00378067)
(-0.0039451 -0.00100903 0.00392905)
(-0.00281139 0.00138394 0.0039689)
(-0.00172514 0.00184479 0.00422853)
(-0.000646306 0.00292913 0.00474268)
(0.000180926 0.00319256 0.00489347)
(0.000870012 0.00343329 0.00496501)
(0.00133674 0.00297277 0.00480801)
(0.00167601 0.00255808 0.00473684)
(0.00167605 0.00187574 0.00463981)
(0.0017753 0.00141642 0.00462457)
(0.00167883 0.000888259 0.00460426)
(0.00163664 0.000580422 0.00463617)
(0.00153109 0.000287386 0.00467322)
(0.00144546 0.000135163 0.0047326)
(0.0013385 2.82123e-05 0.00478438)
(0.00122928 -1.43734e-05 0.00483541)
(0.00112636 -2.68312e-05 0.00488757)
(0.00103826 -1.52886e-05 0.00494352)
(0.000961908 2.08139e-06 0.00500159)
(0.000890361 1.59483e-05 0.00505958)
(0.000820613 2.54175e-05 0.00511626)
(0.000750588 2.37208e-05 0.00516909)
(0.000686936 3.70962e-05 0.00521718)
(0.000599552 6.83468e-06 0.00525305)
(0.000560362 7.5721e-05 0.0053018)
(0.00043758 -6.74479e-05 0.00532407)
(0.00047081 0.000168142 0.00539393)
(0.000261686 -0.000260579 0.00540098)
(0.000425682 0.000358955 0.00549401)
(7.9706e-05 -0.000631401 0.00548547)
(0.000452363 0.000685539 0.00559418)
(-8.49214e-05 -0.0011495 0.00555645)
(0.0005773 0.00122762 0.0056192)
(-0.000161979 -0.00154222 0.00555579)
(0.000680693 0.00222938 0.00541749)
(-6.41107e-06 -0.00143454 0.00544055)
(0.0010101 0.00400468 0.00514426)
(0.000467777 -0.00125728 0.00550671)
(0.00188593 0.00588943 0.00524293)
(0.00103966 -0.00194404 0.00568614)
(0.00221867 0.00674035 0.00503642)
(0.000828404 -0.0015174 0.00497317)
(-0.000129496 0.0108336 0.00254071)
(-0.000839379 0.00368589 0.00337726)
(0.00446655 0.0211911 0.000924725)
(-0.00113412 -0.0226934 -0.00336407)
(0.054524 -7.09179e-05 0.012107)
(0.0277503 -0.0795263 0.0129862)
(-0.00989892 0.0290552 0.0227096)
(-0.0888694 -0.144092 0.0140899)
(0.00469228 0.19227 -0.16108)
(0.17381 -0.158876 0.00509356)
(0.219576 -0.20384 0.0646324)
(0.13475 0.0661942 -0.00385141)
(0.131161 -0.0708134 -0.00721068)
(0.0745564 0.00614431 -0.00181743)
(0.0459752 -0.0406707 0.00576851)
(0.0240765 -0.0396613 0.010317)
(0.0100308 -0.0501149 0.0137817)
(0.000464639 -0.0576903 0.0145331)
(-0.00633851 -0.0615972 0.0124657)
(-0.0102684 -0.0630042 0.00893355)
(-0.0117546 -0.0612925 0.00515062)
(-0.0122705 -0.057354 0.00159985)
(-0.0128617 -0.0510457 -0.00105136)
(-0.0154243 -0.0451218 -0.00203008)
(-0.0181284 -0.0388123 -0.00111373)
(-0.0206191 -0.031936 0.00115543)
(-0.0248724 -0.0270273 0.00128581)
(-0.0292566 -0.0212949 -0.00361915)
(-0.0306734 -0.0073573 -0.00834013)
(-0.0275351 0.00341242 -0.00835662)
(-0.0210499 0.011156 -0.00456399)
(-0.0118522 0.0142633 0.00250165)
(-0.00251362 0.0120856 0.00871507)
(0.00420303 0.00735954 0.0132454)
(0.00809887 0.00149868 0.0169032)
(0.00950022 -0.00507745 0.0202592)
(0.00798125 -0.0121264 0.0239224)
(0.0037269 -0.0208484 0.0273396)
(-0.00261081 -0.0286707 0.0277707)
(-0.0096732 -0.0344246 0.0217456)
(-0.018588 -0.0373073 0.0121961)
(-0.0272995 -0.0343367 0.00456689)
(-0.0333055 -0.0252731 0.00108215)
(-0.0382903 -0.0140711 -0.00466252)
(-0.042371 0.00732784 0.00752157)
(-0.0427817 0.00169263 0.0265629)
(0.027574 0.0282088 0.00365792)
(0.0306435 0.0210406 0.00291478)
(0.0215548 0.0148984 -0.000560534)
(0.0233505 0.0155799 -0.000614638)
(0.0178831 0.00981095 -0.00255798)
(0.015207 0.00927771 -0.000910361)
(0.0041582 0.00127495 0.000138955)
(-0.000788995 0.000335032 0.00148389)
(-0.00518262 -0.00205922 0.0027111)
(-0.00502695 -8.36146e-05 0.003483)
(-0.00400381 0.000216004 0.0040951)
(-0.00316959 0.00198389 0.00482523)
(-0.00227848 0.0027709 0.00490369)
(-0.00141575 0.00333756 0.00491275)
(-0.000706163 0.00306218 0.00461371)
(-0.000331743 0.00270047 0.0045111)
(-0.000362883 0.00204124 0.00438375)
(-0.000364552 0.00160328 0.00437595)
(-0.000562582 0.00108117 0.00432902)
(-0.000691848 0.000748936 0.0043353)
(-0.000883959 0.000417437 0.00433097)
(-0.00103793 0.00022469 0.00434536)
(-0.0011902 8.16178e-05 0.00436116)
(-0.00131923 1.54434e-05 0.00438835)
(-0.00143064 -9.46004e-06 0.00441928)
(-0.00151858 -4.22835e-06 0.00445616)
(-0.00158748 1.1632e-05 0.00449568)
(-0.00164712 2.85646e-05 0.00453619)
(-0.00170468 4.29511e-05 0.0045767)
(-0.00176275 4.79652e-05 0.004615)
(-0.00181788 6.18214e-05 0.00464984)
(-0.00188557 3.36733e-05 0.00467338)
(-0.00191286 8.72482e-05 0.00470695)
(-0.00201148 -5.26682e-05 0.00470508)
(-0.00196662 0.000159994 0.00475943)
(-0.00215169 -0.000261724 0.00473314)
(-0.0019726 0.000338668 0.00482667)
(-0.00229646 -0.000597087 0.00478097)
(-0.00193392 0.000710918 0.00489296)
(-0.00243183 -0.000930293 0.0048282)
(-0.00191952 0.00139524 0.00485033)
(-0.00249924 -0.00093428 0.00480256)
(-0.00206311 0.0025888 0.0045355)
(-0.00237919 -0.000364545 0.0046916)
(-0.00203005 0.00442226 0.00413461)
(-0.00185945 0.000285986 0.00472828)
(-0.00134684 0.00636593 0.00404507)
(-0.00107665 -3.03344e-05 0.00449461)
(-0.00123666 0.00788336 0.00337299)
(-0.00155092 0.000113429 0.00294105)
(-0.00321233 0.0121264 0.000743158)
(-0.000969816 -0.00261621 0.00261151)
(0.015038 0.0185017 0.000869873)
(0.0264467 -0.0322146 0.00797105)
(0.0635616 -0.0315415 0.0244288)
(0.0353873 -0.0886433 0.0328379)
(-0.0262917 -0.0390724 0.0681658)
(-0.123839 -0.15838 0.0707779)
(0.0284937 0.126688 -0.148467)
(0.132583 -0.197113 0.0306318)
(0.20056 -0.17197 0.0734839)
(0.109936 0.0970548 -0.020882)
(0.123239 0.0160122 0.000257708)
(0.0838382 0.0584117 0.00287752)
(0.0683968 0.0226841 0.0144414)
(0.0318515 0.0152145 0.0121006)
(0.0152023 -0.00313519 0.0124927)
(0.00291503 -0.0141912 0.0102527)
(-0.00473479 -0.0226261 0.00606566)
(-0.00845902 -0.0252455 0.000715793)
(-0.00894414 -0.0221052 -0.00410838)
(-0.00826626 -0.0143286 -0.00689109)
(-0.00955468 -0.00354972 -0.00749624)
(-0.0140684 0.00721071 -0.00703739)
(-0.0209598 0.0203647 -0.00780471)
(-0.0271835 0.0359626 -0.00615186)
(-0.0313629 0.045238 -0.00401164)
(-0.0323431 0.0507651 -0.00192799)
(-0.0287438 0.0548856 0.00266064)
(-0.0226436 0.0534736 0.00817107)
(-0.0157771 0.0504354 0.0134314)
(-0.0091376 0.0451795 0.0175586)
(-0.00441758 0.0387376 0.0203322)
(-0.0014021 0.0313996 0.0223399)
(0.000199013 0.0232385 0.0241407)
(0.000805471 0.0136294 0.0258095)
(-0.000439614 0.00276272 0.0267711)
(-0.00484776 -0.0101196 0.0247385)
(-0.0109086 -0.0230179 0.015666)
(-0.0153303 -0.0276538 0.00430855)
(-0.0208954 -0.0261192 -0.00156843)
(-0.0293905 -0.0212635 -0.00504147)
(-0.0392382 -0.0121652 -0.00699046)
(-0.0506584 0.000778806 -0.00661648)
(-0.0537797 0.0137957 0.00887204)
(-0.0551052 0.00289262 0.0251062)
(0.0284444 0.0294388 0.0062346)
(0.0340009 0.0248114 0.00466156)
(0.0232335 0.0159921 0.00070087)
(0.0251106 0.017191 0.0011091)
(0.0202231 0.00966566 -0.00222089)
(0.0198196 0.0104271 -0.000383427)
(0.0112075 0.00230647 -0.00330386)
(0.00359696 0.00180036 -0.00164795)
(-0.0033628 -0.00198996 0.000915186)
(-0.00521359 -0.00103441 0.00228543)
(-0.00546403 -0.00156939 0.00340288)
(-0.00515912 0.000562587 0.00442724)
(-0.00377508 0.00180135 0.00464536)
(-0.00259085 0.00294289 0.00486742)
(-0.0015066 0.00280728 0.00468853)
(-0.00104783 0.00247614 0.00472228)
(-0.00108693 0.00181692 0.00459933)
(-0.00117722 0.00146572 0.00461958)
(-0.0014303 0.00104154 0.00452869)
(-0.00160015 0.000810517 0.00448351)
(-0.00181897 0.000564095 0.00438808)
(-0.00199412 0.000429072 0.00430141)
(-0.00215546 0.00031445 0.0042154)
(-0.00228563 0.000257035 0.0041484)
(-0.00238837 0.000229332 0.00409481)
(-0.00245855 0.000227698 0.00405907)
(-0.00250453 0.000238321 0.00403673)
(-0.00253821 0.000254593 0.00402494)
(-0.00256589 0.000272636 0.00402232)
(-0.00259034 0.000285503 0.00402458)
(-0.00261196 0.000303175 0.00402959)
(-0.00264296 0.000285522 0.00402943)
(-0.0026494 0.000341065 0.00403824)
(-0.00271804 0.000215716 0.00400952)
(-0.00264369 0.000428512 0.00405171)
(-0.00281221 3.62137e-05 0.00398133)
(-0.00260596 0.000638961 0.0040853)
(-0.00294027 -0.000201653 0.0039617)
(-0.00258862 0.00108377 0.00410666)
(-0.00307911 -0.0003342 0.0039488)
(-0.00273028 0.00187092 0.0039904)
(-0.00315573 -0.000145629 0.00386798)
(-0.00322447 0.00307484 0.00354945)
(-0.00304801 0.000279996 0.00372946)
(-0.00355099 0.00459994 0.00312524)
(-0.00244339 0.000402415 0.00393105)
(-0.00281999 0.00617108 0.0036023)
(-0.00162923 -0.000237106 0.00424298)
(-0.00241814 0.00778588 0.00355714)
(-0.00208183 -0.000922534 0.00255139)
(-0.00220067 0.0101968 0.000201368)
(-0.000737183 -0.00697474 -5.92462e-05)
(0.019077 0.0151569 0.00220627)
(0.0418951 -0.0325538 0.023501)
(0.0566542 -0.0220487 0.0619488)
(0.0241132 -0.0610182 0.0691548)
(-0.0236106 -0.0395111 0.116592)
(-0.0843415 -0.161213 0.117814)
(0.0453371 0.0735564 -0.139695)
(0.0900113 -0.231161 0.0360207)
(0.151464 -0.113882 0.0656878)
(0.0801116 0.121405 -0.0184118)
(0.104144 0.0760863 -0.00121825)
(0.0818007 0.115698 0.00067805)
(0.0594682 0.106528 0.00464661)
(0.0406333 0.0860479 0.00561843)
(0.0229912 0.0691516 0.00383816)
(0.00981106 0.0546766 0.000880753)
(0.00263569 0.0486448 -0.00350542)
(-0.00254752 0.0493187 -0.00822013)
(-0.00679254 0.0573486 -0.0092445)
(-0.011913 0.072301 -0.00500508)
(-0.017243 0.0838018 -0.00115465)
(-0.0224522 0.093035 0.00115387)
(-0.0281062 0.0999365 0.00393821)
(-0.0297217 0.105687 0.00750202)
(-0.0313689 0.106717 0.0110242)
(-0.0310141 0.106154 0.0140278)
(-0.0286394 0.103101 0.0160354)
(-0.0251268 0.0974031 0.0162453)
(-0.0212047 0.0905504 0.0147522)
(-0.0170517 0.0830805 0.0126611)
(-0.0134095 0.074899 0.0102339)
(-0.0107868 0.0663525 0.00833819)
(-0.00943481 0.0562355 0.00698924)
(-0.00920678 0.0436848 0.00537802)
(-0.0104513 0.0301556 0.00275129)
(-0.0144744 0.0152844 -0.000210037)
(-0.0192586 0.00476666 -0.00361742)
(-0.0223168 0.00228393 -0.00611831)
(-0.0271062 0.00666674 -0.0067614)
(-0.0367835 0.0122401 -0.00841977)
(-0.0474545 0.0172674 -0.00775863)
(-0.0533069 0.0199492 -0.00282251)
(-0.0521287 0.0182336 0.0120049)
(-0.057116 0.00558001 0.0231977)
(0.0262201 0.0305483 0.00740564)
(0.034602 0.0294353 0.00922494)
(0.0225689 0.0162967 0.00408954)
(0.023926 0.0191222 0.00706631)
(0.0194307 0.00669655 0.00302072)
(0.020111 0.00907333 0.00402805)
(0.0151619 0.00152954 -0.00110579)
(0.00724875 0.00169885 -0.00302773)
(-0.000680661 -0.00204197 -0.00117358)
(-0.00443709 -0.000532225 0.00111437)
(-0.00628072 -0.00228965 0.00241968)
(-0.00743806 -0.000402988 0.00365049)
(-0.00683614 0.000790985 0.00423176)
(-0.00524581 0.00226101 0.0051188)
(-0.0037964 0.00214861 0.00541751)
(-0.0034122 0.00197179 0.00569372)
(-0.00364662 0.00145555 0.00556957)
(-0.00403014 0.00127907 0.00552083)
(-0.0044448 0.00102656 0.00534008)
(-0.0047248 0.000950916 0.00521343)
(-0.0049782 0.00083525 0.0050269)
(-0.00513448 0.000794972 0.00486429)
(-0.0052594 0.000741403 0.00471615)
(-0.00534389 0.000726106 0.00460774)
(-0.0053921 0.000722673 0.00452858)
(-0.00540538 0.000735204 0.00447781)
(-0.00539479 0.000752461 0.00445099)
(-0.00537665 0.000768767 0.00444503)
(-0.00536144 0.000787922 0.00445176)
(-0.00534208 0.000806106 0.00445805)
(-0.00532926 0.00082546 0.00446106)
(-0.00532115 0.000819852 0.00445918)
(-0.00530197 0.000868963 0.00446471)
(-0.00530709 0.000775028 0.00444992)
(-0.00523486 0.000969271 0.00448679)
(-0.00529861 0.000641715 0.00444069)
(-0.00516556 0.00119942 0.00453725)
(-0.00530606 0.000497598 0.0044302)
(-0.00517023 0.00166768 0.00456313)
(-0.00530521 0.000476597 0.00443891)
(-0.00540257 0.00245273 0.00444598)
(-0.0052547 0.000559932 0.00438022)
(-0.00593412 0.00348797 0.00405253)
(-0.00502987 0.000304406 0.00421667)
(-0.00649277 0.00450022 0.00360715)
(-0.00457155 -0.000502641 0.00430704)
(-0.00636857 0.00537155 0.00413441)
(-0.0041322 -0.00153443 0.00534724)
(-0.00578356 0.00588294 0.00542594)
(-0.00429173 -0.00382823 0.00471548)
(-0.00351411 0.00480512 0.00154397)
(-0.00256296 -0.00832669 -0.000765222)
(0.0238639 0.00504368 0.0124708)
(0.0296106 -0.021093 0.0299621)
(0.00301869 0.0118411 0.0600754)
(-0.0112316 -0.0295461 0.0769841)
(-0.0195518 -0.0195609 0.108052)
(-0.0538708 -0.120686 0.0929727)
(0.0271937 -0.0120511 -0.143416)
(0.0401113 -0.252391 0.031508)
(0.0712154 -0.0433374 0.0588261)
(0.0445938 0.147084 -0.00682268)
(0.0658602 0.146149 0.0012449)
(0.0651599 0.188179 0.00516368)
(0.0617694 0.197762 0.0065125)
(0.0494545 0.197676 0.00659571)
(0.0367323 0.18907 0.00658298)
(0.0226667 0.176742 0.00497538)
(0.00845557 0.167618 0.00412577)
(-0.00259215 0.164155 0.00379217)
(-0.0120974 0.164452 0.00529046)
(-0.0184791 0.166411 0.006994)
(-0.0251888 0.167088 0.00840331)
(-0.0297981 0.168946 0.0102944)
(-0.033808 0.167626 0.0128135)
(-0.035709 0.165692 0.0134061)
(-0.0362872 0.160454 0.0134792)
(-0.0346745 0.154998 0.0118029)
(-0.0312591 0.147394 0.00858384)
(-0.0261122 0.141792 0.00465157)
(-0.0203911 0.137463 0.0016825)
(-0.0148853 0.134438 -0.000778342)
(-0.00943981 0.131646 -0.0026711)
(-0.00416032 0.127989 -0.00394872)
(0.00128938 0.122214 -0.00556228)
(0.00766615 0.114754 -0.00695486)
(0.011923 0.105746 -0.00685098)
(0.00787 0.0900898 -0.00606621)
(-0.000365666 0.0675164 -0.00742574)
(-0.00807521 0.0521968 -0.0102759)
(-0.0182298 0.0403521 -0.00861607)
(-0.0258629 0.0366751 -0.00609334)
(-0.0355731 0.0307802 -0.00448461)
(-0.0424979 0.0260274 0.00139853)
(-0.0487839 0.0189548 0.0121101)
(-0.0578143 0.00730833 0.0186765)
(0.0228283 0.0273372 0.00453848)
(0.0324543 0.0332758 0.00985454)
(0.018668 0.0170649 0.0062132)
(0.020297 0.0219009 0.0104625)
(0.0154721 0.00605606 0.00669958)
(0.0155702 0.00851935 0.00689583)
(0.0138095 0.000446749 0.00356727)
(0.00868436 0.00166186 -0.00144233)
(0.000355546 -0.00317816 -0.0019171)
(-0.00372074 -0.000980052 0.000605799)
(-0.00557535 -0.00229985 0.00197195)
(-0.00765952 -0.00116992 0.00336428)
(-0.00722191 -0.00136074 0.00453353)
(-0.00559318 -0.000336261 0.00596713)
(-0.00392061 -0.000389611 0.00698839)
(-0.00368031 0.000230589 0.00778596)
(-0.00386358 0.000347682 0.00805584)
(-0.00419207 0.000769872 0.00815166)
(-0.00447666 0.000888566 0.00802444)
(-0.00464711 0.00115272 0.00788429)
(-0.00481331 0.00127122 0.00765233)
(-0.0049233 0.00138047 0.00744127)
(-0.00501862 0.00139795 0.00724914)
(-0.00507495 0.00141022 0.00710025)
(-0.00509492 0.00140616 0.00698709)
(-0.00507751 0.00140007 0.00690621)
(-0.00503638 0.00139454 0.00684558)
(-0.00497967 0.00139481 0.00680174)
(-0.00492275 0.00139675 0.00676855)
(-0.00486787 0.00139842 0.00674185)
(-0.00482023 0.00140432 0.00671871)
(-0.00477391 0.00139655 0.00670026)
(-0.00473477 0.00143245 0.00668365)
(-0.00469847 0.00136325 0.00665526)
(-0.00463404 0.00155745 0.00664866)
(-0.00464946 0.00128503 0.0065724)
(-0.00459183 0.00183734 0.00657836)
(-0.00466889 0.00119637 0.00642061)
(-0.00469716 0.00232489 0.00644251)
(-0.00470966 0.00110921 0.0062298)
(-0.00500436 0.0030259 0.00623774)
(-0.00456351 0.000808649 0.00598681)
(-0.00555676 0.00381982 0.00591455)
(-0.00410358 -0.000397482 0.00577345)
(-0.00623533 0.00435953 0.00571148)
(-0.00340881 -0.00228764 0.00606539)
(-0.00625945 0.0045236 0.00666807)
(-0.00264719 -0.00355871 0.00781856)
(-0.00474478 0.00457559 0.00977762)
(-0.00152945 -0.00433806 0.009356)
(-0.00256608 0.00251267 0.00897552)
(0.000955626 -0.00545499 0.0111184)
(0.00454771 0.000938077 0.0316429)
(-0.0059014 0.0171235 0.0421801)
(-0.0170591 0.0397505 0.0580949)
(-0.0172413 -0.00448607 0.0718463)
(0.00649414 0.0187966 0.117501)
(0.0347399 -0.0808215 0.070851)
(-0.0109473 -0.0359021 -0.126793)
(-0.00406281 -0.256172 0.0411636)
(-0.018218 -0.012736 0.0674352)
(0.00431437 0.159273 -0.00534911)
(0.0260167 0.168002 0.00743891)
(0.0463132 0.211806 0.00644794)
(0.0472894 0.23042 0.0109913)
(0.0461982 0.242757 0.0106257)
(0.0363196 0.250555 0.0116453)
(0.0268272 0.252377 0.0104624)
(0.0142422 0.253735 0.0105065)
(0.00492679 0.250447 0.00977938)
(-0.00641723 0.246871 0.00967726)
(-0.0151677 0.243187 0.00937765)
(-0.0221469 0.238453 0.00956006)
(-0.0244786 0.233485 0.0091337)
(-0.0263125 0.226615 0.00915799)
(-0.0268603 0.219693 0.00837604)
(-0.0259849 0.211328 0.00757426)
(-0.023834 0.203135 0.006276)
(-0.0209944 0.195704 0.00567293)
(-0.0162779 0.189698 0.00574727)
(-0.0107997 0.184629 0.00643925)
(-0.00493839 0.179902 0.00655064)
(0.00174622 0.176387 0.00695907)
(0.00750684 0.170976 0.00617528)
(0.0122619 0.169897 0.003394)
(0.0153616 0.169138 0.00136044)
(0.0170231 0.171536 0.00033474)
(0.0165277 0.172788 0.000979477)
(0.0102653 0.166542 0.00460903)
(0.00229456 0.155079 0.00429465)
(-0.00784062 0.138617 0.00514816)
(-0.0165841 0.125171 0.00599452)
(-0.0249004 0.104158 0.0069529)
(-0.0330677 0.0828022 0.00707739)
(-0.0413291 0.0538066 0.00519207)
(-0.0501506 0.0184213 -0.00571104)
(0.0130748 0.0216338 -0.0115106)
(0.0299291 0.0339791 0.00699934)
(0.0113149 0.0189153 0.0051196)
(0.0150208 0.0267659 0.00803266)
(0.0106222 0.0115827 0.00578558)
(0.0109814 0.0115002 0.00626577)
(0.00953801 0.00180037 0.00447439)
(0.00626774 0.00204359 0.000515974)
(-2.81289e-05 -0.00286173 -0.00296077)
(-0.00473601 -0.00130251 -0.00277614)
(-0.00601035 -0.00275399 -0.00173102)
(-0.00745321 -0.00207413 -0.000412932)
(-0.00828775 -0.0030959 0.000967226)
(-0.00803118 -0.00226399 0.00231988)
(-0.00781334 -0.00192536 0.0036273)
(-0.00805878 -0.000716709 0.00449145)
(-0.00856431 -0.000251143 0.00504332)
(-0.00892323 0.000466295 0.00531614)
(-0.00928418 0.000745654 0.00540841)
(-0.00951571 0.00112681 0.00542322)
(-0.00957331 0.00132326 0.00536606)
(-0.00951464 0.00152272 0.00529987)
(-0.00944644 0.00161914 0.00522909)
(-0.00936922 0.00168078 0.00517492)
(-0.00928086 0.00170744 0.00513512)
(-0.00917586 0.00172043 0.00510894)
(-0.00905786 0.00172617 0.00508887)
(-0.0089281 0.00173191 0.00507496)
(-0.00879354 0.00173951 0.00506513)
(-0.00865382 0.00174929 0.0050575)
(-0.00851649 0.00176371 0.00504927)
(-0.00837625 0.00176863 0.00503765)
(-0.00826711 0.00180097 0.00502001)
(-0.00816057 0.00175779 0.0049935)
(-0.00808733 0.00193616 0.00496686)
(-0.00796109 0.00173047 0.00490805)
(-0.00797995 0.00223949 0.00485726)
(-0.00775692 0.0016756 0.00474561)
(-0.00798635 0.00274291 0.00468134)
(-0.0074966 0.00152874 0.00452066)
(-0.00813796 0.00350782 0.00447691)
(-0.00716595 0.000952035 0.00421525)
(-0.00825133 0.00419148 0.00428249)
(-0.00653535 -0.000808497 0.00398759)
(-0.00865847 0.00435879 0.00423387)
(-0.00583881 -0.00350197 0.0043225)
(-0.00916818 0.00440864 0.00511471)
(-0.00515097 -0.00519336 0.00615106)
(-0.00790519 0.00515126 0.00869605)
(-0.00280516 -0.00554221 0.00762192)
(-0.00698723 0.00566819 0.0099786)
(-0.00375862 -0.0110652 0.00815282)
(-0.024759 0.00728961 0.0202609)
(-0.0401324 -0.0243091 0.0367359)
(-0.0391099 0.000655733 0.0641665)
(-0.0242003 -0.0508642 0.0699781)
(0.00741331 -0.0155055 0.115257)
(0.099613 -0.153762 0.0854506)
(-0.0385383 0.0637062 -0.142167)
(-0.0524508 -0.251874 0.0330704)
(-0.11298 -0.082688 0.0419022)
(-0.0414019 0.136237 -0.0207233)