/*--------------------------------*- C++ -*----------------------------------*\
| =========                 |                                                 |
| \\      /  F ield         | OpenFOAM: The Open Source CFD Toolbox           |
|  \\    /   O peration     | Version:  2.3.0                                 |
|   \\  /    A nd           | Web:      www.OpenFOAM.org                      |
|    \\/     M anipulation  |                                                 |
\*---------------------------------------------------------------------------*/
FoamFile
{
    version     2.0;
    format      ascii;
    class       volVectorField;
    location    "23";
    object      U.water;
}
// * * * * * * * * * * * * * * * * * * * * * * * * * * * * * * * * * * * * * //

dimensions      [0 1 -1 0 0 0 0];

internalField   nonuniform List<vector> 
6144
(
(0.00889789 0.0144537 -0.00105488)
(0.00948774 -0.00464193 -0.00245244)
(0.0050212 -0.00520046 -0.00286114)
(0.00445951 -0.00768842 -0.00303328)
(0.00282007 -0.00770541 -0.00270012)
(0.00237225 -0.00634165 -0.00209982)
(0.00161349 -0.0052172 -0.00113807)
(0.00159082 -0.00342064 -0.000583219)
(0.00147282 -0.00200391 -0.000355386)
(0.00127701 -0.000210387 9.20574e-05)
(0.00119939 0.00116468 0.000470203)
(0.00131436 0.00206529 0.000978273)
(0.00149151 0.00215628 0.00120497)
(0.00166328 0.0018035 0.00142685)
(0.00179575 0.00113247 0.00123019)
(0.00190684 0.000560138 0.00107204)
(0.00197434 2.75677e-05 0.000772192)
(0.00203951 -0.00025593 0.000595943)
(0.00208767 -0.000515543 0.000379787)
(0.00211297 -0.00062371 0.000269689)
(0.00212297 -0.000722911 0.000200358)
(0.00211445 -0.000735327 0.000179672)
(0.00209983 -0.000743048 0.000184074)
(0.00207786 -0.000714628 0.000211255)
(0.00205182 -0.000682232 0.000259742)
(0.00202195 -0.000642007 0.000324054)
(0.00198962 -0.000600972 0.000396164)
(0.00195466 -0.000556716 0.000472934)
(0.001917 -0.000505647 0.000554564)
(0.00187909 -0.000449169 0.000638954)
(0.00183951 -0.00039791 0.000732808)
(0.00179089 -0.000363283 0.000851826)
(0.00173243 -0.000360608 0.00100765)
(0.00166516 -0.000422905 0.0012111)
(0.00159217 -0.000589876 0.00146694)
(0.00151921 -0.000918588 0.00176077)
(0.00145609 -0.00144956 0.00206757)
(0.00140669 -0.00218185 0.00232988)
(0.00137739 -0.00305142 0.00246176)
(0.00136624 -0.00396775 0.00237864)
(0.00137863 -0.00470363 0.00196433)
(0.00139746 -0.00499548 0.00103378)
(0.00140535 -0.00434667 -2.2474e-05)
(0.00153559 -0.00255999 -0.000903867)
(0.00191355 -0.000268986 -0.00144434)
(0.00300328 0.000967462 -0.00154675)
(0.00331169 -0.000923256 -0.00176817)
(0.00228176 0.000373463 -0.00248436)
(0.0021945 0.00103701 -0.00615448)
(0.00335125 0.02066 -0.0145313)
(0.0342506 0.0302716 -0.0360907)
(0.067917 0.00665941 -0.0498959)
(0.074525 -0.00985814 -0.0492563)
(0.0836554 -0.0387094 -0.0433008)
(0.0779143 -0.0471547 -0.0404809)
(0.0809511 -0.103037 -0.0324619)
(0.0385954 -0.0813939 -0.0390612)
(-0.00295922 -0.0929384 0.00360707)
(-0.0158794 -0.0172148 -0.0416645)
(0.0548373 0.0506173 0.0676443)
(0.200705 -0.333099 0.0799682)
(0.135147 -0.185809 0.0456506)
(0.0894319 -0.231914 0.0253298)
(0.079199 -0.214639 0.016564)
(0.0500114 -0.208662 0.00541192)
(0.0417787 -0.194751 0.00216079)
(0.0357455 -0.182732 0.00311376)
(0.0312391 -0.176389 0.00532982)
(0.0282725 -0.174523 0.00638479)
(0.0258919 -0.174842 0.00709548)
(0.024636 -0.178025 0.00848329)
(0.0236518 -0.18196 0.00886827)
(0.0212647 -0.188169 0.00713782)
(0.0218692 -0.192675 0.00605905)
(0.0217247 -0.193599 0.00582474)
(0.0215898 -0.194668 0.00415465)
(0.0205853 -0.195918 0.00334062)
(0.0188007 -0.195273 0.00391623)
(0.0133416 -0.196492 0.00375995)
(0.0114994 -0.201605 -0.000147175)
(0.0166255 -0.203276 -0.00218009)
(0.0207618 -0.197671 -0.00564196)
(0.0216227 -0.189509 -0.00744795)
(0.0126038 -0.176736 -0.00966994)
(-0.0176851 -0.145546 -0.0196898)
(-0.0364081 -0.0370764 -0.0249563)
(-0.0159655 0.0325727 -0.00544511)
(-0.00530201 0.082859 0.00735992)
(-0.00294336 0.116289 0.0126354)
(-0.00314847 0.129152 0.0152892)
(-0.00439175 0.11262 0.0257638)
(-0.00135128 0.0936736 0.0167506)
(0.00338633 0.0605385 0.0115819)
(0.00902974 0.0401744 0.00336512)
(0.0132235 0.0244105 -0.000373943)
(0.0191717 0.0171596 0.00444903)
(0.0197785 0.0195765 0.00268542)
(0.0196786 0.00598521 0.00122481)
(0.0118606 0.00457956 -0.00100123)
(0.0109204 0.00163405 0.000511383)
(0.00645672 -0.00227198 0.00158147)
(0.00478546 -0.00343179 0.00245695)
(0.00203885 -0.0044922 0.00322513)
(0.00136753 -0.00323786 0.00303735)
(0.000963283 -0.0013979 0.00266293)
(0.00101339 0.000870971 0.00277066)
(0.00135851 0.0022449 0.00306433)
(0.0019103 0.00319369 0.00360886)
(0.00249727 0.00322381 0.00386443)
(0.00299907 0.00294579 0.00408027)
(0.00325532 0.00216045 0.00408044)
(0.00345093 0.00146909 0.00405165)
(0.00349268 0.00075067 0.00395957)
(0.00357434 0.000328176 0.00390901)
(0.00363355 -6.39476e-05 0.00377604)
(0.00366807 -0.000255696 0.00372813)
(0.00366334 -0.00042603 0.00369973)
(0.00362971 -0.000482732 0.00371401)
(0.00357928 -0.00051945 0.00374711)
(0.00351551 -0.000507672 0.00380446)
(0.00344561 -0.000482054 0.00387407)
(0.0033715 -0.000442361 0.00395317)
(0.00329327 -0.000398199 0.00403898)
(0.00320905 -0.00035174 0.00413016)
(0.00311831 -0.00030297 0.00422519)
(0.00303128 -0.000253689 0.00430617)
(0.00294988 -0.000220258 0.00436842)
(0.00286169 -0.000221634 0.00444104)
(0.00277239 -0.000270757 0.00452531)
(0.00269361 -0.000399587 0.00462596)
(0.00263918 -0.000638092 0.00474481)
(0.00261937 -0.00102731 0.0048764)
(0.00264353 -0.00158192 0.00501205)
(0.00269657 -0.00229794 0.00513303)
(0.00276063 -0.00311936 0.00519668)
(0.00279615 -0.00395099 0.0051646)
(0.00271514 -0.004621 0.0049731)
(0.00259222 -0.00478142 0.00434757)
(0.00250862 -0.00413898 0.00315799)
(0.00237648 -0.0028738 0.00196818)
(0.00318088 -0.00186057 0.0018749)
(0.00533399 -0.00239969 0.00263268)
(0.00528508 -0.00488757 0.00229739)
(0.00332128 -0.00569456 0.000851098)
(-4.97006e-05 -0.0039989 -0.00496925)
(0.00294751 0.017114 -0.0107874)
(0.0639101 0.00644896 -0.0374676)
(0.112764 0.0503305 -0.0279452)
(0.124358 0.0559487 -0.00581519)
(0.126436 0.0578253 -0.00496505)
(0.134116 0.062998 -0.00148626)
(0.118971 0.00144821 0.02008)
(0.00168877 0.0681937 0.0379062)
(-0.0105309 -0.162399 0.0659563)
(-0.164022 0.00260559 -0.0751144)
(0.0337076 -0.0431755 0.0270713)
(0.239722 -0.278027 0.108203)
(0.0817811 0.0576845 0.0641884)
(-0.0626319 -0.09524 0.0485674)
(-0.0112123 0.0498282 0.0108966)
(-0.00531183 -0.0284549 0.006293)
(-0.00760187 -0.0147952 0.0226195)
(-0.00812817 -0.0378506 0.0316784)
(-0.00728731 -0.0573933 0.0412819)
(-0.0134905 -0.0722456 0.051173)
(-0.0153476 -0.0866649 0.0600636)
(-0.0176311 -0.0957331 0.0609815)
(-0.0216544 -0.103621 0.0516446)
(-0.0217871 -0.109214 0.0417262)
(-0.021543 -0.111349 0.0336977)
(-0.0204837 -0.108823 0.0279517)
(-0.0201796 -0.110623 0.0225324)
(-0.0190741 -0.11783 0.01768)
(-0.0122949 -0.124615 0.019409)
(-0.00179012 -0.130654 0.013106)
(-0.00373842 -0.132571 -0.00452162)
(-0.0141515 -0.109743 -0.023213)
(-0.00879215 -0.047562 -0.0175268)
(-0.0169707 -0.0323529 0.0187431)
(-0.0265484 -0.0307452 0.0264572)
(-0.0478644 -0.0272389 -0.00769916)
(-0.0469944 0.0137499 -0.016755)
(-0.0240763 0.0337857 -0.00550755)
(-0.0143258 0.0790284 -0.00146572)
(-0.00860325 0.10603 0.00804256)
(-0.00969183 0.115209 0.0165349)
(-0.0127405 0.102002 0.0308587)
(-0.00667133 0.0818729 0.021989)
(0.002985 0.0528805 0.0155268)
(0.0118336 0.0332735 0.0105241)
(0.0178331 0.0234616 0.00585414)
(0.0245235 0.00947334 0.0158186)
(0.0244587 0.0217877 0.00350585)
(0.0240034 0.0107014 0.00263457)
(0.0151682 0.00854466 -0.000467904)
(0.0147699 0.00866226 0.00121169)
(0.0088432 0.00391257 0.00211242)
(0.00553589 0.00183392 0.00316428)
(0.000865697 -0.00129556 0.00446297)
(-0.000656688 -0.000667781 0.00422542)
(-0.00146169 0.000532435 0.00393779)
(-0.000932488 0.00217549 0.00396169)
(-0.000330083 0.00277108 0.00403458)
(0.00057162 0.0034636 0.00436108)
(0.00130885 0.00346405 0.00458055)
(0.00205596 0.00344035 0.00474706)
(0.00252136 0.00285143 0.00472117)
(0.00284374 0.00229117 0.00467482)
(0.00286384 0.00155808 0.00460757)
(0.00294236 0.00105892 0.00458584)
(0.00286469 0.000549317 0.00457909)
(0.00283278 0.000276429 0.00460744)
(0.00273488 1.59911e-05 0.00463826)
(0.00264653 -0.000101642 0.00468455)
(0.00254108 -0.000183782 0.0047325)
(0.00243706 -0.000197438 0.00478933)
(0.00233167 -0.000185188 0.00484792)
(0.00223008 -0.000150431 0.00490848)
(0.00212963 -0.00010973 0.00497007)
(0.00202816 -7.34908e-05 0.00503341)
(0.00192417 -5.47966e-05 0.00509858)
(0.00181615 -6.31461e-05 0.00516695)
(0.00170237 -0.000102399 0.00523893)
(0.0015873 -0.000182416 0.00531495)
(0.00147594 -0.000308718 0.00539381)
(0.00138111 -0.000485849 0.00547729)
(0.00131883 -0.000711158 0.00556493)
(0.00130523 -0.000989937 0.00565402)
(0.00134338 -0.00131011 0.00574254)
(0.00141866 -0.00165278 0.00581586)
(0.00151866 -0.00196954 0.00585745)
(0.00160864 -0.00218089 0.00582576)
(0.00163667 -0.00217362 0.00567016)
(0.00153841 -0.0019829 0.00535993)
(0.00151721 -0.00146495 0.00484972)
(0.00205157 -0.00144792 0.00425493)
(0.0034951 -0.00281609 0.00416095)
(0.0055249 -0.00637426 0.00445401)
(0.00512744 -0.0100922 0.00415396)
(0.00102531 -0.0163586 0.00191615)
(-0.00652683 -0.012144 -0.00470538)
(0.010977 0.000379063 -0.0152922)
(0.074522 0.0181451 -0.0321446)
(0.119217 0.0869526 0.0132215)
(0.150622 0.0921647 0.0192246)
(0.161159 0.113811 0.00289418)
(0.163703 0.116532 0.0103985)
(0.136054 0.0761532 0.0473403)
(0.121009 0.0983551 0.072169)
(0.0985349 -0.198319 0.0873776)
(-0.152446 0.0292403 -0.0230928)
(0.101867 -0.137529 0.018493)
(0.237462 -0.233578 0.0920721)
(0.0682445 0.156111 0.0483046)
(0.0476519 -0.0384325 0.0475301)
(0.0295431 0.0721365 0.0105134)
(0.0265846 0.0207475 0.0353626)
(-0.0118759 0.0348121 0.0347383)
(-0.0151141 0.006431 0.0381184)
(-0.0283241 -0.0118596 0.0371525)
(-0.0353855 -0.0368582 0.0360531)
(-0.0409093 -0.0608501 0.0350083)
(-0.0416578 -0.0799373 0.0346369)
(-0.0344257 -0.0972103 0.0271499)
(-0.0271212 -0.109489 0.0177572)
(-0.0193098 -0.115809 0.0121116)
(-0.010157 -0.118677 0.00849391)
(-0.0019233 -0.119598 0.000331145)
(0.00510054 -0.110577 -0.0182196)
(0.00622985 -0.08265 -0.0283643)
(0.000158813 -0.0486297 -0.00633194)
(-0.00639406 -0.0342124 0.000649675)
(-0.00594576 -0.0253296 -0.00619808)
(0.0155168 -0.00720504 -0.0156482)
(0.024813 0.0102458 -0.00297406)
(-0.0139664 0.0152279 0.00505878)
(-0.0471498 0.0242087 -0.00444909)
(-0.039655 0.0301738 0.00344414)
(-0.0293552 0.0430335 -0.00514463)
(-0.0233339 0.0747454 -0.0101775)
(-0.0160743 0.0980503 0.000850221)
(-0.0189834 0.101464 0.0238149)
(-0.021538 0.0847107 0.0360438)
(-0.0174408 0.068153 0.0295944)
(-0.00468267 0.0487534 0.0235529)
(0.00544008 0.0278455 0.0177745)
(0.0132143 0.0200789 0.0127114)
(0.0229058 0.00295831 0.0180423)
(0.0265092 0.0228177 0.00401866)
(0.0273261 0.0132007 0.00365577)
(0.0166149 0.00950375 -0.000993709)
(0.0174221 0.0115254 -0.000184851)
(0.0124014 0.00728292 -0.000201549)
(0.0085657 0.00529957 0.0015606)
(0.000925151 -0.000422229 0.00362656)
(-0.00255273 -0.000899915 0.00373123)
(-0.00381056 -0.00035575 0.00404244)
(-0.00264439 0.00173797 0.00411509)
(-0.00178755 0.00203239 0.00430323)
(-0.00103689 0.00291577 0.00471231)
(-0.000222208 0.00321618 0.00490323)
(0.000574655 0.00350836 0.00499487)
(0.00121346 0.00311688 0.00486245)
(0.00160904 0.0026925 0.00477669)
(0.00165562 0.0019716 0.00469219)
(0.00173104 0.00145977 0.00467658)
(0.00161746 0.000895125 0.00466661)
(0.00155921 0.000553094 0.00469603)
(0.00143088 0.000230073 0.00472486)
(0.00130017 6.53494e-05 0.00476597)
(0.00114846 -5.69097e-05 0.00480896)
(0.00100408 -9.75852e-05 0.00486092)
(0.000867279 -0.000105855 0.00491719)
(0.000742927 -8.67082e-05 0.00497746)
(0.000629315 -5.92082e-05 0.00503962)
(0.000525404 -3.49547e-05 0.00510442)
(0.000428576 -2.78789e-05 0.00517232)
(0.000337438 -4.95254e-05 0.00524336)
(0.000250815 -0.000106728 0.00531813)
(0.000168405 -0.000202342 0.00539678)
(9.21353e-05 -0.000326477 0.00547292)
(3.69273e-05 -0.000464301 0.00554262)
(1.55522e-05 -0.000598973 0.00560399)
(3.35467e-05 -0.000723499 0.00565666)
(9.67402e-05 -0.0008178 0.00569864)
(0.000178511 -0.000857817 0.00572544)
(0.000260834 -0.000759748 0.00572474)
(0.000324894 -0.000417511 0.00565022)
(0.000423987 0.000239554 0.00546948)
(0.0007545 0.000900871 0.00518569)
(0.00165896 0.00107278 0.00493859)
(0.00326033 6.26794e-05 0.00481527)
(0.0056658 -0.0027185 0.00498549)
(0.00781152 -0.00757777 0.00477228)
(0.00786583 -0.0113562 0.00394146)
(0.00390642 -0.0213723 0.00155493)
(-0.00915664 -0.0215514 -0.00315881)
(0.00453279 -0.023318 -0.0159256)
(0.0540523 0.0329502 -0.0125676)
(0.0946391 0.0754833 0.0505327)
(0.147441 0.106847 0.0299473)
(0.161042 0.148489 -0.000417635)
(0.165548 0.156783 0.00541846)
(0.143884 0.12303 0.0408617)
(0.147312 0.131742 0.0644005)
(0.157138 -0.0980468 0.0678016)
(-0.265382 0.13557 -0.0517665)
(-0.00971251 -0.207982 0.0403084)
(0.205308 -0.201268 0.0896654)
(-0.000475117 0.149494 0.029634)
(-0.0164032 -0.00885316 0.0430995)
(-0.0353679 0.0806016 0.0206559)
(-0.0216421 0.0504534 0.0376742)
(-0.00987352 0.0452734 0.0354346)
(0.00910976 0.0166861 0.0344722)
(0.0134195 0.00798197 0.0290571)
(0.00465013 -0.0183588 0.0151303)
(0.00115178 -0.0212634 -0.00132977)
(-0.00333242 -0.0258286 -0.00806284)
(-0.0028788 -0.0166862 -0.0100275)
(-0.00261127 -0.00363835 -0.00957244)
(-0.0008 0.0150222 -0.0194614)
(0.000423815 0.0384771 -0.0207397)
(0.00147548 0.0469259 -0.00208802)
(-0.000791208 0.0434434 0.00763516)
(-0.000543208 0.0407967 0.00828787)
(0.00181724 0.0337276 -0.00121832)
(0.000611233 0.0302218 -0.00502418)
(-0.00626798 0.0233315 0.00142942)
(-0.0213574 0.0276779 -0.00461683)
(-0.0322864 0.0454316 -0.00633498)
(-0.0372146 0.0512724 -0.0043131)
(-0.0382424 0.048978 -0.00602779)
(-0.0331046 0.0442069 -0.00622736)
(-0.0249235 0.0626589 -0.0285176)
(-0.0188753 0.0885899 -0.0258463)
(-0.0136068 0.104669 -0.00753736)
(-0.0197751 0.0909034 0.0240054)
(-0.0308552 0.0747893 0.0332327)
(-0.0364067 0.0530919 0.0316605)
(-0.0223163 0.0386651 0.0270057)
(-0.00217089 0.0212865 0.0199578)
(0.0106674 0.0170015 0.0168613)
(0.0208011 0.00119621 0.021142)
(0.0270794 0.0233712 0.0038844)
(0.0297011 0.0181656 0.00425469)
(0.0174673 0.0113477 -0.000439516)
(0.0183762 0.0133545 -5.97338e-05)
(0.0142358 0.00820317 -0.000824724)
(0.0129073 0.00801035 0.000661251)
(0.00460295 0.00166116 0.000293331)
(-0.00183238 0.000205608 0.00200604)
(-0.00572873 -0.00199506 0.00325763)
(-0.00500068 9.61471e-05 0.00393586)
(-0.00397525 0.000605249 0.00430614)
(-0.00355388 0.00206517 0.0048624)
(-0.00273749 0.00283473 0.00501499)
(-0.00177037 0.00348325 0.00503514)
(-0.000870072 0.0032681 0.00475963)
(-0.000421582 0.0028693 0.00462158)
(-0.000387854 0.00213809 0.00450263)
(-0.000444938 0.00162596 0.00449818)
(-0.000677841 0.00105954 0.00447711)
(-0.000837049 0.000699697 0.00449233)
(-0.00105369 0.0003424 0.00448185)
(-0.00123599 0.000127492 0.00449026)
(-0.00141988 -4.20853e-05 0.00450257)
(-0.00157906 -0.000128534 0.00452945)
(-0.0017163 -0.000172874 0.00456585)
(-0.00183374 -0.00018219 0.00461151)
(-0.00193706 -0.000177747 0.00466264)
(-0.00202743 -0.000172661 0.00471956)
(-0.00210669 -0.000181748 0.00478317)
(-0.00217696 -0.000216076 0.00485416)
(-0.00224438 -0.000279457 0.0049291)
(-0.00231467 -0.00036341 0.00499903)
(-0.00238798 -0.000448578 0.00506097)
(-0.00245074 -0.000513631 0.0051104)
(-0.00247557 -0.000535566 0.00514528)
(-0.00244676 -0.000505182 0.00516437)
(-0.00237917 -0.000383703 0.00515953)
(-0.00232765 -0.000100022 0.00510783)
(-0.00235209 0.000471262 0.00496212)
(-0.00242328 0.00138936 0.0046932)
(-0.00221301 0.00255831 0.0043515)
(-0.00121621 0.00345683 0.00407403)
(0.000791065 0.00332143 0.00400407)
(0.00354491 0.00183344 0.00428766)
(0.00642748 -0.000686421 0.00483903)
(0.00876876 -0.00331757 0.00490777)
(0.0112653 -0.00493339 0.00582045)
(0.0105235 -0.0140938 0.00610103)
(-0.00393878 -0.0198266 0.00343372)
(-0.00663786 -0.0415347 -0.0100757)
(0.0219755 0.0184125 0.00405687)
(0.0715726 0.061636 0.0830397)
(0.119299 0.115405 0.0706512)
(0.1455 0.163274 0.0310064)
(0.144542 0.174685 0.0180903)
(0.116018 0.182799 0.0230663)
(0.0948495 0.188085 0.0296045)
(0.0608997 0.103978 0.0142686)
(-0.142723 0.426841 -0.0546701)
(0.021088 -0.32103 0.0287322)
(0.19072 -0.164356 0.0698814)
(0.000925077 0.118808 0.0429237)
(0.0486188 -0.0465147 0.0580549)
(-0.0234316 0.0539572 0.012044)
(-0.00408739 0.0211158 0.013287)
(-0.0118097 0.0563398 -0.0245479)
(-0.0129262 0.0953023 -0.0466412)
(-0.0175307 0.137392 -0.0152406)
(-0.015374 0.144871 -0.00391827)
(-0.0184792 0.149179 -0.00303103)
(-0.0191158 0.150238 -0.00506751)
(-0.0192413 0.14869 -0.00971485)
(-0.0182625 0.145452 -0.0115371)
(-0.0131192 0.14531 -0.00995231)
(-0.00600267 0.14227 -0.00558913)
(-0.00665959 0.12478 -0.0055909)
(-0.00340378 0.116417 -0.00553129)
(-0.00600845 0.103626 -0.00476416)
(-0.0091247 0.096957 -0.00919397)
(-0.0136274 0.0936134 -0.0188112)
(-0.0148814 0.0930747 -0.0237071)
(-0.0174555 0.0843342 -0.0263067)
(-0.0174773 0.0797177 -0.026645)
(-0.0161921 0.0749771 -0.0263952)
(-0.0161114 0.0733122 -0.0263337)
(-0.017071 0.0729898 -0.0308735)
(-0.0161494 0.0869793 -0.0337321)
(-0.0104101 0.102904 -0.0203516)
(-0.00633879 0.102399 0.00458328)
(-0.0136169 0.0851448 0.0249535)
(-0.0319764 0.0741381 0.0253848)
(-0.0424809 0.050783 0.0260497)
(-0.032952 0.0346706 0.0222547)
(-0.0175712 0.0124356 0.0200059)
(0.00191705 0.012192 0.0208823)
(0.0129622 -0.00179332 0.0250579)
(0.026904 0.0239105 0.00341192)
(0.03139 0.0236206 0.00560058)
(0.019305 0.014319 0.00170692)
(0.0193839 0.0150976 0.00235722)
(0.0151094 0.00717611 0.000729731)
(0.0146887 0.00789171 0.00172294)
(0.00903624 0.002388 -0.00072968)
(0.00203228 0.0015834 -0.000123677)
(-0.0048243 -0.00223916 0.002124)
(-0.00654368 -0.00154005 0.00302717)
(-0.0058796 -0.00139573 0.00371741)
(-0.00557713 0.0006159 0.0045778)
(-0.00437671 0.00208666 0.00485803)
(-0.00310906 0.0032484 0.00503652)
(-0.00174407 0.00311012 0.00488793)
(-0.00110887 0.00267901 0.00490509)
(-0.00106789 0.00192279 0.00478618)
(-0.00121486 0.00145809 0.00479655)
(-0.00152678 0.000989618 0.00472292)
(-0.00175214 0.000746416 0.00468048)
(-0.00201533 0.000496917 0.00457792)
(-0.00223299 0.000344958 0.00448904)
(-0.00243718 0.000198701 0.00440267)
(-0.00261542 0.000109866 0.00433808)
(-0.00276144 4.717e-05 0.00428895)
(-0.00287454 1.10851e-05 0.00426086)
(-0.00295916 -1.25314e-05 0.00425285)
(-0.00301735 -3.16242e-05 0.00426503)
(-0.00305198 -5.36838e-05 0.00429714)
(-0.00306904 -8.30157e-05 0.00434703)
(-0.00307737 -0.000116787 0.00440976)
(-0.00309463 -0.000143512 0.00447436)
(-0.00312016 -0.00014297 0.00453506)
(-0.00314654 -8.58053e-05 0.00457904)
(-0.00315193 6.07864e-05 0.00459101)
(-0.00314814 0.000313614 0.00455206)
(-0.00318589 0.000717683 0.0044215)
(-0.00333061 0.00130952 0.00415457)
(-0.00355447 0.00213165 0.00371935)
(-0.00363044 0.00310425 0.00316322)
(-0.00308331 0.00404966 0.00266569)
(-0.00138844 0.00464857 0.00253528)
(0.00151975 0.00446306 0.00295597)
(0.00424501 0.00323599 0.00373022)
(0.00590625 0.00241868 0.00415434)
(0.00737952 0.00358591 0.00476385)
(0.0107706 0.00569106 0.0063075)
(0.0133619 0.00260134 0.0088018)
(0.00915815 -0.00322751 0.0107503)
(-0.00386838 -0.0442995 0.00169833)
(-0.0150621 -0.0173693 -0.0020214)
(0.0125634 0.0126416 0.0781413)
(0.057351 0.0528558 0.108158)
(0.111949 0.112947 0.0844963)
(0.123687 0.140081 0.0581514)
(0.112508 0.149085 0.0429609)
(0.085772 0.190465 0.0462901)
(0.138368 -0.00812724 0.0368674)
(0.113642 0.427932 0.0535475)
(0.0109773 -0.386577 0.0179391)
(0.121425 -0.0302629 0.014988)
(-0.0107944 0.131445 0.0126225)
(-0.0179317 0.138457 -0.0106883)
(-0.0502748 0.180598 -0.00710194)
(-0.0361202 0.219913 -0.0165573)
(-0.0457235 0.24332 -0.0112365)
(-0.0297665 0.268595 -0.00898446)
(-0.0177276 0.272743 -0.00241377)
(-0.00971948 0.280123 -0.00789842)
(-0.0038308 0.280895 -0.00786255)
(0.00151951 0.283556 -0.0104515)
(0.0066733 0.279228 -0.0108509)
(0.0140016 0.277856 -0.00916747)
(0.0211092 0.272515 -0.00756082)
(0.0264322 0.267004 -0.00884324)
(0.0287529 0.25595 -0.00818343)
(0.0320318 0.245852 -0.00959388)
(0.0327648 0.232114 -0.00971823)
(0.0328209 0.216919 -0.0102429)
(0.0328571 0.202561 -0.00971973)
(0.0301427 0.185369 -0.0106103)
(0.0270127 0.167522 -0.0104379)
(0.0249711 0.149718 -0.0100221)
(0.0199749 0.134296 -0.00853986)
(0.012853 0.117891 -0.00942206)
(0.00927951 0.109942 -0.00975236)
(0.00875906 0.106106 -0.00998472)
(0.00877525 0.105554 -0.00501267)
(0.00201514 0.0919057 0.012503)
(-0.0138066 0.084197 0.019181)
(-0.0322867 0.0721112 0.0175664)
(-0.0418387 0.05012 0.0229796)
(-0.0284832 0.0334379 0.0230381)
(-0.0144622 0.00725674 0.0261351)
(0.00704943 0.0067713 0.0281894)
(0.0136306 -0.00408469 0.0312108)
(0.0240674 0.024094 0.00360742)
(0.0312386 0.0279875 0.00846832)
(0.0191286 0.0168175 0.00491773)
(0.0183411 0.0176321 0.00682124)
(0.0129109 0.00598429 0.00440415)
(0.013118 0.00648835 0.00465136)
(0.00991798 0.000988433 0.00147863)
(0.00436858 0.00161343 -0.00055524)
(-0.00274823 -0.0017376 0.000935307)
(-0.00652 -0.00126513 0.00227001)
(-0.00758899 -0.00223585 0.00295244)
(-0.00867408 -0.00046478 0.00398908)
(-0.00775067 0.00135297 0.00455782)
(-0.00581641 0.00273279 0.00541815)
(-0.00400214 0.00255336 0.00575899)
(-0.00344032 0.00226167 0.00600081)
(-0.00354692 0.00158693 0.00588702)
(-0.0040327 0.0012578 0.00579233)
(-0.0045429 0.000942034 0.00558184)
(-0.00489314 0.000837576 0.00540915)
(-0.00517718 0.000716551 0.0051925)
(-0.00536915 0.000662965 0.00501898)
(-0.00552786 0.00059635 0.00486991)
(-0.00564016 0.000563925 0.00476063)
(-0.00570936 0.000531823 0.00468049)
(-0.00574843 0.000503416 0.00463546)
(-0.00576795 0.000475004 0.00462313)
(-0.0057723 0.000451985 0.00464289)
(-0.00576654 0.000436948 0.00468806)
(-0.00575231 0.000431169 0.00474093)
(-0.00574418 0.000444562 0.00480654)
(-0.00574781 0.000492362 0.00488417)
(-0.00578258 0.000599066 0.00495634)
(-0.0058549 0.000799401 0.0049851)
(-0.00591206 0.00112742 0.00495406)
(-0.00593895 0.0015801 0.00483999)
(-0.00594178 0.00216119 0.00462425)
(-0.0059229 0.00283402 0.00430863)
(-0.00588442 0.00348969 0.00381396)
(-0.00563121 0.00398922 0.00317105)
(-0.00482189 0.00422337 0.00254255)
(-0.00314221 0.00421648 0.00223183)
(-0.000571602 0.00393434 0.00266025)
(0.00109292 0.00366023 0.00364218)
(0.000948874 0.00436591 0.00418878)
(0.00098649 0.00713524 0.00422811)
(0.00564218 0.0111489 0.0060514)
(0.0111055 0.00987838 0.00984092)
(0.019735 0.0075123 0.0158013)
(0.0127749 -0.0270334 0.0116783)
(-0.0243431 -0.0361132 0.000814831)
(-0.025456 -0.0410209 0.0523272)
(0.00194851 -0.0290624 0.101665)
(0.0738625 0.0296819 0.107858)
(0.104246 0.0995935 0.0701215)
(0.126667 0.10916 0.0568401)
(0.119609 0.171521 0.0533531)
(0.130437 -0.0567379 0.0491576)
(0.0868726 0.315221 0.0807818)
(-0.00175261 -0.397455 -0.00452131)
(0.017536 0.0853257 -0.0162257)
(-0.0563966 0.230449 -0.00224331)
(-0.050417 0.273325 -0.00350045)
(-0.0631517 0.292473 -0.000379969)
(-0.0522115 0.308405 0.00222265)
(-0.0471404 0.313703 0.00386123)
(-0.0271168 0.31984 0.0052987)
(-0.0160272 0.317464 0.00546664)
(-0.00385777 0.317252 0.00554144)
(0.00146063 0.311624 0.00456424)
(0.00721189 0.310344 0.00400849)
(0.0104853 0.30538 0.00427313)
(0.0199371 0.304252 0.00477937)
(0.0276679 0.299848 0.00689029)
(0.0349398 0.296156 0.00670285)
(0.0387032 0.291594 0.00770394)
(0.0426552 0.28446 0.00626098)
(0.044181 0.279391 0.00527303)
(0.0451119 0.270315 0.00392376)
(0.0458091 0.263532 0.00309486)
(0.0461825 0.252111 0.000908394)
(0.04627 0.243416 -0.000328133)
(0.045856 0.230287 0.000271143)
(0.0437979 0.218342 0.00426659)
(0.0389451 0.19946 0.010075)
(0.0319369 0.177813 0.0139777)
(0.0239896 0.15588 0.0159869)
(0.0119735 0.134275 0.0148561)
(-0.00467171 0.119199 0.0157804)
(-0.017779 0.113914 0.0199347)
(-0.0298431 0.0953221 0.0223655)
(-0.0349091 0.0764798 0.0284249)
(-0.0270675 0.0581339 0.0292847)
(-0.0187634 0.0359574 0.0285021)
(-0.0113298 0.0290326 0.0153697)
(-0.0196942 0.000102372 0.0178718)
(0.0190963 0.0199993 0.00371196)
(0.0293569 0.0306267 0.0100802)
(0.0168432 0.0181586 0.00635057)
(0.0170771 0.0211925 0.00813291)
(0.0109909 0.00722055 0.00586099)
(0.0106518 0.00662966 0.0054857)
(0.00783482 -7.21225e-06 0.00315011)
(0.00477246 0.00133238 1.92689e-05)
(-0.00226624 -0.00140426 -0.000344561)
(-0.0062613 -0.000200396 0.00143907)
(-0.0073747 -0.00171264 0.00255286)
(-0.00943167 -0.000942606 0.00373776)
(-0.00851917 -0.000889736 0.00495792)
(-0.00623667 -4.94533e-05 0.00638022)
(-0.00413052 -0.000118485 0.00735312)
(-0.00361504 0.000325344 0.00813367)
(-0.0036239 0.000428274 0.00845338)
(-0.00406105 0.000784263 0.00851246)
(-0.00444845 0.000917245 0.00832963)
(-0.00473249 0.00114761 0.00809907)
(-0.0049714 0.00120892 0.00780863)
(-0.00514145 0.00125529 0.00757004)
(-0.00527697 0.00123749 0.00736032)
(-0.00536365 0.00121772 0.0071986)
(-0.0054003 0.00117847 0.0070714)
(-0.00539987 0.00113526 0.00698482)
(-0.005381 0.00108506 0.00692458)
(-0.0053438 0.00104889 0.00689041)
(-0.00529583 0.00103099 0.00687778)
(-0.00524309 0.00104567 0.00688513)
(-0.00520478 0.00109679 0.00689948)
(-0.00519642 0.00120923 0.00691037)
(-0.00524838 0.00140266 0.00690207)
(-0.00535067 0.00171618 0.00686324)
(-0.00544371 0.00214718 0.0067577)
(-0.0055051 0.00263411 0.00656843)
(-0.0055387 0.00313034 0.00629626)
(-0.00550371 0.00357032 0.00593735)
(-0.00530093 0.00389753 0.00549642)
(-0.00475081 0.00399288 0.00505357)
(-0.00371356 0.00370219 0.00472707)
(-0.0022066 0.00308763 0.00470809)
(-0.000353406 0.00254484 0.00521302)
(0.000462215 0.00244072 0.00629983)
(-0.00111112 0.00480886 0.00743856)
(-0.00261617 0.00918499 0.0076373)
(0.000816795 0.0134154 0.00821443)
(0.00776603 0.0110679 0.0107724)
(0.0197465 0.0104163 0.0161173)
(0.023723 -0.00514995 0.0201004)
(-0.0134394 -0.028723 0.00962366)
(-0.0244537 -0.0397504 0.034649)
(-0.0347415 -0.0631325 0.0854895)
(-0.0245535 -0.0585229 0.0911421)
(0.0246617 0.0510043 0.0469634)
(0.115289 0.0720481 0.0307886)
(0.13637 0.175996 0.0698131)
(0.17097 -0.000431424 0.050928)
(0.176754 0.397304 0.0387839)
(-0.0235028 -0.416353 0.00990639)
(-0.0963035 0.0890072 -0.0262087)
(-0.0758431 0.221682 -0.0185701)
(-0.0707308 0.245053 -0.0105433)
(-0.0593184 0.246412 -0.00326667)
(-0.0560507 0.231592 0.00384679)
(-0.0434413 0.201212 0.00704089)
(-0.0248736 0.171708 0.0051005)
(-0.0102235 0.141957 0.0066336)
(-0.00179427 0.126994 0.0021336)
(0.00332383 0.122411 -0.00124278)
(0.0077724 0.126 -0.00610115)
(0.0136975 0.139193 -0.00248914)
(0.0215884 0.147074 0.00103622)
(0.0313389 0.157416 0.0059829)
(0.0375592 0.164979 0.0104606)
(0.0419226 0.17455 0.015615)
(0.0462845 0.177952 0.0156411)
(0.0480693 0.189474 0.0157268)
(0.0497816 0.196796 0.0150028)
(0.0506155 0.211395 0.0183171)
(0.0529791 0.217117 0.0203422)
(0.0528771 0.224479 0.0190835)
(0.0498553 0.226774 0.0143658)
(0.0456549 0.229832 0.00853749)
(0.0402864 0.236057 0.00436086)
(0.0333826 0.238098 0.00235916)
(0.0261882 0.241995 0.00730059)
(0.0199982 0.23825 0.0169045)
(0.0158475 0.229638 0.0238232)
(0.00938584 0.214212 0.0302001)
(0.00452039 0.193978 0.0361021)
(0.00554148 0.167302 0.0361476)
(0.0118031 0.139838 0.0364411)
(0.0209537 0.102881 0.0312254)
(0.028652 0.0719464 0.0302788)
(0.0187198 0.00674263 0.0124544)
(0.0136379 0.00873024 0.00361173)
(0.0248628 0.0318307 0.00797302)
(0.0123994 0.0187057 0.00424313)
(0.014519 0.0252087 0.00460808)
(0.00943673 0.0116623 0.00258056)
(0.00913839 0.00979913 0.00350898)
(0.00530216 0.00138417 0.0016018)
(0.0030297 0.00225866 -0.000768977)
(-0.00167435 -0.000438634 -0.00347811)
(-0.00631229 0.000336009 -0.00236813)
(-0.00770452 -0.00112086 -0.0010669)
(-0.00924592 -0.00131044 0.000301947)
(-0.0096144 -0.00259104 0.00147108)
(-0.00884342 -0.00221374 0.00274226)
(-0.0080404 -0.00189214 0.00396165)
(-0.00806965 -0.000819854 0.00489672)
(-0.00848323 -0.000282819 0.00550734)
(-0.00894419 0.000415948 0.00580248)
(-0.00938086 0.000722474 0.00587616)
(-0.0095452 0.00109528 0.00584887)
(-0.00956899 0.00129218 0.00573298)
(-0.00955411 0.00145423 0.00561534)
(-0.00951964 0.00151463 0.00550221)
(-0.00945869 0.0015359 0.00541491)
(-0.00937573 0.00151983 0.00535114)
(-0.00927777 0.00149468 0.00530851)
(-0.00917618 0.00146607 0.00527581)
(-0.00907478 0.00144937 0.00525196)
(-0.00897967 0.00145537 0.00523516)
(-0.00889347 0.00150479 0.00522319)
(-0.00882893 0.00159205 0.00520941)
(-0.00879059 0.00175145 0.00518292)
(-0.00882542 0.00197997 0.00513708)
(-0.00893396 0.00228296 0.00506147)
(-0.00896616 0.00264893 0.0049305)
(-0.00889072 0.00302167 0.00473971)
(-0.00872881 0.003377 0.00451123)
(-0.0084402 0.00372913 0.00424316)
(-0.00809962 0.00393923 0.00392467)
(-0.00747426 0.00375718 0.00368936)
(-0.00636191 0.00312538 0.00366692)
(-0.00498404 0.00208737 0.00393754)
(-0.00405839 0.00123244 0.00457013)
(-0.0050139 0.00100976 0.00556182)
(-0.00919796 0.0040815 0.00636543)
(-0.0119564 0.00816886 0.00563068)
(-0.00597181 0.0103222 0.0052493)
(0.000905899 0.00693212 0.00684423)
(0.0106044 0.00536505 0.00847436)
(0.019022 0.00588407 0.0142443)
(-0.00473271 -0.0112347 0.0110408)
(-0.0236491 -0.0299582 0.019987)
(-0.0358995 -0.053346 0.064462)
(-0.0357616 -0.10766 0.0692676)
(-0.0352413 -0.0626143 0.0600431)
(-0.0030169 -0.127262 -0.00427877)
(0.0330454 0.182956 0.06094)
(0.140139 -0.131754 0.0455794)
(0.262875 0.586725 0.024019)
(-0.0113477 -0.410209 0.0136676)
(-0.199613 0.00021109 -0.0423527)
(-0.101629 0.152648 -0.0115422)
(-0.0782889 0.126122 0.0226)
(-0.0474834 0.108303 0.028527)
(-0.056854 0.076071 0.0528676)
(-0.0115526 0.01062 0.0509612)
(0.01153 -0.0175984 0.0320505)
(0.0282371 -0.0490379 0.0182418)
(0.0321506 -0.0668139 0.0112987)
(0.0272318 -0.0817417 0.00609626)
(0.0195785 -0.0996409 0.00197228)
(0.00705103 -0.111454 -0.00536298)
(0.000781532 -0.107373 -0.0130746)
(0.00356038 -0.0895559 -0.0165965)
(0.0149216 -0.0506667 -0.0136803)
(0.0244209 -0.0229376 -0.00642753)
(0.0337168 -0.00956145 -0.00416345)