/*--------------------------------*- C++ -*----------------------------------*\
| =========                 |                                                 |
| \\      /  F ield         | OpenFOAM: The Open Source CFD Toolbox           |
|  \\    /   O peration     | Version:  2.3.0                                 |
|   \\  /    A nd           | Web:      www.OpenFOAM.org                      |
|    \\/     M anipulation  |                                                 |
\*---------------------------------------------------------------------------*/
FoamFile
{
    version     2.0;
    format      ascii;
    class       volVectorField;
    location    "23";
    object      Ur;
}
// * * * * * * * * * * * * * * * * * * * * * * * * * * * * * * * * * * * * * //

dimensions      [0 1 -1 0 0 0 0];

internalField   nonuniform List<vector> 
6144
(
(1.52875e-08 0.000516649 -1.74458e-06)
(1.26485e-07 0.000546957 -1.27071e-06)
(2.80783e-07 0.000576307 -6.09949e-07)
(4.58681e-07 0.000596987 -2.56712e-07)
(5.77435e-07 0.000616452 -4.19284e-08)
(6.83604e-07 0.000636237 2.24562e-08)
(7.29394e-07 0.000658298 4.03276e-08)
(7.19899e-07 0.000681844 4.87366e-08)
(6.68414e-07 0.000698917 5.55792e-08)
(5.85633e-07 0.000705035 4.97754e-08)
(4.82729e-07 0.000704613 2.8826e-08)
(3.80565e-07 0.000702713 2.24625e-08)
(2.87437e-07 0.000700911 1.38268e-08)
(2.03777e-07 0.000699321 1.13127e-08)
(1.35578e-07 0.000697927 1.14854e-08)
(7.50144e-08 0.00069676 2.27085e-09)
(3.40674e-08 0.000695842 -3.16882e-09)
(-6.35843e-09 0.000695121 -1.2821e-08)
(-3.1723e-08 0.00069456 -1.74551e-08)
(-6.01837e-08 0.000694126 -2.44044e-08)
(-7.45995e-08 0.000693803 -2.62241e-08)
(-9.53133e-08 0.000693568 -3.15894e-08)
(-1.01413e-07 0.000693409 -3.12902e-08)
(-1.17298e-07 0.000693312 -3.57e-08)
(-1.17242e-07 0.000693268 -3.60159e-08)
(-1.2978e-07 0.000693269 -4.09173e-08)
(-1.25001e-07 0.000693311 -3.9357e-08)
(-1.35148e-07 0.000693386 -4.54602e-08)
(-1.25204e-07 0.000693497 -4.4464e-08)
(-1.3248e-07 0.000693637 -5.29101e-08)
(-1.16226e-07 0.000693811 -5.36668e-08)
(-1.19927e-07 0.000694018 -6.59821e-08)
(-9.56078e-08 0.000694271 -6.99108e-08)
(-9.34033e-08 0.000694569 -8.79512e-08)
(-5.74916e-08 0.000694926 -9.70139e-08)
(-4.49005e-08 0.000695345 -1.23389e-07)
(8.7983e-09 0.000695844 -1.41432e-07)
(3.85017e-08 0.000696424 -1.82952e-07)
(1.18596e-07 0.000697106 -2.19224e-07)
(1.75885e-07 0.000697898 -2.88647e-07)
(2.95991e-07 0.000698841 -3.60608e-07)
(3.98962e-07 0.000699966 -4.75522e-07)
(5.81415e-07 0.000701349 -6.09836e-07)
(7.53958e-07 0.000702747 -7.74664e-07)
(1.04973e-06 0.000714619 -9.67978e-07)
(1.34749e-06 0.000768162 -1.34903e-06)
(1.82015e-06 0.000894258 -1.74333e-06)
(2.7003e-06 0.00115175 -2.12007e-06)
(1.62052e-06 0.00180167 -1.84734e-06)
(-4.78543e-06 0.00292269 -3.2448e-06)
(-2.43603e-05 0.00386876 -3.22797e-05)
(-6.36693e-05 0.00423475 -4.5704e-05)
(-9.22677e-05 0.00420866 -8.86486e-05)
(-0.000132573 0.00411998 -0.000110153)
(-0.000147522 0.00415989 -0.000110544)
(-0.000106834 0.00422234 -9.88369e-05)
(-0.000296156 0.00478655 -7.48033e-05)
(-1.19396e-05 0.00643893 4.42573e-05)
(-0.00189408 0.0202355 -0.00192685)
(0.00899132 0.131685 -1.22859e-05)
(-0.0385164 0.583206 -0.033093)
(-0.0726496 0.566361 -0.0407446)
(-0.0827818 0.375224 -0.0349343)
(-0.000226991 0.0283966 -0.000184749)
(-0.000233244 0.00661131 -9.14796e-05)
(-5.03857e-05 0.00700002 -3.31498e-05)
(-6.48642e-05 0.00724263 -1.60028e-05)
(-3.43776e-05 0.00740183 3.95616e-07)
(-4.80262e-06 0.00749657 6.88588e-06)
(4.91453e-06 0.00756965 4.51347e-06)
(-3.88445e-06 0.00765048 6.26708e-06)
(-1.62127e-05 0.007763 -1.1315e-06)
(-1.88426e-05 0.0078873 -1.41661e-05)
(-8.75757e-06 0.00798331 -1.62483e-05)
(-4.16077e-06 0.0080405 -1.98747e-05)
(-6.85499e-06 0.00804111 -2.10422e-05)
(-1.08186e-05 0.00802713 -7.84329e-06)
(-3.16761e-05 0.00800202 -3.37557e-06)
(-5.34545e-05 0.00791797 -1.23656e-05)
(-2.79646e-05 0.00782199 -2.17167e-05)
(3.58016e-05 0.0077445 -2.16236e-05)
(3.30587e-05 0.00764529 -2.29267e-05)
(-3.68884e-05 0.00754485 -1.6193e-05)
(-0.000109736 0.00749464 -2.76543e-05)
(-0.000135191 0.00722355 -7.48296e-05)
(-6.39782e-05 0.00657557 -7.31877e-05)
(-3.77869e-05 0.00604824 -5.64666e-05)
(-2.31396e-05 0.00589675 -6.03415e-05)
(1.53108e-07 0.00596215 -4.51518e-05)
(1.54201e-05 0.00613335 -6.08033e-05)
(9.25896e-06 0.00617047 -4.31495e-05)
(-1.35839e-06 0.00591915 -8.43304e-06)
(-7.34798e-06 0.00544612 1.2186e-05)
(-6.64353e-06 0.00492177 1.73543e-05)
(-1.05902e-05 0.00443953 -5.76281e-07)
(-7.59341e-07 0.00410182 1.69569e-06)
(3.34126e-07 0.000462772 -1.15875e-06)
(9.83795e-07 0.000509762 -9.70795e-07)
(1.15659e-06 0.000551727 -5.27097e-07)
(1.58432e-06 0.000579831 -2.33988e-07)
(1.86982e-06 0.000610286 -5.766e-08)
(2.04707e-06 0.000640061 2.27642e-08)
(2.09442e-06 0.000667744 6.76838e-08)
(1.9959e-06 0.000691176 6.46903e-08)
(1.797e-06 0.000703336 6.23059e-08)
(1.53215e-06 0.000705859 5.41267e-08)
(1.2398e-06 0.00070452 4.30627e-08)
(9.61943e-07 0.00070256 4.23596e-08)
(7.08084e-07 0.00070092 4.7405e-08)
(4.87285e-07 0.000699468 5.20007e-08)
(3.13279e-07 0.000698147 4.41568e-08)
(1.67233e-07 0.000697031 3.92277e-08)
(5.97875e-08 0.000696128 2.43697e-08)
(-3.5526e-08 0.000695417 1.89349e-08)
(-1.1104e-07 0.000694853 8.65385e-09)
(-1.77381e-07 0.000694421 8.65966e-09)
(-2.25812e-07 0.000694101 -7.58135e-10)
(-2.70378e-07 0.00069387 1.75677e-09)
(-2.99234e-07 0.000693717 -7.05636e-09)
(-3.28497e-07 0.000693628 -1.96754e-09)
(-3.43321e-07 0.000693594 -1.05429e-08)
(-3.60647e-07 0.000693605 -3.66872e-09)
(-3.62971e-07 0.000693656 -1.34743e-08)
(-3.68997e-07 0.000693745 -5.73963e-09)
(-3.57391e-07 0.000693869 -1.77087e-08)
(-3.50404e-07 0.000694024 -9.56617e-09)
(-3.22938e-07 0.00069421 -2.37905e-08)
(-2.98393e-07 0.000694434 -1.49642e-08)
(-2.46541e-07 0.000694702 -3.30381e-08)
(-1.94624e-07 0.000695018 -2.50961e-08)
(-1.05908e-07 0.00069539 -4.84296e-08)
(-9.45071e-09 0.000695826 -4.30925e-08)
(1.39099e-07 0.000696336 -7.52193e-08)
(3.08813e-07 0.000696927 -7.87353e-08)
(5.52521e-07 0.00069761 -1.31328e-07)
(8.35593e-07 0.000698402 -1.62645e-07)
(1.22118e-06 0.000699334 -2.65069e-07)
(1.65881e-06 0.000700433 -3.5411e-07)
(2.20675e-06 0.000701717 -4.93006e-07)
(2.87928e-06 0.000704383 -5.9109e-07)
(3.72088e-06 0.000715319 -8.48918e-07)
(4.69162e-06 0.000753163 -1.27763e-06)
(5.8373e-06 0.000850116 -1.83077e-06)
(7.78526e-06 0.0010495 -2.64822e-06)
(6.56832e-06 0.00150873 -2.17329e-06)
(-1.27545e-06 0.00256361 -7.75751e-06)
(-4.34142e-05 0.00392594 -2.88043e-05)
(-0.000100514 0.0043562 -6.58482e-05)
(-0.000141731 0.00419871 -0.000138477)
(-0.000196105 0.00403846 -0.000154321)
(-0.000186017 0.00410581 -0.000156824)
(-0.000162951 0.00401999 -0.000187153)
(-0.000319342 0.00510931 -0.000112108)
(-1.74289e-05 0.00621954 2.41762e-05)
(-0.0013678 0.0158352 0.000116069)
(0.0161104 0.108916 0.00916977)
(-0.0894417 0.603464 -0.0112342)
(-0.101583 0.379293 -0.0189662)
(-0.00403931 0.0227554 -0.000161318)
(7.48773e-05 0.00812434 -7.93869e-05)
(5.71514e-06 0.008951 -0.000105267)
(2.10509e-05 0.00919093 -3.83693e-05)
(1.6156e-05 0.00892716 -1.40492e-05)
(-3.51017e-06 0.00873836 -4.92127e-06)
(-4.12453e-05 0.00857684 7.67756e-06)
(-6.03539e-05 0.00852748 1.27751e-05)
(-7.26479e-05 0.00862804 7.69163e-06)
(-5.97846e-05 0.00889148 -1.76433e-05)
(-3.40071e-05 0.00917427 -3.32362e-05)
(-2.01267e-05 0.00935644 -3.80233e-05)
(-1.70832e-05 0.00942333 -3.79933e-05)
(-4.94235e-06 0.00941435 -3.50234e-05)
(2.16216e-05 0.0093492 -1.84512e-05)
(4.26119e-05 0.00924699 -2.4126e-06)
(4.09739e-05 0.00913932 -1.26884e-05)
(1.6591e-05 0.00893769 -5.23684e-05)
(-2.13282e-06 0.00837045 -7.98658e-05)
(-1.27216e-05 0.00747176 -5.42872e-05)
(-2.60446e-05 0.00685247 -7.87781e-06)
(-4.30236e-05 0.00682856 5.02829e-05)
(-9.57943e-05 0.00666337 1.64006e-05)
(-7.96156e-05 0.00629308 -1.13469e-05)
(-6.62136e-05 0.00625969 -2.59192e-05)
(-4.20911e-05 0.00644828 -5.68931e-05)
(7.34147e-06 0.00658133 -8.47433e-05)
(3.15555e-05 0.00675946 -8.3393e-05)
(1.37747e-05 0.00687485 -3.15938e-05)
(-2.94938e-06 0.00671598 -1.43668e-06)
(-1.04856e-05 0.00618344 1.249e-05)
(-8.64348e-06 0.00544488 1.44806e-05)
(-8.4773e-06 0.00474439 4.86071e-07)
(-7.99265e-06 0.00429259 -9.55627e-08)
(5.93612e-07 0.000427173 -3.96158e-07)
(1.91919e-06 0.000480948 -3.34101e-07)
(2.04114e-06 0.000533021 -3.54946e-07)
(2.64187e-06 0.000563235 -5.39473e-08)
(3.03797e-06 0.000591224 1.23096e-07)
(3.26283e-06 0.00062542 1.95438e-07)
(3.20906e-06 0.000659386 1.95683e-07)
(2.96972e-06 0.000683435 1.58673e-07)
(2.59931e-06 0.000694297 1.3746e-07)
(2.15707e-06 0.000698066 1.20035e-07)
(1.68862e-06 0.000699513 1.09596e-07)
(1.2228e-06 0.000700026 1.00619e-07)
(8.27168e-07 0.00069985 9.91474e-08)
(4.79216e-07 0.000698991 9.58017e-08)
(2.14007e-07 0.000697886 9.42035e-08)
(-8.07804e-09 0.000696846 8.75727e-08)
(-1.6773e-07 0.000695983 8.36671e-08)
(-3.11865e-07 0.000695301 7.71304e-08)
(-4.15712e-07 0.00069477 7.32572e-08)
(-5.12114e-07 0.000694362 6.8199e-08)
(-5.81076e-07 0.000694059 6.56596e-08)
(-6.47661e-07 0.000693843 6.22286e-08)
(-6.90952e-07 0.000693699 6.14954e-08)
(-7.36604e-07 0.000693617 5.98571e-08)
(-7.61932e-07 0.000693589 6.07088e-08)
(-7.90052e-07 0.000693605 5.95749e-08)
(-7.96884e-07 0.000693663 6.03871e-08)
(-8.06781e-07 0.000693757 5.87032e-08)
(-7.91403e-07 0.000693889 5.88675e-08)
(-7.78023e-07 0.000694055 5.5864e-08)
(-7.33119e-07 0.000694259 5.43815e-08)
(-6.85826e-07 0.000694504 4.91238e-08)
(-5.97006e-07 0.000694794 4.44372e-08)
(-4.97208e-07 0.000695132 3.44285e-08)
(-3.38859e-07 0.000695527 2.43991e-08)
(-1.53341e-07 0.000695986 8.77251e-09)
(1.15892e-07 0.000696522 -7.1255e-09)
(4.37631e-07 0.000697146 -3.03005e-08)
(8.77175e-07 0.000697877 -5.79805e-08)
(1.40063e-06 0.000698738 -9.99844e-08)
(2.08216e-06 0.000699761 -1.57098e-07)
(2.88607e-06 0.000700975 -2.44983e-07)
(3.87358e-06 0.000702566 -3.43093e-07)
(4.98304e-06 0.000706879 -4.84793e-07)
(6.30657e-06 0.000721213 -7.34973e-07)
(7.73985e-06 0.000766499 -1.2259e-06)
(9.39082e-06 0.000877755 -1.74971e-06)
(1.20186e-05 0.00109086 -2.20959e-06)
(1.28928e-05 0.0015497 -6.88601e-07)
(5.69385e-06 0.00261889 -6.39944e-06)
(-2.67553e-05 0.00401282 -2.87888e-05)
(-4.87791e-05 0.00436845 -0.000122596)
(-8.75955e-05 0.00420895 -0.000190629)
(-0.000113685 0.00403942 -0.000162113)
(-1.42036e-05 0.0040622 -0.000185242)
(1.03321e-05 0.00393731 -0.000145862)
(-5.61537e-05 0.00556027 -9.82394e-05)
(-0.000281662 0.00680813 -0.000214238)
(-0.00050096 0.0130913 0.000332952)
(0.0193841 0.137593 0.0108187)
(-0.0465133 0.606878 -0.0039469)
(-0.00874386 0.318328 -0.00388538)
(0.000159635 0.0241002 8.69986e-05)
(-0.000617245 0.00850489 -0.000112131)
(6.42314e-05 0.00957273 5.22191e-06)
(-5.13235e-05 0.0100572 -6.53476e-06)
(-6.28576e-05 0.0102214 8.67221e-07)
(-8.00206e-05 0.01031 -4.61356e-07)
(-0.000106789 0.0103363 1.01796e-05)
(-0.000111668 0.0102826 6.46055e-06)
(-8.62206e-05 0.0102514 -1.80453e-05)
(-2.54856e-05 0.0102969 -7.12844e-05)
(3.12456e-05 0.0103433 -8.83306e-05)
(6.78961e-05 0.0103214 -5.98955e-05)
(7.23455e-05 0.0101952 -5.53824e-05)
(5.53769e-05 0.00989566 -6.40312e-05)
(3.63067e-05 0.0092741 -6.05533e-05)
(2.0214e-05 0.00827821 -3.12416e-05)
(1.18042e-05 0.00732688 -7.15843e-06)
(2.65689e-06 0.00691012 -8.20508e-06)
(-1.94829e-05 0.00687128 -1.77784e-05)
(-9.05669e-06 0.00686886 -1.5447e-05)
(2.51221e-05 0.00665593 -1.47351e-05)
(5.49318e-05 0.00627177 -1.40249e-05)
(1.33252e-05 0.0061558 -7.43615e-06)
(-4.55475e-05 0.00645737 7.74446e-06)
(-4.45116e-05 0.00681203 -3.8391e-06)
(-2.92602e-05 0.00694142 -4.8066e-05)
(1.97431e-05 0.00697915 -0.000104792)
(4.72539e-05 0.0070682 -9.5523e-05)
(2.97602e-05 0.00713396 -1.83755e-05)
(8.8782e-06 0.0069996 9.57374e-06)
(-1.64006e-06 0.00651554 1.44878e-05)
(-6.85459e-06 0.00579086 1.13813e-05)
(-6.1804e-06 0.0050759 9.93183e-07)
(-1.20962e-05 0.00462109 2.04667e-06)
(7.72045e-07 0.000400605 -1.37753e-07)
(2.53853e-06 0.000453112 -2.83486e-08)
(2.78269e-06 0.000513668 -2.25527e-07)
(3.54875e-06 0.000548252 4.95723e-08)
(3.95224e-06 0.000572356 2.48149e-07)
(4.27036e-06 0.000607358 3.21886e-07)
(4.18889e-06 0.000650138 2.76346e-07)
(3.84407e-06 0.000681782 2.07155e-07)
(3.26984e-06 0.000692912 1.40768e-07)
(2.66506e-06 0.000694939 1.3521e-07)
(2.00778e-06 0.000696528 1.3139e-07)
(1.39454e-06 0.00069823 1.24376e-07)
(8.52237e-07 0.000698914 1.1283e-07)
(4.06313e-07 0.000698362 1.1373e-07)
(4.20099e-08 0.000697363 1.00971e-07)
(-2.47962e-07 0.000696388 1.01177e-07)
(-4.78535e-07 0.000695584 9.09587e-08)
(-6.67131e-07 0.000694943 9.51829e-08)
(-8.17926e-07 0.000694445 8.57365e-08)
(-9.38697e-07 0.000694059 9.1566e-08)
(-1.04127e-06 0.000693771 8.0308e-08)
(-1.11952e-06 0.000693566 8.74951e-08)
(-1.19122e-06 0.000693425 7.48342e-08)
(-1.2428e-06 0.000693343 8.42561e-08)
(-1.29263e-06 0.000693318 7.22028e-08)
(-1.32286e-06 0.000693338 8.28883e-08)
(-1.35231e-06 0.000693398 6.90951e-08)
(-1.35895e-06 0.000693499 8.08814e-08)
(-1.3623e-06 0.000693638 6.46319e-08)
(-1.33631e-06 0.00069382 7.71407e-08)
(-1.30127e-06 0.000694042 5.73906e-08)
(-1.22644e-06 0.000694315 6.94463e-08)
(-1.13231e-06 0.000694638 4.37439e-08)
(-9.81475e-07 0.000695022 5.2648e-08)
(-7.92845e-07 0.000695473 1.86204e-08)
(-5.2102e-07 0.000696007 2.41158e-08)
(-1.85505e-07 0.000696634 -1.73561e-08)
(2.67271e-07 0.000697374 -1.5457e-08)
(8.22033e-07 0.000698236 -6.91922e-08)
(1.53817e-06 0.000699252 -7.82775e-08)
(2.39822e-06 0.000700452 -1.51278e-07)
(3.45399e-06 0.000701829 -1.86723e-07)
(4.68595e-06 0.000703952 -3.07134e-07)
(6.11734e-06 0.000710139 -4.37587e-07)
(7.73875e-06 0.000731934 -7.583e-07)
(9.57965e-06 0.000801761 -1.23724e-06)
(1.19096e-05 0.000963741 -1.80349e-06)
(1.52664e-05 0.00122058 -2.44798e-06)
(2.20252e-05 0.0017087 -6.55114e-07)
(1.14552e-05 0.00277879 1.23378e-06)
(-4.16595e-06 0.00404634 -2.61559e-05)
(-2.59743e-06 0.00441344 -0.000130733)
(-2.69619e-05 0.00426792 -0.000204924)
(4.6495e-05 0.00413175 -0.000285828)
(0.000160346 0.0041313 -0.000317328)
(0.000209019 0.00399712 -5.81967e-05)
(0.000652021 0.00596738 8.84381e-05)
(0.000766122 0.00717361 0.000255)
(-0.000602111 0.0113482 9.14422e-05)
(0.0387404 0.149747 0.0125878)
(-0.00305549 0.53014 0.00479962)
(-0.00217776 0.145852 -0.00548472)
(-0.00257019 0.221699 -0.000656496)
(0.00180913 0.294735 0.00105052)
(0.000107874 0.0283772 -6.45082e-05)
(0.000313847 0.00923114 -3.72042e-05)
(0.000469325 0.0090858 -1.78153e-05)
(0.000298497 0.00801645 -8.90415e-05)
(5.29477e-05 0.00750226 -0.000135793)
(-7.09437e-05 0.00738874 -4.26263e-06)
(-0.00011146 0.00707897 -1.38409e-06)
(-0.000124861 0.0066319 -0.000120472)
(-0.000154701 0.0064191 -0.000240396)
(-0.00027954 0.00642812 -4.28164e-05)
(-0.000347887 0.00638857 -6.52243e-05)
(-0.000242423 0.00635293 -6.51375e-05)
(-8.14053e-05 0.0063419 -3.86503e-05)
(3.16135e-05 0.00624517 -2.49596e-05)
(9.20234e-05 0.00620999 -2.43749e-05)
(2.93323e-05 0.00642299 -2.54786e-05)
(-5.11235e-05 0.00668874 -4.52359e-05)
(3.9845e-06 0.00662146 -4.43935e-05)
(2.69523e-05 0.00640483 -2.48022e-05)
(2.79125e-05 0.00645974 -1.8779e-05)
(5.32431e-06 0.0069051 -1.5315e-05)
(-2.29576e-05 0.00738731 5.04517e-06)
(-2.75556e-05 0.00749594 -5.74248e-07)
(-1.08688e-05 0.00734475 -4.94339e-05)
(3.58912e-05 0.00724257 -0.000119234)
(6.55413e-05 0.00724434 -9.57858e-05)
(4.85347e-05 0.00727167 -1.55199e-05)
(1.68599e-05 0.00719069 5.34323e-06)
(3.51771e-06 0.0068352 9.74992e-06)
(-4.59954e-06 0.00626984 8.43242e-06)
(-1.13817e-05 0.00567507 2.84579e-06)
(-1.64514e-05 0.0052417 1.63195e-06)
(9.43441e-07 0.000383915 -2.40748e-08)
(3.2093e-06 0.000427727 2.66152e-07)
(3.73317e-06 0.000491281 -9.80454e-08)
(4.57178e-06 0.00053215 -1.18045e-08)
(4.8715e-06 0.000553778 1.57041e-07)
(5.11308e-06 0.000580538 3.38143e-07)
(4.96684e-06 0.000620269 4.18237e-07)
(4.49151e-06 0.00066311 2.65751e-07)
(3.80633e-06 0.000688807 1.89508e-07)
(3.05241e-06 0.000695077 1.39738e-07)
(2.24631e-06 0.000695393 1.43904e-07)
(1.50984e-06 0.000697028 1.20365e-07)
(8.68801e-07 0.000698226 1.18987e-07)
(3.27437e-07 0.000697935 1.0465e-07)
(-1.15422e-07 0.000697065 1.04234e-07)
(-4.81281e-07 0.000696185 8.73471e-08)
(-7.67242e-07 0.000695469 9.09931e-08)
(-1.01215e-06 0.000694903 7.90828e-08)
(-1.19774e-06 0.000694467 8.703e-08)
(-1.35855e-06 0.000694133 7.42544e-08)
(-1.47793e-06 0.000693887 8.02955e-08)
(-1.58382e-06 0.000693711 6.58144e-08)
(-1.66388e-06 0.000693599 7.3231e-08)
(-1.73643e-06 0.000693537 5.83421e-08)
(-1.78799e-06 0.000693525 6.74813e-08)
(-1.83671e-06 0.000693555 5.15245e-08)
(-1.86401e-06 0.000693627 6.19373e-08)
(-1.88655e-06 0.000693737 4.38431e-08)
(-1.88193e-06 0.000693889 5.48989e-08)
(-1.86633e-06 0.000694082 3.36133e-08)
(-1.81307e-06 0.000694324 4.42409e-08)
(-1.73688e-06 0.000694616 1.76944e-08)
(-1.60706e-06 0.00069497 2.55755e-08)
(-1.43714e-06 0.00069539 -9.03709e-09)
(-1.19012e-06 0.000695895 -6.24423e-09)
(-8.75757e-07 0.000696492 -4.9961e-08)
(-4.51576e-07 0.000697201 -5.2427e-08)
(7.77576e-08 0.000698027 -1.06696e-07)
(7.57712e-07 0.000698991 -1.19803e-07)
(1.58324e-06 0.000700112 -1.88665e-07)
(2.58162e-06 0.000701429 -2.12215e-07)
(3.73002e-06 0.000703084 -2.9514e-07)
(5.0926e-06 0.00070594 -3.49585e-07)
(6.67944e-06 0.000713942 -5.19379e-07)
(8.57288e-06 0.000745073 -7.66499e-07)
(1.09701e-05 0.000844037 -1.31251e-06)
(1.43119e-05 0.00105262 -2.38909e-06)
(1.95828e-05 0.00133507 -4.2152e-06)
(3.09342e-05 0.00171908 -2.95446e-06)
(2.83422e-05 0.00264468 1.04258e-05)
(-9.211e-06 0.00394605 -4.74735e-06)
(-4.56903e-05 0.00442915 -6.52821e-05)
(-3.32508e-05 0.00439176 -0.000159999)
(7.98527e-05 0.00434303 -0.00028938)
(0.000187035 0.00429303 -0.000241291)
(0.00026373 0.00444725 -0.000144655)
(0.000377768 0.00612032 -8.41634e-05)
(0.00126331 0.00465193 8.53854e-05)
(-0.000130887 0.009999 -1.12186e-05)
(0.0285031 0.173826 0.012129)
(-0.0411281 0.683007 0.006848)
(0.00351505 0.497818 -0.00878842)
(-0.0284612 0.566705 -0.0246731)
(0.00848111 0.533013 -0.0125191)
(-0.00300631 0.54733 -0.0202079)
(-0.00454388 0.555487 -0.0131844)
(-0.00299719 0.562654 0.0209788)
(-0.00223234 0.539503 0.00944988)
(-0.00335904 0.541895 6.91541e-05)
(-0.00220187 0.540617 -0.00221094)
(-0.00160611 0.533568 -0.00277728)
(-0.000639715 0.537539 -0.00174917)
(4.74579e-05 0.538109 -0.000353651)
(-0.000365197 0.533892 0.00052886)
(-0.00345508 0.536541 -0.00126354)
(-0.0029225 0.536757 -0.00241653)
(-0.00294306 0.535436 -0.00303095)
(-0.00325643 0.534618 -0.00619634)
(-0.00146777 0.527294 -0.00808383)
(-0.000273267 0.495605 -0.00408098)
(0.000301761 0.367264 -0.0010268)
(0.000176521 0.0307086 4.742e-05)
(0.000158 0.0101312 -2.59369e-05)
(0.000113387 0.0101569 -2.13793e-05)
(1.67664e-05 0.00977911 -0.00023853)
(-5.44127e-05 0.00925932 -0.000109932)
(-6.81563e-05 0.00848069 -1.17791e-05)
(-1.05079e-05 0.00760967 -0.00076767)
(0.00015604 0.00736341 -0.00119008)
(0.000314443 0.00744475 -3.99637e-05)
(0.000262766 0.00765938 -4.1047e-05)
(0.00015038 0.00783408 -1.06479e-05)
(6.67769e-06 0.00767644 -8.45013e-06)
(-1.38979e-05 0.00723715 -3.15629e-06)
(-3.28254e-05 0.00676418 -1.06242e-05)
(-3.02433e-05 0.00638511 -1.18234e-05)
(1.21449e-06 0.000372812 1.14769e-07)
(4.23145e-06 0.000401231 5.56201e-07)
(4.83516e-06 0.000458441 3.44339e-08)
(5.67343e-06 0.000506551 -4.3549e-08)
(5.77086e-06 0.000535243 1.91633e-08)
(5.88004e-06 0.000559535 2.69174e-07)
(5.51113e-06 0.000590645 3.72183e-07)
(4.9406e-06 0.000634816 4.12295e-07)
(4.18275e-06 0.000675873 2.21518e-07)
(3.32627e-06 0.000692948 1.97579e-07)
(2.41264e-06 0.000694254 1.53742e-07)
(1.58905e-06 0.00069563 1.29453e-07)
(8.43117e-07 0.000697169 1.03868e-07)
(2.33127e-07 0.000697049 1.14474e-07)
(-2.88652e-07 0.000696237 1.0237e-07)
(-7.0681e-07 0.000695432 1.06064e-07)
(-1.04255e-06 0.00069478 8.79383e-08)
(-1.31522e-06 0.000694263 9.22056e-08)
(-1.53312e-06 0.000693873 7.56123e-08)
(-1.70859e-06 0.000693584 7.87741e-08)
(-1.85107e-06 0.000693377 5.93461e-08)
(-1.96294e-06 0.000693237 6.45574e-08)
(-2.05541e-06 0.000693154 4.5635e-08)
(-2.12495e-06 0.000693121 5.23578e-08)
(-2.18262e-06 0.000693133 3.2144e-08)
(-2.22225e-06 0.000693187 3.96734e-08)
(-2.25198e-06 0.00069328 1.81127e-08)
(-2.26168e-06 0.000693416 2.65739e-08)
(-2.2559e-06 0.000693593 2.40557e-09)
(-2.22113e-06 0.00069382 1.02064e-08)
(-2.15944e-06 0.000694096 -1.86392e-08)
(-2.05391e-06 0.000694435 -1.35798e-08)
(-1.90404e-06 0.000694839 -4.91037e-08)
(-1.6904e-06 0.000695326 -4.9213e-08)
(-1.4048e-06 0.000695904 -9.50159e-08)
(-1.0221e-06 0.000696599 -1.04524e-07)
(-5.28219e-07 0.000697423 -1.63161e-07)
(1.02248e-07 0.000698395 -1.83587e-07)
(8.78177e-07 0.000699527 -2.56814e-07)
(1.80971e-06 0.000700832 -2.91637e-07)
(2.89279e-06 0.000702314 -3.70428e-07)
(4.11973e-06 0.000704164 -4.05608e-07)
(5.52802e-06 0.000707607 -4.92919e-07)
(7.22205e-06 0.000717475 -6.04063e-07)
(9.35285e-06 0.000756882 -8.50146e-07)
(1.21405e-05 0.000872887 -1.43085e-06)
(1.59273e-05 0.00107904 -2.75791e-06)
(2.18141e-05 0.00130331 -4.27835e-06)
(3.23293e-05 0.0015426 -2.22937e-06)
(4.79574e-05 0.00224476 1.38128e-05)
(1.32431e-05 0.0035081 4.49911e-05)
(-4.67789e-05 0.00431863 5.49111e-05)
(-2.20116e-05 0.00449624 1.18121e-05)
(4.12151e-07 0.00452542 -0.000165539)
(6.83557e-06 0.00440965 -0.000180048)
(2.84528e-05 0.00424822 -0.000157681)
(-0.000590035 0.00692743 -3.32485e-06)
(1.35347e-06 0.00925461 -0.000209299)
(-0.000278703 0.0116798 -0.000102329)
(0.00605189 0.245511 -0.00435926)
(-0.00555788 0.650789 0.00837597)
(-0.0111606 0.545808 -0.00882582)
(-0.0061355 0.556006 -0.00158475)
(-0.00469021 0.567229 -0.00499861)
(-0.00198018 0.558189 0.000906066)
(-0.00186735 0.555955 0.00185627)
(0.000524187 0.545822 0.000938132)
(-0.00306647 0.543112 -0.00220827)
(-0.00222744 0.542838 -0.00227696)
(-0.00306562 0.548468 -0.00137856)
(-0.00433473 0.54729 -0.0012147)
(-0.0034593 0.539884 -0.0010607)
(-0.00303093 0.540518 -0.00159671)
(-0.00394449 0.541302 -0.00244724)
(-0.00368662 0.539563 -0.00187811)
(-0.00320489 0.539424 -0.0017446)
(-0.00269302 0.53892 -0.00167299)
(-0.00254949 0.537894 -0.00110247)
(-0.00182584 0.537908 -0.00110335)
(-0.00246244 0.536358 -0.000942805)
(-0.00275776 0.535133 -0.000354294)
(-0.00275216 0.53565 0.000649059)
(-0.00431457 0.535607 0.00126109)
(-0.00557276 0.5376 0.00101189)
(-0.00347833 0.541338 0.00148899)
(-0.00243024 0.540326 0.00263351)
(-0.00241993 0.538421 0.00517936)
(-0.00531298 0.53489 0.00791629)
(-0.00954826 0.530874 0.00186727)
(-0.00823483 0.523626 -0.00259691)
(0.000688807 0.507794 0.000279857)
(0.0120426 0.471803 0.00016365)
(0.0129196 0.323213 -0.000219999)
(5.4998e-05 0.0300602 -8.04351e-05)
(8.5151e-05 0.00737893 -5.97264e-05)
(2.06977e-05 0.00758319 -0.000204867)
(1.51461e-06 0.000369324 4.51006e-07)
(5.23747e-06 0.000382548 1.02076e-06)
(5.91075e-06 0.000423054 2.65802e-07)
(6.73657e-06 0.000471018 5.57279e-08)
(6.61577e-06 0.000510342 5.85166e-08)
(6.4763e-06 0.000542786 2.11855e-07)
(5.79778e-06 0.00057627 2.18492e-07)
(5.15557e-06 0.000614636 4.04931e-07)
(4.33158e-06 0.000652185 3.14602e-07)
(3.45921e-06 0.000680317 2.12333e-07)
(2.52065e-06 0.000690861 2.02598e-07)
(1.72452e-06 0.000693879 1.36638e-07)
(9.33192e-07 0.000696109 1.26967e-07)
(2.12159e-07 0.000696413 1.25952e-07)
(-4.1755e-07 0.000695873 1.46935e-07)
(-8.9005e-07 0.000695217 1.44086e-07)
(-1.25531e-06 0.000694671 1.47579e-07)
(-1.53112e-06 0.00069423 1.25436e-07)
(-1.74473e-06 0.000693893 1.16559e-07)
(-1.91282e-06 0.000693638 8.48253e-08)
(-2.04581e-06 0.000693451 7.76005e-08)
(-2.15108e-06 0.000693316 5.35389e-08)
(-2.23353e-06 0.000693234 5.18415e-08)
(-2.29538e-06 0.000693201 2.92825e-08)
(-2.34309e-06 0.000693218 2.84389e-08)
(-2.37208e-06 0.000693279 5.02162e-09)
(-2.38796e-06 0.000693386 4.9585e-09)
(-2.38043e-06 0.000693538 -1.91463e-08)
(-2.35423e-06 0.000693739 -1.97211e-08)
(-2.29329e-06 0.000693989 -4.68513e-08)
(-2.20158e-06 0.000694299 -4.91856e-08)
(-2.05571e-06 0.000694673 -8.07645e-08)
(-1.86101e-06 0.000695123 -8.77619e-08)
(-1.58595e-06 0.000695662 -1.26395e-07)
(-1.23529e-06 0.000696314 -1.43053e-07)
(-7.69253e-07 0.000697099 -1.97559e-07)
(-1.96101e-07 0.000698039 -2.31378e-07)
(5.29966e-07 0.000699144 -3.02463e-07)
(1.39071e-06 0.000700428 -3.5045e-07)
(2.43394e-06 0.0007019 -4.29501e-07)
(3.62029e-06 0.00070358 -4.85858e-07)
(4.99503e-06 0.000705714 -5.56334e-07)
(6.49242e-06 0.000709552 -5.98237e-07)
(8.29476e-06 0.000720274 -7.01688e-07)
(1.04918e-05 0.000761128 -9.0549e-07)
(1.31907e-05 0.000872518 -1.56173e-06)
(1.6296e-05 0.00105643 -3.21083e-06)
(2.02904e-05 0.00126682 -5.01755e-06)
(2.73063e-05 0.00145857 -3.98419e-06)
(3.96118e-05 0.00184721 3.22118e-06)
(6.04375e-05 0.00281582 4.78151e-05)
(3.69933e-05 0.0038912 0.00010617)
(2.84825e-06 0.00444413 8.49509e-05)
(-3.69119e-05 0.0046112 -8.06992e-05)
(-0.000117839 0.00451137 -5.8126e-05)
(-0.000125744 0.00408188 4.10248e-05)
(-0.000432733 0.00711679 -0.000108173)
(-0.000265809 0.010304 -0.000227342)
(-9.07917e-05 0.0130253 0.000164389)
(-0.014115 0.373455 -0.0190788)
(-0.00528339 0.626077 0.000635237)
(-0.0069634 0.541117 -0.000827864)
(-0.00161901 0.545808 0.000437668)
(-0.00351051 0.544174 0.000792494)
(-0.0026785 0.542431 0.00211025)
(-0.00337062 0.543556 0.00104402)
(-0.00265462 0.540714 0.000818638)
(-0.0036905 0.543354 0.000284368)
(-0.00352415 0.544203 0.000125655)
(-0.00365423 0.543587 0.000199323)
(-0.00354257 0.54166 0.000324492)
(-0.00305442 0.543129 0.000201905)
(-0.00312119 0.544235 0.000567825)
(-0.00319768 0.543986 9.331e-05)
(-0.00279101 0.544317 5.14597e-05)
(-0.00196718 0.544772 -0.000287892)
(-0.00143746 0.54462 -0.000799496)
(-0.000450375 0.542899 -0.000933571)
(0.00020454 0.543429 -0.00131834)
(0.000677656 0.542262 -0.00174217)
(0.000706028 0.542104 -0.0020394)
(-6.01783e-06 0.540068 -0.00159735)
(-0.00179773 0.538357 -0.00031585)
(-0.00435828 0.534417 -9.60884e-05)
(-0.00593262 0.531501 -7.55848e-05)
(-0.00645644 0.531334 -0.00122886)
(-0.0071609 0.532782 -0.0021473)
(-0.00772557 0.536835 -0.00179802)
(-0.00620853 0.540883 0.000229398)
(-0.00371588 0.539156 0.000859529)
(0.000295776 0.537073 0.00193206)
(0.00529678 0.535213 -0.000531194)
(0.00347364 0.532859 -0.00393937)
(-0.00232358 0.53102 -0.00559093)
(-0.00820342 0.528607 -0.00165138)
(-0.00830785 0.518113 0.0035159)
(1.76578e-06 0.000372597 8.04614e-07)
(6.48649e-06 0.000378391 1.71749e-06)
(6.97703e-06 0.000401743 6.87366e-07)
(7.59022e-06 0.000440569 5.02967e-07)
(7.22431e-06 0.000486055 2.6503e-07)
(6.81563e-06 0.000529239 3.14352e-07)
(5.97381e-06 0.000569684 1.74264e-07)
(5.20165e-06 0.000607578 2.76884e-07)
(4.5005e-06 0.000637908 2.63379e-07)
(3.57587e-06 0.000663726 1.83707e-07)
(2.5982e-06 0.000681032 1.56737e-07)
(1.81015e-06 0.000690224 1.17356e-07)
(9.59229e-07 0.000694612 1.18261e-07)
(1.85214e-07 0.000695575 1.55404e-07)
(-5.10215e-07 0.000695264 1.96832e-07)
(-1.01583e-06 0.000694741 2.17828e-07)
(-1.41321e-06 0.000694286 2.19e-07)
(-1.70785e-06 0.000693911 2.22361e-07)
(-1.93391e-06 0.000693643 2.11451e-07)
(-2.11636e-06 0.000693446 2.03632e-07)
(-2.24787e-06 0.000693316 1.83802e-07)
(-2.35438e-06 0.000693244 1.75851e-07)
(-2.42607e-06 0.00069322 1.54826e-07)
(-2.48515e-06 0.000693236 1.47306e-07)
(-2.51767e-06 0.000693293 1.2664e-07)
(-2.54069e-06 0.000693392 1.19924e-07)
(-2.53423e-06 0.000693531 9.83632e-08)
(-2.51353e-06 0.00069372 8.94729e-08)
(-2.4546e-06 0.00069396 6.3913e-08)
(-2.37105e-06 0.00069426 5.03119e-08)
(-2.23237e-06 0.000694627 1.88606e-08)
(-2.04969e-06 0.000695073 -2.27324e-09)
(-1.78701e-06 0.000695609 -4.37225e-08)
(-1.45669e-06 0.000696253 -7.87338e-08)
(-1.01935e-06 0.000697032 -1.37218e-07)
(-4.86029e-07 0.000697968 -1.9045e-07)
(1.90604e-07 0.000699079 -2.63205e-07)
(1.00053e-06 0.000700373 -3.27672e-07)
(1.99563e-06 0.000701852 -4.16359e-07)
(3.14308e-06 0.000703524 -5.07484e-07)
(4.48374e-06 0.000705434 -6.18921e-07)
(6.00344e-06 0.000707669 -7.44318e-07)
(7.73029e-06 0.000711223 -8.35631e-07)
(9.71106e-06 0.000721621 -9.47554e-07)
(1.20547e-05 0.000761567 -1.07966e-06)
(1.43642e-05 0.000865924 -1.81431e-06)
(1.64145e-05 0.00104191 -3.6641e-06)
(1.75066e-05 0.00127848 -5.56364e-06)
(1.97919e-05 0.00154269 -6.17675e-06)
(2.28675e-05 0.00184921 9.79944e-07)
(4.86741e-05 0.00243749 2.40323e-05)
(5.01386e-05 0.0032796 8.13044e-05)
(6.98842e-05 0.00408996 9.95564e-05)
(3.1964e-06 0.00451859 -2.08569e-05)
(-9.71134e-05 0.00464078 -8.19647e-05)
(7.87439e-05 0.00434313 -6.24637e-05)
(-0.00053003 0.00666679 0.000209713)
(-0.000441314 0.00631314 -7.00603e-05)
(0.000366 0.0116982 1.15055e-05)
(-0.0623383 0.353384 -0.0205729)
(-0.0220209 0.619805 -0.0122938)
(0.00124525 0.536019 0.00233113)
(-0.00308941 0.530824 5.04233e-05)
(0.00333862 0.522858 0.00411692)
(0.00168494 0.519768 0.00467146)
(0.00797571 0.522165 0.000380012)
(0.00384556 0.530402 -3.13774e-05)
(0.000522071 0.542952 -0.00187562)
(0.000710734 0.54954 -0.00203338)
(0.000655739 0.54932 -0.00103292)
(0.00331899 0.548947 0.00137731)
(0.00352859 0.552189 0.00312827)
(0.00455402 0.550967 0.00298461)
(0.00327351 0.554042 0.00441591)
(0.00210235 0.55468 0.00511934)
(0.00168151 0.554946 0.00424851)
(0.00053562 0.556852 0.00386942)
(0.000970487 0.557448 0.00431793)
(0.001392 0.555336 0.00429755)
(0.00201563 0.550965 0.00222968)
(0.000974765 0.560222 -0.00187822)
(7.1799e-05 0.556432 -0.00367523)
(-0.000156797 0.545054 -0.00442808)
(-0.00427449 0.552458 -0.00741428)
(-0.0016947 0.553953 -0.00387562)
(-0.000843562 0.543917 -0.00230648)
(-0.00133382 0.539543 0.000300216)
(0.00174026 0.540478 0.000220427)
(0.000575027 0.535492 -0.000147209)
(0.00133328 0.534543 -3.03087e-05)
(0.0026012 0.532521 -0.0024118)
(0.0029641 0.529769 -0.00442651)
(0.00187323 0.525589 -0.00684816)
(-0.00354572 0.522884 -0.0112289)
(-0.011684 0.517535 -0.0183834)
(-0.0141065 0.507141 -0.023132)
(3.10136e-06 0.000386233 1.14214e-06)
(8.34098e-06 0.000392928 2.19107e-06)
(8.2587e-06 0.000402467 1.04594e-06)
(8.5861e-06 0.000429382 8.00326e-07)
(7.84197e-06 0.00047254 4.09801e-07)
(7.11133e-06 0.000521353 2.11878e-07)
(6.17357e-06 0.000569168 -2.51866e-08)
(5.34982e-06 0.000610463 -3.08574e-08)
(4.49855e-06 0.000637294 2.61721e-08)