/*--------------------------------*- C++ -*----------------------------------*\
| =========                 |                                                 |
| \\      /  F ield         | OpenFOAM: The Open Source CFD Toolbox           |
|  \\    /   O peration     | Version:  2.3.0                                 |
|   \\  /    A nd           | Web:      www.OpenFOAM.org                      |
|    \\/     M anipulation  |                                                 |
\*---------------------------------------------------------------------------*/
FoamFile
{
    version     2.0;
    format      ascii;
    class       volScalarField;
    location    "23";
    object      w2;
}
// * * * * * * * * * * * * * * * * * * * * * * * * * * * * * * * * * * * * * //

dimensions      [0 0 0 0 0 0 0];

internalField   nonuniform List<scalar> 
6144
(
0.452838
0.452838
0.452838
0.452838
0.452838
0.452838
0.452838
0.452838
0.452838
0.452838
0.452838
0.452838
0.452838
0.452838
0.452838
0.452838
0.452838
0.452838
0.452838
0.452838
0.452838
0.452838
0.452838
0.452838
0.452838
0.452838
0.452838
0.452838
0.452838
0.452838
0.452838
0.452838
0.452838
0.452838
0.452838
0.452838
0.452838
0.452838
0.452838
0.452838
0.452838
0.452838
0.452838
0.452838
0.452838
0.452838
0.452838
0.452838
0.452838
0.452838
0.452838
0.452838
0.452838
0.452838
0.452838
0.452838
0.452839
0.45287
0.494706
0.477395
0.143445
0.000694621
4.51716e-06
0.00141397
0.00081265
0.00533507
0.00800638
0.0399528
0.00668535
0.0054356
0.00761843
0.0142621
0.0510569
0.0299511
0.0185477
0.0131862
0.0108696
0.00896185
0.00847051
0.0166984
0.0196033
0.016473
0.0434872
0.0301142
0.0195533
0.0144926
0.00888608
0.0121336
0.00991477
0.00893525
0.0120413
0.0391224
0.00325492
0.00077686
0.000446509
0.000125914
0.452838
0.452838
0.452838
0.452838
0.452838
0.452838
0.452838
0.452838
0.452838
0.452838
0.452838
0.452838
0.452838
0.452838
0.452838
0.452838
0.452838
0.452838
0.452838
0.452838
0.452838
0.452838
0.452838
0.452838
0.452838
0.452838
0.452838
0.452838
0.452838
0.452838
0.452838
0.452838
0.452838
0.452838
0.452838
0.452838
0.452838
0.452838
0.452838
0.452838
0.452838
0.452838
0.452838
0.452838
0.452838
0.452838
0.452838
0.452838
0.452838
0.452838
0.452838
0.452838
0.452838
0.452838
0.452838
0.452838
0.45284
0.454158
0.510738
0.477261
0.176793
0.00089123
4.80379e-06
0.000727402
0.0119204
0.00169929
0.00389999
0.0105778
0.016385
0.0119593
0.0407304
0.088591
0.31078
0.0101957
0.00910536
0.00790832
0.00678423
0.0388339
0.0116439
0.0174361
0.0832825
0.00799259
0.0296631
0.00685119
0.038874
0.00603572
0.0122716
0.0262364
0.0129588
0.00699161
0.00786857
0.0211268
0.00229661
0.000738175
0.000524516
0.000129139
0.452838
0.452838
0.452838
0.452838
0.452838
0.452838
0.452838
0.452838
0.452838
0.452838
0.452838
0.452838
0.452838
0.452838
0.452838
0.452838
0.452838
0.452838
0.452838
0.452838
0.452838
0.452838
0.452838
0.452838
0.452838
0.452838
0.452838
0.452838
0.452838
0.452838
0.452838
0.452838
0.452838
0.452838
0.452838
0.452838
0.452838
0.452838
0.452838
0.452838
0.452838
0.452838
0.452838
0.452838
0.452838
0.452838
0.452838
0.452838
0.452838
0.452838
0.452838
0.452838
0.452838
0.452838
0.452838
0.452838
0.452838
0.452889
0.476351
0.391346
0.761294
0.00101487
5.07419e-06
0.000532108
0.00185443
0.00713063
0.00205793
0.00255877
0.00472828
0.00851801
0.00814188
0.00681313
0.00670221
0.0176567
0.0135745
0.00724823
0.0105565
0.0363364
0.00860906
0.251992
0.00422221
0.00772012
0.00454145
0.00313381
0.005658
0.00682202
0.0133171
0.255847
0.00648359
0.00464501
0.00372649
0.00380651
0.00788347
0.000922361
0.000545815
0.000124587
0.452838
0.452838
0.452838
0.452838
0.452838
0.452838
0.452838
0.452838
0.452838
0.452838
0.452838
0.452838
0.452838
0.452838
0.452838
0.452838
0.452838
0.452838
0.452838
0.452838
0.452838
0.452838
0.452838
0.452838
0.452838
0.452838
0.452838
0.452838
0.452838
0.452838
0.452838
0.452838
0.452838
0.452838
0.452838
0.452838
0.452838
0.452838
0.452838
0.452838
0.452838
0.452838
0.452838
0.452838
0.452838
0.452838
0.452838
0.452838
0.452838
0.452838
0.452838
0.452838
0.452838
0.452838
0.452839
0.452838
0.452839
0.452817
0.455066
0.493865
0.826844
0.844265
6.22657e-06
0.000302342
0.000121515
0.00392446
0.0128569
0.0239552
0.0119709
0.00740975
0.00952992
0.0382122
0.0157114
0.00584846
0.00544992
0.00454666
0.0049811
0.0224658
0.0105267
0.0107327
0.00341863
0.00264704
0.00371645
0.00716115
0.00783895
0.0103159
0.0253367
0.00255935
0.00155518
0.00150434
0.0021788
0.00520662
0.00318615
0.00085869
0.00052962
0.000123623
0.452838
0.452838
0.452838
0.452838
0.452838
0.452838
0.452838
0.452838
0.452838
0.452838
0.452838
0.452838
0.452838
0.452838
0.452838
0.452838
0.452838
0.452838
0.452838
0.452838
0.452838
0.452838
0.452838
0.452838
0.452838
0.452838
0.452838
0.452838
0.452838
0.452838
0.452838
0.452838
0.452838
0.452838
0.452838
0.452838
0.452838
0.452838
0.452838
0.452838
0.452838
0.452838
0.452838
0.452838
0.452838
0.452838
0.452838
0.452838
0.452838
0.452838
0.452838
0.452838
0.452838
0.452838
0.452839
0.452838
0.452839
0.452834
0.452821
0.457982
0.194423
0.00890127
0.00309335
0.000160608
1.15699e-05
7.10053e-06
0.000267282
0.000186721
0.00307
0.00162551
0.000293316
0.000283935
0.000375265
0.000365097
0.000372082
0.000613593
0.000635
0.00226037
0.00469276
0.0448221
0.00889766
0.00260156
0.00102845
0.000793469
0.00067093
0.000633877
0.000679308
0.00465362
0.00975627
0.0300909
0.0116065
0.00522203
0.00162551
0.000737663
0.000547858
0.000121033
0.452838
0.452838
0.452838
0.452838
0.452838
0.452838
0.452838
0.452838
0.452838
0.452838
0.452838
0.452838
0.452838
0.452838
0.452838
0.452838
0.452838
0.452838
0.452838
0.452838
0.452838
0.452838
0.452838
0.452838
0.452838
0.452838
0.452838
0.452838
0.452838
0.452838
0.452838
0.452838
0.452838
0.452838
0.452838
0.452838
0.452838
0.452838
0.452838
0.452838
0.452838
0.452838
0.452838
0.452838
0.452838
0.452838
0.452838
0.452838
0.452838
0.452838
0.452838
0.452838
0.452838
0.452838
0.452839
0.452838
0.452838
0.452839
0.452854
0.490941
0.199612
0.0551182
0.894389
0.0283218
0.67901
0.938872
0.0197021
0.406618
0.0178071
0.0112722
0.00420717
0.00808075
0.00524416
0.0281898
0.0212185
0.0422726
0.0231306
0.0171257
0.00790223
0.00801957
0.00889893
0.00559822
0.00182372
0.000431251
6.90556e-05
1.57845e-05
9.21763e-06
9.0562e-06
0.00100253
0.000646672
0.00182905
0.00162533
0.00051149
0.000254736
0.000221312
0.000116587
0.452838
0.452838
0.452838
0.452838
0.452838
0.452838
0.452838
0.452838
0.452838
0.452838
0.452838
0.452838
0.452838
0.452838
0.452838
0.452838
0.452838
0.452838
0.452838
0.452838
0.452838
0.452838
0.452838
0.452838
0.452838
0.452838
0.452838
0.452838
0.452838
0.452838
0.452838
0.452838
0.452838
0.452838
0.452838
0.452838
0.452838
0.452838
0.452838
0.452838
0.452838
0.452838
0.452838
0.452838
0.452838
0.452838
0.452838
0.452838
0.452838
0.452838
0.452838
0.452838
0.452838
0.452838
0.452838
0.452838
0.452839
0.452824
0.450995
0.528314
0.0534822
0.990131
0.203556
0.0980199
0.999292
0.0146431
0.509605
0.938225
0.34134
0.954552
0.743418
0.980808
0.52353
0.999981
0.584707
0.229938
0.715638
0.939721
0.349817
0.368817
0.867617
0.241932
0.517407
0.165115
0.0943616
0.204876
0.431238
0.992665
0.00125491
5.79598e-06
0.000493373
0.00276115
3.74615e-06
0.999694
0.0120945
9.43625e-05
0.452838
0.452838
0.452838
0.452838
0.452838
0.452838
0.452838
0.452838
0.452838
0.452838
0.452838
0.452838
0.452838
0.452838
0.452838
0.452838
0.452838
0.452838
0.452838
0.452838
0.452838
0.452838
0.452838
0.452838
0.452838
0.452838
0.452838
0.452838
0.452838
0.452838
0.452838
0.452838
0.452838
0.452838
0.452838
0.452838
0.452838
0.452838
0.452838
0.452838
0.452838
0.452838
0.452838
0.452838
0.452838
0.452838
0.452838
0.452838
0.452838
0.452838
0.452838
0.452838
0.452838
0.452838
0.452838
0.452838
0.452839
0.452828
0.453146
0.514674
0.100376
0.000178
0.994353
0.552082
0.665691
0.79912
0.589001
0.996497
0.921926
0.256712
0.903817
0.237674
0.912372
0.858822
0.550382
0.498001
0.702768
0.834984
0.976035
0.678249
0.290852
0.584435
0.655231
0.979643
0.922124
0.999993
0.399811
0.237694
0.866195
0.982048
0.999997
0.986483
0.839969
0.790679
0.53821
0.959227
0.452838
0.452838
0.452838
0.452838
0.452838
0.452838
0.452838
0.452838
0.452838
0.452838
0.452838
0.452838
0.452838
0.452838
0.452838
0.452838
0.452838
0.452838
0.452838
0.452838
0.452838
0.452838
0.452838
0.452838
0.452838
0.452838
0.452838
0.452838
0.452838
0.452838
0.452838
0.452838
0.452838
0.452838
0.452838
0.452838
0.452838
0.452838
0.452838
0.452838
0.452838
0.452838
0.452838
0.452838
0.452838
0.452838
0.452838
0.452838
0.452838
0.452838
0.452838
0.452838
0.452838
0.452838
0.452838
0.452839
0.452801
0.451832
0.454592
0.515437
0.0367337
0.676196
0.914297
0.897011
0.205958
0.912384
0.998927
0.709657
0.748637
0.200715
0.999618
0.981604
0.914408
0.954605
0.830855
0.968686
0.899774
0.824651
0.293165
0.117897
0.380009
0.157729
0.9798
1.43036e-06
3.1664e-07
0.00316401
0.968838
0.931667
0.969942
0.0535351
0.606413
0.997785
0.996233
0.937115
0.913905
0.000202978
0.452838
0.452838
0.452838
0.452838
0.452838
0.452838
0.452838
0.452838
0.452838
0.452838
0.452838
0.452838
0.452838
0.452838
0.452838
0.452838
0.452838
0.452838
0.452838
0.452838
0.452838
0.452838
0.452838
0.452838
0.452838
0.452838
0.452838
0.452838
0.452838
0.452838
0.452838
0.452838
0.452838
0.452838
0.452838
0.452838
0.452838
0.452838
0.452838
0.452838
0.452838
0.452838
0.452838
0.452838
0.452838
0.452838
0.452838
0.452838
0.452838
0.452838
0.452838
0.452838
0.452838
0.452838
0.452838
0.452838
0.452838
0.452875
0.453305
0.540999
0.0982705
0.0319271
0.193867
0.058781
0.873828
0.231989
0.946071
0.34395
0.9986
0.996242
0.143392
0.0903138
0.717391
0.173159
0.273156
0.00905866
0.176527
0.929133
0.634244
0.000137576
1.31734e-05
8.45176e-06
0.999999
2.47994e-05
0.999993
0.836213
0.00260387
0.00424566
0.00123948
0.00263344
0.000762312
0.000357189
1.47412e-05
8.07755e-06
0.00011197
8.49565e-05
0.452838
0.452838
0.452838
0.452838
0.452838
0.452838
0.452838
0.452838
0.452838
0.452838
0.452838
0.452838
0.452838
0.452838
0.452838
0.452838
0.452838
0.452838
0.452838
0.452838
0.452838
0.452838
0.452838
0.452838
0.452838
0.452838
0.452838
0.452838
0.452838
0.452838
0.452838
0.452838
0.452838
0.452838
0.452838
0.452838
0.452838
0.452838
0.452838
0.452838
0.452838
0.452838
0.452838
0.452838
0.452838
0.452838
0.452838
0.452838
0.452838
0.452838
0.452838
0.452838
0.452838
0.452838
0.452838
0.452838
0.452839
0.452189
0.486148
0.520908
0.183011
0.00445063
0.0136359
0.00565977
0.00328157
0.00273011
0.00221557
0.000678236
0.00289136
0.00245208
0.999982
9.3338e-05
4.41613e-05
9.42097e-06
9.08243e-06
0.000285075
0.000349359
0.000462437
0.000704368
0.000893232
0.00107062
0.00657494
0.00411407
0.00142869
0.000349624
0.000186799
0.00012798
0.000229947
0.000701616
0.000647718
0.000106573
0.000274148
0.000513643
0.00281318
0.0149808
0.000132786
0.452838
0.452838
0.452838
0.452838
0.452838
0.452838
0.452838
0.452838
0.452838
0.452838
0.452838
0.452838
0.452838
0.452838
0.452838
0.452838
0.452838
0.452838
0.452838
0.452838
0.452838
0.452838
0.452838
0.452838
0.452838
0.452838
0.452838
0.452838
0.452838
0.452838
0.452838
0.452838
0.452838
0.452838
0.452838
0.452838
0.452838
0.452838
0.452838
0.452838
0.452838
0.452838
0.452838
0.452838
0.452838
0.452838
0.452838
0.452838
0.452838
0.452838
0.452838
0.452838
0.452838
0.452838
0.452838
0.452838
0.452839
0.452855
0.449559
0.490536
0.210868
0.000485997
2.30788e-06
0.000240914
0.021778
0.00198943
0.00122931
0.00518629
0.000461406
0.000185218
0.000262132
0.000470917
0.000463552
0.000510488
0.000752292
0.003791
0.0563525
0.048601
0.0156523
0.0204787
0.0108344
0.00411831
0.00274792
0.00435749
0.00455574
0.00279931
0.00229257
0.00234045
0.00673652
0.00160428
0.000919678
0.00172018
0.000939982
0.0023322
0.0019853
0.000121928
0.452838
0.452838
0.452838
0.452838
0.452838
0.452838
0.452838
0.452838
0.452838
0.452838
0.452838
0.452838
0.452838
0.452838
0.452838
0.452838
0.452838
0.452838
0.452838
0.452838
0.452838
0.452838
0.452838
0.452838
0.452838
0.452838
0.452838
0.452838
0.452838
0.452838
0.452838
0.452838
0.452838
0.452838
0.452838
0.452838
0.452838
0.452838
0.452838
0.452838
0.452838
0.452838
0.452838
0.452838
0.452838
0.452838
0.452838
0.452838
0.452838
0.452838
0.452838
0.452838
0.452838
0.452838
0.452838
0.452838
0.452839
0.452841
0.452882
0.581905
0.170847
0.00170463
2.41868e-06
0.0002906
0.000476221
0.000820058
0.00260628
0.0090272
0.00276496
0.00223822
0.00754237
0.0056954
0.0189574
0.00446751
0.00270852
0.0037548
0.0846596
0.0054548
0.00307564
0.00231878
0.00228853
0.00250007
0.00356976
0.00971107
0.00776127
0.00445761
0.00274616
0.00345295
0.0445492
0.0436352
0.00626979
0.00235798
0.0033136
0.00911886
0.00120954
0.000118632
0.452838
0.452838
0.452838
0.452838
0.452838
0.452838
0.452838
0.452838
0.452838
0.452838
0.452838
0.452838
0.452838
0.452838
0.452838
0.452838
0.452838
0.452838
0.452838
0.452838
0.452838
0.452838
0.452838
0.452838
0.452838
0.452838
0.452838
0.452838
0.452838
0.452838
0.452838
0.452838
0.452838
0.452838
0.452838
0.452838
0.452838
0.452838
0.452838
0.452838
0.452838
0.452838
0.452838
0.452838
0.452838
0.452838
0.452838
0.452838
0.452838
0.452838
0.452838
0.452838
0.452838
0.452838
0.452838
0.452839
0.45284
0.452842
0.452935
0.515959
0.228824
0.00215375
2.44655e-06
0.000221261
0.00127004
0.00207595
0.00122038
0.00333051
0.0568573
0.0216102
0.00616892
0.00564564
0.00967329
0.0119743
0.0314873
0.0295067
0.0543587
0.642051
0.35614
0.0166577
0.0159117
0.0487301
0.0144708
0.00710344
0.0312352
0.00406438
0.0040123
0.00297585
0.00601716
0.0038503
0.0162374
0.0046562
0.00124846
0.00250037
0.000845856
0.000114498
0.452838
0.452838
0.452838
0.452838
0.452838
0.452838
0.452838
0.452838
0.452838
0.452838
0.452838
0.452838
0.452838
0.452838
0.452838
0.452838
0.452838
0.452838
0.452838
0.452838
0.452838
0.452838
0.452838
0.452838
0.452838
0.452838
0.452838
0.452838
0.452838
0.452838
0.452838
0.452838
0.452838
0.452838
0.452838
0.452838
0.452838
0.452838
0.452838
0.452838
0.452838
0.452838
0.452838
0.452838
0.452838
0.452838
0.452838
0.452838
0.452838
0.452838
0.452838
0.452838
0.452838
0.452838
0.452838
0.452838
0.452841
0.452841
0.457503
0.572299
0.130298
0.00350609
4.9744e-06
0.00378437
0.000865356
0.000644532
0.00218271
0.00722495
0.0250992
0.0157065
0.0140546
0.0092948
0.00531715
0.00443048
0.00358712
0.00411612
0.00396411
0.00470727
0.00479681
0.00736607
0.00799043
0.00505134
0.00186426
0.00126301
0.00252608
0.00417467
0.0194575
0.00387799
0.003816
0.00751292
0.00395107
0.00207446
0.0172565
0.00360979
0.000818391
0.000124106
0.452838
0.452838
0.452838
0.452838
0.452838
0.452838
0.452838
0.452838
0.452838
0.452838
0.452838
0.452838
0.452838
0.452838
0.452838
0.452838
0.452838
0.452838
0.452838
0.452838
0.452838
0.452838
0.452838
0.452838
0.452838
0.452838
0.452838
0.452838
0.452838
0.452838
0.452838
0.452838
0.452838
0.452838
0.452838
0.452838
0.452838
0.452838
0.452838
0.452838
0.452838
0.452838
0.452838
0.452838
0.452838
0.452838
0.452838
0.452838
0.452838
0.452838
0.452838
0.452838
0.452838
0.452838
0.452838
0.452838
0.45284
0.452832
0.450319
0.516843
0.207316
0.994185
6.15429e-06
0.000591189
0.000645373
0.00916768
0.0518012
0.00219108
0.00252098
0.0121387
0.00310523
0.00144177
0.00122095
0.00154039
0.00346486
0.0237354
0.144937
0.100173
0.0441094
0.0194078
0.0303055
0.00688899
0.00225696
0.00178237
0.0166653
0.00647602
0.00302029
0.0931075
0.0102858
0.00231678
0.00192634
0.00164387
0.0248933
0.0033613
0.000723686
0.000112098
0.452838
0.452838
0.452838
0.452838
0.452838
0.452838
0.452838
0.452838
0.452838
0.452838
0.452838
0.452838
0.452838
0.452838
0.452838
0.452838
0.452838
0.452838
0.452838
0.452838
0.452838
0.452838
0.452838
0.452838
0.452838
0.452838
0.452838
0.452838
0.452838
0.452838
0.452838
0.452838
0.452838
0.452838
0.452838
0.452838
0.452838
0.452838
0.452838
0.452838
0.452838
0.452838
0.452838
0.452838
0.452838
0.452838
0.452838
0.452838
0.452838
0.452838
0.452838
0.452838
0.452838
0.452838
0.452838
0.452838
0.452839
0.45427
0.497537
0.494459
0.146911
0.00114962
4.89848e-06
0.00173035
0.000974719
0.0118825
0.00519757
0.0269598
0.00904915
0.0133633
0.0346106
0.103293
0.120021
0.0710924
0.0567606
0.0446709
0.0382446
0.0313805
0.0339164
0.0321291
0.045921
0.902226
0.0308391
0.0180814
0.113047
0.059538
0.032475
0.0224403
0.0186759
0.0219911
0.0156018
0.026467
0.00564346
0.00317277
0.000677289
0.000112126
0.452838
0.452838
0.452838
0.452838
0.452838
0.452838
0.452838
0.452838
0.452838
0.452838
0.452838
0.452838
0.452838
0.452838
0.452838
0.452838
0.452838
0.452838
0.452838
0.452838
0.452838
0.452838
0.452838
0.452838
0.452838
0.452838
0.452838
0.452838
0.452838
0.452838
0.452838
0.452838
0.452838
0.452838
0.452838
0.452838
0.452838
0.452838
0.452838
0.452838
0.452838
0.452838
0.452838
0.452838
0.452838
0.452838
0.452838
0.452838
0.452838
0.452838
0.452838
0.452838
0.452838
0.452838
0.452838
0.452838
0.45284
0.452874
0.452419
0.507878
0.101364
0.000136439
5.13348e-06
0.000436168
0.00255334
0.00181393
0.114479
0.0574638
0.00605785
0.00399475
0.00406539
0.00558231
0.00784026
0.00887118
0.0101101
0.0166155
0.0288771
0.0287589
0.00793208
0.00936131
0.0128734
0.0359984
0.0178053
0.00936422
0.0191893
0.00908045
0.00987062
0.0163599
0.0149371
0.00823133
0.00657965
0.0765077
0.00905461
0.00732099
0.000672931
0.00011398
0.452838
0.452838
0.452838
0.452838
0.452838
0.452838
0.452838
0.452838
0.452838
0.452838
0.452838
0.452838
0.452838
0.452838
0.452838
0.452838
0.452838
0.452838
0.452838
0.452838
0.452838
0.452838
0.452838
0.452838
0.452838
0.452838
0.452838
0.452838
0.452838
0.452838
0.452838
0.452838
0.452838
0.452838
0.452838
0.452838
0.452838
0.452838
0.452838
0.452838
0.452838
0.452838
0.452838
0.452838
0.452838
0.452838
0.452838
0.452838
0.452838
0.452838
0.452838
0.452838
0.452838
0.452838
0.452838
0.452839
0.452839
0.452839
0.445961
0.522987
0.222218
6.55537e-06
0.00925251
0.00051867
0.00190317
0.00920064
0.00402762
0.0600664
0.00718255
0.131264
0.00647708
0.00609756
0.00838188
0.0253105
0.0495439
0.0186851
0.0140562
0.0174826
0.00797331
0.00683816
0.00803084
0.00664203
0.187753
0.0131685
0.00689301
0.00554053
0.00406154
0.00280821
0.00344519
0.00534921
0.0215826
0.0052359
0.00527511
0.0347677
0.000707984
0.000114548
0.452838
0.452838
0.452838
0.452838
0.452838
0.452838
0.452838
0.452838
0.452838
0.452838
0.452838
0.452838
0.452838
0.452838
0.452838
0.452838
0.452838
0.452838
0.452838
0.452838
0.452838
0.452838
0.452838
0.452838
0.452838
0.452838
0.452838
0.452838
0.452838
0.452838
0.452838
0.452838
0.452838
0.452838
0.452838
0.452838
0.452838
0.452838
0.452838
0.452838
0.452838
0.452838
0.452838
0.452838
0.452838
0.452838
0.452838
0.452838
0.452838
0.452838
0.452838
0.452838
0.452838
0.452838
0.452839
0.452838
0.452839
0.45284
0.453682
0.481859
0.606224
3.53704e-05
2.51566e-05
7.10615e-06
0.000455193
0.000259788
0.000675636
0.00220944
0.00550188
0.00783682
0.0722974
0.0038168
0.00444215
0.00470211
0.0010029
0.000780828
0.00619698
0.00094558
0.00318668
0.00455956
0.0452902
0.00559411
0.00340075
0.00253895
0.00288571
0.00220529
0.00163896
0.00240254
0.00860714
0.00563459
0.00401347
0.00425672
0.00734969
0.0224667
0.000730933
0.000114583
0.452838
0.452838
0.452838
0.452838
0.452838
0.452838
0.452838
0.452838
0.452838
0.452838
0.452838
0.452838
0.452838
0.452838
0.452838
0.452838
0.452838
0.452838
0.452838
0.452838
0.452838
0.452838
0.452838
0.452838
0.452838
0.452838
0.452838
0.452838
0.452838
0.452838
0.452838
0.452838
0.452838
0.452838
0.452838
0.452838
0.452838
0.452838
0.452838
0.452838
0.452838
0.452838
0.452838
0.452838
0.452838
0.452838
0.452838
0.452838
0.452838
0.452838
0.452838
0.452838
0.452838
0.452838
0.452839
0.452839
0.452839
0.452836
0.452783
0.522991
0.151933
0.475582
0.993713
0.00699623
0.00128211
0.000537431
4.15447e-05
7.50954e-06
5.97745e-06
8.28531e-06
2.20253e-05
1.75399e-05
5.27304e-06
8.87751e-06
8.65449e-06
2.73338e-05
0.000232011
7.75312e-06
8.11418e-06
0.00233175
0.000498136
0.000623533
0.00164192
0.0060246
0.000806177
0.000387184
0.000267938
0.000261091
0.000243726
0.0118305
0.00493342
0.00527835
0.00427894
0.00310839
0.000625437
0.000109681
0.452838
0.452838
0.452838
0.452838
0.452838
0.452838
0.452838
0.452838
0.452838
0.452838
0.452838
0.452838
0.452838
0.452838
0.452838
0.452838
0.452838
0.452838
0.452838
0.452838
0.452838
0.452838
0.452838
0.452838
0.452838
0.452838
0.452838
0.452838
0.452838
0.452838
0.452838
0.452838
0.452838
0.452838
0.452838
0.452838
0.452838
0.452838
0.452838
0.452838
0.452838
0.452838
0.452838
0.452838
0.452838
0.452838
0.452838
0.452838
0.452838
0.452838
0.452838
0.452838
0.452838
0.452838
0.452838
0.452838
0.452838
0.452837
0.452845
0.535593
0.95969
0.0848086
0.973147
0.894219
0.747919
0.214906
0.237354
0.189068
0.543149
0.0774409
0.0647213
0.233536
0.135438
0.999793
0.0588367
0.0450362
0.0609833
0.746502
0.925393
0.0415866
0.0541179
0.207543
0.428386
0.419545
0.946499
0.0558973
0.00789804
0.000365508
2.24557e-05
5.68198e-06
0.00519432
0.000509267
0.000291468
0.000265393
0.000132776
5.2022e-05
0.452838
0.452838
0.452838
0.452838
0.452838
0.452838
0.452838
0.452838
0.452838
0.452838
0.452838
0.452838
0.452838
0.452838
0.452838
0.452838
0.452838
0.452838
0.452838
0.452838
0.452838
0.452838
0.452838
0.452838
0.452838
0.452838
0.452838
0.452838
0.452838
0.452838
0.452838
0.452838
0.452838
0.452838
0.452838
0.452838
0.452838
0.452838
0.452838
0.452838
0.452838
0.452838
0.452838
0.452838
0.452838
0.452838
0.452838
0.452838
0.452838
0.452838
0.452838
0.452838
0.452838
0.452838
0.452838
0.452838
0.452838
0.452844
0.472923
0.550742
0.147214
0.53773
0.861805
0.536588
0.61904
0.44169
0.396712
0.84102
0.53196
0.907329
0.575068
0.532726
0.475706
0.77045
0.974726
0.641633
0.244908
0.342835
0.570816
0.695578
0.431631
0.55388
0.872109
0.523709
0.995014
0.978411
0.916697
0.194071
0.771736
0.14681
0.0406962
0.0792135
0.162402
0.170964
0.216788
0.0102212
0.452838
0.452838
0.452838
0.452838
0.452838
0.452838
0.452838
0.452838
0.452838
0.452838
0.452838
0.452838
0.452838
0.452838
0.452838
0.452838
0.452838
0.452838
0.452838
0.452838
0.452838
0.452838
0.452838
0.452838
0.452838
0.452838
0.452838
0.452838
0.452838
0.452838
0.452838
0.452838
0.452838
0.452838
0.452838
0.452838
0.452838
0.452838
0.452838
0.452838
0.452838
0.452838
0.452838
0.452838
0.452838
0.452838
0.452838
0.452838
0.452838
0.452838
0.452838
0.452838
0.452838
0.452838
0.452838
0.452838
0.452838
0.453313
0.458016
0.53098
0.284384
0.996086
0.676224
0.447495
0.648862
0.479489
0.536367
0.222589
0.499788
0.443797
0.497476
0.38869
0.507965
0.432565
0.419264
0.451391
0.467171
0.41914
0.420532
0.474597
0.411365
0.453411
0.427758
0.456896
0.221512
0.505496
0.163385
0.831132
0.836388
0.554353
0.389645
0.394998
0.269628
0.954951
0.114168
0.999703
0.452838
0.452838
0.452838
0.452838
0.452838
0.452838
0.452838
0.452838
0.452838
0.452838
0.452838
0.452838
0.452838
0.452838
0.452838
0.452838
0.452838
0.452838
0.452838
0.452838
0.452838
0.452838
0.452838
0.452838
0.452838
0.452838
0.452838
0.452838
0.452838
0.452838
0.452838
0.452838
0.452838
0.452838
0.452838
0.452838
0.452838
0.452838
0.452838
0.452838
0.452838
0.452838
0.452838
0.452838
0.452838
0.452838
0.452838
0.452838
0.452838
0.452838
0.452838
0.452838
0.452838
0.452839
0.452838
0.452838
0.452838
0.453066
0.456629
0.520984
0.63581
0.966112
0.982933
0.507595
0.949282
0.719497
0.388675
0.993535
0.866574
0.999771
0.138954
0.286012
0.149521
0.173146
0.89275
0.924976
0.996752
0.754911
0.189688
0.912645
0.335813
0.324675
0.121119
0.552213
0.974634
0.545315
0.900877
0.214396
0.970857
0.0842434
0.310883
0.287128
0.00619122
0.0155651
0.0122732
3.45301e-05
0.452838
0.452838
0.452838
0.452838
0.452838
0.452838
0.452838
0.452838
0.452838
0.452838
0.452838
0.452838
0.452838
0.452838
0.452838
0.452838
0.452838
0.452838
0.452838
0.452838
0.452838
0.452838
0.452838
0.452838
0.452838
0.452838
0.452838
0.452838
0.452838
0.452838
0.452838
0.452838
0.452838
0.452838
0.452838
0.452838
0.452838
0.452838
0.452838
0.452838
0.452838
0.452838
0.452838
0.452838
0.452838
0.452838
0.452838
0.452838
0.452838
0.452838
0.452838
0.452838
0.452838
0.452838
0.452839
0.452838
0.452838
0.452794
0.452284
0.517815
0.0186882
0.00729217
0.0320225
0.0244651
0.00808959
0.141435
0.149169
0.00162498
0.999569
0.000162938
0.999987
0.999997
0.000707738
0.000162864
4.21199e-06
2.3806e-05
0.00117153
0.00760888
0.00261124
0.00202994
0.00521287
0.00615769
0.0032786
0.0193322
0.00280971
0.0199164
0.00578627
0.000121423
1.32399e-05
6.57372e-06
8.21223e-05
0.000137226
0.00494122
5.96966e-05
5.69589e-05
0.000131093
0.452838
0.452838
0.452838
0.452838
0.452838
0.452838
0.452838
0.452838
0.452838
0.452838
0.452838
0.452838
0.452838
0.452838
0.452838
0.452838
0.452838
0.452838
0.452838
0.452838
0.452838
0.452838
0.452838
0.452838
0.452838
0.452838
0.452838
0.452838
0.452838
0.452838
0.452838
0.452838
0.452838
0.452838
0.452838
0.452838
0.452838
0.452838
0.452838
0.452838
0.452838
0.452838
0.452838
0.452838
0.452838
0.452838
0.452838
0.452838
0.452838
0.452838
0.452838
0.452838
0.452838
0.452838
0.452838
0.452838
0.452838
0.452839
0.443108
0.535757
0.259475
1.57954e-05
3.16823e-05
0.000126915
1.14886e-05
7.69976e-06
0.000911889
1.1711e-05
1.18419e-05
1.55457e-05
9.19968e-06
0.000367142
0.000528317
0.000365227
0.00152584
0.000440057
0.000471565
0.00040821
0.000759167
0.000838012
0.000692552
0.000655785
0.0010239
0.00106013
0.000289127
0.00018561
0.000126851
0.000127996
0.000391646
0.00203767
0.000712779
0.000589416
0.0065869
0.12494
0.00131542
0.000130944
0.452838
0.452838
0.452838
0.452838
0.452838
0.452838
0.452838
0.452838
0.452838
0.452838
0.452838
0.452838
0.452838
0.452838
0.452838
0.452838
0.452838
0.452838
0.452838
0.452838
0.452838
0.452838
0.452838
0.452838
0.452838
0.452838
0.452838
0.452838
0.452838
0.452838
0.452838
0.452838
0.452838
0.452838
0.452838
0.452838
0.452838
0.452838
0.452838
0.452838
0.452838
0.452838
0.452838
0.452838
0.452838
0.452838
0.452838
0.452838
0.452838
0.452838
0.452838
0.452838
0.452838
0.452838
0.452838
0.452838
0.452839
0.452839
0.454224
0.499426
0.657155
0.999999
0.000608047
9.87544e-06
0.000422582
0.00224885
0.00174192
0.00313004
0.00094929
0.319026
0.000654754
0.0016701
0.00193505
0.00112561
0.000894599
0.00123451
0.00174492
0.00244674
0.0058884
0.0361507
0.0528548
0.0293822
0.00750902
0.00326862
0.00235919
0.00329857
0.00712892
0.00414549
0.00204726
0.00161102
0.00206072
0.000827444
0.000579586
0.00209251
0.000969144
0.000112184
0.452838
0.452838
0.452838
0.452838
0.452838
0.452838
0.452838
0.452838
0.452838
0.452838
0.452838
0.452838
0.452838
0.452838
0.452838
0.452838
0.452838
0.452838
0.452838
0.452838
0.452838
0.452838
0.452838
0.452838
0.452838
0.452838
0.452838
0.452838
0.452838
0.452838
0.452838
0.452838
0.452838
0.452838
0.452838
0.452838
0.452838
0.452838
0.452838
0.452838
0.452838
0.452838
0.452838
0.452838
0.452838
0.452838
0.452838
0.452838
0.452838
0.452838
0.452838
0.452838
0.452838
0.452838
0.452838
0.452838
0.452839
0.452836
0.452912
0.527529
0.368526
0.00856316
0.000523098
0.000876873
0.000636181
0.00360636
0.00394634
0.00512843
0.00294063
0.00216268
0.00203275
0.00298749
0.00792334
0.0260382
0.00442258
0.00524465
0.0116338
0.0166499
0.243321
0.00974939
0.0099914
0.0267861
0.0240066
0.00346088
0.00186803
0.00360503
0.0113003
0.00433707
0.00203869
0.00303021
0.141445
0.0133627
0.000956815
0.000774503
0.000977047
0.000111703
0.452838
0.452838
0.452838
0.452838
0.452838
0.452838
0.452838
0.452838
0.452838
0.452838
0.452838
0.452838
0.452838
0.452838
0.452838
0.452838
0.452838
0.452838
0.452838
0.452838
0.452838
0.452838
0.452838
0.452838
0.452838
0.452838
0.452838
0.452838
0.452838
0.452838
0.452838
0.452838
0.452838
0.452838
0.452838
0.452838
0.452838
0.452838
0.452838
0.452838
0.452838
0.452838
0.452838
0.452838
0.452838
0.452838
0.452838
0.452838
0.452838
0.452838
0.452838
0.452838
0.452838
0.452838
0.452838
0.452838
0.45284
0.4528
0.454956
0.493833
0.600588
6.03003e-05
0.000517508
0.000245779
0.000594076
0.0101457
0.00463956
0.0194481
0.0252463
0.00872017
0.00481472
0.00577309
0.0220379
0.00441892
0.00285383
0.00240009
0.00252218
0.00452792
0.00704351
0.00481197
0.0893894
0.00477764
0.0031256
0.00158082
0.000993546
0.00196564
0.00180307
0.000714005
0.000706281
0.00120732
0.00414057
0.0197002
0.00443207
0.00172482
0.000764169
0.000123096
0.452838
0.452838
0.452838
0.452838
0.452838
0.452838
0.452838
0.452838
0.452838
0.452838
0.452838
0.452838
0.452838
0.452838
0.452838
0.452838
0.452838
0.452838
0.452838
0.452838
0.452838
0.452838
0.452838
0.452838
0.452838
0.452838
0.452838
0.452838
0.452838
0.452838
0.452838
0.452838
0.452838
0.452838
0.452838
0.452838
0.452838
0.452838
0.452838
0.452838
0.452838
0.452838
0.452838
0.452838
0.452838
0.452838
0.452838
0.452838
0.452838
0.452838
0.452838
0.452838
0.452838
0.452838
0.452838
0.452838
0.452841
0.453532
0.488932
0.349175
0.559018
0.00158678
2.72544e-06
0.000239151
0.000493908
0.000658326
0.00373176
0.00953875
0.0272781
0.0363337
0.0249509
0.0118348
0.00892355
0.0211424
0.0308685
0.0712613
0.0111596
0.00805822
0.00572074
0.0777418
0.0102554
0.0144616
0.0033712
0.00283127
0.00178394
0.00287324
0.00775912
0.0808673
0.00142135
0.00128825
0.00148574
0.00290318
0.0108673
0.00219129
0.00162646
0.000133548
0.452838
0.452838
0.452838
0.452838
0.452838
0.452838
0.452838
0.452838
0.452838
0.452838
0.452838
0.452838
0.452838
0.452838
0.452838
0.452838
0.452838
0.452838
0.452838
0.452838
0.452838
0.452838
0.452838
0.452838
0.452838
0.452838
0.452838
0.452838
0.452838
0.452838
0.452838
0.452838
0.452838
0.452838
0.452838
0.452838
0.452838
0.452838
0.452838
0.452838
0.452838
0.452838
0.452838
0.452838
0.452838
0.452838
0.452838
0.452838
0.452838
0.452838
0.452838
0.452838
0.452838
0.452838
0.452838
0.452838
0.45284
0.452921
0.456028
0.562875
0.214753
0.319197
6.74391e-06
0.000251186
0.0012617
0.00195985
0.133013
0.00325251
0.005586
0.018978
0.0108081
0.436988
0.00289197
0.00414996
0.00463147
0.00479813
0.00355773
0.00339123
0.00321705
0.00497025
0.0943972