/*--------------------------------*- C++ -*----------------------------------*\
| =========                 |                                                 |
| \\      /  F ield         | OpenFOAM: The Open Source CFD Toolbox           |
|  \\    /   O peration     | Version:  2.3.0                                 |
|   \\  /    A nd           | Web:      www.OpenFOAM.org                      |
|    \\/     M anipulation  |                                                 |
\*---------------------------------------------------------------------------*/
FoamFile
{
    version     2.0;
    format      ascii;
    class       volScalarField;
    location    "52";
    object      rho;
}
// * * * * * * * * * * * * * * * * * * * * * * * * * * * * * * * * * * * * * //

dimensions      [1 -3 0 0 0 0 0];

internalField   nonuniform List<scalar> 
6144
(
1.16239
1.163
1.1635
1.16397
1.16446
1.16537
1.1665
1.16753
1.16837
1.16878
1.16886
1.16888
1.16888
1.16889
1.16889
1.1689
1.1689
1.1689
1.1689
1.1689
1.1689
1.16891
1.16891
1.16891
1.16891
1.16891
1.16891
1.16891
1.16891
1.16891
1.16892
1.16892
1.16892
1.16892
1.16892
1.16892
1.16892
1.16892
1.16892
1.16892
1.16893
1.16893
1.16899
1.16996
1.17295
1.17745
1.18308
1.19091
1.21063
1.25825
1.2795
1.28236
1.28239
1.28216
1.27987
1.28017
1.27908
1.27577
3.42737
69.2538
988.248
1026.8
1027.09
1027.1
1027.1
1027.1
1027.1
1027.1
1027.1
1027.1
1027.1
1027.1
1027.1
1027.1
1027.1
1027.1
1027.1
1027.1
1027.1
1027.1
1027.1
1027.1
1027.1
1027.1
1027.1
1027.1
1027.1
1027.1
1027.1
1027.1
1027.1
1027.1
1027.1
1027.1
1027.1
1027.1
1.16208
1.16277
1.16367
1.16417
1.1649
1.16569
1.16661
1.16761
1.16839
1.16876
1.16885
1.16887
1.16888
1.16889
1.1689
1.1689
1.16891
1.16891
1.16891
1.16891
1.16891
1.16891
1.16891
1.16891
1.16892
1.16892
1.16892
1.16892
1.16892
1.16892
1.16892
1.16893
1.16893
1.16893
1.16893
1.16893
1.16893
1.16893
1.16893
1.16893
1.16893
1.16894
1.16929
1.17116
1.17523
1.18053
1.18776
1.19677
1.21004
1.25177
1.28025
1.28354
1.28185
1.2793
1.2764
1.27683
1.27271
1.28177
2.25361
50.4284
995.795
1027.03
1027.1
1027.1
1027.1
1027.1
1027.1
1027.1
1027.1
1027.1
1027.1
1027.1
1027.1
1027.1
1027.1
1027.1
1027.1
1027.1
1027.1
1027.1
1027.1
1027.1
1027.1
1027.1
1027.1
1027.1
1027.1
1027.1
1027.1
1027.1
1027.1
1027.1
1027.1
1027.1
1027.1
1027.1
1.16194
1.16242
1.16343
1.16409
1.16509
1.16585
1.16675
1.16765
1.16826
1.16861
1.16876
1.16883
1.16886
1.16888
1.16889
1.1689
1.1689
1.16891
1.16891
1.16891
1.16891
1.16891
1.16891
1.16891
1.16892
1.16892
1.16892
1.16892
1.16892
1.16892
1.16892
1.16892
1.16893
1.16893
1.16893
1.16893
1.16893
1.16893
1.16893
1.16893
1.16894
1.16901
1.16985
1.17263
1.17728
1.18453
1.19625
1.20888
1.21939
1.25281
1.28118
1.2835
1.28205
1.2805
1.27854
1.27788
1.27207
1.28174
1.55056
49.1917
996.737
1027.09
1027.1
1027.1
1027.1
1027.1
1027.1
1027.1
1027.1
1027.1
1027.1
1027.1
1027.1
1027.1
1027.1
1027.1
1027.1
1027.1
1027.1
1027.1
1027.1
1027.1
1027.1
1027.1
1027.1
1027.1
1027.1
1027.1
1027.1
1027.1
1027.1
1027.1
1027.1
1027.1
1027.1
1027.1
1.1619
1.16212
1.16314
1.16381
1.16501
1.16588
1.16677
1.16754
1.16815
1.16852
1.16871
1.1688
1.16885
1.16888
1.16889
1.1689
1.1689
1.1689
1.1689
1.1689
1.16891
1.16891
1.16891
1.16891
1.16891
1.16891
1.16891
1.16891
1.16892
1.16892
1.16892
1.16892
1.16892
1.16892
1.16892
1.16892
1.16892
1.16892
1.16893
1.16893
1.16894
1.16911
1.17025
1.17339
1.17792
1.18775
1.20278
1.21706
1.22751
1.26004
1.28166
1.28513
1.28917
1.29166
1.28868
1.27833
1.27203
1.28045
1.26871
67.9556
1013.46
1027.09
1027.09
1027.09
1027.09
1027.09
1027.1
1027.1
1027.1
1027.1
1027.1
1027.1
1027.1
1027.1
1027.1
1027.1
1027.1
1027.1
1027.1
1027.1
1027.1
1027.1
1027.1
1027.1
1027.1
1027.1
1027.1
1027.1
1027.1
1027.1
1027.1
1027.1
1027.1
1027.1
1027.1
1027.1
1.16188
1.16193
1.16282
1.16341
1.16458
1.16546
1.16663
1.16743
1.16802
1.16843
1.16866
1.16879
1.16885
1.16888
1.16889
1.1689
1.1689
1.16891
1.16891
1.16891
1.16891
1.16891
1.16891
1.16891
1.16892
1.16892
1.16892
1.16892
1.16892
1.16892
1.16892
1.16892
1.16892
1.16892
1.16892
1.16892
1.16892
1.16893
1.16893
1.16893
1.16896
1.16917
1.17004
1.17236
1.17773
1.1896
1.2056
1.22009
1.2335
1.26326
1.28071
1.2865
1.29242
1.29601
1.29336
1.28028
1.27326
1.27195
1.26871
106.568
1012.94
1026.93
1026.98
1027.04
1027.06
1027.07
1027.07
1027.08
1027.08
1027.08
1027.08
1027.08
1027.08
1027.08
1027.08
1027.08
1027.08
1027.08
1027.08
1027.09
1027.09
1027.09
1027.09
1027.09
1027.09
1027.1
1027.1
1027.1
1027.1
1027.1
1027.1
1027.1
1027.1
1027.1
1027.1
1027.1
1.16186
1.16186
1.16253
1.16301
1.1642
1.16499
1.1662
1.16727
1.16788
1.16834
1.16861
1.16877
1.16884
1.16887
1.16888
1.16889
1.1689
1.1689
1.1689
1.1689
1.1689
1.16891
1.16891
1.16891
1.16891
1.16891
1.16891
1.16891
1.16891
1.16892
1.16892
1.16892
1.16892
1.16892
1.16892
1.16892
1.16892
1.16892
1.16893
1.16893
1.16896
1.16911
1.16975
1.17148
1.17636
1.18841
1.20424
1.218
1.23158
1.25174
1.27599
1.28557
1.29006
1.29062
1.28813
1.28393
1.27982
1.27917
1.26871
193.24
1006.2
1024.21
1024.67
1025.41
1025.9
1026.27
1026.4
1026.5
1026.55
1026.57
1026.57
1026.54
1026.49
1026.42
1026.34
1026.24
1026.16
1026.08
1026.01
1025.95
1025.91
1025.88
1026.01
1026.16
1026.38
1026.62
1026.82
1026.97
1027.06
1027.09
1027.1
1027.1
1027.1
1027.1
1027.1
1027.1
1.16184
1.16187
1.16233
1.16265
1.16388
1.16466
1.16566
1.16704
1.16776
1.16826
1.16857
1.16876
1.16884
1.16888
1.16889
1.1689
1.1689
1.1689
1.16891
1.16891
1.16891
1.16891
1.16891
1.16891
1.16891
1.16891
1.16891
1.16892
1.16892
1.16892
1.16892
1.16892
1.16892
1.16892
1.16892
1.16892
1.16892
1.16893
1.16893
1.16893
1.16895
1.16907
1.16954
1.17073
1.17437
1.18503
1.20007
1.2129
1.22573
1.24275
1.26616
1.28298
1.29112
1.29406
1.29621
1.29638
1.29135
1.30562
1.26871
436.161
1008.6
1013.69
1014.21
1015.27
1016.25
1017.31
1018.11
1018.84
1019.37
1019.66
1019.73
1019.7
1019.35
1018.94
1018.45
1017.88
1017.25
1016.62
1016.04
1015.6
1015.35
1015.24
1015.68
1016.22
1017.06
1018.14
1019.42
1020.91
1022.59
1024.25
1025.66
1026.6
1026.97
1027.08
1027.1
1027.09
1.16181
1.16199
1.16228
1.16243
1.16363
1.16448
1.16551
1.16668
1.1676
1.1682
1.16854
1.16875
1.16884
1.16887
1.16889
1.1689
1.1689
1.1689
1.16891
1.16891
1.16891
1.16891
1.16891
1.16891
1.16892
1.16892
1.16892
1.16892
1.16892
1.16892
1.16892
1.16892
1.16892
1.16893
1.16893
1.16893
1.16893
1.16893
1.16893
1.16893
1.16895
1.16904
1.1694
1.17023
1.17229
1.17928
1.19269
1.20656
1.22139
1.24043
1.25131
1.27124
1.28718
1.2945
1.30106
1.30533
1.30301
1.30701
1.26871
613.141
1002.37
1004.25
1004.44
1004.56
1004.68
1004.71
1004.64
1004.51
1004.35
1004.27
1004.23
1004.03
1003.79
1003.48
1003.14
1002.9
1002.72
1002.62
1002.59
1002.7
1002.85
1003.12
1003.55
1003.91
1003.99
1003.59
1002.99
1002.3
1001.45
1000.47
999.792
999.571
1001.73
1004.45
1008.46
1013.5
1.16154
1.16205
1.16228
1.16233
1.16346
1.16439
1.1658
1.16642
1.16737
1.16811
1.16851
1.16873
1.16883
1.16887
1.16888
1.16889
1.16889
1.1689
1.1689
1.1689
1.1689
1.1689
1.16891
1.16891
1.16891
1.16891
1.16891
1.16891
1.16892
1.16892
1.16892
1.16892
1.16892
1.16892
1.16892
1.16892
1.16893
1.16893
1.16893
1.16893
1.16895
1.16904
1.16937
1.17002
1.17119
1.17502
1.18585
1.20144
1.22053
1.24291
1.24933
1.25655
1.26781
1.28453
1.30226
1.30992
1.30777
1.29666
1.26871
516.418
1015.25
1018
1018.51
1018.82
1018.94
1018.79
1018.45
1018.15
1017.87
1017.66
1017.56
1017.53
1017.85
1018.29
1018.96
1019.75
1020.69
1021.74
1022.8
1023.82
1024.75
1025.45
1025.82
1025.85
1025.72
1025.62
1025.47
1025.18
1024.96
1024.94
1025.41
1025.81
1026.17
1026.42
1026.74
1027.01
1.16118
1.16164
1.16195
1.16221
1.16329
1.16437
1.16589
1.16646
1.16724
1.16808
1.1685
1.16872
1.16882
1.16887
1.16888
1.16889
1.1689
1.1689
1.1689
1.16891
1.16891
1.16891
1.16891
1.16891
1.16891
1.16892
1.16892
1.16892
1.16892
1.16892
1.16892
1.16892
1.16892
1.16892
1.16892
1.16892
1.16893
1.16893
1.16893
1.16893
1.16895
1.16906
1.16935
1.16991
1.17083
1.17314
1.18106
1.19843
1.22034
1.24877
1.25487
1.25906
1.26377
1.27105
1.29194
1.30474
1.30871
1.29016
1.26871
259.063
1012.94
1026.4
1026.55
1026.63
1026.65
1026.66
1026.66
1026.65
1026.64
1026.64
1026.65
1026.67
1026.7
1026.74
1026.8
1026.87
1026.94
1027.01
1027.05
1027.08
1027.09
1027.1
1027.1
1027.1
1027.1
1027.1
1027.1
1027.1
1027.1
1027.1
1027.1
1027.1
1027.1
1027.1
1027.1
1027.1
1.16091
1.1613
1.16154
1.16182
1.16298
1.1642
1.16585
1.1668
1.1673
1.16809
1.16851
1.16871
1.1688
1.16886
1.16887
1.16889
1.1689
1.1689
1.1689
1.1689
1.16891
1.16891
1.16891
1.16891
1.16891
1.16891
1.16892
1.16892
1.16892
1.16892
1.16892
1.16892
1.16892
1.16892
1.16892
1.16892
1.16893
1.16893
1.16893
1.16893
1.16896
1.16906
1.16929
1.1698
1.17079
1.17309
1.18063
1.19952
1.22414
1.25875
1.26747
1.27153
1.27067
1.27226
1.27615
1.28069
1.27801
1.28831
1.26871
174.599
1023
1027.08
1027.09
1027.09
1027.09
1027.09
1027.09
1027.09
1027.09
1027.09
1027.09
1027.09
1027.09
1027.1
1027.1
1027.1
1027.1
1027.1
1027.1
1027.1
1027.1
1027.1
1027.1
1027.1
1027.1
1027.1
1027.1
1027.1
1027.1
1027.1
1027.1
1027.1
1027.1
1027.1
1027.1
1027.1
1.16075
1.161
1.1611
1.16125
1.16232
1.16365
1.16565
1.16708
1.16744
1.16816
1.16857
1.16872
1.16879
1.16883
1.16886
1.16888
1.16889
1.1689
1.1689
1.1689
1.16891
1.16891
1.16891
1.16891
1.16891
1.16892
1.16892
1.16892
1.16892
1.16892
1.16892
1.16892
1.16892
1.16893
1.16893
1.16893
1.16893
1.16893
1.16893
1.16894
1.16896
1.16905
1.16929
1.1699
1.17118
1.17402
1.18244
1.20141
1.22883
1.26413
1.27514
1.27937
1.28201
1.28108
1.27931
1.2826
1.27798
1.28337
1.26871
81.2823
1006.27
1027.09
1027.09
1027.09
1027.1
1027.1
1027.1
1027.1
1027.1
1027.1
1027.1
1027.1
1027.1
1027.1
1027.1
1027.1
1027.1
1027.1
1027.1
1027.1
1027.1
1027.1
1027.1
1027.1
1027.1
1027.1
1027.1
1027.1
1027.1
1027.1
1027.1
1027.1
1027.1
1027.1
1027.1
1027.1
1.16059
1.16083
1.16083
1.16086
1.16157
1.16269
1.16475
1.16674
1.16774
1.16825
1.16862
1.16876
1.16881
1.16884
1.16886
1.16889
1.1689
1.16891
1.16891
1.16891
1.16891
1.16891
1.16891
1.16892
1.16892
1.16892
1.16892
1.16892
1.16892
1.16892
1.16892
1.16893
1.16893
1.16893
1.16893
1.16893
1.16893
1.16893
1.16894
1.16894
1.16896
1.16905
1.16935
1.17021
1.17196
1.1755
1.18442
1.20343
1.23183
1.26191
1.27534
1.28069
1.28273
1.28518
1.28378
1.28512
1.27957
1.28402
1.32984
24.147
953.389
1027.09
1027.09
1027.09
1027.1
1027.1
1027.1
1027.1
1027.1
1027.1
1027.1
1027.1
1027.1
1027.1
1027.1
1027.1
1027.1
1027.1
1027.1
1027.1
1027.1
1027.1
1027.1
1027.1
1027.1
1027.1
1027.1
1027.1
1027.1
1027.1
1027.1
1027.1
1027.1
1027.1
1027.1
1027.1
1.16053
1.16081
1.16075
1.16077
1.16111
1.1619
1.16372
1.16613
1.16802
1.16837
1.16865
1.16876
1.16881
1.16883
1.16885
1.16889
1.16891
1.16891
1.16891
1.16891
1.16891
1.16892
1.16892
1.16892
1.16892
1.16892
1.16892
1.16892
1.16892
1.16893
1.16893
1.16893
1.16893
1.16893
1.16893
1.16893
1.16893
1.16893
1.16893
1.16894
1.16896
1.16906
1.16946
1.17048
1.17239
1.17625
1.18577
1.20635
1.2336
1.25818
1.27458
1.28042
1.28174
1.28397
1.28295
1.28457
1.27927
1.28825
1.46156
34.6158
960.432
1027.09
1027.09
1027.09
1027.1
1027.1
1027.1
1027.1
1027.1
1027.1
1027.1
1027.1
1027.1
1027.1
1027.1
1027.1
1027.1
1027.1
1027.1
1027.1
1027.1
1027.1
1027.1
1027.1
1027.1
1027.1
1027.1
1027.1
1027.1
1027.1
1027.1
1027.1
1027.1
1027.1
1027.1
1027.1
1.16061
1.16121
1.16127
1.16129
1.16113
1.16177
1.16305
1.16546
1.16792
1.16848
1.16868
1.16875
1.16879
1.16882
1.16884
1.16888
1.1689
1.16891
1.16891
1.16891
1.16891
1.16891
1.16892
1.16892
1.16892
1.16892
1.16892
1.16892
1.16892
1.16892
1.16892
1.16893
1.16893
1.16893
1.16893
1.16893
1.16893
1.16893
1.16893
1.16893
1.16895
1.16906
1.16953
1.17068
1.17267
1.17669
1.18742
1.20951
1.23399
1.25246
1.26625
1.2733
1.27721
1.28006
1.27944
1.28143
1.27727
1.29329
1.56535
38.9695
969.496
1027.04
1027.09
1027.1
1027.1
1027.1
1027.1
1027.1
1027.1
1027.1
1027.1
1027.1
1027.1
1027.1
1027.1
1027.1
1027.1
1027.1
1027.1
1027.1
1027.1
1027.1
1027.1
1027.1
1027.1
1027.1
1027.1
1027.1
1027.1
1027.1
1027.1
1027.1
1027.1
1027.1
1027.1
1027.1
1.16032
1.16031
1.16115
1.16203
1.16206
1.16212
1.16331
1.1655
1.16799
1.16856
1.16868
1.16873
1.16876
1.1688
1.16883
1.16888
1.16891
1.16891
1.16892
1.16892
1.16892
1.16892
1.16892
1.16892
1.16893
1.16893
1.16893
1.16893
1.16893
1.16893
1.16893
1.16893
1.16893
1.16893
1.16894
1.16894
1.16894
1.16894
1.16894
1.16894
1.16896
1.16904
1.16951
1.17095
1.17343
1.17735
1.18655
1.20991
1.2371
1.2519
1.25963
1.26568
1.27027
1.27388
1.27306
1.27703
1.27337
1.28739
1.86088
39.0185
946.001
1026.13
1027.09
1027.1
1027.1
1027.1
1027.1
1027.1
1027.1
1027.1
1027.1
1027.1
1027.1
1027.1
1027.1
1027.1
1027.1
1027.1
1027.1
1027.1
1027.1
1027.1
1027.1
1027.1
1027.1
1027.1
1027.1
1027.1
1027.1
1027.1
1027.1
1027.1
1027.1
1027.1
1027.1
1027.1
1.1619
1.16293
1.16358
1.16408
1.16455
1.16552
1.1667
1.16775
1.16848
1.16875
1.16881
1.16885
1.16887
1.16889
1.16891
1.16892
1.16892
1.16892
1.16892
1.16892
1.16892
1.16892
1.16893
1.16893
1.16893
1.16893
1.16893
1.16893
1.16893
1.16894
1.16894
1.16894
1.16894
1.16894
1.16894
1.16894
1.16894
1.16894
1.16894
1.16895
1.16896
1.16899
1.16908
1.16973
1.17194
1.17605
1.18159
1.18965
1.21015
1.25729
1.27935
1.28226
1.28197
1.28188
1.28026
1.2801
1.27713
1.29013
2.35183
56.1814
984.566
1026.86
1027.09
1027.1
1027.1
1027.1
1027.1
1027.1
1027.1
1027.1
1027.1
1027.1
1027.1
1027.1
1027.1
1027.1
1027.1
1027.1
1027.1
1027.1
1027.1
1027.1
1027.1
1027.1
1027.1
1027.1
1027.1
1027.1
1027.1
1027.1
1027.1
1027.1
1027.1
1027.1
1027.1
1027.1
1.1612
1.16253
1.16402
1.1646
1.1653
1.16605
1.16706
1.16785
1.16829
1.16851
1.16866
1.16877
1.16884
1.16888
1.16889
1.16891
1.16891
1.16892
1.16892
1.16892
1.16892
1.16892
1.16892
1.16893
1.16893
1.16893
1.16893
1.16893
1.16893
1.16893
1.16893
1.16893
1.16894
1.16894
1.16894
1.16894
1.16894
1.16894
1.16894
1.16895
1.16897
1.16905
1.16929
1.17001
1.17241
1.17769
1.18443
1.19229
1.20736
1.24692
1.27784
1.28323
1.28212
1.28097
1.2777
1.27824
1.27478
1.29374
1.86332
63.5807
999.624
1027.09
1027.1
1027.1
1027.1
1027.1
1027.1
1027.1
1027.1
1027.1
1027.1
1027.1
1027.1
1027.1
1027.1
1027.1
1027.1
1027.1
1027.1
1027.1
1027.1
1027.1
1027.1
1027.1
1027.1
1027.1
1027.1
1027.1
1027.1
1027.1
1027.1
1027.1
1027.1
1027.1
1027.1
1027.1
1.16091
1.16173
1.16361
1.16453
1.16537
1.16606
1.16681
1.1675
1.16799
1.16832
1.16856
1.16873
1.16883
1.16887
1.16889
1.1689
1.16891
1.16891
1.16891
1.16892
1.16892
1.16892
1.16892
1.16892
1.16892
1.16892
1.16893
1.16893
1.16893
1.16893
1.16893
1.16893
1.16893
1.16893
1.16893
1.16893
1.16893
1.16894
1.16894
1.16894
1.16895
1.16902
1.16931
1.1704
1.17462
1.18351
1.19396
1.20129
1.21172
1.24022
1.2765
1.283
1.28142
1.2795
1.27708
1.27823
1.27464
1.29067
1.50296
59.6731
1001.24
1027.09
1027.09
1027.1
1027.09
1027.1
1027.1
1027.1
1027.1
1027.1
1027.1
1027.1
1027.1
1027.1
1027.1
1027.1
1027.1
1027.1
1027.1
1027.1
1027.1
1027.1
1027.1
1027.1
1027.1
1027.1
1027.1
1027.1
1027.1
1027.1
1027.1
1027.1
1027.1
1027.1
1027.1
1027.1
1.1608
1.16109
1.16282
1.16381
1.16472
1.16553
1.16641
1.16717
1.16779
1.16823
1.16852
1.16871
1.16882
1.16887
1.16888
1.1689
1.16891
1.16891
1.16891
1.16891
1.16891
1.16892
1.16892
1.16892
1.16892
1.16892
1.16892
1.16892
1.16892
1.16893
1.16893
1.16893
1.16893
1.16893
1.16893
1.16893
1.16893
1.16893
1.16893
1.16894
1.16894
1.16899
1.1693
1.17086
1.17628
1.18774
1.20202
1.2115
1.219
1.24508
1.27803
1.28306
1.28308
1.28174
1.27792
1.27728
1.27217
1.29443
1.34857
84.0438
1019.63
1027.04
1027.05
1027.08
1027.08
1027.09
1027.09
1027.09
1027.09
1027.09
1027.09
1027.09
1027.09
1027.09
1027.09
1027.09
1027.09
1027.09
1027.09
1027.09
1027.09
1027.09
1027.1
1027.1
1027.1
1027.1
1027.1
1027.1
1027.1
1027.1
1027.1
1027.1
1027.1
1027.1
1027.1
1027.1
1.16073
1.16069
1.1621
1.16321
1.1642
1.1651
1.16607
1.16692
1.16765
1.16817
1.1685
1.16871
1.16882
1.16887
1.16888
1.1689
1.16891
1.16891
1.16891
1.16891
1.16891
1.16891
1.16892
1.16892
1.16892
1.16892
1.16892
1.16892
1.16892
1.16892
1.16893
1.16893
1.16893
1.16893
1.16893
1.16893
1.16893
1.16893
1.16893
1.16893
1.16894
1.16898
1.16929
1.17088
1.17556
1.18637
1.2026
1.21576
1.22442
1.24746
1.27846
1.28336
1.28557
1.28819
1.28835
1.28264
1.28099
1.29625
1.29093
125.219
1016.11
1025.81
1025.98
1026.4
1026.6
1026.76
1026.82
1026.84
1026.85
1026.86
1026.85
1026.82
1026.78
1026.71
1026.62
1026.52
1026.4
1026.32
1026.28
1026.28
1026.37
1026.47
1026.69
1026.86
1026.97
1027.04
1027.07
1027.09
1027.09
1027.1
1027.1
1027.1
1027.1
1027.1
1027.1
1027.1
1.16067
1.16044
1.16145
1.16261
1.16374
1.16475
1.16583
1.16676
1.16757
1.16815
1.16849
1.16871
1.16882
1.16887
1.16888
1.1689
1.16891
1.16891
1.16891
1.16891
1.16891
1.16891
1.16891
1.16892
1.16892
1.16892
1.16892
1.16892
1.16892
1.16892
1.16892
1.16893
1.16893
1.16893
1.16893
1.16893
1.16893
1.16893
1.16893
1.16893
1.16894
1.16897
1.16929
1.17072
1.17404
1.18135
1.19523
1.2124
1.22662
1.24176
1.27499
1.28259
1.28296
1.28255
1.28187
1.28039
1.28005
1.28171
1.26871
209.952
1007.95
1019.51
1019.74
1020.95
1021.78
1022.67
1023.25
1023.59
1023.77
1023.85
1023.67
1023.39
1022.79
1021.96
1020.88
1019.56
1018.08
1016.59
1015.29
1014.5
1014.23
1015.81
1017.51
1019.49
1021.41
1023.06
1024.39
1025.4
1026.11
1026.59
1026.88
1027.03
1027.09
1027.1
1027.1
1027.1
1.16066
1.16026
1.16095
1.16197
1.16333
1.16446
1.16567
1.16666
1.16752
1.16813
1.16849
1.16871
1.16882
1.16886
1.16888
1.1689
1.16891
1.16891
1.16891
1.16891
1.16891
1.16891
1.16891
1.16892
1.16892
1.16892
1.16892
1.16892
1.16892
1.16892
1.16892
1.16893
1.16893
1.16893
1.16893
1.16893
1.16893
1.16893
1.16893
1.16893
1.16894
1.16897
1.1693
1.17054
1.17311
1.17845
1.18896
1.20458
1.22433
1.25844
1.28429
1.28747
1.28699
1.28666
1.28912
1.29342
1.30169
1.31126
1.30526
307.524
1002.16
1010.62
1010.66
1010.93
1010.91
1010.75
1010.99
1011.02
1010.7
1010.32
1009.47
1008.47
1007.01
1005.22
1003.2
1001.12
998.969
996.947
995.205
994.004
993.212
992.163
991.561
991.351
992.845
994.807
997.581
1000.56
1003.58
1006.89
1010.68
1015.25
1019.84
1024.45
1027.07
1027.02
1.16067
1.16016
1.16056
1.16131
1.1627
1.16409
1.16552
1.16659
1.1675
1.16813
1.16849
1.16871
1.16882
1.16887
1.16888
1.1689
1.1689
1.16891
1.16891
1.16891
1.16891
1.16891
1.16891
1.16892
1.16892
1.16892
1.16892
1.16892
1.16892
1.16892
1.16893
1.16893
1.16893
1.16893
1.16893
1.16893
1.16893
1.16893
1.16893
1.16893
1.16894
1.16898
1.16928
1.17038
1.1727
1.17754
1.18688
1.19964
1.21839
1.24947
1.2997
1.31516
1.31896
1.321
1.32381
1.32505
1.32494
1.3253
1.26871
397.393
1000.31
1007.82
1008.39
1008.59
1007.55
1006.5
1005.58
1004.79
1003.88
1003.11
1002.44
1001.87
1001.43
1001.15
1000.9
1000.6
1000.16
999.557
998.037
995.706
992.219
988.106
983.413
979.071
974.968
970.234
964.994
958.335
950.571
943.399
935.53
923.77
907.931
882.928
831.747
637.966
1.16058
1.16009
1.16028
1.16073
1.16192
1.16352
1.16532
1.16654
1.16748
1.16812
1.1685
1.16871
1.16883
1.16887
1.16888
1.1689
1.16891
1.16891
1.16891
1.16891
1.16891
1.16891
1.16892
1.16892
1.16892
1.16892
1.16892
1.16892
1.16892
1.16893
1.16893
1.16893
1.16893
1.16893
1.16893
1.16893
1.16893
1.16893
1.16893
1.16894
1.16894
1.16899
1.16927
1.17029
1.17251
1.17721
1.18673
1.1985
1.2175
1.24618
1.29154
1.30647
1.31134
1.32511
1.33834
1.34929
1.35751
1.35855
1.29722
308.809
1018.2
1023.91
1024.63
1024.95
1024.72
1024.53
1024.19
1023.9
1023.56
1023.33
1023.15
1023.06
1023.06
1023.29
1023.52
1024.03
1024.69
1025.23
1025.54
1025.56
1025.2
1024.91
1024.4
1023.66
1022.68
1021.81
1021.42
1022.3
1024.25
1025.56
1026.26
1026.63
1026.92
1027
1027.04
1027.05
1.16045
1.16004
1.1601
1.16032
1.16115
1.1628
1.16506
1.16651
1.16749
1.16814
1.16851
1.16872
1.16883
1.16887
1.16888
1.1689
1.16891
1.16891
1.16891
1.16891
1.16891
1.16892
1.16892
1.16892
1.16892
1.16892
1.16892
1.16892
1.16893
1.16893
1.16893
1.16893
1.16893
1.16893
1.16893
1.16893
1.16893
1.16893
1.16894
1.16894
1.16895
1.16899
1.16927
1.17026
1.17258
1.17785
1.18877
1.20149
1.22311
1.25097
1.28292
1.29496
1.29288
1.29746
1.32125
1.33287
1.36345
1.385
1.34761
164.197
1005.34
1027
1027.01
1027.03
1027.02
1027.03
1027.03
1027.03
1027.03
1027.02
1027.02
1027.02
1027.03
1027.03
1027.04
1027.05
1027.06
1027.07
1027.07
1027.07
1027.07
1027.07
1027.07
1027.06
1027.05
1027.04
1027.03
1027.06
1027.09
1027.1
1027.1
1027.1
1027.1
1027.1
1027.1
1027.1
1.16034
1.16
1.15997
1.16006
1.16064
1.16207
1.16459
1.16638
1.1675
1.16815
1.16851
1.16873
1.16884
1.16887
1.16888
1.1689
1.16891
1.16891
1.16891
1.16891
1.16892
1.16892
1.16892
1.16892
1.16892
1.16892
1.16892
1.16893
1.16893
1.16893
1.16893
1.16893
1.16893
1.16893
1.16893
1.16893
1.16893
1.16894
1.16894
1.16894
1.16895
1.169
1.16927
1.17034
1.17307
1.17894
1.19017
1.20638
1.22964
1.2619
1.28202
1.28859
1.29299
1.2839
1.28337
1.28591
1.28838
1.34035
1.36044
101.099
996.873
1027.09
1027.09
1027.09
1027.09
1027.09
1027.1
1027.1
1027.09
1027.09
1027.09
1027.09
1027.1
1027.1
1027.1
1027.1
1027.1
1027.1
1027.1
1027.1
1027.1
1027.1
1027.1
1027.1
1027.1
1027.1
1027.1
1027.1
1027.1
1027.1
1027.1
1027.1
1027.1
1027.1
1027.1
1027.1
1.16028
1.15996
1.15991
1.15991
1.16031
1.16159
1.164
1.16623
1.16755
1.16819
1.16853
1.16875
1.16884
1.16887
1.16888
1.1689
1.16891
1.16891
1.16891
1.16891
1.16892
1.16892
1.16892
1.16892
1.16892
1.16892
1.16892
1.16893
1.16893
1.16893
1.16893
1.16893
1.16893
1.16893
1.16893
1.16893
1.16893
1.16894
1.16894
1.16894
1.16895
1.16899
1.16929
1.17047
1.17347
1.17972
1.19099
1.20986
1.23414
1.27193
1.28329
1.2872
1.29556
1.29374
1.28383
1.28625
1.27781
1.30659
1.40047
55.7545
1002.88
1027.09
1027.09
1027.09
1027.09
1027.1
1027.1
1027.1
1027.1
1027.1
1027.1
1027.1
1027.1
1027.1
1027.1
1027.1
1027.1
1027.1
1027.1
1027.1
1027.1
1027.1
1027.1
1027.1
1027.1
1027.1
1027.1
1027.1
1027.1
1027.1
1027.1
1027.1
1027.1
1027.1
1027.1
1027.1
1.16031
1.16011
1.15991
1.15988
1.15995
1.16069
1.16278
1.16561
1.16759
1.16823
1.16856
1.16875
1.16884
1.16886
1.16887
1.1689
1.16891
1.16891
1.16891
1.16891
1.16892
1.16892
1.16892
1.16892
1.16892
1.16892
1.16892
1.16893
1.16893
1.16893
1.16893
1.16893
1.16893
1.16893
1.16893
1.16893
1.16893
1.16893
1.16894
1.16894
1.16895
1.169
1.16934
1.17057
1.17364
1.17987
1.19129
1.21149
1.23766
1.27232
1.28328
1.28586
1.29072
1.29829
1.29458
1.2915
1.27761
1.30666
1.46501
25.3431
965.832
1027.09
1027.09
1027.09
1027.09
1027.1
1027.1
1027.1
1027.1
1027.1
1027.1
1027.1
1027.1
1027.1
1027.1
1027.1
1027.1
1027.1
1027.1
1027.1
1027.1
1027.1
1027.1
1027.1
1027.1
1027.1
1027.1
1027.1
1027.1
1027.1
1027.1
1027.1
1027.1
1027.1
1027.1
1027.1
1.16042
1.16059
1.16024
1.16011
1.15988
1.15997
1.16096
1.16391
1.1675
1.16836
1.1686
1.16876
1.16882
1.16884
1.16885
1.16889
1.1689
1.16891
1.16891
1.16891
1.16891
1.16891
1.16892
1.16892
1.16892
1.16892
1.16892
1.16892
1.16892
1.16892
1.16892
1.16892
1.16892
1.16892
1.16892
1.16893
1.16893
1.16893
1.16893
1.16893
1.16894
1.16901
1.1694
1.17062
1.17333
1.17881
1.19017
1.21254
1.23991
1.26505
1.28209
1.28442
1.2854
1.28847
1.28562
1.28411
1.27159
1.31029
1.56873
35.4119
956.772
1027.09
1027.09
1027.09
1027.09
1027.1
1027.1
1027.1
1027.1
1027.1
1027.1
1027.1
1027.1
1027.1
1027.1
1027.1
1027.1
1027.1
1027.1
1027.1
1027.1
1027.1
1027.1
1027.1
1027.1
1027.1
1027.1
1027.1
1027.1
1027.1
1027.1
1027.1
1027.1
1027.1
1027.1
1027.1
1.16053
1.16085
1.16087
1.1607
1.1601
1.16003
1.16025
1.16229
1.16688
1.1685
1.16867
1.16876
1.16879
1.1688
1.16882
1.16888
1.1689
1.16891
1.16891
1.16891
1.16891
1.16891
1.16891
1.16892
1.16892
1.16892
1.16892
1.16892
1.16892
1.16892
1.16892
1.16892
1.16892
1.16892
1.16892
1.16892
1.16892
1.16893
1.16893
1.16893
1.16894
1.16902
1.16945
1.17075
1.17321
1.17763
1.18795
1.21182
1.23793
1.25583
1.26932
1.27057
1.2723
1.27489
1.27389
1.27462
1.26415
1.30217
1.60918
42.8014
963.091
1027.05
1027.09
1027.1
1027.1
1027.1
1027.1
1027.1
1027.1
1027.1
1027.1
1027.1
1027.1
1027.1
1027.1
1027.1
1027.1
1027.1
1027.1
1027.1
1027.1
1027.1
1027.1
1027.1
1027.1
1027.1
1027.1
1027.1
1027.1
1027.1
1027.1
1027.1
1027.1
1027.1
1027.1
1027.1
1.16026
1.16034
1.16103
1.16126
1.16024
1.16012
1.1603
1.16208
1.16671
1.16858
1.16871
1.16874
1.16876
1.16878
1.16881
1.16887
1.16891
1.16891
1.16891
1.16891
1.16892
1.16892
1.16892
1.16892
1.16892
1.16892
1.16892
1.16892
1.16893
1.16893
1.16893
1.16893
1.16893
1.16893
1.16893
1.16893
1.16893
1.16894
1.16894
1.16894
1.16895
1.16902
1.16945
1.17099
1.17381
1.17796
1.18684
1.21046
1.23797
1.2521
1.25863
1.26293
1.26601
1.26843
1.26792
1.27439
1.26933
1.28703
1.94273
47.5167
940.427
1026.03
1027.09
1027.1
1027.1
1027.1
1027.1
1027.1
1027.1
1027.1
1027.1
1027.1
1027.1
1027.1
1027.1
1027.1
1027.1
1027.1
1027.1
1027.1
1027.1
1027.1
1027.1
1027.1
1027.1
1027.1
1027.1
1027.1
1027.1
1027.1
1027.1
1027.1
1027.1
1027.1
1027.1
1027.1
1.16157
1.16254
1.16346
1.16403
1.16452
1.16545
1.16664
1.16774
1.16852
1.16876
1.16882
1.16885
1.16888
1.16889
1.1689
1.16891
1.16891
1.16891
1.16891
1.16892
1.16892
1.16892
1.16892
1.16892
1.16892
1.16892
1.16892
1.16893
1.16893
1.16893
1.16893
1.16893
1.16893
1.16893
1.16893
1.16894
1.16894
1.16894
1.16894
1.16894
1.16895
1.16897
1.16904
1.16971
1.17211
1.17633
1.18205
1.19034
1.20874
1.24875
1.27679
1.28127
1.28084
1.28083
1.28011
1.28017
1.27806
1.29672
2.25834
43.753
963.647
1026.55
1027.09
1027.1
1027.1
1027.1
1027.1
1027.1
1027.1
1027.1
1027.1
1027.1
1027.1
1027.1
1027.1
1027.1
1027.1
1027.1
1027.1
1027.1
1027.1
1027.1
1027.1
1027.1
1027.1
1027.1
1027.1
1027.1
1027.1
1027.1
1027.1
1027.1
1027.1
1027.1
1027.1
1027.1
1.16071
1.1616
1.16396
1.16443
1.16495
1.16579
1.16689
1.16797
1.16847
1.16865
1.16874
1.16881
1.16885
1.16888
1.16889
1.1689
1.16891
1.16891
1.16891
1.16891
1.16892
1.16892
1.16892
1.16892
1.16892
1.16892
1.16892
1.16893
1.16893
1.16893
1.16893
1.16893
1.16893
1.16893
1.16893
1.16893
1.16893
1.16893
1.16893
1.16894
1.16896
1.16903
1.1692
1.1698
1.17148
1.17493
1.18049
1.18896
1.20446
1.237
1.26791
1.27903
1.27898
1.2788
1.27768
1.27853
1.27693
1.29516
1.76239
41.029
966.84
1027.01
1027.09
1027.1
1027.1
1027.1
1027.1
1027.1
1027.1
1027.1
1027.1
1027.1
1027.1
1027.1
1027.1
1027.1
1027.1
1027.1
1027.1
1027.1
1027.1
1027.1
1027.1
1027.1
1027.1
1027.1
1027.1
1027.1
1027.1
1027.1
1027.1
1027.1
1027.1
1027.1
1027.1
1027.1
1.16047
1.16077
1.16389
1.16472
1.16532
1.16609
1.16705
1.16792
1.16833
1.16851
1.16866
1.16877
1.16884
1.16887
1.16888
1.1689
1.1689
1.1689
1.1689
1.16891
1.16891
1.16891
1.16891
1.16891
1.16891
1.16892
1.16892
1.16892
1.16892
1.16892
1.16892
1.16892
1.16892
1.16892
1.16892
1.16892
1.16892
1.16892
1.16893
1.16893
1.16896
1.16906
1.16933
1.17019
1.17221
1.17695
1.18268
1.19018
1.20377
1.22857
1.25923
1.27487
1.27627
1.27573
1.27514
1.27753
1.27647
1.29696
1.50837
56.9162
1004.15
1027.08
1027.09
1027.09
1027.09
1027.1
1027.1
1027.1
1027.1
1027.1
1027.1
1027.1
1027.1
1027.1
1027.1
1027.1
1027.1
1027.1
1027.1
1027.1
1027.1
1027.1
1027.1
1027.1
1027.1
1027.1
1027.1
1027.1
1027.1
1027.1
1027.1
1027.1
1027.1
1027.1
1027.1
1027.1
1.16042
1.16048
1.16301
1.16457
1.16529
1.16613
1.16704
1.16778
1.16817
1.16842
1.16862
1.16876
1.16884
1.16887
1.16889
1.1689
1.1689
1.1689
1.1689
1.16891
1.16891
1.16891
1.16891
1.16891
1.16891
1.16891
1.16891
1.16891
1.16892
1.16892
1.16892
1.16892
1.16892
1.16892
1.16892
1.16892
1.16892
1.16892
1.16892
1.16893
1.16896
1.16909
1.16955
1.17078
1.17367
1.18051
1.18697
1.19281
1.20488
1.22663
1.25734
1.27228
1.27543
1.27513
1.27498
1.27629
1.27521
1.30116
1.47546
58.3999
1009.33
1026.99
1027.01
1027.06
1027.07
1027.09
1027.09
1027.09
1027.09
1027.09
1027.09
1027.09
1027.09
1027.09
1027.1
1027.1
1027.1
1027.1
1027.1
1027.1
1027.1
1027.1
1027.1
1027.1
1027.1
1027.1
1027.1
1027.1
1027.1
1027.1
1027.1
1027.1
1027.1
1027.1
1027.1
1027.1
1.16041
1.16047
1.1611
1.16422
1.1652
1.1661
1.16699
1.16762
1.16806
1.16838
1.1686
1.16875
1.16883
1.16887
1.16888
1.16889
1.1689
1.1689
1.1689
1.16891
1.16891
1.16891
1.16891
1.16891
1.16891
1.16891
1.16891
1.16891
1.16892
1.16892
1.16892
1.16892
1.16892
1.16892
1.16892
1.16892
1.16892
1.16892
1.16893
1.16895
1.16902
1.16926
1.17006
1.17134
1.17513
1.18326
1.19413
1.1979
1.20719
1.22718
1.25527
1.27207
1.27764
1.28014
1.28072
1.27919
1.2822
1.31988
1.50756
81.6511
1010.17
1025.69
1025.77
1026.26
1026.53
1026.75
1026.88
1026.95
1026.98
1027
1027.01
1027.01
1027.01
1027.01
1027
1026.98
1026.97
1026.96
1026.98
1027.01
1027.05
1027.08
1027.09
1027.1
1027.1
1027.1
1027.1
1027.1
1027.1
1027.1
1027.1
1027.1
1027.1
1027.1
1027.1
1027.1
1.16046
1.16043
1.16099
1.16343
1.16503
1.16604
1.16691
1.16748
1.16799
1.16836
1.1686
1.16875
1.16882
1.16887
1.16888
1.16889
1.1689
1.1689
1.1689
1.1689
1.16891
1.16891
1.16891
1.16891
1.16891
1.16891
1.16891
1.16891
1.16892
1.16892
1.16892
1.16892
1.16892
1.16892
1.16892
1.16892
1.16892
1.16892
1.16893
1.16897
1.1691
1.1695
1.17037
1.1716
1.1759
1.18478
1.19679
1.20677
1.21361
1.23189
1.25094
1.27423
1.27978
1.2824
1.28275
1.28232
1.2961
1.35021
1.54399
140.787
1008.8
1022.09
1022.22
1022.83
1023.19
1023.75
1024.4
1024.94
1025.31
1025.52
1025.59
1025.51
1025.43
1025.36
1025.32
1025.32
1025.47
1025.72
1026.1
1026.52
1026.86
1026.98
1026.99
1027.01
1027.04
1027.06
1027.07
1027.08
1027.09
1027.1
1027.1
1027.1
1027.1
1027.1
1027.1
1027.1
1.16043
1.16025
1.16088
1.16266
1.16457
1.16588
1.16699
1.16753
1.16803
1.16837
1.16858
1.16873
1.1688
1.16886
1.16888
1.16889
1.16889
1.1689
1.1689
1.1689
1.16891
1.16891
1.16891
1.16891
1.16892
1.16892
1.16892
1.16892
1.16892
1.16892
1.16892
1.16892
1.16892
1.16892
1.16892
1.16893
1.16893
1.16893
1.16894
1.16896
1.16906
1.16935
1.16999
1.17166
1.17537
1.18193
1.19326
1.20936
1.22165
1.23743
1.26902
1.28301
1.28219
1.27936
1.28314
1.28586
1.30028
1.37504
1.73576
213.437
1007.17
1019
1019.3
1019.36
1018.44
1017.99
1017.95
1018.22
1018.55
1018.93
1019.35
1019.77
1020.21
1020.85
1021.59
1022.42
1023.34
1024.2
1024.79
1025.05
1024.74
1024.72
1024.88
1025.32
1025.64
1026.09
1026.52
1026.85
1027.02
1027.1
1027.1
1027.07
1027.07
1027.09
1027.1
1027.1
1.16037
1.16015
1.16063
1.16165
1.16375
1.16529
1.16658
1.16732
1.16795
1.16818
1.16846
1.1687
1.16878
1.16885
1.16888
1.16889
1.16889
1.16889
1.1689
1.1689
1.1689
1.1689
1.1689
1.16891
1.16891
1.16891
1.16891
1.16891
1.16891
1.16891
1.16891
1.16892
1.16892
1.16892