/*--------------------------------*- C++ -*----------------------------------*\
| =========                 |                                                 |
| \\      /  F ield         | OpenFOAM: The Open Source CFD Toolbox           |
|  \\    /   O peration     | Version:  2.3.0                                 |
|   \\  /    A nd           | Web:      www.OpenFOAM.org                      |
|    \\/     M anipulation  |                                                 |
\*---------------------------------------------------------------------------*/
FoamFile
{
    version     2.0;
    format      ascii;
    class       volVectorField;
    location    "52";
    object      U.airMean;
}
// * * * * * * * * * * * * * * * * * * * * * * * * * * * * * * * * * * * * * //

dimensions      [0 1 -1 0 0 0 0];

internalField   nonuniform List<vector> 
6144
(
(0.00983547 0.0201688 -0.000543564)
(0.010131 -0.000630346 -0.00150705)
(0.00457125 -0.00215803 -0.00250663)
(0.00414829 -0.00275605 -0.0024082)
(0.0026185 -0.00257581 -0.00192613)
(0.00299216 -0.000851109 -0.00166307)
(0.00266655 -0.000901797 -0.00130899)
(0.00261738 0.000155873 -0.00102499)
(0.00227314 0.000329512 -0.000890241)
(0.00203855 0.00155459 -0.000563723)
(0.00184766 0.00245046 -0.000256422)
(0.00191077 0.00320539 0.000172792)
(0.00203919 0.0032139 0.000372172)
(0.00217429 0.00283158 0.00060445)
(0.00224263 0.00215809 0.000538795)
(0.0023199 0.00155132 0.000435047)
(0.00236686 0.000953649 0.000229594)
(0.00241752 0.000525078 5.2948e-05)
(0.00245783 0.000175918 -0.000133259)
(0.00248777 -2.65517e-05 -0.000278251)
(0.00250554 -0.000148704 -0.000393532)
(0.00251593 -0.000176702 -0.000468671)
(0.00251437 -0.000164021 -0.000500277)
(0.0025025 -0.000118346 -0.000493958)
(0.00248085 -6.22909e-05 -0.000456594)
(0.00245213 -3.27568e-06 -0.000393408)
(0.00241995 4.83434e-05 -0.00031382)
(0.00238676 8.40998e-05 -0.000227714)
(0.00235233 0.000105187 -0.000139606)
(0.0023162 0.000102306 -5.47621e-05)
(0.00227938 0.000105148 2.92878e-05)
(0.00223725 6.30697e-05 0.000119006)
(0.0021946 6.43291e-05 0.000221073)
(0.00214388 -5.2283e-05 0.000343517)
(0.00209928 -7.8059e-05 0.00049333)
(0.00205035 -0.000380075 0.000663948)
(0.00202077 -0.000515666 0.000835061)
(0.00199238 -0.00110955 0.000957317)
(0.0019938 -0.00130097 0.000986148)
(0.00199943 -0.00203831 0.000863631)
(0.00201988 -0.00192577 0.000549259)
(0.00203331 -0.00227332 7.57381e-06)
(0.00208609 -0.00111884 -0.000580965)
(0.00238156 -0.000702449 -0.0010457)
(0.00299899 0.000760095 -0.00147017)
(0.003721 0.000253152 -0.0019588)
(0.00409659 0.00140642 -0.00267067)
(0.00334291 0.00202967 -0.00377573)
(0.00289406 0.00860617 -0.00564712)
(0.00688603 0.0124209 -0.00792799)
(0.018141 0.012902 -0.0103034)
(0.0263132 -0.00648385 -0.0104288)
(0.0315026 -0.017239 -0.0113482)
(0.0307763 -0.0530123 -0.010831)
(0.0263909 -0.0477162 -0.0118473)
(0.0228568 -0.0883868 -0.00782495)
(0.00470871 -0.0419615 -0.0135073)
(0.00625878 -0.0963822 0.0223895)
(-0.0365032 0.0149401 -0.0471488)
(0.0331567 0.113257 0.0400642)
(0.113155 0.316821 0.0326495)
(0.0477508 0.390212 -0.00872786)
(0.045076 -0.0805814 -0.00172727)
(0.051688 -0.177943 0.00426075)
(0.042984 -0.184297 0.00499391)
(0.0355298 -0.177901 0.00514358)
(0.0291217 -0.176464 0.00450749)
(0.0242587 -0.170913 0.00412812)
(0.0210135 -0.16744 0.00419002)
(0.0181978 -0.160612 0.00446789)
(0.0156802 -0.155378 0.00476276)
(0.0131719 -0.147051 0.00513946)
(0.0110924 -0.13901 0.00569015)
(0.00861511 -0.129342 0.00622189)
(0.0055553 -0.118744 0.00647031)
(0.00315697 -0.105624 0.00511244)
(0.0020112 -0.0925551 0.00260046)
(0.00070027 -0.079869 0.00117509)
(-0.00044274 -0.0670234 0.00115082)
(0.000627632 -0.0547988 0.00197331)
(0.00212368 -0.0448608 0.00267337)
(0.00265164 -0.03691 0.0034046)
(0.0026575 -0.0317529 0.00449603)
(0.00168689 -0.0278793 0.00468933)
(0.00117139 -0.0231836 0.0041264)
(0.00140672 -0.0174225 0.00335755)
(0.00170321 -0.0113279 0.00305534)
(0.00154999 -0.00476042 0.00228656)
(0.000847166 0.00149254 0.00122415)
(-0.000207957 0.00973012 0.000546924)
(0.00033203 0.0172899 0.00127326)
(0.00147941 0.0233692 0.00247172)
(0.00189289 0.02693 0.00382285)
(0.00212812 0.0283739 0.00647987)
(0.00364753 0.0264356 0.010177)
(0.00659435 0.01654 0.0152472)
(0.0191759 0.021221 0.00302254)
(0.0203984 0.0073496 0.00247489)
(0.0104545 0.00390093 -0.000565398)
(0.00999053 0.00267052 0.000162551)
(0.00576915 -0.000254415 0.00102535)
(0.00578488 0.000659675 0.00154661)
(0.00447538 -0.000263984 0.00210626)
(0.00426525 0.00113361 0.00215359)
(0.00356052 0.00138198 0.00213688)
(0.00320537 0.00291782 0.00219455)
(0.00305497 0.00369783 0.00235473)
(0.00340918 0.00434308 0.00282768)
(0.0037815 0.00416203 0.0030678)
(0.00417506 0.00376784 0.00325808)
(0.00431414 0.00300952 0.00324484)
(0.00445646 0.00234453 0.00321331)
(0.0044909 0.00164224 0.00312478)
(0.00454494 0.00113059 0.00305835)
(0.00457281 0.00068656 0.00297903)
(0.00459024 0.000402109 0.0029291)
(0.00458864 0.000204086 0.00288938)
(0.0045804 0.00011686 0.00286317)
(0.00455286 8.01822e-05 0.00286832)
(0.00450818 8.97719e-05 0.00290339)
(0.00444752 0.000119434 0.00296094)
(0.0043765 0.000162115 0.00303512)
(0.00430354 0.00020509 0.00311167)
(0.00423437 0.000237476 0.00318229)
(0.0041659 0.00025673 0.00325265)
(0.00409593 0.000252059 0.00331746)
(0.00402692 0.000248577 0.00338053)
(0.00394966 0.000189427 0.00344637)
(0.00388024 0.000169105 0.00351758)
(0.00380343 1.01099e-05 0.00359471)
(0.00376125 -4.02778e-05 0.00368293)
(0.00372163 -0.000386283 0.00377472)
(0.00374202 -0.000493535 0.00386661)
(0.00374588 -0.00109226 0.00393331)
(0.00379631 -0.00117499 0.00395913)
(0.00378401 -0.00190433 0.00389742)
(0.00374892 -0.00163916 0.00370547)
(0.00366733 -0.00208488 0.00326444)
(0.00374695 -0.000985738 0.00261225)
(0.00418944 -0.00111796 0.00202985)
(0.00520835 0.000365699 0.0014833)
(0.00615753 0.000364674 0.000780242)
(0.00575284 0.00324357 -0.000426258)
(0.00459893 0.00522505 -0.00189466)
(0.00661823 0.0104496 -0.00333992)
(0.0169576 0.00754275 -0.00420353)
(0.0373916 0.00227396 -0.00558)
(0.0503881 -0.0142764 -0.00521021)
(0.0586394 -0.0185927 -0.00316049)
(0.0556294 -0.0462871 -0.000906008)
(0.0449295 -0.0348871 0.00408999)
(0.0438004 -0.0929439 0.011948)
(0.00286661 -0.0418554 0.0119567)
(0.000694107 -0.15735 0.0427381)
(-0.0939993 0.0406104 -0.0751138)
(0.0221936 0.0441507 0.02365)
(0.124783 0.349512 0.0764974)
(0.0251163 0.429737 0.00316288)
(0.0202624 -0.0652751 0.00506801)
(0.0259147 -0.0343209 0.0155947)
(0.0126161 -0.0519308 0.0172746)
(0.00480121 -0.0418791 0.0154669)
(0.00145371 -0.0433656 0.012631)
(0.00131421 -0.0384836 0.0117584)
(0.00246319 -0.036975 0.0112452)
(0.00209751 -0.0320048 0.0100376)
(0.000628811 -0.0317806 0.0106594)
(-0.00153088 -0.0310219 0.0115174)
(-0.00313114 -0.032852 0.0119318)
(-0.00562389 -0.0338171 0.0111564)
(-0.00853856 -0.0348567 0.00986855)
(-0.0094245 -0.0327429 0.0086501)
(-0.00898933 -0.0308422 0.00735555)
(-0.00944921 -0.0284687 0.00683384)
(-0.00943213 -0.0253306 0.00679183)
(-0.00778234 -0.0226624 0.00720533)
(-0.00573544 -0.0192995 0.0072325)
(-0.00400586 -0.0159449 0.00788375)
(-0.00303347 -0.0152721 0.00912185)
(-0.00325062 -0.0160463 0.00918637)
(-0.00381588 -0.0161916 0.0079952)
(-0.00344693 -0.0153869 0.0068658)
(-0.00301836 -0.0124404 0.00535592)
(-0.00320186 -0.00785487 0.00381202)
(-0.00366082 -0.00285868 0.00246073)
(-0.00414293 0.00312051 0.00164186)
(-0.00331615 0.00871387 0.00268022)
(-0.00160089 0.0132832 0.0040399)
(-0.00128942 0.0182073 0.00602596)
(-0.00119025 0.0194794 0.00982071)
(-0.000366748 0.0193904 0.0144041)
(0.00265916 0.0113255 0.0200354)
(0.0224796 0.0211746 0.00413671)
(0.0244412 0.0120676 0.00403393)
(0.0145406 0.0074697 0.00126706)
(0.0134939 0.00691172 0.00218427)
(0.0070439 0.00240305 0.00290459)
(0.00617318 0.00289382 0.00313556)
(0.00356242 0.000966101 0.00370033)
(0.00315962 0.00224566 0.00359456)
(0.00224203 0.00226148 0.00352114)
(0.00215965 0.00348181 0.00359953)
(0.00207977 0.00368981 0.00366804)
(0.00273711 0.00419058 0.00396211)
(0.00318302 0.00394327 0.00414174)
(0.00368815 0.0037941 0.0042965)
(0.00387581 0.00324686 0.00428347)
(0.00406623 0.00278863 0.00427175)
(0.00408218 0.00220439 0.00422334)
(0.00412421 0.00176628 0.00420195)
(0.00410268 0.00133914 0.00418296)
(0.00407786 0.0010369 0.00418915)
(0.00401857 0.000781376 0.00420649)
(0.00394777 0.000616518 0.0042415)
(0.00386766 0.00050188 0.00428275)
(0.00378232 0.000440935 0.0043302)
(0.00369015 0.000409401 0.0043806)
(0.00359591 0.000399254 0.00443257)
(0.00350085 0.000397138 0.004486)
(0.00340575 0.00039627 0.00454224)
(0.00331177 0.000393375 0.00460057)
(0.00321355 0.000373065 0.00466062)
(0.00311579 0.000353856 0.00472206)
(0.00301233 0.000281894 0.00478474)
(0.00292245 0.000244523 0.00484917)
(0.00282471 8.49724e-05 0.00491283)
(0.00277445 5.20867e-05 0.00497649)
(0.00272607 -0.000212897 0.00503203)
(0.00275909 -0.000174903 0.00507904)
(0.00277442 -0.000527528 0.00509963)
(0.00286522 -0.000303552 0.00508834)
(0.00288251 -0.000673129 0.00501623)
(0.00293577 -9.7702e-05 0.00485746)
(0.0028763 -0.000442456 0.00462264)
(0.00300125 0.000497692 0.00437343)
(0.00347099 -4.02196e-05 0.00413589)
(0.00432245 0.00137159 0.00364303)
(0.00507913 0.00145414 0.00307583)
(0.00498104 0.00428834 0.00210657)
(0.00553654 0.00398364 0.000775167)
(0.010994 0.00691993 -0.000430797)
(0.0270508 5.94201e-05 -0.000249463)
(0.0517093 -0.00231982 -0.00153487)
(0.0683237 -0.0106651 -8.57265e-05)
(0.0746551 -0.00578689 0.00357509)
(0.0721741 -0.0234338 0.00655081)
(0.0644607 -0.0086037 0.0160012)
(0.0602145 -0.0738267 0.0246046)
(0.00587041 -0.0106417 0.034798)
(0.0181375 -0.179791 0.0635198)
(-0.11119 0.0854595 -0.0608396)
(0.0519251 0.0191476 -0.00259796)
(0.171794 0.370365 0.0908359)
(0.0759862 0.446305 0.0244089)
(0.0700546 -0.00550809 0.0193791)
(0.0459198 0.0563504 0.0144858)
(0.0301106 0.0198938 0.0131128)
(0.0201712 0.0327609 0.0136047)
(0.0168062 0.0255374 0.0136991)
(0.012482 0.0288532 0.0112131)
(0.0113833 0.0300961 0.00982609)
(0.0115591 0.0301267 0.0104185)
(0.0105529 0.0236774 0.0123714)
(0.0075768 0.0177493 0.0137442)
(0.00527274 0.0118246 0.0141048)
(0.00242064 0.00959289 0.0133651)
(-0.000736524 0.00613023 0.0114913)
(-0.00248494 0.00500216 0.00962423)
(-0.00334439 0.00487811 0.00914606)
(-0.00485315 0.00505739 0.00943347)
(-0.00648724 0.00410857 0.0102568)
(-0.00639426 0.00289479 0.0105921)
(-0.00512269 0.00237747 0.0107142)
(-0.00351122 0.00173377 0.0115984)
(-0.00266156 -0.000834519 0.0130565)
(-0.00419402 -0.00374578 0.0126226)
(-0.00547185 -0.00638466 0.0116324)
(-0.00598365 -0.00772344 0.00985091)
(-0.00605761 -0.00675782 0.00724252)
(-0.00609911 -0.00485062 0.00441561)
(-0.00590121 -0.00196554 0.00135013)
(-0.00562446 0.0035153 -0.000278711)
(-0.00499024 0.00801206 0.00238038)
(-0.00443481 0.0115509 0.00552271)
(-0.00392209 0.014389 0.00865272)
(-0.0035976 0.0144496 0.0122347)
(-0.00435274 0.0148505 0.0167774)
(-0.0039614 0.0084205 0.0216886)
(0.0236652 0.021234 0.00438145)
(0.0271079 0.0153086 0.00453765)
(0.016522 0.00916927 0.0010114)
(0.0163747 0.00999722 0.00144145)
(0.00883572 0.00425562 0.00206681)
(0.00746747 0.0049474 0.00253796)
(0.00320662 0.00151232 0.00347786)
(0.0022606 0.00247922 0.003463)
(0.000933371 0.00178123 0.00356771)
(0.00108975 0.00300688 0.00371006)
(0.00102904 0.00287654 0.00386628)
(0.00166524 0.00348633 0.00426829)
(0.00203468 0.00344521 0.00446841)
(0.00256175 0.00359108 0.00462741)
(0.00277874 0.00323443 0.00459888)
(0.00299056 0.00295318 0.00460068)
(0.00299601 0.00245689 0.00457151)
(0.00302356 0.00208947 0.00457779)
(0.00297363 0.00169035 0.00457457)
(0.00292733 0.00139534 0.00458722)
(0.00284042 0.00112157 0.00460201)
(0.00274529 0.000921703 0.00462862)
(0.00263554 0.000758598 0.00466048)
(0.00252291 0.000648197 0.0046988)
(0.00240984 0.000574178 0.00474082)
(0.00230076 0.000531902 0.00478624)
(0.00219807 0.000508277 0.00483291)
(0.00210253 0.000493488 0.00488048)
(0.00201296 0.000480714 0.0049296)
(0.00192571 0.000456134 0.00498055)
(0.00184492 0.000434603 0.00503339)
(0.00176429 0.000373094 0.00508628)
(0.00170247 0.000351746 0.00513635)
(0.00163662 0.000233289 0.00517807)
(0.00161934 0.000252595 0.00520702)
(0.00159002 7.94725e-05 0.00521497)
(0.00163898 0.000232217 0.00519976)
(0.00164216 4.51747e-05 0.00515136)
(0.00172521 0.000457313 0.00507238)
(0.00171926 0.000299122 0.00495251)
(0.00181371 0.00106972 0.00478258)
(0.00187009 0.000814506 0.00457815)
(0.00217642 0.00163541 0.00438873)
(0.00255103 0.000839024 0.00422712)
(0.00317217 0.00177081 0.0040017)
(0.00375493 0.00114438 0.00386209)
(0.00434393 0.00311011 0.00350151)
(0.00619219 0.000675782 0.00239745)
(0.0145156 0.00148101 0.00152905)
(0.0312194 -0.00591114 0.00173948)
(0.0554333 -0.00263281 0.0011881)
(0.0713586 0.00110465 0.00459854)
(0.0785268 0.0158855 0.00923724)
(0.0765769 0.0101804 0.0128929)
(0.0692198 0.0326074 0.0254074)
(0.0630641 -0.0259468 0.0408177)
(0.0194545 0.0602344 0.0759133)
(0.0361748 -0.189141 0.101735)
(-0.146147 0.209074 -0.04061)
(0.0558242 -0.0459769 0.0224009)
(0.154927 0.452216 0.0909616)
(0.05171 0.570987 0.0167519)
(0.0374632 0.378479 0.0156702)
(0.0119218 0.422117 0.00287104)
(0.00796838 0.376735 0.00821357)
(0.000577684 0.35978 0.00827334)
(0.000406166 0.338159 0.00958368)
(-0.000146839 0.321101 0.00910502)
(0.00179566 0.300737 0.00826059)
(0.00266129 0.282029 0.00837114)
(0.00288369 0.253891 0.00940813)
(0.00191311 0.225895 0.00958677)
(-0.000233557 0.194758 0.00958416)
(-0.00272059 0.163491 0.00932414)
(-0.00472279 0.134797 0.00859622)
(-0.0065021 0.118042 0.00870354)
(-0.00814636 0.10489 0.00906098)
(-0.00923696 0.0932537 0.00896179)
(-0.0100077 0.0778562 0.0102846)
(-0.00976027 0.063385 0.0114296)
(-0.00937302 0.0539085 0.012845)
(-0.00924394 0.0473433 0.0132614)
(-0.0093804 0.040776 0.0140198)
(-0.0102129 0.0328946 0.0132298)
(-0.0118334 0.0279303 0.0123276)
(-0.0127369 0.0243684 0.0108508)
(-0.0119683 0.0218194 0.00667108)
(-0.0103869 0.0208105 0.00363398)
(-0.0101919 0.0190372 0.000892295)
(-0.00916936 0.0193935 -0.000700183)
(-0.0079022 0.0193219 0.00314476)
(-0.0073203 0.0181794 0.00645343)
(-0.00724969 0.017241 0.00954084)
(-0.0084034 0.0142836 0.0138432)
(-0.0119852 0.0134151 0.0174149)
(-0.0137705 0.00723389 0.0220588)
(0.0236818 0.0213804 0.00452549)
(0.0289672 0.0183348 0.00517287)
(0.018143 0.0103974 0.000881839)
(0.0193667 0.0122452 0.000988363)
(0.010935 0.0049192 0.000396929)
(0.00938146 0.00644686 0.000980376)
(0.00376194 0.00178702 0.00215667)
(0.0021328 0.00296764 0.00264347)
(-0.0002172 0.000954723 0.00302675)
(-0.000301836 0.00210576 0.00340671)
(-0.000627086 0.00171225 0.00365325)
(-0.000241278 0.00260753 0.0042126)
(-4.32824e-05 0.00281133 0.00442401)
(0.000526821 0.00326122 0.00461287)
(0.000786577 0.00307076 0.00455635)
(0.000999357 0.00290046 0.00457598)
(0.000949385 0.00246186 0.00455851)
(0.000885219 0.00216105 0.00458687)
(0.000748632 0.00180923 0.00458628)
(0.000638527 0.00154924 0.00458847)
(0.000505901 0.00128192 0.00457764)
(0.000383684 0.00106792 0.00457402)
(0.00026053 0.000878585 0.00457437)
(0.00014056 0.000738316 0.00458252)
(2.16056e-05 0.000633196 0.00459565)
(-8.66286e-05 0.000562462 0.00461475)
(-0.000182288 0.000514502 0.00463806)
(-0.000264257 0.000480321 0.00466407)
(-0.000336458 0.000454511 0.00469017)
(-0.00040556 0.000428046 0.00471634)
(-0.000470401 0.000412094 0.00474243)
(-0.000535997 0.000371819 0.00476602)
(-0.000585672 0.000379743 0.00478451)
(-0.000640878 0.00031997 0.0047899)
(-0.000646018 0.000409448 0.00477686)
(-0.000664617 0.000345639 0.00473332)
(-0.000602995 0.000615024 0.00465857)
(-0.000594953 0.000590862 0.00454402)
(-0.000498136 0.00117015 0.00440606)
(-0.000496484 0.00119193 0.0042574)
(-0.000304292 0.00205515 0.00413319)
(-7.09188e-05 0.00175988 0.00401671)
(0.000523422 0.00238197 0.00385635)
(0.00112624 0.00126242 0.0036486)
(0.00184031 0.00176536 0.00359436)
(0.00232369 0.000524023 0.00367327)
(0.00350448 0.00136584 0.00412302)
(0.00692493 -0.00253342 0.00371724)
(0.0168206 -0.00390263 0.00372275)
(0.0318473 -0.00756821 0.00535592)
(0.0499174 0.0034633 0.00687217)
(0.0640929 0.0180904 0.012552)
(0.070577 0.0449477 0.0165448)
(0.0697932 0.0518306 0.0205237)
(0.0635988 0.0814387 0.0364149)
(0.0539083 0.0407978 0.0521309)
(0.0256056 0.132389 0.0876352)
(0.0350516 -0.111678 0.104894)
(-0.11733 0.319199 -0.0108608)
(0.0456123 -0.0782434 0.0294501)
(0.144974 0.503391 0.0965247)
(0.0458459 0.622226 0.015634)
(0.0371866 0.550097 0.0154548)
(0.012427 0.603353 0.00202356)
(0.0102257 0.593544 0.0076497)
(0.00257708 0.604869 0.00723231)
(0.00302894 0.599414 0.0084413)
(0.00105756 0.597479 0.00787162)
(0.00223952 0.59174 0.00803854)
(0.00287195 0.58804 0.00905473)
(0.00353332 0.583487 0.010143)
(0.00286295 0.578075 0.0105652)
(0.00266588 0.569882 0.010472)
(0.00182025 0.558858 0.0104827)
(0.00111218 0.54182 0.0106222)
(-0.000170244 0.514181 0.0101488)
(-0.00155364 0.489912 0.0101616)
(-0.00351559 0.46619 0.0107537)
(-0.00530809 0.443885 0.012314)
(-0.00685001 0.421387 0.0137129)
(-0.00835607 0.399366 0.0149869)
(-0.00980245 0.369096 0.0158197)
(-0.010325 0.330523 0.0150177)
(-0.0101676 0.291979 0.0123939)
(-0.0088276 0.255594 0.00873292)
(-0.00710131 0.227499 0.00446706)
(-0.00588915 0.191583 0.00163762)
(-0.00492555 0.160073 0.000680106)
(-0.00582585 0.135312 5.78014e-05)
(-0.00544263 0.116188 0.00323058)
(-0.00631403 0.099691 0.00705208)
(-0.00658749 0.0766261 0.00930287)
(-0.00732133 0.0592435 0.0130334)
(-0.010731 0.0389358 0.0164079)
(-0.017628 0.0248122 0.0180089)
(-0.0240668 0.0115934 0.0209635)
(0.0223403 0.0210258 0.00509051)
(0.0303057 0.0217083 0.00645717)
(0.0188562 0.0114361 0.0017487)
(0.0215876 0.0142944 0.00229438)
(0.0133116 0.00439486 -0.000105485)
(0.0114056 0.00693471 -9.69961e-05)
(0.00485561 0.00113085 0.000803942)
(0.00252398 0.00335124 0.00151067)
(-0.000375266 0.000319899 0.00217057)
(-0.00127822 0.00136752 0.00277871)
(-0.00190608 0.000416285 0.00307502)
(-0.00172504 0.00155169 0.00380102)
(-0.00146166 0.00200933 0.00410844)
(-0.000703987 0.00282064 0.00448688)
(-0.000234938 0.00269788 0.00458074)
(5.38207e-05 0.002601 0.00472882)
(-1.59991e-05 0.00218488 0.00475526)
(-0.000148075 0.00196623 0.00479341)
(-0.000341673 0.00170972 0.00476712)
(-0.000488103 0.00155833 0.00472935)
(-0.000643625 0.00138101 0.00466009)
(-0.000781352 0.00123601 0.00458729)
(-0.000922657 0.00108895 0.00451395)
(-0.00105108 0.000968879 0.00445028)
(-0.00116243 0.00087139 0.00439546)
(-0.00125269 0.000803173 0.00434968)
(-0.00132167 0.000754343 0.00431288)
(-0.00137418 0.000718615 0.00428479)
(-0.00141878 0.000691032 0.00426464)
(-0.00145731 0.000667151 0.00425411)
(-0.00148915 0.000661236 0.00425204)
(-0.00151782 0.000649937 0.00425217)
(-0.00153163 0.000697859 0.00424969)
(-0.00155023 0.000707925 0.00423134)
(-0.00153054 0.000873079 0.00418975)
(-0.00153822 0.000915498 0.00411174)
(-0.00149641 0.00127198 0.0039956)
(-0.00153987 0.00134371 0.00383438)
(-0.00150333 0.00194403 0.00365839)
(-0.00150651 0.00194577 0.0035177)
(-0.00122853 0.00267548 0.00347321)
(-0.000806072 0.00226774 0.00350067)
(9.44742e-06 0.00275931 0.00346681)
(0.000742236 0.00154524 0.00343253)
(0.0014824 0.00195907 0.00367756)
(0.00190157 0.000327794 0.00404886)
(0.00369547 -0.000221503 0.00454987)
(0.00887587 -0.0046251 0.00445179)
(0.0164424 -0.00599281 0.00568787)
(0.0253449 -0.00658428 0.00998027)
(0.035732 0.00927687 0.0143026)
(0.0432214 0.0319269 0.0206028)
(0.0518028 0.0657448 0.0270343)
(0.0540019 0.08089 0.0351841)
(0.0504603 0.109481 0.0515467)
(0.0443346 0.0738705 0.0611103)
(0.0363 0.149699 0.0823684)
(0.0503814 -0.0849848 0.0817767)
(-0.0319132 0.359671 0.0228786)
(0.0349848 -0.0823704 0.033182)
(0.0957923 0.543363 0.09263)
(0.0187274 0.643523 0.00956769)
(0.0145233 0.605018 0.0122054)
(-0.00473367 0.657995 0.00290198)
(-0.00349059 0.657325 0.0105136)
(-0.00655903 0.670064 0.0108831)
(-0.00333656 0.670018 0.0127609)
(-0.00195613 0.674586 0.0131222)
(0.00119583 0.674522 0.014291)
(0.00334856 0.674976 0.0146888)
(0.005643 0.670149 0.0143855)
(0.00639326 0.667254 0.0139906)
(0.00709242 0.664952 0.0135841)
(0.0063241 0.662914 0.0134753)
(0.00485541 0.658818 0.0134315)
(0.00273198 0.65543 0.0133513)
(0.000426443 0.650535 0.0138158)
(-0.00219652 0.644306 0.0146879)
(-0.00510532 0.635815 0.0155741)
(-0.0074366 0.623306 0.0158901)
(-0.00933218 0.610107 0.0150362)
(-0.0101674 0.594764 0.0131369)
(-0.00948473 0.578368 0.0100941)
(-0.00831494 0.559096 0.00625766)
(-0.00742514 0.539281 0.00248886)
(-0.00640071 0.515962 -0.000550061)
(-0.00563073 0.481654 -0.00134997)
(-0.0056449 0.439407 0.000845494)
(-0.00688319 0.394641 0.00464428)
(-0.00828232 0.350515 0.00827023)
(-0.00946666 0.303756 0.00958275)
(-0.0104973 0.24712 0.0113344)
(-0.0124319 0.209522 0.014891)
(-0.0166552 0.163777 0.0178475)
(-0.0233455 0.111192 0.0193484)
(-0.029605 0.078147 0.0187253)
(0.018874 0.0195111 0.00525149)
(0.0303489 0.0254422 0.00851873)
(0.0177676 0.0118986 0.00367796)
(0.0216067 0.016477 0.00500954)
(0.0140407 0.00340534 0.0015254)
(0.0121063 0.006594 0.000714071)
(0.00489622 -0.000284292 0.000908624)
(0.0024762 0.00327132 0.00112607)
(-0.000777809 -4.08288e-05 0.00163725)
(-0.00221193 0.0012684 0.00240923)
(-0.00357791 -0.000254328 0.00261897)
(-0.00426044 0.000921613 0.00339445)
(-0.00439329 0.00129813 0.00382128)
(-0.00339816 0.00221619 0.00458693)
(-0.00279255 0.00207676 0.00498612)
(-0.00251406 0.00211182 0.00532131)
(-0.00272463 0.00178312 0.00538991)
(-0.00305632 0.00169718 0.00539366)
(-0.00340829 0.00156151 0.00529772)
(-0.00364026 0.00154773 0.00518889)
(-0.00382452 0.00150042 0.00504582)
(-0.00394949 0.0014816 0.00490511)
(-0.00405164 0.00143825 0.00476846)
(-0.00413629 0.0013984 0.0046526)
(-0.00421766 0.0013604 0.00456108)
(-0.00427059 0.00133517 0.00448635)
(-0.00429532 0.00131204 0.00442665)
(-0.00429403 0.00128991 0.00438888)
(-0.00427996 0.0012679 0.00437167)
(-0.00426709 0.00124884 0.00437249)
(-0.004261 0.0012536 0.00438745)
(-0.00425969 0.00127085 0.00440672)
(-0.00425747 0.00136122 0.00442115)
(-0.00426577 0.00143961 0.00441415)
(-0.00423692 0.00166471 0.00438339)
(-0.00422475 0.00176986 0.00431901)
(-0.00414434 0.00213129 0.00423132)
(-0.00411577 0.00215697 0.00410977)
(-0.00398961 0.00257631 0.00397149)
(-0.00391759 0.00231823 0.00383091)
(-0.0035922 0.00272961 0.00374572)
(-0.00314559 0.00214273 0.00366966)
(-0.00217806 0.00264501 0.00362211)
(-0.00132235 0.00163634 0.00379286)
(-0.000552477 0.0020228 0.00419829)
(0.000401795 0.000196896 0.0045921)
(0.00351643 -0.0010206 0.00489638)
(0.00852438 -0.00425703 0.00510138)
(0.0138752 -0.00364433 0.00661183)
(0.0155081 0.000553519 0.0121453)
(0.0134174 0.0211385 0.0197153)
(0.0167885 0.0445673 0.0262318)
(0.0237621 0.0822253 0.0337683)
(0.0296071 0.104061 0.0428443)
(0.0367151 0.130169 0.0553181)
(0.0430991 0.0955301 0.0605016)
(0.0536653 0.16418 0.0720873)
(0.049449 -0.0640808 0.0622248)
(0.0118777 0.357144 0.0558775)
(0.0133264 -0.0684972 0.0332918)
(0.0386163 0.576218 0.0804052)
(-0.00343416 0.662688 0.00948977)
(-0.00341158 0.644317 0.011309)
(-0.012669 0.690987 0.00543899)
(-0.0082236 0.688511 0.0133999)
(-0.00747254 0.699307 0.0132008)
(-0.00435761 0.698458 0.0147908)
(-0.00278718 0.702844 0.0151104)
(0.000127813 0.703396 0.0160559)
(0.00290845 0.704245 0.0161025)
(0.00571858 0.703944 0.015749)
(0.00708864 0.702728 0.0155697)
(0.00827556 0.702932 0.0158841)
(0.00796345 0.701552 0.0160908)
(0.00727485 0.698463 0.0165949)
(0.00568981 0.692261 0.0166342)
(0.0039727 0.683703 0.0167934)
(0.00185434 0.67438 0.0167745)
(-1.71526e-05 0.666627 0.0165634)
(-0.00174989 0.658186 0.0160671)
(-0.00238107 0.64908 0.0142996)
(-0.00216728 0.641129 0.0114817)
(-0.000928692 0.636716 0.00776492)
(-4.45975e-05 0.632709 0.00352674)
(0.000681238 0.624841 -3.89034e-05)
(0.000539719 0.612418 -0.00259712)
(-0.000335154 0.601562 -0.00228385)
(-0.00119212 0.587504 -9.52647e-05)
(-0.00222087 0.562106 0.00245355)
(-0.00470188 0.542099 0.00493001)
(-0.00853428 0.520445 0.00617454)
(-0.0133449 0.492775 0.00815325)
(-0.0186712 0.452527 0.0102316)
(-0.0249607 0.392047 0.0119037)
(-0.0318007 0.31388 0.0134076)
(-0.0398801 0.270757 0.011383)
(0.0158683 0.014297 0.00432142)
(0.029214 0.0285267 0.00940353)
(0.0152553 0.0119572 0.00441299)
(0.0204462 0.019471 0.00598728)
(0.013749 0.00361996 0.0026298)
(0.0114333 0.00671869 0.00160544)
(0.0033332 -0.00150509 0.00166888)
(0.000888469 0.00302083 0.0013621)
(-0.00148294 -0.000615013 0.00211027)
(-0.0030304 0.00154265 0.00277674)
(-0.00432888 -0.000331129 0.00305993)
(-0.00510396 0.000682696 0.00391769)
(-0.00506759 0.000171024 0.00461071)
(-0.00390718 0.000816925 0.00563706)
(-0.00326591 0.00059763 0.0063626)
(-0.00301066 0.00101608 0.00696364)
(-0.0032069 0.00107173 0.00723569)
(-0.00348757 0.00138141 0.00732928)
(-0.00378678 0.00149895 0.00726232)
(-0.00397091 0.00169973 0.00714534)
(-0.00412255 0.00180494 0.00697626)
(-0.00421663 0.0019014 0.0068053)
(-0.0042875 0.00193805 0.0066413)
(-0.00433465 0.00195727 0.00650021)
(-0.00436862 0.00195023 0.00638058)
(-0.00437612 0.00193379 0.00628667)
(-0.0043561 0.00191348 0.00621819)
(-0.00431257 0.0018911 0.00617323)
(-0.00426079 0.00186689 0.00614829)
(-0.00421612 0.0018502 0.00614113)
(-0.0041875 0.00186586 0.00614425)
(-0.00417338 0.00191003 0.00614549)
(-0.00417023 0.00203492 0.00613609)
(-0.00417337 0.00215964 0.00610766)
(-0.00413587 0.00240485 0.00605959)
(-0.00411188 0.00251416 0.00598598)
(-0.00400875 0.00280567 0.00589936)
(-0.00393795 0.0027332 0.0057911)
(-0.00372847 0.0029838 0.00567961)
(-0.00357835 0.00259287 0.00556003)
(-0.00326236 0.00283272 0.00546705)
(-0.00290572 0.0021233 0.00537781)
(-0.00205865 0.00254003 0.00536137)
(-0.00120509 0.0015198 0.00556075)
(-0.000484815 0.00195844 0.00587519)
(0.000739682 -0.00030512 0.00584908)
(0.00350628 -0.000149334 0.00527516)
(0.00631865 -4.42654e-05 0.00552134)
(0.00728946 0.00445516 0.00782618)
(0.000959199 0.013625 0.0166284)
(-0.00745522 0.032788 0.0260931)
(-0.0121839 0.0540719 0.0307249)
(-0.00879326 0.0871618 0.0337653)
(0.00678672 0.113355 0.0391935)
(0.0253274 0.143864 0.0503716)
(0.0519108 0.129335 0.0573146)
(0.0771517 0.186239 0.0715171)
(0.0866196 -0.00587048 0.065629)
(0.0961446 0.39257 0.0400582)
(-0.0236106 -0.0767414 0.0277962)
(-0.0493088 0.610532 0.0435935)
(-0.0351396 0.69374 -0.00726233)
(-0.0317242 0.677182 0.0020144)
(-0.0236759 0.71637 0.0003538)
(-0.016525 0.710818 0.00767702)
(-0.0098278 0.71794 0.00684601)
(-0.00653678 0.715433 0.00814509)
(-0.00213871 0.715925 0.0081614)
(0.00138073 0.716821 0.00951014)
(0.00488207 0.715774 0.0104776)
(0.00723139 0.715662 0.0110557)
(0.00909577 0.717055 0.0119526)
(0.0114447 0.716564 0.0134173)
(0.0133486 0.714342 0.0151851)
(0.0145807 0.709415 0.0169027)
(0.0150438 0.704284 0.018374)
(0.0151221 0.696554 0.0193637)
(0.0144872 0.687106 0.019878)
(0.0133299 0.675961 0.019616)
(0.0121195 0.664136 0.0187358)
(0.0110993 0.653902 0.0172065)
(0.0106364 0.640612 0.0148815)
(0.00995035 0.627249 0.0119491)
(0.0091109 0.619985 0.00879027)
(0.00800305 0.615292 0.00667869)
(0.00695475 0.607566 0.00547656)
(0.00674537 0.599332 0.00549242)
(0.00639004 0.590887 0.00579047)
(0.00586888 0.583178 0.00728881)
(0.00420926 0.572896 0.00996323)
(0.000669246 0.553418 0.0125808)
(-0.00464931 0.529228 0.0148489)
(-0.0110569 0.505731 0.015011)
(-0.0197434 0.485384 0.0111172)
(-0.0278795 0.462319 0.00178392)
(-0.0340939 0.444657 -0.0161022)
(0.0065179 0.00899099 -0.00233033)
(0.0266598 0.0302659 0.00763988)
(0.0112646 0.012372 0.00212817)
(0.0184093 0.0234246 0.00372068)
(0.0130082 0.00583679 0.00140046)
(0.010654 0.00826116 0.000306446)
(0.00138475 -0.00183815 -0.00171803)
(-0.000697468 0.00341004 -0.00200375)
(-0.00379005 -0.000486858 -0.00115108)
(-0.00510965 0.00208586 -0.000475132)
(-0.00648759 -0.000211536 -9.06389e-05)
(-0.00724963 0.000545911 0.000764045)
(-0.00769965 -0.000697454 0.00148933)
(-0.00713509 -0.000148893 0.00236406)
(-0.00709708 -0.000276296 0.00309397)
(-0.00716538 0.000431885 0.00371217)
(-0.0075732 0.000697211 0.00417203)
(-0.00791382 0.00121481 0.00445652)
(-0.00825965 0.0014577 0.00456887)
(-0.00844957 0.00176202 0.00458443)
(-0.0085423 0.00193759 0.00452267)
(-0.00854235 0.00209442 0.00444003)
(-0.008517 0.00218031 0.00435474)
(-0.0084731 0.00223495 0.00428096)
(-0.0084193 0.00225356 0.0042167)
(-0.00834915 0.00225355 0.00416446)
(-0.00826222 0.00224462 0.00412447)
(-0.00816182 0.00223593 0.00409673)
(-0.00806224 0.00223163 0.0040793)
(-0.00799442 0.00223798 0.00407008)
(-0.00796592 0.00227177 0.00406473)
(-0.0079566 0.00233217 0.00405473)
(-0.00795769 0.00245683 0.00403468)
(-0.00794869 0.00257147 0.0039996)
(-0.00787136 0.00278365 0.0039477)
(-0.00776996 0.00287008 0.0038832)
(-0.00756962 0.00312936 0.00380615)
(-0.00740227 0.00306791 0.00371606)
(-0.00717428 0.00330826 0.00360091)
(-0.00705347 0.00291753 0.00346903)
(-0.00672 0.00308186 0.00332187)
(-0.00633554 0.0022515 0.00318259)
(-0.00548303 0.00241924 0.00307199)
(-0.00465169 0.00117302 0.00319227)
(-0.00373718 0.00139134 0.00328025)
(-0.00279902 -0.00102632 0.00262548)
(-0.00114682 0.00143551 0.00222912)
(-1.77208e-05 0.00191597 0.00254689)
(-0.00298327 0.00916707 0.00548925)
(-0.0137286 0.0156394 0.0146437)
(-0.0286707 0.0273426 0.0261315)
(-0.0340367 0.0371231 0.0311589)
(-0.0332527 0.0597303 0.0300188)
(-0.0196076 0.0706739 0.0260061)
(0.000617834 0.116149 0.0339984)
(0.03686 0.0833248 0.0401082)
(0.0734452 0.18317 0.0598259)
(0.0990826 -0.0272991 0.0658786)
(0.179548 0.418372 0.0342591)
(-0.0475898 -0.102381 0.0195633)
(-0.121764 0.580113 0.0229352)
(-0.0517346 0.678258 -0.00724483)
(-0.0467084 0.637407 0.00269278)
(-0.0230252 0.674536 0.00393114)
(-0.0179843 0.65251 0.00879016)
(-0.00704878 0.654457 0.00543516)
(-0.00646073 0.644671 0.00448695)
(-0.00281454 0.643126 0.00288769)
(-0.000658001 0.640919 0.00245447)
(0.00231739 0.640215 0.00184722)
(0.00360686 0.639053 0.000797143)
(0.00488953 0.640005 0.00099439)
(0.00631829 0.639473 0.00171673)
(0.00864687 0.640842 0.00330326)
(0.0111369 0.64206 0.00507656)
(0.0132995 0.642334 0.00686032)
(0.0143947 0.639264 0.00788091)