/*--------------------------------*- C++ -*----------------------------------*\
| =========                 |                                                 |
| \\      /  F ield         | OpenFOAM: The Open Source CFD Toolbox           |
|  \\    /   O peration     | Version:  2.3.0                                 |
|   \\  /    A nd           | Web:      www.OpenFOAM.org                      |
|    \\/     M anipulation  |                                                 |
\*---------------------------------------------------------------------------*/
FoamFile
{
    version     2.0;
    format      ascii;
    class       volVectorField;
    location    "52";
    object      U.air;
}
// * * * * * * * * * * * * * * * * * * * * * * * * * * * * * * * * * * * * * //

dimensions      [0 1 -1 0 0 0 0];

internalField   nonuniform List<vector> 
6144
(
(0.0115242 0.0217151 -0.000461757)
(0.012183 -0.00246616 -0.00183867)
(0.00460319 -0.00451356 -0.00300404)
(0.00354041 -0.00391044 -0.0027457)
(0.00173673 -0.00211355 -0.00186612)
(0.00283752 0.000957637 -0.00159791)
(0.00322271 0.000399405 -0.00138692)
(0.00321455 0.00126608 -0.00121106)
(0.00258245 0.000665122 -0.000971621)
(0.00200629 0.00187723 -0.000502608)
(0.00150831 0.00288563 3.00511e-05)
(0.00141099 0.00404745 0.000721647)
(0.00148373 0.00425048 0.00116229)
(0.00160993 0.00385695 0.00157344)
(0.00164789 0.00302267 0.00168861)
(0.00171967 0.00218883 0.00165976)
(0.00178573 0.0012983 0.00147374)
(0.0018562 0.000548311 0.00122804)
(0.00192333 -5.97546e-05 0.00096597)
(0.00197949 -0.000478662 0.000727649)
(0.00201729 -0.000734424 0.000517422)
(0.00205163 -0.000821089 0.000330261)
(0.00206524 -0.000802062 0.00023153)
(0.00205763 -0.000725475 0.000218597)
(0.00202783 -0.000626761 0.00027707)
(0.00198272 -0.000529729 0.000394403)
(0.00193345 -0.000461282 0.000544724)
(0.0018907 -0.000451731 0.000701954)
(0.00184529 -0.000516846 0.00086156)
(0.00179899 -0.000641859 0.0010068)
(0.00175507 -0.00081353 0.00114337)
(0.00171639 -0.00104059 0.00128376)
(0.00168235 -0.00134408 0.00143361)
(0.00165279 -0.00174632 0.00159282)
(0.00162998 -0.00226963 0.00175413)
(0.0016192 -0.00293323 0.00190059)
(0.00162726 -0.00374 0.00199797)
(0.00165896 -0.00465493 0.00200393)
(0.00170823 -0.00559954 0.00185721)
(0.00174208 -0.00640084 0.00141356)
(0.0017308 -0.0068257 0.000832257)
(0.0016198 -0.00656019 4.66861e-06)
(0.00176425 -0.00600283 -0.000343058)
(0.00348215 -0.00687977 -0.000243842)
(0.0070818 -0.0125301 -0.000685684)
(0.00921416 -0.0187946 -0.00370752)
(0.00698212 -0.0205325 -0.00511956)
(0.00363029 -0.0186286 -0.00566955)
(0.0014566 -0.00917909 -0.00538293)
(0.00948111 0.0033085 -0.00902113)
(0.030456 0.011337 -0.0169054)
(0.0350387 -0.0110774 -0.0196776)
(0.0328994 -0.0303543 -0.0333359)
(0.0409199 -0.0514926 -0.0356047)
(0.033118 -0.0430709 -0.0270302)
(0.0332102 -0.0845784 -0.0132913)
(-0.0136822 -0.0342119 -0.0183878)
(-0.0133973 -0.0357537 0.0294687)
(-0.0250158 -0.0181706 -0.0320074)
(0.0666833 0.180774 0.0220635)
(0.165296 0.253609 0.00280415)
(0.0609841 0.389281 -0.0112543)
(0.00671681 0.086783 -0.00469007)
(0.0706848 -0.202243 0.00398133)
(0.0601786 -0.220756 0.0062891)
(0.0498634 -0.226373 0.00824139)
(0.0450816 -0.23464 0.0125426)
(0.0432244 -0.241367 0.01401)
(0.0395145 -0.251752 0.0160288)
(0.0390555 -0.257422 0.0172199)
(0.0330141 -0.262396 0.0161764)
(0.027688 -0.261523 0.0146229)
(0.0233208 -0.259394 0.00965386)
(0.0140094 -0.251059 0.00627965)
(0.0173161 -0.233755 0.00322825)
(0.00288953 -0.214428 -0.00261698)
(0.00205403 -0.181437 -0.00101797)
(0.0159055 -0.142219 0.00179972)
(-0.00634233 -0.0975712 -0.00702131)
(-0.00441259 -0.0624264 -0.00567531)
(0.0148695 -0.0549075 0.00586845)
(0.0189206 -0.0603836 0.0103526)
(0.0139946 -0.0690824 0.0086192)
(0.00986473 -0.079318 0.00897432)
(0.00518627 -0.0913716 0.00655771)
(0.00204035 -0.0991891 0.00608783)
(0.000838547 -0.108643 0.00582614)
(0.000362899 -0.114261 0.00775248)
(-0.0036688 -0.11887 0.00870915)
(-0.0050773 -0.117526 0.00918269)
(-0.00714566 -0.112355 0.00870625)
(-0.00739733 -0.100863 0.00878725)
(-0.00843559 -0.085014 0.0094103)
(-0.0135716 -0.0690406 -0.00926764)
(-0.0129701 -0.0126894 -0.00533288)
(-0.0106313 0.00274199 0.0256415)
(0.0213174 0.0214663 0.00337429)
(0.023245 0.00668599 0.00243754)
(0.0116369 0.0020907 -0.00179051)
(0.00951809 0.00100141 -0.000859236)
(0.00423278 -0.00230097 0.000927973)
(0.00497781 -6.79946e-06 0.00132782)
(0.00513524 -0.000487404 0.00188018)
(0.0049559 0.00138497 0.00218242)
(0.00388609 0.00114955 0.00235405)
(0.00273432 0.00297937 0.00242296)
(0.00209298 0.00407896 0.00268994)
(0.00222741 0.00513641 0.00336049)
(0.00254286 0.00514356 0.00388664)
(0.00295761 0.00475093 0.00420674)
(0.00309791 0.00388985 0.00430078)
(0.0032423 0.00304408 0.00431635)
(0.00332628 0.00210044 0.00426206)
(0.00339117 0.00128866 0.00418622)
(0.00344133 0.000583506 0.00410766)
(0.00347169 5.39848e-05 0.00404891)
(0.00346986 -0.000315443 0.00401351)
(0.00348011 -0.000505673 0.00393505)
(0.00346264 -0.00058952 0.00391078)
(0.00341225 -0.000597511 0.00394213)
(0.0033266 -0.000565452 0.00401992)
(0.0032207 -0.00051523 0.00413132)
(0.0031197 -0.000468649 0.00425064)
(0.00305038 -0.000457382 0.00433511)
(0.00298519 -0.000511799 0.00442684)
(0.0029177 -0.000623642 0.00451758)
(0.00285762 -0.000792747 0.00460689)
(0.00281855 -0.00103147 0.00469774)
(0.0028052 -0.00136069 0.00479235)
(0.00282012 -0.00180104 0.00489069)
(0.00286957 -0.00236914 0.0049858)
(0.00295697 -0.00306721 0.00506733)
(0.00307614 -0.00387544 0.00511934)
(0.00321765 -0.00475468 0.00513343)
(0.00332744 -0.00567734 0.0050912)
(0.00342337 -0.00644393 0.00477025)
(0.00359863 -0.00696476 0.00386451)
(0.00404655 -0.00756242 0.00312298)
(0.00544551 -0.00973957 0.00336481)
(0.00952763 -0.0158285 0.00427276)
(0.0145916 -0.0233231 0.00336904)
(0.0145346 -0.0260782 -0.00223284)
(0.0130513 -0.0232827 -0.00407911)
(0.0066408 -0.0221145 -0.0031788)
(-0.000611193 -0.0157159 -0.00439851)
(0.0108619 -0.00702583 -0.0125524)
(0.0552523 0.017691 -0.031262)
(0.0850745 0.0285684 -0.0325167)
(0.0990412 0.0193159 -0.0316354)
(0.092917 -0.000644263 -0.0172226)
(0.0793366 0.0173209 0.00714041)
(0.0603632 -0.0679415 0.0210152)
(-0.0210725 0.0146916 0.0279702)
(-0.0105911 -0.144696 0.077252)
(-0.145637 -0.00286116 -0.0424156)
(0.0947096 0.0612424 0.00603468)
(0.141726 0.331937 0.0406243)
(-0.0214931 0.453898 0.0214141)
(-0.0328911 -0.112564 0.0171987)
(-0.0077124 -0.0646858 0.0238791)
(-0.0109357 -0.0982269 0.0241533)
(-0.0120655 -0.131887 0.0300828)
(-0.0200365 -0.15143 0.0335029)
(-0.0286478 -0.168486 0.0332996)
(-0.0369136 -0.185604 0.0327746)
(-0.0431633 -0.197208 0.0335682)
(-0.0437638 -0.204977 0.032807)
(-0.046801 -0.207473 0.0307162)
(-0.0486959 -0.206362 0.0241095)
(-0.0517353 -0.198452 0.0132468)
(-0.0551965 -0.186731 0.0146718)
(-0.0436715 -0.171323 0.0193893)
(-0.0436636 -0.148799 0.0140297)
(-0.052368 -0.0902463 -0.0161161)
(-0.0259094 -0.0411997 -0.00993886)
(-0.00481386 -0.0334015 0.0273173)
(-0.00759558 -0.0336266 0.0420436)
(-0.00907483 -0.0354771 0.0354153)
(-0.00348657 -0.0476257 0.0282871)
(0.003899 -0.0537307 0.0177906)
(0.00760413 -0.0584226 0.00707147)
(0.0100072 -0.0644142 0.00246714)
(0.00883778 -0.070607 0.00244575)
(0.00526843 -0.0807783 0.00241452)
(0.000194253 -0.0860341 0.000404014)
(-0.00815352 -0.0933792 0.00375056)
(-0.016546 -0.0929632 0.00400388)
(-0.0205094 -0.0851122 0.00550031)
(-0.0295572 -0.0715113 0.00689611)
(-0.0318657 -0.0597183 -0.00970147)
(-0.0325717 -0.0129413 -0.00512189)
(-0.0299449 -0.000286614 0.0284437)
(0.024389 0.020727 0.00436672)
(0.0275546 0.0124249 0.0042583)
(0.0172539 0.00630244 0.000870658)
(0.0142206 0.00537525 0.00202228)
(0.00575083 -0.000930856 0.00339707)
(0.00467587 0.000805406 0.00313852)
(0.00360052 -3.4042e-06 0.00403943)
(0.00307418 0.00212111 0.00398821)
(0.00184341 0.00195468 0.00401537)
(0.0010278 0.0033602 0.0039552)
(0.000568428 0.0037458 0.00406278)
(0.00103933 0.00450866 0.00439107)
(0.00152205 0.00443783 0.00471013)
(0.00201062 0.00434178 0.00494898)
(0.00217766 0.00384195 0.0050004)
(0.00235776 0.00335585 0.00500596)
(0.00245796 0.00272935 0.00497203)
(0.00253504 0.00215863 0.00493509)
(0.00257598 0.00159661 0.00489666)
(0.00259063 0.00112536 0.00487918)
(0.00256448 0.000720933 0.00488295)
(0.00248992 0.000405448 0.00491956)
(0.00239969 0.00017013 0.00497269)
(0.00229379 7.74055e-06 0.00503083)
(0.00216733 -0.000102516 0.00509175)
(0.00203485 -0.000178478 0.00515505)
(0.0019117 -0.000240586 0.00522354)
(0.00180344 -0.000299531 0.00530012)
(0.00171094 -0.000369533 0.00538143)
(0.00162413 -0.00046775 0.00546616)
(0.00155422 -0.000608133 0.0055537)
(0.00152359 -0.000805415 0.00564091)
(0.00154204 -0.00107177 0.00572744)
(0.00161139 -0.00141232 0.00581021)
(0.00173531 -0.00182651 0.00587866)
(0.00191137 -0.00230367 0.00591417)
(0.00213825 -0.00282229 0.00589612)
(0.00243954 -0.00335344 0.00582096)
(0.00279741 -0.00390815 0.00565349)
(0.0030834 -0.00438108 0.00532737)
(0.00377105 -0.00472972 0.0045051)
(0.00557821 -0.00559581 0.00404943)
(0.00945257 -0.00837893 0.00478221)
(0.015423 -0.0141794 0.00656531)
(0.0194054 -0.0143152 0.00455403)
(0.0186485 -0.0121123 -0.000289724)
(0.0157272 -0.0101963 -0.00300882)
(0.013606 -0.0135743 0.000222598)
(0.00463328 -0.0174694 -0.000979891)
(0.0117057 -0.0150845 -0.0098824)
(0.0642425 0.0161312 -0.0251214)
(0.11193 0.0445561 -0.018856)
(0.127255 0.0552659 -0.0171131)
(0.106536 0.0687397 -0.0033441)
(0.0597888 0.0686574 0.0273144)
(0.00261849 -0.00557753 0.0270814)
(-0.0913579 0.0940688 0.0462907)
(-0.0577335 -0.199639 0.0657161)
(-0.200678 0.105272 -0.0375977)
(0.13651 -0.0311653 0.0153333)
(0.189261 0.38751 0.0285522)
(0.0844926 0.477223 0.0277789)
(0.111637 -0.106057 0.0552513)
(0.0476428 -0.00584269 0.0400843)
(0.021581 -0.0745498 0.0315321)
(0.0240022 -0.100622 0.0364421)
(0.0151879 -0.128503 0.0306044)
(0.00283374 -0.154344 0.0216125)
(-0.011393 -0.172161 0.0157343)
(-0.0246467 -0.180989 0.0151218)
(-0.0349061 -0.187402 0.0168044)
(-0.0460569 -0.191042 0.0128602)
(-0.0493519 -0.188414 0.00248668)
(-0.0457731 -0.176793 -0.0040102)
(-0.0510569 -0.155998 -0.00327226)
(-0.0649324 -0.118719 -0.0174569)
(-0.0665913 -0.0429795 -0.021642)
(-0.0494902 0.000279739 0.00543215)
(-0.0405853 0.00316373 0.0331203)
(-0.0364704 0.00120855 0.0398994)
(-0.0289203 -0.0126751 0.0363442)
(-0.00782526 -0.0243401 0.0302376)
(0.0127754 -0.0173321 0.00174304)
(0.0205492 -0.00444782 -0.0157255)
(0.0257189 0.00404378 -0.0163526)
(0.0308121 0.0053069 -0.0148557)
(0.0328312 0.00115937 -0.0126801)
(0.0314891 -0.00956117 -0.00938097)
(0.0223269 -0.0175357 -0.00628536)
(0.00621164 -0.033053 -0.002302)
(-0.00708201 -0.0443406 0.00024684)
(-0.0199237 -0.0477683 0.00704618)
(-0.0297043 -0.0490424 0.00362754)
(-0.0405827 -0.0393007 -0.01671)
(-0.051778 0.0106065 0.00163307)
(-0.0502637 -0.00105757 0.0295727)
(0.0251721 0.0205823 0.00452302)
(0.0295783 0.0161388 0.00464779)
(0.0204334 0.00864984 0.000530562)
(0.0187652 0.00924677 0.000808605)
(0.0085517 0.00114269 0.00160096)
(0.00475866 0.00238501 0.00216639)
(0.00211674 0.000562964 0.00406464)
(0.00144933 0.00263943 0.00422859)
(0.000221173 0.00165623 0.00428145)
(-0.000514664 0.00263167 0.00416607)
(-0.000857132 0.00256248 0.00428272)
(-0.00031741 0.00325763 0.00464341)
(8.87048e-05 0.00344156 0.0049173)
(0.000599872 0.00369476 0.00511849)
(0.000833313 0.00348424 0.00515357)
(0.00103606 0.00325556 0.00518476)
(0.00113307 0.00282725 0.00519392)
(0.00119727 0.00242617 0.00521253)
(0.00120932 0.00198736 0.00521359)
(0.00119586 0.00159166 0.00521299)
(0.00113709 0.00122031 0.0052129)
(0.00104684 0.000887161 0.00522612)
(0.00092896 0.000590135 0.00525192)
(0.000794263 0.000348158 0.00528228)
(0.000651236 0.000159006 0.00531732)
(0.000511735 1.74864e-05 0.00535994)
(0.000391024 -8.94084e-05 0.00540629)
(0.000299139 -0.000178432 0.00545523)
(0.000226724 -0.000263918 0.0055112)
(0.000168949 -0.000357171 0.00557713)
(0.000139791 -0.000465735 0.00565199)
(0.0001574 -0.000595358 0.00572589)
(0.000228256 -0.000745598 0.0057912)
(0.000362952 -0.000910499 0.0058379)
(0.000572574 -0.00108951 0.0058491)
(0.000862346 -0.00127517 0.00580072)
(0.00123747 -0.00145126 0.00567575)
(0.00172673 -0.00159534 0.00546916)
(0.00230974 -0.00168715 0.00514409)
(0.00292428 -0.00174134 0.00462005)
(0.00439987 -0.00192894 0.00379772)
(0.00690634 -0.002775 0.00352339)
(0.0107952 -0.0041153 0.00422101)
(0.0137558 -0.00352686 0.00556566)
(0.0156167 -0.000880506 0.00581382)
(0.0187069 0.00104797 0.00346865)
(0.0199957 0.000476409 0.000560862)
(0.0160111 -0.00223196 0.00547514)
(0.00647658 -0.00981936 0.00715497)
(0.00640963 -0.0156697 -0.00684259)
(0.0515483 0.0274666 -0.0165417)
(0.107337 0.0710929 -0.0178078)
(0.12862 0.100544 -0.015877)
(0.122084 0.128748 -0.00620178)
(0.0987749 0.123132 0.0152416)
(0.0729586 0.0615496 0.0487141)
(0.0825146 0.110764 0.110803)
(0.0831978 -0.235129 0.136061)
(-0.214368 0.232214 0.0328998)
(0.0888686 -0.0994724 0.0141881)
(0.198464 0.495809 0.0295809)
(0.062574 0.633018 0.0273119)
(0.0669425 0.316893 0.0475659)
(-0.00977259 0.131014 0.0176164)
(0.0230893 0.115773 0.0318343)
(0.0106783 -0.0353328 0.0244267)
(-0.00559532 -0.0915539 0.00879432)
(-0.0109352 -0.102092 -0.00884305)
(-0.0111818 -0.102646 -0.0120784)
(-0.0124717 -0.10146 -0.00749106)
(-0.0199061 -0.105378 -0.0013177)
(-0.0309478 -0.112229 -0.00786441)
(-0.0419736 -0.102864 -0.0234427)
(-0.0582091 -0.0421214 -0.0262496)
(-0.0816305 0.220227 -0.0225559)
(-0.0851842 0.0571364 -0.00978159)
(-0.0734215 0.0551149 0.0219333)
(-0.0575206 0.0463175 0.0391478)
(-0.0508317 0.0288746 0.0364538)
(-0.0396964 0.0132978 0.0270151)
(-0.0238585 0.0138431 0.000637512)
(-0.0136903 0.0406465 -0.0247082)
(0.00281049 0.0794976 -0.0149382)
(0.0179514 0.0793675 0.00269911)
(0.0275321 0.0760456 0.00495349)
(0.0320668 0.072691 0.00641998)
(0.0342866 0.0634133 0.0114644)
(0.0313556 0.0547619 0.013992)
(0.0221908 0.0407358 0.0160286)
(0.00369951 0.0202833 0.0149618)
(-0.0109905 0.0118107 0.0154042)
(-0.0265829 -0.00582663 0.00738554)
(-0.0463195 -0.00718384 -0.0108224)
(-0.0577405 0.0101571 -0.0110393)
(-0.0501043 0.0276256 0.0138113)
(-0.0538156 0.00472428 0.0287975)
(0.0250981 0.0205618 0.00435946)
(0.0313692 0.0196827 0.00519246)
(0.0227461 0.011022 0.000882251)
(0.0236619 0.0127662 0.000576666)
(0.0130744 0.00397349 -0.00134718)
(0.00679291 0.00483475 -0.00065313)
(0.00133774 0.000284469 0.00280392)
(0.000146055 0.00287449 0.00352295)
(-0.00111649 0.00119987 0.00379909)
(-0.00188222 0.00191826 0.00395766)
(-0.00253147 0.0015215 0.00415949)
(-0.00236379 0.00224992 0.00455979)
(-0.00217917 0.00262105 0.00476174)
(-0.00161193 0.00313449 0.0049526)
(-0.0013619 0.00311853 0.0049569)
(-0.00115087 0.00300813 0.00501469)
(-0.00110763 0.00267287 0.00506117)
(-0.00113783 0.00236787 0.00512699)
(-0.00121489 0.00203617 0.00515653)
(-0.00129786 0.00172925 0.00515797)
(-0.00139025 0.00141407 0.00513241)
(-0.00149202 0.00109808 0.00510335)
(-0.00160203 0.000790865 0.00507704)
(-0.00172041 0.000518503 0.00506068)
(-0.0018495 0.000285138 0.00505528)
(-0.00197706 9.48387e-05 0.00505662)
(-0.00207747 -5.6702e-05 0.00506807)
(-0.00214168 -0.000177571 0.00508967)
(-0.00218391 -0.000274968 0.00511957)
(-0.00221735 -0.000354486 0.00516042)
(-0.00222856 -0.000412216 0.00521353)
(-0.0021907 -0.000443484 0.00526384)
(-0.00209803 -0.000441509 0.00529943)
(-0.00193915 -0.000386131 0.00530383)
(-0.00169619 -0.000263802 0.00525615)
(-0.00136952 -5.86206e-05 0.00513274)
(-0.000948354 0.000239975 0.00490742)
(-0.000375395 0.00062024 0.00458491)
(0.000473311 0.00105674 0.0042009)
(0.00185203 0.00144863 0.00388319)
(0.00426381 0.00140749 0.00391009)
(0.00684449 0.000527491 0.00418993)
(0.00908767 0.000584995 0.00447461)
(0.0113315 0.0032738 0.00504371)
(0.0146441 0.00649681 0.00651333)
(0.0178265 0.0089501 0.00691923)
(0.016787 0.01218 0.006424)
(0.0128458 0.0108993 0.0122455)
(0.00720747 0.000436907 0.018508)
(-0.00383284 -0.0146994 0.0028548)
(0.0269761 0.028754 -0.00842589)
(0.0911575 0.0753198 -0.00620138)
(0.11355 0.112027 -0.0147673)
(0.0914183 0.167021 -0.0122408)
(0.0482902 0.224524 -0.0240348)
(-0.0151349 0.273966 -0.0233179)
(-0.0722148 0.260425 0.0106404)
(-0.135611 0.201477 0.0449977)
(-0.284378 0.504387 0.0315009)
(0.0889101 -0.164475 -0.0108092)
(0.224175 0.554912 0.0180763)
(0.0742089 0.633173 0.0260407)
(0.0871984 0.558493 0.026856)
(0.0418074 0.573483 0.00717454)
(0.040345 0.529867 0.00748762)
(0.0205424 0.527122 -0.00580043)
(0.0238814 0.548083 -0.00958832)
(0.0163516 0.573185 -0.00587318)
(-0.00671412 0.571142 0.00635545)
(-0.0246371 0.578519 0.00170956)
(-0.0404918 0.574398 0.000279126)
(-0.053733 0.58437 0.000310228)
(-0.0630063 0.591604 0.00461144)
(-0.0702177 0.613244 0.00581076)
(-0.0723816 0.620952 0.00789552)
(-0.0671507 0.604016 0.0154556)
(-0.0607901 0.600362 0.0201033)
(-0.0555329 0.595351 0.0165719)
(-0.0433273 0.60724 0.00600624)
(-0.0281334 0.627496 0.00165971)
(-0.0153045 0.647056 -0.00288661)
(0.00260048 0.651734 0.000358346)
(0.0139458 0.649823 -0.000623064)
(0.0219009 0.633525 -0.00383511)
(0.02711 0.595736 0.000119948)
(0.033916 0.500829 -0.00144426)
(0.0355064 0.29676 0.00136463)
(0.0367307 0.115826 0.000956569)
(0.0272546 0.0798923 0.00198104)
(0.0112962 0.0697181 0.00109481)
(-0.00558498 0.0615392 -0.00071814)
(-0.0211203 0.0549794 -0.00471467)
(-0.034595 0.04915 -0.00623966)
(-0.0406462 0.0391816 0.00817492)
(-0.0401159 0.0295241 0.0143206)
(-0.0521262 0.0123462 0.0281636)
(0.0233455 0.0195931 0.004317)
(0.0323556 0.0235587 0.00671105)
(0.0234362 0.0129526 0.002651)
(0.025937 0.015186 0.00259246)
(0.0183361 0.00491933 -0.00166294)
(0.0118143 0.00642588 -0.00293959)
(0.00188106 -0.000936552 0.000533355)
(-0.00131989 0.00267931 0.00190982)
(-0.00212335 0.000370592 0.00266509)
(-0.00327577 0.00122252 0.00319923)
(-0.00393967 0.000523404 0.00345471)
(-0.00374241 0.00139475 0.00395903)
(-0.00346732 0.00196535 0.00419219)
(-0.00267043 0.00274096 0.00455574)
(-0.00212724 0.00271199 0.00472126)
(-0.00179787 0.00259522 0.00495298)
(-0.00174306 0.00224413 0.00511019)
(-0.00185778 0.00198705 0.00522315)
(-0.00201508 0.00176811 0.00525758)
(-0.00215467 0.00160649 0.00523027)
(-0.00228419 0.00143651 0.00514322)
(-0.00240972 0.00124454 0.00502696)
(-0.0025517 0.00103106 0.00490378)
(-0.00269297 0.000817009 0.00478593)
(-0.00282254 0.000616718 0.00468037)
(-0.00292476 0.00045088 0.00458841)
(-0.00299381 0.000313111 0.00451165)
(-0.00302912 0.000191484 0.00445634)
(-0.00304776 8.77294e-05 0.00442747)
(-0.00306195 1.52316e-05 0.00442862)
(-0.00306426 6.4692e-08 0.00445168)
(-0.00303241 6.08488e-05 0.00446989)
(-0.00296354 0.000215247 0.00446279)
(-0.00284666 0.000488008 0.00440304)
(-0.00265732 0.000875037 0.00426562)
(-0.00237853 0.00135867 0.00403861)
(-0.00191707 0.00190274 0.00374322)
(-0.00113012 0.00247122 0.00347541)
(0.000134282 0.00301134 0.00335694)
(0.00207178 0.00334487 0.00357307)
(0.0048046 0.00340277 0.00432409)
(0.0069242 0.00325548 0.00522338)
(0.00721909 0.00393469 0.00519213)
(0.00788421 0.00733577 0.00466313)
(0.0108303 0.012382 0.00685109)
(0.013123 0.0176104 0.00912629)
(0.0114692 0.0237034 0.0101448)
(0.00979909 0.0238996 0.0137159)
(0.00618967 0.0106883 0.0191427)
(-0.0120666 -0.00637625 0.0130509)
(-0.00668988 -0.00243955 0.00709094)
(0.0646332 0.0469093 0.0052454)
(0.0977401 0.0890272 -0.00111072)
(0.0977795 0.120471 0.00492865)
(0.106582 0.140256 -0.00169337)
(0.111055 0.168059 -0.0133447)
(0.0858436 0.204224 -0.0359577)
(0.137158 0.156429 -0.0434682)
(0.177988 0.527078 -0.0800263)
(0.0588718 -0.159915 -0.0272906)
(0.224173 0.597307 0.00923633)
(0.0684843 0.649157 0.0165033)
(0.0626142 0.63058 0.0172667)
(0.0315392 0.63558 0.0114094)
(0.027245 0.6138 0.00742911)
(0.0110039 0.611756 0.000150949)
(0.00196427 0.629181 0.00389922)
(0.00653205 0.642534 0.00842951)
(0.00244968 0.651219 0.00981548)
(0.000921912 0.656415 0.00769428)
(-0.0132316 0.659232 0.00738331)
(-0.027806 0.662664 0.00495839)
(-0.0423625 0.668967 0.00356816)
(-0.0523136 0.674293 -0.00153943)
(-0.0601514 0.681195 -0.000601192)
(-0.0620326 0.692222 0.000655771)
(-0.0588401 0.706934 0.00207471)
(-0.0500894 0.71536 0.00210198)
(-0.0391086 0.719638 0.00364465)
(-0.0273955 0.720697 0.00403275)
(-0.0134414 0.717186 0.0119792)
(-0.00222866 0.714022 0.012683)
(0.00914819 0.711742 0.0144991)
(0.0148859 0.700791 0.012605)
(0.0221978 0.694067 0.0114899)
(0.0253485 0.680521 0.00786026)
(0.0261098 0.6679 0.00421298)
(0.0231064 0.650586 0.00112915)
(0.0134387 0.621724 -0.00458695)
(0.00274169 0.564756 -0.00790537)
(-0.00527627 0.380695 -0.0077683)
(-0.00831204 0.0847698 -0.0057083)
(-0.0159526 0.0488403 -5.43672e-05)
(-0.0223998 0.0325864 0.0125486)
(-0.029776 0.0278169 0.0172927)
(-0.0464211 0.0145653 0.031088)
(0.0201347 0.0173113 0.00480976)
(0.0327811 0.0273566 0.0093826)
(0.0227821 0.0144515 0.00524291)
(0.0255132 0.0174522 0.00555345)
(0.0207012 0.00481814 0.00103957)
(0.0164818 0.00655056 -0.00106378)
(0.0032448 -0.0024498 -0.000591396)
(-0.00219899 0.00249098 0.000632419)
(-0.00332346 -0.000212644 0.00179788)
(-0.00455976 0.00106961 0.00261166)
(-0.00562202 0.000183165 0.00272602)
(-0.00613923 0.00107081 0.00338274)
(-0.00620528 0.00154634 0.00382775)
(-0.00505232 0.00221792 0.00463883)
(-0.00437603 0.00205436 0.0051088)
(-0.00408198 0.00193263 0.00555631)
(-0.00417965 0.00163341 0.00581414)
(-0.00452989 0.00148516 0.00593201)
(-0.00489687 0.00141514 0.00591785)
(-0.00515921 0.00143248 0.00582377)
(-0.00532274 0.00145599 0.00564965)
(-0.00542555 0.00146269 0.00543643)
(-0.00550005 0.00143614 0.0052135)
(-0.00556068 0.0013781 0.00500444)
(-0.00563427 0.00130815 0.0048312)
(-0.00569318 0.00124849 0.0046868)
(-0.00568529 0.00118512 0.00456589)
(-0.00563162 0.0011006 0.0044908)
(-0.00557582 0.00100844 0.00446013)
(-0.00555109 0.000947408 0.00447177)
(-0.0055474 0.000961278 0.00450596)
(-0.0055244 0.00107867 0.0045271)
(-0.00547867 0.00129965 0.00449692)
(-0.00536717 0.00163521 0.00439518)
(-0.0051164 0.00205393 0.00421807)
(-0.00470679 0.00250004 0.00397759)
(-0.00409699 0.00290349 0.0036809)
(-0.00321676 0.00323242 0.00342955)
(-0.00191664 0.00353676 0.003454)
(-8.53863e-05 0.00388175 0.0039704)
(0.00217109 0.00436669 0.004914)
(0.00349605 0.0051571 0.00543626)
(0.00310664 0.00712493 0.0048202)
(0.00284199 0.0107635 0.00362267)
(0.00378571 0.0162609 0.00488708)
(0.0038822 0.0229189 0.00767154)
(0.00296357 0.0293357 0.0092388)
(0.00573208 0.0302825 0.0122551)
(0.00992453 0.0148197 0.0196213)
(-0.00203972 -0.00277349 0.0275537)
(-0.0249865 -0.0119644 0.0426508)
(0.0280334 0.0355217 0.0226957)
(0.0769058 0.102139 0.0339981)
(0.0821369 0.123961 0.0445716)
(0.0826666 0.130114 0.0446333)
(0.0688167 0.114515 0.0600078)
(0.00781323 0.19875 0.113485)
(-0.0204452 -0.156842 0.0877082)
(0.172784 0.368361 -0.0692256)
(0.0461039 -0.0147422 -0.0374114)
(0.156598 0.687468 -0.0154021)
(0.0651636 0.729766 0.0172408)
(0.0641458 0.756825 0.0226844)
(0.0544153 0.756503 0.0275486)
(0.0531833 0.737976 0.0287556)
(0.0411594 0.725254 0.0168363)
(0.035312 0.716305 0.0126144)
(0.0228872 0.715654 0.00923054)
(0.00867786 0.729848 0.00218007)
(-0.00498793 0.74436 -0.00115462)
(-0.0186652 0.768155 -0.00390895)
(-0.0306125 0.779111 -0.00183594)
(-0.041818 0.790368 -0.00284805)
(-0.0498763 0.800992 -0.000789914)
(-0.0538067 0.811712 0.00100028)
(-0.0552324 0.813213 0.00291623)
(-0.0499179 0.815018 0.00622495)
(-0.0438044 0.809112 0.0097226)
(-0.0332042 0.802338 0.0142228)
(-0.0242356 0.793276 0.0202201)
(-0.014255 0.783083 0.0252994)
(-0.0012841 0.772907 0.026295)
(0.0095832 0.76544 0.0264885)
(0.0218957 0.752911 0.0229496)
(0.0318639 0.746966 0.0212954)
(0.0394355 0.734754 0.0191115)
(0.0433627 0.725512 0.0184538)
(0.0434776 0.709157 0.0182987)
(0.0370372 0.689721 0.0155761)
(0.0248316 0.659633 0.0152222)
(0.00973282 0.627346 0.0111237)
(-0.0062405 0.589016 0.0106618)
(-0.0196309 0.527968 0.0134895)
(-0.0334225 0.34728 0.017574)
(-0.0363239 0.0732447 0.0247028)
(-0.048081 0.451521 0.0333849)
(0.0165101 0.0111503 0.00478621)
(0.0314975 0.0302514 0.0113947)
(0.0210713 0.0152571 0.00598889)
(0.0248665 0.0211345 0.00576954)
(0.0213496 0.00576308 0.00251981)
(0.0179222 0.00608156 0.00160326)
(0.00379681 -0.00437282 -0.00079675)
(-0.00439214 0.00144915 -0.000547221)
(-0.00414221 -0.00169931 0.0022655)
(-0.00591119 0.00108927 0.00310221)
(-0.00632216 5.24114e-05 0.00341745)
(-0.00651898 0.00102566 0.00426966)
(-0.00618891 0.000547342 0.00489262)
(-0.00478948 0.000863815 0.00599457)
(-0.00400255 0.000624986 0.00676058)
(-0.00372643 0.000775489 0.00744729)
(-0.00387017 0.000839784 0.00785938)
(-0.00423285 0.00106998 0.00805106)
(-0.0045889 0.00127589 0.00805823)
(-0.00482747 0.00153909 0.0079576)
(-0.00498249 0.00178061 0.00775378)
(-0.0050812 0.00195995 0.00749287)
(-0.00514735 0.00207329 0.00721529)
(-0.00519478 0.00213103 0.00694464)
(-0.00523774 0.00213621 0.00669592)
(-0.0052537 0.00210326 0.0064848)
(-0.00520586 0.00204943 0.00632531)
(-0.00510842 0.00197547 0.00621113)
(-0.00501549 0.00189046 0.00613784)
(-0.00497674 0.00183644 0.00609883)
(-0.00498185 0.00187887 0.00606442)
(-0.00497187 0.00204388 0.00600945)
(-0.00493249 0.00232065 0.00591061)
(-0.00483145 0.00267419 0.0057373)
(-0.00458778 0.00301143 0.00548865)
(-0.00416767 0.00324602 0.00519457)
(-0.00347261 0.00335627 0.00490201)
(-0.00248891 0.003336 0.00476244)
(-0.0012981 0.00324942 0.0049007)
(0.000107311 0.00335208 0.00526305)
(0.0016158 0.00390008 0.00574932)
(0.00222869 0.00537268 0.00590126)
(0.000983024 0.00816941 0.0048357)
(5.24444e-05 0.0122512 0.00363962)
(-0.000350399 0.017358 0.00406717)
(-0.00157664 0.0237678 0.00604586)
(-0.00233338 0.026819 0.0072057)
(0.00505659 0.0243249 0.0108853)
(0.014907 0.00757001 0.0212953)
(-0.00564331 -0.0126219 0.0287696)
(-0.0288331 -0.00970061 0.0461248)
(-0.0327844 -0.00782854 0.0272856)
(0.0329535 0.0701579 0.0432015)
(0.0723465 0.115982 0.0602776)
(0.094689 0.128283 0.0631406)
(0.11424 0.105473 0.07467)
(0.151154 0.156121 0.112416)
(0.132217 -0.107454 0.106523)
(0.133627 0.0204056 -0.0613474)
(0.00430248 0.157814 -0.0539011)
(0.0141936 0.740475 -0.0579974)
(0.00752782 0.815232 0.00549422)
(0.022785 0.870291 0.00186694)
(0.0337021 0.886894 0.0190232)
(0.0418963 0.895811 0.0171804)
(0.041928 0.893579 0.0153341)
(0.0365033 0.889472 0.0122862)
(0.0291335 0.892915 0.00945478)
(0.0215605 0.890504 0.00624539)
(0.0116319 0.887844 0.00479897)
(0.00448347 0.883845 0.00199328)
(-0.00836753 0.876737 0.00144749)
(-0.0184981 0.874621 -0.00114931)
(-0.026198 0.864593 -0.000966642)
(-0.0310544 0.856498 -0.000327541)
(-0.0322178 0.844785 0.00233644)
(-0.0320389 0.833994 0.00866258)
(-0.0270249 0.817779 0.0150841)
(-0.0215947 0.803701 0.0234603)
(-0.0153933 0.788278 0.0313772)
(-0.00681347 0.776332 0.0343532)
(0.00410541 0.763112 0.0370412)
(0.0163102 0.755991 0.0358992)
(0.0261499 0.742447 0.033074)
(0.0350955 0.737874 0.029619)
(0.0399186 0.734514 0.0252651)
(0.0428262 0.734238 0.0196)
(0.0411683 0.737321 0.0121225)
(0.0360662 0.737642 0.00897582)
(0.0267249 0.733919 0.0140038)
(0.016159 0.716346 0.0248558)
(0.00125563 0.69647 0.0285661)
(-0.0103435 0.666741 0.0309935)
(-0.0235096 0.62728 0.0270514)
(-0.0328136 0.579796 0.0216314)
(-0.0392668 0.531491 0.00755169)
(0.00907267 0.000424853 0.00143271)
(0.0281612 0.0316527 0.0107045)
(0.018573 0.0156266 0.00437203)
(0.0234519 0.0256435 0.00339395)
(0.0218956 0.00916113 0.00157307)
(0.0192014 0.0075826 0.00220353)
(0.00398866 -0.00656544 -0.00540863)
(-0.00385465 -0.000281043 -0.00526666)
(-0.00721128 -0.00257669 -0.0017127)
(-0.00870906 0.00112879 3.78538e-05)
(-0.00913581 -0.00014608 0.000512727)
(-0.00903086 0.00066384 0.00152706)
(-0.00883509 -0.000366696 0.00217876)
(-0.00809341 -0.000116842 0.00300385)
(-0.00782854 -0.000236332 0.00363096)
(-0.00790829 0.000175474 0.0043003)
(-0.00824242 0.000464264 0.00485291)
(-0.00867355 0.000892115 0.00524611)
(-0.00908104 0.00123213 0.0054504)
(-0.00938683 0.00158773 0.00551252)
(-0.00945652 0.00190543 0.00544641)
(-0.00940589 0.00216529 0.00529819)
(-0.00930807 0.00235964 0.00511896)
(-0.00917889 0.00248607 0.0049379)
(-0.00904192 0.00254722 0.00476391)
(-0.0088888 0.002557 0.00460558)
(-0.0087011 0.00254059 0.00446926)
(-0.00848734 0.00251796 0.00435474)
(-0.00831231 0.00250182 0.00426275)
(-0.00826933 0.00250766 0.00419064)
(-0.00831033 0.00258898 0.00410992)
(-0.00834756 0.00276169 0.00400067)
(-0.0083122 0.00301593 0.00384825)
(-0.00808338 0.00331463 0.00363753)
(-0.00757861 0.00359013 0.00336387)
(-0.00686087 0.00382329 0.00303467)
(-0.00604273 0.00389244 0.00269419)
(-0.00505711 0.00371397 0.00240395)
(-0.00407693 0.00347791 0.00230578)
(-0.00321238 0.00349713 0.00238892)
(-0.00255658 0.00403843 0.00253893)
(-0.00274788 0.00563837 0.00206563)
(-0.00363028 0.00831292 0.000506541)
(-0.00415448 0.0119124 -0.000850006)
(-0.00533783 0.0156725 -0.00165925)
(-0.00691001 0.0212101 -0.00122001)
(-0.00693419 0.022884 0.00130862)
(0.00393855 0.0145785 0.00711618)
(0.0137601 9.68024e-05 0.0163542)
(-0.00547821 -0.0188225 0.0194658)
(-0.0233451 -0.0209718 0.0414787)
(-0.033095 -0.029443 0.0336822)
(-0.0433686 -0.0230326 0.00732966)
(0.0260712 0.0387148 0.00869601)
(0.0643686 0.0943016 0.0256358)
(0.0939181 0.0784373 0.0434343)
(0.134624 0.140397 0.0604558)
(0.151178 -0.041544 0.0457591)
(0.00359352 0.195056 -0.0412252)
(-0.0760805 0.0667692 -0.0799655)
(-0.100697 0.726232 -0.0704938)
(-0.012354 0.792775 -0.00854514)
(-0.00300588 0.841415 -0.00427171)
(0.0219946 0.850556 0.00729598)
(0.0305036 0.845033 0.00794854)
(0.036057 0.845117 0.003377)
(0.0362086 0.840962 0.000960002)
(0.0335789 0.834851 -0.00116297)
(0.028186 0.833754 0.000347876)
(0.0215995 0.830554 -0.000407838)
(0.0153295 0.824881 0.00128876)
(0.00668447 0.817032 0.00421605)
(0.00133947 0.804846 0.00692117)
(-0.00497304 0.793329 0.00921042)
(-0.00890701 0.77378 0.0117754)
(-0.013758 0.753688 0.01502)
(-0.0166964 0.733251 0.0201348)
(-0.019274 0.706764 0.0229357)
(-0.0192148 0.678987 0.0214494)
(-0.0167135 0.652477 0.0214057)
(-0.0110599 0.626722 0.0177057)
(-0.00146887 0.602025 0.0141468)
(0.0101312 0.572724 0.00826742)