/*--------------------------------*- C++ -*----------------------------------*\
| =========                 |                                                 |
| \\      /  F ield         | OpenFOAM: The Open Source CFD Toolbox           |
|  \\    /   O peration     | Version:  2.3.0                                 |
|   \\  /    A nd           | Web:      www.OpenFOAM.org                      |
|    \\/     M anipulation  |                                                 |
\*---------------------------------------------------------------------------*/
FoamFile
{
    version     2.0;
    format      ascii;
    class       volVectorField;
    location    "52";
    object      U.water;
}
// * * * * * * * * * * * * * * * * * * * * * * * * * * * * * * * * * * * * * //

dimensions      [0 1 -1 0 0 0 0];

internalField   nonuniform List<vector> 
6144
(
(0.0115244 0.0213625 -0.000461652)
(0.0121832 -0.00284785 -0.00183847)
(0.00460308 -0.00492927 -0.00300389)
(0.00354011 -0.00435512 -0.00274561)
(0.00173626 -0.00259202 -0.00186609)
(0.00283698 0.000430171 -0.00159787)
(0.00322215 -0.000186092 -0.00138688)
(0.00321401 0.000627574 -0.00121103)
(0.00258194 -1.25852e-05 -0.000971625)
(0.00200583 0.00117932 -0.000502617)
(0.00150791 0.00218264 3.00524e-05)
(0.00141066 0.00334495 0.000721646)
(0.00148346 0.00354907 0.00116228)
(0.00160972 0.00315648 0.00157343)
(0.00164773 0.00232303 0.00168861)
(0.00171956 0.00148996 0.00165976)
(0.00178565 0.000600098 0.00147374)
(0.00185615 -0.000149321 0.00122805)
(0.0019233 -0.0007569 0.000965987)
(0.00197948 -0.00117541 0.000727674)
(0.00201729 -0.00143085 0.000517453)
(0.00205165 -0.00151724 0.000330298)
(0.00206526 -0.00149799 0.00023157)
(0.00205766 -0.00142122 0.000218643)
(0.00202786 -0.00132237 0.000277117)
(0.00198276 -0.00122524 0.000394455)
(0.00193348 -0.00115674 0.000544777)
(0.00189074 -0.00114718 0.000702014)
(0.00184532 -0.00121232 0.000861621)
(0.00179903 -0.0013374 0.00100687)
(0.00175509 -0.00150919 0.00114344)
(0.00171642 -0.00173644 0.00128385)
(0.00168237 -0.00204018 0.0014337)
(0.00165281 -0.00244274 0.00159293)
(0.00162998 -0.00296648 0.00175425)
(0.0016192 -0.00363062 0.00190074)
(0.00162723 -0.00443808 0.00199814)
(0.00165892 -0.00535388 0.00200413)
(0.00170816 -0.00629956 0.00185743)
(0.00174202 -0.0071022 0.00141382)
(0.00173071 -0.00752873 0.00083257)
(0.00161975 -0.00726533 5.01647e-06)
(0.00176425 -0.00672145 -0.000342706)
(0.00348241 -0.00765895 -0.000243442)
(0.00708294 -0.0134445 -0.000685168)
(0.00921631 -0.019902 -0.00370717)
(0.00698402 -0.0218685 -0.00511903)
(0.00362996 -0.0202944 -0.00566864)
(0.00145505 -0.011512 -0.00538147)
(0.00948484 3.25153e-05 -0.00901668)
(0.0304794 0.0075124 -0.0169044)
(0.035074 -0.0149765 -0.0196659)
(0.0329504 -0.0342464 -0.0333205)
(0.0409917 -0.055375 -0.0355812)
(0.0332485 -0.0470595 -0.0270204)
(0.0333406 -0.0886733 -0.0132797)
(-0.0134496 -0.0384671 -0.018367)
(-0.0133774 -0.0423031 0.0294625)
(-0.0232438 -0.0422678 -0.0308588)
(0.0548951 0.0339156 0.023139)
(0.205578 -0.34083 0.0173354)
(0.13219 -0.1672 0.00856602)
(0.0790471 -0.223645 0.00263429)
(0.0707651 -0.230157 0.00397823)
(0.0602276 -0.226421 0.00626982)
(0.0499196 -0.23224 0.00821821)
(0.0451117 -0.240507 0.0125295)
(0.0432409 -0.247254 0.0140114)
(0.0395396 -0.257662 0.0160292)
(0.0390862 -0.26337 0.0172197)
(0.0330676 -0.268381 0.0161828)
(0.0277465 -0.267541 0.0146467)
(0.0233735 -0.265433 0.00969869)
(0.0140621 -0.257143 0.00631726)
(0.0173468 -0.239911 0.00327208)
(0.00295308 -0.220596 -0.00256714)
(0.00208277 -0.187609 -0.00100205)
(0.0159024 -0.148394 0.001817)
(-0.00630601 -0.103713 -0.00698679)
(-0.00440231 -0.0685292 -0.00565952)
(0.0148382 -0.0609997 0.00586296)
(0.0189023 -0.066477 0.0103466)
(0.0139954 -0.0751502 0.0086192)
(0.00986849 -0.0853583 0.00897461)
(0.00518977 -0.0973986 0.00656069)
(0.00204444 -0.10521 0.00609199)
(0.000841784 -0.114675 0.0058299)
(0.000370544 -0.120321 0.00775484)
(-0.003656 -0.124991 0.00870952)
(-0.00506297 -0.123725 0.00918203)
(-0.00713008 -0.118633 0.00870737)
(-0.00738186 -0.107227 0.00878973)
(-0.00842034 -0.0914245 0.00942131)
(-0.0135577 -0.075197 -0.00924891)
(-0.012957 -0.0180152 -0.00532426)
(-0.0106239 -0.00167969 0.025639)
(0.0213175 0.0211343 0.00337436)
(0.0232448 0.00631481 0.00243772)
(0.0116363 0.00166984 -0.00179039)
(0.00951705 0.000541131 -0.000859177)
(0.00423139 -0.00280087 0.000927979)
(0.0049762 -0.000551774 0.00132782)
(0.00513359 -0.00108115 0.00188016)
(0.00495431 0.000742763 0.0021824)
(0.00388463 0.000470515 0.00235402)
(0.00273304 0.00228194 0.00242293)
(0.0020919 0.00337675 0.00268991)
(0.00222651 0.0044343 0.00336046)
(0.00254215 0.00444227 0.0038866)
(0.00295708 0.00405041 0.00420669)
(0.00309752 0.00319003 0.00430073)
(0.00324201 0.00234492 0.0043163)
(0.00332607 0.0014019 0.00426202)
(0.00339103 0.000590694 0.00418619)
(0.00344124 -0.000113962 0.00410764)
(0.00347165 -0.00064308 0.00404889)
(0.00346985 -0.00101218 0.00401351)
(0.00348013 -0.00120214 0.00393506)
(0.00346268 -0.00128576 0.00391079)
(0.0034123 -0.00129358 0.00394214)
(0.00332666 -0.0012614 0.00401994)
(0.00322077 -0.0012111 0.00413134)
(0.00311976 -0.00116449 0.00425066)
(0.00305044 -0.00115322 0.00433512)
(0.00298524 -0.00120768 0.00442686)
(0.00291774 -0.00131961 0.0045176)
(0.00285763 -0.00148886 0.00460692)
(0.00281853 -0.00172779 0.00469776)
(0.00280514 -0.00205727 0.00479239)
(0.00282002 -0.00249796 0.00489073)
(0.0028694 -0.0030665 0.00498585)
(0.00295673 -0.00376511 0.00506739)
(0.0030758 -0.00457401 0.00511943)
(0.00321722 -0.00545409 0.00513353)
(0.00332687 -0.00637779 0.00509134)
(0.00342267 -0.00714566 0.0047704)
(0.0035978 -0.00766801 0.00386468)
(0.00404568 -0.0082706 0.00312312)
(0.00544471 -0.0104783 0.00336494)
(0.0095274 -0.0166641 0.00427291)
(0.0145926 -0.0243312 0.0033694)
(0.0145371 -0.0273102 -0.00223313)
(0.0130546 -0.0247815 -0.00407943)
(0.00664008 -0.0239217 -0.00317815)
(-0.00061843 -0.0180455 -0.00439866)
(0.0108541 -0.0102011 -0.0125496)
(0.0552602 0.0139004 -0.0312622)
(0.0851086 0.0246835 -0.0325052)
(0.0991157 0.0154637 -0.0316164)
(0.093049 -0.00443486 -0.0171952)
(0.0794711 0.0134371 0.00714756)
(0.0604006 -0.0718587 0.0210145)
(-0.0208381 0.0102492 0.027961)
(-0.0108835 -0.150742 0.0772044)
(-0.144931 -0.0214593 -0.0425647)
(0.0784699 -0.0594262 0.000102954)
(0.253941 -0.292409 0.0381976)
(0.0699511 0.107337 0.0361716)
(-0.0282691 -0.133731 0.0175027)
(-0.00773524 -0.070805 0.0238819)
(-0.010903 -0.10422 0.0241359)
(-0.0120422 -0.137998 0.030073)
(-0.0199926 -0.157578 0.0335054)
(-0.0285859 -0.174611 0.0333225)
(-0.0368479 -0.191688 0.0327971)
(-0.043102 -0.203261 0.0335762)
(-0.0437045 -0.211008 0.0328062)
(-0.046727 -0.213507 0.0307167)
(-0.0486162 -0.212406 0.0241601)
(-0.0516417 -0.204543 0.0133439)
(-0.0551067 -0.19286 0.0147021)
(-0.043656 -0.177477 0.0193725)
(-0.0436481 -0.154958 0.014031)
(-0.0522882 -0.0963943 -0.0160545)
(-0.0258721 -0.0473286 -0.00991956)
(-0.0048167 -0.0397597 0.027283)
(-0.00758971 -0.0404227 0.042013)
(-0.00907777 -0.0424295 0.0354066)
(-0.00350672 -0.0544132 0.0282918)
(0.00388482 -0.0602703 0.017804)
(0.00759719 -0.0647399 0.00708695)
(0.0100071 -0.0705799 0.0024769)
(0.00884645 -0.0766977 0.00244979)
(0.00528801 -0.0868516 0.00241701)
(0.000226148 -0.0921548 0.000404723)
(-0.0081172 -0.0996009 0.00374721)
(-0.0165134 -0.0993026 0.00400295)
(-0.0204734 -0.0915448 0.00550308)
(-0.0295156 -0.077971 0.00690739)
(-0.0318297 -0.0658831 -0.00968475)
(-0.0325413 -0.0182509 -0.00511471)
(-0.0299216 -0.00470121 0.0284378)
(0.0243888 0.020407 0.00436671)
(0.0275536 0.0120714 0.00425831)
(0.0172525 0.00589606 0.000870763)
(0.0142187 0.00491775 0.0020223)
(0.00574852 -0.00143858 0.00339701)
(0.00467333 0.000250526 0.00313844)
(0.00359796 -0.000603949 0.00403933)
(0.00307174 0.00147761 0.00398811)
(0.00184123 0.00128084 0.00401528)
(0.00102593 0.00266991 0.00395511)
(0.000566879 0.00304859 0.0040627)
(0.00103811 0.00380928 0.00439099)
(0.00152115 0.00373795 0.00471004)
(0.00200999 0.00364204 0.00494889)
(0.00217725 0.00314262 0.00500031)
(0.00235752 0.002657 0.00500587)
(0.00245785 0.00203102 0.00497195)
(0.00253504 0.00146081 0.00493502)
(0.00257606 0.000899238 0.00489658)
(0.00259077 0.000428363 0.00487911)
(0.00256466 2.42515e-05 0.00488289)
(0.00249013 -0.000290979 0.0049195)
(0.00239993 -0.000526092 0.00497263)
(0.00229405 -0.000688319 0.00503077)
(0.0021676 -0.000798458 0.00509169)
(0.00203512 -0.000874343 0.005155)
(0.00191196 -0.000936414 0.00522349)
(0.00180369 -0.000995362 0.00530007)
(0.00171116 -0.00106542 0.00538138)
(0.00162433 -0.00116373 0.00546612)
(0.00155437 -0.00130426 0.00555366)
(0.00152367 -0.00150174 0.00564088)
(0.00154204 -0.00176834 0.00572742)
(0.0016113 -0.00210922 0.0058102)
(0.00173507 -0.00252384 0.00587865)
(0.00191097 -0.00300154 0.00591418)
(0.00213764 -0.00352085 0.00589615)
(0.00243871 -0.00405286 0.005821)
(0.00279629 -0.00460865 0.00565354)
(0.00308197 -0.00508295 0.00532745)
(0.00376927 -0.00543354 0.00450514)
(0.00557619 -0.00631137 0.00404939)
(0.00945046 -0.0091483 0.00478203)
(0.0154216 -0.0150762 0.00656521)
(0.0194052 -0.0154146 0.00455409)
(0.01865 -0.0135014 -0.000289829)
(0.0157286 -0.0119589 -0.00300935)
(0.0136032 -0.0156987 0.000223155)
(0.00462011 -0.0200221 -0.000979746)
(0.0116795 -0.0183189 -0.00987843)
(0.0642114 0.0123479 -0.0251151)
(0.111923 0.0406795 -0.0188295)
(0.127283 0.0514307 -0.0170779)
(0.106614 0.0649398 -0.00330574)
(0.0598335 0.0646975 0.0273417)
(0.0027111 -0.00947282 0.0271577)
(-0.0909377 0.0889654 0.0463545)
(-0.0578121 -0.206142 0.0659636)
(-0.199891 0.0905801 -0.0374974)
(0.115573 -0.157792 0.0121526)
(0.25105 -0.224009 0.0171308)
(0.0776833 0.188226 0.0400423)
(0.111318 -0.127991 0.0546726)
(0.0477898 -0.0119316 0.04007)
(0.0225748 -0.0808317 0.0315794)
(0.0240682 -0.107265 0.0364188)
(0.0153116 -0.135131 0.0306384)
(0.00295741 -0.160828 0.0216692)
(-0.0112862 -0.178588 0.0157802)
(-0.0245466 -0.187444 0.0151556)
(-0.0348053 -0.193896 0.0168283)
(-0.0459448 -0.197561 0.0129007)
(-0.049277 -0.194938 0.00256608)
(-0.0457622 -0.183251 -0.00394293)
(-0.0510015 -0.162275 -0.00321772)
(-0.0648802 -0.124949 -0.0173731)
(-0.0664797 -0.04923 -0.0215699)
(-0.0493929 -0.00610999 0.00545398)
(-0.0405485 -0.00374262 0.0330954)
(-0.0364459 -0.00616067 0.0398634)
(-0.0289065 -0.0198948 0.0363096)
(-0.00785019 -0.0312128 0.0302445)
(0.0127506 -0.0238613 0.00177282)
(0.020546 -0.0104899 -0.0157072)
(0.0257221 -0.00156719 -0.0163433)
(0.0308158 -7.29795e-05 -0.0148491)
(0.0328354 -0.00403866 -0.0126775)
(0.0314976 -0.014649 -0.00938194)
(0.0223451 -0.0227 -0.00629086)
(0.00623199 -0.0384756 -0.00230972)
(-0.00705709 -0.0501299 0.000240251)
(-0.0198878 -0.0539115 0.0070407)
(-0.029671 -0.0553703 0.00363458)
(-0.040551 -0.0452753 -0.0166894)
(-0.0517413 0.0055553 0.00162993)
(-0.0502377 -0.00532462 0.0295743)
(0.0251718 0.0202682 0.00452296)
(0.0295766 0.0158005 0.00464763)
(0.0204313 0.00826218 0.000530572)
(0.0187625 0.00880345 0.000808517)
(0.00854853 0.000640726 0.00160081)
(0.0047552 0.00182969 0.00216624)
(0.00211337 -3.73131e-05 0.00406448)
(0.00144618 0.00200045 0.00422844)
(0.000218403 0.000988551 0.00428131)
(-0.000517011 0.0019463 0.00416596)
(-0.000859026 0.00186849 0.00428262)
(-0.000318859 0.00256 0.00464331)
(8.76666e-05 0.0027426 0.0049172)
(0.000599186 0.00299561 0.00511838)
(0.00083292 0.00278538 0.00515347)
(0.0010359 0.00255711 0.00518466)
(0.0011331 0.00212928 0.00519383)
(0.00119745 0.00172869 0.00521243)
(0.00120963 0.00129031 0.00521351)
(0.00119625 0.00089497 0.0052129)
(0.00113755 0.00052392 0.00521282)
(0.00104735 0.000191011 0.00522603)
(0.000929504 -0.000105819 0.00525184)
(0.000794827 -0.000347639 0.0052822)
(0.000651816 -0.000536673 0.00531725)
(0.000512315 -0.000678117 0.00535987)
(0.0003916 -0.000784979 0.00540624)
(0.000299692 -0.000874021 0.00545516)
(0.00022725 -0.000959576 0.00551115)
(0.000169423 -0.00105295 0.00557708)
(0.000140206 -0.0011617 0.00565195)
(0.000157722 -0.00129156 0.00572585)
(0.000228472 -0.00144209 0.00579118)
(0.000363017 -0.00160737 0.00583788)
(0.000572463 -0.00178685 0.00584911)
(0.000861999 -0.0019731 0.00580072)
(0.00123685 -0.00214992 0.00567578)
(0.00172576 -0.00229493 0.00546917)
(0.00230836 -0.0023879 0.00514412)
(0.00292242 -0.00244356 0.00462005)
(0.00439751 -0.00263426 0.00379765)
(0.00690348 -0.00349774 0.00352313)
(0.010792 -0.00490432 0.00422062)
(0.0137528 -0.00445055 0.00556518)
(0.0156144 -0.00202372 0.00581382)
(0.0187056 -0.000450193 0.00346829)
(0.0199939 -0.00147069 0.000561645)
(0.0160042 -0.0045675 0.00547621)
(0.00646133 -0.0125673 0.0071566)
(0.00638166 -0.0190387 -0.00683839)
(0.051515 0.0236541 -0.0165366)
(0.107304 0.0671898 -0.0177924)
(0.128561 0.0966062 -0.0158422)
(0.121952 0.124809 -0.00614264)
(0.0986001 0.119195 0.0153434)
(0.0729526 0.0579188 0.0487598)
(0.0820623 0.105115 0.110705)
(0.0828638 -0.242804 0.136265)
(-0.213335 0.220075 0.0327846)
(0.056253 -0.247774 0.0150471)
(0.270825 -0.173975 0.0168197)
(0.0686001 0.1442 0.0271509)
(0.0913181 -0.0344703 0.0476221)
(-0.00967504 0.0769709 0.0174519)
(0.0289174 -0.0652001 0.0330761)
(0.0113548 -0.0670847 0.02474)
(-0.00550907 -0.0999903 0.00922615)
(-0.0112141 -0.109665 -0.00848294)
(-0.0116138 -0.108972 -0.0119811)
(-0.012938 -0.107368 -0.00756055)
(-0.0202256 -0.111258 -0.00132016)
(-0.0311138 -0.118166 -0.00760623)
(-0.0419955 -0.109047 -0.0231095)
(-0.0580162 -0.0724802 -0.0258853)
(-0.0787351 -0.0247156 -0.0232121)
(-0.0848605 0.0275818 -0.00887895)
(-0.0731929 0.0470347 0.0225634)
(-0.057338 0.0357401 0.0392743)
(-0.0505451 0.0184487 0.0363402)
(-0.0394668 0.0050581 0.0268746)
(-0.0236274 0.00604133 0.000633621)
(-0.0133224 0.0328568 -0.0244158)
(0.00320877 0.0727801 -0.0144664)
(0.0182263 0.0733331 0.00312467)
(0.0277162 0.0701364 0.00498927)
(0.032214 0.0670581 0.00664373)
(0.0343592 0.0581211 0.011474)
(0.0313524 0.0497536 0.0139927)
(0.0221799 0.0356026 0.0160267)
(0.00368315 0.0147451 0.014957)
(-0.0110022 0.00593688 0.0153975)
(-0.0265877 -0.0118856 0.00737836)
(-0.0463174 -0.0131688 -0.0108215)
(-0.0577327 0.00480707 -0.0110375)
(-0.0500932 0.0231026 0.0138131)
(-0.0538065 0.000599364 0.0288005)
(0.0250976 0.0202504 0.00435936)
(0.0313668 0.0193556 0.00519218)
(0.0227432 0.0106538 0.000882237)
(0.0236582 0.0123465 0.000576583)
(0.0130704 0.00349654 -0.0013474)
(0.00678855 0.00429979 -0.000653349)
(0.00133363 -0.000304877 0.00280374)
(0.000142314 0.00224186 0.00352279)
(-0.00111971 0.000538372 0.00379895)
(-0.00188491 0.00123784 0.00395755)
(-0.00253362 0.000830463 0.0041594)
(-0.00236542 0.0015537 0.00455971)
(-0.00218033 0.0019227 0.00476166)
(-0.00161267 0.00243564 0.00495251)
(-0.0013623 0.00241985 0.00495681)
(-0.00115098 0.00230977 0.00501461)
(-0.0011075 0.00197493 0.00506109)
(-0.00113751 0.00167037 0.00512691)
(-0.00121442 0.00133906 0.00515644)
(-0.00129726 0.00103246 0.0051579)
(-0.00138955 0.000717544 0.00513234)
(-0.00149125 0.000401769 0.00510328)
(-0.0016012 9.47303e-05 0.00507697)
(-0.00171955 -0.00017749 0.00506063)
(-0.00184863 -0.00041075 0.00505522)
(-0.00197619 -0.000600983 0.00505659)
(-0.00207661 -0.000752501 0.00506803)
(-0.00214085 -0.000873389 0.00508965)
(-0.00218312 -0.000970855 0.00511954)
(-0.00221661 -0.00105049 0.00516042)
(-0.00222792 -0.0011084 0.00521353)
(-0.00219016 -0.0011399 0.00526386)
(-0.00209764 -0.00113824 0.00529945)
(-0.00193893 -0.00108325 0.00530388)
(-0.0016962 -0.000961428 0.00525619)
(-0.00136981 -0.000756875 0.00513282)
(-0.000948986 -0.00045907 0.0049075)
(-0.000376433 -7.97989e-05 0.00458503)
(0.000471782 0.000355492 0.00420099)
(0.00184993 0.00074571 0.00388329)
(0.00426107 0.00070023 0.00391008)
(0.00684105 -0.000196175 0.00418981)
(0.00908352 -0.000188962 0.00447419)
(0.0113268 0.00238039 0.00504304)
(0.0146394 0.00535471 0.00651252)
(0.0178214 0.00739971 0.00691839)
(0.0167805 0.0101565 0.00642451)
(0.0128352 0.00847019 0.0122462)
(0.00719139 -0.00242264 0.0185092)
(-0.00385384 -0.0181254 0.00285683)
(0.0269652 0.0249402 -0.00842632)
(0.0911271 0.0713657 -0.00618944)
(0.113487 0.107955 -0.0147216)
(0.0912646 0.162889 -0.012158)
(0.0480144 0.220445 -0.0239274)
(-0.0154486 0.269726 -0.023184)
(-0.0728843 0.254732 0.011217)
(-0.135667 0.197436 0.045103)
(-0.283647 0.493902 0.031194)
(0.042112 -0.337244 -0.0110492)
(0.245553 -0.0933712 -0.00708557)
(0.0726879 0.121541 0.0302278)
(0.117052 0.0178264 0.0406516)
(0.0482152 0.053706 0.0117459)
(0.0667705 -0.00662181 0.0232903)
(0.0212542 -0.0192834 -0.00345916)
(0.0262642 -0.00779134 -0.00786383)
(0.0307635 0.0245288 -0.0121896)
(0.0154861 0.0331271 0.00257243)
(-0.00780993 0.0461403 0.00541379)
(-0.0293511 0.0483063 0.000284524)
(-0.0476198 0.0600285 -0.00163976)
(-0.0599708 0.0713965 0.00433116)
(-0.0699702 0.0812593 0.0076458)
(-0.0761381 0.0834857 0.00862763)
(-0.0732873 0.0828579 0.0160417)
(-0.0653762 0.0748635 0.0233145)
(-0.0605413 0.0700218 0.0202469)
(-0.0538427 0.076801 0.0115663)
(-0.0370614 0.0848813 0.00579499)
(-0.0262465 0.10459 -0.000536098)
(-0.00725058 0.108815 0.00296002)
(0.00911176 0.111378 0.00537713)
(0.0188471 0.107263 -0.00149347)
(0.0244281 0.101207 0.000132851)
(0.0322272 0.0990951 -0.000941257)
(0.0364 0.0914678 0.00127433)
(0.0367588 0.0863771 0.000967655)
(0.0271738 0.0746992 0.00204384)
(0.0110953 0.0647835 0.00115176)
(-0.00589307 0.0563653 -0.000736029)
(-0.0211651 0.0496913 -0.00472245)
(-0.034628 0.0440847 -0.0062455)
(-0.0406602 0.0345238 0.00817217)
(-0.0401214 0.0252149 0.0143278)
(-0.0521326 0.00822135 0.0281681)
(0.0233447 0.0192823 0.0043169)
(0.0323525 0.0232374 0.00671067)
(0.0234324 0.0126013 0.00265093)
(0.0259323 0.0147897 0.00259237)
(0.0183312 0.00446675 -0.0016631)
(0.0118092 0.0059163 -0.00293983)
(0.00187625 -0.00150481 0.000533173)
(-0.0013242 0.00205859 0.00190967)
(-0.00212695 -0.000283595 0.00266496)
(-0.00327877 0.000547484 0.00319912)
(-0.00394203 -0.000164478 0.00345464)
(-0.0037442 0.000700201 0.00395896)
(-0.00346858 0.00126795 0.00419214)
(-0.00267123 0.00204284 0.00455567)
(-0.00212764 0.00201396 0.0047212)
(-0.00179793 0.00189748 0.00495291)
(-0.00174285 0.00154676 0.00511012)
(-0.00185735 0.00129007 0.00522307)
(-0.00201445 0.00107149 0.00525751)
(-0.0021539 0.000910163 0.0052302)
(-0.00228331 0.000740413 0.00514316)
(-0.00240875 0.000548613 0.0050269)
(-0.00255067 0.000335273 0.00490374)
(-0.00269191 0.000121331 0.00478589)
(-0.00282146 -7.88847e-05 0.00468035)
(-0.00292368 -0.000244689 0.00458839)
(-0.00299275 -0.000382461 0.00451165)
(-0.00302811 -0.000504138 0.00445634)
(-0.0030468 -0.000607986 0.00442749)
(-0.00306108 -0.000680634 0.00442864)
(-0.00306349 -0.000696005 0.00445173)
(-0.00303178 -0.000635495 0.00446994)
(-0.00296307 -0.000481442 0.00446287)
(-0.00284642 -0.000209125 0.00440312)
(-0.00265734 0.000177341 0.00426574)
(-0.00237888 0.000660255 0.00403874)
(-0.0019178 0.00120342 0.0037434)
(-0.0011313 0.00177082 0.0034756)
(0.000132585 0.00230963 0.00335717)
(0.00206947 0.00264139 0.0035733)
(0.00480161 0.00269542 0.0043243)
(0.00692034 0.00253532 0.00522343)
(0.00721408 0.00317682 0.0051919)
(0.00787786 0.00647949 0.00466237)
(0.0108227 0.0112877 0.00684963)
(0.013114 0.0161009 0.00912413)
(0.0114578 0.0217196 0.0101439)
(0.00978488 0.0215123 0.0137158)
(0.00616935 0.00791778 0.0191435)
(-0.01209 -0.00961881 0.0130531)
(-0.00672094 -0.00614843 0.00708528)
(0.064608 0.0429663 0.00526261)
(0.0977178 0.085003 -0.00103817)
(0.097745 0.116395 0.00503432)
(0.106482 0.136162 -0.00154241)
(0.110896 0.163893 -0.013095)
(0.0865759 0.198435 -0.0358007)
(0.137954 0.149332 -0.0439545)
(0.178043 0.515662 -0.0801925)
(0.0445742 -0.387249 -0.0427321)
(0.22663 -0.0444846 -0.0152998)
(0.073657 0.116807 0.024734)
(0.0707891 0.101677 0.0232563)
(0.0422492 0.109312 0.0204082)
(0.0361267 0.0778932 0.0128077)
(0.015727 0.0666095 -0.000545647)
(-0.000838585 0.0814996 0.00101012)
(0.0022378 0.0961643 0.00722446)
(0.00103977 0.106321 0.0110989)
(0.00310179 0.11079 0.0100812)
(-0.00486657 0.112949 0.0097608)
(-0.0199179 0.113616 0.00857023)
(-0.0372587 0.118035 0.00923548)
(-0.0504301 0.121405 0.00339327)
(-0.0595332 0.124655 0.00143571)
(-0.0633394 0.132047 0.00266097)
(-0.0626314 0.148413 0.00271193)
(-0.053943 0.161491 0.00191633)
(-0.0415667 0.169149 0.00487013)
(-0.0298896 0.173844 0.00330893)
(-0.0153145 0.17263 0.0128068)
(-0.00318002 0.170456 0.0169751)
(0.00934661 0.171603 0.018527)
(0.0163187 0.162406 0.0175816)
(0.0237156 0.156332 0.0167709)
(0.0292313 0.14355 0.0142011)
(0.0312937 0.131921 0.00976447)
(0.0321996 0.11904 0.00673138)
(0.0250626 0.101551 0.000440581)
(0.012048 0.0874458 -0.00595641)
(-0.000185026 0.0707839 -0.00811922)
(-0.00828546 0.0576288 -0.00546825)
(-0.0159058 0.0448365 0.000295541)
(-0.0223985 0.0285033 0.012547)
(-0.0297857 0.0237519 0.0173043)
(-0.0464879 0.0105324 0.0310855)
(0.0201336 0.0169988 0.00480965)
(0.0327769 0.0270363 0.00938194)
(0.0227773 0.0141116 0.00524261)
(0.0255075 0.0170755 0.00555315)
(0.0206954 0.00438577 0.00103944)
(0.0164762 0.00606331 -0.00106392)
(0.00323951 -0.00299373 -0.000591584)
(-0.00220377 0.00188626 0.000632276)
(-0.00332731 -0.000859098 0.00179776)
(-0.00456294 0.000399368 0.00261156)
(-0.00562449 -0.000501926 0.00272595)
(-0.00614113 0.000377582 0.00338268)
(-0.00620664 0.000849505 0.0038277)
(-0.00505315 0.0015201 0.00463878)
(-0.0043764 0.00135652 0.00510873)
(-0.00408198 0.00123499 0.00555623)
(-0.00417936 0.000936061 0.00581404)
(-0.00452938 0.000788165 0.00593193)
(-0.00489617 0.000718458 0.00591777)
(-0.00515837 0.000736051 0.0058237)
(-0.00532178 0.000759771 0.00564958)
(-0.00542451 0.000766655 0.00543638)
(-0.00549896 0.000740257 0.00521346)
(-0.00555956 0.00068232 0.00500442)
(-0.00563315 0.000612435 0.00483118)
(-0.00569207 0.000552805 0.00468681)
(-0.00568421 0.000489425 0.00456589)
(-0.0056306 0.000404847 0.00449083)
(-0.00557486 0.000312565 0.00446015)
(-0.00555024 0.000251362 0.00447182)
(-0.00554668 0.000264996 0.00450601)
(-0.00552384 0.000382086 0.00452718)
(-0.00547831 0.000602681 0.00449701)
(-0.00536707 0.000937761 0.00439531)
(-0.00511661 0.00135586 0.00421822)
(-0.00470736 0.00180119 0.00397779)
(-0.004098 0.00220368 0.00368113)
(-0.00321828 0.00253142 0.00342985)
(-0.00191874 0.00283433 0.00345432)
(-8.81637e-05 0.00317754 0.00397078)
(0.00216756 0.00365912 0.00491433)
(0.00349151 0.00443922 0.00543648)
(0.00310071 0.00637895 0.0048202)
(0.00283424 0.00994511 0.00362225)
(0.00377591 0.0152446 0.00488575)
(0.00387067 0.0215179 0.00766908)
(0.00295083 0.0274723 0.00923657)
(0.00571859 0.0280205 0.0122544)
(0.00991022 0.0121935 0.0196228)
(-0.00205478 -0.00583725 0.0275378)
(-0.0250159 -0.0155093 0.0426233)
(0.0280181 0.0316376 0.0226763)
(0.0769129 0.0981162 0.0340574)
(0.0821273 0.11985 0.0446855)
(0.0826366 0.125893 0.0448067)
(0.0687155 0.110669 0.0603119)
(0.00802909 0.193014 0.113181)
(-0.0204275 -0.16444 0.0871998)
(0.172908 0.354797 -0.0691946)
(0.0346724 -0.399961 -0.0515289)
(0.130794 0.0823729 -0.0361938)
(0.0624412 0.199466 0.0174183)
(0.0606357 0.225286 0.0254688)
(0.0544885 0.228511 0.0294408)
(0.0531884 0.212936 0.0336922)
(0.041001 0.187936 0.0215753)
(0.0356071 0.177276 0.0151632)
(0.0268741 0.169605 0.0142408)
(0.0109756 0.177184 0.00756355)
(-0.00385553 0.188383 0.00324314)
(-0.0184732 0.212918 -0.00252664)
(-0.0313439 0.225146 -0.000866103)
(-0.0432562 0.234953 -0.00194757)
(-0.0524745 0.24338 -0.00102311)
(-0.0556896 0.257362 0.00180567)
(-0.05676 0.26252 0.00348751)
(-0.0506225 0.266869 0.00664399)
(-0.0433823 0.264218 0.0112682)
(-0.0322487 0.258918 0.0161117)
(-0.0224305 0.250971 0.0215389)
(-0.0137308 0.242347 0.0278154)
(-0.000562334 0.232307 0.0290506)
(0.0103025 0.225654 0.0292302)
(0.0221777 0.21258 0.025716)
(0.0316975 0.207243 0.023696)
(0.039711 0.194819 0.0211946)
(0.0453004 0.187456 0.0194425)
(0.0485341 0.174248 0.0199151)
(0.0456888 0.159301 0.0177001)
(0.035936 0.133385 0.0186761)
(0.0226846 0.103802 0.0146933)
(0.00722644 0.0762445 0.0101558)
(-0.00491183 0.0579631 0.0117745)
(-0.0197584 0.0369274 0.0149646)
(-0.0362104 0.0211809 0.0249552)
(-0.049204 0.0117413 0.0329784)
(0.0165082 0.0108352 0.00478589)
(0.0314919 0.0299258 0.0113934)
(0.0210653 0.0149198 0.00598815)
(0.0248597 0.02077 0.00576888)
(0.0213431 0.00534518 0.0025195)
(0.0179161 0.0056059 0.00160306)
(0.00379115 -0.00490449 -0.000797002)
(-0.00439737 0.00085949 -0.00054735)
(-0.00414629 -0.00233524 0.00226536)
(-0.00591455 0.000423552 0.00310209)
(-0.0063247 -0.000630331 0.00341734)
(-0.00652089 0.000333751 0.00426954)
(-0.0061902 -0.000148651 0.0048925)
(-0.00479019 0.000166622 0.00599442)
(-0.00400278 -7.23254e-05 0.00676042)
(-0.00372627 7.82478e-05 0.00744712)
(-0.00386971 0.00014274 0.00785921)
(-0.00423216 0.000373216 0.00805088)
(-0.00458803 0.00057939 0.00805805)
(-0.00482646 0.000842809 0.00795741)
(-0.00498138 0.00108449 0.0077536)
(-0.00508 0.00126395 0.0074927)
(-0.00514611 0.00137737 0.00721514)
(-0.0051935 0.00143516 0.00694449)
(-0.00523646 0.00144036 0.00669579)
(-0.00525243 0.00140739 0.00648468)
(-0.00520463 0.0013535 0.00632522)
(-0.00510724 0.00127943 0.00621104)
(-0.0050144 0.00119427 0.00613778)
(-0.00497576 0.00114004 0.00609877)
(-0.00498102 0.00118219 0.0060644)
(-0.00497124 0.00134686 0.00600945)
(-0.00493209 0.00162319 0.00591065)
(-0.00483133 0.00197617 0.00573738)
(-0.00458801 0.00231271 0.00548878)
(-0.00416831 0.00254644 0.00519475)
(-0.00347373 0.00265564 0.00490225)
(-0.00249059 0.0026341 0.00476273)
(-0.00130045 0.00254602 0.00490105)
(0.000104208 0.00264689 0.00526342)
(0.00161179 0.00319183 0.0057497)
(0.00222355 0.00465574 0.00590161)
(0.000976396 0.00743019 0.00483609)
(4.39148e-05 0.0114636 0.00363985)
(-0.00036113 0.0164419 0.0040669)
(-0.00158884 0.0225554 0.00604446)
(-0.00234499 0.0251696 0.00720329)
(0.00504813 0.0222333 0.0108827)
(0.0149063 0.00504224 0.0212964)
(-0.00564767 -0.015571 0.0287604)
(-0.0288355 -0.0129971 0.0461063)
(-0.0327886 -0.0115006 0.0272627)
(0.0329447 0.0661853 0.0432021)
(0.0723267 0.111842 0.0602946)
(0.094716 0.123913 0.0631494)
(0.114242 0.101076 0.0747529)
(0.150773 0.150067 0.112356)
(0.131579 -0.114715 0.105974)
(0.133854 0.00809712 -0.0615297)
(0.0262894 -0.3331 -0.0559364)
(0.0154 0.147619 -0.0594869)
(0.0110542 0.279763 0.00203514)
(0.0200661 0.327221 0.00787589)
(0.030122 0.342284 0.0200365)
(0.0359612 0.349436 0.0177073)
(0.0334121 0.351529 0.0127847)
(0.0294955 0.351618 0.0117979)
(0.021299 0.351081 0.00910719)
(0.0139686 0.349086 0.0052371)
(0.00384362 0.345862 0.00427171)
(-0.0018792 0.341951 0.00242164)
(-0.0130288 0.333973 0.00264521)
(-0.0227555 0.330691 0.000832812)
(-0.0295116 0.321803 0.00137375)
(-0.032912 0.315895 0.00266718)
(-0.032826 0.303473 0.00446787)
(-0.0320419 0.293651 0.0108267)
(-0.0268601 0.277458 0.0173162)
(-0.0200625 0.263268 0.0236605)
(-0.0143807 0.247636 0.0314001)
(-0.00644415 0.236959 0.0344195)
(0.00402941 0.223964 0.0369345)
(0.0159793 0.215985 0.0361326)
(0.0262851 0.1989 0.032306)
(0.0347985 0.190763 0.0294221)
(0.0397382 0.185446 0.0249025)
(0.043301 0.185462 0.0195774)
(0.0435717 0.186866 0.010635)
(0.0411761 0.188594 0.00568179)
(0.0325124 0.192469 0.00929649)
(0.0244351 0.182851 0.0225891)
(0.0108925 0.168513 0.0284721)
(0.000252407 0.145068 0.0330003)
(-0.0137621 0.112295 0.0314569)
(-0.0275929 0.0709954 0.0310911)
(-0.0389523 0.0170501 0.0223764)
(0.00907004 0.000244398 0.00143188)
(0.0281541 0.0313176 0.0107026)
(0.0185659 0.0152893 0.00437102)
(0.0234443 0.0252849 0.00339313)
(0.0218884 0.00875246 0.00157267)
(0.0191949 0.00710846 0.00220335)
(0.00398259 -0.00710109 -0.0054089)
(-0.00386004 -0.000863092 -0.00526681)
(-0.0072158 -0.00320002 -0.0017127)
(-0.00871279 0.000469587 3.78989e-05)
(-0.00913876 -0.00082593 0.000512829)
(-0.00903314 -2.63704e-05 0.00152719)
(-0.00883676 -0.00106147 0.00217891)
(-0.00809457 -0.000813065 0.003004)
(-0.00782927 -0.0009328 0.00363112)
(-0.00790868 -0.000521039 0.00430047)
(-0.00824252 -0.000232163 0.0048531)
(-0.00867343 0.000195887 0.00524631)
(-0.00908074 0.000536108 0.0054506)
(-0.0093864 0.000891877 0.00551273)
(-0.00945597 0.0012097 0.00544662)
(-0.00940525 0.00146964 0.0052984)
(-0.00930736 0.00166403 0.00511916)
(-0.00917814 0.00179048 0.0049381)
(-0.00904114 0.00185161 0.00476411)
(-0.00888803 0.00186135 0.0046058)
(-0.00870034 0.00184484 0.00446948)
(-0.00848663 0.00182208 0.00435497)
(-0.00831168 0.00180575 0.00426299)
(-0.00826883 0.00181132 0.00419089)
(-0.00830999 0.00189232 0.00411019)
(-0.00834742 0.00206463 0.00400097)
(-0.00831231 0.00231837 0.00384858)
(-0.00808379 0.00261645 0.00363789)
(-0.00757937 0.00289116 0.00336425)
(-0.00686206 0.00312336 0.00303506)
(-0.00604443 0.00319133 0.00269459)
(-0.00505944 0.00301147 0.00240437)
(-0.00407997 0.00277381 0.0023062)
(-0.00321628 0.00279108 0.00238936)
(-0.00256144 0.00332902 0.0025394)
(-0.00275393 0.00492032 0.00206623)
(-0.0036377 0.00757484 0.000507207)
(-0.00416352 0.0111382 -0.00084922)
(-0.00534864 0.0148215 -0.00165862)
(-0.00692191 0.0201551 -0.00122019)
(-0.00694456 0.0214381 0.00130785)
(0.00393394 0.0126271 0.00711372)
(0.0137669 -0.00240468 0.0163574)
(-0.00546679 -0.0218005 0.019474)
(-0.0233381 -0.0241992 0.0414947)
(-0.0330847 -0.0328424 0.0337069)
(-0.0433687 -0.0266889 0.00735679)
(0.0260797 0.0347633 0.00873396)
(0.0644682 0.0899937 0.0256723)
(0.094174 0.0740848 0.0435037)
(0.135122 0.134202 0.0605717)
(0.151094 -0.0488109 0.045813)
(0.00331138 0.18289 -0.0416138)
(-0.0527258 -0.359589 -0.0771181)
(-0.0906059 0.122564 -0.0780902)
(-0.0185337 0.260915 -0.00912189)
(-0.00426965 0.301781 -0.000979483)
(0.0164067 0.307644 0.00991935)
(0.0260548 0.300833 0.011355)
(0.0308982 0.296701 0.00593058)
(0.0311797 0.294566 0.00261865)
(0.0287923 0.295795 -0.000734313)
(0.0227602 0.292994 0.000975151)
(0.0167724 0.291398 -0.000655694)
(0.0107628 0.284155 0.000395124)
(0.0020655 0.278799 0.00416763)
(-0.00359502 0.267838 0.00745598)
(-0.00892198 0.258025 0.00989366)
(-0.012095 0.240874 0.0124754)
(-0.0162958 0.220866 0.0149486)
(-0.0193223 0.202957 0.0203327)
(-0.0210319 0.178365 0.0265566)
(-0.0199371 0.149945 0.0265609)
(-0.0171821 0.123321 0.0265546)
(-0.0141324 0.0978851 0.0229322)