/*--------------------------------*- C++ -*----------------------------------*\
| =========                 |                                                 |
| \\      /  F ield         | OpenFOAM: The Open Source CFD Toolbox           |
|  \\    /   O peration     | Version:  2.3.0                                 |
|   \\  /    A nd           | Web:      www.OpenFOAM.org                      |
|    \\/     M anipulation  |                                                 |
\*---------------------------------------------------------------------------*/
FoamFile
{
    version     2.0;
    format      ascii;
    class       volVectorField;
    location    "52";
    object      U.waterMean;
}
// * * * * * * * * * * * * * * * * * * * * * * * * * * * * * * * * * * * * * //

dimensions      [0 1 -1 0 0 0 0];

internalField   nonuniform List<vector> 
6144
(
(0.00983575 0.0196716 -0.000543548)
(0.0101314 -0.00115043 -0.00150696)
(0.00457142 -0.00270418 -0.00250654)
(0.00414842 -0.00332374 -0.0024081)
(0.00261857 -0.00316725 -0.00192605)
(0.00299221 -0.00147119 -0.00166299)
(0.00266658 -0.00155139 -0.00130891)
(0.0026174 -0.000520134 -0.00102492)
(0.00227316 -0.000365454 -0.000890186)
(0.00203857 0.000850713 -0.000563668)
(0.00184768 0.00174424 -0.00025636)
(0.00191079 0.00249877 0.000172851)
(0.00203922 0.00250714 0.000372228)
(0.00217432 0.00212471 0.000604506)
(0.00224266 0.00145115 0.000538851)
(0.00231994 0.000844346 0.000435106)
(0.0023669 0.000246642 0.000229657)
(0.00241756 -0.000181967 5.30154e-05)
(0.00245787 -0.00053117 -0.000133188)
(0.00248781 -0.000733688 -0.000278176)
(0.00250558 -0.000855894 -0.000393455)
(0.00251597 -0.000883948 -0.000468592)
(0.00251441 -0.000871328 -0.000500197)
(0.00250254 -0.000825717 -0.000493878)
(0.00248089 -0.000769734 -0.000456514)
(0.00245218 -0.000710799 -0.000393327)
(0.00242 -0.000659269 -0.00031374)
(0.00238681 -0.000623609 -0.000227634)
(0.00235238 -0.000602627 -0.000139525)
(0.00231624 -0.000605623 -5.46805e-05)
(0.00227943 -0.000602906 2.93698e-05)
(0.0022373 -0.000645122 0.00011909)
(0.00219465 -0.000644016 0.000221158)
(0.00214393 -0.000760795 0.000343605)
(0.00209933 -0.000786758 0.00049342)
(0.0020504 -0.00108899 0.000664044)
(0.00202081 -0.00122481 0.000835163)
(0.00199242 -0.00181896 0.000957429)
(0.00199383 -0.00201067 0.000986273)
(0.00199944 -0.00274831 0.000863774)
(0.00201987 -0.00263612 0.000549425)
(0.00203327 -0.00298413 7.76586e-06)
(0.00208599 -0.00183234 -0.000580745)
(0.0023814 -0.00143012 -0.00104545)
(0.00299876 -1.10241e-05 -0.00146987)
(0.0037206 -0.000616169 -0.00195841)
(0.0040959 0.00034319 -0.00267021)
(0.00334188 0.00064242 -0.00377514)
(0.00289399 0.0067909 -0.00564599)
(0.00689061 0.0101704 -0.00792566)
(0.0181537 0.010296 -0.0102983)
(0.0263324 -0.00933485 -0.0104198)
(0.0315236 -0.0202297 -0.0113346)
(0.0307916 -0.0560908 -0.0108123)
(0.0264016 -0.0508921 -0.0118292)
(0.0228348 -0.0915719 -0.00781523)
(0.00471199 -0.0451959 -0.0135053)
(0.00632343 -0.101199 0.022326)
(-0.0355819 -0.00402807 -0.0462804)
(0.023931 -0.0311922 0.0384658)
(0.137009 -0.294537 0.0622699)
(0.0937638 -0.119477 0.0276911)
(0.0615846 -0.188213 0.0074665)
(0.0517694 -0.198702 0.00431126)
(0.0430801 -0.199166 0.005008)
(0.0355852 -0.191615 0.00515833)
(0.0291763 -0.190799 0.00452392)
(0.0243012 -0.184557 0.00414542)
(0.021049 -0.18125 0.00420775)
(0.0182313 -0.174055 0.00448595)
(0.0157147 -0.168793 0.00478034)
(0.0132053 -0.160175 0.00515694)
(0.0111242 -0.152047 0.00570754)
(0.00864556 -0.142213 0.00623895)
(0.00558412 -0.13138 0.00648593)
(0.0031834 -0.118095 0.00512499)
(0.00203625 -0.104876 0.00260993)
(0.000723648 -0.0919866 0.0011831)
(-0.000420931 -0.0789929 0.00115834)
(0.00064772 -0.0665919 0.00198274)
(0.00214233 -0.0564157 0.00268452)
(0.00266909 -0.0482607 0.0034169)
(0.00267311 -0.0429191 0.0045105)
(0.00169948 -0.0387973 0.00470599)
(0.00118115 -0.0338344 0.00414405)
(0.00141436 -0.0278055 0.00337512)
(0.00171041 -0.0214373 0.00307295)
(0.00155732 -0.0145572 0.00230241)
(0.00085403 -0.00801576 0.00123891)
(-0.000202777 0.000531159 0.000561401)
(0.000335625 0.00848889 0.00128777)
(0.00148182 0.0148707 0.0024859)
(0.00189483 0.0187648 0.00383783)
(0.00213112 0.0205773 0.00649279)
(0.00365339 0.0189484 0.0101908)
(0.0065975 0.00935972 0.0152549)
(0.0191762 0.0207451 0.00302246)
(0.0203986 0.00684128 0.0024749)
(0.0104547 0.00335514 -0.000565351)
(0.00999068 0.00209665 0.000162628)
(0.00576921 -0.000855931 0.0010254)
(0.0057849 3.01074e-05 0.00154665)
(0.00447539 -0.000919622 0.00210629)
(0.00426524 0.000454615 0.00215362)
(0.00356051 0.000686366 0.0021369)
(0.00320537 0.00221425 0.00219458)
(0.00305497 0.00299188 0.00235476)
(0.00340919 0.0036365 0.0028277)
(0.00378152 0.00345515 0.00306782)
(0.00417509 0.00306077 0.00325808)
(0.00431417 0.00230232 0.00324484)
(0.00445648 0.00163728 0.00321332)
(0.00449092 0.000934952 0.0031248)
(0.00454496 0.000423279 0.00305837)
(0.00457282 -2.07834e-05 0.00297906)
(0.00459024 -0.000305274 0.00292913)
(0.00458865 -0.000503344 0.00288942)
(0.00458041 -0.00059062 0.00286321)
(0.00455287 -0.000627354 0.00286835)
(0.00450819 -0.00061783 0.00290343)
(0.00444753 -0.000588242 0.00296098)
(0.00437652 -0.000545646 0.00303516)
(0.00430357 -0.000502767 0.00311171)
(0.0042344 -0.000470483 0.00318233)
(0.00416592 -0.000451342 0.00325269)
(0.00409596 -0.000456135 0.0033175)
(0.00402696 -0.000459753 0.00338057)
(0.00394969 -0.000519051 0.00344641)
(0.00388028 -0.000539536 0.00351762)
(0.00380346 -0.000698709 0.00359475)
(0.00376127 -0.000749291 0.00368297)
(0.00372164 -0.00109552 0.00377476)
(0.00374202 -0.001203 0.00386666)
(0.00374585 -0.00180198 0.00393335)
(0.00379623 -0.00188499 0.00395919)
(0.00378387 -0.00261463 0.00389749)
(0.00374868 -0.00234979 0.00370558)
(0.00366697 -0.00279617 0.00326457)
(0.00374641 -0.00170181 0.0026124)
(0.00418863 -0.00185391 0.00203002)
(0.00520716 -0.000420124 0.00148352)
(0.00615584 -0.000524306 0.000780536)
(0.00575042 0.00216781 -0.000425907)
(0.00459568 0.00387024 -0.00189409)
(0.00661533 0.00874458 -0.00333884)
(0.0169576 0.0054332 -0.004201)
(0.0373989 -0.000272224 -0.00557442)
(0.0504 -0.0171577 -0.00519913)
(0.0586506 -0.0216767 -0.00314438)
(0.0556279 -0.0494938 -0.000883504)
(0.0448991 -0.0382208 0.00411141)
(0.043689 -0.0962619 0.0119592)
(0.00279992 -0.0452914 0.0119421)
(0.000812759 -0.161583 0.042639)
(-0.0927469 0.0259872 -0.0746294)
(0.00570909 -0.0830439 0.0133304)
(0.175923 -0.262898 0.101831)
(0.0882152 0.00638891 0.0429865)
(0.0261036 -0.112935 0.00926059)
(0.0259701 -0.0537322 0.0156355)
(0.0126906 -0.0707275 0.017336)
(0.00479271 -0.0588955 0.0155242)
(0.00146029 -0.0601536 0.0126703)
(0.00134793 -0.0535936 0.0117767)
(0.00249675 -0.0515857 0.0112633)
(0.00212556 -0.0458814 0.0100559)
(0.000651887 -0.0455025 0.0106774)
(-0.00151393 -0.0443951 0.0115338)
(-0.00311365 -0.0461029 0.0119459)
(-0.0056035 -0.0468798 0.01117)
(-0.00851424 -0.0476599 0.00988216)
(-0.00939632 -0.0453827 0.00866068)
(-0.00895633 -0.0433364 0.00736175)
(-0.00941321 -0.0407407 0.00683865)
(-0.00939701 -0.0374618 0.00679708)
(-0.00774954 -0.0345914 0.00721383)
(-0.00570685 -0.0309604 0.00724393)
(-0.00398375 -0.0274083 0.00789743)
(-0.00301775 -0.0265112 0.00913694)
(-0.00323826 -0.0269972 0.00920267)
(-0.00380492 -0.0268784 0.00801192)
(-0.00343652 -0.0258206 0.00688368)
(-0.00300641 -0.0226088 0.00537484)
(-0.00318861 -0.0177717 0.00383047)
(-0.00364782 -0.0125626 0.00247859)
(-0.0041326 -0.0063596 0.0016582)
(-0.00330915 -0.000440656 0.0026964)
(-0.00159618 0.00444824 0.00405576)
(-0.00128668 0.00972619 0.00604175)
(-0.00118786 0.0113522 0.00983378)
(-0.000360744 0.0115989 0.0144158)
(0.0026638 0.00392322 0.0200398)
(0.0224798 0.0207155 0.00413648)
(0.0244412 0.0115773 0.00403376)
(0.0145408 0.00693853 0.00126706)
(0.013494 0.00634643 0.00218428)
(0.00704393 0.00180517 0.00290456)
(0.00617319 0.00226581 0.00313554)
(0.00356244 0.000311423 0.00370029)
(0.00315963 0.00156905 0.00359453)
(0.00224206 0.0015708 0.0035211)
(0.00215968 0.00278314 0.0035995)
(0.00207982 0.00298696 0.00366801)
(0.00273719 0.00348553 0.00396208)
(0.00318313 0.00323701 0.0041417)
(0.00368827 0.00308724 0.00429647)
(0.00387592 0.00253974 0.00428343)
(0.00406635 0.00208139 0.00427171)
(0.00408228 0.0014971 0.0042233)
(0.0041243 0.00105895 0.00420192)
(0.00410276 0.000631775 0.00418293)
(0.00407794 0.000329496 0.00418912)
(0.00401864 7.39234e-05 0.00420646)
(0.00394784 -9.09852e-05 0.00424147)
(0.00386773 -0.00020568 0.00428273)
(0.0037824 -0.00026669 0.00433017)
(0.00369023 -0.000298296 0.00438057)
(0.00359599 -0.000308525 0.00443255)
(0.00350094 -0.000310732 0.00448597)
(0.00340584 -0.000311701 0.00454222)
(0.00331187 -0.000314708 0.00460055)
(0.00321365 -0.000335139 0.0046606)
(0.00311589 -0.000354483 0.00472204)
(0.00301243 -0.00042659 0.00478472)
(0.00292254 -0.000464119 0.00484915)
(0.0028248 -0.00062384 0.00491281)
(0.00277452 -0.000656913 0.00497648)
(0.00272611 -0.000922106 0.00503202)
(0.00275908 -0.00088434 0.00507903)
(0.00277436 -0.00123722 0.00509963)
(0.00286507 -0.00101354 0.00508836)
(0.00288223 -0.00138346 0.00501626)
(0.00293532 -0.000808455 0.00485751)
(0.00287562 -0.00115442 0.00462271)
(0.00300025 -0.000220774 0.00437352)
(0.00346954 -0.000780552 0.00413601)
(0.0043204 0.000580986 0.0036432)
(0.00507634 0.000564483 0.00307607)
(0.00497724 0.00322483 0.00210688)
(0.00553128 0.00265849 0.000775829)
(0.0109874 0.00523873 -0.000429394)
(0.0270411 -0.00208422 -0.000246757)
(0.0516946 -0.00497302 -0.00152729)
(0.0683044 -0.0136912 -6.92333e-05)
(0.0746287 -0.00903525 0.00360058)
(0.0721314 -0.0268158 0.00658138)
(0.0643684 -0.0121331 0.0160389)
(0.0600037 -0.0773301 0.0246345)
(0.00572279 -0.0142864 0.0347863)
(0.0182022 -0.184091 0.0634261)
(-0.109723 0.0721065 -0.0604197)
(0.0297003 -0.115102 -0.0171662)
(0.200177 -0.239001 0.105283)
(0.107925 0.0560152 0.0474946)
(0.0738914 -0.0870553 0.0235693)
(0.0464135 -0.00203127 0.0156919)
(0.0296007 -0.0315601 0.0134661)
(0.0191916 -0.0136984 0.0136883)
(0.0164264 -0.0180972 0.0138053)
(0.0122589 -0.0109722 0.0113742)
(0.0112093 -0.00664162 0.00995706)
(0.0115649 -0.000534856 0.0105228)
(0.0105556 -0.000527624 0.012457)
(0.00761038 -0.000429539 0.0137952)
(0.00530225 -0.00372132 0.014123)
(0.00245563 -0.00508805 0.01338)
(-0.000707014 -0.00792661 0.0115031)
(-0.00245238 -0.00857718 0.00963545)
(-0.00330306 -0.00816601 0.00915717)
(-0.00481185 -0.00759146 0.0094433)
(-0.00645251 -0.00828934 0.0102667)
(-0.00636837 -0.0091694 0.0106042)
(-0.00510374 -0.00946056 0.0107301)
(-0.00349601 -0.00989572 0.0116176)
(-0.00264925 -0.0121287 0.013077)
(-0.00418253 -0.014751 0.0126424)
(-0.00545946 -0.0171432 0.0116518)
(-0.0059705 -0.0182133 0.00987161)
(-0.00604316 -0.0170541 0.00726437)
(-0.00608325 -0.0149951 0.00443755)
(-0.00588509 -0.0119401 0.00137156)
(-0.00561072 -0.00623609 -0.000260659)
(-0.00497794 -0.00148243 0.00239692)
(-0.00442544 0.00238562 0.00553872)
(-0.00391493 0.00569566 0.00866846)
(-0.00359214 0.00609734 0.0122469)
(-0.00434757 0.00688392 0.0167863)
(-0.00395434 0.000899011 0.0216923)
(0.0236654 0.0207881 0.00438123)
(0.0271078 0.0148363 0.0045374)
(0.0165222 0.00865773 0.00101136)
(0.0163747 0.00944943 0.00144138)
(0.00883578 0.00367194 0.00206674)
(0.0074675 0.00433011 0.00253789)
(0.00320668 0.000864809 0.00347779)
(0.00226064 0.00180693 0.00346294)
(0.000933444 0.00109366 0.00356765)
(0.00108983 0.00231078 0.00371001)
(0.00102916 0.00217547 0.00386623)
(0.0016654 0.00278218 0.00426824)
(0.00203487 0.00273931 0.00446836)
(0.00256196 0.0028844 0.00462735)
(0.00277895 0.00252745 0.00459883)
(0.00299078 0.00224607 0.00460062)
(0.00299623 0.00174973 0.00457145)
(0.00302377 0.00138227 0.00457774)
(0.00297384 0.000983121 0.00457452)
(0.00292753 0.000688072 0.00458717)
(0.00284062 0.000414257 0.00460196)
(0.00274549 0.000214347 0.00462857)
(0.00263574 5.1193e-05 0.00466043)
(0.00252311 -5.92641e-05 0.00469875)
(0.00241005 -0.000133348 0.00474077)
(0.00230097 -0.000175698 0.00478619)
(0.00219829 -0.000199407 0.00483286)
(0.00210275 -0.000214293 0.00488044)
(0.00201318 -0.000227177 0.00492955)
(0.00192594 -0.00025188 0.0049805)
(0.00184515 -0.000273551 0.00503335)
(0.00176452 -0.000335215 0.00508624)
(0.00170268 -0.000356732 0.00513632)
(0.00163681 -0.000475374 0.00517804)
(0.0016195 -0.000456272 0.005207)
(0.00159014 -0.000629624 0.00521496)
(0.00163903 -0.000477135 0.00519975)
(0.00164212 -0.000664469 0.00515136)
(0.00172506 -0.000252662 0.0050724)
(0.00171894 -0.000411249 0.00495254)
(0.00181318 0.000358802 0.00478263)
(0.00186929 0.000102017 0.0045782)
(0.00217525 0.000916181 0.00438879)
(0.00254934 9.85507e-05 0.00422719)
(0.0031698 0.000980175 0.00400182)
(0.00375164 0.000257344 0.00386226)
(0.0043393 0.00205781 0.00350176)
(0.00618591 -0.000639443 0.00239794)
(0.0145075 -0.000230982 0.00153003)
(0.0312042 -0.00816499 0.00174229)
(0.0554064 -0.00544801 0.00119921)
(0.0713211 -0.00209093 0.00462211)
(0.0784733 0.0124799 0.00927451)
(0.0764947 0.00664934 0.0129425)
(0.0690715 0.0289054 0.0254754)
(0.0628042 -0.0296351 0.0409011)
(0.0192118 0.0562863 0.0758489)
(0.0360083 -0.193795 0.101629)
(-0.144781 0.196327 -0.0402998)
(0.0301581 -0.207515 0.00937358)
(0.184871 -0.202677 0.1137)
(0.0799718 0.0830164 0.0350164)
(0.0523313 -0.0425385 0.0234858)
(0.015405 0.0462488 0.00402491)
(0.0102555 0.0234963 0.00756776)
(0.000201017 0.0437045 0.0082749)
(-0.000820338 0.0414377 0.00984093)
(-0.00150101 0.0486315 0.00980637)
(0.000895998 0.0480659 0.00888571)
(0.00222515 0.051705 0.00835601)
(0.00261106 0.0501625 0.00928251)
(0.00215103 0.048365 0.00962949)
(0.000283145 0.0442117 0.00977262)
(-0.00249563 0.0413037 0.00967827)
(-0.00499101 0.0368695 0.00882617)
(-0.00671551 0.0340203 0.00904699)
(-0.00833509 0.0298041 0.00934024)
(-0.00937538 0.0268992 0.00921514)
(-0.0100954 0.0227665 0.0105424)
(-0.0098673 0.020148 0.0116498)
(-0.009581 0.017094 0.0129485)
(-0.00936271 0.0147803 0.0132809)
(-0.00937849 0.0127298 0.0140555)
(-0.0101467 0.00945423 0.0133241)
(-0.0118038 0.00668418 0.0124433)
(-0.0127757 0.00414538 0.0109547)
(-0.0120444 0.002709 0.00677319)
(-0.0104412 0.00320319 0.00370609)
(-0.0102135 0.00304792 0.000948456)
(-0.0091453 0.00617307 -0.000669006)
(-0.007874 0.00852011 0.00316944)
(-0.00729426 0.00849427 0.00647738)
(-0.00722772 0.00817907 0.00955905)
(-0.00838496 0.00568206 0.0138575)
(-0.0119701 0.0052245 0.0174244)
(-0.0137564 -0.000411163 0.022063)
(0.023682 0.020946 0.00452539)
(0.028967 0.0178789 0.00517264)
(0.0181432 0.00990532 0.000881839)
(0.0193667 0.0117171 0.000988366)
(0.0109351 0.00435474 0.000396885)
(0.00938147 0.00584661 0.000980315)
(0.00376201 0.00115293 0.0021566)
(0.00213287 0.00230412 0.00264341)
(-0.000217091 0.000271243 0.00302669)
(-0.000301715 0.00141137 0.00340666)
(-0.000626923 0.00101227 0.00365321)
(-0.000241082 0.00190387 0.00421256)
(-4.30545e-05 0.0021055 0.00442397)
(0.000527075 0.00255446 0.00461282)
(0.000786846 0.00236366 0.0045563)
(0.000999642 0.00219323 0.00457593)
(0.000949679 0.00175456 0.00455845)
(0.000885523 0.00145371 0.00458682)
(0.000748943 0.00110184 0.00458623)
(0.000638845 0.000841808 0.00458842)
(0.000506223 0.00057444 0.00457759)
(0.000384011 0.00036039 0.00457397)
(0.000260858 0.000171004 0.00457432)
(0.000140891 3.06781e-05 0.00458248)
(2.19383e-05 -7.4506e-05 0.00459561)
(-8.62939e-05 -0.000145311 0.00461471)
(-0.000181954 -0.000193352 0.00463802)
(-0.000263922 -0.000227624 0.00466404)
(-0.000336126 -0.000253537 0.00469014)
(-0.000405232 -0.000280117 0.00471632)
(-0.000470082 -0.000296197 0.00474241)
(-0.000535691 -0.000336617 0.004766)
(-0.000585388 -0.000328854 0.00478449)
(-0.000640624 -0.000388808 0.0047899)
(-0.000645807 -0.000299536 0.00477685)
(-0.000664466 -0.000363579 0.00473333)
(-0.000602923 -9.44581e-05 0.00465858)
(-0.000594984 -0.000118923 0.00454405)
(-0.000498301 0.000460023 0.0044061)
(-0.000496819 0.000481372 0.00425745)
(-0.000304843 0.00134395 0.00413325)
(-7.17434e-05 0.00104684 0.00401677)
(0.000522238 0.00166169 0.00385641)
(0.00112456 0.000519005 0.00364865)
(0.00183796 0.000967595 0.00359442)
(0.00232037 -0.000371878 0.00367338)
(0.00349967 0.000304117 0.00412322)
(0.00691824 -0.00387632 0.0037173)
(0.016811 -0.00569287 0.00372346)
(0.0318307 -0.00996187 0.00535894)
(0.0498883 0.000487103 0.0068849)
(0.0640487 0.0147471 0.0125807)
(0.0705113 0.0414146 0.0165931)
(0.0696931 0.0481759 0.0205868)
(0.0634373 0.0776052 0.0365049)
(0.053688 0.0369622 0.0522543)
(0.0253546 0.128234 0.0875645)
(0.0347248 -0.116212 0.104742)
(-0.116641 0.306952 -0.0107652)
(0.0187227 -0.26878 0.0172168)
(0.161928 -0.165781 0.116504)
(0.0616054 0.0957856 0.0290524)
(0.0525135 -0.00045336 0.0260457)
(0.0172002 0.0783855 0.00308576)
(0.0159289 0.0660933 0.00845126)
(0.00590894 0.0835364 0.00894813)
(0.00495795 0.0822848 0.0101714)
(0.0022487 0.0888699 0.0090929)
(0.00283147 0.0892155 0.00859409)
(0.00323015 0.0931317 0.00914344)
(0.00446727 0.0917786 0.0107)
(0.00414744 0.0917154 0.0111408)
(0.00408725 0.0895825 0.0112865)
(0.00333541 0.086521 0.0112637)
(0.00266714 0.0818813 0.0118039)
(0.000959566 0.0768076 0.0115087)
(-0.00050354 0.072209 0.0108348)
(-0.00259303 0.0679908 0.0103828)
(-0.00472672 0.0643001 0.0116221)
(-0.00637138 0.0611557 0.0132315)
(-0.00781966 0.05736 0.0148161)
(-0.00971521 0.0516814 0.0163716)
(-0.0106823 0.045258 0.0168941)
(-0.0112586 0.0385912 0.0150798)
(-0.0115551 0.0324232 0.0116043)
(-0.0103212 0.0280626 0.0070414)
(-0.00831522 0.0257012 0.00274076)
(-0.00653969 0.0248348 0.000921967)
(-0.00671058 0.0243547 -4.15111e-05)
(-0.00580392 0.0237329 0.00304971)
(-0.00653868 0.0214635 0.00702936)
(-0.0067367 0.0178447 0.00931426)
(-0.00729863 0.0150665 0.0130199)
(-0.0106363 0.0087491 0.0164324)
(-0.0174403 0.00689094 0.018121)
(-0.024021 -0.000690688 0.020993)
(0.0223407 0.020601 0.00509046)
(0.0303053 0.0212667 0.00645698)
(0.0188564 0.0109631 0.00174878)
(0.0215875 0.0137866 0.0022945)
(0.0133117 0.00384961 -0.000105409)
(0.0114056 0.00635205 -9.6973e-05)
(0.00485569 0.00051244 0.000803921)
(0.00252405 0.00270009 0.00151063)
(-0.000375119 -0.000355779 0.00217053)
(-0.00127807 0.000676794 0.00277867)
(-0.00190588 -0.000282172 0.003075)
(-0.00172482 0.000848685 0.00380099)
(-0.00146141 0.00130379 0.00410841)
(-0.000703702 0.00211412 0.00448683)
(-0.000234618 0.00199103 0.00458069)
(5.41689e-05 0.00189403 0.00472876)
(-1.56278e-05 0.00147785 0.0047552)
(-0.000147684 0.00125917 0.00479335)
(-0.000341265 0.00100262 0.00476707)
(-0.000487682 0.000851178 0.0047293)
(-0.000643194 0.000673803 0.00466004)
(-0.000780916 0.000528744 0.00458725)
(-0.000922219 0.000381626 0.00451391)
(-0.00105065 0.000261487 0.00445024)
(-0.001162 0.000163927 0.00439543)
(-0.00125226 9.56311e-05 0.00434966)
(-0.00132125 4.67139e-05 0.00431286)
(-0.00137377 1.08882e-05 0.00428477)
(-0.00141838 -1.68035e-05 0.00426463)
(-0.00145692 -4.0806e-05 0.0042541)
(-0.00148878 -4.68565e-05 0.00425203)
(-0.00151748 -5.83071e-05 0.00425217)
(-0.00153131 -1.05558e-05 0.00424969)
(-0.00154995 -6.82131e-07 0.00423135)
(-0.00153031 0.000164253 0.00418977)
(-0.00153806 0.000206422 0.00411176)
(-0.00149634 0.000562612 0.00399564)
(-0.0015399 0.000634014 0.00383443)
(-0.00150349 0.00123395 0.00365845)
(-0.00150684 0.00123522 0.00351776)
(-0.00122906 0.00196425 0.00347329)
(-0.000806831 0.00155423 0.00350074)
(8.37908e-06 0.00203691 0.00346687)
(0.000740753 0.000796814 0.00343255)
(0.00148034 0.00115355 0.00367757)
(0.00189866 -0.000581435 0.00404897)
(0.00369129 -0.00130963 0.00455011)
(0.00887007 -0.00601593 0.0044517)
(0.0164336 -0.00786202 0.00568813)
(0.0253309 -0.00908187 0.00998367)
(0.0357105 0.00619085 0.014315)
(0.0431865 0.0284848 0.0206278)
(0.0517487 0.0621327 0.0270747)
(0.0539275 0.0771696 0.0352383)
(0.0503569 0.105604 0.0516084)
(0.044225 0.0700411 0.0612069)
(0.0361892 0.145521 0.0823262)
(0.0501722 -0.0893791 0.0817104)
(-0.0317083 0.347736 0.0227515)
(0.0196841 -0.306871 0.0242242)
(0.105415 -0.123546 0.110539)
(0.0270331 0.112349 0.0176195)
(0.0235354 0.0480153 0.019104)
(-0.00143447 0.113984 0.00294025)
(-0.000923862 0.112593 0.010803)
(-0.00563412 0.126584 0.0119983)
(-0.00372011 0.125786 0.0133332)
(-0.0028677 0.131805 0.0132019)
(0.000143381 0.130945 0.0139121)
(0.00254839 0.133683 0.0148216)
(0.00531785 0.131828 0.0151699)
(0.00660411 0.131902 0.0148315)
(0.00784811 0.129646 0.0145751)
(0.00776326 0.128423 0.0145984)
(0.0068775 0.125318 0.0147867)
(0.00510092 0.121593 0.0145192)
(0.00310229 0.117351 0.0144137)
(0.00101054 0.112946 0.0149942)
(-0.00147588 0.107285 0.0161772)
(-0.0041253 0.0992794 0.0173665)
(-0.00672058 0.0905517 0.0178682)
(-0.00876303 0.0807673 0.017404)
(-0.00907819 0.0713983 0.0151453)
(-0.00858772 0.0628367 0.0109542)
(-0.00806742 0.0568282 0.00630013)
(-0.00692924 0.0532048 0.00217599)
(-0.00550162 0.0512296 -0.000974096)
(-0.00518067 0.0500338 -0.00140967)
(-0.00576882 0.0474701 0.00169492)
(-0.00705372 0.0423979 0.00689694)
(-0.00869732 0.0358134 0.00905136)
(-0.0100123 0.0298069 0.0115289)
(-0.0115587 0.0241996 0.0156813)
(-0.0155896 0.0158357 0.0189914)
(-0.0228488 0.0112628 0.020094)
(-0.029329 0.000151222 0.0189381)
(0.0188746 0.0190934 0.00525159)
(0.0303485 0.0250114 0.0085185)
(0.0177679 0.0114424 0.00367805)
(0.0216066 0.0159884 0.00500964)
(0.0140408 0.0028775 0.00152555)
(0.0121063 0.0060269 0.000714181)
(0.0048964 -0.000888239 0.000908679)
(0.00247637 0.00263201 0.00112607)
(-0.000777543 -0.000706917 0.00163723)
(-0.00221169 0.000583989 0.00240921)
(-0.00357762 -0.000950161 0.00261894)
(-0.0042602 0.00021931 0.00339443)
(-0.00439303 0.000592619 0.00382125)
(-0.00339784 0.00150952 0.00458688)
(-0.00279216 0.00136971 0.00498605)
(-0.00251363 0.00140464 0.00532122)
(-0.00272417 0.00107588 0.00538982)
(-0.00305585 0.000989902 0.00539358)
(-0.0034078 0.0008542 0.00529764)
(-0.00363976 0.000840376 0.00518882)
(-0.00382402 0.000793026 0.00504575)
(-0.00394898 0.000774163 0.00490506)
(-0.00405114 0.000730764 0.00476841)
(-0.0041358 0.000690852 0.00465256)
(-0.00421717 0.000652795 0.00456105)
(-0.00427012 0.000627491 0.00448632)
(-0.00429486 0.000604271 0.00442662)
(-0.00429358 0.000582051 0.00438886)
(-0.00427953 0.00055993 0.00437165)
(-0.00426668 0.000540742 0.00437248)
(-0.00426061 0.000545363 0.00438744)
(-0.00425932 0.000562464 0.00440672)
(-0.00425714 0.000652657 0.00442115)
(-0.00426549 0.000730849 0.00441416)
(-0.00423669 0.000955731 0.0043834)
(-0.00422459 0.00106062 0.00431904)
(-0.00414426 0.00142175 0.00423135)
(-0.0041158 0.00144708 0.00410981)
(-0.00398975 0.001866 0.00397154)
(-0.00391787 0.00160744 0.00383096)
(-0.00359264 0.00201797 0.00374578)
(-0.00314622 0.00142812 0.00366971)
(-0.00217891 0.00191995 0.00362214)
(-0.00132348 0.000883672 0.00379285)
(-0.000553994 0.00121368 0.00419829)
(0.000399726 -0.000724511 0.00459216)
(0.00351319 -0.0021455 0.00489648)
(0.00851851 -0.00570338 0.00510177)
(0.0138676 -0.00558108 0.00661232)
(0.0154979 -0.00201477 0.0121486)
(0.0134041 0.0179893 0.0197242)
(0.0167736 0.0410729 0.0262491)
(0.0237406 0.0785771 0.0337943)
(0.0295844 0.10034 0.0428821)
(0.0367073 0.126328 0.0553507)
(0.0431456 0.091765 0.060546)
(0.0537054 0.160047 0.0721056)
(0.0493925 -0.0682751 0.0622618)
(0.0118203 0.345955 0.0555407)
(0.00869543 -0.325457 0.0300372)
(0.044202 -0.0816342 0.095351)
(0.000608806 0.127243 0.0181981)
(0.001473 0.0919649 0.015867)
(-0.0116068 0.149079 0.0048134)
(-0.00727473 0.147183 0.0139292)
(-0.00738681 0.158087 0.0143766)
(-0.00475652 0.155871 0.0149995)
(-0.00373412 0.161327 0.0149773)
(-0.00150686 0.162011 0.015968)
(0.00107723 0.165499 0.0165207)
(0.00468706 0.164955 0.0165099)
(0.00654801 0.168053 0.0159578)
(0.00870584 0.168247 0.0164218)
(0.00893445 0.16847 0.0167062)
(0.00896716 0.166069 0.0175255)
(0.00775724 0.162347 0.0176673)
(0.00644883 0.156635 0.0178726)
(0.00452781 0.149267 0.0180738)
(0.00264703 0.14113 0.0181459)
(0.000513513 0.1318 0.018617)
(-0.00104507 0.12156 0.0183704)
(-0.00185447 0.111295 0.0164106)
(-0.00107329 0.102489 0.0129966)
(-0.000177856 0.0957645 0.00860251)
(0.000807182 0.0914897 0.00436237)
(0.00149305 0.0874371 -0.000250388)
(0.00111065 0.0843662 -0.00235093)
(0.000549481 0.0801727 -0.000702563)
(0.000169563 0.0729621 0.00150553)
(-0.00105843 0.0644067 0.00442026)
(-0.0038532 0.0532987 0.00605069)
(-0.00783791 0.0432588 0.00793591)
(-0.0121174 0.0333657 0.0108788)
(-0.018072 0.0224105 0.0133551)
(-0.0260665 0.0144835 0.0157923)
(-0.037422 9.3292e-05 0.0125576)
(0.0158688 0.0138847 0.00432166)
(0.0292135 0.0281015 0.00940309)
(0.0152557 0.0115124 0.00441297)
(0.0204462 0.0189976 0.00598716)
(0.0137493 0.00310634 0.00262988)
(0.0114335 0.00616295 0.00160549)
(0.00333354 -0.00209889 0.00166892)
(0.000888719 0.00239003 0.00136212)
(-0.00148255 -0.00127407 0.00211025)
(-0.00303006 0.000863706 0.00277672)
(-0.00432848 -0.00102405 0.00305989)
(-0.00510362 -1.86231e-05 0.00391764)
(-0.00506719 -0.000534229 0.00461064)
(-0.00390671 0.000110337 0.00563696)
(-0.00326535 -0.000109361 0.00636247)
(-0.00301004 0.000308923 0.0069635)
(-0.00320624 0.000364498 0.00723553)
(-0.00348688 0.000674131 0.00732911)
(-0.00378608 0.000791626 0.00726215)
(-0.0039702 0.000992356 0.00714517)
(-0.00412183 0.00109751 0.00697609)
(-0.00421589 0.0011939 0.00680514)
(-0.00428677 0.00123048 0.00664114)
(-0.00433392 0.00124962 0.00650006)
(-0.0043679 0.0012425 0.00638044)
(-0.00437539 0.00122596 0.00628653)
(-0.00435538 0.00120556 0.00621806)
(-0.00431186 0.00118307 0.0061731)
(-0.00426009 0.00115874 0.00614817)
(-0.00421544 0.00114192 0.00614102)
(-0.00418684 0.00115744 0.00614415)
(-0.00417274 0.00120145 0.00614539)
(-0.00416962 0.00132615 0.00613599)
(-0.00417281 0.00145067 0.00610758)
(-0.00413535 0.00169565 0.00605952)
(-0.00411143 0.00180468 0.00598592)
(-0.00400836 0.00209588 0.00589931)
(-0.00393765 0.00202305 0.00579106)
(-0.00372826 0.00227323 0.00567958)
(-0.00357825 0.00188176 0.00556001)
(-0.00326239 0.00212049 0.00546703)
(-0.00290588 0.00140747 0.00537778)
(-0.00205894 0.00181341 0.00536131)
(-0.00120549 0.000767651 0.00556067)
(-0.000485334 0.00115119 0.00587509)
(0.000738973 -0.00123574 0.00584903)
(0.00350448 -0.00130825 0.00527511)
(0.0063152 -0.00155557 0.00552112)
(0.00728571 0.00243451 0.00782594)
(0.000957336 0.0109914 0.0166299)
(-0.00745096 0.0296005 0.0260961)
(-0.0121709 0.0505683 0.0307343)
(-0.00876449 0.0835336 0.0337829)
(0.00682874 0.109696 0.0392271)
(0.0254205 0.140152 0.0504027)
(0.0520082 0.12573 0.057345)
(0.077217 0.182269 0.0715297)
(0.0866492 -0.00921245 0.0656143)
(0.0961308 0.381432 0.0398238)
(-0.00299181 -0.347593 0.0299318)
(-0.0415483 -0.046766 0.064237)
(-0.0348493 0.160655 -0.00553445)
(-0.0324297 0.13266 0.00409337)
(-0.0246298 0.180627 -0.000459955)
(-0.0182758 0.174558 0.00900025)
(-0.0114114 0.179674 0.00864421)
(-0.00817042 0.176822 0.00904927)
(-0.00453593 0.179567 0.00868259)
(-0.00109375 0.180004 0.00953417)
(0.00320398 0.181118 0.0106686)
(0.00609251 0.181165 0.0110594)
(0.00774732 0.183156 0.0114196)
(0.00994344 0.184236 0.0125878)
(0.0123169 0.186075 0.014325)
(0.0142091 0.185264 0.0161577)
(0.0151121 0.181993 0.0178077)
(0.0155374 0.176968 0.0190792)
(0.0152563 0.170221 0.019917)
(0.0142874 0.162505 0.0202653)
(0.0131575 0.154039 0.0200791)
(0.0118621 0.145964 0.0193893)
(0.0111871 0.13753 0.0179437)
(0.0106231 0.130777 0.0153461)
(0.00996146 0.126386 0.0112634)
(0.0089806 0.124009 0.00800153)
(0.00732359 0.122642 0.00613693)
(0.0067125 0.120552 0.00588656)
(0.00684109 0.117326 0.00586353)
(0.00737615 0.113258 0.00647308)
(0.00706162 0.107883 0.00859754)
(0.00483565 0.0987586 0.0111779)
(0.000620489 0.0879047 0.0140362)
(-0.00372828 0.074439 0.016518)
(-0.0104709 0.0565789 0.01679)
(-0.0198696 0.0355675 0.0117385)
(-0.0289406 0.0076334 -0.00362249)
(0.00651967 0.00875269 -0.00232857)
(0.026659 0.0298329 0.00763939)
(0.0112653 0.0119344 0.00212823)
(0.0184093 0.0229616 0.0037205)
(0.0130085 0.00533416 0.0014006)
(0.0106543 0.00771141 0.000306552)
(0.00138498 -0.00242938 -0.00171796)
(-0.000697294 0.00278267 -0.00200365)
(-0.00378987 -0.00114207 -0.00115095)
(-0.00510954 0.00141033 -0.000475006)
(-0.00648745 -0.000901854 -9.04897e-05)
(-0.00724954 -0.000153993 0.000764212)
(-0.00769954 -0.00140202 0.00148949)
(-0.00713497 -0.000855102 0.00236422)
(-0.00709693 -0.00098296 0.00309412)
(-0.0071652 -0.000274958 0.00371232)
(-0.007573 -9.71751e-06 0.00417219)
(-0.0079136 0.000507829 0.00445667)
(-0.0082594 0.000750666 0.00456902)
(-0.0084493 0.00105493 0.00458459)
(-0.008542 0.00123043 0.00452282)
(-0.00854203 0.00138718 0.00444018)
(-0.00851666 0.00147299 0.00435489)
(-0.00847273 0.00152754 0.00428111)
(-0.00841891 0.00154607 0.00421686)
(-0.00834874 0.00154596 0.00416462)
(-0.0082618 0.00153693 0.00412463)
(-0.00816139 0.00152812 0.0040969)
(-0.0080618 0.0015237 0.00407946)
(-0.00799399 0.00152991 0.00407025)
(-0.00796549 0.00156355 0.0040649)
(-0.00795619 0.00162378 0.00405492)
(-0.0079573 0.00174825 0.00403488)
(-0.00794832 0.00186268 0.0039998)
(-0.00787102 0.00207461 0.0039479)
(-0.00776965 0.00216076 0.0038834)
(-0.00756936 0.0024197 0.00380636)
(-0.00740205 0.00235787 0.00371626)
(-0.00717412 0.00259779 0.0036011)
(-0.00705338 0.0022065 0.00346921)
(-0.00671999 0.00236961 0.00332205)
(-0.00633559 0.00153545 0.00318274)
(-0.0054831 0.00169252 0.00307211)
(-0.0046517 0.00042244 0.00319237)
(-0.00373708 0.000581146 0.00328036)
(-0.00279864 -0.00197345 0.00262552)
(-0.00114558 0.000248933 0.0022297)
(-1.50579e-05 0.000375607 0.0025477)
(-0.00297662 0.00714763 0.00549069)
(-0.0137133 0.0130515 0.0146465)
(-0.0286409 0.0242281 0.0261359)
(-0.0339894 0.0336933 0.0311724)
(-0.0331772 0.0561632 0.0300471)
(-0.0195179 0.067081 0.0260569)
(0.000753077 0.112459 0.0340663)
(0.0369279 0.0796376 0.0401903)
(0.0735316 0.17921 0.0599201)
(0.0992226 -0.0313294 0.0658579)
(0.179268 0.406897 0.034141)
(-0.00929194 -0.329814 0.0241525)
(-0.113284 -0.0863359 0.0445432)
(-0.0571999 0.151448 -0.00996763)
(-0.0545999 0.089676 0.00322338)
(-0.0266302 0.140881 0.00208342)
(-0.0236992 0.114409 0.0117697)
(-0.0100316 0.116017 0.00939651)
(-0.00803806 0.104121 0.00765689)
(-0.00470565 0.102436 0.00572177)