/*--------------------------------*- C++ -*----------------------------------*\
| =========                 |                                                 |
| \\      /  F ield         | OpenFOAM: The Open Source CFD Toolbox           |
|  \\    /   O peration     | Version:  2.3.0                                 |
|   \\  /    A nd           | Web:      www.OpenFOAM.org                      |
|    \\/     M anipulation  |                                                 |
\*---------------------------------------------------------------------------*/
FoamFile
{
    version     2.0;
    format      ascii;
    class       volScalarField;
    location    "15";
    object      alpha.air;
}
// * * * * * * * * * * * * * * * * * * * * * * * * * * * * * * * * * * * * * //

dimensions      [0 0 0 0 0 0 0];

internalField   nonuniform List<scalar> 
6144
(
0.999992
0.999992
0.999991
0.999991
0.99999
0.99999
0.99999
0.99999
0.99999
0.99999
0.99999
0.99999
0.99999
0.99999
0.99999
0.99999
0.99999
0.99999
0.99999
0.99999
0.99999
0.99999
0.99999
0.99999
0.99999
0.99999
0.99999
0.99999
0.99999
0.99999
0.99999
0.99999
0.99999
0.99999
0.99999
0.99999
0.99999
0.99999
0.99999
0.99999
0.99999
0.99999
0.99999
0.99999
0.99999
0.99999
0.99999
0.99999
0.99999
0.999989
0.999987
0.999983
0.999977
0.99995
0.999918
0.999852
0.999795
0.999315
0.998101
0.942298
0.0387793
0.000231153
9.72947e-07
7.28766e-07
7.34125e-07
7.37273e-07
7.37321e-07
7.379e-07
7.40405e-07
7.44515e-07
7.46129e-07
7.45857e-07
7.44419e-07
7.4239e-07
7.41756e-07
7.41983e-07
7.43149e-07
7.46204e-07
7.51911e-07
7.57735e-07
7.60246e-07
7.60388e-07
7.59271e-07
7.55707e-07
7.53139e-07
7.52822e-07
7.53381e-07
7.38118e-07
5.79501e-07
2.61891e-07
2.66414e-07
3.2007e-07
3.43208e-07
3.58583e-07
3.64955e-07
3.30763e-07
0.999994
0.999993
0.999991
0.999992
0.999991
0.99999
0.99999
0.99999
0.99999
0.99999
0.99999
0.99999
0.99999
0.99999
0.99999
0.99999
0.99999
0.99999
0.99999
0.99999
0.99999
0.99999
0.99999
0.99999
0.99999
0.99999
0.99999
0.99999
0.99999
0.99999
0.99999
0.99999
0.99999
0.99999
0.99999
0.99999
0.99999
0.99999
0.99999
0.99999
0.99999
0.99999
0.99999
0.99999
0.99999
0.99999
0.99999
0.99999
0.99999
0.999989
0.999986
0.999982
0.999973
0.999945
0.999931
0.999861
0.999783
0.999212
0.998261
0.946451
0.0338413
4.76253e-05
7.34079e-07
7.54035e-07
7.47038e-07
7.4687e-07
7.47888e-07
7.47358e-07
7.46149e-07
7.44472e-07
7.4208e-07
7.39564e-07
7.38802e-07
7.38888e-07
7.39387e-07
7.40655e-07
7.42423e-07
7.44708e-07
7.47308e-07
7.48677e-07
7.49919e-07
7.51948e-07
7.5452e-07
7.54233e-07
7.52721e-07
7.53547e-07
7.54851e-07
7.15401e-07
4.9758e-07
2.64034e-07
2.9055e-07
3.53944e-07
3.76564e-07
3.92419e-07
4.03137e-07
3.64035e-07
0.999995
0.999994
0.999993
0.999993
0.999991
0.999991
0.99999
0.99999
0.99999
0.99999
0.99999
0.99999
0.99999
0.99999
0.99999
0.99999
0.99999
0.99999
0.99999
0.99999
0.99999
0.99999
0.99999
0.99999
0.99999
0.99999
0.99999
0.99999
0.99999
0.99999
0.99999
0.99999
0.99999
0.99999
0.99999
0.99999
0.99999
0.99999
0.99999
0.99999
0.99999
0.99999
0.99999
0.99999
0.99999
0.99999
0.99999
0.99999
0.99999
0.999989
0.999986
0.999983
0.999974
0.999949
0.999934
0.99984
0.999834
0.999385
0.999047
0.95178
0.0390969
9.40753e-07
7.34079e-07
7.61494e-07
7.49722e-07
7.5492e-07
7.60134e-07
7.59751e-07
7.57945e-07
7.55321e-07
7.53209e-07
7.52126e-07
7.51676e-07
7.5164e-07
7.51952e-07
7.5286e-07
7.5389e-07
7.55114e-07
7.56255e-07
7.56171e-07
7.55397e-07
7.53362e-07
7.4912e-07
7.49888e-07
7.5686e-07
7.54931e-07
7.0949e-07
5.49313e-07
3.47854e-07
2.7857e-07
3.02281e-07
3.57707e-07
3.83489e-07
4.03579e-07
4.1459e-07
3.7844e-07
0.999995
0.999995
0.999995
0.999995
0.999992
0.999992
0.999991
0.99999
0.99999
0.99999
0.99999
0.99999
0.99999
0.99999
0.99999
0.99999
0.99999
0.99999
0.99999
0.99999
0.99999
0.99999
0.99999
0.99999
0.99999
0.99999
0.99999
0.99999
0.99999
0.99999
0.99999
0.99999
0.99999
0.99999
0.99999
0.99999
0.99999
0.99999
0.99999
0.99999
0.99999
0.99999
0.99999
0.99999
0.99999
0.99999
0.99999
0.99999
0.99999
0.999989
0.999987
0.999984
0.999978
0.999954
0.999918
0.999831
0.999822
0.999519
0.999623
0.932475
0.0424569
7.34074e-07
8.22523e-07
9.2869e-07
9.88594e-07
8.31409e-07
7.77868e-07
7.59425e-07
7.52303e-07
7.5023e-07
7.50262e-07
7.51158e-07
7.53157e-07
7.54571e-07
7.55108e-07
7.552e-07
7.54703e-07
7.5457e-07
7.54756e-07
7.55325e-07
7.57522e-07
7.57792e-07
7.52867e-07
7.4399e-07
7.2226e-07
6.61329e-07
5.52823e-07
4.36386e-07
3.63825e-07
3.37816e-07
3.45928e-07
3.69434e-07
3.95718e-07
4.17913e-07
4.24994e-07
3.81237e-07
0.999995
0.999996
0.999995
0.999995
0.999994
0.999993
0.999992
0.999991
0.99999
0.99999
0.99999
0.99999
0.99999
0.99999
0.99999
0.99999
0.99999
0.99999
0.99999
0.99999
0.99999
0.99999
0.99999
0.99999
0.99999
0.99999
0.99999
0.99999
0.99999
0.99999
0.99999
0.99999
0.99999
0.99999
0.99999
0.99999
0.99999
0.99999
0.99999
0.99999
0.99999
0.99999
0.99999
0.99999
0.99999
0.99999
0.99999
0.99999
0.99999
0.999989
0.999987
0.999984
0.999977
0.999962
0.999902
0.999808
0.999804
0.999644
0.999868
0.829986
0.00342655
1.76819e-05
7.18501e-06
3.44996e-06
2.04128e-06
9.90843e-07
7.96459e-07
6.64773e-07
6.58838e-07
6.1896e-07
6.02256e-07
5.97165e-07
5.83356e-07
5.63954e-07
5.61703e-07
5.90525e-07
6.29352e-07
6.57614e-07
6.71941e-07
6.72781e-07
6.65961e-07
6.36164e-07
6.02462e-07
5.58192e-07
5.06544e-07
4.59018e-07
4.27434e-07
4.11022e-07
3.97056e-07
3.89458e-07
3.92658e-07
3.99487e-07
4.22288e-07
4.41729e-07
4.41538e-07
3.86212e-07
0.999995
0.999996
0.999996
0.999996
0.999995
0.999994
0.999993
0.999991
0.999991
0.99999
0.99999
0.99999
0.99999
0.99999
0.99999
0.99999
0.99999
0.99999
0.99999
0.99999
0.99999
0.99999
0.99999
0.99999
0.99999
0.99999
0.99999
0.99999
0.99999
0.99999
0.99999
0.99999
0.99999
0.99999
0.99999
0.99999
0.99999
0.99999
0.99999
0.99999
0.99999
0.99999
0.99999
0.99999
0.99999
0.99999
0.99999
0.99999
0.99999
0.999989
0.999987
0.999982
0.999972
0.999956
0.999898
0.999811
0.999819
0.999757
0.99999
0.645951
0.00334155
0.0010497
0.000873522
0.000806027
0.000659028
0.000372656
0.000197102
0.000139585
0.000121801
0.0001103
8.36511e-05
4.86114e-05
3.04213e-05
2.33023e-05
1.7387e-05
9.29508e-06
4.96661e-06
2.67503e-06
1.29761e-06
7.02907e-07
5.66659e-07
6.28583e-07
4.80446e-07
4.80446e-07
6.18232e-07
1.50427e-06
1.09412e-06
5.47407e-07
6.34854e-07
5.81963e-07
2.40437e-07
2.40437e-07
3.63175e-07
4.2701e-07
4.05007e-07
3.14969e-07
0.999995
0.999996
0.999996
0.999996
0.999995
0.999995
0.999993
0.999992
0.999991
0.999991
0.99999
0.99999
0.99999
0.99999
0.99999
0.99999
0.99999
0.99999
0.99999
0.99999
0.99999
0.99999
0.99999
0.99999
0.99999
0.99999
0.99999
0.99999
0.99999
0.99999
0.99999
0.99999
0.99999
0.99999
0.99999
0.99999
0.99999
0.99999
0.99999
0.99999
0.99999
0.99999
0.99999
0.99999
0.99999
0.99999
0.99999
0.99999
0.99999
0.999989
0.999987
0.99998
0.999966
0.999948
0.999921
0.999849
0.999789
0.999723
0.99999
0.431213
0.0128785
0.0110226
0.011819
0.0119517
0.0106055
0.00905425
0.00823171
0.00918239
0.00980067
0.00902067
0.00729948
0.00575447
0.00538501
0.0055315
0.00545077
0.00433206
0.0037224
0.00334047
0.00297496
0.00252813
0.00210246
0.00186878
0.00177211
0.00168118
0.00153193
0.00127015
0.00104334
0.00086469
0.000670599
0.0004298
0.000223496
7.25142e-05
6.72419e-07
2.91497e-07
2.91497e-07
9.50881e-06
0.999995
0.999995
0.999996
0.999996
0.999996
0.999995
0.999994
0.999992
0.999992
0.999991
0.99999
0.99999
0.99999
0.99999
0.99999
0.99999
0.99999
0.99999
0.99999
0.99999
0.99999
0.99999
0.99999
0.99999
0.99999
0.99999
0.99999
0.99999
0.99999
0.99999
0.99999
0.99999
0.99999
0.99999
0.99999
0.99999
0.99999
0.99999
0.99999
0.99999
0.99999
0.99999
0.99999
0.99999
0.99999
0.99999
0.99999
0.99999
0.99999
0.999989
0.999988
0.999984
0.999971
0.99995
0.999942
0.999836
0.999773
0.999695
0.99999
0.377612
0.0307479
0.0284678
0.0277358
0.027033
0.026966
0.0288612
0.0316198
0.0325423
0.0326309
0.0320267
0.0307434
0.0303538
0.0302822
0.030275
0.0303881
0.0305917
0.0306817
0.0307449
0.0307995
0.0308086
0.03066
0.0303959
0.0302227
0.0300886
0.0299573
0.0297651
0.0295246
0.0292702
0.0290105
0.0285061
0.0281212
0.0276754
0.0264676
0.0251175
0.0216365
0.0171534
0.999995
0.999995
0.999996
0.999995
0.999996
0.999995
0.999994
0.999992
0.999992
0.999991
0.99999
0.99999
0.99999
0.99999
0.99999
0.99999
0.99999
0.99999
0.99999
0.99999
0.99999
0.99999
0.99999
0.99999
0.99999
0.99999
0.99999
0.99999
0.99999
0.99999
0.99999
0.99999
0.99999
0.99999
0.99999
0.99999
0.99999
0.99999
0.99999
0.99999
0.99999
0.99999
0.99999
0.99999
0.99999
0.99999
0.99999
0.99999
0.99999
0.999989
0.999988
0.999985
0.999968
0.999944
0.999937
0.999882
0.999828
0.999665
0.99998
0.605835
0.0227028
0.0107736
0.0091822
0.00922939
0.0098826
0.00980852
0.0108998
0.0120262
0.0121713
0.0133349
0.0138378
0.0113418
0.0107704
0.0111106
0.0119304
0.0126579
0.0125666
0.011596
0.0114785
0.013497
0.0153377
0.0152099
0.0132463
0.0128381
0.0126934
0.012196
0.0117669
0.0112678
0.0104999
0.00973363
0.0088345
0.00778026
0.00639672
0.00479025
0.00295037
0.00140472
0.999995
0.999995
0.999995
0.999995
0.999995
0.999994
0.999993
0.999992
0.999991
0.999991
0.99999
0.99999
0.99999
0.99999
0.99999
0.99999
0.99999
0.99999
0.99999
0.99999
0.99999
0.99999
0.99999
0.99999
0.99999
0.99999
0.99999
0.99999
0.99999
0.99999
0.99999
0.99999
0.99999
0.99999
0.99999
0.99999
0.99999
0.99999
0.99999
0.99999
0.99999
0.99999
0.99999
0.99999
0.99999
0.99999
0.99999
0.99999
0.99999
0.99999
0.999989
0.999987
0.999977
0.999946
0.999911
0.999878
0.99987
0.999605
0.999823
0.799653
0.0125272
0.00125602
0.000730663
0.000527531
0.000481772
0.000451118
0.000467232
0.000499149
0.0005015
0.000496166
0.000492677
0.00049746
0.000514826
0.000522164
0.000521677
0.000530235
0.000578575
0.000626621
0.00064002
0.000640928
0.000669701
0.000691593
0.000602723
0.000565996
0.000561083
0.000519484
0.000430988
0.000391598
0.00038127
0.000294325
0.000214163
0.00016586
0.00010893
5.85227e-05
2.31474e-05
8.34194e-06
0.999996
0.999995
0.999995
0.999994
0.999995
0.999993
0.999992
0.999991
0.999991
0.99999
0.99999
0.99999
0.99999
0.99999
0.99999
0.99999
0.99999
0.99999
0.99999
0.99999
0.99999
0.99999
0.99999
0.99999
0.99999
0.99999
0.99999
0.99999
0.99999
0.99999
0.99999
0.99999
0.99999
0.99999
0.99999
0.99999
0.99999
0.99999
0.99999
0.99999
0.99999
0.99999
0.99999
0.99999
0.99999
0.99999
0.99999
0.99999
0.99999
0.99999
0.999989
0.999988
0.999982
0.999952
0.999886
0.999872
0.999868
0.999436
0.999691
0.918666
0.0276701
3.17405e-05
6.43332e-06
1.72392e-06
1.20801e-06
7.30241e-07
1.38419e-06
9.72668e-07
5.50505e-07
5.71343e-07
1.25514e-06
1.38056e-06
6.56351e-07
5.19889e-07
8.00916e-07
1.71454e-06
1.30271e-06
6.8562e-07
1.17691e-06
2.08986e-06
1.26845e-06
8.07564e-07
8.41216e-07
1.03695e-06
9.56915e-07
8.52377e-07
7.23144e-07
5.91581e-07
3.98391e-07
2.01238e-07
1.98606e-07
1.98606e-07
2.10927e-07
1.98296e-07
2.03197e-07
1.98298e-07
0.999997
0.999996
0.999994
0.999994
0.999994
0.999992
0.999991
0.999991
0.99999
0.99999
0.99999
0.99999
0.99999
0.99999
0.99999
0.99999
0.99999
0.99999
0.99999
0.99999
0.99999
0.99999
0.99999
0.99999
0.99999
0.99999
0.99999
0.99999
0.99999
0.99999
0.99999
0.99999
0.99999
0.99999
0.99999
0.99999
0.99999
0.99999
0.99999
0.99999
0.99999
0.99999
0.99999
0.99999
0.99999
0.99999
0.99999
0.99999
0.99999
0.99999
0.999989
0.999988
0.999983
0.999966
0.999896
0.999847
0.999844
0.999315
0.999571
0.964296
0.0504
3.63321e-07
9.39901e-07
5.3935e-07
6.98239e-07
6.60722e-07
6.1859e-07
5.9478e-07
5.70969e-07
5.45508e-07
5.43012e-07
5.45066e-07
5.31775e-07
5.16978e-07
5.05917e-07
5.00363e-07
5.00219e-07
5.05066e-07
5.0913e-07
5.13417e-07
5.15245e-07
5.07852e-07
4.94255e-07
4.77191e-07
4.62621e-07
4.51905e-07
4.42547e-07
4.32221e-07
4.14069e-07
3.97488e-07
3.77876e-07
3.23154e-07
2.26131e-07
1.98292e-07
1.9829e-07
1.98293e-07
0.999999
0.999997
0.999994
0.999993
0.999993
0.999992
0.999991
0.99999
0.99999
0.99999
0.99999
0.99999
0.99999
0.99999
0.99999
0.99999
0.99999
0.99999
0.99999
0.99999
0.99999
0.99999
0.99999
0.99999
0.99999
0.99999
0.99999
0.99999
0.99999
0.99999
0.99999
0.99999
0.99999
0.99999
0.99999
0.99999
0.99999
0.99999
0.99999
0.99999
0.99999
0.99999
0.99999
0.99999
0.99999
0.99999
0.99999
0.99999
0.99999
0.99999
0.999989
0.999987
0.999982
0.999973
0.999936
0.999877
0.999799
0.999177
0.999394
0.977964
0.0725037
3.6332e-07
3.80862e-07
4.35008e-07
4.54945e-07
4.81076e-07
4.79603e-07
4.69124e-07
4.54038e-07
4.40795e-07
4.3254e-07
4.27586e-07
4.20855e-07
4.1121e-07
3.99685e-07
3.88024e-07
3.79147e-07
3.77094e-07
3.78402e-07
3.84069e-07
3.92867e-07
3.97907e-07
3.98325e-07
3.96738e-07
3.92154e-07
3.87067e-07
3.84389e-07
3.82962e-07
3.82011e-07
3.79892e-07
3.74894e-07
3.63963e-07
3.35334e-07
2.3767e-07
1.98294e-07
1.98297e-07
0.999999
0.999997
0.999994
0.999993
0.999993
0.999991
0.999991
0.99999
0.99999
0.99999
0.99999
0.99999
0.99999
0.99999
0.99999
0.99999
0.99999
0.99999
0.99999
0.99999
0.99999
0.99999
0.99999
0.99999
0.99999
0.99999
0.99999
0.99999
0.99999
0.99999
0.99999
0.99999
0.99999
0.99999
0.99999
0.99999
0.99999
0.99999
0.99999
0.99999
0.99999
0.99999
0.99999
0.99999
0.99999
0.99999
0.99999
0.99999
0.99999
0.99999
0.99999
0.999986
0.999978
0.999963
0.999951
0.999917
0.999719
0.999041
0.999129
0.962851
0.068547
5.7052e-06
3.63323e-07
4.02451e-07
4.09427e-07
4.07333e-07
3.98384e-07
3.86197e-07
3.7575e-07
3.68275e-07
3.63391e-07
3.60717e-07
3.5813e-07
3.5463e-07
3.50162e-07
3.45154e-07
3.4047e-07
3.36781e-07
3.3431e-07
3.32297e-07
3.30491e-07
3.29916e-07
3.30017e-07
3.30681e-07
3.32117e-07
3.35394e-07
3.408e-07
3.46291e-07
3.49442e-07
3.51162e-07
3.52525e-07
3.51938e-07
3.45799e-07
3.11962e-07
2.12874e-07
1.98301e-07
0.999999
0.999996
0.999994
0.999993
0.999992
0.999991
0.99999
0.99999
0.99999
0.99999
0.99999
0.99999
0.99999
0.99999
0.99999
0.99999
0.99999
0.99999
0.99999
0.99999
0.99999
0.99999
0.99999
0.99999
0.99999
0.99999
0.99999
0.99999
0.99999
0.99999
0.99999
0.99999
0.99999
0.99999
0.99999
0.99999
0.99999
0.99999
0.99999
0.99999
0.99999
0.99999
0.99999
0.99999
0.99999
0.99999
0.99999
0.99999
0.99999
0.99999
0.99999
0.999987
0.99998
0.999955
0.999947
0.999903
0.999578
0.99893
0.998593
0.967466
0.0687191
0.000228204
4.9335e-07
4.15053e-07
3.64383e-07
3.34812e-07
3.25294e-07
3.22906e-07
3.22206e-07
3.22262e-07
3.22585e-07
3.23251e-07
3.23876e-07
3.23906e-07
3.23734e-07
3.23274e-07
3.22548e-07
3.21912e-07
3.21728e-07
3.21772e-07
3.2171e-07
3.21518e-07
3.2123e-07
3.21501e-07
3.22298e-07
3.24932e-07
3.30048e-07
3.35671e-07
3.38591e-07
3.40356e-07
3.4216e-07
3.43065e-07
3.40611e-07
3.19188e-07
2.33578e-07
1.98306e-07
0.999999
0.999995
0.999994
0.999993
0.999992
0.999991
0.999991
0.99999
0.99999
0.99999
0.99999
0.99999
0.99999
0.99999
0.99999
0.99999
0.99999
0.99999
0.99999
0.99999
0.99999
0.99999
0.99999
0.99999
0.99999
0.99999
0.99999
0.99999
0.99999
0.99999
0.99999
0.99999
0.99999
0.99999
0.99999
0.99999
0.99999
0.99999
0.99999
0.99999
0.99999
0.99999
0.99999
0.99999
0.99999
0.99999
0.99999
0.99999
0.99999
0.99999
0.99999
0.999987
0.999979
0.999961
0.999946
0.999808
0.999708
0.99907
0.998756
0.9582
0.0806946
0.000829865
2.10587e-06
3.11992e-07
3.1239e-07
3.12191e-07
3.12326e-07
3.12731e-07
3.13202e-07
3.13542e-07
3.13803e-07
3.14045e-07
3.14293e-07
3.14533e-07
3.14735e-07
3.14951e-07
3.15197e-07
3.15496e-07
3.1577e-07
3.16111e-07
3.16297e-07
3.1655e-07
3.16596e-07
3.16826e-07
3.17363e-07
3.1934e-07
3.23366e-07
3.27119e-07
3.29322e-07
3.31042e-07
3.32657e-07
3.34279e-07
3.31923e-07
3.00433e-07
2.08714e-07
1.98309e-07
0.999992
0.999991
0.999991
0.999991
0.999991
0.99999
0.99999
0.99999
0.99999
0.99999
0.99999
0.99999
0.99999
0.99999
0.99999
0.99999
0.99999
0.99999
0.99999
0.99999
0.99999
0.99999
0.99999
0.99999
0.99999
0.99999
0.99999
0.99999
0.99999
0.99999
0.99999
0.99999
0.99999
0.99999
0.99999
0.99999
0.99999
0.99999
0.99999
0.99999
0.99999
0.99999
0.99999
0.99999
0.99999
0.99999
0.99999
0.99999
0.99999
0.99999
0.999988
0.999984
0.999976
0.99995
0.999923
0.999858
0.999799
0.999089
0.996208
0.930617
0.0519022
0.000441989
1.40177e-06
7.28472e-07
7.32114e-07
7.31709e-07
7.3084e-07
7.3084e-07
7.30841e-07
7.30929e-07
7.31051e-07
7.31129e-07
7.312e-07
7.31249e-07
7.31289e-07
7.3137e-07
7.31538e-07
7.31875e-07
7.32812e-07
7.34974e-07
7.39416e-07
7.44922e-07
7.46388e-07
7.46398e-07
7.4646e-07
7.46855e-07
7.48542e-07
7.46981e-07
7.27287e-07
6.5778e-07
4.80934e-07
3.12814e-07
3.67878e-07
4.90277e-07
5.09195e-07
4.307e-07
0.999994
0.999992
0.999991
0.999992
0.999991
0.999991
0.999991
0.999991
0.999991
0.99999
0.99999
0.99999
0.99999
0.99999
0.99999
0.99999
0.99999
0.99999
0.99999
0.99999
0.99999
0.99999
0.99999
0.99999
0.99999
0.99999
0.99999
0.99999
0.99999
0.99999
0.99999
0.99999
0.99999
0.99999
0.99999
0.99999
0.99999
0.99999
0.99999
0.99999
0.99999
0.99999
0.99999
0.99999
0.99999
0.99999
0.99999
0.99999
0.99999
0.99999
0.999988
0.999984
0.999974
0.999946
0.999927
0.999867
0.999756
0.999192
0.997843
0.939031
0.0410403
7.38879e-05
7.34081e-07
7.63608e-07
7.67292e-07
7.66743e-07
7.64393e-07
7.6063e-07
7.56211e-07
7.50634e-07
7.43243e-07
7.35988e-07
7.32998e-07
7.32942e-07
7.33425e-07
7.34633e-07
7.35996e-07
7.36945e-07
7.37732e-07
7.38651e-07
7.40561e-07
7.43364e-07
7.45935e-07
7.48211e-07
7.48954e-07
7.49868e-07
7.51686e-07
7.481e-07
7.24641e-07
6.66879e-07
5.41721e-07
3.6245e-07
3.62329e-07
4.26646e-07
5.49441e-07
4.66702e-07
0.999995
0.999993
0.999993
0.999993
0.999992
0.999992
0.999992
0.999992
0.999992
0.999991
0.99999
0.99999
0.99999
0.99999
0.99999
0.99999
0.99999
0.99999
0.99999
0.99999
0.99999
0.99999
0.99999
0.99999
0.99999
0.99999
0.99999
0.99999
0.99999
0.99999
0.99999
0.99999
0.99999
0.99999
0.99999
0.99999
0.99999
0.99999
0.99999
0.99999
0.99999
0.99999
0.99999
0.99999
0.99999
0.99999
0.99999
0.99999
0.99999
0.999989
0.999988
0.999984
0.999972
0.999946
0.999932
0.999848
0.999822
0.999395
0.99899
0.946492
0.0394841
7.34073e-07
9.95184e-07
7.90042e-07
7.88443e-07
7.85875e-07
7.77421e-07
7.6811e-07
7.60055e-07
7.52809e-07
7.47681e-07
7.45256e-07
7.44497e-07
7.44426e-07
7.4462e-07
7.45242e-07
7.46105e-07
7.47033e-07
7.47984e-07
7.47916e-07
7.4705e-07
7.44732e-07
7.43698e-07
7.43905e-07
7.4792e-07
7.52551e-07
7.48809e-07
7.23107e-07
6.9037e-07
6.73016e-07
6.21047e-07
4.97834e-07
4.04737e-07
4.58496e-07
5.63091e-07
4.84319e-07
0.999995
0.999994
0.999994
0.999994
0.999993
0.999993
0.999992
0.999992
0.999992
0.999991
0.99999
0.99999
0.99999
0.99999
0.99999
0.99999
0.99999
0.99999
0.99999
0.99999
0.99999
0.99999
0.99999
0.99999
0.99999
0.99999
0.99999
0.99999
0.99999
0.99999
0.99999
0.99999
0.99999
0.99999
0.99999
0.99999
0.99999
0.99999
0.99999
0.99999
0.99999
0.99999
0.99999
0.99999
0.99999
0.99999
0.99999
0.99999
0.99999
0.999989
0.999988
0.999984
0.999978
0.999956
0.999904
0.99983
0.999693
0.999529
0.999658
0.93712
0.0392087
7.34074e-07
8.31464e-06
8.54304e-07
8.47418e-07
7.65157e-07
7.52571e-07
7.40905e-07
7.53202e-07
7.66111e-07
7.64444e-07
7.61607e-07
7.59554e-07
7.60488e-07
7.5753e-07
7.48975e-07
7.39516e-07
7.35232e-07
7.36082e-07
7.41659e-07
7.53515e-07
7.57654e-07
7.58706e-07
7.57139e-07
7.49812e-07
7.35733e-07
7.23284e-07
7.22467e-07
7.28018e-07
7.25307e-07
7.07899e-07
6.42155e-07
5.50818e-07
5.67293e-07
5.98379e-07
4.9078e-07
0.999996
0.999995
0.999995
0.999995
0.999993
0.999993
0.999993
0.999992
0.999992
0.999991
0.99999
0.99999
0.99999
0.99999
0.99999
0.99999
0.99999
0.99999
0.99999
0.99999
0.99999
0.99999
0.99999
0.99999
0.99999
0.99999
0.99999
0.99999
0.99999
0.99999
0.99999
0.99999
0.99999
0.99999
0.99999
0.99999
0.99999
0.99999
0.99999
0.99999
0.99999
0.99999
0.99999
0.99999
0.99999
0.99999
0.99999
0.99999
0.99999
0.999989
0.999988
0.999984
0.999976
0.999967
0.999834
0.999757
0.999757
0.999789
0.999895
0.860819
0.0228018
0.000372352
0.000277745
0.00010162
5.80673e-05
2.73013e-05
1.28646e-05
6.43111e-06
3.1703e-06
1.42177e-06
9.4751e-07
9.29214e-07
1.05848e-06
1.45608e-06
7.5364e-07
5.90062e-07
6.3809e-07
6.75135e-07
6.96137e-07
7.07958e-07
9.98509e-07
1.41695e-06
8.20726e-07
5.3306e-07
5.35439e-07
6.0254e-07
7.34178e-07
8.66872e-07
8.92966e-07
8.16344e-07
7.33063e-07
6.44503e-07
6.28551e-07
6.42062e-07
6.34666e-07
4.99238e-07
0.999996
0.999996
0.999996
0.999995
0.999993
0.999994
0.999993
0.999993
0.999992
0.999991
0.99999
0.99999
0.99999
0.99999
0.99999
0.99999
0.99999
0.99999
0.99999
0.99999
0.99999
0.99999
0.99999
0.99999
0.99999
0.99999
0.99999
0.99999
0.99999
0.99999
0.99999
0.99999
0.99999
0.99999
0.99999
0.99999
0.99999
0.99999
0.99999
0.99999
0.99999
0.99999
0.99999
0.99999
0.99999
0.99999
0.99999
0.99999
0.99999
0.99999
0.999988
0.999984
0.999975
0.999966
0.999836
0.999781
0.99979
0.999824
0.99999
0.696375
0.00962839
0.00552564
0.00506084
0.00433283
0.0040903
0.00317613
0.00237814
0.00194304
0.00158687
0.00132415
0.00112913
0.00102559
0.000900518
0.000675148
0.000522767
0.000417373
0.000319745
0.000221564
0.000152172
0.000108907
8.18799e-05
7.06849e-05
6.83883e-05
6.56057e-05
6.63045e-05
6.24406e-05
6.29675e-05
5.37695e-05
4.25497e-05
2.70906e-05
1.0477e-05
2.41637e-06
3.62897e-07
5.54781e-07
5.49138e-07
4.37051e-07
0.999995
0.999996
0.999996
0.999996
0.999995
0.999994
0.999993
0.999993
0.999992
0.999991
0.99999
0.99999
0.99999
0.99999
0.99999
0.99999
0.99999
0.99999
0.99999
0.99999
0.99999
0.99999
0.99999
0.99999
0.99999
0.99999
0.99999
0.99999
0.99999
0.99999
0.99999
0.99999
0.99999
0.99999
0.99999
0.99999
0.99999
0.99999
0.99999
0.99999
0.99999
0.99999
0.99999
0.99999
0.99999
0.99999
0.99999
0.99999
0.99999
0.99999
0.999989
0.999984
0.999975
0.999963
0.999909
0.999831
0.999666
0.99965
0.99999
0.527754
0.0241926
0.0200695
0.0207317
0.0248011
0.0251578
0.0230284
0.0230795
0.0230759
0.0224695
0.0217854
0.0207214
0.01986
0.0192731
0.0188243
0.0183871
0.0178717
0.0172703
0.0165733
0.0158549
0.0151474
0.0144978
0.0139306
0.0135651
0.0137958
0.0130001
0.0117516
0.0108395
0.0103855
0.0113767
0.00997647
0.00708075
0.00481557
0.00175693
0.000142993
0.000339019
0.000360687
0.999995
0.999995
0.999996
0.999996
0.999995
0.999995
0.999994
0.999993
0.999992
0.999991
0.99999
0.99999
0.99999
0.99999
0.99999
0.99999
0.99999
0.99999
0.99999
0.99999
0.99999
0.99999
0.99999
0.99999
0.99999
0.99999
0.99999
0.99999
0.99999
0.99999
0.99999
0.99999
0.99999
0.99999
0.99999
0.99999
0.99999
0.99999
0.99999
0.99999
0.99999
0.99999
0.99999
0.99999
0.99999
0.99999
0.99999
0.99999
0.99999
0.99999
0.999989
0.999985
0.999977
0.999962
0.999932
0.999745
0.999679
0.999654
0.99999
0.505848
0.0335329
0.028414
0.0283703
0.0283275
0.0295043
0.0302972
0.0312013
0.0319863
0.0324334
0.032875
0.0335271
0.0343625
0.0354731
0.0368146
0.0382344
0.0395925
0.0408672
0.0421202
0.0435754
0.0456248
0.048493
0.0514018
0.0538868
0.0562705
0.0589851
0.0623226
0.0662698
0.0707232
0.0756175
0.0813286
0.0886688
0.0986857
0.112568
0.134945
0.184317
0.379991
0.999995
0.999995
0.999995
0.999995
0.999996
0.999995
0.999994
0.999992
0.999991
0.999991
0.99999
0.99999
0.99999
0.99999
0.99999
0.99999
0.99999
0.99999
0.99999
0.99999
0.99999
0.99999
0.99999
0.99999
0.99999
0.99999
0.99999
0.99999
0.99999
0.99999
0.99999
0.99999
0.99999
0.99999
0.99999
0.99999
0.99999
0.99999
0.99999
0.99999
0.99999
0.99999
0.99999
0.99999
0.99999
0.99999
0.99999
0.99999
0.99999
0.99999
0.999989
0.999985
0.999978
0.999957
0.999931
0.999882
0.999773
0.999526
0.99999
0.722897
0.0174573
0.00429205
0.00292324
0.002182
0.00205996
0.00228662
0.00250605
0.00258283
0.00257618
0.00254807
0.00256428
0.00277753
0.00309235
0.00350067
0.0039921
0.00442432
0.00467292
0.00472401
0.00475641
0.00505696
0.00618362
0.008764
0.0104638
0.0109301
0.0110127
0.011122
0.0120655
0.0136831
0.0150211
0.016613
0.0185511
0.0204427
0.0219335
0.0225832
0.0210202
0.0191878
0.999995
0.999995
0.999994
0.999993
0.999994
0.999993
0.999993
0.999992
0.999991
0.99999
0.99999
0.99999
0.99999
0.99999
0.99999
0.99999
0.99999
0.99999
0.99999
0.99999
0.99999
0.99999
0.99999
0.99999
0.99999
0.99999
0.99999
0.99999
0.99999
0.99999
0.99999
0.99999
0.99999
0.99999
0.99999
0.99999
0.99999
0.99999
0.99999
0.99999
0.99999
0.99999
0.99999
0.99999
0.99999
0.99999
0.99999
0.99999
0.99999
0.99999
0.999989
0.999986
0.999981
0.999962
0.999919
0.999859
0.99982
0.999477
0.999918
0.868886
0.014444
0.00014759
9.58011e-05
7.25862e-05
6.74491e-05
6.45533e-05
6.06946e-05
5.47627e-05
4.78048e-05
4.14026e-05
3.83639e-05
4.22366e-05
4.71943e-05
5.67501e-05
6.7688e-05
8.11978e-05
9.39515e-05
0.000106638
0.000122685
0.000140678
0.000161228
0.000188768
0.000214252
0.000230907
0.000238504
0.000228645
0.000219336
0.000206586
0.00019883
0.000210232
0.000236316
0.00025912
0.000274606
0.000226953
0.00010612
2.61248e-05
0.999998
0.999995
0.999993
0.999993
0.999992
0.999991
0.999992
0.999991
0.999991
0.99999
0.99999
0.99999
0.99999
0.99999
0.99999
0.99999
0.99999
0.99999
0.99999
0.99999
0.99999
0.99999
0.99999
0.99999
0.99999
0.99999
0.99999
0.99999
0.99999
0.99999
0.99999
0.99999
0.99999
0.99999
0.99999
0.99999
0.99999
0.99999
0.99999
0.99999
0.99999
0.99999
0.99999
0.99999
0.99999
0.99999
0.99999
0.99999
0.99999
0.99999
0.999989
0.999987
0.999982
0.999969
0.999915
0.999856
0.999773
0.999438
0.99982
0.945508
0.0701616
3.6332e-07
2.69178e-06
7.72229e-07
1.03839e-06
6.64522e-07
8.05456e-07
7.99013e-07
7.96671e-07
7.33878e-07
6.8833e-07
6.67834e-07
6.17065e-07
5.70748e-07
5.37974e-07
5.22445e-07
5.11434e-07
5.06795e-07
5.05471e-07
4.98251e-07
4.85888e-07
4.83227e-07
5.34069e-07
6.36956e-07
7.68882e-07
8.11443e-07
7.51869e-07
6.27667e-07
4.99213e-07
3.53268e-07
2.744e-07
2.76321e-07
4.85686e-07
7.29538e-07
5.24501e-07
2.71827e-07
0.999999
0.999995
0.999993
0.999992
0.999992
0.999991
0.999991
0.999991
0.999991
0.99999
0.99999
0.99999
0.99999
0.99999
0.99999
0.99999
0.99999
0.99999
0.99999
0.99999
0.99999
0.99999
0.99999
0.99999
0.99999
0.99999
0.99999
0.99999
0.99999
0.99999
0.99999
0.99999
0.99999
0.99999
0.99999
0.99999
0.99999
0.99999
0.99999
0.99999
0.99999
0.99999
0.99999
0.99999
0.99999
0.99999
0.99999
0.99999
0.99999
0.99999
0.99999
0.999988
0.999983
0.999965
0.999924
0.999861
0.999817
0.999257
0.999606
0.969358
0.061411
3.6332e-07
9.1356e-07
5.89336e-07
7.68395e-07
7.59625e-07
7.3105e-07
7.01498e-07
6.67054e-07
6.26285e-07
5.96477e-07
5.74316e-07
5.44308e-07
5.14664e-07
4.91885e-07
4.75141e-07
4.61352e-07
4.4868e-07
4.37286e-07
4.28723e-07
4.24367e-07
4.21411e-07
4.16178e-07
4.16915e-07
4.26864e-07
4.40073e-07
4.50157e-07
4.52029e-07
4.45701e-07
4.28149e-07
4.01161e-07
3.61478e-07
2.90428e-07
2.29885e-07
1.98286e-07
1.98289e-07
0.999997
0.999994
0.999993
0.999992
0.999992
0.999991
0.999991
0.999991
0.99999
0.99999
0.99999
0.99999
0.99999
0.99999
0.99999
0.99999
0.99999
0.99999
0.99999
0.99999
0.99999
0.99999
0.99999
0.99999
0.99999
0.99999
0.99999
0.99999
0.99999
0.99999
0.99999
0.99999
0.99999
0.99999
0.99999
0.99999
0.99999
0.99999
0.99999
0.99999
0.99999
0.99999
0.99999
0.99999
0.99999
0.99999
0.99999
0.99999
0.99999
0.99999
0.99999
0.999988
0.999982
0.999957
0.999951
0.999901
0.999774
0.999149
0.999103
0.972249
0.0690144
3.6332e-07
6.02167e-07
5.94171e-07
6.34492e-07
6.92183e-07
7.22316e-07
7.15904e-07
6.91459e-07
6.50037e-07
6.0026e-07
5.48015e-07
5.06011e-07
4.76218e-07
4.53983e-07
4.35976e-07
4.21175e-07
4.09531e-07
4.00198e-07
3.92748e-07
3.87067e-07
3.8389e-07
3.83022e-07
3.83658e-07
3.94588e-07
4.17567e-07
4.34113e-07
4.39699e-07
4.37182e-07
4.27815e-07
4.08806e-07
3.82704e-07
3.51576e-07
2.90431e-07
2.02011e-07
1.98293e-07
0.999996
0.999994
0.999993
0.999992
0.999991
0.999991
0.999991
0.99999
0.99999
0.99999
0.99999
0.99999
0.99999
0.99999
0.99999
0.99999
0.99999
0.99999
0.99999
0.99999
0.99999
0.99999
0.99999
0.99999
0.99999
0.99999
0.99999
0.99999
0.99999
0.99999
0.99999
0.99999
0.99999
0.99999
0.99999
0.99999
0.99999
0.99999
0.99999
0.99999
0.99999
0.99999
0.99999
0.99999
0.99999
0.99999
0.99999
0.99999
0.99999
0.99999
0.99999
0.999987
0.99998
0.999956
0.999944
0.999923
0.999683
0.99906
0.99883
0.969467
0.0842177
3.63321e-07
3.93262e-07
4.74525e-07
5.07725e-07
5.19141e-07
5.21409e-07
5.18441e-07
5.15634e-07
5.08517e-07
4.97101e-07
4.83723e-07
4.68327e-07
4.52832e-07
4.37547e-07
4.22635e-07
4.08137e-07
3.9479e-07
3.83422e-07
3.7405e-07
3.67201e-07
3.64682e-07
3.6503e-07
3.68193e-07
3.81509e-07
4.0422e-07
4.20033e-07
4.23496e-07
4.22403e-07
4.15627e-07
4.02264e-07
3.83787e-07
3.5991e-07
3.13957e-07
2.16884e-07
1.98297e-07
0.999998
0.999996
0.999994
0.999993
0.999992
0.999991
0.99999
0.99999
0.99999
0.99999
0.99999
0.99999
0.99999
0.99999
0.99999
0.99999
0.99999
0.99999
0.99999
0.99999
0.99999
0.99999
0.99999
0.99999
0.99999
0.99999
0.99999
0.99999
0.99999
0.99999
0.99999
0.99999
0.99999
0.99999
0.99999
0.99999
0.99999
0.99999
0.99999
0.99999
0.99999
0.99999
0.99999
0.99999
0.99999
0.99999
0.99999
0.99999
0.99999
0.99999
0.99999
0.999987
0.99998
0.999959
0.999944
0.999905
0.999588
0.998905
0.997819
0.960566
0.0893334
0.000497895
9.64251e-07
3.39199e-07
3.13098e-07
3.16036e-07
3.232e-07
3.31169e-07
3.38233e-07
3.44046e-07
3.49921e-07
3.55819e-07
3.61197e-07
3.65027e-07
3.64828e-07
3.63863e-07
3.62304e-07
3.60517e-07
3.6048e-07
3.61458e-07
3.63463e-07
3.65106e-07
3.66737e-07
3.72061e-07
3.83473e-07
3.98408e-07
4.08738e-07
4.10859e-07
4.11447e-07
4.071e-07
3.96207e-07
3.80824e-07
3.60221e-07
3.15852e-07
2.20837e-07
1.98301e-07
0.999999
0.999997
0.999995
0.999993
0.999992
0.999991
0.999991
0.99999
0.99999
0.99999
0.99999
0.99999
0.99999
0.99999
0.99999
0.99999
0.99999
0.99999
0.99999
0.99999
0.99999
0.99999
0.99999
0.99999
0.99999
0.99999
0.99999
0.99999
0.99999
0.99999
0.99999
0.99999
0.99999
0.99999
0.99999
0.99999
0.99999
0.99999
0.99999
0.99999
0.99999
0.99999
0.99999
0.99999
0.99999
0.99999
0.99999
0.99999
0.99999
0.99999
0.999989
0.999987
0.999979
0.999961
0.999953
0.999866
0.9997
0.998852
0.996812
0.946368
0.0988555
0.00142611
4.52018e-06
3.11989e-07
3.11986e-07
3.11989e-07
3.11993e-07
3.11996e-07
3.12012e-07
3.12069e-07
3.12236e-07
3.12593e-07
3.13242e-07
3.1425e-07
3.15775e-07
3.17961e-07
3.20928e-07
3.24651e-07
3.29116e-07
3.34223e-07
3.39527e-07
3.44317e-07
3.48782e-07
3.57896e-07
3.70579e-07
3.85775e-07
3.95632e-07
3.98716e-07
3.98879e-07
3.94833e-07
3.85286e-07
3.71424e-07
3.50631e-07