/*--------------------------------*- C++ -*----------------------------------*\
| =========                 |                                                 |
| \\      /  F ield         | OpenFOAM: The Open Source CFD Toolbox           |
|  \\    /   O peration     | Version:  2.3.0                                 |
|   \\  /    A nd           | Web:      www.OpenFOAM.org                      |
|    \\/     M anipulation  |                                                 |
\*---------------------------------------------------------------------------*/
FoamFile
{
    version     2.0;
    format      ascii;
    class       volScalarField;
    location    "15";
    object      alpha.water;
}
// * * * * * * * * * * * * * * * * * * * * * * * * * * * * * * * * * * * * * //

dimensions      [0 0 0 0 0 0 0];

internalField   nonuniform List<scalar> 
6144
(
6.58104e-06
7.26458e-06
8.32998e-06
8.59968e-06
9.16704e-06
9.59027e-06
9.80371e-06
9.91682e-06
9.9547e-06
9.97531e-06
9.9837e-06
9.98982e-06
9.99082e-06
9.99247e-06
9.99183e-06
9.99183e-06
9.99177e-06
9.99176e-06
9.99176e-06
9.99176e-06
9.99176e-06
9.99176e-06
9.99195e-06
9.99207e-06
9.99203e-06
9.99202e-06
9.99196e-06
9.99196e-06
9.99187e-06
9.99186e-06
9.9918e-06
9.9918e-06
9.99179e-06
9.99179e-06
9.99179e-06
9.99179e-06
9.99179e-06
9.99179e-06
9.99179e-06
9.99179e-06
9.99179e-06
9.99179e-06
9.9918e-06
9.99378e-06
9.99593e-06
1.00193e-05
1.02842e-05
1.31072e-05
2.59351e-05
4.18599e-05
5.43294e-05
6.87665e-05
7.65263e-05
8.40977e-05
8.72091e-05
9.36202e-05
9.4899e-05
0.000101251
0.000992959
0.0539412
0.959205
0.999768
0.999999
0.999999
0.999999
0.999999
0.999999
0.999999
0.999999
0.999999
0.999999
0.999999
0.999999
0.999999
0.999999
0.999999
0.999999
0.999999
0.999999
0.999999
0.999999
0.999999
0.999999
0.999999
0.999999
0.999999
0.999999
0.999999
0.999999
0.999999
0.999999
0.999999
0.999999
1
1
1
5.01778e-06
5.72149e-06
6.62249e-06
6.69355e-06
8.30345e-06
9.31709e-06
9.72577e-06
9.85001e-06
9.87105e-06
9.90757e-06
9.95902e-06
9.98708e-06
9.99518e-06
9.99751e-06
9.99657e-06
9.99682e-06
9.99607e-06
9.99631e-06
9.99589e-06
9.99609e-06
9.99587e-06
9.99595e-06
9.99582e-06
9.99584e-06
9.99576e-06
9.99576e-06
9.99569e-06
9.9957e-06
9.99562e-06
9.99568e-06
9.99548e-06
9.9957e-06
9.99534e-06
9.9958e-06
9.99529e-06
9.99595e-06
9.99543e-06
9.99599e-06
9.99571e-06
9.99589e-06
9.99554e-06
9.99518e-06
9.9947e-06
9.99534e-06
9.99947e-06
1.00753e-05
1.07687e-05
1.40804e-05
2.17115e-05
3.23013e-05
4.45817e-05
5.97754e-05
7.35488e-05
8.93561e-05
9.89089e-05
0.000113483
0.000118017
0.000125692
0.000406755
0.0588288
0.977587
0.99996
0.999999
0.999999
0.999999
0.999999
0.999999
0.999999
0.999999
0.999999
0.999999
0.999999
0.999999
0.999999
0.999999
0.999999
0.999999
0.999999
0.999999
0.999999
0.999999
0.999999
0.999999
0.999999
0.999999
0.999999
0.999999
0.999999
0.999999
0.999999
0.999999
0.999999
0.999999
0.999999
1
1
4.517e-06
4.66174e-06
5.18187e-06
6.02148e-06
7.93811e-06
8.48261e-06
9.44962e-06
9.80531e-06
9.78301e-06
9.84876e-06
9.92143e-06
9.97419e-06
9.99315e-06
9.99751e-06
9.99713e-06
9.99741e-06
9.99703e-06
9.99719e-06
9.99697e-06
9.99711e-06
9.99698e-06
9.99707e-06
9.997e-06
9.99705e-06
9.99699e-06
9.99701e-06
9.99695e-06
9.99696e-06
9.99689e-06
9.99694e-06
9.99678e-06
9.99694e-06
9.99669e-06
9.99696e-06
9.99661e-06
9.99695e-06
9.99646e-06
9.99681e-06
9.99632e-06
9.99633e-06
9.99569e-06
9.99513e-06
9.99507e-06
9.99963e-06
1.00173e-05
1.01752e-05
1.12153e-05
1.40783e-05
1.87627e-05
2.81369e-05
4.15898e-05
5.76714e-05
7.35502e-05
9.8677e-05
0.000112781
0.000133966
0.000136496
0.000142079
0.00023221
0.0842334
0.990573
0.999988
0.999996
0.999996
0.999996
0.999997
0.999998
0.999998
0.999999
0.999999
0.999999
0.999999
0.999999
0.999999
0.999999
0.999999
0.999999
0.999999
0.999999
0.999999
0.999999
0.999999
0.999999
0.999999
0.999999
0.999999
0.999999
0.999999
0.999999
0.999999
0.999999
0.999999
0.999999
1
1
1
4.3954e-06
4.38994e-06
4.71204e-06
5.40894e-06
6.3711e-06
7.09916e-06
9.0326e-06
9.73673e-06
9.81205e-06
9.8488e-06
9.90684e-06
9.96838e-06
9.98974e-06
9.99491e-06
9.99491e-06
9.99506e-06
9.99498e-06
9.99498e-06
9.99485e-06
9.9948e-06
9.99465e-06
9.99458e-06
9.99448e-06
9.99441e-06
9.99433e-06
9.99425e-06
9.99418e-06
9.9941e-06
9.99403e-06
9.99397e-06
9.99386e-06
9.99382e-06
9.99367e-06
9.99363e-06
9.99357e-06
9.99357e-06
9.99357e-06
9.99357e-06
9.99356e-06
9.99356e-06
9.99356e-06
9.99356e-06
9.99477e-06
1.00074e-05
1.00462e-05
1.03084e-05
1.17411e-05
1.48715e-05
2.01529e-05
2.98052e-05
4.14053e-05
6.1093e-05
8.64775e-05
0.00011878
0.000133228
0.000153254
0.000147712
0.000153908
0.000140468
0.0954858
0.982013
0.999819
0.999848
0.999851
0.99985
0.999851
0.999864
0.999884
0.999914
0.999949
0.999973
0.999988
0.999996
0.999999
0.999999
0.999999
0.999999
0.999999
0.999999
0.999999
0.999999
0.999999
0.999999
0.999999
0.999999
0.999999
0.999999
0.999999
0.999999
0.999999
0.999999
0.999999
1
1
1
1
4.38668e-06
4.36371e-06
4.56859e-06
5.07521e-06
5.59531e-06
6.32016e-06
8.14226e-06
9.1776e-06
9.75972e-06
9.91221e-06
9.91302e-06
9.96383e-06
9.9891e-06
9.99606e-06
9.99615e-06
9.99695e-06
9.99686e-06
9.9972e-06
9.99722e-06
9.9974e-06
9.99734e-06
9.99744e-06
9.99737e-06
9.99741e-06
9.99731e-06
9.9973e-06
9.99717e-06
9.99711e-06
9.99693e-06
9.99689e-06
9.99663e-06
9.99672e-06
9.99632e-06
9.99649e-06
9.99591e-06
9.99621e-06
9.99558e-06
9.99574e-06
9.99511e-06
9.99517e-06
9.99466e-06
9.99552e-06
9.99793e-06
1.0013e-05
1.00635e-05
1.03214e-05
1.18035e-05
1.59571e-05
2.27115e-05
3.05908e-05
4.93651e-05
8.04208e-05
0.000112227
0.000141075
0.000149858
0.000163238
0.000145766
0.000161464
0.000185734
0.105783
0.978177
0.99861
0.998482
0.99842
0.998364
0.998377
0.99851
0.998676
0.998894
0.999161
0.999398
0.999597
0.999755
0.999869
0.999939
0.999973
0.999989
0.999996
0.999999
0.999999
0.999999
0.999999
0.999999
0.999999
0.999999
0.999999
1
1
1
1
1
1
1
1
1
1
4.52146e-06
4.50752e-06
4.61869e-06
4.99477e-06
5.20615e-06
5.94012e-06
7.33296e-06
8.64454e-06
9.45006e-06
9.8033e-06
9.9036e-06
9.96373e-06
9.98272e-06
9.99174e-06
9.99125e-06
9.99125e-06
9.99125e-06
9.99124e-06
9.99122e-06
9.99114e-06
9.99098e-06
9.99087e-06
9.99078e-06
9.99067e-06
9.99057e-06
9.99044e-06
9.99038e-06
9.99028e-06
9.99023e-06
9.99017e-06
9.99012e-06
9.99009e-06
9.99003e-06
9.99001e-06
9.98995e-06
9.98995e-06
9.98995e-06
9.98995e-06
9.98995e-06
9.98995e-06
9.98995e-06
9.99045e-06
9.99604e-06
1.00158e-05
1.00703e-05
1.03169e-05
1.16223e-05
1.4763e-05
2.0696e-05
3.54927e-05
7.09089e-05
0.000109194
0.000137102
0.000154173
0.000158851
0.000165962
0.000151413
0.00017024
0.000137165
0.12803
0.982001
0.995472
0.995008
0.994858
0.994833
0.995448
0.995968
0.996484
0.996913
0.997227
0.997574
0.9979
0.998212
0.998525
0.998817
0.999048
0.999217
0.999347
0.99946
0.999568
0.999663
0.999747
0.99982
0.999868
0.999885
0.99988
0.99987
0.999869
0.99988
0.999898
0.999916
0.999934
0.999954
0.999976
0.999991
0.999997
4.69219e-06
4.82408e-06
5.00862e-06
5.14792e-06
4.98469e-06
5.87599e-06
6.91339e-06
8.06792e-06
8.9234e-06
9.50353e-06
9.8269e-06
9.95723e-06
9.98771e-06
9.99775e-06
9.99599e-06
9.9968e-06
9.99593e-06
9.99609e-06
9.99598e-06
9.99618e-06
9.99612e-06
9.99623e-06
9.99622e-06
9.99629e-06
9.99624e-06
9.99634e-06
9.99638e-06
9.99644e-06
9.99639e-06
9.99644e-06
9.99636e-06
9.9965e-06
9.9965e-06
9.9969e-06
9.99718e-06
9.99809e-06
9.99894e-06
1.00002e-05
1.00009e-05
1.00014e-05
1.00017e-05
1.00022e-05
1.0004e-05
1.00225e-05
1.00695e-05
1.02888e-05
1.17965e-05
1.48963e-05
2.15622e-05
6.34014e-05
0.000106496
0.000133346
0.000153736
0.000159179
0.000156268
0.000158403
0.000134233
0.00016505
0.00023164
0.11956
0.978519
0.99409
0.99374
0.994013
0.994663
0.995459
0.99612
0.99633
0.996362
0.996342
0.996485
0.996722
0.996817
0.996936
0.997001
0.997185
0.997417
0.997665
0.997928
0.998199
0.998502
0.998842
0.999113
0.999187
0.999143
0.999143
0.999226
0.999234
0.999354
0.999424
0.999488
0.999532
0.999648
0.999691
0.999785
0.999959
4.75034e-06
5.05545e-06
5.41655e-06
5.57431e-06
5.04903e-06
6.12211e-06
6.75292e-06
7.86239e-06
8.66386e-06
9.27936e-06
9.73311e-06
9.94108e-06
9.98555e-06
9.9976e-06
9.9975e-06
9.99851e-06
9.99827e-06
9.99912e-06
9.99925e-06
9.99968e-06
9.9999e-06
1.00002e-05
1.00003e-05
1.00006e-05
1.00008e-05
1.0001e-05
1.00011e-05
1.00012e-05
1.00015e-05
1.00019e-05
1.00023e-05
1.00026e-05
1.00028e-05
1.00029e-05
1.00029e-05
1.00029e-05
1.00029e-05
1.00029e-05
1.00029e-05
1.00025e-05
1.0002e-05
1.00025e-05
1.00057e-05
1.00244e-05
1.00691e-05
1.03772e-05
1.24681e-05
1.5939e-05
3.11183e-05
0.000105989
0.000132224
0.000136474
0.00014174
0.000144212
0.000134046
0.000120987
0.000109667
0.000134916
0.000243243
0.105881
0.98012
0.99634
0.996479
0.997307
0.997879
0.998373
0.998537
0.998555
0.998369
0.99811
0.997828
0.997548
0.997272
0.997001
0.996782
0.99661
0.996515
0.996496
0.996903
0.997296
0.997642
0.998043
0.998605
0.999217
0.999723
1
1
1
1
1
1
1
1
1
1
1
4.556e-06
5.15308e-06
5.68713e-06
5.97501e-06
5.74816e-06
6.90156e-06
7.10844e-06
8.18811e-06
8.66942e-06
9.08053e-06
9.59759e-06
9.88247e-06
9.96839e-06
9.99175e-06
9.99174e-06
9.99287e-06
9.99264e-06
9.9932e-06
9.99337e-06
9.99376e-06
9.99387e-06
9.99407e-06
9.99415e-06
9.99444e-06
9.99467e-06
9.9948e-06
9.99486e-06
9.99502e-06
9.99524e-06
9.99553e-06
9.99573e-06
9.99583e-06
9.99577e-06
9.9957e-06
9.99557e-06
9.99548e-06
9.99549e-06
9.99549e-06
9.99549e-06
9.99549e-06
9.99549e-06
9.99549e-06
9.99598e-06
1.00097e-05
1.0043e-05
1.03657e-05
1.24883e-05
1.61361e-05
2.59377e-05
9.03929e-05
0.000130076
0.000135436
0.000138517
0.000140053
0.000124006
0.000116637
0.000104555
0.000123907
0.000428743
0.0781704
0.97068
0.999156
0.999358
0.999647
0.999772
0.999864
0.999893
0.999902
0.999901
0.999859
0.999802
0.999742
0.999682
0.999637
0.999612
0.999607
0.999629
0.999653
0.999753
0.999828
0.999889
0.999941
0.999978
0.999994
0.999999
1
1
1
1
1
1
0.999999
0.999999
1
1
1
4.27497e-06
5.15212e-06
5.94521e-06
6.25184e-06
6.45237e-06
7.56642e-06
7.76566e-06
8.54233e-06
8.79567e-06
9.21293e-06
9.61914e-06
9.87511e-06
9.96916e-06
9.99654e-06
9.99671e-06
9.99803e-06
9.99776e-06
9.99886e-06
9.99925e-06
9.99979e-06
9.99998e-06
1.00002e-05
1.00003e-05
1.00005e-05
1.00006e-05
1.00006e-05
1.00005e-05
1.00004e-05
1.00001e-05
9.9999e-06
9.99957e-06
9.99918e-06
9.99871e-06
9.99827e-06
9.9978e-06
9.99741e-06
9.99705e-06
9.99677e-06
9.99653e-06
9.99635e-06
9.99729e-06
1.00005e-05
1.00047e-05
1.00114e-05
1.00358e-05
1.03981e-05
1.2578e-05
1.67858e-05
2.24806e-05
6.16018e-05
0.000116296
0.000134484
0.000137969
0.000140353
0.000122802
0.00011729
0.000104842
0.000109022
0.000335567
0.054678
0.971452
0.999894
0.999961
0.99998
0.99999
0.999996
0.999999
0.999999
0.999999
0.999999
0.999999
0.999999
0.999997
0.999997
0.999997
0.999998
0.999998
0.999998
0.999999
0.999999
0.999999
0.999999
0.999999
0.999999
0.999999
0.999999
0.999999
0.999999
0.999999
0.999999
0.999999
0.999999
0.999999
0.999999
0.999999
1
3.79616e-06
4.64239e-06
6.21909e-06
6.27443e-06
6.56472e-06
7.99783e-06
8.42348e-06
9.05453e-06
9.30442e-06
9.69272e-06
9.82274e-06
9.93681e-06
9.9775e-06
9.99632e-06
9.99301e-06
9.99301e-06
9.99301e-06
9.99301e-06
9.99301e-06
9.99303e-06
9.99354e-06
9.99425e-06
9.99466e-06
9.99495e-06
9.99517e-06
9.99532e-06
9.99541e-06
9.99549e-06
9.99554e-06
9.99557e-06
9.99558e-06
9.99559e-06
9.99559e-06
9.9956e-06
9.9956e-06
9.99561e-06
9.99563e-06
9.99564e-06
9.99577e-06
9.9978e-06
1.00017e-05
1.00057e-05
1.00079e-05
1.00124e-05
1.0053e-05
1.05172e-05
1.26715e-05
1.79778e-05
2.392e-05
3.97997e-05
8.83012e-05
0.00012579
0.000136195
0.00013782
0.000125119
0.000117218
0.000104225
0.00010187
0.000225088
0.0407868
0.971818
0.999945
0.999999
0.999999
0.999999
0.999999
0.999999
0.999999
0.999999
0.999999
0.999999
0.999999
0.999999
0.999999
0.999999
0.999999
0.999999
0.999999
0.999999
0.999999
0.999999
0.999999
0.999999
0.999999
0.999999
0.999999
0.999999
0.999999
0.999999
0.999999
0.999999
0.999999
0.999999
0.999999
0.999999
0.999999
3.27764e-06
3.29338e-06
5.54292e-06
6.49765e-06
6.56443e-06
8.39806e-06
8.97179e-06
9.57359e-06
9.78044e-06
9.93967e-06
9.97531e-06
1.00062e-05
1.00031e-05
1.00093e-05
1.00033e-05
1.00043e-05
1.00023e-05
1.00022e-05
1.00017e-05
1.00014e-05
1.00012e-05
1.00012e-05
1.00011e-05
1.00011e-05
1.0001e-05
1.0001e-05
1.00009e-05
1.00009e-05
1.00009e-05
1.00009e-05
1.00008e-05
1.00008e-05
1.00006e-05
1.00005e-05
1.00003e-05
1.00002e-05
1e-05
1.00005e-05
1.00023e-05
1.00057e-05
1.00076e-05
1.00083e-05
1.00087e-05
1.00152e-05
1.00731e-05
1.06818e-05
1.37245e-05
2.0539e-05
2.88185e-05
3.56995e-05
6.25276e-05
0.00010548
0.000129539
0.000133029
0.000125115
0.000115497
0.000101673
0.000101909
0.000332595
0.0350718
0.967032
0.999927
0.999999
0.999999
0.999999
0.999999
0.999999
0.999999
0.999999
0.999999
0.999999
0.999999
0.999999
0.999999
0.999999
0.999999
0.999999
0.999999
0.999999
0.999999
0.999999
0.999999
0.999999
0.999999
0.999999
0.999999
0.999999
0.999999
0.999999
0.999999
0.999999
0.999999
0.999999
0.999999
0.999999
0.999999
3.2013e-06
2.91511e-06
4.76735e-06
6.59033e-06
6.37751e-06
8.51136e-06
9.29995e-06
9.76278e-06
9.88239e-06
9.97176e-06
9.99336e-06
1.00089e-05
1.00089e-05
1.00093e-05
1.00093e-05
1.00093e-05
1.00093e-05
1.00093e-05
1.00093e-05
1.00093e-05
1.00093e-05
1.00093e-05
1.00091e-05
1.00088e-05
1.00085e-05
1.00082e-05
1.00079e-05
1.00076e-05
1.00073e-05
1.0007e-05
1.00066e-05
1.00063e-05
1.00059e-05
1.00057e-05
1.00053e-05
1.00049e-05
1.00045e-05
1.00048e-05
1.00056e-05
1.00064e-05
1.00069e-05
1.00074e-05
1.00077e-05
1.00166e-05
1.00684e-05
1.06725e-05
1.43634e-05
2.2567e-05
3.1997e-05
3.9025e-05
5.04108e-05
8.14453e-05
0.000114677
0.000125024
0.000121451
0.000115684
0.000105004
0.000105403
0.000381194
0.0340571
0.960805
0.999883
0.999999
0.999999
0.999999
0.999999
0.999999
0.999999
0.999999
0.999999
0.999999
0.999999
0.999999
0.999999
0.999999
0.999999
0.999999
0.999999
0.999999
0.999999
0.999999
0.999999
0.999999
0.999999
0.999999
0.999999
0.999999
0.999999
0.999999
0.999999
0.999999
0.999999
0.999999
0.999999
0.999999
1
2.92877e-06
2.76166e-06
3.91577e-06
6.48272e-06
6.83534e-06
8.4099e-06
9.42789e-06
9.82765e-06
9.91944e-06
9.99043e-06
9.99907e-06
1.00089e-05
1.0006e-05
1.00093e-05
1.00065e-05
1.00092e-05
1.00078e-05
1.00083e-05
1.00081e-05
1.00081e-05
1.00081e-05
1.00081e-05
1.00079e-05
1.00078e-05
1.00075e-05
1.00073e-05
1.00071e-05
1.00069e-05
1.00066e-05
1.00064e-05
1.00062e-05
1.0006e-05
1.00057e-05
1.00056e-05
1.00054e-05
1.00053e-05
1.00053e-05
1.00056e-05
1.00058e-05
1.00062e-05
1.00058e-05
1.00056e-05
1.0006e-05
1.00157e-05
1.008e-05
1.095e-05
1.61073e-05
2.5927e-05
3.65651e-05
4.31528e-05
4.94739e-05
6.63618e-05
9.55441e-05
0.000115379
0.000115697
0.000114014
0.000107901
0.000110409
0.000333699
0.0348873
0.95216
0.999759
0.999999
0.999999
0.999999
0.999999
0.999999
0.999999
0.999999
0.999999
0.999999
0.999999
0.999999
0.999999
0.999999
0.999999
0.999999
0.999999
0.999999
0.999999
0.999999
0.999999
0.999999
0.999999
0.999999
0.999999
0.999999
0.999999
0.999999
0.999999
0.999999
0.999999
0.999999
0.999999
0.999999
1
2.45999e-06
2.23711e-06
2.38119e-06
4.36953e-06
6.89796e-06
8.63415e-06
9.46087e-06
9.83118e-06
9.92533e-06
9.99042e-06
9.98519e-06
1.00072e-05
9.99762e-06
1.00034e-05
9.99928e-06
1.00036e-05
1.00019e-05
1.00027e-05
1.00027e-05
1.00028e-05
1.00029e-05
1.0003e-05
1.0003e-05
1.00031e-05
1.00031e-05
1.00031e-05
1.00032e-05
1.00032e-05
1.00032e-05
1.00032e-05
1.00032e-05
1.00033e-05
1.00033e-05
1.00034e-05
1.00034e-05
1.00035e-05
1.00036e-05
1.00038e-05
1.00038e-05
1.00032e-05
1.00019e-05
1.00014e-05
1.00011e-05
1.00157e-05
1.01565e-05
1.21939e-05
2.02223e-05
3.12832e-05
4.05283e-05
4.65014e-05
5.08453e-05
5.98899e-05
7.70275e-05
9.77617e-05
0.000107077
0.000112185
0.000109468
0.000127474
0.000298673
0.0407885
0.958171
0.999832
0.999999
0.999999
0.999999
0.999999
0.999999
0.999999
0.999999
0.999999
0.999999
0.999999
0.999999
0.999999
0.999999
0.999999
0.999999
0.999999
0.999999
0.999999
0.999999
0.999999
0.999999
0.999999
0.999999
0.999999
0.999999
0.999999
0.999999
0.999999
0.999999
0.999999
0.999999
0.999999
0.999999
1
8.86448e-07
2.29752e-06
2.37908e-06
3.27143e-06
5.53931e-06
7.99581e-06
9.19851e-06
9.71053e-06
9.87496e-06
9.97924e-06
9.98813e-06
1.00072e-05
1.00062e-05
1.00076e-05
1.00075e-05
1.00088e-05
1.00087e-05
1.00095e-05
1.00095e-05
1.00096e-05
1.00097e-05
1.00098e-05
1.00098e-05
1.00098e-05
1.00102e-05
1.00102e-05
1.00102e-05
1.00102e-05
1.00102e-05
1.00102e-05
1.00102e-05
1.00102e-05
1.00102e-05
1.00102e-05
1.00102e-05
1.00102e-05
1.00102e-05
1.00102e-05
1.00102e-05
1.00101e-05
1.00091e-05
1.00086e-05
1.00082e-05
1.00242e-05
1.01821e-05
1.20435e-05
2.01195e-05
3.74361e-05
5.39431e-05
5.93899e-05
6.01077e-05
6.69772e-05
7.98631e-05
9.44782e-05
0.000106604
0.000109899
0.000109719
0.000193619
0.000609092
0.048585
0.965929
0.999857
0.999999
0.999999
0.999999
0.999999
0.999999
0.999999
0.999999
0.999999
0.999999
0.999999
0.999999
0.999999
0.999999
0.999999
0.999999
0.999999
0.999999
0.999999
0.999999
0.999999
0.999999
0.999999
0.999999
0.999999
0.999999
0.999999
0.999999
0.999999
0.999999
0.999999
0.999999
0.999999
1
1
6.69447e-06
7.59488e-06
8.66707e-06
8.71193e-06
9.24457e-06
9.55026e-06
9.59458e-06
9.58969e-06
9.67611e-06
9.79046e-06
9.90311e-06
9.9794e-06
1.00064e-05
1.00078e-05
1.00078e-05
1.00078e-05
1.00078e-05
1.00078e-05
1.00076e-05
1.00076e-05
1.00075e-05
1.00075e-05
1.00075e-05
1.00076e-05
1.00075e-05
1.00076e-05
1.00076e-05
1.00076e-05
1.00077e-05
1.00079e-05
1.00083e-05
1.00089e-05
1.00089e-05
1.00089e-05
1.00089e-05
1.00089e-05
1.00089e-05
1.00089e-05
1.00089e-05
1.00089e-05
1.00089e-05
1.00085e-05
1.0007e-05
1.0007e-05
1.00075e-05
1.002e-05
1.0192e-05
1.28562e-05
2.69892e-05
4.27685e-05
5.40013e-05
6.62981e-05
7.40295e-05
8.0281e-05
8.25091e-05
8.46314e-05
8.59661e-05
9.79537e-05
0.000598449
0.0606519
0.978174
0.999963
0.999999
0.999999
0.999999
0.999999
0.999999
0.999999
0.999999
0.999999
0.999999
0.999999
0.999999
0.999999
0.999999
0.999999
0.999999
0.999999
0.999999
0.999999
0.999999
0.999999
0.999999
0.999999
0.999999
0.999999
0.999999
0.999999
0.999999
0.999999
0.999999
0.999999
0.999999
1
1
1
5.20861e-06
6.31442e-06
7.04361e-06
6.83497e-06
8.65387e-06
8.75959e-06
8.84362e-06
8.85959e-06
9.04843e-06
9.5298e-06
9.8276e-06
9.96336e-06
1.0001e-05
1.00078e-05
1.00078e-05
1.00078e-05
1.00078e-05
1.00078e-05
1.00078e-05
1.00078e-05
1.00078e-05
1.00078e-05
1.00078e-05
1.00078e-05
1.00078e-05
1.00078e-05
1.00077e-05
1.00077e-05
1.00075e-05
1.00074e-05
1.00072e-05
1.00072e-05
1.0007e-05
1.00071e-05
1.00068e-05
1.00069e-05
1.00065e-05
1.00063e-05
1.00056e-05
1.00053e-05
1.00043e-05
1.00046e-05
1.00059e-05
1.00125e-05
1.00297e-05
1.00878e-05
1.05893e-05
1.42074e-05
2.55483e-05
3.93365e-05
5.2007e-05
6.45625e-05
7.52537e-05
8.12722e-05
8.05048e-05
7.75241e-05
8.30786e-05
9.92106e-05
0.000312567
0.112837
0.995693
0.999995
0.999999
0.999999
0.999999
0.999999
0.999999
0.999999
0.999999
0.999999
0.999999
0.999999
0.999999
0.999999
0.999999
0.999999
0.999999
0.999999
0.999999
0.999999
0.999999
0.999999
0.999999
0.999999
0.999999
0.999999
0.999999
0.999999
0.999999
0.999999
0.999999
1
1
1
1
1
4.66492e-06
5.22386e-06
5.60452e-06
6.39247e-06
7.45251e-06
7.6251e-06
8.07901e-06
8.20508e-06
8.5275e-06
9.36883e-06
9.8195e-06
9.97293e-06
9.99814e-06
1.00042e-05
1.00041e-05
1.00052e-05
1.00051e-05
1.00053e-05
1.00052e-05
1.00053e-05
1.00052e-05
1.00052e-05
1.00051e-05
1.00051e-05
1.0005e-05
1.00049e-05
1.00048e-05
1.00046e-05
1.00045e-05
1.00043e-05
1.00042e-05
1.0004e-05
1.00038e-05
1.00036e-05
1.00033e-05
1.0003e-05
1.00027e-05
1.00024e-05
1.00021e-05
1.00018e-05
1.00013e-05
1.00019e-05
1.0005e-05
1.00156e-05
1.00593e-05
1.02179e-05
1.08976e-05
1.4423e-05
2.39372e-05
3.84389e-05
5.39567e-05
7.26345e-05
8.75208e-05
9.45017e-05
8.01367e-05
9.32645e-05
0.000106068
0.000141068
0.000163294
0.177024
0.999276
0.99998
0.999981
0.999981
0.999981
0.999984
0.999987
0.999991
0.999995
0.999997
0.999998
0.999999
0.999999
0.999999
0.999999
0.999999
0.999999
0.999999
0.999999
0.999999
0.999999
0.999999
0.999999
0.999999
0.999999
0.999999
0.999999
0.999999
0.999999
0.999999
0.999999
0.999999
1
1
1
1
4.41917e-06
4.85259e-06
5.34897e-06
6.31605e-06
6.54167e-06
6.53677e-06
7.31755e-06
7.71237e-06
8.3608e-06
9.32171e-06
9.82913e-06
9.97657e-06
9.99568e-06
1.00021e-05
1.00013e-05
1.00021e-05
1.00018e-05
1.00018e-05
1.00017e-05
1.00017e-05
1.00016e-05
1.00015e-05
1.00015e-05
1.00014e-05
1.00013e-05
1.00012e-05
1.00011e-05
1.0001e-05
1.00008e-05
1.00006e-05
1.00004e-05
1.00002e-05
1e-05
9.99991e-06
9.99971e-06
9.99956e-06
9.99936e-06
9.99923e-06
9.99899e-06
9.99879e-06
9.99846e-06
9.99873e-06
1.00006e-05
1.00132e-05
1.01311e-05
1.0746e-05
1.20655e-05
1.62314e-05
2.5177e-05
4.14468e-05
5.93861e-05
8.16363e-05
0.000100593
0.000111481
0.000109327
0.000121935
0.000138209
0.000143303
0.000137274
0.25088
0.997297
0.999101
0.999094
0.999083
0.999051
0.999146
0.999266
0.999413
0.999568
0.999711
0.999826
0.999908
0.999957
0.999983
0.999994
0.999999
0.999999
0.999999
0.999999
0.999999
0.999999
0.999999
0.999999
0.999999
0.999999
0.999999
0.999999
0.999999
0.999999
0.999999
1
1
0.999999
1
1
1
4.34232e-06
4.62988e-06
5.36204e-06
6.37131e-06
6.39173e-06
6.30668e-06
6.85601e-06
7.33601e-06
8.32614e-06
9.34106e-06
9.82572e-06
9.9731e-06
9.99398e-06
1.00015e-05
1.00001e-05
1.00006e-05
1.00002e-05
1.00002e-05
1.00002e-05
1.00001e-05
1e-05
9.99992e-06
9.99988e-06
9.99984e-06
9.99976e-06
9.99966e-06
9.99956e-06
9.99946e-06
9.99928e-06
9.99909e-06
9.99892e-06
9.99874e-06
9.99855e-06
9.99843e-06
9.99836e-06
9.99826e-06
9.99815e-06
9.99802e-06
9.99791e-06
9.99777e-06
9.99747e-06
9.99758e-06
9.99908e-06
1.00136e-05
1.02178e-05
1.14024e-05
1.42212e-05
1.83826e-05
2.9144e-05
4.60047e-05
6.81256e-05
9.83274e-05
0.000122224
0.000123585
0.000128349
0.000136885
0.000140455
0.000145209
0.000137165
0.283328
0.987679
0.992768
0.992258
0.992101
0.992065
0.992394
0.992825
0.993404
0.994217
0.995142
0.996107
0.996995
0.997765
0.998428
0.998982
0.999403
0.99967
0.999835
0.999932
0.999974
0.999984
0.999986
0.99999
0.999992
0.999992
0.999995
0.999996
0.999996
0.999996
0.999997
0.999997
0.999998
0.999998
0.999999
0.999999
0.999999
4.3358e-06
4.59649e-06
5.46272e-06
6.14305e-06
6.43209e-06
6.36394e-06
6.98045e-06
7.20408e-06
8.31558e-06
9.36462e-06
9.78977e-06
9.95815e-06
9.99127e-06
1.00006e-05
9.99886e-06
9.99934e-06
9.99885e-06
9.99886e-06
9.99875e-06
9.99873e-06
9.99866e-06
9.99858e-06
9.99853e-06
9.9985e-06
9.99845e-06
9.9984e-06
9.99833e-06
9.99829e-06
9.99817e-06
9.99803e-06
9.99792e-06
9.99781e-06
9.99772e-06
9.99765e-06
9.99765e-06
9.99758e-06
9.99753e-06
9.99748e-06
9.99745e-06
9.99737e-06
9.99714e-06
9.99739e-06
9.9989e-06
1.00148e-05
1.02512e-05
1.16201e-05
1.51461e-05
1.85947e-05
3.0904e-05
5.0076e-05
8.44691e-05
0.000121615
0.00013946
0.000146919
0.000163234
0.000172227
0.000175952
0.000177995
0.000137274
0.358324
0.975612
0.982054
0.980684
0.980545
0.980995
0.981001
0.98103
0.981008
0.981304
0.981582
0.98224
0.982881
0.983745
0.984868
0.986408
0.988078
0.989701
0.99131
0.992829
0.994089
0.995103
0.995906
0.996648
0.997363
0.99802
0.998333
0.998347
0.998278
0.998256
0.998469
0.998603
0.998778
0.999019
0.999325
0.999671
0.999861
4.37341e-06
4.55315e-06
5.64732e-06
5.91516e-06
5.99644e-06
6.76674e-06
7.34134e-06
7.59004e-06
8.60957e-06
9.39466e-06
9.75192e-06
9.94314e-06
9.98893e-06
9.99988e-06
9.99824e-06
9.99877e-06
9.99833e-06
9.99834e-06
9.99824e-06
9.99825e-06
9.99825e-06
9.99828e-06
9.99825e-06
9.99823e-06
9.99821e-06
9.99819e-06
9.99816e-06
9.99813e-06
9.99806e-06
9.99795e-06
9.99789e-06
9.9978e-06
9.9978e-06
9.99774e-06
9.99773e-06
9.99766e-06
9.99765e-06
9.99767e-06
9.99767e-06
9.99763e-06
9.9975e-06
9.99792e-06
9.99979e-06
1.00186e-05
1.02791e-05
1.17542e-05
1.56438e-05
2.08256e-05
3.87356e-05
8.55849e-05
0.00011608
0.000150416
0.000151778
0.000150245
0.000153635
0.000158656
0.000156668
0.000181664
0.000137165
0.29889
0.970335
0.980583
0.979047
0.979012
0.979041
0.979421
0.978981
0.978652
0.978197
0.977088
0.975785
0.97425
0.972857
0.971936
0.971483
0.971148
0.97107
0.971115
0.971503
0.971877
0.971913
0.971786
0.971475
0.971092
0.97063
0.969803
0.968849
0.967517
0.965994
0.964414
0.963254
0.96237
0.962046
0.96412
0.968403
0.973859
4.33411e-06
4.31772e-06
5.71175e-06
6.35943e-06
6.10868e-06
7.15961e-06
7.41959e-06
8.26357e-06
8.9004e-06
9.44819e-06
9.72712e-06
9.93152e-06
9.98644e-06
9.99928e-06
9.9979e-06
9.99841e-06
9.99807e-06
9.9981e-06
9.99806e-06
9.99811e-06
9.99813e-06
9.99825e-06
9.99837e-06
9.99846e-06
9.99847e-06
9.99848e-06
9.99845e-06
9.99839e-06
9.99834e-06
9.99822e-06
9.99817e-06
9.99805e-06
9.99789e-06
9.99778e-06
9.99767e-06
9.99758e-06
9.99755e-06
9.99758e-06
9.99755e-06
9.99753e-06
9.99743e-06
9.99778e-06
9.99974e-06
1.00222e-05
1.02982e-05
1.18507e-05
1.59878e-05
2.29776e-05
7.22354e-05
0.000120881
0.000120827
0.000118425
0.000116751
0.000115606
0.000124125
0.000135908
0.000145357
0.000148632
0.000137274
0.192907
0.978479
0.990823
0.990916
0.992629
0.993884
0.995198
0.995588
0.995574
0.994676
0.993606
0.992231
0.990754
0.989022
0.986793
0.984065
0.981139
0.978667
0.976646
0.974614
0.97236
0.97028
0.968411
0.966064
0.962965
0.959463
0.955703
0.952074
0.947913
0.942728
0.936287
0.92826
0.918017
0.90431
0.881576
0.828083
0.621924
4.20295e-06
4.33089e-06
5.47012e-06
7.03244e-06
7.27301e-06
7.89636e-06
7.86528e-06
8.63031e-06
9.07195e-06
9.48944e-06
9.71827e-06
9.92572e-06
9.98533e-06
1.00011e-05
1.00003e-05
1.00008e-05
1.00006e-05
1.00007e-05
1.00007e-05
1.00007e-05
1.00006e-05
1.00006e-05
1.00005e-05
1.00005e-05
1.00005e-05
1.00005e-05
1.00004e-05
1.00004e-05
1.00003e-05
1.00003e-05
1.00002e-05
1.00002e-05
1.00001e-05
1.00001e-05
1.00001e-05
1.00001e-05
1.00001e-05
1.00001e-05
1.00002e-05
1.00004e-05
1.00005e-05
1.00007e-05
1.00017e-05
1.00252e-05
1.02881e-05
1.16383e-05
1.57671e-05
2.33842e-05
4.67508e-05
0.000115929
0.000111352
0.000102573
0.000100276
0.000100327
0.000101981
0.000110239
0.000136595
0.000170016
0.000205379
0.148629
0.990504
0.998814
0.999101
0.999476
0.999672
0.999797
0.999824
0.999834
0.999807
0.99973
0.999639
0.999563
0.999487
0.999378
0.999231
0.999068
0.998909
0.998737
0.998522
0.998208
0.997825
0.997425
0.997159
0.997104
0.997519
0.997949
0.998352
0.998581
0.998625
0.998853
0.999102
0.999221
0.999261
0.998877
0.998401
0.997933
2.31519e-06
4.7533e-06
5.98071e-06
7.41618e-06
7.97e-06
8.76985e-06
8.80582e-06
8.89312e-06
9.19845e-06
9.52865e-06
9.75592e-06
9.92785e-06
9.98513e-06
1.00023e-05
1.00014e-05
1.00023e-05
1.00021e-05
1.00021e-05
1.00021e-05
1.0002e-05
1.0002e-05
1.0002e-05
1.0002e-05
1.00019e-05
1.00019e-05
1.00019e-05
1.00018e-05
1.00018e-05
1.00018e-05
1.00018e-05
1.00017e-05
1.00017e-05
1.00017e-05
1.00016e-05
1.00017e-05
1.00016e-05
1.00016e-05
1.00016e-05
1.00016e-05
1.00017e-05
1.00017e-05
1.00015e-05
1.00021e-05
1.00251e-05
1.02698e-05
1.13722e-05
1.47473e-05
2.19493e-05
2.96841e-05
8.19955e-05
0.000108407
0.000106446
0.00010361
0.000107555
0.000105807
0.000100359
0.000110656
0.000139455
0.000184365
0.109433
0.995019
0.999921
0.999942
0.99997
0.999981
0.999989
0.999992
0.999996
0.999998
0.999999
0.999998
0.999995
0.999995
0.999995
0.999994
0.999993
0.999992
0.999992
0.999991
0.999991
0.999989
0.999988
0.999987
0.999988
0.999992
0.999995
0.999997
0.999998
0.999999
0.999999
0.999999
0.999999
0.999999
0.999999
1
1
1.89467e-06
5.19643e-06
6.86958e-06
7.46704e-06
7.92799e-06
8.9515e-06
9.18785e-06
9.16681e-06
9.31923e-06
9.56228e-06
9.79338e-06
9.94468e-06
9.98695e-06
1.00027e-05
1.00004e-05
1.00023e-05
1.00017e-05
1.00019e-05
1.00019e-05
1.00019e-05
1.0002e-05
1.0002e-05
1.0002e-05
1.0002e-05
1.0002e-05
1.0002e-05
1.0002e-05
1.0002e-05
1.0002e-05
1.0002e-05
1.0002e-05
1.0002e-05
1.0002e-05
1.0002e-05
1.0002e-05
1.0002e-05
1.0002e-05
1.0002e-05
1.00019e-05
1.00019e-05
1.00016e-05
1.00009e-05
1.00008e-05
1.00244e-05
1.02645e-05
1.11538e-05
1.38236e-05
2.04665e-05
3.32858e-05
4.16848e-05
8.22125e-05
0.000103219
0.000104563
0.000104406
0.000102662
0.000100415
0.000112205
0.000133872
0.000158565
0.0886266
0.99488
0.999999
0.999997
0.999999
0.999999
0.999999
0.999999
0.999999
0.999999
0.999999
0.999999
0.999999
0.999999
0.999999
0.999999
0.999999
0.999999
0.999999
0.999999
0.999999
0.999999
0.999999
0.999999
0.999999
0.999999
0.999999
0.999999
0.999999
0.999999
0.999999
0.999999
0.999999
0.999999
0.999999
0.999999
0.999999
4.0803e-06
6.07111e-06
7.09249e-06
7.42018e-06
7.89406e-06
8.92151e-06
9.31503e-06
9.42207e-06
9.42572e-06
9.61278e-06
9.82732e-06
9.96039e-06
9.99054e-06
1.00031e-05
9.99968e-06
1.00025e-05
1.00015e-05
1.00019e-05
1.00018e-05
1.00018e-05
1.00017e-05
1.00016e-05
1.00015e-05
1.00015e-05
1.00015e-05
1.00018e-05
1.00018e-05
1.00018e-05
1.00018e-05
1.00018e-05
1.00018e-05
1.00019e-05
1.00018e-05
1.00018e-05
1.00015e-05
1.00015e-05
1.00012e-05
1.00012e-05
1.00008e-05
1.00007e-05
1.00004e-05
1.00005e-05
1.00004e-05
1.0018e-05
1.01799e-05
1.09601e-05
1.35608e-05
2.05379e-05
3.43776e-05
4.46947e-05
5.29911e-05
8.10186e-05
0.000100103
9.97116e-05
9.41295e-05
0.000105485
0.000146107
0.000156744
0.000270729
0.0589121
0.993444
0.999999
0.999999
0.999999
0.999999
0.999999
0.999999
0.999999
0.999999
0.999999
0.999999
0.999999
0.999999
0.999999
0.999999
0.999999
0.999999
0.999999
0.999999
0.999999
0.999999
0.999999
0.999999
0.999999
0.999999
0.999999
0.999999
0.999999
0.999999
0.999999
0.999999
0.999999
0.999999
0.999999
0.999999
1
3.88885e-06
4.53004e-06
6.4665e-06
6.8483e-06
7.89294e-06
8.92617e-06
9.34737e-06
9.57965e-06
9.51661e-06
9.73947e-06
9.89483e-06
9.98969e-06
9.99526e-06
1.0004e-05
1e-05
1.00028e-05
1.00015e-05
1.0002e-05
1.00017e-05
1.00016e-05
1.00015e-05
1.00014e-05
1.00012e-05
1.00011e-05
1.00009e-05
1.00007e-05
1.00006e-05
1.00005e-05
1.00004e-05
1.00003e-05
1.00002e-05
1.00002e-05
9.99996e-06
9.99984e-06
9.99964e-06
9.99947e-06
9.99935e-06
9.99917e-06
9.9991e-06
9.99896e-06
9.99939e-06
1.00006e-05
1.0001e-05
1.00139e-05
1.01368e-05
1.09311e-05
1.56088e-05
2.58748e-05
3.63034e-05
4.93148e-05
5.24481e-05
6.19997e-05
8.35841e-05
9.22467e-05
8.69887e-05
0.000131875
0.000188912