/*--------------------------------*- C++ -*----------------------------------*\
| =========                 |                                                 |
| \\      /  F ield         | OpenFOAM: The Open Source CFD Toolbox           |
|  \\    /   O peration     | Version:  2.3.0                                 |
|   \\  /    A nd           | Web:      www.OpenFOAM.org                      |
|    \\/     M anipulation  |                                                 |
\*---------------------------------------------------------------------------*/
FoamFile
{
    version     2.0;
    format      ascii;
    class       volScalarField;
    location    "15";
    object      alpha.water;
}
// * * * * * * * * * * * * * * * * * * * * * * * * * * * * * * * * * * * * * //

dimensions      [0 0 0 0 0 0 0];

internalField   nonuniform List<scalar> 
6144
(
8.19066e-06
8.35802e-06
9.08782e-06
9.35137e-06
9.54239e-06
9.71561e-06
9.84186e-06
9.91789e-06
9.95364e-06
9.97801e-06
9.98678e-06
9.9926e-06
9.99311e-06
9.99391e-06
9.99369e-06
9.99369e-06
9.99369e-06
9.99369e-06
9.99399e-06
9.99438e-06
9.99438e-06
9.99451e-06
9.99456e-06
9.99471e-06
9.99471e-06
9.99476e-06
9.99478e-06
9.99481e-06
9.99482e-06
9.99494e-06
9.99494e-06
9.99508e-06
9.99508e-06
9.99519e-06
9.99519e-06
9.99565e-06
9.99489e-06
9.99704e-06
9.99422e-06
9.99907e-06
9.99374e-06
1.0001e-05
9.9942e-06
1.00008e-05
9.9949e-06
1.00008e-05
9.99037e-06
1.00132e-05
9.99249e-06
1.05117e-05
1.27271e-05
1.70317e-05
2.34706e-05
4.95865e-05
8.19901e-05
0.000147907
0.00020538
0.000684695
0.00189871
0.057702
0.961221
0.999769
0.999999
0.999999
0.999999
0.999999
0.999999
0.999999
0.999999
0.999999
0.999999
0.999999
0.999999
0.999999
0.999999
0.999999
0.999999
0.999999
0.999999
0.999999
0.999999
0.999999
0.999999
0.999999
0.999999
0.999999
0.999999
0.999999
0.999999
1
1
1
1
1
1
1
6.40344e-06
7.10182e-06
8.73626e-06
8.33229e-06
9.21628e-06
9.61275e-06
9.74317e-06
9.82083e-06
9.85444e-06
9.91217e-06
9.96292e-06
9.98853e-06
9.99578e-06
9.99785e-06
9.99691e-06
9.99733e-06
9.9966e-06
9.99706e-06
9.9966e-06
9.99695e-06
9.99671e-06
9.9969e-06
9.9968e-06
9.99689e-06
9.99685e-06
9.99689e-06
9.99689e-06
9.99692e-06
9.99696e-06
9.99706e-06
9.99701e-06
9.99728e-06
9.99685e-06
9.99771e-06
9.99629e-06
9.99883e-06
9.99532e-06
1.0001e-05
9.99424e-06
1.00039e-05
9.99374e-06
1.0007e-05
9.9942e-06
1.00076e-05
9.9949e-06
1.00052e-05
9.99037e-06
1.00189e-05
9.99628e-06
1.081e-05
1.36425e-05
1.81228e-05
2.74551e-05
5.48331e-05
6.90555e-05
0.000138611
0.000216613
0.000788373
0.00173904
0.0535492
0.966159
0.999952
0.999999
0.999999
0.999999
0.999999
0.999999
0.999999
0.999999
0.999999
0.999999
0.999999
0.999999
0.999999
0.999999
0.999999
0.999999
0.999999
0.999999
0.999999
0.999999
0.999999
0.999999
0.999999
0.999999
0.999999
0.999999
0.999999
1
1
1
1
1
1
1
1
5.36964e-06
5.97235e-06
6.881e-06
6.57785e-06
8.94647e-06
9.18993e-06
9.62115e-06
9.7793e-06
9.75351e-06
9.84827e-06
9.92529e-06
9.97759e-06
9.99535e-06
9.99836e-06
9.99784e-06
9.99808e-06
9.99769e-06
9.99794e-06
9.99771e-06
9.99791e-06
9.99779e-06
9.99792e-06
9.99788e-06
9.99794e-06
9.99792e-06
9.99795e-06
9.99795e-06
9.99797e-06
9.99801e-06
9.99808e-06
9.99804e-06
9.99827e-06
9.99791e-06
9.99862e-06
9.99749e-06
9.99961e-06
9.99669e-06
1.00014e-05
9.99518e-06
1.00046e-05
9.99377e-06
1.00091e-05
9.99568e-06
1.00095e-05
9.9949e-06
1.00076e-05
9.99037e-06
1.0025e-05
1.00117e-05
1.08866e-05
1.36692e-05
1.7208e-05
2.64825e-05
5.1333e-05
6.60618e-05
0.000159844
0.000166044
0.000615044
0.000953451
0.0482197
0.960903
0.999999
0.999999
0.999999
0.999999
0.999999
0.999999
0.999999
0.999999
0.999999
0.999999
0.999999
0.999999
0.999999
0.999999
0.999999
0.999999
0.999999
0.999999
0.999999
0.999999
0.999999
0.999999
0.999999
0.999999
0.999999
0.999999
0.999999
1
1
1
1
1
1
1
1
4.78006e-06
4.90494e-06
5.33328e-06
5.47322e-06
7.56241e-06
7.96346e-06
9.30115e-06
9.7226e-06
9.78624e-06
9.84501e-06
9.91314e-06
9.97368e-06
9.99296e-06
9.99648e-06
9.99649e-06
9.99661e-06
9.99656e-06
9.99656e-06
9.99655e-06
9.99655e-06
9.99653e-06
9.99653e-06
9.99653e-06
9.99652e-06
9.99652e-06
9.99652e-06
9.99652e-06
9.99652e-06
9.99657e-06
9.99664e-06
9.99664e-06
9.99672e-06
9.99672e-06
9.99683e-06
9.99669e-06
9.99731e-06
9.99613e-06
9.99873e-06
9.99514e-06
1.00013e-05
9.99377e-06
1.00056e-05
9.99484e-06
1.00079e-05
9.9949e-06
1.00062e-05
9.99037e-06
1.0024e-05
1.00281e-05
1.09452e-05
1.26872e-05
1.58104e-05
2.20549e-05
4.57014e-05
8.18073e-05
0.000169009
0.000177505
0.000480513
0.00037669
0.0675254
0.957543
0.999999
0.999999
0.999999
0.999999
0.999999
0.999999
0.999999
0.999999
0.999999
0.999999
0.999999
0.999999
0.999999
0.999999
0.999999
0.999999
0.999999
0.999999
0.999999
0.999999
0.999999
0.999999
0.999999
0.999999
0.999999
0.999999
1
1
1
1
1
1
1
1
1
4.57203e-06
4.41946e-06
4.55739e-06
4.66618e-06
6.20421e-06
6.73523e-06
8.4204e-06
9.14672e-06
9.75826e-06
9.91608e-06
9.91568e-06
9.97067e-06
9.99241e-06
9.99685e-06
9.99725e-06
9.99776e-06
9.99778e-06
9.99804e-06
9.99804e-06
9.99818e-06
9.99818e-06
9.99826e-06
9.99827e-06
9.99831e-06
9.99829e-06
9.99829e-06
9.99826e-06
9.99825e-06
9.99824e-06
9.99825e-06
9.99822e-06
9.99826e-06
9.99815e-06
9.99841e-06
9.9979e-06
9.99897e-06
9.9974e-06
1.00002e-05
9.99653e-06
1.00025e-05
9.99623e-06
1.00056e-05
9.9961e-06
1.00091e-05
9.99494e-06
1.001e-05
9.99037e-06
1.00363e-05
1.01185e-05
1.11164e-05
1.25432e-05
1.55984e-05
2.26129e-05
3.83274e-05
9.76882e-05
0.00019205
0.0001956
0.00035621
0.000131882
0.170014
0.996573
0.999982
0.999993
0.999997
0.999998
0.999999
0.999999
0.999999
0.999999
0.999999
0.999999
0.999999
0.999999
0.999999
0.999999
0.999999
0.999999
0.999999
0.999999
0.999999
0.999999
0.999999
0.999999
0.999999
0.999999
1
1
1
1
1
1
1
1
1
1
1
4.57042e-06
4.28044e-06
4.19531e-06
4.28789e-06
5.42516e-06
5.86666e-06
7.39302e-06
8.59454e-06
9.2383e-06
9.79872e-06
9.91914e-06
9.9718e-06
9.988e-06
9.99337e-06
9.99334e-06
9.99334e-06
9.99338e-06
9.99346e-06
9.99338e-06
9.99336e-06
9.99324e-06
9.99321e-06
9.99313e-06
9.9931e-06
9.99304e-06
9.99302e-06
9.993e-06
9.99299e-06
9.99299e-06
9.99298e-06
9.99298e-06
9.99298e-06
9.99297e-06
9.99298e-06
9.99296e-06
9.99306e-06
9.99298e-06
9.99452e-06
9.99399e-06
9.99573e-06
9.995e-06
9.99733e-06
9.99502e-06
1.00003e-05
9.99477e-06
1.00015e-05
9.99037e-06
1.00534e-05
1.02467e-05
1.11705e-05
1.29643e-05
1.77217e-05
2.83917e-05
4.38947e-05
0.000101937
0.000189302
0.000181392
0.000243454
1.00186e-05
0.354049
0.996658
0.99895
0.999126
0.999194
0.999341
0.999627
0.999803
0.99986
0.999878
0.99989
0.999916
0.999951
0.99997
0.999977
0.999983
0.999991
0.999995
0.999997
0.999999
0.999999
0.999999
0.999999
1
1
0.999999
0.999998
0.999999
0.999999
0.999999
0.999999
1
1
1
1
1
1
4.80831e-06
4.28988e-06
4.06704e-06
4.1648e-06
4.84114e-06
5.35552e-06
6.62735e-06
8.12238e-06
8.67639e-06
9.38345e-06
9.83562e-06
9.96693e-06
9.99213e-06
9.99855e-06
9.99725e-06
9.99784e-06
9.99743e-06
9.9979e-06
9.99785e-06
9.99809e-06
9.9981e-06
9.99825e-06
9.99828e-06
9.99839e-06
9.99842e-06
9.99846e-06
9.99847e-06
9.99847e-06
9.99846e-06
9.99847e-06
9.99848e-06
9.99852e-06
9.99854e-06
9.9987e-06
9.99858e-06
9.99914e-06
9.99836e-06
1.00007e-05
9.99888e-06
1.00045e-05
1.00005e-05
1.0006e-05
9.99926e-06
1.00079e-05
9.99625e-06
1.00083e-05
9.99229e-06
1.00853e-05
1.02597e-05
1.11197e-05
1.33259e-05
2.03232e-05
3.43867e-05
5.2087e-05
7.85699e-05
0.000151187
0.000210546
0.000277212
1.00186e-05
0.568787
0.987122
0.988977
0.988181
0.988048
0.989395
0.990946
0.991768
0.990818
0.990199
0.990979
0.992701
0.994246
0.994615
0.994469
0.994549
0.995668
0.996278
0.99666
0.997025
0.997472
0.997898
0.998131
0.998228
0.998319
0.998468
0.99873
0.998957
0.999135
0.999329
0.99957
0.999777
0.999927
0.999999
1
1
0.99999
4.98677e-06
4.63417e-06
4.06512e-06
4.17356e-06
4.45741e-06
5.12367e-06
6.31544e-06
7.75791e-06
8.44515e-06
9.05018e-06
9.6901e-06
9.94178e-06
9.98914e-06
9.99884e-06
9.9989e-06
9.99987e-06
9.99978e-06
1.00004e-05
1.00005e-05
1.00009e-05
1.0001e-05
1.00012e-05
1.00013e-05
1.00015e-05
1.00017e-05
1.00019e-05
1.00022e-05
1.00024e-05
1.00027e-05
1.0003e-05
1.00032e-05
1.00035e-05
1.00037e-05
1.0004e-05
1.00041e-05
1.00053e-05
1.00061e-05
1.00061e-05
1.00061e-05
1.00061e-05
1.00061e-05
1.00061e-05
1.0004e-05
1.00092e-05
1.00011e-05
1.00121e-05
1.00003e-05
1.00776e-05
1.01617e-05
1.08181e-05
1.237e-05
1.63037e-05
2.85012e-05
5.0383e-05
5.76602e-05
0.000163949
0.000227307
0.000305455
1.00186e-05
0.622388
0.969252
0.971532
0.972264
0.972967
0.973034
0.971139
0.96838
0.967458
0.967369
0.967973
0.969257
0.969646
0.969718
0.969725
0.969612
0.969408
0.969318
0.969255
0.9692
0.969191
0.96934
0.969604
0.969777
0.969911
0.970043
0.970235
0.970475
0.97073
0.970989
0.971494
0.971879
0.972325
0.973532
0.974883
0.978364
0.982847
4.96121e-06
4.99209e-06
4.38025e-06
4.68798e-06
4.27168e-06
5.15857e-06
6.41575e-06
7.87643e-06
8.48174e-06
8.91676e-06
9.51538e-06
9.85029e-06
9.9668e-06
9.99316e-06
9.99371e-06
9.99452e-06
9.99445e-06
9.99511e-06
9.99528e-06
9.99573e-06
9.99589e-06
9.9962e-06
9.99634e-06
9.99661e-06
9.9968e-06
9.99707e-06
9.99736e-06
9.99765e-06
9.9979e-06
9.99811e-06
9.99831e-06
9.99851e-06
9.99868e-06
9.99892e-06
9.99911e-06
1.00003e-05
1.00008e-05
1.00019e-05
1.00005e-05
1.00029e-05
9.99998e-06
1.00039e-05
9.99897e-06
1.00063e-05
9.99917e-06
1.00121e-05
1.00101e-05
1.00605e-05
1.00615e-05
1.05858e-05
1.17367e-05
1.53158e-05
3.15474e-05
5.62985e-05
6.28857e-05
0.000118181
0.000172202
0.000335424
2.02352e-05
0.394165
0.977297
0.989226
0.990818
0.990771
0.990117
0.990191
0.9891
0.987974
0.987829
0.986665
0.986162
0.988658
0.98923
0.988889
0.98807
0.987342
0.987433
0.988404
0.988522
0.986503
0.984662
0.98479
0.986754
0.987162
0.987307
0.987804
0.988233
0.988732
0.9895
0.990266
0.991165
0.99222
0.993603
0.99521
0.99705
0.998595
4.9015e-06
5.15866e-06
4.92019e-06
5.27539e-06
4.71533e-06
6.09769e-06
7.02357e-06
8.19505e-06
8.7056e-06
9.13313e-06
9.55766e-06
9.84773e-06
9.96854e-06
9.99644e-06
9.99711e-06
9.99817e-06
9.99845e-06
9.99945e-06
9.99979e-06
1.00003e-05
1.00005e-05
1.00007e-05
1.00008e-05
1.00009e-05
1.00009e-05
1.00009e-05
1.00008e-05
1.00007e-05
1.00006e-05
1.00005e-05
1.00003e-05
1.00001e-05
9.99998e-06
9.99987e-06
9.99971e-06
9.99985e-06
9.99946e-06
1.00003e-05
9.99881e-06
1.00014e-05
9.99814e-06
1.00029e-05
9.9976e-06
1.00049e-05
9.99743e-06
1.00119e-05
1.00058e-05
1.00386e-05
9.99477e-06
1.03617e-05
1.12616e-05
1.33305e-05
2.25679e-05
5.4169e-05
8.88509e-05
0.000122454
0.000130268
0.00039528
0.000177426
0.200347
0.987473
0.998744
0.999269
0.999472
0.999518
0.999549
0.999533
0.999501
0.999499
0.999504
0.999507
0.999503
0.999485
0.999478
0.999478
0.99947
0.999421
0.999373
0.99936
0.999359
0.99933
0.999308
0.999397
0.999434
0.999439
0.999481
0.999569
0.999608
0.999619
0.999706
0.999786
0.999834
0.999891
0.999941
0.999977
0.999992
4.41832e-06
4.97684e-06
5.46948e-06
5.77052e-06
5.27598e-06
7.05059e-06
7.82678e-06
8.7561e-06
9.26016e-06
9.64783e-06
9.82929e-06
9.92895e-06
9.98404e-06
9.9966e-06
9.99509e-06
9.99509e-06
9.99509e-06
9.99509e-06
9.99509e-06
9.99538e-06
9.9964e-06
9.99678e-06
9.99698e-06
9.99725e-06
9.99744e-06
9.99765e-06
9.99782e-06
9.99801e-06
9.99818e-06
9.99836e-06
9.99853e-06
9.99868e-06
9.99878e-06
9.99886e-06
9.99886e-06
9.99908e-06
9.99874e-06
1e-05
9.99833e-06
1.00016e-05
9.99767e-06
1.00037e-05
9.99707e-06
1.00064e-05
9.99673e-06
1.00131e-05
9.99859e-06
1.00383e-05
9.99023e-06
1.01922e-05
1.08332e-05
1.20673e-05
1.77472e-05
4.80788e-05
0.000114037
0.000128274
0.000132197
0.000563738
0.000309359
0.0813337
0.97233
0.999968
0.999994
0.999998
0.999999
0.999999
0.999999
0.999999
0.999999
0.999999
0.999999
0.999999
0.999999
0.999999
0.999999
0.999998
0.999999
0.999999
0.999999
0.999998
0.999999
0.999999
0.999999
0.999999
0.999999
0.999999
0.999999
0.999999
1
1
1
1
1
1
1
1
2.93459e-06
3.87189e-06
6.12691e-06
6.37444e-06
5.85407e-06
7.86209e-06
8.55391e-06
9.31105e-06
9.68575e-06
9.89213e-06
9.96609e-06
9.99925e-06
1.00051e-05
1.00067e-05
1.00045e-05
1.00039e-05
1.00033e-05
1.00032e-05
1.0003e-05
1.00031e-05
1.00031e-05
1.00031e-05
1.0003e-05
1.0003e-05
1.0003e-05
1.0003e-05
1.00031e-05
1.00031e-05
1.00032e-05
1.00032e-05
1.00032e-05
1.00033e-05
1.00033e-05
1.00033e-05
1.00032e-05
1.00033e-05
1.00027e-05
1.00041e-05
1.00021e-05
1.00068e-05
1.00012e-05
1.00086e-05
9.99972e-06
1.00124e-05
1.00008e-05
1.00131e-05
9.99658e-06
1.00383e-05
9.99023e-06
1.01404e-05
1.05441e-05
1.22713e-05
1.66942e-05
3.44094e-05
0.000104284
0.00015286
0.000156024
0.000684649
0.000428741
0.0357041
0.9496
1
0.999999
0.999999
0.999999
0.999999
0.999999
0.999999
0.999999
0.999999
0.999999
0.999999
0.999999
0.999999
0.999999
0.999999
0.999999
0.999999
0.999999
0.999999
0.999999
0.999999
1
1
1
1
1
1
1
1
1
1
1
1
1
1
1.2012e-06
3.12961e-06
5.93999e-06
6.77866e-06
6.53231e-06
8.42075e-06
9.07012e-06
9.6192e-06
9.83086e-06
9.947e-06
9.98889e-06
1.00077e-05
1.00077e-05
1.00077e-05
1.00077e-05
1.00077e-05
1.00077e-05
1.00077e-05
1.00077e-05
1.00077e-05
1.00077e-05
1.00077e-05
1.00077e-05
1.00077e-05
1.00075e-05
1.00074e-05
1.00072e-05
1.0007e-05
1.00069e-05
1.00068e-05
1.00067e-05
1.00066e-05
1.00065e-05
1.00064e-05
1.00063e-05
1.00067e-05
1.00072e-05
1.00072e-05
1.00072e-05
1.00072e-05
1.00068e-05
1.00086e-05
1.00043e-05
1.00131e-05
1.00046e-05
1.00131e-05
9.99257e-06
1.00381e-05
9.99023e-06
1.01185e-05
1.05283e-05
1.32486e-05
1.80529e-05
2.69714e-05
6.41958e-05
0.00012263
0.000200895
0.000822863
0.000606481
0.0220363
0.927496
1
1
1
1
1
1
1
1
1
1
1
1
1
1
1
1
1
1
1
1
1
1
1
1
1
1
1
1
1
1
1
1
1
1
1
9.05042e-07
3.40059e-06
5.94354e-06
7.08416e-06
7.28145e-06
8.77062e-06
9.38087e-06
9.78169e-06
9.90939e-06
9.9811e-06
9.99756e-06
1.00077e-05
1.00062e-05
1.00071e-05
1.00067e-05
1.00068e-05
1.00067e-05
1.00067e-05
1.00067e-05
1.00066e-05
1.00066e-05
1.00066e-05
1.00066e-05
1.00066e-05
1.00065e-05
1.00064e-05
1.00063e-05
1.00062e-05
1.00061e-05
1.00061e-05
1.0006e-05
1.0006e-05
1.0006e-05
1.0006e-05
1.00059e-05
1.00064e-05
1.00069e-05
1.00072e-05
1.00072e-05
1.00072e-05
1.00068e-05
1.00086e-05
1.00046e-05
1.00131e-05
1.00048e-05
1.00131e-05
9.98997e-06
1.00353e-05
9.99023e-06
1.01074e-05
1.0424e-05
1.40854e-05
2.23424e-05
3.73226e-05
4.94834e-05
8.28904e-05
0.000281126
0.000959281
0.000870927
0.0371488
0.931453
0.999994
1
1
1
1
1
1
1
1
1
1
1
1
1
1
1
1
1
1
1
1
1
1
1
1
1
1
1
1
1
1
1
1
1
1
6.29295e-07
4.12691e-06
6.19304e-06
7.31993e-06
8.00578e-06
9.00361e-06
9.51344e-06
9.81418e-06
9.91597e-06
9.98149e-06
9.99139e-06
1.0002e-05
1.00005e-05
1.00021e-05
1.00018e-05
1.00023e-05
1.00024e-05
1.00025e-05
1.00027e-05
1.00027e-05
1.00028e-05
1.00029e-05
1.0003e-05
1.00031e-05
1.00031e-05
1.00032e-05
1.00032e-05
1.00033e-05
1.00033e-05
1.00034e-05
1.00034e-05
1.00035e-05
1.00035e-05
1.00036e-05
1.00036e-05
1.00039e-05
1.00038e-05
1.00055e-05
1.00046e-05
1.00065e-05
1.00039e-05
1.00083e-05
1.00019e-05
1.00131e-05
1.00024e-05
1.00131e-05
9.98997e-06
1.00284e-05
9.99023e-06
1.00924e-05
1.03312e-05
1.31633e-05
2.00408e-05
4.52446e-05
5.25841e-05
9.67062e-05
0.000421754
0.00107023
0.00140716
0.0325339
0.931281
0.999772
1
1
1
1
1
1
1
1
1
1
1
1
1
1
1
1
1
1
1
1
1
1
1
1
1
1
1
1
1
1
1
1
1
1
9.05442e-07
4.9135e-06
6.48977e-06
7.30056e-06
8.0887e-06
8.86696e-06
9.40636e-06
9.73611e-06
9.8811e-06
9.96975e-06
9.98948e-06
1.00061e-05
1.00062e-05
1.00072e-05
1.00072e-05
1.00078e-05
1.00079e-05
1.0008e-05
1.00081e-05
1.00082e-05
1.00083e-05
1.00084e-05
1.00084e-05
1.00085e-05
1.00085e-05
1.00086e-05
1.00086e-05
1.00087e-05
1.00087e-05
1.00088e-05
1.00089e-05
1.00091e-05
1.00091e-05
1.00091e-05
1.00091e-05
1.00091e-05
1.00091e-05
1.0011e-05
1.00114e-05
1.00115e-05
1.00115e-05
1.00126e-05
1.00126e-05
1.00134e-05
1.00115e-05
1.00131e-05
9.99348e-06
1.00374e-05
9.99766e-06
1.01265e-05
1.04337e-05
1.30588e-05
2.07041e-05
3.90048e-05
5.36137e-05
0.00019152
0.000291862
0.000930227
0.00124372
0.0417997
0.919305
0.99917
0.999998
1
1
1
1
1
1
1
1
1
1
1
1
1
1
1
1
1
1
1
1
1
1
1
1
1
1
1
1
1
1
1
1
1
8.29676e-06
8.60781e-06
9.24749e-06
9.29862e-06
9.488e-06
9.52402e-06
9.5098e-06
9.54344e-06
9.66355e-06
9.79022e-06
9.9125e-06
9.98198e-06
1.00051e-05
1.00063e-05
1.00063e-05
1.00063e-05
1.00061e-05
1.00061e-05
1.0006e-05
1.00061e-05
1.0006e-05
1.00061e-05
1.0006e-05
1.00061e-05
1.00061e-05
1.00062e-05
1.00062e-05
1.00063e-05
1.00063e-05
1.00063e-05
1.00063e-05
1.00063e-05
1.00063e-05
1.00063e-05
1.00063e-05
1.00065e-05
1.00066e-05
1.00076e-05
1.00076e-05
1.00096e-05
1.00094e-05
1.00096e-05
1.0009e-05
1.00096e-05
1.00093e-05
1.00099e-05
9.99565e-06
1.00295e-05
1.00009e-05
1.03768e-05
1.19384e-05
1.6082e-05
2.36718e-05
4.97459e-05
7.73169e-05
0.000141791
0.000201104
0.000911157
0.00379192
0.0693826
0.948098
0.999558
0.999999
0.999999
0.999999
0.999999
0.999999
0.999999
0.999999
0.999999
0.999999
0.999999
0.999999
0.999999
0.999999
0.999999
0.999999
0.999999
0.999999
0.999999
0.999999
0.999999
0.999999
0.999999
0.999999
0.999999
0.999999
0.999999
0.999999
0.999999
1
1
1
1
0.999999
1
6.45865e-06
7.579e-06
8.62069e-06
8.141e-06
8.96219e-06
8.93578e-06
8.90322e-06
8.94924e-06
9.14021e-06
9.52587e-06
9.80259e-06
9.95482e-06
1.00015e-05
1.00063e-05
1.00063e-05
1.00063e-05
1.00063e-05
1.00063e-05
1.00063e-05
1.00063e-05
1.00063e-05
1.00063e-05
1.00063e-05
1.00063e-05
1.00063e-05
1.00063e-05
1.00063e-05
1.00063e-05
1.00063e-05
1.00063e-05
1.00063e-05
1.00063e-05
1.00063e-05
1.00063e-05
1.00063e-05
1.00068e-05
1.00068e-05
1.00076e-05
1.0007e-05
1.00096e-05
1.00096e-05
1.00096e-05
1.00096e-05
1.00096e-05
1.00094e-05
1.00099e-05
9.99614e-06
1.00399e-05
1e-05
1.04826e-05
1.21801e-05
1.58348e-05
2.62613e-05
5.39904e-05
7.26829e-05
0.000132514
0.000243501
0.000807582
0.00215675
0.060969
0.95896
0.999926
0.999999
0.999999
0.999999
0.999999
0.999999
0.999999
0.999999
0.999999
0.999999
0.999999
0.999999
0.999999
0.999999
0.999999
0.999999
0.999999
0.999999
0.999999
0.999999
0.999999
0.999999
0.999999
0.999999
0.999999
0.999999
0.999999
0.999999
0.999999
0.999999
1
1
1
0.999999
1
5.33052e-06
6.64885e-06
7.45471e-06
6.5637e-06
8.2198e-06
8.3552e-06
8.43663e-06
8.42495e-06
8.4595e-06
9.21519e-06
9.75689e-06
9.95514e-06
9.99761e-06
1.00042e-05
1.00043e-05
1.00048e-05
1.00048e-05
1.00051e-05
1.00051e-05
1.00052e-05
1.00051e-05
1.00052e-05
1.00052e-05
1.00053e-05
1.00052e-05
1.00052e-05
1.00051e-05
1.0005e-05
1.0005e-05
1.0005e-05
1.0005e-05
1.0005e-05
1.00049e-05
1.00052e-05
1.00047e-05
1.00059e-05
1.00044e-05
1.00063e-05
1.00037e-05
1.00085e-05
1.00043e-05
1.00096e-05
1.00059e-05
1.00096e-05
1.00042e-05
1.001e-05
9.99805e-06
1.00456e-05
1.00495e-05
1.05923e-05
1.21474e-05
1.60913e-05
2.82672e-05
5.42918e-05
6.75684e-05
0.000151685
0.000177549
0.000605421
0.00100978
0.0535079
0.960516
0.999999
0.999999
0.999999
0.999999
0.999999
0.999999
0.999999
0.999999
0.999999
0.999999
0.999999
0.999999
0.999999
0.999999
0.999999
0.999999
0.999999
0.999999
0.999999
0.999999
0.999999
0.999999
0.999999
0.999999
0.999999
0.999999
0.999999
0.999999
0.999999
0.999999
1
1
1
0.999999
1
4.70271e-06
5.64809e-06
6.12737e-06
5.53217e-06
7.28771e-06
7.48728e-06
7.94385e-06
8.02463e-06
8.02748e-06
8.99853e-06
9.74104e-06
9.97106e-06
9.99659e-06
1.00017e-05
1.00015e-05
1.00021e-05
1.0002e-05
1.00021e-05
1.00021e-05
1.00021e-05
1.00021e-05
1.00021e-05
1.00021e-05
1.00021e-05
1.00021e-05
1.00021e-05
1.0002e-05
1.00019e-05
1.00018e-05
1.00018e-05
1.00017e-05
1.00017e-05
1.00016e-05
1.00017e-05
1.00015e-05
1.00021e-05
1.00015e-05
1.00027e-05
1.00009e-05
1.00046e-05
1.00002e-05
1.00071e-05
1.00001e-05
1.00096e-05
9.99923e-06
1.001e-05
9.99403e-06
1.00456e-05
1.00919e-05
1.06995e-05
1.20221e-05
1.59639e-05
2.19599e-05
4.38212e-05
9.59046e-05
0.000169953
0.000306765
0.000470799
0.000342101
0.06288
0.960791
0.999999
0.999992
0.999999
0.999999
0.999999
0.999999
0.999999
0.999999
0.999999
0.999999
0.999999
0.999999
0.999999
0.999999
0.999999
0.999999
0.999999
0.999999
0.999999
0.999999
0.999999
0.999999
0.999999
0.999999
0.999999
0.999999
0.999999
0.999999
0.999999
0.999999
0.999999
0.999999
0.999999
0.999999
1
4.38881e-06
4.70371e-06
5.16539e-06
5.04879e-06
6.78164e-06
6.62793e-06
7.24284e-06
7.5007e-06
7.84152e-06
8.95489e-06
9.77897e-06
9.97754e-06
9.99674e-06
1.00009e-05
1.00005e-05
1.00012e-05
1.00011e-05
1.0001e-05
1.0001e-05
1.00009e-05
1.00009e-05
1.00009e-05
1.00009e-05
1.00009e-05
1.00009e-05
1.00008e-05
1.00008e-05
1.00007e-05
1.00006e-05
1.00005e-05
1.00004e-05
1.00004e-05
1.00004e-05
1.00004e-05
1.00003e-05
1.00006e-05
1.00002e-05
1.00013e-05
9.99972e-06
1.00031e-05
9.99903e-06
1.00055e-05
9.99797e-06
1.00091e-05
9.99733e-06
1.001e-05
9.99279e-06
1.00377e-05
1.00827e-05
1.05749e-05
1.18155e-05
1.62029e-05
2.37535e-05
3.28905e-05
0.000165848
0.000242762
0.000242685
0.000211379
0.000104776
0.139181
0.977198
0.999628
0.999722
0.999898
0.999942
0.999973
0.999987
0.999994
0.999997
0.999999
0.999999
0.999999
0.999999
0.999999
0.999999
0.999999
0.999999
0.999999
0.999999
0.999999
0.999999
0.999999
0.999999
0.999999
0.999999
0.999999
0.999999
0.999999
0.999999
0.999999
0.999999
0.999999
0.999999
0.999999
0.999999
1
4.37476e-06
4.27399e-06
4.3651e-06
4.63276e-06
6.8021e-06
6.05335e-06
6.75788e-06
7.06309e-06
7.75457e-06
8.99258e-06
9.80949e-06
9.9783e-06
9.99572e-06
9.99995e-06
9.99956e-06
1.00004e-05
1.00002e-05
1.00001e-05
9.99993e-06
9.99985e-06
9.9998e-06
9.99981e-06
9.99976e-06
9.99975e-06
9.99972e-06
9.99975e-06
9.9997e-06
9.99967e-06
9.99963e-06
9.99959e-06
9.99953e-06
9.99952e-06
9.99948e-06
9.99952e-06
9.99942e-06
9.99968e-06
9.99924e-06
1.00005e-05
9.99892e-06
1.00022e-05
9.9982e-06
1.00048e-05
9.9973e-06
1.00084e-05
9.99604e-06
1.001e-05
9.99127e-06
1.00311e-05
1.00559e-05
1.04637e-05
1.16062e-05
1.61571e-05
2.45029e-05
3.41946e-05
0.000164
0.000218519
0.000209744
0.00017596
1.00186e-05
0.303625
0.990372
0.994474
0.994939
0.995667
0.99591
0.996824
0.997622
0.998057
0.998413
0.998676
0.998871
0.998974
0.999099
0.999325
0.999477
0.999583
0.99968
0.999778
0.999848
0.999891
0.999918
0.999929
0.999932
0.999934
0.999934
0.999938
0.999937
0.999946
0.999957
0.999973
0.99999
0.999998
1
0.999999
0.999999
1
4.6572e-06
4.27499e-06
4.02882e-06
4.27728e-06
5.36303e-06
5.52301e-06
6.66076e-06
6.88451e-06
7.78196e-06
9.18589e-06
9.8248e-06
9.97499e-06
9.9947e-06
9.99943e-06
9.99922e-06
1e-05
9.99992e-06
9.99983e-06
9.9997e-06
9.99962e-06
9.99959e-06
9.99961e-06
9.99959e-06
9.99957e-06
9.99956e-06
9.99961e-06
9.99958e-06
9.99957e-06
9.99956e-06
9.99954e-06
9.9995e-06
9.9995e-06
9.99948e-06
9.99954e-06
9.99943e-06
9.99965e-06
9.99921e-06
1.00006e-05
9.99891e-06
1.00022e-05
9.99817e-06
1.00051e-05
9.99728e-06
1.00087e-05
9.99596e-06
1.001e-05
9.99037e-06
1.00279e-05
1.00457e-05
1.03919e-05
1.13542e-05
1.57383e-05
2.45137e-05
3.65425e-05
9.06852e-05
0.000169409
0.000333925
0.000349959
1.00186e-05
0.472246
0.975807
0.97993
0.979268
0.975199
0.974842
0.976972
0.976921
0.976924
0.977531
0.978215
0.979279
0.98014
0.980727
0.981176
0.981613
0.982128
0.98273
0.983427
0.984145
0.984853
0.985502
0.986069
0.986435
0.986204
0.987
0.988248
0.989161
0.989614
0.988623
0.990024
0.992919
0.995184
0.998243
0.999857
0.999661
0.999639
4.80973e-06
4.67072e-06
4.04868e-06
4.49928e-06
4.59406e-06
5.00909e-06
6.35416e-06
6.99225e-06
8.26513e-06
9.35481e-06
9.82744e-06
9.96786e-06
9.9939e-06
9.99917e-06
9.99907e-06
9.99988e-06
9.99979e-06
9.99989e-06
9.99996e-06
1e-05
1.00001e-05
1.00002e-05
1.00002e-05
1.00002e-05
1.00002e-05
1.00002e-05
1.00002e-05
1.00002e-05
1.00002e-05
1.00002e-05
1.00002e-05
1.00002e-05
1.00002e-05
1.00002e-05
1.00001e-05
1.00002e-05
9.99966e-06
1.00012e-05
9.999e-06
1.00029e-05
9.99814e-06
1.00058e-05
9.99722e-06
1.00092e-05
9.99596e-06
1.00104e-05
9.98996e-06
1.00262e-05
1.00409e-05
1.03283e-05
1.10995e-05
1.51994e-05
2.26598e-05
3.80983e-05
6.78317e-05
0.000255094
0.000321439
0.000345711
1.00186e-05
0.494152
0.966467
0.971586
0.97163
0.971673
0.970496
0.969703
0.968799
0.968014
0.967567
0.967125
0.966473
0.965638
0.964527
0.963185
0.961766
0.960408
0.959133
0.95788
0.956425
0.954375
0.951507
0.948598
0.946113
0.943729
0.941015
0.937677
0.93373
0.929277
0.924383
0.918671
0.911331
0.901314
0.887432
0.865055
0.815683
0.620009
4.86011e-06
5.03774e-06
4.55065e-06
5.29482e-06
4.34857e-06
4.93676e-06
6.24653e-06
7.53607e-06
8.69498e-06
9.46667e-06
9.82362e-06
9.96312e-06
9.99414e-06
1.00007e-05
1.00007e-05
1.00015e-05
1.00016e-05
1.00016e-05
1.00016e-05
1.00016e-05
1.00016e-05
1.00016e-05
1.00016e-05
1.00016e-05
1.00016e-05
1.00016e-05
1.00016e-05
1.00016e-05
1.00016e-05
1.00016e-05
1.00016e-05
1.00017e-05
1.00017e-05
1.00018e-05
1.00018e-05
1.0002e-05
1.00017e-05
1.00029e-05
1.00011e-05
1.00046e-05
1.00001e-05
1.00075e-05
9.9992e-06
1.0011e-05
9.99806e-06
1.00121e-05
9.98996e-06
1.00285e-05
1.00423e-05
1.02718e-05
1.08607e-05
1.45001e-05
2.21257e-05
4.31875e-05
6.94038e-05
0.000117599
0.000227296
0.000474381
1.00186e-05
0.277103
0.982543
0.995708
0.997077
0.997818
0.99794
0.997713
0.997494
0.997417
0.997424
0.997452
0.997436
0.997222
0.996908
0.996499
0.996008
0.995576
0.995327
0.995276
0.995244
0.994943
0.993816
0.991236
0.989536
0.98907
0.988987
0.988878
0.987934
0.986317
0.984979
0.983387
0.981449
0.979557
0.978066
0.977417
0.97898
0.980812
4.66217e-06
5.33363e-06
5.61132e-06
6.63903e-06
5.79703e-06
6.6916e-06
6.97505e-06
8.18883e-06
9.03543e-06
9.55049e-06
9.82378e-06
9.95966e-06
9.99391e-06
1.00012e-05
1.00014e-05
1.00024e-05
1.00025e-05
1.00025e-05
1.00025e-05
1.00025e-05
1.00025e-05
1.00025e-05
1.00025e-05
1.00025e-05
1.00026e-05
1.00026e-05
1.00026e-05
1.00026e-05
1.00026e-05
1.00027e-05
1.00027e-05
1.00028e-05
1.00029e-05
1.0003e-05
1.00029e-05
1.00032e-05
1.00031e-05
1.00039e-05
1.00023e-05
1.00057e-05
1.00013e-05
1.00087e-05
1.00004e-05
1.00118e-05
9.99911e-06
1.00128e-05
9.98996e-06
1.00255e-05
1.00135e-05
1.01906e-05
1.06571e-05
1.36116e-05
1.94308e-05
3.8033e-05
8.08279e-05
0.000141109
0.000179669
0.00052269
8.18913e-05
0.131114
0.985556
0.999852
0.999904
0.999927
0.999933
0.999935
0.999939
0.999945
0.999952
0.999959
0.999962
0.999958
0.999953
0.999943
0.999932
0.999919
0.999906
0.999893
0.999877
0.999859
0.999839
0.999811
0.999786
0.999769
0.999761
0.999771
0.999781
0.999793
0.999801
0.99979
0.999764
0.999741
0.999725
0.999773
0.999894
0.999974
2.41393e-06
5.18955e-06
6.72398e-06
7.43772e-06
7.93358e-06
8.53809e-06
8.46165e-06
8.67521e-06
9.21592e-06
9.59987e-06
9.84305e-06
9.96692e-06
9.99606e-06
1.00012e-05
1.00012e-05
1.00019e-05
1.00019e-05
1.00022e-05
1.00022e-05
1.00023e-05
1.00023e-05
1.00024e-05
1.00024e-05
1.00025e-05
1.00026e-05
1.00026e-05
1.00026e-05
1.00027e-05
1.00027e-05
1.00027e-05
1.00028e-05
1.00029e-05
1.00031e-05
1.00032e-05
1.00032e-05
1.00036e-05
1.00037e-05
1.00042e-05
1.00028e-05
1.00063e-05
1.00018e-05
1.00094e-05
1.00012e-05
1.00124e-05
1.00001e-05
1.00131e-05
9.98996e-06
1.00242e-05
9.99658e-06
1.01699e-05
1.05248e-05
1.2902e-05
1.78259e-05
3.10848e-05
8.51483e-05
0.00014397
0.000226811
0.000562376
0.000180098
0.0544916
0.929838
1
0.999997
0.999999
0.999999
0.999999
0.999999
0.999999
0.999999
0.999999
0.999999
0.999999
0.999999
0.999999
0.999999
0.999999
0.999999
0.999999
0.999999
1
1
1
0.999999
0.999999
0.999999
0.999999
0.999999
0.999999
1
1
1
1
1
0.999999
0.999999
1
1.3801e-06
5.11148e-06
7.00752e-06
7.55103e-06
8.19913e-06
8.92683e-06
9.05065e-06
9.02869e-06
9.3886e-06
9.65293e-06
9.8676e-06
9.9737e-06
9.9969e-06
1.00009e-05
1.0001e-05
1.00016e-05
1.00017e-05
1.0002e-05
1.0002e-05
1.00021e-05
1.00021e-05
1.00022e-05
1.00021e-05
1.00022e-05
1.00022e-05
1.00022e-05
1.00023e-05
1.00023e-05
1.00023e-05
1.00023e-05
1.00023e-05
1.00023e-05
1.00023e-05
1.00024e-05
1.00023e-05
1.00031e-05
1.00027e-05
1.00042e-05
1.00021e-05
1.00063e-05
1.00015e-05
1.00094e-05
1.0001e-05
1.00124e-05
9.99999e-06
1.00131e-05
9.98996e-06
1.00239e-05
9.99022e-06
1.01458e-05
1.0447e-05
1.23973e-05
1.72519e-05
3.54796e-05
7.60673e-05
0.000138534
0.000182669
0.000743265
0.000394487
0.0306416
0.938589
1
0.999999
0.999999
0.999999
0.999999
0.999999
0.999999
0.999999
0.999999
0.999999
0.999999
0.999999
0.999999
1
1
1
1
1
1
1
1
1
1
1
1
1
1
1
1
1
1
1
1
1
1
3.30699e-06
6.1639e-06
7.2402e-06
7.67576e-06
8.4496e-06
9.08445e-06
9.28581e-06
9.34493e-06
9.52983e-06
9.74886e-06
9.91837e-06
9.9898e-06
9.99928e-06
1.00012e-05
1.00009e-05
1.00014e-05
1.00014e-05
1.00015e-05
1.00014e-05
1.00014e-05
1.00014e-05
1.00014e-05
1.00014e-05
1.00014e-05
1.00014e-05
1.00014e-05
1.00014e-05
1.00015e-05
1.00015e-05
1.00015e-05
1.00015e-05
1.00015e-05
1.00014e-05
1.00013e-05
1.00012e-05
1.00015e-05
1.00013e-05
1.00019e-05
1.0001e-05
1.0004e-05
1.00005e-05
1.00068e-05
1.00008e-05
1.00088e-05
9.99694e-06
1.00131e-05
9.98996e-06
1.00239e-05
9.99023e-06
1.01097e-05
1.03841e-05
1.21712e-05
1.81407e-05
4.25667e-05
4.92245e-05
9.9015e-05
0.000226259
0.000851086
0.000896886
0.0277514
0.930986
1
0.999999
0.999999
0.999999
0.999999
0.999999
0.999999
0.999999
0.999999
0.999999
0.999999
0.999999
1
1
1
1
1
1
1
1
1
1
1
1
1
1
1
1
1
1
1
1
1
1
1
3.94196e-06
5.59595e-06
7.24508e-06
7.70229e-06
8.55125e-06
9.13748e-06
9.39871e-06
9.64989e-06
9.75291e-06
9.893e-06
9.97468e-06
1.00023e-05
1.00006e-05
1.00013e-05
1.00004e-05
1.00002e-05
9.99993e-06
9.99979e-06
9.99967e-06
9.99953e-06
9.99938e-06
9.99923e-06
9.99904e-06
9.99887e-06
9.99867e-06
9.99849e-06
9.99831e-06
9.99814e-06
9.99797e-06
9.99782e-06
9.99768e-06
9.99756e-06
9.99744e-06
9.99735e-06
9.99721e-06
9.99732e-06
9.99693e-06
9.9978e-06
9.99687e-06
9.99949e-06
9.9969e-06
1.0001e-05
9.99655e-06
1.00029e-05
9.9928e-06
1.00055e-05
9.98996e-06
1.00141e-05
9.99022e-06
1.01013e-05
1.04201e-05
1.27879e-05
1.9663e-05
4.41892e-05
5.64805e-05
7.68151e-05
0.00031726
0.000939845
0.00116964
0.0305334
0.915782
1
1
1
0.999999
0.999999
0.999999
0.999999
0.999999
0.999999
1
1
1
1
1
1
1
1
1
1
1
1
1
1
1
1
1
1
1
1
1
1
1
1
1
1
2.10241e-06
4.03498e-06
6.01046e-06
7.31612e-06
8.31335e-06
9.09527e-06
9.56774e-06
9.83242e-06
9.92507e-06
9.98345e-06
9.99215e-06
1.00002e-05
9.9982e-06
9.9982e-06
9.99776e-06
9.99776e-06
9.99764e-06
9.99762e-06
9.99753e-06
9.99741e-06
9.99725e-06
9.99709e-06
9.99687e-06
9.99669e-06
9.99645e-06
9.99624e-06
9.99601e-06
9.9958e-06
9.99559e-06
9.9954e-06
9.99522e-06