/*--------------------------------*- C++ -*----------------------------------*\
| =========                 |                                                 |
| \\      /  F ield         | OpenFOAM: The Open Source CFD Toolbox           |
|  \\    /   O peration     | Version:  2.3.0                                 |
|   \\  /    A nd           | Web:      www.OpenFOAM.org                      |
|    \\/     M anipulation  |                                                 |
\*---------------------------------------------------------------------------*/
FoamFile
{
    version     2.0;
    format      ascii;
    class       volScalarField;
    location    "15";
    object      epsilon.water;
}
// * * * * * * * * * * * * * * * * * * * * * * * * * * * * * * * * * * * * * //

dimensions      [0 2 -3 0 0 0 0];

internalField   nonuniform List<scalar> 
6144
(
3.6999e-05
3.24012e-05
1.26271e-05
9.95177e-06
6.33746e-06
5.4304e-06
4.71869e-06
4.3501e-06
3.18538e-06
2.239e-06
2.08128e-06
2.49903e-06
2.8583e-06
3.0605e-06
3.03364e-06
2.97806e-06
2.86598e-06
2.79437e-06
2.72012e-06
2.6853e-06
2.6572e-06
2.65544e-06
2.65868e-06
2.67395e-06
2.69477e-06
2.72059e-06
2.74849e-06
2.7783e-06
2.80917e-06
2.84033e-06
2.87338e-06
2.90093e-06
2.94197e-06
2.95805e-06
3.02358e-06
3.00568e-06
3.11244e-06
3.02638e-06
3.19504e-06
3.02158e-06
3.32453e-06
3.07792e-06
3.58934e-06
3.28266e-06
4.01578e-06
3.81539e-06
4.37782e-06
4.71936e-06
6.68509e-06
1.5082e-05
3.38328e-05
5.87313e-05
9.17793e-05
0.000137663
0.00034736
0.000816008
0.00136553
0.00310264
0.00767002
0.0149492
0.0509269
0.0280571
0.0182245
0.0119388
0.00869127
0.00687864
0.00568852
0.00484129
0.00420525
0.00371254
0.00332229
0.00300147
0.00273133
0.00250047
0.00229473
0.00211674
0.00195446
0.00180606
0.00166688
0.00152559
0.00139075
0.00124781
0.0011013
0.000954584
0.000796354
0.000640051
0.000469819
0.000266839
0.000102406
2.3301e-05
1.40935e-05
1.89049e-05
2.90786e-05
3.37875e-05
3.79321e-05
4.08776e-05
0.000119844
9.11475e-05
2.64155e-05
2.9259e-05
1.60641e-05
1.19232e-05
1.15265e-05
1.14171e-05
1.17514e-05
1.07551e-05
1.0557e-05
1.18498e-05
1.27851e-05
1.31536e-05
1.30995e-05
1.29492e-05
1.27078e-05
1.25049e-05
1.2293e-05
1.21723e-05
1.20975e-05
1.21009e-05
1.21379e-05
1.22184e-05
1.23185e-05
1.24372e-05
1.25638e-05
1.26963e-05
1.28299e-05
1.29621e-05
1.30961e-05
1.32126e-05
1.33584e-05
1.3444e-05
1.36549e-05
1.36236e-05
1.39412e-05
1.36501e-05
1.41359e-05
1.3525e-05
1.44468e-05
1.35795e-05
1.51565e-05
1.40642e-05
1.62576e-05
1.5891e-05
1.76884e-05
1.74061e-05
1.67235e-05
2.72101e-05
5.35975e-05
0.000123415
0.000257575
0.000423846
0.00111127
0.00212234
0.00473011
0.00829656
0.012309
0.0109072
0.0234746
0.00596296
0.00480758
0.00417397
0.00389991
0.00374322
0.00357341
0.00337287
0.00316097
0.00296009
0.00275633
0.00255784
0.0023818
0.00222316
0.00208245
0.00195394
0.00182026
0.00169232
0.0015606
0.00142173
0.00129043
0.00114652
0.00100147
0.00085753
0.000704009
0.000560198
0.00037569
0.000180052
8.3025e-05
3.41216e-05
2.63251e-05
2.86701e-05
3.67406e-05
4.68303e-05
4.84687e-05
5.07763e-05
0.000218549
0.000144596
6.45301e-05
6.6911e-05
2.12291e-05
1.58137e-05
1.29813e-05
1.25426e-05
1.61207e-05
1.5958e-05
1.65616e-05
1.82762e-05
1.93518e-05
1.95653e-05
1.96549e-05
1.9873e-05
2.0208e-05
2.04898e-05
2.0688e-05
2.08829e-05
2.10869e-05
2.12947e-05
2.15012e-05
2.17056e-05
2.19071e-05
2.2109e-05
2.23073e-05
2.24993e-05
2.2682e-05
2.28584e-05
2.30322e-05
2.31916e-05
2.33439e-05
2.34812e-05
2.36391e-05
2.36671e-05
2.38193e-05
2.35757e-05
2.37177e-05
2.30801e-05
2.34904e-05
2.25103e-05
2.3547e-05
2.2229e-05
2.41965e-05
2.4588e-05
2.80058e-05
3.06927e-05
3.05687e-05
4.55054e-05
7.45922e-05
0.000177824
0.000428225
0.000762549
0.00221752
0.0036173
0.00510981
0.00871006
0.00774356
0.00572521
0.015229
0.00307832
0.00325896
0.00315631
0.00310109
0.00293321
0.00267002
0.00246995
0.00233665
0.00225006
0.002158
0.00207607
0.00199525
0.00190086
0.00180013
0.00169238
0.00158379
0.00148355
0.00137498
0.00126022
0.00114732
0.00101233
0.000876668
0.000746172
0.000570344
0.000348393
0.000199328
0.000133476
9.30916e-05
6.25883e-05
5.49931e-05
5.53351e-05
6.32837e-05
7.84187e-05
7.33614e-05
6.75962e-05
0.000332148
0.000243397
0.000136994
0.00012236
4.66413e-05
3.48018e-05
1.65347e-05
1.26728e-05
1.54648e-05
1.68497e-05
1.81309e-05
1.94381e-05
2.02766e-05
2.03997e-05
2.05531e-05
2.09804e-05
2.15923e-05
2.21675e-05
2.2683e-05
2.31176e-05
2.35058e-05
2.38258e-05
2.41011e-05
2.4335e-05
2.45423e-05
2.47259e-05
2.48971e-05
2.50547e-05
2.52009e-05
2.53409e-05
2.54757e-05
2.56088e-05
2.57297e-05
2.58399e-05
2.59132e-05
2.59448e-05
2.59445e-05
2.57692e-05
2.56204e-05
2.50943e-05
2.50022e-05
2.4219e-05
2.45174e-05
2.35495e-05
2.49059e-05
2.61741e-05
3.02402e-05
3.74213e-05
4.19723e-05
5.85365e-05
8.75037e-05
0.000194051
0.000476086
0.000990193
0.00417417
0.00664051
0.00927519
0.014237
0.00483686
0.00414555
0.0117321
0.00260711
0.0022616
0.00253513
0.00260947
0.00224953
0.00194532
0.00179429
0.00170155
0.0016112
0.00153505
0.00147389
0.00140867
0.00133548
0.00125994
0.0011778
0.00109862
0.0010269
0.000959016
0.000904005
0.000822869
0.00066829
0.000503606
0.000380971
0.000288241
0.000231422
0.000195279
0.000171432
0.000148484
0.000124748
9.98583e-05
8.32783e-05
8.46687e-05
9.3107e-05
8.52973e-05
7.95138e-05
0.000380742
0.0002871
0.000190704
0.000161653
9.52109e-05
6.92617e-05
3.18281e-05
1.93663e-05
1.82628e-05
1.89241e-05
2.13239e-05
2.18995e-05
2.16632e-05
2.09241e-05
2.10133e-05
2.15987e-05
2.23853e-05
2.31348e-05
2.37876e-05
2.4315e-05
2.47493e-05
2.50909e-05
2.53702e-05
2.55882e-05
2.5767e-05
2.59118e-05
2.60373e-05
2.61507e-05
2.62578e-05
2.63622e-05
2.64572e-05
2.65488e-05
2.66127e-05
2.66739e-05
2.66905e-05
2.66991e-05
2.66061e-05
2.64565e-05
2.61238e-05
2.56708e-05
2.52184e-05
2.45803e-05
2.42129e-05
2.37241e-05
2.39825e-05
2.69322e-05
3.0885e-05
4.16553e-05
4.87034e-05
6.42894e-05
9.8383e-05
0.000237135
0.000647698
0.00171113
0.00689673
0.0112791
0.013625
0.0129598
0.00394392
0.00367633
0.00755371
0.00249261
0.00225773
0.00216601
0.00185415
0.00140046
0.00131698
0.00124048
0.0012058
0.00115674
0.00109962
0.00102509
0.000930415
0.000830866
0.000759018
0.000717783
0.000678428
0.000629193
0.000575667
0.00052225
0.000464474
0.000408759
0.000363314
0.000329387
0.000302609
0.000288937
0.000281967
0.000260916
0.00022108
0.000177844
0.000138433
0.000105362
9.44264e-05
9.4953e-05
8.72013e-05
8.74173e-05
0.000331598
0.000242239
0.000208041
0.000164546
0.000135697
9.83566e-05
5.52011e-05
3.0815e-05
2.39137e-05
2.23534e-05
2.56908e-05
2.42188e-05
2.23788e-05
2.06816e-05
2.06069e-05
2.13285e-05
2.2279e-05
2.31489e-05
2.38393e-05
2.43481e-05
2.47228e-05
2.49829e-05
2.51675e-05
2.52849e-05
2.53539e-05
2.53807e-05
2.53843e-05
2.53795e-05
2.53747e-05
2.53754e-05
2.53764e-05
2.53812e-05
2.53671e-05
2.53548e-05
2.52865e-05
2.52384e-05
2.50802e-05
2.49165e-05
2.45629e-05
2.41247e-05
2.36575e-05
2.30444e-05
2.2506e-05
2.22534e-05
2.20125e-05
2.61617e-05
3.04488e-05
4.50991e-05
5.59156e-05
7.09511e-05
0.0001136
0.000274194
0.000683113
0.0018338
0.00598894
0.0104121
0.0125381
0.0122825
0.00500062
0.00482964
0.00565799
0.00276754
0.00256593
0.00228008
0.00198355
0.00180797
0.00173835
0.0016273
0.00155374
0.00145474
0.00137296
0.00127826
0.00118146
0.00108229
0.000995427
0.000913831
0.00082632
0.000755114
0.000688684
0.000635069
0.000589572
0.000557147
0.000530784
0.00050877
0.000479121
0.000439782
0.000386852
0.000330841
0.000276564
0.000226313
0.000179316
0.000137023
0.000109431
9.24099e-05
8.19618e-05
8.71106e-05
0.000198407
0.000166203
0.000148835
0.00013364
0.00014565
0.000111228
7.85865e-05
4.16389e-05
3.03744e-05
2.94439e-05
3.26979e-05
2.81833e-05
2.29598e-05
1.89975e-05
1.78171e-05
1.83186e-05
1.94397e-05
2.05623e-05
2.14772e-05
2.21395e-05
2.25875e-05
2.28599e-05
2.3022e-05
2.30986e-05
2.31224e-05
2.31073e-05
2.30669e-05
2.30174e-05
2.29706e-05
2.29293e-05
2.2885e-05
2.28459e-05
2.27915e-05
2.27347e-05
2.26091e-05
2.25358e-05
2.22538e-05
2.21739e-05
2.14711e-05
2.12272e-05
2.00343e-05
1.98736e-05
1.80935e-05
1.89847e-05
1.74855e-05
2.45095e-05
2.90716e-05
4.61986e-05
6.13373e-05
7.40533e-05
0.0001119
0.000245415
0.000590567
0.00136734
0.0038073
0.0070282
0.0116492
0.0115177
0.00590588
0.00579133
0.00463771
0.00315201
0.00308237
0.00287092
0.00259412
0.00241225
0.00230328
0.0021667
0.00207196
0.00198674
0.00191696
0.00184436
0.00174747
0.00164424
0.00155684
0.0014917
0.00136767
0.00128407
0.00118665
0.00110067
0.00101809
0.000946425
0.000867214
0.000795386
0.000715706
0.000644011
0.000565534
0.000491072
0.000419781
0.000344616
0.000265248
0.000187871
0.000132769
9.83577e-05
8.44483e-05
9.00878e-05
0.000139338
0.000129305
0.000103603
9.9226e-05
0.000114417
9.85779e-05
8.5974e-05
4.92026e-05
3.53522e-05
3.27791e-05
3.63366e-05
2.9935e-05
2.24976e-05
1.74071e-05
1.57955e-05
1.59882e-05
1.69564e-05
1.80281e-05
1.89849e-05
1.97427e-05
2.03236e-05
2.07393e-05
2.10385e-05
2.12444e-05
2.13796e-05
2.14527e-05
2.14981e-05
2.15308e-05
2.15628e-05
2.15962e-05
2.16204e-05
2.16401e-05
2.16344e-05
2.16155e-05
2.1514e-05
2.1434e-05
2.1109e-05
2.09665e-05
2.01417e-05
1.98613e-05
1.85767e-05
1.85093e-05
1.68498e-05
1.76618e-05
1.65601e-05
2.28323e-05
2.84126e-05
4.37305e-05
6.29893e-05
7.04829e-05
0.00010185
0.000195906
0.00039724
0.000952377
0.00326277
0.00741587
0.013342
0.0148535
0.00619082
0.00605039
0.00426221
0.00332374
0.00336988
0.00324566
0.00294359
0.00281462
0.00266802
0.00257383
0.0024697
0.00238584
0.00229169
0.00220217
0.00210299
0.00199402
0.00188929
0.00178864
0.0016744
0.00156005
0.00144129
0.00133897
0.0012397
0.00113039
0.0010185
0.000911569
0.000796437
0.00068696
0.00058017
0.000485378
0.000402137
0.000332603
0.000280033
0.00024241
0.000207537
0.000174589
0.000150363
0.000230364
0.00011305
0.00012258
8.81088e-05
7.84967e-05
9.22131e-05
8.44697e-05
7.75043e-05
4.80824e-05
2.96859e-05
2.59782e-05
2.90213e-05
2.34688e-05
1.64657e-05
1.15468e-05
9.6724e-06
9.55724e-06
1.01844e-05
1.09867e-05
1.17459e-05
1.23646e-05
1.28556e-05
1.32167e-05
1.34804e-05
1.36706e-05
1.38114e-05
1.3923e-05
1.40458e-05
1.41758e-05
1.43075e-05
1.44387e-05
1.45655e-05
1.46908e-05
1.47951e-05
1.4867e-05
1.48805e-05
1.48813e-05
1.47013e-05
1.46533e-05
1.39703e-05
1.38623e-05
1.27906e-05
1.2998e-05
1.18581e-05
1.27365e-05
1.27225e-05
1.75287e-05
2.42586e-05
3.48948e-05
5.21117e-05
5.43021e-05
8.24142e-05
0.000161394
0.000362951
0.000903123
0.00221877
0.00501375
0.0102398
0.017198
0.00547481
0.00513388
0.00496617
0.0026471
0.00239287
0.00207367
0.00184978
0.00169292
0.00162835
0.00158918
0.00156881
0.00153804
0.00149794
0.00144176
0.00138422
0.00130563
0.00122386
0.00112906
0.0010405
0.000951376
0.000862681
0.000763049
0.000680003
0.000616591
0.000569204
0.000517107
0.000469165
0.000414603
0.000355862
0.000309871
0.000267717
0.000232563
0.000207841
0.000187753
0.000170491
0.000151635
0.000134846
0.000185998
0.000106149
0.000137612
6.79084e-05
5.08651e-05
6.48895e-05
6.19401e-05
5.95527e-05
3.58659e-05
2.17133e-05
1.8558e-05
1.71752e-05
1.38637e-05
9.76384e-06
6.56094e-06
5.31687e-06
5.14411e-06
5.41579e-06
5.77955e-06
6.14534e-06
6.44042e-06
6.68357e-06
6.8661e-06
7.00812e-06
7.11833e-06
7.20788e-06
7.28361e-06
7.3567e-06
7.43428e-06
7.51825e-06
7.60612e-06
7.6975e-06
7.79557e-06
7.89123e-06
7.97205e-06
8.02827e-06
8.06297e-06
8.04184e-06
8.02264e-06
7.74653e-06
7.61665e-06
7.30394e-06
7.33757e-06
7.15211e-06
7.56311e-06
8.41101e-06
1.10427e-05
1.66284e-05
2.16903e-05
3.2226e-05
3.29642e-05
5.20039e-05
9.71916e-05
0.000243252
0.000620696
0.00162139
0.00534765
0.00881795
0.0164036
0.00433991
0.003773
0.00601238
0.00182473
0.00146387
0.00106905
0.000833142
0.0007319
0.000718862
0.000716807
0.000737113
0.000745358
0.000752611
0.000755715
0.000745399
0.000723364
0.00069426
0.000666495
0.00063685
0.000599452
0.000558348
0.000510378
0.000465884
0.000416319
0.000364432
0.000307519
0.000242283
0.000189448
0.000157962
0.000115758
9.50542e-05
8.51207e-05
8.17133e-05
8.74313e-05
9.30769e-05
9.33548e-05
8.12285e-05
0.000103681
0.000107153
0.000180725
6.33524e-05
3.81528e-05
4.48308e-05
3.6799e-05
3.25965e-05
2.04545e-05
1.60533e-05
1.49148e-05
1.1995e-05
8.68977e-06
5.86811e-06
3.9714e-06
3.15707e-06
2.97759e-06
3.0355e-06
3.14127e-06
3.26849e-06
3.37235e-06
3.46184e-06
3.53273e-06
3.5929e-06
3.64339e-06
3.68804e-06
3.72929e-06
3.77144e-06
3.81654e-06
3.86472e-06
3.91541e-06
3.9727e-06
4.04138e-06
4.11661e-06
4.19318e-06
4.26665e-06
4.33244e-06
4.38254e-06
4.42025e-06
4.40557e-06
4.41924e-06
4.44173e-06
4.48831e-06
4.61918e-06
4.83119e-06
5.67826e-06
6.92418e-06
1.04593e-05
1.28113e-05
1.89474e-05
2.09685e-05
3.25866e-05
5.97714e-05
0.0001837
0.000645004
0.00275871
0.00703917
0.0115892
0.0163451
0.00515219
0.00382631
0.00922053
0.00156611
0.000956571
0.000735764
0.000584393
0.000463388
0.000457607
0.000464801
0.000467161
0.000460569
0.000441959
0.000426536
0.000416855
0.000408782
0.000398091
0.000388038
0.000379016
0.000370258
0.000360822
0.000347951
0.000334583
0.000316049
0.000302069
0.000292287
0.000278282
0.000243742
0.000203012
0.000180388
0.000147044
0.000109306
6.44704e-05
4.0938e-05
3.53302e-05
3.67771e-05
3.69289e-05
4.51023e-05
0.000117228
0.000123133
6.14256e-05
3.33075e-05
3.41647e-05
2.11275e-05
1.6408e-05
1.37135e-05
1.32683e-05
1.44373e-05
1.18164e-05
8.16596e-06
4.73147e-06
3.1024e-06
2.49073e-06
2.29123e-06
2.2542e-06
2.26473e-06
2.31287e-06
2.36204e-06
2.4235e-06
2.4809e-06
2.53483e-06
2.58078e-06
2.6218e-06
2.65787e-06
2.69202e-06
2.72993e-06
2.77589e-06
2.82547e-06
2.87816e-06
2.93474e-06
2.99691e-06
3.06906e-06
3.13638e-06
3.19218e-06
3.21969e-06
3.25042e-06
3.21432e-06
3.25551e-06
3.22404e-06
3.35365e-06
3.3867e-06
3.67392e-06
4.13935e-06
5.03038e-06
7.36814e-06
9.079e-06
1.3396e-05
1.53706e-05
2.24671e-05
4.75777e-05
0.000149935
0.00053385
0.00202589
0.00477939
0.0081593
0.0149082
0.00790292
0.00494603
0.0123461
0.00159542
0.000967714
0.00105811
0.00104383
0.000961801
0.000892748
0.000845636
0.000789289
0.000739414
0.000642419
0.000475573
0.000390251
0.000364939
0.00035009
0.00033159
0.000309717
0.000286038
0.000263693
0.000245455
0.000232198
0.000224294
0.000224908
0.000235886
0.000259225
0.000270753
0.000267419
0.000257086
0.00023792
0.000212783
0.000183353
0.000134979
5.60803e-05
1.96671e-05
1.51336e-05
1.92914e-05
0.000340092
7.37204e-05
4.56595e-05
2.62746e-05
2.56311e-05
1.29614e-05
1.1391e-05
1.1515e-05
1.25483e-05
1.37161e-05
1.0812e-05
7.68166e-06
4.56901e-06
3.16297e-06
2.63418e-06
2.412e-06
2.33238e-06
2.30431e-06
2.30528e-06
2.30955e-06
2.32966e-06
2.34729e-06
2.36618e-06
2.38045e-06
2.39601e-06
2.41052e-06
2.42616e-06
2.4378e-06
2.44354e-06
2.46015e-06
2.48977e-06
2.53446e-06
2.58417e-06
2.63082e-06
2.67726e-06
2.7233e-06
2.76338e-06
2.80368e-06
2.82558e-06
2.87704e-06
2.92909e-06
3.00191e-06
3.09726e-06
3.23687e-06
3.62613e-06
3.94893e-06
5.30647e-06
6.62364e-06
9.2853e-06
1.17888e-05
1.90184e-05
4.81461e-05
0.000130424
0.000453842
0.000965207
0.0026506
0.00780578
0.0140941
0.0160866
0.00842404
0.0164431
0.00196332
0.00119744
0.00157733
0.00206736
0.00194986
0.00172408
0.00155589
0.00140662
0.00128329
0.00116951
0.00104672
0.000943139
0.000858573
0.000786532
0.000718953
0.00065261
0.000585273
0.00051292
0.000442782
0.00038519
0.000345406
0.000319424
0.000301711
0.000296262
0.000299352
0.000305455
0.000302597
0.000294874
0.000279194
0.000251579
0.000213276
0.000164435
6.81054e-05
1.06491e-05
9.84612e-06
0.000263189
5.22763e-05
3.68381e-05
2.06888e-05
1.7981e-05
9.23609e-06
8.70284e-06
9.22469e-06
1.00712e-05
1.04951e-05
8.09913e-06
5.28124e-06
3.39172e-06
2.61655e-06
2.22626e-06
2.06525e-06
2.00019e-06
1.96808e-06
1.96111e-06
1.95156e-06
1.94267e-06
1.93317e-06
1.93123e-06
1.93065e-06
1.93473e-06
1.94172e-06
1.95207e-06
1.96563e-06
1.98335e-06
2.00686e-06
2.04974e-06
2.09681e-06
2.14216e-06
2.18782e-06
2.22957e-06
2.26951e-06
2.30593e-06
2.3418e-06
2.36272e-06
2.38569e-06
2.43884e-06
2.49441e-06
2.60954e-06
2.68078e-06
2.98922e-06
3.19361e-06
4.0809e-06
5.16841e-06
6.84348e-06
9.30198e-06
1.58402e-05
4.40764e-05
0.000127781
0.000480108
0.000911719
0.00255469
0.00813512
0.0159198
0.0215364
0.0125897
0.0220333
0.00319591
0.00459275
0.00428447
0.00360035
0.00306035
0.00261078
0.0022759
0.00202267
0.00182275
0.00165837
0.00150894
0.00137049
0.00124495
0.00113897
0.00104211
0.000950064
0.00086517
0.000780897
0.000698692
0.000623768
0.000558859
0.000501924
0.000454723
0.000414608
0.000391783
0.000373369
0.000356111
0.000336172
0.000315238
0.000289817
0.000249927
0.000207808
0.000134723
3.65562e-05
8.56625e-06
0.000103452
2.49625e-05
2.71156e-05
1.53929e-05
1.02522e-05
5.75101e-06
5.01617e-06
4.71566e-06
4.88779e-06
4.89387e-06
3.70909e-06
2.55463e-06
2.01033e-06
1.75533e-06
1.62106e-06
1.56451e-06
1.54423e-06
1.53989e-06
1.55043e-06
1.56259e-06
1.57843e-06
1.59211e-06
1.60943e-06
1.62845e-06
1.65014e-06
1.67376e-06
1.69861e-06
1.7208e-06
1.73841e-06
1.75763e-06
1.79571e-06
1.84584e-06
1.89635e-06
1.946e-06
1.99124e-06
2.03281e-06
2.07182e-06
2.10921e-06
2.13694e-06
2.15914e-06
2.20986e-06
2.26065e-06
2.37216e-06
2.42882e-06
2.69243e-06
2.88504e-06
3.62881e-06
4.62743e-06
6.07748e-06
8.2271e-06
1.27096e-05
2.91082e-05
7.46141e-05
0.000275599
0.000891217
0.00256491
0.00949441
0.0199813
0.0338645
0.0237477
0.0344022
0.00939327
0.00743578
0.0048595
0.00398892
0.00373236
0.00341032
0.00307655
0.00276522
0.00248214
0.00223754
0.00201216
0.00181308
0.00163549
0.0014727
0.00132144
0.00118314
0.00105547
0.000940087
0.000834304
0.000741693
0.000658631
0.000586108
0.000523073
0.000468183
0.000427027
0.000392517
0.000366669
0.00034064
0.000317673
0.000292268
0.000258126
0.000220767
0.000156934
5.35265e-05
1.02153e-05
2.60052e-05
1.64412e-05
1.47701e-05
8.82755e-06
5.42271e-06
3.63299e-06
2.66351e-06
2.36674e-06
2.12992e-06
2.06866e-06
1.62345e-06
1.31255e-06
1.16137e-06
1.08861e-06
1.05042e-06
1.03755e-06
1.03615e-06
1.04352e-06
1.05725e-06
1.07315e-06
1.09268e-06
1.11238e-06
1.13395e-06
1.15668e-06
1.18087e-06
1.20632e-06
1.23278e-06
1.25959e-06
1.28525e-06
1.30928e-06
1.33739e-06
1.37242e-06
1.4109e-06
1.45167e-06
1.49167e-06
1.52833e-06
1.5636e-06
1.59794e-06
1.63021e-06
1.65061e-06
1.69045e-06
1.72615e-06
1.81192e-06
1.84819e-06
2.01888e-06
2.17898e-06
2.68561e-06
3.62471e-06
4.93039e-06
6.86781e-06
9.13578e-06
1.64012e-05
3.34124e-05
8.89726e-05
0.000386937
0.00148365
0.00423697
0.00725449
0.0155553
0.0274083
0.0666653
0.0377972
0.0223187
0.0140411
0.00987208
0.00746112
0.00590559
0.00482357
0.00403556
0.00343499
0.00296337
0.00258094
0.00226487
0.00199599
0.00176535
0.00156213
0.00138449
0.00122481
0.00108497
0.000957615
0.000848849
0.000750383
0.000667687
0.000591523
0.000527151
0.000471881
0.000424389
0.000389071
0.000356409
0.000332008
0.000301542
0.000267054
0.000226758
0.000142503
3.60084e-05
6.6402e-06
7.51994e-05
5.57878e-05
2.19006e-05
2.37819e-05
1.97434e-05
2.36645e-05
2.48835e-05
2.58848e-05
1.97564e-05
1.45864e-05
1.38751e-05
1.68576e-05
1.89211e-05
1.99464e-05
1.88437e-05
1.75226e-05
1.59536e-05
1.48202e-05
1.38418e-05
1.32654e-05
1.28764e-05
1.27258e-05
1.26616e-05
1.26893e-05
1.27502e-05
1.28482e-05
1.29627e-05
1.30882e-05
1.32177e-05
1.33447e-05
1.34752e-05
1.35806e-05
1.37422e-05
1.37919e-05
1.40556e-05
1.39552e-05
1.44181e-05
1.39879e-05
1.48168e-05
1.39797e-05
1.57675e-05
1.45857e-05
1.80217e-05
1.6249e-05
2.12702e-05
1.85776e-05
2.0803e-05
1.65184e-05
1.29599e-05
2.22171e-05
5.20204e-05
9.18268e-05
0.000182357
0.000245839
0.000618219
0.00149835
0.00360775
0.00606957
0.00924214
0.0170598
0.0309867
0.020683
0.0151615
0.0114193
0.00908827
0.00754404
0.00645279
0.0056382
0.00499701
0.00448692
0.00406822
0.00371307
0.00341076
0.00314876
0.00291562
0.00270921
0.00251725
0.00233681
0.00216375
0.00198836
0.00181437
0.00163061
0.00144207
0.00125433
0.0010636
0.000877821
0.0006966
0.000507698
0.000334802
0.000199687
7.90413e-05
2.77386e-05
2.41198e-05
3.75673e-05
5.81882e-05
6.0332e-05
0.000150475
9.12523e-05
3.90741e-05
4.47267e-05
2.99026e-05
2.96453e-05
3.30385e-05
3.54139e-05
3.798e-05
3.62286e-05
3.55429e-05
3.77632e-05
3.90894e-05
3.92757e-05
3.80996e-05
3.69551e-05
3.58922e-05
3.52196e-05
3.46772e-05
3.44124e-05
3.42936e-05
3.43448e-05
3.44758e-05
3.47035e-05
3.49757e-05
3.52943e-05
3.56306e-05
3.59722e-05
3.63071e-05
3.66288e-05
3.69343e-05
3.72118e-05
3.75114e-05
3.7716e-05
3.80636e-05
3.80869e-05
3.85657e-05
3.82065e-05
3.89534e-05
3.81711e-05
3.97286e-05
3.86883e-05
4.15252e-05
4.00335e-05
4.41264e-05
4.1721e-05
4.40914e-05
3.78126e-05
3.3217e-05
3.96929e-05
7.25712e-05
0.00014371
0.000298267
0.000610659
0.00139578
0.00292827
0.00488378
0.00800327
0.0130562
0.017108
0.0419621
0.00854555
0.00902834
0.00781656
0.00640161
0.00538739
0.00461588
0.00407816
0.00368571
0.00338242
0.00317853
0.00301684
0.00289742
0.00278159
0.00265973
0.00252071
0.00234705
0.00215878
0.0019572
0.00174591
0.00154764
0.00135407
0.001168
0.000986044
0.000829712
0.000705342
0.000589513
0.000494186
0.000424538
0.000342169
0.000249177
0.000175937
0.000114886
0.000114796
8.81302e-05
7.4865e-05
0.000292103
0.000157228
7.41462e-05
7.69159e-05
3.77268e-05
3.08786e-05
3.38966e-05
3.68447e-05
4.79121e-05
5.09293e-05
5.05804e-05
5.0738e-05
5.11591e-05
5.04069e-05
4.98728e-05
4.97498e-05
5.00373e-05
5.05276e-05
5.11116e-05
5.17152e-05
5.2351e-05
5.29533e-05
5.355e-05
5.41266e-05
5.46916e-05
5.5259e-05
5.58206e-05
5.63623e-05
5.68802e-05
5.73775e-05
5.7851e-05
5.82884e-05
5.86924e-05
5.9058e-05
5.93797e-05
5.96109e-05
5.9811e-05
5.97699e-05
5.98381e-05
5.94115e-05
5.96479e-05
5.90177e-05
5.97857e-05
5.91155e-05
6.09278e-05
6.15611e-05
6.39958e-05
6.33162e-05
6.50578e-05
7.70334e-05
0.000120511
0.000253868
0.000522916
0.00104695
0.0024261
0.00446889
0.0058417
0.010132
0.0118182
0.0115378
0.0366427
0.00615361
0.0101996
0.00615062
0.00447694
0.00356153
0.00299826
0.00276222
0.00274181
0.00277793
0.00287801
0.00298077
0.00298923
0.00295149
0.00286429
0.00271033
0.00251033
0.00229576
0.0020554
0.00180255
0.0015728
0.00138976
0.00123416
0.00105687
0.000860636
0.000711257
0.000629922
0.000564488
0.000509141
0.000434327
0.00035639
0.00030143
0.00025993
0.000205405
0.000142295
0.000106675
0.000510113
0.000264323
0.000153151
0.000129605
6.41077e-05
4.91853e-05
4.05146e-05
3.97327e-05
5.38928e-05
5.85186e-05
6.03577e-05
6.08479e-05
6.03917e-05
5.86042e-05
5.80318e-05
5.85322e-05
5.953e-05
6.07888e-05
6.21934e-05
6.34721e-05
6.46809e-05
6.57473e-05
6.67147e-05
6.75776e-05
6.83509e-05
6.90657e-05
6.97668e-05
7.04409e-05
7.10876e-05
7.17107e-05
7.23037e-05
7.28627e-05
7.3367e-05
7.38403e-05
7.41803e-05
7.45155e-05
7.46447e-05
7.47758e-05
7.45165e-05
7.42341e-05
7.37179e-05
7.32066e-05
7.28084e-05
7.26477e-05
7.34369e-05
7.71797e-05
8.08412e-05
8.7207e-05
8.85142e-05
0.000111513
0.000162743
0.000340943
0.000766703
0.0013342
0.00448133
0.0096931
0.0120603
0.0222344
0.0117536
0.00967234
0.0412125
0.00614891
0.00467547
0.00365146
0.0035305
0.00271835
0.00270479
0.002768
0.00287437
0.00288557
0.00285247
0.00278144
0.0026968
0.00261357
0.00253415
0.00242649
0.00229451
0.00215855
0.00199514
0.00178971
0.00155179
0.00128352
0.00104107
0.000876847
0.000778165
0.000721535
0.000678026
0.000617112
0.000540088
0.000449268
0.000373916
0.000311097
0.000259484
0.000205443
0.000156347
0.000126362
0.000872343
0.000403498
0.000266426
0.000187973
0.000112193
8.90474e-05
6.3635e-05
5.74249e-05
7.21188e-05
7.72083e-05
8.04638e-05
7.99613e-05
7.66481e-05
7.15727e-05
6.93236e-05
6.97486e-05
7.13402e-05
7.31864e-05
7.48496e-05
7.63723e-05
7.77578e-05
7.90043e-05
8.0131e-05
8.11358e-05
8.20299e-05
8.28225e-05
8.35824e-05
8.43368e-05
8.50862e-05
8.58216e-05
8.65142e-05
8.71782e-05
8.77609e-05
8.832e-05
8.87045e-05
8.91622e-05
8.92791e-05
8.96202e-05
8.91761e-05
8.91446e-05
8.81434e-05
8.80962e-05
8.68446e-05
8.78933e-05
8.73575e-05
9.49955e-05
9.90844e-05
0.000113936
0.000116407
0.000140557
0.000185878
0.000382268
0.00109632
0.0034844
0.0106236
0.019049
0.0198764
0.0213856
0.00861136
0.00796659
0.0478679
0.00579566
0.0044415
0.00384347
0.00400037
0.00397125
0.00412882
0.00395109
0.00389333
0.00369956
0.00350023
0.0032632
0.00302721
0.00279907
0.00259322
0.00242021
0.00227138
0.00207531
0.00183863
0.00161106
0.00137329
0.00115104
0.000991386
0.000892209
0.000836044
0.000810695
0.000753485
0.000667445
0.000576538
0.000484885
0.000405689
0.000323331
0.000250729
0.000191309
0.0001541
0.000132663
0.00123929
0.000452271
0.000316703
0.000216445
0.000160929
0.000131175
9.78847e-05
8.02447e-05
8.79535e-05
9.14522e-05
9.76385e-05
9.34952e-05
8.58927e-05
7.71338e-05
7.36015e-05
7.39714e-05
7.62325e-05
7.8977e-05
8.16195e-05
8.39604e-05
8.59914e-05
8.77178e-05
8.92148e-05
9.05244e-05
9.1674e-05
9.26679e-05
9.35828e-05
9.44704e-05
9.53473e-05
9.62059e-05
9.70127e-05
9.77899e-05
9.84709e-05
9.91317e-05
9.95273e-05
0.000100243
0.000100128
0.000100871
9.96099e-05
0.000100092
9.7387e-05
9.84229e-05
9.38536e-05
9.82794e-05
9.32699e-05
0.000108736
0.000113453
0.000136505
0.000147377
0.000167689
0.00019755
0.00036407
0.00097042
0.00347699
0.00944906
0.0173644
0.0229391
0.0266175
0.0103499
0.0103373
0.0531874
0.00668603
0.00595775
0.00541799
0.00525361
0.00522445
0.00527595
0.00534075
0.0053594
0.00526697
0.00509186
0.00483866
0.00450467
0.00410079
0.00367999
0.00332347
0.00298529
0.00267192
0.00239946
0.00215995
0.00195173
0.00177295
0.00160042
0.00145667
0.00130023
0.00115766
0.00100135
0.000862808
0.000737515
0.000639231
0.000542846
0.000424232
0.000300466
0.000194248
0.000144806
0.000131351
0.00119154
0.00038963
0.000277342
0.000183697
0.000177952
0.000144583
0.00012072
0.000108424
9.82458e-05
9.65782e-05
0.000104725
9.82575e-05
8.85908e-05
7.77188e-05
7.30979e-05
7.31775e-05
7.58293e-05
7.91044e-05
8.21886e-05
8.49052e-05
8.72297e-05
8.91618e-05
9.08009e-05
9.22126e-05
9.34291e-05
9.44561e-05
9.5383e-05
9.62634e-05
9.71223e-05
9.7955e-05
9.87298e-05
9.94738e-05
0.000100108
0.000100735
0.000101045
0.000101878
0.000101488
0.000102415
0.000100462
0.000101256
9.72127e-05
9.90724e-05
9.17492e-05
9.88957e-05
9.02135e-05
0.000111132
0.000116636
0.000143185
0.00016653
0.000178618
0.000203114
0.000330394
0.000656382
0.00188605
0.00517495
0.00970805
0.0186887
0.0189992
0.0151252
0.0151854
0.043741
0.00737437
0.00734676
0.00651278
0.00602224
0.00569275
0.00540968
0.00528886
0.00513341
0.00502544
0.00488828
0.00476052
0.00463852
0.00449665
0.00435088
0.0042426
0.00408346
0.00395532
0.0038217
0.00367234
0.00351138
0.00331314
0.00308653
0.00280818
0.00248319
0.00221512
0.00197065
0.00177462
0.00156485
0.00134728
0.00110526
0.000856072
0.000660116
0.000381793
0.000196381
0.00014383
0.000900641
0.000303835
0.000227971
0.000123728
0.000140727
0.00011833
0.000117198
0.000119799
0.000101145
9.54906e-05
0.000104633
9.72137e-05
8.55559e-05
7.01073e-05
6.3443e-05
6.26603e-05
6.53868e-05
6.91431e-05
7.28227e-05
7.60529e-05
7.87849e-05
8.09945e-05
8.27858e-05
8.42476e-05
8.54515e-05
8.63815e-05
8.71429e-05
8.78191e-05
8.84332e-05
8.90097e-05
8.95561e-05
9.00753e-05
9.03865e-05
9.06863e-05
9.0516e-05
9.05901e-05
8.92437e-05
8.93012e-05
8.58146e-05
8.62685e-05
8.00016e-05
8.2501e-05
7.42588e-05
8.08638e-05
7.37959e-05
9.2441e-05
0.00010952
0.000131025
0.000167644
0.000167285
0.000183409
0.000316879
0.000570139
0.00146775
0.00464684
0.0132725
0.0221838
0.0230058
0.0167549
0.0168028
0.0468803
0.00840164
0.00871791
0.00814886
0.00781407
0.00718474
0.00689211
0.00658325
0.0064193
0.00624664
0.00614461
0.00603919
0.00596111
0.00584633
0.00575495
0.00569338
0.00559934
0.00550036
0.00539692
0.00528884
0.00518151
0.00503974
0.00489285
0.00469047
0.00435223
0.00390609
0.00335552
0.00276932
0.00217897
0.00164524
0.00119334
0.000872084
0.000706504
0.000625334
0.00056609
0.00056927
0.000616963
0.000271982
0.000190573
7.39028e-05
0.000112022
9.18228e-05
0.000100536
0.000109596
9.89742e-05
9.39108e-05
9.93305e-05
9.2033e-05
7.76705e-05
5.54238e-05
4.30083e-05
3.95627e-05
4.04854e-05
4.30148e-05
4.58301e-05
4.82251e-05
5.01638e-05
5.16295e-05
5.27386e-05
5.35452e-05
5.41945e-05
5.47609e-05
5.50822e-05
5.5225e-05
5.52954e-05
5.5325e-05
5.53863e-05
5.55778e-05
5.57194e-05
5.58041e-05
5.54436e-05
5.53319e-05
5.40709e-05
5.45311e-05
5.11063e-05
5.25933e-05
4.63319e-05
5.04245e-05
4.32945e-05
5.05335e-05
4.89631e-05
6.15379e-05
8.55142e-05
9.87812e-05
0.000136869
0.000119865
0.000121943
0.000254604
0.000542579
0.00132224
0.00282852
0.00762254
0.0172765
0.0268405
0.0102671
0.0098816
0.04966
0.00648568
0.00641989
0.00508912
0.00491511
0.00435888
0.00413509
0.00381418
0.00365879
0.00345499
0.00329087
0.00317494
0.00307815
0.0029976
0.00296812
0.00297207
0.00298017
0.00295543
0.00289472
0.0028592
0.00286842
0.00290517
0.00303959
0.00328419
0.00339784
0.00337682
0.00295712
0.00230123
0.00158134
0.00101381
0.000616874
0.000417292
0.000350697
0.000345379
0.000391984
0.000192284
0.000513195
0.000297881
0.000105751
3.97149e-05
5.38468e-05
5.13824e-05
8.37101e-05
7.74713e-05
7.63054e-05
8.04447e-05
8.31902e-05
7.20993e-05
5.61888e-05
3.92186e-05
3.0918e-05
2.84303e-05
2.83255e-05
2.8984e-05
2.99052e-05
3.06939e-05
3.1323e-05
3.17575e-05
3.20606e-05
3.22233e-05
3.23026e-05
3.22694e-05
3.21706e-05
3.20391e-05
3.18896e-05
3.17345e-05
3.16294e-05
3.15734e-05
3.14906e-05
3.14727e-05
3.12869e-05
3.12555e-05
3.06065e-05
3.08573e-05
2.91603e-05
3.00318e-05
2.71527e-05
2.94287e-05
2.62529e-05
2.97829e-05
2.8698e-05
3.53381e-05
4.98864e-05
6.14066e-05
9.20793e-05
6.70122e-05
6.22682e-05
0.000150117
0.000480874
0.0013251
0.00276893
0.00764937
0.0159913
0.0206417
0.00648491
0.00568205
0.0479345
0.00487693
0.00389344
0.00223567
0.00198833
0.00159298
0.00149551
0.00140574
0.00137937
0.0013423
0.00130199
0.00123923
0.0011955
0.00115103
0.00112242
0.00110013
0.00108463
0.00106335
0.0010374
0.000993136
0.000943704
0.000878776
0.000837589
0.000832772
0.000864512
0.000882953
0.000824935
0.000690839
0.000508695
0.000328148
0.000206178
0.000143902
0.000110884
7.80335e-05
5.24778e-05
3.22498e-05
0.000509107
0.000376937
7.04787e-05
3.47879e-05
3.46078e-05
2.3066e-05
3.76814e-05
4.59127e-05
5.83007e-05
6.20892e-05
6.81046e-05
5.98715e-05
4.64874e-05
3.27791e-05
2.62548e-05
2.4428e-05
2.41407e-05