/*--------------------------------*- C++ -*----------------------------------*\
| =========                 |                                                 |
| \\      /  F ield         | OpenFOAM: The Open Source CFD Toolbox           |
|  \\    /   O peration     | Version:  2.3.0                                 |
|   \\  /    A nd           | Web:      www.OpenFOAM.org                      |
|    \\/     M anipulation  |                                                 |
\*---------------------------------------------------------------------------*/
FoamFile
{
    version     2.0;
    format      ascii;
    class       volScalarField;
    location    "15";
    object      nut.water;
}
// * * * * * * * * * * * * * * * * * * * * * * * * * * * * * * * * * * * * * //

dimensions      [0 2 -1 0 0 0 0];

internalField   nonuniform List<scalar> 
6144
(
1.17277e-05
1.12148e-05
8.20403e-06
7.57664e-06
6.51521e-06
6.18489e-06
5.90579e-06
5.75319e-06
5.19313e-06
4.6199e-06
4.5101e-06
4.79731e-06
5.02099e-06
5.13984e-06
5.12765e-06
5.09853e-06
5.03669e-06
4.99707e-06
4.95511e-06
4.93642e-06
4.92175e-06
4.92321e-06
4.92779e-06
4.93976e-06
4.9551e-06
4.97343e-06
4.99293e-06
5.01347e-06
5.03453e-06
5.05564e-06
5.07774e-06
5.09648e-06
5.12298e-06
5.13489e-06
5.17507e-06
5.16749e-06
5.23042e-06
5.18447e-06
5.28141e-06
5.18691e-06
5.35686e-06
5.22441e-06
5.5004e-06
5.34352e-06
5.71561e-06
5.62325e-06
5.88417e-06
6.0347e-06
6.77216e-06
8.88439e-06
1.16246e-05
1.3976e-05
1.62555e-05
1.86042e-05
2.533e-05
3.3714e-05
4.00839e-05
5.27583e-05
7.17344e-05
8.95943e-05
0.000151075
0.000117444
0.000105168
9.31854e-05
8.48783e-05
7.96561e-05
7.5833e-05
7.27592e-05
7.01438e-05
6.78588e-05
6.58455e-05
6.40186e-05
6.23357e-05
6.07713e-05
5.92526e-05
5.78324e-05
5.64117e-05
5.49998e-05
5.35233e-05
5.18355e-05
5.00565e-05
4.79099e-05
4.55522e-05
4.30265e-05
3.99539e-05
3.65756e-05
3.24813e-05
2.61246e-05
1.81062e-05
1.1131e-05
1.0338e-05
1.17232e-05
1.38597e-05
1.4558e-05
1.43858e-05
1.38103e-05
1.73686e-05
1.58474e-05
1.0535e-05
1.09166e-05
8.95561e-06
8.11837e-06
8.04116e-06
8.03568e-06
8.13605e-06
7.92356e-06
7.8954e-06
8.22592e-06
8.45677e-06
8.55636e-06
8.56461e-06
8.55206e-06
8.51924e-06
8.49404e-06
8.46591e-06
8.45787e-06
8.46013e-06
8.48033e-06
8.50835e-06
8.54647e-06
8.58916e-06
8.63611e-06
8.68485e-06
8.73484e-06
8.78503e-06
8.83482e-06
8.88495e-06
8.93108e-06
8.98371e-06
9.02286e-06
9.0898e-06
9.10304e-06
9.19322e-06
9.14916e-06
9.27629e-06
9.16135e-06
9.38425e-06
9.21389e-06
9.57599e-06
9.36323e-06
9.84312e-06
9.79334e-06
1.01651e-05
1.013e-05
1.00068e-05
1.17837e-05
1.48011e-05
1.95837e-05
2.5103e-05
2.97473e-05
4.11345e-05
5.11118e-05
6.69391e-05
8.09992e-05
9.253e-05
8.94378e-05
0.000131699
7.96457e-05
7.52604e-05
6.94141e-05
6.95314e-05
7.02003e-05
7.01362e-05
6.97197e-05
6.90522e-05
6.82382e-05
6.72144e-05
6.60371e-05
6.48717e-05
6.37242e-05
6.26226e-05
6.15529e-05
6.03349e-05
5.90708e-05
5.76143e-05
5.58673e-05
5.40411e-05
5.17037e-05
4.91097e-05
4.63965e-05
4.30795e-05
3.94748e-05
3.4161e-05
2.61215e-05
1.97879e-05
1.48859e-05
1.37658e-05
1.4491e-05
1.6247e-05
1.77491e-05
1.77294e-05
1.4954e-05
2.12144e-05
1.8512e-05
1.42508e-05
1.44507e-05
9.88789e-06
8.99749e-06
8.4478e-06
8.38357e-06
9.15005e-06
9.15948e-06
9.31296e-06
9.66248e-06
9.88498e-06
9.95703e-06
1.00088e-05
1.00831e-05
1.01778e-05
1.02637e-05
1.03355e-05
1.04063e-05
1.04787e-05
1.05517e-05
1.06244e-05
1.06968e-05
1.07687e-05
1.08407e-05
1.09122e-05
1.09828e-05
1.10519e-05
1.11201e-05
1.11879e-05
1.12535e-05
1.1318e-05
1.13801e-05
1.14456e-05
1.14903e-05
1.1555e-05
1.15558e-05
1.16191e-05
1.15542e-05
1.16623e-05
1.15377e-05
1.17516e-05
1.15688e-05
1.19391e-05
1.20468e-05
1.262e-05
1.30526e-05
1.30811e-05
1.49757e-05
1.77134e-05
2.37403e-05
3.19035e-05
3.89029e-05
5.57328e-05
6.57444e-05
7.39897e-05
8.87594e-05
8.54943e-05
7.78502e-05
0.000122988
7.29871e-05
7.26592e-05
6.71095e-05
6.83983e-05
6.85895e-05
6.75057e-05
6.67151e-05
6.62508e-05
6.60055e-05
6.55533e-05
6.50756e-05
6.45521e-05
6.38254e-05
6.29984e-05
6.20257e-05
6.09506e-05
5.99043e-05
5.8617e-05
5.70496e-05
5.53814e-05
5.30011e-05
5.02732e-05
4.7492e-05
4.33003e-05
3.62665e-05
2.96626e-05
2.57217e-05
2.28094e-05
2.00362e-05
1.90873e-05
1.93035e-05
2.06976e-05
2.24721e-05
2.23248e-05
1.64352e-05
2.43761e-05
2.20468e-05
1.83315e-05
1.77191e-05
1.29357e-05
1.17981e-05
9.24815e-06
8.50788e-06
9.14222e-06
9.46112e-06
9.74865e-06
1.00306e-05
1.02234e-05
1.02945e-05
1.03718e-05
1.0496e-05
1.06508e-05
1.07991e-05
1.09371e-05
1.10618e-05
1.11791e-05
1.12856e-05
1.13851e-05
1.14782e-05
1.15673e-05
1.16529e-05
1.17367e-05
1.18186e-05
1.1899e-05
1.19785e-05
1.20574e-05
1.21362e-05
1.22133e-05
1.22888e-05
1.23585e-05
1.24218e-05
1.24801e-05
1.25103e-05
1.25447e-05
1.25164e-05
1.25592e-05
1.2484e-05
1.25929e-05
1.24822e-05
1.27759e-05
1.30485e-05
1.37534e-05
1.48264e-05
1.54755e-05
1.73584e-05
1.99437e-05
2.61282e-05
3.5358e-05
4.53762e-05
7.35842e-05
8.63131e-05
9.68719e-05
0.000112124
7.86713e-05
7.62074e-05
0.000121741
7.33188e-05
6.67335e-05
6.80234e-05
6.81129e-05
6.52485e-05
6.3405e-05
6.27634e-05
6.24536e-05
6.19951e-05
6.15425e-05
6.11018e-05
6.05072e-05
5.96813e-05
5.87697e-05
5.76321e-05
5.646e-05
5.53737e-05
5.42294e-05
5.32582e-05
5.18572e-05
4.85073e-05
4.37929e-05
3.97293e-05
3.64731e-05
3.40111e-05
3.20515e-05
3.0534e-05
2.9035e-05
2.74138e-05
2.54617e-05
2.40809e-05
2.45779e-05
2.58571e-05
2.58191e-05
1.74526e-05
2.55145e-05
2.33145e-05
2.04839e-05
1.95153e-05
1.64993e-05
1.49413e-05
1.16034e-05
9.90527e-06
9.78496e-06
9.97394e-06
1.0451e-05
1.06129e-05
1.06399e-05
1.05823e-05
1.06637e-05
1.08303e-05
1.10301e-05
1.12228e-05
1.13992e-05
1.15553e-05
1.16966e-05
1.18235e-05
1.19408e-05
1.20489e-05
1.21512e-05
1.22484e-05
1.23428e-05
1.24356e-05
1.25277e-05
1.26197e-05
1.27104e-05
1.28008e-05
1.2887e-05
1.29729e-05
1.30517e-05
1.31294e-05
1.31904e-05
1.32419e-05
1.32624e-05
1.32611e-05
1.32583e-05
1.32201e-05
1.32288e-05
1.32136e-05
1.33374e-05
1.39414e-05
1.46759e-05
1.62963e-05
1.72622e-05
1.90291e-05
2.20533e-05
2.97371e-05
4.17181e-05
5.804e-05
9.28792e-05
0.000110038
0.000117764
0.000116412
7.86976e-05
8.0389e-05
0.000111708
7.70368e-05
7.3366e-05
7.13946e-05
6.5788e-05
5.93124e-05
5.77887e-05
5.64843e-05
5.64043e-05
5.62006e-05
5.57227e-05
5.47545e-05
5.3302e-05
5.16228e-05
5.0455e-05
5.01605e-05
4.98416e-05
4.92107e-05
4.83209e-05
4.73408e-05
4.61177e-05
4.47322e-05
4.33462e-05
4.21128e-05
4.09347e-05
4.01343e-05
3.95897e-05
3.85167e-05
3.64091e-05
3.38277e-05
3.11524e-05
2.85723e-05
2.79804e-05
2.87356e-05
2.88609e-05
1.84841e-05
2.43568e-05
2.20658e-05
2.11298e-05
1.97239e-05
1.8678e-05
1.69195e-05
1.40662e-05
1.16838e-05
1.0831e-05
1.06876e-05
1.12903e-05
1.11572e-05
1.09486e-05
1.07434e-05
1.08109e-05
1.10189e-05
1.12656e-05
1.14973e-05
1.16984e-05
1.18699e-05
1.20198e-05
1.21516e-05
1.22716e-05
1.23812e-05
1.24831e-05
1.25784e-05
1.267e-05
1.27605e-05
1.28511e-05
1.29428e-05
1.30346e-05
1.31274e-05
1.32169e-05
1.3307e-05
1.33872e-05
1.3471e-05
1.3535e-05
1.35976e-05
1.36252e-05
1.3635e-05
1.3638e-05
1.36091e-05
1.35928e-05
1.36317e-05
1.36739e-05
1.45798e-05
1.54388e-05
1.77019e-05
1.91382e-05
2.08381e-05
2.45096e-05
3.30505e-05
4.50156e-05
6.30066e-05
9.42357e-05
0.000114164
0.000122206
0.000122073
9.09893e-05
9.6742e-05
0.000106223
8.6447e-05
8.49388e-05
8.24446e-05
7.90694e-05
7.71161e-05
7.64184e-05
7.509e-05
7.43366e-05
7.31451e-05
7.21758e-05
7.08882e-05
6.94149e-05
6.77786e-05
6.62875e-05
6.46887e-05
6.28028e-05
6.1188e-05
5.94733e-05
5.79532e-05
5.65286e-05
5.54071e-05
5.43385e-05
5.34787e-05
5.23192e-05
5.08324e-05
4.8688e-05
4.61869e-05
4.3451e-05
4.06091e-05
3.76318e-05
3.46715e-05
3.26036e-05
3.12179e-05
3.08429e-05
1.86545e-05
2.05672e-05
1.95093e-05
1.89247e-05
1.85002e-05
1.92421e-05
1.77619e-05
1.5975e-05
1.30539e-05
1.18744e-05
1.18736e-05
1.24162e-05
1.19271e-05
1.12393e-05
1.06422e-05
1.05073e-05
1.06981e-05
1.10083e-05
1.13152e-05
1.15813e-05
1.18011e-05
1.19831e-05
1.21346e-05
1.22671e-05
1.2385e-05
1.24939e-05
1.25959e-05
1.26935e-05
1.27894e-05
1.28859e-05
1.29835e-05
1.30805e-05
1.31786e-05
1.32738e-05
1.33686e-05
1.34498e-05
1.35413e-05
1.35901e-05
1.36795e-05
1.36384e-05
1.36908e-05
1.35327e-05
1.35984e-05
1.32812e-05
1.35973e-05
1.33329e-05
1.50322e-05
1.60331e-05
1.88336e-05
2.0849e-05
2.2346e-05
2.57954e-05
3.37092e-05
4.54593e-05
6.06242e-05
8.59576e-05
0.000106342
0.000126755
0.000127138
0.000102558
0.000112613
0.000104383
9.93932e-05
0.000101047
0.000100177
9.81776e-05
9.69235e-05
9.60129e-05
9.46126e-05
9.36242e-05
9.28127e-05
9.2049e-05
9.09963e-05
8.95326e-05
8.79786e-05
8.66981e-05
8.55083e-05
8.31471e-05
8.15122e-05
7.94045e-05
7.74204e-05
7.53516e-05
7.33905e-05
7.12029e-05
6.9143e-05
6.66657e-05
6.43177e-05
6.15073e-05
5.8613e-05
5.55103e-05
5.18186e-05
4.73541e-05
4.21728e-05
3.79267e-05
3.51754e-05
3.4539e-05
1.99417e-05
1.8387e-05
1.81331e-05
1.68898e-05
1.68552e-05
1.78765e-05
1.71977e-05
1.66348e-05
1.39738e-05
1.26666e-05
1.24921e-05
1.30738e-05
1.23896e-05
1.13873e-05
1.05612e-05
1.03279e-05
1.04757e-05
1.07929e-05
1.11287e-05
1.14377e-05
1.17054e-05
1.19381e-05
1.21392e-05
1.23186e-05
1.24807e-05
1.26299e-05
1.27676e-05
1.29003e-05
1.30311e-05
1.31621e-05
1.32939e-05
1.34244e-05
1.35545e-05
1.36797e-05
1.38024e-05
1.39076e-05
1.40174e-05
1.40729e-05
1.41681e-05
1.41056e-05
1.41653e-05
1.39767e-05
1.40829e-05
1.37704e-05
1.41107e-05
1.39356e-05
1.56424e-05
1.69725e-05
1.97483e-05
2.24861e-05
2.35278e-05
2.68156e-05
3.36241e-05
4.29044e-05
5.79638e-05
8.80226e-05
0.000116569
0.000143097
0.000149479
0.000112631
0.000123206
0.000110524
0.000109936
0.000113379
0.000113865
0.000111913
0.000111373
0.000110481
0.000110157
0.000109611
0.000109215
0.000108629
0.000107957
0.000106968
0.000105745
0.000104547
0.000103263
0.000101632
9.98795e-05
9.79729e-05
9.61621e-05
9.42088e-05
9.17775e-05
8.90747e-05
8.61905e-05
8.27466e-05
7.9152e-05
7.51518e-05
7.11502e-05
6.70475e-05
6.30279e-05
5.94769e-05
5.65008e-05
5.32859e-05
4.99542e-05
4.70528e-05
2.54939e-05
1.71897e-05
1.78242e-05
1.59497e-05
1.54745e-05
1.64833e-05
1.61642e-05
1.58762e-05
1.36742e-05
1.17647e-05
1.13623e-05
1.19e-05
1.11905e-05
1.00349e-05
8.99311e-06
8.54948e-06
8.58821e-06
8.84753e-06
9.15222e-06
9.43879e-06
9.68378e-06
9.89366e-06
1.00698e-05
1.02214e-05
1.03549e-05
1.04763e-05
1.05908e-05
1.07084e-05
1.08285e-05
1.09495e-05
1.10709e-05
1.11917e-05
1.13126e-05
1.14287e-05
1.15369e-05
1.16302e-05
1.17205e-05
1.17628e-05
1.184e-05
1.1742e-05
1.18007e-05
1.15756e-05
1.1725e-05
1.14584e-05
1.18218e-05
1.19081e-05
1.3346e-05
1.49812e-05
1.70211e-05
1.95887e-05
1.99898e-05
2.3143e-05
2.9159e-05
3.84714e-05
5.25099e-05
7.13143e-05
9.41779e-05
0.000120422
0.000144076
9.84653e-05
0.000103922
0.000108409
9.18197e-05
8.94618e-05
8.63898e-05
8.42072e-05
8.27242e-05
8.2645e-05
8.2532e-05
8.26907e-05
8.26919e-05
8.25052e-05
8.20772e-05
8.14391e-05
8.03202e-05
7.9117e-05
7.76665e-05
7.62698e-05
7.46782e-05
7.28032e-05
7.05791e-05
6.87048e-05
6.71945e-05
6.59171e-05
6.43667e-05
6.26914e-05
6.03573e-05
5.76291e-05
5.51768e-05
5.25282e-05
5.00037e-05
4.79728e-05
4.61013e-05
4.42131e-05
4.20641e-05
3.97433e-05
2.21652e-05
1.6872e-05
1.85874e-05
1.45634e-05
1.33322e-05
1.45779e-05
1.446e-05
1.44007e-05
1.22611e-05
1.04771e-05
1.00323e-05
9.85949e-06
9.25636e-06
8.30158e-06
7.32762e-06
6.8826e-06
6.85843e-06
7.02997e-06
7.23857e-06
7.44406e-06
7.61828e-06
7.77067e-06
7.89908e-06
8.01195e-06
8.11289e-06
8.20624e-06
8.29464e-06
8.38232e-06
8.47199e-06
8.56438e-06
8.65855e-06
8.75442e-06
8.85315e-06
8.95128e-06
9.04415e-06
9.12803e-06
9.20404e-06
9.25887e-06
9.31459e-06
9.26898e-06
9.27949e-06
9.21259e-06
9.28837e-06
9.27167e-06
9.50884e-06
9.91837e-06
1.09294e-05
1.26063e-05
1.3854e-05
1.59041e-05
1.6119e-05
1.8898e-05
2.34161e-05
3.2018e-05
4.39667e-05
6.09974e-05
9.12904e-05
0.000108564
0.000134246
8.69618e-05
8.77577e-05
0.000111185
7.50191e-05
6.8799e-05
6.28186e-05
5.81488e-05
5.63169e-05
5.67243e-05
5.71238e-05
5.81913e-05
5.87123e-05
5.92336e-05
5.95088e-05
5.95495e-05
5.91186e-05
5.85027e-05
5.78437e-05
5.70943e-05
5.60548e-05
5.48644e-05
5.33494e-05
5.19058e-05
5.01148e-05
4.79847e-05
4.54548e-05
4.22319e-05
3.93591e-05
3.73922e-05
3.45599e-05
3.30783e-05
3.22039e-05
3.18233e-05
3.24228e-05
3.27372e-05
3.25198e-05
3.05909e-05
1.8064e-05
1.69213e-05
2.03685e-05
1.41951e-05
1.207e-05
1.28057e-05
1.20531e-05
1.16778e-05
1.00712e-05
9.36907e-06
9.20975e-06
8.62795e-06
7.80782e-06
6.89768e-06
6.09619e-06
5.68323e-06
5.6094e-06
5.6823e-06
5.78504e-06
5.90015e-06
6.0005e-06
6.09197e-06
6.17243e-06
6.24669e-06
6.31546e-06
6.38097e-06
6.44469e-06
6.50909e-06
6.57535e-06
6.64353e-06
6.71333e-06
6.78711e-06
6.8675e-06
6.95163e-06
7.03659e-06
7.11988e-06
7.19898e-06
7.26955e-06
7.33345e-06
7.36836e-06
7.41918e-06
7.47527e-06
7.54486e-06
7.66269e-06
7.8226e-06
8.3049e-06
8.91939e-06
1.02907e-05
1.10651e-05
1.26744e-05
1.31772e-05
1.53653e-05
1.89123e-05
2.7705e-05
4.23424e-05
6.91418e-05
9.4789e-05
0.0001124
0.000126686
8.67399e-05
8.07475e-05
0.000121369
6.7301e-05
5.5456e-05
5.04267e-05
4.52147e-05
4.11854e-05
4.16551e-05
4.25988e-05
4.36004e-05
4.42252e-05
4.45873e-05
4.47781e-05
4.48461e-05
4.48025e-05
4.45122e-05
4.41724e-05
4.37744e-05
4.33308e-05
4.28598e-05
4.22711e-05
4.16769e-05
4.07934e-05
4.00095e-05
3.9323e-05
3.82877e-05
3.6309e-05
3.41738e-05
3.32914e-05
3.14232e-05
2.89347e-05
2.52216e-05
2.27708e-05
2.19752e-05
2.20661e-05
2.18263e-05
1.38384e-05
1.73416e-05
1.78129e-05
1.40837e-05
1.1495e-05
1.16343e-05
9.9463e-06
9.22135e-06
8.74187e-06
8.70148e-06
9.00504e-06
8.46974e-06
7.53381e-06
6.31617e-06
5.51652e-06
5.15545e-06
5.04142e-06
5.04121e-06
5.07612e-06
5.13902e-06
5.20255e-06
5.27482e-06
5.34416e-06
5.41113e-06
5.47234e-06
5.52999e-06
5.58415e-06
5.63698e-06
5.69243e-06
5.75341e-06
5.81686e-06
5.88245e-06
5.95063e-06
6.02253e-06
6.10088e-06
6.176e-06
6.24346e-06
6.29253e-06
6.34394e-06
6.35175e-06
6.41025e-06
6.42108e-06
6.53767e-06
6.5921e-06
6.80589e-06
7.11889e-06
7.63126e-06
8.70854e-06
9.37469e-06
1.07215e-05
1.12712e-05
1.28595e-05
1.65989e-05
2.4485e-05
3.75547e-05
5.87849e-05
7.85301e-05
9.44136e-05
0.000115754
9.37781e-05
8.16086e-05
0.000126623
6.44525e-05
5.13272e-05
5.354e-05
5.25871e-05
5.12516e-05
5.09612e-05
5.07773e-05
4.99568e-05
4.90933e-05
4.6955e-05
4.20252e-05
3.86768e-05
3.74524e-05
3.68976e-05
3.63389e-05
3.56703e-05
3.48767e-05
3.40296e-05
3.32124e-05
3.25371e-05
3.20504e-05
3.20947e-05
3.30452e-05
3.47293e-05
3.58242e-05
3.6247e-05
3.62515e-05
3.56249e-05
3.43474e-05
3.24552e-05
2.88351e-05
2.21486e-05
1.62131e-05
1.47762e-05
1.04068e-05
2.46891e-05
1.50548e-05
1.27369e-05
1.05719e-05
1.0532e-05
8.40952e-06
8.10559e-06
8.17213e-06
8.45277e-06
8.74944e-06
8.11558e-06
7.27734e-06
6.14545e-06
5.45848e-06
5.15668e-06
5.02856e-06
4.99351e-06
4.99426e-06
5.01581e-06
5.04003e-06
5.07574e-06
5.10968e-06
5.14458e-06
5.17619e-06
5.2088e-06
5.24069e-06
5.27344e-06
5.30314e-06
5.32865e-06
5.36229e-06
5.40533e-06
5.459e-06
5.51622e-06
5.57129e-06
5.62616e-06
5.68075e-06
5.73123e-06
5.78194e-06
5.82008e-06
5.87801e-06
5.93629e-06
6.0082e-06
6.09565e-06
6.20934e-06
6.47561e-06
6.68629e-06
7.4078e-06
8.00198e-06
8.98876e-06
9.76638e-06
1.15093e-05
1.57484e-05
2.20796e-05
3.36225e-05
4.3284e-05
6.07908e-05
8.75025e-05
0.000106742
0.000111832
9.17787e-05
0.000130389
6.53032e-05
5.45382e-05
5.39883e-05
6.24161e-05
6.20902e-05
6.05366e-05
5.93157e-05
5.79508e-05
5.66299e-05
5.51792e-05
5.33955e-05
5.1896e-05
5.05518e-05
4.92734e-05
4.79182e-05
4.64496e-05
4.48342e-05
4.29058e-05
4.08237e-05
3.89004e-05
3.74614e-05
3.65509e-05
3.59987e-05
3.59988e-05
3.63799e-05
3.68653e-05
3.69807e-05
3.67908e-05
3.60502e-05
3.46037e-05
3.23622e-05
2.9144e-05
2.13148e-05
1.14785e-05
8.08984e-06
2.29237e-05
1.34154e-05
1.18145e-05
9.72538e-06
9.32794e-06
7.46991e-06
7.35577e-06
7.51777e-06
7.77285e-06
7.90605e-06
7.27286e-06
6.32856e-06
5.47673e-06
5.0391e-06
4.78869e-06
4.68383e-06
4.6478e-06
4.63639e-06
4.64451e-06
4.65033e-06
4.65681e-06
4.66279e-06
4.6748e-06
4.6879e-06
4.7048e-06
4.72409e-06
4.74616e-06
4.77109e-06
4.79953e-06
4.83264e-06
4.88096e-06
4.9321e-06
4.98158e-06
5.03105e-06
5.0773e-06
5.12206e-06
5.16401e-06
5.20548e-06
5.23583e-06
5.26782e-06
5.32204e-06
5.37724e-06
5.47471e-06
5.53947e-06
5.76175e-06
5.90534e-06
6.42634e-06
6.96905e-06
7.67148e-06
8.52015e-06
1.02069e-05
1.44015e-05
2.05908e-05
3.21028e-05
3.98954e-05
5.64064e-05
8.32062e-05
0.000104338
0.000115285
9.78862e-05
0.000131316
7.1367e-05
7.77989e-05
7.26563e-05
7.08083e-05
6.84543e-05
6.57285e-05
6.35924e-05
6.18132e-05
6.02424e-05
5.87385e-05
5.72279e-05
5.57716e-05
5.43381e-05
5.2987e-05
5.15828e-05
5.01044e-05
4.86102e-05
4.70272e-05
4.53569e-05
4.37414e-05
4.22033e-05
4.07668e-05
3.94715e-05
3.83591e-05
3.77203e-05
3.72693e-05
3.68454e-05
3.6242e-05
3.53546e-05
3.40783e-05
3.19098e-05
2.94835e-05
2.51795e-05
1.61526e-05
7.37741e-06
1.69806e-05
1.03723e-05
1.06473e-05
8.81173e-06
7.70295e-06
6.34147e-06
6.07229e-06
5.95378e-06
6.04202e-06
6.05396e-06
5.5301e-06
4.89319e-06
4.52545e-06
4.33297e-06
4.22654e-06
4.18393e-06
4.17295e-06
4.17622e-06
4.19293e-06
4.21105e-06
4.23243e-06
4.25186e-06
4.27451e-06
4.29859e-06
4.32495e-06
4.35289e-06
4.38177e-06
4.40828e-06
4.4309e-06
4.45489e-06
4.49462e-06
4.54382e-06
4.59268e-06
4.64029e-06
4.6839e-06
4.72428e-06
4.76239e-06
4.79899e-06
4.82811e-06
4.85306e-06
4.89935e-06
4.94488e-06
5.03382e-06
5.08197e-06
5.26948e-06
5.40017e-06
5.8388e-06
6.33925e-06
6.94994e-06
7.69955e-06
8.919e-06
1.17775e-05
1.61487e-05
2.50108e-05
3.71049e-05
5.28463e-05
8.19248e-05
0.000105258
0.000125565
0.00011197
0.000141736
8.71719e-05
8.35887e-05
7.04926e-05
6.78968e-05
6.83027e-05
6.73855e-05
6.60362e-05
6.45309e-05
6.28756e-05
6.12099e-05
5.94202e-05
5.76722e-05
5.59519e-05
5.4209e-05
5.2386e-05
5.05467e-05
4.86706e-05
4.68387e-05
4.50041e-05
4.32993e-05
4.16237e-05
4.0058e-05
3.856e-05
3.72212e-05
3.61735e-05
3.53264e-05
3.46926e-05
3.39298e-05
3.30252e-05
3.17348e-05
2.99119e-05
2.77783e-05
2.43862e-05
1.68956e-05
8.10971e-06
1.05227e-05
8.94552e-06
8.6464e-06
7.26591e-06
6.16867e-06
5.37962e-06
4.85015e-06
4.65729e-06
4.49712e-06
4.45165e-06
4.10465e-06
3.8223e-06
3.66785e-06
3.58802e-06
3.54391e-06
3.52786e-06
3.52477e-06
3.53162e-06
3.54557e-06
3.56176e-06
3.58174e-06
3.60161e-06
3.62321e-06
3.64574e-06
3.66943e-06
3.69407e-06
3.71933e-06
3.74451e-06
3.76814e-06
3.78991e-06
3.81532e-06
3.84683e-06
3.88089e-06
3.9163e-06
3.95033e-06
3.98082e-06
4.00962e-06
4.03712e-06
4.06248e-06
4.07771e-06
4.10879e-06
4.13585e-06
4.2019e-06
4.22784e-06
4.35303e-06
4.46267e-06
4.78219e-06
5.28005e-06
5.84438e-06
6.5228e-06
7.17195e-06
8.71378e-06
1.10331e-05
1.52957e-05
2.49983e-05
3.90632e-05
5.54288e-05
6.63231e-05
8.6087e-05
0.00010358
0.00015398
0.000122705
0.000106047
9.21346e-05
8.30528e-05
7.70497e-05
7.24739e-05
6.86315e-05
6.5322e-05
6.23879e-05
5.97412e-05
5.72861e-05
5.50069e-05
5.28415e-05
5.07877e-05
4.8762e-05
4.68052e-05
4.48533e-05
4.30023e-05
4.11494e-05
3.94648e-05
3.77862e-05
3.62841e-05
3.47695e-05
3.34548e-05
3.22815e-05
3.12847e-05
3.05333e-05
2.96788e-05
2.88002e-05
2.73888e-05
2.56274e-05
2.36977e-05
1.95606e-05
1.23315e-05
7.19794e-06
1.48607e-05
1.34431e-05
9.82987e-06
1.00953e-05
9.47626e-06
1.00679e-05
1.02441e-05
1.03892e-05
9.50556e-06
8.60405e-06
8.46918e-06
9.04632e-06
9.40811e-06
9.57941e-06
9.404e-06
9.18286e-06
8.90494e-06
8.69316e-06
8.5015e-06
8.38495e-06
8.30493e-06
8.27484e-06
8.26355e-06
8.27279e-06
8.28921e-06
8.3136e-06
8.3414e-06
8.3714e-06
8.40208e-06
8.43204e-06
8.46256e-06
8.48768e-06
8.52429e-06
8.53766e-06
8.59468e-06
8.57734e-06
8.67472e-06
8.59033e-06
8.76086e-06
8.59573e-06
8.95112e-06
8.72559e-06
9.36411e-06
9.05203e-06
9.89909e-06
9.46869e-06
9.82457e-06
9.09877e-06
8.38769e-06
1.00459e-05
1.33405e-05
1.61032e-05
2.02613e-05
2.23961e-05
3.04415e-05
4.09281e-05
5.49765e-05
6.55029e-05
7.58858e-05
9.30767e-05
0.000129422
0.000106735
9.93639e-05
9.28305e-05
8.70648e-05
8.29404e-05
7.9805e-05
7.71914e-05
7.48358e-05
7.27028e-05
7.07445e-05
6.89101e-05
6.72011e-05
6.55918e-05
6.40499e-05
6.25799e-05
6.11083e-05
5.9614e-05
5.80544e-05
5.6323e-05
5.44497e-05
5.22715e-05
4.98946e-05
4.73646e-05
4.45429e-05
4.14847e-05
3.81495e-05
3.42862e-05
2.96646e-05
2.44354e-05
1.70089e-05
1.17486e-05
1.14149e-05
1.27139e-05
1.54527e-05
1.5896e-05
5.6627e-05
4.70587e-05
3.25115e-05
3.29576e-05
2.93279e-05
2.91362e-05
3.20993e-05
3.3289e-05
3.45909e-05
3.45478e-05
3.38607e-05
3.384e-05
3.36305e-05
3.32151e-05
3.28291e-05
3.26803e-05
3.27609e-05
3.28481e-05
3.28611e-05
3.2843e-05
3.28001e-05
3.27779e-05
3.27761e-05
3.28254e-05
3.29063e-05
3.30155e-05
3.31388e-05
3.32695e-05
3.34018e-05
3.35325e-05
3.36641e-05
3.37851e-05
3.39295e-05
3.40309e-05
3.42249e-05
3.42498e-05
3.44773e-05
3.43003e-05
3.45766e-05
3.42211e-05
3.46678e-05
3.42684e-05
3.49528e-05
3.47114e-05
3.60338e-05
3.70054e-05
3.86673e-05
3.72191e-05
3.4314e-05
3.68812e-05
4.57629e-05
5.48561e-05
7.60891e-05
8.70281e-05
0.000133214
0.000165738
0.000297749
0.00038369
0.000609876
0.000570867
3.01546e-05
3.72553e-05
9.78339e-05
0.000104771
0.000112073
0.000112685
0.000111542
0.000109437
0.000108066
0.000106748
0.00010655
0.000106837
0.000108174
0.000108911
0.000108961
0.000108485
0.000106736
0.00010376
9.96513e-05
9.38841e-05
8.73368e-05
8.03053e-05
7.26008e-05
6.56507e-05
5.9399e-05
5.40271e-05
4.93077e-05
4.33815e-05
4.00257e-05
3.58238e-05
3.16305e-05
2.63809e-05
2.41229e-05
2.91338e-05
2.68498e-05
1.71637e-05
6.78111e-05
5.46115e-05
3.87378e-05
3.8988e-05
3.20817e-05
3.00166e-05
3.46914e-05
3.60817e-05
4.05785e-05
4.15099e-05
4.12936e-05
4.00084e-05
3.858e-05
3.70131e-05
3.6106e-05
3.60402e-05
3.65331e-05
3.71159e-05
3.75958e-05
3.79874e-05
3.83019e-05
3.85568e-05
3.87666e-05
3.89466e-05
3.9108e-05
3.9259e-05
3.94069e-05
3.95505e-05
3.96918e-05
3.98328e-05
3.99705e-05
4.01012e-05
4.02228e-05
4.03247e-05
4.04163e-05
4.0443e-05
4.04647e-05
4.03556e-05
4.02348e-05
3.99311e-05
3.97406e-05
3.93692e-05
3.92844e-05
3.92958e-05
4.01195e-05
4.23533e-05
4.51235e-05
4.71986e-05
4.96735e-05
5.29329e-05
5.96185e-05
7.15755e-05
9.25666e-05
0.000110359
0.000149648
0.000162122
0.000293329
0.000346972
0.000458001
0.000337581
2.91041e-05
0.000111559
0.000182727
0.000148649
0.000142569
0.000134338
0.000130024
0.000129388
0.000131505
0.000134346
0.000139303
0.000142635
0.000145765
0.000146189
0.000146128
0.000144445
0.000140162
0.000134696
0.000127841
0.000119794
0.000110465
0.000101936
9.44035e-05
8.44088e-05
7.26412e-05
6.18512e-05
5.62717e-05
5.34453e-05
5.20486e-05
5.36332e-05
5.40847e-05
5.27436e-05
5.11169e-05
4.96808e-05
3.97132e-05
1.91037e-05
8.43404e-05
6.81519e-05
5.40886e-05
5.24879e-05
3.87983e-05
3.38462e-05
3.44766e-05
3.53045e-05
4.21833e-05
4.37011e-05
4.36636e-05
4.17329e-05
3.94373e-05
3.71492e-05
3.60088e-05
3.60103e-05
3.67933e-05
3.76429e-05
3.8336e-05
3.89066e-05
3.93808e-05
3.976e-05
4.00695e-05
4.03157e-05
4.05202e-05
4.0692e-05
4.08517e-05
4.10048e-05
4.11567e-05
4.13092e-05
4.14539e-05
4.15882e-05
4.16978e-05
4.17849e-05
4.18295e-05
4.18369e-05
4.17727e-05
4.16871e-05
4.14053e-05
4.11306e-05
4.06678e-05
4.03138e-05
3.9797e-05
3.9945e-05
4.03245e-05
4.36208e-05
4.70449e-05
5.21062e-05
5.58411e-05
6.03545e-05
6.55005e-05
7.60786e-05
9.72702e-05
0.000112916
0.000162898
0.000210883
0.000280101
0.000312167
0.000198649
0.000115077
2.91512e-05
0.000127227
0.00018161
0.000154888
0.000148641
0.000138941
0.000142405
0.000147468
0.000151301
0.000153853
0.000153523
0.00015145
0.000147224
0.000143052
0.000139326
0.000136083
0.000132898
0.000129579
0.000125272
0.000118461
0.000107609
9.4165e-05
8.27621e-05
7.48316e-05
6.93276e-05
6.70446e-05
6.85797e-05
7.23657e-05
7.38739e-05
7.22032e-05
7.00971e-05
6.66742e-05
6.23398e-05
5.74395e-05
4.7245e-05
2.02702e-05
9.92348e-05
7.45385e-05
6.52697e-05
5.79422e-05
5.27793e-05
4.67199e-05
4.11299e-05
3.93649e-05
4.52152e-05
4.57898e-05
4.59448e-05
4.29849e-05
3.906e-05
3.54061e-05
3.39666e-05
3.38366e-05
3.43904e-05
3.51628e-05
3.59461e-05
3.65864e-05
3.70999e-05
3.74932e-05
3.78061e-05
3.80546e-05
3.82653e-05
3.8445e-05
3.86068e-05
3.87635e-05
3.89214e-05
3.90787e-05
3.92264e-05
3.93672e-05
3.94855e-05
3.95775e-05
3.96111e-05
3.96443e-05
3.95476e-05
3.9502e-05
3.9133e-05
3.89371e-05
3.82798e-05
3.81165e-05
3.71727e-05
3.78012e-05
3.74276e-05
4.17581e-05
4.55124e-05
5.33957e-05
5.90812e-05
6.34714e-05
6.67609e-05
7.81125e-05
0.000100688
0.00014457
0.000209387
0.000258017
0.000264244
0.00025163
7.08341e-05
6.0641e-05
2.72061e-05
0.000137572
0.000187405
0.00016737
0.0001691
0.000164092
0.000161919
0.000158151
0.000156075
0.000152566
0.000148066
0.000142397
0.000136075
0.000130595
0.000127743
0.000126999
0.000126034
0.000122222
0.000116089
0.000108113
9.90958e-05
9.11966e-05
8.56805e-05
8.29067e-05
8.31254e-05
8.75308e-05
8.81062e-05
8.50154e-05
8.0123e-05
7.4749e-05
6.90946e-05
6.40157e-05
5.98441e-05
5.64948e-05
4.7534e-05
2.09303e-05
0.00010954
7.49488e-05
6.73073e-05
5.84462e-05
5.18696e-05
4.97388e-05
4.83922e-05
4.52255e-05
4.68215e-05
4.5807e-05
4.57843e-05
4.26436e-05
3.83352e-05
3.46892e-05
3.32305e-05
3.30486e-05
3.34195e-05
3.39363e-05
3.44156e-05
3.48124e-05
3.51332e-05
3.53842e-05
3.5587e-05
3.5747e-05
3.58854e-05
3.60088e-05
3.61254e-05
3.62462e-05
3.63731e-05
3.6501e-05
3.66208e-05
3.6737e-05
3.68355e-05
3.69063e-05
3.69324e-05
3.69028e-05
3.68558e-05
3.6721e-05
3.65369e-05
3.62325e-05
3.59453e-05
3.55669e-05
3.53889e-05
3.52802e-05
3.58441e-05
3.86221e-05
4.24097e-05
5.04085e-05
5.80797e-05
6.13322e-05
6.59754e-05
7.87163e-05
9.84858e-05
0.00015231
0.000205927
0.000226389
0.000216508
0.000201956
3.60637e-05
4.136e-05
3.74454e-05
0.000162081
0.000204326
0.000190367
0.000186773
0.00018121
0.000177517
0.000175394
0.000174081
0.000172042
0.000170176
0.000168034
0.000165173
0.000161083
0.000155907
0.000150788
0.000144789
0.00013826
0.000131771
0.000125437
0.00011977
0.000114896
0.000110279
0.000106456
0.000101333
9.39686e-05
8.47596e-05
7.38417e-05
6.20857e-05
5.02738e-05
4.22611e-05
3.91057e-05
4.34124e-05
4.20051e-05
4.21697e-05
2.12576e-05
9.79751e-05
5.92029e-05
5.44648e-05
4.33543e-05
4.57113e-05
4.76431e-05
4.96775e-05
4.71476e-05
4.60351e-05
4.56867e-05
4.55052e-05
4.24066e-05
3.76396e-05
3.23018e-05
2.93227e-05
2.8635e-05
2.90983e-05
2.99616e-05
3.0862e-05
3.16251e-05
3.22322e-05
3.2676e-05
3.30083e-05
3.32525e-05
3.34349e-05
3.3571e-05
3.36913e-05
3.38068e-05
3.39233e-05
3.40301e-05
3.4115e-05
3.42001e-05
3.42679e-05
3.43164e-05
3.42818e-05
3.42749e-05
3.40112e-05
3.39799e-05
3.3225e-05
3.31208e-05
3.17497e-05
3.19866e-05
3.02812e-05
3.16369e-05
3.04928e-05
3.614e-05
4.05579e-05
4.85562e-05
5.56418e-05
5.95954e-05
6.46772e-05
7.55606e-05
9.06522e-05
0.000124823
0.000179934
0.000186292
0.000194678
0.000155259
3.83346e-05
4.69589e-05
5.71971e-05
0.000177656
0.000211167
0.000211938
0.000205317
0.000197794
0.000192824
0.000189405
0.000185758
0.000182373
0.000178964
0.000174984
0.000171091
0.000166828
0.000162062
0.000157894
0.000152902
0.000147981
0.000142847
0.000137324
0.000131589
0.000124871
0.000116933
0.000108715
9.77705e-05
8.6385e-05
7.66341e-05
6.77516e-05
6.03407e-05
5.20578e-05
4.29314e-05
3.20497e-05
2.49079e-05
2.31247e-05
3.57197e-05
2.304e-05
9.27518e-05
5.53956e-05
4.15567e-05
3.13608e-05
3.33068e-05
3.37126e-05
4.00945e-05
4.6261e-05
4.46259e-05
4.1818e-05
4.17565e-05
3.79634e-05
3.2422e-05
2.72166e-05
2.45702e-05
2.37056e-05
2.38407e-05
2.42864e-05
2.47164e-05
2.50899e-05
2.54066e-05
2.56413e-05
2.58197e-05
2.59376e-05
2.60195e-05
2.60707e-05
2.61149e-05
2.61595e-05
2.62039e-05
2.62435e-05
2.6284e-05
2.63388e-05
2.63692e-05
2.6381e-05
2.63056e-05
2.62105e-05
2.59231e-05
2.5724e-05
2.50902e-05
2.49045e-05
2.39765e-05
2.41157e-05
2.32188e-05
2.39468e-05
2.39326e-05
2.68033e-05
3.21746e-05
3.82925e-05
4.81913e-05
4.81021e-05
5.61502e-05
7.32187e-05
9.11167e-05
0.000114853
0.000161826
0.00019483
0.000227635
0.000216794
3.97203e-05
4.88828e-05
6.30103e-05
0.000183716
0.000217741
0.000218994
0.000214012
0.000205009
0.000200613
0.000195263
0.000191275
0.000187162
0.000183583
0.000180284
0.000177227
0.000173927
0.00017057
0.000167154
0.000163329
0.00015891
0.000154257
0.000149552
0.000145638
0.000141393
0.000136502
0.000130969
0.000123803
0.000115125
0.000104402
9.25857e-05
8.15553e-05
7.13842e-05
6.43408e-05
6.52058e-05
6.81275e-05
6.7819e-05
6.90478e-05
6.52308e-05
8.33901e-05
5.83248e-05
3.74364e-05
2.84411e-05
3.04342e-05
2.89147e-05
3.28063e-05
3.59243e-05
3.68121e-05
3.70853e-05
3.65069e-05
3.30565e-05
2.79908e-05
2.20989e-05
1.8715e-05
1.77828e-05
1.76571e-05
1.79087e-05
1.82993e-05
1.86127e-05
1.88474e-05
1.89859e-05
1.90724e-05
1.90966e-05
1.90904e-05
1.90745e-05
1.90469e-05
1.90066e-05
1.89617e-05
1.89072e-05
1.88774e-05
1.88969e-05
1.89183e-05
1.89456e-05
1.88918e-05
1.88257e-05
1.85976e-05
1.85474e-05
1.79713e-05
1.80231e-05
1.70628e-05
1.75284e-05
1.66575e-05
1.75821e-05
1.78485e-05
2.00487e-05
2.49107e-05
2.89675e-05
3.72825e-05
3.51729e-05
4.0483e-05
6.17812e-05
8.99564e-05
0.00011902
0.000161083
0.000190339
0.00026342
0.000267047
4.79237e-05
4.88826e-05
4.61283e-05
0.000141174
0.000176706
0.00016788
0.000166085
0.000159362
0.00015609
0.000152021
0.000149202
0.000147051
0.000144322
0.000141936
0.000139697
0.000137617
0.000136076
0.000135433
0.000134683
0.000132813
0.000129657
0.00012314
0.000119471
0.000115875
0.000112097
0.000112672
0.000113355
0.000113141
0.000109155
0.000101478
9.40144e-05
8.22073e-05
6.20591e-05
4.15576e-05
3.27029e-05
2.98229e-05
2.97685e-05
2.23984e-05
7.89572e-05
6.21597e-05
3.55413e-05
2.2663e-05
2.90434e-05
2.75542e-05
3.07779e-05
3.06919e-05
3.03142e-05
3.19113e-05
3.19211e-05
2.8369e-05
2.32595e-05
1.85431e-05
1.59848e-05
1.51554e-05
1.49652e-05
1.49693e-05
1.50333e-05
1.50715e-05
1.50865e-05
1.50599e-05
1.50206e-05
1.49452e-05
1.48396e-05
1.47348e-05
1.46394e-05
1.45421e-05
1.44409e-05
1.43321e-05
1.42771e-05
1.428e-05
1.4294e-05
1.43593e-05
1.44039e-05
1.44247e-05
1.43672e-05
1.43659e-05
1.41726e-05
1.42513e-05
1.40182e-05
1.42875e-05
1.41749e-05
1.45828e-05
1.49546e-05
1.55776e-05
1.85686e-05
2.1274e-05
2.75802e-05
2.4554e-05