/*--------------------------------*- C++ -*----------------------------------*\
| =========                 |                                                 |
| \\      /  F ield         | OpenFOAM: The Open Source CFD Toolbox           |
|  \\    /   O peration     | Version:  2.3.0                                 |
|   \\  /    A nd           | Web:      www.OpenFOAM.org                      |
|    \\/     M anipulation  |                                                 |
\*---------------------------------------------------------------------------*/
FoamFile
{
    version     2.0;
    format      ascii;
    class       surfaceScalarField;
    location    "15";
    object      phi;
}
// * * * * * * * * * * * * * * * * * * * * * * * * * * * * * * * * * * * * * //

dimensions      [0 3 -1 0 0 0 0];

internalField   nonuniform List<scalar> 
16448
(
-1.29055e-06
-3.01808e-06
8.96786e-07
8.3841e-07
-2.92316e-06
7.942e-07
1.3726e-06
-1.42786e-06
8.93665e-07
1.91838e-06
-1.3021e-06
7.5631e-07
1.70159e-06
-3.21077e-07
5.37861e-07
1.57679e-06
-3.18493e-07
4.43288e-07
1.20885e-06
-9.3472e-08
4.61406e-07
9.10083e-07
-2.17686e-07
5.16441e-07
4.55787e-07
-2.05506e-07
6.59795e-07
5.44719e-08
-2.74387e-07
6.75696e-07
-2.91666e-07
-3.06114e-07
6.52247e-07
-4.6056e-07
-3.94167e-07
5.63055e-07
-4.74163e-07
-4.82365e-07
4.95962e-07
-3.95032e-07
-5.42854e-07
4.63717e-07
-3.01183e-07
-5.67841e-07
4.73985e-07
-2.1479e-07
-5.7783e-07
4.91429e-07
-1.4965e-07
-5.7962e-07
5.14472e-07
-1.01014e-07
-5.79431e-07
5.30786e-07
-6.76145e-08
-5.77828e-07
5.44418e-07
-4.45207e-08
-5.7545e-07
5.52347e-07
-2.9476e-08
-5.72614e-07
5.57559e-07
-1.97711e-08
-5.69161e-07
5.59446e-07
-1.4135e-08
-5.65351e-07
5.59704e-07
-1.12475e-08
-5.61044e-07
5.58145e-07
-1.04848e-08
-5.56423e-07
5.55649e-07
-1.14468e-08
-5.51346e-07
5.52297e-07
-1.38171e-08
-5.45931e-07
5.4829e-07
-1.7467e-08
-5.4004e-07
5.43678e-07
-2.20814e-08
-5.33696e-07
5.38298e-07
-2.75685e-08
-5.26643e-07
5.32118e-07
-3.33045e-08
-5.18758e-07
5.24482e-07
-3.89303e-08
-5.09781e-07
5.15395e-07
-4.26738e-08
-4.99639e-07
5.0337e-07
-4.31112e-08
-4.88236e-07
4.8866e-07
-3.51874e-08
-4.76743e-07
4.68807e-07
-1.49718e-08
-4.65577e-07
4.45348e-07
2.47369e-08
-4.55862e-07
4.1614e-07
8.65166e-08
-4.48892e-07
3.87099e-07
1.71182e-07
-4.46683e-07
3.62005e-07
2.63043e-07
-4.50288e-07
3.58413e-07
3.29601e-07
-4.5545e-07
3.88879e-07
3.30191e-07
-4.68289e-07
4.67685e-07
2.14739e-07
-4.78492e-07
5.9393e-07
-3.03851e-08
-4.98856e-07
7.43967e-07
-3.59923e-07
-5.46484e-07
8.76008e-07
-7.54984e-07
-5.92947e-07
9.87997e-07
-1.24993e-06
-6.62356e-07
1.15729e-06
-1.95058e-06
-6.71449e-07
1.37209e-06
-2.97077e-06
-4.64294e-07
1.48448e-06
-3.86668e-06
-5.69217e-07
1.46513e-06
-1.72796e-06
-3.88107e-06
1.74235e-06
2.12518e-06
-6.24764e-06
2.39449e-06
4.77229e-06
-6.06001e-06
3.4129e-06
7.73674e-06
-6.75066e-06
3.78619e-06
9.60737e-06
-6.77559e-06
4.90495e-06
1.22051e-05
-7.24448e-06
4.64675e-06
9.82319e-06
-5.38047e-06
7.76231e-06
1.17618e-05
-6.75754e-06
4.81874e-06
-1.00865e-05
4.13573e-06
1.77121e-05
4.21136e-07
-5.76056e-06
-4.74744e-06
2.22692e-05
-1.93543e-05
-2.49371e-06
2.75925e-05
-9.46363e-06
4.14033e-06
2.31006e-05
-6.24383e-07
5.11625e-06
2.40792e-05
-4.44828e-06
3.46965e-06
2.32955e-05
-1.49388e-06
2.27759e-06
2.29552e-05
-1.31631e-06
1.65665e-06
2.27675e-05
-1.8659e-06
2.05359e-06
2.1818e-05
-1.91977e-06
2.86923e-06
2.07625e-05
-3.3429e-06
4.39845e-06
1.77406e-05
-3.11714e-06
6.13903e-06
1.35919e-05
-3.63086e-06
7.77954e-06
1.18108e-05
-6.6782e-06
8.45933e-06
1.25783e-05
-8.88726e-06
8.11976e-06
1.36803e-05
-8.47698e-06
7.37493e-06
1.49592e-05
-7.80295e-06
6.5241e-06
1.56234e-05
-6.31609e-06
5.65182e-06
1.58195e-05
-5.09427e-06
4.89819e-06
1.58415e-05
-4.10203e-06
4.08e-06
1.47566e-05
-2.04884e-06
3.13378e-06
1.14574e-05
1.15062e-06
2.14857e-06
6.39764e-06
3.1457e-06
1.91407e-06
2.41219e-06
2.4396e-06
1.54585e-06
2.41555e-06
6.77194e-08
-7.10777e-08
7.86281e-06
8.0483e-08
-5.52774e-06
1.49145e-05
9.93989e-07
-8.04571e-06
1.98525e-05
1.39918e-06
-6.33713e-06
2.24711e-05
2.18243e-06
-4.80106e-06
2.176e-05
1.66896e-06
-9.57835e-07
1.69204e-05
5.59271e-08
4.78364e-06
1.06213e-05
2.78917e-07
6.02019e-06
5.30423e-06
1.32164e-06
3.99542e-06
2.0857e-06
1.04586e-06
2.17266e-06
2.09574e-07
9.97475e-08
1.77638e-06
-6.73905e-07
-1.20693e-06
2.09041e-06
1.3564e-07
-3.05257e-06
2.24303e-06
-2.35561e-06
2.49125e-06
-3.55846e-06
-4.65331e-06
9.74329e-08
-1.83238e-06
-4.57231e-06
-7.69337e-08
-9.31398e-07
-2.85155e-06
5.22702e-07
2.44954e-07
-2.74531e-06
2.66844e-07
7.74294e-07
-8.91177e-07
4.07475e-08
9.81992e-07
-5.95176e-07
6.89716e-08
7.67451e-07
6.2364e-08
5.86937e-08
4.58735e-07
-9.78869e-08
1.88906e-07
5.97999e-08
-4.80021e-08
2.41421e-07
-3.01539e-07
-1.89164e-07
2.76107e-07
-5.89441e-07
-2.41601e-07
2.2338e-07
-6.91128e-07
-4.18934e-07
1.26446e-07
-6.48356e-07
-5.7978e-07
5.46329e-08
-5.29418e-07
-6.80841e-07
1.90379e-08
-4.0682e-07
-7.10242e-07
1.97906e-08
-3.00305e-07
-7.13112e-07
2.87538e-08
-2.20716e-07
-7.01548e-07
4.23254e-08
-1.61939e-07
-6.89809e-07
5.1586e-08
-1.21224e-07
-6.76794e-07
5.82368e-08
-9.31792e-08
-6.6511e-07
6.15986e-08
-7.48553e-08
-6.54097e-07
6.31421e-08
-6.32696e-08
-6.43686e-07
6.29219e-08
-5.65455e-08
-6.33714e-07
6.16208e-08
-5.30337e-08
-6.23838e-07
5.92635e-08
-5.19187e-08
-6.13965e-07
5.64075e-08
-5.2544e-08
-6.03847e-07
5.31059e-08
-5.44561e-08
-5.93507e-07
4.94676e-08
-5.73176e-08
-5.82687e-07
4.54874e-08
-6.06147e-08
-5.71457e-07
4.10376e-08
-6.40159e-08
-5.59317e-07
3.60531e-08
-6.65356e-08
-5.46404e-07
3.01435e-08
-6.76028e-08
-5.32004e-07
2.32673e-08
-6.4992e-08
-5.1707e-07
1.47973e-08
-5.80696e-08
-5.00515e-07
5.33318e-09
-3.93865e-08
-4.84658e-07
-1.07917e-08
-5.2168e-09
-4.69312e-07
-3.04587e-08
5.0683e-08
-4.60285e-07
-5.15017e-08
1.2819e-07
-4.57482e-07
-6.89423e-08
2.22987e-07
-4.63794e-07
-7.77109e-08
3.20278e-07
-4.80453e-07
-6.71525e-08
3.91854e-07
-5.01772e-07
-2.52802e-08
4.07181e-07
-5.27301e-07
4.36589e-08
3.13863e-07
-5.27585e-07
1.42385e-07
8.89721e-08
-5.1602e-07
2.42028e-07
-2.51061e-07
-5.36417e-07
3.2994e-07
-6.55033e-07
-6.02638e-07
4.13639e-07
-1.53296e-06
-4.82586e-07
6.9813e-07
-3.18938e-06
-1.43615e-07
1.12857e-06
-4.49153e-06
-1.06457e-07
9.44298e-07
-3.44385e-06
-1.56511e-06
-5.1799e-08
7.05665e-07
-7.49547e-06
-5.35133e-07
4.46202e-06
-1.0045e-05
4.0935e-08
7.94006e-06
-1.0143e-05
6.04879e-07
1.30506e-05
-1.20147e-05
1.53487e-07
1.696e-05
-1.25687e-05
1.8836e-06
2.30775e-05
-1.33854e-05
2.34849e-08
2.20535e-05
-9.54166e-06
5.18511e-06
2.26993e-05
-1.0311e-05
2.90747e-06
-3.36152e-06
8.8301e-07
2.93128e-05
9.32863e-07
-7.25605e-06
-2.79929e-06
9.70988e-06
-2.16875e-05
-6.44382e-06
5.04882e-06
-1.19093e-05
7.10669e-06
4.33343e-06
-1.97905e-06
2.07005e-06
-7.40817e-07
-1.33437e-06
1.96034e-06
-4.03066e-06
1.25305e-06
5.42914e-07
-7.59979e-06
1.14136e-06
1.11146e-06
-1.00933e-05
-3.39179e-06
4.01942e-06
-1.13762e-05
-5.80679e-06
5.16986e-06
-1.0846e-05
-1.00361e-05
6.16307e-06
-9.08393e-06
-1.20367e-05
7.15744e-06
-6.55526e-06
-1.33045e-05
7.145e-06
-4.90963e-06
-1.46006e-05
6.27679e-06
-3.15409e-06
-1.55291e-05
4.88631e-06
-1.03554e-06
-1.42204e-05
3.6249e-06
7.31735e-07
-1.25302e-05
2.95994e-06
1.34312e-06
-1.01058e-05
3.17833e-06
1.33184e-06
-7.97064e-06
2.88765e-06
9.10571e-07
-6.37339e-06
2.69263e-06
3.36333e-07
-3.54525e-06
2.07065e-06
-2.94857e-08
7.45432e-07
7.71006e-07
-4.46579e-07
3.4129e-06
1.49892e-07
8.04e-07
2.94978e-06
-1.76075e-06
3.86703e-06
1.58166e-06
-4.57697e-06
1.04753e-05
4.13753e-06
-1.06654e-05
1.68504e-05
5.96007e-06
-1.13411e-05
2.1136e-05
6.02555e-06
-8.91198e-06
2.29899e-05
6.35221e-06
-6.0237e-06
2.19971e-05
3.80135e-06
-1.13966e-06
1.65381e-05
1.04916e-06
4.46584e-06
1.02162e-05
1.32405e-06
5.27676e-06
6.70625e-06
1.59075e-06
3.2408e-06
4.80481e-06
1.50453e-06
1.44277e-06
2.42913e-06
1.1399e-06
1.33552e-06
7.2843e-07
-1.35728e-06
1.85105e-06
1.08405e-06
-4.0003e-06
5.92109e-07
-2.9056e-06
1.63404e-06
-4.98198e-06
-5.30173e-06
-2.045e-07
-3.69777e-06
-5.48452e-06
-3.71993e-07
-2.93387e-06
-3.90298e-06
2.87534e-07
-1.48963e-06
-4.04327e-06
-1.46281e-07
-4.01855e-07
-1.98393e-06
4.96324e-09
2.71202e-07
-1.3535e-06
8.52569e-08
3.64597e-07
8.81268e-08
-1.19167e-07
6.13503e-08
1.225e-07
8.28501e-08
-2.90289e-07
2.5101e-07
5.26181e-08
-5.62826e-07
-8.05889e-09
9.14249e-08
-7.49255e-07
-8.80795e-08
3.28986e-08
-7.85985e-07
-3.18085e-07
-6.41277e-08
-7.19914e-07
-4.91459e-07
-1.54403e-07
-6.05233e-07
-5.89932e-07
-2.056e-07
-4.88756e-07
-5.99335e-07
-2.27396e-07
-3.86854e-07
-5.83466e-07
-2.3156e-07
-3.07537e-07
-5.53536e-07
-2.27343e-07
-2.47912e-07
-5.26068e-07
-2.2338e-07
-2.05236e-07
-4.99126e-07
-2.2036e-07
-1.75405e-07
-4.75576e-07
-2.19381e-07
-1.55278e-07
-4.5431e-07
-2.1993e-07
-1.42135e-07
-4.35261e-07
-2.21586e-07
-1.33937e-07
-4.18031e-07
-2.23898e-07
-1.29117e-07
-4.0188e-07
-2.26796e-07
-1.26789e-07
-3.8637e-07
-2.29942e-07
-1.2627e-07
-3.71155e-07
-2.3323e-07
-1.27197e-07
-3.5606e-07
-2.3654e-07
-1.29122e-07
-3.40826e-07
-2.39955e-07
-1.31343e-07
-3.25697e-07
-2.4356e-07
-1.33282e-07
-3.10021e-07
-2.47377e-07
-1.34123e-07
-2.93974e-07
-2.51611e-07
-1.32761e-07
-2.77134e-07
-2.56253e-07
-1.27428e-07
-2.6082e-07
-2.61604e-07
-1.16117e-07
-2.44393e-07
-2.67455e-07
-9.60376e-08
-2.31115e-07
-2.73646e-07
-6.69798e-08
-2.19288e-07
-2.79104e-07
-3.17368e-08
-2.13678e-07
-2.81873e-07
2.33322e-09
-2.1153e-07
-2.80046e-07
2.26176e-08
-2.16626e-07
-2.67477e-07
1.63919e-08
-2.32326e-07
-2.41926e-07
-2.55523e-08
-2.59152e-07
-2.00701e-07
-1.06403e-07
-2.96129e-07
-1.50346e-07
-2.33404e-07
-3.09478e-07
-9.11316e-08
-4.38377e-07
-2.66274e-07
-4.47976e-08
-7.4969e-07
-2.33832e-07
8.70308e-09
-1.11701e-06
-3.27538e-07
9.2201e-08
-1.76246e-06
-2.00818e-07
3.63652e-07
-2.997e-06
3.58017e-07
7.32891e-07
-3.84194e-06
2.68558e-07
4.69909e-07
-1.05487e-06
-2.88924e-06
-1.46295e-06
2.99402e-06
-9.48337e-06
-2.06101e-06
6.11796e-06
-1.13675e-05
-1.80143e-06
1.06442e-05
-1.26727e-05
-1.9965e-06
1.64028e-05
-1.61841e-05
-1.58921e-06
2.123e-05
-1.56265e-05
-1.76944e-06
2.85996e-05
-1.8617e-05
-2.13803e-06
3.03026e-05
-1.04079e-05
-8.36729e-07
2.81543e-05
-1.62674e-05
8.1045e-06
-1.10915e-06
-1.23525e-06
3.13807e-05
2.56241e-07
-5.40369e-06
-3.21792e-06
5.87899e-06
-1.77889e-05
-9.52142e-06
1.62017e-06
-1.17152e-05
4.0648e-06
5.21456e-06
-5.11539e-06
-4.58051e-07
-3.46908e-06
3.56679e-06
3.78249e-06
-7.62696e-06
3.36828e-06
2.04264e-06
-1.13598e-05
1.92198e-06
2.95218e-06
-1.38765e-05
-2.94465e-06
2.06962e-06
-1.62088e-05
-5.75686e-06
2.28233e-06
-1.75644e-05
-1.06975e-05
2.01701e-06
-1.68918e-05
-1.37516e-05
1.04233e-06
-1.43035e-05
-1.56659e-05
-2.2703e-07
-1.17982e-05
-1.61637e-05
-9.42157e-07
-8.96775e-06
-1.61767e-05
-2.18283e-06
-5.99895e-06
-1.40958e-05
-3.09338e-06
-4.25434e-06
-1.1375e-05
-2.89975e-06
-4.17303e-06
-8.82344e-06
-1.36367e-06
-5.06461e-06
-6.26598e-06
-8.13082e-07
-6.40842e-06
-4.62539e-06
-4.04189e-07
-7.43027e-06
-2.80148e-06
2.7808e-07
-7.20946e-06
2.20094e-07
3.04533e-07
-5.76529e-06
2.69925e-06
-7.30512e-07
-1.61276e-06
2.52803e-06
-3.73078e-06
4.46825e-06
5.49261e-06
-9.99197e-06
1.18115e-05
1.1301e-05
-1.45067e-05
1.83509e-05
1.20251e-05
-1.26045e-05
2.17739e-05
1.13938e-05
-8.79119e-06
2.27633e-05
9.58114e-06
-4.21839e-06
2.08336e-05
4.18219e-06
1.5489e-06
1.38618e-05
2.68991e-06
5.33106e-06
6.72832e-06
3.82092e-06
4.63661e-06
3.40979e-06
2.76434e-06
2.14495e-06
1.61708e-06
1.93126e-06
1.36598e-06
-2.50542e-07
1.50322e-06
1.5043e-06
-1.17987e-06
-1.32439e-06
8.96438e-07
2.20295e-07
-3.55099e-06
-1.84947e-06
-3.1571e-06
4.71803e-07
-5.52474e-06
-5.50029e-06
-1.83475e-07
-4.125e-06
-5.90348e-06
-9.8079e-07
-3.75986e-06
-4.31921e-06
5.11007e-08
-2.65412e-06
-4.6875e-06
-4.61515e-07
-1.88015e-06
-2.77862e-06
2.07118e-08
-7.63869e-07
-2.46591e-06
-3.88418e-09
9.34381e-09
-5.60324e-07
-1.24771e-07
-3.2611e-08
1.86298e-08
1.45817e-07
-3.01142e-07
4.37477e-07
8.20562e-08
-5.64625e-07
1.71001e-07
8.4415e-08
-6.89032e-07
2.61756e-08
1.01433e-08
-6.96314e-07
-2.19011e-07
-9.18009e-08
-6.55789e-07
-3.41742e-07
-1.90252e-07
-5.85432e-07
-4.09346e-07
-2.50953e-07
-5.05041e-07
-3.89842e-07
-2.89896e-07
-4.22974e-07
-3.53972e-07
-3.11574e-07
-3.515e-07
-3.0545e-07
-3.19574e-07
-2.94059e-07
-2.61849e-07
-3.21675e-07
-2.50198e-07
-2.21329e-07
-3.21674e-07
-2.1886e-07
-1.85533e-07
-3.21397e-07
-1.973e-07
-1.54283e-07
-3.21604e-07
-1.83064e-07
-1.27101e-07
-3.22414e-07
-1.73942e-07
-1.03325e-07
-3.23846e-07
-1.68449e-07
-8.18864e-08
-3.25506e-07
-1.65411e-07
-6.2034e-08
-3.27393e-07
-1.64055e-07
-4.30623e-08
-3.29468e-07
-1.64079e-07
-2.45789e-08
-3.31477e-07
-1.65345e-07
-6.12702e-09
-3.33453e-07
-1.66648e-07
1.1039e-08
-3.35453e-07
-1.66622e-07
2.75317e-08
-3.376e-07
-1.64819e-07
4.43098e-08
-3.40108e-07
-1.59634e-07
6.09571e-08
-3.43298e-07
-1.50586e-07
7.67791e-08
-3.4667e-07
-1.36396e-07
9.13388e-08
-3.49945e-07
-1.18753e-07
1.02377e-07
-3.51157e-07
-1.01209e-07
1.11492e-07
-3.48349e-07
-9.33924e-08
1.16627e-07
-3.38145e-07
-1.10304e-07
1.23818e-07
-3.1846e-07
-1.67593e-07
1.30261e-07
-2.89622e-07
-2.73754e-07
1.3204e-07
-2.58229e-07
-4.2191e-07
1.18774e-07
-2.29795e-07
-5.80958e-07
8.01944e-08
-2.173e-07
-7.35381e-07
5.95776e-08
-2.14658e-07
-9.60133e-07
1.45289e-07
-1.86836e-07
-1.41566e-06
3.0657e-07
-8.48973e-08
-2.03222e-06
2.23228e-07
6.57697e-08
-2.6059e-06
1.1451e-07
2.58331e-07
-3.03816e-06
5.2165e-07
2.68609e-07
-2.18971e-06
-3.76558e-08
-5.42258e-07
1.7353e-06
-4.40184e-06
-2.41243e-06
5.6873e-06
-1.0912e-05
-2.52342e-06
9.7188e-06
-1.3084e-05
-2.31506e-06
1.51138e-05
-1.57064e-05
-2.36141e-06
2.05756e-05
-2.02089e-05
-1.43702e-06
2.48493e-05
-1.8096e-05
-1.80429e-06
3.20587e-05
-2.39241e-05
-1.90233e-06
3.12665e-05
-8.1755e-06
-1.44015e-06
2.73452e-05
-1.73356e-05
4.98933e-06
-4.14958e-07
2.53846e-06
2.39851e-05
7.2299e-07
-2.20949e-06
-4.33239e-06
6.44653e-06
-1.36513e-05
-9.86102e-06
-3.16909e-06
-6.52911e-06
4.42953e-06
-9.83132e-06
5.83321e-07
9.63535e-07
-1.64498e-05
6.84827e-06
3.33699e-06
-1.95436e-05
5.00133e-06
1.4608e-06
-2.16645e-05
3.54725e-06
4.95733e-07
-2.3602e-05
-5.57913e-07
-4.49238e-07
-2.55999e-05
-4.09407e-06
3.35114e-07
-2.6344e-05
-8.49376e-06
-1.45964e-06
-2.57166e-05
-1.21979e-05
-2.18111e-06
-2.36334e-05
-1.46406e-05
-3.10836e-06
-2.09924e-05
-1.57131e-05
-3.09168e-06
-1.7126e-05
-1.5528e-05
-4.51507e-06
-1.27828e-05
-1.33856e-05
-5.05349e-06
-9.93144e-06
-9.96288e-06
-4.26346e-06
-9.98646e-06
-7.91955e-06
-8.48875e-07
-1.1655e-05
-6.512e-06
1.91454e-06
-1.32852e-05
-5.23557e-06
2.24042e-06
-1.42946e-05
-3.20453e-06
1.41238e-06
-1.37072e-05
1.18509e-06
-1.55231e-06
-9.78978e-06
4.86133e-06
-6.07954e-06
-4.44895e-06
8.83214e-06
-1.16449e-05
2.37348e-06
1.48771e-05
-1.6207e-05
1.06472e-05
1.76489e-05
-1.46217e-05
1.71374e-05
1.57922e-05
-1.02573e-05
2.00839e-05
1.40803e-05
-5.63296e-06
2.09797e-05
9.18952e-06
-5.04196e-07
1.64177e-05
4.18747e-06
4.55672e-06
7.16541e-06
5.92846e-06
6.01378e-06
1.01712e-06
6.95284e-06
3.01637e-06
-2.64333e-07
4.73855e-06
-6.9276e-07
-1.10783e-06
3.74733e-06
-9.72572e-07
-2.52789e-06
2.87388e-06
4.94017e-08
-2.69065e-06
2.96992e-07
-1.45862e-06
-1.07653e-06
-2.13358e-06
-3.03154e-06
-2.36673e-06
-1.86691e-06
-5.84692e-06
-5.28207e-06
-1.81113e-07
-4.34496e-06
-6.02687e-06
-1.37857e-06
-4.11754e-06
-4.41186e-06
-1.34765e-07
-2.93111e-06
-4.8826e-06
-9.9134e-07
-2.43466e-06
-2.87687e-06
-3.98199e-07
-1.48078e-06
-3.05767e-06
-3.62116e-07
-7.01413e-07
-1.23389e-06
-1.05803e-07
-3.23843e-07
-4.39147e-07
8.02006e-08
-2.90094e-07
3.61941e-07
4.17808e-08
-4.13249e-07
2.73869e-07
2.02793e-08
-4.33286e-07
1.2069e-07
-7.44848e-08
-4.42548e-07
-7.42739e-08
-1.35484e-07
-4.61926e-07
-1.25491e-07
-1.96884e-07
-4.60884e-07
-1.75419e-07
-2.3498e-07
-4.41561e-07
-1.3432e-07
-2.74857e-07
-3.98755e-07
-9.12545e-08
-3.05535e-07
-3.4846e-07
-3.30749e-08
-3.22683e-07
-3.00371e-07
2.10932e-08
-3.31044e-07
-2.61163e-07
7.39586e-08
-3.3451e-07
-2.31457e-07
1.19683e-07
-3.34938e-07
-2.10401e-07
1.58345e-07
-3.337e-07
-1.96217e-07
1.90778e-07
-3.3208e-07
-1.87411e-07
2.18304e-07
-3.30452e-07
-1.82349e-07
2.41477e-07
-3.28442e-07
-1.79767e-07
2.61483e-07
-3.26118e-07
-1.78797e-07
2.79539e-07
-3.2359e-07
-1.788e-07
2.96505e-07
-3.211e-07
-1.78844e-07
3.12531e-07
-3.18634e-07
-1.79319e-07
3.27629e-07
-3.16135e-07
-1.79816e-07
3.41768e-07
-3.13758e-07
-1.79186e-07
3.54767e-07
-3.11107e-07
-1.75885e-07
3.65684e-07
-3.08049e-07
-1.69701e-07
3.74295e-07
-3.03721e-07
-1.61184e-07
3.80175e-07
-2.97375e-07
-1.55042e-07
3.82885e-07
-2.86672e-07
-1.57999e-07
3.84299e-07
-2.69872e-07
-1.78414e-07
3.83373e-07
-2.46353e-07
-2.27242e-07
3.88893e-07
-2.1627e-07
-3.12716e-07
4.00724e-07
-1.85011e-07
-4.36899e-07
4.17113e-07
-1.60913e-07
-5.93997e-07
4.27992e-07
-1.52143e-07
-7.68962e-07
4.21413e-07
-1.66276e-07
-9.652e-07
4.41779e-07
-1.85986e-07
-1.28122e-06
6.10502e-07
-1.49215e-07
-1.87983e-06
9.02014e-07
3.14589e-09
-2.55761e-06
7.98799e-07
1.02187e-07
-2.70865e-06
2.29277e-07
3.6262e-08
-2.00481e-06
2.50659e-07
-4.32863e-07
4.66268e-07
-4.86707e-07
-2.02205e-06
5.07434e-06
-5.65667e-06
-3.35325e-06
8.84724e-06
-1.20557e-05
-2.62921e-06
1.24799e-05
-1.34165e-05
-3.30015e-06
1.56588e-05
-1.51274e-05
-3.75786e-06
1.58881e-05
-1.80675e-05
-2.37079e-06
1.55891e-05
-1.43424e-05
-3.45455e-06
1.3774e-05
-2.16443e-05
-4.6472e-07
1.52984e-05
-4.96299e-06
-4.73665e-06
1.47686e-05
-1.52789e-05
-1.52749e-06
-6.18187e-07
1.91896e-06
1.60046e-05
1.00869e-06
6.83704e-07
-4.52034e-06
5.19077e-06
-7.9306e-06
-9.90259e-06
-7.16095e-06
7.39045e-07
5.0838e-06
-1.66713e-05
7.51797e-06
2.57598e-06
-2.3929e-05
1.14917e-05
2.61454e-06
-2.75724e-05
1.01729e-05
-1.52793e-06
-2.92969e-05
7.95829e-06
-2.68627e-06
-2.98403e-05
3.86998e-06
-3.88416e-06
-3.0464e-05
5.6812e-07
-4.03829e-06
-3.06691e-05
-4.01738e-06
-4.27102e-06
-3.10927e-05
-8.09039e-06
-3.68375e-06
-3.05017e-05
-1.15935e-05
-3.63807e-06
-2.93653e-05
-1.37721e-05
-3.07725e-06
-2.71387e-05
-1.49622e-05
-2.79237e-06
-2.37806e-05
-1.44663e-05
-2.27732e-06
-2.09567e-05
-1.16845e-05
-1.10229e-06
-2.02654e-05
-8.05814e-06
-5.52659e-07
-2.13553e-05
-5.02522e-06
-3.96877e-07
-2.267e-05
-2.47637e-06
-1.44457e-06
-2.22935e-05
4.12955e-07
-3.99393e-06
-1.94716e-05
5.55032e-06
-7.18712e-06
-1.46801e-05
1.11932e-05
-1.11234e-05
-8.28298e-06
1.57814e-05
-1.33464e-05
1.31275e-08
1.91915e-05
-1.26105e-05
8.78724e-06
1.89294e-05
-1.00546e-05
1.4986e-05
1.56114e-05
-6.01799e-06
1.77862e-05
1.20125e-05
-7.32425e-07
1.60854e-05
7.12355e-06
3.76683e-06
8.30785e-06
6.02502e-06
5.93996e-06
2.0556e-06
8.7497e-06
3.43101e-06
-1.90994e-07
8.72788e-06
4.71556e-07
-7.38742e-07
7.5594e-06
-2.27309e-06
-9.72204e-07
7.28244e-06
-3.30165e-06
-1.1113e-06
6.17219e-06
-3.15921e-06
-1.71246e-06
4.22285e-06
-3.3247e-06
-2.13578e-06
2.33616e-06
-4.04641e-06
4.24912e-07
-4.92742e-06
-6.3132e-06
-4.71895e-06
-1.03736e-07
-4.63365e-06
-6.16153e-06
-1.54489e-06
-4.44282e-06
-4.1611e-06
-4.41583e-07
-2.9069e-06
-4.90105e-06
-1.51747e-06
-2.47382e-06
-2.45317e-06
-8.56784e-07
-1.65033e-06
-2.94213e-06
-9.39034e-07
-1.14282e-06
-1.28842e-06
-4.52979e-07
-6.97545e-07
-8.48898e-07
-3.5532e-08
-4.98294e-07
1.85848e-07
-2.31627e-08
-3.64896e-07
2.18801e-07
-7.83358e-08
-1.44302e-07
1.39348e-07
-2.39259e-07
-9.46375e-08
1.14167e-07
-2.38113e-07
-1.6462e-07
1.95583e-07
-2.511e-07
-2.50284e-07
1.67091e-07
-2.56856e-07
-3.01979e-07
2.047e-07
-2.87334e-07
-3.14403e-07
2.33707e-07
-3.12547e-07
-3.05223e-07
2.89638e-07
-3.31904e-07
-2.86678e-07
3.45e-07
-3.42464e-07
-2.65587e-07
3.98581e-07
-3.45724e-07
-2.48579e-07
4.46959e-07
-3.44296e-07
-2.37246e-07
4.87694e-07
-3.40694e-07
-2.3047e-07
5.20046e-07
-3.36058e-07
-2.27615e-07
5.46055e-07
-3.30619e-07
-2.27495e-07
5.6647e-07
-3.25127e-07
-2.29165e-07
5.82822e-07
-3.19682e-07
-2.31952e-07
5.9649e-07
-3.14178e-07
-2.35223e-07
6.08574e-07
-3.08813e-07
-2.38214e-07
6.19191e-07
-3.03683e-07
-2.41125e-07
6.28598e-07
-2.98073e-07
-2.43405e-07
6.35911e-07
-2.9188e-07
-2.45421e-07
6.41722e-07
-2.84954e-07
-2.4709e-07
6.44695e-07
-2.77358e-07
-2.50198e-07
6.45034e-07
-2.67646e-07
-2.57093e-07
6.42113e-07
-2.55058e-07
-2.73427e-07
6.3749e-07
-2.38286e-07
-3.04168e-07
6.31918e-07
-2.16895e-07
-3.52656e-07
6.24218e-07
-1.92372e-07
-4.18328e-07
6.20596e-07
-1.66047e-07
-4.99426e-07
6.2402e-07
-1.42213e-07
-5.9152e-07
6.35328e-07
-1.26137e-07
-7.03439e-07
6.57675e-07
-1.17777e-07
-8.61028e-07
6.91881e-07
-1.12894e-07
-1.10286e-06
7.71513e-07
-8.79129e-08
-1.50678e-06
1.01405e-06
3.56196e-10
-2.09844e-06
1.3008e-06
1.92873e-07
-2.64534e-06
1.12966e-06
2.16033e-07
-2.21324e-06
-5.62693e-08
-1.46563e-07
-2.48188e-07
-5.4142e-07
-1.17298e-06
3.53244e-06
-1.22012e-06
-3.04723e-06
8.3581e-06
-7.30582e-06
-3.17653e-06
1.11251e-05
-1.22327e-05
-2.58995e-06
1.30659e-05
-1.20246e-05
-3.33276e-06
1.01427e-05
-6.99413e-06
-5.21001e-06
5.68426e-07
-2.05488e-06
-6.43834e-06
-2.22197e-06
-1.16829e-06
-1.03837e-05
-8.7054e-06
-6.16089e-06
-8.99987e-06
4.1099e-06
-2.20274e-07
-1.75574e-05
-3.39879e-06
1.53444e-06
-9.30494e-06
-4.22594e-07
-1.89417e-06
8.34912e-07
2.74836e-07
2.35511e-06
-2.36799e-06
-6.30139e-06
5.87422e-06
-7.22784e-06
-2.1201e-05
8.09983e-06
7.53972e-06
-2.80681e-05
1.46379e-05
-2.51877e-07
-3.057e-05
1.57657e-05
-1.77115e-06
-3.15236e-05
1.61664e-05
-5.03892e-06
-3.06623e-05
1.29362e-05
-5.83836e-06
-2.98434e-05
8.57554e-06
-5.52368e-06
-2.84722e-05
3.46518e-06
-4.26758e-06
-2.92071e-05
-5.30183e-07
-2.75169e-06
-3.14255e-05
-3.93201e-06
-1.93946e-06
-3.31628e-05
-7.86134e-06
-1.99437e-06
-3.28717e-05
-1.1973e-05
-2.08979e-06
-3.19502e-05
-1.36983e-05
-2.18516e-06
-3.06015e-05
-1.34307e-05
-2.38391e-06
-2.92816e-05
-1.09045e-05
-2.09978e-06
-2.88867e-05
-6.55214e-06
-1.90068e-06
-2.92276e-05
-2.70485e-06
-1.97929e-06
-2.99716e-05
9.61337e-07
-2.69355e-06
-2.85583e-05
2.87593e-06
-3.87618e-06
-2.43115e-05
6.55465e-06
-5.2511e-06
-1.77969e-05
1.09119e-05
-6.23326e-06
-9.5779e-06
1.4377e-05
-6.81456e-06
-6.29586e-07
1.56236e-05
-5.38038e-06
7.49237e-06
1.37858e-05
-2.97837e-06
1.22084e-05
1.07248e-05
1.70516e-07
1.27231e-05
7.99153e-06
3.50635e-06
7.88092e-06
8.12561e-06
3.84012e-06
4.8203e-07
1.14516e-05
1.97232e-06
-4.31885e-06
1.37541e-05
-2.0352e-07
-5.70347e-06
1.17824e-05
-1.66994e-06
-6.31871e-06
1.02274e-05
-2.05271e-06
-6.42706e-06
9.60058e-06
-2.20977e-06
-5.89593e-06
9.21851e-06
-3.57743e-06
-6.01391e-06
8.48702e-06
-4.14619e-06
-5.03764e-06
5.94046e-06
-4.58056e-06
1.04768e-06
-5.66041e-06
-6.8016e-06
-4.042e-06
4.41334e-07
-4.83368e-06
-6.00586e-06
-2.12358e-06
-4.66212e-06
-3.44862e-06
-8.84046e-07
-2.89172e-06
-4.46318e-06
-2.20827e-06
-2.44599e-06
-1.65595e-06
-1.24294e-06
-1.49409e-06
-2.43358e-06
-1.46046e-06
-1.08523e-06
-6.87513e-07
-1.00977e-06
-8.17507e-07
-7.38768e-07
-3.7785e-07
-6.48671e-07
2.83244e-07
-2.66234e-07
-4.17491e-07
2.35446e-07
-2.47827e-07
-3.31849e-08
2.14883e-07
-4.59846e-07
1.18338e-07
3.58518e-07
-3.95878e-07
6.22403e-08
5.75755e-07
-3.24079e-07
-6.46411e-08
5.7138e-07
-2.77413e-07
-1.57636e-07
5.93532e-07
-2.95843e-07
-2.19416e-07
6.04666e-07
-3.09184e-07
-2.58567e-07
6.51844e-07
-3.23061e-07
-2.7976e-07
6.95986e-07
-3.298e-07
-2.89982e-07
7.41123e-07
-3.32326e-07
-2.94866e-07
7.81725e-07
-3.29888e-07
-2.99881e-07
8.13429e-07
-3.20727e-07
-3.05426e-07
8.36617e-07
-3.11033e-07
-3.11287e-07
8.53748e-07
-3.01839e-07
-3.17035e-07
8.65374e-07
-2.93163e-07
-3.22488e-07
8.73377e-07
-2.8511e-07
-3.27467e-07
8.79084e-07
-2.77622e-07
-3.32063e-07
8.83522e-07
-2.7036e-07
-3.36365e-07
8.8676e-07
-2.63274e-07
-3.40749e-07
8.88928e-07
-2.55954e-07
-3.45491e-07
8.88676e-07
-2.4803e-07
-3.52229e-07
8.87287e-07
-2.38835e-07
-3.62024e-07
8.83066e-07
-2.28584e-07
-3.76437e-07
8.76045e-07
-2.16605e-07
-3.97692e-07
8.65231e-07
-2.0187e-07
-4.29841e-07
8.53894e-07
-1.84262e-07
-4.73639e-07
8.41184e-07
-1.65473e-07
-5.26528e-07
8.25687e-07
-1.48585e-07
-5.77826e-07
8.08211e-07
-1.36321e-07
-6.17048e-07
7.91928e-07
-1.28691e-07
-6.4339e-07
7.8707e-07
-1.25403e-07
-6.76834e-07
8.09956e-07
-1.18842e-07
-7.79299e-07
8.91889e-07
-9.75432e-08
-1.00703e-06
1.0453e-06
-4.60557e-08
-1.42156e-06
1.34788e-06
8.07031e-08
-1.94242e-06
1.55496e-06
2.66692e-07
-2.09546e-06
1.06069e-06
2.2201e-07
-9.24042e-07
-7.45457e-07
-4.82223e-07
1.84317e-06
-1.52681e-06
-1.78182e-06
6.11646e-06
-2.84323e-06
-2.65018e-06
9.66407e-06
-8.22894e-06
-2.62449e-06
8.27016e-06
-7.47575e-06
-3.36306e-06
3.63837e-06
-9.05359e-07
-6.48749e-06
-1.22226e-06
7.68116e-06
-9.81464e-06
-5.99213e-06
1.25407e-05
-9.82569e-06
-3.91146e-06
7.99498e-06
-1.12439e-05
-7.71108e-06
5.68327e-06
-8.04435e-06
8.05227e-06
-2.98338e-06
-1.29996e-05
9.81849e-06
1.39275e-05
-1.41595e-05
-8.37988e-07
1.21077e-05
-3.34724e-06
2.13016e-07
4.25006e-06
-2.94529e-06
-3.80111e-06
1.81679e-05
-8.27849e-06
-2.15198e-05
1.69649e-05
8.85492e-06
-2.75193e-05
2.20122e-05
-1.37374e-06
-2.77025e-05
1.92249e-05
-3.27484e-06
-2.562e-05
2.02682e-05
-6.18321e-06
-1.96741e-05
1.30834e-05
-6.09239e-06
-1.49284e-05
5.64397e-06
-1.81335e-06
-1.18852e-05
5.6999e-07
-1.4741e-07
-1.17937e-05
-1.72603e-06
1.10506e-06
-1.56517e-05
-2.49499e-06
2.42164e-06
-2.18684e-05
-3.93908e-06
2.29506e-06
-2.74243e-05
-8.02924e-06
1.61283e-06
-3.08137e-05
-1.13571e-05
1.04893e-06
-3.20172e-05
-1.21315e-05
-9.50824e-08
-3.18724e-05
-1.01745e-05
-8.74237e-07
-3.20262e-05
-5.2182e-06
-1.17957e-06
-3.17762e-05
-1.60589e-06
-1.34849e-06
-3.05514e-05
1.34302e-06
-1.60599e-06
-2.8549e-05
2.74537e-06
-1.8714e-06
-2.43991e-05
4.76799e-06
-2.36286e-06
-1.82692e-05
7.48337e-06
-2.70101e-06
-1.02498e-05
8.67227e-06
-2.31442e-06
-1.97821e-06
8.3418e-06
-9.89691e-07
3.06088e-06
8.01126e-06
7.35593e-07
3.66447e-06
7.80829e-06
2.31309e-06
-7.70485e-08
9.8754e-06
1.8578e-06
-5.41261e-06
1.24578e-05
1.00355e-06
-8.25466e-06
1.35945e-05
6.99344e-07
-8.72116e-06
1.31103e-05
1.1105e-06
-8.32514e-06
9.9711e-06
1.41545e-06
-7.85533e-06
7.87975e-06
1.8779e-06
-7.82592e-06
7.3647e-06
2.20656e-06
-8.00821e-06
7.43736e-06
1.96351e-06
-8.5612e-06
6.60173e-06
2.43835e-06
-5.97912e-06
6.38347e-07
2.72006e-06
-6.46674e-06
1.53531e-06
-6.74198e-06
-3.11339e-06
1.14773e-06
-4.48644e-06
-5.43261e-06
-2.82879e-06
-4.40833e-06
-2.05127e-06
-1.47545e-06
-2.95697e-06
-3.50091e-06
-2.41361e-06
-2.7024e-06
-4.69573e-07
-1.44095e-06
-1.41265e-06
-1.55187e-06
-2.17145e-06
-8.7665e-07
2.85255e-07
-1.50877e-06
-6.9673e-07
-1.58948e-07
-7.59738e-07
-5.84434e-07
7.0071e-07
-5.29761e-07
-4.44525e-07
5.23755e-07
-4.28219e-07
-7.03702e-08
5.01792e-07
-6.61064e-07
8.42275e-08
7.4621e-07
-5.42292e-07
7.87454e-08
1.06059e-06
-4.79359e-07
3.63507e-09
1.04576e-06
-3.9927e-07
-6.11376e-08
1.06899e-06
-4.10683e-07
-1.39004e-07
1.08003e-06
-3.97499e-07
-2.11831e-07
1.13136e-06
-4.06692e-07
-2.71101e-07
1.17406e-06
-4.18804e-07
-3.14967e-07
1.21478e-06
-4.29794e-07
-3.4574e-07
1.25014e-06
-4.3764e-07
-3.66999e-07
1.27959e-06
-4.44905e-07
-3.82813e-07
1.30365e-06
-4.51219e-07
-3.95764e-07
1.32312e-06
-4.56425e-07
-4.07607e-07
1.33874e-06
-4.61521e-07
-4.19441e-07
1.35183e-06
-4.66622e-07
-4.32021e-07
1.36325e-06
-4.71582e-07
-4.45677e-07
1.37337e-06
-4.76192e-07
-4.60776e-07
1.38164e-06
-4.79779e-07
-4.74142e-07
1.38399e-06
-4.81698e-07
-4.85691e-07
1.38314e-06
-4.82915e-07
-4.98082e-07
1.38272e-06
-4.83043e-07
-5.14666e-07
1.38128e-06
-4.81627e-07
-5.38933e-07
1.37935e-06
-4.79033e-07
-5.73872e-07
1.37579e-06
-4.75619e-07
-6.22111e-07
1.37298e-06
-4.70842e-07
-6.81103e-07
1.36746e-06
-4.67286e-07
-7.44375e-07
1.35489e-06
-4.65925e-07
-7.98979e-07
1.33277e-06
-4.69946e-07
-8.33946e-07
1.30612e-06
-4.79219e-07
-8.56817e-07
1.29473e-06
-4.84777e-07
-9.04144e-07
1.32761e-06
-4.70315e-07
-1.04251e-06
1.43685e-06
-4.06585e-07
-1.28494e-06
1.55427e-06
-2.6652e-07
-1.63927e-06
1.74142e-06
-3.91927e-08
-2.01885e-06
1.80388e-06
1.30686e-07
-1.82111e-06
9.5082e-07
-8.78376e-08
-4.44832e-07
-8.08056e-07
-1.31366e-06
1.62108e-06
-1.03481e-06
-2.55789e-06
9.53361e-07
1.04831e-06
-3.2238e-06
-5.267e-06
4.82868e-06
-6.83722e-06
-1.27759e-05
9.26779e-06
-9.23462e-06
-1.74743e-05
1.3867e-05
-1.00739e-05
-1.73574e-05
1.76814e-05
-1.01171e-05
-1.65322e-05
1.89437e-05
-7.22806e-06
-1.85657e-05
1.84053e-05
-8.37662e-06
-2.01741e-05
1.39276e-05
-6.63568e-06
9.99493e-06
-1.78698e-05
-1.52816e-05
2.00772e-05
4.11332e-06
-2.68323e-07
-1.71684e-06
1.61398e-05
1.77598e-05
3.47491e-07
9.60201e-06
-7.4164e-06
-4.05431e-06
3.18583e-05
-9.28794e-06
-2.0328e-05
2.16154e-05
1.16239e-05
-2.28412e-05
2.62692e-05
-1.74315e-06
-1.89636e-05
1.93558e-05
-4.00793e-06
-1.29979e-05
2.23179e-05
-8.01504e-06
-7.52654e-06
1.13374e-05
-3.725e-06
-5.57345e-06
4.28796e-06
-5.96785e-07
-7.18414e-06
1.26929e-06
9.11679e-07
-8.38466e-06
-1.81054e-06
1.28536e-06
-9.08109e-06
-4.26156e-06
2.46338e-06
-1.07093e-05
-6.78333e-06
4.47288e-06
-1.55448e-05
-8.12178e-06
4.92857e-06
-2.22659e-05
-1.06316e-05
5.99624e-06
-2.84937e-05
-1.08723e-05
4.96925e-06
-3.16365e-05
-9.34437e-06
2.31349e-06
-3.42669e-05
-2.94127e-06
3.54337e-07
-3.6099e-05
4.44011e-07
-2.17035e-07
-3.55718e-05
2.74951e-06
-1.93277e-06
-3.40656e-05
4.04508e-06
-2.80523e-06
-3.12284e-05
4.30432e-06
-2.3728e-06
-2.75924e-05
5.96703e-06
-2.11905e-06
-2.23223e-05
6.26621e-06
-2.86363e-06
-1.64726e-05
6.1443e-06
-3.65188e-06
-1.24869e-05
7.20114e-06
-3.17537e-06
-1.10661e-05
8.18067e-06
-1.79322e-06
-1.14037e-05
9.62885e-06
5.84214e-07
-1.11027e-05
1.02043e-05
1.95248e-06
-9.88417e-06
9.21332e-06
3.16255e-06
-6.9811e-06
6.43623e-06
3.77096e-06
-2.80046e-06
1.61073e-06
4.17973e-06
5.1961e-07
-3.43436e-07
4.90311e-06
3.13156e-06
-3.39679e-07
5.09243e-06
5.95984e-06
-8.65222e-07
5.4743e-06
8.92791e-06
-2.96711e-06
6.60077e-06
7.72073e-06
-7.55263e-06
9.39815e-06
-1.27058e-05
1.39598e-05
-6.21222e-06
-3.91217e-07
3.68632e-06
-3.80891e-06
-4.89731e-06
-2.9386e-06
-4.00366e-06
-2.7556e-07
-1.58094e-06
-3.03287e-06
-2.82828e-06
-1.64341e-06
-3.01165e-06
4.30068e-07
-9.20854e-07
-1.74256e-06
-9.94423e-07
-1.82653e-06
-1.35593e-06
7.95754e-07
-8.97125e-07
-9.25231e-07
1.60495e-07
-7.50139e-07
-7.45169e-07
8.43046e-07
-3.22396e-07
-5.44026e-07
4.73452e-07
-1.50839e-07
-2.54295e-07
5.47029e-07
-3.34967e-07
-6.47029e-08
7.07351e-07