/*--------------------------------*- C++ -*----------------------------------*\
| =========                 |                                                 |
| \\      /  F ield         | OpenFOAM: The Open Source CFD Toolbox           |
|  \\    /   O peration     | Version:  2.3.0                                 |
|   \\  /    A nd           | Web:      www.OpenFOAM.org                      |
|    \\/     M anipulation  |                                                 |
\*---------------------------------------------------------------------------*/
FoamFile
{
    version     2.0;
    format      ascii;
    class       surfaceScalarField;
    location    "15";
    object      phi;
}
// * * * * * * * * * * * * * * * * * * * * * * * * * * * * * * * * * * * * * //

dimensions      [0 3 -1 0 0 0 0];

internalField   nonuniform List<scalar> 
16448
(
-8.39393e-07
-2.35815e-06
6.49033e-07
9.70654e-07
-2.36828e-06
5.5823e-07
1.15216e-06
-8.41793e-07
6.60276e-07
1.56395e-06
-1.03664e-06
6.24837e-07
1.37256e-06
-3.00217e-07
4.9159e-07
1.34198e-06
-3.98811e-07
4.29367e-07
1.0642e-06
-1.98315e-07
4.76083e-07
8.66524e-07
-2.86301e-07
4.83958e-07
4.95267e-07
-2.42893e-07
6.14133e-07
1.57459e-07
-2.90579e-07
6.2837e-07
-1.34536e-07
-3.32186e-07
6.24164e-07
-2.7686e-07
-4.22672e-07
5.64981e-07
-2.96866e-07
-5.08416e-07
5.28407e-07
-2.43384e-07
-5.67101e-07
5.13606e-07
-1.77121e-07
-5.9647e-07
5.30193e-07
-1.13548e-07
-6.12008e-07
5.48422e-07
-6.60415e-08
-6.19279e-07
5.71756e-07
-3.03278e-08
-6.23806e-07
5.88078e-07
-6.92977e-09
-6.26536e-07
6.03122e-07
8.81088e-09
-6.28062e-07
6.12308e-07
1.81559e-08
-6.29025e-07
6.19665e-07
2.41746e-08
-6.29562e-07
6.2353e-07
2.71233e-08
-6.29346e-07
6.26384e-07
2.8678e-08
-6.28998e-07
6.27432e-07
2.90139e-08
-6.28203e-07
6.27856e-07
2.88151e-08
-6.27303e-07
6.27492e-07
2.81718e-08
-6.26218e-07
6.26852e-07
2.73297e-08
-6.25058e-07
6.25892e-07
2.6327e-08
-6.23887e-07
6.24882e-07
2.50895e-08
-6.22569e-07
6.23801e-07
2.40868e-08
-6.21801e-07
6.22797e-07
2.18655e-08
-6.19768e-07
6.21985e-07
2.17607e-08
-6.206e-07
6.207e-07
1.72249e-08
-6.16069e-07
6.20602e-07
2.03029e-08
-6.20804e-07
6.17724e-07
1.13234e-08
-6.10452e-07
6.19432e-07
2.11748e-08
-6.22765e-07
6.12914e-07
4.87213e-09
-6.02311e-07
6.18617e-07
2.52467e-08
-6.24684e-07
6.04312e-07
2.58093e-09
-5.92604e-07
6.15275e-07
3.90506e-08
-6.23726e-07
5.87262e-07
2.97987e-08
-5.90045e-07
5.99305e-07
8.4259e-08
-6.18573e-07
5.64121e-07
1.12136e-07
-5.95436e-07
5.6757e-07
1.7029e-07
-6.02172e-07
5.44029e-07
2.0154e-07
-5.84455e-07
5.53218e-07
1.29903e-07
-5.00866e-07
5.72517e-07
-5.02785e-08
-4.66005e-07
6.46203e-07
-4.74347e-07
-2.40686e-07
6.64771e-07
-6.73e-07
-5.4789e-07
7.46564e-07
-8.51663e-08
-1.32031e-06
7.32492e-07
7.48891e-08
-1.26762e-06
1.10759e-06
3.92605e-07
-1.54166e-06
1.22396e-06
-4.69088e-07
-4.78356e-07
1.34007e-06
-1.51102e-06
-6.30274e-07
1.67222e-06
-2.52057e-06
-2.18083e-06
3.19041e-06
-2.41428e-06
5.78775e-07
-6.85046e-07
-4.32284e-06
1.47218e-06
4.36391e-07
-9.43804e-06
3.52932e-06
1.58595e-06
-3.20678e-07
-2.15022e-05
1.2385e-05
1.99022e-05
-2.61372e-05
5.91433e-06
2.61918e-05
-9.9418e-06
3.65218e-06
2.51104e-05
-4.85433e-07
1.56678e-06
2.71005e-05
-2.42536e-06
4.35338e-07
2.87495e-05
-1.30012e-06
-3.48915e-07
2.9926e-05
-1.699e-07
-1.0066e-06
3.06835e-05
5.58283e-07
-1.31582e-06
3.12334e-05
8.95383e-07
-1.44529e-06
3.16028e-05
1.05669e-06
-1.42604e-06
3.17802e-05
1.1583e-06
-1.3357e-06
3.17904e-05
1.22144e-06
-1.23167e-06
3.16549e-05
1.24975e-06
-1.11427e-06
3.14117e-05
1.24133e-06
-9.98141e-07
3.11007e-05
1.20125e-06
-8.90272e-07
3.07024e-05
1.15125e-06
-7.5291e-07
3.02187e-05
1.12985e-06
-6.46194e-07
2.96053e-05
1.12247e-06
-5.09015e-07
2.87559e-05
1.22286e-06
-3.73492e-07
2.7654e-05
1.33599e-06
-2.34083e-07
2.62436e-05
1.46827e-06
-5.79001e-08
2.44613e-05
1.69479e-06
8.7488e-08
2.24817e-05
1.68762e-06
2.92035e-07
2.02815e-05
1.6863e-06
5.13907e-07
1.77462e-05
1.77565e-06
7.5962e-07
1.49581e-05
1.69038e-06
1.09767e-06
1.19725e-05
1.55343e-06
1.43218e-06
8.44077e-06
1.45793e-06
2.07382e-06
4.24154e-06
1.73865e-06
2.46058e-06
2.81949e-07
2.09822e-06
1.86137e-06
-2.73476e-06
1.94953e-06
1.06717e-06
-4.45621e-06
6.25353e-07
1.0961e-06
-5.72211e-06
-4.00734e-07
1.66664e-06
-6.94401e-06
-3.94543e-07
1.61644e-06
-6.41151e-06
1.10124e-07
-6.42618e-07
-4.21592e-06
5.16114e-07
-2.7117e-06
1.95325e-07
-4.41125e-06
-2.21663e-06
-3.85453e-06
6.70744e-08
-4.02469e-07
-3.9437e-06
-2.38742e-07
1.6808e-07
-1.78242e-06
3.70066e-07
8.47723e-07
-2.034e-06
3.17703e-07
8.48394e-07
-4.32676e-07
1.31767e-07
8.40678e-07
-5.70749e-07
1.79634e-07
5.96938e-07
-5.09859e-08
9.63925e-08
3.71433e-07
-2.2172e-07
1.60905e-07
9.89755e-08
-1.36378e-07
1.65924e-07
-1.8485e-07
-2.15315e-07
2.08543e-07
-4.09769e-07
-2.80097e-07
1.72814e-07
-4.90658e-07
-4.4967e-07
1.07871e-07
-4.58951e-07
-5.99414e-07
5.92761e-08
-3.66846e-07
-6.9654e-07
3.732e-08
-2.72605e-07
-7.34781e-07
4.40555e-08
-1.90307e-07
-7.49971e-07
5.56488e-08
-1.301e-07
-7.49475e-07
6.99748e-08
-8.56929e-08
-7.47913e-07
7.9684e-08
-5.68055e-08
-7.43541e-07
8.81032e-08
-3.76781e-08
-7.40212e-07
9.30085e-08
-2.63557e-08
-7.36688e-07
9.63273e-08
-1.97874e-08
-7.33803e-07
9.76607e-08
-1.67725e-08
-7.3056e-07
9.81876e-08
-1.58801e-08
-7.27666e-07
9.77657e-08
-1.64019e-08
-7.24645e-07
9.69551e-08
-1.77374e-08
-7.21657e-07
9.56819e-08
-1.95783e-08
-7.18636e-07
9.42533e-08
-2.16724e-08
-7.15662e-07
9.26939e-08
-2.39369e-08
-7.1278e-07
9.11547e-08
-2.63961e-08
-7.09908e-07
8.97968e-08
-2.88647e-08
-7.07706e-07
8.83752e-08
-3.21436e-08
-7.03777e-07
8.72907e-08
-3.44737e-08
-7.04086e-07
8.58207e-08
-3.94704e-08
-6.96739e-07
8.56738e-08
-3.91432e-08
-7.03696e-07
8.25743e-08
-4.70313e-08
-6.86988e-07
8.44349e-08
-4.04277e-08
-7.07377e-07
7.80217e-08
-5.31819e-08
-6.73316e-07
8.37738e-08
-3.47447e-08
-7.13613e-07
7.05096e-08
-5.46855e-08
-6.55789e-07
8.31458e-08
-8.63871e-09
-7.25448e-07
5.56977e-08
-3.54943e-08
-6.42864e-07
7.96987e-08
5.01593e-08
-7.42776e-07
3.85765e-08
4.8046e-08
-6.56438e-07
6.31442e-08
1.6776e-07
-7.5613e-07
3.42761e-08
2.04629e-07
-6.5707e-07
3.57811e-08
2.58501e-07
-6.30004e-07
7.53037e-08
2.44529e-07
-5.3309e-07
8.10967e-08
1.47073e-07
-3.05507e-07
1.62319e-07
1.80316e-07
-7.33402e-07
1.52313e-07
2.30897e-07
-1.69205e-06
3.21202e-07
-1.56748e-07
-1.58296e-06
7.03026e-07
-8.07531e-07
-1.40945e-06
5.18624e-07
-2.68239e-06
5.36834e-07
8.59715e-07
-8.00354e-07
-2.30859e-06
-2.03683e-07
1.29244e-06
-5.63751e-06
1.36392e-06
-2.67959e-06
7.25159e-06
-2.70075e-06
-9.68767e-06
9.44495e-06
-9.64653e-07
-7.41785e-06
7.25608e-06
-5.99647e-06
-2.55962e-07
-3.30225e-05
4.35839e-06
3.96238e-06
-3.72535e-05
6.89798e-06
4.45268e-06
-1.22835e-05
1.85143e-06
1.32968e-05
-6.25369e-06
-3.07582e-06
1.64568e-05
-2.50623e-06
-3.07916e-06
1.85975e-05
6.04996e-08
-3.50132e-06
2.13046e-05
9.97804e-07
-3.87482e-06
2.38331e-05
1.75511e-06
-3.7253e-06
2.57699e-05
2.30874e-06
-3.35016e-06
2.7133e-05
2.62107e-06
-2.92755e-06
2.8052e-05
2.75883e-06
-2.51952e-06
2.86409e-05
2.77582e-06
-2.14321e-06
2.89665e-05
2.73365e-06
-1.80951e-06
2.91123e-05
2.64847e-06
-1.55292e-06
2.91267e-05
2.50034e-06
-1.31354e-06
2.90322e-05
2.34656e-06
-1.10081e-06
2.88577e-05
2.19697e-06
-8.92638e-07
2.84816e-05
2.11549e-06
-6.16912e-07
2.78691e-05
2.22624e-06
-3.90856e-07
2.69622e-05
2.38821e-06
-1.45345e-07
2.56694e-05
2.68476e-06
7.6326e-08
2.39521e-05
3.17633e-06
2.3579e-07
2.19019e-05
3.31689e-06
4.20906e-07
1.97749e-05
3.17363e-06
6.39654e-07
1.73206e-05
3.25732e-06
9.72631e-07
1.4562e-05
3.27096e-06
1.17801e-06
1.13279e-05
3.33912e-06
1.44845e-06
7.0408e-06
3.83407e-06
1.91093e-06
2.85993e-06
4.03814e-06
1.88138e-06
-1.26094e-07
3.74064e-06
1.34361e-06
-2.14548e-06
3.13153e-06
8.37398e-07
-3.46229e-06
1.52561e-06
4.16554e-07
-4.79981e-06
1.00814e-07
8.35969e-07
-5.96332e-06
-9.72826e-08
8.66247e-07
-5.64594e-06
6.77975e-07
-8.85227e-07
-3.76157e-06
1.6525e-06
-3.02076e-06
1.83634e-06
-5.40259e-06
-3.57439e-06
-4.88508e-06
-1.7592e-07
-1.76488e-06
-5.23233e-06
-5.20886e-07
-1.18012e-06
-2.89185e-06
5.24653e-07
-1.40221e-07
-3.33984e-06
2.65928e-07
3.4633e-07
-1.14376e-06
2.24516e-07
4.93279e-07
-1.04591e-06
3.28193e-07
3.32485e-07
7.55375e-08
3.4254e-08
1.75004e-08
-1.37044e-08
1.06953e-07
-2.30025e-07
1.34565e-07
-2.34351e-08
-4.36822e-07
-1.81872e-08
9.65198e-09
-5.88956e-07
-9.9284e-08
-2.86956e-08
-6.23415e-07
-3.09598e-07
-1.05629e-07
-5.65398e-07
-4.79042e-07
-1.78404e-07
-4.64525e-07
-5.80352e-07
-2.17075e-07
-3.63174e-07
-6.07275e-07
-2.28874e-07
-2.77264e-07
-6.09035e-07
-2.26862e-07
-2.12887e-07
-5.949e-07
-2.18969e-07
-1.66056e-07
-5.8224e-07
-2.12519e-07
-1.34472e-07
-5.6752e-07
-2.07621e-07
-1.13336e-07
-5.55965e-07
-2.05398e-07
-1.00012e-07
-5.45392e-07
-2.04634e-07
-9.18842e-08
-5.366e-07
-2.05343e-07
-8.76315e-08
-5.28348e-07
-2.06477e-07
-8.5823e-08
-5.21475e-07
-2.0801e-07
-8.57119e-08
-5.15052e-07
-2.09714e-07
-8.67099e-08
-5.09043e-07
-2.11624e-07
-8.83845e-08
-5.03414e-07
-2.13555e-07
-9.04796e-08
-4.98101e-07
-2.15471e-07
-9.29206e-08
-4.93079e-07
-2.17264e-07
-9.55779e-08
-4.88284e-07
-2.18968e-07
-9.86586e-08
-4.83904e-07
-2.20723e-07
-1.01448e-07
-4.78928e-07
-2.22059e-07
-1.05257e-07
-4.77528e-07
-2.22746e-07
-1.08297e-07
-4.69941e-07
-2.23752e-07
-1.11396e-07
-4.75113e-07
-2.25479e-07
-1.15048e-07
-4.58523e-07
-2.24805e-07
-1.14775e-07
-4.79108e-07
-2.28531e-07
-1.19378e-07
-4.44016e-07
-2.24685e-07
-1.10055e-07
-4.8973e-07
-2.33192e-07
-1.16094e-07
-4.2654e-07
-2.23193e-07
-8.38383e-08
-5.14921e-07
-2.42765e-07
-9.31865e-08
-4.13341e-07
-2.20154e-07
-6.48207e-09
-5.69535e-07
-2.59922e-07
-3.72944e-08
-4.12261e-07
-2.13339e-07
9.6058e-08
-6.23847e-07
-2.65608e-07
6.83033e-08
-4.18367e-07
-2.10918e-07
1.6416e-07
-5.03394e-07
-2.22434e-07
1.20754e-07
-2.9949e-07
-1.90159e-07
1.11877e-07
-1.71265e-07
-1.25328e-07
2.11014e-07
-6.25624e-07
-2.06876e-07
-6.49214e-07
-1.04156e-06
2.0978e-07
-1.38533e-06
-1.20294e-06
3.56143e-07
-1.70663e-06
-7.73099e-07
-3.15016e-07
-2.91398e-06
2.01065e-06
-2.66425e-07
-1.28899e-07
-4.04093e-06
-1.0527e-06
-1.24759e-06
-6.54743e-06
2.02864e-06
4.32382e-06
4.59738e-06
-2.91717e-06
1.55345e-06
1.42869e-05
-2.07155e-06
-2.62624e-06
1.40446e-05
-2.60874e-06
-1.93998e-07
-3.62374e-05
7.82655e-07
-3.33743e-06
-4.18774e-05
7.76741e-06
-2.04265e-06
-1.52831e-05
1.70476e-06
8.23217e-06
-1.46267e-05
-1.90181e-06
9.66858e-06
-1.16654e-06
-2.7761e-06
1.34352e-05
-1.46358e-07
-3.55973e-06
1.69131e-05
9.19969e-07
-3.40009e-06
1.93954e-05
2.01525e-06
-2.74248e-06
2.10905e-05
2.9052e-06
-2.29156e-06
2.22959e-05
3.37387e-06
-1.95824e-06
2.30973e-05
3.56288e-06
-1.60538e-06
2.35809e-05
3.5404e-06
-1.24817e-06
2.38702e-05
3.3842e-06
-9.39858e-07
2.40588e-05
3.12327e-06
-6.63413e-07
2.41694e-05
2.77308e-06
-3.83388e-07
2.42497e-05
2.40784e-06
-1.41611e-07
2.42668e-05
2.03232e-06
1.47559e-07
2.4106e-05
1.87448e-06
4.01798e-07
2.37226e-05
2.06593e-06
5.4374e-07
2.30022e-05
2.42656e-06
6.82025e-07
2.19226e-05
3.04032e-06
7.24089e-07
2.04777e-05
3.79781e-06
8.23398e-07
1.86603e-05
4.11976e-06
1.01456e-06
1.65381e-05
4.14678e-06
1.14905e-06
1.37903e-05
4.41481e-06
1.59028e-06
9.57216e-06
5.17735e-06
2.31174e-06
4.62677e-06
5.55758e-06
2.72692e-06
9.93158e-07
5.17418e-06
2.2935e-06
-8.87938e-07
4.32629e-06
1.59294e-06
-1.87151e-06
3.6833e-06
1.04091e-06
-2.29048e-06
2.98931e-06
5.6118e-07
-2.85349e-06
1.85618e-06
2.32435e-07
-3.90422e-06
8.76848e-07
2.74696e-07
-4.86033e-06
7.52424e-07
1.06408e-07
-4.7158e-06
1.67444e-06
-1.141e-06
-3.37363e-06
3.29137e-06
-2.98104e-06
4.09315e-06
-5.63044e-06
-4.79252e-06
-5.38888e-06
-3.49916e-07
-2.96868e-06
-6.15049e-06
-9.05678e-07
-2.53938e-06
-3.73691e-06
4.15754e-07
-1.28708e-06
-4.451e-06
-1.41163e-07
-6.18271e-07
-2.22674e-06
4.14162e-07
-2.78113e-08
-2.17218e-06
5.35798e-07
2.89361e-07
-4.31307e-07
1.89658e-07
5.1363e-08
-5.15196e-08
2.75796e-07
-2.07218e-07
3.54593e-07
3.85368e-08
-4.50071e-07
1.95446e-07
2.92024e-08
-5.81025e-07
7.10268e-08
-3.93733e-08
-6.11771e-07
-1.5074e-07
-1.2813e-07
-5.73078e-07
-2.9774e-07
-2.2001e-07
-5.01664e-07
-3.73369e-07
-2.78415e-07
-4.19145e-07
-3.79614e-07
-3.10196e-07
-3.44182e-07
-3.60934e-07
-3.23081e-07
-2.82604e-07
-3.30345e-07
-3.26148e-07
-2.36584e-07
-3.0324e-07
-3.25038e-07
-2.03522e-07
-2.77161e-07
-3.23436e-07
-1.8123e-07
-2.56276e-07
-3.21997e-07
-1.66171e-07
-2.38587e-07
-3.21878e-07
-1.57076e-07
-2.23965e-07
-3.21746e-07
-1.51996e-07
-2.11418e-07
-3.22021e-07
-1.49519e-07
-2.00904e-07
-3.23061e-07
-1.48829e-07
-1.91707e-07
-3.24045e-07
-1.49539e-07
-1.83638e-07
-3.24704e-07
-1.51115e-07
-1.76461e-07
-3.25384e-07
-1.53282e-07
-1.69989e-07
-3.25953e-07
-1.55912e-07
-1.64132e-07
-3.2632e-07
-1.58976e-07
-1.58727e-07
-3.26497e-07
-1.6272e-07
-1.53643e-07
-3.26517e-07
-1.66034e-07
-1.48869e-07
-3.26747e-07
-1.70681e-07
-1.45858e-07
-3.27021e-07
-1.73204e-07
-1.39946e-07
-3.27469e-07
-1.78044e-07
-1.42988e-07
-3.27278e-07
-1.79108e-07
-1.306e-07
-3.26853e-07
-1.81588e-07
-1.47812e-07
-3.28806e-07
-1.80516e-07
-1.18958e-07
-3.2612e-07
-1.74804e-07
-1.624e-07
-3.33028e-07
-1.70737e-07
-1.06317e-07
-3.24276e-07
-1.45308e-07
-1.98424e-07
-3.41908e-07
-1.43508e-07
-9.67597e-08
-3.18363e-07
-8.25984e-08
-2.74078e-07
-3.56345e-07
-1.04067e-07
-8.87156e-08
-3.02054e-07
-6.75261e-09
-3.60796e-07
-3.60338e-07
-8.26191e-08
-6.64458e-08
-2.76028e-07
-6.19018e-08
-2.19976e-07
-3.04104e-07
-1.67759e-07
4.91967e-08
-2.42798e-07
-2.49995e-07
1.24437e-07
-2.1343e-07
-3.84061e-07
-2.83419e-07
-2.08103e-07
-8.08065e-07
-5.59457e-07
-5.8055e-08
-1.26733e-06
-8.21575e-07
7.79419e-08
-1.03832e-06
-1.06994e-06
6.78708e-08
-7.26782e-07
1.32867e-06
3.70484e-07
1.56484e-06
-3.35636e-06
-2.97617e-06
-1.21856e-06
-4.26923e-06
5.05235e-07
5.9944e-06
7.92432e-07
-3.408e-06
8.61547e-06
2.01017e-05
-8.43581e-06
1.19993e-05
7.39084e-06
3.26989e-06
2.96211e-06
-3.14778e-05
4.27738e-06
-4.20849e-06
-4.39563e-05
9.24935e-06
-8.35316e-06
-1.40698e-05
2.93138e-06
-6.84998e-06
-1.65106e-05
3.80751e-07
-1.28838e-06
-2.62133e-06
-4.10681e-06
5.62936e-06
-2.1553e-06
-4.90881e-06
9.05217e-06
5.58264e-07
-3.06112e-06
1.16139e-05
1.03698e-06
-1.58343e-06
1.36226e-05
1.82092e-06
-9.24447e-07
1.5144e-05
2.30055e-06
-4.48082e-07
1.61927e-05
2.55736e-06
-4.31579e-08
1.67896e-05
2.55575e-06
3.87753e-07
1.7074e-05
2.34957e-06
7.50239e-07
1.7133e-05
1.98734e-06
1.07691e-06
1.70454e-05
1.50972e-06
1.35094e-06
1.67858e-05
1.10908e-06
1.55839e-06
1.63734e-05
7.94994e-07
1.64965e-06
1.58352e-05
8.01558e-07
1.6112e-06
1.52029e-05
1.1899e-06
1.50825e-06
1.43921e-05
1.89568e-06
1.34171e-06
1.33828e-05
2.81985e-06
1.22978e-06
1.17128e-05
3.89218e-06
1.57559e-06
8.66954e-06
4.80148e-06
2.36156e-06
4.50207e-06
5.28618e-06
3.02807e-06
3.70049e-07
5.40131e-06
3.14552e-06
-2.55684e-06
5.25959e-06
2.84465e-06
-3.89189e-06
4.60209e-06
2.29056e-06
-4.04659e-06
3.79285e-06
1.53603e-06
-3.68077e-06
3.17394e-06
7.86535e-07
-3.00588e-06
2.85925e-06
1.49162e-07
-2.30671e-06
2.54107e-06
-2.50919e-07
-2.11087e-06
2.11164e-06
-4.51298e-07
-2.6816e-06
1.80537e-06
-3.57779e-07
-3.50163e-06
2.12082e-06
-5.4837e-07
-3.74914e-06
3.34148e-06
-1.41952e-06
-2.91746e-06
5.46775e-06
-3.00806e-06
6.84203e-06
-5.66634e-06
-5.39247e-06
-5.33329e-06
-5.16034e-07
-3.33695e-06
-6.50066e-06
-1.70535e-06
-2.9595e-06
-3.85266e-06
-2.61701e-07
-1.63749e-06
-4.80087e-06
-9.72149e-07
-1.14673e-06
-2.67212e-06
-4.53877e-08
-5.64874e-07
-2.98809e-06
2.34038e-07
-1.1449e-07
-1.16459e-06
2.82884e-07
-6.50166e-08
-4.40994e-07
3.39986e-07
-4.26292e-08
2.6333e-07
6.88572e-08
-2.43252e-07
3.72312e-07
2.37402e-08
-3.46879e-07
2.52947e-07
-7.83136e-08
-4.1687e-07
6.19967e-08
-1.42762e-07
-4.38362e-07
-6.38197e-08
-2.12448e-07
-4.2861e-07
-1.20939e-07
-2.62198e-07
-3.96197e-07
-1.1102e-07
-3.01027e-07
-3.52419e-07
-7.93117e-08
-3.25417e-07
-3.07478e-07
-3.73885e-08
-3.37917e-07
-2.65789e-07
-2.40004e-09
-3.42545e-07
-2.34672e-07
3.62301e-08
-3.44526e-07
-2.12862e-07
6.62534e-08
-3.44355e-07
-1.98299e-07
8.99448e-08
-3.43112e-07
-1.89441e-07
1.08771e-07
-3.41607e-07
-1.83751e-07
1.23282e-07
-3.40405e-07
-1.80791e-07
1.34961e-07
-3.38837e-07
-1.79808e-07
1.44569e-07
-3.37272e-07
-1.80577e-07
1.52565e-07
-3.35444e-07
-1.82876e-07
1.59127e-07
-3.333e-07
-1.86226e-07
1.6448e-07
-3.31127e-07
-1.90244e-07
1.68886e-07
-3.29009e-07
-1.9459e-07
1.72639e-07
-3.27025e-07
-1.99216e-07
1.7599e-07
-3.25012e-07
-2.03464e-07
1.78735e-07
-3.23358e-07
-2.09398e-07
1.81326e-07
-3.21252e-07
-2.13519e-07
1.83953e-07
-3.19777e-07
-2.19491e-07
1.81526e-07
-3.18541e-07
-2.21309e-07
1.88603e-07
-3.17381e-07
-2.25853e-07
1.73773e-07
-3.17038e-07
-2.25199e-07
1.9372e-07
-3.13325e-07
-2.22764e-07
1.51249e-07
-3.16077e-07
-2.1728e-07
1.94869e-07
-3.0666e-07
-2.00737e-07
1.01602e-07
-3.16558e-07
-1.96466e-07
1.91962e-07
-2.92978e-07
-1.70094e-07
1.47716e-08
-3.15208e-07
-1.80736e-07
1.93078e-07
-2.71134e-07
-2.14536e-07
-3.14853e-08
-2.95493e-07
-2.49784e-07
2.31217e-07
-2.62393e-07
-3.90001e-07
1.69803e-07
-2.49541e-07
-3.98361e-07
3.17366e-07
-2.59785e-07
-3.55379e-07
3.18453e-07
-2.36973e-07
-4.65271e-07
1.27228e-08
-1.86221e-07
-7.65024e-07
-2.65111e-07
5.43362e-09
-1.03904e-06
-4.57484e-07
-9.00401e-08
-1.04922e-06
-1.15641e-06
9.66703e-08
1.40791e-06
-7.99109e-07
-3.29325e-07
1.73494e-06
-3.41082e-07
-3.3423e-06
-2.42062e-06
3.59655e-06
-3.7102e-06
5.11199e-06
-4.51009e-07
-6.28916e-06
1.39146e-05
1.99061e-05
-8.607e-06
1.65248e-05
-1.00009e-05
1.47814e-05
-9.08786e-09
-1.98665e-05
4.92251e-06
-1.23075e-05
-4.11548e-05
9.49705e-06
-1.53738e-05
-1.43131e-05
3.30958e-06
-1.72129e-05
-1.53222e-05
6.50655e-07
-1.08622e-05
-6.96313e-06
-2.00887e-06
-6.53231e-06
-4.87171e-06
-1.61349e-06
-3.66091e-06
-2.36522e-06
5.20727e-08
-1.55642e-06
-1.74402e-06
6.76499e-07
1.13546e-07
-9.89831e-07
1.14079e-06
1.29734e-06
-4.26095e-07
1.54286e-06
1.96464e-06
-6.45148e-08
1.95457e-06
2.01532e-06
1.57209e-07
2.34786e-06
1.47669e-06
2.23754e-07
2.66445e-06
2.61563e-07
2.95736e-07
2.90673e-06
-1.3952e-06
1.79797e-07
2.98668e-06
-3.24563e-06
3.11696e-08
2.92835e-06
-5.15678e-06
1.05338e-07
2.60081e-06
-6.68306e-06
2.24207e-07
2.10364e-06
-7.83112e-06
5.36631e-07
1.80132e-06
-8.74316e-06
1.07501e-06
1.73272e-06
-9.58764e-06
1.81525e-06
1.84907e-06
-1.03201e-05
2.5679e-06
2.05679e-06
-1.07774e-05
3.05136e-06
2.20741e-06
-1.09085e-05
3.30763e-06
2.10959e-06
-1.05808e-05
3.3073e-06
1.76635e-06
-9.71394e-06
3.15306e-06
1.23967e-06
-8.48945e-06
2.81165e-06
5.65948e-07
-7.09813e-06
2.55447e-06
-1.52946e-07
-5.60481e-06
2.4392e-06
-7.58578e-07
-4.02166e-06
2.50087e-06
-1.22477e-06
-2.61142e-06
2.63504e-06
-1.50421e-06
-1.79388e-06
2.88252e-06
-1.58843e-06
-2.01627e-06
3.3741e-06
-1.34634e-06
-2.90978e-06
4.27982e-06
-1.2655e-06
-3.25644e-06
5.51096e-06
-1.82283e-06
-2.50561e-06
7.85129e-06
-3.13436e-06
1.00774e-05
-5.74102e-06
-5.67379e-06
-5.16335e-06
-2.09357e-07
-3.40304e-06
-6.74443e-06
-2.02698e-06
-3.10302e-06
-3.26628e-06
-8.86417e-07
-1.63369e-06
-4.7657e-06
-1.5045e-06
-1.08022e-06
-2.20203e-06
-1.02358e-06
-6.59451e-07
-2.82098e-06
-5.87889e-07
-4.11809e-07
-1.3776e-06
-3.46497e-08
-3.58266e-07
-7.7354e-07
2.78986e-07
-2.06086e-07
5.28224e-08
5.83118e-08
-1.43272e-07
3.54125e-07
-4.4647e-08
-2.24516e-08
3.30321e-07
-1.98212e-07
-7.84634e-08
3.29442e-07
-2.11455e-07
-1.63494e-07
2.65251e-07
-2.44057e-07
-2.40173e-07
2.20087e-07
-2.64367e-07
-2.82001e-07
2.26134e-07
-2.95342e-07
-2.92253e-07
2.53228e-07
-3.22308e-07
-2.83562e-07
2.94073e-07
-3.40169e-07
-2.71051e-07
3.34549e-07
-3.49479e-07
-2.56694e-07
3.73591e-07
-3.51735e-07
-2.4546e-07
4.04838e-07
-3.49838e-07
-2.38397e-07
4.28755e-07
-3.45888e-07
-2.35271e-07
4.46371e-07
-3.40744e-07
-2.3475e-07
4.5818e-07
-3.35434e-07
-2.36301e-07
4.66276e-07
-3.2978e-07
-2.39406e-07
4.71644e-07
-3.23983e-07
-2.43558e-07
4.74889e-07
-3.18186e-07
-2.484e-07
4.75988e-07
-3.12031e-07
-2.53675e-07
4.75725e-07
-3.05983e-07
-2.59292e-07
4.74724e-07
-3.0023e-07
-2.65009e-07
4.73239e-07
-2.94894e-07
-2.70618e-07
4.71595e-07
-2.90003e-07
-2.75841e-07
4.69749e-07
-2.85799e-07
-2.81677e-07
4.68765e-07
-2.81608e-07
-2.85815e-07
4.66697e-07
-2.78611e-07
-2.93162e-07
4.64074e-07
-2.75205e-07
-2.95899e-07
4.64429e-07
-2.73093e-07
-3.03878e-07
4.53613e-07
-2.71862e-07
-3.02649e-07
4.60124e-07
-2.67636e-07
-3.07591e-07
4.28932e-07
-2.72741e-07
-2.99222e-07
4.48321e-07
-2.61821e-07
-3.05991e-07
3.83992e-07
-2.75618e-07
-2.98066e-07
4.35596e-07
-2.51558e-07
-3.50897e-07
3.33401e-07
-2.65795e-07
-3.50907e-07
4.35621e-07
-2.4253e-07
-5.32028e-07
3.71407e-07
-2.21766e-07
-5.31495e-07
4.88773e-07
-2.58087e-07
-7.15397e-07
5.55987e-07
-2.02276e-07
-5.57789e-07
4.72073e-07
-3.12309e-07
-2.78482e-07
3.73962e-07
-3.34808e-07
-1.32403e-07
1.84653e-07
-3.18004e-07
-8.16195e-07
3.48726e-07
6.99642e-08
-8.47819e-07
-1.90935e-07
-2.34919e-07
-1.10141e-06
-1.07862e-06
1.75812e-07
1.2729e-06
-2.35017e-06
-8.23247e-07
1.96348e-06
1.86814e-06
-2.89981e-06
1.20304e-06
9.81794e-06
-5.46094e-06
7.511e-06
3.48474e-07
-7.10746e-06
2.89937e-05
7.79532e-06
-9.37196e-06
1.13991e-05
-1.37815e-05
2.1375e-05
-1.59602e-06
-1.162e-05
4.74857e-06
-2.5491e-05
-2.92827e-05
1.2023e-05
-3.21761e-05
-1.23171e-05
4.68928e-06
-3.78118e-05
-9.97858e-06
2.92122e-07
-3.67006e-05
-6.68399e-06
-1.39022e-06
-3.56693e-05
-5.27033e-06
-6.32531e-07
-3.43397e-05
-4.40321e-06
7.08396e-07
-3.35998e-05
-3.52097e-06
1.03708e-06
-3.31509e-05
-2.94759e-06
1.5089e-06
-3.27214e-05
-2.50204e-06
1.64652e-06
-3.23931e-05
-2.16071e-06
1.7679e-06
-3.20915e-05
-1.83994e-06
1.69551e-06
-3.15677e-05
-1.81062e-06
1.51061e-06
-3.09169e-05
-1.68146e-06
1.32639e-06
-3.02425e-05
-1.64428e-06
1.14968e-06
-2.94189e-05
-1.7441e-06
9.51739e-07
-2.85049e-05
-1.54916e-06
7.40443e-07
-2.76167e-05
-1.27838e-06
6.14404e-07
-2.66107e-05
-9.95845e-07
5.26468e-07
-2.54624e-05
-5.60414e-07
4.87135e-07
-2.40737e-05
-2.18012e-08
4.4841e-07
-2.25249e-05
6.69026e-07
3.49989e-07
-2.06858e-05
1.05214e-06
1.60195e-07
-1.87723e-05
1.52574e-06
-1.31662e-07
-1.6902e-05
1.95643e-06
-5.19364e-07
-1.49475e-05
2.19447e-06
-9.95985e-07
-1.29509e-05
2.3796e-06
-1.56451e-06
-1.09204e-05
2.65823e-06
-2.13422e-06
-8.79135e-06
2.94867e-06
-2.63856e-06
-6.54533e-06
3.31213e-06
-3.05728e-06
-4.32757e-06
3.81152e-06
-3.39424e-06
-2.424e-06
4.54495e-06
-3.566e-06
-1.19968e-06
5.6132e-06
-3.46343e-06
-9.02735e-07
6.9217e-06
-2.93882e-06
-1.28806e-06
8.53081e-06
-2.63453e-06
-1.21971e-06
1.11979e-05
-3.41491e-06
1.42132e-05
-5.3555e-06
-5.77613e-06
-4.67702e-06
1.65728e-07
-3.59005e-06
-6.76978e-06
-2.16073e-06
-3.68853e-06
-2.37937e-06
-7.88426e-07
-1.98844e-06
-4.50583e-06
-1.95997e-06
-1.11749e-06
-1.4407e-06
-1.6323e-06
-5.1561e-07
-2.06923e-06
-1.35363e-06
-2.79021e-07
-7.45119e-07
-8.69083e-07
-4.33037e-07
-5.58279e-07
-6.12596e-08
-3.97005e-07
1.68399e-07
-1.51628e-07
-2.19524e-07
4.18051e-07
-2.41424e-07
1.0585e-07
4.31119e-07
-4.26192e-07
1.66454e-07
6.20824e-07
-3.52004e-07
6.70537e-08
6.54336e-07
-2.89707e-07
-6.32027e-08
6.05907e-07
-2.55581e-07
-1.57224e-07
5.85882e-07
-2.65748e-07
-2.16455e-07
5.95499e-07
-2.83058e-07
-2.51632e-07
6.25496e-07
-2.96267e-07
-2.71773e-07
6.57726e-07
-3.03052e-07
-2.84873e-07
6.88902e-07
-3.0223e-07
-2.9472e-07
7.12197e-07
-2.97529e-07
-3.03011e-07
7.28406e-07
-2.9138e-07
-3.10485e-07
7.38373e-07
-2.84544e-07
-3.17755e-07
7.43108e-07
-2.77678e-07
-3.24287e-07
7.43969e-07
-2.71177e-07
-3.30065e-07
7.42488e-07
-2.65085e-07
-3.35612e-07
7.39633e-07
-2.59212e-07
-3.41057e-07
7.34805e-07
-2.53388e-07
-3.46703e-07
7.28651e-07
-2.47294e-07
-3.52387e-07
7.21892e-07
-2.415e-07
-3.57843e-07
7.14807e-07
-2.36126e-07
-3.6306e-07
7.07776e-07
-2.3098e-07
-3.67517e-07
7.00402e-07
-2.26209e-07
-3.71598e-07
6.94578e-07
-2.21746e-07
-3.73908e-07
6.88177e-07
-2.19183e-07
-3.78771e-07
6.84056e-07
-2.15134e-07
-3.78903e-07
6.78831e-07
-2.14282e-07
-3.86901e-07
6.72064e-07
-2.10467e-07
-3.82695e-07
6.67106e-07
-2.112e-07
-3.96753e-07
6.52143e-07
-2.09166e-07
-3.87956e-07
6.47501e-07
-2.07989e-07
-4.26443e-07
6.26004e-07
-2.03539e-07
-4.2046e-07
6.31702e-07
-2.02102e-07
-5.31335e-07
6.17655e-07
-1.73395e-07
-5.29794e-07
6.38425e-07
-2.04362e-07
-7.57169e-07
7.17451e-07
-1.18687e-07
-7.26124e-07
6.93009e-07
-2.35299e-07
-8.90186e-07
8.6815e-07
-1.48122e-07
-6.85647e-07
5.85934e-07
-3.18419e-07
-3.78402e-07
5.31884e-07
-4.65189e-07
-4.35005e-08
2.75219e-07
-4.25488e-07
-4.97487e-07
9.63464e-07
-1.60775e-07
-5.14582e-07
9.39104e-08
-2.67771e-07
-2.38745e-06
2.97987e-07
4.96236e-07
-2.54049e-06
-2.13209e-06
-6.50499e-08
3.66791e-07
1.08917e-06
-2.12833e-06
8.9428e-06
7.12834e-06
-5.88644e-06
1.44171e-05
4.20929e-06
-9.33519e-06
3.59055e-05
-1.46263e-06
-1.22305e-05
7.12764e-06
-8.99509e-06
2.39914e-05
-7.87154e-06
-2.10169e-06
5.48128e-06
-4.60104e-05
-5.09245e-06
1.395e-05
-6.05485e-05
-3.0855e-06
5.30857e-06
-6.68091e-05
-3.92946e-06
2.13648e-07
-6.85313e-05
-3.58968e-06
-1.36971e-06
-6.86255e-05
-4.09831e-06
-1.07556e-06
-6.86455e-05
-3.8706e-06
-5.10722e-07
-6.77524e-05
-4.06946e-06
-3.4296e-07
-6.68066e-05
-3.82799e-06
-6.37427e-08
-6.56355e-05
-3.67389e-06
2.73886e-09
-6.41988e-05
-3.58025e-06
-1.5178e-08
-6.24268e-05
-3.44173e-06
-1.68468e-07
-6.06654e-05
-3.27181e-06
-2.99009e-07
-5.8894e-05
-3.05465e-06
-3.97055e-07
-5.69542e-05
-3.09278e-06
-4.90247e-07
-5.48486e-05
-3.19195e-06
-6.56659e-07
-5.22671e-05
-3.19572e-06
-9.34027e-07
-4.96962e-05
-2.86621e-06
-9.8226e-07
-4.69889e-05
-2.62423e-06
-1.0782e-06
-4.42084e-05
-2.16876e-06
-1.1715e-06
-4.12885e-05
-1.63313e-06
-1.30812e-06
-3.83572e-05
-7.91346e-07
-1.47044e-06
-3.54858e-05
-1.39198e-07
-1.67975e-06
-3.25012e-05
5.64466e-07
-2.02298e-06
-2.94716e-05
1.32463e-06
-2.39742e-06
-2.65821e-05
2.05975e-06
-2.75453e-06
-2.36527e-05
2.60059e-06
-3.15015e-06
-2.06985e-05
3.26183e-06
-3.55763e-06
-1.7676e-05
3.86916e-06
-3.9428e-06
-1.44678e-05
4.27673e-06
-4.1727e-06
-1.11508e-05
4.78063e-06
-4.28606e-06
-7.87368e-06
5.62855e-06
-4.36064e-06
-4.8363e-06
6.93867e-06
-4.36283e-06
-2.32447e-06
8.82734e-06
-4.41748e-06
-1.17262e-06
1.16618e-05
-4.28281e-06
-5.98404e-07
1.53341e-05
-4.71051e-06
1.95049e-05
-5.8901e-06
-5.91818e-06
-3.64147e-06
4.97261e-07
-3.91052e-06
-6.41973e-06
-2.35771e-06
-4.36141e-06
-1.29917e-06
-6.29315e-07
-2.36858e-06
-3.79876e-06
-2.69991e-06
-1.56993e-06
-3.08797e-07
-1.93056e-06
-6.27408e-07
-1.07262e-06
-1.93915e-06
-1.43269e-07
2.50953e-07
-1.48023e-06
-3.74236e-07
9.47521e-08
-4.22083e-07
-4.34776e-07
5.63959e-07
-3.35037e-07
-3.45388e-07
6.82817e-07
-3.54174e-07
4.08317e-08
6.55663e-07
-6.10783e-07
1.8303e-07
9.75181e-07
-4.96577e-07
1.57054e-07
1.09648e-06
-4.16189e-07
6.97259e-08
1.05093e-06
-3.57721e-07
-2.526e-08
1.02943e-06
-3.48578e-07
-1.15939e-07
1.04417e-06
-3.58013e-07
-1.95205e-07
1.07809e-06
-3.73348e-07
-2.58184e-07
1.10833e-06
-3.87651e-07
-3.04872e-07
1.13697e-06
-4.01395e-07
-3.39871e-07
1.16025e-06
-4.13077e-07
-3.6654e-07
1.17786e-06
-4.22805e-07
-3.8762e-07
1.19057e-06
-4.31138e-07
-4.05775e-07
1.19999e-06
-4.38747e-07
-4.22472e-07
1.20681e-06
-4.46166e-07
-4.38546e-07
1.21178e-06
-4.53239e-07
-4.54464e-07
1.21422e-06
-4.58689e-07
-4.66444e-07
1.20916e-06
-4.62391e-07
-4.74859e-07
1.20252e-06
-4.65476e-07
-4.81486e-07
1.19653e-06
-4.68033e-07
-4.86959e-07
1.19094e-06
-4.70682e-07
-4.9151e-07
1.18595e-06
-4.73641e-07
-4.95243e-07
1.18098e-06
-4.76869e-07
-4.99593e-07
1.17757e-06
-4.78663e-07
-5.02515e-07
1.1732e-06
-4.82125e-07
-5.06374e-07
1.17206e-06
-4.84165e-07
-5.05633e-07
1.16794e-06
-4.89874e-07
-5.15647e-07
1.1711e-06
-4.89048e-07
-5.10972e-07
1.16135e-06
-4.98948e-07
-5.41793e-07
1.17609e-06
-4.93152e-07
-5.35904e-07
1.14868e-06
-5.07093e-07
-6.19328e-07
1.19597e-06
-4.86568e-07
-6.20564e-07
1.14505e-06
-5.12144e-07
-8.04082e-07
1.25152e-06
-4.50383e-07
-8.0007e-07
1.15511e-06
-5.2074e-07
-1.03296e-06
1.32952e-06
-3.79224e-07
-9.6041e-07
1.14691e-06
-5.26501e-07
-9.94438e-07
1.31167e-06
-4.09543e-07
-8.39097e-07
9.66059e-07
-5.35517e-07
-4.92308e-07
9.99612e-07
-8.1457e-07
-3.82143e-07
8.76256e-07
-7.11258e-07
-4.54721e-07
1.7346e-06
-6.98612e-07
-2.65336e-07
8.70641e-07
-9.66172e-07
-1.23558e-06
1.36538e-06
-9.72081e-08
-2.0164e-06
-1.48246e-06
1.31137e-07
5.3841e-07
2.71548e-06
-4.18116e-06
1.19326e-05
6.13981e-06
-1.04057e-05
1.53098e-05
1.27425e-05
-1.19104e-05
3.58673e-05
-9.45856e-06
-1.25616e-05
4.91158e-06
-8.19343e-06
3.0154e-05
-1.22649e-05
8.98252e-06
6.09381e-06
-6.24777e-05
2.70931e-05
1.8032e-05
-8.30107e-05
1.06376e-05
6.81617e-06
-9.21549e-05
5.44129e-06
-2.19601e-07
-9.49118e-05
1.37522e-06
-2.20065e-06
-9.7067e-05
-2.76122e-07
-1.65945e-06
-9.83898e-05
-1.17715e-06
-1.3626e-06
-9.96984e-05
-1.73225e-06
-1.01967e-06
-0.000100362
-2.14613e-06
-1.00848e-06
-0.000100776
-2.22647e-06
-1.02476e-06
-0.000100829
-2.38617e-06
-1.1307e-06
-0.000100648
-2.25688e-06
-1.35704e-06
-0.000100325
-2.02935e-06
-1.55705e-06
-9.96122e-05
-2.07435e-06
-1.68373e-06
-9.87239e-05
-2.19957e-06
-1.77256e-06
-9.77221e-05
-2.31506e-06
-1.86969e-06
-9.66891e-05
-2.23173e-06
-1.98797e-06
-9.54404e-05
-2.02948e-06
-2.07642e-06
-9.39787e-05
-1.91727e-06
-2.15966e-06
-9.2208e-05
-1.70056e-06
-2.22994e-06
-9.00352e-05
-1.4262e-06
-2.37072e-06
-8.75493e-05
-7.08664e-07
-2.55968e-06
-8.48346e-05
-7.54263e-08
-2.76986e-06
-8.1782e-05
4.93113e-07
-2.97267e-06
-7.85367e-05
1.33214e-06
-3.2443e-06
-7.51747e-05
2.28745e-06
-3.58149e-06
-7.16605e-05
3.03083e-06
-3.9363e-06
-6.79458e-05
3.80202e-06
-4.24687e-06
-6.40383e-05
4.47138e-06
-4.50198e-06
-5.97481e-05
4.62656e-06
-4.63254e-06
-5.49119e-05
4.68223e-06
-4.7305e-06
-4.94502e-05
5.13609e-06
-4.96225e-06
-4.32675e-05
6.10271e-06
-5.34003e-06
-3.58777e-05
7.41569e-06
-5.97196e-06
-2.65969e-05
9.3733e-06
-6.98686e-06
-1.53541e-05
1.20146e-05
-7.91883e-06
1.28085e-05
-8.6559e-06
-6.11449e-06
-9.07189e-09
2.53009e-06
-3.92184e-06
-6.40629e-06
-2.20609e-06
-4.60344e-06
4.15324e-07
-1.0329e-06
-2.63788e-06
-3.15211e-06
-2.61222e-06
-2.28021e-06
8.45745e-07
-1.51223e-06
-1.14218e-06
-2.92998e-07
-1.91767e-06
-6.14709e-07
1.08411e-06
-1.36064e-06
-6.63506e-07
6.20425e-07
-4.76894e-07
-6.16297e-07
6.81392e-07
-1.64663e-07
-5.13779e-07
5.61804e-07
1.84758e-08
-1.73108e-07
5.6743e-07
-2.52457e-07