/*--------------------------------*- C++ -*----------------------------------*\
| =========                 |                                                 |
| \\      /  F ield         | OpenFOAM: The Open Source CFD Toolbox           |
|  \\    /   O peration     | Version:  2.3.0                                 |
|   \\  /    A nd           | Web:      www.OpenFOAM.org                      |
|    \\/     M anipulation  |                                                 |
\*---------------------------------------------------------------------------*/
FoamFile
{
    version     2.0;
    format      ascii;
    class       surfaceScalarField;
    location    "15";
    object      phi.air;
}
// * * * * * * * * * * * * * * * * * * * * * * * * * * * * * * * * * * * * * //

dimensions      [0 3 -1 0 0 0 0];

internalField   nonuniform List<scalar> 
16448
(
-8.39394e-07
-2.35815e-06
6.49033e-07
9.70653e-07
-2.36828e-06
5.5823e-07
1.15216e-06
-8.41793e-07
6.60276e-07
1.56395e-06
-1.03664e-06
6.24837e-07
1.37256e-06
-3.00217e-07
4.9159e-07
1.34198e-06
-3.98811e-07
4.29367e-07
1.0642e-06
-1.98315e-07
4.76083e-07
8.66523e-07
-2.86301e-07
4.83958e-07
4.95266e-07
-2.42893e-07
6.14133e-07
1.57458e-07
-2.90579e-07
6.2837e-07
-1.34537e-07
-3.32186e-07
6.24164e-07
-2.76861e-07
-4.22672e-07
5.64981e-07
-2.96866e-07
-5.08416e-07
5.28407e-07
-2.43385e-07
-5.67101e-07
5.13606e-07
-1.77122e-07
-5.9647e-07
5.30193e-07
-1.13549e-07
-6.12008e-07
5.48422e-07
-6.60424e-08
-6.19279e-07
5.71756e-07
-3.03287e-08
-6.23806e-07
5.88078e-07
-6.93067e-09
-6.26536e-07
6.03122e-07
8.80999e-09
-6.28062e-07
6.12308e-07
1.8155e-08
-6.29025e-07
6.19665e-07
2.41737e-08
-6.29562e-07
6.2353e-07
2.71224e-08
-6.29346e-07
6.26384e-07
2.86771e-08
-6.28998e-07
6.27432e-07
2.9013e-08
-6.28203e-07
6.27856e-07
2.88142e-08
-6.27303e-07
6.27492e-07
2.81709e-08
-6.26218e-07
6.26852e-07
2.73288e-08
-6.25058e-07
6.25892e-07
2.63261e-08
-6.23887e-07
6.24882e-07
2.50886e-08
-6.22569e-07
6.23801e-07
2.40859e-08
-6.21801e-07
6.22797e-07
2.18646e-08
-6.19768e-07
6.21985e-07
2.17598e-08
-6.206e-07
6.207e-07
1.7224e-08
-6.16069e-07
6.20602e-07
2.0302e-08
-6.20804e-07
6.17724e-07
1.13225e-08
-6.10452e-07
6.19432e-07
2.11738e-08
-6.22765e-07
6.12914e-07
4.87122e-09
-6.02311e-07
6.18617e-07
2.52458e-08
-6.24684e-07
6.04312e-07
2.58002e-09
-5.92604e-07
6.15275e-07
3.90497e-08
-6.23726e-07
5.87262e-07
2.97978e-08
-5.90045e-07
5.99305e-07
8.4258e-08
-6.18573e-07
5.64121e-07
1.12135e-07
-5.95436e-07
5.6757e-07
1.70289e-07
-6.02172e-07
5.44029e-07
2.01539e-07
-5.84455e-07
5.53218e-07
1.29902e-07
-5.00866e-07
5.72517e-07
-5.02794e-08
-4.66005e-07
6.46203e-07
-4.74348e-07
-2.40686e-07
6.64771e-07
-6.73002e-07
-5.4789e-07
7.46564e-07
-8.51682e-08
-1.32031e-06
7.32492e-07
7.48862e-08
-1.26762e-06
1.10759e-06
3.92595e-07
-1.54166e-06
1.22396e-06
-4.69106e-07
-4.78356e-07
1.34007e-06
-1.51109e-06
-6.30274e-07
1.67222e-06
-2.52066e-06
-2.18083e-06
3.19041e-06
-2.41512e-06
5.78772e-07
-6.85047e-07
-4.32453e-06
1.47215e-06
4.36406e-07
-9.77673e-06
3.52952e-06
1.58538e-06
-2.96659e-05
-2.1514e-05
1.22582e-05
-5.85364e-05
-1.64573e-05
3.48074e-06
-1.46331e-05
-2.45502e-06
1.55895e-06
2.37868e-05
-3.20819e-07
-1.98839e-06
2.57683e-05
-2.41206e-06
4.27706e-07
2.72983e-05
-1.30564e-06
-3.4942e-07
2.84651e-05
-1.59138e-07
-1.00461e-06
2.92421e-05
5.56436e-07
-1.32134e-06
2.97973e-05
8.89213e-07
-1.45243e-06
3.0157e-05
1.0501e-06
-1.433e-06
3.03228e-05
1.15137e-06
-1.34193e-06
3.03257e-05
1.21425e-06
-1.23723e-06
3.01878e-05
1.24262e-06
-1.11914e-06
2.99449e-05
1.23471e-06
-1.00235e-06
2.96312e-05
1.19522e-06
-8.93862e-07
2.92302e-05
1.14532e-06
-7.55769e-07
2.87408e-05
1.12383e-06
-6.4859e-07
2.81203e-05
1.1162e-06
-5.10758e-07
2.7267e-05
1.21653e-06
-3.74523e-07
2.61544e-05
1.33014e-06
-2.34084e-07
2.47397e-05
1.46272e-06
-5.59557e-08
2.29559e-05
1.69034e-06
8.87723e-08
2.09631e-05
1.69016e-06
2.91811e-07
1.87679e-05
1.69444e-06
5.12661e-07
1.62424e-05
1.78541e-06
7.57221e-07
1.34534e-05
1.69451e-06
1.09385e-06
1.04707e-05
1.55518e-06
1.42753e-06
6.93906e-06
1.46296e-06
2.0681e-06
2.88754e-06
1.74135e-06
2.45337e-06
-6.16268e-07
2.10112e-06
1.86362e-06
-3.32708e-06
1.94708e-06
1.07378e-06
-5.10311e-06
6.22285e-07
1.10774e-06
-6.46612e-06
-4.03549e-07
1.67575e-06
-7.73028e-06
-3.96615e-07
1.59789e-06
-7.17571e-06
1.08417e-07
-6.54446e-07
-4.95272e-06
5.1203e-07
-2.74008e-06
1.94951e-07
-4.44483e-06
-2.21663e-06
-3.85453e-06
6.70744e-08
-4.02469e-07
-3.9437e-06
-2.38742e-07
1.68079e-07
-1.78242e-06
3.70066e-07
8.47722e-07
-2.034e-06
3.17703e-07
8.48394e-07
-4.32676e-07
1.31767e-07
8.40677e-07
-5.70749e-07
1.79634e-07
5.96937e-07
-5.09859e-08
9.63925e-08
3.71432e-07
-2.2172e-07
1.60905e-07
9.89746e-08
-1.36378e-07
1.65924e-07
-1.8485e-07
-2.15315e-07
2.08543e-07
-4.0977e-07
-2.80097e-07
1.72814e-07
-4.90658e-07
-4.4967e-07
1.07871e-07
-4.58952e-07
-5.99414e-07
5.92761e-08
-3.66847e-07
-6.9654e-07
3.732e-08
-2.72606e-07
-7.34781e-07
4.40555e-08
-1.90308e-07
-7.49971e-07
5.56488e-08
-1.30101e-07
-7.49475e-07
6.99748e-08
-8.56939e-08
-7.47913e-07
7.96841e-08
-5.68064e-08
-7.43541e-07
8.81032e-08
-3.7679e-08
-7.40213e-07
9.30085e-08
-2.63566e-08
-7.36688e-07
9.63273e-08
-1.97883e-08
-7.33803e-07
9.76607e-08
-1.67734e-08
-7.3056e-07
9.81876e-08
-1.5881e-08
-7.27666e-07
9.77657e-08
-1.64028e-08
-7.24645e-07
9.69551e-08
-1.77384e-08
-7.21657e-07
9.56819e-08
-1.95793e-08
-7.18636e-07
9.42533e-08
-2.16733e-08
-7.15662e-07
9.26939e-08
-2.39378e-08
-7.1278e-07
9.11547e-08
-2.63971e-08
-7.09908e-07
8.97968e-08
-2.88656e-08
-7.07706e-07
8.83752e-08
-3.21446e-08
-7.03777e-07
8.72907e-08
-3.44747e-08
-7.04086e-07
8.58208e-08
-3.94713e-08
-6.96739e-07
8.56738e-08
-3.91441e-08
-7.03696e-07
8.25743e-08
-4.70322e-08
-6.86988e-07
8.44349e-08
-4.04287e-08
-7.07377e-07
7.80217e-08
-5.31829e-08
-6.73316e-07
8.37738e-08
-3.47456e-08
-7.13613e-07
7.05096e-08
-5.46865e-08
-6.55789e-07
8.31458e-08
-8.63966e-09
-7.25448e-07
5.56977e-08
-3.54952e-08
-6.42864e-07
7.96987e-08
5.01583e-08
-7.42776e-07
3.85765e-08
4.80451e-08
-6.56438e-07
6.31442e-08
1.67759e-07
-7.5613e-07
3.42761e-08
2.04628e-07
-6.5707e-07
3.57811e-08
2.585e-07
-6.30004e-07
7.53037e-08
2.44528e-07
-5.3309e-07
8.10967e-08
1.47072e-07
-3.05507e-07
1.62319e-07
1.80314e-07
-7.33402e-07
1.52313e-07
2.30895e-07
-1.69205e-06
3.21202e-07
-1.56751e-07
-1.58296e-06
7.03026e-07
-8.07544e-07
-1.40945e-06
5.18624e-07
-2.68241e-06
5.36834e-07
8.59715e-07
-8.0043e-07
-2.30859e-06
-2.03683e-07
1.29234e-06
-5.63751e-06
1.36392e-06
-2.68055e-06
7.2516e-06
-2.70075e-06
-9.6893e-06
9.44506e-06
-9.64646e-07
-7.75804e-06
7.25694e-06
-5.99716e-06
-2.91797e-05
-3.30148e-05
4.29893e-06
-7.35997e-05
-2.71357e-05
4.6814e-06
-3.3128e-05
-5.96707e-06
-3.22194e-07
1.19303e-05
-6.13209e-06
-3.11375e-06
1.47132e-05
-2.46013e-06
-3.06263e-06
1.70604e-05
7.46272e-08
-3.49812e-06
1.97986e-05
1.02328e-06
-3.89233e-06
2.22783e-05
1.78463e-06
-3.74177e-06
2.4196e-05
2.3358e-06
-3.36268e-06
2.55592e-05
2.64324e-06
-2.93715e-06
2.64829e-05
2.77673e-06
-2.52742e-06
2.70742e-05
2.79002e-06
-2.14981e-06
2.73987e-05
2.74396e-06
-1.81492e-06
2.75387e-05
2.65506e-06
-1.5572e-06
2.75458e-05
2.50509e-06
-1.31663e-06
2.7444e-05
2.35244e-06
-1.10276e-06
2.72573e-05
2.20445e-06
-8.93413e-07
2.68758e-05
2.12478e-06
-6.16324e-07
2.62598e-05
2.23682e-06
-3.89312e-07
2.53455e-05
2.39887e-06
-1.42307e-07
2.40562e-05
2.69402e-06
7.96885e-08
2.23346e-05
3.17617e-06
2.37606e-07
2.02659e-05
3.30782e-06
4.21984e-07
1.81279e-05
3.15849e-06
6.39719e-07
1.56825e-05
3.24299e-06
9.7157e-07
1.29275e-05
3.27618e-06
1.17603e-06
9.68312e-06
3.35285e-06
1.44649e-06
5.41692e-06
3.83176e-06
1.90849e-06
1.49169e-06
4.0284e-06
1.87787e-06
-1.02664e-06
3.72742e-06
1.34532e-06
-2.82729e-06
3.11933e-06
8.40915e-07
-4.2371e-06
1.51933e-06
4.21384e-07
-5.68181e-06
1.00605e-07
8.35934e-07
-6.896e-06
-9.72937e-08
8.52698e-07
-6.57464e-06
6.80824e-07
-9.00658e-07
-4.65076e-06
1.65749e-06
-3.04994e-06
1.84116e-06
-5.43465e-06
-3.57439e-06
-4.88508e-06
-1.7592e-07
-1.76488e-06
-5.23233e-06
-5.20886e-07
-1.18012e-06
-2.89185e-06
5.24653e-07
-1.40222e-07
-3.33984e-06
2.65928e-07
3.46329e-07
-1.14376e-06
2.24516e-07
4.93279e-07
-1.04591e-06
3.28193e-07
3.32484e-07
7.55375e-08
3.4254e-08
1.74996e-08
-1.37044e-08
1.06953e-07
-2.30026e-07
1.34565e-07
-2.34351e-08
-4.36823e-07
-1.81872e-08
9.65199e-09
-5.88957e-07
-9.9284e-08
-2.86956e-08
-6.23416e-07
-3.09598e-07
-1.05629e-07
-5.65399e-07
-4.79042e-07
-1.78404e-07
-4.64526e-07
-5.80352e-07
-2.17075e-07
-3.63175e-07
-6.07275e-07
-2.28874e-07
-2.77265e-07
-6.09035e-07
-2.26862e-07
-2.12888e-07
-5.949e-07
-2.18969e-07
-1.66057e-07
-5.8224e-07
-2.12519e-07
-1.34473e-07
-5.6752e-07
-2.07621e-07
-1.13337e-07
-5.55965e-07
-2.05398e-07
-1.00013e-07
-5.45392e-07
-2.04634e-07
-9.18851e-08
-5.366e-07
-2.05343e-07
-8.76325e-08
-5.28348e-07
-2.06477e-07
-8.5824e-08
-5.21475e-07
-2.0801e-07
-8.57129e-08
-5.15052e-07
-2.09714e-07
-8.67109e-08
-5.09043e-07
-2.11624e-07
-8.83854e-08
-5.03414e-07
-2.13555e-07
-9.04805e-08
-4.98101e-07
-2.15471e-07
-9.29215e-08
-4.93079e-07
-2.17264e-07
-9.55789e-08
-4.88284e-07
-2.18968e-07
-9.86596e-08
-4.83904e-07
-2.20723e-07
-1.01449e-07
-4.78928e-07
-2.22059e-07
-1.05258e-07
-4.77528e-07
-2.22746e-07
-1.08298e-07
-4.69941e-07
-2.23752e-07
-1.11397e-07
-4.75113e-07
-2.25479e-07
-1.15049e-07
-4.58523e-07
-2.24805e-07
-1.14776e-07
-4.79108e-07
-2.28531e-07
-1.19379e-07
-4.44016e-07
-2.24685e-07
-1.10056e-07
-4.8973e-07
-2.33192e-07
-1.16095e-07
-4.2654e-07
-2.23193e-07
-8.38393e-08
-5.14921e-07
-2.42765e-07
-9.31875e-08
-4.13341e-07
-2.20154e-07
-6.48307e-09
-5.69535e-07
-2.59922e-07
-3.72954e-08
-4.12261e-07
-2.13339e-07
9.6057e-08
-6.23847e-07
-2.65608e-07
6.83023e-08
-4.18367e-07
-2.10918e-07
1.64159e-07
-5.03394e-07
-2.22434e-07
1.20752e-07
-2.9949e-07
-1.90159e-07
1.11876e-07
-1.71265e-07
-1.25328e-07
2.11013e-07
-6.25624e-07
-2.06876e-07
-6.49216e-07
-1.04156e-06
2.0978e-07
-1.38534e-06
-1.20294e-06
3.56143e-07
-1.70664e-06
-7.73099e-07
-3.15016e-07
-2.914e-06
2.01065e-06
-2.66425e-07
-1.28999e-07
-4.04093e-06
-1.0527e-06
-1.24769e-06
-6.54743e-06
2.02864e-06
4.32284e-06
4.59738e-06
-2.91717e-06
1.55276e-06
1.42869e-05
-2.07155e-06
-2.91782e-06
1.40449e-05
-2.60888e-06
-2.58933e-05
-3.63517e-05
7.67531e-07
-3.60151e-05
-4.14893e-05
8.03626e-06
-3.45456e-06
-1.51698e-05
1.77436e-06
6.6355e-06
-1.46764e-05
-1.87308e-06
7.84987e-06
-1.15601e-06
-2.75098e-06
1.18424e-05
-1.21974e-07
-3.54879e-06
1.52658e-05
9.14055e-07
-3.40346e-06
1.76994e-05
2.00014e-06
-2.74822e-06
1.93901e-05
2.88649e-06
-2.29744e-06
2.05972e-05
3.35617e-06
-1.96299e-06
2.13989e-05
3.54771e-06
-1.60843e-06
2.18796e-05
3.52719e-06
-1.24985e-06
2.21649e-05
3.37207e-06
-9.40233e-07
2.2346e-05
3.11049e-06
-6.62265e-07
2.24499e-05
2.75879e-06
-3.80435e-07
2.25195e-05
2.39202e-06
-1.36846e-07
2.25205e-05
2.01737e-06
1.52075e-07
2.23536e-05
1.86126e-06
4.04033e-07
2.19675e-05
2.05354e-06
5.45021e-07
2.12447e-05
2.41399e-06
6.82698e-07
2.0173e-05
3.02706e-06
7.24554e-07
1.8723e-05
3.7933e-06
8.23922e-07
1.68886e-05
4.13614e-06
1.01464e-06
1.47731e-05
4.1713e-06
1.14798e-06
1.20302e-05
4.4348e-06
1.58693e-06
7.79095e-06
5.16967e-06
2.30623e-06
2.87484e-06
5.54016e-06
2.72068e-06
-5.35632e-07
5.16085e-06
2.29343e-06
-2.01572e-06
4.3227e-06
1.59486e-06
-2.68945e-06
3.68741e-06
1.03889e-06
-3.06138e-06
2.99471e-06
5.59315e-07
-3.71215e-06
1.86149e-06
2.3435e-07
-4.87396e-06
8.79142e-07
2.73172e-07
-5.89148e-06
7.54797e-07
1.04923e-07
-5.77375e-06
1.67582e-06
-1.15575e-06
-4.3766e-06
3.29332e-06
-3.00632e-06
4.09095e-06
-5.65679e-06
-4.79252e-06
-5.38888e-06
-3.49916e-07
-2.96868e-06
-6.15049e-06
-9.05678e-07
-2.53938e-06
-3.73691e-06
4.15754e-07
-1.28708e-06
-4.451e-06
-1.41163e-07
-6.18272e-07
-2.22674e-06
4.14162e-07
-2.7812e-08
-2.17218e-06
5.35798e-07
2.8936e-07
-4.31307e-07
1.89658e-07
5.13621e-08
-5.15196e-08
2.75796e-07
-2.07219e-07
3.54593e-07
3.85369e-08
-4.50072e-07
1.95446e-07
2.92024e-08
-5.81026e-07
7.10268e-08
-3.93733e-08
-6.11772e-07
-1.5074e-07
-1.2813e-07
-5.73079e-07
-2.9774e-07
-2.2001e-07
-5.01665e-07
-3.73369e-07
-2.78415e-07
-4.19146e-07
-3.79614e-07
-3.10196e-07
-3.44183e-07
-3.60934e-07
-3.23081e-07
-2.82605e-07
-3.30345e-07
-3.26148e-07
-2.36585e-07
-3.0324e-07
-3.25038e-07
-2.03523e-07
-2.77161e-07
-3.23436e-07
-1.81231e-07
-2.56276e-07
-3.21997e-07
-1.66172e-07
-2.38587e-07
-3.21878e-07
-1.57077e-07
-2.23965e-07
-3.21746e-07
-1.51997e-07
-2.11418e-07
-3.22021e-07
-1.4952e-07
-2.00904e-07
-3.23061e-07
-1.4883e-07
-1.91707e-07
-3.24045e-07
-1.4954e-07
-1.83638e-07
-3.24704e-07
-1.51116e-07
-1.76461e-07
-3.25384e-07
-1.53283e-07
-1.69989e-07
-3.25953e-07
-1.55913e-07
-1.64132e-07
-3.2632e-07
-1.58977e-07
-1.58727e-07
-3.26497e-07
-1.62721e-07
-1.53643e-07
-3.26517e-07
-1.66035e-07
-1.48869e-07
-3.26747e-07
-1.70682e-07
-1.45858e-07
-3.27021e-07
-1.73205e-07
-1.39946e-07
-3.27469e-07
-1.78045e-07
-1.42988e-07
-3.27278e-07
-1.79109e-07
-1.306e-07
-3.26853e-07
-1.81589e-07
-1.47812e-07
-3.28806e-07
-1.80517e-07
-1.18958e-07
-3.2612e-07
-1.74805e-07
-1.624e-07
-3.33028e-07
-1.70738e-07
-1.06317e-07
-3.24276e-07
-1.45309e-07
-1.98424e-07
-3.41908e-07
-1.43509e-07
-9.67597e-08
-3.18363e-07
-8.25995e-08
-2.74078e-07
-3.56345e-07
-1.04068e-07
-8.87156e-08
-3.02054e-07
-6.75365e-09
-3.60796e-07
-3.60338e-07
-8.26202e-08
-6.64458e-08
-2.76028e-07
-6.19029e-08
-2.19976e-07
-3.04104e-07
-1.6776e-07
4.91967e-08
-2.42798e-07
-2.49996e-07
1.24437e-07
-2.1343e-07
-3.84062e-07
-2.83419e-07
-2.08103e-07
-8.08067e-07
-5.59457e-07
-5.8055e-08
-1.26733e-06
-8.21575e-07
7.79419e-08
-1.03833e-06
-1.06994e-06
6.78709e-08
-7.26802e-07
1.32867e-06
3.70484e-07
1.56473e-06
-3.35636e-06
-2.97617e-06
-1.21868e-06
-4.26923e-06
5.05239e-07
5.99363e-06
7.92427e-07
-3.40802e-06
8.61489e-06
2.01017e-05
-8.43587e-06
1.14565e-05
7.39097e-06
3.26984e-06
-2.59517e-05
-3.19664e-05
4.26052e-06
-4.15364e-05
-4.39357e-05
9.94993e-06
-1.0347e-05
-1.39146e-05
2.99519e-06
-8.87285e-06
-1.54398e-05
8.50572e-07
-3.52179e-06
-2.22868e-06
-4.10146e-06
3.58412e-06
-3.29145e-06
-4.90839e-06
7.1265e-06
5.87885e-07
-3.07399e-06
9.80167e-06
1.04791e-06
-1.58994e-06
1.18313e-05
1.8354e-06
-9.26667e-07
1.33467e-05
2.31507e-06
-4.45281e-07
1.43884e-05
2.56931e-06
-3.34796e-08
1.49781e-05
2.56687e-06
3.91754e-07
1.52529e-05
2.3614e-06
7.51608e-07
1.5299e-05
1.99992e-06
1.0771e-06
1.51986e-05
1.5216e-06
1.3511e-06
1.49273e-05
1.12014e-06
1.55924e-06
1.45006e-05
8.04101e-07
1.65198e-06
1.3958e-05
8.08925e-07
1.61531e-06
1.33201e-05
1.19517e-06
1.51544e-06
1.25073e-05
1.89455e-06
1.34929e-06
1.15028e-05
2.81382e-06
1.2369e-06
9.82991e-06
3.88196e-06
1.58376e-06
6.76488e-06
4.78029e-06
2.36703e-06
2.59186e-06
5.25825e-06
3.03075e-06
-1.49745e-06
5.37908e-06
3.14915e-06
-4.33459e-06
5.25074e-06
2.84308e-06
-5.48621e-06
4.6026e-06
2.28554e-06
-5.37933e-06
3.79287e-06
1.5309e-06
-4.7794e-06
3.17559e-06
7.8342e-07
-3.98291e-06
2.86457e-06
1.50257e-07
-3.26925e-06
2.54762e-06
-2.49675e-07
-3.11666e-06
2.11793e-06
-4.48685e-07
-3.75621e-06
1.81096e-06
-3.57246e-07
-4.6445e-06
2.12279e-06
-5.52421e-07
-4.93294e-06
3.34722e-06
-1.43107e-06
-4.02509e-06
5.47904e-06
-3.02855e-06
6.85895e-06
-5.68453e-06
-5.39247e-06
-5.33329e-06
-5.16034e-07
-3.33695e-06
-6.50066e-06
-1.70535e-06
-2.9595e-06
-3.85266e-06
-2.61701e-07
-1.63749e-06
-4.80087e-06
-9.72149e-07
-1.14673e-06
-2.67212e-06
-4.53877e-08
-5.64875e-07
-2.98809e-06
2.34038e-07
-1.14491e-07
-1.16459e-06
2.82884e-07
-6.50174e-08
-4.40994e-07
3.39986e-07
-4.26301e-08
2.6333e-07
6.88572e-08
-2.43253e-07
3.72312e-07
2.37402e-08
-3.4688e-07
2.52947e-07
-7.83136e-08
-4.16871e-07
6.19967e-08
-1.42762e-07
-4.38363e-07
-6.38197e-08
-2.12448e-07
-4.28611e-07
-1.20939e-07
-2.62198e-07
-3.96198e-07
-1.1102e-07
-3.01027e-07
-3.5242e-07
-7.93117e-08
-3.25417e-07
-3.07479e-07
-3.73886e-08
-3.37916e-07
-2.6579e-07
-2.40004e-09
-3.42545e-07
-2.34673e-07
3.62301e-08
-3.44526e-07
-2.12863e-07
6.62534e-08
-3.44355e-07
-1.983e-07
8.99448e-08
-3.43112e-07
-1.89442e-07
1.08771e-07
-3.41607e-07
-1.83752e-07
1.23282e-07
-3.40405e-07
-1.80792e-07
1.34961e-07
-3.38837e-07
-1.79809e-07
1.44569e-07
-3.37272e-07
-1.80578e-07
1.52565e-07
-3.35444e-07
-1.82877e-07
1.59127e-07
-3.333e-07
-1.86227e-07
1.6448e-07
-3.31127e-07
-1.90245e-07
1.68886e-07
-3.29009e-07
-1.94591e-07
1.72639e-07
-3.27025e-07
-1.99217e-07
1.7599e-07
-3.25012e-07
-2.03465e-07
1.78735e-07
-3.23358e-07
-2.09399e-07
1.81326e-07
-3.21252e-07
-2.1352e-07
1.83953e-07
-3.19777e-07
-2.19492e-07
1.81526e-07
-3.18541e-07
-2.2131e-07
1.88603e-07
-3.17381e-07
-2.25854e-07
1.73773e-07
-3.17038e-07
-2.252e-07
1.9372e-07
-3.13325e-07
-2.22765e-07
1.51249e-07
-3.16077e-07
-2.17281e-07
1.94869e-07
-3.0666e-07
-2.00738e-07
1.01602e-07
-3.16558e-07
-1.96467e-07
1.91962e-07
-2.92978e-07
-1.70095e-07
1.47716e-08
-3.15208e-07
-1.80737e-07
1.93078e-07
-2.71134e-07
-2.14537e-07
-3.14853e-08
-2.95493e-07
-2.49785e-07
2.31217e-07
-2.62393e-07
-3.90002e-07
1.69803e-07
-2.49541e-07
-3.98362e-07
3.17367e-07
-2.59785e-07
-3.55381e-07
3.18453e-07
-2.36973e-07
-4.65273e-07
1.27228e-08
-1.86221e-07
-7.65027e-07
-2.65111e-07
5.43363e-09
-1.03905e-06
-4.57484e-07
-9.00401e-08
-1.04923e-06
-1.15641e-06
9.66703e-08
1.40788e-06
-7.99108e-07
-3.29325e-07
1.73481e-06
-3.41083e-07
-3.34231e-06
-2.42076e-06
3.59655e-06
-3.71021e-06
5.11147e-06
-4.51014e-07
-6.28919e-06
1.39142e-05
1.99061e-05
-8.60701e-06
1.43504e-05
-1.00009e-05
1.47814e-05
-4.44445e-05
-2.11136e-05
4.86517e-06
-0.000117465
-4.0401e-05
9.66598e-06
-0.000114525
-1.41594e-05
3.29621e-06
-0.000107582
-1.33334e-05
4.36134e-07
-8.09877e-05
-5.0962e-06
-1.33305e-06
-3.37061e-05
-4.86108e-06
-5.92718e-07
-5.81419e-06
-2.47256e-06
6.45815e-07
-3.43845e-06
-1.91873e-06
1.18021e-06
-1.60913e-06
-1.21121e-06
1.73711e-06
-3.73024e-07
-6.57824e-07
2.11577e-06
3.57258e-07
-3.33247e-07
2.49622e-06
4.27859e-07
-9.1395e-08
2.3449e-06
-9.4161e-08
-4.23746e-09
2.66782e-06
-1.27941e-06
6.03493e-08
2.91433e-06
-2.91469e-06
-3.012e-08
3.40187e-06
-4.81091e-06
-1.1915e-07
2.92297e-06
-6.81604e-06
-6.08052e-08
2.6058e-06
-8.42421e-06
3.01659e-08
2.11503e-06
-9.6228e-06
2.42467e-07
1.81444e-06
-1.05513e-05
7.01389e-07
1.74668e-06
-1.13893e-05
1.83749e-06
1.86297e-06
-1.20847e-05
2.5784e-06
2.06662e-06
-1.24847e-05
3.06296e-06
2.56335e-06
-1.25329e-05
3.32028e-06
2.09266e-06
-1.20885e-05
3.3171e-06
1.75715e-06
-1.11024e-05
3.16938e-06
1.23712e-06
-9.7801e-06
2.6967e-06
5.65055e-07
-8.32598e-06
2.56397e-06
-1.51026e-07
-6.79165e-06
2.45279e-06
-7.5504e-07
-5.18546e-06
2.51698e-06
-1.21611e-06
-3.7778e-06
2.653e-06
-1.4942e-06
-2.97851e-06
2.90342e-06
-1.57948e-06
-3.24723e-06
3.39841e-06
-1.34395e-06
-4.20058e-06
4.304e-06
-1.26918e-06
-4.5853e-06
5.53385e-06
-1.83217e-06
-3.73206e-06
7.87173e-06
-3.15295e-06
1.00771e-05
-5.75654e-06
-5.67379e-06
-5.16335e-06
-2.09357e-07
-3.40304e-06
-6.74443e-06
-2.02698e-06
-3.10302e-06
-3.26628e-06
-8.86417e-07
-1.63369e-06
-4.7657e-06
-1.5045e-06
-1.08022e-06
-2.20203e-06
-1.02358e-06
-6.59452e-07
-2.82098e-06
-5.87889e-07
-4.1181e-07
-1.3776e-06
-3.46497e-08
-3.58267e-07
-7.7354e-07
2.78986e-07
-2.06087e-07
5.28224e-08
5.83118e-08
-1.43273e-07
3.54125e-07
-4.4647e-08
-2.24526e-08
3.30321e-07
-1.98212e-07
-7.84643e-08
3.29442e-07
-2.11455e-07
-1.63495e-07
2.65251e-07
-2.44057e-07
-2.40174e-07
2.20087e-07
-2.64367e-07
-2.82002e-07
2.26134e-07
-2.95342e-07
-2.92254e-07
2.53228e-07
-3.22308e-07
-2.83563e-07
2.94073e-07
-3.40169e-07
-2.71052e-07
3.34549e-07
-3.49479e-07
-2.56695e-07
3.73591e-07
-3.51735e-07
-2.45461e-07
4.04838e-07
-3.49838e-07
-2.38398e-07
4.28755e-07
-3.45888e-07
-2.35272e-07
4.46371e-07
-3.40744e-07
-2.34751e-07
4.5818e-07
-3.35434e-07
-2.36302e-07
4.66276e-07
-3.2978e-07
-2.39407e-07
4.71644e-07
-3.23983e-07
-2.43559e-07
4.74889e-07
-3.18186e-07
-2.48401e-07
4.75988e-07
-3.12031e-07
-2.53676e-07
4.75725e-07
-3.05983e-07
-2.59293e-07
4.74724e-07
-3.0023e-07
-2.6501e-07
4.73239e-07
-2.94894e-07
-2.70619e-07
4.71595e-07
-2.90003e-07
-2.75842e-07
4.69749e-07
-2.85799e-07
-2.81678e-07
4.68765e-07
-2.81608e-07
-2.85817e-07
4.66697e-07
-2.78611e-07
-2.93163e-07
4.64074e-07
-2.75205e-07
-2.959e-07
4.64429e-07
-2.73093e-07
-3.03879e-07
4.53613e-07
-2.71862e-07
-3.0265e-07
4.60124e-07
-2.67636e-07
-3.07592e-07
4.28932e-07
-2.72741e-07
-2.99223e-07
4.48321e-07
-2.61821e-07
-3.05992e-07
3.83992e-07
-2.75618e-07
-2.98067e-07
4.35596e-07
-2.51558e-07
-3.50898e-07
3.33401e-07
-2.65795e-07
-3.50908e-07
4.35621e-07
-2.4253e-07
-5.32029e-07
3.71407e-07
-2.21766e-07
-5.31496e-07
4.88773e-07
-2.58087e-07
-7.15398e-07
5.55987e-07
-2.02276e-07
-5.5779e-07
4.72073e-07
-3.12309e-07
-2.78484e-07
3.73962e-07
-3.34808e-07
-1.32404e-07
1.84653e-07
-3.18004e-07
-8.16198e-07
3.48726e-07
6.99642e-08
-8.47823e-07
-1.90935e-07
-2.34919e-07
-1.10142e-06
-1.07862e-06
1.75812e-07
1.27287e-06
-2.35017e-06
-8.23247e-07
1.96335e-06
1.86814e-06
-2.89982e-06
1.20288e-06
9.81795e-06
-5.46095e-06
7.51071e-06
3.48468e-07
-7.10747e-06
2.89935e-05
7.79531e-06
-9.37195e-06
5.82333e-06
-1.37815e-05
2.1375e-05
-6.12842e-05
-1.33919e-05
4.63888e-06
-0.000124968
-3.06113e-05
1.32928e-05
-0.000126827
-1.21408e-05
5.06377e-06
-0.000118676
-9.57371e-06
7.42974e-07
-0.000121261
-6.78044e-06
-7.08191e-07
-0.000135718
-4.79067e-06
4.80806e-08
-0.000142186
-3.81672e-06
1.21886e-06
-0.000143265
-3.24709e-06
1.77021e-06
-0.000143812
-2.72386e-06
2.03666e-06
-0.000143488
-2.19674e-06
2.17416e-06
-0.000143943
-1.90922e-06
2.17806e-06
-0.000145342
-1.71218e-06
2.04616e-06
-0.000144297
-1.57631e-06
1.90829e-06
-0.000143175
-1.55844e-06
1.70744e-06
-0.000144133
-1.55516e-06
1.56448e-06
-0.000143154
-1.56898e-06
1.31538e-06
-0.000129808
-1.37646e-06
1.13365e-06
-0.000124152
-1.38339e-06
1.05706e-06
-0.000111697
-1.01966e-06
9.72521e-07
-6.04976e-05
-5.75092e-07
8.60405e-07
-2.58803e-05
-1.51756e-07
8.4587e-07
-2.42803e-05
5.64659e-07
6.75664e-07
-2.23437e-05
9.54505e-07
3.95423e-07
-2.02572e-05
1.5044e-06
-4.70102e-09
-1.89396e-05
1.98239e-06
-3.48049e-07
-6.03059e-05
2.35871e-06
-8.56249e-07
-0.000101864
2.78611e-06
-1.44989e-06
-5.66139e-05
3.07345e-06
-1.95775e-06
-1.06325e-05
3.54116e-06
-2.59604e-06
-8.45398e-06
3.92507e-06
-2.95814e-06
-5.6986e-06
4.54993e-06
-3.28499e-06
-3.30177e-06
5.33973e-06
-3.42509e-06
-2.22238e-06
6.33364e-06
-3.29516e-06
-2.17073e-06
6.92545e-06
-2.93777e-06
-2.63105e-06
8.53024e-06
-2.64225e-06
-2.38028e-06
1.12086e-05
-3.43221e-06
1.55585e-05
-5.37752e-06
-5.77613e-06
-4.67702e-06
1.65728e-07
-3.59005e-06
-6.76978e-06
-2.16073e-06
-3.68853e-06
-2.37937e-06
-7.88426e-07
-1.98844e-06
-4.50583e-06
-1.95997e-06
-1.11749e-06
-1.4407e-06
-1.6323e-06
-5.1561e-07
-2.06923e-06
-1.35363e-06
-2.79021e-07
-7.45119e-07
-8.69083e-07
-4.33038e-07
-5.58279e-07
-6.12596e-08
-3.97006e-07
1.68399e-07
-1.51628e-07
-2.19525e-07
4.18051e-07
-2.41424e-07
1.05849e-07
4.31119e-07
-4.26192e-07
1.66453e-07
6.20824e-07
-3.52004e-07
6.70527e-08
6.54336e-07
-2.89707e-07
-6.32037e-08
6.05907e-07
-2.55581e-07
-1.57225e-07
5.85882e-07
-2.65748e-07
-2.16456e-07
5.95499e-07
-2.83058e-07
-2.51633e-07
6.25496e-07
-2.96267e-07
-2.71774e-07
6.57726e-07
-3.03052e-07
-2.84874e-07
6.88902e-07
-3.0223e-07
-2.94721e-07
7.12197e-07
-2.97529e-07
-3.03012e-07
7.28406e-07
-2.9138e-07
-3.10486e-07
7.38373e-07
-2.84544e-07
-3.17756e-07
7.43108e-07
-2.77678e-07
-3.24288e-07
7.43969e-07
-2.71177e-07
-3.30066e-07
7.42488e-07
-2.65085e-07
-3.35613e-07
7.39633e-07
-2.59212e-07
-3.41058e-07
7.34805e-07
-2.53388e-07
-3.46704e-07
7.28651e-07
-2.47294e-07
-3.52389e-07
7.21892e-07
-2.415e-07
-3.57844e-07
7.14807e-07
-2.36126e-07
-3.63061e-07
7.07776e-07
-2.3098e-07
-3.67518e-07
7.00402e-07
-2.26209e-07
-3.71599e-07
6.94578e-07
-2.21746e-07
-3.73909e-07
6.88177e-07
-2.19183e-07
-3.78772e-07
6.84056e-07
-2.15134e-07
-3.78904e-07
6.78831e-07
-2.14282e-07
-3.86902e-07
6.72064e-07
-2.10467e-07
-3.82696e-07
6.67106e-07
-2.112e-07
-3.96754e-07
6.52143e-07
-2.09166e-07
-3.87957e-07
6.47501e-07
-2.07989e-07
-4.26444e-07
6.26004e-07
-2.03539e-07
-4.20461e-07
6.31702e-07
-2.02102e-07
-5.31337e-07
6.17655e-07
-1.73395e-07
-5.29795e-07
6.38425e-07
-2.04362e-07
-7.5717e-07
7.17451e-07
-1.18687e-07
-7.26125e-07
6.93009e-07
-2.35299e-07
-8.90187e-07
8.6815e-07
-1.48122e-07
-6.85648e-07
5.85934e-07
-3.18419e-07
-3.78403e-07
5.31884e-07
-4.65189e-07
-4.35022e-08
2.75219e-07
-4.25488e-07
-4.9749e-07
9.63464e-07
-1.60775e-07
-5.14588e-07
9.39104e-08
-2.67771e-07
-2.38746e-06
2.97987e-07
4.96236e-07
-2.54052e-06
-2.13209e-06
-6.50496e-08
3.66691e-07
1.08917e-06
-2.12833e-06
8.94265e-06
7.12835e-06
-5.88644e-06
1.44168e-05
4.2093e-06
-9.33523e-06
3.59054e-05
-1.46262e-06
-1.22305e-05
-3.85531e-06
-8.9951e-06
2.39914e-05
-9.36085e-05
-1.88214e-06
5.62651e-06
-0.000156765
-4.68183e-06
1.61303e-05
-0.000161765
-4.15311e-06
6.3639e-06
-0.000168329
-3.55407e-06
9.32989e-07
-0.000177573
-3.91866e-06
-5.05883e-07
-0.000172063
-3.61752e-06
-4.17383e-07
-0.000165322
-3.72078e-06
-6.50365e-08
-0.000160682
-3.80113e-06
2.44931e-07
-0.000167444
-3.58944e-06
4.53068e-07
-0.00017834
-3.42565e-06
5.12773e-07
-0.000180456
-3.36028e-06
4.2245e-07
-0.000172645
-3.21034e-06
3.0247e-07
-0.000167518
-3.05584e-06
2.16102e-07
-0.000166046
-3.0015e-06
1.47212e-07
-0.000165815
-3.09374e-06
1.80441e-08
-0.00017304
-3.14792e-06
-1.99932e-07
-0.000176174
-2.97159e-06
-4.31906e-07
-0.000176513
-2.72659e-06
-4.66553e-07
-0.000170749
-2.49373e-06
-6.08643e-07
-0.000166506
-2.08431e-06
-7.32741e-07
-0.00016472
-1.3513e-06
-9.34327e-07
-0.0001577
-3.95916e-07
-1.15303e-06
-0.000152545
2.61995e-07
-1.42871e-06
-0.000154079
1.10285e-06
-1.82431e-06
-0.000154015
1.86425e-06
-2.12809e-06
-0.000154517
2.59833e-06
-2.52779e-06
-0.000140067
3.20336e-06
-2.82308e-06
-0.000134312
3.93756e-06
-3.37396e-06
-0.00014109
4.66927e-06
-3.69938e-06
-0.000135216
5.15871e-06
-3.90499e-06
-0.000132162
5.9785e-06
-4.09987e-06
-0.000121708
7.02456e-06
-4.26381e-06
-5.97144e-05
8.40494e-06
-4.35417e-06
-4.66293e-06
9.96779e-06
-4.82263e-06
-3.14579e-06
1.24555e-05
-4.5901e-06
-5.84429e-05
1.60837e-05
-5.2131e-06
1.90057e-05
-6.07766e-06
-5.91818e-06
-3.64147e-06
4.97261e-07
-3.91052e-06
-6.41973e-06
-2.35771e-06
-4.36141e-06
-1.29917e-06
-6.29315e-07
-2.36858e-06
-3.79876e-06
-2.69991e-06
-1.56993e-06
-3.08797e-07
-1.93056e-06
-6.27408e-07
-1.07262e-06
-1.93915e-06
-1.4327e-07
2.50953e-07
-1.48023e-06
-3.74237e-07
9.47521e-08
-4.22083e-07
-4.34777e-07
5.63958e-07
-3.35037e-07
-3.45389e-07
6.82817e-07
-3.54174e-07
4.08308e-08
6.55663e-07
-6.10783e-07
1.8303e-07
9.75181e-07
-4.96577e-07
1.57053e-07
1.09648e-06
-4.16189e-07
6.97249e-08
1.05093e-06
-3.57721e-07
-2.5261e-08
1.02943e-06
-3.48578e-07
-1.1594e-07
1.04417e-06
-3.58013e-07
-1.95206e-07
1.07809e-06
-3.73348e-07
-2.58185e-07
1.10833e-06
-3.87651e-07
-3.04873e-07
1.13697e-06
-4.01395e-07
-3.39873e-07
1.16025e-06
-4.13077e-07
-3.66541e-07
1.17786e-06
-4.22805e-07
-3.87621e-07
1.19057e-06
-4.31138e-07
-4.05776e-07
1.19999e-06
-4.38747e-07
-4.22473e-07
1.20681e-06
-4.46166e-07
-4.38547e-07
1.21178e-06
-4.53239e-07
-4.54465e-07
1.21422e-06
-4.58689e-07
-4.66445e-07
1.20916e-06
-4.62391e-07
-4.7486e-07
1.20252e-06
-4.65476e-07
-4.81487e-07
1.19653e-06
-4.68033e-07
-4.8696e-07
1.19094e-06
-4.70682e-07
-4.91512e-07
1.18595e-06
-4.73641e-07
-4.95244e-07
1.18098e-06
-4.76869e-07
-4.99594e-07
1.17757e-06
-4.78663e-07
-5.02517e-07
1.1732e-06
-4.82125e-07
-5.06375e-07
1.17206e-06
-4.84165e-07
-5.05634e-07
1.16794e-06
-4.89874e-07
-5.15648e-07
1.1711e-06
-4.89048e-07
-5.10974e-07
1.16135e-06
-4.98948e-07
-5.41794e-07
1.17609e-06
-4.93152e-07
-5.35905e-07
1.14868e-06
-5.07093e-07
-6.1933e-07
1.19597e-06
-4.86568e-07
-6.20565e-07
1.14505e-06
-5.12144e-07
-8.04083e-07
1.25152e-06
-4.50383e-07
-8.00071e-07
1.15511e-06
-5.2074e-07
-1.03296e-06
1.32952e-06
-3.79224e-07
-9.60411e-07
1.14691e-06
-5.26501e-07
-9.94439e-07
1.31167e-06
-4.09543e-07
-8.39098e-07
9.66059e-07
-5.35517e-07
-4.9231e-07
9.99612e-07
-8.1457e-07
-3.82145e-07
8.76256e-07
-7.11258e-07
-4.54723e-07
1.7346e-06
-6.98612e-07
-2.65341e-07
8.70641e-07
-9.66172e-07
-1.2356e-06
1.36538e-06
-9.7208e-08
-2.01642e-06
-1.48246e-06
1.31137e-07
5.38289e-07
2.71548e-06
-4.18116e-06
1.19324e-05
6.13981e-06
-1.04057e-05
1.53093e-05
1.27425e-05
-1.19104e-05
3.58671e-05
-9.45856e-06
-1.25616e-05
-9.73714e-06
-8.19343e-06
3.0154e-05
-0.000115643
1.24096e-05
6.64336e-06
-0.000191195
2.99171e-05
2.19957e-05
-0.000210241
1.10858e-05
6.29187e-06
-0.000220526
5.57123e-06
6.49279e-07
-0.000224902
2.02293e-06
-1.36835e-06
-0.000226703
4.08491e-07
-8.07072e-07
-0.000229501
-5.55423e-07
-5.86702e-07
-0.000234111
-1.60729e-06
-3.11092e-07
-0.000234955
-2.08815e-06
-2.69713e-07
-0.000234475
-1.85661e-06
-3.53407e-07
-0.000236174
-2.03418e-06
-4.83773e-07
-0.000237437
-1.87749e-06
-6.76301e-07
-0.00023783
-1.72197e-06
-8.00806e-07
-0.000238199
-1.75578e-06
-8.76022e-07
-0.000238292
-1.80486e-06
-9.42125e-07
-0.000237983
-1.88627e-06
-1.04739e-06
-0.000238023
-1.80816e-06
-1.18856e-06
-0.000237819
-1.65494e-06
-1.29453e-06
-0.000236986
-1.53282e-06
-1.3822e-06
-0.000235804
-1.3125e-06
-1.48084e-06
-0.00023459
-9.35079e-07
-1.68721e-06
-0.000233001
-1.32949e-07
-1.96867e-06
-0.000231123
6.6087e-07
-2.19705e-06
-0.00022902
1.46456e-06
-2.45131e-06
-0.000226703
2.33705e-06
-2.78072e-06
-0.000224276
3.21017e-06
-3.14834e-06
-0.000221659
3.9834e-06
-3.49177e-06
-0.000218834
4.76831e-06
-3.77936e-06
-0.000215221
5.48102e-06
-4.011e-06
-0.000211864
5.6857e-06
-4.17837e-06
-0.000207456
6.08386e-06
-4.37811e-06
-0.000201499
6.81645e-06
-4.78976e-06
-0.000196999
8.02215e-06
-5.32803e-06
-0.000187906
9.58782e-06
-6.02462e-06
-0.000178252
1.10993e-05
-6.89983e-06
-0.00016905
1.29963e-05
-7.44741e-06
1.2725e-05
-6.94013e-06
-6.11449e-06
-9.0719e-09
2.53009e-06
-3.92184e-06
-6.40629e-06
-2.20609e-06
-4.60344e-06
4.15324e-07
-1.0329e-06
-2.63788e-06
-3.15211e-06
-2.61222e-06
-2.28021e-06
8.45745e-07
-1.51223e-06
-1.14218e-06
-2.92998e-07
-1.91767e-06
-6.1471e-07
1.08411e-06
-1.36064e-06
-6.63507e-07
6.20425e-07
-4.76894e-07
-6.16297e-07
6.81392e-07
-1.64663e-07
-5.1378e-07
5.61804e-07
1.84758e-08
-1.73109e-07
5.6743e-07
-2.52457e-07