/*--------------------------------*- C++ -*----------------------------------*\
| =========                 |                                                 |
| \\      /  F ield         | OpenFOAM: The Open Source CFD Toolbox           |
|  \\    /   O peration     | Version:  2.3.0                                 |
|   \\  /    A nd           | Web:      www.OpenFOAM.org                      |
|    \\/     M anipulation  |                                                 |
\*---------------------------------------------------------------------------*/
FoamFile
{
    version     2.0;
    format      ascii;
    class       surfaceScalarField;
    location    "15";
    object      phi.air;
}
// * * * * * * * * * * * * * * * * * * * * * * * * * * * * * * * * * * * * * //

dimensions      [0 3 -1 0 0 0 0];

internalField   nonuniform List<scalar> 
16448
(
-1.29055e-06
-3.01808e-06
8.96786e-07
8.38409e-07
-2.92316e-06
7.942e-07
1.3726e-06
-1.42786e-06
8.93665e-07
1.91838e-06
-1.3021e-06
7.5631e-07
1.70159e-06
-3.21077e-07
5.37861e-07
1.57679e-06
-3.18493e-07
4.43288e-07
1.20884e-06
-9.3472e-08
4.61406e-07
9.10082e-07
-2.17686e-07
5.16441e-07
4.55786e-07
-2.05506e-07
6.59795e-07
5.44708e-08
-2.74387e-07
6.75696e-07
-2.91667e-07
-3.06114e-07
6.52247e-07
-4.60561e-07
-3.94167e-07
5.63055e-07
-4.74164e-07
-4.82365e-07
4.95962e-07
-3.95033e-07
-5.42854e-07
4.63717e-07
-3.01184e-07
-5.67841e-07
4.73985e-07
-2.14791e-07
-5.7783e-07
4.91429e-07
-1.49652e-07
-5.7962e-07
5.14472e-07
-1.01015e-07
-5.79431e-07
5.30786e-07
-6.76156e-08
-5.77828e-07
5.44418e-07
-4.45218e-08
-5.7545e-07
5.52347e-07
-2.94771e-08
-5.72614e-07
5.57559e-07
-1.97723e-08
-5.69161e-07
5.59446e-07
-1.41361e-08
-5.65351e-07
5.59704e-07
-1.12486e-08
-5.61044e-07
5.58145e-07
-1.04859e-08
-5.56423e-07
5.55649e-07
-1.14479e-08
-5.51346e-07
5.52297e-07
-1.38182e-08
-5.45931e-07
5.4829e-07
-1.74681e-08
-5.4004e-07
5.43678e-07
-2.20825e-08
-5.33696e-07
5.38298e-07
-2.75696e-08
-5.26643e-07
5.32118e-07
-3.33057e-08
-5.18758e-07
5.24482e-07
-3.89315e-08
-5.09781e-07
5.15395e-07
-4.2675e-08
-4.99639e-07
5.0337e-07
-4.31124e-08
-4.88236e-07
4.8866e-07
-3.51885e-08
-4.76743e-07
4.68807e-07
-1.4973e-08
-4.65577e-07
4.45348e-07
2.47358e-08
-4.55862e-07
4.1614e-07
8.65155e-08
-4.48892e-07
3.87099e-07
1.7118e-07
-4.46683e-07
3.62005e-07
2.63042e-07
-4.50288e-07
3.58413e-07
3.296e-07
-4.5545e-07
3.88879e-07
3.3019e-07
-4.68289e-07
4.67685e-07
2.14738e-07
-4.78492e-07
5.9393e-07
-3.03862e-08
-4.98856e-07
7.43967e-07
-3.59924e-07
-5.46484e-07
8.76008e-07
-7.54986e-07
-5.92947e-07
9.87997e-07
-1.24993e-06
-6.62356e-07
1.15729e-06
-1.95058e-06
-6.71449e-07
1.37209e-06
-2.97078e-06
-4.64294e-07
1.48448e-06
-3.8667e-06
-5.69217e-07
1.46513e-06
-1.72799e-06
-3.88107e-06
1.74235e-06
2.12515e-06
-6.24764e-06
2.39449e-06
4.77225e-06
-6.06001e-06
3.4129e-06
7.7367e-06
-6.75066e-06
3.78619e-06
9.60731e-06
-6.77559e-06
4.90495e-06
1.2205e-05
-7.24447e-06
4.64675e-06
9.82311e-06
-5.38046e-06
7.76232e-06
1.17618e-05
-6.75754e-06
4.81874e-06
-1.03715e-05
4.13574e-06
1.77123e-05
-3.03528e-05
-5.84611e-06
-4.74352e-06
-6.32795e-05
-1.5071e-05
1.80967e-06
-1.68531e-05
-2.24393e-06
7.8367e-06
2.19684e-05
-5.53407e-07
5.08918e-06
2.27831e-05
-4.44077e-06
3.43792e-06
2.20657e-05
-1.52498e-06
2.28874e-06
2.17101e-05
-1.32823e-06
1.67336e-06
2.14819e-05
-1.89024e-06
2.04955e-06
2.0501e-05
-1.92972e-06
2.84964e-06
1.94539e-05
-3.35818e-06
4.37453e-06
1.64824e-05
-3.12535e-06
6.11448e-06
1.22396e-05
-3.63949e-06
7.75158e-06
1.0377e-05
-6.7194e-06
8.42124e-06
1.11689e-05
-8.94688e-06
8.07679e-06
1.22967e-05
-8.54004e-06
7.33751e-06
1.35713e-05
-7.86357e-06
6.50322e-06
1.42496e-05
-6.37193e-06
5.64512e-06
1.44296e-05
-5.14447e-06
4.90363e-06
1.4388e-05
-4.14751e-06
4.10495e-06
1.32666e-05
-2.07527e-06
3.15778e-06
9.97713e-06
1.14169e-06
2.16454e-06
4.86077e-06
3.1203e-06
1.91919e-06
8.36978e-07
2.4204e-06
1.53725e-06
9.12762e-07
7.02775e-08
-7.25751e-08
6.37349e-06
7.76811e-08
-5.57243e-06
1.34337e-05
1.0029e-06
-8.11795e-06
1.84027e-05
1.39432e-06
-6.40921e-06
2.10774e-05
2.17309e-06
-4.8609e-06
2.04029e-05
1.65506e-06
-9.58975e-07
1.55378e-05
4.85817e-08
4.75102e-06
9.26677e-06
2.73552e-07
6.04901e-06
4.12186e-06
1.31286e-06
4.01447e-06
9.91223e-07
1.03799e-06
2.17465e-06
-8.56011e-07
9.77688e-08
1.77206e-06
-1.59825e-06
-1.21232e-06
2.08366e-06
-5.75748e-07
-3.06312e-06
2.2336e-06
-2.36478e-06
2.48317e-06
-3.55846e-06
-4.65331e-06
9.74329e-08
-1.83238e-06
-4.57231e-06
-7.69337e-08
-9.31399e-07
-2.85155e-06
5.22702e-07
2.44953e-07
-2.74531e-06
2.66844e-07
7.74293e-07
-8.91177e-07
4.07475e-08
9.81991e-07
-5.95176e-07
6.89716e-08
7.6745e-07
6.2364e-08
5.86937e-08
4.58734e-07
-9.78869e-08
1.88906e-07
5.97988e-08
-4.80021e-08
2.41421e-07
-3.0154e-07
-1.89164e-07
2.76107e-07
-5.89442e-07
-2.41601e-07
2.2338e-07
-6.9113e-07
-4.18934e-07
1.26446e-07
-6.48358e-07
-5.7978e-07
5.46329e-08
-5.29419e-07
-6.80841e-07
1.90379e-08
-4.06821e-07
-7.10242e-07
1.97906e-08
-3.00306e-07
-7.13112e-07
2.87538e-08
-2.20717e-07
-7.01548e-07
4.23254e-08
-1.6194e-07
-6.89809e-07
5.1586e-08
-1.21225e-07
-6.76794e-07
5.82368e-08
-9.31804e-08
-6.6511e-07
6.15986e-08
-7.48565e-08
-6.54097e-07
6.31421e-08
-6.32708e-08
-6.43686e-07
6.29219e-08
-5.65467e-08
-6.33714e-07
6.16208e-08
-5.30348e-08
-6.23838e-07
5.92635e-08
-5.19198e-08
-6.13965e-07
5.64075e-08
-5.25452e-08
-6.03847e-07
5.31059e-08
-5.44572e-08
-5.93507e-07
4.94676e-08
-5.73188e-08
-5.82687e-07
4.54874e-08
-6.06158e-08
-5.71457e-07
4.10376e-08
-6.40171e-08
-5.59317e-07
3.60531e-08
-6.65368e-08
-5.46404e-07
3.01435e-08
-6.76039e-08
-5.32004e-07
2.32673e-08
-6.49932e-08
-5.1707e-07
1.47973e-08
-5.80707e-08
-5.00515e-07
5.33318e-09
-3.93877e-08
-4.84658e-07
-1.07917e-08
-5.21797e-09
-4.69312e-07
-3.04587e-08
5.06818e-08
-4.60285e-07
-5.15017e-08
1.28189e-07
-4.57482e-07
-6.89423e-08
2.22985e-07
-4.63794e-07
-7.77109e-08
3.20277e-07
-4.80453e-07
-6.71525e-08
3.91853e-07
-5.01772e-07
-2.52802e-08
4.0718e-07
-5.27301e-07
4.36589e-08
3.13861e-07
-5.27585e-07
1.42385e-07
8.89709e-08
-5.1602e-07
2.42028e-07
-2.51062e-07
-5.36417e-07
3.2994e-07
-6.55034e-07
-6.02638e-07
4.13639e-07
-1.53296e-06
-4.82586e-07
6.9813e-07
-3.18938e-06
-1.43615e-07
1.12857e-06
-4.49154e-06
-1.06457e-07
9.44298e-07
-3.44387e-06
-1.56511e-06
-5.17989e-08
7.05643e-07
-7.49547e-06
-5.35133e-07
4.46199e-06
-1.0045e-05
4.09351e-08
7.94001e-06
-1.0143e-05
6.04879e-07
1.30505e-05
-1.20147e-05
1.53487e-07
1.696e-05
-1.25687e-05
1.88361e-06
2.30774e-05
-1.33854e-05
2.34878e-08
2.20534e-05
-9.54166e-06
5.18512e-06
2.26993e-05
-1.0311e-05
2.90748e-06
-3.72556e-06
8.8305e-07
2.93129e-05
-3.31271e-05
-7.40487e-06
-2.99665e-06
-7.85392e-05
-1.58075e-05
-7.99059e-07
-3.63619e-05
-3.67778e-06
1.13966e-05
2.68475e-06
-2.41396e-06
2.0516e-06
-2.36417e-06
-8.18988e-07
1.96946e-06
-5.39361e-06
2.29542e-07
5.54448e-07
-9.33731e-06
-6.34111e-07
1.12437e-06
-1.20618e-05
-5.35137e-06
4.05097e-06
-1.34608e-05
-7.44471e-06
5.20852e-06
-1.26457e-05
-1.17275e-05
6.1704e-06
-1.06503e-05
-1.19608e-05
7.12851e-06
-8.09737e-06
-1.3959e-05
7.10009e-06
-6.37679e-06
-1.45885e-05
6.22906e-06
-4.56543e-06
-1.5507e-05
4.84447e-06
-2.41883e-06
-1.41589e-05
3.59931e-06
-6.42475e-07
-1.24552e-05
2.95296e-06
9.49345e-09
-1.00241e-05
3.18127e-06
-1.0521e-08
-7.88808e-06
2.88803e-06
-5.10334e-07
-6.29179e-06
2.70924e-06
-1.2131e-06
-3.48115e-06
2.08632e-06
-1.72178e-06
7.61244e-07
7.72818e-07
-2.19403e-06
3.45884e-06
1.52093e-07
-9.49211e-07
2.94805e-06
-1.77432e-06
2.22937e-06
1.59315e-06
-4.61039e-06
8.82993e-06
4.17084e-06
-1.07364e-05
1.5257e-05
5.99721e-06
-1.1433e-05
1.95819e-05
6.02157e-06
-8.99465e-06
2.14949e-05
6.31834e-06
-6.09159e-06
2.05113e-05
3.76884e-06
-1.14349e-06
1.49985e-05
1.03956e-06
4.43538e-06
8.72817e-06
1.33124e-06
5.30823e-06
5.39697e-06
1.60482e-06
3.26087e-06
3.57968e-06
1.51709e-06
1.45056e-06
1.22017e-06
1.15262e-06
1.33483e-06
-3.19516e-07
-1.34665e-06
1.84648e-06
2.89943e-07
-3.9911e-06
5.88539e-07
-2.91449e-06
1.62825e-06
-4.98198e-06
-5.30173e-06
-2.045e-07
-3.69777e-06
-5.48452e-06
-3.71993e-07
-2.93387e-06
-3.90298e-06
2.87534e-07
-1.48963e-06
-4.04327e-06
-1.46281e-07
-4.01855e-07
-1.98393e-06
4.96324e-09
2.71201e-07
-1.3535e-06
8.52569e-08
3.64596e-07
8.81268e-08
-1.19167e-07
6.13492e-08
1.225e-07
8.28501e-08
-2.9029e-07
2.5101e-07
5.26181e-08
-5.62828e-07
-8.05889e-09
9.14249e-08
-7.49256e-07
-8.80795e-08
3.28986e-08
-7.85987e-07
-3.18085e-07
-6.41277e-08
-7.19915e-07
-4.91459e-07
-1.54403e-07
-6.05235e-07
-5.89932e-07
-2.056e-07
-4.88757e-07
-5.99335e-07
-2.27396e-07
-3.86856e-07
-5.83466e-07
-2.3156e-07
-3.07538e-07
-5.53536e-07
-2.27343e-07
-2.47914e-07
-5.26068e-07
-2.2338e-07
-2.05237e-07
-4.99126e-07
-2.2036e-07
-1.75406e-07
-4.75576e-07
-2.19381e-07
-1.55279e-07
-4.5431e-07
-2.1993e-07
-1.42136e-07
-4.35261e-07
-2.21586e-07
-1.33938e-07
-4.18031e-07
-2.23898e-07
-1.29118e-07
-4.0188e-07
-2.26796e-07
-1.2679e-07
-3.8637e-07
-2.29942e-07
-1.26271e-07
-3.71155e-07
-2.3323e-07
-1.27198e-07
-3.5606e-07
-2.3654e-07
-1.29124e-07
-3.40826e-07
-2.39955e-07
-1.31344e-07
-3.25697e-07
-2.4356e-07
-1.33283e-07
-3.10021e-07
-2.47377e-07
-1.34124e-07
-2.93974e-07
-2.51611e-07
-1.32762e-07
-2.77134e-07
-2.56253e-07
-1.27429e-07
-2.6082e-07
-2.61604e-07
-1.16118e-07
-2.44393e-07
-2.67455e-07
-9.60388e-08
-2.31115e-07
-2.73646e-07
-6.6981e-08
-2.19288e-07
-2.79104e-07
-3.1738e-08
-2.13678e-07
-2.81873e-07
2.332e-09
-2.1153e-07
-2.80046e-07
2.26164e-08
-2.16626e-07
-2.67477e-07
1.63907e-08
-2.32326e-07
-2.41926e-07
-2.55535e-08
-2.59152e-07
-2.00701e-07
-1.06404e-07
-2.96129e-07
-1.50346e-07
-2.33405e-07
-3.09478e-07
-9.11316e-08
-4.38378e-07
-2.66274e-07
-4.47976e-08
-7.49691e-07
-2.33832e-07
8.70308e-09
-1.11702e-06
-3.27539e-07
9.2201e-08
-1.76246e-06
-2.00818e-07
3.63652e-07
-2.997e-06
3.58017e-07
7.32891e-07
-3.84194e-06
2.68558e-07
4.69909e-07
-1.05488e-06
-2.88924e-06
-1.46295e-06
2.994e-06
-9.48337e-06
-2.06101e-06
6.11793e-06
-1.13675e-05
-1.80143e-06
1.06442e-05
-1.26727e-05
-1.9965e-06
1.64028e-05
-1.61841e-05
-1.58921e-06
2.12299e-05
-1.56265e-05
-1.76944e-06
2.85995e-05
-1.8617e-05
-2.13803e-06
3.03024e-05
-1.04079e-05
-8.36714e-07
2.81542e-05
-1.62674e-05
8.10444e-06
-1.87334e-06
-1.23526e-06
3.13808e-05
-4.05382e-05
-5.55414e-06
-3.69949e-06
-0.000103418
-1.53942e-05
-4.90073e-06
-9.92703e-05
-5.94961e-06
4.72634e-06
-0.000100874
-1.62498e-06
1.76424e-06
-0.000107637
3.03195e-06
4.30785e-06
-0.000110399
1.39627e-06
2.98267e-06
-0.000112868
-1.27454e-06
3.65084e-06
-0.000110586
-5.98721e-06
3.24101e-06
-9.63817e-05
-8.62773e-06
3.33842e-06
-5.21541e-05
-1.29924e-05
2.21378e-06
-3.43805e-05
-1.36311e-05
1.32342e-06
-3.27195e-05
-1.50003e-05
-1.87295e-07
-1.35646e-05
-1.50052e-05
-9.42859e-07
-1.06233e-05
-1.44165e-05
-2.20079e-06
-7.52581e-06
-1.2286e-05
-3.11485e-06
-5.74007e-06
-1.14197e-05
-2.91368e-06
-5.58893e-06
-8.87845e-06
-1.36615e-06
-6.47938e-06
-6.33414e-06
-8.05955e-07
-7.94572e-06
-4.69405e-06
-3.83075e-07
-9.12925e-06
-2.85448e-06
2.90565e-07
-9.04085e-06
2.31136e-07
3.0494e-07
-7.66531e-06
2.65378e-06
-7.40196e-07
-3.43386e-06
2.52467e-06
-3.76873e-06
2.75896e-06
5.51711e-06
-1.00691e-05
1.00969e-05
1.12828e-05
-1.45939e-05
1.66672e-05
1.19833e-05
-1.2702e-05
2.01174e-05
1.13358e-05
-8.87399e-06
2.11671e-05
9.57529e-06
-4.27225e-06
1.92039e-05
4.1876e-06
1.53363e-06
1.22027e-05
2.69949e-06
5.31185e-06
5.15189e-06
3.82007e-06
4.67122e-06
1.95485e-06
2.75355e-06
2.15418e-06
2.155e-07
1.91998e-06
1.36575e-06
-1.48992e-06
1.48799e-06
1.50221e-06
-2.12816e-06
-1.33961e-06
8.9327e-07
-5.13177e-07
-3.56184e-06
-1.85902e-06
-3.14722e-06
4.70618e-07
-5.52474e-06
-5.50029e-06
-1.83475e-07
-4.125e-06
-5.90348e-06
-9.8079e-07
-3.75986e-06
-4.31921e-06
5.11007e-08
-2.65412e-06
-4.6875e-06
-4.61515e-07
-1.88015e-06
-2.77862e-06
2.07118e-08
-7.6387e-07
-2.46591e-06
-3.88418e-09
9.34277e-09
-5.60324e-07
-1.24771e-07
-3.26121e-08
1.86298e-08
1.45817e-07
-3.01143e-07
4.37477e-07
8.20562e-08
-5.64626e-07
1.71001e-07
8.4415e-08
-6.89033e-07
2.61756e-08
1.01433e-08
-6.96315e-07
-2.19011e-07
-9.18009e-08
-6.5579e-07
-3.41742e-07
-1.90252e-07
-5.85433e-07
-4.09346e-07
-2.50953e-07
-5.05043e-07
-3.89842e-07
-2.89896e-07
-4.22975e-07
-3.53972e-07
-3.11574e-07
-3.51501e-07
-3.0545e-07
-3.19574e-07
-2.9406e-07
-2.61849e-07
-3.21675e-07
-2.50199e-07
-2.21329e-07
-3.21674e-07
-2.18861e-07
-1.85533e-07
-3.21397e-07
-1.97301e-07
-1.54283e-07
-3.21604e-07
-1.83065e-07
-1.27101e-07
-3.22414e-07
-1.73944e-07
-1.03325e-07
-3.23846e-07
-1.6845e-07
-8.18864e-08
-3.25506e-07
-1.65412e-07
-6.2034e-08
-3.27393e-07
-1.64056e-07
-4.30622e-08
-3.29468e-07
-1.6408e-07
-2.45789e-08
-3.31477e-07
-1.65346e-07
-6.12702e-09
-3.33453e-07
-1.66649e-07
1.1039e-08
-3.35453e-07
-1.66623e-07
2.75317e-08
-3.376e-07
-1.6482e-07
4.43098e-08
-3.40108e-07
-1.59635e-07
6.09571e-08
-3.43298e-07
-1.50587e-07
7.67791e-08
-3.4667e-07
-1.36397e-07
9.13388e-08
-3.49945e-07
-1.18754e-07
1.02377e-07
-3.51157e-07
-1.0121e-07
1.11492e-07
-3.48349e-07
-9.33936e-08
1.16627e-07
-3.38145e-07
-1.10305e-07
1.23818e-07
-3.1846e-07
-1.67595e-07
1.30261e-07
-2.89622e-07
-2.73756e-07
1.3204e-07
-2.58229e-07
-4.21911e-07
1.18774e-07
-2.29795e-07
-5.8096e-07
8.01944e-08
-2.173e-07
-7.35383e-07
5.95776e-08
-2.14658e-07
-9.60135e-07
1.45289e-07
-1.86836e-07
-1.41566e-06
3.06569e-07
-8.48973e-08
-2.03222e-06
2.23228e-07
6.57697e-08
-2.6059e-06
1.1451e-07
2.58331e-07
-3.03816e-06
5.2165e-07
2.68609e-07
-2.18971e-06
-3.76558e-08
-5.42258e-07
1.73529e-06
-4.40184e-06
-2.41243e-06
5.68728e-06
-1.0912e-05
-2.52342e-06
9.71876e-06
-1.3084e-05
-2.31506e-06
1.51138e-05
-1.57064e-05
-2.36141e-06
2.05755e-05
-2.02089e-05
-1.43702e-06
2.48492e-05
-1.8096e-05
-1.80429e-06
3.20587e-05
-2.39241e-05
-1.90232e-06
3.12661e-05
-8.17547e-06
-1.44016e-06
2.73448e-05
-1.73357e-05
4.98939e-06
-1.46755e-06
2.53847e-06
2.39851e-05
-4.31867e-05
-2.32653e-06
-4.87843e-06
-0.000111648
-1.14559e-05
-5.76468e-06
-0.00011313
-1.26504e-06
5.666e-06
-0.000120106
2.82257e-06
2.42217e-06
-0.00012629
6.1447e-06
3.78572e-06
-0.000128231
4.11729e-06
1.9745e-06
-0.000131135
1.60998e-06
1.22451e-06
-0.000132904
-2.59012e-06
7.51123e-07
-0.000134536
-5.82768e-06
7.08796e-07
-0.00013491
-9.82855e-06
-1.22124e-06
-0.000133609
-1.23972e-05
-1.87007e-06
-0.000130388
-1.36718e-05
-3.09517e-06
-0.000122963
-1.40878e-05
-3.35488e-06
-0.000102024
-1.30584e-05
-4.5144e-06
-5.04757e-05
-1.07594e-05
-3.7726e-06
-1.17345e-05
-9.07082e-06
-2.79261e-06
-1.16574e-05
-7.00215e-06
1.8986e-06
-1.32072e-05
-5.66332e-06
1.87773e-06
-1.48642e-05
-4.2768e-06
2.23136e-06
-1.59236e-05
-2.80303e-06
1.40838e-06
-1.54308e-05
1.19045e-06
-1.56974e-06
-1.16973e-05
4.92831e-06
-6.13783e-06
-6.42177e-06
8.86125e-06
-1.17289e-05
4.09111e-07
1.57816e-05
-1.63094e-05
8.71368e-06
1.78771e-05
-1.47235e-05
1.52394e-05
1.57561e-05
-1.03456e-05
1.83195e-05
1.41077e-05
-5.70068e-06
1.91949e-05
9.20957e-06
-4.93863e-07
1.4606e-05
4.15027e-06
4.5121e-06
5.47345e-06
5.88355e-06
6.00848e-06
-5.05725e-07
6.92381e-06
3.03229e-06
-1.70943e-06
4.74128e-06
-6.9709e-07
-2.50618e-06
3.77227e-06
-9.75344e-07
-3.71371e-06
2.9008e-06
5.14404e-08
-3.61378e-06
3.05669e-07
-1.46648e-06
-1.82856e-06
-2.1138e-06
-3.04217e-06
-2.35391e-06
-1.87058e-06
-5.84692e-06
-5.28207e-06
-1.81113e-07
-4.34496e-06
-6.02687e-06
-1.37857e-06
-4.11754e-06
-4.41186e-06
-1.34765e-07
-2.93111e-06
-4.8826e-06
-9.9134e-07
-2.43466e-06
-2.87687e-06
-3.98199e-07
-1.48078e-06
-3.05767e-06
-3.62116e-07
-7.01414e-07
-1.23389e-06
-1.05803e-07
-3.23844e-07
-4.39147e-07
8.02006e-08
-2.90095e-07
3.61941e-07
4.17808e-08
-4.1325e-07
2.73869e-07
2.02793e-08
-4.33288e-07
1.2069e-07
-7.44848e-08
-4.42549e-07
-7.4274e-08
-1.35484e-07
-4.61927e-07
-1.25491e-07
-1.96884e-07
-4.60885e-07
-1.75419e-07
-2.3498e-07
-4.41562e-07
-1.3432e-07
-2.74857e-07
-3.98756e-07
-9.12545e-08
-3.05535e-07
-3.48461e-07
-3.30749e-08
-3.22683e-07
-3.00373e-07
2.10932e-08
-3.31044e-07
-2.61164e-07
7.39586e-08
-3.3451e-07
-2.31458e-07
1.19683e-07
-3.34938e-07
-2.10403e-07
1.58345e-07
-3.337e-07
-1.96218e-07
1.90778e-07
-3.3208e-07
-1.87412e-07
2.18304e-07
-3.30452e-07
-1.82351e-07
2.41477e-07
-3.28442e-07
-1.79768e-07
2.61483e-07
-3.26118e-07
-1.78799e-07
2.79539e-07
-3.2359e-07
-1.78801e-07
2.96505e-07
-3.211e-07
-1.78845e-07
3.12531e-07
-3.18634e-07
-1.7932e-07
3.27629e-07
-3.16135e-07
-1.79817e-07
3.41768e-07
-3.13758e-07
-1.79188e-07
3.54767e-07
-3.11107e-07
-1.75886e-07
3.65684e-07
-3.08049e-07
-1.69702e-07
3.74295e-07
-3.03721e-07
-1.61185e-07
3.80175e-07
-2.97375e-07
-1.55043e-07
3.82885e-07
-2.86672e-07
-1.58e-07
3.84299e-07
-2.69872e-07
-1.78415e-07
3.83373e-07
-2.46353e-07
-2.27243e-07
3.88893e-07
-2.1627e-07
-3.12717e-07
4.00724e-07
-1.85011e-07
-4.369e-07
4.17113e-07
-1.60913e-07
-5.93998e-07
4.27992e-07
-1.52143e-07
-7.68964e-07
4.21413e-07
-1.66276e-07
-9.65202e-07
4.41779e-07
-1.85986e-07
-1.28122e-06
6.10502e-07
-1.49215e-07
-1.87983e-06
9.02014e-07
3.1459e-09
-2.55761e-06
7.98799e-07
1.02187e-07
-2.70866e-06
2.29277e-07
3.6262e-08
-2.00482e-06
2.50659e-07
-4.32863e-07
4.6626e-07
-4.86707e-07
-2.02205e-06
5.07433e-06
-5.65667e-06
-3.35325e-06
8.8472e-06
-1.20557e-05
-2.62921e-06
1.24798e-05
-1.34165e-05
-3.30015e-06
1.56587e-05
-1.51274e-05
-3.75786e-06
1.5888e-05
-1.80675e-05
-2.37079e-06
1.55889e-05
-1.43424e-05
-3.45455e-06
1.3774e-05
-2.16443e-05
-4.64704e-07
1.52978e-05
-4.963e-06
-4.73668e-06
1.47683e-05
-1.52789e-05
-1.52738e-06
-1.89008e-06
1.91903e-06
1.60047e-05
-4.66515e-05
6.60644e-07
-4.95827e-06
-0.000120732
-4.16442e-06
-5.34093e-06
-0.000124632
4.74333e-06
6.48492e-06
-0.000132128
8.82712e-06
3.04285e-06
-0.000139325
1.06769e-05
2.54606e-06
-0.000142028
9.1955e-06
-1.32903e-06
-0.000143698
6.34323e-06
-2.16199e-06
-0.000144463
2.34004e-06
-2.93356e-06
-0.000145492
-1.43292e-06
-3.41827e-06
-0.000146236
-6.15848e-06
-3.992e-06
-0.000146838
-9.677e-06
-3.62239e-06
-0.00014621
-1.19259e-05
-3.53593e-06
-0.000145013
-1.32653e-05
-2.82357e-06
-0.000142943
-1.31585e-05
-2.37758e-06
-0.000140189
-1.11755e-05
-1.36596e-06
-0.000138051
-8.26433e-06
-2.02048e-07
-0.000134727
-5.24591e-06
1.50315e-07
-0.000119697
-2.87771e-06
-3.53474e-07
-7.90908e-05
-6.28271e-07
-2.35963e-06
-3.76009e-05
1.55508e-06
-5.39887e-06
-2.14444e-05
7.62264e-06
-8.54483e-06
-1.68489e-05
1.24905e-05
-1.17068e-05
-3.76031e-05
1.62992e-05
-1.28525e-05
-6.43641e-05
1.80839e-05
-1.18553e-05
-2.87643e-05
1.66954e-05
-8.53893e-06
1.29316e-05
1.2915e-05
-2.70368e-06
1.64012e-05
9.92878e-06
1.40125e-06
1.50635e-05
6.96233e-06
4.70916e-06
7.3249e-06
7.7812e-06
4.73367e-06
1.06165e-06
9.33166e-06
2.07524e-06
-1.24527e-06
8.64579e-06
-7.56859e-07
-1.81218e-06
7.67101e-06
-2.66986e-06
-2.06242e-06
7.31155e-06
-3.22752e-06
-2.18704e-06
6.37677e-06
-3.02942e-06
-2.8129e-06
4.60657e-06
-3.37697e-06
-3.14487e-06
3.21972e-06
-4.24781e-06
8.42316e-07
-4.91462e-06
-6.3132e-06
-4.71895e-06
-1.03736e-07
-4.63365e-06
-6.16153e-06
-1.54489e-06
-4.44283e-06
-4.1611e-06
-4.41583e-07
-2.9069e-06
-4.90105e-06
-1.51747e-06
-2.47382e-06
-2.45317e-06
-8.56784e-07
-1.65033e-06
-2.94213e-06
-9.39034e-07
-1.14282e-06
-1.28842e-06
-4.52979e-07
-6.97546e-07
-8.48898e-07
-3.5532e-08
-4.98295e-07
1.85848e-07
-2.31627e-08
-3.64897e-07
2.18801e-07
-7.83358e-08
-1.44303e-07
1.39348e-07
-2.39259e-07
-9.46387e-08
1.14167e-07
-2.38113e-07
-1.64621e-07
1.95583e-07
-2.511e-07
-2.50285e-07
1.67091e-07
-2.56856e-07
-3.0198e-07
2.047e-07
-2.87334e-07
-3.14405e-07
2.33707e-07
-3.12547e-07
-3.05224e-07
2.89638e-07
-3.31904e-07
-2.86679e-07
3.45e-07
-3.42464e-07
-2.65588e-07
3.98581e-07
-3.45724e-07
-2.4858e-07
4.46959e-07
-3.44296e-07
-2.37247e-07
4.87694e-07
-3.40694e-07
-2.30471e-07
5.20046e-07
-3.36058e-07
-2.27616e-07
5.46055e-07
-3.30619e-07
-2.27496e-07
5.6647e-07
-3.25127e-07
-2.29166e-07
5.82822e-07
-3.19682e-07
-2.31953e-07
5.9649e-07
-3.14178e-07
-2.35224e-07
6.08574e-07
-3.08813e-07
-2.38216e-07
6.19191e-07
-3.03683e-07
-2.41127e-07
6.28598e-07
-2.98073e-07
-2.43406e-07
6.35911e-07
-2.9188e-07
-2.45422e-07
6.41722e-07
-2.84954e-07
-2.47091e-07
6.44695e-07
-2.77358e-07
-2.50199e-07
6.45034e-07
-2.67646e-07
-2.57094e-07
6.42113e-07
-2.55058e-07
-2.73429e-07
6.3749e-07
-2.38286e-07
-3.04169e-07
6.31918e-07
-2.16895e-07
-3.52658e-07
6.24218e-07
-1.92372e-07
-4.18329e-07
6.20596e-07
-1.66047e-07
-4.99428e-07
6.2402e-07
-1.42213e-07
-5.91521e-07
6.35328e-07
-1.26137e-07
-7.03441e-07
6.57675e-07
-1.17777e-07
-8.6103e-07
6.91881e-07
-1.12894e-07
-1.10286e-06
7.71513e-07
-8.79129e-08
-1.50678e-06
1.01405e-06
3.56206e-10
-2.09845e-06
1.3008e-06
1.92873e-07
-2.64535e-06
1.12966e-06
2.16033e-07
-2.21325e-06
-5.62693e-08
-1.46563e-07
-2.48192e-07
-5.4142e-07
-1.17298e-06
3.53244e-06
-1.22012e-06
-3.04723e-06
8.35808e-06
-7.30581e-06
-3.17653e-06
1.1125e-05
-1.22327e-05
-2.58995e-06
1.30658e-05
-1.20246e-05
-3.33276e-06
1.01425e-05
-6.99414e-06
-5.21001e-06
5.68272e-07
-2.05488e-06
-6.43834e-06
-2.22215e-06
-1.1683e-06
-1.03837e-05
-8.70549e-06
-6.16091e-06
-8.99985e-06
4.10932e-06
-2.20292e-07
-1.75575e-05
-3.39925e-06
1.53449e-06
-9.30493e-06
-2.29869e-06
-1.89415e-06
8.34906e-07
-5.29145e-05
2.47783e-06
-2.2884e-06
-0.000139724
9.89106e-06
-3.41114e-06
-0.000142284
1.18191e-05
6.3463e-06
-0.000146288
1.60387e-05
-3.88076e-07
-0.000149885
1.58643e-05
-1.57369e-06
-0.000150149
1.48885e-05
-4.8342e-06
-0.000150008
9.66337e-06
-5.3214e-06
-0.000149624
5.89358e-06
-4.90493e-06
-0.000149897
1.04593e-06
-3.92052e-06
-0.000152175
-2.48185e-06
-2.70326e-06
-0.000155474
-6.29595e-06
-2.21003e-06
-0.000156524
-9.49004e-06
-2.08477e-06
-0.000156148
-1.20107e-05
-2.05931e-06
-0.000155618
-1.22306e-05
-2.06424e-06
-0.000154997
-1.03044e-05
-2.08646e-06
-0.000154702
-6.88087e-06
-1.64821e-06
-0.000155124
-2.95388e-06
-1.57827e-06
-0.000155804
1.41385e-07
-1.85848e-06
-0.000155058
3.19079e-06
-2.93133e-06
-0.000150418
5.71172e-06
-4.37256e-06
-0.000142822
9.83137e-06
-5.76367e-06
-0.000134866
1.29311e-05
-6.47495e-06
-0.000127894
1.46358e-05
-6.16694e-06
-0.000121941
1.38831e-05
-3.41684e-06
-0.000116422
1.07944e-05
-3.52262e-08
-0.000113996
8.78144e-06
2.63924e-06
-0.000116877
8.57877e-06
3.95917e-06
-0.000124023
9.23519e-06
2.71447e-06
-0.000130603
1.18467e-05
5.32761e-07
-0.000133772
1.20023e-05
-1.19405e-06
-0.000136087
9.98347e-06
-1.90671e-06
-0.000137829
9.13162e-06
-2.15916e-06
-0.00013814
8.59572e-06
-2.76123e-06
-0.000139434
7.73696e-06
-4.14696e-06
-0.000141154
5.8012e-06
-4.71727e-06
-0.000138218
3.1429e-06
-5.19672e-06
-3.56698e-07
-5.58629e-06
-6.8016e-06
-4.042e-06
4.41334e-07
-4.83368e-06
-6.00586e-06
-2.12358e-06
-4.66212e-06
-3.44861e-06
-8.84046e-07
-2.89172e-06
-4.46318e-06
-2.20827e-06
-2.44599e-06
-1.65595e-06
-1.24294e-06
-1.49409e-06
-2.43358e-06
-1.46046e-06
-1.08523e-06
-6.87513e-07
-1.00977e-06
-8.17508e-07
-7.38768e-07
-3.7785e-07
-6.48672e-07
2.83244e-07
-2.66234e-07
-4.17493e-07
2.35446e-07
-2.47827e-07
-3.31861e-08
2.14883e-07
-4.59846e-07
1.18337e-07
3.58518e-07
-3.95878e-07
6.22391e-08
5.75755e-07
-3.24079e-07
-6.46424e-08
5.7138e-07
-2.77413e-07
-1.57637e-07
5.93532e-07
-2.95843e-07
-2.19418e-07
6.04666e-07
-3.09184e-07
-2.58569e-07
6.51844e-07
-3.23061e-07
-2.79761e-07
6.95986e-07
-3.298e-07
-2.89984e-07
7.41123e-07
-3.32326e-07
-2.94867e-07
7.81725e-07
-3.29888e-07
-2.99883e-07
8.13429e-07
-3.20727e-07
-3.05428e-07
8.36617e-07
-3.11033e-07
-3.11288e-07
8.53748e-07
-3.01839e-07
-3.17037e-07
8.65374e-07
-2.93163e-07
-3.22489e-07
8.73377e-07
-2.8511e-07
-3.27468e-07
8.79084e-07
-2.77622e-07
-3.32064e-07
8.83522e-07
-2.7036e-07
-3.36367e-07
8.8676e-07
-2.63274e-07
-3.4075e-07
8.88928e-07
-2.55954e-07
-3.45493e-07
8.88676e-07
-2.4803e-07
-3.5223e-07
8.87287e-07
-2.38835e-07
-3.62026e-07
8.83066e-07
-2.28584e-07
-3.76439e-07
8.76045e-07
-2.16605e-07
-3.97693e-07
8.65231e-07
-2.0187e-07
-4.29842e-07
8.53894e-07
-1.84262e-07
-4.73641e-07
8.41184e-07
-1.65473e-07
-5.2653e-07
8.25687e-07
-1.48585e-07
-5.77828e-07
8.08211e-07
-1.36321e-07
-6.1705e-07
7.91928e-07
-1.28691e-07
-6.43391e-07
7.8707e-07
-1.25403e-07
-6.76835e-07
8.09956e-07
-1.18842e-07
-7.79301e-07
8.91888e-07
-9.75432e-08
-1.00704e-06
1.0453e-06
-4.60557e-08
-1.42156e-06
1.34788e-06
8.07031e-08
-1.94242e-06
1.55496e-06
2.66692e-07
-2.09546e-06
1.06069e-06
2.2201e-07
-9.24045e-07
-7.45457e-07
-4.82223e-07
1.84317e-06
-1.52681e-06
-1.78182e-06
6.11644e-06
-2.84323e-06
-2.65018e-06
9.66401e-06
-8.22894e-06
-2.62449e-06
8.27006e-06
-7.47577e-06
-3.36306e-06
3.63824e-06
-9.05359e-07
-6.48749e-06
-1.22243e-06
7.68117e-06
-9.81464e-06
-5.99228e-06
1.25407e-05
-9.82568e-06
-3.91165e-06
7.99501e-06
-1.12439e-05
-7.7112e-06
5.68331e-06
-8.04434e-06
8.05178e-06
-2.9833e-06
-1.29996e-05
9.81829e-06
1.39276e-05
-1.41595e-05
-2.49618e-06
1.21075e-05
-3.34729e-06
-5.52289e-05
4.42244e-06
-2.77943e-06
-0.000144319
2.25872e-05
-3.86198e-06
-0.000146742
1.8818e-05
6.82121e-06
-0.000149492
2.1062e-05
-1.02752e-06
-0.000150508
1.81008e-05
-2.45037e-06
-0.000147068
1.63472e-05
-5.13823e-06
-0.00014338
7.22482e-06
-3.72174e-06
-0.00014098
2.72839e-06
-5.70646e-07
-0.000140623
-1.15569e-06
8.0207e-07
-0.000142385
-2.29826e-06
1.71762e-06
-0.000148473
-4.13842e-06
2.45716e-06
-0.00015542
-6.72004e-06
1.76999e-06
-0.000159915
-9.80123e-06
1.20454e-06
-0.000162778
-1.11151e-05
4.89266e-07
-0.000164055
-9.7845e-06
-4.15685e-07
-0.000164508
-6.34867e-06
-7.35001e-07
-0.000165374
-1.97053e-06
-8.87977e-07
-0.000165299
5.88466e-07
-1.04008e-06
-0.000164086
2.94948e-06
-1.25962e-06
-0.000161962
4.28958e-06
-1.74183e-06
-0.000157187
6.68682e-06
-2.22665e-06
-0.000150654
8.39294e-06
-2.19088e-06
-0.000143764
8.32292e-06
-1.1487e-06
-0.000138551
7.66393e-06
5.56173e-07
-0.000136573
7.62208e-06
1.99025e-06
-0.000138119
8.28039e-06
2.65339e-06
-0.000143712
1.05491e-05
1.9015e-06
-0.000148531
1.25308e-05
1.33283e-06
-0.00014994
1.3375e-05
1.42577e-06
-0.000150384
1.28368e-05
2.06621e-06
-0.000150758
1.00732e-05
2.33481e-06
-0.000151146
8.5825e-06
2.68783e-06
-0.00015183
8.02055e-06
2.6575e-06
-0.000152741
7.41777e-06
2.2579e-06
-0.000152528
5.43719e-06
2.20179e-06
-0.000146695
-2.07977e-07
1.70706e-06
-6.60708e-06
9.77542e-07
-6.74198e-06
-3.11339e-06
1.14773e-06
-4.48644e-06
-5.43261e-06
-2.82879e-06
-4.40833e-06
-2.05127e-06
-1.47545e-06
-2.95697e-06
-3.50091e-06
-2.41361e-06
-2.7024e-06
-4.69573e-07
-1.44095e-06
-1.41265e-06
-1.55187e-06
-2.17145e-06
-8.7665e-07
2.85255e-07
-1.50877e-06
-6.96731e-07
-1.58948e-07
-7.59738e-07
-5.84435e-07
7.0071e-07
-5.29761e-07
-4.44526e-07
5.23755e-07
-4.28219e-07
-7.03714e-08
5.01792e-07
-6.61064e-07
8.42262e-08
7.4621e-07
-5.42292e-07
7.87441e-08
1.06059e-06
-4.79359e-07
3.6338e-09
1.04576e-06
-3.9927e-07
-6.11389e-08
1.06899e-06
-4.10683e-07
-1.39005e-07
1.08003e-06
-3.97499e-07
-2.11832e-07
1.13136e-06
-4.06692e-07
-2.71103e-07
1.17406e-06
-4.18804e-07
-3.14968e-07
1.21478e-06
-4.29794e-07
-3.45741e-07
1.25014e-06
-4.3764e-07
-3.67e-07
1.27959e-06
-4.44905e-07
-3.82814e-07
1.30365e-06
-4.51219e-07
-3.95765e-07
1.32312e-06
-4.56425e-07
-4.07609e-07
1.33874e-06
-4.61521e-07
-4.19442e-07
1.35183e-06
-4.66622e-07
-4.32023e-07
1.36325e-06
-4.71582e-07
-4.45678e-07
1.37337e-06
-4.76192e-07
-4.60777e-07
1.38164e-06
-4.79779e-07
-4.74144e-07
1.38399e-06
-4.81698e-07
-4.85692e-07
1.38314e-06
-4.82915e-07
-4.98084e-07
1.38272e-06
-4.83043e-07
-5.14668e-07
1.38128e-06
-4.81627e-07
-5.38935e-07
1.37935e-06
-4.79033e-07
-5.73874e-07
1.37579e-06
-4.75619e-07
-6.22113e-07
1.37298e-06
-4.70842e-07
-6.81104e-07
1.36746e-06
-4.67286e-07
-7.44377e-07
1.35489e-06
-4.65925e-07
-7.9898e-07
1.33277e-06
-4.69946e-07
-8.33948e-07
1.30612e-06
-4.79219e-07
-8.56819e-07
1.29473e-06
-4.84777e-07
-9.04146e-07
1.32761e-06
-4.70315e-07
-1.04251e-06
1.43685e-06
-4.06585e-07
-1.28494e-06
1.55427e-06
-2.6652e-07
-1.63927e-06
1.74142e-06
-3.91927e-08
-2.01885e-06
1.80388e-06
1.30686e-07
-1.82111e-06
9.5082e-07
-8.78376e-08
-4.44836e-07
-8.08056e-07
-1.31366e-06
1.62107e-06
-1.03481e-06
-2.55789e-06
9.53321e-07
1.04831e-06
-3.2238e-06
-5.26711e-06
4.82868e-06
-6.83722e-06
-1.2776e-05
9.26779e-06
-9.23462e-06
-1.74745e-05
1.3867e-05
-1.00739e-05
-1.73576e-05
1.76814e-05
-1.01171e-05
-1.65324e-05
1.89437e-05
-7.22805e-06
-1.85659e-05
1.84053e-05
-8.37662e-06
-2.01741e-05
1.39276e-05
-6.63569e-06
9.99431e-06
-1.78698e-05
-1.52818e-05
2.0077e-05
4.11328e-06
-2.68382e-07
-3.37278e-06
1.61398e-05
1.77599e-05
-6.14144e-05
9.78369e-06
-7.70305e-06
-0.000164699
3.48543e-05
-3.41725e-06
-0.000163397
2.26248e-05
8.09512e-06
-0.000163968
2.3181e-05
-9.10998e-07
-0.000161407
1.77973e-05
-2.11969e-06
-0.000155785
1.61968e-05
-5.0579e-06
-0.000154616
5.25417e-06
-4.33044e-07
-0.000156517
1.44701e-06
1.68521e-06
-0.000159963
-1.11526e-06
2.81328e-06
-0.000161261
-3.75008e-06
3.51974e-06
-0.000162634
-5.51272e-06
4.70249e-06
-0.000167361
-7.08356e-06
5.9647e-06
-0.000174457
-8.73883e-06
5.65434e-06
-0.000181881
-9.62547e-06
5.5323e-06
-0.000187676
-8.16214e-06
3.66924e-06
-0.000191335
-4.99018e-06
1.50568e-06
-0.000194731
1.20388e-07
2.82839e-07
-0.000196562
1.92163e-06
-4.51108e-07
-0.000196665
3.71281e-06
-1.59964e-06
-0.000195818
4.60183e-06
-1.9055e-06
-0.000193699
5.17049e-06
-1.9459e-06
-0.000190054
6.41014e-06
-2.40705e-06
-0.00018408
6.38456e-06
-3.08373e-06
-0.000172894
6.91549e-06
-2.7376e-06
-0.000143737
7.94102e-06
-1.51351e-06
-6.78513e-05
8.80015e-06
1.77458e-08
-1.37249e-05
9.67227e-06
2.52982e-06
-1.35493e-05
1.026e-05
3.94477e-06
-1.23935e-05
9.24689e-06
4.96078e-06
-9.43528e-06
6.41805e-06
5.38758e-06
-5.23338e-06
1.57566e-06
5.82301e-06
-1.99235e-06
-3.65739e-07
6.69467e-06
5.09538e-07
-3.56915e-07
7.06178e-06
3.12703e-06
-8.80221e-07
7.90005e-06
5.75436e-06
-2.97038e-06
9.35147e-06
-2.43932e-05
-7.47064e-06
1.17957e-05
-1.14641e-05
1.19622e-05
-6.21222e-06
-3.91217e-07
3.68632e-06
-3.80891e-06
-4.89731e-06
-2.9386e-06
-4.00366e-06
-2.7556e-07
-1.58094e-06
-3.03287e-06
-2.82828e-06
-1.64341e-06
-3.01165e-06
4.30068e-07
-9.20854e-07
-1.74256e-06
-9.94423e-07
-1.82653e-06
-1.35593e-06
7.95754e-07
-8.97125e-07
-9.25232e-07
1.60495e-07
-7.50139e-07
-7.4517e-07
8.43046e-07
-3.22396e-07
-5.44027e-07
4.73452e-07
-1.50839e-07
-2.54296e-07
5.47029e-07