/*--------------------------------*- C++ -*----------------------------------*\
| =========                 |                                                 |
| \\      /  F ield         | OpenFOAM: The Open Source CFD Toolbox           |
|  \\    /   O peration     | Version:  2.3.0                                 |
|   \\  /    A nd           | Web:      www.OpenFOAM.org                      |
|    \\/     M anipulation  |                                                 |
\*---------------------------------------------------------------------------*/
FoamFile
{
    version     2.0;
    format      ascii;
    class       surfaceScalarField;
    location    "15";
    object      phi.water;
}
// * * * * * * * * * * * * * * * * * * * * * * * * * * * * * * * * * * * * * //

dimensions      [0 3 -1 0 0 0 0];

internalField   nonuniform List<scalar> 
16448
(
-1.20449e-06
-3.01584e-06
8.97886e-07
9.32275e-07
-2.92127e-06
7.94765e-07
1.47219e-06
-1.42663e-06
8.93892e-07
2.02057e-06
-1.30077e-06
7.56378e-07
1.80926e-06
-3.21026e-07
5.37925e-07
1.68631e-06
-3.18391e-07
4.43348e-07
1.32051e-06
-9.33626e-08
4.61355e-07
1.02195e-06
-2.17473e-07
5.16201e-07
5.68248e-07
-2.05259e-07
6.5953e-07
1.66868e-07
-2.74119e-07
6.75598e-07
-1.79127e-07
-3.05847e-07
6.52261e-07
-3.48154e-07
-3.93905e-07
5.63185e-07
-3.61757e-07
-4.82113e-07
4.96144e-07
-2.82752e-07
-5.42621e-07
4.63916e-07
-1.88956e-07
-5.67631e-07
4.74183e-07
-1.02647e-07
-5.77644e-07
4.91621e-07
-3.75517e-08
-5.79454e-07
5.14654e-07
1.10285e-08
-5.79284e-07
5.30959e-07
4.43975e-08
-5.77694e-07
5.44586e-07
6.74569e-08
-5.75331e-07
5.52509e-07
8.24865e-08
-5.72503e-07
5.57719e-07
9.2176e-08
-5.69061e-07
5.59603e-07
9.78155e-08
-5.65256e-07
5.59862e-07
1.00704e-07
-5.60957e-07
5.58303e-07
1.01485e-07
-5.56339e-07
5.55807e-07
1.00539e-07
-5.51268e-07
5.52454e-07
9.82031e-08
-5.45853e-07
5.48448e-07
9.45842e-08
-5.39967e-07
5.43836e-07
9.00208e-08
-5.3362e-07
5.38457e-07
8.45804e-08
-5.26572e-07
5.32276e-07
7.89137e-08
-5.18683e-07
5.24641e-07
7.33521e-08
-5.09709e-07
5.15553e-07
6.96994e-08
-4.99561e-07
5.0353e-07
6.93484e-08
-4.88159e-07
4.88819e-07
7.73892e-08
-4.76655e-07
4.68967e-07
9.77182e-08
-4.65487e-07
4.45506e-07
1.37578e-07
-4.5576e-07
4.16298e-07
1.99506e-07
-4.4879e-07
3.87248e-07
2.84361e-07
-4.46568e-07
3.62147e-07
3.76408e-07
-4.50173e-07
3.58534e-07
4.43231e-07
-4.55323e-07
3.88978e-07
4.44074e-07
-4.68167e-07
4.67734e-07
3.29016e-07
-4.78359e-07
5.93899e-07
8.43333e-08
-4.9872e-07
7.43815e-07
-2.44595e-07
-5.46295e-07
8.75711e-07
-6.38447e-07
-5.92743e-07
9.87463e-07
-1.12335e-06
-6.61958e-07
1.15646e-06
-1.77267e-06
-6.70769e-07
1.37085e-06
-2.70411e-06
-4.6416e-07
1.48359e-06
-3.51883e-06
-5.69321e-07
1.46461e-06
-1.28659e-06
-3.8739e-06
1.73952e-06
2.5899e-06
-6.24778e-06
2.38926e-06
5.29382e-06
-6.06838e-06
3.40549e-06
8.24902e-06
-6.76808e-06
3.77616e-06
1.02251e-05
-6.80247e-06
4.89096e-06
1.27363e-05
-7.2863e-06
4.6271e-06
1.0707e-05
-5.44165e-06
7.68686e-06
1.17604e-05
-6.7985e-06
4.84787e-06
4.29642e-09
4.11911e-06
1.74725e-05
3.04032e-05
-4.32814e-06
-4.81195e-06
2.4061e-05
-1.94945e-05
-2.63166e-06
2.75976e-05
-9.46462e-06
4.13984e-06
2.31006e-05
-6.24383e-07
5.11625e-06
2.40792e-05
-4.44828e-06
3.46965e-06
2.32955e-05
-1.49388e-06
2.27759e-06
2.29552e-05
-1.31631e-06
1.65665e-06
2.27675e-05
-1.8659e-06
2.05359e-06
2.1818e-05
-1.91977e-06
2.86923e-06
2.07625e-05
-3.3429e-06
4.39845e-06
1.77406e-05
-3.11714e-06
6.13903e-06
1.35919e-05
-3.63086e-06
7.77954e-06
1.18108e-05
-6.6782e-06
8.45933e-06
1.25783e-05
-8.88726e-06
8.11976e-06
1.36803e-05
-8.47698e-06
7.37493e-06
1.49592e-05
-7.80295e-06
6.5241e-06
1.56234e-05
-6.31609e-06
5.65182e-06
1.58195e-05
-5.09427e-06
4.89819e-06
1.58415e-05
-4.10203e-06
4.08e-06
1.47566e-05
-2.04884e-06
3.13378e-06
1.14574e-05
1.15062e-06
2.14857e-06
6.39764e-06
3.1457e-06
1.91407e-06
2.41219e-06
2.4396e-06
1.54585e-06
2.41555e-06
6.77194e-08
-7.10777e-08
7.86281e-06
8.0483e-08
-5.52774e-06
1.49145e-05
9.93989e-07
-8.04571e-06
1.98525e-05
1.39918e-06
-6.33713e-06
2.24711e-05
2.18243e-06
-4.80106e-06
2.176e-05
1.66896e-06
-9.57835e-07
1.69204e-05
5.59271e-08
4.78364e-06
1.06213e-05
2.78917e-07
6.02019e-06
5.30423e-06
1.32164e-06
3.99542e-06
2.0857e-06
1.04586e-06
2.17266e-06
2.09575e-07
9.97475e-08
1.77638e-06
-6.73905e-07
-1.20693e-06
2.09041e-06
1.35641e-07
-3.05257e-06
2.24303e-06
-2.35561e-06
2.49125e-06
-3.48679e-06
-4.65302e-06
9.7648e-08
-1.75265e-06
-4.57147e-06
-7.67132e-08
-8.47831e-07
-2.85011e-06
5.22881e-07
3.36881e-07
-2.74451e-06
2.66843e-07
8.78033e-07
-8.90933e-07
4.07826e-08
1.09107e-06
-5.94895e-07
6.86655e-08
8.795e-07
6.24813e-08
5.81827e-08
5.7104e-07
-9.76632e-08
1.88171e-07
1.72697e-07
-4.7771e-08
2.40755e-07
-1.88318e-07
-1.88937e-07
2.75707e-07
-4.75607e-07
-2.41378e-07
2.23251e-07
-5.77214e-07
-4.18728e-07
1.264e-07
-5.3429e-07
-5.79571e-07
5.45794e-08
-4.15358e-07
-6.80641e-07
1.89612e-08
-2.92686e-07
-7.1006e-07
1.97151e-08
-1.86134e-07
-7.12956e-07
2.8688e-08
-1.06469e-07
-7.01419e-07
4.22684e-08
-4.76219e-08
-6.89706e-07
5.15342e-08
-6.81781e-09
-6.76714e-07
5.8186e-08
2.13188e-08
-6.65048e-07
6.15495e-08
3.97478e-08
-6.54051e-07
6.30913e-08
5.14441e-08
-6.43652e-07
6.28718e-08
5.82899e-08
-6.3369e-07
6.15677e-08
6.19296e-08
-6.2382e-07
5.92109e-08
6.3182e-08
-6.13953e-07
5.63507e-08
6.27006e-08
-6.03837e-07
5.30491e-08
6.09417e-08
-5.935e-07
4.94052e-08
5.82405e-08
-5.82679e-07
4.54242e-08
5.51132e-08
-5.71448e-07
4.0967e-08
5.18886e-08
-5.59303e-07
3.59802e-08
4.95566e-08
-5.46386e-07
3.006e-08
4.86853e-08
-5.31976e-07
2.31783e-08
5.15045e-08
-5.17033e-07
1.46908e-08
5.86514e-08
-5.00462e-07
5.20956e-09
7.75685e-08
-4.84594e-07
-1.09153e-08
1.1199e-07
-4.69228e-07
-3.05539e-08
1.68161e-07
-4.60181e-07
-5.15868e-08
2.45954e-07
-4.57345e-07
-6.90147e-08
3.41066e-07
-4.63623e-07
-7.77939e-08
4.38687e-07
-4.80229e-07
-6.72558e-08
5.10649e-07
-5.0149e-07
-2.54594e-08
5.2638e-07
-5.26944e-07
4.347e-08
4.33572e-07
-5.27139e-07
1.4218e-07
2.09271e-07
-5.15466e-07
2.41779e-07
-1.29899e-07
-5.35819e-07
3.29575e-07
-5.30393e-07
-6.01915e-07
4.13016e-07
-1.39441e-06
-4.81612e-07
6.97164e-07
-3.01253e-06
-1.42472e-07
1.12727e-06
-4.24631e-06
-1.0575e-07
9.43828e-07
-3.10973e-06
-1.56137e-06
-5.49547e-08
1.12322e-06
-7.49254e-06
-5.40477e-07
4.93101e-06
-1.00414e-05
3.88782e-08
8.51129e-06
-1.0139e-05
6.01926e-07
1.36194e-05
-1.20148e-05
1.44524e-07
1.76717e-05
-1.25559e-05
1.85488e-06
2.36664e-05
-1.33901e-05
-7.57472e-09
2.33272e-05
-9.54196e-06
5.03143e-06
2.27696e-05
-1.03862e-05
2.84919e-06
8.56923e-06
7.59479e-07
2.89136e-05
3.26162e-05
-5.32073e-06
-7.54338e-07
1.07122e-05
-2.17831e-05
-6.51595e-06
5.04966e-06
-1.19095e-05
7.1066e-06
4.33344e-06
-1.97905e-06
2.07005e-06
-7.40815e-07
-1.33437e-06
1.96034e-06
-4.03066e-06
1.25305e-06
5.42914e-07
-7.59979e-06
1.14136e-06
1.11146e-06
-1.00933e-05
-3.39179e-06
4.01942e-06
-1.13762e-05
-5.80679e-06
5.16986e-06
-1.0846e-05
-1.00361e-05
6.16307e-06
-9.08393e-06
-1.20367e-05
7.15744e-06
-6.55526e-06
-1.33045e-05
7.145e-06
-4.90963e-06
-1.46006e-05
6.27679e-06
-3.15409e-06
-1.55291e-05
4.88631e-06
-1.03554e-06
-1.42204e-05
3.6249e-06
7.31736e-07
-1.25302e-05
2.95994e-06
1.34312e-06
-1.01058e-05
3.17833e-06
1.33184e-06
-7.97064e-06
2.88765e-06
9.10572e-07
-6.37339e-06
2.69263e-06
3.36334e-07
-3.54525e-06
2.07065e-06
-2.94844e-08
7.45432e-07
7.71006e-07
-4.46577e-07
3.4129e-06
1.49892e-07
8.04001e-07
2.94978e-06
-1.76075e-06
3.86703e-06
1.58166e-06
-4.57697e-06
1.04753e-05
4.13753e-06
-1.06654e-05
1.68504e-05
5.96007e-06
-1.13411e-05
2.1136e-05
6.02555e-06
-8.91198e-06
2.29899e-05
6.35221e-06
-6.0237e-06
2.19971e-05
3.80135e-06
-1.13966e-06
1.65381e-05
1.04916e-06
4.46584e-06
1.02162e-05
1.32405e-06
5.27676e-06
6.70625e-06
1.59075e-06
3.2408e-06
4.80481e-06
1.50453e-06
1.44277e-06
2.42913e-06
1.1399e-06
1.33552e-06
7.28431e-07
-1.35728e-06
1.85105e-06
1.08405e-06
-4.0003e-06
5.92109e-07
-2.9056e-06
1.63404e-06
-4.91848e-06
-5.30183e-06
-2.04513e-07
-3.63083e-06
-5.48441e-06
-3.72002e-07
-2.85953e-06
-3.90281e-06
2.87575e-07
-1.40038e-06
-4.04271e-06
-1.46349e-07
-3.0258e-07
-1.9824e-06
4.72845e-09
3.76779e-07
-1.35228e-06
8.4871e-08
4.76368e-07
8.84068e-08
-1.19765e-07
1.74299e-07
1.22806e-07
8.18653e-08
-1.76788e-07
2.51363e-07
5.17826e-08
-4.48791e-07
-7.66321e-09
9.09342e-08
-6.34251e-07
-8.77413e-08
3.26469e-08
-6.7068e-07
-3.1782e-07
-6.42836e-08
-6.0425e-07
-4.91279e-07
-1.54495e-07
-4.89448e-07
-5.89826e-07
-2.0566e-07
-3.72772e-07
-5.99289e-07
-2.27445e-07
-2.70706e-07
-5.83467e-07
-2.31606e-07
-1.91185e-07
-5.53576e-07
-2.27391e-07
-1.31364e-07
-5.26147e-07
-2.2343e-07
-8.84697e-08
-4.99237e-07
-2.20411e-07
-5.84221e-08
-4.75718e-07
-2.19433e-07
-3.80625e-08
-4.54476e-07
-2.19982e-07
-2.46841e-08
-4.35452e-07
-2.21637e-07
-1.62378e-08
-4.18239e-07
-2.23948e-07
-1.1166e-08
-4.02107e-07
-2.26844e-07
-8.57337e-09
-3.86606e-07
-2.29988e-07
-7.78765e-09
-3.71403e-07
-2.33274e-07
-8.43406e-09
-3.56313e-07
-2.36583e-07
-1.00759e-08
-3.41087e-07
-2.39997e-07
-1.19983e-08
-3.25953e-07
-2.43601e-07
-1.36378e-08
-3.10275e-07
-2.47418e-07
-1.41604e-08
-2.94217e-07
-2.51651e-07
-1.24784e-08
-2.77371e-07
-2.56294e-07
-6.80316e-09
-2.61039e-07
-2.61645e-07
4.85329e-09
-2.44599e-07
-2.67497e-07
2.53045e-08
-2.31292e-07
-2.7369e-07
5.47386e-08
-2.1944e-07
-2.79153e-07
9.03952e-08
-2.13785e-07
-2.81928e-07
1.24887e-07
-2.11593e-07
-2.80114e-07
1.45634e-07
-2.16614e-07
-2.67561e-07
1.39892e-07
-2.32235e-07
-2.42044e-07
9.84937e-08
-2.58937e-07
-2.00862e-07
1.82159e-08
-2.95761e-07
-1.50564e-07
-1.08106e-07
-3.08863e-07
-9.14279e-08
-3.12299e-07
-2.65463e-07
-4.51907e-08
-6.22293e-07
-2.32805e-07
8.20105e-09
-9.83793e-07
-3.26238e-07
9.15239e-08
-1.61305e-06
-1.99376e-07
3.62491e-07
-2.81791e-06
3.59638e-07
7.31395e-07
-3.60351e-06
2.70231e-07
4.69698e-07
-7.17329e-07
-2.88832e-06
-1.471e-06
3.41824e-06
-9.48105e-06
-2.07418e-06
6.60793e-06
-1.137e-05
-1.80977e-06
1.12812e-05
-1.2684e-05
-1.99322e-06
1.70529e-05
-1.61995e-05
-1.58236e-06
2.20334e-05
-1.56279e-05
-1.8005e-06
2.92588e-05
-1.86399e-05
-2.18411e-06
3.18303e-05
-1.05467e-05
-9.61647e-07
2.87838e-05
-1.59744e-05
8.52056e-06
1.62293e-05
-1.16968e-06
3.09857e-05
3.53998e-05
-3.87889e-06
-1.81088e-07
6.39749e-06
-1.7822e-05
-9.54221e-06
1.62102e-06
-1.17158e-05
4.06479e-06
5.215e-06
-5.11566e-06
-4.5808e-07
-3.4687e-06
3.56683e-06
3.78249e-06
-7.62663e-06
3.36843e-06
2.04263e-06
-1.13595e-05
1.92222e-06
2.95217e-06
-1.38763e-05
-2.94444e-06
2.06961e-06
-1.62087e-05
-5.75669e-06
2.28232e-06
-1.75643e-05
-1.06974e-05
2.01701e-06
-1.68918e-05
-1.37516e-05
1.04233e-06
-1.43034e-05
-1.56659e-05
-2.2703e-07
-1.17982e-05
-1.61637e-05
-9.42157e-07
-8.96775e-06
-1.61767e-05
-2.18283e-06
-5.99894e-06
-1.40958e-05
-3.09338e-06
-4.25434e-06
-1.1375e-05
-2.89975e-06
-4.17303e-06
-8.82344e-06
-1.36367e-06
-5.0646e-06
-6.26598e-06
-8.13082e-07
-6.40842e-06
-4.62539e-06
-4.04189e-07
-7.43027e-06
-2.80148e-06
2.7808e-07
-7.20946e-06
2.20094e-07
3.04533e-07
-5.76529e-06
2.69925e-06
-7.30512e-07
-1.61276e-06
2.52803e-06
-3.73078e-06
4.46825e-06
5.49261e-06
-9.99197e-06
1.18115e-05
1.1301e-05
-1.45067e-05
1.8351e-05
1.20251e-05
-1.26045e-05
2.17739e-05
1.13938e-05
-8.79119e-06
2.27633e-05
9.58114e-06
-4.21839e-06
2.08336e-05
4.18219e-06
1.5489e-06
1.38618e-05
2.68991e-06
5.33106e-06
6.72832e-06
3.82092e-06
4.63661e-06
3.40979e-06
2.76434e-06
2.14495e-06
1.61708e-06
1.93126e-06
1.36598e-06
-2.50542e-07
1.50322e-06
1.5043e-06
-1.17987e-06
-1.32439e-06
8.96438e-07
2.20296e-07
-3.55099e-06
-1.84947e-06
-3.1571e-06
4.71803e-07
-5.46276e-06
-5.50049e-06
-1.83813e-07
-4.06244e-06
-5.90377e-06
-9.81072e-07
-3.69038e-06
-4.31962e-06
5.10113e-08
-2.57594e-06
-4.68736e-06
-4.61838e-07
-1.79382e-06
-2.77816e-06
2.05078e-08
-6.63849e-07
-2.46486e-06
-4.19553e-09
1.20125e-07
-5.59278e-07
-1.25322e-07
8.13307e-08
1.91845e-08
1.44739e-07
-1.8631e-07
4.37949e-07
8.12174e-08
-4.4946e-07
1.71529e-07
8.38916e-08
-5.72761e-07
2.66557e-08
9.76596e-09
-5.79633e-07
-2.18582e-07
-9.20673e-08
-5.38563e-07
-3.41397e-07
-1.90466e-07
-4.67972e-07
-4.09096e-07
-2.51132e-07
-3.87238e-07
-3.89678e-07
-2.90063e-07
-3.04884e-07
-3.53885e-07
-3.11731e-07
-2.33082e-07
-3.05427e-07
-3.19729e-07
-1.75313e-07
-2.61876e-07
-3.21825e-07
-1.31112e-07
-2.21403e-07
-3.21825e-07
-9.94261e-08
-1.85642e-07
-3.21543e-07
-7.7512e-08
-1.54428e-07
-3.21751e-07
-6.29095e-08
-1.2727e-07
-3.22556e-07
-5.34189e-08
-1.0352e-07
-3.23989e-07
-4.75428e-08
-8.2097e-08
-3.25646e-07
-4.41203e-08
-6.22646e-08
-3.27535e-07
-4.23655e-08
-4.33017e-08
-3.29604e-07
-4.19904e-08
-2.48342e-08
-3.31616e-07
-4.28385e-08
-6.38913e-09
-3.33588e-07
-4.3724e-08
1.077e-08
-3.35594e-07
-4.32634e-08
2.72777e-08
-3.37737e-07
-4.10216e-08
4.40607e-08
-3.40252e-07
-3.53797e-08
6.07287e-08
-3.43438e-07
-2.5868e-08
7.65626e-08
-3.46818e-07
-1.1192e-08
9.11549e-08
-3.50091e-07
6.94779e-09
1.02218e-07
-3.51316e-07
2.50185e-08
1.11387e-07
-3.48511e-07
3.33756e-08
1.16571e-07
-3.3833e-07
1.70457e-08
1.23848e-07
-3.18662e-07
-3.96376e-08
1.30375e-07
-2.89864e-07
-1.45141e-07
1.32272e-07
-2.58498e-07
-2.92591e-07
1.19112e-07
-2.3011e-07
-4.50887e-07
8.06723e-08
-2.17642e-07
-6.04449e-07
6.02118e-08
-2.15051e-07
-8.28106e-07
1.46121e-07
-1.87303e-07
-1.28166e-06
3.07654e-07
-8.54847e-08
-1.89014e-06
2.24581e-07
6.51835e-08
-2.44257e-06
1.16145e-07
2.57372e-07
-2.84008e-06
5.23626e-07
2.67583e-07
-1.91758e-06
-3.58385e-08
-5.44347e-07
2.0879e-06
-4.3984e-06
-2.42505e-06
6.14625e-06
-1.09104e-05
-2.54072e-06
1.02777e-05
-1.30698e-05
-2.33104e-06
1.58639e-05
-1.56778e-05
-2.36663e-06
2.13195e-05
-2.01818e-05
-1.44953e-06
2.57624e-05
-1.80629e-05
-1.83971e-06
3.26279e-05
-2.38667e-05
-1.92569e-06
3.41576e-05
-8.3938e-06
-1.35151e-06
2.98997e-05
-1.685e-05
4.59966e-06
2.05595e-05
2.48207e-06
2.3585e-05
3.83541e-05
-1.16297e-06
-1.97003e-06
7.52969e-06
-1.36959e-05
-9.89776e-06
-3.15078e-06
-6.53322e-06
4.42878e-06
-9.8147e-06
5.81463e-07
9.62655e-07
-1.64333e-05
6.84887e-06
3.33671e-06
-1.95273e-05
5.00212e-06
1.46048e-06
-2.1649e-05
3.54895e-06
4.95315e-07
-2.35883e-05
-5.56273e-07
-4.49835e-07
-2.55889e-05
-4.09283e-06
3.34964e-07
-2.63366e-05
-8.49297e-06
-1.45971e-06
-2.57124e-05
-1.21978e-05
-2.18117e-06
-2.36314e-05
-1.4641e-05
-3.10836e-06
-2.09915e-05
-1.57134e-05
-3.09167e-06
-1.71257e-05
-1.55283e-05
-4.51507e-06
-1.27827e-05
-1.33858e-05
-5.0535e-06
-9.93144e-06
-9.96291e-06
-4.26347e-06
-9.98646e-06
-7.91956e-06
-8.48878e-07
-1.1655e-05
-6.51201e-06
1.91454e-06
-1.32852e-05
-5.23558e-06
2.24042e-06
-1.42945e-05
-3.20453e-06
1.41238e-06
-1.37072e-05
1.18509e-06
-1.55231e-06
-9.78978e-06
4.86133e-06
-6.07954e-06
-4.44895e-06
8.83214e-06
-1.16449e-05
2.37348e-06
1.48771e-05
-1.6207e-05
1.06472e-05
1.76489e-05
-1.46217e-05
1.71374e-05
1.57922e-05
-1.02573e-05
2.00839e-05
1.40803e-05
-5.63296e-06
2.09797e-05
9.18952e-06
-5.04196e-07
1.64177e-05
4.18747e-06
4.55672e-06
7.16541e-06
5.92846e-06
6.01378e-06
1.01712e-06
6.95284e-06
3.01637e-06
-2.64332e-07
4.73855e-06
-6.9276e-07
-1.10783e-06
3.74733e-06
-9.72572e-07
-2.52789e-06
2.87388e-06
4.94017e-08
-2.69065e-06
2.96992e-07
-1.45862e-06
-1.07653e-06
-2.13358e-06
-3.03154e-06
-2.36673e-06
-1.86691e-06
-5.78467e-06
-5.28231e-06
-1.81792e-07
-4.28354e-06
-6.02761e-06
-1.3793e-06
-4.04967e-06
-4.41217e-06
-1.34929e-07
-2.85872e-06
-4.88258e-06
-9.92593e-07
-2.35513e-06
-2.87668e-06
-3.98827e-07
-1.38772e-06
-3.05704e-06
-3.62277e-07
-5.95765e-07
-1.23302e-06
-1.06079e-07
-2.11401e-07
-4.3827e-07
7.94675e-08
-1.7394e-07
3.62616e-07
4.11359e-08
-2.96531e-07
2.74432e-07
1.97475e-08
-3.15725e-07
1.21173e-07
-7.49403e-08
-3.24478e-07
-7.38958e-08
-1.35868e-07
-3.43131e-07
-1.25247e-07
-1.97247e-07
-3.41749e-07
-1.75298e-07
-2.3532e-07
-3.21921e-07
-1.34299e-07
-2.75192e-07
-2.78703e-07
-9.13166e-08
-3.05863e-07
-2.2794e-07
-3.31933e-08
-3.23006e-07
-1.79402e-07
2.09123e-08
-3.31366e-07
-1.39718e-07
7.37075e-08
-3.34828e-07
-1.0954e-07
1.1937e-07
-3.35257e-07
-8.79939e-08
1.57989e-07
-3.34018e-07
-7.33215e-08
1.90379e-07
-3.32402e-07
-6.40109e-08
2.17878e-07
-3.3077e-07
-5.84478e-08
2.4102e-07
-3.28765e-07
-5.53457e-08
2.61011e-07
-3.26438e-07
-5.38582e-08
2.79046e-07
-3.23918e-07
-5.33233e-08
2.96006e-07
-3.21427e-07
-5.2836e-08
3.12017e-07
-3.18967e-07
-5.27541e-08
3.27122e-07
-3.16466e-07
-5.26985e-08
3.41257e-07
-3.14098e-07
-5.14873e-08
3.54274e-07
-3.11446e-07
-4.761e-08
3.652e-07
-3.084e-07
-4.08146e-08
3.73845e-07
-3.04074e-07
-3.16922e-08
3.79751e-07
-2.97744e-07
-2.49001e-08
3.82518e-07
-2.87046e-07
-2.72035e-08
3.83983e-07
-2.70271e-07
-4.69133e-08
3.83146e-07
-2.46768e-07
-9.50238e-08
3.88751e-07
-2.16723e-07
-1.79717e-07
4.00704e-07
-1.85493e-07
-3.03105e-07
4.1721e-07
-1.61439e-07
-4.59325e-07
4.28249e-07
-1.52695e-07
-6.33381e-07
4.21831e-07
-1.66866e-07
-8.28548e-07
4.4242e-07
-1.86605e-07
-1.14308e-06
6.11402e-07
-1.49935e-07
-1.73965e-06
9.03185e-07
2.32604e-09
-2.40867e-06
8.00354e-07
1.01664e-07
-2.53018e-06
2.31384e-07
3.60924e-08
-1.77911e-06
2.53427e-07
-4.34492e-07
7.63076e-07
-4.83733e-07
-2.02719e-06
5.47446e-06
-5.65738e-06
-3.36975e-06
9.4129e-06
-1.20518e-05
-2.64094e-06
1.31648e-05
-1.3399e-05
-3.3133e-06
1.65294e-05
-1.50888e-05
-3.76433e-06
1.67091e-05
-1.79525e-05
-2.40566e-06
1.6627e-05
-1.41977e-05
-3.51253e-06
1.42325e-05
-2.14309e-05
-5.73802e-07
1.91472e-05
-4.90043e-06
-4.52954e-06
1.69824e-05
-1.53258e-05
-2.23266e-06
2.21313e-05
1.50515e-06
1.54736e-05
4.13337e-05
8.58054e-07
-2.92884e-06
6.67034e-06
-8.00717e-06
-9.97637e-06
-6.98994e-06
7.27215e-07
5.07671e-06
-1.64922e-05
7.51371e-06
2.57344e-06
-2.37431e-05
1.14944e-05
2.61492e-06
-2.73856e-05
1.01763e-05
-1.52905e-06
-2.91186e-05
7.96327e-06
-2.68912e-06
-2.96789e-05
3.87419e-06
-3.88902e-06
-3.0324e-05
5.72954e-07
-4.0412e-06
-3.05566e-05
-4.01291e-06
-4.27216e-06
-3.10092e-05
-8.08753e-06
-3.68396e-06
-3.04435e-05
-1.1593e-05
-3.63835e-06
-2.93278e-05
-1.37728e-05
-3.07778e-06
-2.71169e-05
-1.4964e-05
-2.79301e-06
-2.37694e-05
-1.44689e-05
-2.27829e-06
-2.09515e-05
-1.16867e-05
-1.1029e-06
-2.02633e-05
-8.0595e-06
-5.52939e-07
-2.13546e-05
-5.02606e-06
-3.96887e-07
-2.26698e-05
-2.47697e-06
-1.44447e-06
-2.22935e-05
4.12649e-07
-3.99386e-06
-1.94716e-05
5.54987e-06
-7.1871e-06
-1.46801e-05
1.1193e-05
-1.11234e-05
-8.28295e-06
1.57813e-05
-1.33464e-05
1.32035e-08
1.91916e-05
-1.26105e-05
8.78728e-06
1.89295e-05
-1.00546e-05
1.4986e-05
1.56115e-05
-6.01801e-06
1.77862e-05
1.20126e-05
-7.32433e-07
1.60854e-05
7.12356e-06
3.76682e-06
8.30785e-06
6.02491e-06
5.93996e-06
2.0556e-06
8.74966e-06
3.43102e-06
-1.90993e-07
8.72789e-06
4.71559e-07
-7.38741e-07
7.55939e-06
-2.27309e-06
-9.72203e-07
7.28244e-06
-3.30165e-06
-1.1113e-06
6.17219e-06
-3.15921e-06
-1.71246e-06
4.22285e-06
-3.3247e-06
-2.13578e-06
2.33616e-06
-4.04641e-06
4.24911e-07
-4.92742e-06
-6.24898e-06
-4.71928e-06
-1.03745e-07
-4.57152e-06
-6.16207e-06
-1.54595e-06
-4.37416e-06
-4.16131e-06
-4.42108e-07
-2.83688e-06
-4.90087e-06
-1.51929e-06
-2.3973e-06
-2.45282e-06
-8.57826e-07
-1.56298e-06
-2.94129e-06
-9.39384e-07
-1.04247e-06
-1.28756e-06
-4.53246e-07
-5.87694e-07
-8.4783e-07
-3.61103e-08
-3.82736e-07
1.8671e-07
-2.37309e-08
-2.47448e-07
2.19538e-07
-7.88707e-08
-2.54099e-08
1.39924e-07
-2.39746e-07
2.48022e-08
1.1464e-07
-2.38557e-07
-4.43116e-08
1.95936e-07
-2.51577e-07
-1.29545e-07
1.67333e-07
-2.57324e-07
-1.80573e-07
2.04835e-07
-2.87816e-07
-1.92472e-07
2.33753e-07
-3.13022e-07
-1.82691e-07
2.89606e-07
-3.32382e-07
-1.63555e-07
3.44912e-07
-3.42939e-07
-1.41871e-07
3.98442e-07
-3.46206e-07
-1.24256e-07
4.4679e-07
-3.4478e-07
-1.12313e-07
4.87492e-07
-3.41187e-07
-1.04913e-07
5.19827e-07
-3.3655e-07
-1.01437e-07
5.45814e-07
-3.31119e-07
-1.00678e-07
5.66224e-07
-3.25628e-07
-1.01714e-07
5.82564e-07
-3.20192e-07
-1.03844e-07
5.96236e-07
-3.14689e-07
-1.06463e-07
6.08315e-07
-3.09334e-07
-1.08779e-07
6.18943e-07
-3.04205e-07
-1.11018e-07
6.28351e-07
-2.98607e-07
-1.12599e-07
6.35683e-07
-2.92416e-07
-1.13917e-07
6.41503e-07
-2.85505e-07
-1.14858e-07
6.44509e-07
-2.77911e-07
-1.17237e-07
6.44873e-07
-2.68218e-07
-1.23365e-07
6.42007e-07
-2.55638e-07
-1.38922e-07
6.37434e-07
-2.3889e-07
-1.68837e-07
6.31946e-07
-2.17513e-07
-2.16483e-07
6.24324e-07
-1.93021e-07
-2.81258e-07
6.20823e-07
-1.66719e-07
-3.61436e-07
6.24366e-07
-1.42924e-07
-4.5255e-07
6.35837e-07
-1.26875e-07
-5.6346e-07
6.58343e-07
-1.18564e-07
-7.19929e-07
6.92745e-07
-1.13722e-07
-9.6042e-07
7.72552e-07
-8.88281e-08
-1.36267e-06
1.0153e-06
-6.22209e-10
-1.9521e-06
1.30227e-06
1.9171e-07
-2.48924e-06
1.1314e-06
2.14833e-07
-2.03176e-06
-5.44265e-08
-1.48066e-07
-2.10153e-08
-5.3969e-07
-1.17539e-06
3.86892e-06
-1.21975e-06
-3.05264e-06
8.85172e-06
-7.3333e-06
-3.18675e-06
1.18354e-05
-1.22541e-05
-2.5978e-06
1.38738e-05
-1.20179e-05
-3.34546e-06
1.11371e-05
-6.92874e-06
-5.20463e-06
1.55094e-06
-2.01474e-06
-6.466e-06
-1.09918e-06
-1.14074e-06
-1.04365e-05
-8.11472e-06
-6.08033e-06
-9.09796e-06
7.73824e-06
-9.57589e-08
-1.73595e-05
-3.98615e-07
1.24203e-06
-9.3344e-06
2.7e-05
-2.02008e-06
8.76562e-07
4.29773e-05
1.48675e-06
-2.57615e-06
-4.7807e-06
5.79339e-06
-7.31423e-06
-2.06218e-05
8.08034e-06
7.55574e-06
-2.74661e-05
1.463e-05
-2.49897e-07
-2.99518e-05
1.57651e-05
-1.77406e-06
-3.09443e-05
1.61731e-05
-5.04188e-06
-3.01478e-05
1.29511e-05
-5.84573e-06
-2.93896e-05
8.58619e-06
-5.5324e-06
-2.807e-05
3.4739e-06
-4.27243e-06
-2.88458e-05
-5.23602e-07
-2.75235e-06
-3.11022e-05
-3.9244e-06
-1.93583e-06
-3.2883e-05
-7.8565e-06
-1.9932e-06
-3.26316e-05
-1.19729e-05
-2.09016e-06
-3.17481e-05
-1.37019e-05
-2.18657e-06
-3.04359e-05
-1.34378e-05
-2.38713e-06
-2.91475e-05
-1.09129e-05
-2.10416e-06
-2.87771e-05
-6.5589e-06
-1.90342e-06
-2.91366e-05
-2.70963e-06
-1.98018e-06
-2.9897e-05
9.58019e-07
-2.69207e-06
-2.84991e-05
2.87224e-06
-3.87364e-06
-2.42659e-05
6.55101e-06
-5.24893e-06
-1.77623e-05
1.09101e-05
-6.23242e-06
-9.55228e-06
1.43768e-05
-6.81646e-06
-6.10647e-07
1.56245e-05
-5.38508e-06
7.5077e-06
1.37872e-05
-2.98392e-06
1.22233e-05
1.07257e-05
1.67e-07
1.27393e-05
7.99124e-06
3.5058e-06
7.89809e-06
8.12511e-06
3.84148e-06
4.98444e-07
1.14514e-05
1.97413e-06
-4.30451e-06
1.37548e-05
-2.02258e-07
-5.69135e-06
1.17831e-05
-1.66967e-06
-6.3088e-06
1.02277e-05
-2.0526e-06
-6.41966e-06
9.60085e-06
-2.20928e-06
-5.89126e-06
9.2188e-06
-3.57703e-06
-6.01168e-06
8.48747e-06
-4.1459e-06
-5.03684e-06
5.94077e-06
-4.58041e-06
1.04771e-06
-5.66042e-06
-6.73401e-06
-4.04424e-06
4.40722e-07
-4.76808e-06
-6.00679e-06
-2.12512e-06
-4.58943e-06
-3.44909e-06
-8.8558e-07
-2.82228e-06
-4.46321e-06
-2.21034e-06
-2.37013e-06
-1.6554e-06
-1.24388e-06
-1.40851e-06
-2.43254e-06
-1.46088e-06
-9.88891e-07
-6.86635e-07
-1.01066e-06
-7.1179e-07
-7.37961e-07
-3.78246e-07
-5.35701e-07
2.83876e-07
-2.66847e-07
-3.00455e-07
2.35999e-07
-2.48346e-07
8.65911e-08
2.15255e-07
-4.60447e-07
2.39194e-07
3.58701e-07
-3.96429e-07
1.84104e-07
5.75787e-07
-3.24714e-07
5.7806e-08
5.71315e-07
-2.78044e-07
-3.43731e-08
5.93354e-07
-2.96488e-07
-9.55354e-08
6.04411e-07
-3.09827e-07
-1.33923e-07
6.51511e-07
-3.23709e-07
-1.54402e-07
6.95584e-07
-3.30466e-07
-1.63885e-07
7.40668e-07
-3.33012e-07
-1.68045e-07
7.81219e-07
-3.30609e-07
-1.72309e-07
8.12895e-07
-3.21487e-07
-1.77109e-07
8.36055e-07
-3.11822e-07
-1.82207e-07
8.53172e-07
-3.02641e-07
-1.872e-07
8.64778e-07
-2.9398e-07
-1.91875e-07
8.72774e-07
-2.85935e-07
-1.96082e-07
8.78466e-07
-2.78458e-07
-1.99882e-07
8.82906e-07
-2.712e-07
-2.03393e-07
8.8614e-07
-2.64123e-07
-2.06958e-07
8.88325e-07
-2.56803e-07
-2.10885e-07
8.88091e-07
-2.48887e-07
-2.16773e-07
8.86745e-07
-2.39694e-07
-2.25719e-07
8.82566e-07
-2.29453e-07
-2.3924e-07
8.75616e-07
-2.17476e-07
-2.59597e-07
8.64879e-07
-2.02754e-07
-2.90793e-07
8.53649e-07
-1.85152e-07
-3.33625e-07
8.4104e-07
-1.66378e-07
-3.85477e-07
8.2567e-07
-1.49497e-07
-4.35724e-07
8.08314e-07
-1.3725e-07
-4.73833e-07
7.92168e-07
-1.29636e-07
-4.99047e-07
7.87427e-07
-1.26381e-07
-5.31279e-07
8.1048e-07
-1.19855e-07
-6.3248e-07
8.92602e-07
-9.86074e-08
-8.5872e-07
1.0463e-06
-4.71672e-08
-1.27146e-06
1.34924e-06
7.94818e-08
-1.78989e-06
1.55674e-06
2.65312e-07
-1.93118e-06
1.06296e-06
2.20294e-07
-7.31924e-07
-7.43106e-07
-4.85359e-07
2.08361e-06
-1.52383e-06
-1.78677e-06
6.59322e-06
-2.83582e-06
-2.65057e-06
1.03002e-05
-8.13917e-06
-2.6321e-06
9.10176e-06
-7.35286e-06
-3.36852e-06
4.55868e-06
-8.98495e-07
-6.49451e-06
-1.41487e-07
7.60934e-06
-9.80565e-06
-5.02218e-06
1.24193e-05
-9.84739e-06
-2.70561e-06
7.83109e-06
-1.12606e-05
-6.89991e-06
5.38436e-06
-8.10725e-06
1.13291e-05
-3.62476e-06
-1.30543e-05
1.08481e-05
1.36247e-05
-1.41041e-05
2.52128e-05
1.27122e-05
-3.05638e-06
4.58204e-05
2.89922e-06
-3.47138e-06
-1.84893e-06
1.80743e-05
-8.40098e-06
-2.07532e-05
1.69558e-05
8.88595e-06
-2.67677e-05
2.2017e-05
-1.37945e-06
-2.70031e-05
1.92299e-05
-3.28841e-06
-2.50172e-05
2.02833e-05
-6.20022e-06
-1.9151e-05
1.31022e-05
-6.12982e-06
-1.44508e-05
5.65204e-06
-1.83315e-06
-1.1413e-05
5.74559e-07
-1.62737e-07
-1.13156e-05
-1.72447e-06
1.09495e-06
-1.51737e-05
-2.49031e-06
2.42102e-06
-2.14132e-05
-3.931e-06
2.30467e-06
-2.69949e-05
-8.02409e-06
1.62075e-06
-3.04002e-05
-1.13579e-05
1.06039e-06
-3.16157e-05
-1.21387e-05
-8.82953e-08
-3.14858e-05
-1.01864e-05
-8.77238e-07
-3.16653e-05
-5.22823e-06
-1.18593e-06
-3.1447e-05
-1.61248e-06
-1.35523e-06
-3.02565e-05
1.33839e-06
-1.61355e-06
-2.82901e-05
2.74144e-06
-1.87419e-06
-2.41797e-05
4.76373e-06
-2.36576e-06
-1.80932e-05
7.48165e-06
-2.71182e-06
-1.01131e-05
8.6728e-06
-2.33922e-06
-1.86201e-06
8.34256e-06
-1.02294e-06
3.17757e-06
8.01157e-06
7.08175e-07
3.78611e-06
7.80801e-06
2.3055e-06
4.02036e-08
9.87508e-06
1.85679e-06
-5.30233e-06
1.24577e-05
9.95711e-07
-8.15455e-06
1.35945e-05
6.81244e-07
-8.63451e-06
1.31104e-05
1.08549e-06
-8.24762e-06
9.97107e-06
1.39019e-06
-7.78509e-06
7.87955e-06
1.85484e-06
-7.76683e-06
7.36453e-06
2.19337e-06
-7.96037e-06
7.43736e-06
1.9548e-06
-8.52346e-06
6.60192e-06
2.44498e-06
-5.96109e-06
6.38447e-07
2.74504e-06
-6.46674e-06
1.54666e-06
-6.67185e-06
-3.1138e-06
1.14561e-06
-4.4171e-06
-5.43495e-06
-2.83062e-06
-4.32962e-06
-2.05158e-06
-1.47744e-06
-2.88475e-06
-3.50133e-06
-2.41519e-06
-2.62353e-06
-4.68882e-07
-1.44097e-06
-1.32543e-06
-1.55136e-06
-2.1716e-06
-7.80462e-07
2.85802e-07
-1.50904e-06
-5.91035e-07
-1.58288e-07
-7.5983e-07
-4.7111e-07
7.00997e-07
-5.30303e-07
-3.26036e-07
5.23939e-07
-4.28576e-07
5.23727e-08
5.01701e-07
-6.61665e-07
2.08712e-07
7.46014e-07
-5.42808e-07
2.04677e-07
1.06021e-06
-4.79943e-07
1.30533e-07
1.0453e-06
-3.99867e-07
6.68874e-08
1.0684e-06
-4.11289e-07
-1.00319e-08
1.07935e-06
-3.98123e-07
-8.1674e-08
1.13059e-06
-4.07324e-07
-1.3986e-07
1.17321e-06
-4.19442e-07
-1.82617e-07
1.21386e-06
-4.30442e-07
-2.1227e-07
1.24917e-06
-4.38292e-07
-2.32412e-07
1.27857e-06
-4.45568e-07
-2.47092e-07
1.30259e-06
-4.51889e-07
-2.58907e-07
1.32204e-06
-4.57106e-07
-2.69593e-07
1.33763e-06
-4.62205e-07
-2.80269e-07
1.35071e-06
-4.67316e-07
-2.91669e-07
1.36211e-06
-4.72279e-07
-3.04141e-07
1.37223e-06
-4.76898e-07
-3.18022e-07
1.38051e-06
-4.80488e-07
-3.30165e-07
1.38287e-06
-4.82418e-07
-3.40462e-07
1.38203e-06
-4.83642e-07
-3.51588e-07
1.38164e-06
-4.83784e-07
-3.66869e-07
1.38023e-06
-4.82378e-07
-3.89814e-07
1.37834e-06
-4.798e-07
-4.23389e-07
1.37485e-06
-4.76396e-07
-4.70228e-07
1.37212e-06
-4.71638e-07
-5.27765e-07
1.36671e-06
-4.68098e-07
-5.89541e-07
1.35426e-06
-4.66761e-07
-6.42588e-07
1.3323e-06
-4.70799e-07
-6.75956e-07
1.30585e-06
-4.80098e-07
-6.97179e-07
1.29468e-06
-4.85687e-07
-7.42773e-07
1.32784e-06
-4.71273e-07
-8.79227e-07
1.4374e-06
-4.07626e-07
-1.11959e-06
1.55513e-06
-2.67724e-07
-1.47166e-06
1.74259e-06
-4.06054e-08
-1.84717e-06
1.80536e-06
1.29097e-07
-1.63235e-06
9.52483e-07
-9.00575e-08
-2.21193e-07
-8.06954e-07
-1.31754e-06
1.93549e-06
-1.03427e-06
-2.5641e-06
1.52436e-06
1.03579e-06
-3.18828e-06
-4.39168e-06
4.75864e-06
-6.8135e-06
-1.18194e-05
9.22894e-06
-9.23994e-06
-1.64397e-05
1.38604e-05
-1.00764e-05
-1.62602e-05
1.76396e-05
-1.01476e-05
-1.55674e-05
1.88993e-05
-7.33458e-06
-1.75234e-05
1.82998e-05
-8.41878e-06
-2.00279e-05
1.38702e-05
-6.52059e-06
1.50677e-05
-1.76859e-05
-1.42825e-05
2.14288e-05
4.49135e-06
1.4077e-07
2.78741e-05
1.6252e-05
1.6936e-05
5.24424e-05
7.78567e-06
-5.96243e-06
-2.13928e-06
3.17816e-05
-9.41383e-06
-1.98124e-05
2.16133e-05
1.16503e-05
-2.24013e-05
2.62753e-05
-1.74929e-06
-1.86199e-05
1.9358e-05
-4.01915e-06
-1.27298e-05
2.23246e-05
-8.02954e-06
-7.29893e-06
1.13423e-05
-3.73764e-06
-5.35367e-06
4.29002e-06
-6.0483e-07
-6.94885e-06
1.27099e-06
9.04951e-07
-8.11511e-06
-1.809e-06
1.27589e-06
-8.76867e-06
-4.26039e-06
2.452e-06
-1.03463e-05
-6.783e-06
4.46369e-06
-1.51322e-05
-8.121e-06
4.92325e-06
-2.18076e-05
-1.0633e-05
6.00027e-06
-2.79973e-05
-1.08766e-05
4.98277e-06
-3.11071e-05
-9.35164e-06
2.32358e-06
-3.37134e-05
-2.94662e-06
3.55391e-07
-3.55363e-05
4.41387e-07
-2.13136e-07
-3.50384e-05
2.7478e-06
-1.93884e-06
-3.3595e-05
4.04423e-06
-2.82296e-06
-3.08161e-05
4.30319e-06
-2.38193e-06
-2.72411e-05
5.96654e-06
-2.11245e-06
-2.20507e-05
6.2661e-06
-2.85827e-06
-1.6302e-05
6.14381e-06
-3.67575e-06
-1.24173e-05
7.20088e-06
-3.22266e-06
-1.10582e-05
8.18059e-06
-1.8497e-06
-1.14037e-05
9.62885e-06
5.17629e-07
-1.11027e-05
1.02043e-05
1.87823e-06
-9.88417e-06
9.21332e-06
3.08921e-06
-6.9811e-06
6.43623e-06
3.69789e-06
-2.80046e-06
1.61073e-06
4.09637e-06
5.19611e-07
-3.43436e-07
4.79974e-06
3.13156e-06
-3.39679e-07
4.961e-06
5.95984e-06
-8.65222e-07
5.2825e-06
8.92791e-06
-2.96711e-06
6.32539e-06
7.72074e-06
-7.55263e-06
9.03174e-06
-1.27058e-05
1.47858e-05
-6.13797e-06
-3.96135e-07
3.67981e-06
-3.73728e-06
-4.89817e-06
-2.94128e-06
-3.92138e-06
-2.76319e-07
-1.58286e-06
-2.95571e-06
-2.8279e-06
-1.64354e-06
-2.92602e-06
4.31023e-07
-9.20813e-07
-1.65248e-06
-9.93628e-07
-1.82642e-06
-1.25825e-06
7.9693e-07
-8.96906e-07
-8.21092e-07
1.61228e-07
-7.50195e-07
-6.35815e-07
8.43814e-07
-3.23107e-07
-4.3107e-07
4.7417e-07
-1.5128e-07
-1.36464e-07
5.47627e-07
-3.35806e-07
5.46783e-08
7.07866e-07
-1.51458e-07
1.76424e-07
9.89787e-07