/*--------------------------------*- C++ -*----------------------------------*\
| =========                 |                                                 |
| \\      /  F ield         | OpenFOAM: The Open Source CFD Toolbox           |
|  \\    /   O peration     | Version:  2.3.0                                 |
|   \\  /    A nd           | Web:      www.OpenFOAM.org                      |
|    \\/     M anipulation  |                                                 |
\*---------------------------------------------------------------------------*/
FoamFile
{
    version     2.0;
    format      ascii;
    class       volScalarField;
    location    "15";
    object      rho;
}
// * * * * * * * * * * * * * * * * * * * * * * * * * * * * * * * * * * * * * //

dimensions      [1 -3 0 0 0 0 0];

internalField   nonuniform List<scalar> 
6144
(
1.16703
1.1672
1.16795
1.16822
1.16842
1.1686
1.16873
1.16881
1.16885
1.16888
1.16889
1.16889
1.1689
1.1689
1.1689
1.1689
1.1689
1.1689
1.16891
1.16891
1.16891
1.16891
1.16891
1.16892
1.16892
1.16892
1.16892
1.16892
1.16892
1.16893
1.16893
1.16893
1.16893
1.16893
1.16893
1.16894
1.16894
1.16894
1.16894
1.16895
1.16894
1.16895
1.16895
1.16896
1.16895
1.16896
1.16895
1.16897
1.16895
1.16949
1.17176
1.17618
1.18279
1.20958
1.24283
1.31046
1.36942
1.86117
3.10667
60.3573
987.31
1026.86
1027.09
1027.09
1027.1
1027.1
1027.1
1027.1
1027.1
1027.1
1027.1
1027.1
1027.1
1027.1
1027.1
1027.1
1027.1
1027.1
1027.1
1027.1
1027.1
1027.1
1027.1
1027.1
1027.1
1027.1
1027.1
1027.1
1027.1
1027.1
1027.1
1027.1
1027.1
1027.1
1027.1
1027.1
1.16519
1.16591
1.16759
1.16718
1.16809
1.16849
1.16863
1.16871
1.16875
1.16881
1.16886
1.16889
1.1689
1.1689
1.1689
1.1689
1.16891
1.16891
1.16891
1.16891
1.16891
1.16891
1.16892
1.16892
1.16892
1.16892
1.16892
1.16892
1.16893
1.16893
1.16893
1.16893
1.16893
1.16894
1.16894
1.16894
1.16894
1.16895
1.16894
1.16895
1.16894
1.16896
1.16895
1.16896
1.16895
1.16896
1.16895
1.16898
1.16896
1.1698
1.1727
1.1773
1.18688
1.21497
1.22956
1.30092
1.38095
1.96754
2.94286
56.0968
992.376
1027.05
1027.09
1027.09
1027.09
1027.1
1027.1
1027.1
1027.1
1027.1
1027.1
1027.1
1027.1
1027.1
1027.1
1027.1
1027.1
1027.1
1027.1
1027.1
1027.1
1027.1
1027.1
1027.1
1027.1
1027.1
1027.1
1027.1
1027.1
1027.1
1027.1
1027.1
1027.1
1027.1
1027.1
1027.1
1.16413
1.16475
1.16569
1.16538
1.16781
1.16806
1.1685
1.16867
1.16864
1.16874
1.16882
1.16888
1.1689
1.1689
1.1689
1.16891
1.16891
1.16891
1.16891
1.16891
1.16891
1.16892
1.16892
1.16892
1.16892
1.16892
1.16892
1.16893
1.16893
1.16893
1.16893
1.16893
1.16893
1.16894
1.16894
1.16894
1.16894
1.16895
1.16894
1.16895
1.16894
1.16896
1.16895
1.16896
1.16895
1.16897
1.16895
1.16899
1.16897
1.16987
1.17273
1.17636
1.18588
1.21138
1.22649
1.3227
1.32907
1.78972
2.1369
50.6291
986.984
1027.09
1027.09
1027.09
1027.09
1027.1
1027.1
1027.1
1027.1
1027.1
1027.1
1027.1
1027.1
1027.1
1027.1
1027.1
1027.1
1027.1
1027.1
1027.1
1027.1
1027.1
1027.1
1027.1
1027.1
1027.1
1027.1
1027.1
1027.1
1027.1
1027.1
1027.1
1027.1
1027.1
1027.1
1027.1
1.16353
1.16366
1.1641
1.16424
1.16639
1.1668
1.16818
1.16861
1.16868
1.16874
1.16881
1.16887
1.1689
1.1689
1.1689
1.1689
1.16891
1.16891
1.16891
1.16891
1.16891
1.16891
1.16892
1.16892
1.16892
1.16892
1.16892
1.16892
1.16893
1.16893
1.16893
1.16893
1.16893
1.16893
1.16894
1.16894
1.16894
1.16894
1.16894
1.16895
1.16894
1.16896
1.16895
1.16896
1.16895
1.16896
1.16895
1.16899
1.16899
1.16993
1.17172
1.17493
1.18134
1.2056
1.24264
1.33211
1.34083
1.65169
1.54518
70.4355
983.537
1027.09
1027.09
1027.09
1027.09
1027.1
1027.1
1027.1
1027.1
1027.1
1027.1
1027.1
1027.1
1027.1
1027.1
1027.1
1027.1
1027.1
1027.1
1027.1
1027.1
1027.1
1027.1
1027.1
1027.1
1027.1
1027.1
1027.1
1027.1
1027.1
1027.1
1027.1
1027.1
1027.1
1027.1
1027.1
1.16331
1.16316
1.1633
1.16342
1.165
1.16554
1.16727
1.16802
1.16865
1.16881
1.16881
1.16887
1.16889
1.1689
1.1689
1.16891
1.16891
1.16891
1.16891
1.16891
1.16891
1.16892
1.16892
1.16892
1.16892
1.16892
1.16892
1.16893
1.16893
1.16893
1.16893
1.16893
1.16893
1.16894
1.16894
1.16894
1.16894
1.16894
1.16894
1.16895
1.16895
1.16896
1.16895
1.16896
1.16895
1.16897
1.16895
1.169
1.16908
1.17011
1.17157
1.17471
1.18191
1.19803
1.25894
1.35575
1.35939
1.52417
1.29402
175.583
1023.58
1027.08
1027.09
1027.09
1027.09
1027.09
1027.1
1027.1
1027.1
1027.1
1027.1
1027.1
1027.1
1027.1
1027.1
1027.1
1027.1
1027.1
1027.1
1027.1
1027.1
1027.1
1027.1
1027.1
1027.1
1027.1
1027.1
1027.1
1027.1
1027.1
1027.1
1027.1
1027.1
1027.1
1027.1
1027.1
1.16331
1.16302
1.16293
1.16303
1.1642
1.16465
1.16622
1.16745
1.16811
1.16869
1.16882
1.16887
1.16889
1.1689
1.1689
1.1689
1.1689
1.1689
1.16891
1.16891
1.16891
1.16891
1.16891
1.16891
1.16892
1.16892
1.16892
1.16892
1.16892
1.16892
1.16893
1.16893
1.16893
1.16893
1.16893
1.16893
1.16894
1.16894
1.16894
1.16894
1.16894
1.16895
1.16895
1.16895
1.16895
1.16896
1.16895
1.16902
1.16922
1.17017
1.17201
1.17689
1.18784
1.20374
1.26329
1.35293
1.34481
1.40849
1.169
364.391
1023.67
1026.02
1026.2
1026.27
1026.42
1026.71
1026.89
1026.95
1026.97
1026.98
1027.01
1027.05
1027.07
1027.07
1027.08
1027.09
1027.09
1027.09
1027.1
1027.1
1027.1
1027.1
1027.1
1027.1
1027.1
1027.1
1027.1
1027.1
1027.1
1027.1
1027.1
1027.1
1027.1
1027.1
1027.1
1027.1
1.16356
1.16303
1.1628
1.1629
1.1636
1.16413
1.16543
1.16697
1.16754
1.16827
1.16873
1.16887
1.16889
1.1689
1.1689
1.16891
1.16891
1.16891
1.16891
1.16891
1.16891
1.16892
1.16892
1.16892
1.16892
1.16892
1.16892
1.16893
1.16893
1.16893
1.16893
1.16893
1.16893
1.16894
1.16894
1.16894
1.16894
1.16894
1.16894
1.16895
1.16895
1.16896
1.16895
1.16896
1.16895
1.16897
1.16895
1.16905
1.16923
1.17011
1.17238
1.17956
1.19399
1.21215
1.23932
1.31382
1.37472
1.44312
1.169
584.698
1013.88
1015.79
1014.97
1014.83
1016.22
1017.81
1018.65
1017.68
1017.04
1017.84
1019.61
1021.19
1021.57
1021.42
1021.5
1022.65
1023.28
1023.67
1024.05
1024.5
1024.94
1025.18
1025.28
1025.37
1025.53
1025.8
1026.03
1026.21
1026.41
1026.66
1026.87
1027.02
1027.1
1027.1
1027.1
1027.09
1.16374
1.16338
1.1628
1.16291
1.1632
1.16389
1.16511
1.16659
1.1673
1.16792
1.16858
1.16884
1.16889
1.1689
1.1689
1.16891
1.16891
1.16891
1.16891
1.16892
1.16892
1.16892
1.16892
1.16892
1.16892
1.16893
1.16893
1.16893
1.16893
1.16893
1.16894
1.16894
1.16894
1.16894
1.16894
1.16895
1.16895
1.16895
1.16895
1.16895
1.16896
1.16896
1.16896
1.16896
1.16896
1.16897
1.16896
1.16904
1.16913
1.1698
1.1714
1.17543
1.18795
1.2104
1.21787
1.32692
1.39192
1.4721
1.169
639.689
995.55
997.889
998.64
999.362
999.431
997.486
994.656
993.71
993.619
994.239
995.556
995.956
996.03
996.037
995.921
995.713
995.62
995.556
995.5
995.491
995.643
995.914
996.092
996.23
996.365
996.562
996.809
997.07
997.337
997.854
998.25
998.707
999.946
1001.33
1004.9
1009.5
1.16371
1.16375
1.16312
1.16344
1.16301
1.16392
1.16522
1.16672
1.16734
1.16779
1.1684
1.16875
1.16887
1.1689
1.1689
1.1689
1.1689
1.16891
1.16891
1.16891
1.16891
1.16891
1.16892
1.16892
1.16892
1.16892
1.16892
1.16893
1.16893
1.16893
1.16893
1.16893
1.16893
1.16894
1.16894
1.16894
1.16894
1.16895
1.16895
1.16895
1.16895
1.16895
1.16895
1.16896
1.16896
1.16897
1.16897
1.16902
1.16903
1.16957
1.17075
1.17442
1.19108
1.21647
1.22323
1.27996
1.33539
1.50284
1.17948
405.547
1003.8
1016.04
1017.68
1017.63
1016.96
1017.03
1015.91
1014.76
1014.61
1013.42
1012.9
1015.46
1016.05
1015.7
1014.86
1014.11
1014.2
1015.2
1015.32
1013.25
1011.36
1011.49
1013.51
1013.93
1014.08
1014.59
1015.03
1015.54
1016.33
1017.11
1018.04
1019.12
1020.54
1022.18
1024.07
1025.66
1.16365
1.16392
1.16367
1.16404
1.16347
1.16489
1.16584
1.16704
1.16757
1.16801
1.16845
1.16874
1.16887
1.1689
1.1689
1.16891
1.16891
1.16891
1.16891
1.16891
1.16892
1.16892
1.16892
1.16892
1.16892
1.16893
1.16893
1.16893
1.16893
1.16893
1.16893
1.16893
1.16894
1.16894
1.16894
1.16894
1.16894
1.16894
1.16894
1.16895
1.16895
1.16895
1.16895
1.16896
1.16895
1.16897
1.16897
1.169
1.16896
1.16934
1.17026
1.17238
1.18186
1.21429
1.24987
1.28435
1.29236
1.56425
1.34075
206.702
1014.24
1025.81
1026.35
1026.55
1026.6
1026.63
1026.62
1026.58
1026.58
1026.59
1026.59
1026.59
1026.57
1026.56
1026.56
1026.55
1026.5
1026.45
1026.44
1026.44
1026.41
1026.39
1026.48
1026.52
1026.52
1026.57
1026.66
1026.7
1026.71
1026.8
1026.88
1026.93
1026.99
1027.04
1027.08
1027.09
1.16316
1.16373
1.16424
1.16455
1.16404
1.16587
1.16666
1.16762
1.16814
1.16854
1.16872
1.16883
1.16889
1.1689
1.1689
1.1689
1.1689
1.16891
1.16891
1.16891
1.16891
1.16891
1.16892
1.16892
1.16892
1.16892
1.16892
1.16893
1.16893
1.16893
1.16893
1.16893
1.16893
1.16894
1.16894
1.16894
1.16894
1.16894
1.16894
1.16895
1.16895
1.16895
1.16895
1.16896
1.16895
1.16897
1.16896
1.169
1.16895
1.16916
1.16982
1.17109
1.17692
1.20804
1.27571
1.29032
1.29434
1.73708
1.4761
84.602
998.708
1027.06
1027.09
1027.09
1027.09
1027.1
1027.09
1027.1
1027.1
1027.1
1027.1
1027.1
1027.1
1027.1
1027.1
1027.1
1027.1
1027.1
1027.1
1027.1
1027.1
1027.1
1027.1
1027.1
1027.1
1027.1
1027.1
1027.1
1027.1
1027.1
1027.1
1027.1
1027.1
1027.1
1027.1
1027.1
1.16163
1.1626
1.16491
1.16517
1.16464
1.1667
1.16741
1.16819
1.16857
1.16879
1.16886
1.1689
1.16891
1.16891
1.16891
1.16891
1.16891
1.16891
1.16892
1.16892
1.16892
1.16892
1.16892
1.16892
1.16893
1.16893
1.16893
1.16893
1.16893
1.16893
1.16894
1.16894
1.16894
1.16894
1.16894
1.16894
1.16895
1.16895
1.16895
1.16895
1.16895
1.16896
1.16895
1.16897
1.16896
1.16897
1.16896
1.169
1.16895
1.16911
1.16952
1.1713
1.17584
1.19401
1.2657
1.31554
1.31879
1.86113
1.59858
37.7889
975.388
1027.1
1027.09
1027.1
1027.1
1027.1
1027.1
1027.1
1027.1
1027.1
1027.1
1027.1
1027.1
1027.1
1027.1
1027.1
1027.1
1027.1
1027.1
1027.1
1027.1
1027.1
1027.1
1027.1
1027.1
1027.1
1027.1
1027.1
1027.1
1027.1
1027.1
1027.1
1027.1
1027.1
1027.1
1027.1
1.15986
1.16184
1.16472
1.16558
1.16533
1.16727
1.16794
1.1685
1.16872
1.16884
1.16889
1.16891
1.16891
1.16891
1.16891
1.16892
1.16892
1.16892
1.16892
1.16892
1.16892
1.16893
1.16893
1.16893
1.16893
1.16893
1.16893
1.16893
1.16894
1.16894
1.16894
1.16894
1.16894
1.16894
1.16895
1.16895
1.16895
1.16895
1.16895
1.16895
1.16896
1.16896
1.16896
1.16897
1.16896
1.16897
1.16895
1.169
1.16895
1.16909
1.16951
1.1723
1.17723
1.18638
1.22457
1.28453
1.36482
2.00292
1.78093
23.7666
952.711
1027.1
1027.1
1027.1
1027.1
1027.1
1027.1
1027.1
1027.1
1027.1
1027.1
1027.1
1027.1
1027.1
1027.1
1027.1
1027.1
1027.1
1027.1
1027.1
1027.1
1027.1
1027.1
1027.1
1027.1
1027.1
1027.1
1027.1
1027.1
1027.1
1027.1
1027.1
1027.1
1027.1
1027.1
1027.1
1.15955
1.16211
1.16472
1.1659
1.1661
1.16763
1.16826
1.16867
1.1688
1.16888
1.1689
1.16891
1.16891
1.16891
1.16891
1.16891
1.16892
1.16892
1.16892
1.16892
1.16892
1.16892
1.16893
1.16893
1.16893
1.16893
1.16893
1.16893
1.16894
1.16894
1.16894
1.16894
1.16894
1.16894
1.16895
1.16895
1.16895
1.16895
1.16895
1.16895
1.16896
1.16896
1.16896
1.16897
1.16896
1.16897
1.16895
1.169
1.16895
1.16907
1.1694
1.17316
1.18163
1.197
1.20948
1.24376
1.44713
2.14288
2.05224
39.271
956.77
1027.09
1027.1
1027.1
1027.1
1027.1
1027.1
1027.1
1027.1
1027.1
1027.1
1027.1
1027.1
1027.1
1027.1
1027.1
1027.1
1027.1
1027.1
1027.1
1027.1
1027.1
1027.1
1027.1
1027.1
1027.1
1027.1
1027.1
1027.1
1027.1
1027.1
1027.1
1027.1
1027.1
1027.1
1027.1
1.15927
1.16286
1.16498
1.16614
1.16684
1.16787
1.16839
1.1687
1.16881
1.16888
1.16889
1.1689
1.1689
1.16891
1.16891
1.16891
1.16891
1.16891
1.16892
1.16892
1.16892
1.16892
1.16892
1.16892
1.16893
1.16893
1.16893
1.16893
1.16893
1.16893
1.16894
1.16894
1.16894
1.16894
1.16894
1.16894
1.16895
1.16895
1.16895
1.16895
1.16895
1.16896
1.16895
1.16897
1.16896
1.16897
1.16895
1.16899
1.16895
1.16906
1.16931
1.17221
1.17927
1.20513
1.21266
1.25793
1.59141
2.25671
2.60238
34.5364
956.594
1026.86
1027.1
1027.1
1027.1
1027.1
1027.1
1027.1
1027.1
1027.1
1027.1
1027.1
1027.1
1027.1
1027.1
1027.1
1027.1
1027.1
1027.1
1027.1
1027.1
1027.1
1027.1
1027.1
1027.1
1027.1
1027.1
1027.1
1027.1
1027.1
1027.1
1027.1
1027.1
1027.1
1027.1
1027.1
1.15955
1.16367
1.16528
1.16612
1.16693
1.16773
1.16828
1.16862
1.16877
1.16887
1.16889
1.16891
1.16891
1.16891
1.16891
1.16892
1.16892
1.16892
1.16892
1.16892
1.16892
1.16893
1.16893
1.16893
1.16893
1.16893
1.16893
1.16894
1.16894
1.16894
1.16894
1.16894
1.16895
1.16895
1.16895
1.16895
1.16895
1.16896
1.16896
1.16896
1.16896
1.16896
1.16897
1.16897
1.16897
1.16897
1.16895
1.169
1.16896
1.16909
1.16941
1.17211
1.17995
1.19873
1.21372
1.3552
1.45815
2.11307
2.4347
44.0425
944.308
1026.24
1027.09
1027.1
1027.1
1027.1
1027.1
1027.1
1027.1
1027.1
1027.1
1027.1
1027.1
1027.1
1027.1
1027.1
1027.1
1027.1
1027.1
1027.1
1027.1
1027.1
1027.1
1027.1
1027.1
1027.1
1027.1
1027.1
1027.1
1027.1
1027.1
1027.1
1027.1
1027.1
1027.1
1027.1
1.16714
1.16746
1.16811
1.16817
1.16836
1.1684
1.16839
1.16843
1.16855
1.16868
1.16881
1.16888
1.16891
1.16891
1.16891
1.16891
1.16892
1.16892
1.16892
1.16892
1.16892
1.16892
1.16893
1.16893
1.16893
1.16893
1.16893
1.16893
1.16894
1.16894
1.16894
1.16894
1.16894
1.16894
1.16895
1.16895
1.16895
1.16895
1.16895
1.16896
1.16896
1.16896
1.16896
1.16896
1.16897
1.16897
1.16895
1.16899
1.16896
1.16935
1.17095
1.17521
1.183
1.20975
1.23804
1.30418
1.36504
2.09351
5.049
72.3409
973.847
1026.64
1027.09
1027.09
1027.1
1027.1
1027.1
1027.1
1027.1
1027.1
1027.1
1027.1
1027.1
1027.1
1027.1
1027.1
1027.1
1027.1
1027.1
1027.1
1027.1
1027.1
1027.1
1027.1
1027.1
1027.1
1027.1
1027.1
1027.1
1027.1
1027.1
1027.1
1027.1
1027.1
1027.1
1027.1
1.16525
1.1664
1.16747
1.16698
1.16782
1.1678
1.16777
1.16782
1.16801
1.16841
1.1687
1.16885
1.1689
1.16891
1.16891
1.16891
1.16892
1.16892
1.16892
1.16892
1.16892
1.16892
1.16893
1.16893
1.16893
1.16893
1.16893
1.16893
1.16894
1.16894
1.16894
1.16894
1.16894
1.16894
1.16895
1.16895
1.16895
1.16895
1.16895
1.16896
1.16896
1.16896
1.16896
1.16896
1.16897
1.16897
1.16896
1.169
1.16896
1.16946
1.1712
1.17495
1.18565
1.2141
1.23328
1.29467
1.40853
1.98725
3.37141
63.7091
984.991
1027.02
1027.09
1027.09
1027.09
1027.1
1027.1
1027.1
1027.1
1027.1
1027.1
1027.1
1027.1
1027.1
1027.1
1027.1
1027.1
1027.1
1027.1
1027.1
1027.1
1027.1
1027.1
1027.1
1027.1
1027.1
1027.1
1027.1
1027.1
1027.1
1027.1
1027.1
1027.1
1027.1
1027.1
1027.1
1.16409
1.16545
1.16627
1.16536
1.16706
1.1672
1.16729
1.16728
1.16732
1.16809
1.16865
1.16886
1.1689
1.16891
1.16891
1.16891
1.16891
1.16892
1.16892
1.16892
1.16892
1.16892
1.16892
1.16893
1.16893
1.16893
1.16893
1.16893
1.16893
1.16894
1.16894
1.16894
1.16894
1.16894
1.16894
1.16895
1.16895
1.16895
1.16895
1.16896
1.16895
1.16896
1.16896
1.16896
1.16896
1.16897
1.16896
1.16901
1.16901
1.16957
1.17117
1.17522
1.18771
1.21441
1.22803
1.31433
1.34087
1.77984
2.19469
56.0545
986.587
1027.09
1027.09
1027.09
1027.09
1027.1
1027.1
1027.1
1027.1
1027.1
1027.1
1027.1
1027.1
1027.1
1027.1
1027.1
1027.1
1027.1
1027.1
1027.1
1027.1
1027.1
1027.1
1027.1
1027.1
1027.1
1027.1
1027.1
1027.1
1027.1
1027.1
1027.1
1027.1
1027.1
1027.1
1027.1
1.16345
1.16442
1.16491
1.1643
1.16611
1.16631
1.16678
1.16687
1.16687
1.16787
1.16863
1.16887
1.1689
1.16891
1.16891
1.16891
1.16891
1.16891
1.16891
1.16892
1.16892
1.16892
1.16892
1.16892
1.16892
1.16893
1.16893
1.16893
1.16893
1.16893
1.16893
1.16894
1.16894
1.16894
1.16894
1.16894
1.16894
1.16895
1.16895
1.16895
1.16895
1.16896
1.16895
1.16896
1.16896
1.16897
1.16895
1.16901
1.16906
1.16968
1.17104
1.17509
1.18124
1.20367
1.25711
1.33308
1.47344
1.64173
1.50969
65.6697
986.87
1027.09
1027.09
1027.09
1027.09
1027.1
1027.1
1027.1
1027.1
1027.1
1027.1
1027.1
1027.1
1027.1
1027.1
1027.1
1027.1
1027.1
1027.1
1027.1
1027.1
1027.1
1027.1
1027.1
1027.1
1027.1
1027.1
1027.1
1027.1
1027.1
1027.1
1027.1
1027.1
1027.1
1027.1
1027.1
1.16313
1.16345
1.16393
1.16381
1.16559
1.16543
1.16606
1.16633
1.16668
1.16783
1.16867
1.16888
1.1689
1.16891
1.16891
1.16891
1.16891
1.16891
1.16891
1.16892
1.16892
1.16892
1.16892
1.16892
1.16892
1.16893
1.16893
1.16893
1.16893
1.16893
1.16893
1.16893
1.16894
1.16894
1.16894
1.16894
1.16894
1.16895
1.16895
1.16895
1.16895
1.16896
1.16895
1.16896
1.16895
1.16897
1.16895
1.169
1.16905
1.16955
1.17083
1.17533
1.18308
1.19246
1.32886
1.40777
1.4077
1.37558
1.26621
143.949
1003.7
1026.71
1026.81
1026.99
1027.04
1027.07
1027.08
1027.09
1027.09
1027.09
1027.1
1027.1
1027.1
1027.1
1027.1
1027.1
1027.1
1027.1
1027.1
1027.1
1027.1
1027.1
1027.1
1027.1
1027.1
1027.1
1027.1
1027.1
1027.1
1027.1
1027.1
1027.1
1027.1
1027.1
1027.1
1027.1
1.16311
1.16301
1.16311
1.16338
1.16561
1.16484
1.16557
1.16588
1.16659
1.16786
1.1687
1.16888
1.1689
1.1689
1.16891
1.16891
1.16891
1.16891
1.16891
1.16891
1.16892
1.16892
1.16892
1.16892
1.16892
1.16892
1.16893
1.16893
1.16893
1.16893
1.16893
1.16893
1.16894
1.16894
1.16894
1.16894
1.16894
1.16894
1.16894
1.16895
1.16895
1.16896
1.16895
1.16896
1.16895
1.16897
1.16895
1.16899
1.16902
1.16944
1.17061
1.17528
1.18385
1.19379
1.32697
1.3829
1.3739
1.33924
1.169
312.658
1017.22
1021.43
1021.9
1022.65
1022.9
1023.84
1024.66
1025.1
1025.47
1025.74
1025.94
1026.04
1026.17
1026.4
1026.56
1026.67
1026.77
1026.87
1026.94
1026.99
1027.01
1027.03
1027.03
1027.03
1027.03
1027.03
1027.03
1027.04
1027.05
1027.07
1027.09
1027.1
1027.1
1027.1
1027.1
1027.1
1.1634
1.16301
1.16276
1.16302
1.16413
1.1643
1.16547
1.1657
1.16662
1.16806
1.16872
1.16888
1.1689
1.1689
1.16891
1.16891
1.16891
1.16891
1.16891
1.16891
1.16892
1.16892
1.16892
1.16892
1.16892
1.16892
1.16893
1.16893
1.16893
1.16893
1.16893
1.16893
1.16894
1.16894
1.16894
1.16894
1.16894
1.16894
1.16894
1.16895
1.16895
1.16896
1.16895
1.16896
1.16895
1.16897
1.16895
1.16899
1.16901
1.16937
1.17036
1.17485
1.18386
1.1962
1.25175
1.33252
1.5013
1.51776
1.169
485.653
1002.28
1006.51
1005.83
1001.65
1001.29
1003.47
1003.42
1003.42
1004.04
1004.75
1005.84
1006.72
1007.32
1007.78
1008.23
1008.76
1009.38
1010.09
1010.83
1011.56
1012.22
1012.81
1013.18
1012.94
1013.76
1015.04
1015.98
1016.44
1015.43
1016.86
1019.83
1022.16
1025.3
1026.95
1026.75
1026.73
1.16356
1.16342
1.16278
1.16324
1.16334
1.16377
1.16515
1.16581
1.16712
1.16824
1.16872
1.16887
1.1689
1.1689
1.16891
1.16891
1.16891
1.16891
1.16891
1.16891
1.16892
1.16892
1.16892
1.16892
1.16892
1.16892
1.16893
1.16893
1.16893
1.16893
1.16893
1.16893
1.16894
1.16894
1.16894
1.16894
1.16894
1.16895
1.16894
1.16895
1.16895
1.16896
1.16895
1.16896
1.16895
1.16897
1.16895
1.16899
1.169
1.1693
1.17009
1.1743
1.18196
1.1978
1.2283
1.42043
1.48849
1.5134
1.169
508.127
992.693
997.945
997.99
998.034
996.826
996.013
995.086
994.281
993.822
993.369
992.7
991.843
990.704
989.328
987.872
986.479
985.171
983.886
982.393
980.291
977.348
974.364
971.815
969.37
966.585
963.161
959.112
954.544
949.523
943.664
936.134
925.858
911.617
888.66
838.011
637.27
1.16361
1.16379
1.1633
1.16406
1.16309
1.1637
1.16504
1.16637
1.16756
1.16835
1.16872
1.16886
1.1689
1.16891
1.16891
1.16891
1.16891
1.16891
1.16891
1.16892
1.16892
1.16892
1.16892
1.16892
1.16892
1.16893
1.16893
1.16893
1.16893
1.16893
1.16893
1.16894
1.16894
1.16894
1.16894
1.16894
1.16894
1.16895
1.16895
1.16895
1.16895
1.16896
1.16895
1.16897
1.16895
1.16897
1.16895
1.16899
1.16901
1.16924
1.16985
1.17358
1.18141
1.20302
1.22992
1.27936
1.39191
1.6454
1.169
285.449
1009.19
1022.69
1024.1
1024.86
1024.98
1024.75
1024.52
1024.45
1024.45
1024.48
1024.47
1024.25
1023.92
1023.51
1023
1022.56
1022.3
1022.25
1022.22
1021.91
1020.75
1018.11
1016.36
1015.88
1015.8
1015.69
1014.72
1013.06
1011.69
1010.06
1008.07
1006.13
1004.6
1003.93
1005.53
1007.41
1.16341
1.1641
1.16438
1.16544
1.16458
1.1655
1.16579
1.16704
1.16791
1.16844
1.16872
1.16886
1.1689
1.16891
1.16891
1.16891
1.16891
1.16891
1.16892
1.16892
1.16892
1.16892
1.16892
1.16892
1.16893
1.16893
1.16893
1.16893
1.16893
1.16893
1.16894
1.16894
1.16894
1.16894
1.16894
1.16894
1.16895
1.16895
1.16895
1.16895
1.16895
1.16896
1.16895
1.16897
1.16895
1.16897
1.16895
1.16899
1.16898
1.16916
1.16964
1.17267
1.17864
1.19773
1.24164
1.30348
1.34305
1.69497
1.24274
135.674
1012.28
1026.94
1027
1027.02
1027.03
1027.03
1027.03
1027.04
1027.05
1027.05
1027.06
1027.05
1027.05
1027.04
1027.03
1027.01
1027
1026.99
1026.97
1026.95
1026.93
1026.9
1026.88
1026.86
1026.85
1026.86
1026.87
1026.89
1026.89
1026.88
1026.86
1026.83
1026.82
1026.87
1026.99
1027.07
1.1611
1.16395
1.16553
1.16626
1.16677
1.16739
1.16731
1.16754
1.16809
1.16849
1.16874
1.16887
1.1689
1.16891
1.16891
1.16891
1.16891
1.16891
1.16891
1.16892
1.16892
1.16892
1.16892
1.16892
1.16893
1.16893
1.16893
1.16893
1.16893
1.16893
1.16894
1.16894
1.16894
1.16894
1.16894
1.16894
1.16895
1.16895
1.16895
1.16895
1.16895
1.16896
1.16895
1.16897
1.16896
1.16897
1.16895
1.16899
1.16896
1.16914
1.1695
1.17194
1.177
1.1906
1.24607
1.30642
1.39141
1.73568
1.34349
57.0637
955.114
1027.1
1027.09
1027.09
1027.09
1027.1
1027.1
1027.1
1027.1
1027.1
1027.1
1027.1
1027.1
1027.1
1027.1
1027.1
1027.1
1027.1
1027.1
1027.1
1027.1
1027.1
1027.1
1027.1
1027.1
1027.1
1027.1
1027.1
1027.1
1027.1
1027.1
1027.1
1027.1
1027.1
1027.1
1027.1
1.16004
1.16387
1.16582
1.16638
1.16704
1.16779
1.16792
1.1679
1.16827
1.16854
1.16876
1.16887
1.1689
1.16891
1.16891
1.16891
1.16891
1.16891
1.16891
1.16892
1.16892
1.16892
1.16892
1.16892
1.16892
1.16893
1.16893
1.16893
1.16893
1.16893
1.16893
1.16894
1.16894
1.16894
1.16894
1.16894
1.16895
1.16895
1.16895
1.16895
1.16895
1.16896
1.16895
1.16897
1.16896
1.16897
1.16895
1.16899
1.16895
1.16911
1.16942
1.17143
1.17641
1.19511
1.23675
1.30084
1.34612
1.92126
1.56344
32.595
964.091
1027.1
1027.09
1027.1
1027.09
1027.1
1027.1
1027.1
1027.1
1027.1
1027.1
1027.1
1027.1
1027.1
1027.1
1027.1
1027.1
1027.1
1027.1
1027.1
1027.1
1027.1
1027.1
1027.1
1027.1
1027.1
1027.1
1027.1
1027.1
1027.1
1027.1
1027.1
1027.1
1027.1
1027.1
1027.1
1.16202
1.16495
1.16605
1.1665
1.1673
1.16795
1.16816
1.16822
1.16841
1.16864
1.16882
1.16889
1.1689
1.16891
1.16891
1.16891
1.16891
1.16891
1.16891
1.16892
1.16892
1.16892
1.16892
1.16892
1.16892
1.16893
1.16893
1.16893
1.16893
1.16893
1.16893
1.16894
1.16894
1.16894
1.16894
1.16894
1.16894
1.16895
1.16895
1.16895
1.16895
1.16896
1.16895
1.16896
1.16895
1.16897
1.16895
1.16899
1.16895
1.16908
1.16936
1.17119
1.17732
1.20238
1.20921
1.2603
1.39084
2.03188
2.07887
29.6299
956.291
1027.1
1027.09
1027.1
1027.1
1027.1
1027.1
1027.1
1027.1
1027.1
1027.1
1027.1
1027.1
1027.1
1027.1
1027.1
1027.1
1027.1
1027.1
1027.1
1027.1
1027.1
1027.1
1027.1
1027.1
1027.1
1027.1
1027.1
1027.1
1027.1
1027.1
1027.1
1027.1
1027.1
1027.1
1027.1
1.16267
1.16437
1.16606
1.16653
1.1674
1.16801
1.16828
1.16854
1.16864
1.16879
1.16887
1.1689
1.1689
1.16891
1.16891
1.16891
1.16891
1.16891
1.16891
1.16891
1.16892
1.16892
1.16892
1.16892
1.16892
1.16892
1.16892
1.16893
1.16893
1.16893
1.16893
1.16893
1.16893
1.16893
1.16894
1.16894
1.16894
1.16894
1.16894
1.16895
1.16895
1.16895
1.16895
1.16896
1.16895
1.16896
1.16895
1.16898
1.16895
1.16907
1.1694
1.17183
1.17888
1.20405
1.21666
1.23752
1.48421
2.12294
2.3587
32.4841
940.693
1027.1
1027.1
1027.1
1027.1
1027.1
1027.1
1027.1
1027.1
1027.1
1027.1
1027.1
1027.1
1027.1
1027.1
1027.1
1027.1
1027.1
1027.1
1027.1
1027.1
1027.1
1027.1
1027.1
1027.1
1027.1
1027.1
1027.1
1027.1
1027.1
1027.1
1027.1
1027.1
1027.1
1027.1
1027.1
1.16078
1.16276
1.16479
1.16613
1.16716
1.16796
1.16845
1.16872
1.16882
1.16888
1.16889
1.1689
1.1689
1.1689
1.1689
1.16891
1.16891
1.16891
1.16891
1.16891
1.16891
1.16891
1.16892
1.16892
1.16892
1.16892
1.16892
1.16892
1.16892
1.16893
1.16893
1.16893
1.16893
1.16893
1.16893
1.16894
1.16894
1.16894
1.16894
1.16894
1.16895
1.16895
1.16895
1.16895
1.16895
1.16896
1.16895
1.16897
1.16895
1.1691
1.16945
1.17193
1.17899
1.20065
1.21638
1.25581
1.5817
2.28194
3.3962
41.6152
935.445
1026.58
1027.09
1027.1
1027.1
1027.1
1027.1
1027.1
1027.1
1027.1
1027.1
1027.1
1027.1
1027.1
1027.1
1027.1
1027.1
1027.1
1027.1
1027.1
1027.1
1027.1
1027.1
1027.1
1027.1
1027.1
1027.1
1027.1
1027.1
1027.1
1027.1
1027.1
1027.1
1027.1
1027.1
1027.1
1.15931
1.16196
1.16405
1.16589
1.16685
1.16775
1.16832
1.16866
1.16879
1.16887
1.16888
1.1689
1.1689
1.16891
1.16891
1.16891
1.16891
1.16891
1.16892
1.16892
1.16892
1.16892
1.16892
1.16892
1.16893
1.16893
1.16893
1.16893
1.16893
1.16894
1.16894
1.16894
1.16894
1.16894
1.16894
1.16895
1.16895
1.16895
1.16895
1.16896
1.16896
1.16896
1.16896
1.16897
1.16896
1.16897
1.16895
1.169
1.16896
1.16913
1.16955
1.17245
1.18004
1.1987
1.20704
1.29662
1.46685
2.33606
4.42918
56.1818
925.676
1025.63
1027.09
1027.1
1027.1
1027.1
1027.1
1027.1
1027.1
1027.1
1027.1
1027.1
1027.1
1027.1
1027.1
1027.1
1027.1
1027.1
1027.1
1027.1
1027.1
1027.1
1027.1
1027.1
1027.1
1027.1
1027.1
1027.1
1027.1
1027.1
1027.1
1027.1
1027.1
1027.1
1027.1
1027.1
1.16778
1.16795
1.16818
1.16823
1.1683
1.16833
1.16835
1.16841
1.1685
1.16865
1.16881
1.16888
1.1689
1.16891
1.16891
1.16891
1.16891
1.16891
1.16891
1.16892
1.16892
1.16892
1.16892
1.16892
1.16892
1.16893
1.16893
1.16893
1.16893
1.16893
1.16893
1.16894
1.16894
1.16894
1.16894
1.16894
1.16894
1.16895
1.16895
1.16895
1.16895
1.16896
1.16895
1.16896
1.16896
1.16896
1.16895
1.16899
1.16896
1.16928
1.17091
1.1762
1.18454
1.20986
1.23556
1.3
1.36408
2.05919
4.89253
70.6267
952.573
1026.27
1027.09
1027.09
1027.1
1027.1
1027.1
1027.1
1027.1
1027.1
1027.1
1027.1
1027.1
1027.1
1027.1
1027.1
1027.1
1027.1
1027.1
1027.1
1027.1
1027.1
1027.1
1027.1
1027.1
1027.1
1027.1
1027.1
1027.1
1027.1
1027.1
1027.1
1027.1
1027.1
1027.1
1027.1
1.16692
1.16762
1.16786
1.16775
1.16803
1.16799
1.168
1.16809
1.16827
1.16853
1.16874
1.16886
1.1689
1.16891
1.16891
1.16891
1.16891
1.16891
1.16891
1.16892
1.16892
1.16892
1.16892
1.16892
1.16892
1.16893
1.16893
1.16893
1.16893
1.16893
1.16893
1.16894
1.16894
1.16894
1.16894
1.16894
1.16894
1.16895
1.16895
1.16895
1.16895
1.16896
1.16895
1.16896
1.16896
1.16897
1.16895
1.16899
1.16897
1.16939
1.17077
1.17496
1.18501
1.21118
1.23461
1.28617
1.42745
2.01961
3.58426
53.5552
969.151
1026.82
1027.09
1027.09
1027.09
1027.1
1027.1
1027.1
1027.1
1027.1
1027.1
1027.1
1027.1
1027.1
1027.1
1027.1
1027.1
1027.1
1027.1
1027.1
1027.1
1027.1
1027.1
1027.1
1027.1
1027.1
1027.1
1027.1
1027.1
1027.1
1027.1
1027.1
1027.1
1027.1
1027.1
1027.1
1.16601
1.1675
1.16744
1.16714
1.16768
1.16765
1.16773
1.16779
1.16802
1.16842
1.16871
1.16885
1.16889
1.1689
1.1689
1.16891
1.16891
1.16891
1.16891
1.16891
1.16891
1.16892
1.16892
1.16892
1.16892
1.16892
1.16892
1.16893
1.16893
1.16893
1.16893
1.16893
1.16893
1.16894
1.16894
1.16894
1.16894
1.16894
1.16894
1.16895
1.16895
1.16896
1.16895
1.16896
1.16895
1.16897
1.16895
1.16899
1.16898
1.16951
1.17085
1.17403
1.18583
1.21484
1.23587
1.28749
1.34635
1.89195
1.96701
56.237
991.528
1027.08
1027.09
1027.09
1027.09
1027.1
1027.1
1027.1
1027.1
1027.1
1027.1
1027.1
1027.1
1027.1
1027.1
1027.1
1027.1
1027.1
1027.1
1027.1
1027.1
1027.1
1027.1
1027.1
1027.1
1027.1
1027.1
1027.1
1027.1
1027.1
1027.1
1027.1
1027.1
1027.1
1027.1
1027.1
1.16492
1.16782
1.16706
1.16691
1.16724
1.16721
1.16747
1.16752
1.16785
1.16835
1.16871
1.16886
1.16889
1.1689
1.1689
1.1689
1.1689
1.1689
1.16891
1.16891
1.16891
1.16891
1.16891
1.16891
1.16892
1.16892
1.16892
1.16892
1.16892
1.16892
1.16893
1.16893
1.16893
1.16893
1.16893
1.16893
1.16894
1.16894
1.16894
1.16894
1.16894
1.16895
1.16894
1.16896
1.16895
1.16896
1.16895
1.16899
1.169
1.16967
1.17138
1.17504
1.17949
1.20929
1.24671
1.32175
1.34756
1.80192
1.8135
58.9819
1001.8
1027.09
1027.09
1027.09
1027.09
1027.1
1027.1
1027.1
1027.1
1027.1
1027.1
1027.1
1027.1
1027.1
1027.1
1027.1
1027.1
1027.1
1027.1
1027.1
1027.1
1027.1
1027.1
1027.1
1027.1
1027.1
1027.1
1027.1
1027.1
1027.1
1027.1
1027.1
1027.1
1027.1
1027.1
1027.1
1.16384
1.16628
1.1673
1.16773
1.16731
1.1669
1.16719
1.16731
1.16784
1.16837
1.16874
1.16887
1.1689
1.1689
1.1689
1.1689
1.1689
1.16891
1.16891
1.16891
1.16891
1.16891
1.16891
1.16892
1.16892
1.16892
1.16892
1.16892
1.16892
1.16892
1.16893
1.16893
1.16893
1.16893
1.16893
1.16893
1.16893
1.16894
1.16894
1.16894
1.16894
1.16895
1.16894
1.16896
1.16895
1.16896
1.16895
1.16899
1.16902
1.16984
1.17175
1.17523
1.18002
1.2047
1.25052
1.3568
1.36615
1.66401
1.72932
98.4581
1002.65
1027.04
1027.06
1027.07
1027.08
1027.09
1027.09
1027.09
1027.09
1027.1
1027.1
1027.1
1027.1
1027.1
1027.1
1027.1
1027.1
1027.1
1027.1
1027.1
1027.1
1027.1
1027.1
1027.1
1027.1
1027.1
1027.1
1027.1
1027.1
1027.1
1027.1
1027.1
1027.1
1027.1
1027.1
1027.1
1.16308
1.16347
1.16633
1.16735
1.16782
1.16778
1.16733
1.16715
1.16793
1.16848
1.16879
1.16888
1.16889
1.1689
1.1689
1.16891
1.16891
1.16891
1.16891
1.16891
1.16891
1.16891
1.16891
1.16891
1.16891
1.16892
1.16892
1.16892
1.16892
1.16892
1.16892
1.16893
1.16893
1.16893
1.16893
1.16893
1.16893
1.16894
1.16894
1.16894
1.16894
1.16895
1.16895
1.16895
1.16895
1.16896
1.16895
1.16897
1.169
1.16981
1.1714
1.17455
1.18087
1.20542
1.25994
1.29122
1.41904
1.62106
1.70881
155.92
972.162
1026.49
1026.75
1026.8
1026.83
1026.86
1026.88
1026.92
1026.96
1026.99
1027.02
1027.04
1027.06
1027.07
1027.08
1027.09
1027.09
1027.09
1027.1
1027.1
1027.1
1027.1
1027.1
1027.1
1027.1
1027.1
1027.1
1027.1
1027.1
1027.1
1027.1
1027.1
1027.1
1027.1
1027.1
1027.1
1.16277
1.16283
1.16368
1.16483
1.16665
1.16751
1.16787
1.16775
1.16807
1.16859
1.16884
1.16889
1.1689
1.1689
1.1689
1.16891
1.16891
1.16891
1.16892
1.16892
1.16892
1.16892
1.16892
1.16892
1.16893
1.16893
1.16893
1.16893
1.16893
1.16893
1.16894
1.16894
1.16894
1.16894
1.16894
1.16894
1.16895
1.16895
1.16895
1.16895
1.16895
1.16896
1.16895
1.16896
1.16895
1.16897
1.16895
1.16898
1.16898
1.16974
1.17121
1.17413
1.18194
1.20677
1.22098
1.35386
1.53608
1.5824
1.58242
268.969
1016.85
1025.4
1026.28
1026.4
1026.44
1026.48
1026.48
1026.6
1026.75
1026.9
1026.99
1027.01
1027.02
1027.04
1027.06
1027.07
1027.08
1027.1
1027.1
1027.1
1027.1
1027.1
1027.1
1027.1
1027.1
1027.1
1027.1
1027.1
1027.1
1027.1
1027.1
1027.1
1027.09
1027.1
1027.1
1027.1
1.16244
1.1628
1.16419
1.16404
1.16553
1.16665
1.16755
1.16781
1.16803
1.16832
1.16871
1.16887
1.16889
1.16889
1.1689
1.1689
1.1689
1.1689
1.16891
1.16891
1.16891
1.16891
1.16891
1.16892
1.16892
1.16892
1.16892
1.16892
1.16892
1.16893
1.16893
1.16893
1.16893
1.16893
1.16893
1.16893
1.16894
1.16894
1.16894
1.16894
1.16894
1.16895
1.16894
1.16895
1.16895
1.16895
1.16895
1.16897
1.16899
1.16977
1.17085