/*--------------------------------*- C++ -*----------------------------------*\
| =========                 |                                                 |
| \\      /  F ield         | OpenFOAM: The Open Source CFD Toolbox           |
|  \\    /   O peration     | Version:  2.3.0                                 |
|   \\  /    A nd           | Web:      www.OpenFOAM.org                      |
|    \\/     M anipulation  |                                                 |
\*---------------------------------------------------------------------------*/
FoamFile
{
    version     2.0;
    format      ascii;
    class       volScalarField;
    location    "15";
    object      rho;
}
// * * * * * * * * * * * * * * * * * * * * * * * * * * * * * * * * * * * * * //

dimensions      [1 -3 0 0 0 0 0];

internalField   nonuniform List<scalar> 
6144
(
1.16538
1.16608
1.16717
1.16745
1.16803
1.16847
1.16869
1.16881
1.16885
1.16887
1.16888
1.16889
1.16889
1.1689
1.1689
1.1689
1.1689
1.1689
1.1689
1.16891
1.16891
1.16891
1.16891
1.16891
1.16891
1.16892
1.16892
1.16892
1.16892
1.16892
1.16892
1.16893
1.16893
1.16893
1.16893
1.16893
1.16893
1.16894
1.16894
1.16894
1.16894
1.16894
1.16894
1.16895
1.16895
1.16898
1.16925
1.17215
1.18531
1.20165
1.21445
1.22926
1.23722
1.24499
1.24818
1.25476
1.25608
1.2626
2.17743
56.4989
985.243
1026.86
1027.09
1027.1
1027.1
1027.1
1027.1
1027.1
1027.1
1027.1
1027.1
1027.1
1027.1
1027.1
1027.1
1027.1
1027.1
1027.1
1027.1
1027.1
1027.1
1027.1
1027.1
1027.1
1027.1
1027.1
1027.1
1027.1
1027.1
1027.1
1027.1
1027.1
1027.1
1027.1
1027.1
1027.1
1.16377
1.1645
1.16542
1.1655
1.16715
1.16819
1.16861
1.16874
1.16876
1.1688
1.16886
1.16889
1.1689
1.1689
1.1689
1.1689
1.16891
1.16891
1.16891
1.16891
1.16891
1.16891
1.16892
1.16892
1.16892
1.16892
1.16892
1.16892
1.16892
1.16893
1.16893
1.16893
1.16893
1.16893
1.16893
1.16894
1.16894
1.16894
1.16894
1.16894
1.16894
1.16895
1.16895
1.16895
1.16896
1.16903
1.16975
1.17315
1.18098
1.19184
1.20444
1.22003
1.23417
1.25039
1.26019
1.27514
1.2798
1.28767
1.57602
61.5133
1004.1
1027.05
1027.09
1027.09
1027.1
1027.1
1027.1
1027.1
1027.1
1027.1
1027.1
1027.1
1027.1
1027.1
1027.1
1027.1
1027.1
1027.1
1027.1
1027.1
1027.1
1027.1
1027.1
1027.1
1027.1
1027.1
1027.1
1027.1
1027.1
1027.1
1027.1
1027.1
1027.1
1027.1
1027.1
1027.1
1.16326
1.16341
1.16394
1.16481
1.16677
1.16733
1.16833
1.16869
1.16867
1.16874
1.16882
1.16887
1.1689
1.1689
1.1689
1.16891
1.16891
1.16891
1.16891
1.16891
1.16891
1.16891
1.16892
1.16892
1.16892
1.16892
1.16892
1.16892
1.16893
1.16893
1.16893
1.16893
1.16893
1.16893
1.16894
1.16894
1.16894
1.16894
1.16894
1.16894
1.16894
1.16895
1.16895
1.16895
1.16897
1.16914
1.17021
1.17314
1.17795
1.18757
1.20138
1.21788
1.23417
1.25995
1.27442
1.29616
1.29875
1.30448
1.39695
87.5769
1017.42
1027.08
1027.09
1027.09
1027.09
1027.09
1027.09
1027.09
1027.1
1027.1
1027.1
1027.1
1027.1
1027.1
1027.1
1027.1
1027.1
1027.1
1027.1
1027.1
1027.1
1027.1
1027.1
1027.1
1027.1
1027.1
1027.1
1027.1
1027.1
1027.1
1027.1
1027.1
1027.1
1027.1
1027.1
1027.1
1.16313
1.16313
1.16346
1.16418
1.16517
1.16592
1.1679
1.16862
1.1687
1.16874
1.1688
1.16887
1.16889
1.1689
1.1689
1.1689
1.1689
1.16891
1.16891
1.16891
1.16891
1.16891
1.16891
1.16892
1.16892
1.16892
1.16892
1.16892
1.16892
1.16892
1.16893
1.16893
1.16893
1.16893
1.16893
1.16893
1.16894
1.16894
1.16894
1.16894
1.16894
1.16894
1.16895
1.16896
1.169
1.16927
1.17075
1.17396
1.17938
1.18928
1.20119
1.22139
1.24743
1.28057
1.2954
1.31594
1.31026
1.31662
1.30283
99.1211
1008.64
1026.91
1026.94
1026.94
1026.94
1026.94
1026.96
1026.98
1027.01
1027.04
1027.07
1027.08
1027.09
1027.1
1027.1
1027.1
1027.1
1027.1
1027.1
1027.1
1027.1
1027.1
1027.1
1027.1
1027.1
1027.1
1027.1
1027.1
1027.1
1027.1
1027.1
1027.1
1027.1
1027.1
1027.1
1027.1
1.16312
1.1631
1.16331
1.16384
1.16437
1.16512
1.16699
1.16805
1.16865
1.16881
1.16881
1.16886
1.16889
1.1689
1.1689
1.1689
1.16891
1.16891
1.16891
1.16891
1.16891
1.16892
1.16892
1.16892
1.16892
1.16892
1.16892
1.16892
1.16893
1.16893
1.16893
1.16893
1.16893
1.16893
1.16894
1.16894
1.16894
1.16894
1.16894
1.16894
1.16894
1.16895
1.16895
1.16897
1.16902
1.16929
1.17081
1.17507
1.182
1.19009
1.20935
1.24121
1.27385
1.30345
1.31246
1.32619
1.30826
1.32437
1.34927
109.685
1004.71
1025.67
1025.54
1025.47
1025.42
1025.43
1025.57
1025.74
1025.96
1026.24
1026.48
1026.68
1026.85
1026.96
1027.03
1027.07
1027.09
1027.09
1027.1
1027.1
1027.1
1027.1
1027.1
1027.1
1027.1
1027.1
1027.1
1027.1
1027.1
1027.1
1027.1
1027.1
1027.1
1027.1
1027.1
1027.1
1.16326
1.16325
1.16337
1.16375
1.16397
1.16473
1.16616
1.1675
1.16833
1.1687
1.1688
1.16886
1.16889
1.1689
1.1689
1.1689
1.1689
1.1689
1.1689
1.16891
1.16891
1.16891
1.16891
1.16891
1.16891
1.16891
1.16892
1.16892
1.16892
1.16892
1.16892
1.16892
1.16893
1.16893
1.16893
1.16893
1.16893
1.16893
1.16894
1.16894
1.16894
1.16894
1.16895
1.16897
1.16903
1.16928
1.17062
1.17385
1.17994
1.19512
1.23145
1.27073
1.29937
1.31688
1.32168
1.32898
1.31406
1.33337
1.29944
132.51
1008.63
1022.45
1021.97
1021.82
1021.79
1022.43
1022.96
1023.49
1023.93
1024.25
1024.61
1024.94
1025.26
1025.58
1025.88
1026.12
1026.29
1026.43
1026.54
1026.65
1026.75
1026.84
1026.91
1026.96
1026.98
1026.98
1026.97
1026.96
1026.98
1026.99
1027.01
1027.03
1027.05
1027.07
1027.09
1027.1
1.16344
1.16357
1.16377
1.16391
1.16374
1.16466
1.16573
1.16691
1.16779
1.16839
1.16872
1.16886
1.16889
1.1689
1.1689
1.1689
1.16891
1.16891
1.16891
1.16891
1.16891
1.16891
1.16892
1.16892
1.16892
1.16892
1.16892
1.16892
1.16893
1.16893
1.16893
1.16893
1.16893
1.16893
1.16894
1.16894
1.16894
1.16894
1.16895
1.16895
1.16895
1.16895
1.16896
1.16898
1.16903
1.16925
1.1708
1.17398
1.18082
1.22375
1.26797
1.29551
1.31643
1.32202
1.31903
1.32123
1.29643
1.32805
1.39636
123.82
1005.06
1021.03
1020.67
1020.95
1021.62
1022.44
1023.12
1023.33
1023.36
1023.34
1023.49
1023.73
1023.83
1023.95
1024.02
1024.21
1024.45
1024.7
1024.97
1025.25
1025.56
1025.91
1026.19
1026.26
1026.22
1026.22
1026.3
1026.31
1026.44
1026.51
1026.57
1026.62
1026.74
1026.78
1026.88
1027.06
1.1635
1.16381
1.16418
1.16435
1.16381
1.16491
1.16556
1.1667
1.16753
1.16816
1.16863
1.16884
1.16889
1.1689
1.1689
1.16891
1.16891
1.16891
1.16891
1.16891
1.16892
1.16892
1.16892
1.16892
1.16892
1.16893
1.16893
1.16893
1.16893
1.16893
1.16893
1.16894
1.16894
1.16894
1.16894
1.16894
1.16895
1.16895
1.16895
1.16895
1.16895
1.16895
1.16896
1.16898
1.16903
1.16934
1.17149
1.17505
1.19063
1.26744
1.29436
1.29872
1.30413
1.30666
1.29624
1.28284
1.27123
1.29713
1.40827
109.785
1006.7
1023.34
1023.48
1024.33
1024.92
1025.43
1025.59
1025.61
1025.42
1025.16
1024.87
1024.58
1024.3
1024.02
1023.8
1023.62
1023.52
1023.5
1023.92
1024.32
1024.68
1025.09
1025.67
1026.3
1026.81
1027.1
1027.1
1027.1
1027.1
1027.1
1027.1
1027.1
1027.1
1027.1
1027.1
1027.1
1.1633
1.16391
1.16446
1.16476
1.16453
1.16571
1.16593
1.16704
1.16753
1.16795
1.16849
1.16878
1.16887
1.1689
1.1689
1.1689
1.1689
1.1689
1.16891
1.16891
1.16891
1.16891
1.16891
1.16892
1.16892
1.16892
1.16892
1.16892
1.16892
1.16893
1.16893
1.16893
1.16893
1.16893
1.16893
1.16894
1.16894
1.16894
1.16894
1.16894
1.16894
1.16895
1.16895
1.16896
1.169
1.16933
1.17151
1.17526
1.18531
1.25144
1.29216
1.29766
1.30082
1.3024
1.28594
1.27838
1.26598
1.28584
1.59858
81.3566
997.014
1026.23
1026.44
1026.73
1026.86
1026.96
1026.99
1027
1026.99
1026.95
1026.89
1026.83
1026.77
1026.72
1026.7
1026.69
1026.72
1026.74
1026.84
1026.92
1026.98
1027.04
1027.08
1027.09
1027.1
1027.1
1027.1
1027.1
1027.1
1027.1
1027.1
1027.1
1027.1
1027.1
1027.1
1027.1
1.16301
1.16391
1.16473
1.16504
1.16525
1.16639
1.1666
1.1674
1.16766
1.16809
1.16851
1.16877
1.16887
1.1689
1.1689
1.16891
1.16891
1.16891
1.16891
1.16891
1.16892
1.16892
1.16892
1.16892
1.16892
1.16892
1.16893
1.16893
1.16893
1.16893
1.16893
1.16893
1.16893
1.16894
1.16894
1.16894
1.16894
1.16894
1.16894
1.16894
1.16895
1.16895
1.16896
1.16897
1.16899
1.16937
1.1716
1.17592
1.18177
1.2219
1.27802
1.29668
1.30026
1.30271
1.2847
1.27905
1.26628
1.27057
1.50299
57.2549
997.807
1026.99
1027.06
1027.08
1027.09
1027.09
1027.09
1027.1
1027.1
1027.1
1027.1
1027.1
1027.09
1027.09
1027.09
1027.09
1027.1
1027.1
1027.1
1027.1
1027.1
1027.1
1027.1
1027.1
1027.1
1027.1
1027.1
1027.1
1027.1
1027.1
1027.1
1027.1
1027.1
1027.1
1027.1
1027.1
1.16252
1.16339
1.16501
1.16507
1.16537
1.16684
1.16728
1.16792
1.16818
1.16858
1.16872
1.16884
1.16888
1.1689
1.1689
1.1689
1.1689
1.1689
1.16891
1.16891
1.16891
1.16891
1.16891
1.16892
1.16892
1.16892
1.16892
1.16892
1.16892
1.16893
1.16893
1.16893
1.16893
1.16893
1.16893
1.16894
1.16894
1.16894
1.16894
1.16895
1.16895
1.16896
1.16896
1.16897
1.16901
1.16949
1.1717
1.17715
1.18324
1.19954
1.2493
1.28776
1.29844
1.30011
1.28708
1.27897
1.26565
1.26323
1.38965
43.0034
998.182
1027.04
1027.09
1027.09
1027.1
1027.09
1027.1
1027.1
1027.1
1027.1
1027.1
1027.1
1027.1
1027.1
1027.1
1027.1
1027.1
1027.1
1027.1
1027.1
1027.1
1027.1
1027.1
1027.1
1027.1
1027.1
1027.1
1027.1
1027.1
1027.1
1027.1
1027.1
1027.1
1027.1
1027.1
1027.1
1.16199
1.162
1.16431
1.16529
1.16536
1.16725
1.16784
1.16846
1.16867
1.16884
1.16887
1.16891
1.16891
1.16891
1.16891
1.16891
1.16891
1.16891
1.16891
1.16892
1.16892
1.16892
1.16892
1.16892
1.16892
1.16893
1.16893
1.16893
1.16893
1.16893
1.16893
1.16894
1.16894
1.16894
1.16894
1.16894
1.16894
1.16894
1.16895
1.16895
1.16896
1.16896
1.16896
1.16897
1.16903
1.16966
1.17278
1.17977
1.18827
1.19533
1.22286
1.26692
1.29161
1.29519
1.28707
1.27721
1.26303
1.26327
1.49994
37.1402
993.272
1027.02
1027.09
1027.09
1027.1
1027.1
1027.1
1027.1
1027.1
1027.1
1027.1
1027.1
1027.1
1027.1
1027.1
1027.1
1027.1
1027.1
1027.1
1027.1
1027.1
1027.1
1027.1
1027.1
1027.1
1027.1
1027.1
1027.1
1027.1
1027.1
1027.1
1027.1
1027.1
1027.1
1027.1
1027.1
1.16191
1.16162
1.16352
1.16539
1.16517
1.16736
1.16817
1.16865
1.16878
1.16887
1.16889
1.16891
1.16891
1.16891
1.16892
1.16892
1.16892
1.16892
1.16892
1.16892
1.16893
1.16893
1.16893
1.16893
1.16893
1.16893
1.16893
1.16894
1.16894
1.16894
1.16894
1.16894
1.16894
1.16894
1.16894
1.16895
1.16895
1.16895
1.16895
1.16895
1.16896
1.16896
1.16896
1.16897
1.16903
1.16965
1.17344
1.18185
1.19153
1.19874
1.21042
1.24227
1.27636
1.28698
1.28331
1.2774
1.26644
1.26686
1.5498
36.0992
986.883
1026.98
1027.09
1027.09
1027.1
1027.1
1027.1
1027.1
1027.1
1027.1
1027.1
1027.1
1027.1
1027.1
1027.1
1027.1
1027.1
1027.1
1027.1
1027.1
1027.1
1027.1
1027.1
1027.1
1027.1
1027.1
1027.1
1027.1
1027.1
1027.1
1027.1
1027.1
1027.1
1027.1
1027.1
1027.1
1.16163
1.16146
1.16264
1.16528
1.16564
1.16726
1.16831
1.16872
1.16881
1.16889
1.1689
1.16891
1.16891
1.16891
1.16891
1.16892
1.16892
1.16892
1.16892
1.16892
1.16892
1.16893
1.16893
1.16893
1.16893
1.16893
1.16893
1.16893
1.16894
1.16894
1.16894
1.16894
1.16894
1.16894
1.16894
1.16895
1.16895
1.16895
1.16895
1.16895
1.16896
1.16896
1.16896
1.16897
1.16904
1.16993
1.17522
1.1853
1.19622
1.20298
1.20946
1.22679
1.25673
1.27708
1.27741
1.27569
1.26942
1.27199
1.50107
36.9509
978.015
1026.85
1027.09
1027.09
1027.1
1027.1
1027.1
1027.1
1027.1
1027.1
1027.1
1027.1
1027.1
1027.1
1027.1
1027.1
1027.1
1027.1
1027.1
1027.1
1027.1
1027.1
1027.1
1027.1
1027.1
1027.1
1027.1
1027.1
1027.1
1027.1
1027.1
1027.1
1027.1
1027.1
1027.1
1027.1
1.16115
1.16092
1.16107
1.16311
1.16571
1.16749
1.16834
1.16872
1.16882
1.16889
1.16888
1.16891
1.1689
1.16891
1.16891
1.16891
1.16891
1.16891
1.16892
1.16892
1.16892
1.16892
1.16892
1.16892
1.16893
1.16893
1.16893
1.16893
1.16893
1.16893
1.16894
1.16894
1.16894
1.16894
1.16894
1.16894
1.16895
1.16895
1.16895
1.16895
1.16895
1.16895
1.16895
1.16897
1.16912
1.17121
1.17945
1.1908
1.20028
1.20641
1.21087
1.22015
1.23774
1.25901
1.26857
1.27381
1.27102
1.2895
1.46514
43.0051
984.181
1026.92
1027.09
1027.09
1027.1
1027.1
1027.1
1027.1
1027.1
1027.1
1027.1
1027.1
1027.1
1027.1
1027.1
1027.1
1027.1
1027.1
1027.1
1027.1
1027.1
1027.1
1027.1
1027.1
1027.1
1027.1
1027.1
1027.1
1027.1
1027.1
1027.1
1027.1
1027.1
1027.1
1027.1
1027.1
1.15953
1.16098
1.16107
1.16198
1.16431
1.16683
1.16807
1.1686
1.16877
1.16888
1.16889
1.16891
1.16891
1.16891
1.16891
1.16892
1.16892
1.16892
1.16892
1.16892
1.16893
1.16893
1.16893
1.16893
1.16893
1.16893
1.16894
1.16894
1.16894
1.16894
1.16894
1.16894
1.16895
1.16895
1.16895
1.16895
1.16895
1.16895
1.16896
1.16896
1.16896
1.16896
1.16896
1.16898
1.16914
1.17105
1.17934
1.19711
1.21405
1.21964
1.22037
1.22742
1.24064
1.25564
1.26808
1.27147
1.27128
1.35736
1.78361
51.0039
992.141
1026.95
1027.09
1027.09
1027.1
1027.1
1027.1
1027.1
1027.1
1027.1
1027.1
1027.1
1027.1
1027.1
1027.1
1027.1
1027.1
1027.1
1027.1
1027.1
1027.1
1027.1
1027.1
1027.1
1027.1
1027.1
1027.1
1027.1
1027.1
1027.1
1027.1
1027.1
1027.1
1027.1
1027.1
1027.1
1.16549
1.16642
1.16752
1.16757
1.16811
1.16843
1.16848
1.16847
1.16856
1.16868
1.1688
1.16888
1.16891
1.16891
1.16891
1.16892
1.16892
1.16892
1.16892
1.16892
1.16892
1.16893
1.16893
1.16893
1.16893
1.16893
1.16893
1.16894
1.16894
1.16894
1.16894
1.16894
1.16895
1.16895
1.16895
1.16895
1.16895
1.16895
1.16896
1.16896
1.16896
1.16896
1.16896
1.16896
1.16896
1.16898
1.16916
1.17189
1.18639
1.20258
1.21411
1.22673
1.23466
1.24108
1.24336
1.24554
1.24691
1.25921
1.77269
63.3837
1004.7
1027.06
1027.09
1027.1
1027.1
1027.1
1027.1
1027.1
1027.1
1027.1
1027.1
1027.1
1027.1
1027.1
1027.1
1027.1
1027.1
1027.1
1027.1
1027.1
1027.1
1027.1
1027.1
1027.1
1027.1
1027.1
1027.1
1027.1
1027.1
1027.1
1027.1
1027.1
1027.1
1027.1
1027.1
1027.1
1.16397
1.1651
1.16585
1.16564
1.16751
1.16762
1.16771
1.16772
1.16792
1.16842
1.16872
1.16886
1.1689
1.16891
1.16891
1.16892
1.16892
1.16892
1.16892
1.16892
1.16892
1.16893
1.16893
1.16893
1.16893
1.16893
1.16893
1.16894
1.16894
1.16894
1.16894
1.16894
1.16894
1.16894
1.16895
1.16895
1.16895
1.16895
1.16895
1.16895
1.16895
1.16896
1.16896
1.16897
1.16899
1.16905
1.16956
1.17328
1.18491
1.19906
1.21206
1.22495
1.23592
1.24209
1.24131
1.23825
1.24395
1.2605
1.47939
116.923
1022.68
1027.09
1027.09
1027.09
1027.1
1027.1
1027.1
1027.1
1027.1
1027.1
1027.1
1027.1
1027.1
1027.1
1027.1
1027.1
1027.1
1027.1
1027.1
1027.1
1027.1
1027.1
1027.1
1027.1
1027.1
1027.1
1027.1
1027.1
1027.1
1027.1
1027.1
1027.1
1027.1
1027.1
1027.1
1027.1
1.16341
1.16398
1.16438
1.16519
1.16628
1.16645
1.16692
1.16705
1.16739
1.16825
1.16871
1.16887
1.1689
1.16891
1.16891
1.16891
1.16891
1.16892
1.16892
1.16892
1.16892
1.16892
1.16892
1.16893
1.16893
1.16893
1.16893
1.16893
1.16893
1.16894
1.16894
1.16894
1.16894
1.16894
1.16894
1.16894
1.16895
1.16895
1.16895
1.16895
1.16895
1.16895
1.16896
1.16897
1.16902
1.16918
1.16988
1.1735
1.18326
1.19814
1.21406
1.23323
1.2485
1.25566
1.24093
1.2544
1.26754
1.30345
1.32625
182.774
1026.35
1027.07
1027.08
1027.08
1027.08
1027.08
1027.08
1027.09
1027.09
1027.09
1027.09
1027.1
1027.1
1027.1
1027.1
1027.1
1027.1
1027.1
1027.1
1027.1
1027.1
1027.1
1027.1
1027.1
1027.1
1027.1
1027.1
1027.1
1027.1
1027.1
1027.1
1027.1
1027.1
1027.1
1027.1
1027.1
1.16316
1.1636
1.16411
1.16511
1.16534
1.16534
1.16614
1.16655
1.16721
1.1682
1.16872
1.16888
1.1689
1.16891
1.16891
1.16891
1.16891
1.16891
1.16891
1.16892
1.16892
1.16892
1.16892
1.16892
1.16892
1.16893
1.16893
1.16893
1.16893
1.16893
1.16893
1.16893
1.16894
1.16894
1.16894
1.16894
1.16894
1.16894
1.16894
1.16895
1.16895
1.16895
1.16895
1.16897
1.16909
1.16972
1.17108
1.17535
1.18453
1.20123
1.21963
1.24246
1.26191
1.27308
1.27088
1.28381
1.30051
1.30574
1.29955
258.546
1024.32
1026.17
1026.17
1026.16
1026.12
1026.22
1026.34
1026.49
1026.65
1026.8
1026.92
1027
1027.05
1027.08
1027.09
1027.1
1027.1
1027.1
1027.1
1027.1
1027.1
1027.1
1027.1
1027.1
1027.1
1027.1
1027.1
1027.1
1027.1
1027.1
1027.1
1027.1
1027.1
1027.1
1027.1
1027.1
1.16308
1.16338
1.16413
1.16516
1.16519
1.1651
1.16567
1.16616
1.16718
1.16822
1.16872
1.16887
1.1689
1.16891
1.16891
1.16891
1.16891
1.16891
1.16891
1.16891
1.16892
1.16892
1.16892
1.16892
1.16892
1.16892
1.16893
1.16893
1.16893
1.16893
1.16893
1.16893
1.16893
1.16894
1.16894
1.16894
1.16894
1.16894
1.16894
1.16895
1.16895
1.16895
1.16895
1.16897
1.16918
1.1704
1.17329
1.17756
1.1886
1.2059
1.2286
1.25959
1.2841
1.2855
1.29039
1.29915
1.30282
1.30769
1.29944
291.836
1014.46
1019.68
1019.15
1018.99
1018.96
1019.29
1019.74
1020.33
1021.16
1022.11
1023.1
1024.01
1024.8
1025.48
1026.05
1026.48
1026.76
1026.93
1027.03
1027.07
1027.08
1027.08
1027.09
1027.09
1027.09
1027.09
1027.09
1027.09
1027.09
1027.1
1027.1
1027.1
1027.1
1027.1
1027.1
1027.1
1.16307
1.16334
1.16423
1.16493
1.16523
1.16516
1.16579
1.16603
1.16717
1.16825
1.16868
1.16886
1.16889
1.16891
1.1689
1.16891
1.16891
1.16891
1.16891
1.16891
1.16891
1.16892
1.16892
1.16892
1.16892
1.16892
1.16892
1.16893
1.16893
1.16893
1.16893
1.16893
1.16893
1.16894
1.16894
1.16894
1.16894
1.16894
1.16894
1.16894
1.16895
1.16895
1.16895
1.16897
1.16921
1.17062
1.17424
1.17778
1.19041
1.21008
1.24537
1.28348
1.30179
1.30944
1.32618
1.33541
1.33923
1.34133
1.29955
368.776
1002.07
1008.68
1007.28
1007.14
1007.6
1007.6
1007.63
1007.61
1007.92
1008.2
1008.88
1009.53
1010.42
1011.57
1013.15
1014.87
1016.53
1018.18
1019.74
1021.03
1022.07
1022.9
1023.66
1024.39
1025.07
1025.39
1025.4
1025.33
1025.31
1025.53
1025.67
1025.85
1026.09
1026.41
1026.76
1026.96
1.16311
1.1633
1.16442
1.1647
1.16478
1.16557
1.16617
1.16642
1.16747
1.16828
1.16864
1.16884
1.16889
1.1689
1.1689
1.16891
1.16891
1.16891
1.16891
1.16891
1.16891
1.16892
1.16892
1.16892
1.16892
1.16892
1.16892
1.16893
1.16893
1.16893
1.16893
1.16893
1.16893
1.16894
1.16894
1.16894
1.16894
1.16894
1.16894
1.16895
1.16895
1.16895
1.16895
1.16897
1.16924
1.17076
1.17475
1.18007
1.19844
1.24651
1.2778
1.31303
1.31443
1.31285
1.31633
1.32149
1.31945
1.3451
1.29944
307.801
996.661
1007.17
1005.6
1005.56
1005.59
1005.98
1005.53
1005.19
1004.73
1003.59
1002.25
1000.68
999.251
998.305
997.841
997.497
997.417
997.464
997.862
998.246
998.283
998.153
997.834
997.441
996.967
996.119
995.141
993.774
992.212
990.591
989.401
988.495
988.162
990.291
994.685
1000.28
1.16307
1.16305
1.16449
1.16515
1.1649
1.16598
1.16625
1.16711
1.16777
1.16833
1.16862
1.16883
1.16889
1.1689
1.1689
1.16891
1.16891
1.16891
1.16891
1.16891
1.16891
1.16892
1.16892
1.16892
1.16892
1.16892
1.16892
1.16893
1.16893
1.16893
1.16893
1.16893
1.16893
1.16894
1.16894
1.16894
1.16894
1.16894
1.16894
1.16895
1.16895
1.16895
1.16895
1.16898
1.16926
1.17086
1.1751
1.18228
1.23281
1.28272
1.28267
1.2802
1.27849
1.27732
1.28606
1.29815
1.30784
1.31121
1.29955
199.069
1005.02
1017.68
1017.78
1019.53
1020.82
1022.17
1022.57
1022.55
1021.63
1020.54
1019.13
1017.61
1015.83
1013.55
1010.75
1007.75
1005.21
1003.14
1001.05
998.742
996.608
994.69
992.282
989.104
985.511
981.654
977.931
973.663
968.344
961.736
953.501
942.993
928.932
905.609
850.732
639.235
1.16294
1.16307
1.16424
1.16584
1.16609
1.16673
1.1667
1.16749
1.16794
1.16837
1.16861
1.16882
1.16889
1.16891
1.16891
1.16891
1.16891
1.16891
1.16891
1.16892
1.16892
1.16892
1.16892
1.16892
1.16892
1.16892
1.16893
1.16893
1.16893
1.16893
1.16893
1.16893
1.16894
1.16894
1.16894
1.16894
1.16894
1.16894
1.16895
1.16895
1.16895
1.16895
1.16895
1.16898
1.16925
1.17064
1.17488
1.18269
1.20667
1.27764
1.27295
1.26394
1.26159
1.26164
1.26334
1.27181
1.29886
1.33315
1.36942
153.643
1017.35
1025.88
1026.17
1026.56
1026.76
1026.89
1026.92
1026.93
1026.9
1026.82
1026.73
1026.65
1026.57
1026.46
1026.31
1026.14
1025.98
1025.8
1025.58
1025.26
1024.87
1024.46
1024.18
1024.13
1024.55
1024.99
1025.41
1025.64
1025.69
1025.92
1026.18
1026.3
1026.34
1025.95
1025.46
1024.98
1.161
1.1635
1.16476
1.16624
1.16681
1.16763
1.16767
1.16776
1.16807
1.16841
1.16865
1.16883
1.16889
1.16891
1.16891
1.16891
1.16891
1.16891
1.16891
1.16892
1.16892
1.16892
1.16892
1.16892
1.16892
1.16893
1.16893
1.16893
1.16893
1.16893
1.16893
1.16894
1.16894
1.16894
1.16894
1.16894
1.16894
1.16895
1.16895
1.16895
1.16895
1.16895
1.16895
1.16898
1.16923
1.17037
1.17383
1.18122
1.18916
1.24283
1.26993
1.26792
1.26501
1.26906
1.26727
1.26168
1.27224
1.30179
1.34786
113.43
1021.98
1027.01
1027.04
1027.07
1027.08
1027.08
1027.09
1027.09
1027.09
1027.1
1027.09
1027.09
1027.09
1027.09
1027.09
1027.09
1027.09
1027.09
1027.09
1027.09
1027.09
1027.09
1027.08
1027.09
1027.09
1027.09
1027.1
1027.1
1027.1
1027.1
1027.1
1027.1
1027.1
1027.1
1027.1
1027.1
1.16057
1.16396
1.16567
1.16629
1.16676
1.16782
1.16806
1.16804
1.1682
1.16845
1.16869
1.16884
1.16889
1.16891
1.16891
1.16891
1.16891
1.16891
1.16891
1.16892
1.16892
1.16892
1.16892
1.16892
1.16892
1.16893
1.16893
1.16893
1.16893
1.16893
1.16893
1.16894
1.16894
1.16894
1.16894
1.16894
1.16894
1.16895
1.16895
1.16895
1.16895
1.16895
1.16895
1.16898
1.16923
1.17014
1.17288
1.1797
1.19285
1.20147
1.24305
1.2646
1.26599
1.26583
1.26404
1.26173
1.27383
1.29606
1.3214
92.084
1021.84
1027.09
1027.09
1027.09
1027.09
1027.09
1027.1
1027.1
1027.1
1027.1
1027.1
1027.1
1027.1
1027.1
1027.1
1027.1
1027.1
1027.1
1027.1
1027.1
1027.1
1027.1
1027.1
1027.1
1027.1
1027.1
1027.1
1027.1
1027.1
1027.1
1027.1
1027.1
1027.1
1027.1
1027.1
1027.1
1.16281
1.16485
1.1659
1.16624
1.16673
1.16778
1.16819
1.1683
1.16831
1.1685
1.16872
1.16886
1.16889
1.16891
1.16891
1.16891
1.16891
1.16891
1.16891
1.16892
1.16892
1.16892
1.16892
1.16892
1.16892
1.16893
1.16893
1.16893
1.16893
1.16893
1.16893
1.16894
1.16894
1.16894
1.16894
1.16894
1.16894
1.16895
1.16895
1.16895
1.16895
1.16895
1.16895
1.16897
1.16914
1.16994
1.17261
1.17977
1.19397
1.20456
1.21307
1.24183
1.26141
1.26101
1.25528
1.26694
1.30861
1.31953
1.43647
61.5988
1020.37
1027.09
1027.09
1027.09
1027.09
1027.09
1027.1
1027.1
1027.1
1027.1
1027.1
1027.1
1027.1
1027.1
1027.1
1027.1
1027.1
1027.1
1027.1
1027.1
1027.1
1027.1
1027.1
1027.1
1027.1
1027.1
1027.1
1027.1
1027.1
1027.1
1027.1
1027.1
1027.1
1027.1
1027.1
1027.1
1.16261
1.16327
1.16526
1.16565
1.16673
1.16779
1.16822
1.16846
1.1684
1.16863
1.16879
1.16889
1.1689
1.16891
1.16891
1.16891
1.16891
1.16891
1.16891
1.16892
1.16892
1.16892
1.16892
1.16892
1.16892
1.16893
1.16893
1.16893
1.16893
1.16893
1.16893
1.16893
1.16894
1.16894
1.16894
1.16894
1.16894
1.16894
1.16894
1.16895
1.16895
1.16895
1.16895
1.16897
1.1691
1.16991
1.17471
1.18525
1.19595
1.2093
1.21251
1.22232
1.24446
1.25335
1.24796
1.29401
1.35253
1.33376
1.54802
74.3672
1018.45
1027.09
1027.09
1027.09
1027.09
1027.1
1027.1
1027.1
1027.1
1027.1
1027.1
1027.1
1027.1
1027.1
1027.1
1027.1
1027.1
1027.1
1027.1
1027.1
1027.1
1027.1
1027.1
1027.1
1027.1
1027.1
1027.1
1027.1
1027.1
1027.1
1027.1
1027.1
1027.1
1027.1
1027.1
1027.1
1.16168
1.16123
1.16266
1.16391
1.16609
1.16764
1.16823
1.16862
1.16861
1.16878
1.16886
1.16891
1.1689
1.16891
1.16891
1.16891
1.16891
1.16891
1.16891
1.16891
1.16892
1.16892
1.16892
1.16892
1.16892
1.16892
1.16892
1.16893
1.16893
1.16893
1.16893
1.16893
1.16893
1.16893
1.16893
1.16894
1.16894
1.16894
1.16894
1.16894
1.16894
1.16895
1.16895
1.16897
1.16911
1.17065
1.17814
1.19281
1.20412
1.2108
1.21793
1.22051
1.23641
1.25051
1.25192
1.30301
1.42063
1.43158
1.5479
81.2412
1015.5
1027.09
1027.09
1027.09
1027.1
1027.1
1027.1
1027.1
1027.1
1027.1
1027.1
1027.1
1027.1
1027.1
1027.1
1027.1
1027.1
1027.1
1027.1
1027.1
1027.1
1027.1
1027.1
1027.1
1027.1
1027.1
1027.1
1027.1
1027.1
1027.1
1027.1
1027.1
1027.1
1027.1
1027.1
1027.1
1.16129
1.16055
1.16057
1.16201
1.16522
1.16737
1.16824
1.16868
1.16878
1.16888
1.16888
1.16891
1.1689
1.1689
1.1689
1.16891
1.16891
1.16891
1.16891
1.16891
1.16891
1.16891
1.16892
1.16892
1.16892
1.16892
1.16892
1.16892
1.16892
1.16892
1.16893
1.16893
1.16893
1.16893
1.16893
1.16893
1.16893
1.16894
1.16894
1.16894
1.16894
1.16894
1.16895
1.16897
1.16916
1.1714
1.18013
1.19676
1.21273
1.21827
1.22133
1.22327
1.23631
1.24993
1.25859
1.28752
1.46821
1.50343
1.46509
96.6222
1016.78
1027.09
1027.09
1027.09
1027.1
1027.1
1027.1
1027.1
1027.1
1027.1
1027.1
1027.1
1027.1
1027.1
1027.1
1027.1
1027.1
1027.1
1027.1
1027.1
1027.1
1027.1
1027.1
1027.1
1027.1
1027.1
1027.1
1027.1
1027.1
1027.1
1027.1
1027.1
1027.1
1027.1
1027.1
1027.1
1.15991
1.16017
1.16017
1.16157
1.16489
1.16718
1.16815
1.16864
1.16879
1.16888
1.16888
1.1689
1.1689
1.16891
1.1689
1.16891
1.16891
1.16891
1.16892
1.16892
1.16892
1.16892
1.16892
1.16892
1.16893
1.16893
1.16893
1.16893
1.16893
1.16894
1.16894
1.16894
1.16894
1.16894
1.16894
1.16895
1.16895
1.16895
1.16895
1.16895
1.16895
1.16895
1.16895
1.16897
1.16914
1.171
1.17911
1.19699
1.21643
1.2267
1.2291
1.23296
1.24279
1.25595
1.26811
1.2697
1.34055
1.60645
1.62653
70.0707
1004.77
1027.08
1027.09
1027.09
1027.1
1027.1
1027.1
1027.1
1027.1
1027.1
1027.1
1027.1
1027.1
1027.1
1027.1
1027.1
1027.1
1027.1
1027.1
1027.1
1027.1
1027.1
1027.1
1027.1
1027.1
1027.1
1027.1
1027.1
1027.1
1027.1
1027.1
1027.1
1027.1
1027.1
1027.1
1027.1
1.16659
1.16727
1.16795
1.16803
1.16823
1.16835
1.16835
1.16838
1.16847
1.1686
1.16878
1.16888
1.1689
1.16891
1.16891
1.16891
1.16891
1.16891
1.16891
1.16892
1.16892
1.16892
1.16892
1.16892
1.16892
1.16893
1.16893
1.16893
1.16893
1.16893
1.16893
1.16894
1.16894
1.16894
1.16894
1.16894
1.16894
1.16894
1.16895
1.16895
1.16895
1.16895
1.16895
1.16896
1.16896
1.16897
1.16908
1.17116
1.18489
1.20148
1.2099
1.21887
1.22646
1.23152
1.23543
1.23983
1.23955
1.24809
1.60764
51.1849
1002.72
1027.04
1027.09
1027.09
1027.1
1027.1
1027.1
1027.1
1027.1
1027.1
1027.1
1027.1
1027.1
1027.1
1027.1
1027.1
1027.1
1027.1
1027.1
1027.1
1027.1
1027.1
1027.1
1027.1
1027.1
1027.1
1027.1
1027.1
1027.1
1027.1
1027.1
1027.1
1027.1
1027.1
1027.1
1027.1
1.1653
1.16705
1.16744
1.16709
1.16801
1.16797
1.16799
1.16802
1.1682
1.16851
1.16874
1.16886
1.1689
1.16891
1.16891
1.16891
1.16891
1.16891
1.16892
1.16892
1.16892
1.16892
1.16892
1.16892
1.16892
1.16893
1.16893
1.16893
1.16893
1.16893
1.16893
1.16894
1.16894
1.16894
1.16894
1.16894
1.16894
1.16894
1.16895
1.16895
1.16895
1.16895
1.16895
1.16896
1.16897
1.169
1.16921
1.17157
1.18322
1.19839
1.20799
1.22067
1.22499
1.22451
1.22451
1.22825
1.2283
1.24912
1.44613
83.6976
1014.78
1027.09
1027.09
1027.09
1027.1
1027.1
1027.1
1027.1
1027.1
1027.1
1027.1
1027.1
1027.1
1027.1
1027.1
1027.1
1027.1
1027.1
1027.1
1027.1
1027.1
1027.1
1027.1
1027.1
1027.1
1027.1
1027.1
1027.1
1027.1
1027.1
1027.1
1027.1
1027.1
1027.1
1027.1
1027.1
1.16468
1.16706
1.16662
1.16668
1.1675
1.16743
1.16759
1.16763
1.16794
1.16843
1.16873
1.16886
1.16889
1.1689
1.1689
1.1689
1.16891
1.16891
1.16891
1.16891
1.16891
1.16891
1.16892
1.16892
1.16892
1.16892
1.16892
1.16892
1.16893
1.16893
1.16893
1.16893
1.16893
1.16893
1.16893
1.16893
1.16894
1.16894
1.16894
1.16894
1.16894
1.16894
1.16895
1.16896
1.16898
1.16904
1.16933
1.1717
1.18117
1.19879
1.21579
1.23625
1.23766
1.23409
1.23489
1.23958
1.24853
1.28228
1.36878
143.119
1025.86
1027.08
1027.07
1027.07
1027.07
1027.07
1027.08
1027.08
1027.09
1027.09
1027.09
1027.1
1027.1
1027.1
1027.1
1027.1
1027.1
1027.1
1027.1
1027.1
1027.1
1027.1
1027.1
1027.1
1027.1
1027.1
1027.1
1027.1
1027.1
1027.1
1027.1
1027.1
1027.1
1027.1
1027.1
1027.1
1.16362
1.16692
1.16624
1.16677
1.16687
1.16681
1.16722
1.16733
1.16782
1.1684
1.16874
1.16886
1.16889
1.1689
1.1689
1.1689
1.1689
1.1689
1.1689
1.16891
1.16891
1.16891
1.16891
1.16891
1.16891
1.16891
1.16892
1.16892
1.16892
1.16892
1.16892
1.16892
1.16893
1.16893
1.16893
1.16893
1.16893
1.16893
1.16894
1.16894
1.16894
1.16894
1.16894
1.16896
1.169
1.16917
1.16971
1.17237
1.18171
1.20229
1.22804
1.24975
1.24579
1.24338
1.25091
1.26351
1.28292
1.31766
1.40977
191.605
1025.17
1026.3
1026.08
1025.93
1025.83
1025.82
1026.05
1026.25
1026.45
1026.63
1026.78
1026.9
1026.98
1027.04
1027.07
1027.09
1027.1
1027.1
1027.1
1027.1
1027.1
1027.1
1027.1
1027.1
1027.1
1027.1
1027.1
1027.1
1027.1
1027.1
1027.1
1027.1
1027.1
1027.1
1027.1
1027.1
1.16301
1.16478
1.16633
1.1676
1.16697
1.16659
1.16693
1.16717
1.16789
1.16844
1.16876
1.16887
1.16889
1.1689
1.1689
1.1689
1.1689
1.1689
1.16891
1.16891
1.16891
1.16891
1.16891
1.16891
1.16891
1.16892
1.16892
1.16892
1.16892
1.16892
1.16892
1.16892
1.16893
1.16893
1.16893
1.16893
1.16893
1.16893
1.16894
1.16894
1.16894
1.16894
1.16894
1.16895
1.16903
1.16942
1.17054
1.17327
1.18633
1.21141
1.24536
1.26415
1.25811
1.25876
1.27463
1.29325
1.32069
1.36626
1.45997
233.775
1016.88
1021.5
1020.54
1020.02
1019.71
1019.49
1019.77
1020.1
1020.56
1021.2
1021.9
1022.75
1023.53
1024.35
1025.14
1025.89
1026.45
1026.78
1026.95
1027.01
1027.01
1027.01
1027.03
1027.04
1027.06
1027.08
1027.09
1027.1
1027.1
1027.1
1027.1
1027.1
1027.1
1027.1
1027.1
1027.1
1.16272
1.16387
1.16629
1.16696
1.16738
1.16754
1.16716
1.167
1.16796
1.1685
1.16878
1.16887
1.16889
1.1689
1.1689
1.1689
1.1689
1.16891
1.16891
1.16891
1.16891
1.16891
1.16891
1.16891
1.16891
1.16892
1.16892
1.16892
1.16892
1.16892
1.16892
1.16893
1.16893
1.16893
1.16893
1.16893
1.16894
1.16894
1.16894
1.16894
1.16894
1.16894
1.16894
1.16894
1.16903
1.1697
1.17134
1.17608
1.19239
1.21209
1.24859
1.28264
1.28564
1.29586
1.31104
1.3301
1.35841
1.39256
1.39494
281.851
1005.99
1014.27
1013.39
1012.87
1011.99
1010.96
1010.07
1009.03
1008.05
1007.57
1007.43
1008.05
1008.75
1009.66
1010.95
1012.87
1015.22
1017.41
1019.26
1020.48
1021.22
1021.67
1022.11
1022.78
1023.57
1024.36
1025.04
1025.55
1025.94
1026.24
1026.5
1026.71
1026.83
1026.92
1027
1027.05
1.16242
1.16316
1.16482
1.16512
1.16665
1.16741
1.16767
1.16755
1.16787
1.16836
1.16875
1.16887
1.16889
1.1689
1.1689
1.1689
1.16891
1.16891
1.16891
1.16892
1.16892
1.16892
1.16892
1.16892
1.16893
1.16893
1.16893
1.16893
1.16893
1.16893
1.16893
1.16894
1.16894
1.16894
1.16894
1.16894
1.16894
1.16894
1.16894
1.16894
1.16895
1.16895
1.16896
1.16896
1.1691
1.17028
1.17331
1.1798
1.19484
1.23637
1.26245
1.30359
1.30829
1.30813
1.31488
1.322
1.32792
1.35181
1.3527
268.893
995.42
1007.85
1007.12
1007.07
1006.71
1005.44
1004.22
1003.02
1002.37
1001.88
1001.45
1000.9
999.966
998.987
998.411
998.224
998.317
999.065
999.707
999.913
999.897
999.775
999.768
1000.16
1000.93
1001.92
1002.75
1003.45
1004.62
1006.74
1009.27
1012.28
1015.37
1018.32
1021.19
1023.32
1.16195
1.16258
1.16427
1.16403
1.16558
1.16645
1.1674
1.16762
1.16775
1.16796
1.16835
1.16876
1.16887
1.16889
1.16889
1.1689
1.1689
1.1689
1.1689
1.1689
1.16891
1.16891
1.16891
1.16891
1.16891
1.16892
1.16892
1.16892
1.16892
1.16892