/*--------------------------------*- C++ -*----------------------------------*\
| =========                 |                                                 |
| \\      /  F ield         | OpenFOAM: The Open Source CFD Toolbox           |
|  \\    /   O peration     | Version:  2.3.0                                 |
|   \\  /    A nd           | Web:      www.OpenFOAM.org                      |
|    \\/     M anipulation  |                                                 |
\*---------------------------------------------------------------------------*/
FoamFile
{
    version     2.0;
    format      ascii;
    class       volVectorField;
    location    "15";
    object      U;
}
// * * * * * * * * * * * * * * * * * * * * * * * * * * * * * * * * * * * * * //

dimensions      [0 1 -1 0 0 0 0];

internalField   nonuniform List<vector> 
6144
(
(0.00843568 0.016173 -0.00102207)
(0.0087725 -0.00454799 -0.000480945)
(0.00303748 -0.00723484 -0.00130475)
(0.00343887 -0.00840803 -0.000687817)
(0.00133117 -0.0103861 -0.000256464)
(0.00159552 -0.00810332 0.000504882)
(0.00109509 -0.00819036 0.000283836)
(0.00135769 -0.00592651 0.000369775)
(0.00128893 -0.00466205 -0.000586632)
(0.00148199 -0.00189375 -0.000834143)
(0.00163498 4.87509e-06 -0.000673233)
(0.0019604 0.00161345 -0.000232819)
(0.00227232 0.00191567 1.24721e-05)
(0.00249547 0.00178969 0.00013112)
(0.00261186 0.00131466 3.79107e-05)
(0.00267645 0.000914259 -6.5517e-05)
(0.00271232 0.000538153 -0.000200213)
(0.00273479 0.000293588 -0.000292809)
(0.00275111 9.67491e-05 -0.00037768)
(0.00276049 -1.01208e-05 -0.000427456)
(0.00276578 -9.62722e-05 -0.00046612)
(0.0027698 -0.0001347 -0.000483849)
(0.00276872 -0.000166046 -0.000495029)
(0.00276769 -0.000175703 -0.000495684)
(0.00276382 -0.000182744 -0.000492605)
(0.00275964 -0.000181573 -0.000484568)
(0.00275432 -0.000179114 -0.000474802)
(0.00274879 -0.000174182 -0.000463393)
(0.00274312 -0.000167174 -0.00045203)
(0.00273675 -0.000164402 -0.000440584)
(0.00273275 -0.000145619 -0.0004299)
(0.00272311 -0.000161708 -0.000421523)
(0.0027253 -0.000102172 -0.000408357)
(0.00270464 -0.000183254 -0.000407117)
(0.00272415 -1.38519e-05 -0.000382553)
(0.0026795 -0.000266259 -0.000398936)
(0.00272841 0.000152211 -0.000343874)
(0.00264581 -0.00046419 -0.000397334)
(0.00273023 0.000431782 -0.000280637)
(0.00260984 -0.000830847 -0.000386809)
(0.00271058 0.000835914 -0.000163614)
(0.00260833 -0.00147449 -0.000311661)
(0.00265595 0.00126015 -2.86283e-06)
(0.00263858 -0.00260837 -0.000125147)
(0.00252556 0.00162985 0.000112818)
(0.00256701 -0.00432839 -1.37726e-05)
(0.0020556 0.00259782 -0.000187927)
(0.00204077 -0.00491626 -0.00041013)
(0.00115826 0.00607525 -0.00110298)
(0.00275161 -0.00211229 -0.00140331)
(0.00597648 0.0131895 -0.00140505)
(0.00607911 -0.0135986 -0.00311517)
(0.00754904 0.0149907 -0.00150319)
(0.00390265 -0.0238105 -0.0028146)
(-9.23208e-06 0.0351365 -0.0065291)
(0.00193108 -0.0259684 -0.0115851)
(0.0182438 0.0755289 -0.00573708)
(0.0130637 -0.050315 -0.0250069)
(-0.0346386 0.131128 -0.0713512)
(0.0652267 0.0505256 -0.120257)
(0.134978 -0.236796 -0.0263105)
(0.083061 -0.0935056 -0.0113893)
(0.0341453 -0.16197 -0.00510347)
(0.034351 -0.17034 0.000761267)
(0.0281275 -0.170608 0.00382818)
(0.0197089 -0.177275 0.00604385)
(0.0140531 -0.184083 0.00722864)
(0.0103385 -0.189031 0.00754898)
(0.00773915 -0.191987 0.00725014)
(0.00570887 -0.193326 0.00664386)
(0.00399744 -0.193551 0.00605388)
(0.00261468 -0.192836 0.00541641)
(0.00153853 -0.191483 0.00481423)
(0.000747391 -0.189553 0.00429459)
(0.000235998 -0.187084 0.00363537)
(-0.000419619 -0.184309 0.00316126)
(-0.000892349 -0.180668 0.002517)
(-0.00189086 -0.17647 0.0017711)
(-0.00284198 -0.170843 0.00103237)
(-0.00366732 -0.163185 7.20583e-05)
(-0.00516359 -0.154258 -0.000643491)
(-0.00557376 -0.141933 -0.00153382)
(-0.0063144 -0.128832 -0.00244668)
(-0.00606667 -0.115413 -0.0035376)
(-0.00521366 -0.0987747 -0.00513084)
(-0.00668274 -0.0813992 -0.00677814)
(-0.00429705 -0.0630949 -0.0106014)
(-0.0029472 -0.0375049 -0.0105754)
(-0.00684913 -0.0119362 -0.00306071)
(-0.00650295 0.00862715 0.00192315)
(-0.00022602 0.02388 -0.00246656)
(0.00393578 0.029265 -0.0101873)
(0.00278511 0.0410311 -0.00863939)
(0.000787936 0.0439938 0.00370009)
(-0.000250512 0.029845 0.015225)
(0.00253839 0.0177153 0.0224903)
(0.0202233 0.0232146 0.00280797)
(0.0205531 0.00543848 0.00304095)
(0.00775547 -0.000127745 0.000146519)
(0.00930519 -0.00240611 0.00104956)
(0.00257718 -0.00741404 0.00201359)
(0.00338513 -0.00422658 0.00262012)
(0.00131492 -0.0056435 0.00329166)
(0.00213743 -0.00240339 0.00306912)
(0.00164075 -0.00195557 0.00298523)
(0.00204943 0.000579548 0.00255792)
(0.00240783 0.00186034 0.00253483)
(0.00321035 0.00313278 0.00302089)
(0.00396511 0.00302576 0.00343871)
(0.00447584 0.00264687 0.00365371)
(0.00472641 0.00195083 0.00360242)
(0.00485535 0.0014308 0.00350134)
(0.00490698 0.000952805 0.0033581)
(0.00493558 0.000656765 0.00325886)
(0.00494661 0.000413915 0.00317708)
(0.00494964 0.00028581 0.00313536)
(0.00494848 0.000183575 0.00311281)
(0.00494409 0.000139762 0.0031132)
(0.00493489 0.00010551 0.00312382)
(0.00492422 9.94622e-05 0.00314503)
(0.00491087 9.59737e-05 0.00317088)
(0.00489617 0.000103831 0.00320234)
(0.00488025 0.000112768 0.00323555)
(0.00486389 0.000124935 0.00326999)
(0.00484757 0.000138411 0.00330381)
(0.00483043 0.000150088 0.00333599)
(0.00481804 0.000172986 0.00336641)
(0.00479498 0.000168249 0.00339233)
(0.00479692 0.00023159 0.00342178)
(0.00475259 0.000164842 0.00343799)
(0.00478755 0.000337503 0.00348241)
(0.00469366 9.32995e-05 0.00347648)
(0.00479534 0.000526773 0.00355372)
(0.00461308 -0.000113396 0.00350522)
(0.00480729 0.000849583 0.00365201)
(0.00451337 -0.000541053 0.00353411)
(0.00481557 0.0013519 0.00382484)
(0.00444956 -0.00133125 0.00359999)
(0.00480023 0.00193409 0.00405527)
(0.00450051 -0.00276784 0.00375936)
(0.00471627 0.00246957 0.00410582)
(0.00444496 -0.00503181 0.00390108)
(0.00394104 0.00337688 0.00342762)
(0.00360907 -0.00739225 0.00324185)
(0.00185873 0.00563954 0.00171371)
(0.00419824 -0.00838939 0.00220296)
(0.0105511 0.00764265 0.00119114)
(0.010018 -0.0121861 0.000254413)
(0.0109346 0.0162266 0.00317443)
(0.001318 -0.0116422 -0.000430949)
(0.00766395 0.0554068 0.00315293)
(0.026557 -0.0531036 -0.00311796)
(-0.0276665 0.0516525 0.0137451)
(-0.0315851 -0.0260889 -0.00339818)
(-0.0106431 0.193056 -0.000268163)
(0.185827 -0.0158795 -0.0633415)
(0.196775 -0.187507 -0.0263547)
(0.052496 0.098283 0.00293522)
(-0.0233653 -0.117419 0.0107241)
(-0.00746955 -0.0714273 0.012468)
(-0.0100238 -0.0950057 0.0143699)
(-0.0163152 -0.117535 0.0167812)
(-0.018752 -0.130372 0.0163766)
(-0.0191465 -0.141317 0.0152215)
(-0.0186793 -0.150185 0.0138544)
(-0.0179531 -0.156534 0.01232)
(-0.0170855 -0.160723 0.0108017)
(-0.0161959 -0.162959 0.00923983)
(-0.0152111 -0.16385 0.00800766)
(-0.0141042 -0.163771 0.00685545)
(-0.0130649 -0.163062 0.00579318)
(-0.0121505 -0.161898 0.00486782)
(-0.0115303 -0.159912 0.00354469)
(-0.0116531 -0.157363 0.0024434)
(-0.0120814 -0.153148 0.00113926)
(-0.0128487 -0.146871 -5.0042e-05)
(-0.0141684 -0.139428 -0.00106031)
(-0.0145584 -0.127797 -0.00202877)
(-0.0145294 -0.115182 -0.00296544)
(-0.0161341 -0.103144 -0.00490668)
(-0.0153988 -0.0886012 -0.00570993)
(-0.0120737 -0.0728977 -0.00787113)
(-0.0138606 -0.0520235 -0.0108899)
(-0.0180326 -0.0242677 -0.00682437)
(-0.0179182 -0.00644221 -0.000991953)
(-0.0158262 0.00793877 0.00226697)
(-0.00682017 0.0158227 0.00183378)
(0.000487549 0.0219873 -0.0036423)
(0.00154473 0.0315015 -0.00351242)
(-0.00145953 0.0351697 0.00967299)
(-0.00400984 0.024579 0.0215876)
(-0.00295965 0.0135341 0.0296865)
(0.0279055 0.0305209 0.00374889)
(0.028498 0.01447 0.00195463)
(0.0137703 0.00823761 -0.00219182)
(0.0159142 0.00590076 -0.000167681)
(0.00301004 -0.00393414 0.000132071)
(0.00364862 -0.00103268 0.00110589)
(-0.000611354 -0.00445811 0.00285786)
(0.000685764 -0.000168546 0.00297049)
(0.000170987 4.21674e-05 0.00369213)
(0.000746949 0.00259383 0.00362134)
(0.00118812 0.00304247 0.00367442)
(0.00246234 0.00406932 0.00409048)
(0.00351576 0.00366486 0.00450485)
(0.00416482 0.0032345 0.00474886)
(0.00434847 0.00248591 0.00483592)
(0.00437753 0.00195423 0.00485887)
(0.0042948 0.00144931 0.0048572)
(0.00422662 0.00114241 0.00486316)
(0.00414329 0.000883478 0.00488074)
(0.00408237 0.000743379 0.00490969)
(0.00402466 0.00062883 0.00494691)
(0.00397881 0.000573371 0.00499009)
(0.00393466 0.000530757 0.00503504)
(0.00389737 0.000516122 0.00507929)
(0.00386192 0.000507401 0.00512257)
(0.00382917 0.000510715 0.00516691)
(0.00379788 0.00051676 0.00521056)
(0.00376812 0.000526926 0.00525291)
(0.0037398 0.000538906 0.00529299)
(0.00371267 0.000551672 0.00533121)
(0.00368855 0.0005703 0.0053669)
(0.00365586 0.000575428 0.00539585)
(0.00364749 0.000621274 0.00542469)
(0.00359674 0.000579573 0.00544536)
(0.00363267 0.000712067 0.00548242)
(0.00352271 0.000523846 0.00548498)
(0.00364902 0.000877906 0.00553642)
(0.00342536 0.000341738 0.00551073)
(0.00369111 0.00116317 0.00559329)
(0.0033045 -6.88857e-05 0.00551963)
(0.00379999 0.00160628 0.00567264)
(0.00321152 -0.000876975 0.00551157)
(0.0040313 0.00221903 0.00578811)
(0.00324999 -0.00225741 0.00547163)
(0.00425791 0.0029296 0.00580245)
(0.0033228 -0.00445995 0.00541468)
(0.00353706 0.00412897 0.00540128)
(0.00266615 -0.00674411 0.00524042)
(0.00170171 0.00616462 0.00396379)
(0.00430542 -0.00828388 0.0049175)
(0.00834835 0.00733019 0.00358895)
(0.00822025 -0.00284805 0.00311482)
(0.00497721 0.0236604 0.00592778)
(-0.00780655 -0.0117125 0.00168819)
(0.0207978 0.0574179 0.00701996)
(0.0351946 -0.0605494 -0.00387283)
(-0.047491 0.0929229 0.0210088)
(-0.0709329 -0.121473 -0.00778327)
(-0.080555 0.173913 -0.0295572)
(0.186622 -0.0361514 -0.0385995)
(0.217451 -0.12959 -0.0263609)
(0.0773865 0.138734 0.00714498)
(0.0837375 -0.0961631 0.0206464)
(0.0327384 -0.0210765 0.0221318)
(0.0105341 -0.0643171 0.0228404)
(0.00455079 -0.0857603 0.0219666)
(-0.00187051 -0.0979647 0.0187687)
(-0.00739631 -0.108059 0.0159106)
(-0.010952 -0.115541 0.0136359)
(-0.0129598 -0.120778 0.0116173)
(-0.0138454 -0.123758 0.0096152)
(-0.0140718 -0.125351 0.00784366)
(-0.0139098 -0.126234 0.00627627)
(-0.013352 -0.126423 0.00466127)
(-0.0129284 -0.126564 0.00338555)
(-0.0124568 -0.126139 0.0017965)
(-0.0124231 -0.125162 0.000252262)
(-0.0136224 -0.123952 -0.000835645)
(-0.0149633 -0.121153 -0.0021053)
(-0.0172531 -0.116426 -0.00276861)
(-0.0203443 -0.110832 -0.00370877)
(-0.0206419 -0.100967 -0.00479446)
(-0.0184288 -0.0898758 -0.00515209)
(-0.0179271 -0.0793755 -0.00853692)
(-0.0211463 -0.0630937 -0.0133824)
(-0.0262598 -0.0350092 -0.013079)
(-0.027734 -0.0109269 -0.00778363)
(-0.024243 0.00135081 -0.00289942)
(-0.0205232 0.00757307 -0.000625544)
(-0.0161177 0.0110718 0.000229552)
(-0.00861286 0.0122972 0.000570912)
(-0.00188143 0.016065 -0.00188338)
(-0.000761761 0.0239 0.000259403)
(-0.00465516 0.0259074 0.0116628)
(-0.0110136 0.0212 0.0232525)
(-0.0128687 0.00988825 0.0318162)
(0.0333481 0.0361098 0.00481406)
(0.0364006 0.0233543 0.00384461)
(0.0216417 0.0159572 -0.00133646)
(0.0248526 0.0144618 0.000930193)
(0.0106255 0.00234843 -0.00308365)
(0.00927713 0.0046138 -0.00185437)
(-0.00020479 -0.00414933 0.00051041)
(-0.000446844 0.000104536 0.00115799)
(-0.00171827 -0.000554799 0.00233516)
(-0.000420031 0.00285646 0.00254382)
(0.000196536 0.00292183 0.00284373)
(0.00157595 0.00398214 0.0036532)
(0.00262464 0.00356145 0.0042818)
(0.00321198 0.0033305 0.00465472)
(0.00333011 0.00273774 0.00479499)
(0.00329452 0.00230309 0.00485546)
(0.00318012 0.00184018 0.00489348)
(0.00307902 0.00154323 0.00493445)
(0.00296957 0.00128295 0.00498462)
(0.0028818 0.00113375 0.00503852)
(0.0028054 0.00101108 0.00509685)
(0.00274142 0.000945383 0.00515155)
(0.00268271 0.000897064 0.0052005)
(0.00263333 0.000876059 0.00524902)
(0.00258788 0.000862169 0.00529288)
(0.00254484 0.000860842 0.0053323)
(0.00250485 0.000863902 0.00537067)
(0.00246725 0.000871958 0.00540628)
(0.00243193 0.000882358 0.00543799)
(0.00239859 0.000894669 0.00546591)
(0.00236809 0.000912574 0.00549055)
(0.00233906 0.00092462 0.00551615)
(0.00232707 0.000958213 0.00554385)
(0.00228869 0.000940214 0.00556015)
(0.00230878 0.0010363 0.00558047)
(0.00222444 0.000896617 0.00558099)
(0.002331 0.00117607 0.00561647)
(0.00214952 0.000725107 0.00559542)
(0.00240544 0.00141964 0.00565401)
(0.00206701 0.000310778 0.00559306)
(0.00258832 0.00180563 0.00570844)
(0.00200637 -0.000496739 0.00555547)
(0.00297408 0.00239718 0.00582031)
(0.00196459 -0.00181063 0.00545201)
(0.00340155 0.00334254 0.00597608)
(0.00186654 -0.00347509 0.00530065)
(0.00273239 0.00485419 0.00578838)
(0.0011793 -0.00468471 0.00524749)
(0.000605769 0.0073937 0.00483721)
(0.00301361 -0.00602627 0.00549558)
(0.00384633 0.0119838 0.00389564)
(0.00562027 -0.00658113 0.00350289)
(0.00495387 0.0252263 0.0037426)
(-0.0122381 -0.0201893 -0.00656849)
(0.024175 0.0341224 0.0251953)
(0.0348893 -0.0590597 0.000682307)
(-0.00164176 0.0888179 0.0354525)
(-0.0843286 -0.130072 0.0404336)
(-0.0755424 0.166566 -0.106344)
(0.194398 -0.103504 -0.03617)
(0.236179 -0.100792 -0.0326355)
(0.0751696 0.120012 0.000479843)
(0.0758834 0.00193179 0.0152389)
(-0.013236 0.0463909 0.0241506)
(-0.00447073 -0.0283877 0.0289365)
(-0.00949079 -0.0342079 0.0215352)
(-0.0143139 -0.0523762 0.0131018)
(-0.018395 -0.0644943 0.00811478)
(-0.0204013 -0.0725331 0.00503528)
(-0.0210878 -0.0786211 0.00259701)
(-0.0205502 -0.0824277 0.000700293)
(-0.019146 -0.0841918 -0.001053)
(-0.0168382 -0.0847776 -0.00273581)
(-0.0138773 -0.0839468 -0.00430395)
(-0.0105146 -0.0828871 -0.0056321)
(-0.00728012 -0.0803767 -0.00668622)
(-0.00583827 -0.0775135 -0.0071606)
(-0.00659347 -0.0748083 -0.00757478)
(-0.00878894 -0.0711476 -0.00704865)
(-0.0124999 -0.0672305 -0.00620496)
(-0.0180718 -0.0626378 -0.00844113)
(-0.023472 -0.0517464 -0.012307)
(-0.0270786 -0.0314202 -0.0145198)
(-0.0300011 -0.0102963 -0.0154065)
(-0.0316079 0.0067433 -0.0138607)
(-0.0284547 0.0172925 -0.00847857)
(-0.0226084 0.0198964 -0.00326064)
(-0.0180367 0.0186569 -0.000182443)
(-0.0158133 0.0156982 0.00102909)
(-0.0133977 0.0121183 0.00147207)
(-0.00975163 0.00955164 0.00204858)
(-0.00699409 0.0102865 0.00118091)
(-0.00650097 0.015028 0.00363229)
(-0.00964704 0.0180772 0.0123335)
(-0.0168042 0.0172032 0.023757)
(-0.0206489 0.00752946 0.0327429)
(0.0346557 0.0375127 0.00753343)
(0.0403142 0.0279985 0.00821878)
(0.0251122 0.017248 0.00246457)
(0.0298798 0.0174127 0.00540437)
(0.0163418 0.00436109 -0.00247905)
(0.0168733 0.00876665 -0.0019712)
(0.00517553 -0.00123391 -0.0021422)
(0.00112371 0.00238841 -0.000532954)
(-0.00253522 -0.00139772 0.000653438)
(-0.00198992 0.00180252 0.00102036)
(-0.00105262 0.00135858 0.00158982)
(0.000317819 0.0026573 0.00287658)
(0.00106718 0.00249513 0.00375234)
(0.00141767 0.00268364 0.00424206)
(0.00136571 0.00242924 0.0044335)
(0.0011657 0.00224349 0.00450114)
(0.000903111 0.00191991 0.00452154)
(0.000671228 0.00168189 0.004537)
(0.000472386 0.00143731 0.00456386)
(0.000315823 0.00129435 0.00459818)
(0.000189382 0.00117436 0.00463401)
(8.84115e-05 0.00111116 0.00467033)
(8.2662e-06 0.00106076 0.00470226)
(-5.55673e-05 0.00103481 0.00472642)
(-0.000107101 0.00101723 0.00474365)
(-0.000147077 0.00101332 0.00475482)
(-0.00017853 0.00101706 0.00476142)
(-0.000203398 0.001029 0.00476716)
(-0.000222964 0.00104491 0.00477252)
(-0.000239252 0.00106309 0.00477708)
(-0.000254957 0.00108425 0.00477908)
(-0.000268815 0.00110062 0.00478023)
(-0.000281131 0.00112992 0.00477524)
(-0.000298117 0.00113329 0.00476995)
(-0.000273356 0.00121146 0.00477778)
(-0.000315741 0.00110811 0.00476729)
(-0.000224237 0.00134568 0.00479061)
(-0.000348054 0.000961705 0.0047545)
(-0.000124314 0.001587 0.00480023)
(-0.00038325 0.00057809 0.0047303)
(9.02961e-05 0.00196765 0.00483328)
(-0.000408538 -0.000160491 0.0046792)
(0.000525282 0.00258634 0.00496384)
(-0.000441834 -0.00122638 0.00459244)
(0.00101974 0.0036073 0.00521667)
(-0.000547093 -0.00203294 0.00456111)
(0.000187791 0.00541335 0.00526026)
(-0.00109789 -0.00259211 0.00470845)
(-0.00131384 0.00805725 0.00486106)
(0.000515341 -0.00599631 0.00511698)
(0.00240852 0.0128187 0.00351123)
(0.00290356 -0.00824617 0.00399378)
(0.00595291 0.0233215 0.00754347)
(-0.00274567 -0.0187719 0.00280745)
(0.0144519 0.0122506 0.0430445)
(0.00970288 -0.0382295 0.0436762)
(0.000387811 0.0787719 0.067779)
(-0.108784 -0.114115 0.0591227)
(0.00953839 0.152215 -0.192054)
(0.12118 -0.112242 -0.0179003)
(0.204082 -0.0533502 -0.0325512)
(0.0753231 0.118221 -0.00214105)
(0.0870541 0.0667544 0.0107069)
(0.0392254 0.0765413 0.0124304)
(0.0259636 0.035022 0.00796502)
(0.00554239 0.0237497 0.000360156)
(0.00404869 0.0121573 -0.00330265)
(-0.000421361 0.00259082 -0.00486706)
(-0.00338225 -0.00384745 -0.00654428)
(-0.005313 -0.00847801 -0.00855447)
(-0.00616935 -0.0102229 -0.0108302)
(-0.00604485 -0.00890432 -0.0126822)
(-0.00536633 -0.00527307 -0.0146277)
(-0.00401928 0.00261497 -0.0156851)
(-0.003524 0.00981033 -0.0145811)
(-0.00341529 0.0203569 -0.012929)
(-0.00449529 0.0280002 -0.0108461)
(-0.00712944 0.0337411 -0.010126)
(-0.0109225 0.0375512 -0.00993038)
(-0.0152971 0.0407835 -0.0105245)
(-0.0195298 0.0439564 -0.0110286)
(-0.0217368 0.0473298 -0.0105784)
(-0.0217706 0.0488049 -0.00870409)
(-0.0201038 0.0482586 -0.00583864)
(-0.0177058 0.0454943 -0.00224894)
(-0.0145046 0.0406486 0.00147346)
(-0.0119077 0.034473 0.00422909)
(-0.0103798 0.0278003 0.00575365)
(-0.00979814 0.0207911 0.00623205)
(-0.00931692 0.0140023 0.00646445)
(-0.00900728 0.00882135 0.00612537)
(-0.00913405 0.00692951 0.0049152)
(-0.011795 0.0108914 0.00562347)
(-0.0180333 0.0144223 0.0134831)
(-0.0276926 0.0143154 0.0246494)
(-0.0343626 0.00539388 0.0338281)
(0.0339162 0.0367646 0.00954767)
(0.0425009 0.0304997 0.00937297)
(0.0227797 0.0163994 0.00641096)
(0.0301807 0.0193074 0.00932856)
(0.0164605 0.00269699 0.00281173)
(0.019462 0.00931472 0.00147085)
(0.00873374 -0.000401279 -0.00246631)
(0.00413184 0.00488376 -0.00148517)
(-0.00066369 -3.40823e-05 -0.000138248)
(-0.00242242 0.0022104 0.000224316)
(-0.00192046 -0.000305316 0.000668848)
(-0.000984347 0.000518335 0.00197394)
(-0.000101844 0.000511504 0.00312002)
(0.000291686 0.00133993 0.00374664)
(0.000261604 0.00152878 0.00400849)
(9.92024e-05 0.0017278 0.00412907)
(-0.00013548 0.00165843 0.0041611)
(-0.000340686 0.00160984 0.00415981)
(-0.000526547 0.00149742 0.00413194)
(-0.000676071 0.00142971 0.00409996)
(-0.000787149 0.00135828 0.00406811)
(-0.000869043 0.00133074 0.00404061)
(-0.000923539 0.00130895 0.0040144)
(-0.000963203 0.00130817 0.00398846)
(-0.000992498 0.00131238 0.00395929)
(-0.00101624 0.00132607 0.00392696)
(-0.00103394 0.00134332 0.0038896)
(-0.00104556 0.00136394 0.00385446)
(-0.00105252 0.00138544 0.00382185)
(-0.0010557 0.00140903 0.00379212)
(-0.00105504 0.00143304 0.00376633)
(-0.00104969 0.00145293 0.00374471)
(-0.00104476 0.00147748 0.00372347)
(-0.00103568 0.00148358 0.00370528)
(-0.00101466 0.00154358 0.00369432)
(-0.00102646 0.00147123 0.00367688)
(-0.000942346 0.00168107 0.00369717)
(-0.00100815 0.00134483 0.00366317)
(-0.00077059 0.00192913 0.00375148)
(-0.000946838 0.00100156 0.0036773)
(-0.000439903 0.00232173 0.00388743)
(-0.000857573 0.00042641 0.00370565)
(1.65949e-05 0.00300482 0.00413897)
(-0.000806819 -4.13514e-05 0.00373259)
(6.7733e-05 0.00420382 0.00433204)
(-0.00105564 0.000126386 0.00374535)
(-0.00106159 0.0062511 0.00428196)
(-0.00131353 -0.000780723 0.00401542)
(-0.000933748 0.00789708 0.00470655)
(0.000157077 -0.00662709 0.00475958)
(0.0011756 0.00911001 0.00366148)
(0.00272254 -0.00461605 0.00440109)
(0.00803748 0.0169146 0.0084733)
(0.0127715 -0.0119466 0.00870259)
(-0.00412565 0.00608867 0.0428699)
(-0.0374556 -0.0330232 0.0496604)
(0.016398 0.0312868 0.0696822)
(-0.0636155 -0.0970552 0.0712401)
(0.0416026 -0.0429463 -0.203837)
(0.0689824 -0.0837825 -0.0125338)
(0.161432 0.0213102 -0.0419386)
(0.0661124 0.159557 -0.00797958)
(0.0541168 0.162599 0.00980443)
(0.0309888 0.168049 0.00542373)
(0.0218769 0.161226 0.00133228)
(0.0165348 0.155944 -0.00319947)
(0.0113758 0.152394 -0.00436925)
(0.00847194 0.148179 -0.00592848)
(0.00602699 0.145998 -0.00632141)
(0.00445931 0.143449 -0.00644716)
(0.00310493 0.141702 -0.00589965)
(0.00264809 0.139395 -0.00475663)
(0.00150112 0.136364 -0.00354838)
(0.00117203 0.13275 -0.0025135)
(0.00197037 0.129541 -0.00116812)
(0.00165914 0.12534 -6.1876e-06)
(0.00198175 0.120567 0.000691484)
(0.00117083 0.116193 0.00131596)
(-0.000331226 0.110598 0.00172999)
(-0.00297962 0.104657 0.0021619)
(-0.00521297 0.0977698 0.00296829)
(-0.00673845 0.0908852 0.00423077)
(-0.00846186 0.0822654 0.00571752)
(-0.00915048 0.0744765 0.00769397)
(-0.00913758 0.0660068 0.00980731)
(-0.00870535 0.057757 0.0119566)
(-0.00866424 0.0491093 0.0137934)
(-0.0089439 0.0403441 0.0152732)
(-0.0099293 0.0312229 0.0163124)
(-0.0114889 0.022041 0.0168436)
(-0.0139751 0.0133423 0.0164596)
(-0.018367 0.00645688 0.0146537)
(-0.0233386 0.00351064 0.0127919)
(-0.0261091 0.00359962 0.0130362)
(-0.0328727 0.00729959 0.0214355)
(-0.0401261 0.00148822 0.0324672)
(0.0310937 0.0332024 0.00702478)
(0.0433267 0.033282 0.00807708)
(0.0181273 0.0171408 0.00635987)
(0.0294528 0.0245895 0.0108934)
(0.0111523 0.0025321 0.00725515)
(0.0152029 0.00947194 0.00772317)
(0.00757219 -0.00229402 0.00207557)
(0.0048328 0.00513555 -0.00108097)
(-7.47328e-05 0.000773156 0.000313378)
(-0.00201569 0.0034575 0.0012033)
(-0.00217506 -0.00060565 0.00154205)
(-0.00300593 -0.00080193 0.00216529)
(-0.00303183 -0.00098263 0.00289052)
(-0.00279149 0.000139385 0.0034454)
(-0.00277445 0.000629887 0.00373882)
(-0.00288268 0.00114694 0.00387549)
(-0.00308855 0.00133099 0.00388751)
(-0.0033226 0.00150404 0.00385769)
(-0.00355519 0.00155902 0.00376471)
(-0.00373582 0.00162628 0.00364696)
(-0.00386953 0.00165178 0.00353012)
(-0.00395921 0.00169214 0.0034294)
(-0.00400944 0.00171536 0.00334297)
(-0.00403007 0.00174613 0.00327446)
(-0.00402858 0.00176683 0.00321855)
(-0.00400888 0.00178595 0.00317225)
(-0.00397075 0.00180333 0.0031253)
(-0.00392116 0.00182173 0.00308385)
(-0.00386695 0.00184038 0.00304907)
(-0.00381136 0.00185823 0.00302148)
(-0.00375812 0.00187512 0.00300088)
(-0.00370656 0.00188788 0.00298772)
(-0.00366393 0.00190016 0.00297919)
(-0.003614 0.00189857 0.00297842)
(-0.00356968 0.0019268 0.00298341)
(-0.00352309 0.0018645 0.00300737)
(-0.00345091 0.00202375 0.00305482)
(-0.00341437 0.00172671 0.00309894)
(-0.00327572 0.00224587 0.00323055)
(-0.00326469 0.00144875 0.00325335)
(-0.00304572 0.00265385 0.00350054)
(-0.00313052 0.0011353 0.00345042)
(-0.00287997 0.00341008 0.00378801)
(-0.00308329 0.00110328 0.00366483)
(-0.00321622 0.00472672 0.00388411)
(-0.00326172 0.0014546 0.00369957)
(-0.00384467 0.00668414 0.00352993)
(-0.00266267 4.61638e-05 0.00381502)
(-0.00199342 0.00819095 0.00441072)
(-0.00108156 -0.00631734 0.00437617)
(-0.00407951 0.00783831 0.00338713)
(-0.000475098 -0.00596569 0.00295589)
(0.00217611 0.0139809 0.00472708)
(0.00896098 0.000989915 0.00578378)
(-0.00606856 0.0310771 0.0277621)
(-0.0397133 -0.0386989 0.0433842)
(-0.00552321 -0.0266016 0.0788731)
(-0.000296754 -0.112547 0.0892738)
(0.0407102 -0.16314 -0.207622)
(0.0364982 -0.102623 -0.0231462)
(0.0692668 0.122966 -0.0448769)
(0.0316553 0.24849 -0.00484546)
(0.0311721 0.277828 0.00912263)
(0.0240261 0.288916 0.0106811)
(0.0225585 0.29181 0.00865093)
(0.0202622 0.290125 0.00858204)
(0.018712 0.287072 0.00816139)
(0.0170578 0.283344 0.00731609)
(0.0158906 0.27759 0.00726062)
(0.015086 0.271724 0.00764326)
(0.0142502 0.263992 0.00861189)
(0.0137836 0.254467 0.00941976)
(0.0130491 0.245998 0.00974364)
(0.0129845 0.236356 0.010189)
(0.0132511 0.227496 0.011128)
(0.012653 0.217732 0.0124742)
(0.0109404 0.205772 0.0120872)
(0.00970964 0.194782 0.0126569)
(0.00776711 0.182892 0.0127918)
(0.00559373 0.170497 0.0132366)
(0.00285869 0.157839 0.01382)
(0.000573784 0.144998 0.0147538)
(-0.00138579 0.132358 0.0161287)
(-0.00307553 0.121108 0.0175646)
(-0.00498164 0.109005 0.019003)
(-0.00668039 0.097648 0.02052)
(-0.00858899 0.0855742 0.0219564)
(-0.0103153 0.0738632 0.0231643)
(-0.0117855 0.0618483 0.0235792)
(-0.0134529 0.0492535 0.0230512)
(-0.0163551 0.036302 0.0212494)
(-0.0210026 0.0235983 0.0177166)
(-0.0276793 0.0128061 0.0146114)
(-0.0372064 0.00464824 0.0166019)
(-0.0484705 0.00467982 0.0229402)
(-0.0638164 -0.000787213 0.029162)
(0.0316054 0.0288528 0.0030065)
(0.0426946 0.036617 0.00782152)
(0.0125825 0.0193228 0.00640826)
(0.0267304 0.0287019 0.0138614)
(0.00658133 0.00389839 0.00903149)
(0.0106833 0.0126346 0.0106889)
(0.00190594 -0.00391799 0.00652806)
(0.00207904 0.00513465 0.0016726)
(-0.001776 6.0974e-05 0.00137228)
(-0.00260629 0.00440742 0.00260812)
(-0.00254153 -4.74608e-05 0.0033279)
(-0.00383597 -0.000544604 0.00362992)
(-0.00411369 -0.0013367 0.00407474)
(-0.00375423 -0.000555137 0.00449786)
(-0.00347577 -0.000169837 0.00486915)
(-0.00341695 0.000434591 0.00507522)
(-0.00348641 0.000847564 0.00512296)
(-0.00353923 0.00126197 0.00507835)
(-0.00358472 0.00151347 0.00501389)
(-0.00359559 0.00172502 0.0049549)
(-0.00357423 0.00185762 0.00489641)
(-0.00352539 0.00197157 0.00485491)
(-0.00345601 0.00204748 0.004826)
(-0.00337122 0.00212046 0.00481255)
(-0.00328267 0.0021836 0.00480638)
(-0.00320035 0.00224728 0.00480317)
(-0.0031255 0.00229692 0.00478856)
(-0.00306016 0.00232626 0.00476991)
(-0.00299972 0.00234245 0.00475447)
(-0.0029431 0.00235146 0.00474436)
(-0.00289223 0.00235572 0.00473968)
(-0.0028453 0.00235485 0.00474303)
(-0.00280696 0.00235612 0.00475395)
(-0.0027604 0.00235008 0.00477394)
(-0.00272668 0.00235953 0.0047935)
(-0.00267945 0.00230082 0.00482972)
(-0.00263576 0.00242632 0.00487466)
(-0.00258045 0.00215258 0.00492806)
(-0.00249357 0.0026548 0.00503701)
(-0.00243434 0.00195887 0.00506294)
(-0.00232544 0.00313061 0.00525083)
(-0.0023015 0.00192471 0.00521301)
(-0.00228685 0.00401411 0.00534814)
(-0.00229848 0.00230328 0.00526972)
(-0.00288645 0.00539759 0.00486159)
(-0.00255194 0.00234557 0.00490402)
(-0.00373874 0.00711106 0.00380235)
(-0.00204102 -0.000385425 0.00448556)
(-0.00204101 0.00927806 0.00505621)
(-0.000617655 -0.00696322 0.00543988)
(-0.00387454 0.0119897 0.0066051)
(0.000557256 -0.0107702 0.00745465)
(-0.00322258 0.0153898 0.00809017)
(0.01228 -0.0102612 -0.00151933)
(0.0046023 0.0348921 0.0331948)
(-0.0148822 -0.0436933 0.0606289)
(-0.0162078 -0.0337067 0.0795841)
(0.0386903 -0.0967397 0.0769224)
(-0.0157525 -0.154823 -0.200722)
(-0.026772 -0.106635 -0.0257576)
(-0.0528958 0.161563 -0.0472905)
(-0.0139501 0.290989 -0.00559098)
(0.000373487 0.329686 0.0085246)
(0.0102151 0.345727 0.0128498)
(0.0140451 0.353229 0.0110867)
(0.0150156 0.356867 0.0107301)
(0.0171069 0.360776 0.00997442)
(0.0170094 0.361819 0.0101991)
(0.0170623 0.360818 0.0103163)
(0.0171496 0.359272 0.0107225)
(0.0166944 0.356245 0.0116355)
(0.0161145 0.353089 0.0124958)
(0.0163111 0.348758 0.0129934)
(0.0167197 0.343192 0.013489)
(0.0173276 0.337571 0.0141133)
(0.0167972 0.331936 0.0147644)
(0.0155623 0.325867 0.0152138)
(0.0151338 0.319017 0.0156765)
(0.0135622 0.311573 0.0162187)
(0.0118514 0.302704 0.0173081)
(0.00873963 0.29347 0.0186112)
(0.00647206 0.282634 0.019919)
(0.00373391 0.27124 0.0211644)
(-5.23497e-05 0.259394 0.0224139)
(-0.00340139 0.246734 0.0234356)
(-0.00517013 0.234471 0.0245945)
(-0.00753527 0.22131 0.025407)
(-0.00955626 0.208118 0.0261785)
(-0.0105856 0.194086 0.0265492)
(-0.0123339 0.178613 0.0265577)
(-0.0154427 0.161769 0.0264594)
(-0.0204084 0.142967 0.0260234)
(-0.0273571 0.121709 0.0258277)
(-0.0371151 0.0966335 0.0262192)
(-0.0513641 0.0629436 0.0240475)
(-0.0630052 0.0233439 0.018615)
(0.0132981 0.0309128 -0.011336)
(0.0400241 0.0381929 0.00647291)
(0.00263908 0.0190472 0.00608112)
(0.021948 0.0313146 0.0139751)
(-0.00184775 0.00621386 0.00770433)
(0.0038213 0.0181936 0.0101035)
(-0.00429096 -0.00227745 0.00515785)
(-0.00294965 0.0084548 0.000680405)
(-0.00470225 0.000825845 -0.00107031)
(-0.00494352 0.0056894 -0.00024631)
(-0.00444884 0.00105388 0.000738553)
(-0.00670904 0.000708405 0.000621325)
(-0.00768866 -0.00113947 0.000489638)
(-0.0073411 -0.000940436 0.000730528)
(-0.00718663 -0.000694779 0.00109152)
(-0.0072168 2.88073e-06 0.00140025)
(-0.00735845 0.000573369 0.0015793)
(-0.00749671 0.00112716 0.00167326)
(-0.0076314 0.00150506 0.00172297)
(-0.00773956 0.00181144 0.00174104)
(-0.0078238 0.00200806 0.00174305)
(-0.00788376 0.00216789 0.00174347)
(-0.00792629 0.00227407 0.00174475)
(-0.00795341 0.00236516 0.00175467)
(-0.0079624 0.00243573 0.00176869)
(-0.00794132 0.00248361 0.00178747)
(-0.00784267 0.00250461 0.00181802)
(-0.00771527 0.00251534 0.00186356)
(-0.00758888 0.00252319 0.00191562)
(-0.00746223 0.00252859 0.00197181)
(-0.00733551 0.00253347 0.00203005)
(-0.00720496 0.00253586 0.00208975)
(-0.00708384 0.00253672 0.00214972)
(-0.00695954 0.00253138 0.00221725)
(-0.00685349 0.00253744 0.00229096)
(-0.00672716 0.002498 0.00237768)
(-0.00666657 0.00260544 0.00245431)
(-0.006489 0.00239281 0.00256589)
(-0.00656674 0.00286089 0.00263026)
(-0.00623469 0.00231542 0.00275063)
(-0.00662148 0.00340498 0.00279869)
(-0.00605453 0.00251418 0.00292237)
(-0.00694618 0.00443841 0.00279551)
(-0.00593357 0.00320196 0.00296657)
(-0.00717245 0.00612947 0.00221913)
(-0.00571211 0.00319728 0.00240097)
(-0.0066518 0.0078862 0.00102021)
(-0.00481325 -0.000506366 0.00155148)
(-0.00475119 0.0101451 0.00213074)
(-0.00453317 -0.00879924 0.00271839)
(-0.00785857 0.0128717 0.00535344)
(-0.00364188 -0.0107052 0.00673957)
(-0.00717841 0.0139514 0.0031339)
(0.00102478 -0.00502194 0.00494991)
(-0.0154811 0.0559276 0.0129086)
(-0.0118286 -0.050626 0.0334647)
(-0.0526228 -0.0201998 0.0530078)
(0.0801571 -0.121165 0.0597027)
(-0.0390391 -0.0538278 -0.199935)
(-0.0666137 -0.072669 -0.0189225)
(-0.170966 0.0666708 -0.0484918)
(-0.0606907 0.204514 -0.00690023)
(-0.0308621 0.205066 0.007892)
(-0.00913629 0.208972 0.0083492)
(-0.00189903 0.214393 0.00722208)
(0.00447723 0.216432 0.00600846)
(0.00593749 0.220958 0.00454924)