/*--------------------------------*- C++ -*----------------------------------*\
| =========                 |                                                 |
| \\      /  F ield         | OpenFOAM: The Open Source CFD Toolbox           |
|  \\    /   O peration     | Version:  2.3.0                                 |
|   \\  /    A nd           | Web:      www.OpenFOAM.org                      |
|    \\/     M anipulation  |                                                 |
\*---------------------------------------------------------------------------*/
FoamFile
{
    version     2.0;
    format      ascii;
    class       volVectorField;
    location    "15";
    object      U.water;
}
// * * * * * * * * * * * * * * * * * * * * * * * * * * * * * * * * * * * * * //

dimensions      [0 1 -1 0 0 0 0];

internalField   nonuniform List<vector> 
6144
(
(0.00843609 0.0156838 -0.00102216)
(0.0087731 -0.0050491 -0.000480833)
(0.00303766 -0.00775976 -0.00130458)
(0.00343896 -0.00895018 -0.000687642)
(0.00133122 -0.0109382 -0.000256284)
(0.00159537 -0.00866392 0.000505031)
(0.00109483 -0.00875707 0.000284012)
(0.00135729 -0.00649685 0.000369903)
(0.00128847 -0.00523387 -0.000586497)
(0.00148153 -0.00246594 -0.000834038)
(0.00163453 -0.00056693 -0.000673144)
(0.00196 0.00104233 -0.000232744)
(0.00227196 0.00134535 1.25302e-05)
(0.00249515 0.00122014 0.000131168)
(0.00261158 0.000745827 3.79546e-05)
(0.0026762 0.000346087 -6.54725e-05)
(0.0027121 -2.94162e-05 -0.000200168)
(0.0027346 -0.000273431 -0.000292762)
(0.00275094 -0.000469785 -0.000377636)
(0.00276035 -0.000576217 -0.000427412)
(0.00276565 -0.000661972 -0.000466079)
(0.0027697 -0.000700041 -0.000483809)
(0.00276863 -0.000731069 -0.000494994)
(0.00276763 -0.000740443 -0.00049565)
(0.00276377 -0.000747234 -0.000492577)
(0.00275961 -0.000745843 -0.000484542)
(0.0027543 -0.000743195 -0.000474781)
(0.00274879 -0.0007381 -0.000463373)
(0.00274314 -0.000730954 -0.000452017)
(0.00273678 -0.000728069 -0.000440573)
(0.0027328 -0.000709192 -0.000429895)
(0.00272318 -0.000725205 -0.00042152)
(0.00272537 -0.000665608 -0.000408361)
(0.00270473 -0.000746644 -0.000407124)
(0.00272426 -0.000577214 -0.000382565)
(0.00267962 -0.000829595 -0.000398952)
(0.00272855 -0.000411129 -0.000343895)
(0.00264597 -0.00102752 -0.00039736)
(0.00273041 -0.000131586 -0.000280668)
(0.00261003 -0.00139422 -0.000386846)
(0.00271079 0.000272486 -0.000163658)
(0.00260853 -0.00203795 -0.000311719)
(0.00265619 0.00069663 -2.915e-06)
(0.0026388 -0.00317187 -0.000125212)
(0.00252581 0.0010662 0.000112754)
(0.00256725 -0.00489184 -1.3826e-05)
(0.00205582 0.00203396 -0.000187988)
(0.00204099 -0.00547969 -0.000410134)
(0.0011584 0.00550757 -0.00110309)
(0.00275184 -0.00271023 -0.00140337)
(0.00597649 0.0124999 -0.00140503)
(0.00607971 -0.0144365 -0.00311503)
(0.00754811 0.0138319 -0.00150314)
(0.00390095 -0.0255606 -0.00281403)
(-8.87576e-06 0.0325299 -0.00653063)
(0.00195154 -0.0294978 -0.0115766)
(0.0182247 0.0701816 -0.00575574)
(0.013064 -0.0597742 -0.0250298)
(-0.0347035 0.106864 -0.0728647)
(0.0601295 -0.0805998 -0.135403)
(0.136522 -0.258935 -0.0271103)
(0.0830702 -0.0936068 -0.0113906)
(0.0341453 -0.16197 -0.00510347)
(0.034351 -0.17034 0.000761267)
(0.0281275 -0.170608 0.00382818)
(0.0197089 -0.177275 0.00604385)
(0.0140531 -0.184083 0.00722864)
(0.0103385 -0.189031 0.00754898)
(0.00773915 -0.191987 0.00725014)
(0.00570887 -0.193326 0.00664386)
(0.00399744 -0.193551 0.00605388)
(0.00261468 -0.192836 0.00541641)
(0.00153853 -0.191483 0.00481423)
(0.000747391 -0.189553 0.00429459)
(0.000235998 -0.187084 0.00363537)
(-0.000419619 -0.18431 0.00316126)
(-0.000892349 -0.180668 0.002517)
(-0.00189086 -0.17647 0.0017711)
(-0.00284198 -0.170843 0.00103237)
(-0.00366732 -0.163185 7.20584e-05)
(-0.00516359 -0.154258 -0.000643491)
(-0.00557376 -0.141933 -0.00153382)
(-0.0063144 -0.128832 -0.00244668)
(-0.00606667 -0.115413 -0.0035376)
(-0.00521366 -0.0987747 -0.00513084)
(-0.00668274 -0.0813992 -0.00677814)
(-0.00429705 -0.0630949 -0.0106014)
(-0.0029472 -0.0375049 -0.0105754)
(-0.00684913 -0.0119362 -0.00306071)
(-0.00650295 0.00862715 0.00192315)
(-0.00022602 0.02388 -0.00246656)
(0.00393578 0.029265 -0.0101873)
(0.00278511 0.0410311 -0.00863939)
(0.000787936 0.0439938 0.00370009)
(-0.000250512 0.029845 0.015225)
(0.00253839 0.0177153 0.0224903)
(0.0202235 0.0228045 0.00280892)
(0.0205533 0.00499034 0.0030417)
(0.00775509 -0.000621499 0.000146877)
(0.00930493 -0.00291802 0.00104961)
(0.00257673 -0.00794707 0.00201367)
(0.00338425 -0.00478138 0.00262012)
(0.00131386 -0.00620624 0.00329168)
(0.00213607 -0.00296964 0.00306915)
(0.00163931 -0.00252348 0.00298527)
(0.00204798 1.01455e-05 0.00255796)
(0.00240647 0.00128982 0.00253485)
(0.0032091 0.00256202 0.00302087)
(0.00396398 0.00245544 0.00343867)
(0.00447482 0.00207725 0.00365365)
(0.00472549 0.00138192 0.00360236)
(0.00485453 0.000862558 0.00350128)
(0.00490625 0.000385165 0.00335804)
(0.00493493 8.96725e-05 0.0032588)
(0.00494603 -0.000152684 0.00317702)
(0.00494913 -0.000280344 0.00313529)
(0.00494802 -0.00038218 0.00311274)
(0.0049437 -0.000425633 0.00311313)
(0.00493455 -0.000459564 0.00312376)
(0.00492395 -0.000465327 0.00314496)
(0.00491065 -0.000468564 0.0031708)
(0.004896 -0.000460487 0.00320226)
(0.00488014 -0.000451361 0.00323547)
(0.00486383 -0.000439032 0.0032699)
(0.00484756 -0.00042542 0.00330372)
(0.00483048 -0.000413629 0.0033359)
(0.00481813 -0.000390637 0.00336631)
(0.00479513 -0.000395295 0.00339223)
(0.00479713 -0.000331896 0.00342167)
(0.00475285 -0.000398592 0.00343788)
(0.00478786 -0.000225905 0.00348229)
(0.00469403 -0.000470081 0.00347636)
(0.00479576 -3.66153e-05 0.0035536)
(0.00461355 -0.000676776 0.00350509)
(0.00480781 0.000286156 0.00365188)
(0.00451394 -0.00110448 0.00353397)
(0.0048162 0.000788379 0.00382469)
(0.00445023 -0.00189478 0.00359984)
(0.00480098 0.00137046 0.00405511)
(0.00450124 -0.00333143 0.00375918)
(0.00471708 0.00190581 0.00410568)
(0.00444573 -0.00559527 0.00390088)
(0.00394183 0.00281291 0.00342749)
(0.00360977 -0.00795562 0.00324167)
(0.00185928 0.00506917 0.00171355)
(0.00419873 -0.0090023 0.00220271)
(0.0105509 0.00692287 0.00119098)
(0.0100183 -0.0130801 0.000254505)
(0.0109322 0.014955 0.00317467)
(0.00131368 -0.0134332 -0.000429091)
(0.00766259 0.0529651 0.00314921)
(0.0265533 -0.0564827 -0.00311337)
(-0.0276141 0.0460427 0.0137089)
(-0.0313194 -0.0354939 -0.0033353)
(-0.00885162 0.168131 -0.00190067)
(0.18932 -0.133875 -0.0721123)
(0.199921 -0.206382 -0.0269948)
(0.0524988 0.0982674 0.00293501)
(-0.0233653 -0.117419 0.0107241)
(-0.00746955 -0.0714273 0.012468)
(-0.0100238 -0.0950057 0.0143699)
(-0.0163152 -0.117535 0.0167812)
(-0.018752 -0.130372 0.0163766)
(-0.0191465 -0.141317 0.0152215)
(-0.0186793 -0.150185 0.0138544)
(-0.0179531 -0.156534 0.01232)
(-0.0170855 -0.160723 0.0108017)
(-0.0161959 -0.162959 0.00923983)
(-0.0152111 -0.16385 0.00800766)
(-0.0141042 -0.163771 0.00685545)
(-0.0130649 -0.163062 0.00579318)
(-0.0121505 -0.161898 0.00486782)
(-0.0115303 -0.159912 0.00354469)
(-0.0116531 -0.157363 0.0024434)
(-0.0120814 -0.153148 0.00113926)
(-0.0128487 -0.146871 -5.0042e-05)
(-0.0141684 -0.139428 -0.00106031)
(-0.0145584 -0.127797 -0.00202877)
(-0.0145294 -0.115182 -0.00296544)
(-0.0161341 -0.103144 -0.00490668)
(-0.0153988 -0.0886012 -0.00570993)
(-0.0120737 -0.0728977 -0.00787113)
(-0.0138606 -0.0520236 -0.0108899)
(-0.0180326 -0.0242677 -0.00682437)
(-0.0179182 -0.00644222 -0.000991953)
(-0.0158262 0.00793876 0.00226697)
(-0.00682017 0.0158227 0.00183378)
(0.000487549 0.0219873 -0.0036423)
(0.00154473 0.0315015 -0.00351242)
(-0.00145953 0.0351697 0.00967299)
(-0.00400984 0.024579 0.0215876)
(-0.00295965 0.0135341 0.0296865)
(0.0279048 0.0301622 0.00374967)
(0.0284966 0.0140821 0.00195538)
(0.0137687 0.00782166 -0.00219158)
(0.0159128 0.00545484 -0.000167785)
(0.00300834 -0.00443876 0.000132088)
(0.00364667 -0.00157518 0.00110576)
(-0.000613473 -0.00501368 0.00285776)
(0.000683311 -0.000732072 0.00297044)
(0.000168577 -0.000522407 0.00369212)
(0.000744577 0.00202742 0.00362136)
(0.00118594 0.00247371 0.00367442)
(0.00246035 0.00349935 0.00409043)
(0.003514 0.00309484 0.00450477)
(0.00416325 0.00266503 0.00474876)
(0.00434707 0.00191713 0.00483582)
(0.00437629 0.0013861 0.00485876)
(0.00429369 0.000881756 0.00485709)
(0.00422563 0.000575393 0.00486305)
(0.00414242 0.00031694 0.00488062)
(0.00408159 0.000177278 0.00490957)
(0.00402398 6.31245e-05 0.00494679)
(0.00397824 8.02113e-06 0.00498996)
(0.00393418 -3.42749e-05 0.00503491)
(0.00389699 -4.8626e-05 0.00507916)
(0.00386163 -5.70972e-05 0.00512244)
(0.00382898 -5.35654e-05 0.00516678)
(0.00379778 -4.73309e-05 0.00521042)
(0.00376812 -3.70032e-05 0.00525277)
(0.00373989 -2.48873e-05 0.00529284)
(0.00371286 -1.20068e-05 0.00533106)
(0.00368883 6.7151e-06 0.00536674)
(0.00365624 1.19214e-05 0.00539568)
(0.00364797 5.78269e-05 0.00542453)
(0.00359731 1.61767e-05 0.0054452)
(0.00363333 0.000148697 0.00548225)
(0.00352347 -3.94976e-05 0.0054848)
(0.00364988 0.000314557 0.00553623)
(0.00342632 -0.000221595 0.00551054)
(0.00369215 0.000599791 0.0055931)
(0.00330564 -0.000632258 0.00551945)
(0.00380122 0.00104281 0.00567243)
(0.00321285 -0.00144048 0.00551138)
(0.00403272 0.00165537 0.0057879)
(0.00325145 -0.00282097 0.00547144)
(0.00425949 0.00236584 0.00580224)
(0.00332433 -0.00502341 0.00541446)
(0.00353866 0.00356491 0.00540108)
(0.00266757 -0.00730772 0.00524017)
(0.00170302 0.00559304 0.00396356)
(0.0043063 -0.00889976 0.00491707)
(0.00834878 0.00661608 0.00358879)
(0.00822023 -0.00371964 0.00311467)
(0.00497612 0.0224268 0.00592755)
(-0.00780511 -0.0134299 0.0016915)
(0.0207882 0.0549242 0.0070174)
(0.0351503 -0.0639489 -0.0038632)
(-0.0474678 0.0878079 0.0209448)
(-0.070533 -0.128567 -0.00770502)
(-0.0778077 0.15463 -0.0305085)
(0.181758 -0.144966 -0.0441733)
(0.218218 -0.146525 -0.0267192)
(0.0773865 0.138734 0.00714498)
(0.0837375 -0.0961631 0.0206464)
(0.0327384 -0.0210766 0.0221318)
(0.0105341 -0.0643171 0.0228404)
(0.00455079 -0.0857603 0.0219666)
(-0.00187051 -0.0979647 0.0187687)
(-0.00739631 -0.108059 0.0159106)
(-0.010952 -0.115541 0.0136359)
(-0.0129598 -0.120778 0.0116173)
(-0.0138454 -0.123758 0.0096152)
(-0.0140718 -0.125351 0.00784366)
(-0.0139098 -0.126234 0.00627627)
(-0.013352 -0.126423 0.00466127)
(-0.0129284 -0.126564 0.00338555)
(-0.0124568 -0.126139 0.0017965)
(-0.0124231 -0.125162 0.000252262)
(-0.0136224 -0.123952 -0.000835645)
(-0.0149633 -0.121153 -0.0021053)
(-0.0172531 -0.116426 -0.00276861)
(-0.0203443 -0.110832 -0.00370877)
(-0.0206419 -0.100967 -0.00479446)
(-0.0184288 -0.0898758 -0.00515209)
(-0.0179271 -0.0793755 -0.00853692)
(-0.0211463 -0.0630937 -0.0133824)
(-0.0262598 -0.0350092 -0.013079)
(-0.027734 -0.010927 -0.00778363)
(-0.024243 0.0013508 -0.00289942)
(-0.0205232 0.00757306 -0.000625544)
(-0.0161177 0.0110718 0.000229552)
(-0.00861286 0.0122972 0.000570912)
(-0.00188143 0.016065 -0.00188338)
(-0.000761761 0.0239 0.000259403)
(-0.00465516 0.0259074 0.0116628)
(-0.0110136 0.0212 0.0232525)
(-0.0128687 0.00988825 0.0318162)
(0.033347 0.0357854 0.00481427)
(0.0363982 0.0230204 0.0038449)
(0.0216392 0.0156076 -0.00133627)
(0.0248496 0.0140772 0.000930243)
(0.0106223 0.00190222 -0.00308376)
(0.00927374 0.00411804 -0.00185475)
(-0.000208297 -0.00468502 0.00051013)
(-0.000450397 -0.000455692 0.00115782)
(-0.00172163 -0.00111961 0.00233512)
(-0.000423228 0.00229009 0.00254386)
(0.000193606 0.00235373 0.00284375)
(0.00157332 0.0034127 0.00365317)
(0.00262233 0.00299182 0.00428173)
(0.00320994 0.00276137 0.00465463)
(0.00332831 0.00216925 0.0047949)
(0.00329292 0.00173521 0.00485537)
(0.0031787 0.00127286 0.00489338)
(0.00307775 0.000976422 0.00493434)
(0.00296845 0.000716608 0.00498451)
(0.00288082 0.000567842 0.00503839)
(0.00280456 0.000445556 0.00509673)
(0.00274071 0.000380217 0.00515142)
(0.00268213 0.000332215 0.00520037)
(0.00263288 0.000311493 0.00524888)
(0.00258756 0.000297853 0.00529274)
(0.00254465 0.000296743 0.00533215)
(0.00250479 0.000299993 0.00537053)
(0.00246733 0.00030821 0.00540613)
(0.00243213 0.000318746 0.00543784)
(0.00239892 0.000331172 0.00546575)
(0.00236856 0.000349171 0.0054904)
(0.00233966 0.000361295 0.00551599)
(0.00232781 0.000394947 0.0055437)
(0.00228956 0.000376998 0.00555998)
(0.00230979 0.000473109 0.00558031)
(0.00222558 0.000333458 0.00558082)
(0.00233227 0.000612901 0.0056163)
(0.00215093 0.000161959 0.00559524)
(0.00240698 0.000856448 0.00565383)
(0.00206869 -0.000252398 0.00559288)
(0.00259012 0.00124235 0.00570825)
(0.00200831 -0.00106003 0.00555529)
(0.00297614 0.00183371 0.00582011)
(0.00196676 -0.00237404 0.00545182)
(0.00340381 0.00277889 0.00597587)
(0.00186885 -0.00403845 0.00530047)
(0.00273475 0.00429022 0.00578814)
(0.00118156 -0.00524841 0.00524726)
(0.00060799 0.00682052 0.00483687)
(0.00301529 -0.00663534 0.00549518)
(0.00384803 0.0112994 0.00389535)
(0.00562064 -0.0073867 0.00350268)
(0.00495346 0.0241203 0.00374123)
(-0.0122369 -0.0218702 -0.0065611)
(0.024158 0.0314154 0.0251811)
(0.0348155 -0.0626562 0.000730313)
(-0.00174747 0.0836546 0.0353648)
(-0.0839859 -0.13567 0.0400655)
(-0.0726641 0.14843 -0.107487)
(0.17841 -0.226212 -0.0424908)
(0.235895 -0.119479 -0.0331112)
(0.0751696 0.120012 0.000479843)
(0.0758833 0.00193178 0.0152389)
(-0.013236 0.0463909 0.0241506)
(-0.00447073 -0.0283877 0.0289365)
(-0.00949079 -0.0342079 0.0215352)
(-0.0143139 -0.0523762 0.0131018)
(-0.018395 -0.0644943 0.00811478)
(-0.0204013 -0.0725331 0.00503528)
(-0.0210878 -0.0786212 0.00259701)
(-0.0205502 -0.0824277 0.000700293)
(-0.019146 -0.0841918 -0.001053)
(-0.0168382 -0.0847776 -0.00273581)
(-0.0138773 -0.0839468 -0.00430395)
(-0.0105146 -0.0828871 -0.0056321)
(-0.00728012 -0.0803767 -0.00668622)
(-0.00583827 -0.0775135 -0.0071606)
(-0.00659347 -0.0748083 -0.00757478)
(-0.00878894 -0.0711476 -0.00704865)
(-0.0124999 -0.0672305 -0.00620496)
(-0.0180718 -0.0626378 -0.00844113)
(-0.023472 -0.0517464 -0.012307)
(-0.0270786 -0.0314202 -0.0145198)
(-0.0300011 -0.0102963 -0.0154065)
(-0.0316079 0.00674329 -0.0138607)
(-0.0284547 0.0172924 -0.00847857)
(-0.0226084 0.0198964 -0.00326064)
(-0.0180367 0.0186569 -0.000182443)
(-0.0158133 0.0156982 0.00102909)
(-0.0133977 0.0121182 0.00147207)
(-0.00975163 0.00955163 0.00204858)
(-0.00699409 0.0102865 0.00118091)
(-0.00650097 0.015028 0.00363229)
(-0.00964704 0.0180772 0.0123335)
(-0.0168042 0.0172032 0.023757)
(-0.0206489 0.00752946 0.0327429)
(0.0346545 0.0372004 0.00753377)
(0.0403111 0.0276892 0.00821927)
(0.0251085 0.0169352 0.00246511)
(0.0298752 0.0170744 0.00540467)
(0.0163369 0.00397251 -0.00247892)
(0.0168682 0.00832556 -0.00197168)
(0.00517063 -0.00172983 -0.00214256)
(0.00111904 0.00185074 -0.000533316)
(-0.00253941 -0.00195695 0.000653357)
(-0.00199382 0.00123468 0.00102035)
(-0.00105611 0.000790084 0.00158988)
(0.000314668 0.00208835 0.00287655)
(0.00106442 0.0019259 0.00375229)
(0.00141522 0.00211481 0.00424199)
(0.00136355 0.001861 0.00443343)
(0.00116379 0.0016758 0.00450106)
(0.000901409 0.00135273 0.00452146)
(0.000669723 0.0011152 0.00453693)
(0.000471054 0.000871074 0.00456377)
(0.000314663 0.000728528 0.0045981)
(0.00018838 0.000608926 0.00463392)
(8.75735e-05 0.000546078 0.00467025)
(7.58317e-06 0.000495986 0.00470217)
(-5.60876e-05 0.000470325 0.00472633)
(-0.000107466 0.000452991 0.00474355)
(-0.000147278 0.000449302 0.00475473)
(-0.000178574 0.000453228 0.00476132)
(-0.000203277 0.000465336 0.00476707)
(-0.000222683 0.000481383 0.00477242)
(-0.000238804 0.000499674 0.00477699)
(-0.000254349 0.00052094 0.00477898)
(-0.000268038 0.000537383 0.00478013)
(-0.000280191 0.000566751 0.00477514)
(-0.000297006 0.000570167 0.00476986)
(-0.000272081 0.000648365 0.00477768)
(-0.000314294 0.000545044 0.00476719)
(-0.000222629 0.000782613 0.0047905)
(-0.000346274 0.000398653 0.0047544)
(-0.000122378 0.0010239 0.00480011)
(-0.000381138 1.50023e-05 0.0047302)
(9.25577e-05 0.00140446 0.00483316)
(-0.000406092 -0.000723668 0.00467909)
(0.000527855 0.00202298 0.00496371)
(-0.000439086 -0.0017897 0.00459233)
(0.00102258 0.00304373 0.00521651)
(-0.000544097 -0.00259629 0.00456099)
(0.000190828 0.00484934 0.00526003)
(-0.0010948 -0.00315677 0.00470826)
(-0.00131062 0.00747998 0.00486063)
(0.000518199 -0.00660888 0.00511661)
(0.00241211 0.0121377 0.00351073)
(0.00290603 -0.00905505 0.00399372)
(0.00595512 0.0222548 0.00754194)
(-0.00274686 -0.0204158 0.00281254)
(0.0144333 0.0093239 0.0429948)
(0.00965448 -0.0421424 0.0436039)
(0.000246973 0.0737573 0.0676118)
(-0.108264 -0.118489 0.0588707)
(0.0115208 0.127585 -0.194065)
(0.101746 -0.283397 -0.0317633)
(0.204108 -0.055256 -0.0326045)
(0.0753231 0.118213 -0.00214113)
(0.0870542 0.0667511 0.0107068)
(0.0392255 0.0765398 0.0124305)
(0.0259636 0.0350215 0.00796502)
(0.00554239 0.0237497 0.000360156)
(0.00404869 0.0121573 -0.00330265)
(-0.000421361 0.00259082 -0.00486706)
(-0.00338225 -0.00384745 -0.00654428)
(-0.005313 -0.00847802 -0.00855447)
(-0.00616935 -0.0102229 -0.0108302)
(-0.00604485 -0.00890432 -0.0126822)
(-0.00536633 -0.00527307 -0.0146277)
(-0.00401928 0.00261497 -0.0156851)
(-0.003524 0.00981033 -0.0145811)
(-0.00341529 0.0203569 -0.012929)
(-0.00449529 0.0280002 -0.0108461)
(-0.00712944 0.0337411 -0.010126)
(-0.0109225 0.0375512 -0.00993038)
(-0.0152971 0.0407835 -0.0105245)
(-0.0195298 0.0439564 -0.0110286)
(-0.0217368 0.0473298 -0.0105784)
(-0.0217706 0.0488049 -0.00870409)
(-0.0201038 0.0482586 -0.00583864)
(-0.0177058 0.0454943 -0.00224894)
(-0.0145046 0.0406486 0.00147346)
(-0.0119077 0.034473 0.00422909)
(-0.0103798 0.0278003 0.00575365)
(-0.00979814 0.0207911 0.00623205)
(-0.00931692 0.0140023 0.00646445)
(-0.00900728 0.00882135 0.00612537)
(-0.00913405 0.00692951 0.0049152)
(-0.011795 0.0108914 0.00562347)
(-0.0180333 0.0144223 0.0134831)
(-0.0276926 0.0143154 0.0246494)
(-0.0343626 0.00539388 0.0338281)
(0.0339147 0.0364511 0.00954758)
(0.0424963 0.0301967 0.0093736)
(0.022774 0.0161023 0.0064117)
(0.030174 0.0189928 0.00932888)
(0.0164539 0.00234352 0.00281216)
(0.0194552 0.00891663 0.00147058)
(0.00872772 -0.000856253 -0.0024666)
(0.00412621 0.00437574 -0.0014856)
(-0.000668546 -0.000574266 -0.000138403)
(-0.00242681 0.00165076 0.000224232)
(-0.00192432 -0.000872596 0.000668856)
(-0.000987841 -5.027e-05 0.00197388)
(-0.000104922 -5.71843e-05 0.00311996)
(0.000288929 0.000771615 0.00374657)
(0.000259156 0.000961012 0.00400843)
(9.70188e-05 0.00116055 0.004129)
(-0.000137424 0.00109168 0.00416103)
(-0.000342417 0.00104355 0.00415973)
(-0.000528083 0.000931571 0.00413187)
(-0.000677425 0.000864279 0.00409989)
(-0.000788324 0.000793236 0.00406805)
(-0.000870045 0.000766043 0.00404054)
(-0.000924367 0.000744577 0.00401435)
(-0.000963858 0.000744081 0.0039884)
(-0.000992978 0.000748537 0.00395924)
(-0.00101654 0.000762446 0.0039269)
(-0.00103406 0.000779889 0.00388955)
(-0.0010455 0.000800677 0.00385441)
(-0.00105228 0.000822317 0.00382181)
(-0.00105528 0.00084602 0.00379207)
(-0.00105444 0.000870133 0.00376629)
(-0.00104891 0.000890103 0.00374466)
(-0.00104378 0.000914714 0.00372343)
(-0.00103451 0.000920863 0.00370523)
(-0.00101331 0.000980902 0.00369429)
(-0.00102492 0.000908579 0.00367684)
(-0.000940614 0.00111841 0.00369714)
(-0.00100623 0.000782159 0.00366313)
(-0.000768487 0.0013664 0.00375144)
(-0.000944544 0.000438842 0.00367726)
(-0.000437427 0.00175891 0.00388739)
(-0.000854892 -0.000136381 0.00370561)
(1.94319e-05 0.00244184 0.00413891)
(-0.000803762 -0.000604297 0.00373256)
(7.08993e-05 0.00364058 0.00433197)
(-0.00105222 -0.000436605 0.0037453)
(-0.00105808 0.00568719 0.00428181)
(-0.00130981 -0.00134682 0.0040153)
(-0.000929815 0.00731639 0.00470605)
(0.000161004 -0.00724456 0.00475929)
(0.00118052 0.00840455 0.00366031)
(0.0027271 -0.00551011 0.00440076)
(0.00804274 0.0156995 0.00847078)
(0.0127673 -0.0137344 0.00870668)
(-0.00413986 0.00311043 0.0428323)
(-0.0373554 -0.0369426 0.0495857)
(0.0162765 0.026717 0.0695421)
(-0.0635895 -0.100587 0.0710041)
(0.0421219 -0.0682753 -0.207738)
(0.0518808 -0.28771 -0.0274675)
(0.161371 0.0196073 -0.0419707)
(0.0661128 0.159094 -0.007983)
(0.0541176 0.162243 0.00980503)
(0.0309866 0.167775 0.00542385)
(0.0218774 0.160944 0.00133324)
(0.016536 0.155766 -0.00319901)
(0.0113759 0.152297 -0.00436913)
(0.00847205 0.148111 -0.00592846)
(0.0060271 0.145938 -0.00632142)
(0.00445938 0.143395 -0.00644721)
(0.00310497 0.14166 -0.00589972)
(0.00264811 0.139371 -0.00475667)
(0.00150111 0.136349 -0.00354841)
(0.00117201 0.132738 -0.00251352)
(0.00197036 0.129533 -0.00116813)
(0.00165914 0.125336 -6.19312e-06)
(0.00198175 0.120565 0.000691482)
(0.00117083 0.116192 0.00131596)
(-0.000331227 0.110597 0.00172999)
(-0.00297962 0.104657 0.0021619)
(-0.00521297 0.0977698 0.00296829)
(-0.00673845 0.0908852 0.00423077)
(-0.00846186 0.0822654 0.00571752)
(-0.00915048 0.0744765 0.00769397)
(-0.00913758 0.0660068 0.00980731)
(-0.00870535 0.0577564 0.0119566)
(-0.00866424 0.0491089 0.0137934)
(-0.0089439 0.0403441 0.0152732)
(-0.0099293 0.0312229 0.0163124)
(-0.0114889 0.0220409 0.0168436)
(-0.0139751 0.0133423 0.0164596)
(-0.018367 0.00645688 0.0146537)
(-0.0233386 0.00351064 0.0127919)
(-0.0261091 0.00359961 0.0130362)
(-0.0328727 0.00729958 0.0214355)
(-0.0401261 0.00148822 0.0324672)
(0.0310917 0.0328746 0.00702446)
(0.0433196 0.0329743 0.0080773)
(0.0181192 0.0168477 0.00636035)
(0.0294439 0.0242869 0.0108932)
(0.0111442 0.00220224 0.00725557)
(0.0151951 0.0091039 0.00772295)
(0.00756558 -0.00271819 0.00207553)
(0.00482667 0.00465373 -0.00108141)
(-7.98923e-05 0.000255894 0.000313264)
(-0.00202027 0.00291467 0.00120314)
(-0.00217898 -0.00116649 0.00154202)
(-0.00300949 -0.00136943 0.00216516)
(-0.00303501 -0.00155106 0.00289042)
(-0.00279441 -0.000428785 0.0034453)
(-0.0027771 6.22358e-05 0.00373871)
(-0.00288508 0.000579785 0.00387538)
(-0.00309071 0.000764291 0.0038874)
(-0.00332454 0.000937786 0.00385759)
(-0.00355691 0.000993178 0.00376461)
(-0.00373735 0.00106085 0.00364687)
(-0.00387087 0.00108671 0.00353003)
(-0.00396036 0.00112742 0.00342933)
(-0.0040104 0.00115095 0.0033429)
(-0.00403084 0.00118201 0.0032744)
(-0.00402917 0.00120295 0.00321849)
(-0.00400927 0.0012223 0.0031722)
(-0.00397095 0.00123987 0.00312525)
(-0.00392118 0.00125843 0.00308381)
(-0.00386676 0.00127723 0.00304903)
(-0.00381099 0.0012952 0.00302145)
(-0.00375755 0.00131219 0.00300084)
(-0.0037058 0.00132503 0.0029877)
(-0.00366296 0.00133737 0.00297916)
(-0.00361283 0.00133582 0.0029784)
(-0.00356832 0.00136408 0.00298339)
(-0.00352153 0.0013018 0.00300736)
(-0.00344916 0.00146104 0.0030548)
(-0.00341242 0.001164 0.00309893)
(-0.00327359 0.00168309 0.00323054)
(-0.00326236 0.000885934 0.00325335)
(-0.00304322 0.00209094 0.00350053)
(-0.00312779 0.000572409 0.00345043)
(-0.0028771 0.00284703 0.003788)
(-0.00308017 0.000540297 0.00366484)
(-0.00321299 0.0041635 0.00388411)
(-0.00325816 0.000891656 0.00369956)
(-0.00384097 0.00611999 0.00352988)
(-0.00265864 -0.000520606 0.00381496)
(-0.0019892 0.00761047 0.00441029)
(-0.00107712 -0.0069354 0.00437594)
(-0.00407473 0.00710725 0.0033856)
(-0.000470038 -0.0069482 0.0029552)
(0.00218181 0.012595 0.0047245)
(0.00896482 -0.000860272 0.0057894)
(-0.00605892 0.0284648 0.0277583)
(-0.0396284 -0.0423297 0.0434014)
(-0.00553356 -0.0314791 0.0787268)
(-0.000439912 -0.116379 0.0891512)
(0.0397936 -0.180524 -0.213846)
(0.0307129 -0.289987 -0.0339474)
(0.0691025 0.116082 -0.0449227)
(0.0315647 0.243291 -0.00481429)
(0.0311473 0.272806 0.00915164)
(0.0239906 0.283183 0.0107019)
(0.0225641 0.286746 0.00866887)
(0.0202558 0.286312 0.00857251)
(0.0187126 0.28363 0.00816385)
(0.0170563 0.279801 0.00731443)
(0.015895 0.272917 0.00725843)
(0.0150902 0.267387 0.00763635)
(0.0142519 0.260314 0.00860885)
(0.0137858 0.252039 0.0094183)
(0.013049 0.243471 0.00974312)
(0.0129831 0.234016 0.0101885)
(0.0132508 0.224882 0.0111263)
(0.0126552 0.215606 0.0124732)
(0.0109393 0.203817 0.0120857)
(0.00970893 0.193094 0.0126557)
(0.00776615 0.181427 0.0127899)
(0.00559629 0.169259 0.0132339)
(0.00286166 0.156797 0.0138173)
(0.000575249 0.144145 0.0147519)
(-0.00138363 0.131515 0.0161267)
(-0.00307294 0.120294 0.0175627)
(-0.00497894 0.108247 0.0190014)
(-0.00667804 0.0970105 0.0205191)
(-0.0085868 0.0851539 0.0219558)
(-0.0103126 0.0734493 0.023164)
(-0.0117832 0.0615351 0.0235796)
(-0.0134508 0.0490567 0.0230519)
(-0.0163539 0.0361986 0.0212499)
(-0.0210023 0.0235707 0.0177167)
(-0.0276793 0.0128061 0.0146114)
(-0.0372064 0.00464824 0.0166019)
(-0.0484705 0.00467981 0.0229402)
(-0.0638164 -0.000791058 0.029162)
(0.0316004 0.0285068 0.0030054)
(0.042684 0.0362935 0.00782111)
(0.0125717 0.0190248 0.00640802)
(0.0267199 0.0284047 0.0138608)
(0.00657247 0.0035828 0.00903162)
(0.0106749 0.0122822 0.0106885)
(0.00189923 -0.00432662 0.00652791)
(0.00207281 0.0046683 0.00167215)
(-0.00178117 -0.000442696 0.0013721)
(-0.00261097 0.00387682 0.00260785)
(-0.00254545 -0.000600714 0.00332771)
(-0.00383955 -0.00110979 0.00362967)
(-0.00411694 -0.00190451 0.00407451)
(-0.00375723 -0.00112301 0.00449764)
(-0.00347851 -0.000737253 0.00486893)
(-0.00341944 -0.000132389 0.00507499)
(-0.00348865 0.000281019 0.00512274)
(-0.00354124 0.000695843 0.00507812)
(-0.00358651 0.000947742 0.00501366)
(-0.00359717 0.00115968 0.00495467)
(-0.00357561 0.00129264 0.00489619)
(-0.00352657 0.00140693 0.00485469)
(-0.00345699 0.00148315 0.00482579)
(-0.003372 0.00155641 0.00481233)
(-0.00328326 0.00161979 0.00480617)
(-0.00320072 0.00168369 0.00480296)
(-0.00312568 0.00173351 0.00478836)
(-0.00306014 0.00176301 0.00476971)
(-0.0029995 0.00177932 0.00475428)
(-0.00294267 0.00178845 0.00474418)
(-0.00289161 0.0017928 0.0047395)
(-0.00284447 0.001792 0.00474285)
(-0.00280592 0.00179332 0.00475378)
(-0.00275917 0.00178732 0.00477379)
(-0.00272525 0.00179678 0.00479335)
(-0.00267782 0.00173806 0.00482958)
(-0.00263394 0.00186352 0.00487453)
(-0.00257845 0.00158979 0.00492792)
(-0.00249139 0.00209199 0.00503688)
(-0.00243196 0.0013961 0.00506283)
(-0.00232291 0.00256777 0.00525071)
(-0.00229874 0.00136191 0.00521291)
(-0.00228397 0.00345115 0.00534805)
(-0.00229533 0.00174036 0.00526963)
(-0.0028832 0.00483441 0.00486155)
(-0.00254839 0.00178264 0.00490393)
(-0.00373498 0.0065469 0.00380232)
(-0.00203698 -0.000951009 0.00448545)
(-0.0020367 0.00870257 0.00505585)
(-0.000613057 -0.00756662 0.00543968)
(-0.00386991 0.0113126 0.00660382)
(0.000562902 -0.0116273 0.00745391)
(-0.00321615 0.0141302 0.00808676)
(0.0122882 -0.0119483 -0.00151164)
(0.00461008 0.0325031 0.0331881)
(-0.0148555 -0.0473774 0.0605973)
(-0.0160551 -0.038749 0.0794719)
(0.0385889 -0.100987 0.07683)
(-0.016767 -0.172658 -0.205851)
(-0.0220308 -0.279536 -0.034253)
(-0.0524739 0.145168 -0.0472243)
(-0.0140376 0.277053 -0.00571769)
(0.000478208 0.315997 0.00858162)
(0.0102318 0.332222 0.0128555)
(0.0141139 0.339803 0.0110716)
(0.0150445 0.342798 0.0107179)
(0.0171143 0.345066 0.00996907)
(0.0170295 0.34522 0.0101837)
(0.0170724 0.344656 0.010294)
(0.0171499 0.343413 0.0106962)
(0.0166969 0.341124 0.0116075)
(0.016116 0.337973 0.0124753)
(0.0163081 0.333661 0.0129764)
(0.0167144 0.328114 0.0134738)
(0.0173231 0.322523 0.0140942)
(0.0167888 0.316821 0.0147426)
(0.0155479 0.31059 0.0151843)
(0.0151194 0.303682 0.0156438)
(0.013539 0.296426 0.0161749)
(0.011834 0.287477 0.0172568)
(0.00874589 0.278339 0.0185532)
(0.0065103 0.267645 0.0198614)
(0.0037987 0.256344 0.0211097)
(4.55562e-06 0.244576 0.0223617)
(-0.00335123 0.231984 0.0233789)
(-0.00510151 0.219827 0.0245368)
(-0.00744961 0.206803 0.0253524)
(-0.00946838 0.193748 0.0261309)
(-0.0104735 0.179967 0.0265096)
(-0.0121859 0.16464 0.026522)
(-0.0152598 0.148208 0.0264274)
(-0.020185 0.12968 0.0260035)
(-0.0271057 0.108838 0.0258375)
(-0.0369234 0.0850124 0.0262935)
(-0.0512048 0.0526073 0.0242283)
(-0.0629629 0.0153644 0.0188534)
(0.0132894 0.0307035 -0.0113362)
(0.0400077 0.0378424 0.00647143)
(0.00262672 0.0187304 0.0060807)
(0.0219364 0.0310025 0.0139747)
(-0.00185705 0.00589813 0.00770439)
(0.00381284 0.017843 0.0101029)
(-0.00429762 -0.00268963 0.00515771)
(-0.00295585 0.00798459 0.000679961)
(-0.00470753 0.000322097 -0.00107043)
(-0.00494851 0.00516407 -0.000246495)
(-0.00445312 0.000507681 0.000738487)
(-0.00671302 0.000147697 0.000621257)
(-0.00769233 -0.00170552 0.000489595)
(-0.00734452 -0.00150764 0.000730492)
(-0.00718979 -0.00126169 0.0010915)
(-0.00721971 -0.000563606 0.00140024)
(-0.00736113 7.29328e-06 0.00157928)
(-0.00749916 0.000561482 0.00167324)
(-0.00763363 0.00093976 0.00172294)
(-0.00774159 0.00124652 0.00174102)
(-0.00782562 0.00144349 0.00174301)
(-0.00788539 0.00160367 0.00174345)
(-0.0079277 0.00171015 0.00174473)
(-0.00795463 0.00180152 0.00175466)
(-0.00796341 0.00187234 0.00176868)
(-0.00794213 0.00192043 0.00178746)
(-0.00784327 0.00194161 0.00181802)
(-0.00771566 0.0019525 0.00186356)
(-0.00758906 0.00196048 0.00191563)
(-0.00746221 0.00196598 0.00197182)
(-0.00733527 0.00197096 0.00203008)
(-0.00720452 0.00197342 0.00208978)
(-0.0070832 0.00197434 0.00214975)
(-0.0069587 0.00196904 0.00221729)
(-0.00685246 0.00197511 0.00229101)
(-0.00672594 0.00193564 0.00237773)
(-0.00666517 0.00204303 0.00245436)
(-0.00648742 0.0018304 0.00256595)
(-0.006565 0.00229846 0.00263032)
(-0.00623274 0.001753 0.00275069)
(-0.00661941 0.00284251 0.00279877)
(-0.00605224 0.00195169 0.00292244)
(-0.00694378 0.00387579 0.00279562)
(-0.00593092 0.00263933 0.00296663)
(-0.00716965 0.00556654 0.00221928)
(-0.00570907 0.00263445 0.00240103)
(-0.00664842 0.00732211 0.00102036)
(-0.00480971 -0.00107057 0.00155157)
(-0.00474716 0.00957437 0.00213072)
(-0.00452895 -0.00939076 0.00271842)
(-0.00785406 0.0122214 0.00535277)
(-0.00363679 -0.0115555 0.00673917)
(-0.00716903 0.0126215 0.00313394)
(0.00103734 -0.00684349 0.00495403)
(-0.0154551 0.0536047 0.0129133)
(-0.0118106 -0.0536978 0.0335107)
(-0.0524018 -0.0248 0.0530134)
(0.0797179 -0.125607 0.0594823)
(-0.0402986 -0.0788187 -0.204217)
(-0.0490886 -0.281487 -0.0324066)
(-0.170446 0.0545492 -0.0486628)
(-0.0605972 0.19909 -0.00692016)
(-0.0308684 0.200757 0.00789479)
(-0.0090994 0.20491 0.00835581)