/*--------------------------------*- C++ -*----------------------------------*\
| =========                 |                                                 |
| \\      /  F ield         | OpenFOAM: The Open Source CFD Toolbox           |
|  \\    /   O peration     | Version:  2.3.0                                 |
|   \\  /    A nd           | Web:      www.OpenFOAM.org                      |
|    \\/     M anipulation  |                                                 |
\*---------------------------------------------------------------------------*/
FoamFile
{
    version     2.0;
    format      ascii;
    class       volScalarField;
    location    "15";
    object      w1;
}
// * * * * * * * * * * * * * * * * * * * * * * * * * * * * * * * * * * * * * //

dimensions      [0 0 0 0 0 0 0];

internalField   nonuniform List<scalar> 
6144
(
0.518788
0.518788
0.518788
0.518788
0.518788
0.518788
0.518788
0.518788
0.518788
0.518788
0.518788
0.518788
0.518788
0.518788
0.518788
0.518788
0.518788
0.518788
0.518788
0.518788
0.518788
0.518788
0.518788
0.518788
0.518788
0.518788
0.518788
0.518788
0.518788
0.518788
0.518788
0.518788
0.518788
0.518788
0.518788
0.518788
0.518788
0.518788
0.518788
0.518788
0.518788
0.518788
0.518788
0.518788
0.518788
0.518788
0.518788
0.518788
0.518788
0.518788
0.518788
0.518788
0.518788
0.518788
0.518788
0.518788
0.518783
0.518325
0.466459
0.505818
0.805691
0.998516
0.999992
0.931347
0.99836
0.918369
0.982461
0.972676
0.990666
0.991169
0.989151
0.985023
0.979716
0.973889
0.981301
0.985194
0.985544
0.980836
0.986603
0.972822
0.953471
0.980565
0.980014
0.986441
0.838723
8.68184e-08
0.730687
0.998449
0.999622
0.999746
0.998265
0.998942
0.998363
0.987103
0.978964
0.999858
0.518788
0.518788
0.518788
0.518788
0.518788
0.518788
0.518788
0.518788
0.518788
0.518788
0.518788
0.518788
0.518788
0.518788
0.518788
0.518788
0.518788
0.518788
0.518788
0.518788
0.518788
0.518788
0.518788
0.518788
0.518788
0.518788
0.518788
0.518788
0.518788
0.518788
0.518788
0.518788
0.518788
0.518788
0.518788
0.518788
0.518788
0.518788
0.518788
0.518788
0.518788
0.518788
0.518788
0.518788
0.518788
0.518788
0.518788
0.518788
0.518788
0.518788
0.518788
0.518788
0.518788
0.518788
0.518788
0.518788
0.51878
0.51781
0.477874
0.476766
0.873883
0.999658
0.999994
0.999276
0.99897
0.991524
0.990902
0.848598
0.987553
0.988854
0.986262
0.975408
0.0736246
0.135826
0.0353866
0.0744208
0.914659
0.983621
0.979326
0.988653
0.847174
0.991691
0.99283
0.984466
0.924653
0.336267
0.976862
0.99902
0.999639
0.999591
0.998955
0.998886
0.998013
0.981459
0.993062
0.99986
0.518788
0.518788
0.518788
0.518788
0.518788
0.518788
0.518788
0.518788
0.518788
0.518788
0.518788
0.518788
0.518788
0.518788
0.518788
0.518788
0.518788
0.518788
0.518788
0.518788
0.518788
0.518788
0.518788
0.518788
0.518788
0.518788
0.518788
0.518788
0.518788
0.518788
0.518788
0.518788
0.518788
0.518788
0.518788
0.518788
0.518788
0.518788
0.518788
0.518788
0.518788
0.518788
0.518788
0.518788
0.518788
0.518788
0.518788
0.518788
0.518788
0.518788
0.518788
0.518788
0.518788
0.518788
0.518788
0.518788
0.518786
0.518811
0.512272
0.523827
0.183796
0.99999
0.99925
0.998902
0.998981
0.997157
0.997419
0.995431
0.99408
0.992879
0.992062
0.990583
0.990107
0.988923
0.99082
0.992265
0.990227
0.989425
0.989728
0.981766
0.972646
0.968253
0.994152
0.992536
0.993259
0.96876
0.998809
0.999522
0.999618
0.998409
0.998545
0.998836
0.997726
0.996624
0.994345
0.999858
0.518788
0.518788
0.518788
0.518788
0.518788
0.518788
0.518788
0.518788
0.518788
0.518788
0.518788
0.518788
0.518788
0.518788
0.518788
0.518788
0.518788
0.518788
0.518788
0.518788
0.518788
0.518788
0.518788
0.518788
0.518788
0.518788
0.518788
0.518788
0.518788
0.518788
0.518788
0.518788
0.518788
0.518788
0.518788
0.518788
0.518788
0.518788
0.518788
0.518788
0.518788
0.518788
0.518788
0.518788
0.518788
0.518788
0.518788
0.518788
0.518788
0.518788
0.518788
0.518788
0.518788
0.518788
0.518788
0.518788
0.518787
0.518662
0.476823
0.469197
0.279653
0.999944
0.999813
0.99813
0.999637
0.997905
0.997891
0.994693
0.990494
0.990776
0.986764
0.982219
0.977417
0.978844
0.982269
0.975971
0.986013
0.985028
0.983035
0.987072
0.567559
0.994719
0.99489
0.924169
0.99684
0.998709
0.999215
0.999289
0.998866
0.992186
0.99664
0.9978
0.997888
0.996624
0.99743
0.999865
0.518788
0.518788
0.518788
0.518788
0.518788
0.518788
0.518788
0.518788
0.518788
0.518788
0.518788
0.518788
0.518788
0.518788
0.518788
0.518788
0.518788
0.518788
0.518788
0.518788
0.518788
0.518788
0.518788
0.518788
0.518788
0.518788
0.518788
0.518788
0.518788
0.518788
0.518788
0.518788
0.518788
0.518788
0.518788
0.518788
0.518788
0.518788
0.518788
0.518788
0.518788
0.518788
0.518788
0.518788
0.518788
0.518788
0.518788
0.518788
0.518788
0.518788
0.518788
0.518788
0.518788
0.518788
0.518788
0.518788
0.518787
0.518789
0.518222
0.47484
0.968391
0.998812
0.999732
0.999956
2.72612e-07
0.999987
0.999495
0.999536
0.999334
0.999269
0.999045
0.998948
0.998923
0.998973
0.998965
0.999122
0.999088
0.999228
0.99929
0.994428
0.996143
0.999425
0.997708
0.998377
0.998546
0.990037
0.99763
0.996992
0.996119
0.991341
0.967954
0.993439
0.995745
0.993914
0.997991
0.999863
0.518788
0.518788
0.518788
0.518788
0.518788
0.518788
0.518788
0.518788
0.518788
0.518788
0.518788
0.518788
0.518788
0.518788
0.518788
0.518788
0.518788
0.518788
0.518788
0.518788
0.518788
0.518788
0.518788
0.518788
0.518788
0.518788
0.518788
0.518788
0.518788
0.518788
0.518788
0.518788
0.518788
0.518788
0.518788
0.518788
0.518788
0.518788
0.518788
0.518788
0.518788
0.518788
0.518788
0.518788
0.518788
0.518788
0.518788
0.518788
0.518788
0.518788
0.518788
0.518788
0.518788
0.518788
0.518788
0.518788
0.518788
0.518788
0.518767
0.466096
0.88885
0.0222505
0.971595
0.900914
0.22098
2.95714e-05
0.000277747
0.00124446
0.0318631
1.23851e-06
0.965064
0.776911
0.986947
0.991039
0.994543
0.999696
0.997438
0.999915
4.75175e-06
0.999991
0.999075
0.999053
0.999389
0.999541
0.999993
0.999985
0.999989
0.999994
0.999498
1.34742e-09
0.999924
0.999851
0.999386
0.998196
0.998821
0.999942
0.518788
0.518788
0.518788
0.518788
0.518788
0.518788
0.518788
0.518788
0.518788
0.518788
0.518788
0.518788
0.518788
0.518788
0.518788
0.518788
0.518788
0.518788
0.518788
0.518788
0.518788
0.518788
0.518788
0.518788
0.518788
0.518788
0.518788
0.518788
0.518788
0.518788
0.518788
0.518788
0.518788
0.518788
0.518788
0.518788
0.518788
0.518788
0.518788
0.518788
0.518788
0.518788
0.518788
0.518788
0.518788
0.518788
0.518788
0.518788
0.518788
0.518788
0.518788
0.518788
0.518788
0.518788
0.518788
0.518788
0.518847
0.516534
0.531075
0.469596
0.827754
0.0961014
5.90984e-05
0.461204
0.205335
0.182732
0.146099
0.0971022
0.453407
0.000122838
0.0676231
0.146253
0.333354
0.000634077
0.658361
0.440018
0.0635329
0.067477
0.146261
0.504647
0.00610738
0.295291
0.507981
0.748143
0.798774
0.966266
0.00217416
0.916521
4.94629e-05
0.0915225
0.988639
0.999207
0.999999
0.999889
4.0854e-11
0.999909
0.518788
0.518788
0.518788
0.518788
0.518788
0.518788
0.518788
0.518788
0.518788
0.518788
0.518788
0.518788
0.518788
0.518788
0.518788
0.518788
0.518788
0.518788
0.518788
0.518788
0.518788
0.518788
0.518788
0.518788
0.518788
0.518788
0.518788
0.518788
0.518788
0.518788
0.518788
0.518788
0.518788
0.518788
0.518788
0.518788
0.518788
0.518788
0.518788
0.518788
0.518788
0.518788
0.518788
0.518788
0.518788
0.518788
0.518788
0.518788
0.518788
0.518788
0.518788
0.518788
0.518788
0.518788
0.518788
0.518788
0.518787
0.519918
0.502659
0.515245
0.625872
7.66587e-08
0.56854
0.000600094
0.910399
0.0283101
0.0720339
0.000608344
0.104909
0.545741
0.131662
0.493785
0.479073
0.676195
0.129616
0.673835
0.533598
0.142953
0.180053
0.620644
0.471917
0.515013
0.518324
0.502935
0.557447
0.511283
0.579169
0.727212
0.103816
0.70759
0.290322
0.156429
0.000964575
0.0395978
0.000108558
0.0522524
0.518788
0.518788
0.518788
0.518788
0.518788
0.518788
0.518788
0.518788
0.518788
0.518788
0.518788
0.518788
0.518788
0.518788
0.518788
0.518788
0.518788
0.518788
0.518788
0.518788
0.518788
0.518788
0.518788
0.518788
0.518788
0.518788
0.518788
0.518788
0.518788
0.518788
0.518788
0.518788
0.518788
0.518788
0.518788
0.518788
0.518788
0.518788
0.518788
0.518788
0.518788
0.518788
0.518788
0.518788
0.518788
0.518788
0.518788
0.518788
0.518788
0.518788
0.518788
0.518788
0.518788
0.518788
0.518788
0.518788
0.518795
0.518748
0.519965
0.460091
0.582252
0.00827485
0.0190782
0.0386908
0.148019
0.00105105
0.741902
0.887534
0.000975885
6.26186e-05
0.564077
0.0146731
0.0215217
4.02809e-07
0.0356734
0.568398
0.000396952
0.0607933
0.146273
0.132518
0.663997
0.68235
0.0197413
0.401821
0.150683
2.53701e-05
0.0186818
0.438288
0.373499
0.555736
0.677263
0.279517
0.000702346
0.000373442
0.137048
0.973012
0.518788
0.518788
0.518788
0.518788
0.518788
0.518788
0.518788
0.518788
0.518788
0.518788
0.518788
0.518788
0.518788
0.518788
0.518788
0.518788
0.518788
0.518788
0.518788
0.518788
0.518788
0.518788
0.518788
0.518788
0.518788
0.518788
0.518788
0.518788
0.518788
0.518788
0.518788
0.518788
0.518788
0.518788
0.518788
0.518788
0.518788
0.518788
0.518788
0.518788
0.518788
0.518788
0.518788
0.518788
0.518788
0.518788
0.518788
0.518788
0.518788
0.518788
0.518788
0.518788
0.518788
0.518788
0.518788
0.518788
0.518783
0.518922
0.517116
0.424554
0.952342
0.63241
0.157154
1.1251e-07
0.000825734
0.711095
0.0692059
0.000222212
0.000950587
0.00784442
4.86168e-05
0.73732
7.73613e-08
0.304467
0.963249
0.651802
0.145795
0.146294
0.782317
0.0543979
0.894629
0.775513
0.938533
0.787937
0.840423
0.691117
0.967629
0.928432
0.982441
0.97986
0.942618
0.923415
0.98246
0.984981
0.994888
0.999969
0.518788
0.518788
0.518788
0.518788
0.518788
0.518788
0.518788
0.518788
0.518788
0.518788
0.518788
0.518788
0.518788
0.518788
0.518788
0.518788
0.518788
0.518788
0.518788
0.518788
0.518788
0.518788
0.518788
0.518788
0.518788
0.518788
0.518788
0.518788
0.518788
0.518788
0.518788
0.518788
0.518788
0.518788
0.518788
0.518788
0.518788
0.518788
0.518788
0.518788
0.518788
0.518788
0.518788
0.518788
0.518788
0.518788
0.518788
0.518788
0.518788
0.518788
0.518788
0.518788
0.518788
0.518788
0.518788
0.518788
0.518786
0.523107
0.368865
0.439534
0.891752
0.997943
0.999514
0.999961
0.999991
0.999837
0.999986
0.999988
0.999992
0.999992
0.999988
0.999976
0.999993
0.999633
0.999993
0.999984
0.999984
0.999956
0.999991
0.999981
0.999986
0.999993
0.999972
0.9995
0.999962
0.996425
0.999043
0.999457
0.999706
0.997357
0.999906
0.999917
0.999919
0.999903
0.999889
0.998956
0.518788
0.518788
0.518788
0.518788
0.518788
0.518788
0.518788
0.518788
0.518788
0.518788
0.518788
0.518788
0.518788
0.518788
0.518788
0.518788
0.518788
0.518788
0.518788
0.518788
0.518788
0.518788
0.518788
0.518788
0.518788
0.518788
0.518788
0.518788
0.518788
0.518788
0.518788
0.518788
0.518788
0.518788
0.518788
0.518788
0.518788
0.518788
0.518788
0.518788
0.518788
0.518788
0.518788
0.518788
0.518788
0.518788
0.518788
0.518788
0.518788
0.518788
0.518788
0.518788
0.518788
0.518788
0.518788
0.518788
0.518786
0.518726
0.523733
0.566268
0.56639
0.999998
0.999784
0.999575
0.99985
0.997784
0.999659
0.999609
0.996142
0.995734
0.999565
0.999342
0.977087
0.982623
0.979978
0.999677
0.999654
0.991169
0.989195
0.999578
0.999458
0.994503
0.995366
0.999187
0.993917
0.987155
0.983113
0.994488
0.996968
0.998314
0.998582
0.999196
0.99933
0.994045
0.996067
0.999867
0.518788
0.518788
0.518788
0.518788
0.518788
0.518788
0.518788
0.518788
0.518788
0.518788
0.518788
0.518788
0.518788
0.518788
0.518788
0.518788
0.518788
0.518788
0.518788
0.518788
0.518788
0.518788
0.518788
0.518788
0.518788
0.518788
0.518788
0.518788
0.518788
0.518788
0.518788
0.518788
0.518788
0.518788
0.518788
0.518788
0.518788
0.518788
0.518788
0.518788
0.518788
0.518788
0.518788
0.518788
0.518788
0.518788
0.518788
0.518788
0.518788
0.518788
0.518788
0.518788
0.518788
0.518788
0.518788
0.518788
0.518785
0.518784
0.518609
0.46135
0.670499
0.999995
0.999373
0.999631
0.99948
0.998536
0.99269
0.997812
0.997289
0.99636
0.961
0.985903
0.997527
0.997647
0.996847
0.994715
0.911312
0.994809
0.996527
0.996789
0.996569
0.993952
0.986768
0.927211
0.967575
0.971372
0.982161
0.975063
0.989888
0.993428
0.888415
0.996576
0.999231
0.999392
0.998074
0.99987
0.518788
0.518788
0.518788
0.518788
0.518788
0.518788
0.518788
0.518788
0.518788
0.518788
0.518788
0.518788
0.518788
0.518788
0.518788
0.518788
0.518788
0.518788
0.518788
0.518788
0.518788
0.518788
0.518788
0.518788
0.518788
0.518788
0.518788
0.518788
0.518788
0.518788
0.518788
0.518788
0.518788
0.518788
0.518788
0.518788
0.518788
0.518788
0.518788
0.518788
0.518788
0.518788
0.518788
0.518788
0.518788
0.518788
0.518788
0.518788
0.518788
0.518788
0.518788
0.518788
0.518788
0.518788
0.518788
0.518788
0.518783
0.518785
0.518671
0.429924
0.747161
0.999941
0.999997
0.999758
0.99943
0.998811
0.998767
0.992565
0.992365
0.994113
0.989301
0.975133
0.986452
0.994159
0.993514
0.991922
0.991438
0.992956
0.992289
0.993311
0.993703
0.992017
0.990037
0.970941
0.987274
0.995577
0.988083
0.928616
0.995795
0.995322
0.982812
0.953694
0.994854
0.999059
0.999422
0.999873
0.518788
0.518788
0.518788
0.518788
0.518788
0.518788
0.518788
0.518788
0.518788
0.518788
0.518788
0.518788
0.518788
0.518788
0.518788
0.518788
0.518788
0.518788
0.518788
0.518788
0.518788
0.518788
0.518788
0.518788
0.518788
0.518788
0.518788
0.518788
0.518788
0.518788
0.518788
0.518788
0.518788
0.518788
0.518788
0.518788
0.518788
0.518788
0.518788
0.518788
0.518788
0.518788
0.518788
0.518788
0.518788
0.518788
0.518788
0.518788
0.518788
0.518788
0.518788
0.518788
0.518788
0.518788
0.518788
0.518789
0.518781
0.518785
0.513661
0.389085
0.840817
0.9972
0.999995
0.999479
0.999675
0.999151
0.997307
0.996642
0.992533
0.992578
0.996981
0.997846
0.99658
0.989604
0.985556
0.992493
0.993603
0.994609
0.994871
0.994205
0.986072
0.978661
0.951098
0.994579
0.994854
0.997603
0.996671
0.993333
0.992888
0.992476
0.992887
0.99322
0.994351
0.998976
0.999443
0.999877
0.518788
0.518788
0.518788
0.518788
0.518788
0.518788
0.518788
0.518788
0.518788
0.518788
0.518788
0.518788
0.518788
0.518788
0.518788
0.518788
0.518788
0.518788
0.518788
0.518788
0.518788
0.518788
0.518788
0.518788
0.518788
0.518788
0.518788
0.518788
0.518788
0.518788
0.518788
0.518788
0.518788
0.518788
0.518788
0.518788
0.518788
0.518788
0.518788
0.518788
0.518788
0.518788
0.518788
0.518788
0.518788
0.518788
0.518788
0.518788
0.518788
0.518788
0.518788
0.518788
0.518788
0.518788
0.518788
0.518789
0.518783
0.518775
0.498911
0.465119
0.748488
0.0114078
0.999985
0.999997
0.997674
0.987064
0.996907
0.998346
0.998209
0.997491
0.996938
0.996478
0.995798
0.993457
0.988836
0.987191
0.984904
0.984961
0.943684
0.95701
0.986343
0.981163
0.990398
0.963381
0.983127
0.996454
0.994563
0.937841
0.994774
0.989052
0.991949
0.996166
0.992788
0.999289
0.999438
0.999874
0.518788
0.518788
0.518788
0.518788
0.518788
0.518788
0.518788
0.518788
0.518788
0.518788
0.518788
0.518788
0.518788
0.518788
0.518788
0.518788
0.518788
0.518788
0.518788
0.518788
0.518788
0.518788
0.518788
0.518788
0.518788
0.518788
0.518788
0.518788
0.518788
0.518788
0.518788
0.518788
0.518788
0.518788
0.518788
0.518788
0.518788
0.518788
0.518788
0.518788
0.518788
0.518788
0.518788
0.518788
0.518788
0.518788
0.518788
0.518788
0.518788
0.518788
0.518788
0.518788
0.518788
0.518788
0.518788
0.518788
0.518787
0.516538
0.457932
0.484237
0.795026
0.990994
0.99999
0.999993
0.998662
0.831244
0.993866
0.992697
0.986015
0.965549
0.959752
0.959414
0.944815
0.912939
0.809015
0.0192799
0.000198252
0.870122
0.915286
0.966948
0.984645
0.986132
0.971727
0.986911
0.98314
0.961804
0.913824
0.993111
0.997784
0.998941
0.999467
0.998518
0.999215
0.998504
0.998617
0.999877
0.518788
0.518788
0.518788
0.518788
0.518788
0.518788
0.518788
0.518788
0.518788
0.518788
0.518788
0.518788
0.518788
0.518788
0.518788
0.518788
0.518788
0.518788
0.518788
0.518788
0.518788
0.518788
0.518788
0.518788
0.518788
0.518788
0.518788
0.518788
0.518788
0.518788
0.518788
0.518788
0.518788
0.518788
0.518788
0.518788
0.518788
0.518788
0.518788
0.518788
0.518788
0.518788
0.518788
0.518788
0.518788
0.518788
0.518788
0.518788
0.518788
0.518788
0.518788
0.518788
0.518788
0.518788
0.518788
0.518788
0.518786
0.518745
0.519502
0.471108
0.830837
0.999338
0.999993
0.999428
0.998556
0.997694
0.994086
0.995796
0.996265
0.996284
0.995941
0.994488
0.990438
0.983984
0.962141
0.956718
0.981999
0.986386
0.983511
0.985891
0.788653
0.989674
0.990715
0.990345
0.98278
0.991613
0.984769
0.992214
0.995995
0.998614
0.999372
0.999227
0.993804
0.999034
0.994699
0.999875
0.518788
0.518788
0.518788
0.518788
0.518788
0.518788
0.518788
0.518788
0.518788
0.518788
0.518788
0.518788
0.518788
0.518788
0.518788
0.518788
0.518788
0.518788
0.518788
0.518788
0.518788
0.518788
0.518788
0.518788
0.518788
0.518788
0.518788
0.518788
0.518788
0.518788
0.518788
0.518788
0.518788
0.518788
0.518788
0.518788
0.518788
0.518788
0.518788
0.518788
0.518788
0.518788
0.518788
0.518788
0.518788
0.518788
0.518788
0.518788
0.518788
0.518788
0.518788
0.518788
0.518788
0.518788
0.518788
0.518788
0.518787
0.518784
0.535437
0.440589
0.621913
0.999996
0.997981
0.997893
0.997406
0.995845
0.967069
0.971639
0.887961
0.872
0.957813
0.974523
0.974751
0.976726
0.97363
0.953279
0.953432
0.970329
0.975676
0.895574
0.95656
0.986304
0.995112
0.995899
0.991618
0.953506
0.872574
0.99518
0.99616
0.997696
0.998895
0.999262
0.997814
0.998764
0.996879
0.999873
0.518788
0.518788
0.518788
0.518788
0.518788
0.518788
0.518788
0.518788
0.518788
0.518788
0.518788
0.518788
0.518788
0.518788
0.518788
0.518788
0.518788
0.518788
0.518788
0.518788
0.518788
0.518788
0.518788
0.518788
0.518788
0.518788
0.518788
0.518788
0.518788
0.518788
0.518788
0.518788
0.518788
0.518788
0.518788
0.518788
0.518788
0.518788
0.518788
0.518788
0.518788
0.518788
0.518788
0.518788
0.518788
0.518788
0.518788
0.518788
0.518788
0.518788
0.518788
0.518788
0.518788
0.518788
0.518788
0.518788
0.518786
0.518777
0.517685
0.497195
0.292317
4.26448e-07
0.998626
0.999994
0.998195
0.999358
0.99837
0.99136
0.998816
0.998659
0.991584
0.991472
0.991178
0.997506
0.991313
0.988655
0.983729
0.935724
0.977465
0.971632
0.993416
0.968004
0.99463
0.994777
0.964215
0.995044
0.995451
0.994513
0.987315
0.990252
0.997
0.998504
0.99774
0.991067
0.998774
0.999875
0.518788
0.518788
0.518788
0.518788
0.518788
0.518788
0.518788
0.518788
0.518788
0.518788
0.518788
0.518788
0.518788
0.518788
0.518788
0.518788
0.518788
0.518788
0.518788
0.518788
0.518788
0.518788
0.518788
0.518788
0.518788
0.518788
0.518788
0.518788
0.518788
0.518788
0.518788
0.518788
0.518788
0.518788
0.518788
0.518788
0.518788
0.518788
0.518788
0.518788
0.518788
0.518788
0.518788
0.518788
0.518788
0.518788
0.518788
0.518788
0.518788
0.518788
0.518788
0.518788
0.518788
0.518788
0.518788
0.518788
0.518789
0.51877
0.518583
0.450729
0.790201
0.0938061
0.0101639
0.826117
0.0452376
0.970307
0.998664
0.999547
0.999864
0.999993
0.999958
0.00306366
1.53846e-08
0.996874
0.99999
0.99964
0.998688
0.99892
0.999066
0.999644
0.99999
0.999171
0.999989
0.999381
0.999606
0.999702
0.999673
0.999539
0.998955
0.945696
0.999061
0.999568
0.996201
0.996391
0.999199
0.999875
0.518788
0.518788
0.518788
0.518788
0.518788
0.518788
0.518788
0.518788
0.518788
0.518788
0.518788
0.518788
0.518788
0.518788
0.518788
0.518788
0.518788
0.518788
0.518788
0.518788
0.518788
0.518788
0.518788
0.518788
0.518788
0.518788
0.518788
0.518788
0.518788
0.518788
0.518788
0.518788
0.518788
0.518788
0.518788
0.518788
0.518788
0.518788
0.518788
0.518788
0.518788
0.518788
0.518788
0.518788
0.518788
0.518788
0.518788
0.518788
0.518788
0.518788
0.518788
0.518788
0.518788
0.518788
0.518787
0.518788
0.518788
0.518788
0.5188
0.426385
1.48503e-07
0.146445
0.146439
0.146394
0.14605
0.852694
0.719949
0.0104559
0.790623
0.0474624
0.0181951
0.142426
0.0935513
0.00057435
1.24028e-07
0.000124867
0.590581
0.298451
0.968611
0.0389895
0.000257935
0.806808
0.978641
0.658793
0.000471623
0.614174
0.957654
0.972398
0.976718
0.994674
0.999743
0.999981
0.999996
0.999859
0.999923
0.999952
0.518788
0.518788
0.518788
0.518788
0.518788
0.518788
0.518788
0.518788
0.518788
0.518788
0.518788
0.518788
0.518788
0.518788
0.518788
0.518788
0.518788
0.518788
0.518788
0.518788
0.518788
0.518788
0.518788
0.518788
0.518788
0.518788
0.518788
0.518788
0.518788
0.518788
0.518788
0.518788
0.518788
0.518788
0.518788
0.518788
0.518788
0.518788
0.518788
0.518788
0.518788
0.518788
0.518788
0.518788
0.518788
0.518788
0.518788
0.518788
0.518788
0.518788
0.518788
0.518788
0.518788
0.518788
0.518788
0.518788
0.518789
0.519162
0.518807
0.417729
0.00561344
0.294334
0.193683
1.1544e-08
0.71618
0.912136
0.184059
0.499779
0.47801
0.678364
0.630651
2.29253e-06
0.42695
0.458425
0.280283
0.609155
0.431737
0.37146
0.352724
0.330565
0.643835
0.114356
0.145699
0.14551
3.57525e-06
0.37312
0.145341
0.13358
0.495008
0.00168148
0.000469456
0.0473272
0.869317
0.994325
0.944794
0.998229
0.518788
0.518788
0.518788
0.518788
0.518788
0.518788
0.518788
0.518788
0.518788
0.518788
0.518788
0.518788
0.518788
0.518788
0.518788
0.518788
0.518788
0.518788
0.518788
0.518788
0.518788
0.518788
0.518788
0.518788
0.518788
0.518788
0.518788
0.518788
0.518788
0.518788
0.518788
0.518788
0.518788
0.518788
0.518788
0.518788
0.518788
0.518788
0.518788
0.518788
0.518788
0.518788
0.518788
0.518788
0.518788
0.518788
0.518788
0.518788
0.518788
0.518788
0.518788
0.518788
0.518788
0.518788
0.518788
0.518787
0.518778
0.518495
0.517347
0.394982
0.847695
0.000455282
0.215076
0.490903
0.616299
0.716162
0.804074
0.0585938
0.593616
0.762802
0.390815
0.63923
0.560141
0.46573
0.475366
0.540986
0.524539
0.503267
0.501471
0.846215
0.500325
0.78081
0.588018
0.611202
0.608839
0.529209
0.734654
0.093532
0.609171
0.400413
0.541791
0.672151
0.791342
0.00112638
0.000932371
0.000134969
0.518788
0.518788
0.518788
0.518788
0.518788
0.518788
0.518788
0.518788
0.518788
0.518788
0.518788
0.518788
0.518788
0.518788
0.518788
0.518788
0.518788
0.518788
0.518788
0.518788
0.518788
0.518788
0.518788
0.518788
0.518788
0.518788
0.518788
0.518788
0.518788
0.518788
0.518788
0.518788
0.518788
0.518788
0.518788
0.518788
0.518788
0.518788
0.518788
0.518788
0.518788
0.518788
0.518788
0.518788
0.518788
0.518788
0.518788
0.518788
0.518788
0.518788
0.518788
0.518788
0.518788
0.518788
0.518788
0.518788
0.518785
0.518795
0.520069
0.437456
0.715717
0.00163978
0.109453
0.754744
0.703877
0.0272046
0.273118
0.541123
0.514508
0.549923
0.163565
0.685321
0.343112
0.606569
0.18652
0.070768
0.550083
0.00124479
0.132835
0.554232
0.521498
0.465786
0.622617
0.832791
0.224489
0.0639026
0.000249478
0.191965
0.753455
0.362649
0.303317
0.546014
0.411648
0.409108
0.000147268
0.00558033
0.518788
0.518788
0.518788
0.518788
0.518788
0.518788
0.518788
0.518788
0.518788
0.518788
0.518788
0.518788
0.518788
0.518788
0.518788
0.518788
0.518788
0.518788
0.518788
0.518788
0.518788
0.518788
0.518788
0.518788
0.518788
0.518788
0.518788
0.518788
0.518788
0.518788
0.518788
0.518788
0.518788
0.518788
0.518788
0.518788
0.518788
0.518788
0.518788
0.518788
0.518788
0.518788
0.518788
0.518788
0.518788
0.518788
0.518788
0.518788
0.518788
0.518788
0.518788
0.518788
0.518788
0.518788
0.518788
0.518788
0.518787
0.518778
0.518778
0.440926
0.958143
0.929974
0.980874
0.981357
0.992254
0.814874
0.264302
0.969834
0.74687
0.96994
0.968721
0.971413
0.943734
0.95115
0.950077
0.962217
0.00022724
0.061024
2.62153e-08
0.146447
0.799652
0.893712
0.905565
0.451382
0.935801
0.913214
2.96914e-09
1.03404e-05
0.0369112
0.82151
0.945839
0.902361
0.286457
0.959681
0.97365
0.999902
0.518788
0.518788
0.518788
0.518788
0.518788
0.518788
0.518788
0.518788
0.518788
0.518788
0.518788
0.518788
0.518788
0.518788
0.518788
0.518788
0.518788
0.518788
0.518788
0.518788
0.518788
0.518788
0.518788
0.518788
0.518788
0.518788
0.518788
0.518788
0.518788
0.518788
0.518788
0.518788
0.518788
0.518788
0.518788
0.518788
0.518788
0.518788
0.518788
0.518788
0.518788
0.518788
0.518788
0.518788
0.518788
0.518788
0.518788
0.518788
0.518788
0.518788
0.518788
0.518788
0.518788
0.518788
0.518788
0.518788
0.518785
0.518768
0.537953
0.401936
0.579565
0.999981
0.999608
0.999965
0.994304
0.999991
0.999469
0.999585
0.999397
0.999295
0.999741
0.999733
0.999496
0.999382
0.999241
0.999443
0.998932
0.967863
0.996951
0.152868
0.997114
0.998524
0.999316
0.999691
0.999599
0.999446
0.998986
0.998255
0.999606
0.999778
0.999739
0.996627
0.999576
0.999614
0.999857
0.999857
0.518788
0.518788
0.518788
0.518788
0.518788
0.518788
0.518788
0.518788
0.518788
0.518788
0.518788
0.518788
0.518788
0.518788
0.518788
0.518788
0.518788
0.518788
0.518788
0.518788
0.518788
0.518788
0.518788
0.518788
0.518788
0.518788
0.518788
0.518788
0.518788
0.518788
0.518788
0.518788
0.518788
0.518788
0.518788
0.518788
0.518788
0.518788
0.518788
0.518788
0.518788
0.518788
0.518788
0.518788
0.518788
0.518788
0.518788
0.518788
0.518788
0.518788
0.518788
0.518788
0.518788
0.518788
0.518788
0.518788
0.518786
0.518788
0.517197
0.477827
0.289145
4.80761e-08
0.999525
0.996491
0.995459
0.986187
0.998219
0.996498
0.997704
0.997049
0.76601
0.957042
0.994873
0.983868
0.994002
0.996687
0.997106
0.997661
0.997789
0.997542
0.997246
0.997541
0.997129
0.992014
0.985301
0.993164
0.990307
0.990382
0.985175
0.996805
0.998719
0.999053
0.999319
0.999509
0.999422
0.999865
0.518788
0.518788
0.518788
0.518788
0.518788
0.518788
0.518788
0.518788
0.518788
0.518788
0.518788
0.518788
0.518788
0.518788
0.518788
0.518788
0.518788
0.518788
0.518788
0.518788
0.518788
0.518788
0.518788
0.518788
0.518788
0.518788
0.518788
0.518788
0.518788
0.518788
0.518788
0.518788
0.518788
0.518788
0.518788
0.518788
0.518788
0.518788
0.518788
0.518788
0.518788
0.518788
0.518788
0.518788
0.518788
0.518788
0.518788
0.518788
0.518788
0.518788
0.518788
0.518788
0.518788
0.518788
0.518788
0.518788
0.518785
0.518794
0.518732
0.424964
0.72164
0.996852
0.999415
0.998892
0.998465
0.998626
0.996421
0.996916
0.997736
0.998429
0.998662
0.998609
0.998292
0.997371
0.995326
0.991448
0.987682
0.986283
0.970437
0.960884
0.983832
0.984533
0.961669
0.989981
0.996694
0.997435
0.995834
0.992741
0.991923
0.980197
0.991203
0.997792
0.999083
0.999397
0.999584
0.999877
0.518788
0.518788
0.518788
0.518788
0.518788
0.518788
0.518788
0.518788
0.518788
0.518788
0.518788
0.518788
0.518788
0.518788
0.518788
0.518788
0.518788
0.518788
0.518788
0.518788
0.518788
0.518788
0.518788
0.518788
0.518788
0.518788
0.518788
0.518788
0.518788
0.518788
0.518788
0.518788
0.518788
0.518788
0.518788
0.518788
0.518788
0.518788
0.518788
0.518788
0.518788
0.518788
0.518788
0.518788
0.518788
0.518788
0.518788
0.518788
0.518788
0.518788
0.518788
0.518788
0.518788
0.518788
0.518788
0.518788
0.518783
0.518901
0.516618
0.472152
0.414156
0.999926
0.999392
0.999808
0.999171
0.996666
0.996574
0.988607
0.989729
0.993763
0.99356
0.994536
0.996941
0.997398
0.997431
0.997692
0.997937
0.997938
0.997687
0.997434
0.996826
0.996712
0.996405
0.990491
0.992192
0.995469
0.984378
0.868624
0.980729
0.977927
0.99123
0.996566
0.998652
0.999447
0.999523
0.999879
0.518788
0.518788
0.518788
0.518788
0.518788
0.518788
0.518788
0.518788
0.518788
0.518788
0.518788
0.518788
0.518788
0.518788
0.518788
0.518788
0.518788
0.518788
0.518788
0.518788
0.518788
0.518788
0.518788
0.518788
0.518788
0.518788
0.518788
0.518788
0.518788
0.518788
0.518788
0.518788
0.518788
0.518788
0.518788
0.518788
0.518788
0.518788
0.518788
0.518788
0.518788
0.518788
0.518788
0.518788
0.518788
0.518788
0.518788
0.518788
0.518788
0.518788
0.518788
0.518788
0.518788
0.518788
0.518788
0.518788
0.518783
0.517748
0.473376
0.65323
0.383022
0.994138
0.999989
0.999668
0.999655
0.999514
0.998952
0.998662
0.998707
0.998003
0.988572
0.988237
0.950691
0.986705
0.98859
0.985624
0.907479
0.990235
0.995943
0.995454
0.995186
0.989934
0.994441
0.9961
0.997269
0.997488
0.996632
0.99652
0.988822
0.981964
0.97315
0.995379
0.997961
0.999352
0.999462
0.999879
0.518788
0.518788
0.518788
0.518788
0.518788
0.518788
0.518788
0.518788
0.518788
0.518788
0.518788
0.518788
0.518788
0.518788
0.518788
0.518788
0.518788
0.518788
0.518788
0.518788
0.518788
0.518788
0.518788
0.518788
0.518788
0.518788
0.518788
0.518788
0.518788
0.518788
0.518788
0.518788
0.518788
0.518788
0.518788
0.518788
0.518788
0.518788
0.518788
0.518788
0.518788
0.518788
0.518788
0.518788
0.518788
0.518788
0.518788
0.518788
0.518788
0.518788
0.518788
0.518788
0.518788
0.518788
0.518788
0.518788
0.518784
0.518575
0.50917
0.399171
0.766494
0.429486
0.999974
0.999997
0.996577
0.99723
0.998477
0.997972
0.996862
0.996569
0.995629
0.994057
0.989356
0.986871
0.983276
0.983664
0.961738
0.980909
0.123213
0.9657
0.961108
0.994263
0.990225
0.988103
0.977652
0.992437
0.892633
0.590888
0.996117
0.991459
0.97893
0.993717
0.998109
0.999228
0.999311
0.999868
0.518788
0.518788
0.518788
0.518788
0.518788
0.518788
0.518788
0.518788
0.518788
0.518788
0.518788
0.518788
0.518788
0.518788
0.518788
0.518788
0.518788
0.518788
0.518788
0.518788
0.518788
0.518788
0.518788
0.518788
0.518788
0.518788
0.518788
0.518788
0.518788
0.518788
0.518788
0.518788
0.518788
0.518788
0.518788
0.518788
0.518788
0.518788
0.518788
0.518788
0.518788
0.518788
0.518788
0.518788
0.518788
0.518788
0.518788
0.518788
0.518788
0.518788
0.518788
0.518788
0.518788
0.518788
0.518788
0.518788
0.518785
0.518779
0.518899
0.369554
0.813451
0.992902
0.999986
0.999993
0.998231
0.996059
0.962048
0.963372
0.990035
0.991837
0.99014
0.988651
0.987252
0.983868
0.984621
0.984801
0.984637
0.983074
0.98453
0.985472
0.986444
0.984355
0.894574
0.988147
0.987752
0.988913
0.990998
0.992868
0.99392
0.996983
0.998528
0.998813
0.997837
0.994021
0.995846
0.999863
0.518788
0.518788
0.518788
0.518788
0.518788
0.518788
0.518788
0.518788
0.518788
0.518788
0.518788
0.518788
0.518788
0.518788
0.518788
0.518788
0.518788
0.518788
0.518788
0.518788
0.518788
0.518788
0.518788
0.518788
0.518788
0.518788
0.518788
0.518788
0.518788
0.518788
0.518788
0.518788
0.518788
0.518788
0.518788
0.518788
0.518788
0.518788
0.518788
0.518788
0.518788
0.518788
0.518788
0.518788
0.518788
0.518788
0.518788
0.518788
0.518788
0.518788
0.518788
0.518788
0.518788
0.518788
0.518788
0.518788
0.518786
0.518786