/*--------------------------------*- C++ -*----------------------------------*\
| =========                 |                                                 |
| \\      /  F ield         | OpenFOAM: The Open Source CFD Toolbox           |
|  \\    /   O peration     | Version:  2.3.0                                 |
|   \\  /    A nd           | Web:      www.OpenFOAM.org                      |
|    \\/     M anipulation  |                                                 |
\*---------------------------------------------------------------------------*/
FoamFile
{
    version     2.0;
    format      ascii;
    class       volScalarField;
    location    "15";
    object      w3;
}
// * * * * * * * * * * * * * * * * * * * * * * * * * * * * * * * * * * * * * //

dimensions      [0 0 0 0 0 0 0];

internalField   nonuniform List<scalar> 
6144
(
0.0283736
0.0283736
0.0283736
0.0283736
0.0283736
0.0283736
0.0283736
0.0283736
0.0283736
0.0283736
0.0283736
0.0283736
0.0283736
0.0283736
0.0283736
0.0283736
0.0283736
0.0283736
0.0283736
0.0283736
0.0283736
0.0283736
0.0283736
0.0283736
0.0283736
0.0283736
0.0283736
0.0283736
0.0283736
0.0283736
0.0283736
0.0283736
0.0283736
0.0283736
0.0283736
0.0283736
0.0283736
0.0283736
0.0283736
0.0283736
0.0283736
0.0283736
0.0283736
0.0283736
0.0283736
0.0283736
0.0283736
0.0283736
0.0283736
0.0283736
0.0283736
0.0283736
0.0283736
0.0283736
0.0283736
0.0283736
0.028374
0.0284121
0.0338579
0.0289135
0.0134788
0.000102391
5.48632e-07
0.00484723
9.69205e-05
0.0064167
0.0010153
0.00219895
0.000647134
0.000612697
0.000749167
0.00103215
0.00138086
0.00229601
0.00129934
0.000994457
0.000998063
0.00132933
0.000941834
0.00183925
0.00336106
0.00113446
0.00149449
0.000956728
0.000979553
0.0481815
0.0253266
0.000107229
2.61295e-05
1.75518e-05
0.000119848
7.30962e-05
0.000112342
0.000895615
0.00144953
9.81376e-06
0.0283736
0.0283736
0.0283736
0.0283736
0.0283736
0.0283736
0.0283736
0.0283736
0.0283736
0.0283736
0.0283736
0.0283736
0.0283736
0.0283736
0.0283736
0.0283736
0.0283736
0.0283736
0.0283736
0.0283736
0.0283736
0.0283736
0.0283736
0.0283736
0.0283736
0.0283736
0.0283736
0.0283736
0.0283736
0.0283736
0.0283736
0.0283736
0.0283736
0.0283736
0.0283736
0.0283736
0.0283736
0.0283736
0.0283736
0.0283736
0.0283736
0.0283736
0.0283736
0.0283736
0.0283736
0.0283736
0.0283736
0.0283736
0.0283736
0.0283736
0.0283736
0.0283736
0.0283736
0.0283736
0.0283736
0.0283736
0.0283746
0.0285117
0.0339642
0.0303732
0.00392561
8.64623e-06
4.4166e-07
5.00371e-05
7.11734e-05
0.000585338
0.000884023
0.00463013
0.000867803
0.000769684
0.000921917
0.001953
0.00803125
0.861831
0.0469187
0.0284842
0.00377185
0.00112196
0.00145557
0.000764875
0.0106232
0.000574688
0.000505501
0.00126722
0.0010369
0.0593601
0.00162805
6.77706e-05
2.48968e-05
2.82751e-05
7.21664e-05
7.69641e-05
0.000136053
0.00131604
0.000472595
9.65085e-06
0.0283736
0.0283736
0.0283736
0.0283736
0.0283736
0.0283736
0.0283736
0.0283736
0.0283736
0.0283736
0.0283736
0.0283736
0.0283736
0.0283736
0.0283736
0.0283736
0.0283736
0.0283736
0.0283736
0.0283736
0.0283736
0.0283736
0.0283736
0.0283736
0.0283736
0.0283736
0.0283736
0.0283736
0.0283736
0.0283736
0.0283736
0.0283736
0.0283736
0.0283736
0.0283736
0.0283736
0.0283736
0.0283736
0.0283736
0.0283736
0.0283736
0.0283736
0.0283736
0.0283736
0.0283736
0.0283736
0.0283736
0.0283736
0.0283736
0.0283736
0.0283736
0.0283736
0.0283736
0.0283736
0.0283736
0.0283736
0.0283737
0.0283689
0.0295655
0.0232649
0.0821075
8.79934e-08
5.17831e-05
7.58946e-05
6.99056e-05
0.000197473
0.00017816
0.000316564
0.00041136
0.000495501
0.000544854
0.000641069
0.000694381
0.000756622
0.000627968
0.000566719
0.0006743
0.000727717
0.000692833
0.00127027
0.00176993
0.00215302
0.000402044
0.000511831
0.000470284
0.00208687
8.22471e-05
3.30032e-05
2.64026e-05
0.000109917
0.000100507
8.04163e-05
0.00015706
0.000234315
0.000388283
9.78079e-06
0.0283736
0.0283736
0.0283736
0.0283736
0.0283736
0.0283736
0.0283736
0.0283736
0.0283736
0.0283736
0.0283736
0.0283736
0.0283736
0.0283736
0.0283736
0.0283736
0.0283736
0.0283736
0.0283736
0.0283736
0.0283736
0.0283736
0.0283736
0.0283736
0.0283736
0.0283736
0.0283736
0.0283736
0.0283736
0.0283736
0.0283736
0.0283736
0.0283736
0.0283736
0.0283736
0.0283736
0.0283736
0.0283736
0.0283736
0.0283736
0.0283736
0.0283736
0.0283736
0.0283736
0.0283736
0.0283736
0.0283736
0.0283736
0.0283736
0.0283736
0.0283736
0.0283736
0.0283736
0.0283736
0.0283736
0.0283736
0.0283737
0.0284022
0.0342994
0.0304939
0.0856064
1.81825e-06
1.29086e-05
0.000129159
2.50495e-05
0.000144749
0.000145987
0.000365911
0.000656382
0.000633227
0.000926339
0.00122575
0.00156389
0.00146711
0.00122381
0.00165787
0.000967769
0.00104629
0.00117772
0.00052282
0.043477
0.000370072
0.000354396
0.00528343
0.00021599
9.03852e-05
5.42073e-05
4.91117e-05
7.82312e-05
0.000539808
0.000231954
0.000152049
0.00014598
0.000233041
0.00017763
9.32813e-06
0.0283736
0.0283736
0.0283736
0.0283736
0.0283736
0.0283736
0.0283736
0.0283736
0.0283736
0.0283736
0.0283736
0.0283736
0.0283736
0.0283736
0.0283736
0.0283736
0.0283736
0.0283736
0.0283736
0.0283736
0.0283736
0.0283736
0.0283736
0.0283736
0.0283736
0.0283736
0.0283736
0.0283736
0.0283736
0.0283736
0.0283736
0.0283736
0.0283736
0.0283736
0.0283736
0.0283736
0.0283736
0.0283736
0.0283736
0.0283736
0.0283736
0.0283736
0.0283736
0.0283736
0.0283736
0.0283736
0.0283736
0.0283736
0.0283736
0.0283736
0.0283736
0.0283736
0.0283736
0.0283736
0.0283736
0.0283736
0.0283736
0.0283738
0.0284556
0.030174
0.000692735
9.56301e-05
1.84864e-05
3.03524e-06
2.6934e-06
3.42634e-07
3.34312e-05
2.60123e-05
4.58144e-05
4.96411e-05
6.581e-05
7.26859e-05
7.45373e-05
7.09782e-05
7.16011e-05
6.06411e-05
6.29312e-05
5.33613e-05
4.88526e-05
0.00038497
0.000234244
3.96809e-05
0.000158102
0.000112105
0.000100454
0.000690493
0.000163727
0.000207898
0.000268168
0.000597699
0.00218412
0.000457321
0.000294063
0.000421936
0.00013862
9.46484e-06
0.0283736
0.0283736
0.0283736
0.0283736
0.0283736
0.0283736
0.0283736
0.0283736
0.0283736
0.0283736
0.0283736
0.0283736
0.0283736
0.0283736
0.0283736
0.0283736
0.0283736
0.0283736
0.0283736
0.0283736
0.0283736
0.0283736
0.0283736
0.0283736
0.0283736
0.0283736
0.0283736
0.0283736
0.0283736
0.0283736
0.0283736
0.0283736
0.0283736
0.0283736
0.0283736
0.0283736
0.0283736
0.0283736
0.0283736
0.0283736
0.0283736
0.0283736
0.0283736
0.0283736
0.0283736
0.0283736
0.0283736
0.0283736
0.0283736
0.0283736
0.0283736
0.0283736
0.0283736
0.0283736
0.0283736
0.0283736
0.0283736
0.0283736
0.0283755
0.0329313
0.0056104
0.00500621
4.02123e-05
0.000485979
0.277786
0.487087
0.0499375
0.0881275
0.0174069
0.186415
0.00212859
3.85921e-07
0.000460352
0.000298422
9.01223e-06
1.94996e-05
7.0519e-05
5.31006e-06
7.41729e-06
6.39091e-07
6.44075e-05
2.70927e-05
5.63815e-06
8.63949e-06
5.67045e-07
9.94447e-07
4.43805e-07
3.94526e-07
3.73239e-05
0.000105773
5.24326e-06
1.03117e-05
4.23471e-05
0.00012455
8.14238e-05
3.97558e-06
0.0283736
0.0283736
0.0283736
0.0283736
0.0283736
0.0283736
0.0283736
0.0283736
0.0283736
0.0283736
0.0283736
0.0283736
0.0283736
0.0283736
0.0283736
0.0283736
0.0283736
0.0283736
0.0283736
0.0283736
0.0283736
0.0283736
0.0283736
0.0283736
0.0283736
0.0283736
0.0283736
0.0283736
0.0283736
0.0283736
0.0283736
0.0283736
0.0283736
0.0283736
0.0283736
0.0283736
0.0283736
0.0283736
0.0283736
0.0283736
0.0283736
0.0283736
0.0283736
0.0283736
0.0283736
0.0283736
0.0283736
0.0283736
0.0283736
0.0283736
0.0283736
0.0283736
0.0283736
0.0283736
0.0283736
0.0283736
0.028363
0.0287795
0.0269227
0.0399859
0.00850939
0.641919
0.873593
2.07364e-05
0.278318
0.282028
0.853897
0.0582955
0.0211091
0.000729558
0.776575
0.853647
5.40564e-05
0.0684607
0.0324774
0.0535312
0.0109042
0.210733
0.853687
0.030127
0.0601842
0.0128306
0.0346633
0.0231341
0.0138143
1.24699e-05
0.0162657
0.00275846
0.604667
0.84512
8.13886e-05
4.89934e-05
4.17311e-12
2.24032e-14
2.31246e-10
6.26528e-06
0.0283736
0.0283736
0.0283736
0.0283736
0.0283736
0.0283736
0.0283736
0.0283736
0.0283736
0.0283736
0.0283736
0.0283736
0.0283736
0.0283736
0.0283736
0.0283736
0.0283736
0.0283736
0.0283736
0.0283736
0.0283736
0.0283736
0.0283736
0.0283736
0.0283736
0.0283736
0.0283736
0.0283736
0.0283736
0.0283736
0.0283736
0.0283736
0.0283736
0.0283736
0.0283736
0.0283736
0.0283736
0.0283736
0.0283736
0.0283736
0.0283736
0.0283736
0.0283736
0.0283736
0.0283736
0.0283736
0.0283736
0.0283736
0.0283736
0.0283736
0.0283736
0.0283736
0.0283736
0.0283736
0.0283736
0.0283736
0.0283737
0.0282634
0.0299026
0.032371
0.0262243
4.53665e-07
0.0216458
0.216163
0.000387539
0.0311915
0.142819
0.00835529
0.0767344
0.0221457
0.074453
0.0340061
0.0355794
0.00548012
0.088431
0.00272025
0.0217014
0.081876
0.0470899
0.0132894
0.0313326
0.033547
0.0283565
0.0298355
0.023989
0.027272
0.019512
0.00122488
0.0840991
0.00352957
0.0546157
0.0603913
0.0277028
0.00667221
0.369438
0.0161001
0.0283736
0.0283736
0.0283736
0.0283736
0.0283736
0.0283736
0.0283736
0.0283736
0.0283736
0.0283736
0.0283736
0.0283736
0.0283736
0.0283736
0.0283736
0.0283736
0.0283736
0.0283736
0.0283736
0.0283736
0.0283736
0.0283736
0.0283736
0.0283736
0.0283736
0.0283736
0.0283736
0.0283736
0.0283736
0.0283736
0.0283736
0.0283736
0.0283736
0.0283736
0.0283736
0.0283736
0.0283736
0.0283736
0.0283736
0.0283736
0.0283736
0.0283736
0.0283736
0.0283736
0.0283736
0.0283736
0.0283736
0.0283736
0.0283736
0.0283736
0.0283736
0.0283736
0.0283736
0.0283736
0.0283736
0.0283736
0.028373
0.0283723
0.0283277
0.0356003
0.0167719
0.201807
0.0124698
0.0005564
0.0343957
0.0120783
0.0165891
0.000215993
0.043114
0.0128777
7.9385e-05
0.0743356
0.0065878
0.370092
0.155671
0.000582039
0.675537
0.85525
0.853689
0.862945
0.0186283
0.0105323
0.0941243
0.023885
0.0808572
0.000184506
0.0832969
0.0386165
0.0440617
0.0141734
0.00280539
0.0980775
0.00609988
0.335587
0.00941985
0.00090765
0.0283736
0.0283736
0.0283736
0.0283736
0.0283736
0.0283736
0.0283736
0.0283736
0.0283736
0.0283736
0.0283736
0.0283736
0.0283736
0.0283736
0.0283736
0.0283736
0.0283736
0.0283736
0.0283736
0.0283736
0.0283736
0.0283736
0.0283736
0.0283736
0.0283736
0.0283736
0.0283736
0.0283736
0.0283736
0.0283736
0.0283736
0.0283736
0.0283736
0.0283736
0.0283736
0.0283736
0.0283736
0.0283736
0.0283736
0.0283736
0.0283736
0.0283736
0.0283736
0.0283736
0.0283736
0.0283736
0.0283736
0.0283736
0.0283736
0.0283736
0.0283736
0.0283736
0.0283736
0.0283736
0.0283736
0.0283735
0.0283742
0.0283543
0.0285896
0.040964
0.000336321
0.0173331
0.0197692
0.0759451
0.13005
0.00901825
0.0570087
0.134284
0.0313864
7.06947e-06
0.0428531
0.0183429
0.0167255
0.0612639
0.00251452
0.0233799
0.853657
0.853525
0.00203473
0.278904
0.00614418
0.0177592
0.00801553
0.000190902
0.0113393
0.0163464
0.00242163
0.00579143
0.00120106
0.00242957
0.00289797
0.00463565
0.000199579
0.00087767
0.000512289
2.20925e-06
0.0283736
0.0283736
0.0283736
0.0283736
0.0283736
0.0283736
0.0283736
0.0283736
0.0283736
0.0283736
0.0283736
0.0283736
0.0283736
0.0283736
0.0283736
0.0283736
0.0283736
0.0283736
0.0283736
0.0283736
0.0283736
0.0283736
0.0283736
0.0283736
0.0283736
0.0283736
0.0283736
0.0283736
0.0283736
0.0283736
0.0283736
0.0283736
0.0283736
0.0283736
0.0283736
0.0283736
0.0283736
0.0283736
0.0283736
0.0283736
0.0283736
0.0283736
0.0283736
0.0283736
0.0283736
0.0283736
0.0283736
0.0283736
0.0283736
0.0283736
0.0283736
0.0283736
0.0283736
0.0283736
0.0283736
0.0283735
0.0283737
0.0278142
0.046046
0.037738
0.00739795
0.000180645
3.10944e-05
2.67135e-06
3.3215e-07
1.13948e-05
9.7462e-07
7.6401e-07
7.83277e-07
5.6966e-07
8.01006e-07
1.6193e-06
5.17029e-07
2.53482e-05
4.78266e-07
1.12727e-06
1.08727e-06
2.00808e-06
6.01421e-07
1.30512e-06
1.04256e-06
3.7805e-07
1.70208e-06
3.53825e-05
3.20504e-06
0.000254442
6.60909e-05
4.19553e-05
2.05417e-05
0.000182674
6.45632e-06
5.74305e-06
5.61134e-06
6.66991e-06
7.67128e-06
7.20887e-05
0.0283736
0.0283736
0.0283736
0.0283736
0.0283736
0.0283736
0.0283736
0.0283736
0.0283736
0.0283736
0.0283736
0.0283736
0.0283736
0.0283736
0.0283736
0.0283736
0.0283736
0.0283736
0.0283736
0.0283736
0.0283736
0.0283736
0.0283736
0.0283736
0.0283736
0.0283736
0.0283736
0.0283736
0.0283736
0.0283736
0.0283736
0.0283736
0.0283736
0.0283736
0.0283736
0.0283736
0.0283736
0.0283736
0.0283736
0.0283736
0.0283736
0.0283736
0.0283736
0.0283736
0.0283736
0.0283736
0.0283736
0.0283736
0.0283736
0.0283736
0.0283736
0.0283736
0.0283736
0.0283736
0.0283736
0.0283735
0.0283737
0.0283787
0.0277262
0.018058
0.0318795
1.51558e-09
1.49401e-05
2.93569e-05
1.03506e-05
0.000153249
2.35769e-05
2.71274e-05
0.000265432
0.000294427
2.81293e-05
4.54564e-05
0.00157176
0.00119487
0.00138474
2.22915e-05
2.391e-05
0.000611069
0.000744225
2.91354e-05
3.74547e-05
0.000379695
0.000320622
5.57441e-05
0.00042211
0.00088765
0.00116601
0.000380669
0.000209419
0.000116501
9.7974e-05
5.55282e-05
4.63587e-05
0.000410275
0.000271744
9.16928e-06
0.0283736
0.0283736
0.0283736
0.0283736
0.0283736
0.0283736
0.0283736
0.0283736
0.0283736
0.0283736
0.0283736
0.0283736
0.0283736
0.0283736
0.0283736
0.0283736
0.0283736
0.0283736
0.0283736
0.0283736
0.0283736
0.0283736
0.0283736
0.0283736
0.0283736
0.0283736
0.0283736
0.0283736
0.0283736
0.0283736
0.0283736
0.0283736
0.0283736
0.0283736
0.0283736
0.0283736
0.0283736
0.0283736
0.0283736
0.0283736
0.0283736
0.0283736
0.0283736
0.0283736
0.0283736
0.0283736
0.0283736
0.0283736
0.0283736
0.0283736
0.0283736
0.0283736
0.0283736
0.0283735
0.0283736
0.0283736
0.0283739
0.028374
0.028396
0.035988
0.00293792
3.11698e-07
4.33425e-05
2.54653e-05
3.59245e-05
0.000101117
0.00050392
0.000151099
0.000187024
0.000251256
0.002917
0.000903939
0.000172268
0.00016264
0.000217704
0.000316625
0.00606971
0.000411126
0.00024045
0.000221629
0.000237028
0.000417395
0.000972805
0.00480653
0.00224549
0.00196636
0.00122476
0.0017215
0.00070134
0.000421014
0.00764305
0.000248853
5.31715e-05
4.19994e-05
0.000133006
8.97352e-06
0.0283736
0.0283736
0.0283736
0.0283736
0.0283736
0.0283736
0.0283736
0.0283736
0.0283736
0.0283736
0.0283736
0.0283736
0.0283736
0.0283736
0.0283736
0.0283736
0.0283736
0.0283736
0.0283736
0.0283736
0.0283736
0.0283736
0.0283736
0.0283736
0.0283736
0.0283736
0.0283736
0.0283736
0.0283736
0.0283736
0.0283736
0.0283736
0.0283736
0.0283736
0.0283736
0.0283736
0.0283736
0.0283736
0.0283736
0.0283736
0.0283736
0.0283736
0.0283736
0.0283736
0.0283736
0.0283736
0.0283736
0.0283736
0.0283736
0.0283736
0.0283736
0.0283736
0.0283736
0.0283736
0.0283736
0.0283736
0.028374
0.0283739
0.0283936
0.0368415
0.0176211
4.09936e-06
2.28528e-07
1.66881e-05
3.93559e-05
8.20795e-05
8.60066e-05
0.000508526
0.000529466
0.000405849
0.000713537
0.001717
0.000929578
0.000401265
0.000445793
0.000555914
0.000591972
0.000486075
0.000532747
0.000462545
0.000431007
0.000555091
0.000683136
0.00193141
0.000895574
0.000306675
0.000821346
0.00491711
0.000290183
0.000333104
0.00115047
0.00336905
0.000339719
6.49041e-05
3.99321e-05
8.77714e-06
0.0283736
0.0283736
0.0283736
0.0283736
0.0283736
0.0283736
0.0283736
0.0283736
0.0283736
0.0283736
0.0283736
0.0283736
0.0283736
0.0283736
0.0283736
0.0283736
0.0283736
0.0283736
0.0283736
0.0283736
0.0283736
0.0283736
0.0283736
0.0283736
0.0283736
0.0283736
0.0283736
0.0283736
0.0283736
0.0283736
0.0283736
0.0283736
0.0283736
0.0283736
0.0283736
0.0283736
0.0283736
0.0283736
0.0283736
0.0283736
0.0283736
0.0283736
0.0283736
0.0283736
0.0283736
0.0283736
0.0283736
0.0283736
0.0283736
0.0283736
0.0283736
0.0283736
0.0283736
0.0283736
0.0283736
0.0283735
0.0283742
0.0283738
0.028821
0.0381705
0.0213903
6.18267e-05
3.24291e-07
3.5956e-05
2.24764e-05
5.92499e-05
0.000184223
0.00022901
0.000522617
0.000508441
0.000210497
0.000148652
0.000236238
0.000723739
0.00100283
0.000520369
0.000441367
0.000372883
0.00035508
0.000400513
0.000963745
0.0015131
0.00349659
0.000352674
0.000355371
0.000165784
0.000230111
0.000458097
0.000492728
0.000519647
0.000490891
0.000466298
0.000390615
7.07222e-05
3.84903e-05
8.48594e-06
0.0283736
0.0283736
0.0283736
0.0283736
0.0283736
0.0283736
0.0283736
0.0283736
0.0283736
0.0283736
0.0283736
0.0283736
0.0283736
0.0283736
0.0283736
0.0283736
0.0283736
0.0283736
0.0283736
0.0283736
0.0283736
0.0283736
0.0283736
0.0283736
0.0283736
0.0283736
0.0283736
0.0283736
0.0283736
0.0283736
0.0283736
0.0283736
0.0283736
0.0283736
0.0283736
0.0283736
0.0283736
0.0283736
0.0283736
0.0283736
0.0283736
0.0283736
0.0283736
0.0283736
0.0283736
0.0283736
0.0283736
0.0283736
0.0283736
0.0283736
0.0283736
0.0283736
0.0283736
0.0283736
0.0283736
0.0283735
0.0283741
0.0283756
0.0311456
0.0325139
0.0165375
0.00539576
1.0886e-06
2.27063e-07
0.000165738
0.000860434
0.000213866
0.00011414
0.000123457
0.000174043
0.000211909
0.000243158
0.000289388
0.000456255
0.000762791
0.000882246
0.00104266
0.00103686
0.00385122
0.0029755
0.0009377
0.00129624
0.000667167
0.00249396
0.00121564
0.000238434
0.000393566
0.0046664
0.00030684
0.000763307
0.000555993
0.000265796
0.00049551
4.90926e-05
3.88266e-05
8.67794e-06
0.0283736
0.0283736
0.0283736
0.0283736
0.0283736
0.0283736
0.0283736
0.0283736
0.0283736
0.0283736
0.0283736
0.0283736
0.0283736
0.0283736
0.0283736
0.0283736
0.0283736
0.0283736
0.0283736
0.0283736
0.0283736
0.0283736
0.0283736
0.0283736
0.0283736
0.0283736
0.0283736
0.0283736
0.0283736
0.0283736
0.0283736
0.0283736
0.0283736
0.0283736
0.0283736
0.0283736
0.0283736
0.0283736
0.0283736
0.0283736
0.0283736
0.0283736
0.0283736
0.0283736
0.0283736
0.0283736
0.0283736
0.0283736
0.0283736
0.0283736
0.0283736
0.0283736
0.0283736
0.0283736
0.0283736
0.0283736
0.0283736
0.0287146
0.0387692
0.0273015
0.0148904
0.000621971
7.40025e-07
5.19581e-07
5.98568e-05
0.0149363
0.000432702
0.000478794
0.000944093
0.00243899
0.00282616
0.00291912
0.00370827
0.00602946
0.0154754
0.0632911
0.142986
0.00366759
0.00828198
0.00215184
0.00101698
0.000941764
0.00201055
0.000894318
0.00113784
0.00313555
0.00520957
0.000396209
0.000153009
7.3137e-05
3.68326e-05
0.000102343
5.41854e-05
0.000103427
9.54422e-05
8.49183e-06
0.0283736
0.0283736
0.0283736
0.0283736
0.0283736
0.0283736
0.0283736
0.0283736
0.0283736
0.0283736
0.0283736
0.0283736
0.0283736
0.0283736
0.0283736
0.0283736
0.0283736
0.0283736
0.0283736
0.0283736
0.0283736
0.0283736
0.0283736
0.0283736
0.0283736
0.0283736
0.0283736
0.0283736
0.0283736
0.0283736
0.0283736
0.0283736
0.0283736
0.0283736
0.0283736
0.0283736
0.0283736
0.0283736
0.0283736
0.0283736
0.0283736
0.0283736
0.0283736
0.0283736
0.0283736
0.0283736
0.0283736
0.0283736
0.0283736
0.0283736
0.0283736
0.0283736
0.0283736
0.0283736
0.0283736
0.0283736
0.0283738
0.0283798
0.0282778
0.0327501
0.0107122
4.59962e-05
5.021e-07
3.95573e-05
9.97952e-05
0.000159576
0.000404908
0.000287122
0.000256418
0.000257072
0.000256959
0.000373675
0.000681362
0.00109291
0.00264109
0.0026923
0.00132875
0.00092924
0.00116009
0.000969849
0.018517
0.000513837
0.000642379
0.000655362
0.0011717
0.000598557
0.00105168
0.00053716
0.00030796
9.57179e-05
4.33852e-05
5.33843e-05
0.000427982
6.66941e-05
0.000365888
8.61377e-06
0.0283736
0.0283736
0.0283736
0.0283736
0.0283736
0.0283736
0.0283736
0.0283736
0.0283736
0.0283736
0.0283736
0.0283736
0.0283736
0.0283736
0.0283736
0.0283736
0.0283736
0.0283736
0.0283736
0.0283736
0.0283736
0.0283736
0.0283736
0.0283736
0.0283736
0.0283736
0.0283736
0.0283736
0.0283736
0.0283736
0.0283736
0.0283736
0.0283736
0.0283736
0.0283736
0.0283736
0.0283736
0.0283736
0.0283736
0.0283736
0.0283736
0.0283736
0.0283736
0.0283736
0.0283736
0.0283736
0.0283736
0.0283736
0.0283736
0.0283736
0.0283736
0.0283736
0.0283736
0.0283736
0.0283736
0.0283736
0.0283737
0.0283739
0.0264962
0.0357149
0.0275606
3.10554e-07
0.000139568
0.000145952
0.000179543
0.000290724
0.00223405
0.00196339
0.00798779
0.0101412
0.00222735
0.00177309
0.00174027
0.00161909
0.00181481
0.00322806
0.00320999
0.00204972
0.00194573
0.00616759
0.00464524
0.000973385
0.000334129
0.000285519
0.000573169
0.00259663
0.00992502
0.000332719
0.000265453
0.000159268
7.62877e-05
5.10109e-05
0.000150951
8.55093e-05
0.000215441
8.78713e-06
0.0283736
0.0283736
0.0283736
0.0283736
0.0283736
0.0283736
0.0283736
0.0283736
0.0283736
0.0283736
0.0283736
0.0283736
0.0283736
0.0283736
0.0283736
0.0283736
0.0283736
0.0283736
0.0283736
0.0283736
0.0283736
0.0283736
0.0283736
0.0283736
0.0283736
0.0283736
0.0283736
0.0283736
0.0283736
0.0283736
0.0283736
0.0283736
0.0283736
0.0283736
0.0283736
0.0283736
0.0283736
0.0283736
0.0283736
0.0283736
0.0283736
0.0283736
0.0283736
0.0283736
0.0283736
0.0283736
0.0283736
0.0283736
0.0283736
0.0283736
0.0283736
0.0283736
0.0283736
0.0283736
0.0283736
0.0283736
0.0283737
0.0283748
0.0288537
0.0274982
0.0608292
7.21219e-05
0.000102217
5.42595e-08
0.000124605
4.433e-05
0.000112647
0.000596796
8.19346e-05
9.30518e-05
0.000584348
0.000590453
0.000612957
0.000171017
0.000596979
0.000781962
0.00108157
0.0046089
0.00155595
0.00194234
0.000407122
0.0022039
0.000357441
0.000359448
0.00252501
0.000342141
0.00031408
0.00037824
0.000873316
0.000674317
0.000207939
0.000103323
0.000155978
0.000617297
8.47047e-05
8.65448e-06
0.0283736
0.0283736
0.0283736
0.0283736
0.0283736
0.0283736
0.0283736
0.0283736
0.0283736
0.0283736
0.0283736
0.0283736
0.0283736
0.0283736
0.0283736
0.0283736
0.0283736
0.0283736
0.0283736
0.0283736
0.0283736
0.0283736
0.0283736
0.0283736
0.0283736
0.0283736
0.0283736
0.0283736
0.0283736
0.0283736
0.0283736
0.0283736
0.0283736
0.0283736
0.0283736
0.0283736
0.0283736
0.0283736
0.0283736
0.0283736
0.0283736
0.0283736
0.0283736
0.0283736
0.0283736
0.0283736
0.0283736
0.0283736
0.0283736
0.0283736
0.0283736
0.0283736
0.0283736
0.0283736
0.0283736
0.0283736
0.0283733
0.028378
0.028429
0.0333965
0.0118763
0.00460008
0.000125772
0.00620441
0.0114082
0.00222518
6.66265e-06
3.85566e-05
1.17353e-05
2.62656e-07
2.48681e-06
0.000296119
4.61345e-06
0.000214734
6.96183e-07
2.50275e-05
9.01072e-05
7.48784e-05
6.48295e-05
2.51897e-05
7.12155e-07
5.72469e-05
7.83328e-07
4.28784e-05
2.88374e-05
2.05955e-05
2.25892e-05
3.18862e-05
7.16639e-05
0.00375841
6.49843e-05
2.96824e-05
0.000262667
0.000248893
5.53395e-05
8.61385e-06
0.0283736
0.0283736
0.0283736
0.0283736
0.0283736
0.0283736
0.0283736
0.0283736
0.0283736
0.0283736
0.0283736
0.0283736
0.0283736
0.0283736
0.0283736
0.0283736
0.0283736
0.0283736
0.0283736
0.0283736
0.0283736
0.0283736
0.0283736
0.0283736
0.0283736
0.0283736
0.0283736
0.0283736
0.0283736
0.0283736
0.0283736
0.0283736
0.0283736
0.0283736
0.0283736
0.0283736
0.0283736
0.0283736
0.0283736
0.0283736
0.0283736
0.0283736
0.0283736
0.0283736
0.0283736
0.0283736
0.0283736
0.0283736
0.0283736
0.0283736
0.0283736
0.0283736
0.0283736
0.0283735
0.0283736
0.0283735
0.0283735
0.0283736
0.0283718
0.0393311
0.0260736
0.853555
0.853561
0.853605
0.852475
0.0111138
0.0073607
0.0637287
0.0161939
0.577008
0.0088925
0.846629
0.880034
0.0109887
0.86374
0.174538
0.00422391
0.0557639
6.43141e-07
0.0413235
0.00351742
0.0132694
0.00115375
0.00673481
0.0698619
0.00951115
0.000715068
0.00101399
0.00163386
0.000388848
1.14985e-05
1.3046e-06
2.61206e-07
9.79339e-06
5.3315e-06
3.34803e-06
0.0283736
0.0283736
0.0283735
0.0283736
0.0283736
0.0283736
0.0283736
0.0283736
0.0283736
0.0283736
0.0283736
0.0283736
0.0283736
0.0283736
0.0283736
0.0283736
0.0283736
0.0283736
0.0283736
0.0283736
0.0283736
0.0283736
0.0283736
0.0283736
0.0283736
0.0283736
0.0283736
0.0283736
0.0283736
0.0283736
0.0283736
0.0283736
0.0283736
0.0283736
0.0283736
0.0283736
0.0283736
0.0283736
0.0283736
0.0283736
0.0283736
0.0283736
0.0283736
0.0283736
0.0283736
0.0283736
0.0283736
0.0283736
0.0283736
0.0283736
0.0283736
0.0283736
0.0283736
0.0283736
0.0283736
0.0283736
0.0283734
0.0283212
0.0283285
0.0428677
0.0443076
0.00136602
1.42311e-08
0.24526
1.13111e-10
2.70936e-09
0.0591643
0.0254326
0.0599489
0.00384035
0.00685009
0.192323
0.0447152
0.0336379
0.0648661
0.01879
0.0362664
0.0411202
0.0464116
0.0427066
3.65281e-06
0.533017
0.854279
0.853438
0.251964
0.0489706
0.853432
2.30117e-05
0.00116691
0.0501748
0.00802522
0.0672977
0.00955266
3.43054e-05
0.00308271
0.000122012
0.0283736
0.0283736
0.0283736
0.0283736
0.0283736
0.0283736
0.0283736
0.0283736
0.0283736
0.0283736
0.0283736
0.0283736
0.0283736
0.0283736
0.0283736
0.0283736
0.0283736
0.0283736
0.0283736
0.0283736
0.0283736
0.0283736
0.0283736
0.0283736
0.0283736
0.0283736
0.0283736
0.0283736
0.0283736
0.0283736
0.0283736
0.0283736
0.0283736
0.0283736
0.0283736
0.0283736
0.0283736
0.0283736
0.0283736
0.0283736
0.0283736
0.0283736
0.0283736
0.0283736
0.0283736
0.0283736
0.0283736
0.0283736
0.0283736
0.0283736
0.0283736
0.0283736
0.0283736
0.0283736
0.0283736
0.0283736
0.0283747
0.0284051
0.0285003
0.0495126
1.26806e-05
0.00355668
0.0359891
0.0296533
0.0101623
0.00636099
2.53234e-10
0.0840709
0.00741985
0.00515127
0.0386055
0.0151298
0.0142952
0.0437981
0.0323794
0.0220618
0.0351312
0.0280489
0.0304798
5.69792e-06
0.0316289
0.00114612
0.0138983
0.0184321
0.0190174
0.0245899
0.000367605
0.0974666
0.0162598
0.0371207
0.0214794
0.0159821
0.000358303
0.0169165
0.00938302
2.48596e-05
0.0283736
0.0283736
0.0283736
0.0283736
0.0283736
0.0283736
0.0283736
0.0283736
0.0283736
0.0283736
0.0283736
0.0283736
0.0283736
0.0283736
0.0283736
0.0283736
0.0283736
0.0283736
0.0283736
0.0283736
0.0283736
0.0283736
0.0283736
0.0283736
0.0283736
0.0283736
0.0283736
0.0283736
0.0283736
0.0283736
0.0283736
0.0283736
0.0283736
0.0283736
0.0283736
0.0283736
0.0283736
0.0283736
0.0283736
0.0283736
0.0283736
0.0283736
0.0283736
0.0283736
0.0283736
0.0283736
0.0283736
0.0283736
0.0283736
0.0283736
0.0283736
0.0283736
0.0283736
0.0283736
0.0283736
0.0283735
0.0283738
0.0283725
0.0281252
0.0361607
0.0183556
0.0847537
0.837305
0.00251578
0.000204979
0.136456
0.0803041
0.0160357
0.0265101
0.0189256
0.110076
0.00849525
0.0614167
0.00929079
0.0913443
0.197857
0.0065761
0.0154144
0.0567956
0.0102851
0.0294097
0.0321148
0.0192645
0.000125141
0.067761
0.104559
0.00259474
0.0442905
0.00110444
0.0407689
0.0575131
0.0160109
0.043735
0.0407673
0.00663574
0.0304837
0.0283736
0.0283736
0.0283736
0.0283736
0.0283736
0.0283736
0.0283736
0.0283736
0.0283736
0.0283736
0.0283736
0.0283736
0.0283736
0.0283736
0.0283736
0.0283736
0.0283736
0.0283736
0.0283736
0.0283736
0.0283736
0.0283736
0.0283736
0.0283736
0.0283736
0.0283736
0.0283736
0.0283736
0.0283736
0.0283736
0.0283736
0.0283736
0.0283736
0.0283736
0.0283736
0.0283736
0.0283736
0.0283736
0.0283736
0.0283736
0.0283736
0.0283736
0.0283736
0.0283736
0.0283736
0.0283736
0.0283736
0.0283736
0.0283736
0.0283736
0.0283736
0.0283736
0.0283736
0.0283736
0.0283736
0.0283736
0.0283737
0.0283745
0.0283751
0.0346901
0.000103069
0.00212003
0.000251418
0.00134182
9.28468e-08
0.100696
0.00405897
0.00182512
0.00730323
0.00281623
0.00094114
0.00141405
0.00417976
0.000161153
0.00469881
0.000369594
0.119572
0.0139515
0.00543242
0.853553
0.0143133
0.00891285
0.00258342
0.0378321
0.0045425
0.00429775
0.0603985
6.84467e-05
0.0751309
0.0108982
0.00451622
6.91438e-05
0.0406807
0.00255302
0.00205848
6.71065e-06
0.0283736
0.0283736
0.0283736
0.0283736
0.0283736
0.0283736
0.0283736
0.0283736
0.0283736
0.0283736
0.0283736
0.0283736
0.0283736
0.0283736
0.0283736
0.0283736
0.0283736
0.0283736
0.0283736
0.0283736
0.0283736
0.0283736
0.0283736
0.0283736
0.0283736
0.0283736
0.0283736
0.0283736
0.0283736
0.0283736
0.0283736
0.0283736
0.0283736
0.0283736
0.0283736
0.0283736
0.0283736
0.0283736
0.0283736
0.0283736
0.0283736
0.0283736
0.0283736
0.0283736
0.0283736
0.0283736
0.0283736
0.0283736
0.0283736
0.0283736
0.0283736
0.0283736
0.0283736
0.0283736
0.0283736
0.0283735
0.0283738
0.0283756
0.0265745
0.0439641
0.0205386
1.35055e-06
2.65486e-05
2.39277e-06
0.000389177
6.6089e-07
3.67163e-05
2.85455e-05
4.14568e-05
4.86524e-05
1.95027e-05
1.84388e-05
3.48033e-05
4.37164e-05
5.1408e-05
3.76279e-05
5.9647e-05
0.00225499
0.000244027
0.353509
0.000179103
9.58133e-05
4.67071e-05
1.48494e-05
2.78511e-05
3.83627e-05
6.66567e-05
0.000121208
2.65645e-05
1.52998e-05
1.8014e-05
0.000233603
2.65603e-05
2.62467e-05
9.86478e-06
9.8673e-06
0.0283736
0.0283736
0.0283736
0.0283736
0.0283736
0.0283736
0.0283736
0.0283736
0.0283736
0.0283736
0.0283736
0.0283736
0.0283736
0.0283736
0.0283736
0.0283736
0.0283736
0.0283736
0.0283736
0.0283736
0.0283736
0.0283736
0.0283736
0.0283736
0.0283736
0.0283736
0.0283736
0.0283736
0.0283736
0.0283736
0.0283736
0.0283736
0.0283736
0.0283736
0.0283736
0.0283736
0.0283736
0.0283736
0.0283736
0.0283736
0.0283736
0.0283736
0.0283736
0.0283736
0.0283736
0.0283736
0.0283736
0.0283736
0.0283736
0.0283736
0.0283736
0.0283736
0.0283736
0.0283736
0.0283736
0.0283736
0.0283738
0.0283735
0.0285924
0.0290692
0.090328
1.70396e-07
3.27542e-05
0.000241539
0.000313342
0.000952626
0.000123048
0.00024143
0.000158478
0.000164508
0.0191121
0.00363969
0.000347201
0.00113341
0.000412753
0.000228377
0.000199872
0.00015884
0.00015703
0.000174413
0.000188435
0.000170679
0.000198252
0.00055869
0.00101053
0.000468127
0.000667926
0.000661055
0.00102045
0.000220222
8.85601e-05
6.55155e-05
4.6996e-05
3.39208e-05
3.98881e-05
9.30362e-06
0.0283736
0.0283736
0.0283736
0.0283736
0.0283736
0.0283736
0.0283736
0.0283736
0.0283736
0.0283736
0.0283736
0.0283736
0.0283736
0.0283736
0.0283736
0.0283736
0.0283736
0.0283736
0.0283736
0.0283736
0.0283736
0.0283736
0.0283736
0.0283736
0.0283736
0.0283736
0.0283736
0.0283736
0.0283736
0.0283736
0.0283736
0.0283736
0.0283736
0.0283736
0.0283736
0.0283736
0.0283736
0.0283736
0.0283736
0.0283736
0.0283736
0.0283736
0.0283736
0.0283736
0.0283736
0.0283736
0.0283736
0.0283736
0.0283736
0.0283736
0.0283736
0.0283736
0.0283736
0.0283736
0.0283736
0.0283736
0.0283739
0.0283726
0.0283819
0.0371405
0.00325591
7.68931e-11
4.04996e-05
7.65584e-05
0.0001059
9.50452e-05
0.000247279
0.000213343
0.000156653
0.000108314
9.23856e-05
9.65969e-05
0.000117843
0.000181857
0.000320575
0.000591951
0.000847928
0.000939447
0.00179515
0.00300631
0.00112284
0.00109931
0.00252311
0.000703317
0.000227968
0.000177492
0.000288324
0.00046617
0.000556985
0.00137697
0.000624333
0.000152245
6.33359e-05
4.16557e-05
2.87518e-05
8.51985e-06
0.0283736
0.0283736
0.0283736
0.0283736
0.0283736
0.0283736
0.0283736