/*--------------------------------*- C++ -*----------------------------------*\
| =========                 |                                                 |
| \\      /  F ield         | OpenFOAM: The Open Source CFD Toolbox           |
|  \\    /   O peration     | Version:  2.3.0                                 |
|   \\  /    A nd           | Web:      www.OpenFOAM.org                      |
|    \\/     M anipulation  |                                                 |
\*---------------------------------------------------------------------------*/
FoamFile
{
    version     2.0;
    format      ascii;
    class       volScalarField;
    location    "35";
    object      alpha.air;
}
// * * * * * * * * * * * * * * * * * * * * * * * * * * * * * * * * * * * * * //

dimensions      [0 0 0 0 0 0 0];

internalField   nonuniform List<scalar> 
6144
(
0.999995
0.999994
0.999994
0.999993
0.999993
0.999992
0.999992
0.999991
0.99999
0.99999
0.99999
0.99999
0.99999
0.99999
0.99999
0.99999
0.99999
0.99999
0.99999
0.99999
0.99999
0.99999
0.99999
0.99999
0.99999
0.99999
0.99999
0.99999
0.99999
0.99999
0.99999
0.99999
0.99999
0.99999
0.99999
0.99999
0.99999
0.99999
0.99999
0.99999
0.99999
0.99999
0.99999
0.99999
0.99999
0.99999
0.99999
0.99999
0.999989
0.999983
0.999975
0.999964
0.999948
0.999921
0.999898
0.999872
0.999859
0.999788
0.999
0.937833
0.0425424
0.000156978
5.76952e-07
5.87594e-07
5.8698e-07
5.97308e-07
7.09503e-07
7.6364e-07
7.56082e-07
7.34123e-07
7.18502e-07
7.05906e-07
6.96985e-07
6.92294e-07
6.90072e-07
6.88043e-07
6.86103e-07
6.84863e-07
6.83155e-07
6.81644e-07
6.77811e-07
6.74842e-07
6.73701e-07
6.73009e-07
6.70663e-07
6.67934e-07
6.66845e-07
6.67561e-07
6.69598e-07
6.71849e-07
6.74762e-07
6.78645e-07
6.8107e-07
6.76643e-07
5.83698e-07
2.99684e-07
0.999995
0.999994
0.999994
0.999993
0.999992
0.999992
0.999991
0.999991
0.99999
0.99999
0.99999
0.99999
0.99999
0.99999
0.99999
0.99999
0.99999
0.99999
0.99999
0.99999
0.99999
0.99999
0.99999
0.99999
0.99999
0.99999
0.99999
0.99999
0.99999
0.99999
0.99999
0.99999
0.99999
0.99999
0.99999
0.99999
0.99999
0.99999
0.99999
0.99999
0.99999
0.99999
0.99999
0.99999
0.99999
0.99999
0.99999
0.99999
0.999989
0.999985
0.999978
0.999967
0.999954
0.999928
0.999899
0.999875
0.999833
0.999728
0.999609
0.902365
0.032405
4.37729e-06
5.76946e-07
5.76951e-07
6.29756e-07
6.38331e-07
6.76307e-07
8.43261e-07
9.24732e-07
8.68996e-07
7.67895e-07
7.23993e-07
7.04006e-07
6.9454e-07
6.89865e-07
6.86994e-07
6.83319e-07
6.80713e-07
6.73173e-07
6.6508e-07
6.2627e-07
6.14768e-07
6.01901e-07
5.91251e-07
5.78597e-07
5.68559e-07
5.64468e-07
5.64673e-07
5.67634e-07
5.77003e-07
5.99483e-07
6.31306e-07
6.66203e-07
6.72987e-07
5.99108e-07
3.28946e-07
0.999996
0.999995
0.999994
0.999993
0.999992
0.999992
0.999991
0.999991
0.99999
0.99999
0.99999
0.99999
0.99999
0.99999
0.99999
0.99999
0.99999
0.99999
0.99999
0.99999
0.99999
0.99999
0.99999
0.99999
0.99999
0.99999
0.99999
0.99999
0.99999
0.99999
0.99999
0.99999
0.99999
0.99999
0.99999
0.99999
0.99999
0.99999
0.99999
0.99999
0.99999
0.99999
0.99999
0.99999
0.99999
0.99999
0.99999
0.99999
0.99999
0.999988
0.999983
0.99997
0.999957
0.999938
0.9999
0.999865
0.999843
0.999765
0.999931
0.840017
0.00358467
2.82662e-05
2.42541e-05
2.23371e-05
2.17789e-05
2.06647e-05
2.0737e-05
2.10064e-05
1.97225e-05
1.54765e-05
1.27828e-05
1.08562e-05
8.24926e-06
4.93435e-06
2.68916e-06
1.78738e-06
1.45309e-06
1.13875e-06
8.47874e-07
6.97258e-07
6.1113e-07
5.92848e-07
5.76017e-07
5.59653e-07
5.44785e-07
5.35753e-07
5.34021e-07
5.36267e-07
5.40779e-07
5.4221e-07
5.5044e-07
5.78889e-07
6.30095e-07
6.61676e-07
6.09442e-07
3.65173e-07
0.999996
0.999995
0.999994
0.999994
0.999993
0.999992
0.999992
0.999991
0.99999
0.99999
0.99999
0.99999
0.99999
0.99999
0.99999
0.99999
0.99999
0.99999
0.99999
0.99999
0.99999
0.99999
0.99999
0.99999
0.99999
0.99999
0.99999
0.99999
0.99999
0.99999
0.99999
0.99999
0.99999
0.99999
0.99999
0.99999
0.99999
0.99999
0.99999
0.99999
0.99999
0.99999
0.99999
0.99999
0.99999
0.99999
0.99999
0.99999
0.99999
0.999989
0.999986
0.999974
0.99996
0.999931
0.999878
0.999854
0.999852
0.999831
0.99999
0.748498
0.00301839
0.00112353
0.00109164
0.00100629
0.000893724
0.00083711
0.000863733
0.000831775
0.000796308
0.000735425
0.000638362
0.000590696
0.00048942
0.000368529
0.0002908
0.000236891
0.000170547
9.24514e-05
4.1473e-05
2.06875e-05
9.62415e-06
3.61596e-06
1.22204e-06
5.49595e-07
5.49548e-07
5.26223e-07
4.9948e-07
5.03087e-07
5.22098e-07
5.45692e-07
5.52312e-07
5.66478e-07
6.0574e-07
6.5007e-07
5.99087e-07
3.55298e-07
0.999996
0.999995
0.999994
0.999994
0.999993
0.999992
0.999992
0.999991
0.99999
0.99999
0.99999
0.99999
0.99999
0.99999
0.99999
0.99999
0.99999
0.99999
0.99999
0.99999
0.99999
0.99999
0.99999
0.99999
0.99999
0.99999
0.99999
0.99999
0.99999
0.99999
0.99999
0.99999
0.99999
0.99999
0.99999
0.99999
0.99999
0.99999
0.99999
0.99999
0.99999
0.99999
0.99999
0.99999
0.99999
0.99999
0.99999
0.99999
0.99999
0.999989
0.999987
0.999977
0.999964
0.999919
0.999866
0.999864
0.999868
0.999862
0.99999
0.672091
0.0123757
0.00827153
0.00854291
0.00810542
0.00674668
0.00580096
0.00531046
0.00521009
0.00521531
0.00521139
0.00516176
0.00468973
0.00396917
0.00360484
0.00354742
0.00339889
0.00272773
0.00186607
0.00127676
0.000928996
0.000632559
0.000382305
0.000140086
3.67638e-05
8.47986e-06
1.43623e-06
4.62132e-07
4.62132e-07
4.64247e-07
5.33103e-07
5.59055e-07
5.73783e-07
6.09471e-07
6.37986e-07
5.61069e-07
3.19293e-07
0.999996
0.999996
0.999995
0.999994
0.999993
0.999993
0.999992
0.999991
0.99999
0.99999
0.99999
0.99999
0.99999
0.99999
0.99999
0.99999
0.99999
0.99999
0.99999
0.99999
0.99999
0.99999
0.99999
0.99999
0.99999
0.99999
0.99999
0.99999
0.99999
0.99999
0.99999
0.99999
0.99999
0.99999
0.99999
0.99999
0.99999
0.99999
0.99999
0.99999
0.99999
0.99999
0.99999
0.99999
0.99999
0.99999
0.99999
0.99999
0.99999
0.999989
0.999987
0.999978
0.999968
0.999942
0.999885
0.999839
0.999847
0.999847
0.99999
0.663377
0.0225004
0.0172754
0.0185999
0.0188386
0.0183042
0.0158086
0.0127091
0.0112172
0.0105259
0.0122644
0.0131233
0.0112851
0.0103218
0.00941908
0.0100726
0.0105964
0.0100834
0.0086031
0.00717215
0.00645682
0.00581932
0.00443134
0.00224102
0.00121601
0.000645217
0.000224003
4.44701e-05
5.50033e-06
4.97292e-07
2.92388e-07
2.92388e-07
2.92388e-07
2.92388e-07
2.92388e-07
2.92388e-07
2.92388e-07
0.999996
0.999996
0.999995
0.999995
0.999994
0.999993
0.999992
0.999991
0.999991
0.99999
0.99999
0.99999
0.99999
0.99999
0.99999
0.99999
0.99999
0.99999
0.99999
0.99999
0.99999
0.99999
0.99999
0.99999
0.99999
0.99999
0.99999
0.99999
0.99999
0.99999
0.99999
0.99999
0.99999
0.99999
0.99999
0.99999
0.99999
0.99999
0.99999
0.99999
0.99999
0.99999
0.99999
0.99999
0.99999
0.99999
0.99999
0.99999
0.99999
0.999988
0.999986
0.999972
0.999958
0.999947
0.999914
0.999849
0.999835
0.999807
0.99999
0.68184
0.0215337
0.0164873
0.0202485
0.021088
0.0212182
0.0224612
0.0213099
0.0172665
0.0156601
0.015442
0.0152415
0.0147499
0.0137696
0.012243
0.0119143
0.01451
0.0163588
0.0154319
0.0147791
0.0149026
0.0140148
0.011045
0.00880006
0.0076766
0.00647372
0.00391197
0.00185278
0.000917874
0.000366966
8.0301e-05
8.08433e-05
7.78442e-05
8.32716e-05
0.000115658
0.000149478
0.000134636
0.999996
0.999996
0.999996
0.999995
0.999994
0.999993
0.999992
0.999992
0.999991
0.99999
0.99999
0.99999
0.99999
0.99999
0.99999
0.99999
0.99999
0.99999
0.99999
0.99999
0.99999
0.99999
0.99999
0.99999
0.99999
0.99999
0.99999
0.99999
0.99999
0.99999
0.99999
0.99999
0.99999
0.99999
0.99999
0.99999
0.99999
0.99999
0.99999
0.99999
0.99999
0.99999
0.99999
0.99999
0.99999
0.99999
0.99999
0.99999
0.99999
0.999988
0.999983
0.999965
0.999953
0.999943
0.999923
0.999879
0.999847
0.999764
0.99999
0.708653
0.0217316
0.0144466
0.0151747
0.0142902
0.0131593
0.0128378
0.0127685
0.0128616
0.0130102
0.0132599
0.0136904
0.013824
0.0137123
0.0133018
0.0131454
0.0152424
0.0161525
0.015726
0.0170176
0.0174923
0.0163686
0.015665
0.0149493
0.015117
0.0159198
0.0124685
0.0100958
0.00985097
0.0107311
0.00777309
0.0051966
0.00478784
0.00493705
0.00519509
0.00550533
0.00553156
0.999997
0.999996
0.999996
0.999996
0.999995
0.999994
0.999993
0.999992
0.999991
0.99999
0.99999
0.99999
0.99999
0.99999
0.99999
0.99999
0.99999
0.99999
0.99999
0.99999
0.99999
0.99999
0.99999
0.99999
0.99999
0.99999
0.99999
0.99999
0.99999
0.99999
0.99999
0.99999
0.99999
0.99999
0.99999
0.99999
0.99999
0.99999
0.99999
0.99999
0.99999
0.99999
0.99999
0.99999
0.99999
0.99999
0.99999
0.99999
0.99999
0.999988
0.99998
0.999964
0.99995
0.999936
0.999923
0.999891
0.999879
0.999715
0.999922
0.822801
0.0225973
0.00476657
0.00377417
0.00287303
0.00276399
0.00271893
0.00326539
0.00411597
0.00410995
0.0036428
0.00352278
0.0039765
0.00504083
0.00544355
0.00567494
0.00674005
0.00792547
0.00908681
0.00952153
0.00916737
0.00826142
0.00985567
0.0125546
0.0131494
0.0131388
0.0116929
0.0103055
0.00828484
0.00645917
0.00492243
0.00363212
0.00300467
0.00255595
0.00216118
0.00182665
0.00115258
0.999997
0.999997
0.999996
0.999996
0.999995
0.999994
0.999993
0.999992
0.999991
0.999991
0.99999
0.99999
0.99999
0.99999
0.99999
0.99999
0.99999
0.99999
0.99999
0.99999
0.99999
0.99999
0.99999
0.99999
0.99999
0.99999
0.99999
0.99999
0.99999
0.99999
0.99999
0.99999
0.99999
0.99999
0.99999
0.99999
0.99999
0.99999
0.99999
0.99999
0.99999
0.99999
0.99999
0.99999
0.99999
0.99999
0.99999
0.99999
0.999989
0.999987
0.99998
0.999967
0.999948
0.999926
0.999907
0.999875
0.999851
0.999603
0.999797
0.889375
0.0154473
0.000559603
0.000446871
0.000352941
0.000372653
0.000362632
0.000426875
0.000519354
0.000583133
0.0006303
0.00066782
0.000759187
0.0010594
0.0012707
0.00126348
0.00119495
0.00119215
0.00123535
0.00157498
0.00203521
0.00259828
0.00302899
0.00308713
0.00305721
0.00316888
0.00370327
0.00415192
0.00406528
0.00279648
0.00197926
0.00152042
0.00104524
0.000724437
0.000461725
0.000223678
9.3874e-05
0.999997
0.999997
0.999997
0.999997
0.999996
0.999995
0.999993
0.999992
0.999991
0.999991
0.99999
0.99999
0.99999
0.99999
0.99999
0.99999
0.99999
0.99999
0.99999
0.99999
0.99999
0.99999
0.99999
0.99999
0.99999
0.99999
0.99999
0.99999
0.99999
0.99999
0.99999
0.99999
0.99999
0.99999
0.99999
0.99999
0.99999
0.99999
0.99999
0.99999
0.99999
0.99999
0.99999
0.99999
0.99999
0.99999
0.99999
0.99999
0.999989
0.999986
0.99998
0.99997
0.999954
0.99993
0.999896
0.999859
0.999853
0.99951
0.999768
0.927377
0.0162558
2.11106e-05
1.67257e-05
1.3056e-05
1.56514e-05
1.76603e-05
2.05534e-05
2.38612e-05
2.84718e-05
3.56668e-05
4.33776e-05
4.82386e-05
5.02549e-05
5.27351e-05
5.9807e-05
6.84247e-05
7.51172e-05
8.113e-05
9.22151e-05
0.000117543
0.000145985
0.0001659
0.000176872
0.000185069
0.000196674
0.000202543
0.000195546
0.00018669
0.000164888
0.000119858
8.81511e-05
5.55652e-05
2.88682e-05
1.0849e-05
2.76041e-06
1.01211e-06
0.999998
0.999997
0.999997
0.999997
0.999996
0.999995
0.999993
0.999992
0.999991
0.99999
0.99999
0.99999
0.99999
0.99999
0.99999
0.99999
0.99999
0.99999
0.99999
0.99999
0.99999
0.99999
0.99999
0.99999
0.99999
0.99999
0.99999
0.99999
0.99999
0.99999
0.99999
0.99999
0.99999
0.99999
0.99999
0.99999
0.99999
0.99999
0.99999
0.99999
0.99999
0.99999
0.99999
0.99999
0.99999
0.99999
0.99999
0.99999
0.999989
0.999985
0.99998
0.999973
0.99996
0.999941
0.999914
0.999872
0.999859
0.999425
0.99969
0.953795
0.0202977
1.57399e-05
3.19257e-07
3.19255e-07
3.19256e-07
3.19258e-07
3.19256e-07
3.19254e-07
3.19252e-07
3.19253e-07
3.19254e-07
3.19256e-07
3.19257e-07
3.19259e-07
3.19261e-07
3.19263e-07
3.19264e-07
3.19266e-07
3.19268e-07
3.1927e-07
3.19272e-07
3.19274e-07
6.87956e-07
1.31609e-06
9.31035e-07
5.44207e-07
1.47358e-06
1.85892e-06
8.58607e-07
7.44365e-07
1.17185e-06
1.08698e-06
8.26661e-07
5.86208e-07
4.66292e-07
3.93449e-07
0.999998
0.999998
0.999998
0.999997
0.999997
0.999996
0.999994
0.999992
0.999991
0.99999
0.99999
0.99999
0.99999
0.99999
0.99999
0.99999
0.99999
0.99999
0.99999
0.99999
0.99999
0.99999
0.99999
0.99999
0.99999
0.99999
0.99999
0.99999
0.99999
0.99999
0.99999
0.99999
0.99999
0.99999
0.99999
0.99999
0.99999
0.99999
0.99999
0.99999
0.99999
0.99999
0.99999
0.99999
0.99999
0.99999
0.99999
0.99999
0.999989
0.999986
0.99998
0.999973
0.999964
0.999947
0.999931
0.999894
0.999834
0.999321
0.99958
0.956251
0.0185668
1.71238e-05
3.19258e-07
3.39298e-07
3.39199e-07
3.56724e-07
3.87257e-07
4.2528e-07
4.59988e-07
4.8795e-07
4.94235e-07
4.88936e-07
4.77612e-07
4.63343e-07
4.66489e-07
5.0577e-07
5.66072e-07
5.78739e-07
5.47387e-07
4.94306e-07
4.24815e-07
3.88272e-07
3.86493e-07
4.34482e-07
4.97689e-07
5.40391e-07
5.67557e-07
5.919e-07
6.2644e-07
6.46463e-07
6.54186e-07
6.48862e-07
5.80442e-07
4.91306e-07
4.20612e-07
3.58098e-07
0.999998
0.999998
0.999998
0.999998
0.999997
0.999996
0.999994
0.999992
0.999991
0.999991
0.99999
0.99999
0.99999
0.99999
0.99999
0.99999
0.99999
0.99999
0.99999
0.99999
0.99999
0.99999
0.99999
0.99999
0.99999
0.99999
0.99999
0.99999
0.99999
0.99999
0.99999
0.99999
0.99999
0.99999
0.99999
0.99999
0.99999
0.99999
0.99999
0.99999
0.99999
0.99999
0.99999
0.99999
0.99999
0.99999
0.99999
0.99999
0.999989
0.999987
0.999981
0.999973
0.999962
0.999944
0.999933
0.999914
0.999778
0.999211
0.999484
0.937198
0.0150657
1.56907e-06
3.1926e-07
3.373e-07
3.37333e-07
3.49438e-07
3.74481e-07
4.03552e-07
4.34771e-07
4.64806e-07
4.94912e-07
5.04306e-07
5.00274e-07
4.9238e-07
4.74059e-07
4.62963e-07
4.86312e-07
5.54772e-07
5.50727e-07
5.10067e-07
4.56159e-07
3.95652e-07
3.69905e-07
3.687e-07
3.91465e-07
4.3012e-07
4.66787e-07
4.9643e-07
5.14289e-07
5.22694e-07
5.23511e-07
5.0726e-07
4.65406e-07
4.12414e-07
3.59373e-07
3.1442e-07
0.999998
0.999998
0.999998
0.999998
0.999998
0.999997
0.999995
0.999992
0.999991
0.999991
0.99999
0.99999
0.99999
0.99999
0.99999
0.99999
0.99999
0.99999
0.99999
0.99999
0.99999
0.99999
0.99999
0.99999
0.99999
0.99999
0.99999
0.99999
0.99999
0.99999
0.99999
0.99999
0.99999
0.99999
0.99999
0.99999
0.99999
0.99999
0.99999
0.99999
0.99999
0.99999
0.99999
0.99999
0.99999
0.99999
0.99999
0.99999
0.999989
0.999988
0.999983
0.999973
0.999958
0.99994
0.999932
0.999912
0.999654
0.999124
0.998856
0.942717
0.0189373
1.61756e-05
3.19262e-07
3.44975e-07
3.46283e-07
3.59093e-07
3.76158e-07
3.92563e-07
4.10538e-07
4.33015e-07
4.57216e-07
4.76763e-07
4.91947e-07
5.00584e-07
5.00471e-07
4.90873e-07
4.85511e-07
5.1602e-07
5.62439e-07
5.24223e-07
4.79731e-07
4.37387e-07
3.88467e-07
3.60145e-07
3.51322e-07
3.51109e-07
3.60254e-07
3.86437e-07
3.98464e-07
3.99138e-07
3.89196e-07
3.67148e-07
3.40388e-07
3.11743e-07
2.78933e-07
2.48713e-07
0.999999
0.999998
0.999998
0.999998
0.999998
0.999998
0.999996
0.999993
0.999991
0.99999
0.99999
0.99999
0.99999
0.99999
0.99999
0.99999
0.99999
0.99999
0.99999
0.99999
0.99999
0.99999
0.99999
0.99999
0.99999
0.99999
0.99999
0.99999
0.99999
0.99999
0.99999
0.99999
0.99999
0.99999
0.99999
0.99999
0.99999
0.99999
0.99999
0.99999
0.99999
0.99999
0.99999
0.99999
0.99999
0.99999
0.99999
0.99999
0.99999
0.999989
0.999984
0.999973
0.999958
0.99994
0.999926
0.999821
0.999771
0.99914
0.99914
0.950641
0.0314178
8.14483e-05
3.19264e-07
3.36997e-07
3.50842e-07
3.6737e-07
3.84043e-07
3.98082e-07
4.09933e-07
4.22359e-07
4.36556e-07
4.51232e-07
4.65959e-07
4.82407e-07
5.05576e-07
5.0693e-07
4.96533e-07
5.08255e-07
5.68039e-07
5.5443e-07
4.85703e-07
4.66702e-07
4.47183e-07
4.16895e-07
3.86672e-07
3.65215e-07
3.54258e-07
3.49413e-07
3.47601e-07
3.45435e-07
3.40499e-07
3.32591e-07
3.22076e-07
3.07717e-07
2.78487e-07
2.458e-07
0.999995
0.999994
0.999994
0.999993
0.999993
0.999992
0.999991
0.99999
0.99999
0.99999
0.99999
0.99999
0.99999
0.99999
0.99999
0.99999
0.99999
0.99999
0.99999
0.99999
0.99999
0.99999
0.99999
0.99999
0.99999
0.99999
0.99999
0.99999
0.99999
0.99999
0.99999
0.99999
0.99999
0.99999
0.99999
0.99999
0.99999
0.99999
0.99999
0.99999
0.99999
0.99999
0.99999
0.99999
0.99999
0.99999
0.99999
0.99999
0.999989
0.999983
0.999974
0.999963
0.999948
0.999923
0.9999
0.999873
0.999869
0.999617
0.99745
0.928955
0.0543681
0.000279072
5.84726e-07
5.76946e-07
5.76946e-07
5.76946e-07
5.7972e-07
6.58686e-07
7.49259e-07
7.37324e-07
7.23995e-07
7.17016e-07
7.14221e-07
7.13319e-07
7.14364e-07
7.16529e-07
7.18671e-07
7.1875e-07
7.16632e-07
7.15844e-07
7.14362e-07
7.11763e-07
7.07384e-07
7.0269e-07
6.96453e-07
6.8943e-07
6.83738e-07
6.78807e-07
6.79478e-07
6.80347e-07
6.82184e-07
6.84417e-07
6.84163e-07
6.77769e-07
5.94311e-07
3.30612e-07
0.999996
0.999995
0.999994
0.999993
0.999992
0.999991
0.999991
0.999991
0.999991
0.99999
0.99999
0.99999
0.99999
0.99999
0.99999
0.99999
0.99999
0.99999
0.99999
0.99999
0.99999
0.99999
0.99999
0.99999
0.99999
0.99999
0.99999
0.99999
0.99999
0.99999
0.99999
0.99999
0.99999
0.99999
0.99999
0.99999
0.99999
0.99999
0.99999
0.99999
0.99999
0.99999
0.99999
0.99999
0.99999
0.99999
0.99999
0.99999
0.99999
0.999987
0.999979
0.999966
0.999953
0.999927
0.99989
0.999877
0.999821
0.999616
0.999054
0.898823
0.029511
2.68917e-06
5.76947e-07
1.00041e-06
1.44228e-06
8.81992e-07
5.7956e-07
6.50865e-07
7.19143e-07
7.65823e-07
7.74541e-07
7.92594e-07
8.53247e-07
1.01609e-06
1.23628e-06
9.95407e-07
7.98082e-07
8.44398e-07
8.27431e-07
7.65751e-07
7.1722e-07
7.04335e-07
6.84549e-07
6.80898e-07
6.54389e-07
6.22173e-07
6.03779e-07
5.87149e-07
5.83129e-07
5.88103e-07
6.04628e-07
6.30869e-07
6.62019e-07
6.6918e-07
6.09605e-07
3.73758e-07
0.999997
0.999995
0.999994
0.999993
0.999992
0.999992
0.999992
0.999991
0.999991
0.999991
0.99999
0.99999
0.99999
0.99999
0.99999
0.99999
0.99999
0.99999
0.99999
0.99999
0.99999
0.99999
0.99999
0.99999
0.99999
0.99999
0.99999
0.99999
0.99999
0.99999
0.99999
0.99999
0.99999
0.99999
0.99999
0.99999
0.99999
0.99999
0.99999
0.99999
0.99999
0.99999
0.99999
0.99999
0.99999
0.99999
0.99999
0.99999
0.99999
0.999989
0.999984
0.99997
0.999956
0.999938
0.999878
0.999859
0.999764
0.999764
0.999867
0.859328
0.00242761
2.95896e-05
3.57487e-05
3.65918e-05
3.65907e-05
3.61131e-05
3.49345e-05
2.8584e-05
2.29164e-05
2.08015e-05
2.00999e-05
1.9605e-05
1.97018e-05
2.04003e-05
2.11417e-05
1.72754e-05
9.81102e-06
5.76077e-06
3.20244e-06
1.67794e-06
1.03839e-06
8.77615e-07
7.4802e-07
7.26029e-07
6.41481e-07
5.93109e-07
5.75708e-07
5.58283e-07
5.49382e-07
5.49968e-07
5.57258e-07
5.81276e-07
6.25823e-07
6.52605e-07
6.05699e-07
4.04616e-07
0.999997
0.999996
0.999995
0.999994
0.999993
0.999993
0.999992
0.999991
0.999991
0.999991
0.99999
0.99999
0.99999
0.99999
0.99999
0.99999
0.99999
0.99999
0.99999
0.99999
0.99999
0.99999
0.99999
0.99999
0.99999
0.99999
0.99999
0.99999
0.99999
0.99999
0.99999
0.99999
0.99999
0.99999
0.99999
0.99999
0.99999
0.99999
0.99999
0.99999
0.99999
0.99999
0.99999
0.99999
0.99999
0.99999
0.99999
0.99999
0.999989
0.999988
0.999984
0.999973
0.999955
0.999917
0.999856
0.999845
0.999845
0.999891
0.999954
0.818026
0.00250323
0.000940962
0.00105278
0.00105255
0.00105284
0.00112094
0.00117765
0.0012087
0.00117833
0.00102532
0.000966681
0.000963079
0.00104863
0.00127138
0.00136253
0.00097155
0.000667572
0.000516394
0.000357489
0.00019532
9.30704e-05
3.87175e-05
1.2152e-05
2.97068e-06
9.30774e-07
6.49435e-07
6.95535e-07
5.53402e-07
5.44863e-07
5.50085e-07
5.58083e-07
5.72923e-07
6.08659e-07
6.36594e-07
5.93973e-07
4.02719e-07
0.999997
0.999997
0.999995
0.999994
0.999994
0.999993
0.999992
0.999992
0.999991
0.999991
0.99999
0.99999
0.99999
0.99999
0.99999
0.99999
0.99999
0.99999
0.99999
0.99999
0.99999
0.99999
0.99999
0.99999
0.99999
0.99999
0.99999
0.99999
0.99999
0.99999
0.99999
0.99999
0.99999
0.99999
0.99999
0.99999
0.99999
0.99999
0.99999
0.99999
0.99999
0.99999
0.99999
0.99999
0.99999
0.99999
0.99999
0.99999
0.999989
0.999987
0.999982
0.999975
0.999964
0.999892
0.999862
0.999861
0.999867
0.999871
0.99996
0.748388
0.0128686
0.00767478
0.00812053
0.00765258
0.0069805
0.00692526
0.00825798
0.0104734
0.0117645
0.0121509
0.0114427
0.0107176
0.010147
0.0120365
0.0130582
0.00921934
0.00781173
0.00733271
0.00622145
0.00462953
0.0032406
0.00181755
0.000758608
0.000247896
6.44161e-05
1.20964e-05
1.56116e-06
4.62133e-07
4.93911e-07
5.57845e-07
5.64272e-07
5.76829e-07
6.04434e-07
6.24742e-07
5.75274e-07
3.96516e-07
0.999997
0.999997
0.999996
0.999995
0.999994
0.999993
0.999992
0.999992
0.999991
0.999991
0.99999
0.99999
0.99999
0.99999
0.99999
0.99999
0.99999
0.99999
0.99999
0.99999
0.99999
0.99999
0.99999
0.99999
0.99999
0.99999
0.99999
0.99999
0.99999
0.99999
0.99999
0.99999
0.99999
0.99999
0.99999
0.99999
0.99999
0.99999
0.99999
0.99999
0.99999
0.99999
0.99999
0.99999
0.99999
0.99999
0.99999
0.99999
0.999989
0.999986
0.999979
0.999971
0.999966
0.999932
0.99985
0.999825
0.999842
0.999876
0.999969
0.711389
0.0319583
0.0230006
0.0250394
0.0251886
0.0250961
0.0251097
0.025314
0.0259466
0.0262774
0.0265218
0.0267689
0.0269374
0.0270558
0.0267944
0.0256167
0.0250997
0.0242705
0.0233501
0.0231995
0.0234223
0.0217379
0.0161868
0.0098854
0.00543898
0.00277154
0.00114779
0.00031084
4.52737e-05
3.8735e-06
2.92389e-07
5.72337e-07
5.79424e-07
5.93115e-07
5.69676e-07
5.1239e-07
3.60862e-07
0.999997
0.999997
0.999996
0.999995
0.999994
0.999993
0.999993
0.999992
0.999991
0.999991
0.99999
0.99999
0.99999
0.99999
0.99999
0.99999
0.99999
0.99999
0.99999
0.99999
0.99999
0.99999
0.99999
0.99999
0.99999
0.99999
0.99999
0.99999
0.99999
0.99999
0.99999
0.99999
0.99999
0.99999
0.99999
0.99999
0.99999
0.99999
0.99999
0.99999
0.99999
0.99999
0.99999
0.99999
0.99999
0.99999
0.99999
0.99999
0.999989
0.999986
0.999978
0.999967
0.999961
0.999951
0.999895
0.999812
0.999791
0.999853
0.999975
0.715433
0.0396941
0.0284631
0.0308562
0.0310353
0.0309964
0.0306027
0.030502
0.0302796
0.0303845
0.0308752
0.0316041
0.0319147
0.0318237
0.0317123
0.032147
0.0332245
0.0338504
0.0345488
0.0371032
0.0405423
0.0417606
0.0399606
0.0332177
0.0277048
0.023117
0.0178967
0.0116761
0.00613546
0.00270025
0.00146041
0.00194748
0.00248526
0.00339848
0.00456723
0.00653605
0.00851376
0.999997
0.999998
0.999997
0.999996
0.999995
0.999994
0.999993
0.999992
0.999991
0.999991
0.99999
0.99999
0.99999
0.99999
0.99999
0.99999
0.99999
0.99999
0.99999
0.99999
0.99999
0.99999
0.99999
0.99999
0.99999
0.99999
0.99999
0.99999
0.99999
0.99999
0.99999
0.99999
0.99999
0.99999
0.99999
0.99999
0.99999
0.99999
0.99999
0.99999
0.99999
0.99999
0.99999
0.99999
0.99999
0.99999
0.99999
0.99999
0.99999
0.999986
0.999978
0.999965
0.999957
0.99994
0.999922
0.999881
0.999756
0.999756
0.999985
0.755648
0.0353349
0.0210956
0.021338
0.019855
0.0190906
0.0188348
0.0187424
0.0189164
0.0190025
0.0196931
0.0218076
0.0234109
0.0246865
0.0265399
0.0293331
0.0321423
0.0340175
0.0357841
0.0391802
0.0442889
0.0474026
0.0480254
0.0478905
0.0491971
0.0529162
0.0561006
0.0594877
0.0632929
0.0675406
0.0733795
0.0813614
0.0915942
0.105516
0.131633
0.185487
0.371283
0.999997
0.999998
0.999997
0.999997
0.999996
0.999994
0.999993
0.999992
0.999991
0.999991
0.99999
0.99999
0.99999
0.99999
0.99999
0.99999
0.99999
0.99999
0.99999
0.99999
0.99999
0.99999
0.99999
0.99999
0.99999
0.99999
0.99999
0.99999
0.99999
0.99999
0.99999
0.99999
0.99999
0.99999
0.99999
0.99999
0.99999
0.99999
0.99999
0.99999
0.99999
0.99999
0.99999
0.99999
0.99999
0.99999
0.99999
0.99999
0.99999
0.999987
0.999979
0.999967
0.999955
0.999932
0.99992
0.999889
0.999749
0.999725
0.999958
0.820748
0.021538
0.00523541
0.00444664
0.0032513
0.00272409
0.00221675
0.00196136
0.00181008
0.00179598
0.00200214
0.0024166
0.00302581
0.00369994
0.00459936
0.00575781
0.00730251
0.0100158
0.0134047
0.0165604
0.0200074
0.0242849
0.0298666
0.0364706
0.0434256
0.0509038
0.0572065
0.0636441
0.0702584
0.0756019
0.079272
0.0820156
0.0841167
0.0851059
0.0831672
0.0744388
0.0639005
0.999997
0.999998
0.999998
0.999997
0.999996
0.999995
0.999993
0.999992
0.999991
0.999991
0.99999
0.99999
0.99999
0.99999
0.99999
0.99999
0.99999
0.99999
0.99999
0.99999
0.99999
0.99999
0.99999
0.99999
0.99999
0.99999
0.99999
0.99999
0.99999
0.99999
0.99999
0.99999
0.99999
0.99999
0.99999
0.99999
0.99999
0.99999
0.99999
0.99999
0.99999
0.99999
0.99999
0.99999
0.99999
0.99999
0.99999
0.99999
0.99999
0.999987
0.99998
0.999968
0.999952
0.99993
0.999918
0.999877
0.99974
0.9997
0.999922
0.875433
0.0117344
0.000480664
0.000417587
0.000304063
0.000334758
0.000335269
0.000298211
0.000291551
0.000296358
0.000297572
0.000346616
0.000396149
0.000451085
0.000602725
0.00081271
0.00103659
0.0014565
0.00196595
0.00233825
0.00301621
0.00412895
0.00547546
0.00726424
0.00934725
0.0123012
0.016521
0.020839
0.0241664
0.0258717
0.0263793
0.0238255
0.0206105
0.0184552
0.011489
0.00439416
0.00160401
0.999998
0.999998
0.999998
0.999998
0.999997
0.999996
0.999994
0.999992
0.999991
0.999991
0.99999
0.99999
0.99999
0.99999
0.99999
0.99999
0.99999
0.99999
0.99999
0.99999
0.99999
0.99999
0.99999
0.99999
0.99999
0.99999
0.99999
0.99999
0.99999
0.99999
0.99999
0.99999
0.99999
0.99999
0.99999
0.99999
0.99999
0.99999
0.99999
0.99999
0.99999
0.99999
0.99999
0.99999
0.99999
0.99999
0.99999
0.99999
0.99999
0.999988
0.999981
0.99997
0.999958
0.99994
0.999914
0.999879
0.999781
0.999485
0.999827
0.926989
0.0134404
1.61498e-05
3.00615e-05
2.28494e-05
2.29603e-05
2.16554e-05
2.23926e-05
2.30636e-05
2.51253e-05
2.91796e-05
3.5665e-05
4.15637e-05
4.55079e-05
4.9092e-05
5.86504e-05
8.32982e-05
0.000114504
0.000134231
0.000148221
0.000186587
0.000257624
0.000342714
0.000441395
0.000567907
0.000769586
0.000982115
0.00110567
0.00114223
0.00103187
0.000878438
0.000715938
0.000473873
0.00027495
0.000112781
2.00813e-05
4.39016e-06
0.999998
0.999998
0.999998
0.999998
0.999998
0.999996
0.999994
0.999992
0.999991
0.99999
0.99999
0.99999
0.99999
0.99999
0.99999
0.99999
0.99999
0.99999
0.99999
0.99999
0.99999
0.99999
0.99999
0.99999
0.99999
0.99999
0.99999
0.99999
0.99999
0.99999
0.99999
0.99999
0.99999
0.99999
0.99999
0.99999
0.99999
0.99999
0.99999
0.99999
0.99999
0.99999
0.99999
0.99999
0.99999
0.99999
0.99999
0.99999
0.99999
0.999988
0.999982
0.999971
0.999958
0.999938
0.999932
0.999889
0.999814
0.999344
0.999241
0.955144
0.040231
3.19871e-07
1.50269e-06
3.19257e-07
9.90351e-07
8.44731e-07
7.78287e-07
7.79022e-07
8.27586e-07
8.11994e-07
7.14193e-07
5.40338e-07
1.06556e-06
1.38491e-06
7.39246e-07
5.76971e-07
1.78233e-06
3.74007e-06
3.08995e-06
2.61577e-06
2.58796e-06
2.85802e-06
3.2573e-06
3.7027e-06
4.15847e-06
4.1985e-06
4.12241e-06
3.57593e-06
2.69497e-06
1.94978e-06
1.33843e-06
9.98633e-07
7.98449e-07
8.87213e-07
5.99911e-07
4.67702e-07
0.999998
0.999998
0.999998
0.999998
0.999998
0.999997
0.999995
0.999992
0.999991
0.99999
0.99999
0.99999
0.99999
0.99999
0.99999
0.99999
0.99999
0.99999
0.99999
0.99999
0.99999
0.99999
0.99999
0.99999
0.99999
0.99999
0.99999
0.99999
0.99999
0.99999
0.99999
0.99999
0.99999
0.99999
0.99999
0.99999
0.99999
0.99999
0.99999
0.99999
0.99999
0.99999
0.99999
0.99999
0.99999
0.99999
0.99999
0.99999
0.99999
0.999988
0.999984
0.999973
0.999959
0.999936
0.999926
0.999903
0.999747
0.999272
0.998346
0.955636
0.0544763
3.19871e-07
3.64667e-07
3.97036e-07
4.62895e-07
5.97164e-07
6.93446e-07
7.56514e-07
7.5419e-07
7.33164e-07
7.10819e-07
6.9659e-07
6.6371e-07
6.0687e-07
5.33141e-07
5.2153e-07
5.34889e-07
5.63481e-07
5.80389e-07
5.49731e-07
5.02534e-07
4.82532e-07
5.08479e-07
5.43078e-07
5.44667e-07
5.02042e-07
4.15182e-07
3.0057e-07
2.54482e-07
2.54653e-07
2.55128e-07
2.59561e-07
2.49064e-07
2.38127e-07
2.31992e-07
2.16662e-07
0.999998
0.999999
0.999999
0.999999
0.999999
0.999998
0.999995
0.999992
0.999991
0.99999
0.99999
0.99999
0.99999
0.99999
0.99999
0.99999
0.99999
0.99999
0.99999
0.99999
0.99999
0.99999
0.99999
0.99999
0.99999
0.99999
0.99999
0.99999
0.99999
0.99999
0.99999
0.99999
0.99999
0.99999
0.99999
0.99999
0.99999
0.99999
0.99999
0.99999
0.99999
0.99999
0.99999
0.99999
0.99999
0.99999
0.99999
0.99999
0.99999
0.999989
0.999984
0.999975
0.99996
0.999936
0.999924
0.999915
0.999705
0.999191
0.998145
0.945106
0.0400627
3.19872e-07
3.25521e-07
3.49858e-07
3.85104e-07
4.79813e-07
5.93426e-07
6.7544e-07
7.33245e-07
7.2976e-07
7.1131e-07
7.02071e-07
6.99939e-07
6.86811e-07
6.56209e-07
5.9833e-07
5.48642e-07
5.59065e-07
5.79382e-07
5.59081e-07
4.94146e-07
4.68174e-07
4.68283e-07
4.89257e-07
4.97941e-07
4.69188e-07
4.00845e-07
3.36695e-07
2.90651e-07
2.65132e-07
2.47551e-07
2.37516e-07
2.31464e-07
2.26407e-07
2.18064e-07
2.03179e-07
0.999998
0.999998
0.999999
0.999999
0.999999
0.999999
0.999997
0.999994
0.999991
0.99999
0.99999
0.99999
0.99999
0.99999
0.99999
0.99999
0.99999
0.99999
0.99999
0.99999
0.99999
0.99999
0.99999
0.99999
0.99999
0.99999
0.99999
0.99999
0.99999
0.99999
0.99999
0.99999
0.99999
0.99999
0.99999
0.99999
0.99999
0.99999
0.99999
0.99999
0.99999
0.99999
0.99999
0.99999
0.99999
0.99999
0.99999
0.99999
0.99999
0.999989
0.999984
0.999974
0.999958
0.999938
0.999928
0.999907
0.999646
0.999055
0.997286
0.939868
0.0653988
3.19872e-07
3.64792e-07
4.00884e-07
4.20217e-07
4.67562e-07
5.33776e-07
5.9698e-07
6.42142e-07
6.76559e-07
6.95556e-07
6.89756e-07
6.74619e-07
6.71183e-07
6.7415e-07
6.66846e-07
6.23975e-07
5.75519e-07
5.80606e-07
5.65107e-07
4.94452e-07
4.67618e-07
4.59038e-07
4.62061e-07
4.66108e-07
4.3279e-07
3.74124e-07
3.34304e-07
3.17778e-07
3.15069e-07
3.13747e-07
3.08475e-07
2.90439e-07
2.79434e-07
2.70526e-07
2.3214e-07
0.999999
0.999998
0.999998
0.999999
0.999999
0.999999
0.999999
0.999996
0.999991
0.99999
0.99999
0.99999
0.99999
0.99999
0.99999
0.99999
0.99999
0.99999
0.99999
0.99999
0.99999
0.99999
0.99999
0.99999
0.99999
0.99999
0.99999
0.99999
0.99999
0.99999
0.99999
0.99999
0.99999
0.99999
0.99999
0.99999
0.99999
0.99999
0.99999
0.99999
0.99999
0.99999
0.99999
0.99999
0.99999
0.99999
0.99999
0.99999
0.99999
0.999989
0.999984
0.999973
0.999958
0.999941
0.999931
0.99987
0.999722
0.998997
0.997778
0.939569
0.0570129
0.00023256
3.75458e-07
4.53626e-07
4.66619e-07
4.70743e-07
4.80669e-07
4.98468e-07
5.21771e-07
5.49019e-07
5.77208e-07
5.98875e-07
6.16179e-07
6.30981e-07
6.50692e-07
6.66894e-07
6.50384e-07
5.93428e-07
5.86703e-07
5.73414e-07
4.98881e-07
4.71653e-07
4.60751e-07
4.53497e-07
4.49097e-07
4.25413e-07
3.85584e-07
3.57454e-07
3.47465e-07
3.44967e-07
3.43113e-07
3.41807e-07
3.4393e-07
3.44987e-07
3.17935e-07
2.4528e-07
0.999996
0.999995
0.999994
0.999994
0.999993
0.999993
0.999991
0.99999