/*--------------------------------*- C++ -*----------------------------------*\
| =========                 |                                                 |
| \\      /  F ield         | OpenFOAM: The Open Source CFD Toolbox           |
|  \\    /   O peration     | Version:  2.3.0                                 |
|   \\  /    A nd           | Web:      www.OpenFOAM.org                      |
|    \\/     M anipulation  |                                                 |
\*---------------------------------------------------------------------------*/
FoamFile
{
    version     2.0;
    format      ascii;
    class       surfaceScalarField;
    location    "35";
    object      phi;
}
// * * * * * * * * * * * * * * * * * * * * * * * * * * * * * * * * * * * * * //

dimensions      [0 3 -1 0 0 0 0];

internalField   nonuniform List<scalar> 
16448
(
-1.05333e-06
-2.52619e-06
3.94378e-07
1.11561e-06
-2.73252e-06
5.63577e-07
1.0681e-06
-9.82475e-07
1.02998e-06
8.18096e-07
-7.97133e-07
1.04713e-06
3.3453e-07
-4.92218e-07
9.75779e-07
8.57407e-08
-6.47006e-07
8.9579e-07
-2.64389e-08
-6.33767e-07
7.45942e-07
-5.63648e-08
-5.87584e-07
6.17505e-07
-1.48686e-07
-4.39629e-07
5.31945e-07
-3.32616e-07
-3.20622e-07
5.04546e-07
-5.28686e-07
-2.49795e-07
4.45858e-07
-6.26066e-07
-2.6053e-07
3.57902e-07
-6.13252e-07
-3.10897e-07
2.98076e-07
-5.01954e-07
-3.62729e-07
2.51423e-07
-3.6745e-07
-3.89162e-07
2.5465e-07
-2.24391e-07
-4.14319e-07
2.71251e-07
-1.0583e-07
-4.25463e-07
3.06894e-07
-1.14461e-08
-4.38163e-07
3.43769e-07
5.11701e-08
-4.47014e-07
3.84389e-07
8.24104e-08
-4.52117e-07
4.20867e-07
9.10222e-08
-4.58591e-07
4.49971e-07
8.50138e-08
-4.61359e-07
4.67359e-07
7.00461e-08
-4.59282e-07
4.74244e-07
5.0337e-08
-4.53062e-07
4.72763e-07
2.89723e-08
-4.43224e-07
4.64583e-07
8.21003e-09
-4.30468e-07
4.51224e-07
-1.0563e-08
-4.15296e-07
4.34064e-07
-2.47472e-08
-4.01348e-07
4.15526e-07
-3.21733e-08
-3.88494e-07
3.95916e-07
-3.26591e-08
-3.76006e-07
3.76487e-07
-2.90438e-08
-3.62536e-07
3.58917e-07
-2.47274e-08
-3.4763e-07
3.43311e-07
-2.0183e-08
-3.3205e-07
3.27502e-07
-1.18232e-08
-3.17912e-07
3.0955e-07
6.93843e-09
-3.07663e-07
2.88898e-07
4.22066e-08
-3.03021e-07
2.67751e-07
9.58312e-08
-3.05238e-07
2.51608e-07
1.64396e-07
-3.14693e-07
2.46127e-07
2.42768e-07
-3.33404e-07
2.55025e-07
3.27781e-07
-3.65511e-07
2.80496e-07
4.08469e-07
-4.11679e-07
3.30982e-07
4.76943e-07
-4.90706e-07
4.2223e-07
5.54384e-07
-6.15137e-07
5.37685e-07
7.59044e-07
-8.61369e-07
6.56707e-07
1.08099e-06
-1.09012e-06
7.68163e-07
1.03707e-06
-9.8393e-07
1.02784e-06
4.84147e-07
-6.67473e-07
1.22039e-06
-3.16648e-07
-5.94599e-07
1.3954e-06
-3.21774e-06
9.7222e-07
1.92886e-06
-7.67991e-06
2.40769e-06
2.05449e-06
-1.03339e-05
5.55985e-07
2.09801e-06
-7.91167e-06
-5.18038e-06
2.75817e-06
-2.80539e-07
-1.14463e-05
3.81512e-06
6.11027e-06
-1.04409e-05
4.05004e-06
8.65139e-06
-8.65617e-06
6.115e-06
1.00467e-05
-6.1919e-06
4.79649e-06
2.70037e-06
-1.59532e-06
8.94158e-06
8.06322e-06
-7.58006e-06
2.21703e-06
-1.30146e-05
1.1847e-05
9.23067e-06
2.3361e-07
-9.84454e-06
-3.40385e-06
3.38951e-05
-3.68354e-05
3.17391e-06
4.45834e-05
-1.64665e-05
5.77817e-06
4.24911e-05
-4.7392e-06
6.83154e-06
4.33011e-05
-4.38468e-06
3.57469e-06
4.34368e-05
-2.36489e-06
2.22914e-06
4.39573e-05
-1.65744e-06
1.13692e-06
4.39458e-05
-4.66792e-07
4.7836e-07
4.3824e-05
-3.01461e-07
4.23253e-07
4.34893e-05
-3.63182e-07
6.97842e-07
4.28853e-05
-5.88636e-07
1.19266e-06
4.2435e-05
-1.63495e-06
2.08519e-06
4.16402e-05
-2.2431e-06
3.03791e-06
3.98496e-05
-1.55263e-06
3.34324e-06
3.70631e-05
6.22838e-09
2.78027e-06
3.33202e-05
1.91307e-06
1.82979e-06
2.96086e-05
2.61862e-06
1.09298e-06
2.61034e-05
2.72015e-06
7.85096e-07
2.43739e-05
2.46166e-06
-7.32165e-07
2.33193e-05
2.69011e-06
-1.63551e-06
2.11897e-05
3.7317e-06
-1.60211e-06
1.74193e-05
5.18487e-06
-1.41447e-06
1.15153e-05
5.16491e-06
7.39043e-07
6.11224e-06
3.49117e-06
1.91191e-06
3.2301e-06
9.49455e-07
1.93269e-06
1.10611e-06
-9.31976e-07
3.05597e-06
-1.97409e-06
-1.47042e-06
4.55062e-06
-5.21066e-06
-1.98923e-06
5.2258e-06
-7.37868e-06
-2.49824e-06
4.66627e-06
-7.90106e-06
-3.16957e-06
3.69195e-06
-7.78957e-06
-2.52869e-06
2.41721e-06
-7.00836e-06
-1.96299e-06
1.18179e-06
-5.43392e-06
-1.66113e-06
8.66846e-08
-3.81952e-06
-8.34294e-07
-7.801e-07
-2.44862e-06
-7.73222e-07
-5.97672e-07
-1.98629e-06
3.60215e-07
-8.22545e-07
-2.00805e-07
-1.78549e-06
-1.55128e-06
-3.5522e-06
-3.18881e-07
8.1416e-08
-3.96242e-06
-4.02797e-07
4.06908e-07
-1.88677e-06
5.78796e-07
5.0906e-07
-1.45743e-06
5.58143e-07
3.3848e-07
-7.30953e-07
4.09308e-07
1.77828e-07
-7.70748e-07
2.84388e-07
3.88355e-08
-6.1739e-07
1.2261e-07
-7.25242e-08
-5.45071e-07
6.88403e-08
-2.51534e-07
-3.39347e-07
7.87185e-08
-5.07293e-07
-1.88599e-07
1.23727e-07
-7.2262e-07
-1.22097e-07
8.76185e-08
-8.07425e-07
-1.86999e-07
1.1262e-08
-7.84434e-07
-2.78829e-07
-5.5071e-08
-6.69375e-07
-3.72265e-07
-1.05536e-07
-5.23762e-07
-4.19432e-07
-1.15357e-07
-3.666e-07
-4.60566e-07
-1.1093e-07
-2.30238e-07
-4.74832e-07
-8.70069e-08
-1.15365e-07
-4.90814e-07
-6.2236e-08
-3.03557e-08
-4.98277e-07
-3.37599e-08
2.25697e-08
-4.97756e-07
-7.29866e-09
4.88009e-08
-4.95475e-07
1.06407e-08
5.66244e-08
-4.88937e-07
1.97433e-08
5.18628e-08
-4.77626e-07
2.3094e-08
3.9188e-08
-4.62145e-07
2.17483e-08
2.21943e-08
-4.43087e-07
1.68472e-08
3.90324e-09
-4.21388e-07
9.20241e-09
-1.35193e-08
-3.97485e-07
-3.96832e-10
-2.57063e-08
-3.73945e-07
-1.5223e-08
-3.10675e-08
-3.52795e-07
-3.03446e-08
-3.02976e-08
-3.31892e-07
-4.48901e-08
-2.62833e-08
-3.0846e-07
-5.80958e-08
-2.09335e-08
-2.82641e-07
-7.03447e-08
-1.28929e-08
-2.5719e-07
-8.29058e-08
5.71078e-10
-2.35428e-07
-9.59536e-08
2.14948e-08
-2.19883e-07
-1.08709e-07
5.11146e-08
-2.13608e-07
-1.1904e-07
8.89142e-08
-2.1784e-07
-1.25203e-07
1.33392e-07
-2.34165e-07
-1.25015e-07
1.81243e-07
-2.65691e-07
-1.15572e-07
2.27497e-07
-3.19095e-07
-9.26807e-08
2.62752e-07
-3.97246e-07
-4.96979e-08
2.80463e-07
-5.27987e-07
1.95545e-08
3.42257e-07
-7.64369e-07
8.74266e-08
5.41949e-07
-1.21961e-06
1.58527e-07
8.6616e-07
-1.68877e-06
2.74426e-07
8.71244e-07
-1.62842e-06
6.39385e-07
-9.52371e-07
-6.54942e-08
1.22163e-06
-6.03019e-06
2.29767e-06
2.18555e-06
-1.07544e-05
3.92036e-06
1.77609e-06
-1.08791e-05
2.45205e-06
8.03497e-08
-5.88551e-06
-3.56858e-06
-8.69021e-07
2.12509e-06
-1.24606e-05
-7.30389e-07
7.31981e-06
-1.90805e-05
2.43954e-06
1.22495e-05
-1.71106e-05
1.74001e-06
1.49966e-05
-1.36107e-05
2.20734e-06
1.94938e-05
-1.18213e-05
1.1321e-06
1.64644e-05
-2.3884e-06
3.82233e-06
1.89346e-05
-1.30559e-05
3.00545e-06
-9.17103e-06
2.29889e-05
1.69633e-05
5.76905e-07
-2.10821e-05
1.48919e-06
1.47677e-05
-4.92807e-05
-1.74561e-06
1.31433e-05
-1.59526e-05
1.11049e-06
1.32183e-05
-4.60949e-06
-2.04707e-07
1.4942e-05
-1.50752e-06
-4.60084e-06
1.63923e-05
1.95874e-06
-5.77388e-06
1.84593e-05
7.6268e-07
-4.48708e-06
1.93251e-05
1.7497e-06
-3.08239e-06
2.02124e-05
1.62151e-06
-2.81023e-06
2.03029e-05
1.99151e-06
-2.44519e-06
1.85493e-05
2.53921e-06
-1.37425e-06
1.5707e-05
1.10002e-06
1.07335e-07
1.4148e-05
-1.59012e-06
9.06001e-07
1.48596e-05
-2.14768e-06
-1.16531e-07
1.64726e-05
-3.08374e-07
-1.29843e-06
1.81224e-05
2.12767e-06
-1.86441e-06
1.963e-05
4.04848e-06
-2.93742e-06
2.04454e-05
4.95349e-06
-3.04875e-06
2.10379e-05
5.62294e-06
-3.75382e-06
2.09018e-05
6.37808e-06
-3.5519e-06
1.89832e-05
7.97491e-06
-2.32456e-06
1.68533e-05
9.29318e-06
-1.97851e-06
1.47191e-05
9.15093e-06
-1.85176e-06
1.28724e-05
5.98696e-06
-6.49063e-07
1.17054e-05
1.71221e-06
4.04164e-07
1.03427e-05
-1.16974e-06
1.6005e-06
8.17889e-06
-2.76178e-06
3.45517e-06
6.20089e-06
-4.53926e-06
4.52803e-06
4.12145e-06
-5.0381e-06
4.61929e-06
9.04777e-07
-4.72287e-06
4.76997e-06
-3.12504e-06
-3.29638e-06
4.7975e-06
-4.67303e-06
-3.70079e-06
3.2858e-06
-3.62094e-06
-3.43456e-06
7.21349e-07
-1.24402e-06
-1.70661e-06
-1.5046e-06
7.82847e-08
-8.21152e-07
-1.27438e-06
7.0694e-07
1.11476e-06
-1.3832e-06
2.61482e-06
-2.10869e-06
-1.93265e-06
-3.82998e-06
-5.47094e-07
-6.61144e-07
-4.37171e-06
-8.6222e-07
-1.96777e-07
-2.47037e-06
1.19234e-07
5.63614e-08
-1.83275e-06
1.22174e-07
3.94081e-08
-7.42923e-07
2.89208e-08
-8.32776e-08
-6.16385e-07
-3.16798e-08
-1.43264e-07
-3.84758e-07
-1.72649e-07
-2.14654e-07
-2.76077e-07
-1.9761e-07
-3.25075e-07
-5.8401e-08
-1.70534e-07
-4.86001e-07
8.37696e-08
-1.11454e-07
-6.42569e-07
1.44237e-07
-1.09778e-07
-7.19196e-07
5.13561e-08
-1.61741e-07
-7.30363e-07
-4.70549e-08
-2.20622e-07
-6.80987e-07
-1.53802e-07
-2.67853e-07
-5.94802e-07
-2.14186e-07
-2.91445e-07
-4.85627e-07
-2.63053e-07
-3.06702e-07
-3.79765e-07
-2.76968e-07
-3.0374e-07
-2.82017e-07
-2.91242e-07
-2.97334e-07
-1.97575e-07
-2.95132e-07
-2.876e-07
-1.27973e-07
-2.89561e-07
-2.77811e-07
-7.84858e-08
-2.75509e-07
-2.69464e-07
-4.68297e-08
-2.57272e-07
-2.63334e-07
-2.93634e-08
-2.35683e-07
-2.59419e-07
-2.2251e-08
-2.11282e-07
-2.57986e-07
-2.16421e-08
-1.85208e-07
-2.58496e-07
-2.39578e-08
-1.5857e-07
-2.6051e-07
-2.61479e-08
-1.31683e-07
-2.63618e-07
-2.76846e-08
-1.04885e-07
-2.67529e-07
-2.82066e-08
-8.02952e-08
-2.71982e-07
-2.83003e-08
-5.55567e-08
-2.76245e-07
-2.82073e-08
-2.8026e-08
-2.8053e-07
-2.56241e-08
-1.35629e-10
-2.85091e-07
-2.2536e-08
3.00642e-08
-2.90345e-07
-1.85497e-08
5.4592e-08
-2.94008e-07
-1.73478e-08
7.39251e-08
-2.95013e-07
-2.22545e-08
8.53134e-08
-2.94016e-07
-3.51076e-08
8.61077e-08
-2.91098e-07
-5.67469e-08
7.3749e-08
-2.86276e-07
-8.88426e-08
4.43325e-08
-2.77933e-07
-1.32786e-07
-1.2476e-08
-2.62679e-07
-1.84159e-07
-1.06844e-07
-2.39038e-07
-2.23372e-07
-2.87778e-07
-2.01e-07
-1.64605e-07
-6.75496e-07
-1.47652e-07
6.00442e-08
-1.41259e-06
-3.16701e-08
4.57867e-07
-2.23887e-06
1.52267e-07
4.10388e-07
-2.19745e-06
6.16508e-07
-2.09831e-06
1.0569e-06
1.3863e-06
-7.19564e-06
5.35312e-06
2.04188e-06
-1.06363e-05
6.01316e-06
1.34791e-06
-8.8116e-06
1.83084e-06
-1.2035e-06
-5.80181e-07
-8.83512e-06
-2.96487e-06
5.68873e-06
-1.75046e-05
-1.22493e-06
4.68098e-06
-2.24068e-05
4.33395e-06
4.32565e-06
-2.02506e-05
3.49524e-06
6.95041e-06
-1.87135e-05
2.47803e-06
1.31739e-05
-1.71362e-05
-9.08645e-07
1.7265e-05
-3.06908e-06
-3.41038e-06
2.55429e-05
-2.09538e-05
-3.80298e-07
1.08069e-06
3.32144e-05
1.42357e-05
-7.15382e-07
-2.50624e-05
5.77605e-06
-3.35026e-06
-4.86748e-05
2.02903e-06
-2.59393e-06
-1.68615e-05
1.52548e-07
2.60034e-06
-1.41358e-05
4.33204e-06
1.69265e-06
-1.49059e-06
8.90757e-07
7.2347e-06
-1.255e-06
-2.3283e-06
5.88179e-06
9.92937e-07
1.12267e-06
6.54808e-06
2.84309e-07
7.991e-07
6.65268e-06
3.28986e-07
1.18794e-06
5.46509e-06
7.953e-07
2.3838e-06
2.80519e-06
2.4918e-06
2.70732e-06
-8.42259e-07
1.51706e-06
3.2304e-06
-3.86264e-06
-1.27288e-06
2.70314e-06
-4.67666e-06
-3.23189e-06
1.89822e-06
-2.83909e-06
-3.39938e-06
1.25344e-06
7.50634e-07
-1.56553e-06
1.03474e-07
5.36701e-06
1.69601e-06
-2.2639e-06
8.76378e-06
4.57907e-06
-3.02235e-06
1.1395e-05
5.88974e-06
-2.89798e-06
1.29825e-05
7.47201e-06
-2.68145e-06
1.25221e-05
1.0413e-05
-1.97772e-06
1.20268e-05
1.19552e-05
-2.1667e-06
1.25613e-05
1.10271e-05
-2.41068e-06
1.25579e-05
6.80088e-06
-8.10536e-07
1.17846e-05
2.61125e-06
-1.25795e-07
1.07954e-05
-3.5313e-08
-1.45142e-07
9.47813e-06
-2.72725e-06
1.28271e-06
7.84595e-06
-5.31859e-06
2.41151e-06
6.81891e-06
-6.13506e-06
2.12401e-06
4.60151e-06
-5.04612e-06
2.54066e-06
9.51986e-08
-2.4081e-06
3.61803e-06
-2.71059e-06
-3.00729e-06
2.11229e-06
-2.77315e-06
-3.25349e-06
-1.18518e-07
-9.46227e-07
-1.47863e-06
-2.0549e-06
-3.27784e-09
3.87199e-08
-1.80282e-06
3.89038e-07
1.76347e-06
-1.04102e-06
4.60195e-06
-1.59808e-06
-2.41937e-06
-3.86651e-06
-3.58331e-07
-1.19205e-06
-4.53692e-06
-1.06211e-06
-7.4415e-07
-2.87504e-06
-4.32256e-08
-3.20458e-07
-2.31137e-06
5.49295e-08
-2.04843e-07
-8.71258e-07
1.27214e-08
-2.6596e-07
-5.13122e-07
-4.21464e-08
-2.9302e-07
-1.65821e-07
-1.91879e-07
-2.69574e-07
-6.62962e-08
-2.33235e-07
-2.64609e-07
1.73898e-07
-2.37275e-07
-3.11965e-07
3.30617e-07
-1.99506e-07
-4.10919e-07
4.39856e-07
-1.96679e-07
-5.27528e-07
3.85386e-07
-2.17438e-07
-6.13462e-07
2.93574e-07
-2.5471e-07
-6.31961e-07
1.64157e-07
-2.99475e-07
-5.98874e-07
8.1464e-08
-3.28754e-07
-5.27234e-07
2.34569e-08
-3.58165e-07
-4.44136e-07
1.38706e-08
-3.73952e-07
-3.63092e-07
1.2812e-08
-3.85111e-07
-2.88482e-07
2.12817e-08
-3.91038e-07
-2.19275e-07
3.54192e-08
-3.94199e-07
-1.60712e-07
5.77048e-08
-3.9179e-07
-1.14366e-07
8.31455e-08
-3.86772e-07
-7.99447e-08
1.10649e-07
-3.80764e-07
-5.66102e-08
1.4062e-07
-3.75243e-07
-4.26428e-08
1.7181e-07
-3.70993e-07
-3.52862e-08
2.01893e-07
-3.67824e-07
-3.25195e-08
2.3084e-07
-3.65294e-07
-3.25183e-08
2.582e-07
-3.63089e-07
-3.42219e-08
2.83196e-07
-3.6179e-07
-3.70127e-08
3.08475e-07
-3.61241e-07
-4.13197e-08
3.37641e-07
-3.6136e-07
-4.83597e-08
3.68689e-07
-3.61785e-07
-5.61642e-08
3.98507e-07
-3.60636e-07
-6.76675e-08
4.24172e-07
-3.58076e-07
-8.52934e-08
4.454e-07
-3.53844e-07
-1.12061e-07
4.59888e-07
-3.47807e-07
-1.51287e-07
4.65415e-07
-3.40075e-07
-2.11396e-07
4.62545e-07
-3.28688e-07
-3.06667e-07
4.49516e-07
-3.09906e-07
-4.52654e-07
4.12567e-07
-2.79062e-07
-6.40558e-07
3.14949e-07
-2.33884e-07
-8.46842e-07
7.67774e-08
-1.58282e-07
-1.00005e-06
-5.05308e-07
-1.69804e-08
-1.09658e-06
-1.56824e-06
2.52164e-07
-1.23311e-06
-2.73939e-06
6.37062e-07
-2.52773e-06
-2.14226e-06
1.23941e-06
-5.92242e-06
2.66436e-06
1.78724e-06
-8.8147e-06
6.67113e-06
1.57426e-06
-9.52674e-06
6.79091e-06
-6.56871e-08
-5.63156e-06
4.71448e-07
-2.53579e-06
1.72744e-07
-1.15353e-05
-3.10412e-06
-2.77756e-06
-1.72255e-05
2.67118e-06
-1.3667e-05
-2.00038e-05
8.48649e-06
-1.99209e-05
-2.07863e-05
6.78973e-06
-2.08342e-05
-2.2279e-05
4.47879e-06
-1.72816e-05
-2.02611e-05
-4.27665e-07
6.28829e-06
-1.85973e-05
-8.04152e-06
1.34391e-05
-2.74972e-05
-6.07768e-07
4.06092e-06
3.64434e-05
6.14762e-06
-1.35839e-07
-2.27088e-05
1.84327e-06
-1.21738e-05
-4.49162e-05
8.27936e-06
-1.3554e-05
-1.74275e-05
1.94625e-06
-1.51055e-05
-1.81429e-05
5.55868e-06
-1.43199e-05
-5.97241e-06
3.69616e-06
-1.55995e-05
-4.30436e-06
4.32905e-06
-1.75091e-05
4.73719e-07
2.42883e-06
-2.17511e-05
8.46428e-08
4.44164e-06
-2.48859e-05
-3.27162e-07
3.79093e-06
-2.65346e-05
-2.20075e-06
4.64475e-06
-2.72643e-05
-2.393e-06
5.61452e-06
-2.58312e-05
-4.61224e-06
4.69625e-06
-2.39113e-05
-6.1165e-06
2.92367e-06
-2.09617e-05
-6.88617e-06
7.04677e-07
-1.70991e-05
-6.94669e-06
-3.15225e-07
-1.20458e-05
-5.92711e-06
-6.91759e-07
-6.70595e-06
-3.15663e-06
-4.87189e-07
-2.28296e-06
2.83479e-07
-1.27403e-07
1.23797e-06
2.69495e-06
-3.26138e-07
3.6832e-06
5.48746e-06
-4.60678e-07
4.80075e-06
9.60393e-06
-3.08498e-07
6.51993e-06
1.20385e-05
-1.80249e-06
9.01358e-06
1.16593e-05
-3.1258e-06
9.89915e-06
8.38062e-06
-2.46532e-06
9.40013e-06
5.42781e-06
-2.31754e-06
9.67564e-06
2.34198e-06
-2.65281e-06
1.03785e-05
-1.70167e-06
-1.72849e-06
1.01141e-05
-3.79659e-06
-1.25752e-06
8.51509e-06
-4.19481e-06
-3.41281e-07
5.655e-06
-2.74446e-06
5.58429e-07
1.60288e-06
2.51555e-08
1.61886e-06
-1.21412e-06
-2.08505e-07
1.82163e-08
-1.43771e-06
1.73505e-07
-3.2034e-06
1.10104e-07
2.55792e-09
-3.02899e-06
1.19909e-06
1.1443e-06
-2.19456e-06
5.94355e-07
3.52784e-06
-1.15964e-06
6.44846e-06
-1.25216e-06
-2.96776e-06
-3.74242e-06
-1.20241e-07
-1.80274e-06
-4.63999e-06
-1.06194e-06
-1.32066e-06
-3.18311e-06
-1.74015e-07
-5.69321e-07
-2.95128e-06
-1.11422e-07
-1.9797e-07
-1.39276e-06
1.50158e-07
-2.07833e-07
-5.69003e-07
6.57472e-08
-2.56821e-07
3.53552e-08
-1.52194e-07
-2.6676e-07
1.4032e-07
-1.96684e-07
-2.10608e-07
3.67526e-07
-2.49795e-07
-1.88543e-07
5.46841e-07
-2.38304e-07
-2.35754e-07
7.13475e-07
-2.26426e-07
-3.72299e-07
7.29025e-07
-2.0711e-07
-5.09141e-07
6.45794e-07
-2.15396e-07
-5.75383e-07
4.75993e-07
-2.45611e-07
-5.72359e-07
3.52737e-07
-2.74312e-07
-5.20945e-07
2.81144e-07
-3.09117e-07
-4.52698e-07
2.79097e-07
-3.33487e-07
-3.86181e-07
2.99838e-07
-3.53558e-07
-3.22459e-07
3.26924e-07
-3.69376e-07
-2.59948e-07
3.54663e-07
-3.81768e-07
-1.99881e-07
3.86833e-07
-3.89203e-07
-1.46119e-07
4.20762e-07
-3.91389e-07
-1.01858e-07
4.56041e-07
-3.89659e-07
-6.78649e-08
4.91343e-07
-3.84724e-07
-4.39488e-08
5.25563e-07
-3.77672e-07
-2.82672e-08
5.55829e-07
-3.69623e-07
-1.9105e-08
5.82747e-07
-3.6107e-07
-1.47797e-08
6.06533e-07
-3.52659e-07
-1.54774e-08
6.28425e-07
-3.44529e-07
-1.95372e-08
6.49828e-07
-3.3729e-07
-2.65151e-08
6.74971e-07
-3.30348e-07
-3.82023e-08
7.03338e-07
-3.22955e-07
-5.6455e-08
7.31877e-07
-3.15112e-07
-8.31882e-08
7.5775e-07
-3.06834e-07
-1.20839e-07
7.80672e-07
-2.97616e-07
-1.73681e-07
7.99162e-07
-2.86418e-07
-2.49072e-07
8.12561e-07
-2.71751e-07
-3.63699e-07
8.27011e-07
-2.49823e-07
-5.38823e-07
8.41404e-07
-2.16764e-07
-7.95986e-07
8.39205e-07
-1.69458e-07
-1.15566e-06
7.74847e-07
-1.00231e-07
-1.63317e-06
5.24497e-07
2.98021e-08
-2.35252e-06
-6.51624e-08
2.79197e-07
-3.55956e-06
-1.10288e-06
7.41692e-07
-5.55511e-06
-1.98759e-06
1.24372e-06
-8.18767e-06
-9.7442e-07
1.46474e-06
-1.03761e-05
3.33185e-06
1.52091e-06
-1.05557e-05
6.30582e-06
5.4498e-07
-8.3494e-06
5.91634e-06
-1.33173e-06
-3.6972e-06
-1.71138e-06
-2.46932e-06
-4.58276e-06
-9.67684e-06
-9.72878e-07
-1.50239e-05
-1.3432e-05
6.64771e-06
-2.52896e-05
-1.78824e-05
8.14432e-06
-3.02854e-05
-2.15024e-05
5.712e-06
-3.38025e-05
-2.27627e-05
4.00084e-06
-2.93568e-05
-2.32583e-05
-1.44845e-06
-1.13244e-05
-2.78577e-05
-8.77193e-06
-1.24444e-05
-2.85047e-05
2.12708e-06
7.69867e-06
7.48061e-06
8.81793e-06
1.92252e-06
-1.68749e-05
-5.73358e-08
-1.4871e-05
-3.81874e-05
1.00649e-05
-2.11647e-05
-1.63252e-05
5.19157e-06
-2.88581e-05
-1.64131e-05
5.96364e-06
-2.93361e-05
-9.44211e-06
3.94786e-06
-3.23492e-05
-7.53284e-06
6.24165e-06
-3.35047e-05
-4.84061e-06
6.46984e-06
-3.4977e-05
-4.18387e-06
5.74081e-06
-3.55574e-05
-4.38551e-06
4.63888e-06
-3.56322e-05
-5.05109e-06
2.92514e-06
-3.40419e-05
-4.99429e-06
1.01101e-06
-3.16518e-05
-6.05884e-06
-9.4343e-07
-2.92629e-05
-5.97312e-06
-2.53232e-06
-2.62713e-05
-6.74201e-06
-3.13576e-06
-2.27041e-05
-8.32722e-06
-2.18661e-06
-1.81264e-05
-9.36101e-06
-1.14378e-06
-1.20466e-05
-8.41458e-06
-8.21844e-07
-5.83483e-06
-5.2322e-06
-6.96098e-07
-9.61782e-07
-2.1647e-07
-1.96163e-06
9.39572e-07
5.35581e-06
-1.7697e-06
2.07605e-06
1.01754e-05
-1.70796e-06
4.79889e-06
1.25199e-05
-3.20418e-06
8.18304e-06
1.28345e-05
-4.55937e-06
9.79526e-06
1.11005e-05
-4.3321e-06
1.03539e-05
8.49319e-06
-3.62405e-06
1.02543e-05
5.65515e-06
-3.21353e-06
8.77986e-06
3.14685e-06
-3.37409e-06
7.53709e-06
1.06892e-07
-2.66071e-06
3.13518e-06
-2.19907e-07
4.27013e-07
-3.62401e-06
1.60102e-06
2.41371e-06
-5.90748e-06
2.51779e-06
-2.09161e-07
-5.37969e-06
2.86881e-06
-3.60511e-06
-3.67409e-06
2.21406e-06
-3.74615e-06
-6.78734e-07
1.20951e-06
-4.20231e-06
1.16475e-06
2.5572e-06
-3.25638e-06
6.91048e-07
4.79535e-06
-7.93808e-07
7.8369e-06
-6.97387e-07
-3.4097e-06
-3.51549e-06
2.24542e-07
-2.40031e-06
-4.75987e-06
-8.89511e-07
-1.99798e-06
-3.31933e-06
-2.66098e-07
-9.1613e-07
-3.35811e-06
-6.75003e-07
-2.72021e-07
-2.09545e-06
5.85875e-08
-6.32837e-08
-9.01684e-07
1.23943e-07
-5.02856e-08
1.26167e-07
-1.03813e-07
-1.63741e-07
3.59102e-07
-1.0534e-07
-1.24049e-07
5.34868e-07
-2.07046e-07
-8.84688e-08
7.11799e-07
-2.00555e-07
-9.79007e-08
9.26028e-07
-2.03136e-07
-2.48419e-07
1.051e-06
-1.7147e-07
-4.23305e-07
9.93009e-07
-1.72344e-07
-5.0807e-07
7.62211e-07
-2.01469e-07
-5.05363e-07
5.92219e-07
-2.42205e-07
-4.50298e-07
5.10812e-07
-2.84745e-07
-3.87607e-07
5.28361e-07
-3.1197e-07
-3.40929e-07
5.84061e-07
-3.3091e-07
-3.03431e-07
6.36222e-07
-3.46809e-07
-2.68717e-07
6.78978e-07
-3.59036e-07
-2.29268e-07
7.15141e-07
-3.67766e-07
-1.88551e-07
7.49745e-07
-3.69704e-07
-1.49955e-07
7.83809e-07
-3.66371e-07
-1.17044e-07
8.1758e-07
-3.59148e-07
-9.41497e-08
8.51844e-07
-3.49179e-07
-7.92849e-08
8.78256e-07
-3.37289e-07
-7.15818e-08
8.99321e-07
-3.24276e-07
-6.86216e-08
9.14797e-07
-3.11219e-07
-6.90016e-08
9.27344e-07
-2.98533e-07
-7.2358e-08
9.40222e-07
-2.87031e-07
-8.13798e-08
9.5993e-07
-2.75926e-07
-9.89655e-08
9.85894e-07
-2.6496e-07
-1.27369e-07
1.01406e-06
-2.53758e-07
-1.67696e-07
1.0397e-06
-2.41608e-07
-2.21135e-07
1.06182e-06
-2.27686e-07
-2.91253e-07
1.07994e-06
-2.10645e-07
-3.86244e-07
1.09741e-06
-1.89837e-07
-5.27813e-07
1.12951e-06
-1.60921e-07
-7.43e-07
1.17788e-06
-1.21256e-07
-1.05924e-06
1.22376e-06
-6.83089e-08
-1.52779e-06
1.2352e-06
8.22055e-09
-2.26385e-06
1.11456e-06
1.45984e-07
-3.6047e-06
8.37763e-07
4.37955e-07
-5.97545e-06
3.25447e-07
9.42412e-07
-9.07254e-06
-1.92876e-07
1.30241e-06
-1.15708e-05
2.1378e-07
1.31003e-06
-1.17284e-05
2.41038e-06
1.07917e-06
-9.48427e-06
4.39231e-06
-3.30635e-07
-4.62706e-06
3.16022e-06
-2.10104e-06
-2.10743e-06
-2.25283e-06
-1.97818e-06
-7.05525e-06
-5.48954e-06
7.6058e-07
-1.66884e-05
-9.65908e-06
5.86026e-06
-2.36905e-05
-1.45342e-05
3.65389e-06
-2.91531e-05
-1.87712e-05
2.73136e-06
-3.26073e-05
-2.21935e-05
2.88504e-06
-2.91852e-05
-2.69021e-05
2.2163e-07
-2.69846e-05
-3.00436e-05
-1.46213e-08
-2.04361e-05
-3.96411e-05
4.58741e-06
9.93072e-06
-3.25568e-05
9.66886e-06
-2.44891e-06
-5.67008e-06
1.17521e-06
-2.73109e-05
-2.21265e-05
8.80202e-06
-3.9331e-05
-1.05041e-05
6.20003e-06
-4.83149e-05
-1.21261e-05
4.69778e-06
-5.06256e-05
-1.05436e-05
3.41314e-06
-5.09739e-05
-1.04936e-05
3.30982e-06
-4.95151e-05
-9.25293e-06
2.95424e-06
-4.78519e-05
-7.33721e-06
1.49083e-06
-4.57809e-05
-5.9468e-06
-5.09134e-07
-4.37957e-05
-3.93561e-06
-3.10007e-06
-4.22325e-05
-1.96875e-06
-4.58816e-06
-4.12782e-05
-2.05527e-06
-4.95731e-06
-3.92313e-05
-3.76895e-06
-4.25046e-06
-3.60898e-05
-6.47489e-06
-3.40806e-06
-3.29723e-05
-8.73445e-06
-2.70984e-06
-2.88384e-05
-1.11414e-05
-2.35304e-06
-2.21709e-05
-1.2469e-05
-2.61289e-06
-1.39499e-05
-1.0345e-05
-3.10793e-06
-5.89588e-06
-4.18965e-06
-4.08068e-06
-1.22862e-06
5.08365e-06
-4.39496e-06
1.77276e-06
1.22607e-05
-5.08648e-06
5.16164e-06
1.48986e-05
-5.76744e-06
8.28253e-06
1.59101e-05
-6.1963e-06
8.86802e-06
1.55497e-05
-5.03455e-06
8.38618e-06
1.23689e-05
-3.39375e-06
6.47272e-06
9.70487e-06
-2.13613e-06
2.96718e-06
7.85811e-06
-1.20563e-06
-1.3501e-06
4.79148e-06
-3.67218e-07
-6.53343e-06
4.60239e-06
3.61125e-07
-9.62769e-06
5.83196e-06
-1.13659e-06
-9.88366e-06
6.08939e-06
-3.31556e-06
-9.09983e-06
5.9036e-06
-3.81858e-06
-7.01165e-06
4.35416e-06
-4.22826e-06
-5.41396e-06
3.65677e-06
-4.04494e-06
-3.65477e-06
3.94873e-06
-3.15071e-06
-2.05184e-06
5.4951e-06
-2.30268e-06
7.82439e-06
-2.03933e-06
-3.7185e-06
-3.15127e-06
6.53527e-07
-2.84949e-06
-4.7751e-06
-8.53769e-07
-2.48184e-06
-3.20533e-06
-4.81637e-07
-1.16278e-06
-3.33782e-06
-1.33934e-06
-3.23635e-07
-2.43594e-06
-4.98655e-07
1.09599e-07
-1.24422e-06
-9.06924e-08
1.63811e-07
2.56467e-07
-1.84521e-07
-8.4376e-08
6.93296e-07
-8.60153e-08
-9.51716e-08
7.62392e-07
-2.16744e-07
-7.58456e-08
8.97585e-07
-2.05126e-07
-6.21859e-08
1.12102e-06
-2.08672e-07
-1.77521e-07
1.31638e-06
-1.50064e-07
-3.2086e-07
1.28071e-06
-1.44375e-07
-3.91696e-07
1.01763e-06
-1.846e-07
-3.94703e-07
8.38059e-07
-2.42844e-07
-3.54356e-07
7.61694e-07
-2.91242e-07
-3.10301e-07
7.9829e-07
-3.13991e-07
-2.85277e-07
8.79856e-07
-3.20829e-07
-2.74548e-07
9.50532e-07
-3.25044e-07
-2.71669e-07
1.00396e-06
-3.27868e-07
-2.66797e-07
1.04149e-06
-3.31223e-07
-2.57759e-07
1.07123e-06
-3.30525e-07
-2.44696e-07
1.09575e-06
-3.25007e-07
-2.31491e-07
1.1195e-06
-3.15129e-07
-2.24399e-07
1.14502e-06
-3.0026e-07
-2.20813e-07
1.16112e-06
-2.86448e-07
-2.20639e-07
1.17208e-06
-2.72922e-07
-2.22785e-07
1.17814e-06
-2.61186e-07
-2.24249e-07
1.17999e-06
-2.51172e-07
-2.27334e-07
1.18461e-06
-2.41288e-07
-2.38496e-07
1.2019e-06
-2.30791e-07
-2.62962e-07
1.23017e-06
-2.19785e-07
-3.03509e-07
1.26296e-06
-2.08342e-07
-3.58382e-07
1.29115e-06
-1.96559e-07
-4.24278e-07
1.31151e-06
-1.83772e-07
-5.01486e-07
1.32553e-06
-1.68348e-07
-5.97616e-07
1.34392e-06
-1.50363e-07
-7.28443e-07
1.38845e-06
-1.2808e-07
-9.15309e-07
1.46395e-06
-9.91934e-08
-1.17185e-06
1.54257e-06
-6.22262e-08
-1.53282e-06
1.60087e-06
-4.69248e-09
-2.15708e-06
1.62496e-06
1.13898e-07
-3.32391e-06
1.67322e-06
3.31362e-07
-5.40654e-06
1.72388e-06
6.84223e-07
-8.17051e-06
1.58398e-06
9.87108e-07
-1.02503e-05
1.25156e-06
1.04202e-06
-1.02541e-05
1.73713e-06
6.77079e-07
-7.14872e-06
2.19457e-06
-9.07571e-07
-2.49389e-06
4.99227e-07
-1.99383e-06
-1.60144e-06
-1.56665e-06
-1.57858e-06
-5.1784e-06
-2.28072e-06
3.68151e-07
-1.22313e-05
-5.1001e-06
2.49396e-06
-1.95791e-05
-8.37039e-06
1.18405e-06
-2.7727e-05
-1.1488e-05
8.64798e-07
-3.29535e-05
-1.66763e-05
-2.90622e-07
-3.04835e-05
-2.70682e-05
-2.30383e-06
-2.35869e-05
-3.26631e-05
-4.27718e-06
-1.61232e-05
-4.85582e-05
1.45293e-06
1.01534e-05
-6.16271e-05
2.79203e-06
-3.02712e-06
4.16939e-06
3.34172e-06
-3.72359e-05
3.52602e-06
8.5584e-06
-5.19378e-05
-1.29573e-06
5.49624e-06
-6.05497e-05
-6.69056e-06
3.1793e-06
-6.37944e-05
-9.07102e-06
1.77497e-06
-6.53582e-05
-1.00027e-05
1.076e-06
-6.39243e-05
-1.03039e-05
-3.80139e-07
-6.16815e-05
-7.62926e-06
-1.94804e-06
-5.94511e-05
-4.9692e-06
-3.20532e-06
-5.76529e-05
-1.56917e-06
-4.16224e-06
-5.56046e-05
1.00861e-06
-5.02326e-06
-5.29046e-05
5.21714e-07
-5.27485e-06
-4.9958e-05
-2.76439e-06
-3.94913e-06
-4.70241e-05
-7.16171e-06
-2.24521e-06
-4.50519e-05
-9.80841e-06
-8.96511e-07
-4.32981e-05
-1.2019e-05
-8.74408e-07
-4.02134e-05
-1.37353e-05
-1.81674e-06
-3.39475e-05
-1.39492e-05
-2.66008e-06
-2.36213e-05
-1.02173e-05
-4.29703e-06
-1.41914e-05
1.26621e-06
-5.61117e-06
-7.8636e-06
1.13667e-05
-5.43262e-06
-4.53725e-06
1.63237e-05
-4.75039e-06
-1.84061e-06
1.65476e-05
-3.33323e-06
-8.32204e-07
1.59411e-05
-1.39896e-06
-1.67931e-06
1.35461e-05
-3.29259e-07
-2.47837e-06
1.10647e-05
-5.59843e-07
-5.59216e-06
1.08036e-05
1.69326e-07
-1.34611e-05
1.18375e-05
8.23932e-07
-2.0159e-05
1.22928e-05
-9.9142e-07
-2.18421e-05
9.92594e-06
-2.4098e-06
-1.98219e-05
7.14786e-06
-3.07792e-06
-1.70877e-05
5.91614e-06
-2.74603e-06
-1.53507e-05
4.8797e-06
-2.26204e-06
-1.49503e-05
4.62297e-06
-1.36621e-06
-1.32312e-05
3.46826e-06
-1.23831e-06
-8.31074e-06
2.37718e-06
-1.80239e-06
3.01551e-06
-3.50179e-06
-3.56766e-06
-2.62679e-06
1.23273e-06
-3.03389e-06
-4.47575e-06
-8.33108e-07
-2.89565e-06
-2.9767e-06
-3.66856e-07
-1.55542e-06
-3.15335e-06
-1.52469e-06
-5.72917e-07
-2.60541e-06
-8.13012e-07
1.66345e-07
-1.65974e-06
-3.23743e-07
3.39319e-07
3.10363e-07
-2.26875e-07
9.62232e-08
9.19164e-07
1.72142e-08
1.48975e-08
1.06486e-06
-2.21152e-07
-8.01853e-08
1.1738e-06
-1.81151e-07
-6.93658e-08
1.33794e-06
-2.27744e-07
-7.56734e-08
1.52659e-06
-2.03921e-07
-6.63325e-08
1.50352e-06
-2.32166e-07
-6.99821e-08
1.3101e-06
-2.88826e-07
-9.5263e-08
1.20724e-06
-3.43914e-07
-1.45417e-07
1.20201e-06
-3.90171e-07
-1.98261e-07
1.27431e-06
-4.23181e-07
-2.48226e-07
1.37247e-06
-4.42648e-07
-2.95651e-07
1.45687e-06
-4.58917e-07
-3.42978e-07
1.52086e-06
-4.6957e-07
-3.73596e-07
1.54876e-06
-4.76649e-07
-3.89704e-07
1.56732e-06
-4.7998e-07
-3.9686e-07
1.58281e-06
-4.79897e-07
-3.98079e-07
1.59788e-06
-4.77151e-07
-3.95341e-07
1.61411e-06
-4.71823e-07
-3.93467e-07
1.6254e-06
-4.66136e-07
-3.92989e-07
1.63266e-06
-4.61052e-07
-3.92629e-07
1.63469e-06
-4.56892e-07
-3.91866e-07
1.6323e-06
-4.5305e-07
-3.95837e-07
1.6376e-06
-4.49e-07
-4.13467e-07
1.66165e-06
-4.42098e-07
-4.47606e-07
1.69728e-06
-4.32956e-07
-4.98365e-07
1.73634e-06
-4.22587e-07
-5.60152e-07
1.76628e-06
-4.13306e-07
-6.27769e-07
1.78504e-06
-4.05882e-07
-6.9507e-07
1.79153e-06
-3.98679e-07
-7.71842e-07
1.80604e-06
-3.85294e-07
-8.72644e-07
1.85718e-06
-3.67896e-07
-1.00959e-06
1.94631e-06
-3.45361e-07
-1.18214e-06
2.03472e-06
-3.19588e-07
-1.40809e-06
2.10287e-06
-2.76004e-07
-1.80482e-06
2.20634e-06
-1.84661e-07
-2.59008e-06
2.44885e-06
9.65215e-09
-3.90515e-06
2.77967e-06
2.5927e-07
-5.86391e-06
3.02236e-06
5.20413e-07
-7.54052e-06
2.37416e-06
5.54011e-07
-7.96808e-06
1.96914e-06
1.95621e-07
-5.9501e-06
1.23378e-06
-1.05718e-06
-2.73987e-06
-4.86051e-07
-2.22489e-06
-2.07967e-06
-6.94322e-07
-1.5325e-06
-5.34277e-06
2.86429e-06
-1.88185e-06
-1.38563e-05
5.90855e-06
-2.49506e-06
-2.35048e-05
6.048e-06
-4.76981e-06
-2.97636e-05
2.12782e-06
-7.3571e-06
-3.38184e-05
-2.99956e-06
-9.62186e-06
-3.15436e-05
-1.61101e-05
-1.32329e-05
-2.30235e-05
-2.44409e-05
-1.67422e-05
-1.90949e-05
-4.09982e-05
-1.14892e-05
5.83648e-06
-7.17165e-05
-1.48436e-05
-5.09373e-06
9.82857e-06
5.27205e-06
-4.67972e-05
3.55101e-05
9.72236e-06
-6.15116e-05
8.36422e-06
5.05842e-06
-7.13326e-05
2.72272e-06
4.11939e-07
-7.34669e-05
-6.40986e-06
-5.22307e-07
-7.71694e-05
-5.8342e-06
-4.61316e-07
-7.74106e-05
-8.86352e-06
-1.19423e-06
-7.59923e-05
-5.23124e-06
-3.81157e-06
-7.35006e-05
-1.62395e-06
-5.83262e-06
-6.87347e-05
6.41652e-07
-6.97302e-06
-6.14618e-05
2.42346e-07
-6.5035e-06
-5.51216e-05
-1.88136e-06
-3.93453e-06
-5.08019e-05
-6.03112e-06
-1.05069e-06
-4.80712e-05
-9.55679e-06
-3.33559e-07
-4.76825e-05
-1.11678e-05
9.72799e-07
-4.92681e-05
-1.19476e-05
1.51636e-06
-5.09445e-05
-1.32424e-05
1.18583e-06
-5.09288e-05
-1.43626e-05
4.00072e-07
-4.65602e-05
-1.28246e-05
-1.75892e-06
-3.68128e-05
-4.78494e-06
-3.69406e-06
-2.77296e-05
6.754e-06
-4.46871e-06
-1.84322e-05
1.11096e-05
-4.08195e-06
-1.18516e-05
1.18839e-05
-1.9158e-06
-1.05972e-05
1.47168e-05
-2.90076e-08
-1.54406e-05
1.60406e-05
2.35e-06
-2.44134e-05
1.71579e-05
2.8806e-06
-3.37351e-05
1.8223e-05
1.90341e-06
-3.84397e-05
1.73785e-05
-8.35284e-07
-3.91381e-05
1.4491e-05
-1.49895e-06
-3.73803e-05
1.01051e-05
-1.93632e-06
-3.16797e-05
4.03336e-06
-2.58578e-06
-2.42715e-05
3.07126e-07
-1.79902e-06
-1.91541e-05
-1.51818e-06
1.28042e-06
-1.64905e-05
-2.05101e-06
4.01039e-06
-1.36227e-05
-5.24563e-06
5.84611e-06
-9.24081e-06
-9.61557e-06
7.61093e-06
-1.4721e-05
8.4958e-06
-2.9907e-06
-1.61346e-06
2.071e-06
-3.04087e-06
-4.14636e-06
-2.79212e-07
-3.34302e-06
-2.79876e-06
1.24235e-07
-2.18264e-06
-3.20412e-06
-1.1096e-06
-1.03815e-06
-2.85331e-06
-8.96575e-07
6.57828e-08
-2.16969e-06
-5.93989e-07
3.63402e-07
-1.45106e-07
1.57843e-07
1.44133e-07
6.41238e-07
4.97186e-07
4.88457e-08
1.0186e-06
1.41533e-07
-7.71699e-08
1.10367e-06
1.96134e-07
-3.57064e-08
1.23823e-06
5.823e-08
3.75559e-08