/*--------------------------------*- C++ -*----------------------------------*\
| =========                 |                                                 |
| \\      /  F ield         | OpenFOAM: The Open Source CFD Toolbox           |
|  \\    /   O peration     | Version:  2.3.0                                 |
|   \\  /    A nd           | Web:      www.OpenFOAM.org                      |
|    \\/     M anipulation  |                                                 |
\*---------------------------------------------------------------------------*/
FoamFile
{
    version     2.0;
    format      ascii;
    class       surfaceScalarField;
    location    "35";
    object      phi.air;
}
// * * * * * * * * * * * * * * * * * * * * * * * * * * * * * * * * * * * * * //

dimensions      [0 3 -1 0 0 0 0];

internalField   nonuniform List<scalar> 
16448
(
-1.05333e-06
-2.52619e-06
3.94378e-07
1.11561e-06
-2.73252e-06
5.63577e-07
1.0681e-06
-9.82475e-07
1.02998e-06
8.18096e-07
-7.97133e-07
1.04713e-06
3.3453e-07
-4.92218e-07
9.75779e-07
8.574e-08
-6.47006e-07
8.9579e-07
-2.64397e-08
-6.33767e-07
7.45942e-07
-5.63658e-08
-5.87584e-07
6.17505e-07
-1.48687e-07
-4.39629e-07
5.31945e-07
-3.32617e-07
-3.20622e-07
5.04546e-07
-5.28687e-07
-2.49795e-07
4.45858e-07
-6.26067e-07
-2.6053e-07
3.57902e-07
-6.13253e-07
-3.10897e-07
2.98076e-07
-5.01955e-07
-3.62729e-07
2.51423e-07
-3.67451e-07
-3.89162e-07
2.5465e-07
-2.24392e-07
-4.14319e-07
2.71251e-07
-1.05831e-07
-4.25463e-07
3.06894e-07
-1.14472e-08
-4.38163e-07
3.43769e-07
5.1169e-08
-4.47014e-07
3.84389e-07
8.24093e-08
-4.52117e-07
4.20867e-07
9.10211e-08
-4.58591e-07
4.49971e-07
8.50127e-08
-4.61359e-07
4.67359e-07
7.0045e-08
-4.59282e-07
4.74244e-07
5.03359e-08
-4.53062e-07
4.72763e-07
2.89712e-08
-4.43224e-07
4.64583e-07
8.20893e-09
-4.30468e-07
4.51224e-07
-1.05641e-08
-4.15296e-07
4.34064e-07
-2.47483e-08
-4.01348e-07
4.15526e-07
-3.21744e-08
-3.88494e-07
3.95916e-07
-3.26602e-08
-3.76006e-07
3.76487e-07
-2.90449e-08
-3.62536e-07
3.58917e-07
-2.47285e-08
-3.4763e-07
3.43311e-07
-2.01841e-08
-3.3205e-07
3.27502e-07
-1.18243e-08
-3.17912e-07
3.0955e-07
6.93732e-09
-3.07663e-07
2.88898e-07
4.22055e-08
-3.03021e-07
2.67751e-07
9.58301e-08
-3.05238e-07
2.51608e-07
1.64395e-07
-3.14693e-07
2.46127e-07
2.42767e-07
-3.33404e-07
2.55025e-07
3.2778e-07
-3.65511e-07
2.80496e-07
4.08467e-07
-4.11679e-07
3.30982e-07
4.76942e-07
-4.90706e-07
4.2223e-07
5.54383e-07
-6.15137e-07
5.37685e-07
7.59043e-07
-8.61369e-07
6.56707e-07
1.08099e-06
-1.09012e-06
7.68163e-07
1.03707e-06
-9.8393e-07
1.02784e-06
4.84138e-07
-6.67473e-07
1.22039e-06
-3.16671e-07
-5.94599e-07
1.3954e-06
-3.21777e-06
9.72221e-07
1.92886e-06
-7.67993e-06
2.40769e-06
2.05449e-06
-1.03339e-05
5.55986e-07
2.09801e-06
-7.91173e-06
-5.18038e-06
2.75817e-06
-2.80608e-07
-1.14463e-05
3.81513e-06
6.11021e-06
-1.04409e-05
4.05005e-06
8.65132e-06
-8.65616e-06
6.115e-06
1.00467e-05
-6.19189e-06
4.7965e-06
2.7003e-06
-1.59532e-06
8.94158e-06
8.05994e-06
-7.58006e-06
2.21703e-06
-1.35411e-05
1.18481e-05
9.23164e-06
-3.32055e-05
-1.00443e-05
-3.31828e-06
-5.13991e-05
-2.57722e-05
7.34368e-06
-2.33799e-06
-8.43065e-07
9.56108e-06
4.14155e-05
-4.60697e-06
6.78761e-06
4.24296e-05
-4.45272e-06
3.53859e-06
4.2422e-05
-2.39857e-06
2.23323e-06
4.28532e-05
-1.68594e-06
1.14683e-06
4.28652e-05
-4.71166e-07
4.81884e-07
4.27565e-05
-3.03508e-07
4.20256e-07
4.24347e-05
-3.6784e-07
6.97574e-07
4.18218e-05
-6.00185e-07
1.1963e-06
4.13312e-05
-1.66988e-06
2.08263e-06
4.04865e-05
-2.28171e-06
3.02255e-06
3.87468e-05
-1.57849e-06
3.32992e-06
3.6031e-05
1.57238e-08
2.7708e-06
3.22724e-05
1.89101e-06
1.8159e-06
2.84854e-05
2.59402e-06
1.0813e-06
2.49776e-05
2.69845e-06
7.7577e-07
2.32317e-05
2.44766e-06
-7.41409e-07
2.22075e-05
2.68005e-06
-1.63254e-06
2.01041e-05
3.72221e-06
-1.60341e-06
1.62153e-05
5.18526e-06
-1.42628e-06
1.02388e-05
5.14689e-06
7.32163e-07
4.88187e-06
3.46921e-06
1.92325e-06
2.03713e-06
9.40226e-07
1.93368e-06
-2.76401e-08
-9.41256e-07
3.04914e-06
-3.05472e-06
-1.48331e-06
4.53716e-06
-6.27348e-06
-2.00482e-06
5.19798e-06
-8.35681e-06
-2.51389e-06
4.63753e-06
-8.86846e-06
-3.17833e-06
3.66812e-06
-8.72858e-06
-2.51498e-06
2.40261e-06
-7.90845e-06
-1.97059e-06
1.16834e-06
-6.32856e-06
-1.67018e-06
8.49679e-08
-4.64831e-06
-8.34498e-07
-7.82441e-07
-3.24826e-06
-7.67966e-07
-6.02412e-07
-2.71449e-06
3.56034e-07
-8.2842e-07
-2.00346e-07
-1.79172e-06
-1.55128e-06
-3.5522e-06
-3.18881e-07
8.14156e-08
-3.96242e-06
-4.02797e-07
4.06907e-07
-1.88677e-06
5.78796e-07
5.09059e-07
-1.45743e-06
5.58143e-07
3.38479e-07
-7.30953e-07
4.09308e-07
1.77827e-07
-7.70748e-07
2.84388e-07
3.88346e-08
-6.1739e-07
1.2261e-07
-7.25252e-08
-5.45071e-07
6.88403e-08
-2.51535e-07
-3.39347e-07
7.87185e-08
-5.07294e-07
-1.88599e-07
1.23727e-07
-7.22621e-07
-1.22097e-07
8.76185e-08
-8.07426e-07
-1.86999e-07
1.1262e-08
-7.84435e-07
-2.78829e-07
-5.5071e-08
-6.69376e-07
-3.72265e-07
-1.05536e-07
-5.23763e-07
-4.19432e-07
-1.15357e-07
-3.66601e-07
-4.60566e-07
-1.1093e-07
-2.30239e-07
-4.74832e-07
-8.70069e-08
-1.15366e-07
-4.90814e-07
-6.2236e-08
-3.03569e-08
-4.98277e-07
-3.37599e-08
2.25686e-08
-4.97756e-07
-7.29865e-09
4.87998e-08
-4.95475e-07
1.06407e-08
5.66233e-08
-4.88937e-07
1.97433e-08
5.18616e-08
-4.77626e-07
2.3094e-08
3.91869e-08
-4.62145e-07
2.17483e-08
2.21931e-08
-4.43087e-07
1.68472e-08
3.9021e-09
-4.21388e-07
9.20241e-09
-1.35204e-08
-3.97485e-07
-3.96831e-10
-2.57074e-08
-3.73945e-07
-1.5223e-08
-3.10686e-08
-3.52795e-07
-3.03446e-08
-3.02987e-08
-3.31892e-07
-4.48901e-08
-2.62845e-08
-3.0846e-07
-5.80958e-08
-2.09347e-08
-2.82641e-07
-7.03447e-08
-1.2894e-08
-2.5719e-07
-8.29058e-08
5.6992e-10
-2.35428e-07
-9.59536e-08
2.14937e-08
-2.19883e-07
-1.08709e-07
5.11135e-08
-2.13608e-07
-1.1904e-07
8.89131e-08
-2.1784e-07
-1.25203e-07
1.33391e-07
-2.34165e-07
-1.25015e-07
1.81242e-07
-2.65691e-07
-1.15572e-07
2.27496e-07
-3.19095e-07
-9.26807e-08
2.6275e-07
-3.97246e-07
-4.96979e-08
2.80462e-07
-5.27987e-07
1.95545e-08
3.42255e-07
-7.64369e-07
8.74266e-08
5.41948e-07
-1.21961e-06
1.58527e-07
8.66158e-07
-1.68877e-06
2.74426e-07
8.71239e-07
-1.62842e-06
6.39385e-07
-9.52384e-07
-6.54942e-08
1.22163e-06
-6.03021e-06
2.29767e-06
2.18555e-06
-1.07544e-05
3.92036e-06
1.77609e-06
-1.08791e-05
2.45205e-06
8.03497e-08
-5.88556e-06
-3.56858e-06
-8.6902e-07
2.12502e-06
-1.24606e-05
-7.30387e-07
7.31973e-06
-1.90805e-05
2.43954e-06
1.22495e-05
-1.71106e-05
1.74001e-06
1.49965e-05
-1.36107e-05
2.20734e-06
1.94937e-05
-1.18213e-05
1.13211e-06
1.64643e-05
-2.38838e-06
3.82233e-06
1.89345e-05
-1.30559e-05
3.00545e-06
-9.48302e-06
2.29892e-05
1.69635e-05
-3.18721e-05
-2.13221e-05
1.46057e-06
-6.91164e-05
-3.18842e-05
-1.53433e-06
-2.83366e-05
-2.16379e-06
1.57305e-07
1.22855e-05
-4.46971e-06
-1.84559e-07
1.36447e-05
-1.44926e-06
-4.54192e-06
1.5324e-05
1.97857e-06
-5.73575e-06
1.73032e-05
7.83514e-07
-4.51406e-06
1.81872e-05
1.78803e-06
-3.09799e-06
1.90444e-05
1.66517e-06
-2.79707e-06
1.91476e-05
2.04291e-06
-2.41893e-06
1.74265e-05
2.58978e-06
-1.35154e-06
1.45446e-05
1.12311e-06
1.19966e-07
1.29358e-05
-1.54851e-06
9.05723e-07
1.36918e-05
-2.1067e-06
-1.09673e-07
1.5361e-05
-3.0669e-07
-1.27377e-06
1.69865e-05
2.14668e-06
-1.84221e-06
1.84445e-05
4.06878e-06
-2.91663e-06
1.92397e-05
4.9725e-06
-3.05929e-06
1.98097e-05
5.64763e-06
-3.77542e-06
1.96855e-05
6.39509e-06
-3.56152e-06
1.78063e-05
7.9661e-06
-2.32703e-06
1.55248e-05
9.2778e-06
-1.99308e-06
1.32959e-05
9.17765e-06
-1.86507e-06
1.14754e-05
6.01981e-06
-6.41658e-07
1.02964e-05
1.72377e-06
3.99133e-07
8.96464e-06
-1.16869e-06
1.58282e-06
6.89151e-06
-2.76131e-06
3.4293e-06
4.90268e-06
-4.5368e-06
4.50334e-06
2.84091e-06
-5.02863e-06
4.60048e-06
-3.51058e-07
-4.72995e-06
4.74486e-06
-4.33069e-06
-3.30962e-06
4.78367e-06
-5.81106e-06
-3.70183e-06
3.2601e-06
-4.72241e-06
-3.44835e-06
7.12762e-07
-2.31866e-06
-1.71875e-06
-1.51115e-06
-9.41959e-07
-8.26026e-07
-1.28027e-06
-1.68619e-07
1.12323e-06
-1.37988e-06
2.61462e-06
-2.10142e-06
-1.93265e-06
-3.82998e-06
-5.47094e-07
-6.61144e-07
-4.37171e-06
-8.6222e-07
-1.96778e-07
-2.47037e-06
1.19234e-07
5.63608e-08
-1.83275e-06
1.22174e-07
3.94074e-08
-7.42923e-07
2.89208e-08
-8.32784e-08
-6.16385e-07
-3.16798e-08
-1.43265e-07
-3.84758e-07
-1.72649e-07
-2.14655e-07
-2.76077e-07
-1.9761e-07
-3.25076e-07
-5.84011e-08
-1.70534e-07
-4.86002e-07
8.37696e-08
-1.11454e-07
-6.4257e-07
1.44237e-07
-1.09778e-07
-7.19197e-07
5.13561e-08
-1.61741e-07
-7.30364e-07
-4.70549e-08
-2.20622e-07
-6.80988e-07
-1.53802e-07
-2.67853e-07
-5.94803e-07
-2.14186e-07
-2.91445e-07
-4.85628e-07
-2.63053e-07
-3.06702e-07
-3.79766e-07
-2.76968e-07
-3.0374e-07
-2.82018e-07
-2.91242e-07
-2.97334e-07
-1.97577e-07
-2.95132e-07
-2.876e-07
-1.27974e-07
-2.89561e-07
-2.77811e-07
-7.8487e-08
-2.75509e-07
-2.69464e-07
-4.68308e-08
-2.57272e-07
-2.63334e-07
-2.93645e-08
-2.35683e-07
-2.59419e-07
-2.22522e-08
-2.11282e-07
-2.57986e-07
-2.16433e-08
-1.85208e-07
-2.58496e-07
-2.39589e-08
-1.5857e-07
-2.6051e-07
-2.61491e-08
-1.31683e-07
-2.63618e-07
-2.76858e-08
-1.04885e-07
-2.67529e-07
-2.82078e-08
-8.02952e-08
-2.71982e-07
-2.83015e-08
-5.55567e-08
-2.76245e-07
-2.82085e-08
-2.8026e-08
-2.8053e-07
-2.56253e-08
-1.35628e-10
-2.85091e-07
-2.25372e-08
3.00642e-08
-2.90345e-07
-1.85509e-08
5.4592e-08
-2.94008e-07
-1.7349e-08
7.39251e-08
-2.95013e-07
-2.22557e-08
8.53134e-08
-2.94016e-07
-3.51088e-08
8.61077e-08
-2.91098e-07
-5.67481e-08
7.3749e-08
-2.86276e-07
-8.88439e-08
4.43325e-08
-2.77933e-07
-1.32787e-07
-1.2476e-08
-2.62679e-07
-1.8416e-07
-1.06844e-07
-2.39038e-07
-2.23373e-07
-2.87778e-07
-2.01e-07
-1.64607e-07
-6.75496e-07
-1.47652e-07
6.00429e-08
-1.41259e-06
-3.16701e-08
4.57864e-07
-2.23887e-06
1.52267e-07
4.1038e-07
-2.19745e-06
6.16508e-07
-2.09833e-06
1.0569e-06
1.3863e-06
-7.19565e-06
5.35312e-06
2.04188e-06
-1.06364e-05
6.01316e-06
1.34791e-06
-8.81163e-06
1.83083e-06
-1.2035e-06
-5.80252e-07
-8.83512e-06
-2.96487e-06
5.68865e-06
-1.75046e-05
-1.22493e-06
4.68089e-06
-2.24068e-05
4.33395e-06
4.32557e-06
-2.02506e-05
3.49524e-06
6.95032e-06
-1.87135e-05
2.47803e-06
1.31739e-05
-1.71363e-05
-9.08644e-07
1.72647e-05
-3.06907e-06
-3.41039e-06
2.55428e-05
-2.09538e-05
-3.8029e-07
4.78367e-07
3.32145e-05
1.42355e-05
-3.47109e-05
-2.5722e-05
5.78038e-06
-8.97008e-05
-3.86026e-05
2.35886e-08
-4.39138e-05
-1.29983e-05
-1.81465e-06
1.18015e-06
-1.2357e-05
4.41138e-06
4.43044e-07
1.28901e-06
9.13492e-07
6.14786e-06
-1.26998e-06
-2.30144e-06
4.58694e-06
9.28863e-07
1.11393e-06
5.38764e-06
1.5148e-06
7.98653e-07
5.39038e-06
1.45877e-06
1.18599e-06
4.19261e-06
1.46971e-06
2.38177e-06
1.5395e-06
2.45695e-06
2.69564e-06
-2.1706e-06
9.3746e-07
3.20752e-06
-5.20614e-06
-2.06259e-06
2.6802e-06
-5.96351e-06
-3.9816e-06
1.888e-06
-4.1311e-06
-3.39235e-06
1.25816e-06
-5.30378e-07
-1.53794e-06
1.00912e-07
4.08747e-06
1.71449e-06
-2.24387e-06
7.467e-06
4.61197e-06
-3.01204e-06
1.00275e-05
5.89426e-06
-2.91069e-06
1.15997e-05
7.4673e-06
-2.69043e-06
1.11642e-05
1.04271e-05
-1.97335e-06
1.05518e-05
1.19602e-05
-2.15378e-06
1.09901e-05
1.10258e-05
-2.39471e-06
1.1014e-05
6.78545e-06
-7.94863e-07
1.02698e-05
2.59703e-06
-1.22602e-07
9.32711e-06
-4.04751e-08
-1.42447e-07
8.10356e-06
-2.74685e-06
1.27174e-06
6.51226e-06
-5.34595e-06
2.39247e-06
5.46971e-06
-6.1698e-06
2.11279e-06
3.21125e-06
-5.074e-06
2.53108e-06
-1.34862e-06
-2.41626e-06
3.6048e-06
-4.15987e-06
-3.02292e-06
2.0991e-06
-4.08634e-06
-3.23277e-06
-1.18112e-07
-2.12764e-06
-1.46052e-06
-2.06329e-06
-1.09587e-06
4.20913e-08
-1.8092e-06
-5.45045e-07
1.77532e-06
-1.04663e-06
4.60866e-06
-1.60297e-06
-2.41937e-06
-3.86651e-06
-3.58331e-07
-1.19205e-06
-4.53692e-06
-1.06211e-06
-7.44151e-07
-2.87504e-06
-4.32256e-08
-3.20459e-07
-2.31137e-06
5.49295e-08
-2.04844e-07
-8.71258e-07
1.27214e-08
-2.6596e-07
-5.13122e-07
-4.21464e-08
-2.9302e-07
-1.65821e-07
-1.91879e-07
-2.69575e-07
-6.62962e-08
-2.33235e-07
-2.6461e-07
1.73898e-07
-2.37275e-07
-3.11966e-07
3.30617e-07
-1.99506e-07
-4.10921e-07
4.39856e-07
-1.96679e-07
-5.27529e-07
3.85386e-07
-2.17438e-07
-6.13463e-07
2.93574e-07
-2.5471e-07
-6.31963e-07
1.64157e-07
-2.99475e-07
-5.98875e-07
8.1464e-08
-3.28754e-07
-5.27235e-07
2.34569e-08
-3.58165e-07
-4.44137e-07
1.38706e-08
-3.73952e-07
-3.63093e-07
1.2812e-08
-3.85111e-07
-2.88483e-07
2.12817e-08
-3.91038e-07
-2.19276e-07
3.54192e-08
-3.94199e-07
-1.60713e-07
5.77048e-08
-3.9179e-07
-1.14367e-07
8.31455e-08
-3.86772e-07
-7.99459e-08
1.10649e-07
-3.80764e-07
-5.66114e-08
1.4062e-07
-3.75243e-07
-4.2644e-08
1.7181e-07
-3.70993e-07
-3.52874e-08
2.01893e-07
-3.67824e-07
-3.25207e-08
2.3084e-07
-3.65294e-07
-3.25195e-08
2.582e-07
-3.63089e-07
-3.42231e-08
2.83196e-07
-3.6179e-07
-3.70139e-08
3.08475e-07
-3.61241e-07
-4.13209e-08
3.37641e-07
-3.6136e-07
-4.83609e-08
3.68689e-07
-3.61785e-07
-5.61654e-08
3.98508e-07
-3.60636e-07
-6.76687e-08
4.24172e-07
-3.58076e-07
-8.52946e-08
4.454e-07
-3.53844e-07
-1.12062e-07
4.59888e-07
-3.47807e-07
-1.51288e-07
4.65415e-07
-3.40075e-07
-2.11397e-07
4.62545e-07
-3.28688e-07
-3.06668e-07
4.49516e-07
-3.09906e-07
-4.52655e-07
4.12567e-07
-2.79062e-07
-6.40559e-07
3.14949e-07
-2.33884e-07
-8.46843e-07
7.67774e-08
-1.58282e-07
-1.00005e-06
-5.05308e-07
-1.69804e-08
-1.09658e-06
-1.56824e-06
2.52164e-07
-1.23312e-06
-2.73939e-06
6.37062e-07
-2.52774e-06
-2.14226e-06
1.23941e-06
-5.92244e-06
2.66437e-06
1.78724e-06
-8.81472e-06
6.67113e-06
1.57426e-06
-9.52676e-06
6.79091e-06
-6.56873e-08
-5.63161e-06
4.71449e-07
-2.53579e-06
1.7266e-07
-1.15353e-05
-3.10412e-06
-2.77765e-06
-1.72255e-05
2.67118e-06
-1.36671e-05
-2.00038e-05
8.48649e-06
-1.9921e-05
-2.07863e-05
6.78974e-06
-2.08343e-05
-2.2279e-05
4.4788e-06
-1.72817e-05
-2.02611e-05
-4.27657e-07
6.28795e-06
-1.85973e-05
-8.04151e-06
1.34389e-05
-2.74973e-05
-6.07739e-07
2.1324e-06
3.64434e-05
6.14751e-06
-4.55224e-05
-2.42329e-05
1.93711e-06
-0.000125335
-4.1062e-05
9.3082e-06
-0.000111509
-1.71232e-05
1.89459e-06
-9.53004e-05
-1.45566e-05
6.26173e-06
-5.23415e-05
-2.0408e-06
2.85995e-06
-1.79694e-05
-4.65523e-06
4.32246e-06
-6.2619e-05
-1.13147e-06
2.42568e-06
-0.000113748
-4.68513e-07
4.10227e-06
-0.000110315
-1.09251e-06
3.61209e-06
-6.37609e-05
-2.17807e-06
4.39403e-06
-4.23817e-05
-4.08394e-06
5.611e-06
-6.22328e-05
-4.0071e-06
3.85355e-06
-7.08064e-05
-5.73421e-06
2.21449e-06
-4.7899e-05
-6.88724e-06
6.17328e-07
-1.92541e-05
-7.26355e-06
-3.24756e-07
-1.39185e-05
-5.63851e-06
-7.00447e-07
-8.38935e-06
-2.2963e-06
-4.85349e-07
-3.84816e-06
1.54711e-06
-1.24397e-07
-2.47432e-07
4.59943e-06
-3.29773e-07
2.22919e-06
7.27528e-06
-4.6525e-07
3.39577e-06
1.0528e-05
-3.12559e-07
5.05181e-06
1.19171e-05
-1.7923e-06
7.40833e-06
1.0653e-05
-3.10321e-06
8.2288e-06
7.22679e-06
-1.85542e-06
7.72689e-06
4.1395e-06
-1.59372e-06
8.08032e-06
1.06858e-06
-1.7446e-06
8.89222e-06
-1.99984e-06
-5.69597e-07
8.6715e-06
-2.93137e-06
-6.34871e-08
7.09535e-06
-4.20834e-06
-3.45509e-07
4.19642e-06
-1.36493e-06
5.73275e-07
-6.68571e-08
6.12925e-07
1.63167e-06
-3.04135e-06
-2.27191e-07
2.39488e-08
-3.14364e-06
1.7024e-07
-3.19173e-06
-1.27729e-06
1.31416e-08
-3.029e-06
3.58183e-08
1.15473e-06
-2.19792e-06
-3.71487e-07
3.50281e-06
-1.16659e-06
6.42294e-06
-1.26052e-06
-2.96776e-06
-3.74242e-06
-1.20241e-07
-1.80274e-06
-4.63999e-06
-1.06194e-06
-1.32066e-06
-3.18311e-06
-1.74015e-07
-5.69322e-07
-2.95128e-06
-1.11422e-07
-1.9797e-07
-1.39276e-06
1.50158e-07
-2.07834e-07
-5.69003e-07
6.57472e-08
-2.56822e-07
3.53552e-08
-1.52194e-07
-2.66761e-07
1.4032e-07
-1.96684e-07
-2.10609e-07
3.67526e-07
-2.49795e-07
-1.88544e-07
5.46841e-07
-2.38304e-07
-2.35755e-07
7.13475e-07
-2.26426e-07
-3.723e-07
7.29025e-07
-2.0711e-07
-5.09142e-07
6.45794e-07
-2.15396e-07
-5.75384e-07
4.75993e-07
-2.45611e-07
-5.7236e-07
3.52737e-07
-2.74312e-07
-5.20947e-07
2.81144e-07
-3.09117e-07
-4.52699e-07
2.79097e-07
-3.33487e-07
-3.86182e-07
2.99838e-07
-3.53558e-07
-3.2246e-07
3.26924e-07
-3.69376e-07
-2.59949e-07
3.54663e-07
-3.81768e-07
-1.99882e-07
3.86833e-07
-3.89203e-07
-1.46121e-07
4.20762e-07
-3.91389e-07
-1.01859e-07
4.56041e-07
-3.89659e-07
-6.78661e-08
4.91343e-07
-3.84724e-07
-4.395e-08
5.25563e-07
-3.77672e-07
-2.82684e-08
5.55829e-07
-3.69623e-07
-1.91062e-08
5.82747e-07
-3.6107e-07
-1.4781e-08
6.06533e-07
-3.52659e-07
-1.54787e-08
6.28425e-07
-3.44529e-07
-1.95385e-08
6.49828e-07
-3.3729e-07
-2.65163e-08
6.74971e-07
-3.30348e-07
-3.82035e-08
7.03338e-07
-3.22955e-07
-5.64562e-08
7.31877e-07
-3.15112e-07
-8.31895e-08
7.5775e-07
-3.06834e-07
-1.2084e-07
7.80672e-07
-2.97616e-07
-1.73682e-07
7.99162e-07
-2.86418e-07
-2.49073e-07
8.12561e-07
-2.71751e-07
-3.63701e-07
8.27011e-07
-2.49823e-07
-5.38824e-07
8.41404e-07
-2.16764e-07
-7.95987e-07
8.39205e-07
-1.69458e-07
-1.15566e-06
7.74847e-07
-1.00231e-07
-1.63317e-06
5.24497e-07
2.98021e-08
-2.35252e-06
-6.51624e-08
2.79197e-07
-3.55956e-06
-1.10288e-06
7.41692e-07
-5.55511e-06
-1.98759e-06
1.24372e-06
-8.18768e-06
-9.7442e-07
1.46474e-06
-1.03761e-05
3.33185e-06
1.52091e-06
-1.05557e-05
6.30582e-06
5.4498e-07
-8.34943e-06
5.91634e-06
-1.33173e-06
-3.69727e-06
-1.71138e-06
-2.46932e-06
-4.58286e-06
-9.67683e-06
-9.72877e-07
-1.5024e-05
-1.3432e-05
6.64771e-06
-2.52897e-05
-1.78824e-05
8.14432e-06
-3.02855e-05
-2.15024e-05
5.71201e-06
-3.38026e-05
-2.27627e-05
4.00085e-06
-2.93569e-05
-2.32583e-05
-1.44844e-06
-1.13248e-05
-2.78577e-05
-8.77192e-06
-1.24446e-05
-2.85047e-05
2.12712e-06
4.52919e-06
7.4806e-06
8.81792e-06
-5.08255e-05
-1.88205e-05
1.28177e-07
-0.000134791
-3.78568e-05
1.18617e-05
-0.000135598
-1.58667e-05
6.52453e-06
-0.000140583
-1.54863e-05
6.67936e-06
-0.000144385
-8.57694e-06
5.12871e-06
-0.000146836
-6.83586e-06
6.77085e-06
-0.000148678
-4.9113e-06
6.19494e-06
-0.000150326
-4.99201e-06
5.20855e-06
-0.000151564
-5.28424e-06
3.46553e-06
-0.000151344
-5.85277e-06
1.635e-06
-0.000149947
-5.92299e-06
-8.8198e-08
-0.000147793
-6.88355e-06
-1.56291e-06
-0.000145198
-6.76368e-06
-2.17496e-06
-0.000142612
-7.69288e-06
-1.81434e-06
-0.000138923
-8.09482e-06
-9.58098e-07
-0.000133617
-7.14056e-06
-6.3014e-07
-0.000127231
-4.08709e-06
-7.74756e-07
-0.000120822
5.04264e-07
-1.15589e-06
-0.000116368
5.7089e-06
-2.02547e-06
-0.000114246
9.70743e-06
-1.79502e-06
-0.000112348
1.21496e-05
-2.2829e-06
-0.000110284
1.25973e-05
-3.67043e-06
-0.000109314
1.14701e-05
-3.77468e-06
-0.000110068
8.83016e-06
-3.02071e-06
-0.000111084
5.56794e-06
-2.45045e-06
-0.000108512
3.19955e-06
-2.02718e-06
-9.29593e-05
7.4003e-07
-1.59183e-06
-3.79379e-05
-4.11558e-07
-2.54117e-07
-5.19587e-05
8.59646e-07
1.625e-06
-0.0001014
2.34525e-06
1.00902e-06
-5.30455e-05
2.91869e-06
-2.04756e-06
-7.70226e-06
3.51741e-06
-3.40495e-06
-6.28086e-06
2.91503e-06
-3.37174e-06
-2.71968e-06
2.70242e-06
-3.43575e-06
-3.66123e-08
3.85151e-06
-2.10411e-06
-2.53317e-07
5.41533e-06
-8.00248e-07
7.8208e-06
-7.07095e-07
-3.4097e-06
-3.51549e-06
2.24542e-07
-2.40031e-06
-4.75987e-06
-8.89511e-07
-1.99798e-06
-3.31933e-06
-2.66098e-07
-9.16131e-07
-3.35811e-06
-6.75003e-07
-2.72022e-07
-2.09545e-06
5.85875e-08
-6.32844e-08
-9.01684e-07
1.23943e-07
-5.02865e-08
1.26167e-07
-1.03813e-07
-1.63742e-07
3.59102e-07
-1.0534e-07
-1.2405e-07
5.34868e-07
-2.07046e-07
-8.84699e-08
7.11799e-07
-2.00555e-07
-9.79019e-08
9.26028e-07
-2.03136e-07
-2.4842e-07
1.051e-06
-1.7147e-07
-4.23306e-07
9.93009e-07
-1.72344e-07
-5.08071e-07
7.62211e-07
-2.01469e-07
-5.05364e-07
5.92219e-07
-2.42205e-07
-4.50299e-07
5.10812e-07
-2.84745e-07
-3.87608e-07
5.28361e-07
-3.1197e-07
-3.4093e-07
5.84061e-07
-3.3091e-07
-3.03432e-07
6.36222e-07
-3.46809e-07
-2.68718e-07
6.78978e-07
-3.59036e-07
-2.29269e-07
7.15141e-07
-3.67766e-07
-1.88552e-07
7.49745e-07
-3.69703e-07
-1.49956e-07
7.83809e-07
-3.66371e-07
-1.17045e-07
8.1758e-07
-3.59148e-07
-9.4151e-08
8.51844e-07
-3.49179e-07
-7.92862e-08
8.78256e-07
-3.37289e-07
-7.1583e-08
8.99321e-07
-3.24276e-07
-6.86229e-08
9.14797e-07
-3.11219e-07
-6.90029e-08
9.27344e-07
-2.98533e-07
-7.23593e-08
9.40222e-07
-2.87031e-07
-8.13811e-08
9.5993e-07
-2.75926e-07
-9.89668e-08
9.85894e-07
-2.6496e-07
-1.27371e-07
1.01406e-06
-2.53758e-07
-1.67697e-07
1.0397e-06
-2.41608e-07
-2.21137e-07
1.06182e-06
-2.27686e-07
-2.91254e-07
1.07994e-06
-2.10645e-07
-3.86245e-07
1.09741e-06
-1.89837e-07
-5.27814e-07
1.12951e-06
-1.60921e-07
-7.43001e-07
1.17788e-06
-1.21256e-07
-1.05924e-06
1.22376e-06
-6.83089e-08
-1.52779e-06
1.2352e-06
8.22056e-09
-2.26385e-06
1.11456e-06
1.45984e-07
-3.6047e-06
8.37763e-07
4.37955e-07
-5.97545e-06
3.25447e-07
9.42412e-07
-9.07254e-06
-1.92876e-07
1.30241e-06
-1.15708e-05
2.1378e-07
1.31003e-06
-1.17284e-05
2.41038e-06
1.07917e-06
-9.48429e-06
4.39231e-06
-3.30634e-07
-4.6271e-06
3.16022e-06
-2.10104e-06
-2.10751e-06
-2.25283e-06
-1.97817e-06
-7.05535e-06
-5.48954e-06
7.60582e-07
-1.66885e-05
-9.65908e-06
5.86026e-06
-2.36906e-05
-1.45342e-05
3.65389e-06
-2.91532e-05
-1.87712e-05
2.73137e-06
-3.26074e-05
-2.21934e-05
2.88505e-06
-2.91853e-05
-2.69021e-05
2.21638e-07
-2.6985e-05
-3.00436e-05
-1.46201e-08
-2.04363e-05
-3.96411e-05
4.58745e-06
4.14975e-06
-3.25568e-05
9.66886e-06
-6.87488e-05
-5.39796e-06
1.60745e-06
-0.000151126
-2.26351e-05
1.17865e-05
-0.00015901
-9.64165e-06
6.89798e-06
-0.000165436
-1.24646e-05
5.13143e-06
-0.000168188
-1.00426e-05
3.78639e-06
-0.00016913
-9.68386e-06
2.95266e-06
-0.000168706
-8.05913e-06
1.8867e-06
-0.000167783
-6.33671e-06
-1.32338e-07
-0.000167025
-4.85026e-06
-2.29996e-06
-0.000165791
-3.13096e-06
-4.07926e-06
-0.000164701
-2.23053e-06
-4.37425e-06
-0.00016371
-3.04708e-06
-3.82351e-06
-0.000161603
-5.06308e-06
-2.71073e-06
-0.000158785
-7.39973e-06
-2.21069e-06
-0.000155448
-9.02344e-06
-1.89018e-06
-0.00015055
-9.89139e-06
-2.09539e-06
-0.000143959
-8.29241e-06
-2.79975e-06
-0.000136646
-3.53354e-06
-3.561e-06
-0.000130862
3.548e-06
-4.20421e-06
-0.000127821
1.09932e-05
-4.37115e-06
-0.000125606
1.45459e-05
-4.84531e-06
-0.000123293
1.56308e-05
-4.92848e-06
-0.000121612
1.51079e-05
-4.22471e-06
-0.000122069
1.29194e-05
-2.57285e-06
-0.000124088
9.32652e-06
-1.32229e-06
-0.000127299
7.74561e-06
-7.59247e-07
-0.000131959
6.27109e-06
-3.45168e-07
-0.000136776
5.05901e-06
2.0206e-07
-0.000141065
5.83591e-06
-1.26752e-07
-0.000143031
6.4165e-06
-1.96417e-06
-0.000141635
5.89395e-06
-3.43944e-06
-0.000139363
5.56707e-06
-3.46532e-06
-0.00013464
4.44515e-06
-3.6248e-06
-0.000121654
4.73836e-06
-2.87139e-06
-8.91482e-05
5.28403e-06
-1.94294e-06
-3.45821e-05
6.39938e-06
-1.41021e-06
7.93752e-06
-1.9341e-06
-3.7185e-06
-3.15127e-06
6.53527e-07
-2.84949e-06
-4.7751e-06
-8.53769e-07
-2.48184e-06
-3.20533e-06
-4.81637e-07
-1.16278e-06
-3.33782e-06
-1.33934e-06
-3.23636e-07
-2.43594e-06
-4.98655e-07
1.09598e-07
-1.24422e-06
-9.06924e-08
1.6381e-07
2.56467e-07
-1.84521e-07
-8.43769e-08
6.93296e-07
-8.60153e-08
-9.51727e-08
7.62392e-07
-2.16744e-07
-7.58467e-08
8.97585e-07
-2.05126e-07
-6.21871e-08
1.12102e-06
-2.08672e-07
-1.77522e-07
1.31638e-06
-1.50064e-07
-3.20861e-07
1.28071e-06
-1.44375e-07
-3.91697e-07
1.01763e-06
-1.846e-07
-3.94704e-07
8.38059e-07
-2.42844e-07
-3.54357e-07
7.61694e-07
-2.91242e-07
-3.10303e-07
7.9829e-07
-3.13991e-07
-2.85279e-07
8.79856e-07
-3.20829e-07
-2.74549e-07
9.50532e-07
-3.25044e-07
-2.7167e-07
1.00396e-06
-3.27868e-07
-2.66799e-07
1.04149e-06
-3.31223e-07
-2.57761e-07
1.07123e-06
-3.30525e-07
-2.44697e-07
1.09575e-06
-3.25007e-07
-2.31492e-07
1.1195e-06
-3.15129e-07
-2.244e-07
1.14502e-06
-3.0026e-07
-2.20815e-07
1.16112e-06
-2.86448e-07
-2.2064e-07
1.17208e-06
-2.72922e-07
-2.22786e-07
1.17814e-06
-2.61186e-07
-2.24251e-07
1.17999e-06
-2.51172e-07
-2.27335e-07
1.18461e-06
-2.41288e-07
-2.38497e-07
1.2019e-06
-2.30791e-07
-2.62963e-07
1.23017e-06
-2.19785e-07
-3.0351e-07
1.26296e-06
-2.08342e-07
-3.58384e-07
1.29115e-06
-1.96559e-07
-4.2428e-07
1.31151e-06
-1.83772e-07
-5.01488e-07
1.32553e-06
-1.68348e-07
-5.97617e-07
1.34392e-06
-1.50363e-07
-7.28444e-07
1.38845e-06
-1.2808e-07
-9.1531e-07
1.46395e-06
-9.91934e-08
-1.17185e-06
1.54257e-06
-6.22262e-08
-1.53283e-06
1.60087e-06
-4.69247e-09
-2.15709e-06
1.62496e-06
1.13898e-07
-3.32391e-06
1.67322e-06
3.31362e-07
-5.40654e-06
1.72388e-06
6.84223e-07
-8.17051e-06
1.58398e-06
9.87108e-07
-1.02503e-05
1.25156e-06
1.04202e-06
-1.02541e-05
1.73713e-06
6.77079e-07
-7.14874e-06
2.19457e-06
-9.07571e-07
-2.49394e-06
4.99226e-07
-1.99383e-06
-1.60152e-06
-1.56665e-06
-1.57858e-06
-5.17851e-06
-2.28072e-06
3.68152e-07
-1.22314e-05
-5.1001e-06
2.49396e-06
-1.95792e-05
-8.3704e-06
1.18405e-06
-2.77271e-05
-1.1488e-05
8.64803e-07
-3.29536e-05
-1.66763e-05
-2.90619e-07
-3.04836e-05
-2.70682e-05
-2.30382e-06
-2.35874e-05
-3.26631e-05
-4.27718e-06
-1.61235e-05
-4.85582e-05
1.45295e-06
1.42161e-06
-6.16271e-05
2.79202e-06
-7.96621e-05
8.93833e-06
4.46862e-06
-0.000164865
3.72662e-06
1.06418e-05
-0.000175644
-2.96424e-06
5.90228e-06
-0.000183278
-7.0685e-06
3.94209e-06
-0.000187296
-9.33724e-06
1.93925e-06
-0.000188528
-9.81694e-06
8.32055e-07
-0.000187947
-9.41654e-06
-4.74434e-07
-0.000186849
-6.30869e-06
-2.15988e-06
-0.000185806
-4.00815e-06
-3.32085e-06
-0.000184604
-1.00519e-06
-4.05443e-06
-0.000182743
3.87611e-07
-4.30951e-06
-0.000180764
-1.08782e-06
-3.9082e-06
-0.000178966
-5.0631e-06
-2.28434e-06
-0.000177282
-8.43563e-06
-1.17259e-06
-0.000175876
-1.07296e-05
-4.22133e-07
-0.000173518
-1.18123e-05
-9.31811e-07
-0.000168994
-1.13955e-05
-1.88128e-06
-0.000161735
-8.01996e-06
-2.70126e-06
-0.000152835
-1.28213e-06
-3.93842e-06
-0.000146
8.74114e-06
-4.3813e-06
-0.000142485
1.47583e-05
-3.75806e-06
-0.000140129
1.64923e-05
-3.16095e-06
-0.000138759
1.59813e-05
-1.82753e-06
-0.000139607
1.47681e-05
-1.12742e-07
-0.000141258
1.2718e-05
8.86135e-07
-0.000143503
1.16596e-05
9.59418e-07
-0.000149614
1.20035e-05
1.5723e-06
-0.000158013
1.22267e-05
7.94153e-07
-0.000162003
1.11518e-05
-1.1428e-06
-0.000162261
8.80761e-06
-2.28343e-06
-0.000160729
6.40176e-06
-2.57751e-06
-0.00015927
5.39496e-06
-2.12098e-06
-0.000158603
4.66821e-06
-1.77014e-06
-0.000157973
4.58963e-06
-1.27571e-06
-0.000154849
4.13449e-06
-1.7333e-06
-0.00014707
4.30256e-06
-2.73613e-06
4.28648e-06
-4.34121e-06
-3.56766e-06
-2.62679e-06
1.23273e-06
-3.03389e-06
-4.47575e-06
-8.33108e-07
-2.89565e-06
-2.9767e-06
-3.66856e-07
-1.55542e-06
-3.15335e-06
-1.52469e-06
-5.72918e-07
-2.60541e-06
-8.13012e-07
1.66344e-07
-1.65974e-06
-3.23743e-07
3.39318e-07
3.10363e-07
-2.26875e-07
9.62222e-08
9.19164e-07
1.72142e-08
1.48964e-08
1.06486e-06
-2.21152e-07
-8.01865e-08
1.1738e-06
-1.81151e-07
-6.93669e-08
1.33794e-06
-2.27744e-07
-7.56746e-08
1.52659e-06
-2.03921e-07
-6.63337e-08
1.50352e-06
-2.32166e-07
-6.99833e-08
1.3101e-06
-2.88826e-07
-9.52643e-08
1.20724e-06
-3.43914e-07
-1.45418e-07
1.20201e-06
-3.90171e-07
-1.98262e-07
1.27431e-06
-4.23181e-07
-2.48227e-07
1.37247e-06
-4.42648e-07
-2.95653e-07
1.45687e-06
-4.58917e-07
-3.4298e-07
1.52086e-06
-4.6957e-07
-3.73598e-07
1.54876e-06
-4.76649e-07
-3.89706e-07
1.56732e-06
-4.7998e-07
-3.96862e-07
1.58281e-06
-4.79897e-07
-3.9808e-07
1.59788e-06
-4.77151e-07
-3.95342e-07
1.61411e-06
-4.71823e-07
-3.93468e-07
1.6254e-06
-4.66136e-07
-3.92991e-07
1.63266e-06
-4.61052e-07
-3.9263e-07
1.63469e-06
-4.56892e-07
-3.91868e-07
1.6323e-06
-4.5305e-07
-3.95839e-07
1.6376e-06
-4.49e-07
-4.13469e-07
1.66165e-06
-4.42098e-07
-4.47608e-07
1.69728e-06
-4.32956e-07
-4.98366e-07
1.73634e-06
-4.22587e-07
-5.60154e-07
1.76628e-06
-4.13306e-07
-6.2777e-07
1.78504e-06
-4.05882e-07
-6.95072e-07
1.79153e-06
-3.98679e-07
-7.71843e-07
1.80604e-06
-3.85294e-07
-8.72646e-07
1.85718e-06
-3.67896e-07
-1.00959e-06
1.94631e-06
-3.45361e-07
-1.18214e-06
2.03472e-06
-3.19588e-07
-1.4081e-06
2.10287e-06
-2.76004e-07
-1.80482e-06
2.20634e-06
-1.84661e-07
-2.59008e-06
2.44885e-06
9.65216e-09
-3.90515e-06
2.77967e-06
2.5927e-07
-5.86392e-06
3.02236e-06
5.20413e-07
-7.54052e-06
2.37416e-06
5.54011e-07
-7.96809e-06
1.96914e-06
1.95621e-07
-5.95011e-06
1.23378e-06
-1.05718e-06
-2.73992e-06
-4.86051e-07
-2.22489e-06
-2.07976e-06
-6.94323e-07
-1.5325e-06
-5.34289e-06
2.86429e-06
-1.88184e-06
-1.38565e-05
5.90855e-06
-2.49506e-06
-2.3505e-05
6.04801e-06
-4.76981e-06
-2.97637e-05
2.12782e-06
-7.3571e-06
-3.38186e-05
-2.99956e-06
-9.62186e-06
-3.15437e-05
-1.61101e-05
-1.32329e-05
-2.30239e-05
-2.44409e-05
-1.67422e-05
-1.9095e-05
-4.09982e-05
-1.14892e-05
-4.44226e-06
-7.17165e-05
-1.48436e-05
-9.24333e-05
1.4973e-05
7.63604e-06
-0.000191495
3.57561e-05
1.2676e-05
-0.00020459
4.2886e-06
5.66177e-06
-0.000214856
2.03807e-06
1.39568e-06
-0.000219113
-6.22518e-06
9.84704e-08
-0.000221737
-5.28501e-06
-1.19045e-07
-0.000221832
-7.13176e-06
-1.03989e-06
-0.000221005
-3.64682e-06
-3.67415e-06
-0.000218384
-1.48022e-06
-5.46676e-06
-0.000213721
-8.76536e-07
-6.15947e-06
-0.000209445
-2.79051e-06
-5.0806e-06
-0.000206209
-5.19871e-06
-2.92087e-06
-0.000204321
-7.86497e-06
-5.14084e-07
-0.000204966
-9.60933e-06
1.0799e-06
-0.000206755
-1.09077e-05
1.89463e-06
-0.000208111
-1.16743e-05
2.36862e-06
-0.00020884
-1.23794e-05
1.96933e-06
-0.000207529
-1.12733e-05
9.36561e-07
-0.000201913
-6.08675e-06
-9.02916e-07
-0.000193431
3.56311e-06
-2.53372e-06
-0.000186066
1.12949e-05
-3.15073e-06
-0.000180099
1.27328e-05
-2.45841e-06
-0.000177641
1.38171e-05
-2.06792e-08
-0.000181021
1.58286e-05
2.6115e-06
-0.000189289
1.6381e-05
4.3038e-06
-0.000199089
1.74808e-05
3.42186e-06
-0.000206672
1.74159e-05
2.00326e-06
-0.000209576
1.5173e-05
-1.07757e-07
-0.000206529
1.12909e-05
-4.37269e-07
-0.000195619
6.8498e-06
-1.00063e-06
-0.000160601
1.96906e-06
-9.82593e-07
-8.06462e-05
-7.3886e-07
4.06502e-07
-2.28782e-05
-3.74119e-06
2.75832e-06
-2.0331e-05
-4.60729e-06
4.8728e-06
-1.86756e-05
-5.17576e-06
6.29561e-06
-7.7862e-05
-9.60359e-06
7.2502e-06
-1.11747e-05
7.54518e-06
-2.9907e-06
-1.61346e-06
2.071e-06
-3.04087e-06
-4.14636e-06
-2.79212e-07
-3.34302e-06
-2.79876e-06
1.24235e-07
-2.18264e-06
-3.20412e-06
-1.1096e-06
-1.03815e-06
-2.85331e-06
-8.96575e-07
6.57822e-08
-2.16969e-06
-5.93989e-07
3.63401e-07
-1.45106e-07
1.57843e-07
1.44132e-07
6.41238e-07
4.97186e-07
4.88447e-08
1.0186e-06
1.41533e-07
-7.7171e-08
1.10367e-06
1.96134e-07
-3.57076e-08
1.23823e-06
5.82301e-08