/*--------------------------------*- C++ -*----------------------------------*\
| =========                 |                                                 |
| \\      /  F ield         | OpenFOAM: The Open Source CFD Toolbox           |
|  \\    /   O peration     | Version:  2.3.0                                 |
|   \\  /    A nd           | Web:      www.OpenFOAM.org                      |
|    \\/     M anipulation  |                                                 |
\*---------------------------------------------------------------------------*/
FoamFile
{
    version     2.0;
    format      ascii;
    class       volScalarField;
    location    "35";
    object      rho;
}
// * * * * * * * * * * * * * * * * * * * * * * * * * * * * * * * * * * * * * //

dimensions      [1 -3 0 0 0 0 0];

internalField   nonuniform List<scalar> 
6144
(
1.16375
1.1645
1.16499
1.16544
1.16588
1.1665
1.16725
1.16828
1.16881
1.16888
1.16889
1.16889
1.1689
1.1689
1.1689
1.1689
1.16891
1.16891
1.16891
1.16891
1.16891
1.16891
1.16892
1.16892
1.16892
1.16892
1.16892
1.16892
1.16892
1.16893
1.16893
1.16893
1.16893
1.16893
1.16893
1.16894
1.16894
1.16894
1.16894
1.16894
1.16894
1.16895
1.16894
1.16895
1.16894
1.16895
1.16895
1.16899
1.17026
1.1759
1.18416
1.19542
1.21217
1.23979
1.26308
1.29035
1.30345
1.37654
2.18421
64.9385
983.45
1026.93
1027.09
1027.1
1027.1
1027.1
1027.1
1027.1
1027.1
1027.1
1027.1
1027.1
1027.1
1027.1
1027.1
1027.1
1027.1
1027.1
1027.1
1027.1
1027.1
1027.1
1027.1
1027.1
1027.1
1027.1
1027.1
1027.1
1027.1
1027.1
1027.1
1027.1
1027.1
1027.1
1027.1
1027.1
1.16329
1.16433
1.16519
1.1657
1.16633
1.16689
1.16751
1.16837
1.16884
1.16889
1.16889
1.16889
1.1689
1.16891
1.16891
1.16891
1.16891
1.16891
1.16892
1.16892
1.16892
1.16892
1.16892
1.16892
1.16892
1.16893
1.16893
1.16893
1.16893
1.16893
1.16893
1.16894
1.16894
1.16894
1.16894
1.16894
1.16894
1.16895
1.16895
1.16895
1.16895
1.16896
1.16895
1.16896
1.16895
1.16897
1.16896
1.16902
1.16969
1.17375
1.18078
1.19224
1.2063
1.23299
1.26267
1.28666
1.3299
1.43781
1.56021
101.326
993.85
1027.09
1027.09
1027.1
1027.1
1027.1
1027.1
1027.1
1027.1
1027.1
1027.1
1027.1
1027.1
1027.1
1027.1
1027.1
1027.1
1027.1
1027.1
1027.1
1027.1
1027.1
1027.1
1027.1
1027.1
1027.1
1027.1
1027.1
1027.1
1027.1
1027.1
1027.1
1027.1
1027.1
1027.1
1027.1
1.16301
1.16399
1.16499
1.16563
1.16643
1.16696
1.16756
1.16824
1.16871
1.16881
1.16883
1.16886
1.16889
1.1689
1.16891
1.16891
1.16891
1.16891
1.16892
1.16892
1.16892
1.16892
1.16892
1.16892
1.16892
1.16893
1.16893
1.16893
1.16893
1.16893
1.16893
1.16894
1.16894
1.16894
1.16894
1.16894
1.16894
1.16895
1.16895
1.16895
1.16895
1.16896
1.16895
1.16896
1.16895
1.16897
1.16895
1.16902
1.1692
1.1709
1.17572
1.18917
1.20308
1.22264
1.26138
1.29702
1.32024
1.4003
1.22986
165.291
1023.42
1027.07
1027.07
1027.07
1027.07
1027.07
1027.07
1027.07
1027.08
1027.08
1027.08
1027.09
1027.09
1027.09
1027.09
1027.1
1027.1
1027.1
1027.1
1027.1
1027.1
1027.1
1027.1
1027.1
1027.1
1027.1
1027.1
1027.1
1027.1
1027.1
1027.1
1027.1
1027.1
1027.1
1027.1
1027.1
1.1628
1.16361
1.16467
1.1653
1.1661
1.16666
1.16733
1.16805
1.16861
1.16876
1.1688
1.16885
1.16888
1.1689
1.16891
1.16891
1.16891
1.16891
1.16891
1.16891
1.16892
1.16892
1.16892
1.16892
1.16892
1.16892
1.16892
1.16893
1.16893
1.16893
1.16893
1.16893
1.16893
1.16894
1.16894
1.16894
1.16894
1.16894
1.16894
1.16895
1.16895
1.16895
1.16895
1.16896
1.16895
1.16897
1.16895
1.16901
1.16911
1.17002
1.17307
1.18565
1.1999
1.22936
1.28376
1.30884
1.31078
1.33214
1.16897
259.184
1024
1025.94
1025.98
1026.06
1026.18
1026.24
1026.21
1026.24
1026.28
1026.34
1026.44
1026.49
1026.59
1026.72
1026.8
1026.85
1026.92
1027
1027.05
1027.08
1027.09
1027.09
1027.1
1027.1
1027.1
1027.1
1027.1
1027.1
1027.1
1027.1
1027.1
1027.1
1027.1
1027.1
1027.1
1027.1
1.16264
1.16327
1.1643
1.16494
1.16579
1.16639
1.16715
1.16784
1.16852
1.16873
1.16879
1.16885
1.16889
1.1689
1.16891
1.16891
1.16891
1.16891
1.16892
1.16892
1.16892
1.16892
1.16892
1.16892
1.16893
1.16893
1.16893
1.16893
1.16893
1.16893
1.16893
1.16893
1.16894
1.16894
1.16894
1.16894
1.16894
1.16895
1.16894
1.16895
1.16895
1.16895
1.16895
1.16896
1.16895
1.16897
1.16895
1.16901
1.16917
1.16996
1.17223
1.18192
1.19554
1.24222
1.29582
1.29796
1.29368
1.30027
1.16897
337.572
1014.4
1018.61
1018.33
1018.78
1020.17
1021.14
1021.65
1021.75
1021.75
1021.75
1021.8
1022.29
1023.02
1023.4
1023.46
1023.61
1024.3
1025.18
1025.79
1026.14
1026.45
1026.71
1026.95
1027.06
1027.09
1027.1
1027.1
1027.1
1027.1
1027.1
1027.1
1027.1
1027.1
1027.1
1027.1
1027.1
1.16253
1.16299
1.16393
1.16451
1.16539
1.16605
1.16689
1.1676
1.1684
1.16871
1.16878
1.16885
1.16888
1.1689
1.1689
1.1689
1.16891
1.16891
1.16891
1.16891
1.16891
1.16892
1.16892
1.16892
1.16892
1.16892
1.16892
1.16893
1.16893
1.16893
1.16893
1.16893
1.16893
1.16893
1.16894
1.16894
1.16894
1.16894
1.16894
1.16895
1.16894
1.16895
1.16895
1.16896
1.16895
1.16897
1.16895
1.16905
1.16926
1.17029
1.17255
1.18134
1.19187
1.21776
1.27657
1.32344
1.31593
1.31606
1.16897
346.512
1004.01
1009.37
1008.01
1007.77
1008.32
1010.88
1014.06
1015.59
1016.3
1014.51
1013.63
1015.52
1016.51
1017.43
1016.76
1016.23
1016.75
1018.27
1019.74
1020.47
1021.13
1022.55
1024.8
1025.85
1026.44
1026.87
1027.05
1027.09
1027.1
1027.1
1027.1
1027.1
1027.1
1027.1
1027.1
1027.1
1.16243
1.16275
1.16352
1.16404
1.16499
1.16568
1.16661
1.16737
1.16822
1.16869
1.16876
1.16885
1.16889
1.1689
1.16891
1.16891
1.16891
1.16891
1.16891
1.16892
1.16892
1.16892
1.16892
1.16892
1.16892
1.16892
1.16892
1.16893
1.16893
1.16893
1.16893
1.16893
1.16893
1.16894
1.16894
1.16894
1.16894
1.16894
1.16894
1.16895
1.16894
1.16895
1.16895
1.16896
1.16895
1.16897
1.16895
1.16907
1.16934
1.17059
1.17354
1.18721
1.2023
1.21348
1.24686
1.31318
1.3275
1.35702
1.16897
327.571
1005
1010.18
1006.32
1005.46
1005.33
1004.05
1005.23
1009.38
1011.03
1011.25
1011.46
1011.96
1012.97
1014.54
1014.87
1012.21
1010.31
1011.27
1011.94
1011.81
1012.72
1015.77
1018.07
1019.22
1020.46
1023.08
1025.2
1026.16
1026.72
1027.02
1027.02
1027.02
1027.01
1026.98
1026.95
1026.96
1.16231
1.16253
1.16309
1.1635
1.16456
1.16534
1.16642
1.16731
1.16806
1.16862
1.16872
1.16883
1.16888
1.1689
1.16891
1.16891
1.16891
1.16891
1.16891
1.16892
1.16892
1.16892
1.16892
1.16892
1.16892
1.16893
1.16893
1.16893
1.16893
1.16893
1.16893
1.16894
1.16894
1.16894
1.16894
1.16894
1.16894
1.16895
1.16895
1.16895
1.16895
1.16896
1.16895
1.16896
1.16896
1.16897
1.16896
1.16905
1.16932
1.17102
1.17648
1.19466
1.20743
1.21745
1.23814
1.28313
1.31525
1.40064
1.16897
300.062
1004.8
1012.27
1011.53
1012.43
1013.6
1013.93
1014
1013.9
1013.75
1013.49
1013.05
1012.91
1013.03
1013.45
1013.61
1011.46
1010.53
1010.96
1009.64
1009.15
1010.3
1011.03
1011.76
1011.59
1010.77
1014.31
1016.74
1016.99
1016.09
1019.12
1021.77
1022.19
1022.03
1021.77
1021.45
1021.42
1.16212
1.16232
1.16267
1.16296
1.16405
1.16494
1.16618
1.1672
1.16789
1.16847
1.16865
1.16879
1.16887
1.1689
1.1689
1.1689
1.16891
1.16891
1.16891
1.16891
1.16891
1.16892
1.16892
1.16892
1.16892
1.16892
1.16892
1.16893
1.16893
1.16893
1.16893
1.16893
1.16893
1.16894
1.16894
1.16894
1.16894
1.16894
1.16894
1.16895
1.16895
1.16895
1.16895
1.16896
1.16896
1.16897
1.16896
1.16906
1.16937
1.17149
1.17934
1.1953
1.20965
1.22448
1.23806
1.27066
1.28325
1.45148
1.23917
182.954
1003.91
1022.21
1023.22
1024.15
1024.26
1024.31
1023.75
1022.87
1022.88
1023.36
1023.48
1023.02
1021.93
1021.51
1021.27
1020.18
1018.97
1017.78
1017.33
1017.69
1018.62
1016.99
1014.22
1013.61
1013.62
1015.1
1016.53
1018.6
1020.47
1022.05
1023.37
1024.02
1024.48
1024.88
1025.23
1025.92
1.16191
1.162
1.1623
1.16247
1.16349
1.16448
1.16591
1.16706
1.16776
1.16832
1.16858
1.16875
1.16885
1.16889
1.1689
1.16891
1.16891
1.16891
1.16891
1.16892
1.16892
1.16892
1.16892
1.16892
1.16892
1.16892
1.16893
1.16893
1.16893
1.16893
1.16893
1.16893
1.16894
1.16894
1.16894
1.16894
1.16894
1.16894
1.16894
1.16895
1.16895
1.16895
1.16895
1.16896
1.16896
1.16897
1.16896
1.16913
1.16963
1.17213
1.17922
1.193
1.21223
1.23479
1.25461
1.28683
1.31125
1.56646
1.36672
114.653
1011.25
1026.52
1026.64
1026.73
1026.71
1026.72
1026.66
1026.56
1026.5
1026.45
1026.41
1026.32
1026.01
1025.79
1025.8
1025.87
1025.87
1025.83
1025.48
1025.01
1024.43
1023.99
1023.93
1023.96
1023.85
1023.3
1022.84
1022.93
1024.23
1025.07
1025.54
1026.03
1026.36
1026.63
1026.87
1027
1.16167
1.16166
1.1619
1.16205
1.16301
1.16404
1.16567
1.167
1.16784
1.16834
1.16859
1.16873
1.16881
1.16886
1.16889
1.1689
1.16891
1.16891
1.16891
1.16891
1.16892
1.16892
1.16892
1.16892
1.16892
1.16892
1.16893
1.16893
1.16893
1.16893
1.16893
1.16893
1.16894
1.16894
1.16894
1.16894
1.16894
1.16894
1.16894
1.16895
1.16895
1.16895
1.16895
1.16896
1.16896
1.16898
1.16898
1.16927
1.17012
1.17326
1.1795
1.18912
1.20641
1.23026
1.26587
1.3031
1.30981
1.6619
1.39682
75.6657
1010.42
1027.07
1027.08
1027.08
1027.08
1027.08
1027.07
1027.07
1027.07
1027.06
1027.05
1027.05
1027.05
1027.04
1027.04
1027.03
1027.02
1027.01
1027
1026.98
1026.95
1026.93
1026.92
1026.91
1026.9
1026.89
1026.9
1026.91
1026.93
1026.98
1027.01
1027.04
1027.07
1027.09
1027.1
1027.1
1.16077
1.16136
1.16148
1.16162
1.1624
1.1635
1.16542
1.16693
1.16791
1.1684
1.16862
1.16875
1.16881
1.16887
1.16889
1.16891
1.16891
1.16891
1.16891
1.16891
1.16892
1.16892
1.16892
1.16892
1.16892
1.16893
1.16893
1.16893
1.16893
1.16893
1.16893
1.16894
1.16894
1.16894
1.16894
1.16894
1.16895
1.16895
1.16895
1.16895
1.16895
1.16896
1.16896
1.16896
1.16896
1.16899
1.169
1.1693
1.17027
1.17372
1.17962
1.18663
1.19939
1.21894
1.24686
1.28976
1.30377
1.74815
1.47637
48.5618
1006.27
1027.08
1027.1
1027.1
1027.1
1027.1
1027.1
1027.1
1027.1
1027.1
1027.1
1027.1
1027.1
1027.1
1027.1
1027.1
1027.1
1027.1
1027.1
1027.1
1027.1
1027.1
1027.1
1027.1
1027.1
1027.1
1027.1
1027.1
1027.1
1027.1
1027.1
1027.1
1027.1
1027.1
1027.1
1027.1
1.16065
1.16114
1.16109
1.16122
1.16184
1.16294
1.16503
1.16666
1.16781
1.1684
1.16866
1.1688
1.16885
1.1689
1.16891
1.16892
1.16891
1.16891
1.16892
1.16892
1.16892
1.16892
1.16892
1.16892
1.16893
1.16893
1.16893
1.16893
1.16893
1.16893
1.16894
1.16894
1.16894
1.16894
1.16894
1.16895
1.16895
1.16895
1.16895
1.16895
1.16895
1.16896
1.16896
1.16897
1.16896
1.16898
1.169
1.16925
1.17018
1.17341
1.1789
1.18613
1.19556
1.21304
1.22963
1.26718
1.32854
1.85485
1.58986
46.042
1008.05
1027.08
1027.1
1027.1
1027.1
1027.1
1027.1
1027.1
1027.1
1027.1
1027.1
1027.1
1027.1
1027.1
1027.1
1027.1
1027.1
1027.1
1027.1
1027.1
1027.1
1027.1
1027.1
1027.1
1027.1
1027.1
1027.1
1027.1
1027.1
1027.1
1027.1
1027.1
1027.1
1027.1
1027.1
1027.1
1.16061
1.16082
1.16077
1.16076
1.16142
1.16234
1.16444
1.16652
1.1676
1.16834
1.16867
1.16881
1.16886
1.1689
1.16892
1.16892
1.16892
1.16892
1.16892
1.16892
1.16892
1.16892
1.16893
1.16893
1.16893
1.16893
1.16893
1.16893
1.16894
1.16894
1.16894
1.16894
1.16894
1.16894
1.16894
1.16895
1.16895
1.16895
1.16895
1.16895
1.16895
1.16896
1.16896
1.16897
1.16897
1.16898
1.16899
1.1692
1.16989
1.17252
1.17779
1.18599
1.19729
1.21566
1.22701
1.24716
1.38629
1.96827
1.68805
65.5891
1011.64
1027.09
1027.1
1027.1
1027.1
1027.1
1027.1
1027.1
1027.1
1027.1
1027.1
1027.1
1027.1
1027.1
1027.1
1027.1
1027.1
1027.1
1027.1
1027.1
1027.1
1027.1
1027.1
1027.1
1027.1
1027.1
1027.1
1027.1
1027.1
1027.1
1027.1
1027.1
1027.1
1027.1
1027.1
1027.1
1.16052
1.16065
1.16065
1.16062
1.16105
1.16151
1.16353
1.16644
1.16761
1.16828
1.16863
1.16878
1.16885
1.1689
1.16891
1.16892
1.16892
1.16892
1.16892
1.16892
1.16892
1.16892
1.16893
1.16893
1.16893
1.16893
1.16893
1.16893
1.16893
1.16894
1.16894
1.16894
1.16894
1.16894
1.16894
1.16895
1.16895
1.16895
1.16895
1.16895
1.16895
1.16896
1.16896
1.16896
1.16896
1.16897
1.16898
1.16912
1.16949
1.17126
1.17631
1.1862
1.20193
1.22034
1.22887
1.24945
1.51322
2.05745
2.33258
59.927
1007.67
1027.08
1027.1
1027.1
1027.1
1027.1
1027.1
1027.1
1027.1
1027.1
1027.1
1027.1
1027.1
1027.1
1027.1
1027.1
1027.1
1027.1
1027.1
1027.1
1027.1
1027.1
1027.1
1027.1
1027.1
1027.1
1027.1
1027.1
1027.1
1027.1
1027.1
1027.1
1027.1
1027.1
1027.1
1027.1
1.15999
1.16058
1.16084
1.16083
1.16073
1.1607
1.16256
1.16567
1.16787
1.16845
1.16869
1.1688
1.16885
1.1689
1.16892
1.16892
1.16892
1.16892
1.16893
1.16893
1.16893
1.16893
1.16893
1.16893
1.16893
1.16894
1.16894
1.16894
1.16894
1.16894
1.16894
1.16895
1.16895
1.16895
1.16895
1.16895
1.16895
1.16895
1.16896
1.16896
1.16896
1.16896
1.16897
1.16897
1.16897
1.16897
1.16897
1.16905
1.1692
1.17032
1.17517
1.18632
1.2014
1.22019
1.23506
1.34224
1.39352
2.04129
2.04153
51.7979
994.863
1027.01
1027.1
1027.1
1027.1
1027.1
1027.1
1027.1
1027.1
1027.1
1027.1
1027.1
1027.1
1027.1
1027.1
1027.1
1027.1
1027.1
1027.1
1027.1
1027.1
1027.1
1027.1
1027.1
1027.1
1027.1
1027.1
1027.1
1027.1
1027.1
1027.1
1027.1
1027.1
1027.1
1027.1
1027.1
1.16326
1.16433
1.16494
1.1654
1.16578
1.16643
1.16755
1.16847
1.16872
1.16876
1.16882
1.16887
1.1689
1.16892
1.16892
1.16892
1.16892
1.16893
1.16893
1.16893
1.16893
1.16893
1.16893
1.16893
1.16893
1.16894
1.16894
1.16894
1.16894
1.16894
1.16895
1.16895
1.16895
1.16895
1.16895
1.16895
1.16896
1.16896
1.16896
1.16896
1.16896
1.16896
1.16897
1.16897
1.16897
1.16898
1.16897
1.169
1.17003
1.1762
1.18519
1.19655
1.2123
1.2373
1.26144
1.28873
1.29332
1.55141
3.77473
74.0467
971.317
1026.81
1027.09
1027.1
1027.1
1027.1
1027.1
1027.1
1027.1
1027.1
1027.1
1027.1
1027.1
1027.1
1027.1
1027.1
1027.1
1027.1
1027.1
1027.1
1027.1
1027.1
1027.1
1027.1
1027.1
1027.1
1027.1
1027.1
1027.1
1027.1
1027.1
1027.1
1027.1
1027.1
1027.1
1027.1
1.16253
1.16397
1.16525
1.16584
1.16652
1.16743
1.16792
1.16815
1.16836
1.16851
1.16866
1.16878
1.16886
1.1689
1.16892
1.16892
1.16892
1.16892
1.16893
1.16893
1.16893
1.16893
1.16893
1.16893
1.16894
1.16894
1.16894
1.16894
1.16894
1.16894
1.16894
1.16895
1.16895
1.16895
1.16895
1.16895
1.16895
1.16896
1.16896
1.16896
1.16896
1.16896
1.16896
1.16897
1.16897
1.16898
1.16897
1.16905
1.16932
1.1723
1.1805
1.19369
1.20715
1.23351
1.27185
1.28499
1.34226
1.55282
2.12971
104.96
996.819
1027.09
1027.09
1027.09
1027.09
1027.09
1027.1
1027.1
1027.1
1027.1
1027.1
1027.1
1027.1
1027.1
1027.1
1027.1
1027.1
1027.1
1027.1
1027.1
1027.1
1027.1
1027.1
1027.1
1027.1
1027.1
1027.1
1027.1
1027.1
1027.1
1027.1
1027.1
1027.1
1027.1
1027.1
1027.1
1.16213
1.1633
1.1648
1.16561
1.16642
1.1669
1.1673
1.16768
1.16809
1.16836
1.16857
1.16873
1.16883
1.1689
1.16891
1.16892
1.16892
1.16892
1.16892
1.16892
1.16893
1.16893
1.16893
1.16893
1.16893
1.16893
1.16894
1.16894
1.16894
1.16894
1.16894
1.16894
1.16894
1.16895
1.16895
1.16895
1.16895
1.16895
1.16895
1.16896
1.16896
1.16896
1.16896
1.16897
1.16896
1.16898
1.16897
1.16908
1.16938
1.17049
1.17496
1.18959
1.20411
1.22201
1.28418
1.30315
1.40071
1.40058
1.29555
145.48
1024.6
1027.07
1027.06
1027.06
1027.06
1027.06
1027.06
1027.07
1027.07
1027.08
1027.08
1027.08
1027.08
1027.08
1027.08
1027.08
1027.09
1027.09
1027.09
1027.1
1027.1
1027.1
1027.1
1027.1
1027.1
1027.1
1027.1
1027.1
1027.1
1027.1
1027.1
1027.1
1027.1
1027.1
1027.1
1027.1
1.16188
1.1626
1.16417
1.16489
1.16564
1.16629
1.16685
1.16741
1.16795
1.16831
1.16854
1.16871
1.16882
1.16889
1.16891
1.16892
1.16892
1.16892
1.16892
1.16892
1.16892
1.16893
1.16893
1.16893
1.16893
1.16893
1.16893
1.16893
1.16894
1.16894
1.16894
1.16894
1.16894
1.16894
1.16895
1.16895
1.16895
1.16895
1.16895
1.16895
1.16895
1.16896
1.16896
1.16897
1.16896
1.16897
1.16896
1.16908
1.16953
1.17124
1.17483
1.18661
1.2046
1.24393
1.30671
1.31757
1.31819
1.27104
1.2055
187.853
1024.53
1026.13
1026.02
1026.02
1026.02
1025.95
1025.89
1025.86
1025.89
1026.04
1026.1
1026.11
1026.02
1025.79
1025.7
1026.1
1026.41
1026.57
1026.73
1026.9
1027
1027.06
1027.09
1027.1
1027.1
1027.1
1027.1
1027.1
1027.1
1027.1
1027.1
1027.1
1027.1
1027.1
1027.1
1027.1
1.16171
1.16202
1.16369
1.16446
1.16515
1.16592
1.16658
1.16725
1.16788
1.16828
1.16853
1.16871
1.16882
1.16889
1.16891
1.16892
1.16892
1.16892
1.16892
1.16892
1.16892
1.16892
1.16893
1.16893
1.16893
1.16893
1.16893
1.16893
1.16893
1.16894
1.16894
1.16894
1.16894
1.16894
1.16894
1.16895
1.16895
1.16895
1.16895
1.16895
1.16895
1.16896
1.16896
1.16896
1.16896
1.16897
1.16896
1.16907
1.16957
1.1722
1.17716
1.18455
1.19605
1.26991
1.29986
1.30134
1.29497
1.29116
1.19999
259.297
1013.89
1019.22
1018.76
1019.24
1019.93
1019.99
1018.62
1016.35
1015.03
1014.63
1015.36
1016.1
1016.69
1014.75
1013.7
1017.64
1019.08
1019.57
1020.71
1022.35
1023.77
1025.23
1026.32
1026.84
1027.03
1027.09
1027.1
1027.1
1027.1
1027.1
1027.1
1027.1
1027.1
1027.1
1027.1
1027.1
1.16157
1.1616
1.16317
1.16409
1.16477
1.16565
1.16639
1.16714
1.16784
1.16828
1.16853
1.16871
1.16881
1.16889
1.16891
1.16891
1.16892
1.16892
1.16892
1.16892
1.16892
1.16892
1.16892
1.16893
1.16893
1.16893
1.16893
1.16893
1.16893
1.16893
1.16894
1.16894
1.16894
1.16894
1.16894
1.16894
1.16895
1.16895
1.16895
1.16895
1.16895
1.16896
1.16896
1.16896
1.16896
1.16897
1.16896
1.16907
1.16954
1.1727
1.18
1.18819
1.1931
1.22823
1.31286
1.33864
1.32095
1.28549
1.19088
297.255
994.308
1003.5
1001.41
1001.25
1001.35
1001.34
1001.13
1000.48
1000.14
999.887
999.634
999.461
999.34
999.608
1000.82
1001.35
1002.2
1003.14
1003.3
1003.07
1004.8
1010.49
1016.96
1021.52
1024.25
1025.92
1026.78
1027.05
1027.09
1027.1
1027.1
1027.1
1027.1
1027.1
1027.1
1027.1
1.16148
1.16133
1.16258
1.16361
1.16439
1.16538
1.16624
1.16707
1.16783
1.16829
1.16854
1.16872
1.16882
1.16888
1.16891
1.16891
1.16892
1.16892
1.16892
1.16892
1.16892
1.16892
1.16892
1.16893
1.16893
1.16893
1.16893
1.16893
1.16893
1.16893
1.16894
1.16894
1.16894
1.16894
1.16894
1.16894
1.16895
1.16895
1.16895
1.16895
1.16895
1.16896
1.16896
1.16896
1.16896
1.16897
1.16897
1.16907
1.16948
1.17285
1.1812
1.19284
1.19829
1.2089
1.26607
1.35143
1.37276
1.30926
1.18409
293.107
986.372
997.894
995.439
995.256
995.296
995.7
995.803
996.031
995.924
995.421
994.673
994.355
994.448
994.563
994.117
993.012
992.37
991.653
989.033
985.505
984.255
986.102
993.02
998.676
1003.38
1008.74
1015.12
1020.8
1024.33
1025.6
1025.1
1024.55
1023.61
1022.41
1020.39
1018.37
1.16143
1.16114
1.16198
1.16281
1.16397
1.16503
1.16608
1.16702
1.16783
1.16831
1.16855
1.16872
1.16882
1.16888
1.16891
1.16891
1.16892
1.16892
1.16892
1.16892
1.16892
1.16892
1.16892
1.16893
1.16893
1.16893
1.16893
1.16893
1.16893
1.16894
1.16894
1.16894
1.16894
1.16894
1.16894
1.16895
1.16895
1.16895
1.16895
1.16895
1.16895
1.16896
1.16896
1.16896
1.16896
1.16897
1.16897
1.16907
1.16945
1.17261
1.18141
1.19461
1.20284
1.22035
1.23832
1.28076
1.40867
1.40865
1.17422
251.849
990.844
1005.45
1005.2
1006.73
1007.51
1007.77
1007.87
1007.69
1007.6
1006.89
1004.72
1003.08
1001.77
999.869
997.004
994.122
992.198
990.386
986.902
981.661
978.467
977.828
977.967
976.626
972.811
969.545
966.07
962.166
957.809
951.819
943.631
933.133
918.851
892.058
836.81
646.204
1.16144
1.161
1.1615
1.16198
1.16324
1.16452
1.16586
1.16698
1.16785
1.16832
1.16857
1.16873
1.16883
1.16889
1.16891
1.16892
1.16892
1.16892
1.16892
1.16892
1.16892
1.16892
1.16893
1.16893
1.16893
1.16893
1.16893
1.16893
1.16893
1.16894
1.16894
1.16894
1.16894
1.16894
1.16894
1.16895
1.16895
1.16895
1.16895
1.16895
1.16895
1.16896
1.16896
1.16897
1.16896
1.16897
1.16897
1.16907
1.16941
1.17237
1.1803
1.19286
1.20526
1.22796
1.24084
1.2731
1.41579
1.44034
1.2021
185.06
1005
1021.72
1022.53
1023.76
1024.3
1024.82
1025.08
1025.24
1025.25
1025.04
1024.62
1023.99
1023.3
1022.38
1021.19
1019.61
1016.82
1013.35
1010.11
1006.57
1002.18
996.457
989.682
982.547
974.876
968.41
961.806
955.02
949.539
945.774
942.959
940.804
939.79
941.779
950.733
961.545
1.16127
1.16089
1.16114
1.16139
1.16231
1.16373
1.16553
1.16696
1.16788
1.16835
1.16859
1.16875
1.16884
1.16889
1.16891
1.16892
1.16892
1.16892
1.16892
1.16892
1.16892
1.16893
1.16893
1.16893
1.16893
1.16893
1.16893
1.16893
1.16894
1.16894
1.16894
1.16894
1.16894
1.16894
1.16895
1.16895
1.16895
1.16895
1.16895
1.16895
1.16896
1.16896
1.16896
1.16897
1.16896
1.16897
1.16897
1.16907
1.16937
1.17193
1.17914
1.19109
1.20744
1.23077
1.24261
1.28491
1.42497
1.46675
1.23842
128.956
1015.06
1026.6
1026.67
1026.78
1026.75
1026.75
1026.79
1026.8
1026.79
1026.79
1026.74
1026.69
1026.63
1026.48
1026.26
1026.03
1025.6
1025.08
1024.7
1024
1022.86
1021.48
1019.65
1017.51
1014.48
1010.15
1005.72
1002.31
1000.56
1000.04
1002.66
1005.95
1008.17
1015.31
1022.59
1025.45
1.1611
1.16079
1.16086
1.16106
1.16157
1.16289
1.16507
1.16694
1.16793
1.16838
1.16861
1.16876
1.16885
1.16889
1.16891
1.16892
1.16892
1.16892
1.16892
1.16892
1.16892
1.16893
1.16893
1.16893
1.16893
1.16893
1.16893
1.16894
1.16894
1.16894
1.16894
1.16894
1.16894
1.16894
1.16895
1.16895
1.16895
1.16895
1.16895
1.16895
1.16896
1.16896
1.16896
1.16897
1.16896
1.16897
1.16897
1.16907
1.16934
1.17151
1.17823
1.1893
1.20148
1.22059
1.24738
1.28302
1.38369
1.68724
1.33657
76.0634
1013.31
1027.08
1027.06
1027.07
1027.07
1027.07
1027.07
1027.07
1027.07
1027.07
1027.06
1027.05
1027.05
1027.05
1027.04
1027.01
1026.98
1026.96
1026.95
1026.91
1026.83
1026.75
1026.65
1026.52
1026.31
1026.09
1025.96
1025.93
1026.04
1026.2
1026.36
1026.61
1026.82
1026.98
1027.08
1027.09
1.16054
1.16066
1.16058
1.16081
1.16117
1.16249
1.16468
1.16696
1.168
1.16844
1.16864
1.16879
1.16886
1.1689
1.16891
1.16892
1.16892
1.16892
1.16892
1.16892
1.16892
1.16893
1.16893
1.16893
1.16893
1.16893
1.16893
1.16894
1.16894
1.16894
1.16894
1.16894
1.16894
1.16894
1.16895
1.16895
1.16895
1.16895
1.16895
1.16895
1.16896
1.16896
1.16896
1.16897
1.16896
1.16897
1.16897
1.16906
1.16929
1.17096
1.17696
1.18798
1.20142
1.2225
1.22832
1.27238
1.34927
1.83169
1.93693
47.1784
985.821
1027.1
1027.09
1027.1
1027.09
1027.1
1027.1
1027.1
1027.1
1027.1
1027.1
1027.1
1027.1
1027.1
1027.1
1027.1
1027.1
1027.09
1027.09
1027.09
1027.1
1027.09
1027.09
1027.09
1027.09
1027.09
1027.09
1027.09
1027.1
1027.1
1027.1
1027.1
1027.1
1027.1
1027.1
1027.1
1.16034
1.16035
1.16026
1.16049
1.16059
1.16165
1.16423
1.16711
1.16813
1.16851
1.16869
1.16882
1.16886
1.16889
1.16891
1.16892
1.16892
1.16892
1.16892
1.16892
1.16892
1.16893
1.16893
1.16893
1.16893
1.16893
1.16893
1.16894
1.16894
1.16894
1.16894
1.16894
1.16894
1.16894
1.16895
1.16895
1.16895
1.16895
1.16895
1.16895
1.16895
1.16896
1.16896
1.16896
1.16896
1.16897
1.16897
1.16904
1.1692
1.1705
1.17559
1.1861
1.20072
1.22449
1.23442
1.25837
1.41799
1.90537
2.85579
46.6737
971.206
1027.1
1027.1
1027.1
1027.1
1027.1
1027.1
1027.1
1027.1
1027.1
1027.1
1027.1
1027.1
1027.1
1027.1
1027.1
1027.1
1027.1
1027.1
1027.1
1027.1
1027.1
1027.1
1027.1
1027.1
1027.1
1027.1
1027.1
1027.1
1027.1
1027.1
1027.1
1027.1
1027.1
1027.1
1027.1
1.16022
1.16006
1.15998
1.16009
1.16011
1.16089
1.16342
1.16665
1.16818
1.16857
1.16874
1.16883
1.16885
1.16889
1.16891
1.16891
1.16892
1.16892
1.16892
1.16892
1.16892
1.16892
1.16893
1.16893
1.16893
1.16893
1.16893
1.16893
1.16893
1.16893
1.16894
1.16894
1.16894
1.16894
1.16894
1.16894
1.16894
1.16895
1.16895
1.16895
1.16895
1.16895
1.16895
1.16896
1.16896
1.16896
1.16896
1.16902
1.16918
1.17031
1.17481
1.18474
1.19937
1.22461
1.23672
1.24634
1.46144
1.98875
3.06228
57.4765
985.994
1027.1
1027.1
1027.1
1027.1
1027.1
1027.1
1027.1
1027.1
1027.1
1027.1
1027.1
1027.1
1027.1
1027.1
1027.1
1027.1
1027.1
1027.1
1027.1
1027.1
1027.1
1027.1
1027.1
1027.1
1027.1
1027.1
1027.1
1027.1
1027.1
1027.1
1027.1
1027.1
1027.1
1027.1
1027.1
1.16027
1.16017
1.15988
1.15981
1.15979
1.16003
1.16144
1.16506
1.16814
1.16859
1.16875
1.1688
1.16883
1.16888
1.16891
1.16891
1.16891
1.16892
1.16892
1.16892
1.16892
1.16892
1.16892
1.16893
1.16893
1.16893
1.16893
1.16893
1.16893
1.16893
1.16893
1.16893
1.16894
1.16894
1.16894
1.16894
1.16894
1.16894
1.16894
1.16895
1.16895
1.16895
1.16895
1.16896
1.16896
1.16896
1.16896
1.16904
1.16923
1.17035
1.17488
1.18572
1.20183
1.22249
1.23272
1.2539
1.52187
2.12808
3.94314
62.8506
960
1027.1
1027.1
1027.1
1027.1
1027.1
1027.1
1027.1
1027.1
1027.1
1027.1
1027.1
1027.1
1027.1
1027.1
1027.1
1027.1
1027.1
1027.1
1027.1
1027.1
1027.1
1027.1
1027.1
1027.1
1027.1
1027.1
1027.1
1027.1
1027.1
1027.1
1027.1
1027.1
1027.1
1027.1
1027.1
1.15997
1.16041
1.16022
1.15983
1.15976
1.15975
1.16007
1.16286
1.16771
1.16855
1.1687
1.16878
1.16884
1.1689
1.16891
1.16892
1.16892
1.16892
1.16892
1.16892
1.16892
1.16893
1.16893
1.16893
1.16893
1.16893
1.16893
1.16894
1.16894
1.16894
1.16894
1.16894
1.16894
1.16895
1.16895
1.16895
1.16895
1.16895
1.16895
1.16896
1.16896
1.16896
1.16896
1.16897
1.16896
1.16897
1.16897
1.16903
1.16917
1.17019
1.1749
1.18616
1.20155
1.21907
1.22914
1.29176
1.44431
2.18728
3.43874
63.1573
968.604
1026.86
1027.1
1027.1
1027.1
1027.1
1027.1
1027.1
1027.1
1027.1
1027.1
1027.1
1027.1
1027.1
1027.1
1027.1
1027.1
1027.1
1027.1
1027.1
1027.1
1027.1
1027.1
1027.1
1027.1
1027.1
1027.1
1027.1
1027.1
1027.1
1027.1
1027.1
1027.1
1027.1
1027.1
1027.1
1.16271
1.16383
1.16465
1.16523
1.16566
1.16632
1.1676
1.16857
1.16874
1.16878
1.16884
1.16888
1.1689
1.16891
1.16891
1.16892
1.16892
1.16892
1.16892
1.16892
1.16892
1.16892
1.16893
1.16893
1.16893
1.16893
1.16893
1.16893
1.16894
1.16894
1.16894
1.16894
1.16894
1.16895
1.16895
1.16895
1.16895
1.16895
1.16895
1.16896
1.16896
1.16896
1.16896
1.16896
1.16896
1.16897
1.16897
1.16901
1.16995
1.17596
1.18531
1.19686
1.21193
1.23325
1.25506
1.2842
1.27979
1.67696
4.09159
70.1317
965.108
1026.69
1027.09
1027.1
1027.1
1027.1
1027.1
1027.1
1027.1
1027.1
1027.1
1027.1
1027.1
1027.1
1027.1
1027.1
1027.1
1027.1
1027.1
1027.1
1027.1
1027.1
1027.1
1027.1
1027.1
1027.1
1027.1
1027.1
1027.1
1027.1
1027.1
1027.1
1027.1
1027.1
1027.1
1027.1
1.16179
1.16321
1.16508
1.1656
1.16601
1.16684
1.16799
1.16842
1.16856
1.16864
1.16875
1.16883
1.16888
1.1689
1.16891
1.16891
1.16892
1.16892
1.16892
1.16892
1.16892
1.16893
1.16893
1.16893
1.16893
1.16893
1.16893
1.16894
1.16894
1.16894
1.16894
1.16894
1.16894
1.16895
1.16895
1.16895
1.16895
1.16895
1.16895
1.16896
1.16896
1.16896
1.16896
1.16897
1.16897
1.16897
1.16897
1.16902
1.16954
1.17447
1.18407
1.19579
1.2101
1.23422
1.25801
1.27472
1.31658
1.61213
2.96539
79.3606
982.805
1027.04
1027.09
1027.1
1027.1
1027.1
1027.1
1027.1
1027.1
1027.1
1027.1
1027.1
1027.1
1027.1
1027.1
1027.1
1027.1
1027.1
1027.1
1027.1
1027.1
1027.1
1027.1
1027.1
1027.1
1027.1
1027.1
1027.1
1027.1
1027.1
1027.1
1027.1
1027.1
1027.1
1027.1
1027.1
1.16137
1.16273
1.16501
1.16575
1.16633
1.16715
1.16792
1.16818
1.16836
1.16852
1.16868
1.16879
1.16886
1.1689
1.16891
1.16891
1.16891
1.16891
1.16891
1.16892
1.16892
1.16892
1.16892
1.16892
1.16892
1.16893
1.16893
1.16893
1.16893
1.16893
1.16893
1.16893
1.16894
1.16894
1.16894
1.16894
1.16894
1.16894
1.16894
1.16895
1.16895
1.16895
1.16895
1.16896
1.16896
1.16897
1.16896
1.16903
1.16938
1.17249
1.18079
1.19431
1.21049
1.23822
1.26077
1.26847
1.32439
1.478
1.78086
105.501
1018.53
1027.08
1027.09
1027.09
1027.09
1027.09
1027.09
1027.09
1027.09
1027.09
1027.09
1027.09
1027.09
1027.09
1027.09
1027.09
1027.1
1027.1
1027.1
1027.1
1027.1
1027.1
1027.1
1027.1
1027.1
1027.1
1027.1
1027.1
1027.1
1027.1
1027.1
1027.1
1027.1
1027.1
1027.1
1027.1
1.16111
1.16211
1.16471
1.1657
1.16631
1.16712
1.1677
1.16796
1.16826
1.16848
1.16866
1.16878
1.16886
1.1689
1.16891
1.16891
1.16891
1.16891
1.16891
1.16892
1.16892
1.16892
1.16892
1.16892
1.16892
1.16892
1.16892
1.16893
1.16893
1.16893
1.16893
1.16893
1.16893
1.16894
1.16894
1.16894
1.16894
1.16894
1.16894
1.16895
1.16895
1.16895
1.16895
1.16896
1.16896
1.16897
1.16896
1.16905
1.16942
1.17129
1.17655
1.19082
1.21233
1.24514
1.27549
1.28751
1.30968
1.41238
1.74526
134.94
1022.45
1026.83
1026.82
1026.86
1026.87
1026.89
1026.92
1026.95
1026.98
1027
1027
1027.01
1027.01
1027
1026.98
1026.97
1026.98
1027.01
1027.02
1027.02
1027.03
1027.06
1027.09
1027.09
1027.1
1027.1
1027.1
1027.1
1027.1
1027.1
1027.1
1027.1
1027.1
1027.1
1027.1
1027.1
1.16101
1.16157
1.16424
1.16556
1.16619
1.167
1.16747
1.16783
1.1682
1.16846
1.16864
1.16877
1.16885
1.16889
1.1689
1.16891
1.16891
1.16891
1.16892
1.16892
1.16892
1.16892
1.16892
1.16892
1.16892
1.16892
1.16893
1.16893
1.16893
1.16893
1.16893
1.16893
1.16893
1.16894
1.16894
1.16894
1.16894
1.16894
1.16894
1.16894
1.16895
1.16895
1.16895
1.16896
1.16896
1.16897
1.16898
1.16914
1.16959
1.17107
1.17482
1.18669
1.20846
1.24533
1.28814
1.29834
1.29658
1.45054
1.72579
177.658
1019.87
1025.2
1025.28
1025.81
1025.97
1026.1
1026.22
1026.24
1026.27
1026.33
1026.35
1026.34
1026.36
1026.14
1025.98
1025.98
1026.11
1026.17
1026.19
1026.2
1026.24
1026.47
1026.78
1026.97
1027.05
1027.08
1027.1
1027.1
1027.1
1027.1
1027.1
1027.1
1027.1
1027.1
1027.1
1027.1
1.16125
1.16132
1.16343
1.1655
1.16601
1.16687
1.16726
1.16777
1.16819
1.16845
1.16864
1.16876
1.16884
1.16888
1.1689
1.1689
1.16891
1.16891
1.16891
1.16891
1.16892
1.16892
1.16892
1.16892
1.16892
1.16892
1.16892
1.16893
1.16893
1.16893
1.16893
1.16893
1.16893
1.16894
1.16894
1.16894
1.16894
1.16894
1.16894
1.16895
1.16895
1.16895
1.16895
1.16896
1.16896
1.16897
1.16902
1.1694
1.16999
1.1715
1.17518
1.1842
1.20194
1.23254
1.27573
1.29821
1.29901
1.51667
1.76966
207.744
1012.68
1023.16
1024
1025.26
1025.61
1025.61
1025.66
1025.55
1025.1
1024.74
1024.54
1024.42
1024.37
1024.35
1024.36
1024.38
1024.21
1024.17
1024.57
1024.69
1024.78
1024.73
1025.23
1025.87
1026.28
1026.59
1026.84
1027.05
1027.1
1027.1
1027.1
1027.1
1027.1
1027.1
1027.1
1027.1
1.16126
1.16112
1.16276
1.165
1.16589
1.16682
1.1673
1.16786
1.16823
1.16843
1.16861
1.16874
1.16882
1.16887
1.1689
1.1689
1.1689
1.16891
1.16891
1.16891
1.16892
1.16892
1.16892
1.16892
1.16893
1.16893
1.16893
1.16893
1.16893
1.16893
1.16893
1.16894
1.16894
1.16894
1.16894
1.16894
1.16894
1.16895
1.16895
1.16895
1.16895
1.16895
1.16895
1.16896
1.16896
1.16898
1.16902
1.16927
1.16965
1.17199
1.17654
1.18515
1.19748
1.22224
1.25375
1.28186
1.32855
1.58837
1.76745
201.219
1008.43
1021.82
1022.88
1024.2
1024.5
1024.13
1023.92
1023.93
1023.43
1022.65
1022.35
1022.09
1022.01
1022.12
1022.08
1022.46
1022.95
1023.38
1023.73
1024.16
1024.34
1023.96
1023.75
1024.12
1024.24
1024.03
1024.03
1025.3
1026.51
1026.99
1027.01
1027
1026.98
1026.96
1027
1027.1
1.16124
1.16093
1.16216
1.16387
1.16539
1.1665
1.1672
1.16779
1.1682
1.16827
1.16854
1.16872
1.16879
1.16886
1.16889
1.1689
1.1689