/*--------------------------------*- C++ -*----------------------------------*\
| =========                 |                                                 |
| \\      /  F ield         | OpenFOAM: The Open Source CFD Toolbox           |
|  \\    /   O peration     | Version:  2.3.0                                 |
|   \\  /    A nd           | Web:      www.OpenFOAM.org                      |
|    \\/     M anipulation  |                                                 |
\*---------------------------------------------------------------------------*/
FoamFile
{
    version     2.0;
    format      ascii;
    class       volScalarField;
    location    "35";
    object      rho;
}
// * * * * * * * * * * * * * * * * * * * * * * * * * * * * * * * * * * * * * //

dimensions      [1 -3 0 0 0 0 0];

internalField   nonuniform List<scalar> 
6144
(
1.16311
1.16386
1.16446
1.16506
1.16564
1.16637
1.1671
1.16794
1.1686
1.16884
1.16887
1.16888
1.16889
1.16889
1.16889
1.1689
1.1689
1.1689
1.1689
1.1689
1.1689
1.16891
1.16891
1.16891
1.16891
1.16891
1.16891
1.16891
1.16892
1.16892
1.16892
1.16892
1.16892
1.16892
1.16892
1.16892
1.16892
1.16893
1.16893
1.16893
1.16893
1.16893
1.16893
1.16897
1.16943
1.17168
1.18148
1.2072
1.22945
1.22007
1.22403
1.2497
1.26745
1.27279
1.27296
1.27272
1.26901
1.25789
3.61373
85.0432
1001.89
1026.95
1027.09
1027.1
1027.1
1027.1
1027.1
1027.1
1027.1
1027.1
1027.1
1027.1
1027.1
1027.1
1027.1
1027.1
1027.1
1027.1
1027.1
1027.1
1027.1
1027.1
1027.1
1027.1
1027.1
1027.1
1027.1
1027.1
1027.1
1027.1
1027.1
1027.1
1027.1
1027.1
1027.1
1027.1
1.16278
1.16367
1.16482
1.1655
1.16618
1.16674
1.1673
1.16796
1.1686
1.16883
1.16887
1.16888
1.16889
1.1689
1.1689
1.16891
1.16891
1.16891
1.16891
1.16891
1.16891
1.16891
1.16891
1.16892
1.16892
1.16892
1.16892
1.16892
1.16892
1.16893
1.16893
1.16893
1.16893
1.16893
1.16893
1.16893
1.16893
1.16894
1.16894
1.16894
1.16894
1.16894
1.16894
1.16901
1.16946
1.17289
1.19217
1.21249
1.20876
1.21137
1.23503
1.26453
1.28007
1.28171
1.28063
1.28117
1.27966
1.28153
2.40493
56.2644
1006.64
1027.04
1027.09
1027.1
1027.1
1027.1
1027.1
1027.1
1027.1
1027.1
1027.1
1027.1
1027.1
1027.1
1027.1
1027.1
1027.1
1027.1
1027.1
1027.1
1027.1
1027.1
1027.1
1027.1
1027.1
1027.1
1027.1
1027.1
1027.1
1027.1
1027.1
1027.1
1027.1
1027.1
1027.1
1027.1
1.16265
1.16337
1.16473
1.16551
1.16635
1.16685
1.16738
1.16792
1.16841
1.16869
1.16879
1.16884
1.16887
1.16889
1.1689
1.16891
1.16891
1.16891
1.16891
1.16891
1.16891
1.16891
1.16892
1.16892
1.16892
1.16892
1.16892
1.16892
1.16892
1.16893
1.16893
1.16893
1.16893
1.16893
1.16893
1.16893
1.16893
1.16893
1.16893
1.16893
1.16894
1.16894
1.16896
1.16907
1.16976
1.17774
1.2004
1.20939
1.20455
1.21277
1.24422
1.27824
1.28268
1.28165
1.27966
1.28023
1.27598
1.28192
1.44572
68.8506
1018.72
1027.09
1027.09
1027.1
1027.1
1027.1
1027.1
1027.1
1027.1
1027.1
1027.1
1027.1
1027.1
1027.1
1027.1
1027.1
1027.1
1027.1
1027.1
1027.1
1027.1
1027.1
1027.1
1027.1
1027.1
1027.1
1027.1
1027.1
1027.1
1027.1
1027.1
1027.1
1027.1
1027.1
1027.1
1027.1
1.1626
1.16308
1.1643
1.16507
1.16625
1.16683
1.16733
1.16783
1.16829
1.16858
1.16873
1.16881
1.16886
1.16889
1.1689
1.1689
1.1689
1.1689
1.16891
1.16891
1.16891
1.16891
1.16891
1.16891
1.16891
1.16891
1.16892
1.16892
1.16892
1.16892
1.16892
1.16892
1.16892
1.16893
1.16893
1.16893
1.16893
1.16893
1.16893
1.16893
1.16893
1.16894
1.16897
1.16914
1.17125
1.1848
1.20171
1.20562
1.20409
1.22306
1.26471
1.28453
1.28314
1.28062
1.27898
1.27825
1.27416
1.28654
1.2756
141.812
1022.25
1027.08
1027.09
1027.09
1027.09
1027.09
1027.09
1027.09
1027.1
1027.1
1027.1
1027.1
1027.1
1027.1
1027.1
1027.1
1027.1
1027.1
1027.1
1027.1
1027.1
1027.1
1027.1
1027.1
1027.1
1027.1
1027.1
1027.1
1027.1
1027.1
1027.1
1027.1
1027.1
1027.1
1027.1
1027.1
1.16253
1.16286
1.16383
1.16449
1.16587
1.16671
1.16727
1.16776
1.16819
1.1685
1.16868
1.1688
1.16886
1.16889
1.1689
1.1689
1.16891
1.16891
1.16891
1.16891
1.16891
1.16891
1.16892
1.16892
1.16892
1.16892
1.16892
1.16892
1.16892
1.16892
1.16892
1.16893
1.16893
1.16893
1.16893
1.16893
1.16893
1.16893
1.16893
1.16893
1.16893
1.16895
1.16899
1.1693
1.17255
1.18364
1.1949
1.19994
1.20818
1.24187
1.28003
1.28461
1.28356
1.28244
1.28078
1.27925
1.27754
1.28761
1.2756
196.628
1014.02
1026.46
1026.62
1026.8
1026.86
1026.89
1026.9
1026.91
1026.92
1026.92
1026.93
1026.96
1026.98
1027.02
1027.05
1027.08
1027.09
1027.09
1027.09
1027.09
1027.08
1027.08
1027.08
1027.09
1027.09
1027.1
1027.1
1027.1
1027.1
1027.1
1027.1
1027.1
1027.1
1027.1
1027.1
1027.1
1.16243
1.16272
1.16339
1.16389
1.16534
1.16635
1.16713
1.16768
1.16809
1.16842
1.16864
1.16879
1.16886
1.16889
1.16889
1.1689
1.1689
1.1689
1.1689
1.1689
1.16891
1.16891
1.16891
1.16891
1.16891
1.16891
1.16892
1.16892
1.16892
1.16892
1.16892
1.16892
1.16892
1.16892
1.16892
1.16893
1.16893
1.16893
1.16893
1.16893
1.16893
1.16894
1.16903
1.16931
1.17014
1.17368
1.18405
1.19753
1.21691
1.25339
1.28263
1.28582
1.28665
1.28578
1.28448
1.283
1.28093
1.28476
1.2756
309.015
1016.54
1021.61
1022.04
1022.8
1023.29
1023.71
1023.97
1024.11
1024.19
1024.2
1024.15
1024.16
1024.35
1024.61
1024.98
1025.43
1025.89
1026.18
1026.26
1026.09
1025.99
1025.93
1025.93
1026.14
1026.33
1026.45
1026.52
1026.52
1026.59
1026.72
1026.87
1026.98
1027.06
1027.09
1027.1
1027.1
1.1623
1.16263
1.16309
1.16341
1.16481
1.16585
1.16684
1.16758
1.16804
1.16837
1.1686
1.16878
1.16886
1.16889
1.1689
1.1689
1.1689
1.16891
1.16891
1.16891
1.16891
1.16891
1.16891
1.16891
1.16891
1.16892
1.16892
1.16892
1.16892
1.16892
1.16892
1.16892
1.16892
1.16892
1.16893
1.16893
1.16893
1.16893
1.16893
1.16893
1.16893
1.16894
1.16903
1.16954
1.17073
1.17207
1.17614
1.19086
1.21658
1.25312
1.28257
1.28736
1.28857
1.28851
1.28721
1.28548
1.28227
1.28664
1.2756
405.214
1008.2
1013.27
1013.38
1013.73
1014.21
1014.66
1015.18
1015.7
1016.23
1016.74
1017.38
1018.07
1018.62
1018.91
1019.01
1019.03
1019.09
1019.22
1019.76
1020.34
1021.02
1021.73
1022.14
1022.13
1021.87
1021.69
1021.47
1021.37
1021.95
1022.73
1023.7
1024.49
1025.14
1025.52
1025.99
1026.39
1.16211
1.1626
1.16299
1.16317
1.16441
1.16541
1.1665
1.16742
1.16796
1.16832
1.16857
1.16877
1.16886
1.16889
1.1689
1.1689
1.1689
1.16891
1.16891
1.16891
1.16891
1.16891
1.16891
1.16892
1.16892
1.16892
1.16892
1.16892
1.16892
1.16893
1.16893
1.16893
1.16893
1.16893
1.16893
1.16893
1.16893
1.16893
1.16894
1.16894
1.16894
1.16895
1.169
1.16935
1.17111
1.174
1.17716
1.18562
1.21011
1.24976
1.28135
1.29019
1.292
1.292
1.29038
1.28883
1.28442
1.28741
1.2756
408.145
1004.79
1009.97
1009.85
1009.86
1009.65
1009.42
1009.34
1010.97
1012.84
1014.99
1017.03
1018.38
1018.92
1019.03
1018.78
1018.26
1017.79
1017.43
1017.65
1019.21
1020.68
1021.95
1022.43
1022.37
1022.34
1022.57
1022.96
1023.63
1024.48
1025.42
1026.49
1027.1
1027.1
1027.1
1027.1
1025.54
1.16183
1.16258
1.16297
1.16314
1.16414
1.16512
1.16626
1.16715
1.16788
1.1683
1.16854
1.16875
1.16885
1.16888
1.16889
1.1689
1.1689
1.1689
1.1689
1.1689
1.16891
1.16891
1.16891
1.16891
1.16891
1.16891
1.16892
1.16892
1.16892
1.16892
1.16892
1.16892
1.16892
1.16893
1.16893
1.16893
1.16893
1.16893
1.16893
1.16894
1.16894
1.16895
1.16899
1.16917
1.17078
1.17602
1.18259
1.18991
1.20713
1.25607
1.28431
1.29158
1.29195
1.28844
1.28687
1.28874
1.28548
1.28965
1.2756
197.02
1001.16
1021
1021.34
1021.62
1021.56
1021.61
1021.6
1022.21
1022.81
1023.69
1024.54
1025.21
1025.58
1025.7
1025.69
1025.53
1025.28
1025.12
1025.09
1025.47
1025.78
1026.01
1026.17
1026.35
1026.54
1026.73
1026.88
1026.97
1027.01
1027.02
1027.04
1027.08
1027.1
1027.1
1027.1
1027.1
1.16153
1.16228
1.16274
1.16308
1.16403
1.16501
1.16629
1.16696
1.16776
1.1683
1.16854
1.16873
1.16883
1.16888
1.16889
1.1689
1.1689
1.16891
1.16891
1.16891
1.16891
1.16891
1.16891
1.16891
1.16892
1.16892
1.16892
1.16892
1.16892
1.16892
1.16892
1.16893
1.16893
1.16893
1.16893
1.16893
1.16893
1.16893
1.16893
1.16894
1.16894
1.16895
1.16898
1.16909
1.17006
1.17493
1.18412
1.19451
1.20078
1.22389
1.27802
1.291
1.29534
1.29167
1.2892
1.29799
1.28943
1.29849
1.2756
103.456
1010.3
1026.01
1026.06
1026.14
1026.1
1026.15
1026.21
1026.33
1026.43
1026.56
1026.71
1026.86
1026.96
1027.01
1027.02
1027.02
1026.99
1026.98
1026.98
1027
1027.02
1027.04
1027.06
1027.08
1027.09
1027.09
1027.1
1027.1
1027.1
1027.1
1027.1
1027.1
1027.1
1027.1
1027.1
1027.1
1.16122
1.1619
1.16241
1.1629
1.16406
1.16515
1.16643
1.16708
1.16777
1.16833
1.16857
1.16872
1.16881
1.16886
1.16888
1.16889
1.1689
1.1689
1.1689
1.16891
1.16891
1.16891
1.16891
1.16891
1.16892
1.16892
1.16892
1.16892
1.16892
1.16892
1.16892
1.16893
1.16893
1.16893
1.16893
1.16893
1.16893
1.16893
1.16893
1.16894
1.16894
1.16894
1.16896
1.16906
1.16972
1.1737
1.18256
1.19543
1.20543
1.21865
1.26521
1.28734
1.29706
1.29765
1.2984
1.30279
1.2968
1.30171
1.2756
58.6739
1009.64
1027.03
1027.04
1027.05
1027.05
1027.05
1027.05
1027.06
1027.06
1027.07
1027.07
1027.08
1027.09
1027.09
1027.1
1027.1
1027.1
1027.1
1027.1
1027.1
1027.1
1027.1
1027.1
1027.1
1027.1
1027.1
1027.1
1027.1
1027.1
1027.1
1027.1
1027.1
1027.1
1027.1
1027.1
1027.1
1.16102
1.16148
1.16183
1.16227
1.16364
1.16509
1.16657
1.16747
1.16788
1.16838
1.16859
1.1687
1.16877
1.16883
1.16887
1.16889
1.1689
1.1689
1.1689
1.16891
1.16891
1.16891
1.16891
1.16891
1.16892
1.16892
1.16892
1.16892
1.16892
1.16892
1.16893
1.16893
1.16893
1.16893
1.16893
1.16893
1.16893
1.16894
1.16894
1.16894
1.16894
1.16894
1.16896
1.16907
1.16976
1.17327
1.18156
1.19628
1.21043
1.21776
1.2534
1.28276
1.29376
1.30105
1.30131
1.30403
1.29795
1.29834
1.2756
26.4395
990.734
1027.09
1027.09
1027.09
1027.09
1027.1
1027.1
1027.1
1027.1
1027.1
1027.1
1027.1
1027.1
1027.1
1027.1
1027.1
1027.1
1027.1
1027.1
1027.1
1027.1
1027.1
1027.1
1027.1
1027.1
1027.1
1027.1
1027.1
1027.1
1027.1
1027.1
1027.1
1027.1
1027.1
1027.1
1027.1
1.1608
1.16117
1.16134
1.16161
1.16273
1.16425
1.16621
1.16754
1.16803
1.16843
1.16861
1.16873
1.16879
1.16885
1.1689
1.16891
1.16891
1.16891
1.16891
1.16891
1.16891
1.16891
1.16892
1.16892
1.16892
1.16892
1.16892
1.16892
1.16892
1.16893
1.16893
1.16893
1.16893
1.16893
1.16893
1.16893
1.16894
1.16894
1.16894
1.16894
1.16894
1.16895
1.16897
1.1691
1.16989
1.17307
1.18101
1.19547
1.21247
1.22096
1.24264
1.2756
1.28792
1.29862
1.30186
1.30161
1.29229
1.2937
1.34122
26.3353
986.983
1027.09
1027.09
1027.09
1027.1
1027.1
1027.1
1027.1
1027.1
1027.1
1027.1
1027.1
1027.1
1027.1
1027.1
1027.1
1027.1
1027.1
1027.1
1027.1
1027.1
1027.1
1027.1
1027.1
1027.1
1027.1
1027.1
1027.1
1027.1
1027.1
1027.1
1027.1
1027.1
1027.1
1027.1
1027.1
1.16073
1.16102
1.16104
1.16126
1.16189
1.16324
1.16537
1.16736
1.16821
1.16849
1.16864
1.16873
1.16878
1.16885
1.1689
1.16891
1.16892
1.16892
1.16891
1.16892
1.16892
1.16892
1.16892
1.16892
1.16892
1.16892
1.16893
1.16893
1.16893
1.16893
1.16893
1.16893
1.16893
1.16893
1.16893
1.16894
1.16894
1.16894
1.16894
1.16894
1.16895
1.16895
1.16897
1.1691
1.16987
1.17287
1.18057
1.19522
1.21398
1.22859
1.2391
1.26604
1.28002
1.29247
1.29519
1.29361
1.28462
1.28955
1.52079
35.1261
989.821
1027.09
1027.09
1027.09
1027.1
1027.1
1027.1
1027.1
1027.1
1027.1
1027.1
1027.1
1027.1
1027.1
1027.1
1027.1
1027.1
1027.1
1027.1
1027.1
1027.1
1027.1
1027.1
1027.1
1027.1
1027.1
1027.1
1027.1
1027.1
1027.1
1027.1
1027.1
1027.1
1027.1
1027.1
1027.1
1.16077
1.16133
1.16144
1.1615
1.16152
1.16267
1.16446
1.16694
1.16826
1.16851
1.16863
1.16869
1.16874
1.16881
1.16889
1.16891
1.16891
1.16891
1.16891
1.16891
1.16892
1.16892
1.16892
1.16892
1.16892
1.16892
1.16892
1.16893
1.16893
1.16893
1.16893
1.16893
1.16893
1.16893
1.16893
1.16893
1.16894
1.16894
1.16894
1.16894
1.16895
1.16895
1.16897
1.16909
1.16985
1.17257
1.17945
1.19367
1.21616
1.23521
1.24183
1.25914
1.27135
1.28395
1.28476
1.28326
1.27812
1.28858
1.7383
36.8028
983.228
1027.02
1027.09
1027.1
1027.1
1027.1
1027.1
1027.1
1027.1
1027.1
1027.1
1027.1
1027.1
1027.1
1027.1
1027.1
1027.1
1027.1
1027.1
1027.1
1027.1
1027.1
1027.1
1027.1
1027.1
1027.1
1027.1
1027.1
1027.1
1027.1
1027.1
1027.1
1027.1
1027.1
1027.1
1027.1
1.16041
1.16053
1.16153
1.16218
1.16245
1.16283
1.16432
1.16667
1.16825
1.16852
1.16861
1.16867
1.16873
1.16881
1.1689
1.16892
1.16892
1.16892
1.16892
1.16892
1.16892
1.16892
1.16893
1.16893
1.16893
1.16893
1.16893
1.16893
1.16893
1.16893
1.16894
1.16894
1.16894
1.16894
1.16894
1.16894
1.16894
1.16895
1.16895
1.16895
1.16895
1.16896
1.16897
1.16911
1.16983
1.17233
1.17857
1.19132
1.21197
1.23622
1.25127
1.26149
1.26684
1.27517
1.27538
1.27674
1.2754
1.2858
2.17734
32.2027
941.466
1025.95
1027.09
1027.1
1027.1
1027.1
1027.1
1027.1
1027.1
1027.1
1027.1
1027.1
1027.1
1027.1
1027.1
1027.1
1027.1
1027.1
1027.1
1027.1
1027.1
1027.1
1027.1
1027.1
1027.1
1027.1
1027.1
1027.1
1027.1
1027.1
1027.1
1027.1
1027.1
1027.1
1027.1
1027.1
1.16231
1.16351
1.16446
1.16509
1.16562
1.16638
1.16734
1.16815
1.16861
1.16874
1.1688
1.16884
1.16888
1.16891
1.16892
1.16892
1.16892
1.16892
1.16892
1.16892
1.16892
1.16893
1.16893
1.16893
1.16893
1.16893
1.16893
1.16893
1.16894
1.16894
1.16894
1.16894
1.16894
1.16894
1.16895
1.16895
1.16895
1.16895
1.16895
1.16895
1.16895
1.16896
1.16896
1.169
1.16935
1.17112
1.17882
1.20264
1.22983
1.22067
1.22029
1.23534
1.24825
1.25336
1.26018
1.2573
1.25846
1.26708
2.48881
63.5522
1001.6
1027
1027.1
1027.1
1027.1
1027.1
1027.1
1027.1
1027.1
1027.1
1027.1
1027.1
1027.1
1027.1
1027.1
1027.1
1027.1
1027.1
1027.1
1027.1
1027.1
1027.1
1027.1
1027.1
1027.1
1027.1
1027.1
1027.1
1027.1
1027.1
1027.1
1027.1
1027.1
1027.1
1027.1
1027.1
1.16163
1.16289
1.16508
1.16572
1.16631
1.16703
1.16764
1.16802
1.16829
1.16848
1.16863
1.16876
1.16884
1.16889
1.16891
1.16892
1.16892
1.16892
1.16892
1.16892
1.16892
1.16893
1.16893
1.16893
1.16893
1.16893
1.16893
1.16893
1.16893
1.16894
1.16894
1.16894
1.16894
1.16894
1.16894
1.16894
1.16894
1.16894
1.16895
1.16895
1.16895
1.16897
1.16899
1.16907
1.16939
1.17135
1.18306
1.21062
1.21911
1.2144
1.21989
1.24129
1.26518
1.27079
1.272
1.26875
1.26354
1.27588
1.84159
62.4681
1010.31
1027.09
1027.09
1027.1
1027.1
1027.1
1027.1
1027.1
1027.1
1027.1
1027.1
1027.1
1027.1
1027.1
1027.1
1027.1
1027.1
1027.1
1027.1
1027.1
1027.1
1027.1
1027.1
1027.1
1027.1
1027.1
1027.1
1027.1
1027.1
1027.1
1027.1
1027.1
1027.1
1027.1
1027.1
1027.1
1.16142
1.16217
1.16467
1.16564
1.1663
1.16678
1.1673
1.16771
1.16806
1.16833
1.16855
1.16873
1.16883
1.16888
1.1689
1.16891
1.16891
1.16892
1.16892
1.16892
1.16892
1.16892
1.16892
1.16892
1.16893
1.16893
1.16893
1.16893
1.16893
1.16893
1.16893
1.16893
1.16894
1.16894
1.16894
1.16894
1.16894
1.16894
1.16894
1.16895
1.16895
1.16897
1.16901
1.16924
1.1701
1.17495
1.19
1.21165
1.22278
1.22131
1.22295
1.24268
1.27519
1.28023
1.27944
1.2764
1.26898
1.27748
1.74442
63.4174
1004.09
1027.09
1027.09
1027.1
1027.1
1027.1
1027.1
1027.1
1027.1
1027.1
1027.1
1027.1
1027.1
1027.1
1027.1
1027.1
1027.1
1027.1
1027.1
1027.1
1027.1
1027.1
1027.1
1027.1
1027.1
1027.1
1027.1
1027.1
1027.1
1027.1
1027.1
1027.1
1027.1
1027.1
1027.1
1027.1
1.16132
1.16156
1.16377
1.16493
1.16569
1.16625
1.16691
1.16747
1.16795
1.16829
1.16852
1.16872
1.16882
1.16888
1.1689
1.16891
1.16891
1.16891
1.16891
1.16892
1.16892
1.16892
1.16892
1.16892
1.16892
1.16892
1.16892
1.16893
1.16893
1.16893
1.16893
1.16893
1.16893
1.16893
1.16893
1.16894
1.16894
1.16894
1.16894
1.16894
1.16895
1.16897
1.16905
1.16957
1.17144
1.17942
1.19747
1.2148
1.2247
1.22504
1.22309
1.27018
1.28154
1.2804
1.27925
1.27928
1.27413
1.28074
1.4732
92.4721
1001.12
1027.09
1027.09
1027.1
1027.1
1027.1
1027.1
1027.1
1027.1
1027.1
1027.1
1027.1
1027.1
1027.1
1027.1
1027.1
1027.1
1027.1
1027.1
1027.1
1027.1
1027.1
1027.1
1027.1
1027.1
1027.1
1027.1
1027.1
1027.1
1027.1
1027.1
1027.1
1027.1
1027.1
1027.1
1027.1
1.16122
1.16117
1.16287
1.16425
1.16521
1.16581
1.16658
1.16729
1.16788
1.16827
1.16851
1.16871
1.16882
1.16887
1.1689
1.16891
1.16891
1.16891
1.16891
1.16891
1.16892
1.16892
1.16892
1.16892
1.16892
1.16892
1.16892
1.16892
1.16893
1.16893
1.16893
1.16893
1.16893
1.16893
1.16893
1.16893
1.16894
1.16894
1.16894
1.16894
1.16895
1.16897
1.16909
1.16978
1.17202
1.17902
1.19384
1.21155
1.21903
1.21612
1.24391
1.28328
1.28173
1.27832
1.27765
1.27808
1.27559
1.28019
1.29352
179.188
1022.18
1026.96
1027.01
1027.06
1027.07
1027.08
1027.08
1027.08
1027.08
1027.09
1027.08
1027.08
1027.08
1027.08
1027.07
1027.07
1027.06
1027.04
1027.02
1026.99
1026.96
1026.94
1026.92
1026.91
1026.93
1026.97
1026.99
1027.01
1027.03
1027.04
1027.06
1027.08
1027.09
1027.1
1027.1
1027.1
1.16113
1.1609
1.16214
1.1635
1.16479
1.16549
1.16636
1.16718
1.16784
1.16826
1.16851
1.16872
1.16882
1.16887
1.1689
1.16891
1.16891
1.16891
1.16891
1.16891
1.16891
1.16892
1.16892
1.16892
1.16892
1.16892
1.16892
1.16892
1.16892
1.16893
1.16893
1.16893
1.16893
1.16893
1.16893
1.16893
1.16894
1.16894
1.16894
1.16894
1.16895
1.16897
1.1691
1.16983
1.17165
1.17453
1.17971
1.18939
1.20097
1.20315
1.27247
1.28564
1.28039
1.27806
1.27765
1.2777
1.27822
1.28129
1.2756
261.438
1012.64
1022.97
1023.68
1024.81
1025.47
1025.9
1026.06
1026.16
1026.25
1026.28
1026.26
1026.21
1026.16
1026.1
1025.98
1025.8
1025.52
1025.1
1024.49
1023.62
1022.54
1021.38
1019.91
1018.48
1017.54
1017.1
1016.95
1017.56
1018.68
1020.38
1021.97
1023.61
1025
1026.2
1026.89
1027.1
1.16107
1.16069
1.16157
1.16275
1.16439
1.16524
1.16624
1.16713
1.16782
1.16826
1.16852
1.16872
1.16882
1.16887
1.16889
1.16891
1.16891
1.16891
1.16891
1.16891
1.16891
1.16892
1.16892
1.16892
1.16892
1.16892
1.16892
1.16892
1.16892
1.16893
1.16893
1.16893
1.16893
1.16893
1.16893
1.16893
1.16894
1.16894
1.16894
1.16894
1.16895
1.16897
1.16908
1.16971
1.1714
1.17415
1.17881
1.18527
1.19025
1.20198
1.27601
1.28884
1.2837
1.28187
1.28328
1.28502
1.28507
1.28656
1.2756
482.512
997.297
1001.67
1001.43
1001.87
1002.7
1003.46
1004.03
1003.75
1003.36
1002.87
1002.14
1001.39
1001.04
1001.15
1001.11
999.996
998.299
995.708
992.02
987.332
982.896
979.177
976.084
973.687
971.832
970.409
969.722
969.574
969.833
970.623
971.71
974.423
978.435
984.804
992.875
1000.52
1.16099
1.16055
1.16117
1.16202
1.16367
1.16497
1.16615
1.1671
1.16782
1.16827
1.16853
1.16873
1.16883
1.16887
1.16889
1.16891
1.16891
1.16891
1.16891
1.16891
1.16891
1.16892
1.16892
1.16892
1.16892
1.16892
1.16892
1.16892
1.16893
1.16893
1.16893
1.16893
1.16893
1.16893
1.16893
1.16893
1.16894
1.16894
1.16894
1.16894
1.16895
1.16897
1.16907
1.16959
1.17115
1.17412
1.17849
1.18552
1.19403
1.20644
1.27585
1.30541
1.30716
1.30636
1.30501
1.30114
1.29128
1.28499
1.2756
461.633
981.92
987.871
984.663
981.899
979.26
977.763
976.88
976.362
976.031
975.214
974.144
973.421
973.081
969.95
966.754
964.016
961.552
959.497
957.928
956.669
955.282
954.174
953.689
953.737
951.885
949.947
947.282
943.591
938.118
930.867
921.59
909.678
895.227
871.624
817.916
612.659
1.16087
1.16045
1.16085
1.16137
1.16284
1.16453
1.16604
1.16709
1.16784
1.16828
1.16854
1.16874
1.16883
1.16888
1.1689
1.16891
1.16891
1.16891
1.16891
1.16891
1.16892
1.16892
1.16892
1.16892
1.16892
1.16892
1.16892
1.16893
1.16893
1.16893
1.16893
1.16893
1.16893
1.16893
1.16893
1.16894
1.16894
1.16894
1.16894
1.16894
1.16895
1.16897
1.16904
1.16944
1.17071
1.17327
1.17748
1.18477
1.19638
1.20859
1.26165
1.31065
1.3121
1.30573
1.29848
1.29304
1.28936
1.29247
1.2756
165.529
996.226
1018.09
1017.93
1018.06
1017.14
1016.89
1016.81
1017.81
1018.38
1020.07
1021.35
1022.08
1021.7
1021.24
1021.03
1020.62
1020.44
1020.54
1021.38
1021.95
1023.03
1024.07
1024.65
1024.97
1025.17
1024.86
1024.84
1025.26
1025.28
1025.02
1024.86
1025.78
1025.94
1025.05
1024.55
1024.3
1.16071
1.16034
1.16059
1.16095
1.162
1.16388
1.16586
1.16708
1.16785
1.1683
1.16856
1.16875
1.16884
1.16888
1.1689
1.16891
1.16891
1.16891
1.16892
1.16892
1.16892
1.16892
1.16892
1.16892
1.16892
1.16892
1.16893
1.16893
1.16893
1.16893
1.16893
1.16893
1.16893
1.16893
1.16894
1.16894
1.16894
1.16894
1.16894
1.16895
1.16895
1.16897
1.16903
1.16936
1.17046
1.17278
1.17694
1.18481
1.19813
1.20997
1.24599
1.30857
1.31312
1.30353
1.29183
1.29872
1.29005
1.30294
1.2756
88.7613
1011.08
1026.26
1026.25
1026.44
1026.46
1026.53
1026.61
1026.67
1026.7
1026.75
1026.82
1026.88
1026.94
1026.98
1027
1027
1026.99
1027.01
1027.04
1027.05
1027.07
1027.08
1027.08
1027.09
1027.09
1027.09
1027.09
1027.09
1027.1
1027.1
1027.1
1027.1
1027.1
1027.1
1027.1
1027.1
1.16057
1.16026
1.16036
1.16063
1.16147
1.16327
1.16559
1.16701
1.16786
1.16831
1.16857
1.16877
1.16885
1.16888
1.1689
1.16891
1.16891
1.16891
1.16892
1.16892
1.16892
1.16892
1.16892
1.16892
1.16892
1.16893
1.16893
1.16893
1.16893
1.16893
1.16893
1.16893
1.16893
1.16894
1.16894
1.16894
1.16894
1.16894
1.16894
1.16895
1.16895
1.16897
1.16902
1.16929
1.17023
1.17233
1.17671
1.18543
1.20045
1.21424
1.23998
1.29139
1.31196
1.30807
1.29613
1.30086
1.29829
1.30502
1.27566
57.1541
1014.84
1027.05
1027.04
1027.05
1027.06
1027.06
1027.06
1027.06
1027.06
1027.07
1027.07
1027.08
1027.09
1027.09
1027.1
1027.1
1027.1
1027.1
1027.1
1027.1
1027.1
1027.1
1027.1
1027.1
1027.1
1027.1
1027.1
1027.1
1027.1
1027.1
1027.1
1027.1
1027.1
1027.1
1027.1
1027.1
1.16048
1.16019
1.16018
1.16036
1.16122
1.16294
1.16526
1.16693
1.1679
1.16833
1.1686
1.16878
1.16885
1.16888
1.1689
1.16891
1.16891
1.16891
1.16892
1.16892
1.16892
1.16892
1.16892
1.16892
1.16892
1.16893
1.16893
1.16893
1.16893
1.16893
1.16893
1.16893
1.16893
1.16894
1.16894
1.16894
1.16894
1.16894
1.16894
1.16895
1.16895
1.16897
1.16902
1.16925
1.17005
1.17198
1.17662
1.18626
1.20259
1.22185
1.23701
1.26761
1.30512
1.30808
1.30312
1.3053
1.30037
1.30564
1.35528
26.4139
991.055
1027.09
1027.09
1027.09
1027.09
1027.1
1027.1
1027.1
1027.1
1027.1
1027.1
1027.1
1027.1
1027.1
1027.1
1027.1
1027.1
1027.1
1027.1
1027.1
1027.1
1027.1
1027.1
1027.1
1027.1
1027.1
1027.1
1027.1
1027.1
1027.1
1027.1
1027.1
1027.1
1027.1
1027.1
1027.1
1.16042
1.16021
1.16014
1.16016
1.16058
1.16203
1.16451
1.16687
1.16799
1.16837
1.16863
1.1688
1.16885
1.16886
1.1689
1.16891
1.16891
1.16891
1.16892
1.16892
1.16892
1.16892
1.16892
1.16892
1.16892
1.16893
1.16893
1.16893
1.16893
1.16893
1.16893
1.16893
1.16893
1.16893
1.16894
1.16894
1.16894
1.16894
1.16894
1.16894
1.16895
1.16897
1.16901
1.16922
1.16998
1.17191
1.17677
1.18711
1.20508
1.22872
1.23783
1.25834
1.29001
1.30598
1.30586
1.30587
1.29367
1.31055
1.47019
14.2048
946.532
1027.09
1027.09
1027.09
1027.1
1027.1
1027.1
1027.1
1027.1
1027.1
1027.1
1027.1
1027.1
1027.1
1027.1
1027.1
1027.1
1027.1
1027.1
1027.1
1027.1
1027.1
1027.1
1027.1
1027.1
1027.1
1027.1
1027.1
1027.1
1027.1
1027.1
1027.1
1027.1
1027.1
1027.1
1027.1
1.16053
1.1606
1.16022
1.16015
1.16008
1.16063
1.16259
1.16595
1.16811
1.16847
1.16867
1.1688
1.16881
1.16884
1.16889
1.16891
1.16891
1.16891
1.16891
1.16891
1.16892
1.16892
1.16892
1.16892
1.16892
1.16892
1.16892
1.16892
1.16892
1.16893
1.16893
1.16893
1.16893
1.16893
1.16893
1.16893
1.16893
1.16893
1.16894
1.16894
1.16894
1.16896
1.169
1.1692
1.16999
1.17217
1.17727
1.18839
1.20761
1.2311
1.24669
1.25812
1.27428
1.29382
1.30146
1.29736
1.27878
1.32226
1.69952
21.0828
956.471
1027.09
1027.09
1027.09
1027.1
1027.1
1027.1
1027.1
1027.1
1027.1
1027.1
1027.1
1027.1
1027.1
1027.1
1027.1
1027.1
1027.1
1027.1
1027.1
1027.1
1027.1
1027.1
1027.1
1027.1
1027.1
1027.1
1027.1
1027.1
1027.1
1027.1
1027.1
1027.1
1027.1
1027.1
1027.1
1.16069
1.16097
1.16093
1.16063
1.16024
1.16022
1.16109
1.16451
1.16803
1.16856
1.16869
1.16874
1.16876
1.1688
1.16888
1.16891
1.16891
1.16891
1.16891
1.16891
1.16891
1.16892
1.16892
1.16892
1.16892
1.16892
1.16892
1.16892
1.16892
1.16892
1.16892
1.16892
1.16892
1.16893
1.16893
1.16893
1.16893
1.16893
1.16893
1.16893
1.16894
1.16895
1.16898
1.16915
1.16993
1.17226
1.17776
1.18983
1.21029
1.23292
1.25149
1.26029
1.26588
1.27967
1.2804
1.27788
1.27199
1.31385
1.849
33.0208
962.32
1027.02
1027.09
1027.1
1027.1
1027.1
1027.1
1027.1
1027.1
1027.1
1027.1
1027.1
1027.1
1027.1
1027.1
1027.1
1027.1
1027.1
1027.1
1027.1
1027.1
1027.1
1027.1
1027.1
1027.1
1027.1
1027.1
1027.1
1027.1
1027.1
1027.1
1027.1
1027.1
1027.1
1027.1
1027.1
1.16036
1.16073
1.16139
1.16107
1.16036
1.16033
1.16087
1.1636
1.16779
1.16859
1.16867
1.16869
1.16873
1.1688
1.16889
1.16891
1.16892
1.16892
1.16892
1.16892
1.16892
1.16892
1.16892
1.16892
1.16892
1.16893
1.16893
1.16893
1.16893
1.16893
1.16893
1.16893
1.16893
1.16894
1.16894
1.16894
1.16894
1.16894
1.16894
1.16895
1.16895
1.16896
1.16897
1.16912
1.16985
1.17219
1.17795
1.18976
1.2097
1.23431
1.25279
1.26247
1.26656
1.2717
1.2715
1.27366
1.27309
1.28413
2.02466
33.7567
929.354
1025.73
1027.09
1027.1
1027.1
1027.1
1027.1
1027.1
1027.1
1027.1
1027.1
1027.1
1027.1
1027.1
1027.1
1027.1
1027.1
1027.1
1027.1
1027.1
1027.1
1027.1
1027.1
1027.1
1027.1
1027.1
1027.1
1027.1
1027.1
1027.1
1027.1
1027.1
1027.1
1027.1
1027.1
1027.1
1.16207
1.16308
1.16423
1.16498
1.16554
1.1663
1.16736
1.16828
1.16863
1.16875
1.16881
1.16885
1.16889
1.1689
1.16891
1.16891
1.16891
1.16891
1.16892
1.16892
1.16892
1.16892
1.16892
1.16892
1.16892
1.16892
1.16893
1.16893
1.16893
1.16893
1.16893
1.16893
1.16894
1.16894
1.16894
1.16894
1.16894
1.16894
1.16894
1.16894
1.16894
1.16895
1.16895
1.16899
1.1693
1.17071
1.17595
1.19321
1.22696
1.22705
1.22264
1.22957
1.24048
1.24687
1.24602
1.25134
1.24972
1.29716
2.58073
63.4838
985.789
1026.84
1027.09
1027.1
1027.1
1027.1
1027.1
1027.1
1027.1
1027.1
1027.1
1027.1
1027.1
1027.1
1027.1
1027.1
1027.1
1027.1
1027.1
1027.1
1027.1
1027.1
1027.1
1027.1
1027.1
1027.1
1027.1
1027.1
1027.1
1027.1
1027.1
1027.1
1027.1
1027.1
1027.1
1027.1
1.16115
1.16203
1.16495
1.16551
1.16593
1.16669
1.1677
1.16826
1.16849
1.16861
1.16871
1.1688
1.16886
1.16889
1.1689
1.16891
1.16891
1.16891
1.16892
1.16892
1.16892
1.16892
1.16892
1.16892
1.16893
1.16893
1.16893
1.16893
1.16893
1.16893
1.16893
1.16893
1.16893
1.16894
1.16894
1.16894
1.16894
1.16894
1.16894
1.16894
1.16894
1.16895
1.16897
1.16904
1.16933
1.17054
1.17581
1.1933
1.22235
1.23031
1.23029
1.23702
1.23888
1.24575
1.25102
1.26228
1.25902
1.29537
1.93784
46.7262
992.811
1027.04
1027.09
1027.1
1027.1
1027.1
1027.1
1027.1
1027.1
1027.1
1027.1
1027.1
1027.1
1027.1
1027.1
1027.1
1027.1
1027.1
1027.1
1027.1
1027.1
1027.1
1027.1
1027.1
1027.1
1027.1
1027.1
1027.1
1027.1
1027.1
1027.1
1027.1
1027.1
1027.1
1027.1
1027.1
1.16091
1.16119
1.16468
1.16569
1.16623
1.16693
1.16769
1.1681
1.16831
1.16848
1.16864
1.16877
1.16884
1.16888
1.1689
1.1689
1.1689
1.16891
1.16891
1.16891
1.16891
1.16891
1.16891
1.16892
1.16892
1.16892
1.16892
1.16892
1.16892
1.16892
1.16892
1.16892
1.16892
1.16893
1.16893
1.16893
1.16893
1.16893
1.16893
1.16893
1.16894
1.16895
1.16898
1.16909
1.16949
1.17077
1.17664
1.19299
1.2171
1.23534
1.24393
1.23905
1.24685
1.25581
1.25792
1.26218
1.26588
1.31046
1.68571
62.6213
999.75
1027.09
1027.09
1027.1
1027.1
1027.1
1027.1
1027.1
1027.1
1027.1
1027.1
1027.1
1027.1
1027.1
1027.1
1027.1
1027.1
1027.1
1027.1
1027.1
1027.1
1027.1
1027.1
1027.1
1027.1
1027.1
1027.1
1027.1
1027.1
1027.1
1027.1
1027.1
1027.1
1027.1
1027.1
1027.1
1.16084
1.16087
1.1628
1.16554
1.16622
1.16692
1.16757
1.1679
1.16819
1.16843
1.16862
1.16876
1.16884
1.16888
1.1689
1.1689
1.1689
1.16891
1.16891
1.16891
1.16891
1.16891
1.16891
1.16891
1.16891
1.16891
1.16892
1.16892
1.16892
1.16892
1.16892
1.16892
1.16892
1.16892
1.16893
1.16893
1.16893
1.16893
1.16893
1.16894
1.16894
1.16895
1.16899
1.1692
1.17009
1.17253
1.18105
1.19508
1.2173
1.23761
1.24304
1.24115
1.2622
1.27356
1.27864
1.27833
1.27424
1.32196
1.74734
66.1152
986.498
1027.09
1027.09
1027.1
1027.1
1027.1
1027.1
1027.1
1027.1
1027.1
1027.1
1027.1
1027.1
1027.1
1027.1
1027.1
1027.1
1027.1
1027.1
1027.1
1027.1
1027.1
1027.1
1027.1
1027.1
1027.1
1027.1
1027.1
1027.1
1027.1
1027.1
1027.1
1027.1
1027.1
1027.1
1027.1
1.16083
1.16084
1.16097
1.16481
1.16618
1.16686
1.1674
1.16777
1.16813
1.1684
1.16861
1.16876
1.16884
1.16888
1.16889
1.1689
1.1689
1.1689
1.16891
1.16891
1.16891
1.16891
1.16891
1.16891
1.16891
1.16892
1.16892
1.16892
1.16892
1.16892
1.16892
1.16892
1.16892
1.16892
1.16892
1.16892
1.16893
1.16893
1.16893
1.16894
1.16896
1.16898
1.16902
1.16938
1.17075
1.17446
1.18365
1.20057
1.22187
1.23454
1.23196
1.25876
1.27822
1.28079
1.28243
1.28507
1.2822
1.33858
1.58744
139.327
1019.72
1027.08
1027.09
1027.09
1027.09
1027.09
1027.09
1027.09
1027.09
1027.09
1027.09
1027.09
1027.1
1027.1
1027.1
1027.1
1027.1
1027.09
1027.09
1027.09
1027.09
1027.09
1027.09
1027.08
1027.08
1027.08
1027.09
1027.1
1027.1
1027.1
1027.1
1027.1
1027.1
1027.1
1027.1
1027.1
1.16083
1.16079
1.16124
1.16373
1.16607
1.16677
1.16721
1.16764
1.16807
1.16839
1.16861
1.16876
1.16884
1.16888
1.16889
1.1689
1.1689
1.1689
1.1689
1.16891
1.16891
1.16891
1.16891
1.16891
1.16891
1.16892
1.16892
1.16892
1.16892
1.16892
1.16892
1.16892
1.16892
1.16892
1.16892
1.16893
1.16893
1.16893
1.16893
1.16894
1.16897
1.16901
1.16908
1.16948
1.1709
1.17491
1.18389
1.20246
1.22081
1.21636
1.23723
1.28005
1.28466
1.28194
1.28319
1.2969
1.31722
1.35576
1.41198
211.603
1008.79
1026.31
1026.55
1026.8
1026.87
1026.9
1026.9
1026.88
1026.88
1026.91
1026.91
1026.91
1026.91
1026.89
1026.87
1026.84
1026.8
1026.74
1026.64
1026.51
1026.33
1026.16
1026.04
1026.01
1026.01
1026.28
1026.61
1026.91
1027.07
1027.04
1027.02
1027.02
1027.04
1027.08
1027.1
1027.1
1.16075
1.16056
1.16117
1.16312
1.16563
1.16678
1.16729
1.16766
1.16808
1.16838
1.16858
1.16873
1.16882
1.16887
1.16889
1.16889
1.1689
1.1689
1.1689
1.1689
1.16891
1.16891
1.16891
1.16892
1.16892
1.16892
1.16892
1.16892
1.16892
1.16892
1.16893
1.16893
1.16893
1.16893
1.16893
1.16893
1.16893
1.16893
1.16893
1.16894
1.16895
1.16902
1.16915
1.16946
1.17077
1.17669
1.1892
1.20072
1.20466
1.20196
1.27098
1.29321
1.29091
1.3002
1.31475
1.32775
1.33636
1.34013
1.31486
350.78
1012.2
1020.27
1021.53
1022.69
1023.28
1023.65
1023.51
1022.59
1021.87
1021.22
1020.7
1020.21
1019.84
1019.54
1019.26
1018.73
1018.05
1017.48
1017.01
1016.76
1017.17
1018.77
1020.64
1022.87
1024.84
1026.12
1026.68
1026.72
1026.21
1025.81
1025.43
1025.26
1025.27
1026
1026.69
1027.01
1.16065
1.16041
1.16085
1.1622
1.1648
1.16646
1.16722
1.16757
1.16795
1.16811
1.16845
1.16868
1.16879
1.16887
1.16889
1.16889
1.16889
1.1689
1.1689
1.1689
1.1689
1.1689
1.16891
1.16891
1.16891
1.16891
1.16891
1.16891
1.16891
1.16892
1.16892
1.16892
1.16892
1.16892