/*--------------------------------*- C++ -*----------------------------------*\
| =========                 |                                                 |
| \\      /  F ield         | OpenFOAM: The Open Source CFD Toolbox           |
|  \\    /   O peration     | Version:  2.3.0                                 |
|   \\  /    A nd           | Web:      www.OpenFOAM.org                      |
|    \\/     M anipulation  |                                                 |
\*---------------------------------------------------------------------------*/
FoamFile
{
    version     2.0;
    format      ascii;
    class       volVectorField;
    location    "35";
    object      U;
}
// * * * * * * * * * * * * * * * * * * * * * * * * * * * * * * * * * * * * * //

dimensions      [0 1 -1 0 0 0 0];

internalField   nonuniform List<vector> 
6144
(
(0.0107599 0.0192064 0.00104317)
(0.0110802 -0.00616142 -0.000270914)
(0.00402968 -0.00732886 -0.00250026)
(0.00393487 -0.00698349 -0.0024764)
(0.00237555 -0.0059062 -0.0023951)
(0.00271447 -0.00257398 -0.00224567)
(0.00237669 -0.00135429 -0.00158364)
(0.00223767 7.60313e-05 -0.000898891)
(0.0016444 0.000736843 -0.000365392)
(0.00119334 0.00280874 0.000395726)
(0.00104421 0.00415847 0.000968302)
(0.00115735 0.00475965 0.00149147)
(0.00138427 0.00452507 0.00178153)
(0.00157054 0.0037229 0.00200051)
(0.0017029 0.00268211 0.00178932)
(0.00183219 0.0017237 0.00156604)
(0.00191578 0.000843265 0.00119786)
(0.00200129 0.00021524 0.000876561)
(0.00207636 -0.000233485 0.000548844)
(0.00213515 -0.000444496 0.000285417)
(0.00217008 -0.000545881 0.000124858)
(0.00218778 -0.000537185 3.82204e-05)
(0.00218659 -0.000484005 1.09558e-05)
(0.002168 -0.00040064 2.82337e-05)
(0.00213586 -0.000308273 8.32622e-05)
(0.0020953 -0.000223577 0.000168651)
(0.00204855 -0.000160303 0.000280002)
(0.00199531 -0.000125021 0.000428054)
(0.00194501 -0.000118377 0.000580317)
(0.00190073 -0.000151653 0.000714183)
(0.00185969 -0.000223138 0.000830238)
(0.00182069 -0.000320999 0.00091874)
(0.00178452 -0.000411729 0.000985717)
(0.00175221 -0.000503964 0.0010403)
(0.00172238 -0.000569226 0.00109342)
(0.0016944 -0.000659006 0.00114897)
(0.00166893 -0.000715336 0.00122635)
(0.00164742 -0.000882103 0.00131426)
(0.00162862 -0.000987489 0.00141063)
(0.00162991 -0.00134538 0.00149615)
(0.00161335 -0.00144359 0.0015477)
(0.00166879 -0.00210234 0.00164009)
(0.00164129 -0.00205528 0.001631)
(0.00177131 -0.0032835 0.00170353)
(0.00169922 -0.00279652 0.0015115)
(0.00195339 -0.00477818 0.00117702)
(0.00191877 -0.00271143 0.000325871)
(0.00277405 -0.0051251 -0.000498555)
(0.00279667 -0.000437002 -0.00119468)
(0.0022869 -0.0055985 -0.00165248)
(-0.000134626 0.00471353 -0.000598813)
(4.06014e-05 -0.00477806 -0.00159946)
(0.00140229 0.0158093 -0.00344903)
(0.0053137 -0.00307748 -0.00713089)
(0.0198931 0.0486943 -0.00807481)
(0.011905 -0.049444 -0.0127417)
(0.0519213 0.077932 -0.000944117)
(0.0178061 -0.148992 0.016512)
(-0.0914916 0.143164 -0.0922403)
(0.0509533 0.00795341 -0.0981793)
(0.10449 -0.206494 -0.0284189)
(0.0578579 -0.0277208 -0.0130986)
(0.0072506 -0.0956872 -0.00676854)
(0.00744255 -0.0650479 -0.000864991)
(-0.0155872 -0.0374777 0.00382298)
(-0.0165151 -0.0100728 0.00727578)
(-0.00976717 0.00593021 0.00793174)
(-0.00573766 0.0199732 -0.00328842)
(-0.00212218 0.0367121 -0.0112401)
(0.00210501 0.0464559 -0.0122421)
(0.00664783 0.0539744 -0.0134302)
(0.0107797 0.0588824 -0.0136561)
(0.0134912 0.0606758 -0.0129049)
(0.0163701 0.0578104 -0.0108977)
(0.0185637 0.0517825 -0.00840698)
(0.0193906 0.041206 -0.00556502)
(0.0192963 0.0294066 -0.00324207)
(0.0186571 0.0158461 -0.00214772)
(0.0176042 -9.30877e-05 -0.000595659)
(0.0161206 -0.0184261 0.00154893)
(0.0151986 -0.0387083 0.0038888)
(0.0155505 -0.0610808 0.00649384)
(0.0136652 -0.0888957 0.0101798)
(0.0102493 -0.118245 0.0124873)
(0.0121205 -0.147059 0.0135424)
(0.00887891 -0.180315 0.0143042)
(0.00315299 -0.204416 0.0119804)
(0.00305198 -0.222439 0.0102263)
(-0.00490469 -0.230273 0.0070705)
(-0.00892587 -0.226902 0.00614346)
(-0.0161692 -0.215671 0.00619548)
(-0.0207951 -0.188602 0.00554642)
(-0.0335532 -0.149628 0.00772693)
(-0.0360562 -0.112946 0.00289019)
(-0.0258276 -0.0381661 -0.000487216)
(-0.016868 -0.00589247 0.000891808)
(0.0213682 0.0189768 0.00368256)
(0.0231489 0.00446744 0.00294734)
(0.0112089 0.000597244 -0.000917523)
(0.0109533 -4.24933e-05 -0.000947459)
(0.00565472 -0.00305542 -0.000379629)
(0.00524424 -0.00125904 0.00102861)
(0.00331588 -0.00189144 0.00248916)
(0.00262631 -0.000140268 0.00262846)
(0.00138385 0.00139657 0.00242788)
(0.000956907 0.00436394 0.00269888)
(0.00123087 0.0057313 0.00328421)
(0.00188549 0.00630453 0.00393697)
(0.00250261 0.00583288 0.00429081)
(0.0029892 0.00501119 0.00446201)
(0.00321715 0.00383034 0.00439008)
(0.00343011 0.00276157 0.00429946)
(0.00350045 0.00173728 0.00415799)
(0.0035921 0.00097528 0.00404543)
(0.00364987 0.000372691 0.00393649)
(0.00372501 3.03782e-05 0.00378666)
(0.00376839 -0.000183168 0.00368314)
(0.00377013 -0.000263723 0.00363851)
(0.00373718 -0.000278697 0.00364702)
(0.00367359 -0.000244144 0.00370108)
(0.00358789 -0.000187705 0.00378948)
(0.00348746 -0.00012874 0.00390255)
(0.00337609 -8.2845e-05 0.00403417)
(0.00325816 -5.34466e-05 0.00417565)
(0.00314995 -4.8627e-05 0.00429498)
(0.00306953 -8.40579e-05 0.00437847)
(0.0029994 -0.000150021 0.00445187)
(0.00292646 -0.00023472 0.00451657)
(0.00285593 -0.000310298 0.0045764)
(0.00278826 -0.000401903 0.00463183)
(0.00273005 -0.000467111 0.00468378)
(0.00267644 -0.000579409 0.00473549)
(0.00264885 -0.000641694 0.0047919)
(0.00262946 -0.000839156 0.00485113)
(0.00264143 -0.000911354 0.00491031)
(0.00266298 -0.00129641 0.00498442)
(0.00268274 -0.00128974 0.00501581)
(0.00279356 -0.00202178 0.0051418)
(0.00280828 -0.00183067 0.00511219)
(0.00307869 -0.00327609 0.00523242)
(0.00296243 -0.00255534 0.00501695)
(0.00333683 -0.00483165 0.00475936)
(0.0029453 -0.00189403 0.00359642)
(0.00403346 -0.00418722 0.00237214)
(0.00387094 0.003376 0.00190919)
(0.00387873 -0.00175036 0.00197453)
(0.00242073 0.00767281 0.00298957)
(0.000611053 -0.0153612 0.00272352)
(0.000870545 0.00507677 -0.00266158)
(0.00280069 -0.020218 -0.00338515)
(0.0423975 0.0149907 0.00690464)
(0.0306996 -0.0405726 0.00303713)
(0.0123189 0.0189918 -0.0230427)
(-0.0403696 0.0208467 -0.0510775)
(-0.0256338 0.256059 -0.098234)
(0.13332 -0.0671285 -0.0343491)
(0.121358 -0.132853 -0.0270172)
(-0.00171371 0.127045 -0.00710261)
(-0.0178917 -0.0352321 -0.0100968)
(-0.0277055 0.0701147 0.0157437)
(-0.0331066 0.0193133 0.00891394)
(-0.0263456 0.0516251 -0.000146733)
(-0.0184059 0.0656871 -0.00526085)
(-0.0108547 0.0851329 -0.00952002)
(-0.00192213 0.0942479 -0.0108193)
(0.00667171 0.102498 -0.00988644)
(0.0151485 0.106892 -0.00934698)
(0.0219025 0.10977 -0.00814927)
(0.0277563 0.109383 -0.00669696)
(0.0314341 0.105153 -0.00488869)
(0.0351213 0.0982546 -0.00289712)
(0.0363942 0.0869996 -0.00155949)
(0.036744 0.0743399 -0.000374317)
(0.036164 0.0594993 0.000578081)
(0.0348154 0.0420934 0.00198682)
(0.0328486 0.0225115 0.00307577)
(0.0314448 0.000200367 0.00459378)
(0.0308995 -0.024064 0.00675995)
(0.0293948 -0.0523917 0.00823669)
(0.0277678 -0.0848292 0.00801788)
(0.0275665 -0.11486 0.00729658)
(0.0220174 -0.146101 0.004768)
(0.0134948 -0.174714 -0.0011172)
(0.00761927 -0.186437 -0.00537756)
(-0.00254159 -0.196253 -0.00922482)
(-0.0159832 -0.196443 -0.00912533)
(-0.0364744 -0.190587 -0.00601845)
(-0.0514428 -0.169103 -0.00267486)
(-0.0583297 -0.13828 0.00249412)
(-0.0725262 -0.109534 -0.00142508)
(-0.0661224 -0.0494962 -0.00148038)
(-0.0423283 -0.00859403 0.00533693)
(0.0246966 0.0193706 0.00448461)
(0.0269511 0.0114087 0.00492492)
(0.0156895 0.00636025 0.00286132)
(0.0142779 0.0066667 0.00319375)
(0.00733915 0.00118612 0.00380871)
(0.00482075 0.0017581 0.00368163)
(0.00140094 -0.000553227 0.00438925)
(0.00012708 0.000453194 0.00401513)
(-0.00161239 0.00135989 0.00372467)
(-0.00147789 0.00422425 0.0038613)
(-0.000544724 0.00532513 0.00422611)
(0.000568731 0.0059274 0.00480277)
(0.00137228 0.00563275 0.00508328)
(0.0020015 0.00521824 0.00521079)
(0.00237836 0.00435237 0.00512092)
(0.00267267 0.00353094 0.00501449)
(0.0027591 0.00267221 0.0049041)
(0.00286924 0.00200039 0.00483568)
(0.00288506 0.00137699 0.004793)
(0.00285897 0.000916952 0.00478816)
(0.0028047 0.00056982 0.0048078)
(0.00272849 0.000343701 0.00484344)
(0.0026367 0.000198693 0.00489)
(0.00253115 0.000123274 0.00494989)
(0.00241712 8.92706e-05 0.00501673)
(0.00229738 7.83972e-05 0.00508572)
(0.00217542 7.42497e-05 0.00515749)
(0.00205424 6.53959e-05 0.00523031)
(0.00193503 4.35427e-05 0.00530281)
(0.00182383 8.92254e-06 0.00537585)
(0.00171701 -2.14984e-05 0.00544243)
(0.00160516 -5.26965e-05 0.00550527)
(0.00150278 -8.06704e-05 0.00556983)
(0.00140651 -0.000140588 0.00563197)
(0.00132859 -0.000192041 0.00569309)
(0.00125807 -0.000302779 0.00574892)
(0.00122345 -0.000361129 0.00580457)
(0.00119706 -0.000529925 0.00584961)
(0.00121763 -0.000538403 0.00589993)
(0.00124816 -0.000849032 0.00594819)
(0.00131894 -0.00074542 0.0059686)
(0.00151303 -0.00143891 0.00606239)
(0.00168372 -0.00110651 0.00600356)
(0.00218984 -0.00253932 0.00611872)
(0.00221569 -0.00148231 0.00578321)
(0.00270535 -0.00395883 0.00561987)
(0.00187768 -0.000547645 0.00454474)
(0.00209107 -0.00410749 0.00330704)
(0.00199529 0.0043703 0.00306486)
(0.00263344 -0.00177785 0.00355891)
(0.00523936 0.00881569 0.00594875)
(0.00354766 -0.0143041 0.0053591)
(0.00296678 0.00457433 0.00085287)
(0.0126988 -0.0248584 0.0043986)
(0.0452502 -0.00299593 0.0138175)
(0.0545027 -0.0458188 0.0189967)
(0.0115836 -0.00584215 0.0373929)
(-0.0640156 -0.0909821 0.00242762)
(0.0154831 0.167812 -0.194048)
(0.0873742 -0.0809447 -0.026101)
(0.105115 -0.0824084 -0.0292919)
(0.0286957 0.146239 -0.0105984)
(0.0195038 0.0607419 -0.0121039)
(-0.0274539 0.112541 -0.00310969)
(-0.0317536 0.103103 -0.00784941)
(-0.0308319 0.117602 -0.0109576)
(-0.0156525 0.122609 -0.0117642)
(-0.00791507 0.131299 -0.0111311)
(0.00500213 0.136167 -0.00920415)
(0.0141458 0.140261 -0.00710406)
(0.0246238 0.142569 -0.00526319)
(0.0316522 0.143646 -0.0033374)
(0.0381712 0.143216 -0.00140044)
(0.0425735 0.14001 0.000157777)
(0.0471759 0.134252 0.00162842)
(0.0502307 0.125237 0.00226633)
(0.0522952 0.11427 0.00254344)
(0.0537477 0.1016 0.00294518)
(0.0545321 0.0864747 0.0031646)
(0.0545618 0.0690382 0.00328695)
(0.0550838 0.0484838 0.00445683)
(0.0562013 0.0251074 0.00537223)
(0.0571296 -0.00176996 0.00577113)
(0.0577541 -0.0306396 0.00679065)
(0.0564808 -0.0626228 0.00545617)
(0.0519254 -0.0905285 -0.000678725)
(0.0430891 -0.110993 -0.00780797)
(0.0347145 -0.119131 -0.0135872)
(0.0232013 -0.115245 -0.014848)
(0.00276589 -0.116321 -0.00853772)
(-0.0328418 -0.134883 -0.00463491)
(-0.0633782 -0.128805 -0.00503806)
(-0.082864 -0.110508 0.00218762)
(-0.100026 -0.095578 -0.000787025)
(-0.102529 -0.0554274 -0.00566361)
(-0.0860073 -0.0127833 0.002607)
(0.0257234 0.0197778 0.00444884)
(0.0289092 0.015052 0.00529789)
(0.017069 0.00963201 0.00256531)
(0.0163962 0.0109754 0.00301962)
(0.0083408 0.00480518 0.0040814)
(0.00569277 0.00496776 0.0040767)
(0.00107255 0.000369983 0.00491697)
(-0.00110194 0.000609288 0.0043713)
(-0.00375405 9.65858e-05 0.0042028)
(-0.00356222 0.00280382 0.00423129)
(-0.00224068 0.00366828 0.00455495)
(-0.000928044 0.00466073 0.0052351)
(-4.344e-05 0.00495012 0.00551491)
(0.000676917 0.00504127 0.00563437)
(0.00109989 0.00450715 0.00550185)
(0.00139815 0.0038805 0.00537607)
(0.00144039 0.00312278 0.0052768)
(0.00152551 0.00253843 0.00522641)
(0.00153025 0.0019505 0.00518587)
(0.00148695 0.00146111 0.0051604)
(0.00140412 0.00104398 0.00515632)
(0.00128798 0.000729251 0.00516942)
(0.00114962 0.00048528 0.00519554)
(0.000999588 0.000317602 0.00523622)
(0.000851004 0.000208911 0.00528941)
(0.000710401 0.000144206 0.00534942)
(0.000577042 0.000107731 0.00541294)
(0.000454395 8.9242e-05 0.00547528)
(0.000344912 7.92028e-05 0.00553242)
(0.000245055 6.93623e-05 0.00558125)
(0.000146272 6.6578e-05 0.00562401)
(5.02715e-05 5.93954e-05 0.00566941)
(-2.30773e-05 5.49093e-05 0.0057227)
(-8.94387e-05 2.18677e-05 0.00577528)
(-0.000131443 4.09482e-06 0.00582612)
(-0.000172008 -6.91091e-05 0.00586213)
(-0.000169687 -7.80399e-05 0.00589151)
(-0.000164348 -0.000206931 0.00588864)
(-8.14306e-05 -0.00015991 0.00590658)
(9.03875e-06 -0.00045311 0.00589397)
(0.000176453 -0.000280586 0.005911)
(0.000436101 -0.000943145 0.00592295)
(0.000767756 -0.00033854 0.00588884)
(0.00124738 -0.00156154 0.0058176)
(0.0017081 0.000208505 0.00558461)
(0.0020891 -0.00194163 0.00509764)
(0.0022725 0.00159212 0.00426747)
(0.00184378 -0.00302553 0.00327573)
(0.00244666 0.00183851 0.00281814)
(0.00192982 -0.00579391 0.00259959)
(0.00466772 0.00425315 0.00585186)
(0.00286162 -0.0124034 0.00580834)
(0.00251371 0.00545377 0.0048278)
(0.0177021 -0.0285945 0.0143775)
(0.0479701 0.00934035 0.0341125)
(0.0343785 -0.0101967 0.0325921)
(-0.0180152 0.0456583 0.0599794)
(-0.0688646 -0.0952132 0.0559247)
(0.0412826 0.0697878 -0.185578)
(0.0550908 -0.0565616 -0.0220187)
(0.0816565 -0.0560601 -0.0306622)
(0.0086696 0.154368 -0.019748)
(0.00416674 0.115198 -0.0202351)
(-0.0168269 0.152548 -0.0123787)
(-0.0195293 0.151178 -0.0119574)
(-0.0148423 0.155765 -0.00983917)
(-0.00598771 0.156681 -0.00927254)
(0.00116936 0.161037 -0.00680213)
(0.011436 0.162499 -0.00486916)
(0.0199189 0.164261 -0.00303704)
(0.0281564 0.164764 -0.00172928)
(0.0345348 0.165848 -0.000191883)
(0.0401889 0.166215 0.00103869)
(0.0458204 0.164623 0.0017225)
(0.0524758 0.160472 0.00293902)
(0.0581063 0.153614 0.00372716)
(0.0619768 0.145586 0.00454539)
(0.0654899 0.13601 0.00538118)
(0.0695568 0.12575 0.00551937)
(0.0722198 0.11165 0.00673329)
(0.0750603 0.094358 0.00893976)
(0.0771535 0.07382 0.0105893)
(0.0776254 0.0490325 0.0117043)
(0.0777299 0.0222063 0.0127013)
(0.0750289 -0.00698341 0.0117342)
(0.0673976 -0.0329982 0.00679694)
(0.0565987 -0.0500713 -0.00106609)
(0.0461274 -0.0529523 -0.00472538)
(0.0342218 -0.0473794 -0.000950356)
(0.0124266 -0.0461889 0.00606076)
(-0.026933 -0.0635617 0.00506206)
(-0.0682985 -0.0711842 0.000231114)
(-0.101786 -0.0677165 0.00128256)
(-0.125184 -0.0589029 -0.0034404)
(-0.124694 -0.0335637 -0.00626842)
(-0.109945 -0.00478763 0.00292397)
(0.0257637 0.0202582 0.00421638)
(0.0300515 0.0178289 0.00468306)
(0.0183601 0.0114603 0.000508901)
(0.0191068 0.0141856 0.00073584)
(0.0102868 0.00693305 0.00215238)
(0.00764725 0.00702597 0.00261038)
(0.00151466 0.000682278 0.00388672)
(-0.00158037 0.00107486 0.00371966)
(-0.00540997 -0.001175 0.00411214)
(-0.00580226 0.00135753 0.0042632)
(-0.0044544 0.00219187 0.00445501)
(-0.00344811 0.00349875 0.00515915)
(-0.00252058 0.00424947 0.00546866)
(-0.00161599 0.00470492 0.00562936)
(-0.000973601 0.00445135 0.00548175)
(-0.000652986 0.00391209 0.00535103)
(-0.000748695 0.00320946 0.0052605)
(-0.000806531 0.0026876 0.00523409)
(-0.000910464 0.0021621 0.00519526)
(-0.00102316 0.00170846 0.0051484)
(-0.00116186 0.00127817 0.00510655)
(-0.0012999 0.000918606 0.00508086)
(-0.00143964 0.000620622 0.00507136)
(-0.00158758 0.000394745 0.00507735)
(-0.00173521 0.000231829 0.00509392)
(-0.00186763 0.000124712 0.00512017)
(-0.00198562 6.1482e-05 0.00515256)
(-0.00208329 3.26981e-05 0.00518542)
(-0.00215873 2.28801e-05 0.00520852)
(-0.00222245 2.44499e-05 0.00521216)
(-0.00228554 4.04166e-05 0.00520867)
(-0.00235005 5.28612e-05 0.00520847)
(-0.00239836 6.8377e-05 0.00521361)
(-0.00244172 6.17141e-05 0.00522018)
(-0.00245915 8.00199e-05 0.00522606)
(-0.00247443 5.69533e-05 0.0052185)
(-0.00243138 0.000103267 0.0052042)
(-0.00239749 1.48871e-05 0.00515499)
(-0.0022568 0.000131011 0.00513141)
(-0.0021621 -0.000127983 0.00504854)
(-0.00189544 0.000169486 0.00504694)
(-0.00171993 -0.000346346 0.00493067)
(-0.00126239 0.000548787 0.00486705)
(-0.000959098 -0.000183478 0.00462667)
(-0.00022429 0.00184438 0.0043717)
(0.000280527 0.000334918 0.00403439)
(0.00171894 0.00330468 0.00389194)
(0.0026958 -0.00184862 0.00360919)
(0.00320604 -0.000172542 0.00328084)
(0.00148294 -0.00809562 0.00236808)
(0.0015966 0.00105779 0.00359956)
(0.00134071 -0.0100132 0.00287367)
(0.000549816 0.00149005 0.00810699)
(0.00122206 -0.0272873 0.0227842)
(0.00216809 0.0345964 0.0382237)
(0.00101419 0.0327325 0.0394289)
(0.000774432 0.0758775 0.0591411)
(-0.023358 -0.0865293 0.0760419)
(0.0243002 -0.0105745 -0.184382)
(0.030221 -0.0459748 -0.013467)
(0.0476305 -0.0142461 -0.0255821)
(0.0064766 0.165914 -0.0192752)
(0.00356304 0.148228 -0.016923)
(-0.00873684 0.181616 -0.00933846)
(-0.00824017 0.183567 -0.00530163)
(-0.00295133 0.183056 -0.00435329)
(0.00197987 0.181693 -0.00240338)
(0.0078154 0.180158 -0.000890215)
(0.0158612 0.177972 0.000453194)
(0.0238483 0.176339 -5.37554e-05)
(0.0300543 0.174759 -0.000354096)
(0.0350882 0.173298 0.00023983)
(0.0403139 0.173134 0.00101024)
(0.0463358 0.170823 0.00123261)
(0.0541227 0.167763 0.00187834)
(0.0618362 0.164427 0.0019432)
(0.0672999 0.162445 0.00244843)
(0.0728163 0.156552 0.00337766)
(0.0802989 0.153945 0.00379136)
(0.0858404 0.146087 0.00623133)
(0.0908066 0.133857 0.00891985)
(0.0943049 0.118634 0.0118232)
(0.0953033 0.0976257 0.0132289)
(0.0953125 0.0732009 0.0146023)
(0.0909438 0.0460326 0.014595)
(0.0796803 0.015922 0.0122455)
(0.0653805 -0.00677447 0.00764287)
(0.0515642 -0.0167045 0.00392888)
(0.0381898 -0.0143675 0.00604142)
(0.0164145 -0.0118965 0.00968114)
(-0.020767 -0.0197034 0.00681136)
(-0.0643416 -0.0281783 0.00310529)
(-0.101673 -0.0352567 0.00361118)
(-0.126475 -0.0385832 -0.00486597)
(-0.136196 -0.0195194 -0.0114289)
(-0.128157 0.00211514 0.00359392)
(0.0242502 0.0205977 0.00595396)
(0.0304663 0.0212193 0.00425406)
(0.0195224 0.0145805 -0.000557607)
(0.0222102 0.0178729 -0.000938214)
(0.0135143 0.00932387 -0.00146118)
(0.0109843 0.00950565 -0.000212226)
(0.00316384 0.00135058 0.00102685)
(-0.00110345 0.00197408 0.0016755)
(-0.00583808 -0.00180554 0.00284804)
(-0.00773858 -3.40091e-05 0.00333074)
(-0.00612588 0.000343659 0.003511)
(-0.00478755 0.00193777 0.00441888)
(-0.00353692 0.00326161 0.00493723)
(-0.00232537 0.00403202 0.00543638)
(-0.00142556 0.00393935 0.00552121)
(-0.00101661 0.00347584 0.00554319)
(-0.00126777 0.00281267 0.00544368)
(-0.00147663 0.00239068 0.00541683)
(-0.00169316 0.00202356 0.00535127)
(-0.001885 0.00172888 0.0052564)
(-0.00208465 0.00142314 0.00514412)
(-0.00227409 0.00114631 0.00503534)
(-0.00246474 0.00089014 0.00493483)
(-0.00264002 0.000674404 0.0048485)
(-0.00279077 0.000508684 0.004774)
(-0.00290878 0.000399351 0.00470906)
(-0.00300423 0.000337056 0.00465236)
(-0.0030681 0.000312654 0.00459747)
(-0.00310814 0.000312324 0.00453548)
(-0.00314683 0.000314765 0.00446618)
(-0.0031825 0.000321646 0.00440594)
(-0.00321264 0.000326302 0.00436028)
(-0.0032195 0.000344332 0.00432718)
(-0.00322408 0.000354986 0.00429984)
(-0.00320705 0.000403687 0.00427369)
(-0.00318554 0.000428094 0.00423736)
(-0.00309847 0.000517498 0.00419646)
(-0.00301911 0.000484067 0.00413222)
(-0.00280381 0.000625413 0.00408777)
(-0.00266963 0.000422889 0.00400452)
(-0.00232529 0.00076551 0.00397449)
(-0.0021858 0.000407744 0.00385073)
(-0.00173479 0.0013878 0.00375166)
(-0.00146926 0.000908345 0.00355243)
(-0.00076053 0.00277446 0.00337094)
(0.000117558 0.00119984 0.00340789)
(0.00190788 0.00360972 0.00422717)
(0.0039967 -0.00204405 0.00489434)
(0.00404378 -0.000213104 0.00566634)
(0.00200478 -0.00802398 0.00444156)
(-0.00159003 0.00130793 0.00331841)
(0.00306405 -0.00815714 0.0012956)
(0.00131634 0.00406567 0.00540245)
(-0.0135727 -0.0267244 0.0135643)
(-0.0345829 0.00753462 0.0335958)
(-0.0248567 -0.0245713 0.0342032)
(0.0169207 0.0251328 0.060936)
(0.0485761 -0.0755917 0.0798824)
(0.00656677 -0.029311 -0.189302)
(-0.00183515 -0.0503333 -0.0107573)
(-0.00177033 -0.003004 -0.024228)
(-0.00975767 0.176282 -0.017774)
(-0.0111418 0.167793 -0.0120407)
(-0.00909937 0.19933 -0.00313045)
(-0.00144758 0.20071 0.00182257)
(0.0033987 0.196792 0.00223732)
(0.00845093 0.189953 0.00455668)
(0.0139717 0.181674 0.00563866)
(0.019857 0.174414 0.00603696)
(0.0268026 0.170457 0.00481133)
(0.0324962 0.16872 0.00436124)
(0.0360838 0.165199 0.0027255)
(0.0406528 0.163473 0.00203884)
(0.0466681 0.159468 0.00220008)
(0.0551835 0.157201 0.00167885)
(0.0632263 0.156716 0.00121676)
(0.0677659 0.160145 0.00226953)
(0.073709 0.157721 0.00403229)
(0.0821131 0.160093 0.00502689)
(0.089136 0.158994 0.00831753)
(0.0961123 0.157519 0.0123417)
(0.102757 0.152476 0.0168274)
(0.108505 0.143088 0.0186867)
(0.109256 0.125001 0.0201365)
(0.104749 0.104489 0.0206786)
(0.0911892 0.0735583 0.0185747)
(0.0710649 0.0463098 0.0155885)
(0.048972 0.0251284 0.0131613)
(0.02813 0.0165547 0.0140668)
(0.00490744 0.0157476 0.0163621)
(-0.0280573 0.0119214 0.016143)
(-0.0669456 0.00500225 0.0138985)
(-0.104386 -0.00446417 0.00586763)
(-0.132097 -0.00761132 -0.00971828)
(-0.137049 0.0074569 -0.010785)
(-0.126918 0.00500664 0.00613717)
(0.0214622 0.0203035 0.00510906)
(0.0306226 0.0254883 0.00487393)
(0.0201908 0.0173793 0.000472854)
(0.0243992 0.0207941 0.000127334)
(0.0170302 0.0108233 -0.00337685)
(0.0149303 0.0110647 -0.00158337)
(0.00581558 0.00144749 -0.00168145)
(0.000455833 0.00299375 -0.000588146)
(-0.00490085 -0.00097944 0.00106742)
(-0.00817424 -2.02776e-05 0.00173037)
(-0.00766427 -0.00085962 0.00198745)
(-0.00764926 0.000822943 0.00321886)
(-0.00651224 0.00200125 0.00415512)
(-0.00470934 0.00290377 0.00529437)
(-0.00351588 0.00296956 0.00588243)
(-0.00310382 0.00274014 0.00626986)
(-0.00361716 0.00218959 0.00623353)
(-0.00418117 0.00189007 0.00614498)
(-0.00463431 0.00168333 0.00597948)
(-0.00491211 0.00158658 0.00577074)
(-0.00512379 0.00148802 0.00554806)
(-0.00527367 0.00140597 0.00533959)
(-0.00539277 0.00130942 0.00514941)
(-0.00550613 0.00121847 0.00499676)
(-0.00561898 0.00114901 0.00488577)
(-0.00569509 0.00110121 0.00478237)
(-0.00573802 0.00106994 0.0046819)
(-0.00574128 0.00106549 0.00459183)
(-0.00569649 0.00107216 0.00452343)
(-0.00563297 0.00106612 0.00447103)
(-0.00558595 0.00105637 0.00443367)
(-0.00555369 0.00104679 0.00441069)
(-0.0055176 0.00105551 0.00439939)
(-0.00548849 0.00107488 0.00439587)
(-0.00543968 0.00114018 0.00440478)
(-0.00537008 0.0011998 0.00440306)
(-0.00524155 0.00129902 0.0043882)
(-0.00507986 0.0013154 0.00436376)
(-0.00483284 0.00145275 0.00433707)
(-0.0046123 0.00132683 0.00430619)
(-0.00436778 0.00166206 0.00427643)
(-0.00419677 0.00137278 0.00423112)
(-0.00400366 0.00225225 0.00417693)
(-0.00358609 0.0015663 0.00414021)
(-0.00301354 0.00306913 0.00412613)
(-0.00175923 0.000640428 0.00416155)
(0.00016082 0.00266478 0.00537521)
(0.00229468 -0.00358295 0.00628483)
(0.0014329 -0.000676119 0.00773836)
(-0.000456336 -0.00906028 0.0068172)
(-0.00457953 0.00139118 0.00416658)
(0.00291833 -0.0126193 0.00108174)
(0.00157923 0.0113139 0.00595681)
(-0.00204278 -0.0248745 0.00838929)
(-0.0328816 -0.00825151 0.021232)
(-0.0366204 -0.0507287 0.0374567)
(-0.0143774 -0.025173 0.0601637)
(0.0718939 -0.080917 0.0764167)
(0.0002069 -0.0264693 -0.177908)
(-0.0277167 -0.0467886 -0.00992063)
(-0.0501367 -0.0218115 -0.0238307)
(-0.0287374 0.165998 -0.0125542)
(-0.0269586 0.15099 -0.00597999)
(-0.0151852 0.181457 0.00462098)
(-0.00209924 0.177072 0.0105163)
(0.00493349 0.172075 0.00992197)
(0.0113421 0.162435 0.0121802)
(0.0182091 0.152003 0.0120888)
(0.0222923 0.13938 0.0132854)
(0.0270218 0.131038 0.0120954)
(0.0311124 0.121924 0.0104473)
(0.0353915 0.116251 0.00721962)
(0.0394174 0.110206 0.004772)
(0.0449278 0.10486 0.0028814)
(0.0514168 0.103356 0.000712443)
(0.0569841 0.108871 -0.00280917)
(0.0645366 0.123457 -0.000922705)
(0.0726869 0.132108 0.00239123)
(0.0787013 0.145341 0.00456388)
(0.0858053 0.151389 0.0101631)
(0.0929263 0.157061 0.0152765)
(0.100915 0.159169 0.0181115)
(0.10692 0.160197 0.020263)
(0.11034 0.157896 0.0242142)
(0.109278 0.149965 0.0268913)
(0.102255 0.133726 0.0243005)
(0.0850508 0.105398 0.0202884)
(0.0614332 0.0750299 0.0167279)
(0.0320266 0.0465733 0.0144725)
(0.000835078 0.0354463 0.0144303)
(-0.030736 0.0277479 0.0120518)
(-0.0670081 0.0210489 0.00418343)
(-0.101999 0.0155008 -0.00886943)
(-0.122856 0.0126474 -0.0171798)
(-0.123409 0.0160807 -0.00886269)
(-0.118499 0.00629417 0.00640736)
(0.0213347 0.0176939 0.00400349)
(0.0298619 0.0297719 0.00553193)
(0.0199278 0.0200082 0.00114011)
(0.0252638 0.0243121 0.00184732)
(0.0198444 0.0118921 -0.00331673)
(0.0185552 0.0122843 -0.00136853)
(0.00755069 0.00131232 -0.00420864)
(-0.000319471 0.00353277 -0.00354546)
(-0.0046721 0.000347776 -0.000797952)
(-0.007427 0.00110546 0.000531253)
(-0.00735804 -0.000986458 0.00120178)
(-0.00764098 -0.000331713 0.00272431)
(-0.00606511 -0.000319314 0.00428759)
(-0.0042044 0.000181957 0.00588942)
(-0.00312406 0.000392845 0.00690022)
(-0.00274498 0.000853826 0.00780773)
(-0.00320183 0.00113029 0.00816891)
(-0.0037748 0.0014025 0.00824964)
(-0.0042534 0.0016341 0.00812387)
(-0.00458177 0.00184539 0.00788257)
(-0.00483399 0.00194287 0.00759218)
(-0.0050046 0.00199187 0.00731459)
(-0.00513161 0.00198994 0.00705863)
(-0.00523567 0.00196667 0.00683451)
(-0.00532065 0.0019299 0.00664638)
(-0.00536238 0.00189885 0.00649568)
(-0.00537531 0.00187636 0.00635939)
(-0.00534854 0.00185452 0.00624384)
(-0.00527745 0.00181813 0.00614764)
(-0.00518654 0.00176955 0.00607707)
(-0.00511169 0.00173529 0.00603332)
(-0.00504733 0.0017246 0.00600942)
(-0.00498406 0.00174258 0.00599644)
(-0.00494088 0.00177852 0.0059802)
(-0.00488834 0.00186139 0.00595862)
(-0.00480456 0.00193796 0.00591998)
(-0.00466284 0.00203294 0.00587235)
(-0.00448103 0.00205584 0.00581834)
(-0.00423325 0.0021769 0.00576537)
(-0.00397314 0.00205625 0.00571788)
(-0.00374428 0.00234775 0.00568807)
(-0.00347189 0.00200118 0.00564659)
(-0.00331469 0.00276723 0.00565639)
(-0.0027005 0.00170062 0.00564818)
(-0.00208853 0.00299609 0.0058573)
(-0.000646985 -0.000341032 0.00599757)
(0.00133084 0.00123365 0.00747324)
(0.00339156 -0.0050925 0.00866796)
(0.00232834 -0.00154087 0.0106703)
(-0.000455461 -0.00963541 0.0093356)
(-0.00591198 0.00207909 0.00433518)
(-0.00237387 -0.00957464 0.00277822)
(-0.00203523 0.0213155 0.00770458)
(0.00682836 -0.0185117 0.0148882)
(-0.0305833 0.00910136 0.0182886)
(-0.0255858 -0.0510163 0.0377854)
(-0.017257 -0.0266901 0.0503584)
(0.0984621 -0.0945143 0.0732452)
(-0.0314008 0.0132783 -0.157206)
(-0.0592695 -0.0483612 -0.00576667)
(-0.0975122 -0.0236887 -0.0206543)
(-0.0446581 0.152846 -0.00812531)
(-0.0434963 0.121084 0.000347524)
(-0.0179772 0.144535 0.00910809)
(-0.00350091 0.126722 0.014231)
(0.00842491 0.116921 0.0111098)
(0.0112703 0.100967 0.0126893)
(0.0197737 0.0914643 0.0117222)
(0.021562 0.0820728 0.0143619)
(0.026498 0.0722399 0.0159265)
(0.0300832 0.0629151 0.0175837)
(0.033036 0.0526357 0.0173902)
(0.0357877 0.0440722 0.0152738)
(0.0390502 0.0353072 0.0114513)
(0.0432962 0.0292958 0.00630651)
(0.0445372 0.0293904 0.000449664)
(0.0477159 0.0389516 -0.0028971)
(0.052991 0.0565492 -0.00418541)
(0.0588381 0.0778286 -0.000608499)
(0.0673216 0.0980825 0.00694129)
(0.0781767 0.118253 0.0150595)
(0.089183 0.138049 0.0215729)
(0.0975388 0.153172 0.0261473)
(0.101356 0.161901 0.0293805)
(0.105022 0.163751 0.0301815)
(0.0998221 0.160757 0.0292386)
(0.0830665 0.154956 0.0256968)
(0.0585036 0.140922 0.0209602)
(0.0304023 0.12165 0.0177405)
(-0.00134312 0.0969447 0.014002)
(-0.031689 0.0822546 0.00932327)
(-0.0617149 0.0656183 0.00265426)
(-0.0875775 0.0556582 -0.00393705)
(-0.103903 0.0473399 -0.00528915)
(-0.107397 0.0382924 -0.00564477)
(-0.111266 0.017382 -0.00240594)
(0.00943288 0.0166345 -0.00589725)
(0.0282745 0.0314082 0.00479076)
(0.018339 0.02211 0.00137379)
(0.0250578 0.0286168 0.00274425)
(0.0221755 0.0138701 -0.00173261)
(0.0221766 0.0141023 0.000295187)
(0.0107745 0.00154676 -0.00607262)
(0.00183384 0.00343236 -0.00886303)
(-0.00439262 0.000344145 -0.00636983)
(-0.00602886 0.00184185 -0.00410453)
(-0.00674777 -0.00117454 -0.00262046)
(-0.0080196 -0.00122987 -0.00105642)
(-0.00797601 -0.00248641 0.000508201)
(-0.00707266 -0.00201916 0.00199421)
(-0.00682251 -0.00141721 0.00316975)
(-0.00708822 -0.00038989 0.00421791)
(-0.00778751 0.000435495 0.00500785)
(-0.00845363 0.00110288 0.00545641)
(-0.00897474 0.00158244 0.00557628)
(-0.00911372 0.00192669 0.00551663)
(-0.0091241 0.00212469 0.00537985)
(-0.00908772 0.00225944 0.00522528)
(-0.00902557 0.0023228 0.00507575)
(-0.00895998 0.00234699 0.00493267)
(-0.00888969 0.0023423 0.00480094)
(-0.00880161 0.00232362 0.00468423)
(-0.00869819 0.00230036 0.00457685)
(-0.00856571 0.00227385 0.00447914)
(-0.00839731 0.00223982 0.00438625)
(-0.00826 0.00220073 0.00430429)
(-0.00819183 0.00217671 0.00424429)
(-0.00813702 0.0021724 0.00420417)
(-0.00808222 0.00219216 0.00417919)
(-0.00803665 0.00223051 0.00415588)
(-0.00796084 0.00230824 0.00412462)
(-0.00782806 0.00237529 0.00407637)
(-0.0076391 0.00245703 0.00400927)
(-0.0074053 0.00247682 0.00393024)
(-0.00714407 0.00259037 0.0038453)
(-0.00682342 0.00252432 0.00377666)
(-0.00671187 0.0028445 0.00372459)
(-0.00644046 0.002484 0.00367653)
(-0.00639773 0.00318869 0.00372572)
(-0.00567561 0.00185727 0.00370885)
(-0.00485614 0.0029477 0.0040207)
(-0.0032256 -0.000885885 0.00398613)
(-0.00108786 0.000537316 0.00544836)
(0.000264874 -0.00556254 0.00596317)
(-0.00119003 -0.00124935 0.00844024)
(-0.00471592 -0.00978308 0.00597325)
(-0.00983349 0.0021108 0.00120066)
(-0.0121611 -0.00573336 0.000354428)
(-0.00667035 0.0230046 0.00354833)
(-0.00567102 -0.00444689 0.0133023)
(-0.0193091 0.0538809 0.0164796)
(-0.00830375 -0.0520422 0.0222659)
(-0.0251677 0.0248596 0.0376789)
(0.10569 -0.12217 0.0547816)
(-0.0579445 0.0938154 -0.155242)
(-0.0998578 -0.0709741 -0.0171704)
(-0.141876 -0.0687566 -0.0209589)
(-0.045562 0.12852 -0.00551365)
(-0.0546496 0.0511959 0.000889303)
(-0.00373991 0.0888081 0.00823902)
(-0.00410635 0.056606 0.00969559)
(0.0187439 0.0470894 0.00535534)
(0.0147953 0.0237205 0.000837049)
(0.0187086 0.0148395 -0.00254968)
(0.0208824 0.0117669 -0.00216223)
(0.0247172 0.00844552 0.000995676)
(0.0287982 0.00848234 0.00548413)
(0.033154 0.00491296 0.00992236)