/*--------------------------------*- C++ -*----------------------------------*\
| =========                 |                                                 |
| \\      /  F ield         | OpenFOAM: The Open Source CFD Toolbox           |
|  \\    /   O peration     | Version:  2.3.0                                 |
|   \\  /    A nd           | Web:      www.OpenFOAM.org                      |
|    \\/     M anipulation  |                                                 |
\*---------------------------------------------------------------------------*/
FoamFile
{
    version     2.0;
    format      ascii;
    class       volVectorField;
    location    "35";
    object      U;
}
// * * * * * * * * * * * * * * * * * * * * * * * * * * * * * * * * * * * * * //

dimensions      [0 1 -1 0 0 0 0];

internalField   nonuniform List<vector> 
6144
(
(0.0114269 0.0201955 0.000667659)
(0.0125045 -0.00579085 -0.000869454)
(0.00396401 -0.0081283 -0.00254928)
(0.00292828 -0.00605254 -0.00245748)
(0.00198149 -0.00383784 -0.00217119)
(0.00294362 -0.00067126 -0.00198511)
(0.00306922 -0.000274777 -0.00159332)
(0.00284653 0.00054959 -0.0010857)
(0.00218425 0.000245462 -0.000703131)
(0.00167749 0.00156793 -0.000239456)
(0.00130161 0.00275737 0.000278212)
(0.00126041 0.0038643 0.00094302)
(0.00139782 0.00407826 0.00131715)
(0.00155005 0.00362212 0.00174112)
(0.00164948 0.00275148 0.00175108)
(0.00176096 0.00186699 0.00163536)
(0.00183362 0.00099761 0.00136138)
(0.00191143 0.000333895 0.00108848)
(0.00197724 -0.000181944 0.000801847)
(0.00202624 -0.000456739 0.000544396)
(0.00206866 -0.000573319 0.000330297)
(0.00209127 -0.000569696 0.000211669)
(0.00209255 -0.000497375 0.000166495)
(0.00207571 -0.000382508 0.000173994)
(0.00204285 -0.000249407 0.000226832)
(0.0019963 -0.000114828 0.000331658)
(0.00193883 1.17317e-05 0.000473188)
(0.00188159 0.000119129 0.000625194)
(0.00182328 0.000188828 0.000783192)
(0.0017645 0.000211958 0.000939285)
(0.00170259 0.000196797 0.00108009)
(0.00163614 0.000168061 0.00120526)
(0.00156708 0.000142128 0.00133255)
(0.0014995 0.000108752 0.0014792)
(0.00144095 3.70826e-05 0.00165244)
(0.00139861 -0.000125589 0.00183908)
(0.00138438 -0.000406092 0.00199224)
(0.0014054 -0.000798047 0.00206212)
(0.00147231 -0.00125718 0.00200979)
(0.00160667 -0.00178577 0.0018188)
(0.0018131 -0.00229487 0.00142981)
(0.00211718 -0.00282019 0.000783318)
(0.00252949 -0.00311251 0.000181841)
(0.00339073 -0.00386568 -0.000219896)
(0.00421216 -0.00567018 -0.0002931)
(0.00394561 -0.0074568 -0.00143779)
(0.00368873 -0.00416993 -0.00300856)
(0.00731385 -0.0011512 -0.00475484)
(0.00316443 0.00538231 -0.00547018)
(-0.00945874 0.0352153 -0.00576914)
(-0.00868578 0.0622103 -0.00650002)
(0.0124012 0.063586 -0.00762343)
(0.0409807 0.0310281 -0.0116964)
(0.0446662 -0.029462 -0.0112023)
(0.0421035 -0.0382207 -0.0225499)
(0.025215 -0.0762589 -0.0175206)
(0.00345293 -0.0315203 -0.0407228)
(0.0322694 -0.00870916 0.0109954)
(-0.0333968 -0.0569402 -0.0262935)
(0.0387821 0.186499 0.0413425)
(0.203574 -0.323179 0.0387644)
(0.135022 -0.208396 0.0217524)
(0.0899735 -0.253105 0.00558777)
(0.0707114 -0.277205 0.00936123)
(0.0634726 -0.271408 0.0121272)
(0.0552651 -0.263903 0.0164427)
(0.0482142 -0.267992 0.0195306)
(0.0449108 -0.266188 0.0189395)
(0.0399267 -0.267693 0.0161748)
(0.0345776 -0.263302 0.012643)
(0.0289259 -0.259177 0.00630644)
(0.0212375 -0.253042 0.00829685)
(0.0184656 -0.243509 0.00902593)
(0.0108352 -0.237054 0.0124708)
(0.0041547 -0.218694 0.01832)
(-0.000214162 -0.19175 0.0186203)
(-0.00403539 -0.166221 0.0200795)
(-0.0045126 -0.149028 0.0214179)
(-0.00633684 -0.143096 0.020756)
(-0.0149028 -0.138724 0.0195321)
(-0.0244761 -0.121843 0.0124353)
(-0.0144398 -0.0862735 -0.000919939)
(-0.00258131 -0.0475732 -0.00578612)
(0.00541112 -0.02535 -0.00610415)
(0.00861164 -0.0130626 -0.00903375)
(0.00641163 -0.000999096 -0.0111797)
(0.00730003 0.0235167 -0.0160493)
(0.0112543 0.0407252 -0.0156969)
(0.014551 0.0449728 -0.00840314)
(0.00955716 0.0510025 -0.00446301)
(0.00611281 0.0442582 0.00609559)
(0.00569452 0.0386643 0.0129353)
(0.00418852 0.0264921 0.0114264)
(0.00455715 0.0169338 0.0129227)
(0.00230095 0.0141846 0.0139767)
(0.0113556 0.00818245 0.0182068)
(0.0210902 0.0183963 0.00394092)
(0.0232603 0.00209652 0.0034432)
(0.00919883 -0.00318886 -0.00109133)
(0.00766282 -0.00244834 -0.00100878)
(0.00447187 -0.0035779 -2.93943e-05)
(0.00524817 -0.00100689 0.000903522)
(0.00476005 -0.00103984 0.00186442)
(0.0043828 0.000474442 0.00235483)
(0.0031825 0.000529179 0.00252465)
(0.00220337 0.00255047 0.00252376)
(0.00170654 0.00394674 0.00282878)
(0.00188677 0.00501407 0.00353476)
(0.00237502 0.00508504 0.00395443)
(0.00286728 0.00464012 0.00426574)
(0.00309195 0.00370662 0.00432038)
(0.00328958 0.00277629 0.00429896)
(0.00335211 0.00180451 0.00421286)
(0.00342911 0.00104422 0.00413145)
(0.00346956 0.000397287 0.00405536)
(0.0034794 -1.82397e-05 0.00399869)
(0.00351176 -0.000253788 0.0039046)
(0.00351681 -0.000345019 0.00385378)
(0.00348365 -0.000347517 0.00385727)
(0.0034181 -0.000287741 0.00390562)
(0.00332466 -0.000191945 0.00399077)
(0.00320986 -8.03868e-05 0.0041059)
(0.0030772 3.26152e-05 0.0042408)
(0.00295889 0.000128787 0.00433974)
(0.00285672 0.000181906 0.0044341)
(0.0027606 0.000193243 0.00452492)
(0.00265628 0.000174233 0.0046088)
(0.0025394 0.0001444 0.00469133)
(0.00241664 0.000107122 0.00478013)
(0.00231195 4.62012e-05 0.0048772)
(0.0022472 -5.47271e-05 0.00497974)
(0.00223676 -0.000207733 0.00508134)
(0.00228144 -0.00041036 0.0051673)
(0.00237738 -0.000663012 0.00522959)
(0.00253737 -0.000938598 0.0052643)
(0.00278914 -0.00124787 0.00526283)
(0.0031339 -0.00148403 0.00520242)
(0.00378281 -0.00168921 0.0048501)
(0.00488737 -0.00168161 0.0043324)
(0.00704744 -0.00249153 0.00392975)
(0.00925077 -0.00398234 0.00363056)
(0.00874043 -0.00657111 0.00132124)
(0.00344926 -0.00251479 -0.00387572)
(-0.00178078 0.0153725 -0.00938271)
(-0.0144371 0.0567311 -0.00521373)
(-0.0170294 0.0678527 0.000420778)
(0.00415692 0.0609208 0.00611107)
(0.0556446 0.0017186 0.00848064)
(0.101914 -0.0258361 -0.00873895)
(0.0868924 -0.0645208 -0.00483371)
(0.0663415 -0.0693639 -0.00782962)
(0.0535672 -0.113601 -0.00358808)
(0.0168487 -0.0882447 -0.014256)
(0.0541602 -0.143053 -0.0041121)
(-0.126537 -0.0267792 -0.0775123)
(0.0839571 0.101631 0.00470525)
(0.275382 -0.274942 0.0575634)
(0.0951727 0.0264659 0.0467154)
(-0.0134765 -0.123441 -0.0014919)
(-0.00921142 -0.060751 0.0259363)
(-0.0300243 -0.0935322 0.0345365)
(-0.0298105 -0.10063 0.0267446)
(-0.0403507 -0.108705 0.0190472)
(-0.0395596 -0.11185 0.0187951)
(-0.0335944 -0.115201 0.0221072)
(-0.0249501 -0.11392 0.018086)
(-0.0051184 -0.0986931 0.0081578)
(0.011117 -0.0771988 0.016393)
(0.00537574 -0.0750659 0.0304479)
(-0.00857384 -0.0901273 0.0408301)
(-0.0210878 -0.100405 0.0406885)
(-0.0251605 -0.10783 0.0366567)
(-0.0234363 -0.112831 0.0328848)
(-0.0210836 -0.114891 0.0301261)
(-0.022173 -0.116724 0.028676)
(-0.0257423 -0.114479 0.0286091)
(-0.0347754 -0.102239 0.0216564)
(-0.0437919 -0.0818293 0.00600024)
(-0.0357908 -0.0757697 -0.00239917)
(-0.0158362 -0.0688089 -0.00252724)
(0.0028063 -0.0611993 -0.00529712)
(0.0117527 -0.0505123 -0.0127012)
(0.0171162 -0.0403917 -0.0167086)
(0.0188956 -0.0269366 -0.0171928)
(0.022867 -0.020399 -0.0152595)
(0.0179639 0.00985659 -0.0170996)
(0.0177915 0.0264282 -0.00667856)
(0.0156243 0.0246117 0.00895016)
(0.0065208 0.0137953 0.0135657)
(0.00475037 -0.00164213 0.0102526)
(-0.00502721 0.00118846 0.0166918)
(-0.00800643 -0.00991613 0.020874)
(0.0239285 0.0175558 0.00489729)
(0.0268199 0.00748991 0.00495679)
(0.0143452 0.000875936 0.000932625)
(0.010655 0.00125075 0.00156708)
(0.00464773 -0.00179654 0.00290163)
(0.00430703 0.00117166 0.00318663)
(0.00296109 3.21101e-05 0.00402888)
(0.00242658 0.00161195 0.00414901)
(0.00113601 0.00121302 0.00413753)
(0.000254054 0.00271341 0.00405419)
(-8.52987e-05 0.00345177 0.00411259)
(0.000547511 0.0044204 0.00448059)
(0.00117182 0.00448292 0.00478358)
(0.00181477 0.00444734 0.00501414)
(0.0021471 0.00390596 0.0050227)
(0.0024284 0.00333522 0.00499216)
(0.00251244 0.00260692 0.00492824)
(0.00260716 0.00200712 0.00488475)
(0.00263716 0.00143006 0.00485577)
(0.00260603 0.000962619 0.00485711)
(0.00253533 0.000592556 0.00488115)
(0.00244494 0.000355702 0.00492424)
(0.00233782 0.0002098 0.00497641)
(0.00221492 0.00014211 0.00503723)
(0.00207857 0.000122902 0.0051056)
(0.00193406 0.000132958 0.0051763)
(0.0017837 0.00014853 0.00524928)
(0.00162681 0.000159596 0.00532687)
(0.00148313 0.000165059 0.00540869)
(0.00133718 0.00016539 0.0054862)
(0.00116991 0.000166042 0.00556116)
(0.000988079 0.000159516 0.00564215)
(0.000824298 0.000142151 0.00573577)
(0.000686616 0.000117465 0.00583143)
(0.000583303 9.61063e-05 0.00591879)
(0.000531755 0.000101919 0.00598783)
(0.000544465 0.000151909 0.00603813)
(0.000642339 0.000246288 0.00607617)
(0.000848578 0.000398651 0.0061127)
(0.00121423 0.000590764 0.00614864)
(0.00179025 0.000895023 0.00617704)
(0.00268042 0.00112068 0.00621794)
(0.00446192 0.00131143 0.00627914)
(0.00777884 0.000372926 0.00598509)
(0.0115446 -0.0011343 0.00553702)
(0.0115651 -0.00432779 0.00294515)
(-0.00282852 0.000521739 -0.00463094)
(-0.0238173 0.0252235 -0.0099332)
(-0.0296297 0.0551951 -0.00497388)
(-0.0107938 0.0624089 0.00796127)
(0.038626 0.0325009 0.0190319)
(0.087944 -0.0290482 0.00917681)
(0.118107 -0.0298663 -0.0154026)
(0.109386 -0.0252421 -0.0125714)
(0.0912254 -0.0152645 -0.00895104)
(0.0869626 -0.0735342 0.000861486)
(0.0112276 -0.0370403 0.00472668)
(0.08771 -0.188327 -0.000369679)
(-0.149708 0.105566 -0.0235005)
(0.151074 -0.0520693 -0.0253828)
(0.284788 -0.158642 0.00334383)
(0.0801734 0.161452 0.0311697)
(0.0557462 -0.111902 0.0107481)
(0.0226133 0.0670212 0.0452932)
(0.0120737 -0.075171 0.0481721)
(0.0202335 -0.0165305 0.0199067)
(0.018877 -0.0379007 0.0148582)
(0.0187406 -0.0372364 0.00544016)
(0.00728436 -0.0293582 -0.0114376)
(-0.00886558 -0.0266222 -0.0100932)
(-0.0115857 -0.00703444 -0.000991697)
(0.00245612 0.0171133 0.0204592)
(0.0164582 0.0278022 0.0354557)
(0.0150789 0.0215288 0.0389084)
(4.98582e-05 0.00887281 0.0342354)
(-0.0173321 -0.0184364 0.0276223)
(-0.029175 -0.0395663 0.0232683)
(-0.039913 -0.0529616 0.0125459)
(-0.0463247 -0.0615253 0.012504)
(-0.057518 -0.0694582 0.0139011)
(-0.061665 -0.0637604 0.00975367)
(-0.0560281 -0.0600161 0.00295352)
(-0.0318577 -0.0649737 0.00190163)
(-0.00348704 -0.0641966 0.0103252)
(0.0101524 -0.0571083 0.0153348)
(0.0177221 -0.0506039 0.0101103)
(0.0307824 -0.044753 0.00432347)
(0.033622 -0.036021 0.00600291)
(0.027676 -0.0345572 0.00186192)
(0.0170417 -0.0123431 -0.00906947)
(0.0217078 0.0116044 0.00463755)
(0.0236288 0.0165196 0.0112627)
(0.0148586 0.010817 0.0158577)
(0.00596828 -0.00242541 0.0114306)
(-0.0054272 0.00262823 0.0132306)
(-0.0168308 -0.00716689 0.0202627)
(0.0247129 0.0179749 0.00516504)
(0.0283227 0.0119429 0.00505933)
(0.0167302 0.00388176 -5.53312e-05)
(0.0124252 0.00468624 0.000438158)
(0.00479216 -0.000259109 0.00255929)
(0.00359845 0.00251584 0.00319352)
(0.00185294 0.00110328 0.00433305)
(0.00106841 0.00230828 0.00450847)
(-0.000343114 0.00117642 0.00455413)
(-0.00122487 0.00195765 0.00434596)
(-0.00162163 0.00197119 0.00441563)
(-0.00103465 0.00300814 0.00480346)
(-0.00041006 0.00348154 0.00507971)
(0.000306947 0.00390665 0.00527437)
(0.000735191 0.00372695 0.00525411)
(0.00106065 0.00343978 0.00524407)
(0.00114398 0.00288291 0.0052124)
(0.00121777 0.00241066 0.00520989)
(0.00122754 0.00192112 0.00520255)
(0.00118282 0.00149609 0.00520654)
(0.00107567 0.00110151 0.00520835)
(0.000941537 0.000792795 0.00522503)
(0.000788866 0.000551873 0.00525424)
(0.000624043 0.000383672 0.00529534)
(0.000457601 0.000276626 0.00534674)
(0.000295888 0.000217309 0.00540613)
(0.000138891 0.000189817 0.00546868)
(-1.07251e-05 0.000182744 0.00552954)
(-0.000146688 0.000188202 0.00558734)
(-0.000282416 0.000200519 0.00563967)
(-0.000431605 0.000219512 0.00569606)
(-0.000584806 0.000250666 0.0057639)
(-0.000720849 0.000290928 0.00583069)
(-0.000836262 0.000341134 0.00588773)
(-0.000930353 0.000416531 0.0059254)
(-0.000988355 0.000534949 0.00593665)
(-0.000992298 0.000712182 0.00592688)
(-0.000934358 0.000966496 0.00591105)
(-0.000798993 0.00137509 0.00589347)
(-0.000532468 0.00200193 0.00583886)
(2.53478e-05 0.00294225 0.00570925)
(0.00124456 0.00398498 0.00542229)
(0.00382585 0.00496194 0.00478408)
(0.00896335 0.00548216 0.00345993)
(0.0149276 0.00607536 0.00212951)
(0.0140092 0.00859552 -0.000186495)
(-0.00868474 0.0221401 -0.00643302)
(-0.0352208 0.041623 -0.00593141)
(-0.0364832 0.0530068 0.00151777)
(-0.00822172 0.0452047 0.0149449)
(0.0601341 0.012357 0.0207135)
(0.098957 -0.0159248 -0.0115137)
(0.114857 0.0444278 -0.0282129)
(0.10744 0.1012 -0.00664952)
(0.111752 0.115039 0.000336106)
(0.0933305 0.0757983 0.0252862)
(0.0361938 0.154793 0.0587874)
(0.132735 -0.228053 0.0196394)
(-0.205594 0.366332 0.0143722)
(0.118284 -0.149554 0.0141688)
(0.230319 -0.0747282 -0.0113021)
(0.0844367 0.138828 0.00120063)
(0.0828218 0.0413771 -0.0213901)
(0.00192334 0.0856722 -0.011607)
(0.00294643 0.0716226 -0.0139609)
(-0.0265587 0.0773598 -0.0114444)
(-0.0208751 0.0991837 -0.0193248)
(-0.0211329 0.12142 -0.015514)
(-0.014681 0.130317 -0.0218249)
(-0.0131831 0.131481 -0.0229992)
(0.00085572 0.136985 -0.012191)
(0.0172954 0.124496 -0.000965241)
(0.0251901 0.107586 0.00284563)
(0.0233494 0.0935266 0.000515202)
(0.0163347 0.0733065 0.000300751)
(-0.000564963 0.043089 -0.00344799)
(-0.0187526 0.0199934 -0.0044732)
(-0.0179127 0.00310965 0.00213094)
(-0.0256042 -0.0141495 0.00928816)
(-0.0456415 -0.0201572 0.007951)
(-0.0560417 -0.0287464 0.00904608)
(-0.0521737 -0.0353793 0.0108096)
(-0.0331264 -0.047411 0.0145503)
(-0.0187744 -0.0458365 0.0216152)
(-0.00642995 -0.0449963 0.0254409)
(0.0132625 -0.0469187 0.0236479)
(0.0258664 -0.0504474 0.0223653)
(0.0318664 -0.0438828 0.0164439)
(0.0256669 -0.0370962 0.0102401)
(0.00626029 -0.0171384 -0.00500781)
(0.0104668 0.00358636 0.0115966)
(0.00864893 0.00656347 0.0223595)
(0.00047916 0.00699955 0.0176271)
(-0.004445 -0.00785235 0.013519)
(-0.0104974 -0.00206642 0.00923813)
(-0.0249622 -0.00426564 0.0155649)
(0.024466 0.0190109 0.00493592)
(0.0290501 0.0167704 0.00500942)
(0.0190791 0.00742412 -3.42166e-05)
(0.0162871 0.00790742 -0.000555861)
(0.00619629 -0.00030347 -0.000454647)
(0.00299191 0.00241775 0.00104026)
(0.000374673 0.000475142 0.00336289)
(-8.19065e-05 0.00244993 0.00400684)
(-0.00160734 0.000980759 0.00429311)
(-0.0026086 0.00146073 0.00427011)
(-0.00352783 0.000904586 0.00435652)
(-0.00342341 0.00190455 0.00473897)
(-0.0029349 0.00264461 0.00496643)
(-0.00206025 0.00339866 0.00517037)
(-0.00147387 0.00344566 0.00512408)
(-0.00109115 0.00329702 0.00514443)
(-0.00105386 0.00283602 0.00514583)
(-0.00110321 0.0024611 0.00517925)
(-0.00120547 0.00205467 0.00518137)
(-0.00132025 0.00169024 0.00517085)
(-0.0014688 0.00131811 0.00513709)
(-0.00162315 0.000983888 0.00510934)
(-0.00177757 0.000694982 0.00509414)
(-0.00194327 0.000469557 0.00509015)
(-0.00211608 0.000304125 0.00509686)
(-0.00227466 0.000193526 0.00511467)
(-0.00241924 0.000125244 0.00513981)
(-0.00254696 8.73423e-05 0.0051634)
(-0.00265491 7.76967e-05 0.0051752)
(-0.00276045 9.27793e-05 0.00518182)
(-0.0028866 0.000122003 0.00519299)
(-0.00302949 0.000169779 0.00521308)
(-0.00317029 0.000248458 0.0052324)
(-0.0032899 0.000367148 0.00523913)
(-0.00338323 0.000535972 0.00522296)
(-0.00344167 0.000772359 0.00517202)
(-0.00346147 0.00110158 0.00508428)
(-0.00345994 0.00157686 0.0049557)
(-0.00343878 0.00232133 0.00477195)
(-0.00331614 0.00341799 0.00449381)
(-0.00286695 0.00503971 0.00405526)
(-0.00164897 0.00707709 0.0031937)
(0.00180946 0.00986912 0.00149815)
(0.00752653 0.0144131 -0.00112648)
(0.0133674 0.0238499 -0.00264237)
(0.00855572 0.0381038 -0.00215804)
(-0.0191886 0.0507807 -0.00279367)
(-0.0350027 0.0546391 -0.00153719)
(-0.0334087 0.0527009 0.00684934)
(0.00511524 0.0268827 0.0141508)
(0.0596204 0.00814049 0.0113234)
(0.0773234 0.0355935 -0.0245576)
(0.0953696 0.113952 -0.000346376)
(0.108052 0.144105 0.0138394)
(0.113792 0.161543 0.019582)
(0.114979 0.151622 0.0609356)
(0.138401 0.189757 0.0750647)
(0.143238 -0.107532 0.056962)
(-0.159397 0.493911 0.00280229)
(0.114311 -0.195216 0.0242289)
(0.202562 -0.0441633 -0.025075)
(0.0903998 0.134695 -0.0102492)
(0.0916228 0.107946 -0.0119016)
(0.0473338 0.144568 -0.0108571)
(0.0325552 0.147002 -0.0198416)
(0.0178429 0.154152 -0.0184237)
(0.01708 0.161375 -0.0104947)
(0.0219198 0.166974 0.0016749)
(0.0310053 0.171917 0.0110153)
(0.0328087 0.165135 0.0217787)
(0.0408036 0.156433 0.0326328)
(0.0387876 0.140472 0.0356807)
(0.0389951 0.124329 0.033053)
(0.0438592 0.114483 0.0268031)
(0.043983 0.0948375 0.0232489)
(0.0338963 0.0701315 0.0210544)
(0.0183818 0.0409054 0.0219348)
(-0.00477232 0.0124622 0.0232246)
(-0.0229559 -0.0028832 0.0264038)
(-0.0434482 -0.00602625 0.0206164)
(-0.0566293 -0.0146152 0.0182499)
(-0.0556556 -0.0279678 0.0208918)
(-0.0426718 -0.0419337 0.0257249)
(-0.028481 -0.0467174 0.0278219)
(-0.0107953 -0.0455823 0.031765)
(0.00653224 -0.0442753 0.0335285)
(0.0114054 -0.03409 0.030998)
(0.00634389 -0.0331932 0.0174943)
(-0.00217158 0.00710869 -0.00144545)
(-0.00591746 0.0252528 0.0138063)
(-0.00547705 0.0242892 0.0238905)
(-0.00495905 0.0221708 0.024143)
(0.0045767 0.0105316 0.0273888)
(-0.0023092 -0.00532851 0.0202335)
(-0.0176674 -0.00310647 0.00206145)
(-0.0276594 -0.00409599 0.0110782)
(0.0233011 0.0190844 0.00462595)
(0.0300237 0.0210613 0.00578392)
(0.0208653 0.0115226 0.00188338)
(0.0203785 0.0116063 0.00181061)
(0.0108748 0.000498715 -0.00235744)
(0.00410154 0.00235746 -0.00183208)
(-0.00071352 -0.00137731 0.00134863)
(-0.00153962 0.00185937 0.00268998)
(-0.00266077 0.00030893 0.00323852)
(-0.0037821 0.00106848 0.00357044)
(-0.00478728 6.23231e-05 0.00366082)
(-0.00499216 0.00105589 0.00412099)
(-0.00440266 0.00197897 0.00440084)
(-0.00319248 0.00295625 0.004868)
(-0.00228425 0.00300366 0.00505219)
(-0.00178805 0.00284758 0.0052378)
(-0.00175668 0.00237164 0.00529613)
(-0.00189642 0.00208953 0.00533192)
(-0.00205627 0.0018277 0.00530372)
(-0.00221219 0.00163266 0.00523885)
(-0.00238782 0.00140937 0.00512581)
(-0.00257748 0.00117276 0.0050024)
(-0.00278076 0.000940058 0.00488619)
(-0.00296996 0.000731549 0.00478551)
(-0.00313619 0.000571199 0.00470111)
(-0.00327015 0.000466445 0.00462676)
(-0.00337869 0.000403536 0.00456247)
(-0.0034687 0.000374965 0.00450072)
(-0.0035579 0.000367392 0.00443612)
(-0.00364254 0.000375335 0.00438188)
(-0.00374379 0.000403127 0.00434806)
(-0.00386048 0.00046786 0.00432973)
(-0.00398136 0.000585046 0.00430653)
(-0.00409545 0.000762427 0.00425913)
(-0.0042068 0.00100244 0.00417694)
(-0.004311 0.00131616 0.00404788)
(-0.00440757 0.00172357 0.00386574)
(-0.00454538 0.0022916 0.00361324)
(-0.00471642 0.00317344 0.00327905)
(-0.00484297 0.00446985 0.00284081)
(-0.00470799 0.00640766 0.0022299)
(-0.00358172 0.00914557 0.00122771)
(-0.00118235 0.0137921 -0.000660722)
(0.00276569 0.0224357 -0.00352585)
(0.00598405 0.0382477 -0.00422309)
(0.00163272 0.0560956 -0.00133157)
(-0.016211 0.0604075 0.00122794)
(-0.0288781 0.0521147 0.00408539)
(-0.0233408 0.0356725 0.00998172)
(0.0161806 0.00641953 0.0189779)
(0.0386895 0.0122309 0.00432926)
(0.0563407 0.0537782 -0.00368299)
(0.0844476 0.106 0.0429791)
(0.107872 0.127208 0.0519974)
(0.11814 0.149612 0.0538429)
(0.131481 0.144609 0.0853222)
(0.146308 0.174899 0.0939471)
(0.15343 0.0213908 0.0729915)
(0.0630321 0.352015 0.0610586)
(0.0533104 -0.16178 0.0193291)
(0.141699 0.0137187 -0.0128487)
(0.0586594 0.185191 -0.011458)
(0.054272 0.205707 -0.00063483)
(0.0423256 0.225738 0.00178456)
(0.0404844 0.229974 0.00232942)
(0.032371 0.226513 0.00941027)
(0.0298709 0.217752 0.0206138)
(0.0296918 0.211089 0.0310738)
(0.0290278 0.200045 0.0424807)
(0.0261385 0.190007 0.0428739)
(0.0265475 0.183902 0.0402067)
(0.0239723 0.175357 0.0312216)
(0.0277688 0.162943 0.0246956)
(0.0354092 0.150499 0.0210596)
(0.0437235 0.134723 0.0182411)
(0.0470335 0.111853 0.021553)
(0.0362493 0.0800534 0.0262072)
(0.0138329 0.0410032 0.0301179)
(-0.0154885 0.0122082 0.0337897)
(-0.0409722 -0.00312296 0.0355168)
(-0.0492726 -0.0132949 0.0381677)
(-0.0515825 -0.0283181 0.0433338)
(-0.0494632 -0.0384716 0.0389882)
(-0.0392057 -0.0380179 0.0346287)
(-0.0324418 -0.0332042 0.0391086)
(-0.0240992 -0.0194392 0.0528108)
(-0.00297409 -0.00526802 0.043797)
(-0.00177417 0.0164495 0.00141448)
(-0.0124739 0.0373031 0.00363886)
(-0.0128691 0.0418326 0.0243753)
(-0.013748 0.038528 0.0311667)
(-0.008239 0.0329912 0.0340828)
(-0.00758199 0.026084 0.0329876)
(-0.0128469 0.0175116 0.0208806)
(-0.0236552 0.0111237 0.00557029)
(-0.0345791 0.00350581 0.0107218)
(0.0210411 0.0175862 0.00465132)
(0.0305339 0.0251516 0.00813489)
(0.0207052 0.0139286 0.00482386)
(0.0209153 0.0145005 0.00515482)
(0.0144919 0.000941464 4.34999e-05)
(0.00663415 0.00238818 -0.00269635)
(-0.000915946 -0.00345361 1.63619e-06)
(-0.0027012 0.00122153 0.00151641)
(-0.00383414 -5.89653e-05 0.00206682)
(-0.00472972 0.00108296 0.00279691)
(-0.0062752 -0.000109415 0.00283726)
(-0.00743652 0.00078674 0.00345761)
(-0.00725889 0.00137735 0.00395474)
(-0.00566262 0.00228658 0.00494696)
(-0.00449246 0.00227967 0.00560104)
(-0.00395664 0.00221348 0.00605829)
(-0.00413632 0.0018372 0.00616295)
(-0.00458774 0.00166932 0.00612748)
(-0.00497507 0.00154781 0.00598994)
(-0.00525195 0.00152515 0.00580944)
(-0.00542812 0.00149506 0.00558041)
(-0.00556811 0.00144992 0.00535206)
(-0.00568521 0.00137619 0.00513699)
(-0.00580953 0.00128937 0.00495445)
(-0.00595802 0.00122338 0.00481768)
(-0.00605236 0.00118873 0.00469228)
(-0.00611332 0.0011694 0.00458599)
(-0.00612813 0.00117235 0.00450979)
(-0.00611174 0.00117735 0.00446104)
(-0.00610621 0.0011767 0.00443279)
(-0.00615371 0.00119766 0.00442552)
(-0.00624527 0.0012777 0.00442742)
(-0.00635291 0.00143792 0.00441457)
(-0.00644183 0.00167639 0.00436756)
(-0.0065009 0.00197663 0.00427845)
(-0.00653013 0.00232602 0.00414426)
(-0.00656667 0.00273689 0.00397636)
(-0.00672675 0.0032589 0.00374327)
(-0.00703029 0.00401429 0.0034246)
(-0.00735938 0.00505695 0.00298348)
(-0.00760776 0.0065101 0.00233825)
(-0.0074982 0.00856139 0.00136593)
(-0.00707672 0.0126197 -0.000279007)
(-0.00634166 0.0196666 -0.00280945)
(-0.00469377 0.0335244 -0.00399982)
(-0.00379527 0.0469635 -0.00252589)
(-0.00768479 0.0509655 0.000307695)
(-0.0136008 0.0422888 0.00896677)
(-0.00545997 0.0186526 0.018939)
(0.00822469 0.00345106 0.0227435)
(0.0163882 0.011295 0.0082124)
(0.0381559 0.0338332 0.0191192)
(0.0669041 0.0785615 0.064067)
(0.086667 0.108193 0.0649144)
(0.107099 0.141015 0.0593132)
(0.144533 0.141745 0.0863199)
(0.167105 0.183513 0.0989946)
(0.228662 -0.0198784 0.0856048)
(0.265697 0.357557 0.150105)
(0.00537196 -0.174773 0.0200834)
(0.0358282 0.0666298 -0.00332586)
(0.0233145 0.219389 -0.00822628)
(0.0476649 0.249156 0.00513642)
(0.0470986 0.27051 0.00816534)
(0.0501295 0.277156 0.00984212)
(0.0478485 0.276277 0.0177559)
(0.0354219 0.26715 0.0291551)
(0.0251966 0.257406 0.0420676)
(0.00984423 0.2469 0.0459286)
(-0.00307453 0.237611 0.0471753)
(-0.00321342 0.226476 0.0463789)
(0.0125724 0.213265 0.0401671)
(0.0311735 0.199702 0.0312638)
(0.0422141 0.188779 0.0237744)
(0.0528546 0.179709 0.0193953)
(0.0602722 0.17055 0.0230901)
(0.0547263 0.153797 0.0294899)
(0.0340166 0.123456 0.0415869)
(-0.0118478 0.0732351 0.0506046)
(-0.0462849 0.0355889 0.0490692)
(-0.0621121 0.0245881 0.0572893)
(-0.0637597 0.0131827 0.0633818)
(-0.0596534 0.00270115 0.056316)
(-0.046678 0.00334621 0.0488799)
(-0.0305609 0.0110192 0.0422851)
(-0.0273728 0.00828049 0.0164017)
(-0.0362631 0.0323706 -0.0197748)
(-0.0386943 0.0741642 0.00315132)
(-0.0316876 0.0840295 0.0277706)
(-0.0249253 0.0830628 0.0361711)
(-0.020182 0.0685925 0.0368686)
(-0.0136308 0.0622602 0.0286828)
(-0.011668 0.0554555 0.0144166)
(-0.0121022 0.0568942 0.00402914)
(-0.015786 0.0426611 -0.00133861)
(-0.025442 0.0145819 0.00393975)
(0.0207909 0.0121409 0.00458952)
(0.0299499 0.0271792 0.010203)
(0.019798 0.0150057 0.00592049)
(0.020426 0.0177174 0.00624831)
(0.0155008 0.00277307 0.00124414)
(0.00833349 0.00321064 -0.00259067)
(-0.00207732 -0.00484619 -0.000434226)
(-0.00553949 0.000344896 0.000330554)
(-0.00503027 -0.00127872 0.0017929)
(-0.00564198 0.0010484 0.0026948)
(-0.00656512 -9.87779e-06 0.00293702)
(-0.00761115 0.000711726 0.00388977)
(-0.00719371 0.00021748 0.00466681)
(-0.00549657 0.000488525 0.00600968)
(-0.0044001 0.000329892 0.00699521)
(-0.00391268 0.000689909 0.00781587)
(-0.00402386 0.000909666 0.0081862)
(-0.00438231 0.00122262 0.00826575)
(-0.00468985 0.00144666 0.00814825)
(-0.00492232 0.00170866 0.00793278)
(-0.00510054 0.00189984 0.00763665)
(-0.00523876 0.00199906 0.00733679)
(-0.00534661 0.00203573 0.00706542)
(-0.00544269 0.00203674 0.00682714)
(-0.00554098 0.00201004 0.00662696)
(-0.00560169 0.00197746 0.0064637)
(-0.00563202 0.00195582 0.00632838)
(-0.00562498 0.00194067 0.006227)
(-0.00558701 0.00191965 0.00614933)
(-0.00555699 0.00190451 0.00609724)
(-0.00559783 0.00193005 0.00605903)
(-0.00570819 0.0020362 0.00601134)
(-0.00585513 0.00222537 0.00593241)
(-0.00598308 0.00247763 0.00581317)
(-0.00607078 0.00276479 0.00565824)
(-0.00613484 0.00305536 0.00547604)
(-0.00623256 0.00334999 0.00528418)
(-0.00645751 0.00370769 0.0050684)
(-0.00683918 0.00421199 0.00480271)
(-0.00722309 0.00485792 0.00447308)
(-0.00749015 0.00570037 0.00404673)
(-0.00781532 0.00679022 0.00356)
(-0.00864583 0.00921348 0.00284763)
(-0.0099907 0.0133581 0.00136314)
(-0.0106778 0.0213484 -0.000676063)
(-0.00850136 0.030899 -0.00193085)
(-0.00829264 0.0343756 -0.00114018)
(-0.00529555 0.0301984 0.00594008)
(0.00585522 0.015733 0.019392)
(0.0123718 0.00656252 0.0249098)
(0.0061732 0.0104554 0.0180715)
(0.00780548 0.030046 0.0217413)
(0.0130846 0.084057 0.0602883)
(0.0181832 0.110035 0.0674241)
(0.0400623 0.129818 0.0545356)
(0.0968744 0.119624 0.0563296)
(0.131949 0.178886 0.0743023)
(0.2011 -0.0632941 0.05586)
(0.305448 0.400064 0.0445762)
(-0.038807 -0.175544 0.0288588)
(-0.0775746 0.0883526 0.0121649)
(-0.0107754 0.225118 0.00269718)
(0.0167745 0.254272 0.0197227)
(0.039929 0.265623 0.0165931)
(0.0406701 0.280184 0.0198047)
(0.044387 0.280615 0.0198495)
(0.0328347 0.282518 0.0312452)
(0.0248257 0.270743 0.0411212)
(0.0184077 0.257024 0.0499801)
(0.0118338 0.233349 0.0471426)
(0.0156745 0.213117 0.0419769)
(0.0273468 0.180298 0.0340302)
(0.0446308 0.168042 0.0356917)
(0.0528831 0.163171 0.0339057)
(0.0569346 0.165104 0.0264101)
(0.0607906 0.171984 0.0260844)
(0.0635628 0.172734 0.0312009)
(0.0518667 0.166252 0.0412359)
(0.0167432 0.146492 0.0537859)
(-0.02719 0.107148 0.0592411)
(-0.0401993 0.0787086 0.0581836)
(-0.0395918 0.045796 0.0480919)
(-0.0503529 0.0292442 0.023133)
(-0.0549097 0.0353226 -0.00234496)
(-0.0604382 0.063991 -0.0319006)
(-0.0656026 0.0944447 -0.0327836)
(-0.0590631 0.120232 -0.00850238)
(-0.0477829 0.129158 0.00933723)
(-0.031728 0.118031 0.0233286)
(-0.0162616 0.112317 0.0225138)
(-0.0114625 0.0830517 0.0180888)
(-0.0166875 0.0668338 -0.00215618)
(-0.0252559 0.0532352 -0.0179585)
(-0.0197337 0.0467855 -0.0285156)
(-0.00867589 0.0328401 -0.0376845)
(-0.000432774 0.0197933 -0.046925)
(0.0138873 0.00647648 0.00248011)
(0.0274638 0.0272733 0.0105193)
(0.0180377 0.015989 0.00413747)
(0.0198673 0.0221763 0.00321353)
(0.0169322 0.00667131 0.000492336)
(0.0119599 0.00476254 -0.00181931)
(-0.00179683 -0.00533313 -0.00554685)
(-0.00550564 0.000350099 -0.00459806)
(-0.00738864 -0.0018119 -0.00230728)
(-0.00781074 0.00110248 -0.000688858)
(-0.00863981 -5.75723e-05 -0.000114501)
(-0.00944339 0.00040559 0.00100454)
(-0.00925466 -0.000794725 0.00180734)
(-0.0083056 -0.000700224 0.00283028)
(-0.00786528 -0.000732099 0.00362382)
(-0.0079175 -0.00010241 0.00442583)
(-0.00829892 0.000421921 0.00505785)
(-0.00877425 0.000981478 0.00544907)
(-0.00919483 0.00140079 0.00558573)
(-0.00949823 0.00178353 0.00554109)
(-0.00948788 0.0020533 0.00538353)
(-0.00942109 0.00222622 0.00520585)
(-0.00935133 0.00232528 0.00503901)
(-0.00928739 0.00237424 0.00488832)
(-0.0092305 0.00238181 0.00475593)
(-0.00915664 0.00236712 0.00463996)
(-0.00907245 0.00234984 0.00453808)
(-0.00896694 0.00233941 0.0044515)
(-0.00884359 0.00233836 0.00437293)
(-0.00878761 0.00234961 0.00430301)
(-0.0088515 0.00239632 0.00424196)
(-0.00896862 0.00250304 0.00417997)
(-0.00909151 0.00266435 0.00409795)
(-0.00915359 0.00285624 0.00397888)
(-0.00915505 0.00306683 0.0038227)
(-0.00907198 0.00329026 0.00364315)
(-0.0090438 0.00353934 0.00346702)
(-0.00925616 0.0038256 0.0032957)
(-0.00969588 0.00414542 0.00310684)
(-0.010144 0.00448219 0.00288943)
(-0.0105449 0.00491999 0.00260124)
(-0.0112823 0.00551795 0.00213174)
(-0.0129738 0.00689086 0.001338)
(-0.015062 0.00937595 0.000435635)
(-0.0172188 0.0129371 -0.000988561)
(-0.0145413 0.0171054 -0.00320119)
(-0.0110388 0.0172503 -0.00468089)
(-0.00392377 0.0126715 -0.000482817)
(0.00562763 0.00325412 0.00736006)
(0.00351971 -0.00286298 0.0125691)
(-0.0231491 0.0174235 0.0149827)
(-0.0397755 0.0351465 0.0371161)
(-0.028585 0.0544809 0.0595296)
(-0.0035152 0.0553084 0.0409892)
(0.0116928 0.0806996 0.0182474)
(0.0780538 0.072325 0.026571)
(0.102681 0.175577 0.0440364)
(0.185335 -0.0219887 0.0512914)
(0.378236 0.522254 0.0477021)
(-0.0340168 -0.203673 0.0194849)
(-0.181429 -0.0207308 -0.00860756)
(-0.0457041 0.122305 0.00441828)
(-0.0183695 0.0827882 0.0185865)
(0.0274543 0.0990306 0.0133565)
(0.0203143 0.105295 0.0130632)
(0.0418983 0.119057 0.0125943)
(0.0304792 0.146637 0.0280422)
(0.0148119 0.145813 0.0334967)
(0.00438358 0.127886 0.0329257)
(0.0127271 0.104478 0.0352797)
(0.0178749 0.0770127 0.0231532)
(0.030376 0.050248 0.00823559)
(0.0398044 0.0297946 -0.00235638)
(0.0421693 0.0281411 -0.00781657)
(0.0384087 0.0382665 -0.0164511)
(0.0503937 0.077825 -0.00618988)
(0.0677817 0.103575 0.0024907)
(0.0717051 0.106893 0.00619171)
(0.0484538 0.111124 0.022956)
(0.00652328 0.0931627 0.0473067)
(-0.0230739 0.0743696 0.028237)
(-0.0436242 0.0721536 -0.001025)