/*--------------------------------*- C++ -*----------------------------------*\
| =========                 |                                                 |
| \\      /  F ield         | OpenFOAM: The Open Source CFD Toolbox           |
|  \\    /   O peration     | Version:  2.3.0                                 |
|   \\  /    A nd           | Web:      www.OpenFOAM.org                      |
|    \\/     M anipulation  |                                                 |
\*---------------------------------------------------------------------------*/
FoamFile
{
    version     2.0;
    format      ascii;
    class       volVectorField;
    location    "35";
    object      U.air;
}
// * * * * * * * * * * * * * * * * * * * * * * * * * * * * * * * * * * * * * //

dimensions      [0 1 -1 0 0 0 0];

internalField   nonuniform List<vector> 
6144
(
(0.0107599 0.0192064 0.00104317)
(0.0110802 -0.00616142 -0.000270914)
(0.00402968 -0.00732886 -0.00250026)
(0.00393487 -0.00698349 -0.0024764)
(0.00237555 -0.0059062 -0.0023951)
(0.00271447 -0.00257398 -0.00224567)
(0.00237669 -0.00135428 -0.00158364)
(0.00223767 7.60362e-05 -0.000898891)
(0.0016444 0.000736849 -0.000365392)
(0.00119334 0.00280875 0.000395726)
(0.00104421 0.00415848 0.000968302)
(0.00115735 0.00475966 0.00149147)
(0.00138427 0.00452507 0.00178153)
(0.00157054 0.0037229 0.00200051)
(0.0017029 0.00268211 0.00178932)
(0.00183219 0.0017237 0.00156604)
(0.00191578 0.00084327 0.00119786)
(0.00200129 0.000215245 0.000876561)
(0.00207636 -0.000233479 0.000548844)
(0.00213515 -0.00044449 0.000285417)
(0.00217008 -0.000545876 0.000124858)
(0.00218778 -0.000537179 3.82204e-05)
(0.00218659 -0.000484 1.09558e-05)
(0.002168 -0.000400635 2.82337e-05)
(0.00213586 -0.000308268 8.32622e-05)
(0.0020953 -0.000223572 0.000168651)
(0.00204855 -0.000160298 0.000280002)
(0.00199531 -0.000125016 0.000428054)
(0.00194501 -0.000118372 0.000580317)
(0.00190073 -0.000151647 0.000714183)
(0.00185969 -0.000223132 0.000830238)
(0.00182069 -0.000320993 0.00091874)
(0.00178452 -0.000411724 0.000985717)
(0.00175221 -0.000503959 0.0010403)
(0.00172238 -0.000569221 0.00109342)
(0.0016944 -0.000659001 0.00114897)
(0.00166893 -0.000715331 0.00122635)
(0.00164742 -0.000882097 0.00131426)
(0.00162862 -0.000987484 0.00141063)
(0.00162991 -0.00134538 0.00149615)
(0.00161335 -0.00144358 0.0015477)
(0.00166879 -0.00210234 0.00164009)
(0.00164129 -0.00205528 0.001631)
(0.00177131 -0.0032835 0.00170353)
(0.00169922 -0.00279651 0.0015115)
(0.00195339 -0.00477818 0.00117702)
(0.00191877 -0.00271143 0.000325871)
(0.00277405 -0.00512509 -0.000498555)
(0.00279667 -0.000436994 -0.00119468)
(0.0022869 -0.00559849 -0.00165248)
(-0.000134626 0.00471356 -0.000598813)
(4.06014e-05 -0.00477801 -0.00159946)
(0.00140229 0.0158094 -0.00344903)
(0.0053137 -0.00307729 -0.00713089)
(0.0198931 0.0486946 -0.00807481)
(0.0119049 -0.0494436 -0.0127417)
(0.0519213 0.0779326 -0.000944114)
(0.0178061 -0.148991 0.016512)
(-0.0914913 0.143184 -0.0922385)
(0.0514786 0.016585 -0.0973642)
(0.0808367 0.333191 -0.0106308)
(0.0296912 0.380518 -0.00684662)
(0.00685872 -0.0724119 -0.00672284)
(0.00740571 -0.0579484 -0.000844905)
(-0.0156292 -0.0301682 0.00382952)
(-0.0165108 -0.00243889 0.00728362)
(-0.00975878 0.0143196 0.0079499)
(-0.00574373 0.0289284 -0.0032734)
(-0.0021382 0.0456892 -0.0112302)
(0.0020832 0.0552431 -0.0122357)
(0.00662332 0.0625857 -0.0134272)
(0.0107536 0.0673684 -0.013658)
(0.0134647 0.0690812 -0.0129116)
(0.0163435 0.0661731 -0.010907)
(0.0185381 0.060122 -0.00841751)
(0.0193669 0.0495234 -0.00557697)
(0.0192736 0.037701 -0.00325465)
(0.0186342 0.0241222 -0.00215905)
(0.0175807 0.00816439 -0.00060488)
(0.0160959 -0.0101947 0.00154279)
(0.0151735 -0.0305218 0.00388665)
(0.0155243 -0.052949 0.00649877)
(0.0136334 -0.0808218 0.0101935)
(0.0102124 -0.110238 0.0125071)
(0.0120847 -0.139134 0.0135626)
(0.00882697 -0.17246 0.0143148)
(0.00309781 -0.196544 0.0119743)
(0.00299997 -0.214494 0.0102086)
(-0.00497261 -0.22221 0.00705293)
(-0.00900069 -0.218695 0.00613565)
(-0.0162525 -0.207314 0.00619586)
(-0.0208824 -0.180103 0.00554815)
(-0.0336362 -0.141097 0.00772218)
(-0.0361265 -0.104745 0.00287759)
(-0.0258773 -0.0313878 -0.000499707)
(-0.0168868 -0.00113514 0.000890105)
(0.0213682 0.0189768 0.00368256)
(0.0231489 0.00446744 0.00294734)
(0.0112089 0.000597247 -0.000917523)
(0.0109533 -4.24905e-05 -0.000947459)
(0.00565472 -0.00305541 -0.000379629)
(0.00524424 -0.00125904 0.00102861)
(0.00331588 -0.00189143 0.00248916)
(0.00262631 -0.000140263 0.00262846)
(0.00138385 0.00139657 0.00242788)
(0.000956907 0.00436394 0.00269888)
(0.00123087 0.0057313 0.00328421)
(0.00188549 0.00630454 0.00393697)
(0.00250261 0.00583288 0.00429081)
(0.0029892 0.0050112 0.00446201)
(0.00321715 0.00383034 0.00439008)
(0.00343011 0.00276158 0.00429946)
(0.00350045 0.00173729 0.00415799)
(0.0035921 0.000975285 0.00404543)
(0.00364987 0.000372697 0.00393649)
(0.00372501 3.03838e-05 0.00378666)
(0.00376839 -0.000183162 0.00368314)
(0.00377013 -0.000263717 0.00363851)
(0.00373718 -0.000278692 0.00364702)
(0.00367359 -0.000244139 0.00370108)
(0.00358789 -0.000187699 0.00378948)
(0.00348746 -0.000128734 0.00390255)
(0.00337609 -8.28393e-05 0.00403417)
(0.00325816 -5.3441e-05 0.00417565)
(0.00314995 -4.86213e-05 0.00429498)
(0.00306953 -8.40522e-05 0.00437847)
(0.0029994 -0.000150015 0.00445187)
(0.00292646 -0.000234714 0.00451657)
(0.00285593 -0.000310292 0.0045764)
(0.00278826 -0.000401898 0.00463183)
(0.00273005 -0.000467106 0.00468378)
(0.00267644 -0.000579403 0.00473549)
(0.00264885 -0.000641689 0.0047919)
(0.00262946 -0.000839151 0.00485113)
(0.00264143 -0.000911348 0.00491031)
(0.00266298 -0.0012964 0.00498442)
(0.00268274 -0.00128973 0.00501581)
(0.00279356 -0.00202177 0.0051418)
(0.00280828 -0.00183066 0.00511219)
(0.00307869 -0.00327608 0.00523242)
(0.00296243 -0.00255533 0.00501695)
(0.00333683 -0.00483164 0.00475936)
(0.0029453 -0.00189403 0.00359642)
(0.00403346 -0.00418722 0.00237214)
(0.00387094 0.00337601 0.00190919)
(0.00387873 -0.00175035 0.00197453)
(0.00242073 0.00767283 0.00298957)
(0.000611053 -0.0153612 0.00272352)
(0.000870545 0.00507685 -0.00266158)
(0.00280069 -0.0202179 -0.00338515)
(0.0423975 0.014991 0.00690464)
(0.0306996 -0.0405722 0.00303713)
(0.0123189 0.0189926 -0.0230427)
(-0.0403697 0.020848 -0.0510775)
(-0.0256345 0.256067 -0.0982331)
(0.133819 -0.0518255 -0.0333396)
(0.0688974 0.404243 -0.018469)
(-0.0128105 0.449893 -0.0149433)
(-0.0168631 -0.0123492 -0.0101105)
(-0.0277641 0.077203 0.0157781)
(-0.0331708 0.026967 0.00903275)
(-0.0266436 0.0594739 -0.000130757)
(-0.0187225 0.0741808 -0.00525371)
(-0.0111706 0.0948037 -0.00950703)
(-0.0022368 0.104769 -0.0108185)
(0.00636762 0.11279 -0.00989373)
(0.0148688 0.116565 -0.00935813)
(0.021665 0.119058 -0.00816443)
(0.0275485 0.118581 -0.00671763)
(0.0312502 0.114316 -0.00491327)
(0.0349596 0.107296 -0.00308016)
(0.0362402 0.0958513 -0.00172602)
(0.0365784 0.0829605 -0.000394887)
(0.03599 0.0679893 0.000552938)
(0.0347668 0.0502584 0.00196746)
(0.0327931 0.0304895 0.00305901)
(0.0313866 0.00790264 0.00458116)
(0.0308356 -0.0165882 0.00675298)
(0.0293258 -0.0450808 0.00823689)
(0.0276931 -0.0776985 0.00802274)
(0.0274857 -0.107909 0.0072985)
(0.0219248 -0.139277 0.00475595)
(0.0133957 -0.167919 -0.00114654)
(0.00752141 -0.179573 -0.00540989)
(-0.00265653 -0.189268 -0.00925157)
(-0.0161455 -0.189244 -0.00913759)
(-0.036679 -0.183035 -0.0060173)
(-0.0516522 -0.161104 -0.00266972)
(-0.0585474 -0.129951 0.00248744)
(-0.072737 -0.101331 -0.00143807)
(-0.0662763 -0.0425429 -0.00148866)
(-0.0423918 -0.0035234 0.00533734)
(0.0246966 0.0193706 0.00448461)
(0.0269511 0.0114087 0.00492492)
(0.0156895 0.00636025 0.00286132)
(0.0142779 0.0066667 0.00319375)
(0.00733915 0.00118613 0.00380871)
(0.00482075 0.0017581 0.00368163)
(0.00140094 -0.000553223 0.00438925)
(0.00012708 0.000453199 0.00401513)
(-0.00161239 0.00135989 0.00372467)
(-0.00147789 0.00422426 0.0038613)
(-0.000544724 0.00532514 0.00422611)
(0.000568731 0.00592741 0.00480277)
(0.00137228 0.00563276 0.00508328)
(0.0020015 0.00521825 0.00521079)
(0.00237836 0.00435238 0.00512092)
(0.00267267 0.00353095 0.00501449)
(0.0027591 0.00267221 0.0049041)
(0.00286924 0.00200039 0.00483568)
(0.00288506 0.001377 0.004793)
(0.00285897 0.000916957 0.00478816)
(0.0028047 0.000569825 0.0048078)
(0.00272849 0.000343706 0.00484344)
(0.0026367 0.000198699 0.00489)
(0.00253115 0.00012328 0.00494989)
(0.00241712 8.92763e-05 0.00501673)
(0.00229738 7.84029e-05 0.00508572)
(0.00217542 7.42554e-05 0.00515749)
(0.00205424 6.54016e-05 0.00523031)
(0.00193503 4.35484e-05 0.00530281)
(0.00182383 8.92821e-06 0.00537585)
(0.00171701 -2.14927e-05 0.00544243)
(0.00160516 -5.26908e-05 0.00550527)
(0.00150278 -8.06648e-05 0.00556983)
(0.00140651 -0.000140582 0.00563197)
(0.00132859 -0.000192035 0.00569309)
(0.00125807 -0.000302773 0.00574892)
(0.00122345 -0.000361124 0.00580457)
(0.00119706 -0.000529919 0.00584961)
(0.00121763 -0.000538397 0.00589993)
(0.00124816 -0.000849027 0.00594819)
(0.00131894 -0.000745415 0.0059686)
(0.00151303 -0.0014389 0.00606239)
(0.00168372 -0.00110651 0.00600356)
(0.00218984 -0.00253931 0.00611872)
(0.00221569 -0.0014823 0.00578321)
(0.00270535 -0.00395883 0.00561987)
(0.00187768 -0.000547639 0.00454474)
(0.00209107 -0.00410749 0.00330704)
(0.00199529 0.00437031 0.00306486)
(0.00263344 -0.00177784 0.00355891)
(0.00523936 0.0088157 0.00594875)
(0.00354766 -0.0143041 0.0053591)
(0.00296678 0.0045744 0.000852869)
(0.0126988 -0.0248583 0.0043986)
(0.0452502 -0.00299565 0.0138175)
(0.0545027 -0.0458184 0.0189967)
(0.0115836 -0.00584149 0.0373929)
(-0.0640157 -0.0909813 0.00242764)
(0.015483 0.167814 -0.194048)
(0.0884777 -0.0495354 -0.0232515)
(0.0862383 0.492197 -0.0203114)
(0.0184695 0.62899 -0.0097887)
(0.00410465 0.565486 -0.0104063)
(-0.0280359 0.603027 -0.00492515)
(-0.0293263 0.596191 -0.00855133)
(-0.023996 0.605943 -0.0110748)
(-0.00974726 0.62213 -0.0107711)
(-0.00178159 0.627602 -0.010152)
(0.0111821 0.637737 -0.00809504)
(0.0181593 0.655171 -0.00663808)
(0.0269511 0.648825 -0.00501089)
(0.0336723 0.636104 -0.0031742)
(0.039513 0.636931 -0.00151545)
(0.043368 0.628266 -0.000177814)
(0.0474099 0.606759 0.00111669)
(0.049712 0.553911 0.00177046)
(0.0512216 0.471 0.00210791)
(0.0526774 0.358605 0.00243284)
(0.0543221 0.11754 0.00302927)
(0.0543089 0.0782179 0.00309908)
(0.0547823 0.0573507 0.00425409)
(0.0558387 0.0335363 0.00535108)
(0.0567095 0.00571746 0.00574645)
(0.0576683 -0.0238171 0.00678375)
(0.0563921 -0.0560253 0.00544826)
(0.0518444 -0.0840455 -0.000700284)
(0.0430093 -0.104513 -0.00784227)
(0.0346362 -0.112576 -0.0136223)
(0.023113 -0.108594 -0.0148693)
(0.00264387 -0.109547 -0.00852516)
(-0.033015 -0.127867 -0.00460756)
(-0.0635826 -0.121357 -0.00502126)
(-0.0831042 -0.102579 0.00219456)
(-0.100281 -0.0874929 -0.000792801)
(-0.102741 -0.0483079 -0.00567849)
(-0.0861171 -0.00734696 0.00259845)
(0.0257234 0.0197778 0.00444884)
(0.0289092 0.015052 0.00529789)
(0.017069 0.00963201 0.00256531)
(0.0163962 0.0109755 0.00301962)
(0.0083408 0.00480519 0.0040814)
(0.00569277 0.00496776 0.0040767)
(0.00107255 0.000369987 0.00491697)
(-0.00110194 0.000609293 0.0043713)
(-0.00375405 9.6591e-05 0.0042028)
(-0.00356222 0.00280383 0.00423129)
(-0.00224068 0.00366829 0.00455495)
(-0.000928044 0.00466073 0.0052351)
(-4.344e-05 0.00495013 0.00551491)
(0.000676917 0.00504128 0.00563437)
(0.00109989 0.00450716 0.00550185)
(0.00139815 0.00388051 0.00537607)
(0.00144039 0.00312279 0.0052768)
(0.00152551 0.00253843 0.00522641)
(0.00153025 0.00195051 0.00518587)
(0.00148695 0.00146112 0.0051604)
(0.00140412 0.00104398 0.00515632)
(0.00128798 0.000729257 0.00516942)
(0.00114962 0.000485285 0.00519554)
(0.000999588 0.000317608 0.00523622)
(0.000851004 0.000208917 0.00528941)
(0.000710401 0.000144212 0.00534942)
(0.000577041 0.000107737 0.00541294)
(0.000454395 8.92477e-05 0.00547528)
(0.000344912 7.92085e-05 0.00553242)
(0.000245055 6.93679e-05 0.00558125)
(0.000146272 6.65836e-05 0.00562401)
(5.02715e-05 5.9401e-05 0.00566941)
(-2.30773e-05 5.49149e-05 0.0057227)
(-8.94387e-05 2.18734e-05 0.00577528)
(-0.000131443 4.10049e-06 0.00582612)
(-0.000172008 -6.91034e-05 0.00586213)
(-0.000169687 -7.80343e-05 0.00589151)
(-0.000164348 -0.000206926 0.00588864)
(-8.14306e-05 -0.000159904 0.00590658)
(9.03874e-06 -0.000453105 0.00589397)
(0.000176453 -0.00028058 0.005911)
(0.000436101 -0.000943139 0.00592295)
(0.000767755 -0.000338535 0.00588884)
(0.00124738 -0.00156154 0.0058176)
(0.0017081 0.000208511 0.00558461)
(0.0020891 -0.00194162 0.00509764)
(0.0022725 0.00159212 0.00426747)
(0.00184378 -0.00302552 0.00327573)
(0.00244666 0.00183851 0.00281814)
(0.00192982 -0.00579391 0.00259959)
(0.00466772 0.00425316 0.00585186)
(0.00286162 -0.0124033 0.00580834)
(0.00251371 0.00545384 0.0048278)
(0.0177021 -0.0285944 0.0143775)
(0.0479701 0.00934074 0.0341126)
(0.0343785 -0.0101962 0.0325921)
(-0.0180152 0.0456589 0.0599794)
(-0.0688646 -0.0952127 0.0559247)
(0.0412825 0.0697881 -0.185578)
(0.0559603 0.00823691 -0.0171392)
(0.0692011 0.532484 -0.0301433)
(0.00684036 0.63382 -0.0190776)
(0.00377534 0.595956 -0.0195967)
(-0.0207357 0.637127 -0.0102466)
(-0.0177569 0.642722 -0.0112379)
(-0.0112866 0.632183 -0.00890466)
(-0.00460282 0.622366 -0.00828678)
(0.00338761 0.646261 -0.00656155)
(0.0135878 0.625418 -0.00479502)
(0.020906 0.673498 -0.00336767)
(0.0291842 0.666009 -0.00184866)
(0.0360318 0.654708 -0.000362253)
(0.041096 0.648594 0.000727166)
(0.0486587 0.650288 0.00197764)
(0.0527114 0.657646 0.00277219)
(0.0577768 0.642719 0.00376663)
(0.061211 0.637385 0.00466056)
(0.0637267 0.619434 0.0050052)
(0.0673071 0.610255 0.00545273)
(0.0687711 0.589955 0.0065979)
(0.0706467 0.575811 0.00798387)
(0.0712504 0.518055 0.00931492)
(0.0728246 0.369371 0.0104686)
(0.0773972 0.0511631 0.0124752)
(0.0746731 0.000602312 0.0116932)
(0.0671325 -0.0261281 0.00675547)
(0.0565486 -0.0438683 -0.00111014)
(0.0460823 -0.0467252 -0.00476619)
(0.0341824 -0.0409176 -0.000979619)
(0.012395 -0.0394485 0.00605804)
(-0.0269934 -0.0565835 0.00507874)
(-0.0684096 -0.0639137 0.00024831)
(-0.101941 -0.0600226 0.00129175)
(-0.125366 -0.0509909 -0.0034432)
(-0.124866 -0.026574 -0.00628303)
(-0.110053 0.000536141 0.00291543)
(0.0257637 0.0202582 0.00421638)
(0.0300515 0.0178289 0.00468306)
(0.0183601 0.0114603 0.000508901)
(0.0191068 0.0141856 0.00073584)
(0.0102868 0.00693306 0.00215238)
(0.00764725 0.00702597 0.00261038)
(0.00151466 0.000682282 0.00388672)
(-0.00158037 0.00107487 0.00371966)
(-0.00540997 -0.00117499 0.00411214)
(-0.00580226 0.00135753 0.0042632)
(-0.0044544 0.00219188 0.00445501)
(-0.00344811 0.00349876 0.00515915)
(-0.00252058 0.00424948 0.00546866)
(-0.00161599 0.00470493 0.00562936)
(-0.000973601 0.00445136 0.00548175)
(-0.000652986 0.0039121 0.00535103)
(-0.000748695 0.00320947 0.0052605)
(-0.000806531 0.0026876 0.00523409)
(-0.000910464 0.00216211 0.00519526)
(-0.00102316 0.00170846 0.0051484)
(-0.00116186 0.00127817 0.00510655)
(-0.0012999 0.000918611 0.00508086)
(-0.00143964 0.000620627 0.00507136)
(-0.00158758 0.000394751 0.00507735)
(-0.00173521 0.000231835 0.00509392)
(-0.00186763 0.000124717 0.00512017)
(-0.00198562 6.14876e-05 0.00515256)
(-0.00208329 3.27037e-05 0.00518542)
(-0.00215873 2.28857e-05 0.00520852)
(-0.00222245 2.44555e-05 0.00521216)
(-0.00228554 4.04222e-05 0.00520867)
(-0.00235005 5.28669e-05 0.00520847)
(-0.00239836 6.83827e-05 0.00521361)
(-0.00244172 6.17197e-05 0.00522018)
(-0.00245915 8.00255e-05 0.00522606)
(-0.00247443 5.6959e-05 0.0052185)
(-0.00243138 0.000103273 0.0052042)
(-0.00239749 1.48927e-05 0.00515499)
(-0.0022568 0.000131017 0.00513141)
(-0.0021621 -0.000127978 0.00504854)
(-0.00189544 0.000169491 0.00504694)
(-0.00171993 -0.000346341 0.00493067)
(-0.00126239 0.000548793 0.00486705)
(-0.000959098 -0.000183473 0.00462667)
(-0.00022429 0.00184439 0.0043717)
(0.000280527 0.000334924 0.00403439)
(0.00171894 0.00330468 0.00389194)
(0.0026958 -0.00184862 0.00360919)
(0.00320604 -0.000172536 0.00328084)
(0.00148294 -0.00809561 0.00236808)
(0.0015966 0.0010578 0.00359956)
(0.00134071 -0.0100131 0.00287367)
(0.000549816 0.0014901 0.00810699)
(0.00122206 -0.0272871 0.0227842)
(0.00216809 0.0345968 0.0382237)
(0.00101418 0.032733 0.0394289)
(0.000774431 0.0758779 0.0591411)
(-0.023358 -0.086529 0.0760419)
(0.0243002 -0.0105742 -0.184382)
(0.031446 0.0502869 -0.00665012)
(0.0437926 0.544422 -0.0284542)
(0.00563772 0.656776 -0.0178662)
(0.00288579 0.641636 -0.0154193)
(-0.00798328 0.672914 -0.00841344)
(-0.00723348 0.674001 -0.00420169)
(-0.00235822 0.681921 -0.00331114)
(0.00377741 0.692537 -0.00156684)
(0.0113635 0.678121 -0.000804838)
(0.019479 0.638246 -0.000532994)
(0.0265108 0.675976 -0.00100037)
(0.0303985 0.658677 -0.0008185)
(0.0374597 0.662159 0.000110867)
(0.0420074 0.662693 0.000896057)
(0.0492704 0.657149 0.0012876)
(0.0579216 0.65867 0.00174658)
(0.0624377 0.66452 0.00214441)
(0.0668889 0.586562 0.00285689)
(0.0727538 0.307961 0.00338998)
(0.0788268 0.505474 0.0040592)
(0.0828649 0.643863 0.00610031)
(0.0870283 0.617058 0.00858259)
(0.0875363 0.572236 0.0101202)
(0.0874166 0.568938 0.0110037)
(0.0861248 0.555946 0.0113891)
(0.0786784 0.488808 0.010331)
(0.0688726 0.34771 0.00722467)
(0.065359 0.0206982 0.00726731)
(0.0516656 -0.0109396 0.00389576)
(0.0382034 -0.00835143 0.00600626)
(0.0164407 -0.00536737 0.0096621)
(-0.0207533 -0.0127205 0.00681255)
(-0.0643674 -0.0208714 0.00311627)
(-0.101735 -0.0275801 0.00362207)
(-0.126557 -0.0308534 -0.00486847)
(-0.136293 -0.0129029 -0.0114526)
(-0.128215 0.00701288 0.00359043)
(0.0242502 0.0205977 0.00595396)
(0.0304663 0.0212193 0.00425406)
(0.0195224 0.0145805 -0.000557607)
(0.0222102 0.0178729 -0.000938214)
(0.0135143 0.00932387 -0.00146118)
(0.0109843 0.00950566 -0.000212226)
(0.00316384 0.00135058 0.00102685)
(-0.00110345 0.00197409 0.0016755)
(-0.00583808 -0.00180554 0.00284804)
(-0.00773858 -3.40037e-05 0.00333074)
(-0.00612588 0.000343665 0.003511)
(-0.00478755 0.00193778 0.00441888)
(-0.00353692 0.00326162 0.00493723)
(-0.00232537 0.00403202 0.00543638)
(-0.00142556 0.00393936 0.00552121)
(-0.00101661 0.00347585 0.00554319)
(-0.00126777 0.00281268 0.00544368)
(-0.00147663 0.00239069 0.00541683)
(-0.00169316 0.00202357 0.00535127)
(-0.001885 0.00172889 0.0052564)
(-0.00208465 0.00142314 0.00514412)
(-0.00227409 0.00114631 0.00503534)
(-0.00246474 0.000890146 0.00493483)
(-0.00264002 0.00067441 0.0048485)
(-0.00279077 0.00050869 0.004774)
(-0.00290878 0.000399356 0.00470906)
(-0.00300423 0.000337062 0.00465236)
(-0.0030681 0.00031266 0.00459747)
(-0.00310814 0.00031233 0.00453548)
(-0.00314683 0.000314771 0.00446618)
(-0.0031825 0.000321652 0.00440594)
(-0.00321264 0.000326307 0.00436028)
(-0.0032195 0.000344338 0.00432718)
(-0.00322408 0.000354991 0.00429984)
(-0.00320705 0.000403693 0.00427369)
(-0.00318554 0.000428099 0.00423736)
(-0.00309847 0.000517504 0.00419646)
(-0.00301911 0.000484073 0.00413222)
(-0.00280381 0.000625418 0.00408777)
(-0.00266963 0.000422895 0.00400452)
(-0.00232529 0.000765515 0.00397449)
(-0.0021858 0.00040775 0.00385073)
(-0.00173479 0.00138781 0.00375166)
(-0.00146926 0.00090835 0.00355243)
(-0.00076053 0.00277446 0.00337094)
(0.000117558 0.00119985 0.00340789)
(0.00190788 0.00360973 0.00422717)
(0.0039967 -0.00204404 0.00489434)
(0.00404378 -0.000213098 0.00566634)
(0.00200478 -0.00802397 0.00444156)
(-0.00159003 0.00130794 0.00331841)
(0.00306405 -0.00815712 0.0012956)
(0.00131635 0.00406572 0.00540245)
(-0.0135727 -0.0267243 0.0135643)
(-0.0345829 0.00753497 0.0335958)
(-0.0248567 -0.0245708 0.0342032)
(0.0169207 0.0251334 0.060936)
(0.0485762 -0.0755912 0.0798824)
(0.00656678 -0.0293108 -0.189302)
(-0.00194686 0.053369 -0.0034709)
(-0.00358719 0.555183 -0.0249731)
(-0.00875226 0.666927 -0.0158006)
(-0.00921866 0.65794 -0.0105626)
(-0.00665161 0.683756 -0.00244221)
(0.00111506 0.68136 0.00271144)
(0.00548467 0.675562 0.00354932)
(0.0109083 0.592675 0.00520371)
(0.0142084 0.335553 0.00525736)
(0.0219114 0.593233 0.00404941)
(0.0276325 0.503013 0.00412438)
(0.0348099 0.667564 0.00331509)
(0.0380298 0.632356 0.00245782)
(0.0442119 0.649782 0.00214879)
(0.051379 0.602345 0.00178934)
(0.0580723 0.563676 0.00143339)
(0.0648363 0.648067 0.00193387)
(0.0695139 0.643141 0.0033744)
(0.0759689 0.649706 0.00508531)
(0.0844711 0.623511 0.00629625)
(0.0908201 0.634226 0.00921612)
(0.0953305 0.619634 0.0110863)
(0.100259 0.624831 0.014036)
(0.102745 0.649424 0.0157568)
(0.101726 0.588978 0.0176933)
(0.0935736 0.562652 0.0174379)
(0.0756227 0.547439 0.014497)
(0.0552873 0.503422 0.0115643)
(0.0357351 0.349167 0.0103782)
(0.0283926 0.0435579 0.013615)
(0.00529383 0.019841 0.0163727)
(-0.0276809 0.0157546 0.0161445)
(-0.0666426 0.00882132 0.0138981)
(-0.104192 -0.000635043 0.00583702)
(-0.131998 -0.0037947 -0.00976085)
(-0.137063 0.011205 -0.0108124)
(-0.127022 0.00883129 0.00612492)
(0.0214622 0.0203035 0.00510906)
(0.0306226 0.0254883 0.00487393)
(0.0201908 0.0173793 0.000472854)
(0.0243992 0.0207941 0.000127334)
(0.0170302 0.0108233 -0.00337685)
(0.0149303 0.0110647 -0.00158337)
(0.00581558 0.00144749 -0.00168145)
(0.000455833 0.00299375 -0.000588146)
(-0.00490085 -0.000979435 0.00106742)
(-0.00817424 -2.02723e-05 0.00173037)
(-0.00766427 -0.000859614 0.00198745)
(-0.00764926 0.000822948 0.00321886)
(-0.00651224 0.00200125 0.00415512)
(-0.00470934 0.00290378 0.00529437)
(-0.00351588 0.00296957 0.00588243)
(-0.00310382 0.00274015 0.00626986)
(-0.00361716 0.00218959 0.00623353)
(-0.00418117 0.00189008 0.00614498)
(-0.00463431 0.00168333 0.00597948)
(-0.00491211 0.00158658 0.00577074)
(-0.00512379 0.00148803 0.00554806)
(-0.00527367 0.00140598 0.00533959)
(-0.00539277 0.00130943 0.00514941)
(-0.00550613 0.00121848 0.00499676)
(-0.00561898 0.00114901 0.00488577)
(-0.00569509 0.00110122 0.00478237)
(-0.00573802 0.00106995 0.0046819)
(-0.00574128 0.00106549 0.00459183)
(-0.00569649 0.00107217 0.00452343)
(-0.00563297 0.00106612 0.00447103)
(-0.00558595 0.00105638 0.00443367)
(-0.00555369 0.00104679 0.00441069)
(-0.0055176 0.00105552 0.00439939)
(-0.00548849 0.00107488 0.00439587)
(-0.00543968 0.00114019 0.00440478)
(-0.00537008 0.0011998 0.00440306)
(-0.00524155 0.00129902 0.0043882)
(-0.00507986 0.0013154 0.00436376)
(-0.00483284 0.00145275 0.00433707)
(-0.0046123 0.00132684 0.00430619)
(-0.00436778 0.00166206 0.00427643)
(-0.00419677 0.00137279 0.00423112)
(-0.00400366 0.00225226 0.00417693)
(-0.00358609 0.0015663 0.00414021)
(-0.00301354 0.00306913 0.00412613)
(-0.00175923 0.000640434 0.00416155)
(0.00016082 0.00266478 0.00537521)
(0.00229468 -0.00358294 0.00628483)
(0.0014329 -0.000676113 0.00773836)
(-0.000456336 -0.00906027 0.0068172)
(-0.00457953 0.00139119 0.00416658)
(0.00291833 -0.0126193 0.00108174)
(0.00157923 0.011314 0.00595681)
(-0.00204278 -0.0248744 0.00838929)
(-0.0328816 -0.00825128 0.021232)
(-0.0366204 -0.0507282 0.0374567)
(-0.0143774 -0.0251723 0.0601637)
(0.071894 -0.0809163 0.0764167)
(0.000206914 -0.0264691 -0.177908)
(-0.0300225 0.0488651 -0.00354335)
(-0.0518971 0.548579 -0.0208408)
(-0.0278957 0.644788 -0.0103843)
(-0.024695 0.560435 -0.00384355)
(-0.0116326 0.652784 0.0053839)
(-0.000116839 0.642098 0.00987079)
(0.00932695 0.639993 0.0111709)
(0.0147336 0.626511 0.0125987)
(0.0211361 0.587079 0.0122778)
(0.0248746 0.632204 0.0119532)
(0.0312191 0.607706 0.0102431)
(0.0363059 0.611621 0.0080351)
(0.0396318 0.603242 0.0056668)
(0.0455735 0.597262 0.00284468)
(0.0501818 0.596564 0.000858885)
(0.0552803 0.605085 -0.00121907)
(0.0603875 0.594174 -0.0020042)
(0.0692897 0.573481 0.00160025)
(0.0766804 0.626595 0.00495208)
(0.0836636 0.633929 0.00763939)
(0.0900519 0.641958 0.0123164)
(0.0961751 0.642649 0.0146669)
(0.10249 0.654938 0.0164638)
(0.107656 0.643927 0.0196994)
(0.107383 0.636114 0.022379)
(0.102609 0.626077 0.0237035)
(0.0918725 0.607376 0.0201378)
(0.0713433 0.58563 0.0160682)
(0.0396886 0.560341 0.0129536)
(0.00902772 0.533482 0.0121834)
(-0.0249174 0.53601 0.0109675)
(-0.0551273 0.491991 0.00654538)
(-0.0878974 0.479602 -0.00171731)
(-0.11105 0.465972 -0.00945231)
(-0.122007 0.45608 -0.0108768)
(-0.120164 0.447771 -0.000937948)
(-0.116798 0.441485 0.0116482)
(0.0213347 0.0176939 0.00400349)
(0.0298619 0.0297719 0.00553193)
(0.0199278 0.0200082 0.00114011)
(0.0252638 0.0243121 0.00184732)
(0.0198444 0.0118921 -0.00331673)
(0.0185552 0.0122843 -0.00136853)
(0.00755069 0.00131232 -0.00420864)
(-0.000319471 0.00353278 -0.00354546)
(-0.0046721 0.000347781 -0.000797952)
(-0.007427 0.00110546 0.000531253)
(-0.00735804 -0.000986453 0.00120178)
(-0.00764098 -0.000331707 0.00272431)
(-0.00606511 -0.000319309 0.00428759)
(-0.0042044 0.000181963 0.00588942)
(-0.00312406 0.00039285 0.00690022)
(-0.00274498 0.000853832 0.00780773)
(-0.00320183 0.0011303 0.00816891)
(-0.0037748 0.00140251 0.00824964)
(-0.0042534 0.00163411 0.00812387)
(-0.00458177 0.0018454 0.00788257)
(-0.00483399 0.00194288 0.00759218)
(-0.0050046 0.00199187 0.00731459)
(-0.00513161 0.00198995 0.00705863)
(-0.00523567 0.00196667 0.00683451)
(-0.00532065 0.00192991 0.00664638)
(-0.00536238 0.00189886 0.00649568)
(-0.00537531 0.00187636 0.00635939)
(-0.00534854 0.00185452 0.00624384)
(-0.00527745 0.00181814 0.00614764)
(-0.00518654 0.00176956 0.00607707)
(-0.00511169 0.00173529 0.00603332)
(-0.00504733 0.00172461 0.00600942)
(-0.00498406 0.00174258 0.00599644)
(-0.00494088 0.00177852 0.0059802)
(-0.00488834 0.0018614 0.00595862)
(-0.00480456 0.00193797 0.00591998)
(-0.00466284 0.00203294 0.00587235)
(-0.00448103 0.00205584 0.00581834)
(-0.00423325 0.0021769 0.00576537)
(-0.00397314 0.00205625 0.00571788)
(-0.00374428 0.00234776 0.00568807)
(-0.00347189 0.00200118 0.00564659)
(-0.00331469 0.00276724 0.00565639)
(-0.0027005 0.00170062 0.00564818)
(-0.00208853 0.0029961 0.0058573)
(-0.000646985 -0.000341026 0.00599757)
(0.00133084 0.00123366 0.00747324)
(0.00339156 -0.00509249 0.00866796)
(0.00232834 -0.00154086 0.0106703)
(-0.000455461 -0.00963541 0.0093356)
(-0.00591198 0.00207911 0.00433518)
(-0.00237387 -0.0095746 0.00277822)
(-0.00203523 0.0213156 0.00770458)
(0.00682837 -0.0185116 0.0148882)
(-0.0305833 0.00910156 0.0182886)
(-0.0255858 -0.0510159 0.0377854)
(-0.017257 -0.0266895 0.0503585)
(0.0984622 -0.0945135 0.0732453)
(-0.0314008 0.0132785 -0.157206)
(-0.0621598 0.0344727 -0.000503625)
(-0.096361 0.538014 -0.0151603)
(-0.0414731 0.629602 -0.00454831)
(-0.0365652 0.605087 0.00316738)
(-0.0116279 0.628038 0.0104272)
(0.00205255 0.607693 0.0134868)
(0.0143004 0.60126 0.0116097)
(0.016825 0.587577 0.0135876)
(0.0248441 0.578149 0.0133143)
(0.0256267 0.568888 0.0158538)
(0.0316386 0.559658 0.0167418)
(0.0347113 0.546223 0.0168019)
(0.0385363 0.535478 0.0148991)
(0.0414776 0.526031 0.0113454)
(0.0443977 0.516741 0.00638046)
(0.0466301 0.492477 0.00103764)
(0.0483737 0.457925 -0.00112472)
(0.0558877 0.540474 -0.00197716)
(0.0603332 0.582368 7.98276e-05)
(0.0659596 0.569565 0.00429831)
(0.0788304 0.58193 0.014125)
(0.0870957 0.5651 0.0186932)
(0.0928392 0.508658 0.0220679)
(0.0999005 0.620681 0.0266432)
(0.101468 0.61896 0.029392)
(0.101971 0.643678 0.0300812)
(0.0957137 0.659372 0.0285745)
(0.0714362 0.610781 0.0224309)
(0.0492299 0.551238 0.018831)
(0.0254112 0.506588 0.0170703)
(-0.0083239 0.58454 0.0135563)
(-0.0459442 0.567943 0.00717367)
(-0.0711483 0.558701 0.000995541)
(-0.091786 0.548488 -0.00473712)
(-0.102967 0.530172 -0.00871419)
(-0.106637 0.532125 -0.0165143)
(-0.110678 0.487545 -0.0215614)
(0.00943288 0.0166345 -0.00589725)
(0.0282745 0.0314082 0.00479076)
(0.018339 0.02211 0.00137379)
(0.0250578 0.0286168 0.00274425)
(0.0221755 0.0138701 -0.00173261)
(0.0221766 0.0141023 0.000295187)
(0.0107745 0.00154676 -0.00607262)
(0.00183384 0.00343237 -0.00886303)
(-0.00439262 0.00034415 -0.00636983)
(-0.00602886 0.00184185 -0.00410453)
(-0.00674777 -0.00117453 -0.00262046)
(-0.0080196 -0.00122986 -0.00105642)
(-0.00797601 -0.00248641 0.000508201)
(-0.00707266 -0.00201915 0.00199421)
(-0.00682251 -0.0014172 0.00316975)
(-0.00708822 -0.000389885 0.00421791)
(-0.00778751 0.0004355 0.00500785)
(-0.00845363 0.00110288 0.00545641)
(-0.00897474 0.00158245 0.00557628)
(-0.00911372 0.00192669 0.00551663)
(-0.0091241 0.00212469 0.00537985)
(-0.00908772 0.00225945 0.00522528)
(-0.00902557 0.0023228 0.00507575)
(-0.00895998 0.002347 0.00493267)
(-0.00888969 0.00234231 0.00480094)
(-0.00880161 0.00232363 0.00468423)
(-0.00869819 0.00230036 0.00457685)
(-0.00856571 0.00227385 0.00447914)
(-0.00839731 0.00223983 0.00438625)
(-0.00826 0.00220074 0.00430429)
(-0.00819183 0.00217671 0.00424429)
(-0.00813702 0.00217241 0.00420417)
(-0.00808222 0.00219216 0.00417919)
(-0.00803665 0.00223051 0.00415588)
(-0.00796084 0.00230824 0.00412462)
(-0.00782806 0.0023753 0.00407637)
(-0.0076391 0.00245704 0.00400927)
(-0.00740531 0.00247683 0.00393024)
(-0.00714407 0.00259038 0.0038453)
(-0.00682342 0.00252432 0.00377666)
(-0.00671187 0.00284451 0.00372459)
(-0.00644046 0.00248401 0.00367653)
(-0.00639773 0.0031887 0.00372572)
(-0.00567561 0.00185728 0.00370885)
(-0.00485614 0.0029477 0.0040207)
(-0.0032256 -0.00088588 0.00398613)
(-0.00108786 0.000537322 0.00544836)
(0.000264874 -0.00556254 0.00596317)
(-0.00119003 -0.00124934 0.00844024)
(-0.00471592 -0.00978307 0.00597325)
(-0.00983349 0.00211082 0.00120066)
(-0.0121611 -0.00573331 0.000354428)
(-0.00667035 0.0230047 0.00354833)
(-0.00567102 -0.00444675 0.0133023)
(-0.0193091 0.0538811 0.0164796)
(-0.00830375 -0.0520418 0.0222659)
(-0.0251677 0.0248601 0.0376789)
(0.10569 -0.122169 0.0547817)
(-0.0579444 0.0938174 -0.155242)
(-0.101289 -0.0337928 -0.0146993)
(-0.128083 0.486798 -0.0101992)
(-0.0378134 0.631715 -0.00118618)
(-0.0374314 0.566792 0.00367054)
(0.00243406 0.581929 0.00809001)
(0.00339047 0.491338 0.0072808)
(0.0207369 0.509317 0.00236151)
(0.0169552 0.473782 -0.000323886)
(0.0214548 0.480229 -0.00103513)
(0.0244087 0.519488 0.00112711)
(0.0290289 0.489934 0.00500698)
(0.0324289 0.402302 0.00813156)
(0.0375196 0.418181 0.01195)
(0.0394347 0.328819 0.0127981)
(0.0437891 0.499347 0.0118814)
(0.0447804 0.460191 0.00936599)