/*--------------------------------*- C++ -*----------------------------------*\
| =========                 |                                                 |
| \\      /  F ield         | OpenFOAM: The Open Source CFD Toolbox           |
|  \\    /   O peration     | Version:  2.3.0                                 |
|   \\  /    A nd           | Web:      www.OpenFOAM.org                      |
|    \\/     M anipulation  |                                                 |
\*---------------------------------------------------------------------------*/
FoamFile
{
    version     2.0;
    format      ascii;
    class       volVectorField;
    location    "35";
    object      U.water;
}
// * * * * * * * * * * * * * * * * * * * * * * * * * * * * * * * * * * * * * //

dimensions      [0 1 -1 0 0 0 0];

internalField   nonuniform List<vector> 
6144
(
(0.0114271 0.0197861 0.000667811)
(0.0125048 -0.00623469 -0.000869144)
(0.00396381 -0.00861182 -0.00254907)
(0.0029278 -0.00657026 -0.00245736)
(0.00198082 -0.00438958 -0.00217114)
(0.00294284 -0.00125944 -0.00198508)
(0.00306841 -0.000901408 -0.00159331)
(0.00284574 -0.000115229 -0.00108571)
(0.00218352 -0.00044801 -0.000703174)
(0.00167684 0.000862697 -0.000239489)
(0.00130106 0.00205119 0.000278198)
(0.00125995 0.00315973 0.000943001)
(0.00139746 0.00337532 0.00131712)
(0.00154977 0.00292063 0.0017411)
(0.00164926 0.00205126 0.00175106)
(0.0017608 0.00116787 0.00163535)
(0.0018335 0.000299413 0.00136137)
(0.00191134 -0.000363537 0.00108848)
(0.00197719 -0.000878748 0.000801854)
(0.0020262 -0.00115302 0.000544411)
(0.00206864 -0.00126917 0.000330317)
(0.00209127 -0.00126519 0.000211695)
(0.00209256 -0.00119258 0.000166524)
(0.00207572 -0.00107748 0.000174027)
(0.00204286 -0.000944191 0.000226866)
(0.00199632 -0.000809472 0.000331698)
(0.00193885 -0.000682821 0.00047323)
(0.00188161 -0.000575375 0.000625245)
(0.00182328 -0.000505673 0.000783245)
(0.00176451 -0.000482585 0.000939351)
(0.00170259 -0.000497849 0.00108016)
(0.00163614 -0.000526753 0.00120535)
(0.00156706 -0.000552934 0.00133265)
(0.00149948 -0.000586649 0.00147932)
(0.00144091 -0.000658773 0.00165258)
(0.00139857 -0.000822029 0.00183924)
(0.00138431 -0.00110327 0.00199243)
(0.00140533 -0.00149613 0.00206234)
(0.0014722 -0.00195633 0.00201003)
(0.00160655 -0.00248616 0.00181907)
(0.00181295 -0.00299669 0.00143009)
(0.00211705 -0.00352363 0.000783598)
(0.00252939 -0.00381786 0.00018208)
(0.0033908 -0.00457797 -0.000219727)
(0.00421252 -0.00641709 -0.000293079)
(0.00394637 -0.00835376 -0.00143807)
(0.00368746 -0.00550675 -0.00300881)
(0.00730824 -0.00320832 -0.00475398)
(0.00317052 0.00283755 -0.00546878)
(-0.00944496 0.0326724 -0.00577052)
(-0.00867564 0.0595252 -0.00649871)
(0.0123961 0.0603941 -0.00760333)
(0.0409979 0.027414 -0.0116675)
(0.0447088 -0.0332223 -0.0111581)
(0.0421596 -0.0420868 -0.0225048)
(0.0252913 -0.0802231 -0.0174943)
(0.00359694 -0.0355201 -0.0406397)
(0.0322337 -0.0151309 0.0110894)
(-0.0320766 -0.0817156 -0.0247623)
(0.0235226 0.0395881 0.0439546)
(0.204561 -0.337539 0.0393758)
(0.135034 -0.20847 0.0217563)
(0.0899735 -0.253105 0.00558777)
(0.0707114 -0.277205 0.00936123)
(0.0634726 -0.271408 0.0121272)
(0.0552651 -0.263903 0.0164427)
(0.0482142 -0.267992 0.0195306)
(0.0449108 -0.266188 0.0189395)
(0.0399267 -0.267693 0.0161748)
(0.0345776 -0.263302 0.012643)
(0.0289259 -0.259177 0.00630644)
(0.0212375 -0.253042 0.00829685)
(0.0184656 -0.243509 0.00902593)
(0.0108352 -0.237054 0.0124708)
(0.0041547 -0.218694 0.01832)
(-0.000214162 -0.19175 0.0186203)
(-0.00403539 -0.166221 0.0200795)
(-0.0045126 -0.149028 0.0214179)
(-0.00633684 -0.143096 0.020756)
(-0.0149028 -0.138724 0.0195321)
(-0.0244761 -0.121843 0.0124353)
(-0.0144398 -0.0862735 -0.000919939)
(-0.00258131 -0.0475732 -0.00578612)
(0.00541112 -0.02535 -0.00610415)
(0.00861164 -0.0130626 -0.00903375)
(0.00641163 -0.0009991 -0.0111797)
(0.00730003 0.0235167 -0.0160493)
(0.0112543 0.0407252 -0.0156969)
(0.014551 0.0449728 -0.00840314)
(0.00955716 0.0510025 -0.00446301)
(0.00611281 0.0442582 0.00609559)
(0.00569452 0.0386643 0.0129353)
(0.00418852 0.0264921 0.0114264)
(0.00455715 0.0169338 0.0129227)
(0.00230095 0.0141846 0.0139767)
(0.0113556 0.00818245 0.0182068)
(0.0210903 0.0180066 0.00394105)
(0.02326 0.00165902 0.00344351)
(0.00919781 -0.0036873 -0.00109111)
(0.00766125 -0.00299226 -0.00100871)
(0.00446988 -0.00415662 -2.93893e-05)
(0.00524588 -0.00161565 0.000903508)
(0.00475771 -0.00167681 0.00186439)
(0.00438056 -0.000193109 0.00235478)
(0.00318048 -0.000164293 0.00252458)
(0.00220161 0.00184551 0.0025237)
(0.00170505 0.00324082 0.00282874)
(0.00188554 0.00430964 0.00353472)
(0.00237405 0.0043821 0.00395438)
(0.00286654 0.00393846 0.00426567)
(0.00309139 0.0030061 0.00432032)
(0.00328917 0.00207682 0.0042989)
(0.00335181 0.00110595 0.00421281)
(0.00342889 0.000346422 0.00413141)
(0.00346941 -0.000299887 0.00405534)
(0.0034793 -0.000714896 0.00399867)
(0.00351171 -0.000950006 0.00390459)
(0.0035168 -0.00104088 0.00385377)
(0.00348366 -0.00104308 0.00385727)
(0.00341813 -0.000983073 0.00390562)
(0.00332469 -0.000887099 0.00399077)
(0.00320989 -0.000775414 0.00410591)
(0.00307722 -0.000662333 0.00424082)
(0.0029589 -0.000566125 0.00433975)
(0.00285671 -0.000513014 0.00443412)
(0.00276058 -0.000501735 0.00452494)
(0.00265623 -0.000520864 0.00460883)
(0.00253932 -0.000550886 0.00469136)
(0.0024165 -0.000588433 0.00478018)
(0.00231177 -0.000649715 0.00487725)
(0.00224696 -0.000751116 0.00497982)
(0.00223646 -0.000904719 0.00508142)
(0.00228104 -0.00110808 0.00516741)
(0.00237688 -0.00136162 0.00522971)
(0.00253674 -0.00163825 0.00526446)
(0.00278839 -0.00194873 0.005263)
(0.00313299 -0.00218627 0.00520264)
(0.00378181 -0.00239298 0.00485028)
(0.00488634 -0.00238771 0.00433254)
(0.00704668 -0.00320473 0.00392976)
(0.00925088 -0.00473677 0.00363039)
(0.00874175 -0.00758369 0.00132053)
(0.00344884 -0.00412169 -0.00387458)
(-0.00178314 0.0132596 -0.00937982)
(-0.0144287 0.0545455 -0.00521442)
(-0.0170191 0.0655322 0.000419898)
(0.00414821 0.0580653 0.00611626)
(0.0556032 -0.00175791 0.00851964)
(0.101928 -0.0296899 -0.00870132)
(0.086941 -0.068436 -0.00480834)
(0.0664077 -0.0733455 -0.00781227)
(0.0536842 -0.117632 -0.00358493)
(0.0173358 -0.0928206 -0.0142122)
(0.0540657 -0.14915 -0.00401685)
(-0.124597 -0.0473974 -0.0773928)
(0.0661954 -0.0197175 -0.00112015)
(0.277761 -0.286774 0.057516)
(0.0951791 0.0264456 0.0467164)
(-0.0134765 -0.123441 -0.0014919)
(-0.00921142 -0.060751 0.0259363)
(-0.0300243 -0.0935322 0.0345365)
(-0.0298105 -0.10063 0.0267446)
(-0.0403507 -0.108705 0.0190472)
(-0.0395596 -0.11185 0.0187951)
(-0.0335944 -0.115201 0.0221072)
(-0.0249501 -0.11392 0.018086)
(-0.0051184 -0.0986931 0.0081578)
(0.011117 -0.0771988 0.016393)
(0.00537574 -0.0750659 0.0304479)
(-0.00857384 -0.0901273 0.0408301)
(-0.0210878 -0.100405 0.0406885)
(-0.0251605 -0.10783 0.0366567)
(-0.0234363 -0.112831 0.0328848)
(-0.0210836 -0.114891 0.0301261)
(-0.022173 -0.116724 0.028676)
(-0.0257423 -0.114479 0.0286091)
(-0.0347754 -0.102239 0.0216564)
(-0.0437919 -0.0818293 0.00600024)
(-0.0357908 -0.0757698 -0.00239917)
(-0.0158362 -0.068809 -0.00252724)
(0.0028063 -0.0611993 -0.00529712)
(0.0117527 -0.0505123 -0.0127012)
(0.0171162 -0.0403917 -0.0167086)
(0.0188956 -0.0269366 -0.0171928)
(0.022867 -0.020399 -0.0152595)
(0.0179639 0.00985658 -0.0170996)
(0.0177915 0.0264282 -0.00667856)
(0.0156243 0.0246117 0.00895016)
(0.0065208 0.0137953 0.0135657)
(0.00475037 -0.00164213 0.0102526)
(-0.00502721 0.00118845 0.0166918)
(-0.00800643 -0.00991613 0.020874)
(0.0239281 0.0171764 0.00489759)
(0.0268184 0.00706496 0.00495702)
(0.014343 0.00038378 0.000932774)
(0.0106522 0.000704358 0.00156709)
(0.00464447 -0.00238249 0.00290155)
(0.00430345 0.000556183 0.00318654)
(0.00295749 -0.000608105 0.00402877)
(0.00242318 0.000947082 0.00414888)
(0.00113296 0.000527517 0.0041374)
(0.000251431 0.00201615 0.00405407)
(-8.74679e-05 0.00275073 0.00411249)
(0.000545803 0.00371871 0.0044805)
(0.00117053 0.00378135 0.00478348)
(0.00181385 0.00374634 0.00501404)
(0.00214646 0.00320579 0.0050226)
(0.00242799 0.00263596 0.00499206)
(0.0025122 0.00190849 0.00492815)
(0.00260706 0.00130942 0.00488466)
(0.00263716 0.000732953 0.00485569)
(0.00260612 0.000266008 0.00485703)
(0.00253547 -0.00010364 0.00488108)
(0.00244513 -0.000340152 0.00492416)
(0.00233804 -0.000485777 0.00497634)
(0.00221516 -0.000553245 0.00503717)
(0.00207882 -0.000572283 0.00510554)
(0.00193431 -0.000562105 0.00517624)
(0.00178394 -0.000546457 0.00524922)
(0.00162703 -0.000535359 0.00532681)
(0.00148331 -0.000529914 0.00540863)
(0.00133732 -0.00052965 0.00548616)
(0.00116998 -0.000529126 0.00556112)
(0.000988092 -0.000535847 0.00564212)
(0.000824214 -0.000553487 0.00573575)
(0.000686432 -0.000578538 0.00583142)
(0.00058298 -0.000600369 0.0059188)
(0.000531287 -0.000595151 0.00598786)
(0.000543801 -0.000545897 0.00603818)
(0.000641469 -0.000452409 0.00607624)
(0.000847438 -0.000301117 0.0061128)
(0.00121281 -0.00011027 0.00614876)
(0.00178849 0.00019251 0.00617718)
(0.00267833 0.000416477 0.00621809)
(0.00445953 0.000604112 0.0062793)
(0.00777657 -0.000341983 0.00598518)
(0.0115431 -0.0019406 0.00553674)
(0.0115655 -0.00551789 0.00294406)
(-0.00282499 -0.00126154 -0.00462959)
(-0.0238162 0.0231354 -0.00992914)
(-0.0296311 0.0530988 -0.00497471)
(-0.0108044 0.0600431 0.00795948)
(0.0385741 0.0294393 0.0190433)
(0.0878538 -0.0327536 0.00922951)
(0.11805 -0.0337894 -0.0153635)
(0.109398 -0.0291354 -0.0125462)
(0.091172 -0.0191627 -0.00891721)
(0.0868738 -0.0772186 0.000874273)
(0.011699 -0.0423499 0.00460004)
(0.0870552 -0.195847 -0.000128957)
(-0.148503 0.0893695 -0.0243232)
(0.126928 -0.195215 -0.0279184)
(0.285444 -0.163448 0.00314666)
(0.0801735 0.161451 0.0311697)
(0.0557462 -0.111902 0.0107481)
(0.0226133 0.0670212 0.0452932)
(0.0120737 -0.075171 0.0481721)
(0.0202335 -0.0165305 0.0199067)
(0.018877 -0.0379007 0.0148582)
(0.0187406 -0.0372364 0.00544016)
(0.00728436 -0.0293583 -0.0114376)
(-0.00886558 -0.0266222 -0.0100932)
(-0.0115857 -0.00703444 -0.000991696)
(0.00245612 0.0171133 0.0204592)
(0.0164582 0.0278022 0.0354557)
(0.0150789 0.0215288 0.0389084)
(4.98581e-05 0.00887281 0.0342354)
(-0.0173321 -0.0184364 0.0276223)
(-0.029175 -0.0395663 0.0232683)
(-0.039913 -0.0529616 0.0125459)
(-0.0463247 -0.0615253 0.012504)
(-0.057518 -0.0694582 0.0139011)
(-0.061665 -0.0637604 0.00975367)
(-0.0560281 -0.0600161 0.00295352)
(-0.0318577 -0.0649737 0.00190163)
(-0.00348704 -0.0641966 0.0103252)
(0.0101524 -0.0571083 0.0153348)
(0.0177221 -0.0506039 0.0101103)
(0.0307824 -0.044753 0.00432347)
(0.033622 -0.036021 0.00600291)
(0.027676 -0.0345572 0.00186192)
(0.0170417 -0.0123432 -0.00906947)
(0.0217078 0.0116044 0.00463755)
(0.0236288 0.0165196 0.0112627)
(0.0148586 0.010817 0.0158577)
(0.00596828 -0.00242541 0.0114306)
(-0.0054272 0.00262823 0.0132306)
(-0.0168308 -0.00716689 0.0202627)
(0.024712 0.0176008 0.00516502)
(0.0283202 0.0115334 0.00505925)
(0.0167269 0.00341344 -5.53716e-05)
(0.0124211 0.00416039 0.000438016)
(0.00478764 -0.000836499 0.00255911)
(0.00359366 0.00190245 0.00319335)
(0.00184823 0.000466021 0.00433289)
(0.00106401 0.0016484 0.00450831)
(-0.000347015 0.000497253 0.00455398)
(-0.0012282 0.00126601 0.00434582)
(-0.00162433 0.00127376 0.00441551)
(-0.00103676 0.00230838 0.00480335)
(-0.000411606 0.00278102 0.0050796)
(0.000305877 0.00320634 0.00527425)
(0.000734514 0.00302733 0.005254)
(0.00106029 0.00274099 0.00524396)
(0.00114387 0.0021849 0.0052123)
(0.00121786 0.00171333 0.00520979)
(0.00122779 0.00122435 0.00520246)
(0.00118317 0.000799784 0.00520645)
(0.00107612 0.000405593 0.00520826)
(0.000942044 9.7202e-05 0.00522493)
(0.00078942 -0.000143454 0.00525415)
(0.000624622 -0.00031144 0.00529525)
(0.000458197 -0.000418319 0.00534666)
(0.000296481 -0.000477517 0.00540605)
(0.000139475 -0.000504935 0.00546861)
(-1.01746e-05 -0.000511983 0.00552946)
(-0.000146177 -0.000506551 0.00558728)
(-0.000281969 -0.00049432 0.00563961)
(-0.00043123 -0.000475477 0.00569602)
(-0.000584535 -0.000444551 0.00576386)
(-0.000720693 -0.000404601 0.00583068)
(-0.000836262 -0.000354805 0.00588771)
(-0.000930524 -0.000279927 0.00592542)
(-0.000988751 -0.00016216 0.00593667)
(-0.000992944 1.42758e-05 0.00592695)
(-0.000935324 0.000267627 0.00591112)
(-0.000800323 0.000675073 0.0058936)
(-0.00053426 0.00130057 0.00583899)
(2.30235e-05 0.00223935 0.00570945)
(0.00124157 0.00328011 0.00542252)
(0.00382213 0.004254 0.0047844)
(0.00895906 0.00475311 0.00346007)
(0.014923 0.00516657 0.00212885)
(0.0140054 0.00723121 -0.000187706)
(-0.00868437 0.0203005 -0.00643133)
(-0.0352215 0.039606 -0.00592777)
(-0.0364878 0.0508915 0.00151549)
(-0.00823837 0.0425806 0.0149393)
(0.0600848 0.00892086 0.020733)
(0.098917 -0.0198242 -0.0114605)
(0.114847 0.0405195 -0.0281671)
(0.107446 0.0973737 -0.0065715)
(0.111691 0.111202 0.000473712)
(0.0931134 0.0721833 0.0254427)
(0.0358345 0.148781 0.0588127)
(0.13166 -0.237306 0.020332)
(-0.20457 0.352369 0.0136665)
(0.0800395 -0.327257 0.017961)
(0.230439 -0.0778273 -0.0112853)
(0.0844368 0.138821 0.00120069)
(0.0828219 0.041375 -0.0213901)
(0.00192336 0.0856718 -0.011607)
(0.00294643 0.0716225 -0.0139609)
(-0.0265587 0.0773597 -0.0114444)
(-0.0208751 0.0991828 -0.0193248)
(-0.0211329 0.121419 -0.015514)
(-0.0146811 0.130316 -0.0218249)
(-0.0131831 0.131481 -0.0229992)
(0.000855721 0.136985 -0.012191)
(0.0172954 0.124496 -0.000965241)
(0.0251901 0.107586 0.00284563)
(0.0233494 0.0935266 0.000515202)
(0.0163347 0.0733064 0.000300751)
(-0.000564963 0.043089 -0.00344799)
(-0.0187526 0.0199934 -0.0044732)
(-0.0179127 0.00310964 0.00213094)
(-0.0256042 -0.0141495 0.00928816)
(-0.0456415 -0.0201572 0.007951)
(-0.0560417 -0.0287464 0.00904608)
(-0.0521737 -0.0353793 0.0108096)
(-0.0331264 -0.047411 0.0145503)
(-0.0187744 -0.0458365 0.0216152)
(-0.00642995 -0.0449963 0.0254409)
(0.0132625 -0.0469187 0.0236479)
(0.0258664 -0.0504474 0.0223653)
(0.0318664 -0.0438828 0.0164439)
(0.0256669 -0.0370962 0.0102401)
(0.00626029 -0.0171384 -0.00500781)
(0.0104668 0.00358635 0.0115966)
(0.00864893 0.00656347 0.0223595)
(0.00047916 0.00699955 0.0176271)
(-0.004445 -0.00785235 0.013519)
(-0.0104974 -0.00206642 0.00923813)
(-0.0249622 -0.00426564 0.0155649)
(0.0244649 0.0186409 0.00493572)
(0.0290466 0.0163743 0.00500908)
(0.0190746 0.00698172 -3.43301e-05)
(0.0162817 0.00741114 -0.000556029)
(0.00619051 -0.000860613 -0.000454944)
(0.00298591 0.00181292 0.00104003)
(0.00036896 -0.000158188 0.0033627)
(-8.71832e-05 0.0017943 0.00400668)
(-0.00161195 0.000306909 0.00429296)
(-0.00261247 0.00077399 0.00426997)
(-0.00353096 0.000210253 0.00435639)
(-0.00342584 0.00120626 0.00473886)
(-0.00293669 0.00194475 0.00496633)
(-0.00206146 0.00269874 0.00517027)
(-0.00147462 0.00274632 0.00512397)
(-0.0010915 0.00259842 0.00514434)
(-0.00105389 0.00213812 0.00514573)
(-0.00110298 0.00176381 0.00517916)
(-0.00120503 0.00135787 0.00518128)
(-0.00131965 0.000993864 0.00517077)
(-0.00146808 0.000622071 0.005137)
(-0.00162234 0.000288143 0.00510927)
(-0.0017767 -5.26533e-07 0.00509407)
(-0.00194235 -0.000225758 0.00509009)
(-0.00211516 -0.000391041 0.0050968)
(-0.00227373 -0.000501533 0.00511462)
(-0.00241834 -0.000569754 0.00513975)
(-0.00254609 -0.000607637 0.00516337)
(-0.0026541 -0.000617315 0.00517517)
(-0.00275971 -0.000602318 0.00518181)
(-0.00288597 -0.000573247 0.00519297)
(-0.00302898 -0.000525695 0.00521309)
(-0.00316994 -0.000447333 0.00523241)
(-0.00328972 -0.000329062 0.00523918)
(-0.00338329 -0.000160784 0.00522302)
(-0.00344199 7.49177e-05 0.00517212)
(-0.00346213 0.000403286 0.00508438)
(-0.00346098 0.000877545 0.00495586)
(-0.00344031 0.00162079 0.00477211)
(-0.00331825 0.00271601 0.00449404)
(-0.0028698 0.00433601 0.00405552)
(-0.00165277 0.00637097 0.00319407)
(0.00180441 0.00915851 0.00149851)
(0.00751988 0.0136631 -0.00112656)
(0.0133592 0.0229121 -0.00264374)
(0.00854683 0.0367942 -0.00216016)
(-0.0191962 0.0491137 -0.00279237)
(-0.0350078 0.0527547 -0.00153692)
(-0.033416 0.0504612 0.00684079)
(0.00510724 0.0238965 0.0141436)
(0.0596124 0.00443627 0.0113531)
(0.0773547 0.0316767 -0.0245526)
(0.0954055 0.110119 -0.000264369)
(0.10808 0.140263 0.014022)
(0.113812 0.157684 0.0198936)
(0.114947 0.147733 0.0611914)
(0.137937 0.183134 0.0753997)
(0.142773 -0.117665 0.0578801)
(-0.159342 0.481519 0.00240593)
(0.0740417 -0.381243 0.0297971)
(0.20257 -0.052566 -0.0249907)
(0.090399 0.134362 -0.0102478)
(0.0916263 0.107695 -0.0119004)
(0.0473365 0.14441 -0.0108564)
(0.0325567 0.146875 -0.0198416)
(0.017843 0.154041 -0.0184246)
(0.0170791 0.16127 -0.010496)
(0.0219188 0.166874 0.00167368)
(0.0310047 0.171821 0.0110144)
(0.0328082 0.165044 0.0217781)
(0.0408033 0.156347 0.032633)
(0.0387874 0.140399 0.0356814)
(0.0389947 0.124269 0.0330537)
(0.0438595 0.114441 0.0268034)
(0.0439836 0.0948135 0.023249)
(0.0338967 0.0701211 0.0210544)
(0.018382 0.0409015 0.0219348)
(-0.00477222 0.0124598 0.0232246)
(-0.0229557 -0.00288702 0.0264039)
(-0.0434481 -0.00603176 0.0206164)
(-0.0566293 -0.0146225 0.0182499)
(-0.0556558 -0.0279764 0.0208917)
(-0.0426721 -0.0419426 0.0257248)
(-0.0284812 -0.0467233 0.0278219)
(-0.0107954 -0.0455855 0.031765)
(0.00653222 -0.0442769 0.0335285)
(0.0114054 -0.0340905 0.030998)
(0.00634389 -0.0331932 0.0174943)
(-0.00217158 0.00710772 -0.00144547)
(-0.00591746 0.0252524 0.0138063)
(-0.00547705 0.0242892 0.0238905)
(-0.00495905 0.0221708 0.024143)
(0.00457671 0.0105315 0.0273888)
(-0.0023092 -0.00532851 0.0202335)
(-0.0176674 -0.00310647 0.00206145)
(-0.0276594 -0.00409599 0.0110782)
(0.0232997 0.018719 0.00462564)
(0.0300193 0.0206758 0.00578336)
(0.0208598 0.0111045 0.00188324)
(0.0203718 0.0111424 0.00181048)
(0.0108679 -2.95036e-05 -0.00235777)
(0.00409438 0.00177168 -0.00183241)
(-0.000720189 -0.00200099 0.0013484)
(-0.00154569 0.00120944 0.00268982)
(-0.00266599 -0.000359538 0.0032384)
(-0.00378647 0.00038639 0.00357031)
(-0.00479077 -0.000628853 0.00366072)
(-0.00499486 0.000359319 0.0041209)
(-0.00440462 0.00128013 0.00440076)
(-0.0031938 0.00225719 0.00486791)
(-0.00228502 0.00230513 0.0050521)
(-0.00178836 0.00214972 0.0052377)
(-0.00175661 0.00167442 0.00529604)
(-0.00189606 0.00139286 0.00533183)
(-0.00205566 0.00113147 0.00530364)
(-0.0022114 0.000936791 0.00523877)
(-0.00238688 0.0007138 0.00512575)
(-0.00257644 0.000477423 0.00500233)
(-0.00277965 0.000244912 0.00488614)
(-0.00296881 3.65549e-05 0.00478546)
(-0.00313502 -0.000123681 0.00470108)
(-0.00326899 -0.000228363 0.00462673)
(-0.00337755 -0.00029124 0.00456246)
(-0.00346761 -0.000319825 0.00450071)
(-0.00355689 -0.000327459 0.00443613)
(-0.00364162 -0.000319636 0.00438188)
(-0.00374299 -0.000292027 0.0043481)
(-0.00385984 -0.000227559 0.00432977)
(-0.0039809 -0.000110727 0.0043066)
(-0.00409521 6.61833e-05 0.00425921)
(-0.00420683 0.000305602 0.00417706)
(-0.00431137 0.000618556 0.00404801)
(-0.00440833 0.00102504 0.00386592)
(-0.00454661 0.00159194 0.00361343)
(-0.00471822 0.00247242 0.0032793)
(-0.00484543 0.00376725 0.00284107)
(-0.00471124 0.0057032 0.00223022)
(-0.00358595 0.00843806 0.00122806)
(-0.00118789 0.0130772 -0.000660324)
(0.00275828 0.0217025 -0.00352594)
(0.00597507 0.0374558 -0.00422452)
(0.00162215 0.0551136 -0.001334)
(-0.0162206 0.0590603 0.00122549)
(-0.0288886 0.0503034 0.00407941)
(-0.0233522 0.0332575 0.00996937)
(0.0161831 0.00322541 0.0189733)
(0.0387125 0.00845592 0.00435176)
(0.0563676 0.0498701 -0.00368084)
(0.0844912 0.102142 0.0430638)
(0.107955 0.123317 0.0521443)
(0.118262 0.145688 0.0540355)
(0.131715 0.140613 0.085498)
(0.146652 0.167893 0.0940226)
(0.153667 0.0114718 0.0735189)
(0.0625928 0.339834 0.0609143)
(0.0371435 -0.37775 0.0315502)
(0.141614 0.00702384 -0.0127608)
(0.0586673 0.182317 -0.0114729)
(0.0542439 0.203044 -0.000631735)
(0.0423206 0.223482 0.00178792)
(0.0404913 0.227996 0.00231734)
(0.0323735 0.224735 0.00939165)
(0.0298676 0.216117 0.0206009)
(0.0296901 0.209522 0.031066)
(0.0290241 0.198509 0.0424874)
(0.026131 0.188478 0.0428873)
(0.02654 0.182348 0.0402272)
(0.0239605 0.173807 0.0312402)
(0.0277538 0.161501 0.024704)
(0.0354024 0.1492 0.0210619)
(0.0437327 0.133627 0.0182347)
(0.0470607 0.111001 0.0215443)
(0.0362805 0.0794384 0.0262017)
(0.0138594 0.0405336 0.0301145)
(-0.0154703 0.0117682 0.0337874)
(-0.0409647 -0.00365225 0.035514)
(-0.0492717 -0.0138757 0.038164)
(-0.0515847 -0.0289342 0.0433342)
(-0.0494707 -0.0390914 0.0389871)
(-0.0392155 -0.0385294 0.0346222)
(-0.0324492 -0.0336206 0.0391026)
(-0.0241081 -0.0197877 0.0528156)
(-0.00297543 -0.00558188 0.04381)
(-0.00177062 0.0161368 0.0014126)
(-0.0124727 0.0370337 0.00363298)
(-0.0128686 0.0416353 0.0243736)
(-0.0137478 0.0384094 0.0311667)
(-0.00823856 0.0329323 0.0340834)
(-0.00758167 0.026065 0.032988)
(-0.0128468 0.0175081 0.0208807)
(-0.0236552 0.0111235 0.00557029)
(-0.0345791 0.0035058 0.0107218)
(0.0210394 0.0172257 0.0046509)
(0.0305282 0.0247729 0.00813399)
(0.0206983 0.0135274 0.00482346)
(0.0209073 0.0140634 0.00515451)
(0.0144839 0.000443233 4.3217e-05)
(0.00662606 0.00182842 -0.00269677)
(-0.000923364 -0.00406073 1.33734e-06)
(-0.00270788 0.000579208 0.00151621)
(-0.00383983 -0.00072318 0.00206668)
(-0.00473445 0.000404588 0.00279679)
(-0.00627896 -0.000797771 0.00283715)
(-0.00743946 9.17666e-05 0.00345752)
(-0.00726105 0.000679333 0.00395466)
(-0.00566404 0.00158803 0.00494688)
(-0.00449324 0.00158148 0.00560094)
(-0.00395691 0.00151584 0.00605817)
(-0.0041362 0.0011401 0.00616283)
(-0.0045873 0.000972702 0.00612737)
(-0.00497439 0.000851579 0.00598984)
(-0.00525108 0.000829261 0.00580936)
(-0.00542711 0.000799448 0.00558034)
(-0.00556699 0.000754537 0.005352)
(-0.00568402 0.000680979 0.00513695)
(-0.00580831 0.000594296 0.00495442)
(-0.0059568 0.000528404 0.00481766)
(-0.00605115 0.000493815 0.00469227)
(-0.00611216 0.000474497 0.00458598)
(-0.00612703 0.000477417 0.0045098)
(-0.00611073 0.000482334 0.00446106)
(-0.00610531 0.000481541 0.00443283)
(-0.00615294 0.00050228 0.00442556)
(-0.00624469 0.000582021 0.0044275)
(-0.00635254 0.000741851 0.00441465)
(-0.00644174 0.000979804 0.00436768)
(-0.00650111 0.00127939 0.00427858)
(-0.00653074 0.00162796 0.00414445)
(-0.00656773 0.00203782 0.00397657)
(-0.00672836 0.00255861 0.00374353)
(-0.00703252 0.00331255 0.00342488)
(-0.00736234 0.00435351 0.00298382)
(-0.00761153 0.00580466 0.00233861)
(-0.00750292 0.00785292 0.00136633)
(-0.00708257 0.0119013 -0.000278633)
(-0.00634909 0.0189178 -0.00280927)
(-0.00470333 0.0327232 -0.00400044)
(-0.00380664 0.0460785 -0.00252793)
(-0.00769658 0.0498514 0.000304104)
(-0.0136133 0.0406671 0.00895823)
(-0.00547313 0.0162846 0.0189248)
(0.00821835 0.000266818 0.0227407)
(0.0163905 0.00753188 0.00822676)
(0.0381394 0.0299148 0.0191048)
(0.0669011 0.0746669 0.0641178)
(0.0866667 0.104257 0.0650115)
(0.107105 0.137085 0.0593966)
(0.144583 0.137975 0.0864137)
(0.16738 0.176276 0.0989058)
(0.229344 -0.0311026 0.0861216)
(0.265665 0.344565 0.149805)
(0.0278607 -0.390849 0.0418753)
(0.0356638 0.0549582 -0.00316272)
(0.0232961 0.212138 -0.00826738)
(0.0476182 0.241936 0.00512895)
(0.0471044 0.263426 0.00815445)
(0.0501365 0.270371 0.0098123)
(0.0478977 0.269789 0.0177028)
(0.0354703 0.260909 0.0290964)
(0.0252526 0.251433 0.0420495)
(0.00989267 0.241175 0.0459376)
(-0.00309145 0.232166 0.0471883)
(-0.00328444 0.221395 0.0464189)
(0.0124889 0.208524 0.0402147)
(0.0311309 0.195235 0.0312999)
(0.0421941 0.184454 0.0237871)
(0.0528704 0.175442 0.0193649)
(0.0603761 0.166349 0.0230348)
(0.054927 0.149712 0.0294163)
(0.0342864 0.119491 0.0415147)
(-0.011647 0.0694731 0.0505569)
(-0.0462074 0.0320196 0.0489929)
(-0.0620985 0.0213802 0.0572238)
(-0.0637811 0.0103627 0.0633753)
(-0.0597057 5.8341e-05 0.0563455)
(-0.0467329 0.000687873 0.0489451)
(-0.0305666 0.00822461 0.0424094)
(-0.0273378 0.00534973 0.0165188)
(-0.0362463 0.0292507 -0.0198323)
(-0.0387065 0.0710781 0.00307636)
(-0.0316969 0.0813088 0.0277563)
(-0.0249341 0.0807764 0.036185)
(-0.0201845 0.0668069 0.0369021)
(-0.0136285 0.0608859 0.0287165)
(-0.0116605 0.0544205 0.0144364)
(-0.0120939 0.0560701 0.00403822)
(-0.0157782 0.0420918 -0.00133715)
(-0.025439 0.0142267 0.00394118)
(0.0207883 0.0117867 0.0045887)
(0.0299427 0.0268029 0.0102013)
(0.0197897 0.0146105 0.00591953)
(0.0204167 0.017295 0.00624761)
(0.0154917 0.00229722 0.00124367)
(0.00832468 0.00267458 -0.00259117)
(-0.0020854 -0.00543519 -0.000434617)
(-0.00554678 -0.000287133 0.000330318)
(-0.00503631 -0.00193757 0.00179274)
(-0.005647 0.000373443 0.00269465)
(-0.00656908 -0.000695753 0.0029369)
(-0.00761421 1.83911e-05 0.00388964)
(-0.00719589 -0.00047946 0.00466668)
(-0.00549796 -0.000209213 0.00600953)
(-0.00440082 -0.00036766 0.00699506)
(-0.00391286 -7.2374e-06 0.0078157)
(-0.00402362 0.00021296 0.00818602)
(-0.00438174 0.000526313 0.00826555)
(-0.00468903 0.000750676 0.00814805)
(-0.0049213 0.00101295 0.00793258)
(-0.00509938 0.00120433 0.00763646)
(-0.0052375 0.00130369 0.00733662)
(-0.00534529 0.00134048 0.00706527)
(-0.00544133 0.00134157 0.00682699)
(-0.00553962 0.00131491 0.00662684)
(-0.00560035 0.00128234 0.00646359)
(-0.00563073 0.00126067 0.00632829)
(-0.00562376 0.00124545 0.00622692)
(-0.00558589 0.0012243 0.00614927)
(-0.00555599 0.00120897 0.00609719)
(-0.005597 0.00123425 0.00605901)
(-0.00570757 0.00134005 0.00601133)
(-0.00585478 0.00152877 0.00593244)
(-0.00598303 0.00178045 0.00581323)
(-0.00607111 0.00206687 0.00565836)
(-0.00613561 0.00235651 0.0054762)
(-0.00623386 0.00265001 0.00528441)
(-0.00645944 0.00300637 0.00506867)
(-0.00684184 0.00350911 0.00480304)
(-0.00722657 0.00415319 0.00447347)
(-0.00749454 0.00499341 0.00404721)
(-0.00782076 0.00608021 0.00356053)
(-0.00865252 0.00849657 0.00284821)
(-0.00999881 0.0126101 0.00136359)
(-0.0106875 0.0205177 -0.000676181)
(-0.00851303 0.0299457 -0.00193225)
(-0.00830657 0.0332518 -0.00114326)
(-0.005311 0.0287025 0.00593366)
(0.00583884 0.0135184 0.0193784)
(0.012359 0.00345366 0.0249042)
(0.00616143 0.00668948 0.0180823)
(0.00778093 0.0260592 0.021709)
(0.0130794 0.0800659 0.0602628)
(0.0181634 0.106027 0.0674421)
(0.0400499 0.125775 0.0545321)
(0.0968136 0.115678 0.0563116)
(0.132139 0.172787 0.0738968)
(0.201259 -0.0697596 0.0558554)
(0.305124 0.388465 0.0445335)
(0.00658009 -0.391834 0.0352236)
(-0.0773716 0.0748571 0.0122612)
(-0.0110294 0.216241 0.00266754)
(0.0168253 0.245097 0.0197164)
(0.0399343 0.256332 0.0165803)
(0.0406936 0.270866 0.019793)
(0.0444196 0.271288 0.0198078)
(0.0328709 0.273321 0.0311715)
(0.0248119 0.262353 0.0410805)
(0.0184042 0.249718 0.049979)
(0.0117873 0.227152 0.0471682)
(0.0156064 0.207938 0.0420008)
(0.0272851 0.175689 0.0340264)
(0.0446246 0.163686 0.0356895)
(0.0528782 0.158803 0.033915)
(0.0569521 0.160598 0.0263782)
(0.0608349 0.167312 0.0260232)
(0.0637073 0.167825 0.0311052)
(0.0521179 0.161246 0.0411632)
(0.0170081 0.14169 0.0537739)
(-0.0270963 0.103107 0.0592923)
(-0.0401767 0.0754034 0.0582865)
(-0.0395491 0.0430954 0.048239)
(-0.0503148 0.0267314 0.0232841)
(-0.0548718 0.0327313 -0.00222906)
(-0.060413 0.061375 -0.0318873)
(-0.065608 0.0919844 -0.0328453)
(-0.0590793 0.118027 -0.00853856)
(-0.0478049 0.127354 0.00932586)
(-0.0317421 0.116706 0.0233336)
(-0.0162638 0.111544 0.0225218)
(-0.0114617 0.0828696 0.018093)
(-0.0166875 0.0668338 -0.00215618)
(-0.0252559 0.0532352 -0.0179585)
(-0.0197337 0.0467855 -0.0285156)
(-0.00867589 0.0328401 -0.0376845)
(-0.000421275 0.0192176 -0.0469007)
(0.0138834 0.00626555 0.00247839)
(0.0274547 0.0268887 0.0105167)
(0.0180281 0.0155942 0.00413616)
(0.0198569 0.0217587 0.00321259)
(0.0169222 0.00620899 0.000491846)
(0.0119507 0.00424314 -0.00181961)
(-0.00180546 -0.00590697 -0.00554727)
(-0.00551328 -0.000269216 -0.00459827)
(-0.0073951 -0.00246375 -0.00230735)
(-0.00781613 0.000430523 -0.000688845)
(-0.00864414 -0.000741025 -0.000114408)
(-0.00944679 -0.00028575 0.00100469)
(-0.0092572 -0.00149023 0.0018075)
(-0.00830743 -0.00139689 0.00283044)
(-0.0078665 -0.00142874 0.00362399)
(-0.00791823 -0.000798757 0.00442601)
(-0.00829925 -0.000274085 0.00505804)
(-0.00877428 0.000285789 0.00544926)
(-0.00919461 0.000705363 0.00558592)
(-0.00949783 0.00108829 0.00554129)
(-0.00948732 0.0013582 0.00538372)
(-0.00942041 0.00153122 0.00520604)
(-0.00935057 0.00163035 0.00503921)
(-0.00928658 0.00167934 0.00488852)
(-0.00922966 0.00168692 0.00475614)
(-0.00915582 0.0016722 0.00464017)
(-0.00907166 0.00165486 0.0045383)
(-0.00896623 0.00164432 0.00445173)
(-0.00884297 0.0016431 0.00437317)
(-0.00878714 0.00165412 0.00430326)
(-0.0088512 0.00170051 0.00424223)
(-0.00896856 0.00180682 0.00418027)
(-0.00909173 0.0019676 0.00409826)
(-0.00915416 0.00215884 0.00397923)
(-0.00915604 0.0023686 0.00382306)
(-0.00907347 0.00259099 0.00364355)
(-0.00904587 0.0028388 0.00346744)
(-0.00925895 0.00312358 0.00329615)
(-0.00969947 0.00344169 0.00310731)
(-0.0101485 0.00377649 0.00288995)
(-0.0105504 0.00421188 0.00260181)
(-0.0112891 0.00480662 0.00213236)
(-0.012982 0.0061746 0.00133864)
(-0.0150718 0.00863669 0.000436046)
(-0.0172302 0.0120987 -0.000988849)
(-0.0145538 0.0160593 -0.00320248)
(-0.0110534 0.0159492 -0.00468367)
(-0.00394321 0.0110624 -0.000488848)
(0.00560279 0.00101975 0.00734915)
(0.00350428 -0.00604696 0.0125606)
(-0.0231441 0.0135943 0.014974)
(-0.0397745 0.0311592 0.0370779)
(-0.0285285 0.0505209 0.0594939)
(-0.00341775 0.0513804 0.0410042)
(0.0118123 0.0767996 0.0182819)
(0.0780145 0.0687484 0.0265172)
(0.103398 0.168478 0.0436787)
(0.186239 -0.0361489 0.0510224)
(0.377993 0.509275 0.0478328)
(0.0350937 -0.386643 0.0267229)
(-0.18107 -0.0367493 -0.00858172)
(-0.0458171 0.11917 0.00438877)
(-0.018414 0.0797387 0.0185983)
(0.0274522 0.096115 0.0133571)
(0.0203034 0.102271 0.0130345)
(0.0419341 0.116061 0.0125607)
(0.0305122 0.143754 0.0280423)
(0.0148133 0.143298 0.0335205)
(0.00433373 0.125698 0.0329545)
(0.0126733 0.102756 0.03533)
(0.0178352 0.075706 0.0231992)
(0.0303577 0.0492534 0.00825443)
(0.0397984 0.0289736 -0.00235144)
(0.0421651 0.027386 -0.00781759)
(0.0383945 0.0374887 -0.0164647)
(0.0503806 0.0769527 -0.00620855)
(0.067789 0.102598 0.00247328)