/*--------------------------------*- C++ -*----------------------------------*\
| =========                 |                                                 |
| \\      /  F ield         | OpenFOAM: The Open Source CFD Toolbox           |
|  \\    /   O peration     | Version:  2.3.0                                 |
|   \\  /    A nd           | Web:      www.OpenFOAM.org                      |
|    \\/     M anipulation  |                                                 |
\*---------------------------------------------------------------------------*/
FoamFile
{
    version     2.0;
    format      ascii;
    class       volVectorField;
    location    "35";
    object      U.water;
}
// * * * * * * * * * * * * * * * * * * * * * * * * * * * * * * * * * * * * * //

dimensions      [0 1 -1 0 0 0 0];

internalField   nonuniform List<vector> 
6144
(
(0.0107602 0.018877 0.00104316)
(0.0110805 -0.00651592 -0.000270888)
(0.00402997 -0.00771001 -0.00250022)
(0.00393516 -0.00738581 -0.00247636)
(0.00237586 -0.00633098 -0.00239508)
(0.00271476 -0.00302619 -0.00224563)
(0.00237701 -0.00184189 -0.00158359)
(0.002238 -0.000449332 -0.000898834)
(0.00164474 0.000187669 -0.000365343)
(0.00119367 0.00225232 0.000395787)
(0.00104451 0.00360058 0.000968365)
(0.00115764 0.00420069 0.0014915)
(0.00138454 0.00396512 0.00178156)
(0.00157078 0.00316209 0.00200053)
(0.00170311 0.00212057 0.00178935)
(0.00183238 0.0011615 0.00156607)
(0.00191594 0.0002805 0.00119789)
(0.00200143 -0.000348034 0.000876597)
(0.00207649 -0.000797206 0.000548886)
(0.00213526 -0.00100861 0.000285462)
(0.00217018 -0.00111034 0.000124907)
(0.00218787 -0.00110194 3.8268e-05)
(0.00218667 -0.00104902 1.1003e-05)
(0.00216807 -0.000965879 2.82769e-05)
(0.00213593 -0.000873698 8.33026e-05)
(0.00209535 -0.000789153 0.000168686)
(0.0020486 -0.000726006 0.000280035)
(0.00199535 -0.000690839 0.000428082)
(0.00194506 -0.000684297 0.000580343)
(0.00190077 -0.000717658 0.000714205)
(0.00185973 -0.000789217 0.000830259)
(0.00182072 -0.000887141 0.000918758)
(0.00178455 -0.000977927 0.000985734)
(0.00175223 -0.00107021 0.00104032)
(0.0017224 -0.00113552 0.00109343)
(0.00169442 -0.00122534 0.00114899)
(0.00166895 -0.0012817 0.00122636)
(0.00164744 -0.00144849 0.00131427)
(0.00162863 -0.00155387 0.00141064)
(0.00162992 -0.00191176 0.00149616)
(0.00161336 -0.00200994 0.00154771)
(0.00166879 -0.00266867 0.00164009)
(0.00164128 -0.00262159 0.001631)
(0.00177128 -0.00384976 0.00170352)
(0.00169917 -0.00336272 0.0015115)
(0.00195328 -0.00534435 0.00117704)
(0.0019186 -0.00327721 0.000325929)
(0.00277369 -0.00570079 -0.000498432)
(0.00279618 -0.00108803 -0.00119453)
(0.00228582 -0.00643608 -0.00165201)
(-0.000135499 0.00360468 -0.000598124)
(4.10618e-05 -0.00621482 -0.00159835)
(0.00140292 0.0139238 -0.00344908)
(0.00532251 -0.00548099 -0.00712893)
(0.0198914 0.0457439 -0.0080738)
(0.0119215 -0.0527197 -0.0127265)
(0.0518437 0.0740601 -0.000965173)
(0.0177957 -0.153791 0.0164744)
(-0.0917686 0.123117 -0.0940405)
(0.0430281 -0.12226 -0.110475)
(0.105541 -0.230474 -0.0292093)
(0.0578623 -0.0277849 -0.0130996)
(0.0072506 -0.0956872 -0.00676854)
(0.00744255 -0.0650479 -0.000864991)
(-0.0155872 -0.0374777 0.00382298)
(-0.0165151 -0.0100728 0.00727578)
(-0.00976717 0.00593021 0.00793174)
(-0.00573766 0.0199732 -0.00328842)
(-0.00212218 0.0367121 -0.0112401)
(0.00210501 0.0464559 -0.0122421)
(0.00664783 0.0539744 -0.0134302)
(0.0107797 0.0588824 -0.0136561)
(0.0134912 0.0606758 -0.0129049)
(0.0163701 0.0578104 -0.0108977)
(0.0185637 0.0517825 -0.00840698)
(0.0193906 0.041206 -0.00556502)
(0.0192963 0.0294066 -0.00324207)
(0.0186571 0.015846 -0.00214772)
(0.0176042 -9.30934e-05 -0.000595659)
(0.0161206 -0.0184261 0.00154893)
(0.0151986 -0.0387083 0.0038888)
(0.0155505 -0.0610808 0.00649384)
(0.0136652 -0.0888957 0.0101798)
(0.0102493 -0.118245 0.0124873)
(0.0121205 -0.147059 0.0135424)
(0.00887891 -0.180315 0.0143042)
(0.00315299 -0.204416 0.0119804)
(0.00305198 -0.222439 0.0102263)
(-0.00490469 -0.230273 0.0070705)
(-0.00892587 -0.226902 0.00614346)
(-0.0161692 -0.215671 0.00619548)
(-0.0207951 -0.188602 0.00554642)
(-0.0335532 -0.149628 0.00772693)
(-0.0360562 -0.112946 0.00289019)
(-0.0258276 -0.0381661 -0.000487216)
(-0.016868 -0.00589247 0.000891808)
(0.0213687 0.0186685 0.00368244)
(0.0231495 0.00412115 0.00294729)
(0.0112096 0.000210096 -0.000917539)
(0.010954 -0.000458561 -0.000947451)
(0.00565552 -0.00349807 -0.000379629)
(0.00524509 -0.00172815 0.0010286)
(0.00331683 -0.00238986 0.00248913)
(0.0026273 -0.000670307 0.00262843)
(0.00138486 0.000846067 0.00242784)
(0.000957897 0.00380726 0.00269884)
(0.0012318 0.00517343 0.00328416)
(0.00188636 0.00574556 0.00393688)
(0.0025034 0.00527276 0.0042907)
(0.0029899 0.00445008 0.0044619)
(0.00321775 0.00326845 0.00438997)
(0.00343063 0.00219904 0.00429935)
(0.00350089 0.0011742 0.0041579)
(0.00359248 0.000411712 0.00404534)
(0.0036502 -0.000191304 0.00393641)
(0.0037253 -0.000533992 0.00378658)
(0.00376864 -0.000747867 0.00368305)
(0.00377035 -0.000828712 0.00363843)
(0.00373738 -0.000843939 0.00364694)
(0.00367378 -0.000809605 0.00370099)
(0.00358806 -0.000753353 0.00378938)
(0.00348762 -0.000694549 0.00390246)
(0.00337625 -0.000648796 0.00403407)
(0.00325831 -0.000619527 0.00417555)
(0.00315009 -0.000614819 0.00429487)
(0.00306968 -0.000650342 0.00437836)
(0.00299954 -0.000716385 0.00445175)
(0.0029266 -0.000801154 0.00451645)
(0.00285606 -0.000876797 0.00457627)
(0.00278839 -0.000968462 0.00463171)
(0.00273017 -0.00103372 0.00468365)
(0.00267655 -0.00114607 0.00473536)
(0.00264896 -0.00120839 0.00479176)
(0.00262956 -0.00140588 0.00485099)
(0.00264152 -0.00147809 0.00491016)
(0.00266306 -0.00186315 0.00498427)
(0.00268281 -0.00185649 0.00501566)
(0.00279361 -0.00258852 0.00514164)
(0.00280831 -0.00239741 0.00511204)
(0.00307866 -0.0038428 0.00523225)
(0.00296234 -0.00312206 0.00501681)
(0.0033366 -0.00539831 0.00475923)
(0.00294488 -0.00246087 0.00359633)
(0.00403255 -0.00475926 0.00237211)
(0.00386957 0.00275379 0.00190912)
(0.00387656 -0.0025167 0.00197495)
(0.00241885 0.00665824 0.00299048)
(0.000610029 -0.0166977 0.00272451)
(0.000870627 0.00331824 -0.00266055)
(0.00281018 -0.0225168 -0.00338009)
(0.0423994 0.0120829 0.0069073)
(0.0307486 -0.0439136 0.00304941)
(0.012303 0.0146933 -0.0230059)
(-0.040203 0.0163006 -0.0510779)
(-0.0238259 0.233915 -0.100573)
(0.128711 -0.208562 -0.0436793)
(0.123115 -0.150841 -0.0273035)
(-0.00171366 0.127043 -0.00710258)
(-0.0178917 -0.0352321 -0.0100968)
(-0.0277055 0.0701146 0.0157437)
(-0.0331066 0.0193133 0.00891394)
(-0.0263456 0.0516251 -0.000146733)
(-0.0184059 0.0656871 -0.00526085)
(-0.0108547 0.0851329 -0.00952002)
(-0.00192213 0.0942479 -0.0108193)
(0.00667171 0.102498 -0.00988644)
(0.0151485 0.106892 -0.00934698)
(0.0219025 0.10977 -0.00814927)
(0.0277563 0.109383 -0.00669696)
(0.0314341 0.105153 -0.00488869)
(0.0351213 0.0982546 -0.00289712)
(0.0363942 0.0869996 -0.00155949)
(0.036744 0.0743399 -0.000374317)
(0.036164 0.0594993 0.000578081)
(0.0348154 0.0420934 0.00198682)
(0.0328486 0.0225115 0.00307577)
(0.0314448 0.000200362 0.00459378)
(0.0308995 -0.024064 0.00675995)
(0.0293948 -0.0523917 0.00823669)
(0.0277678 -0.0848292 0.00801788)
(0.0275665 -0.11486 0.00729658)
(0.0220174 -0.146101 0.004768)
(0.0134948 -0.174714 -0.0011172)
(0.00761927 -0.186437 -0.00537756)
(-0.00254159 -0.196253 -0.00922482)
(-0.0159832 -0.196443 -0.00912533)
(-0.0364744 -0.190587 -0.00601845)
(-0.0514428 -0.169103 -0.00267486)
(-0.0583297 -0.13828 0.00249412)
(-0.0725262 -0.109534 -0.00142508)
(-0.0661224 -0.0494962 -0.00148038)
(-0.0423283 -0.00859403 0.00533693)
(0.0246971 0.0190781 0.00448446)
(0.0269518 0.0110774 0.00492476)
(0.0156906 0.00598333 0.00286121)
(0.0142791 0.00625381 0.00319367)
(0.00734053 0.000741382 0.00380861)
(0.00482228 0.00128578 0.00368155)
(0.00140262 -0.00105217 0.00438914)
(0.000128829 -7.30145e-05 0.00401503)
(-0.00161066 0.000814418 0.00372457)
(-0.00147622 0.00367101 0.0038612)
(-0.000543172 0.0047694 0.00422601)
(0.000570171 0.00536952 0.00480264)
(0.00137359 0.00507298 0.00508314)
(0.00200267 0.00465715 0.00521066)
(0.00237939 0.00379038 0.00512079)
(0.00267358 0.0029683 0.00501436)
(0.00275991 0.00210902 0.00490398)
(0.00286996 0.00143673 0.00483556)
(0.00288571 0.000812909 0.00479288)
(0.00285956 0.000352503 0.00478804)
(0.00280525 5.0484e-06 0.00480767)
(0.00272899 -0.000221354 0.00484331)
(0.00263718 -0.000366607 0.00488986)
(0.0025316 -0.000442238 0.00494974)
(0.00241757 -0.000476424 0.00501658)
(0.00229781 -0.000487455 0.00508557)
(0.00217585 -0.000491741 0.00515734)
(0.00205466 -0.000500717 0.00523015)
(0.00193544 -0.000522677 0.00530265)
(0.00182424 -0.000557388 0.00537569)
(0.00171741 -0.000587888 0.00544226)
(0.00160556 -0.000619157 0.0055051)
(0.00150318 -0.000647196 0.00556966)
(0.0014069 -0.000707173 0.0056318)
(0.00132897 -0.000758678 0.00569292)
(0.00125844 -0.000869458 0.00574875)
(0.0012238 -0.000927837 0.0058044)
(0.0011974 -0.00109665 0.00584943)
(0.00121796 -0.00110514 0.00589975)
(0.00124846 -0.00141578 0.00594801)
(0.00131922 -0.00131219 0.00596842)
(0.00151327 -0.00200568 0.0060622)
(0.00168391 -0.00167331 0.00600339)
(0.00218995 -0.00310609 0.00611853)
(0.00221571 -0.00204916 0.00578305)
(0.00270515 -0.0045256 0.00561971)
(0.00187726 -0.00111496 0.00454461)
(0.00209012 -0.0046768 0.00330698)
(0.0019938 0.00378164 0.00306477)
(0.00263136 -0.00244182 0.00355914)
(0.00523758 0.00793845 0.00594903)
(0.00354594 -0.0155408 0.00536028)
(0.00296862 0.0029254 0.000854485)
(0.012702 -0.0270097 0.00440235)
(0.0452519 -0.00586267 0.0138243)
(0.0544824 -0.0491988 0.0189942)
(0.0116098 -0.0100623 0.0372933)
(-0.0636607 -0.0942862 0.00233581)
(0.0169978 0.144922 -0.195973)
(0.0815798 -0.245864 -0.0410628)
(0.105183 -0.0844756 -0.0293242)
(0.028696 0.146225 -0.0105984)
(0.0195041 0.0607296 -0.012104)
(-0.0274539 0.11253 -0.00310964)
(-0.0317537 0.103092 -0.00784939)
(-0.030832 0.117592 -0.0109576)
(-0.0156526 0.122599 -0.0117642)
(-0.0079152 0.131289 -0.0111311)
(0.00500201 0.136157 -0.00920417)
(0.0141458 0.140253 -0.00710407)
(0.0246238 0.142562 -0.0052632)
(0.0316522 0.14364 -0.0033374)
(0.0381711 0.143212 -0.00140044)
(0.0425735 0.140007 0.000157779)
(0.0471759 0.134251 0.00162843)
(0.0502307 0.125236 0.00226633)
(0.0522952 0.114269 0.00254344)
(0.0537477 0.1016 0.00294518)
(0.0545321 0.0864747 0.0031646)
(0.0545618 0.0690382 0.00328695)
(0.0550838 0.0484838 0.00445683)
(0.0562013 0.0251074 0.00537223)
(0.0571296 -0.00176997 0.00577113)
(0.0577541 -0.0306396 0.00679065)
(0.0564808 -0.0626228 0.00545617)
(0.0519254 -0.0905285 -0.000678725)
(0.0430891 -0.110993 -0.00780797)
(0.0347145 -0.119131 -0.0135872)
(0.0232013 -0.115245 -0.014848)
(0.00276589 -0.116321 -0.00853772)
(-0.0328418 -0.134883 -0.00463491)
(-0.0633782 -0.128805 -0.00503806)
(-0.082864 -0.110508 0.00218762)
(-0.100026 -0.0955781 -0.000787025)
(-0.102529 -0.0554274 -0.00566361)
(-0.0860073 -0.0127833 0.002607)
(0.0257241 0.0194992 0.00444867)
(0.0289102 0.0147378 0.00529765)
(0.0170707 0.00927222 0.00256516)
(0.0163981 0.0105782 0.00301945)
(0.00834302 0.00437535 0.00408122)
(0.00569513 0.00450858 0.00407655)
(0.00107507 -0.000118425 0.00491682)
(-0.00109943 9.05093e-05 0.00437117)
(-0.00375164 -0.000444629 0.00420268)
(-0.00355998 0.00225268 0.00423117)
(-0.00223861 0.00311362 0.00455484)
(-0.00092615 0.00410332 0.00523496)
(-4.17247e-05 0.00439048 0.00551477)
(0.000678465 0.00448019 0.00563423)
(0.00110128 0.00394515 0.00550172)
(0.00139941 0.00331786 0.00537595)
(0.00144154 0.00255961 0.00527668)
(0.00152658 0.00197479 0.0052263)
(0.00153124 0.00138646 0.00518575)
(0.00148788 0.000896714 0.00516028)
(0.001405 0.000479267 0.00515619)
(0.00128882 0.000164269 0.00516929)
(0.00115043 -7.99351e-05 0.0051954)
(0.00100037 -0.000247811 0.00523608)
(0.000851765 -0.000356672 0.00528926)
(0.000711148 -0.000421524 0.00534928)
(0.000577774 -0.000458128 0.00541279)
(0.000455118 -0.000476733 0.00547513)
(0.000345624 -0.000486873 0.00553227)
(0.000245757 -0.000496802 0.0055811)
(0.000146961 -0.000499666 0.00562385)
(5.09483e-05 -0.000506921 0.00566926)
(-2.24162e-05 -0.000511477 0.00572254)
(-8.87928e-05 -0.000544582 0.00577512)
(-0.000130815 -0.000562412 0.00582596)
(-0.0001714 -0.000635666 0.00586198)
(-0.000169101 -0.000644638 0.00589136)
(-0.000163788 -0.000773557 0.00588849)
(-8.08951e-05 -0.000726565 0.00590643)
(9.53261e-06 -0.00101978 0.00589382)
(0.000176912 -0.000847292 0.00591085)
(0.000436496 -0.00150986 0.00592279)
(0.000768084 -0.00090531 0.0058887)
(0.00124759 -0.0021283 0.00581747)
(0.00170818 -0.000358395 0.00558449)
(0.00208898 -0.00250848 0.00509754)
(0.00227211 0.00102462 0.00426739)
(0.00184309 -0.00359447 0.00327577)
(0.00244557 0.0012585 0.00281818)
(0.00192828 -0.00641688 0.00260012)
(0.00466614 0.00345942 0.00585188)
(0.00286046 -0.0135391 0.0058101)
(0.00251648 0.00384818 0.00482928)
(0.0177046 -0.0308915 0.0143791)
(0.0479342 0.0061589 0.0340841)
(0.0343292 -0.0137224 0.0326006)
(-0.0179978 0.0417682 0.0599067)
(-0.0686266 -0.0980624 0.0557819)
(0.0420628 0.0443495 -0.188389)
(0.0525031 -0.249409 -0.0365405)
(0.0816942 -0.0578419 -0.0306638)
(0.00867166 0.153829 -0.0197488)
(0.00416717 0.114673 -0.0202358)
(-0.016823 0.15206 -0.0123808)
(-0.0195309 0.150738 -0.0119581)
(-0.0148453 0.155366 -0.00983996)
(-0.00598891 0.156278 -0.00927339)
(0.00116752 0.160633 -0.00680233)
(0.0114343 0.16213 -0.00486921)
(0.0199182 0.163886 -0.00303679)
(0.0281558 0.164444 -0.00172921)
(0.0345339 0.165559 -0.000191782)
(0.0401884 0.165979 0.00103885)
(0.0458194 0.164444 0.00172241)
(0.0524758 0.160327 0.00293907)
(0.0581064 0.153498 0.00372715)
(0.0619769 0.145502 0.00454537)
(0.0654901 0.135966 0.00538121)
(0.0695569 0.12573 0.00551937)
(0.0722199 0.11164 0.0067333)
(0.0750604 0.0943534 0.00893977)
(0.0771536 0.0738184 0.0105893)
(0.0776254 0.0490321 0.0117043)
(0.0777299 0.0222063 0.0127013)
(0.0750289 -0.00698342 0.0117342)
(0.0673976 -0.0329982 0.00679694)
(0.0565987 -0.0500713 -0.00106609)
(0.0461274 -0.0529523 -0.00472538)
(0.0342218 -0.0473794 -0.000950356)
(0.0124266 -0.0461889 0.00606076)
(-0.026933 -0.0635617 0.00506206)
(-0.0682985 -0.0711842 0.000231114)
(-0.101786 -0.0677165 0.00128256)
(-0.125184 -0.0589029 -0.0034404)
(-0.124694 -0.0335637 -0.00626842)
(-0.109945 -0.00478763 0.00292397)
(0.0257647 0.0199913 0.00421631)
(0.0300531 0.0175311 0.00468283)
(0.0183627 0.0111189 0.000508797)
(0.0191097 0.0138053 0.000735751)
(0.0102899 0.006518 0.00215225)
(0.0076505 0.00657847 0.00261028)
(0.00151794 0.000202945 0.00388658)
(-0.00157723 0.000563591 0.00371956)
(-0.00540703 -0.00171179 0.00411203)
(-0.00579958 0.000807692 0.0042631)
(-0.00445196 0.00163731 0.0044549)
(-0.0034459 0.00294103 0.00515904)
(-0.00251859 0.00368946 0.00546854)
(-0.0016142 0.00414353 0.00562924)
(-0.000971962 0.00388909 0.00548163)
(-0.000651474 0.0033492 0.00535091)
(-0.000747281 0.00264606 0.0052604)
(-0.000805193 0.00212375 0.00523398)
(-0.000909184 0.00159785 0.00519516)
(-0.00102193 0.00114385 0.00514829)
(-0.00116068 0.000713251 0.00510644)
(-0.00129875 0.000353421 0.00508075)
(-0.00143852 5.52063e-05 0.00507126)
(-0.00158649 -0.000170867 0.00507724)
(-0.00173415 -0.000333951 0.00509381)
(-0.0018666 -0.00044121 0.00512006)
(-0.00198461 -0.000504564 0.00515245)
(-0.00208231 -0.000533455 0.00518531)
(-0.00215777 -0.000543366 0.00520841)
(-0.00222151 -0.000541875 0.00521205)
(-0.00228462 -0.000525977 0.00520857)
(-0.00234916 -0.000513593 0.00520836)
(-0.0023975 -0.000498133 0.00521351)
(-0.00244089 -0.000504846 0.00522008)
(-0.00245835 -0.000486588 0.00522597)
(-0.00247367 -0.000509695 0.00521841)
(-0.00243065 -0.000463419 0.00520411)
(-0.0023968 -0.000551817 0.00515491)
(-0.00225616 -0.000435726 0.00513133)
(-0.00216151 -0.000694735 0.00504847)
(-0.0018949 -0.00039731 0.00504687)
(-0.00171947 -0.000913168 0.00493061)
(-0.00126202 -1.81195e-05 0.004867)
(-0.00095883 -0.000750447 0.00462665)
(-0.000224145 0.00127728 0.00437171)
(0.000280561 -0.000232222 0.00403443)
(0.00171874 0.00273709 0.00389201)
(0.0026955 -0.0024183 0.00360942)
(0.00320547 -0.00075397 0.00328116)
(0.00148223 -0.00871227 0.00236896)
(0.00159553 0.000307066 0.00359981)
(0.00133904 -0.0110465 0.00287534)
(0.000549656 -8.01112e-05 0.00810515)
(0.00122777 -0.0297612 0.0227797)
(0.00219212 0.0312722 0.0382046)
(0.00104316 0.0293096 0.0394325)
(0.000774553 0.0722838 0.0591039)
(-0.0232994 -0.0890601 0.0759076)
(0.0243136 -0.0352032 -0.187418)
(0.0277103 -0.243276 -0.0274389)
(0.0476786 -0.0212467 -0.0255462)
(0.0064836 0.16182 -0.0192869)
(0.00356887 0.143976 -0.0169359)
(-0.008743 0.177602 -0.00934601)
(-0.00824701 0.180236 -0.0053091)
(-0.00295479 0.180145 -0.00435937)
(0.00197028 0.178966 -0.00240785)
(0.00779681 0.17755 -0.000890662)
(0.0158422 0.175559 0.000458364)
(0.0238344 0.173721 -4.87964e-05)
(0.0300525 0.172248 -0.000351686)
(0.0350771 0.170995 0.000240438)
(0.0403072 0.171183 0.00101069)
(0.0463252 0.169063 0.00123241)
(0.0541091 0.166015 0.00187881)
(0.0618342 0.162721 0.00194251)
(0.0673011 0.161285 0.00244731)
(0.0728164 0.156269 0.00337764)
(0.0803008 0.153496 0.00379102)
(0.0858432 0.145624 0.00623145)
(0.090809 0.133551 0.00892006)
(0.0943075 0.118461 0.0118239)
(0.0953044 0.0975597 0.0132292)
(0.0953129 0.0731832 0.0146024)
(0.0909439 0.0460288 0.0145951)
(0.0796804 0.0159216 0.0122455)
(0.0653805 -0.00677449 0.00764287)
(0.0515642 -0.0167045 0.00392888)
(0.0381898 -0.0143675 0.00604142)
(0.0164145 -0.0118965 0.00968114)
(-0.020767 -0.0197034 0.00681136)
(-0.0643416 -0.0281783 0.00310529)
(-0.101673 -0.0352567 0.00361118)
(-0.126475 -0.0385832 -0.00486597)
(-0.136196 -0.0195194 -0.0114289)
(-0.128157 0.00211514 0.00359392)
(0.0242516 0.0203406 0.00595374)
(0.0304688 0.0209362 0.00425392)
(0.0195263 0.0142583 -0.000557619)
(0.0222141 0.017513 -0.000938141)
(0.0135185 0.00892772 -0.00146113)
(0.0109883 0.00907371 -0.000212181)
(0.00316775 0.000883493 0.00102686)
(-0.00109984 0.00147202 0.00167551)
(-0.00583475 -0.00233753 0.00284802)
(-0.00773565 -0.000582761 0.0033307)
(-0.00612322 -0.000210903 0.00351095)
(-0.00478517 0.00137996 0.00441882)
(-0.00353477 0.00270152 0.00493715)
(-0.00232344 0.00347064 0.00543629)
(-0.00142379 0.00337717 0.00552111)
(-0.00101497 0.00291308 0.0055431)
(-0.00126622 0.00224942 0.00544358)
(-0.00147514 0.001827 0.00541674)
(-0.00169171 0.00145949 0.00535118)
(-0.00188357 0.00116445 0.0052563)
(-0.00208326 0.000858393 0.00514403)
(-0.00227273 0.000581289 0.00503525)
(-0.00246342 0.000324884 0.00493474)
(-0.00263873 0.000108943 0.00484842)
(-0.00278952 -5.69506e-05 0.00477392)
(-0.00290756 -0.000166434 0.00470899)
(-0.00300306 -0.000228858 0.00465229)
(-0.00306696 -0.000253374 0.00459741)
(-0.00310705 -0.000253803 0.00453542)
(-0.00314577 -0.000251446 0.00446613)
(-0.00318148 -0.000244638 0.00440589)
(-0.00321166 -0.000240047 0.00436023)
(-0.00321856 -0.000222075 0.00432713)
(-0.00322318 -0.000211477 0.0042998)
(-0.00320619 -0.000162826 0.00427365)
(-0.00318473 -0.000138465 0.00423732)
(-0.00309771 -4.91013e-05 0.00419643)
(-0.0030184 -8.25599e-05 0.00413219)
(-0.00280316 5.87501e-05 0.00408774)
(-0.00266904 -0.000143801 0.0040045)
(-0.00232478 0.000198769 0.00397447)
(-0.00218536 -0.000159047 0.00385073)
(-0.00173444 0.000820929 0.00375167)
(-0.00146899 0.000341391 0.00355247)
(-0.00076034 0.00220735 0.00337103)
(0.000117691 0.000632719 0.00340802)
(0.00190797 0.00304175 0.00422734)
(0.00399681 -0.00261536 0.00489467)
(0.00404381 -0.000800002 0.00566678)
(0.00200515 -0.00865175 0.00444269)
(-0.0015895 0.000550404 0.00331916)
(0.00306418 -0.0091681 0.00129773)
(0.00131389 0.00266793 0.00540207)
(-0.0135714 -0.0287998 0.0135707)
(-0.0345314 0.00443645 0.0335761)
(-0.024747 -0.028209 0.0341979)
(0.0169108 0.0212118 0.060871)
(0.0485051 -0.0784168 0.0797709)
(0.00548017 -0.053863 -0.192326)
(-0.00161502 -0.254698 -0.0251164)
(-0.0017285 -0.0158525 -0.0242109)
(-0.00977534 0.167657 -0.0178087)
(-0.0111783 0.158503 -0.0120687)
(-0.00914637 0.190029 -0.00314366)
(-0.00149536 0.191748 0.00180599)
(0.0033652 0.189102 0.00221625)
(0.0084193 0.184769 0.00454835)
(0.013969 0.179929 0.00564298)
(0.0198352 0.169959 0.0060581)
(0.0267923 0.166328 0.00481986)
(0.0324654 0.162086 0.00437515)
(0.0360616 0.159866 0.00272855)
(0.0406157 0.158401 0.00203769)
(0.0466233 0.155257 0.00220399)
(0.0551541 0.153065 0.00168135)
(0.063209 0.151454 0.00120908)
(0.0677481 0.155225 0.00225828)
(0.0736894 0.153452 0.00402315)
(0.0820961 0.156745 0.00501772)
(0.0891251 0.155906 0.00831169)
(0.0961169 0.154814 0.0123491)
(0.102768 0.150374 0.0168398)
(0.108518 0.141951 0.0186932)
(0.109265 0.124436 0.0201395)
(0.104756 0.104193 0.0206807)
(0.0911927 0.0734521 0.0185756)
(0.0710656 0.0462894 0.0155887)
(0.0489721 0.0251266 0.0131613)
(0.02813 0.0165546 0.0140668)
(0.00490744 0.0157476 0.0163621)
(-0.0280573 0.0119214 0.016143)
(-0.0669456 0.00500225 0.0138985)
(-0.104386 -0.00446417 0.00586763)
(-0.132097 -0.00761132 -0.00971828)
(-0.137049 0.0074569 -0.010785)
(-0.126918 0.00500664 0.00613717)
(0.0214645 0.0200561 0.00510906)
(0.0306265 0.0252198 0.00487398)
(0.0201962 0.0170775 0.000472922)
(0.0244043 0.0204561 0.000127506)
(0.0170353 0.0104468 -0.00337667)
(0.0149349 0.0106487 -0.00158318)
(0.00581996 0.000992712 -0.0016813)
(0.000459739 0.00250112 -0.000588061)
(-0.0048973 -0.00150519 0.0010675)
(-0.00817118 -0.000566896 0.00173041)
(-0.00766149 -0.00141394 0.00198745)
(-0.00764684 0.000264998 0.00321883)
(-0.00651006 0.00144079 0.00415509)
(-0.00470737 0.002342 0.00529431)
(-0.00351404 0.00240701 0.00588236)
(-0.00310208 0.00217703 0.00626976)
(-0.0036155 0.00162603 0.00623343)
(-0.00417956 0.00132611 0.00614488)
(-0.00463274 0.00111901 0.00597939)
(-0.00491058 0.00102195 0.00577065)
(-0.00512229 0.000923113 0.00554799)
(-0.00527221 0.000840807 0.00533952)
(-0.00539135 0.000744031 0.00514936)
(-0.00550476 0.000652884 0.00499671)
(-0.00561765 0.000583253 0.00488573)
(-0.00569381 0.000535313 0.00478233)
(-0.00573679 0.00050392 0.00468187)
(-0.00574009 0.000499355 0.00459179)
(-0.00569535 0.000505933 0.0045234)
(-0.00563187 0.000499802 0.004471)
(-0.0055849 0.000489984 0.00443364)
(-0.00555268 0.000480332 0.00441066)
(-0.00551664 0.000488996 0.00439937)
(-0.00548758 0.000508309 0.00439585)
(-0.00543883 0.000573562 0.00440475)
(-0.00536927 0.00063313 0.00440303)
(-0.0052408 0.000732312 0.00438818)
(-0.00507917 0.000748662 0.00436374)
(-0.00483221 0.000885973 0.00433706)
(-0.00461173 0.000760023 0.00430618)
(-0.00436729 0.00109518 0.00427643)
(-0.00419635 0.000805853 0.00423113)
(-0.00400332 0.00168523 0.00417695)
(-0.00358581 0.000999205 0.00414026)
(-0.00301328 0.00250187 0.00412621)
(-0.00175898 7.32165e-05 0.00416168)
(0.000161097 0.00209661 0.00537533)
(0.00229509 -0.00415527 0.0062851)
(0.00143332 -0.00126724 0.00773871)
(-0.000455027 -0.00970126 0.00681805)
(-0.00457771 0.000572996 0.00416714)
(0.00292049 -0.0138045 0.00108307)
(0.00157733 0.00973074 0.00595689)
(-0.00205041 -0.0268382 0.00839383)
(-0.0328794 -0.0109589 0.0212372)
(-0.0365623 -0.0542234 0.0374411)
(-0.0143415 -0.0292837 0.0600481)
(0.0717325 -0.0841736 0.0762552)
(-0.00117296 -0.0512528 -0.18069)
(-0.0227751 -0.251781 -0.0235876)
(-0.0500979 -0.0343645 -0.0238965)
(-0.0287515 0.157972 -0.0125906)
(-0.0270054 0.142528 -0.00602415)
(-0.0152618 0.171303 0.00460454)
(-0.00214221 0.166991 0.0105303)
(0.00483254 0.161323 0.00989327)
(0.0112683 0.152331 0.012171)
(0.0181576 0.144358 0.0120855)
(0.0222513 0.13154 0.0133066)
(0.026956 0.123562 0.0121244)
(0.031032 0.114345 0.0104846)
(0.035328 0.10896 0.00724287)
(0.0393314 0.103406 0.00479891)
(0.0448626 0.0987653 0.00290647)
(0.0513702 0.097306 0.000735733)
(0.056934 0.101726 -0.00282102)
(0.0644576 0.115973 -0.000964664)
(0.0726243 0.124357 0.00235109)
(0.0786268 0.138012 0.00451775)
(0.0857411 0.143968 0.0101305)
(0.0928801 0.150159 0.0152852)
(0.100898 0.153632 0.0181299)
(0.106914 0.155903 0.020268)
(0.110363 0.154196 0.0242284)
(0.109321 0.146863 0.0269121)
(0.102296 0.131866 0.0243168)
(0.0850763 0.104507 0.0202962)
(0.0614532 0.0745841 0.0167313)
(0.032035 0.0463945 0.0144733)
(0.000837146 0.0354061 0.0144306)
(-0.030734 0.0277104 0.0120522)
(-0.0670065 0.0210132 0.00418389)
(-0.101998 0.0154633 -0.00886938)
(-0.122856 0.0125961 -0.0171805)
(-0.123409 0.0160162 -0.00886387)
(-0.118499 0.00623557 0.00640666)
(0.0213378 0.0174584 0.00400409)
(0.029868 0.0295185 0.00553225)
(0.0199352 0.0197284 0.00114032)
(0.0252704 0.0239986 0.00184738)
(0.0198503 0.0115364 -0.00331645)
(0.0185604 0.0118831 -0.00136835)
(0.00755536 0.000865797 -0.00420844)
(-0.000315452 0.00304449 -0.00354537)
(-0.00466846 -0.000173548 -0.000797833)
(-0.00742386 0.000562001 0.000531347)
(-0.00735522 -0.00153954 0.00120181)
(-0.00763852 -0.00088928 0.00272431)
(-0.00606288 -0.000879785 0.00428755)
(-0.00420237 -0.000379935 0.00588933)
(-0.00312216 -0.000169828 0.0069001)
(-0.00274316 0.00029061 0.00780757)
(-0.00320007 0.000566633 0.00816871)
(-0.00377308 0.000838462 0.00824943)
(-0.00425171 0.00106971 0.00812364)
(-0.00458011 0.00128066 0.00788234)
(-0.00483236 0.00137784 0.00759196)
(-0.00500302 0.00142656 0.00731438)
(-0.00513005 0.0014244 0.00705842)
(-0.00523415 0.00140091 0.00683431)
(-0.00531917 0.00136397 0.00664619)
(-0.00536095 0.00133276 0.0064955)
(-0.00537393 0.00131013 0.00635922)
(-0.00534719 0.00128817 0.00624367)
(-0.00527615 0.00125169 0.00614748)
(-0.00518528 0.00120302 0.00607691)
(-0.00511047 0.00116868 0.00603316)
(-0.00504615 0.00115792 0.00600926)
(-0.00498292 0.00117583 0.00599627)
(-0.0049398 0.00121171 0.00598004)
(-0.0048873 0.00129453 0.00595846)
(-0.00480357 0.00137105 0.00591983)
(-0.00466189 0.00146598 0.0058722)
(-0.00448013 0.00148885 0.0058182)
(-0.00423241 0.00160986 0.00576523)
(-0.00397235 0.00148916 0.00571775)
(-0.00374356 0.00178059 0.00568794)
(-0.00347123 0.00143396 0.00564648)
(-0.0033141 0.00219992 0.00565628)
(-0.00269997 0.00113323 0.00564809)
(-0.00208801 0.00242855 0.00585719)
(-0.00064645 -0.000908493 0.00599749)
(0.00133133 0.000665546 0.00747312)
(0.0033922 -0.00566412 0.00866787)
(0.00232893 -0.00213375 0.0106703)
(-0.000453952 -0.0103069 0.0093358)
(-0.00591048 0.00115127 0.00433522)
(-0.00237064 -0.0109278 0.0027781)
(-0.00203557 0.0195919 0.00770608)
(0.00682105 -0.0205196 0.0148908)
(-0.0305771 0.00656375 0.0182953)
(-0.0256001 -0.0541839 0.0377797)
(-0.0171814 -0.0307664 0.050264)
(0.0980882 -0.0981098 0.0729272)
(-0.0325675 -0.0141371 -0.159529)
(-0.0522394 -0.249841 -0.0185682)
(-0.0975378 -0.0361665 -0.0207764)
(-0.0447047 0.145857 -0.00817775)
(-0.0436031 0.113626 0.000304075)
(-0.0180692 0.137525 0.00908897)
(-0.00357496 0.120308 0.0142409)
(0.0083485 0.110623 0.0111033)
(0.0111985 0.094673 0.0126776)
(0.0197076 0.0851232 0.0117014)
(0.0215085 0.0756557 0.0143422)
(0.0264289 0.0656899 0.0159155)
(0.030019 0.0562065 0.0175946)
(0.0329589 0.0458674 0.0174252)
(0.0357086 0.0373715 0.0153284)
(0.0389781 0.0288169 0.0115196)
(0.0432518 0.023126 0.0063767)
(0.0444778 0.0227573 0.000474033)
(0.0475818 0.0307178 -0.0029122)
(0.0528737 0.0481481 -0.00425356)
(0.0587149 0.0693156 -0.000693447)
(0.0671167 0.0894682 0.0068134)
(0.0780282 0.110817 0.014999)
(0.0891248 0.132151 0.021565)
(0.0975029 0.146077 0.0261398)
(0.101354 0.154886 0.0293803)
(0.105071 0.155987 0.0301831)
(0.099874 0.154461 0.029247)
(0.0831851 0.150307 0.0257301)
(0.0585958 0.13684 0.0209814)
(0.0304564 0.117474 0.0177478)
(-0.00128843 0.0931249 0.0140055)
(-0.0316145 0.0797174 0.0093345)
(-0.0616695 0.0632461 0.00266224)
(-0.0875566 0.053213 -0.00393308)
(-0.103908 0.0448185 -0.00527126)
(-0.107402 0.0355587 -0.0055846)
(-0.111269 0.0147668 -0.00229939)
(0.00944014 0.0165297 -0.0058936)
(0.0282838 0.031165 0.00479196)
(0.0183487 0.021852 0.00137443)
(0.0250657 0.028329 0.00274439)
(0.0221823 0.0135382 -0.00173221)
(0.0221821 0.0137189 0.000295489)
(0.0107792 0.00111078 -0.00607212)
(0.00183777 0.00295013 -0.00886273)
(-0.00438913 -0.000171356 -0.00636952)
(-0.00602582 0.00130362 -0.00410423)
(-0.00674508 -0.00172452 -0.00262019)
(-0.00801727 -0.00178601 -0.00105617)
(-0.00797398 -0.00304636 0.000508416)
(-0.00707092 -0.00258094 0.00199438)
(-0.00682096 -0.0019798 0.0031699)
(-0.00708681 -0.000952981 0.00421805)
(-0.00778619 -0.000128018 0.00500798)
(-0.00845236 0.000538986 0.00545653)
(-0.00897352 0.0010182 0.00557639)
(-0.00911252 0.0013621 0.00551674)
(-0.00912291 0.00155978 0.00537995)
(-0.00908654 0.00169426 0.00522537)
(-0.00902441 0.00175737 0.00507584)
(-0.00895884 0.00178135 0.00493276)
(-0.00888856 0.00177648 0.00480103)
(-0.0088005 0.00175764 0.00468432)
(-0.0086971 0.00173423 0.00457694)
(-0.00856464 0.0017076 0.00447922)
(-0.00839627 0.00167348 0.00438633)
(-0.00825898 0.0016343 0.00430437)
(-0.00819084 0.00161019 0.00424438)
(-0.00813607 0.00160581 0.00420425)
(-0.0080813 0.0016255 0.00417927)
(-0.00803576 0.00166379 0.00415596)
(-0.00795998 0.00174146 0.0041247)
(-0.00782723 0.00180847 0.00407645)
(-0.0076383 0.00189017 0.00400935)
(-0.00740454 0.00190992 0.00393032)
(-0.00714334 0.00202342 0.00384537)
(-0.00682272 0.00195731 0.00377673)
(-0.00671122 0.00227741 0.00372466)
(-0.00643984 0.00191684 0.0036766)
(-0.00639716 0.00262142 0.00372579)
(-0.00567506 0.00128994 0.00370893)
(-0.00485562 0.00238022 0.00402073)
(-0.00322511 -0.00145337 0.00398616)
(-0.00108745 -3.09043e-05 0.0054483)
(0.000265239 -0.00613487 0.00596313)
(-0.00118982 -0.00184649 0.00844024)
(-0.0047153 -0.0104885 0.00597336)
(-0.00983304 0.00112297 0.0012009)
(-0.012157 -0.00712722 0.00035435)
(-0.00666724 0.0212123 0.00355303)
(-0.00566445 -0.00655731 0.0133065)
(-0.0193082 0.0513459 0.016485)
(-0.00831996 -0.0549402 0.0222837)
(-0.025006 0.0208741 0.0376163)
(0.105424 -0.126146 0.0546073)
(-0.0590878 0.0691475 -0.157402)
(-0.0932125 -0.24362 -0.0286446)
(-0.142195 -0.0816009 -0.0212077)
(-0.0455991 0.12611 -0.00553438)
(-0.0547148 0.0492425 0.000878766)
(-0.0037577 0.0873872 0.00823945)
(-0.00412713 0.0554011 0.00970229)
(0.0187385 0.0458292 0.0053635)
(0.0147882 0.0222461 0.000840852)
(0.0186973 0.0129161 -0.00255593)
(0.0208678 0.00967161 -0.0021758)