/*--------------------------------*- C++ -*----------------------------------*\
| =========                 |                                                 |
| \\      /  F ield         | OpenFOAM: The Open Source CFD Toolbox           |
|  \\    /   O peration     | Version:  2.3.0                                 |
|   \\  /    A nd           | Web:      www.OpenFOAM.org                      |
|    \\/     M anipulation  |                                                 |
\*---------------------------------------------------------------------------*/
FoamFile
{
    version     2.0;
    format      ascii;
    class       volVectorField;
    location    "35";
    object      U.waterMean;
}
// * * * * * * * * * * * * * * * * * * * * * * * * * * * * * * * * * * * * * //

dimensions      [0 1 -1 0 0 0 0];

internalField   nonuniform List<vector> 
6144
(
(0.00871958 0.0190641 -0.00109962)
(0.00879174 0.00124781 -0.00161453)
(0.00461717 -0.000228363 -0.00236244)
(0.00451425 -0.00215843 -0.00233662)
(0.00297473 -0.00297433 -0.00193528)
(0.00293621 -0.0020658 -0.00171752)
(0.00237301 -0.00192503 -0.0013789)
(0.00243141 -0.000696566 -0.00115928)
(0.00224759 2.55884e-05 -0.00112572)
(0.0021905 0.00140497 -0.000789065)
(0.0021727 0.00220251 -0.000545841)
(0.00233101 0.00261181 -0.000247578)
(0.00248277 0.00236053 -0.000156409)
(0.00261732 0.0018837 -8.36397e-05)
(0.00267346 0.00124539 -0.000246573)
(0.00273368 0.000748425 -0.000377907)
(0.00276131 0.000296876 -0.000572138)
(0.002796 1.87611e-05 -0.000709166)
(0.00281914 -0.000213708 -0.000844505)
(0.00283288 -0.000334358 -0.000922483)
(0.0028375 -0.000424435 -0.000976895)
(0.00283627 -0.000456466 -0.00100163)
(0.00282926 -0.00047311 -0.00100944)
(0.00281895 -0.00047001 -0.00100126)
(0.00280484 -0.000460209 -0.000982291)
(0.00278911 -0.000447334 -0.000954744)
(0.00277219 -0.000434936 -0.000921397)
(0.00275463 -0.000428102 -0.000880324)
(0.0027365 -0.000422438 -0.000834734)
(0.00271865 -0.000428652 -0.00079187)
(0.00270293 -0.000422094 -0.000749627)
(0.00268502 -0.000457054 -0.000717308)
(0.00267271 -0.000417972 -0.000680617)
(0.00264973 -0.000504987 -0.00066345)
(0.00264592 -0.000365052 -0.000618737)
(0.00261384 -0.000583119 -0.000610475)
(0.00261734 -0.000248266 -0.000541568)
(0.00257649 -0.000742868 -0.000536834)
(0.00258152 -7.61288e-05 -0.000432808)
(0.00254025 -0.00106207 -0.000430868)
(0.00254432 0.000113303 -0.000305467)
(0.00252573 -0.00163287 -0.000312509)
(0.00251834 0.000281704 -0.000217099)
(0.00257477 -0.00252915 -0.00027308)
(0.00249102 0.000535128 -0.000300651)
(0.00261623 -0.00360743 -0.00044404)
(0.00242278 0.00146345 -0.000741666)
(0.00247332 -0.00408442 -0.000764969)
(0.00240568 0.00395401 -0.00114531)
(0.00247547 -0.00394168 -0.00117673)
(0.00393481 0.00868922 -0.00184326)
(0.00370507 -0.00914007 -0.00244554)
(0.00472842 0.0140599 -0.00429196)
(0.00468852 -0.0113463 -0.00585987)
(0.00733951 0.0363076 -0.00781313)
(0.00568722 -0.0322265 -0.011649)
(0.0154755 0.061707 -0.0036745)
(0.00971794 -0.0665521 -0.0200314)
(-0.043125 0.092641 -0.0882493)
(0.0278266 -0.102353 -0.123351)
(0.110699 -0.239503 -0.0133604)
(0.072814 -0.0687934 -0.00542418)
(0.0310745 -0.150053 -0.00456924)
(0.0308653 -0.144465 -0.00182417)
(0.0250799 -0.151418 -0.000444422)
(0.017183 -0.150026 0.00148609)
(0.0121694 -0.158004 0.00213308)
(0.00886274 -0.155579 0.00189036)
(0.00676546 -0.15657 0.00132153)
(0.00494416 -0.151534 0.000769621)
(0.00348583 -0.14886 0.00024072)
(0.00237363 -0.142513 -0.00016086)
(0.00164386 -0.137871 -0.00047265)
(0.00122872 -0.131477 -0.000686888)
(0.00101379 -0.126452 -0.000789236)
(0.000934968 -0.120995 -0.00082668)
(0.000876309 -0.116482 -0.000849378)
(0.000862758 -0.112137 -0.000884109)
(0.000922525 -0.10839 -0.000955535)
(0.00105675 -0.104853 -0.00108321)
(0.00119679 -0.10132 -0.00121576)
(0.00126356 -0.0975384 -0.00137017)
(0.00118734 -0.0933889 -0.00152843)
(0.00101246 -0.0886796 -0.00168847)
(0.000700573 -0.0834527 -0.00184797)
(0.000304169 -0.0775538 -0.00194867)
(-0.000205674 -0.0709374 -0.00211972)
(-0.000846222 -0.0631706 -0.00226458)
(-0.00167384 -0.0541209 -0.002452)
(-0.00220485 -0.0432839 -0.00234645)
(-0.0016322 -0.0324291 -0.00245898)
(-0.000919018 -0.022125 -0.00418437)
(-0.00101594 -0.0107968 -0.00450803)
(-0.00185308 -0.000233001 -0.00180356)
(-0.00165236 0.00624683 0.00541015)
(-0.00112359 0.00405018 0.0112689)
(0.0178747 0.0220616 0.00249865)
(0.0184681 0.00959232 0.00213452)
(0.0107796 0.00670641 -3.32735e-05)
(0.0107438 0.00423773 0.000805058)
(0.00656332 0.000977507 0.00123325)
(0.00624538 0.000742847 0.00165501)
(0.004255 -0.000646132 0.00211397)
(0.00405704 0.000598055 0.00188083)
(0.00357002 0.0013339 0.00164833)
(0.00367449 0.00293877 0.00178261)
(0.00389642 0.00352956 0.00198284)
(0.00444818 0.0038223 0.0023819)
(0.00480398 0.00335102 0.00252355)
(0.00513616 0.00283507 0.00262267)
(0.00521598 0.00207312 0.00254373)
(0.00532029 0.00149098 0.00248777)
(0.00532015 0.000921472 0.00238505)
(0.00536364 0.000560888 0.00231092)
(0.00537891 0.000245388 0.00222091)
(0.00539118 6.87071e-05 0.00216855)
(0.00538341 -7.00184e-05 0.00213396)
(0.00536633 -0.000134645 0.00212932)
(0.00533901 -0.000176215 0.00214107)
(0.00530527 -0.000188382 0.00217014)
(0.00526615 -0.000189136 0.00220914)
(0.00522442 -0.000183097 0.00225635)
(0.00518098 -0.000175083 0.00230863)
(0.00513707 -0.000171204 0.00236336)
(0.00509353 -0.000165621 0.00241867)
(0.00505076 -0.000171559 0.00246734)
(0.00501713 -0.000164754 0.00251329)
(0.00497237 -0.000199476 0.00254997)
(0.00494816 -0.000157379 0.00259241)
(0.00488708 -0.000249743 0.00261732)
(0.00488691 -9.91519e-05 0.00266584)
(0.00480076 -0.000347432 0.00267964)
(0.00483284 2.74534e-05 0.00274591)
(0.00471616 -0.000552638 0.00274773)
(0.00478743 0.000221109 0.00284003)
(0.00465011 -0.000946405 0.00282912)
(0.00476532 0.00046618 0.00294421)
(0.00463374 -0.00160862 0.0029217)
(0.00477892 0.000781885 0.00303148)
(0.00469517 -0.00259057 0.00299298)
(0.00476864 0.0012851 0.00302114)
(0.00472372 -0.0038415 0.00290097)
(0.00454018 0.00230523 0.00260557)
(0.00439309 -0.00480342 0.00248193)
(0.0039661 0.00428061 0.00175147)
(0.00398662 -0.00504866 0.00209081)
(0.00673526 0.00733252 0.000884199)
(0.00663199 -0.00793614 1.25471e-05)
(0.0057637 0.0151804 -0.000973086)
(0.0050506 -0.0086695 -0.000933472)
(0.0202544 0.0374842 0.00247182)
(0.0308463 -0.0430044 -0.00133676)
(-0.0157693 0.0293636 0.00466069)
(-0.0129563 -0.02252 -0.0155305)
(0.0182507 0.157972 -0.024281)
(0.155344 -0.126578 -0.0708553)
(0.161963 -0.218952 -0.00187831)
(0.0568768 0.0764317 0.00817469)
(-0.0113699 -0.114956 0.00337036)
(0.00142209 -0.0643928 0.00772576)
(-0.00231743 -0.0906347 0.00853958)
(-0.00824217 -0.101114 0.00956834)
(-0.00965995 -0.112654 0.00848038)
(-0.0100537 -0.114137 0.00751802)
(-0.00968538 -0.119406 0.00627835)
(-0.00957801 -0.118093 0.00514596)
(-0.00920826 -0.118603 0.00417514)
(-0.00878196 -0.114858 0.00336978)
(-0.00800303 -0.112411 0.00267217)
(-0.00709687 -0.107958 0.00206253)
(-0.0061138 -0.104698 0.00154138)
(-0.00514499 -0.100768 0.00116432)
(-0.00393594 -0.0974615 0.000930193)
(-0.00272427 -0.093848 0.000831199)
(-0.00200342 -0.090334 0.00076976)
(-0.0018213 -0.0867456 0.000710516)
(-0.00194519 -0.0830104 0.000673521)
(-0.00219246 -0.0790582 0.000665193)
(-0.00243569 -0.0749345 0.000679168)
(-0.00267076 -0.0706944 0.000737432)
(-0.00304106 -0.066413 0.000839261)
(-0.00367484 -0.0620849 0.000958105)
(-0.00459136 -0.0575137 0.000980207)
(-0.00578516 -0.0523609 0.000855665)
(-0.00731496 -0.0464533 0.000360734)
(-0.00834243 -0.0388536 0.00015663)
(-0.00794776 -0.0304278 0.000105746)
(-0.00688104 -0.0215262 -0.00134463)
(-0.00677904 -0.0113082 -0.00176336)
(-0.00737777 -0.00153516 0.00142158)
(-0.00819537 0.00442687 0.00944985)
(-0.00710783 0.00280206 0.0162153)
(0.021443 0.0227656 0.00362077)
(0.0228587 0.0140259 0.00356247)
(0.0143256 0.0104323 0.00130538)
(0.0143458 0.00908419 0.00228496)
(0.00837943 0.0044904 0.00252035)
(0.00741989 0.00363999 0.00296589)
(0.00393415 0.000907568 0.00350511)
(0.00334464 0.00171616 0.00327686)
(0.00248841 0.00204546 0.00303089)
(0.00291098 0.00343798 0.00315325)
(0.00332813 0.00363428 0.00329495)
(0.0042217 0.00388187 0.0036203)
(0.00466232 0.00340514 0.00374127)
(0.00510228 0.00307553 0.00383621)
(0.00520016 0.00241431 0.0037873)
(0.00532038 0.00192842 0.00377272)
(0.00525858 0.0013749 0.00372911)
(0.00525707 0.001012 0.00372458)
(0.00518904 0.000664367 0.0037172)
(0.00514245 0.000454859 0.00373226)
(0.00507359 0.000276843 0.00375045)
(0.00501095 0.000177381 0.0037808)
(0.00494442 0.000104841 0.00381368)
(0.0048812 6.88971e-05 0.00385306)
(0.0048182 5.04712e-05 0.00389392)
(0.0047575 4.48908e-05 0.00393638)
(0.00469864 4.62578e-05 0.00397926)
(0.00464125 4.62847e-05 0.00402271)
(0.00458535 4.89121e-05 0.00406597)
(0.00452917 4.46545e-05 0.00410915)
(0.00447971 4.85875e-05 0.00415247)
(0.00441552 2.68232e-05 0.00419105)
(0.0043739 5.99362e-05 0.004233)
(0.00428839 -1.76763e-05 0.00426501)
(0.00427832 0.000103243 0.00431315)
(0.00415848 -0.000124263 0.00433631)
(0.00420244 0.000200639 0.00439452)
(0.00403205 -0.000341797 0.00440598)
(0.00415345 0.000381386 0.00447837)
(0.00392586 -0.000707564 0.00447011)
(0.00415017 0.000691957 0.0045538)
(0.00386343 -0.00124749 0.0045139)
(0.00421918 0.00119868 0.00460562)
(0.00391583 -0.00200291 0.00452815)
(0.00431868 0.00197902 0.00460718)
(0.00402052 -0.00315243 0.00449801)
(0.00411388 0.0030195 0.0044033)
(0.00372493 -0.00465335 0.00431925)
(0.00323827 0.00445263 0.00358403)
(0.00372405 -0.00592981 0.00414148)
(0.00582231 0.00620067 0.00271555)
(0.00597499 -0.00587536 0.00214105)
(0.00462775 0.017854 0.00230239)
(0.00408672 -0.0182014 0.00419531)
(0.0294575 0.0224571 0.00707688)
(0.0423697 -0.0544247 0.00313773)
(-0.0421047 0.0533588 0.0205578)
(-0.0603073 -0.109428 -0.00402953)
(-0.0434778 0.152807 -0.0536702)
(0.156455 -0.138915 -0.044355)
(0.182636 -0.183726 0.0014104)
(0.0770745 0.121837 0.00762589)
(0.0692117 -0.104199 0.00839596)
(0.0356273 -0.0306399 0.012943)
(0.0151995 -0.0652368 0.0127431)
(0.007202 -0.0719012 0.0120012)
(0.00192165 -0.0808689 0.0097338)
(-0.00293801 -0.0814123 0.00764012)
(-0.00569077 -0.0856073 0.00541694)
(-0.00770837 -0.0832417 0.00354918)
(-0.00867913 -0.0828399 0.00194032)
(-0.00883248 -0.078507 0.000617142)
(-0.00798188 -0.0757236 -0.000591081)
(-0.0068579 -0.0704475 -0.00157815)
(-0.00589164 -0.0662821 -0.00189021)
(-0.00537403 -0.0613152 -0.00193873)
(-0.00503845 -0.0565594 -0.00168695)
(-0.00466067 -0.0511336 -0.00121629)
(-0.00403251 -0.0469179 -0.00058346)
(-0.0034602 -0.0440067 0.000336071)
(-0.00316531 -0.0424545 0.00127128)
(-0.00316314 -0.0418097 0.00204213)
(-0.00339369 -0.0416059 0.00261357)
(-0.00381958 -0.0413985 0.0030203)
(-0.00449264 -0.0409513 0.00324782)
(-0.00543859 -0.0401358 0.00333249)
(-0.00678335 -0.0387814 0.00330791)
(-0.00855436 -0.0367775 0.0029648)
(-0.0108871 -0.0337342 0.00201463)
(-0.0129364 -0.0293717 0.000936687)
(-0.0131445 -0.0235964 0.00041299)
(-0.0123417 -0.0170438 -0.000516059)
(-0.0128789 -0.00872029 -0.000252252)
(-0.0148694 -0.000882713 0.00341039)
(-0.0167936 0.00421804 0.0113104)
(-0.0180534 0.00188999 0.0178619)
(0.0231192 0.0230619 0.00372586)
(0.0261041 0.0167552 0.00411749)
(0.0163067 0.0119678 0.0011417)
(0.0176112 0.0122667 0.00162818)
(0.010836 0.0068026 0.00151699)
(0.00993574 0.00623407 0.00223686)
(0.0043097 0.00158933 0.00305108)
(0.00284459 0.00185642 0.00297132)
(0.00130084 0.00133355 0.00297226)
(0.00202003 0.00301098 0.00321392)
(0.00247723 0.00302251 0.00348353)
(0.00339495 0.00349873 0.00396405)
(0.00380212 0.00319581 0.00412959)
(0.00426394 0.0031068 0.00424783)
(0.00434883 0.00255263 0.00418604)
(0.00446788 0.00217122 0.00417842)
(0.00437054 0.00164077 0.00414771)
(0.004351 0.00130846 0.00415953)
(0.00425075 0.000948889 0.00416154)
(0.0041806 0.000720559 0.0041843)
(0.00408601 0.000510844 0.0042083)
(0.0040032 0.000383505 0.00424425)
(0.0039136 0.000285928 0.00427961)
(0.00382757 0.000230656 0.0043187)
(0.00374538 0.000195772 0.00435954)
(0.00366948 0.000180026 0.00440197)
(0.00359844 0.000174766 0.00444436)
(0.00353149 0.000173062 0.00448663)
(0.00346767 0.000176435 0.0045279)
(0.00340664 0.000176879 0.00456774)
(0.00335101 0.00018536 0.00460656)
(0.00328693 0.000174276 0.00464189)
(0.00324225 0.000204385 0.00468183)
(0.00316279 0.000142519 0.00471108)
(0.0031509 0.000247895 0.00475457)
(0.00303783 4.5731e-05 0.00477384)
(0.00308953 0.000346577 0.0048238)
(0.00291899 -0.000148754 0.00482593)
(0.00306759 0.000547604 0.00488352)
(0.00282122 -0.000460951 0.00485929)
(0.00309609 0.000907042 0.00492467)
(0.00276609 -0.000900882 0.00486409)
(0.00319309 0.00148674 0.00494676)
(0.00282537 -0.00150946 0.00484517)
(0.00341903 0.00234355 0.00497618)
(0.00296884 -0.00246578 0.00481149)
(0.00351538 0.00339721 0.00486197)
(0.00281809 -0.00390933 0.00466351)
(0.00285169 0.00445048 0.00428692)
(0.00311998 -0.00624963 0.00467965)
(0.00383082 0.00641232 0.00351605)
(0.00339932 -0.0066792 0.00338812)
(0.00799352 0.0149866 0.00472401)
(0.0102208 -0.0250539 0.00496646)
(0.0314286 0.0114358 0.0123886)
(0.0307657 -0.0435165 0.00836362)
(-0.0114207 0.0746249 0.0214535)
(-0.0731215 -0.129383 0.0142411)
(-0.0410271 0.191012 -0.100979)
(0.168066 -0.189045 -0.026253)
(0.197271 -0.16361 0.00247854)
(0.0761842 0.116338 -0.000260378)
(0.0806557 -0.0377919 0.00752508)
(0.00163356 0.0466042 0.0126069)
(0.000553305 -0.0258545 0.0154852)
(-0.00310145 -0.0196775 0.0104895)
(-0.00600186 -0.0341995 0.00566117)
(-0.0086343 -0.0351037 0.00172614)
(-0.00933145 -0.0377354 -0.0012448)
(-0.00964625 -0.0327928 -0.00339048)
(-0.0096917 -0.0296182 -0.00501465)
(-0.00946315 -0.0212895 -0.00597688)
(-0.00864802 -0.0133321 -0.00598452)
(-0.00770331 -0.00443585 -0.00444712)
(-0.00690843 0.00131277 -0.00279863)
(-0.00609934 0.00558668 -0.0011955)
(-0.00506826 0.00765596 0.00015446)
(-0.00370074 0.00821646 0.00125712)
(-0.00237234 0.00726826 0.0021664)
(-0.00172767 0.00483646 0.00312709)
(-0.00170436 0.00159525 0.00395306)
(-0.00224088 -0.00217399 0.00455917)
(-0.00315274 -0.00600355 0.00489183)
(-0.00435176 -0.00963577 0.00504418)
(-0.00580666 -0.0128108 0.00498406)
(-0.0075278 -0.0153508 0.00475451)
(-0.00962588 -0.0171155 0.00425823)
(-0.012085 -0.0180784 0.00325185)
(-0.0145339 -0.0179624 0.00184932)
(-0.0161698 -0.0168375 0.000734742)
(-0.0166014 -0.0143794 0.000400739)
(-0.0167411 -0.0104081 0.000288953)
(-0.0181328 -0.00470795 0.00106785)
(-0.0204461 0.00066057 0.0049484)
(-0.0233958 0.00410942 0.0124095)
(-0.025461 0.00135365 0.0185689)
(0.0233594 0.023153 0.00439844)
(0.0282927 0.0192807 0.00507246)
(0.0175347 0.0125297 0.00118945)
(0.0201589 0.0141551 0.00155896)
(0.0132356 0.0075167 0.000456379)
(0.0131234 0.0082623 0.000999115)
(0.00622001 0.00268714 0.00124125)
(0.00359274 0.00281488 0.00184649)
(0.000279906 0.000305635 0.00227355)
(0.000510509 0.00192119 0.00280117)
(0.000923629 0.00177924 0.00322721)
(0.00171433 0.00271559 0.00394805)
(0.00200953 0.00269206 0.00416058)
(0.00247639 0.00289703 0.00431836)
(0.00256537 0.00247601 0.00423179)
(0.00264221 0.00218943 0.00423554)
(0.00244274 0.00169424 0.00420173)
(0.00232874 0.00141261 0.00422374)
(0.0021484 0.00107391 0.00422061)
(0.00202108 0.000862056 0.00423379)
(0.00187577 0.000646356 0.00423807)
(0.00175682 0.000506444 0.00425228)
(0.00164292 0.000387145 0.00426801)
(0.00154279 0.000312706 0.00429103)
(0.00145147 0.000263355 0.00431588)
(0.00137145 0.000238396 0.00434357)
(0.00130116 0.000226034 0.00437183)
(0.00123825 0.000221882 0.00439963)
(0.00118135 0.000223961 0.00442639)
(0.00112905 0.000225497 0.00444996)
(0.00108096 0.000235286 0.00446947)
(0.00102837 0.000229733 0.00448444)
(0.000989114 0.000259511 0.00450313)
(0.000921951 0.000209621 0.00451044)
(0.000914863 0.00030891 0.0045367)
(0.00081637 0.000128022 0.00453254)
(0.000872098 0.000419327 0.00456765)
(0.000714048 -3.17997e-05 0.00454147)
(0.000865913 0.000650195 0.00458304)
(0.000626907 -0.000275856 0.00452846)
(0.000899644 0.00105699 0.00457511)
(0.000577734 -0.000609093 0.00448675)
(0.000997196 0.00169381 0.00454943)
(0.00065261 -0.00103285 0.0044356)
(0.00124708 0.00260797 0.00454976)
(0.000895628 -0.0016007 0.00440515)
(0.0014639 0.0037128 0.00448199)
(0.00110875 -0.00268907 0.0042838)
(0.00157225 0.0046319 0.00398471)
(0.0016488 -0.00541677 0.00389615)
(0.00230582 0.00670296 0.00266739)
(0.00211759 -0.00807781 0.00451391)
(0.0107141 0.0103501 0.00810995)
(0.0131785 -0.0241327 0.012451)
(0.0266232 0.0143765 0.0311426)
(0.0174448 -0.0489311 0.0302493)
(-0.00242884 0.0512032 0.0578395)
(-0.0986684 -0.130516 0.0464385)
(-0.00260062 0.158208 -0.162197)
(0.120854 -0.240044 -0.00940004)
(0.177857 -0.117266 0.00464945)
(0.0674923 0.118019 -0.00582587)
(0.0779062 0.0294511 0.00555047)
(0.0274913 0.0772333 0.00592525)
(0.0279488 0.0285808 0.00683399)
(0.00911055 0.0338363 0.00179361)
(0.00442402 0.0254599 -0.00217638)
(-3.48643e-05 0.0303316 -0.00444951)
(-0.0023463 0.0332944 -0.00630144)
(-0.00475689 0.0427488 -0.00680683)
(-0.00636272 0.0489831 -0.00620886)
(-0.00743819 0.0575209 -0.00448558)
(-0.00733968 0.0623202 -0.0023816)
(-0.00670734 0.0663512 -0.000164025)
(-0.00561767 0.0675389 0.00160469)
(-0.00434066 0.0676728 0.00314755)
(-0.00277671 0.0653893 0.004434)
(-0.00123105 0.0616666 0.00534898)
(4.87941e-05 0.0567791 0.00608608)
(0.000630575 0.0505466 0.00666016)
(0.000516389 0.0438051 0.0069984)
(-6.48856e-05 0.036666 0.00705825)
(-0.00102894 0.0296482 0.00679774)
(-0.00228798 0.022766 0.00645452)
(-0.00388178 0.0162779 0.00603703)
(-0.00575645 0.0103461 0.0055237)
(-0.00787916 0.00528828 0.00454679)
(-0.0102021 0.00128194 0.0032087)
(-0.01273 -0.00122175 0.00197738)
(-0.0150862 -0.00238076 0.00156315)
(-0.0170108 -0.00245132 0.00172499)
(-0.0186993 -0.00129759 0.00195213)
(-0.0214868 0.00127018 0.0028332)
(-0.0253746 0.00384132 0.00637869)
(-0.0305832 0.00536087 0.0125276)
(-0.0365423 0.0013856 0.0176363)
(0.0216051 0.0229463 0.00678442)
(0.0294033 0.0218689 0.00649878)
(0.0175697 0.0127368 0.0018826)
(0.0215831 0.015788 0.00275782)
(0.0146575 0.0067644 0.000632672)
(0.0152499 0.0089613 0.000626584)
(0.00854998 0.00271926 -0.000197866)
(0.0056145 0.00387109 0.000559791)
(0.000918714 -5.26265e-05 0.00144239)
(-0.000237492 0.000958146 0.00218418)
(-0.000438031 5.9923e-05 0.00272016)
(0.000225473 0.00137682 0.00370969)
(0.000656059 0.00168889 0.00407152)
(0.00126503 0.00232222 0.00440929)
(0.00146923 0.00204967 0.00443676)
(0.00156391 0.00191448 0.00452065)
(0.00130151 0.00148568 0.00448819)
(0.0011246 0.00131027 0.00450601)
(0.000892474 0.00105304 0.00446856)
(0.000732665 0.000924821 0.00444231)
(0.000568047 0.000764062 0.00439679)
(0.000439516 0.000664445 0.00435947)
(0.000320979 0.00056695 0.00432202)
(0.000221372 0.000503713 0.00429222)
(0.000137404 0.000457087 0.00426574)
(7.14039e-05 0.000432935 0.00424577)
(1.89853e-05 0.00042078 0.00423029)
(-2.37199e-05 0.000419888 0.00421716)
(-5.90037e-05 0.000425828 0.00420519)
(-8.96418e-05 0.000432271 0.00419233)
(-0.000117054 0.000444518 0.00417936)
(-0.000148867 0.000440961 0.00416519)
(-0.000168057 0.000469669 0.00415802)
(-0.000211429 0.000426908 0.00414128)
(-0.000196587 0.000526854 0.00414883)
(-0.000275323 0.000373983 0.00411735)
(-0.0001983 0.000666274 0.00414441)
(-0.000339175 0.000272015 0.00408599)
(-0.000163934 0.000933127 0.00413781)
(-0.000378276 9.76983e-05 0.00404767)
(-9.95757e-05 0.00136016 0.00411529)
(-0.000368692 -0.000160537 0.00399337)
(-1.77588e-05 0.0019932 0.00406632)
(-0.00022707 -0.000465739 0.00395484)
(0.00013231 0.00290081 0.0040335)
(0.000100273 -0.000797639 0.00399579)
(0.000422965 0.00406723 0.00409951)
(0.000596637 -0.00182182 0.00410104)
(0.00118291 0.00497468 0.00413374)
(0.00133507 -0.00455661 0.00366967)
(0.00233671 0.00665456 0.00259376)
(0.00328245 -0.00811234 0.00500284)
(0.00960329 0.00800973 0.0107073)
(0.00852411 -0.0140616 0.0192933)
(0.0136712 0.018606 0.0426303)
(-0.00419248 -0.0294997 0.0518776)
(0.0131827 0.0330981 0.0909088)
(-0.0763456 -0.123396 0.0791099)
(0.03049 0.0465431 -0.168469)
(0.0706758 -0.252834 -0.00464591)
(0.142818 -0.062475 -0.00048291)
(0.0555375 0.136904 -0.00753076)
(0.0618305 0.0926293 0.00475548)
(0.0292947 0.125622 0.00394249)
(0.0237618 0.11001 0.00333108)
(0.0110635 0.115107 -0.000200086)
(0.0066169 0.111285 -0.00169815)
(0.00184821 0.117457 -0.00262937)
(-0.00103086 0.119284 -0.00222917)
(-0.00415408 0.125683 -0.00106543)
(-0.00621198 0.127805 0.000586636)
(-0.00691887 0.131635 0.00246998)
(-0.00663593 0.13132 0.00431882)
(-0.00582341 0.130941 0.00584496)
(-0.00488795 0.128178 0.00702145)
(-0.00253506 0.125146 0.00796042)
(-0.000273186 0.120474 0.00861668)
(0.00189731 0.114746 0.00896558)
(0.00362768 0.108063 0.00911305)
(0.00446095 0.099844 0.00904802)
(0.00408496 0.0906215 0.00885618)
(0.00299633 0.0805954 0.00849887)
(0.0017247 0.0707322 0.00792192)
(0.000300912 0.0605564 0.0073787)
(-0.00160453 0.0505111 0.00671443)
(-0.00415644 0.0406263 0.00599002)
(-0.00709224 0.0316902 0.00501744)
(-0.0104131 0.0238623 0.00398563)
(-0.0137748 0.0179761 0.0033842)
(-0.0167587 0.0135487 0.00337672)
(-0.0191458 0.0103026 0.00371849)
(-0.0214481 0.00811812 0.00454024)
(-0.0247029 0.00661215 0.00643888)
(-0.0287006 0.00487027 0.00910701)
(-0.0332363 0.00443763 0.0130802)
(-0.0387607 0.000887788 0.0157615)
(0.0172761 0.0218441 0.00654312)
(0.0288425 0.0254757 0.0080666)
(0.0152885 0.0125072 0.00328381)
(0.0209373 0.0178583 0.00539588)
(0.0137585 0.00563709 0.00255848)
(0.0151483 0.00869825 0.00242412)
(0.00914501 0.00122275 0.000637695)
(0.00654207 0.00377124 0.000308635)
(0.00140528 -0.000238557 0.00103014)
(-0.000716087 0.0008919 0.00205363)
(-0.0020244 -0.00100868 0.00251173)
(-0.00243913 0.000338766 0.00345612)
(-0.00239243 0.000740117 0.00393896)
(-0.00158857 0.00161947 0.0045894)
(-0.00132616 0.00143758 0.00484068)
(-0.00125202 0.00150215 0.00505153)
(-0.00166067 0.00118459 0.0050121)
(-0.00198693 0.00115575 0.00498671)
(-0.0023251 0.00100567 0.00488582)
(-0.00253753 0.000992389 0.00480138)
(-0.00272534 0.000921819 0.00469986)
(-0.00285201 0.000904337 0.00461566)
(-0.00295366 0.000867205 0.00453613)
(-0.00302984 0.000850529 0.00447407)
(-0.00308607 0.000835386 0.00442389)
(-0.00312384 0.000829968 0.00438722)
(-0.00314441 0.000828776 0.00435676)
(-0.00315149 0.000833425 0.00433131)
(-0.00314726 0.000841844 0.00431112)
(-0.00313391 0.000849724 0.00429489)
(-0.00311774 0.000859517 0.00428205)
(-0.00310431 0.00085725 0.00427181)
(-0.00309118 0.000877559 0.00426771)
(-0.00309406 0.000847052 0.00426012)
(-0.00306666 0.000937877 0.00426938)
(-0.0030952 0.000822262 0.00425302)
(-0.00302802 0.00109069 0.00428489)
(-0.00308396 0.000769995 0.00425239)
(-0.00295632 0.00136942 0.00431706)
(-0.00303442 0.0006526 0.00426604)
(-0.00287673 0.00179062 0.0043384)
(-0.00294808 0.000430834 0.00427076)
(-0.00282861 0.00238083 0.00431649)
(-0.00277125 7.78189e-05 0.00427951)
(-0.00280001 0.00321031 0.00425972)
(-0.00240963 -0.000385923 0.00430865)
(-0.00243922 0.00428206 0.00428407)
(-0.00166144 -0.00155849 0.00450111)
(-0.00129382 0.00524128 0.00468231)
(-0.000422947 -0.00397897 0.00428222)
(7.15782e-05 0.00667587 0.00324576)
(0.00261367 -0.0076272 0.00432484)
(0.00201901 0.00721278 0.00991533)
(-0.00298963 -0.0163048 0.0155397)
(-0.00637182 0.0108278 0.0369882)
(-0.0204886 -0.0365726 0.0524629)
(0.00523549 -0.0102548 0.0883776)
(-0.0295573 -0.113893 0.0850761)
(0.0295207 -0.0618204 -0.16922)
(0.0357808 -0.26835 -0.00459669)
(0.0740092 0.00468384 -0.00295065)
(0.03047 0.179868 -0.00674974)
(0.0360976 0.171472 0.00568657)
(0.0225493 0.198955 0.00714909)
(0.0199146 0.194809 0.00851925)
(0.0120645 0.20086 0.00634347)
(0.00742287 0.197838 0.00614088)
(0.00241696 0.200797 0.00591534)
(-0.00114765 0.198349 0.00664905)
(-0.00410728 0.199083 0.00742577)
(-0.00565499 0.196107 0.00843821)
(-0.00646414 0.195528 0.00892267)
(-0.00587141 0.191362 0.00969605)
(-0.00482902 0.188037 0.0100825)
(-0.00281513 0.182668 0.0108988)
(-0.000495042 0.177965 0.0108457)
(0.00247618 0.172777 0.0111415)
(0.00544957 0.166309 0.0110875)
(0.00830456 0.159655 0.011092)
(0.0105673 0.152277 0.0108865)
(0.0120439 0.144124 0.010812)
(0.0124566 0.134706 0.010674)
(0.0119307 0.124316 0.0103674)
(0.0108001 0.112892 0.00989078)
(0.00903828 0.101035 0.00893397)
(0.0062567 0.0890524 0.00814412)
(0.00261568 0.0767962 0.00708336)
(-0.00162972 0.0646161 0.00601388)
(-0.00659459 0.0526551 0.00472078)
(-0.0113674 0.0414855 0.00397731)
(-0.0160561 0.0314976 0.00446747)
(-0.0202528 0.0229917 0.00600088)
(-0.025503 0.0152938 0.00817966)
(-0.0326887 0.00805069 0.0106254)
(-0.0412963 0.00385198 0.0123918)
(-0.0520942 -0.00064459 0.012081)
(0.0134247 0.0171638 0.00473612)
(0.0270813 0.028751 0.00823998)
(0.0113058 0.0118511 0.00395326)
(0.0185945 0.0204262 0.00699429)
(0.0116141 0.00547086 0.0041733)
(0.0134007 0.00921568 0.00415632)
(0.00743283 -4.09293e-05 0.00235955)
(0.00559763 0.00332828 0.00113678)
(0.000883029 -0.000669051 0.00158609)
(-0.00116876 0.00110181 0.00256492)
(-0.00287092 -0.0013872 0.00307038)
(-0.00364396 -0.000371682 0.00395807)
(-0.00350711 -0.000741888 0.00474752)
(-0.00255866 0.000123575 0.00560644)
(-0.00226598 7.687e-06 0.00617461)
(-0.00220499 0.000563552 0.00661352)
(-0.00257327 0.000607587 0.00675155)
(-0.00283689 0.00094529 0.00680027)
(-0.00312615 0.00101477 0.00671879)
(-0.00329058 0.00118224 0.00662614)
(-0.00343775 0.00121961 0.00650818)
(-0.00352027 0.00128367 0.00641035)
(-0.00358016 0.00129696 0.00631954)
(-0.00361279 0.00131333 0.00625002)
(-0.00362454 0.00131794 0.00619491)
(-0.00361656 0.00132304 0.00615476)
(-0.0035966 0.00132777 0.00612306)
(-0.00356606 0.00133263 0.00609886)
(-0.00352849 0.0013355 0.00608053)
(-0.00348395 0.00133585 0.00606733)
(-0.00343755 0.00133737 0.0060595)
(-0.00339196 0.0013309 0.00605639)
(-0.00335305 0.00134394 0.00605808)
(-0.00332433 0.00132172 0.00605827)
(-0.00328313 0.00140676 0.00606634)
(-0.00327714 0.00131791 0.00605246)
(-0.00321347 0.00157154 0.00606656)
(-0.003227 0.00129248 0.00602491)
(-0.00311913 0.0018507 0.00605489)
(-0.00312903 0.00118815 0.00598735)
(-0.00300235 0.00225012 0.00603043)
(-0.00294861 0.000956143 0.0059472)
(-0.00289343 0.00281313 0.00598178)
(-0.00267374 0.000530432 0.00591865)
(-0.00289916 0.0035871 0.005851)
(-0.00226457 -0.000219012 0.00588717)
(-0.00262069 0.00452385 0.00576366)
(-0.00156669 -0.00180075 0.00602435)
(-0.00173755 0.00569232 0.00641875)
(-0.000538739 -0.00421641 0.00602679)
(-0.000521671 0.00780507 0.00571993)
(0.00388992 -0.00781008 0.00628873)
(0.00250419 0.00833244 0.0114008)
(-0.00244004 -0.0177032 0.0153102)
(-0.0146053 0.00791491 0.0356125)
(-0.0220355 -0.0420593 0.0511776)
(-0.00983518 -0.0235066 0.0871897)
(0.016268 -0.0984804 0.083295)
(0.00120412 -0.089307 -0.154844)
(-0.00375433 -0.262682 -0.00566359)
(-0.0120327 0.0371844 -0.00668394)
(-0.00261747 0.205976 -0.00749749)
(0.00558189 0.209287 0.0070509)
(0.0106631 0.238595 0.0102476)
(0.0111416 0.236978 0.0125302)
(0.00841525 0.244762 0.0115967)
(0.00515658 0.241283 0.0118924)
(0.00180979 0.243554 0.011775)
(-0.00135816 0.239277 0.0123567)
(-0.00318224 0.238234 0.0126815)
(-0.00447238 0.233607 0.0131779)
(-0.00493509 0.230545 0.0133733)
(-0.00433014 0.225608 0.0137059)
(-0.00262971 0.221263 0.0136823)
(0.000307753 0.216268 0.0139527)
(0.00325283 0.211429 0.0139311)
(0.00684615 0.206424 0.0140706)
(0.01033 0.201429 0.0140516)
(0.0135064 0.196659 0.0141316)
(0.0161408 0.19234 0.0140711)
(0.0182285 0.188236 0.0140265)
(0.019341 0.184338 0.0140011)
(0.0190821 0.180349 0.0139926)
(0.0178825 0.176051 0.0139945)
(0.0160565 0.171179 0.0139807)
(0.0134097 0.165532 0.0145609)
(0.0104998 0.158243 0.0150601)
(0.00702063 0.149829 0.015564)
(0.00301444 0.139054 0.0161307)
(-0.00152137 0.126314 0.0164689)
(-0.00658346 0.112965 0.016678)
(-0.0123195 0.0975046 0.0163496)
(-0.0190598 0.0810363 0.0155853)
(-0.027664 0.0613534 0.012881)
(-0.0394647 0.0368212 0.0031824)
(-0.0506472 0.0111978 -0.0136652)
(0.00245508 0.0136861 -0.00648456)
(0.0246168 0.0308616 0.00550735)
(0.00533091 0.0111803 0.00154363)
(0.0146891 0.0234271 0.00514265)
(0.00805293 0.00644569 0.00278776)
(0.0105126 0.011027 0.003012)
(0.00480241 0.000247665 0.00108175)
(0.00323056 0.00378755 -0.000808883)
(-0.00111877 -0.000500582 -0.001185)
(-0.00286582 0.00153948 -0.0007038)
(-0.00470783 -0.00140506 -0.000101658)
(-0.00586477 -0.000621427 0.000541261)
(-0.00665512 -0.00180666 0.00131811)
(-0.00621402 -0.000909658 0.00211923)
(-0.00644596 -0.000856907 0.0028251)
(-0.0065799 2.94854e-05 0.00335085)
(-0.00707569 0.000273313 0.00369139)
(-0.00736347 0.000809181 0.00389222)
(-0.00764584 0.000984859 0.00395587)
(-0.00775994 0.00125054 0.00396876)
(-0.00785459 0.00135309 0.0039383)
(-0.00788737 0.00146619 0.0039106)
(-0.0078958 0.00151398 0.00388269)
(-0.00788299 0.00155232 0.00386518)
(-0.00785357 0.00157096 0.00385362)
(-0.00780733 0.00158512 0.00384954)
(-0.00774472 0.00159423 0.00384998)
(-0.00766814 0.00160119 0.00385412)
(-0.00758459 0.00160645 0.00385917)
(-0.00749643 0.00160996 0.00386423)
(-0.00741315 0.00161529 0.00387002)
(-0.00733453 0.00161656 0.00387702)
(-0.00727453 0.0016339 0.0038853)
(-0.00722216 0.0016239 0.00389184)
(-0.0071788 0.00170327 0.00389852)
(-0.00712865 0.00163829 0.00389182)
(-0.00708677 0.00186804 0.00388879)
(-0.00700172 0.00163388 0.00386089)
(-0.0069701 0.00215493 0.00384716)
(-0.00681433 0.00156939 0.00380748)
(-0.00687461 0.00257821 0.00378946)
(-0.00661183 0.0013463 0.00374779)
(-0.00683666 0.00312423 0.00371976)
(-0.00635156 0.00089311 0.00368757)
(-0.00677697 0.00389743 0.0035758)
(-0.00590625 6.69777e-05 0.00356651)
(-0.00629212 0.00487645 0.00337382)
(-0.00521756 -0.00173501 0.00344294)
(-0.0055715 0.00617368 0.00387627)
(-0.00444942 -0.0048952 0.00322624)
(-0.00478943 0.00808982 0.0037533)
(0.000266113 -0.00872735 0.00494534)
(-0.00340741 0.0103645 0.00800838)
(-0.00697918 -0.0186622 0.0100644)
(-0.0219007 0.0158487 0.0257781)
(-0.019418 -0.055214 0.0399528)
(-0.0282558 -0.0241732 0.0658669)
(0.0503291 -0.128 0.0682008)
(-0.0337126 -0.0343627 -0.169246)
(-0.040726 -0.257677 -0.0153411)