/*--------------------------------*- C++ -*----------------------------------*\
| =========                 |                                                 |
| \\      /  F ield         | OpenFOAM: The Open Source CFD Toolbox           |
|  \\    /   O peration     | Version:  2.3.0                                 |
|   \\  /    A nd           | Web:      www.OpenFOAM.org                      |
|    \\/     M anipulation  |                                                 |
\*---------------------------------------------------------------------------*/
FoamFile
{
    version     2.0;
    format      ascii;
    class       volScalarField;
    location    "35";
    object      w2;
}
// * * * * * * * * * * * * * * * * * * * * * * * * * * * * * * * * * * * * * //

dimensions      [0 0 0 0 0 0 0];

internalField   nonuniform List<scalar> 
6144
(
0.452838
0.452838
0.452838
0.452838
0.452838
0.452838
0.452838
0.452838
0.452838
0.452838
0.452838
0.452838
0.452838
0.452838
0.452838
0.452838
0.452838
0.452838
0.452838
0.452838
0.452838
0.452838
0.452838
0.452838
0.452838
0.452838
0.452838
0.452838
0.452838
0.452838
0.452838
0.452838
0.452838
0.452838
0.452838
0.452838
0.452838
0.452838
0.452838
0.452838
0.452838
0.452838
0.452838
0.452838
0.452838
0.452838
0.452838
0.452838
0.452838
0.452838
0.452838
0.452838
0.452838
0.452838
0.452838
0.452838
0.452839
0.452842
0.480501
0.475876
0.179304
0.000929974
4.30034e-06
0.000838135
0.0221933
0.00257262
0.00195847
0.0216707
0.00417068
0.00436948
0.0151225
0.0298976
0.0389188
0.0152102
0.00579057
0.00793421
0.010604
0.0263631
0.0785587
0.0207916
0.170528
0.0465625
0.225165
0.0252816
0.0112544
0.0213075
0.0125891
0.00620825
0.0223727
0.0314876
0.118559
0.0500068
0.0123727
0.00260507
0.000436863
8.41807e-05
0.452838
0.452838
0.452838
0.452838
0.452838
0.452838
0.452838
0.452838
0.452838
0.452838
0.452838
0.452838
0.452838
0.452838
0.452838
0.452838
0.452838
0.452838
0.452838
0.452838
0.452838
0.452838
0.452838
0.452838
0.452838
0.452838
0.452838
0.452838
0.452838
0.452838
0.452838
0.452838
0.452838
0.452838
0.452838
0.452838
0.452838
0.452838
0.452838
0.452838
0.452838
0.452838
0.452838
0.452838
0.452838
0.452838
0.452838
0.452838
0.452838
0.452838
0.452838
0.452838
0.452838
0.452838
0.452838
0.452838
0.452839
0.4529
0.459278
0.517737
0.151606
2.64814e-05
4.89376e-06
0.00376895
0.000178697
0.000642955
0.000223964
0.000278262
0.00033951
0.000474195
0.000477153
0.000438351
0.000469297
0.00055766
0.0019442
0.0350895
0.000665077
0.000531742
0.00194223
0.00224534
0.00285494
0.00388968
0.00382098
0.0796041
0.0259487
0.00645862
0.0265672
0.0109097
0.00532174
0.00728385
0.00210695
0.00207587
0.00128655
0.00258258
0.000586042
9.40969e-05
0.452838
0.452838
0.452838
0.452838
0.452838
0.452838
0.452838
0.452838
0.452838
0.452838
0.452838
0.452838
0.452838
0.452838
0.452838
0.452838
0.452838
0.452838
0.452838
0.452838
0.452838
0.452838
0.452838
0.452838
0.452838
0.452838
0.452838
0.452838
0.452838
0.452838
0.452838
0.452838
0.452838
0.452838
0.452838
0.452838
0.452838
0.452838
0.452838
0.452838
0.452838
0.452838
0.452838
0.452838
0.452838
0.452838
0.452838
0.452838
0.452838
0.452838
0.452838
0.452838
0.452838
0.452838
0.452839
0.452838
0.452839
0.452838
0.452643
0.506874
0.970436
0.00375083
0.00177759
0.22032
0.00552497
0.00583664
0.0128118
0.0154167
0.00309394
0.00598593
0.00174395
0.00259149
0.973684
0.000765958
0.000131694
6.31465e-05
2.57789e-05
1.0858e-05
1.07679e-05
0.00457818
0.303105
0.00175382
0.000830407
0.00254252
0.0139579
0.00972584
0.0375342
0.00258505
0.00324298
0.00157874
0.0064301
0.00182047
0.0048867
0.00644671
0.000656978
0.000101676
0.452838
0.452838
0.452838
0.452838
0.452838
0.452838
0.452838
0.452838
0.452838
0.452838
0.452838
0.452838
0.452838
0.452838
0.452838
0.452838
0.452838
0.452838
0.452838
0.452838
0.452838
0.452838
0.452838
0.452838
0.452838
0.452838
0.452838
0.452838
0.452838
0.452838
0.452838
0.452838
0.452838
0.452838
0.452838
0.452838
0.452838
0.452838
0.452838
0.452838
0.452838
0.452838
0.452838
0.452838
0.452838
0.452838
0.452838
0.452838
0.452838
0.452838
0.452838
0.452838
0.452838
0.452838
0.452839
0.452838
0.452839
0.453003
0.483014
0.502692
0.982657
0.254141
0.244718
0.22986
0.98046
0.946071
0.820053
0.821294
0.0518656
0.0730111
0.0720253
0.976788
0.104177
0.0773992
0.102111
0.235416
0.0774954
0.0598793
0.00907038
0.00597597
0.000897931
0.998505
9.28008e-06
5.4815e-06
0.000306157
0.00025391
0.00198318
0.00422749
0.00198935
0.0114925
0.00865307
0.00273696
0.00186713
0.0144152
0.000585089
9.39945e-05
0.452838
0.452838
0.452838
0.452838
0.452838
0.452838
0.452838
0.452838
0.452838
0.452838
0.452838
0.452838
0.452838
0.452838
0.452838
0.452838
0.452838
0.452838
0.452838
0.452838
0.452838
0.452838
0.452838
0.452838
0.452838
0.452838
0.452838
0.452838
0.452838
0.452838
0.452838
0.452838
0.452838
0.452838
0.452838
0.452838
0.452838
0.452838
0.452838
0.452838
0.452838
0.452838
0.452838
0.452838
0.452838
0.452838
0.452838
0.452838
0.452838
0.452838
0.452838
0.452838
0.452838
0.452838
0.452839
0.452838
0.452838
0.452833
0.452098
0.499919
0.487081
0.974998
0.151564
0.405201
0.440427
0.310937
0.822813
0.260596
0.815006
0.388354
0.163645
0.775693
0.891061
0.272283
0.924343
0.791514
0.043082
0.791155
0.0112628
0.0270521
0.0280343
0.375275
0.0170027
0.00385951
0.000196617
1.05596e-05
4.09426e-06
9.21976e-05
0.002356
0.00173419
0.00614886
0.00752022
0.00386672
0.00567596
0.000614014
9.48005e-05
0.452838
0.452838
0.452838
0.452838
0.452838
0.452838
0.452838
0.452838
0.452838
0.452838
0.452838
0.452838
0.452838
0.452838
0.452838
0.452838
0.452838
0.452838
0.452838
0.452838
0.452838
0.452838
0.452838
0.452838
0.452838
0.452838
0.452838
0.452838
0.452838
0.452838
0.452838
0.452838
0.452838
0.452838
0.452838
0.452838
0.452838
0.452838
0.452838
0.452838
0.452838
0.452838
0.452838
0.452838
0.452838
0.452838
0.452838
0.452838
0.452838
0.452838
0.452838
0.452838
0.452838
0.452838
0.452839
0.452838
0.452838
0.452838
0.45285
0.494597
0.24788
0.99999
0.996396
0.48803
0.479724
0.0756194
0.181918
0.897579
0.902734
0.422084
0.924111
0.863805
0.978276
0.0927424
0.205421
0.197815
0.983934
0.994823
0.989324
0.624381
0.382836
0.150929
0.441093
0.908045
0.832878
0.615407
0.00104106
0.999964
3.55021e-06
3.27219e-05
3.92203e-05
4.73395e-05
0.000108895
0.000375986
0.00012675
0.000210138
0.452838
0.452838
0.452838
0.452838
0.452838
0.452838
0.452838
0.452838
0.452838
0.452838
0.452838
0.452838
0.452838
0.452838
0.452838
0.452838
0.452838
0.452838
0.452838
0.452838
0.452838
0.452838
0.452838
0.452838
0.452838
0.452838
0.452838
0.452838
0.452838
0.452838
0.452838
0.452838
0.452838
0.452838
0.452838
0.452838
0.452838
0.452838
0.452838
0.452838
0.452838
0.452838
0.452838
0.452838
0.452838
0.452838
0.452838
0.452838
0.452838
0.452838
0.452838
0.452838
0.452838
0.452838
0.452839
0.452839
0.452839
0.452817
0.452582
0.51718
0.124752
0.017444
0.172539
0.362041
0.564866
0.790664
0.997569
0.987062
0.462242
0.992603
0.90287
0.804117
0.26333
0.815605
0.886445
0.868373
0.672534
0.833253
0.986471
0.934498
0.885353
0.880904
0.991562
0.430424
0.42979
0.601479
0.579343
0.922877
0.999508
0.00666605
0.00449749
0.00963579
0.01075
0.0139165
0.566092
0.000536223
0.452838
0.452838
0.452838
0.452838
0.452838
0.452838
0.452838
0.452838
0.452838
0.452838
0.452838
0.452838
0.452838
0.452838
0.452838
0.452838
0.452838
0.452838
0.452838
0.452838
0.452838
0.452838
0.452838
0.452838
0.452838
0.452838
0.452838
0.452838
0.452838
0.452838
0.452838
0.452838
0.452838
0.452838
0.452838
0.452838
0.452838
0.452838
0.452838
0.452838
0.452838
0.452838
0.452838
0.452838
0.452838
0.452838
0.452838
0.452838
0.452838
0.452838
0.452838
0.452838
0.452838
0.452838
0.452838
0.452839
0.452839
0.453369
0.441685
0.523899
0.119097
0.924458
0.640336
0.36841
0.986371
0.666048
0.186815
0.710237
0.33038
0.211182
0.380354
0.201889
0.921068
0.0347313
0.123932
0.88549
0.543477
0.998018
0.979827
0.919684
0.446216
0.999891
0.292522
0.286021
0.299944
0.666326
0.149277
0.000759873
0.981859
0.730612
0.523225
0.770593
0.943787
0.917643
0.517482
0.896869
0.452838
0.452838
0.452838
0.452838
0.452838
0.452838
0.452838
0.452838
0.452838
0.452838
0.452838
0.452838
0.452838
0.452838
0.452838
0.452838
0.452838
0.452838
0.452838
0.452838
0.452838
0.452838
0.452838
0.452838
0.452838
0.452838
0.452838
0.452838
0.452838
0.452838
0.452838
0.452838
0.452838
0.452838
0.452838
0.452838
0.452838
0.452838
0.452838
0.452838
0.452838
0.452838
0.452838
0.452838
0.452838
0.452838
0.452838
0.452838
0.452838
0.452838
0.452838
0.452838
0.452838
0.452838
0.452838
0.452839
0.452821
0.451931
0.45582
0.522922
0.994505
1.5674e-07
2.26267e-09
1.95285e-06
0.985047
0.768544
0.988762
0.668285
0.776364
0.959556
0.23853
0.17758
0.291375
0.944391
0.888265
0.997567
0.885245
0.758238
0.563419
0.0644045
0.336482
0.166277
0.117172
0.156822
0.862264
0.97612
0.866001
0.941468
0.456034
0.466591
0.449694
0.317565
0.263736
0.15789
0.204519
0.0028672
0.452838
0.452838
0.452838
0.452838
0.452838
0.452838
0.452838
0.452838
0.452838
0.452838
0.452838
0.452838
0.452838
0.452838
0.452838
0.452838
0.452838
0.452838
0.452838
0.452838
0.452838
0.452838
0.452838
0.452838
0.452838
0.452838
0.452838
0.452838
0.452838
0.452838
0.452838
0.452838
0.452838
0.452838
0.452838
0.452838
0.452838
0.452838
0.452838
0.452838
0.452838
0.452838
0.452838
0.452838
0.452838
0.452838
0.452838
0.452838
0.452838
0.452838
0.452838
0.452838
0.452838
0.452838
0.452838
0.452838
0.452839
0.452859
0.453343
0.532904
0.0473888
0.185586
0.0431679
0.0472105
0.202918
0.837628
0.86582
0.77859
0.122459
0.82782
0.0847485
0.77428
0.874554
0.197509
0.198529
0.860939
0.397198
0.988471
0.999993
0.961257
0.484343
0.901483
0.110553
0.229258
0.585212
0.957269
0.306333
0.20267
0.824604
0.992354
0.886296
0.0742823
0.90032
0.148746
0.00292789
0.000418115
0.452838
0.452838
0.452838
0.452838
0.452838
0.452838
0.452838
0.452838
0.452838
0.452838
0.452838
0.452838
0.452838
0.452838
0.452838
0.452838
0.452838
0.452838
0.452838
0.452838
0.452838
0.452838
0.452838
0.452838
0.452838
0.452838
0.452838
0.452838
0.452838
0.452838
0.452838
0.452838
0.452838
0.452838
0.452838
0.452838
0.452838
0.452838
0.452838
0.452838
0.452838
0.452838
0.452838
0.452838
0.452838
0.452838
0.452838
0.452838
0.452838
0.452838
0.452838
0.452838
0.452838
0.452838
0.452839
0.452838
0.45284
0.45193
0.507017
0.510656
0.0645423
0.000637799
0.00325629
0.00365403
0.00339546
0.00735023
0.00664826
0.040563
0.0442218
0.0317007
0.011387
0.0145105
0.0212291
0.0220242
0.103822
0.0221638
0.0207172
0.0582838
0.401828
0.0364637
0.0857183
0.0308938
0.04081
0.0626184
0.91168
0.123997
0.180433
0.0979677
0.0339301
0.792664
0.0334837
0.115877
0.0148136
0.0014257
0.000200081
3.7705e-06
0.452838
0.452838
0.452838
0.452838
0.452838
0.452838
0.452838
0.452838
0.452838
0.452838
0.452838
0.452838
0.452838
0.452838
0.452838
0.452838
0.452838
0.452838
0.452838
0.452838
0.452838
0.452838
0.452838
0.452838
0.452838
0.452838
0.452838
0.452838
0.452838
0.452838
0.452838
0.452838
0.452838
0.452838
0.452838
0.452838
0.452838
0.452838
0.452838
0.452838
0.452838
0.452838
0.452838
0.452838
0.452838
0.452838
0.452838
0.452838
0.452838
0.452838
0.452838
0.452838
0.452838
0.452838
0.452838
0.452838
0.452839
0.452847
0.451752
0.49769
0.085295
8.30366e-05
2.24465e-06
0.000141616
0.00035084
0.00216037
0.00110979
0.000419789
0.000195733
0.000128506
0.000123794
0.000374815
0.000273435
0.000121829
0.0036069
0.000621819
0.000248809
0.000348438
0.000595474
0.000563365
0.000413583
0.000131279
5.98587e-06
1.19056e-05
1.12542e-05
1.79336e-05
1.03345e-05
2.71632e-05
7.83246e-06
1.23311e-05
1.43106e-05
1.71573e-05
1.12153e-05
0.000634667
0.000594944
0.00011234
0.452838
0.452838
0.452838
0.452838
0.452838
0.452838
0.452838
0.452838
0.452838
0.452838
0.452838
0.452838
0.452838
0.452838
0.452838
0.452838
0.452838
0.452838
0.452838
0.452838
0.452838
0.452838
0.452838
0.452838
0.452838
0.452838
0.452838
0.452838
0.452838
0.452838
0.452838
0.452838
0.452838
0.452838
0.452838
0.452838
0.452838
0.452838
0.452838
0.452838
0.452838
0.452838
0.452838
0.452838
0.452838
0.452838
0.452838
0.452838
0.452838
0.452838
0.452838
0.452838
0.452838
0.452838
0.452838
0.452838
0.45284
0.452841
0.452875
0.547638
0.0639115
0.000118987
2.44938e-06
0.00021489
0.000264728
0.000760524
0.00124815
0.00173397
0.00191029
0.004957
0.00902616
0.0051427
0.00641076
0.0176866
0.00639322
0.000912698
0.00126808
0.00430377
0.00166015
0.00123508
0.00125124
0.00680539
0.00176624
0.00305617
0.00142878
0.00169625
0.000881062
0.00503336
0.00201505
0.00998396
0.00146252
0.00371189
0.00090095
0.000902775
0.000973808
0.0001214
0.452838
0.452838
0.452838
0.452838
0.452838
0.452838
0.452838
0.452838
0.452838
0.452838
0.452838
0.452838
0.452838
0.452838
0.452838
0.452838
0.452838
0.452838
0.452838
0.452838
0.452838
0.452838
0.452838
0.452838
0.452838
0.452838
0.452838
0.452838
0.452838
0.452838
0.452838
0.452838
0.452838
0.452838
0.452838
0.452838
0.452838
0.452838
0.452838
0.452838
0.452838
0.452838
0.452838
0.452838
0.452838
0.452838
0.452838
0.452838
0.452838
0.452838
0.452838
0.452838
0.452838
0.452838
0.452838
0.452839
0.452841
0.452841
0.45289
0.523431
0.0795199
1.06254e-05
2.55203e-06
0.000181465
0.000258382
0.000598165
0.000678505
0.00125793
0.00157011
0.00159892
0.00269483
0.0280704
0.00584392
0.00369752
0.00357787
0.00313068
0.00120908
0.00142443
0.00192815
0.00146018
0.00125678
0.00169768
0.00505337
0.0149119
0.00220128
0.00144832
0.00136858
0.00181534
0.00410623
0.0386251
0.00857253
0.00453932
0.0021122
0.00156222
0.00152747
0.000123193
0.452838
0.452838
0.452838
0.452838
0.452838
0.452838
0.452838
0.452838
0.452838
0.452838
0.452838
0.452838
0.452838
0.452838
0.452838
0.452838
0.452838
0.452838
0.452838
0.452838
0.452838
0.452838
0.452838
0.452838
0.452838
0.452838
0.452838
0.452838
0.452838
0.452838
0.452838
0.452838
0.452838
0.452838
0.452838
0.452838
0.452838
0.452838
0.452838
0.452838
0.452838
0.452838
0.452838
0.452838
0.452838
0.452838
0.452838
0.452838
0.452838
0.452838
0.452838
0.452838
0.452838
0.452838
0.452838
0.452838
0.452842
0.452843
0.454522
0.545689
0.0343916
0.000118296
2.51347e-06
0.000296819
0.000246127
0.0013419
0.00104901
0.00224571
0.00257262
0.0021882
0.00235047
0.00257902
0.00342431
0.00692312
0.0231676
0.0442011
0.00298593
0.00134374
0.00836564
0.00208872
0.00196938
0.00154207
0.00126224
0.00164152
0.0121186
0.0214203
0.0016481
0.00289812
0.0159538
0.00304607
0.0015869
0.00132531
0.00141636
0.00134411
0.000858355
0.000116254
0.452838
0.452838
0.452838
0.452838
0.452838
0.452838
0.452838
0.452838
0.452838
0.452838
0.452838
0.452838
0.452838
0.452838
0.452838
0.452838
0.452838
0.452838
0.452838
0.452838
0.452838
0.452838
0.452838
0.452838
0.452838
0.452838
0.452838
0.452838
0.452838
0.452838
0.452838
0.452838
0.452838
0.452838
0.452838
0.452838
0.452838
0.452838
0.452838
0.452838
0.452838
0.452838
0.452838
0.452838
0.452838
0.452838
0.452838
0.452838
0.452838
0.452838
0.452838
0.452838
0.452838
0.452838
0.452838
0.452838
0.452841
0.452846
0.451134
0.519579
0.124376
0.00529806
2.31485e-06
0.000231532
0.00083561
0.020993
0.00112953
0.00145195
0.0021615
0.00225808
0.00224767
0.00259866
0.00213814
0.00246501
0.00868904
0.00549191
0.0175373
0.00162841
0.011066
0.00142433
0.00169756
0.00411589
0.00184651
0.00144522
0.00207477
0.00432549
0.0037662
0.00380441
0.00365355
0.00391601
0.00610589
0.00637203
0.118499
0.0204733
0.00196629
0.000122536
0.452838
0.452838
0.452838
0.452838
0.452838
0.452838
0.452838
0.452838
0.452838
0.452838
0.452838
0.452838
0.452838
0.452838
0.452838
0.452838
0.452838
0.452838
0.452838
0.452838
0.452838
0.452838
0.452838
0.452838
0.452838
0.452838
0.452838
0.452838
0.452838
0.452838
0.452838
0.452838
0.452838
0.452838
0.452838
0.452838
0.452838
0.452838
0.452838
0.452838
0.452838
0.452838
0.452838
0.452838
0.452838
0.452838
0.452838
0.452838
0.452838
0.452838
0.452838
0.452838
0.452838
0.452838
0.452839
0.452838
0.452836
0.453387
0.4877
0.496021
0.195474
0.00193823
4.28019e-06
0.000655847
0.000195205
0.000177127
0.00157276
0.00136154
0.00492236
0.00402802
0.00454617
0.00876924
0.179894
0.00655352
0.00074658
0.000754161
0.0110909
0.0046813
0.00524531
0.00802785
0.0141352
0.0118274
0.0130849
0.0076522
0.00681882
0.107651
0.00403197
0.015692
0.0174319
0.00735249
0.032794
0.00700169
0.00499514
0.00268311
0.000501818
8.63427e-05
0.452838
0.452838
0.452838
0.452838
0.452838
0.452838
0.452838
0.452838
0.452838
0.452838
0.452838
0.452838
0.452838
0.452838
0.452838
0.452838
0.452838
0.452838
0.452838
0.452838
0.452838
0.452838
0.452838
0.452838
0.452838
0.452838
0.452838
0.452838
0.452838
0.452838
0.452838
0.452838
0.452838
0.452838
0.452838
0.452838
0.452838
0.452838
0.452838
0.452838
0.452838
0.452838
0.452838
0.452838
0.452838
0.452838
0.452838
0.452838
0.452838
0.452838
0.452838
0.452838
0.452838
0.452838
0.452838
0.452838
0.452839
0.452848
0.451831
0.503944
0.133926
1.81838e-05
4.82414e-06
9.06239e-06
1.38371e-05
9.92216e-06
5.77307e-06
0.00045379
0.000413743
0.000612691
0.00052918
0.000471742
0.000334841
1.12848e-05
1.23651e-05
1.28787e-05
9.03023e-06
0.000488922
0.000826232
0.000865393
0.000630777
0.00159139
0.00227086
0.00291195
0.00193769
0.00142194
0.00222308
0.00237131
0.0099991
0.00723413
0.00457578
0.00254282
0.00260961
0.00302728
0.000741188
0.000100923
0.452838
0.452838
0.452838
0.452838
0.452838
0.452838
0.452838
0.452838
0.452838
0.452838
0.452838
0.452838
0.452838
0.452838
0.452838
0.452838
0.452838
0.452838
0.452838
0.452838
0.452838
0.452838
0.452838
0.452838
0.452838
0.452838
0.452838
0.452838
0.452838
0.452838
0.452838
0.452838
0.452838
0.452838
0.452838
0.452838
0.452838
0.452838
0.452838
0.452838
0.452838
0.452838
0.452838
0.452838
0.452838
0.452838
0.452838
0.452838
0.452838
0.452838
0.452838
0.452838
0.452838
0.452838
0.452839
0.452838
0.452838
0.452827
0.487497
0.503357
0.0112685
0.00220427
0.0045436
0.0104832
0.0899887
0.00536236
0.016512
0.598357
0.00308273
0.00728446
0.0132998
0.0234263
0.00216956
0.00578621
0.0024694
0.0350913
0.0501199
0.000956597
0.000133666
2.47719e-05
9.0322e-06
1.11527e-05
0.000813651
0.00474204
0.000781928
0.0022059
0.00319894
0.00658022
0.0363862
0.0185041
0.00561069
0.00188609
0.0145444
0.00201933
0.00066731
0.000102402
0.452838
0.452838
0.452838
0.452838
0.452838
0.452838
0.452838
0.452838
0.452838
0.452838
0.452838
0.452838
0.452838
0.452838
0.452838
0.452838
0.452838
0.452838
0.452838
0.452838
0.452838
0.452838
0.452838
0.452838
0.452838
0.452838
0.452838
0.452838
0.452838
0.452838
0.452838
0.452838
0.452838
0.452838
0.452838
0.452838
0.452838
0.452838
0.452838
0.452838
0.452838
0.452838
0.452838
0.452838
0.452838
0.452838
0.452838
0.452838
0.452838
0.452838
0.452838
0.452838
0.452838
0.452838
0.452839
0.452838
0.452838
0.452875
0.454988
0.5094
0.745647
0.986252
0.947733
0.973496
0.729129
0.128828
0.978425
0.835391
0.000366661
0.0241281
0.183206
0.0468966
0.145249
0.996769
0.30323
0.447611
0.153271
0.761761
0.961812
0.858749
0.0318756
0.0078604
0.000394433
2.17976e-05
7.54063e-06
0.000106857
0.00012812
0.000705256
0.003716
0.0111391
0.00381586
0.00173125
0.00293369
0.970475
0.000580556
0.000102097
0.452838
0.452838
0.452838
0.452838
0.452838
0.452838
0.452838
0.452838
0.452838
0.452838
0.452838
0.452838
0.452838
0.452838
0.452838
0.452838
0.452838
0.452838
0.452838
0.452838
0.452838
0.452838
0.452838
0.452838
0.452838
0.452838
0.452838
0.452838
0.452838
0.452838
0.452838
0.452838
0.452838
0.452838
0.452838
0.452838
0.452838
0.452838
0.452838
0.452838
0.452838
0.452838
0.452838
0.452838
0.452838
0.452838
0.452838
0.452838
0.452838
0.452838
0.452838
0.452838
0.452838
0.452839
0.452838
0.452838
0.452838
0.452848
0.453004
0.50666
0.147053
0.710532
0.207934
0.461778
0.991117
0.020319
0.638116
0.000721873
0.00213436
0.981367
0.999698
0.828941
0.897456
0.487607
0.377161
0.383672
0.68917
0.299839
0.690046
0.299345
0.619433
0.172527
0.124974
0.311689
0.0030618
0.000247616
1.03296e-05
4.03264e-06
7.44707e-05
0.0033045
0.00791839
0.00264933
0.00493293
0.011218
0.000652502
0.00010285
0.452838
0.452838
0.452838
0.452838
0.452838
0.452838
0.452838
0.452838
0.452838
0.452838
0.452838
0.452838
0.452838
0.452838
0.452838
0.452838
0.452838
0.452838
0.452838
0.452838
0.452838
0.452838
0.452838
0.452838
0.452838
0.452838
0.452838
0.452838
0.452838
0.452838
0.452838
0.452838
0.452838
0.452838
0.452838
0.452838
0.452838
0.452838
0.452838
0.452838
0.452838
0.452838
0.452838
0.452838
0.452838
0.452838
0.452838
0.452838
0.452838
0.452838
0.452838
0.452838
0.452838
0.452838
0.452839
0.452838
0.452837
0.452815
0.452374
0.586764
0.926313
0.99649
0.818128
0.306194
0.91474
0.616447
0.327846
0.892234
0.505059
0.432938
0.572827
0.29097
0.688801
0.686058
0.266841
0.515326
0.430806
0.310824
0.413645
0.639705
0.362188
0.498288
0.554563
0.590506
0.870228
0.137729
0.999996
0.999975
2.21103e-05
2.99257e-06
0.000184459
0.000211649
0.19548
0.99829
0.000162553
5.66692e-05
0.452838
0.452838
0.452838
0.452838
0.452838
0.452838
0.452838
0.452838
0.452838
0.452838
0.452838
0.452838
0.452838
0.452838
0.452838
0.452838
0.452838
0.452838
0.452838
0.452838
0.452838
0.452838
0.452838
0.452838
0.452838
0.452838
0.452838
0.452838
0.452838
0.452838
0.452838
0.452838
0.452838
0.452838
0.452838
0.452838
0.452838
0.452838
0.452838
0.452838
0.452838
0.452838
0.452838
0.452838
0.452838
0.452838
0.452838
0.452838
0.452838
0.452838
0.452838
0.452838
0.452838
0.452838
0.452839
0.452838
0.452838
0.452845
0.450547
0.593846
0.093959
0.580188
0.487828
0.484001
0.808358
0.401275
0.468591
0.699127
0.52719
0.229818
0.402916
0.465844
0.711684
0.254875
0.429616
0.585982
0.469899
0.387168
0.412051
0.339518
0.579358
0.530756
0.543875
0.615435
0.994802
0.999207
0.781954
0.994192
0.824674
0.327294
0.128487
0.653457
0.123626
0.401251
0.859758
0.0532918
0.452838
0.452838
0.452838
0.452838
0.452838
0.452838
0.452838
0.452838
0.452838
0.452838
0.452838
0.452838
0.452838
0.452838
0.452838
0.452838
0.452838
0.452838
0.452838
0.452838
0.452838
0.452838
0.452838
0.452838
0.452838
0.452838
0.452838
0.452838
0.452838
0.452838
0.452838
0.452838
0.452838
0.452838
0.452838
0.452838
0.452838
0.452838
0.452838
0.452838
0.452838
0.452838
0.452838
0.452838
0.452838
0.452838
0.452838
0.452838
0.452838
0.452838
0.452838
0.452838
0.452838
0.452838
0.452838
0.452838
0.452839
0.452837
0.45304
0.604001
0.0968819
0.993313
0.954822
0.381535
0.726426
0.463705
0.941393
0.884692
0.519285
0.882492
0.420379
0.362876
0.423132
0.541132
0.900297
0.4824
0.992081
0.231654
0.462976
0.260355
0.484096
0.516496
0.454658
0.539328
0.423119
0.272102
0.256092
0.580983
0.728997
0.574347
0.442371
0.757229
0.219405
0.984714
0.985748
0.998096
0.452838
0.452838
0.452838
0.452838
0.452838
0.452838
0.452838
0.452838
0.452838
0.452838
0.452838
0.452838
0.452838
0.452838
0.452838
0.452838
0.452838
0.452838
0.452838
0.452838
0.452838
0.452838
0.452838
0.452838
0.452838
0.452838
0.452838
0.452838
0.452838
0.452838
0.452838
0.452838
0.452838
0.452838
0.452838
0.452838
0.452838
0.452838
0.452838
0.452838
0.452838
0.452838
0.452838
0.452838
0.452838
0.452838
0.452838
0.452838
0.452838
0.452838
0.452838
0.452838
0.452838
0.452838
0.452838
0.452838
0.45284
0.452924
0.455691
0.52505
0.982237
0.926104
0.879996
0.358471
0.207206
0.815235
0.996851
0.222765
0.00351605
0.00500601
0.115536
0.983402
0.952578
0.922198
0.629078
0.323493
0.199104
0.15442
0.174453
0.939394
0.365602
0.949503
0.670912
0.27208
0.658885
0.808414
0.922062
0.597728
0.276593
0.884883
0.957225
0.98364
0.823099
0.304802
0.865125
0.876216
0.452838
0.452838
0.452838
0.452838
0.452838
0.452838
0.452838
0.452838
0.452838
0.452838
0.452838
0.452838
0.452838
0.452838
0.452838
0.452838
0.452838
0.452838
0.452838
0.452838
0.452838
0.452838
0.452838
0.452838
0.452838
0.452838
0.452838
0.452838
0.452838
0.452838
0.452838
0.452838
0.452838
0.452838
0.452838
0.452838
0.452838
0.452838
0.452838
0.452838
0.452838
0.452838
0.452838
0.452838
0.452838
0.452838
0.452838
0.452838
0.452838
0.452838
0.452838
0.452838
0.452838
0.452838
0.452838
0.452838
0.452839
0.45284
0.452897
0.519537
0.0526974
0.0167988
0.467889
0.0542225
0.0472865
0.0406917
0.772532
0.118259
0.160138
0.05335
0.999947
0.998054
0.933154
0.173321
0.184654
0.0867236
0.154873
0.906001
0.985566
0.875292
0.424956
0.890298
0.309145
0.366339
0.946521
0.989057
0.965326
0.945171
0.960395
0.176292
0.866418
0.671548
0.818594
0.273119
0.221878
0.00537684
0.452838
0.452838
0.452838
0.452838
0.452838
0.452838
0.452838
0.452838
0.452838
0.452838
0.452838
0.452838
0.452838
0.452838
0.452838
0.452838
0.452838
0.452838
0.452838
0.452838
0.452838
0.452838
0.452838
0.452838
0.452838
0.452838
0.452838
0.452838
0.452838
0.452838
0.452838
0.452838
0.452838
0.452838
0.452838
0.452838
0.452838
0.452838
0.452838
0.452838
0.452838
0.452838
0.452838
0.452838
0.452838
0.452838
0.452838
0.452838
0.452838
0.452838
0.452838
0.452838
0.452838
0.452838
0.452839
0.452838
0.45284
0.452851
0.435471
0.541953
0.0374459
0.000597843
0.013532
0.0186492
0.00567185
0.00341284
0.00457563
0.0110969
0.0307821
0.118573
0.0196776
0.0641072
0.0294777
0.00914979
0.00627499
0.0222993
0.022451
0.0318603
0.0236667
0.118814
0.116026
0.801083
0.997812
0.0412862
0.999941
0.754821
0.129824
0.976166
0.861014
0.302288
0.495637
0.363576
0.00546266
0.0249599
0.00347341
1.49974e-05
0.452838
0.452838
0.452838
0.452838
0.452838
0.452838
0.452838
0.452838
0.452838
0.452838
0.452838
0.452838
0.452838
0.452838
0.452838
0.452838
0.452838
0.452838
0.452838
0.452838
0.452838
0.452838
0.452838
0.452838
0.452838
0.452838
0.452838
0.452838
0.452838
0.452838
0.452838
0.452838
0.452838
0.452838
0.452838
0.452838
0.452838
0.452838
0.452838
0.452838
0.452838
0.452838
0.452838
0.452838
0.452838
0.452838
0.452838
0.452838
0.452838
0.452838
0.452838
0.452838
0.452838
0.452838
0.452838
0.452838
0.45284
0.45284
0.461419
0.503975
0.679909
0.999999
0.000290972
3.31115e-06
0.000250452
0.000753169
0.000646434
0.000845974
0.00121298
0.000982262
0.00483748
0.00126908
9.96117e-06
0.00030968
7.55766e-06
9.25525e-06
1.11781e-05
4.85049e-05
0.000448526
0.00102208
0.000832587
0.000631638
0.00112141
0.00364661
0.588206
0.00494411
0.000488405
0.000346833
0.000825124
0.000416515
3.21237e-05
7.25974e-06
8.00109e-06
0.00410979
0.00154828
0.000187103
0.452838
0.452838
0.452838
0.452838
0.452838
0.452838
0.452838
0.452838
0.452838
0.452838
0.452838
0.452838
0.452838
0.452838
0.452838
0.452838
0.452838
0.452838
0.452838
0.452838
0.452838
0.452838
0.452838
0.452838
0.452838
0.452838
0.452838
0.452838
0.452838
0.452838
0.452838
0.452838
0.452838
0.452838
0.452838
0.452838
0.452838
0.452838
0.452838
0.452838
0.452838
0.452838
0.452838
0.452838
0.452838
0.452838
0.452838
0.452838
0.452838
0.452838
0.452838
0.452838
0.452838
0.452838
0.452838
0.452838
0.452841
0.452844
0.452749
0.499223
0.556011
0.00364742
0.000169139
0.000218976
0.00133741
0.000515691
0.00278797
0.0275312
0.00272913
0.00240984
0.00310477
0.00307951
0.00167797
0.00101056
0.00198992
0.00683254
0.00025738
0.000493499
0.00519444
0.00148955
0.000996359
0.00489637
0.00105904
0.000577312
0.000510515
0.00462297
0.00100371
0.000963981
0.000379109
9.24161e-05
8.87999e-05
0.000119423
0.00196883
0.00186114
0.0015205
0.000119813
0.452838
0.452838
0.452838
0.452838
0.452838
0.452838
0.452838
0.452838
0.452838
0.452838
0.452838
0.452838
0.452838
0.452838
0.452838
0.452838
0.452838
0.452838
0.452838
0.452838
0.452838
0.452838
0.452838
0.452838
0.452838
0.452838
0.452838
0.452838
0.452838
0.452838
0.452838
0.452838
0.452838
0.452838
0.452838
0.452838
0.452838
0.452838
0.452838
0.452838
0.452838
0.452838
0.452838
0.452838
0.452838
0.452838
0.452838
0.452838
0.452838
0.452838
0.452838
0.452838
0.452838
0.452838
0.452838
0.452838
0.452842
0.452749
0.455154
0.507859
0.540166
2.46778e-05
0.00123256
0.000115479
0.0006158
0.000440295
0.000872313
0.00220278
0.0161
0.00363397
0.00315354
0.00826331
0.0196322
0.00514219
0.00212888
0.00141726
0.00165751
0.00714534
0.0021298
0.00187895
0.00119069
0.0042464
0.00547444
0.00634661
0.00456871
0.00103891
0.000686403
0.000873951
0.000971456
0.00116603
0.00237496
0.0124606
0.00374829
0.00234442
0.00168154
0.000120171
0.452838
0.452838
0.452838
0.452838
0.452838
0.452838
0.452838
0.452838
0.452838
0.452838
0.452838
0.452838
0.452838
0.452838
0.452838
0.452838
0.452838
0.452838
0.452838
0.452838
0.452838
0.452838
0.452838
0.452838
0.452838
0.452838
0.452838
0.452838
0.452838
0.452838
0.452838
0.452838
0.452838
0.452838
0.452838
0.452838
0.452838
0.452838
0.452838
0.452838
0.452838
0.452838
0.452838
0.452838
0.452838
0.452838
0.452838
0.452838
0.452838
0.452838
0.452838
0.452838
0.452838
0.452838
0.452838
0.452839
0.452842
0.453438
0.489582
0.471749
0.659014
4.2973e-06
0.000267754
0.000143282
0.00042853
0.00152743
0.00134591
0.00496069
0.0589475
0.0149195
0.00559016
0.00585244
0.00842711
0.0538367
0.00869481
0.00595788
0.00320462
0.0141962
0.00159325
0.0225707
0.00156315
0.0474751
0.00501432
0.00515331
0.00417303
0.0010653
0.000921376
0.00117875
0.00202811
0.00220575
0.00187052
0.00154482
0.0012205
0.00137643
0.000786236
0.000109183
0.452838
0.452838
0.452838
0.452838
0.452838
0.452838
0.452838
0.452838
0.452838
0.452838
0.452838
0.452838
0.452838
0.452838
0.452838
0.452838
0.452838
0.452838
0.452838
0.452838
0.452838
0.452838
0.452838
0.452838
0.452838
0.452838
0.452838
0.452838
0.452838
0.452838
0.452838
0.452838
0.452838
0.452838
0.452838
0.452838
0.452838
0.452838
0.452838
0.452838
0.452838
0.452838
0.452838
0.452838
0.452838
0.452838
0.452838
0.452838
0.452838
0.452838
0.452838
0.452838
0.452838
0.452838
0.452838
0.452839
0.452841
0.452945
0.457044
0.553472
0.159715
0.00598945
2.78098e-06
0.000288571
0.00102169
0.00155152
0.0184
0.0119635
0.104312
0.0226652
0.0447657
0.024169
0.0051935
0.0030458
0.00381654
0.0261707
0.00241575
0.00237285
0.0118536
0.00224418
0.00152074
0.157105
0.00552361
0.0615576
0.00466706
0.00166252
0.00191043
0.00228518
0.0040417
0.00708176
0.00312071
0.00212996
0.00318936
0.00281885
0.000703738
0.000108201
0.452838
0.452838
0.452838
0.452838
0.452838
0.452838
0.452838
0.452838
0.452838
0.452838
0.452838
0.452838