/*--------------------------------*- C++ -*----------------------------------*\
| =========                 |                                                 |
| \\      /  F ield         | OpenFOAM: The Open Source CFD Toolbox           |
|  \\    /   O peration     | Version:  2.3.0                                 |
|   \\  /    A nd           | Web:      www.OpenFOAM.org                      |
|    \\/     M anipulation  |                                                 |
\*---------------------------------------------------------------------------*/
FoamFile
{
    version     2.0;
    format      ascii;
    class       volVectorField;
    location    "53";
    object      U;
}
// * * * * * * * * * * * * * * * * * * * * * * * * * * * * * * * * * * * * * //

dimensions      [0 1 -1 0 0 0 0];

internalField   nonuniform List<vector> 
6144
(
(0.0113581 0.0215477 -0.000666443)
(0.0118629 -0.00183755 -0.00193293)
(0.00461851 -0.0036761 -0.00300289)
(0.00359578 -0.00326747 -0.00270981)
(0.00183309 -0.00166363 -0.00184904)
(0.00291784 0.00133367 -0.001637)
(0.0032421 0.000637023 -0.00139222)
(0.00325754 0.00148712 -0.00122012)
(0.00262595 0.00086402 -0.00097074)
(0.00202862 0.00206096 -0.000477097)
(0.00150131 0.00307685 7.31757e-05)
(0.00139773 0.00422702 0.000770862)
(0.00147378 0.00441284 0.00121469)
(0.00160409 0.00399405 0.00161592)
(0.0016389 0.00314402 0.00172461)
(0.00170926 0.00230408 0.00169013)
(0.0017736 0.00141276 0.00150052)
(0.001843 0.000666131 0.00125292)
(0.00190876 6.36227e-05 0.0009891)
(0.00196453 -0.000347398 0.000748512)
(0.00199961 -0.000588193 0.000535558)
(0.00203179 -0.000653176 0.000346233)
(0.0020425 -0.000605266 0.000244697)
(0.00203098 -0.000490631 0.000229324)
(0.00199611 -0.000343302 0.000286376)
(0.00194418 -0.000185678 0.000403972)
(0.00188645 -4.22123e-05 0.000557655)
(0.00183294 5.85356e-05 0.000718991)
(0.00177379 0.000102568 0.000884251)
(0.00171048 0.000109787 0.00103828)
(0.00164607 9.78042e-05 0.00118659)
(0.00158326 6.21679e-05 0.00134258)
(0.0015215 -1.35783e-05 0.00151338)
(0.00145898 -0.000146799 0.00169854)
(0.00139755 -0.000354353 0.00188984)
(0.00133894 -0.000641468 0.00206452)
(0.00128345 -0.000986241 0.00219158)
(0.00122853 -0.00133509 0.00224609)
(0.0011626 -0.00160561 0.00217821)
(0.00105416 -0.00159761 0.00182588)
(0.000836844 -0.000970727 0.00120835)
(0.00050192 0.000665749 0.000454661)
(0.00040399 0.00314388 0.000135763)
(0.0013624 0.00499488 0.000213978)
(0.00318992 0.00371547 5.14531e-05)
(0.00407229 0.00280097 -0.00235642)
(0.00417594 0.00548351 -0.0039017)
(0.00564717 0.00734635 -0.00511628)
(0.00510266 0.00662525 -0.00465184)
(0.00495515 0.0140904 -0.00496092)
(0.0272567 0.0161337 -0.0106678)
(0.0546783 -0.0318727 -0.0137104)
(0.0596872 -0.0867326 -0.0140924)
(0.00814305 -0.142181 -0.00555536)
(-0.00969441 -0.129577 -0.00822138)
(-0.019237 -0.11357 -0.0165671)
(-0.0649343 -0.0436306 -0.00740864)
(0.0106568 0.0370008 0.043368)
(-0.0553207 -0.0692729 -0.0179996)
(0.0524018 0.125875 0.000423612)
(0.169466 -0.262017 0.000620446)
(0.107997 -0.111939 0.00139168)
(0.0609938 -0.182093 0.0063605)
(0.0647643 -0.226932 0.0103238)
(0.0596767 -0.238013 0.0120556)
(0.0517528 -0.255952 0.0143629)
(0.0468495 -0.27199 0.0184255)
(0.0401138 -0.283331 0.0202357)
(0.0374795 -0.293363 0.0192847)
(0.0326555 -0.298383 0.0163054)
(0.0295649 -0.296068 0.0133661)
(0.0277681 -0.291101 0.0118147)
(0.0258146 -0.281586 0.0113438)
(0.0260576 -0.27003 0.00985626)
(0.022632 -0.260634 0.0103484)
(0.0208821 -0.244825 0.0121129)
(0.0173242 -0.23262 0.0104978)
(0.016939 -0.210498 0.00953565)
(0.0159428 -0.192808 0.00880579)
(0.0150442 -0.1828 2.02094e-05)
(0.0205041 -0.162919 -0.000631065)
(0.0135107 -0.149879 -0.000363469)
(0.00703144 -0.132001 -0.0147112)
(0.00958081 -0.0903845 -0.0152894)
(0.0177481 -0.0725401 0.00302987)
(0.0215176 -0.0748967 0.0140547)
(0.0233052 -0.0799871 0.0144767)
(0.0209098 -0.0905155 0.00980338)
(0.0164701 -0.100055 0.00602698)
(0.0123286 -0.108465 0.00431297)
(0.00655765 -0.11562 0.00113864)
(-0.0027821 -0.115317 0.0040717)
(-0.00956275 -0.106219 0.00163889)
(-0.019206 -0.0867977 0.00774512)
(-0.0311873 -0.0634543 0.00557006)
(-0.020825 -0.0178722 0.00186844)
(0.0211463 0.0216279 0.00322635)
(0.0228709 0.00715821 0.00219616)
(0.0116706 0.00280538 -0.00192258)
(0.0096929 0.00154446 -0.000745758)
(0.00441473 -0.00193598 0.000906793)
(0.00509532 0.000378305 0.00126618)
(0.00525199 -0.000170038 0.00189491)
(0.00506329 0.00168324 0.00218513)
(0.00395136 0.00140991 0.00234198)
(0.0027734 0.00323182 0.00241909)
(0.00210133 0.00432695 0.00269232)
(0.00223666 0.00535373 0.00337181)
(0.00254202 0.00532561 0.00391885)
(0.00295143 0.00490421 0.004238)
(0.0030808 0.00402552 0.00432666)
(0.00322036 0.00317026 0.00433748)
(0.00329895 0.00222529 0.00427995)
(0.00336078 0.00141717 0.004203)
(0.00340702 0.000717857 0.00412347)
(0.0034329 0.00019383 0.00406307)
(0.00342509 -0.000162988 0.00402726)
(0.0034272 -0.000332793 0.00395108)
(0.00340088 -0.00038949 0.0039254)
(0.00333916 -0.000362704 0.00395517)
(0.00323821 -0.000286541 0.00403247)
(0.00311267 -0.000179877 0.0041446)
(0.00298575 -6.50889e-05 0.00426681)
(0.00288699 2.91766e-05 0.0043533)
(0.00278566 7.61171e-05 0.00444848)
(0.00267402 8.87732e-05 0.00454384)
(0.00256115 7.14181e-05 0.00463922)
(0.00245846 1.6003e-05 0.0047373)
(0.00236775 -9.43629e-05 0.00484191)
(0.00229472 -0.000274676 0.00495348)
(0.00224111 -0.000537107 0.00506469)
(0.00219744 -0.000877499 0.00515859)
(0.00214412 -0.00126217 0.00522426)
(0.00206408 -0.00163673 0.00526558)
(0.00189641 -0.00195944 0.00526241)
(0.00156079 -0.00205259 0.00505582)
(0.00107653 -0.00165963 0.00439779)
(0.000672937 -0.00105226 0.00375536)
(0.000602378 -0.00136424 0.00374651)
(0.00210253 -0.00384127 0.00464554)
(0.00414534 -0.00697041 0.00449854)
(0.00397594 -0.00832011 0.0013358)
(0.00491262 -0.00705587 -0.000957388)
(0.00947723 -0.00673851 -0.00212066)
(0.0114832 -0.00247842 -0.00377635)
(0.0142335 -0.00180891 -0.00889914)
(0.0627931 -0.00353566 -0.0146429)
(0.112676 -0.0264262 -0.019209)
(0.105097 -0.0351461 -0.0205221)
(0.0456219 -0.0678781 -0.018364)
(-0.0164731 -0.0387896 -0.00105829)
(-0.00168409 -0.0695278 0.00679923)
(-0.071626 -0.012563 0.0107702)
(-0.000362716 -0.146257 0.057528)
(-0.127904 0.0223445 -0.0306136)
(0.0627449 0.0144539 -0.00266396)
(0.195627 -0.186054 0.0215807)
(0.0562957 0.120914 0.0200347)
(0.0134222 -0.129894 0.0211729)
(0.00916767 -0.0887726 0.0211386)
(0.0022259 -0.112868 0.021828)
(-0.0103653 -0.154314 0.0277198)
(-0.018634 -0.179115 0.0309116)
(-0.0265724 -0.198359 0.0278273)
(-0.0346326 -0.207459 0.0285434)
(-0.041811 -0.218006 0.0282896)
(-0.042705 -0.219073 0.0270522)
(-0.0419869 -0.217294 0.0271457)
(-0.0396466 -0.2143 0.0265705)
(-0.038389 -0.209167 0.0236982)
(-0.0375008 -0.201474 0.0244407)
(-0.0372868 -0.191881 0.0200566)
(-0.03522 -0.174848 0.0162739)
(-0.0298671 -0.153987 0.0231744)
(-0.02385 -0.146288 0.0157218)
(-0.0189177 -0.130449 0.0101549)
(-0.0175187 -0.111773 0.0148777)
(-0.0177735 -0.106798 0.0056009)
(-0.0224722 -0.0864461 -0.00478346)
(-0.0123255 -0.0667229 0.00981754)
(0.00341061 -0.0593479 0.0236356)
(0.00559773 -0.0578181 0.02485)
(0.00633807 -0.0568396 0.0162209)
(0.0151769 -0.0552415 0.00146729)
(0.0188075 -0.0587594 -0.00129758)
(0.014786 -0.0653229 -0.00360799)
(0.00742793 -0.0653436 -0.00272086)
(-0.00472567 -0.0713834 0.00294603)
(-0.0195348 -0.0759528 0.00138872)
(-0.031142 -0.0677845 0.00811916)
(-0.0432322 -0.0547788 0.00325261)
(-0.0466036 -0.0162471 0.00335661)
(0.0243099 0.0210649 0.00421158)
(0.0273205 0.0127916 0.00409083)
(0.0172548 0.00687991 0.000645244)
(0.0143909 0.00572339 0.00199739)
(0.00613831 -0.000443164 0.00322697)
(0.00483264 0.00118445 0.00309034)
(0.00374536 0.000420083 0.00404553)
(0.00322763 0.00239639 0.00404925)
(0.00193411 0.00217463 0.00403158)
(0.00108531 0.00351627 0.00396164)
(0.000612214 0.00388453 0.00406066)
(0.0010783 0.00464468 0.00439179)
(0.00154527 0.00456344 0.00472)
(0.00201581 0.00446184 0.00496526)
(0.00216058 0.00395265 0.00501547)
(0.00232856 0.00346033 0.00501918)
(0.00241561 0.00283262 0.00498323)
(0.0024874 0.00226775 0.00494588)
(0.00252266 0.00171459 0.00490728)
(0.00252961 0.00125417 0.00488916)
(0.0024941 0.000864993 0.00489157)
(0.00240945 0.000569391 0.00492775)
(0.00230469 0.000358276 0.00498124)
(0.00217881 0.000226291 0.0050394)
(0.00202794 0.000154292 0.0051)
(0.00186464 0.000126197 0.00516356)
(0.0017026 0.000122281 0.00523175)
(0.00154672 0.000134633 0.00530902)
(0.00139535 0.000154002 0.00539165)
(0.00123566 0.000166746 0.00547715)
(0.00107818 0.00016233 0.00556548)
(0.000941015 0.00012919 0.00565476)
(0.000837157 6.88039e-05 0.00574757)
(0.000766925 -1.791e-05 0.00583941)
(0.000727289 -0.000136585 0.00592126)
(0.000695287 -0.000275558 0.00597165)
(0.000649291 -0.000410234 0.00598327)
(0.000595917 -0.00050654 0.00596507)
(0.000486418 -0.000535044 0.00588838)
(0.000180328 -0.000410038 0.00566788)
(-3.73906e-05 -0.000106347 0.00512653)
(0.000419327 -0.000643411 0.00478238)
(0.00160565 -0.00292923 0.00507128)
(0.00322379 -0.00794721 0.00597565)
(0.00421315 -0.0105365 0.00524613)
(0.00477352 -0.013057 0.00345282)
(0.00666958 -0.0178444 0.00198553)
(0.0129699 -0.0240642 0.00183049)
(0.016131 -0.0218892 -0.000616789)
(0.0250705 -0.0185018 -0.00657323)
(0.0747046 -0.00349983 -0.0103085)
(0.126575 0.019206 -0.0175034)
(0.124269 0.0498781 -0.0367907)
(0.00910806 0.0579036 -0.0290578)
(-0.0398409 0.0566361 -0.0256115)
(-0.0324496 0.00391315 -0.00410149)
(-0.100267 0.0959821 0.0401358)
(-0.0168275 -0.207831 0.0671472)
(-0.198983 0.124225 -0.0206267)
(0.0562759 -0.026535 -0.015445)
(0.186041 -0.124617 0.0108293)
(0.0998781 0.133746 0.0243273)
(0.135156 -0.0591736 0.0415783)
(0.062199 0.00607234 0.0460612)
(0.0536113 -0.0566722 0.0251364)
(0.0340714 -0.105321 0.0284231)
(0.0223346 -0.137211 0.0259103)
(0.00461232 -0.166056 0.0253577)
(-0.0125817 -0.182075 0.0240888)
(-0.0240735 -0.187555 0.0217853)
(-0.0301747 -0.184284 0.0217189)
(-0.0334502 -0.178954 0.0226893)
(-0.032818 -0.172511 0.0250115)
(-0.0318331 -0.167431 0.0248263)
(-0.0323444 -0.163158 0.0202841)
(-0.0362878 -0.153555 0.0195368)
(-0.0366591 -0.141791 0.00989786)
(-0.0367196 -0.123046 0.00452147)
(-0.0330105 -0.104527 0.0111545)
(-0.0244957 -0.0974965 -0.00251379)
(-0.0141403 -0.0587638 -0.0184687)
(-0.0192545 -0.030382 0.0110726)
(-0.0190966 -0.0231794 0.0301086)
(-0.0126533 -0.0157997 0.0159907)
(0.000568467 0.0014517 -0.00635024)
(0.0137218 0.00911955 -0.00393607)
(0.0258053 0.00853927 0.00224898)
(0.0318473 0.00118618 0.0048294)
(0.0317808 -0.00771676 0.00501995)
(0.0220629 -0.0155375 0.000751006)
(0.0107026 -0.0178253 0.00844982)
(-0.0027074 -0.0272114 0.00897515)
(-0.0232788 -0.0312742 0.00211548)
(-0.0482916 -0.0300446 0.0109716)
(-0.068477 -0.0289157 0.00812194)
(-0.0685982 -0.0149431 0.00166578)
(0.025177 0.0209325 0.00428932)
(0.0293873 0.0165441 0.00451823)
(0.0205566 0.00917291 0.000410556)
(0.018983 0.00981718 0.000696049)
(0.00885343 0.00190907 0.00133284)
(0.00506399 0.00293793 0.00206695)
(0.00227123 0.000980255 0.00403886)
(0.00170222 0.00295112 0.00427839)
(0.000403789 0.00187102 0.00430469)
(-0.000372016 0.00273826 0.00417324)
(-0.000771534 0.0026334 0.0042719)
(-0.00024465 0.0033199 0.00462904)
(0.000124735 0.00350357 0.00491166)
(0.000613734 0.0037695 0.00512328)
(0.000825222 0.00356182 0.00516491)
(0.00101162 0.00333758 0.00519867)
(0.00108932 0.00291058 0.00520656)
(0.0011419 0.00251638 0.00522349)
(0.00114437 0.00208689 0.00522326)
(0.00111962 0.00170329 0.00522137)
(0.00104717 0.00134668 0.0052193)
(0.000942014 0.00103076 0.00523202)
(0.00080498 0.000755699 0.00525772)
(0.000644862 0.000540313 0.00528744)
(0.000469784 0.000382318 0.00532204)
(0.00029042 0.000279165 0.00536473)
(0.000120108 0.000220985 0.00541154)
(-3.28772e-05 0.000192902 0.0054627)
(-0.000180532 0.000181187 0.00552139)
(-0.000332274 0.00017873 0.00558973)
(-0.000474746 0.000184377 0.00566651)
(-0.000594267 0.000199178 0.00574281)
(-0.000685824 0.00022757 0.00581232)
(-0.000742891 0.000276522 0.005872)
(-0.000758637 0.000347142 0.00590735)
(-0.000754706 0.000442301 0.00589801)
(-0.000746895 0.000575877 0.00584942)
(-0.000738136 0.000784187 0.00577021)
(-0.00079003 0.00113645 0.00562643)
(-0.000911907 0.00160021 0.00534334)
(-0.000436843 0.00160996 0.00492444)
(0.000810704 0.000227696 0.00496459)
(0.00233092 -0.00297494 0.00541721)
(0.00231661 -0.00621958 0.00582869)
(0.00191345 -0.00904298 0.0060279)
(0.00471889 -0.0142043 0.00627539)
(0.0100844 -0.0225647 0.00456613)
(0.0143557 -0.030347 0.00442311)
(0.0151454 -0.0295256 0.00251313)
(0.0189226 -0.0278528 -0.00288852)
(0.0569711 0.000692301 -0.00170869)
(0.122436 0.0383681 -0.0214318)
(0.144457 0.0895391 -0.0409857)
(0.085406 0.138297 -0.0328656)
(0.0141305 0.108896 0.0160771)
(0.0109281 0.0816637 0.059843)
(0.0270291 0.179931 0.1055)
(0.0354512 -0.215296 0.110051)
(-0.288394 0.39546 -0.0303549)
(0.0741293 -0.136659 -0.00859603)
(0.158063 -0.0901188 0.0168381)
(0.0872892 0.122898 0.00816527)
(0.0966157 0.0574971 0.0146698)
(0.0554808 0.0803252 0.0226435)
(0.0858347 0.0358453 0.00739643)
(0.0501993 -0.0190307 0.00707368)
(0.026421 -0.0636122 -0.000755656)
(0.00287412 -0.0988129 0.00302178)
(-0.0230175 -0.136435 0.00726888)
(-0.0349444 -0.152688 0.00560348)
(-0.0425172 -0.153944 0.00518068)
(-0.0480732 -0.151174 0.00539362)
(-0.0497747 -0.148364 0.0101868)
(-0.0542229 -0.143954 0.0114824)
(-0.0533895 -0.138442 0.0100691)
(-0.0467536 -0.130528 0.00515256)
(-0.042985 -0.111964 0.000823333)
(-0.0415595 -0.0952978 -0.00302216)
(-0.036594 -0.0687251 -0.0259714)
(-0.0340657 -0.0269677 -0.0153788)
(-0.0314023 0.019982 0.0198137)
(-0.0242343 0.0360626 0.002117)
(-0.0228308 0.0504314 0.000977409)
(-0.0116806 0.0538498 0.00216418)
(-0.000992142 0.0495307 0.00451593)
(0.0136392 0.0469022 0.00575662)
(0.0202788 0.038656 0.00742903)
(0.0242969 0.027911 0.0105432)
(0.0226785 0.0176277 0.0132698)
(0.0122598 0.00887499 0.00771352)
(-0.00210596 0.00847651 0.0120687)
(-0.0168992 -0.00120197 0.0157032)
(-0.0317529 -0.00306042 0.0150959)
(-0.049636 -0.0107182 0.015545)
(-0.067153 -0.0177725 0.00259312)
(-0.0813613 -0.00473492 -0.0017682)
(0.025167 0.0209596 0.00416783)
(0.0311984 0.0201351 0.00510097)
(0.0227845 0.0115945 0.000838877)
(0.0237089 0.0133202 0.000553474)
(0.0134893 0.00486737 -0.0014329)
(0.00740262 0.00549323 -0.000701656)
(0.00160325 0.000697463 0.00274345)
(0.000418597 0.00320896 0.00352285)
(-0.000905695 0.00144701 0.00379353)
(-0.00169199 0.00206521 0.00393164)
(-0.0024186 0.00157041 0.00410275)
(-0.00226861 0.0022644 0.00450546)
(-0.00213861 0.00262466 0.00471727)
(-0.0016023 0.003157 0.00492912)
(-0.00137812 0.00315056 0.0049475)
(-0.00118469 0.00305396 0.0050149)
(-0.00116308 0.00272667 0.00506508)
(-0.00120375 0.00243331 0.00513121)
(-0.00129101 0.0021123 0.00515972)
(-0.00138595 0.00181839 0.0051598)
(-0.00149371 0.00151702 0.00513264)
(-0.0016138 0.0012159 0.00510231)
(-0.00174761 0.00092739 0.00507418)
(-0.00189631 0.000675645 0.00505584)
(-0.00206157 0.000466617 0.0050493)
(-0.00223509 0.000306534 0.00504872)
(-0.00239275 0.00019228 0.00505683)
(-0.0025268 0.000115314 0.00507212)
(-0.0026548 7.16438e-05 0.00509429)
(-0.0027952 6.06156e-05 0.00512992)
(-0.00293613 8.74408e-05 0.00517644)
(-0.00305764 0.000158485 0.00522056)
(-0.00315603 0.000282217 0.00525405)
(-0.00321898 0.000481791 0.00526792)
(-0.003238 0.000781718 0.00524203)
(-0.00324366 0.00119915 0.00516579)
(-0.00327 0.00174166 0.00502645)
(-0.00332525 0.00241693 0.00481818)
(-0.00330923 0.00320097 0.00457751)
(-0.00281168 0.00377463 0.00444017)
(-0.0011425 0.00335999 0.00471793)
(0.000591878 0.00132263 0.00546404)
(0.000995546 -0.00113193 0.00611595)
(0.000874318 -0.00339437 0.00661209)
(0.00258042 -0.00685654 0.00784429)
(0.00665461 -0.0142235 0.00884133)
(0.010383 -0.0204581 0.00750274)
(0.0104003 -0.0269753 0.00803935)
(0.0110129 -0.0264304 0.0080006)
(0.0108472 -0.0256146 0.00372641)
(0.0292698 0.00118178 0.00223008)
(0.0904516 0.0426901 -0.00306339)
(0.131187 0.106873 -0.0403426)
(0.0688644 0.186086 -0.0503616)
(-0.0179894 0.209133 -0.00903997)
(-0.0395919 0.194724 0.0404344)
(-0.0464382 0.204148 0.049072)
(-0.11725 0.0874762 0.0549912)
(-0.247522 0.444417 0.014899)
(0.0543443 -0.176986 -0.0223556)
(0.100747 -0.0510482 0.0169119)
(0.0864386 0.142733 0.0112302)
(0.108818 0.101049 0.013922)
(0.0986649 0.130256 0.00866818)
(0.108929 0.126598 0.00665673)
(0.114833 0.108816 -0.00195397)
(0.109238 0.0953306 -0.0110369)
(0.085688 0.0522631 -0.00667029)
(0.0388776 -0.0065855 -0.00548385)
(0.0049271 -0.0419977 0.00109629)
(-0.0198573 -0.0750438 0.0079454)
(-0.0321944 -0.0916476 0.0120318)
(-0.0435373 -0.0979225 0.0172458)
(-0.0510834 -0.107476 0.017333)
(-0.0596404 -0.106331 0.0117312)
(-0.0609315 -0.0951647 0.00180404)
(-0.056154 -0.0710997 -0.0228426)
(-0.0489545 -0.0368753 -0.0349542)
(-0.0448095 0.00550772 0.0026505)
(-0.0476756 0.0367316 0.0198419)
(-0.042961 0.0557242 -0.00772579)
(-0.0351362 0.0833923 -0.0160907)
(-0.0183453 0.0910244 -0.0117062)
(-0.00851075 0.0960976 -0.0129406)
(0.00679418 0.0932288 -0.00725871)
(0.0162022 0.086601 -0.0092716)
(0.0245574 0.0736311 -0.00472604)
(0.0265866 0.0611643 -0.00063629)
(0.0245145 0.0490277 0.00439679)
(0.0187825 0.040545 0.0039913)
(0.00438183 0.0348775 0.00780611)
(-0.0153085 0.0286895 0.0105552)
(-0.0381285 0.017173 0.00885836)
(-0.0557642 0.00522854 0.0050275)
(-0.0728747 0.00193598 -0.000474939)
(-0.0799762 0.00701582 0.00414591)
(0.0235057 0.0200054 0.00415957)
(0.0322726 0.0240176 0.00664843)
(0.0235158 0.0134916 0.00262904)
(0.0258885 0.015597 0.00256529)
(0.018635 0.0057128 -0.00152618)
(0.0127611 0.00709376 -0.00262536)
(0.00230337 -0.000480195 0.000465519)
(-0.000943495 0.00303737 0.00193803)
(-0.00180158 0.00069527 0.00269324)
(-0.00292136 0.00147395 0.00320215)
(-0.00366904 0.000613707 0.00339664)
(-0.00353667 0.00142175 0.00389041)
(-0.00335489 0.00193561 0.00411749)
(-0.00259477 0.00271113 0.0045064)
(-0.00210208 0.00269802 0.00468909)
(-0.00180231 0.00260612 0.00492814)
(-0.00177596 0.00227175 0.00509028)
(-0.00190673 0.00203203 0.00520698)
(-0.00207775 0.00182381 0.0052432)
(-0.00223313 0.00167282 0.00521698)
(-0.00237965 0.00151198 0.00513112)
(-0.00252692 0.00132946 0.00501475)
(-0.00269358 0.00112828 0.00489114)
(-0.0028649 0.000927037 0.00477234)
(-0.00303408 0.000743951 0.00466533)
(-0.00318608 0.000599344 0.00456942)
(-0.00331197 0.000483844 0.00448691)
(-0.00341697 0.000387153 0.0044232)
(-0.00352858 0.00031418 0.00438531)
(-0.0036565 0.000281337 0.00437994)
(-0.0037936 0.000314247 0.00439715)
(-0.00392832 0.000431843 0.00441313)
(-0.00406596 0.00065527 0.00440731)
(-0.00420939 0.00101861 0.00435241)
(-0.00434989 0.00153455 0.00422265)
(-0.0044816 0.00218552 0.00401868)
(-0.0045456 0.00292243 0.00375937)
(-0.00445101 0.00368173 0.00351591)
(-0.00402212 0.00431881 0.00343171)
(-0.00288506 0.00448279 0.00376016)
(-0.000847276 0.00381619 0.00481917)
(0.000467768 0.00240905 0.00626252)
(-0.000246952 0.00091202 0.00720768)
(-0.000711851 -0.00078697 0.00788462)
(0.00196827 -0.0043571 0.0102613)
(0.00634963 -0.010019 0.0119331)
(0.00930708 -0.014927 0.00982616)
(0.00720599 -0.0192405 0.00776064)
(0.00751927 -0.0213231 0.00927877)
(0.00317602 -0.0169692 0.00537647)
(0.00598857 -0.00703492 0.00582727)
(0.0625235 0.0235166 0.00870239)
(0.109061 0.0770024 -0.0143723)
(0.0983304 0.168809 -0.0614862)
(0.0249565 0.235711 -0.0760512)
(-0.0354177 0.250893 -0.0306976)
(-0.0817375 0.22996 -0.0139236)
(-0.0743005 0.107001 0.0109513)
(-0.0844185 0.352939 0.0426434)
(0.0447071 -0.166476 -0.0299161)
(0.0337417 -0.0797158 0.020232)
(0.0380101 0.153767 0.0092105)
(0.0629004 0.120988 0.0160769)
(0.0845384 0.156212 0.0135728)
(0.106181 0.154748 0.0118029)
(0.116371 0.166292 0.0108686)
(0.120414 0.168018 0.011471)
(0.109388 0.161353 0.0133765)
(0.0634254 0.112112 0.0129955)
(0.0252246 0.0613176 0.0188993)
(-0.0252793 0.00466742 0.0203567)
(-0.0550261 -0.0275063 0.0199032)
(-0.0648452 -0.0516615 0.0217909)
(-0.0692088 -0.0683837 0.00955506)
(-0.0654619 -0.0660453 -0.00840668)
(-0.0490511 -0.0521713 -0.0139371)
(-0.0332037 -0.0184156 -0.0086081)
(-0.0473482 0.0180812 0.0132314)
(-0.0700536 0.0498842 0.00821032)
(-0.0718289 0.085454 -0.0154842)
(-0.0533457 0.129513 -0.0212186)
(-0.0314276 0.144858 -0.0144458)
(-0.0143157 0.158285 -0.00927477)
(0.00111349 0.155644 -0.00759045)
(0.0152723 0.153563 -0.00707314)
(0.0287215 0.142079 -0.00151762)
(0.0342626 0.127171 0.0014049)
(0.0348685 0.108669 0.00440799)
(0.0278366 0.083506 0.00776152)
(0.0140766 0.0624661 0.00538008)
(-0.000212172 0.0527466 0.00412703)
(-0.0120306 0.0401854 0.00612342)
(-0.0259049 0.0344372 0.00586861)
(-0.0443383 0.0263333 0.00419913)
(-0.0618758 0.0205107 0.00372767)
(-0.0710242 0.0104552 0.00752055)
(0.0202972 0.017839 0.00475025)
(0.0326748 0.0278631 0.00934748)
(0.0228773 0.0150564 0.00521601)
(0.025519 0.0179058 0.00553227)
(0.0208263 0.00548946 0.00116592)
(0.0171775 0.00708454 -0.000379986)
(0.00380389 -0.00210193 -0.000661762)
(-0.0017316 0.00277649 0.000675887)
(-0.00309264 8.36452e-05 0.0018268)
(-0.00417456 0.00137572 0.00264263)
(-0.00534939 0.000331057 0.00265213)
(-0.00591623 0.00112123 0.00333178)
(-0.00604913 0.00145884 0.00374978)
(-0.0049905 0.00213567 0.00455651)
(-0.00436906 0.00198133 0.00503378)
(-0.00409865 0.0018906 0.0054916)
(-0.0042214 0.00161361 0.00575897)
(-0.004581 0.00148833 0.00589049)
(-0.00495628 0.00143153 0.00588833)
(-0.00523365 0.00145835 0.00580389)
(-0.00541593 0.00148931 0.00563809)
(-0.0055437 0.00150279 0.00543083)
(-0.00564881 0.00148368 0.00520965)
(-0.00574606 0.00143273 0.00499753)
(-0.00587231 0.00137269 0.00482278)
(-0.0059782 0.00132649 0.00467456)
(-0.00603096 0.00127523 0.00455139)
(-0.00605003 0.00120529 0.00447539)
(-0.00608667 0.00113031 0.00444618)
(-0.00618161 0.00108934 0.00445709)
(-0.0063254 0.00113231 0.00448728)
(-0.00648878 0.00128846 0.00450104)
(-0.00667295 0.00156719 0.0044602)
(-0.00684418 0.00197494 0.00434092)
(-0.00695149 0.00247761 0.00414198)
(-0.00698762 0.00302177 0.00388177)
(-0.00695517 0.00352572 0.00355486)
(-0.00678127 0.00391146 0.00327557)
(-0.00621094 0.00411204 0.00331258)
(-0.0049662 0.00396439 0.00396346)
(-0.00328108 0.00344299 0.00533843)
(-0.00291624 0.00273826 0.0067021)
(-0.00393436 0.00270537 0.00755659)
(-0.00371273 0.00205996 0.00858522)
(-0.000766312 -0.000548212 0.011252)
(0.00274919 -0.00362294 0.0123942)
(0.00567429 -0.00652841 0.00908981)
(0.00608227 -0.0102102 0.00648071)
(0.00318191 -0.0200937 0.0144041)
(0.00124668 -0.00987416 0.0310572)
(0.000588028 -0.010753 0.0382318)
(0.0363335 0.0323212 0.0136013)
(0.077529 0.0736014 -0.00216928)
(0.0741101 0.134841 -0.012774)
(0.0473327 0.167813 -0.00695808)
(0.0301559 0.163632 0.00220317)
(0.0185737 0.20339 0.00616435)
(-0.00751848 -0.0998567 -0.00351699)
(-0.0413722 0.268156 -0.124291)
(0.0168547 -0.140172 -0.0145275)
(-0.0420796 -0.0436515 0.0272852)
(0.00698234 0.142769 0.00943597)
(0.0269495 0.106269 0.0101091)
(0.0699173 0.144714 0.00655059)
(0.0921389 0.152933 0.00303498)
(0.115216 0.174113 0.0068553)
(0.12047 0.187077 0.00674322)
(0.119072 0.195033 0.0144193)
(0.0963672 0.192281 0.019864)
(0.0730136 0.160708 0.0310765)
(0.0279795 0.103535 0.0336281)
(-0.0034368 0.0435009 0.0355863)
(-0.0262205 -0.000640875 0.0295309)
(-0.0345543 -0.0184529 0.0169903)
(-0.0436721 -0.0131658 0.00994966)
(-0.0628242 0.00713073 0.00767572)
(-0.0859472 0.0480683 0.00904996)
(-0.10279 0.0985735 0.00287376)
(-0.0970418 0.144899 -0.0166473)
(-0.0708187 0.181166 -0.0189189)
(-0.0458153 0.191782 -0.0178241)
(-0.0207762 0.198892 -0.00738142)
(-0.00368813 0.192777 -0.00425943)
(0.0152933 0.188609 0.00162779)
(0.0254705 0.175772 0.0014963)
(0.0377826 0.169944 0.00144435)
(0.0464042 0.159893 0.00077505)
(0.0492377 0.152756 -0.000946285)
(0.0480527 0.143972 0.00861578)
(0.0380669 0.117981 0.0157806)
(0.0229242 0.0889557 0.0195944)
(0.0048804 0.0537582 0.0112355)
(-0.0203653 0.0445224 0.00997411)
(-0.0361088 0.0343737 0.0148663)
(-0.0531217 0.0247493 0.0155363)
(-0.0568322 0.0135085 0.018038)
(0.0167651 0.0117423 0.00465795)
(0.0313466 0.0307834 0.011241)
(0.0211535 0.0160154 0.00589522)
(0.0249208 0.0217568 0.00574036)
(0.0215093 0.00656074 0.00254483)
(0.0183984 0.0066879 0.0021273)
(0.00450257 -0.00424849 -0.00108986)
(-0.00388267 0.00166485 -0.000569248)
(-0.00376777 -0.00162387 0.00237687)
(-0.00541348 0.00141108 0.0032277)
(-0.00584813 0.000172965 0.00347713)
(-0.00609084 0.00113359 0.00426947)
(-0.00591969 0.000563855 0.00486641)
(-0.00463342 0.000877087 0.00595905)
(-0.00393546 0.000612056 0.00670746)
(-0.0036995 0.000769259 0.00739358)
(-0.00388072 0.000828897 0.0078016)
(-0.00426436 0.00105977 0.00800056)
(-0.00463427 0.00126625 0.00801884)
(-0.00489199 0.00152987 0.00792931)
(-0.00506643 0.00177248 0.00773745)
(-0.00518984 0.00195458 0.00748438)
(-0.00528387 0.00207218 0.0072141)
(-0.00536128 0.00213495 0.00695191)
(-0.00544063 0.00214308 0.00671057)
(-0.00550552 0.00211061 0.00650388)
(-0.00551357 0.00205842 0.00634827)
(-0.00548805 0.00198877 0.00624205)
(-0.00548726 0.00190689 0.00617884)
(-0.00556842 0.00185693 0.00614474)
(-0.00572345 0.00191128 0.00611175)
(-0.00591152 0.00209336 0.00604657)
(-0.00612559 0.00239333 0.00591676)
(-0.00632679 0.00276268 0.00570194)
(-0.00646113 0.00311236 0.00541305)
(-0.00651688 0.00338003 0.00508812)
(-0.00637755 0.00349505 0.00480863)
(-0.00602143 0.00339195 0.00468592)
(-0.00539532 0.00305256 0.00489845)
(-0.00435387 0.00263284 0.00557691)
(-0.00322308 0.00246442 0.00662428)
(-0.00367623 0.00336023 0.00729566)
(-0.0058908 0.00504591 0.00726859)
(-0.00568604 0.00617034 0.00833174)
(-0.00283725 0.00676041 0.0114354)
(0.000153573 0.00734884 0.0120546)
(0.00419317 0.00693936 0.00880743)
(0.00851513 0.0027377 0.00877423)
(0.00346401 -0.00477853 0.0113124)
(-0.00556533 -0.00949981 0.0317364)
(-0.021876 0.0016391 0.0477164)
(0.00752315 0.0225026 0.0267121)
(0.0711087 0.0848511 0.0146543)
(0.0690474 0.157547 0.0160703)
(0.0617793 0.207337 0.0392809)
(0.0804869 0.23064 0.0433892)
(0.0862956 0.240501 0.0298728)
(0.0450829 0.156442 0.0227573)
(0.0627578 0.427791 0.0214533)
(-0.0569456 -0.189516 -0.0352793)
(-0.100292 -0.0617993 0.0199985)
(-0.0178435 0.118682 0.00880129)
(-0.0129701 0.0498628 0.00581)
(0.0503349 0.0856974 -0.00168022)
(0.0474532 0.0722161 -0.00856796)
(0.0827182 0.11144 -0.0141814)
(0.0850972 0.153489 -0.0159589)
(0.102778 0.190598 -0.00823451)
(0.0926772 0.213109 0.0048902)
(0.0795779 0.218244 0.00968346)
(0.0548772 0.214809 0.01506)
(0.0275898 0.199282 0.0131609)
(-0.0102478 0.170468 0.0128694)
(-0.0386036 0.159554 0.00286017)
(-0.0662858 0.165753 -0.00369674)
(-0.0838481 0.180743 -0.0141707)
(-0.0850764 0.200799 -0.0211132)
(-0.0797968 0.209288 -0.0281207)
(-0.0644492 0.2126 -0.0302526)
(-0.0396952 0.209733 -0.0267204)
(-0.0131074 0.203994 -0.0146568)
(0.00457172 0.190233 -0.00318985)
(0.0187751 0.172366 0.00562773)
(0.0299952 0.159306 0.0118471)
(0.0328377 0.148502 0.0105108)
(0.0365306 0.146266 0.00877421)
(0.0400883 0.149495 0.00708274)
(0.0420919 0.157911 0.0086489)
(0.0391657 0.174036 0.00863227)
(0.0322755 0.184988 0.0097424)
(0.0221958 0.186235 0.0142151)
(0.00433846 0.16827 0.0284984)
(-0.0149995 0.136391 0.0225184)
(-0.0246154 0.110517 0.0262943)
(-0.0349134 0.0762207 0.0187126)
(-0.0415883 0.0201722 0.0043678)
(0.00917981 0.00108022 0.00121076)
(0.0279523 0.0320888 0.0104994)
(0.0185202 0.0165337 0.00418319)
(0.0235003 0.02637 0.00336667)
(0.0220593 0.0101756 0.00150187)
(0.019834 0.00846513 0.00258872)
(0.00511497 -0.00616411 -0.00534965)
(-0.0032637 -0.000183884 -0.00524933)
(-0.00688558 -0.00245793 -0.00156091)
(-0.00846614 0.00138705 0.000289963)
(-0.008839 -2.26e-05 0.000666899)
(-0.00880245 0.000827356 0.00160694)
(-0.00867115 -0.00025707 0.00218444)
(-0.00800413 -4.64456e-05 0.00299643)
(-0.00779654 -0.000203089 0.0036063)
(-0.0079041 0.000195546 0.00426619)
(-0.00826037 0.000463917 0.00481463)
(-0.00870551 0.000881352 0.00521063)
(-0.00912717 0.0012132 0.00542299)
(-0.00945008 0.00156314 0.00549427)
(-0.00954666 0.0018744 0.00543858)
(-0.00952608 0.00212778 0.00530095)
(-0.00946294 0.00231839 0.00512989)
(-0.0093743 0.00244085 0.00495748)
(-0.00928464 0.00249711 0.00479252)
(-0.00918812 0.00249933 0.00464227)
(-0.00906825 0.00247368 0.00451655)
(-0.0089453 0.00244479 0.00441349)
(-0.00887771 0.00241895 0.00433501)
(-0.00896661 0.00241606 0.0042729)
(-0.00918462 0.00249341 0.00420386)
(-0.00942773 0.00266175 0.00410235)
(-0.00964458 0.00291051 0.00394853)
(-0.00972296 0.00319304 0.00372014)
(-0.00962838 0.00342895 0.00342213)
(-0.00938699 0.00356193 0.00308976)
(-0.00908018 0.00349186 0.00280423)
(-0.00872289 0.00312603 0.00264607)
(-0.00836974 0.00262483 0.00276115)
(-0.00816917 0.00232075 0.00308958)
(-0.00878895 0.00278912 0.00337006)
(-0.0100707 0.00477787 0.00286365)
(-0.0105605 0.00776731 0.00134038)
(-0.00993009 0.0103539 0.00111651)
(-0.0101621 0.0133065 0.00344701)
(-0.00897725 0.0155186 0.00486356)
(-0.0013489 0.0155548 0.00502202)
(0.00604638 0.00991491 0.00715319)
(0.00588509 0.00392397 0.00364927)
(-0.0101708 -0.00156769 0.00771515)
(-0.0401342 4.35415e-05 0.0299439)
(-0.0541153 -2.7195e-05 0.00663642)
(-0.0420625 0.0493181 -0.0119603)
(-0.00182991 0.163747 0.0192721)
(0.0246945 0.206496 0.06666)
(0.057999 0.207384 0.0878188)
(0.0595948 0.202332 0.106949)
(0.124717 0.0763812 0.108889)
(0.299493 0.389434 0.0779341)
(-0.0516833 -0.177995 -0.0444992)
(-0.176836 -0.12969 0.00862709)
(-0.011496 0.127228 0.0167963)
(-0.0334276 -0.0457107 0.0212877)
(0.054847 0.0649796 0.0176596)
(0.0394066 0.00558413 0.0129287)
(0.0655136 0.0363651 0.0016869)
(0.0592132 0.0252225 -0.0194604)
(0.0711046 0.0707947 -0.0383331)
(0.0633385 0.113826 -0.0399201)
(0.0634159 0.171849 -0.0308578)
(0.0539243 0.202304 -0.0194533)
(0.0363383 0.217511 -0.0169679)
(0.0123327 0.218105 -0.0190861)
(-0.0157959 0.211793 -0.0179565)
(-0.0387274 0.20058 -0.0187363)
(-0.0515945 0.192857 -0.0224061)
(-0.0544486 0.181756 -0.0222002)
(-0.039405 0.158612 -0.0193395)
(-0.0299543 0.138291 -0.0157685)
(-0.0163098 0.112224 -0.0107663)