/*--------------------------------*- C++ -*----------------------------------*\
| =========                 |                                                 |
| \\      /  F ield         | OpenFOAM: The Open Source CFD Toolbox           |
|  \\    /   O peration     | Version:  2.3.0                                 |
|   \\  /    A nd           | Web:      www.OpenFOAM.org                      |
|    \\/     M anipulation  |                                                 |
\*---------------------------------------------------------------------------*/
FoamFile
{
    version     2.0;
    format      ascii;
    class       volVectorField;
    location    "53";
    object      U.airMean;
}
// * * * * * * * * * * * * * * * * * * * * * * * * * * * * * * * * * * * * * //

dimensions      [0 1 -1 0 0 0 0];

internalField   nonuniform List<vector> 
6144
(
(0.0098658 0.0201961 -0.000543979)
(0.0101669 -0.000659261 -0.00151408)
(0.00457214 -0.00219462 -0.0025161)
(0.00413731 -0.00277202 -0.00241424)
(0.00260269 -0.00256293 -0.00192482)
(0.00298996 -0.000813487 -0.00166224)
(0.00267716 -0.000874965 -0.00131053)
(0.00262906 0.000178974 -0.00102861)
(0.00227941 0.000337784 -0.000891794)
(0.00203818 0.00156246 -0.000562362)
(0.00184122 0.0024605 -0.000250647)
(0.00190123 0.00322302 0.00018358)
(0.00202862 0.00323506 0.000387549)
(0.0021636 0.00285231 0.000623105)
(0.00223133 0.00217564 0.000560811)
(0.00230848 0.00156455 0.00045843)
(0.00235578 0.000961353 0.000253316)
(0.0024068 0.000526762 7.53516e-05)
(0.0024476 0.000172789 -0.000112301)
(0.00247803 -3.36656e-05 -0.000259073)
(0.00249615 -0.000158168 -0.000376169)
(0.00250696 -0.000187033 -0.000453442)
(0.00250566 -0.000173918 -0.000486339)
(0.00249383 -0.000127249 -0.000480404)
(0.00247198 -6.98691e-05 -0.000442653)
(0.00244288 -9.49091e-06 -0.000378437)
(0.00241029 4.32418e-05 -0.000297477)
(0.00237681 7.9473e-05 -0.000209982)
(0.00234203 0.000100095 -0.00012046)
(0.00230553 9.6311e-05 -3.43785e-05)
(0.00226838 9.75464e-05 5.07886e-05)
(0.00222606 5.39936e-05 0.000141632)
(0.0021833 5.18912e-05 0.000244825)
(0.00213263 -6.72966e-05 0.000368243)
(0.00208805 -9.91582e-05 0.000518606)
(0.00203934 -0.000404069 0.000689111)
(0.00200981 -0.000547549 0.000859232)
(0.00198166 -0.00114172 0.000979932)
(0.00198279 -0.00134057 0.00100649)
(0.00198742 -0.00207113 0.000879111)
(0.00200481 -0.00195833 0.000559976)
(0.00201316 -0.00228109 1.44666e-05)
(0.00206419 -0.0011191 -0.000569027)
(0.00237772 -0.000698538 -0.00102268)
(0.00303187 0.000674159 -0.00144233)
(0.00376774 0.000111041 -0.00197426)
(0.00411979 0.00125492 -0.00270386)
(0.00336247 0.00190299 -0.00380574)
(0.00289559 0.00843571 -0.00563186)
(0.00690618 0.0123709 -0.00791196)
(0.018358 0.0129338 -0.010378)
(0.026673 -0.00677754 -0.0105539)
(0.0317208 -0.0180911 -0.0115613)
(0.0306616 -0.0538963 -0.0110211)
(0.0260524 -0.0484019 -0.0119891)
(0.0224623 -0.0884174 -0.00795256)
(0.00386308 -0.0416901 -0.0135077)
(0.00587121 -0.0944802 0.0225835)
(-0.0364817 0.0140154 -0.0467947)
(0.0338224 0.114692 0.0395473)
(0.114111 0.315863 0.031998)
(0.0479341 0.389362 -0.00875553)
(0.0452996 -0.0812959 -0.00165805)
(0.052066 -0.178866 0.00430212)
(0.0433279 -0.185223 0.00505915)
(0.0358399 -0.17901 0.00526291)
(0.0294184 -0.17771 0.00470012)
(0.024569 -0.172392 0.00436237)
(0.0213171 -0.169129 0.00442426)
(0.0185026 -0.162523 0.00468596)
(0.0159807 -0.157411 0.00495671)
(0.0134564 -0.149199 0.0053097)
(0.0113665 -0.14121 0.00582529)
(0.00885674 -0.131611 0.00630594)
(0.00578881 -0.121033 0.0065061)
(0.00337352 -0.107924 0.00510596)
(0.00216839 -0.0947629 0.00257538)
(0.000888673 -0.0818902 0.00113635)
(-0.000261869 -0.0688052 0.00106012)
(0.000726373 -0.0562793 0.00181068)
(0.00221969 -0.0460357 0.00251098)
(0.00281061 -0.0378869 0.0032778)
(0.00288259 -0.0325492 0.00440722)
(0.00195528 -0.0286467 0.00472601)
(0.00144683 -0.024159 0.00423399)
(0.00165382 -0.0186703 0.00347126)
(0.00189569 -0.0129091 0.00313654)
(0.00168343 -0.00664981 0.00234808)
(0.000937675 -0.000678956 0.00129714)
(-0.000193295 0.00730629 0.000618008)
(0.000251842 0.0147419 0.001343)
(0.00127683 0.0208487 0.00251978)
(0.00163163 0.0246666 0.00387641)
(0.00173352 0.02643 0.00646557)
(0.00322274 0.0251315 0.00992012)
(0.00619732 0.0162012 0.0151467)
(0.0192147 0.0212266 0.00302752)
(0.0204485 0.00734158 0.00247193)
(0.0104774 0.00387404 -0.000589759)
(0.00998334 0.00264444 0.000144326)
(0.00574176 -0.00028931 0.00102337)
(0.00577075 0.000650765 0.00154183)
(0.00448891 -0.000265186 0.0021021)
(0.00427933 0.00114128 0.00215411)
(0.00356733 0.0013801 0.00214082)
(0.00319692 0.00292141 0.00219879)
(0.00303693 0.0037074 0.00236105)
(0.00338699 0.00436016 0.00283781)
(0.00375813 0.00418233 0.00308354)
(0.00415203 0.00378791 0.00327626)
(0.00429103 0.00302749 0.003265)
(0.00443334 0.00235901 0.00323432)
(0.00446866 0.00165216 0.00314641)
(0.00452287 0.0011349 0.00307979)
(0.00455111 0.000686015 0.00300048)
(0.00456873 0.000397011 0.00295037)
(0.00456707 0.000195899 0.00291074)
(0.00455909 0.000106954 0.00288356)
(0.00453165 6.96751e-05 0.00288814)
(0.00448674 7.93026e-05 0.00292313)
(0.00442544 0.000109474 0.00298106)
(0.00435356 0.00015289 0.00305596)
(0.0042798 0.000196647 0.00313336)
(0.00421031 0.000229505 0.00320427)
(0.00414152 0.000248429 0.00327507)
(0.00407114 0.000243034 0.00334043)
(0.00400174 0.000238001 0.00340407)
(0.00392453 0.000177352 0.00347047)
(0.00385538 0.000153445 0.00354226)
(0.00377938 -8.19626e-06 0.00361996)
(0.00373784 -6.52302e-05 0.00370853)
(0.00369923 -0.000414244 0.00380034)
(0.00371968 -0.000530456 0.00389173)
(0.0037238 -0.00112945 0.00395788)
(0.00377242 -0.0012222 0.00398308)
(0.00375754 -0.00194602 0.00391818)
(0.00371949 -0.00168715 0.00371576)
(0.00363846 -0.00212477 0.00327063)
(0.00372608 -0.00106934 0.00263387)
(0.00421012 -0.00127953 0.00208223)
(0.0052713 7.35513e-05 0.00153819)
(0.00619842 2.77787e-05 0.000764617)
(0.00579701 0.00288943 -0.000466104)
(0.00465927 0.00484819 -0.00191161)
(0.00658788 0.0100632 -0.00335148)
(0.016879 0.00728654 -0.00432535)
(0.0378722 0.00234656 -0.00593604)
(0.0514213 -0.0140297 -0.00562356)
(0.0595609 -0.0184686 -0.00355094)
(0.0558293 -0.0461463 -0.00118018)
(0.0445691 -0.0344743 0.00419366)
(0.0435459 -0.092472 0.012039)
(0.00212224 -0.0409096 0.0121397)
(0.000634124 -0.157252 0.0433403)
(-0.0947539 0.0398621 -0.0742698)
(0.0235794 0.0444675 0.0232264)
(0.125168 0.34971 0.0756556)
(0.0242084 0.429917 0.00347547)
(0.0194905 -0.0660732 0.00526266)
(0.0252641 -0.034898 0.0156435)
(0.012094 -0.0527117 0.0173678)
(0.00438626 -0.0434169 0.0157363)
(0.0010718 -0.0452455 0.0130341)
(0.000822791 -0.0408142 0.0121962)
(0.00184209 -0.0396394 0.0116824)
(0.00136687 -0.0349832 0.0104698)
(-0.000106946 -0.0348722 0.0110643)
(-0.0022384 -0.0341735 0.0119127)
(-0.00380304 -0.0359501 0.0123053)
(-0.00625156 -0.0368431 0.0114967)
(-0.00912952 -0.0377483 0.0101696)
(-0.00999567 -0.0354857 0.00890113)
(-0.00950752 -0.03332 0.00757247)
(-0.00991527 -0.0306081 0.00694367)
(-0.00982049 -0.0270283 0.00675035)
(-0.00806073 -0.0239229 0.00718629)
(-0.00594082 -0.0202992 0.00735432)
(-0.00419551 -0.0167586 0.00807295)
(-0.00315084 -0.0159687 0.00936881)
(-0.00316309 -0.0167469 0.0094614)
(-0.00362005 -0.0169103 0.00816875)
(-0.00319668 -0.0161451 0.00689057)
(-0.00272299 -0.0132866 0.00527928)
(-0.00286239 -0.00890975 0.00373139)
(-0.00337737 -0.00413165 0.00239473)
(-0.00399836 0.00159125 0.00158306)
(-0.00336932 0.00701539 0.0026646)
(-0.00188263 0.0114812 0.00402199)
(-0.00174475 0.0164802 0.00601066)
(-0.0018059 0.0179384 0.00971768)
(-0.00111434 0.0182985 0.0140449)
(0.00192299 0.0110333 0.0198609)
(0.0225149 0.0211684 0.00413939)
(0.0244978 0.0120777 0.00403626)
(0.0145919 0.00745339 0.00125746)
(0.0135094 0.00688619 0.00218102)
(0.00702326 0.00234486 0.00291232)
(0.00614644 0.00285803 0.00313508)
(0.00356456 0.000951795 0.00370677)
(0.00315952 0.00224596 0.00360254)
(0.00223541 0.0022578 0.0035306)
(0.00213889 0.00348105 0.00360627)
(0.00205171 0.00369224 0.00367545)
(0.00270548 0.00419794 0.00397019)
(0.00315193 0.00395386 0.00415254)
(0.00365657 0.00380563 0.00430896)
(0.00384361 0.00325921 0.00429713)
(0.00403372 0.00280039 0.00428572)
(0.00405112 0.00221536 0.00423757)
(0.00409375 0.00177482 0.00421589)
(0.00407333 0.00134524 0.00419652)
(0.00404918 0.00103993 0.00420227)
(0.0039904 0.000781761 0.00421934)
(0.00391943 0.000614277 0.00425438)
(0.00383897 0.000497622 0.00429587)
(0.00375303 0.000435086 0.00434352)
(0.00365996 0.000402474 0.00439412)
(0.00356467 0.000391591 0.00444632)
(0.00346868 0.000388953 0.00450004)
(0.00337283 0.000387733 0.00455668)
(0.00327828 0.000384504 0.00461547)
(0.00317952 0.000363879 0.00467602)
(0.00308138 0.000343796 0.00473798)
(0.00297819 0.000271195 0.00480117)
(0.00288907 0.000231624 0.0048661)
(0.00279302 7.12185e-05 0.00493025)
(0.00274432 3.41255e-05 0.00499421)
(0.00269802 -0.000231454 0.00504959)
(0.00273187 -0.000200136 0.00509577)
(0.00274891 -0.000551866 0.00511528)
(0.0028399 -0.000337618 0.00510223)
(0.00285602 -0.000703872 0.00502685)
(0.00291162 -0.000140494 0.00485923)
(0.00287286 -0.000493625 0.00462282)
(0.00303976 0.000378115 0.0043888)
(0.00356497 -0.000258327 0.00418209)
(0.00444502 0.00109135 0.00367391)
(0.00518355 0.0011568 0.00305498)
(0.00507943 0.00389944 0.00205528)
(0.00567196 0.00351797 0.000773117)
(0.010989 0.00639341 -0.000439286)
(0.0268976 -0.00029828 -0.000403151)
(0.0521184 -0.00216529 -0.00185967)
(0.0693513 -0.00988017 -0.000409773)
(0.0755346 -0.00464638 0.00307045)
(0.0718698 -0.0217537 0.0061402)
(0.0631229 -0.00734676 0.0157475)
(0.058516 -0.072474 0.0241714)
(0.00401338 -0.00860015 0.0349421)
(0.0168994 -0.180383 0.0634471)
(-0.11336 0.0859222 -0.0602534)
(0.0531752 0.018611 -0.00259284)
(0.172783 0.370286 0.0896677)
(0.076273 0.443576 0.0246645)
(0.0709479 -0.00709129 0.0200165)
(0.0458507 0.055452 0.015063)
(0.0299444 0.0183419 0.0132952)
(0.0201531 0.0304335 0.0140296)
(0.0167653 0.0228272 0.0141211)
(0.0122873 0.0255716 0.0115959)
(0.0109469 0.0264527 0.0101273)
(0.0108646 0.0262775 0.0106433)
(0.00971237 0.0198883 0.0125344)
(0.00669181 0.0140691 0.0138828)
(0.00435708 0.00828165 0.0142254)
(0.00149841 0.00614646 0.0134265)
(-0.00165177 0.00287629 0.0114991)
(-0.00342097 0.00202422 0.00956914)
(-0.00425593 0.00237105 0.00895622)
(-0.00567249 0.0032018 0.0092142)
(-0.00715373 0.00287107 0.0100698)
(-0.00689662 0.00221381 0.0105169)
(-0.00554304 0.00201687 0.0109415)
(-0.00377147 0.00138443 0.0120213)
(-0.00269528 -0.00115269 0.0131448)
(-0.00395871 -0.00371563 0.0121778)
(-0.00501778 -0.00603381 0.0111203)
(-0.00535344 -0.00723632 0.00951048)
(-0.00530811 -0.00638297 0.00708287)
(-0.00533396 -0.00470347 0.00434797)
(-0.0052478 -0.0020435 0.00133742)
(-0.00523137 0.0031346 -0.000253693)
(-0.00486516 0.00736613 0.00241361)
(-0.00461715 0.010673 0.00548948)
(-0.00442055 0.013449 0.00859768)
(-0.00435783 0.0135082 0.0120815)
(-0.00533666 0.0141884 0.016406)
(-0.00499794 0.00819538 0.0214584)
(0.0236938 0.0212242 0.0043819)
(0.027153 0.0153277 0.00453833)
(0.0165971 0.00916423 0.001001)
(0.0164224 0.00998822 0.00142829)
(0.0088334 0.00420409 0.00205529)
(0.0074193 0.00490424 0.00252988)
(0.00318753 0.0014984 0.00348867)
(0.0022477 0.00248523 0.00347795)
(0.000921682 0.00178091 0.0035814)
(0.00106085 0.00300083 0.00371872)
(0.000994282 0.00287132 0.00387401)
(0.00162855 0.00348265 0.00427521)
(0.00199833 0.00344578 0.0044768)
(0.00252488 0.00359379 0.0046367)
(0.00274196 0.00323992 0.00460944)
(0.00295344 0.00295971 0.00461181)
(0.00296042 0.00246473 0.00458336)
(0.00298853 0.00209676 0.00458987)
(0.00293967 0.001697 0.00458672)
(0.00289386 0.00140022 0.00459912)
(0.00280734 0.00112477 0.00461361)
(0.00271214 0.000922578 0.00463996)
(0.00260203 0.000757183 0.00467171)
(0.00248871 0.000644584 0.00470989)
(0.00237474 0.000568725 0.00475177)
(0.00226467 0.000524983 0.00479714)
(0.00216112 0.000500301 0.00484381)
(0.002065 0.000484752 0.00489144)
(0.00197496 0.00047138 0.00494073)
(0.00188729 0.000446454 0.004992)
(0.00180628 0.000424464 0.0050453)
(0.00172608 0.000363143 0.00509864)
(0.00166502 0.000341196 0.0051491)
(0.00160092 0.000224071 0.00519111)
(0.00158554 0.000242188 0.00522004)
(0.00155925 7.1676e-05 0.00522738)
(0.00161054 0.000221292 0.00521091)
(0.001618 3.8465e-05 0.00516096)
(0.0017041 0.000445286 0.00507947)
(0.00170233 0.00029388 0.00495486)
(0.00181186 0.00104738 0.00477766)
(0.0019012 0.000772816 0.00457664)
(0.00225107 0.00152786 0.00440333)
(0.00264183 0.000712378 0.00426113)
(0.00325736 0.00161126 0.00404318)
(0.00388149 0.000947566 0.00388399)
(0.00452686 0.00278104 0.0034816)
(0.00635069 0.000289781 0.00244825)
(0.0144318 0.00102456 0.00160081)
(0.0308642 -0.00626055 0.00161544)
(0.0554981 -0.0022747 0.000979456)
(0.0722135 0.00214014 0.00416395)
(0.0795416 0.0174656 0.00850054)
(0.0772563 0.012517 0.0120867)
(0.0689929 0.0342682 0.0249504)
(0.0626543 -0.0243034 0.041016)
(0.0203823 0.0618052 0.0766757)
(0.0367748 -0.18986 0.102198)
(-0.148117 0.211279 -0.0400067)
(0.0567779 -0.0468786 0.0219499)
(0.155911 0.453943 0.0897169)
(0.0519866 0.572218 0.0169014)
(0.0377477 0.381482 0.0159769)
(0.0117764 0.424512 0.00337297)
(0.00846634 0.376138 0.00844682)
(0.000606162 0.354525 0.00860069)
(0.000296281 0.33081 0.009798)
(-0.000339804 0.3131 0.0091251)
(0.00139465 0.292626 0.00816237)
(0.00210464 0.274048 0.00821265)
(0.00216921 0.246374 0.00926054)
(0.00108977 0.218869 0.00948727)
(-0.00112194 0.188322 0.00950142)
(-0.00366024 0.157736 0.00917639)
(-0.00572014 0.129851 0.0083434)
(-0.00753891 0.113838 0.00833893)
(-0.00915198 0.101614 0.00868548)
(-0.0101408 0.0910217 0.00864543)
(-0.0108127 0.076349 0.0101482)
(-0.0104679 0.0625084 0.0117127)
(-0.00983076 0.0533051 0.0130503)
(-0.00945797 0.0472539 0.0128582)
(-0.00939196 0.0413081 0.0135582)
(-0.00988176 0.0336406 0.0130065)
(-0.0112994 0.0287127 0.0122201)
(-0.0120436 0.0250862 0.0108747)
(-0.0112146 0.022412 0.00684534)
(-0.00966541 0.0212529 0.00386458)
(-0.0095533 0.0193061 0.00117703)
(-0.00881124 0.0194143 -0.000449846)
(-0.00783344 0.0192518 0.00337497)
(-0.00753822 0.0178345 0.0066205)
(-0.0077865 0.016763 0.00949346)
(-0.00920987 0.0138315 0.0135086)
(-0.01293 0.013245 0.0170588)
(-0.0148022 0.00719098 0.0218901)
(0.0237094 0.0213679 0.00452037)
(0.0290113 0.018364 0.0051723)
(0.0182303 0.0104141 0.000881293)
(0.0194486 0.01226 0.00098025)
(0.0109794 0.00490982 0.000362986)
(0.00933853 0.0064228 0.00094888)
(0.00371872 0.00176261 0.00216828)
(0.00209796 0.00296911 0.00266009)
(-0.00023214 0.000961664 0.00304129)
(-0.000329826 0.0021036 0.00341685)
(-0.000661934 0.00170912 0.00366225)
(-0.000280382 0.00260096 0.00421862)
(-8.31612e-05 0.00280782 0.00442994)
(0.000486584 0.00325907 0.00461904)
(0.000745887 0.003072 0.0045638)
(0.000958452 0.00290297 0.00458425)
(0.000910007 0.0024664 0.00456802)
(0.000846362 0.00216564 0.0045971)
(0.000710783 0.00181431 0.00459707)
(0.000601058 0.00155357 0.00459924)
(0.000469024 0.0012855 0.00458811)
(0.000346995 0.00106974 0.004584)
(0.000223833 0.000878385 0.00458384)
(0.000103571 0.000735848 0.00459151)
(-1.59578e-05 0.000628571 0.00460429)
(-0.000125045 0.000555906 0.00462304)
(-0.000221403 0.00050639 0.0046461)
(-0.000303782 0.000471043 0.00467198)
(-0.000376325 0.000444448 0.00469808)
(-0.000445885 0.000417699 0.00472448)
(-0.000511087 0.000401848 0.00475104)
(-0.000576408 0.000362821 0.0047751)
(-0.000625404 0.000371923 0.00479393)
(-0.000678925 0.000315848 0.00479945)
(-0.000682164 0.000407802 0.00478602)
(-0.000697745 0.000351277 0.00474146)
(-0.000633981 0.000623771 0.00466473)
(-0.000621657 0.000610327 0.00454741)
(-0.000519034 0.00119049 0.0044063)
(-0.000500393 0.00122063 0.00425657)
(-0.000273479 0.00206238 0.00413926)
(-4.31223e-06 0.00174234 0.00403697)
(0.000602167 0.00232482 0.00389117)
(0.00121179 0.00122052 0.00369877)
(0.00195764 0.00169301 0.00367014)
(0.00249504 0.000411428 0.00375624)
(0.00367514 0.00120834 0.00417652)
(0.0069945 -0.00270132 0.003853)
(0.0166484 -0.00415886 0.00393021)
(0.031264 -0.00791984 0.00533667)
(0.049498 0.0036606 0.00669047)
(0.0645412 0.0188712 0.0122363)
(0.0714456 0.0462959 0.0157274)
(0.070156 0.0544208 0.0193581)
(0.0628062 0.0845418 0.034944)
(0.0520938 0.0449245 0.0511042)
(0.0236588 0.134269 0.0865126)
(0.0316453 -0.106461 0.103652)
(-0.120075 0.322573 -0.0104901)
(0.0464466 -0.0794851 0.0284972)
(0.146169 0.505233 0.0949462)
(0.0468012 0.62278 0.0156773)
(0.0384043 0.551172 0.0154986)
(0.0133053 0.603405 0.00210529)
(0.0110272 0.59321 0.00754049)
(0.0031793 0.603907 0.00697709)
(0.00360879 0.598439 0.00804331)
(0.00140665 0.596335 0.00763812)
(0.00204799 0.59024 0.00799986)
(0.00226181 0.586157 0.00902688)
(0.00263089 0.581275 0.0101025)
(0.00174329 0.575756 0.010502)
(0.00140095 0.567503 0.0103553)
(0.000472589 0.556462 0.0101568)
(-0.000235263 0.5393 0.0101664)
(-0.00147248 0.512634 0.00975563)
(-0.00276481 0.489371 0.00995208)
(-0.00460619 0.46646 0.0107771)
(-0.00622443 0.444858 0.0124205)
(-0.00749691 0.42451 0.0134885)
(-0.00872728 0.403546 0.0143853)
(-0.00986138 0.374179 0.0152766)
(-0.0100793 0.336268 0.0145964)
(-0.00978095 0.298069 0.0120474)
(-0.00831108 0.26091 0.00853387)
(-0.00653467 0.229201 0.00433009)
(-0.00527016 0.190017 0.00161498)
(-0.00428872 0.158545 0.000658146)
(-0.00525544 0.134044 9.27547e-05)
(-0.00505293 0.115122 0.00321624)
(-0.00616212 0.0987818 0.00699482)
(-0.00674601 0.0760114 0.00921038)
(-0.00786184 0.0587524 0.0128145)
(-0.0114804 0.0386628 0.0161213)
(-0.0184269 0.024787 0.0178005)
(-0.024845 0.0115751 0.0208889)
(0.0223608 0.0210017 0.00507441)
(0.0303439 0.0217469 0.00646146)
(0.0189432 0.0114691 0.00176555)
(0.0216693 0.0143146 0.00229977)
(0.0134091 0.00441199 -0.00013368)
(0.0114226 0.00693149 -0.000147862)
(0.00480352 0.001096 0.000798122)
(0.00245504 0.00334199 0.00151852)
(-0.00040522 0.000323881 0.0021802)
(-0.00131257 0.00136711 0.00278668)
(-0.00194195 0.000419123 0.00308161)
(-0.00176118 0.00154898 0.00380333)
(-0.00149841 0.00200822 0.00410929)
(-0.000740351 0.00281887 0.0044877)
(-0.000270406 0.00269803 0.00458308)
(1.88185e-05 0.00260101 0.00473281)
(-4.89452e-05 0.00218629 0.00476177)
(-0.000180865 0.00196709 0.00480138)
(-0.000373928 0.00171141 0.00477625)
(-0.0005204 0.00155994 0.00473869)
(-0.000675616 0.00138286 0.0046691)
(-0.000813346 0.00123708 0.00459549)
(-0.00095493 0.00108891 0.0045212)
(-0.00108392 0.000967202 0.0044565)
(-0.00119605 0.000867958 0.00440071)
(-0.00128706 0.000798123 0.00435403)
(-0.00135666 0.000747857 0.00431644)
(-0.00140957 0.000710776 0.00428777)
(-0.00145467 0.000682086 0.00426738)
(-0.00149395 0.00065771 0.00425703)
(-0.00152669 0.000652132 0.00425539)
(-0.00155599 0.000642797 0.00425586)
(-0.00157043 0.00069347 0.00425334)
(-0.00158923 0.00070948 0.00423432)
(-0.00156978 0.000880221 0.00419104)
(-0.00157634 0.000932771 0.00411043)
(-0.00153202 0.00129487 0.00399126)
(-0.00156682 0.00137806 0.00382827)
(-0.00151552 0.00197845 0.00365375)
(-0.0014901 0.00198536 0.00352122)
(-0.00117222 0.00269554 0.00349534)
(-0.00072573 0.00227995 0.00354549)
(7.04276e-05 0.00275143 0.00352276)
(0.000792124 0.00156961 0.00349376)
(0.00156968 0.00197829 0.00378034)
(0.00203582 0.000369822 0.00417917)
(0.00380757 -0.000160309 0.00465693)
(0.00886464 -0.00453304 0.00459023)
(0.0162643 -0.0060538 0.00588551)
(0.0247444 -0.00680924 0.00998636)
(0.0350141 0.00888548 0.0141539)
(0.0434717 0.0318713 0.0203583)
(0.0526073 0.0659145 0.0266078)
(0.0550825 0.0817638 0.0343276)
(0.0513243 0.111086 0.0497886)
(0.0444825 0.076999 0.0590003)
(0.0357819 0.151379 0.0800287)
(0.0498558 -0.0800781 0.0798122)
(-0.0297875 0.360908 0.0215613)
(0.035404 -0.0827254 0.0319256)
(0.0968766 0.545141 0.0908858)
(0.0196428 0.644481 0.00958335)
(0.0156419 0.606853 0.0122597)
(-0.00339629 0.659025 0.00311294)
(-0.00211801 0.658058 0.0105541)
(-0.00529214 0.670307 0.0108509)
(-0.00234083 0.670013 0.012684)
(-0.00120014 0.674145 0.0130385)
(0.00142063 0.673621 0.0141943)
(0.00315312 0.673646 0.0146021)
(0.00495755 0.668446 0.0142806)
(0.00544478 0.665328 0.0138465)
(0.0059541 0.662951 0.0133318)
(0.00507645 0.661017 0.0131218)
(0.00357159 0.657291 0.0131805)
(0.00143106 0.654433 0.01327)
(-0.000912183 0.650083 0.0138096)
(-0.00347915 0.644324 0.0145489)
(-0.00617465 0.636322 0.0151111)
(-0.00819032 0.624578 0.0152755)
(-0.00972319 0.611874 0.014573)
(-0.0102555 0.596855 0.0128062)
(-0.00933353 0.580768 0.00988976)
(-0.0079776 0.561736 0.00616724)
(-0.00693715 0.542157 0.00245657)
(-0.0058151 0.519038 -0.000516901)
(-0.005008 0.485079 -0.00130573)
(-0.00508202 0.443122 0.000839793)
(-0.00641712 0.398337 0.00453801)
(-0.00796618 0.352604 0.00807507)
(-0.0092392 0.301363 0.00934969)
(-0.0104446 0.2437 0.0111211)
(-0.0125641 0.206387 0.0146656)
(-0.016932 0.161334 0.0176636)
(-0.0237173 0.109652 0.0192165)
(-0.0300965 0.076913 0.0187359)
(0.0188992 0.0194732 0.00524272)
(0.0303941 0.0254822 0.00853493)
(0.0178628 0.0119514 0.00370726)
(0.0216804 0.0164991 0.00501962)
(0.0141672 0.00343776 0.00151745)
(0.0121958 0.00659816 0.000687186)
(0.00487031 -0.000322079 0.000879657)
(0.0023923 0.00325939 0.00111728)
(-0.00082367 -4.12619e-05 0.00164064)
(-0.00225267 0.00126755 0.0024134)
(-0.00361398 -0.000244733 0.00262029)
(-0.0042938 0.000924875 0.00339359)
(-0.00442602 0.00130199 0.00382071)
(-0.00342879 0.00221545 0.00458715)
(-0.00282238 0.00207565 0.00498773)
(-0.00254384 0.00210806 0.00532513)
(-0.00275255 0.00178014 0.0053974)
(-0.0030847 0.00169325 0.00540344)
(-0.00343705 0.00155895 0.00530915)
(-0.00366976 0.00154586 0.00520068)
(-0.00385383 0.00149996 0.0050571)
(-0.00397865 0.0014817 0.00491509)
(-0.00408061 0.00143874 0.00477683)
(-0.00416519 0.00139862 0.00465918)
(-0.00424696 0.00136013 0.00456611)
(-0.00430051 0.00133439 0.00449003)
(-0.00432529 0.00131062 0.00442914)
(-0.0043238 0.00128747 0.00439067)
(-0.00430995 0.00126431 0.00437323)
(-0.00429813 0.00124467 0.00437425)
(-0.00429367 0.00124992 0.00438953)
(-0.00429392 0.00126948 0.00440877)
(-0.00429331 0.00136292 0.00442227)
(-0.00430233 0.00144696 0.00441334)
(-0.00427302 0.0016767 0.00437959)
(-0.00425795 0.00178943 0.00431168)
(-0.00417351 0.00215291 0.0042197)
(-0.00413614 0.00218533 0.00409532)
(-0.00399533 0.00260227 0.00396012)
(-0.00389616 0.00235182 0.00383293)
(-0.00353997 0.0027565 0.00377115)
(-0.00308646 0.00218264 0.00371419)
(-0.0021504 0.00269647 0.00366909)
(-0.00130948 0.00173814 0.00383689)
(-0.000520374 0.0021468 0.00427792)
(0.000440107 0.000396103 0.00470697)
(0.00351531 -0.000769421 0.00499182)
(0.00847759 -0.00398361 0.0052234)
(0.0137278 -0.00364049 0.00684757)
(0.0151792 0.00038187 0.0125384)
(0.0129152 0.0204418 0.0202197)
(0.0170838 0.0443725 0.0262465)
(0.0246115 0.0820823 0.033657)
(0.0305947 0.104066 0.0425323)
(0.037409 0.130139 0.0548064)
(0.0429676 0.095944 0.0601801)
(0.0523447 0.164281 0.0719835)
(0.0474673 -0.065148 0.0623277)
(0.0132738 0.353187 0.0529563)
(0.0136722 -0.0660805 0.0320945)
(0.0388427 0.578371 0.0785824)
(-0.00252116 0.664257 0.00944939)
(-0.00211003 0.646673 0.011234)
(-0.0110161 0.692809 0.00559381)
(-0.00647615 0.690385 0.0133887)
(-0.00572246 0.700953 0.0131766)
(-0.00268571 0.700004 0.014738)
(-0.00132867 0.704183 0.0150761)
(0.0011378 0.704573 0.0160347)
(0.00341519 0.704996 0.0161297)
(0.00565541 0.704312 0.0157894)
(0.00660755 0.70275 0.0156037)
(0.00739672 0.702806 0.0158397)
(0.00677082 0.701407 0.0159835)
(0.00580352 0.698588 0.0164154)
(0.00404918 0.692728 0.016347)
(0.00234641 0.684655 0.0163521)
(0.000429004 0.675765 0.0161979)
(-0.00115729 0.668398 0.0159586)
(-0.00254497 0.660168 0.0156243)
(-0.00284738 0.651135 0.013998)
(-0.00232524 0.643237 0.0113436)
(-0.000817966 0.638727 0.00777303)
(0.000306931 0.634633 0.00362912)
(0.00123536 0.626764 0.000142964)
(0.00125534 0.614411 -0.00241159)
(0.000515989 0.603606 -0.00209642)
(-0.000324213 0.5896 3.6756e-05)
(-0.00142762 0.564356 0.00260775)
(-0.00406112 0.54411 0.00510116)
(-0.00812947 0.521922 0.00632539)
(-0.0131937 0.492566 0.0081793)
(-0.0186786 0.449406 0.0102518)
(-0.0250788 0.387919 0.0119752)
(-0.0320197 0.313712 0.0135743)
(-0.040025 0.274961 0.0116968)
(0.0158819 0.0142413 0.00432915)
(0.0292557 0.0285633 0.00943984)
(0.015365 0.0120251 0.00444187)
(0.0205298 0.0195076 0.0059829)
(0.0138934 0.00366706 0.00262805)
(0.01156 0.00671212 0.00161049)
(0.00334843 -0.00155846 0.00161976)
(0.000793448 0.00299325 0.00132599)
(-0.00152964 -0.000634832 0.00211443)
(-0.00308017 0.00153716 0.00278422)
(-0.0043621 -0.000322742 0.00306737)
(-0.00512668 0.000690166 0.00392458)
(-0.00508626 0.000178321 0.00461584)
(-0.00392237 0.000817942 0.00564355)
(-0.00327921 0.000598048 0.00636966)
(-0.00302395 0.00101151 0.00697229)
(-0.00321958 0.00106729 0.00724693)
(-0.003502 0.00137548 0.00734243)
(-0.00380243 0.00149469 0.00727697)
(-0.00398779 0.00169665 0.0071604)
(-0.0041397 0.00180445 0.00699078)
(-0.00423411 0.00190249 0.0068182)
(-0.0043052 0.00194063 0.00665213)
(-0.00435267 0.00196062 0.00650869)
(-0.00438719 0.00195384 0.0063867)
(-0.00439537 0.0019371 0.00629062)
(-0.00437541 0.00191618 0.00622047)
(-0.00433163 0.00189285 0.00617428)
(-0.00428005 0.00186752 0.00614852)
(-0.00423676 0.00185018 0.00614081)
(-0.00421033 0.00186646 0.00614323)
(-0.00419833 0.00191311 0.00614329)
(-0.00419709 0.00204113 0.00613185)
(-0.00420139 0.00217039 0.00610026)
(-0.00416385 0.00241757 0.00604796)
(-0.00413726 0.00252973 0.00596987)
(-0.00402868 0.00281818 0.00587943)
(-0.00394722 0.00274643 0.00577057)
(-0.00372567 0.00298922 0.00566425)
(-0.00355668 0.0026044 0.00555626)
(-0.00322263 0.00284578 0.00547856)
(-0.00287259 0.00217587 0.00539721)
(-0.00207603 0.00263432 0.00536684)
(-0.00124362 0.00169556 0.00555914)
(-0.000520371 0.00219696 0.00590605)
(0.00068869 4.30276e-05 0.0059183)
(0.00343843 0.000206847 0.00535112)
(0.00631632 0.000214714 0.00564857)
(0.00729026 0.0043703 0.00802515)
(0.000807753 0.0131291 0.0169206)
(-0.00786007 0.032017 0.0265573)
(-0.0122568 0.0531513 0.0308035)
(-0.0075596 0.0868611 0.0339303)
(0.00832119 0.113241 0.0392738)
(0.0266758 0.143776 0.0504077)
(0.0530751 0.129524 0.0573883)
(0.0784224 0.185842 0.0714932)
(0.0876553 -0.00636067 0.0654723)
(0.0948682 0.387573 0.0380865)
(-0.024003 -0.0746402 0.0264116)
(-0.0496052 0.612145 0.0421873)
(-0.0341831 0.694753 -0.00711875)
(-0.0305441 0.678971 0.00192875)
(-0.0220363 0.717726 0.00038768)
(-0.014875 0.712443 0.00753271)
(-0.00807145 0.719765 0.00676895)
(-0.00487027 0.71758 0.00805796)
(-0.000532763 0.718143 0.00810175)
(0.00266404 0.719149 0.0093973)
(0.005861 0.718174 0.0103463)
(0.00775672 0.717977 0.0108669)
(0.00919395 0.71917 0.0116999)
(0.0110515 0.718528 0.0130465)
(0.0125527 0.716203 0.0146858)
(0.0134603 0.711318 0.016288)
(0.0137618 0.706204 0.0176736)
(0.0138064 0.698491 0.0186443)
(0.0133006 0.689019 0.0192095)
(0.0123659 0.677913 0.0191207)
(0.0114378 0.666024 0.0183993)
(0.0107181 0.655729 0.0170447)
(0.010529 0.642388 0.014879)
(0.0100619 0.629035 0.0120573)
(0.00940956 0.621742 0.00898769)
(0.00844645 0.617024 0.00691851)
(0.00752736 0.609414 0.005723)
(0.00738283 0.601327 0.00567922)
(0.00703448 0.593167 0.00588965)
(0.00641972 0.585785 0.00732065)
(0.00465654 0.575701 0.00997616)
(0.00096672 0.556445 0.0127286)
(-0.00457322 0.532228 0.0150627)
(-0.0111129 0.508584 0.0152115)
(-0.019836 0.487958 0.0113192)
(-0.0279337 0.464724 0.00199712)
(-0.0341564 0.446202 -0.0159123)
(0.00656583 0.00883255 -0.00226135)
(0.0266861 0.0302954 0.00769573)
(0.011401 0.01244 0.00216885)
(0.0185043 0.0234726 0.00371425)
(0.0131766 0.0059082 0.00140306)
(0.0108209 0.00825647 0.000346144)
(0.00144385 -0.00192444 -0.00178724)
(-0.000751604 0.00334096 -0.00206511)
(-0.00385179 -0.000525405 -0.00116014)
(-0.0051755 0.00207016 -0.000462871)
(-0.00653507 -0.000209112 -7.7614e-05)
(-0.0072813 0.000549701 0.000779394)
(-0.00771968 -0.000690175 0.00150251)
(-0.00715245 -0.000147591 0.00237615)
(-0.00711069 -0.000275183 0.00310392)
(-0.00717946 0.000427278 0.00372297)
(-0.0075861 0.000692857 0.00418453)
(-0.00792857 0.00120865 0.00447109)
(-0.00827571 0.00145329 0.00458524)
(-0.00846798 0.00175853 0.00460176)
(-0.00856057 0.00193671 0.00454001)
(-0.00855998 0.00209541 0.00445623)
(-0.00853363 0.0021833 0.00436924)
(-0.00848855 0.00223924 0.00429351)
(-0.00843369 0.0022586 0.00422726)
(-0.00836258 0.00225869 0.00417309)
(-0.00827448 0.00224951 0.00413137)
(-0.00817291 0.00224047 0.00410207)
(-0.00807306 0.00223585 0.00408331)
(-0.00800712 0.00224209 0.00407298)
(-0.0079818 0.00227672 0.00406626)
(-0.00797553 0.00233919 0.00405442)
(-0.00797858 0.00246626 0.00403178)
(-0.0079686 0.00258426 0.00399306)
(-0.00788744 0.00279731 0.00393657)
(-0.00777938 0.00288573 0.0038668)
(-0.00757296 0.00314045 0.0037849)
(-0.00739738 0.00307553 0.0036914)
(-0.00716277 0.00330519 0.00357765)
(-0.00703621 0.00292051 0.00345112)
(-0.00671052 0.00309375 0.00330924)
(-0.00635094 0.00231734 0.00316087)
(-0.00552827 0.00254435 0.00302005)
(-0.00471091 0.00139832 0.00311703)
(-0.00382595 0.00170608 0.00321735)
(-0.00291781 -0.000587461 0.00260821)
(-0.00122633 0.00182532 0.00227168)
(5.40691e-05 0.00212928 0.0026743)
(-0.00279617 0.00900908 0.0056218)
(-0.0136589 0.0151346 0.0146177)
(-0.0287362 0.0266544 0.0263145)
(-0.0341886 0.036126 0.0309578)
(-0.0333405 0.058634 0.0294347)
(-0.0188261 0.0707069 0.0254896)
(0.0013425 0.11657 0.0338513)
(0.0375892 0.0848069 0.0402673)
(0.0740359 0.183425 0.0598007)
(0.0998515 -0.0249453 0.0657498)
(0.178725 0.418354 0.0342572)
(-0.0482065 -0.103172 0.017975)
(-0.122247 0.581003 0.0220714)
(-0.0507125 0.678122 -0.00699817)
(-0.0455673 0.637803 0.00273198)
(-0.0217609 0.674695 0.00389925)
(-0.0167505 0.65281 0.00856054)
(-0.00576796 0.654847 0.00508945)
(-0.0052335 0.645523 0.00407489)
(-0.00155554 0.644469 0.00255501)
(0.000383797 0.642723 0.00210327)
(0.00319692 0.642429 0.00152805)
(0.00423283 0.641556 0.00051025)
(0.00525467 0.642603 0.000700865)
(0.0063659 0.642058 0.00141132)
(0.00836288 0.643273 0.00298614)
(0.0105772 0.644238 0.00476604)
(0.0125692 0.64422 0.0065832)
(0.0136386 0.640819 0.00768416)