/*--------------------------------*- C++ -*----------------------------------*\
| =========                 |                                                 |
| \\      /  F ield         | OpenFOAM: The Open Source CFD Toolbox           |
|  \\    /   O peration     | Version:  2.3.0                                 |
|   \\  /    A nd           | Web:      www.OpenFOAM.org                      |
|    \\/     M anipulation  |                                                 |
\*---------------------------------------------------------------------------*/
FoamFile
{
    version     2.0;
    format      ascii;
    class       volScalarField;
    location    "43";
    object      alpha.water;
}
// * * * * * * * * * * * * * * * * * * * * * * * * * * * * * * * * * * * * * //

dimensions      [0 0 0 0 0 0 0];

internalField   nonuniform List<scalar> 
6144
(
4.05949e-06
4.7792e-06
5.21382e-06
5.67869e-06
6.27532e-06
7.42319e-06
8.34014e-06
9.12133e-06
9.69186e-06
9.93279e-06
9.97246e-06
9.97978e-06
9.98284e-06
9.9868e-06
9.98826e-06
9.98959e-06
9.98887e-06
9.98927e-06
9.98879e-06
9.98891e-06
9.98867e-06
9.98832e-06
9.98776e-06
9.98729e-06
9.9868e-06
9.98646e-06
9.98613e-06
9.98574e-06
9.98528e-06
9.98484e-06
9.98429e-06
9.98375e-06
9.98311e-06
9.98247e-06
9.98168e-06
9.98101e-06
9.9803e-06
9.97976e-06
9.97904e-06
9.97829e-06
9.97777e-06
9.97718e-06
9.9847e-06
1.01886e-05
1.09317e-05
1.22027e-05
1.36906e-05
1.5966e-05
2.25847e-05
3.41293e-05
5.21376e-05
7.15962e-05
8.38388e-05
9.30172e-05
0.000100897
0.000111242
0.000116813
0.00011983
0.00152627
0.065372
0.957022
0.999679
0.999999
1
1
0.999999
0.999999
0.999999
0.999999
0.999999
0.999999
0.999999
0.999999
0.999999
0.999999
0.999999
0.999999
0.999999
0.999999
0.999999
0.999999
0.999999
0.999999
0.999999
0.999999
0.999999
0.999999
0.999999
1
1
1
1
1
1
1
1
3.72523e-06
4.75691e-06
5.51816e-06
6.06454e-06
6.83091e-06
7.64396e-06
8.43195e-06
9.18031e-06
9.70824e-06
9.91931e-06
9.96755e-06
9.97893e-06
9.98423e-06
9.99161e-06
9.99566e-06
9.99765e-06
9.9971e-06
9.99723e-06
9.99659e-06
9.99651e-06
9.99616e-06
9.99559e-06
9.995e-06
9.99458e-06
9.99424e-06
9.99411e-06
9.99398e-06
9.99371e-06
9.99348e-06
9.99327e-06
9.99306e-06
9.99283e-06
9.99261e-06
9.99225e-06
9.99175e-06
9.99113e-06
9.9904e-06
9.98962e-06
9.9885e-06
9.98773e-06
9.98683e-06
9.98696e-06
1.00187e-05
1.03734e-05
1.13677e-05
1.28384e-05
1.462e-05
1.60025e-05
1.82348e-05
2.71645e-05
5.40939e-05
8.64151e-05
0.000101887
0.000113259
0.000111841
0.000114447
0.000114824
0.000121408
0.00070717
0.0413492
0.956823
0.999792
1
1
0.999999
0.999999
0.999999
0.999999
0.999999
0.999999
0.999999
0.999999
0.999999
0.999999
0.999999
0.999999
0.999999
0.999999
0.999999
0.999999
0.999999
0.999999
0.999999
0.999999
0.999999
0.999999
0.999999
0.999999
1
1
1
1
1
1
1
1
3.46843e-06
4.34007e-06
5.41883e-06
6.10971e-06
7.01882e-06
7.76178e-06
8.48749e-06
9.10079e-06
9.53116e-06
9.77542e-06
9.88589e-06
9.93801e-06
9.96667e-06
9.98331e-06
9.99167e-06
9.99602e-06
9.99671e-06
9.99718e-06
9.99679e-06
9.99675e-06
9.99637e-06
9.99595e-06
9.99548e-06
9.99506e-06
9.99466e-06
9.99437e-06
9.9941e-06
9.99383e-06
9.99357e-06
9.99334e-06
9.99302e-06
9.99261e-06
9.99187e-06
9.99101e-06
9.98999e-06
9.98898e-06
9.98789e-06
9.98684e-06
9.98565e-06
9.98568e-06
9.98709e-06
9.99329e-06
1.00785e-05
1.06455e-05
1.19357e-05
1.40023e-05
1.72238e-05
2.01892e-05
2.14711e-05
3.71776e-05
7.34708e-05
0.00010083
0.000113197
0.000116195
0.000109287
0.000111573
0.000111687
0.000119659
0.000565074
0.0444148
0.965351
0.999898
1
1
1
1
1
0.999999
0.999999
0.999999
0.999999
0.999999
0.999999
0.999999
0.999999
0.999999
0.999999
0.999999
0.999999
0.999999
0.999999
0.999999
0.999999
0.999999
0.999999
0.999999
0.999999
0.999999
0.999999
0.999999
1
1
1
1
1
1
3.34495e-06
3.9752e-06
5.08887e-06
5.79556e-06
6.85967e-06
7.68063e-06
8.41417e-06
8.98515e-06
9.42032e-06
9.68968e-06
9.83413e-06
9.91584e-06
9.95709e-06
9.97781e-06
9.98697e-06
9.99195e-06
9.9925e-06
9.99283e-06
9.99244e-06
9.99233e-06
9.99193e-06
9.99154e-06
9.99101e-06
9.9904e-06
9.98983e-06
9.98925e-06
9.98884e-06
9.98842e-06
9.98823e-06
9.98805e-06
9.98802e-06
9.98788e-06
9.98764e-06
9.98714e-06
9.98657e-06
9.98587e-06
9.98514e-06
9.98422e-06
9.98385e-06
9.98386e-06
9.98522e-06
1.00017e-05
1.01568e-05
1.08151e-05
1.22495e-05
1.55419e-05
2.20076e-05
2.89858e-05
3.59151e-05
6.11995e-05
9.32266e-05
0.000107875
0.000110777
0.000109605
0.000107905
0.000109376
0.000104139
0.0001149
0.000346151
0.0628809
0.984336
0.999979
0.999999
0.999999
0.999998
0.999998
0.999998
0.999998
0.999999
0.999999
0.999999
0.999998
0.999999
0.999999
0.999999
0.999999
0.999998
0.999998
0.999999
0.999999
0.999998
0.999998
0.999999
0.999999
0.999999
0.999999
0.999999
0.999999
0.999999
0.999999
0.999999
0.999999
0.999999
0.999999
0.999999
1
3.25438e-06
3.67918e-06
4.77177e-06
5.45387e-06
6.48923e-06
7.3212e-06
8.30207e-06
8.87427e-06
9.30957e-06
9.61132e-06
9.79357e-06
9.90358e-06
9.95636e-06
9.98061e-06
9.99011e-06
9.99524e-06
9.99596e-06
9.99638e-06
9.99623e-06
9.99635e-06
9.99612e-06
9.9959e-06
9.99538e-06
9.99485e-06
9.99417e-06
9.99359e-06
9.99295e-06
9.99239e-06
9.99178e-06
9.99126e-06
9.99064e-06
9.99007e-06
9.98935e-06
9.98864e-06
9.98776e-06
9.98691e-06
9.98588e-06
9.98481e-06
9.98404e-06
9.9845e-06
9.98752e-06
1.00195e-05
1.02185e-05
1.0855e-05
1.24953e-05
1.70097e-05
2.52608e-05
3.60624e-05
5.78866e-05
8.95331e-05
0.000108563
0.000110302
0.000109744
0.000109841
0.000108131
0.0001076
0.00010423
0.000118403
0.000322411
0.0925995
0.984524
0.999773
0.999828
0.999856
0.999847
0.999837
0.999822
0.999806
0.999792
0.999806
0.999822
0.999827
0.999837
0.999835
0.999818
0.999805
0.999797
0.999794
0.999789
0.999785
0.999804
0.999827
0.999854
0.999888
0.999922
0.999955
0.99998
0.999992
0.999996
0.999998
0.999999
0.999999
0.999999
0.999999
0.999999
1
3.15878e-06
3.46843e-06
4.43718e-06
5.08943e-06
6.13972e-06
6.88734e-06
8.01525e-06
8.7393e-06
9.19065e-06
9.53109e-06
9.74962e-06
9.88641e-06
9.94955e-06
9.97529e-06
9.98414e-06
9.98906e-06
9.98962e-06
9.98992e-06
9.98979e-06
9.98986e-06
9.98984e-06
9.98984e-06
9.98964e-06
9.98936e-06
9.98894e-06
9.98854e-06
9.98814e-06
9.98769e-06
9.98725e-06
9.98674e-06
9.98623e-06
9.98563e-06
9.98498e-06
9.98423e-06
9.98344e-06
9.98254e-06
9.9816e-06
9.98138e-06
9.98138e-06
9.98138e-06
9.9821e-06
1.00235e-05
1.02036e-05
1.07829e-05
1.26898e-05
1.7951e-05
2.74548e-05
4.78697e-05
8.79038e-05
0.00011334
0.000115824
0.000112392
0.000115097
0.000117661
0.000116887
0.000116592
0.000119148
0.00015101
0.000393104
0.151436
0.976029
0.997503
0.99772
0.998107
0.998107
0.997852
0.997515
0.997143
0.996852
0.996693
0.996527
0.99644
0.996435
0.99643
0.99651
0.99656
0.996579
0.996565
0.996647
0.996734
0.996905
0.99712
0.997358
0.997736
0.998173
0.998601
0.998994
0.999268
0.999456
0.999619
0.999756
0.999872
0.999944
0.999991
0.999999
1
3.05187e-06
3.31835e-06
4.10993e-06
4.73092e-06
5.85682e-06
6.59258e-06
7.55139e-06
8.57745e-06
9.0996e-06
9.46024e-06
9.7038e-06
9.87328e-06
9.94884e-06
9.97814e-06
9.98783e-06
9.99381e-06
9.9942e-06
9.99453e-06
9.99422e-06
9.9943e-06
9.99401e-06
9.9933e-06
9.99257e-06
9.99205e-06
9.99138e-06
9.99077e-06
9.99011e-06
9.98955e-06
9.98905e-06
9.98857e-06
9.98804e-06
9.98748e-06
9.98678e-06
9.98604e-06
9.98515e-06
9.98412e-06
9.98304e-06
9.98249e-06
9.98235e-06
9.98266e-06
9.98662e-06
1.00189e-05
1.01525e-05
1.06612e-05
1.27029e-05
1.86643e-05
3.25126e-05
7.50638e-05
0.000113656
0.000122959
0.000118617
0.000126437
0.000132006
0.000132032
0.000129714
0.000128691
0.000129741
0.000135641
0.000113482
0.246386
0.981809
0.990443
0.990376
0.990604
0.990612
0.990553
0.989622
0.988768
0.98793
0.987315
0.986955
0.98671
0.986577
0.986553
0.986789
0.987017
0.987217
0.987346
0.987493
0.987702
0.988053
0.988639
0.989476
0.990465
0.991584
0.992754
0.993723
0.994479
0.995263
0.995896
0.99677
0.997591
0.998264
0.998795
0.999153
0.999526
2.89436e-06
3.19897e-06
3.80197e-06
4.35696e-06
5.56129e-06
6.41518e-06
7.2082e-06
8.38004e-06
9.01124e-06
9.42754e-06
9.68275e-06
9.86263e-06
9.94477e-06
9.97691e-06
9.98561e-06
9.99368e-06
9.99391e-06
9.9944e-06
9.99408e-06
9.99414e-06
9.99394e-06
9.9941e-06
9.9941e-06
9.99408e-06
9.99408e-06
9.99395e-06
9.99377e-06
9.99353e-06
9.99326e-06
9.99285e-06
9.99233e-06
9.9917e-06
9.99094e-06
9.9902e-06
9.98936e-06
9.9885e-06
9.98776e-06
9.98737e-06
9.98739e-06
9.98898e-06
9.99497e-06
1.00182e-05
1.01205e-05
1.05826e-05
1.27355e-05
2.01827e-05
4.74273e-05
0.000106121
0.000123091
0.000127779
0.000130377
0.000131544
0.000131754
0.000130785
0.000127966
0.00012454
0.000122556
0.000122288
0.000113448
0.283321
0.977834
0.986598
0.986053
0.985932
0.986026
0.986088
0.985977
0.985473
0.985237
0.985126
0.985037
0.984778
0.98438
0.983782
0.982905
0.982233
0.981906
0.981739
0.981545
0.98143
0.981392
0.981864
0.982647
0.983717
0.984949
0.986134
0.987024
0.987935
0.988845
0.99018
0.992045
0.994373
0.996813
0.998886
0.999955
0.999955
2.66647e-06
3.03117e-06
3.41061e-06
3.89804e-06
5.12909e-06
6.22013e-06
7.20358e-06
8.07409e-06
8.92311e-06
9.38551e-06
9.6532e-06
9.84488e-06
9.93346e-06
9.96868e-06
9.97846e-06
9.98762e-06
9.98771e-06
9.98849e-06
9.9881e-06
9.98815e-06
9.98814e-06
9.98864e-06
9.98888e-06
9.98903e-06
9.98913e-06
9.98914e-06
9.989e-06
9.98879e-06
9.98854e-06
9.98821e-06
9.98777e-06
9.98722e-06
9.98651e-06
9.98581e-06
9.98513e-06
9.9849e-06
9.98489e-06
9.98489e-06
9.98489e-06
9.98489e-06
9.98746e-06
1.00106e-05
1.0095e-05
1.0561e-05
1.28996e-05
2.2488e-05
6.4073e-05
0.000115108
0.000120532
0.000120188
0.000119333
0.000118586
0.000118196
0.000118017
0.000117761
0.000117489
0.000117304
0.000117998
0.00011342
0.170917
0.980786
0.992274
0.991842
0.991813
0.991809
0.991654
0.991643
0.992502
0.993882
0.99573
0.997578
0.998726
0.998943
0.9987
0.998631
0.998826
0.998946
0.99901
0.999086
0.999129
0.999191
0.999268
0.999394
0.999496
0.999579
0.999629
0.999677
0.999738
0.999777
0.999794
0.999787
0.999792
0.999812
0.999848
0.99991
0.999953
2.47081e-06
2.72684e-06
2.9762e-06
3.35194e-06
4.54361e-06
5.88512e-06
7.35828e-06
7.85033e-06
8.81004e-06
9.38508e-06
9.65551e-06
9.8349e-06
9.92669e-06
9.96976e-06
9.98244e-06
9.99283e-06
9.99361e-06
9.9944e-06
9.9937e-06
9.99359e-06
9.99343e-06
9.99355e-06
9.9935e-06
9.99333e-06
9.99307e-06
9.99272e-06
9.99228e-06
9.99184e-06
9.99139e-06
9.99091e-06
9.99032e-06
9.98963e-06
9.98881e-06
9.98796e-06
9.98718e-06
9.98676e-06
9.98648e-06
9.98609e-06
9.98586e-06
9.98602e-06
9.98921e-06
1.00084e-05
1.00959e-05
1.06238e-05
1.31405e-05
2.14206e-05
5.11714e-05
0.000108679
0.000120363
0.000120182
0.00012057
0.000122148
0.000122706
0.000121892
0.000118601
0.000117374
0.000114462
0.000119829
0.000113362
0.118529
0.989516
0.998519
0.998551
0.998646
0.998659
0.998658
0.998797
0.999119
0.999475
0.999791
0.999954
0.999989
0.999992
0.999994
0.999995
0.999996
0.999994
0.999992
0.99999
0.99999
0.999991
0.999993
0.999996
0.999999
1
1
1
1
1
1
1
1
1
1
0.999999
0.999999
2.2821e-06
2.47604e-06
2.58452e-06
2.85059e-06
3.92952e-06
5.30412e-06
7.03952e-06
7.96757e-06
8.82372e-06
9.41205e-06
9.67498e-06
9.82851e-06
9.9085e-06
9.958e-06
9.97404e-06
9.98619e-06
9.98798e-06
9.9898e-06
9.98969e-06
9.99019e-06
9.99053e-06
9.99095e-06
9.99126e-06
9.99145e-06
9.99155e-06
9.99153e-06
9.99137e-06
9.99108e-06
9.99071e-06
9.99033e-06
9.98981e-06
9.98911e-06
9.98827e-06
9.9874e-06
9.98668e-06
9.9863e-06
9.98612e-06
9.98596e-06
9.9859e-06
9.98596e-06
9.98858e-06
1.00035e-05
1.00936e-05
1.06933e-05
1.32771e-05
1.99805e-05
3.34257e-05
7.19593e-05
0.000115344
0.000119904
0.000120922
0.00012261
0.000122297
0.000123891
0.000121167
0.000122825
0.000107801
0.000128009
0.000113306
0.109721
0.996992
0.999955
0.999965
0.999972
0.999974
0.999978
0.999983
0.999989
0.999995
0.999999
0.999999
0.999999
0.999999
0.999999
0.999999
0.999999
0.999999
0.999999
0.999999
0.999999
0.999999
0.999999
0.999999
0.999999
0.999999
0.999999
0.999999
1
1
1
1
1
1
1
1
1
2.22053e-06
2.3357e-06
2.3146e-06
2.41709e-06
3.28192e-06
4.57794e-06
6.50067e-06
8.23725e-06
8.88351e-06
9.4859e-06
9.73448e-06
9.83783e-06
9.88438e-06
9.92568e-06
9.95199e-06
9.97794e-06
9.98774e-06
9.99064e-06
9.99034e-06
9.99087e-06
9.99119e-06
9.99158e-06
9.99186e-06
9.99208e-06
9.9922e-06
9.99224e-06
9.99212e-06
9.9919e-06
9.99159e-06
9.99151e-06
9.9914e-06
9.99107e-06
9.99055e-06
9.99003e-06
9.98964e-06
9.98939e-06
9.98926e-06
9.98918e-06
9.98923e-06
9.98932e-06
9.99203e-06
1.0005e-05
1.00891e-05
1.06555e-05
1.29593e-05
1.88009e-05
2.95147e-05
4.59156e-05
8.58011e-05
0.000111687
0.000118904
0.000118923
0.000115917
0.00011491
0.000114608
0.000122326
0.000116295
0.000132984
0.000119673
0.0849597
0.990447
0.999996
0.999999
0.999999
0.999999
0.999999
0.999999
0.999999
0.999999
0.999999
0.999999
0.999999
0.999999
0.999999
0.999999
0.999999
0.999999
0.999999
0.999999
0.999999
0.999999
0.999999
0.999999
0.999999
0.999999
0.999999
0.999999
0.999999
0.999999
0.999999
0.999999
1
1
1
1
1
2.10991e-06
2.30899e-06
2.22828e-06
2.20432e-06
2.65902e-06
3.67665e-06
5.41317e-06
7.40453e-06
8.92204e-06
9.52348e-06
9.7688e-06
9.85844e-06
9.89803e-06
9.92811e-06
9.95796e-06
9.98878e-06
9.99511e-06
9.99625e-06
9.99524e-06
9.99528e-06
9.99534e-06
9.99548e-06
9.99558e-06
9.99561e-06
9.99558e-06
9.99539e-06
9.99507e-06
9.99469e-06
9.99437e-06
9.99424e-06
9.99396e-06
9.99342e-06
9.99276e-06
9.9922e-06
9.99194e-06
9.9917e-06
9.99147e-06
9.99154e-06
9.99179e-06
9.99315e-06
9.99697e-06
1.00097e-05
1.00819e-05
1.05534e-05
1.23671e-05
1.72457e-05
2.63039e-05
4.10791e-05
5.91413e-05
8.95594e-05
0.00010796
0.00011357
0.000113242
0.000113742
0.000114712
0.000120417
0.000118055
0.000144518
0.000280368
0.0386589
0.952162
0.999921
0.999999
0.999999
0.999999
0.999999
0.999999
0.999999
0.999999
0.999999
0.999999
0.999999
0.999999
0.999999
0.999999
0.999999
0.999999
0.999999
0.999999
0.999999
0.999999
0.999999
0.999999
0.999999
0.999999
0.999999
0.999999
0.999999
0.999999
0.999999
0.999999
0.999999
0.999999
0.999999
1
1
2.2085e-06
2.63248e-06
2.46805e-06
2.39652e-06
2.31937e-06
2.98168e-06
4.31094e-06
6.38531e-06
8.76597e-06
9.52748e-06
9.7494e-06
9.84515e-06
9.88404e-06
9.9177e-06
9.95124e-06
9.9913e-06
1.00021e-05
1.00019e-05
1.00004e-05
1.00002e-05
1e-05
1e-05
9.99993e-06
9.99977e-06
9.99948e-06
9.999e-06
9.99837e-06
9.99776e-06
9.9973e-06
9.99696e-06
9.99641e-06
9.9956e-06
9.99464e-06
9.99381e-06
9.99343e-06
9.99315e-06
9.99292e-06
9.99285e-06
9.99302e-06
9.99395e-06
9.99709e-06
1.00093e-05
1.00709e-05
1.04529e-05
1.18739e-05
1.59378e-05
2.39415e-05
3.76279e-05
5.53658e-05
7.26563e-05
9.26572e-05
0.000100874
0.000105074
0.000107257
0.000109801
0.000118181
0.000118666
0.000159201
0.000334216
0.0377414
0.953206
0.999967
0.999999
0.999999
0.999999
0.999999
0.999999
0.999999
0.999999
0.999999
0.999999
0.999999
0.999999
0.999999
0.999999
0.999999
0.999999
0.999999
0.999999
0.999999
0.999999
0.999999
0.999999
0.999999
0.999999
0.999999
0.999999
0.999999
0.999999
0.999999
0.999999
0.999999
0.999999
0.999999
0.999999
1
2.34702e-06
2.87981e-06
2.84784e-06
2.86087e-06
2.86575e-06
2.71737e-06
3.6878e-06
5.37081e-06
8.26912e-06
9.49155e-06
9.72006e-06
9.81138e-06
9.85614e-06
9.89608e-06
9.93567e-06
9.98639e-06
1.00004e-05
1.00003e-05
9.99884e-06
9.99861e-06
9.99848e-06
9.9984e-06
9.99827e-06
9.99802e-06
9.9977e-06
9.99721e-06
9.99661e-06
9.99605e-06
9.99563e-06
9.99529e-06
9.9948e-06
9.99404e-06
9.99323e-06
9.99264e-06
9.99224e-06
9.99197e-06
9.99175e-06
9.99158e-06
9.99155e-06
9.99218e-06
9.99464e-06
1.00057e-05
1.00654e-05
1.04164e-05
1.16378e-05
1.48327e-05
2.14916e-05
3.28436e-05
5.08815e-05
7.18341e-05
8.47019e-05
8.9279e-05
9.50158e-05
9.86251e-05
0.000101519
0.000113671
0.000121745
0.000186491
0.000200891
0.0388699
0.968598
0.99999
0.999999
0.999999
0.999999
0.999999
0.999999
0.999999
0.999999
0.999999
0.999999
0.999999
0.999999
0.999999
0.999999
0.999999
0.999999
0.999999
0.999999
0.999999
0.999999
0.999999
0.999999
0.999999
0.999999
0.999999
0.999999
0.999999
0.999999
0.999999
0.999999
0.999999
0.999999
0.999999
0.999999
0.999999
2.04508e-06
2.10569e-06
2.04147e-06
2.77286e-06
3.70211e-06
3.51073e-06
3.67253e-06
5.17203e-06
8.07287e-06
9.486e-06
9.69048e-06
9.77467e-06
9.82203e-06
9.86909e-06
9.92805e-06
9.99682e-06
1.00064e-05
1.00064e-05
1.00063e-05
1.00058e-05
1.00056e-05
1.00054e-05
1.00052e-05
1.0005e-05
1.00047e-05
1.00042e-05
1.00037e-05
1.00031e-05
1.00028e-05
1.00024e-05
1.0002e-05
1.00013e-05
1.00005e-05
9.99988e-06
9.9994e-06
9.99903e-06
9.99874e-06
9.99852e-06
9.99849e-06
9.99902e-06
1.00011e-05
1.00105e-05
1.00631e-05
1.03504e-05
1.13376e-05
1.37137e-05
1.90468e-05
2.96133e-05
4.80347e-05
7.07812e-05
8.73179e-05
9.46835e-05
9.63179e-05
0.000102044
0.000100824
0.000114774
0.000122228
0.000160213
0.000336655
0.0344032
0.962504
0.99985
0.999999
0.999999
0.999999
0.999999
0.999999
0.999999
0.999999
0.999999
0.999999
0.999999
0.999999
0.999999
0.999999
0.999999
0.999999
0.999999
0.999999
0.999999
0.999999
0.999999
0.999999
0.999999
0.999999
0.999999
0.999999
0.999999
0.999999
0.999999
0.999999
0.999999
0.999999
0.999999
0.999999
0.999999
3.61505e-06
4.70105e-06
5.21913e-06
5.67253e-06
6.29822e-06
7.621e-06
8.58265e-06
9.29418e-06
9.72236e-06
9.85972e-06
9.91084e-06
9.94914e-06
9.97879e-06
9.99874e-06
1.00096e-05
1.00099e-05
1.00099e-05
1.00099e-05
1.00099e-05
1.00097e-05
1.00088e-05
1.00077e-05
1.00068e-05
1.00063e-05
1.00061e-05
1.00061e-05
1.00061e-05
1.00061e-05
1.00061e-05
1.0006e-05
1.00059e-05
1.00056e-05
1.00052e-05
1.00048e-05
1.00043e-05
1.00039e-05
1.00035e-05
1.00031e-05
1.00024e-05
1.00026e-05
1.00037e-05
1.00067e-05
1.00194e-05
1.01752e-05
1.07966e-05
1.19788e-05
1.36058e-05
1.60585e-05
2.39791e-05
3.65962e-05
5.34092e-05
7.31593e-05
8.86993e-05
0.000100283
0.000103905
0.000109484
0.000111308
0.000128869
0.000681736
0.0525788
0.966982
0.999896
1
1
1
1
1
1
1
0.999999
0.999999
0.999999
0.999999
0.999999
0.999999
0.999999
0.999999
0.999999
0.999999
0.999999
0.999999
0.999999
0.999999
0.999999
0.999999
0.999999
0.999999
0.999999
0.999999
0.999999
1
1
1
1
1
1
2.86144e-06
4.46247e-06
5.75295e-06
6.32918e-06
7.14291e-06
7.98919e-06
8.67443e-06
9.14667e-06
9.42555e-06
9.60874e-06
9.76208e-06
9.87611e-06
9.94317e-06
9.97727e-06
9.99489e-06
1.00054e-05
1.00063e-05
1.0007e-05
1.00066e-05
1.00067e-05
1.00066e-05
1.00069e-05
1.00069e-05
1.00066e-05
1.0006e-05
1.00053e-05
1.00048e-05
1.00043e-05
1.00039e-05
1.00036e-05
1.00031e-05
1.00025e-05
1.00017e-05
1.00009e-05
9.99994e-06
9.99914e-06
9.99846e-06
9.99786e-06
9.99734e-06
9.99829e-06
1.00021e-05
1.00137e-05
1.006e-05
1.0304e-05
1.11077e-05
1.28934e-05
1.6251e-05
1.81028e-05
2.00297e-05
2.73924e-05
5.08804e-05
8.37167e-05
0.000101997
0.000110428
0.000110208
0.000112016
0.000110058
0.000129429
0.000387495
0.0700095
0.982049
0.999985
1
0.999999
0.999999
1
1
1
1
0.999999
0.999999
0.999999
0.999999
0.999999
0.999999
0.999999
0.999999
0.999999
0.999999
0.999999
0.999999
0.999999
0.999999
0.999999
0.999999
0.999999
0.999999
0.999999
0.999999
0.999999
1
1
1
1
1
1
2.47448e-06
3.6343e-06
5.47689e-06
6.27122e-06
6.99111e-06
7.62919e-06
8.26105e-06
8.75709e-06
9.17187e-06
9.46161e-06
9.67836e-06
9.8413e-06
9.92802e-06
9.96896e-06
9.98781e-06
1.00021e-05
1.00032e-05
1.00038e-05
1.00035e-05
1.00036e-05
1.00035e-05
1.00034e-05
1.00031e-05
1.00026e-05
1.00022e-05
1.00017e-05
1.00013e-05
1.00008e-05
1.00004e-05
1e-05
9.99954e-06
9.99887e-06
9.99803e-06
9.99712e-06
9.99616e-06
9.9953e-06
9.99464e-06
9.99404e-06
9.99376e-06
9.99477e-06
9.99955e-06
1.00166e-05
1.00932e-05
1.04781e-05
1.18527e-05
1.50157e-05
1.9885e-05
2.26633e-05
2.43201e-05
3.49993e-05
6.95048e-05
9.86525e-05
0.000108451
0.000111056
0.000108988
0.000109939
0.000107062
0.000123222
0.000269818
0.0696638
0.98384
0.999999
0.999999
1
0.999999
0.999999
1
1
1
0.999999
0.999999
0.999999
0.999999
0.999999
0.999999
0.999999
0.999999
0.999999
0.999999
0.999999
0.999999
0.999999
0.999999
0.999999
0.999999
0.999999
0.999999
0.999999
0.999999
0.999999
0.999999
1
1
1
1
1
2.31181e-06
2.8852e-06
4.71773e-06
5.60434e-06
6.40995e-06
7.1927e-06
7.93229e-06
8.52182e-06
9.036e-06
9.40301e-06
9.64683e-06
9.82767e-06
9.92158e-06
9.96482e-06
9.98245e-06
9.99945e-06
1.00006e-05
1.0001e-05
1.00006e-05
1.00005e-05
1.00002e-05
1.00001e-05
9.99966e-06
9.9992e-06
9.99871e-06
9.99825e-06
9.99783e-06
9.99743e-06
9.99705e-06
9.99671e-06
9.99625e-06
9.99561e-06
9.9948e-06
9.99391e-06
9.99298e-06
9.99215e-06
9.99146e-06
9.99098e-06
9.99076e-06
9.99167e-06
9.99703e-06
1.00165e-05
1.01234e-05
1.06694e-05
1.25098e-05
1.65383e-05
2.191e-05
2.62014e-05
3.27805e-05
5.75588e-05
9.25589e-05
0.000107622
0.000109726
0.000109508
0.000107543
0.000107412
0.000101361
0.000121925
0.000222166
0.106521
0.995757
0.99995
0.999961
0.999976
0.999979
0.999984
0.999985
0.999986
0.999983
0.999981
0.99998
0.999979
0.99998
0.99998
0.99998
0.999978
0.999977
0.999976
0.999975
0.999977
0.999977
0.999977
0.99998
0.999986
0.999991
0.999995
0.999998
0.999999
0.999999
0.999999
0.999999
0.999999
0.999999
0.999999
0.999999
1
2.23051e-06
2.39064e-06
4.12373e-06
5.15795e-06
6.00111e-06
6.87603e-06
7.7177e-06
8.37495e-06
8.95487e-06
9.37397e-06
9.63187e-06
9.82126e-06
9.91845e-06
9.96279e-06
9.97938e-06
9.99812e-06
9.99925e-06
9.99963e-06
9.99916e-06
9.999e-06
9.99869e-06
9.99848e-06
9.99804e-06
9.99755e-06
9.99705e-06
9.9966e-06
9.9962e-06
9.99581e-06
9.99545e-06
9.99512e-06
9.99468e-06
9.99406e-06
9.99327e-06
9.9924e-06
9.9915e-06
9.99069e-06
9.99004e-06
9.98967e-06
9.98951e-06
9.99071e-06
9.99665e-06
1.00194e-05
1.01464e-05
1.08172e-05
1.30861e-05
1.78931e-05
2.4173e-05
3.12307e-05
5.11359e-05
8.79184e-05
0.000109347
0.000110556
0.000109758
0.000110279
0.000109663
0.00010862
0.000110197
0.000126548
0.000134896
0.144039
0.987933
0.998571
0.998735
0.99904
0.999166
0.999339
0.999408
0.999422
0.999328
0.999247
0.999145
0.99905
0.998978
0.998886
0.998745
0.998589
0.998397
0.998197
0.997995
0.997838
0.997752
0.997741
0.99808
0.99848
0.998929
0.999275
0.999531
0.999701
0.999819
0.999896
0.999942
0.999973
0.999991
0.999998
1
1
2.15295e-06
2.04457e-06
3.50123e-06
4.73153e-06
5.6522e-06
6.63064e-06
7.56733e-06
8.27901e-06
8.90886e-06
9.36131e-06
9.62659e-06
9.81906e-06
9.9171e-06
9.96157e-06
9.9773e-06
9.99703e-06
9.99821e-06
9.99849e-06
9.99797e-06
9.99776e-06
9.99742e-06
9.99716e-06
9.99669e-06
9.99618e-06
9.99569e-06
9.99526e-06
9.99489e-06
9.99454e-06
9.99425e-06
9.994e-06
9.99364e-06
9.99309e-06
9.99237e-06
9.99158e-06
9.99077e-06
9.9901e-06
9.98957e-06
9.98924e-06
9.9891e-06
9.99056e-06
9.99684e-06
1.00203e-05
1.01508e-05
1.08737e-05
1.34259e-05
1.89406e-05
2.77222e-05
4.61127e-05
8.46606e-05
0.000112794
0.000114985
0.000112397
0.000110992
0.000110296
0.000110452
0.00011376
0.000119351
0.000123875
0.000113482
0.234069
0.977948
0.99101
0.991364
0.992349
0.992823
0.993137
0.993035
0.991814
0.990856
0.98973
0.988706
0.98761
0.986489
0.985549
0.984738
0.983837
0.98268
0.981265
0.98001
0.979082
0.978737
0.979411
0.98088
0.982452
0.983859
0.984975
0.985808
0.986926
0.988773
0.990752
0.99286
0.995101
0.997172
0.998856
0.99974
0.999956
2.07284e-06
1.80915e-06
2.9029e-06
4.18738e-06
5.32218e-06
6.41705e-06
7.4531e-06
8.21474e-06
8.88486e-06
9.35662e-06
9.62487e-06
9.81834e-06
9.91668e-06
9.96105e-06
9.97624e-06
9.99645e-06
9.99775e-06
9.99797e-06
9.99747e-06
9.99725e-06
9.99698e-06
9.99671e-06
9.99623e-06
9.99574e-06
9.99528e-06
9.99488e-06
9.99454e-06
9.99422e-06
9.99398e-06
9.99377e-06
9.99346e-06
9.99296e-06
9.99228e-06
9.99154e-06
9.9908e-06
9.99024e-06
9.98976e-06
9.98937e-06
9.98923e-06
9.99078e-06
9.99709e-06
1.002e-05
1.01463e-05
1.08855e-05
1.35758e-05
1.98456e-05
3.45151e-05
7.63795e-05
0.000113493
0.000122393
0.000116731
0.000120428
0.000122861
0.000120162
0.000119533
0.000126951
0.000130415
0.000131793
0.000113448
0.373533
0.972439
0.979182
0.97851
0.978044
0.977597
0.976657
0.975682
0.974353
0.972592
0.970495
0.96863
0.967136
0.966255
0.965686
0.965166
0.96477
0.964393
0.963971
0.963269
0.96211
0.960595
0.958919
0.957025
0.954487
0.951335
0.947254
0.94363
0.941267
0.939764
0.939071
0.938852
0.941249
0.944568
0.951312
0.959768
0.968152
2.01261e-06
1.65921e-06
2.39101e-06
3.50784e-06
4.89915e-06
6.16575e-06
7.34269e-06
8.16437e-06
8.87292e-06
9.35568e-06
9.62876e-06
9.82102e-06
9.91863e-06
9.96098e-06
9.97577e-06
9.99596e-06
9.99732e-06
9.99763e-06
9.9973e-06
9.99721e-06
9.99714e-06
9.9972e-06
9.99688e-06
9.99651e-06
9.99616e-06
9.99583e-06
9.99548e-06
9.99515e-06
9.99485e-06
9.9946e-06
9.99425e-06
9.99369e-06
9.99295e-06
9.99223e-06
9.99147e-06
9.9908e-06
9.9901e-06
9.98932e-06
9.98903e-06
9.99063e-06
9.99691e-06
1.00193e-05
1.01378e-05
1.08343e-05
1.35622e-05
2.05781e-05
4.59533e-05
0.000103554
0.000123347
0.000127598
0.000129305
0.000129817
0.000129842
0.000128873
0.000127955
0.000127358
0.000126446
0.000127732
0.00011342
0.384716
0.972015
0.978943
0.978586
0.97834
0.977871
0.977287
0.976966
0.976863
0.976842
0.976803
0.976891
0.97684
0.976735
0.975457
0.973959
0.972052
0.970193
0.968153
0.965954
0.963075
0.959506
0.95591
0.952613
0.948992
0.943773
0.93708
0.930782
0.923722
0.916131
0.907907
0.898868
0.887447
0.871929
0.848776
0.801284
0.610048
1.923e-06
1.55189e-06
1.96266e-06
2.79025e-06
4.23146e-06
5.73706e-06
7.17895e-06
8.11671e-06
8.86864e-06
9.36817e-06
9.63862e-06
9.82691e-06
9.92299e-06
9.96307e-06
9.9771e-06
9.99765e-06
9.9991e-06
9.99917e-06
9.99884e-06
9.99865e-06
9.99843e-06
9.99841e-06
9.99812e-06
9.99778e-06
9.99745e-06
9.99714e-06
9.99683e-06
9.99654e-06
9.99628e-06
9.99606e-06
9.99576e-06
9.99524e-06
9.99454e-06
9.99383e-06
9.99312e-06
9.99253e-06
9.99205e-06
9.99171e-06
9.99146e-06
9.99315e-06
9.9992e-06
1.002e-05
1.01287e-05
1.07263e-05
1.30556e-05
2.06879e-05
5.15561e-05
0.000109411
0.000121377
0.000122597
0.000122644
0.000120501
0.000119197
0.000118716
0.000118522
0.000118387
0.00011467
0.000117799
0.000113362
0.174678
0.978501
0.991507
0.990892
0.990874
0.990932
0.991427
0.99193
0.992956
0.994158
0.995508
0.996677
0.997361
0.997438
0.99685
0.996361
0.995825
0.995216
0.994491
0.993771
0.993323
0.993188
0.993828
0.994451
0.995192
0.996972
0.998464
0.998603
0.998391
0.998214
0.998074
0.998172
0.998158
0.997307
0.996404
0.995096
0.993903
1.82973e-06
1.48417e-06
1.62522e-06
2.10842e-06
3.30655e-06
5.0463e-06
6.90763e-06
8.05888e-06
8.87709e-06
9.38432e-06
9.64905e-06
9.83622e-06
9.9289e-06
9.96433e-06
9.97816e-06
9.99912e-06
1.00007e-05
1.00007e-05
1.00006e-05
1.00004e-05
1.00003e-05
1.00003e-05
1.00001e-05
9.99973e-06
9.99939e-06
9.99905e-06
9.99871e-06
9.99837e-06
9.99805e-06
9.99779e-06
9.99747e-06
9.99691e-06
9.99613e-06
9.99535e-06
9.99458e-06
9.99391e-06
9.99334e-06
9.99287e-06
9.99251e-06
9.99375e-06
9.99934e-06
1.00181e-05
1.01154e-05
1.06373e-05
1.26399e-05
1.85876e-05
3.72834e-05
9.05214e-05
0.000119959
0.00012041
0.000120373
0.000121604
0.000122201
0.000122954
0.000119137
0.000119643
0.00011137
0.000118055
0.000113306
0.117506
0.991718
0.998997
0.998977
0.999034
0.999091
0.999181
0.999278
0.999461
0.999618
0.999755
0.999844
0.999876
0.99987
0.999839
0.999816
0.999793
0.999773
0.999751
0.999735
0.999728
0.999778
0.999842
0.999898
0.999942
0.999983
0.999997
0.999999
0.999999
0.999999
0.999999
0.999999
1
1
1
1
1
1.75621e-06
1.44941e-06
1.44949e-06
1.57963e-06
2.27909e-06
3.9461e-06
6.28239e-06
7.84853e-06
8.87478e-06
9.40222e-06
9.66589e-06
9.8466e-06
9.93296e-06
9.96279e-06
9.97614e-06
9.99915e-06
1.00009e-05
1.00009e-05
1.00009e-05
1.00009e-05
1.00009e-05
1.00009e-05
1.00007e-05
1.00004e-05
1.00001e-05
9.99975e-06
9.99942e-06
9.9991e-06
9.99881e-06
9.99853e-06
9.99824e-06
9.99768e-06
9.99685e-06
9.99603e-06
9.99529e-06
9.99465e-06
9.99415e-06
9.99382e-06
9.99378e-06
9.99513e-06
1.00003e-05
1.00173e-05
1.01083e-05
1.05671e-05
1.22177e-05
1.7147e-05
2.77777e-05
4.91266e-05
9.95756e-05
0.000116813
0.000118329
0.000119976
0.000118537
0.000116003
0.000112851
0.000111778
0.00010654
0.000113228
0.000113266
0.122684
0.997792
0.999974
0.999972
0.999977
0.999981
0.999985
0.999988
0.999992
0.999994
0.999996
0.999998
0.999998
0.999998
0.999997
0.999997
0.999998
0.999998
0.999997
0.999998
0.999998
0.999999
0.999999
0.999999
0.999999
0.999999
1
1
1
0.999999
0.999999
0.999999
0.999999
0.999999
0.999999
1
1
1.72291e-06
1.41664e-06
1.40295e-06
1.39811e-06
1.63812e-06
2.78649e-06
5.14757e-06
7.39138e-06
8.88058e-06
9.43857e-06
9.69374e-06
9.86039e-06
9.93574e-06
9.96012e-06
9.97323e-06
9.99552e-06
1.00009e-05
1.00009e-05
1.00009e-05
1.00009e-05
1.00009e-05
1.00007e-05
1.00005e-05
1.00002e-05
9.99998e-06
9.9997e-06
9.9994e-06
9.9991e-06
9.99884e-06
9.99852e-06
9.99822e-06
9.99762e-06
9.99668e-06
9.99563e-06
9.99471e-06
9.99396e-06
9.99339e-06
9.99322e-06
9.99362e-06
9.99529e-06
1.00003e-05
1.00152e-05
1.01001e-05
1.0492e-05
1.17586e-05
1.57129e-05
2.51796e-05
4.02252e-05
6.02292e-05
9.21363e-05
0.000107033
0.000102353
9.73234e-05
9.91647e-05
9.85842e-05
0.000103558
0.000103686
0.000112409
0.000146283
0.0708333
0.98354
0.999999
0.999999
0.999999
0.999999
0.999999
0.999999
0.999999
0.999999
0.999999
0.999999
0.999999
0.999999
0.999999
0.999999
0.999999
0.999999
0.999999
0.999999
0.999999
0.999999
0.999999
0.999999
0.999999
0.999999
0.999999
0.999999
0.999999
0.999999
0.999999
0.999999
0.999999
0.999999
0.999999
0.999999
1
1.73687e-06
1.48927e-06
1.43352e-06
1.38808e-06
1.37336e-06
1.82441e-06
3.44871e-06
6.14735e-06
8.67158e-06
9.47454e-06
9.72111e-06
9.86698e-06
9.93334e-06
9.94777e-06
9.96479e-06
9.99366e-06
1.00009e-05
1.00009e-05
1.00009e-05
1.00009e-05
1.00007e-05
1.00007e-05
1.00006e-05
1.00004e-05
1.00001e-05
9.99983e-06
9.99953e-06
9.99921e-06
9.9989e-06
9.99858e-06
9.99822e-06
9.99745e-06
9.99632e-06
9.99501e-06
9.99398e-06
9.99324e-06
9.99261e-06
9.99209e-06
9.99158e-06
9.99301e-06
9.99711e-06
1.00116e-05
1.00759e-05
1.03649e-05
1.13156e-05
1.43982e-05
2.21173e-05
3.5987e-05
5.48111e-05
7.0044e-05
7.92999e-05
8.87307e-05
9.3833e-05
0.000100377
9.75137e-05
0.000105211
0.000111136
0.000147979
0.000368631
0.0319123
0.958419
0.999996
0.999999
0.999999
0.999999
0.999999
0.999999
0.999999
0.999999
0.999999
0.999999
0.999999
0.999999
0.999999
0.999999
0.999999
0.999999
0.999999
0.999999
0.999999
0.999999
0.999999
0.999999
0.999999
0.999999
0.999999
0.999999
0.999999
0.999999