/*--------------------------------*- C++ -*----------------------------------*\
| =========                 |                                                 |
| \\      /  F ield         | OpenFOAM: The Open Source CFD Toolbox           |
|  \\    /   O peration     | Version:  2.3.0                                 |
|   \\  /    A nd           | Web:      www.OpenFOAM.org                      |
|    \\/     M anipulation  |                                                 |
\*---------------------------------------------------------------------------*/
FoamFile
{
    version     2.0;
    format      ascii;
    class       volScalarField;
    location    "43";
    object      alpha.airMean;
}
// * * * * * * * * * * * * * * * * * * * * * * * * * * * * * * * * * * * * * //

dimensions      [0 0 0 0 0 0 0];

internalField   nonuniform List<scalar> 
6144
(
0.999993
0.999993
0.999992
0.999992
0.999992
0.999991
0.999991
0.99999
0.99999
0.99999
0.99999
0.99999
0.99999
0.99999
0.99999
0.99999
0.99999
0.99999
0.99999
0.99999
0.99999
0.99999
0.99999
0.99999
0.99999
0.99999
0.99999
0.99999
0.99999
0.99999
0.99999
0.99999
0.99999
0.99999
0.99999
0.99999
0.99999
0.99999
0.99999
0.99999
0.99999
0.99999
0.99999
0.99999
0.99999
0.999989
0.999985
0.999978
0.999964
0.999948
0.999935
0.999922
0.999917
0.999911
0.999907
0.999901
0.999899
0.999893
0.998726
0.935857
0.0370959
0.000242734
1.08518e-06
7.65702e-07
7.64501e-07
7.59051e-07
7.60282e-07
7.56624e-07
7.58936e-07
7.56249e-07
7.56003e-07
7.53284e-07
7.50813e-07
7.47449e-07
7.44093e-07
7.40468e-07
7.38341e-07
7.36209e-07
7.33532e-07
7.28051e-07
7.20396e-07
7.12827e-07
7.06356e-07
6.98882e-07
6.87798e-07
6.70192e-07
6.53323e-07
6.39187e-07
6.20393e-07
5.92898e-07
5.62793e-07
5.38431e-07
5.0609e-07
4.7061e-07
4.33837e-07
4.09889e-07
0.999994
0.999993
0.999992
0.999992
0.999992
0.999991
0.999991
0.99999
0.99999
0.99999
0.99999
0.99999
0.99999
0.99999
0.99999
0.99999
0.99999
0.99999
0.99999
0.99999
0.99999
0.99999
0.99999
0.99999
0.99999
0.99999
0.99999
0.99999
0.99999
0.99999
0.99999
0.99999
0.99999
0.99999
0.99999
0.99999
0.99999
0.99999
0.99999
0.99999
0.99999
0.99999
0.99999
0.99999
0.99999
0.999988
0.999985
0.999978
0.999967
0.999955
0.999936
0.99992
0.999913
0.999905
0.999901
0.999894
0.999894
0.999885
0.999383
0.94988
0.0310471
0.000125342
8.27022e-07
8.0743e-07
7.99715e-07
7.98034e-07
7.97539e-07
7.96435e-07
7.97056e-07
7.88575e-07
7.84732e-07
7.76879e-07
7.72553e-07
7.66987e-07
7.63064e-07
7.59221e-07
7.5705e-07
7.54136e-07
7.48966e-07
7.40889e-07
7.31334e-07
7.22415e-07
7.12316e-07
7.01879e-07
6.8891e-07
6.73546e-07
6.5978e-07
6.49685e-07
6.38586e-07
6.21153e-07
5.98974e-07
5.68703e-07
5.33677e-07
5.03725e-07
4.67938e-07
4.24261e-07
0.999994
0.999993
0.999993
0.999992
0.999992
0.999991
0.999991
0.99999
0.99999
0.99999
0.99999
0.99999
0.99999
0.99999
0.99999
0.99999
0.99999
0.99999
0.99999
0.99999
0.99999
0.99999
0.99999
0.99999
0.99999
0.99999
0.99999
0.99999
0.99999
0.99999
0.99999
0.99999
0.99999
0.99999
0.99999
0.99999
0.99999
0.99999
0.99999
0.99999
0.99999
0.99999
0.99999
0.99999
0.99999
0.999988
0.999985
0.999978
0.999968
0.999954
0.999931
0.999914
0.999905
0.999897
0.999894
0.999888
0.99989
0.999879
0.999586
0.940832
0.0268209
7.95251e-05
1.54245e-06
1.56418e-06
1.53232e-06
1.49308e-06
1.3363e-06
1.16316e-06
1.0024e-06
8.89581e-07
8.40596e-07
8.17432e-07
8.05448e-07
7.94144e-07
7.90813e-07
7.86954e-07
7.82027e-07
7.74083e-07
7.63226e-07
7.53519e-07
7.45918e-07
7.34187e-07
7.19217e-07
7.03632e-07
6.90528e-07
6.79197e-07
6.70878e-07
6.67192e-07
6.59885e-07
6.45333e-07
6.27396e-07
5.96854e-07
5.54996e-07
5.20692e-07
4.88825e-07
4.36295e-07
0.999994
0.999994
0.999993
0.999993
0.999992
0.999992
0.999991
0.999991
0.99999
0.99999
0.99999
0.99999
0.99999
0.99999
0.99999
0.99999
0.99999
0.99999
0.99999
0.99999
0.99999
0.99999
0.99999
0.99999
0.99999
0.99999
0.99999
0.99999
0.99999
0.99999
0.99999
0.99999
0.99999
0.99999
0.99999
0.99999
0.99999
0.99999
0.99999
0.99999
0.99999
0.99999
0.99999
0.99999
0.999989
0.999988
0.999985
0.999979
0.999968
0.999949
0.999924
0.999907
0.999898
0.999891
0.999888
0.999883
0.999886
0.999872
0.999696
0.916315
0.0211124
6.99183e-05
2.98019e-05
2.63647e-05
2.50601e-05
2.32206e-05
2.04249e-05
1.65047e-05
1.21839e-05
8.12134e-06
5.0191e-06
2.95194e-06
1.8323e-06
1.34356e-06
1.15286e-06
1.0411e-06
9.45617e-07
8.78854e-07
8.30968e-07
8.02958e-07
7.91622e-07
7.79189e-07
7.62596e-07
7.45657e-07
7.39418e-07
7.41136e-07
7.32569e-07
7.26437e-07
7.11219e-07
6.82965e-07
6.59948e-07
6.29298e-07
5.82451e-07
5.41472e-07
5.06818e-07
4.48433e-07
0.999994
0.999994
0.999993
0.999993
0.999992
0.999992
0.999991
0.999991
0.99999
0.99999
0.99999
0.99999
0.99999
0.99999
0.99999
0.99999
0.99999
0.99999
0.99999
0.99999
0.99999
0.99999
0.99999
0.99999
0.99999
0.99999
0.99999
0.99999
0.99999
0.99999
0.99999
0.99999
0.99999
0.99999
0.99999
0.99999
0.99999
0.99999
0.99999
0.99999
0.99999
0.99999
0.99999
0.99999
0.999989
0.999988
0.999985
0.999978
0.999965
0.999944
0.999918
0.999901
0.999893
0.999887
0.999884
0.99988
0.999881
0.999866
0.999731
0.884665
0.0223578
0.000515376
0.000465521
0.000405348
0.000383441
0.000352779
0.000316793
0.000273691
0.000232168
0.000190929
0.000152224
0.000118713
9.14978e-05
7.15618e-05
5.83417e-05
4.97929e-05
4.37291e-05
3.87829e-05
3.4646e-05
3.11426e-05
2.81512e-05
2.57291e-05
2.35414e-05
2.09165e-05
1.8878e-05
1.71105e-05
1.52541e-05
1.30338e-05
1.06937e-05
7.80174e-06
4.70958e-06
2.55379e-06
1.32434e-06
7.56168e-07
5.66715e-07
4.84184e-07
0.999994
0.999994
0.999994
0.999993
0.999993
0.999992
0.999992
0.999991
0.999991
0.99999
0.99999
0.99999
0.99999
0.99999
0.99999
0.99999
0.99999
0.99999
0.99999
0.99999
0.99999
0.99999
0.99999
0.99999
0.99999
0.99999
0.99999
0.99999
0.99999
0.99999
0.99999
0.99999
0.99999
0.99999
0.99999
0.99999
0.99999
0.99999
0.99999
0.99999
0.99999
0.99999
0.99999
0.99999
0.999989
0.999987
0.999984
0.999977
0.999963
0.99994
0.999914
0.999897
0.999889
0.999884
0.999882
0.999881
0.999883
0.999866
0.99977
0.841554
0.0227575
0.00271578
0.00277273
0.00262026
0.00257449
0.00245341
0.00232543
0.00217943
0.00203783
0.00189465
0.0017498
0.00161087
0.0014757
0.00134713
0.00123192
0.00113361
0.00105175
0.000979746
0.000912834
0.000847033
0.000777975
0.000709515
0.000639355
0.000570551
0.000513629
0.000472644
0.000437121
0.000399597
0.00035212
0.000288545
0.000216474
0.000146536
8.72429e-05
4.29931e-05
1.63643e-05
6.38376e-06
0.999995
0.999994
0.999994
0.999994
0.999993
0.999992
0.999992
0.999991
0.999991
0.99999
0.99999
0.99999
0.99999
0.99999
0.99999
0.99999
0.99999
0.99999
0.99999
0.99999
0.99999
0.99999
0.99999
0.99999
0.99999
0.99999
0.99999
0.99999
0.99999
0.99999
0.99999
0.99999
0.99999
0.99999
0.99999
0.99999
0.99999
0.99999
0.99999
0.99999
0.99999
0.99999
0.99999
0.99999
0.999989
0.999987
0.999983
0.999976
0.999963
0.999938
0.999911
0.999895
0.999887
0.999885
0.999884
0.999883
0.999886
0.999877
0.999834
0.792269
0.0249966
0.00714566
0.00750324
0.00740053
0.00731502
0.00715831
0.00698822
0.00683821
0.00668948
0.00653671
0.00639025
0.00622757
0.00607205
0.00590167
0.00572516
0.00553487
0.0053542
0.00516348
0.0049753
0.00477525
0.00457096
0.00435443
0.00412687
0.00389475
0.00366033
0.00342094
0.00317925
0.0029071
0.00259279
0.0022628
0.0019234
0.00159669
0.00127339
0.000929972
0.000569738
0.000299126
0.999995
0.999995
0.999994
0.999994
0.999993
0.999993
0.999992
0.999991
0.999991
0.99999
0.99999
0.99999
0.99999
0.99999
0.99999
0.99999
0.99999
0.99999
0.99999
0.99999
0.99999
0.99999
0.99999
0.99999
0.99999
0.99999
0.99999
0.99999
0.99999
0.99999
0.99999
0.99999
0.99999
0.99999
0.99999
0.99999
0.99999
0.99999
0.99999
0.99999
0.99999
0.99999
0.99999
0.99999
0.999989
0.999987
0.999983
0.999975
0.999959
0.999936
0.999909
0.999894
0.999888
0.999887
0.999888
0.999889
0.999891
0.99988
0.999818
0.775408
0.0278289
0.0110223
0.0116517
0.0116812
0.0115944
0.0115268
0.0114451
0.0114301
0.0114171
0.0114245
0.0114524
0.0114797
0.0114976
0.0115053
0.0115094
0.0115068
0.0114922
0.0114548
0.0114057
0.0113689
0.0113594
0.0113992
0.011517
0.0117223
0.0119929
0.012315
0.012648
0.0129702
0.0132734
0.0135429
0.0136704
0.0135923
0.0132161
0.0124133
0.0108817
0.00878885
0.999995
0.999995
0.999994
0.999994
0.999993
0.999993
0.999992
0.999991
0.999991
0.999991
0.99999
0.99999
0.99999
0.99999
0.99999
0.99999
0.99999
0.99999
0.99999
0.99999
0.99999
0.99999
0.99999
0.99999
0.99999
0.99999
0.99999
0.99999
0.99999
0.99999
0.99999
0.99999
0.99999
0.99999
0.99999
0.99999
0.99999
0.99999
0.99999
0.99999
0.99999
0.99999
0.99999
0.99999
0.999989
0.999987
0.999983
0.999974
0.99996
0.999938
0.999913
0.999897
0.99989
0.999889
0.99989
0.99989
0.999893
0.999883
0.999808
0.836994
0.0261048
0.00656514
0.00644711
0.00587409
0.00555135
0.00531767
0.0051843
0.00509118
0.00503221
0.00498656
0.00495871
0.00492358
0.00488957
0.00485618
0.00482966
0.00480696
0.00478692
0.00476122
0.00472052
0.00466601
0.00460952
0.00454183
0.00447332
0.00440038
0.00432791
0.00426979
0.00422358
0.00418052
0.00411487
0.00401594
0.00386349
0.00356793
0.00309986
0.00243448
0.0015382
0.000792863
0.999995
0.999995
0.999994
0.999994
0.999994
0.999993
0.999992
0.999991
0.999991
0.999991
0.99999
0.99999
0.99999
0.99999
0.99999
0.99999
0.99999
0.99999
0.99999
0.99999
0.99999
0.99999
0.99999
0.99999
0.99999
0.99999
0.99999
0.99999
0.99999
0.99999
0.99999
0.99999
0.99999
0.99999
0.99999
0.99999
0.99999
0.99999
0.99999
0.99999
0.99999
0.99999
0.99999
0.99999
0.999989
0.999987
0.999982
0.999974
0.999963
0.999946
0.999921
0.999902
0.999894
0.99989
0.99989
0.999889
0.999894
0.999886
0.999863
0.898468
0.0214263
0.00191176
0.00168747
0.001358
0.00123316
0.0011495
0.00112053
0.00108825
0.00106882
0.0010425
0.00101676
0.000986608
0.000959734
0.000934089
0.000911386
0.000889182
0.000870364
0.000856531
0.000860587
0.000878538
0.000908601
0.000949266
0.00098742
0.0010124
0.00102522
0.00103312
0.00103329
0.00102262
0.000995032
0.000932484
0.000826105
0.000670108
0.00048143
0.000282628
0.000126071
5.49428e-05
0.999996
0.999995
0.999994
0.999994
0.999994
0.999993
0.999992
0.999991
0.999991
0.99999
0.99999
0.99999
0.99999
0.99999
0.99999
0.99999
0.99999
0.99999
0.99999
0.99999
0.99999
0.99999
0.99999
0.99999
0.99999
0.99999
0.99999
0.99999
0.99999
0.99999
0.99999
0.99999
0.99999
0.99999
0.99999
0.99999
0.99999
0.99999
0.99999
0.99999
0.99999
0.99999
0.99999
0.99999
0.999989
0.999987
0.999983
0.999975
0.999965
0.999951
0.999931
0.999912
0.999901
0.999894
0.999893
0.99989
0.999896
0.999885
0.99987
0.939001
0.0224333
0.000257683
0.000171189
0.000123394
0.000115547
0.000109657
0.000111362
0.000109336
0.000106278
0.000100725
9.50728e-05
8.88472e-05
8.26033e-05
7.59109e-05
6.94958e-05
6.33246e-05
5.85599e-05
5.59719e-05
5.69434e-05
6.07904e-05
6.6822e-05
7.3509e-05
7.95369e-05
8.43783e-05
8.86056e-05
9.25859e-05
9.63438e-05
9.71958e-05
9.25368e-05
8.23619e-05
6.59169e-05
4.51499e-05
2.5695e-05
1.12406e-05
4.22987e-06
2.02262e-06
0.999996
0.999995
0.999995
0.999995
0.999994
0.999993
0.999992
0.999991
0.999991
0.99999
0.99999
0.99999
0.99999
0.99999
0.99999
0.99999
0.99999
0.99999
0.99999
0.99999
0.99999
0.99999
0.99999
0.99999
0.99999
0.99999
0.99999
0.99999
0.99999
0.99999
0.99999
0.99999
0.99999
0.99999
0.99999
0.99999
0.99999
0.99999
0.99999
0.99999
0.99999
0.99999
0.99999
0.99999
0.999989
0.999987
0.999983
0.999976
0.999966
0.999953
0.999938
0.999922
0.99991
0.9999
0.999897
0.999893
0.999898
0.999883
0.999825
0.962747
0.0336868
8.75859e-05
4.71404e-06
3.17722e-06
3.31454e-06
3.44244e-06
3.70109e-06
3.62983e-06
3.38981e-06
3.18184e-06
2.99028e-06
2.75516e-06
2.48986e-06
2.20856e-06
1.93933e-06
1.71388e-06
1.57646e-06
1.50356e-06
1.53698e-06
1.63443e-06
1.79677e-06
2.01816e-06
2.27526e-06
2.53418e-06
2.78302e-06
3.01771e-06
3.19902e-06
3.17041e-06
2.87181e-06
2.44185e-06
1.92691e-06
1.37292e-06
9.27121e-07
6.65108e-07
5.49809e-07
4.65407e-07
0.999996
0.999996
0.999996
0.999995
0.999995
0.999993
0.999992
0.999991
0.999991
0.99999
0.99999
0.99999
0.99999
0.99999
0.99999
0.99999
0.99999
0.99999
0.99999
0.99999
0.99999
0.99999
0.99999
0.99999
0.99999
0.99999
0.99999
0.99999
0.99999
0.99999
0.99999
0.99999
0.99999
0.99999
0.99999
0.99999
0.99999
0.99999
0.99999
0.99999
0.99999
0.99999
0.99999
0.99999
0.999989
0.999987
0.999984
0.999977
0.999967
0.999954
0.99994
0.999928
0.999918
0.999906
0.999902
0.999896
0.9999
0.999881
0.999736
0.972429
0.0480321
0.000161333
9.64701e-07
8.86954e-07
8.8197e-07
8.80893e-07
8.77195e-07
8.75142e-07
8.686e-07
8.54126e-07
8.48307e-07
8.41574e-07
8.37173e-07
8.30555e-07
8.19201e-07
8.07788e-07
8.02814e-07
8.01169e-07
7.97377e-07
7.93683e-07
7.92177e-07
7.91903e-07
7.86453e-07
7.77247e-07
7.65184e-07
7.50321e-07
7.3571e-07
7.20332e-07
6.96827e-07
6.67474e-07
6.40922e-07
6.12358e-07
5.75193e-07
5.48392e-07
5.06858e-07
4.37259e-07
0.999997
0.999996
0.999996
0.999996
0.999995
0.999994
0.999993
0.999991
0.999991
0.99999
0.99999
0.99999
0.99999
0.99999
0.99999
0.99999
0.99999
0.99999
0.99999
0.99999
0.99999
0.99999
0.99999
0.99999
0.99999
0.99999
0.99999
0.99999
0.99999
0.99999
0.99999
0.99999
0.99999
0.99999
0.99999
0.99999
0.99999
0.99999
0.99999
0.99999
0.99999
0.99999
0.99999
0.99999
0.999989
0.999988
0.999984
0.999978
0.999968
0.999955
0.999941
0.999929
0.999921
0.999911
0.999906
0.999899
0.999899
0.99987
0.999648
0.969719
0.0575891
0.00030122
1.1789e-06
8.63021e-07
8.53905e-07
8.55634e-07
8.57685e-07
8.53123e-07
8.49052e-07
8.42588e-07
8.35211e-07
8.26272e-07
8.20738e-07
8.14935e-07
8.08654e-07
8.0218e-07
7.9707e-07
7.95245e-07
7.91851e-07
7.88063e-07
7.84691e-07
7.83394e-07
7.8172e-07
7.77278e-07
7.6904e-07
7.56107e-07
7.37189e-07
7.16001e-07
6.86788e-07
6.51138e-07
6.183e-07
5.97687e-07
5.73804e-07
5.54069e-07
5.16513e-07
4.40708e-07
0.999997
0.999996
0.999996
0.999996
0.999996
0.999995
0.999994
0.999992
0.999991
0.99999
0.99999
0.99999
0.99999
0.99999
0.99999
0.99999
0.99999
0.99999
0.99999
0.99999
0.99999
0.99999
0.99999
0.99999
0.99999
0.99999
0.99999
0.99999
0.99999
0.99999
0.99999
0.99999
0.99999
0.99999
0.99999
0.99999
0.99999
0.99999
0.99999
0.99999
0.99999
0.99999
0.99999
0.99999
0.999989
0.999988
0.999985
0.999979
0.999968
0.999955
0.999941
0.999929
0.999922
0.999914
0.999909
0.999901
0.999894
0.999868
0.999581
0.963253
0.0567806
0.000288465
1.11863e-06
8.50438e-07
8.42871e-07
8.3841e-07
8.37978e-07
8.34195e-07
8.32414e-07
8.27187e-07
8.24602e-07
8.18712e-07
8.12827e-07
8.07332e-07
8.02028e-07
7.96488e-07
7.91648e-07
7.89675e-07
7.87576e-07
7.84892e-07
7.81631e-07
7.77774e-07
7.74589e-07
7.71712e-07
7.6732e-07
7.59114e-07
7.45096e-07
7.24569e-07
6.94522e-07
6.5648e-07
6.22269e-07
5.93828e-07
5.72437e-07
5.49679e-07
5.07448e-07
4.40461e-07
0.999998
0.999997
0.999997
0.999996
0.999996
0.999995
0.999995
0.999993
0.999991
0.99999
0.99999
0.99999
0.99999
0.99999
0.99999
0.99999
0.99999
0.99999
0.99999
0.99999
0.99999
0.99999
0.99999
0.99999
0.99999
0.99999
0.99999
0.99999
0.99999
0.99999
0.99999
0.99999
0.99999
0.99999
0.99999
0.99999
0.99999
0.99999
0.99999
0.99999
0.99999
0.99999
0.99999
0.99999
0.999989
0.999988
0.999985
0.999979
0.999969
0.999954
0.999939
0.999928
0.999922
0.999915
0.999912
0.9999
0.999898
0.999875
0.999264
0.955555
0.0626812
0.000556721
1.83664e-06
8.46318e-07
8.4272e-07
8.35815e-07
8.32132e-07
8.26449e-07
8.25318e-07
8.20747e-07
8.18193e-07
8.14226e-07
8.10486e-07
8.06796e-07
8.0311e-07
7.99357e-07
7.95603e-07
7.92028e-07
7.88738e-07
7.86223e-07
7.82718e-07
7.77854e-07
7.74115e-07
7.70728e-07
7.66518e-07
7.61601e-07
7.53011e-07
7.37153e-07
7.11074e-07
6.75507e-07
6.34589e-07
5.95101e-07
5.63662e-07
5.2468e-07
4.85367e-07
4.31117e-07
0.999994
0.999993
0.999992
0.999992
0.999992
0.999991
0.999991
0.99999
0.99999
0.99999
0.99999
0.99999
0.99999
0.99999
0.99999
0.99999
0.99999
0.99999
0.99999
0.99999
0.99999
0.99999
0.99999
0.99999
0.99999
0.99999
0.99999
0.99999
0.99999
0.99999
0.99999
0.99999
0.99999
0.99999
0.99999
0.99999
0.99999
0.99999
0.99999
0.99999
0.99999
0.99999
0.99999
0.99999
0.99999
0.999989
0.999986
0.999978
0.999965
0.999949
0.999935
0.999924
0.999918
0.999912
0.99991
0.999905
0.999904
0.999881
0.999204
0.946526
0.0359286
0.000140261
8.35489e-07
7.66385e-07
7.62609e-07
7.54933e-07
7.54779e-07
7.49575e-07
7.49869e-07
7.46622e-07
7.46716e-07
7.44058e-07
7.42841e-07
7.4029e-07
7.38229e-07
7.35336e-07
7.3305e-07
7.31405e-07
7.28772e-07
7.24336e-07
7.19488e-07
7.13241e-07
7.04096e-07
6.91049e-07
6.79977e-07
6.70458e-07
6.60865e-07
6.51083e-07
6.38126e-07
6.17668e-07
5.91953e-07
5.66173e-07
5.33756e-07
4.98316e-07
4.59722e-07
4.20343e-07
0.999994
0.999993
0.999992
0.999992
0.999992
0.999991
0.999991
0.999991
0.99999
0.99999
0.99999
0.99999
0.99999
0.99999
0.99999
0.99999
0.99999
0.99999
0.99999
0.99999
0.99999
0.99999
0.99999
0.99999
0.99999
0.99999
0.99999
0.99999
0.99999
0.99999
0.99999
0.99999
0.99999
0.99999
0.99999
0.99999
0.99999
0.99999
0.99999
0.99999
0.99999
0.99999
0.99999
0.99999
0.99999
0.999989
0.999985
0.999978
0.999967
0.999954
0.999938
0.999923
0.999915
0.999908
0.999905
0.999901
0.999899
0.999874
0.999571
0.921068
0.0166661
1.37829e-05
7.75026e-07
8.257e-07
8.05911e-07
8.04539e-07
8.05872e-07
7.98523e-07
7.98759e-07
7.90813e-07
7.85937e-07
7.74689e-07
7.67203e-07
7.59617e-07
7.54673e-07
7.49942e-07
7.46671e-07
7.43608e-07
7.39154e-07
7.34499e-07
7.28959e-07
7.22637e-07
7.1135e-07
6.9712e-07
6.83834e-07
6.71434e-07
6.60315e-07
6.52023e-07
6.43329e-07
6.30736e-07
6.14082e-07
5.8965e-07
5.54798e-07
5.26289e-07
5.00135e-07
4.47137e-07
0.999995
0.999994
0.999993
0.999992
0.999992
0.999992
0.999991
0.999991
0.999991
0.99999
0.99999
0.99999
0.99999
0.99999
0.99999
0.99999
0.99999
0.99999
0.99999
0.99999
0.99999
0.99999
0.99999
0.99999
0.99999
0.99999
0.99999
0.99999
0.99999
0.99999
0.99999
0.99999
0.99999
0.99999
0.99999
0.99999
0.99999
0.99999
0.99999
0.99999
0.99999
0.99999
0.99999
0.99999
0.999989
0.999988
0.999985
0.999979
0.999968
0.999954
0.999934
0.999916
0.999905
0.999899
0.999898
0.999896
0.999897
0.999868
0.999698
0.900256
0.0154642
4.57553e-06
4.05081e-06
3.59673e-06
3.46918e-06
2.86909e-06
2.3546e-06
1.7694e-06
1.38367e-06
1.10881e-06
9.69401e-07
8.8369e-07
8.44163e-07
8.26017e-07
8.16621e-07
8.05997e-07
7.98549e-07
7.89723e-07
7.82218e-07
7.74133e-07
7.6242e-07
7.49058e-07
7.35002e-07
7.18511e-07
7.02204e-07
6.88402e-07
6.7646e-07
6.65285e-07
6.55805e-07
6.46189e-07
6.36096e-07
6.13606e-07
5.75635e-07
5.45252e-07
5.19559e-07
4.65118e-07
0.999995
0.999994
0.999993
0.999993
0.999992
0.999992
0.999991
0.999991
0.999991
0.999991
0.99999
0.99999
0.99999
0.99999
0.99999
0.99999
0.99999
0.99999
0.99999
0.99999
0.99999
0.99999
0.99999
0.99999
0.99999
0.99999
0.99999
0.99999
0.99999
0.99999
0.99999
0.99999
0.99999
0.99999
0.99999
0.99999
0.99999
0.99999
0.99999
0.99999
0.99999
0.99999
0.99999
0.99999
0.999989
0.999988
0.999985
0.999979
0.999968
0.999951
0.999926
0.999906
0.999895
0.999891
0.99989
0.999884
0.999877
0.999851
0.999769
0.848926
0.00797274
0.00018735
0.000167522
0.000140394
0.000130048
0.000107222
8.48034e-05
6.23615e-05
4.38376e-05
2.93945e-05
1.95015e-05
1.30392e-05
9.16732e-06
6.99661e-06
5.91712e-06
5.34523e-06
5.04595e-06
4.83184e-06
4.64063e-06
4.42191e-06
4.17878e-06
3.86833e-06
3.49968e-06
3.02995e-06
2.64112e-06
2.30371e-06
1.98977e-06
1.70005e-06
1.29474e-06
9.70247e-07
7.85363e-07
6.99351e-07
6.49992e-07
6.01971e-07
5.54658e-07
4.86817e-07
0.999995
0.999995
0.999994
0.999993
0.999992
0.999992
0.999992
0.999991
0.999991
0.999991
0.99999
0.99999
0.99999
0.99999
0.99999
0.99999
0.99999
0.99999
0.99999
0.99999
0.99999
0.99999
0.99999
0.99999
0.99999
0.99999
0.99999
0.99999
0.99999
0.99999
0.99999
0.99999
0.99999
0.99999
0.99999
0.99999
0.99999
0.99999
0.99999
0.99999
0.99999
0.99999
0.99999
0.99999
0.999989
0.999988
0.999984
0.999979
0.999965
0.999944
0.999916
0.999897
0.999887
0.999882
0.999877
0.999867
0.999858
0.999842
0.999837
0.772189
0.00975625
0.00274444
0.00261409
0.00235113
0.00219032
0.00193458
0.00168883
0.00143429
0.0011964
0.000978588
0.000796624
0.0006488
0.000536407
0.0004556
0.000399804
0.000364353
0.000344234
0.000333596
0.00032991
0.000328535
0.000326464
0.000315995
0.000293883
0.000269292
0.000242836
0.000218529
0.00019535
0.000162642
0.000122279
8.1109e-05
4.61559e-05
2.19915e-05
8.94763e-06
3.32846e-06
1.29792e-06
7.14415e-07
0.999995
0.999995
0.999994
0.999993
0.999993
0.999992
0.999992
0.999991
0.999991
0.999991
0.99999
0.99999
0.99999
0.99999
0.99999
0.99999
0.99999
0.99999
0.99999
0.99999
0.99999
0.99999
0.99999
0.99999
0.99999
0.99999
0.99999
0.99999
0.99999
0.99999
0.99999
0.99999
0.99999
0.99999
0.99999
0.99999
0.99999
0.99999
0.99999
0.99999
0.99999
0.99999
0.99999
0.99999
0.999989
0.999988
0.999984
0.999977
0.999963
0.999939
0.999907
0.999891
0.999882
0.999874
0.999866
0.99986
0.999858
0.999854
0.999833
0.655325
0.0194353
0.0121874
0.0124671
0.012264
0.0120649
0.0117489
0.0113993
0.0110018
0.0105248
0.0099915
0.00939977
0.00877889
0.00817102
0.00758827
0.00705255
0.00659379
0.00621506
0.00590844
0.00566617
0.00547464
0.00528883
0.00506895
0.00480345
0.00455165
0.00426719
0.00393451
0.00358656
0.00319939
0.00278723
0.00232398
0.00184399
0.00134812
0.000873475
0.00047622
0.000200383
7.08453e-05
0.999995
0.999995
0.999995
0.999994
0.999993
0.999992
0.999992
0.999991
0.999991
0.999991
0.99999
0.99999
0.99999
0.99999
0.99999
0.99999
0.99999
0.99999
0.99999
0.99999
0.99999
0.99999
0.99999
0.99999
0.99999
0.99999
0.99999
0.99999
0.99999
0.99999
0.99999
0.99999
0.99999
0.99999
0.99999
0.99999
0.99999
0.99999
0.99999
0.99999
0.99999
0.99999
0.99999
0.99999
0.999989
0.999988
0.999983
0.999975
0.999962
0.999936
0.999904
0.999887
0.999879
0.999874
0.99987
0.999866
0.999867
0.999862
0.999588
0.582656
0.0293665
0.0231407
0.0241956
0.0246737
0.0250435
0.0255191
0.0259545
0.0264042
0.0267836
0.0271563
0.0274809
0.0277817
0.0279953
0.0281255
0.0281454
0.0280937
0.0279699
0.0278057
0.0275929
0.027326
0.0269738
0.0265457
0.0261437
0.0257044
0.0251494
0.0244314
0.0234497
0.0222759
0.0210515
0.019799
0.0184572
0.0170066
0.0153712
0.013233
0.010658
0.00848286
0.999996
0.999996
0.999995
0.999995
0.999994
0.999993
0.999992
0.999991
0.999991
0.999991
0.99999
0.99999
0.99999
0.99999
0.99999
0.99999
0.99999
0.99999
0.99999
0.99999
0.99999
0.99999
0.99999
0.99999
0.99999
0.99999
0.99999
0.99999
0.99999
0.99999
0.99999
0.99999
0.99999
0.99999
0.99999
0.99999
0.99999
0.99999
0.99999
0.99999
0.99999
0.99999
0.99999
0.99999
0.999989
0.999987
0.999983
0.999974
0.999958
0.999934
0.999904
0.999888
0.999882
0.99988
0.99988
0.99988
0.999882
0.999879
0.999305
0.679776
0.0320891
0.0210442
0.0219339
0.0222335
0.0226854
0.0234756
0.0244587
0.0255713
0.026781
0.0280966
0.0295023
0.0310529
0.0327085
0.0344292
0.036231
0.0380991
0.0400724
0.0421601
0.0443489
0.0466494
0.0491191
0.0518388
0.0548491
0.058176
0.0619065
0.0659532
0.0702811
0.075058
0.0805469
0.0868827
0.0946064
0.104329
0.117417
0.138615
0.187369
0.382701
0.999996
0.999996
0.999996
0.999995
0.999994
0.999993
0.999992
0.999991
0.999991
0.999991
0.99999
0.99999
0.99999
0.99999
0.99999
0.99999
0.99999
0.99999
0.99999
0.99999
0.99999
0.99999
0.99999
0.99999
0.99999
0.99999
0.99999
0.99999
0.99999
0.99999
0.99999
0.99999
0.99999
0.99999
0.99999
0.99999
0.99999
0.99999
0.99999
0.99999
0.99999
0.99999
0.99999
0.99999
0.999989
0.999987
0.999983
0.999976
0.999961
0.999939
0.999912
0.999896
0.999887
0.999884
0.999883
0.999881
0.999883
0.999879
0.999839
0.823274
0.0218653
0.00649778
0.00609508
0.00521997
0.00487517
0.00455043
0.00434902
0.00420561
0.00414534
0.00412561
0.00415815
0.00419191
0.00426504
0.00439358
0.00459933
0.00486626
0.00519624
0.0055687
0.00596919
0.00640443
0.00686984
0.00737566
0.00791431
0.0084184
0.00889366
0.00940181
0.00993454
0.0105099
0.0111687
0.011873
0.0125554
0.0132735
0.0141281
0.0148889
0.0150941
0.0137311
0.999996
0.999996
0.999996
0.999996
0.999995
0.999994
0.999992
0.999991
0.999991
0.999991
0.99999
0.99999
0.99999
0.99999
0.99999
0.99999
0.99999
0.99999
0.99999
0.99999
0.99999
0.99999
0.99999
0.99999
0.99999
0.99999
0.99999
0.99999
0.99999
0.99999
0.99999
0.99999
0.99999
0.99999
0.99999
0.99999
0.99999
0.99999
0.99999
0.99999
0.99999
0.99999
0.99999
0.99999
0.999989
0.999987
0.999983
0.999977
0.999967
0.999949
0.999923
0.999904
0.999895
0.999888
0.999885
0.999883
0.999885
0.999876
0.999891
0.886764
0.0127603
0.00109658
0.000944571
0.000721476
0.00064245
0.000563752
0.000509444
0.000463375
0.000433039
0.000410316
0.000397448
0.000392902
0.000395939
0.000404915
0.000416789
0.000430869
0.000449938
0.000476086
0.000511153
0.000552127
0.000596988
0.000652992
0.00071997
0.000792994
0.000870265
0.000940903
0.00101684
0.00109115
0.00117774
0.00127758
0.00139011
0.0014757
0.00147929
0.00123743
0.000761352
0.000339984
0.999996
0.999996
0.999996
0.999996
0.999995
0.999994
0.999993
0.999992
0.999991
0.999991
0.99999
0.99999
0.99999
0.99999
0.99999
0.99999
0.99999
0.99999
0.99999
0.99999
0.99999
0.99999
0.99999
0.99999
0.99999
0.99999
0.99999
0.99999
0.99999
0.99999
0.99999
0.99999
0.99999
0.99999
0.99999
0.99999
0.99999
0.99999
0.99999
0.99999
0.99999
0.99999
0.99999
0.99999
0.999989
0.999988
0.999984
0.999978
0.999968
0.999955
0.999936
0.999916
0.999904
0.999896
0.999894
0.999889
0.999888
0.99987
0.999879
0.927775
0.0140022
0.000110008
0.000100474
7.47954e-05
6.89913e-05
6.08174e-05
5.51239e-05
4.77552e-05
4.09706e-05
3.48663e-05
3.0117e-05
2.66755e-05
2.48451e-05
2.43653e-05
2.38445e-05
2.32185e-05
2.25822e-05
2.27685e-05
2.50493e-05
2.84161e-05
3.19364e-05
3.54167e-05
3.81589e-05
4.09475e-05
4.28694e-05
4.21099e-05
3.96754e-05
3.59604e-05
3.27098e-05
3.08613e-05
2.97322e-05
2.75621e-05
2.16511e-05
1.39706e-05
6.7516e-06
2.94141e-06
0.999996
0.999996
0.999996
0.999996
0.999996
0.999994
0.999993
0.999992
0.999991
0.999991
0.99999
0.99999
0.99999
0.99999
0.99999
0.99999
0.99999
0.99999
0.99999
0.99999
0.99999
0.99999
0.99999
0.99999
0.99999
0.99999
0.99999
0.99999
0.99999
0.99999
0.99999
0.99999
0.99999
0.99999
0.99999
0.99999
0.99999
0.99999
0.99999
0.99999
0.99999
0.99999
0.99999
0.99999
0.999989
0.999988
0.999985
0.999979
0.999969
0.999956
0.999941
0.999925
0.999913
0.999903
0.9999
0.999895
0.99989
0.999865
0.999827
0.953599
0.0222085
4.95201e-06
6.40714e-06
3.71108e-06
3.64944e-06
3.13312e-06
2.88978e-06
2.54767e-06
2.24167e-06
1.98472e-06
1.78853e-06
1.59435e-06
1.42028e-06
1.28826e-06
1.21173e-06
1.18262e-06
1.17138e-06
1.19428e-06
1.26032e-06
1.34672e-06
1.4443e-06
1.52443e-06
1.56896e-06
1.56661e-06
1.50582e-06
1.38065e-06
1.21233e-06
1.03714e-06
8.9506e-07
7.8523e-07
7.19284e-07
6.71615e-07
6.2078e-07
5.78442e-07
5.34652e-07
4.62405e-07
0.999997
0.999996
0.999996
0.999996
0.999996
0.999995
0.999993
0.999992
0.999991
0.999991
0.99999
0.99999
0.99999
0.99999
0.99999
0.99999
0.99999
0.99999
0.99999
0.99999
0.99999
0.99999
0.99999
0.99999
0.99999
0.99999
0.99999
0.99999
0.99999
0.99999
0.99999
0.99999
0.99999
0.99999
0.99999
0.99999
0.99999
0.99999
0.99999
0.99999
0.99999
0.99999
0.99999
0.99999
0.999989
0.999988
0.999985
0.999979
0.99997
0.999957
0.999942
0.999928
0.999918
0.999907
0.999901
0.999893
0.999885
0.999857
0.999743
0.962779
0.0327682
1.01313e-05
1.05704e-06
9.02831e-07
9.31215e-07
9.12504e-07
9.05109e-07
8.92151e-07
8.87239e-07
8.68778e-07
8.59676e-07
8.52057e-07
8.47724e-07
8.39502e-07
8.27231e-07
8.16033e-07
8.09032e-07
8.02444e-07
7.96552e-07
7.9474e-07
7.94609e-07
7.94299e-07
7.92433e-07
7.84577e-07
7.71448e-07
7.5528e-07
7.36762e-07
7.16135e-07
6.92411e-07
6.62548e-07
6.26871e-07
6.05741e-07
5.80372e-07
5.5164e-07
5.0607e-07
4.29558e-07
0.999997
0.999997
0.999997
0.999996
0.999996
0.999996
0.999995
0.999992
0.999991
0.999991
0.99999
0.99999
0.99999
0.99999
0.99999
0.99999
0.99999
0.99999
0.99999
0.99999
0.99999
0.99999
0.99999
0.99999
0.99999
0.99999
0.99999
0.99999
0.99999
0.99999
0.99999
0.99999
0.99999
0.99999
0.99999
0.99999
0.99999
0.99999
0.99999
0.99999
0.99999
0.99999
0.99999
0.99999
0.999989
0.999988
0.999985
0.999979
0.999969
0.999956
0.999941
0.999928
0.999919
0.999907
0.999897
0.999888
0.999877
0.999835
0.999618
0.957207
0.0374185
2.66175e-05
9.0396e-07
8.8311e-07
8.66749e-07
8.66535e-07
8.67688e-07
8.60345e-07
8.5469e-07
8.45317e-07
8.37625e-07
8.28157e-07
8.23448e-07
8.17814e-07
8.11126e-07
8.04163e-07
7.98735e-07
7.94751e-07
7.90983e-07
7.87564e-07
7.83968e-07
7.81366e-07
7.79314e-07
7.75204e-07
7.67296e-07
7.5518e-07
7.37997e-07
7.17003e-07
6.90644e-07
6.54271e-07
6.16747e-07
5.91328e-07
5.76341e-07
5.61236e-07
5.24572e-07
4.38701e-07
0.999997
0.999997
0.999997
0.999996
0.999996
0.999996
0.999995
0.999993
0.999991
0.999991
0.99999
0.99999
0.99999
0.99999
0.99999
0.99999
0.99999
0.99999
0.99999
0.99999
0.99999
0.99999
0.99999
0.99999
0.99999
0.99999
0.99999
0.99999
0.99999
0.99999
0.99999
0.99999
0.99999
0.99999
0.99999
0.99999
0.99999
0.99999
0.99999
0.99999
0.99999
0.99999
0.99999
0.99999
0.999989
0.999988
0.999985
0.999979
0.999969
0.999956
0.999941
0.999929
0.999918
0.999906
0.999895
0.999879
0.999866
0.999824
0.999584
0.939075
0.0349382
5.65567e-05
9.24041e-07
8.54561e-07
8.44995e-07
8.39077e-07
8.39262e-07
8.33959e-07
8.32054e-07
8.27146e-07
8.24334e-07
8.18026e-07
8.12919e-07
8.06836e-07
8.02047e-07
7.9728e-07
7.9336e-07
7.90663e-07
7.8784e-07
7.85127e-07
7.82273e-07
7.79362e-07
7.76789e-07
7.73266e-07
7.67119e-07
7.57492e-07
7.42137e-07
7.20751e-07
6.91066e-07
6.50863e-07
6.11122e-07
5.82088e-07
5.67987e-07
5.50033e-07
5.12312e-07
4.39255e-07
0.999998
0.999997
0.999997
0.999997
0.999997
0.999996
0.999996
0.999994
0.999991
0.99999
0.99999
0.99999
0.99999
0.99999
0.99999
0.99999
0.99999
0.99999
0.99999
0.99999
0.99999
0.99999
0.99999
0.99999
0.99999
0.99999
0.99999
0.99999
0.99999
0.99999
0.99999
0.99999
0.99999
0.99999
0.99999
0.99999
0.99999
0.99999
0.99999
0.99999
0.99999
0.99999
0.99999
0.99999
0.999989
0.999988
0.999985
0.999979
0.999969
0.999955
0.99994
0.999928
0.999921
0.999913
0.999904
0.999887
0.999878
0.99983
0.999398
0.954991
0.0555178
0.00040317
1.43127e-06
8.46915e-07
8.41133e-07
8.31863e-07
8.30141e-07
8.24231e-07
8.22326e-07
8.17091e-07
8.14544e-07
8.0999e-07
8.07243e-07
8.03484e-07
8.00526e-07
7.97507e-07
7.95202e-07