/*--------------------------------*- C++ -*----------------------------------*\
| =========                 |                                                 |
| \\      /  F ield         | OpenFOAM: The Open Source CFD Toolbox           |
|  \\    /   O peration     | Version:  2.3.0                                 |
|   \\  /    A nd           | Web:      www.OpenFOAM.org                      |
|    \\/     M anipulation  |                                                 |
\*---------------------------------------------------------------------------*/
FoamFile
{
    version     2.0;
    format      ascii;
    class       volScalarField;
    location    "43";
    object      dsauterMean;
}
// * * * * * * * * * * * * * * * * * * * * * * * * * * * * * * * * * * * * * //

dimensions      [0 0 0 0 0 0 0];

internalField   nonuniform List<scalar> 
6144
(
0.00833335
0.00833335
0.00833335
0.00833335
0.00833335
0.00833335
0.00833335
0.00833335
0.00833335
0.00833335
0.00833335
0.00833335
0.00833335
0.00833335
0.00833335
0.00833335
0.00833335
0.00833335
0.00833335
0.00833335
0.00833335
0.00833335
0.00833335
0.00833335
0.00833335
0.00833335
0.00833335
0.00833335
0.00833335
0.00833335
0.00833335
0.00833335
0.00833335
0.00833335
0.00833335
0.00833335
0.00833335
0.00833335
0.00833335
0.00833335
0.00833335
0.00833335
0.00833335
0.00833335
0.00833335
0.00833335
0.00833335
0.00833335
0.00833335
0.00833335
0.00833335
0.00833335
0.00833335
0.00833335
0.00833335
0.00833335
0.00833335
0.00833329
0.00832477
0.00834444
0.00833745
0.008333
0.0020568
0.000253239
0.00024839
0.000244563
0.000240733
0.00023499
0.000231158
0.000226377
0.000222544
0.000217756
0.000213927
0.000210097
0.000206269
0.00020148
0.000197653
0.00019382
0.000189992
0.000186213
0.000182053
0.000179134
0.000173965
0.000172092
0.000167713
0.0001651
0.000161225
0.000158493
0.000155469
0.000153612
0.000151697
0.000149783
0.000148827
0.000147868
0.000148819
0.000147884
0.00833335
0.00833335
0.00833335
0.00833335
0.00833335
0.00833335
0.00833335
0.00833335
0.00833335
0.00833335
0.00833335
0.00833335
0.00833335
0.00833335
0.00833335
0.00833335
0.00833335
0.00833335
0.00833335
0.00833335
0.00833335
0.00833335
0.00833335
0.00833335
0.00833335
0.00833335
0.00833335
0.00833335
0.00833335
0.00833335
0.00833335
0.00833335
0.00833335
0.00833335
0.00833335
0.00833335
0.00833335
0.00833335
0.00833335
0.00833335
0.00833335
0.00833335
0.00833335
0.00833335
0.00833335
0.00833335
0.00833335
0.00833335
0.00833335
0.00833335
0.00833335
0.00833335
0.00833335
0.00833335
0.00833335
0.00833335
0.00833335
0.00833311
0.00832377
0.00834463
0.00836731
0.00833126
0.00031445
0.000323074
0.000286619
0.000315221
0.000307728
0.000294925
0.000270432
0.000241941
0.000230274
0.000218581
0.000214856
0.000210078
0.000205612
0.000201361
0.000197805
0.000194281
0.000189582
0.000186122
0.000182572
0.00017843
0.000174951
0.000171814
0.000167988
0.000165174
0.000162229
0.000159357
0.000156487
0.000153612
0.000151698
0.00015074
0.000148591
0.000148916
0.000148835
0.000148844
0.00833335
0.00833335
0.00833335
0.00833335
0.00833335
0.00833335
0.00833335
0.00833335
0.00833335
0.00833335
0.00833335
0.00833335
0.00833335
0.00833335
0.00833335
0.00833335
0.00833335
0.00833335
0.00833335
0.00833335
0.00833335
0.00833335
0.00833335
0.00833335
0.00833335
0.00833335
0.00833335
0.00833335
0.00833335
0.00833335
0.00833335
0.00833335
0.00833335
0.00833335
0.00833335
0.00833335
0.00833335
0.00833335
0.00833335
0.00833335
0.00833335
0.00833335
0.00833335
0.00833335
0.00833335
0.00833335
0.00833335
0.00833335
0.00833335
0.00833335
0.00833335
0.00833335
0.00833335
0.00833335
0.00833335
0.00833335
0.00833335
0.00833335
0.00833368
0.00835702
0.00761306
0.00662076
0.00121024
0.00114997
0.00112936
0.00110735
0.0010885
0.00102274
0.000981655
0.000907341
0.000880223
0.000821413
0.000790852
0.000715672
0.000661209
0.000570613
0.000437071
0.000323295
0.000228614
0.000202886
0.00019989
0.000195736
0.000191908
0.000186159
0.000178439
0.000168933
0.000162229
0.000159357
0.000156485
0.000153612
0.000151816
0.000150645
0.000148843
0.000148374
0.000150035
0.000148912
0.00833335
0.00833335
0.00833335
0.00833335
0.00833335
0.00833335
0.00833335
0.00833335
0.00833335
0.00833335
0.00833335
0.00833335
0.00833335
0.00833335
0.00833335
0.00833335
0.00833335
0.00833335
0.00833335
0.00833335
0.00833335
0.00833335
0.00833335
0.00833335
0.00833335
0.00833335
0.00833335
0.00833335
0.00833335
0.00833335
0.00833335
0.00833335
0.00833335
0.00833335
0.00833335
0.00833335
0.00833335
0.00833335
0.00833335
0.00833335
0.00833335
0.00833335
0.00833335
0.00833335
0.00833335
0.00833335
0.00833335
0.00833335
0.00833335
0.00833335
0.00833335
0.00833335
0.00833335
0.00833335
0.00833335
0.00833335
0.00833335
0.00833335
0.00833021
0.00833687
0.0083529
0.00505689
0.00296868
0.00205562
0.00197946
0.00181404
0.00174364
0.00175881
0.00173223
0.00172479
0.00175271
0.00169715
0.00168821
0.00166501
0.00162695
0.00158958
0.00156693
0.00148788
0.00136658
0.00129267
0.00118121
0.00108406
0.00088246
0.000689963
0.000614851
0.000508806
0.000392988
0.000304077
0.000190545
0.000158399
0.000151702
0.000150416
0.000149198
0.000148823
0.000148825
0.000149783
0.00833335
0.00833335
0.00833335
0.00833335
0.00833335
0.00833335
0.00833335
0.00833335
0.00833335
0.00833335
0.00833335
0.00833335
0.00833335
0.00833335
0.00833335
0.00833335
0.00833335
0.00833335
0.00833335
0.00833335
0.00833335
0.00833335
0.00833335
0.00833335
0.00833335
0.00833335
0.00833335
0.00833335
0.00833335
0.00833335
0.00833335
0.00833335
0.00833335
0.00833335
0.00833335
0.00833335
0.00833335
0.00833335
0.00833335
0.00833335
0.00833335
0.00833335
0.00833335
0.00833335
0.00833335
0.00833335
0.00833335
0.00833335
0.00833335
0.00833335
0.00833335
0.00833335
0.00833335
0.00833335
0.00833335
0.00833335
0.00833335
0.00833335
0.00833332
0.00835516
0.00738841
0.00832349
0.00829451
0.00825519
0.00793177
0.00658698
0.00644534
0.00613608
0.00613126
0.00608944
0.00609859
0.00609825
0.00590123
0.00591963
0.00574759
0.00546085
0.00514857
0.00477732
0.00435566
0.00373013
0.00320691
0.002802
0.00241027
0.00200358
0.00171445
0.00153791
0.00117315
0.00108123
0.000852587
0.000618733
0.000207225
0.000149783
0.000147865
0.000147864
0.000148831
0.000148826
0.00833335
0.00833335
0.00833335
0.00833335
0.00833335
0.00833335
0.00833335
0.00833335
0.00833335
0.00833335
0.00833335
0.00833335
0.00833335
0.00833335
0.00833335
0.00833335
0.00833335
0.00833335
0.00833335
0.00833335
0.00833335
0.00833335
0.00833335
0.00833335
0.00833335
0.00833335
0.00833335
0.00833335
0.00833335
0.00833335
0.00833335
0.00833335
0.00833335
0.00833335
0.00833335
0.00833335
0.00833335
0.00833335
0.00833335
0.00833335
0.00833335
0.00833335
0.00833335
0.00833335
0.00833335
0.00833335
0.00833335
0.00833335
0.00833335
0.00833335
0.00833335
0.00833335
0.00833335
0.00833335
0.00833335
0.00833335
0.00833335
0.00833335
0.00833335
0.0083506
0.00733986
0.00788765
0.00794419
0.00831076
0.00818447
0.00824694
0.00831441
0.00812439
0.00826768
0.00788469
0.00840634
0.00792077
0.00817129
0.0081203
0.00812894
0.00797149
0.00801778
0.00795705
0.00769994
0.00791504
0.00772073
0.0076048
0.00741217
0.00704075
0.00646237
0.00564621
0.00518063
0.00433326
0.00297028
0.00225573
0.00163835
0.00085708
0.000148868
0.000147016
0.000146883
0.000148901
0.00833335
0.00833335
0.00833335
0.00833335
0.00833335
0.00833335
0.00833335
0.00833335
0.00833335
0.00833335
0.00833335
0.00833335
0.00833335
0.00833335
0.00833335
0.00833335
0.00833335
0.00833335
0.00833335
0.00833335
0.00833335
0.00833335
0.00833335
0.00833335
0.00833335
0.00833335
0.00833335
0.00833335
0.00833335
0.00833335
0.00833335
0.00833335
0.00833335
0.00833335
0.00833335
0.00833335
0.00833335
0.00833335
0.00833335
0.00833335
0.00833335
0.00833335
0.00833335
0.00833335
0.00833335
0.00833335
0.00833335
0.00833335
0.00833335
0.00833335
0.00833335
0.00833335
0.00833335
0.00833335
0.00833335
0.00833335
0.00833335
0.00833333
0.00833356
0.00833302
0.00833366
0.00928578
0.00594573
0.00833111
0.00818882
0.00798689
0.00829343
0.00724296
0.00805052
0.00773206
0.0080356
0.0078719
0.00825101
0.0078342
0.00822112
0.00790397
0.00872908
0.00729984
0.00813958
0.00838387
0.00793331
0.00830047
0.0081943
0.00811934
0.00781507
0.00750334
0.00768616
0.00786831
0.00748164
0.00676464
0.00629361
0.00609365
0.00617163
0.0051805
0.00467137
0.00562827
0.00833335
0.00833335
0.00833335
0.00833335
0.00833335
0.00833335
0.00833335
0.00833335
0.00833335
0.00833335
0.00833335
0.00833335
0.00833335
0.00833335
0.00833335
0.00833335
0.00833335
0.00833335
0.00833335
0.00833335
0.00833335
0.00833335
0.00833335
0.00833335
0.00833335
0.00833335
0.00833335
0.00833335
0.00833335
0.00833335
0.00833335
0.00833335
0.00833335
0.00833335
0.00833335
0.00833335
0.00833335
0.00833335
0.00833335
0.00833335
0.00833335
0.00833335
0.00833335
0.00833335
0.00833335
0.00833335
0.00833335
0.00833335
0.00833335
0.00833335
0.00833335
0.00833335
0.00833335
0.00833335
0.00833335
0.00833335
0.00833335
0.00833332
0.00833411
0.00833218
0.00831771
0.00827454
0.00832282
0.00826855
0.00833158
0.00816167
0.00794191
0.00871146
0.00805712
0.00840165
0.00811479
0.00829861
0.00831561
0.00832018
0.00826347
0.00824525
0.00801002
0.008452
0.0083022
0.0083057
0.00829816
0.00831508
0.0083161
0.00820756
0.00826217
0.00808844
0.00761205
0.00741445
0.00727432
0.0075622
0.00683079
0.00666409
0.00721922
0.00693138
0.00729043
0.00753731
0.00833335
0.00833335
0.00833335
0.00833335
0.00833335
0.00833335
0.00833335
0.00833335
0.00833335
0.00833335
0.00833335
0.00833335
0.00833335
0.00833335
0.00833335
0.00833335
0.00833335
0.00833335
0.00833335
0.00833335
0.00833335
0.00833335
0.00833335
0.00833335
0.00833335
0.00833335
0.00833335
0.00833335
0.00833335
0.00833335
0.00833335
0.00833335
0.00833335
0.00833335
0.00833335
0.00833335
0.00833335
0.00833335
0.00833335
0.00833335
0.00833335
0.00833335
0.00833335
0.00833335
0.00833335
0.00833335
0.00833335
0.00833335
0.00833335
0.00833335
0.00833335
0.00833335
0.00833335
0.00833335
0.00833335
0.00833335
0.00833335
0.00833333
0.00833355
0.00833507
0.00826046
0.00760423
0.0078266
0.00767531
0.00824292
0.0071483
0.00766428
0.0080999
0.00805649
0.00785174
0.00775397
0.00846351
0.00755168
0.00848198
0.00778258
0.00820609
0.00827911
0.00833266
0.00808835
0.00796388
0.00810758
0.00800092
0.007935
0.00824876
0.00801969
0.00847115
0.00804746
0.00839742
0.00791638
0.00816104
0.00806658
0.00796818
0.00807144
0.00811479
0.00696149
0.00737342
0.00833335
0.00833335
0.00833335
0.00833335
0.00833335
0.00833335
0.00833335
0.00833335
0.00833335
0.00833335
0.00833335
0.00833335
0.00833335
0.00833335
0.00833335
0.00833335
0.00833335
0.00833335
0.00833335
0.00833335
0.00833335
0.00833335
0.00833335
0.00833335
0.00833335
0.00833335
0.00833335
0.00833335
0.00833335
0.00833335
0.00833335
0.00833335
0.00833335
0.00833335
0.00833335
0.00833335
0.00833335
0.00833335
0.00833335
0.00833335
0.00833335
0.00833335
0.00833335
0.00833335
0.00833335
0.00833335
0.00833335
0.00833335
0.00833335
0.00833335
0.00833335
0.00833335
0.00833335
0.00833335
0.00833335
0.00833335
0.00833335
0.00833335
0.00833323
0.00833461
0.00821407
0.00845537
0.0072647
0.00825301
0.00807401
0.00780876
0.00768231
0.00771279
0.00753282
0.00756501
0.00746649
0.00757453
0.00694637
0.00729019
0.0070426
0.00689714
0.00668457
0.00643988
0.00623369
0.00593344
0.00556692
0.00548208
0.00502994
0.00543469
0.00545178
0.00548577
0.00572767
0.00519927
0.00547055
0.00555951
0.0053043
0.00520713
0.00533429
0.005233
0.00495905
0.00464066
0.00833335
0.00833335
0.00833335
0.00833335
0.00833335
0.00833335
0.00833335
0.00833335
0.00833335
0.00833335
0.00833335
0.00833335
0.00833335
0.00833335
0.00833335
0.00833335
0.00833335
0.00833335
0.00833335
0.00833335
0.00833335
0.00833335
0.00833335
0.00833335
0.00833335
0.00833335
0.00833335
0.00833335
0.00833335
0.00833335
0.00833335
0.00833335
0.00833335
0.00833335
0.00833335
0.00833335
0.00833335
0.00833335
0.00833335
0.00833335
0.00833335
0.00833335
0.00833335
0.00833335
0.00833335
0.00833335
0.00833335
0.00833335
0.00833335
0.00833335
0.00833335
0.00833335
0.00833335
0.00833335
0.00833335
0.00833335
0.00833335
0.00833382
0.00831791
0.00833658
0.00833374
0.00803229
0.00757217
0.00696985
0.00686419
0.00649823
0.00657336
0.00615536
0.00593621
0.00556242
0.00529734
0.00514634
0.00480555
0.00475491
0.00450811
0.00444366
0.0044043
0.00438307
0.00409735
0.00400537
0.00394762
0.00400107
0.00392851
0.0039137
0.00388207
0.00384841
0.00384033
0.00369268
0.0036855
0.00356861
0.00358241
0.00342523
0.0030157
0.00274634
0.00247367
0.00199271
0.00833335
0.00833335
0.00833335
0.00833335
0.00833335
0.00833335
0.00833335
0.00833335
0.00833335
0.00833335
0.00833335
0.00833335
0.00833335
0.00833335
0.00833335
0.00833335
0.00833335
0.00833335
0.00833335
0.00833335
0.00833335
0.00833335
0.00833335
0.00833335
0.00833335
0.00833335
0.00833335
0.00833335
0.00833335
0.00833335
0.00833335
0.00833335
0.00833335
0.00833335
0.00833335
0.00833335
0.00833335
0.00833335
0.00833335
0.00833335
0.00833335
0.00833335
0.00833335
0.00833335
0.00833335
0.00833335
0.00833335
0.00833335
0.00833335
0.00833335
0.00833335
0.00833335
0.00833335
0.00833335
0.00833335
0.00833335
0.00833335
0.00833334
0.00833362
0.0083483
0.00830979
0.00495331
0.00331614
0.00300946
0.00287958
0.00281871
0.00278041
0.00265458
0.00263808
0.00245212
0.00249555
0.00243526
0.00235346
0.00219573
0.00193936
0.00182412
0.00177422
0.00177686
0.00174323
0.00180798
0.00196972
0.0019192
0.00184079
0.0017654
0.00178358
0.00183891
0.00185909
0.00187556
0.00192456
0.00192648
0.00186545
0.00178122
0.00152499
0.00119834
0.000629498
0.000558578
0.00833335
0.00833335
0.00833335
0.00833335
0.00833335
0.00833335
0.00833335
0.00833335
0.00833335
0.00833335
0.00833335
0.00833335
0.00833335
0.00833335
0.00833335
0.00833335
0.00833335
0.00833335
0.00833335
0.00833335
0.00833335
0.00833335
0.00833335
0.00833335
0.00833335
0.00833335
0.00833335
0.00833335
0.00833335
0.00833335
0.00833335
0.00833335
0.00833335
0.00833335
0.00833335
0.00833335
0.00833335
0.00833335
0.00833335
0.00833335
0.00833335
0.00833335
0.00833335
0.00833335
0.00833335
0.00833335
0.00833335
0.00833335
0.00833335
0.00833335
0.00833335
0.00833335
0.00833335
0.00833335
0.00833335
0.00833335
0.00833335
0.00833335
0.00833335
0.00833384
0.00833618
0.00484732
0.00163589
0.00142031
0.00143972
0.00140146
0.00139218
0.0013154
0.00126873
0.00115992
0.00107557
0.000961486
0.000853083
0.000768294
0.000683723
0.000614095
0.000533613
0.000374114
0.000216892
0.000186163
0.000182327
0.000178489
0.000175665
0.000171451
0.000168101
0.000165381
0.000181378
0.000211431
0.000255022
0.00035181
0.000393938
0.000402528
0.000349873
0.000247434
0.000162229
0.000149783
0.00833335
0.00833335
0.00833335
0.00833335
0.00833335
0.00833335
0.00833335
0.00833335
0.00833335
0.00833335
0.00833335
0.00833335
0.00833335
0.00833335
0.00833335
0.00833335
0.00833335
0.00833335
0.00833335
0.00833335
0.00833335
0.00833335
0.00833335
0.00833335
0.00833335
0.00833335
0.00833335
0.00833335
0.00833335
0.00833335
0.00833335
0.00833335
0.00833335
0.00833335
0.00833335
0.00833335
0.00833335
0.00833335
0.00833335
0.00833335
0.00833335
0.00833335
0.00833335
0.00833335
0.00833335
0.00833335
0.00833335
0.00833335
0.00833335
0.00833335
0.00833335
0.00833335
0.00833335
0.00833335
0.00833335
0.00833335
0.00833335
0.00833335
0.00833335
0.00833106
0.00833318
0.00714106
0.00090654
0.000814151
0.000844815
0.000822137
0.000828338
0.000747159
0.000703143
0.000607813
0.000534667
0.000401582
0.000298204
0.000225415
0.000205955
0.000202376
0.000197359
0.000193317
0.000189493
0.000186163
0.000182332
0.000178622
0.000175088
0.000172528
0.000167956
0.000165076
0.000162199
0.000159356
0.000156485
0.000153599
0.000151652
0.00015063
0.00014904
0.000148826
0.000149783
0.000149783
0.00833335
0.00833335
0.00833335
0.00833335
0.00833335
0.00833335
0.00833335
0.00833335
0.00833335
0.00833335
0.00833335
0.00833335
0.00833335
0.00833335
0.00833335
0.00833335
0.00833335
0.00833335
0.00833335
0.00833335
0.00833335
0.00833335
0.00833335
0.00833335
0.00833335
0.00833335
0.00833335
0.00833335
0.00833335
0.00833335
0.00833335
0.00833335
0.00833335
0.00833335
0.00833335
0.00833335
0.00833335
0.00833335
0.00833335
0.00833335
0.00833335
0.00833335
0.00833335
0.00833335
0.00833335
0.00833335
0.00833335
0.00833335
0.00833335
0.00833335
0.00833335
0.00833335
0.00833335
0.00833335
0.00833335
0.00833335
0.00833335
0.00833335
0.00833286
0.00830313
0.0091571
0.00766798
0.000324971
0.000275189
0.000287733
0.000283732
0.000277101
0.000267539
0.000254133
0.000237494
0.000223727
0.000218713
0.000214836
0.000210098
0.000206268
0.000202438
0.000198805
0.000194788
0.000188913
0.000186827
0.000182326
0.000178214
0.000175827
0.00017182
0.000168057
0.000163822
0.00016272
0.000158949
0.000156228
0.000153691
0.00015143
0.000151052
0.000148778
0.000148826
0.000149784
0.000149783
0.00833335
0.00833335
0.00833335
0.00833335
0.00833335
0.00833335
0.00833335
0.00833335
0.00833335
0.00833335
0.00833335
0.00833335
0.00833335
0.00833335
0.00833335
0.00833335
0.00833335
0.00833335
0.00833335
0.00833335
0.00833335
0.00833335
0.00833335
0.00833335
0.00833335
0.00833335
0.00833335
0.00833335
0.00833335
0.00833335
0.00833335
0.00833335
0.00833335
0.00833335
0.00833335
0.00833335
0.00833335
0.00833335
0.00833335
0.00833335
0.00833335
0.00833335
0.00833335
0.00833335
0.00833335
0.00833335
0.00833335
0.00833335
0.00833335
0.00833335
0.00833335
0.00833335
0.00833335
0.00833335
0.00833335
0.00833335
0.00833335
0.00833334
0.00833015
0.00833672
0.00833784
0.0081379
0.00295234
0.000253306
0.000249219
0.00024456
0.000240895
0.000234827
0.000231194
0.000227329
0.000222556
0.000218722
0.000215437
0.000209963
0.000206528
0.000202576
0.000197548
0.000193821
0.000189992
0.000186535
0.000182034
0.000178504
0.0001756
0.000171654
0.000167974
0.000165103
0.000161802
0.000159806
0.000156512
0.000153613
0.000151698
0.000150785
0.00014883
0.000148825
0.000149765
0.0001498
0.00833335
0.00833335
0.00833335
0.00833335
0.00833335
0.00833335
0.00833335
0.00833335
0.00833335
0.00833335
0.00833335
0.00833335
0.00833335
0.00833335
0.00833335
0.00833335
0.00833335
0.00833335
0.00833335
0.00833335
0.00833335
0.00833335
0.00833335
0.00833335
0.00833335
0.00833335
0.00833335
0.00833335
0.00833335
0.00833335
0.00833335
0.00833335
0.00833335
0.00833335
0.00833335
0.00833335
0.00833335
0.00833335
0.00833335
0.00833335
0.00833335
0.00833335
0.00833335
0.00833335
0.00833335
0.00833335
0.00833335
0.00833335
0.00833335
0.00833335
0.00833335
0.00833335
0.00833335
0.00833335
0.00833335
0.00833335
0.00833335
0.008333
0.00833356
0.00833194
0.00833283
0.00833338
0.00459866
0.000253176
0.000248393
0.00024486
0.000239163
0.000235457
0.000231091
0.000226362
0.000222455
0.000217773
0.000213928
0.000210096
0.000206563
0.000201554
0.000197651
0.00019383
0.000189992
0.000186162
0.000182233
0.000178649
0.000175632
0.000172058
0.000167506
0.000165505
0.000162229
0.000159369
0.000156661
0.00015354
0.000151612
0.00015078
0.000148826
0.000148826
0.000148826
0.000148826
0.00833335
0.00833335
0.00833335
0.00833335
0.00833335
0.00833335
0.00833335
0.00833335
0.00833335
0.00833335
0.00833335
0.00833335
0.00833335
0.00833335
0.00833335
0.00833335
0.00833335
0.00833335
0.00833335
0.00833335
0.00833335
0.00833335
0.00833335
0.00833335
0.00833335
0.00833335
0.00833335
0.00833335
0.00833335
0.00833335
0.00833335
0.00833335
0.00833335
0.00833335
0.00833335
0.00833335
0.00833335
0.00833335
0.00833335
0.00833335
0.00833335
0.00833335
0.00833335
0.00833335
0.00833335
0.00833335
0.00833335
0.00833335
0.00833335
0.00833335
0.00833335
0.00833335
0.00833335
0.00833335
0.00833335
0.00833335
0.00833335
0.00833334
0.00833344
0.00833347
0.00839603
0.00727773
0.000458777
0.000366149
0.000385682
0.00038525
0.000377238
0.000365292
0.000345977
0.000330744
0.000318412
0.00030009
0.000283814
0.000263705
0.00024309
0.000225006
0.000203395
0.000193822
0.000189976
0.000186171
0.000182333
0.000179464
0.000175632
0.000172152
0.000168409
0.000165101
0.000162229
0.000159356
0.000156485
0.000153612
0.000151698
0.00015074
0.00014902
0.00014898
0.000149879
0.000148811
0.00833335
0.00833335
0.00833335
0.00833335
0.00833335
0.00833335
0.00833335
0.00833335
0.00833335
0.00833335
0.00833335
0.00833335
0.00833335
0.00833335
0.00833335
0.00833335
0.00833335
0.00833335
0.00833335
0.00833335
0.00833335
0.00833335
0.00833335
0.00833335
0.00833335
0.00833335
0.00833335
0.00833335
0.00833335
0.00833335
0.00833335
0.00833335
0.00833335
0.00833335
0.00833335
0.00833335
0.00833335
0.00833335
0.00833335
0.00833335
0.00833335
0.00833335
0.00833335
0.00833335
0.00833335
0.00833335
0.00833335
0.00833335
0.00833335
0.00833335
0.00833335
0.00833335
0.00833335
0.00833335
0.00833335
0.00833335
0.00833335
0.00833335
0.00833628
0.00833025
0.00829287
0.00201269
0.00288573
0.00148393
0.00151846
0.00145466
0.00144306
0.00139166
0.00137289
0.00132413
0.0012646
0.00120289
0.00115794
0.00111309
0.00106188
0.00100295
0.000897541
0.000783961
0.000642637
0.000527624
0.000353947
0.000262458
0.000197106
0.000181694
0.000169044
0.000165005
0.000162229
0.000159354
0.000156558
0.000153359
0.000151633
0.000150737
0.000148699
0.000148945
0.000149783
0.000149783
0.00833335
0.00833335
0.00833335
0.00833335
0.00833335
0.00833335
0.00833335
0.00833335
0.00833335
0.00833335
0.00833335
0.00833335
0.00833335
0.00833335
0.00833335
0.00833335
0.00833335
0.00833335
0.00833335
0.00833335
0.00833335
0.00833335
0.00833335
0.00833335
0.00833335
0.00833335
0.00833335
0.00833335
0.00833335
0.00833335
0.00833335
0.00833335
0.00833335
0.00833335
0.00833335
0.00833335
0.00833335
0.00833335
0.00833335
0.00833335
0.00833335
0.00833335
0.00833335
0.00833335
0.00833335
0.00833335
0.00833335
0.00833335
0.00833335
0.00833335
0.00833335
0.00833335
0.00833335
0.00833335
0.00833335
0.00833335
0.00833335
0.00833335
0.00833331
0.00834599
0.0076005
0.00395276
0.00811139
0.00426211
0.00451029
0.00360014
0.00358265
0.00353023
0.00348617
0.00342013
0.00337195
0.0032827
0.00318662
0.0030258
0.00290059
0.00275668
0.00258704
0.00234543
0.00214515
0.00189262
0.00180645
0.00163937
0.00146078
0.000766386
0.000623088
0.000251644
0.000199557
0.00016955
0.000155972
0.00015338
0.000151818
0.000149927
0.000147889
0.000148829
0.000148805
0.000149804
0.00833335
0.00833335
0.00833335
0.00833335
0.00833335
0.00833335
0.00833335
0.00833335
0.00833335
0.00833335
0.00833335
0.00833335
0.00833335
0.00833335
0.00833335
0.00833335
0.00833335
0.00833335
0.00833335
0.00833335
0.00833335
0.00833335
0.00833335
0.00833335
0.00833335
0.00833335
0.00833335
0.00833335
0.00833335
0.00833335
0.00833335
0.00833335
0.00833335
0.00833335
0.00833335
0.00833335
0.00833335
0.00833335
0.00833335
0.00833335
0.00833335
0.00833335
0.00833335
0.00833335
0.00833335
0.00833335
0.00833335
0.00833335
0.00833335
0.00833335
0.00833335
0.00833335
0.00833335
0.00833335
0.00833335
0.00833335
0.00833335
0.00833335
0.00833334
0.00834189
0.00730612
0.00790787
0.00827377
0.00819298
0.00831813
0.00822171
0.00833827
0.00814573
0.00788112
0.00770565
0.00771585
0.00765381
0.00765519
0.00774707
0.00743183
0.00730212
0.00735879
0.00724618
0.00696303
0.00671769
0.00618167
0.00557768
0.00501496
0.00437163
0.00386438
0.00311252
0.00251918
0.00149676
0.000788133
0.000510929
0.00016798
0.000150742
0.000148808
0.000147878
0.00014883
0.000148826
0.00833335
0.00833335
0.00833335
0.00833335
0.00833335
0.00833335
0.00833335
0.00833335
0.00833335
0.00833335
0.00833335
0.00833335
0.00833335
0.00833335
0.00833335
0.00833335
0.00833335
0.00833335
0.00833335
0.00833335
0.00833335
0.00833335
0.00833335
0.00833335
0.00833335
0.00833335
0.00833335
0.00833335
0.00833335
0.00833335
0.00833335
0.00833335
0.00833335
0.00833335
0.00833335
0.00833335
0.00833335
0.00833335
0.00833335
0.00833335
0.00833335
0.00833335
0.00833335
0.00833335
0.00833335
0.00833335
0.00833335
0.00833335
0.00833335
0.00833335
0.00833335
0.00833335
0.00833335
0.00833335
0.00833335
0.00833335
0.00833335
0.00833335
0.00833342
0.00831645
0.00956584
0.00828084
0.00832976
0.00877895
0.00722362
0.00832981
0.00797796
0.00843437
0.00834225
0.00825898
0.00830304
0.00790668
0.00846755
0.00833694
0.00831704
0.00903007
0.00705456
0.00892769
0.00750314
0.00850796
0.00877773
0.00833044
0.00788626
0.00835635
0.0072939
0.00817336
0.00734454
0.0072972
0.00619719
0.00514647
0.00364318
0.0022137
0.000516658
0.0001466
0.000148762
0.00014888
0.00833335
0.00833335
0.00833335
0.00833335
0.00833335
0.00833335
0.00833335
0.00833335
0.00833335
0.00833335
0.00833335
0.00833335
0.00833335
0.00833335
0.00833335
0.00833335
0.00833335
0.00833335
0.00833335
0.00833335
0.00833335
0.00833335
0.00833335
0.00833335
0.00833335
0.00833335
0.00833335
0.00833335
0.00833335
0.00833335
0.00833335
0.00833335
0.00833335
0.00833335
0.00833335
0.00833335
0.00833335
0.00833335
0.00833335
0.00833335
0.00833335
0.00833335
0.00833335
0.00833335
0.00833335
0.00833335
0.00833335
0.00833335
0.00833335
0.00833335
0.00833335
0.00833335
0.00833335
0.00833335
0.00833335
0.00833335
0.00833335
0.00833335
0.00833334
0.00829236
0.00925063
0.00827094
0.00830614
0.00831283
0.00832027
0.00831797
0.00832227
0.00825521
0.00812335
0.00852578
0.00815842
0.00831019
0.0082144
0.00812131
0.00847001
0.00832124
0.00831436
0.00831521
0.00833674
0.00825465
0.00827163
0.00832891
0.00817431
0.00786352
0.00856082
0.00832899
0.00831549
0.00831948
0.00821896
0.0073328
0.00822927
0.00829141
0.00833255
0.00849325
0.00834813
0.0082575
0.00833335
0.00833335
0.00833335
0.00833335
0.00833335
0.00833335
0.00833335
0.00833335
0.00833335
0.00833335
0.00833335
0.00833335
0.00833335
0.00833335
0.00833335
0.00833335
0.00833335
0.00833335
0.00833335
0.00833335
0.00833335
0.00833335
0.00833335
0.00833335
0.00833335
0.00833335
0.00833335
0.00833335
0.00833335
0.00833335
0.00833335
0.00833335
0.00833335
0.00833335
0.00833335
0.00833335
0.00833335
0.00833335
0.00833335
0.00833335
0.00833335
0.00833335
0.00833335
0.00833335
0.00833335
0.00833335
0.00833335
0.00833335
0.00833335
0.00833335
0.00833335
0.00833335
0.00833335
0.00833335
0.00833335
0.00833335
0.00833335
0.00833321
0.00833344
0.00829534
0.00877304
0.00827584
0.00811983
0.00836698
0.00813701
0.00834234
0.00832337
0.00817468
0.00823713
0.0082762
0.0083371
0.00827189
0.00833476
0.00832945
0.00832253
0.00833309
0.00832736
0.00832679
0.00833208
0.00833131
0.00828286
0.00828627
0.00832057
0.00829258
0.00832296
0.00832943
0.00830885
0.00830953
0.00841004
0.00829885
0.00834062
0.00835598
0.00840349
0.00819464
0.00835763
0.00833338
0.00833335
0.00833335
0.00833335
0.00833335
0.00833335
0.00833335
0.00833335
0.00833335
0.00833335
0.00833335
0.00833335
0.00833335
0.00833335
0.00833335
0.00833335
0.00833335
0.00833335
0.00833335
0.00833335
0.00833335
0.00833335
0.00833335
0.00833335
0.00833335
0.00833335
0.00833335
0.00833335
0.00833335
0.00833335
0.00833335
0.00833335
0.00833335
0.00833335
0.00833335
0.00833335
0.00833335
0.00833335
0.00833335
0.00833335
0.00833335
0.00833335
0.00833335
0.00833335
0.00833335
0.00833335
0.00833335
0.00833335
0.00833335
0.00833335
0.00833335
0.00833335
0.00833335
0.00833335
0.00833335
0.00833335
0.00833335
0.00833335
0.00833334
0.00833319
0.00833015
0.00749702
0.0090878
0.00809875
0.00813047
0.00827628
0.00832028
0.0083289
0.00828438
0.00830104
0.00834561
0.00833561
0.00822343
0.00828913
0.00834458
0.00830283
0.0083324
0.00810375
0.00812277
0.00814625
0.00828862
0.00829291
0.00833492
0.00827418
0.0083153
0.00828282
0.0080452
0.00840673
0.0083283
0.00823174
0.00833463
0.00828575
0.0083613
0.0083268
0.00833441
0.00833076
0.00833137
0.00833335
0.00833335
0.00833335
0.00833335
0.00833335
0.00833335
0.00833335
0.00833335
0.00833335
0.00833335
0.00833335
0.00833335
0.00833335
0.00833335
0.00833335
0.00833335
0.00833335
0.00833335
0.00833335
0.00833335
0.00833335
0.00833335
0.00833335
0.00833335
0.00833335
0.00833335
0.00833335
0.00833335
0.00833335
0.00833335
0.00833335
0.00833335
0.00833335
0.00833335
0.00833335
0.00833335
0.00833335
0.00833335
0.00833335
0.00833335
0.00833335
0.00833335
0.00833335
0.00833335
0.00833335
0.00833335
0.00833335
0.00833335
0.00833335
0.00833335
0.00833335
0.00833335
0.00833335
0.00833335
0.00833335
0.00833335
0.00833335
0.00833335
0.00833334
0.00833124
0.00863558
0.00811979
0.00846391
0.00830724
0.00824424
0.00808064
0.0084202
0.00816604
0.00826557
0.00809444
0.0079818
0.00791752
0.00824466
0.00794289
0.00811159
0.00826613
0.00815315
0.00818709
0.00844015
0.00829753
0.00828554
0.00813655
0.00834512
0.00828022
0.00828606
0.00826914
0.00819939
0.00739502
0.00718028
0.00642134
0.00599396
0.00588747
0.00592894
0.00565158
0.00525216
0.00421606
0.00833335
0.00833335
0.00833335
0.00833335
0.00833335
0.00833335
0.00833335
0.00833335
0.00833335
0.00833335
0.00833335
0.00833335
0.00833335
0.00833335
0.00833335
0.00833335
0.00833335
0.00833335
0.00833335
0.00833335
0.00833335
0.00833335
0.00833335
0.00833335
0.00833335
0.00833335
0.00833335
0.00833335
0.00833335
0.00833335
0.00833335
0.00833335
0.00833335
0.00833335
0.00833335
0.00833335
0.00833335
0.00833335
0.00833335
0.00833335
0.00833335
0.00833335
0.00833335
0.00833335
0.00833335
0.00833335
0.00833335
0.00833335
0.00833335
0.00833335
0.00833335
0.00833335
0.00833335
0.00833335
0.00833335
0.00833335
0.00833335
0.00833334
0.00833303
0.00833329
0.00836006
0.00410571
0.00801741
0.00545082
0.00580885
0.00527905
0.00501799
0.00471843
0.00451932
0.00431325
0.00416567
0.00397058
0.00398782
0.00403987
0.00403956
0.00407214
0.00412372
0.0039523
0.00385309
0.00384512
0.0038661
0.00383927
0.00372919
0.00368293
0.0036615
0.00344729
0.00325072
0.0032609
0.00313968
0.00298064
0.00296588
0.00280592
0.00276764
0.0028113
0.00289159
0.00255578
0.00833335
0.00833335
0.00833335
0.00833335
0.00833335
0.00833335
0.00833335
0.00833335
0.00833335
0.00833335
0.00833335
0.00833335
0.00833335
0.00833335
0.00833335
0.00833335
0.00833335
0.00833335
0.00833335
0.00833335
0.00833335
0.00833335
0.00833335
0.00833335
0.00833335
0.00833335
0.00833335
0.00833335
0.00833335
0.00833335
0.00833335
0.00833335
0.00833335
0.00833335