/*--------------------------------*- C++ -*----------------------------------*\
| =========                 |                                                 |
| \\      /  F ield         | OpenFOAM: The Open Source CFD Toolbox           |
|  \\    /   O peration     | Version:  2.3.0                                 |
|   \\  /    A nd           | Web:      www.OpenFOAM.org                      |
|    \\/     M anipulation  |                                                 |
\*---------------------------------------------------------------------------*/
FoamFile
{
    version     2.0;
    format      ascii;
    class       volScalarField;
    location    "43";
    object      k.water;
}
// * * * * * * * * * * * * * * * * * * * * * * * * * * * * * * * * * * * * * //

dimensions      [0 2 -2 0 0 0 0];

internalField   nonuniform List<scalar> 
6144
(
9.58933e-05
7.22495e-05
5.11164e-05
4.10105e-05
2.96043e-05
2.29473e-05
2.04356e-05
1.88188e-05
1.72177e-05
2.01132e-05
2.46397e-05
2.85064e-05
3.02913e-05
3.07537e-05
2.9619e-05
2.85327e-05
2.73252e-05
2.65618e-05
2.5777e-05
2.50301e-05
2.47589e-05
2.46553e-05
2.46703e-05
2.47436e-05
2.48592e-05
2.50111e-05
2.51993e-05
2.54951e-05
2.58733e-05
2.61207e-05
2.62638e-05
2.63734e-05
2.64867e-05
2.65925e-05
2.67003e-05
2.6815e-05
2.70449e-05
2.73017e-05
2.78232e-05
2.82436e-05
2.88326e-05
2.917e-05
2.9289e-05
2.90612e-05
2.75295e-05
2.522e-05
2.27074e-05
2.39463e-05
3.39176e-05
5.49028e-05
9.08733e-05
0.000112464
0.000187871
0.000312433
0.000533324
0.00062202
0.000823164
0.0017365
0.00465165
0.00653291
0.0150198
0.00986626
0.006459
0.00455314
0.00345912
0.00282518
0.00242525
0.00213858
0.00191481
0.00172658
0.00154707
0.00138546
0.00120488
0.00102641
0.000817929
0.000480888
0.000190892
9.78428e-05
9.4641e-05
0.000101516
0.000102467
0.000102765
0.00010181
9.75563e-05
8.16904e-05
6.65847e-05
7.70922e-05
0.00011807
0.000159588
0.000204434
0.000205999
0.000196701
0.000184241
0.000174348
0.000157179
0.000107125
0.000136854
0.000101211
7.12083e-05
6.19637e-05
4.72749e-05
4.17406e-05
4.0821e-05
4.01145e-05
3.79976e-05
4.35302e-05
4.90138e-05
5.38739e-05
5.64473e-05
5.64575e-05
5.40447e-05
5.23631e-05
5.09439e-05
5.05222e-05
5.05243e-05
5.07819e-05
5.15874e-05
5.23911e-05
5.31329e-05
5.37681e-05
5.42976e-05
5.47481e-05
5.51448e-05
5.56494e-05
5.62163e-05
5.65896e-05
5.68647e-05
5.71267e-05
5.74068e-05
5.76849e-05
5.7995e-05
5.83007e-05
5.87608e-05
5.92086e-05
6.00388e-05
6.0724e-05
6.16108e-05
6.22937e-05
6.25727e-05
6.25552e-05
6.05092e-05
5.71016e-05
5.37499e-05
5.63914e-05
7.335e-05
0.000111076
0.0001782
0.000231348
0.000415138
0.000733819
0.00112111
0.00127888
0.00146551
0.00244781
0.00400766
0.00587288
0.0126392
0.00747635
0.00418877
0.00248972
0.00178896
0.0015573
0.00143735
0.00136021
0.00128999
0.00123443
0.00117391
0.00112098
0.00103918
0.00094225
0.000777966
0.000454748
0.000189079
0.000144857
0.000177996
0.000200487
0.000195569
0.000173111
0.000139281
0.000116123
8.8067e-05
7.79174e-05
9.78326e-05
0.000156745
0.000221287
0.000245033
0.000223223
0.00019007
0.000178489
0.000159814
0.000137546
9.42329e-05
0.000148289
0.000113435
9.09247e-05
8.36821e-05
6.82276e-05
6.20736e-05
6.25767e-05
6.26973e-05
5.76546e-05
5.69194e-05
5.96018e-05
6.12938e-05
6.11889e-05
5.92826e-05
5.68535e-05
5.59926e-05
5.61204e-05
5.75749e-05
5.99228e-05
6.26207e-05
6.48964e-05
6.67026e-05
6.8172e-05
6.93021e-05
7.01497e-05
7.07801e-05
7.12515e-05
7.15797e-05
7.17503e-05
7.18179e-05
7.18572e-05
7.1911e-05
7.19889e-05
7.20802e-05
7.2208e-05
7.22961e-05
7.24167e-05
7.24161e-05
7.25821e-05
7.26093e-05
7.30105e-05
7.33735e-05
7.40474e-05
7.49259e-05
7.52693e-05
7.62204e-05
7.5197e-05
8.27159e-05
0.000108061
0.000174903
0.000291482
0.000408928
0.000649803
0.00105632
0.00169291
0.00181497
0.00173867
0.00253869
0.00399102
0.00516382
0.0115766
0.00550609
0.00198458
0.00114265
0.00106281
0.00103068
0.000983471
0.000939389
0.000911926
0.000906754
0.000903315
0.000891665
0.000857946
0.00079301
0.000671353
0.000344152
0.000203636
0.00024188
0.0002822
0.00029503
0.000273383
0.000238684
0.000196909
0.000146494
0.000108303
0.000110283
0.00015927
0.000231365
0.000258775
0.000259293
0.000200509
0.000172097
0.000183456
0.000166637
0.000122815
8.42306e-05
0.000157073
0.000125656
0.000108827
0.000101375
8.19708e-05
7.67234e-05
7.58968e-05
7.73118e-05
7.12479e-05
6.45938e-05
6.43045e-05
6.43337e-05
6.24703e-05
5.95825e-05
5.70104e-05
5.64024e-05
5.74019e-05
5.96173e-05
6.23357e-05
6.5009e-05
6.72707e-05
6.92061e-05
7.07683e-05
7.19684e-05
7.287e-05
7.3552e-05
7.40821e-05
7.44574e-05
7.46385e-05
7.4667e-05
7.46391e-05
7.46287e-05
7.46508e-05
7.46982e-05
7.47768e-05
7.48355e-05
7.49073e-05
7.48729e-05
7.50031e-05
7.49012e-05
7.5271e-05
7.55459e-05
7.63203e-05
7.72798e-05
7.7955e-05
8.02055e-05
8.36878e-05
0.000104072
0.00016523
0.0003051
0.000538485
0.000839296
0.00141035
0.00223861
0.00266607
0.00270283
0.00243597
0.00293839
0.00372069
0.00425638
0.0104503
0.00360331
0.00105814
0.00077402
0.000830805
0.00077105
0.000659657
0.000577759
0.000572146
0.000588395
0.000628203
0.000680338
0.000724922
0.000700463
0.000464907
0.000300098
0.000319236
0.000404033
0.000429583
0.000415594
0.000369215
0.000319751
0.000249937
0.000189054
0.000164531
0.000201013
0.000257535
0.000279335
0.000282103
0.000269037
0.000198265
0.000176231
0.000187941
0.000166915
0.000113214
8.00065e-05
0.000160502
0.000128726
0.000118244
0.000117073
9.30201e-05
8.52454e-05
7.75271e-05
7.78655e-05
7.51742e-05
6.8659e-05
6.69846e-05
6.48534e-05
6.21342e-05
5.81928e-05
5.53165e-05
5.46444e-05
5.5945e-05
5.85374e-05
6.16653e-05
6.46837e-05
6.7379e-05
6.98662e-05
7.17349e-05
7.30641e-05
7.39865e-05
7.46487e-05
7.51214e-05
7.54153e-05
7.54806e-05
7.5345e-05
7.5126e-05
7.49299e-05
7.47765e-05
7.46677e-05
7.46104e-05
7.4528e-05
7.44258e-05
7.42337e-05
7.41403e-05
7.38911e-05
7.4005e-05
7.41724e-05
7.46611e-05
7.55134e-05
7.63775e-05
8.13081e-05
9.58587e-05
0.000143554
0.000268834
0.000479372
0.000783389
0.00126756
0.0024317
0.00375051
0.00387431
0.00406786
0.00457695
0.00420506
0.00316254
0.00318044
0.00864583
0.00188743
0.000853393
0.000749752
0.000754495
0.000588473
0.000462172
0.000397214
0.000389039
0.000411589
0.000489178
0.000578681
0.000574223
0.000489963
0.00040946
0.000409108
0.000570607
0.000651162
0.000668742
0.000650519
0.000568411
0.000426692
0.000326556
0.000277475
0.000279153
0.000302766
0.000307719
0.000306231
0.000320309
0.000308242
0.000220954
0.000169718
0.000162584
0.000158559
0.000105582
7.87007e-05
0.000160688
0.000126983
0.000120237
0.000124066
0.000109279
0.000105523
8.43757e-05
7.98775e-05
7.85748e-05
6.94685e-05
6.70699e-05
6.38367e-05
6.12557e-05
5.66938e-05
5.19689e-05
5.03252e-05
5.15572e-05
5.47837e-05
5.89501e-05
6.31209e-05
6.67104e-05
6.95315e-05
7.15066e-05
7.28725e-05
7.37926e-05
7.44062e-05
7.48016e-05
7.49915e-05
7.4933e-05
7.46499e-05
7.43023e-05
7.40012e-05
7.37651e-05
7.35822e-05
7.34438e-05
7.32997e-05
7.31406e-05
7.29036e-05
7.26891e-05
7.23556e-05
7.21098e-05
7.2068e-05
7.19074e-05
7.21735e-05
7.26078e-05
8.23953e-05
0.000116515
0.000196614
0.000340177
0.000549905
0.000850945
0.00141169
0.00300577
0.00454802
0.00473514
0.0047338
0.00505425
0.00444895
0.00275138
0.00272479
0.00680887
0.00137819
0.000916249
0.000819436
0.000716808
0.000556298
0.000448617
0.000399688
0.00040045
0.000438794
0.000496225
0.000522227
0.000521933
0.000513971
0.000588161
0.000933008
0.00121813
0.00127844
0.00109772
0.000863163
0.000644663
0.000500363
0.000446246
0.00043832
0.000442636
0.000424714
0.000404321
0.000404789
0.000404623
0.000376025
0.000288192
0.000181077
0.00014035
0.000127809
9.50681e-05
7.6382e-05
0.000120248
0.000112879
0.0001124
0.000124321
0.000114621
0.000114021
9.3949e-05
8.81229e-05
8.52123e-05
7.07157e-05
6.74712e-05
6.27805e-05
5.85538e-05
5.19038e-05
4.72426e-05
4.56499e-05
4.69223e-05
4.98955e-05
5.35253e-05
5.73004e-05
6.08846e-05
6.38767e-05
6.61428e-05
6.77198e-05
6.86931e-05
6.93117e-05
6.96596e-05
6.9767e-05
6.95667e-05
6.90804e-05
6.84814e-05
6.79217e-05
6.74201e-05
6.70107e-05
6.66855e-05
6.63027e-05
6.58267e-05
6.52888e-05
6.46348e-05
6.41061e-05
6.35015e-05
6.34211e-05
6.32261e-05
6.43981e-05
6.85047e-05
8.6151e-05
0.000137491
0.000247229
0.000399273
0.000579801
0.000837093
0.00140458
0.00308405
0.0048057
0.00488627
0.00495027
0.00461254
0.00411927
0.00280991
0.00279551
0.00558395
0.00133267
0.00111578
0.00105602
0.000902543
0.000762502
0.000651393
0.000562604
0.00052818
0.000531491
0.000567036
0.000623422
0.000740683
0.00107759
0.00142062
0.00157235
0.00146049
0.00128551
0.000985795
0.000744695
0.000636438
0.000605212
0.000634
0.000650226
0.000645553
0.000600912
0.000554647
0.000539804
0.00051534
0.000463206
0.000379687
0.000263988
0.000182117
0.000146613
9.69567e-05
7.39747e-05
9.40972e-05
8.78842e-05
8.10875e-05
9.66063e-05
0.000101114
0.000107519
9.24311e-05
8.71375e-05
8.86935e-05
7.14214e-05
6.80983e-05
6.17543e-05
5.80397e-05
5.07541e-05
4.44522e-05
4.15493e-05
4.29631e-05
4.66826e-05
5.11679e-05
5.54899e-05
5.92506e-05
6.23356e-05
6.46579e-05
6.63208e-05
6.74346e-05
6.81741e-05
6.86305e-05
6.87922e-05
6.85517e-05
6.79605e-05
6.72621e-05
6.66333e-05
6.60938e-05
6.55916e-05
6.5091e-05
6.45491e-05
6.39375e-05
6.33179e-05
6.25774e-05
6.20128e-05
6.13914e-05
6.13746e-05
6.15176e-05
6.34738e-05
6.94074e-05
9.15179e-05
0.00016467
0.000293611
0.000442668
0.000585783
0.000760026
0.00115749
0.00224947
0.00415715
0.00450853
0.00445042
0.00406284
0.00370677
0.00283408
0.00282846
0.00509083
0.00139956
0.00128424
0.00131474
0.00126222
0.00115588
0.00107341
0.00101678
0.000994398
0.000997704
0.00107433
0.00120843
0.00135576
0.00144387
0.00147997
0.00144512
0.00121433
0.000992317
0.000855465
0.000822739
0.000860118
0.000907038
0.000924799
0.000888282
0.000840104
0.000763075
0.000713829
0.000686518
0.000631024
0.00054964
0.000453593
0.000335834
0.000234473
0.000176876
0.000118943
9.39891e-05
8.24953e-05
7.83944e-05
6.59175e-05
7.12326e-05
6.96832e-05
7.39431e-05
7.46741e-05
6.81016e-05
7.42034e-05
6.66881e-05
6.43805e-05
5.68781e-05
5.09199e-05
4.13649e-05
3.39144e-05
3.05368e-05
3.19098e-05
3.57841e-05
4.01668e-05
4.40786e-05
4.72399e-05
4.98541e-05
5.19958e-05
5.36448e-05
5.48551e-05
5.567e-05
5.61619e-05
5.6361e-05
5.61591e-05
5.56028e-05
5.4945e-05
5.43384e-05
5.38131e-05
5.3306e-05
5.27649e-05
5.22044e-05
5.16271e-05
5.11058e-05
5.05533e-05
5.02859e-05
5.0056e-05
5.04447e-05
5.11591e-05
5.35772e-05
5.95071e-05
7.73107e-05
0.000136124
0.000247219
0.000373751
0.000487923
0.000697308
0.00126633
0.00182968
0.00345841
0.00398539
0.00389312
0.00373227
0.0033211
0.00302244
0.00302189
0.00560122
0.0014122
0.00126788
0.00134412
0.00136658
0.00137014
0.0013067
0.00125366
0.0012333
0.00123366
0.00127402
0.00131536
0.00134293
0.00135572
0.00128669
0.00109763
0.000952767
0.000849225
0.000794022
0.000776212
0.000760103
0.000675801
0.000621
0.000608289
0.000640158
0.000689294
0.000734289
0.000735256
0.000682081
0.000595933
0.000516887
0.000413033
0.000314187
0.000232192
0.000173446
9.76223e-05
7.83368e-05
7.48227e-05
5.96008e-05
6.3388e-05
5.7391e-05
5.6603e-05
5.5383e-05
5.32859e-05
5.6689e-05
5.74627e-05
5.70662e-05
5.0153e-05
4.28043e-05
3.33394e-05
2.60529e-05
2.25207e-05
2.30781e-05
2.6036e-05
2.96451e-05
3.276e-05
3.52366e-05
3.73213e-05
3.89343e-05
4.02038e-05
4.11638e-05
4.18256e-05
4.22348e-05
4.24369e-05
4.24154e-05
4.21746e-05
4.18568e-05
4.15621e-05
4.13246e-05
4.10848e-05
4.07862e-05
4.04823e-05
4.0212e-05
4.00044e-05
3.9842e-05
3.98315e-05
3.98775e-05
4.0309e-05
4.10844e-05
4.26469e-05
4.61831e-05
5.64816e-05
9.61895e-05
0.000172558
0.000260718
0.00039777
0.000811263
0.00208218
0.00234658
0.00255695
0.00321995
0.00325484
0.00320539
0.00301187
0.00323206
0.00324188
0.00669336
0.00139802
0.0011021
0.00119822
0.00134408
0.00140733
0.0014345
0.00140533
0.00135383
0.0013151
0.00129869
0.00128248
0.00126235
0.00119893
0.00104408
0.000926584
0.000847984
0.000768203
0.000712098
0.000606654
0.000483066
0.00043658
0.000452404
0.000462249
0.00046795
0.000481892
0.000499527
0.00053011
0.000523402
0.00049229
0.000455146
0.000392822
0.000320704
0.000242186
0.00017774
0.000108834
8.20827e-05
7.4552e-05
5.74459e-05
6.11251e-05
5.12921e-05
4.88004e-05
4.65858e-05
3.74131e-05
4.03919e-05
4.4845e-05
4.58245e-05
4.05166e-05
3.40872e-05
2.61212e-05
2.07833e-05
1.76498e-05
1.74959e-05
1.92658e-05
2.19124e-05
2.42e-05
2.59974e-05
2.75097e-05
2.87252e-05
2.97096e-05
3.04738e-05
3.10566e-05
3.14517e-05
3.16839e-05
3.1787e-05
3.17199e-05
3.16204e-05
3.15364e-05
3.15039e-05
3.14856e-05
3.14196e-05
3.13588e-05
3.13513e-05
3.14132e-05
3.15627e-05
3.17582e-05
3.19724e-05
3.22501e-05
3.27652e-05
3.33254e-05
3.5138e-05
4.07003e-05
7.00333e-05
0.000130427
0.000214448
0.000360652
0.000723874
0.00164934
0.0021154
0.00213742
0.00240956
0.00292222
0.00299063
0.00326929
0.00386141
0.00389518
0.00883597
0.00155594
0.000849035
0.000855437
0.000974068
0.00111281
0.00128153
0.00134633
0.00136546
0.00132718
0.00127699
0.0012109
0.00112294
0.000980433
0.000869441
0.000806989
0.000730446
0.000649805
0.000542482
0.000433624
0.000400771
0.000440521
0.000470604
0.000469669
0.000452022
0.000450759
0.000458811
0.00047836
0.000482128
0.000465699
0.000438067
0.000390615
0.000336647
0.000268542
0.000190305
0.000110911
8.9642e-05
8.41282e-05
5.97125e-05
6.1407e-05
4.87228e-05
4.55602e-05
4.3771e-05
2.9487e-05
3.0974e-05
3.68138e-05
3.87912e-05
3.40087e-05
2.67306e-05
2.0058e-05
1.60787e-05
1.38416e-05
1.39506e-05
1.53244e-05
1.73289e-05
1.90249e-05
2.03386e-05
2.14653e-05
2.24394e-05
2.32636e-05
2.39545e-05
2.45453e-05
2.50332e-05
2.53647e-05
2.55512e-05
2.5644e-05
2.57068e-05
2.57972e-05
2.59557e-05
2.60995e-05
2.61937e-05
2.62819e-05
2.63907e-05
2.65509e-05
2.67706e-05
2.69271e-05
2.70027e-05
2.70482e-05
2.73136e-05
2.74811e-05
2.85901e-05
3.11149e-05
4.56204e-05
8.26148e-05
0.000152197
0.000290622
0.000552595
0.0010288
0.00148197
0.00154075
0.00174264
0.00220523
0.00240325
0.00288237
0.00615458
0.00629498
0.012899
0.00285866
0.000830913
0.00077435
0.000760259
0.000775114
0.000917946
0.0010954
0.00117399
0.00120122
0.00119603
0.0011313
0.0010409
0.000923073
0.000812579
0.000740935
0.000680183
0.000606766
0.00050489
0.000444203
0.000474805
0.000536673
0.000538204
0.000510117
0.00046041
0.000435952
0.000438042
0.000446486
0.000456791
0.000441767
0.000417597
0.000379779
0.000334928
0.000272319
0.000192495
0.000111817
0.000106643
0.00010999
6.76e-05
6.23004e-05
4.83715e-05
4.15467e-05
3.69358e-05
2.56927e-05
2.5007e-05
3.03941e-05
3.27209e-05
2.88605e-05
2.17557e-05
1.60673e-05
1.34911e-05
1.22361e-05
1.2214e-05
1.32763e-05
1.45557e-05
1.56753e-05
1.65843e-05
1.73107e-05
1.79419e-05
1.85627e-05
1.9149e-05
1.96983e-05
2.02012e-05
2.06067e-05
2.08685e-05
2.10028e-05
2.11184e-05
2.12839e-05
2.15233e-05
2.17676e-05
2.19503e-05
2.21334e-05
2.23346e-05
2.25654e-05
2.28518e-05
2.30118e-05
2.30675e-05
2.30052e-05
2.31366e-05
2.31187e-05
2.37158e-05
2.46437e-05
3.05403e-05
4.54518e-05
8.03203e-05
0.0001786
0.000370405
0.000660638
0.00086617
0.00086307
0.00121109
0.00155024
0.0020739
0.00431555
0.00888794
0.00938829
0.0151505
0.00520086
0.00130066
0.00113113
0.00106809
0.000710994
0.000606807
0.000722771
0.000898061
0.000976988
0.00101036
0.00100457
0.000966693
0.000915773
0.000861377
0.000798188
0.000725781
0.000646535
0.000574606
0.000583817
0.000615497
0.000610298
0.000575146
0.000514901
0.000452983
0.000411533
0.000395616
0.000396738
0.000405467
0.000396732
0.0003787
0.000352316
0.000318571
0.000263191
0.000184193
0.000109803
0.000110825
0.000105756
6.60672e-05
6.38066e-05
5.91115e-05
4.23245e-05
3.50424e-05
2.46595e-05
2.30666e-05
2.57563e-05
2.89275e-05
2.56008e-05
1.85244e-05
1.39503e-05
1.20542e-05
1.08234e-05
1.07819e-05
1.16573e-05
1.27055e-05
1.35632e-05
1.42593e-05
1.48634e-05
1.53711e-05
1.5797e-05
1.61817e-05
1.65686e-05
1.69587e-05
1.7302e-05
1.75097e-05
1.76021e-05
1.76563e-05
1.77807e-05
1.80088e-05
1.82994e-05
1.85596e-05
1.88021e-05
1.90674e-05
1.93476e-05
1.96846e-05
1.99048e-05
1.99854e-05
1.98938e-05
1.99272e-05
1.97526e-05
2.00822e-05
2.05131e-05
2.35992e-05
3.21886e-05
5.84528e-05
0.00013149
0.000252444
0.000380546
0.000474351
0.000544829
0.000952344
0.0013014
0.00182582
0.00333568
0.00853003
0.00977141
0.0152973
0.00688194
0.00282372
0.00193319
0.00154788
0.00112769
0.00079084
0.000553706
0.0004961
0.00057602
0.000698418
0.000779879
0.000818646
0.000814183
0.000805948
0.000787872
0.000774645
0.000745851
0.000715381
0.00069827
0.000671161
0.000623686
0.00055314
0.000477846
0.000412538
0.000373032
0.000356053
0.00035416
0.000358969
0.000353813
0.000340929
0.000323216
0.000296464
0.000239563
0.000161731
0.00010376
0.000138952
0.000193884
0.000136046
0.000105799
0.000120252
7.77665e-05
4.58029e-05
1.8844e-05
1.78339e-05
1.90907e-05
2.03214e-05
1.843e-05
1.42068e-05
1.13828e-05
9.95538e-06
9.09807e-06
9.1285e-06
9.83594e-06
1.06195e-05
1.12485e-05
1.1767e-05
1.22231e-05
1.26298e-05
1.30113e-05
1.33974e-05
1.38145e-05
1.42516e-05
1.46476e-05
1.49119e-05
1.50457e-05
1.51775e-05
1.53856e-05
1.56891e-05
1.60346e-05
1.63186e-05
1.65722e-05
1.68468e-05
1.71321e-05
1.74679e-05
1.77051e-05
1.78204e-05
1.77613e-05
1.77498e-05
1.75096e-05
1.76487e-05
1.78428e-05
1.98735e-05
2.49905e-05
4.05376e-05
8.38991e-05
0.000161397
0.000239917
0.000311122
0.000400447
0.000724465
0.000995482
0.00203754
0.00425819
0.00769467
0.00915411
0.0144715
0.00830426
0.0045079
0.002527
0.00177683
0.00128239
0.00093633
0.000682809
0.000517254
0.000443896
0.000435669
0.000456834
0.000511392
0.000566052
0.000612734
0.00064683
0.000660692
0.000654389
0.000638134
0.000611136
0.000564611
0.000507638
0.000448218
0.000400309
0.000368687
0.000345475
0.000332592
0.000322229
0.00031904
0.000311925
0.000303074
0.000290773
0.00026365
0.000186108
0.000113589
9.09081e-05
0.000147519
0.000149367
0.00015676
0.000157748
0.000156843
0.000147918
0.000106638
2.62782e-05
1.33938e-05
1.26427e-05
1.25547e-05
1.14806e-05
9.45689e-06
7.94355e-06
7.04312e-06
6.52392e-06
6.57008e-06
7.02389e-06
7.50563e-06
7.89428e-06
8.21901e-06
8.51102e-06
8.78704e-06
9.06099e-06
9.34925e-06
9.6649e-06
1.00018e-05
1.03139e-05
1.05377e-05
1.06592e-05
1.07793e-05
1.09561e-05
1.1207e-05
1.14922e-05
1.17487e-05
1.19793e-05
1.22237e-05
1.24702e-05
1.27502e-05
1.29749e-05
1.31534e-05
1.31678e-05
1.31363e-05
1.28024e-05
1.26846e-05
1.26918e-05
1.38133e-05
1.64362e-05
2.27614e-05
3.84453e-05
7.22788e-05
0.000114177
0.000165212
0.000217556
0.000413606
0.000593757
0.00119836
0.00201435
0.00719954
0.00903131
0.0146251
0.00843751
0.00496985
0.0030417
0.00211607
0.00154239
0.00115031
0.000876851
0.000681146
0.000546758
0.000463348
0.000418177
0.000396042
0.000392085
0.00039697
0.000406797
0.00041977
0.000429952
0.000429166
0.000423431
0.00041101
0.000396403
0.000379765
0.000362725
0.000348404
0.000333314
0.00032218
0.000308163
0.000295541
0.000289583
0.000282904
0.000269819
0.000231078
0.000109498
7.12125e-05
7.24333e-05
0.000182728
0.000141927
8.50319e-05
6.08421e-05
4.02772e-05
3.07686e-05
3.05565e-05
3.17954e-05
3.68293e-05
5.32499e-05
6.89853e-05
8.28903e-05
8.79665e-05
8.89925e-05
8.52057e-05
8.09174e-05
7.66307e-05
7.35801e-05
7.04128e-05
6.72214e-05
6.41482e-05
6.21627e-05
6.15067e-05
6.17805e-05
6.27711e-05
6.43412e-05
6.62935e-05
6.81742e-05
6.95044e-05
7.0338e-05
7.09257e-05
7.14656e-05
7.20196e-05
7.25574e-05
7.31008e-05
7.37166e-05
7.46607e-05
7.58696e-05
7.7816e-05
7.97361e-05
8.17987e-05
8.29084e-05
8.3568e-05
8.24964e-05
7.94764e-05
7.42828e-05
6.36351e-05
5.51341e-05
5.74256e-05
7.391e-05
0.000103244
0.000122728
0.000208944
0.00030119
0.000534634
0.000756952
0.00120879
0.00186085
0.00275116
0.00387223
0.00619215
0.00515465
0.00440707
0.00371648
0.00315149
0.00272103
0.00240007
0.00215519
0.0019462
0.00176669
0.00159657
0.00143544
0.00127479
0.00109465
0.000927852
0.00069442
0.000373703
0.000161099
0.000108959
0.000111804
0.000115842
0.000115028
0.000112613
0.000107329
9.36884e-05
7.36454e-05
7.88753e-05
0.000115388
0.000173299
0.000239914
0.000250632
0.000237734
0.000219483
0.000198636
0.000175064
0.000118134
0.000334771
0.000245844
0.00016704
0.000131771
0.000100814
9.03088e-05
9.55039e-05
0.000103481
0.00011197
0.000135968
0.000149784
0.000161567
0.000164368
0.000160946
0.000153786
0.00014878
0.000146564
0.00014699
0.000147975
0.000148625
0.000148616
0.000148765
0.000149789
0.000151432
0.000153504
0.000155857
0.000158318
0.000160411
0.000161727
0.000162539
0.000163162
0.000163751
0.000164353
0.00016497
0.000165639
0.000166369
0.000167312
0.000168475
0.000170293
0.000172234
0.000174434
0.00017607
0.000177907
0.000178224
0.000178489
0.000174963
0.000166346
0.000158235
0.000167832
0.000198331
0.000240566
0.00029518
0.000554884
0.000930299
0.00148054
0.00215412
0.00307056
0.00396791
0.00630946
0.00676106
0.00137241
0.00309515
0.00561932
0.00448101
0.00351855
0.00288692
0.00243962
0.00211973
0.00186684
0.00167293
0.00151804
0.00138781
0.00125999
0.00113504
0.000999075
0.00079977
0.000482529
0.00024779
0.000212843
0.000240749
0.000240475
0.000223936
0.000188398
0.000157006
0.000122494
0.000102077
0.000118993
0.000188855
0.000329406
0.000364883
0.000326236
0.000292224
0.000286761
0.00026532
0.000203272
0.000112374
0.000394963
0.000280475
0.000229464
0.000192241
0.000173271
0.000162997
0.000159944
0.000164138
0.000168489
0.000180996
0.000181227
0.000181264
0.000177851
0.00017024
0.000159962
0.000154534
0.000154337
0.000158178
0.000163416
0.000168476
0.000172843
0.000176499
0.00017981
0.000182668
0.000185114
0.000187232
0.000189059
0.000190474
0.000191281
0.000191641
0.000191816
0.00019199
0.000192216
0.000192497
0.000192848
0.000193201
0.000193589
0.000194033
0.000194812
0.000195707
0.000197122
0.000198628
0.000200756
0.000203339
0.00020771
0.000212302
0.000215437
0.000223529
0.000257274
0.000315034
0.000380367
0.000495195
0.000804914
0.00132382
0.0021047
0.00294735
0.00350922
0.00473897
0.00459143
0.00394393
0.00137053
0.00323323
0.00442666
0.0031355
0.0024219
0.00202476
0.00169993
0.00152143
0.00143081
0.00137566
0.00132837
0.00127242
0.00121654
0.00112866
0.00104331
0.000888813
0.000609751
0.000413589
0.000408084
0.000422916
0.000381823
0.000364611
0.000341287
0.000284806
0.00023865
0.000241882
0.000307073
0.000401651
0.000446484
0.000396582
0.000310332
0.000315994
0.00034465
0.000321544
0.000221162
0.000106627
0.000509777
0.000349903
0.00029435
0.000248971
0.00022736
0.000217277
0.000215334
0.000219353
0.000212408
0.000209178
0.00020282
0.000195852
0.000187159
0.000175132
0.000162191
0.000155462
0.000155864
0.000160921
0.000168234
0.000175691
0.000182271
0.000188118
0.000192934
0.000196697
0.000199629
0.000201975
0.000203838
0.000205157
0.000205741
0.000205726
0.00020547
0.000205267
0.000205174
0.000205185
0.000205288
0.000205359
0.000205402
0.000205463
0.0002057
0.000206051
0.000206878
0.000208246
0.000210342
0.000214608
0.000222576
0.00024151
0.000266183
0.000301936
0.00036045
0.000472498
0.000697212
0.00109491
0.00206351
0.00292569
0.00348058
0.00440863
0.0053932
0.00631155
0.00403163
0.00287382
0.00131319
0.00228817
0.002418
0.00171041
0.00181632
0.00144637
0.00119274
0.00109204
0.00105202
0.00105316
0.00106218
0.00108838
0.00111061
0.00109488
0.0010308
0.000882098
0.000706685
0.00067711
0.000724561
0.000695141
0.000668597
0.000664417
0.000634355
0.000570144
0.000546715
0.000549958
0.000548735
0.000525888
0.000443362
0.000350454
0.000276355
0.000288557
0.000344578
0.000322627
0.000219628
0.000105987
0.00064152
0.000381789
0.000335143
0.000301932
0.000272804
0.000250894
0.00024287
0.000245205
0.000238941
0.000225134
0.000217099
0.000206168
0.000195717
0.000179386
0.000164399
0.000156054
0.000156096
0.000161504
0.000169551
0.000177865
0.00018536
0.000192683
0.000198451
0.000202849
0.000206209
0.000208873
0.000210947
0.000212366
0.000212896
0.000212642
0.000212118
0.000211686
0.000211394
0.000211257
0.000211234
0.000211145
0.000210991
0.00021085
0.000210755
0.000210833
0.000211026
0.000212263
0.000214185
0.000220214
0.000233509
0.000267256
0.000328233
0.000398065
0.000462542
0.000630037
0.000956747
0.00180063
0.00401958
0.006142
0.00624017
0.00784813
0.00886568
0.0092628
0.00251283
0.00165056
0.00154452
0.00200182
0.00219214
0.00168152
0.00174097
0.00123701
0.00110538
0.000967654
0.000852341
0.000825925
0.000844551
0.00090874
0.000957062
0.000984932
0.000982001
0.000980243
0.00106163
0.00123376
0.00125339
0.00126271
0.0012939
0.00126021
0.00117534
0.00105754
0.00095033
0.000847108
0.000725695
0.000585925
0.000454258
0.000363595
0.000279055
0.000256741
0.000309408
0.00029404
0.00020753
0.000105773
0.000794086
0.000388844
0.000345751
0.000328425
0.000312996
0.000292718
0.000270868
0.000266958
0.000257694
0.000234649
0.000226381
0.00021085
0.000198723
0.000179183
0.000157802
0.000143712
0.000143138
0.000150361
0.000161355
0.000173242
0.000184139
0.000192784
0.000199124
0.000203966
0.000207643
0.000210513
0.000212722
0.000214193
0.000214689
0.000214292
0.000213607
0.000213018
0.000212578
0.000212322
0.000212195
0.000211973
0.000211633
0.000211252
0.000210787
0.000210454
0.000209856
0.000210848
0.000212433
0.000220018
0.000235868
0.000276183
0.000362908
0.000477173
0.000574786
0.000711882
0.0010259
0.0023357
0.00579091
0.00921093
0.00927227
0.00963965
0.00948142
0.0072912
0.00132765
0.00121494
0.00206924
0.00198296
0.00222339
0.00200351
0.00195596
0.00153075
0.00130764
0.00101191
0.000868769
0.000830403
0.000844283
0.000910711
0.000990046
0.00111027
0.00132164
0.00176425
0.00231074
0.00248195
0.00241135
0.00229385
0.0021881
0.00206029
0.00187914
0.00175225
0.00159115
0.00137672
0.00113757
0.000941391
0.00074789
0.000561395
0.00043325
0.000317439
0.000263377
0.000240098
0.000182383
0.000102954
0.000625515
0.000355956
0.000336777
0.000337303
0.000329723
0.000314007
0.000286639
0.000278929
0.000267503
0.000238464
0.000229989
0.000211124
0.000194133
0.00016482
0.000140842
0.000126151
0.00012576
0.00013314
0.000143355
0.000154041
0.000164074
0.000173476
0.000181397
0.000187659
0.000192334
0.000195834
0.000198363
0.000199891
0.000200059
0.000198919
0.000197334
0.000195831
0.000194481
0.000193469
0.000192703
0.000191678
0.000190406
0.000189095
0.000187411
0.000186317
0.000184697
0.000185177
0.000186188
0.000195445
0.000220069
0.000275045
0.000377698
0.000537516
0.000710409
0.00087953
0.00111831
0.00220511
0.00580562
0.00888338
0.00858935
0.00818393
0.00615475
0.00235089
0.00113977
0.00112782
0.00264836
0.00227566
0.0024205
0.00226204
0.00215199
0.00189355
0.001767
0.00147965
0.00130182
0.00122444
0.00121959
0.00139861
0.00180275
0.00241971
0.00304038
0.00329509
0.00300286
0.00265086
0.00241032
0.00221664
0.00209246
0.00203596
0.00199742
0.00191391
0.0017938
0.00166182
0.00150889
0.00130892
0.00114911
0.000963299
0.000879938
0.000863592
0.000884364
0.000569506
0.000300095
0.000105158
0.000419873
0.000324779
0.000264951
0.000291484
0.000304031
0.000307999
0.000279135
0.000268699
0.000261933
0.000232074
0.000225592
0.000198796
0.000179191
0.000145401
0.000115906
9.7476e-05
9.73347e-05
0.000107067
0.000120608
0.000133533
0.000144443
0.000153569
0.000160644
0.000166004
0.000169951
0.000172799
0.000174665
0.00017531
0.000174433
0.000172172
0.000169547
0.000167203
0.00016522
0.000163162
0.000160826
0.000158461
0.000156015
0.000153762
0.000150992
0.000148772
0.000145907
0.000145467
0.00014596
0.00015404
0.000175039
0.000232936
0.000369444
0.000553795
0.000760275
0.000954653
0.00122491
0.00191845
0.00408884
0.00712955
0.00697617
0.00609767
0.00488057
0.00366862
0.00128636
0.00127789
0.00279913
0.00245675
0.00264038
0.002651
0.00248939
0.00229368
0.00218288
0.00213496
0.00212407
0.00219421
0.00234867
0.00258314
0.00273354
0.00279504
0.00275024
0.00242439
0.00214947
0.00204669
0.00203028
0.00210802
0.0021492
0.00217426
0.00218194
0.00218088
0.00209948
0.0019617
0.00178446
0.00156184
0.00133512
0.00110904
0.000943561
0.000856243
0.000815976
0.00070941
0.000385766
7.34367e-05
0.000321121
0.000332073
0.000228499
0.000222578
0.000227225
0.000234883
0.000234741
0.000225568
0.00022903
0.00021902
0.000215877
0.000185458
0.000157667
0.000114275
8.4765e-05
6.99864e-05
6.87313e-05
7.34189e-05
8.06045e-05
8.81249e-05
9.54686e-05
0.000102338
0.00010891
0.000114235
0.000118114
0.000120778
0.000122466
0.000123234
0.000122618
0.000120578
0.00011822
0.00011603
0.000114121
0.000112459
0.000110914
0.000109343
0.000107727
0.000106433
0.00010503
0.00010437
0.000102699
0.000103463
0.000104225
0.000110405
0.000123323
0.000152329
0.000237726
0.00038783
0.000575026
0.000871893
0.00151196
0.00287363
0.0045091
0.00695763
0.00722248
0.00698701
0.00707596
0.00667249
0.00121164
0.00117894
0.00260593
0.00237747
0.00280726
0.00298331
0.00308009
0.00307912
0.00293567
0.0027534
0.00264046
0.00260418
0.00261529
0.00266382
0.00267878
0.00263369
0.00246079
0.00230593
0.00215418
0.00205158
0.00200085
0.00186761
0.00156579
0.00141806
0.00135936
0.00135204
0.00146315
0.00160735
0.00180133
0.00204152
0.00219486
0.00203243
0.00172376
0.00128354
0.00094268
0.000771824
0.000546416
0.000123756
0.000303193
0.000328172
0.000205384
0.000185101
0.000164192
0.00015612
0.000156173
0.00015796
0.000175624
0.000187971
0.000188591
0.000162386
0.000130337
9.2262e-05
6.75677e-05
5.79635e-05
5.66708e-05
5.90353e-05
6.30857e-05
6.73192e-05
7.22375e-05
7.73923e-05
8.09038e-05
8.36542e-05
8.56586e-05
8.7091e-05
8.81714e-05
8.88782e-05
8.87662e-05
8.76211e-05
8.6275e-05
8.51686e-05
8.43961e-05
8.36643e-05
8.28204e-05
8.21086e-05
8.13864e-05
8.09159e-05
8.02748e-05
7.98072e-05
7.86263e-05
7.81682e-05
7.82649e-05
8.07342e-05
8.62551e-05
9.73383e-05
0.000122536
0.000173846
0.0002917
0.000751509
0.00200775
0.00460565
0.00592018
0.00620264
0.00662051
0.00731135
0.00756649
0.00670463
0.00179508
0.00170235
0.00229509
0.00201657
0.00224141
0.00234274
0.00294067
0.00321013
0.00335734
0.00337237
0.00326775
0.00314101
0.00302482
0.00293438
0.00282336
0.00267873
0.00243698
0.00218435
0.00193242
0.00160697
0.00137307
0.00104661
0.000902805
0.000861118
0.000805739
0.000739104
0.000730848
0.000761926
0.000822921
0.000964543
0.00106447
0.00102287
0.000886827
0.000655207
0.000473204
0.000352348
0.000263348
0.000117546
0.000329283
0.000340863