/*--------------------------------*- C++ -*----------------------------------*\
| =========                 |                                                 |
| \\      /  F ield         | OpenFOAM: The Open Source CFD Toolbox           |
|  \\    /   O peration     | Version:  2.3.0                                 |
|   \\  /    A nd           | Web:      www.OpenFOAM.org                      |
|    \\/     M anipulation  |                                                 |
\*---------------------------------------------------------------------------*/
FoamFile
{
    version     2.0;
    format      ascii;
    class       volScalarField;
    location    "43";
    object      nut.water;
}
// * * * * * * * * * * * * * * * * * * * * * * * * * * * * * * * * * * * * * //

dimensions      [0 2 -1 0 0 0 0];

internalField   nonuniform List<scalar> 
6144
(
1.37441e-05
1.1936e-05
1.00431e-05
8.9996e-06
7.64831e-06
6.73619e-06
6.36046e-06
6.1065e-06
5.84362e-06
6.31851e-06
6.99623e-06
7.52821e-06
7.76331e-06
7.82539e-06
7.68268e-06
7.54348e-06
7.38503e-06
7.28397e-06
7.17837e-06
7.07634e-06
7.04051e-06
7.02847e-06
7.03333e-06
7.0465e-06
7.06567e-06
7.08999e-06
7.11938e-06
7.16383e-06
7.2195e-06
7.25669e-06
7.27933e-06
7.29733e-06
7.31584e-06
7.3333e-06
7.35102e-06
7.36968e-06
7.40407e-06
7.44213e-06
7.51586e-06
7.57562e-06
7.6572e-06
7.7052e-06
7.72376e-06
7.69679e-06
7.49415e-06
7.17468e-06
6.80896e-06
6.99376e-06
8.33018e-06
1.06086e-05
1.36454e-05
1.52116e-05
1.96895e-05
2.54479e-05
3.31949e-05
3.58546e-05
4.11542e-05
5.97942e-05
9.80908e-05
0.000116219
0.000190517
0.000148746
0.000125196
0.000107997
9.5736e-05
8.81218e-05
8.31089e-05
7.90658e-05
7.53724e-05
7.18266e-05
6.78212e-05
6.37544e-05
5.86854e-05
5.33321e-05
4.66364e-05
3.50826e-05
2.19442e-05
1.53823e-05
1.50181e-05
1.58316e-05
1.65422e-05
1.70423e-05
1.71419e-05
1.67433e-05
1.52445e-05
1.31527e-05
1.32324e-05
1.62092e-05
1.92042e-05
2.23368e-05
2.3125e-05
2.29559e-05
2.24019e-05
2.16979e-05
2.01144e-05
1.56659e-05
1.64296e-05
1.41611e-05
1.18992e-05
1.11194e-05
9.72739e-06
9.1552e-06
9.06985e-06
9.00721e-06
8.78254e-06
9.41666e-06
1.00092e-05
1.05121e-05
1.07786e-05
1.0798e-05
1.05829e-05
1.0435e-05
1.03103e-05
1.02851e-05
1.03029e-05
1.03468e-05
1.04462e-05
1.05453e-05
1.06378e-05
1.07194e-05
1.07904e-05
1.08534e-05
1.09111e-05
1.09795e-05
1.10538e-05
1.11091e-05
1.11549e-05
1.11994e-05
1.12456e-05
1.12918e-05
1.13411e-05
1.139e-05
1.14539e-05
1.15168e-05
1.16166e-05
1.17023e-05
1.18071e-05
1.18925e-05
1.19388e-05
1.19575e-05
1.17807e-05
1.14639e-05
1.11353e-05
1.14189e-05
1.30374e-05
1.60579e-05
2.03629e-05
2.32697e-05
3.12504e-05
4.15871e-05
5.15171e-05
5.51667e-05
5.90201e-05
7.63565e-05
9.79749e-05
0.000119586
0.000190416
0.000139973
0.000108607
8.50511e-05
7.37145e-05
7.04721e-05
6.89709e-05
6.7906e-05
6.65897e-05
6.52481e-05
6.34109e-05
6.15113e-05
5.85803e-05
5.50146e-05
4.9214e-05
3.73914e-05
2.38754e-05
1.98879e-05
2.20962e-05
2.42084e-05
2.45079e-05
2.35355e-05
2.14609e-05
1.97193e-05
1.7225e-05
1.56775e-05
1.67816e-05
2.08948e-05
2.53128e-05
2.7687e-05
2.69429e-05
2.45865e-05
2.29891e-05
2.14098e-05
2.01567e-05
1.52175e-05
1.71112e-05
1.50194e-05
1.34863e-05
1.2976e-05
1.17474e-05
1.12351e-05
1.13119e-05
1.13563e-05
1.09218e-05
1.08826e-05
1.11663e-05
1.13552e-05
1.1377e-05
1.12297e-05
1.10277e-05
1.09742e-05
1.10172e-05
1.11899e-05
1.14471e-05
1.17342e-05
1.19785e-05
1.21773e-05
1.23444e-05
1.24802e-05
1.25904e-05
1.26811e-05
1.27576e-05
1.28214e-05
1.28711e-05
1.29117e-05
1.29498e-05
1.29892e-05
1.30308e-05
1.30736e-05
1.31198e-05
1.31625e-05
1.32081e-05
1.32428e-05
1.32926e-05
1.33299e-05
1.34015e-05
1.34699e-05
1.35667e-05
1.36833e-05
1.37512e-05
1.38766e-05
1.3819e-05
1.45279e-05
1.66293e-05
2.11711e-05
2.73764e-05
3.24792e-05
4.10487e-05
5.25146e-05
6.67925e-05
6.94342e-05
6.8062e-05
8.25442e-05
0.000103608
0.000119087
0.000193352
0.000129845
8.1986e-05
6.1953e-05
6.05726e-05
6.07574e-05
6.03017e-05
5.96006e-05
5.90827e-05
5.88809e-05
5.83357e-05
5.73765e-05
5.56604e-05
5.29908e-05
4.85037e-05
3.51697e-05
2.63063e-05
2.78556e-05
3.04748e-05
3.18989e-05
3.11075e-05
2.93224e-05
2.68324e-05
2.33252e-05
1.99784e-05
1.95117e-05
2.27039e-05
2.73505e-05
2.95772e-05
3.09932e-05
2.77831e-05
2.44091e-05
2.49398e-05
2.38422e-05
2.10698e-05
1.48245e-05
1.76155e-05
1.58284e-05
1.47933e-05
1.43371e-05
1.29412e-05
1.25683e-05
1.25488e-05
1.27154e-05
1.22543e-05
1.17134e-05
1.17319e-05
1.17794e-05
1.16523e-05
1.14233e-05
1.12165e-05
1.11989e-05
1.13405e-05
1.16009e-05
1.19072e-05
1.22055e-05
1.24625e-05
1.26876e-05
1.28776e-05
1.30344e-05
1.31641e-05
1.32741e-05
1.33706e-05
1.34532e-05
1.35184e-05
1.35699e-05
1.36162e-05
1.36642e-05
1.37151e-05
1.37684e-05
1.38246e-05
1.3879e-05
1.39346e-05
1.39804e-05
1.40415e-05
1.40811e-05
1.41649e-05
1.42402e-05
1.43624e-05
1.45032e-05
1.46182e-05
1.48841e-05
1.52622e-05
1.70777e-05
2.15437e-05
2.93233e-05
3.90437e-05
4.88838e-05
6.36197e-05
8.05465e-05
8.82923e-05
8.93142e-05
8.5162e-05
9.39045e-05
0.000105856
0.000114632
0.000194717
0.0001129
6.54834e-05
5.29082e-05
5.55832e-05
5.4167e-05
5.13388e-05
4.89499e-05
4.8966e-05
4.95951e-05
5.08311e-05
5.22855e-05
5.33761e-05
5.25201e-05
4.38834e-05
3.50978e-05
3.49855e-05
3.92265e-05
4.10269e-05
4.06547e-05
3.84471e-05
3.57815e-05
3.17283e-05
2.76164e-05
2.55366e-05
2.77473e-05
3.11198e-05
3.21543e-05
3.28291e-05
3.3716e-05
2.98448e-05
2.73728e-05
2.78448e-05
2.6522e-05
2.21916e-05
1.43936e-05
1.78136e-05
1.60442e-05
1.54562e-05
1.54602e-05
1.38536e-05
1.33294e-05
1.27746e-05
1.28661e-05
1.27035e-05
1.22004e-05
1.21095e-05
1.19735e-05
1.1777e-05
1.14525e-05
1.12196e-05
1.12046e-05
1.13913e-05
1.17077e-05
1.20734e-05
1.24237e-05
1.27394e-05
1.3033e-05
1.32677e-05
1.3452e-05
1.3599e-05
1.37224e-05
1.38286e-05
1.39185e-05
1.39875e-05
1.40377e-05
1.40801e-05
1.41244e-05
1.41726e-05
1.42249e-05
1.42821e-05
1.43367e-05
1.43893e-05
1.44331e-05
1.44863e-05
1.45242e-05
1.45977e-05
1.46765e-05
1.47875e-05
1.49355e-05
1.5087e-05
1.56394e-05
1.7059e-05
2.09572e-05
2.87618e-05
3.84924e-05
4.93117e-05
6.28961e-05
8.76011e-05
0.000109443
0.000111763
0.000115047
0.000122572
0.000118163
0.000102872
0.000104914
0.000186866
8.94055e-05
6.13097e-05
5.64746e-05
5.59988e-05
4.89884e-05
4.36937e-05
4.08212e-05
4.03905e-05
4.14759e-05
4.51622e-05
4.97086e-05
5.07153e-05
4.80138e-05
4.40334e-05
4.2929e-05
4.98879e-05
5.36389e-05
5.46954e-05
5.40063e-05
5.04433e-05
4.38671e-05
3.83345e-05
3.51948e-05
3.50164e-05
3.62647e-05
3.63731e-05
3.58984e-05
3.72929e-05
3.84866e-05
3.40702e-05
2.98104e-05
2.83538e-05
2.81204e-05
2.29257e-05
1.40545e-05
1.78307e-05
1.59583e-05
1.56259e-05
1.59728e-05
1.50845e-05
1.49154e-05
1.34205e-05
1.31373e-05
1.3107e-05
1.23972e-05
1.22533e-05
1.20247e-05
1.18484e-05
1.14652e-05
1.10405e-05
1.0927e-05
1.11232e-05
1.15313e-05
1.20297e-05
1.25183e-05
1.29416e-05
1.32863e-05
1.35485e-05
1.37527e-05
1.39152e-05
1.40492e-05
1.41629e-05
1.42573e-05
1.43282e-05
1.43773e-05
1.44199e-05
1.44667e-05
1.45194e-05
1.45772e-05
1.46391e-05
1.47003e-05
1.47598e-05
1.48112e-05
1.48647e-05
1.49055e-05
1.49549e-05
1.50253e-05
1.50833e-05
1.51872e-05
1.53109e-05
1.63985e-05
1.96035e-05
2.55783e-05
3.37621e-05
4.30527e-05
5.37077e-05
6.94523e-05
0.000101904
0.000126205
0.000129538
0.000130125
0.000135146
0.000127505
0.000100712
0.000102908
0.000172196
8.14767e-05
6.65004e-05
6.36059e-05
5.85061e-05
5.04891e-05
4.48813e-05
4.15774e-05
4.18694e-05
4.49174e-05
4.90053e-05
5.13316e-05
5.19431e-05
5.15753e-05
5.42626e-05
6.70344e-05
7.73017e-05
7.99586e-05
7.47386e-05
6.62913e-05
5.7417e-05
5.05501e-05
4.74534e-05
4.6622e-05
4.65043e-05
4.53173e-05
4.39434e-05
4.38496e-05
4.46613e-05
4.45986e-05
4.10082e-05
3.36767e-05
2.88997e-05
2.70143e-05
2.31061e-05
1.35579e-05
1.54252e-05
1.50672e-05
1.51459e-05
1.60488e-05
1.55219e-05
1.55941e-05
1.42568e-05
1.39076e-05
1.37725e-05
1.26337e-05
1.24264e-05
1.20687e-05
1.17356e-05
1.11243e-05
1.06846e-05
1.05732e-05
1.07908e-05
1.12011e-05
1.16777e-05
1.21614e-05
1.26174e-05
1.30072e-05
1.33208e-05
1.35645e-05
1.37481e-05
1.38967e-05
1.40185e-05
1.41163e-05
1.41829e-05
1.42198e-05
1.42442e-05
1.42717e-05
1.43045e-05
1.43463e-05
1.43965e-05
1.44399e-05
1.44724e-05
1.44973e-05
1.45082e-05
1.45319e-05
1.45459e-05
1.4619e-05
1.4679e-05
1.48985e-05
1.54565e-05
1.74412e-05
2.21519e-05
2.98203e-05
3.80464e-05
4.60491e-05
5.5568e-05
7.23107e-05
0.000107717
0.000135534
0.000137699
0.000139264
0.00013506
0.000128381
0.000106397
0.000110306
0.000159526
8.40823e-05
7.70503e-05
7.70437e-05
7.19396e-05
6.5805e-05
6.05121e-05
5.57122e-05
5.35736e-05
5.38496e-05
5.58469e-05
5.88465e-05
6.4045e-05
7.65573e-05
8.84581e-05
9.40162e-05
9.17937e-05
8.66073e-05
7.6369e-05
6.66291e-05
6.17193e-05
5.99654e-05
6.07449e-05
6.08912e-05
5.99805e-05
5.72918e-05
5.45397e-05
5.42959e-05
5.38354e-05
5.20371e-05
4.87332e-05
4.22499e-05
3.54201e-05
3.07331e-05
2.46197e-05
1.27899e-05
1.36519e-05
1.33182e-05
1.29033e-05
1.42046e-05
1.46516e-05
1.52377e-05
1.42478e-05
1.39514e-05
1.41923e-05
1.28413e-05
1.26421e-05
1.21353e-05
1.18592e-05
1.11779e-05
1.05434e-05
1.02727e-05
1.05269e-05
1.10576e-05
1.16654e-05
1.22406e-05
1.27443e-05
1.31701e-05
1.35133e-05
1.37874e-05
1.4005e-05
1.41846e-05
1.43353e-05
1.44557e-05
1.45338e-05
1.4574e-05
1.46015e-05
1.46353e-05
1.46778e-05
1.47234e-05
1.47684e-05
1.48076e-05
1.48377e-05
1.48656e-05
1.48778e-05
1.49094e-05
1.49328e-05
1.50289e-05
1.51449e-05
1.5485e-05
1.63026e-05
1.8851e-05
2.54207e-05
3.40746e-05
4.20347e-05
4.86261e-05
5.57581e-05
6.9409e-05
9.7474e-05
0.000133172
0.000139806
0.000139768
0.000134165
0.000129062
0.000113467
0.000118141
0.000158908
9.10106e-05
8.70645e-05
9.08693e-05
9.00355e-05
8.71275e-05
8.43245e-05
8.2281e-05
8.11764e-05
8.14645e-05
8.43391e-05
8.94114e-05
9.45816e-05
9.79876e-05
9.95997e-05
9.90967e-05
9.17712e-05
8.35997e-05
7.83434e-05
7.71854e-05
7.84917e-05
8.00915e-05
8.02303e-05
7.81839e-05
7.53938e-05
7.15812e-05
6.92094e-05
6.81229e-05
6.5737e-05
6.16104e-05
5.62504e-05
4.91466e-05
4.21814e-05
3.69863e-05
3.18842e-05
1.92776e-05
1.27711e-05
1.25485e-05
1.15955e-05
1.21437e-05
1.20921e-05
1.25396e-05
1.26868e-05
1.22004e-05
1.28281e-05
1.22497e-05
1.21196e-05
1.14687e-05
1.09244e-05
9.91165e-06
9.03433e-06
8.62891e-06
8.87821e-06
9.46268e-06
1.00902e-05
1.0638e-05
1.10831e-05
1.14577e-05
1.17749e-05
1.2035e-05
1.22457e-05
1.24124e-05
1.25436e-05
1.26424e-05
1.26961e-05
1.2709e-05
1.27092e-05
1.2714e-05
1.27272e-05
1.27415e-05
1.27507e-05
1.27564e-05
1.27588e-05
1.2767e-05
1.27702e-05
1.28083e-05
1.28508e-05
1.29725e-05
1.31368e-05
1.35193e-05
1.43313e-05
1.64328e-05
2.18885e-05
2.95687e-05
3.64759e-05
4.1846e-05
5.03303e-05
6.86316e-05
8.32e-05
0.000114605
0.00012352
0.000122743
0.00012076
0.000114656
0.000109123
0.000113162
0.000155958
8.56361e-05
7.97938e-05
8.56977e-05
8.71942e-05
8.828e-05
8.67137e-05
8.54841e-05
8.47044e-05
8.47672e-05
8.59527e-05
8.73904e-05
8.83875e-05
8.89869e-05
8.72411e-05
8.12682e-05
7.63517e-05
7.29428e-05
7.09737e-05
6.97356e-05
6.79139e-05
6.29239e-05
5.90337e-05
5.81033e-05
6.00921e-05
6.31514e-05
6.57956e-05
6.63456e-05
6.44501e-05
6.04841e-05
5.63338e-05
5.00485e-05
4.31091e-05
3.73545e-05
3.22722e-05
1.4663e-05
1.24386e-05
1.22389e-05
1.10018e-05
1.14194e-05
1.09307e-05
1.09217e-05
1.08646e-05
1.07165e-05
1.11223e-05
1.12703e-05
1.12998e-05
1.0656e-05
9.902e-06
8.78964e-06
7.8151e-06
7.30789e-06
7.44005e-06
7.94741e-06
8.52849e-06
9.01596e-06
9.40296e-06
9.73106e-06
9.99421e-06
1.02118e-05
1.03896e-05
1.05298e-05
1.06384e-05
1.07212e-05
1.07758e-05
1.08024e-05
1.08186e-05
1.08372e-05
1.08628e-05
1.08876e-05
1.09042e-05
1.09194e-05
1.09387e-05
1.09661e-05
1.09993e-05
1.10533e-05
1.11152e-05
1.12309e-05
1.1395e-05
1.16681e-05
1.22048e-05
1.35638e-05
1.77451e-05
2.38041e-05
2.93146e-05
3.63652e-05
5.23856e-05
8.50334e-05
9.07797e-05
9.48728e-05
0.000106699
0.000107841
0.000107525
0.000104717
0.000110125
0.000113112
0.00016583
8.17847e-05
6.9962e-05
7.67304e-05
8.12826e-05
8.42811e-05
8.5591e-05
8.52849e-05
8.41663e-05
8.31928e-05
8.27991e-05
8.24019e-05
8.18664e-05
7.99052e-05
7.50925e-05
7.13076e-05
6.90071e-05
6.64696e-05
6.41347e-05
5.8215e-05
5.05995e-05
4.6965e-05
4.73079e-05
4.82272e-05
4.93841e-05
5.10611e-05
5.27916e-05
5.48986e-05
5.4965e-05
5.34432e-05
5.12243e-05
4.70332e-05
4.21372e-05
3.67526e-05
3.14877e-05
1.58304e-05
1.27252e-05
1.21913e-05
1.07773e-05
1.11748e-05
1.02896e-05
1.00917e-05
9.90797e-06
8.9172e-06
9.31524e-06
9.86827e-06
1.0027e-05
9.47566e-06
8.73464e-06
7.68396e-06
6.88812e-06
6.37909e-06
6.38223e-06
6.72979e-06
7.21203e-06
7.6158e-06
7.9315e-06
8.19795e-06
8.41696e-06
8.60046e-06
8.7514e-06
8.87606e-06
8.97396e-06
9.04878e-06
9.10532e-06
9.13748e-06
9.16484e-06
9.1943e-06
9.23116e-06
9.27005e-06
9.30185e-06
9.33433e-06
9.37472e-06
9.42551e-06
9.48952e-06
9.56056e-06
9.6346e-06
9.71847e-06
9.83837e-06
9.96573e-06
1.02789e-05
1.11127e-05
1.46106e-05
1.99594e-05
2.56466e-05
3.33862e-05
4.75879e-05
7.2466e-05
8.26202e-05
8.32545e-05
8.86056e-05
9.79832e-05
9.94613e-05
0.000104459
0.000113591
0.000116012
0.000184016
8.23192e-05
5.768e-05
6.20984e-05
6.53428e-05
7.07425e-05
7.60295e-05
7.81219e-05
7.9075e-05
7.8135e-05
7.69914e-05
7.50566e-05
7.25361e-05
6.82038e-05
6.4769e-05
6.30299e-05
6.07393e-05
5.78622e-05
5.22947e-05
4.50156e-05
4.15815e-05
4.32788e-05
4.57023e-05
4.66359e-05
4.6705e-05
4.75117e-05
4.8649e-05
5.02532e-05
5.08776e-05
5.01578e-05
4.84304e-05
4.5126e-05
4.14788e-05
3.70973e-05
3.10746e-05
1.58248e-05
1.32877e-05
1.29422e-05
1.09626e-05
1.11674e-05
9.98945e-06
9.70255e-06
9.54278e-06
7.85913e-06
8.0914e-06
8.8605e-06
9.13393e-06
8.58815e-06
7.6449e-06
6.64935e-06
5.97771e-06
5.56891e-06
5.61334e-06
5.90684e-06
6.30657e-06
6.63451e-06
6.88701e-06
7.10322e-06
7.29123e-06
7.45306e-06
7.59249e-06
7.71543e-06
7.82191e-06
7.9039e-06
7.96338e-06
8.00838e-06
8.04876e-06
8.09353e-06
8.14904e-06
8.20232e-06
8.24792e-06
8.29267e-06
8.34078e-06
8.39711e-06
8.46293e-06
8.51884e-06
8.56203e-06
8.60056e-06
8.67421e-06
8.73281e-06
8.94018e-06
9.36372e-06
1.13765e-05
1.53317e-05
2.08569e-05
2.89173e-05
3.99815e-05
5.47907e-05
6.6134e-05
6.76519e-05
7.21844e-05
8.15124e-05
8.5268e-05
9.3859e-05
0.000136383
0.000139193
0.000214163
0.00010261
5.33142e-05
5.56628e-05
5.26921e-05
5.53237e-05
6.02888e-05
6.60507e-05
6.85415e-05
6.93349e-05
6.943e-05
6.75219e-05
6.50143e-05
6.14064e-05
5.81124e-05
5.6149e-05
5.41954e-05
5.12409e-05
4.56546e-05
4.12133e-05
4.29953e-05
4.68188e-05
4.76917e-05
4.71201e-05
4.55156e-05
4.50749e-05
4.57726e-05
4.68002e-05
4.7701e-05
4.70947e-05
4.55597e-05
4.27284e-05
3.95753e-05
3.55931e-05
2.9598e-05
1.59756e-05
1.45053e-05
1.47945e-05
1.16636e-05
1.12423e-05
9.91857e-06
9.22804e-06
8.71401e-06
7.28571e-06
7.21111e-06
7.97759e-06
8.30456e-06
7.82537e-06
6.81604e-06
5.87646e-06
5.40199e-06
5.161e-06
5.17246e-06
5.40966e-06
5.68214e-06
5.91504e-06
6.10312e-06
6.25471e-06
6.38741e-06
6.517e-06
6.63945e-06
6.75463e-06
6.86116e-06
6.95074e-06
7.01593e-06
7.05974e-06
7.1005e-06
7.1497e-06
7.21131e-06
7.27373e-06
7.32589e-06
7.37819e-06
7.4336e-06
7.49396e-06
7.56354e-06
7.61213e-06
7.64352e-06
7.6555e-06
7.69968e-06
7.71939e-06
7.84113e-06
8.01816e-06
8.95583e-06
1.09529e-05
1.45996e-05
2.18231e-05
3.1479e-05
4.21424e-05
4.84133e-05
4.84963e-05
5.76199e-05
6.53898e-05
7.63949e-05
0.000110751
0.000158225
0.000163675
0.000222326
0.000129923
6.82757e-05
6.12308e-05
5.84485e-05
4.77753e-05
4.43266e-05
5.01093e-05
5.59322e-05
5.84474e-05
5.96161e-05
5.92815e-05
5.82318e-05
5.66711e-05
5.51985e-05
5.37289e-05
5.19422e-05
4.95777e-05
4.68612e-05
4.74645e-05
4.91843e-05
4.93108e-05
4.81152e-05
4.58531e-05
4.35397e-05
4.21516e-05
4.18816e-05
4.25163e-05
4.33432e-05
4.30762e-05
4.18251e-05
3.94588e-05
3.68374e-05
3.32306e-05
2.72749e-05
1.59478e-05
1.47853e-05
1.4499e-05
1.1503e-05
1.1354e-05
1.09357e-05
9.27396e-06
8.44418e-06
7.08219e-06
6.8687e-06
7.27616e-06
7.73016e-06
7.29027e-06
6.21653e-06
5.4064e-06
5.03662e-06
4.78325e-06
4.7846e-06
4.98615e-06
5.21721e-06
5.40251e-06
5.55172e-06
5.68066e-06
5.78966e-06
5.88227e-06
5.96655e-06
6.05072e-06
6.13491e-06
6.2102e-06
6.26094e-06
6.2911e-06
6.31447e-06
6.35041e-06
6.40481e-06
6.47016e-06
6.52998e-06
6.58661e-06
6.64714e-06
6.71014e-06
6.7828e-06
6.83506e-06
6.86331e-06
6.8621e-06
6.88233e-06
6.86685e-06
6.93861e-06
7.02848e-06
7.55767e-06
8.85442e-06
1.19797e-05
1.79961e-05
2.49185e-05
3.06106e-05
3.4277e-05
3.68834e-05
4.88262e-05
5.72173e-05
6.80127e-05
9.19849e-05
0.000146888
0.000158281
0.000212073
0.000139061
9.21339e-05
7.24047e-05
6.65435e-05
5.61912e-05
4.70312e-05
3.90003e-05
3.73064e-05
4.10348e-05
4.58329e-05
4.8621e-05
5.01035e-05
5.0249e-05
5.05264e-05
5.06806e-05
5.12187e-05
5.11407e-05
5.08073e-05
5.07539e-05
5.00672e-05
4.8404e-05
4.57244e-05
4.27761e-05
4.02026e-05
3.87234e-05
3.83441e-05
3.87502e-05
3.93534e-05
3.9212e-05
3.81556e-05
3.61271e-05
3.38459e-05
3.00255e-05
2.38452e-05
1.57739e-05
1.65953e-05
1.9645e-05
1.6377e-05
1.45893e-05
1.54822e-05
1.25056e-05
9.64701e-06
6.15908e-06
5.99019e-06
6.20538e-06
6.41276e-06
6.117e-06
5.37869e-06
4.8205e-06
4.51382e-06
4.32064e-06
4.33335e-06
4.50398e-06
4.6861e-06
4.82919e-06
4.94565e-06
5.04712e-06
5.13704e-06
5.22076e-06
5.30451e-06
5.39337e-06
5.48507e-06
5.56783e-06
5.625e-06
5.6574e-06
5.68942e-06
5.73564e-06
5.79932e-06
5.87026e-06
5.92953e-06
5.98301e-06
6.04005e-06
6.09876e-06
6.16608e-06
6.21559e-06
6.24349e-06
6.24092e-06
6.24668e-06
6.2123e-06
6.24498e-06
6.28789e-06
6.64635e-06
7.47082e-06
9.55281e-06
1.37724e-05
1.90749e-05
2.32412e-05
2.65067e-05
3.01623e-05
4.0599e-05
4.7645e-05
6.80945e-05
9.85026e-05
0.000132257
0.000145066
0.000196139
0.000141906
0.000108359
7.91153e-05
6.78182e-05
5.7886e-05
4.94649e-05
4.23252e-05
3.68626e-05
3.41753e-05
3.387e-05
3.49456e-05
3.73885e-05
3.98559e-05
4.2189e-05
4.41094e-05
4.55532e-05
4.63475e-05
4.66442e-05
4.6333e-05
4.49188e-05
4.2801e-05
4.03017e-05
3.81793e-05
3.66912e-05
3.57641e-05
3.54343e-05
3.53696e-05
3.55901e-05
3.53098e-05
3.4383e-05
3.25961e-05
3.02282e-05
2.46081e-05
1.80622e-05
1.49792e-05
1.70588e-05
1.71335e-05
1.75066e-05
1.75538e-05
1.75005e-05
1.70067e-05
1.4515e-05
7.2234e-06
5.1261e-06
4.97372e-06
4.95533e-06
4.73899e-06
4.30021e-06
3.9398e-06
3.70856e-06
3.56808e-06
3.57948e-06
3.69992e-06
3.82358e-06
3.92015e-06
3.99875e-06
4.06792e-06
4.13209e-06
4.19472e-06
4.25962e-06
4.32961e-06
4.40307e-06
4.46983e-06
4.51662e-06
4.54115e-06
4.56527e-06
4.60118e-06
4.65215e-06
4.70952e-06
4.7603e-06
4.80532e-06
4.85263e-06
4.89987e-06
4.95311e-06
4.99505e-06
5.0275e-06
5.02856e-06
5.02078e-06
4.95514e-06
4.93095e-06
4.93128e-06
5.144e-06
5.61263e-06
6.61506e-06
8.61755e-06
1.1804e-05
1.48012e-05
1.77791e-05
2.04246e-05
2.8141e-05
3.36386e-05
4.77861e-05
6.18989e-05
0.000116544
0.000130858
0.000178578
0.000128607
0.000103837
8.05232e-05
6.81487e-05
5.87214e-05
5.08839e-05
4.45265e-05
3.94181e-05
3.5652e-05
3.31348e-05
3.18324e-05
3.14002e-05
3.17633e-05
3.26223e-05
3.38038e-05
3.51564e-05
3.64373e-05
3.70694e-05
3.72694e-05
3.67908e-05
3.59765e-05
3.47976e-05
3.36166e-05
3.26292e-05
3.18684e-05
3.15742e-05
3.13178e-05
3.11169e-05
3.0789e-05
2.97966e-05
2.81347e-05
2.41355e-05
1.51909e-05
1.23194e-05
1.28001e-05
1.89743e-05
1.67318e-05
1.29535e-05
1.0959e-05
8.91746e-06
7.79607e-06
7.77271e-06
7.93115e-06
8.53962e-06
1.02716e-05
1.16941e-05
1.2822e-05
1.32122e-05
1.32926e-05
1.30104e-05
1.26824e-05
1.23453e-05
1.21005e-05
1.18405e-05
1.15724e-05
1.13079e-05
1.11345e-05
1.10786e-05
1.11062e-05
1.1198e-05
1.13404e-05
1.15144e-05
1.16797e-05
1.17963e-05
1.18701e-05
1.19229e-05
1.19716e-05
1.20213e-05
1.20695e-05
1.21181e-05
1.21725e-05
1.22537e-05
1.23562e-05
1.25175e-05
1.2675e-05
1.28418e-05
1.29327e-05
1.29878e-05
1.29079e-05
1.26727e-05
1.22524e-05
1.13386e-05
1.05512e-05
1.07658e-05
1.22213e-05
1.44441e-05
1.5788e-05
2.06209e-05
2.48263e-05
3.30411e-05
3.92686e-05
4.94302e-05
6.13239e-05
7.47535e-05
8.91566e-05
0.000126596
0.000106815
0.000103475
9.69997e-05
9.08662e-05
8.61143e-05
8.24064e-05
7.92301e-05
7.58802e-05
7.25998e-05
6.89636e-05
6.50394e-05
6.07729e-05
5.56271e-05
5.05235e-05
4.33595e-05
3.1646e-05
2.03991e-05
1.61606e-05
1.64558e-05
1.74702e-05
1.77764e-05
1.75813e-05
1.68675e-05
1.54387e-05
1.34816e-05
1.36472e-05
1.62397e-05
1.99866e-05
2.39439e-05
2.5108e-05
2.49367e-05
2.42204e-05
2.29626e-05
2.11361e-05
1.6585e-05
6.72391e-05
6.01755e-05
4.55485e-05
3.82668e-05
3.18845e-05
3.00703e-05
3.24287e-05
3.44384e-05
3.55683e-05
3.97674e-05
4.21703e-05
4.28897e-05
4.23675e-05
4.0511e-05
3.85468e-05
3.76274e-05
3.76634e-05
3.83683e-05
3.91053e-05
3.96678e-05
4.01423e-05
4.04446e-05
4.08346e-05
4.12275e-05
4.15811e-05
4.18901e-05
4.21662e-05
4.23664e-05
4.24561e-05
4.24828e-05
4.24642e-05
4.24305e-05
4.24006e-05
4.23731e-05
4.23506e-05
4.2337e-05
4.23464e-05
4.23751e-05
4.24832e-05
4.26199e-05
4.29155e-05
4.31658e-05
4.35267e-05
4.3723e-05
4.39227e-05
4.38428e-05
4.30274e-05
4.15138e-05
4.10601e-05
4.20026e-05
4.12726e-05
4.4617e-05
6.09044e-05
8.19402e-05
0.000113259
0.000148716
0.000217685
0.000250121
0.000412296
0.000406046
1.95662e-05
8.06001e-05
0.000167
0.000151333
0.000141314
0.000131874
0.000124133
0.000115425
0.000106179
9.76683e-05
9.00882e-05
8.3052e-05
7.5889e-05
6.91074e-05
6.28703e-05
5.53813e-05
3.9222e-05
2.81111e-05
3.229e-05
3.64045e-05
3.49951e-05
3.30361e-05
2.99625e-05
2.66095e-05
2.25897e-05
2.07488e-05
2.3597e-05
3.29773e-05
4.78026e-05
4.60268e-05
4.26825e-05
4.24791e-05
4.47925e-05
4.36491e-05
3.11764e-05
1.65308e-05
6.53881e-05
6.08008e-05
5.79066e-05
5.26482e-05
4.94103e-05
4.73592e-05
4.66304e-05
4.67754e-05
4.69301e-05
4.80172e-05
4.73376e-05
4.6109e-05
4.41121e-05
4.14025e-05
3.86687e-05
3.71511e-05
3.72512e-05
3.84286e-05
3.98266e-05
4.1073e-05
4.22589e-05
4.3168e-05
4.40079e-05
4.46711e-05
4.5141e-05
4.54564e-05
4.56734e-05
4.57822e-05
4.57517e-05
4.5636e-05
4.54656e-05
4.53012e-05
4.51615e-05
4.50383e-05
4.49258e-05
4.48154e-05
4.47049e-05
4.46026e-05
4.45231e-05
4.44699e-05
4.45698e-05
4.47022e-05
4.49912e-05
4.55336e-05
4.68406e-05
4.85684e-05
4.93375e-05
4.96145e-05
5.16253e-05
5.37438e-05
5.21683e-05
6.05793e-05
8.03955e-05
0.000106434
0.000141445
0.000168742
0.000241815
0.000266874
0.000256304
0.000218449
1.69595e-05
0.000128489
0.000175939
0.000145596
0.000131404
0.000124397
0.000114553
0.000109368
0.000107139
0.000104428
0.00010034
9.51186e-05
8.94658e-05
8.17633e-05
7.56446e-05
6.68435e-05
5.32252e-05
4.7782e-05
4.89373e-05
4.88884e-05
4.81671e-05
5.03658e-05
5.22794e-05
4.6686e-05
4.12827e-05
4.19339e-05
4.92999e-05
5.44906e-05
5.26953e-05
4.78704e-05
4.17506e-05
4.56808e-05
5.04045e-05
5.08018e-05
3.86265e-05
1.6751e-05
7.26764e-05
6.62139e-05
6.54183e-05
6.02805e-05
5.74442e-05
5.55164e-05
5.46921e-05
5.44214e-05
5.25622e-05
5.07938e-05
4.81085e-05
4.48014e-05
4.15143e-05
3.78922e-05
3.49502e-05
3.36044e-05
3.39191e-05
3.53048e-05
3.72125e-05
3.91068e-05
4.06376e-05
4.19351e-05
4.30775e-05
4.39495e-05
4.45268e-05
4.48648e-05
4.50637e-05
4.51338e-05
4.50503e-05
4.48674e-05
4.46326e-05
4.44154e-05
4.42303e-05
4.40729e-05
4.39301e-05
4.37771e-05
4.36039e-05
4.34405e-05
4.3264e-05
4.31371e-05
4.31164e-05
4.32551e-05
4.36223e-05
4.45322e-05
4.65882e-05
5.0354e-05
5.35691e-05
5.657e-05
5.91517e-05
6.1464e-05
6.99004e-05
9.09506e-05
0.000127131
0.00014945
0.000173788
0.000197464
0.000245398
0.00024691
0.000151897
9.86357e-05
1.73338e-05
0.000107513
0.000149172
0.000120753
0.000123347
0.000111149
0.000103283
0.00010165
9.73704e-05
9.60816e-05
9.42356e-05
9.25766e-05
8.97373e-05
8.58149e-05
7.97954e-05
7.06294e-05
6.46622e-05
6.64695e-05
6.80967e-05
6.87454e-05
7.23116e-05
7.5702e-05
7.66317e-05
7.15075e-05
6.93594e-05
6.76811e-05
6.331e-05
5.80519e-05
4.87874e-05
4.21736e-05
3.86298e-05
4.1891e-05
4.87285e-05
4.88331e-05
3.85869e-05
1.69002e-05
7.66301e-05
6.49033e-05
6.48485e-05
6.51816e-05
6.21913e-05
5.92646e-05
5.75153e-05
5.64912e-05
5.45452e-05
4.98487e-05
4.65895e-05
4.27144e-05
3.97489e-05
3.62441e-05
3.36416e-05
3.24998e-05
3.25829e-05
3.34657e-05
3.47648e-05
3.60432e-05
3.72054e-05
3.85535e-05
3.95924e-05
4.03186e-05
4.08197e-05
4.1196e-05
4.14206e-05
4.15031e-05
4.14248e-05
4.12258e-05
4.09711e-05
4.0738e-05
4.0538e-05
4.0368e-05
4.02118e-05
4.00431e-05
3.98809e-05
3.97233e-05
3.95734e-05
3.94193e-05
3.93357e-05
3.94161e-05
3.97363e-05
4.07308e-05
4.34075e-05
4.95905e-05
5.88486e-05
6.55168e-05
6.82794e-05
7.57028e-05
8.79884e-05
0.000120793
0.000187397
0.000223461
0.000230241
0.000248896
0.000239977
0.000218496
5.73594e-05
3.2268e-05
1.57852e-05
0.000111685
0.000149356
0.000123564
0.000126437
0.000108223
0.000103289
9.72958e-05
8.90444e-05
8.51464e-05
8.43612e-05
8.50554e-05
8.53371e-05
8.58847e-05
8.30473e-05
8.00394e-05
8.7292e-05
9.55933e-05
9.69044e-05
0.000102944
0.000106204
0.000102896
9.75218e-05
8.97596e-05
8.19477e-05
7.37601e-05
6.41236e-05
5.31416e-05
4.41498e-05
3.9926e-05
3.67718e-05
3.75374e-05
4.56692e-05
4.56229e-05
3.67467e-05
1.68931e-05
8.41967e-05
6.35691e-05
6.267e-05
6.33678e-05
6.24037e-05
6.22387e-05
5.81054e-05
5.58125e-05
5.33437e-05
4.73795e-05
4.49482e-05
4.14322e-05
3.88548e-05
3.52927e-05
3.08026e-05
2.79968e-05
2.78273e-05
2.91187e-05
3.12081e-05
3.34793e-05
3.55618e-05
3.71017e-05
3.80268e-05
3.86141e-05
3.90147e-05
3.92924e-05
3.9471e-05
3.95432e-05
3.95016e-05
3.93642e-05
3.91859e-05
3.90256e-05
3.88931e-05
3.87629e-05
3.86196e-05
3.84801e-05
3.8346e-05
3.81986e-05
3.80759e-05
3.78889e-05
3.76646e-05
3.76918e-05
3.7957e-05
3.92236e-05
4.12901e-05
4.67297e-05
5.94571e-05
7.18991e-05
7.86262e-05
8.76838e-05
0.000101483
0.000136047
0.000223379
0.000272231
0.000251658
0.000234241
0.000213787
0.00016183
1.89079e-05
2.12406e-05
1.81997e-05
0.000113573
0.000155652
0.000141201
0.000137667
0.000122182
0.000112143
9.76182e-05
8.85211e-05
8.53906e-05
8.3998e-05
8.60258e-05
8.82957e-05
9.28325e-05
9.9739e-05
0.000118969
0.00013839
0.000145263
0.000141792
0.000132237
0.000124406
0.000117597
0.000109185
0.00010246
9.45753e-05
8.3977e-05
7.2245e-05
6.16292e-05
5.34243e-05
4.56618e-05
3.94363e-05
3.37827e-05
3.85194e-05
3.99447e-05
3.28437e-05
1.64523e-05
7.12509e-05
5.76722e-05
5.7767e-05
6.17736e-05
6.17863e-05
6.00459e-05
5.61851e-05
5.37542e-05
5.09783e-05
4.57218e-05
4.34777e-05
4.06809e-05
3.68261e-05
3.10623e-05
2.69041e-05
2.45762e-05
2.43951e-05
2.54131e-05
2.67638e-05
2.81628e-05
2.95113e-05
3.08707e-05
3.20651e-05
3.30025e-05
3.36619e-05
3.41169e-05
3.44052e-05
3.45297e-05
3.44531e-05
3.41768e-05
3.38219e-05
3.3478e-05
3.31603e-05
3.28775e-05
3.26036e-05
3.22977e-05
3.19711e-05
3.16369e-05
3.12768e-05
3.09821e-05
3.07159e-05
3.0721e-05
3.10156e-05
3.2481e-05
3.66123e-05
4.50225e-05
5.63413e-05
7.28398e-05
8.70812e-05
0.000102292
0.000112475
0.000138063
0.000225113
0.000270608
0.000229578
0.000198877
0.00013889
4.52564e-05
1.22759e-05
1.88576e-05
2.43899e-05
0.000137212
0.000169269
0.000157339
0.00015404
0.000140408
0.000133402
0.000120828
0.000110222
0.000105565
0.000102149
0.000107641
0.000121658
0.000145179
0.000170439
0.000181724
0.000168834
0.000155601
0.000143512
0.000132351
0.000124475
0.000120136
0.000116133
0.000109493
0.000102198
9.49607e-05
8.60058e-05
7.57399e-05
6.89329e-05
5.97217e-05
5.57482e-05
5.42013e-05
5.43554e-05
5.29719e-05
3.95021e-05
1.71761e-05
4.9683e-05
5.15352e-05
4.27686e-05
4.91973e-05
5.22507e-05
5.56201e-05
5.1848e-05
4.89309e-05
4.76282e-05
4.2523e-05
4.09635e-05
3.66177e-05
3.28428e-05
2.71342e-05
2.19365e-05
1.89775e-05
1.87298e-05
2.0041e-05
2.20114e-05
2.38102e-05
2.52833e-05
2.65053e-05
2.73939e-05
2.80262e-05
2.84625e-05
2.87518e-05
2.89112e-05
2.89026e-05
2.86998e-05
2.83082e-05
2.78542e-05
2.74532e-05
2.71302e-05
2.68161e-05
2.64722e-05
2.61366e-05
2.57986e-05
2.55034e-05
2.51654e-05
2.48704e-05
2.45192e-05
2.44474e-05
2.46145e-05
2.56352e-05
2.82266e-05
3.51877e-05
5.23546e-05
7.13611e-05
8.88565e-05
0.000103772
0.000119599
0.000145629
0.000204973
0.000250682
0.000213858
0.000162398
0.000114469
8.34755e-05
1.48321e-05
2.13049e-05
2.57732e-05
0.000147741
0.000184238
0.000187732
0.000180022
0.000170666
0.000163886
0.000160617
0.000158894
0.00015847
0.000162507
0.000170122
0.000173882
0.000175492
0.000170954
0.000157308
0.000144077
0.000138135
0.000134591
0.00013488
0.000134049
0.000132161
0.000130862
0.000129758
0.000123515
0.000116981
0.000107
9.65196e-05
8.59038e-05
7.42661e-05
6.60376e-05
6.15022e-05
5.83634e-05
5.04172e-05
3.29597e-05
5.12196e-06
3.81586e-05
4.7434e-05
3.55208e-05
3.5235e-05
3.71409e-05
3.9004e-05
4.03511e-05
3.90033e-05
3.9119e-05
3.75134e-05
3.69797e-05
3.29671e-05
2.83455e-05
2.18416e-05
1.76251e-05
1.55729e-05
1.52977e-05
1.58531e-05
1.67424e-05
1.76469e-05
1.83396e-05
1.8836e-05
1.9576e-05
2.01885e-05
2.06044e-05
2.08766e-05
2.1039e-05
2.11006e-05
2.10044e-05
2.07326e-05
2.04069e-05
2.01054e-05
1.98442e-05
1.96083e-05
1.93802e-05
1.91599e-05
1.89426e-05
1.87466e-05
1.85768e-05
1.84256e-05
1.82116e-05
1.82028e-05
1.83728e-05
1.90646e-05
2.06045e-05
2.33437e-05
3.18449e-05
4.73153e-05
6.53996e-05
8.92268e-05
0.000123878
0.000174966
0.00022034
0.000252838
0.000235589
0.000217259
0.000186109
0.000154126
1.49248e-05
1.88531e-05
1.97474e-05
0.000131576
0.000189094
0.000195728
0.000199188
0.000198667
0.000191371
0.000182592
0.000175553
0.000172722
0.000168293
0.000166972
0.000165387
0.000159819
0.000148663
0.00014142
0.000132296
0.000127484
0.000126189
0.000126484
0.000116996
0.000111836
0.000108265
0.000104549
0.00010105
9.66431e-05
9.90009e-05
0.000106344
0.000109035
0.000100153
8.50385e-05
6.85541e-05
5.58949e-05
4.89932e-05
4.44335e-05
1.87173e-05
3.63016e-05
4.23778e-05
3.03636e-05
2.70657e-05
2.71142e-05
2.70833e-05
2.71558e-05
2.82006e-05
3.1371e-05
3.28469e-05
3.30199e-05
2.98216e-05
2.50194e-05
1.93452e-05
1.52628e-05
1.39695e-05
1.37478e-05
1.41344e-05
1.4749e-05
1.53318e-05
1.61079e-05
1.69617e-05
1.73105e-05
1.75476e-05
1.7692e-05
1.77493e-05
1.77845e-05
1.78083e-05
1.77522e-05
1.75564e-05
1.73187e-05
1.71285e-05
1.70092e-05
1.69132e-05
1.68066e-05
1.6738e-05
1.66816e-05
1.66517e-05
1.6611e-05
1.65372e-05
1.63704e-05
1.62046e-05
1.62622e-05
1.64246e-05
1.69138e-05
1.77226e-05
1.89814e-05
2.42101e-05
4.01831e-05