/*--------------------------------*- C++ -*----------------------------------*\
| =========                 |                                                 |
| \\      /  F ield         | OpenFOAM: The Open Source CFD Toolbox           |
|  \\    /   O peration     | Version:  2.3.0                                 |
|   \\  /    A nd           | Web:      www.OpenFOAM.org                      |
|    \\/     M anipulation  |                                                 |
\*---------------------------------------------------------------------------*/
FoamFile
{
    version     2.0;
    format      ascii;
    class       surfaceScalarField;
    location    "43";
    object      phi.water;
}
// * * * * * * * * * * * * * * * * * * * * * * * * * * * * * * * * * * * * * //

dimensions      [0 3 -1 0 0 0 0];

internalField   nonuniform List<scalar> 
16448
(
-1.01192e-06
-2.63327e-06
3.55515e-07
9.79711e-07
-2.61576e-06
6.28168e-07
1.08651e-06
-1.15805e-06
1.05393e-06
9.61703e-07
-9.51346e-07
1.0791e-06
4.92966e-07
-5.29365e-07
1.00234e-06
1.31465e-07
-6.03606e-07
9.70697e-07
-7.13463e-08
-6.44093e-07
8.54412e-07
-1.44662e-07
-5.75133e-07
6.55927e-07
-3.22278e-07
-3.60564e-07
5.41844e-07
-6.03682e-07
-2.17615e-07
4.99403e-07
-8.37408e-07
-1.82217e-07
4.16173e-07
-9.00564e-07
-2.29551e-07
2.92928e-07
-8.07022e-07
-3.10393e-07
2.17092e-07
-6.14389e-07
-3.6704e-07
1.7464e-07
-4.11728e-07
-3.9429e-07
1.91906e-07
-2.23286e-07
-4.15992e-07
2.27803e-07
-7.47671e-08
-4.28075e-07
2.79846e-07
4.19641e-08
-4.4374e-07
3.27275e-07
1.20616e-07
-4.55473e-07
3.77092e-07
1.6434e-07
-4.63018e-07
4.19553e-07
1.80608e-07
-4.7123e-07
4.55217e-07
1.79593e-07
-4.75195e-07
4.76458e-07
1.69089e-07
-4.73998e-07
4.84747e-07
1.54308e-07
-4.68129e-07
4.83155e-07
1.39282e-07
-4.58276e-07
4.73549e-07
1.27427e-07
-4.45888e-07
4.57993e-07
1.21083e-07
-4.32074e-07
4.38672e-07
1.21189e-07
-4.1944e-07
4.19592e-07
1.26022e-07
-4.08754e-07
4.04179e-07
1.31785e-07
-3.97689e-07
3.92188e-07
1.36449e-07
-3.87017e-07
3.82617e-07
1.40204e-07
-3.7756e-07
3.74071e-07
1.43827e-07
-3.69274e-07
3.65919e-07
1.47383e-07
-3.61421e-07
3.58132e-07
1.50906e-07
-3.53558e-07
3.50309e-07
1.55345e-07
-3.45833e-07
3.4166e-07
1.63955e-07
-3.39044e-07
3.30714e-07
1.79238e-07
-3.3252e-07
3.17499e-07
2.07741e-07
-3.29718e-07
3.01503e-07
2.49777e-07
-3.26001e-07
2.84212e-07
3.05357e-07
-3.25552e-07
2.7029e-07
3.71258e-07
-3.25378e-07
2.59676e-07
4.32098e-07
-3.21197e-07
2.60741e-07
4.77253e-07
-3.14482e-07
2.69422e-07
4.5215e-07
-2.79958e-07
3.05531e-07
3.35322e-07
-2.27175e-07
3.43974e-07
6.30902e-08
-1.69938e-07
4.42701e-07
-2.5669e-07
-1.38667e-07
4.62459e-07
-7.12783e-07
-1.77972e-07
6.53468e-07
-1.16973e-06
-2.97969e-07
7.91731e-07
-1.41776e-06
-8.28692e-07
1.14982e-06
-1.66683e-06
-8.47813e-07
1.14929e-06
-2.53796e-06
-7.84119e-07
1.73672e-06
-3.42166e-06
-9.30948e-07
1.80078e-06
-2.73748e-06
-3.1729e-06
2.64456e-06
-2.02327e-06
-4.24204e-06
3.40011e-06
-8.432e-08
-1.75193e-06
8.81785e-07
1.28277e-07
-9.79012e-07
5.23085e-07
7.08931e-06
-1.18015e-06
5.25803e-06
2.79622e-05
-1.17319e-05
9.84435e-06
1.80032e-05
-1.79186e-05
4.51353e-07
2.45804e-05
-1.13532e-05
3.68583e-06
2.53724e-05
-5.57094e-06
4.77683e-06
2.83367e-05
-6.19664e-06
3.23234e-06
3.12879e-05
-5.3491e-06
2.39792e-06
3.29358e-05
-3.50807e-06
1.86009e-06
3.37423e-05
-2.26187e-06
1.45534e-06
3.37658e-05
-1.23819e-06
1.21475e-06
3.29863e-05
-3.77024e-07
1.15647e-06
3.1229e-05
5.98706e-07
1.15859e-06
2.86231e-05
1.48293e-06
1.123e-06
2.51091e-05
2.35594e-06
1.15798e-06
2.09286e-05
2.97736e-06
1.20316e-06
1.62801e-05
3.38851e-06
1.25998e-06
1.09096e-05
3.74646e-06
1.62412e-06
6.20558e-06
3.19849e-06
1.50549e-06
3.67731e-06
1.83262e-06
6.95651e-07
2.64812e-06
5.76014e-07
4.53187e-07
2.88874e-06
-5.00259e-07
2.5964e-07
4.28298e-06
-8.4997e-07
-5.44257e-07
5.92544e-06
-2.08744e-07
-1.43371e-06
6.76632e-06
7.28749e-07
-1.56961e-06
6.75855e-06
1.53002e-06
-1.52225e-06
6.08494e-06
1.88246e-06
-1.20883e-06
4.56279e-06
1.82258e-06
-3.00427e-07
2.41193e-06
1.30318e-06
8.47693e-07
7.27487e-07
2.69812e-07
1.41463e-06
1.09533e-07
-1.04169e-06
1.65965e-06
7.70524e-07
-2.60101e-06
1.94003e-06
3.08781e-06
-4.79355e-06
2.47627e-06
5.57678e-06
-5.2652e-06
2.77623e-06
6.87171e-06
-3.79989e-06
2.50496e-06
6.88859e-06
-2.07882e-06
2.06194e-06
5.9369e-06
-5.37734e-07
1.48942e-06
3.52031e-06
1.35468e-06
1.06191e-06
3.65262e-06
-1.32317e-07
-1.86709e-06
-3.80739e-06
-2.92014e-07
-3.94552e-07
-3.91654e-06
-1.64238e-07
8.08067e-08
-2.20511e-06
5.77118e-07
4.89983e-07
-1.86411e-06
5.08689e-07
5.24409e-07
-9.89344e-07
4.30719e-07
3.21142e-07
-8.29025e-07
4.33234e-07
1.33931e-08
-5.80591e-07
2.50071e-07
-2.01018e-07
-4.27632e-07
7.34287e-08
-5.01395e-07
-1.45555e-07
8.87468e-08
-8.68007e-07
4.74439e-09
1.44301e-07
-1.11142e-06
-3.13044e-08
9.25141e-08
-1.1442e-06
-1.78188e-07
-1.86231e-08
-1.03775e-06
-3.15496e-07
-1.01274e-07
-8.4321e-07
-4.11207e-07
-1.50315e-07
-6.23404e-07
-4.56469e-07
-1.57535e-07
-4.10496e-07
-4.86729e-07
-1.42107e-07
-2.33225e-07
-4.97839e-07
-1.07406e-07
-8.89976e-08
-5.13636e-07
-7.4259e-08
1.76733e-08
-5.22975e-07
-3.90961e-08
8.75753e-08
-5.24802e-07
-8.07975e-09
1.26071e-07
-5.23376e-07
1.36989e-08
1.42946e-07
-5.17178e-07
2.51632e-08
1.46144e-07
-5.06688e-07
2.9551e-08
1.41605e-07
-4.91842e-07
2.83073e-08
1.33925e-07
-4.73382e-07
2.28353e-08
1.26623e-07
-4.53173e-07
1.46255e-08
1.22146e-07
-4.32746e-07
5.17463e-09
1.21862e-07
-4.13028e-07
-6.10688e-09
1.24193e-07
-3.93731e-07
-1.73192e-08
1.26262e-07
-3.73611e-07
-2.61058e-08
1.27576e-07
-3.5453e-07
-3.37533e-08
1.28896e-07
-3.37857e-07
-4.09738e-08
1.31098e-07
-3.23446e-07
-4.79757e-08
1.34176e-07
-3.09954e-07
-5.44921e-08
1.39025e-07
-2.97224e-07
-6.11222e-08
1.45661e-07
-2.84725e-07
-6.76911e-08
1.583e-07
-2.75249e-07
-7.63632e-08
1.77023e-07
-2.66142e-07
-8.50494e-08
2.11267e-07
-2.66509e-07
-9.73638e-08
2.57165e-07
-2.64334e-07
-1.07526e-07
3.18386e-07
-2.71452e-07
-1.15195e-07
3.86085e-07
-2.69049e-07
-1.24035e-07
4.5049e-07
-2.68989e-07
-1.16414e-07
4.95091e-07
-2.42413e-07
-1.16779e-07
4.77544e-07
-1.83296e-07
-7.88375e-08
3.65171e-07
-6.35463e-08
-5.15989e-08
1.4273e-07
1.7518e-08
3.55855e-08
-8.67741e-08
9.26628e-08
1.25775e-09
-8.75052e-08
-2.32493e-07
7.73781e-08
1.01441e-07
-5.68793e-07
1.34385e-07
-1.74699e-08
-1.4107e-06
7.8718e-07
-1.23666e-06
-4.05451e-07
8.23848e-07
-3.44688e-06
4.59442e-07
1.04024e-06
-4.0418e-06
-9.57595e-07
6.29891e-07
-6.90882e-07
-7.5198e-06
1.15122e-06
2.13632e-06
-9.29243e-06
2.15024e-06
-7.54682e-08
1.86424e-07
1.18977e-06
-7.54403e-06
2.62373e-06
3.83113e-06
3.74723e-06
-4.89524e-06
3.65763e-06
2.9914e-05
-2.43918e-05
2.86466e-06
1.45443e-05
-2.75417e-05
-3.17265e-06
1.71587e-05
-1.79525e-05
2.43841e-06
1.78201e-05
-1.22614e-05
6.0264e-06
2.12108e-05
-1.07193e-05
1.13189e-06
2.37423e-05
-7.9114e-06
3.07636e-08
2.6368e-05
-5.24542e-06
-8.88421e-07
2.83853e-05
-3.05551e-06
-1.22372e-06
2.93717e-05
-1.09493e-06
-1.12967e-06
2.915e-05
7.03156e-07
-8.58555e-07
2.78573e-05
2.41057e-06
-5.19086e-07
2.58261e-05
3.75171e-06
-2.37618e-07
2.30087e-05
5.07232e-06
1.0106e-07
1.93725e-05
6.37365e-06
2.39887e-07
1.50102e-05
7.27432e-06
4.76454e-07
1.02162e-05
7.48166e-06
1.0588e-06
5.85453e-06
6.5218e-06
1.0384e-06
2.78674e-06
4.37992e-06
5.20506e-07
1.38967e-06
2.19666e-06
-2.23566e-07
2.11394e-06
4.61899e-07
-1.68641e-06
4.05027e-06
7.09705e-07
-3.49599e-06
5.76844e-06
2.25443e-06
-4.18132e-06
6.66963e-06
3.30591e-06
-3.47834e-06
6.64391e-06
3.70366e-06
-2.14789e-06
6.06011e-06
3.64387e-06
-1.17759e-06
4.76914e-06
3.22225e-06
-1.08688e-07
3.272e-06
2.2725e-06
5.27835e-07
2.24238e-06
7.34489e-07
5.64952e-07
1.86582e-06
-1.04877e-06
3.83655e-07
2.309e-06
-3.62121e-06
5.77019e-07
3.57918e-06
-7.56883e-06
1.50511e-06
4.37444e-06
-7.97496e-06
1.9145e-06
3.5211e-06
-4.25422e-06
1.30765e-06
2.60792e-06
-1.49271e-06
3.2706e-07
1.95771e-06
4.97039e-07
-3.84566e-07
7.72504e-07
2.93368e-06
-3.93802e-07
5.48537e-06
-1.06026e-06
-2.86346e-06
-4.2777e-06
-4.85973e-07
-1.74248e-06
-4.45843e-06
-5.70621e-07
-1.14368e-06
-2.91057e-06
1.13405e-07
-4.11739e-07
-2.4786e-06
-1.11046e-07
-7.08293e-08
-1.23078e-06
-9.42933e-08
-3.77013e-08
-8.21692e-07
-3.65414e-08
-1.58482e-07
-3.30152e-07
-1.24559e-07
-2.71088e-07
-1.17606e-07
-1.92113e-07
-4.67483e-07
2.0223e-07
-1.48254e-07
-7.48522e-07
3.51173e-07
-6.47812e-08
-9.57588e-07
2.55092e-07
-7.70104e-08
-1.01229e-06
3.62038e-08
-1.59407e-07
-9.71999e-07
-1.28033e-07
-2.27441e-07
-8.64698e-07
-2.4183e-07
-2.76467e-07
-7.22002e-07
-2.9339e-07
-3.05583e-07
-5.61502e-07
-3.25017e-07
-3.22098e-07
-4.10065e-07
-3.31156e-07
-3.18006e-07
-2.79025e-07
-3.37581e-07
-3.0701e-07
-1.70144e-07
-3.38528e-07
-2.93243e-07
-8.1486e-08
-3.33436e-07
-2.79952e-07
-1.64446e-08
-3.18716e-07
-2.69622e-07
2.83637e-08
-2.9982e-07
-2.62083e-07
5.74978e-08
-2.78397e-07
-2.57337e-07
7.51073e-08
-2.54648e-07
-2.5471e-07
8.49747e-08
-2.29556e-07
-2.53598e-07
9.01039e-08
-2.04694e-07
-2.53508e-07
9.3108e-08
-1.81622e-07
-2.54023e-07
9.44596e-08
-1.59243e-07
-2.55026e-07
9.31176e-08
-1.35513e-07
-2.56759e-07
8.99782e-08
-1.10932e-07
-2.59414e-07
8.72736e-08
-8.88172e-08
-2.62876e-07
8.61443e-08
-7.01263e-08
-2.66463e-07
8.72049e-08
-5.44767e-08
-2.69886e-07
9.04464e-08
-4.02716e-08
-2.72777e-07
9.75015e-08
-2.82756e-08
-2.75846e-07
1.07132e-07
-1.64057e-08
-2.77791e-07
1.23164e-07
-1.00899e-08
-2.81019e-07
1.42617e-07
-3.46301e-09
-2.81968e-07
1.7291e-07
-1.05706e-08
-2.8604e-07
2.0527e-07
-1.04572e-08
-2.86085e-07
2.50226e-07
-2.59009e-08
-2.90282e-07
2.90116e-07
-1.97906e-08
-2.89036e-07
3.41001e-07
-2.99724e-08
-2.89615e-07
3.79086e-07
1.19399e-08
-2.92418e-07
3.97041e-07
6.68712e-08
-2.67736e-07
3.89657e-07
2.12726e-07
-2.68997e-07
3.41532e-07
2.69451e-07
-2.02811e-07
4.6679e-07
2.50205e-07
-2.77627e-07
8.86562e-07
-4.84523e-07
-1.32353e-07
1.22694e-06
-8.65393e-07
2.15295e-08
-2.35066e-07
-6.55321e-07
7.93235e-07
-1.78858e-06
8.00556e-07
3.97215e-07
-8.96645e-07
2.79998e-07
-6.30459e-07
2.51029e-06
-2.40786e-06
-1.91624e-06
6.07306e-06
-1.01606e-05
-7.25847e-07
4.43112e-06
-8.74737e-06
1.00816e-06
7.00806e-06
-6.06674e-07
-6.0228e-07
2.82726e-07
9.77645e-06
-1.43955e-06
6.06407e-06
-3.86849e-06
6.28872e-06
3.11439e-05
-2.84069e-05
-2.44197e-06
1.00872e-05
-3.22002e-05
-3.06512e-06
9.62722e-06
-2.15718e-05
2.24966e-06
1.22234e-05
-1.88196e-05
3.95983e-06
1.52001e-05
-1.28203e-05
-8.75792e-07
1.82735e-05
-8.45257e-06
-2.53226e-06
2.19684e-05
-5.83631e-06
-3.1041e-06
2.45207e-05
-2.89682e-06
-2.71106e-06
2.57292e-05
-3.95635e-07
-1.90786e-06
2.55095e-05
2.07938e-06
-1.15646e-06
2.40535e-05
4.51695e-06
-6.50403e-07
2.15481e-05
6.64414e-06
-3.87086e-07
1.82263e-05
8.49482e-06
-1.00701e-07
1.43441e-05
1.00652e-05
1.90636e-07
1.03643e-05
1.09032e-05
3.50992e-07
6.05631e-06
1.10686e-05
7.20965e-07
1.97234e-06
9.5681e-06
1.03767e-06
-3.31783e-07
6.43504e-06
2.49012e-07
-1.94279e-07
3.77006e-06
-1.71089e-06
1.58559e-06
2.99796e-06
-4.31592e-06
3.96208e-06
4.32487e-06
-5.99165e-06
5.41229e-06
5.81936e-06
-5.01513e-06
5.81964e-06
5.98776e-06
-3.08919e-06
5.58895e-06
5.59638e-06
-1.66202e-06
4.79497e-06
5.03724e-06
-5.99373e-07
3.51914e-06
4.3302e-06
1.67892e-07
2.37553e-06
3.20654e-06
2.09578e-07
1.68615e-06
1.68929e-06
-2.65421e-07
1.5284e-06
-2.12061e-07
-6.78956e-07
1.38903e-06
-3.41003e-06
-7.18055e-08
5.97193e-07
-8.42408e-06
1.64709e-06
-6.64868e-07
-8.86756e-06
2.15466e-06
-2.08269e-06
-3.35306e-06
5.16665e-07
-2.37014e-06
-7.27825e-08
-1.13248e-06
-1.80762e-06
1.67027e-06
-1.73576e-06
-1.40018e-06
4.14066e-06
-1.61442e-06
6.13616e-06
-2.05097e-06
-3.69484e-06
-4.46362e-06
-1.97513e-07
-2.67526e-06
-4.80066e-06
-6.70272e-07
-2.18998e-06
-3.44709e-06
5.85463e-08
-1.33663e-06
-3.10878e-06
-2.16152e-07
-7.97972e-07
-1.64057e-06
-1.22015e-07
-4.23081e-07
-1.10772e-06
-8.39852e-08
-3.30168e-07
-2.56953e-07
-1.61311e-07
-2.80219e-07
4.09661e-08
-2.03883e-07
-3.21152e-07
4.35585e-07
-1.89218e-07
-5.16243e-07
6.60402e-07
-1.13267e-07
-6.95584e-07
5.72157e-07
-1.37382e-07
-8.008e-07
3.35365e-07
-1.93572e-07
-8.34235e-07
1.49222e-07
-2.43432e-07
-7.95392e-07
1.22351e-08
-2.92606e-07
-7.15311e-07
-5.17849e-08
-3.21342e-07
-6.01149e-07
-8.5507e-08
-3.53373e-07
-4.75942e-07
-8.05931e-08
-3.75463e-07
-3.61868e-07
-6.38248e-08
-3.87534e-07
-2.6152e-07
-4.48524e-08
-3.93722e-07
-1.73785e-07
-2.50615e-08
-3.95822e-07
-1.0017e-07
1.49383e-09
-3.93544e-07
-3.97445e-08
2.77771e-08
-3.87744e-07
6.34982e-09
5.59577e-08
-3.80164e-07
3.89888e-08
8.56807e-08
-3.72683e-07
5.95516e-08
1.16223e-07
-3.66054e-07
7.02629e-08
1.45056e-07
-3.60172e-07
7.39929e-08
1.70321e-07
-3.55384e-07
7.37243e-08
1.93156e-07
-3.51844e-07
7.16152e-08
2.16941e-07
-3.50061e-07
6.87568e-08
2.41902e-07
-3.49699e-07
6.63875e-08
2.64162e-07
-3.50337e-07
6.50599e-08
2.82723e-07
-3.51259e-07
6.49808e-08
2.97989e-07
-3.52129e-07
6.67958e-08
3.10747e-07
-3.52592e-07
7.19546e-08
3.19987e-07
-3.53176e-07
8.06914e-08
3.28212e-07
-3.53135e-07
9.53119e-08
3.29392e-07
-3.53866e-07
1.1088e-07
3.32523e-07
-3.51348e-07
1.36592e-07
3.16547e-07
-3.52598e-07
1.56404e-07
3.15409e-07
-3.45482e-07
1.90919e-07
2.88331e-07
-3.48498e-07
2.17208e-07
2.97222e-07
-3.43145e-07
2.6219e-07
2.71714e-07
-3.46387e-07
2.97365e-07
3.22666e-07
-3.45811e-07
2.90186e-07
3.87908e-07
-3.13459e-07
2.49512e-07
5.59507e-07
-3.06e-07
2.15856e-07
5.30782e-07
-2.26042e-07
4.506e-07
3.33126e-07
-3.02614e-07
5.5272e-07
-4.52317e-07
-7.69323e-08
-7.56498e-07
1.4983e-07
3.51797e-07
-3.1946e-06
1.1942e-06
6.52082e-07
-3.3269e-06
1.13625e-06
-1.75476e-07
2.10543e-06
-3.48574e-06
-1.57312e-06
1.05388e-05
-7.28232e-06
-3.55286e-06
1.35221e-05
-1.1484e-05
-1.52699e-06
1.25454e-05
-7.36726e-06
-5.7595e-07
1.23492e-05
-5.28582e-07
7.49024e-07
4.80409e-06
1.9661e-05
-3.29158e-06
1.10928e-05
-6.85393e-06
1.08659e-05
3.45071e-05
-2.98718e-05
-2.16929e-06
8.24383e-06
-3.44673e-05
-2.47068e-06
3.71149e-06
-2.26543e-05
3.5418e-06
5.29489e-06
-2.2986e-05
2.58078e-06
6.64263e-06
-1.27052e-05
-1.46286e-06
1.23922e-05
-1.04582e-05
-3.74403e-06
1.67184e-05
-7.14408e-06
-3.01854e-06
1.90818e-05
-3.7314e-06
-1.52884e-06
1.98495e-05
-8.69885e-07
-2.93484e-07
1.9406e-05
1.97567e-06
5.4717e-07
1.7914e-05
5.0633e-06
9.45615e-07
1.54531e-05
8.09879e-06
1.00628e-06
1.22923e-05
1.07535e-05
9.02113e-07
8.55271e-06
1.29747e-05
8.30133e-07
3.81923e-06
1.47957e-05
8.40973e-07
-6.97837e-07
1.44242e-05
1.16153e-06
-2.99829e-06
1.1165e-05
7.03521e-07
-3.15898e-06
7.89352e-06
-1.29779e-06
-1.67256e-06
6.68936e-06
-4.40572e-06
5.48224e-07
7.73692e-06
-6.95975e-06
2.72794e-06
8.95978e-06
-6.81462e-06
3.83487e-06
8.90994e-06
-4.19749e-06
3.83199e-06
8.17861e-06
-2.18796e-06
3.18072e-06
7.12068e-06
-8.73011e-07
2.24892e-06
6.16108e-06
-1.92033e-07
1.49936e-06
5.20071e-06
-1.20937e-07
1.0937e-06
4.14798e-06
-5.35767e-07
8.69692e-07
2.79639e-06
-8.83087e-07
7.29312e-07
6.09232e-07
-6.80907e-07
-3.81329e-07
-3.09119e-06
7.91809e-07
-2.85481e-06
-8.74507e-06
2.79448e-06
-5.1177e-06
-1.00056e-05
3.40092e-06
-5.81849e-06
-4.11156e-06
1.45928e-06
-5.1892e-06
4.08332e-07
-1.11041e-06
-4.11797e-06
2.48271e-06
-1.88367e-06
-2.58029e-06
4.57849e-06
-1.97553e-06
6.00257e-06
-2.44671e-06
-4.10353e-06
-4.37045e-06
-8.56376e-08
-3.21471e-06
-4.93603e-06
-7.47358e-07
-2.93132e-06
-3.77498e-06
5.14143e-08
-2.07689e-06
-3.7518e-06
-2.04649e-07
-1.36001e-06
-2.37659e-06
2.67648e-08
-6.11367e-07
-1.84609e-06
-3.863e-09
-3.08628e-07
-4.52772e-07
-1.0162e-07
-1.91661e-07
6.35715e-08
-1.35148e-07
-1.38594e-07
5.52416e-07
-1.66223e-07
-3.17611e-07
9.40785e-07
-9.98694e-08
-5.15413e-07
8.87864e-07
-1.17301e-07
-6.69675e-07
6.4356e-07
-1.53456e-07
-7.35244e-07
4.07254e-07
-1.92176e-07
-7.25079e-07
2.34467e-07
-2.32222e-07
-6.67303e-07
1.49554e-07
-2.58948e-07
-5.73769e-07
1.13072e-07
-2.91977e-07
-4.70432e-07
1.39587e-07
-3.23382e-07
-3.78293e-07
1.90849e-07
-3.46686e-07
-2.94286e-07
2.37294e-07
-3.66038e-07
-2.16252e-07
2.7662e-07
-3.79606e-07
-1.41013e-07
3.14882e-07
-3.88526e-07
-7.44503e-08
3.52588e-07
-3.91286e-07
-1.97985e-08
3.90265e-07
-3.88884e-07
2.16213e-08
4.26886e-07
-3.82557e-07
4.98693e-08
4.61712e-07
-3.73675e-07
6.69108e-08
4.92042e-07
-3.63968e-07
7.57639e-08
5.16544e-07
-3.55021e-07
7.92644e-08
5.37189e-07
-3.47477e-07
7.89888e-08
5.58646e-07
-3.41372e-07
7.54107e-08
5.81856e-07
-3.36313e-07
7.02641e-08
6.01443e-07
-3.3207e-07
6.54055e-08
6.16019e-07
-3.28365e-07
6.21727e-08
6.26162e-07
-3.24864e-07
6.1119e-08
6.33169e-07
-3.21287e-07
6.34573e-08
6.35525e-07
-3.17787e-07
6.93459e-08
6.35949e-07
-3.13546e-07
7.98592e-08
6.28608e-07
-3.09629e-07
9.06446e-08
6.24754e-07
-3.02943e-07
1.07928e-07
5.98719e-07
-2.9935e-07
1.16516e-07
5.95814e-07
-2.88918e-07
1.36643e-07
5.56719e-07
-2.8839e-07
1.42476e-07
5.69507e-07
-2.78053e-07
1.44693e-07
5.42957e-07
-2.73287e-07
1.00212e-07
6.23302e-07
-2.56085e-07
-4.18019e-08
7.31512e-07
-2.01198e-07
-2.35156e-07
9.09916e-07
-1.57058e-07
-4.99993e-07
8.40004e-07
-4.00152e-08
-7.63957e-07
6.3153e-07
-1.22363e-08
-1.8997e-06
4.48913e-07
2.77245e-07
-3.2138e-06
1.18465e-06
3.28746e-07
-3.74785e-06
1.4174e-06
3.65081e-07
-7.111e-07
-8.3437e-07
-9.94424e-07
6.92633e-06
-8.13739e-06
-2.717e-06
1.46837e-05
-1.20477e-05
-2.85669e-06
1.78308e-05
-1.26431e-05
-1.82544e-06
2.14453e-05
-7.17829e-06
-3.89758e-06
2.34248e-05
4.40056e-06
-6.42316e-06
2.33956e-05
2.6115e-05
-6.05328e-06
2.06188e-05
-7.50279e-06
2.01983e-05
3.67383e-05
-2.50044e-05
-1.74265e-06
3.81129e-06
-3.31745e-05
-2.27347e-06
-6.72134e-06
-1.98424e-05
6.24748e-06
-6.53845e-06
-2.42098e-05
1.03086e-06
-2.33248e-06
-1.58723e-05
-1.04318e-06
4.80473e-06
-1.46855e-05
-2.9116e-06
7.64857e-06
-8.96052e-06
-1.02816e-06
9.6363e-06
-5.94268e-06
2.23262e-07
1.02062e-05
-1.98436e-06
5.44405e-07
9.67673e-06
1.6631e-06
8.41921e-07
8.07222e-06
5.67557e-06
9.92133e-07
5.20706e-06
9.92584e-06
1.03801e-06
1.2885e-06
1.36911e-05
9.80951e-07
-2.9159e-06
1.60472e-05
1.1319e-06
-5.97278e-06
1.64946e-05
1.35805e-06
-6.97718e-06
1.4426e-05
1.00254e-06
-6.5995e-06
1.18237e-05
-1.03647e-06
-5.3616e-06
1.10652e-05
-4.40967e-06
-3.35859e-06
1.19595e-05
-7.27328e-06
-1.38423e-06
1.35013e-05
-7.73872e-06
-9.28008e-08
1.29498e-05
-5.28147e-06
1.51689e-07
1.15525e-05
-2.88708e-06
-2.83842e-07
9.82852e-06
-1.21436e-06
-6.88502e-07
7.9097e-06
-3.84337e-07
-7.07856e-07
6.37227e-06
-1.91823e-07
-3.69415e-07
5.16456e-06
-3.02278e-07
1.46014e-07
4.0884e-06
-4.55873e-07
6.40902e-07
2.61694e-06
-3.15469e-07
6.4411e-07
3.15537e-07
2.90446e-07
-1.04028e-06
-3.06635e-06
1.65955e-06
-4.72476e-06
-8.53203e-06
3.47143e-06
-8.15927e-06
-1.12128e-05
4.64172e-06
-8.7392e-06
-7.02487e-06
3.49323e-06
-7.55201e-06
-5.40794e-07
-2.38067e-07
-5.54108e-06
2.00432e-06
-1.53255e-06
-3.04161e-06
3.89353e-06
-1.81452e-06
5.2323e-06
-2.27136e-06
-4.33839e-06
-3.94031e-06
-1.32814e-07
-3.42546e-06
-4.94027e-06
-9.04044e-07
-3.44093e-06
-3.74155e-06
-1.12268e-08
-2.66529e-06
-4.05585e-06
-4.65646e-07
-1.99821e-06
-3.06197e-06
2.60017e-08
-9.94781e-07
-2.7158e-06
-1.26045e-07
-4.15159e-07
-9.60264e-07
-6.53515e-08
-1.13279e-07
-1.41921e-07
-9.14336e-08
9.78275e-08
4.82044e-07
-1.36509e-07
-5.49179e-08
1.12607e-06
-3.02901e-08
-2.7543e-07
1.16327e-06
-5.40469e-08
-4.76778e-07
9.3148e-07
-8.59912e-08
-5.91649e-07
6.69395e-07
-1.46762e-07
-6.03329e-07
4.45052e-07
-1.9855e-07
-5.55741e-07
3.39636e-07
-2.37285e-07
-4.69679e-07
3.04966e-07
-2.77616e-07
-3.79134e-07
3.56906e-07
-3.07498e-07
-3.12281e-07
4.50845e-07
-3.26453e-07
-2.60942e-07
5.30769e-07
-3.44391e-07
-2.14568e-07
5.89749e-07
-3.59073e-07
-1.65285e-07
6.35912e-07
-3.69879e-07
-1.16404e-07
6.77253e-07
-3.73117e-07
-7.21433e-08
7.1619e-07
-3.69759e-07
-3.53143e-08
7.52448e-07
-3.61975e-07
-1.00257e-08
7.88257e-07
-3.51414e-07
7.07493e-09
8.14454e-07
-3.39101e-07
1.85834e-08
8.321e-07
-3.26653e-07
2.7454e-08
8.43567e-07
-3.14845e-07
3.29616e-08
8.57606e-07
-3.04061e-07
3.34074e-08
8.76025e-07
-2.94205e-07
3.00484e-08
8.91023e-07
-2.85806e-07
2.48165e-08
9.0064e-07
-2.78978e-07
1.92533e-08
9.05486e-07
-2.73345e-07
1.49207e-08
9.06193e-07
-2.68287e-07
1.36697e-08
9.01039e-07
-2.63848e-07
1.52942e-08
8.94079e-07
-2.59373e-07
1.82445e-08
8.81511e-07
-2.55434e-07
2.13872e-08
8.71513e-07
-2.49551e-07
2.15047e-08
8.4476e-07
-2.45731e-07
1.8363e-08
8.35282e-07
-2.36016e-07
1.94799e-10
8.04905e-07
-2.29527e-07
-2.95114e-08
8.13114e-07
-2.13682e-07
-1.04285e-07
8.07647e-07
-1.89436e-07
-2.16443e-07
8.83971e-07
-1.48297e-07
-4.46308e-07
1.01363e-06
-5.17233e-08
-6.91186e-07
1.10534e-06
4.97287e-08
-1.05354e-06
1.0231e-06
1.83979e-07
-1.71893e-06
9.90785e-07
3.2253e-07
-2.92264e-06
1.10994e-06
5.77196e-07
-3.47929e-06
1.36265e-06
4.15013e-07
-2.09627e-06
5.31844e-07
-4.37961e-07
1.96737e-06
-3.25541e-06
-1.55677e-06
5.36073e-06
-8.46684e-06
-2.69396e-06
4.8205e-06
-7.89941e-06
-3.39464e-06
4.30675e-06
-6.29077e-06
-5.70531e-06
4.40362e-06
-2.59924e-07
-7.10355e-06
1.3879e-05
7.7269e-06
-1.23225e-05
2.53876e-05
2.18998e-05
-6.97529e-06
2.89984e-05
-1.26036e-05
2.24357e-05
3.8004e-05
-1.72795e-05
-1.04683e-06
-2.42713e-06
-2.64377e-05
-1.27377e-06
-1.42694e-05
-1.55934e-05
6.51395e-06
-1.72345e-05
-2.26048e-05
1.28999e-06
-1.46349e-05
-1.85087e-05
-2.49571e-08
-1.19339e-05
-1.64048e-05
-1.01478e-06
-8.486e-06
-1.15063e-05
-9.21934e-07
-6.46224e-06
-7.69312e-06
-2.85846e-07
-5.61489e-06
-2.86337e-06
2.66737e-08
-6.18078e-06
1.7344e-06
4.92097e-07
-7.56146e-06
6.20095e-06
8.54469e-07
-9.26028e-06
1.03031e-05
1.32392e-06
-1.06087e-05
1.33475e-05
1.69666e-06
-1.13113e-05
1.49736e-05
1.78142e-06
-1.07123e-05
1.49958e-05
9.03581e-07
-1.0076e-05
1.51371e-05
-1.34711e-06
-9.74881e-06
1.59733e-05
-4.48259e-06
-9.30237e-06
1.79694e-05
-7.35734e-06
-8.37616e-06
1.92154e-05
-8.19166e-06
-7.4038e-06
1.87041e-05
-6.185e-06
-6.94137e-06
1.59437e-05
-3.46335e-06
-6.8435e-06
1.29255e-05
-1.47469e-06
-6.57088e-06
9.7914e-06
-2.3708e-07
-5.72228e-06
6.86249e-06
1.98118e-07
-4.2013e-06
4.53405e-06
3.16599e-07
-2.38845e-06
2.95432e-06
3.96908e-07
-8.85422e-07
2.08089e-06
5.03981e-07
2.48925e-07
6.89973e-07
7.92202e-07
7.30894e-07
-1.44758e-06
1.28064e-06
-5.0386e-07
-3.96721e-06
2.13492e-06
-4.71029e-06
-7.9616e-06
3.63525e-06
-9.488e-06
-1.15436e-05
5.1077e-06
-1.12466e-05
-1.0612e-05
5.34519e-06
-9.20611e-06
-3.87624e-06
1.29484e-06
-6.19079e-06
-3.68775e-07
-6.42231e-07
-3.30757e-06
2.10908e-06
-1.09878e-06
3.65145e-06
-1.72673e-06
-4.56214e-06
-3.14061e-06
-1.31653e-08
-3.64911e-06
-4.66697e-06
-1.18349e-06
-3.80197e-06
-3.39805e-06
-1.84302e-07
-2.95912e-06
-3.97406e-06
-9.20096e-07
-2.39358e-06
-3.30365e-06
-3.16665e-07
-1.34063e-06
-3.20775e-06
-5.53784e-07
-6.67427e-07
-1.35869e-06
-2.6754e-07
-2.09763e-07
-3.91854e-07
-2.02152e-07
1.71986e-07
3.54518e-07
-2.49533e-07
1.27775e-07
1.1962e-06
-2.29485e-08
-7.41186e-08
1.40413e-06
-3.81933e-08
-3.12215e-07
1.20591e-06
-3.59445e-08
-4.23767e-07
8.8521e-07
-1.04104e-07
-4.29689e-07
6.20232e-07
-1.69319e-07
-3.95408e-07
5.3048e-07
-2.2517e-07
-3.37647e-07
5.21491e-07
-2.7434e-07
-2.74523e-07
5.98578e-07
-3.04866e-07
-2.33855e-07
7.23127e-07
-3.13044e-07
-2.13669e-07
8.29635e-07
-3.19167e-07
-2.02759e-07
9.04065e-07
-3.25368e-07
-1.92133e-07
9.55858e-07
-3.30726e-07
-1.79671e-07
9.96253e-07
-3.31615e-07
-1.65566e-07
1.02914e-06
-3.27206e-07
-1.52388e-07
1.05757e-06
-3.18455e-07
-1.45033e-07
1.08474e-06
-3.03991e-07
-1.38544e-07
1.09916e-06
-2.91335e-07
-1.30461e-07
1.10388e-06
-2.79977e-07
-1.19298e-07
1.10264e-06
-2.7034e-07
-1.09764e-07
1.10863e-06
-2.60662e-07
-1.05454e-07
1.12296e-06
-2.51352e-07
-1.0577e-07
1.13423e-06
-2.42998e-07
-1.09076e-07
1.14004e-06
-2.362e-07
-1.14537e-07
1.14122e-06
-2.30386e-07
-1.21062e-07
1.13792e-06
-2.2531e-07
-1.26825e-07
1.12754e-06
-2.20848e-07
-1.32598e-07
1.11553e-06
-2.15789e-07
-1.44198e-07
1.10255e-06
-2.09516e-07
-1.58324e-07
1.08816e-06
-2.0264e-07
-1.86005e-07
1.06722e-06
-1.94818e-07
-2.15593e-07
1.05087e-06
-1.86131e-07
-2.72774e-07
1.03429e-06
-1.72189e-07
-3.31443e-07
1.02636e-06
-1.54712e-07
-4.32896e-07
1.03188e-06
-1.22702e-07
-5.29817e-07
1.06021e-06
-7.94228e-08
-6.65317e-07
1.14705e-06
2.3276e-09
-7.97086e-07
1.14469e-06
9.27142e-08
-1.02726e-06
1.07092e-06
1.85423e-07
-1.54281e-06
1.20468e-06
3.11153e-07
-2.37433e-06
1.5487e-06
4.17374e-07
-2.56856e-06
1.4711e-06
1.24887e-07
-1.04981e-06
-7.77188e-08
-8.38796e-07
1.46798e-06
-4.10021e-06
-1.58661e-06
1.59833e-06
-5.70782e-06
-2.5222e-06
-4.06187e-07
-4.12281e-07
-5.3104e-06
-1.00596e-06
4.03264e-06
-9.7205e-06
2.02051e-06
9.32646e-06
-1.28375e-05
1.75338e-05
8.60938e-06
-1.64027e-05
3.39331e-05
1.27013e-05
-7.26262e-06
3.12481e-05
-9.53814e-06
2.42418e-05
3.49651e-05
-8.78268e-06
-3.53315e-08
-1.38858e-05
-1.35969e-05
2.41627e-07
-2.39863e-05
-1.18111e-05
5.87286e-06
-3.08824e-05
-1.68947e-05
1.07553e-06
-3.12753e-05
-1.79948e-05
-2.51304e-07
-2.95031e-05
-1.76219e-05
-7.01933e-07
-2.62985e-05
-1.45643e-05
-2.31774e-07
-2.32257e-05
-1.06361e-05
-1.94371e-07
-2.06085e-05
-5.90276e-06
4.01818e-07
-1.93226e-05
-3.77413e-07
8.30566e-07
-1.85152e-05
4.28913e-06
1.08425e-06
-1.81979e-05
8.76852e-06
1.22715e-06
-1.79247e-05
1.22722e-05
8.31688e-07
-1.80216e-05
1.53509e-05
-2.61051e-07
-1.87955e-05
1.80347e-05
-2.16702e-06
-1.91619e-05
2.04797e-05
-4.87494e-06
-1.90082e-05
2.25697e-05
-6.8338e-06
-1.75932e-05
2.34782e-05
-7.11768e-06
-1.56133e-05
2.25151e-05
-5.44826e-06
-1.46202e-05
2.03261e-05
-2.71988e-06
-1.53783e-05
1.73635e-05
-7.22558e-07
-1.61348e-05
1.33165e-05
3.41556e-07
-1.57551e-05
8.89337e-06
4.97241e-07
-1.3855e-05
4.55729e-06
3.83428e-07
-1.04946e-05
7.19705e-07
4.30656e-07
-6.7504e-06
-1.58307e-06
7.68172e-07
-3.15439e-06
-2.71961e-06
1.18387e-06
-2.5661e-07
-3.80016e-06
1.57517e-06
1.23474e-06
-4.86063e-06
1.9058e-06
8.62396e-07
-6.04719e-06
2.43852e-06
-2.0665e-06
-8.19788e-06
3.15764e-06
-7.1955e-06
-1.09266e-05
4.51223e-06
-1.11889e-05
-1.1056e-05
4.43856e-06
-9.86052e-06
-7.35883e-06
2.15461e-06
-6.51139e-06
-3.33925e-06
-3.7846e-07
-3.45954e-06
-3.8202e-07
-5.6109e-07
1.54353e-06
-1.35358e-06
-4.40734e-06
-2.01475e-06
5.60656e-07
-3.77223e-06
-4.29637e-06
-1.00454e-06
-4.13654e-06
-2.88722e-06
-1.40562e-07
-3.26462e-06
-3.85175e-06
-9.90036e-07
-2.64406e-06
-3.39697e-06
-5.19962e-07
-1.5014e-06
-3.47558e-06
-8.6766e-07
-7.37973e-07
-1.73969e-06
-3.74335e-07
-2.61172e-07
-6.56829e-07
-2.05654e-07
5.79232e-08
3.71589e-07
-3.30749e-07
1.41682e-07
1.15448e-06
-3.82863e-08
1.25875e-07
1.48565e-06
-6.41744e-08
2.57197e-08
1.35068e-06
-4.41528e-08
3.05073e-09
1.09699e-06
-1.88703e-07
6.20977e-09
8.95051e-07
-2.77884e-07
-9.36145e-09
8.82723e-07
-3.36433e-07
-5.37135e-08
9.47856e-07
-3.8186e-07
-1.07651e-07
1.07116e-06
-4.18454e-07
-1.5651e-07
1.21123e-06
-4.39082e-07
-2.03999e-07
1.33302e-06
-4.55718e-07
-2.52357e-07
1.4221e-06
-4.69501e-07
-2.87298e-07
1.4692e-06
-4.78255e-07
-3.07024e-07
1.49912e-06
-4.83039e-07
-3.16407e-07
1.52247e-06
-4.83893e-07
-3.18568e-07
1.54164e-06
-4.81909e-07
-3.13282e-07
1.55757e-06
-4.78184e-07
-3.05247e-07
1.56496e-06
-4.73954e-07
-2.93448e-07
1.56291e-06
-4.71003e-07
-2.76214e-07
1.55461e-06
-4.69412e-07
-2.60076e-07
1.55798e-06
-4.65719e-07
-2.52728e-07
1.57638e-06
-4.61002e-07
-2.52878e-07
1.59161e-06
-4.57477e-07
-2.57907e-07
1.6003e-06
-4.55488e-07
-2.66749e-07
1.60421e-06
-4.54403e-07
-2.78389e-07
1.60326e-06
-4.5397e-07
-2.90966e-07
1.59409e-06
-4.54244e-07
-3.05504e-07
1.58341e-06
-4.53647e-07
-3.28628e-07
1.57617e-06
-4.50778e-07
-3.57276e-07
1.56486e-06
-4.48418e-07
-4.03683e-07
1.55711e-06
-4.43768e-07
-4.50495e-07
1.53731e-06
-4.40062e-07
-5.26521e-07
1.53792e-06
-4.27898e-07
-5.98537e-07
1.51022e-06
-4.12356e-07
-7.04398e-07
1.51729e-06
-3.79826e-07
-7.75869e-07
1.47481e-06
-3.43664e-07
-8.09439e-07
1.4732e-06
-2.92845e-07
-7.8191e-07
1.37407e-06
-2.57441e-07
-6.08529e-07
1.19144e-06
-2.92166e-07
-4.28288e-07
1.30486e-06
-2.7393e-07
-2.23936e-07
1.71365e-06
-3.50641e-07
2.61171e-08
1.68417e-06
-4.40108e-07
1.13207e-06
1.26717e-08
-1.11966e-06
1.46804e-06
-2.63501e-06
-1.74891e-06
1.33956e-06
-3.40585e-06
-1.73678e-06
2.57652e-06
4.66297e-06
-5.96223e-06
3.79609e-06
1.4746e-05
-1.18595e-05
9.98372e-06
1.97206e-05
-1.67767e-05
2.28536e-05
1.638e-05
-2.07559e-05
3.82585e-05
8.88826e-06
-1.15638e-05
3.56198e-05
-7.3611e-06
2.80115e-05
3.81986e-05
1.86723e-06
-4.77522e-07
-2.0724e-05
4.40884e-06
7.25938e-07
-3.35347e-05
-6.42067e-06
6.9516e-06
-4.29239e-05
-8.32976e-06
7.46345e-07
-4.6885e-05
-1.27441e-05
-1.32881e-06
-4.88719e-05
-1.3666e-05
-1.99957e-06
-4.91375e-05
-1.2371e-05
-1.98688e-06
-4.82677e-05
-9.53847e-06
-1.98378e-06
-4.68347e-05
-5.8266e-06
-1.54004e-06
-4.55864e-05
-6.92377e-07
-9.473e-07
-4.43675e-05
3.69305e-06
-6.44463e-07
-4.3416e-05
8.55247e-06
-7.97394e-07
-4.24808e-05
1.27591e-05
-1.50634e-06
-4.13482e-05
1.66849e-05
-2.56047e-06
-3.99491e-05
2.02463e-05
-3.62422e-06
-3.78711e-05
2.30665e-05
-4.68227e-06
-3.55604e-05
2.47559e-05
-4.78733e-06
-3.37406e-05
2.50352e-05
-3.7087e-06
-3.39885e-05
2.42087e-05
-1.58657e-06
-3.56906e-05
2.21323e-05
-1.6697e-07
-3.68365e-05
1.82752e-05
1.8623e-07
-3.63282e-05
1.30787e-05
-3.16131e-07
-3.32354e-05
6.97914e-06
-1.22447e-06
-2.76919e-05
1.12404e-06
-2.21547e-06
-2.06292e-05
-3.6997e-06
-2.87618e-06
-1.25491e-05
-7.3419e-06
-2.63504e-06
-4.50562e-06
-9.53431e-06
-1.47237e-06
1.74042e-06
-1.01879e-05
-2.76729e-08
5.18446e-06
-9.65229e-06
1.19089e-06
5.83686e-06
-8.9099e-06
2.02234e-06
3.21816e-06
-8.34393e-06
2.60382e-06
-2.32244e-06
-8.71773e-06
3.21583e-06
-8.40135e-06
-8.3127e-06
3.29702e-06
-1.04214e-05
-6.83255e-06
1.59123e-06
-8.22598e-06
-6.03325e-06
3.56521e-07
-4.72832e-06
-4.69878e-06
6.98062e-07
-3.37099e-06
-6.25865e-07
-3.63545e-06
-2.23944e-07
2.01341e-06
-3.43544e-06
-3.84161e-06
-6.57665e-07
-4.13367e-06
-2.3013e-06
1.17313e-07
-3.35156e-06
-3.74142e-06
-8.88313e-07
-2.73123e-06
-3.42389e-06
-5.86067e-07
-1.5666e-06
-3.60837e-06
-1.0247e-06
-7.01799e-07
-2.10426e-06
-4.91293e-07
-2.07544e-07
-1.11085e-06
-3.35456e-08
-8.61113e-08
3.04355e-07
-4.89133e-08
4.76737e-08
8.50808e-07
1.73647e-07
2.60798e-07
1.19351e-06
8.11077e-08
3.63072e-07
1.03908e-06
2.10026e-07
3.83557e-07
9.43979e-07
1.33314e-07
3.24497e-07
8.0505e-07
1.49498e-07
2.32903e-07
8.18909e-07