/*--------------------------------*- C++ -*----------------------------------*\
| =========                 |                                                 |
| \\      /  F ield         | OpenFOAM: The Open Source CFD Toolbox           |
|  \\    /   O peration     | Version:  2.3.0                                 |
|   \\  /    A nd           | Web:      www.OpenFOAM.org                      |
|    \\/     M anipulation  |                                                 |
\*---------------------------------------------------------------------------*/
FoamFile
{
    version     2.0;
    format      ascii;
    class       surfaceScalarField;
    location    "43";
    object      phi.water;
}
// * * * * * * * * * * * * * * * * * * * * * * * * * * * * * * * * * * * * * //

dimensions      [0 3 -1 0 0 0 0];

internalField   nonuniform List<scalar> 
16448
(
-1.25015e-06
-2.5334e-06
5.30581e-07
5.48051e-07
-2.55094e-06
7.57429e-07
5.53265e-07
-1.1335e-06
1.13206e-06
4.90874e-07
-9.92684e-07
1.0592e-06
1.70284e-07
-5.72508e-07
9.01247e-07
5.42887e-08
-6.95962e-07
8.21767e-07
1.09234e-08
-6.51654e-07
7.0279e-07
-1.75648e-08
-5.82555e-07
6.16963e-07
-1.15017e-07
-4.34159e-07
5.35503e-07
-2.88094e-07
-3.05253e-07
4.79609e-07
-4.68122e-07
-2.38355e-07
4.18988e-07
-5.40736e-07
-2.60245e-07
3.33202e-07
-5.12692e-07
-3.03919e-07
2.76332e-07
-3.96656e-07
-3.48155e-07
2.32467e-07
-2.65857e-07
-3.66583e-07
2.36212e-07
-1.24868e-07
-3.9144e-07
2.50793e-07
-3.37899e-09
-4.05597e-07
2.84501e-07
9.79281e-08
-4.20633e-07
3.19671e-07
1.71554e-07
-4.32574e-07
3.59299e-07
2.1674e-07
-4.40198e-07
3.95339e-07
2.33662e-07
-4.43462e-07
4.26865e-07
2.31533e-07
-4.4788e-07
4.5031e-07
2.18806e-07
-4.47963e-07
4.60992e-07
2.01332e-07
-4.43319e-07
4.6108e-07
1.83012e-07
-4.34041e-07
4.52656e-07
1.67515e-07
-4.21968e-07
4.37751e-07
1.58432e-07
-4.10693e-07
4.20075e-07
1.57478e-07
-4.00985e-07
4.02226e-07
1.62799e-07
-3.90774e-07
3.85756e-07
1.70356e-07
-3.7935e-07
3.72085e-07
1.78405e-07
-3.67519e-07
3.5978e-07
1.88205e-07
-3.56324e-07
3.46822e-07
2.02515e-07
-3.46033e-07
3.32045e-07
2.25381e-07
-3.37161e-07
3.14605e-07
2.62024e-07
-3.3064e-07
2.94335e-07
3.17773e-07
-3.27672e-07
2.72248e-07
3.95181e-07
-3.28648e-07
2.51599e-07
4.90032e-07
-3.32906e-07
2.38395e-07
5.88926e-07
-3.39021e-07
2.40505e-07
6.724e-07
-3.46985e-07
2.63878e-07
7.06011e-07
-3.52009e-07
3.18794e-07
6.54103e-07
-3.66511e-07
4.18829e-07
5.83439e-07
-4.52693e-07
5.24524e-07
6.7008e-07
-6.99802e-07
6.17574e-07
1.00928e-06
-1.05027e-06
7.19387e-07
1.53772e-06
-1.57171e-06
1.05406e-06
2.11861e-06
-1.92449e-06
1.35545e-06
2.05608e-06
-1.61279e-06
1.70181e-06
1.266e-06
-9.90476e-07
1.83688e-06
1.94475e-06
-2.92987e-06
2.36272e-06
7.06848e-06
-7.18768e-06
2.14506e-06
1.27999e-05
-6.54379e-06
8.44393e-07
1.6456e-05
-1.42615e-06
-2.18234e-06
1.67474e-05
3.29415e-07
-5.8897e-07
1.4995e-05
2.1187e-06
-2.72888e-07
1.20956e-05
1.17841e-06
1.61901e-06
5.71369e-06
6.07056e-06
5.00717e-07
1.01303e-05
5.02912e-06
-9.21521e-06
1.8124e-06
1.09884e-05
7.13594e-06
3.07217e-05
-8.59793e-07
-7.70514e-06
2.80826e-05
-2.63577e-05
-3.44632e-07
3.61307e-05
-1.61287e-05
6.1437e-06
3.53751e-05
-7.45583e-06
8.2025e-06
3.5871e-05
-6.5508e-06
6.05495e-06
3.59675e-05
-4.25435e-06
4.15779e-06
3.47414e-05
-1.80757e-06
3.03366e-06
3.25997e-05
2.236e-07
1.91812e-06
2.88461e-05
1.85562e-06
1.89797e-06
2.00952e-05
5.29823e-06
3.45264e-06
8.40533e-06
6.37964e-06
5.31026e-06
8.308e-08
3.52276e-06
4.79949e-06
-3.6013e-06
-2.73707e-08
3.71175e-06
-4.90842e-06
-1.82017e-06
3.12729e-06
-5.44764e-06
-1.70044e-06
2.23966e-06
-6.08143e-06
-3.81691e-07
1.01548e-06
-6.74233e-06
9.54437e-08
5.65461e-07
-7.6699e-06
4.51983e-07
4.75587e-07
-7.03487e-06
1.41461e-06
-2.04964e-06
-5.29325e-06
1.43726e-06
-3.17889e-06
-4.12941e-06
8.5351e-07
-2.01735e-06
-3.624e-06
1.87837e-07
-6.93241e-07
-3.19886e-06
-3.9378e-07
-3.13577e-08
-3.85082e-06
1.19722e-07
5.32238e-07
-5.06496e-06
3.2696e-07
8.87174e-07
-6.05859e-06
-5.85264e-07
1.5789e-06
-6.58741e-06
-1.32374e-06
1.85256e-06
-5.2709e-06
-2.20546e-06
8.88954e-07
-2.31922e-06
-1.99875e-06
-9.52922e-07
7.43604e-08
-4.33519e-07
-1.96007e-06
4.78893e-07
1.99071e-06
-2.39524e-06
2.77833e-07
2.46334e-06
-2.26228e-06
1.99794e-06
1.82276e-07
-1.90238e-06
3.91789e-06
-1.37578e-06
-5.44178e-07
3.48618e-06
-1.5642e-06
1.99591e-06
1.56993e-06
-1.27463e-06
3.19088e-06
-1.57687e-06
3.14681e-06
-1.88516e-06
-3.65513e-06
-2.50037e-07
-3.99942e-07
-3.88812e-06
-1.39026e-07
-3.50494e-08
-2.11668e-06
6.25161e-07
3.38065e-07
-1.77567e-06
4.16259e-07
3.3664e-07
-8.42401e-07
2.78995e-07
1.58529e-07
-7.61828e-07
2.51418e-07
-1.64688e-08
-5.99784e-07
1.30164e-07
-1.41684e-07
-5.32864e-07
8.09721e-08
-3.0169e-07
-3.39427e-07
6.84479e-08
-4.92896e-07
-2.03397e-07
9.0148e-08
-6.55392e-07
-1.37166e-07
6.1667e-08
-7.03074e-07
-2.03496e-07
-9.0478e-09
-6.70255e-07
-2.69961e-07
-6.65504e-08
-5.58269e-07
-3.47481e-07
-1.12512e-07
-4.22135e-07
-3.80232e-07
-1.22276e-07
-2.69958e-07
-4.21318e-07
-1.22183e-07
-1.31849e-07
-4.41532e-07
-1.02028e-07
-1.22796e-08
-4.6134e-07
-7.87693e-08
8.05806e-08
-4.74378e-07
-5.09664e-08
1.46477e-07
-4.80722e-07
-2.53243e-08
1.83267e-07
-4.79239e-07
-1.00716e-09
1.98507e-07
-4.74406e-07
1.12937e-08
1.9997e-07
-4.65791e-07
1.63694e-08
1.93409e-07
-4.52689e-07
1.59277e-08
1.83042e-07
-4.35038e-07
1.13443e-08
1.72213e-07
-4.15318e-07
4.14018e-09
1.65138e-07
-3.96573e-07
-7.09252e-09
1.63948e-07
-3.79457e-07
-2.03654e-08
1.67486e-07
-3.61804e-07
-3.25309e-08
1.73707e-07
-3.42293e-07
-4.3288e-08
1.82657e-07
-3.22799e-07
-5.36777e-08
1.96065e-07
-3.05199e-07
-6.4524e-08
2.16004e-07
-2.89869e-07
-7.60891e-08
2.45166e-07
-2.77533e-07
-8.87535e-08
2.86893e-07
-2.70467e-07
-1.01854e-07
3.45391e-07
-2.70493e-07
-1.156e-07
4.22952e-07
-2.78238e-07
-1.27884e-07
5.14158e-07
-2.91107e-07
-1.32886e-07
6.03084e-07
-3.02709e-07
-1.25104e-07
6.69178e-07
-3.12012e-07
-1.00887e-07
6.85155e-07
-3.12854e-07
-5.49926e-08
6.43439e-07
-3.33607e-07
9.11712e-09
6.21194e-07
-4.64055e-07
3.53288e-08
6.93449e-07
-8.30167e-07
6.44647e-08
8.11538e-07
-1.37522e-06
2.17608e-07
7.87393e-07
-2.17566e-06
6.41482e-07
1.12233e-06
-3.01189e-06
7.66014e-07
1.73134e-06
-3.22764e-06
1.01358e-06
1.9971e-06
-2.67723e-06
1.45729e-06
4.7046e-06
-6.85659e-06
1.35712e-06
8.72054e-06
-1.24628e-05
1.38027e-06
9.63424e-06
-9.0217e-06
1.68066e-06
8.29167e-06
-4.60763e-07
4.78903e-07
5.94552e-06
4.64245e-07
2.20575e-06
7.87206e-06
2.42483e-07
5.26983e-08
1.11458e-05
-1.88949e-06
-3.63945e-07
1.11204e-05
8.43094e-06
-1.97111e-06
1.86108e-05
1.01741e-05
-1.35247e-05
4.61319e-06
2.24775e-05
1.18627e-05
3.15152e-05
2.1065e-06
-5.56641e-06
1.89004e-05
-3.7242e-05
-6.16617e-06
1.83179e-05
-2.24323e-05
4.93097e-06
1.24746e-05
-9.87773e-06
8.26069e-06
9.46365e-06
-7.26462e-06
3.72473e-06
5.68158e-06
-3.23262e-06
2.76035e-06
4.75817e-06
-1.57485e-06
6.90683e-07
6.82037e-06
1.92206e-06
-3.76066e-06
7.32048e-06
5.16838e-06
-3.81287e-06
5.894e-06
8.05415e-06
-1.32943e-06
3.28337e-06
7.39134e-06
1.59892e-06
-2.30721e-07
3.47477e-06
3.56209e-06
-2.23746e-06
-1.03026e-06
3.00962e-06
-2.61889e-06
-3.23649e-06
1.79776e-06
-2.65367e-06
-2.50105e-06
8.35391e-07
-3.27526e-06
9.74167e-08
1.42482e-07
-4.61326e-06
1.39721e-06
3.62328e-08
-6.39087e-06
1.87942e-06
3.5017e-07
-6.31389e-06
2.70334e-06
-1.3657e-06
-4.99723e-06
2.90887e-06
-2.78827e-06
-3.47082e-06
2.08806e-06
-2.76096e-06
-3.46519e-06
9.80302e-07
-7.98102e-07
-4.24132e-06
-1.20913e-07
5.03271e-07
-5.33407e-06
-3.46821e-07
1.55929e-06
-6.32549e-06
-1.3154e-06
2.63379e-06
-7.38826e-06
-3.37492e-06
3.85242e-06
-7.87921e-06
-4.9271e-06
4.09431e-06
-6.53779e-06
-6.25445e-06
2.70757e-06
-3.54377e-06
-5.328e-06
3.35228e-07
-1.70575e-06
-2.08814e-06
-1.83402e-07
-1.06388e-06
1.0513e-06
2.97537e-07
8.31753e-07
1.75047e-06
-1.18275e-06
3.66942e-06
-8.47656e-08
-2.57062e-06
5.40596e-06
-7.02932e-07
-2.40939e-06
5.76484e-06
-4.02188e-07
-1.52089e-06
3.94631e-06
2.69099e-08
5.1698e-07
-5.75308e-07
2.94475e-06
-2.40175e-06
-3.99136e-06
-5.13894e-07
-1.19527e-06
-4.42571e-06
-6.5853e-07
-7.13335e-07
-2.71381e-06
1.23887e-07
-1.49253e-07
-2.28625e-06
-4.59108e-08
8.09629e-08
-9.72795e-07
-9.22993e-08
-1.11641e-08
-6.13582e-07
-4.98463e-08
-1.63814e-07
-2.96495e-07
-1.44476e-07
-2.85238e-07
-2.47213e-07
-1.59793e-07
-3.88499e-07
-6.64911e-08
-1.66524e-07
-4.6567e-07
2.09289e-08
-1.45656e-07
-5.50127e-07
8.80552e-08
-1.39749e-07
-5.78905e-07
1.17307e-08
-1.85966e-07
-5.82055e-07
-3.70268e-08
-2.29268e-07
-5.38646e-07
-1.20549e-07
-2.70045e-07
-4.68468e-07
-1.61675e-07
-2.88426e-07
-3.72342e-07
-2.1193e-07
-3.05333e-07
-2.71477e-07
-2.35822e-07
-3.06396e-07
-1.75318e-07
-2.55592e-07
-3.01795e-07
-9.27301e-08
-2.65101e-07
-2.91753e-07
-2.30345e-08
-2.6868e-07
-2.81658e-07
3.30635e-08
-2.62448e-07
-2.72817e-07
7.37818e-08
-2.48767e-07
-2.66293e-07
1.01209e-07
-2.31249e-07
-2.61904e-07
1.18387e-07
-2.10523e-07
-2.59287e-07
1.28747e-07
-1.87425e-07
-2.57912e-07
1.35236e-07
-1.63997e-07
-2.57755e-07
1.39458e-07
-1.41936e-07
-2.58796e-07
1.42339e-07
-1.21312e-07
-2.60965e-07
1.4582e-07
-1.00858e-07
-2.64352e-07
1.51725e-07
-7.93129e-08
-2.68807e-07
1.61791e-07
-5.89225e-08
-2.73847e-07
1.76921e-07
-4.14276e-08
-2.78804e-07
1.97383e-07
-2.69763e-08
-2.83234e-07
2.23314e-07
-1.63928e-08
-2.86946e-07
2.55236e-07
-1.1137e-08
-2.91097e-07
2.92045e-07
-1.27458e-08
-2.94396e-07
3.31027e-07
-2.15597e-08
-2.95467e-07
3.65295e-07
-3.30053e-08
-2.92177e-07
3.82374e-07
-3.78428e-08
-2.81719e-07
3.71598e-07
-3.66843e-08
-2.64317e-07
3.30927e-07
-3.06422e-08
-2.41299e-07
2.65917e-07
-4.72164e-08
-2.20843e-07
1.88922e-07
-1.75642e-07
-2.08518e-07
-2.67852e-08
-4.9267e-07
-1.13845e-07
-5.34133e-07
-1.02317e-06
1.68328e-07
-1.08739e-06
-2.09029e-06
4.8969e-07
-4.65056e-07
-3.93111e-06
3.2501e-07
1.2452e-06
-5.2199e-06
2.88335e-07
3.31578e-06
-5.07722e-06
3.93973e-07
7.66267e-06
-1.01647e-05
-8.73833e-07
8.7596e-06
-1.48869e-05
1.47066e-06
5.29994e-06
-8.0236e-06
2.53924e-06
3.19614e-06
-6.49098e-07
2.36578e-06
2.29882e-06
-1.43906e-06
2.74114e-06
6.74601e-06
-2.7059e-06
-1.44242e-06
1.00197e-05
-2.88816e-06
-2.39079e-06
1.10469e-05
1.22361e-05
-4.20343e-06
1.94488e-05
1.40918e-05
-1.3656e-05
3.10588e-06
3.72705e-05
1.14406e-05
3.41099e-05
-2.39879e-06
-1.40874e-06
1.52178e-05
-4.19112e-05
-7.81865e-06
9.48048e-06
-2.1298e-05
2.95233e-06
5.64672e-06
-1.01098e-05
4.06348e-06
-5.27102e-07
-3.78068e-06
2.68988e-06
-1.43805e-06
-2.84657e-06
5.24904e-07
-5.20324e-07
-3.34875e-07
-2.1577e-06
2.63141e-06
2.14613e-06
-3.37581e-06
3.18464e-06
7.17242e-06
-2.55727e-06
2.87203e-06
9.08157e-06
-7.1481e-07
1.48863e-06
7.0029e-06
1.77183e-06
-8.71711e-07
3.43787e-06
2.39724e-06
-1.25578e-06
-1.45557e-06
8.09379e-07
-1.6018e-06
-2.52648e-06
-3.63992e-07
-2.85162e-06
-1.18002e-06
-7.12074e-08
-3.84439e-06
7.19343e-07
3.70843e-07
-5.51023e-06
2.61887e-06
4.44182e-07
-7.09837e-06
3.57022e-06
-1.02657e-07
-7.09279e-06
4.23758e-06
-1.53983e-06
-6.08474e-06
4.6917e-06
-2.79088e-06
-5.62844e-06
3.66664e-06
-2.03488e-06
-7.611e-06
1.75255e-06
1.21032e-06
-9.90841e-06
-4.70949e-07
2.64745e-06
-1.13819e-05
-2.08635e-06
3.21303e-06
-1.23128e-05
-3.87965e-06
3.49509e-06
-1.30386e-05
-6.13584e-06
3.48681e-06
-1.25834e-05
-7.42854e-06
2.04621e-06
-9.58232e-06
-7.49198e-06
-1.76355e-06
-5.51017e-06
-5.95961e-06
-3.44055e-06
-3.28326e-06
-2.90198e-06
-1.41307e-06
-2.48856e-06
-3.79445e-07
6.36044e-07
-4.63166e-07
6.69595e-07
-9.44517e-07
2.83805e-06
8.79271e-07
-4.26525e-06
5.50932e-06
6.97922e-07
-4.07212e-06
6.25523e-06
7.06309e-07
-1.8544e-06
4.3941e-06
1.47611e-06
4.11918e-07
1.1885e-06
2.63029e-06
-2.80035e-06
-4.04633e-06
-2.86052e-07
-1.65783e-06
-4.72999e-06
-8.28883e-07
-1.2553e-06
-3.14969e-06
4.25594e-08
-6.64234e-07
-2.85493e-06
-1.39548e-08
-3.32489e-07
-1.27355e-06
-2.21166e-08
-2.11227e-07
-6.68144e-07
-5.98955e-08
-2.19048e-07
-9.81601e-08
-1.84547e-07
-2.63608e-07
-1.35138e-08
-1.84789e-07
-2.94967e-07
1.68593e-07
-2.00369e-07
-3.22771e-07
2.46816e-07
-1.96269e-07
-3.68635e-07
3.49552e-07
-2.14354e-07
-4.16662e-07
3.06758e-07
-2.46265e-07
-4.69752e-07
2.89153e-07
-2.72405e-07
-4.79495e-07
1.96705e-07
-3.07048e-07
-4.58884e-07
1.44108e-07
-3.25918e-07
-4.05756e-07
8.62867e-08
-3.50952e-07
-3.31716e-07
5.90957e-08
-3.68575e-07
-2.52611e-07
4.77949e-08
-3.82147e-07
-1.78565e-07
4.94481e-08
-3.88251e-07
-1.10756e-07
5.49926e-08
-3.91155e-07
-5.03678e-08
6.78523e-08
-3.90373e-07
2.35556e-09
8.58394e-08
-3.87024e-07
4.50226e-08
1.0739e-07
-3.81016e-07
7.67578e-08
1.3219e-07
-3.74157e-07
9.79277e-08
1.59284e-07
-3.67603e-07
1.10833e-07
1.85143e-07
-3.61763e-07
1.18435e-07
2.07855e-07
-3.57132e-07
1.23752e-07
2.27713e-07
-3.54072e-07
1.29205e-07
2.46956e-07
-3.53021e-07
1.36003e-07
2.6739e-07
-3.53245e-07
1.44983e-07
2.86683e-07
-3.54357e-07
1.56719e-07
3.02852e-07
-3.55776e-07
1.72183e-07
3.14773e-07
-3.57005e-07
1.91978e-07
3.21543e-07
-3.575e-07
2.13568e-07
3.23415e-07
-3.55934e-07
2.32213e-07
3.2037e-07
-3.51513e-07
2.41499e-07
3.1267e-07
-3.43285e-07
2.34212e-07
3.05314e-07
-3.30743e-07
2.04328e-07
3.07582e-07
-3.15264e-07
1.45508e-07
3.18598e-07
-2.96106e-07
6.15628e-08
3.29711e-07
-2.76022e-07
-3.48591e-08
3.04579e-07
-2.54272e-07
-1.95453e-07
1.82112e-07
-1.93218e-07
-5.72046e-07
-1.17053e-07
1.01343e-08
-1.11834e-06
-7.64642e-07
3.07467e-07
-1.20315e-06
-2.3408e-06
3.78865e-07
8.58855e-08
-5.13223e-06
-3.1805e-08
2.52702e-06
-7.01302e-06
-5.99602e-07
6.52566e-06
-7.80668e-06
-1.14608e-06
1.1588e-05
-1.28197e-05
-2.30401e-06
9.2146e-06
-1.42182e-05
1.79041e-06
1.07097e-06
-4.68727e-06
4.83909e-06
-4.59584e-06
4.52327e-07
4.59521e-06
-5.0447e-06
-2.22547e-06
1.15662e-06
-1.88269e-06
-3.51458e-06
-2.2285e-06
-1.81214e-06
-7.75467e-07
-2.43773e-06
1.07505e-05
7.85378e-06
-6.98551e-06
2.14461e-05
1.24052e-05
-1.08446e-05
1.39565e-05
4.6841e-05
1.44403e-05
3.68504e-05
-6.64396e-07
-2.02761e-06
8.34941e-06
-4.19372e-05
-7.01207e-06
9.6471e-07
-1.82883e-05
3.48264e-06
2.40733e-06
-1.27348e-05
1.18092e-06
-6.02841e-06
1.96811e-06
2.68699e-06
-5.37557e-06
-1.11893e-06
-2.38055e-06
-4.53869e-06
3.34898e-06
-4.52098e-06
-9.90251e-07
5.45576e-06
-6.85831e-06
1.22517e-06
1.07409e-05
-5.784e-06
8.54376e-07
1.1303e-05
-1.85036e-06
-2.15549e-06
8.14845e-06
1.86463e-06
-3.13577e-06
2.27136e-06
2.14701e-06
-2.7966e-06
-2.23723e-06
4.42512e-07
-2.5793e-06
-2.72118e-06
-2.29066e-08
-4.33072e-06
8.21025e-07
-2.49791e-07
-6.23479e-06
2.46978e-06
1.53537e-07
-8.28934e-06
4.03668e-06
6.36754e-07
-1.02746e-05
5.27906e-06
2.76579e-07
-1.14103e-05
5.40761e-06
-3.43872e-08
-1.2084e-05
4.87575e-06
4.89714e-07
-1.38535e-05
2.44731e-06
2.98913e-06
-1.53156e-05
-5.76754e-07
3.79161e-06
-1.60039e-05
-2.51431e-06
2.73156e-06
-1.67661e-05
-4.17357e-06
2.84937e-06
-1.75169e-05
-5.703e-06
2.57405e-06
-1.72301e-05
-6.67417e-06
2.51529e-07
-1.52965e-05
-7.18928e-06
-2.17283e-06
-1.1933e-05
-6.19208e-06
-4.66348e-06
-8.25686e-06
-3.96992e-06
-5.6658e-06
-6.10963e-06
-1.99018e-06
-3.05903e-06
-4.99173e-06
-6.48802e-07
-8.48549e-07
-2.7385e-06
7.85671e-07
-2.3693e-06
1.30266e-06
2.12033e-06
-5.28222e-06
5.10645e-06
5.63265e-08
-3.16219e-06
5.9097e-06
3.37569e-07
-4.34512e-07
3.85627e-06
2.25802e-06
1.27153e-06
2.45392e-06
2.59085e-06
-3.0868e-06
-3.96651e-06
-7.88141e-10
-2.0047e-06
-4.9534e-06
-8.50673e-07
-1.69751e-06
-3.50262e-06
5.50343e-08
-1.0455e-06
-3.48091e-06
-1.78404e-08
-6.32638e-07
-1.85226e-06
1.75018e-07
-3.19796e-07
-1.01629e-06
4.3797e-08
-2.0539e-07
-4.3569e-08
-1.61786e-07
-2.22864e-07
1.85556e-07
-1.77217e-07
-1.84445e-07
3.48529e-07
-2.14798e-07
-1.78869e-07
4.50376e-07
-2.06937e-07
-2.03471e-07
5.91401e-07
-2.15678e-07
-2.74422e-07
5.98847e-07
-2.20296e-07
-3.653e-07
6.10302e-07
-2.2965e-07
-4.1523e-07
5.00034e-07
-2.53098e-07
-4.21314e-07
4.20015e-07
-2.69532e-07
-3.89209e-07
3.50252e-07
-2.95863e-07
-3.33111e-07
3.2388e-07
-3.20694e-07
-2.71877e-07
3.30766e-07
-3.44069e-07
-2.11062e-07
3.50228e-07
-3.61464e-07
-1.51016e-07
3.69732e-07
-3.74698e-07
-9.18707e-08
3.92063e-07
-3.83282e-07
-3.50295e-08
4.1652e-07
-3.87486e-07
1.50334e-08
4.44062e-07
-3.86706e-07
5.55735e-08
4.73305e-07
-3.81656e-07
8.56836e-08
5.02753e-07
-3.73578e-07
1.06714e-07
5.28567e-07
-3.64479e-07
1.2159e-07
5.48565e-07
-3.556e-07
1.32675e-07
5.64372e-07
-3.4778e-07
1.40711e-07
5.79896e-07
-3.40987e-07
1.46705e-07
5.96574e-07
-3.35208e-07
1.52333e-07
6.113e-07
-3.30242e-07
1.59451e-07
6.21453e-07
-3.25733e-07
1.68565e-07
6.26761e-07
-3.21074e-07
1.78573e-07
6.2696e-07
-3.15417e-07
1.84537e-07
6.25068e-07
-3.07564e-07
1.76661e-07
6.24342e-07
-2.96059e-07
1.43608e-07
6.26386e-07
-2.80563e-07
7.90033e-08
6.32533e-07
-2.62526e-07
-1.50198e-08
6.4595e-07
-2.44172e-07
-1.2906e-07
6.56148e-07
-2.23333e-07
-2.39445e-07
6.39108e-07
-1.98674e-07
-3.40118e-07
5.69094e-07
-1.6253e-07
-4.75817e-07
3.86447e-07
-6.46411e-08
-7.45905e-07
2.46011e-08
1.38525e-07
-9.30659e-07
-8.14898e-07
2.6231e-07
-1.54111e-07
-3.06371e-06
6.94165e-09
1.85363e-06
-6.32794e-06
-7.40814e-07
5.22724e-06
-8.68845e-06
-1.58456e-06
1.20662e-05
-1.23786e-05
-2.12444e-06
1.62233e-05
-1.5588e-05
-1.32136e-06
1.16117e-05
-1.16479e-05
2.03365e-06
1.3287e-06
-2.27687e-07
5.80027e-06
-5.38675e-06
2.35835e-06
4.7977e-06
-7.57421e-06
2.87418e-08
-1.15761e-07
-9.86856e-06
8.44339e-07
-1.96529e-06
-1.36496e-05
5.39086e-06
-2.75868e-06
5.76934e-06
4.38029e-06
-1.36203e-05
1.48665e-05
1.72051e-05
-1.57294e-05
1.90095e-05
5.98369e-05
4.1555e-06
3.8474e-05
1.06452e-06
-1.71487e-06
4.29712e-06
-3.8742e-05
-6.87635e-06
-6.65929e-06
-1.37392e-05
5.45582e-06
-6.6295e-06
-1.3676e-05
8.98994e-07
-8.69511e-06
1.16371e-06
2.86819e-06
-7.15453e-06
5.23754e-07
-3.18597e-06
-3.84485e-06
5.96418e-06
-5.92755e-06
-3.21182e-07
9.52467e-06
-7.59429e-06
-9.4429e-08
1.31237e-05
-2.60573e-06
-3.10482e-06
1.13277e-05
2.99428e-06
-6.59084e-06
5.23825e-06
6.40249e-06
-8.38258e-06
1.3934e-08
4.04867e-06
-1.08135e-05
-1.51121e-06
1.70113e-06
-1.54565e-05
-5.56504e-07
2.4732e-06
-1.96091e-05
1.26718e-06
3.70536e-06
-2.20184e-05
1.96038e-06
2.91896e-06
-2.35087e-05
2.60236e-06
2.92526e-06
-2.4725e-05
3.05886e-06
3.43808e-06
-2.56303e-05
2.24364e-06
4.07058e-06
-2.60703e-05
6.38646e-07
4.67866e-06
-2.63276e-05
-1.80286e-06
4.50815e-06
-2.64437e-05
-3.91107e-06
3.44828e-06
-2.65361e-05
-4.95725e-06
2.53247e-06
-2.6223e-05
-5.88057e-06
1.39031e-06
-2.48324e-05
-6.32575e-06
-7.72539e-07
-2.32975e-05
-5.19525e-06
-3.01839e-06
-2.08154e-05
-4.41349e-06
-5.26224e-06
-1.74496e-05
-2.94941e-06
-6.61163e-06
-1.46494e-05
-1.73624e-06
-5.03529e-06
-1.1532e-05
-1.21524e-06
-3.89308e-06
-8.12649e-06
-6.21013e-07
-3.43381e-06
-4.36171e-06
2.3664e-07
-3.21588e-06
-5.56373e-09
9.5437e-07
-3.19022e-06
3.85556e-06
-1.18088e-06
-2.62396e-06
5.62987e-06
5.4434e-07
-1.98109e-06
3.48832e-06
2.99846e-06
1.4011e-06
3.72498e-06
2.21726e-06
-3.38502e-06
-3.75921e-06
3.45674e-07
-2.3847e-06
-5.13661e-06
-8.10876e-07
-2.10132e-06
-3.76318e-06
-1.36738e-08
-1.2763e-06
-3.92935e-06
-3.68059e-07
-7.67997e-07
-2.5539e-06
2.02337e-07
-3.31605e-07
-1.52425e-06
8.06175e-08
-1.4483e-07
-1.21194e-07
-1.00337e-07
-1.63886e-07
3.28601e-07
-1.18645e-07
-8.62061e-08
4.74511e-07
-1.99622e-07
-7.23544e-08
6.08408e-07
-1.69086e-07
-8.05326e-08
7.88518e-07
-1.86852e-07
-1.77978e-07
8.70916e-07
-1.7336e-07
-3.02216e-07
9.13475e-07
-1.77967e-07
-3.68546e-07
7.67973e-07
-2.00986e-07
-3.67583e-07
6.48866e-07
-2.29192e-07
-3.25918e-07
5.72405e-07
-2.63278e-07
-2.69997e-07
5.62069e-07
-2.93576e-07
-2.23335e-07
6.01667e-07
-3.1704e-07
-1.86072e-07
6.48973e-07
-3.35472e-07
-1.51167e-07
6.8561e-07
-3.50254e-07
-1.14788e-07
7.16345e-07
-3.60138e-07
-7.491e-08
7.42181e-07
-3.65026e-07
-3.59248e-08
7.69098e-07
-3.63532e-07
-1.00152e-09
7.96252e-07
-3.57385e-07
2.56529e-08
8.24597e-07
-3.48033e-07
4.59681e-08
8.45208e-07
-3.36483e-07
6.28332e-08
8.56636e-07
-3.2449e-07
7.80104e-08
8.62616e-07
-3.12958e-07
9.07508e-08
8.69186e-07
-3.01589e-07
9.98173e-08
8.79225e-07
-2.91244e-07
1.05213e-07
8.88847e-07
-2.82491e-07
1.07877e-07
8.94281e-07
-2.75001e-07
1.07219e-07
8.95297e-07
-2.67408e-07
1.01386e-07
8.91764e-07
-2.58456e-07
8.26226e-08
8.9031e-07
-2.45986e-07
3.90436e-08
8.96952e-07
-2.28481e-07
-3.90673e-08
9.11293e-07
-2.06266e-07
-1.49872e-07
9.25791e-07
-1.81857e-07
-2.77925e-07
9.30996e-07
-1.56414e-07
-3.96263e-07
9.0528e-07
-1.30138e-07
-4.79015e-07
8.20723e-07
-9.80607e-08
-5.44015e-07
6.8263e-07
-4.67173e-08
-6.56132e-07
4.6192e-07
4.05641e-08
-9.29398e-07
1.59392e-07
1.50425e-07
-8.63595e-07
-8.703e-07
2.51431e-08
6.05545e-07
-3.75037e-06
-7.13718e-07
3.53022e-06
-7.46415e-06
-1.67045e-06
8.3583e-06
-1.14923e-05
-1.80794e-06
1.54537e-05
-1.80541e-05
-1.32109e-06
1.70526e-05
-1.75749e-05
4.16929e-07
7.76726e-06
-5.57636e-06
3.23396e-06
-5.69935e-06
6.2799e-06
6.92299e-06
-1.55774e-05
6.1694e-06
6.07813e-06
-2.44277e-05
7.46934e-06
1.40156e-06
-3.24152e-05
1.15911e-05
-2.70459e-06
-3.26719e-05
1.55182e-05
-1.00199e-05
-2.84525e-05
1.64748e-05
-1.42306e-05
-2.39868e-05
2.75508e-05
-1.80161e-05
2.58485e-05
5.16297e-05
-1.29037e-05
4.22126e-05
-4.24045e-06
-3.90308e-07
-2.03217e-06
-2.88271e-05
-4.77434e-06
-1.19678e-05
-1.05379e-05
5.30335e-06
-1.24354e-05
-1.43793e-05
1.10487e-06
-8.69804e-06
-4.54689e-06
1.9224e-06
-6.01321e-06
-8.10499e-07
-1.3678e-06
-3.38248e-06
4.59927e-06
-1.26405e-06
-5.16156e-06
7.19957e-06
4.13269e-06
-9.48954e-06
1.02805e-05
7.21492e-06
-1.36857e-05
8.56952e-06
6.99741e-06
-1.80977e-05
5.04953e-06
4.6114e-06
-2.87545e-05
5.63379e-06
5.03802e-06
-4.12531e-05
4.86314e-06
6.13412e-06
-4.7444e-05
7.95137e-07
4.83626e-06
-4.88423e-05
-1.95001e-06
4.60286e-06
-4.85289e-05
-2.96426e-06
4.59463e-06
-4.74261e-05
-2.70605e-06
4.1928e-06
-4.63466e-05
-2.25691e-06
4.22887e-06
-4.50828e-05
-3.05496e-06
4.02619e-06
-4.3659e-05
-4.10762e-06
3.30753e-06
-4.24982e-05
-5.41655e-06
2.43187e-06
-4.12055e-05
-6.63159e-06
1.39624e-06
-3.9744e-05
-6.64685e-06
1.89513e-07
-3.80829e-05
-6.54159e-06
-1.04711e-06
-3.54504e-05
-6.4067e-06
-2.61421e-06
-3.20836e-05
-4.60837e-06
-4.01999e-06
-2.83912e-05
-3.40264e-06
-4.76562e-06
-2.4946e-05
-2.38047e-06
-4.06697e-06
-2.19187e-05
-1.78065e-06
-3.01874e-06
-1.86882e-05
-1.67639e-06
-2.79746e-06
-1.49463e-05
-1.67985e-06
-2.70861e-06
-9.80046e-06
-2.20485e-06
-2.72755e-06
-4.9748e-06
-1.37153e-06
-2.51716e-06
-1.52894e-06
-1.78008e-06
-2.85928e-06
1.27037e-06
6.31934e-07
-2.89341e-06
1.76451e-06
3.42773e-06
-9.24104e-07
4.89751e-06
5.91881e-07
-3.65042e-06
-3.35036e-06
7.18321e-07
-2.79654e-06
-5.06725e-06
-9.19096e-07
-2.54213e-06
-3.77872e-06
-2.30632e-07
-1.48842e-06
-4.034e-06
-9.40057e-07
-8.06187e-07
-3.03646e-06
-1.90294e-07
-2.85131e-07
-1.90743e-06
-1.30085e-07
-1.21868e-07
-1.36884e-07
-1.38186e-07
-1.63746e-07
4.81847e-07
-1.04005e-07
-4.86623e-08
5.8511e-07
-2.21694e-07
-2.61179e-08
7.55721e-07
-1.67285e-07
-1.69971e-08
9.57052e-07
-1.75678e-07
-1.01857e-07
1.08323e-06
-1.26419e-07
-2.09823e-07
1.15103e-06
-1.28989e-07
-2.58899e-07
9.83538e-07
-1.66415e-07
-2.48563e-07
8.5989e-07
-2.21315e-07
-2.12847e-07
7.99591e-07
-2.62973e-07
-1.7463e-07
8.1658e-07
-2.92787e-07
-1.53063e-07
8.86631e-07
-3.06648e-07
-1.46617e-07
9.5716e-07
-3.14757e-07
-1.45869e-07
1.00617e-06
-3.21483e-07
-1.45717e-07
1.04166e-06
-3.25657e-07
-1.40847e-07
1.06458e-06
-3.27493e-07
-1.31513e-07
1.08394e-06
-3.24392e-07
-1.20137e-07
1.10115e-06
-3.16507e-07
-1.12419e-07
1.11966e-06
-3.03007e-07
-1.05353e-07
1.12809e-06
-2.90174e-07
-9.43616e-08
1.12429e-06
-2.78831e-07
-7.99829e-08
1.11655e-06
-2.68494e-07
-6.48183e-08
1.11234e-06
-2.58467e-07
-5.44141e-08
1.11719e-06
-2.48537e-07
-5.16183e-08
1.12532e-06
-2.39406e-07
-5.79765e-08
1.13116e-06
-2.30682e-07
-7.59262e-08
1.13427e-06
-2.21147e-07
-1.06161e-07
1.13188e-06
-2.10014e-07
-1.53769e-07
1.13285e-06
-1.95004e-07
-2.2469e-07
1.14351e-06
-1.75694e-07
-3.19618e-07
1.16081e-06
-1.54544e-07
-4.29529e-07
1.17134e-06
-1.3556e-07
-5.27529e-07
1.14714e-06
-1.17959e-07
-5.87104e-07
1.06324e-06
-9.81398e-08
-6.08941e-07
9.1168e-07
-6.86295e-08
-6.419e-07
7.41154e-07
-2.43963e-08
-8.27102e-07
6.02569e-07
4.7868e-08
-1.13059e-06
3.89398e-07
8.6231e-08
-9.00191e-07
-7.98848e-07
-2.61191e-07
7.11124e-07
-4.06229e-06
-1.21359e-06
3.94225e-06
-8.60509e-06
-1.85623e-06
7.90985e-06
-1.43352e-05
-8.77869e-07
7.83814e-06
-1.91816e-05
1.37362e-06
-1.84117e-06
-1.12759e-05
3.48758e-06
-1.59205e-05
2.29729e-06
6.40707e-06
-2.51984e-05
9.88704e-06
5.66283e-06
-3.43707e-05
8.92297e-06
6.35544e-06
-4.24535e-05
9.71502e-06
5.86296e-06
-4.5877e-05
1.39343e-05
1.05886e-06
-4.35142e-05
1.83528e-05
-5.26083e-06
-3.87537e-05
2.06355e-05
-7.28672e-06
-2.89559e-05
2.4451e-05
-8.90594e-06
3.84304e-05
2.7706e-05
-1.14876e-05
3.80003e-05
-1.424e-06
1.96944e-07
-1.89963e-05
-1.03925e-05
4.30033e-07
-2.5809e-05
-7.97044e-06
3.62478e-06
-3.05026e-05
-1.04599e-05
7.2377e-07
-2.55187e-05
-9.883e-06
2.98979e-07
-1.70517e-05
-8.56976e-06
-7.43511e-07
-1.02428e-05
-3.6894e-06
1.50286e-06
-9.75607e-06
2.84594e-06
3.94391e-06
-1.48455e-05
1.02705e-05
5.19817e-06
-2.61559e-05
1.38666e-05
6.09985e-06
-4.25799e-05
1.58151e-05
5.7117e-06
-5.67413e-05
1.44677e-05
5.37241e-06
-6.2719e-05
7.37897e-06
3.50294e-06
-6.35541e-05
-1.2549e-06
2.89388e-06
-6.33841e-05
-4.82371e-06
2.68663e-06
-6.17245e-05
-6.50042e-06
1.84202e-06
-5.97662e-05
-5.75276e-06
1.05483e-06
-5.80519e-05
-4.68657e-06
6.89596e-07
-5.59885e-05
-4.81117e-06
-3.26083e-07
-5.41843e-05
-4.98451e-06
-9.5398e-07
-5.30018e-05
-5.29013e-06
-1.34323e-06
-5.20434e-05
-5.76201e-06
-1.89408e-06
-5.0851e-05
-5.40705e-06
-2.52304e-06
-4.93301e-05
-5.0104e-06
-3.18166e-06
-4.72811e-05
-4.63271e-06
-3.98318e-06
-4.4081e-05
-3.15324e-06
-4.84515e-06
-4.08151e-05
-2.69278e-06
-4.15374e-06
-3.78704e-05
-2.50956e-06
-2.95421e-06
-3.46608e-05
-2.30266e-06
-2.81972e-06
-3.17047e-05
-2.72893e-06
-2.02025e-06
-2.83989e-05
-2.76212e-06
-2.34543e-06
-2.39976e-05
-4.40598e-06
-2.35257e-06
-1.85607e-05
-4.67606e-06
-2.27045e-06
-1.30374e-05
-5.31867e-06
-2.09946e-06
-7.79938e-06
-3.00756e-06
-1.66776e-06
-3.8931e-06
1.69017e-06
-2.22566e-06
3.70344e-06
-2.80354e-06
-3.71299e-06
-2.80509e-06
1.34598e-06
-3.22718e-06
-4.71605e-06
-8.34602e-07
-3.19379e-06
-3.68941e-06
-1.15125e-07
-2.0299e-06
-4.11019e-06
-1.07757e-06
-1.06661e-06
-3.54834e-06
-4.39974e-07
-2.53917e-07
-2.41185e-06
-3.00499e-07
-3.93752e-08
-2.16126e-07
-1.25804e-07
-7.45895e-08
5.73251e-07
-4.73135e-08
-1.19337e-08
8.12163e-07
-2.84502e-07
-5.17038e-08
9.78003e-07
-1.79597e-07
-1.89703e-08
1.14071e-06
-2.13925e-07
-2.35236e-08
1.27219e-06
-1.83342e-07
-1.65112e-08
1.35779e-06
-2.12985e-07
-3.92396e-09
1.24892e-06
-2.77811e-07
4.47261e-09
1.1933e-06
-3.41352e-07
-1.54126e-08
1.20251e-06
-3.82803e-07
-5.20005e-08
1.2695e-06
-4.16023e-07
-9.61511e-08
1.36481e-06
-4.3379e-07
-1.41937e-07
1.45142e-06
-4.48221e-07
-1.89386e-07
1.51507e-06
-4.61229e-07
-2.33057e-07
1.55576e-06
-4.70213e-07
-2.61639e-07
1.57032e-06
-4.76997e-07
-2.78072e-07
1.58048e-06
-4.79997e-07
-2.84678e-07
1.58812e-06
-4.80317e-07
-2.81566e-07
1.59487e-06
-4.78357e-07
-2.73324e-07
1.59494e-06
-4.75185e-07
-2.61224e-07
1.58556e-06
-4.73527e-07
-2.44785e-07
1.5719e-06
-4.71975e-07
-2.27232e-07
1.56413e-06
-4.69561e-07
-2.17094e-07
1.5719e-06
-4.65047e-07
-2.19735e-07
1.58755e-06
-4.59787e-07
-2.37268e-07
1.60226e-06
-4.53733e-07
-2.71964e-07
1.6152e-06
-4.46393e-07
-3.22306e-07
1.62079e-06
-4.3869e-07
-3.91451e-07
1.63078e-06
-4.28903e-07
-4.76214e-07
1.64479e-06
-4.16609e-07
-5.65862e-07
1.65378e-06
-4.03445e-07
-6.48004e-07
1.64198e-06
-3.88579e-07
-6.99785e-07
1.58087e-06
-3.82008e-07
-7.00537e-07
1.44711e-06
-3.83092e-07
-6.71175e-07
1.25783e-06
-3.75322e-07
-6.99971e-07
1.11709e-06
-3.46321e-07
-9.4276e-07
1.14199e-06
-2.93619e-07
-1.3637e-06
1.17271e-06
-3.48267e-07
-1.34347e-06
1.18173e-07
-8.86888e-07
-4.90102e-07
-2.9263e-06
-1.83989e-06
-6.76688e-07
-6.4955e-06
-1.6136e-06
-8.52403e-06
-8.55518e-06
2.25888e-06
-2.85015e-05
-6.39713e-06
7.08806e-06
-4.89983e-05
5.07358e-07
8.84343e-06
-5.87616e-05
2.78557e-06
9.41022e-06
-6.27027e-05
2.21428e-06
1.15941e-05
-6.53005e-05
-3.61178e-07
1.18584e-05
-6.61414e-05
-1.09695e-06
1.16154e-05
-6.39179e-05
1.79132e-06
9.79104e-06
-5.76294e-05
2.8866e-06
9.18648e-06
-5.18501e-05
2.65555e-06
1.38893e-05
-3.55527e-05
-2.14574e-06
7.37938e-06
4.84044e-05
-1.33798e-05
-4.85786e-06
4.14243e-05
2.76874e-06
8.03673e-07
-2.92347e-05
1.58092e-05
1.78596e-06
-3.85358e-05
-3.00246e-06
3.6342e-06
-4.55694e-05
-2.48838e-06
-9.37555e-07
-4.56655e-05
-7.16772e-06
-2.61726e-06
-4.02827e-05
-9.11865e-06
-4.84013e-06
-3.30745e-05
-8.1854e-06
-2.7074e-06
-2.69941e-05
-3.23914e-06
1.997e-08
-2.66575e-05
6.79084e-06
3.18112e-06
-3.68128e-05
1.76232e-05
6.41743e-06
-5.13316e-05
2.14061e-05
8.96468e-06
-6.23494e-05
1.75521e-05
7.98919e-06
-6.30723e-05
3.71584e-06
4.42579e-06
-6.14641e-05
-7.51274e-06
4.72575e-06
-6.02418e-05
-1.26742e-05
6.74866e-06
-6.06647e-05
-1.21852e-05
6.24479e-06
-6.24673e-05
-8.2448e-06
4.40777e-06
-6.39977e-05
-5.75903e-06
2.68701e-06
-6.42382e-05
-4.43096e-06
-6.96122e-08
-6.40082e-05
-3.20716e-06
-1.94085e-06
-6.35083e-05
-2.56913e-06
-3.18172e-06
-6.32073e-05
-1.93506e-06
-4.14798e-06
-6.22146e-05
-1.81019e-06
-4.67972e-06
-6.0862e-05
-1.25373e-06
-5.26098e-06
-5.86834e-05
-9.58456e-07
-6.06177e-06
-5.51612e-05
-9.73751e-07
-5.9354e-06
-5.26673e-05
-1.38685e-06
-4.00094e-06
-5.00826e-05
-1.96407e-06
-3.27989e-06
-4.75438e-05
-2.16808e-06
-2.82822e-06
-4.44839e-05
-2.92138e-06
-3.05356e-06
-4.11601e-05
-2.87063e-06
-3.47751e-06
-3.70663e-05
-4.44663e-06
-4.4715e-06
-3.16351e-05
-6.10469e-06
-4.53241e-06
-2.56078e-05
-7.9592e-06
-3.98859e-06
-1.77661e-05
-8.64775e-06
-2.78136e-06
-9.37954e-06
-6.45433e-06
-6.44255e-07
-5.51903e-06
-1.14737e-06
-3.30728e-06
-1.68931e-06
2.33993e-06
-3.5127e-06
-4.33753e-06
-1.75201e-07
-3.9481e-06
-3.487e-06
2.39368e-07
-2.81385e-06
-4.27577e-06
-9.57891e-07
-1.61484e-06
-4.1015e-06
-6.32302e-07
-3.13924e-07
-3.15907e-06
-5.43217e-07
9.32204e-08
-7.9431e-07
1.79361e-07
-6.35671e-09
3.31938e-07
3.49348e-07
7.01316e-10
8.01535e-07
1.05645e-08
-7.71407e-08
9.47281e-07
1.11897e-07
1.2682e-08
1.03288e-06
2.08991e-08
6.9706e-08
1.12035e-06
9.6434e-08
1.48068e-07