/*--------------------------------*- C++ -*----------------------------------*\
| =========                 |                                                 |
| \\      /  F ield         | OpenFOAM: The Open Source CFD Toolbox           |
|  \\    /   O peration     | Version:  2.3.0                                 |
|   \\  /    A nd           | Web:      www.OpenFOAM.org                      |
|    \\/     M anipulation  |                                                 |
\*---------------------------------------------------------------------------*/
FoamFile
{
    version     2.0;
    format      ascii;
    class       volVectorField;
    location    "43";
    object      U.water;
}
// * * * * * * * * * * * * * * * * * * * * * * * * * * * * * * * * * * * * * //

dimensions      [0 1 -1 0 0 0 0];

internalField   nonuniform List<vector> 
6144
(
(0.0111753 0.0206415 -0.000492362)
(0.0108653 -0.00340341 -0.00167616)
(0.00428915 -0.00373639 -0.00259828)
(0.00356955 -0.0036378 -0.00251545)
(0.00238959 -0.00226003 -0.00193497)
(0.00336701 -4.32489e-05 -0.00159966)
(0.00325087 -0.000553992 -0.00123786)
(0.0028935 0.000313196 -0.00087886)
(0.00221429 2.80153e-05 -0.000507167)
(0.00160872 0.00133656 6.81388e-05)
(0.00121365 0.00243953 0.000542283)
(0.00122459 0.0034037 0.00114786)
(0.00135399 0.00346852 0.00147365)
(0.00147538 0.00295766 0.00189012)
(0.00154329 0.00209001 0.00187874)
(0.00165208 0.00123868 0.00177118)
(0.00173522 0.000365992 0.00150751)
(0.00182377 -0.000330841 0.00124158)
(0.00190072 -0.000897604 0.00096389)
(0.00195857 -0.00126296 0.000717212)
(0.0019969 -0.00145621 0.000500334)
(0.00203153 -0.0014833 0.000329527)
(0.00204396 -0.00142721 0.000250353)
(0.00203379 -0.00132414 0.000251829)
(0.00200254 -0.00120605 0.000320796)
(0.00195665 -0.00109335 0.000442608)
(0.00190932 -0.00101082 0.000583799)
(0.00186363 -0.000978262 0.00072547)
(0.00181575 -0.000996106 0.000858718)
(0.00176503 -0.00104046 0.000972085)
(0.00171316 -0.00108834 0.00107573)
(0.00166217 -0.00113995 0.0011857)
(0.00161169 -0.00120929 0.00131229)
(0.00156257 -0.00131757 0.00146389)
(0.00151702 -0.00149386 0.00164446)
(0.00148062 -0.00177434 0.00184589)
(0.00145688 -0.00218622 0.0020407)
(0.00145013 -0.00272993 0.00217169)
(0.00146521 -0.0033457 0.00217591)
(0.00151147 -0.00393327 0.0020009)
(0.00158394 -0.00435412 0.00155659)
(0.00164027 -0.00427952 0.000895724)
(0.0019607 -0.00372024 0.000363989)
(0.00297718 -0.00338535 1.10093e-05)
(0.00434227 -0.00515985 -7.92568e-05)
(0.00611346 -0.00763198 -0.00167289)
(0.00736046 -0.0121605 -0.00264299)
(0.00587874 -0.0143259 -0.00453064)
(0.00417687 -0.00956645 -0.00431328)
(0.0101782 -0.0040873 -0.00633325)
(0.0295648 -0.0242047 -0.00644604)
(0.0336154 -0.06431 0.00559066)
(0.0207996 -0.094215 0.0189913)
(0.0100396 -0.109679 0.00541293)
(-0.00219708 -0.0934253 -0.00367555)
(-0.00933512 -0.100873 -0.00725804)
(-0.0318533 -0.027164 -0.00174762)
(-0.017523 -0.0693546 0.0592779)
(-0.0482694 -0.0359836 -0.0351842)
(0.0187724 -0.0206311 0.0525437)
(0.147286 -0.30315 0.0734448)
(0.106976 -0.153191 0.0356658)
(0.0723181 -0.210218 0.0127937)
(0.058154 -0.229441 0.00579489)
(0.0534787 -0.223797 0.00781495)
(0.0412781 -0.218835 0.00564334)
(0.0342474 -0.209262 0.0081615)
(0.0248686 -0.193853 0.00647775)
(-0.0060237 -0.166082 -0.00632882)
(-0.0288967 -0.0764096 -0.00904624)
(-0.0162323 -0.0196669 -0.00223448)
(-0.000298718 0.019061 0.00683167)
(0.0103517 0.0265941 0.0100779)
(0.0107696 0.0306891 0.0134051)
(0.00450422 0.0345525 0.0186943)
(0.000803479 0.0393894 0.0181374)
(0.000365398 0.046284 0.012209)
(-0.00145319 0.0433519 0.00523502)
(0.000830444 0.0369207 0.00373432)
(-0.000383134 0.0277308 -0.000314728)
(-0.00207857 0.0237251 0.000145521)
(0.00169342 0.0202424 0.00251003)
(0.00158327 0.0190548 0.00458417)
(-0.00305203 0.0272713 0.00813438)
(-0.00312941 0.0353443 0.00904855)
(-0.00249894 0.0394973 0.00964644)
(0.00354252 0.0378522 0.0154608)
(0.0058926 0.0231546 0.0173618)
(0.00388667 0.00501462 0.0206751)
(-0.00958071 -0.00563962 0.0160738)
(-0.0132614 -0.000693103 0.0124543)
(0.00132626 -0.00256948 0.012324)
(0.0110213 -0.0201371 0.00502221)
(0.0135035 -0.0254291 -0.00519458)
(0.0112218 -0.0173653 -0.0132417)
(0.0099074 -0.0025895 -0.0071814)
(0.0214426 0.0207245 0.0035094)
(0.0224975 0.00420274 0.00250547)
(0.010827 0.000807824 -0.00112813)
(0.00957607 -0.000595733 -9.44823e-05)
(0.00503968 -0.00344479 0.00105023)
(0.00532583 -0.00104673 0.00137502)
(0.00479753 -0.00083882 0.00218459)
(0.00428101 0.000952247 0.00252403)
(0.00308336 0.00099659 0.00281307)
(0.00208202 0.00268029 0.00294314)
(0.00165562 0.00364681 0.00315338)
(0.00192366 0.00445768 0.00379432)
(0.00233765 0.00436213 0.00411077)
(0.00276634 0.00393381 0.00437638)
(0.00292163 0.00304035 0.00439946)
(0.00311637 0.00217259 0.00438015)
(0.00320463 0.0012049 0.0042837)
(0.00329988 0.000422217 0.00419363)
(0.00336775 -0.000254134 0.00410879)
(0.00340064 -0.000738935 0.00405194)
(0.00339847 -0.00105878 0.00401846)
(0.00341145 -0.00119672 0.00394758)
(0.00339364 -0.00123823 0.00393559)
(0.00334097 -0.00121296 0.00397646)
(0.0032534 -0.00115545 0.00406286)
(0.00314706 -0.00108271 0.00417805)
(0.00305208 -0.00102079 0.00427879)
(0.0029751 -0.000992407 0.00435872)
(0.00289488 -0.00100101 0.00443988)
(0.0028028 -0.00103058 0.00451819)
(0.00270737 -0.00107274 0.00459614)
(0.00261974 -0.00113527 0.00467691)
(0.00254391 -0.00123043 0.00476318)
(0.00248529 -0.00137199 0.00485828)
(0.00245299 -0.00157691 0.00496692)
(0.00245596 -0.00186965 0.0050885)
(0.00249516 -0.00227183 0.00521576)
(0.00255725 -0.00278404 0.00532022)
(0.00261935 -0.00333617 0.0053663)
(0.00267006 -0.00381512 0.00534146)
(0.00265215 -0.00410192 0.00520418)
(0.00276333 -0.0039264 0.00480018)
(0.00348468 -0.00367007 0.00445096)
(0.00555977 -0.00357706 0.00427296)
(0.00871034 -0.00478037 0.00387942)
(0.01313 -0.00494666 0.00175314)
(0.0157901 -0.00418829 0.00151415)
(0.0131179 -0.00960901 -0.000913066)
(0.00834805 -0.0103253 -0.0027941)
(0.0280828 -0.0144854 -0.00306957)
(0.0636777 -0.0466469 0.000409788)
(0.0512951 -0.0558809 0.00428464)
(-0.000389286 -0.0517899 0.00637406)
(-0.0133259 -0.0487369 -0.00812884)
(-0.021771 -0.0148475 0.0110332)
(-0.00476682 -0.0854994 0.0189525)
(-0.039067 -0.0219722 0.016777)
(-0.0363849 -0.142305 0.0801527)
(-0.0908364 -0.0258526 -0.0429642)
(-0.00687846 -0.0545994 0.0452041)
(0.195307 -0.282934 0.111895)
(0.111728 -0.0257634 0.050457)
(0.0363226 -0.122363 0.00992759)
(0.0275051 -0.0468934 0.0145073)
(0.00301535 -0.0512081 0.0197441)
(-0.0142427 -0.0134885 0.0171282)
(-0.0344979 -0.0378696 0.0235911)
(-0.0407828 -0.0434079 0.0119606)
(-0.0495763 -0.044896 -0.0122311)
(-0.0422896 -0.0249908 -0.0166322)
(-0.0222993 -0.00820809 -0.0100696)
(0.00136586 0.0120776 0.00124358)
(0.0144116 0.0128142 0.0127411)
(0.0118063 0.0148839 0.0181714)
(0.00158976 0.0155975 0.0231831)
(-0.000955367 0.0210456 0.0265751)
(-0.00538916 0.0333084 0.0165986)
(-0.0139212 0.0362969 0.00971511)
(-0.0158927 0.0307459 0.00979915)
(-0.00873104 0.022405 0.00600346)
(0.000312434 0.0183441 -0.0029525)
(0.00287757 0.0204003 -0.00514803)
(-0.00338869 0.0269048 -0.00465109)
(-0.00147577 0.0318742 -0.0046909)
(0.008926 0.0395853 -0.00717893)
(0.0176394 0.0450091 -0.00502135)
(0.0252673 0.040504 0.000594204)
(0.0206358 0.0281912 0.00425349)
(0.00292438 0.0113293 0.000214127)
(-0.0108551 0.00731382 0.00904251)
(-0.0134679 0.00383976 0.0075903)
(-0.00245053 -0.0136164 0.0133155)
(0.00633731 -0.0245607 0.0164958)
(0.00503691 -0.032591 0.0109223)
(0.00365872 -0.0304948 -0.000280416)
(0.0079446 -0.0146032 -0.0090384)
(0.0247654 0.0207377 0.00486166)
(0.0265908 0.0102358 0.00482107)
(0.0156255 0.00483757 0.00181965)
(0.0128766 0.00352272 0.00309909)
(0.00560267 -0.00138517 0.00389523)
(0.00416578 0.00031669 0.00360544)
(0.00267829 -1.32344e-05 0.00420098)
(0.00239203 0.00191361 0.00416809)
(0.00121099 0.00182715 0.00422553)
(0.000563993 0.00286781 0.00436672)
(0.00015579 0.00304433 0.00440303)
(0.00067243 0.00365884 0.00469392)
(0.00107621 0.00354323 0.00492369)
(0.00159853 0.00355546 0.00512502)
(0.0018335 0.00307448 0.00512587)
(0.00212484 0.002618 0.00510192)
(0.00225999 0.00193707 0.00502099)
(0.00238413 0.00135381 0.00495818)
(0.00245497 0.000787922 0.00490399)
(0.00248384 0.000336555 0.00488555)
(0.00245599 -5.12757e-05 0.0048944)
(0.0023786 -0.000340785 0.00493304)
(0.00228861 -0.000541439 0.00498603)
(0.00218229 -0.000668266 0.0050462)
(0.00205862 -0.000744345 0.00511008)
(0.00193082 -0.00078878 0.00517516)
(0.0018057 -0.000817255 0.00524334)
(0.00168343 -0.000833737 0.00531637)
(0.00155856 -0.000847131 0.00539253)
(0.00142426 -0.000869639 0.00547144)
(0.00129459 -0.00091199 0.00555287)
(0.00118078 -0.000982692 0.00563476)
(0.00108333 -0.00108349 0.00571686)
(0.00100596 -0.0012151 0.00580054)
(0.000966348 -0.00137914 0.00588759)
(0.000977973 -0.00157631 0.00598431)
(0.00104594 -0.00179362 0.00608776)
(0.00114753 -0.00201192 0.00617075)
(0.00122419 -0.00216968 0.00621072)
(0.00127537 -0.0021887 0.00620522)
(0.00128895 -0.00203846 0.00614205)
(0.00140298 -0.00167726 0.00611776)
(0.00222277 -0.00134243 0.00616098)
(0.00439576 -0.0007237 0.00596631)
(0.00742052 0.00109211 0.00483253)
(0.0122749 0.00538147 0.00314285)
(0.0200897 0.0073682 0.00432131)
(0.0255845 -0.00279193 0.00235313)
(0.0243469 -0.0115476 0.00118068)
(0.05243 -0.0303746 0.0137843)
(0.0807324 -0.0553428 0.00251087)
(0.05035 -0.0418707 0.00208368)
(0.00494408 -0.0122866 -0.00121254)
(0.00629277 -0.0265902 -0.00569857)
(0.0207914 0.00556505 0.0278884)
(0.0325752 -0.088194 0.0300592)
(-0.0532403 -0.000245441 0.0303452)
(-0.0700326 -0.153151 0.0908085)
(-0.190838 0.00822949 -0.0575082)
(-0.0153973 -0.0558797 0.00195839)
(0.226988 -0.288171 0.114063)
(0.13479 0.0448583 0.0418965)
(0.0639111 -0.103791 0.0176996)
(0.0477636 0.022401 0.00431181)
(0.0309362 -0.0124411 -0.00092316)
(0.0290479 0.0233924 0.0233483)
(0.00909585 -0.0164612 0.0237631)
(-0.0258468 -0.0136382 0.00116877)
(-0.0470051 -0.0195649 -0.0141702)
(-0.0382249 -0.0134656 -0.0177291)
(-0.0163621 -0.000664375 -0.0136805)
(0.00938868 0.0102946 0.0134344)
(0.0205 0.00373081 0.0328434)
(0.0153082 0.0123233 0.0341888)
(-0.000340056 0.0185785 0.0288794)
(-0.0111985 0.022737 0.0281973)
(-0.0130727 0.0347256 0.0205877)
(-0.0147427 0.0376385 0.0125672)
(-0.0159307 0.0324933 0.00880086)
(-0.0143986 0.0282393 0.0020653)
(-0.0131 0.0299751 -0.00828478)
(-0.00301234 0.0481294 -0.011447)
(0.0059606 0.05535 -0.00955148)
(0.0162243 0.0626633 -0.00615104)
(0.0302756 0.067138 -0.00310593)
(0.0392819 0.068531 0.00341226)
(0.0426731 0.0548086 0.0112208)
(0.0358013 0.0391867 0.0153483)
(0.017817 0.017541 0.000389227)
(-0.00141361 0.0143588 -0.00526474)
(-0.00513249 0.0123916 0.000858256)
(0.00566446 -0.00850257 0.0241985)
(0.00277457 -0.0189399 0.0260467)
(0.000638851 -0.0329969 0.0172756)
(-0.00408757 -0.0311152 0.00200711)
(-0.00345821 -0.014965 -0.00633099)
(0.0258211 0.0200873 0.00510902)
(0.0291151 0.0144777 0.00518527)
(0.0183632 0.00733982 0.00138491)
(0.0158024 0.00750547 0.00170823)
(0.0067445 0.00129746 0.00301446)
(0.00373804 0.00245003 0.00323424)
(0.00114603 0.000456898 0.00420245)
(0.000803038 0.00205982 0.00419821)
(-0.000267086 0.00137842 0.00432728)
(-0.000710208 0.00212475 0.00449495)
(-0.00111701 0.00193511 0.00461726)
(-0.000667365 0.00249823 0.0049643)
(-0.000434525 0.00264467 0.00518124)
(0.000113583 0.00299383 0.00535908)
(0.00040152 0.00282295 0.00534506)
(0.000739266 0.0026658 0.00534923)
(0.000896439 0.0021934 0.00529981)
(0.00100929 0.00174982 0.00527634)
(0.00104713 0.00126405 0.00524194)
(0.00105482 0.000850229 0.00522494)
(0.00100219 0.000463916 0.00521984)
(0.000909804 0.000129537 0.00522893)
(0.000788817 -0.000153666 0.00525199)
(0.000650335 -0.000370215 0.00528578)
(0.000505363 -0.000520825 0.00532618)
(0.000363337 -0.000614119 0.0053696)
(0.000236105 -0.000666267 0.00541339)
(0.000123959 -0.000696726 0.00545945)
(1.79422e-05 -0.000722805 0.00551408)
(-8.99434e-05 -0.000754029 0.00557713)
(-0.000187504 -0.000795355 0.00564484)
(-0.000266088 -0.000850391 0.00571046)
(-0.000325097 -0.000922393 0.0057706)
(-0.000358689 -0.00101874 0.00582537)
(-0.000365513 -0.00113533 0.00587942)
(-0.000337701 -0.00125161 0.0059365)
(-0.000277215 -0.00133285 0.00599195)
(-0.00022142 -0.00134298 0.00601792)
(-0.000222513 -0.00124598 0.00600424)
(-0.000271319 -0.00100188 0.00594236)
(-0.000341794 -0.000602052 0.00584937)
(-0.000234291 -7.3012e-05 0.00575469)
(0.000474891 0.000422503 0.00549989)
(0.00190679 0.00177373 0.00440504)
(0.00487604 0.00472495 0.00274574)
(0.0120109 0.00799515 0.00242245)
(0.0257865 0.00444335 0.00475519)
(0.0354662 -0.00593801 0.00278992)
(0.0353449 -0.0225271 0.00485626)
(0.0610963 -0.0524785 0.0196611)
(0.0784911 -0.068215 0.00170052)
(0.0333765 -0.0286374 -0.0126462)
(0.00100711 0.0185705 -0.0207784)
(0.0101162 0.024658 -0.00491256)
(0.0125676 0.0370793 0.0135283)
(-0.00409534 -0.0286848 0.0271456)
(-0.0738098 0.060785 0.0498775)
(-0.0616283 -0.192595 0.0934642)
(-0.197966 0.104856 -0.046053)
(0.0401177 -0.158767 0.0215978)
(0.226876 -0.252166 0.125156)
(0.0986003 0.111281 0.0218533)
(0.0513987 -0.102914 0.0278105)
(-0.00804587 0.0647813 0.00482968)
(0.000870084 0.00995403 0.017527)
(-0.021781 0.0379374 0.016734)
(-0.024479 0.0083383 0.0227237)
(-0.042652 0.00118555 0.0130895)
(-0.0485418 -0.0128713 -0.0101479)
(-0.0401323 0.00303935 -0.0298527)
(-0.0239857 0.0174403 -0.015357)
(0.00908201 0.0155275 0.0271547)
(0.0134124 0.0127649 0.042116)
(0.00357571 0.0148177 0.022811)
(-0.00308781 0.0261457 0.00558833)
(-0.0115278 0.0343504 0.00893034)
(-0.0221042 0.0450373 0.00870862)
(-0.0288113 0.0534122 0.00475661)
(-0.0331956 0.0536193 -0.000450249)
(-0.02546 0.0596047 -0.0114536)
(-0.00725592 0.0725517 -0.0130114)
(0.00636187 0.0771031 -0.0017577)
(0.0153426 0.0782259 -0.00128801)
(0.0251323 0.0857682 0.00023513)
(0.0346432 0.0823914 0.0123914)
(0.0384488 0.0781715 0.0195666)
(0.0377271 0.0622363 0.0283503)
(0.0272713 0.0464187 0.0262981)
(0.0115263 0.0322815 0.00335133)
(0.00502466 0.0262806 -0.00404057)
(-0.00100671 0.0198456 0.00773672)
(-0.0093644 0.00398561 0.0289224)
(-0.0044786 -0.0148925 0.0219342)
(-0.00446369 -0.030093 0.0104405)
(-0.0101583 -0.0257238 -6.76963e-05)
(-0.00877281 -0.0118832 -0.00560994)
(0.0258146 0.0193202 0.00478718)
(0.0307208 0.0176393 0.00523005)
(0.0211167 0.00926397 0.000846217)
(0.0197988 0.0106987 7.18097e-05)
(0.00908953 0.00307566 0.000188594)
(0.0047131 0.00414854 0.00106117)
(0.000219495 0.000148016 0.00324476)
(-0.000516482 0.00216134 0.0034913)
(-0.00165682 0.000734993 0.00374279)
(-0.00213216 0.00139559 0.0041757)
(-0.00294529 0.000861142 0.00438255)
(-0.00285135 0.00153353 0.0048284)
(-0.00286151 0.00183892 0.00501215)
(-0.00226885 0.00247047 0.0052064)
(-0.00189905 0.00249141 0.00516614)
(-0.00152393 0.00247127 0.00520112)
(-0.00134683 0.0021068 0.00519737)
(-0.0013129 0.00178153 0.00522289)
(-0.00136126 0.00139603 0.00520791)
(-0.00142532 0.00105119 0.00517966)
(-0.00151537 0.000697558 0.00513757)
(-0.00162313 0.000358523 0.00509851)
(-0.00174048 4.54754e-05 0.00507016)
(-0.00187379 -0.000214353 0.00505126)
(-0.00202329 -0.000413859 0.00503966)
(-0.00215615 -0.000553541 0.00503694)
(-0.00226233 -0.000647416 0.00504286)
(-0.00234554 -0.000714717 0.00505601)
(-0.00242229 -0.00076428 0.00507314)
(-0.00250608 -0.000798002 0.00509756)
(-0.00258227 -0.000823911 0.00512543)
(-0.00263656 -0.000853944 0.00515016)
(-0.00266581 -0.000894281 0.00516952)
(-0.00266567 -0.000945272 0.00518119)
(-0.00264097 -0.000993126 0.00518855)
(-0.00259646 -0.000998029 0.00519046)
(-0.0025354 -0.000898585 0.00517216)
(-0.0024803 -0.000639571 0.00510457)
(-0.00247939 -0.000210797 0.00497587)
(-0.00253308 0.000352956 0.00477198)
(-0.00257135 0.000977397 0.00451901)
(-0.00240238 0.00154949 0.00417753)
(-0.00186664 0.00194035 0.00341384)
(-0.000168575 0.00304814 0.00193389)
(0.00380169 0.00493674 0.00105916)
(0.0139936 0.00512506 0.00299733)
(0.0307477 -0.00441288 0.00692317)
(0.0406986 -0.0164262 0.00541975)
(0.0507333 -0.040739 0.0111906)
(0.0759778 -0.0820582 0.0165098)
(0.0656664 -0.0812802 0.00292577)
(0.0114169 -0.0335512 -0.0156031)
(-0.00896803 0.0207164 -0.0147154)
(0.0130227 0.0306121 0.00634364)
(0.0247616 0.0527883 0.0145126)
(0.0179461 0.0255639 0.0404776)
(0.0187104 0.14246 0.0973749)
(-0.0392601 -0.197431 0.11779)
(-0.286113 0.186648 -0.104925)
(-0.0294758 -0.216192 0.0128055)
(0.221333 -0.201022 0.121576)
(0.0760986 0.121506 0.00590728)
(0.0736916 -0.0251357 0.0249645)
(-0.00842947 0.0686241 -0.00200259)
(0.0106592 0.0268084 0.0060008)
(-0.0130155 0.0355465 0.0150052)
(-0.0305037 0.00308173 0.022645)
(-0.0593057 0.00112106 -0.00112431)
(-0.0606951 -0.00078946 -0.0260234)
(-0.0401961 0.027115 -0.0334585)
(0.00503567 0.0358065 0.00513652)
(0.0190154 0.0410118 0.0244314)
(0.0137952 0.0622356 -0.0013364)
(-0.0126484 0.0834154 -0.0149284)
(-0.0225988 0.0991656 -0.00738119)
(-0.0285187 0.102739 -0.0063684)
(-0.0305045 0.108467 -0.0114586)
(-0.0258435 0.114509 -0.0144834)
(-0.0171461 0.113581 -0.014908)
(-0.00136562 0.117456 -0.0138343)
(0.011573 0.122445 -0.0101138)
(0.0190864 0.119847 -0.00841525)
(0.0267728 0.119227 -0.00281424)
(0.0315217 0.115652 0.00801254)
(0.0304939 0.105579 0.021016)
(0.0304711 0.0955452 0.0334785)
(0.0220475 0.0834002 0.0338772)
(0.0115065 0.0712017 0.0201158)
(0.00728187 0.0567783 0.0173566)
(0.00141286 0.0435064 0.0179441)
(-0.00352708 0.0269146 0.0227346)
(-0.00496899 0.00899865 0.0247075)
(0.00846909 -0.00885089 0.020595)
(0.0030208 -0.0233353 0.0103498)
(-0.0106071 -0.0227293 -0.0076144)
(-0.014383 -0.00957091 -0.00880308)
(0.0249629 0.0183127 0.00459584)
(0.0323762 0.021213 0.00627758)
(0.0231287 0.0112357 0.00135424)
(0.0236392 0.0132093 0.000878852)
(0.0136695 0.00358079 -0.00180689)
(0.00769147 0.00509849 -0.00140048)
(0.000418864 -0.000632692 0.00149276)
(-0.00160688 0.00216851 0.00218219)
(-0.00237849 8.13787e-06 0.00263911)
(-0.00306634 0.000910566 0.00332181)
(-0.0038917 3.95138e-05 0.00355089)
(-0.00397912 0.000866594 0.00416642)
(-0.00403719 0.00132447 0.00437596)
(-0.00325337 0.00217276 0.00475731)
(-0.00263551 0.00216583 0.00491217)
(-0.00214851 0.00208639 0.00514541)
(-0.00197519 0.00168864 0.00525759)
(-0.00203975 0.0014131 0.00532671)
(-0.00216764 0.00115509 0.00530801)
(-0.00228112 0.000961341 0.00524381)
(-0.00240303 0.000754698 0.00513549)
(-0.00253312 0.000534543 0.00500302)
(-0.00268807 0.000304716 0.00486995)
(-0.00284489 9.33527e-05 0.00474782)
(-0.00298494 -7.92381e-05 0.00463944)
(-0.0030993 -0.000204662 0.00453958)
(-0.00317369 -0.000302351 0.00445353)
(-0.00322303 -0.000386285 0.00438532)
(-0.00327352 -0.000461193 0.00433904)
(-0.00332639 -0.000518788 0.00431901)
(-0.00336273 -0.000553578 0.00431696)
(-0.00337034 -0.000571601 0.00432043)
(-0.00335104 -0.00057474 0.00431972)
(-0.00330851 -0.000559294 0.00430539)
(-0.0032704 -0.000504365 0.00427335)
(-0.0032691 -0.000356283 0.00420999)
(-0.00332156 -4.86868e-05 0.0040824)
(-0.00342354 0.00044492 0.00385438)
(-0.00355967 0.00107881 0.00351238)
(-0.00361864 0.00173689 0.00307866)
(-0.00341418 0.00225519 0.00264625)
(-0.00289299 0.00258032 0.00216857)
(-0.00165252 0.00278447 0.00139711)
(0.000146788 0.00393746 0.000607504)
(0.00511309 0.00551801 0.0018082)
(0.0183755 0.00277773 0.00660525)
(0.0357258 -0.00963139 0.0110685)
(0.0517979 -0.0281504 0.00764004)
(0.080002 -0.0592128 0.0157284)
(0.083938 -0.0859378 0.012376)
(0.0515558 -0.0743187 -0.00701353)
(-0.0126878 -0.00305147 -0.0278722)
(-0.0158096 0.0567884 -0.0198572)
(-0.0119863 0.0941832 0.0108527)
(-0.0291059 0.142588 0.048263)
(-0.0573892 0.153272 0.0653118)
(-0.0570987 0.185984 0.0717555)
(-0.12182 0.0303688 0.0576373)
(-0.285403 0.362377 -0.0589816)
(0.0200732 -0.312367 0.0247722)
(0.1619 -0.127352 0.103782)
(0.0530317 0.117607 -3.02519e-05)
(0.0628822 0.0284544 0.010885)
(-0.00369434 0.0622076 -0.0206486)
(-0.0170434 0.0260282 -0.0322595)
(-0.0383433 0.0239398 -0.0262438)
(-0.0485386 0.010958 -0.024238)
(-0.0592405 0.0325926 -0.0335094)
(-0.0467935 0.0476398 -0.0311489)
(-0.0146424 0.0689761 0.0042769)
(-0.00413262 0.0871877 0.0165412)
(-0.00813794 0.167502 -0.0171667)
(-0.0111858 0.2021 -0.0129066)
(-0.00116935 0.211047 -0.00774357)
(0.00258783 0.211811 -0.0100786)
(0.0032561 0.206078 -0.0110016)
(0.00215577 0.198359 -0.0117317)
(0.00537989 0.193755 -0.0124521)
(0.0105516 0.188367 -0.0125886)
(0.0174675 0.183928 -0.0107954)
(0.0241754 0.179525 -0.00810288)
(0.025669 0.171403 -0.002969)
(0.0262622 0.163209 0.00295535)
(0.0273271 0.154551 0.0143569)
(0.0215938 0.138839 0.0235795)
(0.016621 0.12347 0.0251123)
(0.0116709 0.108348 0.0202139)
(0.00938932 0.0966411 0.0180021)
(0.00897642 0.0837533 0.0208667)
(0.00989892 0.0686857 0.0246004)
(0.00730449 0.0511364 0.0220904)
(0.00165302 0.0263368 0.0148597)
(0.00544705 0.0139084 0.0147972)
(-0.0031588 -6.20305e-05 0.0173886)
(-0.0141908 -0.0111905 0.00289944)
(-0.0180385 -0.0046458 -0.00311228)
(0.0224193 0.0164814 0.00468349)
(0.0326682 0.0251423 0.00834679)
(0.0239473 0.0133028 0.00327481)
(0.0248003 0.0158959 0.00326245)
(0.0174659 0.00373985 -0.00122643)
(0.0106583 0.00521028 -0.00219427)
(0.00100313 -0.00129996 1.14123e-05)
(-0.00229077 0.00253052 0.000970229)
(-0.00342167 -0.000350674 0.00156424)
(-0.00424746 0.00080282 0.00239518)
(-0.00552548 -0.000398961 0.00249782)
(-0.00629457 0.00053182 0.00336506)
(-0.00667505 0.000752651 0.00372814)
(-0.00567404 0.00160382 0.00459419)
(-0.00483142 0.0014253 0.00518817)
(-0.00434334 0.00139061 0.00574818)
(-0.00432775 0.00105523 0.00599879)
(-0.00465667 0.000914376 0.00606811)
(-0.00501358 0.000818751 0.0059859)
(-0.00526003 0.000814607 0.00584304)
(-0.00542953 0.000810289 0.00564215)
(-0.00553234 0.000795688 0.00540918)
(-0.00562019 0.000748548 0.00517839)
(-0.00570601 0.000681589 0.00496635)
(-0.00581823 0.000622347 0.00479781)
(-0.00587063 0.000584011 0.00464932)
(-0.00586245 0.00053541 0.0045285)
(-0.00581943 0.000464591 0.00445175)
(-0.00578245 0.000377267 0.00441862)
(-0.00577807 0.00030158 0.00442302)
(-0.00578164 0.000264953 0.00444967)
(-0.00576809 0.000270612 0.00447923)
(-0.00573687 0.000329117 0.00449891)
(-0.00568233 0.000447724 0.00449318)
(-0.00564931 0.000635652 0.00444592)
(-0.00567052 0.000923242 0.00433308)
(-0.00572749 0.00133281 0.00413595)
(-0.00574741 0.0018513 0.00385229)
(-0.00565341 0.00239883 0.0034409)
(-0.00534128 0.00278655 0.00286693)
(-0.00470623 0.00294547 0.00226806)
(-0.00386146 0.00298134 0.00169238)
(-0.0029213 0.00325347 0.00123795)
(-0.00168861 0.00490418 0.00148913)
(0.00354685 0.00598529 0.00464944)
(0.0192706 0.0017648 0.0101178)
(0.0400395 -0.00980239 0.0126771)
(0.0641593 -0.0313153 0.0071927)
(0.103775 -0.0450477 0.00876276)
(0.0905446 -0.0228716 -0.0135388)
(0.0034534 0.0461013 -0.0343131)
(-0.0477848 0.0890497 -0.0109738)
(-0.0463471 0.140265 -0.00469264)
(-0.0557263 0.181345 -0.00166847)
(-0.0711334 0.204406 0.0221964)
(-0.0842651 0.21223 0.0282978)
(-0.0920991 0.209775 0.0251781)
(-0.128686 0.0793335 0.0116925)
(-0.201075 0.375602 -0.0175412)
(0.0253083 -0.35781 0.0412895)
(0.0918736 -0.0273016 0.0733283)
(0.0465925 0.139676 0.0238033)
(0.0590992 0.118714 0.0239006)
(0.0422575 0.129122 0.0172735)
(0.0230881 0.0932978 0.00707967)
(-0.00291391 0.054158 -0.0070845)
(-0.0251705 0.0348702 -0.0164911)
(-0.0427854 0.0470652 -0.0161689)
(-0.0392284 0.0716344 -0.00162033)
(-0.033592 0.14037 -0.00120541)
(-0.0435391 0.222403 -0.0264718)
(-0.0346441 0.257678 -0.0163361)
(0.00111829 0.264741 -0.00728157)
(0.0163341 0.260078 -0.0112307)
(0.023067 0.255793 -0.00636702)
(0.0210547 0.245773 -0.00195964)
(0.017471 0.238367 -0.00338863)
(0.0207753 0.228769 -0.000218206)
(0.0230327 0.220928 0.00266674)
(0.0252159 0.215875 0.0030186)
(0.0289425 0.210753 0.00828009)
(0.0282963 0.203677 0.0129621)
(0.0281889 0.198243 0.0179641)
(0.0279809 0.188589 0.0261643)
(0.0202442 0.178626 0.0287817)
(0.0154163 0.164831 0.0248796)
(0.0117577 0.151118 0.0236968)
(0.00895119 0.141583 0.0214085)
(0.00807106 0.126669 0.0149605)
(0.00784796 0.114056 0.0168602)
(0.0145702 0.10079 0.017478)
(0.0125726 0.0795268 0.0122417)
(0.0132579 0.0634203 0.0104302)
(0.00129897 0.0379592 0.00197696)
(-0.010786 0.017982 -0.00127138)
(-0.0199545 0.0086953 -0.00719347)
(0.0221125 0.0122438 0.00398893)
(0.0316943 0.0285925 0.00916792)
(0.023777 0.0161522 0.00326004)
(0.0255736 0.0202136 0.00312744)
(0.0201405 0.00611941 -0.00119372)
(0.0128012 0.00559107 -0.00235569)
(0.000713413 -0.00208735 -0.000893837)
(-0.00340559 0.00230393 0.000212583)
(-0.00331392 -0.00116927 0.0019514)
(-0.00444313 0.0011478 0.00253117)
(-0.00544177 -0.000391333 0.00263731)
(-0.00609052 0.000491363 0.00376592)
(-0.00635855 -0.000133145 0.0043788)
(-0.00517748 0.000252418 0.00564096)
(-0.00436531 -0.000157682 0.0065423)
(-0.00399021 6.91833e-05 0.00745496)
(-0.00405894 0.000120144 0.00795197)
(-0.0044033 0.000419055 0.00813508)
(-0.00473295 0.000622184 0.008097)
(-0.00493825 0.000882668 0.00795641)
(-0.00508336 0.00112006 0.00772856)
(-0.00517674 0.00130397 0.00744667)
(-0.00525568 0.0014015 0.00716446)
(-0.00532098 0.00144761 0.00690566)
(-0.00538359 0.00143862 0.00667372)
(-0.00540436 0.00139591 0.00647815)
(-0.00535717 0.00133612 0.00633791)
(-0.0052694 0.00125147 0.00624352)
(-0.0051911 0.0011505 0.00619486)
(-0.00515837 0.0010646 0.00618286)
(-0.00514021 0.00103704 0.0061882)
(-0.00511406 0.0010714 0.00618635)
(-0.00508407 0.00118672 0.00615588)
(-0.00503362 0.00137712 0.00608498)
(-0.005013 0.0016396 0.00596792)
(-0.00505656 0.00198534 0.00578659)
(-0.00514992 0.0023812 0.00551589)
(-0.00522828 0.0027668 0.00514727)
(-0.00509415 0.0030723 0.00468345)
(-0.00460464 0.00317143 0.00418295)
(-0.00377137 0.00302977 0.0037471)
(-0.00295169 0.00289942 0.00349147)
(-0.00251785 0.00330273 0.00369969)
(-0.00148923 0.00513321 0.0050512)
(0.00506669 0.00683295 0.00840928)
(0.0204834 0.00378343 0.0118982)
(0.041524 -0.000289009 0.0111996)
(0.0651716 0.00418567 0.00230499)
(0.0593253 0.0641742 -0.0216557)
(0.000496856 0.181261 -0.047381)
(-0.0370341 0.227284 -0.0406826)
(-0.0518297 0.244746 -0.0414919)
(-0.0424213 0.262074 -0.0409314)
(-0.041191 0.264181 -0.0376013)
(-0.0594859 0.260529 -0.0274072)
(-0.0816929 0.256938 -0.0298489)
(-0.0900323 0.226334 -0.041526)
(-0.0888506 0.114678 -0.0209401)
(-0.0540011 0.34496 -0.0104644)
(-0.0058813 -0.367249 0.0355636)
(0.00214906 0.00216163 0.0575408)
(0.0316435 0.163962 0.0189634)
(0.0389195 0.15479 0.030203)
(0.0473594 0.173819 0.0354985)
(0.0537689 0.160665 0.0461281)
(0.03777 0.136256 0.0423511)
(0.00523244 0.107538 0.0328288)
(-0.0384274 0.0860993 0.0179329)
(-0.0689724 0.100636 0.00481836)
(-0.0958296 0.153445 -0.0280358)
(-0.0791809 0.218113 -0.0333325)
(-0.0229316 0.233306 -0.0126722)
(0.0106906 0.212264 -0.00961933)
(0.0233911 0.207217 -0.0132181)
(0.0261106 0.204062 -0.00918693)
(0.0209303 0.20988 0.00123102)
(0.0173182 0.217504 0.00463769)
(0.0171358 0.217033 0.0116064)
(0.0174354 0.215318 0.0150211)
(0.0169139 0.212521 0.0158436)
(0.0167747 0.209883 0.0148962)
(0.0164977 0.206085 0.0124956)
(0.0151149 0.201241 0.013405)
(0.0138197 0.191391 0.0154588)
(0.012386 0.183992 0.0199954)
(0.0134693 0.171314 0.0200115)
(0.016649 0.16226 0.0238042)
(0.0186703 0.15498 0.0275231)
(0.0226304 0.143178 0.0269738)
(0.024484 0.13601 0.0296893)
(0.0300013 0.120085 0.0266382)
(0.0319862 0.106265 0.0200108)
(0.0340383 0.088869 0.0137367)
(0.0231067 0.0690987 -0.00164578)
(-0.00772578 0.0338493 -0.0335105)
(-0.0178126 0.0208948 -0.0525719)
(0.0147839 0.00786753 0.000400742)
(0.0287278 0.0296927 0.00779504)
(0.0225044 0.0197681 0.00146654)
(0.0262404 0.0258411 0.00179467)
(0.0237201 0.0106252 -0.0012048)
(0.0167209 0.00764456 -0.00252511)
(0.00172266 -0.00331365 -0.00631236)
(-0.00352725 0.00212064 -0.00462572)
(-0.00602709 -0.0018131 -0.00156917)
(-0.00670776 0.00162542 -0.000570553)
(-0.00748498 -0.000504477 -0.000457209)
(-0.00802926 0.000233646 0.000714397)
(-0.00845376 -0.000991987 0.00142456)
(-0.00796952 -0.000779172 0.00253441)
(-0.00780606 -0.00110482 0.00335147)
(-0.0079115 -0.000639704 0.00418344)
(-0.00827002 -0.000331328 0.00484953)
(-0.00871812 0.000181192 0.00527274)
(-0.00912978 0.000537304 0.00546232)
(-0.00943718 0.000922367 0.00550144)
(-0.00958117 0.00124372 0.00540692)
(-0.00950866 0.00150271 0.00524366)
(-0.00940776 0.00167529 0.00507293)
(-0.00929495 0.00177821 0.00491416)
(-0.00917751 0.0018123 0.00476455)
(-0.00903558 0.00179526 0.00462929)
(-0.00885716 0.0017526 0.0045195)
(-0.00866676 0.00169898 0.00443575)
(-0.00852184 0.00164485 0.00438148)
(-0.00848569 0.00159951 0.00435554)
(-0.00851318 0.00160383 0.00433686)
(-0.00854043 0.00167557 0.00430073)
(-0.00856532 0.00181552 0.00423235)
(-0.00855695 0.00202252 0.00412024)
(-0.00857906 0.00229321 0.00396591)
(-0.008602 0.00262497 0.0037629)
(-0.00856409 0.0029842 0.00349469)
(-0.00839034 0.00329563 0.00314759)
(-0.00799283 0.00345242 0.00276209)
(-0.00728262 0.00332351 0.0023658)
(-0.00639723 0.00302686 0.00196541)
(-0.0059105 0.00291169 0.0016882)
(-0.00641593 0.00355722 0.00168641)
(-0.00690327 0.00525277 0.00308766)
(-0.00188742 0.00740018 0.00651947)
(0.0116774 0.00767709 0.00796844)
(0.0198236 0.0138579 0.00169538)
(0.0103958 0.0513267 -0.0119082)
(-0.00897713 0.157886 -0.0194303)
(-0.0180617 0.246521 -0.000966696)
(-0.00196318 0.282756 0.0168427)
(0.014252 0.310555 -0.00213186)
(0.0329092 0.315505 -0.00254449)
(0.0440079 0.314131 0.0117421)
(0.0400379 0.317445 0.0334273)
(0.0512113 0.30776 0.0466075)
(0.0510947 0.28411 0.0463777)
(0.110126 0.224985 0.0792122)
(0.189651 0.429828 0.116315)
(0.000256962 -0.348625 0.0370617)
(-0.0920693 -0.0945398 0.0106321)
(-0.0015287 0.149063 -0.00327724)
(0.00430392 0.102983 0.020769)
(0.0360453 0.14454 0.0352934)
(0.0502512 0.135538 0.0442855)
(0.0561335 0.135962 0.0444056)
(0.0434689 0.11551 0.0394365)
(-0.0073282 0.0988088 0.0266136)
(-0.0776841 0.0839456 0.00548742)
(-0.0999671 0.113213 -0.0244473)
(-0.0738864 0.149493 -0.0235487)
(-0.00171899 0.127989 0.0110882)
(0.0499917 0.0731065 0.0103439)
(0.0680916 0.0574762 -0.00934843)
(0.0638849 0.04898 -0.0128047)