/*--------------------------------*- C++ -*----------------------------------*\
| =========                 |                                                 |
| \\      /  F ield         | OpenFOAM: The Open Source CFD Toolbox           |
|  \\    /   O peration     | Version:  2.3.0                                 |
|   \\  /    A nd           | Web:      www.OpenFOAM.org                      |
|    \\/     M anipulation  |                                                 |
\*---------------------------------------------------------------------------*/
FoamFile
{
    version     2.0;
    format      ascii;
    class       volVectorField;
    location    "43";
    object      U.waterMean;
}
// * * * * * * * * * * * * * * * * * * * * * * * * * * * * * * * * * * * * * //

dimensions      [0 1 -1 0 0 0 0];

internalField   nonuniform List<vector> 
6144
(
(0.0095222 0.0194897 -0.000651868)
(0.00978769 -0.000512367 -0.00152593)
(0.00464491 -0.00208324 -0.00247312)
(0.00429827 -0.00299914 -0.00237001)
(0.00274692 -0.00316033 -0.00193119)
(0.00298714 -0.00165637 -0.00169407)
(0.0025573 -0.00166757 -0.00132379)
(0.00255061 -0.000576932 -0.00102315)
(0.00226924 -0.000325288 -0.000922866)
(0.0021021 0.00087452 -0.000629441)
(0.00195444 0.00172349 -0.000360756)
(0.00203814 0.00240285 2.5052e-05)
(0.00217317 0.00236961 0.000186942)
(0.0023127 0.00198556 0.00037653)
(0.00238329 0.0013346 0.000284357)
(0.00245709 0.000766678 0.000170763)
(0.00249739 0.000220818 -3.16035e-05)
(0.00254159 -0.000152745 -0.000192063)
(0.00257494 -0.000457728 -0.000361363)
(0.0025991 -0.000626041 -0.000486655)
(0.00261278 -0.000731004 -0.000582394)
(0.00261837 -0.000757468 -0.000636081)
(0.00261407 -0.000754807 -0.000656091)
(0.00260204 -0.000723459 -0.000647759)
(0.00258281 -0.000683744 -0.000616605)
(0.00255825 -0.000640229 -0.000565731)
(0.00253006 -0.000600216 -0.000500258)
(0.00250017 -0.000569324 -0.000427441)
(0.00246954 -0.000545336 -0.000351394)
(0.00243759 -0.000544237 -0.000275847)
(0.00240505 -0.000534411 -0.000199419)
(0.00236596 -0.000576906 -0.000116979)
(0.00232653 -0.000563117 -2.20437e-05)
(0.00227783 -0.000685601 9.38195e-05)
(0.00223656 -0.000688212 0.000238495)
(0.00218851 -0.00100954 0.000405467)
(0.00216061 -0.00110856 0.000577085)
(0.00212893 -0.00174547 0.000708728)
(0.00212781 -0.00189679 0.000762719)
(0.00212738 -0.00274367 0.000684476)
(0.00214753 -0.00263316 0.00042078)
(0.0021693 -0.0032108 -9.94166e-05)
(0.00221059 -0.00208225 -0.000717944)
(0.00240917 -0.00177036 -0.00124348)
(0.00276941 0.000129286 -0.00156508)
(0.00328267 -0.00039617 -0.00181181)
(0.00399595 0.000563046 -0.00242761)
(0.00455012 -0.000619063 -0.00368346)
(0.00358176 0.00394314 -0.00534637)
(0.00514215 0.00841678 -0.00734145)
(0.0163123 0.0112036 -0.0102821)
(0.0261763 -0.00664726 -0.0110112)
(0.0336991 -0.0165846 -0.0124339)
(0.0343111 -0.0546194 -0.0117118)
(0.0301169 -0.0506579 -0.0135504)
(0.0263968 -0.0922638 -0.00931469)
(0.00870727 -0.0475991 -0.0161681)
(0.00755476 -0.104466 0.0181056)
(-0.0346277 0.00143213 -0.0475331)
(0.0237641 -0.0339702 0.0375654)
(0.13262 -0.292434 0.0643459)
(0.0905668 -0.115219 0.0297832)
(0.0587486 -0.185772 0.009361)
(0.0491738 -0.193248 0.00566044)
(0.0402794 -0.194243 0.00606525)
(0.0329661 -0.185175 0.00593769)
(0.0266722 -0.184113 0.00498769)
(0.0218107 -0.177029 0.00439576)
(0.0187395 -0.173954 0.00446325)
(0.016223 -0.166857 0.00481517)
(0.0142637 -0.162725 0.00513566)
(0.0122178 -0.155082 0.00543915)
(0.0105577 -0.148258 0.00595495)
(0.00829816 -0.139397 0.00648396)
(0.00516586 -0.129179 0.00677438)
(0.00250278 -0.115744 0.00509891)
(0.00123864 -0.102165 0.00214715)
(-0.000165587 -0.0886667 0.000453352)
(-0.00119664 -0.0749415 0.00044893)
(0.000215736 -0.0618166 0.00144143)
(0.00202941 -0.0512367 0.00216559)
(0.00297657 -0.0427193 0.00290836)
(0.00316305 -0.037474 0.00421151)
(0.00210445 -0.0337905 0.00477371)
(0.00155468 -0.0294099 0.00432859)
(0.0018005 -0.0241293 0.00358614)
(0.00213629 -0.0187688 0.0033676)
(0.00208864 -0.0127902 0.00275886)
(0.00129932 -0.00709965 0.00184241)
(6.77764e-05 0.000831794 0.00118028)
(0.00057225 0.00835104 0.00190687)
(0.0014982 0.014062 0.00334157)
(0.00163277 0.0174012 0.00526852)
(0.00204899 0.0184353 0.00797925)
(0.00396678 0.0173348 0.0104318)
(0.00734657 0.00838243 0.0145375)
(0.0187422 0.0209371 0.00288299)
(0.019826 0.00743148 0.00239608)
(0.0104086 0.00417409 -0.000408686)
(0.0101777 0.00280666 0.000310952)
(0.00604082 -0.000202801 0.00102502)
(0.00595265 0.000385269 0.00155395)
(0.00440713 -0.000756945 0.00209099)
(0.00423694 0.000555764 0.00208917)
(0.00361992 0.000825506 0.00202665)
(0.00341044 0.00229859 0.00208423)
(0.00332751 0.00300294 0.00222849)
(0.00371325 0.0035694 0.0026667)
(0.00408068 0.00333603 0.00287829)
(0.00446624 0.00292743 0.00304782)
(0.00459965 0.00217982 0.00301792)
(0.00473417 0.00154282 0.00297935)
(0.00475585 0.000885389 0.00288703)
(0.00480387 0.000426914 0.00282402)
(0.00482487 2.8754e-05 0.00274504)
(0.00483893 -0.000215246 0.00269646)
(0.00483755 -0.000387226 0.00265484)
(0.00482587 -0.000462892 0.00263827)
(0.00479709 -0.000498999 0.0026477)
(0.00475483 -0.000494201 0.00268205)
(0.00470092 -0.000473199 0.00273402)
(0.00463883 -0.000440861 0.00279956)
(0.00457274 -0.000407607 0.00286952)
(0.00450709 -0.00038131 0.00293699)
(0.00444303 -0.000362327 0.00300304)
(0.00437964 -0.000366256 0.00306276)
(0.00431802 -0.000364493 0.003121)
(0.00424532 -0.000424885 0.00318258)
(0.00418091 -0.000431365 0.00325025)
(0.00410575 -0.000597036 0.00332441)
(0.00406867 -0.000621383 0.00341149)
(0.00402741 -0.000991897 0.00350333)
(0.00405054 -0.00106269 0.00359899)
(0.00404874 -0.00172326 0.00367316)
(0.00410717 -0.00176819 0.00371508)
(0.00410034 -0.00263326 0.0036835)
(0.00408046 -0.0023556 0.00354529)
(0.00399111 -0.00301423 0.00313814)
(0.00397478 -0.00176749 0.00243932)
(0.00417889 -0.00183869 0.00177048)
(0.00491598 1.88098e-05 0.00142447)
(0.00602236 -0.000944548 0.00115708)
(0.00641328 0.000478139 2.02281e-05)
(0.00565827 0.0015778 -0.00161993)
(0.00546839 0.00774793 -0.00276767)
(0.012532 0.00488232 -0.00327929)
(0.0330519 -0.000584973 -0.00460636)
(0.0482908 -0.0185552 -0.00454612)
(0.0601011 -0.02252 -0.00258073)
(0.0589377 -0.0511231 0.00030634)
(0.0491602 -0.0393339 0.00547334)
(0.0486134 -0.0988215 0.0134691)
(0.00823694 -0.0490294 0.0122453)
(0.00285078 -0.165446 0.0403135)
(-0.0909165 0.0290749 -0.0764256)
(0.0069073 -0.0857382 0.0117909)
(0.169058 -0.261038 0.103391)
(0.0844739 0.00712252 0.0425046)
(0.0239713 -0.109475 0.00914752)
(0.0241465 -0.0450709 0.0148395)
(0.0111178 -0.0637794 0.0163604)
(0.00453519 -0.0486777 0.0141217)
(0.00230423 -0.050227 0.0108821)
(0.00303289 -0.0431804 0.0100916)
(0.00498264 -0.0427258 0.00994719)
(0.00522865 -0.0384064 0.00863811)
(0.00400651 -0.0391814 0.00908023)
(0.00187952 -0.0384847 0.00976002)
(-0.000186976 -0.0413175 0.00998711)
(-0.00353084 -0.0427899 0.00886391)
(-0.00709573 -0.044184 0.00741424)
(-0.00834222 -0.0419546 0.00597678)
(-0.00792771 -0.0397244 0.00424057)
(-0.00853528 -0.0364874 0.00345133)
(-0.00828176 -0.0325503 0.00374753)
(-0.00599998 -0.0294509 0.00496979)
(-0.00342789 -0.0258676 0.00577207)
(-0.00152999 -0.0225797 0.00714977)
(-0.000589293 -0.0225549 0.00899747)
(-0.00124431 -0.0242654 0.00944319)
(-0.00242942 -0.0252929 0.00839915)
(-0.00242133 -0.0254834 0.0072956)
(-0.00215211 -0.0234709 0.00596)
(-0.00246339 -0.0193868 0.00456019)
(-0.0027663 -0.0146981 0.00329608)
(-0.00332683 -0.00876263 0.00207288)
(-0.00283899 -0.00339749 0.0029658)
(-0.00186484 0.00130227 0.00415853)
(-0.00210859 0.00620962 0.0064391)
(-0.00155986 0.00747209 0.0100431)
(-0.000294019 0.00896379 0.0135792)
(0.00306248 0.0024229 0.0189308)
(0.0221141 0.0210721 0.00399378)
(0.0238893 0.0119567 0.00385921)
(0.0142445 0.00769452 0.00123493)
(0.0136293 0.00710675 0.00215114)
(0.00746883 0.00273097 0.00273716)
(0.00659924 0.00284843 0.00304672)
(0.00370574 0.000601968 0.00358979)
(0.00331741 0.0016935 0.00348518)
(0.00245138 0.00169745 0.00338818)
(0.00250294 0.00289083 0.00347607)
(0.00248895 0.00306062 0.00354383)
(0.00317789 0.00350929 0.00383639)
(0.00361733 0.00321276 0.00399877)
(0.0041157 0.0030318 0.00414292)
(0.00429243 0.00246222 0.00412093)
(0.00446892 0.00199575 0.00410908)
(0.00445804 0.0014176 0.00406188)
(0.004486 0.00100283 0.0040469)
(0.00444754 0.00060012 0.00403398)
(0.00441221 0.000326579 0.00404553)
(0.00434548 9.67083e-05 0.00406526)
(0.00427654 -4.30729e-05 0.00409969)
(0.00419989 -0.000140021 0.00413837)
(0.00412067 -0.000188007 0.0041832)
(0.00403767 -0.000211971 0.0042309)
(0.00395392 -0.00021808 0.00428024)
(0.00386901 -0.000219006 0.00433045)
(0.0037829 -0.000221338 0.00438237)
(0.00369756 -0.00022625 0.00443573)
(0.0036087 -0.000249483 0.0044906)
(0.00352031 -0.000266943 0.0045473)
(0.00342202 -0.000342328 0.00460585)
(0.00333726 -0.000369759 0.00466717)
(0.00324008 -0.000539316 0.00472869)
(0.00319559 -0.000552851 0.00479249)
(0.00314521 -0.000849986 0.0048506)
(0.00318212 -0.00079163 0.00490606)
(0.00318738 -0.00122376 0.0049409)
(0.0032822 -0.000978427 0.00495381)
(0.00329825 -0.00147656 0.00491648)
(0.00336231 -0.000848523 0.00481364)
(0.00325046 -0.001345 0.00461445)
(0.00321815 -0.000223166 0.00430516)
(0.00345667 -0.000841452 0.00389159)
(0.00430006 0.000435633 0.00360749)
(0.00550476 -0.00080445 0.00343153)
(0.00559105 0.00118356 0.00248045)
(0.00528953 0.000962427 0.000950201)
(0.00841801 0.00500612 0.000363462)
(0.0230485 -0.00386151 0.000458249)
(0.0482197 -0.00726301 -0.000590049)
(0.0675484 -0.0179801 0.000927991)
(0.0770442 -0.0127293 0.00498976)
(0.0762827 -0.0316548 0.00854884)
(0.0697462 -0.0152103 0.0179845)
(0.0673494 -0.0802982 0.0275208)
(0.0140714 -0.016678 0.0376915)
(0.0231594 -0.184522 0.0662769)
(-0.107933 0.0734628 -0.0616137)
(0.0285491 -0.11914 -0.01865)
(0.192444 -0.23754 0.108516)
(0.103925 0.0557593 0.0468555)
(0.0690551 -0.0817713 0.0222628)
(0.0428064 0.00606907 0.0141793)
(0.0285134 -0.0239537 0.0118078)
(0.0189566 -0.00267478 0.0118783)
(0.0177356 -0.00800688 0.0124371)
(0.0151968 -0.00109484 0.0108045)
(0.0152019 0.00176306 0.00944468)
(0.0152338 0.00680606 0.00982951)
(0.0140385 0.00469996 0.0109749)
(0.0116498 0.00374684 0.011246)
(0.00977305 6.22814e-06 0.0101883)
(0.00677596 -0.00146119 0.00908459)
(0.00306124 -0.00415047 0.00757466)
(0.000590544 -0.00499563 0.00622011)
(-0.000868618 -0.00510302 0.00650457)
(-0.00233712 -0.00475395 0.00694316)
(-0.00365283 -0.00555409 0.0084457)
(-0.00348314 -0.00681303 0.00981315)
(-0.00232322 -0.007446 0.010787)
(-0.00086909 -0.0083223 0.012543)
(-0.000595267 -0.0113479 0.014928)
(-0.00334643 -0.0151995 0.0152943)
(-0.00572166 -0.0189908 0.0146626)
(-0.00692751 -0.0216409 0.0129555)
(-0.00722886 -0.0215206 0.010099)
(-0.00730132 -0.0201104 0.00676296)
(-0.00688569 -0.0170198 0.00285943)
(-0.00628836 -0.0109258 0.000214446)
(-0.00555054 -0.00639381 0.00235282)
(-0.00547072 -0.00241632 0.00504997)
(-0.00541992 0.000716476 0.00822812)
(-0.00462849 0.000960798 0.0118669)
(-0.00491472 0.00322735 0.0156016)
(-0.00418955 -0.00136561 0.0201835)
(0.0233893 0.0212334 0.0042525)
(0.0267085 0.0150328 0.00443847)
(0.0160305 0.0092391 0.00104435)
(0.0164128 0.0100701 0.00151049)
(0.00928104 0.00458529 0.00193926)
(0.00828229 0.00502424 0.00244469)
(0.00360605 0.00119294 0.00330925)
(0.00259952 0.00192608 0.00330101)
(0.00122716 0.00119448 0.00340674)
(0.00153521 0.00245121 0.00357472)
(0.00151896 0.00229247 0.00373477)
(0.00218385 0.0028836 0.00414597)
(0.00254722 0.00278471 0.00433881)
(0.00306524 0.00289447 0.00449579)
(0.00326391 0.00249708 0.00446085)
(0.0034591 0.00219127 0.00446166)
(0.00343158 0.00167873 0.00443056)
(0.00344286 0.00131855 0.0044391)
(0.00337577 0.000930034 0.00443895)
(0.00331947 0.000655481 0.00445634)
(0.00322587 0.000401181 0.00447467)
(0.00313079 0.000226241 0.00450442)
(0.00302458 8.64555e-05 0.00453777)
(0.00291928 -2.98353e-06 0.00457745)
(0.00281589 -6.15771e-05 0.00462049)
(0.00271749 -9.37098e-05 0.00466652)
(0.00262414 -0.000112177 0.00471347)
(0.00253573 -0.000124999 0.00476053)
(0.00245269 -0.000137426 0.00480781)
(0.00237252 -0.000164174 0.00485579)
(0.00229835 -0.000186269 0.00490547)
(0.00222011 -0.000254741 0.00495627)
(0.0021608 -0.000272323 0.00500609)
(0.00209263 -0.000406653 0.00504994)
(0.00207915 -0.000377733 0.00508498)
(0.00204557 -0.000591661 0.00510405)
(0.00209887 -0.000429201 0.00510786)
(0.00208841 -0.000698136 0.00508576)
(0.00216988 -0.000254204 0.00504092)
(0.00214561 -0.00050131 0.00496251)
(0.00223905 0.000395113 0.00484765)
(0.00226147 6.77081e-05 0.00468396)
(0.00251492 0.00105891 0.00446199)
(0.00289819 -8.99943e-05 0.00421784)
(0.00364873 0.000590194 0.00413657)
(0.0044641 -0.00113748 0.00412315)
(0.00456519 0.00093187 0.00353667)
(0.00512922 -0.00147164 0.00228956)
(0.0120099 -0.000400734 0.00222554)
(0.0277839 -0.00926707 0.00251275)
(0.0523623 -0.00769506 0.00255942)
(0.070057 -0.0064981 0.00649388)
(0.0791836 0.00812754 0.0117386)
(0.0783689 0.000480965 0.0158456)
(0.0705519 0.0252545 0.0288908)
(0.0646282 -0.0339947 0.0437574)
(0.0191716 0.0541691 0.0796682)
(0.0381592 -0.190659 0.105424)
(-0.137532 0.200091 -0.0399539)
(0.0289387 -0.211238 0.00906645)
(0.174854 -0.201814 0.117638)
(0.0750268 0.0823574 0.0342673)
(0.0474983 -0.0402083 0.0220167)
(0.0145517 0.0504439 0.00271686)
(0.0104097 0.0291726 0.0071191)
(0.00268822 0.0500786 0.0079212)
(0.00302719 0.0474906 0.00939942)
(0.00194913 0.0542462 0.00956844)
(0.00458014 0.0527337 0.00894606)
(0.00636572 0.0555831 0.00808168)
(0.00776952 0.0532228 0.00791058)
(0.00831549 0.0518865 0.0068607)
(0.0070494 0.0481818 0.00674603)
(0.00401426 0.0452828 0.00712731)
(0.00103837 0.0403868 0.00762662)
(-0.00126039 0.036438 0.0089232)
(-0.0038838 0.0310686 0.00934382)
(-0.00598406 0.0280032 0.00974894)
(-0.00738532 0.0236586 0.0121287)
(-0.0080783 0.0210275 0.0141983)
(-0.00838668 0.0174975 0.0165243)
(-0.00878021 0.0147078 0.0176267)
(-0.0097179 0.0110788 0.0191637)
(-0.0114089 0.00593851 0.0181548)
(-0.0139829 0.00133639 0.0167634)
(-0.0153277 -0.00251587 0.0144234)
(-0.0145811 -0.00456895 0.00898067)
(-0.0125512 -0.00400965 0.00485365)
(-0.0116246 -0.00362515 0.00119009)
(-0.00940212 0.000298526 -0.000947191)
(-0.00826603 0.00273947 0.00231524)
(-0.0086314 0.00332057 0.00553378)
(-0.0090628 0.00288838 0.0086406)
(-0.0100189 4.14573e-05 0.0125402)
(-0.0133549 0.00116113 0.01584)
(-0.0153115 -0.00315235 0.0201018)
(0.0234309 0.0214061 0.0044786)
(0.028654 0.0179666 0.00517072)
(0.0174368 0.0101691 0.000905975)
(0.0190663 0.01207 0.00113914)
(0.011156 0.00500065 0.000548525)
(0.0104142 0.00650738 0.00107491)
(0.00448964 0.00161626 0.00193081)
(0.00275725 0.00250933 0.00245418)
(0.000152481 0.00031554 0.00285715)
(0.000177909 0.00151495 0.00325506)
(-9.32381e-05 0.00109083 0.00350137)
(0.000344934 0.00200833 0.00408897)
(0.000538492 0.00216423 0.00430741)
(0.00109391 0.00258824 0.00450316)
(0.00133002 0.00235404 0.00444327)
(0.00152091 0.00216168 0.00446202)
(0.00142821 0.00170144 0.00443743)
(0.00134573 0.00140201 0.00446291)
(0.00119164 0.00105034 0.00446087)
(0.00107316 0.000802864 0.00446659)
(0.000932255 0.000548055 0.00446064)
(0.000807603 0.000355638 0.00446376)
(0.000684636 0.000189242 0.0044704)
(0.000568589 7.22738e-05 0.00448445)
(0.000457412 -1.3155e-05 0.00450276)
(0.000358184 -6.83972e-05 0.00452669)
(0.000269421 -0.000105584 0.00455376)
(0.000191826 -0.000132885 0.00458249)
(0.000124031 -0.000155792 0.00461056)
(6.11576e-05 -0.000184349 0.0046377)
(2.57728e-06 -0.000203791 0.00466412)
(-6.11266e-05 -0.000255152 0.0046889)
(-0.00010957 -0.000251149 0.00471089)
(-0.000168163 -0.000335221 0.00472324)
(-0.000169949 -0.000248981 0.00472237)
(-0.000192416 -0.00036376 0.0046964)
(-0.000127312 -9.44207e-05 0.00464726)
(-0.000144973 -0.000194761 0.00456064)
(-7.81309e-05 0.000432782 0.00444595)
(-0.000142704 0.000404974 0.00430409)
(1.88429e-05 0.00144524 0.00416921)
(0.000247977 0.00113807 0.00403818)
(0.000944512 0.00194234 0.00388848)
(0.00165981 0.000427135 0.00378525)
(0.00251326 0.000796831 0.00395257)
(0.00281858 -0.00115003 0.00401726)
(0.00327045 0.000427343 0.00390058)
(0.00621728 -0.00334528 0.00340032)
(0.0141784 -0.00363136 0.00411309)
(0.0293587 -0.00913252 0.00588396)
(0.0487341 -0.000197473 0.00817072)
(0.0640961 0.0109143 0.0156268)
(0.0722254 0.03622 0.0210852)
(0.072072 0.0383749 0.0244736)
(0.0643604 0.0678847 0.0408518)
(0.0563655 0.0231673 0.0556053)
(0.030495 0.122953 0.0927118)
(0.0442002 -0.128691 0.109659)
(-0.10793 0.309581 -0.00808001)
(0.0180041 -0.269748 0.0177597)
(0.152383 -0.167373 0.121953)
(0.0568378 0.0941342 0.0285382)
(0.0476822 -0.00153853 0.0247607)
(0.0154759 0.0800787 0.00179579)
(0.0160725 0.0682416 0.00793294)
(0.00787926 0.0868629 0.00922262)
(0.00796575 0.0859376 0.0108878)
(0.0058166 0.0926524 0.010208)
(0.00689369 0.0922965 0.00969355)
(0.00757331 0.0962614 0.00978099)
(0.00986129 0.0941587 0.0105476)
(0.010485 0.0938892 0.0106812)
(0.0107475 0.0913736 0.0113177)
(0.0093661 0.0880816 0.0118097)
(0.0072231 0.082925 0.0134928)
(0.00421016 0.0772233 0.0136755)
(0.00159657 0.0721695 0.0131757)
(-0.00174166 0.0673352 0.0130691)
(-0.00495119 0.0625741 0.015043)
(-0.00745196 0.0582804 0.0173978)
(-0.00956492 0.0530748 0.0194676)
(-0.0120308 0.0460108 0.0210725)
(-0.01347 0.0382083 0.0211023)
(-0.0146143 0.0307683 0.0183368)
(-0.0154125 0.0241848 0.0137576)
(-0.0142825 0.0198479 0.00808779)
(-0.0117419 0.0179162 0.0029251)
(-0.00923496 0.0177498 0.000439401)
(-0.00872706 0.0181928 -0.000834631)
(-0.00691877 0.0184497 0.00268553)
(-0.00781225 0.0169572 0.00692082)
(-0.00818427 0.0139405 0.00919679)
(-0.00895256 0.0108575 0.0126971)
(-0.0122397 0.00364382 0.0153854)
(-0.0192091 0.00334091 0.0167304)
(-0.0269215 -0.0030515 0.019132)
(0.0220521 0.0211008 0.00524384)
(0.0300418 0.0211903 0.00651597)
(0.0179787 0.0108671 0.00170635)
(0.0210029 0.0139181 0.00238907)
(0.0129214 0.00413272 0.000271656)
(0.012167 0.00687826 0.000345759)
(0.00580753 0.00103512 0.000735247)
(0.00353635 0.00302698 0.00142028)
(0.000182932 -0.000273194 0.00207406)
(-0.000707327 0.000765696 0.00267643)
(-0.00134732 -0.000284958 0.00295997)
(-0.00115223 0.000883077 0.00371823)
(-0.000891484 0.00129688 0.0040455)
(-0.000156738 0.00210733 0.00443656)
(0.000267921 0.00195951 0.00452349)
(0.000521222 0.00186956 0.00465875)
(0.000401334 0.00144525 0.00466341)
(0.000253099 0.00123994 0.00469047)
(4.54759e-05 0.000980402 0.00465699)
(-0.00010676 0.000835027 0.00462113)
(-0.000268568 0.000659161 0.0045581)
(-0.00040783 0.000524943 0.00449697)
(-0.000546009 0.000391638 0.00443628)
(-0.000667631 0.000288651 0.00438577)
(-0.000770952 0.00020699 0.00434322)
(-0.000853295 0.000151712 0.00430926)
(-0.000916621 0.000113654 0.00428354)
(-0.000964764 8.74094e-05 0.00426481)
(-0.00100375 6.70549e-05 0.00425142)
(-0.00103547 4.55537e-05 0.00424442)
(-0.00106137 3.76707e-05 0.00424392)
(-0.00108848 1.43181e-05 0.00424635)
(-0.00110099 5.29536e-05 0.00424933)
(-0.0011217 3.40901e-05 0.0042403)
(-0.00109718 0.00019042 0.00421313)
(-0.00110709 0.00018518 0.00415241)
(-0.001066 0.000548658 0.00405425)
(-0.00114781 0.000565466 0.00389887)
(-0.00115731 0.00123852 0.0037048)
(-0.0012406 0.00121553 0.00350767)
(-0.00098813 0.00211587 0.00337641)
(-0.000522071 0.001669 0.00333498)
(0.000506376 0.00234443 0.00340108)
(0.00136001 0.000761772 0.00360145)
(0.00199846 0.00121818 0.00396266)
(0.00200236 -0.000542612 0.00415754)
(0.00292852 0.000199657 0.00407367)
(0.00699532 -0.00338684 0.00408985)
(0.013514 -0.0032225 0.0057808)
(0.0235735 -0.00671636 0.010008)
(0.0367777 0.00824445 0.0148025)
(0.0449262 0.024981 0.0239812)
(0.0533808 0.0545605 0.0305826)
(0.0549776 0.0648659 0.0360589)
(0.049474 0.0970625 0.051919)
(0.0416667 0.0575928 0.0601158)
(0.0321615 0.140112 0.079853)
(0.0407222 -0.0884092 0.0793122)
(-0.0372934 0.356991 0.0299027)
(0.0180021 -0.307862 0.0253911)
(0.0938798 -0.128007 0.115774)
(0.0230948 0.10943 0.0147654)
(0.0187841 0.0458356 0.0154871)
(-0.00200867 0.11381 0.00140382)
(-0.000652202 0.113673 0.0102788)
(-0.00447374 0.128362 0.0121124)
(-0.00191147 0.127769 0.0140105)
(-0.000894849 0.13361 0.0141047)
(0.00211895 0.132109 0.0143395)
(0.00540922 0.134541 0.0151132)
(0.00982351 0.131823 0.0154192)
(0.0119061 0.132175 0.0153027)
(0.013558 0.129914 0.0156827)
(0.0130841 0.128634 0.0164916)
(0.0114916 0.12413 0.0173295)
(0.00872271 0.118843 0.0175388)
(0.00562479 0.112513 0.0178184)
(0.0023146 0.10599 0.018311)
(-0.00155586 0.0987476 0.0191013)
(-0.00554674 0.0895296 0.0200434)
(-0.00942226 0.0800255 0.0201515)
(-0.0125361 0.0697714 0.0192189)
(-0.0135446 0.0601726 0.0160032)
(-0.0134646 0.0518184 0.0105199)
(-0.0130876 0.0467724 0.00457522)
(-0.0117093 0.0446922 -0.000379443)
(-0.00946218 0.0446639 -0.00398493)
(-0.00813411 0.0455589 -0.0044104)
(-0.00771406 0.0446278 -0.000207536)
(-0.00846227 0.0406055 0.00654672)
(-0.0106208 0.0344004 0.00904636)
(-0.0121051 0.0284292 0.0115629)
(-0.0134936 0.0220961 0.015464)
(-0.0175444 0.0126553 0.017997)
(-0.025866 0.00896352 0.0182214)
(-0.0332981 -0.0013819 0.0165827)
(0.0183615 0.0196182 0.00544314)
(0.0299805 0.0248373 0.00854702)
(0.0165997 0.0109247 0.00352241)
(0.0209189 0.0159926 0.00508012)
(0.0130029 0.00280969 0.00189903)
(0.01222 0.00639025 0.00141575)
(0.00568868 -0.00044918 0.00118945)
(0.00364978 0.00292507 0.00126242)
(-7.69933e-05 -0.000603905 0.00166766)
(-0.00158056 0.000702563 0.00241049)
(-0.00302367 -0.00101015 0.0025974)
(-0.00371656 0.00018709 0.00337732)
(-0.00387015 0.000522831 0.00380728)
(-0.00291682 0.00147612 0.00456335)
(-0.0023679 0.00133947 0.00493961)
(-0.00211899 0.00140887 0.00524398)
(-0.00237606 0.00108131 0.00527461)
(-0.00271173 0.00101404 0.00526017)
(-0.00306376 0.000868953 0.005155)
(-0.00329181 0.000852105 0.00504903)
(-0.00347857 0.00079243 0.00491603)
(-0.00360763 0.000768995 0.00479408)
(-0.00371307 0.000722669 0.0046781)
(-0.00379832 0.000685615 0.00458395)
(-0.00387422 0.000651402 0.00451114)
(-0.0039228 0.000629149 0.00445325)
(-0.00395013 0.000610428 0.00440783)
(-0.00395377 0.000596544 0.00437954)
(-0.00394147 0.000584851 0.00436705)
(-0.00392388 0.000573448 0.00436815)
(-0.00391038 0.000580364 0.00438107)
(-0.00390529 0.000589112 0.00439912)
(-0.00390124 0.000672281 0.00441574)
(-0.00391271 0.000727604 0.00441447)
(-0.00388354 0.000951802 0.0043929)
(-0.00387808 0.00102784 0.0043382)
(-0.00380323 0.00141849 0.0042599)
(-0.00381448 0.00142213 0.00413424)
(-0.00373006 0.00193008 0.00396191)
(-0.00370983 0.00164927 0.00374305)
(-0.00336095 0.00216786 0.00355975)
(-0.00282324 0.00140089 0.00344936)
(-0.00169816 0.00189845 0.00353829)
(-0.000849687 0.000473138 0.00383086)
(-0.000400635 0.00115114 0.00417647)
(-0.000293854 -0.000284931 0.00423344)
(0.00163299 0.000236946 0.00428633)
(0.00575006 -0.00270049 0.00473574)
(0.0114024 -0.00308801 0.00680993)
(0.0160573 -0.00436073 0.0119236)
(0.0171366 0.0144965 0.0181008)
(0.0215974 0.0358148 0.0270421)
(0.0266628 0.0701773 0.0356122)
(0.030396 0.0888955 0.0446017)
(0.0353374 0.117989 0.0571014)
(0.0381151 0.0796434 0.0613318)
(0.0462147 0.15474 0.071147)
(0.0407419 -0.0738868 0.0596354)
(0.00485836 0.345799 0.0605602)
(0.00993355 -0.3214 0.0317001)
(0.0336734 -0.0903051 0.102005)
(-0.00375439 0.124573 0.0163961)
(-0.00441419 0.086961 0.012416)
(-0.0135856 0.149011 0.0020156)
(-0.00888153 0.148123 0.0129589)
(-0.00748815 0.159207 0.0145805)
(-0.00388054 0.155372 0.0158457)
(-0.00144832 0.159315 0.015991)
(0.00192067 0.156938 0.0170628)
(0.00544212 0.158517 0.0180105)
(0.00986339 0.155462 0.0182543)
(0.0120135 0.157122 0.0177364)
(0.0142114 0.156013 0.0184577)
(0.0140064 0.154922 0.0188827)
(0.0132206 0.150779 0.0195115)
(0.0108276 0.145621 0.0191107)
(0.0081553 0.138827 0.0186065)
(0.00469979 0.130742 0.0181971)
(0.00139361 0.122203 0.0177701)
(-0.00206148 0.112508 0.0179904)
(-0.00466027 0.101903 0.0174061)
(-0.00625457 0.0914719 0.0148264)
(-0.00590821 0.082856 0.0104828)
(-0.00529796 0.076973 0.00508307)
(-0.00440171 0.0741632 -7.76765e-05)
(-0.00356456 0.0719399 -0.00552448)
(-0.00353379 0.0715871 -0.0079753)
(-0.00338713 0.0703887 -0.00588213)
(-0.00270768 0.06613 -0.00307346)
(-0.0030673 0.0601974 0.000725169)
(-0.00524288 0.0508789 0.002943)
(-0.00854897 0.0421629 0.00553856)
(-0.0122044 0.0325061 0.0092659)
(-0.018547 0.0213973 0.0118468)
(-0.0278382 0.0140743 0.0137646)
(-0.0401894 -0.00072951 0.0107387)
(0.0149199 0.0143496 0.00438788)
(0.0287775 0.0279459 0.00926594)
(0.0136835 0.0105577 0.00426637)
(0.0195076 0.0188017 0.00617183)
(0.0122665 0.00265614 0.00299768)
(0.0108381 0.00645916 0.00223267)
(0.00381827 -0.00171329 0.0022439)
(0.00210366 0.00272121 0.0017867)
(-0.000822696 -0.0011024 0.00223579)
(-0.00235008 0.00100567 0.00287321)
(-0.00380214 -0.0010918 0.00312631)
(-0.00466834 -7.87945e-05 0.00394198)
(-0.00468548 -0.000618953 0.00462038)
(-0.00358767 8.35242e-05 0.00561295)
(-0.00301495 -0.000121235 0.00630794)
(-0.00278641 0.00035352 0.00686417)
(-0.00301442 0.000409714 0.00709306)
(-0.00328505 0.000732281 0.00716412)
(-0.00357722 0.000830854 0.00708576)
(-0.00375503 0.00101882 0.00697)
(-0.00390715 0.00109429 0.0068117)
(-0.00400069 0.00117063 0.00666348)
(-0.00407043 0.00119148 0.00652557)
(-0.00411419 0.00120266 0.00641227)
(-0.00414185 0.0011939 0.00631967)
(-0.00414404 0.00118156 0.00624959)
(-0.00412531 0.00116829 0.00619881)
(-0.00408648 0.00115632 0.00616629)
(-0.00403653 0.00114537 0.00614816)
(-0.00398543 0.0011408 0.00614344)
(-0.0039462 0.00116139 0.00614692)
(-0.00392507 0.00119933 0.00614923)
(-0.00391667 0.00131772 0.00614346)
(-0.00391938 0.00142318 0.00612086)
(-0.003878 0.00167396 0.00608104)
(-0.00385672 0.00177247 0.00601448)
(-0.00375688 0.00211351 0.00593189)
(-0.00372143 0.0020455 0.0058091)
(-0.00353361 0.0023979 0.00566018)
(-0.00338368 0.00195787 0.00547716)
(-0.00292676 0.00222468 0.00532595)
(-0.0024147 0.00122892 0.00524294)
(-0.00148686 0.00152309 0.0053703)
(-0.00091658 8.02343e-05 0.00563335)
(-0.000841984 0.000961169 0.00584143)
(-0.000816478 -0.000436229 0.00561922)
(0.00101337 -0.000362864 0.0054622)
(0.00546084 -0.00344142 0.00552825)
(0.00927992 -0.000943758 0.00766684)
(0.00358837 0.00494565 0.0159464)
(-0.00455406 0.02484 0.025057)
(-0.00748504 0.0470397 0.0322292)
(-0.0044129 0.0795982 0.0365793)
(0.00782486 0.103669 0.0410182)
(0.0242636 0.136616 0.0526514)
(0.0469014 0.121539 0.0593472)
(0.0707854 0.18001 0.0734625)
(0.0717745 -0.0148233 0.0655687)
(0.0707805 0.37758 0.0386457)
(-0.00633689 -0.340913 0.0308879)
(-0.0474934 -0.0615349 0.0736217)
(-0.0389674 0.155996 -0.00742618)
(-0.0377841 0.121098 0.00295809)
(-0.0283131 0.174508 -0.0021094)
(-0.0204635 0.164945 0.00983886)
(-0.011181 0.169497 0.0100726)
(-0.00697738 0.163239 0.0108157)
(-0.00214464 0.164806 0.0103911)
(0.00185444 0.163049 0.011388)
(0.0071278 0.16323 0.0125725)
(0.0103477 0.162272 0.0125995)
(0.0118764 0.164516 0.0124417)
(0.013958 0.165766 0.0132746)
(0.0161194 0.168295 0.0145742)
(0.0175428 0.167771 0.016001)
(0.0176181 0.164823 0.0173772)
(0.0170197 0.159862 0.0184144)
(0.0156467 0.153027 0.0190711)
(0.0135725 0.144961 0.019268)
(0.0114295 0.136068 0.0189705)
(0.00925051 0.127441 0.0180145)
(0.00793024 0.118421 0.0160519)
(0.00675994 0.111348 0.012583)
(0.00561381 0.107242 0.00744709)
(0.00432548 0.105504 0.0033029)
(0.00233792 0.105149 0.000980185)
(0.00186533 0.104046 0.000596571)
(0.00253898 0.102192 0.00048205)
(0.00399691 0.099795 0.001122)
(0.00460182 0.0963456 0.00359439)
(0.00288384 0.0891905 0.0065594)
(-0.00113797 0.0804437 0.00983759)
(-0.00516395 0.0687403 0.0127563)
(-0.0117324 0.0530739 0.0135557)
(-0.0218533 0.0340733 0.00870679)
(-0.0317913 0.00707001 -0.00647839)
(0.00503056 0.00944955 -0.00302552)
(0.0263224 0.0298133 0.00726207)
(0.00920473 0.0105695 0.00188539)
(0.0171234 0.0225174 0.00383697)
(0.0109548 0.00448577 0.00155227)
(0.00928368 0.00794843 0.000515408)
(0.00127953 -0.00186545 -0.0007788)
(0.000124711 0.00329262 -0.00126249)
(-0.00309289 -0.000835443 -0.00087051)
(-0.0044626 0.00159054 -0.000338499)
(-0.00601684 -0.000917863 3.10627e-06)
(-0.00689579 -0.000153001 0.000769149)
(-0.00744049 -0.00144855 0.0014608)
(-0.00690075 -0.000839912 0.00230114)
(-0.00691639 -0.000963522 0.00302031)
(-0.00698174 -0.000199115 0.00360426)
(-0.00740698 5.47035e-05 0.00402815)
(-0.00772742 0.000581535 0.0042842)
(-0.00806053 0.000800259 0.00437792)
(-0.0082263 0.00108993 0.00438573)
(-0.00831316 0.00123327 0.00432743)
(-0.00832671 0.00136611 0.00426101)
(-0.00831719 0.00143055 0.00419556)
(-0.00828919 0.00147213 0.00414279)
(-0.0082496 0.00148505 0.00409956)
(-0.00819355 0.00148685 0.00406728)
(-0.00812366 0.00148398 0.00404403)
(-0.00803998 0.0014839 0.00402909)
(-0.00795045 0.00148995 0.00401971)
(-0.00787599 0.00150706 0.00401471)
(-0.00783062 0.00154719 0.00401158)
(-0.00780847 0.00160629 0.00400442)
(-0.00780334 0.00173061 0.00398842)
(-0.00780026 0.00183411 0.00395821)
(-0.00773586 0.00205661 0.0039109)
(-0.00765593 0.00213636 0.0038507)
(-0.00746714 0.00244559 0.00377769)
(-0.00732589 0.00239212 0.00368323)
(-0.00707873 0.00271679 0.00354876)
(-0.00687788 0.00226141 0.00338319)
(-0.00638674 0.00246594 0.00320839)
(-0.00587903 0.00142954 0.00306975)
(-0.00501563 0.00157998 0.00307112)
(-0.00463861 2.85343e-05 0.00328498)
(-0.00475017 0.000680603 0.00327737)
(-0.00418141 -0.00101275 0.00255249)
(-0.00160933 -0.00039477 0.00252441)
(0.000196135 -0.00318723 0.00189089)
(-0.0017539 0.00421126 0.00449494)
(-0.0117701 0.0100541 0.0132018)
(-0.0283288 0.0229245 0.0237215)
(-0.0330025 0.0344529 0.0303599)
(-0.0305123 0.0610981 0.0312615)
(-0.018531 0.0739831 0.0285784)
(-0.00222009 0.118831 0.0368763)
(0.0308944 0.0887906 0.0421842)
(0.0705103 0.181695 0.0622071)
(0.0930778 -0.01546 0.0696713)
(0.162115 0.41211 0.0310067)
(-0.00876467 -0.323607 0.0265341)
(-0.114404 -0.102295 0.0552274)
(-0.0618861 0.146308 -0.0113246)
(-0.0585255 0.0772579 0.00235054)
(-0.0304304 0.133344 0.000138818)
(-0.0246322 0.10377 0.0116066)
(-0.010781 0.107037 0.00921097)
(-0.00710552 0.0954549 0.00854669)
(-0.00244999 0.0944392 0.0070761)