/*--------------------------------*- C++ -*----------------------------------*\
| =========                 |                                                 |
| \\      /  F ield         | OpenFOAM: The Open Source CFD Toolbox           |
|  \\    /   O peration     | Version:  2.3.0                                 |
|   \\  /    A nd           | Web:      www.OpenFOAM.org                      |
|    \\/     M anipulation  |                                                 |
\*---------------------------------------------------------------------------*/
FoamFile
{
    version     2.0;
    format      ascii;
    class       volScalarField;
    location    "43";
    object      w2;
}
// * * * * * * * * * * * * * * * * * * * * * * * * * * * * * * * * * * * * * //

dimensions      [0 0 0 0 0 0 0];

internalField   nonuniform List<scalar> 
6144
(
0.452838
0.452838
0.452838
0.452838
0.452838
0.452838
0.452838
0.452838
0.452838
0.452838
0.452838
0.452838
0.452838
0.452838
0.452838
0.452838
0.452838
0.452838
0.452838
0.452838
0.452838
0.452838
0.452838
0.452838
0.452838
0.452838
0.452838
0.452838
0.452838
0.452838
0.452838
0.452838
0.452838
0.452838
0.452838
0.452838
0.452838
0.452838
0.452838
0.452838
0.452838
0.452838
0.452838
0.452838
0.452838
0.452838
0.452838
0.452838
0.452838
0.452838
0.452838
0.452838
0.452838
0.452838
0.452838
0.452838
0.45284
0.452908
0.482306
0.485669
0.133906
0.000556553
3.41262e-06
0.000880981
0.000647559
0.00431131
0.00724339
0.0363949
0.0176515
0.0228717
0.00834725
0.00591957
0.00539533
0.00373184
0.00160851
0.00108743
0.00225335
0.00388057
0.0036221
0.0130064
0.0721697
0.104879
0.00493352
0.00258668
0.00420268
0.0663599
0.108271
0.0282707
0.00562598
0.00568104
0.0094057
0.166514
0.0134236
0.00742787
0.00103882
0.000118694
0.452838
0.452838
0.452838
0.452838
0.452838
0.452838
0.452838
0.452838
0.452838
0.452838
0.452838
0.452838
0.452838
0.452838
0.452838
0.452838
0.452838
0.452838
0.452838
0.452838
0.452838
0.452838
0.452838
0.452838
0.452838
0.452838
0.452838
0.452838
0.452838
0.452838
0.452838
0.452838
0.452838
0.452838
0.452838
0.452838
0.452838
0.452838
0.452838
0.452838
0.452838
0.452838
0.452838
0.452838
0.452838
0.452838
0.452838
0.452838
0.452838
0.452838
0.452838
0.452838
0.452838
0.452838
0.452838
0.452838
0.452843
0.45392
0.501765
0.483714
0.165278
0.000683935
3.59265e-06
0.000527758
0.00272228
0.00147423
0.00424788
0.0136851
0.00646072
0.00428265
0.00398076
0.00284037
0.00270403
0.00545572
0.000898908
0.00114517
0.00512144
0.00101713
0.00115682
0.00320512
0.00244533
0.000764909
0.000672623
0.000953842
0.0024012
0.0149223
0.0237857
0.00382046
0.0015689
0.00141564
0.00267967
0.00327863
0.0101438
0.00354761
0.000643075
0.000109149
0.452838
0.452838
0.452838
0.452838
0.452838
0.452838
0.452838
0.452838
0.452838
0.452838
0.452838
0.452838
0.452838
0.452838
0.452838
0.452838
0.452838
0.452838
0.452838
0.452838
0.452838
0.452838
0.452838
0.452838
0.452838
0.452838
0.452838
0.452838
0.452838
0.452838
0.452838
0.452838
0.452838
0.452838
0.452838
0.452838
0.452838
0.452838
0.452838
0.452838
0.452838
0.452838
0.452838
0.452838
0.452838
0.452838
0.452838
0.452838
0.452838
0.452838
0.452838
0.452838
0.452838
0.452838
0.452838
0.452838
0.452839
0.452854
0.47195
0.40689
0.779427
0.000625044
3.77551e-06
0.000373833
0.00201362
0.00134522
0.00145845
0.00795099
0.00763486
0.00786538
0.0258127
0.0183235
0.0175049
0.150589
0.00212092
0.0099939
0.00124772
0.00117131
0.0016477
0.00431279
0.00121617
0.000773462
0.000814662
0.00130779
0.00349031
0.881918
0.00540926
0.00327921
0.00207026
0.00220375
0.0431143
0.0148064
0.0580593
0.00148913
0.000604773
0.000110912
0.452838
0.452838
0.452838
0.452838
0.452838
0.452838
0.452838
0.452838
0.452838
0.452838
0.452838
0.452838
0.452838
0.452838
0.452838
0.452838
0.452838
0.452838
0.452838
0.452838
0.452838
0.452838
0.452838
0.452838
0.452838
0.452838
0.452838
0.452838
0.452838
0.452838
0.452838
0.452838
0.452838
0.452838
0.452838
0.452838
0.452838
0.452838
0.452838
0.452838
0.452838
0.452838
0.452838
0.452838
0.452838
0.452838
0.452838
0.452838
0.452838
0.452838
0.452838
0.452838
0.452838
0.452838
0.452839
0.452838
0.452839
0.452816
0.455325
0.497352
0.870728
0.0267542
6.94392e-06
0.000244488
0.000499573
0.000401751
0.000596158
0.00366917
0.00247464
0.00135752
0.00101225
0.00116581
0.00232458
0.00368953
0.00213406
0.0423639
0.00104131
0.000285438
0.000157896
0.000145836
0.000672038
0.00081924
0.000400846
0.000415105
0.000401557
0.000337733
0.000242657
0.000272877
0.00128759
0.000646768
0.00173794
0.004165
0.00490718
0.000887888
0.000579407
0.000115002
0.452838
0.452838
0.452838
0.452838
0.452838
0.452838
0.452838
0.452838
0.452838
0.452838
0.452838
0.452838
0.452838
0.452838
0.452838
0.452838
0.452838
0.452838
0.452838
0.452838
0.452838
0.452838
0.452838
0.452838
0.452838
0.452838
0.452838
0.452838
0.452838
0.452838
0.452838
0.452838
0.452838
0.452838
0.452838
0.452838
0.452838
0.452838
0.452838
0.452838
0.452838
0.452838
0.452838
0.452838
0.452838
0.452838
0.452838
0.452838
0.452838
0.452838
0.452838
0.452838
0.452838
0.452839
0.452839
0.452838
0.452839
0.452834
0.452818
0.47358
0.151818
0.0109152
0.215444
0.99876
0.000220678
0.999994
7.81156e-06
9.78711e-06
5.99428e-05
8.05317e-05
0.000122613
0.000275339
0.997053
0.000249507
0.000118105
5.37628e-06
1.05269e-05
0.000417023
0.000879203
0.0016162
0.000670055
0.000442165
0.000587335
0.000721757
0.00140007
0.000356782
3.91926e-05
7.5804e-06
2.42169e-05
0.000392041
1.42965e-05
0.000102622
0.00138217
0.000755825
0.000776413
0.000122288
0.452838
0.452838
0.452838
0.452838
0.452838
0.452838
0.452838
0.452838
0.452838
0.452838
0.452838
0.452838
0.452838
0.452838
0.452838
0.452838
0.452838
0.452838
0.452838
0.452838
0.452838
0.452838
0.452838
0.452838
0.452838
0.452838
0.452838
0.452838
0.452838
0.452838
0.452838
0.452838
0.452838
0.452838
0.452838
0.452838
0.452838
0.452838
0.452838
0.452838
0.452838
0.452838
0.452838
0.452838
0.452838
0.452838
0.452838
0.452838
0.452838
0.452838
0.452838
0.452838
0.452839
0.452839
0.452838
0.452838
0.452838
0.452839
0.452849
0.488401
0.192
0.281063
9.28445e-05
0.939029
0.993268
0.0195993
0.99697
0.0438373
0.00745975
0.0260286
0.677767
0.120105
0.253019
0.943396
0.100007
0.130771
0.0223424
0.140268
0.0247721
0.0053332
0.00193606
0.00586694
0.00559689
0.0058366
0.00767622
0.0101661
0.0155797
0.0322903
0.0119179
0.00143361
0.000188897
1.8787e-05
5.29529e-06
0.000342955
0.000536033
0.000330661
0.452838
0.452838
0.452838
0.452838
0.452838
0.452838
0.452838
0.452838
0.452838
0.452838
0.452838
0.452838
0.452838
0.452838
0.452838
0.452838
0.452838
0.452838
0.452838
0.452838
0.452838
0.452838
0.452838
0.452838
0.452838
0.452838
0.452838
0.452838
0.452838
0.452838
0.452838
0.452838
0.452838
0.452838
0.452838
0.452838
0.452838
0.452838
0.452838
0.452838
0.452838
0.452838
0.452838
0.452838
0.452838
0.452838
0.452838
0.452838
0.452838
0.452838
0.452838
0.452838
0.452839
0.452839
0.452838
0.452838
0.45284
0.452803
0.451629
0.532721
0.0699536
0.982872
0.98358
0.112702
6.58476e-06
9.78345e-08
0.000150923
0.945151
0.0642278
0.989187
0.728986
0.807595
0.348763
0.447236
0.999277
0.792063
0.086436
0.369739
0.277793
0.0359872
0.00431079
0.00155362
0.000443996
0.000412414
0.0262278
0.908279
0.130692
0.0118439
0.0111612
0.097863
0.00853022
0.00336972
0.0170825
0.00336278
0.00412357
4.48533e-05
0.452838
0.452838
0.452838
0.452838
0.452838
0.452838
0.452838
0.452838
0.452838
0.452838
0.452838
0.452838
0.452838
0.452838
0.452838
0.452838
0.452838
0.452838
0.452838
0.452838
0.452838
0.452838
0.452838
0.452838
0.452838
0.452838
0.452838
0.452838
0.452838
0.452838
0.452838
0.452838
0.452838
0.452838
0.452838
0.452838
0.452838
0.452838
0.452838
0.452838
0.452838
0.452838
0.452838
0.452838
0.452838
0.452838
0.452838
0.452838
0.452838
0.452838
0.452838
0.452838
0.452838
0.452839
0.452838
0.452838
0.45284
0.453451
0.442312
0.525573
0.10261
2.1527e-05
0.0092269
0.992927
0.915203
0.0574429
0.542347
0.908563
0.389305
0.952992
0.925945
0.999993
0.0215812
0.980731
0.837176
0.204535
0.00254925
7.26202e-07
6.72628e-09
2.25762e-06
0.0509151
0.996761
0.127644
0.209967
0.0268732
0.00392987
0.000557644
0.959574
0.99999
0.414625
0.000317239
0.0449785
0.000329115
1
0.999914
0.00438958
0.452838
0.452838
0.452838
0.452838
0.452838
0.452838
0.452838
0.452838
0.452838
0.452838
0.452838
0.452838
0.452838
0.452838
0.452838
0.452838
0.452838
0.452838
0.452838
0.452838
0.452838
0.452838
0.452838
0.452838
0.452838
0.452838
0.452838
0.452838
0.452838
0.452838
0.452838
0.452838
0.452838
0.452838
0.452838
0.452838
0.452838
0.452838
0.452838
0.452838
0.452838
0.452838
0.452838
0.452838
0.452838
0.452838
0.452838
0.452838
0.452838
0.452838
0.452838
0.452838
0.452838
0.452838
0.452839
0.452839
0.452813
0.452395
0.453497
0.521947
0.966396
0.829025
0.580084
0.986933
0.0816346
0.783193
0.972675
0.97438
0.445387
0.801902
0.00494882
0.971953
0.816941
0.963752
0.863164
0.822904
0.593918
0.58614
0.829415
0.969342
0.0651362
0.0181874
0.980043
0.321873
0.0479778
0.181445
0.0171888
0.00122259
3.48021e-05
2.82438e-06
0.000212672
0.000352717
0.000363589
0.00204067
0.000431735
6.43814e-05
0.452838
0.452838
0.452838
0.452838
0.452838
0.452838
0.452838
0.452838
0.452838
0.452838
0.452838
0.452838
0.452838
0.452838
0.452838
0.452838
0.452838
0.452838
0.452838
0.452838
0.452838
0.452838
0.452838
0.452838
0.452838
0.452838
0.452838
0.452838
0.452838
0.452838
0.452838
0.452838
0.452838
0.452838
0.452838
0.452838
0.452838
0.452838
0.452838
0.452838
0.452838
0.452838
0.452838
0.452838
0.452838
0.452838
0.452838
0.452838
0.452838
0.452838
0.452838
0.452838
0.452838
0.452838
0.452839
0.452838
0.452838
0.452831
0.452898
0.528644
0.0268193
0.859465
0.999455
0.933733
0.733606
0.516895
0.997849
0.302483
0.000109966
0.0635324
0.741001
0.968277
0.999509
0.973377
0.193307
0.727862
0.322812
0.0534039
0.992642
0.00182015
0.000370604
1.39445e-05
2.67863e-05
1.05223e-05
0.000165578
3.1339e-05
9.07911e-06
8.55359e-06
0.000253836
0.000178188
0.00141452
0.00155005
0.402211
0.0020203
0.0025751
0.000119452
0.452838
0.452838
0.452838
0.452838
0.452838
0.452838
0.452838
0.452838
0.452838
0.452838
0.452838
0.452838
0.452838
0.452838
0.452838
0.452838
0.452838
0.452838
0.452838
0.452838
0.452838
0.452838
0.452838
0.452838
0.452838
0.452838
0.452838
0.452838
0.452838
0.452838
0.452838
0.452838
0.452838
0.452838
0.452838
0.452838
0.452838
0.452838
0.452838
0.452838
0.452838
0.452838
0.452838
0.452838
0.452838
0.452838
0.452838
0.452838
0.452838
0.452838
0.452838
0.452838
0.452838
0.452838
0.452838
0.452838
0.452839
0.450969
0.502598
0.52137
0.0394123
0.0324277
0.225611
0.72404
0.810722
0.999812
0.602044
0.936647
0.956322
0.907649
0.210002
0.037145
0.765475
0.0473187
0.0271222
0.00917771
0.001091
0.000108632
8.49566e-06
4.51014e-06
0.00047419
0.00150119
0.00871422
0.00190197
0.00139921
0.00160641
0.00127263
0.00491031
0.00318759
0.00235627
0.00934036
0.00491891
0.00320456
0.00266202
0.0193322
0.000125006
0.452838
0.452838
0.452838
0.452838
0.452838
0.452838
0.452838
0.452838
0.452838
0.452838
0.452838
0.452838
0.452838
0.452838
0.452838
0.452838
0.452838
0.452838
0.452838
0.452838
0.452838
0.452838
0.452838
0.452838
0.452838
0.452838
0.452838
0.452838
0.452838
0.452838
0.452838
0.452838
0.452838
0.452838
0.452838
0.452838
0.452838
0.452838
0.452838
0.452838
0.452838
0.452838
0.452838
0.452838
0.452838
0.452838
0.452838
0.452838
0.452838
0.452838
0.452838
0.452838
0.452838
0.452838
0.452838
0.452838
0.452839
0.452821
0.453565
0.488422
0.0896606
0.00220887
0.0113841
0.0111597
0.00847163
0.308801
0.0114053
0.00933081
0.0266776
0.0189856
0.300841
0.00219875
0.0008693
9.90625e-05
1.78352e-05
8.92705e-06
1.63936e-05
0.000173962
0.000288487
0.00563713
0.00127294
0.00145798
0.00563862
0.0137666
0.0050128
0.00612733
0.0130859
0.00739728
0.00394436
0.00193936
0.00514629
0.00481148
0.00183044
0.00783403
0.00719708
0.00012785
0.452838
0.452838
0.452838
0.452838
0.452838
0.452838
0.452838
0.452838
0.452838
0.452838
0.452838
0.452838
0.452838
0.452838
0.452838
0.452838
0.452838
0.452838
0.452838
0.452838
0.452838
0.452838
0.452838
0.452838
0.452838
0.452838
0.452838
0.452838
0.452838
0.452838
0.452838
0.452838
0.452838
0.452838
0.452838
0.452838
0.452838
0.452838
0.452838
0.452838
0.452838
0.452838
0.452838
0.452838
0.452838
0.452838
0.452838
0.452838
0.452838
0.452838
0.452838
0.452838
0.452838
0.452838
0.452838
0.452838
0.452838
0.452838
0.452848
0.560821
0.0739852
0.000768671
0.000262311
7.88614e-05
5.26712e-05
8.66211e-06
5.46912e-06
0.000138368
0.000128221
8.65969e-06
1.44084e-05
1.04072e-05
6.89704e-06
0.000325446
0.000308314
0.000399598
0.0017955
0.00164453
0.00471337
0.00342432
0.00153614
0.00218484
0.0156983
0.00561264
0.00347796
0.00469629
0.0381601
0.018497
0.00506498
0.00176983
0.00458123
0.0131912
0.00663804
0.00274751
0.00567062
0.000125537
0.452838
0.452838
0.452838
0.452838
0.452838
0.452838
0.452838
0.452838
0.452838
0.452838
0.452838
0.452838
0.452838
0.452838
0.452838
0.452838
0.452838
0.452838
0.452838
0.452838
0.452838
0.452838
0.452838
0.452838
0.452838
0.452838
0.452838
0.452838
0.452838
0.452838
0.452838
0.452838
0.452838
0.452838
0.452838
0.452838
0.452838
0.452838
0.452838
0.452838
0.452838
0.452838
0.452838
0.452838
0.452838
0.452838
0.452838
0.452838
0.452838
0.452838
0.452838
0.452838
0.452838
0.452838
0.452838
0.452838
0.452839
0.45284
0.452868
0.515308
0.135653
0.000396812
2.33256e-06
6.80403e-05
0.000339383
0.000233556
0.00308755
0.000601249
0.000701556
0.00108083
0.000259219
0.000380883
0.0123501
0.00813729
0.00459741
0.00348674
0.00522292
0.010401
0.0191002
0.00607505
0.00469552
0.00611866
0.0127228
0.00259591
0.00204781
0.00239657
0.0449052
0.0638848
0.00840983
0.00183018
0.00321852
0.0345603
0.0469207
0.00234373
0.0031909
0.000126645
0.452838
0.452838
0.452838
0.452838
0.452838
0.452838
0.452838
0.452838
0.452838
0.452838
0.452838
0.452838
0.452838
0.452838
0.452838
0.452838
0.452838
0.452838
0.452838
0.452838
0.452838
0.452838
0.452838
0.452838
0.452838
0.452838
0.452838
0.452838
0.452838
0.452838
0.452838
0.452838
0.452838
0.452838
0.452838
0.452838
0.452838
0.452838
0.452838
0.452838
0.452838
0.452838
0.452838
0.452838
0.452838
0.452838
0.452838
0.452838
0.452838
0.452838
0.452838
0.452838
0.452838
0.452838
0.452838
0.452838
0.45284
0.45284
0.455674
0.563798
0.0900828
0.00133189
2.41167e-06
0.000299763
0.0003331
0.00172442
0.0150553
0.0031186
0.00173046
0.000917085
0.00104262
0.00120719
0.00130834
0.00254955
0.00701688
0.00625256
0.00404966
0.00325672
0.00237131
0.00263733
0.00342303
0.00314351
0.00165683
0.00134683
0.00147378
0.0030921
0.00254045
0.00229952
0.00631388
0.00279032
0.00226394
0.00771766
0.00780012
0.00557306
0.00139564
0.000113647
0.452838
0.452838
0.452838
0.452838
0.452838
0.452838
0.452838
0.452838
0.452838
0.452838
0.452838
0.452838
0.452838
0.452838
0.452838
0.452838
0.452838
0.452838
0.452838
0.452838
0.452838
0.452838
0.452838
0.452838
0.452838
0.452838
0.452838
0.452838
0.452838
0.452838
0.452838
0.452838
0.452838
0.452838
0.452838
0.452838
0.452838
0.452838
0.452838
0.452838
0.452838
0.452838
0.452838
0.452838
0.452838
0.452838
0.452838
0.452838
0.452838
0.452838
0.452838
0.452838
0.452838
0.452838
0.452838
0.452838
0.45284
0.452834
0.449567
0.518685
0.164929
0.980027
2.31498e-06
0.000296307
0.00064882
0.00397398
0.002149
0.00200182
0.0027927
0.00292496
0.00143965
0.00144385
0.000913625
0.000989397
0.00100878
0.00123959
0.00182067
0.00325587
0.0244664
0.00396322
0.00264345
0.00288388
0.00263339
0.00297047
0.00245638
0.00480052
0.00199924
0.00306707
0.00923894
0.00171187
0.0022776
0.00174361
0.00214191
0.00249693
0.000705752
0.000117332
0.452838
0.452838
0.452838
0.452838
0.452838
0.452838
0.452838
0.452838
0.452838
0.452838
0.452838
0.452838
0.452838
0.452838
0.452838
0.452838
0.452838
0.452838
0.452838
0.452838
0.452838
0.452838
0.452838
0.452838
0.452838
0.452838
0.452838
0.452838
0.452838
0.452838
0.452838
0.452838
0.452838
0.452838
0.452838
0.452838
0.452838
0.452838
0.452838
0.452838
0.452838
0.452838
0.452838
0.452838
0.452838
0.452838
0.452838
0.452838
0.452838
0.452838
0.452838
0.452838
0.452838
0.452838
0.452838
0.452838
0.452839
0.453944
0.487646
0.498663
0.154011
0.00117376
3.58559e-06
0.00077481
0.00108718
0.0060489
0.00329459
0.0124522
0.12558
0.0327312
0.0591644
0.0287129
0.0223909
0.0560209
0.0154981
0.0016028
0.00131623
0.0461959
0.00196093
0.00226936
0.00157505
0.00137402
0.00511589
0.000954231
0.000751112
0.00191656
0.0191578
0.0225801
0.00868383
0.0202555
0.00713188
0.00551574
0.0122868
0.0203806
0.00148909
0.000122345
0.452838
0.452838
0.452838
0.452838
0.452838
0.452838
0.452838
0.452838
0.452838
0.452838
0.452838
0.452838
0.452838
0.452838
0.452838
0.452838
0.452838
0.452838
0.452838
0.452838
0.452838
0.452838
0.452838
0.452838
0.452838
0.452838
0.452838
0.452838
0.452838
0.452838
0.452838
0.452838
0.452838
0.452838
0.452838
0.452838
0.452838
0.452838
0.452838
0.452838
0.452838
0.452838
0.452838
0.452838
0.452838
0.452838
0.452838
0.452838
0.452838
0.452838
0.452838
0.452838
0.452838
0.452838
0.452838
0.452838
0.45284
0.452874
0.453036
0.496599
0.162737
9.34546e-05
3.89682e-06
0.000305014
0.000961784
0.00104526
0.00485092
0.00623247
0.00399172
0.00395325
0.00540657
0.00756038
0.0077534
0.00650923
0.00166553
0.00104558
0.00134029
0.00291137
0.000863501
0.000528857
0.000444913
0.00233996
0.000587691
0.000447898
0.000805014
0.00423955
0.00590068
0.00471693
0.00209193
0.0016091
0.00228232
0.00484792
0.0283414
0.0115368
0.000936338
0.000117907
0.452838
0.452838
0.452838
0.452838
0.452838
0.452838
0.452838
0.452838
0.452838
0.452838
0.452838
0.452838
0.452838
0.452838
0.452838
0.452838
0.452838
0.452838
0.452838
0.452838
0.452838
0.452838
0.452838
0.452838
0.452838
0.452838
0.452838
0.452838
0.452838
0.452838
0.452838
0.452838
0.452838
0.452838
0.452838
0.452838
0.452838
0.452838
0.452838
0.452838
0.452838
0.452838
0.452838
0.452838
0.452838
0.452838
0.452838
0.452838
0.452838
0.452838
0.452838
0.452838
0.452838
0.452838
0.452838
0.452838
0.452839
0.452843
0.449667
0.519117
0.426246
1.41529e-05
0.000168239
0.000129219
0.00108991
0.00636768
0.0175796
0.00522251
0.00665838
0.0154428
0.0118706
0.00794934
0.00755874
0.00396531
0.00441564
0.00165088
0.000637126
0.00122181
0.000547818
0.000438735
0.00379378
0.000810007
0.000669153
0.0010375
0.00383859
0.00843035
0.0104304
0.0354906
0.00281421
0.00316345
0.0235413
0.00327292
0.00318003
0.00448523
0.000793353
0.000108171
0.452838
0.452838
0.452838
0.452838
0.452838
0.452838
0.452838
0.452838
0.452838
0.452838
0.452838
0.452838
0.452838
0.452838
0.452838
0.452838
0.452838
0.452838
0.452838
0.452838
0.452838
0.452838
0.452838
0.452838
0.452838
0.452838
0.452838
0.452838
0.452838
0.452838
0.452838
0.452838
0.452838
0.452838
0.452838
0.452838
0.452838
0.452838
0.452838
0.452838
0.452838
0.452838
0.452838
0.452838
0.452838
0.452838
0.452838
0.452838
0.452838
0.452838
0.452838
0.452838
0.452838
0.452838
0.452838
0.452838
0.452839
0.45284
0.453146
0.463415
0.589265
1
0.000163032
9.76426e-06
7.63192e-06
0.000182761
0.000293322
0.000217543
0.000179011
0.000144996
0.000127992
0.000127639
0.00017562
0.000592465
0.000156152
9.64541e-06
0.000592253
8.21959e-06
0.000380128
0.000712525
0.00570504
0.000904025
0.000516742
0.00039815
0.000316001
0.000241887
0.00021672
0.000260938
0.00069293
0.00137266
0.00435443
0.00123475
0.00414943
0.0291607
0.000580969
0.000106627
0.452838
0.452838
0.452838
0.452838
0.452838
0.452838
0.452838
0.452838
0.452838
0.452838
0.452838
0.452838
0.452838
0.452838
0.452838
0.452838
0.452838
0.452838
0.452838
0.452838
0.452838
0.452838
0.452838
0.452838
0.452838
0.452838
0.452838
0.452838
0.452838
0.452838
0.452838
0.452838
0.452838
0.452838
0.452838
0.452838
0.452838
0.452838
0.452838
0.452838
0.452838
0.452838
0.452838
0.452838
0.452838
0.452838
0.452838
0.452838
0.452838
0.452838
0.452838
0.452838
0.452838
0.452839
0.452839
0.452838
0.452839
0.452842
0.452887
0.522917
0.0848236
0.154764
0.99825
0.916639
0.00838199
0.0132292
0.00168898
0.00120529
0.000952654
0.00117204
0.0015542
0.00291637
0.0104141
0.00294485
0.999362
0.000666702
0.00315849
0.00189315
0.00533457
0.00599072
0.0150283
0.00755125
0.00742038
0.00405684
0.00883341
0.0109344
0.000605152
8.06639e-05
8.98964e-06
9.54267e-06
0.000148625
9.27123e-05
0.00590664
0.00495529
0.000515897
0.000103645
0.452838
0.452838
0.452838
0.452838
0.452838
0.452838
0.452838
0.452838
0.452838
0.452838
0.452838
0.452838
0.452838
0.452838
0.452838
0.452838
0.452838
0.452838
0.452838
0.452838
0.452838
0.452838
0.452838
0.452838
0.452838
0.452838
0.452838
0.452838
0.452838
0.452838
0.452838
0.452838
0.452838
0.452838
0.452838
0.452838
0.452838
0.452838
0.452838
0.452838
0.452838
0.452838
0.452838
0.452838
0.452838
0.452838
0.452838
0.452838
0.452838
0.452838
0.452838
0.452838
0.452838
0.452839
0.452838
0.452838
0.452838
0.452834
0.452803
0.554894
0.961737
0.00104796
1.12378e-05
0.143665
0.846277
0.0293063
0.110473
0.116497
0.0345064
0.199777
0.893357
0.13275
0.0683079
0.400525
0.000135478
0.159305
0.909243
0.381029
0.133185
0.856524
4.1362e-05
0.0808706
0.208152
0.949659
0.99881
0.960851
0.928668
0.825548
0.0841067
0.270728
0.0035695
0.999933
2.97688e-06
0.000182472
9.40275e-05
4.87431e-05
0.452838
0.452838
0.452838
0.452838
0.452838
0.452838
0.452838
0.452838
0.452838
0.452838
0.452838
0.452838
0.452838
0.452838
0.452838
0.452838
0.452838
0.452838
0.452838
0.452838
0.452838
0.452838
0.452838
0.452838
0.452838
0.452838
0.452838
0.452838
0.452838
0.452838
0.452838
0.452838
0.452838
0.452838
0.452838
0.452838
0.452838
0.452838
0.452838
0.452838
0.452838
0.452838
0.452838
0.452838
0.452838
0.452838
0.452838
0.452838
0.452838
0.452838
0.452838
0.452838
0.452838
0.452839
0.452838
0.452838
0.452839
0.452883
0.454565
0.59253
0.091266
0.422633
0.705174
0.484875
0.844655
0.979139
0.7197
0.823193
0.404763
0.258752
0.991705
0.994722
0.999993
0.804047
0.874202
0.948737
0.150537
0.70083
0.16205
0.551109
0.461948
0.44761
0.390762
0.557648
0.155171
0.712376
0.529781
0.402843
0.453162
0.823504
0.828632
0.995617
0.208734
0.240664
0.233726
0.00611455
0.452838
0.452838
0.452838
0.452838
0.452838
0.452838
0.452838
0.452838
0.452838
0.452838
0.452838
0.452838
0.452838
0.452838
0.452838
0.452838
0.452838
0.452838
0.452838
0.452838
0.452838
0.452838
0.452838
0.452838
0.452838
0.452838
0.452838
0.452838
0.452838
0.452838
0.452838
0.452838
0.452838
0.452838
0.452838
0.452838
0.452838
0.452838
0.452838
0.452838
0.452838
0.452838
0.452838
0.452838
0.452838
0.452838
0.452838
0.452838
0.452838
0.452838
0.452838
0.452838
0.452838
0.452839
0.452838
0.452838
0.452851
0.452839
0.454283
0.599357
0.875251
0.999992
0.91991
0.617912
0.70487
0.409979
0.339302
0.723488
0.532872
0.416525
0.622726
0.439068
0.463132
0.380759
0.388598
0.512584
0.484633
0.655397
0.645675
0.947047
0.928556
0.922732
0.803161
0.62635
0.289337
0.874756
0.66536
0.239123
0.896899
0.979986
0.780253
0.685212
0.280754
0.960752
0.150108
1
0.452838
0.452838
0.452838
0.452838
0.452838
0.452838
0.452838
0.452838
0.452838
0.452838
0.452838
0.452838
0.452838
0.452838
0.452838
0.452838
0.452838
0.452838
0.452838
0.452838
0.452838
0.452838
0.452838
0.452838
0.452838
0.452838
0.452838
0.452838
0.452838
0.452838
0.452838
0.452838
0.452838
0.452838
0.452838
0.452838
0.452838
0.452838
0.452838
0.452838
0.452838
0.452838
0.452838
0.452838
0.452838
0.452838
0.452838
0.452838
0.452838
0.452838
0.452838
0.452838
0.452838
0.452838
0.452838
0.452838
0.452838
0.452953
0.454903
0.522581
0.303794
0.996402
0.989197
0.847998
0.947461
0.220427
0.455542
0.887808
0.43961
0.47763
0.378797
0.562355
0.595149
0.468501
0.31813
0.338418
0.855754
0.667281
0.249476
0.315793
0.157512
0.726284
0.917145
0.364673
0.418666
0.381694
0.95451
0.443149
0.61744
0.0543998
0.890574
0.853442
0.117275
0.138661
0.0928503
0.999987
0.452838
0.452838
0.452838
0.452838
0.452838
0.452838
0.452838
0.452838
0.452838
0.452838
0.452838
0.452838
0.452838
0.452838
0.452838
0.452838
0.452838
0.452838
0.452838
0.452838
0.452838
0.452838
0.452838
0.452838
0.452838
0.452838
0.452838
0.452838
0.452838
0.452838
0.452838
0.452838
0.452838
0.452838
0.452838
0.452838
0.452838
0.452838
0.452838
0.452838
0.452838
0.452838
0.452838
0.452838
0.452838
0.452838
0.452838
0.452838
0.452838
0.452838
0.452838
0.452838
0.452838
0.452838
0.452838
0.452838
0.452838
0.452804
0.452437
0.522848
0.0660806
0.999624
1.65542e-06
0.00183695
0.864367
0.877526
0.971894
0.982823
0.898074
0.246872
0.619824
0.37472
0.339747
0.775696
0.97882
0.973779
0.999184
0.962202
0.967674
0.00275205
0.000923978
0.000993316
0.001989
0.00241984
0.0159994
0.00303352
0.00107015
0.00439706
0.000136611
1.62547e-05
5.32652e-06
0.000232305
0.000333553
0.00473074
0.000218904
5.14705e-05
0.452838
0.452838
0.452838
0.452838
0.452838
0.452838
0.452838
0.452838
0.452838
0.452838
0.452838
0.452838
0.452838
0.452838
0.452838
0.452838
0.452838
0.452838
0.452838
0.452838
0.452838
0.452838
0.452838
0.452838
0.452838
0.452838
0.452838
0.452838
0.452838
0.452838
0.452838
0.452838
0.452838
0.452838
0.452838
0.452838
0.452838
0.452838
0.452838
0.452838
0.452838
0.452838
0.452838
0.452838
0.452838
0.452838
0.452838
0.452838
0.452838
0.452838
0.452838
0.452838
0.452838
0.452838
0.452838
0.452838
0.452839
0.452902
0.433061
0.537705
0.985503
0.0213752
0.253984
0.108663
0.0659761
0.0469886
0.949509
0.231838
0.0871784
0.212388
0.0520022
0.696419
0.0395936
0.453416
0.991708
0.000767533
9.24196e-05
4.62747e-06
4.17769e-06
8.21275e-05
0.000177447
0.000320391
0.000471946
0.000984242
0.00174321
0.000846752
0.000434068
0.000305802
0.000256383
0.000394843
0.00657109
0.0050346
0.0149963
0.0014768
0.00628092
0.000130689
0.452838
0.452838
0.452838
0.452838
0.452838
0.452838
0.452838
0.452838
0.452838
0.452838
0.452838
0.452838
0.452838
0.452838
0.452838
0.452838
0.452838
0.452838
0.452838
0.452838
0.452838
0.452838
0.452838
0.452838
0.452838
0.452838
0.452838
0.452838
0.452838
0.452838
0.452838
0.452838
0.452838
0.452838
0.452838
0.452838
0.452838
0.452838
0.452838
0.452838
0.452838
0.452838
0.452838
0.452838
0.452838
0.452838
0.452838
0.452838
0.452838
0.452838
0.452838
0.452838
0.452838
0.452838
0.452838
0.452838
0.452839
0.452834
0.42114
0.527124
0.983756
0.000170359
0.00446264
0.00712777
0.00805778
0.00282485
0.00642086
0.000741056
0.000711259
0.00953406
0.000246442
4.11552e-05
8.38487e-06
7.40219e-06
0.000155718
0.000261182
0.000789078
0.000273469
0.000966995
0.00184084
0.00184887
0.0250269
0.00371446
0.00223951
0.00158336
0.00112727
0.000881631
0.00124035
0.0095725
0.0243146
0.00611175
0.00243683
0.0231512
0.00187786
0.00198394
0.000124988
0.452838
0.452838
0.452838
0.452838
0.452838
0.452838
0.452838
0.452838
0.452838
0.452838
0.452838
0.452838
0.452838
0.452838
0.452838
0.452838
0.452838
0.452838
0.452838
0.452838
0.452838
0.452838
0.452838
0.452838
0.452838
0.452838
0.452838
0.452838
0.452838
0.452838
0.452838
0.452838
0.452838
0.452838
0.452838
0.452838
0.452838
0.452838
0.452838
0.452838
0.452838
0.452838
0.452838
0.452838
0.452838
0.452838
0.452838
0.452838
0.452838
0.452838
0.452838
0.452838
0.452838
0.452838
0.452838
0.452838
0.452839
0.452852
0.45445
0.51785
0.418785
0.00187657
0.000699223
1.63082e-05
1.14337e-05
1.44634e-05
6.1009e-06
0.000194782
0.000143555
0.000154729
0.000189682
0.000211011
0.000391867
0.00466286
0.00263071
0.00631047
0.0155129
0.0530689
0.0190389
0.0519839
0.0153044
0.00244055
0.00121454
0.00132431
0.00276173
0.00209424
0.00151498
0.00144017
0.0028957
0.00513843
0.00781305
0.00318513
0.00446671
0.00138354
0.00205179
0.000128348
0.452838
0.452838
0.452838
0.452838
0.452838
0.452838
0.452838
0.452838
0.452838
0.452838
0.452838
0.452838
0.452838
0.452838
0.452838
0.452838
0.452838
0.452838
0.452838
0.452838
0.452838
0.452838
0.452838
0.452838
0.452838
0.452838
0.452838
0.452838
0.452838
0.452838
0.452838
0.452838
0.452838
0.452838
0.452838
0.452838
0.452838
0.452838
0.452838
0.452838
0.452838
0.452838
0.452838
0.452838
0.452838
0.452838
0.452838
0.452838
0.452838
0.452838
0.452838
0.452838
0.452838
0.452838
0.452838
0.452838
0.452839
0.452936
0.454409
0.505127
0.554855
1.45876e-05
0.000109032
0.000417389
0.000202984
0.000243776
0.00209905
0.00242233
0.000782261
0.000976922
0.00241491
0.00232512
0.00184644
0.0039697
0.366068
0.0338995
0.020988
0.0214375
0.00674597
0.00252296
0.00159548
0.00110125
0.000993849
0.00189731
0.0143528
0.00657697
0.00219507
0.00172588
0.00183462
0.00224284
0.0035673
0.00223761
0.00339756
0.00124928
0.00190762
0.00012598
0.452838
0.452838
0.452838
0.452838
0.452838
0.452838
0.452838
0.452838
0.452838
0.452838
0.452838
0.452838
0.452838
0.452838
0.452838
0.452838
0.452838
0.452838
0.452838
0.452838
0.452838
0.452838
0.452838
0.452838
0.452838
0.452838
0.452838
0.452838
0.452838
0.452838
0.452838
0.452838
0.452838
0.452838
0.452838
0.452838
0.452838
0.452838
0.452838
0.452838
0.452838
0.452838
0.452838
0.452838
0.452838
0.452838
0.452838
0.452838
0.452838
0.452838
0.452838
0.452838
0.452838
0.452838
0.452838
0.452838
0.452839
0.453274
0.484639
0.466161
0.659682
3.46114e-06
0.000543407
0.000157724
0.000303573
0.0062319
0.00637935
0.00234043
0.00271194
0.0160127
0.00244534
0.00181465
0.00172783
0.00395793
0.00629062
0.0131734
0.00914915
0.00309247
0.00151247
0.00105136
0.00109362
0.00139969
0.00383576
0.00256886
0.00130681
0.00112762
0.00343095
0.188595
0.00659608
0.0128817
0.00460528
0.00230329
0.00452459
0.00352087
0.000972359
0.000115536
0.452838
0.452838
0.452838
0.452838
0.452838
0.452838
0.452838
0.452838
0.452838
0.452838
0.452838
0.452838
0.452838
0.452838
0.452838
0.452838
0.452838
0.452838
0.452838
0.452838
0.452838
0.452838
0.452838
0.452838
0.452838
0.452838
0.452838
0.452838
0.452838
0.452838
0.452838
0.452838
0.452838
0.452838
0.452838
0.452838
0.452838
0.452838
0.452838
0.452838
0.452838
0.452838
0.452838
0.452838
0.452838
0.452838
0.452838
0.452838
0.452838
0.452838
0.452838
0.452838
0.452838
0.452838
0.452838
0.452838
0.452839
0.452878
0.455163
0.554207
0.159737
0.00514303
2.40029e-06
0.000246779
0.000439583
0.0331132
0.00204483
0.0426654
0.00487094
0.00283392
0.00417344
0.00258657