/*--------------------------------*- C++ -*----------------------------------*\
| =========                 |                                                 |
| \\      /  F ield         | OpenFOAM: The Open Source CFD Toolbox           |
|  \\    /   O peration     | Version:  2.3.0                                 |
|   \\  /    A nd           | Web:      www.OpenFOAM.org                      |
|    \\/     M anipulation  |                                                 |
\*---------------------------------------------------------------------------*/
FoamFile
{
    version     2.0;
    format      ascii;
    class       volScalarField;
    location    "21";
    object      alpha.air;
}
// * * * * * * * * * * * * * * * * * * * * * * * * * * * * * * * * * * * * * //

dimensions      [0 0 0 0 0 0 0];

internalField   nonuniform List<scalar> 
6144
(
0.999993
0.999992
0.999992
0.999992
0.999992
0.999991
0.999991
0.99999
0.99999
0.99999
0.99999
0.99999
0.99999
0.99999
0.99999
0.99999
0.99999
0.99999
0.99999
0.99999
0.99999
0.99999
0.99999
0.99999
0.99999
0.99999
0.99999
0.99999
0.99999
0.99999
0.99999
0.99999
0.99999
0.99999
0.99999
0.99999
0.99999
0.99999
0.99999
0.99999
0.99999
0.99999
0.99999
0.99999
0.99999
0.999988
0.999981
0.999969
0.999953
0.999928
0.999917
0.999918
0.999912
0.999885
0.999875
0.999863
0.999859
0.999867
0.997457
0.900249
0.0136304
3.48267e-05
5.45892e-07
5.47099e-07
5.50088e-07
5.51904e-07
5.52386e-07
5.52944e-07
5.54631e-07
5.56231e-07
5.57608e-07
5.59599e-07
5.62488e-07
5.66371e-07
5.7014e-07
5.7295e-07
5.74366e-07
5.74888e-07
5.76071e-07
5.77798e-07
5.7783e-07
5.77889e-07
5.76589e-07
5.75987e-07
5.59413e-07
4.05075e-07
2.46406e-07
2.46014e-07
2.54616e-07
2.59178e-07
2.63038e-07
2.75661e-07
2.98413e-07
3.09191e-07
3.03454e-07
2.75505e-07
0.999994
0.999993
0.999992
0.999992
0.999991
0.999991
0.999991
0.99999
0.99999
0.99999
0.99999
0.99999
0.99999
0.99999
0.99999
0.99999
0.99999
0.99999
0.99999
0.99999
0.99999
0.99999
0.99999
0.99999
0.99999
0.99999
0.99999
0.99999
0.99999
0.99999
0.99999
0.99999
0.99999
0.99999
0.99999
0.99999
0.99999
0.99999
0.99999
0.99999
0.99999
0.99999
0.99999
0.99999
0.99999
0.999988
0.999981
0.999967
0.999947
0.999934
0.999929
0.999927
0.999903
0.999868
0.999861
0.999852
0.999853
0.999848
0.998852
0.919543
0.00844577
1.12568e-05
5.45884e-07
5.45851e-07
5.45914e-07
5.45914e-07
5.45978e-07
5.46482e-07
5.44588e-07
5.3973e-07
5.37318e-07
5.38193e-07
5.42228e-07
5.52135e-07
5.62893e-07
5.65563e-07
5.65328e-07
5.64788e-07
5.67186e-07
5.70436e-07
5.70622e-07
5.71707e-07
5.71552e-07
5.72046e-07
5.42929e-07
3.4597e-07
2.50547e-07
2.46195e-07
2.4497e-07
2.63998e-07
3.5977e-07
4.70414e-07
5.27675e-07
5.37142e-07
4.93895e-07
4.24301e-07
0.999994
0.999994
0.999993
0.999993
0.999992
0.999991
0.999991
0.99999
0.99999
0.99999
0.99999
0.99999
0.99999
0.99999
0.99999
0.99999
0.99999
0.99999
0.99999
0.99999
0.99999
0.99999
0.99999
0.99999
0.99999
0.99999
0.99999
0.99999
0.99999
0.99999
0.99999
0.99999
0.99999
0.99999
0.99999
0.99999
0.99999
0.99999
0.99999
0.99999
0.99999
0.99999
0.99999
0.99999
0.99999
0.999988
0.999983
0.999971
0.999958
0.99995
0.999941
0.999913
0.999881
0.99986
0.999858
0.999852
0.999857
0.999849
0.999105
0.91033
0.007455
8.49688e-06
5.45892e-07
5.85744e-07
5.49524e-07
5.45978e-07
5.45979e-07
5.49255e-07
5.3432e-07
5.30481e-07
5.30481e-07
5.30891e-07
5.32166e-07
5.32112e-07
5.32268e-07
5.34154e-07
5.35644e-07
5.41023e-07
5.47707e-07
5.56109e-07
5.64244e-07
5.68514e-07
5.61437e-07
5.00644e-07
3.80602e-07
2.66769e-07
2.53012e-07
2.69714e-07
3.66933e-07
5.08541e-07
6.12783e-07
6.61025e-07
6.69935e-07
6.36471e-07
5.88385e-07
5.20334e-07
0.999995
0.999994
0.999994
0.999993
0.999993
0.999992
0.999991
0.99999
0.99999
0.99999
0.99999
0.99999
0.99999
0.99999
0.99999
0.99999
0.99999
0.99999
0.99999
0.99999
0.99999
0.99999
0.99999
0.99999
0.99999
0.99999
0.99999
0.99999
0.99999
0.99999
0.99999
0.99999
0.99999
0.99999
0.99999
0.99999
0.99999
0.99999
0.99999
0.99999
0.99999
0.99999
0.99999
0.99999
0.99999
0.999989
0.999986
0.999979
0.999969
0.999959
0.999935
0.999887
0.99987
0.999862
0.999862
0.999856
0.999866
0.999859
0.999301
0.882476
0.00506813
3.75641e-05
2.11779e-05
8.02362e-06
4.72465e-06
3.55909e-06
3.18717e-06
3.11975e-06
3.09198e-06
2.33699e-06
1.28001e-06
9.18981e-07
9.81095e-07
1.16963e-06
1.06982e-06
8.6542e-07
5.86022e-07
4.265e-07
3.60554e-07
2.64645e-07
2.64644e-07
2.64644e-07
2.64644e-07
2.64644e-07
2.64645e-07
8.82228e-07
8.92947e-07
4.35585e-07
4.77965e-07
5.47006e-07
6.53502e-07
7.55471e-07
7.72732e-07
6.79969e-07
6.4401e-07
6.37457e-07
0.999996
0.999995
0.999994
0.999994
0.999993
0.999992
0.999992
0.999991
0.99999
0.99999
0.99999
0.99999
0.99999
0.99999
0.99999
0.99999
0.99999
0.99999
0.99999
0.99999
0.99999
0.99999
0.99999
0.99999
0.99999
0.99999
0.99999
0.99999
0.99999
0.99999
0.99999
0.99999
0.99999
0.99999
0.99999
0.99999
0.99999
0.99999
0.99999
0.99999
0.99999
0.99999
0.99999
0.99999
0.99999
0.999989
0.999987
0.999983
0.999977
0.999962
0.999912
0.999874
0.999869
0.999869
0.999866
0.999865
0.999866
0.999858
0.999387
0.854641
0.0115663
0.000688475
0.000601123
0.000356894
0.000254687
0.000201273
0.000185719
0.000167518
0.000146728
0.000122769
9.896e-05
7.94561e-05
6.30237e-05
5.16627e-05
4.41027e-05
3.86969e-05
3.49887e-05
3.47172e-05
4.30856e-05
5.26196e-05
6.29334e-05
7.5359e-05
8.60355e-05
9.27597e-05
9.54742e-05
9.47816e-05
8.34638e-05
7.2307e-05
5.61193e-05
3.51834e-05
1.67233e-05
7.17715e-06
2.60815e-06
1.02858e-06
7.24288e-07
9.75204e-07
0.999996
0.999996
0.999994
0.999994
0.999993
0.999993
0.999992
0.999991
0.999991
0.99999
0.99999
0.99999
0.99999
0.99999
0.99999
0.99999
0.99999
0.99999
0.99999
0.99999
0.99999
0.99999
0.99999
0.99999
0.99999
0.99999
0.99999
0.99999
0.99999
0.99999
0.99999
0.99999
0.99999
0.99999
0.99999
0.99999
0.99999
0.99999
0.99999
0.99999
0.99999
0.99999
0.99999
0.99999
0.99999
0.999989
0.999987
0.999984
0.999979
0.999956
0.999889
0.999871
0.999872
0.999872
0.999869
0.999868
0.999869
0.999855
0.999216
0.823393
0.0185318
0.00415189
0.00425682
0.00380124
0.00359927
0.00336567
0.00316191
0.00288758
0.00258693
0.00225573
0.00191322
0.00161279
0.00138883
0.00125188
0.0011981
0.00124476
0.00137487
0.00153201
0.00173344
0.00198601
0.00226979
0.00257959
0.00288164
0.00312588
0.00326605
0.00330979
0.00319832
0.00304076
0.0027181
0.00217227
0.00155675
0.00102928
0.000586158
0.000256581
8.67847e-05
3.24968e-05
0.999996
0.999996
0.999995
0.999994
0.999994
0.999993
0.999993
0.999992
0.999991
0.99999
0.99999
0.99999
0.99999
0.99999
0.99999
0.99999
0.99999
0.99999
0.99999
0.99999
0.99999
0.99999
0.99999
0.99999
0.99999
0.99999
0.99999
0.99999
0.99999
0.99999
0.99999
0.99999
0.99999
0.99999
0.99999
0.99999
0.99999
0.99999
0.99999
0.99999
0.99999
0.99999
0.99999
0.99999
0.99999
0.999989
0.999987
0.999984
0.999977
0.999934
0.999877
0.999871
0.999872
0.999869
0.999867
0.999867
0.99987
0.999867
0.999881
0.680143
0.0192503
0.0127739
0.0136228
0.0137605
0.0137752
0.013784
0.0135536
0.0133361
0.0129591
0.0125539
0.0120993
0.0116252
0.0111634
0.0107788
0.0105267
0.0104461
0.0108666
0.011325
0.0119929
0.0128474
0.0137825
0.0146901
0.0155296
0.0162205
0.0167006
0.0169617
0.0170774
0.0166132
0.0159349
0.0149007
0.0135375
0.0119205
0.00981812
0.00716665
0.00446075
0.00235405
0.999996
0.999996
0.999995
0.999995
0.999994
0.999994
0.999993
0.999992
0.999991
0.999991
0.99999
0.99999
0.99999
0.99999
0.99999
0.99999
0.99999
0.99999
0.99999
0.99999
0.99999
0.99999
0.99999
0.99999
0.99999
0.99999
0.99999
0.99999
0.99999
0.99999
0.99999
0.99999
0.99999
0.99999
0.99999
0.99999
0.99999
0.99999
0.99999
0.99999
0.99999
0.99999
0.99999
0.99999
0.99999
0.999989
0.999986
0.999982
0.999971
0.999928
0.999875
0.99987
0.999868
0.999867
0.999868
0.99987
0.999873
0.999871
0.999881
0.695568
0.0256915
0.0170868
0.0178413
0.0181266
0.018153
0.0185342
0.018698
0.0191891
0.0196804
0.0200654
0.020323
0.020638
0.0208801
0.0210524
0.0212473
0.0215019
0.0217657
0.0220559
0.0223669
0.0227479
0.0231347
0.0235143
0.0238645
0.0241089
0.0242552
0.0243432
0.0243656
0.0243032
0.0241715
0.0244265
0.0253753
0.0262701
0.0266467
0.0259115
0.0232245
0.0189514
0.999996
0.999996
0.999996
0.999996
0.999995
0.999994
0.999993
0.999992
0.999991
0.999991
0.99999
0.99999
0.99999
0.99999
0.99999
0.99999
0.99999
0.99999
0.99999
0.99999
0.99999
0.99999
0.99999
0.99999
0.99999
0.99999
0.99999
0.99999
0.99999
0.99999
0.99999
0.99999
0.99999
0.99999
0.99999
0.99999
0.99999
0.99999
0.99999
0.99999
0.99999
0.99999
0.99999
0.99999
0.999989
0.999988
0.999985
0.999978
0.999966
0.999939
0.999878
0.99987
0.99987
0.999869
0.999869
0.999871
0.999873
0.99987
0.999881
0.809941
0.0201913
0.00706672
0.00623837
0.00524415
0.00501646
0.0050021
0.00521686
0.00532827
0.00539178
0.00538111
0.00555404
0.00563854
0.00566824
0.00561971
0.00550631
0.00540704
0.00535564
0.00536095
0.00539111
0.00532624
0.0052089
0.00502981
0.00463478
0.00421814
0.00376172
0.003234
0.00243528
0.00147532
0.000577968
0.00013026
0.000200543
0.000173968
0.000187998
0.000219245
0.000226425
0.000189084
0.999996
0.999996
0.999996
0.999996
0.999995
0.999994
0.999993
0.999992
0.999991
0.999991
0.99999
0.99999
0.99999
0.99999
0.99999
0.99999
0.99999
0.99999
0.99999
0.99999
0.99999
0.99999
0.99999
0.99999
0.99999
0.99999
0.99999
0.99999
0.99999
0.99999
0.99999
0.99999
0.99999
0.99999
0.99999
0.99999
0.99999
0.99999
0.99999
0.99999
0.99999
0.99999
0.99999
0.99999
0.999989
0.999988
0.999984
0.999973
0.999961
0.999944
0.999903
0.999873
0.999872
0.999871
0.999872
0.999867
0.999875
0.999865
0.999881
0.878458
0.00915965
0.000688062
0.000480165
0.000297063
0.000279114
0.000268249
0.000298974
0.000304837
0.000303711
0.000279446
0.000266376
0.000248846
0.000216779
0.000185305
0.000161296
0.000135503
0.000108622
9.72385e-05
9.54342e-05
9.47949e-05
9.63715e-05
9.21514e-05
8.73872e-05
8.4641e-05
7.43865e-05
5.53413e-05
2.76225e-05
8.83429e-06
1.01729e-06
3.66539e-07
3.66539e-07
3.66539e-07
3.66539e-07
3.66539e-07
3.66539e-07
3.66539e-07
0.999996
0.999996
0.999996
0.999996
0.999995
0.999995
0.999994
0.999992
0.999991
0.99999
0.99999
0.99999
0.99999
0.99999
0.99999
0.99999
0.99999
0.99999
0.99999
0.99999
0.99999
0.99999
0.99999
0.99999
0.99999
0.99999
0.99999
0.99999
0.99999
0.99999
0.99999
0.99999
0.99999
0.99999
0.99999
0.99999
0.99999
0.99999
0.99999
0.99999
0.99999
0.99999
0.99999
0.99999
0.999989
0.999988
0.999983
0.99997
0.999955
0.999942
0.999927
0.999893
0.999878
0.999871
0.999872
0.999868
0.999875
0.999866
0.999881
0.937478
0.0148836
1.02863e-05
3.22618e-06
6.91575e-07
6.91571e-07
6.9157e-07
6.91573e-07
6.91576e-07
6.9158e-07
6.91583e-07
6.91587e-07
6.91591e-07
6.91595e-07
6.916e-07
1.67237e-06
2.5238e-06
1.11646e-06
6.97587e-07
7.03364e-07
6.97586e-07
6.97586e-07
6.97586e-07
9.41003e-07
1.672e-06
1.07172e-06
7.00289e-07
7.33427e-07
6.56812e-07
6.34442e-07
6.78822e-07
6.90357e-07
6.70687e-07
5.90716e-07
5.29881e-07
5.0856e-07
4.59362e-07
0.999996
0.999996
0.999995
0.999995
0.999995
0.999994
0.999993
0.999992
0.999991
0.99999
0.99999
0.99999
0.99999
0.99999
0.99999
0.99999
0.99999
0.99999
0.99999
0.99999
0.99999
0.99999
0.99999
0.99999
0.99999
0.99999
0.99999
0.99999
0.99999
0.99999
0.99999
0.99999
0.99999
0.99999
0.99999
0.99999
0.99999
0.99999
0.99999
0.99999
0.99999
0.99999
0.99999
0.99999
0.999989
0.999988
0.999982
0.999968
0.999951
0.999938
0.999928
0.999915
0.999893
0.999877
0.999876
0.999873
0.999879
0.999869
0.999861
0.973089
0.0568952
6.73694e-07
7.0279e-07
7.6627e-07
7.67838e-07
7.9112e-07
7.75822e-07
7.63845e-07
7.66788e-07
7.65578e-07
7.73297e-07
8.1149e-07
8.1528e-07
7.39224e-07
6.9192e-07
6.9192e-07
7.04316e-07
7.31727e-07
7.31696e-07
7.25036e-07
7.13783e-07
7.02972e-07
6.97834e-07
7.19488e-07
7.73572e-07
8.16455e-07
7.97813e-07
7.38322e-07
7.34042e-07
7.28787e-07
6.37109e-07
5.84624e-07
5.53396e-07
5.1427e-07
4.89762e-07
4.49488e-07
0.999996
0.999996
0.999995
0.999995
0.999995
0.999994
0.999992
0.999991
0.99999
0.99999
0.99999
0.99999
0.99999
0.99999
0.99999
0.99999
0.99999
0.99999
0.99999
0.99999
0.99999
0.99999
0.99999
0.99999
0.99999
0.99999
0.99999
0.99999
0.99999
0.99999
0.99999
0.99999
0.99999
0.99999
0.99999
0.99999
0.99999
0.99999
0.99999
0.99999
0.99999
0.99999
0.99999
0.99999
0.99999
0.999989
0.999983
0.999968
0.999948
0.999933
0.999924
0.999916
0.999908
0.999891
0.999888
0.999883
0.999886
0.999851
0.999727
0.983165
0.0486837
5.55234e-05
6.73673e-07
7.00187e-07
6.92984e-07
7.17755e-07
7.29783e-07
7.31222e-07
7.26813e-07
7.21406e-07
7.19515e-07
7.21911e-07
7.39263e-07
7.51807e-07
7.16063e-07
6.96195e-07
6.95072e-07
6.91545e-07
6.89818e-07
6.91036e-07
6.92125e-07
6.90772e-07
6.89336e-07
6.90162e-07
6.94854e-07
6.99077e-07
7.22598e-07
7.288e-07
7.14743e-07
6.78431e-07
5.95001e-07
5.18806e-07
5.21265e-07
5.07072e-07
4.82988e-07
4.42718e-07
0.999997
0.999996
0.999996
0.999997
0.999997
0.999996
0.999993
0.999991
0.99999
0.99999
0.99999
0.99999
0.99999
0.99999
0.99999
0.99999
0.99999
0.99999
0.99999
0.99999
0.99999
0.99999
0.99999
0.99999
0.99999
0.99999
0.99999
0.99999
0.99999
0.99999
0.99999
0.99999
0.99999
0.99999
0.99999
0.99999
0.99999
0.99999
0.99999
0.99999
0.99999
0.99999
0.99999
0.99999
0.99999
0.999989
0.999984
0.999968
0.999947
0.99993
0.99992
0.999914
0.999908
0.999898
0.999892
0.999882
0.999878
0.999737
0.999614
0.973908
0.0400917
5.36495e-06
6.73672e-07
6.88752e-07
6.81819e-07
6.92916e-07
7.08095e-07
7.08961e-07
7.0134e-07
6.9235e-07
6.89009e-07
6.89008e-07
6.93062e-07
7.16807e-07
7.28777e-07
7.06815e-07
6.88546e-07
6.88979e-07
6.87866e-07
6.88072e-07
6.8858e-07
6.8835e-07
6.90012e-07
6.8871e-07
6.89779e-07
6.90784e-07
6.93383e-07
7.05649e-07
7.08531e-07
6.88404e-07
6.05348e-07
4.97394e-07
4.84662e-07
4.85157e-07
4.73933e-07
4.31744e-07
0.999997
0.999996
0.999997
0.999997
0.999998
0.999998
0.999996
0.999991
0.99999
0.99999
0.99999
0.99999
0.99999
0.99999
0.99999
0.99999
0.99999
0.99999
0.99999
0.99999
0.99999
0.99999
0.99999
0.99999
0.99999
0.99999
0.99999
0.99999
0.99999
0.99999
0.99999
0.99999
0.99999
0.99999
0.99999
0.99999
0.99999
0.99999
0.99999
0.99999
0.99999
0.99999
0.99999
0.99999
0.99999
0.999989
0.999985
0.99997
0.999949
0.999932
0.99992
0.99991
0.999902
0.999892
0.999892
0.999859
0.999845
0.99974
0.999561
0.975692
0.0594313
7.18184e-05
7.13206e-07
6.73647e-07
6.7365e-07
6.76701e-07
6.8403e-07
6.85019e-07
6.83114e-07
6.81053e-07
6.81163e-07
6.80634e-07
6.79591e-07
6.81494e-07
6.96671e-07
7.04307e-07
6.99166e-07
6.90596e-07
6.89107e-07
6.88453e-07
6.89595e-07
6.92112e-07
6.96888e-07
6.98146e-07
6.99823e-07
6.99806e-07
6.96228e-07
6.97397e-07
7.01216e-07
6.96781e-07
6.80085e-07
5.65107e-07
4.47181e-07
4.37278e-07
4.31706e-07
4.31724e-07
0.999999
0.999998
0.999998
0.999998
0.999998
0.999998
0.999998
0.999994
0.99999
0.99999
0.99999
0.99999
0.99999
0.99999
0.99999
0.99999
0.99999
0.99999
0.99999
0.99999
0.99999
0.99999
0.99999
0.99999
0.99999
0.99999
0.99999
0.99999
0.99999
0.99999
0.99999
0.99999
0.99999
0.99999
0.99999
0.99999
0.99999
0.99999
0.99999
0.99999
0.99999
0.99999
0.99999
0.99999
0.99999
0.999989
0.999984
0.999973
0.999957
0.999941
0.999927
0.99991
0.999896
0.999881
0.999887
0.999865
0.999848
0.999794
0.99954
0.980038
0.0954313
0.00114666
2.70837e-06
6.73645e-07
6.73648e-07
6.73651e-07
6.75458e-07
6.76487e-07
6.77023e-07
6.77772e-07
6.79067e-07
6.79903e-07
6.78908e-07
6.78554e-07
6.80883e-07
6.8635e-07
6.85936e-07
6.83572e-07
6.84847e-07
6.86793e-07
6.88688e-07
6.90078e-07
6.98396e-07
7.08352e-07
7.17595e-07
7.18416e-07
7.14776e-07
7.13012e-07
7.13077e-07
7.10319e-07
6.98286e-07
6.23102e-07
4.34966e-07
4.31669e-07
4.31686e-07
4.31705e-07
0.999993
0.999992
0.999992
0.999992
0.999992
0.999991
0.999991
0.99999
0.99999
0.99999
0.99999
0.99999
0.99999
0.99999
0.99999
0.99999
0.99999
0.99999
0.99999
0.99999
0.99999
0.99999
0.99999
0.99999
0.99999
0.99999
0.99999
0.99999
0.99999
0.99999
0.99999
0.99999
0.99999
0.99999
0.99999
0.99999
0.99999
0.99999
0.99999
0.99999
0.99999
0.99999
0.99999
0.99999
0.99999
0.999988
0.999981
0.99997
0.999955
0.999932
0.999913
0.999908
0.999906
0.999893
0.999885
0.999874
0.999869
0.999845
0.998395
0.912825
0.00968469
1.33466e-05
5.45947e-07
5.46244e-07
5.48336e-07
5.48915e-07
5.49245e-07
5.49644e-07
5.50563e-07
5.51606e-07
5.52849e-07
5.54725e-07
5.57696e-07
5.61472e-07
5.65149e-07
5.67977e-07
5.69713e-07
5.71677e-07
5.73646e-07
5.7576e-07
5.77926e-07
5.78972e-07
5.8052e-07
5.80567e-07
5.76535e-07
4.98385e-07
3.23498e-07
3.34237e-07
3.40831e-07
3.34889e-07
3.14309e-07
3.13796e-07
3.46043e-07
3.74181e-07
3.78129e-07
3.40822e-07
0.999994
0.999993
0.999992
0.999992
0.999992
0.999991
0.999991
0.999991
0.999991
0.999991
0.99999
0.99999
0.99999
0.99999
0.99999
0.99999
0.99999
0.99999
0.99999
0.99999
0.99999
0.99999
0.99999
0.99999
0.99999
0.99999
0.99999
0.99999
0.99999
0.99999
0.99999
0.99999
0.99999
0.99999
0.99999
0.99999
0.99999
0.99999
0.99999
0.99999
0.99999
0.99999
0.99999
0.99999
0.99999
0.999988
0.999984
0.999974
0.999954
0.999933
0.999916
0.999908
0.999906
0.99989
0.999878
0.999869
0.999869
0.99985
0.999343
0.874855
0.00239929
1.9215e-06
5.45891e-07
5.45915e-07
5.68752e-07
5.93014e-07
6.05969e-07
6.01838e-07
5.89582e-07
5.74847e-07
5.62927e-07
5.61399e-07
5.62253e-07
5.64021e-07
5.65633e-07
5.66446e-07
5.68183e-07
5.68225e-07
5.68734e-07
5.6988e-07
5.73487e-07
5.79475e-07
5.79971e-07
5.79967e-07
5.71421e-07
4.57226e-07
3.09634e-07
3.10898e-07
2.83596e-07
2.6544e-07
2.83169e-07
3.69148e-07
4.80029e-07
5.19339e-07
4.95437e-07
4.2298e-07
0.999994
0.999993
0.999993
0.999993
0.999992
0.999992
0.999992
0.999991
0.999991
0.999991
0.99999
0.99999
0.99999
0.99999
0.99999
0.99999
0.99999
0.99999
0.99999
0.99999
0.99999
0.99999
0.99999
0.99999
0.99999
0.99999
0.99999
0.99999
0.99999
0.99999
0.99999
0.99999
0.99999
0.99999
0.99999
0.99999
0.99999
0.99999
0.99999
0.99999
0.99999
0.99999
0.99999
0.99999
0.999989
0.999989
0.999986
0.999979
0.999959
0.999939
0.999929
0.999922
0.999903
0.999873
0.99986
0.999861
0.99987
0.999851
0.999577
0.827287
0.000675805
6.99786e-06
3.96414e-06
1.15486e-06
8.51912e-07
7.72142e-07
8.77849e-07
8.6431e-07
8.82221e-07
8.55401e-07
7.95535e-07
7.0983e-07
6.32881e-07
5.91258e-07
5.69343e-07
5.29797e-07
5.2856e-07
5.2908e-07
5.28597e-07
5.29121e-07
5.32383e-07
5.3712e-07
5.2897e-07
5.14552e-07
5.30475e-07
4.34242e-07
3.55451e-07
3.62672e-07
3.76968e-07
3.90585e-07
4.54294e-07
5.45245e-07
6.13878e-07
6.29374e-07
5.49388e-07
5.16376e-07
0.999995
0.999994
0.999993
0.999993
0.999993
0.999992
0.999992
0.999991
0.999991
0.999991
0.99999
0.99999
0.99999
0.99999
0.99999
0.99999
0.99999
0.99999
0.99999
0.99999
0.99999
0.99999
0.99999
0.99999
0.99999
0.99999
0.99999
0.99999
0.99999
0.99999
0.99999
0.99999
0.99999
0.99999
0.99999
0.99999
0.99999
0.99999
0.99999
0.99999
0.99999
0.99999
0.99999
0.99999
0.99999
0.999989
0.999987
0.999983
0.999975
0.999963
0.999946
0.999904
0.999873
0.999857
0.999854
0.999857
0.999862
0.999814
0.999551
0.753752
0.00200397
0.000444079
0.000326326
0.000205889
0.000142072
9.49976e-05
6.65165e-05
4.51017e-05
3.09713e-05
2.18511e-05
1.62178e-05
1.23348e-05
1.01438e-05
8.89896e-06
8.357e-06
8.17659e-06
8.17682e-06
8.23175e-06
8.27413e-06
8.31178e-06
8.35152e-06
8.37582e-06
8.21945e-06
8.27153e-06
8.5248e-06
6.9716e-06
6.41503e-06
5.92195e-06
4.34364e-06
2.62355e-06
1.39148e-06
1.02627e-06
9.62177e-07
8.33981e-07
6.40779e-07
8.35993e-07
0.999996
0.999995
0.999994
0.999993
0.999993
0.999992
0.999992
0.999992
0.999991
0.999991
0.99999
0.99999
0.99999
0.99999
0.99999
0.99999
0.99999
0.99999
0.99999
0.99999
0.99999
0.99999
0.99999
0.99999
0.99999
0.99999
0.99999
0.99999
0.99999
0.99999
0.99999
0.99999
0.99999
0.99999
0.99999
0.99999
0.99999
0.99999
0.99999
0.99999
0.99999
0.99999
0.99999
0.99999
0.99999
0.999989
0.999988
0.999985
0.999981
0.99997
0.999922
0.999867
0.999859
0.999852
0.999845
0.999835
0.999797
0.999712
0.999611
0.69424
0.00949234
0.00507228
0.00460235
0.00385539
0.00324868
0.00271232
0.00222683
0.00178201
0.00140849
0.00110884
0.000870372
0.000676511
0.000531162
0.000432724
0.000380724
0.000354594
0.000347387
0.000366756
0.000394239
0.000442625
0.000507866
0.000578259
0.00064194
0.000705801
0.000788467
0.000866396
0.0009212
0.000941415
0.000782162
0.000608212
0.000340586
0.000164454
5.95382e-05
1.87629e-05
4.97002e-06
1.8798e-06
0.999997
0.999996
0.999995
0.999993
0.999992
0.999992
0.999992
0.999992
0.999991
0.999991
0.99999
0.99999
0.99999
0.99999
0.99999
0.99999
0.99999
0.99999
0.99999
0.99999
0.99999
0.99999
0.99999
0.99999
0.99999
0.99999
0.99999
0.99999
0.99999
0.99999
0.99999
0.99999
0.99999
0.99999
0.99999
0.99999
0.99999
0.99999
0.99999
0.99999
0.99999
0.99999
0.99999
0.99999
0.99999
0.999989
0.999987
0.999984
0.99998
0.999956
0.999885
0.999853
0.999856
0.99984
0.999822
0.999796
0.999758
0.999728
0.99979
0.624931
0.0203915
0.01507
0.0156649
0.0151115
0.0142644
0.0135836
0.0127681
0.0118021
0.010771
0.00982593
0.00892083
0.00802484
0.00714675
0.00632005
0.00566717
0.00521042
0.00497738
0.00494972
0.00528607
0.00569001
0.00628716
0.00701399
0.00799396
0.00918547
0.0104945
0.0117705
0.0128478
0.0132835
0.0131616
0.0124265
0.0104256
0.00801519
0.00533217
0.0030487
0.00131159
0.000524373
0.999997
0.999997
0.999995
0.999993
0.999993
0.999992
0.999992
0.999992
0.999991
0.999991
0.99999
0.99999
0.99999
0.99999
0.99999
0.99999
0.99999
0.99999
0.99999
0.99999
0.99999
0.99999
0.99999
0.99999
0.99999
0.99999
0.99999
0.99999
0.99999
0.99999
0.99999
0.99999
0.99999
0.99999
0.99999
0.99999
0.99999
0.99999
0.99999
0.99999
0.99999
0.99999
0.99999
0.99999
0.99999
0.999989
0.999987
0.999982
0.999975
0.99994
0.999864
0.999851
0.999837
0.999813
0.999796
0.999784
0.999777
0.999775
0.999881
0.718759
0.0301132
0.0199916
0.0211531
0.0214648
0.0214625
0.0213197
0.0210785
0.0207314
0.0202679
0.0200486
0.0198727
0.0198322
0.0198458
0.0198958
0.0198477
0.0196886
0.0196649
0.0199553
0.0204331
0.0213014
0.022375
0.0236083
0.0250242
0.0265308
0.0280495
0.0294993
0.0306094
0.0326894
0.0362543
0.0405131
0.0436465
0.0456653
0.0475704
0.0484001
0.0429281
0.03668
0.999997
0.999997
0.999996
0.999995
0.999994
0.999993
0.999992
0.999992
0.999991
0.999991
0.99999
0.99999
0.99999
0.99999
0.99999
0.99999
0.99999
0.99999
0.99999
0.99999
0.99999
0.99999
0.99999
0.99999
0.99999
0.99999
0.99999
0.99999
0.99999
0.99999
0.99999
0.99999
0.99999
0.99999
0.99999
0.99999
0.99999
0.99999
0.99999
0.99999
0.99999
0.99999
0.99999
0.99999
0.99999
0.999989
0.999986
0.999981
0.999971
0.999933
0.999854
0.999839
0.999814
0.999798
0.999797
0.99981
0.999835
0.999836
0.999881
0.783025
0.0285902
0.0142268
0.0141455
0.0135015
0.0135837
0.0143457
0.0153051
0.0162779
0.0169857
0.0175312
0.0181901
0.0189445
0.0198367
0.0207002
0.0214808
0.0221358
0.0226592
0.023071
0.0234558
0.0238089
0.0241451
0.0245593
0.0250996
0.0258542
0.0268366
0.0282404
0.0309378
0.0350989
0.0411582
0.0485939
0.0551472
0.0632233
0.0776527
0.0995984
0.152308
0.353233
0.999997
0.999997
0.999997
0.999996
0.999995
0.999994
0.999993
0.999992
0.999991
0.999991
0.99999
0.99999
0.99999
0.99999
0.99999
0.99999
0.99999
0.99999
0.99999
0.99999
0.99999
0.99999
0.99999
0.99999
0.99999
0.99999
0.99999
0.99999
0.99999
0.99999
0.99999
0.99999
0.99999
0.99999
0.99999
0.99999
0.99999
0.99999
0.99999
0.99999
0.99999
0.99999
0.99999
0.99999
0.99999
0.999988
0.999986
0.99998
0.999969
0.999947
0.999862
0.999847
0.999825
0.999805
0.999818
0.999847
0.999854
0.999835
0.999881
0.885395
0.0221846
0.00424772
0.00373848
0.00288544
0.00284527
0.00285107
0.00291696
0.00290829
0.00273794
0.00261217
0.00263
0.00284473
0.00314955
0.00353273
0.0040168
0.00458686
0.00516848
0.00564101
0.005989
0.00624058
0.00654854
0.00690804
0.00734655
0.00783367
0.00815508
0.00810182
0.00699574
0.0055883
0.00343987
0.00170339
0.00235833
0.00287506
0.0032897
0.00295936
0.00260595
0.00385489
0.999997
0.999997
0.999997
0.999997
0.999996
0.999995
0.999993
0.999992
0.999991
0.999991
0.99999
0.99999
0.99999
0.99999
0.99999
0.99999
0.99999
0.99999
0.99999
0.99999
0.99999
0.99999
0.99999
0.99999
0.99999
0.99999
0.99999
0.99999
0.99999
0.99999
0.99999
0.99999
0.99999
0.99999
0.99999
0.99999
0.99999
0.99999
0.99999
0.99999
0.99999
0.99999
0.99999
0.99999
0.99999
0.999989
0.999985
0.99998
0.999969
0.999943
0.999913
0.999868
0.999848
0.999833
0.999838
0.999851
0.999859
0.999822
0.999881
0.938196
0.0154414
0.000479343
0.000386755
0.000229531
0.000229338
0.000222605
0.00023853
0.000243145
0.000240728
0.000222653
0.000213544
0.000208978
0.000223193
0.000242388
0.000266655
0.000299446
0.000341342
0.000386623
0.000427091
0.000468649
0.000519875
0.000576102
0.000632349
0.000663504
0.000578634
0.00044222
0.00029944
0.000141707
3.14573e-05
4.6023e-06
6.50288e-06
8.11135e-06
8.14393e-06
3.44881e-06
4.0191e-07
4.64479e-07
0.999997
0.999997
0.999997
0.999997
0.999997
0.999996
0.999994
0.999993
0.999991
0.999991
0.99999
0.99999
0.99999
0.99999
0.99999
0.99999
0.99999
0.99999
0.99999
0.99999
0.99999
0.99999
0.99999
0.99999
0.99999
0.99999
0.99999
0.99999
0.99999
0.99999
0.99999
0.99999
0.99999
0.99999
0.99999
0.99999
0.99999
0.99999
0.99999
0.99999
0.99999
0.99999
0.99999
0.99999
0.99999
0.999989
0.999986
0.99998
0.999966
0.99994
0.999923
0.999901
0.999874
0.999855
0.999855
0.999857
0.999862
0.999812
0.99984
0.95798
0.0146915
4.54925e-06
1.57329e-05
7.36688e-06
7.59159e-06
7.15154e-06
7.52345e-06
7.80744e-06
8.21789e-06
8.22963e-06
7.47415e-06
6.81291e-06
6.80539e-06
7.84435e-06
8.44224e-06
8.57001e-06
8.92366e-06
9.67665e-06
1.09947e-05
1.20709e-05
1.23465e-05
1.18836e-05
1.1407e-05
1.05857e-05
7.43223e-06
4.05078e-06
2.48794e-06
1.09198e-06
6.31331e-07
6.31474e-07
6.4985e-07
6.55102e-07
6.2888e-07
5.9607e-07
5.876e-07
5.32864e-07
0.999997
0.999997
0.999997
0.999997
0.999997
0.999996
0.999994
0.999993
0.999991
0.999991
0.99999
0.99999
0.99999
0.99999
0.99999
0.99999
0.99999
0.99999
0.99999
0.99999
0.99999
0.99999
0.99999
0.99999
0.99999
0.99999
0.99999
0.99999
0.99999
0.99999
0.99999
0.99999
0.99999
0.99999
0.99999
0.99999
0.99999
0.99999
0.99999
0.99999
0.99999
0.99999
0.99999
0.99999
0.99999
0.999989
0.999986
0.999979
0.999965
0.999942
0.99992
0.999909
0.999892
0.999876
0.999876
0.999876
0.999868
0.999799
0.999765
0.97772
0.0465035
6.73692e-07
1.01911e-06
6.93717e-07
7.91153e-07
7.47279e-07
7.63981e-07
7.81533e-07
8.514e-07
8.75775e-07
8.53198e-07
8.32063e-07
7.88984e-07
7.36182e-07
8.25962e-07
7.67775e-07
6.9988e-07
7.00874e-07
7.62226e-07
1.00023e-06
1.15015e-06
7.74672e-07
7.04723e-07
7.40619e-07
7.93451e-07
8.1463e-07
9.10842e-07
7.86284e-07
6.79152e-07
7.00361e-07
6.79458e-07
6.06236e-07
5.46002e-07
5.51679e-07
5.70574e-07
5.12864e-07
0.999997
0.999997
0.999997
0.999997
0.999997
0.999996
0.999994
0.999992
0.999991
0.99999
0.99999
0.99999
0.99999
0.99999
0.99999
0.99999
0.99999
0.99999
0.99999
0.99999
0.99999
0.99999
0.99999
0.99999
0.99999
0.99999
0.99999
0.99999
0.99999
0.99999
0.99999
0.99999
0.99999
0.99999
0.99999
0.99999
0.99999
0.99999
0.99999
0.99999
0.99999
0.99999
0.99999
0.99999
0.99999
0.999989
0.999986
0.999978
0.999964
0.999943
0.999921
0.999907
0.9999
0.999892
0.999886
0.999876
0.999873
0.999812
0.999688
0.988078
0.0822861
6.73693e-07
6.8834e-07
7.30623e-07
7.34439e-07
7.60286e-07
7.59762e-07
7.76608e-07
7.77106e-07
7.57498e-07
7.25843e-07
7.19247e-07
7.31945e-07
7.44466e-07
7.33793e-07
7.20279e-07
6.99984e-07
6.91964e-07
6.9512e-07
7.01378e-07
7.14033e-07
7.24171e-07
7.33279e-07
7.30876e-07
7.22376e-07
7.04956e-07
7.04092e-07
7.17906e-07
7.13158e-07
7.01359e-07
6.69441e-07
5.76409e-07
5.2387e-07
5.51522e-07
5.71738e-07
5.03084e-07
0.999998
0.999997
0.999998
0.999998
0.999998
0.999997
0.999995
0.999992
0.999991
0.99999
0.99999
0.99999
0.99999
0.99999
0.99999
0.99999
0.99999
0.99999
0.99999
0.99999
0.99999
0.99999
0.99999
0.99999
0.99999
0.99999
0.99999
0.99999
0.99999
0.99999
0.99999
0.99999
0.99999
0.99999
0.99999
0.99999
0.99999
0.99999
0.99999
0.99999
0.99999
0.99999
0.99999
0.99999
0.99999
0.999989
0.999985
0.999977
0.999961
0.99994
0.999923
0.999909
0.999906
0.999899
0.999895
0.99988
0.999869
0.999742
0.999562
0.981315
0.0728973
5.89125e-05
6.73673e-07
7.02755e-07
6.96707e-07
7.17748e-07
7.37913e-07
7.50519e-07
7.44725e-07
7.40016e-07
7.23101e-07
7.02495e-07
6.9777e-07
7.05662e-07
7.17212e-07
7.11563e-07
6.99346e-07
6.89837e-07
6.90508e-07
6.95023e-07
7.06504e-07
7.21718e-07
7.42893e-07
7.38116e-07
7.19691e-07
7.00812e-07
7.01434e-07
7.09632e-07
7.07817e-07
6.97355e-07
6.67823e-07
5.67336e-07
5.0673e-07
5.35305e-07
5.52099e-07
4.87413e-07
0.999998
0.999997
0.999998
0.999998
0.999998
0.999998
0.999997
0.999992
0.999991
0.99999
0.99999
0.99999
0.99999
0.99999
0.99999
0.99999
0.99999
0.99999
0.99999
0.99999
0.99999
0.99999
0.99999
0.99999
0.99999
0.99999
0.99999
0.99999
0.99999
0.99999
0.99999
0.99999
0.99999
0.99999
0.99999
0.99999
0.99999
0.99999
0.99999
0.99999
0.99999
0.99999
0.99999
0.99999
0.99999
0.999989
0.999984
0.999974
0.999958
0.999941
0.999927
0.999916
0.99991
0.999901
0.999896
0.999873
0.999848
0.999707
0.999534
0.980224
0.0856548
0.000155066
6.73674e-07
6.78321e-07
6.73654e-07
6.78234e-07
6.89298e-07
6.98265e-07
7.02607e-07
7.00489e-07
6.98389e-07
6.92416e-07
6.85213e-07
6.84853e-07
6.89441e-07
6.9237e-07
6.90007e-07
6.87931e-07
6.89336e-07
6.94691e-07
7.06761e-07
7.34774e-07
7.68939e-07
7.61631e-07
7.26701e-07
7.00899e-07
6.96161e-07
6.98379e-07
7.03026e-07
7.00905e-07
6.87094e-07
6.10283e-07
5.026e-07
4.88734e-07
4.77518e-07
4.43958e-07
0.999999
0.999998
0.999998
0.999998
0.999998
0.999998
0.999998
0.999993
0.99999
0.99999
0.99999
0.99999
0.99999
0.99999
0.99999
0.99999
0.99999
0.99999
0.99999
0.99999
0.99999
0.99999
0.99999
0.99999
0.99999
0.99999
0.99999
0.99999
0.99999
0.99999
0.99999
0.99999
0.99999
0.99999
0.99999
0.99999
0.99999
0.99999
0.99999
0.99999
0.99999
0.99999
0.99999
0.99999
0.99999
0.999989
0.999984
0.999973
0.99996
0.999945
0.999932
0.999916
0.999903
0.999891
0.999889
0.999873
0.999853
0.999807
0.999657
0.979914
0.0998975
0.0010786
1.70478e-06
6.73648e-07
6.73651e-07
6.73654e-07
6.74475e-07
6.7387e-07
6.74237e-07
6.75237e-07
6.77652e-07
6.78907e-07
6.7883e-07
6.78094e-07
6.78509e-07
6.78821e-07
6.79703e-07
6.8184e-07
6.84968e-07
6.89498e-07
7.01983e-07
7.37909e-07