/*--------------------------------*- C++ -*----------------------------------*\
| =========                 |                                                 |
| \\      /  F ield         | OpenFOAM: The Open Source CFD Toolbox           |
|  \\    /   O peration     | Version:  2.3.0                                 |
|   \\  /    A nd           | Web:      www.OpenFOAM.org                      |
|    \\/     M anipulation  |                                                 |
\*---------------------------------------------------------------------------*/
FoamFile
{
    version     2.0;
    format      ascii;
    class       volScalarField;
    location    "21";
    object      alpha.water;
}
// * * * * * * * * * * * * * * * * * * * * * * * * * * * * * * * * * * * * * //

dimensions      [0 0 0 0 0 0 0];

internalField   nonuniform List<scalar> 
6144
(
7.21455e-06
7.60414e-06
7.82385e-06
8.08543e-06
8.35776e-06
8.72705e-06
9.18358e-06
9.65047e-06
9.88701e-06
9.96315e-06
9.98065e-06
9.9871e-06
9.98839e-06
9.99092e-06
9.98949e-06
9.98961e-06
9.98924e-06
9.98933e-06
9.98932e-06
9.98932e-06
9.98932e-06
9.98933e-06
9.98925e-06
9.98925e-06
9.98914e-06
9.98909e-06
9.98896e-06
9.9889e-06
9.98872e-06
9.98864e-06
9.98837e-06
9.98821e-06
9.98786e-06
9.9877e-06
9.98741e-06
9.98731e-06
9.98723e-06
9.98723e-06
9.98723e-06
9.98722e-06
9.98722e-06
9.98722e-06
9.98722e-06
9.98726e-06
1.00634e-05
1.18653e-05
1.89945e-05
3.1032e-05
4.70232e-05
7.21268e-05
8.2774e-05
8.20277e-05
8.77824e-05
0.0001153
0.000125351
0.000137333
0.000140508
0.000132877
0.00254273
0.0997515
0.98637
0.999965
0.999999
0.999999
0.999999
0.999999
0.999999
0.999999
0.999999
0.999999
0.999999
0.999999
0.999999
0.999999
0.999999
0.999999
0.999999
0.999999
0.999999
0.999999
0.999999
0.999999
0.999999
0.999999
0.999999
1
1
1
1
1
1
1
1
1
1
1
6.39419e-06
7.06782e-06
7.62462e-06
8.03395e-06
8.50223e-06
8.90584e-06
9.45742e-06
9.7926e-06
9.9021e-06
9.96452e-06
9.98274e-06
9.98715e-06
9.99318e-06
9.99699e-06
9.99566e-06
9.99712e-06
9.99566e-06
9.99666e-06
9.99565e-06
9.99605e-06
9.99567e-06
9.99579e-06
9.9957e-06
9.99575e-06
9.99576e-06
9.99578e-06
9.99579e-06
9.99582e-06
9.99582e-06
9.99581e-06
9.99567e-06
9.99559e-06
9.9954e-06
9.99535e-06
9.9951e-06
9.99502e-06
9.99479e-06
9.99464e-06
9.99438e-06
9.99385e-06
9.99305e-06
9.99203e-06
9.99053e-06
9.99347e-06
1.01524e-05
1.20044e-05
1.86444e-05
3.29475e-05
5.25844e-05
6.62959e-05
7.05116e-05
7.2723e-05
9.71603e-05
0.00013152
0.000139485
0.000147967
0.000146937
0.000152157
0.00114758
0.0804566
0.991554
0.999989
0.999999
0.999999
0.999999
0.999999
0.999999
0.999999
0.999999
0.999999
0.999999
0.999999
0.999999
0.999999
0.999999
0.999999
0.999999
0.999999
0.999999
0.999999
0.999999
0.999999
0.999999
0.999999
0.999999
1
1
1
1
1
1
1
0.999999
0.999999
1
1
5.58204e-06
6.29205e-06
6.85244e-06
7.36612e-06
8.00374e-06
8.55267e-06
9.27741e-06
9.67048e-06
9.77673e-06
9.85838e-06
9.91383e-06
9.95776e-06
9.98378e-06
9.99447e-06
9.99577e-06
9.99746e-06
9.99619e-06
9.99712e-06
9.9963e-06
9.99678e-06
9.9964e-06
9.99656e-06
9.99641e-06
9.99645e-06
9.9964e-06
9.99639e-06
9.99633e-06
9.99631e-06
9.99626e-06
9.99625e-06
9.99614e-06
9.9961e-06
9.9959e-06
9.99577e-06
9.99535e-06
9.99504e-06
9.99444e-06
9.99388e-06
9.99311e-06
9.99249e-06
9.99168e-06
9.99064e-06
9.99037e-06
1.00165e-05
1.03418e-05
1.17945e-05
1.66726e-05
2.88273e-05
4.19986e-05
5.03991e-05
5.91843e-05
8.73608e-05
0.000119426
0.000139703
0.000141769
0.00014779
0.000143308
0.000151351
0.000894897
0.08967
0.992545
0.999992
0.999999
0.999999
0.999999
0.999999
0.999999
0.999999
0.999999
0.999999
0.999999
0.999999
0.999999
0.999999
0.999999
0.999999
0.999999
0.999999
0.999999
0.999999
0.999999
0.999999
0.999999
0.999999
1
1
1
1
1
0.999999
0.999999
0.999999
0.999999
0.999999
0.999999
0.999999
5.01195e-06
5.75075e-06
6.37766e-06
6.8527e-06
7.43204e-06
8.1214e-06
8.98304e-06
9.60795e-06
9.79064e-06
9.83677e-06
9.87461e-06
9.94107e-06
9.97735e-06
9.99099e-06
9.99279e-06
9.99396e-06
9.99315e-06
9.99344e-06
9.99309e-06
9.9931e-06
9.99276e-06
9.99273e-06
9.99238e-06
9.99219e-06
9.992e-06
9.99178e-06
9.99162e-06
9.99142e-06
9.99132e-06
9.99117e-06
9.9911e-06
9.991e-06
9.99092e-06
9.99078e-06
9.99063e-06
9.99037e-06
9.99016e-06
9.98997e-06
9.98989e-06
9.98989e-06
9.98989e-06
9.98989e-06
9.98989e-06
1.00375e-05
1.03551e-05
1.14436e-05
1.44357e-05
2.14003e-05
3.05961e-05
4.09073e-05
6.48677e-05
0.000112632
0.000129646
0.000138273
0.000137729
0.000143776
0.000134143
0.000141447
0.000699383
0.117524
0.994932
0.999962
0.999979
0.999992
0.999995
0.999996
0.999997
0.999997
0.999997
0.999998
0.999999
0.999999
0.999999
0.999999
0.999999
0.999999
0.999999
1
1
1
1
1
1
1
1
0.999999
0.999999
1
1
0.999999
0.999999
0.999999
0.999999
0.999999
0.999999
0.999999
4.47284e-06
5.13664e-06
6.04079e-06
6.49688e-06
6.93226e-06
7.58803e-06
8.48452e-06
9.12743e-06
9.78087e-06
9.86863e-06
9.85921e-06
9.93333e-06
9.97826e-06
9.99367e-06
9.99608e-06
9.99712e-06
9.99659e-06
9.99768e-06
9.99709e-06
9.99782e-06
9.99739e-06
9.99759e-06
9.99735e-06
9.99731e-06
9.99705e-06
9.99692e-06
9.99668e-06
9.99652e-06
9.99623e-06
9.99604e-06
9.99571e-06
9.99552e-06
9.99511e-06
9.99484e-06
9.99429e-06
9.99399e-06
9.99345e-06
9.99304e-06
9.99229e-06
9.99161e-06
9.99093e-06
9.99081e-06
9.99576e-06
1.00393e-05
1.02721e-05
1.1037e-05
1.31797e-05
1.7397e-05
2.33568e-05
3.79061e-05
8.77015e-05
0.000125881
0.000131107
0.000131422
0.000134277
0.000135115
0.000134271
0.00014157
0.000612946
0.145359
0.988434
0.999312
0.999399
0.999643
0.999745
0.999799
0.999814
0.999832
0.999853
0.999877
0.999901
0.999921
0.999937
0.999948
0.999956
0.999961
0.999965
0.999965
0.999957
0.999947
0.999937
0.999925
0.999914
0.999907
0.999905
0.999905
0.999917
0.999928
0.999944
0.999965
0.999983
0.999993
0.999997
0.999999
0.999999
0.999999
4.09938e-06
4.4776e-06
5.67492e-06
6.21238e-06
6.60084e-06
7.09036e-06
7.90349e-06
8.7026e-06
9.46321e-06
9.82224e-06
9.82503e-06
9.91574e-06
9.97019e-06
9.98712e-06
9.98976e-06
9.99049e-06
9.99008e-06
9.9904e-06
9.99012e-06
9.99058e-06
9.99046e-06
9.9907e-06
9.99064e-06
9.99065e-06
9.9906e-06
9.99052e-06
9.99048e-06
9.99039e-06
9.99031e-06
9.99017e-06
9.99004e-06
9.98989e-06
9.98966e-06
9.9894e-06
9.98902e-06
9.98873e-06
9.98858e-06
9.98858e-06
9.98857e-06
9.98858e-06
9.98857e-06
9.98858e-06
9.9955e-06
1.00502e-05
1.02504e-05
1.08713e-05
1.26589e-05
1.59198e-05
2.08267e-05
4.40263e-05
0.000110618
0.000129047
0.000128099
0.000128304
0.000130655
0.000132333
0.000131149
0.000145497
0.000783966
0.176607
0.981468
0.995848
0.995743
0.996199
0.996401
0.996634
0.996838
0.997112
0.997413
0.997744
0.998087
0.998387
0.998611
0.998748
0.998802
0.998755
0.998625
0.998468
0.998267
0.998014
0.99773
0.99742
0.997118
0.996874
0.996734
0.99669
0.996802
0.996959
0.997282
0.997828
0.998443
0.998971
0.999414
0.999743
0.999913
0.999968
3.97902e-06
4.06794e-06
5.15069e-06
5.75441e-06
6.33321e-06
6.76336e-06
7.47379e-06
8.44929e-06
8.90909e-06
9.51806e-06
9.7167e-06
9.88279e-06
9.96541e-06
9.98972e-06
9.99487e-06
9.99565e-06
9.99557e-06
9.99566e-06
9.99524e-06
9.99553e-06
9.99525e-06
9.99534e-06
9.99494e-06
9.99473e-06
9.99439e-06
9.99417e-06
9.99394e-06
9.99378e-06
9.99356e-06
9.99337e-06
9.9931e-06
9.99286e-06
9.99243e-06
9.99197e-06
9.99127e-06
9.99071e-06
9.99027e-06
9.99013e-06
9.99016e-06
9.99047e-06
9.99091e-06
9.99177e-06
9.99906e-06
1.00724e-05
1.03121e-05
1.09993e-05
1.29428e-05
1.59479e-05
2.33248e-05
6.56964e-05
0.000122668
0.000129094
0.000128367
0.000130834
0.000132681
0.000132717
0.000129702
0.000132597
0.000118701
0.319857
0.98075
0.987226
0.986377
0.98624
0.986225
0.986216
0.986446
0.986664
0.987041
0.987446
0.987901
0.988375
0.988837
0.989221
0.989473
0.989554
0.989133
0.988675
0.988007
0.987153
0.986217
0.98531
0.98447
0.98378
0.983299
0.983038
0.982923
0.983387
0.984065
0.985099
0.986462
0.988079
0.990182
0.992833
0.995539
0.997646
3.98317e-06
3.95491e-06
4.61641e-06
5.10672e-06
5.8436e-06
6.38791e-06
7.20544e-06
8.25445e-06
8.8073e-06
9.18034e-06
9.53124e-06
9.83289e-06
9.95787e-06
9.99359e-06
9.99471e-06
9.99731e-06
9.99526e-06
9.99616e-06
9.99517e-06
9.99579e-06
9.99548e-06
9.99589e-06
9.996e-06
9.99623e-06
9.99636e-06
9.99647e-06
9.99655e-06
9.99661e-06
9.99664e-06
9.99662e-06
9.99659e-06
9.99655e-06
9.99642e-06
9.99635e-06
9.99643e-06
9.99668e-06
9.99684e-06
9.99701e-06
9.99727e-06
9.99755e-06
9.99783e-06
9.99819e-06
1.0004e-05
1.00881e-05
1.0389e-05
1.13284e-05
1.36066e-05
1.75061e-05
2.92093e-05
7.23684e-05
0.000124973
0.000129729
0.000131709
0.000133387
0.00013221
0.000129537
0.00012655
0.00012941
0.000118701
0.304432
0.974309
0.982913
0.982159
0.981873
0.981847
0.981466
0.981302
0.980811
0.98032
0.979935
0.979677
0.979362
0.97912
0.978948
0.978753
0.978498
0.978234
0.977944
0.977633
0.977252
0.976865
0.976486
0.976136
0.975891
0.975745
0.975657
0.975634
0.975697
0.975829
0.975573
0.974625
0.97373
0.973353
0.974088
0.976776
0.981049
4.10321e-06
4.17813e-06
4.30114e-06
4.47071e-06
5.34732e-06
5.97716e-06
6.92686e-06
8.21407e-06
8.82687e-06
9.17683e-06
9.5066e-06
9.79809e-06
9.93765e-06
9.98826e-06
9.98853e-06
9.99147e-06
9.98969e-06
9.98997e-06
9.98969e-06
9.98969e-06
9.98969e-06
9.98994e-06
9.99039e-06
9.99076e-06
9.99101e-06
9.99126e-06
9.99146e-06
9.99164e-06
9.99177e-06
9.99188e-06
9.99196e-06
9.99208e-06
9.99218e-06
9.9924e-06
9.99276e-06
9.9931e-06
9.99321e-06
9.99322e-06
9.99323e-06
9.99326e-06
9.99354e-06
9.99404e-06
1.00063e-05
1.01263e-05
1.05977e-05
1.19346e-05
1.51425e-05
2.24522e-05
3.41467e-05
6.09954e-05
0.000121669
0.000130274
0.000129873
0.000131014
0.000130666
0.000129272
0.000127064
0.000129922
0.000118701
0.190059
0.979809
0.992933
0.993762
0.994756
0.994984
0.994998
0.994783
0.994672
0.994608
0.994619
0.994446
0.994361
0.994332
0.99438
0.994494
0.994593
0.994644
0.994639
0.994609
0.994674
0.994791
0.99497
0.995365
0.995782
0.996238
0.996766
0.997565
0.998525
0.999422
0.99987
0.999799
0.999826
0.999812
0.999781
0.999774
0.999811
4.20474e-06
4.2558e-06
4.22057e-06
4.16264e-06
4.83844e-06
5.53252e-06
6.66033e-06
8.20504e-06
8.98129e-06
9.36552e-06
9.62553e-06
9.84019e-06
9.94199e-06
9.99121e-06
9.99406e-06
9.99774e-06
9.99613e-06
9.99717e-06
9.9963e-06
9.99668e-06
9.99633e-06
9.99644e-06
9.99645e-06
9.99653e-06
9.99652e-06
9.99654e-06
9.99653e-06
9.99652e-06
9.99649e-06
9.99642e-06
9.99627e-06
9.99611e-06
9.99592e-06
9.9958e-06
9.9957e-06
9.99544e-06
9.99493e-06
9.99441e-06
9.99399e-06
9.99379e-06
9.99373e-06
9.99381e-06
1.00156e-05
1.02044e-05
1.08762e-05
1.21586e-05
1.63709e-05
2.68776e-05
3.94e-05
5.58267e-05
9.65643e-05
0.000126683
0.000127929
0.000129426
0.000127648
0.000132894
0.000124889
0.000134784
0.000118701
0.121542
0.99084
0.999312
0.99952
0.999703
0.999721
0.999732
0.999701
0.999695
0.999696
0.999721
0.999734
0.999751
0.999783
0.999815
0.999839
0.999864
0.999891
0.999903
0.999905
0.999905
0.999904
0.999908
0.999913
0.999915
0.999926
0.999945
0.999972
0.999991
0.999999
1
1
1
1
1
1
1
4.15453e-06
4.31459e-06
4.4163e-06
4.35626e-06
4.62667e-06
5.26797e-06
6.31713e-06
7.93069e-06
9.0882e-06
9.69179e-06
9.87398e-06
9.9693e-06
9.96831e-06
9.98986e-06
9.99095e-06
9.99256e-06
9.99068e-06
9.99232e-06
9.99173e-06
9.9931e-06
9.99305e-06
9.99374e-06
9.99393e-06
9.99426e-06
9.99445e-06
9.99463e-06
9.9948e-06
9.99496e-06
9.99513e-06
9.99527e-06
9.99537e-06
9.99544e-06
9.99554e-06
9.99579e-06
9.99599e-06
9.9962e-06
9.99625e-06
9.99625e-06
9.99621e-06
9.99611e-06
9.99586e-06
9.99683e-06
1.00363e-05
1.02797e-05
1.08841e-05
1.19809e-05
1.70641e-05
3.01843e-05
4.52858e-05
5.84683e-05
7.30968e-05
0.000106614
0.000122233
0.000128722
0.000128318
0.000131871
0.000124941
0.000134144
0.000118701
0.0625224
0.985116
0.99999
0.999997
0.999999
0.999999
0.999999
0.999999
0.999999
0.999999
0.999999
0.999999
0.999999
0.999999
0.999999
0.999998
0.999997
0.999999
0.999999
0.999999
0.999999
0.999999
0.999999
0.999999
0.999998
0.999999
0.999999
0.999999
0.999999
0.999999
0.999999
0.999999
0.999999
0.999999
0.999999
0.999999
1
4.09057e-06
4.39239e-06
4.65948e-06
4.77285e-06
4.96219e-06
5.7732e-06
6.97811e-06
8.37075e-06
9.45885e-06
9.90198e-06
9.96815e-06
1.00057e-05
1.00056e-05
1.00101e-05
1e-05
1.00041e-05
9.99604e-06
9.99683e-06
9.99412e-06
9.99509e-06
9.99447e-06
9.99507e-06
9.99504e-06
9.99533e-06
9.99545e-06
9.99561e-06
9.99573e-06
9.9959e-06
9.99606e-06
9.9962e-06
9.9963e-06
9.99641e-06
9.99671e-06
9.99726e-06
9.99773e-06
9.9983e-06
9.99877e-06
9.999e-06
9.999e-06
9.99875e-06
9.99872e-06
1.00022e-05
1.00433e-05
1.02653e-05
1.0735e-05
1.17181e-05
1.7585e-05
3.17345e-05
4.92571e-05
6.24067e-05
7.22823e-05
8.46045e-05
0.000107424
0.000123246
0.000124217
0.000126796
0.000120829
0.000130543
0.000138982
0.0269108
0.943105
0.999999
0.999999
0.999999
0.999999
0.999999
0.999999
0.999999
0.999999
0.999999
0.999999
0.999999
0.999999
0.999999
0.999999
0.999999
0.999999
0.999999
0.999999
0.999999
0.999999
0.999999
0.999999
0.999999
0.999999
0.999999
0.999999
0.999999
0.999999
0.999999
0.999999
0.999999
0.999999
0.999999
1
1
3.80047e-06
4.21086e-06
4.54194e-06
4.71862e-06
4.91999e-06
5.95942e-06
7.87429e-06
9.06918e-06
9.75862e-06
9.90981e-06
9.93709e-06
9.99514e-06
1.00113e-05
1.00113e-05
1.00113e-05
1.00113e-05
1.00108e-05
1.00108e-05
1.0009e-05
1.00089e-05
1.00067e-05
1.00061e-05
1.00042e-05
1.00031e-05
1.0002e-05
1.00013e-05
1.00007e-05
1.00003e-05
1e-05
9.99975e-06
9.99947e-06
9.99926e-06
9.9992e-06
9.99922e-06
9.99916e-06
9.99932e-06
9.9993e-06
9.9993e-06
9.99933e-06
9.99953e-06
1.00002e-05
1.00046e-05
1.0032e-05
1.01568e-05
1.04302e-05
1.13452e-05
1.70937e-05
3.21371e-05
5.18829e-05
6.66601e-05
7.63606e-05
8.41224e-05
9.23886e-05
0.000108544
0.000112036
0.000117191
0.000113825
0.000148633
0.000273402
0.0168348
0.951316
0.999944
0.999999
0.999999
0.999999
0.999999
0.999999
0.999999
0.999999
0.999999
0.999999
0.999999
0.999999
0.999999
0.999999
0.999999
0.999999
0.999999
0.999999
0.999999
0.999999
0.999999
0.999999
0.999999
0.999999
0.999999
0.999999
0.999999
0.999999
0.999999
0.999999
0.999999
0.999999
0.999999
1
1
3.45731e-06
3.88229e-06
3.78778e-06
3.47451e-06
3.19497e-06
3.87392e-06
7.1834e-06
9.3621e-06
9.77086e-06
9.85801e-06
9.88873e-06
9.96778e-06
1.0003e-05
1.00112e-05
1.00105e-05
1.00112e-05
1.00101e-05
1.00108e-05
1.001e-05
1.001e-05
1.00096e-05
1.00096e-05
1.00089e-05
1.00084e-05
1.00077e-05
1.0007e-05
1.00064e-05
1.00057e-05
1.00051e-05
1.00045e-05
1.00038e-05
1.00032e-05
1.00026e-05
1.00019e-05
1.00012e-05
1.00009e-05
1.00006e-05
1.00006e-05
1.00013e-05
1.00027e-05
1.00044e-05
1.00079e-05
1.0019e-05
1.00605e-05
1.01988e-05
1.09727e-05
1.6341e-05
3.20081e-05
5.34616e-05
7.03124e-05
7.97466e-05
8.58741e-05
9.22158e-05
0.000101792
0.000107762
0.000118354
0.000121601
0.000262891
0.000386266
0.0260923
0.959908
0.999995
0.999999
0.999999
0.999999
0.999999
0.999999
0.999999
0.999999
0.999999
0.999999
0.999999
0.999999
0.999999
0.999999
0.999999
0.999999
0.999999
0.999999
0.999999
0.999999
0.999999
0.999999
0.999999
0.999999
0.999999
0.999999
0.999999
0.999999
0.999999
0.999999
1
1
1
1
1
2.82155e-06
3.57809e-06
3.42959e-06
3.25027e-06
2.29187e-06
2.26215e-06
4.05123e-06
9.18193e-06
9.77687e-06
9.8833e-06
9.90896e-06
9.97256e-06
9.99332e-06
1.00057e-05
1.0004e-05
1.00072e-05
1.00038e-05
1.00067e-05
1.00057e-05
1.00065e-05
1.0006e-05
1.00063e-05
1.0006e-05
1.00058e-05
1.00055e-05
1.00051e-05
1.00047e-05
1.00042e-05
1.00038e-05
1.00033e-05
1.00028e-05
1.00023e-05
1.00017e-05
1.0001e-05
1.00005e-05
1e-05
9.99981e-06
1e-05
1.00012e-05
1.00027e-05
1.0004e-05
1.00055e-05
1.00064e-05
1.00147e-05
1.00703e-05
1.07075e-05
1.53948e-05
3.01033e-05
5.06817e-05
6.78863e-05
8.01841e-05
9.03066e-05
9.80128e-05
0.000107675
0.00010803
0.000141376
0.000155009
0.000260205
0.000439271
0.024308
0.940569
0.999928
0.999999
0.999999
0.999999
0.999999
0.999999
0.999999
0.999999
0.999999
0.999999
0.999999
0.999999
0.999999
0.999999
0.999999
0.999999
0.999999
0.999999
0.999999
0.999999
0.999999
0.999999
0.999999
0.999999
0.999999
0.999999
0.999999
0.999999
0.999999
0.999999
0.999999
1
1
1
1
1.43465e-06
2.35881e-06
2.33468e-06
2.35067e-06
2.31449e-06
2.24256e-06
2.02482e-06
6.14431e-06
9.66542e-06
9.95116e-06
9.96381e-06
9.99847e-06
1.00034e-05
1.00111e-05
1.0012e-05
1.0012e-05
1.0012e-05
1.0012e-05
1.0012e-05
1.0012e-05
1.0012e-05
1.0012e-05
1.0012e-05
1.0012e-05
1.00119e-05
1.00118e-05
1.00116e-05
1.00114e-05
1.00111e-05
1.00108e-05
1.00105e-05
1.00101e-05
1.00096e-05
1.00091e-05
1.00085e-05
1.00081e-05
1.0008e-05
1.00082e-05
1.00093e-05
1.00103e-05
1.0011e-05
1.00114e-05
1.00115e-05
1.0018e-05
1.0075e-05
1.0914e-05
1.57786e-05
2.74264e-05
4.33856e-05
5.90913e-05
7.33296e-05
8.98126e-05
0.000103973
0.000119342
0.000112547
0.000134816
0.000151947
0.000205829
0.000459876
0.0199619
0.904569
0.998853
0.999997
0.999999
0.999999
0.999999
0.999999
0.999999
0.999999
0.999999
0.999999
0.999999
0.999999
0.999999
0.999999
0.999999
0.999999
0.999999
0.999999
0.999999
0.999999
0.999999
0.999999
0.999999
0.999999
0.999999
0.999999
0.999999
0.999999
0.999999
0.999999
0.999999
1
1
1
1
7.20373e-06
7.68013e-06
7.89213e-06
8.14812e-06
8.42216e-06
8.87377e-06
9.34095e-06
9.60795e-06
9.7145e-06
9.78002e-06
9.88889e-06
9.95931e-06
9.99775e-06
1.00093e-05
1.00093e-05
1.00093e-05
1.00093e-05
1.00093e-05
1.00088e-05
1.00088e-05
1.00083e-05
1.00082e-05
1.00081e-05
1.00081e-05
1.00081e-05
1.00082e-05
1.00083e-05
1.00083e-05
1.00083e-05
1.00083e-05
1.00084e-05
1.0009e-05
1.00092e-05
1.00092e-05
1.00092e-05
1.00092e-05
1.00092e-05
1.00092e-05
1.00089e-05
1.00083e-05
1.00074e-05
1.00058e-05
1.00065e-05
1.00049e-05
1.0068e-05
1.19024e-05
1.89271e-05
3.00858e-05
4.48406e-05
6.76391e-05
8.68682e-05
9.23429e-05
9.38581e-05
0.000106602
0.000114773
0.000125607
0.000130822
0.00015482
0.00160526
0.0871754
0.990315
0.999987
0.999999
0.999999
0.999999
0.999999
0.999999
0.999999
0.999999
0.999999
0.999999
0.999999
0.999999
0.999999
0.999999
0.999999
0.999999
0.999999
0.999999
0.999999
0.999999
0.999999
0.999999
0.999999
0.999999
1
1
1
1
1
1
1
1
1
1
1
6.39051e-06
7.31036e-06
7.76406e-06
8.07646e-06
8.42674e-06
8.70645e-06
8.93669e-06
9.07217e-06
9.23928e-06
9.44472e-06
9.67946e-06
9.87235e-06
9.9644e-06
1.00021e-05
1.00068e-05
1.00093e-05
1.00071e-05
1.00091e-05
1.00078e-05
1.00088e-05
1.00085e-05
1.00085e-05
1.00083e-05
1.00083e-05
1.0008e-05
1.00077e-05
1.00074e-05
1.00072e-05
1.0007e-05
1.0007e-05
1.00068e-05
1.00066e-05
1.00064e-05
1.00061e-05
1.00055e-05
1.00049e-05
1.00043e-05
1.00036e-05
1.00029e-05
1.00022e-05
1.00016e-05
1.00019e-05
1.0019e-05
1.01151e-05
1.03533e-05
1.16865e-05
1.6299e-05
2.64838e-05
4.61276e-05
6.70359e-05
8.35895e-05
9.19849e-05
9.4255e-05
0.000110209
0.000122414
0.000131007
0.000131441
0.000149919
0.000657155
0.125145
0.997601
0.999998
0.999999
0.999999
0.999999
0.999999
0.999999
0.999999
0.999999
0.999999
0.999999
0.999999
0.999999
0.999999
0.999999
0.999999
0.999999
0.999999
0.999999
0.999999
0.999999
0.999999
0.999999
0.999999
0.999999
1
1
1
1
1
1
1
1
0.999999
1
1
5.50341e-06
6.61777e-06
7.04714e-06
7.3073e-06
7.50551e-06
7.90056e-06
8.43876e-06
8.79641e-06
9.08704e-06
9.34014e-06
9.58077e-06
9.83145e-06
9.94836e-06
9.9989e-06
1.00038e-05
1.00072e-05
1.00045e-05
1.00062e-05
1.00049e-05
1.00056e-05
1.00049e-05
1.00051e-05
1.00047e-05
1.00046e-05
1.00044e-05
1.00042e-05
1.0004e-05
1.00039e-05
1.00038e-05
1.00037e-05
1.00036e-05
1.00035e-05
1.00033e-05
1.0003e-05
1.00025e-05
1.0002e-05
1.00015e-05
1.0001e-05
1.00005e-05
1.00001e-05
1e-05
1.00017e-05
1.00197e-05
1.01395e-05
1.05694e-05
1.14627e-05
1.35466e-05
2.12065e-05
4.13164e-05
6.0887e-05
7.09831e-05
7.83541e-05
9.7049e-05
0.0001271
0.000140195
0.000139188
0.000129775
0.000149193
0.000423159
0.172713
0.999324
0.999993
0.999996
0.999999
0.999999
0.999999
0.999999
0.999999
0.999999
0.999999
0.999999
0.999999
0.999999
0.999999
0.999999
0.999999
0.999999
0.999999
0.999999
0.999999
0.999999
0.999999
0.999999
0.999999
0.999999
1
1
1
1
1
1
0.999999
0.999999
0.999999
0.999999
0.999999
4.59185e-06
5.96447e-06
6.79715e-06
7.19923e-06
7.31693e-06
7.60976e-06
8.05298e-06
8.52648e-06
8.98716e-06
9.30482e-06
9.54214e-06
9.81346e-06
9.94063e-06
9.99725e-06
1.00014e-05
1.00046e-05
1.00018e-05
1.00033e-05
1.00019e-05
1.00025e-05
1.00019e-05
1.00019e-05
1.00015e-05
1.00014e-05
1.00011e-05
1.0001e-05
1.00009e-05
1.00007e-05
1.00006e-05
1.00005e-05
1.00004e-05
1.00003e-05
1.00001e-05
9.99996e-06
9.99963e-06
9.99929e-06
9.99904e-06
9.99877e-06
9.99837e-06
9.99799e-06
9.99771e-06
9.9978e-06
1.00037e-05
1.00488e-05
1.02656e-05
1.09017e-05
1.26483e-05
1.68861e-05
2.45253e-05
3.71452e-05
5.38131e-05
9.62964e-05
0.00012724
0.000142794
0.000145704
0.000143073
0.00013808
0.00018609
0.000449036
0.246248
0.997996
0.999556
0.999674
0.999794
0.999858
0.999905
0.999933
0.999955
0.999969
0.999978
0.999984
0.999988
0.99999
0.999991
0.999992
0.999992
0.999992
0.999992
0.999992
0.999992
0.999992
0.999992
0.999992
0.999992
0.999991
0.999993
0.999994
0.999994
0.999996
0.999997
0.999999
0.999999
0.999999
0.999999
0.999999
0.999999
3.80259e-06
4.70306e-06
6.45941e-06
7.36274e-06
7.36013e-06
7.56543e-06
7.85735e-06
8.24965e-06
8.82061e-06
9.26244e-06
9.51889e-06
9.80374e-06
9.93694e-06
9.99683e-06
1.00002e-05
1.00034e-05
1.00006e-05
1.00019e-05
1.00006e-05
1.00011e-05
1.00005e-05
1.00004e-05
1.00001e-05
9.99992e-06
9.99968e-06
9.99955e-06
9.99941e-06
9.99927e-06
9.99914e-06
9.99903e-06
9.99893e-06
9.99885e-06
9.99875e-06
9.99858e-06
9.99832e-06
9.99806e-06
9.99786e-06
9.99761e-06
9.99725e-06
9.99679e-06
9.99608e-06
9.9957e-06
9.99866e-06
1.00353e-05
1.02052e-05
1.07477e-05
1.23001e-05
1.54635e-05
1.9141e-05
2.95103e-05
7.80652e-05
0.000133217
0.000141466
0.000148272
0.000155214
0.000165409
0.000202868
0.000288403
0.000388658
0.30576
0.990508
0.994928
0.995398
0.996145
0.996751
0.997288
0.997773
0.998218
0.998592
0.998891
0.99913
0.999323
0.999469
0.999567
0.999619
0.999645
0.999653
0.999633
0.999606
0.999557
0.999492
0.999422
0.999358
0.999294
0.999212
0.999134
0.999079
0.999059
0.999218
0.999392
0.999659
0.999836
0.99994
0.999981
0.999995
0.999998
3.37476e-06
3.61742e-06
5.46665e-06
7.41845e-06
7.5689e-06
7.69423e-06
7.79426e-06
8.07707e-06
8.67698e-06
9.22181e-06
9.506e-06
9.79944e-06
9.93575e-06
9.9966e-06
9.99924e-06
1.00024e-05
9.99962e-06
1.00008e-05
9.9995e-06
9.99982e-06
9.99919e-06
9.99906e-06
9.99869e-06
9.99856e-06
9.99835e-06
9.99823e-06
9.99809e-06
9.99797e-06
9.99786e-06
9.99778e-06
9.9977e-06
9.99765e-06
9.99758e-06
9.99744e-06
9.99721e-06
9.99699e-06
9.99678e-06
9.99651e-06
9.99611e-06
9.99538e-06
9.994e-06
9.99303e-06
9.99457e-06
1.00314e-05
1.0209e-05
1.08769e-05
1.26425e-05
1.63126e-05
2.02126e-05
4.37108e-05
0.000114953
0.000146824
0.000143713
0.000160352
0.000178229
0.000203933
0.000242193
0.000271765
0.000210348
0.375069
0.979609
0.98493
0.984335
0.984888
0.985736
0.986416
0.987232
0.988198
0.989229
0.990174
0.991079
0.991975
0.992853
0.99368
0.994333
0.99479
0.995023
0.99505
0.994714
0.99431
0.993713
0.992986
0.992006
0.990815
0.989506
0.988229
0.987152
0.986716
0.986838
0.987573
0.989574
0.991985
0.994668
0.996951
0.998688
0.999476
3.18641e-06
3.1042e-06
4.53737e-06
6.53091e-06
7.49842e-06
7.76923e-06
7.91247e-06
8.037e-06
8.62139e-06
9.20236e-06
9.50304e-06
9.79815e-06
9.93579e-06
9.99674e-06
9.99887e-06
1.00018e-05
9.9993e-06
1.00002e-05
9.99905e-06
9.99924e-06
9.99865e-06
9.99852e-06
9.99821e-06
9.99808e-06
9.99791e-06
9.99781e-06
9.99769e-06
9.99759e-06
9.9975e-06
9.99744e-06
9.99738e-06
9.99733e-06
9.9973e-06
9.99716e-06
9.99695e-06
9.99673e-06
9.99651e-06
9.99625e-06
9.99589e-06
9.99505e-06
9.99341e-06
9.99194e-06
9.99252e-06
1.00299e-05
1.02672e-05
1.12075e-05
1.34019e-05
1.77692e-05
2.49968e-05
5.96206e-05
0.00013589
0.000149086
0.000163103
0.000187377
0.000204308
0.000216449
0.000222722
0.000225299
0.000118701
0.281241
0.969887
0.980008
0.978847
0.978535
0.978537
0.97868
0.978922
0.979269
0.979732
0.979951
0.980127
0.980168
0.980154
0.980104
0.980152
0.980311
0.980335
0.980045
0.979567
0.978699
0.977625
0.976392
0.974976
0.973469
0.971951
0.970501
0.969391
0.967311
0.963746
0.959487
0.956353
0.954335
0.95243
0.9516
0.957072
0.96332
3.12477e-06
2.80885e-06
3.64152e-06
5.0398e-06
6.32781e-06
7.04712e-06
7.9383e-06
8.11599e-06
8.63562e-06
9.19803e-06
9.50967e-06
9.80517e-06
9.94187e-06
9.99722e-06
9.99854e-06
1.00011e-05
9.99889e-06
9.99976e-06
9.99885e-06
9.99906e-06
9.99859e-06
9.99852e-06
9.99832e-06
9.99846e-06
9.99848e-06
9.99845e-06
9.99838e-06
9.99834e-06
9.9983e-06
9.99826e-06
9.99821e-06
9.99815e-06
9.99806e-06
9.99786e-06
9.99761e-06
9.9974e-06
9.99725e-06
9.99718e-06
9.99704e-06
9.99629e-06
9.99484e-06
9.99317e-06
9.99371e-06
1.00354e-05
1.03335e-05
1.14261e-05
1.40239e-05
1.93207e-05
2.92272e-05
6.69771e-05
0.000146089
0.000161166
0.000185704
0.000201564
0.000202711
0.000189985
0.000164968
0.000163763
0.000118701
0.216975
0.97141
0.985773
0.985854
0.986498
0.986416
0.985654
0.984695
0.983722
0.983014
0.982469
0.98181
0.981055
0.980163
0.9793
0.978519
0.977864
0.977341
0.976929
0.976544
0.976191
0.975855
0.975441
0.9749
0.974146
0.973163
0.97176
0.969062
0.964901
0.958842
0.951406
0.944853
0.936777
0.922347
0.900402
0.847692
0.646767
3.30422e-06
2.69228e-06
3.00651e-06
3.64036e-06
4.99034e-06
6.16379e-06
7.39142e-06
8.13551e-06
8.72204e-06
9.23828e-06
9.53745e-06
9.82329e-06
9.95094e-06
1.00003e-05
1.00014e-05
1.00032e-05
1.00013e-05
1.00019e-05
1.00012e-05
1.00011e-05
1.00008e-05
1.00007e-05
1.00005e-05
1.00004e-05
1.00002e-05
1.00002e-05
1.00001e-05
9.99998e-06
9.99992e-06
9.99986e-06
9.99978e-06
9.99971e-06
9.99961e-06
9.99944e-06
9.9992e-06
9.99899e-06
9.99881e-06
9.99869e-06
9.99847e-06
9.998e-06
9.99727e-06
9.99651e-06
9.99732e-06
1.00404e-05
1.03782e-05
1.15456e-05
1.44941e-05
2.03845e-05
3.12001e-05
5.26316e-05
0.000137839
0.000152826
0.000174553
0.000194983
0.000182138
0.000153343
0.000145918
0.000165259
0.000118701
0.114605
0.977815
0.995752
0.996262
0.997115
0.997155
0.997149
0.997083
0.997092
0.997262
0.997388
0.99737
0.997155
0.99685
0.996467
0.995983
0.995413
0.994832
0.994359
0.994011
0.993759
0.993451
0.993092
0.992653
0.992166
0.991845
0.991898
0.993004
0.994412
0.99656
0.998297
0.997642
0.997125
0.99671
0.997041
0.997394
0.996145
3.32741e-06
2.65669e-06
2.78884e-06
2.86743e-06
3.77289e-06
5.09661e-06
6.66797e-06
7.81839e-06
8.72432e-06
9.27023e-06
9.58317e-06
9.85579e-06
9.96707e-06
1.00027e-05
1.00028e-05
1.00043e-05
1.00029e-05
1.00036e-05
1.00031e-05
1.0003e-05
1.00028e-05
1.00027e-05
1.00025e-05
1.00025e-05
1.00024e-05
1.00023e-05
1.00022e-05
1.00021e-05
1.0002e-05
1.00019e-05
1.00018e-05
1.00017e-05
1.00015e-05
1.00013e-05
1.00009e-05
1.00006e-05
1.00003e-05
9.99994e-06
9.99938e-06
9.99896e-06
9.99838e-06
9.99779e-06
9.99863e-06
1.00403e-05
1.03935e-05
1.14916e-05
1.45883e-05
2.04079e-05
3.14727e-05
5.71097e-05
8.67474e-05
0.000132473
0.000151945
0.000167169
0.000162471
0.000149283
0.000141288
0.000178228
0.000118701
0.0618037
0.984559
0.999521
0.999613
0.99977
0.999771
0.999777
0.999761
0.999757
0.999759
0.999777
0.999786
0.999791
0.999777
0.999758
0.999733
0.999701
0.999659
0.999613
0.999573
0.999531
0.99948
0.999424
0.999368
0.999336
0.999421
0.999558
0.999701
0.999858
0.999969
0.999995
0.999993
0.999992
0.999992
0.999997
1
1
3.19365e-06
2.70438e-06
2.75281e-06
2.70077e-06
3.0892e-06
4.21818e-06
5.89258e-06
7.45365e-06
8.65795e-06
9.291e-06
9.62766e-06
9.8827e-06
9.97828e-06
1.00031e-05
1.00031e-05
1.00043e-05
1.00033e-05
1.00039e-05
1.00036e-05
1.00037e-05
1.00035e-05
1.00035e-05
1.00034e-05
1.00034e-05
1.00033e-05
1.00032e-05
1.00031e-05
1.00029e-05
1.00028e-05
1.00027e-05
1.00026e-05
1.00025e-05
1.00022e-05
1.0002e-05
1.00017e-05
1.00015e-05
1.00014e-05
1.00012e-05
1.00009e-05
1.00007e-05
1.00003e-05
9.99998e-06
1.0001e-05
1.00394e-05
1.031e-05
1.11696e-05
1.4395e-05
2.04664e-05
3.3776e-05
5.97178e-05
7.71788e-05
9.86489e-05
0.000126286
0.000145024
0.000145469
0.000142768
0.000137888
0.000188472
0.000159688
0.0420202
0.985308
0.999995
0.999984
0.999993
0.999992
0.999993
0.999992
0.999992
0.999992
0.999992
0.999993
0.999993
0.999993
0.999992
0.999992
0.999991
0.999991
0.99999
0.999989
0.999988
0.999988
0.999988
0.999989
0.999989
0.999993
0.999996
0.999998
0.999999
0.999999
0.999999
0.999999
0.999999
0.999999
0.999999
0.999999
0.999999
2.94071e-06
2.82836e-06
2.83822e-06
2.81966e-06
2.94708e-06
3.92485e-06
5.55288e-06
7.28888e-06
8.71529e-06
9.40009e-06
9.68961e-06
9.90941e-06
9.98735e-06
1.00036e-05
1.00023e-05
1.00043e-05
1.00028e-05
1.00039e-05
1.00031e-05
1.00037e-05
1.00032e-05
1.00034e-05
1.00032e-05
1.00032e-05
1.00031e-05
1.00031e-05
1.0003e-05
1.00029e-05
1.00028e-05
1.00027e-05
1.00026e-05
1.00024e-05
1.00021e-05
1.00018e-05
1.00015e-05
1.00014e-05
1.00014e-05
1.00013e-05
1.00011e-05
1.00009e-05
1.00007e-05
1.00008e-05
1.0002e-05
1.00263e-05
1.02026e-05
1.09767e-05
1.4168e-05
2.09194e-05
3.46107e-05
5.83168e-05
7.99918e-05
9.14245e-05
0.000108031
0.000123933
0.000123792
0.000123719
0.000131996
0.000201245
0.000235298
0.0222797
0.953497
0.999999
0.999999
0.999999
0.999999
0.999999
0.999999
0.999999
0.999999
0.999999
0.999999
0.999999
0.999999
0.999999
0.999999
0.999999
0.999999
0.999999
0.999999
0.999999
0.999999
0.999999
0.999999
0.999999
0.999999
0.999999
0.999999
0.999999
0.999999
0.999999
0.999999
0.999999
0.999999
0.999999
0.999999
0.999999
2.58023e-06
2.83816e-06
2.77516e-06
2.80712e-06
2.88176e-06
3.97531e-06
5.84086e-06
7.64055e-06
8.93935e-06
9.5111e-06
9.75225e-06
9.93492e-06
9.99252e-06
1.00036e-05
1.00028e-05
1.00035e-05
1.00031e-05
1.00039e-05
1.00034e-05
1.00039e-05
1.00035e-05
1.00037e-05
1.00036e-05
1.00036e-05
1.00035e-05
1.00035e-05
1.00034e-05
1.00032e-05
1.00031e-05
1.0003e-05
1.00028e-05
1.00027e-05
1.00023e-05
1.00019e-05
1.00014e-05
1.00008e-05
1.00001e-05
9.99958e-06
9.99927e-06
9.99923e-06
9.99985e-06
1.00009e-05
1.00021e-05
1.00179e-05
1.01485e-05
1.0887e-05
1.42496e-05
2.16683e-05
3.56812e-05
5.70914e-05
7.86861e-05
9.2774e-05
9.96317e-05
0.00010786
0.000113918
0.000124287
0.000127334
0.000187973
0.000311884
0.0119215
0.917714
0.999999
0.999999
0.999999
0.999999
0.999999
0.999999
0.999999
0.999999
0.999999
0.999999
0.999999
0.999999
0.999999
0.999999
0.999999