/*--------------------------------*- C++ -*----------------------------------*\
| =========                 |                                                 |
| \\      /  F ield         | OpenFOAM: The Open Source CFD Toolbox           |
|  \\    /   O peration     | Version:  2.3.0                                 |
|   \\  /    A nd           | Web:      www.OpenFOAM.org                      |
|    \\/     M anipulation  |                                                 |
\*---------------------------------------------------------------------------*/
FoamFile
{
    version     2.0;
    format      ascii;
    class       volScalarField;
    location    "21";
    object      epsilon.water;
}
// * * * * * * * * * * * * * * * * * * * * * * * * * * * * * * * * * * * * * //

dimensions      [0 2 -3 0 0 0 0];

internalField   nonuniform List<scalar> 
6144
(
3.26813e-05
2.15912e-05
1.74595e-05
1.54729e-05
1.09197e-05
9.433e-06
6.081e-06
4.99911e-06
5.27431e-06
7.0248e-06
8.67672e-06
9.86728e-06
1.00374e-05
9.90529e-06
8.88796e-06
8.44417e-06
7.92673e-06
7.78801e-06
7.68438e-06
7.65106e-06
7.64696e-06
7.66077e-06
7.68441e-06
7.7188e-06
7.7581e-06
7.79556e-06
7.82617e-06
7.8562e-06
7.88691e-06
7.91478e-06
7.95424e-06
7.96305e-06
8.02255e-06
7.98054e-06
8.11625e-06
7.98689e-06
8.27644e-06
8.01287e-06
8.5164e-06
8.15802e-06
9.02015e-06
8.71389e-06
9.79814e-06
9.9177e-06
1.01302e-05
1.01108e-05
8.79849e-06
8.47695e-06
8.35928e-06
1.39533e-05
2.5312e-05
4.84327e-05
9.74951e-05
0.000200688
0.000594694
0.00107983
0.00172251
0.00388476
0.0110985
0.0225654
0.0675157
0.0388169
0.0246982
0.0160186
0.0112406
0.00866309
0.00696694
0.00575455
0.00481537
0.00405108
0.00341949
0.00289602
0.00246261
0.00209184
0.00176472
0.00146319
0.001194
0.000955438
0.000757919
0.000601883
0.000479435
0.000388556
0.000327418
0.000294306
0.00027732
0.000280275
0.000287126
0.000285147
0.000276493
0.000256819
0.000238175
0.000217013
0.000197174
0.000158767
9.04769e-05
8.35932e-05
7.16671e-05
4.80596e-05
3.83245e-05
3.43985e-05
2.84038e-05
2.73885e-05
2.07475e-05
1.84674e-05
1.88855e-05
2.18555e-05
2.36698e-05
2.57301e-05
2.56579e-05
2.51141e-05
2.32936e-05
2.2477e-05
2.15918e-05
2.1682e-05
2.18493e-05
2.21645e-05
2.24928e-05
2.28168e-05
2.30976e-05
2.33426e-05
2.35601e-05
2.37509e-05
2.39113e-05
2.4049e-05
2.41757e-05
2.42924e-05
2.44157e-05
2.4482e-05
2.46159e-05
2.45875e-05
2.49253e-05
2.46546e-05
2.53199e-05
2.4696e-05
2.57115e-05
2.47431e-05
2.63701e-05
2.51744e-05
2.72349e-05
2.63967e-05
2.80233e-05
2.73731e-05
2.74226e-05
2.67132e-05
2.68209e-05
4.05756e-05
6.12902e-05
0.000115295
0.000225444
0.000343518
0.000930352
0.00211598
0.00510704
0.0109702
0.0186256
0.018582
0.0342007
0.0102926
0.00646856
0.00508281
0.00426725
0.00377326
0.00350842
0.00329744
0.00304298
0.00277738
0.00251372
0.00225299
0.00200205
0.00176222
0.00151751
0.00126869
0.00103198
0.000818137
0.00063578
0.000495758
0.00038663
0.000347729
0.000369206
0.000409677
0.000410757
0.00040965
0.000398371
0.000370299
0.000316568
0.000262934
0.000232083
0.000198682
0.000179009
0.000139961
9.12991e-05
9.025e-05
0.000100271
7.02878e-05
5.14604e-05
4.56698e-05
3.72501e-05
3.52294e-05
2.88128e-05
2.50662e-05
2.41982e-05
2.63025e-05
2.81879e-05
2.92662e-05
2.90983e-05
2.83932e-05
2.7706e-05
2.75279e-05
2.77398e-05
2.84407e-05
2.90889e-05
2.98451e-05
3.05362e-05
3.11776e-05
3.17111e-05
3.21438e-05
3.24977e-05
3.28014e-05
3.30691e-05
3.33031e-05
3.35114e-05
3.37034e-05
3.3883e-05
3.40221e-05
3.41894e-05
3.42513e-05
3.44548e-05
3.43174e-05
3.4536e-05
3.40822e-05
3.4279e-05
3.34059e-05
3.3663e-05
3.25333e-05
3.3269e-05
3.31251e-05
3.58032e-05
3.75649e-05
4.18456e-05
4.44835e-05
4.6662e-05
5.80926e-05
7.03007e-05
0.000132316
0.000274707
0.00052104
0.000886668
0.00240711
0.00478232
0.00876206
0.0109919
0.00807104
0.02227
0.00372176
0.00368308
0.00350132
0.00310671
0.0027632
0.00252986
0.0023759
0.00223049
0.00207319
0.00189638
0.00173512
0.00154572
0.00134981
0.00117788
0.00100766
0.000785104
0.000542182
0.000449834
0.000521956
0.000566154
0.000573703
0.000578929
0.000542197
0.000494819
0.000442694
0.000397068
0.0003346
0.000262401
0.000203688
0.000176816
0.000172626
0.000175266
0.000137447
0.00010398
0.000104881
0.000159256
0.000109153
7.07898e-05
5.97278e-05
4.17264e-05
3.52074e-05
2.48066e-05
2.22538e-05
2.29748e-05
2.52092e-05
2.82186e-05
2.91445e-05
2.93445e-05
2.87033e-05
2.83946e-05
2.82773e-05
2.85432e-05
2.92865e-05
3.00319e-05
3.08578e-05
3.1588e-05
3.22565e-05
3.28051e-05
3.3232e-05
3.35677e-05
3.38483e-05
3.40906e-05
3.42983e-05
3.4475e-05
3.46308e-05
3.47695e-05
3.48831e-05
3.50083e-05
3.50665e-05
3.51876e-05
3.50603e-05
3.51429e-05
3.47322e-05
3.47083e-05
3.39432e-05
3.38601e-05
3.30543e-05
3.32605e-05
3.41395e-05
3.67028e-05
4.09906e-05
4.62232e-05
5.16864e-05
5.90772e-05
6.51353e-05
7.58252e-05
0.000136162
0.000244612
0.000546864
0.00129434
0.00372521
0.00565081
0.00886702
0.00522886
0.0045344
0.0150632
0.00237596
0.00183131
0.0015872
0.00153144
0.00152664
0.00152651
0.00153438
0.00151126
0.00143649
0.00130896
0.00120135
0.00108191
0.000882681
0.000719427
0.000650623
0.000669228
0.000688724
0.000784448
0.000837362
0.000818568
0.000715084
0.000615964
0.000527136
0.000449359
0.000383215
0.000311785
0.000215926
0.000148493
0.000138834
0.000149173
0.00016341
0.00016725
0.000130872
0.000111825
0.000113902
0.000245791
0.000175454
0.000111456
9.18079e-05
5.39627e-05
4.21243e-05
2.57691e-05
2.23335e-05
2.24958e-05
2.46487e-05
2.79933e-05
2.78735e-05
2.8142e-05
2.7197e-05
2.70598e-05
2.6944e-05
2.75212e-05
2.84838e-05
2.95607e-05
3.05926e-05
3.14264e-05
3.20934e-05
3.25924e-05
3.29717e-05
3.32519e-05
3.34664e-05
3.36351e-05
3.37658e-05
3.38634e-05
3.39331e-05
3.39802e-05
3.40233e-05
3.40582e-05
3.40401e-05
3.40221e-05
3.38188e-05
3.37003e-05
3.3214e-05
3.28744e-05
3.21124e-05
3.16019e-05
3.11024e-05
3.09354e-05
3.2853e-05
3.54855e-05
4.14859e-05
4.71154e-05
5.32439e-05
6.07942e-05
6.89417e-05
7.67213e-05
0.000129534
0.000267056
0.000690487
0.00176487
0.006077
0.012139
0.0121712
0.00384795
0.0031197
0.0100276
0.00197436
0.0015812
0.0013132
0.00125442
0.00108499
0.00106205
0.00100833
0.000963907
0.000880576
0.000777008
0.000735901
0.000752745
0.000786217
0.000810424
0.000889405
0.0010306
0.00112502
0.00115795
0.00106989
0.000964209
0.000834099
0.000719
0.000615235
0.000520895
0.000427249
0.000313312
0.000192727
0.000140882
0.000134826
0.000145572
0.00015369
0.000152543
0.000122472
0.000106412
0.000115695
0.000355021
0.000280256
0.000179681
0.000155324
8.12276e-05
6.102e-05
3.3171e-05
2.58017e-05
2.31136e-05
2.46418e-05
2.81992e-05
2.66217e-05
2.70525e-05
2.58689e-05
2.60051e-05
2.55717e-05
2.65917e-05
2.77745e-05
2.92006e-05
3.03673e-05
3.12519e-05
3.18989e-05
3.23308e-05
3.26101e-05
3.27824e-05
3.2894e-05
3.29685e-05
3.30143e-05
3.3038e-05
3.30386e-05
3.30057e-05
3.296e-05
3.28847e-05
3.27713e-05
3.26389e-05
3.23313e-05
3.20999e-05
3.14798e-05
3.10629e-05
3.01939e-05
2.96096e-05
2.9205e-05
2.90349e-05
3.13954e-05
3.38928e-05
4.04031e-05
4.64298e-05
5.25186e-05
5.85145e-05
7.06442e-05
8.60912e-05
0.000133164
0.000319623
0.00081212
0.00201606
0.00725146
0.0155312
0.0140095
0.00331905
0.00285279
0.00655815
0.00181866
0.00155365
0.00137357
0.00104742
0.000828062
0.000807625
0.000774801
0.00078992
0.000858979
0.000909813
0.000984181
0.00108272
0.00117254
0.00125398
0.00129784
0.00130885
0.00123139
0.0011073
0.000954986
0.000836496
0.000739421
0.000673922
0.000625636
0.000580042
0.000514886
0.000410557
0.000276214
0.000171763
0.000135719
0.000126897
0.000123837
0.000115708
0.000100596
9.14478e-05
0.000111996
0.000409261
0.0004193
0.000270263
0.000236519
0.000130187
9.57635e-05
4.63109e-05
3.04371e-05
2.46655e-05
2.51924e-05
2.85277e-05
2.4209e-05
2.42512e-05
2.21203e-05
2.24672e-05
2.18358e-05
2.29834e-05
2.40652e-05
2.57261e-05
2.70937e-05
2.8252e-05
2.90538e-05
2.95415e-05
2.97896e-05
2.98766e-05
2.98468e-05
2.97517e-05
2.96282e-05
2.94807e-05
2.93219e-05
2.91676e-05
2.90394e-05
2.887e-05
2.86982e-05
2.83499e-05
2.80488e-05
2.73993e-05
2.69762e-05
2.59338e-05
2.55547e-05
2.44547e-05
2.48841e-05
2.46774e-05
2.82724e-05
3.16981e-05
3.87387e-05
4.52264e-05
4.93485e-05
5.23311e-05
7.22442e-05
0.000101665
0.000152365
0.000322077
0.000659994
0.00183445
0.00632566
0.0140552
0.0128686
0.00359236
0.00337957
0.00504703
0.00171206
0.00153774
0.0013743
0.00126781
0.00117458
0.00114617
0.00114042
0.00118095
0.00122278
0.00127257
0.00130258
0.00131392
0.00131718
0.00128256
0.00120755
0.00112095
0.000980764
0.000845447
0.000732923
0.000653082
0.000606255
0.000566497
0.000528272
0.000502004
0.000466406
0.000446936
0.000395105
0.000328647
0.000223132
0.000165283
0.000141238
0.000126742
0.000107638
8.58304e-05
0.000102254
0.00042706
0.00048602
0.000315316
0.000287637
0.000164487
0.000123716
6.76871e-05
3.52038e-05
2.65978e-05
2.5552e-05
2.75561e-05
2.27471e-05
2.3181e-05
2.03746e-05
2.06468e-05
1.94254e-05
2.07856e-05
2.18621e-05
2.36627e-05
2.50932e-05
2.63562e-05
2.72587e-05
2.78676e-05
2.821e-05
2.83609e-05
2.8385e-05
2.83248e-05
2.82073e-05
2.80409e-05
2.78389e-05
2.7607e-05
2.73836e-05
2.71367e-05
2.69343e-05
2.6551e-05
2.62951e-05
2.55487e-05
2.52427e-05
2.40936e-05
2.38668e-05
2.27247e-05
2.3172e-05
2.30335e-05
2.60324e-05
2.94941e-05
3.51026e-05
4.15413e-05
4.33867e-05
4.72018e-05
6.57802e-05
0.000103773
0.000167058
0.000320008
0.000684852
0.00206938
0.00564704
0.0109765
0.0103878
0.00348669
0.00337909
0.00463188
0.00209851
0.00198003
0.00181117
0.00173508
0.00166639
0.00163981
0.00163066
0.00163041
0.00163104
0.00163205
0.00163014
0.00162571
0.00160191
0.00156093
0.00149138
0.00137074
0.00120644
0.00102199
0.000824143
0.000664327
0.00055258
0.000485912
0.000421898
0.000381411
0.000347398
0.000338534
0.000341011
0.000338404
0.000274184
0.000232169
0.000193217
0.000176507
0.000141223
0.000107315
0.000159127
0.000380392
0.000458435
0.000325218
0.000311187
0.000193726
0.000145217
7.73778e-05
3.18405e-05
2.43512e-05
2.09147e-05
2.16039e-05
1.86359e-05
1.87093e-05
1.51636e-05
1.42643e-05
1.29542e-05
1.40078e-05
1.48723e-05
1.63282e-05
1.74618e-05
1.85056e-05
1.92978e-05
1.99323e-05
2.03634e-05
2.06145e-05
2.07372e-05
2.07698e-05
2.07392e-05
2.06572e-05
2.05384e-05
2.03943e-05
2.02536e-05
2.00943e-05
1.99768e-05
1.97133e-05
1.96112e-05
1.90558e-05
1.90271e-05
1.81492e-05
1.83187e-05
1.74626e-05
1.81381e-05
1.81078e-05
2.04138e-05
2.34196e-05
2.72554e-05
3.27225e-05
3.2317e-05
3.58488e-05
4.9972e-05
8.31838e-05
0.000141187
0.000268427
0.000729085
0.00235602
0.00539428
0.0079844
0.0107222
0.00348926
0.00327629
0.00519879
0.00233028
0.00226872
0.00224216
0.00208479
0.00203231
0.00198094
0.00193492
0.00190477
0.00188268
0.00186319
0.00185444
0.00181924
0.00175207
0.00165389
0.00152157
0.00136167
0.00118928
0.00101475
0.000832586
0.000683534
0.000570977
0.000494247
0.000404999
0.000352698
0.0002878
0.000210656
0.00017426
0.000165929
0.000195501
0.000183643
0.00014182
0.000117917
9.31469e-05
6.37843e-05
7.69902e-05
0.000345388
0.000410505
0.000271229
0.000255947
0.000224445
0.000153637
8.66851e-05
2.67397e-05
1.61504e-05
1.43125e-05
1.45293e-05
1.28137e-05
1.21812e-05
9.24143e-06
8.24295e-06
7.36816e-06
8.03631e-06
8.63549e-06
9.61027e-06
1.03795e-05
1.11152e-05
1.16873e-05
1.21529e-05
1.2522e-05
1.27892e-05
1.29544e-05
1.30369e-05
1.30721e-05
1.30799e-05
1.30712e-05
1.30473e-05
1.30141e-05
1.29739e-05
1.294e-05
1.28566e-05
1.28238e-05
1.26053e-05
1.25985e-05
1.22568e-05
1.23531e-05
1.21055e-05
1.24982e-05
1.275e-05
1.412e-05
1.62123e-05
1.84078e-05
2.22377e-05
2.17253e-05
2.55393e-05
3.55214e-05
6.2227e-05
0.000113213
0.000237187
0.000815856
0.00355466
0.00767305
0.00916944
0.0101524
0.00340219
0.00318551
0.006729
0.00217088
0.00198629
0.0018616
0.00173104
0.00169196
0.00172341
0.00172775
0.00171686
0.00170682
0.00168723
0.00163967
0.00154815
0.00140696
0.00122997
0.00104269
0.000861089
0.000695834
0.000560773
0.000465057
0.00041893
0.000389184
0.00037226
0.000364547
0.000341225
0.000321553
0.000262949
0.000165216
9.96599e-05
8.40415e-05
8.35468e-05
6.76232e-05
5.66909e-05
4.50428e-05
3.49447e-05
4.67258e-05
0.000394986
0.000397599
0.000150496
0.000138695
0.000172557
0.000129584
8.21397e-05
2.84819e-05
1.43772e-05
1.14767e-05
1.10741e-05
9.20043e-06
7.77819e-06
5.29797e-06
4.7161e-06
4.18025e-06
4.534e-06
4.8597e-06
5.4064e-06
5.85339e-06
6.30699e-06
6.68372e-06
7.01426e-06
7.29159e-06
7.51698e-06
7.68634e-06
7.80406e-06
7.89167e-06
7.96708e-06
8.03334e-06
8.08595e-06
8.12627e-06
8.15699e-06
8.18526e-06
8.20905e-06
8.23928e-06
8.22369e-06
8.2626e-06
8.21415e-06
8.29487e-06
8.37907e-06
8.5493e-06
9.04711e-06
9.58437e-06
1.12036e-05
1.20834e-05
1.47091e-05
1.43324e-05
1.73159e-05
2.47787e-05
4.43591e-05
8.44081e-05
0.000203937
0.000755339
0.00228944
0.0063017
0.0114667
0.0119595
0.00389608
0.00350128
0.0115086
0.00204034
0.00144249
0.00123672
0.00116128
0.000980063
0.000975391
0.00106594
0.00112435
0.00114414
0.00111349
0.00101758
0.000909593
0.000800499
0.000705335
0.000610175
0.000533639
0.000473852
0.000427557
0.000400877
0.00039264
0.000396726
0.00040649
0.000430224
0.000448903
0.000447279
0.000435581
0.000391778
0.000216656
7.89092e-05
6.80798e-05
6.92261e-05
6.14572e-05
5.04355e-05
3.98168e-05
5.12229e-05
0.000728672
0.000592459
0.000119694
6.51387e-05
6.26846e-05
5.17428e-05
3.9707e-05
1.60335e-05
1.0054e-05
9.24347e-06
9.06237e-06
7.31186e-06
5.18364e-06
3.59743e-06
3.18196e-06
3.00555e-06
3.17697e-06
3.30108e-06
3.5314e-06
3.72414e-06
3.93609e-06
4.12719e-06
4.31554e-06
4.49076e-06
4.65205e-06
4.79495e-06
4.91855e-06
5.03048e-06
5.13875e-06
5.24064e-06
5.33072e-06
5.41253e-06
5.5004e-06
5.60868e-06
5.69935e-06
5.80608e-06
5.86499e-06
5.96113e-06
5.97458e-06
6.1315e-06
6.21201e-06
6.45413e-06
6.7601e-06
7.09961e-06
8.07714e-06
8.51251e-06
1.02473e-05
1.0071e-05
1.19593e-05
1.7687e-05
3.34202e-05
6.93667e-05
0.000173464
0.000516796
0.00153766
0.00415727
0.00712789
0.0101791
0.00565126
0.00480548
0.0148477
0.00200257
0.00135018
0.0014512
0.0014141
0.00118344
0.000971427
0.000852748
0.000786782
0.000754551
0.000734444
0.000702554
0.000650166
0.000588797
0.000533162
0.000493482
0.00047394
0.000473311
0.000477918
0.000490225
0.000509529
0.000533219
0.000554523
0.00057251
0.000573958
0.000565127
0.000538871
0.000496464
0.000423491
0.000221645
7.09929e-05
6.74833e-05
7.2133e-05
6.7761e-05
6.06519e-05
7.35953e-05
0.00115162
0.000782466
0.000361339
5.85478e-05
3.02939e-05
2.40449e-05
1.77654e-05
9.1435e-06
7.54263e-06
7.86005e-06
8.45587e-06
6.98292e-06
4.95732e-06
3.26787e-06
2.94277e-06
2.73818e-06
2.87385e-06
2.94839e-06
3.05299e-06
3.11314e-06
3.17548e-06
3.21929e-06
3.26767e-06
3.31966e-06
3.38005e-06
3.44815e-06
3.52312e-06
3.59958e-06
3.67921e-06
3.76225e-06
3.84558e-06
3.92958e-06
4.01379e-06
4.10324e-06
4.1873e-06
4.28691e-06
4.36492e-06
4.45103e-06
4.50957e-06
4.63288e-06
4.77855e-06
4.93538e-06
5.27621e-06
5.39134e-06
6.09518e-06
6.16339e-06
7.23489e-06
7.36002e-06
8.44818e-06
1.2524e-05
2.4476e-05
6.08716e-05
0.000133029
0.00034421
0.000957445
0.00275489
0.0051131
0.0100872
0.0105359
0.00897081
0.0218654
0.00235338
0.0014834
0.00227005
0.00250555
0.00215833
0.00171939
0.00144746
0.00125296
0.00110325
0.00100188
0.000922258
0.000855358
0.000799957
0.000757407
0.000733359
0.000720067
0.000719219
0.000721425
0.000726852
0.000733265
0.000732205
0.000725864
0.000710382
0.00070047
0.000678606
0.000633848
0.000576209
0.000512609
0.000429242
0.000221338
7.57742e-05
6.77368e-05
7.42301e-05
7.64498e-05
9.15339e-05
0.000913975
0.000392678
0.000301853
9.7492e-05
2.493e-05
1.79391e-05
8.0142e-06
5.16284e-06
6.99393e-06
7.44839e-06
7.7594e-06
5.73796e-06
4.14315e-06
2.93205e-06
2.65093e-06
2.48372e-06
2.59214e-06
2.63873e-06
2.72119e-06
2.7624e-06
2.80202e-06
2.82389e-06
2.84824e-06
2.87503e-06
2.89339e-06
2.89928e-06
2.90857e-06
2.92341e-06
2.9449e-06
2.97264e-06
3.00468e-06
3.04094e-06
3.07996e-06
3.12991e-06
3.18824e-06
3.26602e-06
3.34344e-06
3.40557e-06
3.48363e-06
3.57223e-06
3.74323e-06
3.85243e-06
4.18337e-06
4.21352e-06
4.71114e-06
4.65514e-06
5.26391e-06
5.5254e-06
6.22631e-06
8.43692e-06
1.63947e-05
4.82298e-05
9.56394e-05
0.000307551
0.000756078
0.00173597
0.0048676
0.0108913
0.0149792
0.0139941
0.0272336
0.00329128
0.00411358
0.00394344
0.00335977
0.00273288
0.00226937
0.00195184
0.00173664
0.00158852
0.00147126
0.00136876
0.00127922
0.00120978
0.00115234
0.0011064
0.00106859
0.0010383
0.00100765
0.000973806
0.000936379
0.000891723
0.000841576
0.00079593
0.000759471
0.000734141
0.000684216
0.000621825
0.000548802
0.000486423
0.0004067
0.000224487
9.39507e-05
6.3778e-05
8.80918e-05
0.000102718
0.00103301
0.000483739
0.000363444
0.000124061
0.000109019
5.96053e-05
1.88775e-05
5.08811e-06
4.88501e-06
4.61123e-06
4.33036e-06
3.11667e-06
2.43033e-06
2.04496e-06
1.96436e-06
1.88775e-06
1.93576e-06
1.95236e-06
1.99862e-06
2.02044e-06
2.04359e-06
2.05852e-06
2.07525e-06
2.09312e-06
2.11278e-06
2.13848e-06
2.16767e-06
2.20216e-06
2.24282e-06
2.2873e-06
2.33424e-06
2.38334e-06
2.43609e-06
2.49728e-06
2.56475e-06
2.63989e-06
2.71805e-06
2.78064e-06
2.88421e-06
2.97325e-06
3.17242e-06
3.27551e-06
3.59125e-06
3.60428e-06
4.00752e-06
3.87817e-06
4.27006e-06
4.45208e-06
4.92612e-06
6.2701e-06
1.13308e-05
3.00667e-05
7.25179e-05
0.000243543
0.000720824
0.00156222
0.00594586
0.0133928
0.0243697
0.0212955
0.0389455
0.00817257
0.00748697
0.00525318
0.00396008
0.00337102
0.00292368
0.00257284
0.00229906
0.00208523
0.0019118
0.0017711
0.00165084
0.0015454
0.00145132
0.00137194
0.0012987
0.0012324
0.00116711
0.00110139
0.0010342
0.000964388
0.000895668
0.000829804
0.000771199
0.000713808
0.000668953
0.000588796
0.000517001
0.000456089
0.000412487
0.00035364
0.000240986
0.000173153
0.000150621
0.000117592
0.000968284
0.000829154
0.000698546
0.000500341
0.0003781
0.000223615
7.95101e-05
8.87714e-06
2.40355e-06
1.90973e-06
1.72114e-06
1.42666e-06
1.2497e-06
1.15173e-06
1.14949e-06
1.1201e-06
1.13655e-06
1.14306e-06
1.16449e-06
1.17842e-06
1.19597e-06
1.21203e-06
1.22941e-06
1.24682e-06
1.26655e-06
1.28964e-06
1.31478e-06
1.34318e-06
1.37545e-06
1.41047e-06
1.44827e-06
1.48718e-06
1.52785e-06
1.57201e-06
1.61809e-06
1.66651e-06
1.71736e-06
1.76198e-06
1.83558e-06
1.89608e-06
2.03675e-06
2.10624e-06
2.33778e-06
2.33828e-06
2.59366e-06
2.52166e-06
2.73256e-06
2.94262e-06
3.39026e-06
5.01151e-06
9.98858e-06
2.14561e-05
3.50356e-05
9.10105e-05
0.000314963
0.000799051
0.00240436
0.00499299
0.0164927
0.0261302
0.0690713
0.0346965
0.0199987
0.0119442
0.00811845
0.00590996
0.00454045
0.00366974
0.00308881
0.00268528
0.00238705
0.00216035
0.00197896
0.00183159
0.0017053
0.00159667
0.00149708
0.00140725
0.0013207
0.00123843
0.00115677
0.00107361
0.000990244
0.000905092
0.000820298
0.000731715
0.000646898
0.000540346
0.000461291
0.00041674
0.000353224
0.000324162
0.000272866
0.000224655
0.000190961
0.000123219
7.46386e-05
4.23281e-05
3.07295e-05
2.62266e-05
2.10197e-05
1.9965e-05
1.99569e-05
2.38331e-05
2.81907e-05
4.02778e-05
4.50348e-05
5.12255e-05
5.0012e-05
4.88859e-05
4.30521e-05
3.99897e-05
3.63303e-05
3.4393e-05
3.26566e-05
3.18242e-05
3.14025e-05
3.13407e-05
3.14524e-05
3.17134e-05
3.2082e-05
3.24724e-05
3.28203e-05
3.31433e-05
3.34717e-05
3.38089e-05
3.418e-05
3.44474e-05
3.49102e-05
3.49356e-05
3.56707e-05
3.53559e-05
3.65747e-05
3.58305e-05
3.79714e-05
3.69708e-05
4.0823e-05
3.95462e-05
4.54985e-05
4.32792e-05
4.55812e-05
3.8973e-05
3.01518e-05
2.34923e-05
2.10689e-05
3.79887e-05
5.61568e-05
0.000107664
0.000196953
0.000395114
0.00135559
0.0023074
0.00466684
0.00794308
0.0125266
0.0206725
0.0304964
0.0212101
0.0161241
0.0120695
0.00943764
0.00774005
0.00654774
0.00565094
0.0049269
0.00431751
0.00378929
0.00332548
0.00290773
0.00252374
0.00217304
0.00184664
0.00154289
0.00126293
0.00102414
0.000826607
0.000670855
0.000555544
0.000456875
0.000409535
0.000410849
0.000426933
0.000441292
0.000437854
0.000422897
0.000387934
0.000353898
0.000308962
0.000279534
0.000224818
0.000189806
0.00012612
9.83316e-05
6.08088e-05
4.91666e-05
4.59328e-05
4.45908e-05
4.76202e-05
4.89174e-05
5.15165e-05
5.03905e-05
5.46673e-05
5.45015e-05
5.70538e-05
5.60471e-05
5.55017e-05
5.29566e-05
5.14243e-05
4.96134e-05
4.89178e-05
4.82633e-05
4.8221e-05
4.83418e-05
4.8709e-05
4.91682e-05
4.9715e-05
5.03114e-05
5.08999e-05
5.14361e-05
5.19246e-05
5.23965e-05
5.28646e-05
5.33473e-05
5.37842e-05
5.42752e-05
5.45896e-05
5.51629e-05
5.52656e-05
5.60245e-05
5.58285e-05
5.70385e-05
5.65389e-05
5.84927e-05
5.75736e-05
5.99131e-05
5.87114e-05
6.0092e-05
5.59285e-05
5.27586e-05
4.93786e-05
5.04449e-05
6.84261e-05
8.44927e-05
0.000148292
0.000269508
0.000579745
0.00157019
0.00361838
0.00615267
0.00972448
0.0165283
0.0214118
0.0319023
0.00773627
0.00940273
0.00760348
0.00558176
0.00443727
0.00382145
0.00343129
0.00316794
0.00295728
0.00275176
0.00254677
0.00232293
0.00208233
0.00182223
0.00153182
0.00127262
0.0010566
0.000942743
0.000856421
0.000773531
0.000743863
0.000757221
0.000797464
0.000787774
0.000738662
0.000640381
0.000546881
0.000465294
0.000401218
0.000354222
0.000308178
0.00028926
0.000243536
0.000211455
0.000143517
0.000156356
9.53062e-05
7.81401e-05
7.33894e-05
7.22726e-05
7.24469e-05
6.45217e-05
6.39345e-05
6.05042e-05
6.15108e-05
6.07964e-05
6.1826e-05
6.16311e-05
6.14048e-05
6.05344e-05
5.97671e-05
5.92962e-05
5.98282e-05
6.04129e-05
6.1384e-05
6.22513e-05
6.31613e-05
6.40201e-05
6.4849e-05
6.56254e-05
6.63529e-05
6.70361e-05
6.76664e-05
6.82451e-05
6.87949e-05
6.93289e-05
6.98558e-05
7.0358e-05
7.08245e-05
7.12944e-05
7.15505e-05
7.19766e-05
7.19041e-05
7.22938e-05
7.18078e-05
7.2146e-05
7.14768e-05
7.16599e-05
7.26194e-05
7.42909e-05
7.7721e-05
8.08668e-05
8.56668e-05
9.5761e-05
0.000100513
0.00011319
0.000181463
0.000323059
0.000646892
0.0014944
0.00379643
0.00518029
0.00973522
0.0120195
0.0117763
0.025996
0.00480298
0.0130414
0.00784756
0.00435833
0.00315286
0.0027508
0.00265742
0.00271343
0.00270401
0.00261028
0.00240689
0.00210616
0.0017981
0.00157767
0.00153266
0.00141413
0.00129167
0.0013365
0.00156061
0.00165411
0.00155479
0.00126871
0.0010286
0.000851528
0.000701121
0.000593618
0.000500961
0.000413881
0.000371866
0.000345269
0.000321371
0.000302755
0.000264276
0.000216489
0.000169096
0.000275835
0.000152678
0.000114905
9.77017e-05
9.17663e-05
8.78885e-05
7.04085e-05
6.63501e-05
6.51008e-05
6.8086e-05
7.01709e-05
7.09044e-05
7.12143e-05
7.01852e-05
6.89925e-05
6.77205e-05
6.73832e-05
6.8086e-05
6.93371e-05
7.09463e-05
7.22979e-05
7.35277e-05
7.46229e-05
7.56395e-05
7.6558e-05
7.74089e-05
7.8228e-05
7.89961e-05
7.96903e-05
8.03313e-05
8.09401e-05
8.15265e-05
8.20946e-05
8.26299e-05
8.30946e-05
8.33704e-05
8.36047e-05
8.35123e-05
8.34177e-05
8.30144e-05
8.2725e-05
8.28001e-05
8.28383e-05
8.6276e-05
8.86373e-05
9.60349e-05
9.9902e-05
0.000107378
0.000118269
0.000120375
0.000137261
0.000226276
0.000404906
0.00083123
0.0017932
0.00517979
0.00641368
0.0122778
0.0142257
0.0106515
0.0286867
0.00464404
0.00383135
0.00211415
0.00161459
0.00152292
0.0016448
0.00192967
0.00207067
0.00202124
0.00189449
0.00175562
0.00168038
0.00160619
0.00163029
0.00180929
0.00205087
0.00239956
0.00246507
0.00220876
0.00189129
0.00159413
0.00127226
0.000997628
0.000786123
0.000673245
0.000610621
0.000514152
0.000367089
0.000282869
0.000284246
0.000294527
0.000286311
0.000248475
0.000203181
0.000169813
0.00047128
0.000251035
0.000178908
0.000131507
0.000113859
0.000107378
8.37085e-05
7.8832e-05
7.96896e-05
8.20311e-05
8.39837e-05
7.96553e-05
8.00197e-05
7.68035e-05
7.63712e-05
7.43377e-05
7.52373e-05
7.67297e-05
7.92705e-05
8.17365e-05
8.40276e-05
8.5978e-05
8.76127e-05
8.89165e-05
9.00039e-05
9.09983e-05
9.19194e-05
9.27618e-05
9.35233e-05
9.42241e-05
9.49137e-05
9.55958e-05
9.62001e-05
9.6819e-05
9.72544e-05
9.75974e-05
9.76905e-05
9.76454e-05
9.72348e-05
9.70591e-05
9.62606e-05
9.73582e-05
9.72731e-05
0.000102642
0.000105348
0.000113851
0.000117313
0.000125387
0.000130849
0.000144219
0.000163517
0.000253976
0.000507534
0.00122678
0.0030704
0.00835875
0.0149917
0.0254301
0.0100366
0.00983417
0.0414528
0.00439627
0.00304902
0.00177134
0.00166836
0.00120814
0.00145185
0.00155361
0.00160859
0.0016692
0.00169079
0.00186365
0.00214729
0.00240837
0.0028888
0.00331079
0.00353619
0.0035687
0.00331537
0.00308049
0.00280901
0.00254361
0.00222744
0.00188104
0.00154707
0.00131424
0.00113772
0.000893904
0.000541505
0.000288267
0.0002395
0.000237406
0.000241764
0.000216718
0.000180478
0.000165356
0.000842067
0.000387892
0.000274552
0.000183269
0.000151786
0.000143295
0.000108653
9.31376e-05
8.77748e-05
8.83175e-05
9.00704e-05
8.24699e-05
8.29671e-05
7.82926e-05
7.82079e-05
7.55274e-05
7.70895e-05
7.89294e-05
8.22443e-05
8.52633e-05
8.82969e-05
9.09111e-05
9.30688e-05
9.47862e-05
9.61767e-05
9.73345e-05
9.8322e-05
9.91832e-05
9.99099e-05
0.000100522
0.000101099
0.000101837
0.000102456
0.000103269
0.000103497
0.000104207
0.000103543
0.00010415
0.000102247
0.000103253
0.000100718
0.000103976
0.000103319
0.000112252
0.000117835
0.000128376
0.000135144
0.00014281
0.000141932
0.000168156
0.000200724
0.000262646
0.000548366
0.00141738
0.00452487
0.0140496
0.0304764
0.0331861
0.00977107
0.0100422
0.0524139
0.00523561
0.00399692
0.0033735
0.00346828
0.0031374
0.00312733
0.00296463
0.00312273
0.00352612
0.0040164
0.00442794
0.00464037
0.00477961
0.00486289
0.00489034
0.00481279
0.00460136
0.00441856
0.00421297
0.004048
0.00388192
0.00378147
0.00370412
0.00357278
0.00326478
0.00283184
0.00236632
0.00167137
0.000773892
0.000374554
0.000263653
0.00022597
0.000179497
0.000151273
0.00014959
0.00099222
0.000507294
0.000407147
0.000246429
0.000192167
0.000180882
0.000143115
0.000112791
9.41323e-05
9.08837e-05
9.1652e-05
8.17035e-05
8.21464e-05
7.33326e-05
7.35514e-05
6.88013e-05
7.17338e-05
7.38499e-05
7.87275e-05
8.29072e-05
8.6979e-05
9.00646e-05
9.26145e-05
9.45735e-05
9.6076e-05
9.72314e-05
9.81405e-05
9.88851e-05
9.94432e-05
9.98401e-05
0.00010015
0.000100743
0.000101217
0.000102044
0.000101954
0.000102867
0.000101439
0.000102536
9.92987e-05
0.000101214
9.71316e-05
0.000101976
0.000100871
0.000111886
0.000119526
0.000130569
0.000139485
0.000145845
0.000139385
0.000174514
0.000217859
0.000268552
0.000485583
0.00106416
0.00383122
0.0135958
0.0287372
0.027423
0.0136852
0.0138203
0.0441093
0.00522756
0.00449091
0.00420454
0.00424653
0.00430188
0.0043304
0.00431094
0.00423598
0.00418828
0.00416988
0.00419975
0.00421127
0.00422076
0.00420398
0.00419379
0.00415849
0.00404647
0.00397123
0.00389467
0.00384919
0.0037492
0.00385522
0.0040115
0.0042577
0.00463883
0.00482542
0.00483555
0.00440503
0.00372831
0.00245428
0.00134308
0.000869166
0.00046824
0.000241147
0.000152178
0.00105508
0.000714621
0.000562046
0.000337434
0.000215909
0.0001931
0.000156262
0.000126536
0.000103045
9.38943e-05
9.10358e-05
7.69061e-05
7.5203e-05
6.21362e-05
6.27797e-05
5.60941e-05
6.09639e-05
6.33273e-05
6.91816e-05
7.37496e-05
7.83936e-05
8.18248e-05
8.47471e-05
8.68886e-05
8.84191e-05
8.94737e-05
9.01502e-05
9.0567e-05
9.07585e-05
9.0766e-05
9.05222e-05
9.01556e-05
8.96628e-05
8.9628e-05
8.87096e-05
8.90922e-05
8.66159e-05
8.75615e-05
8.30714e-05
8.48359e-05
7.94801e-05
8.35829e-05
8.14086e-05
9.02399e-05
9.8407e-05
0.000108587
0.000120556
0.000116932
0.000108712
0.000136042
0.000195082
0.000266859
0.000448272
0.00102889
0.00352645
0.0118641
0.0222715
0.0221274
0.0150945
0.0151993
0.043516
0.00559997
0.00444762
0.00400207
0.00365093
0.00349619
0.00344086
0.00352209
0.00366457
0.00388026
0.00410755
0.00439935
0.00475809
0.00500288
0.00519044
0.00528074
0.0053197
0.00521493
0.00513709
0.00504523
0.00487849
0.00459888
0.00448946
0.00429684
0.00411745
0.00407582
0.00405317
0.00386207
0.00357532
0.00312079
0.00257375
0.0021334
0.00162226
0.00115278
0.000950714
0.000905206
0.00093755
0.00108612
0.000702628
0.000476534
0.000258567
0.000195471
0.000146744
0.000123244
0.000107456
9.66508e-05
9.10898e-05
6.93778e-05
6.45619e-05
4.36906e-05
3.78085e-05
3.18607e-05
3.3909e-05
3.51397e-05
3.87754e-05
4.17514e-05
4.51377e-05
4.80733e-05
5.04186e-05
5.2128e-05
5.32796e-05
5.39379e-05
5.4227e-05
5.43593e-05
5.44009e-05
5.44022e-05
5.43299e-05
5.42363e-05
5.38945e-05
5.39577e-05
5.3231e-05
5.40418e-05
5.21217e-05
5.42021e-05
5.04726e-05
5.42792e-05
4.93772e-05
5.57616e-05
5.17121e-05
6.13093e-05
6.32655e-05
7.43326e-05
8.18796e-05
7.48289e-05
6.12253e-05
7.39624e-05
0.000110628
0.000181473
0.000338934
0.00103429
0.00358498
0.00792446
0.0164981
0.0262592
0.0103395
0.0103011
0.0449783
0.00702816
0.00674964
0.00668298
0.00681521
0.00655673
0.00631643
0.0060851
0.00592437
0.00587299
0.00573666
0.00556207
0.00533135
0.00499214
0.0046006
0.0040887
0.00353386
0.00308714
0.00272572
0.00238553
0.00212988
0.00202877
0.00213927
0.00251977
0.00277534
0.00273823
0.00257372
0.00229534
0.00190202
0.00135644
0.00110997
0.000911732
0.00068489
0.000399131
0.000188299
8.68304e-05
0.000913256
0.0012803
0.000754792
0.000574436
0.000377244
0.000235545
0.000141093
0.000100743
8.47336e-05
7.52327e-05
6.93195e-05
5.5283e-05
4.68984e-05
3.16822e-05
2.6704e-05
2.25771e-05
2.30398e-05
2.34607e-05
2.52645e-05
2.67717e-05
2.84623e-05
2.9784e-05
3.09059e-05
3.17663e-05
3.24155e-05
3.29481e-05
3.34882e-05
3.38174e-05
3.39782e-05
3.40397e-05
3.39583e-05
3.38062e-05
3.35342e-05
3.34887e-05
3.31959e-05
3.36058e-05
3.27544e-05
3.38552e-05
3.21102e-05
3.42993e-05
3.16475e-05
3.49252e-05
3.20424e-05
3.61624e-05
3.55663e-05
4.13096e-05
4.62125e-05
4.13516e-05
3.67522e-05
4.75345e-05
7.56531e-05
0.000126254
0.000295036
0.00120225
0.00594974
0.0135522
0.0194164
0.0220972
0.00604565
0.00591743
0.0459714
0.00588312
0.0050714
0.00441859
0.00490006
0.00499578
0.00524576
0.00526776
0.00506587
0.00473467
0.00422872
0.00372056
0.00314403
0.00256399
0.00204227
0.00165315
0.00138361
0.00121385
0.00108157
0.000971684
0.000888316
0.000840205
0.000822961
0.000846699
0.000853073
0.000808642
0.000713754
0.000610036
0.000413922
0.000244284
0.000167273
0.000132037
0.000105391
9.02389e-05
8.75592e-05
9.02028e-05
0.00197067
0.00150602
0.000511857
0.000468103
0.000516877
0.000307624
0.000167559
8.7767e-05
6.94577e-05
6.16902e-05
5.92076e-05
4.86533e-05
3.95926e-05
2.68803e-05
2.2928e-05
1.98193e-05
2.01513e-05