/*--------------------------------*- C++ -*----------------------------------*\
| =========                 |                                                 |
| \\      /  F ield         | OpenFOAM: The Open Source CFD Toolbox           |
|  \\    /   O peration     | Version:  2.3.0                                 |
|   \\  /    A nd           | Web:      www.OpenFOAM.org                      |
|    \\/     M anipulation  |                                                 |
\*---------------------------------------------------------------------------*/
FoamFile
{
    version     2.0;
    format      ascii;
    class       volScalarField;
    location    "21";
    object      k.water;
}
// * * * * * * * * * * * * * * * * * * * * * * * * * * * * * * * * * * * * * //

dimensions      [0 2 -2 0 0 0 0];

internalField   nonuniform List<scalar> 
6144
(
6.38035e-05
4.84144e-05
4.20318e-05
3.87927e-05
3.07688e-05
2.79222e-05
2.08415e-05
1.82932e-05
1.89612e-05
2.29572e-05
2.6432e-05
2.88046e-05
2.9142e-05
2.88938e-05
2.68872e-05
2.59916e-05
2.49244e-05
2.46392e-05
2.44265e-05
2.43623e-05
2.43601e-05
2.4396e-05
2.44526e-05
2.45319e-05
2.46216e-05
2.47072e-05
2.47782e-05
2.4848e-05
2.4919e-05
2.49841e-05
2.50735e-05
2.50983e-05
2.52296e-05
2.51478e-05
2.54388e-05
2.51741e-05
2.57857e-05
2.52419e-05
2.62953e-05
2.55591e-05
2.73367e-05
2.67207e-05
2.89015e-05
2.91416e-05
2.95629e-05
2.95309e-05
2.69228e-05
2.62706e-05
2.60369e-05
3.66634e-05
5.45602e-05
8.41317e-05
0.000134039
0.000216997
0.00044776
0.000666033
0.000908901
0.00156499
0.00317161
0.00508972
0.0105116
0.00727211
0.00538542
0.00403825
0.00318945
0.00268079
0.00231798
0.00204097
0.00181326
0.00161682
0.00144464
0.00129338
0.00116095
0.0010414
0.000930024
0.000821084
0.000717227
0.000618334
0.000529932
0.000454493
0.000390561
0.000339499
0.000302813
0.000282012
0.000271021
0.000272992
0.000277555
0.000276383
0.000270869
0.000257952
0.000245319
0.000230572
0.000216336
0.000187291
0.000128823
0.00011929
0.000107771
8.26617e-05
7.11546e-05
6.62852e-05
5.8409e-05
5.70828e-05
4.75017e-05
4.40018e-05
4.4707e-05
4.93303e-05
5.20836e-05
5.51297e-05
5.50927e-05
5.43771e-05
5.17773e-05
5.06181e-05
4.9336e-05
4.95294e-05
4.98407e-05
5.03766e-05
5.0931e-05
5.14778e-05
5.19584e-05
5.23847e-05
5.27694e-05
5.31139e-05
5.3413e-05
5.36783e-05
5.39273e-05
5.41614e-05
5.44054e-05
5.45648e-05
5.48249e-05
5.48438e-05
5.54072e-05
5.50662e-05
5.61148e-05
5.52506e-05
5.68176e-05
5.54435e-05
5.79114e-05
5.62095e-05
5.92997e-05
5.8141e-05
6.05661e-05
5.96946e-05
5.98243e-05
5.88619e-05
5.90832e-05
7.79772e-05
0.000102774
0.000156789
0.000245314
0.000325294
0.000632818
0.00109495
0.00197198
0.00329084
0.00469005
0.0046837
0.00703532
0.00316036
0.00232379
0.00198107
0.0017651
0.00162757
0.00155186
0.0014906
0.00141475
0.00133307
0.00124893
0.00116232
0.00107543
0.000988799
0.000896091
0.000796215
0.0006946
0.000595604
0.000503929
0.000427282
0.000362223
0.000337432
0.000351433
0.000377245
0.000378408
0.000378136
0.000371629
0.000354477
0.000319807
0.000282769
0.000260317
0.000234869
0.000219261
0.00018623
0.000140275
0.000125517
0.000134917
0.00010668
8.67796e-05
8.02824e-05
7.02082e-05
6.77734e-05
5.94087e-05
5.42423e-05
5.3077e-05
5.62084e-05
5.8972e-05
6.05797e-05
6.04639e-05
5.95971e-05
5.87417e-05
5.85978e-05
5.90071e-05
6.01075e-05
6.11297e-05
6.22987e-05
6.33727e-05
6.43745e-05
6.52255e-05
6.5937e-05
6.65402e-05
6.7075e-05
6.75609e-05
6.80012e-05
6.84067e-05
6.87902e-05
6.91573e-05
6.94695e-05
6.98206e-05
7.00284e-05
7.04294e-05
7.03653e-05
7.07875e-05
7.02885e-05
7.06817e-05
6.95972e-05
7.00747e-05
6.86175e-05
6.97673e-05
6.96881e-05
7.35183e-05
7.60435e-05
8.1843e-05
8.54037e-05
8.82889e-05
0.000102386
0.000116495
0.000177932
0.000290043
0.000445041
0.000635327
0.00123855
0.00195911
0.00294074
0.00343473
0.00279725
0.00550118
0.0016696
0.00166207
0.00160997
0.00148949
0.00137992
0.0013031
0.00125193
0.00120246
0.00114741
0.00108311
0.00102263
0.000948542
0.000868007
0.000793888
0.00071674
0.00060818
0.000475967
0.00042003
0.000464252
0.000491074
0.00049628
0.00050028
0.000479685
0.000452018
0.000420343
0.000391613
0.000350156
0.00029839
0.000252313
0.000229651
0.000226161
0.000228886
0.000194984
0.000162183
0.000138738
0.000183783
0.000143285
0.000107598
9.63096e-05
7.5992e-05
6.80208e-05
5.40096e-05
5.03719e-05
5.15942e-05
5.50259e-05
5.94712e-05
6.09192e-05
6.13571e-05
6.06174e-05
6.03365e-05
6.03227e-05
6.08537e-05
6.20614e-05
6.32684e-05
6.45843e-05
6.57628e-05
6.68531e-05
6.77762e-05
6.85314e-05
6.91613e-05
6.97162e-05
7.02193e-05
7.06753e-05
7.10893e-05
7.14751e-05
7.18378e-05
7.21664e-05
7.25114e-05
7.27642e-05
7.31043e-05
7.30997e-05
7.33863e-05
7.29838e-05
7.31203e-05
7.22094e-05
7.2258e-05
7.12724e-05
7.17324e-05
7.31616e-05
7.69528e-05
8.30242e-05
9.01408e-05
9.73285e-05
0.000106612
0.000114054
0.000126551
0.000187473
0.000277761
0.000475947
0.0008462
0.00171571
0.00226991
0.00307167
0.00217571
0.00198302
0.00440584
0.00128957
0.00108527
0.000988552
0.000966257
0.000966764
0.000969111
0.000974851
0.000967249
0.000937493
0.000883074
0.00083572
0.00078136
0.000683941
0.000597824
0.000559715
0.000571148
0.000583439
0.000637604
0.000667517
0.000659197
0.000603654
0.000547502
0.000494445
0.000445427
0.000401418
0.000350706
0.000275172
0.000214512
0.000205314
0.000215715
0.000229666
0.000233853
0.000199068
0.000179671
0.000146588
0.000245555
0.00019684
0.000145943
0.000128672
9.05611e-05
7.70161e-05
5.56644e-05
5.07667e-05
5.11853e-05
5.45798e-05
5.96022e-05
5.96225e-05
6.0202e-05
5.90401e-05
5.90321e-05
5.90524e-05
6.00833e-05
6.16709e-05
6.34152e-05
6.50865e-05
6.64712e-05
6.76185e-05
6.85292e-05
6.92726e-05
6.98782e-05
7.03927e-05
7.08439e-05
7.12421e-05
7.15944e-05
7.19074e-05
7.21887e-05
7.24644e-05
7.27286e-05
7.29169e-05
7.31052e-05
7.30261e-05
7.30672e-05
7.25717e-05
7.22839e-05
7.13668e-05
7.08103e-05
7.02629e-05
7.02106e-05
7.32909e-05
7.73736e-05
8.61014e-05
9.39784e-05
0.000102235
0.000111979
0.000122117
0.000131568
0.000187102
0.000303983
0.000574046
0.00107527
0.0024596
0.00391391
0.00392807
0.00183044
0.00159595
0.00348499
0.00118224
0.00102109
0.000904807
0.000879635
0.000800326
0.000791085
0.000766134
0.000745544
0.000704044
0.000649396
0.00062765
0.000638522
0.000658887
0.000674121
0.000718786
0.000795135
0.000845462
0.000864199
0.000821862
0.000768536
0.00069932
0.000634873
0.000573544
0.000514629
0.000452034
0.000368485
0.00026693
0.000216941
0.000211152
0.000222746
0.000231483
0.000231019
0.000200114
0.000182686
0.000148115
0.000313777
0.000269195
0.000201012
0.000183158
0.000119403
9.90828e-05
6.6219e-05
5.62047e-05
5.24317e-05
5.4931e-05
6.03346e-05
5.82921e-05
5.91524e-05
5.76408e-05
5.80684e-05
5.76437e-05
5.9393e-05
6.13738e-05
6.36974e-05
6.56288e-05
6.71477e-05
6.83242e-05
6.9194e-05
6.98475e-05
7.03492e-05
7.07649e-05
7.11276e-05
7.14494e-05
7.1739e-05
7.19948e-05
7.22014e-05
7.23886e-05
7.25312e-05
7.26164e-05
7.26717e-05
7.24631e-05
7.23641e-05
7.16724e-05
7.12792e-05
7.01799e-05
6.95047e-05
6.91016e-05
6.90645e-05
7.29999e-05
7.70788e-05
8.69314e-05
9.56822e-05
0.000104201
0.000112343
0.000127808
0.000146313
0.000196299
0.000353062
0.000659546
0.00121417
0.00286027
0.00475777
0.00445426
0.00171021
0.00155297
0.00271581
0.00115741
0.00104497
0.000965977
0.00080901
0.00069323
0.000683757
0.00066704
0.000677464
0.000718384
0.000748737
0.000791141
0.00084553
0.000894131
0.000937847
0.000962519
0.000970871
0.00093475
0.000873153
0.000793053
0.000727919
0.00067211
0.000633754
0.00060469
0.000576367
0.000533746
0.000460191
0.000354247
0.000258853
0.000221896
0.000212769
0.000209903
0.000201214
0.00018383
0.00017295
0.000144945
0.00034499
0.000352319
0.000264199
0.000242981
0.000164068
0.000134374
8.31815e-05
6.3116e-05
5.50839e-05
5.61158e-05
6.12397e-05
5.51519e-05
5.54675e-05
5.2412e-05
5.31994e-05
5.24342e-05
5.44969e-05
5.64415e-05
5.92677e-05
6.16168e-05
6.36348e-05
6.51114e-05
6.61191e-05
6.67708e-05
6.71825e-05
6.74189e-05
6.75555e-05
6.76467e-05
6.76986e-05
6.77304e-05
6.77658e-05
6.78393e-05
6.78461e-05
6.78462e-05
6.75628e-05
6.73479e-05
6.65638e-05
6.61328e-05
6.46679e-05
6.42821e-05
6.26653e-05
6.36376e-05
6.35308e-05
6.98181e-05
7.56402e-05
8.67643e-05
9.65537e-05
0.0001027
0.000107196
0.000133412
0.000168165
0.000221016
0.000365222
0.000591341
0.00117453
0.00269081
0.00459012
0.00434384
0.00186302
0.00179507
0.00235507
0.00114905
0.00107339
0.000999307
0.000949849
0.000905683
0.000893838
0.000893687
0.000917526
0.000941809
0.000970348
0.000988565
0.000997463
0.00100229
0.000987693
0.00095198
0.000908696
0.000833512
0.00075714
0.000690635
0.000642044
0.000612672
0.000587165
0.000561962
0.000544498
0.000520172
0.000507412
0.000468539
0.000415817
0.000322031
0.000264729
0.000239094
0.000223156
0.000200743
0.000173074
0.000136388
0.000354999
0.00038913
0.000293223
0.000277441
0.000192376
0.000160059
0.000107727
6.99964e-05
5.83261e-05
5.70792e-05
6.03442e-05
5.33936e-05
5.43552e-05
5.01456e-05
5.08599e-05
4.90923e-05
5.16253e-05
5.36675e-05
5.6864e-05
5.94329e-05
6.17203e-05
6.34369e-05
6.46978e-05
6.55483e-05
6.6104e-05
6.64634e-05
6.66901e-05
6.68248e-05
6.68795e-05
6.68735e-05
6.68148e-05
6.67649e-05
6.66715e-05
6.66463e-05
6.63159e-05
6.61904e-05
6.52267e-05
6.49969e-05
6.32923e-05
6.31748e-05
6.14166e-05
6.24943e-05
6.2524e-05
6.81314e-05
7.43723e-05
8.38682e-05
9.42317e-05
9.74049e-05
0.000103481
0.000129666
0.000176481
0.000243361
0.000376854
0.000628525
0.00131975
0.00258931
0.00404359
0.00391477
0.00189772
0.0018658
0.00231469
0.00136895
0.00132191
0.00125068
0.00122016
0.00119236
0.00118409
0.00118402
0.0011881
0.00119294
0.00119796
0.00120159
0.00120385
0.00119633
0.00118038
0.00114898
0.00109031
0.0010051
0.000903486
0.000786444
0.000684172
0.000606082
0.000558289
0.000509619
0.000477634
0.000450618
0.000444392
0.000447861
0.000446842
0.000389536
0.000350255
0.00031162
0.00029424
0.000253905
0.000212299
0.000183049
0.000328305
0.000373527
0.000298497
0.000291278
0.0002135
0.00017704
0.000117023
6.50568e-05
5.46151e-05
4.95445e-05
5.08405e-05
4.6277e-05
4.66014e-05
4.06954e-05
3.92444e-05
3.69675e-05
3.91164e-05
4.08867e-05
4.37008e-05
4.58961e-05
4.791e-05
4.9476e-05
5.07667e-05
5.17102e-05
5.23497e-05
5.27729e-05
5.30437e-05
5.32064e-05
5.328e-05
5.32884e-05
5.325e-05
5.32145e-05
5.31432e-05
5.31429e-05
5.28794e-05
5.29007e-05
5.20967e-05
5.22435e-05
5.0817e-05
5.13262e-05
4.99036e-05
5.1373e-05
5.1512e-05
5.59994e-05
6.16008e-05
6.83909e-05
7.75354e-05
7.71631e-05
8.29946e-05
0.000103929
0.000146495
0.000209091
0.000321897
0.000629156
0.0013804
0.00240539
0.00313948
0.00382674
0.00181081
0.00174056
0.00239374
0.00140336
0.00138313
0.00137718
0.00131609
0.00129782
0.00128005
0.00126463
0.00125561
0.00124973
0.00124485
0.00124505
0.0012336
0.00120687
0.00116517
0.00110577
0.00103035
0.000944721
0.000852887
0.000750352
0.000660209
0.000587504
0.000535229
0.000469713
0.000429139
0.000376013
0.000306335
0.00027057
0.000262431
0.000293505
0.000282264
0.000238174
0.000211257
0.000180969
0.00014097
0.000112726
0.000307743
0.000346697
0.000263949
0.000254972
0.000234714
0.000183068
0.000125643
5.7661e-05
4.13336e-05
3.82518e-05
3.87806e-05
3.5804e-05
3.47477e-05
2.90201e-05
2.69943e-05
2.51466e-05
2.67466e-05
2.8167e-05
3.0363e-05
3.20823e-05
3.37065e-05
3.49825e-05
3.6038e-05
3.68985e-05
3.75578e-05
3.80177e-05
3.83164e-05
3.85229e-05
3.86755e-05
3.87953e-05
3.88845e-05
3.89546e-05
3.90097e-05
3.90768e-05
3.90431e-05
3.91107e-05
3.87975e-05
3.89157e-05
3.83387e-05
3.86688e-05
3.82797e-05
3.92334e-05
3.98932e-05
4.28396e-05
4.71316e-05
5.14538e-05
5.85559e-05
5.78323e-05
6.46303e-05
8.07691e-05
0.000117686
0.000175875
0.000288793
0.000660432
0.00176885
0.00296253
0.00334782
0.00359431
0.00173384
0.00166297
0.00275695
0.00130052
0.00122903
0.00117995
0.00112784
0.00111436
0.00113176
0.00113724
0.00113592
0.00113476
0.00112952
0.00111157
0.00107309
0.00100996
0.00092624
0.000832362
0.000734901
0.000639467
0.000555233
0.000491178
0.000459392
0.000438667
0.000427036
0.000422203
0.0004049
0.000390226
0.000342482
0.00025213
0.000180219
0.000161112
0.000160905
0.000140117
0.000124918
0.000107459
9.0985e-05
8.0933e-05
0.000336431
0.000339004
0.000177862
0.000169008
0.000196217
0.000162752
0.000120642
5.98226e-05
3.80544e-05
3.28232e-05
3.21517e-05
2.85062e-05
2.55721e-05
1.98633e-05
1.8441e-05
1.70726e-05
1.8082e-05
1.89998e-05
2.04656e-05
2.16483e-05
2.28257e-05
2.38014e-05
2.46576e-05
2.5383e-05
2.59845e-05
2.64556e-05
2.6808e-05
2.70916e-05
2.73477e-05
2.75832e-05
2.77878e-05
2.79645e-05
2.81194e-05
2.82688e-05
2.84082e-05
2.85628e-05
2.86114e-05
2.87863e-05
2.87583e-05
2.90309e-05
2.93132e-05
2.97944e-05
3.10312e-05
3.23386e-05
3.59912e-05
3.79543e-05
4.33965e-05
4.27678e-05
4.8659e-05
6.19416e-05
9.15284e-05
0.000140868
0.00025432
0.000610901
0.00128299
0.0025262
0.00377453
0.00389582
0.00184826
0.00172469
0.00383076
0.00121131
0.000963235
0.000871611
0.000837838
0.000750443
0.000750015
0.000798028
0.000829331
0.000841357
0.000828658
0.000782719
0.000728288
0.000670449
0.000617754
0.000562238
0.00051531
0.000477139
0.000446503
0.000428697
0.000423783
0.000427765
0.000435761
0.000453646
0.000467944
0.000467996
0.000460982
0.000430764
0.000291981
0.000148737
0.000134967
0.00013685
0.000126746
0.000111397
9.54302e-05
8.61187e-05
0.000505982
0.000441348
0.000152445
0.00010193
9.95839e-05
8.8031e-05
7.40293e-05
4.0596e-05
2.98011e-05
2.82353e-05
2.79404e-05
2.428e-05
1.93586e-05
1.52165e-05
1.40594e-05
1.35715e-05
1.4121e-05
1.45256e-05
1.52347e-05
1.58264e-05
1.64651e-05
1.70389e-05
1.75997e-05
1.81203e-05
1.86e-05
1.90283e-05
1.9404e-05
1.9748e-05
2.00818e-05
2.03983e-05
2.06838e-05
2.09477e-05
2.12268e-05
2.15584e-05
2.18446e-05
2.21717e-05
2.23769e-05
2.26768e-05
2.27673e-05
2.32209e-05
2.34819e-05
2.41456e-05
2.49649e-05
2.58541e-05
2.82465e-05
2.93198e-05
3.32622e-05
3.29535e-05
3.70479e-05
4.81874e-05
7.37923e-05
0.000120333
0.000222276
0.000461477
0.000957368
0.00186218
0.00267136
0.00339657
0.00230037
0.0020681
0.00440386
0.0011604
0.000893707
0.000940249
0.000926241
0.000824529
0.000724499
0.000665661
0.000632092
0.000615969
0.000606279
0.000589937
0.000561504
0.000526706
0.000493963
0.000470007
0.000458354
0.000458886
0.000462829
0.000471697
0.000485048
0.00050105
0.000515455
0.000527782
0.000529884
0.000525562
0.000510277
0.000484158
0.000436591
0.000285192
0.000133345
0.000128996
0.000135141
0.000130006
0.000120998
0.00010963
0.000686214
0.000531341
0.000318012
9.47329e-05
6.12053e-05
5.26143e-05
4.31289e-05
2.77764e-05
2.44606e-05
2.51815e-05
2.64989e-05
2.33745e-05
1.86427e-05
1.41504e-05
1.32239e-05
1.26304e-05
1.30723e-05
1.33257e-05
1.36679e-05
1.38759e-05
1.40899e-05
1.42487e-05
1.44209e-05
1.46035e-05
1.48104e-05
1.50394e-05
1.52878e-05
1.55399e-05
1.58003e-05
1.60696e-05
1.6339e-05
1.66093e-05
1.68794e-05
1.71634e-05
1.74316e-05
1.77422e-05
1.79923e-05
1.82642e-05
1.84606e-05
1.88321e-05
1.92629e-05
1.97194e-05
2.06573e-05
2.09965e-05
2.28311e-05
2.30442e-05
2.56945e-05
2.60359e-05
2.85996e-05
3.72437e-05
5.83036e-05
0.000107203
0.000180862
0.000341532
0.000677288
0.0013729
0.00207707
0.00327437
0.00337598
0.00303742
0.00552336
0.00125124
0.000920581
0.00122439
0.00131062
0.0011888
0.00102341
0.000914068
0.000831631
0.000765281
0.000718857
0.000681369
0.000649091
0.000621772
0.000600414
0.000588597
0.00058244
0.000582999
0.000585224
0.00058919
0.000593724
0.000594213
0.000591848
0.000584482
0.000580084
0.000568981
0.000544659
0.000512057
0.000474419
0.0004224
0.000272859
0.000133589
0.000123867
0.000131877
0.00013472
0.000126697
0.00058813
0.000335303
0.000281752
0.000132968
5.36497e-05
4.312e-05
2.52449e-05
1.88725e-05
2.31265e-05
2.41511e-05
2.48594e-05
2.03593e-05
1.6411e-05
1.30518e-05
1.22216e-05
1.17198e-05
1.20769e-05
1.22398e-05
1.25124e-05
1.26573e-05
1.27972e-05
1.28828e-05
1.29759e-05
1.30762e-05
1.31511e-05
1.31885e-05
1.32361e-05
1.33006e-05
1.33853e-05
1.3489e-05
1.36056e-05
1.37348e-05
1.38721e-05
1.40419e-05
1.42363e-05
1.44878e-05
1.4737e-05
1.49405e-05
1.51898e-05
1.54681e-05
1.59808e-05
1.63126e-05
1.72583e-05
1.7365e-05
1.87333e-05
1.86098e-05
2.02282e-05
2.09196e-05
2.26845e-05
2.78092e-05
4.33508e-05
8.9095e-05
0.000140774
0.000307099
0.000560622
0.000977301
0.00194702
0.00333576
0.00413364
0.00394918
0.00618229
0.00151209
0.00175508
0.00170871
0.0015378
0.00134146
0.00118644
0.00107421
0.000994883
0.000938631
0.000893001
0.000852107
0.000815528
0.000786716
0.000762581
0.000743126
0.000727022
0.000714153
0.000700989
0.000686101
0.000669312
0.000648711
0.000625009
0.000603016
0.000585225
0.000572902
0.000547397
0.000514288
0.000473863
0.000437727
0.000389154
0.000262762
0.000147117
0.000113561
0.000140939
0.000136828
0.000637916
0.000384954
0.000318611
0.000155904
0.000143258
9.57881e-05
4.44279e-05
1.85788e-05
1.8116e-05
1.74469e-05
1.6743e-05
1.34566e-05
1.14093e-05
1.01769e-05
9.91541e-06
9.66443e-06
9.83647e-06
9.90143e-06
1.00661e-05
1.01481e-05
1.02344e-05
1.02931e-05
1.03578e-05
1.04264e-05
1.05009e-05
1.0595e-05
1.07005e-05
1.0823e-05
1.09653e-05
1.11193e-05
1.12806e-05
1.1448e-05
1.16262e-05
1.18301e-05
1.20525e-05
1.22973e-05
1.25497e-05
1.27525e-05
1.30785e-05
1.33575e-05
1.39596e-05
1.42721e-05
1.51879e-05
1.52369e-05
1.63671e-05
1.60254e-05
1.71021e-05
1.7598e-05
1.88404e-05
2.21402e-05
3.28624e-05
6.30128e-05
0.000113473
0.000254726
0.000525733
0.000881527
0.00215002
0.00369891
0.00552319
0.005055
0.00757196
0.00267597
0.00252125
0.00199145
0.00165089
0.00148361
0.0013502
0.00124077
0.00115193
0.00108015
0.00102017
0.00097024
0.000926551
0.000887335
0.000851613
0.000820925
0.000792103
0.000765539
0.000738901
0.000711473
0.000682815
0.000652264
0.000621403
0.000591052
0.000563352
0.00053546
0.000513282
0.000471861
0.00043298
0.000398561
0.000373006
0.000336975
0.000261322
0.000209685
0.00019116
0.000149734
0.000610655
0.00055056
0.000490999
0.000393124
0.000326231
0.000229994
0.000115262
2.66347e-05
1.11784e-05
9.59266e-06
8.94742e-06
7.89319e-06
7.22427e-06
6.83992e-06
6.82943e-06
6.71126e-06
6.77554e-06
6.80008e-06
6.8835e-06
6.93693e-06
7.00427e-06
7.06542e-06
7.13135e-06
7.19708e-06
7.27136e-06
7.358e-06
7.45183e-06
7.55724e-06
7.67627e-06
7.80443e-06
7.94163e-06
8.08157e-06
8.22658e-06
8.38261e-06
8.54396e-06
8.71184e-06
8.88644e-06
9.03789e-06
9.28613e-06
9.48713e-06
9.94895e-06
1.01718e-05
1.09022e-05
1.0901e-05
1.16788e-05
1.14585e-05
1.20859e-05
1.26938e-05
1.39463e-05
1.80864e-05
2.8624e-05
4.76436e-05
6.60635e-05
0.000124809
0.000285678
0.000531217
0.00110831
0.00180306
0.00399597
0.00542701
0.0103977
0.00656321
0.00453829
0.00321631
0.0024863
0.00201242
0.00168816
0.00146451
0.00130517
0.0011885
0.00109848
0.0010275
0.000968886
0.000919923
0.000876913
0.000839077
0.000803661
0.00077104
0.000738983
0.000707832
0.000676267
0.000643333
0.000609472
0.000573922
0.000537374
0.000497893
0.000458576
0.000406737
0.000365854
0.000341847
0.000305996
0.000288907
0.000257555
0.000226155
0.000202882
0.000151474
0.000110638
7.58295e-05
6.12627e-05
5.51358e-05
4.75899e-05
4.60061e-05
4.60074e-05
5.17925e-05
5.79241e-05
7.34714e-05
7.91557e-05
8.62696e-05
8.4922e-05
8.3664e-05
7.68859e-05
7.32106e-05
6.8686e-05
6.62349e-05
6.39978e-05
6.29175e-05
6.23722e-05
6.23025e-05
6.24626e-05
6.28199e-05
6.33178e-05
6.38427e-05
6.43101e-05
6.47434e-05
6.51827e-05
6.5632e-05
6.61236e-05
6.64805e-05
6.70869e-05
6.71319e-05
6.80826e-05
6.76939e-05
6.92531e-05
6.83235e-05
7.10311e-05
6.97914e-05
7.45708e-05
7.30214e-05
8.01856e-05
7.75727e-05
8.02993e-05
7.23521e-05
6.09743e-05
5.16513e-05
4.80474e-05
7.12133e-05
9.23911e-05
0.000142639
0.000213227
0.000339456
0.00077227
0.00110077
0.00175918
0.00251021
0.00341145
0.00476878
0.00615044
0.00483314
0.00403247
0.00332717
0.00282423
0.00247418
0.00221284
0.00200603
0.00183125
0.00167746
0.00153809
0.00141019
0.00128978
0.00117383
0.00106263
0.000953603
0.000846157
0.00074059
0.000644099
0.000558436
0.000485841
0.000428461
0.00037608
0.000349282
0.000349982
0.000358997
0.000367187
0.000365373
0.000357108
0.00033726
0.000317311
0.000289883
0.000271212
0.00023457
0.000209573
0.000156899
0.000250357
0.000179064
0.000150268
0.000143543
0.000140421
0.000146095
0.000147279
0.000151263
0.000149995
0.000158431
0.000158591
0.000162994
0.000160906
0.000158697
0.000153528
0.000150284
0.000147067
0.000146113
0.00014519
0.000145515
0.000146281
0.000147438
0.000148644
0.000149872
0.000151098
0.000152262
0.000153307
0.000154247
0.000155134
0.000155996
0.00015687
0.000157633
0.000158495
0.000158967
0.000159893
0.000159878
0.000161048
0.000160385
0.00016219
0.00016094
0.000164014
0.00016245
0.000167023
0.000166369
0.00017064
0.000165601
0.000159848
0.00015219
0.000154325
0.000192093
0.000219751
0.000323091
0.000478248
0.000776021
0.00162711
0.00291585
0.00458583
0.00666507
0.0115813
0.013166
0.00179688
0.00155132
0.00286472
0.0026467
0.00230344
0.00203982
0.00187036
0.00175516
0.00168849
0.00163546
0.00157244
0.00149336
0.00139885
0.00129346
0.00118042
0.00104608
0.000915959
0.000805386
0.000749113
0.00070846
0.000684053
0.000688533
0.000721795
0.000794356
0.000802177
0.000777353
0.00071403
0.000643095
0.000582109
0.000534767
0.000490275
0.00042643
0.00038467
0.000305613
0.000259694
0.000170984
0.000328988
0.000239719
0.000208178
0.00019919
0.000195983
0.000194603
0.000178639
0.00017618
0.000170953
0.000172763
0.000173436
0.000172869
0.000171716
0.000168864
0.000166273
0.000164079
0.000163555
0.000165071
0.000167021
0.000169539
0.000172033
0.000174407
0.000176452
0.000178166
0.000179618
0.000180902
0.000182066
0.000183109
0.000184038
0.000184892
0.000185705
0.00018648
0.000187215
0.000187828
0.000188385
0.000188505
0.000188803
0.000188246
0.000188233
0.000187076
0.000187197
0.000186533
0.000187902
0.000191867
0.000197337
0.000205837
0.000213785
0.000222968
0.000243197
0.000255569
0.000284651
0.000391729
0.000569804
0.000880447
0.00157976
0.00290458
0.00426684
0.00639842
0.00904006
0.00826894
0.0015883
0.00206335
0.00463103
0.0032712
0.00222092
0.00181809
0.0016905
0.00169718
0.00174307
0.00175552
0.00172617
0.00165093
0.00148865
0.00132359
0.00120844
0.00116865
0.00108346
0.0010183
0.00106227
0.00125718
0.00137607
0.00134399
0.00116441
0.000991536
0.000841369
0.000705159
0.000615162
0.000559149
0.000519988
0.000514065
0.000505597
0.000491672
0.000459128
0.000389538
0.000313061
0.000190855
0.000482051
0.000328069
0.000267665
0.000237348
0.00022435
0.000215904
0.000184529
0.000175378
0.000174787
0.000177445
0.000181481
0.000177524
0.000176981
0.000172974
0.000171021
0.000168733
0.000169662
0.000172323
0.000176129
0.000180065
0.000183661
0.000186778
0.000189333
0.000191361
0.000192983
0.00019438
0.000195646
0.000196777
0.000197755
0.000198618
0.000199417
0.000200189
0.000200908
0.000201552
0.00020197
0.000202073
0.000201874
0.000201246
0.000200196
0.000199073
0.000197816
0.000198046
0.000198485
0.000206453
0.00021379
0.000230213
0.000240894
0.000254313
0.000272657
0.000286102
0.000324044
0.000451183
0.000658958
0.0010172
0.00164462
0.00331707
0.00465773
0.00659644
0.00760409
0.00550306
0.00158092
0.00211561
0.00234175
0.00153484
0.00123186
0.00123151
0.00131535
0.00150391
0.00163101
0.00159897
0.00150267
0.00141376
0.00136636
0.00128397
0.00126471
0.0013604
0.00151037
0.00176359
0.00183775
0.00172497
0.00150989
0.00128796
0.00104461
0.000839881
0.00069666
0.000625481
0.000589121
0.00054873
0.000484754
0.000442493
0.000455943
0.000471092
0.000449335
0.000381107
0.000306385
0.000191435
0.000687819
0.00045663
0.00036368
0.000290971
0.000255766
0.000239562
0.000195515
0.00018249
0.000187392
0.000189439
0.000193903
0.000183882
0.000182954
0.000175767
0.000173773
0.000170704
0.000172166
0.000175184
0.000180257
0.000185203
0.000189769
0.000193462
0.000196355
0.000198618
0.000200428
0.000201933
0.000203225
0.00020433
0.000205268
0.000206076
0.000206827
0.000207636
0.000208333
0.000209063
0.000209334
0.000209598
0.00020894
0.000208568
0.000206722
0.00020633
0.000204226
0.000206341
0.000206818
0.000217948
0.000226667
0.000244027
0.000255332
0.000270065
0.000281241
0.000312308
0.000353676
0.000478996
0.000752378
0.00127871
0.00231773
0.00451853
0.00711175
0.00929833
0.00358912
0.00284148
0.00199142
0.00212377
0.00214538
0.00143719
0.00143817
0.00115871
0.0013141
0.00137571
0.00137269
0.00136877
0.00134748
0.00143481
0.00156722
0.00169491
0.00196239
0.00221038
0.00233366
0.00233316
0.00214795
0.00194664
0.00174369
0.00156692
0.00138457
0.00119234
0.00101332
0.000897945
0.000802626
0.000698318
0.000564155
0.000433828
0.000407504
0.000410777
0.000403072
0.000348825
0.000285145
0.000188107
0.000987457
0.000600425
0.000476502
0.000362117
0.000310639
0.000289935
0.000230234
0.000201882
0.000194325
0.000193815
0.000197901
0.000185037
0.000184031
0.000173383
0.000171595
0.000165572
0.000169081
0.000173191
0.000180188
0.000185877
0.000191031
0.000195098
0.000198243
0.000200647
0.000202528
0.000204046
0.000205309
0.000206362
0.000207237
0.000207971
0.000208649
0.000209437
0.000210095
0.000210845
0.000210993
0.000211338
0.000210354
0.000210154
0.000207721
0.000207748
0.000204854
0.000208046
0.000208351
0.000221133
0.000231205
0.000249253
0.000262711
0.00027616
0.000283536
0.000325998
0.000388166
0.00048114
0.000783225
0.00137677
0.00284723
0.00573909
0.00951668
0.00966657
0.00203917
0.0019066
0.00311994
0.00270741
0.00270976
0.002285
0.00231165
0.00210603
0.00205698
0.00194164
0.00193882
0.00211625
0.00235346
0.00259803
0.0027279
0.00282117
0.00286516
0.00287098
0.00277581
0.00262944
0.00248825
0.00234178
0.00221243
0.00209158
0.00199363
0.00188937
0.00177318
0.00166042
0.00146009
0.00127926
0.0010336
0.000684413
0.000479133
0.000403959
0.000368178
0.000301959
0.000246638
0.00017599
0.00107523
0.000695756
0.000596741
0.00042813
0.000351891
0.000325885
0.000272126
0.000226074
0.000199496
0.000193898
0.000196097
0.000175586
0.000173563
0.000155615
0.000152617
0.000144439
0.000148352
0.000151866
0.000159778
0.000166753
0.000173696
0.000179052
0.000183253
0.000186311
0.000188479
0.000189962
0.000191011
0.00019176
0.000192175
0.000192314
0.000192327
0.000192736
0.000193036
0.000193763
0.000193194
0.000193954
0.0001912
0.000192175
0.000186706
0.000189039
0.000182822
0.000189777
0.000189276
0.000206496
0.000222426
0.000240937
0.000259745
0.000265232
0.000260585
0.000324332
0.00040114
0.000478184
0.000714059
0.00108065
0.00238494
0.00519177
0.0084945
0.00765282
0.00177436
0.00176115
0.00386468
0.00298205
0.00295003
0.00268843
0.00266375
0.00264886
0.00265247
0.00265491
0.00264433
0.00264234
0.00264171
0.00266095
0.00266538
0.00266401
0.00261993
0.0025477
0.00247119
0.00237984
0.00230093
0.00220413
0.00213731
0.00203807
0.00200676
0.00198779
0.00199804
0.00203152
0.00208187
0.00203478
0.0019436
0.00178946
0.001456
0.00104617
0.000830294
0.000559904
0.000314381
0.000178049
0.0010908
0.000824651
0.000714393
0.000512457
0.000370057
0.000330656
0.000284918
0.000240172
0.000203377
0.000190292
0.000185006
0.000162859
0.000157146
0.00013299
0.000129327
0.000117613
0.000124325
0.000128306
0.00013717
0.000144013
0.000150834
0.000155881
0.000159962
0.000162828
0.000164742
0.000165899
0.000166519
0.00016674
0.000166602
0.000166159
0.000165324
0.000164321
0.000163215
0.000162736
0.000161254
0.000161371
0.000157795
0.000158533
0.00015236
0.000154141
0.000147253
0.00015221
0.000150152
0.000161957
0.000174588
0.000189287
0.000208934
0.000203632
0.000199807
0.000248805
0.000351671
0.000456403
0.000649264
0.00102457
0.00221241
0.00445039
0.00648162
0.00604809
0.00220782
0.00220483
0.0042561
0.00320319
0.00300633
0.00267457
0.00251933
0.00242288
0.00239283
0.0024225
0.00249384
0.00258451
0.0026618
0.00274585
0.00284841
0.00288923
0.00291081
0.00291808
0.00289057
0.0028288
0.00277966
0.00272053
0.00266153
0.00251759
0.00241667
0.0022795
0.00211816
0.00199768
0.00193432
0.00184556
0.0017055
0.00156555
0.00138035
0.00123223
0.00104679
0.000817016
0.000660948
0.000564604
0.000908567
0.00105112
0.000795722
0.000607279
0.000391052
0.000317172
0.000250915
0.000220186
0.000203144
0.00018654
0.000176043
0.000142848
0.000131696
9.7503e-05
8.67996e-05
7.68033e-05
7.9699e-05
8.16872e-05
8.71594e-05
9.15937e-05
9.62431e-05
9.9588e-05
0.000102918
0.000105285
0.0001068
0.000107525
0.000107721
0.00010778
0.000107724
0.000107556
0.000107238
0.00010685
0.000106168
0.000106034
0.000104914
0.000105696
0.00010291
0.000105207
9.99877e-05
0.000104581
9.81859e-05
0.000106411
0.000101799
0.000114518
0.000119029
0.00013419
0.000147094
0.000137938
0.000124292
0.00015442
0.000224331
0.000335002
0.000520428
0.00101307
0.00240013
0.00403565
0.00627803
0.00792054
0.00168433
0.00162323
0.00373538
0.00348338
0.00380557
0.00375387
0.00379038
0.00363699
0.00352038
0.00340412
0.00331492
0.00326787
0.00317915
0.00305971
0.00293181
0.0027822
0.00261423
0.00243599
0.00224289
0.00208123
0.00194025
0.00180325
0.00170274
0.00167247
0.00174956
0.00187079
0.001903
0.00174868
0.00152497
0.00132578
0.00115366
0.000868
0.000719789
0.000635261
0.000560773
0.000407609
0.000233759
0.000122568
0.000833519
0.00117608
0.000822959
0.000679677
0.000486476
0.00034229
0.000234928
0.00018531
0.000163635
0.000151664
0.000143433
0.000122001
0.000104397
7.86401e-05
6.7733e-05
6.03951e-05
6.14989e-05
6.23046e-05
6.52768e-05
6.76712e-05
7.02537e-05
7.21829e-05
7.38984e-05
7.56064e-05
7.70354e-05
7.81413e-05
7.87071e-05
7.8991e-05
7.9106e-05
7.9083e-05
7.87745e-05
7.82569e-05
7.75756e-05
7.73084e-05
7.67976e-05
7.72541e-05
7.60023e-05
7.72027e-05
7.46093e-05
7.72535e-05
7.37802e-05
7.78637e-05
7.45671e-05
7.92765e-05
7.91567e-05
8.69397e-05
9.5366e-05
9.00233e-05
8.76185e-05
0.000112808
0.000166213
0.000251268
0.000468029
0.00109186
0.00328331
0.00595387
0.00752336
0.00806702
0.00188249
0.00182115
0.00273864
0.00299969
0.00317227
0.00285647
0.00304355
0.00306163
0.00313544
0.00310962
0.00301162
0.00284671
0.00260237
0.0023604
0.00210035
0.00183824
0.00161185
0.00143607
0.00129985
0.00121137
0.00113818
0.00106991
0.00100828
0.000964983
0.000941038
0.000942623
0.000931538
0.00086768
0.000750131
0.000611322
0.000435069
0.000315191
0.000235887
0.000195282
0.000175405
0.000162562
0.000151362
0.000125718