/*--------------------------------*- C++ -*----------------------------------*\
| =========                 |                                                 |
| \\      /  F ield         | OpenFOAM: The Open Source CFD Toolbox           |
|  \\    /   O peration     | Version:  2.3.0                                 |
|   \\  /    A nd           | Web:      www.OpenFOAM.org                      |
|    \\/     M anipulation  |                                                 |
\*---------------------------------------------------------------------------*/
FoamFile
{
    version     2.0;
    format      ascii;
    class       volScalarField;
    location    "21";
    object      nut.water;
}
// * * * * * * * * * * * * * * * * * * * * * * * * * * * * * * * * * * * * * //

dimensions      [0 2 -1 0 0 0 0];

internalField   nonuniform List<scalar> 
6144
(
1.12107e-05
9.77044e-06
9.10679e-06
8.75326e-06
7.80282e-06
7.43859e-06
6.42875e-06
6.02462e-06
6.1349e-06
6.75224e-06
7.24683e-06
7.56777e-06
7.61487e-06
7.58552e-06
7.32034e-06
7.20032e-06
7.05342e-06
7.01565e-06
6.98806e-06
6.98167e-06
6.98415e-06
6.99208e-06
7.00296e-06
7.01707e-06
7.03264e-06
7.04761e-06
7.06048e-06
7.07312e-06
7.08595e-06
7.09791e-06
7.11332e-06
7.11956e-06
7.14086e-06
7.13199e-06
7.17597e-06
7.14122e-06
7.23033e-06
7.15644e-06
7.30707e-06
7.20692e-06
7.45624e-06
7.37438e-06
7.67253e-06
7.7065e-06
7.76458e-06
7.76267e-06
7.41437e-06
7.32728e-06
7.29884e-06
8.67025e-06
1.05844e-05
1.3153e-05
1.65854e-05
2.11168e-05
3.03418e-05
3.69728e-05
4.31642e-05
5.67449e-05
8.15846e-05
0.000103857
0.000164396
0.000131729
0.000117157
0.000103719
9.3271e-05
8.66585e-05
8.15511e-05
7.72364e-05
7.32712e-05
6.94755e-05
6.58037e-05
6.22438e-05
5.88342e-05
5.54855e-05
5.216e-05
4.86873e-05
4.5198e-05
4.16877e-05
3.84462e-05
3.56257e-05
3.31165e-05
3.09509e-05
2.91475e-05
2.80794e-05
2.76088e-05
2.78325e-05
2.8347e-05
2.85784e-05
2.86109e-05
2.80179e-05
2.72602e-05
2.6118e-05
2.46751e-05
2.20585e-05
1.75309e-05
1.68808e-05
1.45856e-05
1.27959e-05
1.18897e-05
1.14957e-05
1.081e-05
1.07074e-05
9.78804e-06
9.43578e-06
9.52497e-06
1.00209e-05
1.03145e-05
1.0631e-05
1.06466e-05
1.05964e-05
1.03582e-05
1.02593e-05
1.01457e-05
1.01828e-05
1.02323e-05
1.03049e-05
1.03792e-05
1.04527e-05
1.05193e-05
1.05804e-05
1.06373e-05
1.069e-05
1.07383e-05
1.07831e-05
1.08263e-05
1.08681e-05
1.09108e-05
1.09452e-05
1.09896e-05
1.10099e-05
1.1085e-05
1.10692e-05
1.11927e-05
1.11247e-05
1.13001e-05
1.11812e-05
1.14461e-05
1.12954e-05
1.16204e-05
1.15254e-05
1.1781e-05
1.17162e-05
1.1746e-05
1.16731e-05
1.17138e-05
1.34869e-05
1.55101e-05
1.91896e-05
2.40241e-05
2.77234e-05
3.87395e-05
5.09943e-05
6.85308e-05
8.88485e-05
0.000106308
0.00010682
0.000148865
9.30657e-05
8.25429e-05
7.54956e-05
7.28205e-05
7.18377e-05
7.09565e-05
7.00896e-05
6.86949e-05
6.69944e-05
6.50438e-05
6.28051e-05
6.03718e-05
5.77535e-05
5.48119e-05
5.13489e-05
4.76665e-05
4.39129e-05
4.02284e-05
3.67565e-05
3.32499e-05
3.13311e-05
3.15072e-05
3.27991e-05
3.32924e-05
3.38013e-05
3.40918e-05
3.3799e-05
3.25684e-05
3.07975e-05
2.94747e-05
2.77144e-05
2.65675e-05
2.42493e-05
2.10917e-05
1.77729e-05
1.63381e-05
1.45722e-05
1.31706e-05
1.27015e-05
1.19094e-05
1.17343e-05
1.10245e-05
1.05641e-05
1.04778e-05
1.08105e-05
1.11038e-05
1.12857e-05
1.13075e-05
1.12585e-05
1.12089e-05
1.12262e-05
1.12966e-05
1.1433e-05
1.15616e-05
1.17038e-05
1.18367e-05
1.19627e-05
1.20744e-05
1.21732e-05
1.22619e-05
1.23444e-05
1.24226e-05
1.24966e-05
1.25674e-05
1.26364e-05
1.27039e-05
1.27664e-05
1.28327e-05
1.28859e-05
1.29569e-05
1.29851e-05
1.30582e-05
1.30462e-05
1.31168e-05
1.30498e-05
1.31284e-05
1.30252e-05
1.31676e-05
1.31948e-05
1.35866e-05
1.38543e-05
1.44064e-05
1.4757e-05
1.50346e-05
1.62407e-05
1.73738e-05
2.15347e-05
2.75611e-05
3.42114e-05
4.09711e-05
5.73563e-05
7.22322e-05
8.88342e-05
9.66085e-05
8.78472e-05
0.000140288
7.71705e-05
7.69506e-05
7.28339e-05
7.14897e-05
7.00538e-05
6.84819e-05
6.7417e-05
6.63481e-05
6.49709e-05
6.32109e-05
6.14022e-05
5.89753e-05
5.62354e-05
5.36895e-05
5.06293e-05
4.61857e-05
4.01115e-05
3.62858e-05
3.82064e-05
3.97348e-05
4.01049e-05
4.03911e-05
3.97678e-05
3.88881e-05
3.79208e-05
3.70429e-05
3.54644e-05
3.30601e-05
3.03905e-05
2.86331e-05
2.81134e-05
2.87898e-05
2.73921e-05
2.54429e-05
1.94046e-05
1.9088e-05
1.69282e-05
1.47192e-05
1.39767e-05
1.24557e-05
1.18275e-05
1.05832e-05
1.02616e-05
1.04278e-05
1.08098e-05
1.12803e-05
1.14603e-05
1.15463e-05
1.15214e-05
1.1539e-05
1.15815e-05
1.16765e-05
1.18364e-05
1.19959e-05
1.21656e-05
1.2322e-05
1.24701e-05
1.26025e-05
1.27193e-05
1.28247e-05
1.29233e-05
1.30173e-05
1.31071e-05
1.31931e-05
1.32767e-05
1.33583e-05
1.34368e-05
1.35171e-05
1.35889e-05
1.36691e-05
1.3717e-05
1.37923e-05
1.38027e-05
1.38639e-05
1.38254e-05
1.3878e-05
1.38311e-05
1.39234e-05
1.41108e-05
1.45209e-05
1.51345e-05
1.58207e-05
1.64948e-05
1.73156e-05
1.79741e-05
1.90091e-05
2.32309e-05
2.83863e-05
3.72804e-05
4.979e-05
7.11184e-05
8.2065e-05
9.57741e-05
8.14863e-05
7.88942e-05
0.000132876
7.25735e-05
6.71789e-05
5.73002e-05
5.91749e-05
5.97688e-05
6.06873e-05
6.14786e-05
6.15296e-05
6.06416e-05
5.89017e-05
5.7348e-05
5.53789e-05
5.13603e-05
4.77119e-05
4.5527e-05
4.65309e-05
4.78074e-05
5.0128e-05
5.13809e-05
5.10718e-05
4.88563e-05
4.64296e-05
4.39684e-05
4.15436e-05
3.92348e-05
3.65459e-05
3.24961e-05
2.88499e-05
2.8182e-05
2.90143e-05
3.05398e-05
3.17642e-05
3.01448e-05
2.91257e-05
2.02746e-05
2.20788e-05
1.9875e-05
1.71992e-05
1.62304e-05
1.36783e-05
1.26728e-05
1.08218e-05
1.03859e-05
1.04817e-05
1.08771e-05
1.14212e-05
1.14782e-05
1.15907e-05
1.1535e-05
1.15903e-05
1.16481e-05
1.18055e-05
1.20173e-05
1.22437e-05
1.24626e-05
1.26537e-05
1.28221e-05
1.29681e-05
1.30986e-05
1.32163e-05
1.33257e-05
1.34293e-05
1.35282e-05
1.36229e-05
1.37141e-05
1.38024e-05
1.38904e-05
1.39775e-05
1.40575e-05
1.41377e-05
1.41919e-05
1.42578e-05
1.42711e-05
1.43043e-05
1.42746e-05
1.42798e-05
1.42857e-05
1.43415e-05
1.47153e-05
1.51837e-05
1.60829e-05
1.68708e-05
1.76674e-05
1.85632e-05
1.94677e-05
2.03061e-05
2.43228e-05
3.11414e-05
4.29518e-05
5.89611e-05
8.95952e-05
0.000113576
0.000114102
7.83693e-05
7.48543e-05
0.000124409
7.21866e-05
6.55376e-05
5.89895e-05
5.85018e-05
5.60296e-05
5.67421e-05
5.65785e-05
5.60039e-05
5.4334e-05
5.16973e-05
5.04674e-05
5.09749e-05
5.33177e-05
5.53977e-05
5.82543e-05
6.14065e-05
6.34474e-05
6.4151e-05
6.26995e-05
6.06375e-05
5.7796e-05
5.49023e-05
5.19091e-05
4.88128e-05
4.53674e-05
4.05683e-05
3.42951e-05
3.1018e-05
3.0975e-05
3.22912e-05
3.35628e-05
3.42925e-05
3.26154e-05
3.14857e-05
2.04748e-05
2.49592e-05
2.32713e-05
2.02387e-05
1.94382e-05
1.57969e-05
1.448e-05
1.18973e-05
1.10189e-05
1.07044e-05
1.10206e-05
1.16182e-05
1.14875e-05
1.16407e-05
1.15591e-05
1.16698e-05
1.16946e-05
1.1939e-05
1.22057e-05
1.25053e-05
1.27652e-05
1.29846e-05
1.31709e-05
1.33279e-05
1.34645e-05
1.35869e-05
1.37013e-05
1.38109e-05
1.39167e-05
1.40197e-05
1.41196e-05
1.42149e-05
1.43085e-05
1.43979e-05
1.44817e-05
1.45625e-05
1.46168e-05
1.4682e-05
1.46864e-05
1.47206e-05
1.46808e-05
1.46838e-05
1.4715e-05
1.47854e-05
1.52764e-05
1.57763e-05
1.68337e-05
1.77463e-05
1.86069e-05
1.94121e-05
2.08106e-05
2.23795e-05
2.60431e-05
3.51e-05
4.82073e-05
6.58106e-05
0.00010154
0.000131174
0.000127464
7.93121e-05
7.89516e-05
0.000113592
7.45662e-05
7.03516e-05
6.52549e-05
5.78468e-05
5.28905e-05
5.31076e-05
5.2952e-05
5.38475e-05
5.64963e-05
6.02162e-05
6.37292e-05
6.74753e-05
7.0182e-05
7.24729e-05
7.38768e-05
7.44721e-05
7.34352e-05
7.13494e-05
6.8326e-05
6.56793e-05
6.32313e-05
6.14059e-05
5.97696e-05
5.78797e-05
5.51826e-05
5.07269e-05
4.41941e-05
3.79153e-05
3.52803e-05
3.4886e-05
3.49898e-05
3.46641e-05
3.34089e-05
3.25374e-05
2.01069e-05
2.6173e-05
2.66434e-05
2.32443e-05
2.24657e-05
1.86089e-05
1.69697e-05
1.34466e-05
1.17793e-05
1.10714e-05
1.12498e-05
1.18316e-05
1.1308e-05
1.14179e-05
1.11767e-05
1.13373e-05
1.13319e-05
1.16298e-05
1.19138e-05
1.22887e-05
1.26117e-05
1.28998e-05
1.31327e-05
1.33188e-05
1.34695e-05
1.35964e-05
1.37059e-05
1.38055e-05
1.39005e-05
1.39915e-05
1.40805e-05
1.41698e-05
1.42632e-05
1.43498e-05
1.44357e-05
1.44913e-05
1.45538e-05
1.45539e-05
1.45914e-05
1.45129e-05
1.4553e-05
1.44522e-05
1.4647e-05
1.47201e-05
1.55173e-05
1.62448e-05
1.74896e-05
1.85519e-05
1.92358e-05
1.97623e-05
2.21732e-05
2.50349e-05
2.88539e-05
3.72733e-05
4.76847e-05
6.76804e-05
0.000103016
0.000134914
0.000131968
8.69558e-05
9.22294e-05
0.000105771
7.98069e-05
7.82767e-05
7.62434e-05
7.40739e-05
7.19233e-05
7.19857e-05
7.26731e-05
7.48942e-05
7.67412e-05
7.88406e-05
8.02299e-05
8.12184e-05
8.17937e-05
8.15919e-05
8.04849e-05
7.89875e-05
7.59962e-05
7.2838e-05
6.98112e-05
6.75708e-05
6.60252e-05
6.48091e-05
6.35333e-05
6.25951e-05
6.12956e-05
6.03097e-05
5.73131e-05
5.34431e-05
4.655e-05
4.19494e-05
3.97607e-05
3.83474e-05
3.65701e-05
3.41596e-05
1.93224e-05
2.65587e-05
2.80399e-05
2.4541e-05
2.40845e-05
2.02495e-05
1.86371e-05
1.54306e-05
1.25258e-05
1.15113e-05
1.14755e-05
1.18931e-05
1.12796e-05
1.14708e-05
1.11075e-05
1.12756e-05
1.11661e-05
1.15399e-05
1.1857e-05
1.22985e-05
1.2669e-05
1.30081e-05
1.32868e-05
1.35183e-05
1.37077e-05
1.38669e-05
1.40061e-05
1.41318e-05
1.42481e-05
1.43561e-05
1.44577e-05
1.45536e-05
1.46504e-05
1.47423e-05
1.48419e-05
1.49072e-05
1.49954e-05
1.49873e-05
1.50623e-05
1.49638e-05
1.505e-05
1.49388e-05
1.51691e-05
1.52748e-05
1.60481e-05
1.68784e-05
1.80342e-05
1.92378e-05
1.9681e-05
2.04175e-05
2.30037e-05
2.70117e-05
3.19065e-05
3.99418e-05
5.19148e-05
7.57507e-05
0.000106855
0.000134065
0.000132782
9.29592e-05
0.000100157
0.000106922
9.22855e-05
9.27526e-05
9.25882e-05
9.25382e-05
9.23513e-05
9.24199e-05
9.28373e-05
9.3276e-05
9.38129e-05
9.43188e-05
9.47759e-05
9.50512e-05
9.491e-05
9.43957e-05
9.31491e-05
9.08511e-05
8.74227e-05
8.32124e-05
7.81124e-05
7.32746e-05
6.92285e-05
6.68674e-05
6.44776e-05
6.31522e-05
6.22499e-05
6.2506e-05
6.30133e-05
6.27365e-05
5.87661e-05
5.57076e-05
5.23362e-05
5.03428e-05
4.58667e-05
4.11564e-05
2.18092e-05
2.55016e-05
2.73911e-05
2.46575e-05
2.45378e-05
2.11764e-05
1.94252e-05
1.59282e-05
1.19632e-05
1.10242e-05
1.05629e-05
1.07679e-05
1.03424e-05
1.04468e-05
9.82951e-06
9.71734e-06
9.49451e-06
9.83086e-06
1.01165e-05
1.05265e-05
1.08569e-05
1.11633e-05
1.14163e-05
1.1637e-05
1.1818e-05
1.19646e-05
1.20869e-05
1.2192e-05
1.22851e-05
1.2368e-05
1.24434e-05
1.25133e-05
1.25834e-05
1.26492e-05
1.27235e-05
1.2766e-05
1.28428e-05
1.28184e-05
1.29103e-05
1.28057e-05
1.29427e-05
1.2835e-05
1.30955e-05
1.31885e-05
1.38256e-05
1.45826e-05
1.54449e-05
1.65347e-05
1.65818e-05
1.72929e-05
1.9453e-05
2.32194e-05
2.78689e-05
3.47416e-05
4.88631e-05
7.27906e-05
9.65348e-05
0.000111102
0.00012292
8.45775e-05
8.9004e-05
0.000104683
8.66513e-05
8.70375e-05
8.88174e-05
8.80984e-05
8.83004e-05
8.82481e-05
8.82377e-05
8.81989e-05
8.81871e-05
8.79409e-05
8.78527e-05
8.71452e-05
8.57495e-05
8.3654e-05
8.08236e-05
7.72598e-05
7.32719e-05
6.88955e-05
6.40474e-05
5.98394e-05
5.63646e-05
5.40008e-05
5.09198e-05
4.9062e-05
4.67148e-05
4.32912e-05
4.18503e-05
4.19982e-05
4.43868e-05
4.35613e-05
4.00899e-05
3.76835e-05
3.45367e-05
2.98529e-05
1.61727e-05
2.46781e-05
2.63526e-05
2.31178e-05
2.286e-05
2.20908e-05
1.96323e-05
1.63899e-05
1.11905e-05
9.52066e-06
9.20094e-06
9.31598e-06
9.00386e-06
8.9208e-06
8.20165e-06
7.95616e-06
7.72399e-06
8.01169e-06
8.26869e-06
8.6337e-06
8.92482e-06
9.19925e-06
9.42394e-06
9.61797e-06
9.78562e-06
9.9266e-06
1.00415e-05
1.01353e-05
1.02173e-05
1.02922e-05
1.0363e-05
1.04298e-05
1.04941e-05
1.05565e-05
1.06206e-05
1.0671e-05
1.07354e-05
1.07473e-05
1.08186e-05
1.0793e-05
1.0894e-05
1.08943e-05
1.10843e-05
1.12339e-05
1.16977e-05
1.23317e-05
1.29442e-05
1.38769e-05
1.38554e-05
1.47199e-05
1.65288e-05
2.00314e-05
2.45898e-05
3.16464e-05
4.81156e-05
7.92191e-05
0.000102944
0.000110009
0.000114528
7.95249e-05
8.2163e-05
0.000110858
7.82569e-05
7.48545e-05
7.48574e-05
7.37732e-05
7.38731e-05
7.5029e-05
7.55866e-05
7.58058e-05
7.57947e-05
7.55299e-05
7.47926e-05
7.32338e-05
7.0755e-05
6.73721e-05
6.34628e-05
5.91421e-05
5.46531e-05
5.0511e-05
4.73547e-05
4.62039e-05
4.5848e-05
4.59024e-05
4.6345e-05
4.56453e-05
4.46553e-05
4.168e-05
3.65776e-05
3.212e-05
3.08994e-05
3.10172e-05
2.89768e-05
2.72104e-05
2.50872e-05
2.26204e-05
1.37132e-05
2.57901e-05
2.60139e-05
1.89184e-05
1.85353e-05
2.0081e-05
1.83969e-05
1.59474e-05
1.13085e-05
9.06523e-06
8.44867e-06
8.40119e-06
7.949e-06
7.56654e-06
6.7025e-06
6.48979e-06
6.2754e-06
6.49016e-06
6.68545e-06
6.97241e-06
7.20579e-06
7.4348e-06
7.62834e-06
7.80124e-06
7.95256e-06
8.08406e-06
8.19518e-06
8.28801e-06
8.37036e-06
8.44862e-06
8.52386e-06
8.59449e-06
8.66096e-06
8.72418e-06
8.78668e-06
8.84785e-06
8.91158e-06
8.95887e-06
9.02604e-06
9.06165e-06
9.14441e-06
9.22938e-06
9.34502e-06
9.57922e-06
9.82021e-06
1.04058e-05
1.07295e-05
1.15231e-05
1.14857e-05
1.23062e-05
1.39357e-05
1.6997e-05
2.11584e-05
2.85437e-05
4.44675e-05
6.4708e-05
9.11432e-05
0.000111824
0.00011422
7.89145e-05
7.86238e-05
0.000128147
7.26113e-05
6.17366e-05
5.96581e-05
5.69085e-05
5.43392e-05
5.41781e-05
5.63941e-05
5.79674e-05
5.87155e-05
5.86208e-05
5.71644e-05
5.52051e-05
5.27465e-05
5.03532e-05
4.77119e-05
4.55675e-05
4.43706e-05
4.3616e-05
4.34733e-05
4.38241e-05
4.47486e-05
4.56702e-05
4.70582e-05
4.8031e-05
4.81189e-05
4.76657e-05
4.57197e-05
3.70762e-05
2.72501e-05
2.641e-05
2.67237e-05
2.56147e-05
2.38204e-05
2.17987e-05
1.455e-05
3.16214e-05
2.95901e-05
1.74742e-05
1.43551e-05
1.42384e-05
1.34792e-05
1.24218e-05
9.25084e-06
7.94998e-06
7.76231e-06
7.75295e-06
7.25628e-06
6.50665e-06
5.79265e-06
5.5909e-06
5.51535e-06
5.64884e-06
5.7525e-06
5.91511e-06
6.05314e-06
6.19881e-06
6.33097e-06
6.45977e-06
6.58042e-06
6.69307e-06
6.7961e-06
6.88953e-06
6.97721e-06
7.06301e-06
7.14575e-06
7.22303e-06
7.29652e-06
7.37258e-06
7.45791e-06
7.53538e-06
7.62005e-06
7.68379e-06
7.7639e-06
7.80835e-06
7.91471e-06
7.98872e-06
8.12985e-06
8.29757e-06
8.4736e-06
8.89028e-06
9.08885e-06
9.71706e-06
9.70449e-06
1.03291e-05
1.18156e-05
1.46641e-05
1.87872e-05
2.56341e-05
3.70872e-05
5.36464e-05
7.5072e-05
9.01052e-05
0.000102008
8.42778e-05
8.09286e-05
0.00013124
6.88044e-05
5.61296e-05
5.95641e-05
5.61631e-05
5.35233e-05
5.11679e-05
4.97533e-05
4.8817e-05
4.85977e-05
4.84638e-05
4.80146e-05
4.70052e-05
4.57186e-05
4.44791e-05
4.38186e-05
4.38041e-05
4.45136e-05
4.52937e-05
4.62202e-05
4.72319e-05
4.81971e-05
4.89691e-05
4.95965e-05
4.97668e-05
4.9599e-05
4.88365e-05
4.72558e-05
4.45231e-05
3.5032e-05
2.40006e-05
2.41334e-05
2.46692e-05
2.38844e-05
2.29596e-05
1.67024e-05
3.68005e-05
3.24731e-05
2.51892e-05
1.37954e-05
1.11292e-05
1.03616e-05
9.42331e-06
7.59418e-06
7.13925e-06
7.26071e-06
7.47378e-06
7.04191e-06
6.30977e-06
5.51466e-06
5.3482e-06
5.24339e-06
5.35162e-06
5.42049e-06
5.50708e-06
5.56628e-06
5.62663e-06
5.6759e-06
5.72783e-06
5.78181e-06
5.84057e-06
5.90361e-06
5.97043e-06
6.03789e-06
6.10686e-06
6.17742e-06
6.24783e-06
6.31829e-06
6.38856e-06
6.46135e-06
6.53105e-06
6.60863e-06
6.67486e-06
6.74503e-06
6.80141e-06
6.88951e-06
6.9886e-06
7.09105e-06
7.27891e-06
7.35937e-06
7.6968e-06
7.75439e-06
8.21282e-06
8.28914e-06
8.71366e-06
9.96789e-06
1.24995e-05
1.6992e-05
2.21305e-05
3.04988e-05
4.31198e-05
6.15769e-05
7.59392e-05
9.56648e-05
9.73624e-05
9.30768e-05
0.000140745
6.90728e-05
5.77381e-05
6.40163e-05
6.64585e-05
6.27508e-05
5.9194e-05
5.69506e-05
5.51718e-05
5.37864e-05
5.28884e-05
5.21335e-05
5.14242e-05
5.07673e-05
5.02344e-05
5.00661e-05
5.00632e-05
5.02893e-05
5.05098e-05
5.07238e-05
5.08627e-05
5.07567e-05
5.05337e-05
5.0129e-05
4.99644e-05
4.9527e-05
4.85317e-05
4.69407e-05
4.47311e-05
4.21378e-05
3.31973e-05
2.23895e-05
2.18877e-05
2.21146e-05
2.26492e-05
1.8301e-05
3.40608e-05
2.57681e-05
2.3669e-05
1.63217e-05
1.03909e-05
9.32825e-06
7.15695e-06
6.2089e-06
6.88245e-06
7.04783e-06
7.16799e-06
6.50143e-06
5.85035e-06
5.22893e-06
5.07111e-06
4.97712e-06
5.06405e-06
5.10969e-06
5.178e-06
5.21962e-06
5.26015e-06
5.28949e-06
5.32033e-06
5.35255e-06
5.37977e-06
5.39935e-06
5.42105e-06
5.44623e-06
5.47558e-06
5.50882e-06
5.54471e-06
5.58315e-06
5.62322e-06
5.66978e-06
5.72119e-06
5.78399e-06
5.84616e-06
5.89906e-06
5.96096e-06
6.02803e-06
6.14035e-06
6.21661e-06
6.40783e-06
6.44087e-06
6.70421e-06
6.69565e-06
6.99598e-06
7.1283e-06
7.43822e-06
8.24969e-06
1.03165e-05
1.48127e-05
1.86488e-05
2.75983e-05
3.74126e-05
4.95179e-05
7.0093e-05
9.19549e-05
0.000102668
0.000100742
0.000140722
7.33306e-05
7.65257e-05
6.98919e-05
6.84763e-05
6.45568e-05
6.15947e-05
5.95896e-05
5.82666e-05
5.74307e-05
5.67816e-05
5.61749e-05
5.55805e-05
5.50806e-05
5.46069e-05
5.41942e-05
5.37998e-05
5.34408e-05
5.30089e-05
5.24353e-05
5.16989e-05
5.07432e-05
4.96704e-05
4.86856e-05
4.79951e-05
4.75102e-05
4.65094e-05
4.50334e-05
4.30866e-05
4.07741e-05
3.85093e-05
3.14473e-05
2.24566e-05
1.8738e-05
2.15887e-05
1.90632e-05
3.5454e-05
2.75707e-05
2.51378e-05
1.76329e-05
1.69425e-05
1.38542e-05
9.41045e-06
6.10548e-06
6.04649e-06
5.94106e-06
5.82622e-06
5.22905e-06
4.82057e-06
4.55817e-06
4.50447e-06
4.45299e-06
4.49852e-06
4.51937e-06
4.56285e-06
4.58744e-06
4.61294e-06
4.63217e-06
4.65277e-06
4.67435e-06
4.69719e-06
4.72434e-06
4.75397e-06
4.78731e-06
4.82488e-06
4.86491e-06
4.90636e-06
4.94897e-06
4.99373e-06
5.04377e-06
5.09748e-06
5.15562e-06
5.21501e-06
5.26368e-06
5.33743e-06
5.40082e-06
5.52838e-06
5.59681e-06
5.7809e-06
5.79721e-06
6.01601e-06
5.95987e-06
6.16463e-06
6.26047e-06
6.48514e-06
7.03611e-06
8.57788e-06
1.18854e-05
1.59803e-05
2.3978e-05
3.451e-05
4.47688e-05
6.99706e-05
9.19447e-05
0.000112673
0.00010856
0.000148383
8.6031e-05
8.47196e-05
7.12832e-05
6.72393e-05
6.50396e-05
6.29326e-05
6.13385e-05
6.00996e-05
5.91054e-05
5.82525e-05
5.75044e-05
5.67838e-05
5.60403e-05
5.52703e-05
5.45246e-05
5.3751e-05
5.2972e-05
5.20975e-05
5.10926e-05
4.99398e-05
4.8615e-05
4.72416e-05
4.59374e-05
4.48291e-05
4.37597e-05
4.28661e-05
4.11052e-05
3.93237e-05
3.72289e-05
3.53903e-05
3.3562e-05
2.94884e-05
2.62486e-05
2.42698e-05
1.9306e-05
3.46603e-05
3.29016e-05
3.10606e-05
2.77993e-05
2.5333e-05
2.12899e-05
1.50381e-05
7.19225e-06
4.67893e-06
4.33659e-06
4.18622e-06
3.93033e-06
3.75861e-06
3.6559e-06
3.6518e-06
3.61903e-06
3.6353e-06
3.64085e-06
3.66207e-06
3.67518e-06
3.69187e-06
3.70684e-06
3.72298e-06
3.73898e-06
3.7571e-06
3.77829e-06
3.80116e-06
3.8268e-06
3.85565e-06
3.88652e-06
3.91933e-06
3.9525e-06
3.98657e-06
4.02298e-06
4.06029e-06
4.09878e-06
4.13845e-06
4.1723e-06
4.22803e-06
4.27223e-06
4.37382e-06
4.42114e-06
4.57577e-06
4.57383e-06
4.73286e-06
4.6861e-06
4.81093e-06
4.92825e-06
5.16332e-06
5.87464e-06
7.38243e-06
9.52143e-06
1.12113e-05
1.54043e-05
2.33205e-05
3.17846e-05
4.59808e-05
5.8605e-05
8.71423e-05
0.000101911
0.000156083
0.000117494
0.000101275
8.56804e-05
7.6374e-05
7.00898e-05
6.53386e-05
6.18581e-05
5.92991e-05
5.74167e-05
5.59291e-05
5.47268e-05
5.36562e-05
5.26822e-05
5.17173e-05
5.07748e-05
4.98087e-05
4.88263e-05
4.77784e-05
4.66326e-05
4.53769e-05
4.3945e-05
4.24738e-05
4.09643e-05
3.95444e-05
3.80828e-05
3.65063e-05
3.44002e-05
3.22975e-05
3.07829e-05
2.82733e-05
2.70301e-05
2.54929e-05
2.39369e-05
2.22719e-05
1.83891e-05
1.47599e-05
1.22261e-05
1.09921e-05
1.0432e-05
9.69717e-06
9.54124e-06
9.54567e-06
1.01297e-05
1.07116e-05
1.20619e-05
1.25216e-05
1.30759e-05
1.2978e-05
1.28865e-05
1.23578e-05
1.20627e-05
1.16872e-05
1.14801e-05
1.12876e-05
1.11951e-05
1.11496e-05
1.11467e-05
1.11642e-05
1.11994e-05
1.12469e-05
1.12967e-05
1.13412e-05
1.13825e-05
1.14243e-05
1.14668e-05
1.15129e-05
1.15471e-05
1.16029e-05
1.161e-05
1.16951e-05
1.16649e-05
1.18016e-05
1.17255e-05
1.19587e-05
1.18573e-05
1.22596e-05
1.2135e-05
1.27186e-05
1.25136e-05
1.27315e-05
1.20887e-05
1.10974e-05
1.02207e-05
9.86146e-06
1.20146e-05
1.36805e-05
1.70078e-05
2.07761e-05
2.62475e-05
3.95962e-05
4.72628e-05
5.96826e-05
7.1399e-05
8.36404e-05
9.92953e-05
0.000128066
0.000107532
0.000101766
9.51912e-05
8.88773e-05
8.43247e-05
8.07307e-05
7.75473e-05
7.44981e-05
7.14986e-05
6.8518e-05
6.55314e-05
6.24949e-05
5.93667e-05
5.61996e-05
5.29428e-05
4.9599e-05
4.61978e-05
4.29478e-05
4.00264e-05
3.74474e-05
3.53068e-05
3.3245e-05
3.20089e-05
3.19176e-05
3.22157e-05
3.26034e-05
3.26774e-05
3.24977e-05
3.17065e-05
3.07422e-05
2.92143e-05
2.7758e-05
2.52248e-05
2.30204e-05
1.91952e-05
5.73677e-05
4.74562e-05
4.13338e-05
4.03722e-05
3.97982e-05
4.03384e-05
3.9908e-05
3.99726e-05
4.01837e-05
4.13236e-05
4.1533e-05
4.19086e-05
4.15751e-05
4.08388e-05
4.00589e-05
3.95276e-05
3.92352e-05
3.92784e-05
3.93096e-05
3.95202e-05
3.98379e-05
4.01653e-05
4.04441e-05
4.06624e-05
4.0841e-05
4.09929e-05
4.11241e-05
4.12383e-05
4.13384e-05
4.14289e-05
4.15152e-05
4.15797e-05
4.16558e-05
4.16629e-05
4.17116e-05
4.16262e-05
4.16652e-05
4.14679e-05
4.15071e-05
4.1231e-05
4.13906e-05
4.12532e-05
4.19057e-05
4.24291e-05
4.36102e-05
4.41301e-05
4.35876e-05
4.22159e-05
4.24913e-05
4.85337e-05
5.14383e-05
6.33539e-05
7.63798e-05
9.34874e-05
0.000151749
0.000211475
0.00030762
0.000411138
0.00073036
0.000728969
2.56969e-05
3.42372e-05
8.71542e-05
8.96446e-05
9.32844e-05
9.3652e-05
9.21841e-05
9.07486e-05
9.09159e-05
9.1158e-05
9.0381e-05
8.7986e-05
8.4594e-05
8.0661e-05
7.66931e-05
7.15591e-05
6.59788e-05
6.13372e-05
5.90925e-05
5.77616e-05
5.89766e-05
6.1372e-05
6.53051e-05
7.41375e-05
7.63181e-05
7.66107e-05
7.50013e-05
7.17952e-05
6.95529e-05
6.82768e-05
6.51043e-05
5.69141e-05
4.95091e-05
3.74371e-05
3.11616e-05
2.05706e-05
6.23002e-05
5.42659e-05
4.9916e-05
4.86569e-05
4.78307e-05
4.7046e-05
4.45133e-05
4.3694e-05
4.34719e-05
4.3671e-05
4.45291e-05
4.35014e-05
4.30593e-05
4.1794e-05
4.11041e-05
4.05403e-05
4.06018e-05
4.09899e-05
4.15579e-05
4.2143e-05
4.27876e-05
4.33432e-05
4.37704e-05
4.40546e-05
4.42457e-05
4.43886e-05
4.45032e-05
4.45955e-05
4.46669e-05
4.47223e-05
4.47689e-05
4.48026e-05
4.48345e-05
4.4831e-05
4.48001e-05
4.46969e-05
4.45726e-05
4.43547e-05
4.41098e-05
4.38639e-05
4.37147e-05
4.38117e-05
4.43433e-05
4.56238e-05
4.71763e-05
4.90629e-05
5.08658e-05
5.22292e-05
5.55868e-05
5.84842e-05
6.44259e-05
7.61072e-05
9.04508e-05
0.000107849
0.000150301
0.000200002
0.000316302
0.000378483
0.000611934
0.000522895
2.27827e-05
9.01436e-05
0.000157445
0.000127828
0.000107948
0.000101066
0.000100105
0.00010403
0.000107059
0.000108598
0.000108518
0.000107467
0.000100025
9.28342e-05
8.82544e-05
8.4715e-05
7.88507e-05
7.61202e-05
7.88572e-05
9.26973e-05
0.000103896
0.000104924
9.66064e-05
8.70881e-05
7.65407e-05
6.60421e-05
5.98807e-05
5.88278e-05
6.15967e-05
6.68627e-05
6.95007e-05
7.0479e-05
6.54597e-05
5.45335e-05
4.378e-05
2.2621e-05
7.58195e-05
6.34449e-05
5.61163e-05
5.18931e-05
4.93643e-05
4.77346e-05
4.35257e-05
4.17207e-05
4.22353e-05
4.16211e-05
4.22423e-05
4.00023e-05
3.9585e-05
3.83671e-05
3.81538e-05
3.78375e-05
3.84468e-05
3.92528e-05
4.02659e-05
4.11314e-05
4.19903e-05
4.27015e-05
4.32338e-05
4.35713e-05
4.37814e-05
4.39292e-05
4.40374e-05
4.41148e-05
4.41665e-05
4.41974e-05
4.42184e-05
4.42407e-05
4.42511e-05
4.42464e-05
4.41817e-05
4.40806e-05
4.38706e-05
4.36463e-05
4.32409e-05
4.2965e-05
4.25723e-05
4.26329e-05
4.28022e-05
4.44625e-05
4.64087e-05
4.96676e-05
5.2278e-05
5.42082e-05
5.65725e-05
6.11999e-05
6.88502e-05
8.09672e-05
9.65169e-05
0.000112029
0.000135752
0.000191179
0.000304429
0.000318969
0.000365824
0.000256371
2.28716e-05
9.57987e-05
0.000136463
0.000102837
8.81952e-05
9.22901e-05
9.72983e-05
0.000108256
0.000118477
0.000116898
0.000110589
0.000105913
0.000103364
9.54416e-05
9.12033e-05
9.4939e-05
0.0001031
0.00011961
0.000126176
0.000124054
0.000111282
9.64197e-05
7.98991e-05
6.63197e-05
5.82505e-05
5.48496e-05
5.33368e-05
5.41709e-05
5.85575e-05
6.35791e-05
6.73898e-05
6.97119e-05
6.58372e-05
5.54593e-05
4.49576e-05
2.31081e-05
9.03467e-05
7.47543e-05
6.65351e-05
5.79419e-05
5.17087e-05
4.81017e-05
4.10992e-05
3.80206e-05
3.96591e-05
3.93734e-05
4.02917e-05
3.82039e-05
3.76467e-05
3.62021e-05
3.55859e-05
3.52792e-05
3.5457e-05
3.59969e-05
3.68906e-05
3.77681e-05
3.85719e-05
3.91785e-05
3.96057e-05
3.99297e-05
4.01695e-05
4.03295e-05
4.04379e-05
4.05076e-05
4.05476e-05
4.05634e-05
4.05628e-05
4.05891e-05
4.06052e-05
4.06291e-05
4.05521e-05
4.05115e-05
4.02192e-05
4.00948e-05
3.95542e-05
3.94756e-05
3.89957e-05
3.93588e-05
3.95755e-05
4.16508e-05
4.38927e-05
4.70742e-05
5.00156e-05
5.23514e-05
5.44037e-05
6.08677e-05
6.88482e-05
8.13045e-05
0.000100381
0.000119956
0.000157461
0.000219835
0.000303632
0.000305991
0.000115519
7.55143e-05
2.07436e-05
0.000100843
0.000141693
0.000109435
0.00011373
0.000101277
0.000107993
0.000110869
0.000107086
0.000102888
9.85965e-05
0.0001016
0.000105955
0.000111578
0.000125149
0.000138783
0.000144777
0.000143667
0.000131742
0.000117218
0.000103762
9.28762e-05
8.297e-05
7.2986e-05
6.41926e-05
5.92208e-05
5.45387e-05
5.17735e-05
5.42116e-05
5.93818e-05
6.32361e-05
6.53726e-05
6.26532e-05
5.33606e-05
4.40474e-05
2.33316e-05
0.000104216
8.36469e-05
7.44301e-05
6.43947e-05
5.72168e-05
5.27975e-05
4.39073e-05
3.93834e-05
3.87194e-05
3.82799e-05
3.91343e-05
3.73648e-05
3.67384e-05
3.4557e-05
3.38844e-05
3.2667e-05
3.3376e-05
3.42021e-05
3.55294e-05
3.64698e-05
3.71966e-05
3.76819e-05
3.80044e-05
3.82265e-05
3.83833e-05
3.84975e-05
3.85841e-05
3.86424e-05
3.86872e-05
3.87245e-05
3.87551e-05
3.87656e-05
3.87734e-05
3.87437e-05
3.87125e-05
3.85748e-05
3.84612e-05
3.81643e-05
3.79798e-05
3.76197e-05
3.74995e-05
3.74653e-05
3.7814e-05
3.92064e-05
4.08285e-05
4.35552e-05
4.59623e-05
4.80624e-05
5.09776e-05
5.68803e-05
6.75584e-05
7.93259e-05
0.000100681
0.000120358
0.000161244
0.000210992
0.000267457
0.000253417
3.83023e-05
3.70166e-05
2.76428e-05
0.000135484
0.000173154
0.000146276
0.000143148
0.000130667
0.000124464
0.000117223
0.000111681
0.000118908
0.000129999
0.000144446
0.000152919
0.000159199
0.000161979
0.000162308
0.000155102
0.000146483
0.000137595
0.000128653
0.000120179
0.000112376
0.00010493
9.62143e-05
8.75981e-05
8.32303e-05
7.40679e-05
6.75355e-05
6.14735e-05
5.70339e-05
5.72929e-05
5.77527e-05
5.62848e-05
4.84999e-05
3.96326e-05
2.25768e-05
0.000104866
8.58808e-05
7.87158e-05
6.69424e-05
5.79934e-05
5.28416e-05
4.65691e-05
4.0782e-05
3.80516e-05
3.72308e-05
3.77608e-05
3.3961e-05
3.30043e-05
2.97201e-05
2.85008e-05
2.72909e-05
2.76123e-05
2.8107e-05
2.91843e-05
3.01855e-05
3.12181e-05
3.20367e-05
3.26338e-05
3.30332e-05
3.32779e-05
3.34019e-05
3.3459e-05
3.34678e-05
3.34241e-05
3.33396e-05
3.32409e-05
3.3186e-05
3.31336e-05
3.31127e-05
3.2948e-05
3.29129e-05
3.24349e-05
3.24164e-05
3.1595e-05
3.17764e-05
3.09697e-05
3.17857e-05
3.19646e-05
3.42996e-05
3.72523e-05
4.00139e-05
4.35322e-05
4.34112e-05
4.38454e-05
5.42489e-05
6.64752e-05
7.66311e-05
9.45034e-05
9.87654e-05
0.000133617
0.000178431
0.000225983
0.000192208
2.07049e-05
2.82786e-05
3.86064e-05
0.000165568
0.000187122
0.000168042
0.000162979
0.000159016
0.000158323
0.000159503
0.000161526
0.000163702
0.00016488
0.000166651
0.000167281
0.000167068
0.000162529
0.00015469
0.000147856
0.000141342
0.000135255
0.000127393
0.000121726
0.000114492
0.000108535
0.000103084
9.86318e-05
9.37496e-05
9.3477e-05
8.83149e-05
8.67299e-05
8.47663e-05
8.30051e-05
7.67426e-05
7.43531e-05
6.28948e-05
3.99856e-05
2.2971e-05
0.000101495
8.56459e-05
8.17231e-05
7.00438e-05
5.70833e-05
5.09581e-05
4.67549e-05
4.10274e-05
3.6126e-05
3.47093e-05
3.38379e-05
3.10388e-05
2.9554e-05
2.56174e-05
2.39776e-05
2.21942e-05
2.28186e-05
2.33962e-05
2.44776e-05
2.53097e-05
2.61192e-05
2.67267e-05
2.71738e-05
2.74622e-05
2.76251e-05
2.76845e-05
2.76825e-05
2.76283e-05
2.75244e-05
2.73758e-05
2.71745e-05
2.69548e-05
2.67392e-05
2.65931e-05
2.6381e-05
2.63059e-05
2.58721e-05
2.58327e-05
2.51496e-05
2.52057e-05
2.45535e-05
2.49465e-05
2.4925e-05
2.61604e-05
2.7877e-05
2.96967e-05
3.2589e-05
3.19156e-05
3.30514e-05
4.09529e-05
5.70558e-05
7.02517e-05
8.46338e-05
9.18246e-05
0.000124921
0.000150247
0.000169771
0.000148782
2.90637e-05
3.75213e-05
4.46196e-05
0.000178918
0.000197958
0.000177364
0.000173379
0.000168353
0.000166967
0.000167055
0.000169661
0.000171824
0.000172005
0.000170871
0.000169803
0.000166142
0.000162454
0.000160102
0.00015587
0.000152143
0.000149148
0.00014565
0.000144144
0.000137648
0.000130944
0.000123053
0.00011304
0.000103838
9.96489e-05
9.64318e-05
9.02314e-05
8.74257e-05
8.27795e-05
7.90965e-05
7.447e-05
6.41703e-05
5.05969e-05
3.49169e-05
7.92433e-05
9.15532e-05
8.11036e-05
6.96507e-05
5.32279e-05
4.63181e-05
3.86133e-05
3.54045e-05
3.45636e-05
3.24028e-05
3.06206e-05
2.64709e-05
2.41776e-05
1.95835e-05
1.79345e-05
1.66628e-05
1.68591e-05
1.70905e-05
1.76326e-05
1.80844e-05
1.8469e-05
1.85675e-05
1.89075e-05
1.91385e-05
1.92676e-05
1.92915e-05
1.92588e-05
1.92329e-05
1.91984e-05
1.91378e-05
1.90505e-05
1.89453e-05
1.88228e-05
1.87535e-05
1.86101e-05
1.8605e-05
1.82869e-05
1.83786e-05
1.78271e-05
1.81348e-05
1.75717e-05
1.8276e-05
1.8036e-05
1.92515e-05
2.01551e-05
2.18024e-05
2.37824e-05
2.28845e-05
2.27089e-05
2.90162e-05
4.0941e-05
5.56578e-05
7.192e-05
8.93064e-05
0.000144619
0.000184969
0.00021501
0.000215016
2.46944e-05
2.86837e-05
3.46732e-05
0.000165461
0.000202667
0.00020092
0.000201533
0.000193893
0.00018911
0.000184019
0.000179418
0.000175849
0.000170243
0.00016249
0.000155179
0.000148541
0.000141422
0.000137054
0.000133297
0.000130594
0.00012797
0.000125906
0.00012541
0.000126882
0.000131741
0.000128295
0.000120999
0.000104342
8.52471e-05
7.31598e-05
6.74711e-05
5.44438e-05
4.63492e-05
4.41492e-05
4.5329e-05
4.10321e-05
2.94526e-05
1.95573e-05
6.84669e-05
9.72305e-05
8.07554e-05
7.2378e-05
5.64604e-05
4.47669e-05
3.5205e-05
3.06781e-05
2.84406e-05
2.75171e-05
2.67106e-05
2.42312e-05
2.09152e-05
1.75677e-05
1.54621e-05
1.45405e-05
1.4774e-05
1.48916e-05
1.51793e-05
1.53948e-05
1.56067e-05
1.57445e-05
1.59027e-05
1.61955e-05
1.64767e-05
1.66791e-05
1.66486e-05
1.66058e-05
1.65753e-05
1.65357e-05
1.64463e-05
1.6304e-05
1.61512e-05
1.60619e-05
1.59902e-05
1.59835e-05
1.58719e-05
1.58447e-05
1.56022e-05
1.56601e-05
1.54804e-05
1.56234e-05
1.56175e-05
1.56414e-05
1.58555e-05
1.64675e-05
1.77121e-05
1.76385e-05
1.87997e-05