/*--------------------------------*- C++ -*----------------------------------*\
| =========                 |                                                 |
| \\      /  F ield         | OpenFOAM: The Open Source CFD Toolbox           |
|  \\    /   O peration     | Version:  2.3.0                                 |
|   \\  /    A nd           | Web:      www.OpenFOAM.org                      |
|    \\/     M anipulation  |                                                 |
\*---------------------------------------------------------------------------*/
FoamFile
{
    version     2.0;
    format      ascii;
    class       surfaceScalarField;
    location    "21";
    object      phi;
}
// * * * * * * * * * * * * * * * * * * * * * * * * * * * * * * * * * * * * * //

dimensions      [0 3 -1 0 0 0 0];

internalField   nonuniform List<scalar> 
16448
(
-1.22945e-06
-2.03152e-06
7.04785e-07
9.5001e-09
-2.06229e-06
8.23333e-07
3.53014e-07
-1.39231e-06
1.04879e-06
6.22871e-07
-1.28243e-06
1.01257e-06
5.89808e-07
-8.31909e-07
8.64962e-07
5.62963e-07
-6.96538e-07
7.23371e-07
3.9549e-07
-3.68871e-07
5.36334e-07
2.01872e-07
-2.73208e-07
4.66816e-07
-4.51167e-08
-1.90269e-07
4.37248e-07
-2.70024e-07
-1.64651e-07
3.8955e-07
-4.26207e-07
-1.97963e-07
3.54138e-07
-4.47195e-07
-2.69617e-07
2.90598e-07
-4.0313e-07
-3.25266e-07
2.81193e-07
-2.94744e-07
-3.76113e-07
2.67718e-07
-2.07403e-07
-3.9907e-07
3.1172e-07
-1.2219e-07
-4.24985e-07
3.39761e-07
-7.24011e-08
-4.34964e-07
3.85166e-07
-3.36559e-08
-4.49158e-07
4.10402e-07
-1.16999e-08
-4.58677e-07
4.36711e-07
2.44708e-09
-4.6441e-07
4.50252e-07
9.47152e-09
-4.6611e-07
4.59075e-07
1.21293e-08
-4.64542e-07
4.61873e-07
1.1956e-08
-4.61041e-07
4.61204e-07
1.03967e-08
-4.5621e-07
4.57758e-07
8.38511e-09
-4.50411e-07
4.52411e-07
6.34901e-09
-4.43974e-07
4.45998e-07
4.17665e-09
-4.36943e-07
4.39104e-07
1.31947e-09
-4.2919e-07
4.32034e-07
-2.49173e-09
-4.20724e-07
4.24523e-07
-6.14549e-09
-4.12666e-07
4.16307e-07
-7.82955e-09
-4.04557e-07
4.06228e-07
-5.33619e-09
-3.95461e-07
3.92955e-07
5.25388e-09
-3.85547e-07
3.74944e-07
2.94978e-08
-3.75379e-07
3.51121e-07
7.46253e-08
-3.65903e-07
3.20762e-07
1.47711e-07
-3.58329e-07
2.85229e-07
2.53476e-07
-3.53864e-07
2.48085e-07
3.86699e-07
-3.52796e-07
2.19558e-07
5.34431e-07
-3.55103e-07
2.07355e-07
6.72192e-07
-3.59583e-07
2.21805e-07
7.55064e-07
-3.62204e-07
2.79317e-07
7.25793e-07
-3.72207e-07
4.01461e-07
5.1304e-07
-3.92238e-07
6.04974e-07
1.03367e-07
-4.12088e-07
8.21744e-07
-2.96916e-07
-6.00967e-07
1.00123e-06
-2.96837e-07
-1.25903e-06
1.25893e-06
4.24825e-07
-2.16714e-06
1.44547e-06
1.31362e-06
-2.47241e-06
1.5836e-06
1.04849e-06
-1.43642e-06
1.70153e-06
-1.86731e-06
8.1773e-07
2.09805e-06
-5.73193e-06
1.68231e-06
2.1823e-06
-5.74277e-06
-1.64884e-06
1.65968e-06
4.05648e-07
-8.12419e-06
1.97576e-06
7.37514e-06
-1.07929e-05
3.82342e-06
1.11007e-05
-8.56422e-06
4.83863e-06
1.48005e-05
-8.54266e-06
4.84276e-06
9.46762e-06
-1.76491e-06
7.09777e-06
8.05597e-06
-2.8531e-07
1.69682e-06
-1.06442e-05
1.2029e-05
6.671e-06
3.87424e-07
-5.58951e-06
-5.44231e-06
2.53511e-05
-2.39767e-05
-9.87025e-07
3.30893e-05
-1.43276e-05
6.58943e-06
3.47585e-05
-9.44178e-06
7.77253e-06
3.71635e-05
-9.00105e-06
6.5961e-06
3.93757e-05
-7.78462e-06
5.57244e-06
4.04647e-05
-5.85456e-06
4.76547e-06
4.0691e-05
-4.47041e-06
4.24414e-06
4.04303e-05
-3.75252e-06
4.01322e-06
4.01164e-05
-3.83972e-06
4.1536e-06
3.95563e-05
-3.88573e-06
4.44581e-06
3.87598e-05
-3.53506e-06
4.33158e-06
3.81611e-05
-3.051e-06
3.64974e-06
3.785e-05
-2.16154e-06
2.4726e-06
3.74521e-05
-9.45055e-07
1.34291e-06
3.69149e-05
-3.28105e-07
8.65361e-07
3.61806e-05
-1.00831e-07
8.35087e-07
3.49792e-05
2.29456e-07
9.71991e-07
3.31943e-05
1.84638e-07
1.60025e-06
3.0943e-05
7.24341e-07
1.52689e-06
2.87412e-05
7.73769e-07
1.42806e-06
2.64605e-05
9.10018e-07
1.37072e-06
2.43872e-05
2.02188e-06
5.1385e-08
2.14235e-05
2.45763e-06
5.06048e-07
1.57796e-05
3.56022e-06
2.08373e-06
8.27801e-06
5.14466e-06
2.3569e-06
1.66819e-06
4.83207e-06
1.77775e-06
-2.43577e-06
3.35772e-06
7.46238e-07
-4.60608e-06
2.14394e-06
2.63635e-08
-5.52812e-06
1.35922e-06
-4.37178e-07
-6.17636e-06
8.57456e-07
-2.09213e-07
-7.10344e-06
2.01899e-07
7.25185e-07
-7.52796e-06
-9.72423e-07
1.39694e-06
-7.00153e-06
-2.29162e-06
1.76519e-06
-5.67052e-06
-3.09098e-06
1.75997e-06
-3.48324e-06
-3.49822e-06
1.31095e-06
-4.28901e-06
8.05773e-07
-1.99087e-06
-3.09158e-06
6.01361e-08
-9.74123e-07
-3.18868e-06
1.09644e-07
-5.66342e-07
-2.27256e-06
4.72462e-07
-1.18586e-07
-2.04586e-06
3.15658e-07
1.815e-07
-1.33003e-06
1.98021e-07
3.59018e-07
-9.6028e-07
8.6208e-08
2.56643e-07
-2.68612e-07
2.10037e-09
1.56883e-09
-6.34905e-08
4.5342e-08
-2.89979e-07
4.55961e-08
5.56705e-08
-4.9791e-07
-2.86747e-09
4.61342e-08
-6.3036e-07
-8.77476e-08
2.22225e-08
-6.33285e-07
-2.22077e-07
-4.46278e-08
-5.85085e-07
-3.0839e-07
-6.50901e-08
-4.77543e-07
-3.95967e-07
-8.77042e-08
-3.7161e-07
-4.36403e-07
-6.86173e-08
-2.60413e-07
-4.81321e-07
-5.4877e-08
-1.86035e-07
-4.88486e-07
-2.08733e-08
-1.2477e-07
-5.08e-07
-2.44128e-09
-8.73238e-08
-5.10145e-07
1.40036e-08
-5.95471e-08
-5.13529e-07
2.13244e-08
-4.44187e-08
-5.07982e-07
2.67249e-08
-3.54006e-08
-5.01317e-07
2.77376e-08
-3.16096e-08
-4.91668e-07
2.68157e-08
-3.05221e-08
-4.81196e-07
2.38781e-08
-3.10687e-08
-4.69946e-07
2.00606e-08
-3.23861e-08
-4.58403e-07
1.57244e-08
-3.4224e-08
-4.46328e-07
1.12002e-08
-3.68284e-08
-4.33302e-07
6.69441e-09
-4.04197e-08
-4.19289e-07
2.13334e-09
-4.29969e-08
-4.05289e-07
-4.82395e-09
-4.16949e-08
-3.913e-07
-1.45833e-08
-3.37883e-08
-3.7707e-07
-2.63232e-08
-1.46478e-08
-3.63403e-07
-4.13104e-08
2.14232e-08
-3.51543e-07
-5.9933e-08
8.0056e-08
-3.43305e-07
-8.12589e-08
1.65682e-07
-3.40997e-07
-1.02986e-07
2.7887e-07
-3.45107e-07
-1.21975e-07
4.12293e-07
-3.54903e-07
-1.31346e-07
5.52254e-07
-3.70051e-07
-1.25045e-07
6.72925e-07
-3.88563e-07
-9.17234e-08
7.23689e-07
-4.02e-07
-1.10024e-08
6.47697e-07
-4.04596e-07
1.08345e-07
3.88305e-07
-4.25774e-07
2.92892e-07
-5.73618e-08
-4.46993e-07
4.80536e-07
-5.15697e-07
-7.80878e-07
6.38211e-07
-8.34409e-07
-1.80031e-06
8.59961e-07
-1.14992e-06
-3.06424e-06
1.21257e-06
-1.80633e-06
-3.27725e-06
1.46123e-06
-3.75948e-06
-1.0939e-06
1.61061e-06
-6.01311e-06
1.43331e-06
1.63803e-06
-6.35657e-06
1.22941e-06
7.96336e-07
-1.56291e-06
-5.02793e-06
-1.41459e-06
5.77119e-06
-1.31148e-05
-2.34349e-06
9.68702e-06
-1.67306e-05
2.02183e-06
1.24785e-05
-1.34286e-05
2.07279e-06
1.7839e-05
-1.36727e-05
-2.30432e-07
1.74057e-05
-3.20445e-06
1.87281e-06
1.67755e-05
6.08653e-08
2.83818e-07
-5.17523e-06
1.78044e-05
1.61749e-05
3.29578e-07
-5.48159e-06
-5.61298e-06
1.70476e-05
-3.21369e-05
-8.55776e-06
1.92118e-05
-2.26434e-05
6.15153e-06
2.02564e-05
-1.61549e-05
5.66857e-06
2.23195e-05
-1.2992e-05
1.92777e-06
2.37426e-05
-9.53679e-06
3.29048e-07
2.42561e-05
-6.09404e-06
-2.73988e-07
2.4019e-05
-4.22618e-06
-7.07013e-09
2.2708e-05
-3.39887e-06
9.57251e-07
2.0442e-05
-3.99328e-06
2.41966e-06
1.8229e-05
-4.95359e-06
3.28079e-06
1.7288e-05
-5.50394e-06
2.90993e-06
1.80051e-05
-5.33823e-06
1.57005e-06
2.01801e-05
-4.16854e-06
-1.67979e-07
2.32634e-05
-1.9352e-06
-2.09312e-06
2.59259e-05
1.2579e-07
-3.1164e-06
2.75876e-05
1.03889e-06
-2.80148e-06
2.77272e-05
2.12451e-06
-2.03458e-06
2.60742e-05
2.7868e-06
-9.4923e-07
2.43076e-05
2.98161e-06
-4.90617e-07
2.2354e-05
3.22208e-06
-4.94716e-07
2.08171e-05
4.32906e-06
-1.8822e-06
2.00846e-05
5.78963e-06
-3.03521e-06
1.80066e-05
6.51627e-06
-1.98066e-06
1.27721e-05
8.723e-06
7.17674e-08
5.6375e-06
1.07164e-05
1.56285e-06
-3.27519e-07
9.24873e-06
1.54836e-06
-4.0699e-06
5.7788e-06
1.3213e-06
-6.27513e-06
3.02006e-06
1.32912e-06
-6.91189e-06
1.01636e-06
9.79618e-07
-7.10319e-06
-3.90208e-07
1.43896e-06
-7.06058e-06
-2.01157e-06
2.17085e-06
-6.81096e-06
-3.99664e-06
2.77459e-06
-6.02419e-06
-5.67424e-06
2.59585e-06
-4.98873e-06
-6.32936e-06
2.20292e-06
-3.45868e-06
-6.84436e-06
1.81609e-06
-7.91288e-06
1.6519e-07
-2.75276e-06
-3.6876e-06
-1.69736e-07
-1.79869e-06
-3.87712e-06
-2.6564e-07
-1.44161e-06
-2.86564e-06
2.35999e-07
-8.9405e-07
-2.73485e-06
1.41419e-07
-4.23837e-07
-1.88346e-06
8.32031e-08
-7.88285e-08
-1.28475e-06
-2.05538e-08
1.42536e-08
-1.82147e-07
-1.79562e-07
-1.37996e-07
2.15697e-07
-1.26952e-07
-3.76674e-07
4.19103e-07
-1.34841e-07
-5.31668e-07
2.80846e-07
-1.28731e-07
-6.18207e-07
1.47189e-07
-1.4841e-07
-6.39361e-07
-1.35504e-09
-1.99581e-07
-6.30464e-07
-8.39935e-08
-2.33308e-07
-5.79846e-07
-1.82584e-07
-2.64015e-07
-4.97984e-07
-2.4712e-07
-2.71159e-07
-3.9719e-07
-3.0644e-07
-2.75691e-07
-3.14489e-07
-3.11693e-07
-2.59509e-07
-2.37214e-07
-3.33181e-07
-2.5211e-07
-1.85563e-07
-3.22611e-07
-2.39202e-07
-1.45492e-07
-3.20082e-07
-2.33537e-07
-1.2067e-07
-3.05209e-07
-2.27613e-07
-1.04486e-07
-2.92036e-07
-2.25483e-07
-9.58793e-08
-2.75525e-07
-2.2477e-07
-9.18526e-08
-2.59445e-07
-2.25797e-07
-9.10567e-08
-2.43439e-07
-2.27323e-07
-9.19086e-08
-2.281e-07
-2.29472e-07
-9.30103e-08
-2.13147e-07
-2.321e-07
-9.29959e-08
-1.98122e-07
-2.35217e-07
-9.03345e-08
-1.82915e-07
-2.39058e-07
-8.38283e-08
-1.67954e-07
-2.43864e-07
-7.16951e-08
-1.53725e-07
-2.49732e-07
-5.14765e-08
-1.40745e-07
-2.56568e-07
-2.05198e-08
-1.30177e-07
-2.64208e-07
2.30689e-08
-1.23509e-07
-2.71649e-07
7.93852e-08
-1.22172e-07
-2.77475e-07
1.4672e-07
-1.27628e-07
-2.80732e-07
2.19427e-07
-1.40141e-07
-2.77702e-07
2.88733e-07
-1.5826e-07
-2.65978e-07
3.41337e-07
-1.80832e-07
-2.41852e-07
3.58637e-07
-2.09109e-07
-1.96785e-07
3.24423e-07
-2.45557e-07
-1.22259e-07
2.09238e-07
-2.91273e-07
1.82936e-09
1.79982e-08
-3.69707e-07
1.35141e-07
-2.11714e-07
-4.90098e-07
2.72784e-07
-5.41223e-07
-8.42205e-07
3.90803e-07
-1.37718e-06
-1.62024e-06
6.55844e-07
-3.11032e-06
-2.40259e-06
1.07147e-06
-5.72004e-06
-2.14159e-06
1.47404e-06
-8.61126e-06
2.43397e-07
1.5539e-06
-9.84606e-06
1.56111e-06
1.10699e-06
-5.83202e-06
-2.05438e-06
-7.30265e-07
2.26257e-06
-1.13172e-05
-1.80535e-06
6.66489e-06
-1.76977e-05
1.80526e-07
3.43729e-06
-1.83042e-05
4.80112e-06
6.38327e-06
-1.80254e-05
1.65081e-06
1.62392e-05
-1.99921e-05
-3.53655e-06
1.56359e-05
1.56081e-06
-4.16197e-06
1.85576e-05
1.39891e-06
-4.25992e-06
-5.16545e-06
1.54108e-05
2.6116e-05
5.37266e-07
-7.1978e-06
-3.98681e-06
1.44107e-05
-3.43333e-05
-1.16771e-05
1.37082e-05
-2.19312e-05
-9.65034e-09
1.45707e-05
-1.57324e-05
-1.28498e-06
1.63237e-05
-1.09632e-05
-3.78176e-06
1.65589e-05
-7.17562e-06
-2.59637e-06
1.71588e-05
-4.20055e-06
-2.49345e-06
1.67398e-05
-3.0019e-06
-8.05213e-07
1.47779e-05
-3.02954e-06
1.59258e-06
1.2532e-05
-4.49605e-06
2.74865e-06
1.15377e-05
-6.09738e-06
2.13807e-06
1.2167e-05
-6.85206e-06
7.18851e-07
1.40977e-05
-6.21589e-06
-1.05312e-06
1.68272e-05
-4.20308e-06
-2.69488e-06
2.00929e-05
-1.47289e-06
-3.72805e-06
2.30828e-05
1.10894e-06
-3.97304e-06
2.45417e-05
2.85535e-06
-3.27533e-06
2.39309e-05
4.4377e-06
-1.7024e-06
2.04631e-05
5.65691e-06
5.9769e-07
1.49962e-05
6.03315e-06
2.41537e-06
1.11159e-05
4.91304e-06
2.18927e-06
9.12511e-06
5.33392e-06
9.85949e-07
7.93367e-06
7.49082e-06
-5.09757e-07
5.466e-06
1.01273e-05
-1.1434e-06
4.8785e-07
1.27456e-05
9.55576e-07
-4.2085e-06
1.33557e-05
2.05699e-06
-7.32405e-06
1.07208e-05
1.64348e-06
-1.02805e-05
6.32164e-06
2.41362e-06
-1.23315e-05
2.74801e-06
2.32309e-06
-1.20518e-05
-3.58809e-07
1.09541e-06
-1.07431e-05
-2.44053e-06
7.4162e-07
-9.26145e-06
-4.28674e-06
7.93543e-07
-7.91269e-06
-6.26287e-06
9.17484e-07
-6.60225e-06
-7.59992e-06
6.15242e-07
-5.29524e-06
-8.0079e-06
3.71527e-07
-3.15975e-06
-8.59972e-06
-3.80125e-07
-9.50305e-06
-1.56959e-06
-3.40794e-06
-4.06879e-06
-2.13696e-07
-2.23526e-06
-4.36277e-06
-6.87034e-07
-2.01662e-06
-3.25385e-06
1.69569e-07
-1.46408e-06
-3.3971e-06
1.09691e-07
-9.43979e-07
-2.66431e-06
2.60738e-07
-4.33364e-07
-2.02746e-06
2.3208e-07
-9.47633e-08
-5.49549e-07
2.87863e-08
-2.15181e-08
1.21726e-07
2.0713e-08
-1.85766e-07
6.80306e-07
-9.6967e-08
-3.62314e-07
5.98981e-07
-1.41599e-07
-4.56024e-07
4.39703e-07
-1.98816e-07
-5.5767e-07
3.37687e-07
-2.37409e-07
-6.07359e-07
2.49137e-07
-2.83456e-07
-6.14996e-07
1.40047e-07
-3.15008e-07
-5.60003e-07
3.53542e-08
-3.37482e-07
-4.76732e-07
-3.69075e-08
-3.52819e-07
-3.89122e-07
-4.62439e-08
-3.53076e-07
-3.03106e-07
-6.2488e-08
-3.56725e-07
-2.3765e-07
-3.86004e-08
-3.49485e-07
-1.85113e-07
-2.61316e-08
-3.46504e-07
-1.50864e-07
1.36379e-09
-3.40841e-07
-1.27495e-07
2.16661e-08
-3.3709e-07
-1.14426e-07
4.49822e-08
-3.33596e-07
-1.08498e-07
6.64074e-08
-3.318e-07
-1.07373e-07
8.6526e-08
-3.31112e-07
-1.08768e-07
1.04878e-07
-3.31603e-07
-1.10524e-07
1.21677e-07
-3.3309e-07
-1.10322e-07
1.3716e-07
-3.35506e-07
-1.06102e-07
1.51563e-07
-3.38721e-07
-9.63186e-08
1.64722e-07
-3.42483e-07
-7.99951e-08
1.76506e-07
-3.4658e-07
-5.65839e-08
1.86489e-07
-3.5067e-07
-2.66409e-08
1.93478e-07
-3.53623e-07
8.19295e-09
1.95797e-07
-3.54165e-07
4.45943e-08
1.92066e-07
-3.50667e-07
7.77491e-08
1.81232e-07
-3.42042e-07
1.01817e-07
1.63104e-07
-3.27341e-07
1.08229e-07
1.40565e-07
-3.05266e-07
8.21028e-08
1.16718e-07
-2.71454e-07
8.45988e-09
8.33406e-08
-2.18837e-07
-1.04922e-07
1.20058e-08
-1.44212e-07
-2.15299e-07
-1.37085e-07
-4.38437e-08
-2.91479e-07
-3.55368e-07
6.1809e-08
-3.60255e-07
-6.01314e-07
1.79959e-07
-5.84454e-07
-9.17419e-07
2.9938e-07
-1.57959e-06
-1.27929e-06
6.54163e-07
-3.75803e-06
-1.46477e-06
1.24059e-06
-6.39723e-06
-9.64509e-07
1.4621e-06
-8.20741e-06
7.14491e-07
1.33906e-06
-7.88871e-06
4.37479e-07
8.04918e-07
-2.45392e-06
-6.94927e-06
-5.39924e-07
3.24074e-06
-1.59459e-05
-1.06596e-06
3.27265e-06
-1.95981e-05
1.86846e-06
-3.44963e-06
-1.78617e-05
6.27981e-06
-2.84591e-06
-1.97975e-05
1.16832e-06
-1.15368e-06
-1.67496e-05
-4.93475e-06
1.14091e-05
1.21803e-07
-1.11237e-05
2.40199e-05
-1.39353e-05
2.72314e-06
-2.76748e-06
1.27318e-05
2.94654e-05
-1.29569e-08
-6.61303e-06
-3.33954e-06
9.49632e-06
-3.1492e-05
-1.23505e-05
4.31168e-06
-1.84378e-05
1.69132e-06
8.00103e-06
-1.78893e-05
-1.53248e-06
8.41037e-06
-1.08253e-05
-5.47263e-07
7.91569e-06
-6.78612e-06
1.05181e-07
5.87295e-06
-3.28822e-06
1.13041e-06
3.73351e-06
-2.21719e-06
1.35473e-06
2.25253e-06
-2.36608e-06
8.17516e-07
2.25368e-06
-3.62928e-06
-8.67907e-07
2.59876e-06
-4.72795e-06
-1.71451e-06
3.50206e-06
-4.80966e-06
-2.9457e-06
5.82602e-06
-4.19557e-06
-4.34429e-06
9.61902e-06
-2.7313e-06
-5.26478e-06
1.36343e-05
-3.64453e-07
-5.12374e-06
1.71033e-05
1.78625e-06
-4.14627e-06
1.89624e-05
3.35691e-06
-2.36065e-06
1.8012e-05
4.75059e-06
6.37531e-07
1.46872e-05
6.3198e-06
2.66182e-06
1.06093e-05
7.53805e-06
2.57307e-06
6.7684e-06
7.08078e-06
1.67313e-06
3.55044e-06
7.45275e-06
1.09913e-06
-8.46885e-07
1.10859e-05
8.02267e-07
-7.45319e-06
1.50008e-05
1.73283e-06
-1.18297e-05
1.55804e-05
1.54169e-06
-1.28103e-05
1.36902e-05
6.46118e-07
-1.36533e-05
9.52156e-06
2.0422e-06
-1.56426e-05
4.98361e-06
3.32736e-06
-1.71816e-05
1.42587e-06
2.86122e-06
-1.63859e-05
-1.86874e-06
7.14217e-07
-1.40039e-05
-4.26305e-06
-5.59512e-07
-1.18738e-05
-5.67744e-06
-7.39412e-07
-9.81811e-06
-7.36682e-06
-9.51716e-07
-7.73372e-06
-8.66063e-06
-1.02367e-06
-5.66641e-06
-8.83695e-06
-1.23826e-06
-3.07287e-06
-9.35015e-06
-1.84311e-06
-1.03149e-05
-2.26097e-06
-3.81007e-06
-4.2503e-06
-2.88854e-07
-2.426e-06
-4.64726e-06
-1.09958e-06
-2.35624e-06
-3.31562e-06
-8.00574e-09
-1.84069e-06
-3.67294e-06
-2.39721e-07
-1.46708e-06
-3.22812e-06
1.90187e-07
-9.03178e-07
-2.89677e-06
3.05389e-07
-3.46421e-07
-1.45989e-06
3.53576e-07
-4.2332e-08
-4.30848e-07
2.48473e-07
3.37849e-08
5.64322e-07
3.98551e-08
-9.71297e-08
7.97562e-07
-6.7679e-08
-2.21106e-07
7.14002e-07
-1.50335e-07
-4.21104e-07
7.02516e-07
-1.64843e-07
-5.47016e-07
5.95322e-07
-2.20286e-07
-6.13679e-07
4.61892e-07
-2.55196e-07
-5.82004e-07
2.9853e-07
-2.94864e-07
-5.12438e-07
2.1321e-07
-3.19699e-07
-4.2435e-07
2.02179e-07
-3.36526e-07
-3.41106e-07
2.03357e-07
-3.49105e-07
-2.71579e-07
2.44628e-07
-3.5277e-07
-2.12213e-07
2.71097e-07
-3.56612e-07
-1.66573e-07
3.09785e-07
-3.54077e-07
-1.35152e-07
3.41443e-07
-3.51216e-07
-1.1652e-07
3.7304e-07
-3.46708e-07
-1.07204e-07
3.99925e-07
-3.42852e-07
-1.03996e-07
4.2315e-07
-3.3985e-07
-1.03889e-07
4.42754e-07
-3.38004e-07
-1.04172e-07
4.59189e-07
-3.37248e-07
-1.02163e-07
4.72692e-07
-3.37561e-07
-9.58194e-08
4.83785e-07
-3.38586e-07
-8.4005e-08
4.92709e-07
-3.39823e-07
-6.69742e-08
4.99891e-07
-3.40436e-07
-4.63342e-08
5.05088e-07
-3.39261e-07
-2.57316e-08
5.07994e-07
-3.3514e-07
-9.98076e-09
5.07219e-07
-3.27196e-07
-3.91694e-09
5.0111e-07
-3.15131e-07
-1.25248e-08
4.89293e-07
-2.99477e-07
-4.22021e-08
4.7199e-07
-2.79233e-07
-1.02281e-07
4.52809e-07
-2.5219e-07
-2.00184e-07
4.28418e-07
-2.13822e-07
-3.31475e-07
3.76063e-07
-1.61457e-07
-4.62198e-07
2.44793e-07
-1.0209e-07
-5.29752e-07
-1.64424e-08
-5.31146e-08
-4.98343e-07
-3.69215e-07
-1.75881e-08
-4.35901e-07
-6.97449e-07
3.36661e-08
-5.58862e-07
-9.61619e-07
1.67134e-07
-1.48942e-06
-9.04756e-07
5.5599e-07
-3.47748e-06
-7.20972e-07
1.24425e-06
-5.40016e-06
-4.31765e-07
1.38991e-06
-6.33085e-06
1.76959e-07
1.46821e-06
-4.30327e-06
-2.17383e-06
5.83713e-07
-1.58994e-07
-1.03324e-05
-7.61176e-07
-1.59292e-07
-1.67791e-05
8.33455e-07
-7.81445e-06
-1.62662e-05
4.32326e-06
-1.46422e-05
-1.40326e-05
2.99866e-06
-1.42072e-05
-1.68397e-05
-3.39278e-06
-1.20642e-05
-1.82825e-05
-6.09979e-07
1.14071e-05
-1.95949e-05
-3.7544e-06
3.0267e-05
-3.35588e-05
7.63439e-07
-1.87062e-06
2.32132e-05
2.16549e-05
-4.82188e-07
-4.47228e-06
-3.52923e-06
5.55017e-06
-2.57481e-05
-1.1776e-05
-7.60337e-06
-7.57606e-06
2.29189e-06
-1.14997e-05
-1.10443e-05
-2.94861e-06
-1.17394e-05
-8.32136e-06
-2.26419e-06
-1.05263e-05
-6.69736e-06
-1.30184e-06
-9.80066e-06
-4.24528e-06
2.3151e-07
-9.19817e-06
-3.68601e-06
8.66367e-07
-8.97029e-06
-4.28909e-06
1.69516e-06
-9.06101e-06
-5.40187e-06
1.86333e-06
-8.98151e-06
-5.93638e-06
1.12895e-06
-8.19462e-06
-5.63818e-06
4.16452e-08
-6.26678e-06
-4.56774e-06
-1.55565e-06
-3.01986e-06
-3.26773e-06
-2.71047e-06
1.13634e-06
-1.42661e-06
-3.09405e-06
5.19425e-06
1.08415e-06
-3.35579e-06
8.27078e-06
3.89546e-06
-3.61508e-06
9.1919e-06
6.172e-06
-2.34253e-06
8.0867e-06
8.04318e-06
-6.18172e-07
4.61297e-06
9.6565e-06
1.35528e-06
-2.87439e-06
1.12901e-05
3.27803e-06
-1.17502e-05
1.33115e-05
3.01708e-06
-1.79537e-05
1.56167e-05
1.67265e-06
-1.96349e-05
1.63076e-05
3.74463e-07
-1.90288e-05
1.41557e-05
8.18625e-07
-1.87514e-05
1.0288e-05
3.12481e-06
-2.16845e-05
6.21852e-06
6.23608e-06
-2.45876e-05
2.35464e-06
5.5321e-06
-2.49762e-05
-5.44597e-07
2.35915e-06
-2.32641e-05
-2.66016e-06
-9.20693e-07
-1.99035e-05
-5.34414e-06
-2.27947e-06
-1.6356e-05
-6.50682e-06
-2.71818e-06
-1.33315e-05
-7.1728e-06
-3.21851e-06
-1.01291e-05
-8.6599e-06
-3.20314e-06
-6.92765e-06
-8.6855e-06
-3.35288e-06
-3.57773e-06
-9.32801e-06
-3.37206e-06
-1.00283e-05
-3.86436e-06
-3.98799e-06
-4.14023e-06
-4.08328e-07
-2.53567e-06
-4.72961e-06
-1.36997e-06
-2.54872e-06
-3.16708e-06
-1.35491e-07
-1.92979e-06
-3.5877e-06
-7.04187e-07
-1.5331e-06
-3.26895e-06
-3.55876e-07
-8.73421e-07
-3.31724e-06
-2.3921e-07
-2.69396e-07
-2.40899e-06
3.45059e-07
-2.88686e-08
-1.09321e-06
4.21826e-07
1.12567e-07
1.9123e-07
2.31646e-07
1.12112e-07
7.62074e-07
3.59331e-08
4.90151e-08
8.58205e-07
-8.11167e-08
-2.04075e-07
1.03243e-06
-7.68382e-08
-4.3008e-07
9.6507e-07
-1.43755e-07
-5.69791e-07
7.93761e-07
-1.92168e-07
-5.56048e-07
5.50147e-07
-2.65372e-07
-4.88997e-07
4.5883e-07
-3.12682e-07
-4.05761e-07
4.5971e-07
-3.40779e-07
-3.37371e-07
4.93158e-07
-3.58201e-07
-2.82279e-07
5.54428e-07
-3.64906e-07
-2.37724e-07
5.95745e-07
-3.69216e-07
-2.03359e-07
6.41753e-07
-3.66346e-07
-1.78517e-07
6.76362e-07
-3.59773e-07
-1.62297e-07
7.08274e-07
-3.51468e-07
-1.53246e-07
7.33578e-07
-3.42716e-07
-1.49004e-07
7.53499e-07
-3.34605e-07
-1.47366e-07
7.68875e-07
-3.27772e-07
-1.46357e-07
7.80646e-07
-3.22481e-07
-1.44144e-07
7.8917e-07
-3.18704e-07
-1.39762e-07
7.95451e-07
-3.16063e-07
-1.32763e-07
7.99476e-07
-3.1378e-07
-1.24539e-07
8.02432e-07
-3.10779e-07
-1.18161e-07
8.04882e-07
-3.06185e-07
-1.19128e-07
8.07731e-07
-2.98785e-07
-1.33376e-07
8.09499e-07
-2.88046e-07
-1.66072e-07
8.07679e-07
-2.73888e-07
-2.2125e-07
8.002e-07
-2.55743e-07
-3.00323e-07
7.8358e-07
-2.32531e-07
-4.00913e-07
7.56286e-07
-2.02901e-07
-5.13425e-07
7.0992e-07
-1.69003e-07
-6.21825e-07
6.22515e-07
-1.38066e-07
-7.10024e-07
4.57943e-07
-1.24964e-07
-7.4733e-07
1.75076e-07
-1.54225e-07
-6.64124e-07
-2.07744e-07
-2.44691e-07
-4.46256e-07
-5.93244e-07
-3.22085e-07
-3.847e-07
-8.09207e-07
-2.1398e-07
-1.16221e-06
-3.87835e-07
2.60575e-07
-2.81958e-06
-1.31875e-07
1.06827e-06
-4.22479e-06
-3.38882e-07
1.31233e-06
-4.37952e-06
-9.97746e-07
1.32943e-06
-2.08955e-06
-4.72416e-06
2.6037e-07
-1.00954e-06
-1.0168e-05
-1.24438e-06
-6.3432e-06
-1.34784e-05
2.03298e-06
-1.80096e-05
-9.28036e-06
4.68056e-06
-2.55963e-05
-9.0063e-06
2.56048e-06
-2.61245e-05
-1.56362e-05
-6.75292e-07
-2.0307e-05
-2.25991e-05
-1.50077e-06
-1.51721e-06
-3.43351e-05
-4.04937e-06
-1.21974e-06
-3.27849e-05
-1.07153e-06
-1.58563e-06
1.84375e-05
5.14016e-06
5.72182e-07
-3.74913e-06
-2.88069e-06
-2.89879e-06
-1.76101e-05
-4.66635e-06
-2.02015e-05
4.67902e-06
5.04839e-06
-2.73803e-05
-3.67718e-06
-1.87557e-07
-3.31402e-05
-2.7772e-06
2.16461e-07
-3.53747e-05
-4.44528e-06
-1.69345e-08
-3.52965e-05
-4.46701e-06
1.44168e-07
-3.3612e-05
-5.5589e-06
1.89037e-07
-3.15931e-05
-6.52618e-06
2.18684e-07
-2.94972e-05
-7.42305e-06
-7.42416e-08
-2.70677e-05
-7.84295e-06
-5.22483e-07
-2.41424e-05
-7.79105e-06
-7.72036e-07
-2.12159e-05
-6.56117e-06
-9.32854e-07
-1.87544e-05
-5.03619e-06
-6.92765e-07
-1.61183e-05
-3.42532e-06
-6.37201e-07
-1.36019e-05
-9.69235e-07
-4.6271e-07
-1.22488e-05
2.30358e-06
2.38957e-07
-1.27074e-05
5.20881e-06
1.42201e-06
-1.48144e-05
7.87997e-06
2.27052e-06
-1.82147e-05
1.06878e-05
2.36933e-06
-2.19693e-05
1.28082e-05
2.23693e-06
-2.38567e-05
1.32183e-05
1.98102e-06
-2.35416e-05
1.28869e-05
2.41527e-06
-2.29063e-05
1.15519e-05
4.12104e-06
-2.5151e-05
9.74306e-06
6.65797e-06
-2.95021e-05
6.34342e-06
8.29638e-06
-3.37577e-05
3.89827e-06
6.57644e-06
-3.56948e-05
1.70114e-06
2.59128e-06
-3.49803e-05
3.03492e-07
-1.5619e-06
-3.21314e-05
-1.71465e-06
-3.7939e-06
-2.7904e-05
-5.30677e-06
-4.26438e-06
-2.41511e-05
-6.21277e-06
-4.04665e-06
-2.03072e-05
-6.86885e-06
-4.14761e-06
-1.52482e-05
-8.94119e-06
-4.77758e-06
-9.80031e-06
-9.18676e-06
-4.9466e-06
-4.63651e-06
-1.007e-05
-4.42182e-06
-9.917e-06
-4.74782e-06
-4.38155e-06
-3.6014e-06
-4.08045e-07
-2.92536e-06
-4.4781e-06
-1.7077e-06
-2.83116e-06
-2.84976e-06
-4.11523e-07
-1.98016e-06
-3.11587e-06
-1.32284e-06
-1.43204e-06
-2.84916e-06
-9.6791e-07
-7.64016e-07
-3.04161e-06
-9.43661e-07
-9.91598e-08
-2.62866e-06
-4.45194e-07
1.52647e-07
-1.52677e-06
1.81742e-07
1.39067e-07
-4.20824e-08
2.46886e-07
1.26814e-07
6.90705e-07
8.36138e-08
1.63242e-07
8.47871e-07
-2.61027e-08
-4.58685e-08
1.22689e-06
1.46458e-08
-2.85178e-07
1.25851e-06
-5.41419e-08
-4.51738e-07
1.09241e-06
-1.32095e-07
-4.50765e-07
8.07893e-07
-2.58726e-07
-4.09745e-07
7.39226e-07
-3.21422e-07
-3.53146e-07
7.63445e-07
-3.6034e-07
-3.17167e-07
8.27141e-07
-3.6997e-07
-2.91148e-07
9.00362e-07
-3.71958e-07
-2.7292e-07
9.47253e-07
-3.69742e-07
-2.60479e-07
9.92633e-07
-3.63327e-07
-2.50713e-07
1.02335e-06
-3.56765e-07
-2.4448e-07
1.05105e-06
-3.49018e-07
-2.41225e-07
1.07049e-06
-3.40178e-07
-2.39853e-07
1.08392e-06
-3.31796e-07
-2.39262e-07
1.09223e-06
-3.23956e-07
-2.39086e-07
1.09724e-06
-3.16773e-07
-2.38637e-07
1.09875e-06
-3.10031e-07
-2.38223e-07
1.09806e-06
-3.03025e-07
-2.38838e-07
1.09593e-06
-2.95839e-07
-2.43643e-07
1.09476e-06
-2.87522e-07
-2.57202e-07
1.09596e-06
-2.77527e-07
-2.85399e-07
1.1011e-06
-2.65176e-07
-3.31194e-07
1.1054e-06
-2.50109e-07
-3.94873e-07
1.10417e-06
-2.32811e-07
-4.73539e-07
1.09311e-06
-2.14247e-07
-5.58643e-07
1.06408e-06
-1.95394e-07
-6.35014e-07
1.00984e-06
-1.77176e-07
-6.90236e-07
9.26446e-07
-1.61301e-07
-7.19656e-07
8.05668e-07
-1.53729e-07
-7.29484e-07
6.35374e-07
-1.67598e-07
-7.14564e-07
3.88627e-07
-2.28465e-07
-6.23201e-07
6.2115e-08
-3.61214e-07
-3.79407e-07
-3.19844e-07
-5.17183e-07
-2.92865e-07
-4.22833e-07
-4.72904e-07
-1.08503e-06
2.88293e-07
1.16053e-07
-2.73222e-06
5.02361e-07
1.01297e-06
-3.85633e-06
-4.13777e-07
1.19902e-06
-3.53272e-06
-2.354e-06
1.03268e-06
-3.76728e-06
-4.26695e-06
-2.22627e-07
-9.49426e-06
-4.49017e-06
4.91561e-08
-2.18446e-05
-4.49236e-06
3.36432e-06
-3.45367e-05
2.77456e-07
3.13441e-06
-4.16616e-05
-1.89183e-06
1.04638e-08
-4.48061e-05
-1.05044e-05
-1.98718e-06
-4.08745e-05
-2.28626e-05
-3.66788e-06
-4.41756e-05
-2.97123e-05
-1.3215e-06
-3.73606e-05
-3.18522e-05
-7.7479e-06
5.96361e-06
-1.91107e-05
-5.77722e-06
-3.25472e-06
3.72915e-06
1.74065e-06
-3.36442e-05
5.89819e-06
6.88308e-06
-4.20606e-05
9.19297e-06
3.90531e-06
-5.24286e-05
2.98825e-06
3.70539e-06
-5.74142e-05
2.10707e-07
2.00072e-06
-6.06749e-05
-2.83328e-06
1.65175e-06
-6.14847e-05
-4.33277e-06
6.78808e-07
-6.16022e-05
-5.8031e-06
3.64861e-07
-6.11186e-05
-6.86118e-06
-1.45516e-07
-6.01961e-05
-7.52058e-06
-8.21916e-07
-5.86316e-05
-7.89528e-06
-1.50923e-06
-5.61714e-05
-8.44456e-06
-1.80392e-06
-5.2405e-05
-8.22703e-06
-2.0979e-06
-4.80551e-05
-7.21544e-06
-2.16827e-06
-4.3894e-05
-6.05103e-06
-1.53302e-06
-4.03448e-05
-3.81125e-06
-7.04916e-07
-3.85202e-05
-1.86323e-07
6.67545e-07
-3.80479e-05
2.40721e-06
2.33172e-06
-3.84634e-05
5.01905e-06
3.27885e-06
-3.92635e-05
7.25978e-06
4.23077e-06
-4.00121e-05
8.64036e-06
4.9194e-06
-4.09857e-05
8.8383e-06
5.35665e-06
-4.28079e-05
9.02467e-06
5.68771e-06
-4.55034e-05
8.12391e-06
6.12706e-06
-4.77536e-05
6.4355e-06
5.56143e-06
-4.87587e-05
3.26023e-06
4.09213e-06
-4.87364e-05
2.53419e-06
1.34561e-06
-4.71351e-05
2.09763e-06
-1.9939e-06
-4.42321e-05
2.14718e-06
-4.74295e-06
-4.00707e-05
-2.67822e-07
-5.6046e-06
-3.64885e-05
-4.66597e-06
-4.21978e-06
-3.27227e-05
-7.04945e-06
-2.92617e-06
-2.8628e-05
-8.12833e-06
-2.83276e-06
-2.37072e-05
-1.05098e-05
-3.35024e-06
-1.73437e-05
-1.12219e-05
-4.32687e-06
-8.43061e-06
-1.39349e-05
-5.04741e-06
-1.27845e-05
-5.5629e-06
-4.46628e-06
-2.78138e-06
5.33283e-08
-3.31798e-06
-3.93039e-06
-1.69602e-06
-3.29978e-06
-2.27783e-06
-5.90133e-07
-2.18213e-06
-2.5124e-06
-1.72113e-06
-1.47356e-06
-2.13803e-06
-1.41971e-06
-7.35069e-07
-2.42049e-06
-1.35961e-06
-4.64712e-08
-2.14734e-06
-1.16992e-06
2.80356e-07
-1.31798e-06
-5.3562e-07
2.88307e-07
-1.24719e-08
-3.75666e-08
1.62129e-07
7.83011e-07
3.38686e-08
1.55719e-07
9.06565e-07
-5.22875e-08
9.15912e-08
1.27445e-06
1.65653e-08
2.31957e-08
1.40767e-06
-8.07661e-08
-4.67968e-08
1.34474e-06
-1.82343e-07
-9.79866e-08
1.2042e-06
-3.45116e-07
-1.57764e-07
1.21613e-06
-4.17131e-07
-2.09441e-07
1.29471e-06
-4.79589e-07
-2.57423e-07
1.37271e-06
-4.97584e-07
-2.94107e-07
1.45301e-06
-5.15958e-07
-3.27652e-07
1.5055e-06
-5.24699e-07
-3.53808e-07
1.5498e-06
-5.31013e-07
-3.68478e-07
1.57292e-06
-5.34894e-07
-3.75254e-07
1.59265e-06
-5.34821e-07
-3.7736e-07
1.60563e-06
-5.33025e-07
-3.77144e-07
1.61467e-06
-5.30966e-07
-3.75916e-07
1.62008e-06
-5.29069e-07
-3.74962e-07
1.62315e-06
-5.26857e-07
-3.75067e-07
1.62348e-06
-5.24621e-07
-3.77745e-07
1.62255e-06
-5.21804e-07
-3.85385e-07
1.62172e-06
-5.18148e-07
-4.02072e-07
1.62392e-06
-5.12472e-07
-4.32816e-07
1.63065e-06
-5.03933e-07
-4.83332e-07
1.6448e-06
-4.93168e-07
-5.53473e-07
1.65796e-06
-4.82401e-07
-6.3425e-07
1.65806e-06
-4.73096e-07
-7.11767e-07
1.63747e-06
-4.6683e-07
-7.72992e-07
1.59067e-06
-4.65353e-07
-8.06582e-07
1.5145e-06
-4.71057e-07
-8.04305e-07
1.41214e-06
-4.87953e-07
-7.67404e-07
1.29377e-06
-5.24981e-07
-6.98691e-07
1.15844e-06
-5.91758e-07
-5.99343e-07
9.78915e-07
-6.89608e-07
-4.53701e-07
7.46902e-07
-8.30397e-07
-3.44783e-07
5.20873e-07
-9.496e-07
-6.24514e-07
6.58003e-07
-8.01064e-07
-1.65928e-06
1.34284e-06
-1.97434e-08
-3.35626e-06
1.05337e-06
1.14602e-06
-4.06598e-06
-8.32696e-07
1.12869e-06
-3.42718e-06
-3.21542e-06
2.22673e-07
-4.71e-06
-1.70306e-06
-1.28103e-06
-1.36074e-05
4.61359e-06
-2.06294e-07
-2.82471e-05
6.51551e-06
3.63187e-06
-3.93426e-05
9.73301e-06
1.64012e-06
-4.72419e-05
7.81307e-06
-1.80552e-06
-5.45922e-05
-5.02462e-07
-2.65149e-06
-5.64387e-05
-1.50345e-05
-5.98144e-06
-6.61553e-05
-2.20243e-05
2.02868e-06
-5.37699e-05
-3.16301e-05
-1.26079e-05
8.48032e-06
-4.51474e-05
-3.62147e-05
-3.59379e-06
1.19964e-05
3.80762e-06
-4.39083e-05
2.97482e-05
1.64675e-05
-5.30014e-05
1.5015e-05
3.27534e-06
-6.57422e-05
1.2723e-05
3.01044e-06
-6.88609e-05
3.58852e-06
-2.54364e-07
-7.37145e-05
-3.89127e-07
2.41434e-06
-7.44602e-05
-5.56225e-06
1.98034e-06
-7.64723e-05
-6.20952e-06
2.42383e-06
-7.76017e-05
-8.15795e-06
2.43159e-06
-7.9436e-05
-7.23712e-06
1.55644e-06
-8.07732e-05
-6.9711e-06
4.18872e-07
-8.19318e-05
-6.49151e-06
-7.88515e-07
-8.27027e-05
-5.07896e-06
-2.37116e-06
-8.32323e-05
-2.91791e-06
-3.76176e-06
-8.31757e-05
-2.11179e-06
-3.98956e-06
-8.28613e-05
-1.51899e-06
-2.60036e-06
-8.21825e-05
-4.37086e-07
-4.21614e-07
-8.1071e-05
-2.88673e-07
1.59093e-06
-7.87217e-05
-1.03036e-07
2.77938e-06
-7.58339e-05
6.35353e-07
3.74334e-06
-7.29777e-05
1.41664e-06
4.37422e-06
-6.97718e-05
1.36768e-06
4.27149e-06
-6.64465e-05
2.26143e-06
3.44459e-06
-6.32653e-05
2.97158e-06
1.97787e-06
-5.97528e-05
2.96595e-06
-3.62387e-08
-5.65135e-05
2.32386e-06
-2.29634e-06
-5.23117e-05
3.18898e-06
-4.85004e-06
-4.74613e-05
4.78883e-06
-7.53523e-06
-4.16765e-05
5.49944e-06
-9.13082e-06
-3.87781e-05
4.19111e-06
-7.35122e-06
-3.46621e-05
-6.85679e-06
-1.91883e-06
-3.28187e-05
-1.12938e-05
2.40741e-06
-3.29207e-05
-9.61208e-06
1.59241e-06
-3.08483e-05
-1.00198e-05
-2.55573e-06
-2.53964e-05
-1.08597e-05
-5.8078e-06
-1.56693e-05
-1.39283e-05
-9.72856e-06
-1.73434e-05
-1.11082e-05
-4.00744e-06
-8.63143e-07
2.11588e-06
-3.4739e-06
-3.56067e-06
-9.03249e-07
-4.03102e-06
-1.50396e-06
-2.16763e-07
-2.90141e-06
-2.15698e-06
-1.48502e-06
-2.05747e-06
-1.70621e-06
-1.27576e-06
-1.01842e-06
-2.09205e-06
-1.3675e-06
-1.3387e-07
-1.62096e-06
-1.41093e-06
1.89559e-07
-7.95272e-07
-8.46139e-07
1.99174e-07
3.21617e-07
-3.43705e-07
1.60829e-07
8.06276e-07
1.50785e-08
1.67087e-07
7.76668e-07
1.23637e-07