/*--------------------------------*- C++ -*----------------------------------*\
| =========                 |                                                 |
| \\      /  F ield         | OpenFOAM: The Open Source CFD Toolbox           |
|  \\    /   O peration     | Version:  2.3.0                                 |
|   \\  /    A nd           | Web:      www.OpenFOAM.org                      |
|    \\/     M anipulation  |                                                 |
\*---------------------------------------------------------------------------*/
FoamFile
{
    version     2.0;
    format      ascii;
    class       surfaceScalarField;
    location    "21";
    object      phi;
}
// * * * * * * * * * * * * * * * * * * * * * * * * * * * * * * * * * * * * * //

dimensions      [0 3 -1 0 0 0 0];

internalField   nonuniform List<scalar> 
16448
(
-1.86049e-06
-2.01216e-06
7.69875e-07
-6.79035e-07
-2.07524e-06
8.9378e-07
-2.91313e-07
-1.51574e-06
1.12802e-06
6.93981e-08
-1.42738e-06
1.06667e-06
1.44373e-07
-9.48333e-07
8.73363e-07
2.1031e-07
-8.3099e-07
7.65059e-07
1.28504e-07
-4.76187e-07
5.57996e-07
-5.51154e-08
-3.43447e-07
5.27068e-07
-3.22541e-07
-2.46964e-07
5.1439e-07
-5.33124e-07
-2.17498e-07
4.28079e-07
-6.48095e-07
-2.53959e-07
3.68928e-07
-6.01965e-07
-3.37417e-07
2.91283e-07
-4.95879e-07
-3.8684e-07
2.8075e-07
-3.41467e-07
-4.28495e-07
2.74081e-07
-2.31923e-07
-4.35085e-07
3.25537e-07
-1.35736e-07
-4.55124e-07
3.58934e-07
-7.89405e-08
-4.6081e-07
4.04009e-07
-3.5759e-08
-4.74227e-07
4.31041e-07
-9.83835e-09
-4.81079e-07
4.55152e-07
6.69821e-09
-4.85355e-07
4.68813e-07
1.5634e-08
-4.86279e-07
4.77338e-07
2.02293e-08
-4.85298e-07
4.80697e-07
2.21074e-08
-4.82855e-07
4.80971e-07
2.26969e-08
-4.79512e-07
4.78917e-07
2.2532e-08
-4.75303e-07
4.75463e-07
2.18117e-08
-4.70467e-07
4.71182e-07
2.06389e-08
-4.65398e-07
4.66566e-07
1.91817e-08
-4.60397e-07
4.61849e-07
1.75652e-08
-4.55401e-07
4.57013e-07
1.48111e-08
-4.49613e-07
4.52363e-07
1.33257e-08
-4.45526e-07
4.47007e-07
7.30384e-09
-4.37616e-07
4.43634e-07
7.101e-09
-4.36149e-07
4.36348e-07
-5.87096e-09
-4.23359e-07
4.36327e-07
-1.50754e-09
-4.28936e-07
4.2457e-07
-2.20942e-08
-4.08254e-07
4.28837e-07
-1.23795e-08
-4.2076e-07
4.11042e-07
-3.91029e-08
-3.9201e-07
4.1873e-07
-1.92856e-08
-4.1026e-07
3.90441e-07
-4.59156e-08
-3.7344e-07
4.00068e-07
1.3779e-09
-4.03552e-07
3.56256e-07
-5.7821e-09
-3.60797e-07
3.67955e-07
7.77568e-08
-4.06848e-07
3.23307e-07
1.34127e-07
-4.04272e-07
3.479e-07
1.8724e-07
-3.98935e-07
3.4582e-07
1.85471e-07
-4.58732e-07
4.605e-07
1.3428e-08
-3.63473e-07
5.35514e-07
-1.80697e-07
-4.49299e-07
6.43423e-07
-7.5773e-07
-2.12246e-07
7.89277e-07
-8.82228e-07
-5.58559e-07
6.83058e-07
-1.29677e-06
-3.79937e-07
7.94476e-07
-1.06606e-06
-8.34467e-07
6.03764e-07
-1.15324e-06
-5.47788e-07
6.34959e-07
-2.01357e-06
-1.73028e-07
1.03336e-06
-8.21811e-07
-3.08798e-06
1.89623e-06
-7.53204e-07
-2.9595e-06
2.89089e-06
-2.56966e-06
2.65748e-06
-8.41028e-07
-4.132e-06
9.89707e-07
5.72631e-07
-8.54742e-06
2.65326e-06
1.7622e-06
-8.39823e-07
-1.98673e-05
1.21597e-05
2.17354e-05
-2.66907e-05
4.11545e-06
3.08296e-05
-1.2617e-05
3.52282e-06
2.94549e-05
-9.31717e-07
2.30636e-06
3.09799e-05
-2.29591e-06
7.70905e-07
3.26097e-05
-1.5825e-06
-4.72639e-08
3.31629e-05
3.43998e-08
-5.87604e-07
3.30097e-05
1.08155e-06
-9.2834e-07
3.25095e-05
1.5713e-06
-1.07112e-06
3.16868e-05
1.9022e-06
-1.07949e-06
3.0496e-05
2.19937e-06
-1.00857e-06
2.89457e-05
2.42558e-06
-8.75353e-07
2.71466e-05
2.52997e-06
-7.30808e-07
2.51775e-05
2.56599e-06
-5.96955e-07
2.30917e-05
2.50722e-06
-4.2135e-07
2.08946e-05
2.38212e-06
-1.84997e-07
1.86982e-05
2.08568e-06
1.10625e-07
1.65826e-05
1.6882e-06
4.27399e-07
1.48246e-05
1.01946e-06
7.38596e-07
1.36886e-05
1.0699e-07
1.02898e-06
1.28273e-05
-4.82546e-07
1.34388e-06
1.20169e-05
-8.88409e-07
1.69881e-06
1.11881e-05
-1.20698e-06
2.03572e-06
1.05518e-05
-1.65041e-06
2.28673e-06
1.03015e-05
-2.04155e-06
2.29178e-06
1.05223e-05
-2.38302e-06
2.16221e-06
1.1198e-05
-2.62045e-06
1.94479e-06
1.19831e-05
-2.46224e-06
1.67712e-06
1.2779e-05
-2.20605e-06
1.41014e-06
1.30938e-05
-1.61759e-06
1.30281e-06
1.28194e-05
-1.06287e-06
1.33728e-06
1.19504e-05
-3.85762e-07
1.25476e-06
1.00345e-05
6.20859e-07
1.29504e-06
7.08458e-06
2.01895e-06
9.30946e-07
2.45741e-06
3.44403e-06
1.18314e-06
-4.2172e-07
3.55151e-06
-6.72369e-07
3.04107e-06
-3.46278e-06
-2.46788e-06
-2.90996e-06
1.29883e-07
-1.6342e-06
-3.08408e-06
1.75167e-07
-1.28291e-06
-2.369e-06
5.01996e-07
-7.67214e-07
-2.20654e-06
2.63471e-07
-3.91731e-07
-1.49314e-06
1.69337e-07
-3.93302e-08
-1.25283e-06
6.94545e-08
-3.96931e-08
-4.829e-07
7.08564e-09
-2.83725e-07
-1.91841e-07
9.24315e-08
-5.99603e-07
-4.2374e-08
1.1129e-07
-7.85749e-07
-8.72898e-08
5.59388e-08
-8.67719e-07
-1.93583e-07
2.15924e-08
-7.89045e-07
-3.57434e-07
-5.86574e-08
-6.75041e-07
-4.28205e-07
-7.26399e-08
-5.19957e-07
-4.93564e-07
-9.00154e-08
-3.93425e-07
-5.02145e-07
-5.94754e-08
-2.72935e-07
-5.33007e-07
-4.26116e-08
-1.9455e-07
-5.3145e-07
-7.74997e-09
-1.31659e-07
-5.44985e-07
7.86087e-09
-9.14735e-08
-5.43828e-07
2.25577e-08
-6.30221e-08
-5.43757e-07
2.99446e-08
-4.58813e-08
-5.3822e-07
3.47937e-08
-3.50667e-08
-5.32073e-07
3.59542e-08
-2.89836e-08
-5.24171e-07
3.52271e-08
-2.55549e-08
-5.15851e-07
3.29045e-08
-2.38077e-08
-5.06963e-07
2.99073e-08
-2.30266e-08
-4.97664e-07
2.64102e-08
-2.29733e-08
-4.8825e-07
2.2793e-08
-2.38404e-08
-4.78881e-07
1.93464e-08
-2.55476e-08
-4.69594e-07
1.5895e-08
-2.80347e-08
-4.59812e-07
1.26814e-08
-3.00751e-08
-4.5238e-07
8.89088e-09
-3.55123e-08
-4.38836e-07
6.65357e-09
-3.86015e-08
-4.35064e-07
2.00137e-09
-5.01403e-08
-4.1384e-07
2.01682e-09
-4.99895e-08
-4.1999e-07
-9.1001e-09
-6.75049e-08
-3.85936e-07
-4.80436e-09
-6.01232e-08
-4.05601e-07
-2.25428e-08
-8.41172e-08
-3.54085e-07
-1.39324e-08
-6.14741e-08
-3.91821e-07
-4.10839e-08
-8.73161e-08
-3.19717e-07
-2.78822e-08
-2.82786e-08
-3.94651e-07
-6.79399e-08
-4.69723e-08
-2.96101e-07
-4.60032e-08
5.44701e-08
-4.27869e-07
-8.04224e-08
3.2319e-08
-3.39797e-07
-4.23244e-08
1.16124e-07
-4.53169e-07
-2.9572e-08
1.16073e-08
-4.07823e-07
5.36067e-08
-1.3323e-07
-3.22119e-07
1.03483e-07
-2.81652e-07
-4.70133e-07
1.69254e-07
-9.95727e-07
1.72274e-07
3.29555e-07
-1.12768e-06
-6.07417e-07
1.80807e-07
-2.00727e-06
7.80931e-08
4.21564e-07
-1.95193e-06
-9.67717e-07
7.79103e-08
-9.19886e-07
-1.21744e-06
-3.62397e-07
-1.26454e-06
5.94993e-08
1.12128e-07
-8.1176e-07
-3.78349e-06
2.42723e-07
2.29703e-06
-6.98629e-06
9.17988e-07
-3.56539e-06
9.93552e-06
-1.41564e-06
-1.16809e-05
8.10784e-06
9.97346e-07
-1.17375e-05
7.04128e-06
-4.33135e-06
-3.05185e-07
-3.60492e-05
4.74969e-06
9.08015e-06
-3.90072e-05
2.93115e-06
9.74919e-06
-1.50516e-05
1.76558e-06
1.58479e-05
-4.36826e-06
-2.66221e-06
2.0581e-05
-3.35238e-06
-3.67659e-06
2.3411e-05
-1.01326e-06
-3.39927e-06
2.51491e-05
1.65995e-06
-3.36367e-06
2.65814e-05
2.84664e-06
-3.19734e-06
2.73677e-05
3.57026e-06
-2.78532e-06
2.74532e-05
4.08224e-06
-2.26552e-06
2.70328e-05
4.45656e-06
-1.83677e-06
2.61877e-05
4.71232e-06
-1.4416e-06
2.50366e-05
4.82466e-06
-1.14367e-06
2.36854e-05
4.78965e-06
-8.72394e-07
2.19403e-05
4.74167e-06
-4.89379e-07
1.97133e-05
4.67757e-06
-6.84831e-08
1.74787e-05
3.9327e-06
3.87565e-07
1.5574e-05
2.75809e-06
8.34798e-07
1.37511e-05
1.67259e-06
1.16981e-06
1.16891e-05
7.24034e-07
1.44489e-06
9.40709e-06
-8.58425e-08
1.88534e-06
6.84184e-06
-6.85754e-07
2.36258e-06
4.7008e-06
-1.3588e-06
2.29285e-06
3.65122e-06
-2.33626e-06
1.73542e-06
3.93757e-06
-3.31833e-06
9.90421e-07
5.22803e-06
-3.86454e-06
1.91041e-07
6.99816e-06
-3.9223e-06
-4.68288e-07
8.77369e-06
-3.42499e-06
-8.12788e-07
9.99215e-06
-2.56958e-06
-8.54938e-07
1.04647e-05
-1.58013e-06
-5.09967e-07
1.01322e-05
-6.45892e-07
-8.45758e-08
9.11443e-06
4.42193e-07
1.89862e-07
7.28038e-06
2.17831e-06
2.76601e-07
4.96866e-06
4.5172e-06
-1.86523e-07
1.55179e-06
6.40416e-06
4.56755e-07
-5.28101e-07
6.85215e-06
-1.22074e-06
6.56387e-06
-4.05089e-06
-2.78227e-06
-3.29426e-06
1.39491e-08
-2.04544e-06
-3.59235e-06
-2.28556e-07
-1.79194e-06
-2.83549e-06
2.13008e-07
-1.30969e-06
-2.765e-06
7.62172e-08
-8.47491e-07
-1.9563e-06
9.84895e-10
-3.76446e-07
-1.61006e-06
-1.13804e-07
-2.42982e-07
-4.0217e-07
-2.14186e-07
-3.36787e-07
3.1934e-08
-1.29965e-07
-5.6586e-07
2.79036e-07
-9.23356e-08
-7.10028e-07
1.56949e-07
-1.00072e-07
-7.71391e-07
-3.65346e-09
-1.28569e-07
-7.36883e-07
-1.88138e-07
-2.03806e-07
-6.84845e-07
-2.50281e-07
-2.29966e-07
-5.99087e-07
-3.20769e-07
-2.58557e-07
-5.0269e-07
-3.38499e-07
-2.60048e-07
-3.94832e-07
-3.76191e-07
-2.64679e-07
-3.11855e-07
-3.65909e-07
-2.48524e-07
-2.38839e-07
-3.75878e-07
-2.42129e-07
-1.89553e-07
-3.61919e-07
-2.31202e-07
-1.5244e-07
-3.5454e-07
-2.26337e-07
-1.28734e-07
-3.39965e-07
-2.21967e-07
-1.12641e-07
-3.274e-07
-2.20772e-07
-1.0267e-07
-3.13461e-07
-2.20688e-07
-9.65821e-08
-3.0025e-07
-2.21695e-07
-9.3228e-08
-2.87165e-07
-2.23159e-07
-9.14505e-08
-2.74412e-07
-2.25035e-07
-9.06372e-08
-2.61847e-07
-2.27222e-07
-9.08804e-08
-2.49275e-07
-2.29368e-07
-9.23464e-08
-2.36681e-07
-2.31452e-07
-9.42816e-08
-2.24289e-07
-2.33592e-07
-9.72741e-08
-2.13449e-07
-2.35943e-07
-1.01107e-07
-1.9782e-07
-2.37188e-07
-1.05137e-07
-1.90852e-07
-2.40186e-07
-1.11014e-07
-1.67743e-07
-2.40222e-07
-1.11972e-07
-1.72048e-07
-2.46987e-07
-1.20209e-07
-1.33458e-07
-2.44244e-07
-1.13325e-07
-1.56841e-07
-2.55645e-07
-1.24356e-07
-9.47035e-08
-2.48352e-07
-1.03602e-07
-1.46885e-07
-2.65692e-07
-1.18334e-07
-5.50126e-08
-2.49974e-07
-8.40552e-08
-1.56407e-07
-2.72523e-07
-1.13308e-07
-2.72992e-08
-2.3955e-07
-9.31662e-08
-1.85927e-07
-2.62084e-07
-1.71413e-07
-5.83274e-08
-2.03223e-07
-2.02253e-07
-2.08585e-07
-2.13745e-07
-3.04033e-07
-1.4959e-07
-1.56453e-07
-3.8547e-07
-1.00339e-07
-1.40343e-07
-4.25522e-07
-2.80381e-07
-1.497e-07
-6.06846e-07
3.58651e-07
-5.05349e-09
-5.8037e-07
-4.9008e-07
-1.43813e-07
-1.33031e-06
6.62078e-07
1.65959e-07
-1.81283e-06
-3.78882e-07
-1.0632e-07
-1.25402e-06
-1.14393e-06
-6.32314e-07
2.17126e-06
-1.54778e-06
-1.818e-06
2.89127e-06
-5.27657e-06
7.73051e-07
2.20196e-06
-7.43973e-06
1.14275e-06
4.42292e-06
1.12698e-05
-3.55528e-06
-3.76898e-06
1.51304e-05
1.16933e-06
-4.91721e-06
1.17169e-05
-3.52742e-06
-3.02096e-07
-4.05381e-05
-1.26237e-07
1.10163e-06
-4.32772e-05
2.86626e-06
2.33392e-06
-1.75923e-05
1.30842e-06
1.76782e-05
-1.65608e-05
-3.15173e-06
2.2121e-05
-4.72777e-06
-3.06742e-06
2.3133e-05
2.78182e-07
-2.30348e-06
2.43119e-05
2.52878e-06
-2.04774e-06
2.50055e-05
4.06425e-06
-1.91123e-06
2.49825e-05
5.17213e-06
-1.57884e-06
2.44179e-05
5.76862e-06
-1.12177e-06
2.35945e-05
5.89028e-06
-6.10357e-07
2.25683e-05
5.82696e-06
-8.84376e-08
2.09698e-05
6.14778e-06
2.75352e-07
1.91508e-05
5.95094e-06
6.57695e-07
1.742e-05
5.35761e-06
1.11493e-06
1.54972e-05
5.13129e-06
1.46904e-06
1.28901e-05
4.68726e-06
1.85256e-06
9.17405e-06
3.79176e-06
2.68235e-06
3.78788e-06
3.29568e-06
3.76307e-06
-1.24466e-06
2.092e-06
3.66456e-06
-3.78164e-06
2.70932e-07
2.1802e-06
-4.29358e-06
-1.1264e-06
9.52577e-07
-3.40814e-06
-2.16925e-06
-7.49995e-08
-1.87867e-06
-2.95449e-06
-9.11255e-07
1.61573e-08
-3.42297e-06
-1.7902e-06
2.25347e-06
-3.53784e-06
-2.56401e-06
4.63789e-06
-3.30499e-06
-3.00174e-06
6.68754e-06
-2.54736e-06
-2.92729e-06
7.86644e-06
-1.51691e-06
-2.23157e-06
7.84514e-06
-4.04155e-07
-1.15467e-06
6.68019e-06
7.90194e-07
-2.71135e-07
4.81027e-06
2.17788e-06
1.34222e-07
2.84958e-06
4.20778e-06
-6.8759e-08
1.11764e-06
6.98251e-06
-7.33363e-07
-9.29372e-07
8.98028e-06
-5.29092e-07
-1.35385e-06
9.43694e-06
-2.1603e-06
9.66376e-06
-4.45372e-06
-3.2628e-06
-3.50253e-06
7.93221e-08
-2.41263e-06
-3.98667e-06
-4.55837e-07
-2.16665e-06
-3.30229e-06
2.20831e-07
-1.63919e-06
-3.42689e-06
1.34457e-07
-1.14429e-06
-2.61496e-06
1.63769e-07
-6.14854e-07
-2.22168e-06
8.22033e-08
-3.10927e-07
-6.60418e-07
-4.56686e-08
-2.00941e-07
-5.45708e-08
-2.34785e-08
-3.21046e-07
4.72966e-07
-7.38238e-08
-4.57349e-07
3.90027e-07
-9.67798e-08
-5.40619e-07
2.45797e-07
-1.66184e-07
-6.00138e-07
9.69107e-08
-2.25535e-07
-6.25041e-07
4.01052e-08
-2.65486e-07
-6.06612e-07
-3.91599e-08
-3.00044e-07
-5.43245e-07
-8.20483e-08
-3.19823e-07
-4.56837e-07
-1.25298e-07
-3.37308e-07
-3.75553e-07
-1.10557e-07
-3.36641e-07
-2.95428e-07
-1.15051e-07
-3.4096e-07
-2.35229e-07
-8.84657e-08
-3.3366e-07
-1.87357e-07
-7.1906e-08
-3.30514e-07
-1.55226e-07
-4.62227e-08
-3.2588e-07
-1.33695e-07
-2.45743e-08
-3.24365e-07
-1.21807e-07
-2.00562e-09
-3.2335e-07
-1.1508e-07
1.55792e-08
-3.22563e-07
-1.12562e-07
3.26222e-08
-3.22311e-07
-1.12474e-07
4.83264e-08
-3.22833e-07
-1.1329e-07
6.27805e-08
-3.23817e-07
-1.1438e-07
7.66606e-08
-3.24851e-07
-1.15894e-07
9.05914e-08
-3.25763e-07
-1.17889e-07
1.04243e-07
-3.26541e-07
-1.21191e-07
1.17137e-07
-3.27289e-07
-1.24443e-07
1.32574e-07
-3.27144e-07
-1.27973e-07
1.41668e-07
-3.28994e-07
-1.31675e-07
1.64017e-07
-3.2806e-07
-1.31667e-07
1.61443e-07
-3.33502e-07
-1.37357e-07
2.01261e-07
-3.29031e-07
-1.29977e-07
1.753e-07
-3.39524e-07
-1.38893e-07
2.43263e-07
-3.29052e-07
-1.23426e-07
1.82292e-07
-3.44645e-07
-1.41598e-07
2.87122e-07
-3.23963e-07
-1.39624e-07
1.78831e-07
-3.37212e-07
-1.81616e-07
3.20102e-07
-3.0541e-07
-2.55298e-07
1.85673e-07
-2.97917e-07
-3.39205e-07
2.98986e-07
-2.73407e-07
-5.00559e-07
2.00584e-07
-2.47813e-07
-5.8873e-07
1.99209e-07
-2.60629e-07
-6.86894e-07
2.13955e-07
-2.16128e-07
-7.60303e-07
4.11373e-08
-2.4811e-07
-5.08922e-07
2.62933e-07
-1.55661e-07
-6.86313e-07
-1.71537e-07
-1.41152e-07
-7.15711e-07
6.88996e-07
2.48166e-09
-6.36855e-07
-1.08941e-07
-3.48797e-07
-1.39409e-07
-1.24483e-06
-3.96545e-07
3.40706e-06
-3.73653e-06
-1.35771e-06
-5.89536e-07
-3.131e-06
1.85103e-06
-7.34964e-06
-3.04483e-06
2.36521e-06
4.41899e-06
3.34374e-06
-3.84254e-06
3.43789e-07
2.1135e-05
-1.92939e-06
1.92424e-06
9.46052e-06
6.7593e-07
1.12691e-06
-3.82741e-05
-1.46671e-06
-1.10555e-06
-4.50435e-05
3.99879e-06
-7.02142e-07
-1.97738e-05
1.77802e-06
7.7563e-06
-2.29149e-05
-2.10438e-06
9.29103e-06
-1.88447e-06
-4.37807e-06
1.23897e-05
2.33388e-06
-5.15435e-06
1.56961e-05
3.71048e-06
-4.48813e-06
1.75545e-05
5.09993e-06
-2.89416e-06
1.80735e-05
6.14199e-06
-1.48883e-06
1.77716e-05
6.48839e-06
-4.17887e-07
1.69726e-05
6.09125e-06
5.98073e-07
1.59893e-05
5.42523e-06
1.38504e-06
1.46959e-05
5.67937e-06
1.76173e-06
1.2758e-05
5.84174e-06
2.04716e-06
9.66831e-06
5.81421e-06
2.63307e-06
4.85747e-06
6.43624e-06
3.50589e-06
-2.00628e-06
7.13073e-06
4.42029e-06
-8.16272e-06
6.02226e-06
3.92593e-06
-1.11435e-05
3.9583e-06
2.31819e-06
-1.18266e-05
1.91806e-06
8.57059e-07
-1.13962e-05
4.28514e-07
-5.88017e-07
-1.02677e-05
-5.6583e-07
-1.68909e-06
-8.69172e-06
-1.22152e-06
-2.52371e-06
-6.79395e-06
-1.73284e-06
-3.11942e-06
-4.57693e-06
-2.04586e-06
-3.59414e-06
-2.10176e-06
-2.19021e-06
-3.8228e-06
3.66492e-07
-2.21464e-06
-3.55861e-06
2.40314e-06
-1.87443e-06
-2.70958e-06
3.2117e-06
-1.02312e-06
-1.30235e-06
2.69139e-06
-5.17044e-08
1.6786e-07
1.28177e-06
1.37634e-06
8.23467e-07
-4.1596e-07
3.24496e-06
6.30659e-07
-1.79562e-06
5.62969e-06
-4.22465e-08
-2.61653e-06
8.55537e-06
-7.51942e-07
-3.04218e-06
1.03917e-05
-9.85781e-07
-2.08831e-06
1.11191e-05
-2.63599e-06
1.19253e-05
-4.34986e-06
-3.95826e-06
-3.68988e-06
3.19024e-07
-2.97264e-06
-4.33703e-06
-6.35256e-07
-2.70302e-06
-3.70043e-06
1.28536e-07
-1.98261e-06
-4.0854e-06
-6.18743e-08
-1.53274e-06
-3.30801e-06
2.43192e-07
-1.00802e-06
-3.02507e-06
2.78696e-07
-6.09506e-07
-1.30988e-06
2.50949e-07
-2.69819e-07
-5.52564e-07
1.58309e-07
-1.50409e-07
3.65754e-07
-1.22039e-08
-1.83266e-07
4.78597e-07
-5.57158e-08
-2.56403e-07
4.48479e-07
-1.29553e-07
-4.21324e-07
4.12196e-07
-1.5037e-07
-5.20588e-07
3.41156e-07
-2.01794e-07
-5.62184e-07
2.43701e-07
-2.41271e-07
-5.27724e-07
1.62389e-07
-2.78905e-07
-4.67198e-07
1.18433e-07
-3.04264e-07
-3.97101e-07
1.3948e-07
-3.20143e-07
-3.25544e-07
1.48929e-07
-3.35544e-07
-2.65925e-07
1.90222e-07
-3.38316e-07
-2.14832e-07
2.17673e-07
-3.4068e-07
-1.77945e-07
2.54089e-07
-3.37207e-07
-1.52052e-07
2.8345e-07
-3.33925e-07
-1.34953e-07
3.1066e-07
-3.29772e-07
-1.26178e-07
3.33509e-07
-3.26713e-07
-1.23562e-07
3.54164e-07
-3.24164e-07
-1.24288e-07
3.7142e-07
-3.22374e-07
-1.25878e-07
3.85549e-07
-3.21185e-07
-1.27229e-07
3.9818e-07
-3.20174e-07
-1.28327e-07
4.10742e-07
-3.19057e-07
-1.29562e-07
4.23114e-07
-3.17642e-07
-1.31782e-07
4.35272e-07
-3.1592e-07
-1.33843e-07
4.48412e-07
-3.13781e-07
-1.36108e-07
4.56743e-07
-3.12813e-07
-1.38397e-07
4.75188e-07
-3.08886e-07
-1.36271e-07
4.69992e-07
-3.10677e-07
-1.40905e-07
5.07644e-07
-3.01751e-07
-1.33284e-07
4.76514e-07
-3.08836e-07
-1.45136e-07
5.46491e-07
-2.91377e-07
-1.39107e-07
4.7791e-07
-3.01648e-07
-1.66e-07
5.88002e-07
-2.73987e-07
-1.93999e-07
4.84392e-07
-2.77562e-07
-2.44342e-07
6.1923e-07
-2.48784e-07
-3.66163e-07
5.37532e-07
-2.30037e-07
-4.47533e-07
6.08588e-07
-2.2823e-07
-6.66948e-07
6.15624e-07
-1.95625e-07
-7.45698e-07
5.29119e-07
-2.51157e-07
-8.5693e-07
5.48841e-07
-2.23654e-07
-9.02035e-07
3.73729e-07
-2.87484e-07
-4.97857e-07
9.66083e-08
-2.37854e-07
-5.14476e-07
7.80622e-08
-2.32978e-07
-5.00183e-07
5.2732e-07
1.47383e-07
1.8449e-07
-5.12371e-07
-2.81238e-07
8.30405e-07
-1.44005e-06
-4.50697e-07
2.63329e-06
-4.29794e-06
-1.24147e-06
-1.22898e-06
-7.73207e-07
1.50447e-06
-6.79949e-06
2.62798e-06
-1.02282e-07
6.8127e-06
-5.58343e-06
-4.68503e-06
1.06603e-05
2.45994e-05
-7.3121e-06
1.0938e-05
-3.10672e-07
9.49333e-06
1.29624e-06
-2.86633e-05
3.09331e-08
-2.65938e-06
-4.42439e-05
3.1561e-06
-6.68629e-06
-1.87166e-05
2.96977e-06
-5.63001e-06
-2.2089e-05
-1.8822e-06
6.51672e-07
-3.90925e-06
-4.25692e-06
8.17797e-06
-1.44808e-06
-3.74438e-06
1.07024e-05
3.69909e-06
-2.51304e-06
1.21446e-05
5.0335e-06
-1.37574e-06
1.25678e-05
5.77545e-06
-5.67182e-08
1.19048e-05
5.77145e-06
1.37992e-06
1.03398e-05
5.21921e-06
2.43709e-06
7.33209e-06
5.10165e-06
3.33127e-06
2.83672e-06
6.37845e-06
3.79629e-06
-4.24013e-06
8.5516e-06
4.36699e-06
-1.19862e-05
9.43352e-06
4.12674e-06
-1.80149e-05
9.10433e-06
3.36059e-06
-2.10515e-05
7.78082e-06
2.38657e-06
-2.21424e-05
6.13395e-06
9.79181e-07
-2.23109e-05
4.51879e-06
-3.92011e-07
-2.18176e-05
3.04835e-06
-1.62354e-06
-2.08006e-05
1.86089e-06
-2.44941e-06
-1.93056e-05
7.81309e-07
-2.84218e-06
-1.74423e-05
-2.116e-07
-2.8732e-06
-1.50957e-05
-1.24237e-06
-2.83705e-06
-1.24041e-05
-1.95194e-06
-2.78554e-06
-9.50116e-06
-2.40042e-06
-2.69276e-06
-6.66829e-06
-2.60403e-06
-2.44348e-06
-4.45777e-06
-2.15984e-06
-1.92512e-06
-3.47846e-06
-1.04678e-06
-9.55651e-07
-3.91801e-06
1.65525e-07
2.22318e-07
-4.88512e-06
1.60286e-06
7.4059e-07
-5.6041e-06
3.45781e-06
5.06129e-07
-5.9772e-06
6.11495e-06
-1.12156e-07
-5.81711e-06
9.0476e-06
-6.52316e-07
-5.08099e-06
1.08685e-05
-1.2129e-06
-2.97283e-06
1.17969e-05
-2.78594e-06
1.29599e-05
-4.00743e-06
-4.49769e-06
-3.67232e-06
3.3086e-07
-3.35041e-06
-4.58378e-06
-9.00513e-07
-3.16739e-06
-3.83667e-06
-4.6755e-08
-2.23899e-06
-4.42324e-06
-5.90541e-07
-1.72918e-06
-3.8292e-06
1.13975e-08
-1.02565e-06
-3.8219e-06
9.32995e-08
-5.62352e-07
-2.16539e-06
3.92223e-07
-3.31328e-07
-1.14517e-06
3.61573e-07
-1.5264e-07
7.99149e-08
1.07147e-07
-3.01043e-08
3.57444e-07
-1.39247e-09
1.84217e-08
4.92884e-07
-9.29371e-08
-1.87354e-07
6.85956e-07
-6.79946e-08
-3.64397e-07
6.61037e-07
-1.42845e-07
-4.7463e-07
5.48732e-07
-1.94808e-07
-4.67895e-07
4.19717e-07
-2.64071e-07
-4.25026e-07
3.78576e-07
-3.03021e-07
-3.7009e-07
4.14011e-07
-3.29475e-07
-3.19253e-07
4.46366e-07
-3.48284e-07
-2.7474e-07
5.02047e-07
-3.56346e-07
-2.35555e-07
5.3935e-07
-3.60871e-07
-2.06268e-07
5.82554e-07
-3.57761e-07
-1.85344e-07
6.14598e-07
-3.52081e-07
-1.7313e-07
6.42641e-07
-3.44204e-07
-1.68102e-07
6.64858e-07
-3.36384e-07
-1.68346e-07
6.8327e-07
-3.28869e-07
-1.71673e-07
6.9735e-07
-3.2261e-07
-1.76318e-07
7.07807e-07
-3.17619e-07
-1.80639e-07
7.16004e-07
-3.13508e-07
-1.84043e-07
7.24171e-07
-3.1003e-07
-1.86574e-07
7.32396e-07
-3.06756e-07
-1.88975e-07
7.40838e-07
-3.0317e-07
-1.90186e-07
7.49142e-07
-2.99523e-07
-1.92412e-07
7.54851e-07
-2.95886e-07
-1.93009e-07
7.65883e-07
-2.901e-07
-1.9367e-07
7.59694e-07
-2.89043e-07
-1.97053e-07
7.88403e-07
-2.77378e-07
-1.9972e-07
7.60629e-07
-2.81448e-07
-2.11451e-07
8.17772e-07
-2.59553e-07
-2.30209e-07
7.63795e-07
-2.67127e-07
-2.55793e-07
8.50634e-07
-2.37049e-07
-3.22254e-07
7.89183e-07
-2.38329e-07
-3.58647e-07
8.73466e-07
-2.17844e-07
-5.09268e-07
8.83757e-07
-1.95602e-07
-5.50708e-07
8.68056e-07
-2.18029e-07
-7.50658e-07
1.00461e-06
-1.89037e-07
-7.75277e-07
8.13863e-07
-2.60125e-07
-8.37185e-07
8.88647e-07
-2.77895e-07
-8.01993e-07
6.98171e-07
-3.59635e-07
-7.06404e-07
2.88866e-07
-2.87843e-07
-6.23754e-07
3.93356e-07
-3.97945e-07
-1.95078e-07
3.46842e-07
-2.48192e-07
-3.38367e-07
-4.07586e-07
3.85042e-08
-5.18022e-07
-6.20507e-07
-6.39875e-07
-2.32311e-06
-1.52808e-06
-9.64764e-07
6.38632e-07
-3.84926e-06
1.14333e-07
6.99391e-06
1.44489e-06
-5.1722e-06
1.18166e-05
-4.63583e-06
-5.77032e-06
1.95085e-05
2.4509e-05
-7.60144e-06
1.35954e-05
-1.05914e-05
1.61937e-05
2.14939e-06
-1.82189e-05
1.0015e-06
-8.33723e-06
-3.73426e-05
3.58556e-06
-1.28249e-05
-1.73311e-05
3.10231e-06
-1.3649e-05
-2.05034e-05
-7.61365e-07
-6.65139e-06
-8.93042e-06
-1.97648e-06
-1.95712e-06
-5.34198e-06
-8.00367e-07
7.72636e-07
5.28301e-07
4.41043e-07
1.67514e-06
2.35159e-06
1.77942e-06
3.96828e-07
4.10927e-06
2.94452e-06
-3.4038e-06
5.62061e-06
3.95151e-06
-1.04539e-05
7.61247e-06
4.65692e-06
-1.8779e-05
9.29547e-06
4.13133e-06
-2.61062e-05
1.02387e-05
3.46697e-06
-3.08718e-05
1.03953e-05
2.92198e-06
-3.36266e-05
1.00089e-05
2.17947e-06
-3.55927e-05
9.72783e-06
1.34273e-06
-3.66719e-05
8.48294e-06
3.77167e-07
-3.70502e-05
7.12414e-06
-6.1183e-07
-3.67785e-05
5.62167e-06
-1.37446e-06
-3.60511e-05
4.0589e-06
-1.7379e-06
-3.49087e-05
2.32378e-06
-1.60525e-06
-3.34781e-05
5.68429e-07
-1.21772e-06
-3.18367e-05
-1.11385e-06
-7.3907e-07
-2.9703e-05
-2.84407e-06
-5.31948e-07
-2.6919e-05
-4.24066e-06
-4.95305e-07
-2.33153e-05
-5.29572e-06
-7.08415e-07
-1.91704e-05
-5.79404e-06
-9.54872e-07
-1.52182e-05
-5.08093e-06
-1.03105e-06
-1.23476e-05
-3.20516e-06
-7.12271e-07
-1.06366e-05
-1.44364e-06
-1.0184e-07
-1.02865e-05
7.16087e-07
5.36704e-07
-1.0299e-05
2.81831e-06
6.5196e-07
-9.8417e-06
5.24536e-06
4.12329e-07
-8.64094e-06
7.97035e-06
-1.2351e-07
-6.48155e-06
9.68481e-06
-9.75684e-07
-3.4105e-06
1.12512e-05
-2.52536e-06
1.28368e-05
-3.28735e-06
-4.8821e-06
-3.30421e-06
2.51984e-07
-3.53995e-06
-4.51045e-06
-1.41546e-06
-3.41553e-06
-3.49018e-06
-4.7089e-07
-2.30963e-06
-4.12122e-06
-1.40789e-06
-1.76953e-06
-3.6519e-06
-7.17389e-07
-9.00562e-07
-3.93352e-06
-7.57337e-07
-2.07787e-07
-2.754e-06
-1.04177e-07
-8.99298e-08
-1.54099e-06
2.77959e-07
-8.62268e-08
-1.10259e-07
1.8646e-07
1.86918e-08
2.07181e-07
4.53366e-08
1.47339e-07
4.32178e-07
-6.79539e-08
-3.215e-08
8.48217e-07
1.72197e-08
-2.1114e-07
9.11114e-07
-7.10998e-08
-3.46111e-07
8.2522e-07
-1.41527e-07
-3.52962e-07
6.84784e-07
-2.58226e-07
-3.39397e-07
6.76992e-07
-3.11991e-07
-3.19416e-07
7.40363e-07
-3.46344e-07
-3.06283e-07
7.90951e-07
-3.57727e-07
-2.9217e-07
8.54334e-07
-3.66409e-07
-2.77157e-07
8.93578e-07
-3.69251e-07
-2.65184e-07
9.37291e-07
-3.66719e-07
-2.5715e-07
9.66672e-07
-3.60117e-07
-2.53988e-07
9.91257e-07
-3.51787e-07
-2.55478e-07
1.00912e-06
-3.42778e-07
-2.60098e-07
1.02212e-06
-3.34239e-07
-2.66589e-07
1.02994e-06
-3.2611e-07
-2.73772e-07
1.03337e-06
-3.18389e-07
-2.80161e-07
1.03349e-06
-3.11098e-07
-2.85721e-07
1.03397e-06
-3.04245e-07
-2.90477e-07
1.03517e-06
-2.98028e-07
-2.95172e-07
1.0374e-06
-2.91866e-07
-2.98575e-07
1.03892e-06
-2.86383e-07
-3.03165e-07
1.04027e-06
-2.80838e-07
-3.03269e-07
1.04103e-06
-2.75048e-07
-3.08328e-07
1.03394e-06
-2.69189e-07
-3.07427e-07
1.04744e-06
-2.59937e-07
-3.2223e-07
1.02986e-06
-2.54426e-07
-3.26391e-07
1.06229e-06
-2.40354e-07
-3.69313e-07
1.04064e-06
-2.33924e-07
-3.82413e-07
1.08357e-06
-2.19841e-07
-4.78211e-07
1.09268e-06
-2.07697e-07
-4.91698e-07
1.09588e-06
-2.08922e-07
-6.35378e-07
1.21834e-06
-1.90902e-07
-6.27787e-07
1.08462e-06
-2.24155e-07
-7.6773e-07
1.37103e-06
-2.26478e-07
-7.3091e-07
1.0529e-06
-2.75856e-07
-8.38494e-07
1.31594e-06
-3.19715e-07
-7.81478e-07
1.03665e-06
-3.95491e-07
-1.03828e-06
8.53818e-07
-3.08149e-07
-9.63907e-07
8.59093e-07
-5.40109e-07
-7.75182e-07
8.00236e-07
-6.4212e-07
-1.25449e-06
4.16573e-07
-3.44843e-07
3.73614e-08
-7.71785e-07
-1.14057e-06
-4.93026e-07
-8.61174e-08
-9.11557e-07
7.16041e-07
-4.57124e-06
-4.87089e-07
9.53461e-06
-1.21351e-06
-6.16017e-06
1.35971e-05
1.89707e-06
-1.05954e-05
3.08093e-05
1.57022e-05
-8.40547e-06
6.78579e-06
-8.28055e-06
2.17125e-05
-4.18626e-06
-8.81401e-06
1.56725e-06
-2.7615e-05
-1.82176e-05
4.30465e-06
-3.52031e-05
-1.27979e-05
3.05598e-06
-4.14512e-05
-1.43838e-05
1.29298e-07
-3.96118e-05
-1.02916e-05
-4.77488e-07
-3.84447e-05
-7.22305e-06
7.14499e-07
-3.72002e-05
-2.38403e-06
1.66837e-06
-3.81454e-05
7.4523e-07
2.55206e-06
-4.04342e-05
3.67095e-06
2.72766e-06
-4.37717e-05
5.95563e-06
3.00311e-06
-4.68344e-05
7.91119e-06
2.76469e-06
-4.93107e-05
9.25544e-06
2.517e-06
-5.13636e-05
1.02544e-05
2.03791e-06
-5.29334e-05
1.04634e-05
1.50244e-06
-5.41004e-05
1.01903e-05
9.86401e-07
-5.39513e-05
9.2509e-06
3.28825e-07
-5.30904e-05
7.99145e-06
-3.68367e-07
-5.18263e-05
6.76177e-06
-9.00614e-07
-5.02497e-05
5.22106e-06
-1.17505e-06
-4.85519e-05
3.39844e-06
-1.0364e-06
-4.67784e-05
1.22976e-06
-6.78685e-07
-4.48979e-05
-1.00527e-06
-3.06007e-07
-4.35134e-05
-3.02214e-06
5.24519e-07
-4.21261e-05
-5.01181e-06
7.8112e-07
-4.08345e-05
-6.8327e-06
1.30096e-06
-3.93048e-05
-8.33534e-06
1.5105e-06
-3.71875e-05
-9.34073e-06
1.42989e-06
-3.3477e-05
-9.4301e-06
6.39016e-07
-2.83311e-05
-8.15305e-06
-1.97913e-07
-2.30269e-05
-6.31194e-06
-4.35721e-07
-1.85587e-05
-3.56339e-06
-1.88729e-07
-1.5565e-05
-5.34413e-07
3.5901e-07
-1.2864e-05
2.20285e-06
3.41552e-07
-1.01059e-05
5.45331e-06
-2.41135e-07
-7.41029e-06
8.09321e-06
-1.10396e-06
-3.8158e-06
9.85016e-06
-2.19348e-06
1.16278e-05
-2.60686e-06
-5.21998e-06
-2.33445e-06
1.64732e-07
-3.65594e-06
-4.01382e-06
-2.06065e-06
-3.64935e-06
-2.78825e-06
-7.08502e-07
-2.46155e-06
-3.37413e-06
-1.93487e-06
-1.81089e-06
-2.94498e-06
-1.35757e-06
-9.45585e-07
-3.34261e-06
-1.45622e-06
4.61928e-10
-2.6624e-06
-1.03764e-06
2.79243e-07
-1.44584e-06
-3.73944e-07
2.2408e-07
-3.68664e-08
-1.82399e-08
1.58544e-07
3.03769e-07
-3.10663e-08
1.88803e-07
5.14428e-07
-1.12521e-07
9.83012e-08
9.22077e-07
1.66267e-08
3.12837e-08
1.10473e-06
-1.26609e-07
-3.6709e-08
1.10243e-06
-2.09227e-07
-8.5999e-08
1.10169e-06
-3.6763e-07
-1.50273e-07
1.15487e-06
-4.13616e-07
-2.05757e-07
1.26249e-06
-4.66654e-07
-2.55702e-07
1.32391e-06
-4.83022e-07
-2.93308e-07
1.3958e-06
-5.03872e-07
-3.22424e-07
1.43968e-06
-5.16995e-07
-3.46726e-07
1.48759e-06
-5.26004e-07
-3.6713e-07
1.51943e-06
-5.3236e-07
-3.8181e-07
1.54085e-06
-5.34918e-07
-3.93176e-07
1.55515e-06
-5.34679e-07
-4.0212e-07
1.56446e-06
-5.33399e-07
-4.09053e-07
1.56949e-06
-5.32622e-07
-4.15129e-07
1.57123e-06
-5.31788e-07
-4.20759e-07
1.57056e-06
-5.31455e-07
-4.25954e-07
1.57018e-06
-5.31018e-07
-4.30702e-07
1.57042e-06
-5.30504e-07
-4.35642e-07
1.57196e-06
-5.29632e-07
-4.40155e-07
1.57306e-06
-5.29628e-07
-4.46955e-07
1.57605e-06
-5.28977e-07
-4.49497e-07
1.57485e-06
-5.31279e-07
-4.6123e-07
1.57424e-06
-5.28575e-07
-4.61515e-07
1.57769e-06
-5.29971e-07
-4.89803e-07
1.57866e-06
-5.20515e-07
-4.87597e-07
1.582e-06
-5.21923e-07
-5.5012e-07
1.60654e-06
-5.03376e-07
-5.46882e-07
1.5899e-06
-5.09569e-07
-6.5589e-07
1.68582e-06
-4.84137e-07
-6.30311e-07
1.57896e-06
-5.08663e-07
-7.36576e-07
1.81805e-06
-4.93445e-07
-6.61571e-07
1.54095e-06
-5.31337e-07
-6.92494e-07
1.96445e-06
-5.62493e-07
-5.8487e-07
1.53417e-06
-5.88898e-07
-6.38981e-07
2.04181e-06
-6.71753e-07
-6.30566e-07
1.72375e-06
-6.95521e-07
-9.99305e-07
1.99132e-06
-7.68764e-07
-1.09233e-06
1.85976e-06
-9.07643e-07
-9.75156e-07
1.93109e-06
-1.24802e-06
-1.27544e-06
1.86337e-06
-1.14651e-06
-4.43038e-07
2.32829e-07
-1.837e-06
-4.18806e-07
1.05674e-06
-1.16708e-06
-4.18964e-07
-2.27997e-06
-2.29108e-06
8.94309e-06
-5.39038e-07
-1.00365e-05
1.17735e-05
1.28703e-05
-1.38037e-05
3.35621e-05
6.0284e-06
-1.21147e-05
8.72039e-06
-6.70769e-06
2.32688e-05
-6.11575e-06
3.16212e-06
2.86026e-06
-3.9348e-05
8.8783e-06
6.13818e-06
-5.45634e-05
-1.41642e-06
3.83668e-06
-6.50867e-05
-3.48581e-06
-3.71804e-07
-7.00194e-05
-5.03652e-06
-3.193e-07
-7.29464e-05
-4.35438e-06
6.12768e-08
-7.34302e-05
-2.60799e-06
7.10679e-07
-7.3717e-05
-2.08148e-07
1.24297e-06
-7.38856e-05
2.3096e-06
1.53286e-06
-7.39876e-05
4.35703e-06
1.70384e-06
-7.39745e-05
6.23914e-06
1.66249e-06
-7.38384e-05
7.55829e-06
1.56486e-06
-7.34584e-05
8.68467e-06
1.19355e-06
-7.25619e-05
9.2452e-06
3.25461e-07
-7.12386e-05
9.23223e-06
-3.61582e-07
-6.92006e-05
8.76264e-06
-1.5463e-06
-6.68644e-05
7.93531e-06
-2.27664e-06
-6.38486e-05
6.66056e-06
-2.91121e-06
-6.04189e-05
4.94532e-06
-3.15068e-06
-5.66344e-05
2.7499e-06
-3.13297e-06
-5.30066e-05
3.95428e-07
-2.79101e-06
-5.00135e-05
-1.9921e-06
-2.00412e-06
-4.84255e-05
-4.30241e-06
-3.05755e-07
-4.7713e-05
-6.08485e-06
3.62545e-07
-4.8446e-05
-7.71985e-06
1.62238e-06
-5.0497e-05
-8.82903e-06
2.54714e-06
-5.2601e-05
-9.85791e-06
2.6239e-06
-5.40546e-05
-9.86214e-06
1.88836e-06
-5.35649e-05
-9.1677e-06
5.27848e-07
-5.15687e-05
-7.48052e-06
-8.24577e-07
-4.82992e-05
-5.76215e-06
-1.06759e-06
-4.42492e-05
-3.59601e-06
-9.8531e-07
-3.93557e-05
-1.29537e-06
-1.39254e-06
-3.21223e-05
2.39885e-07
-2.01783e-06
-2.27435e-05
1.2331e-06
-2.51683e-06
-1.28205e-05
2.52869e-06
-2.60003e-06
1.34473e-06
-2.53687e-06
-5.16349e-06
4.43225e-07
2.45028e-06
-3.82194e-06
-3.87922e-06
-1.47613e-06
-3.9898e-06
-1.8599e-06
-7.60478e-07
-2.75674e-06
-2.62167e-06
-1.9855e-06
-2.01369e-06
-2.10096e-06
-1.58707e-06
-1.03777e-06
-2.61952e-06
-1.69901e-06
1.17956e-07
-2.27528e-06
-1.54285e-06
4.20718e-07
-1.04255e-06
-7.0606e-07
3.29792e-07
2.51076e-07
-1.97032e-07
2.62794e-07
2.82015e-07
8.87387e-08
2.37796e-07
3.62769e-07
1.76641e-07
2.36955e-07
5.76895e-07
3.4601e-07