/*--------------------------------*- C++ -*----------------------------------*\
| =========                 |                                                 |
| \\      /  F ield         | OpenFOAM: The Open Source CFD Toolbox           |
|  \\    /   O peration     | Version:  2.3.0                                 |
|   \\  /    A nd           | Web:      www.OpenFOAM.org                      |
|    \\/     M anipulation  |                                                 |
\*---------------------------------------------------------------------------*/
FoamFile
{
    version     2.0;
    format      ascii;
    class       surfaceScalarField;
    location    "21";
    object      phi.air;
}
// * * * * * * * * * * * * * * * * * * * * * * * * * * * * * * * * * * * * * //

dimensions      [0 3 -1 0 0 0 0];

internalField   nonuniform List<scalar> 
16448
(
-1.86049e-06
-2.01216e-06
7.69875e-07
-6.79036e-07
-2.07524e-06
8.9378e-07
-2.91313e-07
-1.51574e-06
1.12802e-06
6.93975e-08
-1.42738e-06
1.06667e-06
1.44373e-07
-9.48333e-07
8.73363e-07
2.10309e-07
-8.3099e-07
7.65059e-07
1.28503e-07
-4.76187e-07
5.57996e-07
-5.51162e-08
-3.43447e-07
5.27068e-07
-3.22542e-07
-2.46964e-07
5.1439e-07
-5.33125e-07
-2.17498e-07
4.28079e-07
-6.48096e-07
-2.53959e-07
3.68928e-07
-6.01966e-07
-3.37417e-07
2.91283e-07
-4.9588e-07
-3.8684e-07
2.8075e-07
-3.41468e-07
-4.28495e-07
2.74081e-07
-2.31923e-07
-4.35085e-07
3.25537e-07
-1.35737e-07
-4.55124e-07
3.58934e-07
-7.89414e-08
-4.6081e-07
4.04009e-07
-3.57599e-08
-4.74227e-07
4.31041e-07
-9.83925e-09
-4.81079e-07
4.55152e-07
6.69732e-09
-4.85355e-07
4.68813e-07
1.56331e-08
-4.86279e-07
4.77338e-07
2.02285e-08
-4.85298e-07
4.80697e-07
2.21065e-08
-4.82855e-07
4.80971e-07
2.2696e-08
-4.79512e-07
4.78917e-07
2.25311e-08
-4.75303e-07
4.75463e-07
2.18108e-08
-4.70467e-07
4.71182e-07
2.0638e-08
-4.65398e-07
4.66566e-07
1.91808e-08
-4.60397e-07
4.61849e-07
1.75643e-08
-4.55401e-07
4.57013e-07
1.48102e-08
-4.49613e-07
4.52363e-07
1.33248e-08
-4.45526e-07
4.47007e-07
7.30294e-09
-4.37616e-07
4.43634e-07
7.1001e-09
-4.36149e-07
4.36348e-07
-5.87187e-09
-4.23359e-07
4.36327e-07
-1.50844e-09
-4.28936e-07
4.2457e-07
-2.20951e-08
-4.08254e-07
4.28837e-07
-1.23804e-08
-4.2076e-07
4.11042e-07
-3.91038e-08
-3.9201e-07
4.1873e-07
-1.92865e-08
-4.1026e-07
3.90441e-07
-4.59165e-08
-3.7344e-07
4.00068e-07
1.37699e-09
-4.03552e-07
3.56256e-07
-5.78301e-09
-3.60797e-07
3.67955e-07
7.77559e-08
-4.06848e-07
3.23307e-07
1.34127e-07
-4.04272e-07
3.479e-07
1.87239e-07
-3.98935e-07
3.4582e-07
1.8547e-07
-4.58732e-07
4.605e-07
1.34271e-08
-3.63473e-07
5.35514e-07
-1.80698e-07
-4.49299e-07
6.43423e-07
-7.57731e-07
-2.12246e-07
7.89277e-07
-8.82229e-07
-5.58559e-07
6.83058e-07
-1.29677e-06
-3.79937e-07
7.94476e-07
-1.06607e-06
-8.34467e-07
6.03764e-07
-1.15325e-06
-5.47788e-07
6.34959e-07
-2.01358e-06
-1.73028e-07
1.03336e-06
-8.21869e-07
-3.08798e-06
1.89623e-06
-7.53288e-07
-2.9595e-06
2.89089e-06
-2.57087e-06
2.65748e-06
-8.41029e-07
-4.13442e-06
9.89643e-07
5.72669e-07
-8.85883e-06
2.6533e-06
1.7616e-06
-3.01516e-05
-1.9891e-05
1.20352e-05
-6.12012e-05
-1.66592e-05
2.44899e-06
-4.08183e-05
-3.35328e-06
2.40667e-06
8.65816e-07
2.36415e-06
-1.607e-06
2.97272e-05
-2.25257e-06
7.61665e-07
3.12122e-05
-1.58412e-06
-5.01402e-08
3.17757e-05
5.43253e-08
-5.93444e-07
3.16558e-05
1.07383e-06
-9.3519e-07
3.11593e-05
1.55643e-06
-1.07751e-06
3.032e-05
1.88865e-06
-1.08525e-06
2.91146e-05
2.18701e-06
-1.0136e-06
2.75595e-05
2.41343e-06
-8.79244e-07
2.57595e-05
2.5208e-06
-7.33589e-07
2.37885e-05
2.56059e-06
-5.98778e-07
2.16996e-05
2.50322e-06
-4.21894e-07
1.95014e-05
2.38533e-06
-1.83523e-07
1.73031e-05
2.09505e-06
1.12795e-07
1.51894e-05
1.69668e-06
4.27367e-07
1.34258e-05
1.01993e-06
7.37362e-07
1.2274e-05
1.03596e-07
1.02689e-06
1.14137e-05
-4.77557e-07
1.34125e-06
1.06137e-05
-8.77867e-07
1.69448e-06
9.78408e-06
-1.19532e-06
2.0292e-06
9.13188e-06
-1.64363e-06
2.27904e-06
8.87383e-06
-2.04982e-06
2.28444e-06
9.08458e-06
-2.39467e-06
2.15489e-06
9.75034e-06
-2.63241e-06
1.9374e-06
1.05379e-05
-2.47134e-06
1.67028e-06
1.13307e-05
-2.21342e-06
1.40374e-06
1.1651e-05
-1.6234e-06
1.29783e-06
1.13779e-05
-1.06722e-06
1.33346e-06
1.05104e-05
-3.86701e-07
1.25097e-06
8.62033e-06
6.18656e-07
1.29062e-06
5.6996e-06
2.01092e-06
9.24897e-07
1.24126e-06
3.44589e-06
1.17442e-06
-1.3448e-06
3.56225e-06
-6.81541e-07
3.05529e-06
-3.4558e-06
-2.46788e-06
-2.90996e-06
1.29883e-07
-1.6342e-06
-3.08408e-06
1.75167e-07
-1.28292e-06
-2.369e-06
5.01996e-07
-7.67214e-07
-2.20654e-06
2.63471e-07
-3.91732e-07
-1.49314e-06
1.69337e-07
-3.9331e-08
-1.25283e-06
6.94545e-08
-3.9694e-08
-4.829e-07
7.08564e-09
-2.83726e-07
-1.91841e-07
9.24316e-08
-5.99604e-07
-4.2374e-08
1.1129e-07
-7.8575e-07
-8.72898e-08
5.59388e-08
-8.6772e-07
-1.93583e-07
2.15924e-08
-7.89046e-07
-3.57434e-07
-5.86574e-08
-6.75042e-07
-4.28205e-07
-7.26399e-08
-5.19958e-07
-4.93564e-07
-9.00154e-08
-3.93426e-07
-5.02145e-07
-5.94754e-08
-2.72936e-07
-5.33007e-07
-4.26116e-08
-1.94551e-07
-5.3145e-07
-7.74997e-09
-1.3166e-07
-5.44985e-07
7.86087e-09
-9.14744e-08
-5.43828e-07
2.25577e-08
-6.3023e-08
-5.43757e-07
2.99446e-08
-4.58822e-08
-5.3822e-07
3.47937e-08
-3.50676e-08
-5.32073e-07
3.59542e-08
-2.89845e-08
-5.24171e-07
3.52271e-08
-2.55559e-08
-5.15851e-07
3.29045e-08
-2.38086e-08
-5.06963e-07
2.99074e-08
-2.30276e-08
-4.97664e-07
2.64102e-08
-2.29743e-08
-4.8825e-07
2.2793e-08
-2.38414e-08
-4.78881e-07
1.93464e-08
-2.55485e-08
-4.69594e-07
1.58951e-08
-2.80356e-08
-4.59812e-07
1.26814e-08
-3.00761e-08
-4.5238e-07
8.89088e-09
-3.55133e-08
-4.38836e-07
6.65357e-09
-3.86024e-08
-4.35064e-07
2.00137e-09
-5.01413e-08
-4.1384e-07
2.01682e-09
-4.99904e-08
-4.1999e-07
-9.1001e-09
-6.75058e-08
-3.85936e-07
-4.80436e-09
-6.01241e-08
-4.05601e-07
-2.25428e-08
-8.41181e-08
-3.54085e-07
-1.39324e-08
-6.14751e-08
-3.91821e-07
-4.10839e-08
-8.73171e-08
-3.19717e-07
-2.78822e-08
-2.82796e-08
-3.94651e-07
-6.79399e-08
-4.69733e-08
-2.96101e-07
-4.60032e-08
5.44692e-08
-4.27869e-07
-8.04224e-08
3.2318e-08
-3.39797e-07
-4.23244e-08
1.16123e-07
-4.53169e-07
-2.9572e-08
1.16063e-08
-4.07823e-07
5.36067e-08
-1.33231e-07
-3.22119e-07
1.03483e-07
-2.81653e-07
-4.70133e-07
1.69254e-07
-9.95728e-07
1.72274e-07
3.29555e-07
-1.12768e-06
-6.07417e-07
1.80807e-07
-2.00727e-06
7.80931e-08
4.21564e-07
-1.95194e-06
-9.67717e-07
7.79103e-08
-9.19895e-07
-1.21744e-06
-3.62397e-07
-1.26455e-06
5.94993e-08
1.12128e-07
-8.11803e-07
-3.78349e-06
2.42723e-07
2.29694e-06
-6.98628e-06
9.17988e-07
-3.5668e-06
9.93555e-06
-1.41564e-06
-1.16836e-05
8.10798e-06
9.97409e-07
-1.19751e-05
7.04231e-06
-4.3321e-06
-2.87054e-05
-3.60238e-05
4.67845e-06
-7.10251e-05
-2.44425e-05
1.6763e-06
-2.97258e-05
-6.7364e-06
2.58342e-07
1.46277e-05
-4.21434e-06
-2.70458e-06
1.89342e-05
-3.29766e-06
-3.65741e-06
2.18855e-05
-9.68801e-07
-3.407e-06
2.37428e-05
1.70258e-06
-3.379e-06
2.51407e-05
2.89314e-06
-3.20549e-06
2.5897e-05
3.61432e-06
-2.79077e-06
2.59723e-05
4.11774e-06
-2.27092e-06
2.55517e-05
4.47992e-06
-1.84152e-06
2.4707e-05
4.71568e-06
-1.4452e-06
2.35491e-05
4.81719e-06
-1.14599e-06
2.21815e-05
4.78147e-06
-8.72501e-07
2.04363e-05
4.73627e-06
-4.86107e-07
1.82188e-05
4.66694e-06
-6.19709e-08
1.59731e-05
3.91104e-06
3.94212e-07
1.40476e-05
2.75029e-06
8.40408e-07
1.22244e-05
1.68727e-06
1.17919e-06
1.01798e-05
7.34049e-07
1.456e-06
7.87438e-06
-8.50506e-08
1.89467e-06
5.27582e-06
-6.92326e-07
2.36122e-06
3.10905e-06
-1.3701e-06
2.28878e-06
2.05872e-06
-2.34745e-06
1.73088e-06
2.35617e-06
-3.315e-06
9.86119e-07
3.64679e-06
-3.8519e-06
1.90973e-07
5.4157e-06
-3.90723e-06
-4.7088e-07
7.18039e-06
-3.41152e-06
-8.1678e-07
8.39767e-06
-2.5609e-06
-8.5829e-07
8.86816e-06
-1.57496e-06
-5.10925e-07
8.5327e-06
-6.40249e-07
-8.25767e-08
7.50898e-06
4.49399e-07
1.90534e-07
5.7114e-06
2.18871e-06
2.77052e-07
3.46403e-06
4.51468e-06
-1.87439e-07
2.27798e-07
6.38522e-06
4.52947e-07
-1.55392e-06
6.82838e-06
-1.23036e-06
6.53995e-06
-4.04429e-06
-2.78227e-06
-3.29426e-06
1.39491e-08
-2.04544e-06
-3.59235e-06
-2.28556e-07
-1.79194e-06
-2.83549e-06
2.13008e-07
-1.30969e-06
-2.765e-06
7.62172e-08
-8.47492e-07
-1.9563e-06
9.84898e-10
-3.76447e-07
-1.61006e-06
-1.13804e-07
-2.42983e-07
-4.0217e-07
-2.14186e-07
-3.36788e-07
3.1934e-08
-1.29965e-07
-5.65861e-07
2.79036e-07
-9.23356e-08
-7.10029e-07
1.56949e-07
-1.00072e-07
-7.71392e-07
-3.65346e-09
-1.28569e-07
-7.36884e-07
-1.88138e-07
-2.03806e-07
-6.84846e-07
-2.50281e-07
-2.29966e-07
-5.99088e-07
-3.20769e-07
-2.58557e-07
-5.02691e-07
-3.38499e-07
-2.60048e-07
-3.94833e-07
-3.76191e-07
-2.64679e-07
-3.11856e-07
-3.65909e-07
-2.48524e-07
-2.3884e-07
-3.75878e-07
-2.42129e-07
-1.89554e-07
-3.61919e-07
-2.31202e-07
-1.52441e-07
-3.5454e-07
-2.26337e-07
-1.28735e-07
-3.39965e-07
-2.21967e-07
-1.12642e-07
-3.274e-07
-2.20772e-07
-1.02671e-07
-3.13461e-07
-2.20688e-07
-9.6583e-08
-3.0025e-07
-2.21695e-07
-9.32289e-08
-2.87165e-07
-2.23159e-07
-9.14514e-08
-2.74412e-07
-2.25035e-07
-9.06381e-08
-2.61847e-07
-2.27222e-07
-9.08814e-08
-2.49275e-07
-2.29368e-07
-9.23474e-08
-2.36681e-07
-2.31452e-07
-9.42826e-08
-2.24289e-07
-2.33592e-07
-9.72751e-08
-2.13449e-07
-2.35943e-07
-1.01108e-07
-1.9782e-07
-2.37188e-07
-1.05138e-07
-1.90852e-07
-2.40186e-07
-1.11015e-07
-1.67743e-07
-2.40222e-07
-1.11973e-07
-1.72048e-07
-2.46987e-07
-1.2021e-07
-1.33458e-07
-2.44244e-07
-1.13326e-07
-1.56841e-07
-2.55645e-07
-1.24357e-07
-9.47035e-08
-2.48352e-07
-1.03603e-07
-1.46885e-07
-2.65692e-07
-1.18335e-07
-5.50126e-08
-2.49974e-07
-8.40562e-08
-1.56407e-07
-2.72523e-07
-1.13309e-07
-2.72992e-08
-2.3955e-07
-9.31672e-08
-1.85927e-07
-2.62084e-07
-1.71414e-07
-5.83274e-08
-2.03223e-07
-2.02254e-07
-2.08585e-07
-2.13745e-07
-3.04034e-07
-1.4959e-07
-1.56453e-07
-3.85471e-07
-1.00339e-07
-1.40343e-07
-4.25523e-07
-2.80381e-07
-1.497e-07
-6.06847e-07
3.58651e-07
-5.05349e-09
-5.80371e-07
-4.9008e-07
-1.43813e-07
-1.33032e-06
6.62078e-07
1.65959e-07
-1.81283e-06
-3.78882e-07
-1.0632e-07
-1.25403e-06
-1.14393e-06
-6.32314e-07
2.17125e-06
-1.54778e-06
-1.818e-06
2.89121e-06
-5.27657e-06
7.73051e-07
2.20186e-06
-7.43974e-06
1.14275e-06
4.42144e-06
1.12698e-05
-3.55529e-06
-3.77033e-06
1.51305e-05
1.16939e-06
-5.15084e-06
1.17172e-05
-3.52757e-06
-2.89675e-05
-4.05676e-05
-1.47898e-07
-8.12239e-05
-3.35411e-05
3.10797e-06
-3.85052e-05
-1.65559e-05
6.70276e-07
1.63288e-05
-1.662e-05
-3.50234e-06
2.03082e-05
-4.75121e-06
-3.03806e-06
2.16152e-05
3.14285e-07
-2.30351e-06
2.2807e-05
2.50329e-06
-2.05506e-06
2.34139e-05
4.02779e-06
-1.91998e-06
2.33681e-05
5.13152e-06
-1.58376e-06
2.28144e-05
5.73343e-06
-1.12148e-06
2.19964e-05
5.86736e-06
-6.05504e-07
2.09685e-05
5.83123e-06
-7.96436e-08
1.93748e-05
6.14964e-06
2.81301e-07
1.75393e-05
5.93201e-06
6.61843e-07
1.57988e-05
5.33812e-06
1.11872e-06
1.3877e-05
5.15026e-06
1.47258e-06
1.12777e-05
4.72686e-06
1.85648e-06
7.56508e-06
3.82568e-06
2.68605e-06
2.13407e-06
3.28322e-06
3.7703e-06
-2.93612e-06
2.07906e-06
3.68174e-06
-5.48199e-06
2.75267e-07
2.18285e-06
-6.00341e-06
-1.11231e-06
9.49622e-07
-5.13391e-06
-2.15195e-06
-7.1302e-08
-3.60718e-06
-2.93692e-06
-9.14587e-07
-1.69555e-06
-3.40547e-06
-1.79591e-06
5.52323e-07
-3.52352e-06
-2.57132e-06
2.92374e-06
-3.29576e-06
-3.01052e-06
4.95533e-06
-2.55069e-06
-2.93646e-06
6.12313e-06
-1.51842e-06
-2.23845e-06
6.09119e-06
-4.03793e-07
-1.15675e-06
4.91873e-06
7.8852e-07
-2.68277e-07
3.05229e-06
2.1726e-06
1.37413e-07
1.14204e-06
4.20106e-06
-6.60333e-08
-4.84644e-07
6.98053e-06
-7.32139e-07
-2.30576e-06
8.99043e-06
-5.30907e-07
-2.45129e-06
9.44788e-06
-2.17189e-06
9.67293e-06
-4.4491e-06
-3.2628e-06
-3.50253e-06
7.93221e-08
-2.41264e-06
-3.98667e-06
-4.55837e-07
-2.16665e-06
-3.30229e-06
2.20831e-07
-1.63919e-06
-3.42689e-06
1.34457e-07
-1.14429e-06
-2.61496e-06
1.63769e-07
-6.14855e-07
-2.22168e-06
8.22033e-08
-3.10928e-07
-6.60418e-07
-4.56686e-08
-2.00942e-07
-5.45708e-08
-2.34785e-08
-3.21047e-07
4.72966e-07
-7.38238e-08
-4.5735e-07
3.90027e-07
-9.67798e-08
-5.4062e-07
2.45797e-07
-1.66184e-07
-6.00139e-07
9.69107e-08
-2.25535e-07
-6.25042e-07
4.01052e-08
-2.65486e-07
-6.06613e-07
-3.91599e-08
-3.00044e-07
-5.43246e-07
-8.20483e-08
-3.19823e-07
-4.56838e-07
-1.25298e-07
-3.37308e-07
-3.75554e-07
-1.10557e-07
-3.36641e-07
-2.95429e-07
-1.15051e-07
-3.4096e-07
-2.3523e-07
-8.84657e-08
-3.3366e-07
-1.87357e-07
-7.1906e-08
-3.30514e-07
-1.55227e-07
-4.62227e-08
-3.2588e-07
-1.33696e-07
-2.45743e-08
-3.24365e-07
-1.21808e-07
-2.00562e-09
-3.2335e-07
-1.15081e-07
1.55792e-08
-3.22563e-07
-1.12563e-07
3.26222e-08
-3.22311e-07
-1.12475e-07
4.83264e-08
-3.22833e-07
-1.13291e-07
6.27805e-08
-3.23817e-07
-1.14381e-07
7.66606e-08
-3.24851e-07
-1.15895e-07
9.05914e-08
-3.25763e-07
-1.1789e-07
1.04243e-07
-3.26541e-07
-1.21192e-07
1.17137e-07
-3.27289e-07
-1.24444e-07
1.32574e-07
-3.27144e-07
-1.27974e-07
1.41668e-07
-3.28994e-07
-1.31676e-07
1.64017e-07
-3.2806e-07
-1.31668e-07
1.61443e-07
-3.33502e-07
-1.37358e-07
2.01261e-07
-3.29031e-07
-1.29978e-07
1.753e-07
-3.39524e-07
-1.38894e-07
2.43263e-07
-3.29052e-07
-1.23427e-07
1.82292e-07
-3.44645e-07
-1.41599e-07
2.87122e-07
-3.23963e-07
-1.39625e-07
1.78831e-07
-3.37212e-07
-1.81617e-07
3.20102e-07
-3.0541e-07
-2.55299e-07
1.85673e-07
-2.97917e-07
-3.39207e-07
2.98986e-07
-2.73407e-07
-5.0056e-07
2.00584e-07
-2.47813e-07
-5.88731e-07
1.99209e-07
-2.60629e-07
-6.86895e-07
2.13955e-07
-2.16128e-07
-7.60304e-07
4.11373e-08
-2.4811e-07
-5.08923e-07
2.62933e-07
-1.55661e-07
-6.86314e-07
-1.71537e-07
-1.41152e-07
-7.15713e-07
6.88996e-07
2.48167e-09
-6.36858e-07
-1.08941e-07
-3.48797e-07
-1.39415e-07
-1.24483e-06
-3.96545e-07
3.40704e-06
-3.73653e-06
-1.35771e-06
-5.89628e-07
-3.131e-06
1.85103e-06
-7.34976e-06
-3.04484e-06
2.36522e-06
4.41752e-06
3.34374e-06
-3.84255e-06
3.42597e-07
2.11351e-05
-1.92939e-06
1.5728e-06
9.46074e-06
6.75917e-07
-2.96455e-05
-3.84208e-05
-1.47286e-06
-8.8541e-05
-3.7967e-05
4.96555e-06
-4.25694e-05
-1.81694e-05
2.2258e-06
5.78516e-06
-1.75733e-05
-2.65296e-06
7.41654e-06
-1.99767e-07
-4.60883e-06
1.07698e-05
2.78362e-06
-5.32085e-06
1.39703e-05
4.71706e-06
-4.23708e-06
1.58722e-05
5.72589e-06
-2.9002e-06
1.64045e-05
6.32024e-06
-1.49187e-06
1.60658e-05
6.08536e-06
-4.1445e-07
1.5232e-05
5.28866e-06
1.29797e-06
1.42755e-05
4.94842e-06
2.05427e-06
1.30844e-05
5.90819e-06
1.75216e-06
1.11849e-05
6.57982e-06
2.04266e-06
8.09942e-06
6.67257e-06
3.55135e-06
3.25027e-06
6.86095e-06
4.47433e-06
-3.72472e-06
6.85543e-06
4.42643e-06
-9.924e-06
5.48922e-06
3.93575e-06
-1.28947e-05
3.66676e-06
2.31848e-06
-1.35889e-05
1.96357e-06
8.59167e-07
-1.31809e-05
6.93081e-07
-5.8496e-07
-1.20842e-05
-1.80164e-07
-1.6871e-06
-1.05426e-05
-1.22e-06
-2.52281e-06
-8.64917e-06
-1.21891e-06
-3.12319e-06
-6.40234e-06
-1.53647e-06
-3.60311e-06
-3.9103e-06
-2.1958e-06
-3.83559e-06
-1.44298e-06
-2.21807e-06
-3.57118e-06
5.68403e-07
-1.87773e-06
-2.71868e-06
1.33773e-06
-1.02903e-06
-1.30714e-06
7.96714e-07
-5.30168e-08
1.71655e-07
-6.02241e-07
1.36602e-06
8.24758e-07
-2.27555e-06
3.23487e-06
6.33063e-07
-3.58055e-06
5.62374e-06
-3.7252e-08
-4.23881e-06
8.56227e-06
-7.50375e-07
-4.44872e-06
1.03998e-05
-9.86987e-07
-3.25438e-06
1.11239e-05
-2.64872e-06
1.19206e-05
-4.3526e-06
-3.95826e-06
-3.68988e-06
3.19024e-07
-2.97264e-06
-4.33703e-06
-6.35256e-07
-2.70302e-06
-3.70043e-06
1.28536e-07
-1.98261e-06
-4.0854e-06
-6.18743e-08
-1.53274e-06
-3.30801e-06
2.43192e-07
-1.00802e-06
-3.02507e-06
2.78696e-07
-6.09506e-07
-1.30988e-06
2.50949e-07
-2.6982e-07
-5.52564e-07
1.58309e-07
-1.5041e-07
3.65754e-07
-1.22039e-08
-1.83267e-07
4.78597e-07
-5.57158e-08
-2.56404e-07
4.48479e-07
-1.29553e-07
-4.21325e-07
4.12196e-07
-1.5037e-07
-5.20589e-07
3.41156e-07
-2.01794e-07
-5.62184e-07
2.43701e-07
-2.41271e-07
-5.27725e-07
1.62389e-07
-2.78905e-07
-4.67199e-07
1.18433e-07
-3.04264e-07
-3.97102e-07
1.3948e-07
-3.20143e-07
-3.25545e-07
1.48929e-07
-3.35544e-07
-2.65925e-07
1.90222e-07
-3.38316e-07
-2.14833e-07
2.17673e-07
-3.4068e-07
-1.77946e-07
2.54089e-07
-3.37207e-07
-1.52053e-07
2.8345e-07
-3.33925e-07
-1.34954e-07
3.1066e-07
-3.29772e-07
-1.26179e-07
3.33509e-07
-3.26713e-07
-1.23563e-07
3.54164e-07
-3.24164e-07
-1.24289e-07
3.7142e-07
-3.22374e-07
-1.25879e-07
3.85549e-07
-3.21185e-07
-1.2723e-07
3.9818e-07
-3.20174e-07
-1.28328e-07
4.10742e-07
-3.19057e-07
-1.29563e-07
4.23114e-07
-3.17642e-07
-1.31783e-07
4.35272e-07
-3.1592e-07
-1.33844e-07
4.48412e-07
-3.13781e-07
-1.36109e-07
4.56743e-07
-3.12813e-07
-1.38398e-07
4.75188e-07
-3.08886e-07
-1.36272e-07
4.69992e-07
-3.10677e-07
-1.40906e-07
5.07644e-07
-3.01751e-07
-1.33285e-07
4.76514e-07
-3.08836e-07
-1.45137e-07
5.46491e-07
-2.91377e-07
-1.39108e-07
4.7791e-07
-3.01648e-07
-1.66001e-07
5.88002e-07
-2.73987e-07
-1.94001e-07
4.84392e-07
-2.77562e-07
-2.44343e-07
6.1923e-07
-2.48784e-07
-3.66164e-07
5.37532e-07
-2.30037e-07
-4.47534e-07
6.08588e-07
-2.2823e-07
-6.6695e-07
6.15624e-07
-1.95625e-07
-7.45699e-07
5.29119e-07
-2.51157e-07
-8.56931e-07
5.48841e-07
-2.23654e-07
-9.02036e-07
3.73729e-07
-2.87484e-07
-4.97858e-07
9.66083e-08
-2.37854e-07
-5.14477e-07
7.80622e-08
-2.32978e-07
-5.00185e-07
5.2732e-07
1.47383e-07
1.84487e-07
-5.12371e-07
-2.81238e-07
8.30397e-07
-1.44005e-06
-4.50697e-07
2.63327e-06
-4.29794e-06
-1.24147e-06
-1.2291e-06
-7.73207e-07
1.50447e-06
-6.79962e-06
2.62799e-06
-1.02276e-07
6.81155e-06
-5.58344e-06
-4.68505e-06
1.06594e-05
2.45995e-05
-7.31216e-06
1.01909e-05
-3.10565e-07
9.49332e-06
-3.50406e-05
-2.91226e-05
-1.7597e-08
-0.000108538
-4.17674e-05
3.55095e-06
-0.000105053
-1.72645e-05
1.96043e-06
-0.000103989
-1.54163e-05
-2.05483e-06
-9.88824e-05
-1.69312e-06
-3.26625e-06
-9.25623e-05
1.07811e-06
-2.43932e-06
-9.11168e-05
4.76197e-06
-9.07111e-07
-9.01091e-05
5.11561e-06
3.70598e-07
-9.05686e-05
5.45511e-06
1.77888e-06
-9.25766e-05
5.43972e-06
2.82945e-06
-9.57176e-05
5.60502e-06
3.6173e-06
-9.97574e-05
6.01244e-06
4.47205e-06
-0.000105399
7.77682e-06
4.59927e-06
-0.000113665
9.062e-06
4.67121e-06
-0.000120676
9.27997e-06
3.93543e-06
-0.000125312
8.49191e-06
3.21491e-06
-0.000128723
7.47665e-06
1.91218e-06
-0.000130352
5.93248e-06
5.55008e-07
-0.000130785
4.32688e-06
-6.65479e-07
-0.000128094
3.09036e-06
-1.67987e-06
-0.000113797
1.90012e-06
-2.3016e-06
-6.19556e-05
8.41681e-07
-2.67586e-06
-4.24122e-05
-2.4787e-07
-2.99256e-06
-7.23999e-05
-7.82572e-07
-2.73535e-06
-4.72212e-05
-1.42326e-06
-2.63411e-06
-1.1598e-05
-2.27108e-06
-2.8197e-06
-8.69901e-06
-2.2541e-06
-2.47426e-06
-6.37141e-06
-1.4353e-06
-1.91229e-06
-5.41433e-06
-2.04536e-07
-9.49174e-07
-5.88625e-06
1.55258e-07
2.27095e-07
-6.83098e-06
1.61619e-06
7.40222e-07
-7.50912e-06
3.48239e-06
5.09925e-07
-7.77308e-06
6.1414e-06
-1.05097e-07
-7.45092e-06
9.05615e-06
-6.48715e-07
-6.51987e-06
1.08625e-05
-1.21313e-06
-4.19825e-06
1.17874e-05
-2.79728e-06
1.29526e-05
-4.01225e-06
-4.49769e-06
-3.67232e-06
3.3086e-07
-3.35041e-06
-4.58378e-06
-9.00513e-07
-3.16739e-06
-3.83667e-06
-4.6755e-08
-2.23899e-06
-4.42324e-06
-5.90541e-07
-1.72918e-06
-3.8292e-06
1.13975e-08
-1.02565e-06
-3.8219e-06
9.32995e-08
-5.62353e-07
-2.16539e-06
3.92223e-07
-3.31329e-07
-1.14517e-06
3.61573e-07
-1.52641e-07
7.99149e-08
1.07147e-07
-3.01052e-08
3.57444e-07
-1.39246e-09
1.84207e-08
4.92884e-07
-9.29371e-08
-1.87355e-07
6.85956e-07
-6.79946e-08
-3.64398e-07
6.61037e-07
-1.42845e-07
-4.74631e-07
5.48732e-07
-1.94808e-07
-4.67896e-07
4.19717e-07
-2.64071e-07
-4.25027e-07
3.78576e-07
-3.03021e-07
-3.70091e-07
4.14011e-07
-3.29475e-07
-3.19254e-07
4.46366e-07
-3.48284e-07
-2.74741e-07
5.02047e-07
-3.56346e-07
-2.35556e-07
5.3935e-07
-3.60871e-07
-2.06269e-07
5.82554e-07
-3.57761e-07
-1.85345e-07
6.14598e-07
-3.52081e-07
-1.73131e-07
6.42641e-07
-3.44204e-07
-1.68103e-07
6.64858e-07
-3.36384e-07
-1.68347e-07
6.8327e-07
-3.28869e-07
-1.71674e-07
6.9735e-07
-3.2261e-07
-1.76319e-07
7.07807e-07
-3.17619e-07
-1.8064e-07
7.16004e-07
-3.13508e-07
-1.84044e-07
7.24171e-07
-3.1003e-07
-1.86575e-07
7.32396e-07
-3.06756e-07
-1.88976e-07
7.40838e-07
-3.0317e-07
-1.90187e-07
7.49142e-07
-2.99523e-07
-1.92413e-07
7.54851e-07
-2.95886e-07
-1.9301e-07
7.65883e-07
-2.901e-07
-1.93671e-07
7.59694e-07
-2.89043e-07
-1.97054e-07
7.88403e-07
-2.77378e-07
-1.99721e-07
7.60629e-07
-2.81448e-07
-2.11452e-07
8.17772e-07
-2.59553e-07
-2.3021e-07
7.63795e-07
-2.67127e-07
-2.55794e-07
8.50634e-07
-2.37048e-07
-3.22255e-07
7.89183e-07
-2.38329e-07
-3.58648e-07
8.73466e-07
-2.17844e-07
-5.09269e-07
8.83757e-07
-1.95602e-07
-5.50709e-07
8.68056e-07
-2.18029e-07
-7.50659e-07
1.00461e-06
-1.89037e-07
-7.75278e-07
8.13863e-07
-2.60125e-07
-8.37186e-07
8.88647e-07
-2.77895e-07
-8.01994e-07
6.98171e-07
-3.59635e-07
-7.06405e-07
2.88866e-07
-2.87843e-07
-6.23756e-07
3.93356e-07
-3.97945e-07
-1.95081e-07
3.46842e-07
-2.48192e-07
-3.38371e-07
-4.07586e-07
3.85042e-08
-5.18035e-07
-6.20507e-07
-6.39875e-07
-2.32312e-06
-1.52808e-06
-9.64764e-07
6.38499e-07
-3.84926e-06
1.14333e-07
6.99377e-06
1.44489e-06
-5.1722e-06
1.1816e-05
-4.63584e-06
-5.77036e-06
1.95079e-05
2.45091e-05
-7.60143e-06
1.13119e-05
-1.05914e-05
1.61937e-05
-4.30299e-05
-1.93744e-05
8.63928e-07
-0.000112373
-3.8385e-05
4.2667e-06
-0.000109854
-1.78729e-05
2.74348e-06
-0.000112309
-1.79614e-05
-3.62645e-07
-0.000112176
-8.08687e-06
-7.85977e-07
-0.000108696
-2.86928e-06
1.49291e-07
-0.000108649
1.08997e-06
1.75343e-06
-0.000108612
2.59003e-06
3.40307e-06
-0.000111516
4.55803e-06
4.12019e-06
-0.000117399
6.07579e-06
4.80521e-06
-0.000121456
8.27083e-06
4.85142e-06
-0.0001318
9.42921e-06
4.12485e-06
-0.000143973
1.04377e-05
3.42248e-06
-0.000147335
1.06895e-05
3.02064e-06
-0.000150497
1.03822e-05
2.34538e-06
-0.000153462
9.44023e-06
1.14807e-06
-0.000152903
8.46965e-06
6.34552e-07
-0.000152396
7.22772e-06
-1.95964e-07
-0.000152604
5.83177e-06
-7.55855e-07
-0.000152309
4.39299e-06
-1.09302e-06
-0.00015041
2.56874e-06
-1.06751e-06
-0.000147665
5.58295e-07
-8.13203e-07
-0.0001443
-9.50072e-07
-4.52466e-07
-0.000140883
-2.57216e-06
-4.31429e-07
-0.000137873
-4.17324e-06
-3.94092e-07
-0.000138548
-4.74073e-06
-4.95071e-07
-0.000132554
-4.81034e-06
-5.21657e-07
-0.000108864
-3.70392e-06
-3.46428e-07
-5.41488e-05
-2.0105e-06
2.78757e-07
-1.22639e-05
-2.13919e-06
3.19408e-07
-1.1804e-05
2.89218e-07
9.52641e-07
-1.20081e-05
2.39043e-06
6.5469e-07
-1.14132e-05
5.26161e-06
4.24097e-07
-1.00372e-05
7.8725e-06
-1.1475e-07
-7.69666e-06
9.68667e-06
-9.74839e-07
-4.53538e-06
1.13136e-05
-2.535e-06
1.26988e-05
-3.29729e-06
-4.8821e-06
-3.30421e-06
2.51984e-07
-3.53995e-06
-4.51045e-06
-1.41546e-06
-3.41553e-06
-3.49018e-06
-4.7089e-07
-2.30963e-06
-4.12122e-06
-1.40789e-06
-1.76953e-06
-3.6519e-06
-7.17389e-07
-9.00563e-07
-3.93352e-06
-7.57337e-07
-2.07788e-07
-2.754e-06
-1.04177e-07
-8.99306e-08
-1.54099e-06
2.77959e-07
-8.62277e-08
-1.10259e-07
1.8646e-07
1.86909e-08
2.07181e-07
4.53366e-08
1.47339e-07
4.32178e-07
-6.79539e-08
-3.2151e-08
8.48217e-07
1.72197e-08
-2.11141e-07
9.11114e-07
-7.10998e-08
-3.46112e-07
8.2522e-07
-1.41527e-07
-3.52963e-07
6.84784e-07
-2.58226e-07
-3.39398e-07
6.76992e-07
-3.11991e-07
-3.19417e-07
7.40363e-07
-3.46344e-07
-3.06284e-07
7.90951e-07
-3.57727e-07
-2.92171e-07
8.54334e-07
-3.66409e-07
-2.77158e-07
8.93578e-07
-3.69251e-07
-2.65185e-07
9.37291e-07
-3.66719e-07
-2.57151e-07
9.66672e-07
-3.60117e-07
-2.53989e-07
9.91257e-07
-3.51787e-07
-2.55479e-07
1.00912e-06
-3.42778e-07
-2.60099e-07
1.02212e-06
-3.34239e-07
-2.6659e-07
1.02994e-06
-3.2611e-07
-2.73773e-07
1.03337e-06
-3.18389e-07
-2.80162e-07
1.03349e-06
-3.11098e-07
-2.85722e-07
1.03397e-06
-3.04245e-07
-2.90478e-07
1.03517e-06
-2.98028e-07
-2.95173e-07
1.0374e-06
-2.91866e-07
-2.98576e-07
1.03892e-06
-2.86383e-07
-3.03166e-07
1.04027e-06
-2.80838e-07
-3.0327e-07
1.04103e-06
-2.75048e-07
-3.0833e-07
1.03394e-06
-2.69189e-07
-3.07428e-07
1.04744e-06
-2.59937e-07
-3.22231e-07
1.02986e-06
-2.54426e-07
-3.26393e-07
1.06229e-06
-2.40354e-07
-3.69315e-07
1.04064e-06
-2.33924e-07
-3.82414e-07
1.08357e-06
-2.19841e-07
-4.78212e-07
1.09268e-06
-2.07697e-07
-4.91699e-07
1.09588e-06
-2.08922e-07
-6.3538e-07
1.21834e-06
-1.90902e-07
-6.27789e-07
1.08462e-06
-2.24155e-07
-7.67731e-07
1.37103e-06
-2.26478e-07
-7.30911e-07
1.0529e-06
-2.75856e-07
-8.38496e-07
1.31594e-06
-3.19715e-07
-7.8148e-07
1.03665e-06
-3.95491e-07
-1.03829e-06
8.53818e-07
-3.08149e-07
-9.63909e-07
8.59093e-07
-5.40109e-07
-7.75185e-07
8.00236e-07
-6.4212e-07
-1.25449e-06
4.16573e-07
-3.44843e-07
3.73498e-08
-7.71785e-07
-1.14057e-06
-4.93043e-07
-8.61174e-08
-9.11557e-07
7.15893e-07
-4.57124e-06
-4.87089e-07
9.53444e-06
-1.21351e-06
-6.16017e-06
1.35967e-05
1.89705e-06
-1.05954e-05
3.08091e-05
1.57022e-05
-8.40544e-06
2.5953e-07
-8.28054e-06
2.17125e-05
-7.29769e-05
-9.93696e-06
8.74074e-07
-0.000142013
-2.05475e-05
5.66562e-06
-0.000139319
-1.35652e-05
3.45461e-06
-0.00014262
-1.4392e-05
7.27775e-07
-0.000149673
-1.03939e-05
1.35808e-07
-0.000145826
-6.00627e-06
1.55938e-06
-0.000143936
-2.03925e-06
2.30846e-06
-0.000150572
1.14046e-06
3.04813e-06
-0.00015692
3.97827e-06
3.19042e-06
-0.000151705
6.03903e-06
3.41705e-06
-0.000136341
8.2641e-06
3.17347e-06
-0.000134436
9.33936e-06
3.07417e-06
-0.000144875
1.03085e-05
2.46625e-06
-0.000151291
1.05341e-05
1.95462e-06
-0.000156796
1.02057e-05
1.62221e-06
-0.000168626
9.26265e-06
1.0234e-06
-0.000173863
8.19158e-06
4.16692e-07
-0.000165198
6.82349e-06
-2.46325e-07
-0.000166063
5.52201e-06
-4.19079e-07
-0.000170542
3.59062e-06
-3.14654e-07
-0.00017013
1.17261e-06
-2.90295e-08
-0.000171728
-1.34186e-06
4.17437e-07
-0.000170244
-3.11461e-06
1.10296e-06
-0.000166884
-5.01106e-06
1.24551e-06
-0.000166182
-7.12539e-06
1.78776e-06
-0.000166396
-8.16235e-06
1.84293e-06
-0.000155558
-8.49763e-06
1.60898e-06
-0.000143056
-8.19335e-06
7.91957e-07
-0.000134895
-6.61096e-06
3.68932e-07
-0.000137773
-4.79253e-06
2.76868e-07
-0.000122454
-2.25998e-06
4.96326e-07
-5.75817e-05
1.07035e-06
7.33293e-07
-6.73294e-05
2.36597e-06
3.90955e-07
-0.000126472
6.49328e-06
-1.91449e-07
-0.000131244
8.3915e-06
-1.21243e-06
-0.000128503
1.02483e-05
-2.07973e-06
1.17068e-05
-2.29381e-06
-5.21998e-06
-2.33445e-06
1.64732e-07
-3.65594e-06
-4.01382e-06
-2.06065e-06
-3.64935e-06
-2.78825e-06
-7.08502e-07
-2.46155e-06
-3.37413e-06
-1.93487e-06
-1.81089e-06
-2.94498e-06
-1.35756e-06
-9.45586e-07
-3.34261e-06
-1.45622e-06
4.61283e-10
-2.6624e-06
-1.03764e-06
2.79242e-07
-1.44584e-06
-3.73944e-07
2.24079e-07
-3.68664e-08
-1.82399e-08
1.58543e-07
3.03769e-07
-3.10663e-08
1.88802e-07
5.14428e-07
-1.12521e-07
9.83002e-08
9.22077e-07
1.66267e-08
3.12827e-08
1.10473e-06
-1.26609e-07
-3.671e-08
1.10243e-06
-2.09227e-07
-8.6e-08
1.10169e-06
-3.6763e-07
-1.50274e-07
1.15487e-06
-4.13616e-07
-2.05759e-07
1.26249e-06
-4.66654e-07
-2.55703e-07
1.32391e-06
-4.83022e-07
-2.93309e-07
1.3958e-06
-5.03872e-07
-3.22425e-07
1.43968e-06
-5.16995e-07
-3.46727e-07
1.48759e-06
-5.26004e-07
-3.67131e-07
1.51943e-06
-5.3236e-07
-3.81811e-07
1.54085e-06
-5.34918e-07
-3.93177e-07
1.55515e-06
-5.34679e-07
-4.02121e-07
1.56446e-06
-5.33399e-07
-4.09054e-07
1.56949e-06
-5.32622e-07
-4.1513e-07
1.57123e-06
-5.31788e-07
-4.2076e-07
1.57056e-06
-5.31455e-07
-4.25955e-07
1.57018e-06
-5.31018e-07
-4.30703e-07
1.57042e-06
-5.30504e-07
-4.35643e-07
1.57196e-06
-5.29632e-07
-4.40156e-07
1.57306e-06
-5.29628e-07
-4.46957e-07
1.57605e-06
-5.28977e-07
-4.49498e-07
1.57485e-06
-5.31279e-07
-4.61231e-07
1.57424e-06
-5.28575e-07
-4.61516e-07
1.57769e-06
-5.29971e-07
-4.89804e-07
1.57866e-06
-5.20515e-07
-4.87598e-07
1.582e-06
-5.21923e-07
-5.50121e-07
1.60654e-06
-5.03376e-07
-5.46884e-07
1.5899e-06
-5.09569e-07
-6.55892e-07
1.68582e-06
-4.84137e-07
-6.30312e-07
1.57896e-06
-5.08663e-07
-7.36578e-07
1.81805e-06
-4.93445e-07
-6.61572e-07
1.54095e-06
-5.31337e-07
-6.92495e-07
1.96445e-06
-5.62493e-07
-5.84871e-07
1.53417e-06
-5.88898e-07
-6.38982e-07
2.04181e-06
-6.71753e-07
-6.30567e-07
1.72375e-06
-6.95521e-07
-9.99307e-07
1.99132e-06
-7.68764e-07
-1.09234e-06
1.85976e-06
-9.07643e-07
-9.75159e-07
1.93109e-06
-1.24802e-06
-1.27544e-06
1.86337e-06
-1.14651e-06
-4.43051e-07
2.32829e-07
-1.837e-06
-4.18828e-07
1.05674e-06
-1.16708e-06
-4.1911e-07
-2.27997e-06
-2.29108e-06
8.94288e-06
-5.39041e-07
-1.00365e-05
1.17732e-05
1.28703e-05
-1.38037e-05
3.35619e-05
6.0284e-06
-1.21147e-05
6.52667e-08
-6.70769e-06
2.32688e-05
-9.22998e-05
3.9486e-06
2.66412e-06
-0.000173818
9.65332e-06
8.4589e-06
-0.000186989
-2.95329e-06
4.26169e-06
-0.000194897
-3.55604e-06
3.09387e-07
-0.000200681
-5.1818e-06
4.75321e-07
-0.000203724
-4.44215e-06
6.24245e-07
-0.00020621
-2.53699e-06
1.3468e-06
-0.000211729
2.01501e-07
1.8998e-06
-0.000211999
1.98093e-06
2.23602e-06
-0.000210122
4.47576e-06
2.53153e-06
-0.000211296
6.43739e-06
2.61266e-06
-0.000211202
7.83065e-06
2.49965e-06
-0.000211752
8.94618e-06
2.07971e-06
-0.000211223
9.44498e-06
1.18288e-06
-0.000208561
9.27329e-06
4.29605e-07
-0.000205788
8.66716e-06
-6.39153e-07
-0.000206011
7.79541e-06
-1.35878e-06
-0.000205817
6.40648e-06
-2.00286e-06
-0.000204453
4.68233e-06
-2.23504e-06
-0.000201797
2.0354e-06
-2.19854e-06
-0.000198835
4.11377e-08
-1.75064e-06
-0.000198003
-2.57783e-06
-1.06472e-06
-0.000198148
-4.47553e-06
1.03893e-06
-0.00019985
-5.96183e-06
1.58842e-06
-0.000203123
-7.70271e-06
2.5562e-06
-0.000207792
-8.62524e-06
3.55845e-06
-0.000202026
-9.32011e-06
3.37281e-06
-0.000185037
-8.9914e-06
2.56555e-06
-0.000187535
-7.95536e-06
1.2998e-06
-0.000197616
-5.97761e-06
-3.16181e-08
-0.000200752
-4.58223e-06
-2.44632e-07
-0.000194154
-1.89154e-06
-3.56124e-07
-0.000177001
-4.96427e-07
-9.19134e-07
-0.000164793
9.07897e-07
-1.2305e-06
-0.000168925
1.64918e-06
-1.66155e-06
-0.000174133
2.16675e-06
-1.7052e-06
1.20887e-06
-8.42542e-07
-5.16349e-06
4.43225e-07
2.45028e-06
-3.82194e-06
-3.87922e-06
-1.47613e-06
-3.9898e-06
-1.8599e-06
-7.60478e-07
-2.75674e-06
-2.62167e-06
-1.9855e-06
-2.01369e-06
-2.10096e-06
-1.58707e-06
-1.03777e-06
-2.61952e-06
-1.69901e-06
1.17956e-07
-2.27528e-06
-1.54285e-06
4.20717e-07
-1.04255e-06
-7.0606e-07
3.29792e-07
2.51076e-07
-1.97032e-07
2.62793e-07
2.82015e-07
8.87387e-08
2.37796e-07
3.62769e-07
1.76641e-07
2.36954e-07