/*--------------------------------*- C++ -*----------------------------------*\
| =========                 |                                                 |
| \\      /  F ield         | OpenFOAM: The Open Source CFD Toolbox           |
|  \\    /   O peration     | Version:  2.3.0                                 |
|   \\  /    A nd           | Web:      www.OpenFOAM.org                      |
|    \\/     M anipulation  |                                                 |
\*---------------------------------------------------------------------------*/
FoamFile
{
    version     2.0;
    format      ascii;
    class       surfaceScalarField;
    location    "21";
    object      phi.water;
}
// * * * * * * * * * * * * * * * * * * * * * * * * * * * * * * * * * * * * * //

dimensions      [0 3 -1 0 0 0 0];

internalField   nonuniform List<scalar> 
16448
(
-1.79054e-06
-2.0124e-06
7.69855e-07
-6.06727e-07
-2.07552e-06
8.93552e-07
-2.17214e-07
-1.51601e-06
1.12777e-06
1.45329e-07
-1.42763e-06
1.06639e-06
2.22774e-07
-9.48493e-07
8.7321e-07
2.92093e-07
-8.31039e-07
7.65008e-07
2.14629e-07
-4.7607e-07
5.58157e-07
3.36662e-08
-3.43271e-07
5.27181e-07
-2.33143e-07
-2.46811e-07
5.14455e-07
-4.4388e-07
-2.17369e-07
4.28148e-07
-5.58738e-07
-2.53842e-07
3.6902e-07
-5.12692e-07
-3.37302e-07
2.91406e-07
-4.0652e-07
-3.86729e-07
2.8088e-07
-2.52178e-07
-4.28387e-07
2.74215e-07
-1.42544e-07
-4.34979e-07
3.2567e-07
-4.63797e-08
-4.5502e-07
3.59065e-07
1.04944e-08
-4.60709e-07
4.04133e-07
5.36932e-08
-4.7413e-07
4.31161e-07
7.9679e-08
-4.80981e-07
4.55265e-07
9.62608e-08
-4.8526e-07
4.68921e-07
1.05252e-07
-4.86185e-07
4.77444e-07
1.09897e-07
-4.85206e-07
4.80802e-07
1.11836e-07
-4.82763e-07
4.81076e-07
1.12482e-07
-4.79423e-07
4.79022e-07
1.12375e-07
-4.75213e-07
4.75569e-07
1.11708e-07
-4.70379e-07
4.7129e-07
1.106e-07
-4.6531e-07
4.66676e-07
1.09206e-07
-4.6031e-07
4.6196e-07
1.07661e-07
-4.55314e-07
4.57126e-07
1.0497e-07
-4.49527e-07
4.52476e-07
1.03566e-07
-4.45439e-07
4.47121e-07
9.76043e-08
-4.3753e-07
4.43748e-07
9.74884e-08
-4.36062e-07
4.36464e-07
8.45735e-08
-4.23273e-07
4.36442e-07
8.90276e-08
-4.28848e-07
4.24687e-07
6.84798e-08
-4.08167e-07
4.28954e-07
7.83204e-08
-4.2067e-07
4.11164e-07
5.15768e-08
-3.91922e-07
4.18849e-07
7.15682e-08
-4.1017e-07
3.90568e-07
4.4846e-08
-3.7335e-07
4.00191e-07
9.2343e-08
-4.03459e-07
3.56391e-07
8.51832e-08
-3.60709e-07
3.68078e-07
1.69048e-07
-4.06762e-07
3.23439e-07
2.24998e-07
-4.04162e-07
3.48017e-07
2.78931e-07
-3.9887e-07
3.45944e-07
2.76283e-07
-4.58605e-07
4.60567e-07
1.05112e-07
-3.63363e-07
5.3558e-07
-9.0392e-08
-4.49218e-07
6.43444e-07
-6.62301e-07
-2.121e-07
7.89302e-07
-7.84439e-07
-5.58424e-07
6.83209e-07
-1.16525e-06
-3.79701e-07
7.94631e-07
-9.15711e-07
-8.34164e-07
6.04046e-07
-8.81909e-07
-5.47677e-07
6.34738e-07
-1.76383e-06
-1.74915e-07
1.03223e-06
-1.80191e-07
-3.08459e-06
1.89657e-06
-3.5955e-07
-2.94598e-06
2.88412e-06
-5.40378e-07
2.6779e-06
-8.36494e-07
-2.38022e-06
1.05502e-06
5.34568e-07
2.22806e-06
2.63193e-06
1.9693e-06
2.8119e-05
-1.93884e-05
1.41287e-05
2.37973e-05
-2.71852e-05
4.20824e-06
3.08423e-05
-1.26194e-05
3.5233e-06
2.9455e-05
-9.3172e-07
2.30636e-06
3.09799e-05
-2.29591e-06
7.70905e-07
3.26097e-05
-1.5825e-06
-4.72639e-08
3.31629e-05
3.43998e-08
-5.87604e-07
3.30097e-05
1.08155e-06
-9.2834e-07
3.25095e-05
1.5713e-06
-1.07112e-06
3.16868e-05
1.9022e-06
-1.07949e-06
3.0496e-05
2.19937e-06
-1.00857e-06
2.89457e-05
2.42558e-06
-8.75353e-07
2.71466e-05
2.52997e-06
-7.30808e-07
2.51775e-05
2.56599e-06
-5.96955e-07
2.30917e-05
2.50722e-06
-4.2135e-07
2.08946e-05
2.38212e-06
-1.84997e-07
1.86982e-05
2.08568e-06
1.10625e-07
1.65826e-05
1.6882e-06
4.27399e-07
1.48246e-05
1.01946e-06
7.38596e-07
1.36886e-05
1.0699e-07
1.02898e-06
1.28273e-05
-4.82546e-07
1.34388e-06
1.20169e-05
-8.88409e-07
1.69881e-06
1.11881e-05
-1.20698e-06
2.03572e-06
1.05518e-05
-1.65041e-06
2.28673e-06
1.03015e-05
-2.04155e-06
2.29179e-06
1.05223e-05
-2.38302e-06
2.16221e-06
1.1198e-05
-2.62045e-06
1.94479e-06
1.19831e-05
-2.46224e-06
1.67712e-06
1.2779e-05
-2.20605e-06
1.41014e-06
1.30938e-05
-1.61759e-06
1.30281e-06
1.28194e-05
-1.06287e-06
1.33728e-06
1.19504e-05
-3.85762e-07
1.25476e-06
1.00345e-05
6.20859e-07
1.29504e-06
7.08458e-06
2.01895e-06
9.30946e-07
2.45741e-06
3.44403e-06
1.18314e-06
-4.21719e-07
3.55151e-06
-6.72369e-07
3.04107e-06
-3.46278e-06
-2.39752e-06
-2.90978e-06
1.29908e-07
-1.56074e-06
-3.08382e-06
1.75098e-07
-1.20693e-06
-2.36872e-06
5.01925e-07
-6.88941e-07
-2.20628e-06
2.63461e-07
-3.10156e-07
-1.49295e-06
1.69418e-07
4.58765e-08
-1.25269e-06
6.94483e-08
4.90337e-08
-4.8282e-07
6.86876e-09
-1.93723e-07
-1.91803e-07
9.20843e-08
-5.09281e-07
-4.23149e-08
1.10996e-07
-6.95506e-07
-8.72471e-08
5.56984e-08
-7.77243e-07
-1.93547e-07
2.14348e-08
-6.98559e-07
-3.57406e-07
-5.87084e-08
-5.84355e-07
-4.28152e-07
-7.26559e-08
-4.2924e-07
-4.93511e-07
-9.00098e-08
-3.02521e-07
-5.02082e-07
-5.94922e-08
-1.81957e-07
-5.3294e-07
-4.26413e-08
-1.03392e-07
-5.31379e-07
-7.82082e-09
-4.0386e-08
-5.44913e-07
7.78967e-09
-2.72284e-11
-5.43757e-07
2.25002e-08
2.85543e-08
-5.43687e-07
2.98934e-08
4.58515e-08
-5.38152e-07
3.47447e-08
5.68186e-08
-5.32007e-07
3.59073e-08
6.30616e-08
-5.24107e-07
3.51791e-08
6.66487e-08
-5.15789e-07
3.28565e-08
6.85518e-08
-5.06904e-07
2.98572e-08
6.94903e-08
-4.97607e-07
2.63597e-08
6.9709e-08
-4.88195e-07
2.27397e-08
6.90072e-08
-4.78828e-07
1.92915e-08
6.74704e-08
-4.69543e-07
1.58367e-08
6.5146e-08
-4.59763e-07
1.2621e-08
6.32918e-08
-4.52333e-07
8.82538e-09
5.80074e-08
-4.38792e-07
6.58486e-09
5.51213e-08
-4.35022e-07
1.92497e-09
4.37089e-08
-4.13801e-07
1.94039e-09
4.41032e-08
-4.19952e-07
-9.16216e-09
2.6655e-08
-3.85901e-07
-4.87626e-09
3.43574e-08
-4.05567e-07
-2.25848e-08
1.02421e-08
-3.54055e-07
-1.39891e-08
3.33843e-08
-3.91792e-07
-4.11046e-08
7.29315e-09
-3.19691e-07
-2.79222e-08
6.68814e-08
-3.94626e-07
-6.79395e-08
4.81037e-08
-2.96081e-07
-4.60278e-08
1.50072e-07
-4.27842e-07
-8.04125e-08
1.27772e-07
-3.39788e-07
-4.23694e-08
2.12288e-07
-4.53109e-07
-2.96006e-08
1.07401e-07
-4.07823e-07
5.35341e-08
-3.60292e-08
-3.22081e-07
1.0345e-07
-1.86474e-07
-4.70015e-07
1.6926e-07
-8.95386e-07
1.722e-07
3.29589e-07
-1.02509e-06
-6.07327e-07
1.81002e-07
-1.86788e-06
7.82034e-08
4.21266e-07
-1.80049e-06
-9.67539e-07
7.72674e-08
-6.32057e-07
-1.21654e-06
-3.62485e-07
-1.0036e-06
6.03132e-08
1.10917e-07
-2.38681e-07
-3.79122e-06
2.43659e-07
2.71364e-06
-7.01547e-06
9.1368e-07
-1.52756e-06
9.84008e-06
-1.41022e-06
-9.86705e-06
7.9654e-06
9.38144e-07
-5.94096e-07
6.38706e-06
-3.98665e-06
2.84513e-05
-3.66742e-05
6.14963e-06
1.09641e-05
-3.97026e-05
2.99339e-06
9.75219e-06
-1.50524e-05
1.76577e-06
1.5848e-05
-4.36826e-06
-2.66221e-06
2.0581e-05
-3.35238e-06
-3.67659e-06
2.3411e-05
-1.01326e-06
-3.39927e-06
2.51491e-05
1.65995e-06
-3.36367e-06
2.65814e-05
2.84664e-06
-3.19734e-06
2.73677e-05
3.57026e-06
-2.78532e-06
2.74532e-05
4.08224e-06
-2.26552e-06
2.70328e-05
4.45656e-06
-1.83677e-06
2.61877e-05
4.71232e-06
-1.4416e-06
2.50366e-05
4.82466e-06
-1.14367e-06
2.36854e-05
4.78965e-06
-8.72394e-07
2.19403e-05
4.74167e-06
-4.89379e-07
1.97133e-05
4.67757e-06
-6.84831e-08
1.74787e-05
3.9327e-06
3.87565e-07
1.5574e-05
2.75809e-06
8.34798e-07
1.37511e-05
1.67259e-06
1.16981e-06
1.16891e-05
7.24034e-07
1.44489e-06
9.40709e-06
-8.58425e-08
1.88534e-06
6.84184e-06
-6.85754e-07
2.36258e-06
4.70081e-06
-1.3588e-06
2.29285e-06
3.65122e-06
-2.33626e-06
1.73542e-06
3.93757e-06
-3.31833e-06
9.90421e-07
5.22803e-06
-3.86454e-06
1.91041e-07
6.99816e-06
-3.9223e-06
-4.68288e-07
8.77369e-06
-3.42499e-06
-8.12788e-07
9.99216e-06
-2.56958e-06
-8.54938e-07
1.04647e-05
-1.58013e-06
-5.09967e-07
1.01322e-05
-6.45892e-07
-8.45759e-08
9.11443e-06
4.42193e-07
1.89862e-07
7.28038e-06
2.17831e-06
2.76601e-07
4.96866e-06
4.5172e-06
-1.86523e-07
1.55179e-06
6.40416e-06
4.56755e-07
-5.28101e-07
6.85215e-06
-1.22074e-06
6.56387e-06
-4.05089e-06
-2.71599e-06
-3.294e-06
1.38049e-08
-1.97541e-06
-3.59197e-06
-2.2862e-07
-1.71835e-06
-2.83514e-06
2.12785e-07
-1.23299e-06
-2.76459e-06
7.59093e-08
-7.66763e-07
-1.95592e-06
5.78009e-10
-2.9146e-07
-1.60984e-06
-1.1419e-07
-1.53828e-07
-4.02137e-07
-2.14621e-07
-2.46302e-07
3.20339e-08
-1.30515e-07
-4.74917e-07
2.7911e-07
-9.27876e-08
-6.19032e-07
1.57014e-07
-1.00403e-07
-6.80001e-07
-3.59497e-09
-1.28782e-07
-6.4523e-07
-1.88137e-07
-2.03891e-07
-5.92894e-07
-2.50306e-07
-2.30012e-07
-5.0696e-07
-3.20817e-07
-2.58574e-07
-4.10295e-07
-3.38555e-07
-2.60066e-07
-3.02255e-07
-3.76254e-07
-2.64697e-07
-2.19002e-07
-3.6597e-07
-2.48551e-07
-1.45775e-07
-3.75939e-07
-2.42158e-07
-9.62197e-08
-3.61978e-07
-2.31236e-07
-5.8871e-08
-3.54602e-07
-2.26372e-07
-3.49055e-08
-3.40029e-07
-2.22003e-07
-1.85612e-08
-3.2747e-07
-2.20807e-07
-8.32816e-09
-3.13534e-07
-2.20722e-07
-1.98311e-09
-3.00326e-07
-2.21728e-07
1.63005e-09
-2.87243e-07
-2.2319e-07
3.66649e-09
-2.74495e-07
-2.25064e-07
4.74636e-09
-2.61931e-07
-2.27249e-07
4.76844e-09
-2.49364e-07
-2.29392e-07
3.5742e-09
-2.36771e-07
-2.31474e-07
1.89717e-09
-2.24383e-07
-2.33613e-07
-7.91169e-10
-2.13544e-07
-2.35962e-07
-4.40352e-09
-1.97918e-07
-2.37206e-07
-8.09226e-09
-1.90951e-07
-2.40202e-07
-1.37912e-08
-1.67843e-07
-2.40239e-07
-1.4334e-08
-1.72149e-07
-2.46998e-07
-2.24826e-08
-1.33558e-07
-2.44258e-07
-1.50527e-08
-1.56943e-07
-2.55651e-07
-2.61694e-08
-9.47994e-08
-2.48365e-07
-4.67713e-09
-1.46985e-07
-2.65691e-07
-1.97706e-08
-5.51011e-08
-2.49986e-07
1.54736e-08
-1.56507e-07
-2.72519e-07
-1.42972e-08
-2.73729e-08
-2.39564e-07
7.05665e-09
-1.86018e-07
-2.62088e-07
-7.19525e-08
-5.83891e-08
-2.0326e-07
-1.01268e-07
-2.08644e-07
-2.1377e-07
-2.04293e-07
-1.49594e-07
-1.56514e-07
-2.83439e-07
-1.00319e-07
-1.40401e-07
-3.25687e-07
-2.80275e-07
-1.49701e-07
-5.01248e-07
3.58817e-07
-5.10552e-09
-4.72377e-07
-4.89832e-07
-1.43589e-07
-1.17933e-06
6.61886e-07
1.65521e-07
-1.65492e-06
-3.79892e-07
-1.07364e-07
-1.01931e-06
-1.14499e-06
-6.33119e-07
2.39128e-06
-1.54946e-06
-1.82019e-06
3.58897e-06
-5.27513e-06
7.73414e-07
2.72098e-06
-7.36917e-06
1.13506e-06
7.03259e-06
1.12987e-05
-3.53341e-06
-2.4829e-06
1.50389e-05
1.09453e-06
6.69883e-06
1.14125e-05
-3.40178e-06
2.87963e-05
-3.98826e-05
3.64684e-07
3.01355e-06
-4.37693e-05
2.85484e-06
2.33458e-06
-1.75924e-05
1.30843e-06
1.76782e-05
-1.65608e-05
-3.15173e-06
2.2121e-05
-4.72777e-06
-3.06742e-06
2.3133e-05
2.78182e-07
-2.30348e-06
2.43119e-05
2.52878e-06
-2.04774e-06
2.50055e-05
4.06425e-06
-1.91123e-06
2.49825e-05
5.17213e-06
-1.57884e-06
2.44179e-05
5.76862e-06
-1.12177e-06
2.35945e-05
5.89028e-06
-6.10357e-07
2.25683e-05
5.82696e-06
-8.84376e-08
2.09698e-05
6.14778e-06
2.75352e-07
1.91508e-05
5.95094e-06
6.57695e-07
1.742e-05
5.35761e-06
1.11493e-06
1.54972e-05
5.13129e-06
1.46904e-06
1.28901e-05
4.68726e-06
1.85256e-06
9.17405e-06
3.79176e-06
2.68235e-06
3.78788e-06
3.29568e-06
3.76307e-06
-1.24466e-06
2.092e-06
3.66456e-06
-3.78164e-06
2.70932e-07
2.1802e-06
-4.29358e-06
-1.1264e-06
9.52577e-07
-3.40814e-06
-2.16925e-06
-7.49995e-08
-1.87867e-06
-2.95449e-06
-9.11255e-07
1.61586e-08
-3.42297e-06
-1.7902e-06
2.25347e-06
-3.53784e-06
-2.56401e-06
4.63789e-06
-3.30499e-06
-3.00174e-06
6.68754e-06
-2.54736e-06
-2.92729e-06
7.86644e-06
-1.51691e-06
-2.23157e-06
7.84514e-06
-4.04155e-07
-1.15467e-06
6.68019e-06
7.90194e-07
-2.71135e-07
4.81028e-06
2.17788e-06
1.34222e-07
2.84958e-06
4.20778e-06
-6.8759e-08
1.11764e-06
6.98251e-06
-7.33363e-07
-9.29371e-07
8.98028e-06
-5.29092e-07
-1.35385e-06
9.43694e-06
-2.1603e-06
9.66376e-06
-4.45372e-06
-3.2017e-06
-3.50245e-06
7.92762e-08
-2.34793e-06
-3.98624e-06
-4.55894e-07
-2.09733e-06
-3.30188e-06
2.20664e-07
-1.56595e-06
-3.42643e-06
1.34209e-07
-1.06647e-06
-2.61454e-06
1.63301e-07
-5.31901e-07
-2.22126e-06
8.16261e-08
-2.22243e-07
-6.60057e-07
-4.63645e-08
-1.09796e-07
-5.43557e-08
-2.425e-08
-2.29196e-07
4.73063e-07
-7.44006e-08
-3.65431e-07
3.90136e-07
-9.72061e-08
-4.48255e-07
2.45888e-07
-1.66468e-07
-5.07319e-07
9.69574e-08
-2.25711e-07
-5.31845e-07
4.01354e-08
-2.65626e-07
-5.13089e-07
-3.91402e-08
-3.00156e-07
-4.49383e-07
-8.20334e-08
-3.19935e-07
-3.62678e-07
-1.25287e-07
-3.37418e-07
-2.81028e-07
-1.1055e-07
-3.36755e-07
-2.0059e-07
-1.15045e-07
-3.41072e-07
-1.40024e-07
-8.84655e-08
-3.33775e-07
-9.18169e-08
-7.19081e-08
-3.30627e-07
-5.93288e-08
-4.62339e-08
-3.25994e-07
-3.74464e-08
-2.45924e-08
-3.24475e-07
-2.51979e-08
-2.04136e-09
-3.23461e-07
-1.8113e-08
1.55486e-08
-3.22672e-07
-1.52396e-08
3.25897e-08
-3.2242e-07
-1.47888e-08
4.82947e-08
-3.22939e-07
-1.52409e-08
6.27447e-08
-3.23923e-07
-1.59624e-08
7.66246e-08
-3.24955e-07
-1.71081e-08
9.05512e-08
-3.25867e-07
-1.87374e-08
1.04202e-07
-3.26642e-07
-2.16571e-08
1.17092e-07
-3.27391e-07
-2.45633e-08
1.32529e-07
-3.27246e-07
-2.76768e-08
1.41618e-07
-3.29095e-07
-3.10743e-08
1.63966e-07
-3.28161e-07
-3.05811e-08
1.61387e-07
-3.33601e-07
-3.60501e-08
2.01205e-07
-3.29133e-07
-2.80699e-08
1.75238e-07
-3.39621e-07
-3.69217e-08
2.43202e-07
-3.29154e-07
-2.06355e-08
1.82224e-07
-3.4474e-07
-3.89913e-08
2.87053e-07
-3.24069e-07
-3.59951e-08
1.78764e-07
-3.37314e-07
-7.83352e-08
3.20034e-07
-3.05523e-07
-1.50833e-07
1.8563e-07
-2.98042e-07
-2.35355e-07
2.98935e-07
-2.73533e-07
-3.95006e-07
2.00575e-07
-2.47963e-07
-4.84544e-07
1.99196e-07
-2.60758e-07
-5.79888e-07
2.13998e-07
-2.16286e-07
-6.55872e-07
4.11981e-08
-2.48231e-07
-3.97607e-07
2.63012e-07
-1.55723e-07
-5.76225e-07
-1.7141e-07
-1.41178e-07
-5.72039e-07
6.89307e-07
2.25308e-09
-4.90403e-07
-1.08968e-07
-3.48535e-07
9.63447e-08
-1.24584e-06
-3.96835e-07
3.65699e-06
-3.74288e-06
-1.35634e-06
1.28637e-07
-3.11125e-06
1.84538e-06
-6.68882e-06
-3.02016e-06
2.34048e-06
7.68497e-06
3.35441e-06
-3.82628e-06
2.29623e-06
2.09896e-05
-1.93926e-06
1.61235e-05
8.91219e-06
7.00551e-07
3.21224e-05
-3.61123e-05
-1.32727e-06
1.18063e-06
-4.53856e-05
3.95271e-06
-7.02091e-07
-1.97739e-05
1.77802e-06
7.7563e-06
-2.2915e-05
-2.10437e-06
9.29103e-06
-1.88447e-06
-4.37807e-06
1.23897e-05
2.33387e-06
-5.15435e-06
1.56961e-05
3.71048e-06
-4.48813e-06
1.75545e-05
5.09993e-06
-2.89416e-06
1.80735e-05
6.14199e-06
-1.48883e-06
1.77716e-05
6.48839e-06
-4.17887e-07
1.69726e-05
6.09125e-06
5.98072e-07
1.59893e-05
5.42523e-06
1.38504e-06
1.46959e-05
5.67937e-06
1.76173e-06
1.2758e-05
5.84174e-06
2.04716e-06
9.66831e-06
5.81421e-06
2.63307e-06
4.85747e-06
6.43624e-06
3.50589e-06
-2.00628e-06
7.13073e-06
4.42029e-06
-8.16272e-06
6.02226e-06
3.92593e-06
-1.11435e-05
3.9583e-06
2.31819e-06
-1.18266e-05
1.91806e-06
8.57059e-07
-1.13962e-05
4.28513e-07
-5.88017e-07
-1.02677e-05
-5.65831e-07
-1.68909e-06
-8.69172e-06
-1.22152e-06
-2.52371e-06
-6.79395e-06
-1.73284e-06
-3.11942e-06
-4.57693e-06
-2.04586e-06
-3.59414e-06
-2.10176e-06
-2.19021e-06
-3.8228e-06
3.66493e-07
-2.21464e-06
-3.55861e-06
2.40314e-06
-1.87443e-06
-2.70958e-06
3.2117e-06
-1.02312e-06
-1.30235e-06
2.69139e-06
-5.17044e-08
1.6786e-07
1.28177e-06
1.37634e-06
8.23467e-07
-4.15958e-07
3.24496e-06
6.30659e-07
-1.79562e-06
5.62969e-06
-4.22465e-08
-2.61653e-06
8.55537e-06
-7.51942e-07
-3.04218e-06
1.03917e-05
-9.85781e-07
-2.08831e-06
1.11191e-05
-2.63599e-06
1.19253e-05
-4.34986e-06
-3.90174e-06
-3.68979e-06
3.19047e-07
-2.91298e-06
-4.33667e-06
-6.35786e-07
-2.63764e-06
-3.70003e-06
1.28348e-07
-1.91299e-06
-4.08484e-06
-6.21847e-08
-1.45779e-06
-3.30755e-06
2.42916e-07
-9.2764e-07
-3.02445e-06
2.78361e-07
-5.2321e-07
-1.30933e-06
2.50262e-07
-1.79301e-07
-5.52169e-07
1.57546e-07
-5.76341e-08
3.65926e-07
-1.28831e-08
-9.03299e-08
4.78663e-07
-5.62552e-08
-1.63012e-07
4.48511e-07
-1.29944e-07
-3.27299e-07
4.12187e-07
-1.50674e-07
-4.26105e-07
3.41119e-07
-2.02058e-07
-4.67239e-07
2.43647e-07
-2.41513e-07
-4.3237e-07
1.62334e-07
-2.79149e-07
-3.7142e-07
1.18373e-07
-3.04509e-07
-3.00871e-07
1.39407e-07
-3.20388e-07
-2.28894e-07
1.48841e-07
-3.35789e-07
-1.68806e-07
1.90121e-07
-3.38561e-07
-1.17281e-07
2.17556e-07
-3.40925e-07
-7.9932e-08
2.53962e-07
-3.3745e-07
-5.35896e-08
2.83309e-07
-3.34171e-07
-3.6031e-08
3.10513e-07
-3.30016e-07
-2.67993e-08
3.33353e-07
-3.26958e-07
-2.37228e-08
3.54004e-07
-3.24408e-07
-2.39899e-08
3.7125e-07
-3.2262e-07
-2.51114e-08
3.85376e-07
-3.21429e-07
-2.59981e-08
3.97998e-07
-3.20419e-07
-2.66239e-08
4.10557e-07
-3.193e-07
-2.73935e-08
4.22922e-07
-3.17887e-07
-2.91323e-08
4.35078e-07
-3.16164e-07
-3.07489e-08
4.48211e-07
-3.14027e-07
-3.24992e-08
4.56542e-07
-3.13057e-07
-3.43813e-08
4.74982e-07
-3.09135e-07
-3.16678e-08
4.69787e-07
-3.10924e-07
-3.59844e-08
5.07435e-07
-3.02005e-07
-2.76557e-08
4.76311e-07
-3.09084e-07
-3.93551e-08
5.46287e-07
-2.91636e-07
-3.24378e-08
4.77717e-07
-3.01899e-07
-5.93682e-08
5.87815e-07
-2.74251e-07
-8.63059e-08
4.84218e-07
-2.77823e-07
-1.36842e-07
6.19069e-07
-2.49055e-07
-2.57336e-07
5.37382e-07
-2.30326e-07
-3.39299e-07
6.08457e-07
-2.28505e-07
-5.5677e-07
6.15495e-07
-1.95942e-07
-6.36969e-07
5.2901e-07
-2.51424e-07
-7.44986e-07
5.48716e-07
-2.23963e-07
-7.92906e-07
3.73631e-07
-2.87803e-07
-3.80907e-07
9.65639e-08
-2.38076e-07
-3.99503e-07
7.81367e-08
-2.3328e-07
-3.52651e-07
5.26885e-07
1.46966e-07
3.41561e-07
-5.1299e-07
-2.80885e-07
1.11912e-06
-1.43779e-06
-4.51838e-07
2.92913e-06
-4.28859e-06
-1.23995e-06
-3.70396e-07
-7.69308e-07
1.49834e-06
-6.10409e-06
2.57314e-06
-1.33461e-07
9.84977e-06
-5.53475e-06
-4.58894e-06
1.27585e-05
2.44485e-05
-7.20527e-06
2.89212e-05
-7.88872e-07
9.55983e-06
3.49898e-05
-2.54626e-05
5.66353e-07
-4.25393e-07
-4.43319e-05
3.14226e-06
-6.68031e-06
-1.87177e-05
2.97005e-06
-5.62826e-06
-2.20923e-05
-1.88217e-06
6.52133e-07
-3.90968e-06
-4.25698e-06
8.17826e-06
-1.44839e-06
-3.74444e-06
1.07026e-05
3.69897e-06
-2.51311e-06
1.21447e-05
5.03349e-06
-1.37582e-06
1.2568e-05
5.77549e-06
-5.68131e-08
1.1905e-05
5.7715e-06
1.37984e-06
1.034e-05
5.21916e-06
2.43701e-06
7.33229e-06
5.10149e-06
3.33119e-06
2.83693e-06
6.37818e-06
3.79623e-06
-4.2399e-06
8.5515e-06
4.36697e-06
-1.19859e-05
9.43355e-06
4.12675e-06
-1.80146e-05
9.10445e-06
3.3606e-06
-2.10512e-05
7.78088e-06
2.3866e-06
-2.21421e-05
6.134e-06
9.79212e-07
-2.23105e-05
4.51884e-06
-3.91989e-07
-2.18173e-05
3.04834e-06
-1.62354e-06
-2.08004e-05
1.86089e-06
-2.44942e-06
-1.93055e-05
7.81303e-07
-2.84218e-06
-1.74423e-05
-2.11597e-07
-2.87319e-06
-1.50957e-05
-1.24241e-06
-2.83705e-06
-1.24041e-05
-1.95197e-06
-2.78554e-06
-9.50116e-06
-2.40042e-06
-2.69276e-06
-6.66829e-06
-2.60404e-06
-2.44348e-06
-4.45777e-06
-2.15984e-06
-1.92512e-06
-3.47846e-06
-1.04678e-06
-9.55651e-07
-3.91801e-06
1.65525e-07
2.22318e-07
-4.88512e-06
1.60286e-06
7.4059e-07
-5.60409e-06
3.45781e-06
5.06129e-07
-5.9772e-06
6.11495e-06
-1.12156e-07
-5.81711e-06
9.0476e-06
-6.52316e-07
-5.08099e-06
1.08685e-05
-1.2129e-06
-2.97283e-06
1.17969e-05
-2.78594e-06
1.29599e-05
-4.00743e-06
-4.44518e-06
-3.67201e-06
3.3099e-07
-3.29538e-06
-4.58315e-06
-9.01394e-07
-3.10547e-06
-3.83613e-06
-4.7077e-08
-2.1732e-06
-4.42245e-06
-5.91482e-07
-1.65801e-06
-3.82838e-06
1.08112e-08
-9.48032e-07
-3.821e-06
9.29387e-08
-4.78778e-07
-2.16467e-06
3.91861e-07
-2.42992e-07
-1.14464e-06
3.60882e-07
-6.04303e-08
8.02222e-08
1.06442e-07
6.33004e-08
3.57668e-07
-2.03568e-09
1.12708e-07
4.92999e-07
-9.34381e-08
-9.22008e-08
6.8603e-07
-6.84486e-08
-2.68676e-07
6.61138e-07
-1.43243e-07
-3.78321e-07
5.48832e-07
-1.9517e-07
-3.71089e-07
4.19816e-07
-2.64426e-07
-3.27685e-07
3.78665e-07
-3.03366e-07
-2.72209e-07
4.14097e-07
-3.29823e-07
-2.20841e-07
4.46449e-07
-3.48627e-07
-1.75769e-07
5.02127e-07
-3.56694e-07
-1.36047e-07
5.39431e-07
-3.61218e-07
-1.06202e-07
5.82633e-07
-3.58114e-07
-8.4725e-08
6.14679e-07
-3.52436e-07
-7.19528e-08
6.42717e-07
-3.44567e-07
-6.63657e-08
6.64933e-07
-3.3675e-07
-6.60558e-08
6.83339e-07
-3.29242e-07
-6.88173e-08
6.97419e-07
-3.22985e-07
-7.28991e-08
7.07868e-07
-3.17999e-07
-7.66496e-08
7.16062e-07
-3.1389e-07
-7.94863e-08
7.24222e-07
-3.10416e-07
-8.1446e-08
7.32447e-07
-3.07141e-07
-8.3271e-08
7.40883e-07
-3.03559e-07
-8.3929e-08
7.49188e-07
-2.99912e-07
-8.55454e-08
7.54894e-07
-2.96279e-07
-8.56302e-08
7.65927e-07
-2.90498e-07
-8.56106e-08
7.59736e-07
-2.89442e-07
-8.85644e-08
7.88448e-07
-2.77785e-07
-9.04429e-08
7.60671e-07
-2.81853e-07
-1.01892e-07
8.17821e-07
-2.59968e-07
-1.19703e-07
7.63842e-07
-2.67537e-07
-1.45198e-07
8.50687e-07
-2.37471e-07
-2.10461e-07
7.89241e-07
-2.38751e-07
-2.47005e-07
8.73525e-07
-2.1827e-07
-3.96086e-07
8.83835e-07
-1.96049e-07
-4.38151e-07
8.68124e-07
-2.18449e-07
-6.35909e-07
1.00471e-06
-1.89504e-07
-6.62019e-07
8.13948e-07
-2.60534e-07
-7.20427e-07
8.88797e-07
-2.78322e-07
-6.87861e-07
6.98276e-07
-3.60121e-07
-5.83215e-07
2.89096e-07
-2.8819e-07
-5.0137e-07
3.93594e-07
-3.98537e-07
-2.40889e-08
3.47472e-07
-2.48697e-07
-1.5494e-07
-4.06715e-07
3.74463e-08
-1.62357e-07
-6.22105e-07
-6.40902e-07
-2.00427e-06
-1.53521e-06
-9.67822e-07
1.77524e-06
-3.84746e-06
1.14657e-07
7.74268e-06
1.43787e-06
-5.14489e-06
1.39137e-05
-4.5767e-06
-5.6087e-06
2.13935e-05
2.43466e-05
-7.63944e-06
3.78244e-05
-1.07942e-05
1.63586e-05
3.59356e-05
-1.51538e-05
1.56208e-06
-6.82298e-06
-3.73228e-05
3.56558e-06
-1.27125e-05
-1.7329e-05
3.10387e-06
-1.35824e-05
-2.05119e-05
-7.62723e-07
-6.61821e-06
-8.93234e-06
-1.9791e-06
-1.93252e-06
-5.34641e-06
-8.02273e-07
7.96578e-07
5.27411e-07
4.38336e-07
1.70141e-06
2.35125e-06
1.77619e-06
4.2659e-07
4.10863e-06
2.94224e-06
-3.37052e-06
5.61982e-06
3.94967e-06
-1.04175e-05
7.61119e-06
4.65643e-06
-1.87378e-05
9.2952e-06
4.13135e-06
-2.60617e-05
1.02383e-05
3.46711e-06
-3.08286e-05
1.03946e-05
2.92166e-06
-3.35825e-05
1.00079e-05
2.17889e-06
-3.55456e-05
9.72863e-06
1.34348e-06
-3.66212e-05
8.48297e-06
3.76042e-07
-3.69954e-05
7.12386e-06
-6.13988e-07
-3.67246e-05
5.62109e-06
-1.3779e-06
-3.60083e-05
4.05812e-06
-1.74156e-06
-3.48789e-05
2.32326e-06
-1.60795e-06
-3.34543e-05
5.6845e-07
-1.21914e-06
-3.18154e-05
-1.11415e-06
-7.39859e-07
-2.96858e-05
-2.84451e-06
-5.32185e-07
-2.69077e-05
-4.24076e-06
-4.95472e-07
-2.33086e-05
-5.29652e-06
-7.08627e-07
-1.91675e-05
-5.79533e-06
-9.55125e-07
-1.52176e-05
-5.08211e-06
-1.03125e-06
-1.23475e-05
-3.20576e-06
-7.12379e-07
-1.06366e-05
-1.44341e-06
-1.01852e-07
-1.02865e-05
7.16137e-07
5.36703e-07
-1.0299e-05
2.81831e-06
6.5196e-07
-9.8417e-06
5.24536e-06
4.12329e-07
-8.64094e-06
7.97035e-06
-1.2351e-07
-6.48155e-06
9.68481e-06
-9.75684e-07
-3.4105e-06
1.12512e-05
-2.52536e-06
1.28368e-05
-3.28735e-06
-4.83289e-06
-3.30443e-06
2.51921e-07
-3.48937e-06
-4.5095e-06
-1.41621e-06
-3.35718e-06
-3.48973e-06
-4.71327e-07
-2.24738e-06
-4.12066e-06
-1.40929e-06
-1.70224e-06
-3.65145e-06
-7.1887e-07
-8.26184e-07
-3.93301e-06
-7.58263e-07
-1.25984e-07
-2.75332e-06
-1.04556e-07
-3.89495e-09
-1.54048e-06
2.77379e-07
3.53023e-09
-1.09987e-07
1.85763e-07
1.11561e-07
2.07384e-07
4.46757e-08
2.42394e-07
4.32251e-07
-6.85871e-08
6.41472e-08
8.48329e-07
1.65975e-08
-1.14114e-07
9.1113e-07
-7.1672e-08
-2.48396e-07
8.25186e-07
-1.42039e-07
-2.54646e-07
6.84664e-07
-2.58698e-07
-2.40442e-07
6.7683e-07
-3.12436e-07
-2.19816e-07
7.40165e-07
-3.4679e-07
-2.06048e-07
7.90729e-07
-3.58175e-07
-1.91269e-07
8.54093e-07
-3.66867e-07
-1.75622e-07
8.9332e-07
-3.69724e-07
-1.62985e-07
9.37026e-07
-3.67207e-07
-1.54305e-07
9.66403e-07
-3.60624e-07
-1.50481e-07
9.90996e-07
-3.52313e-07
-1.51319e-07
1.00886e-06
-3.43325e-07
-1.55277e-07
1.02188e-06
-3.348e-07
-1.61111e-07
1.0297e-06
-3.26689e-07
-1.67631e-07
1.03315e-06
-3.18981e-07
-1.73359e-07
1.03327e-06
-3.11707e-07
-1.78245e-07
1.03377e-06
-3.04865e-07
-1.82335e-07
1.03498e-06
-2.98658e-07
-1.86354e-07
1.03722e-06
-2.92503e-07
-1.89106e-07
1.03875e-06
-2.87027e-07
-1.92984e-07
1.04012e-06
-2.81484e-07
-1.92484e-07
1.04089e-06
-2.75702e-07
-1.9675e-07
1.03382e-06
-2.69842e-07
-1.95341e-07
1.04734e-06
-2.60601e-07
-2.09224e-07
1.02978e-06
-2.55084e-07
-2.13039e-07
1.06224e-06
-2.41023e-07
-2.54867e-07
1.04059e-06
-2.34583e-07
-2.6783e-07
1.08357e-06
-2.20509e-07
-3.62252e-07
1.09266e-06
-2.08357e-07
-3.75894e-07
1.09591e-06
-2.09585e-07
-5.17802e-07
1.21835e-06
-1.91572e-07
-5.10881e-07
1.08467e-06
-2.24814e-07
-6.48389e-07
1.37105e-06
-2.27176e-07
-6.13074e-07
1.05295e-06
-2.76531e-07
-7.16919e-07
1.31592e-06
-3.20418e-07
-6.62043e-07
1.03663e-06
-3.96249e-07
-9.08056e-07
8.53715e-07
-3.087e-07
-8.31408e-07
8.58959e-07
-5.40948e-07
-5.90751e-07
7.99776e-07
-6.42753e-07
-1.06858e-06
4.16256e-07
-3.46108e-07
3.96257e-07
-7.7242e-07
-1.14105e-06
-1.81374e-07
-8.52632e-08
-9.14132e-07
1.86846e-06
-4.56512e-06
-4.87506e-07
1.04127e-05
-1.20319e-06
-6.14366e-06
1.50849e-05
1.94897e-06
-1.04563e-05
3.21902e-05
1.58071e-05
-8.53236e-06
3.49191e-05
-8.42557e-06
2.17018e-05
2.7702e-05
-7.16578e-06
2.51557e-06
-2.66892e-05
-1.81884e-05
4.26631e-06
-3.45775e-05
-1.27908e-05
3.04725e-06
-4.09464e-05
-1.43837e-05
1.16622e-07
-3.9195e-05
-1.02907e-05
-4.88895e-07
-3.81039e-05
-7.23215e-06
7.00104e-07
-3.69002e-05
-2.38642e-06
1.65789e-06
-3.78499e-05
7.42641e-07
2.54395e-06
-4.00957e-05
3.66894e-06
2.71901e-06
-4.34047e-05
5.955e-06
2.99453e-06
-4.65071e-05
7.90824e-06
2.75589e-06
-4.89887e-05
9.25471e-06
2.50478e-06
-5.0971e-05
1.0254e-05
2.02801e-06
-5.24639e-05
1.04628e-05
1.49024e-06
-5.35728e-05
1.01902e-05
9.66741e-07
-5.33526e-05
9.25079e-06
3.05806e-07
-5.24721e-05
7.9896e-06
-3.95483e-07
-5.12534e-05
6.7612e-06
-9.24179e-07
-4.97108e-05
5.21836e-06
-1.20312e-06
-4.80466e-05
3.39695e-06
-1.06326e-06
-4.62832e-05
1.23015e-06
-7.02237e-07
-4.44241e-05
-1.00318e-06
-3.30321e-07
-4.30986e-05
-3.02163e-06
5.06399e-07
-4.17538e-05
-5.01181e-06
7.67522e-07
-4.04773e-05
-6.83103e-06
1.28744e-06
-3.89602e-05
-8.33639e-06
1.50192e-06
-3.69317e-05
-9.3459e-06
1.42591e-06
-3.33276e-05
-9.43727e-06
6.36192e-07
-2.82422e-05
-8.16191e-06
-2.05868e-07
-2.2976e-05
-6.3213e-06
-4.42096e-07
-1.85452e-05
-3.57144e-06
-1.9183e-07
-1.55645e-05
-5.43925e-07
3.58395e-07
-1.28639e-05
2.20191e-06
3.41527e-07
-1.01054e-05
5.44811e-06
-2.41163e-07
-7.40957e-06
8.09186e-06
-1.10389e-06
-3.81485e-06
9.84878e-06
-2.19358e-06
1.16277e-05
-2.60718e-06
-5.17235e-06
-2.33345e-06
1.64706e-07
-3.60928e-06
-4.01308e-06
-2.06045e-06
-3.59574e-06
-2.78757e-06
-7.09035e-07
-2.40313e-06
-3.37387e-06
-1.93572e-06
-1.74687e-06
-2.94486e-06
-1.35939e-06
-8.74549e-07
-3.34259e-06
-1.45727e-06
8.09777e-08
-2.66239e-06
-1.0386e-06
3.66145e-07
-1.44594e-06
-3.74294e-07
3.14202e-07
-3.6825e-08
-1.89621e-08
2.52702e-07
3.03688e-07
-3.17357e-08
2.86417e-07
5.14238e-07
-1.13199e-07
1.97553e-07
9.2182e-07
1.59331e-08
1.31601e-07
1.10437e-06
-1.27222e-07
6.4507e-08
1.10203e-06
-2.09769e-07
1.619e-08
1.10124e-06
-3.68101e-07
-4.72033e-08
1.15439e-06
-4.14058e-07
-1.01721e-07
1.26196e-06
-4.67082e-07
-1.50759e-07
1.32336e-06
-4.83443e-07
-1.87399e-07
1.39522e-06
-5.04294e-07
-2.15584e-07
1.43909e-06
-5.17416e-07
-2.3892e-07
1.48698e-06
-5.26432e-07
-2.58366e-07
1.5188e-06
-5.32797e-07
-2.72086e-07
1.5402e-06
-5.35369e-07
-2.82486e-07
1.55449e-06
-5.35142e-07
-2.90464e-07
1.56378e-06
-5.33874e-07
-2.96415e-07
1.56881e-06
-5.33103e-07
-3.01506e-07
1.57053e-06
-5.32279e-07
-3.06141e-07
1.56986e-06
-5.31952e-07
-3.10344e-07
1.56946e-06
-5.31523e-07
-3.1409e-07
1.56969e-06
-5.31015e-07
-3.18028e-07
1.57123e-06
-5.30151e-07
-3.21543e-07
1.57232e-06
-5.30152e-07
-3.27299e-07
1.5753e-06
-5.29508e-07
-3.28884e-07
1.57409e-06
-5.31816e-07
-3.39466e-07
1.57348e-06
-5.29118e-07
-3.38914e-07
1.57692e-06
-5.30524e-07
-3.65881e-07
1.57788e-06
-5.21073e-07
-3.63039e-07
1.58122e-06
-5.22494e-07
-4.24e-07
1.60576e-06
-5.03949e-07
-4.20383e-07
1.58912e-06
-5.10155e-07
-5.27479e-07
1.68504e-06
-4.84727e-07
-5.01909e-07
1.57819e-06
-5.09263e-07
-6.0576e-07
1.81724e-06
-4.94053e-07
-5.31363e-07
1.54023e-06
-5.31947e-07
-5.59171e-07
1.96359e-06
-5.63129e-07
-4.53019e-07
1.53345e-06
-5.89529e-07
-5.02662e-07
2.04089e-06
-6.72399e-07
-4.96039e-07
1.72298e-06
-6.96198e-07
-8.51797e-07
1.99032e-06
-7.69363e-07
-9.42155e-07
1.85884e-06
-9.08549e-07
-7.67258e-07
1.92975e-06
-1.24872e-06
-1.06418e-06
1.86147e-06
-1.14864e-06
-4.27027e-08
2.32683e-07
-1.83781e-06
-5.28871e-08
1.05914e-06
-1.17239e-06
7.24946e-07
-2.28736e-06
-2.28632e-06
9.98647e-06
-5.21338e-07
-1.00011e-05
1.32361e-05
1.28147e-05
-1.3737e-05
3.49334e-05
6.03492e-06
-1.22773e-05
3.96778e-05
-7.10164e-06
2.31411e-05
2.8955e-05
1.88832e-06
3.07605e-06
-3.74448e-05
8.86677e-06
6.04193e-06
-5.28447e-05
-1.4008e-06
3.8208e-06
-6.33731e-05
-3.48508e-06
-3.98153e-07
-6.83554e-05
-5.03502e-06
-3.50203e-07
-7.13933e-05
-4.35358e-06
3.97216e-08
-7.19294e-05
-2.6086e-06
6.86741e-07
-7.21823e-05
-2.11727e-07
1.21798e-06
-7.22515e-05
2.31247e-06
1.50375e-06
-7.21841e-05
4.35596e-06
1.6669e-06
-7.20229e-05
6.23722e-06
1.61866e-06
-7.18377e-05
7.5555e-06
1.52136e-06
-7.14348e-05
8.68201e-06
1.15226e-06
-7.05874e-05
9.24335e-06
2.8574e-07
-6.93471e-05
9.23189e-06
-3.97845e-07
-6.73097e-05
8.76338e-06
-1.58841e-06
-6.49056e-05
7.93637e-06
-2.32301e-06
-6.18777e-05
6.6624e-06
-2.96065e-06
-5.85796e-05
4.94707e-06
-3.20198e-06
-5.50189e-05
2.75395e-06
-3.18538e-06
-5.16068e-05
3.97151e-07
-2.84973e-06
-4.87655e-05
-1.98965e-06
-2.06028e-06
-4.72127e-05
-4.30175e-06
-3.90378e-07
-4.63953e-05
-6.08532e-06
2.82169e-07
-4.69653e-05
-7.71992e-06
1.5535e-06
-4.88894e-05
-8.82999e-06
2.46518e-06
-5.10167e-05
-9.86055e-06
2.55935e-06
-5.25929e-05
-9.86656e-06
1.82482e-06
-5.1927e-05
-9.17427e-06
4.49124e-07
-4.96392e-05
-7.48951e-06
-9.10411e-07
-4.62625e-05
-5.76946e-06
-1.16197e-06
-4.2291e-05
-3.60622e-06
-1.06251e-06
-3.76979e-05
-1.29998e-06
-1.45518e-06
-3.07114e-05
2.36562e-07
-2.13063e-06
-2.14404e-05
1.23124e-06
-2.65446e-06
-1.18222e-05
2.52992e-06
-2.78399e-06
1.34501e-06
-3.33571e-06
-5.11365e-06
4.43837e-07
2.44957e-06
-3.77799e-06
-3.87745e-06
-1.47558e-06
-3.94102e-06
-1.85892e-06
-7.60881e-07
-2.70452e-06
-2.62091e-06
-1.98579e-06
-1.95566e-06
-2.10062e-06
-1.5885e-06
-9.72677e-07
-2.61935e-06
-1.70001e-06
1.94122e-07
-2.2752e-06
-1.54404e-06
5.05351e-07
-1.04238e-06
-7.06185e-07
4.17696e-07
2.51193e-07
-1.97744e-07
3.54334e-07
2.82032e-07
8.79706e-08
3.32272e-07
3.62836e-07
1.75867e-07
3.32438e-07
5.76958e-07
3.45192e-07