/*--------------------------------*- C++ -*----------------------------------*\
| =========                 |                                                 |
| \\      /  F ield         | OpenFOAM: The Open Source CFD Toolbox           |
|  \\    /   O peration     | Version:  2.3.0                                 |
|   \\  /    A nd           | Web:      www.OpenFOAM.org                      |
|    \\/     M anipulation  |                                                 |
\*---------------------------------------------------------------------------*/
FoamFile
{
    version     2.0;
    format      ascii;
    class       volVectorField;
    location    "21";
    object      U;
}
// * * * * * * * * * * * * * * * * * * * * * * * * * * * * * * * * * * * * * //

dimensions      [0 1 -1 0 0 0 0];

internalField   nonuniform List<vector> 
6144
(
(0.00834348 0.0162339 -0.00184344)
(0.00854003 0.000736232 -0.00261038)
(0.00581273 -0.000894156 -0.00297893)
(0.00555073 -0.00355607 -0.00314665)
(0.00357125 -0.00417467 -0.00250347)
(0.00311919 -0.00356711 -0.00168152)
(0.00200646 -0.00339345 -0.000596858)
(0.00172702 -0.0017952 -8.38497e-05)
(0.00136472 -0.000656525 9.54106e-05)
(0.00107159 0.00118229 0.000662996)
(0.00106499 0.00233701 0.000929452)
(0.00126402 0.00296991 0.00143655)
(0.00146037 0.00275077 0.00152732)
(0.00163979 0.00226517 0.00168222)
(0.00175466 0.00153204 0.00133211)
(0.00187198 0.00103622 0.00113606)
(0.00194241 0.000552422 0.000807455)
(0.00201222 0.00033334 0.000630537)
(0.00205969 0.000111069 0.000431216)
(0.0020856 2.69935e-05 0.000332293)
(0.00209787 -5.46526e-05 0.000268759)
(0.00209408 -6.89296e-05 0.000250648)
(0.00208329 -8.04971e-05 0.0002576)
(0.00206661 -7.10714e-05 0.000286693)
(0.00204532 -5.95254e-05 0.000332097)
(0.00202087 -4.63123e-05 0.000387256)
(0.00199384 -3.37166e-05 0.000447297)
(0.00196427 -1.90268e-05 0.000509474)
(0.00193246 2.67743e-06 0.000575387)
(0.0019006 2.83464e-05 0.000645223)
(0.00186633 4.75762e-05 0.000728225)
(0.00182506 4.89608e-05 0.000835588)
(0.00177507 1.60692e-05 0.000978815)
(0.00171593 -8.41263e-05 0.00116676)
(0.00164843 -0.000289896 0.00140536)
(0.00157634 -0.000651997 0.00168547)
(0.00150694 -0.0012068 0.00198253)
(0.00144822 -0.00196869 0.00223741)
(0.00141056 -0.00286092 0.00236856)
(0.00140269 -0.00379232 0.00227882)
(0.00143602 -0.00453833 0.00183715)
(0.00152394 -0.00482448 0.000878422)
(0.00166319 -0.00418558 -0.000418636)
(0.00194432 -0.00223284 -0.00164429)
(0.0027262 0.00101758 -0.00265441)
(0.00519166 0.00287275 -0.00344554)
(0.00874112 0.000368491 -0.00409881)
(0.0105658 -0.00624552 -0.00456675)
(0.00816911 -0.00955937 -0.00565065)
(0.0013198 -0.00260513 -0.00816161)
(-0.00287034 0.0273912 -0.00882411)
(0.01625 0.0437599 -0.00309487)
(0.0452551 0.0282647 -0.00278472)
(0.0527753 -0.0356518 -0.0149954)
(0.0404506 -0.0476198 -0.0213005)
(0.038256 -0.0956582 -0.0171532)
(0.0117324 -0.0697911 -0.0321259)
(-0.00156767 -0.0675156 0.0208475)
(-0.0417438 -0.0128024 -0.038182)
(0.0407624 0.128416 0.0456362)
(0.139097 -0.280522 0.0791892)
(0.0926048 -0.135986 0.0345363)
(0.066505 -0.193154 0.0144345)
(0.0585115 -0.236216 0.00571484)
(0.0524332 -0.24047 0.00159654)
(0.0462922 -0.245267 0.00242775)
(0.0402243 -0.249022 -3.14956e-05)
(0.0358178 -0.24925 0.00140777)
(0.0345029 -0.246667 0.000850867)
(0.0324292 -0.241014 -0.000366901)
(0.0292226 -0.237386 0.000231073)
(0.0263584 -0.232479 0.00278679)
(0.0225989 -0.231507 0.00753457)
(0.0184631 -0.230027 0.010244)
(0.016629 -0.224084 0.0134262)
(0.015725 -0.219189 0.0122419)
(0.0165203 -0.214711 0.0129281)
(0.0196774 -0.207259 0.0115329)
(0.016123 -0.19643 0.0109081)
(0.0206574 -0.180307 0.0164764)
(0.0188355 -0.166939 0.0118048)
(0.0117623 -0.154733 0.0147301)
(0.0111407 -0.14156 0.0101427)
(-0.000461229 -0.121754 0.00430336)
(-0.0192488 -0.0724447 0.0149485)
(-0.0210753 -0.0258309 0.0110194)
(-0.0129098 0.0077851 0.00858077)
(-0.00603815 0.0234842 0.0107238)
(-0.00436978 0.0305004 0.00801995)
(-0.00451002 0.034216 0.00699005)
(-0.00326569 0.0404975 0.00211594)
(-0.00120379 0.0450182 -0.00113459)
(0.00324742 0.0453465 -0.00145022)
(0.00792278 0.0396122 0.000680485)
(0.00986571 0.025677 0.00297502)
(0.013854 0.0152514 0.00480429)
(0.017218 0.0190496 0.00287772)
(0.0176477 0.00743667 0.00189939)
(0.0122441 0.00466858 -5.15346e-05)
(0.0110275 0.00231085 0.00131948)
(0.00718477 -0.000690566 0.00229215)
(0.00563814 -0.00177356 0.003074)
(0.0024715 -0.00260287 0.00384812)
(0.00151975 -0.000775262 0.00350826)
(0.000883485 0.000767608 0.00315316)
(0.000872196 0.00275281 0.00326491)
(0.00130207 0.00361836 0.00340463)
(0.00199598 0.00416695 0.00390004)
(0.00249264 0.00379522 0.00406426)
(0.00294595 0.00341949 0.00425286)
(0.00311047 0.00258675 0.00417653)
(0.00331365 0.00197841 0.00414117)
(0.00336392 0.00130942 0.00402709)
(0.00346896 0.000960503 0.00398397)
(0.00353449 0.00061254 0.00386288)
(0.00357641 0.000447776 0.00382474)
(0.0035799 0.000299605 0.00380382)
(0.00355965 0.000240044 0.00382414)
(0.00352192 0.000198454 0.00386118)
(0.00347395 0.00018711 0.0039177)
(0.003419 0.0001859 0.00398329)
(0.00335979 0.000192263 0.00405484)
(0.00329619 0.000201321 0.00412975)
(0.00322651 0.000213706 0.00420672)
(0.00315057 0.000232907 0.00428478)
(0.0030793 0.000254789 0.00434618)
(0.0030097 0.000262267 0.0044009)
(0.00293587 0.000237889 0.0044654)
(0.00286191 0.000165057 0.00454327)
(0.00279564 6.44801e-06 0.00463839)
(0.00274868 -0.000269234 0.00474991)
(0.00273213 -0.000703005 0.00487447)
(0.00275327 -0.00129897 0.00499602)
(0.00280637 -0.00205479 0.00509299)
(0.00287954 -0.00288339 0.00512924)
(0.00294711 -0.00369642 0.00505418)
(0.00294071 -0.00427753 0.0047872)
(0.002945 -0.00429311 0.00400229)
(0.00299171 -0.00339127 0.00243838)
(0.0028982 -0.00126645 0.000630948)
(0.00446264 0.00202234 -0.00037926)
(0.0102226 0.0043019 -0.000869399)
(0.0179524 0.00613112 -0.00170029)
(0.0201458 0.00816689 -0.00273764)
(0.0099616 0.015632 -0.00551935)
(-0.0108958 0.029489 -0.00629922)
(-0.0157043 0.043225 -0.00198914)
(0.00581607 0.02663 0.0115984)
(0.0570148 -0.0102125 0.0206565)
(0.0835674 -0.0603318 -0.00927812)
(0.0638947 -0.0463459 -0.00419021)
(0.0641418 -0.104459 0.0134341)
(0.00848524 -0.0814414 0.0023702)
(0.00557691 -0.159843 0.0373546)
(-0.117701 0.0254259 -0.0832799)
(0.0293144 0.0506995 0.0503695)
(0.173648 -0.241499 0.11964)
(0.106531 -0.0361224 0.0518883)
(0.0669778 -0.1284 0.0112547)
(0.0611925 -0.125121 0.0152037)
(0.0490164 -0.130709 0.0159285)
(0.0303183 -0.138697 0.0122327)
(0.0180147 -0.141261 0.0110576)
(0.0120373 -0.136683 0.00604144)
(0.0135869 -0.122677 -0.00131085)
(0.0165491 -0.105175 -0.00152415)
(0.0164167 -0.0967348 0.00641822)
(0.0139396 -0.0976077 0.013894)
(0.00696327 -0.105663 0.0187853)
(-0.0043908 -0.124761 0.0207598)
(-0.0107848 -0.137216 0.0209843)
(-0.0134374 -0.149858 0.0167508)
(-0.0182456 -0.15546 0.00905881)
(-0.0210764 -0.15143 0.00556354)
(-0.0229373 -0.143558 0.00793555)
(-0.0279423 -0.127826 0.00479651)
(-0.0271102 -0.119037 0.0109545)
(-0.0321544 -0.114528 0.0161899)
(-0.0368483 -0.107455 0.00808302)
(-0.0377445 -0.0944108 0.00973962)
(-0.0409292 -0.0520911 0.0205106)
(-0.0380622 -0.0106351 0.0103432)
(-0.0280603 0.015565 0.00122654)
(-0.0199013 0.031113 0.000258769)
(-0.0119077 0.0363552 0.000325526)
(-0.00600372 0.0383738 -0.00306277)
(0.000448673 0.0390726 -0.00803736)
(0.0120799 0.0389251 -0.00845973)
(0.0242331 0.0356627 -0.00512564)
(0.0298281 0.0310856 -0.00125766)
(0.0332201 0.0214467 0.0010239)
(0.0389419 0.0149497 0.00627315)
(0.021579 0.0224591 0.00405298)
(0.0223746 0.0131328 0.00263227)
(0.016055 0.00983235 0.00075749)
(0.0145255 0.00802472 0.00167251)
(0.00940398 0.00337457 0.00257861)
(0.00650011 0.00166963 0.00330049)
(0.00107637 -0.000590097 0.00462499)
(-0.000590603 0.000380202 0.00453719)
(-0.00136487 0.00144787 0.00423438)
(-0.000766435 0.00313023 0.00415033)
(-0.000100385 0.00355563 0.00409248)
(0.000871317 0.00402909 0.00445969)
(0.00138706 0.00384787 0.00464276)
(0.00199845 0.00385949 0.0048254)
(0.00230513 0.00326361 0.00476813)
(0.00263373 0.00278569 0.00474309)
(0.0026498 0.00210593 0.00466)
(0.00276812 0.00168563 0.00465283)
(0.00271692 0.00122828 0.00464105)
(0.00270644 0.000996425 0.0046755)
(0.00262746 0.000775447 0.00470815)
(0.00256137 0.000669111 0.00476024)
(0.00247787 0.00058944 0.00481048)
(0.00239581 0.000555072 0.0048652)
(0.00231239 0.000540113 0.00491904)
(0.00223055 0.000540917 0.00497253)
(0.0021475 0.000546792 0.00502563)
(0.00206013 0.000550264 0.00507921)
(0.00196837 0.000542659 0.00513313)
(0.00187397 0.000515609 0.00518865)
(0.00178034 0.000463085 0.00524664)
(0.00169017 0.000369894 0.00530923)
(0.00160956 0.000224861 0.00537888)
(0.00154597 8.5645e-06 0.00545723)
(0.00150929 -0.000280601 0.00553955)
(0.00151523 -0.000646534 0.00561945)
(0.00156121 -0.00105578 0.00568483)
(0.00163872 -0.00147899 0.00571886)
(0.00174698 -0.00184035 0.00569597)
(0.00188096 -0.00205923 0.00557768)
(0.00201167 -0.00201572 0.00532275)
(0.0020068 -0.00162999 0.00486487)
(0.00210333 -0.000728534 0.00384453)
(0.00229301 0.00053379 0.00250964)
(0.00434624 0.00198043 0.00152169)
(0.0099871 0.00433181 0.00130277)
(0.0165479 0.0125248 0.000790729)
(0.0166918 0.025114 -0.00133236)
(0.00206594 0.0433951 -0.00407213)
(-0.00722496 0.0541461 -0.00327074)
(0.000437159 0.0561083 0.00632327)
(0.0533327 0.000916361 0.0237434)
(0.0943848 -0.0245473 0.0203242)
(0.102831 -0.0550608 -0.0184138)
(0.0914369 0.0236072 0.00678914)
(0.104234 -0.100301 0.0348961)
(0.0355939 -0.0492293 0.0264995)
(-0.00412326 -0.165806 0.0410271)
(-0.0961656 0.0515081 -0.117383)
(0.034679 0.0353318 0.0125021)
(0.193977 -0.228502 0.132531)
(0.139193 0.00124233 0.0566951)
(0.100409 -0.103971 0.0235087)
(0.0750882 -0.0743532 0.0211711)
(0.0541501 -0.088684 0.0168435)
(0.0356474 -0.0941467 0.0152792)
(0.0269482 -0.094721 0.0091091)
(0.0238986 -0.0869231 -0.0020222)
(0.0301063 -0.0697515 -0.00247318)
(0.0408744 -0.0588663 0.00937973)
(0.0471724 -0.0602562 0.0211854)
(0.0456711 -0.068626 0.0281116)
(0.0382493 -0.0815845 0.0312631)
(0.0253017 -0.097697 0.0317711)
(0.0109596 -0.111781 0.0279671)
(0.0012379 -0.124248 0.0200815)
(-0.00754828 -0.128174 0.00955361)
(-0.0127861 -0.119676 0.00295699)
(-0.0130838 -0.0953312 -0.0047156)
(-0.0109577 -0.0636772 -0.00525395)
(-0.0242813 -0.0487493 -0.00539388)
(-0.032487 -0.0426274 0.00931897)
(-0.0330354 -0.0404704 0.0299892)
(-0.0528172 -0.0170307 0.0193388)
(-0.0687445 0.0114612 0.00547679)
(-0.056059 0.0318146 0.000110475)
(-0.0310189 0.0470999 0.00307453)
(-0.0111732 0.0591796 0.00516974)
(0.00149165 0.0634373 0.00624458)
(0.0110074 0.0580039 0.00610108)
(0.0222601 0.0500576 0.00543418)
(0.0320773 0.0438121 0.00539028)
(0.0384782 0.0360442 0.0107814)
(0.0399131 0.0309634 0.013065)
(0.0415384 0.0207397 0.0107926)
(0.0468296 0.00910479 0.0154304)
(0.024932 0.0256006 0.00451879)
(0.0263081 0.0164763 0.00257393)
(0.0197142 0.0128047 -2.64529e-05)
(0.0195905 0.0119998 1.85099e-05)
(0.0139923 0.00644544 -0.0002712)
(0.00955425 0.00486943 0.000438968)
(0.00140134 0.000721496 0.00316641)
(-0.00195502 0.000309569 0.00368355)
(-0.00365689 2.15636e-05 0.00420917)
(-0.00256516 0.00215343 0.0042479)
(-0.00156369 0.00235971 0.00423029)
(-0.000719044 0.0032375 0.00470594)
(-0.000157325 0.00349674 0.00486057)
(0.000475717 0.00386383 0.0049936)
(0.000968089 0.00352026 0.00485413)
(0.00136806 0.00319743 0.00479743)
(0.00140514 0.00253781 0.00467861)
(0.00154116 0.00208636 0.00465697)
(0.00145379 0.00155208 0.00462477)
(0.00142908 0.00124779 0.00465263)
(0.0013272 0.00095816 0.00468325)
(0.00123409 0.000808829 0.0047365)
(0.00112102 0.000693084 0.00478607)
(0.00101373 0.00064201 0.00483966)
(0.000910133 0.000620393 0.00489311)
(0.000814316 0.000621942 0.00494781)
(0.000725685 0.000631264 0.00500286)
(0.00064183 0.000636281 0.00505864)
(0.000561527 0.000623677 0.00511452)
(0.00048749 0.00058242 0.00516983)
(0.000422331 0.000507791 0.00522593)
(0.000370027 0.000392968 0.00528483)
(0.00033832 0.000241225 0.00534721)
(0.000336789 5.47655e-05 0.00541013)
(0.000370677 -0.000148036 0.00546275)
(0.000439402 -0.000352348 0.00549412)
(0.000544961 -0.000515632 0.00548619)
(0.000676974 -0.000614158 0.005424)
(0.000820246 -0.000572427 0.00529054)
(0.000988661 -0.000317964 0.00505464)
(0.00123742 0.000233449 0.00470035)
(0.00164175 0.000929348 0.00422584)
(0.00232421 0.00146824 0.00366746)
(0.00333985 0.00177245 0.00304458)
(0.00503593 0.00228503 0.002756)
(0.00783462 0.00424882 0.0022784)
(0.0102725 0.0139739 0.000255083)
(0.00778746 0.028989 -0.00164067)
(-0.00478678 0.0424534 -0.00278907)
(-0.00861563 0.0479304 -0.00378907)
(0.0251564 0.0302171 0.00496699)
(0.0779739 -0.00821781 0.0344191)
(0.103578 -0.025312 0.0188268)
(0.0979665 -0.0134118 -0.017485)
(0.114661 0.0597533 0.00775568)
(0.105463 -0.0442691 0.035867)
(-0.0456326 0.0690153 0.114056)
(0.0079097 -0.219816 0.185954)
(-0.0748317 0.109543 -0.0619664)
(0.0426413 -0.00784711 0.00863578)
(0.177492 -0.206314 0.139397)
(0.103264 0.0534523 0.0316881)
(0.0838093 -0.0722287 0.031821)
(0.0515411 -0.0273073 0.0197449)
(0.0277452 -0.0476331 0.0158277)
(0.010798 -0.0377608 0.00247384)
(0.0058231 -0.0234642 -0.00285188)
(0.00813163 -0.0155631 8.72218e-05)
(0.0149059 -0.00781153 0.00508422)
(0.0197196 -0.0128527 0.00982939)
(0.0208392 -0.012974 0.0182631)
(0.0173658 -0.0214219 0.0252587)
(0.0087753 -0.0363789 0.0279113)
(-0.0045026 -0.0566745 0.024682)
(-0.0162709 -0.075129 0.0163737)
(-0.0240015 -0.0888739 0.00390658)
(-0.0317125 -0.0922088 -0.0089702)
(-0.0392875 -0.0833102 -0.0127127)
(-0.0435145 -0.0623279 -0.00818279)
(-0.034291 -0.0432556 -0.00138399)
(-0.0234317 -0.0194861 0.0146826)
(-0.0358687 -0.0129821 0.0225962)
(-0.0640023 0.0200439 0.0167661)
(-0.0744811 0.0489496 0.0179891)
(-0.0657751 0.0608932 0.0123407)
(-0.0502454 0.0631551 0.00667652)
(-0.0302604 0.0701652 0.00149295)
(-0.0139539 0.0791146 0.00326509)
(0.0045309 0.0795729 0.0130429)
(0.0162136 0.0719274 0.012236)
(0.0226627 0.0589285 0.010909)
(0.0322697 0.0518001 0.0154521)
(0.0387997 0.0399033 0.0174784)
(0.0402529 0.0324988 0.016428)
(0.0432247 0.0198783 0.0122197)
(0.0488073 0.00668261 0.016892)
(0.0269565 0.0274357 0.00558385)
(0.0285727 0.0184621 0.00358651)
(0.0211259 0.0139483 0.000211064)
(0.0227954 0.0145974 0.00018839)
(0.018969 0.00898381 -0.00175901)
(0.0153104 0.0086529 -0.00217694)
(0.00519697 0.00236079 -0.000841851)
(0.000483048 0.00163566 0.00130758)
(-0.00447613 -0.00104246 0.00307254)
(-0.00456324 0.000587368 0.00382379)
(-0.00360339 0.000633092 0.00401782)
(-0.00314918 0.00208904 0.0047024)
(-0.00263247 0.00290438 0.00479988)
(-0.00193954 0.00366721 0.00489803)
(-0.0011757 0.00356455 0.00461852)
(-0.000714629 0.00332767 0.00452957)
(-0.000647488 0.00269956 0.00438373)
(-0.000593345 0.00227085 0.00436641)
(-0.000781266 0.00173633 0.00430248)
(-0.000890345 0.00140788 0.00430221)
(-0.00107768 0.00106251 0.00428676)
(-0.001229 0.000854902 0.00430681)
(-0.00138328 0.00070206 0.00432492)
(-0.00151364 0.000627801 0.00435409)
(-0.00162755 0.000591158 0.00438747)
(-0.00172468 0.000582801 0.00442597)
(-0.00180803 0.000583579 0.00446818)
(-0.00187854 0.000578971 0.00451544)
(-0.00193805 0.000555326 0.00456787)
(-0.00198725 0.000502705 0.00462393)
(-0.0020273 0.000420633 0.00468153)
(-0.00205764 0.000311835 0.00473752)
(-0.00207368 0.000193675 0.00478926)
(-0.00206771 8.66786e-05 0.00483394)
(-0.00203205 2.2793e-05 0.00486006)
(-0.00195745 2.0361e-05 0.00485282)
(-0.00184441 0.000117307 0.0047924)
(-0.00171881 0.000342834 0.00465274)
(-0.00160541 0.000765015 0.00440854)
(-0.00143145 0.00138293 0.00404757)
(-0.000924812 0.00214867 0.00362972)
(0.000197935 0.00274814 0.00332229)
(0.00176988 0.00286533 0.00322461)
(0.00329573 0.00241918 0.00331104)
(0.00490775 0.00228902 0.00367817)
(0.00582874 0.00368853 0.00327939)
(0.00539642 0.0125344 -0.000393061)
(0.00264129 0.0249271 -0.00302651)
(-0.00304267 0.0325459 -0.00436166)
(0.00402231 0.0331068 -0.00196941)
(0.0504471 0.00624048 0.0151742)
(0.0899674 -0.00569554 0.0389251)
(0.096166 0.00772443 0.0192677)
(0.0790858 0.068865 -0.00642458)
(0.0783782 0.0868291 0.0187087)
(0.0665418 0.0293353 0.0367049)
(0.0599064 0.122013 0.108705)
(0.151767 -0.259818 0.222717)
(-0.0549854 0.143161 0.0432355)
(0.0257055 -0.0288038 0.00833703)
(0.158599 -0.174989 0.124107)
(0.0763682 0.0798121 0.0206743)
(0.084643 0.0222893 0.0389136)
(0.0566636 0.0725995 0.0332463)
(0.0402218 0.0473609 0.0170158)
(0.0208852 0.0464723 0.00493885)
(0.0146419 0.0441048 -0.000831592)
(0.0140818 0.042295 -0.00518925)
(0.019721 0.0413355 -0.0108961)
(0.0252859 0.0440347 -0.010466)
(0.0274186 0.0405048 -0.00624009)
(0.0255361 0.0351071 0.00293792)
(0.020368 0.0240675 0.0114828)
(0.0109077 0.0043137 0.0135768)
(-0.000240755 -0.0145644 0.0204875)
(-0.00998265 -0.0310642 0.0190858)
(-0.0187695 -0.0426039 0.00766742)
(-0.0280318 -0.042845 -0.00758532)
(-0.0342495 -0.0329004 -0.0131875)
(-0.0381705 -0.0108215 -0.0146938)
(-0.0493922 0.0360037 0.00306372)
(-0.0666755 0.0721289 0.0219619)
(-0.0736698 0.0845809 0.0230381)
(-0.0656085 0.088206 0.0151565)
(-0.0572354 0.0807904 0.00460867)
(-0.0378623 0.0884683 -0.0168706)
(-0.0155926 0.10798 -0.0169834)
(0.00216446 0.10931 -0.00266093)
(0.0142203 0.104179 0.00623893)
(0.0242817 0.0957656 0.0126528)
(0.0301391 0.0774567 0.0166477)
(0.0355076 0.0642021 0.0192812)
(0.0410001 0.0506054 0.0208758)
(0.0416536 0.037156 0.0193662)
(0.0432791 0.0236174 0.0168996)
(0.0460649 0.00479418 0.0198989)
(0.0270604 0.0275182 0.00879217)
(0.0303138 0.0199438 0.00547142)
(0.0210614 0.0143737 0.00176391)
(0.0234994 0.0158412 0.00212534)
(0.0210534 0.00915315 -0.000578486)
(0.0201781 0.00909662 -0.000750487)
(0.0123685 0.00137685 -0.00347373)
(0.0046815 0.00169661 -0.00186097)
(-0.00239931 -0.0012983 0.00103156)
(-0.00489089 -0.000139723 0.00260402)
(-0.00475894 -0.00113771 0.00317959)
(-0.00496955 0.000549769 0.0041554)
(-0.00410994 0.00185361 0.00440363)
(-0.003156 0.00324603 0.00473502)
(-0.00197483 0.00334559 0.00459067)
(-0.00141245 0.00314042 0.00464837)
(-0.00132734 0.00251329 0.00452236)
(-0.00136163 0.00216679 0.00454876)
(-0.00161293 0.00172322 0.00444541)
(-0.00176831 0.00148848 0.0044028)
(-0.00198503 0.00122076 0.00430539)
(-0.00215633 0.00106717 0.00422685)
(-0.00232316 0.000938585 0.00414397)
(-0.00245787 0.000870238 0.00407984)
(-0.00256556 0.000829359 0.00402991)
(-0.00264688 0.000811496 0.00399999)
(-0.0027041 0.000802011 0.00398952)
(-0.00273908 0.000790842 0.00399876)
(-0.00275624 0.000769887 0.00402706)
(-0.00275873 0.00073448 0.00407118)
(-0.00275103 0.000687599 0.00412629)
(-0.00273199 0.000640212 0.00418632)
(-0.00270412 0.000617555 0.00423971)
(-0.00266191 0.000645049 0.00427422)
(-0.0025984 0.000760435 0.00427408)
(-0.00252244 0.00098078 0.00421851)
(-0.00244063 0.00132915 0.00408258)
(-0.00236968 0.00179144 0.00384117)
(-0.00225071 0.00235721 0.00351026)
(-0.00191619 0.00292377 0.00316331)
(-0.00110152 0.00344473 0.00290264)
(0.000432933 0.00380674 0.002875)
(0.00246822 0.00379221 0.00326964)
(0.00428935 0.0028806 0.0040489)
(0.00543181 0.00172435 0.00479949)
(0.00403028 0.00225434 0.00346316)
(0.00214661 0.0098541 -0.00135551)
(0.00154107 0.0190357 -0.00462252)
(0.000820258 0.0244565 -0.00566532)
(0.0198189 0.01501 0.00255093)
(0.0575325 0.00366738 0.0278887)
(0.0837155 0.00452839 0.0370973)
(0.0686633 0.0569448 0.0129185)
(0.0615463 0.116287 0.0263379)
(0.091049 0.130734 0.0398032)
(0.116226 0.0905266 0.0528134)
(0.166514 0.143012 0.0816957)
(0.217363 -0.142389 0.152714)
(-0.130855 0.285582 0.0571727)
(0.0191488 -0.0905774 0.0146257)
(0.115492 -0.135674 0.0522112)
(-0.011639 0.138199 -0.0146736)
(0.023359 0.0857265 0.0135296)
(0.0213243 0.147153 0.0203628)
(0.0213379 0.157208 0.0239485)
(0.0193911 0.158855 0.0242062)
(0.0208945 0.154745 0.0234688)
(0.0260556 0.144 0.0189489)
(0.029586 0.134294 0.0133461)
(0.0316561 0.126549 0.0150614)
(0.0287649 0.114323 0.0148786)
(0.021348 0.0990194 0.0129204)
(0.0142667 0.0862854 0.00907702)
(0.0064556 0.0778393 0.00761827)
(-0.00441463 0.0652475 0.00501071)
(-0.0176453 0.0558906 0.00268316)
(-0.0284868 0.052408 0.00117543)
(-0.0370362 0.054556 -0.00124689)
(-0.0467338 0.0669927 0.000931913)
(-0.0567738 0.0850992 0.015151)
(-0.0610532 0.0989449 0.0229409)
(-0.0634283 0.102141 0.0219965)
(-0.0618623 0.0938356 0.00920996)
(-0.0552995 0.0958923 -0.0138995)
(-0.0371266 0.112282 -0.0379998)
(-0.0177316 0.139388 -0.029123)
(-0.00476782 0.145087 -0.00747193)
(0.00420062 0.146219 0.00547241)
(0.0135208 0.134919 0.0214106)
(0.0239028 0.122245 0.0248554)
(0.028478 0.106312 0.0252257)
(0.031134 0.0910065 0.0289264)
(0.0376767 0.0710956 0.0332003)
(0.0340545 0.0496641 0.0291678)
(0.0354221 0.0308243 0.0220575)
(0.0396362 0.00375203 0.0199227)
(0.0245949 0.0273513 0.00971419)
(0.0293172 0.0244808 0.00882896)
(0.0191441 0.0152518 0.00451624)
(0.0209928 0.0176497 0.00607582)
(0.0193347 0.00825217 0.00404069)
(0.0203026 0.00850369 0.00421074)
(0.0164625 0.0006447 -0.000629352)
(0.00815524 0.000402234 -0.0028252)
(8.6504e-06 -0.00208214 -0.000967358)
(-0.00427058 0.000285231 0.00105206)
(-0.00536946 -0.00169796 0.00208036)
(-0.0070966 -0.000271363 0.00320313)
(-0.00715704 0.000830779 0.00377007)
(-0.00600641 0.00251343 0.00474429)
(-0.00430765 0.00262065 0.00515437)
(-0.00375106 0.00256893 0.0055221)
(-0.00382155 0.00208801 0.00544263)
(-0.00413033 0.0019267 0.00544173)
(-0.0045504 0.00166135 0.00526213)
(-0.00482059 0.0015893 0.00515366)
(-0.00508026 0.00145729 0.00498398)
(-0.00524823 0.00140828 0.00483707)
(-0.00538635 0.00134547 0.00469667)
(-0.0054771 0.00131702 0.00459547)
(-0.00553146 0.00129522 0.00452457)
(-0.00555837 0.00128321 0.00448742)
(-0.00556643 0.00127364 0.00448069)
(-0.00555774 0.00126459 0.00450253)
(-0.00553868 0.00125466 0.00454731)
(-0.00550878 0.00124545 0.00460474)
(-0.00547747 0.00124713 0.00467333)
(-0.00545142 0.00128106 0.00474594)
(-0.00543936 0.00137565 0.0048066)
(-0.00543247 0.00155267 0.00483738)
(-0.00541191 0.00182423 0.0048258)
(-0.00534963 0.00217708 0.00476397)
(-0.00520621 0.00259906 0.004645)
(-0.00495419 0.0030032 0.00446249)
(-0.00456801 0.00333061 0.00422374)
(-0.00398954 0.00351174 0.00395019)
(-0.00310614 0.00358765 0.00373215)
(-0.00172027 0.00359448 0.00376454)
(0.000180171 0.00343003 0.00428138)
(0.00229975 0.00255383 0.00534208)
(0.00331099 0.00119185 0.0058144)
(0.000383254 0.00174488 0.0026194)
(-0.00116663 0.00920375 -0.00374976)
(0.000874555 0.0177975 -0.00665303)
(0.00857093 0.0201669 -0.00578087)
(0.0251578 0.0108804 0.00995841)
(0.0398318 0.0247317 0.0369707)
(0.0463066 0.0618583 0.0312068)
(0.0216835 0.140467 0.0245846)
(0.0283614 0.17954 0.0534823)
(0.0641594 0.198445 0.0643016)
(0.110154 0.195806 0.0786112)
(0.140568 0.200467 0.071023)
(0.12047 0.132518 0.120502)
(0.00171947 0.433869 0.139532)
(0.0187098 -0.171517 0.00780349)
(0.021404 0.0480186 -0.0238729)
(-0.0264256 0.189984 -0.00288292)
(0.00639162 0.204633 0.00283573)
(0.00390781 0.242915 0.0133136)
(0.0197475 0.254206 0.019052)
(0.0228078 0.262333 0.0224831)
(0.0316666 0.261099 0.0247137)
(0.0355057 0.257959 0.0252276)
(0.0398588 0.255782 0.0275519)
(0.0411365 0.250379 0.0306727)
(0.0419235 0.240821 0.0296282)
(0.0396057 0.227473 0.0327404)
(0.036142 0.208501 0.0350297)
(0.0298166 0.189397 0.033214)
(0.0184825 0.173229 0.0325733)
(0.00125914 0.159793 0.0294287)
(-0.016829 0.152933 0.0189157)
(-0.0327675 0.151369 0.010583)
(-0.0448084 0.15609 0.00436079)
(-0.0506842 0.154275 -0.00239041)
(-0.049927 0.160623 -0.0110464)
(-0.045533 0.162935 -0.0174609)
(-0.0401386 0.173357 -0.0295904)
(-0.0328962 0.184511 -0.0289937)
(-0.018883 0.194457 -0.0199989)
(-0.0151405 0.191395 -0.00320158)
(-0.00765168 0.18607 0.0101824)
(-0.00306334 0.176434 0.0250283)
(0.00520234 0.161642 0.0326357)
(0.0235837 0.14454 0.0310205)
(0.0302334 0.133119 0.0276585)
(0.0340023 0.117097 0.0328986)
(0.0432019 0.0962386 0.0363168)
(0.0472579 0.0802123 0.0421661)
(0.0528824 0.0544665 0.0326283)
(0.0386631 0.00325662 0.0179264)
(0.0239729 0.0233915 0.00851682)
(0.0275798 0.0275303 0.00906006)
(0.0169815 0.0179227 0.0057316)
(0.0180556 0.0198801 0.00830924)
(0.015936 0.00837696 0.00625)
(0.0171254 0.008539 0.00665126)
(0.0154376 0.00029824 0.00409114)
(0.00985076 0.000125447 -0.000870614)
(0.000369425 -0.00324281 -0.000969951)
(-0.00402893 -0.000265522 0.000460989)
(-0.00458568 -0.00151866 0.00179348)
(-0.00714784 -0.000357846 0.00301091)
(-0.00726556 -0.000631184 0.00407551)
(-0.00618912 0.00034997 0.0055619)
(-0.00430674 0.000203149 0.00670077)
(-0.00389174 0.000844805 0.00762142)
(-0.00396564 0.000898976 0.00795463)
(-0.0042573 0.00134905 0.00809776)
(-0.00456258 0.00143255 0.00799206)
(-0.00472412 0.00168571 0.00788126)
(-0.00489537 0.00177979 0.00768384)
(-0.00500022 0.00189931 0.0074927)
(-0.00510068 0.00191866 0.00730899)
(-0.00515561 0.00192677 0.00716739)
(-0.00517829 0.00191191 0.00706024)
(-0.00516835 0.00189249 0.00698831)
(-0.00513755 0.00186814 0.00694154)
(-0.00508418 0.00184893 0.00691875)
(-0.00501682 0.00183822 0.0069166)
(-0.0049452 0.0018465 0.00693099)
(-0.00488473 0.00188191 0.00695469)
(-0.00484639 0.00197264 0.00698001)
(-0.00484246 0.00214787 0.00699754)
(-0.00484612 0.00241809 0.00698722)
(-0.00483484 0.00275975 0.00693009)
(-0.00477417 0.00312339 0.00681929)
(-0.00461787 0.0034283 0.00667588)
(-0.00431928 0.00362787 0.00654)
(-0.00386309 0.00367669 0.00644393)
(-0.00321805 0.00355084 0.00642858)
(-0.00237621 0.0032819 0.00656553)
(-0.0012538 0.00290825 0.00690082)
(0.000208138 0.00237487 0.00734692)
(0.00182223 0.00158169 0.00773772)
(0.0019431 0.00158022 0.00700708)
(-0.00294446 0.00378932 0.00151093)
(-0.0046544 0.0111978 -0.00525355)
(0.00208901 0.0182569 -0.00608744)
(0.0141528 0.0166247 -0.00227537)
(0.0166514 0.0110056 0.0179302)
(0.00855211 0.0285174 0.0339007)
(0.000818908 0.0833801 0.0262965)
(-0.0191935 0.145034 0.0448276)
(0.000647034 0.174604 0.0773143)
(0.0431204 0.203543 0.0817041)
(0.118342 0.225196 0.094511)
(0.147917 0.245994 0.0879759)
(0.186594 0.169191 0.128833)
(0.195946 0.482588 0.165358)
(-0.058012 -0.204374 -0.0184001)
(-0.0859608 0.0686699 -0.0471703)
(-0.0532256 0.20673 -0.00163997)
(-0.0314211 0.220765 -0.00869914)
(-0.00174071 0.255198 0.00991597)
(0.0124234 0.263908 0.00779072)
(0.0237923 0.269534 0.00912567)
(0.0267366 0.27524 0.0110142)
(0.0310456 0.275089 0.0120425)
(0.0323841 0.282993 0.0160264)
(0.0319137 0.286218 0.0140606)
(0.0331455 0.287464 0.0139752)
(0.0319232 0.28982 0.0169078)
(0.0253489 0.289693 0.0182217)
(0.0195816 0.288054 0.0116539)
(0.0125695 0.287773 0.00473804)
(0.00428286 0.284126 -0.000853934)
(-0.00202049 0.275913 -0.00796591)
(-0.0082687 0.268445 -0.012018)
(-0.0154459 0.256377 -0.0136434)
(-0.0210972 0.245919 -0.0170603)
(-0.0224112 0.235633 -0.0182024)
(-0.02464 0.222842 -0.0160632)
(-0.0232458 0.212606 -0.0121495)
(-0.0167434 0.199693 -0.00484962)
(-0.0080217 0.187595 0.000909245)
(-0.00430081 0.172451 0.0100031)
(-0.00366706 0.157014 0.0217003)
(-0.00218559 0.142761 0.0282996)
(0.00749236 0.129552 0.0250453)
(0.023631 0.106571 0.0163968)
(0.0325788 0.101374 0.012582)
(0.0390326 0.104682 0.0198232)
(0.05054 0.0964304 0.027571)
(0.056663 0.0914642 0.0488376)
(0.070573 0.0633245 0.0511474)
(0.0778012 0.0236982 0.0470239)
(0.0120238 0.0209139 -0.00541009)
(0.0235354 0.0261239 0.00541053)
(0.011853 0.0219396 0.00339687)
(0.0145434 0.0248617 0.00564971)
(0.0116381 0.0129714 0.00433525)
(0.013697 0.0109878 0.00565317)
(0.0115511 0.00128835 0.00506663)
(0.00649301 0.000127878 0.000429419)
(-0.000429727 -0.00227106 -0.00287768)
(-0.00527691 -0.00026441 -0.00300092)
(-0.00590341 -0.00153317 -0.00178604)
(-0.00735398 -0.00059137 -0.000600437)
(-0.00830903 -0.00182508 0.000805169)
(-0.00816668 -0.00114809 0.00219813)
(-0.00795711 -0.00118552 0.00354194)
(-0.00811402 -9.63155e-07 0.00440166)
(-0.00859568 0.000338586 0.00500543)
(-0.0089188 0.00107939 0.00529778)
(-0.00929194 0.00130229 0.00541212)
(-0.00951121 0.00167822 0.00544849)
(-0.00964786 0.00184224 0.00540382)
(-0.00962345 0.00203648 0.00535049)
(-0.00957569 0.00213232 0.00528564)
(-0.00950081 0.00219513 0.00523787)
(-0.00941625 0.00221892 0.0052035)
(-0.0093199 0.00222824 0.00518495)
(-0.00921514 0.00222971 0.00517574)
(-0.00910224 0.00223406 0.00517402)
(-0.00898877 0.00225127 0.00517722)
(-0.00888012 0.00229641 0.00518332)
(-0.00879072 0.00236759 0.00518598)
(-0.00872893 0.00249001 0.00518001)
(-0.00871381 0.00267375 0.00516235)
(-0.00868798 0.00291168 0.00512717)
(-0.00855881 0.00317726 0.00507094)
(-0.00828986 0.0034007 0.00499116)
(-0.00787096 0.00352177 0.00490593)
(-0.00730968 0.00352146 0.00485049)
(-0.00664595 0.00343169 0.00486449)
(-0.00599878 0.00325069 0.00497916)
(-0.00532123 0.00296239 0.00529829)
(-0.00442784 0.00254976 0.00582389)
(-0.00335018 0.00195396 0.00641708)
(-0.00260844 0.00127783 0.00662834)
(-0.00452641 0.00258474 0.00449276)
(-0.00916694 0.00620227 -0.00276312)
(-0.00829007 0.0136542 -0.00823133)
(0.00260741 0.021013 -0.00532199)
(0.0135133 0.0221789 -0.00119898)
(0.00749862 0.022325 0.0116726)
(-0.0293032 0.00688861 0.0318949)
(-0.0475571 0.0434393 0.019187)
(-0.0464625 0.106498 0.0273122)
(-0.0185222 0.125871 0.0739622)
(0.00993564 0.14438 0.0700148)
(0.0708425 0.134518 0.0669668)
(0.0886003 0.205821 0.0689743)
(0.175301 0.14375 0.0976795)
(0.311284 0.571803 0.114211)
(-0.0556385 -0.211133 -0.00357319)
(-0.160082 0.000313542 -0.0225294)
(-0.0682944 0.147108 0.0106354)
(-0.0656622 0.102853 0.00405624)
(-0.0132543 0.0997103 0.0159409)
(-0.00736446 0.0885395 -0.00860645)
(0.0191101 0.0969918 -0.0126472)
(0.0175325 0.113094 -0.0228386)
(0.026032 0.122674 -0.0286959)
(0.0213864 0.16198 -0.021531)
(0.0272276 0.191642 -0.0103141)
(0.0256311 0.209237 -0.0148126)
(0.0184241 0.219371 -0.00787427)
(0.00988314 0.223513 0.000797374)
(0.00953825 0.220806 0.00819757)
(0.00918029 0.215823 0.0107104)
(0.00505242 0.211029 0.0114635)
(0.00633846 0.197793 0.0117407)
(0.00883902 0.181922 0.0117963)
(0.0087649 0.167442 0.0141022)
(0.00585871 0.152119 0.0115041)
(0.00617154 0.131817 0.0074354)
(0.000143067 0.120069 0.00201985)
(-0.00417756 0.10671 0.00369585)
(-0.00372225 0.0919398 0.0117008)