/*--------------------------------*- C++ -*----------------------------------*\
| =========                 |                                                 |
| \\      /  F ield         | OpenFOAM: The Open Source CFD Toolbox           |
|  \\    /   O peration     | Version:  2.3.0                                 |
|   \\  /    A nd           | Web:      www.OpenFOAM.org                      |
|    \\/     M anipulation  |                                                 |
\*---------------------------------------------------------------------------*/
FoamFile
{
    version     2.0;
    format      ascii;
    class       volVectorField;
    location    "21";
    object      U.air;
}
// * * * * * * * * * * * * * * * * * * * * * * * * * * * * * * * * * * * * * //

dimensions      [0 1 -1 0 0 0 0];

internalField   nonuniform List<vector> 
6144
(
(0.00834348 0.0162339 -0.00184344)
(0.00854003 0.000736237 -0.00261038)
(0.00581273 -0.000894151 -0.00297893)
(0.00555073 -0.00355607 -0.00314665)
(0.00357125 -0.00417466 -0.00250347)
(0.00311919 -0.00356711 -0.00168152)
(0.00200646 -0.00339344 -0.000596858)
(0.00172702 -0.0017952 -8.38497e-05)
(0.00136472 -0.000656518 9.54106e-05)
(0.00107159 0.0011823 0.000662996)
(0.00106499 0.00233701 0.000929452)
(0.00126402 0.00296991 0.00143655)
(0.00146037 0.00275078 0.00152732)
(0.00163979 0.00226518 0.00168222)
(0.00175466 0.00153205 0.00133211)
(0.00187198 0.00103623 0.00113606)
(0.00194241 0.000552429 0.000807455)
(0.00201222 0.000333347 0.000630537)
(0.00205969 0.000111076 0.000431216)
(0.0020856 2.70004e-05 0.000332293)
(0.00209787 -5.46456e-05 0.000268759)
(0.00209408 -6.89226e-05 0.000250648)
(0.00208329 -8.04902e-05 0.0002576)
(0.00206661 -7.10644e-05 0.000286693)
(0.00204532 -5.95184e-05 0.000332097)
(0.00202087 -4.63054e-05 0.000387256)
(0.00199384 -3.37096e-05 0.000447297)
(0.00196427 -1.90198e-05 0.000509474)
(0.00193246 2.68439e-06 0.000575387)
(0.0019006 2.83533e-05 0.000645223)
(0.00186633 4.75832e-05 0.000728225)
(0.00182506 4.89677e-05 0.000835588)
(0.00177507 1.60762e-05 0.000978815)
(0.00171593 -8.41194e-05 0.00116676)
(0.00164843 -0.000289889 0.00140536)
(0.00157634 -0.00065199 0.00168547)
(0.00150694 -0.00120679 0.00198253)
(0.00144822 -0.00196869 0.00223741)
(0.00141056 -0.00286092 0.00236856)
(0.00140269 -0.00379231 0.00227882)
(0.00143602 -0.00453832 0.00183715)
(0.00152394 -0.00482447 0.000878422)
(0.00166319 -0.00418557 -0.000418636)
(0.00194432 -0.00223284 -0.00164429)
(0.0027262 0.00101759 -0.00265441)
(0.00519166 0.00287276 -0.00344554)
(0.00874112 0.000368512 -0.00409881)
(0.0105658 -0.00624547 -0.00456675)
(0.00816911 -0.00955927 -0.00565065)
(0.0013198 -0.00260493 -0.00816161)
(-0.00287034 0.0273915 -0.00882411)
(0.01625 0.0437602 -0.00309487)
(0.0452551 0.028265 -0.00278473)
(0.0527753 -0.0356513 -0.0149954)
(0.0404505 -0.0476193 -0.0213005)
(0.038256 -0.0956575 -0.0171532)
(0.0117323 -0.0697904 -0.0321259)
(-0.00156767 -0.0675147 0.0208476)
(-0.0417467 -0.0127322 -0.0381847)
(0.0419437 0.146599 0.0459741)
(0.109692 0.319799 0.0464593)
(0.040021 0.361106 -0.00701103)
(0.066005 -0.171818 0.0140535)
(0.0584038 -0.230018 0.00561169)
(0.0523545 -0.233826 0.00154969)
(0.0462312 -0.238585 0.00240847)
(0.0401824 -0.24229 -4.47376e-05)
(0.0357918 -0.242471 0.00138776)
(0.0344904 -0.239855 0.000814603)
(0.0324091 -0.234199 -0.000412709)
(0.0291906 -0.230568 0.000192192)
(0.0263284 -0.225618 0.00277176)
(0.0225671 -0.224591 0.00754791)
(0.0184282 -0.223026 0.010268)
(0.0165968 -0.216999 0.0134393)
(0.0156954 -0.212064 0.0122362)
(0.0165073 -0.207554 0.0129123)
(0.0196628 -0.200058 0.0115066)
(0.0160982 -0.189176 0.0108938)
(0.0206422 -0.173015 0.0164806)
(0.0188086 -0.159644 0.0118058)
(0.011725 -0.147443 0.0147328)
(0.0111096 -0.134287 0.0101286)
(-0.000497961 -0.114533 0.00428105)
(-0.0192854 -0.0657627 0.0149418)
(-0.0210769 -0.0206423 0.0110259)
(-0.0129137 0.0115328 0.008589)
(-0.00604254 0.0267874 0.010728)
(-0.00437473 0.0338855 0.0080222)
(-0.0045142 0.0376712 0.0069934)
(-0.00326916 0.0440317 0.00211695)
(-0.00120886 0.0487152 -0.00113704)
(0.00323999 0.0492581 -0.00145538)
(0.0079135 0.0436462 0.000674894)
(0.00985466 0.029622 0.00296895)
(0.0138454 0.0189983 0.00479917)
(0.017218 0.0190496 0.00287772)
(0.0176477 0.00743667 0.00189939)
(0.0122441 0.00466858 -5.15346e-05)
(0.0110275 0.00231085 0.00131948)
(0.00718477 -0.000690561 0.00229215)
(0.00563814 -0.00177356 0.003074)
(0.0024715 -0.00260287 0.00384812)
(0.00151975 -0.000775256 0.00350826)
(0.000883485 0.000767615 0.00315316)
(0.000872196 0.00275282 0.00326491)
(0.00130207 0.00361837 0.00340463)
(0.00199598 0.00416696 0.00390004)
(0.00249264 0.00379522 0.00406426)
(0.00294595 0.0034195 0.00425286)
(0.00311047 0.00258675 0.00417653)
(0.00331365 0.00197842 0.00414117)
(0.00336392 0.00130942 0.00402709)
(0.00346896 0.00096051 0.00398397)
(0.00353449 0.000612547 0.00386288)
(0.00357641 0.000447783 0.00382474)
(0.0035799 0.000299612 0.00380382)
(0.00355965 0.000240051 0.00382414)
(0.00352192 0.000198461 0.00386118)
(0.00347395 0.000187117 0.0039177)
(0.003419 0.000185907 0.00398329)
(0.00335979 0.00019227 0.00405484)
(0.00329619 0.000201328 0.00412975)
(0.00322651 0.000213713 0.00420672)
(0.00315057 0.000232914 0.00428478)
(0.0030793 0.000254796 0.00434618)
(0.0030097 0.000262274 0.0044009)
(0.00293587 0.000237896 0.0044654)
(0.00286191 0.000165064 0.00454327)
(0.00279564 6.455e-06 0.00463839)
(0.00274868 -0.000269227 0.00474991)
(0.00273213 -0.000702998 0.00487447)
(0.00275327 -0.00129896 0.00499602)
(0.00280637 -0.00205479 0.00509299)
(0.00287954 -0.00288338 0.00512924)
(0.00294711 -0.00369641 0.00505418)
(0.00294071 -0.00427752 0.0047872)
(0.002945 -0.0042931 0.00400229)
(0.00299171 -0.00339126 0.00243838)
(0.0028982 -0.00126644 0.000630948)
(0.00446264 0.00202234 -0.00037926)
(0.0102226 0.00430191 -0.000869399)
(0.0179524 0.00613114 -0.00170029)
(0.0201458 0.00816695 -0.00273765)
(0.0099616 0.0156322 -0.00551935)
(-0.0108958 0.0294892 -0.00629922)
(-0.0157043 0.0432252 -0.00198914)
(0.00581607 0.0266302 0.0115984)
(0.0570148 -0.0102121 0.0206565)
(0.0835674 -0.0603313 -0.00927812)
(0.0638947 -0.0463453 -0.00419021)
(0.0641418 -0.104458 0.0134341)
(0.00848518 -0.0814407 0.00237018)
(0.00557691 -0.159842 0.0373546)
(-0.117701 0.0254495 -0.0832808)
(0.0313353 0.0641317 0.0514869)
(0.131204 0.364402 0.0872672)
(0.0472295 0.39988 0.00689052)
(0.0664556 -0.10622 0.0108162)
(0.0610898 -0.11872 0.0152037)
(0.0488861 -0.124078 0.0159125)
(0.0302246 -0.132036 0.0122047)
(0.0179596 -0.134558 0.0110351)
(0.0120102 -0.129956 0.00601928)
(0.0135715 -0.115972 -0.00134316)
(0.0165264 -0.0985352 -0.0015552)
(0.0163807 -0.0901396 0.006399)
(0.0139054 -0.0909847 0.0138839)
(0.00694074 -0.0989466 0.0187955)
(-0.00440559 -0.117906 0.0207799)
(-0.0107851 -0.13023 0.0209971)
(-0.0134403 -0.142828 0.0167344)
(-0.0182549 -0.148413 0.00901308)
(-0.0210856 -0.144342 0.0055303)
(-0.022945 -0.136412 0.00792681)
(-0.0279607 -0.120638 0.0047954)
(-0.0271362 -0.111834 0.0109693)
(-0.0321983 -0.107317 0.0162071)
(-0.036905 -0.100246 0.00807823)
(-0.0378018 -0.0872592 0.00973922)
(-0.0409844 -0.0456646 0.0205156)
(-0.0380992 -0.00581458 0.0103417)
(-0.0280813 0.019163 0.00122731)
(-0.0199193 0.0344036 0.000254589)
(-0.0119253 0.0396906 0.000325527)
(-0.00602246 0.0421128 -0.00305961)
(0.000430042 0.0437731 -0.00803742)
(0.0120626 0.0447219 -0.00846459)
(0.0242161 0.0421295 -0.00513728)
(0.0298095 0.0376477 -0.00127111)
(0.0331999 0.0275928 0.00100997)
(0.0389254 0.0205608 0.00626547)
(0.021579 0.0224591 0.00405298)
(0.0223746 0.0131328 0.00263227)
(0.016055 0.00983235 0.00075749)
(0.0145255 0.00802473 0.00167251)
(0.00940398 0.00337457 0.00257861)
(0.00650011 0.00166964 0.00330049)
(0.00107637 -0.000590091 0.00462499)
(-0.000590603 0.000380208 0.00453719)
(-0.00136487 0.00144788 0.00423438)
(-0.000766435 0.00313024 0.00415033)
(-0.000100385 0.00355564 0.00409248)
(0.000871317 0.0040291 0.00445969)
(0.00138706 0.00384788 0.00464276)
(0.00199845 0.0038595 0.0048254)
(0.00230513 0.00326362 0.00476813)
(0.00263373 0.0027857 0.00474309)
(0.0026498 0.00210593 0.00466)
(0.00276812 0.00168563 0.00465283)
(0.00271692 0.00122829 0.00464105)
(0.00270644 0.000996432 0.0046755)
(0.00262746 0.000775454 0.00470815)
(0.00256137 0.000669118 0.00476024)
(0.00247787 0.000589447 0.00481048)
(0.00239581 0.000555079 0.0048652)
(0.00231239 0.00054012 0.00491904)
(0.00223055 0.000540924 0.00497253)
(0.0021475 0.000546799 0.00502563)
(0.00206013 0.000550271 0.00507921)
(0.00196837 0.000542666 0.00513313)
(0.00187397 0.000515616 0.00518865)
(0.00178034 0.000463092 0.00524664)
(0.00169017 0.000369901 0.00530923)
(0.00160956 0.000224868 0.00537888)
(0.00154597 8.57149e-06 0.00545723)
(0.00150929 -0.000280594 0.00553955)
(0.00151523 -0.000646527 0.00561945)
(0.00156121 -0.00105577 0.00568483)
(0.00163872 -0.00147898 0.00571886)
(0.00174698 -0.00184035 0.00569597)
(0.00188096 -0.00205922 0.00557768)
(0.00201167 -0.00201571 0.00532275)
(0.0020068 -0.00162999 0.00486487)
(0.00210333 -0.000728527 0.00384453)
(0.00229301 0.000533797 0.00250964)
(0.00434624 0.00198044 0.00152169)
(0.0099871 0.00433182 0.00130277)
(0.0165479 0.0125248 0.000790729)
(0.0166918 0.0251141 -0.00133236)
(0.00206594 0.0433951 -0.00407213)
(-0.00722496 0.0541462 -0.00327074)
(0.000437159 0.0561085 0.00632327)
(0.0533327 0.000916639 0.0237434)
(0.0943848 -0.0245469 0.0203242)
(0.102831 -0.0550603 -0.0184138)
(0.0914369 0.0236078 0.00678914)
(0.104234 -0.1003 0.0348961)
(0.0355939 -0.0492286 0.0264995)
(-0.00412329 -0.165805 0.0410271)
(-0.0961661 0.051526 -0.117384)
(0.0378876 0.0507612 0.0148312)
(0.179745 0.379091 0.106862)
(0.105533 0.4204 0.0200916)
(0.0995485 -0.0797572 0.0221384)
(0.0746096 -0.0664697 0.0206059)
(0.0537384 -0.0814087 0.0167891)
(0.0354684 -0.0871296 0.0152846)
(0.0268696 -0.0876659 0.00910836)
(0.0238823 -0.0798412 -0.00203989)
(0.030134 -0.0626444 -0.00249625)
(0.0409628 -0.0517789 0.00936968)
(0.0474082 -0.0534044 0.0211994)
(0.045732 -0.0620479 0.0281422)
(0.0383111 -0.0749487 0.0313051)
(0.0253119 -0.0910399 0.0318024)
(0.0106741 -0.105138 0.0279593)
(0.00118926 -0.117584 0.0200465)
(-0.0075999 -0.121449 0.00948767)
(-0.0128124 -0.112852 0.00290339)
(-0.0130954 -0.0883801 -0.00475281)
(-0.0109671 -0.0566363 -0.00527611)
(-0.024295 -0.0416498 -0.00539225)
(-0.0325064 -0.0354948 0.00933433)
(-0.0330528 -0.0335077 0.0300004)
(-0.052859 -0.010761 0.0193464)
(-0.0687949 0.016476 0.00548441)
(-0.0561195 0.0356681 0.000114071)
(-0.0310891 0.0505674 0.00306199)
(-0.0112077 0.0629882 0.00515637)
(0.00145004 0.0682963 0.00624038)
(0.0109669 0.0642651 0.00610592)
(0.0222272 0.0574281 0.00543357)
(0.0320524 0.051748 0.00537695)
(0.0384586 0.0440665 0.0107609)
(0.0398961 0.0387047 0.0130485)
(0.0415226 0.0279431 0.0107776)
(0.0468173 0.0157904 0.0154198)
(0.024932 0.0256006 0.00451879)
(0.0263081 0.0164763 0.00257393)
(0.0197142 0.0128047 -2.64529e-05)
(0.0195905 0.0119998 1.85099e-05)
(0.0139923 0.00644545 -0.0002712)
(0.00955425 0.00486943 0.000438968)
(0.00140134 0.000721502 0.00316641)
(-0.00195502 0.000309576 0.00368355)
(-0.00365689 2.15704e-05 0.00420917)
(-0.00256516 0.00215343 0.0042479)
(-0.00156369 0.00235972 0.00423029)
(-0.000719044 0.0032375 0.00470594)
(-0.000157325 0.00349674 0.00486057)
(0.000475717 0.00386384 0.0049936)
(0.000968089 0.00352027 0.00485413)
(0.00136806 0.00319743 0.00479743)
(0.00140514 0.00253781 0.00467861)
(0.00154116 0.00208637 0.00465697)
(0.00145379 0.00155208 0.00462477)
(0.00142908 0.0012478 0.00465263)
(0.0013272 0.000958167 0.00468325)
(0.00123409 0.000808836 0.0047365)
(0.00112102 0.000693091 0.00478607)
(0.00101373 0.000642017 0.00483966)
(0.000910133 0.0006204 0.00489311)
(0.000814316 0.000621949 0.00494781)
(0.000725685 0.000631271 0.00500286)
(0.00064183 0.000636288 0.00505864)
(0.000561527 0.000623684 0.00511452)
(0.00048749 0.000582427 0.00516983)
(0.000422331 0.000507798 0.00522593)
(0.000370027 0.000392975 0.00528483)
(0.00033832 0.000241232 0.00534721)
(0.000336789 5.47725e-05 0.00541013)
(0.000370677 -0.000148029 0.00546275)
(0.000439402 -0.000352341 0.00549412)
(0.000544961 -0.000515625 0.00548619)
(0.000676974 -0.000614151 0.005424)
(0.000820246 -0.00057242 0.00529054)
(0.000988661 -0.000317957 0.00505464)
(0.00123742 0.000233456 0.00470035)
(0.00164175 0.000929355 0.00422584)
(0.00232421 0.00146825 0.00366746)
(0.00333985 0.00177246 0.00304458)
(0.00503593 0.00228504 0.002756)
(0.00783462 0.00424883 0.0022784)
(0.0102725 0.013974 0.000255083)
(0.00778746 0.0289891 -0.00164067)
(-0.00478678 0.0424535 -0.00278907)
(-0.00861563 0.0479305 -0.00378907)
(0.0251564 0.0302173 0.00496699)
(0.0779739 -0.0082174 0.0344191)
(0.103578 -0.0253114 0.0188268)
(0.0979665 -0.0134112 -0.017485)
(0.114661 0.0597539 0.00775568)
(0.105463 -0.0442685 0.035867)
(-0.0456326 0.069016 0.114056)
(0.00790972 -0.219815 0.185954)
(-0.0748325 0.109557 -0.0619667)
(0.0464896 0.0156675 0.0118277)
(0.156877 0.450379 0.112449)
(0.0737177 0.572792 0.0147029)
(0.0578949 0.472496 0.021068)
(0.0307494 0.511171 0.0124886)
(0.0170355 0.495963 0.010248)
(0.00620111 0.508375 0.000344801)
(0.0100527 0.525354 0.00201152)
(0.0142242 0.531196 0.00504288)
(0.0192263 0.531471 0.00929847)
(0.0212911 0.505592 0.0160323)
(0.0196489 0.391257 0.0230583)
(0.0175025 0.00889849 0.0251803)
(0.00888008 -0.00453218 0.027923)
(-0.00517212 0.125028 0.0240268)
(-0.0175221 0.16545 0.0145679)
(-0.0240349 -0.058301 0.00355092)
(-0.0317316 -0.0850727 -0.00952884)
(-0.0392186 -0.0775298 -0.0132188)
(-0.0434387 -0.0576667 -0.00856227)
(-0.0341998 -0.039364 -0.00163856)
(-0.023329 -0.015904 0.0145226)
(-0.0358308 -0.00934613 0.0225097)
(-0.0640078 0.023605 0.016613)
(-0.074504 0.0523914 0.018007)
(-0.0659285 0.0655488 0.0123951)
(-0.0504434 0.0710434 0.00644854)
(-0.030592 0.0850378 0.00117945)
(-0.0143773 0.0853712 0.00294422)
(0.00422491 0.0856695 0.0128597)
(0.0160201 0.0793716 0.0121505)
(0.0225262 0.0674915 0.0106708)
(0.0321899 0.0612975 0.0151265)
(0.0387624 0.0493825 0.0174504)
(0.0402198 0.0411065 0.0164009)
(0.0432188 0.0278229 0.0122009)
(0.0488028 0.0144898 0.0168734)
(0.0269565 0.0274357 0.00558385)
(0.0285727 0.0184621 0.00358651)
(0.0211259 0.0139483 0.000211064)
(0.0227954 0.0145974 0.00018839)
(0.018969 0.00898381 -0.00175901)
(0.0153104 0.0086529 -0.00217694)
(0.00519697 0.00236079 -0.000841851)
(0.000483048 0.00163567 0.00130758)
(-0.00447613 -0.00104245 0.00307254)
(-0.00456324 0.000587375 0.00382379)
(-0.00360339 0.000633099 0.00401782)
(-0.00314918 0.00208905 0.0047024)
(-0.00263247 0.00290439 0.00479988)
(-0.00193954 0.00366722 0.00489803)
(-0.0011757 0.00356456 0.00461852)
(-0.000714629 0.00332768 0.00452957)
(-0.000647488 0.00269957 0.00438373)
(-0.000593345 0.00227085 0.00436641)
(-0.000781266 0.00173633 0.00430248)
(-0.000890345 0.00140788 0.00430221)
(-0.00107768 0.00106252 0.00428676)
(-0.001229 0.000854908 0.00430681)
(-0.00138328 0.000702067 0.00432492)
(-0.00151364 0.000627808 0.00435409)
(-0.00162755 0.000591165 0.00438747)
(-0.00172468 0.000582808 0.00442597)
(-0.00180803 0.000583586 0.00446818)
(-0.00187854 0.000578978 0.00451544)
(-0.00193805 0.000555333 0.00456787)
(-0.00198725 0.000502712 0.00462393)
(-0.0020273 0.00042064 0.00468153)
(-0.00205764 0.000311842 0.00473752)
(-0.00207368 0.000193682 0.00478926)
(-0.00206771 8.66856e-05 0.00483394)
(-0.00203205 2.28e-05 0.00486006)
(-0.00195745 2.0368e-05 0.00485282)
(-0.00184441 0.000117314 0.0047924)
(-0.00171881 0.000342841 0.00465274)
(-0.00160541 0.000765022 0.00440854)
(-0.00143145 0.00138294 0.00404757)
(-0.000924812 0.00214868 0.00362972)
(0.000197935 0.00274815 0.00332229)
(0.00176988 0.00286534 0.00322461)
(0.00329573 0.00241919 0.00331104)
(0.00490775 0.00228902 0.00367817)
(0.00582874 0.00368854 0.00327939)
(0.00539642 0.0125344 -0.000393061)
(0.00264129 0.0249271 -0.00302651)
(-0.00304267 0.032546 -0.00436166)
(0.00402231 0.0331069 -0.00196941)
(0.0504471 0.00624075 0.0151742)
(0.0899674 -0.00569504 0.0389251)
(0.096166 0.00772498 0.0192677)
(0.0790859 0.0688655 -0.00642459)
(0.0783782 0.0868296 0.0187087)
(0.0665418 0.0293358 0.0367049)
(0.0599065 0.122014 0.108705)
(0.151767 -0.259816 0.222717)
(-0.0549862 0.143172 0.0432353)
(0.0295098 0.00407442 0.010316)
(0.159553 0.488914 0.116915)
(0.0718616 0.616254 0.0192492)
(0.0697738 0.562944 0.0322385)
(0.0434773 0.597978 0.0223976)
(0.0286437 0.583494 0.00954513)
(0.018538 0.590453 0.00136403)
(0.016567 0.583569 -0.00386706)
(0.0192106 0.585947 -0.00987588)
(0.0221927 0.58784 -0.0100366)
(0.0253244 0.579452 -0.00571195)
(0.0229078 0.577311 0.003091)
(0.0175675 0.570891 0.0111157)
(0.00899143 0.554379 0.0154107)
(-0.00207117 0.531863 0.0156608)
(-0.0130498 0.511904 0.0164499)
(-0.0221971 0.494804 0.0056565)
(-0.0296149 0.48886 -0.00739779)
(-0.0355102 0.491685 -0.0155507)
(-0.0404259 0.505514 -0.0119359)
(-0.0462845 0.537351 -0.00241101)
(-0.0562846 0.5788 0.0141154)
(-0.0642724 0.593018 0.0206698)
(-0.0650393 0.599171 0.0152636)
(-0.0531404 0.605848 0.00505572)
(-0.0427328 0.607212 -0.00724404)
(-0.0225664 0.632698 -0.0179647)
(-0.00632075 0.653414 -0.00816754)
(0.0113032 0.64997 0.00383347)
(0.0202253 0.645382 0.00992238)
(0.0289701 0.631743 0.0143661)
(0.033182 0.60795 0.0165705)
(0.038312 0.577985 0.0184567)
(0.0414453 0.508942 0.0186808)
(0.0413083 0.315036 0.0177608)
(0.0432554 0.0553806 0.0166588)
(0.0460483 0.0161994 0.0196457)
(0.0270604 0.0275182 0.00879217)
(0.0303138 0.0199438 0.00547142)
(0.0210614 0.0143737 0.00176391)
(0.0234994 0.0158412 0.00212534)
(0.0210534 0.00915316 -0.000578486)
(0.0201781 0.00909662 -0.000750487)
(0.0123685 0.00137685 -0.00347373)
(0.0046815 0.00169662 -0.00186097)
(-0.00239931 -0.00129829 0.00103156)
(-0.00489089 -0.000139716 0.00260402)
(-0.00475894 -0.0011377 0.00317959)
(-0.00496955 0.000549776 0.0041554)
(-0.00410994 0.00185362 0.00440363)
(-0.003156 0.00324604 0.00473502)
(-0.00197483 0.0033456 0.00459067)
(-0.00141245 0.00314042 0.00464837)
(-0.00132734 0.00251329 0.00452236)
(-0.00136163 0.0021668 0.00454876)
(-0.00161293 0.00172322 0.00444541)
(-0.00176831 0.00148848 0.0044028)
(-0.00198503 0.00122077 0.00430539)
(-0.00215633 0.00106718 0.00422685)
(-0.00232316 0.000938592 0.00414397)
(-0.00245787 0.000870245 0.00407984)
(-0.00256556 0.000829366 0.00402991)
(-0.00264688 0.000811503 0.00399999)
(-0.0027041 0.000802018 0.00398952)
(-0.00273908 0.000790849 0.00399876)
(-0.00275624 0.000769894 0.00402706)
(-0.00275873 0.000734487 0.00407118)
(-0.00275103 0.000687606 0.00412629)
(-0.00273199 0.000640219 0.00418632)
(-0.00270412 0.000617562 0.00423971)
(-0.00266191 0.000645056 0.00427422)
(-0.0025984 0.000760442 0.00427408)
(-0.00252244 0.000980787 0.00421851)
(-0.00244063 0.00132915 0.00408258)
(-0.00236968 0.00179145 0.00384117)
(-0.00225071 0.00235722 0.00351026)
(-0.00191619 0.00292377 0.00316331)
(-0.00110152 0.00344473 0.00290264)
(0.000432933 0.00380675 0.002875)
(0.00246822 0.00379222 0.00326964)
(0.00428935 0.00288061 0.0040489)
(0.00543181 0.00172436 0.00479949)
(0.00403028 0.00225435 0.00346316)
(0.00214661 0.00985411 -0.00135551)
(0.00154107 0.0190357 -0.00462252)
(0.000820258 0.0244565 -0.00566532)
(0.0198189 0.0150101 0.00255092)
(0.0575325 0.00366776 0.0278887)
(0.0837155 0.00452891 0.0370973)
(0.0686633 0.0569454 0.0129185)
(0.0615463 0.116287 0.0263379)
(0.091049 0.130735 0.0398032)
(0.116226 0.0905271 0.0528134)
(0.166514 0.143013 0.0816957)
(0.217363 -0.142388 0.152714)
(-0.130856 0.285597 0.0571731)
(0.0236381 -0.0470936 0.0149534)
(0.103428 0.546007 0.0510352)
(0.00242658 0.670945 -0.00164252)
(0.0258954 0.632933 0.0185063)
(0.022069 0.687749 0.0219444)
(0.0217063 0.694223 0.0228199)
(0.0197959 0.692605 0.0211729)
(0.0231038 0.687317 0.0174445)
(0.0265338 0.678153 0.0129935)
(0.027216 0.667322 0.0109892)
(0.0260462 0.658303 0.0138246)
(0.0204729 0.64558 0.0124686)
(0.0128622 0.632025 0.0105135)
(0.00517355 0.621458 0.0073388)
(-0.00496926 0.61293 0.0060223)
(-0.0169385 0.602524 0.00314106)
(-0.0273223 0.599264 0.0012524)
(-0.0348309 0.602104 0.000466362)
(-0.0429635 0.60938 0.00139541)
(-0.0510754 0.632613 0.00759699)
(-0.0542348 0.648232 0.0142881)
(-0.0553725 0.648157 0.0157491)
(-0.0544963 0.639866 0.00582139)
(-0.0494434 0.642273 -0.0103913)
(-0.0398461 0.648181 -0.0272786)
(-0.0244871 0.666974 -0.0314243)
(-0.0114259 0.686412 -0.0140778)
(6.26469e-05 0.686402 2.98628e-06)
(0.0092993 0.685745 0.0108333)
(0.0182424 0.672427 0.0228447)
(0.0250234 0.658821 0.0245615)
(0.0273874 0.641113 0.0266352)
(0.0308912 0.625821 0.0281788)
(0.0345314 0.605692 0.0274888)
(0.0320237 0.585752 0.0217435)
(0.03592 0.56855 0.0185663)
(0.0386456 0.532513 0.0189213)
(0.0245949 0.0273513 0.00971419)
(0.0293172 0.0244808 0.00882896)
(0.0191441 0.0152518 0.00451624)
(0.0209928 0.0176497 0.00607582)
(0.0193347 0.00825217 0.00404069)
(0.0203026 0.00850369 0.00421074)
(0.0164625 0.000644704 -0.000629352)
(0.00815524 0.000402239 -0.0028252)
(8.65043e-06 -0.00208213 -0.000967358)
(-0.00427058 0.000285237 0.00105206)
(-0.00536946 -0.00169795 0.00208036)
(-0.0070966 -0.000271356 0.00320313)
(-0.00715704 0.000830786 0.00377007)
(-0.00600641 0.00251344 0.00474429)
(-0.00430765 0.00262066 0.00515437)
(-0.00375106 0.00256894 0.0055221)
(-0.00382155 0.00208802 0.00544263)
(-0.00413033 0.00192671 0.00544173)
(-0.0045504 0.00166136 0.00526213)
(-0.00482059 0.00158931 0.00515366)
(-0.00508026 0.0014573 0.00498398)
(-0.00524823 0.00140829 0.00483707)
(-0.00538635 0.00134547 0.00469667)
(-0.0054771 0.00131703 0.00459547)
(-0.00553146 0.00129522 0.00452457)
(-0.00555837 0.00128322 0.00448742)
(-0.00556643 0.00127365 0.00448069)
(-0.00555774 0.0012646 0.00450253)
(-0.00553868 0.00125467 0.00454731)
(-0.00550878 0.00124545 0.00460474)
(-0.00547747 0.00124714 0.00467333)
(-0.00545142 0.00128106 0.00474594)
(-0.00543936 0.00137565 0.0048066)
(-0.00543247 0.00155267 0.00483738)
(-0.00541191 0.00182424 0.0048258)
(-0.00534963 0.00217708 0.00476397)
(-0.00520621 0.00259907 0.004645)
(-0.00495419 0.0030032 0.00446249)
(-0.00456801 0.00333062 0.00422374)
(-0.00398954 0.00351175 0.00395019)
(-0.00310614 0.00358766 0.00373215)
(-0.00172027 0.00359448 0.00376454)
(0.000180171 0.00343004 0.00428138)
(0.00229975 0.00255384 0.00534208)
(0.00331099 0.00119185 0.0058144)
(0.000383254 0.00174488 0.0026194)
(-0.00116663 0.00920376 -0.00374976)
(0.000874555 0.0177975 -0.00665303)
(0.00857093 0.0201669 -0.00578087)
(0.0251578 0.0108806 0.0099584)
(0.0398318 0.0247322 0.0369706)
(0.0463066 0.0618589 0.0312068)
(0.0216835 0.140467 0.0245846)
(0.0283614 0.179541 0.0534822)
(0.0641594 0.198446 0.0643016)
(0.110154 0.195807 0.0786112)
(0.140568 0.200467 0.0710229)
(0.12047 0.13252 0.120502)
(0.00171955 0.43387 0.139532)
(0.0188657 -0.0698809 -0.00191633)
(0.0120657 0.679436 -0.0218486)
(-0.0246765 0.726202 0.000537722)
(0.00714532 0.741671 0.00668256)
(0.00251058 0.779143 0.0153923)
(0.019897 0.790939 0.0206343)
(0.0221353 0.799619 0.0231327)
(0.0313675 0.793717 0.0252778)
(0.03577 0.791014 0.0266886)
(0.0391338 0.788404 0.0295051)
(0.0406228 0.780224 0.031673)
(0.0410442 0.768617 0.0315738)
(0.0380482 0.753103 0.0350324)
(0.0337066 0.734233 0.0348386)
(0.0249895 0.717455 0.032119)
(0.0116476 0.705377 0.0286222)
(-0.00465476 0.697699 0.0201757)
(-0.0193771 0.695662 0.00864647)
(-0.0318309 0.697297 0.00156708)
(-0.0398214 0.701967 -0.00526362)
(-0.0418793 0.700305 -0.0124991)
(-0.0397635 0.706187 -0.0195411)
(-0.0359681 0.708651 -0.0242919)
(-0.0316406 0.718678 -0.0284397)
(-0.0247091 0.724412 -0.019795)
(-0.0146346 0.728193 -0.00971424)
(-0.0106331 0.721733 0.00358476)
(-0.00179198 0.716645 0.0142656)
(0.00205375 0.705391 0.0272694)
(0.0114241 0.690858 0.0327988)
(0.0255061 0.675377 0.0323457)
(0.0299161 0.6628 0.0314891)
(0.0342737 0.645753 0.034456)
(0.0391294 0.62544 0.0329839)
(0.037297 0.608008 0.0298121)
(0.033988 0.578423 0.0145163)
(0.020403 0.524137 0.0062541)
(0.0239729 0.0233915 0.00851682)
(0.0275798 0.0275303 0.00906006)
(0.0169815 0.0179227 0.0057316)
(0.0180556 0.0198801 0.00830924)
(0.015936 0.00837696 0.00625)
(0.0171254 0.008539 0.00665126)
(0.0154376 0.000298244 0.00409114)
(0.00985076 0.000125452 -0.000870614)
(0.000369425 -0.0032428 -0.000969951)
(-0.00402893 -0.000265516 0.000460989)
(-0.00458568 -0.00151865 0.00179348)
(-0.00714784 -0.000357839 0.00301091)
(-0.00726556 -0.000631177 0.00407551)
(-0.00618912 0.000349977 0.0055619)
(-0.00430674 0.000203156 0.00670077)
(-0.00389174 0.000844812 0.00762142)
(-0.00396564 0.000898983 0.00795463)
(-0.0042573 0.00134905 0.00809776)
(-0.00456258 0.00143255 0.00799206)
(-0.00472412 0.00168572 0.00788126)
(-0.00489537 0.0017798 0.00768384)
(-0.00500022 0.00189932 0.0074927)
(-0.00510068 0.00191867 0.00730899)
(-0.00515561 0.00192678 0.00716739)
(-0.00517829 0.00191191 0.00706024)
(-0.00516835 0.0018925 0.00698831)
(-0.00513755 0.00186815 0.00694154)
(-0.00508418 0.00184894 0.00691875)
(-0.00501682 0.00183823 0.0069166)
(-0.0049452 0.0018465 0.00693099)
(-0.00488473 0.00188192 0.00695469)
(-0.00484639 0.00197265 0.00698001)
(-0.00484246 0.00214788 0.00699754)
(-0.00484612 0.0024181 0.00698722)
(-0.00483484 0.00275975 0.00693009)
(-0.00477417 0.0031234 0.00681929)
(-0.00461787 0.0034283 0.00667588)
(-0.00431928 0.00362788 0.00654)
(-0.00386309 0.0036767 0.00644393)
(-0.00321805 0.00355085 0.00642858)
(-0.00237621 0.00328191 0.00656553)
(-0.0012538 0.00290825 0.00690082)
(0.000208138 0.00237487 0.00734692)
(0.00182223 0.0015817 0.00773772)
(0.0019431 0.00158023 0.00700708)
(-0.00294446 0.00378932 0.00151093)
(-0.0046544 0.0111978 -0.00525355)
(0.00208901 0.0182569 -0.00608744)
(0.0141528 0.0166247 -0.00227537)
(0.0166514 0.0110058 0.0179302)
(0.00855211 0.0285179 0.0339007)
(0.000818905 0.0833806 0.0262965)
(-0.0191935 0.145035 0.0448276)
(0.000647034 0.174605 0.0773143)
(0.0431204 0.203543 0.0817041)
(0.118342 0.225197 0.094511)
(0.147917 0.245995 0.0879757)
(0.186594 0.169191 0.128833)
(0.195946 0.482589 0.165358)
(-0.0741599 -0.113233 -0.0300907)
(-0.0953615 0.691488 -0.0433989)
(-0.0461453 0.739241 0.00337685)
(-0.0314559 0.758325 -0.00765676)
(-0.00271046 0.789807 0.0112959)
(0.0124109 0.793702 0.00779888)
(0.0234577 0.805781 0.0107933)
(0.0265025 0.812576 0.0110505)
(0.0306601 0.819029 0.012595)
(0.0313027 0.817254 0.0142123)
(0.0312678 0.817208 0.0128123)
(0.032263 0.823777 0.0132436)
(0.0309981 0.822519 0.0153122)
(0.0260807 0.823548 0.0145908)
(0.0209783 0.820045 0.00837233)
(0.0157667 0.819327 0.00293643)
(0.00889767 0.815551 -0.00231481)
(0.00306528 0.808339 -0.00781907)
(-0.00395033 0.800124 -0.0101519)
(-0.011513 0.787483 -0.0123478)
(-0.0171374 0.776383 -0.0147705)
(-0.0190607 0.764021 -0.0136942)
(-0.0207129 0.750267 -0.0103019)
(-0.0173011 0.738323 -0.00506017)
(-0.0100677 0.723729 0.00174695)
(-0.00237446 0.710457 0.00627018)
(0.00111229 0.693906 0.0139274)
(0.00365428 0.678058 0.0228538)
(0.00797023 0.662832 0.0269413)
(0.0164877 0.653055 0.0249397)
(0.0297671 0.638631 0.0210646)
(0.0402861 0.633843 0.0214825)
(0.0468717 0.632876 0.0316796)
(0.0564039 0.620535 0.0396851)
(0.0616354 0.609685 0.0518239)
(0.0719811 0.57611 0.0439008)
(0.0702173 0.523985 0.0343669)
(0.0120238 0.0209139 -0.00541009)
(0.0235354 0.0261239 0.00541053)
(0.011853 0.0219396 0.00339687)
(0.0145434 0.0248617 0.00564971)
(0.0116381 0.0129714 0.00433525)
(0.013697 0.0109878 0.00565317)
(0.0115511 0.00128835 0.00506663)
(0.00649301 0.000127883 0.000429419)
(-0.000429727 -0.00227106 -0.00287768)
(-0.00527691 -0.000264404 -0.00300092)
(-0.00590341 -0.00153316 -0.00178604)
(-0.00735398 -0.000591363 -0.000600437)
(-0.00830903 -0.00182507 0.000805169)
(-0.00816668 -0.00114808 0.00219813)
(-0.00795711 -0.00118552 0.00354194)
(-0.00811402 -9.56192e-07 0.00440166)
(-0.00859568 0.000338593 0.00500543)
(-0.0089188 0.0010794 0.00529778)
(-0.00929194 0.00130229 0.00541212)
(-0.00951121 0.00167823 0.00544849)
(-0.00964786 0.00184224 0.00540382)
(-0.00962345 0.00203648 0.00535049)
(-0.00957569 0.00213233 0.00528564)
(-0.00950081 0.00219514 0.00523787)
(-0.00941625 0.00221893 0.0052035)
(-0.0093199 0.00222825 0.00518495)
(-0.00921514 0.00222971 0.00517574)
(-0.00910224 0.00223407 0.00517402)
(-0.00898877 0.00225127 0.00517722)
(-0.00888012 0.00229642 0.00518332)
(-0.00879072 0.00236759 0.00518598)
(-0.00872893 0.00249002 0.00518001)
(-0.00871381 0.00267375 0.00516235)
(-0.00868798 0.00291168 0.00512717)
(-0.00855881 0.00317727 0.00507094)
(-0.00828986 0.0034007 0.00499116)
(-0.00787096 0.00352178 0.00490593)
(-0.00730968 0.00352146 0.00485049)
(-0.00664595 0.0034317 0.00486449)
(-0.00599878 0.0032507 0.00497916)
(-0.00532123 0.0029624 0.00529829)
(-0.00442784 0.00254977 0.00582389)
(-0.00335018 0.00195397 0.00641708)
(-0.00260844 0.00127784 0.00662834)
(-0.00452641 0.00258474 0.00449276)
(-0.00916694 0.00620228 -0.00276312)
(-0.00829007 0.0136543 -0.00823133)
(0.00260741 0.021013 -0.00532199)
(0.0135133 0.0221789 -0.00119898)
(0.00749862 0.0223252 0.0116726)
(-0.0293032 0.00688906 0.0318949)
(-0.0475571 0.0434399 0.019187)
(-0.0464625 0.106498 0.0273122)
(-0.0185222 0.125872 0.0739622)
(0.00993563 0.14438 0.0700148)
(0.0708425 0.134519 0.0669668)
(0.0886001 0.205821 0.0689743)
(0.175301 0.143751 0.0976796)
(0.311284 0.571804 0.114211)
(-0.0692247 -0.168582 -0.00751198)
(-0.171549 0.622887 -0.0232161)
(-0.0638576 0.666106 0.00940356)
(-0.0548207 0.630291 0.00187882)
(-0.0059594 0.63687 0.00444009)
(0.000637017 0.633775 -0.0151415)
(0.022545 0.648385 -0.0171606)
(0.0179632 0.665254 -0.0262383)
(0.0268198 0.683153 -0.0234812)
(0.0219862 0.720718 -0.0148407)
(0.0290624 0.742509 -0.00948288)
(0.0232698 0.756265 -0.0118381)
(0.0173045 0.763467 -0.00117918)
(0.0113523 0.765605 0.00483171)
(0.0118565 0.761653 0.0103942)
(0.00994776 0.75448 0.0120221)
(0.00737927 0.749047 0.0125764)
(0.00920358 0.735838 0.0120685)
(0.0094438 0.719626 0.0125514)
(0.00787346 0.704186 0.0134795)
(0.00524646 0.687097 0.00984921)
(0.00399557 0.668072 0.00783646)
(-0.00164429 0.655673 0.00744452)
(-0.00177266 0.639547 0.0146978)
(0.000211839 0.623519 0.0237131)
(0.00174199 0.604413 0.0316603)
(-0.000268717 0.590127 0.0345744)