/*--------------------------------*- C++ -*----------------------------------*\
| =========                 |                                                 |
| \\      /  F ield         | OpenFOAM: The Open Source CFD Toolbox           |
|  \\    /   O peration     | Version:  2.3.0                                 |
|   \\  /    A nd           | Web:      www.OpenFOAM.org                      |
|    \\/     M anipulation  |                                                 |
\*---------------------------------------------------------------------------*/
FoamFile
{
    version     2.0;
    format      ascii;
    class       volVectorField;
    location    "21";
    object      U.air;
}
// * * * * * * * * * * * * * * * * * * * * * * * * * * * * * * * * * * * * * //

dimensions      [0 1 -1 0 0 0 0];

internalField   nonuniform List<vector> 
6144
(
(0.00932248 0.0197492 -0.00251693)
(0.00945743 0.00531244 -0.00308237)
(0.00652961 0.00320456 -0.00367074)
(0.0062391 0.000336139 -0.00350459)
(0.00395856 -0.00111265 -0.00255459)
(0.00340897 -0.000904741 -0.00194225)
(0.00225023 -0.00159468 -0.000838432)
(0.00191316 -0.000171834 -0.000387032)
(0.00154098 0.000961914 -7.88632e-05)
(0.00124325 0.00299286 0.000769497)
(0.00124504 0.00391359 0.00108739)
(0.00148167 0.00418152 0.00158618)
(0.00169983 0.00351433 0.00163027)
(0.00185996 0.0026682 0.00169691)
(0.0019151 0.00173506 0.00126966)
(0.00201006 0.00114287 0.00102453)
(0.00205593 0.000618496 0.000689222)
(0.0021166 0.000353085 0.000490645)
(0.00215107 0.000115196 0.00031624)
(0.0021711 2.01407e-06 0.000230884)
(0.00217796 -8.27177e-05 0.000177668)
(0.00217553 -0.000116904 0.000158028)
(0.00216734 -0.000136359 0.000158617)
(0.00215555 -0.000142648 0.000174913)
(0.00214013 -0.000143064 0.000201004)
(0.00212213 -0.000140516 0.000232459)
(0.00210317 -0.000133143 0.000265554)
(0.00208494 -0.0001269 0.000300335)
(0.00206665 -0.000111053 0.000339133)
(0.00204467 -0.000113355 0.000377353)
(0.00202905 -6.50944e-05 0.000425061)
(0.00200003 -0.000111392 0.000453521)
(0.00199503 3.1837e-05 0.000520872)
(0.00194865 -0.000135706 0.000520357)
(0.00196995 0.000225577 0.000624868)
(0.00189709 -0.000218087 0.000587549)
(0.00193543 0.000544807 0.000744252)
(0.00184319 -0.000437317 0.000670971)
(0.00188366 0.00102412 0.000921699)
(0.00177364 -0.00086746 0.000819194)
(0.00181891 0.00158962 0.0012042)
(0.00171497 -0.00166516 0.00107602)
(0.0017528 0.00181503 0.00144871)
(0.00190123 -0.0030944 0.00125409)
(0.00163236 0.0019155 0.00124518)
(0.00212155 -0.00489702 0.000565314)
(0.00161806 0.00339126 -0.000205491)
(0.00205278 -0.00390245 -0.000485063)
(0.001712 0.00710161 -0.00112361)
(0.0027456 -4.95035e-05 -0.000802549)
(0.00223804 0.0140091 -0.00121442)
(0.00348864 -0.00260833 -0.000333845)
(0.00110611 0.0209021 -0.000624082)
(0.00409032 -0.0126846 -0.00257968)
(0.0138312 0.0484971 -0.00556468)
(0.00331532 -0.0466988 -0.0118124)
(0.00185134 0.0673534 -0.0067227)
(0.00568929 -0.0381489 -0.0304995)
(-0.0351244 0.1175 -0.0686274)
(0.0404824 0.0576178 -0.124108)
(0.100226 0.318076 0.00327481)
(0.0444637 0.385315 -0.00861153)
(-0.0162513 0.13269 -0.00184171)
(0.0388017 -0.169192 -0.001418)
(0.0324233 -0.186415 0.00152463)
(0.0236322 -0.190277 0.00329488)
(0.0158413 -0.193409 0.00433209)
(0.0100086 -0.192824 0.00487305)
(0.00511559 -0.188479 0.00492054)
(0.00093208 -0.181523 0.00456065)
(-0.00239792 -0.172749 0.00390642)
(-0.00481132 -0.162393 0.00323367)
(-0.00657567 -0.150976 0.00261489)
(-0.00756981 -0.138387 0.00170072)
(-0.00862515 -0.125367 0.000540466)
(-0.00845312 -0.111531 -0.000686405)
(-0.00692647 -0.0983422 -0.00171168)
(-0.0042359 -0.0859397 -0.00284434)
(-0.00204747 -0.0764184 -0.00375349)
(0.000194242 -0.0703603 -0.0050371)
(0.0041367 -0.0658977 -0.00611441)
(0.00674458 -0.0617126 -0.00762388)
(0.00781439 -0.0562535 -0.0080702)
(0.00879287 -0.0531259 -0.00666203)
(0.00963271 -0.0532914 -0.00536185)
(0.0113321 -0.0553132 -0.00382634)
(0.0110066 -0.0604537 -0.00294339)
(0.0114535 -0.064954 -0.00205691)
(0.00929652 -0.0696157 -0.00251156)
(0.00717569 -0.0693151 -0.00358687)
(0.0042952 -0.0665266 -0.00317267)
(0.00110425 -0.0590458 -0.00485057)
(-0.00460463 -0.0464691 -0.00235399)
(-0.0159088 -0.0239073 -0.00747268)
(-0.0148743 0.0103086 0.00735569)
(-0.0122186 0.005449 0.0229576)
(0.0169525 0.0206414 0.00181097)
(0.0176259 0.011828 0.00164574)
(0.013261 0.00919104 4.68444e-05)
(0.0123847 0.00672644 0.00186817)
(0.00833676 0.0033309 0.00240493)
(0.00716515 0.00128755 0.00335517)
(0.00358024 -0.000693837 0.00387304)
(0.0021991 0.00110537 0.00336322)
(0.00139602 0.00265792 0.00295827)
(0.00135815 0.00469648 0.00335441)
(0.00182557 0.00532262 0.00351788)
(0.00263206 0.00540266 0.0041286)
(0.00303028 0.0045335 0.00422821)
(0.00338572 0.0037912 0.00436013)
(0.00340547 0.00276502 0.00421334)
(0.00355572 0.00206845 0.00414812)
(0.00357676 0.00137629 0.00401605)
(0.00367958 0.00100238 0.00391845)
(0.00372415 0.000651921 0.00380363)
(0.00375249 0.0004658 0.0037602)
(0.00375171 0.000319513 0.00373927)
(0.00373719 0.000241639 0.00375325)
(0.00371021 0.000190638 0.00378458)
(0.00367556 0.000163118 0.00383172)
(0.003634 0.000148721 0.00388724)
(0.00358761 0.000140721 0.00394807)
(0.00353957 0.000139124 0.00400949)
(0.0034918 0.000139169 0.00406901)
(0.00344432 0.00015209 0.0041283)
(0.00339106 0.000152442 0.0041848)
(0.00335324 0.000195643 0.00424991)
(0.00328068 0.00015378 0.00429953)
(0.00326518 0.000296784 0.00437696)
(0.0031502 0.000136775 0.00439938)
(0.00319194 0.000512911 0.00448941)
(0.00301013 2.65815e-05 0.00448956)
(0.00311903 0.000870005 0.00459299)
(0.00285887 -0.000253652 0.00456631)
(0.00303832 0.00140155 0.00472033)
(0.00269585 -0.000817404 0.00465792)
(0.00302326 0.00205838 0.00488467)
(0.00260144 -0.00185722 0.00474643)
(0.00314518 0.00261861 0.00498181)
(0.00291493 -0.00353362 0.00470916)
(0.0032043 0.0034053 0.0047958)
(0.00330381 -0.00530927 0.00400006)
(0.0026974 0.00544617 0.00381471)
(0.00332434 -0.00457807 0.00303891)
(0.00064522 0.00905296 0.00197543)
(0.00388654 4.49952e-05 0.00319449)
(0.00206944 0.0165596 0.0014045)
(0.00628248 0.00149237 0.00329001)
(0.00596755 0.0280793 0.00542689)
(-0.00166751 -0.02274 0.00202661)
(0.0211422 0.0458058 0.00235938)
(0.0327104 -0.0445877 -0.00256675)
(-0.0377603 0.0338691 -0.00316481)
(-0.0207142 -0.00338775 -0.0148781)
(-0.00437622 0.191938 -0.000423471)
(0.197368 0.0223015 -0.0763745)
(0.10736 0.325916 0.014354)
(0.00338687 0.417242 0.00302483)
(-0.0322771 -0.0981077 0.00290723)
(-0.00948101 -0.0905848 0.0108357)
(-0.0115518 -0.109061 0.0119485)
(-0.023525 -0.133497 0.0123069)
(-0.0257597 -0.14193 0.0124805)
(-0.0257229 -0.14648 0.012036)
(-0.0251126 -0.147591 0.0100711)
(-0.0247243 -0.146235 0.00849814)
(-0.0243834 -0.142771 0.00689014)
(-0.0237557 -0.136845 0.00543711)
(-0.0230067 -0.129258 0.00397275)
(-0.021592 -0.120045 0.00212297)
(-0.0199621 -0.109667 0.000273326)
(-0.0175522 -0.0963148 -0.00124089)
(-0.0145212 -0.0834979 -0.00280002)
(-0.00852077 -0.072464 -0.0042754)
(0.000588163 -0.0627394 -0.00472615)
(0.00429284 -0.0512884 -0.00603508)
(0.00435885 -0.0358484 -0.00678799)
(0.0055165 -0.0215711 -0.00402932)
(0.0105744 -0.0120292 0.000346019)
(0.0161119 -0.0107706 0.00353185)
(0.0197755 -0.0157014 0.00583423)
(0.0209693 -0.0241558 0.00807505)
(0.0191132 -0.034756 0.00834972)
(0.0154423 -0.0428686 0.00736378)
(0.0104524 -0.0483924 0.00413227)
(0.00583607 -0.0481248 0.00105322)
(0.00051561 -0.0445697 -0.000488971)
(-0.0078427 -0.0360719 -0.00183426)
(-0.0174853 -0.0274452 0.000626781)
(-0.0243153 -0.0130144 -0.00584817)
(-0.0267227 0.011606 0.00756787)
(-0.0226242 0.00485233 0.025885)
(0.0199381 0.0201497 0.00272722)
(0.0213892 0.0150408 0.00320828)
(0.0164331 0.0115427 0.00162937)
(0.0152887 0.0106456 0.00290727)
(0.0103728 0.00625647 0.00362461)
(0.00858106 0.00392932 0.00432377)
(0.00256538 0.00104191 0.00499341)
(0.000354402 0.0018067 0.0047596)
(-0.000772211 0.00258645 0.00409278)
(-0.000152378 0.00429486 0.00411418)
(0.000703246 0.00463172 0.00407621)
(0.00193139 0.00481343 0.00451701)
(0.00233699 0.00429217 0.00465599)
(0.00276796 0.00406591 0.00483287)
(0.00281859 0.00332411 0.00475344)
(0.00302585 0.00277804 0.00474753)
(0.00296251 0.002089 0.00468221)
(0.00301049 0.00167377 0.00469808)
(0.00294006 0.00125553 0.00469684)
(0.00290076 0.00102336 0.00473515)
(0.00282458 0.000827593 0.00477043)
(0.00275552 0.000716588 0.00482064)
(0.00267876 0.000636595 0.00486983)
(0.0026074 0.000589656 0.0049214)
(0.00253709 0.000561564 0.00497366)
(0.00246737 0.000545575 0.00502578)
(0.00239859 0.000537344 0.00507715)
(0.00233076 0.000532567 0.00512612)
(0.00226438 0.000538609 0.00517245)
(0.00219886 0.000542671 0.00521795)
(0.00214551 0.000570763 0.005264)
(0.00205695 0.000550419 0.00530133)
(0.00202702 0.000656706 0.00535254)
(0.00189139 0.000523746 0.00538017)
(0.00192575 0.000825775 0.00545112)
(0.00170468 0.000387374 0.00546265)
(0.00183397 0.00111025 0.00555079)
(0.00148687 6.07689e-05 0.00554028)
(0.00176197 0.00153863 0.00565654)
(0.00125959 -0.000539735 0.00560714)
(0.00182228 0.00212399 0.00575964)
(0.00109698 -0.00139393 0.00562802)
(0.00209854 0.00298248 0.00577902)
(0.00130673 -0.002243 0.00552682)
(0.00230165 0.00468071 0.00567071)
(0.0017253 -0.0030379 0.00532772)
(0.00132817 0.00737593 0.00559167)
(0.00227055 -0.00426451 0.00567008)
(-0.0022034 0.0105145 0.00508753)
(0.00341185 -0.00583793 0.00613224)
(-0.00285638 0.0148032 0.00293804)
(0.00496058 -0.00437636 0.00494369)
(0.00743581 0.0307135 0.00578954)
(0.0013526 -0.0231185 0.0107651)
(0.0254697 0.0093261 -0.000838438)
(0.0509625 -0.053964 0.000709111)
(-0.0681684 0.0499101 0.0138459)
(-0.0686635 -0.0912693 -0.0171325)
(-0.0748765 0.201677 -0.0197946)
(0.208518 -0.0379817 -0.0424718)
(0.168287 0.349586 0.0150554)
(0.0717789 0.454482 0.00910594)
(0.0696939 -0.11768 0.0159232)
(0.0420103 -0.0844234 0.01719)
(0.0210971 -0.109288 0.0146085)
(0.00250157 -0.124901 0.0124256)
(-0.00961257 -0.125276 0.011018)
(-0.0175498 -0.124167 0.00867412)
(-0.0228983 -0.122796 0.00614393)
(-0.0261813 -0.119063 0.00419085)
(-0.0273442 -0.114084 0.00222132)
(-0.0281101 -0.107481 0.00087274)
(-0.0285116 -0.0975608 -0.000773883)
(-0.0299237 -0.0868793 -0.00301382)
(-0.03053 -0.0784296 -0.00414972)
(-0.0238459 -0.0666557 -0.00667822)
(-0.0157334 -0.0517892 -0.00994095)
(-0.0127566 -0.0290515 -0.0130313)
(-0.0111432 0.00691093 -0.0120274)
(-0.00405832 0.0248348 -0.00506023)
(0.00398472 0.0316428 0.00236005)
(0.0110467 0.0293215 0.00752391)
(0.0167493 0.0227466 0.0117055)
(0.0204773 0.0139549 0.0155505)
(0.0218086 0.00327582 0.0179491)
(0.0211108 -0.00867783 0.0191135)
(0.017758 -0.0200835 0.0174361)
(0.0124294 -0.0289065 0.0119969)
(0.00658501 -0.0324441 0.00463177)
(0.000739671 -0.0288447 -0.000260296)
(-0.00576222 -0.0203849 -0.00193206)
(-0.015979 -0.00939789 -0.000481248)
(-0.0293757 -0.00286461 0.00199111)
(-0.0415562 0.00647175 -0.00277238)
(-0.0417869 0.0171388 0.0111718)
(-0.0407975 0.0063341 0.0255382)
(0.0215656 0.0217234 0.00238699)
(0.0238542 0.0183757 0.0026326)
(0.0191446 0.0133766 0.000806281)
(0.0193025 0.0131397 0.00103884)
(0.0139356 0.00781635 0.00177078)
(0.0116768 0.00595382 0.00235788)
(0.00276772 0.00198236 0.00393655)
(-0.000626912 0.00161518 0.00410235)
(-0.00253248 0.00103625 0.00382843)
(-0.00164168 0.00278722 0.00389576)
(-0.000540768 0.0029293 0.00390221)
(0.000593545 0.00362161 0.00451774)
(0.000979066 0.00365762 0.00465766)
(0.00143291 0.00388876 0.00483851)
(0.0015942 0.00342586 0.00471599)
(0.00184137 0.00307545 0.00471133)
(0.00176386 0.00243841 0.00461575)
(0.00182362 0.00201695 0.00462089)
(0.00171321 0.00153098 0.00460541)
(0.00165768 0.00124332 0.00464689)
(0.00155653 0.000985234 0.00468882)
(0.00147631 0.000838022 0.0047552)
(0.00138941 0.000736137 0.00481729)
(0.00130319 0.000682943 0.00487415)
(0.00121979 0.000655207 0.00492749)
(0.00114142 0.00064756 0.00498043)
(0.00106558 0.000648918 0.00503218)
(0.0009896 0.000651369 0.00508025)
(0.000912697 0.000657056 0.0051243)
(0.000838226 0.000661675 0.00516533)
(0.000770908 0.000684152 0.00520414)
(0.000682876 0.000673467 0.00523543)
(0.000638942 0.000757471 0.00528276)
(0.000511326 0.000640578 0.00530797)
(0.000536967 0.000896257 0.00537821)
(0.000315804 0.00049118 0.00538586)
(0.000470418 0.00114889 0.00547253)
(0.000102849 0.000155633 0.00546427)
(0.000448109 0.00155424 0.00556536)
(-0.000110493 -0.000391594 0.00552767)
(0.00051796 0.00219554 0.00561873)
(-0.00025544 -0.000954405 0.00552495)
(0.00058246 0.00331019 0.00552211)
(-0.000106247 -0.00104968 0.00539287)
(0.000611898 0.00540568 0.00532895)
(0.000442916 -0.000985508 0.00537866)
(0.000325787 0.00857531 0.00548598)
(0.00128813 -0.00283283 0.00561802)
(-0.00135089 0.0129544 0.0058702)
(0.00229989 -0.00944203 0.00519933)
(-0.00375686 0.019439 0.0030811)
(-0.000115801 -0.015264 0.0057177)
(0.00621214 0.0258044 0.00466863)
(0.0180909 -0.0281813 0.00979507)
(0.0287063 0.00514283 -0.00575911)
(0.0232232 -0.00462125 0.00272669)
(-0.0551428 0.117988 0.0204099)
(-0.0981734 -0.137791 -0.0155772)
(-0.059763 0.289469 -0.0762212)
(0.219052 -0.0896185 -0.0205952)
(0.191313 0.38318 0.00248633)
(0.103631 0.449599 -0.00861907)
(0.119624 -0.0728402 0.0178027)
(0.0177571 -0.000586749 0.0236362)
(-0.0199989 -0.0564465 0.02266)
(-0.0223308 -0.0625249 0.0217422)
(-0.0259994 -0.0749734 0.015345)
(-0.0298986 -0.0819777 0.00929797)
(-0.0321582 -0.0828068 0.00420421)
(-0.0320963 -0.0785955 -5.90558e-05)
(-0.033378 -0.0728865 -0.00368634)
(-0.0357426 -0.0673676 -0.00541639)
(-0.0312835 -0.0617114 -0.00639984)
(-0.0239897 -0.0475063 -0.0105418)
(-0.0251822 -0.0319854 -0.0170683)
(-0.0299467 -0.00200378 -0.0185787)
(-0.0282934 0.0385854 -0.0163512)
(-0.0203145 0.0597511 -0.00553846)
(-0.00837649 0.0658516 0.00318187)
(0.00202282 0.0657567 0.00995382)
(0.00775536 0.0610484 0.014359)
(0.0112683 0.0541877 0.0173257)
(0.0136746 0.0457463 0.0193287)
(0.0148669 0.0358492 0.0205721)
(0.0151229 0.0245719 0.02054)
(0.0138974 0.0126807 0.0180725)
(0.0103417 0.00136535 0.0119593)
(0.00401026 -0.00618781 0.00243523)
(-0.00254462 -0.0063104 -0.00463634)
(-0.00869919 -0.000899486 -0.00581384)
(-0.0152059 0.00668733 -0.00325168)
(-0.0240725 0.0145776 0.000410002)
(-0.0376615 0.0177599 0.00157308)
(-0.0463893 0.020186 0.000109439)
(-0.0481227 0.021335 0.0139404)
(-0.048627 0.00746898 0.0254695)
(0.0231759 0.0245838 0.00190393)
(0.0263849 0.0230594 0.00244401)
(0.0222615 0.0165273 0.000566675)
(0.0235982 0.0160381 0.000296654)
(0.0186856 0.00950356 -0.000833792)
(0.0158532 0.0088188 -0.00101193)
(0.0053325 0.00399295 0.000915598)
(0.00141179 0.00314372 0.00221135)
(-0.00309835 0.000334635 0.00301223)
(-0.00302258 0.00140003 0.00345745)
(-0.00236132 0.000903025 0.00353313)
(-0.00161129 0.00219868 0.00439864)
(-0.00129701 0.00279978 0.00439355)
(-0.000784338 0.00341165 0.00454354)
(-0.000437825 0.00322695 0.00430429)
(-0.000166393 0.00301704 0.00432125)
(-0.000269305 0.00249811 0.00421546)
(-0.000274638 0.00214308 0.00422804)
(-0.000474807 0.00168366 0.00417561)
(-0.000604741 0.00139361 0.00418493)
(-0.000788279 0.00110846 0.00418175)
(-0.000938108 0.000938744 0.00420498)
(-0.0010769 0.000809055 0.00423001)
(-0.00119398 0.000734513 0.00426468)
(-0.00130066 0.000699921 0.00429792)
(-0.0013915 0.000695163 0.00433135)
(-0.00146731 0.000700717 0.0043633)
(-0.00153433 0.000705846 0.00439204)
(-0.00159935 0.00070953 0.00441741)
(-0.00166207 0.000710205 0.00443858)
(-0.0017217 0.000723304 0.00445581)
(-0.00178849 0.000711647 0.00446769)
(-0.00182334 0.000775341 0.00449209)
(-0.00192469 0.000668825 0.0044882)
(-0.00189206 0.000890042 0.00454045)
(-0.00209219 0.000500561 0.00451199)
(-0.00192258 0.00112301 0.00460555)
(-0.00228058 0.000168901 0.00454804)
(-0.00191439 0.00155196 0.00466954)
(-0.00247202 -0.000280219 0.00457252)
(-0.00189308 0.00229846 0.00466177)
(-0.00261575 -0.000588044 0.00452652)
(-0.0020254 0.00357369 0.00443069)
(-0.00250427 -0.000352694 0.00436906)
(-0.00222626 0.00576755 0.00405805)
(-0.00196701 2.65969e-05 0.00436355)
(-0.00205098 0.00904934 0.00409644)
(-0.00113638 -0.00205529 0.00419901)
(-0.000732543 0.0134563 0.00503098)
(1.84992e-05 -0.0102711 0.00339032)
(-0.00350911 0.0177982 0.000976861)
(0.00220526 -0.0155439 0.00644691)
(0.00800373 0.0160697 0.00364851)
(0.0242386 -0.0300048 0.00849205)
(-0.000145773 0.0155488 -0.00983349)
(0.00514136 -0.0116256 0.00988994)
(0.0258046 0.112424 0.0533836)
(-0.115649 -0.149803 0.0321874)
(-0.0394489 0.232964 -0.136644)
(0.169888 -0.103322 0.00885614)
(0.194998 0.432425 0.0131468)
(0.0766553 0.568189 0.00421711)
(0.0602051 0.476172 0.0173221)
(-0.00661963 0.509448 0.0196698)
(-0.012549 0.440034 0.0174585)
(-0.0273543 0.436587 0.00990979)
(-0.0313198 0.427924 0.0038548)
(-0.0325265 0.424161 -0.00158453)
(-0.0286291 0.427633 -0.00848808)
(-0.021848 0.43931 -0.0128869)
(-0.020591 0.454616 -0.0177889)
(-0.0288838 0.473227 -0.0190622)
(-0.036817 0.502937 -0.0176985)
(-0.0397187 0.547102 -0.0144177)
(-0.0376208 0.563022 -0.00777462)
(-0.032 0.584002 -0.00149911)
(-0.0222762 0.590683 0.00640513)
(-0.0142282 0.594568 0.0112027)
(-0.00812172 0.590461 0.0141055)
(-0.00367278 0.565748 0.0156456)
(-0.000300696 0.437751 0.0156986)
(0.00224872 0.133195 0.0155014)
(0.00407443 0.267802 0.014101)
(0.00544858 0.336477 0.0129543)
(0.00869815 0.0774936 0.0119445)
(0.0100622 0.0448937 0.00962044)
(0.00923689 0.0324745 0.00475278)
(0.0062775 0.0241555 -0.00055505)
(0.002307 0.0234975 -0.0046339)
(-0.00394105 0.0278366 -0.00434278)
(-0.0136983 0.0314587 -0.00164017)
(-0.0259864 0.0335127 0.000351229)
(-0.0396712 0.0321622 -0.000269521)
(-0.0473472 0.0306709 0.00152912)
(-0.0486084 0.0246359 0.0151578)
(-0.0522627 0.0102581 0.0216627)
(0.0239194 0.0267468 0.00436641)
(0.0288612 0.0264551 0.00341767)
(0.0243407 0.0187256 0.00144538)
(0.0274635 0.018785 0.0018393)
(0.0226403 0.0103077 -0.0017185)
(0.0214344 0.0100786 -0.0023855)
(0.0105098 0.00279471 -0.00302062)
(0.00533538 0.00375825 -0.000646046)
(-0.00120106 0.000479834 0.00158013)
(-0.00252774 0.00123629 0.00290621)
(-0.00281179 -0.000835644 0.00312528)
(-0.00302711 0.000624435 0.00416828)
(-0.00244652 0.00155964 0.00410719)
(-0.00175756 0.00273184 0.0044273)
(-0.00114008 0.00276336 0.00426578)
(-0.000880886 0.00269093 0.00438916)
(-0.000999698 0.00223997 0.0042941)
(-0.00107375 0.00201973 0.00433001)
(-0.00131821 0.0016616 0.00421944)
(-0.00146903 0.00145818 0.00416868)
(-0.00166713 0.00122733 0.00407949)
(-0.00181526 0.00109467 0.00402189)
(-0.00194873 0.000989707 0.00396406)
(-0.0020556 0.000940686 0.00391648)
(-0.00214567 0.00092347 0.00387411)
(-0.00221131 0.000931703 0.00384201)
(-0.00225555 0.000950215 0.00381869)
(-0.00229116 0.00097065 0.00380108)
(-0.00232751 0.000986179 0.00378742)
(-0.00236372 0.000995401 0.00377424)
(-0.00240028 0.00100716 0.00375962)
(-0.00244042 0.000996597 0.00374248)
(-0.00245913 0.00104437 0.00373248)
(-0.00252166 0.00094585 0.00370147)
(-0.00245807 0.00114629 0.00373983)
(-0.00262836 0.000783518 0.00366957)
(-0.0024221 0.00139219 0.00378637)
(-0.00277962 0.000508971 0.00364186)
(-0.00237563 0.00187563 0.00383938)
(-0.00295875 0.000219512 0.00360601)
(-0.00241226 0.00270992 0.00379773)
(-0.00308919 0.000134604 0.00351292)
(-0.00281348 0.00399192 0.00343254)
(-0.0030558 0.000416388 0.00330503)
(-0.00341211 0.0059273 0.00281879)
(-0.00270603 0.000363302 0.00327004)
(-0.00277518 0.00871376 0.00295307)
(-0.00187044 -0.00223503 0.00339302)
(0.000649122 0.0121369 0.00449373)
(-0.000285449 -0.0075343 0.00272242)
(-0.000978582 0.0162079 0.00109934)
(0.00411657 -0.0161359 0.00427365)
(0.0053709 0.0223136 0.00168361)
(0.0156925 -0.0211662 0.00142124)
(0.00923997 0.0555159 0.00927994)
(-0.0214285 -0.0664475 0.0349368)
(0.0375597 0.0260111 0.0792982)
(-0.113959 -0.12785 0.0547857)
(0.0228923 0.12079 -0.164416)
(0.114008 -0.0535232 0.018958)
(0.206567 0.450297 0.00911834)
(0.0902574 0.54476 -0.00242405)
(0.0881793 0.483747 0.00734173)
(0.0268852 0.531102 0.00302327)
(0.00611997 0.488609 -0.000753953)
(-0.0137615 0.492464 -0.00604502)
(-0.0142954 0.48564 -0.0105116)
(-0.017464 0.484439 -0.015297)
(-0.0228243 0.507862 -0.0192789)
(-0.0328599 0.531969 -0.0179177)
(-0.0384056 0.538872 -0.0143031)
(-0.0445493 0.618766 -0.00850485)
(-0.0461316 0.643326 -0.00500837)
(-0.0438607 0.641279 -0.000890424)
(-0.0378046 0.661453 0.00449021)
(-0.0336699 0.665842 0.00678457)
(-0.0281363 0.652148 0.00938439)
(-0.0208347 0.650868 0.0108301)
(-0.0155419 0.648197 0.010426)
(-0.00938879 0.644702 0.00891918)
(-0.0037311 0.626781 0.00686972)
(0.00227168 0.615877 0.0045424)
(0.00565842 0.591944 0.00313023)
(0.00951342 0.582657 0.00105624)
(0.0104162 0.566322 -2.76046e-05)
(0.00911195 0.584413 -0.0017861)
(0.00301487 0.507669 -0.00509729)
(-0.00402542 0.363465 -0.00815229)
(-0.00566838 0.0740211 -0.0076851)
(-0.0124842 0.0474789 -0.00646393)
(-0.0183885 0.0487285 -0.0050676)
(-0.0278612 0.0473511 -0.00446784)
(-0.0372588 0.0433586 -0.00242045)
(-0.0426773 0.0362618 0.00326908)
(-0.0453682 0.0243537 0.0147067)
(-0.049745 0.011098 0.0190093)
(0.0221939 0.0275864 0.00593297)
(0.0288914 0.0292225 0.00710582)
(0.0236717 0.0191229 0.00406305)
(0.0271338 0.0204749 0.00658712)
(0.0241131 0.00985092 0.00137845)
(0.0248375 0.0107176 0.00118641)
(0.0154114 0.000349064 -0.00339085)
(0.00812997 0.00189217 -0.0027034)
(0.000175485 -0.000616229 -0.000584287)
(-0.0017796 0.00150155 0.00184745)
(-0.00299415 -0.00168375 0.0025258)
(-0.00493544 -0.000118423 0.00358826)
(-0.00526261 0.000511095 0.00368434)
(-0.00456208 0.00194043 0.00452525)
(-0.0036451 0.00199109 0.0047936)
(-0.00336388 0.00207368 0.00518816)
(-0.00363409 0.00180407 0.0051063)
(-0.00388996 0.0018165 0.00512345)
(-0.00425683 0.00164838 0.00495907)
(-0.00449252 0.00160585 0.00486205)
(-0.00474802 0.00148558 0.00472138)
(-0.00491582 0.00143602 0.00461845)
(-0.00504843 0.00138823 0.00451276)
(-0.00513576 0.00137953 0.0044288)
(-0.00519484 0.00138794 0.00436421)
(-0.00522789 0.00140855 0.00432031)
(-0.00523778 0.00144051 0.00428819)
(-0.00522958 0.00146938 0.00426783)
(-0.00522243 0.00148953 0.00425352)
(-0.00521598 0.00150668 0.00424423)
(-0.00521168 0.00152374 0.00423829)
(-0.00520367 0.00152831 0.0042353)
(-0.00519037 0.0015665 0.00423289)
(-0.00519067 0.00149719 0.00421639)
(-0.00512854 0.00166013 0.00423798)
(-0.00520789 0.00135341 0.0041859)
(-0.00505193 0.00188949 0.00428422)
(-0.00524221 0.00113421 0.00416433)
(-0.00500417 0.00236266 0.00436411)
(-0.00527128 0.000967759 0.00417658)
(-0.00511224 0.00317808 0.00438081)
(-0.00524282 0.000993279 0.00417173)
(-0.00560367 0.00437717 0.00405943)
(-0.00512072 0.000980543 0.00401711)
(-0.00619819 0.00596284 0.00338156)
(-0.00484159 0.000190949 0.00383047)
(-0.00561649 0.0081186 0.00330035)
(-0.00441328 -0.00190459 0.00412557)
(-0.00285609 0.0112072 0.0046069)
(-0.00307149 -0.00417152 0.00407996)
(-0.00235731 0.0162934 0.00340164)
(-8.80187e-05 -0.0125237 0.00326226)
(0.0021081 0.0295637 0.00845636)
(0.000481247 -0.0336963 0.00153525)
(0.0270654 0.0450621 0.012871)
(0.0140414 -0.0562975 0.0425488)
(0.0218536 -0.0126575 0.0933929)
(-0.0896174 -0.107242 0.0771745)
(0.0275728 -0.0334576 -0.158174)
(0.0703008 0.0591212 0.0289231)
(0.13275 0.573855 0.00473826)
(0.0714573 0.644553 -0.00478125)
(0.0720193 0.581896 0.0022654)
(0.0476332 0.654825 0.00268946)
(0.0211166 0.632615 -0.00266261)
(0.00450047 0.614739 -0.00553266)
(-0.00978114 0.616085 -0.00790686)
(-0.0240376 0.659775 -0.00783362)
(-0.0315628 0.666066 -0.00751828)
(-0.0392168 0.606084 -0.00579137)
(-0.0436932 0.540188 -0.00385161)
(-0.0449305 0.586804 -0.000340616)
(-0.0451207 0.612051 0.0021433)
(-0.0439304 0.630297 0.00247654)
(-0.0403914 0.65319 0.0025604)
(-0.0352039 0.726639 0.00485182)
(-0.0292577 0.684067 0.00792522)
(-0.0244974 0.652673 0.00783317)
(-0.0177368 0.689051 0.007786)
(-0.00902555 0.676342 0.00700806)
(0.00167951 0.677603 0.00570507)
(0.00803395 0.688013 0.00439494)
(0.0175087 0.657823 0.00217286)
(0.0261954 0.652951 -0.000800267)
(0.0293509 0.649613 -0.00415477)
(0.0301694 0.643998 -0.00710256)
(0.0279213 0.560179 -0.0079902)
(0.0202389 0.548041 -0.00905432)
(0.0128288 0.490673 -0.0102948)
(0.00211925 0.565659 -0.012127)
(-0.0066795 0.3451 -0.00963921)
(-0.0122194 0.102349 -0.00610187)
(-0.0286218 0.431168 0.00155568)
(-0.0354046 0.502719 0.00775663)
(-0.0410635 0.481673 0.0145296)
(-0.045734 0.47403 0.0151327)
(0.0219495 0.0267175 0.0065174)
(0.0275707 0.0321465 0.00939851)
(0.0206657 0.0184993 0.00539264)
(0.0244426 0.0229754 0.00963659)
(0.0212761 0.00917414 0.00475943)
(0.0233423 0.0115126 0.00543877)
(0.0175565 -0.000406001 0.000532106)
(0.00998975 0.000351658 -0.00147884)
(0.00106549 -0.00327077 -0.000190674)
(-0.000637755 0.000381711 0.00170261)
(-0.00190961 -0.00205574 0.00259975)
(-0.00488097 -0.000274733 0.00345874)
(-0.00504048 -0.000751039 0.00423544)
(-0.00452111 0.000361886 0.00554607)
(-0.00357932 8.12526e-05 0.00655612)
(-0.00361018 0.000829575 0.00728447)
(-0.00393574 0.000849566 0.00751611)
(-0.00413868 0.00134589 0.00766073)
(-0.0043841 0.00142912 0.00758051)
(-0.00448925 0.00167286 0.00750435)
(-0.00462905 0.00174499 0.00736217)
(-0.00470945 0.00186648 0.00723076)
(-0.00477882 0.00192952 0.00707972)
(-0.00482204 0.00198293 0.00694932)
(-0.00484022 0.00201686 0.00684241)
(-0.00482688 0.00203874 0.00676388)
(-0.00478906 0.00205224 0.00670635)
(-0.00473496 0.00206377 0.00667031)
(-0.00468416 0.00207238 0.0066477)
(-0.00464007 0.00207833 0.00663103)
(-0.00460452 0.00208493 0.00661685)
(-0.00456686 0.00208573 0.00660452)
(-0.0045346 0.00211304 0.00658863)
(-0.00449549 0.00206537 0.00656357)
(-0.00443739 0.00220837 0.00655525)
(-0.00446274 0.00195397 0.00648976)
(-0.0043642 0.00246245 0.00651735)
(-0.00448565 0.00177235 0.00637097)
(-0.00439497 0.00293905 0.00646614)
(-0.00456646 0.00161428 0.00623499)
(-0.00467692 0.00371644 0.00637122)
(-0.00460378 0.00148545 0.0060666)
(-0.00531359 0.00472 0.00612432)
(-0.00448804 0.000821808 0.00580475)
(-0.00610753 0.00584484 0.00573236)
(-0.00432039 -0.00106622 0.00574776)
(-0.00592662 0.00726396 0.00601274)
(-0.00418914 -0.00335476 0.00690021)
(-0.00371095 0.0103438 0.0083227)
(-0.00341752 -0.00457536 0.00873062)
(-0.00327205 0.0168316 0.0092162)
(-0.00257475 -0.0125969 0.00761274)
(0.00764964 0.0282657 0.013348)
(0.00110505 -0.0287093 0.00901781)
(0.016863 0.0381547 0.0192802)
(0.00574128 -0.0397613 0.0569699)
(-0.0190404 -0.0171839 0.102914)
(-0.0292979 -0.0851179 0.0916919)
(0.00572622 -0.105123 -0.148953)
(0.0210788 0.0839612 0.0263444)
(0.0377677 0.60269 0.00811826)
(0.0398457 0.697715 -0.00644475)
(0.0496899 0.713509 0.00955134)
(0.038742 0.73886 0.00555003)
(0.0284807 0.747681 0.00650946)
(0.0118161 0.746675 0.00248122)
(0.000447069 0.757381 0.0024886)
(-0.00827565 0.780691 0.00174164)
(-0.0177526 0.748401 0.0013484)
(-0.0280846 0.753614 0.00122814)
(-0.0329491 0.744223 0.00178823)
(-0.0370303 0.743402 0.00292374)
(-0.0373011 0.738511 0.00482805)
(-0.0349666 0.72712 0.00667064)
(-0.0304237 0.71015 0.00901087)
(-0.0261711 0.702281 0.0111881)
(-0.020027 0.703342 0.0130773)
(-0.0138535 0.68901 0.0139506)
(-0.00427871 0.681751 0.0149155)
(0.00632918 0.662965 0.0151109)
(0.0150306 0.651901 0.0144819)
(0.0219323 0.65091 0.0122095)
(0.0257754 0.64725 0.0107179)
(0.0322739 0.648291 0.00968376)
(0.0356162 0.657545 0.00685744)
(0.036002 0.671995 0.00600123)
(0.0347262 0.612605 0.00665625)
(0.0305376 0.560723 0.00834139)
(0.0237548 0.618854 0.00880814)
(0.0154137 0.614589 0.00800647)
(-0.00188761 0.630013 0.00296739)
(-0.00813228 0.559461 0.00303256)
(-0.0171871 0.521255 0.000809264)
(-0.0234507 0.481268 -0.00431609)
(-0.0323886 0.542544 -0.0187586)
(-0.0416031 0.500338 -0.0415935)
(0.00764278 0.0254637 -0.00765931)
(0.0248412 0.0338844 0.00654504)
(0.0147096 0.0197612 0.00494294)
(0.0191308 0.0259088 0.00942889)
(0.0162424 0.0104679 0.00501196)
(0.0189421 0.012928 0.00645477)
(0.0154373 -0.0008019 0.0033567)
(0.0078303 -0.000890898 -0.00127629)
(-0.000790951 -0.00378535 -0.00292481)
(-0.00285212 -0.000492283 -0.00235786)
(-0.00385032 -0.00240691 -0.00154732)
(-0.00542899 -0.000656006 -0.000781183)
(-0.00696828 -0.00195134 0.000755916)
(-0.0070381 -0.000766927 0.00199957)
(-0.00753498 -0.000927086 0.00324731)
(-0.00777988 0.00026189 0.00391497)
(-0.0083821 0.000419386 0.00439564)
(-0.00862657 0.00112963 0.00465487)
(-0.00897657 0.00130558 0.00477861)
(-0.00916292 0.00168375 0.00484624)
(-0.00937749 0.00183674 0.00483458)
(-0.00946531 0.00199932 0.00482369)
(-0.00945946 0.00210688 0.00479321)
(-0.00940538 0.00219914 0.00477124)
(-0.00932922 0.00226133 0.00475758)
(-0.00923476 0.00230849 0.00475527)
(-0.00912525 0.00234207 0.00475919)
(-0.0090053 0.00236545 0.0047694)
(-0.00888521 0.00238141 0.00478277)
(-0.00876757 0.00239213 0.00479531)
(-0.00865802 0.00239981 0.00480396)
(-0.00854896 0.00240111 0.0048085)
(-0.00845759 0.00241975 0.00480412)
(-0.00833701 0.00239239 0.00479357)
(-0.00823985 0.00251394 0.00478343)
(-0.00812104 0.00231795 0.00475278)
(-0.00807685 0.00277803 0.00473639)
(-0.00789533 0.00216185 0.00467276)
(-0.00805378 0.00325304 0.00466673)
(-0.00767495 0.0019581 0.00456062)
(-0.0082768 0.0040074 0.00459023)
(-0.00736845 0.00159129 0.00439132)
(-0.0086712 0.00499144 0.00447712)
(-0.0070505 0.000408606 0.00412579)
(-0.00905777 0.00576892 0.00433461)
(-0.00690957 -0.00213198 0.00412867)
(-0.00938259 0.00668954 0.00471879)
(-0.00774347 -0.00487272 0.00553626)
(-0.00934927 0.00904785 0.00721443)
(-0.00824444 -0.00593348 0.00768524)
(-0.00853298 0.0142312 0.00765633)
(-0.00943813 -0.0125207 0.0054927)
(-0.0034909 0.0205859 0.00614935)
(-0.00851611 -0.0209329 0.00021331)
(0.0149727 0.0426774 0.0143333)
(0.025721 -0.0424687 0.0376836)
(-0.0388909 -0.00812391 0.0694352)
(0.0174147 -0.12018 0.0699651)
(-0.034206 -0.0659022 -0.168929)
(-0.0419689 0.010113 0.00814575)
(-0.104924 0.519304 -0.0195561)
(-0.0075674 0.651393 -0.00544501)
(-0.00492965 0.653121 0.0014026)
(0.0153127 0.63225 0.00371868)
(0.0174265 0.66924 0.00377919)
(0.0134705 0.546795 0.00240186)
(0.00195533 0.688553 0.00187661)
(-0.00439172 0.699067 0.00225658)
(-0.015656 0.69357 0.0025172)
(-0.0217417 0.645426 0.00291975)