/*--------------------------------*- C++ -*----------------------------------*\
| =========                 |                                                 |
| \\      /  F ield         | OpenFOAM: The Open Source CFD Toolbox           |
|  \\    /   O peration     | Version:  2.3.0                                 |
|   \\  /    A nd           | Web:      www.OpenFOAM.org                      |
|    \\/     M anipulation  |                                                 |
\*---------------------------------------------------------------------------*/
FoamFile
{
    version     2.0;
    format      ascii;
    class       volVectorField;
    location    "21";
    object      U.airMean;
}
// * * * * * * * * * * * * * * * * * * * * * * * * * * * * * * * * * * * * * //

dimensions      [0 1 -1 0 0 0 0];

internalField   nonuniform List<vector> 
6144
(
(0.00800355 0.0208136 -0.0010219)
(0.00807023 0.00511716 -0.00115202)
(0.00443709 0.00280787 -0.00191144)
(0.00446828 0.000518532 -0.001885)
(0.0030139 -0.00111965 -0.0014905)
(0.00302314 -0.000769497 -0.00136046)
(0.00256176 -0.00115497 -0.00135703)
(0.00269978 -0.000228014 -0.00141956)
(0.00263198 0.000353265 -0.00166688)
(0.00274919 0.00145287 -0.00155755)
(0.00278601 0.00201493 -0.00143213)
(0.00295361 0.00237281 -0.00123706)
(0.00306202 0.00216794 -0.00120701)
(0.00317315 0.0018736 -0.00119077)
(0.00319913 0.00144379 -0.00130938)
(0.00323488 0.00114995 -0.00139268)
(0.00324293 0.000864054 -0.00149901)
(0.00325612 0.000693511 -0.00156368)
(0.00326044 0.000538948 -0.00162268)
(0.00326411 0.000452218 -0.00165687)
(0.00326374 0.000377443 -0.00168368)
(0.00326261 0.000335638 -0.00169728)
(0.00325972 0.0003027 -0.00170578)
(0.00325634 0.000281454 -0.00170769)
(0.00325181 0.000266776 -0.00170689)
(0.00324689 0.000256854 -0.00170334)
(0.00324137 0.000252022 -0.00169849)
(0.00323644 0.000248511 -0.00169252)
(0.00323149 0.000247393 -0.00168567)
(0.00322574 0.000244409 -0.00167867)
(0.00322134 0.000253209 -0.00167055)
(0.00321376 0.000236414 -0.00166451)
(0.00321335 0.000277939 -0.00165256)
(0.00319899 0.000207049 -0.00165157)
(0.00320843 0.000342559 -0.00162991)
(0.00318307 0.000125895 -0.00163781)
(0.00320408 0.000472177 -0.00159956)
(0.00316867 -5.46083e-05 -0.00162002)
(0.00319426 0.000694608 -0.00155522)
(0.00315567 -0.000384516 -0.0015843)
(0.00317811 0.0010181 -0.0014799)
(0.00315166 -0.000946377 -0.00150385)
(0.00315589 0.00136768 -0.00137306)
(0.00318432 -0.00187869 -0.0014005)
(0.00311056 0.00171291 -0.00131596)
(0.00319652 -0.00325346 -0.00138342)
(0.00299276 0.00251227 -0.00156197)
(0.0030249 -0.0044063 -0.00152502)
(0.0028907 0.00484139 -0.00199412)
(0.00295097 -0.00474439 -0.00193802)
(0.00414016 0.00957785 -0.00241813)
(0.00290891 -0.00905585 -0.00235877)
(0.00455781 0.0174474 -0.00293183)
(0.00422384 -0.0143544 -0.00455855)
(0.00592181 0.0394081 -0.00638929)
(0.00362567 -0.0335333 -0.011101)
(0.0134546 0.0687987 -0.0051698)
(0.00840528 -0.0575541 -0.0232468)
(-0.039539 0.127601 -0.0766838)
(0.0421638 0.0308974 -0.111976)
(0.0840521 0.333101 -0.00190439)
(0.0406536 0.384953 -0.000725239)
(0.0136137 -0.0205675 0.00415463)
(0.0302431 -0.101633 0.0021759)
(0.024821 -0.119795 0.00298403)
(0.015398 -0.117297 0.00524803)
(0.00970774 -0.126855 0.00620029)
(0.00576547 -0.123884 0.00602201)
(0.00309844 -0.126302 0.00527136)
(0.00100976 -0.120872 0.00431015)
(-0.000441196 -0.119409 0.0033316)
(-0.00129954 -0.112808 0.00241257)
(-0.00158267 -0.109076 0.00151768)
(-0.0015123 -0.102763 0.000678519)
(-0.00122939 -0.0983671 -9.36203e-05)
(-0.000862929 -0.0927498 -0.000785082)
(-0.000452774 -0.0883918 -0.00140458)
(-5.55784e-06 -0.0836922 -0.00196118)
(0.000495483 -0.0796674 -0.00245749)
(0.00104195 -0.0760084 -0.00288709)
(0.00148549 -0.0722598 -0.00321982)
(0.0017286 -0.0681726 -0.00348979)
(0.00178257 -0.0638056 -0.00364548)
(0.00168669 -0.0587129 -0.00373903)
(0.00144191 -0.0531189 -0.00384867)
(0.00105495 -0.0467637 -0.0038955)
(0.000454442 -0.0395626 -0.00408311)
(-0.000266622 -0.0311459 -0.00422004)
(-0.00117894 -0.0215893 -0.00439021)
(-0.00152126 -0.0108789 -0.00395759)
(-0.000163261 -0.00134136 -0.00392565)
(0.00164826 0.00602371 -0.00595283)
(0.00196949 0.0135418 -0.00672201)
(0.00205714 0.0199423 -0.00435164)
(0.00279787 0.0214093 0.00204189)
(0.0040275 0.016556 0.00694843)
(0.0161455 0.0236277 0.00254491)
(0.0169744 0.0117495 0.00257582)
(0.00996505 0.00845587 0.000809942)
(0.0104713 0.00583607 0.00129728)
(0.00653646 0.0025845 0.0014778)
(0.00666867 0.00238794 0.00155597)
(0.00512654 0.0008575 0.00161725)
(0.00527794 0.00187716 0.00128648)
(0.00496933 0.00206207 0.00106891)
(0.00525039 0.00307544 0.00110578)
(0.00537773 0.00332275 0.00116132)
(0.00587102 0.00351128 0.00144449)
(0.00608572 0.00305484 0.0015176)
(0.00633955 0.00267032 0.00158018)
(0.00635721 0.00211396 0.00148463)
(0.00643057 0.00174978 0.00142704)
(0.00641682 0.00138085 0.00132544)
(0.00643574 0.0011637 0.00127025)
(0.00642368 0.000960893 0.00121085)
(0.00642108 0.000846664 0.00118428)
(0.00640811 0.000746419 0.00116346)
(0.00639753 0.000689714 0.00116044)
(0.00638386 0.000643645 0.00116251)
(0.00637047 0.000614869 0.0011729)
(0.00635552 0.000594716 0.0011861)
(0.00634026 0.00058135 0.00120298)
(0.00632423 0.00057482 0.00122133)
(0.00630921 0.000568903 0.00124078)
(0.00629412 0.000567702 0.00126095)
(0.00627802 0.000565296 0.00128103)
(0.00626525 0.000571979 0.00130214)
(0.00624505 0.000557449 0.00132118)
(0.00624127 0.000596428 0.00134554)
(0.0062058 0.000528912 0.00135829)
(0.00622521 0.000666948 0.00139531)
(0.00616073 0.000436612 0.0013956)
(0.00621601 0.000813573 0.00145275)
(0.00611146 0.000223085 0.00143359)
(0.00620372 0.00106973 0.00152251)
(0.00606435 -0.000174855 0.00148541)
(0.00618954 0.00144784 0.00162118)
(0.00604742 -0.000864242 0.00157594)
(0.00619279 0.0019015 0.00174108)
(0.00609914 -0.00198793 0.00169299)
(0.00616937 0.00238996 0.00179709)
(0.00612231 -0.00362158 0.00171095)
(0.0059069 0.00323639 0.0014997)
(0.00572482 -0.00518232 0.00145671)
(0.00516517 0.00516457 0.000605921)
(0.00520523 -0.00550086 0.000915932)
(0.00652356 0.00920978 -0.000196626)
(0.00532132 -0.00636947 0.000105008)
(0.00570862 0.0169008 0.000355837)
(0.00309481 -0.0117408 -0.000469215)
(0.0155388 0.0415895 0.00190499)
(0.0280243 -0.0434475 -0.00164131)
(-0.0201258 0.039617 0.00507871)
(-0.0175742 -0.0154244 -0.0104094)
(0.0129307 0.191135 -0.00480408)
(0.155152 -0.00843587 -0.0635719)
(0.0875098 0.34932 0.00158335)
(-0.00211212 0.435589 0.00927523)
(-0.0287657 -0.0768349 0.0119653)
(-0.0118639 -0.0364847 0.0112055)
(-0.0153689 -0.0635046 0.0117968)
(-0.0202564 -0.0749116 0.0134276)
(-0.0205233 -0.0867391 0.0126296)
(-0.0198788 -0.0882486 0.011164)
(-0.0185944 -0.0951593 0.0093158)
(-0.0173426 -0.0936766 0.00746212)
(-0.0158144 -0.0953237 0.00580135)
(-0.0141947 -0.0911726 0.00433756)
(-0.0123652 -0.0894408 0.00291327)
(-0.0105161 -0.0847593 0.00158324)
(-0.00860179 -0.0818236 0.000381485)
(-0.00658901 -0.0774554 -0.000581251)
(-0.00432066 -0.073673 -0.00134415)
(-0.00201518 -0.0690198 -0.00189581)
(-0.000532877 -0.0643582 -0.00231629)
(0.000145838 -0.0594117 -0.00257419)
(0.000372419 -0.0544903 -0.00257894)
(0.000385976 -0.0497561 -0.00235054)
(0.000237936 -0.0453213 -0.00204828)
(-0.000140677 -0.0405005 -0.00177944)
(-0.000762465 -0.0359117 -0.00153725)
(-0.00173643 -0.0311055 -0.00133918)
(-0.00296079 -0.0259479 -0.00135448)
(-0.00435627 -0.0203378 -0.00147765)
(-0.00587069 -0.0142711 -0.00194951)
(-0.00643253 -0.00709944 -0.0015192)
(-0.00489446 -0.000117775 -0.000730982)
(-0.002445 0.00604187 -0.00176662)
(-0.000868668 0.0124427 -0.00245029)
(-0.000451342 0.0183432 0.000468476)
(-0.000154176 0.0195195 0.00728414)
(0.00132437 0.015369 0.0128222)
(0.0192573 0.0231259 0.0036817)
(0.0212256 0.0145589 0.00379997)
(0.0127569 0.0105851 0.00163088)
(0.0138852 0.00932836 0.0022027)
(0.00810113 0.00503699 0.00228275)
(0.00817259 0.00470215 0.00261419)
(0.00535727 0.00223225 0.00299189)
(0.00543122 0.00305002 0.00282267)
(0.00485546 0.00283048 0.00266854)
(0.00530204 0.00368286 0.00273724)
(0.00542223 0.00357233 0.00277288)
(0.00619474 0.00372253 0.00301423)
(0.00644576 0.00316916 0.00308881)
(0.00676029 0.00286846 0.00317609)
(0.00671944 0.00231675 0.00314165)
(0.00677037 0.00199053 0.00314797)
(0.00667792 0.00160875 0.0031141)
(0.00665482 0.00139495 0.00311665)
(0.00658558 0.0011798 0.00310895)
(0.00654712 0.00106221 0.00312206)
(0.00649706 0.000954163 0.00313368)
(0.00645918 0.000893641 0.00315569)
(0.00641986 0.00084351 0.00317751)
(0.00638562 0.000812407 0.00320325)
(0.00635153 0.000789944 0.00322922)
(0.00631926 0.000775036 0.00325663)
(0.00628816 0.000768066 0.0032836)
(0.0062594 0.000760571 0.0033112)
(0.00623114 0.000759537 0.00333855)
(0.00620398 0.000758376 0.00336601)
(0.00617931 0.000762451 0.00339305)
(0.00614825 0.000754997 0.00341755)
(0.0061321 0.000783371 0.00344343)
(0.00608668 0.000732584 0.00346423)
(0.00609974 0.000843534 0.00349748)
(0.00601775 0.000646479 0.00350975)
(0.00608331 0.000975811 0.00355365)
(0.00593812 0.000434605 0.00355189)
(0.00607809 0.00121764 0.00361404)
(0.00585906 2.88864e-05 0.00359072)
(0.00610366 0.00159973 0.00368699)
(0.00582189 -0.000662534 0.00362835)
(0.0061927 0.00212593 0.0037673)
(0.00588764 -0.00173483 0.00365849)
(0.00626629 0.00287649 0.00381314)
(0.005948 -0.00326971 0.00364367)
(0.00588889 0.00397877 0.00364876)
(0.00551674 -0.00496937 0.00360274)
(0.00462645 0.00573038 0.00274945)
(0.00510268 -0.00584901 0.00312765)
(0.0054483 0.00936419 0.00169845)
(0.00593393 -0.00581558 0.00220838)
(0.00592111 0.0178349 0.00321671)
(0.000745005 -0.0194303 0.0028136)
(0.0236818 0.0304262 0.00464871)
(0.0374078 -0.0514824 0.000979667)
(-0.0524192 0.0696649 0.0204673)
(-0.0652364 -0.105991 -0.0059784)
(-0.0553496 0.175118 -0.0320217)
(0.164051 -0.0179498 -0.0408327)
(0.159775 0.306209 -0.00429222)
(0.066473 0.318805 0.00264636)
(0.0640214 -0.0730378 0.0153725)
(0.0227111 -0.00574699 0.0168225)
(-0.000108726 -0.0436149 0.0158609)
(-0.00636066 -0.0504427 0.0149546)
(-0.0115462 -0.0605293 0.0122974)
(-0.0155494 -0.0609844 0.00965539)
(-0.0174467 -0.0667065 0.00675586)
(-0.0180195 -0.0643155 0.00422791)
(-0.0173784 -0.0651304 0.00197158)
(-0.0154917 -0.060693 1.45519e-05)
(-0.012288 -0.0584578 -0.00181102)
(-0.00922647 -0.0530365 -0.00353601)
(-0.00681479 -0.0483877 -0.00486768)
(-0.00524263 -0.0412462 -0.00597528)
(-0.00406616 -0.0334338 -0.00653377)
(-0.00283815 -0.0242072 -0.00592908)
(-0.00110378 -0.0175716 -0.00457298)
(0.000593701 -0.0133171 -0.00276925)
(0.00156127 -0.0114903 -0.00116418)
(0.00171233 -0.0111004 8.01007e-05)
(0.0011795 -0.011501 0.000936384)
(0.00016454 -0.0118327 0.00138855)
(-0.00112668 -0.0116142 0.00144533)
(-0.00260128 -0.0107823 0.00122851)
(-0.00436624 -0.00889539 0.000850351)
(-0.00635409 -0.00622524 0.000327462)
(-0.00870026 -0.00295527 -0.00055775)
(-0.0102306 0.00111223 -0.000748968)
(-0.00902535 0.00542372 -1.87107e-05)
(-0.00651697 0.00948385 -0.000286659)
(-0.00520409 0.0141709 -9.86221e-06)
(-0.00499558 0.0181892 0.00355752)
(-0.00502332 0.0190175 0.0102386)
(-0.00462912 0.0142346 0.0151587)
(0.0202572 0.0225065 0.00396544)
(0.0241674 0.0162912 0.00435546)
(0.0141123 0.0111551 0.0012849)
(0.0168672 0.0118305 0.00161644)
(0.0101588 0.00662445 0.00136441)
(0.0105277 0.00688807 0.00189734)
(0.00583579 0.00292993 0.00252252)
(0.0054181 0.00366986 0.0026437)
(0.00423681 0.00272446 0.00270672)
(0.0049018 0.00381881 0.00286098)
(0.00491721 0.00342927 0.0029646)
(0.00575884 0.00366284 0.003356)
(0.00590723 0.00310522 0.00352772)
(0.00621411 0.00296989 0.00368554)
(0.00610274 0.00245708 0.00368175)
(0.00614005 0.00221214 0.00371059)
(0.00600388 0.00182294 0.00369401)
(0.00596468 0.00162419 0.00371293)
(0.0058626 0.00139004 0.00372061)
(0.00580509 0.00126844 0.00374754)
(0.00573351 0.00114782 0.00377187)
(0.00568102 0.00108316 0.00380458)
(0.00562734 0.00102795 0.00383394)
(0.00558239 0.000995951 0.00386566)
(0.00553876 0.000972312 0.0038962)
(0.00549732 0.000958727 0.00392625)
(0.00545732 0.000951411 0.00395461)
(0.0054194 0.000944908 0.00398247)
(0.00538165 0.000943908 0.00400918)
(0.00534574 0.000943464 0.00403537)
(0.00531183 0.000947732 0.00406103)
(0.00527608 0.000944674 0.00408585)
(0.00525044 0.000965927 0.00411219)
(0.00520653 0.000927726 0.00413236)
(0.00520628 0.00101836 0.00416073)
(0.00513113 0.000846922 0.0041727)
(0.00518799 0.00113971 0.00421113)
(0.00504992 0.000641093 0.00420892)
(0.00519823 0.00136896 0.004263)
(0.00496848 0.00024036 0.00423581)
(0.00526192 0.00174939 0.00432282)
(0.00491908 -0.000424176 0.00424428)
(0.00539977 0.00233966 0.00439382)
(0.00493277 -0.00139465 0.00421802)
(0.00558176 0.00324771 0.00446949)
(0.00491844 -0.00273131 0.00417976)
(0.00538744 0.00451789 0.00441964)
(0.00456853 -0.00447888 0.00416524)
(0.00413012 0.00620276 0.00376525)
(0.00423683 -0.00687703 0.00381695)
(0.00439606 0.00911196 0.0027113)
(0.00505874 -0.0100945 0.00333584)
(0.00721708 0.01434 0.00511939)
(0.00244115 -0.0235952 0.00121639)
(0.0222545 0.0232637 0.00826884)
(0.0230269 -0.0310292 0.00327889)
(-0.0107774 0.0998472 0.0208119)
(-0.0743687 -0.133521 0.0173052)
(-0.0681664 0.213797 -0.0832306)
(0.1866 -0.0720199 -0.0210839)
(0.194838 0.317934 -0.00434461)
(0.0663476 0.235717 -7.30354e-05)
(0.069905 0.0220817 0.0120312)
(-0.0214774 0.0837471 0.0181226)
(-0.0161683 0.00162865 0.0207275)
(-0.0186446 0.0026572 0.0139885)
(-0.0208444 -0.0156726 0.00752407)
(-0.0213364 -0.0181525 0.00241863)
(-0.0197383 -0.023229 -0.00145016)
(-0.0176153 -0.0192245 -0.00465336)
(-0.0155046 -0.0170199 -0.00769263)
(-0.0133465 -0.00696299 -0.0100158)
(-0.0106376 0.00378295 -0.0113273)
(-0.00822371 0.0170614 -0.0102974)
(-0.00639552 0.0261668 -0.00869792)
(-0.00439992 0.033709 -0.00652954)
(-0.00179924 0.0375183 -0.00428763)
(0.00106349 0.038762 -0.00204785)
(0.00344913 0.0374441 -0.000301794)
(0.00463812 0.0346059 0.00107569)
(0.00478809 0.0307894 0.00202269)
(0.00394526 0.0263356 0.0025938)
(0.00237819 0.0218148 0.00281184)
(0.000337905 0.0176218 0.00269502)
(-0.00198555 0.0140821 0.00224669)
(-0.00443146 0.011655 0.00164503)
(-0.00704085 0.0103568 0.000893962)
(-0.00974439 0.00996112 5.13371e-05)
(-0.0118162 0.010055 -0.000548816)
(-0.0123135 0.0105726 -0.000289097)
(-0.0110447 0.0113149 0.000402732)
(-0.00936344 0.013013 0.000561011)
(-0.00852721 0.0155018 0.00126618)
(-0.00844146 0.0176277 0.00497924)
(-0.00920108 0.0176359 0.0113813)
(-0.00992228 0.0133271 0.0158814)
(0.0197581 0.022031 0.00454635)
(0.0260957 0.018241 0.00533116)
(0.0146309 0.0109604 0.00113764)
(0.0191362 0.0134748 0.0016388)
(0.0119718 0.00667845 0.000340754)
(0.0132185 0.00832669 0.000752058)
(0.00716374 0.00357285 0.00109598)
(0.00605201 0.00448514 0.00173847)
(0.00349559 0.00215977 0.0020712)
(0.00387815 0.00331103 0.00242439)
(0.00375489 0.00257831 0.00263563)
(0.00451602 0.00309837 0.00328366)
(0.00442931 0.00264467 0.00355531)
(0.00465262 0.00275771 0.00380303)
(0.00443565 0.00234269 0.00382359)
(0.0044206 0.00223342 0.00388807)
(0.00419793 0.0018848 0.00387349)
(0.0041013 0.00173735 0.00389597)
(0.00393896 0.00150512 0.00389715)
(0.00383854 0.00139739 0.00391837)
(0.00372623 0.00127297 0.00393242)
(0.00364257 0.0012115 0.0039551)
(0.00356462 0.00115438 0.00397518)
(0.00350101 0.00112224 0.00399827)
(0.00344245 0.00109728 0.00401896)
(0.00339068 0.00108481 0.00403906)
(0.00334477 0.00107605 0.00405714)
(0.00330303 0.00107013 0.004073)
(0.00326369 0.00106807 0.00408733)
(0.00322711 0.0010672 0.00410033)
(0.00319187 0.00107056 0.00411159)
(0.0031574 0.00106948 0.00412258)
(0.00312756 0.00108636 0.00413345)
(0.00308926 0.00105858 0.0041408)
(0.00308468 0.00113529 0.00415829)
(0.00302143 0.000984978 0.00415836)
(0.0030699 0.00125109 0.00418708)
(0.00294664 0.000792475 0.00416872)
(0.0030918 0.00148118 0.00421388)
(0.00287227 0.000414408 0.00416518)
(0.00317893 0.0018741 0.00424594)
(0.00282412 -0.000200036 0.00413733)
(0.00334741 0.00249503 0.00428652)
(0.00284356 -0.00102321 0.00408117)
(0.00356396 0.00342104 0.00433241)
(0.00289621 -0.00195178 0.00404637)
(0.00348856 0.00473064 0.00427448)
(0.00275405 -0.00325107 0.00397883)
(0.00309628 0.00648828 0.00378841)
(0.00293951 -0.00657588 0.00379684)
(0.0042761 0.00798184 0.00323279)
(0.00439085 -0.0115531 0.00592286)
(0.00731239 0.0134835 0.00820462)
(0.00179179 -0.0205708 0.00674175)
(0.0148739 0.0265677 0.0283478)
(0.00982608 -0.0427958 0.0282636)
(0.00662138 0.0681692 0.0619073)
(-0.10227 -0.128837 0.046717)
(-0.0114691 0.193532 -0.165437)
(0.137698 -0.0867931 -0.000709251)
(0.16525 0.461589 -0.000809834)
(0.054026 0.590633 0.000106799)
(0.0509778 0.519311 0.00678883)
(0.00822103 0.537334 0.00562718)
(0.00799322 0.455678 0.00272959)
(-0.00803138 0.400481 -0.00248712)
(-0.00932943 0.395424 -0.00680749)
(-0.0109251 0.398449 -0.00897859)
(-0.0107734 0.406943 -0.0108415)
(-0.0109511 0.419375 -0.0109312)
(-0.0105768 0.429883 -0.0100447)
(-0.00953079 0.43961 -0.00793771)
(-0.00695622 0.439618 -0.00577766)
(-0.00394322 0.435912 -0.00329476)
(-0.000827532 0.424711 -0.00105694)
(0.00169046 0.402946 0.000829167)
(0.00398466 0.366823 0.00236315)
(0.00590164 0.320065 0.00346866)
(0.00728006 0.275256 0.00406795)
(0.00794091 0.231272 0.00429987)
(0.00783662 0.186465 0.00418989)
(0.00700317 0.14187 0.00380661)
(0.00551458 0.0979592 0.0031827)
(0.00352732 0.0611515 0.00248983)
(0.00108273 0.0456041 0.00178219)
(-0.00153504 0.0374444 0.00120528)
(-0.00416399 0.0316421 0.000665487)
(-0.00666647 0.0269253 0.000321818)
(-0.00890179 0.0232571 6.40443e-05)
(-0.0103416 0.0204764 0.000171784)
(-0.0107177 0.0187649 0.000587678)
(-0.0107914 0.0179733 0.000867549)
(-0.0112872 0.0182643 0.00173872)
(-0.0129005 0.0186004 0.00536892)
(-0.015607 0.0177899 0.0109563)
(-0.0186213 0.0131786 0.0146202)
(0.0176365 0.021386 0.00586999)
(0.0271728 0.020967 0.0065391)
(0.0141008 0.0106205 0.00168795)
(0.0201946 0.0149834 0.00296554)
(0.0130316 0.00545285 0.000695783)
(0.0149517 0.00878505 0.000486382)
(0.00873637 0.00306421 -1.55996e-05)
(0.00733005 0.00508908 0.000703742)
(0.00374929 0.0017536 0.00132251)
(0.00333048 0.00281238 0.00194379)
(0.0026094 0.00128854 0.00226856)
(0.00314807 0.00204239 0.00312269)
(0.00299168 0.00169268 0.0035263)
(0.00322419 0.00220873 0.00391791)
(0.00297658 0.00193253 0.00400809)
(0.00294138 0.00203337 0.00413635)
(0.00268954 0.00176312 0.00414489)
(0.00258083 0.00172585 0.00417559)
(0.00240249 0.00153958 0.0041599)
(0.00229786 0.00148364 0.0041581)
(0.00218605 0.0013813 0.00414385)
(0.00210937 0.00134227 0.00413897)
(0.00204226 0.00129769 0.00413087)
(0.00199058 0.00127911 0.0041256)
(0.00194626 0.00126475 0.0041185)
(0.00190973 0.00126293 0.00411229)
(0.00188001 0.00126166 0.00410572)
(0.00185319 0.00126415 0.00409721)
(0.00182787 0.00126693 0.00408774)
(0.00180513 0.0012701 0.00407804)
(0.00178441 0.00127505 0.00406878)
(0.00176573 0.00127642 0.00406061)
(0.00174903 0.00129031 0.00405261)
(0.00173102 0.00126711 0.00404345)
(0.0017358 0.00133394 0.00404382)
(0.00169737 0.00120398 0.00402829)
(0.00175494 0.00145326 0.00404953)
(0.00166493 0.00103762 0.00401626)
(0.00183031 0.00169397 0.00407663)
(0.00164602 0.000707195 0.00400793)
(0.00198183 0.00210508 0.00412673)
(0.00166252 0.000200318 0.00399448)
(0.00216938 0.00275325 0.00417213)
(0.00174426 -0.000380739 0.00397036)
(0.00224227 0.00371772 0.00413037)
(0.00180864 -0.00092786 0.00392325)
(0.00212588 0.00513869 0.00393576)
(0.00183183 -0.0020787 0.00376535)
(0.00270835 0.00676515 0.00375917)
(0.00266366 -0.00562738 0.00374304)
(0.0040525 0.00765169 0.00356689)
(0.00292356 -0.00991887 0.00630008)
(0.00476858 0.0131266 0.00812763)
(-0.00117186 -0.0160033 0.0127294)
(0.0061213 0.0217453 0.039744)
(-0.0127143 -0.0321894 0.0476278)
(0.0214547 0.042253 0.0958881)
(-0.0793833 -0.118377 0.0810325)
(0.0325639 0.0599721 -0.170765)
(0.0836142 -0.0127511 0.0114067)
(0.161222 0.488388 -0.0078893)
(0.0479772 0.593198 -0.00334918)
(0.0455481 0.576145 0.00414224)
(0.013736 0.613773 0.00178829)
(0.00592657 0.603259 -0.000867133)
(-0.0028525 0.610233 -0.0038807)
(-0.00535035 0.610597 -0.00481076)
(-0.00812875 0.604793 -0.00508835)
(-0.00887392 0.605494 -0.00416177)
(-0.00941214 0.609716 -0.00256587)
(-0.00856016 0.620718 -0.000344672)
(-0.00685995 0.613838 0.00162259)
(-0.00410879 0.619516 0.00377069)
(-0.00159249 0.633586 0.00554911)
(0.000792369 0.62858 0.00718487)
(0.00347543 0.618508 0.00828271)
(0.00608796 0.616702 0.00904168)
(0.00823905 0.606332 0.00940037)
(0.00994933 0.594563 0.00948066)
(0.0111677 0.584007 0.00912244)
(0.0112702 0.557232 0.00861683)
(0.0107195 0.538664 0.0079271)
(0.00947422 0.512227 0.00702157)
(0.00754709 0.479473 0.00599345)
(0.0049223 0.420407 0.00504036)
(0.0018023 0.35297 0.00412719)
(-0.00183422 0.299502 0.00314539)
(-0.00487675 0.202233 0.00254512)
(-0.00722577 0.109758 0.00235911)
(-0.00906908 0.0509852 0.00257346)
(-0.0102205 0.0261465 0.00314473)
(-0.0114002 0.0199181 0.00357528)
(-0.0126431 0.0170645 0.00429842)
(-0.0142635 0.0154015 0.00658573)
(-0.0168857 0.014232 0.0101639)
(-0.0198847 0.0110946 0.0119401)
(0.0132721 0.0199566 0.00530065)
(0.0267118 0.0246359 0.00806045)
(0.0113344 0.00982613 0.00290923)
(0.0192609 0.0170388 0.00550325)
(0.0116526 0.00413369 0.00270288)
(0.0143521 0.00861332 0.00235389)
(0.00855342 0.00150762 0.000907083)
(0.00756365 0.00489464 0.000751452)
(0.00334045 0.00117373 0.00124163)
(0.00243551 0.00265704 0.00207098)
(0.00100117 0.000379613 0.00237315)
(0.000747813 0.00119847 0.00310557)
(3.78472e-05 0.000773456 0.00347637)
(0.00017071 0.00158476 0.00397488)
(-0.000156901 0.0013788 0.0041598)
(-0.000197405 0.00169814 0.00435653)
(-0.000531299 0.00153884 0.00437384)
(-0.000685105 0.00166406 0.00440253)
(-0.000927176 0.00156208 0.00436688)
(-0.00106823 0.001597 0.00434859)
(-0.00121257 0.00154275 0.00431121)
(-0.00130772 0.00154844 0.00428569)
(-0.00138498 0.00152958 0.00425653)
(-0.00143701 0.00153189 0.00423362)
(-0.00147529 0.00153104 0.00421093)
(-0.00149974 0.00153675 0.00419183)
(-0.00151216 0.00154261 0.00417254)
(-0.00151502 0.0015503 0.00415527)
(-0.00151305 0.00155569 0.00414123)
(-0.00150765 0.00156086 0.00412983)
(-0.00150094 0.00156631 0.00412029)
(-0.00149179 0.00156986 0.00411281)
(-0.00148346 0.00158022 0.00410619)
(-0.00147123 0.0015624 0.00410162)
(-0.00145122 0.00161743 0.00410202)
(-0.00145147 0.00150517 0.00409845)
(-0.00139632 0.00172546 0.00412211)
(-0.00142617 0.0013581 0.00411453)
(-0.00129573 0.00196003 0.00418993)
(-0.001379 0.00108682 0.004169)
(-0.0011526 0.0023796 0.00429634)
(-0.0013021 0.000712646 0.00424269)
(-0.00103396 0.00306069 0.00437639)
(-0.00116928 0.000302517 0.00430714)
(-0.00104144 0.00408208 0.00430534)
(-0.00100977 -0.000196066 0.00425016)
(-0.000958292 0.00553795 0.00400888)
(-0.000617798 -0.00147954 0.00404683)
(0.000342109 0.00721602 0.0040858)
(0.000899883 -0.00457723 0.00417704)
(0.00114287 0.00851399 0.00400797)
(0.00125358 -0.00910423 0.00562844)
(0.000994619 0.010795 0.00608099)
(-0.00375732 -0.0167103 0.00565927)
(-0.0107228 0.00956292 0.0265172)
(-0.0316188 -0.0417105 0.0469417)
(0.00334708 -0.0178281 0.0848525)
(-0.0249517 -0.11189 0.0846494)
(0.0327761 -0.0721358 -0.170471)
(0.0462434 0.0785984 0.0136609)
(0.0883046 0.585463 -0.0126475)
(0.0303812 0.654779 -0.0057799)
(0.0268434 0.619897 0.0035705)
(0.0118524 0.690417 0.0060996)
(0.00651864 0.654304 0.00709254)
(1.20018e-05 0.670674 0.00533478)
(-0.00276552 0.66421 0.00522946)
(-0.00532137 0.649823 0.00512292)
(-0.00660101 0.666062 0.00588919)
(-0.00713787 0.649656 0.00702708)
(-0.00646846 0.670847 0.00834677)
(-0.00534948 0.675855 0.00939585)
(-0.00328368 0.679312 0.010646)
(-0.00114573 0.660449 0.0116634)
(0.00148955 0.64531 0.0130213)
(0.00436466 0.6629 0.0137264)
(0.00684478 0.668159 0.0142471)
(0.0094766 0.641261 0.0146084)
(0.0127027 0.662624 0.0149244)
(0.0151045 0.650419 0.0147666)
(0.0162664 0.627603 0.0146399)
(0.0171608 0.635718 0.0142257)
(0.0173012 0.627195 0.0134223)
(0.0159831 0.611823 0.0122081)
(0.0137453 0.591735 0.0108817)
(0.0111284 0.556658 0.00987796)
(0.00757502 0.549333 0.00849597)
(0.00338947 0.543806 0.00704185)
(-0.000943746 0.500473 0.00563224)
(-0.00471 0.464854 0.00470376)
(-0.00864005 0.418947 0.00410024)
(-0.0128042 0.37726 0.0036345)
(-0.0168317 0.308815 0.00380361)
(-0.0211503 0.224492 0.00472479)
(-0.0275187 0.207389 0.00629259)
(-0.0341446 0.28425 0.00659632)
(0.00818206 0.0151895 0.00418696)
(0.0249146 0.0281828 0.00845509)
(0.00688667 0.00863819 0.00377266)
(0.0162535 0.0195356 0.0075427)
(0.00893386 0.00356946 0.00478762)
(0.0120539 0.00921045 0.00456915)
(0.00638412 0.000339439 0.00297323)
(0.00627709 0.0045728 0.00212658)
(0.00223002 0.000272584 0.00228369)
(0.00132929 0.0023534 0.00297708)
(-0.000412658 -0.000382326 0.00334913)
(-0.000807977 0.000722322 0.00394701)
(-0.00159804 -1.81041e-06 0.00441626)
(-0.00140487 0.000903687 0.00498191)
(-0.00174554 0.000622915 0.00532578)
(-0.00178791 0.00120965 0.00558679)
(-0.00213167 0.00115315 0.0056725)
(-0.0022135 0.00149787 0.00574905)
(-0.0023951 0.00150865 0.00574434)
(-0.00245649 0.00167069 0.00575201)
(-0.00253312 0.00169142 0.00573758)
(-0.00255878 0.00176323 0.00573742)
(-0.0025742 0.00178766 0.0057328)
(-0.002567 0.00182476 0.00573807)
(-0.0025496 0.00185119 0.00574491)
(-0.00252233 0.00187737 0.00575629)
(-0.00249018 0.00189909 0.00576814)
(-0.00245496 0.001915 0.00578109)
(-0.0024191 0.00192467 0.00579608)
(-0.00238207 0.00193168 0.00581297)
(-0.00234494 0.0019377 0.00583123)
(-0.00230494 0.00194015 0.00585138)
(-0.00226731 0.00194814 0.00587117)
(-0.00222263 0.00193244 0.00589406)
(-0.00217744 0.00197727 0.00591863)
(-0.00213998 0.00187751 0.00594352)
(-0.00206912 0.00207951 0.00598275)
(-0.00205066 0.00174899 0.00600075)
(-0.00192173 0.00232025 0.00607369)
(-0.00194494 0.00153928 0.00607275)
(-0.00175953 0.00277048 0.00617455)
(-0.00182073 0.00128041 0.00614482)
(-0.0016442 0.00350078 0.00621406)
(-0.00165293 0.000973429 0.0061655)
(-0.00170248 0.00456474 0.00602469)
(-0.00147485 0.000320137 0.00600356)
(-0.00166563 0.00598237 0.0056162)
(-0.00112051 -0.00146092 0.00573304)
(-0.000535589 0.00783197 0.00598374)
(0.000328978 -0.00467373 0.00622117)
(0.000480019 0.0102707 0.00706564)
(0.00222852 -0.00881377 0.00841631)
(0.000606246 0.0124396 0.00947219)
(0.00365257 -0.0130996 0.00867861)
(-0.00896569 0.0162806 0.0273719)
(-0.0217292 -0.0412317 0.0441752)
(-0.016244 -0.0278438 0.0784997)
(0.0130453 -0.0940626 0.0783023)
(-0.00238863 -0.102914 -0.156646)
(-0.0122675 0.123595 0.00944666)
(-0.0238398 0.628852 -0.0215166)
(-0.00904778 0.722413 -0.00551803)
(-0.00527304 0.740779 0.0072524)
(-0.00161023 0.766187 0.0108575)
(-0.00102123 0.76565 0.0125655)
(-0.00226089 0.763233 0.0120915)
(-0.00322018 0.767671 0.0122275)
(-0.00392367 0.777932 0.0122811)
(-0.00454391 0.760785 0.0127245)
(-0.00437799 0.762575 0.013423)
(-0.00363612 0.756639 0.01425)
(-0.00249737 0.754887 0.0149831)
(-0.000678357 0.749305 0.0158164)
(0.00180996 0.743492 0.0164921)
(0.00500097 0.735609 0.0173387)
(0.00795551 0.727248 0.0178606)
(0.0109797 0.718377 0.0184811)
(0.0139033 0.716312 0.0189657)
(0.0166375 0.712277 0.0195609)
(0.0190806 0.70595 0.0202275)
(0.0212066 0.699767 0.0209979)
(0.0223937 0.693381 0.0217467)
(0.0229665 0.686027 0.0224279)
(0.0227387 0.678371 0.0229449)
(0.0219616 0.668138 0.0231855)
(0.0205603 0.651271 0.0231954)
(0.0184386 0.639616 0.0228992)
(0.0155951 0.626321 0.0222374)
(0.012551 0.607629 0.0210832)
(0.00813869 0.594662 0.0191073)
(0.00320569 0.559638 0.0161424)
(-0.00287576 0.530829 0.0118575)
(-0.00958848 0.50146 0.00614395)
(-0.0169973 0.462181 -0.00275635)
(-0.0269233 0.454323 -0.0193181)
(-0.0345075 0.447029 -0.0393777)
(-0.00334864 0.0118723 -0.00661956)
(0.0222792 0.031467 0.00510816)
(0.000436601 0.00825879 0.000871138)
(0.01157 0.022683 0.00555865)
(0.00412727 0.00397237 0.00337869)
(0.00769289 0.0109448 0.00319973)
(0.00269509 0.000674993 0.00180062)
(0.00345218 0.00540703 0.000572168)
(-0.000150175 0.000370691 7.43789e-05)
(-0.00105362 0.00254063 0.000108672)
(-0.00324629 -0.000547339 0.000288912)
(-0.00405505 0.000754995 0.000650382)
(-0.00535469 -0.000435287 0.00115594)
(-0.00524894 0.000542289 0.00168604)
(-0.00587357 0.000240457 0.0021179)
(-0.00594396 0.00101151 0.00240408)
(-0.00636663 0.0010029 0.00258284)
(-0.00648266 0.00146433 0.00271732)
(-0.0067134 0.00152263 0.00278777)
(-0.00681276 0.00174863 0.00285184)
(-0.00692675 0.00180612 0.00288739)
(-0.00698923 0.00190663 0.00292713)
(-0.00703441 0.0019491 0.00295882)
(-0.00705388 0.00199785 0.00299695)
(-0.00705626 0.00203112 0.00303579)
(-0.00703977 0.00206246 0.00307854)
(-0.00700298 0.0020867 0.00312285)
(-0.00695163 0.00210523 0.00316919)
(-0.00689863 0.00211842 0.00321601)
(-0.00684546 0.0021284 0.00326207)
(-0.00679193 0.00213658 0.00330708)
(-0.00673467 0.00214099 0.00335134)
(-0.00667997 0.00215036 0.00339292)
(-0.00661563 0.00214004 0.00343466)
(-0.00655866 0.00218093 0.00347328)
(-0.00649556 0.00210042 0.0035149)
(-0.00644278 0.00228175 0.00355537)
(-0.00637362 0.00199661 0.00359945)
(-0.00633644 0.0025203 0.00363964)
(-0.00623734 0.00183343 0.00368561)
(-0.00626406 0.00297981 0.0037143)
(-0.00607648 0.00165058 0.00376398)
(-0.0062688 0.00375831 0.00372155)
(-0.00587349 0.00143525 0.00376314)
(-0.00622783 0.00492055 0.00352564)
(-0.00560276 0.000766186 0.00353185)
(-0.00578288 0.00637494 0.00315098)
(-0.00515382 -0.00137034 0.0032126)
(-0.00450763 0.00811688 0.00369464)
(-0.00422668 -0.00543196 0.003943)
(-0.00468854 0.0102998 0.00504905)
(-0.00234211 -0.00848929 0.00644766)
(-0.00745387 0.0139236 0.00620432)
(-0.00420816 -0.0115126 0.00715279)
(-0.0155897 0.0318287 0.0198467)
(-0.011084 -0.0468474 0.0334275)
(-0.0317056 -0.0155978 0.0596938)
(0.05006 -0.121754 0.0649974)
(-0.0403444 -0.0399248 -0.173319)
(-0.0642 0.0547115 0.00155947)
(-0.139381 0.537928 -0.0306953)
(-0.0455631 0.622382 -0.00736194)
(-0.0352956 0.613103 0.00297594)
(-0.0162415 0.640554 0.0073373)
(-0.0112849 0.638844 0.00833247)
(-0.00813933 0.62055 0.00827785)
(-0.00747483 0.637516 0.00843449)
(-0.00709729 0.634489 0.00868073)
(-0.00713429 0.631472 0.00936162)
(-0.00657724 0.620394 0.00979371)