/*--------------------------------*- C++ -*----------------------------------*\
| =========                 |                                                 |
| \\      /  F ield         | OpenFOAM: The Open Source CFD Toolbox           |
|  \\    /   O peration     | Version:  2.3.0                                 |
|   \\  /    A nd           | Web:      www.OpenFOAM.org                      |
|    \\/     M anipulation  |                                                 |
\*---------------------------------------------------------------------------*/
FoamFile
{
    version     2.0;
    format      ascii;
    class       volVectorField;
    location    "21";
    object      U.airMean;
}
// * * * * * * * * * * * * * * * * * * * * * * * * * * * * * * * * * * * * * //

dimensions      [0 1 -1 0 0 0 0];

internalField   nonuniform List<vector> 
6144
(
(0.0082071 0.0210912 -0.00114404)
(0.00833904 0.00533879 -0.00129905)
(0.00472348 0.00289885 -0.00196493)
(0.0047109 0.000422423 -0.00196157)
(0.00304808 -0.00122279 -0.00152059)
(0.00300861 -0.00074201 -0.00130801)
(0.00249089 -0.00115792 -0.00116588)
(0.00260826 -0.000256244 -0.00116363)
(0.00254973 0.000201295 -0.00142313)
(0.0026313 0.00126443 -0.00135163)
(0.00264171 0.00186981 -0.00126048)
(0.00279914 0.00232896 -0.00103724)
(0.00291611 0.00217487 -0.000995546)
(0.00303678 0.00190034 -0.000952103)
(0.00307316 0.00145778 -0.00107992)
(0.00311466 0.00115353 -0.00116749)
(0.0031273 0.00085468 -0.00128774)
(0.00314361 0.000681577 -0.00136006)
(0.00314966 0.000523551 -0.00142753)
(0.00315441 0.000437083 -0.00146483)
(0.00315348 0.000362639 -0.00149217)
(0.00315146 0.000323002 -0.00150423)
(0.00314636 0.000290968 -0.00150951)
(0.00314058 0.000273989 -0.00150697)
(0.00313329 0.000261195 -0.00149991)
(0.00312529 0.000253408 -0.00148896)
(0.00311644 0.000249217 -0.0014756)
(0.00310679 0.000244036 -0.00145987)
(0.00309717 0.000248847 -0.00144183)
(0.00308506 0.000233129 -0.00142011)
(0.00307532 0.000259294 -0.00139393)
(0.00305883 0.000196534 -0.00136011)
(0.00304894 0.000265817 -0.00131606)
(0.00302525 8.7158e-05 -0.00125857)
(0.003016 0.000218165 -0.00118106)
(0.00298452 -0.000189504 -0.00108695)
(0.00297988 4.34785e-06 -0.0009723)
(0.0029481 -0.000770284 -0.000860922)
(0.00295629 -0.000497172 -0.000765526)
(0.00294391 -0.00168557 -0.000744418)
(0.00295815 -0.00116388 -0.000826935)
(0.00296665 -0.00252666 -0.00107243)
(0.00297664 -0.00123113 -0.00147864)
(0.00302559 -0.0022705 -0.00192541)
(0.00308467 0.0003505 -0.00227639)
(0.00330059 -0.000758219 -0.0024465)
(0.00379827 0.00208775 -0.00295943)
(0.00356254 0.00045605 -0.00393877)
(0.00199947 0.00894486 -0.00495025)
(0.00341552 0.0105421 -0.00632188)
(0.00710405 0.0185409 -0.00742565)
(0.0125449 0.00948521 -0.00732506)
(0.0213624 0.0106996 -0.00793779)
(0.0268804 -0.0280196 -0.00758627)
(0.0296045 -0.0232104 -0.0115462)
(0.0277745 -0.072632 -0.00826507)
(0.0161998 -0.0314573 -0.0219937)
(0.0172155 -0.0880578 0.0123958)
(-0.0268471 0.0328546 -0.0559832)
(0.0294854 0.103991 0.0375986)
(0.102431 0.324734 0.0419948)
(0.0440754 0.392435 -0.0026202)
(0.0481728 -0.0934369 0.00761945)
(0.0458037 -0.154653 0.00738834)
(0.0368563 -0.162132 0.00695187)
(0.0302511 -0.151645 0.0065162)
(0.0242424 -0.153182 0.00527922)
(0.0195687 -0.144845 0.00406777)
(0.0165167 -0.144214 0.00362138)
(0.0146799 -0.135828 0.00367411)
(0.0136424 -0.134175 0.00417339)
(0.0126073 -0.127413 0.00428186)
(0.0108594 -0.122942 0.00470953)
(0.00795376 -0.114525 0.00457966)
(0.00366891 -0.105514 0.00458209)
(0.000741485 -0.0926962 0.00388456)
(-0.000469218 -0.0804722 0.00241449)
(-0.00214286 -0.0673624 0.000929791)
(-0.00425068 -0.0514086 0.000661631)
(-0.00274863 -0.0347512 0.000579095)
(0.00131029 -0.0219738 0.00025832)
(0.0045655 -0.0118589 0.000261423)
(0.00628178 -0.00649012 0.00201648)
(0.00610858 -0.00573107 0.00274293)
(0.00593359 -0.00523366 0.00224929)
(0.00579185 -0.00496202 0.000796492)
(0.00501205 -0.00350874 -0.000274954)
(0.00383749 -0.000847031 -0.00120038)
(0.0019667 0.00296234 -0.00176071)
(-1.81764e-07 0.0100407 -0.00273424)
(0.00126198 0.0175236 -0.00289378)
(0.00282249 0.0239163 -0.00281125)
(0.00324939 0.0289806 -5.3265e-05)
(0.00402137 0.0298335 0.00428733)
(0.00642329 0.0264566 0.00690273)
(0.00789418 0.0165872 0.0084682)
(0.0164069 0.0236402 0.00248333)
(0.0172872 0.0119604 0.00245005)
(0.0104514 0.00871959 0.000778695)
(0.0108743 0.00608934 0.0013277)
(0.00659821 0.00264467 0.00156213)
(0.00654303 0.00239811 0.0017224)
(0.0048743 0.00084601 0.00187475)
(0.0049891 0.00183418 0.0016258)
(0.00468277 0.00196625 0.00139244)
(0.00493497 0.00293425 0.00138131)
(0.00502347 0.00320276 0.00136695)
(0.0054981 0.00348049 0.00163939)
(0.00574189 0.00307422 0.00172886)
(0.00602292 0.00271952 0.00181861)
(0.00606114 0.00215155 0.00173204)
(0.00614436 0.00177267 0.00168168)
(0.00613572 0.00138382 0.00158339)
(0.00615895 0.00115823 0.00153219)
(0.00615112 0.000947045 0.00147198)
(0.00614988 0.000828062 0.00144769)
(0.00613575 0.00072479 0.0014303)
(0.00612229 0.000667779 0.00143157)
(0.0061038 0.000621291 0.00143936)
(0.00608457 0.000595519 0.00145665)
(0.00606338 0.00057562 0.00147823)
(0.00604108 0.000563155 0.0015039)
(0.00601757 0.000554781 0.00153169)
(0.00599234 0.000546225 0.00156175)
(0.00596685 0.000546819 0.0015939)
(0.00593703 0.000527209 0.00162737)
(0.00591325 0.000548269 0.00166339)
(0.00587512 0.000471141 0.00170329)
(0.00585816 0.00053591 0.00175058)
(0.00581014 0.000317847 0.00180281)
(0.0058119 0.000450989 0.00187087)
(0.00576141 -3.62675e-05 0.00194207)
(0.00580044 0.000187435 0.00202944)
(0.00576473 -0.000711001 0.00210205)
(0.00585143 -0.000329531 0.00216384)
(0.00583781 -0.0016927 0.00215227)
(0.00591572 -0.000954935 0.00205035)
(0.00587786 -0.00259543 0.00174898)
(0.00586876 -0.00100914 0.00119696)
(0.00571195 -0.0024255 0.000554494)
(0.00568082 0.000591076 4.92304e-05)
(0.00605002 -0.00102934 -0.000212618)
(0.00611968 0.00262163 -0.00118015)
(0.004181 0.00333857 -0.00252863)
(0.00293845 0.0119167 -0.0024377)
(0.00712666 0.00805743 -0.00222875)
(0.0160437 0.0107223 -0.00121351)
(0.0244836 -0.0100009 0.000562844)
(0.0437026 -0.014346 0.00509801)
(0.0546766 -0.0562437 0.00864583)
(0.0528819 -0.0502362 0.0074792)
(0.05529 -0.107303 0.0130617)
(0.0258462 -0.070512 0.00540017)
(0.0182339 -0.166718 0.0335802)
(-0.0653156 0.0414172 -0.0878715)
(0.0248401 0.0457012 0.0220582)
(0.11102 0.351935 0.0832687)
(0.0222311 0.428124 0.00156139)
(0.0205527 -0.0582032 0.00714887)
(0.0202856 -0.0139007 0.0124665)
(0.00885406 -0.0335572 0.0128391)
(0.00296244 -0.0164597 0.00978245)
(0.00119491 -0.0197824 0.00701913)
(0.00302763 -0.0121156 0.00708581)
(0.0057544 -0.0138381 0.00797555)
(0.00623106 -0.00972073 0.00664668)
(0.00521301 -0.0125393 0.00747142)
(0.00337243 -0.0119299 0.00830726)
(0.00115948 -0.0166584 0.00851187)
(-0.00199267 -0.018445 0.00664811)
(-0.0044473 -0.0209406 0.00452026)
(-0.00466132 -0.0201978 0.00407896)
(-0.00409483 -0.0188047 0.00297455)
(-0.00650242 -0.0142289 0.00379302)
(-0.00846107 -0.00848659 0.00366447)
(-0.00603778 -0.00239711 0.00423156)
(-0.00304405 0.00306211 0.00416203)
(0.000242569 0.00963901 0.00553764)
(0.00359794 0.0107292 0.00837626)
(0.00376884 0.00911952 0.00993549)
(0.00244122 0.00754746 0.00973398)
(0.00171223 0.00639777 0.00936249)
(0.001299 0.00572213 0.00881295)
(0.000809141 0.00520698 0.00744471)
(0.000623983 0.00498956 0.00594384)
(1.32267e-05 0.00554633 0.00348021)
(0.000269922 0.00694615 0.000914732)
(0.00156732 0.0106848 -0.00255426)
(0.00229308 0.0181075 -0.00146065)
(0.00413195 0.0210479 0.00452778)
(0.00702437 0.0197144 0.00945147)
(0.00894823 0.0134023 0.0114087)
(0.0196111 0.0230217 0.00360528)
(0.0216138 0.0146215 0.00362143)
(0.0133216 0.0107587 0.00155604)
(0.0144304 0.00970514 0.0021693)
(0.00834727 0.00521586 0.00234922)
(0.00812258 0.00470349 0.00269155)
(0.00496085 0.00216818 0.00312609)
(0.00498675 0.0029648 0.00303021)
(0.00442416 0.00275959 0.00290378)
(0.00488676 0.00360691 0.00295538)
(0.00495204 0.00348414 0.00291511)
(0.00568666 0.00369386 0.00313547)
(0.00596411 0.00319258 0.00321684)
(0.0063214 0.0029382 0.00332382)
(0.00631518 0.0023922 0.00329252)
(0.00638572 0.00205832 0.0033017)
(0.00630111 0.00165748 0.00326728)
(0.00628493 0.00142868 0.00327214)
(0.00621602 0.00119789 0.00326722)
(0.00617604 0.00107061 0.00328445)
(0.00612108 0.000955338 0.00329992)
(0.00607722 0.000891184 0.00332546)
(0.00603086 0.000838252 0.00335067)
(0.00598895 0.000807951 0.00337969)
(0.00594782 0.000784664 0.00340928)
(0.00590861 0.000769891 0.00344011)
(0.00586996 0.000758879 0.00347082)
(0.00583096 0.00074762 0.00350164)
(0.0057927 0.000742748 0.0035325)
(0.00575167 0.00071822 0.00356381)
(0.00571852 0.000726724 0.00359636)
(0.00567107 0.000643701 0.00363011)
(0.00565321 0.000687485 0.00366773)
(0.00559944 0.000467269 0.00370613)
(0.00561704 0.000582987 0.00375222)
(0.00556956 0.000123986 0.00379407)
(0.00564819 0.000377351 0.00384292)
(0.00562241 -0.000405483 0.00387257)
(0.00577117 0.000121087 0.00389124)
(0.00577337 -0.000996856 0.00385441)
(0.00594326 6.24195e-06 0.00375621)
(0.00588423 -0.00141144 0.00355034)
(0.00580755 0.000296487 0.00323495)
(0.00549273 -0.00126001 0.00283334)
(0.00550934 0.00148445 0.00241921)
(0.00590661 -0.000382188 0.00202626)
(0.0055181 0.00359734 0.00103849)
(0.00411102 0.00269263 -0.000127496)
(0.00485421 0.0083511 7.28492e-05)
(0.0120454 -0.000504596 0.000677038)
(0.0267972 0.000433333 0.00269113)
(0.0433963 -0.0240074 0.00495175)
(0.0613388 -0.0254643 0.0118617)
(0.0734793 -0.060385 0.0137021)
(0.0722938 -0.0424755 0.0178785)
(0.0801422 -0.103788 0.0265591)
(0.0341508 -0.0503508 0.0313222)
(0.0450289 -0.19093 0.0710936)
(-0.0770607 0.0822892 -0.0680748)
(0.0459264 0.0199517 0.00271576)
(0.154498 0.3796 0.104247)
(0.0666428 0.461766 0.0255777)
(0.0582435 0.0343107 0.0225852)
(0.0389624 0.108923 0.00988062)
(0.0248161 0.0752043 0.00871908)
(0.0179167 0.0967873 0.00901414)
(0.0169052 0.0840862 0.0105937)
(0.0148896 0.0864628 0.00964916)
(0.0165364 0.0787314 0.00882022)
(0.0163695 0.0689366 0.00894827)
(0.0146458 0.0484087 0.00918817)
(0.0116006 0.0347732 0.00981093)
(0.008433 0.0241334 0.00891212)
(0.00475222 0.0221688 0.00702129)
(0.000941925 0.0193623 0.00470094)
(-0.00284357 0.020241 0.00344471)
(-0.00640123 0.0208387 0.00444478)
(-0.00878363 0.0212201 0.00594362)
(-0.00970811 0.0205336 0.00639517)
(-0.00848894 0.0204627 0.00717527)
(-0.00580835 0.0219041 0.00722652)
(-0.00227574 0.0231787 0.009693)
(0.000370308 0.0215057 0.0135157)
(-0.00100058 0.0181898 0.0147047)
(-0.00366657 0.0143794 0.0143701)
(-0.00545021 0.0117568 0.0139171)
(-0.00503845 0.0114537 0.0123427)
(-0.00438963 0.0107937 0.0102549)
(-0.00308605 0.0110027 0.00817853)
(-0.0016777 0.0110918 0.00578739)
(2.93422e-05 0.0120088 0.00378381)
(-0.000170576 0.0127752 0.00231744)
(0.000978273 0.0156451 0.00306204)
(0.00405341 0.0165999 0.00691203)
(0.00648838 0.0149458 0.0114693)
(0.00625761 0.00974541 0.0132033)
(0.0207192 0.0225098 0.00389864)
(0.0247182 0.0163063 0.00412329)
(0.014744 0.0111505 0.00114372)
(0.0175789 0.0120441 0.00146273)
(0.0106708 0.0065942 0.00130862)
(0.0107385 0.00683555 0.00178056)
(0.00548736 0.00268116 0.00253228)
(0.00494256 0.00334556 0.00266583)
(0.00364255 0.00244709 0.00282474)
(0.00435142 0.00363955 0.0030253)
(0.0043811 0.00324875 0.00306157)
(0.00516045 0.00356566 0.00343087)
(0.0053324 0.00308453 0.00360457)
(0.00568055 0.00301491 0.00377684)
(0.00562796 0.00252691 0.00377393)
(0.00569083 0.00228581 0.00380396)
(0.00556718 0.00188304 0.00378297)
(0.00553578 0.00166525 0.00380186)
(0.00543368 0.00141141 0.00380916)
(0.0053749 0.00127479 0.00383849)
(0.00529779 0.00114299 0.0038648)
(0.00523892 0.00107162 0.00390051)
(0.00517798 0.00101151 0.00393392)
(0.00512453 0.00097795 0.00396895)
(0.00507317 0.000952702 0.00400251)
(0.00502451 0.000937954 0.0040358)
(0.00497749 0.000926586 0.00406813)
(0.00493127 0.000915462 0.00409925)
(0.00488666 0.000907043 0.00412902)
(0.00484281 0.000880933 0.00415808)
(0.00480927 0.000879663 0.00418722)
(0.00476656 0.000797454 0.00421705)
(0.00475954 0.000828521 0.0042484)
(0.00471946 0.000622034 0.00427861)
(0.00476167 0.000739359 0.00430919)
(0.00472572 0.000333138 0.00432923)
(0.00483279 0.000640608 0.0043415)
(0.00479604 -1.30821e-05 0.00432279)
(0.00496095 0.000666196 0.00427708)
(0.00493119 -0.000230122 0.00418396)
(0.00515457 0.00101657 0.00405891)
(0.0051264 -0.000228048 0.00391396)
(0.00519434 0.00152304 0.0037587)
(0.00476309 -0.000390004 0.00364476)
(0.00445469 0.00201172 0.00361901)
(0.004593 -0.000271473 0.00353992)
(0.00480234 0.00330902 0.00290639)
(0.00429309 0.000823536 0.00202911)
(0.00763762 0.00409195 0.0024412)
(0.0164422 -0.00739483 0.00250275)
(0.0346159 -0.0087891 0.00543862)
(0.054007 -0.0276663 0.0118549)
(0.0684915 -0.0212414 0.0218486)
(0.0781736 -0.0440856 0.0250829)
(0.0771641 -0.00474185 0.0376236)
(0.0853522 -0.0744831 0.049232)
(0.0368026 0.0304347 0.0915583)
(0.0643891 -0.206109 0.127794)
(-0.0926229 0.20914 -0.0341081)
(0.0443303 -0.0407292 0.0267421)
(0.133382 0.453887 0.109181)
(0.0420024 0.578348 0.016982)
(0.0239335 0.427839 0.0125631)
(0.00331254 0.479749 -0.00224227)
(0.00358342 0.43052 0.00665455)
(2.68352e-05 0.415595 0.00585823)
(0.00264157 0.377808 0.00715489)
(0.00307465 0.352202 0.00740889)
(0.00579355 0.329668 0.00695867)
(0.00606333 0.313335 0.00666734)
(0.00544704 0.283277 0.00641395)
(0.00356612 0.255338 0.00467393)
(0.00131308 0.221794 0.00294733)
(-0.00148614 0.192039 0.00259108)
(-0.00267829 0.16464 0.00329457)
(-0.00458122 0.145708 0.00376544)
(-0.00682854 0.132896 0.00476327)
(-0.00862413 0.114541 0.00702362)
(-0.00912675 0.0906003 0.00890606)
(-0.00837541 0.0681378 0.00961152)
(-0.00744146 0.0568742 0.0105079)
(-0.00697139 0.0524676 0.0124168)
(-0.00627661 0.0467833 0.0154532)
(-0.00739901 0.0413226 0.0163192)
(-0.0108799 0.0416063 0.0156088)
(-0.0137303 0.042185 0.0153336)
(-0.0134801 0.0433265 0.013367)
(-0.0112159 0.0411807 0.010436)
(-0.00844698 0.0366414 0.00783494)
(-0.0054486 0.0302038 0.00501824)
(-0.00356812 0.0254843 0.00462555)
(-0.0026897 0.0219337 0.00487021)
(-0.00164651 0.0210094 0.00627562)
(0.00126555 0.0183376 0.0105269)
(0.00145727 0.0150322 0.0135444)
(-0.000836951 0.00928095 0.0137023)
(0.0204075 0.0221985 0.00448328)
(0.0267749 0.0182965 0.00512724)
(0.0153522 0.010875 0.000941033)
(0.0199353 0.0136121 0.00148431)
(0.0126988 0.00656895 0.000188853)
(0.0136306 0.00831407 0.00046961)
(0.00707909 0.00316307 0.000935026)
(0.00580695 0.00404411 0.00161359)
(0.00291011 0.00166619 0.00209032)
(0.00328275 0.00296294 0.00254242)
(0.00315972 0.00228251 0.00269272)
(0.00385061 0.00291249 0.00332347)
(0.00378331 0.00257661 0.00358913)
(0.00405626 0.00277665 0.00385113)
(0.00391746 0.00240312 0.00386056)
(0.00393416 0.00229857 0.00392369)
(0.00373463 0.00193843 0.00390465)
(0.00364745 0.00177164 0.00392804)
(0.00348266 0.00152276 0.00392559)
(0.00337797 0.00139811 0.00394556)
(0.00325799 0.00125928 0.00395814)
(0.00316573 0.00118474 0.00398098)
(0.00307762 0.00111899 0.00400071)
(0.00300475 0.001083 0.00402378)
(0.00293926 0.00105472 0.00404517)
(0.00288119 0.00103724 0.00406662)
(0.00282821 0.00102428 0.00408652)
(0.00278042 0.00101276 0.00410561)
(0.00273769 0.0010019 0.00412393)
(0.00269914 0.000977119 0.00414054)
(0.00267191 0.000972014 0.00415575)
(0.00263968 0.00090008 0.00416963)
(0.00264176 0.000930883 0.00418351)
(0.00261339 0.000757691 0.00419244)
(0.00267027 0.000895052 0.00419943)
(0.00264662 0.000566875 0.00418716)
(0.00277439 0.000934998 0.00415944)
(0.00273415 0.000411542 0.00408445)
(0.00291871 0.00118077 0.00398461)
(0.00287218 0.000424187 0.0038458)
(0.00317863 0.00173971 0.00373081)
(0.00324189 0.000567015 0.00368194)
(0.00353956 0.00228327 0.0036957)
(0.00318257 0.000161778 0.00375423)
(0.0029544 0.0021742 0.00386387)
(0.00304808 -0.000764473 0.00398674)
(0.00333095 0.00222697 0.00383977)
(0.00393169 -0.0011573 0.00385612)
(0.00956994 0.000228104 0.00430571)
(0.0211222 -0.01148 0.00516101)
(0.039874 -0.0109905 0.00958441)
(0.0557396 -0.0197553 0.0191911)
(0.0638396 -0.00332701 0.0288611)
(0.0674804 -0.0163099 0.0317684)
(0.062952 0.0306946 0.0537061)
(0.0641828 -0.0335274 0.0639562)
(0.0384769 0.105888 0.112372)
(0.071505 -0.16032 0.129908)
(-0.067329 0.329331 -0.00864364)
(0.0344495 -0.0733571 0.0327903)
(0.118429 0.494133 0.118197)
(0.0340789 0.613072 0.0150092)
(0.0227679 0.542527 0.0128957)
(0.00604543 0.606081 -0.00247749)
(0.00905192 0.595071 0.00610455)
(0.00387833 0.611912 0.00709089)
(0.00655342 0.607067 0.00826496)
(0.00645538 0.610913 0.00642553)
(0.00893793 0.603927 0.00526835)
(0.00971456 0.599582 0.00393898)
(0.0101698 0.587879 0.00373448)
(0.00915277 0.580201 0.00385281)
(0.00790204 0.570375 0.00449534)
(0.00535816 0.557586 0.00534642)
(0.00300946 0.540358 0.00643802)
(-7.60262e-05 0.515258 0.007495)
(-0.0019106 0.492697 0.00913828)
(-0.00379199 0.471319 0.0105452)
(-0.00470786 0.44866 0.012026)
(-0.00556377 0.4279 0.0130829)
(-0.00737194 0.412909 0.0148034)
(-0.00919748 0.384721 0.0170743)
(-0.0104557 0.335377 0.0181178)
(-0.0130058 0.292133 0.0161679)
(-0.0148928 0.256526 0.012648)
(-0.0162095 0.239138 0.0085746)
(-0.0141345 0.218166 0.00639365)
(-0.0114623 0.19552 0.00424954)
(-0.00860066 0.169642 0.00216731)
(-0.00679323 0.146759 0.00253508)
(-0.00579929 0.127476 0.00517403)
(-0.00483686 0.104405 0.0067008)
(-0.00384368 0.0934542 0.00910134)
(-0.00204997 0.0697054 0.0129527)
(-0.00319787 0.0394355 0.0154425)
(-0.00850497 0.0198605 0.0129834)
(0.0185303 0.0217668 0.00585567)
(0.0280249 0.020961 0.0064722)
(0.0148094 0.010339 0.00152486)
(0.0210311 0.0150513 0.00289538)
(0.0137863 0.00521957 0.00068997)
(0.0155572 0.00863583 0.000434374)
(0.00902292 0.00244489 -0.000168361)
(0.00726205 0.00455858 0.000549689)
(0.00321708 0.00106123 0.00124647)
(0.00267095 0.00241197 0.00198526)
(0.00201415 0.000952112 0.00224584)
(0.00242613 0.0017793 0.00308895)
(0.00230521 0.00156997 0.00348863)
(0.00263142 0.00220939 0.00391519)
(0.0025029 0.00199081 0.00400561)
(0.00251353 0.00209107 0.00414073)
(0.00228905 0.00181376 0.00414561)
(0.00218332 0.00175879 0.00417765)
(0.00200022 0.00156071 0.00415517)
(0.00188951 0.00149113 0.00414859)
(0.00176901 0.00137931 0.00412625)
(0.00168362 0.00133049 0.00411417)
(0.00160672 0.00127889 0.00409909)
(0.00154746 0.00125521 0.00408862)
(0.00149866 0.00123662 0.00407866)
(0.00145875 0.00122772 0.00407104)
(0.00142561 0.0012225 0.00406452)
(0.00139882 0.00121832 0.00405966)
(0.00137679 0.0012146 0.00405559)
(0.00136116 0.00120055 0.0040536)
(0.00135778 0.00120343 0.00405433)
(0.00135641 0.00115605 0.00405555)
(0.00138886 0.00120477 0.00406097)
(0.00139859 0.00108947 0.00406007)
(0.00148564 0.00127173 0.00405613)
(0.0014991 0.001049 0.00402984)
(0.00165006 0.00148299 0.00398492)
(0.00163321 0.00108547 0.00389251)
(0.00182326 0.00188188 0.00377487)
(0.00177034 0.00118006 0.00362818)
(0.00204387 0.00241719 0.00350871)
(0.00204623 0.00125091 0.00345386)
(0.00237778 0.0029214 0.0035016)
(0.00205146 0.00067339 0.00360551)
(0.00197242 0.00234178 0.00363573)
(0.00181903 -0.000898745 0.00353885)
(0.00228172 0.00206871 0.00371144)
(0.00343197 -0.00274663 0.00512963)
(0.0104106 -0.00291916 0.00585312)
(0.0227847 -0.0128097 0.00783718)
(0.0382692 -0.00590456 0.0151994)
(0.0456271 -0.00511009 0.0261024)
(0.051535 0.0157758 0.0371598)
(0.0508347 0.00529887 0.0433002)
(0.0435704 0.0509117 0.0645767)
(0.0382441 -0.0227855 0.0672619)
(0.0308392 0.103652 0.0913919)
(0.0470129 -0.146831 0.0819473)
(0.00738171 0.368591 0.0298072)
(0.0262157 -0.0816806 0.0379164)
(0.0608037 0.532245 0.109162)
(0.00744338 0.640923 0.00490203)
(0.00188104 0.595429 0.00894386)
(-0.0104737 0.652794 -0.000444993)
(-0.00619635 0.648221 0.00999172)
(-0.00528587 0.663185 0.0104803)
(0.000231329 0.659578 0.0118627)
(0.00447561 0.664708 0.0106917)
(0.00925769 0.661321 0.0105382)
(0.0129415 0.661059 0.00959306)
(0.0157043 0.651198 0.00948332)
(0.0164313 0.644218 0.009448)
(0.0165254 0.639317 0.00960156)
(0.0146286 0.635451 0.0101094)
(0.0125378 0.627994 0.011063)
(0.00939786 0.623967 0.0116791)
(0.00648969 0.616554 0.0121337)
(0.00299436 0.609041 0.0120602)
(-0.00060332 0.600946 0.0122785)
(-0.00416758 0.589857 0.012817)
(-0.00813868 0.579912 0.0128876)
(-0.0117917 0.566432 0.0128223)
(-0.0143249 0.549304 0.0108835)
(-0.0161959 0.527632 0.00579932)
(-0.0173637 0.500144 0.00160182)
(-0.0163718 0.4693 -0.000554967)
(-0.0135289 0.430295 -0.000695044)
(-0.01019 0.384413 3.54364e-05)
(-0.00795232 0.347362 0.00205825)
(-0.00697723 0.321341 0.00454179)
(-0.00664323 0.293758 0.00676128)
(-0.00648273 0.271045 0.00941169)
(-0.00715134 0.250244 0.0128756)
(-0.00808811 0.213312 0.0149149)
(-0.0116168 0.153291 0.0144397)
(-0.0143469 0.113246 0.00827938)
(0.014027 0.0204104 0.00571544)
(0.0276679 0.0245782 0.00823418)
(0.0118629 0.00917481 0.00293189)
(0.0198593 0.0169425 0.00562486)
(0.0122631 0.00373967 0.00300017)
(0.014916 0.00848079 0.00262388)
(0.00888979 0.000902965 0.0010586)
(0.00763642 0.00430724 0.000777832)
(0.00299302 0.000341087 0.00114961)
(0.00181407 0.00218035 0.0019975)
(0.000505009 8.4769e-06 0.00225124)
(0.000114544 0.000953119 0.00301712)
(-0.000611516 0.000616097 0.00339631)
(-0.000411243 0.00155792 0.00396373)
(-0.000565906 0.00140357 0.00418687)
(-0.000554529 0.00172137 0.00440921)
(-0.000862315 0.00155905 0.00442551)
(-0.00102708 0.00167201 0.00445417)
(-0.00128139 0.00156986 0.00440773)
(-0.00143287 0.00159973 0.00438243)
(-0.00158612 0.00154432 0.00433444)
(-0.00168821 0.00154505 0.00429976)
(-0.00177226 0.00152348 0.00426302)
(-0.00182849 0.00152238 0.00423543)
(-0.00186831 0.00151816 0.00421079)
(-0.00189426 0.00151959 0.00419194)
(-0.0019097 0.00152193 0.00417692)
(-0.00191387 0.00152491 0.00416689)
(-0.00190907 0.00152851 0.00416117)
(-0.00189491 0.00152605 0.0041605)
(-0.00187249 0.00154261 0.00416555)
(-0.00184678 0.0015264 0.00417332)
(-0.001799 0.00160276 0.00418649)
(-0.00177262 0.0015497 0.00419576)
(-0.00167925 0.00177163 0.00421077)
(-0.00165129 0.00162995 0.00421155)
(-0.0014791 0.00208226 0.00421439)
(-0.00144409 0.00172613 0.00418184)
(-0.00117838 0.00243865 0.00413974)
(-0.00116191 0.00166411 0.00403288)
(-0.000830088 0.00269359 0.0039192)
(-0.000837129 0.00136922 0.00374761)
(-0.000360838 0.00290466 0.00367133)
(-0.000404494 0.00069681 0.00359353)
(-0.000170588 0.00239701 0.00347349)
(-0.000419217 -0.000638413 0.00313202)
(0.00068259 0.00183689 0.0033704)
(0.00283307 -0.00466727 0.00533611)
(0.00970018 -0.00690306 0.00637295)
(0.0211952 -0.0108518 0.00971063)
(0.0266869 0.00830373 0.0195415)
(0.0280659 0.0181172 0.0297909)
(0.0299418 0.0457539 0.0407174)
(0.0257613 0.0441554 0.0503374)
(0.0301291 0.0807588 0.0674829)
(0.0255558 0.00528561 0.0683257)
(0.0403531 0.119245 0.0852281)
(0.0286857 -0.15014 0.0652777)
(0.00234415 0.346253 0.057121)
(0.00937931 -0.0677225 0.0384342)
(0.00604584 0.551256 0.0946421)
(-0.0159281 0.651591 0.00381328)
(-0.0171495 0.618905 0.0058969)
(-0.0189025 0.672901 0.00104599)
(-0.0112003 0.661194 0.0120374)
(-0.00457757 0.673379 0.0115402)
(0.00165085 0.667742 0.0125866)
(0.00776528 0.670938 0.0116847)
(0.0118216 0.666931 0.0126419)
(0.015653 0.665256 0.0125123)
(0.018599 0.661623 0.0128103)
(0.0206146 0.653369 0.013021)
(0.0213424 0.651817 0.0135176)
(0.0202539 0.648076 0.0133702)
(0.0182784 0.643233 0.0136958)
(0.0150427 0.63428 0.0128773)
(0.0114274 0.623379 0.012446)
(0.00696529 0.613259 0.0116211)
(0.00284404 0.609972 0.0116347)
(-0.00110737 0.607425 0.0118995)
(-0.00396546 0.60347 0.0112343)
(-0.00659153 0.602008 0.00879526)
(-0.00832413 0.608589 0.00431281)
(-0.0102912 0.605314 -0.00107874)
(-0.0113113 0.594665 -0.00512811)
(-0.0115398 0.575608 -0.00741599)
(-0.0106551 0.559199 -0.00751022)
(-0.00891703 0.540321 -0.00619637)
(-0.00676677 0.506017 -0.00389398)
(-0.0057846 0.491081 -0.00125786)
(-0.00615153 0.479596 1.29016e-05)
(-0.00707715 0.460209 0.00204824)
(-0.00822484 0.427316 0.00426313)
(-0.0107603 0.372776 0.00595153)
(-0.0148513 0.289395 0.00584214)
(-0.0203232 0.219495 -0.000639024)
(0.00891968 0.0150891 0.00399563)
(0.0260806 0.0282576 0.00878674)
(0.00721422 0.00752437 0.0037879)
(0.0165687 0.0193643 0.00753942)
(0.0092658 0.00292111 0.00512803)
(0.0123955 0.00912879 0.00493013)
(0.00674711 -0.000184155 0.0032801)
(0.00638247 0.00412563 0.00235168)
(0.00194879 -0.000452444 0.00222851)
(0.000635378 0.00198547 0.0028195)
(-0.000944783 -0.000611345 0.00316062)
(-0.0014318 0.000586402 0.00382888)
(-0.00218303 -0.000132732 0.00431558)
(-0.00189638 0.000814719 0.00498278)
(-0.0020348 0.000562621 0.00540869)
(-0.00203658 0.00116448 0.00572237)
(-0.00235173 0.00112648 0.00582969)
(-0.00244461 0.00148109 0.00590998)
(-0.00263149 0.00150251 0.00589914)
(-0.00269916 0.00167064 0.00589763)
(-0.00278008 0.00169837 0.00586981)
(-0.00281058 0.00177113 0.00585631)
(-0.00283087 0.0017958 0.0058391)
(-0.00282536 0.00182937 0.00583441)
(-0.00280705 0.00185039 0.005834)
(-0.00277724 0.0018717 0.00584083)
(-0.00274015 0.00188959 0.00585198)
(-0.00269631 0.00190576 0.00586763)
(-0.00264961 0.00192116 0.00588606)
(-0.00259783 0.00193192 0.00590882)
(-0.00254305 0.00196034 0.00593515)
(-0.00248685 0.00196855 0.00596443)
(-0.00241092 0.00206403 0.00599983)
(-0.00235393 0.00205774 0.00603405)
(-0.00222915 0.00229689 0.00607801)
(-0.00216232 0.00221393 0.00611277)
(-0.00193926 0.00266511 0.00615713)
(-0.00184455 0.00236447 0.00616964)
(-0.00149458 0.00304486 0.00617038)
(-0.00141948 0.00231647 0.00607596)
(-0.00106396 0.00327769 0.00591108)
(-0.0012092 0.0019615 0.00557478)
(-0.00097171 0.00334365 0.00524131)
(-0.00126722 0.00110055 0.00488869)
(-0.00129124 0.00260251 0.00459847)
(-0.00157795 -0.00100032 0.00412875)
(0.000516974 -0.000264722 0.00409911)
(0.00414217 -0.00777283 0.00510422)
(0.00779336 -0.00597813 0.00639553)
(0.00429847 0.00532342 0.015875)
(-0.000754291 0.0336292 0.0275968)
(-0.00179847 0.0520374 0.034707)
(0.00276684 0.0818892 0.0413417)
(0.00879037 0.0935776 0.0506538)
(0.0230323 0.121289 0.0684199)
(0.0353194 0.0848573 0.0777986)
(0.0703569 0.157726 0.103122)
(0.0437505 -0.0729595 0.0938268)
(0.0182504 0.358161 0.0370143)
(-0.0185304 -0.0707209 0.0290671)
(-0.0659046 0.576979 0.0576749)
(-0.0446714 0.676383 -0.00910299)
(-0.0417691 0.629871 0.00280941)
(-0.0295782 0.674645 -0.00014124)
(-0.0186857 0.656621 0.0089132)
(-0.0048577 0.665815 0.00686897)
(0.000717687 0.659173 0.00751441)
(0.00784961 0.66007 0.00656693)
(0.0124421 0.662009 0.00822133)
(0.0173273 0.662779 0.00992352)
(0.0205226 0.661771 0.0111857)
(0.0231361 0.663717 0.0122753)
(0.0250282 0.6628 0.0136194)
(0.025582 0.657718 0.0146957)
(0.0250601 0.648813 0.0163806)
(0.0231505 0.642672 0.0173372)
(0.0204062 0.632649 0.0179299)
(0.01686 0.620564 0.0179668)
(0.0128648 0.606241 0.0174104)
(0.00912386 0.592943 0.0160809)
(0.00600089 0.586261 0.0137649)
(0.0037126 0.57976 0.0103459)
(0.00197812 0.574193 0.00687059)
(0.00140477 0.56823 0.00408767)
(0.00115909 0.556555 0.00293474)
(0.000287445 0.534653 0.00137287)
(0.000500716 0.512479 0.000472726)
(0.0010649 0.49109 0.000158261)
(0.00161258 0.476021 0.00160305)
(0.00275384 0.460692 0.00424139)
(0.00171509 0.442818 0.00620051)
(-0.000289344 0.43175 0.00812992)
(-0.00322488 0.425827 0.00720267)
(-0.00790003 0.42559 0.00271696)
(-0.0118387 0.423936 -0.00799731)
(-0.0170193 0.423645 -0.0278498)
(-0.00252897 0.01133 -0.00705489)
(0.0234858 0.0312006 0.00602331)
(0.000546974 0.00670549 0.000840858)
(0.0118226 0.0224934 0.00528588)
(0.00426994 0.00327398 0.00357146)
(0.00781504 0.0109194 0.0033891)
(0.00295274 0.000335721 0.00213721)
(0.00338128 0.00516615 0.000831539)
(-0.000342012 0.000121451 3.94716e-05)
(-0.00163829 0.00250444 -2.06346e-05)
(-0.00364626 -0.000540447 0.000180716)
(-0.00449077 0.000761843 0.000603503)
(-0.00570277 -0.000507289 0.00112596)
(-0.00561282 0.000434117 0.00172356)
(-0.00612652 0.000141646 0.0022336)
(-0.0061795 0.000945703 0.00255373)
(-0.00659248 0.00096005 0.00276255)
(-0.00671464 0.00143915 0.00290541)
(-0.00695045 0.00151182 0.0029787)
(-0.00705498 0.00174688 0.00304058)
(-0.00717149 0.00181389 0.00307017)
(-0.00723119 0.00191973 0.00310306)
(-0.00727225 0.00196734 0.00312705)
(-0.00728688 0.00201646 0.00315804)
(-0.0072849 0.00204844 0.0031904)
(-0.00726743 0.00207785 0.00322706)
(-0.0072367 0.00210283 0.00326595)
(-0.00719229 0.00212646 0.00330708)
(-0.0071367 0.0021502 0.00334892)
(-0.00707501 0.00217151 0.00339107)
(-0.00701654 0.00220668 0.00343202)
(-0.00695966 0.00222568 0.00347309)
(-0.006896 0.00231826 0.00351429)
(-0.00684793 0.00232341 0.00355803)
(-0.00674215 0.00254716 0.00360674)
(-0.0066853 0.00248628 0.00366052)
(-0.00646811 0.00292951 0.00370871)
(-0.00635834 0.0027075 0.003738)
(-0.0060271 0.0034581 0.0037078)
(-0.00596931 0.00294254 0.0035851)
(-0.00564297 0.0040403 0.00332621)
(-0.00569526 0.00288187 0.00293467)
(-0.00511679 0.00400029 0.0025411)
(-0.00493882 0.00143021 0.00231463)
(-0.00423551 0.00215537 0.00195856)
(-0.00303832 -0.00204474 0.00130647)
(0.000413762 -0.00133611 0.00187718)
(0.00147648 -0.00570994 0.00131574)
(-0.00678999 0.00346822 0.00273098)
(-0.0193197 0.0145266 0.012931)
(-0.0293035 0.0331627 0.0256399)
(-0.0301056 0.0421746 0.0330543)
(-0.0251083 0.066822 0.0324334)
(-0.0153131 0.0746361 0.034654)
(-0.00242992 0.113718 0.0505188)
(0.0228334 0.0649816 0.0547845)
(0.0792314 0.151431 0.0762293)
(0.0709109 -0.0369171 0.0860444)
(0.0993416 0.376289 0.0237849)
(-0.0419242 -0.0937612 0.0226858)
(-0.117989 0.544125 0.0456219)
(-0.0566231 0.663335 -0.00517013)
(-0.0501211 0.59812 0.0057077)
(-0.0254835 0.644064 0.00478711)
(-0.0182449 0.610288 0.0109985)
(-0.00510185 0.619852 0.00720029)
(-0.00217122 0.609246 0.00647067)
(0.00304284 0.614273 0.00445988)
(0.00593908 0.613244 0.0039791)
(0.0098983 0.614916 0.00400407)
(0.0114715 0.612618 0.00330589)
(0.01318 0.615763 0.0032559)
(0.0139818 0.618359 0.00370181)
(0.0161176 0.626259 0.00539517)
(0.018285 0.630753 0.00723334)
(0.0196376 0.632859 0.0094106)
(0.0189623 0.629799 0.00974347)
(0.0174761 0.627837 0.00940835)
(0.0153229 0.621557 0.00872959)
(0.0129369 0.615091 0.00715413)