/*--------------------------------*- C++ -*----------------------------------*\
| =========                 |                                                 |
| \\      /  F ield         | OpenFOAM: The Open Source CFD Toolbox           |
|  \\    /   O peration     | Version:  2.3.0                                 |
|   \\  /    A nd           | Web:      www.OpenFOAM.org                      |
|    \\/     M anipulation  |                                                 |
\*---------------------------------------------------------------------------*/
FoamFile
{
    version     2.0;
    format      ascii;
    class       volVectorField;
    location    "21";
    object      U.water;
}
// * * * * * * * * * * * * * * * * * * * * * * * * * * * * * * * * * * * * * //

dimensions      [0 1 -1 0 0 0 0];

internalField   nonuniform List<vector> 
6144
(
(0.00834367 0.0156594 -0.00184385)
(0.0085403 0.000147887 -0.0026105)
(0.00581285 -0.00149764 -0.00297889)
(0.00555069 -0.00417289 -0.00314659)
(0.00357101 -0.00480652 -0.00250345)
(0.00311884 -0.0042173 -0.00168152)
(0.00200599 -0.00406548 -0.000596877)
(0.00172653 -0.00248702 -8.38806e-05)
(0.00136428 -0.00135931 9.53779e-05)
(0.0010712 0.000476739 0.000662985)
(0.00106467 0.00163207 0.000929445)
(0.00126377 0.00226631 0.00143655)
(0.0014602 0.0020485 0.00152732)
(0.00163969 0.00156409 0.00168222)
(0.0017546 0.000832019 0.0013321)
(0.00187197 0.000337082 0.00113606)
(0.00194243 -0.000146027 0.00080746)
(0.00201227 -0.00036457 0.000630549)
(0.00205977 -0.000586427 0.000431231)
(0.00208571 -0.000670188 0.000332314)
(0.00209799 -0.000751605 0.00026878)
(0.00209422 -0.000765725 0.000250673)
(0.00208343 -0.000777199 0.000257623)
(0.00206678 -0.000767731 0.000286719)
(0.00204549 -0.000756193 0.000332121)
(0.00202106 -0.000743031 0.000387283)
(0.00199403 -0.000730529 0.000447321)
(0.00196448 -0.000715971 0.000509502)
(0.00193267 -0.000694444 0.000575414)
(0.00190083 -0.000668994 0.000645254)
(0.00186656 -0.000650033 0.000728255)
(0.00182531 -0.000648969 0.000835627)
(0.00177532 -0.000682245 0.000978853)
(0.0017162 -0.000782893 0.00116681)
(0.00164869 -0.000989198 0.00140541)
(0.00157662 -0.00135192 0.00168553)
(0.00150719 -0.00190744 0.00198261)
(0.00144848 -0.00267015 0.00223751)
(0.00141079 -0.0035633 0.00236868)
(0.00140289 -0.00449571 0.00227898)
(0.00143615 -0.00524282 0.00183736)
(0.001524 -0.00553016 0.000878699)
(0.0016631 -0.00489249 -0.000418308)
(0.00194405 -0.00294062 -0.00164395)
(0.00272566 0.000290133 -0.00265408)
(0.00519085 0.00202558 -0.00344511)
(0.00874051 -0.000775112 -0.00409845)
(0.0105657 -0.00782386 -0.00456592)
(0.00816999 -0.0116861 -0.00564833)
(0.00132118 -0.00531421 -0.00815565)
(-0.00286258 0.0243679 -0.00881461)
(0.0162579 0.0406627 -0.00308339)
(0.0452661 0.0249197 -0.00276223)
(0.0528184 -0.039443 -0.0149762)
(0.040485 -0.0517472 -0.0212805)
(0.0383108 -0.100059 -0.01712)
(0.0118542 -0.0744265 -0.0320431)
(-0.0015691 -0.074529 0.0207939)
(-0.0406017 -0.0403566 -0.0371112)
(0.0301013 -0.0356768 0.0425871)
(0.139503 -0.288818 0.0796415)
(0.0926066 -0.136003 0.0345377)
(0.066505 -0.193154 0.0144345)
(0.0585115 -0.236216 0.00571484)
(0.0524332 -0.24047 0.00159654)
(0.0462922 -0.245267 0.00242775)
(0.0402243 -0.249022 -3.14956e-05)
(0.0358178 -0.24925 0.00140777)
(0.0345029 -0.246667 0.000850867)
(0.0324292 -0.241014 -0.000366901)
(0.0292226 -0.237386 0.000231073)
(0.0263584 -0.232479 0.00278679)
(0.0225989 -0.231507 0.00753457)
(0.0184631 -0.230027 0.010244)
(0.016629 -0.224084 0.0134262)
(0.015725 -0.219189 0.0122419)
(0.0165203 -0.214711 0.0129281)
(0.0196774 -0.207259 0.0115329)
(0.016123 -0.19643 0.0109081)
(0.0206574 -0.180307 0.0164764)
(0.0188355 -0.166939 0.0118048)
(0.0117623 -0.154733 0.0147301)
(0.0111407 -0.14156 0.0101427)
(-0.000461229 -0.121754 0.00430336)
(-0.0192488 -0.0724447 0.0149485)
(-0.0210753 -0.0258309 0.0110194)
(-0.0129098 0.0077851 0.00858077)
(-0.00603815 0.0234842 0.0107238)
(-0.00436978 0.0305004 0.00801995)
(-0.00451002 0.034216 0.00699005)
(-0.00326569 0.0404975 0.00211594)
(-0.00120379 0.0450182 -0.00113459)
(0.00324742 0.0453465 -0.00145022)
(0.00792278 0.0396122 0.000680485)
(0.00986571 0.025677 0.00297502)
(0.013854 0.0152514 0.00480429)
(0.0172184 0.0185191 0.00287639)
(0.017648 0.00687813 0.00189903)
(0.012244 0.00407816 -5.15249e-05)
(0.011027 0.00169571 0.00131959)
(0.00718384 -0.00132849 0.00229219)
(0.005637 -0.00243444 0.003074)
(0.00247021 -0.00328678 0.00384808)
(0.00151846 -0.00147453 0.00350823)
(0.000882305 6.3043e-05 0.00315312)
(0.000871192 0.00204731 0.0032649)
(0.00130127 0.00291353 0.00340461)
(0.0019954 0.00346344 0.00390001)
(0.00249225 0.00309289 0.00406422)
(0.00294572 0.00271824 0.00425282)
(0.00311037 0.00188651 0.00417649)
(0.00331366 0.00127901 0.00414114)
(0.00336402 0.000610692 0.00402707)
(0.00346914 0.00026231 0.00398395)
(0.00353473 -8.52383e-05 0.00386287)
(0.00357671 -0.00024969 0.00382474)
(0.00358025 -0.000397634 0.00380381)
(0.00356005 -0.000457042 0.00382414)
(0.00352235 -0.000498543 0.00386118)
(0.00347443 -0.000509853 0.00391769)
(0.00341951 -0.000511078 0.0039833)
(0.00336033 -0.000504773 0.00405484)
(0.00329676 -0.000495815 0.00412976)
(0.00322712 -0.000483571 0.00420671)
(0.0031512 -0.000464554 0.00428479)
(0.00307996 -0.000442898 0.00434617)
(0.00301039 -0.000435694 0.00440091)
(0.00293659 -0.0004604 0.0044654)
(0.00286264 -0.000533622 0.00454328)
(0.00279639 -0.000692693 0.00463839)
(0.00274943 -0.000968914 0.00474992)
(0.00273289 -0.00140331 0.00487447)
(0.00275399 -0.00199999 0.00499604)
(0.00280705 -0.00275664 0.00509301)
(0.00288013 -0.00358615 0.00512929)
(0.00294757 -0.0044002 0.00505425)
(0.00294094 -0.00498241 0.00478733)
(0.00294495 -0.00499917 0.00400246)
(0.00299123 -0.00409855 0.00243861)
(0.00289709 -0.00197565 0.000631139)
(0.00446054 0.00129007 -0.000379135)
(0.0102191 0.00345435 -0.000869484)
(0.0179476 0.00498277 -0.0017004)
(0.02014 0.00651932 -0.00273643)
(0.00995754 0.0134308 -0.00551361)
(-0.0108952 0.0268978 -0.00628863)
(-0.0156996 0.0404673 -0.00197805)
(0.00580562 0.0236836 0.0116153)
(0.0570075 -0.013678 0.0206837)
(0.0835908 -0.0643786 -0.00927036)
(0.0639538 -0.0506924 -0.00416842)
(0.0642718 -0.108922 0.0134656)
(0.00888587 -0.0864425 0.00250192)
(0.00559736 -0.166438 0.0372374)
(-0.117016 0.00485696 -0.0824733)
(0.00621702 -0.102818 0.0375991)
(0.17401 -0.24666 0.119915)
(0.106532 -0.0361273 0.0518888)
(0.0669778 -0.1284 0.0112547)
(0.0611925 -0.125121 0.0152037)
(0.0490164 -0.130709 0.0159285)
(0.0303183 -0.138697 0.0122327)
(0.0180147 -0.141261 0.0110576)
(0.0120373 -0.136683 0.00604144)
(0.0135869 -0.122677 -0.00131085)
(0.0165491 -0.105175 -0.00152415)
(0.0164167 -0.0967348 0.00641822)
(0.0139396 -0.0976077 0.013894)
(0.00696327 -0.105663 0.0187853)
(-0.0043908 -0.124761 0.0207598)
(-0.0107848 -0.137216 0.0209843)
(-0.0134374 -0.149858 0.0167508)
(-0.0182456 -0.15546 0.00905881)
(-0.0210764 -0.15143 0.00556354)
(-0.0229373 -0.143558 0.00793555)
(-0.0279423 -0.127826 0.00479651)
(-0.0271102 -0.119037 0.0109545)
(-0.0321544 -0.114528 0.0161899)
(-0.0368483 -0.107455 0.00808302)
(-0.0377445 -0.0944108 0.00973962)
(-0.0409292 -0.0520911 0.0205106)
(-0.0380622 -0.0106351 0.0103432)
(-0.0280603 0.015565 0.00122654)
(-0.0199013 0.031113 0.000258769)
(-0.0119077 0.0363552 0.000325526)
(-0.00600372 0.0383738 -0.00306277)
(0.000448673 0.0390726 -0.00803736)
(0.0120799 0.0389251 -0.00845973)
(0.0242331 0.0356627 -0.00512564)
(0.0298281 0.0310856 -0.00125766)
(0.0332201 0.0214467 0.0010239)
(0.0389419 0.0149497 0.00627315)
(0.0215793 0.0219774 0.00405312)
(0.0223745 0.0126194 0.00263252)
(0.0160544 0.00928385 0.00075757)
(0.0145243 0.00744544 0.00167243)
(0.00940231 0.00276375 0.00257849)
(0.00649822 0.00102706 0.00330034)
(0.00107439 -0.00126328 0.00462483)
(-0.000592487 -0.00031202 0.00453708)
(-0.00136651 0.000749746 0.00423427)
(-0.000767775 0.00243033 0.00415023)
(-0.000101388 0.00285463 0.00409238)
(0.000870683 0.00332759 0.00445961)
(0.00138672 0.00314642 0.00464267)
(0.00199837 0.00315865 0.00482531)
(0.00230525 0.00256358 0.00476804)
(0.00263402 0.00208644 0.00474301)
(0.00265021 0.00140732 0.00465992)
(0.00276865 0.000987528 0.00465276)
(0.00271754 0.000530575 0.00464098)
(0.00270715 0.000299014 0.00467544)
(0.00262824 7.82489e-05 0.00470808)
(0.00256222 -2.79427e-05 0.00476018)
(0.00247878 -0.000107529 0.00481042)
(0.00239679 -0.000141867 0.00486514)
(0.00231342 -0.000156843 0.00491898)
(0.00223164 -0.000156098 0.00497247)
(0.00214864 -0.000150323 0.00502557)
(0.00206133 -0.000146993 0.00507915)
(0.0019696 -0.000154782 0.00513306)
(0.00187527 -0.000182061 0.00518859)
(0.00178167 -0.000234865 0.00524658)
(0.00169155 -0.000328391 0.00530917)
(0.00161096 -0.000473822 0.00537882)
(0.00154739 -0.000690588 0.00545717)
(0.00151071 -0.000980302 0.0055395)
(0.00151663 -0.00134687 0.00561941)
(0.00156254 -0.00175685 0.0056848)
(0.00163995 -0.0021809 0.00571885)
(0.00174803 -0.00254322 0.00569596)
(0.00188176 -0.00276317 0.0055777)
(0.0020121 -0.00272085 0.00532279)
(0.00200674 -0.00233642 0.00486494)
(0.00210258 -0.00143648 0.00384462)
(0.00229127 -0.000179309 0.00250971)
(0.00434298 0.00124238 0.00152165)
(0.00998174 0.00350319 0.00130254)
(0.0165398 0.0114503 0.000790823)
(0.0166816 0.023625 -0.00132959)
(0.00205734 0.0414871 -0.00406459)
(-0.00722483 0.0519413 -0.00326305)
(0.000431395 0.0535435 0.00632663)
(0.0533079 -0.00226091 0.0237601)
(0.094347 -0.0283927 0.0203628)
(0.102798 -0.0592522 -0.0183937)
(0.0914638 0.0193127 0.00678499)
(0.10418 -0.10452 0.0348878)
(0.0361026 -0.0544363 0.0266418)
(-0.00396133 -0.172936 0.0411589)
(-0.095625 0.0315516 -0.116693)
(0.00210501 -0.121308 -0.0111428)
(0.194084 -0.233066 0.132724)
(0.139194 0.00123877 0.0566954)
(0.100409 -0.103971 0.0235087)
(0.0750882 -0.0743532 0.0211711)
(0.0541501 -0.088684 0.0168435)
(0.0356474 -0.0941467 0.0152792)
(0.0269482 -0.0947211 0.0091091)
(0.0238986 -0.0869231 -0.0020222)
(0.0301063 -0.0697515 -0.00247318)
(0.0408744 -0.0588663 0.00937973)
(0.0471724 -0.0602562 0.0211854)
(0.0456711 -0.068626 0.0281116)
(0.0382493 -0.0815845 0.0312631)
(0.0253017 -0.097697 0.0317711)
(0.0109596 -0.111781 0.0279671)
(0.0012379 -0.124248 0.0200815)
(-0.00754828 -0.128174 0.00955361)
(-0.0127861 -0.119676 0.00295699)
(-0.0130838 -0.0953312 -0.0047156)
(-0.0109577 -0.0636772 -0.00525395)
(-0.0242813 -0.0487493 -0.00539388)
(-0.032487 -0.0426274 0.00931897)
(-0.0330354 -0.0404704 0.0299892)
(-0.0528172 -0.0170307 0.0193388)
(-0.0687445 0.0114612 0.00547679)
(-0.056059 0.0318146 0.000110475)
(-0.0310189 0.0470999 0.00307453)
(-0.0111732 0.0591796 0.00516974)
(0.00149165 0.0634373 0.00624458)
(0.0110074 0.0580039 0.00610108)
(0.0222601 0.0500576 0.00543418)
(0.0320773 0.0438121 0.00539028)
(0.0384782 0.0360442 0.0107814)
(0.0399131 0.0309634 0.013065)
(0.0415384 0.0207397 0.0107926)
(0.0468296 0.00910478 0.0154304)
(0.0249318 0.0251536 0.00451875)
(0.0263071 0.0159945 0.00257403)
(0.019713 0.0122848 -2.63557e-05)
(0.0195887 0.0114495 1.83859e-05)
(0.0139899 0.00586365 -0.000271464)
(0.00955163 0.00425046 0.000438656)
(0.00139862 6.28552e-05 0.00316616)
(-0.0019575 -0.00037744 0.0036834)
(-0.00365897 -0.000675823 0.00420904)
(-0.00256679 0.00145484 0.00424777)
(-0.00156482 0.00166079 0.00423016)
(-0.000719692 0.00253746 0.00470582)
(-0.000157569 0.00279608 0.00486045)
(0.00047582 0.00316353 0.00499348)
(0.000968465 0.00282068 0.00485402)
(0.00136866 0.00249857 0.00479733)
(0.00140593 0.00183956 0.00467852)
(0.00154211 0.0013886 0.00465688)
(0.00145486 0.00085468 0.00462469)
(0.00143026 0.000550677 0.00465254)
(0.00132848 0.000261253 0.00468317)
(0.00123547 0.000112063 0.00473641)
(0.00112248 -3.5953e-06 0.004786)
(0.00101527 -5.46347e-05 0.00483958)
(0.000911762 -7.62632e-05 0.00489304)
(0.00081602 -7.47691e-05 0.00494773)
(0.000727471 -6.55417e-05 0.00500279)
(0.000643687 -6.06631e-05 0.00505856)
(0.000563461 -7.34489e-05 0.00511445)
(0.000489488 -0.000114938 0.00516975)
(0.000424398 -0.000189851 0.00522586)
(0.000372144 -0.000305019 0.00528476)
(0.000340487 -0.000457176 0.00534715)
(0.000338976 -0.000644129 0.00541006)
(0.00037287 -0.000847512 0.00546271)
(0.000441552 -0.00105251 0.00549408)
(0.000547033 -0.00121659 0.00548617)
(0.000678894 -0.00131604 0.00542397)
(0.000821948 -0.00127536 0.00529055)
(0.000990031 -0.0010221 0.00505463)
(0.00123835 -0.000472036 0.00470038)
(0.00164207 0.000222403 0.00422586)
(0.00232374 0.000759309 0.00366751)
(0.00333829 0.0010573 0.0030446)
(0.00503289 0.00154747 0.002756)
(0.00782956 0.00344619 0.00227836)
(0.0102649 0.0130138 0.000255283)
(0.00777852 0.0277543 -0.00163944)
(-0.00479526 0.0408864 -0.00278655)
(-0.00862091 0.045949 -0.00378676)
(0.025138 0.0275115 0.00497546)
(0.077918 -0.0118045 0.0344595)
(0.103497 -0.0293867 0.0188883)
(0.0978905 -0.0176 -0.0174261)
(0.11452 0.0555147 0.00778477)
(0.105259 -0.0482409 0.0358361)
(-0.0454122 0.0638561 0.11383)
(0.0077976 -0.227916 0.185954)
(-0.0737919 0.0899442 -0.0614537)
(0.0137449 -0.184416 -0.0153318)
(0.177597 -0.20966 0.139534)
(0.103265 0.0534328 0.0316888)
(0.0838099 -0.0722403 0.0318212)
(0.0515413 -0.0273116 0.019745)
(0.0277453 -0.0476357 0.0158277)
(0.010798 -0.0377627 0.00247384)
(0.00582309 -0.023466 -0.0028519)
(0.00813161 -0.0155648 8.72063e-05)
(0.0149059 -0.0078132 0.00508421)
(0.0197196 -0.012854 0.00982937)
(0.0208392 -0.0129746 0.0182631)
(0.0173658 -0.0214219 0.0252587)
(0.0087753 -0.0363789 0.0279113)
(-0.0045026 -0.0566747 0.024682)
(-0.0162709 -0.0751292 0.0163737)
(-0.0240015 -0.088874 0.00390658)
(-0.0317125 -0.0922088 -0.0089702)
(-0.0392875 -0.0833102 -0.0127127)
(-0.0435145 -0.0623279 -0.00818279)
(-0.034291 -0.0432556 -0.00138399)
(-0.0234317 -0.0194861 0.0146826)
(-0.0358687 -0.0129821 0.0225962)
(-0.0640023 0.0200439 0.0167661)
(-0.0744811 0.0489496 0.0179891)
(-0.0657751 0.0608932 0.0123407)
(-0.0502454 0.0631551 0.00667652)
(-0.0302604 0.0701651 0.00149295)
(-0.0139539 0.0791146 0.00326509)
(0.0045309 0.0795729 0.0130429)
(0.0162136 0.0719274 0.012236)
(0.0226627 0.0589285 0.010909)
(0.0322697 0.0518001 0.0154521)
(0.0387997 0.0399033 0.0174784)
(0.0402529 0.0324988 0.016428)
(0.0432247 0.0198783 0.0122197)
(0.0488073 0.0066826 0.016892)
(0.026956 0.0270235 0.00558382)
(0.0285711 0.0180126 0.00358658)
(0.0211242 0.0134519 0.00021127)
(0.0227929 0.0140684 0.000188456)
(0.018966 0.00842862 -0.0017592)
(0.0153072 0.00806256 -0.00217729)
(0.00519362 0.00172972 -0.000842147)
(0.000480161 0.000969104 0.00130737)
(-0.00447858 -0.00173379 0.00307241)
(-0.00456511 -0.000111645 0.00382367)
(-0.00360464 -6.50608e-05 0.00401768)
(-0.00314986 0.00139001 0.00470228)
(-0.00263265 0.00220425 0.00479975)
(-0.00193929 0.0029672 0.00489791)
(-0.00117511 0.00286516 0.00461841)
(-0.000713749 0.00262894 0.00452948)
(-0.000646378 0.00200137 0.00438364)
(-0.000592027 0.00157307 0.00436633)
(-0.000779786 0.00103888 0.0043024)
(-0.000888715 0.000710677 0.00430214)
(-0.00107592 0.000365492 0.00428668)
(-0.00122713 0.000158002 0.00430675)
(-0.00138131 5.22914e-06 0.00432485)
(-0.00151157 -6.90044e-05 0.00435403)
(-0.00162538 -0.000105664 0.00438741)
(-0.00172241 -0.000114079 0.00442592)
(-0.00180568 -0.000113399 0.00446812)
(-0.00187609 -0.000118146 0.00451539)
(-0.00193551 -0.000141974 0.00456781)
(-0.00198462 -0.000194825 0.00462389)
(-0.00202459 -0.000277184 0.00468148)
(-0.00205487 -0.000386331 0.00473749)
(-0.00207086 -0.000504914 0.00478922)
(-0.00206486 -0.000612415 0.00483393)
(-0.00202922 -0.000676905 0.00486005)
(-0.00195467 -0.000680052 0.00485285)
(-0.00184173 -0.000583946 0.00479243)
(-0.00171631 -0.000359392 0.0046528)
(-0.00160318 6.16735e-05 0.0044086)
(-0.00142958 0.000678321 0.00404767)
(-0.000923424 0.00144262 0.00362982)
(0.00019873 0.00204043 0.00332244)
(0.0017699 0.00215528 0.00322476)
(0.00329477 0.00170351 0.00331125)
(0.00490559 0.00155632 0.00367841)
(0.00582505 0.00290734 0.00327979)
(0.00539102 0.011643 -0.000392353)
(0.00263506 0.0238538 -0.00302584)
(-0.00304957 0.0311957 -0.0043614)
(0.00401255 0.0311199 -0.00196672)
(0.0504074 0.00315386 0.0151995)
(0.0898862 -0.0095939 0.0389952)
(0.0960859 0.00358357 0.0193472)
(0.0789848 0.0647531 -0.00634591)
(0.0781295 0.0827093 0.0188027)
(0.0663091 0.0255351 0.0368001)
(0.0595737 0.1163 0.108164)
(0.151456 -0.269038 0.222101)
(-0.0536784 0.124275 0.0435974)
(0.00333779 -0.222113 -0.00329846)
(0.158588 -0.182758 0.124191)
(0.0763713 0.0794425 0.0206753)
(0.084652 0.0219641 0.0389177)
(0.0566683 0.0724119 0.0332501)
(0.0402248 0.0472243 0.0170177)
(0.0208857 0.0463628 0.00493957)
(0.0146415 0.0440046 -0.000831028)
(0.014081 0.0422039 -0.00518846)
(0.0197207 0.0412553 -0.0108963)
(0.0252859 0.0439689 -0.0104666)
(0.0274191 0.0404517 -0.00624101)
(0.0255367 0.0350645 0.00293727)
(0.0203687 0.0240341 0.0114825)
(0.0109083 0.00428644 0.0135767)
(-0.00024019 -0.0145876 0.0204877)
(-0.00998218 -0.0310845 0.0190863)
(-0.0187691 -0.0426225 0.00766795)
(-0.0280316 -0.0428636 -0.00758505)
(-0.0342492 -0.0329236 -0.0131875)
(-0.0381701 -0.0108504 -0.0146945)
(-0.0493918 0.0359695 0.00306303)
(-0.0666757 0.0720897 0.021962)
(-0.0736706 0.0845367 0.0230388)
(-0.0656096 0.0881579 0.0151575)
(-0.0572368 0.0807402 0.0046098)
(-0.0378638 0.0884167 -0.0168705)
(-0.0155934 0.107934 -0.0169842)
(0.0021638 0.10927 -0.0026614)
(0.01422 0.104149 0.00623872)
(0.0242815 0.0957468 0.0126527)
(0.030139 0.0774478 0.0166477)
(0.0355076 0.0641984 0.0192812)
(0.0410001 0.0506042 0.0208758)
(0.0416536 0.0371557 0.0193662)
(0.0432791 0.0236174 0.0168996)
(0.0460649 0.00479417 0.0198989)
(0.0270596 0.0271336 0.00879221)
(0.0303112 0.0195268 0.00547152)
(0.0210588 0.0139022 0.00176414)
(0.023496 0.0153294 0.00212567)
(0.0210498 0.00861818 -0.0005784)
(0.0201743 0.00853337 -0.0007506)
(0.0123648 0.000775116 -0.00347402)
(0.00467821 0.00105418 -0.00186124)
(-0.00240201 -0.00197436 0.00103143)
(-0.00489293 -0.000832601 0.00260394)
(-0.00476025 -0.00183363 0.00317949)
(-0.00497025 -0.000147609 0.00415532)
(-0.00411004 0.00115457 0.00440354)
(-0.00315562 0.00254686 0.00473491)
(-0.00197404 0.00264694 0.00459057)
(-0.00141132 0.00244236 0.00464826)
(-0.00132593 0.00181573 0.00452228)
(-0.00135999 0.00146963 0.00454867)
(-0.00161109 0.00102634 0.00444534)
(-0.0017663 0.000791818 0.00440272)
(-0.00198288 0.00052425 0.00430533)
(-0.00215406 0.000370759 0.00422678)
(-0.00232078 0.000242226 0.00414393)
(-0.00245538 0.00017389 0.00407979)
(-0.00256296 0.000132984 0.00402987)
(-0.00264418 0.000115052 0.00399995)
(-0.00270131 0.000105461 0.0039895)
(-0.00273618 9.41411e-05 0.00399873)
(-0.00275325 7.29919e-05 0.00402705)
(-0.00275565 3.73367e-05 0.00407116)
(-0.00274787 -9.84819e-06 0.0041263)
(-0.00272877 -5.76076e-05 0.00418632)
(-0.00270086 -8.07147e-05 0.00423974)
(-0.00265865 -5.37658e-05 0.00427425)
(-0.00259516 6.09717e-05 0.00427415)
(-0.00251928 0.000280543 0.00421858)
(-0.00243762 0.000627991 0.0040827)
(-0.00236688 0.00108921 0.00384132)
(-0.00224821 0.00165374 0.00351046)
(-0.00191409 0.00221889 0.00316355)
(-0.00109991 0.00273827 0.00290297)
(0.000433972 0.00309846 0.0028754)
(0.00246857 0.00308123 0.00327013)
(0.00428888 0.00216379 0.00404948)
(0.00543039 0.000992599 0.0048002)
(0.00402778 0.00148154 0.00346409)
(0.002143 0.00898995 -0.00135438)
(0.00153667 0.0180285 -0.00462133)
(0.000813593 0.023141 -0.00566431)
(0.0198038 0.0128242 0.00256164)
(0.0574616 0.000211515 0.0279295)
(0.0836621 0.000477554 0.037182)
(0.0686222 0.0528479 0.0130001)
(0.0614484 0.112211 0.0264148)
(0.0908957 0.126637 0.0398706)
(0.116104 0.0866501 0.0528329)
(0.165645 0.137208 0.0813468)
(0.216357 -0.150995 0.151489)
(-0.130032 0.266472 0.0567006)
(-0.00178149 -0.293311 0.013098)
(0.115719 -0.148546 0.0522334)
(-0.0116977 0.135978 -0.014728)
(0.0233482 0.0833872 0.0135083)
(0.0213215 0.14509 0.0203568)
(0.0213366 0.155268 0.0239526)
(0.0193898 0.157053 0.0242165)
(0.0208875 0.153056 0.0234879)
(0.0260542 0.142453 0.0189661)
(0.0295921 0.132912 0.0133522)
(0.0316688 0.125347 0.0150642)
(0.0287808 0.113305 0.0148832)
(0.0213618 0.0981584 0.0129243)
(0.0142794 0.0855411 0.00907944)
(0.00646992 0.0771686 0.00762027)
(-0.00439961 0.064603 0.00501295)
(-0.0176332 0.0552134 0.00268494)
(-0.0284781 0.0516512 0.0011764)
(-0.0370271 0.0537047 -0.00125095)
(-0.0467262 0.0660105 0.000920339)
(-0.0567789 0.0839786 0.0151527)
(-0.0610662 0.0976955 0.0229572)
(-0.0634514 0.10075 0.0220384)
(-0.0618982 0.0922506 0.00926661)
(-0.0553479 0.0941605 -0.0138576)
(-0.037168 0.110464 -0.0380214)
(-0.0177526 0.137571 -0.029173)
(-0.00478332 0.14335 -0.00749592)
(0.00418507 0.144573 0.00545606)
(0.013508 0.133454 0.0214067)
(0.0239004 0.121077 0.0248561)
(0.0284797 0.105478 0.0252235)
(0.0311342 0.0904555 0.0289272)
(0.0376786 0.0707821 0.0332036)
(0.034055 0.0495266 0.0291697)
(0.035422 0.0307776 0.0220578)
(0.0396362 0.00373485 0.0199227)
(0.024594 0.0269769 0.00971415)
(0.0293136 0.0240864 0.0088289)
(0.0191403 0.01481 0.00451633)
(0.0209883 0.0171632 0.00607607)
(0.0193304 0.00773589 0.00404091)
(0.0202984 0.00795982 0.00421093)
(0.0164587 6.3723e-05 -0.000629362)
(0.00815172 -0.000219778 -0.00282539)
(5.73338e-06 -0.00273469 -0.000967562)
(-0.00427275 -0.000389895 0.001052)
(-0.00537082 -0.00238628 0.00208026)
(-0.00709735 -0.000965898 0.00320307)
(-0.0071572 0.000132812 0.00376997)
(-0.00600603 0.00181472 0.00474418)
(-0.00430674 0.00192222 0.00515423)
(-0.00374975 0.00187098 0.00552196)
(-0.00381992 0.00139048 0.00544248)
(-0.00412845 0.00122952 0.0054416)
(-0.00454832 0.000964429 0.00526201)
(-0.00481835 0.000892567 0.00515357)
(-0.00507788 0.000760691 0.00498389)
(-0.00524574 0.000711773 0.00483701)
(-0.00538374 0.000649014 0.00469662)
(-0.00547439 0.000620584 0.00459543)
(-0.00552865 0.000598759 0.00452453)
(-0.00555547 0.000586693 0.00448741)
(-0.00556344 0.000577021 0.00448068)
(-0.00555466 0.000567824 0.00450254)
(-0.00553552 0.000557692 0.00454731)
(-0.00550555 0.000548227 0.00460477)
(-0.00547418 0.000549591 0.00467336)
(-0.0054481 0.000583131 0.004746)
(-0.00543603 0.000677249 0.00480666)
(-0.00542917 0.0008537 0.00483748)
(-0.00540869 0.00112458 0.00482591)
(-0.00534655 0.00147661 0.00476414)
(-0.00520333 0.00189761 0.00464521)
(-0.00495161 0.00230059 0.00446276)
(-0.0045658 0.00262666 0.00422406)
(-0.00398779 0.00280626 0.0039506)
(-0.00310493 0.00288046 0.00373266)
(-0.0017197 0.00288535 0.00376518)
(0.000180096 0.00271789 0.00428217)
(0.00229895 0.00183477 0.00534301)
(0.00330949 0.000455753 0.00581549)
(0.000380767 0.000963414 0.00262064)
(-0.00116982 0.00833012 -0.00374859)
(0.000870185 0.0167732 -0.00665183)
(0.00856502 0.0186633 -0.00577843)
(0.0251446 0.00825975 0.00998574)
(0.0397927 0.0209854 0.0370538)
(0.0462949 0.0577682 0.0313086)
(0.0216482 0.136409 0.0246681)
(0.0283033 0.175435 0.0535587)
(0.0641288 0.194292 0.0643572)
(0.110084 0.191541 0.0786232)
(0.139941 0.193775 0.071869)
(0.118596 0.123361 0.119726)
(0.000998781 0.420525 0.138407)
(0.0183784 -0.387637 0.0284717)
(0.0215873 0.0356251 -0.0239126)
(-0.0264483 0.183046 -0.00292718)
(0.00638121 0.197216 0.0027826)
(0.0039273 0.235433 0.0132846)
(0.0197454 0.24671 0.0190299)
(0.0228172 0.254823 0.0224741)
(0.0316707 0.253781 0.024706)
(0.0355021 0.250754 0.0252079)
(0.0398683 0.248789 0.0275263)
(0.041143 0.243643 0.03066)
(0.0419343 0.234357 0.0296044)
(0.0396241 0.221291 0.0327134)
(0.0361695 0.202566 0.0350319)
(0.0298692 0.183643 0.033226)
(0.0185552 0.167568 0.0326153)
(0.00132157 0.154114 0.0295264)
(-0.016801 0.14697 0.0190286)
(-0.0327783 0.145116 0.0106863)
(-0.0448689 0.149463 0.00447762)
(-0.0507988 0.147169 -0.00225884)
(-0.050069 0.152998 -0.0109277)
(-0.0456756 0.154798 -0.0173591)
(-0.0402726 0.164755 -0.0296085)
(-0.0330311 0.175609 -0.0291454)
(-0.0189551 0.185392 -0.0201735)
(-0.0152183 0.182244 -0.00331868)
(-0.00775349 0.176851 0.0101115)
(-0.00314979 0.167498 0.0249904)
(0.00510159 0.153073 0.032633)
(0.0235546 0.136511 0.0310004)
(0.0302377 0.12585 0.0276059)
(0.0339991 0.110719 0.0328798)
(0.0432422 0.0909913 0.0363498)
(0.0473298 0.0764025 0.0422552)
(0.052967 0.0521188 0.0327094)
(0.0387062 0.00202755 0.017954)
(0.0239715 0.0230158 0.00851621)
(0.0275751 0.0271453 0.00905926)
(0.0169765 0.0175098 0.00573134)
(0.0180503 0.0194298 0.00830916)
(0.0159311 0.00789089 0.0062501)
(0.0171208 0.00801738 0.00665131)
(0.0154337 -0.000266475 0.00409133)
(0.00984742 -0.000485654 -0.000870653)
(0.000366461 -0.00388505 -0.000970025)
(-0.00403115 -0.000926531 0.000460936)
(-0.00458704 -0.00219598 0.00179343)
(-0.00714859 -0.00104803 0.00301086)
(-0.00726565 -0.0013278 0.00407543)
(-0.00618865 -0.000348167 0.00556177)
(-0.00430568 -0.000494837 0.00670059)
(-0.00389027 0.000147237 0.00762122)
(-0.00396382 0.000201756 0.00795441)
(-0.00425523 0.000652119 0.00809754)
(-0.0045603 0.000735831 0.00799184)
(-0.00472166 0.000989146 0.00788104)
(-0.00489278 0.00108332 0.00768365)
(-0.00499749 0.00120291 0.00749252)
(-0.00509785 0.00122228 0.00730882)
(-0.00515268 0.00123037 0.00716723)
(-0.00517527 0.00121546 0.0070601)
(-0.00516524 0.00119596 0.00698817)
(-0.00513437 0.00117148 0.00694142)
(-0.00508093 0.0011521 0.00691864)
(-0.00501351 0.00114117 0.00691651)
(-0.00494184 0.00114916 0.00693091)
(-0.00488135 0.00118423 0.00695464)
(-0.00484302 0.00127452 0.00697997)
(-0.00483913 0.00144923 0.00699755)
(-0.00484287 0.0017188 0.00698725)
(-0.00483174 0.00205967 0.00693018)
(-0.00477126 0.00242237 0.00681942)
(-0.00461524 0.00272617 0.00667608)
(-0.00431702 0.00292446 0.00654027)
(-0.0038613 0.00297181 0.00644428)
(-0.00321681 0.00284432 0.00642902)
(-0.00237564 0.00257358 0.00656608)
(-0.00125397 0.00219794 0.0069015)
(0.000207174 0.00166141 0.00734775)
(0.00182052 0.00086042 0.0077387)
(0.0019407 0.000837109 0.00700818)
(-0.00294778 0.00299013 0.00151216)
(-0.00465858 0.0102897 -0.00525289)
(0.00208325 0.0171406 -0.00608671)
(0.0141441 0.0149469 -0.00227264)
(0.0166452 0.00822745 0.017957)
(0.00857405 0.0247049 0.0339927)
(0.000839251 0.0792783 0.0263967)
(-0.0191729 0.140938 0.0449058)
(0.000648549 0.170459 0.0773459)
(0.0431694 0.199364 0.0816952)
(0.11825 0.220798 0.0944831)
(0.148019 0.239659 0.0891035)
(0.186172 0.165182 0.128425)
(0.196066 0.471545 0.164251)
(-0.021117 -0.412613 0.00831042)
(-0.0857129 0.0522469 -0.0472697)
(-0.0533487 0.197473 -0.00172718)
(-0.0314205 0.211 -0.00871808)
(-0.00172281 0.245328 0.0098905)
(0.0124236 0.254112 0.00779057)
(0.0237986 0.259408 0.00909418)
(0.026741 0.265002 0.0110135)
(0.0310532 0.264447 0.0120317)
(0.0324059 0.272267 0.0160628)
(0.0319269 0.275345 0.0140861)
(0.0331638 0.276339 0.0139904)
(0.0319427 0.278594 0.0169414)
(0.0253333 0.278309 0.0182991)
(0.0195515 0.276614 0.0117245)
(0.0125001 0.276233 0.00477715)
(0.00418145 0.272448 -0.000821832)
(-0.00213365 0.264067 -0.00796918)
(-0.00836609 0.256454 -0.01206)
(-0.0155359 0.244226 -0.0136731)
(-0.0211893 0.233571 -0.0171136)
(-0.0224906 0.22312 -0.0183092)
(-0.0247345 0.210141 -0.0162019)
(-0.0233911 0.199753 -0.0123228)
(-0.0169084 0.186747 -0.00501258)
(-0.00816208 0.174597 0.000775982)
(-0.00443587 0.159441 0.00990518)
(-0.00384991 0.144001 0.0216715)
(-0.00243856 0.129807 0.0283335)
(0.00726954 0.116585 0.0250479)
(0.0234773 0.0932494 0.0162799)
(0.0323782 0.0875112 0.0123503)
(0.0388212 0.0904317 0.0195033)
(0.0503795 0.0820825 0.0272393)
(0.0565307 0.0776791 0.0487582)
(0.0705395 0.0511322 0.0513197)
(0.0779477 0.0140339 0.0472684)
(0.0120219 0.02069 -0.00541025)
(0.023529 0.0257167 0.00540891)
(0.0118468 0.021544 0.00339635)
(0.0145373 0.024446 0.0056493)
(0.0116327 0.0125175 0.00433523)
(0.0136922 0.0104905 0.00565321)
(0.0115471 0.000739093 0.00506689)
(0.00648975 -0.000477981 0.000429484)
(-0.000432442 -0.00291267 -0.00287767)
(-0.00527911 -0.000924371 -0.0030009)
(-0.00590485 -0.0022084 -0.00178597)
(-0.00735481 -0.00127918 -0.000600318)
(-0.0083093 -0.00251993 0.00080531)
(-0.00816649 -0.00184517 0.00219827)
(-0.00795651 -0.00188272 0.00354207)
(-0.00811309 -0.000697825 0.0044018)
(-0.00859448 -0.000358018 0.00500558)
(-0.00891737 0.000383018 0.00529794)
(-0.00929031 0.000606075 0.00541228)
(-0.00950943 0.000982129 0.00544866)
(-0.00964593 0.00114622 0.00540399)
(-0.00962139 0.0013405 0.00535067)
(-0.00957351 0.00143633 0.00528582)
(-0.00949853 0.00149911 0.00523805)
(-0.00941387 0.00152283 0.00520369)
(-0.00931744 0.00153205 0.00518515)
(-0.00921261 0.00153337 0.00517594)
(-0.00909965 0.00153753 0.00517424)
(-0.00898613 0.00155449 0.00517745)
(-0.00887747 0.00159932 0.00518358)
(-0.00878807 0.00167011 0.00518625)
(-0.00872632 0.00179205 0.00518031)
(-0.00871127 0.00197519 0.00516267)
(-0.00868559 0.0022124 0.00512752)
(-0.0085566 0.00247712 0.00507132)
(-0.00828792 0.00269952 0.00499156)
(-0.00786936 0.00281938 0.00490634)
(-0.00730853 0.00281767 0.00485092)
(-0.00664533 0.00272632 0.00486493)
(-0.00599882 0.00254354 0.00497962)
(-0.00532205 0.00225331 0.00529878)
(-0.00442957 0.00183851 0.00582441)
(-0.00335289 0.00123898 0.00641762)
(-0.00261211 0.000552066 0.0066289)
(-0.00453105 0.00182785 0.00449338)
(-0.00917238 0.00536975 -0.00276287)
(-0.00829618 0.0126558 -0.00823191)
(0.0025999 0.0197225 -0.00532201)
(0.0135015 0.0204212 -0.001196)
(0.00748854 0.0196949 0.0116911)
(-0.029254 0.00317232 0.0319549)
(-0.0474939 0.0393411 0.0192537)
(-0.0463921 0.102453 0.027322)
(-0.0185192 0.121842 0.0739494)
(0.0100264 0.14023 0.0699841)
(0.0706788 0.130256 0.0669052)
(0.0894518 0.19961 0.06925)
(0.176019 0.136339 0.0973881)
(0.310806 0.560024 0.113834)
(0.00225913 -0.392466 0.0132121)
(-0.159845 -0.012516 -0.0225153)
(-0.068326 0.143415 0.0106442)
(-0.0657302 0.0995418 0.00406991)
(-0.0132928 0.0968785 0.0160016)
(-0.0074048 0.0857905 -0.0085735)
(0.0190928 0.0942198 -0.0126245)
(0.0175303 0.110199 -0.0228207)
(0.0260277 0.119672 -0.0287238)
(0.0213832 0.158951 -0.0215672)
(0.0272177 0.188661 -0.0103186)
(0.0256443 0.206182 -0.0148292)
(0.0184304 0.216286 -0.00791224)
(0.00987477 0.220423 0.000774376)
(0.00952515 0.217749 0.00818515)
(0.00917604 0.212841 0.0107031)
(0.00503977 0.208104 0.0114575)
(0.00632303 0.194896 0.0117389)
(0.00883576 0.179024 0.0117922)
(0.00876973 0.164532 0.0141055)