/*--------------------------------*- C++ -*----------------------------------*\
| =========                 |                                                 |
| \\      /  F ield         | OpenFOAM: The Open Source CFD Toolbox           |
|  \\    /   O peration     | Version:  2.3.0                                 |
|   \\  /    A nd           | Web:      www.OpenFOAM.org                      |
|    \\/     M anipulation  |                                                 |
\*---------------------------------------------------------------------------*/
FoamFile
{
    version     2.0;
    format      ascii;
    class       volVectorField;
    location    "21";
    object      U.waterMean;
}
// * * * * * * * * * * * * * * * * * * * * * * * * * * * * * * * * * * * * * //

dimensions      [0 1 -1 0 0 0 0];

internalField   nonuniform List<vector> 
6144
(
(0.00820734 0.0204573 -0.00114402)
(0.00833929 0.0046951 -0.00129903)
(0.00472361 0.00224196 -0.00196488)
(0.00471103 -0.000244813 -0.00196149)
(0.00304817 -0.00190005 -0.00152052)
(0.00300867 -0.00142988 -0.00130794)
(0.00249096 -0.00185466 -0.00116581)
(0.00260831 -0.000958911 -0.00116356)
(0.00254978 -0.000504134 -0.00142306)
(0.00263135 0.000558032 -0.00135155)
(0.00264176 0.00116306 -0.0012604)
(0.0027992 0.00162206 -0.00103716)
(0.00291617 0.0014679 -0.000995466)
(0.00303684 0.00119335 -0.000952023)
(0.00307322 0.000750772 -0.00107984)
(0.00311473 0.000446512 -0.0011674)
(0.00312736 0.000147633 -0.00128765)
(0.00314368 -2.55041e-05 -0.00135996)
(0.00314973 -0.000183571 -0.00142744)
(0.00315448 -0.000270084 -0.00146473)
(0.00315355 -0.000344577 -0.00149207)
(0.00315153 -0.000384269 -0.00150413)
(0.00314642 -0.000416361 -0.00150941)
(0.00314065 -0.000433402 -0.00150687)
(0.00313336 -0.000446264 -0.00149981)
(0.00312537 -0.000454124 -0.00148886)
(0.00311651 -0.000458396 -0.00147549)
(0.00310687 -0.000463665 -0.00145977)
(0.00309724 -0.000458951 -0.00144173)
(0.00308514 -0.000474776 -0.00142)
(0.0030754 -0.000448729 -0.00139383)
(0.00305892 -0.00051162 -0.00136)
(0.00304903 -0.000442486 -0.00131595)
(0.00302535 -0.000621306 -0.00125846)
(0.0030161 -0.000490482 -0.00118095)
(0.00298462 -0.000898366 -0.00108683)
(0.00297998 -0.000704738 -0.000972186)
(0.0029482 -0.00147962 -0.000860802)
(0.00295639 -0.00120679 -0.000765398)
(0.002944 -0.00239549 -0.000744276)
(0.00295824 -0.00187415 -0.000826771)
(0.00296672 -0.00323731 -0.00107223)
(0.00297668 -0.00194221 -0.00147841)
(0.00302559 -0.00298201 -0.00192515)
(0.00308459 -0.000362312 -0.00227611)
(0.00330039 -0.00148806 -0.00244617)
(0.00379784 0.00127904 -0.00295903)
(0.00356171 -0.000540304 -0.00393827)
(0.00199849 0.00768476 -0.0049496)
(0.00341538 0.00903374 -0.0063206)
(0.00710577 0.0168284 -0.00742304)
(0.0125469 0.00761533 -0.00732092)
(0.0213644 0.00869518 -0.00792907)
(0.0268824 -0.0301706 -0.00757025)
(0.0296012 -0.0255328 -0.0115271)
(0.0277592 -0.0750962 -0.00825366)
(0.0161912 -0.0340215 -0.021966)
(0.0172658 -0.0923591 0.0123674)
(-0.0260963 0.0140077 -0.0551198)
(0.0212674 -0.0421391 0.0346615)
(0.123637 -0.286387 0.070104)
(0.0855825 -0.104495 0.0344642)
(0.056758 -0.18355 0.012592)
(0.0458785 -0.183831 0.00745171)
(0.0369644 -0.189712 0.00696973)
(0.0303044 -0.176168 0.00653195)
(0.024301 -0.179152 0.00529722)
(0.0196156 -0.16901 0.00408735)
(0.0165551 -0.168706 0.00364043)
(0.0147138 -0.159348 0.00369345)
(0.0136764 -0.15758 0.00419283)
(0.0126406 -0.150058 0.00430239)
(0.0108931 -0.145336 0.00473033)
(0.00798807 -0.136483 0.00460076)
(0.00370304 -0.126877 0.00460205)
(0.000773679 -0.113631 0.00390219)
(-0.000438486 -0.101005 0.00242944)
(-0.0021155 -0.0873615 0.000942127)
(-0.00422726 -0.0710062 0.000671057)
(-0.0027296 -0.053887 0.000590307)
(0.00132596 -0.0405206 0.000272298)
(0.0045792 -0.0299299 0.000277151)
(0.00629382 -0.0241646 0.00203506)
(0.00611791 -0.0228842 0.00276412)
(0.00594116 -0.0218704 0.00227083)
(0.00579709 -0.0211492 0.000817217)
(0.00501599 -0.0192515 -0.000255665)
(0.00384141 -0.0160135 -0.00118293)
(0.00197012 -0.0116713 -0.00174551)
(1.40616e-06 -0.00403922 -0.00272287)
(0.00126277 0.00420622 -0.0028851)
(0.00282346 0.011157 -0.00280211)
(0.00324907 0.0168206 -4.03215e-05)
(0.00402095 0.0182123 0.00429885)
(0.00642658 0.0151022 0.00691124)
(0.00789724 0.00556015 0.00847221)
(0.0164071 0.0230234 0.00248319)
(0.0172873 0.0113317 0.00244993)
(0.0104515 0.00807464 0.000778674)
(0.0108744 0.0054309 0.00132775)
(0.00659829 0.00197109 0.00156215)
(0.00654309 0.00171041 0.00172243)
(0.00487437 0.000148792 0.00187476)
(0.00498916 0.00113177 0.00162583)
(0.00468282 0.00126191 0.00139247)
(0.00493503 0.0022288 0.00138134)
(0.00502352 0.0024964 0.00136699)
(0.00549815 0.00277365 0.00163942)
(0.00574194 0.00236721 0.00172889)
(0.00602297 0.00201246 0.00181865)
(0.00606118 0.00144448 0.00173208)
(0.0061444 0.00106558 0.00168172)
(0.00613576 0.000676715 0.00158343)
(0.00615899 0.00045109 0.00153224)
(0.00615117 0.000239874 0.00147202)
(0.00614993 0.000120849 0.00144774)
(0.0061358 1.75307e-05 0.00143035)
(0.00612234 -3.95318e-05 0.00143162)
(0.00610385 -8.60762e-05 0.00143941)
(0.00608462 -0.00011191 0.0014567)
(0.00606344 -0.000131876 0.00147828)
(0.00604114 -0.000144415 0.00150395)
(0.00601764 -0.000152869 0.00153174)
(0.00599241 -0.000161514 0.00156181)
(0.00596693 -0.000161019 0.00159395)
(0.00593711 -0.000180736 0.00162742)
(0.00591333 -0.000159796 0.00166344)
(0.00587521 -0.000237057 0.00170334)
(0.00585826 -0.000172437 0.00175064)
(0.00581025 -0.000390664 0.00180287)
(0.00581201 -0.000257703 0.00187093)
(0.00576151 -0.000745176 0.00194213)
(0.00580054 -0.000521695 0.0020295)
(0.00576482 -0.00142039 0.00210212)
(0.00585151 -0.00103919 0.00216391)
(0.00583786 -0.00240267 0.00215235)
(0.00591573 -0.00166525 0.00205046)
(0.0058778 -0.00330612 0.00174911)
(0.0058686 -0.00172026 0.00119713)
(0.00571163 -0.00313707 0.000554685)
(0.00568025 -0.000122974 4.94465e-05)
(0.00604905 -0.00176872 -0.000212374)
(0.006118 0.00179306 -0.00117987)
(0.0041783 0.00234775 -0.0025282)
(0.00293512 0.0107282 -0.00243692)
(0.0071234 0.006664 -0.00222729)
(0.0160405 0.00911708 -0.00121085)
(0.0244772 -0.0118218 0.000567538)
(0.0436927 -0.0164119 0.005107)
(0.0546609 -0.0585665 0.00866104)
(0.0528458 -0.0527954 0.00749893)
(0.0552138 -0.110008 0.0130712)
(0.0257971 -0.0733806 0.00542137)
(0.018331 -0.170506 0.0335204)
(-0.0643052 0.0270004 -0.0873157)
(0.00986105 -0.0856072 0.00893477)
(0.157067 -0.261065 0.11239)
(0.0806639 0.000836897 0.0443541)
(0.02338 -0.113536 0.0087596)
(0.0203314 -0.0492405 0.0126107)
(0.00891118 -0.0701992 0.0129844)
(0.00285376 -0.0484593 0.00990139)
(0.00114186 -0.0511239 0.00709454)
(0.00306303 -0.0392489 0.00710789)
(0.00579972 -0.0397219 0.00799195)
(0.00626706 -0.0338044 0.00666034)
(0.00524122 -0.0362613 0.00748594)
(0.00338854 -0.0347956 0.00831975)
(0.00117693 -0.0392307 0.00852006)
(-0.00197094 -0.0405734 0.00665771)
(-0.00441957 -0.0424279 0.00453164)
(-0.00462762 -0.0412523 0.00408759)
(-0.00405332 -0.039462 0.00298107)
(-0.00645708 -0.0343011 0.00380012)
(-0.00841975 -0.0281764 0.00367042)
(-0.00600174 -0.0215634 0.00424108)
(-0.00301482 -0.0154494 0.00417643)
(0.000263415 -0.00842852 0.00555465)
(0.00361044 -0.00684767 0.00839496)
(0.00377879 -0.0078239 0.00995655)
(0.00245119 -0.00886543 0.00975415)
(0.00172027 -0.00957227 0.00938178)
(0.00130686 -0.00979403 0.00883195)
(0.000817413 -0.00984517 0.00746282)
(0.000632261 -0.00965162 0.00596023)
(1.78346e-05 -0.0086597 0.00349187)
(0.000270685 -0.00660089 0.000923857)
(0.00156696 -0.00225428 -0.00254513)
(0.00228887 0.00580964 -0.00144889)
(0.00412641 0.00927121 0.00454058)
(0.00702578 0.00818504 0.00945936)
(0.00895088 0.00220674 0.01141)
(0.0196112 0.0224187 0.00360492)
(0.0216137 0.0140084 0.00362111)
(0.0133217 0.0101305 0.00155593)
(0.0144304 0.00906141 0.00216923)
(0.00834733 0.0045533 0.00234916)
(0.00812264 0.0040243 0.0026915)
(0.00496095 0.00147617 0.00312603)
(0.00498683 0.00226486 0.00303017)
(0.00442425 0.00205725 0.00290374)
(0.00488684 0.00290313 0.00295536)
(0.00495212 0.00277879 0.0029151)
(0.00568674 0.00298747 0.00313545)
(0.0059642 0.00248568 0.00321682)
(0.00632149 0.00223114 0.00332379)
(0.00631526 0.0016851 0.0032925)
(0.00638579 0.00135121 0.00330168)
(0.00630118 0.000950341 0.00326727)
(0.00628499 0.000721512 0.00327213)
(0.00621608 0.000490694 0.00326721)
(0.0061761 0.000363367 0.00328444)
(0.00612114 0.000248054 0.00329992)
(0.00607728 0.00018385 0.00332546)
(0.00603092 0.000130862 0.00335067)
(0.00598902 0.0001005 0.00337969)
(0.0059479 7.71457e-05 0.00340928)
(0.0059087 6.23004e-05 0.00344011)
(0.00587005 5.12078e-05 0.00347081)
(0.00583106 3.98617e-05 0.00350163)
(0.0057928 3.48914e-05 0.0035325)
(0.00575179 1.02568e-05 0.0035638)
(0.00571864 1.86411e-05 0.00359636)
(0.0056712 -6.45151e-05 0.00363011)
(0.00565334 -2.08789e-05 0.00366773)
(0.00559958 -0.000241259 0.00370613)
(0.00561717 -0.000125725 0.00375223)
(0.00556969 -0.000584938 0.00379408)
(0.00564831 -0.0003318 0.00384293)
(0.00562251 -0.00111489 0.00387258)
(0.00577123 -0.00058861 0.00389127)
(0.00577337 -0.00170688 0.00385444)
(0.00594317 -0.000704141 0.00375627)
(0.00588401 -0.00212223 0.00355042)
(0.00580714 -0.0004148 0.00323506)
(0.00549207 -0.00197224 0.00283348)
(0.0055083 0.00076688 0.00241938)
(0.00590496 -0.00112717 0.00202646)
(0.00551548 0.00277343 0.00103874)
(0.00410715 0.0017281 -0.000127089)
(0.00484901 0.00720016 7.37949e-05)
(0.0120379 -0.00188037 0.000678618)
(0.026786 -0.00121418 0.00269412)
(0.0433766 -0.0259685 0.00495767)
(0.0613045 -0.0277711 0.011874)
(0.0734238 -0.063002 0.0137192)
(0.0722171 -0.0453482 0.0179089)
(0.079972 -0.106774 0.0265768)
(0.0340659 -0.0535125 0.0313384)
(0.0450709 -0.194765 0.0710366)
(-0.0757317 0.0688142 -0.0675388)
(0.0245269 -0.123226 -0.0161346)
(0.179945 -0.238038 0.123682)
(0.0999158 0.0466871 0.0517269)
(0.0626394 -0.093173 0.0275114)
(0.0396033 -0.00189199 0.0129308)
(0.0232794 -0.0324266 0.00956863)
(0.015295 -0.00368187 0.00919499)
(0.0157618 -0.0111791 0.0108141)
(0.0141881 0.000264968 0.00996024)
(0.0160133 0.000297648 0.00905034)
(0.0163431 0.00627365 0.0090969)
(0.0146581 0.00161669 0.00930442)
(0.0116801 0.00192277 0.00988764)
(0.00847123 -0.00323415 0.00893025)
(0.00480736 -0.00336 0.00703516)
(0.00100032 -0.00465091 0.00470972)
(-0.00278831 -0.00254179 0.00345311)
(-0.00633829 -0.000583444 0.00445343)
(-0.0087202 0.000775448 0.00595054)
(-0.00965022 0.000667015 0.006403)
(-0.00844311 0.00136572 0.00718888)
(-0.00577686 0.00330551 0.00724688)
(-0.00225516 0.00499557 0.00971557)
(0.000381046 0.00401395 0.013539)
(-0.000990018 0.00126333 0.0147252)
(-0.00364883 -0.00208412 0.0143882)
(-0.0054286 -0.00418352 0.0139354)
(-0.00501375 -0.00409823 0.0123623)
(-0.00436542 -0.00439979 0.0102747)
(-0.00306519 -0.00379741 0.00819745)
(-0.00166318 -0.00324592 0.00580359)
(3.85397e-05 -0.00184122 0.00379675)
(-0.000168913 -0.000509408 0.00232861)
(0.000975684 0.00319605 0.00307423)
(0.00405082 0.00458551 0.0069229)
(0.00648818 0.00326618 0.0114744)
(0.00626357 -0.00151066 0.0132046)
(0.0207194 0.021919 0.00389831)
(0.024718 0.0157071 0.00412297)
(0.0147443 0.0105379 0.00114363)
(0.0175789 0.0114172 0.00146263)
(0.0106709 0.00594896 0.00130854)
(0.0107386 0.0061709 0.00178048)
(0.00548746 0.00199718 0.0025322)
(0.00494264 0.00264809 0.00266576)
(0.00364266 0.00174511 0.00282468)
(0.00435152 0.00293611 0.00302525)
(0.00438121 0.00254395 0.00306153)
(0.00516058 0.0028596 0.00343083)
(0.00533255 0.00237775 0.00360452)
(0.0056807 0.0023079 0.00377678)
(0.00562811 0.00181986 0.00377388)
(0.00569097 0.00157874 0.00380391)
(0.00556732 0.00117595 0.00378292)
(0.00553592 0.000958133 0.00380181)
(0.00543382 0.000704261 0.00380912)
(0.00537504 0.000567606 0.00383845)
(0.00529793 0.000435759 0.00386476)
(0.00523907 0.000364347 0.00390046)
(0.00517813 0.000304185 0.00393388)
(0.00512469 0.000270568 0.0039689)
(0.00507334 0.000245256 0.00400247)
(0.00502469 0.000230437 0.00403576)
(0.00497768 0.000218991 0.00406809)
(0.00493147 0.000207781 0.00409921)
(0.00488687 0.000199265 0.00412898)
(0.00484302 0.000173049 0.00415804)
(0.0048095 0.00017166 0.00418718)
(0.0047668 8.93194e-05 0.00421702)
(0.00475978 0.000120237 0.00424837)
(0.0047197 -8.6416e-05 0.00427858)
(0.00476191 3.07203e-05 0.00430917)
(0.00472595 -0.000375717 0.00432921)
(0.004833 -6.84868e-05 0.00434148)
(0.00479621 -0.000722455 0.00432277)
(0.00496107 -4.34832e-05 0.00427708)
(0.00493123 -0.000940159 0.00418397)
(0.0051545 0.000306136 0.00405893)
(0.00512617 -0.000938934 0.00391401)
(0.00519391 0.000811538 0.00375876)
(0.00476237 -0.00110317 0.00364484)
(0.00445354 0.0012907 0.00361912)
(0.00459118 -0.00102067 0.00354007)
(0.00479952 0.00249068 0.00290663)
(0.00428898 -0.000120863 0.00202955)
(0.00763195 0.00294891 0.00244202)
(0.0164325 -0.00882346 0.00250453)
(0.034599 -0.0105843 0.00544143)
(0.0539763 -0.0298667 0.0118606)
(0.0684352 -0.0238273 0.0218613)
(0.0780812 -0.0469693 0.0251073)
(0.0770261 -0.0079008 0.0376578)
(0.0850721 -0.0777389 0.0493051)
(0.0366239 0.0269434 0.0914712)
(0.0642158 -0.210305 0.127712)
(-0.0913949 0.196041 -0.0337641)
(0.0239526 -0.211005 0.0116257)
(0.15694 -0.205503 0.134742)
(0.072985 0.0701507 0.0404861)
(0.0394891 -0.0556111 0.0258769)
(0.00507328 0.0487632 -0.00198412)
(0.00346633 0.0209173 0.00421334)
(-0.000694767 0.0502157 0.00550187)
(0.00139199 0.0430862 0.00732673)
(0.0015709 0.0535946 0.00748266)
(0.00482343 0.0491358 0.00717586)
(0.00600387 0.0539183 0.00672894)
(0.00580397 0.0480697 0.00680285)
(0.00453744 0.047718 0.00545178)
(0.00228597 0.0430816 0.00359576)
(-0.0012207 0.0423916 0.00307067)
(-0.00300616 0.0403372 0.00325782)
(-0.00505856 0.0384262 0.00372854)
(-0.00721276 0.034975 0.00487488)
(-0.00890762 0.0317726 0.00728551)
(-0.00917549 0.0282032 0.0092692)
(-0.00826003 0.0269709 0.00988882)
(-0.00735757 0.0256657 0.0107021)
(-0.00691373 0.0253719 0.012573)
(-0.00621717 0.0225307 0.0155319)
(-0.00729966 0.0176649 0.0163592)
(-0.0108239 0.0136247 0.0156706)
(-0.0137747 0.0105668 0.0153854)
(-0.0135815 0.00952686 0.0134788)
(-0.0113063 0.00867355 0.0105362)
(-0.00849346 0.00757308 0.00792025)
(-0.0054116 0.00775606 0.00506053)
(-0.00353028 0.00890024 0.00465773)
(-0.00266207 0.0079055 0.00490051)
(-0.00162686 0.00811328 0.00629304)
(0.00128356 0.00604553 0.0105442)
(0.00147112 0.00306819 0.0135531)
(-0.000823758 -0.00203533 0.0137075)
(0.0204078 0.0216194 0.00448318)
(0.0267747 0.01771 0.00512704)
(0.0153525 0.0102763 0.000941029)
(0.0199353 0.0130003 0.00148432)
(0.012699 0.00594054 0.000188836)
(0.0136306 0.00766606 0.000469553)
(0.00707918 0.00249406 0.00093495)
(0.00580703 0.00335617 0.00161351)
(0.00291024 0.000966385 0.00209025)
(0.00328286 0.00225874 0.00254236)
(0.00315987 0.00157755 0.00269267)
(0.0038508 0.00220659 0.00332343)
(0.00378353 0.00186987 0.00358908)
(0.00405649 0.00206961 0.00385108)
(0.0039177 0.00169601 0.00386051)
(0.00393441 0.00159144 0.00392363)
(0.00373488 0.00123127 0.0039046)
(0.00364771 0.00106445 0.00392799)
(0.00348292 0.000815538 0.00392554)
(0.00337823 0.000690845 0.00394551)
(0.00325826 0.000551973 0.00395809)
(0.00316601 0.000477388 0.00398093)
(0.0030779 0.000411584 0.00400066)
(0.00300505 0.000375531 0.00402373)
(0.00293956 0.000347191 0.00404513)
(0.0028815 0.000329644 0.00406658)
(0.00282853 0.000316602 0.00408648)
(0.00278075 0.000305001 0.00410557)
(0.00273804 0.000294039 0.00412389)
(0.00269949 0.000269154 0.00414051)
(0.00267227 0.000263931 0.00415571)
(0.00264004 0.000191867 0.0041696)
(0.00264213 0.00022252 0.00418348)
(0.00261376 4.91612e-05 0.00419242)
(0.00267063 0.000186332 0.00419941)
(0.00264696 -0.000142062 0.00418714)
(0.0027747 0.000225818 0.00415944)
(0.00273442 -0.00029792 0.00408445)
(0.00291892 0.000470995 0.00398462)
(0.0028723 -0.000285959 0.00384583)
(0.00317864 0.00102915 0.00373085)
(0.00324176 -0.00014405 0.00368199)
(0.00353925 0.00157148 0.00369576)
(0.00318199 -0.000552474 0.0037543)
(0.00295343 0.00144959 0.00386395)
(0.00304656 -0.00151794 0.00398687)
(0.00332857 0.00141168 0.00383998)
(0.00392816 -0.00210061 0.00385649)
(0.00956459 -0.000954237 0.00430641)
(0.0211115 -0.0130273 0.00516288)
(0.0398524 -0.0129951 0.00958695)
(0.0557009 -0.0222068 0.0191976)
(0.0637778 -0.00614989 0.0288764)
(0.067379 -0.0194122 0.031797)
(0.0628027 0.0272925 0.0537426)
(0.0639151 -0.0370015 0.0640618)
(0.0382526 0.102205 0.112244)
(0.0712374 -0.164668 0.129751)
(-0.0667883 0.316812 -0.00859822)
(0.0166615 -0.265312 0.0181597)
(0.132435 -0.176545 0.140835)
(0.0510764 0.0876016 0.0319399)
(0.032845 -0.0127574 0.0246033)
(0.00533244 0.0774422 -0.0048061)
(0.011435 0.0614814 0.00475921)
(0.00549475 0.085757 0.00746814)
(0.00770967 0.0794148 0.0103202)
(0.00687637 0.0885218 0.00857081)
(0.0093282 0.0839618 0.00729163)
(0.0104873 0.0888747 0.00532139)
(0.0113554 0.0853866 0.00421075)
(0.0106082 0.0866875 0.0037407)
(0.00994864 0.0834109 0.00418422)
(0.00752248 0.0804451 0.00500534)
(0.00513346 0.075613 0.00623989)
(0.00156882 0.0705628 0.00720544)
(-0.000954431 0.0655995 0.00869827)
(-0.00328241 0.0608353 0.0105511)
(-0.00448975 0.0564796 0.012245)
(-0.00452475 0.053372 0.0127665)
(-0.00555449 0.0504759 0.0137503)
(-0.00717534 0.0456258 0.0163855)
(-0.00774048 0.0397042 0.0190727)
(-0.0103827 0.0343535 0.0183828)
(-0.0148164 0.030116 0.0151126)
(-0.0179515 0.0278067 0.010546)
(-0.0165062 0.0257158 0.00742297)
(-0.0135953 0.023344 0.00463293)
(-0.0102028 0.0211773 0.00219477)
(-0.00773262 0.020664 0.00226664)
(-0.00632512 0.0194066 0.00496903)
(-0.00519565 0.0159416 0.00652117)
(-0.00393179 0.0138064 0.00889532)
(-0.00189527 0.00815978 0.0129361)
(-0.00277294 0.00523739 0.0156837)
(-0.00842609 -0.00221562 0.0130407)
(0.0185309 0.0211988 0.00585553)
(0.0280245 0.020387 0.00647213)
(0.0148098 0.00975331 0.00152501)
(0.021031 0.014453 0.00289557)
(0.0137865 0.00460575 0.000690127)
(0.0155572 0.00800258 0.000434469)
(0.00902301 0.00179089 -0.000168357)
(0.0072621 0.00388379 0.00054965)
(0.00321722 0.000369871 0.00124642)
(0.0026711 0.00171109 0.00198521)
(0.00201438 0.000247858 0.00224581)
(0.00242638 0.00107363 0.00308892)
(0.0023055 0.000863433 0.00348858)
(0.00263174 0.00150252 0.00391514)
(0.00250325 0.00128385 0.00400556)
(0.00251389 0.0013841 0.00414068)
(0.00228943 0.00110677 0.00414556)
(0.00218371 0.00105178 0.0041776)
(0.00200063 0.000853664 0.00415512)
(0.00188993 0.000784049 0.00414854)
(0.00176943 0.000672186 0.00412621)
(0.00168404 0.000623318 0.00411413)
(0.00160716 0.000571671 0.00409906)
(0.0015479 0.000547933 0.00408858)
(0.00149912 0.000529277 0.00407862)
(0.00145921 0.000520313 0.00407101)
(0.00142607 0.000515011 0.00406449)
(0.0013993 0.000510747 0.00405963)
(0.00137727 0.000506926 0.00405556)
(0.00136165 0.00049277 0.00405357)
(0.00135827 0.000495532 0.00405431)
(0.00135691 0.00044801 0.00405553)
(0.00138935 0.000496581 0.00406096)
(0.00139907 0.000381111 0.00406006)
(0.00148611 0.000563172 0.00405613)
(0.00149954 0.000340215 0.00402984)
(0.00165047 0.000773944 0.00398493)
(0.00163357 0.000376132 0.00389253)
(0.00182356 0.0011722 0.0037749)
(0.00177057 0.000469997 0.00362821)
(0.002044 0.00170667 0.00350876)
(0.00204625 0.000539848 0.00345392)
(0.00237767 0.00220937 0.00350167)
(0.00205116 -4.25526e-05 0.00360559)
(0.00197184 0.00161233 0.00363581)
(0.00181809 -0.001659 0.00353897)
(0.00228026 0.00124828 0.0037117)
(0.00342978 -0.00370512 0.00513001)
(0.010407 -0.00416526 0.00585343)
(0.0227761 -0.0145058 0.00783879)
(0.0382486 -0.00812669 0.0152009)
(0.0455908 -0.00777367 0.0261091)
(0.0514848 0.0127942 0.0371709)
(0.050766 0.00209762 0.0433202)
(0.0434762 0.0474432 0.0645796)
(0.0381075 -0.0262636 0.0673203)
(0.0307376 0.100037 0.0913333)
(0.046895 -0.150755 0.0819388)
(0.00748415 0.357125 0.0296287)
(0.0191669 -0.297144 0.0267203)
(0.0710822 -0.142106 0.132404)
(0.0139807 0.11269 0.0115817)
(0.0072186 0.0319225 0.0151682)
(-0.0108262 0.109551 -0.00329349)
(-0.00620495 0.10261 0.00924559)
(-0.00601016 0.121686 0.0111819)
(-0.00138676 0.115488 0.0128706)
(0.00204355 0.123782 0.0114879)
(0.0066908 0.118091 0.0110872)
(0.0103441 0.122266 0.00988893)
(0.0143832 0.119181 0.0097385)
(0.0160809 0.119889 0.00954086)
(0.0171923 0.115588 0.00973923)
(0.0159932 0.113517 0.0103379)
(0.0143849 0.107874 0.0115874)
(0.0116076 0.102869 0.012659)
(0.00903013 0.0961899 0.0135919)
(0.00597003 0.0899229 0.0136949)
(0.0030598 0.0838241 0.0133508)
(9.15988e-05 0.0771711 0.0134432)
(-0.00361848 0.0706435 0.0139662)
(-0.00755356 0.0642708 0.0153307)
(-0.0103048 0.0577203 0.0156594)
(-0.0132497 0.0521615 0.0111622)
(-0.0164469 0.0483125 0.00550995)
(-0.0176128 0.0457332 0.00159939)
(-0.0159676 0.0437345 0.000149459)
(-0.0129148 0.0415726 -0.000952816)
(-0.00983496 0.0400085 -3.44562e-05)
(-0.00796497 0.0376643 0.00335411)
(-0.00701337 0.0333224 0.00577375)
(-0.00638316 0.0287508 0.00850563)
(-0.00601513 0.0232558 0.0126746)
(-0.00608441 0.0151143 0.0160536)
(-0.00988642 0.00947522 0.0162684)
(-0.0134039 -0.00142229 0.00907531)
(0.0140281 0.0198511 0.00571549)
(0.0276674 0.0240152 0.00823414)
(0.0118635 0.00860177 0.00293219)
(0.0198593 0.0163569 0.00562512)
(0.0122633 0.00313893 0.00300044)
(0.0149161 0.00785983 0.0026241)
(0.00889002 0.000260674 0.0010587)
(0.00763662 0.00364426 0.00077787)
(0.00299331 -0.000338147 0.0011496)
(0.00181437 0.00148804 0.00199747)
(0.000505409 -0.00069255 0.00225121)
(0.000114922 0.000248014 0.00301709)
(-0.000611112 -9.04987e-05 0.00339626)
(-0.000410826 0.000850896 0.00396368)
(-0.000565442 0.000696453 0.0041868)
(-0.000554037 0.00101424 0.00440913)
(-0.000861795 0.000851897 0.00442544)
(-0.00102654 0.000964832 0.0044541)
(-0.00128084 0.00086265 0.00440766)
(-0.00143231 0.000892479 0.00438237)
(-0.00158555 0.000837023 0.00433439)
(-0.00168763 0.000837707 0.0042997)
(-0.00177167 0.000816085 0.00426297)
(-0.00182791 0.000814927 0.00423539)
(-0.00186772 0.000810645 0.00421074)
(-0.00189366 0.000812004 0.00419191)
(-0.0019091 0.000814262 0.00417688)
(-0.00191326 0.000817146 0.00416686)
(-0.00190847 0.000820654 0.00416114)
(-0.0018943 0.000818085 0.00416047)
(-0.00187188 0.000834521 0.00416553)
(-0.00184617 0.000818163 0.00417329)
(-0.0017984 0.000894363 0.00418646)
(-0.00177203 0.00084113 0.00419574)
(-0.00167868 0.00106285 0.00421076)
(-0.00165075 0.000920935 0.00421154)
(-0.00147859 0.00137297 0.0042144)
(-0.00144363 0.00101651 0.00418186)
(-0.00117797 0.00172867 0.00413977)
(-0.00116156 0.000953726 0.00403291)
(-0.000829799 0.00198274 0.00391925)
(-0.000836908 0.000657841 0.00374766)
(-0.000360684 0.00219205 0.00367139)
(-0.00040442 -2.10678e-05 0.00359359)
(-0.00017061 0.00166404 0.00347356)
(-0.000419352 -0.00140115 0.00313215)
(0.000682358 0.00101754 0.00337073)
(0.0028326 -0.00564619 0.00533643)
(0.00969741 -0.00824939 0.00637286)
(0.021185 -0.0127324 0.00971361)
(0.0266691 0.00588847 0.0195458)
(0.0280487 0.0153188 0.0297985)
(0.0299243 0.0427222 0.0407259)
(0.0257563 0.0410018 0.0503555)
(0.030124 0.0773983 0.0674869)
(0.0256267 0.00194892 0.0683804)
(0.0403601 0.115717 0.085248)
(0.0287068 -0.154132 0.0653412)
(0.00228383 0.334798 0.0566694)
(0.00778362 -0.302525 0.0326915)
(0.0138153 -0.115722 0.115978)
(-0.0133434 0.118511 0.0134931)
(-0.0158563 0.0603357 0.00998187)
(-0.0209819 0.134069 -0.00264955)
(-0.0137201 0.122797 0.0122413)
(-0.0076206 0.138451 0.0130974)
(-0.00188851 0.128892 0.0134823)
(0.00393911 0.135658 0.0116843)
(0.00866179 0.1313 0.0120837)
(0.012306 0.135976 0.0118466)
(0.0163021 0.133499 0.0125891)
(0.0187921 0.136734 0.0124845)
(0.0210556 0.134453 0.0138181)
(0.0204312 0.133001 0.0136301)
(0.019712 0.127651 0.014884)
(0.0168376 0.122413 0.0144927)
(0.0140615 0.116486 0.0142586)
(0.0099521 0.109856 0.0130762)
(0.00613974 0.103918 0.012479)
(0.00226842 0.0978713 0.0132533)
(-0.000530982 0.0914797 0.0144417)
(-0.00356216 0.083784 0.0139301)
(-0.00591847 0.0758837 0.0103723)
(-0.00884823 0.0695143 0.00470426)
(-0.0113015 0.0650922 -0.000981165)
(-0.0122728 0.0600037 -0.00529636)
(-0.0119028 0.0569097 -0.00731604)
(-0.0101062 0.0539811 -0.006711)
(-0.00756691 0.0496372 -0.0051345)
(-0.00541491 0.0455832 -0.00208605)
(-0.00480647 0.0398237 -3.52149e-05)
(-0.00532215 0.0348167 0.00222849)
(-0.00555174 0.0282635 0.0050587)
(-0.00697935 0.0198799 0.00789898)
(-0.00979177 0.0122872 0.00997598)
(-0.0170992 -0.00299655 0.0017901)
(0.00892099 0.0145353 0.0039959)
(0.0260802 0.027701 0.00878656)
(0.00721528 0.00696112 0.00378824)
(0.016569 0.0187899 0.00753948)
(0.0092664 0.00233198 0.00512824)
(0.0123959 0.00851745 0.00493022)
(0.00674767 -0.000818566 0.00328015)
(0.00638296 0.00346984 0.00235167)
(0.00194933 -0.00112377 0.00222848)
(0.00063589 0.00130065 0.00281945)
(-0.000944143 -0.00130828 0.00316058)
(-0.00143121 -0.000117589 0.00382882)
(-0.0021824 -0.000839149 0.00431551)
(-0.00189574 0.00010773 0.00498268)
(-0.0020341 -0.000144473 0.00540858)
(-0.00203585 0.000457356 0.00572224)
(-0.00235097 0.000419322 0.00582956)
(-0.00244383 0.000773889 0.00590984)
(-0.00263069 0.000795268 0.005899)
(-0.00269834 0.000963349 0.0058975)
(-0.00277924 0.000991022 0.00586968)
(-0.00280973 0.00106374 0.00585618)
(-0.00283 0.00108834 0.00583897)
(-0.00282448 0.00112185 0.00583428)
(-0.00280616 0.0011428 0.00583387)
(-0.00277635 0.00116403 0.00584071)
(-0.00273925 0.00118183 0.00585186)
(-0.00269539 0.0011979 0.00586751)
(-0.00264869 0.00121321 0.00588594)
(-0.00259691 0.00122385 0.00590871)
(-0.00254213 0.00125213 0.00593504)
(-0.00248592 0.0012602 0.00596432)
(-0.00241 0.00135552 0.00599973)
(-0.00235302 0.00134905 0.00603396)
(-0.00222826 0.00158799 0.00607792)
(-0.00216144 0.00150479 0.00611269)
(-0.0019384 0.0019557 0.00615705)
(-0.00184373 0.00165475 0.00616957)
(-0.00149379 0.00233479 0.00617033)
(-0.00141873 0.001606 0.00607591)
(-0.00106325 0.00256677 0.00591104)
(-0.00120854 0.00125005 0.00557475)
(-0.000971073 0.00263082 0.00524129)
(-0.00126656 0.000382542 0.00488868)
(-0.00129049 0.00187029 0.00459847)
(-0.00157699 -0.00176336 0.00412882)
(0.000518315 -0.00110242 0.00409928)
(0.00414362 -0.00884118 0.00510407)
(0.00779392 -0.00751546 0.00639561)
(0.00429597 0.00322863 0.0158782)
(-0.000754345 0.0310696 0.0276018)
(-0.00178561 0.0491939 0.034717)
(0.00280466 0.0789069 0.0413613)
(0.00886385 0.0905609 0.0506928)
(0.0231504 0.118194 0.0684552)
(0.0355243 0.081818 0.0778723)
(0.0703803 0.154367 0.103125)
(0.043789 -0.076571 0.0937828)
(0.0180167 0.346464 0.0367315)
(-0.009687 -0.316229 0.0290396)
(-0.0583818 -0.0883434 0.0844089)
(-0.0446601 0.151322 -0.00728505)
(-0.0448667 0.0900537 0.00615645)
(-0.0337488 0.152536 -0.00299701)
(-0.0250972 0.128071 0.0114143)
(-0.00981468 0.137835 0.00967841)
(-0.00324839 0.127693 0.00898137)
(0.0038698 0.135035 0.00703029)
(0.00917426 0.135452 0.00724503)
(0.0142243 0.142387 0.00893726)
(0.0181672 0.143352 0.0101252)
(0.0206288 0.148329 0.0109783)
(0.0229257 0.150681 0.0125765)
(0.0242503 0.154581 0.0135266)
(0.0248441 0.15407 0.0152866)
(0.0237549 0.150888 0.0167856)
(0.0215526 0.146252 0.0176481)
(0.0185401 0.140091 0.0178728)
(0.0149232 0.133331 0.0179526)
(0.0114007 0.125678 0.0179587)
(0.00808832 0.118317 0.0172508)
(0.00528415 0.111349 0.0148976)
(0.00260205 0.106259 0.0112503)
(0.000610926 0.102608 0.00659236)
(-3.35756e-05 0.0993127 0.00441423)
(-0.00197763 0.0940691 0.00259346)
(-0.00245889 0.0881763 0.001058)
(-0.000936991 0.0801282 -9.09659e-05)
(0.00111137 0.073155 -8.34934e-05)
(0.00355158 0.0665923 0.00228636)
(0.00367865 0.0603952 0.00465246)
(0.00192701 0.0546336 0.00728222)
(0.00071508 0.0475325 0.00853344)
(-0.00162343 0.0380324 0.00803348)
(-0.00523767 0.0237325 0.00161023)
(-0.0114752 0.0037143 -0.016303)
(-0.00252528 0.0110092 -0.00705203)
(0.0234849 0.0306284 0.00602305)
(0.00054836 0.00614641 0.000841345)
(0.0118229 0.0219249 0.00528583)
(0.00427067 0.00269246 0.0035717)
(0.00781552 0.010313 0.00338915)
(0.00295334 -0.000296545 0.00213729)
(0.0033818 0.00451164 0.000831571)
(-0.000341529 -0.000546776 3.95466e-05)
(-0.00163788 0.00182401 -2.05723e-05)
(-0.0036458 -0.00123418 0.000180799)
(-0.0044904 5.93385e-05 0.000603589)
(-0.00570239 -0.00121314 0.00112605)
(-0.00561246 -0.000272577 0.00172365)
(-0.00612612 -0.000565183 0.00223368)
(-0.00617909 0.000238831 0.00255382)
(-0.00659204 0.000253144 0.00276264)
(-0.00671418 0.000732196 0.0029055)
(-0.00694996 0.000804818 0.00297879)
(-0.00705448 0.00103982 0.00304068)
(-0.00717097 0.00110678 0.00307027)
(-0.00723064 0.00121256 0.00310316)
(-0.00727168 0.00126012 0.00312715)
(-0.0072863 0.00130917 0.00315814)
(-0.00728429 0.00134107 0.00319051)
(-0.0072668 0.0013704 0.00322717)
(-0.00723606 0.00139529 0.00326606)
(-0.00719162 0.00141883 0.00330719)
(-0.00713601 0.00144247 0.00334903)
(-0.00707431 0.00146366 0.00339119)
(-0.00701583 0.0014987 0.00343214)
(-0.00695894 0.00151756 0.00347322)
(-0.00689527 0.00160997 0.00351442)
(-0.00684721 0.00161493 0.00355816)
(-0.00674143 0.00183847 0.00360688)
(-0.00668458 0.00177735 0.00366067)
(-0.00646741 0.00222031 0.00370886)
(-0.00635764 0.00199798 0.00373815)
(-0.00602642 0.00274823 0.00370793)
(-0.00596865 0.00223228 0.00358524)
(-0.00564233 0.00332958 0.00332634)
(-0.0056946 0.00217058 0.0029348)
(-0.00511608 0.00328756 0.00254122)
(-0.00493792 0.000712927 0.00231475)
(-0.00423439 0.00142346 0.00195869)
(-0.00303693 -0.00282389 0.00130657)
(0.000416057 -0.00223424 0.00187724)
(0.00147958 -0.00686082 0.00131575)
(-0.00678498 0.0018917 0.00273184)
(-0.0193038 0.0124478 0.0129359)
(-0.0292723 0.0306562 0.0256474)
(-0.0300536 0.0394025 0.0330716)
(-0.025019 0.063922 0.0324694)
(-0.0151934 0.0717196 0.0347162)
(-0.00226723 0.110711 0.0505798)
(0.0230018 0.0619782 0.054872)
(0.0793053 0.14823 0.0762767)
(0.0710424 -0.04034 0.085972)
(0.098821 0.364871 0.0237573)
(-0.0172252 -0.294657 0.0226204)
(-0.111448 -0.131354 0.0743953)
(-0.063709 0.142802 -0.00571387)
(-0.0611399 0.0454307 0.00756772)
(-0.0316668 0.117395 0.000338676)
(-0.0261915 0.0675818 0.0142687)
(-0.00996807 0.081895 0.0101717)
(-0.00494619 0.0657082 0.00915003)
(0.000882689 0.0715915 0.00678341)
(0.00371549 0.0678822 0.00499845)
(0.00899278 0.0722604 0.00603821)
(0.0115055 0.0693183 0.00519093)