/*--------------------------------*- C++ -*----------------------------------*\
| =========                 |                                                 |
| \\      /  F ield         | OpenFOAM: The Open Source CFD Toolbox           |
|  \\    /   O peration     | Version:  2.3.0                                 |
|   \\  /    A nd           | Web:      www.OpenFOAM.org                      |
|    \\/     M anipulation  |                                                 |
\*---------------------------------------------------------------------------*/
FoamFile
{
    version     2.0;
    format      ascii;
    class       volVectorField;
    location    "21";
    object      Ur;
}
// * * * * * * * * * * * * * * * * * * * * * * * * * * * * * * * * * * * * * //

dimensions      [0 1 -1 0 0 0 0];

internalField   nonuniform List<vector> 
6144
(
(-1.90384e-07 0.000574456 4.09807e-07)
(-2.68128e-07 0.00058835 1.20402e-07)
(-1.20095e-07 0.000603493 -4.02779e-08)
(3.80598e-08 0.000616822 -5.85731e-08)
(2.42047e-07 0.000631857 -1.647e-08)
(3.55112e-07 0.000650197 -6.31808e-10)
(4.60464e-07 0.00067204 1.87384e-08)
(4.91381e-07 0.00069182 3.08638e-08)
(4.42334e-07 0.000702792 3.26756e-08)
(3.92621e-07 0.000705559 1.19319e-08)
(3.1755e-07 0.000704946 7.0173e-09)
(2.42116e-07 0.000703605 7.20957e-10)
(1.69889e-07 0.000702277 4.23243e-09)
(1.05497e-07 0.000701086 3.71059e-09)
(5.68496e-08 0.000700031 5.42946e-09)
(8.92051e-09 0.000699144 -4.65909e-10)
(-2.14951e-08 0.000698456 -4.95393e-09)
(-5.53189e-08 0.000697917 -1.13074e-08)
(-7.67563e-08 0.000697503 -1.51426e-08)
(-1.0219e-07 0.000697188 -2.02405e-08)
(-1.15886e-07 0.000696959 -2.12831e-08)
(-1.36396e-07 0.000696803 -2.44134e-08)
(-1.45459e-07 0.000696708 -2.3425e-08)
(-1.6372e-07 0.000696667 -2.60587e-08)
(-1.6965e-07 0.000696675 -2.38098e-08)
(-1.87229e-07 0.000696725 -2.68181e-08)
(-1.91071e-07 0.000696819 -2.42918e-08)
(-2.09065e-07 0.000696952 -2.83175e-08)
(-2.1109e-07 0.000697129 -2.61009e-08)
(-2.29784e-07 0.000697347 -3.17895e-08)
(-2.30047e-07 0.000697617 -3.04603e-08)
(-2.49657e-07 0.000697937 -3.84681e-08)
(-2.47313e-07 0.000698321 -3.80844e-08)
(-2.66583e-07 0.000698774 -4.88374e-08)
(-2.59415e-07 0.000699309 -5.03953e-08)
(-2.74973e-07 0.000699929 -6.64625e-08)
(-2.57511e-07 0.000700648 -7.3693e-08)
(-2.62248e-07 0.000701463 -1.00634e-07)
(-2.24774e-07 0.000702381 -1.20607e-07)
(-2.05538e-07 0.000703394 -1.6465e-07)
(-1.28777e-07 0.000704505 -2.04068e-07)
(-5.70705e-08 0.000705685 -2.76674e-07)
(9.69534e-08 0.000706918 -3.28124e-07)
(2.68777e-07 0.000707784 -3.39548e-07)
(5.31419e-07 0.000727456 -3.21232e-07)
(8.16559e-07 0.000847183 -4.2641e-07)
(6.07262e-07 0.00114362 -3.57746e-07)
(5.80991e-08 0.00157839 -8.36256e-07)
(-8.74707e-07 0.00212678 -2.31782e-06)
(-1.38257e-06 0.00270928 -5.96152e-06)
(-7.76585e-06 0.00302356 -9.49654e-06)
(-7.94409e-06 0.00309743 -1.14794e-05)
(-1.1068e-05 0.00334535 -2.24939e-05)
(-4.30713e-05 0.00379169 -1.92019e-05)
(-3.44719e-05 0.00412798 -2.00189e-05)
(-5.48098e-05 0.00440097 -3.31788e-05)
(-0.000121907 0.00463604 -8.27947e-05)
(1.42197e-06 0.00701432 5.37048e-05)
(-0.00114502 0.0276244 -0.00107358)
(0.0118424 0.182275 0.00338698)
(-0.0298114 0.608617 -0.0331823)
(-0.0525856 0.497109 -0.0415488)
(-0.000499993 0.0213367 -0.000380929)
(-0.000107719 0.0061977 -0.000103152)
(-7.86817e-05 0.00664321 -4.68436e-05)
(-6.09965e-05 0.00668235 -1.92808e-05)
(-4.18994e-05 0.0067314 -1.3242e-05)
(-2.60677e-05 0.00677913 -2.00108e-05)
(-1.25554e-05 0.00681206 -3.62641e-05)
(-2.00909e-05 0.00681476 -4.58079e-05)
(-3.19614e-05 0.00681833 -3.88813e-05)
(-3.00152e-05 0.00686042 -1.50288e-05)
(-3.188e-05 0.00691615 1.33386e-05)
(-3.48746e-05 0.00700133 2.39964e-05)
(-3.21643e-05 0.00708521 1.31101e-05)
(-2.96492e-05 0.00712497 -5.68996e-06)
(-1.30112e-05 0.00715694 -1.57999e-05)
(-1.46312e-05 0.00720103 -2.63098e-05)
(-2.48456e-05 0.00725452 -1.42664e-05)
(-1.51914e-05 0.007292 4.19111e-06)
(-2.69427e-05 0.00729583 9.43084e-07)
(-3.72871e-05 0.00728989 2.76602e-06)
(-3.10189e-05 0.00727245 -1.41561e-05)
(-3.67318e-05 0.00722034 -2.23091e-05)
(-3.66466e-05 0.00668208 -6.78601e-06)
(-1.60543e-06 0.00518864 6.50162e-06)
(-3.91163e-06 0.00374773 8.23409e-06)
(-4.3971e-06 0.00330316 4.18943e-06)
(-4.94847e-06 0.0033851 2.24749e-06)
(-4.17689e-06 0.00345523 3.35219e-06)
(-3.46219e-06 0.0035342 1.01134e-06)
(-5.06519e-06 0.00369702 -2.44918e-06)
(-7.43338e-06 0.00391163 -5.16044e-06)
(-9.28483e-06 0.00403397 -5.59105e-06)
(-1.10524e-05 0.00394495 -6.07501e-06)
(-8.64139e-06 0.0037469 -5.1205e-06)
(-4.31544e-07 0.000530524 1.32999e-06)
(-3.39832e-07 0.000558545 3.57819e-07)
(1.23069e-07 0.000590424 -9.64329e-09)
(5.44236e-07 0.000615146 -1.02695e-07)
(9.32144e-07 0.000637931 -3.49629e-08)
(1.14457e-06 0.000660879 8.81063e-09)
(1.29577e-06 0.000683912 3.61415e-08)
(1.29065e-06 0.000699271 2.59852e-08)
(1.17965e-06 0.000704572 4.03268e-08)
(1.00466e-06 0.000705507 1.59106e-08)
(7.98026e-07 0.000704832 1.96469e-08)
(5.83287e-07 0.000703522 2.94142e-08)
(3.96259e-07 0.000702336 3.91647e-08)
(2.25144e-07 0.000701256 4.47205e-08)
(1.00024e-07 0.000700248 3.86965e-08)
(-1.48067e-08 0.000699406 3.43295e-08)
(-9.66173e-08 0.000698731 2.11104e-08)
(-1.76222e-07 0.0006982 1.6697e-08)
(-2.40629e-07 0.000697785 8.18547e-09)
(-3.01401e-07 0.000697473 8.55133e-09)
(-3.49008e-07 0.000697246 1.44818e-09)
(-3.96448e-07 0.000697094 4.90928e-09)
(-4.33998e-07 0.000697004 -1.44207e-09)
(-4.74252e-07 0.00069697 3.8994e-09)
(-5.05315e-07 0.000696985 -2.69251e-09)
(-5.41743e-07 0.000697043 4.01615e-09)
(-5.68923e-07 0.000697143 -3.48867e-09)
(-6.03454e-07 0.000697284 4.27574e-09)
(-6.27403e-07 0.000697468 -5.09707e-09)
(-6.60796e-07 0.000697695 3.60919e-09)
(-6.82225e-07 0.000697968 -7.17091e-09)
(-7.13032e-07 0.000698296 2.41145e-09)
(-7.27735e-07 0.000698687 -1.02661e-08)
(-7.50641e-07 0.000699148 5.06178e-10)
(-7.50877e-07 0.000699687 -1.42335e-08)
(-7.5419e-07 0.000700314 -3.58111e-09)
(-7.22583e-07 0.000701034 -2.3384e-08)
(-6.81365e-07 0.000701854 -1.73581e-08)
(-5.83773e-07 0.000702773 -5.01009e-08)
(-4.55263e-07 0.000703787 -6.21931e-08)
(-2.33629e-07 0.000704894 -1.26226e-07)
(4.74368e-08 0.000706075 -1.72825e-07)
(4.75222e-07 0.000707288 -2.30918e-07)
(1.11011e-06 0.000709204 -1.90801e-07)
(2.09839e-06 0.000732276 -1.24442e-07)
(3.44166e-06 0.000847554 8.52551e-08)
(4.75717e-06 0.00114837 1.11268e-07)
(5.80113e-06 0.00164763 -1.21407e-06)
(4.06508e-06 0.00220138 -5.74034e-06)
(-5.66122e-07 0.00259132 -1.05845e-05)
(-4.76129e-06 0.00275794 -1.10906e-05)
(1.04445e-05 0.00294663 -1.68068e-05)
(7.29858e-06 0.00346588 -2.71928e-05)
(-2.33809e-05 0.00404732 -7.75937e-06)
(-5.91035e-05 0.00434717 -2.17948e-05)
(-0.000129935 0.00446374 -3.14848e-05)
(-0.000400693 0.00500178 -0.00013174)
(-2.04452e-05 0.0065963 0.000117228)
(-0.000684848 0.0205926 -0.000807551)
(0.0251183 0.16695 0.0138877)
(-0.0428064 0.611062 -0.0326483)
(-0.0593022 0.436007 -0.0449983)
(-0.000522168 0.0221801 -0.000438495)
(-0.000102744 0.00640089 -4.50967e-08)
(-0.000130341 0.00663152 -1.60426e-05)
(-9.36877e-05 0.00666098 -2.80502e-05)
(-5.50193e-05 0.0067033 -2.25319e-05)
(-2.71564e-05 0.00672684 -2.21623e-05)
(-1.54005e-05 0.00670474 -3.23168e-05)
(-2.27014e-05 0.00663936 -3.10412e-05)
(-3.59308e-05 0.0065952 -1.92211e-05)
(-3.41968e-05 0.00662301 -1.00868e-05)
(-2.25378e-05 0.00671613 1.01487e-05)
(-1.47917e-05 0.00685506 2.01016e-05)
(-3.19839e-07 0.00698644 1.27997e-05)
(-2.85867e-06 0.0070293 -1.63663e-05)
(-9.2585e-06 0.0070463 -4.5727e-05)
(-9.17927e-06 0.00708756 -3.32436e-05)
(-7.67754e-06 0.00714559 -8.73916e-06)
(-1.84744e-05 0.00718871 -1.11669e-06)
(-2.6048e-05 0.00720386 1.4852e-05)
(-4.38064e-05 0.00721124 1.72386e-05)
(-5.67077e-05 0.00720926 -4.78939e-06)
(-5.7268e-05 0.00715157 -4.02629e-07)
(-5.52193e-05 0.00642649 4.99447e-06)
(-3.70163e-05 0.0048205 -1.56498e-06)
(-2.09556e-05 0.00359796 7.73185e-07)
(-1.79549e-05 0.0032906 -4.18029e-06)
(-1.76256e-05 0.00333538 1.4375e-09)
(-1.87318e-05 0.00373897 3.16278e-06)
(-1.86307e-05 0.00470052 -6.57169e-08)
(-1.73214e-05 0.00579683 -4.8625e-06)
(-1.70004e-05 0.00646677 -1.16351e-05)
(-1.86677e-05 0.00656211 -1.3454e-05)
(-2.02451e-05 0.00614613 -1.39299e-05)
(-1.65415e-05 0.00561107 -7.68252e-06)
(-3.3386e-07 0.000481769 -1.37184e-07)
(1.25037e-07 0.000513372 -2.5317e-07)
(6.73368e-07 0.000548502 -8.04748e-08)
(1.23065e-06 0.000579282 7.44421e-08)
(1.67762e-06 0.000610823 1.25873e-07)
(1.8896e-06 0.000642575 1.56381e-07)
(1.97606e-06 0.000673187 1.61014e-07)
(1.88349e-06 0.000692228 1.15697e-07)
(1.64217e-06 0.000698135 1.07703e-07)
(1.34018e-06 0.000699909 9.39859e-08)
(1.00348e-06 0.000701004 9.39754e-08)
(6.33967e-07 0.00070151 8.7058e-08)
(3.46857e-07 0.000701458 9.37253e-08)
(7.7242e-08 0.00070085 9.29132e-08)
(-1.15336e-07 0.000700031 9.292e-08)
(-2.89685e-07 0.000699258 8.52994e-08)
(-4.11547e-07 0.000698616 8.02666e-08)
(-5.30241e-07 0.000698107 7.32085e-08)
(-6.19593e-07 0.000697714 6.91196e-08)
(-7.08294e-07 0.000697419 6.47155e-08)
(-7.78337e-07 0.000697205 6.31661e-08)
(-8.51605e-07 0.00069706 6.07892e-08)
(-9.11367e-07 0.000696977 6.09738e-08)
(-9.76147e-07 0.000696946 6.0284e-08)
(-1.029e-06 0.000696963 6.14884e-08)
(-1.08949e-06 0.000697022 6.12047e-08)
(-1.13751e-06 0.000697122 6.27877e-08)
(-1.19469e-06 0.000697263 6.24803e-08)
(-1.2378e-06 0.000697448 6.38682e-08)
(-1.29116e-06 0.000697677 6.27108e-08)
(-1.32761e-06 0.000697957 6.28585e-08)
(-1.37343e-06 0.000698292 6.00232e-08)
(-1.39633e-06 0.000698691 5.82567e-08)
(-1.42368e-06 0.00069916 5.27913e-08)
(-1.41599e-06 0.000699708 4.8115e-08)
(-1.40109e-06 0.000700346 3.93247e-08)
(-1.33131e-06 0.000701082 3.10563e-08)
(-1.2321e-06 0.000701922 1.82131e-08)
(-1.04856e-06 0.000702875 5.45955e-09)
(-8.02348e-07 0.000703947 -1.32596e-08)
(-4.32493e-07 0.000705133 -3.79075e-08)
(5.66984e-08 0.000706433 -6.91911e-08)
(7.48966e-07 0.000707951 -8.71059e-08)
(1.74582e-06 0.000713106 -6.62885e-08)
(3.25504e-06 0.00073806 3.82135e-08)
(5.35751e-06 0.000828632 2.25235e-07)
(8.10798e-06 0.0010745 -9.38117e-08)
(1.02363e-05 0.00148911 -2.77227e-06)
(8.59669e-06 0.001908 -7.53424e-06)
(-1.26291e-07 0.00220492 -7.68515e-06)
(5.76466e-06 0.00256498 -3.36101e-06)
(2.47396e-05 0.00317755 -1.66853e-05)
(3.78044e-05 0.00384581 -3.85423e-05)
(3.30481e-05 0.00419199 -2.01149e-05)
(-2.68759e-05 0.00429508 4.14549e-06)
(5.43095e-05 0.00421996 8.25645e-06)
(-0.000508707 0.00520774 -0.00014235)
(-0.000161953 0.00713098 -0.000131752)
(-0.000541123 0.0199744 -0.000690761)
(0.0357826 0.172069 0.025974)
(-0.0143391 0.612157 -0.0258621)
(-0.0336605 0.419161 -0.0366038)
(-0.000860039 0.024214 -0.00137031)
(-0.000478568 0.00788351 -0.000565206)
(-0.000411704 0.00727529 -5.43868e-05)
(-0.000178991 0.00701712 5.32014e-06)
(-7.85579e-05 0.00705511 -7.36877e-07)
(-1.63846e-05 0.00708195 -1.76873e-05)
(2.77157e-05 0.0071071 -2.30747e-05)
(8.83644e-05 0.00708739 -1.00457e-05)
(0.000235807 0.00685177 1.40173e-05)
(6.08746e-05 0.00657808 3.05982e-05)
(6.17718e-05 0.00663575 4.20554e-05)
(1.02187e-05 0.00665717 3.12337e-05)
(-0.00028555 0.00664297 -7.77966e-06)
(-4.86391e-05 0.00666407 -3.50311e-05)
(-5.1613e-05 0.00672441 -6.59339e-05)
(-2.63151e-05 0.0068242 -5.36006e-05)
(-1.15282e-05 0.00695106 -3.72175e-05)
(-9.41877e-06 0.00704089 -2.21627e-05)
(-1.37283e-05 0.0070995 1.62311e-06)
(-1.94113e-05 0.00713256 1.53622e-05)
(-1.74637e-05 0.00696266 1.11808e-05)
(-4.18374e-05 0.00626963 7.67665e-06)
(-5.03982e-05 0.00501481 7.62354e-06)
(-6.04754e-05 0.00385347 3.59598e-06)
(-7.0264e-05 0.00346748 -1.25397e-05)
(-3.45684e-05 0.0038086 -1.33699e-05)
(-4.16116e-05 0.00485898 -4.19353e-06)
(-4.05213e-05 0.00626118 4.83418e-06)
(-3.29432e-05 0.00737052 -6.13608e-07)
(-2.49103e-05 0.00793589 -1.3327e-05)
(-1.96298e-05 0.00802226 -2.04679e-05)
(-1.69651e-05 0.00774123 -1.64728e-05)
(-1.58589e-05 0.00720339 -1.49857e-05)
(-1.23259e-05 0.00668561 -1.05764e-05)
(2.2884e-07 0.000447062 4.19165e-08)
(9.42124e-07 0.000481826 -9.16869e-08)
(1.22624e-06 0.00051993 -9.71918e-08)
(1.84725e-06 0.000550288 1.23964e-07)
(2.33551e-06 0.0005818 2.63394e-07)
(2.62522e-06 0.000618976 3.12578e-07)
(2.71795e-06 0.000658647 2.45411e-07)
(2.48716e-06 0.000687016 1.42479e-07)
(2.07605e-06 0.000697393 1.348e-07)
(1.62881e-06 0.000698591 1.23075e-07)
(1.13464e-06 0.000698929 1.31469e-07)
(6.47985e-07 0.000700042 1.25682e-07)
(2.44696e-07 0.000700665 1.20148e-07)
(-1.03193e-07 0.000700312 1.19267e-07)
(-3.76486e-07 0.000699588 1.07746e-07)
(-6.05681e-07 0.000698862 1.02603e-07)
(-7.84564e-07 0.000698257 9.12935e-08)
(-9.41021e-07 0.000697774 9.18561e-08)
(-1.07013e-06 0.000697405 8.23483e-08)
(-1.18216e-06 0.000697122 8.65361e-08)
(-1.28601e-06 0.000696914 7.67405e-08)
(-1.37542e-06 0.000696773 8.2869e-08)
(-1.4655e-06 0.000696686 7.2977e-08)
(-1.54503e-06 0.000696652 8.07157e-08)
(-1.62967e-06 0.000696663 7.04891e-08)
(-1.70437e-06 0.000696718 7.99927e-08)
(-1.7859e-06 0.000696813 6.8706e-08)
(-1.85634e-06 0.000696951 7.9676e-08)
(-1.93386e-06 0.000697133 6.67672e-08)
(-1.99766e-06 0.000697365 7.86587e-08)
(-2.06677e-06 0.000697648 6.27872e-08)
(-2.11691e-06 0.000697995 7.44142e-08)
(-2.167e-06 0.000698408 5.40281e-08)
(-2.18659e-06 0.000698902 6.35867e-08)
(-2.19272e-06 0.000699483 3.72216e-08)
(-2.14942e-06 0.000700167 4.49259e-08)
(-2.07239e-06 0.000700962 1.48239e-08)
(-1.91948e-06 0.000701885 2.38613e-08)
(-1.70167e-06 0.000702943 -6.30571e-09)
(-1.36933e-06 0.000704143 3.72744e-09)
(-9.27603e-07 0.000705493 -2.93024e-08)
(-3.17477e-07 0.000706953 -2.42248e-08)
(4.68756e-07 0.000708943 -5.08876e-08)
(1.55343e-06 0.000715159 -1.91202e-08)
(3.03465e-06 0.000737568 -7.88157e-10)
(5.06452e-06 0.000802638 4.23092e-08)
(7.50947e-06 0.000960175 -2.00399e-07)
(8.93293e-06 0.00123476 -1.23284e-06)
(8.48192e-06 0.00156707 -2.51415e-06)
(5.28076e-06 0.00198154 -2.3153e-06)
(1.83618e-05 0.00270582 -8.4727e-06)
(5.59125e-05 0.00358708 -4.04541e-05)
(8.1004e-05 0.00407526 -6.14776e-05)
(7.59578e-05 0.00418873 -5.89267e-05)
(0.000141052 0.00423918 -2.90911e-05)
(0.000203998 0.00397233 3.0886e-05)
(-0.000220359 0.00515989 0.000225485)
(0.000112115 0.00810141 7.72928e-07)
(-0.0010406 0.0196124 -0.000512994)
(0.0327446 0.200083 0.0271595)
(-0.0207198 0.660039 -0.0270851)
(-0.0295471 0.519359 -0.0169859)
(-0.025915 0.544736 -0.0107532)
(-0.0207919 0.538482 -0.00725637)
(-0.0107097 0.543599 -0.00557969)
(-0.00459689 0.546137 -0.00212904)
(0.0042296 0.54882 0.00486342)
(0.00609259 0.546761 0.00495568)
(0.00432038 0.539284 0.00421426)
(0.0015715 0.518446 0.00620296)
(-0.00119027 0.404231 0.0047952)
(0.000136698 0.0303204 -7.83962e-05)
(0.000104778 0.0318468 1.16661e-05)
(-0.000669527 0.181703 -0.000655192)
(-0.0012512 0.240579 -0.00180574)
(-3.34077e-05 0.030573 -0.00035566)
(-1.90455e-05 0.00713613 -0.000558642)
(6.89297e-05 0.00578045 -0.000506043)
(7.57467e-05 0.00466116 -0.000379482)
(9.12575e-05 0.00389166 -0.000254567)
(0.000102746 0.00358208 -0.000159984)
(3.78603e-05 0.00363601 -8.64419e-05)
(-5.50704e-06 0.00356112 -0.000153117)
(-2.28972e-05 0.00344173 1.78989e-05)
(-0.000153434 0.00465561 5.44235e-05)
(-0.000197927 0.00788833 -0.000227981)
(-0.000331647 0.0148727 -0.000313504)
(-0.000423457 0.00625661 -0.000320871)
(-0.000305994 0.00609657 -0.00018327)
(-0.000193522 0.00744416 -8.55751e-05)
(-0.00013648 0.00856304 -0.000238263)
(-7.98096e-05 0.00949738 -0.000325561)
(-3.73704e-05 0.00947925 -2.79724e-05)
(-3.30957e-05 0.0086077 -2.70754e-05)
(-5.93989e-06 0.00794459 -1.88832e-05)
(-4.53236e-06 0.0078072 -1.86607e-05)
(5.05918e-07 0.000412163 3.05565e-08)
(1.61059e-06 0.000449557 -6.90501e-08)
(1.72096e-06 0.000496343 -2.05843e-07)
(2.48808e-06 0.00052898 -6.6166e-08)
(2.9645e-06 0.000555188 1.89935e-07)
(3.25335e-06 0.000590342 3.50272e-07)
(3.34999e-06 0.000631076 2.95508e-07)
(2.88685e-06 0.000666563 2.02215e-07)
(2.45298e-06 0.000691341 1.30471e-07)
(1.8734e-06 0.00069902 1.16994e-07)
(1.24625e-06 0.000698159 1.40995e-07)
(6.73635e-07 0.000699039 1.16343e-07)
(1.77116e-07 0.000700135 1.27445e-07)
(-2.46082e-07 0.000700018 1.1629e-07)
(-5.86841e-07 0.000699399 1.14648e-07)
(-8.79544e-07 0.000698739 9.35793e-08)
(-1.11041e-06 0.000698201 9.21765e-08)
(-1.31834e-06 0.000697778 7.86645e-08)
(-1.48026e-06 0.000697452 8.31103e-08)
(-1.63052e-06 0.000697206 7.21081e-08)
(-1.75222e-06 0.000697028 7.81799e-08)
(-1.86842e-06 0.000696907 6.48191e-08)
(-1.96902e-06 0.000696838 7.02731e-08)
(-2.07271e-06 0.000696812 5.69295e-08)
(-2.16608e-06 0.00069683 6.43642e-08)
(-2.26561e-06 0.000696886 5.07357e-08)
(-2.35605e-06 0.000696985 5.99944e-08)
(-2.4533e-06 0.000697123 4.50093e-08)
(-2.53944e-06 0.000697307 5.53311e-08)
(-2.63003e-06 0.000697537 3.82561e-08)
(-2.70254e-06 0.000697824 4.87947e-08)
(-2.77372e-06 0.000698172 2.74137e-08)
(-2.81779e-06 0.000698595 3.51063e-08)
(-2.84755e-06 0.0006991 6.61574e-09)
(-2.83216e-06 0.000699705 9.70149e-09)
(-2.7845e-06 0.00070042 -2.45309e-08)
(-2.67104e-06 0.00070126 -2.29288e-08)
(-2.49785e-06 0.000702233 -5.87648e-08)
(-2.22923e-06 0.000703349 -5.67674e-08)
(-1.86754e-06 0.00070462 -9.55163e-08)
(-1.38772e-06 0.000706061 -9.87929e-08)
(-7.9474e-07 0.000707723 -1.43239e-07)
(-2.56021e-08 0.000710057 -1.51471e-07)
(9.62603e-07 0.000715678 -2.07792e-07)
(2.16811e-06 0.000732703 -2.36876e-07)
(3.68953e-06 0.000781196 -4.00956e-07)
(5.39878e-06 0.000891395 -7.07751e-07)
(6.2334e-06 0.00107331 -6.6883e-07)
(6.89557e-06 0.00135027 -2.5581e-07)
(9.76314e-06 0.00198701 -2.68939e-06)
(3.96736e-05 0.00308688 -2.5328e-05)
(8.12419e-05 0.00389885 -7.00634e-05)
(8.01509e-05 0.00414141 -7.9464e-05)
(0.000101085 0.00411243 -7.86771e-05)
(0.000248681 0.00412032 -9.40547e-05)
(0.000232703 0.00380067 -9.51816e-05)
(0.000332802 0.00571364 0.000540706)
(0.000310565 0.00922146 0.000615843)
(-0.00130771 0.0188972 -0.000362071)
(0.026172 0.226187 0.0136145)
(0.000965415 0.671672 -0.00727611)
(-0.00450974 0.536812 -0.00142607)
(-0.0148782 0.540979 -0.00667912)
(-0.013191 0.525566 -0.0108525)
(-0.0115811 0.53627 -0.00747257)
(-0.00234769 0.54409 -0.00357553)
(0.00192545 0.539564 -0.00303603)
(0.0051296 0.543743 -0.00468742)
(0.00247204 0.546585 0.00085962)
(3.84608e-05 0.535484 0.00475465)
(-0.0045113 0.53686 0.00933201)
(-0.00796923 0.535826 0.00817847)
(-0.0113772 0.530345 0.00392814)
(-0.0129795 0.527576 0.00208404)
(-0.0128096 0.526492 -0.00403782)
(-0.0122149 0.525889 -0.0134298)
(-0.0108458 0.531483 -0.0150657)
(-0.00747866 0.534548 -0.00796568)
(-0.00617665 0.538438 0.00125168)
(-0.00811438 0.548201 0.0122835)
(-0.0068928 0.54283 0.0110524)
(0.00240328 0.520929 -0.00129227)
(0.00863128 0.514634 -0.00777523)
(0.0124692 0.51769 -0.0101018)
(0.014504 0.526472 -0.0118538)
(0.0152974 0.544281 -0.00109415)
(0.00927262 0.545479 0.00881663)
(0.00913942 0.5407 0.00649486)
(0.00600531 0.541233 0.00368366)
(0.00468861 0.535996 0.00171341)
(0.003043 0.530502 -7.71887e-05)
(0.00280435 0.513786 -0.000824457)
(0.000445271 0.458337 -0.00219501)
(-0.000345363 0.277881 -0.00160536)
(-2.37378e-05 0.0317632 -0.000240765)
(-1.66204e-05 0.0114053 -0.000253205)
(8.68026e-07 0.000384566 -4.1752e-08)
(2.53921e-06 0.00041707 -1.03788e-07)
(2.567e-06 0.000471488 -2.26802e-07)
(3.39539e-06 0.000511794 -3.29225e-07)
(3.62907e-06 0.000534979 -8.55873e-08)
(3.76249e-06 0.000563252 1.12464e-07)
(3.68468e-06 0.000601735 2.95772e-07)
(3.28694e-06 0.000642441 2.73853e-07)
(2.70159e-06 0.000676061 1.38175e-07)
(2.04324e-06 0.000692885 7.86976e-08)
(1.30688e-06 0.000695935 1.08827e-07)
(6.95428e-07 0.000697385 8.72635e-08)
(1.04754e-07 0.000699053 9.41782e-08)
(-3.75969e-07 0.000699177 1.08876e-07)
(-7.90643e-07 0.000698656 1.03706e-07)
(-1.12896e-06 0.000698061 1.0563e-07)
(-1.40888e-06 0.000697569 8.76337e-08)
(-1.64531e-06 0.000697175 9.02227e-08)
(-1.83957e-06 0.000696882 7.60097e-08)
(-2.00524e-06 0.000696667 8.0654e-08)
(-2.14675e-06 0.000696517 6.43716e-08)
(-2.27042e-06 0.00069642 6.66223e-08)
(-2.38558e-06 0.000696366 4.81354e-08)
(-2.49072e-06 0.000696355 5.24296e-08)
(-2.59555e-06 0.000696382 3.44505e-08)
(-2.69491e-06 0.000696451 4.09271e-08)
(-2.79668e-06 0.000696557 2.24569e-08)
(-2.89316e-06 0.000696708 3.00989e-08)
(-2.98967e-06 0.000696902 1.00475e-08)
(-3.07599e-06 0.00069715 1.81987e-08)
(-3.15538e-06 0.000697454 -5.53886e-09)
(-3.21536e-06 0.000697827 7.55068e-10)
(-3.25696e-06 0.000698277 -2.88882e-08)
(-3.26599e-06 0.000698822 -2.94411e-08)
(-3.23884e-06 0.00069947 -6.93964e-08)
(-3.15881e-06 0.000700244 -7.77794e-08)
(-3.01762e-06 0.000701164 -1.25648e-07)
(-2.7984e-06 0.00070224 -1.43484e-07)
(-2.49202e-06 0.000703478 -2.02199e-07)
(-2.09676e-06 0.000704885 -2.43775e-07)
(-1.60929e-06 0.000706469 -3.2889e-07)
(-1.03937e-06 0.000708289 -3.94595e-07)
(-3.53023e-07 0.00071099 -4.90304e-07)
(4.6948e-07 0.000716817 -5.8232e-07)
(1.42312e-06 0.00073176 -7.09796e-07)
(2.50727e-06 0.000772815 -9.34102e-07)
(3.60391e-06 0.000864168 -1.12436e-06)
(4.39982e-06 0.0010072 -1.1891e-06)
(6.66498e-06 0.00131556 -1.00957e-06)
(1.51077e-05 0.00218583 -1.07155e-05)
(7.0892e-05 0.00345625 -4.08156e-05)
(5.33767e-05 0.00405136 -8.47028e-05)
(4.10642e-05 0.00409745 -8.16787e-05)
(9.78881e-05 0.00407608 -7.68535e-05)
(0.000153342 0.00409732 -6.73822e-05)
(0.000122469 0.00387706 -1.94388e-05)
(0.000868681 0.00580498 0.000348878)
(0.00100633 0.00860694 0.00122528)
(-0.000823584 0.0191252 0.000472497)
(0.0254196 0.246218 0.00185536)
(-0.0122911 0.694553 -0.00119825)
(0.0141242 0.534967 0.0130855)
(0.00254727 0.549546 0.00499797)
(0.000747546 0.542659 0.00158756)
(0.000369724 0.538955 -0.0011327)
(0.000406172 0.535552 -0.0030436)
(0.00221634 0.534261 -0.00604344)
(0.000479553 0.5357 -0.00597258)
(-0.00237619 0.53441 -0.00236305)
(-0.00562258 0.532955 -0.00123964)
(-0.00830786 0.532276 -0.00241463)
(-0.00849958 0.533867 -0.00241081)
(-0.00910585 0.535917 -0.00174064)
(-0.0114392 0.535761 -0.00159796)
(-0.0125389 0.537921 -0.00187189)
(-0.00968912 0.54405 -0.00143253)
(-0.00635285 0.550452 -0.00071004)
(-0.00593642 0.555675 0.00264635)
(-0.00434913 0.566603 0.00667665)
(0.00254412 0.564253 -0.000864555)
(0.00569368 0.550462 -0.00720817)
(0.00895512 0.539116 -0.016217)
(0.0124548 0.550022 -0.019658)
(0.0155018 0.554021 -0.0134211)
(0.0126809 0.55651 0.00659712)
(0.00632669 0.548841 0.0150952)
(0.00484597 0.543052 0.0074989)
(0.00511422 0.541172 0.00537726)
(0.00473445 0.538973 0.00143801)
(0.00112302 0.537744 -0.000294583)
(-0.00109234 0.535635 0.00141169)
(-0.00024309 0.535366 -0.000748416)
(-0.00314715 0.53491 -0.00571482)
(-0.00203131 0.536226 -0.00742616)
(0.000497952 0.537772 -0.0034915)
(-0.000990665 0.528778 -0.00100142)
(8.37315e-07 0.000374383 3.63109e-08)
(3.5913e-06 0.000394447 6.2694e-08)
(3.74796e-06 0.000441827 -9.51056e-08)
(4.41523e-06 0.000486527 -2.5165e-07)
(4.3209e-06 0.000516286 -2.22526e-07)
(4.21795e-06 0.00054387 -1.93658e-07)
(3.7976e-06 0.000580981 9.73146e-09)
(3.5141e-06 0.000622017 1.8996e-07)
(2.91704e-06 0.000652561 2.03575e-07)
(2.16298e-06 0.000675132 6.03103e-08)
(1.3629e-06 0.000688332 9.69096e-08)
(7.54535e-07 0.000694541 6.34261e-08)
(1.62227e-07 0.000697974 9.3958e-08)
(-3.79849e-07 0.000698724 1.08034e-07)
(-9.12087e-07 0.000698443 1.3982e-07)
(-1.31308e-06 0.000697955 1.42702e-07)
(-1.63021e-06 0.000697535 1.46973e-07)
(-1.87935e-06 0.00069719 1.28769e-07)
(-2.07764e-06 0.000696931 1.21928e-07)
(-2.2434e-06 0.000696739 9.69373e-08)
(-2.3795e-06 0.000696606 8.69446e-08)
(-2.49922e-06 0.000696515 6.13373e-08)
(-2.60863e-06 0.00069646 5.61222e-08)
(-2.70895e-06 0.000696441 3.48583e-08)
(-2.80685e-06 0.000696463 3.34831e-08)
(-2.89954e-06 0.000696524 1.33051e-08)
(-2.99245e-06 0.000696629 1.3224e-08)
(-3.07776e-06 0.000696777 -7.61764e-09)
(-3.16044e-06 0.000696975 -7.30037e-09)
(-3.22841e-06 0.000697227 -2.97825e-08)
(-3.28864e-06 0.000697544 -3.10596e-08)
(-3.31997e-06 0.000697932 -5.74058e-08)
(-3.33029e-06 0.000698405 -6.338e-08)
(-3.29534e-06 0.000698973 -9.83908e-08)
(-3.22245e-06 0.000699656 -1.16606e-07)
(-3.07792e-06 0.000700477 -1.66099e-07)
(-2.87627e-06 0.000701459 -2.01236e-07)
(-2.58135e-06 0.000702618 -2.66002e-07)
(-2.21417e-06 0.000703959 -3.22e-07)
(-1.74248e-06 0.000705486 -4.12609e-07)
(-1.2041e-06 0.000707193 -5.1011e-07)
(-5.74081e-07 0.00070913 -6.42132e-07)
(7.58418e-08 0.00071215 -7.85678e-07)
(7.91587e-07 0.000719067 -9.25433e-07)
(1.49708e-06 0.0007361 -1.08673e-06)
(2.48723e-06 0.00078147 -1.24046e-06)
(3.18792e-06 0.000873641 -1.17301e-06)
(4.36961e-06 0.00102429 -1.19604e-06)
(5.90878e-06 0.00150366 -2.442e-06)
(1.31695e-05 0.0026208 -2.73334e-05)
(3.91922e-05 0.00374674 -8.31697e-05)
(1.1789e-05 0.00409069 -0.000101824)
(3.52675e-05 0.00405809 -8.34683e-05)
(5.8033e-05 0.0041057 -7.64479e-05)
(3.05924e-05 0.00415382 -5.56275e-05)
(6.9769e-05 0.00426562 -1.19802e-05)
(0.000626822 0.00669275 -0.000846144)
(0.00187334 0.00915901 0.000775793)
(0.000720771 0.0133452 0.00112514)
(0.000487343 0.317756 -0.030388)
(-0.00952167 0.643811 0.00206399)
(0.00177182 0.543156 0.0034649)
(0.000764106 0.544455 0.00389996)
(-0.00141672 0.54371 0.00210767)
(0.000151648 0.544229 0.00160446)
(-0.000681913 0.544795 0.000658628)
(-0.000303241 0.539936 0.000571871)
(0.000267872 0.54026 0.00148078)
(-0.00073449 0.539614 0.00197887)
(-0.000520209 0.536581 0.00101298)
(-0.000890082 0.53426 0.00196942)
(-0.00157591 0.531812 0.00231893)
(-0.00246293 0.531667 -0.000193259)
(-0.00487967 0.533813 -0.00110696)
(-0.00690762 0.53781 -0.00399308)
(-0.00597633 0.543585 -0.00935062)
(-0.00257614 0.548692 -0.0103821)
(0.000947388 0.552182 -0.00911917)
(0.00504753 0.552503 -0.00974124)
(0.00891947 0.553136 -0.0102403)
(0.0103055 0.553188 -0.00861347)
(0.00970744 0.553852 -0.00693285)
(0.00863205 0.553923 0.00116886)
(0.00832203 0.548803 0.00935042)
(0.00432056 0.542801 0.0104593)
(0.00458513 0.539489 0.00690344)
(0.0059615 0.539793 0.00415416)
(0.00520354 0.537893 0.00227898)
(0.00632249 0.537785 0.000165755)
(0.00195148 0.538866 0.00134523)
(-0.000321645 0.536949 0.0038832)
(0.000274664 0.535034 0.00157615)
(-0.00411288 0.534448 -0.00336589)
(-0.0100327 0.531606 -0.0124431)
(-0.018979 0.526305 -0.0181931)
(-0.0183032 0.522109 -0.0116999)
(1.33104e-06 0.00037562 6.05158e-07)
(4.7701e-06 0.00038499 8.0488e-07)
(5.00803e-06 0.00041289 2.6286e-07)
(5.27635e-06 0.000450224 7.71556e-08)
(4.8721e-06 0.000486073 -9.93218e-08)
(4.58668e-06 0.000521618 -5.48947e-08)
(3.90968e-06 0.000564719 -1.87056e-07)
(3.33438e-06 0.000611106 3.92037e-08)
(2.96433e-06 0.00064225 7.44101e-08)
(2.22167e-06 0.000661015 5.22813e-08)
(1.35666e-06 0.000677332 4.87046e-08)
(7.57565e-07 0.000690189 5.25241e-08)
(9.80333e-08 0.00069662 8.12916e-08)
(-4.68311e-07 0.000698144 1.30355e-07)
(-1.05953e-06 0.000697993 1.75638e-07)
(-1.47726e-06 0.000697575 2.01777e-07)
(-1.81934e-06 0.000697227 2.15848e-07)
(-2.07338e-06 0.000696933 2.20479e-07)
(-2.28158e-06 0.000696724 2.14029e-07)
(-2.45663e-06 0.00069657 2.1164e-07)
(-2.59745e-06 0.000696472 1.92715e-07)
(-2.72545e-06 0.000696411 1.84609e-07)
(-2.83018e-06 0.000696391 1.66468e-07)
(-2.93145e-06 0.000696406 1.60297e-07)
(-3.01773e-06 0.000696456 1.43069e-07)
(-3.10594e-06 0.000696542 1.37507e-07)
(-3.18018e-06 0.000696667 1.19255e-07)
(-3.25476e-06 0.000696838 1.1215e-07)
(-3.30983e-06 0.000697059 9.10826e-08)
(-3.3584e-06 0.000697341 8.01361e-08)
(-3.37742e-06 0.000697691 5.3189e-08)
(-3.37708e-06 0.000698123 3.52361e-08)
(-3.3299e-06 0.000698651 -5.96768e-10)
(-3.25088e-06 0.000699297 -3.17117e-08)
(-3.10653e-06 0.000700084 -8.31633e-08)
(-2.90926e-06 0.000701025 -1.32861e-07)
(-2.62471e-06 0.000702136 -2.00033e-07)
(-2.26682e-06 0.00070342 -2.63942e-07)
(-1.79873e-06 0.000704886 -3.45365e-07)
(-1.24345e-06 0.000706522 -4.38529e-07)
(-5.71299e-07 0.000708333 -5.45142e-07)
(1.63627e-07 0.000710313 -6.80347e-07)
(9.64264e-07 0.000713464 -8.29666e-07)
(1.70376e-06 0.000721277 -9.81527e-07)
(2.40799e-06 0.00074312 -1.10196e-06)
(3.3219e-06 0.000799199 -1.23318e-06)
(4.17446e-06 0.000908108 -6.59274e-07)
(5.76274e-06 0.00111633 -7.30267e-07)
(8.78143e-06 0.00167781 -2.72628e-06)
(6.11015e-06 0.0027784 -2.67884e-05)
(-2.1947e-05 0.00381307 -9.20241e-05)
(-2.03464e-05 0.00410236 -0.000100184)
(-2.06216e-05 0.00409692 -7.8231e-05)
(-1.51532e-06 0.00414536 -3.16433e-05)
(-4.89945e-05 0.00417957 8.84578e-06)
(9.2882e-05 0.00439913 2.79106e-05)
(-0.00010222 0.00633593 -0.00112779)
(0.000421712 0.00400944 0.000408403)
(-0.000120065 0.0110444 0.00110653)
(-0.0530429 0.29938 -0.0384011)
(-0.00964865 0.639241 0.00387081)
(0.00720336 0.541768 0.00510403)
(-3.53905e-05 0.547325 0.00106132)
(-0.000987653 0.544479 0.00140544)
(-1.27693e-05 0.539589 8.31239e-06)
(-0.000340872 0.546373 0.00169908)
(-0.000238511 0.547575 3.6979e-05)
(-0.000393111 0.554583 0.000563241)
(-0.00110319 0.544987 -0.00185049)
(-0.000659171 0.541862 -0.00127387)
(-0.000900777 0.547438 -0.000746847)
(-0.000944547 0.543925 -0.00162922)
(0.000747406 0.545239 -0.00370827)
(0.00142675 0.543431 -0.00335213)
(0.00326654 0.543094 -0.00184073)
(0.00471622 0.543103 -0.00149298)
(0.00519893 0.544272 0.000150103)
(0.00441576 0.54367 0.00190814)
(0.00402284 0.543257 0.00132528)
(0.00405189 0.542812 0.00234318)
(0.00342981 0.540902 0.00461494)
(0.00402168 0.540126 0.00590007)
(0.00608998 0.538569 0.00726262)
(0.00684061 0.536982 0.00675953)
(0.00578762 0.535859 0.0054942)
(0.00554816 0.534465 0.0040222)
(0.00750418 0.534057 0.00118235)
(0.0104088 0.533025 -0.00139217)
(0.00921812 0.53647 -0.000108204)
(0.00628979 0.545382 0.00478471)
(0.00790796 0.546332 0.0091322)
(0.00805057 0.542444 0.0121762)
(0.00602442 0.538452 0.0124458)
(0.00510471 0.532005 0.00306573)
(0.00144162 0.524978 -0.00741896)
(-0.00773043 0.509951 -0.0129015)
(1.87272e-06 0.000223841 1.64976e-07)
(6.34908e-06 0.00040719 1.61805e-06)
(6.12195e-06 0.000395571 5.19007e-07)
(6.13627e-06 0.000415712 4.15011e-07)
(5.39052e-06 0.00045386 2.1899e-08)
(4.81597e-06 0.000497273 -4.35758e-08)
(3.98701e-06 0.000549259 -2.60246e-07)
(3.26482e-06 0.000605864 -6.41645e-08)
(2.71526e-06 0.000641613 -1.32391e-08)
(2.20065e-06 0.000659967 -1.70211e-08)
(1.44052e-06 0.000675237 -6.98963e-08)
(8.30086e-07 0.000687818 -1.19121e-07)