/*--------------------------------*- C++ -*----------------------------------*\
| =========                 |                                                 |
| \\      /  F ield         | OpenFOAM: The Open Source CFD Toolbox           |
|  \\    /   O peration     | Version:  2.3.0                                 |
|   \\  /    A nd           | Web:      www.OpenFOAM.org                      |
|    \\/     M anipulation  |                                                 |
\*---------------------------------------------------------------------------*/
FoamFile
{
    version     2.0;
    format      ascii;
    class       volVectorField;
    location    "21";
    object      Ur;
}
// * * * * * * * * * * * * * * * * * * * * * * * * * * * * * * * * * * * * * //

dimensions      [0 1 -1 0 0 0 0];

internalField   nonuniform List<vector> 
6144
(
(-2.67542e-07 0.000444383 -6.91798e-08)
(-2.18961e-07 0.00045502 -2.54335e-07)
(-1.0835e-07 0.000466949 -2.42206e-07)
(-6.73968e-08 0.00047849 -2.26545e-07)
(4.52901e-08 0.000491991 -1.47798e-07)
(1.13092e-07 0.000510343 -1.1126e-07)
(1.85832e-07 0.000534768 -4.4828e-08)
(2.38476e-07 0.000556757 -5.29643e-09)
(2.34706e-07 0.000566467 5.7783e-09)
(2.13119e-07 0.000567461 -1.06557e-08)
(1.85731e-07 0.000566928 -2.57955e-08)
(1.52351e-07 0.00056648 -1.27625e-08)
(1.26945e-07 0.000566092 -1.28972e-08)
(1.06349e-07 0.000565739 -9.63457e-09)
(9.80361e-08 0.000565432 -1.69749e-08)
(8.52684e-08 0.000565167 -2.1725e-08)
(8.01518e-08 0.000564946 -3.00002e-08)
(6.99295e-08 0.000564769 -3.34262e-08)
(6.734e-08 0.00056464 -3.87451e-08)
(5.87829e-08 0.000564539 -4.22863e-08)
(5.73193e-08 0.000564431 -4.32374e-08)
(5.00703e-08 0.00056433 -4.52276e-08)
(4.92736e-08 0.00056425 -4.3922e-08)
(4.27051e-08 0.000564188 -4.49217e-08)
(4.2631e-08 0.00056412 -4.26263e-08)
(3.68627e-08 0.00056404 -4.30841e-08)
(3.75158e-08 0.000563981 -4.16006e-08)
(3.24867e-08 0.000563959 -4.20853e-08)
(3.3335e-08 0.000563949 -3.9757e-08)
(2.91344e-08 0.000563951 -3.9942e-08)
(2.99505e-08 0.000563967 -3.80457e-08)
(2.652e-08 0.000563989 -3.81534e-08)
(2.82702e-08 0.000564019 -3.58793e-08)
(2.56125e-08 0.000564051 -3.6732e-08)
(2.48566e-08 0.000564086 -3.81684e-08)
(2.77985e-08 0.000564119 -3.35809e-08)
(2.44775e-08 0.000564155 -3.20892e-08)
(3.03041e-08 0.000564166 -3.27385e-08)
(2.42469e-08 0.000564145 -3.19679e-08)
(3.55598e-08 0.000564128 -2.91757e-08)
(3.26687e-08 0.000564103 -2.53898e-08)
(3.12888e-08 0.000564097 -3.547e-08)
(3.42676e-08 0.000564211 -2.84028e-08)
(5.74126e-08 0.000564215 -5.0623e-08)
(3.22321e-08 0.000564414 -4.19186e-08)
(7.80459e-08 0.00056429 -1.08203e-07)
(1.25882e-07 0.000564637 -9.32856e-08)
(9.46156e-08 0.000564573 -8.66744e-08)
(1.57274e-07 0.000570712 -1.68857e-07)
(1.38883e-07 0.000600519 -1.19653e-07)
(2.72251e-07 0.000691466 -3.54226e-07)
(8.23211e-08 0.00089377 -4.56492e-07)
(-5.53377e-07 0.00125019 -7.13441e-07)
(-3.27862e-06 0.00158365 -1.01999e-06)
(-7.23973e-07 0.0021019 1.25086e-06)
(-1.37807e-05 0.00343008 -7.33914e-06)
(1.3021e-05 0.00638607 -1.3554e-06)
(0.000105924 0.0110674 -4.70394e-05)
(0.000200035 0.0245678 0.00158308)
(0.00838245 0.136528 0.0167475)
(-0.0372542 0.583858 0.0156638)
(-0.046762 0.506558 -0.000348905)
(-0.0626449 0.318 0.00587799)
(-2.67909e-05 0.028625 3.5856e-05)
(-6.09084e-05 0.00792522 8.9008e-06)
(-9.30606e-05 0.00823757 6.81485e-07)
(-6.82129e-05 0.00827357 -9.19637e-06)
(-4.3076e-05 0.00832879 -1.62719e-05)
(-3.28624e-05 0.0083797 -1.98823e-05)
(-2.81477e-05 0.00841753 -2.08531e-05)
(-2.19071e-05 0.00844502 -2.0545e-05)
(-1.46378e-05 0.00846534 -1.86051e-05)
(-8.04706e-06 0.00848001 -1.64104e-05)
(-4.2068e-06 0.00848841 -1.53614e-05)
(-9.37776e-07 0.00848925 -1.42689e-05)
(6.77145e-06 0.00848187 -1.2418e-05)
(1.35477e-05 0.00847032 -1.05881e-05)
(1.44258e-05 0.00846274 -9.50305e-06)
(1.11424e-05 0.00845674 -8.91162e-06)
(1.25182e-05 0.00844561 -8.39179e-06)
(1.45029e-05 0.00843716 -8.53635e-06)
(9.02426e-06 0.00844932 -9.30809e-06)
(7.0926e-07 0.00848704 -8.60656e-06)
(-3.44876e-06 0.0085378 -6.81951e-06)
(-3.90054e-06 0.00858394 -6.27111e-06)
(-3.99303e-06 0.00860681 -6.51928e-06)
(-3.85012e-06 0.00860756 -5.75899e-06)
(-5.18444e-06 0.00860427 -5.57405e-06)
(-7.46981e-06 0.00860226 -5.83796e-06)
(-9.92507e-06 0.00860413 -4.53488e-06)
(-1.38523e-05 0.00860486 -3.09605e-06)
(-1.97907e-05 0.00860208 -1.53557e-06)
(-2.42674e-05 0.0085003 -4.2897e-06)
(-1.50202e-05 0.00778056 -8.79236e-07)
(-6.20227e-06 0.00634018 1.07868e-05)
(-4.10733e-06 0.00521547 7.40502e-06)
(-2.06055e-07 0.000444915 3.62208e-07)
(7.00114e-08 0.000459316 -1.23132e-07)
(1.74621e-07 0.00047538 -1.73572e-07)
(2.88615e-07 0.000489853 -1.63012e-07)
(4.13711e-07 0.000506688 -4.0389e-08)
(4.8874e-07 0.000527424 2.37442e-08)
(5.99269e-07 0.000549754 1.17823e-07)
(6.46794e-07 0.000564226 1.18606e-07)
(6.32565e-07 0.00056786 1.07757e-07)
(5.61636e-07 0.000567476 9.78139e-08)
(4.91691e-07 0.000566961 8.06737e-08)
(3.96664e-07 0.000566543 1.0441e-07)
(3.446e-07 0.000566215 1.11152e-07)
(2.95007e-07 0.000565898 1.18911e-07)
(2.79704e-07 0.00056559 1.07935e-07)
(2.5757e-07 0.000565327 1.03967e-07)
(2.49306e-07 0.000565109 9.17673e-08)
(2.33849e-07 0.000564941 9.13156e-08)
(2.2463e-07 0.000564799 8.30934e-08)
(2.11012e-07 0.000564672 8.47841e-08)
(2.01268e-07 0.000564558 8.06374e-08)
(1.87968e-07 0.000564465 8.4052e-08)
(1.78518e-07 0.000564395 8.19295e-08)
(1.65764e-07 0.000564337 8.61352e-08)
(1.57143e-07 0.000564272 8.46896e-08)
(1.45795e-07 0.000564202 8.90238e-08)
(1.38779e-07 0.000564163 8.80151e-08)
(1.29006e-07 0.000564151 9.22159e-08)
(1.23377e-07 0.000564145 9.13112e-08)
(1.15152e-07 0.000564146 9.48889e-08)
(1.10313e-07 0.000564174 9.43395e-08)
(1.0255e-07 0.000564203 9.74611e-08)
(1.0164e-07 0.000564238 9.69864e-08)
(9.42153e-08 0.000564261 9.87e-08)
(9.11651e-08 0.000564309 9.78071e-08)
(9.12056e-08 0.000564345 9.94637e-08)
(8.69675e-08 0.000564389 1.01255e-07)
(9.04857e-08 0.000564391 1.00782e-07)
(8.39846e-08 0.000564363 1.04327e-07)
(9.95284e-08 0.000564361 1.04112e-07)
(8.86741e-08 0.000564352 1.05328e-07)
(1.0337e-07 0.000564352 1.06608e-07)
(1.07344e-07 0.0005645 1.11772e-07)
(1.2083e-07 0.000564409 7.10019e-08)
(1.76069e-07 0.000564671 1.11966e-07)
(1.9148e-07 0.000564513 2.66324e-08)
(3.20475e-07 0.00056485 3.3429e-08)
(3.71875e-07 0.000564742 5.41192e-08)
(3.54561e-07 0.000569911 -4.7268e-08)
(5.25424e-07 0.000599585 9.90048e-08)
(6.61198e-07 0.000693639 -1.33977e-07)
(3.95931e-07 0.000871186 -4.70336e-07)
(-8.33182e-07 0.00118706 -1.72432e-07)
(-4.99685e-06 0.00151162 -1.50422e-06)
(-9.93857e-06 0.00192641 1.6645e-06)
(-8.8181e-06 0.00316643 -5.81783e-06)
(-0.000135659 0.00668169 7.86263e-06)
(-0.000123225 0.0115505 -0.000219764)
(-0.00148898 0.0261741 0.00128273)
(-0.00421182 0.115446 0.0113868)
(-0.10082 0.575655 0.0107949)
(-0.0737988 0.361334 -0.00339639)
(-0.00348119 0.0219493 -0.000189155)
(4.12699e-05 0.00841615 1.483e-05)
(-8.49368e-05 0.00827651 -1.1074e-05)
(-9.7448e-05 0.00828717 -1.81079e-05)
(-5.39253e-05 0.00835177 -1.73643e-05)
(-3.17813e-05 0.00836504 -1.99866e-05)
(-2.91115e-05 0.00837561 -2.11324e-05)
(-2.91381e-05 0.00838704 -2.12705e-05)
(-2.64343e-05 0.00840059 -2.05658e-05)
(-2.21672e-05 0.0084237 -1.83622e-05)
(-1.50643e-05 0.00844412 -1.76735e-05)
(-8.06168e-06 0.00845838 -1.76471e-05)
(-9.85915e-07 0.00847627 -1.52182e-05)
(7.91062e-06 0.00849111 -1.29627e-05)
(1.92155e-05 0.00848047 -1.09711e-05)
(3.33551e-05 0.00845593 -7.25638e-06)
(3.18835e-05 0.00844357 -3.956e-06)
(7.86708e-06 0.00846859 -5.7467e-06)
(-4.35215e-06 0.00855607 -7.47828e-06)
(-6.38457e-06 0.00869023 -5.74273e-06)
(-5.24754e-06 0.00878159 -5.47912e-06)
(-2.70483e-06 0.00877775 -6.84456e-06)
(1.64804e-06 0.00872215 -6.47012e-06)
(1.37563e-06 0.00867631 -6.46813e-06)
(-2.77304e-06 0.00866717 -6.53834e-06)
(-8.85934e-06 0.00868155 -7.239e-06)
(-1.31587e-05 0.00869687 -7.49533e-06)
(-1.71048e-05 0.00870455 -5.83376e-06)
(-2.43588e-05 0.00869231 -3.07779e-06)
(-3.45773e-05 0.00865058 1.21083e-06)
(-4.19805e-05 0.00848359 6.57665e-07)
(-3.64539e-05 0.00772495 3.26564e-07)
(-2.16543e-05 0.0063464 1.32614e-05)
(-1.56025e-05 0.00530027 8.03155e-06)
(4.99962e-09 0.000414101 1.64654e-07)
(5.54074e-07 0.000433612 5.76222e-08)
(6.2453e-07 0.000455795 -3.63836e-08)
(7.91036e-07 0.000475153 2.46312e-08)
(8.71196e-07 0.000496149 7.43574e-08)
(8.91005e-07 0.000520634 1.16076e-07)
(9.44981e-07 0.000546248 1.90992e-07)
(9.36897e-07 0.000562145 1.90491e-07)
(8.96543e-07 0.000566013 1.60069e-07)
(7.8844e-07 0.000565789 1.39308e-07)
(6.62982e-07 0.000565604 1.17983e-07)
(5.14775e-07 0.000565841 1.31129e-07)
(4.2983e-07 0.000565963 1.36365e-07)
(3.52732e-07 0.000565803 1.40916e-07)
(3.22795e-07 0.000565554 1.33978e-07)
(2.90381e-07 0.000565308 1.28381e-07)
(2.79991e-07 0.000565098 1.2331e-07)
(2.6155e-07 0.000564927 1.21732e-07)
(2.50168e-07 0.000564784 1.20904e-07)
(2.32318e-07 0.000564661 1.21589e-07)
(2.17799e-07 0.000564554 1.23154e-07)
(1.97057e-07 0.000564468 1.24491e-07)
(1.81203e-07 0.000564404 1.26738e-07)
(1.60991e-07 0.00056435 1.2742e-07)
(1.46318e-07 0.000564293 1.29393e-07)
(1.26865e-07 0.000564239 1.29856e-07)
(1.13881e-07 0.000564211 1.32131e-07)
(9.65692e-08 0.000564203 1.32977e-07)
(8.54571e-08 0.000564203 1.35021e-07)
(7.00059e-08 0.00056421 1.35219e-07)
(6.09691e-08 0.000564234 1.37221e-07)
(4.69963e-08 0.000564256 1.37479e-07)
(4.05021e-08 0.000564286 1.37894e-07)
(2.89767e-08 0.000564315 1.38279e-07)
(2.39292e-08 0.000564368 1.39476e-07)
(1.76022e-08 0.000564408 1.39349e-07)
(1.4784e-08 0.000564455 1.40021e-07)
(1.53845e-08 0.000564464 1.41176e-07)
(1.541e-08 0.000564477 1.40656e-07)
(2.39173e-08 0.000564486 1.39892e-07)
(2.17395e-08 0.000564503 1.36981e-07)
(5.53541e-08 0.000564537 1.39031e-07)
(6.69359e-08 0.000564612 1.2996e-07)
(9.28487e-08 0.000564619 1.28368e-07)
(2.03757e-07 0.000564747 1.23503e-07)
(2.30736e-07 0.000564613 1.33947e-07)
(3.75126e-07 0.00056511 1.21394e-07)
(5.64217e-07 0.000564916 1.8461e-07)
(5.18531e-07 0.000570114 1.41111e-07)
(8.13366e-07 0.00060073 1.86348e-07)
(6.43669e-07 0.000702687 4.08219e-08)
(3.84708e-07 0.000868418 -4.4659e-07)
(-1.21215e-06 0.00105363 -7.1491e-07)
(-3.93544e-06 0.00126381 -1.03462e-06)
(-9.19162e-06 0.00198775 4.22359e-06)
(6.88847e-05 0.00329353 -5.34354e-06)
(-0.00010507 0.00618896 6.90557e-05)
(-0.000485063 0.00931023 -0.000242814)
(-0.00241276 0.0214951 0.000770716)
(-6.50178e-05 0.108339 0.00659915)
(-0.065308 0.55928 0.00705807)
(-0.0132421 0.316071 6.23112e-05)
(-0.000151309 0.0224973 -0.000138401)
(-0.000132179 0.00848349 -3.6936e-06)
(-0.000217735 0.00820454 -3.4161e-05)
(-8.58219e-05 0.0083751 -2.15004e-05)
(-5.0577e-05 0.00847482 -2.29765e-05)
(-4.11244e-05 0.00849676 -2.64795e-05)
(-3.06886e-05 0.00850725 -2.64892e-05)
(-1.85583e-05 0.00850178 -2.46663e-05)
(-1.22079e-05 0.00848135 -2.24632e-05)
(-1.3527e-05 0.00847012 -2.01181e-05)
(-1.35767e-05 0.00847808 -2.0343e-05)
(-1.04379e-05 0.00848411 -2.00817e-05)
(-4.81258e-07 0.00847651 -1.89343e-05)
(1.89123e-05 0.00846465 -1.8838e-05)
(1.71054e-05 0.00847444 -1.94805e-05)
(-2.4825e-06 0.0085299 -1.91217e-05)
(-1.49856e-05 0.00860245 -1.6038e-05)
(-1.9017e-05 0.00870133 -6.4586e-06)
(-2.13189e-05 0.00879037 -1.14831e-05)
(-1.45164e-05 0.00885084 -1.15449e-05)
(-3.16358e-06 0.00886151 -9.77272e-06)
(5.97562e-06 0.0087899 -6.79218e-06)
(8.91475e-06 0.00868696 -5.25509e-06)
(5.2903e-06 0.00864288 -4.5146e-06)
(-3.89566e-06 0.0086696 -5.10214e-06)
(-8.68466e-06 0.00873507 -7.47272e-06)
(-1.06726e-05 0.00880221 -9.2525e-06)
(-1.49076e-05 0.00883642 -7.56221e-06)
(-2.34772e-05 0.00880312 -4.15916e-06)
(-3.11282e-05 0.00867764 -9.32622e-08)
(-3.66071e-05 0.00832858 -2.0854e-07)
(-3.61216e-05 0.00743621 1.72103e-06)
(-2.25408e-05 0.00615838 7.00612e-06)
(-1.85619e-05 0.0052692 5.71429e-06)
(2.94443e-07 0.000378753 2.06777e-07)
(1.12878e-06 0.000398883 9.60926e-08)
(1.11044e-06 0.000424178 2.14952e-08)
(1.36894e-06 0.000448408 7.2016e-08)
(1.38414e-06 0.000473398 1.01656e-07)
(1.42927e-06 0.000501671 1.66945e-07)
(1.45921e-06 0.000534086 2.09309e-07)
(1.33221e-06 0.000557944 1.44626e-07)
(1.1995e-06 0.000565641 1.70407e-07)
(1.02787e-06 0.000565598 1.5399e-07)
(8.45786e-07 0.000565032 1.46145e-07)
(6.53022e-07 0.000565353 1.49879e-07)
(5.33535e-07 0.000565682 1.45642e-07)
(4.33474e-07 0.000565596 1.45274e-07)
(3.82215e-07 0.000565381 1.29835e-07)
(3.368e-07 0.000565153 1.24995e-07)
(3.08916e-07 0.000564954 1.14863e-07)
(2.83476e-07 0.000564785 1.17301e-07)
(2.60569e-07 0.000564643 1.11193e-07)
(2.41321e-07 0.000564521 1.17774e-07)
(2.16568e-07 0.000564412 1.13912e-07)
(1.95608e-07 0.000564323 1.22053e-07)
(1.69464e-07 0.000564257 1.18369e-07)
(1.47178e-07 0.0005642 1.2396e-07)
(1.21112e-07 0.00056414 1.18956e-07)
(1.00715e-07 0.00056409 1.24862e-07)
(7.70389e-08 0.000564066 1.20659e-07)
(5.92398e-08 0.000564059 1.26667e-07)
(3.83693e-08 0.000564062 1.22857e-07)
(2.28274e-08 0.000564073 1.28035e-07)
(5.28148e-09 0.000564092 1.23724e-07)
(-7.64517e-09 0.000564108 1.27217e-07)
(-2.34438e-08 0.000564139 1.23111e-07)
(-3.27825e-08 0.000564171 1.2616e-07)
(-4.38372e-08 0.000564232 1.22988e-07)
(-4.69892e-08 0.000564274 1.25374e-07)
(-5.37543e-08 0.000564332 1.22111e-07)
(-4.48547e-08 0.00056434 1.24965e-07)
(-4.57157e-08 0.000564373 1.19111e-07)
(-2.63729e-08 0.000564392 1.24576e-07)
(-1.78027e-08 0.000564435 1.11609e-07)
(2.84834e-08 0.000564494 1.21378e-07)
(5.49314e-08 0.000564591 9.72737e-08)
(1.20474e-07 0.000564573 1.12369e-07)
(1.89224e-07 0.000564774 8.18636e-08)
(2.86312e-07 0.000564637 1.23851e-07)
(3.96733e-07 0.000565348 7.911e-08)
(6.13622e-07 0.000565302 1.13824e-07)
(6.3933e-07 0.000571439 7.15036e-08)
(9.51636e-07 0.000590537 -1.3146e-08)
(7.15933e-07 0.000650099 -1.4438e-07)
(5.47882e-07 0.000780676 -4.4558e-07)
(-1.51466e-06 0.00097961 -7.44176e-07)
(-2.99166e-06 0.00138896 8.37831e-07)
(6.31437e-06 0.00253493 1.66131e-06)
(0.000102591 0.00367808 -2.20001e-05)
(4.42214e-05 0.00571638 6.21498e-05)
(-0.000495461 0.00751404 -0.000113416)
(-0.00242829 0.0198213 0.000596878)
(0.00830242 0.11362 0.00492144)
(-0.0473259 0.559466 -0.00143612)
(0.00533404 0.32379 -0.0104783)
(0.000356055 0.0244228 1.07077e-05)
(-0.000566561 0.00905258 -4.44726e-05)
(-0.00014109 0.00863427 -0.00014639)
(8.61361e-05 0.00871007 -0.000148224)
(1.47033e-05 0.00830601 -2.61195e-05)
(7.58771e-06 0.00834525 -3.30688e-05)
(1.92455e-05 0.00848911 -3.1118e-05)
(9.93289e-06 0.00862317 -0.000299613)
(-8.91745e-06 0.00854064 -0.000280118)
(-9.04799e-06 0.00817629 -2.43553e-05)
(5.32283e-05 0.0078166 -2.19341e-05)
(4.69854e-05 0.00768976 -0.000215309)
(-5.61117e-05 0.00784803 -0.000175117)
(-0.000185165 0.00817357 -2.29553e-05)
(-0.000250906 0.00835228 -1.86463e-05)
(-0.000237669 0.00839331 -2.05166e-05)
(-0.00021011 0.00842196 -2.09461e-05)
(-0.000157928 0.00849524 -2.07929e-05)
(-0.000111299 0.00863666 -1.7412e-05)
(-1.254e-05 0.00878715 -1.0138e-05)
(-6.66252e-05 0.00886457 -8.96439e-06)
(-6.56095e-05 0.00878234 -5.57725e-06)
(-3.87081e-06 0.00859277 -7.315e-07)
(-9.82079e-06 0.0085124 -3.31219e-07)
(-1.32645e-05 0.00854001 -1.27932e-06)
(-8.5717e-06 0.00867982 -6.21797e-06)
(-5.4949e-06 0.00880247 -9.95973e-06)
(-5.4318e-06 0.00879483 -7.72314e-06)
(-1.55948e-05 0.00868904 -6.46208e-06)
(-2.22798e-05 0.00846099 -5.5538e-06)
(-2.26859e-05 0.00792928 -5.08856e-06)
(-1.56426e-05 0.00699173 -2.28574e-06)
(-9.49402e-06 0.00592276 1.0038e-06)
(-9.26877e-06 0.00519694 1.99422e-06)
(5.41415e-07 0.000347985 1.63205e-07)
(1.83415e-06 0.000367262 4.26861e-08)
(1.78994e-06 0.000394359 -8.29214e-09)
(2.20854e-06 0.000422492 -5.27021e-08)
(2.12489e-06 0.000450871 8.29353e-09)
(2.18285e-06 0.000481553 1.30949e-07)
(2.08639e-06 0.000514661 1.11389e-07)
(1.79933e-06 0.000543575 6.21102e-08)
(1.50066e-06 0.000561217 1.12126e-07)
(1.24707e-06 0.000565756 1.43467e-07)
(1.00916e-06 0.000564956 1.54742e-07)
(7.97456e-07 0.000565201 1.61444e-07)
(6.51811e-07 0.000565641 1.5505e-07)
(5.35804e-07 0.000565596 1.43992e-07)
(4.72378e-07 0.000565416 1.23808e-07)
(4.08796e-07 0.000565202 1.0814e-07)
(3.68174e-07 0.000565019 1.03024e-07)
(3.21938e-07 0.000564859 9.42269e-08)
(2.89862e-07 0.00056473 9.579e-08)
(2.54465e-07 0.00056462 8.90742e-08)
(2.27901e-07 0.000564525 9.37758e-08)
(1.97871e-07 0.000564442 8.77855e-08)
(1.74736e-07 0.000564377 9.28491e-08)
(1.45655e-07 0.000564323 8.6625e-08)
(1.22789e-07 0.000564267 9.22325e-08)
(9.57462e-08 0.000564221 8.59542e-08)
(7.43969e-08 0.000564198 9.14913e-08)
(4.93714e-08 0.000564192 8.59064e-08)
(3.05045e-08 0.0005642 9.12999e-08)
(8.78762e-09 0.000564219 8.59513e-08)
(-6.46174e-09 0.000564236 9.06674e-08)
(-2.49872e-08 0.000564244 8.48166e-08)
(-3.69298e-08 0.000564269 8.88991e-08)
(-5.07426e-08 0.000564302 8.1738e-08)
(-5.72029e-08 0.000564368 8.61325e-08)
(-6.09132e-08 0.000564414 7.87708e-08)
(-6.07147e-08 0.000564475 8.40735e-08)
(-4.71264e-08 0.000564474 7.78027e-08)
(-3.9843e-08 0.000564499 8.14057e-08)
(-4.50453e-09 0.000564501 7.76457e-08)
(1.0692e-08 0.000564559 7.41027e-08)
(7.04009e-08 0.00056464 7.51877e-08)
(1.00023e-07 0.00056476 5.40047e-08)
(1.70797e-07 0.000564773 7.17638e-08)
(2.14787e-07 0.000565016 2.55649e-08)
(3.04042e-07 0.000564902 7.26712e-08)
(3.70823e-07 0.000565756 1.62823e-09)
(5.26149e-07 0.000565701 -1.73021e-08)
(5.65727e-07 0.000572615 -3.79388e-08)
(9.23182e-07 0.000588431 -1.94047e-07)
(6.39408e-07 0.000640355 -4.46709e-07)
(7.00859e-07 0.000765049 -5.62363e-07)
(3.47283e-07 0.00102681 -4.67448e-07)
(3.49595e-06 0.00159883 2.8075e-06)
(-5.16779e-06 0.0028042 -3.75707e-06)
(-3.90987e-05 0.00378938 -7.07462e-05)
(0.000176252 0.00552324 0.000140402)
(-0.000676672 0.00610496 0.000367091)
(-0.00276458 0.0205232 0.000609233)
(0.0154089 0.139659 0.00980058)
(-0.0341192 0.570497 0.00149854)
(-0.0164395 0.462034 0.00822227)
(-0.0416032 0.484349 0.00244375)
(-0.00903032 0.466933 -0.00253688)
(-0.00815892 0.484843 -0.00380116)
(-0.010837 0.478424 -0.00770688)
(-0.0043127 0.48226 -0.00799655)
(0.0012667 0.485071 -0.00615887)
(0.00584143 0.486703 -0.0063928)
(0.00576969 0.493472 -0.00575892)
(-0.00175786 0.495893 -0.00369868)
(-0.00744108 0.498262 0.000122933)
(-0.00586963 0.505965 0.00260068)
(-0.00100266 0.504743 0.00429579)
(0.00270951 0.492667 0.00554513)
(0.00498226 0.491829 0.00544299)
(0.004757 0.491063 0.00457907)
(0.00314994 0.491976 0.00269672)
(0.00162746 0.489981 0.00154066)
(0.000662318 0.469023 0.000520431)
(-3.30118e-06 0.347397 -0.000341713)
(-0.0001832 0.0508863 1.65943e-05)
(-0.000705527 0.195185 -0.000137853)
(-0.00136484 0.275104 -0.000188893)
(-0.000111812 0.028828 -4.23605e-05)
(-0.000113581 0.0088021 -0.000103182)
(-6.79957e-05 0.00860451 -0.000115842)
(7.2134e-06 0.00832906 -8.45387e-07)
(1.62583e-05 0.0084867 -1.08483e-05)
(2.22783e-05 0.00849024 -4.87755e-06)
(2.51098e-06 0.00832356 -1.005e-05)
(-1.3429e-05 0.00800973 -1.36793e-05)
(-7.47817e-06 0.00743659 -1.15868e-05)
(-1.73151e-06 0.00662363 -8.14114e-06)
(2.10252e-06 0.00572875 -6.69589e-06)
(1.4983e-06 0.00504362 -1.84523e-06)
(1.01588e-06 0.000322099 3.86619e-07)
(2.87896e-06 0.000338835 -7.70699e-08)
(2.74286e-06 0.000367516 -1.09399e-07)
(3.24693e-06 0.000397792 -3.64176e-07)
(3.06584e-06 0.000425093 -2.87661e-07)
(2.97177e-06 0.000457436 -4.68968e-08)
(2.64767e-06 0.00049378 -4.84785e-08)
(2.26996e-06 0.000524266 -4.65387e-08)
(1.80423e-06 0.000547619 -3.80122e-09)
(1.44891e-06 0.000559665 6.06324e-08)
(1.13114e-06 0.000562712 1.09327e-07)
(9.36411e-07 0.00056446 1.28706e-07)
(7.74041e-07 0.0005653 1.30954e-07)
(6.59592e-07 0.000565295 1.39406e-07)
(5.72274e-07 0.000565161 1.19724e-07)
(5.04202e-07 0.000564964 1.20144e-07)
(4.38301e-07 0.00056479 1.03909e-07)
(3.79334e-07 0.000564635 1.10976e-07)
(3.27882e-07 0.000564504 9.88341e-08)
(2.87541e-07 0.00056439 1.03401e-07)
(2.53051e-07 0.000564293 9.06393e-08)
(2.25849e-07 0.000564218 9.27821e-08)
(1.98553e-07 0.000564162 7.91712e-08)
(1.7586e-07 0.000564107 8.12188e-08)
(1.514e-07 0.000564051 6.96445e-08)
(1.29509e-07 0.000564012 7.2789e-08)
(1.05727e-07 0.000563998 6.34372e-08)
(8.45754e-08 0.000563999 6.78256e-08)
(6.25311e-08 0.00056401 6.04963e-08)
(4.3965e-08 0.000564028 6.57097e-08)
(2.54809e-08 0.000564051 5.9269e-08)
(1.02905e-08 0.000564072 6.33567e-08)
(-3.07812e-09 0.000564106 5.70887e-08)
(-1.20704e-08 0.000564144 5.85101e-08)
(-1.85418e-08 0.000564211 5.44685e-08)
(-1.62944e-08 0.000564265 5.38675e-08)
(-1.49744e-08 0.000564345 5.35897e-08)
(7.38047e-09 0.000564347 5.15661e-08)
(1.66161e-08 0.000564396 5.33143e-08)
(6.03229e-08 0.000564369 5.05599e-08)
(7.64338e-08 0.000564468 4.65944e-08)
(1.38137e-07 0.000564576 4.71249e-08)
(1.61031e-07 0.000564738 2.27499e-08)
(2.41786e-07 0.000564753 4.10781e-08)
(2.57541e-07 0.000565036 -1.03719e-08)
(3.62498e-07 0.000564899 3.46131e-08)
(3.9853e-07 0.000565883 -1.0949e-08)
(4.95937e-07 0.000566459 -3.8543e-08)
(6.67322e-07 0.000575565 6.48681e-09)
(8.9868e-07 0.000598169 -2.26923e-07)
(1.05499e-06 0.000680897 -1.28645e-07)
(1.59021e-06 0.000866904 -4.33026e-07)
(1.06788e-06 0.00120564 -3.46613e-07)
(2.36171e-06 0.0016078 -4.63211e-06)
(9.39545e-06 0.00244781 8.35566e-06)
(-0.000104087 0.0036129 2.98455e-05)
(0.000252325 0.00516674 0.000221714)
(-0.000710831 0.00497897 0.000194555)
(-0.00156629 0.0240447 0.00147409)
(0.021184 0.207888 0.0168655)
(0.0113447 0.532636 0.00112334)
(-0.000409045 0.440762 0.0029742)
(-0.0197215 0.435718 -0.000624093)
(-0.013333 0.475944 -0.00383827)
(-0.0171477 0.475853 -0.00466996)
(-0.00295428 0.490934 -0.00483599)
(-0.00056133 0.493648 -0.00508579)
(-0.0014432 0.492287 -0.00395906)
(-0.00464662 0.50373 -0.00124387)
(-0.00728763 0.50823 0.00247828)
(-0.00387079 0.469532 0.00295927)
(-0.00246466 0.519817 0.00397496)
(6.44113e-05 0.517621 0.00333949)
(0.000520768 0.501195 0.00345207)
(0.0030874 0.511094 0.00364315)
(0.000263318 0.508957 0.00167282)
(-0.000802343 0.493689 0.000836928)
(8.323e-05 0.492949 0.00029028)
(-0.000755765 0.492839 -0.000565883)
(-7.69856e-05 0.494388 -0.00122367)
(9.36875e-05 0.482534 -0.00142887)
(0.000496729 0.478523 -0.00131538)
(-0.00213558 0.462743 -0.000485417)
(-0.00255149 0.463781 -0.00121116)
(-0.00373361 0.461687 -0.00150875)
(-0.00500259 0.495762 -0.0018426)
(-0.00687494 0.436669 -0.00313996)
(-0.00538622 0.308662 -0.00281509)
(1.60773e-05 0.0282078 -0.000188138)
(2.90615e-05 0.00595021 -0.000231866)
(2.35807e-05 0.00654174 -1.02851e-05)
(-2.32528e-05 0.00667554 -3.89671e-05)
(9.61235e-05 0.00601179 -1.70472e-05)
(9.66442e-05 0.00527478 -1.17091e-05)
(8.45934e-05 0.00471458 -1.12455e-05)
(6.93969e-05 0.00445379 -6.09094e-06)
(1.57591e-06 0.000302276 5.81337e-07)
(4.60322e-06 0.000313265 1.22753e-07)
(4.03358e-06 0.000340807 -1.69139e-07)
(4.36203e-06 0.000373841 -4.18186e-07)
(3.88478e-06 0.000400165 -4.80279e-07)
(3.48186e-06 0.000431538 -1.54661e-07)
(3.01858e-06 0.000474034 -2.26394e-07)
(2.58104e-06 0.000508676 -2.04598e-07)
(2.04687e-06 0.000528714 -1.31484e-07)
(1.63419e-06 0.000544768 -5.28072e-08)
(1.24591e-06 0.000557018 2.2745e-08)
(1.11245e-06 0.00056336 6.12109e-08)
(9.29732e-07 0.000565248 9.21896e-08)
(8.12859e-07 0.00056534 1.26177e-07)
(6.61872e-07 0.000565243 1.42995e-07)
(5.58615e-07 0.000565075 1.52899e-07)
(4.66428e-07 0.000564921 1.51034e-07)
(3.95465e-07 0.000564779 1.44605e-07)
(3.34261e-07 0.000564667 1.39577e-07)
(2.84589e-07 0.000564568 1.23405e-07)
(2.44577e-07 0.000564481 1.17137e-07)
(2.1423e-07 0.000564406 9.79473e-08)
(1.8932e-07 0.000564345 9.17971e-08)
(1.67779e-07 0.00056429 7.61872e-08)
(1.47939e-07 0.000564237 7.51316e-08)
(1.291e-07 0.000564194 6.4097e-08)
(1.10437e-07 0.000564163 6.63675e-08)
(9.20926e-08 0.000564145 5.9061e-08)
(7.49199e-08 0.000564147 6.3215e-08)
(5.85617e-08 0.000564164 5.68894e-08)
(4.32954e-08 0.000564181 6.01602e-08)
(2.84833e-08 0.000564194 5.37985e-08)
(1.66941e-08 0.000564222 5.77694e-08)
(5.66903e-09 0.000564255 5.1008e-08)
(3.02167e-09 0.000564317 5.58446e-08)
(2.889e-09 0.000564364 4.76036e-08)
(1.27162e-08 0.000564446 5.61115e-08)
(3.26296e-08 0.000564457 4.64859e-08)
(5.15804e-08 0.000564508 5.77582e-08)
(9.05695e-08 0.000564499 4.78214e-08)
(1.07814e-07 0.000564614 5.32268e-08)
(1.64436e-07 0.000564701 4.70755e-08)
(1.63879e-07 0.000564892 3.80894e-08)
(2.49512e-07 0.00056489 4.52225e-08)
(1.88165e-07 0.0005652 1.6598e-08)
(3.26761e-07 0.000565011 3.9258e-08)
(2.53356e-07 0.000566049 1.54582e-08)
(4.01291e-07 0.000568024 2.16425e-08)
(5.11967e-07 0.000580919 6.45629e-08)
(6.0996e-07 0.000616434 -4.36867e-08)
(7.67957e-07 0.000711897 2.55761e-08)
(1.18128e-06 0.000860213 -8.63515e-07)
(2.12716e-07 0.00112404 6.84066e-07)
(-3.89498e-07 0.00155961 -4.66771e-06)
(1.58727e-05 0.00256067 2.27781e-06)
(3.58865e-05 0.00390312 1.48166e-05)
(0.000205098 0.00492885 0.000237594)
(-0.000366047 0.00413731 0.000118092)
(-0.000682149 0.0263179 0.00226864)
(0.0215064 0.338607 0.0212621)
(0.0185369 0.557289 -0.00155615)
(0.00648403 0.482774 0.00052565)
(0.00310704 0.413731 -0.000565731)
(0.00521552 0.478361 -0.00130048)
(-0.0064737 0.467223 -0.00157923)
(-0.00117986 0.463283 -0.000100987)
(-0.000769577 0.462025 0.000960914)
(-0.00317058 0.50025 0.00124943)
(0.000180563 0.489649 0.00232312)
(-1.17656e-05 0.418666 0.0013236)
(-4.09525e-05 0.340045 0.00150297)
(-1.10646e-05 0.379005 0.0016696)
(-0.00048525 0.397869 0.000756636)
(-0.000825158 0.414276 -0.000752596)
(-0.000341536 0.436785 0.000287727)
(-0.000505529 0.512687 0.000900589)
(-0.000156206 0.473654 -0.000414132)
(-0.00183035 0.44904 -0.000968189)
(-0.00152936 0.492201 -0.00119258)
(-0.000984049 0.488601 -0.0012086)
(0.000661805 0.497642 -0.00156374)
(-0.00163986 0.516084 -0.000806329)
(-0.000612313 0.491047 -0.00109815)
(0.00106371 0.492256 -0.00219983)
(-0.00151532 0.494854 -0.00297983)
(-0.00363003 0.49609 -0.00274899)
(-0.00436402 0.422722 -0.002683)
(-0.00517691 0.42893 -0.00366797)
(-0.00461856 0.390838 -0.00279752)
(-0.00407208 0.487963 -0.00121828)
(-0.00329755 0.28309 0.0017946)
(0.000135925 0.0484746 -0.00055501)
(-0.00342143 0.388286 0.00282486)
(-0.00171724 0.468998 0.00275774)
(-0.00202666 0.461349 0.00174071)
(0.000657082 0.466356 0.000776178)
(3.42379e-06 0.000290112 1.19922e-06)
(6.62722e-06 0.000293989 8.76805e-07)
(5.56691e-06 0.000312068 -2.69397e-08)
(5.26062e-06 0.000342956 -1.79435e-09)
(4.37259e-06 0.000372931 -4.62675e-07)
(3.72726e-06 0.000404651 -7.66657e-08)
(3.05115e-06 0.000451785 -2.33898e-07)
(2.4963e-06 0.00049797 -2.13447e-07)
(2.09244e-06 0.000520889 -1.89529e-07)
(1.68858e-06 0.000536699 -1.10233e-07)
(1.3383e-06 0.000553193 -2.40115e-08)
(1.20432e-06 0.000562578 3.63125e-08)
(9.74499e-07 0.00056502 9.41065e-08)
(8.51168e-07 0.000565151 1.66916e-07)
(6.61556e-07 0.000565063 2.17201e-07)
(5.56584e-07 0.000564936 2.54479e-07)
(4.41812e-07 0.000564812 2.69204e-07)
(3.59377e-07 0.00056469 2.82388e-07)
(2.86474e-07 0.000564593 2.81795e-07)
(2.26319e-07 0.000564507 2.88034e-07)
(1.79867e-07 0.000564433 2.80715e-07)
(1.34382e-07 0.00056437 2.77016e-07)
(9.98702e-08 0.000564316 2.63558e-07)
(6.58088e-08 0.000564266 2.60237e-07)
(3.83348e-08 0.000564219 2.50638e-07)
(8.18621e-09 0.000564193 2.5007e-07)
(-1.65653e-08 0.0005642 2.42463e-07)
(-4.40477e-08 0.000564219 2.42414e-07)
(-6.61001e-08 0.000564237 2.35605e-07)
(-9.01859e-08 0.000564258 2.35594e-07)
(-1.08942e-07 0.000564284 2.29182e-07)
(-1.29796e-07 0.000564309 2.28903e-07)
(-1.45183e-07 0.000564354 2.23397e-07)
(-1.64705e-07 0.000564414 2.22112e-07)
(-1.72057e-07 0.000564506 2.16697e-07)
(-1.8498e-07 0.000564577 2.12141e-07)
(-1.7665e-07 0.000564681 2.08701e-07)
(-1.75309e-07 0.000564703 2.00824e-07)
(-1.55279e-07 0.000564798 2.00172e-07)
(-1.38147e-07 0.000564831 1.87998e-07)
(-1.25182e-07 0.000564998 1.87722e-07)
(-7.64555e-08 0.000565027 1.7276e-07)
(-1.03731e-07 0.000565271 1.79082e-07)
(1.63733e-08 0.000565188 1.67381e-07)
(-1.17748e-07 0.000565515 1.84284e-07)
(9.66974e-08 0.000565117 1.79947e-07)
(-1.38852e-07 0.000566114 2.1888e-07)
(1.77303e-07 0.00056863 2.35629e-07)
(-6.59556e-08 0.000583122 3.99527e-07)
(1.18944e-07 0.000619614 3.49978e-07)
(-6.41885e-07 0.000712116 8.84674e-07)
(-1.124e-06 0.0008666 -1.93082e-07)
(-1.44825e-06 0.00113947 2.42673e-06)
(1.21488e-06 0.00161821 -1.6418e-06)
(4.01906e-06 0.002625 1.21263e-05)
(1.50125e-05 0.00397827 6.51967e-05)
(2.82449e-05 0.00494932 0.000183526)
(8.54338e-05 0.0038384 -0.000109049)
(-0.000561315 0.0230428 0.00180579)
(0.00727991 0.366876 0.0216993)
(0.00792153 0.567069 -0.00251939)
(0.00626492 0.49954 -0.000432418)
(0.0028804 0.493578 0.00172279)
(0.00209127 0.490675 4.75211e-05)
(0.00188377 0.490767 0.000818792)
(0.000948196 0.484498 0.000707984)
(-0.000670312 0.496714 0.00124351)
(0.00457188 0.520413 0.001616)
(0.00305982 0.490114 0.000620709)
(0.000954631 0.496915 0.000233571)
(0.000757607 0.4898 0.0001009)
(7.95068e-05 0.491404 0.000285656)
(-0.000241612 0.490715 -9.17569e-05)
(1.40508e-05 0.484699 -0.000166657)
(0.000629033 0.4748 0.000507723)
(-0.000167855 0.4762 0.000141794)
(-0.000390607 0.488345 -0.000436568)
(-0.00127671 0.48616 -0.00038465)
(-0.000688287 0.491327 -3.5792e-05)
(0.001475 0.485625 0.000689421)
(0.00194838 0.487207 0.000725144)
(0.00139309 0.494768 0.000583149)
(-0.000613154 0.496299 0.00121248)
(0.000246711 0.49928 0.00138402)
(-0.00015366 0.504902 0.00087835)
(-0.00176401 0.514078 0.00222881)
(-0.00248579 0.448301 0.0018202)
(-0.0035293 0.394524 -0.000270159)
(-0.00377204 0.458882 -0.00137203)
(-0.00285917 0.46468 -0.00167356)
(-0.00818008 0.492616 -0.00253181)
(-0.00338881 0.439703 -0.00115128)
(-0.00467585 0.417737 -0.00525531)
(-0.00272202 0.403594 -0.00865966)
(-0.00187835 0.49552 -0.0126216)
(-0.00406932 0.478299 -0.021697)
(5.36317e-06 0.000162977 8.39844e-07)
(9.26714e-06 0.000294277 1.63087e-06)
(7.05502e-06 0.000291524 1.66147e-07)
(6.12651e-06 0.000311696 2.60539e-07)
(4.88233e-06 0.000340248 -4.3761e-07)
(3.85087e-06 0.00037471 -1.68789e-07)
(3.01787e-06 0.000428594 -2.74119e-07)
(2.40746e-06 0.000489483 -1.20006e-07)
(2.06267e-06 0.000521573 -2.09323e-07)
(1.78097e-06 0.000538688 -2.05198e-07)
(1.57479e-06 0.000554738 -1.4615e-07)
(1.40317e-06 0.00056289 -1.29394e-07)
(1.25796e-06 0.000564707 -1.00082e-07)