/*--------------------------------*- C++ -*----------------------------------*\
| =========                 |                                                 |
| \\      /  F ield         | OpenFOAM: The Open Source CFD Toolbox           |
|  \\    /   O peration     | Version:  2.3.0                                 |
|   \\  /    A nd           | Web:      www.OpenFOAM.org                      |
|    \\/     M anipulation  |                                                 |
\*---------------------------------------------------------------------------*/
FoamFile
{
    version     2.0;
    format      ascii;
    class       volScalarField;
    location    "37";
    object      alpha.water;
}
// * * * * * * * * * * * * * * * * * * * * * * * * * * * * * * * * * * * * * //

dimensions      [0 0 0 0 0 0 0];

internalField   nonuniform List<scalar> 
6144
(
4.8998e-06
5.60291e-06
6.03159e-06
6.44348e-06
6.86494e-06
7.47692e-06
8.21188e-06
9.27527e-06
9.90208e-06
9.98525e-06
9.9891e-06
9.99225e-06
9.99445e-06
9.99609e-06
9.99618e-06
9.99697e-06
9.99602e-06
9.99673e-06
9.99627e-06
9.99651e-06
9.99622e-06
9.99625e-06
9.99612e-06
9.996e-06
9.99579e-06
9.9954e-06
9.99495e-06
9.9948e-06
9.99465e-06
9.99463e-06
9.99426e-06
9.99448e-06
9.99381e-06
9.99453e-06
9.99345e-06
9.99487e-06
9.99303e-06
9.99528e-06
9.99203e-06
9.99485e-06
9.99052e-06
9.99462e-06
9.98918e-06
9.99558e-06
9.98859e-06
9.99747e-06
9.98946e-06
1.00007e-05
1.01044e-05
1.10598e-05
1.35403e-05
1.95779e-05
3.70872e-05
8.14715e-05
9.83078e-05
0.000119786
0.000116871
0.000364488
0.000378488
0.0512497
0.971263
0.999928
0.999999
0.999999
0.999999
0.999999
0.999999
0.999999
0.999999
0.999999
0.999999
0.999999
0.999999
0.999999
0.999999
0.999999
0.999999
0.999999
0.999999
0.999999
0.999999
0.999999
0.999999
0.999999
0.999999
0.999999
0.999999
0.999999
0.999999
0.999999
0.999999
0.999999
0.999999
0.999999
0.999999
1
4.59263e-06
5.62392e-06
6.35086e-06
6.84196e-06
7.40517e-06
7.92258e-06
8.47605e-06
9.32776e-06
9.93131e-06
9.98662e-06
9.986e-06
9.98557e-06
9.99532e-06
1.00014e-05
1.00031e-05
1.00036e-05
1.00029e-05
1.00031e-05
1.00026e-05
1.00025e-05
1.0002e-05
1.00019e-05
1.00016e-05
1.00014e-05
1.00012e-05
1.00011e-05
1.0001e-05
1.00012e-05
1.00012e-05
1.00013e-05
1.00012e-05
1.00015e-05
1.00013e-05
1.0002e-05
1.00015e-05
1.00026e-05
1.00014e-05
1.00034e-05
1.00008e-05
1.00037e-05
9.99991e-06
1.00045e-05
9.99931e-06
1.00058e-05
9.99877e-06
1.00084e-05
9.99675e-06
1.00235e-05
1.01631e-05
1.16727e-05
1.52995e-05
2.38423e-05
3.60573e-05
7.06823e-05
8.60043e-05
0.000116842
0.000137207
0.000380909
0.00107373
0.0580023
0.969196
0.999972
0.999999
0.999999
0.999999
0.999999
0.999999
0.999999
0.999999
0.999999
0.999999
0.999999
0.999999
0.999999
0.999999
0.999999
0.999999
0.999999
0.999999
0.999999
0.999999
0.999999
0.999999
0.999999
0.999999
0.999999
0.999999
0.999999
0.999999
0.999999
0.999999
0.999999
0.999999
0.999999
0.999999
1
4.32205e-06
5.27126e-06
6.33745e-06
6.91329e-06
7.54861e-06
8.01958e-06
8.57429e-06
9.24016e-06
9.78935e-06
9.90831e-06
9.92548e-06
9.95742e-06
9.98286e-06
9.99746e-06
1.00025e-05
1.00037e-05
1.00034e-05
1.00036e-05
1.00034e-05
1.00033e-05
1.0003e-05
1.00028e-05
1.00025e-05
1.00023e-05
1.0002e-05
1.00018e-05
1.00017e-05
1.00017e-05
1.00017e-05
1.00018e-05
1.00017e-05
1.00019e-05
1.00018e-05
1.00024e-05
1.0002e-05
1.00027e-05
1.00017e-05
1.00026e-05
1.00007e-05
1.0003e-05
9.99956e-06
1.00046e-05
9.99888e-06
1.00062e-05
9.99707e-06
1.00096e-05
9.99295e-06
1.00433e-05
1.02368e-05
1.19985e-05
1.66808e-05
2.75493e-05
3.93353e-05
5.34222e-05
8.39444e-05
0.000130986
0.000131065
0.000251217
0.000396268
0.0574144
0.969093
0.999967
0.999999
0.999999
0.999999
0.999999
0.999999
0.999998
0.999999
0.999999
0.999999
0.999999
0.999999
0.999999
0.999999
0.999999
0.999999
0.999999
0.999999
0.999999
0.999999
0.999999
0.999999
0.999999
0.999999
0.999999
0.999999
0.999999
0.999999
0.999999
0.999999
0.999999
0.999999
0.999999
0.999999
1
4.10604e-06
4.89277e-06
6.00866e-06
6.63091e-06
7.34755e-06
7.81917e-06
8.39859e-06
9.06866e-06
9.67475e-06
9.8506e-06
9.89143e-06
9.94177e-06
9.97596e-06
9.99348e-06
9.99918e-06
1.00007e-05
1.00005e-05
1.00006e-05
1.00004e-05
1.00005e-05
1.00002e-05
9.99999e-06
9.9996e-06
9.99922e-06
9.99878e-06
9.99842e-06
9.99815e-06
9.99801e-06
9.9979e-06
9.99789e-06
9.99787e-06
9.99807e-06
9.99816e-06
9.99867e-06
9.99857e-06
9.99925e-06
9.9987e-06
9.99969e-06
9.99813e-06
1.00004e-05
9.99729e-06
1.00018e-05
9.99614e-06
1.00034e-05
9.99448e-06
1.00076e-05
9.99381e-06
1.00697e-05
1.02961e-05
1.2461e-05
1.87026e-05
2.75221e-05
3.56712e-05
5.41937e-05
0.000103527
0.000137733
0.000147516
0.000213079
0.000174148
0.0783904
0.972287
0.999931
0.999974
0.999977
0.999975
0.999974
0.999972
0.999972
0.999972
0.999978
0.999982
0.999985
0.999988
0.999991
0.999995
0.999997
0.999998
0.999998
0.999998
0.999999
0.999999
0.999999
0.999999
0.999999
0.999999
0.999999
0.999999
0.999999
0.999999
0.999999
0.999999
0.999999
0.999999
0.999999
0.999999
1
3.84129e-06
4.46535e-06
5.57085e-06
6.21542e-06
7.07196e-06
7.59273e-06
8.24275e-06
8.86662e-06
9.54898e-06
9.80943e-06
9.88027e-06
9.94408e-06
9.97958e-06
9.99608e-06
1.00016e-05
1.0003e-05
1.00031e-05
1.00035e-05
1.00035e-05
1.00037e-05
1.00036e-05
1.00036e-05
1.00033e-05
1.0003e-05
1.00025e-05
1.00021e-05
1.00018e-05
1.00015e-05
1.00012e-05
1.00009e-05
1.00006e-05
1.00005e-05
1.00002e-05
1.00004e-05
1e-05
1.00005e-05
9.99971e-06
1.00006e-05
9.99881e-06
1.00011e-05
9.99792e-06
1.00026e-05
9.99744e-06
1.00056e-05
9.99897e-06
1.00089e-05
9.99856e-06
1.01136e-05
1.05132e-05
1.33843e-05
2.05799e-05
2.76041e-05
3.24052e-05
7.1932e-05
0.000122865
0.000127033
0.000121181
0.000155017
3.87239e-05
0.109868
0.98042
0.999347
0.999447
0.999496
0.999442
0.999402
0.99939
0.999374
0.999379
0.999455
0.999492
0.999517
0.999573
0.99967
0.999762
0.99983
0.999865
0.999895
0.999927
0.999958
0.999983
0.999992
0.999995
0.999998
0.999999
0.999999
0.999999
0.999999
0.999999
1
1
1
1
0.999999
0.999999
1
3.56721e-06
4.0111e-06
4.97177e-06
5.55803e-06
6.57744e-06
7.21657e-06
8.05215e-06
8.66962e-06
9.41444e-06
9.78276e-06
9.87057e-06
9.94222e-06
9.97699e-06
9.99155e-06
9.996e-06
9.99739e-06
9.99733e-06
9.99767e-06
9.99777e-06
9.99817e-06
9.99831e-06
9.99848e-06
9.99846e-06
9.99839e-06
9.99814e-06
9.99791e-06
9.99768e-06
9.99755e-06
9.99738e-06
9.99725e-06
9.997e-06
9.99698e-06
9.99671e-06
9.99696e-06
9.99657e-06
9.99718e-06
9.99631e-06
9.99744e-06
9.99533e-06
9.99805e-06
9.99458e-06
9.99914e-06
9.99486e-06
1.00016e-05
9.99667e-06
1.00059e-05
9.99714e-06
1.01332e-05
1.06085e-05
1.36643e-05
2.13339e-05
3.24424e-05
4.19528e-05
5.53188e-05
0.000106416
0.000145955
0.000149794
0.000147235
9.99252e-06
0.15621
0.986683
0.996899
0.99709
0.997138
0.996739
0.99628
0.996175
0.996224
0.996698
0.996976
0.996965
0.996859
0.997117
0.997588
0.99792
0.998396
0.998713
0.998803
0.998897
0.999218
0.999486
0.99967
0.999836
0.999932
0.999963
0.99998
0.999991
0.999995
0.999996
0.999997
1
1
1
1
1
1
3.34291e-06
3.60511e-06
4.34114e-06
4.77843e-06
5.87515e-06
6.63345e-06
7.80113e-06
8.47997e-06
9.258e-06
9.74606e-06
9.86058e-06
9.94115e-06
9.97997e-06
9.99544e-06
1.00001e-05
1.00018e-05
1.00016e-05
1.00018e-05
1.00015e-05
1.00012e-05
1.00008e-05
1.00006e-05
1.00004e-05
1.00001e-05
9.99973e-06
9.99931e-06
9.99896e-06
9.99873e-06
9.99854e-06
9.99843e-06
9.99824e-06
9.99823e-06
9.998e-06
9.9982e-06
9.99785e-06
9.9983e-06
9.99754e-06
9.99838e-06
9.99662e-06
9.99885e-06
9.99605e-06
1.00001e-05
9.99657e-06
1.00032e-05
9.99861e-06
1.00095e-05
9.99463e-06
1.01154e-05
1.04568e-05
1.28543e-05
2.0001e-05
3.31774e-05
4.52731e-05
6.43156e-05
9.57668e-05
0.000139263
0.000164721
0.000178329
9.99252e-06
0.222044
0.983778
0.99174
0.990685
0.990658
0.991374
0.991922
0.992605
0.992594
0.992969
0.992728
0.992241
0.993355
0.993619
0.99323
0.993174
0.994601
0.99596
0.995862
0.995694
0.99611
0.996094
0.996874
0.998355
0.998949
0.999122
0.999365
0.999756
0.99989
0.99994
0.999954
0.999952
0.999941
0.999931
0.999925
0.999922
0.999973
3.17323e-06
3.33408e-06
3.79826e-06
4.03348e-06
5.15235e-06
5.99878e-06
7.50195e-06
8.46579e-06
9.16355e-06
9.71765e-06
9.84682e-06
9.93517e-06
9.97705e-06
9.99482e-06
9.99953e-06
1.0002e-05
1.00017e-05
1.00017e-05
1.00015e-05
1.00016e-05
1.00018e-05
1.0002e-05
1.00021e-05
1.00022e-05
1.00022e-05
1.00023e-05
1.00022e-05
1.00022e-05
1.00022e-05
1.00022e-05
1.00022e-05
1.00022e-05
1.00022e-05
1.00023e-05
1.00022e-05
1.00026e-05
1.00023e-05
1.00027e-05
1.0002e-05
1.00034e-05
1.0002e-05
1.00051e-05
1.00026e-05
1.00091e-05
1.00043e-05
1.00166e-05
9.99806e-06
1.01084e-05
1.0457e-05
1.24879e-05
1.77322e-05
3.01083e-05
4.46264e-05
8.40144e-05
0.00011665
0.000160332
0.000168622
0.000163124
9.99252e-06
0.251511
0.982182
0.989227
0.98818
0.989341
0.990648
0.990964
0.99085
0.990504
0.990166
0.990045
0.990278
0.990697
0.99105
0.991398
0.991591
0.991756
0.991952
0.992375
0.992294
0.991467
0.990953
0.99256
0.994071
0.993512
0.992914
0.994297
0.997222
0.998401
0.99934
0.999949
1
1
1
1
1
1
3.02442e-06
3.20362e-06
3.41512e-06
3.44707e-06
4.50262e-06
5.34424e-06
6.94787e-06
8.26454e-06
9.06235e-06
9.65839e-06
9.80589e-06
9.91054e-06
9.9645e-06
9.99025e-06
9.99454e-06
9.99709e-06
9.9966e-06
9.99657e-06
9.99636e-06
9.99688e-06
9.99738e-06
9.99779e-06
9.99804e-06
9.99824e-06
9.99839e-06
9.99849e-06
9.99855e-06
9.99861e-06
9.99864e-06
9.99866e-06
9.99867e-06
9.99875e-06
9.99876e-06
9.99895e-06
9.99893e-06
9.99919e-06
9.99897e-06
9.99925e-06
9.99871e-06
9.99996e-06
9.99908e-06
1.00024e-05
1.00002e-05
1.00069e-05
1.00005e-05
1.00148e-05
9.99652e-06
1.00789e-05
1.03756e-05
1.21064e-05
1.63131e-05
2.79365e-05
4.63638e-05
7.99165e-05
0.000113982
0.000146077
0.000132585
0.000156841
9.99252e-06
0.172463
0.970009
0.99352
0.994009
0.995689
0.995769
0.994855
0.994657
0.995094
0.995058
0.995409
0.995842
0.995019
0.994131
0.993915
0.993534
0.993487
0.993771
0.993747
0.992602
0.991324
0.991872
0.993331
0.991807
0.988396
0.987889
0.990646
0.994053
0.995624
0.99715
0.998943
0.9998
0.999745
0.99971
0.999663
0.999595
0.99948
2.83782e-06
3.00793e-06
3.1833e-06
3.13963e-06
3.97782e-06
4.7391e-06
6.30235e-06
8.03147e-06
8.88344e-06
9.48323e-06
9.70194e-06
9.85497e-06
9.93928e-06
9.98264e-06
9.99497e-06
1.00007e-05
1.00011e-05
1.00011e-05
1.00008e-05
1.00011e-05
1.00012e-05
1.00013e-05
1.00012e-05
1.0001e-05
1.00008e-05
1.00007e-05
1.00006e-05
1.00005e-05
1.00004e-05
1.00002e-05
1.00001e-05
1e-05
9.9999e-06
9.99997e-06
9.99984e-06
9.99989e-06
9.99954e-06
9.99955e-06
9.99892e-06
9.9998e-06
9.99904e-06
1.00022e-05
9.99985e-06
1.0007e-05
1.00004e-05
1.0016e-05
9.99684e-06
1.00992e-05
1.03688e-05
1.17271e-05
1.53147e-05
2.60082e-05
4.38478e-05
7.17338e-05
0.000103614
0.000136935
0.000137855
0.000202231
8.57322e-05
0.121985
0.972089
0.99859
0.998843
0.999201
0.999278
0.999376
0.999377
0.999294
0.999209
0.999197
0.999189
0.999057
0.998803
0.998623
0.998421
0.998013
0.997654
0.997618
0.997738
0.997147
0.996611
0.996242
0.994889
0.994283
0.99417
0.994067
0.994399
0.99535
0.996631
0.997858
0.999016
0.999657
0.999706
0.99968
0.99979
0.999869
2.59437e-06
2.69542e-06
3.09238e-06
3.08008e-06
3.7762e-06
4.43029e-06
5.86799e-06
7.85538e-06
8.88272e-06
9.4407e-06
9.67743e-06
9.81489e-06
9.89702e-06
9.95244e-06
9.98028e-06
9.99401e-06
9.99614e-06
9.99727e-06
9.99776e-06
9.99863e-06
9.9992e-06
9.99964e-06
9.99987e-06
1e-05
1.00002e-05
1.00002e-05
1.00003e-05
1.00003e-05
1.00002e-05
1.00001e-05
1.00001e-05
1.00001e-05
1.00001e-05
1.00002e-05
1.00001e-05
1.00002e-05
9.99984e-06
9.99979e-06
9.99927e-06
1e-05
9.99943e-06
1.00023e-05
1.00001e-05
1.00071e-05
1.00021e-05
1.00194e-05
1.00094e-05
1.02103e-05
1.06584e-05
1.19745e-05
1.61715e-05
2.65763e-05
4.00883e-05
6.36015e-05
8.91001e-05
0.000129338
0.000120786
0.00025542
0.000346024
0.09105
0.974263
0.999876
0.999926
0.999945
0.999948
0.999951
0.999942
0.999933
0.999931
0.999932
0.999925
0.9999
0.999883
0.999868
0.999838
0.999814
0.999791
0.999762
0.9997
0.999619
0.99953
0.999375
0.999174
0.999064
0.998998
0.998866
0.998742
0.9987
0.998944
0.999185
0.999494
0.999744
0.999842
0.999836
0.999911
0.999958
1.66664e-06
2.46507e-06
3.08886e-06
3.4986e-06
4.24429e-06
5.06476e-06
6.38214e-06
8.09885e-06
9.03161e-06
9.5122e-06
9.72555e-06
9.84397e-06
9.90383e-06
9.95198e-06
9.98035e-06
9.99606e-06
9.9972e-06
9.99796e-06
9.99829e-06
9.9991e-06
9.99966e-06
1.00001e-05
1.00003e-05
1.00005e-05
1.00006e-05
1.00007e-05
1.00008e-05
1.00009e-05
1.00008e-05
1.00011e-05
1.00015e-05
1.00019e-05
1.00022e-05
1.00025e-05
1.00026e-05
1.00029e-05
1.00027e-05
1.00027e-05
1.00025e-05
1.00032e-05
1.0003e-05
1.00054e-05
1.00041e-05
1.0011e-05
1.00083e-05
1.00291e-05
1.00331e-05
1.0327e-05
1.10941e-05
1.29217e-05
1.82494e-05
2.83054e-05
3.90475e-05
5.57284e-05
7.14559e-05
0.00011797
0.000105434
0.000314377
0.000520752
0.0708229
0.976043
0.999958
0.999996
0.999997
0.999998
0.999998
0.999999
0.999999
0.999999
0.999999
0.999998
0.999998
0.999998
0.999997
0.999997
0.999997
0.999996
0.999995
0.999993
0.999992
0.99999
0.999985
0.999977
0.99997
0.999962
0.999956
0.999952
0.99995
0.999951
0.99995
0.999949
0.999962
0.999971
0.999975
0.999989
0.999996
1.94143e-06
2.74845e-06
3.16963e-06
3.72718e-06
4.68319e-06
5.81319e-06
7.14039e-06
8.26905e-06
9.17869e-06
9.61256e-06
9.79127e-06
9.89483e-06
9.93468e-06
9.97262e-06
9.99606e-06
1.00076e-05
1.00041e-05
1.00027e-05
1.00021e-05
1.00026e-05
1.00029e-05
1.00032e-05
1.00033e-05
1.00033e-05
1.00033e-05
1.00033e-05
1.00032e-05
1.00031e-05
1.0003e-05
1.00032e-05
1.00035e-05
1.00038e-05
1.00039e-05
1.0004e-05
1.00041e-05
1.00041e-05
1.00039e-05
1.00039e-05
1.00037e-05
1.00046e-05
1.00044e-05
1.00071e-05
1.00066e-05
1.0011e-05
1.00098e-05
1.00296e-05
1.00449e-05
1.03815e-05
1.15195e-05
1.43834e-05
2.08314e-05
3.13353e-05
4.1854e-05
5.58109e-05
5.99158e-05
0.000102222
0.000105108
0.000422136
0.000787553
0.0583692
0.964733
0.99993
1
1
1
1
1
1
1
1
1
1
1
1
1
1
1
1
1
1
1
1
1
1
1
1
1
1
1
1
1
0.999999
0.999999
0.999999
0.999999
0.999999
1.88249e-06
2.2778e-06
2.51948e-06
3.09957e-06
4.38337e-06
5.81589e-06
7.19783e-06
8.27827e-06
9.19375e-06
9.6471e-06
9.82716e-06
9.91502e-06
9.94679e-06
9.98873e-06
1.00079e-05
1.00079e-05
1.00079e-05
1.00079e-05
1.00069e-05
1.00069e-05
1.00069e-05
1.00069e-05
1.00068e-05
1.00066e-05
1.00064e-05
1.00063e-05
1.0006e-05
1.00058e-05
1.00056e-05
1.00055e-05
1.00055e-05
1.00055e-05
1.00055e-05
1.00054e-05
1.00052e-05
1.00051e-05
1.00047e-05
1.00047e-05
1.00046e-05
1.00054e-05
1.00054e-05
1.00076e-05
1.00081e-05
1.0011e-05
1.00104e-05
1.00296e-05
1.00491e-05
1.03902e-05
1.16783e-05
1.54219e-05
2.2829e-05
3.40543e-05
4.62633e-05
5.7958e-05
6.02188e-05
8.55027e-05
0.000125801
0.000543321
0.000797713
0.0520368
0.973081
0.999946
1
1
1
1
1
1
1
1
1
1
1
1
1
1
1
1
1
0.999999
0.999999
0.999999
0.999999
0.999999
1
1
1
1
1
1
1
1
1
1
1
0.999999
1.78161e-06
2.04569e-06
2.28335e-06
2.78955e-06
3.75207e-06
5.34938e-06
7.28399e-06
8.39152e-06
9.12122e-06
9.5912e-06
9.79463e-06
9.89323e-06
9.93731e-06
9.98631e-06
1.00054e-05
1.00073e-05
1.00069e-05
1.00071e-05
1.0006e-05
1.00059e-05
1.00058e-05
1.00058e-05
1.00055e-05
1.00053e-05
1.00052e-05
1.0005e-05
1.00049e-05
1.00046e-05
1.00044e-05
1.00044e-05
1.00044e-05
1.00044e-05
1.00045e-05
1.00045e-05
1.00043e-05
1.00043e-05
1.0004e-05
1.0004e-05
1.0004e-05
1.00047e-05
1.00049e-05
1.00068e-05
1.00072e-05
1.00103e-05
1.00095e-05
1.00277e-05
1.00587e-05
1.04558e-05
1.20298e-05
1.63107e-05
2.38456e-05
3.60043e-05
5.10921e-05
6.07226e-05
6.27947e-05
7.61778e-05
0.000178136
0.000676418
0.00156684
0.0572964
0.966774
0.999911
1
1
1
1
1
1
1
1
1
1
1
1
1
1
1
1
1
1
1
0.999999
0.999999
1
1
1
1
1
1
1
1
1
1
1
1
1
1.25127e-06
1.91719e-06
2.15874e-06
2.57079e-06
3.46972e-06
4.8192e-06
7.03192e-06
8.38298e-06
9.11217e-06
9.54854e-06
9.76888e-06
9.8832e-06
9.93772e-06
9.99171e-06
1.00127e-05
1.00127e-05
1.00127e-05
1.00127e-05
1.00122e-05
1.00119e-05
1.00116e-05
1.00114e-05
1.00112e-05
1.0011e-05
1.00109e-05
1.00108e-05
1.00107e-05
1.00105e-05
1.00103e-05
1.00103e-05
1.00103e-05
1.00103e-05
1.00103e-05
1.00103e-05
1.00102e-05
1.00101e-05
1.00099e-05
1.00099e-05
1.00099e-05
1.00106e-05
1.00108e-05
1.00127e-05
1.00137e-05
1.00142e-05
1.00142e-05
1.00263e-05
1.00542e-05
1.0497e-05
1.26999e-05
1.78115e-05
2.49171e-05
3.56512e-05
4.91653e-05
6.03859e-05
6.1e-05
0.000120217
0.000127132
0.000585575
0.000586044
0.0545646
0.977706
0.999955
1
1
1
1
1
1
1
1
1
1
1
1
1
1
1
1
1
1
1
0.999999
0.999999
1
1
1
1
1
1
1
1
1
1
1
1
1
4.35229e-06
5.42687e-06
6.00985e-06
6.4239e-06
6.77267e-06
7.40891e-06
8.47352e-06
9.51961e-06
9.83621e-06
9.8735e-06
9.91455e-06
9.95653e-06
9.99201e-06
1.00118e-05
1.00142e-05
1.00142e-05
1.00142e-05
1.00142e-05
1.00139e-05
1.00133e-05
1.00124e-05
1.00121e-05
1.00118e-05
1.00116e-05
1.00115e-05
1.00115e-05
1.00115e-05
1.00116e-05
1.00119e-05
1.00123e-05
1.00125e-05
1.00128e-05
1.00134e-05
1.00136e-05
1.00136e-05
1.00136e-05
1.00136e-05
1.00136e-05
1.00134e-05
1.00147e-05
1.00152e-05
1.00152e-05
1.00152e-05
1.00152e-05
1.00141e-05
1.00193e-05
1.00099e-05
1.00243e-05
1.00863e-05
1.07566e-05
1.28182e-05
1.85197e-05
3.31585e-05
7.78597e-05
9.34286e-05
0.000119974
0.000117503
0.000521848
0.00209747
0.0597104
0.95921
0.999851
0.999999
0.999999
0.999999
0.999999
0.999999
0.999999
0.999999
0.999999
0.999999
0.999999
0.999999
0.999999
0.999999
0.999999
0.999999
0.999999
0.999999
0.999999
0.999999
0.999999
0.999999
0.999999
0.999999
0.999999
0.999999
0.999999
0.999999
0.999999
0.999999
0.999999
0.999999
0.999999
0.999999
1
3.58798e-06
5.08937e-06
6.40092e-06
6.90428e-06
7.46961e-06
8.34723e-06
9.04115e-06
9.31832e-06
9.51188e-06
9.63764e-06
9.76419e-06
9.86955e-06
9.94657e-06
9.99299e-06
1.00088e-05
1.00127e-05
1.00125e-05
1.00128e-05
1.00126e-05
1.0013e-05
1.0013e-05
1.0013e-05
1.00128e-05
1.00125e-05
1.00123e-05
1.00121e-05
1.00119e-05
1.00118e-05
1.00117e-05
1.00114e-05
1.00113e-05
1.00113e-05
1.00113e-05
1.00113e-05
1.00113e-05
1.00114e-05
1.00112e-05
1.00116e-05
1.00107e-05
1.00122e-05
1.001e-05
1.00142e-05
1.00108e-05
1.00152e-05
1.00107e-05
1.00197e-05
1.00111e-05
1.01112e-05
1.03017e-05
1.15816e-05
1.40731e-05
2.21042e-05
3.2881e-05
6.93296e-05
8.81795e-05
0.000105028
0.000165122
0.000483074
0.00152492
0.0834519
0.97634
0.999999
0.999999
0.999999
0.999999
0.999999
0.999999
0.999999
0.999999
0.999999
0.999999
0.999999
0.999999
0.999999
0.999999
0.999999
0.999999
0.999999
0.999999
0.999999
0.999999
0.999999
0.999999
0.999999
0.999999
0.999999
0.999999
0.999999
0.999999
0.999999
0.999999
0.999999
0.999999
0.999999
0.999999
1
3.17109e-06
4.33468e-06
6.00147e-06
6.76277e-06
7.53079e-06
8.04737e-06
8.51306e-06
8.88394e-06
9.23973e-06
9.48658e-06
9.68003e-06
9.82656e-06
9.92255e-06
9.98331e-06
1.00047e-05
1.00102e-05
1.00102e-05
1.00104e-05
1.00103e-05
1.00104e-05
1.00102e-05
1.00102e-05
1.00099e-05
1.00097e-05
1.00094e-05
1.00091e-05
1.0009e-05
1.00088e-05
1.00086e-05
1.00085e-05
1.00085e-05
1.00085e-05
1.00085e-05
1.00084e-05
1.00084e-05
1.00084e-05
1.00082e-05
1.00084e-05
1.00079e-05
1.00086e-05
1.00077e-05
1.00101e-05
1.00078e-05
1.00126e-05
1.00087e-05
1.00204e-05
1.0023e-05
1.0243e-05
1.08327e-05
1.28479e-05
1.55379e-05
2.49197e-05
3.70135e-05
5.65696e-05
9.44715e-05
0.000114009
0.00013168
0.000389246
0.000373334
0.112823
0.996199
0.999998
0.999998
0.999998
0.999998
0.999998
0.999998
0.999998
0.999998
0.999998
0.999998
0.999998
0.999998
0.999999
0.999999
0.999999
0.999999
0.999998
0.999998
0.999999
0.999999
0.999999
0.999999
0.999999
0.999999
0.999999
0.999999
0.999999
0.999999
0.999999
0.999999
0.999999
0.999999
0.999999
0.999999
1
2.9228e-06
3.61246e-06
5.32582e-06
6.04441e-06
6.77199e-06
7.43858e-06
8.04283e-06
8.55363e-06
9.05422e-06
9.40474e-06
9.64134e-06
9.8103e-06
9.91298e-06
9.97823e-06
1.00019e-05
1.00083e-05
1.00081e-05
1.00082e-05
1.00079e-05
1.00079e-05
1.00077e-05
1.00075e-05
1.00072e-05
1.00069e-05
1.00066e-05
1.00064e-05
1.00063e-05
1.00062e-05
1.0006e-05
1.00059e-05
1.00059e-05
1.00059e-05
1.00059e-05
1.00059e-05
1.00058e-05
1.00058e-05
1.00057e-05
1.00059e-05
1.00056e-05
1.00062e-05
1.00058e-05
1.00078e-05
1.00063e-05
1.00104e-05
1.00069e-05
1.00204e-05
1.0027e-05
1.03152e-05
1.12589e-05
1.4e-05
1.76852e-05
2.4595e-05
3.33689e-05
5.83384e-05
0.000118449
0.000146494
0.00017865
0.000224838
9.43322e-05
0.118417
0.996988
0.999877
0.999878
0.999892
0.999879
0.999867
0.999848
0.999822
0.999796
0.999785
0.999783
0.999776
0.999818
0.999865
0.999884
0.999899
0.999924
0.999952
0.999972
0.999984
0.999991
0.999995
0.999998
0.999999
0.999999
0.999999
0.999999
0.999999
0.999999
0.999999
0.999999
1
0.999999
0.999999
0.999999
1
2.72379e-06
3.04599e-06
4.73695e-06
5.53902e-06
6.17538e-06
6.8868e-06
7.65059e-06
8.30511e-06
8.9221e-06
9.35297e-06
9.62252e-06
9.80468e-06
9.91001e-06
9.97612e-06
1.00005e-05
1.00074e-05
1.00072e-05
1.00071e-05
1.00068e-05
1.00067e-05
1.00065e-05
1.00063e-05
1.00059e-05
1.00056e-05
1.00053e-05
1.00051e-05
1.0005e-05
1.00049e-05
1.00048e-05
1.00047e-05
1.00047e-05
1.00047e-05
1.00047e-05
1.00047e-05
1.00047e-05
1.00047e-05
1.00046e-05
1.00048e-05
1.00046e-05
1.00052e-05
1.00051e-05
1.00068e-05
1.00057e-05
1.00097e-05
1.0006e-05
1.00199e-05
1.00276e-05
1.03491e-05
1.14733e-05
1.45864e-05
1.86417e-05
2.78107e-05
3.12167e-05
0.000105225
0.000127888
0.000118337
0.000113299
0.000108554
5.13607e-05
0.178735
0.992381
0.99791
0.997897
0.997988
0.997686
0.997459
0.996971
0.996366
0.996213
0.996059
0.994859
0.994745
0.996252
0.996802
0.996995
0.997158
0.997711
0.998282
0.998743
0.999147
0.99943
0.999635
0.999787
0.999893
0.999959
0.999987
0.999996
0.999999
0.999999
0.999999
1
1
1
1
0.999999
1
2.5425e-06
2.63213e-06
4.10777e-06
5.11975e-06
5.71108e-06
6.43551e-06
7.29811e-06
8.09418e-06
8.83403e-06
9.32664e-06
9.61631e-06
9.80375e-06
9.90997e-06
9.97542e-06
9.9998e-06
1.00066e-05
1.00064e-05
1.00062e-05
1.00058e-05
1.00057e-05
1.00054e-05
1.00052e-05
1.00048e-05
1.00045e-05
1.00042e-05
1.0004e-05
1.00039e-05
1.00039e-05
1.00038e-05
1.00038e-05
1.00038e-05
1.00039e-05
1.00039e-05
1.00039e-05
1.0004e-05
1.00041e-05
1.00041e-05
1.00042e-05
1.00042e-05
1.00049e-05
1.00048e-05
1.00064e-05
1.00054e-05
1.00093e-05
1.00055e-05
1.00195e-05
1.00301e-05
1.03728e-05
1.158e-05
1.48446e-05
1.94605e-05
2.84158e-05
3.59598e-05
7.11442e-05
0.000161058
0.000176622
0.000160128
0.000133487
5.72276e-05
0.245206
0.978855
0.989378
0.988607
0.988429
0.986303
0.983678
0.981745
0.980881
0.980567
0.980835
0.981831
0.982272
0.982569
0.982819
0.983151
0.983908
0.985204
0.986707
0.988359
0.990304
0.99246
0.994463
0.996271
0.997768
0.998732
0.999265
0.99959
0.999819
0.999945
0.99999
0.999999
1
1
1
1
1
2.42353e-06
2.33507e-06
3.42322e-06
4.58863e-06
5.34121e-06
6.07729e-06
6.98933e-06
7.90279e-06
8.77585e-06
9.31738e-06
9.61731e-06
9.81115e-06
9.91489e-06
9.97627e-06
9.99964e-06
1.00061e-05
1.0006e-05
1.00058e-05
1.00054e-05
1.00053e-05
1.00051e-05
1.00048e-05
1.00044e-05
1.00042e-05
1.00039e-05
1.00037e-05
1.00037e-05
1.00036e-05
1.00036e-05
1.00035e-05
1.00036e-05
1.00037e-05
1.00038e-05
1.00038e-05
1.00039e-05
1.0004e-05
1.0004e-05
1.00042e-05
1.00042e-05
1.0005e-05
1.00049e-05
1.00064e-05
1.00055e-05
1.00093e-05
1.00055e-05
1.00197e-05
1.00309e-05
1.03857e-05
1.16515e-05
1.49459e-05
2.00659e-05
2.89916e-05
4.21675e-05
6.92369e-05
0.000134762
0.000210771
0.0002703
0.00026685
1.05746e-05
0.342665
0.962428
0.973991
0.971874
0.970705
0.969325
0.968187
0.967611
0.967154
0.966993
0.967467
0.967646
0.968071
0.968111
0.967728
0.967531
0.967411
0.96755
0.968348
0.968813
0.969791
0.9717
0.974676
0.978612
0.983184
0.987254
0.990318
0.992671
0.99484
0.996629
0.997933
0.998564
0.998525
0.997834
0.996702
0.995308
0.994077
2.36713e-06
2.1507e-06
2.83903e-06
3.74749e-06
4.8829e-06
5.66243e-06
6.6861e-06
7.71963e-06
8.73124e-06
9.31618e-06
9.62933e-06
9.81921e-06
9.91958e-06
9.97825e-06
9.99972e-06
1.00056e-05
1.00056e-05
1.00055e-05
1.00053e-05
1.00052e-05
1.00052e-05
1.00052e-05
1.00049e-05
1.00047e-05
1.00046e-05
1.00044e-05
1.00043e-05
1.00043e-05
1.00042e-05
1.00041e-05
1.00041e-05
1.00041e-05
1.00042e-05
1.00041e-05
1.00041e-05
1.00042e-05
1.00042e-05
1.00042e-05
1.00042e-05
1.00051e-05
1.00047e-05
1.00064e-05
1.00054e-05
1.00092e-05
1.00055e-05
1.00196e-05
1.00341e-05
1.04046e-05
1.17616e-05
1.50713e-05
2.02697e-05
3.04631e-05
4.24765e-05
0.000113429
0.000179762
0.00021911
0.000254958
0.000187535
9.99252e-06
0.344477
0.9573
0.968243
0.96761
0.967652
0.968078
0.967953
0.966953
0.965831
0.96549
0.965425
0.965479
0.965855
0.96584
0.965233
0.964181
0.963467
0.962834
0.962083
0.960713
0.958554
0.956497
0.95512
0.953706
0.952819
0.953737
0.956778
0.95865
0.959728
0.960327
0.957537
0.95103
0.938933
0.91776
0.885028
0.826849
0.627811
2.38664e-06
2.03826e-06
2.4302e-06
2.81964e-06
3.91336e-06
4.89081e-06
6.2207e-06
7.51017e-06
8.68764e-06
9.32779e-06
9.64412e-06
9.83108e-06
9.92742e-06
9.98195e-06
1.00028e-05
1.0007e-05
1.00069e-05
1.00067e-05
1.00064e-05
1.00062e-05
1.00061e-05
1.00061e-05
1.00059e-05
1.00057e-05
1.00055e-05
1.00054e-05
1.00053e-05
1.00053e-05
1.00052e-05
1.00052e-05
1.00053e-05
1.00053e-05
1.00054e-05
1.00054e-05
1.00054e-05
1.00055e-05
1.00055e-05
1.00056e-05
1.00055e-05
1.00064e-05
1.00062e-05
1.00078e-05
1.00071e-05
1.00104e-05
1.00069e-05
1.00212e-05
1.00396e-05
1.04325e-05
1.18856e-05
1.5402e-05
2.07691e-05
3.23195e-05
4.46927e-05
0.000100138
0.000136744
0.00013029
0.000124013
0.000111898
4.48838e-05
0.276203
0.965066
0.981187
0.982261
0.984296
0.985617
0.986515
0.986948
0.987067
0.986618
0.986248
0.985982
0.985606
0.984837
0.983596
0.981854
0.98007
0.978301
0.97633
0.974022
0.970344
0.964962
0.958969
0.951887
0.944093
0.938162
0.935452
0.932494
0.92688
0.922097
0.917947
0.914012
0.909678
0.901975
0.890974
0.88284
0.890442
2.21523e-06
1.96638e-06
2.15315e-06
2.09501e-06
2.69635e-06
3.60581e-06
5.27169e-06
7.18347e-06
8.64524e-06
9.33456e-06
9.65821e-06
9.84261e-06
9.93561e-06
9.98544e-06
1.00047e-05
1.00078e-05
1.00078e-05
1.00078e-05
1.00076e-05
1.00075e-05
1.00075e-05
1.00075e-05
1.00074e-05
1.00072e-05
1.0007e-05
1.00068e-05
1.00067e-05
1.00066e-05
1.00065e-05
1.00064e-05
1.00064e-05
1.00064e-05
1.00064e-05
1.00064e-05
1.00064e-05
1.00063e-05
1.00063e-05
1.00062e-05
1.00061e-05
1.00068e-05
1.00068e-05
1.00082e-05
1.00077e-05
1.00106e-05
1.00074e-05
1.00216e-05
1.00441e-05
1.04648e-05
1.20519e-05
1.58522e-05
2.11701e-05
3.24665e-05
4.41644e-05
5.72377e-05
0.000117105
0.000166469
0.000160534
0.000120891
5.51248e-05
0.202891
0.982794
0.994971
0.995553
0.996896
0.997441
0.997817
0.997996
0.998192
0.998129
0.997659
0.997488
0.997362
0.997176
0.997142
0.996675
0.99569
0.994623
0.994087
0.994048
0.992768
0.989437
0.986368
0.981639
0.975071
0.968575
0.961892
0.955004
0.947807
0.941595
0.937721
0.936021
0.938566
0.945662
0.957947
0.975571
0.988951
2.09886e-06
1.91924e-06
1.94941e-06
1.6995e-06
1.99813e-06
2.43394e-06
3.80527e-06
6.64631e-06
8.57297e-06
9.33943e-06
9.67711e-06
9.85736e-06
9.9439e-06
9.98759e-06
1.00054e-05
1.00078e-05
1.00079e-05
1.00078e-05
1.00079e-05
1.00078e-05
1.00079e-05
1.00078e-05
1.00078e-05
1.00077e-05
1.00075e-05
1.00074e-05
1.00072e-05
1.00071e-05
1.0007e-05
1.0007e-05
1.0007e-05
1.0007e-05
1.0007e-05
1.0007e-05
1.0007e-05
1.0007e-05
1.0007e-05
1.0007e-05
1.00068e-05
1.00076e-05
1.00076e-05
1.00088e-05
1.00085e-05
1.0011e-05
1.00081e-05
1.00219e-05
1.00499e-05
1.05154e-05
1.22954e-05
1.65084e-05
2.20567e-05
3.28882e-05
4.59573e-05
6.1838e-05
8.06713e-05
0.00014095
0.00018616
0.000288687
0.00015693
0.132088
0.994016
0.999463
0.99952
0.999697
0.999747
0.999792
0.999805
0.999809
0.999798
0.999774
0.999728
0.999688
0.99966
0.999623
0.999544
0.999473
0.999436
0.99939
0.999232
0.998848
0.998391
0.997934
0.997242
0.99597
0.994216
0.99239
0.990579
0.98853
0.986526
0.985682
0.985978
0.9885
0.992486
0.996491
0.998884
0.999624
1.57911e-06
1.78862e-06
1.69902e-06
1.50688e-06
1.8401e-06
2.3025e-06
3.46963e-06
6.36266e-06
8.51562e-06
9.36767e-06
9.71051e-06
9.8828e-06
9.95526e-06
9.99085e-06
1.00049e-05
1.00079e-05
1.00078e-05
1.00078e-05
1.00078e-05
1.00078e-05
1.00078e-05
1.00078e-05
1.00078e-05
1.00076e-05
1.00075e-05
1.00073e-05
1.00072e-05
1.00071e-05
1.0007e-05
1.0007e-05
1.00069e-05
1.00068e-05
1.00067e-05
1.00068e-05
1.00066e-05
1.00066e-05
1.00063e-05
1.00067e-05
1.00061e-05
1.0007e-05
1.00065e-05
1.00088e-05
1.00076e-05
1.0011e-05
1.00079e-05
1.00196e-05
1.00535e-05
1.05469e-05
1.25263e-05
1.71874e-05
2.34238e-05
3.37464e-05
4.59097e-05
6.271e-05
6.34652e-05
0.00011894
0.000116643
0.000397033
0.000304207
0.0962188
0.996252
0.999979
0.999978
0.999988
0.99999
0.999992
0.999992
0.999991
0.99999
0.999988
0.999986
0.999984
0.999982
0.999978
0.999973
0.999967
0.999962
0.999955
0.999942
0.999919
0.999897
0.999878
0.999846
0.99979
0.999728
0.999663
0.999592
0.999506
0.999462
0.999487
0.999601
0.999704
0.999854
0.999949
0.999986
0.999994
1.62879e-06
1.5044e-06
1.42044e-06
1.63386e-06
2.34436e-06
3.86628e-06
6.18605e-06
8.33327e-06
9.13354e-06
9.51804e-06
9.7665e-06
9.90882e-06
9.9605e-06
9.99146e-06
1.00059e-05
1.00078e-05
1.00079e-05
1.00078e-05
1.00079e-05
1.00078e-05
1.00079e-05
1.00078e-05
1.00078e-05
1.00077e-05
1.00076e-05
1.00075e-05
1.00073e-05
1.00072e-05
1.0007e-05
1.00068e-05
1.00066e-05
1.00064e-05
1.00062e-05
1.00059e-05
1.00059e-05
1.00055e-05
1.00053e-05
1.0005e-05
1.00049e-05
1.00052e-05
1.00055e-05
1.00067e-05
1.00068e-05
1.00083e-05
1.00063e-05
1.00164e-05
1.00542e-05
1.05703e-05
1.28047e-05
1.79079e-05
2.44391e-05
3.52044e-05
4.49713e-05
6.10683e-05
6.53287e-05
9.68973e-05
0.000133006
0.000452457
0.000622077
0.0787323
0.984071
1
0.999999
1
1
1
0.999999
0.999999
0.999999
0.999999
0.999999
0.999999
0.999999
0.999999
0.999999
0.999999
0.999999
0.999998
0.999998
0.999998
0.999999
0.999999
0.999999
0.999998
0.999998
0.999998
0.999998
0.999997
0.999997
0.999998
0.999999
0.999999
0.999999
0.999998
0.999999
0.999999
1.52867e-06
1.39147e-06
1.27851e-06
1.38927e-06
2.51327e-06
4.81611e-06
7.43383e-06
8.93572e-06
9.41784e-06
9.65565e-06
9.82971e-06
9.9311e-06
9.95128e-06
9.98262e-06
1.00012e-05
1.00059e-05
1.00058e-05
1.0006e-05
1.00059e-05
1.0006e-05
1.00059e-05
1.00058e-05
1.00056e-05
1.00053e-05
1.00051e-05
1.00048e-05
1.00044e-05
1.0004e-05