/*--------------------------------*- C++ -*----------------------------------*\
| =========                 |                                                 |
| \\      /  F ield         | OpenFOAM: The Open Source CFD Toolbox           |
|  \\    /   O peration     | Version:  2.3.0                                 |
|   \\  /    A nd           | Web:      www.OpenFOAM.org                      |
|    \\/     M anipulation  |                                                 |
\*---------------------------------------------------------------------------*/
FoamFile
{
    version     2.0;
    format      ascii;
    class       volScalarField;
    location    "37";
    object      alpha.air;
}
// * * * * * * * * * * * * * * * * * * * * * * * * * * * * * * * * * * * * * //

dimensions      [0 0 0 0 0 0 0];

internalField   nonuniform List<scalar> 
6144
(
0.999995
0.999994
0.999994
0.999994
0.999993
0.999993
0.999992
0.999991
0.99999
0.99999
0.99999
0.99999
0.99999
0.99999
0.99999
0.99999
0.99999
0.99999
0.99999
0.99999
0.99999
0.99999
0.99999
0.99999
0.99999
0.99999
0.99999
0.99999
0.99999
0.99999
0.99999
0.99999
0.99999
0.99999
0.99999
0.99999
0.99999
0.99999
0.99999
0.99999
0.99999
0.99999
0.99999
0.99999
0.99999
0.99999
0.99999
0.99999
0.99999
0.999989
0.999986
0.99998
0.999963
0.999919
0.999902
0.99988
0.999883
0.999636
0.999622
0.94875
0.0287367
7.2316e-05
5.48946e-07
5.67914e-07
5.65034e-07
5.85777e-07
6.53797e-07
6.77713e-07
6.66147e-07
6.42293e-07
6.22548e-07
6.07623e-07
5.98191e-07
5.92086e-07
5.87047e-07
5.80655e-07
5.72285e-07
5.65882e-07
5.63172e-07
5.62879e-07
5.63763e-07
5.64025e-07
5.6355e-07
5.64965e-07
5.80488e-07
6.30056e-07
6.70445e-07
6.67302e-07
6.52999e-07
6.33034e-07
6.14415e-07
5.99545e-07
5.97036e-07
5.97744e-07
5.77751e-07
4.6449e-07
0.999995
0.999994
0.999994
0.999993
0.999993
0.999992
0.999992
0.999991
0.99999
0.99999
0.99999
0.99999
0.99999
0.99999
0.99999
0.99999
0.99999
0.99999
0.99999
0.99999
0.99999
0.99999
0.99999
0.99999
0.99999
0.99999
0.99999
0.99999
0.99999
0.99999
0.99999
0.99999
0.99999
0.99999
0.99999
0.99999
0.99999
0.99999
0.99999
0.99999
0.99999
0.99999
0.99999
0.99999
0.99999
0.99999
0.99999
0.99999
0.99999
0.999988
0.999985
0.999976
0.999964
0.999929
0.999914
0.999883
0.999863
0.999619
0.998926
0.941998
0.0308037
2.77864e-05
5.48945e-07
5.56311e-07
5.49074e-07
5.9032e-07
7.28794e-07
7.30923e-07
6.75857e-07
6.42804e-07
6.19794e-07
6.03789e-07
5.94472e-07
5.88615e-07
5.85116e-07
5.78812e-07
5.64966e-07
5.58123e-07
5.57281e-07
5.61272e-07
5.69442e-07
5.81147e-07
6.00817e-07
6.48874e-07
7.32837e-07
8.14627e-07
8.09752e-07
7.94111e-07
7.60257e-07
7.16097e-07
6.74284e-07
6.33225e-07
5.94033e-07
5.82284e-07
5.63189e-07
4.58499e-07
0.999996
0.999995
0.999994
0.999993
0.999992
0.999992
0.999991
0.999991
0.99999
0.99999
0.99999
0.99999
0.99999
0.99999
0.99999
0.99999
0.99999
0.99999
0.99999
0.99999
0.99999
0.99999
0.99999
0.99999
0.99999
0.99999
0.99999
0.99999
0.99999
0.99999
0.99999
0.99999
0.99999
0.99999
0.99999
0.99999
0.99999
0.99999
0.99999
0.99999
0.99999
0.99999
0.99999
0.99999
0.99999
0.99999
0.99999
0.99999
0.99999
0.999988
0.999983
0.999972
0.999961
0.999947
0.999916
0.999869
0.999869
0.999749
0.999604
0.942586
0.0309068
3.29954e-05
5.48939e-07
5.48997e-07
5.49003e-07
5.4906e-07
1.03886e-06
1.83932e-06
1.22935e-06
6.15746e-07
6.16676e-07
6.27137e-07
6.84625e-07
8.12913e-07
8.96408e-07
8.57523e-07
6.76219e-07
6.16255e-07
6.1105e-07
6.36624e-07
6.58383e-07
6.70068e-07
6.95449e-07
7.72378e-07
8.64311e-07
8.57874e-07
8.25974e-07
8.07844e-07
7.75673e-07
7.33679e-07
6.91956e-07
6.68516e-07
6.48861e-07
6.23544e-07
5.76896e-07
4.5916e-07
0.999996
0.999995
0.999994
0.999993
0.999993
0.999992
0.999992
0.999991
0.99999
0.99999
0.99999
0.99999
0.99999
0.99999
0.99999
0.99999
0.99999
0.99999
0.99999
0.99999
0.99999
0.99999
0.99999
0.99999
0.99999
0.99999
0.99999
0.99999
0.99999
0.99999
0.99999
0.99999
0.99999
0.99999
0.99999
0.99999
0.99999
0.99999
0.99999
0.99999
0.99999
0.99999
0.99999
0.99999
0.99999
0.99999
0.99999
0.99999
0.99999
0.999988
0.999981
0.999972
0.999964
0.999946
0.999896
0.999862
0.999852
0.999787
0.999826
0.92161
0.0277126
6.91228e-05
2.61284e-05
2.26674e-05
2.45496e-05
2.63348e-05
2.77969e-05
2.81401e-05
2.77871e-05
2.23988e-05
1.77947e-05
1.4882e-05
1.21714e-05
8.56496e-06
5.25012e-06
3.16272e-06
2.25077e-06
2.03518e-06
1.98865e-06
1.29732e-06
6.77326e-07
6.78581e-07
7.1027e-07
8.08982e-07
9.27046e-07
8.51882e-07
8.00169e-07
7.17963e-07
6.80414e-07
6.34269e-07
5.9004e-07
5.79761e-07
5.94649e-07
6.13058e-07
5.91988e-07
4.69339e-07
0.999996
0.999996
0.999994
0.999994
0.999993
0.999992
0.999992
0.999991
0.99999
0.99999
0.99999
0.99999
0.99999
0.99999
0.99999
0.99999
0.99999
0.99999
0.99999
0.99999
0.99999
0.99999
0.99999
0.99999
0.99999
0.99999
0.99999
0.99999
0.99999
0.99999
0.99999
0.99999
0.99999
0.99999
0.99999
0.99999
0.99999
0.99999
0.99999
0.99999
0.99999
0.99999
0.99999
0.99999
0.99999
0.99999
0.99999
0.99999
0.999989
0.999987
0.999979
0.999972
0.999968
0.999928
0.999877
0.999873
0.999879
0.999845
0.999961
0.890132
0.0195797
0.000653229
0.000552634
0.000504403
0.000557668
0.000597973
0.000610232
0.000625586
0.000620726
0.000545018
0.000507539
0.000482745
0.000427292
0.000330305
0.000238233
0.000169697
0.000134897
0.000104756
7.31843e-05
4.16596e-05
1.73668e-05
8.27496e-06
4.59354e-06
2.12992e-06
1.00147e-06
7.49498e-07
7.49886e-07
5.79002e-07
5.45081e-07
4.48955e-07
4.48748e-07
4.52628e-07
4.78858e-07
5.4865e-07
5.81327e-07
4.84585e-07
0.999996
0.999996
0.999995
0.999994
0.999993
0.999993
0.999992
0.999991
0.999991
0.99999
0.99999
0.99999
0.99999
0.99999
0.99999
0.99999
0.99999
0.99999
0.99999
0.99999
0.99999
0.99999
0.99999
0.99999
0.99999
0.99999
0.99999
0.99999
0.99999
0.99999
0.99999
0.99999
0.99999
0.99999
0.99999
0.99999
0.99999
0.99999
0.99999
0.99999
0.99999
0.99999
0.99999
0.99999
0.99999
0.99999
0.99999
0.99999
0.999989
0.999986
0.999979
0.999968
0.999958
0.999945
0.999894
0.999854
0.99985
0.999853
0.99999
0.84379
0.0133171
0.00310079
0.00291001
0.00286227
0.00326117
0.00372008
0.00382464
0.00377579
0.00330187
0.00302352
0.00303537
0.00314073
0.00288328
0.00241199
0.00207992
0.00160401
0.00128731
0.00119674
0.00110293
0.000781524
0.000513602
0.000330043
0.000163769
6.81525e-05
3.65536e-05
1.99068e-05
9.29298e-06
5.11024e-06
3.58276e-06
2.95633e-06
4.6284e-07
2.92448e-07
2.92447e-07
2.92447e-07
2.92448e-07
2.92448e-07
0.999997
0.999996
0.999996
0.999995
0.999994
0.999993
0.999992
0.999992
0.999991
0.99999
0.99999
0.99999
0.99999
0.99999
0.99999
0.99999
0.99999
0.99999
0.99999
0.99999
0.99999
0.99999
0.99999
0.99999
0.99999
0.99999
0.99999
0.99999
0.99999
0.99999
0.99999
0.99999
0.99999
0.99999
0.99999
0.99999
0.99999
0.99999
0.99999
0.99999
0.99999
0.99999
0.99999
0.99999
0.99999
0.99999
0.99999
0.99999
0.99999
0.999987
0.99998
0.999967
0.999955
0.999936
0.999904
0.999861
0.999835
0.999822
0.99999
0.777956
0.0162218
0.00825981
0.00931548
0.00934223
0.00862568
0.00807796
0.00739488
0.007406
0.0070307
0.00727159
0.00775882
0.00664468
0.00638144
0.0067704
0.00682628
0.00539879
0.00404025
0.00413758
0.00430631
0.00389044
0.003906
0.00312578
0.00164533
0.00105134
0.000877905
0.000635171
0.000243784
0.000109673
5.97658e-05
4.60285e-05
4.80209e-05
5.88223e-05
6.89754e-05
7.49487e-05
7.83995e-05
2.71272e-05
0.999997
0.999997
0.999996
0.999996
0.999995
0.999994
0.999992
0.999992
0.999991
0.99999
0.99999
0.99999
0.99999
0.99999
0.99999
0.99999
0.99999
0.99999
0.99999
0.99999
0.99999
0.99999
0.99999
0.99999
0.99999
0.99999
0.99999
0.99999
0.99999
0.99999
0.99999
0.99999
0.99999
0.99999
0.99999
0.99999
0.99999
0.99999
0.99999
0.99999
0.99999
0.99999
0.99999
0.99999
0.99999
0.99999
0.99999
0.99999
0.99999
0.999988
0.999982
0.99997
0.999955
0.999916
0.999883
0.99984
0.999831
0.999837
0.99999
0.748489
0.0178179
0.0107733
0.0118196
0.0106587
0.00935245
0.00903551
0.0091501
0.00949613
0.00983379
0.00995541
0.0097215
0.00930278
0.00895004
0.0086024
0.0084094
0.008244
0.00804834
0.00762487
0.00770608
0.0085325
0.00904738
0.00744037
0.00592871
0.00648798
0.00708625
0.00570296
0.00277843
0.00159928
0.000660423
5.10829e-05
4.31356e-07
4.31356e-07
4.31356e-07
4.31356e-07
4.31356e-07
4.31356e-07
0.999997
0.999997
0.999997
0.999997
0.999995
0.999995
0.999993
0.999992
0.999991
0.99999
0.99999
0.99999
0.99999
0.99999
0.99999
0.99999
0.99999
0.99999
0.99999
0.99999
0.99999
0.99999
0.99999
0.99999
0.99999
0.99999
0.99999
0.99999
0.99999
0.99999
0.99999
0.99999
0.99999
0.99999
0.99999
0.99999
0.99999
0.99999
0.99999
0.99999
0.99999
0.99999
0.99999
0.99999
0.99999
0.99999
0.99999
0.99999
0.99999
0.999988
0.999984
0.999972
0.999954
0.99992
0.999886
0.999854
0.999867
0.999843
0.99999
0.827537
0.0299907
0.0064798
0.00599149
0.00431072
0.00423117
0.00514541
0.00534286
0.00490627
0.00494228
0.00459071
0.00415827
0.00498073
0.00586943
0.00608484
0.00646591
0.00651311
0.00622855
0.00625277
0.00739845
0.00867556
0.00812779
0.00666935
0.00819251
0.0116043
0.0121105
0.00935391
0.00594683
0.00437634
0.00285011
0.00105672
0.000199756
0.000254703
0.000290033
0.00033743
0.000405165
0.000520379
0.999997
0.999997
0.999997
0.999997
0.999996
0.999995
0.999994
0.999992
0.999991
0.999991
0.99999
0.99999
0.99999
0.99999
0.99999
0.99999
0.99999
0.99999
0.99999
0.99999
0.99999
0.99999
0.99999
0.99999
0.99999
0.99999
0.99999
0.99999
0.99999
0.99999
0.99999
0.99999
0.99999
0.99999
0.99999
0.99999
0.99999
0.99999
0.99999
0.99999
0.99999
0.99999
0.99999
0.99999
0.99999
0.99999
0.99999
0.99999
0.99999
0.999988
0.999985
0.999974
0.999956
0.999928
0.999896
0.999863
0.999862
0.999798
0.999914
0.878015
0.0279115
0.00140971
0.00115677
0.000799297
0.000722264
0.000624424
0.000623063
0.0007063
0.000790862
0.000803199
0.000810819
0.000943029
0.00119693
0.00137741
0.00157883
0.00198683
0.00234623
0.00238179
0.00226151
0.00285296
0.00338922
0.00375805
0.00511141
0.00571652
0.00583009
0.00593338
0.00560087
0.00465026
0.00336909
0.00214165
0.000984337
0.000342942
0.00029392
0.000319515
0.000210365
0.000130976
0.999997
0.999997
0.999997
0.999997
0.999996
0.999996
0.999994
0.999992
0.999991
0.999991
0.99999
0.99999
0.99999
0.99999
0.99999
0.99999
0.99999
0.99999
0.99999
0.99999
0.99999
0.99999
0.99999
0.99999
0.99999
0.99999
0.99999
0.99999
0.99999
0.99999
0.99999
0.99999
0.99999
0.99999
0.99999
0.99999
0.99999
0.99999
0.99999
0.99999
0.99999
0.99999
0.99999
0.99999
0.99999
0.99999
0.99999
0.99999
0.999989
0.999988
0.999984
0.999973
0.99996
0.999936
0.999911
0.999871
0.999879
0.999745
0.999654
0.90895
0.0257373
0.000124169
7.39465e-05
5.54597e-05
5.24243e-05
4.85341e-05
5.83499e-05
6.69261e-05
6.85609e-05
6.81354e-05
7.47041e-05
0.000100149
0.000116971
0.000132128
0.000161585
0.000186348
0.000208755
0.000237531
0.000299645
0.000381446
0.000470068
0.000624904
0.000825551
0.000935848
0.00100181
0.00113394
0.00125789
0.00130041
0.00105624
0.000815112
0.000505861
0.000256127
0.000157778
0.000164419
8.92911e-05
4.16065e-05
0.999998
0.999998
0.999997
0.999997
0.999996
0.999995
0.999994
0.999992
0.999991
0.99999
0.99999
0.99999
0.99999
0.99999
0.99999
0.99999
0.99999
0.99999
0.99999
0.99999
0.99999
0.99999
0.99999
0.99999
0.99999
0.99999
0.99999
0.99999
0.99999
0.99999
0.99999
0.99999
0.99999
0.99999
0.99999
0.99999
0.99999
0.99999
0.99999
0.99999
0.99999
0.99999
0.99999
0.99999
0.99999
0.99999
0.99999
0.99999
0.999989
0.999987
0.999982
0.999972
0.999961
0.999944
0.999929
0.999882
0.999895
0.999686
0.999479
0.929177
0.0239565
4.17791e-05
3.67385e-06
3.01604e-06
2.15564e-06
1.69546e-06
1.45555e-06
1.32789e-06
1.28128e-06
1.30444e-06
1.50153e-06
1.8636e-06
2.27311e-06
2.58451e-06
2.8041e-06
3.10173e-06
3.86005e-06
5.27794e-06
6.77809e-06
8.11678e-06
1.00203e-05
1.52102e-05
2.26583e-05
3.01548e-05
3.82451e-05
4.35162e-05
4.79043e-05
4.96678e-05
4.90024e-05
4.96233e-05
5.0539e-05
3.78067e-05
2.88867e-05
2.45431e-05
1.07606e-05
3.81098e-06
0.999998
0.999997
0.999997
0.999996
0.999995
0.999994
0.999993
0.999992
0.999991
0.99999
0.99999
0.99999
0.99999
0.99999
0.99999
0.99999
0.99999
0.99999
0.99999
0.99999
0.99999
0.99999
0.99999
0.99999
0.99999
0.99999
0.99999
0.99999
0.99999
0.99999
0.99999
0.99999
0.99999
0.99999
0.99999
0.99999
0.99999
0.99999
0.99999
0.99999
0.99999
0.99999
0.99999
0.99999
0.99999
0.99999
0.99999
0.99999
0.999988
0.999986
0.999979
0.999969
0.999958
0.999944
0.99994
0.999898
0.999895
0.999578
0.999212
0.941631
0.0352673
6.95917e-05
3.19341e-07
3.2504e-07
3.23977e-07
3.51413e-07
3.80815e-07
3.94328e-07
3.96801e-07
3.96125e-07
3.93202e-07
3.92711e-07
3.95882e-07
4.04623e-07
4.17459e-07
4.32431e-07
4.4727e-07
4.67815e-07
4.81953e-07
4.68453e-07
4.32111e-07
3.32837e-07
2.92865e-07
2.92589e-07
2.92315e-07
2.92042e-07
2.91771e-07
2.91499e-07
2.91229e-07
4.68442e-07
4.84221e-07
1.25523e-06
1.45271e-06
8.47239e-07
7.88835e-07
8.84136e-07
0.999998
0.999998
0.999997
0.999997
0.999996
0.999994
0.999993
0.999992
0.999991
0.99999
0.99999
0.99999
0.99999
0.99999
0.99999
0.99999
0.99999
0.99999
0.99999
0.99999
0.99999
0.99999
0.99999
0.99999
0.99999
0.99999
0.99999
0.99999
0.99999
0.99999
0.99999
0.99999
0.99999
0.99999
0.99999
0.99999
0.99999
0.99999
0.99999
0.99999
0.99999
0.99999
0.99999
0.99999
0.99999
0.99999
0.99999
0.99999
0.999988
0.999985
0.999977
0.999966
0.999954
0.999942
0.99994
0.999914
0.999874
0.999457
0.999202
0.947963
0.0269192
5.38789e-05
3.1934e-07
3.32518e-07
3.44545e-07
3.60556e-07
3.6037e-07
3.56199e-07
3.50251e-07
3.48298e-07
3.49331e-07
3.52626e-07
3.59841e-07
3.71658e-07
3.89072e-07
4.10705e-07
4.33816e-07
4.57111e-07
4.78821e-07
5.02137e-07
5.27931e-07
5.47359e-07
5.45483e-07
5.02744e-07
4.13481e-07
3.64971e-07
3.4002e-07
3.17632e-07
2.9096e-07
2.67336e-07
2.57692e-07
2.76821e-07
3.33579e-07
4.0959e-07
4.73013e-07
5.06344e-07
0.999998
0.999998
0.999998
0.999997
0.999996
0.999995
0.999993
0.999992
0.999991
0.99999
0.99999
0.99999
0.99999
0.99999
0.99999
0.99999
0.99999
0.99999
0.99999
0.99999
0.99999
0.99999
0.99999
0.99999
0.99999
0.99999
0.99999
0.99999
0.99999
0.99999
0.99999
0.99999
0.99999
0.99999
0.99999
0.99999
0.99999
0.99999
0.99999
0.99999
0.99999
0.99999
0.99999
0.99999
0.99999
0.99999
0.99999
0.99999
0.999988
0.999984
0.999976
0.999964
0.999949
0.999939
0.999937
0.999924
0.999822
0.999324
0.998433
0.942704
0.0332263
8.92034e-05
3.19339e-07
3.29238e-07
3.28939e-07
3.26425e-07
3.25967e-07
3.26149e-07
3.26881e-07
3.28472e-07
3.30725e-07
3.33264e-07
3.36947e-07
3.42442e-07
3.49724e-07
3.6029e-07
3.73962e-07
3.93217e-07
4.17325e-07
4.51438e-07
4.97693e-07
5.38712e-07
5.41037e-07
4.99111e-07
4.08999e-07
3.46829e-07
3.20739e-07
3.04476e-07
2.88435e-07
2.69797e-07
2.50184e-07
2.38037e-07
2.34417e-07
2.39052e-07
2.50157e-07
2.38187e-07
0.999999
0.999998
0.999998
0.999997
0.999997
0.999995
0.999993
0.999992
0.999991
0.99999
0.99999
0.99999
0.99999
0.99999
0.99999
0.99999
0.99999
0.99999
0.99999
0.99999
0.99999
0.99999
0.99999
0.99999
0.99999
0.99999
0.99999
0.99999
0.99999
0.99999
0.99999
0.99999
0.99999
0.99999
0.99999
0.99999
0.99999
0.99999
0.99999
0.99999
0.99999
0.99999
0.99999
0.99999
0.99999
0.99999
0.99999
0.99999
0.999987
0.999982
0.999975
0.999964
0.999951
0.99994
0.999939
0.99988
0.999873
0.999414
0.999414
0.945435
0.0222941
4.48806e-05
3.1934e-07
3.2415e-07
3.23957e-07
3.23957e-07
3.24068e-07
3.24738e-07
3.25426e-07
3.26013e-07
3.26723e-07
3.27556e-07
3.28701e-07
3.30496e-07
3.33531e-07
3.39642e-07
3.50495e-07
3.69564e-07
3.96886e-07
4.36857e-07
4.90229e-07
5.34683e-07
5.35019e-07
4.77148e-07
3.86158e-07
3.42359e-07
3.17924e-07
3.0147e-07
2.84963e-07
2.67831e-07
2.50277e-07
2.33147e-07
2.16297e-07
2.01531e-07
1.9293e-07
1.92534e-07
0.999996
0.999995
0.999994
0.999994
0.999993
0.999993
0.999992
0.99999
0.99999
0.99999
0.99999
0.99999
0.99999
0.99999
0.99999
0.99999
0.99999
0.99999
0.99999
0.99999
0.99999
0.99999
0.99999
0.99999
0.99999
0.99999
0.99999
0.99999
0.99999
0.99999
0.99999
0.99999
0.99999
0.99999
0.99999
0.99999
0.99999
0.99999
0.99999
0.99999
0.99999
0.99999
0.99999
0.99999
0.99999
0.99999
0.99999
0.99999
0.99999
0.999989
0.999987
0.999981
0.999967
0.999922
0.999907
0.99988
0.999882
0.999478
0.997903
0.94029
0.0407902
0.000149054
5.48946e-07
5.7991e-07
5.76666e-07
5.77153e-07
5.84821e-07
6.18227e-07
6.71393e-07
6.56889e-07
6.31405e-07
6.18025e-07
6.09732e-07
6.04116e-07
5.98524e-07
5.91497e-07
5.83778e-07
5.77119e-07
5.72931e-07
5.70633e-07
5.69833e-07
5.70651e-07
5.72246e-07
5.76361e-07
5.87342e-07
6.10269e-07
6.39385e-07
6.46391e-07
6.41106e-07
6.33677e-07
6.27279e-07
6.21597e-07
6.2041e-07
6.14962e-07
5.59788e-07
4.54516e-07
0.999996
0.999995
0.999994
0.999993
0.999993
0.999992
0.999991
0.999991
0.99999
0.99999
0.99999
0.99999
0.99999
0.99999
0.99999
0.99999
0.99999
0.99999
0.99999
0.99999
0.99999
0.99999
0.99999
0.99999
0.99999
0.99999
0.99999
0.99999
0.99999
0.99999
0.99999
0.99999
0.99999
0.99999
0.99999
0.99999
0.99999
0.99999
0.99999
0.99999
0.99999
0.99999
0.99999
0.99999
0.99999
0.99999
0.99999
0.99999
0.99999
0.999988
0.999986
0.999978
0.999967
0.999931
0.999912
0.999895
0.999835
0.999517
0.998475
0.916548
0.0236599
1.02931e-06
5.48879e-07
5.48955e-07
5.48945e-07
5.49022e-07
5.85769e-07
7.01249e-07
7.64718e-07
7.70745e-07
7.7129e-07
7.46207e-07
7.11721e-07
6.82782e-07
6.48846e-07
6.12944e-07
5.88097e-07
5.79218e-07
5.79361e-07
5.842e-07
5.91485e-07
6.1081e-07
6.42419e-07
6.9922e-07
7.35029e-07
7.62648e-07
7.70576e-07
7.56528e-07
7.36087e-07
7.1561e-07
6.96995e-07
6.83068e-07
6.67674e-07
6.43557e-07
5.68772e-07
4.54281e-07
0.999997
0.999996
0.999994
0.999993
0.999992
0.999992
0.999991
0.999991
0.999991
0.999991
0.99999
0.99999
0.99999
0.99999
0.99999
0.99999
0.99999
0.99999
0.99999
0.99999
0.99999
0.99999
0.99999
0.99999
0.99999
0.99999
0.99999
0.99999
0.99999
0.99999
0.99999
0.99999
0.99999
0.99999
0.99999
0.99999
0.99999
0.99999
0.99999
0.99999
0.99999
0.99999
0.99999
0.99999
0.99999
0.99999
0.99999
0.99999
0.999989
0.999987
0.999984
0.999975
0.999963
0.999943
0.999906
0.999886
0.999868
0.999611
0.999627
0.887177
0.00380099
2.05238e-06
2.3928e-06
1.94706e-06
2.11937e-06
2.21611e-06
2.28934e-06
2.31747e-06
2.25156e-06
2.17372e-06
2.10896e-06
2.00071e-06
1.57269e-06
9.00569e-07
7.59577e-07
9.52146e-07
1.326e-06
1.6781e-06
1.588e-06
7.76794e-07
5.91536e-07
6.22998e-07
7.27665e-07
8.92259e-07
8.43977e-07
8.41231e-07
8.07619e-07
7.74705e-07
7.39779e-07
7.03954e-07
6.58559e-07
6.52702e-07
6.57294e-07
6.55831e-07
6.07324e-07
4.56116e-07
0.999997
0.999996
0.999995
0.999994
0.999993
0.999993
0.999992
0.999991
0.999991
0.999991
0.99999
0.99999
0.99999
0.99999
0.99999
0.99999
0.99999
0.99999
0.99999
0.99999
0.99999
0.99999
0.99999
0.99999
0.99999
0.99999
0.99999
0.99999
0.99999
0.99999
0.99999
0.99999
0.99999
0.99999
0.99999
0.99999
0.99999
0.99999
0.99999
0.99999
0.99999
0.99999
0.99999
0.99999
0.99999
0.99999
0.99999
0.99999
0.999989
0.999986
0.999982
0.999975
0.999967
0.999942
0.999882
0.999854
0.999821
0.999775
0.999906
0.881583
0.00301228
0.000123329
0.000122347
0.00010822
0.000121
0.000133201
0.000151534
0.000178482
0.000204484
0.000215298
0.000217359
0.000223935
0.000181713
0.000135378
0.000115518
0.000101336
7.58149e-05
4.77445e-05
2.81796e-05
1.59022e-05
8.89187e-06
4.69533e-06
2.23252e-06
1.0857e-06
8.6159e-07
1.03127e-06
7.90731e-07
7.78032e-07
7.03466e-07
6.53804e-07
5.65807e-07
4.95408e-07
5.23663e-07
5.95493e-07
5.96904e-07
4.75401e-07
0.999997
0.999997
0.999995
0.999994
0.999994
0.999993
0.999992
0.999992
0.999991
0.999991
0.99999
0.99999
0.99999
0.99999
0.99999
0.99999
0.99999
0.99999
0.99999
0.99999
0.99999
0.99999
0.99999
0.99999
0.99999
0.99999
0.99999
0.99999
0.99999
0.99999
0.99999
0.99999
0.99999
0.99999
0.99999
0.99999
0.99999
0.99999
0.99999
0.99999
0.99999
0.99999
0.99999
0.99999
0.99999
0.99999
0.99999
0.99999
0.999989
0.999985
0.999981
0.999972
0.999969
0.999895
0.999872
0.999882
0.999887
0.999891
0.999949
0.821265
0.00761928
0.00208998
0.0021034
0.00201166
0.00231375
0.00254134
0.00302927
0.00363354
0.00378699
0.00394093
0.00514078
0.00525534
0.00374807
0.00319811
0.00300492
0.00284194
0.00228902
0.00171796
0.001257
0.00085326
0.000569637
0.000364951
0.000213044
0.000106786
4.12691e-05
1.2909e-05
3.58993e-06
1.1149e-06
5.5284e-07
5.73884e-07
4.71105e-07
3.86856e-07
3.93395e-07
4.79929e-07
5.69384e-07
4.86727e-07
0.999997
0.999997
0.999996
0.999995
0.999994
0.999994
0.999993
0.999992
0.999991
0.999991
0.99999
0.99999
0.99999
0.99999
0.99999
0.99999
0.99999
0.99999
0.99999
0.99999
0.99999
0.99999
0.99999
0.99999
0.99999
0.99999
0.99999
0.99999
0.99999
0.99999
0.99999
0.99999
0.99999
0.99999
0.99999
0.99999
0.99999
0.99999
0.99999
0.99999
0.99999
0.99999
0.99999
0.99999
0.99999
0.99999
0.99999
0.99999
0.999988
0.999985
0.999981
0.999972
0.999964
0.999929
0.999839
0.999823
0.99984
0.999867
0.999943
0.754794
0.0211453
0.0106224
0.0113925
0.0115714
0.0136967
0.0163216
0.0182549
0.0191193
0.0194326
0.0191652
0.0181691
0.017728
0.0174314
0.0171808
0.016849
0.0160917
0.0147957
0.0132926
0.0116407
0.00969553
0.0075403
0.00553726
0.00372926
0.00223192
0.00126799
0.000735366
0.00041018
0.000180808
5.45956e-05
1.00896e-05
1.27343e-06
2.92448e-07
2.92449e-07
3.41478e-07
4.60014e-07
4.2488e-07
0.999998
0.999998
0.999997
0.999995
0.999995
0.999994
0.999993
0.999992
0.999991
0.999991
0.99999
0.99999
0.99999
0.99999
0.99999
0.99999
0.99999
0.99999
0.99999
0.99999
0.99999
0.99999
0.99999
0.99999
0.99999
0.99999
0.99999
0.99999
0.99999
0.99999
0.99999
0.99999
0.99999
0.99999
0.99999
0.99999
0.99999
0.99999
0.99999
0.99999
0.99999
0.99999
0.99999
0.99999
0.99999
0.99999
0.99999
0.99999
0.999988
0.999985
0.99998
0.999971
0.999958
0.999931
0.999865
0.999789
0.99973
0.999733
0.999989
0.657335
0.0375721
0.0260089
0.0281261
0.0292954
0.0306749
0.0318128
0.032389
0.0328458
0.033007
0.0325326
0.032354
0.0319287
0.031889
0.0322715
0.0324688
0.0325885
0.0324504
0.031652
0.0311868
0.0302093
0.0282997
0.0253244
0.0213879
0.0168156
0.0127456
0.00968242
0.00732853
0.00515989
0.00337073
0.00206663
0.00143612
0.0014748
0.00216603
0.00329812
0.00469219
0.00592282
0.999998
0.999998
0.999997
0.999996
0.999995
0.999994
0.999993
0.999992
0.999991
0.999991
0.99999
0.99999
0.99999
0.99999
0.99999
0.99999
0.99999
0.99999
0.99999
0.99999
0.99999
0.99999
0.99999
0.99999
0.99999
0.99999
0.99999
0.99999
0.99999
0.99999
0.99999
0.99999
0.99999
0.99999
0.99999
0.99999
0.99999
0.99999
0.99999
0.99999
0.99999
0.99999
0.99999
0.99999
0.99999
0.99999
0.99999
0.99999
0.999988
0.999985
0.99998
0.99997
0.999958
0.999887
0.99982
0.999781
0.999745
0.999812
0.99999
0.655523
0.0426998
0.0317571
0.0323899
0.0323476
0.0319219
0.0320474
0.0330472
0.0341686
0.0345099
0.0345749
0.0345214
0.0341453
0.0341599
0.0347672
0.0358192
0.0365328
0.0371657
0.0379167
0.0392869
0.0414465
0.0435027
0.0448803
0.0462941
0.0471811
0.0462627
0.043222
0.0413505
0.0402723
0.0396726
0.0424629
0.0489697
0.0610674
0.0822403
0.114972
0.173151
0.372189
0.999998
0.999998
0.999998
0.999997
0.999996
0.999995
0.999994
0.999992
0.999991
0.999991
0.99999
0.99999
0.99999
0.99999
0.99999
0.99999
0.99999
0.99999
0.99999
0.99999
0.99999
0.99999
0.99999
0.99999
0.99999
0.99999
0.99999
0.99999
0.99999
0.99999
0.99999
0.99999
0.99999
0.99999
0.99999
0.99999
0.99999
0.99999
0.99999
0.99999
0.99999
0.99999
0.99999
0.99999
0.99999
0.99999
0.99999
0.99999
0.999988
0.999985
0.999979
0.999968
0.999955
0.9999
0.999863
0.99987
0.999876
0.999888
0.999955
0.723797
0.0349341
0.0188131
0.0177392
0.0157042
0.014383
0.0134854
0.0130524
0.0129333
0.0133825
0.0137521
0.0140183
0.0143937
0.0151627
0.0164041
0.0181455
0.0199305
0.0216987
0.0236696
0.025978
0.0296561
0.0350384
0.0410311
0.048113
0.0559065
0.061838
0.0645478
0.0675058
0.0731195
0.0779031
0.0820527
0.0859883
0.0903221
0.0980251
0.109026
0.11716
0.109558
0.999998
0.999998
0.999998
0.999998
0.999997
0.999996
0.999995
0.999993
0.999991
0.999991
0.99999
0.99999
0.99999
0.99999
0.99999
0.99999
0.99999
0.99999
0.99999
0.99999
0.99999
0.99999
0.99999
0.99999
0.99999
0.99999
0.99999
0.99999
0.99999
0.99999
0.99999
0.99999
0.99999
0.99999
0.99999
0.99999
0.99999
0.99999
0.99999
0.99999
0.99999
0.99999
0.99999
0.99999
0.99999
0.99999
0.99999
0.99999
0.999988
0.999984
0.999979
0.999968
0.999956
0.999943
0.999883
0.999834
0.999839
0.999879
0.999945
0.797109
0.0172064
0.00502916
0.00444746
0.00310396
0.0025588
0.00218324
0.0020036
0.00180795
0.00187077
0.00234061
0.00251177
0.00263757
0.00282375
0.00285771
0.00332461
0.00431041
0.00537703
0.00591307
0.00595198
0.00723243
0.0105634
0.0136317
0.0183614
0.0249293
0.0314246
0.0381084
0.0449962
0.0521927
0.058405
0.0622792
0.063979
0.0614344
0.0543385
0.0420529
0.024429
0.0110487
0.999998
0.999998
0.999998
0.999998
0.999998
0.999998
0.999996
0.999993
0.999991
0.999991
0.99999
0.99999
0.99999
0.99999
0.99999
0.99999
0.99999
0.99999
0.99999
0.99999
0.99999
0.99999
0.99999
0.99999
0.99999
0.99999
0.99999
0.99999
0.99999
0.99999
0.99999
0.99999
0.99999
0.99999
0.99999
0.99999
0.99999
0.99999
0.99999
0.99999
0.99999
0.99999
0.99999
0.99999
0.99999
0.99999
0.99999
0.999989
0.999988
0.999983
0.999978
0.999967
0.999954
0.999938
0.999919
0.999859
0.999814
0.999711
0.999843
0.867912
0.00598355
0.00053719
0.000479823
0.000302876
0.000252731
0.000207738
0.00019505
0.000190892
0.000201572
0.000225675
0.00027234
0.000312057
0.000339859
0.000377219
0.000456467
0.000526951
0.000564375
0.000609524
0.000768475
0.00115226
0.0016087
0.00206625
0.00275757
0.00402993
0.00578435
0.00761003
0.00942064
0.0114699
0.0134745
0.0143183
0.0140222
0.0115
0.00751368
0.00350922
0.00111584
0.000376278
0.999998
0.999998
0.999998
0.999998
0.999998
0.999998
0.999997
0.999994
0.999991
0.999991
0.99999
0.99999
0.99999
0.99999
0.99999
0.99999
0.99999
0.99999
0.99999
0.99999
0.99999
0.99999
0.99999
0.99999
0.99999
0.99999
0.99999
0.99999
0.99999
0.99999
0.99999
0.99999
0.99999
0.99999
0.99999
0.99999
0.99999
0.99999
0.99999
0.99999
0.99999
0.99999
0.99999
0.99999
0.99999
0.99999
0.99999
0.999989
0.999987
0.999983
0.999977
0.999966
0.999954
0.999937
0.999937
0.999881
0.999883
0.999603
0.999696
0.903781
0.00374804
2.10041e-05
2.1546e-05
1.1614e-05
1.03638e-05
8.45884e-06
8.19164e-06
8.58582e-06
9.70637e-06
1.17251e-05
1.39979e-05
1.60459e-05
1.83588e-05
2.1833e-05
2.69559e-05
3.2577e-05
3.81448e-05
4.51724e-05
5.81883e-05
8.11181e-05
0.000102827
0.000122026
0.000154287
0.000210106
0.000272478
0.000336846
0.00040846
0.000493614
0.000537602
0.000512686
0.000398713
0.000296274
0.00014574
5.11344e-05
1.42739e-05
5.51231e-06
0.999998
0.999998
0.999999
0.999998
0.999998
0.999996
0.999994
0.999992
0.999991
0.99999
0.99999
0.99999
0.99999
0.99999
0.99999
0.99999
0.99999
0.99999
0.99999
0.99999
0.99999
0.99999
0.99999
0.99999
0.99999
0.99999
0.99999
0.99999
0.99999
0.99999
0.99999
0.99999
0.99999
0.99999
0.99999
0.99999
0.99999
0.99999
0.99999
0.99999
0.99999
0.99999
0.99999
0.99999
0.99999
0.99999
0.99999
0.999989
0.999987
0.999982
0.999976
0.999965
0.999955
0.999939
0.999935
0.999903
0.999867
0.999548
0.999378
0.921268
0.015929
3.19337e-07
1.06253e-06
3.251e-07
4.32649e-07
4.81147e-07
5.46765e-07
5.81612e-07
6.22727e-07
6.54706e-07
6.62787e-07
6.70997e-07
6.87396e-07
7.10949e-07
7.08795e-07
6.97746e-07
8.07812e-07
1.81469e-06
2.36288e-06
1.70778e-06
1.38941e-06
1.3334e-06
1.43303e-06
1.72181e-06
1.91018e-06
2.12823e-06
2.28852e-06
2.72761e-06
2.5938e-06
1.93572e-06
1.39729e-06
1.15408e-06
1.36273e-06
1.53574e-06
9.48739e-07
7.49835e-07
0.999998
0.999999
0.999999
0.999999
0.999997
0.999995
0.999993
0.999991
0.999991
0.99999
0.99999
0.99999
0.99999
0.99999
0.99999
0.99999
0.99999
0.99999
0.99999
0.99999
0.99999
0.99999
0.99999
0.99999
0.99999
0.99999
0.99999
0.99999
0.99999
0.99999
0.99999
0.99999
0.99999
0.99999
0.99999
0.99999
0.99999
0.99999
0.99999
0.99999
0.99999
0.99999
0.99999
0.99999
0.99999
0.99999
0.99999
0.999989
0.999987
0.999982
0.999975
0.999964
0.999955
0.99994
0.999933
0.999919
0.999835
0.999509
0.998491
0.923393
0.0147391
3.19337e-07
5.64889e-07
5.58981e-07
5.25025e-07
4.99664e-07
4.83609e-07
4.75793e-07
4.79815e-07
4.95799e-07
5.27124e-07
5.65747e-07
6.07725e-07
6.51442e-07
6.97233e-07
7.16725e-07
7.1272e-07
6.94744e-07
6.69972e-07
6.56286e-07
6.51051e-07
6.37283e-07
5.89926e-07
4.72384e-07
3.61575e-07
3.30899e-07
3.24275e-07
3.16725e-07
3.02363e-07
2.60495e-07
2.32896e-07
2.2697e-07
2.27906e-07
2.64149e-07
3.16247e-07
3.37902e-07
0.999998
0.999998
0.999999
0.999999
0.999998
0.999996
0.999993
0.999991
0.99999
0.99999
0.99999
0.99999
0.99999
0.99999
0.99999
0.99999
0.99999
0.99999
0.99999
0.99999
0.99999
0.99999
0.99999
0.99999
0.99999
0.99999
0.99999
0.99999
0.99999
0.99999
0.99999
0.99999
0.99999
0.99999
0.99999
0.99999
0.99999
0.99999
0.99999
0.99999
0.99999
0.99999
0.99999
0.99999
0.99999
0.99999
0.99999
0.999989
0.999987
0.999982
0.999976
0.999965
0.999952
0.999939
0.999935
0.999919
0.999787
0.999323
0.997441
0.931637
0.0554606
3.19336e-07
3.19338e-07
3.36933e-07
3.32232e-07
3.33308e-07
3.39459e-07
3.51881e-07
3.68315e-07
3.86577e-07
4.05734e-07
4.27402e-07
4.60682e-07
5.03452e-07
5.39675e-07
5.70653e-07
5.87738e-07
5.96562e-07
6.09067e-07
6.32474e-07
6.53826e-07
6.53616e-07
6.16118e-07
5.03101e-07
3.82832e-07
3.37138e-07
3.1814e-07
2.9946e-07
2.81405e-07
2.55274e-07
2.2299e-07
2.03552e-07
1.9524e-07
1.94396e-07
1.94494e-07
1.93333e-07
0.999999
0.999998
0.999999
0.999999
0.999999
0.999997
0.999994
0.999991
0.999991
0.99999
0.99999
0.99999
0.99999
0.99999
0.99999
0.99999
0.99999
0.99999
0.99999
0.99999
0.99999
0.99999
0.99999
0.99999
0.99999
0.99999
0.99999
0.99999
0.99999
0.99999
0.99999
0.99999
0.99999
0.99999
0.99999
0.99999
0.99999
0.99999
0.99999
0.99999
0.99999
0.99999
0.99999
0.99999
0.99999
0.99999
0.99999
0.99999
0.999987
0.999982
0.999975
0.999964
0.999953
0.999941
0.999941
0.999904
0.99984
0.999303
0.998141
0.941991
0.037508
7.91866e-05
3.19339e-07
3.287e-07
3.27288e-07
3.24826e-07
3.2541e-07
3.27225e-07
3.30855e-07
3.36331e-07
3.42959e-07
3.50063e-07
3.58856e-07
3.72088e-07
3.91738e-07
4.20726e-07
4.57653e-07
5.03544e-07
5.56304e-07
6.14346e-07
6.53539e-07
6.49701e-07
6.07238e-07
4.7827e-07
3.73094e-07
3.41401e-07
3.19371e-07
2.93991e-07
2.67911e-07
2.44131e-07
2.25026e-07
2.13989e-07
2.07039e-07