/*--------------------------------*- C++ -*----------------------------------*\
| =========                 |                                                 |
| \\      /  F ield         | OpenFOAM: The Open Source CFD Toolbox           |
|  \\    /   O peration     | Version:  2.3.0                                 |
|   \\  /    A nd           | Web:      www.OpenFOAM.org                      |
|    \\/     M anipulation  |                                                 |
\*---------------------------------------------------------------------------*/
FoamFile
{
    version     2.0;
    format      ascii;
    class       volScalarField;
    location    "37";
    object      k.water;
}
// * * * * * * * * * * * * * * * * * * * * * * * * * * * * * * * * * * * * * //

dimensions      [0 2 -2 0 0 0 0];

internalField   nonuniform List<scalar> 
6144
(
9.12985e-05
7.84765e-05
5.56688e-05
4.66699e-05
3.29783e-05
2.46054e-05
2.01312e-05
1.87694e-05
1.83819e-05
2.15621e-05
2.51757e-05
2.83858e-05
2.9686e-05
2.98123e-05
2.85903e-05
2.77689e-05
2.67057e-05
2.59729e-05
2.51248e-05
2.46803e-05
2.45232e-05
2.44761e-05
2.45177e-05
2.4598e-05
2.47121e-05
2.48605e-05
2.50386e-05
2.52473e-05
2.56606e-05
2.61353e-05
2.65248e-05
2.67779e-05
2.69518e-05
2.70765e-05
2.71945e-05
2.73206e-05
2.75664e-05
2.79042e-05
2.83531e-05
2.89005e-05
2.93276e-05
3.03594e-05
3.0901e-05
3.26247e-05
3.25949e-05
3.3341e-05
3.16814e-05
3.29456e-05
3.15269e-05
3.5637e-05
3.41349e-05
3.92674e-05
7.51788e-05
0.000242347
0.000425313
0.000528092
0.000941028
0.00166807
0.00628591
0.00761462
0.0151004
0.00801771
0.00447124
0.00254204
0.00160613
0.00095327
0.000432299
0.000253307
0.000303814
0.000348876
0.000394281
0.000437494
0.000475808
0.000505852
0.000535546
0.000558488
0.000584207
0.000600885
0.000614242
0.000619383
0.000618301
0.000612007
0.000604252
0.000591759
0.000575792
0.00055745
0.000542589
0.00052159
0.000487699
0.000455339
0.000425894
0.000387074
0.000342736
0.000312964
0.000293199
0.000257826
0.000135777
0.000105556
7.91786e-05
7.23055e-05
5.42942e-05
4.71997e-05
4.39515e-05
4.22928e-05
4.15146e-05
4.71776e-05
5.23134e-05
5.67265e-05
5.79375e-05
5.63318e-05
5.34504e-05
5.16223e-05
5.02895e-05
4.99198e-05
4.9989e-05
5.04947e-05
5.12803e-05
5.20215e-05
5.27002e-05
5.32858e-05
5.38043e-05
5.42795e-05
5.47391e-05
5.52191e-05
5.60853e-05
5.68712e-05
5.7467e-05
5.79141e-05
5.83119e-05
5.86792e-05
5.90504e-05
5.94443e-05
5.9972e-05
6.05743e-05
6.13046e-05
6.2212e-05
6.29174e-05
6.42914e-05
6.49121e-05
6.65688e-05
6.63459e-05
6.54645e-05
6.25929e-05
6.43093e-05
6.60508e-05
7.09246e-05
6.92849e-05
7.63598e-05
9.33765e-05
0.000241236
0.000653875
0.000829613
0.00141549
0.00287062
0.00549726
0.00719015
0.0147877
0.00420579
0.00303946
0.00229974
0.00159807
0.000927912
0.000427573
0.000371478
0.000499773
0.000560725
0.000618172
0.000666771
0.000722432
0.0007665
0.000809486
0.000841985
0.000874261
0.000907727
0.000942271
0.00097207
0.000990906
0.000996596
0.000992968
0.000977588
0.000950966
0.000910689
0.000873553
0.000830684
0.000776804
0.000729785
0.000678762
0.000611498
0.000522181
0.000414242
0.000349779
0.000269008
0.000153025
0.000115411
9.28323e-05
8.85745e-05
7.89651e-05
7.40994e-05
7.07688e-05
6.41734e-05
5.87024e-05
5.99869e-05
6.39182e-05
6.51454e-05
6.31257e-05
5.99546e-05
5.73853e-05
5.64331e-05
5.66581e-05
5.81061e-05
6.07091e-05
6.30478e-05
6.48803e-05
6.64522e-05
6.77217e-05
6.87256e-05
6.95314e-05
7.01923e-05
7.07713e-05
7.12887e-05
7.17362e-05
7.20566e-05
7.22626e-05
7.24269e-05
7.25927e-05
7.27522e-05
7.29429e-05
7.31346e-05
7.33364e-05
7.34628e-05
7.36731e-05
7.38538e-05
7.39511e-05
7.3941e-05
7.3722e-05
7.40092e-05
7.44489e-05
7.4371e-05
7.39767e-05
7.63457e-05
8.35689e-05
9.65496e-05
0.000113342
0.00012345
0.000170588
0.000350794
0.000945092
0.00129912
0.00149973
0.0026192
0.00594067
0.00682845
0.0143089
0.00411275
0.0014785
0.00146005
0.00132041
0.000660209
0.000478362
0.000580778
0.000653326
0.000706339
0.000754548
0.000801851
0.000853623
0.000898818
0.000940651
0.000966249
0.000986289
0.00101673
0.00106102
0.00110612
0.00114812
0.0011736
0.0011831
0.00117879
0.00116198
0.00111898
0.00106708
0.00101812
0.000970827
0.000931386
0.000873794
0.000809899
0.000720844
0.000589714
0.000474672
0.000298351
0.000169669
0.00012474
0.000100207
9.59352e-05
9.05386e-05
9.26212e-05
8.77962e-05
7.79351e-05
6.8756e-05
6.57875e-05
6.78774e-05
6.76076e-05
6.4457e-05
6.06557e-05
5.82025e-05
5.76104e-05
5.85599e-05
6.06925e-05
6.31954e-05
6.55157e-05
6.74365e-05
6.91268e-05
7.04739e-05
7.15218e-05
7.23405e-05
7.29987e-05
7.35677e-05
7.40803e-05
7.45109e-05
7.48034e-05
7.49683e-05
7.50632e-05
7.51275e-05
7.51724e-05
7.52615e-05
7.53598e-05
7.54885e-05
7.55417e-05
7.57086e-05
7.56512e-05
7.56285e-05
7.51368e-05
7.48035e-05
7.43438e-05
7.5605e-05
7.66571e-05
8.09285e-05
8.50527e-05
9.29464e-05
0.000112594
0.000144002
0.00019026
0.000287465
0.000640749
0.00144075
0.00197229
0.00256343
0.00301829
0.00540181
0.00567149
0.0132426
0.00430316
0.00085102
0.000911031
0.000707258
0.000597945
0.000606727
0.000713821
0.000762203
0.000806139
0.000843681
0.000882014
0.000926927
0.000970699
0.00101374
0.00103321
0.0010409
0.0010603
0.00110795
0.00116191
0.00121703
0.0012612
0.00128523
0.00129434
0.00128966
0.00124473
0.0011751
0.00111353
0.00106738
0.00102921
0.000966861
0.000906843
0.000826236
0.000717468
0.000612831
0.00036075
0.000187484
0.000133355
0.000108873
0.000104805
9.51948e-05
9.70949e-05
9.13383e-05
8.14865e-05
7.5613e-05
7.01817e-05
7.04241e-05
6.79094e-05
6.35371e-05
5.87795e-05
5.64439e-05
5.60369e-05
5.74631e-05
5.99586e-05
6.27822e-05
6.5488e-05
6.79472e-05
7.0065e-05
7.16295e-05
7.27648e-05
7.35553e-05
7.41238e-05
7.45495e-05
7.48969e-05
7.51537e-05
7.52739e-05
7.52489e-05
7.51275e-05
7.49596e-05
7.47852e-05
7.46343e-05
7.45044e-05
7.44181e-05
7.42395e-05
7.41205e-05
7.35799e-05
7.30801e-05
7.19877e-05
7.15644e-05
7.18546e-05
7.52685e-05
7.96943e-05
8.75454e-05
9.05069e-05
9.64971e-05
0.000120262
0.000161676
0.000237366
0.000412552
0.00102714
0.00184584
0.00245311
0.00284387
0.00283122
0.00417202
0.00423392
0.0113924
0.0016737
0.000683184
0.000687241
0.000663693
0.000674829
0.000763405
0.000803501
0.000829007
0.000845192
0.000857337
0.000877026
0.00091467
0.000941706
0.000950252
0.000948662
0.00094211
0.000964084
0.00102389
0.00110264
0.00119303
0.00127013
0.0013199
0.00134361
0.00134999
0.00130823
0.00122342
0.00114806
0.0010993
0.00106037
0.000993096
0.000922009
0.000839347
0.000751456
0.000676424
0.000437238
0.000198309
0.000141536
0.000120701
0.000120675
0.000103034
0.000102458
8.92246e-05
8.30612e-05
7.94945e-05
7.14349e-05
7.08171e-05
6.68696e-05
6.21175e-05
5.6366e-05
5.23059e-05
5.13784e-05
5.32521e-05
5.66558e-05
6.06702e-05
6.4436e-05
6.75684e-05
6.98746e-05
7.14942e-05
7.26206e-05
7.33544e-05
7.38222e-05
7.413e-05
7.43566e-05
7.44898e-05
7.44526e-05
7.42747e-05
7.40062e-05
7.36855e-05
7.3361e-05
7.30687e-05
7.2814e-05
7.25822e-05
7.22584e-05
7.18238e-05
7.10318e-05
7.01642e-05
6.90573e-05
6.90075e-05
7.05559e-05
7.61881e-05
8.24333e-05
8.92928e-05
8.84338e-05
9.29403e-05
0.00012115
0.000162972
0.000219729
0.000363899
0.000707207
0.00150551
0.00209386
0.00260902
0.00275305
0.00354197
0.00355989
0.00954283
0.00139029
0.000750001
0.000746612
0.000788796
0.000822053
0.000838948
0.000829791
0.000803176
0.000765531
0.000732064
0.000696957
0.000675634
0.000650921
0.000620371
0.000584321
0.00056527
0.00058392
0.000649002
0.000756147
0.000914212
0.00107192
0.00120689
0.00127144
0.00130011
0.00127657
0.00114259
0.000987333
0.000867823
0.000794267
0.000769929
0.00080205
0.000797804
0.000750604
0.000693786
0.00047944
0.000196526
0.00015234
0.000131302
0.000141138
0.000115012
0.000113097
9.21704e-05
8.51969e-05
8.29119e-05
7.24752e-05
7.05682e-05
6.50487e-05
5.84108e-05
5.07121e-05
4.69812e-05
4.6304e-05
4.83271e-05
5.14704e-05
5.50263e-05
5.86567e-05
6.18983e-05
6.44257e-05
6.62747e-05
6.75055e-05
6.81949e-05
6.85456e-05
6.86916e-05
6.8774e-05
6.87788e-05
6.86397e-05
6.82784e-05
6.7755e-05
6.71385e-05
6.65279e-05
6.60364e-05
6.56071e-05
6.51305e-05
6.46175e-05
6.39721e-05
6.32197e-05
6.23833e-05
6.19276e-05
6.29212e-05
6.6281e-05
7.36054e-05
7.77759e-05
8.05921e-05
7.65092e-05
8.11006e-05
0.000111454
0.000161806
0.000223165
0.00043605
0.00091905
0.00144796
0.00190438
0.00245753
0.00317671
0.00336098
0.00336603
0.00765275
0.00128403
0.000882514
0.000893847
0.000903538
0.000907113
0.000895067
0.000867783
0.000836037
0.000780978
0.000724706
0.00065851
0.000597288
0.000529722
0.000470638
0.000413756
0.000373783
0.000358399
0.000360672
0.000398878
0.000485536
0.000706771
0.000983998
0.00113147
0.00120089
0.00122445
0.00110857
0.000900967
0.000685966
0.000549952
0.000437785
0.000482789
0.000622116
0.000707328
0.000686414
0.000497319
0.000169101
0.000160253
0.000138665
0.000155081
0.000125294
0.000117225
9.02539e-05
7.90966e-05
8.12873e-05
7.19754e-05
6.91144e-05
6.29088e-05
5.73924e-05
4.8966e-05
4.3403e-05
4.18905e-05
4.44254e-05
4.85112e-05
5.28829e-05
5.68989e-05
6.03106e-05
6.29087e-05
6.481e-05
6.61156e-05
6.69127e-05
6.73913e-05
6.76663e-05
6.78117e-05
6.77936e-05
6.75658e-05
6.71065e-05
6.6537e-05
6.59173e-05
6.52919e-05
6.47081e-05
6.4183e-05
6.36178e-05
6.30914e-05
6.24703e-05
6.18231e-05
6.11181e-05
6.09779e-05
6.21677e-05
6.53777e-05
7.20327e-05
7.49996e-05
7.59692e-05
7.08162e-05
7.27214e-05
0.000102167
0.000160651
0.000236463
0.000531512
0.00145567
0.00246412
0.00281811
0.00320849
0.00356708
0.00306646
0.0030594
0.00646767
0.00131685
0.00103757
0.00106181
0.00106956
0.00102847
0.00100563
0.000958312
0.000933878
0.000886375
0.000847624
0.0008057
0.000749483
0.000682645
0.000593782
0.000498134
0.00041319
0.000354135
0.000314209
0.000300413
0.000303709
0.000333415
0.000482397
0.000839644
0.00107213
0.00116508
0.00113543
0.000944865
0.000674552
0.000513982
0.000392123
0.0003558
0.000442462
0.000600045
0.000659953
0.000533559
0.000147574
0.000150278
0.00014294
0.000160571
0.000126134
0.000111977
8.95428e-05
7.32221e-05
7.45491e-05
6.81586e-05
6.53877e-05
5.91507e-05
5.23714e-05
4.19387e-05
3.39774e-05
3.12464e-05
3.34973e-05
3.76679e-05
4.1861e-05
4.53857e-05
4.83033e-05
5.06437e-05
5.24438e-05
5.3757e-05
5.46282e-05
5.51908e-05
5.55464e-05
5.57575e-05
5.57578e-05
5.54914e-05
5.50175e-05
5.44619e-05
5.3888e-05
5.33547e-05
5.28702e-05
5.24498e-05
5.19866e-05
5.15919e-05
5.11828e-05
5.08779e-05
5.05633e-05
5.07512e-05
5.18236e-05
5.38617e-05
5.74043e-05
5.78363e-05
5.5702e-05
5.26554e-05
5.67169e-05
8.19616e-05
0.000136912
0.000205141
0.000445412
0.00141875
0.00270586
0.00276435
0.00335247
0.00361739
0.00300169
0.00299
0.0072773
0.00143627
0.00102124
0.00104518
0.00105867
0.000978112
0.000947073
0.000888564
0.000845222
0.000811032
0.000781334
0.00076396
0.000740856
0.000708693
0.000661062
0.000593182
0.000528275
0.000470001
0.000413288
0.00034719
0.000295208
0.0002386
0.000208814
0.000276679
0.000539511
0.000831068
0.00093495
0.000859553
0.000668924
0.000560231
0.000441293
0.000372279
0.000369749
0.000507851
0.000610478
0.000514782
0.000137705
0.000134339
0.000150527
0.000171422
0.000122863
0.000111197
9.17626e-05
6.97371e-05
6.47646e-05
6.08594e-05
5.85014e-05
5.28662e-05
4.5035e-05
3.45818e-05
2.64705e-05
2.32629e-05
2.44911e-05
2.77967e-05
3.11191e-05
3.3846e-05
3.618e-05
3.79631e-05
3.93246e-05
4.03733e-05
4.11108e-05
4.16089e-05
4.19616e-05
4.21971e-05
4.22767e-05
4.21771e-05
4.19353e-05
4.16458e-05
4.13768e-05
4.11521e-05
4.09397e-05
4.07378e-05
4.04898e-05
4.02723e-05
4.0048e-05
3.99541e-05
3.99472e-05
4.02375e-05
4.09223e-05
4.1585e-05
4.2447e-05
4.18841e-05
3.95669e-05
3.92727e-05
4.34909e-05
6.29846e-05
0.000103579
0.00016089
0.00030118
0.000857775
0.00207877
0.00260306
0.0042485
0.00413025
0.00350658
0.00352763
0.00959996
0.00191606
0.000992336
0.000970591
0.00106366
0.000960546
0.000922348
0.000859083
0.000810332
0.000769527
0.000734865
0.000708491
0.000681646
0.000651585
0.000619301
0.000580546
0.000534456
0.000481036
0.000432438
0.000384481
0.00034504
0.000297364
0.000198153
0.000153704
0.000207574
0.000369026
0.000653371
0.000758764
0.000693518
0.000618691
0.000537328
0.000436106
0.000382429
0.000447639
0.000567627
0.000496693
0.000131522
0.000116455
0.000131639
0.000150924
0.000107899
9.24741e-05
8.29303e-05
6.55432e-05
5.74717e-05
5.24427e-05
5.02443e-05
4.40124e-05
3.65598e-05
2.74464e-05
2.0931e-05
1.78376e-05
1.82081e-05
2.04449e-05
2.28957e-05
2.49086e-05
2.66341e-05
2.79779e-05
2.90261e-05
2.98565e-05
3.04827e-05
3.09592e-05
3.13564e-05
3.16348e-05
3.17737e-05
3.17679e-05
3.16686e-05
3.15527e-05
3.14729e-05
3.14651e-05
3.14735e-05
3.14769e-05
3.14181e-05
3.13465e-05
3.12874e-05
3.13204e-05
3.14372e-05
3.16326e-05
3.20426e-05
3.22907e-05
3.23135e-05
3.1768e-05
3.06856e-05
3.10903e-05
3.53578e-05
5.17595e-05
8.71298e-05
0.000142353
0.000237728
0.000512456
0.00111864
0.00184843
0.00296881
0.00384811
0.00442033
0.00472413
0.0116377
0.00363174
0.00103868
0.000881201
0.00103666
0.000921854
0.000888294
0.000845893
0.00080822
0.000773128
0.00073937
0.000704955
0.000669953
0.000634977
0.000601379
0.000565691
0.000527712
0.000483994
0.000440467
0.000397335
0.00035529
0.000321451
0.000247414
0.000143892
0.000128933
0.000164638
0.000232098
0.000349314
0.000531767
0.000597379
0.000556917
0.000494991
0.000432198
0.000427516
0.000520138
0.000475125
0.000124568
9.74388e-05
8.69796e-05
0.000101523
8.44109e-05
7.79209e-05
6.04032e-05
5.21835e-05
4.94629e-05
4.95519e-05
4.78432e-05
3.84194e-05
2.90931e-05
2.07476e-05
1.58601e-05
1.3928e-05
1.44237e-05
1.61051e-05
1.78948e-05
1.93768e-05
2.06505e-05
2.16848e-05
2.25679e-05
2.33093e-05
2.39156e-05
2.44356e-05
2.49084e-05
2.53185e-05
2.56102e-05
2.57792e-05
2.58444e-05
2.58794e-05
2.59669e-05
2.61279e-05
2.62877e-05
2.63866e-05
2.6427e-05
2.64435e-05
2.64225e-05
2.64027e-05
2.64196e-05
2.64554e-05
2.6626e-05
2.65944e-05
2.64405e-05
2.59641e-05
2.54217e-05
2.64872e-05
3.33894e-05
4.93197e-05
8.44278e-05
0.000137544
0.00021938
0.000396435
0.000625207
0.00118634
0.00160659
0.00266085
0.00499698
0.00568964
0.0125902
0.00501677
0.00140896
0.000911093
0.00115362
0.00107886
0.000983498
0.000932614
0.000890724
0.000848976
0.000804029
0.00075476
0.000703927
0.000656058
0.000613296
0.000571325
0.000533631
0.000493302
0.000451008
0.000408819
0.000363218
0.000331059
0.000277003
0.000152814
0.00010817
0.000115031
0.000132401
0.000168296
0.000245987
0.000337298
0.000437813
0.000477101
0.000452391
0.000417193
0.000464399
0.000446281
7.66523e-05
6.97732e-05
6.44424e-05
6.49839e-05
5.36022e-05
5.17954e-05
4.07404e-05
3.60252e-05
3.83034e-05
4.32518e-05
4.21298e-05
3.25345e-05
2.31523e-05
1.59643e-05
1.31143e-05
1.21123e-05
1.24589e-05
1.35379e-05
1.47044e-05
1.57341e-05
1.66049e-05
1.73181e-05
1.79246e-05
1.84863e-05
1.90346e-05
1.95466e-05
2.00459e-05
2.05238e-05
2.0926e-05
2.11792e-05
2.13071e-05
2.13993e-05
2.15532e-05
2.1792e-05
2.20341e-05
2.22268e-05
2.2356e-05
2.24303e-05
2.24662e-05
2.2479e-05
2.25808e-05
2.27157e-05
2.30284e-05
2.30766e-05
2.29287e-05
2.26085e-05
2.25476e-05
2.44465e-05
3.23936e-05
4.8679e-05
8.29874e-05
0.000137697
0.00021258
0.000359125
0.000457571
0.000773149
0.00121545
0.00239015
0.0054215
0.00659981
0.0135156
0.00635328
0.00229055
0.00123414
0.00124021
0.00121415
0.00114212
0.00107721
0.00101392
0.000942151
0.000862417
0.000787425
0.000719356
0.000661798
0.000615096
0.000571244
0.000533933
0.000494722
0.000453331
0.000415649
0.000371578
0.000336558
0.000292428
0.000176103
9.92474e-05
9.53176e-05
9.86839e-05
0.00010887
0.000140093
0.000184889
0.000248459
0.000340246
0.000373312
0.000380779
0.000406327
0.000399948
6.36484e-05
6.30929e-05
5.61549e-05
5.48718e-05
4.38215e-05
4.05766e-05
3.29713e-05
2.8671e-05
3.1311e-05
3.49493e-05
3.42402e-05
2.4637e-05
1.72375e-05
1.33776e-05
1.16451e-05
1.06665e-05
1.09355e-05
1.18169e-05
1.27263e-05
1.35051e-05
1.4169e-05
1.47163e-05
1.52057e-05
1.56243e-05
1.59936e-05
1.63543e-05
1.67378e-05
1.71439e-05
1.75137e-05
1.77569e-05
1.78504e-05
1.79068e-05
1.8043e-05
1.83164e-05
1.86371e-05
1.88962e-05
1.91076e-05
1.92506e-05
1.93543e-05
1.94454e-05
1.9628e-05
1.97945e-05
2.01076e-05
2.01229e-05
2.00097e-05
1.96388e-05
1.96757e-05
2.19759e-05
3.03642e-05
4.68585e-05
7.99501e-05
0.00013056
0.000199751
0.000323181
0.000441492
0.000679744
0.00119494
0.00269128
0.00584007
0.00723216
0.0137253
0.00747519
0.00378761
0.00223976
0.00181438
0.00157663
0.00139828
0.00125056
0.00111459
0.000991222
0.000882593
0.000793169
0.000717205
0.000654331
0.000604297
0.000559659
0.000524229
0.000487795
0.000448747
0.000414741
0.000372514
0.000338223
0.000296418
0.000184815
9.28986e-05
8.48629e-05
8.34555e-05
8.33566e-05
9.17139e-05
0.00010645
0.000124799
0.00016826
0.000235228
0.000284272
0.000306763
0.000303733
5.81791e-05
5.26592e-05
4.87696e-05
4.43326e-05
3.4858e-05
3.02625e-05
2.4532e-05
2.31087e-05
2.43841e-05
2.39665e-05
2.24349e-05
1.66977e-05
1.30763e-05
1.08145e-05
9.47408e-06
8.84431e-06
9.10547e-06
9.79828e-06
1.04884e-05
1.10745e-05
1.15718e-05
1.20068e-05
1.24155e-05
1.28073e-05
1.3189e-05
1.35816e-05
1.40113e-05
1.44693e-05
1.48989e-05
1.5224e-05
1.54052e-05
1.55423e-05
1.57463e-05
1.60553e-05
1.6387e-05
1.66627e-05
1.69004e-05
1.70701e-05
1.71948e-05
1.72951e-05
1.74974e-05
1.76939e-05
1.8051e-05
1.80917e-05
1.79955e-05
1.7681e-05
1.80371e-05
2.08301e-05
2.92504e-05
4.41408e-05
7.26162e-05
0.000112987
0.000176772
0.000279637
0.000429847
0.000640351
0.00140079
0.00298684
0.00545193
0.00718048
0.0135598
0.00841702
0.00499737
0.00308569
0.00227758
0.00183942
0.0015475
0.00132726
0.00114594
0.000996732
0.000875324
0.000780761
0.000704067
0.000641407
0.000589935
0.000541576
0.000504139
0.000464639
0.000429682
0.000399824
0.000361376
0.000330007
0.000291094
0.000186089
8.59262e-05
7.43442e-05
7.12596e-05
7.02037e-05
7.0287e-05
7.35289e-05
7.73603e-05
8.69217e-05
0.000105108
0.000129654
0.000143412
0.00013361
6.25447e-05
4.80195e-05
3.4533e-05
3.41542e-05
2.72083e-05
2.42481e-05
1.64784e-05
1.50694e-05
1.51029e-05
1.38385e-05
1.25072e-05
1.0667e-05
9.04081e-06
7.67783e-06
6.71393e-06
6.31218e-06
6.47913e-06
6.9086e-06
7.32808e-06
7.68314e-06
7.98981e-06
8.27132e-06
8.54689e-06
8.82645e-06
9.11401e-06
9.41369e-06
9.73844e-06
1.0087e-05
1.04254e-05
1.07067e-05
1.08938e-05
1.10348e-05
1.121e-05
1.14657e-05
1.17683e-05
1.20306e-05
1.22751e-05
1.24627e-05
1.25979e-05
1.26908e-05
1.28816e-05
1.30823e-05
1.34747e-05
1.35625e-05
1.35205e-05
1.33544e-05
1.43544e-05
1.83871e-05
2.73304e-05
3.83223e-05
5.48132e-05
7.73548e-05
0.000118383
0.000174918
0.000290721
0.000428012
0.000898234
0.0016669
0.00611602
0.0077715
0.0149456
0.0089519
0.00548937
0.00362521
0.00265642
0.0020943
0.00170254
0.00140043
0.00117045
0.00100033
0.000871742
0.000775607
0.000699079
0.000635945
0.00058315
0.000532919
0.000493674
0.000452733
0.000419621
0.000389419
0.000350429
0.000321747
0.000278466
0.000164297
7.13001e-05
5.94319e-05
5.72232e-05
5.578e-05
5.55663e-05
5.58264e-05
5.58274e-05
5.58521e-05
5.59113e-05
5.67267e-05
5.7923e-05
5.36738e-05
0.000176151
0.000152811
9.78671e-05
7.28155e-05
4.52432e-05
3.33858e-05
3.26431e-05
3.75925e-05
4.60553e-05
6.28077e-05
7.53802e-05
8.49589e-05
8.73665e-05
8.6292e-05
8.15105e-05
7.79294e-05
7.41774e-05
7.12589e-05
6.78415e-05
6.45578e-05
6.20618e-05
6.07236e-05
6.04642e-05
6.08704e-05
6.18723e-05
6.33477e-05
6.51698e-05
6.72127e-05
6.91769e-05
7.08941e-05
7.21568e-05
7.30315e-05
7.37338e-05
7.43462e-05
7.49508e-05
7.56562e-05
7.67735e-05
7.82023e-05
8.00976e-05
8.21181e-05
8.43154e-05
8.75671e-05
9.04339e-05
9.58841e-05
9.69107e-05
9.88892e-05
9.22557e-05
8.80631e-05
7.30314e-05
6.886e-05
5.45102e-05
5.15619e-05
7.09892e-05
0.000247442
0.00046791
0.000581469
0.00182537
0.0022913
0.00332201
0.00490394
0.00832655
0.00554356
0.0035443
0.00244829
0.00183404
0.00140017
0.00105767
0.000613263
0.000366991
0.000366012
0.000400282
0.000430969
0.000473191
0.000515545
0.000561268
0.000600675
0.000635533
0.000656711
0.000673252
0.000682055
0.000684885
0.000684542
0.000679088
0.000667703
0.000654412
0.000635673
0.000621287
0.000604562
0.000566405
0.0005236
0.000490569
0.000445145
0.000407351
0.000379503
0.000348355
0.000274437
0.00032434
0.000247626
0.000185247
0.000154973
0.000112127
0.000102405
0.000109648
0.000119757
0.000129051
0.000150313
0.000162155
0.000169602
0.000168478
0.000161026
0.000152385
0.000147334
0.000145559
0.000146098
0.00014651
0.000146474
0.000146252
0.000146751
0.000147981
0.00014967
0.000151745
0.00015412
0.000156736
0.000159414
0.000161718
0.000163506
0.000164732
0.000165689
0.000166567
0.000167402
0.000168259
0.000169268
0.000170567
0.000172091
0.000174086
0.000176198
0.000178548
0.000181031
0.000184121
0.000188222
0.000192032
0.000195552
0.000196516
0.000194371
0.000190309
0.000180176
0.000165475
0.00013981
0.000109859
0.000293594
0.000971647
0.00148416
0.00364186
0.0052532
0.00746779
0.00776484
0.00196567
0.00192425
0.00356623
0.00292257
0.00189338
0.00147058
0.0012149
0.0009237
0.000851616
0.00092168
0.000927174
0.000906415
0.00097955
0.0010665
0.00117018
0.00126673
0.00133806
0.00139309
0.00143812
0.00146659
0.00147302
0.00146745
0.00144313
0.00140233
0.00135254
0.00129039
0.00122679
0.00115585
0.00106564
0.000979579
0.000900555
0.000815235
0.000710635
0.000621953
0.000528194
0.000312167
0.000387511
0.000276888
0.000232423
0.000217486
0.00019724
0.000179027
0.000172726
0.000176315
0.000177021
0.000186459
0.000189588
0.000189734
0.000183343
0.000171307
0.000160322
0.000155237
0.000155704
0.000159682
0.000164356
0.000168742
0.000172327
0.000175713
0.000178693
0.00018129
0.000183566
0.000185628
0.000187592
0.000189442
0.000191001
0.000192063
0.000192692
0.000193142
0.000193509
0.000193867
0.000194299
0.000194882
0.000195571
0.000196274
0.000197172
0.00019786
0.000198539
0.000198962
0.000200502
0.000203241
0.000208789
0.000213642
0.000219185
0.000221737
0.000234694
0.00023698
0.00024863
0.000247693
0.000228949
0.000464902
0.00148745
0.00184593
0.00338385
0.00538445
0.00426529
0.00373163
0.00139857
0.00222149
0.00283077
0.00219592
0.00163088
0.00134603
0.00111407
0.00110247
0.00119095
0.0013298
0.00137933
0.00142716
0.00153208
0.00164158
0.00175228
0.00185316
0.00190459
0.00192283
0.00193669
0.00197237
0.00199067
0.00198041
0.00193759
0.00186341
0.0017675
0.00165511
0.00153587
0.00141784
0.00130022
0.00120516
0.00109155
0.00101288
0.000937988
0.000891059
0.000783597
0.000396448
0.000535202
0.000342626
0.000269062
0.0002514
0.000249495
0.000246715
0.000231524
0.000223355
0.0002136
0.000210478
0.000209492
0.000202476
0.000190934
0.000175598
0.000162575
0.000157004
0.000158259
0.000163683
0.000170634
0.000177358
0.000183173
0.000188378
0.000192489
0.000195731
0.000198276
0.000200355
0.000202157
0.000203753
0.000205002
0.000205723
0.000205969
0.000205967
0.000205828
0.000205709
0.000205721
0.000205906
0.000206135
0.000206296
0.00020644
0.000206129
0.000205848
0.000205429
0.000206583
0.000209704
0.000217357
0.000223228
0.000228582
0.000227927
0.000243648
0.000260246
0.000294129
0.000378094
0.000527489
0.00116831
0.00289462
0.00345699
0.00495953
0.00622298
0.0032611
0.00308315
0.00140535
0.00231126
0.00132243
0.0012519
0.00112978
0.00106237
0.00112904
0.00125175
0.00146858
0.00167789
0.00183217
0.00193841
0.00205835
0.00216251
0.00221784
0.00224419
0.00222578
0.00217969
0.00216538
0.00219447
0.00224416
0.00227526
0.00227711
0.00218366
0.00205218
0.00192214
0.00179462
0.00164856
0.00149879
0.00135875
0.00118958
0.00106855
0.000955428
0.000934954
0.000917906
0.000551131
0.000728817
0.000416048
0.000307069
0.000276257
0.000267855
0.000276717
0.000265818
0.000252495
0.000241798
0.000229254
0.000224846
0.000214079
0.000199385
0.000178946
0.00016397
0.00015737
0.000158814
0.00016478
0.00017251
0.000180125
0.000187295
0.000193626
0.000198428
0.000202125
0.000204923
0.000207136
0.000208985
0.00021059
0.000211806
0.000212417
0.000212451
0.000212166
0.000211718
0.000211307
0.000211076
0.000211025
0.000210966
0.000210794
0.000210386
0.000209516
0.000208719
0.000208482
0.000211101
0.000217266
0.000227048
0.000231088
0.000232719
0.000228016
0.00023314
0.000269128
0.000312348
0.000433928
0.000952048
0.00236797
0.00440154
0.00462277
0.00536485
0.00575549
0.00172633
0.00155568
0.00128766
0.00134826
0.000995919
0.000976682
0.00109742
0.00114279
0.00139611
0.00166661
0.00197738
0.0021882
0.00232221
0.00238941
0.00244258
0.00246075
0.00244888
0.00240263
0.00228531
0.00217511
0.00213727
0.00218654
0.00229229
0.0023991
0.00246688
0.0025112
0.00248072
0.00239543
0.00226484
0.00208984
0.00186199
0.00158519
0.00128259
0.00108697
0.000926294
0.000896947
0.000921908
0.000636415
0.000941413
0.000472185
0.000343443
0.000305136
0.000286961
0.000294809
0.000283031
0.000270203
0.000260389
0.000241172
0.000234369
0.000219147
0.000202258
0.000178312
0.000155887
0.000145051
0.000147004
0.000155318
0.000166369
0.000177511
0.000187113
0.000194106
0.000199346
0.000203367
0.00020636
0.000208676
0.000210583
0.000212221
0.000213439
0.00021399
0.00021389
0.000213433
0.000212794
0.000212175
0.000211775
0.000211513
0.000211176
0.000210685
0.000209697
0.000208354
0.000207002
0.000206804
0.000210014
0.000217698
0.00022861
0.0002313
0.000224353
0.000208
0.000215749
0.000272083
0.000343578
0.000437806
0.000736359
0.00150777
0.00323557
0.00452325
0.00536233
0.0059309
0.0010696
0.000934448
0.00141748
0.00144338
0.00121622
0.00120419
0.00147902
0.00165587
0.00201231
0.00218821
0.00234075
0.00240381
0.00242001
0.00238792
0.00234896
0.00224587
0.00210719
0.00192742
0.00168267
0.00154133
0.00150107
0.00160483
0.00185909
0.00214102
0.00244806
0.00264992
0.00271696
0.00271388
0.00265729
0.00245692
0.00204897
0.00167229
0.0012964
0.00105327
0.000883149
0.000835648
0.000881236
0.000641385
0.000954225
0.000496771
0.000369565
0.000318006
0.000308383
0.000315735
0.000299712
0.000280251
0.000270271
0.000246221
0.000237691
0.000219353
0.000197155
0.000163689
0.000138898
0.000127277
0.000129449
0.000137614
0.00014781
0.00015801
0.000167563
0.000175809
0.000182451
0.000187546
0.000191163
0.000193761
0.000195702
0.000197311
0.000198303
0.000198343
0.000197469
0.000196058
0.000194389
0.000192716
0.000191457
0.000190431
0.00018908
0.00018779
0.000186195
0.000184607
0.000182891
0.000183099
0.000186581
0.000195791
0.0002073
0.000204221
0.000188706
0.000178508
0.000185894
0.000241959
0.000354271
0.000478009
0.000833239
0.00158123
0.00279665
0.00353337
0.00500546
0.00616666
0.000902702
0.000802624
0.00182029
0.00172598
0.00170953
0.00185021
0.0020007
0.0020926
0.00220624
0.00225168
0.00226539
0.00221568
0.00214674
0.00207454
0.00198516
0.00183044
0.00164274
0.00138841
0.00113161
0.000953463
0.000869391
0.000848023
0.001024
0.00143521
0.00187684
0.00237475
0.00270066
0.0028064
0.00283972
0.00264712
0.00213103
0.00173008
0.00112707
0.000764922
0.000707452
0.000731231
0.000810234
0.000665346
0.00079105
0.000507706
0.000379378
0.000312602
0.00030537
0.000317
0.000302337
0.000276071
0.000271183
0.000244125
0.000232241
0.000207367
0.000182393
0.000143549
0.00011212
9.77171e-05
0.000101508
0.000113012
0.000126376
0.000138248
0.000148289
0.000156003
0.000161765
0.000166092
0.00016907
0.000171119
0.00017249
0.000173147
0.000172864
0.000171574
0.000169519
0.000167286
0.000165059
0.000162817
0.000160415
0.000158089
0.000155583
0.000153464
0.000151116
0.000149004
0.000146578
0.000146368
0.000147758
0.000153727
0.000162645
0.000164037
0.000152429
0.000137062
0.000140461
0.000193848
0.000325288
0.000488938
0.00109635
0.00294718
0.00517325
0.0052814
0.0056217
0.00596763
0.000872701
0.000830282
0.00199255
0.00196118
0.00211892
0.00223968
0.00229738
0.00232104
0.00236416
0.00238447
0.00239178
0.00234324
0.00226012
0.00215086
0.00200364
0.00182138
0.00158257
0.00128628
0.00104676
0.000850283
0.000700962
0.00061792
0.000589047
0.000730677
0.00114389
0.00166238
0.00219956
0.00258154
0.00275497
0.00262187
0.00203112
0.00151676
0.000913125
0.000642322
0.000659098
0.000849226
0.00122006
0.00211117
0.000608052
0.000522566
0.000399262
0.000314139
0.000273215
0.000247816
0.000277567
0.000262195
0.000261178
0.000236428
0.000223347
0.00019434
0.000163572
0.00011779
8.54303e-05
7.06438e-05
7.08875e-05
7.64127e-05
8.39098e-05
9.14951e-05
9.889e-05
0.000105755
0.000111404
0.000115665
0.000118464
0.000120168
0.000121223
0.000122018
0.00012212
0.000121116
0.000119276
0.000117036
0.000114734
0.000112806
0.000111349
0.000110135
0.000108651
0.000107335
0.000105944
0.000105067
0.000103434
0.000103273
0.000103436
0.000106908
0.000110072
0.000110375
0.000102467
9.81976e-05
0.000113109
0.000163784
0.000290164
0.000438171
0.00113353
0.00390841
0.0067546
0.00665007
0.00672796
0.00635966
0.00108443
0.000965615
0.00191535
0.00205263
0.00229707
0.00232176
0.00239176
0.00238809
0.00242649
0.00241397
0.00239287
0.00233599
0.00227652
0.0021951
0.00207557
0.00191933
0.0017229
0.00149307
0.00125502
0.00101123
0.000796743
0.000634073
0.000476284
0.000417349
0.000494743
0.000764287
0.00129745
0.00181092
0.00214852
0.00225771
0.00169757
0.00118035
0.000913475
0.000645568
0.000612978
0.000848494
0.00123539
0.00160547
0.000594977
0.000513267
0.000465701
0.0004468
0.000285481
0.000212915
0.000202871
0.000232405
0.0002273
0.00021162
0.000200419
0.000172543
0.000136315
9.48541e-05
6.83374e-05
5.86104e-05
5.77721e-05
6.05312e-05
6.4668e-05
6.93289e-05
7.48678e-05
7.8878e-05
8.179e-05
8.41136e-05
8.56636e-05
8.66232e-05
8.74299e-05
8.82595e-05
8.85318e-05
8.79448e-05
8.68317e-05
8.56507e-05
8.47213e-05
8.39504e-05
8.32648e-05
8.27186e-05
8.19725e-05
8.13754e-05
8.05665e-05
8.00114e-05
7.89192e-05
7.82722e-05
7.75686e-05
7.79382e-05
7.86302e-05
8.14403e-05
7.95577e-05
8.01739e-05
9.96138e-05
0.000141769
0.00023846
0.00033819
0.000602924
0.00165846
0.0044296
0.00716186
0.00872421
0.00863616
0.00156329
0.00128828
0.00173246
0.00213222
0.00230602
0.00205005
0.00210451
0.00196375
0.00197852
0.00181967
0.00174693
0.00166012
0.00158436
0.00151332
0.00142919
0.00133431
0.00122039
0.00109283
0.000943179
0.000777522
0.000614143
0.000496695
0.000394876
0.000331081
0.000307873
0.000352579
0.000473639
0.000834749
0.00155162
0.00189889
0.00191082
0.00140893
0.00110271
0.000852093
0.000763357
0.000943771