/*--------------------------------*- C++ -*----------------------------------*\
| =========                 |                                                 |
| \\      /  F ield         | OpenFOAM: The Open Source CFD Toolbox           |
|  \\    /   O peration     | Version:  2.3.0                                 |
|   \\  /    A nd           | Web:      www.OpenFOAM.org                      |
|    \\/     M anipulation  |                                                 |
\*---------------------------------------------------------------------------*/
FoamFile
{
    version     2.0;
    format      ascii;
    class       volScalarField;
    location    "37";
    object      nut.water;
}
// * * * * * * * * * * * * * * * * * * * * * * * * * * * * * * * * * * * * * //

dimensions      [0 2 -1 0 0 0 0];

internalField   nonuniform List<scalar> 
6144
(
1.34126e-05
1.24386e-05
1.04815e-05
9.60127e-06
8.07574e-06
6.97858e-06
6.31458e-06
6.0989e-06
6.03725e-06
6.54124e-06
7.07163e-06
7.51228e-06
7.6855e-06
7.70484e-06
7.54815e-06
7.44167e-06
7.30062e-06
7.2026e-06
7.08683e-06
7.02644e-06
7.00676e-06
7.00274e-06
7.01143e-06
7.02564e-06
7.04467e-06
7.06855e-06
7.09659e-06
7.12892e-06
7.18995e-06
7.25894e-06
7.31558e-06
7.35319e-06
7.37986e-06
7.3998e-06
7.41877e-06
7.43884e-06
7.4751e-06
7.52369e-06
7.58687e-06
7.66281e-06
7.72228e-06
7.86014e-06
7.93312e-06
8.15479e-06
8.15406e-06
8.25068e-06
8.04521e-06
8.21144e-06
8.03549e-06
8.5457e-06
8.35986e-06
8.97045e-06
1.24172e-05
2.22433e-05
2.95053e-05
3.30013e-05
4.42353e-05
5.87325e-05
0.000115004
0.000126991
0.000191401
0.000131968
0.000102449
7.56211e-05
6.07912e-05
4.67861e-05
3.0935e-05
2.37727e-05
2.76194e-05
3.0098e-05
3.22124e-05
3.41562e-05
3.57856e-05
3.69145e-05
3.78059e-05
3.8287e-05
3.87302e-05
3.88337e-05
3.88363e-05
3.85826e-05
3.81954e-05
3.77281e-05
3.73554e-05
3.70475e-05
3.68247e-05
3.66228e-05
3.65761e-05
3.63185e-05
3.55451e-05
3.45615e-05
3.35504e-05
3.19962e-05
2.98185e-05
2.78833e-05
2.609e-05
2.34581e-05
1.63666e-05
1.44536e-05
1.25403e-05
1.20048e-05
1.04255e-05
9.73765e-06
9.41242e-06
9.24863e-06
9.17843e-06
9.80179e-06
1.03398e-05
1.07859e-05
1.09196e-05
1.0786e-05
1.05246e-05
1.03607e-05
1.02435e-05
1.02233e-05
1.0248e-05
1.03173e-05
1.0415e-05
1.0508e-05
1.05944e-05
1.06712e-05
1.07413e-05
1.08069e-05
1.08709e-05
1.0937e-05
1.10411e-05
1.11369e-05
1.12138e-05
1.12762e-05
1.13338e-05
1.13885e-05
1.14436e-05
1.15009e-05
1.15711e-05
1.16485e-05
1.17381e-05
1.18444e-05
1.19313e-05
1.20808e-05
1.21594e-05
1.23339e-05
1.23338e-05
1.2272e-05
1.20179e-05
1.22022e-05
1.23898e-05
1.28661e-05
1.2731e-05
1.33874e-05
1.47894e-05
2.37827e-05
3.92241e-05
4.43163e-05
5.82083e-05
8.32911e-05
0.000116112
0.000133751
0.000204491
0.000111543
9.50271e-05
7.79011e-05
6.66148e-05
5.04677e-05
3.41852e-05
3.35224e-05
3.92801e-05
4.17891e-05
4.40718e-05
4.59917e-05
4.80534e-05
4.95934e-05
5.09079e-05
5.17473e-05
5.24769e-05
5.31638e-05
5.38508e-05
5.43724e-05
5.45817e-05
5.44655e-05
5.41366e-05
5.35409e-05
5.27073e-05
5.15446e-05
5.05358e-05
4.94841e-05
4.81611e-05
4.69662e-05
4.55554e-05
4.33945e-05
4.00167e-05
3.53769e-05
3.21212e-05
2.44735e-05
1.73851e-05
1.51383e-05
1.36139e-05
1.33349e-05
1.26308e-05
1.22744e-05
1.20298e-05
1.14886e-05
1.10189e-05
1.11698e-05
1.15623e-05
1.17056e-05
1.15554e-05
1.12931e-05
1.10791e-05
1.10172e-05
1.10697e-05
1.12412e-05
1.1522e-05
1.17743e-05
1.19771e-05
1.21546e-05
1.23037e-05
1.24283e-05
1.25349e-05
1.26285e-05
1.27147e-05
1.27954e-05
1.28699e-05
1.29331e-05
1.29861e-05
1.30355e-05
1.3085e-05
1.31341e-05
1.3186e-05
1.32382e-05
1.32913e-05
1.33377e-05
1.33917e-05
1.34429e-05
1.34866e-05
1.35203e-05
1.35353e-05
1.35962e-05
1.36723e-05
1.3699e-05
1.36992e-05
1.39507e-05
1.46343e-05
1.57907e-05
1.71485e-05
1.79338e-05
2.10917e-05
3.03116e-05
4.99208e-05
5.86682e-05
6.31397e-05
8.42136e-05
0.000127802
0.000137789
0.000212531
0.000117405
7.25926e-05
6.52612e-05
6.46591e-05
4.65907e-05
4.0866e-05
4.50822e-05
4.77442e-05
4.98816e-05
5.16737e-05
5.36074e-05
5.55549e-05
5.72288e-05
5.86061e-05
5.93847e-05
5.99564e-05
6.0782e-05
6.19201e-05
6.30244e-05
6.39571e-05
6.44297e-05
6.44662e-05
6.41407e-05
6.34907e-05
6.21621e-05
6.06387e-05
5.9259e-05
5.80993e-05
5.73752e-05
5.60491e-05
5.43559e-05
5.13611e-05
4.62665e-05
4.10571e-05
2.63841e-05
1.83191e-05
1.57676e-05
1.41846e-05
1.39326e-05
1.35893e-05
1.38012e-05
1.34947e-05
1.27662e-05
1.20379e-05
1.182e-05
1.20525e-05
1.20749e-05
1.18359e-05
1.15257e-05
1.13331e-05
1.13182e-05
1.14543e-05
1.17051e-05
1.1989e-05
1.22531e-05
1.24779e-05
1.26805e-05
1.2851e-05
1.29941e-05
1.31164e-05
1.32243e-05
1.33242e-05
1.34192e-05
1.3507e-05
1.35823e-05
1.36462e-05
1.37038e-05
1.37586e-05
1.38118e-05
1.3869e-05
1.39272e-05
1.39882e-05
1.40423e-05
1.4107e-05
1.41506e-05
1.41976e-05
1.42e-05
1.42176e-05
1.42225e-05
1.43918e-05
1.45402e-05
1.49876e-05
1.54145e-05
1.61742e-05
1.78769e-05
2.02835e-05
2.33907e-05
2.88162e-05
4.3294e-05
6.50464e-05
7.63055e-05
8.71315e-05
9.53509e-05
0.000127738
0.000132172
0.000216302
0.00012259
5.42215e-05
5.87221e-05
5.1171e-05
4.89674e-05
4.88006e-05
5.29829e-05
5.47761e-05
5.66482e-05
5.82054e-05
5.99006e-05
6.17367e-05
6.34136e-05
6.48772e-05
6.55872e-05
6.59665e-05
6.66904e-05
6.81614e-05
6.96872e-05
7.10952e-05
7.21055e-05
7.24844e-05
7.24011e-05
7.19298e-05
7.03903e-05
6.81682e-05
6.6317e-05
6.53403e-05
6.4921e-05
6.37311e-05
6.25611e-05
6.03011e-05
5.63247e-05
5.18696e-05
3.00549e-05
1.92721e-05
1.63337e-05
1.4831e-05
1.46235e-05
1.40043e-05
1.42121e-05
1.38597e-05
1.31601e-05
1.27412e-05
1.23349e-05
1.24164e-05
1.22525e-05
1.19096e-05
1.15106e-05
1.13337e-05
1.13468e-05
1.15451e-05
1.18492e-05
1.21825e-05
1.25009e-05
1.27933e-05
1.30519e-05
1.32582e-05
1.34247e-05
1.35595e-05
1.36742e-05
1.3776e-05
1.38707e-05
1.39572e-05
1.40312e-05
1.40916e-05
1.41429e-05
1.41898e-05
1.42359e-05
1.42841e-05
1.43342e-05
1.43883e-05
1.44334e-05
1.44839e-05
1.44929e-05
1.45051e-05
1.44578e-05
1.44765e-05
1.45678e-05
1.49718e-05
1.54675e-05
1.62714e-05
1.66105e-05
1.72285e-05
1.9334e-05
2.25074e-05
2.73811e-05
3.63419e-05
5.77636e-05
7.75361e-05
8.96296e-05
9.68936e-05
9.718e-05
0.000118534
0.000121175
0.000211049
8.52637e-05
5.09371e-05
5.55124e-05
5.36473e-05
5.48244e-05
5.79963e-05
5.97236e-05
6.09321e-05
6.18435e-05
6.26196e-05
6.3706e-05
6.53252e-05
6.64299e-05
6.68881e-05
6.70035e-05
6.696e-05
6.789e-05
7.00454e-05
7.27229e-05
7.55974e-05
7.78999e-05
7.91573e-05
7.95181e-05
7.92704e-05
7.76251e-05
7.45881e-05
7.18371e-05
7.05014e-05
7.0247e-05
6.93615e-05
6.81528e-05
6.60395e-05
6.2866e-05
5.96325e-05
3.44196e-05
1.98324e-05
1.68572e-05
1.56644e-05
1.57596e-05
1.46469e-05
1.46923e-05
1.3793e-05
1.33923e-05
1.31838e-05
1.25722e-05
1.25912e-05
1.23079e-05
1.19326e-05
1.14331e-05
1.1077e-05
1.10413e-05
1.13051e-05
1.17273e-05
1.22045e-05
1.26486e-05
1.30251e-05
1.33194e-05
1.35476e-05
1.37292e-05
1.38741e-05
1.39942e-05
1.40994e-05
1.4197e-05
1.42859e-05
1.43584e-05
1.44173e-05
1.44671e-05
1.45115e-05
1.45551e-05
1.46016e-05
1.46514e-05
1.47032e-05
1.47453e-05
1.47753e-05
1.47676e-05
1.47507e-05
1.47072e-05
1.47755e-05
1.5015e-05
1.56779e-05
1.6382e-05
1.71214e-05
1.71203e-05
1.76466e-05
2.02638e-05
2.36152e-05
2.75371e-05
3.56334e-05
5.00051e-05
7.33998e-05
8.68878e-05
9.76219e-05
0.000100779
0.000114479
0.000117167
0.000200126
8.165e-05
5.73466e-05
6.11505e-05
6.2383e-05
6.40124e-05
6.4821e-05
6.47904e-05
6.40778e-05
6.28649e-05
6.17496e-05
6.07384e-05
6.01952e-05
5.93596e-05
5.81164e-05
5.65656e-05
5.58324e-05
5.67624e-05
5.98336e-05
6.45248e-05
7.07406e-05
7.65668e-05
8.1208e-05
8.33215e-05
8.38738e-05
8.27211e-05
7.78928e-05
7.18284e-05
6.67805e-05
6.46073e-05
6.5462e-05
6.86002e-05
6.97688e-05
6.84368e-05
6.59692e-05
3.74955e-05
1.97548e-05
1.75175e-05
1.63902e-05
1.71191e-05
1.55614e-05
1.55361e-05
1.41193e-05
1.36715e-05
1.35859e-05
1.2793e-05
1.271e-05
1.2287e-05
1.1723e-05
1.09974e-05
1.0656e-05
1.06494e-05
1.09518e-05
1.13771e-05
1.18409e-05
1.23051e-05
1.27226e-05
1.30635e-05
1.33345e-05
1.35434e-05
1.36985e-05
1.38199e-05
1.3921e-05
1.40158e-05
1.41026e-05
1.41745e-05
1.42231e-05
1.42541e-05
1.42744e-05
1.42943e-05
1.43259e-05
1.43636e-05
1.43952e-05
1.44218e-05
1.44325e-05
1.44298e-05
1.44159e-05
1.44452e-05
1.46433e-05
1.51137e-05
1.60119e-05
1.65443e-05
1.69252e-05
1.6584e-05
1.71795e-05
2.0259e-05
2.45532e-05
2.89848e-05
4.07524e-05
5.95072e-05
7.50065e-05
8.62705e-05
9.90974e-05
0.000113647
0.000116037
0.000119576
0.000184711
8.19858e-05
6.63213e-05
6.98427e-05
7.02799e-05
7.06465e-05
7.01903e-05
6.91873e-05
6.78895e-05
6.56559e-05
6.33731e-05
6.0736e-05
5.81327e-05
5.49639e-05
5.21209e-05
4.90593e-05
4.69755e-05
4.65067e-05
4.70795e-05
5.00671e-05
5.54116e-05
6.64923e-05
7.80116e-05
8.37199e-05
8.64642e-05
8.72603e-05
8.31222e-05
7.47608e-05
6.48115e-05
5.79708e-05
5.24402e-05
5.69513e-05
6.58806e-05
7.12228e-05
7.105e-05
3.97207e-05
1.83336e-05
1.7999e-05
1.69016e-05
1.80246e-05
1.6335e-05
1.59278e-05
1.40904e-05
1.3295e-05
1.35913e-05
1.28955e-05
1.27376e-05
1.22495e-05
1.17942e-05
1.09806e-05
1.0419e-05
1.03153e-05
1.07049e-05
1.12726e-05
1.18598e-05
1.23956e-05
1.28583e-05
1.3231e-05
1.35296e-05
1.37663e-05
1.3951e-05
1.41031e-05
1.42344e-05
1.43525e-05
1.44533e-05
1.45316e-05
1.45845e-05
1.46244e-05
1.46578e-05
1.46893e-05
1.47244e-05
1.4765e-05
1.47999e-05
1.48381e-05
1.48639e-05
1.48853e-05
1.48983e-05
1.49798e-05
1.52247e-05
1.5715e-05
1.65987e-05
1.70412e-05
1.72539e-05
1.67668e-05
1.71086e-05
2.04151e-05
2.57701e-05
3.1469e-05
4.75074e-05
7.91586e-05
0.00010363
0.000111264
0.000119635
0.000126791
0.000116192
0.000120269
0.00017944
8.73978e-05
7.61055e-05
7.94821e-05
7.94581e-05
7.79795e-05
7.68261e-05
7.47371e-05
7.36403e-05
7.1535e-05
6.99869e-05
6.80918e-05
6.56604e-05
6.25502e-05
5.85169e-05
5.39817e-05
4.96248e-05
4.65309e-05
4.43589e-05
4.40026e-05
4.54887e-05
4.92902e-05
5.95247e-05
7.76887e-05
8.80184e-05
9.2102e-05
9.16785e-05
8.43225e-05
7.17416e-05
6.23654e-05
5.36419e-05
5.00745e-05
5.96961e-05
7.10916e-05
7.58233e-05
4.24669e-05
1.71115e-05
1.73923e-05
1.71009e-05
1.82523e-05
1.62876e-05
1.54523e-05
1.39142e-05
1.26627e-05
1.28657e-05
1.23879e-05
1.22151e-05
1.16961e-05
1.10794e-05
9.98125e-06
9.04346e-06
8.72879e-06
9.09636e-06
9.70873e-06
1.03011e-05
1.07949e-05
1.12075e-05
1.15485e-05
1.18258e-05
1.20478e-05
1.22205e-05
1.23591e-05
1.24749e-05
1.25747e-05
1.26508e-05
1.26964e-05
1.27176e-05
1.27284e-05
1.2736e-05
1.27473e-05
1.27634e-05
1.27863e-05
1.28031e-05
1.28276e-05
1.28494e-05
1.28836e-05
1.29161e-05
1.30129e-05
1.32231e-05
1.35556e-05
1.40687e-05
1.41966e-05
1.40028e-05
1.36905e-05
1.4295e-05
1.7289e-05
2.24715e-05
2.76579e-05
4.11463e-05
7.40903e-05
0.000102223
0.000103248
0.000114339
0.000119561
0.000109032
0.000111581
0.000180757
8.50115e-05
6.93888e-05
7.18204e-05
7.10132e-05
6.78591e-05
6.59592e-05
6.36553e-05
6.21449e-05
6.14503e-05
6.09697e-05
6.10152e-05
6.08074e-05
6.02361e-05
5.89635e-05
5.66133e-05
5.40906e-05
5.15158e-05
4.86834e-05
4.49398e-05
4.16783e-05
3.76647e-05
3.6042e-05
4.19056e-05
5.80658e-05
7.24209e-05
7.71958e-05
7.48046e-05
6.69023e-05
6.14134e-05
5.42153e-05
4.79426e-05
4.82049e-05
6.05059e-05
6.77736e-05
4.29103e-05
1.65192e-05
1.64194e-05
1.75098e-05
1.87982e-05
1.60112e-05
1.53208e-05
1.40032e-05
1.22751e-05
1.1898e-05
1.16031e-05
1.14432e-05
1.09415e-05
1.0158e-05
8.95385e-06
7.87904e-06
7.42809e-06
7.66474e-06
8.21203e-06
8.73834e-06
9.1646e-06
9.52837e-06
9.81469e-06
1.00444e-05
1.02335e-05
1.03831e-05
1.05027e-05
1.06042e-05
1.06911e-05
1.07584e-05
1.08029e-05
1.08288e-05
1.08482e-05
1.08698e-05
1.08968e-05
1.0925e-05
1.09542e-05
1.09769e-05
1.10033e-05
1.10284e-05
1.10712e-05
1.1126e-05
1.12223e-05
1.13736e-05
1.15219e-05
1.16964e-05
1.16749e-05
1.13993e-05
1.14157e-05
1.20806e-05
1.46205e-05
1.88406e-05
2.35762e-05
3.24816e-05
5.53139e-05
8.63905e-05
9.67647e-05
0.000123879
0.000122435
0.000113406
0.000115785
0.000202117
9.34968e-05
6.5225e-05
6.5021e-05
6.61035e-05
6.28417e-05
6.18162e-05
6.05775e-05
5.97016e-05
5.90194e-05
5.83862e-05
5.80072e-05
5.75675e-05
5.69338e-05
5.61306e-05
5.4919e-05
5.32235e-05
5.09463e-05
4.85912e-05
4.6033e-05
4.36343e-05
4.0609e-05
3.3451e-05
2.98611e-05
3.44062e-05
4.58323e-05
6.0907e-05
6.63966e-05
6.47818e-05
6.15713e-05
5.72541e-05
5.05568e-05
4.53898e-05
5.30049e-05
6.20732e-05
4.21262e-05
1.61417e-05
1.5265e-05
1.63238e-05
1.75751e-05
1.495e-05
1.39097e-05
1.32331e-05
1.18201e-05
1.11172e-05
1.06738e-05
1.04999e-05
9.87796e-06
9.04805e-06
7.87909e-06
6.91465e-06
6.414e-06
6.51141e-06
6.93312e-06
7.37254e-06
7.72694e-06
8.02839e-06
8.26771e-06
8.46118e-06
8.62194e-06
8.75288e-06
8.86234e-06
8.96056e-06
9.04195e-06
9.10357e-06
9.1445e-06
9.17193e-06
9.1968e-06
9.22681e-06
9.26729e-06
9.31016e-06
9.35226e-06
9.38504e-06
9.41589e-06
9.44865e-06
9.49538e-06
9.55487e-06
9.62649e-06
9.73056e-06
9.8099e-06
9.85406e-06
9.81191e-06
9.68226e-06
9.79084e-06
1.04917e-05
1.27617e-05
1.6627e-05
2.1328e-05
2.77052e-05
4.09495e-05
6.09183e-05
7.85584e-05
9.99859e-05
0.000113449
0.000122351
0.000128107
0.000215021
0.00012009
6.54938e-05
5.9463e-05
6.28151e-05
5.88749e-05
5.90257e-05
5.85653e-05
5.8076e-05
5.75723e-05
5.69967e-05
5.6303e-05
5.55055e-05
5.46107e-05
5.36829e-05
5.25679e-05
5.11969e-05
4.94106e-05
4.73969e-05
4.51996e-05
4.27623e-05
4.04109e-05
3.55222e-05
2.74624e-05
2.62327e-05
2.98496e-05
3.5255e-05
4.28777e-05
5.29221e-05
5.68273e-05
5.52993e-05
5.13525e-05
4.68743e-05
4.66837e-05
5.52088e-05
3.97916e-05
1.56956e-05
1.39338e-05
1.32056e-05
1.43253e-05
1.31412e-05
1.26941e-05
1.1228e-05
1.04763e-05
1.02333e-05
1.0283e-05
1.01458e-05
9.13049e-06
7.97867e-06
6.76572e-06
5.93909e-06
5.58732e-06
5.70842e-06
6.05605e-06
6.40931e-06
6.69601e-06
6.93999e-06
7.13976e-06
7.31237e-06
7.46063e-06
7.58655e-06
7.6984e-06
7.80264e-06
7.89692e-06
7.97272e-06
8.02949e-06
8.07025e-06
8.10638e-06
8.15083e-06
8.20692e-06
8.26285e-06
8.30929e-06
8.34665e-06
8.38028e-06
8.40799e-06
8.43588e-06
8.46949e-06
8.50617e-06
8.56427e-06
8.59017e-06
8.59515e-06
8.5481e-06
8.48734e-06
8.69693e-06
9.80229e-06
1.19687e-05
1.5719e-05
2.0125e-05
2.55258e-05
3.44432e-05
4.35646e-05
6.02084e-05
7.02411e-05
9.02206e-05
0.000124594
0.000134354
0.000214358
0.000133732
7.43997e-05
5.68334e-05
6.39079e-05
6.15113e-05
5.98198e-05
5.93842e-05
5.88982e-05
5.8273e-05
5.74094e-05
5.62441e-05
5.48858e-05
5.35214e-05
5.22326e-05
5.08692e-05
4.9514e-05
4.7923e-05
4.60678e-05
4.39877e-05
4.14732e-05
3.93068e-05
3.56811e-05
2.63609e-05
2.26626e-05
2.39497e-05
2.57872e-05
2.88371e-05
3.45068e-05
4.06117e-05
4.63013e-05
4.79502e-05
4.56538e-05
4.31844e-05
4.84414e-05
3.7491e-05
1.2287e-05
1.17592e-05
1.13366e-05
1.14235e-05
1.04222e-05
1.02835e-05
9.15547e-06
8.64211e-06
8.93637e-06
9.52468e-06
9.42945e-06
8.31367e-06
7.03557e-06
5.85998e-06
5.32744e-06
5.13556e-06
5.22463e-06
5.46321e-06
5.71154e-06
5.92656e-06
6.10725e-06
6.25633e-06
6.38458e-06
6.50382e-06
6.61983e-06
6.7288e-06
6.83498e-06
6.93697e-06
7.02577e-06
7.08938e-06
7.13211e-06
7.16899e-06
7.21633e-06
7.27789e-06
7.33996e-06
7.3938e-06
7.43715e-06
7.47149e-06
7.49951e-06
7.5237e-06
7.56275e-06
7.60758e-06
7.68182e-06
7.71204e-06
7.70866e-06
7.67673e-06
7.68691e-06
8.02904e-06
9.26931e-06
1.14028e-05
1.49401e-05
1.92862e-05
2.40257e-05
3.1289e-05
3.54896e-05
4.63695e-05
5.79474e-05
8.14147e-05
0.00012328
0.000137379
0.000210552
0.000141251
8.87288e-05
6.19582e-05
6.31715e-05
6.28129e-05
6.18378e-05
6.13075e-05
6.0495e-05
5.91747e-05
5.73501e-05
5.541e-05
5.34821e-05
5.1777e-05
5.03378e-05
4.88958e-05
4.75682e-05
4.60485e-05
4.42713e-05
4.24158e-05
4.01231e-05
3.78725e-05
3.49217e-05
2.67653e-05
1.98601e-05
2.02571e-05
2.09792e-05
2.21082e-05
2.4954e-05
2.86291e-05
3.33869e-05
3.85437e-05
3.96088e-05
3.93774e-05
4.17984e-05
3.3902e-05
1.11882e-05
1.11613e-05
1.05538e-05
1.04593e-05
9.37901e-06
9.04949e-06
8.17751e-06
7.65109e-06
8.01677e-06
8.48917e-06
8.41798e-06
7.15615e-06
5.99794e-06
5.29513e-06
4.95126e-06
4.74893e-06
4.81898e-06
5.02062e-06
5.22185e-06
5.39121e-06
5.53439e-06
5.65277e-06
5.75869e-06
5.85024e-06
5.93199e-06
6.01165e-06
6.09504e-06
6.182e-06
6.26188e-06
6.31874e-06
6.349e-06
6.37279e-06
6.41086e-06
6.47322e-06
6.54367e-06
6.60306e-06
6.65406e-06
6.69317e-06
6.72553e-06
6.75575e-06
6.80178e-06
6.84502e-06
6.91297e-06
6.92988e-06
6.92402e-06
6.87392e-06
6.89362e-06
7.30178e-06
8.6006e-06
1.07127e-05
1.40294e-05
1.79545e-05
2.22326e-05
2.83081e-05
3.31596e-05
4.12634e-05
5.4716e-05
8.23003e-05
0.000121531
0.000136438
0.000202112
0.00014392
0.000105623
7.96241e-05
7.30038e-05
6.91294e-05
6.60894e-05
6.3566e-05
6.10082e-05
5.83811e-05
5.57966e-05
5.3478e-05
5.13398e-05
4.94866e-05
4.79481e-05
4.64696e-05
4.52181e-05
4.38009e-05
4.21403e-05
4.044e-05
3.82879e-05
3.62071e-05
3.33906e-05
2.56902e-05
1.74102e-05
1.75459e-05
1.79121e-05
1.81062e-05
1.9114e-05
2.06981e-05
2.25737e-05
2.61906e-05
3.03793e-05
3.25629e-05
3.32291e-05
2.73848e-05
1.06943e-05
1.01825e-05
9.80278e-06
9.36154e-06
8.32006e-06
7.76715e-06
7.00994e-06
6.81553e-06
7.01456e-06
6.96496e-06
6.74579e-06
5.82409e-06
5.15984e-06
4.69856e-06
4.40372e-06
4.26029e-06
4.32825e-06
4.49572e-06
4.6574e-06
4.79197e-06
4.90473e-06
5.00252e-06
5.09352e-06
5.17993e-06
5.26329e-06
5.34793e-06
5.43885e-06
5.53411e-06
5.6228e-06
5.69094e-06
5.73192e-06
5.7647e-06
5.80986e-06
5.8741e-06
5.942e-06
5.99932e-06
6.04957e-06
6.08754e-06
6.11751e-06
6.14316e-06
6.18679e-06
6.22925e-06
6.29917e-06
6.31389e-06
6.3043e-06
6.25668e-06
6.32569e-06
6.80611e-06
8.0738e-06
9.93433e-06
1.27639e-05
1.59282e-05
1.99284e-05
2.50859e-05
3.11329e-05
3.80131e-05
5.63077e-05
8.24249e-05
0.000111382
0.000128761
0.000190994
0.000143349
0.000114616
8.96837e-05
7.82303e-05
7.17128e-05
6.67415e-05
6.27424e-05
5.92283e-05
5.60555e-05
5.32154e-05
5.08055e-05
4.86913e-05
4.68811e-05
4.53341e-05
4.37486e-05
4.24418e-05
4.09024e-05
3.94001e-05
3.78314e-05
3.57919e-05
3.38928e-05
3.11978e-05
2.42076e-05
1.51736e-05
1.51751e-05
1.55389e-05
1.56742e-05
1.58642e-05
1.62826e-05
1.68507e-05
1.792e-05
1.94959e-05
2.11299e-05
2.13742e-05
1.76298e-05
1.10833e-05
9.7152e-06
8.22634e-06
8.17393e-06
7.29179e-06
6.88157e-06
5.67884e-06
5.43585e-06
5.44244e-06
5.20824e-06
4.94906e-06
4.56769e-06
4.20374e-06
3.87301e-06
3.6209e-06
3.50982e-06
3.55482e-06
3.66965e-06
3.77829e-06
3.86757e-06
3.9428e-06
4.01044e-06
4.07545e-06
4.14029e-06
4.20589e-06
4.27316e-06
4.34492e-06
4.42063e-06
4.49276e-06
4.55146e-06
4.58955e-06
4.61769e-06
4.6528e-06
4.70417e-06
4.76435e-06
4.81563e-06
4.86277e-06
4.89824e-06
4.92323e-06
4.9399e-06
4.97538e-06
5.01247e-06
5.08515e-06
5.09986e-06
5.08994e-06
5.05687e-06
5.24024e-06
5.92811e-06
7.22221e-06
8.54874e-06
1.02247e-05
1.21358e-05
1.50041e-05
1.82353e-05
2.35088e-05
2.8535e-05
4.12936e-05
5.62291e-05
0.000107175
0.000121511
0.000181536
0.000133217
0.00010984
8.98381e-05
7.79675e-05
7.05432e-05
6.45591e-05
5.92557e-05
5.48472e-05
5.13535e-05
4.85205e-05
4.6243e-05
4.42966e-05
4.25857e-05
4.10861e-05
3.95443e-05
3.82371e-05
3.67207e-05
3.53523e-05
3.38119e-05
3.18434e-05
3.0171e-05
2.71794e-05
2.01395e-05
1.26504e-05
1.1796e-05
1.23859e-05
1.26074e-05
1.28305e-05
1.29393e-05
1.30644e-05
1.31332e-05
1.30645e-05
1.27516e-05
1.20778e-05
1.07434e-05
1.86266e-05
1.73509e-05
1.38901e-05
1.19877e-05
9.45441e-06
8.12407e-06
8.0341e-06
8.62248e-06
9.54597e-06
1.11518e-05
1.22223e-05
1.29801e-05
1.31668e-05
1.30894e-05
1.2725e-05
1.24455e-05
1.21455e-05
1.19076e-05
1.16219e-05
1.13404e-05
1.1122e-05
1.10045e-05
1.0984e-05
1.10239e-05
1.11175e-05
1.12525e-05
1.14164e-05
1.15973e-05
1.17688e-05
1.19172e-05
1.2026e-05
1.2102e-05
1.21635e-05
1.22173e-05
1.22704e-05
1.23315e-05
1.24258e-05
1.25445e-05
1.26993e-05
1.28622e-05
1.30373e-05
1.32898e-05
1.35097e-05
1.3914e-05
1.39916e-05
1.41388e-05
1.36611e-05
1.33576e-05
1.21733e-05
1.18274e-05
1.05202e-05
1.023e-05
1.20142e-05
2.23655e-05
3.07722e-05
3.43933e-05
6.10342e-05
6.84151e-05
8.24151e-05
0.000100511
0.00014432
0.000109482
9.17727e-05
7.55407e-05
6.6294e-05
5.82933e-05
5.08687e-05
3.85778e-05
2.88704e-05
2.95907e-05
3.17889e-05
3.34089e-05
3.52096e-05
3.67592e-05
3.81528e-05
3.90918e-05
3.97936e-05
4.00302e-05
4.0146e-05
4.00372e-05
3.98542e-05
3.97627e-05
3.97109e-05
3.95887e-05
3.94639e-05
3.92137e-05
3.90893e-05
3.89391e-05
3.80781e-05
3.68335e-05
3.57177e-05
3.3986e-05
3.21134e-05
3.03438e-05
2.82197e-05
2.43002e-05
6.86446e-05
6.05597e-05
4.82784e-05
4.14952e-05
3.3639e-05
3.30797e-05
3.57824e-05
3.75156e-05
3.89121e-05
4.20608e-05
4.35663e-05
4.37939e-05
4.25966e-05
4.04791e-05
3.85869e-05
3.77864e-05
3.79368e-05
3.85776e-05
3.9106e-05
3.95792e-05
3.98686e-05
4.02072e-05
4.06037e-05
4.09745e-05
4.13134e-05
4.16223e-05
4.19194e-05
4.21917e-05
4.23852e-05
4.25164e-05
4.25926e-05
4.26283e-05
4.26389e-05
4.26364e-05
4.26406e-05
4.26717e-05
4.27483e-05
4.28516e-05
4.30131e-05
4.31693e-05
4.33142e-05
4.34529e-05
4.38286e-05
4.45866e-05
4.55705e-05
4.66303e-05
4.71284e-05
4.71824e-05
4.68532e-05
4.7413e-05
4.44666e-05
3.57612e-05
2.20721e-05
3.49578e-05
9.25883e-05
0.000124987
0.000243722
0.000322155
0.000413787
0.000370837
2.09781e-05
6.68711e-05
0.000115322
0.000106129
8.27445e-05
7.25074e-05
6.61972e-05
5.49602e-05
6.23473e-05
7.1192e-05
7.74627e-05
7.70644e-05
8.47688e-05
9.30549e-05
0.000101812
0.000108442
0.000111722
0.000113417
0.000114521
0.000114232
0.000113241
0.000112142
0.000110335
0.000108639
0.000107207
0.000105265
0.000103612
0.00010105
9.68266e-05
9.23975e-05
8.83987e-05
8.285e-05
7.40693e-05
6.49475e-05
5.38505e-05
2.63339e-05
6.59925e-05
6.08661e-05
5.71832e-05
5.57707e-05
5.25613e-05
4.96828e-05
4.85719e-05
4.87485e-05
4.86759e-05
4.89318e-05
4.81632e-05
4.70331e-05
4.45924e-05
4.12312e-05
3.86302e-05
3.74802e-05
3.7901e-05
3.90646e-05
4.02403e-05
4.14317e-05
4.23672e-05
4.3236e-05
4.3985e-05
4.45364e-05
4.49162e-05
4.51644e-05
4.5344e-05
4.54763e-05
4.55442e-05
4.55473e-05
4.54811e-05
4.53572e-05
4.51998e-05
4.50384e-05
4.48981e-05
4.47984e-05
4.47232e-05
4.46585e-05
4.46226e-05
4.45379e-05
4.44961e-05
4.45324e-05
4.50285e-05
4.60869e-05
4.78168e-05
4.86725e-05
4.86936e-05
4.78599e-05
5.02805e-05
5.32008e-05
5.66361e-05
5.05616e-05
4.07587e-05
5.34453e-05
0.000103413
0.000133794
0.000242248
0.000308237
0.000175862
0.000140561
1.51719e-05
9.4671e-05
0.000138786
0.000110732
9.49137e-05
7.96194e-05
7.0445e-05
7.99925e-05
9.61477e-05
0.000109087
0.000115717
0.000120938
0.000128786
0.000136414
0.000143057
0.000147985
0.000148407
0.000146729
0.000144144
0.000143451
0.000143258
0.000142116
0.000138653
0.000135546
0.000131335
0.000125448
0.000118949
0.000112291
0.000105995
0.000101313
9.47418e-05
9.17277e-05
8.84277e-05
8.79522e-05
8.04596e-05
3.03203e-05
7.72209e-05
6.56105e-05
6.03534e-05
5.92777e-05
5.86722e-05
5.87922e-05
5.70573e-05
5.54282e-05
5.30384e-05
5.08347e-05
4.88556e-05
4.54809e-05
4.18381e-05
3.79891e-05
3.52259e-05
3.41557e-05
3.46733e-05
3.61787e-05
3.79927e-05
3.96958e-05
4.09942e-05
4.21906e-05
4.31839e-05
4.38821e-05
4.43159e-05
4.45499e-05
4.46859e-05
4.47665e-05
4.47903e-05
4.47361e-05
4.45967e-05
4.4406e-05
4.41891e-05
4.39712e-05
4.3782e-05
4.36471e-05
4.35025e-05
4.33573e-05
4.32032e-05
4.30233e-05
4.28646e-05
4.2675e-05
4.27572e-05
4.34013e-05
4.5044e-05
4.59869e-05
4.65676e-05
4.58039e-05
4.92846e-05
5.40503e-05
6.10961e-05
6.3183e-05
6.50188e-05
8.82165e-05
0.00014536
0.000180086
0.00025675
0.000280716
0.00010976
0.000105396
1.47268e-05
0.000103895
8.74663e-05
8.50149e-05
7.8e-05
7.75089e-05
8.66319e-05
0.00010043
0.000119639
0.000135235
0.000145262
0.000151982
0.000157554
0.000160929
0.000159073
0.000157589
0.000155013
0.000151415
0.000149499
0.000146371
0.000145021
0.000143427
0.00014247
0.00013879
0.000132411
0.00012531
0.000119002
0.0001124
0.000105383
9.85737e-05
9.00785e-05
8.45673e-05
8.01708e-05
8.31711e-05
8.21278e-05
3.6333e-05
8.81989e-05
6.82306e-05
6.10516e-05
6.04318e-05
5.97165e-05
6.16374e-05
6.07513e-05
5.78459e-05
5.51275e-05
5.04248e-05
4.74595e-05
4.36183e-05
4.00574e-05
3.61089e-05
3.37684e-05
3.28396e-05
3.30778e-05
3.40321e-05
3.52454e-05
3.64283e-05
3.76611e-05
3.8849e-05
3.96873e-05
4.02613e-05
4.06344e-05
4.08887e-05
4.10367e-05
4.11226e-05
4.11444e-05
4.10795e-05
4.09246e-05
4.07129e-05
4.0471e-05
4.02592e-05
4.0078e-05
3.99343e-05
3.97947e-05
3.96307e-05
3.94258e-05
3.91386e-05
3.8912e-05
3.88044e-05
3.91915e-05
4.0211e-05
4.18646e-05
4.23564e-05
4.25954e-05
4.26023e-05
4.39855e-05
5.21199e-05
6.30166e-05
6.8848e-05
7.96668e-05
0.000122655
0.000165227
0.000158492
0.000155893
0.000150504
3.09946e-05
2.85245e-05
1.14225e-05
9.05215e-05
8.20496e-05
8.29536e-05
8.8625e-05
9.13859e-05
0.000112424
0.000136647
0.00015175
0.000162809
0.000168561
0.000170873
0.000169813
0.000167411
0.000164383
0.000159087
0.000153388
0.000147091
0.00014439
0.000142579
0.000143761
0.000144117
0.000142108
0.000140487
0.000138559
0.000135384
0.000130012
0.000124142
0.000114175
0.000105515
9.25314e-05
8.56353e-05
7.75063e-05
7.97955e-05
8.15632e-05
4.0939e-05
9.88719e-05
6.88423e-05
6.01983e-05
5.95594e-05
5.82631e-05
6.08775e-05
6.01054e-05
5.68123e-05
5.42833e-05
4.86759e-05
4.59515e-05
4.24499e-05
3.92147e-05
3.50946e-05
3.04745e-05
2.82883e-05
2.8569e-05
3.0113e-05
3.22544e-05
3.44081e-05
3.62271e-05
3.7397e-05
3.80687e-05
3.85327e-05
3.88326e-05
3.90263e-05
3.91584e-05
3.92514e-05
3.92999e-05
3.92839e-05
3.91912e-05
3.90469e-05
3.88775e-05
3.87286e-05
3.85843e-05
3.84413e-05
3.83151e-05
3.81388e-05
3.78646e-05
3.74969e-05
3.71827e-05
3.71068e-05
3.76046e-05
3.8648e-05
4.01542e-05
4.08124e-05
3.89118e-05
3.57628e-05
3.78068e-05
5.01239e-05
6.43787e-05
7.31223e-05
8.34077e-05
0.000102819
0.000137304
0.000138468
0.000130618
0.000128278
1.65397e-05
1.71731e-05
1.0297e-05
0.000101194
0.000103535
0.000105857
0.00012472
0.000136343
0.000157327
0.000165217
0.000169171
0.000169148
0.000166657
0.000160946
0.000155631
0.000146449
0.000138313
0.000129177
0.000118975
0.000112628
0.00011064
0.000113236
0.000122782
0.000131009
0.000140231
0.00014304
0.000141872
0.000139663
0.000136457
0.000131261
0.00011856
0.000106942
9.24437e-05
8.47705e-05
7.67652e-05
7.76802e-05
7.93574e-05
4.24419e-05
9.81256e-05
6.84521e-05
5.6369e-05
5.50434e-05
5.57586e-05
5.8753e-05
5.72513e-05
5.38727e-05
5.1202e-05
4.68618e-05
4.48696e-05
4.17384e-05
3.71154e-05
3.11276e-05
2.69419e-05
2.48726e-05
2.49689e-05
2.60323e-05
2.73617e-05
2.87218e-05
3.00797e-05
3.12893e-05
3.22965e-05
3.30332e-05
3.35059e-05
3.37982e-05
3.3978e-05
3.41123e-05
3.4154e-05
3.40595e-05
3.38208e-05
3.34798e-05
3.30953e-05
3.27312e-05
3.24195e-05
3.21254e-05
3.17943e-05
3.14712e-05
3.11485e-05
3.08556e-05
3.06156e-05
3.06267e-05
3.11037e-05
3.23962e-05
3.39115e-05
3.32549e-05
3.07775e-05
2.94917e-05
3.17019e-05
4.3043e-05
6.34277e-05
7.25634e-05
8.66003e-05
0.000110952
0.000142457
0.000143885
0.000145783
0.000143069
1.05948e-05
1.47212e-05
1.44189e-05
0.00011777
0.000136738
0.00015363
0.000160138
0.000164992
0.000166406
0.000166239
0.000164975
0.000157983
0.000152237
0.000144654
0.000137648
0.000128786
0.000119846
0.000108986
9.87468e-05
8.94443e-05
8.38454e-05
8.0608e-05
8.61941e-05
0.000104274
0.000116457
0.000133394
0.000141113
0.000142745
0.000142559
0.000138267
0.000122002
0.000107241
8.28466e-05
6.9719e-05
6.78863e-05
7.10657e-05
7.82408e-05
4.60308e-05
8.11254e-05
6.77777e-05
5.12904e-05
4.96499e-05
5.18711e-05
5.65595e-05
5.52009e-05
5.03413e-05
4.88099e-05
4.48633e-05
4.23374e-05
3.78826e-05
3.34567e-05
2.73365e-05
2.18637e-05
1.92325e-05
1.93957e-05
2.0983e-05
2.28661e-05
2.44923e-05
2.58895e-05
2.68895e-05
2.75799e-05
2.80721e-05
2.8373e-05
2.8547e-05
2.8634e-05
2.86338e-05
2.85033e-05
2.8238e-05
2.78655e-05
2.74817e-05
2.71215e-05
2.67846e-05
2.64475e-05
2.61401e-05
2.58028e-05
2.55031e-05
2.51735e-05
2.48603e-05
2.45419e-05
2.44621e-05
2.46161e-05
2.52094e-05
2.61031e-05
2.6133e-05
2.4324e-05
2.27515e-05
2.51223e-05
3.51113e-05
5.63885e-05
7.09739e-05
9.00291e-05
0.000144473
0.000181352
0.00016615
0.000143733
0.000129228
1.01268e-05
1.52882e-05
1.68741e-05
0.000128218
0.000163955
0.000168882
0.000170299
0.000171059
0.0001693
0.000167881
0.000166592
0.000160191
0.000155224
0.00014785
0.000141018
0.00013376
0.000126317
0.000115131
0.000101777
9.30218e-05
8.18949e-05
7.37527e-05
6.95505e-05
7.29737e-05
9.54569e-05
0.000112505
0.000127168
0.000139891
0.000146904
0.000146449
0.000130852
0.000115317
9.12671e-05
8.54905e-05
9.27232e-05
0.000104893
0.000127153
0.000139553
6.29601e-05
6.58617e-05
4.81682e-05
4.28965e-05
4.30562e-05
4.01274e-05
4.65315e-05
4.49233e-05
4.45626e-05
4.12133e-05
3.87675e-05
3.4366e-05
2.91928e-05
2.2451e-05
1.79667e-05
1.57955e-05
1.56392e-05
1.62724e-05
1.71502e-05
1.79397e-05
1.84779e-05
1.92027e-05
1.98585e-05
2.03383e-05
2.06136e-05
2.07544e-05
2.08306e-05
2.09113e-05
2.09051e-05
2.07724e-05
2.05201e-05
2.02022e-05
1.98735e-05
1.96038e-05
1.93999e-05
1.9225e-05
1.90113e-05
1.87994e-05
1.86076e-05
1.84635e-05
1.82875e-05
1.82365e-05
1.82951e-05
1.86348e-05
1.88671e-05
1.87798e-05
1.82715e-05
1.82336e-05
2.1937e-05
3.09064e-05
4.92867e-05
6.64693e-05
8.03609e-05
0.000155592
0.000209009
0.000200406
0.000172337
0.000138607
1.40232e-05
1.57339e-05
1.6015e-05
0.000123497
0.000160257
0.000162369
0.000163611
0.000162654
0.000162191
0.000159669
0.000158002
0.000153791
0.000150172
0.000145542
0.000140129
0.000133722
0.000126915
0.000119363
0.000111635
0.000102917
9.07381e-05
8.09062e-05
6.44367e-05
5.5035e-05
5.46466e-05
6.96201e-05
0.000104551
0.000123276
0.000136235
0.000143091
0.00012483
0.000101307
9.277e-05
8.41901e-05
8.13778e-05
8.91616e-05
7.65258e-05
6.53293e-05
6.30127e-05
6.07566e-05
4.76626e-05
4.77079e-05
3.76834e-05
3.26827e-05
3.26238e-05
3.91032e-05
3.87345e-05
3.67584e-05
3.51365e-05
3.13302e-05
2.58315e-05
1.98813e-05
1.55751e-05
1.41218e-05
1.39812e-05
1.4422e-05
1.49953e-05
1.56386e-05
1.65855e-05
1.70864e-05
1.73464e-05
1.75586e-05
1.76721e-05
1.76705e-05
1.76664e-05
1.77093e-05
1.76844e-05
1.75663e-05
1.73657e-05
1.71598e-05
1.70148e-05
1.69088e-05
1.68331e-05
1.67884e-05
1.67189e-05
1.6649e-05
1.65834e-05
1.65382e-05
1.64443e-05
1.6342e-05
1.62789e-05
1.6163e-05
1.60571e-05
1.63138e-05
1.61239e-05
1.65553e-05
2.0611e-05
2.87171e-05