/*--------------------------------*- C++ -*----------------------------------*\
| =========                 |                                                 |
| \\      /  F ield         | OpenFOAM: The Open Source CFD Toolbox           |
|  \\    /   O peration     | Version:  2.3.0                                 |
|   \\  /    A nd           | Web:      www.OpenFOAM.org                      |
|    \\/     M anipulation  |                                                 |
\*---------------------------------------------------------------------------*/
FoamFile
{
    version     2.0;
    format      ascii;
    class       volVectorField;
    location    "37";
    object      U.water;
}
// * * * * * * * * * * * * * * * * * * * * * * * * * * * * * * * * * * * * * //

dimensions      [0 1 -1 0 0 0 0];

internalField   nonuniform List<vector> 
6144
(
(0.0119346 0.0205678 -7.6036e-05)
(0.0130474 -0.00589024 -0.00195241)
(0.00438068 -0.00820873 -0.0033088)
(0.00306902 -0.00608828 -0.00286253)
(0.00187067 -0.00364702 -0.00223208)
(0.00312305 -0.000430613 -0.0020117)
(0.00330979 -0.000419417 -0.00161383)
(0.00308024 0.00039923 -0.0011455)
(0.00233339 -0.000105162 -0.000760952)
(0.00176091 0.00113239 -0.000279274)
(0.00133354 0.00231705 0.00022987)
(0.00127688 0.00343879 0.000924748)
(0.00140988 0.00361343 0.00133486)
(0.001558 0.00310602 0.00176035)
(0.00164301 0.00218971 0.001785)
(0.00174717 0.00127321 0.00166852)
(0.00181934 0.000372867 0.00140321)
(0.00189856 -0.000331244 0.00113531)
(0.00196544 -0.000891884 0.000855472)
(0.00201608 -0.00122063 0.000602322)
(0.00205733 -0.00137953 0.000382045)
(0.00208585 -0.00140426 0.000243268)
(0.00209122 -0.00135928 0.000190987)
(0.00207795 -0.00127313 0.000196106)
(0.00204718 -0.00117313 0.000257632)
(0.00200191 -0.0010785 0.000372842)
(0.00194789 -0.00100282 0.000520823)
(0.00189691 -0.000962773 0.000671022)
(0.00184461 -0.000978423 0.000828263)
(0.00179194 -0.00105 0.000975005)
(0.00173625 -0.00115802 0.00110301)
(0.00167784 -0.00127899 0.00122202)
(0.00161849 -0.00141085 0.00135296)
(0.00156027 -0.00157525 0.00151019)
(0.00150766 -0.00180338 0.00169578)
(0.00146643 -0.00213161 0.00189454)
(0.0014392 -0.00257046 0.00206595)
(0.00142702 -0.00310097 0.0021725)
(0.00143246 -0.00366678 0.00218626)
(0.00146266 -0.0042299 0.00207534)
(0.00150247 -0.00464586 0.00176865)
(0.00152512 -0.00474984 0.00117558)
(0.00150819 -0.00416093 0.000501968)
(0.00161021 -0.00285761 -1.85509e-06)
(0.00190696 -0.001981 -0.000143037)
(0.00222331 -0.00178169 -0.00044084)
(0.0040247 -0.00307546 -0.00203109)
(0.00912813 -0.00646958 -0.00479474)
(0.00662169 -0.0119427 -0.0042396)
(0.00437171 -0.0067678 -0.00380811)
(0.0236401 -0.00653014 -0.00831822)
(0.0438576 -0.030567 -0.0118487)
(0.0563104 -0.0708198 -0.00831048)
(0.0225502 -0.127606 0.00669646)
(0.0127237 -0.122544 0.00645593)
(0.00314292 -0.125506 -0.00251163)
(-0.0143274 -0.0678996 0.00239241)
(-0.0176615 -0.139693 0.0519045)
(-0.0454686 0.00937103 -0.0497865)
(0.0115219 -0.058907 0.0497011)
(0.115718 -0.282637 0.0792225)
(0.0888362 -0.113606 0.0349136)
(0.0633395 -0.176364 -0.00154541)
(0.0563276 -0.215972 0.000290375)
(0.0457047 -0.220027 0.00969991)
(0.0402001 -0.217384 0.0145012)
(0.0378094 -0.210688 0.0146885)
(0.0318213 -0.206744 0.00984825)
(0.0233583 -0.201738 0.00226829)
(0.0145569 -0.193263 -0.000515199)
(0.00967257 -0.189345 0.000217637)
(0.00806339 -0.189486 -0.00168129)
(0.00622031 -0.192465 -0.00402764)
(0.00597155 -0.200497 -0.00739951)
(0.00551175 -0.207897 -0.0113761)
(0.00555258 -0.217761 -0.0121865)
(0.00167421 -0.226492 -0.0116092)
(-0.00322159 -0.232517 -0.00718814)
(-0.0104345 -0.234788 -0.00355348)
(-0.0148823 -0.233289 0.0006646)
(-0.0203158 -0.228992 0.00831117)
(-0.0252547 -0.226987 0.0121933)
(-0.0277018 -0.22366 0.0206124)
(-0.0287142 -0.227914 0.0274237)
(-0.0269944 -0.234779 0.0259194)
(-0.0237286 -0.239822 0.0190471)
(-0.024456 -0.23668 0.00597073)
(-0.0164289 -0.221117 -0.00184118)
(-0.0207958 -0.193428 -0.0177533)
(-0.0203543 -0.124915 -0.0308542)
(-0.00432949 -0.0336534 -0.0207479)
(0.00449788 -0.011882 -0.00615997)
(0.00233103 -0.00688439 -0.00112619)
(0.000252104 -0.00360141 -0.000802713)
(0.00313256 0.00277626 0.00360551)
(0.00958994 0.00223594 0.00699594)
(0.0218346 0.019161 0.00362789)
(0.0243039 0.00261716 0.00323679)
(0.0100614 -0.00283277 -0.0019845)
(0.00812671 -0.00252336 -0.00138074)
(0.00417204 -0.00427463 -6.39648e-05)
(0.00524044 -0.0013612 0.00064913)
(0.00498712 -0.00122248 0.00164371)
(0.00470366 0.000635435 0.00225373)
(0.00345949 0.000427527 0.00254601)
(0.00236995 0.00220314 0.00255135)
(0.00180779 0.00350682 0.00277875)
(0.00199972 0.00454251 0.00348251)
(0.00244934 0.00455514 0.00395293)
(0.0029208 0.00407448 0.00426408)
(0.00311685 0.00312101 0.00432296)
(0.00329355 0.00217478 0.00430148)
(0.00335509 0.00118133 0.00421941)
(0.0034313 0.000388258 0.00414054)
(0.00347542 -0.000290688 0.00406896)
(0.00348528 -0.000758331 0.0040176)
(0.00350516 -0.00104555 0.00394311)
(0.00351506 -0.00117023 0.00388788)
(0.00348943 -0.00120654 0.00388768)
(0.00343148 -0.00118137 0.00393521)
(0.00334451 -0.00112513 0.00402352)
(0.00323631 -0.00105904 0.00414175)
(0.00311797 -0.00100245 0.004271)
(0.00302516 -0.000976537 0.00435728)
(0.00294439 -0.0010057 0.00444648)
(0.00286332 -0.00107989 0.00452976)
(0.00277162 -0.00118273 0.00460853)
(0.00267419 -0.00130266 0.00469038)
(0.00258502 -0.00145016 0.00478064)
(0.00251699 -0.00164693 0.00488142)
(0.00247961 -0.00190958 0.00498971)
(0.00247636 -0.00224945 0.00509421)
(0.00249875 -0.0026641 0.00518142)
(0.00253538 -0.00314226 0.00523858)
(0.002582 -0.00364262 0.00525366)
(0.0026282 -0.00414359 0.00519614)
(0.0026021 -0.00453263 0.00500814)
(0.00241756 -0.00470226 0.00455953)
(0.00210287 -0.00437602 0.00382996)
(0.00217792 -0.00370309 0.00300018)
(0.00305414 -0.00336932 0.00286688)
(0.00508011 -0.00468206 0.00379475)
(0.0101212 -0.0099646 0.00151109)
(0.0155651 -0.00804976 -0.00209634)
(0.0124639 -0.00577067 -0.00268694)
(0.0102771 -0.0104007 -0.000268918)
(0.03334 -0.0186518 -0.00665114)
(0.088011 -0.0244104 -0.0141082)
(0.0830057 -0.0349681 -0.0124448)
(0.0236311 -0.0558381 -0.00610494)
(-0.0429378 -0.0179316 0.00479708)
(-0.0147536 -0.0602018 0.0218909)
(-0.0366268 -0.0160039 0.0347698)
(-0.064532 -0.121227 0.081886)
(-0.0727598 0.0499342 -0.0709956)
(-0.0324067 -0.0891568 0.0239704)
(0.147987 -0.26178 0.113961)
(0.0962099 -0.0580532 0.0445822)
(0.0459829 -0.138144 -0.00198882)
(0.0300874 -0.114044 0.0070585)
(-0.0128501 -0.112612 0.0194292)
(-0.0331949 -0.108785 0.035336)
(-0.0409875 -0.107165 0.0441544)
(-0.0418143 -0.112368 0.0496239)
(-0.0415496 -0.123471 0.0500857)
(-0.036603 -0.126354 0.0420951)
(-0.0341909 -0.133928 0.0285653)
(-0.023203 -0.137501 0.019207)
(-0.0156761 -0.146365 0.0124625)
(-0.00681552 -0.14877 0.00139674)
(-0.00307714 -0.15502 -0.00678547)
(-0.0057392 -0.166184 -0.00679211)
(-0.0109794 -0.178675 -0.00782785)
(-0.0188104 -0.19267 -0.00725253)
(-0.028384 -0.203969 -0.00783935)
(-0.0341112 -0.209779 -0.00815181)
(-0.0387324 -0.210515 -0.00319669)
(-0.0434069 -0.214769 5.48801e-05)
(-0.0453518 -0.216612 0.00483161)
(-0.0459479 -0.22194 0.0103226)
(-0.0440808 -0.233295 0.0119562)
(-0.0364865 -0.240686 0.00531538)
(-0.033871 -0.237144 -0.00726233)
(-0.0282881 -0.220651 -0.0120616)
(-0.0211667 -0.191749 -0.0248082)
(-0.0460932 -0.14461 -0.0324838)
(-0.042239 -0.0812689 -0.027408)
(-0.00474601 -0.0372943 -0.00959765)
(0.00568476 -0.0179067 -0.000210625)
(0.003255 -0.0162369 0.000231113)
(-0.00120197 -0.0104874 0.000575349)
(-0.00282518 -0.00671509 0.0057326)
(0.0249505 0.0188772 0.00447636)
(0.0280556 0.00916245 0.00452257)
(0.0161738 0.00254695 0.000679125)
(0.0121401 0.0020598 0.00164671)
(0.00450717 -0.00273391 0.00316849)
(0.0043174 0.000269881 0.00298545)
(0.00301606 -0.000386817 0.00381763)
(0.00276715 0.00170493 0.00398572)
(0.00156991 0.00124721 0.00411489)
(0.000635893 0.00248473 0.00409354)
(0.00014483 0.00292572 0.00413006)
(0.000742135 0.00378202 0.00446146)
(0.00132811 0.00379297 0.004772)
(0.00191605 0.00374355 0.00500164)
(0.00219349 0.00322459 0.00501927)
(0.00244319 0.00266873 0.004993)
(0.00252516 0.00194341 0.00493255)
(0.00261264 0.00133331 0.00489094)
(0.00265112 0.000750143 0.00486293)
(0.00263207 0.000267825 0.00486664)
(0.00256649 -0.00013092 0.00488965)
(0.00247795 -0.000403699 0.00493411)
(0.00237901 -0.000587916 0.00498891)
(0.00226694 -0.00069814 0.00505092)
(0.002143 -0.000764201 0.00511886)
(0.0020145 -0.000806077 0.00518922)
(0.00188596 -0.000849381 0.00526118)
(0.00175783 -0.000900151 0.00533805)
(0.00164269 -0.000956575 0.00541409)
(0.00151934 -0.00102224 0.00548595)
(0.00138043 -0.00109689 0.0055597)
(0.00124557 -0.00119271 0.00564027)
(0.00113581 -0.00132098 0.00572513)
(0.00105931 -0.00148345 0.00580916)
(0.00102145 -0.00167844 0.00588427)
(0.00102171 -0.00189757 0.00594253)
(0.00106043 -0.00213046 0.00598056)
(0.00113416 -0.00237705 0.00599005)
(0.00124979 -0.00261126 0.00595709)
(0.00138732 -0.00284757 0.00584904)
(0.00149893 -0.00308237 0.00561805)
(0.00139022 -0.0034552 0.00517624)
(0.00118751 -0.00391918 0.0044745)
(0.00113301 -0.00462712 0.00357283)
(0.00197276 -0.00601127 0.00354108)
(0.00508242 -0.00947335 0.00523434)
(0.0107698 -0.0138446 0.00227487)
(0.0173101 -0.00877976 -0.000530665)
(0.0193447 -0.00168765 0.000653605)
(0.0242718 -0.0092339 0.00469144)
(0.0485769 -0.0167179 -0.00309994)
(0.102751 -0.00810639 -0.00840605)
(0.0937401 0.00746244 -0.0132882)
(-0.00720888 0.0141501 0.010312)
(-0.0331611 0.0402975 0.0255207)
(-0.0078917 -0.0523841 0.0261251)
(-0.0744611 0.0257431 0.0421208)
(-0.0886557 -0.11557 0.0911729)
(-0.143865 0.0317571 -0.0636189)
(0.0126024 -0.00525488 -0.0191743)
(0.213042 -0.303719 0.114847)
(0.129025 -0.0483834 0.0677333)
(0.0675641 -0.118322 0.0204336)
(0.03813 -0.0386057 0.0235418)
(-0.0231237 -0.0564272 0.0162159)
(-0.0299455 -0.0423576 0.0296082)
(-0.0334588 -0.0516362 0.0355458)
(-0.044204 -0.058585 0.0417496)
(-0.058113 -0.0724147 0.0342429)
(-0.0541392 -0.0797551 0.0327188)
(-0.0346114 -0.0849584 0.0292188)
(-0.0210493 -0.0807916 0.00718653)
(-0.00260512 -0.0846055 -0.0243137)
(0.0242207 -0.0670136 -0.0216018)
(0.038523 -0.0675044 -0.00823485)
(0.0373801 -0.0729336 -0.000425667)
(0.0326086 -0.0827042 0.00164856)
(0.021076 -0.0901606 0.00126994)
(0.00398861 -0.101267 0.000433719)
(-0.00887862 -0.109583 0.00420201)
(-0.0190178 -0.118753 0.00599612)
(-0.037212 -0.134996 0.00664606)
(-0.0488814 -0.156881 0.0122527)
(-0.0548273 -0.179655 0.0140433)
(-0.0564973 -0.19937 0.0153249)
(-0.0492671 -0.21528 0.00554171)
(-0.0438086 -0.214802 -0.0101871)
(-0.0373136 -0.200834 -0.0133761)
(-0.032712 -0.174126 -0.0221854)
(-0.0553778 -0.128749 -0.0305358)
(-0.0544282 -0.0781123 -0.0167486)
(-0.0209288 -0.0516387 -0.00366866)
(-0.00275966 -0.0293388 0.00132943)
(-0.00200112 -0.0218256 0.00352778)
(-0.00758482 -0.0129179 0.00226659)
(-0.0101076 -0.00839599 0.00596814)
(0.0258027 0.0198024 0.00479472)
(0.0297849 0.0144401 0.00513951)
(0.018501 0.00630468 0.000933022)
(0.0150031 0.00644243 0.00140056)
(0.0054109 -0.000805685 0.00278618)
(0.0035536 0.00130465 0.00283183)
(0.00155664 6.92692e-05 0.00392825)
(0.00137291 0.00203553 0.00410804)
(0.000122092 0.00109156 0.00432197)
(-0.000663019 0.0018528 0.00428748)
(-0.00119 0.00160258 0.00439535)
(-0.000707244 0.00238356 0.00474395)
(-0.000199573 0.00272736 0.00502533)
(0.000432809 0.00311637 0.00522517)
(0.000796303 0.00296359 0.0052193)
(0.00109446 0.00270408 0.00522087)
(0.00118398 0.00216899 0.005197)
(0.00124871 0.00169616 0.00520012)
(0.00125955 0.00120711 0.00519743)
(0.00123016 0.000782023 0.00520538)
(0.00113013 0.000381218 0.00521211)
(0.00100598 4.92533e-05 0.00523055)
(0.000865902 -0.000222502 0.00526096)
(0.000717517 -0.000427862 0.00530239)
(0.000571003 -0.000575145 0.00535317)
(0.000432446 -0.000676866 0.00540931)
(0.000305719 -0.000748468 0.00546553)
(0.000193198 -0.000804999 0.00551748)
(9.50371e-05 -0.000856063 0.00556548)
(-3.38757e-06 -0.000910451 0.00561227)
(-0.000102439 -0.000974872 0.00566769)
(-0.000186839 -0.0010527 0.00573021)
(-0.000247419 -0.00114341 0.00578841)
(-0.000273506 -0.00124715 0.0058322)
(-0.000262652 -0.00136569 0.00585589)
(-0.000210328 -0.00149746 0.0058557)
(-0.00011755 -0.0016406 0.00583637)
(1.32544e-06 -0.00179053 0.0057919)
(0.000152509 -0.00192156 0.00570736)
(0.000359851 -0.00206273 0.00556498)
(0.000632613 -0.00230449 0.00534046)
(0.000802741 -0.0028424 0.00494745)
(0.000648816 -0.00394291 0.00428944)
(0.00058853 -0.00637543 0.00361907)
(0.00234671 -0.0107679 0.00392637)
(0.00468892 -0.0176265 0.0052661)
(0.00829363 -0.0191857 0.00088993)
(0.0129075 -0.0116518 -0.00195548)
(0.0195341 0.000970607 0.0029667)
(0.0253188 -0.00111271 0.00795796)
(0.0450428 -0.00623304 0.000455656)
(0.101887 0.0191978 -0.00725504)
(0.0857741 0.0608543 -0.0145909)
(-0.0239113 0.0702272 0.00847013)
(-0.0560538 0.0678098 0.0266412)
(-0.0550062 0.00436562 0.0416894)
(-0.0894062 0.0901141 0.0688802)
(-0.079032 -0.15888 0.109229)
(-0.186465 0.0739043 -0.0392735)
(0.0611549 -0.0961493 0.0134463)
(0.236709 -0.276058 0.132106)
(0.0973403 0.0667265 0.0383494)
(0.0136995 -0.1112 0.00756486)
(-0.0101491 0.040287 0.0195135)
(-0.0372455 -0.0551525 0.0320598)
(-0.0525276 -0.025381 0.0274222)
(-0.0646183 -0.0347954 0.0274677)
(-0.0689738 -0.0374525 0.0388908)
(-0.0604574 -0.0383817 0.0380482)
(-0.0405055 -0.0276108 0.000801086)
(-0.0166596 0.0288523 -0.0232009)
(0.0340314 0.0509797 -0.0257902)
(0.053314 0.0419469 -0.0109041)
(0.0618825 0.0405969 8.09745e-05)
(0.0539003 0.00987876 0.00756055)
(0.0464638 -0.00754207 0.00604016)
(0.0400885 -0.024845 -0.00094514)
(0.0279881 -0.0273537 -0.00425039)
(0.00791688 -0.0316092 0.0024718)
(-0.00522845 -0.0267652 0.00485188)
(-0.00943851 -0.0243858 0.00835323)
(-0.00071691 -0.0315599 0.0122763)
(-0.00487237 -0.0517912 0.0241775)
(-0.0240277 -0.0945266 0.0257861)
(-0.0335901 -0.134504 0.0200316)
(-0.0380618 -0.162921 -9.47967e-05)
(-0.0363701 -0.164433 -0.0066612)
(-0.0313288 -0.153084 -0.00386501)
(-0.039341 -0.129378 -0.0138534)
(-0.0705518 -0.0740546 -0.0201112)
(-0.0609739 -0.0538259 -0.00761029)
(-0.0178958 -0.0393838 0.000963677)
(-0.00868977 -0.0284543 0.00602834)
(-0.0120936 -0.0229394 0.0054835)
(-0.0193212 -0.0147202 0.00254751)
(-0.02616 -0.00746649 0.00497068)
(0.0255187 0.0204535 0.00474214)
(0.0314149 0.0183151 0.0056805)
(0.0210126 0.00941565 0.00152751)
(0.0198926 0.00996332 0.00115875)
(0.00844103 0.000296964 0.000266162)
(0.00387306 0.00194012 0.000526064)
(8.48804e-06 -0.00115735 0.00291057)
(3.67381e-05 0.00179645 0.00343264)
(-0.00119402 0.000519507 0.00387286)
(-0.00190054 0.00124707 0.00415089)
(-0.00288074 0.000599376 0.00433121)
(-0.00287889 0.00135544 0.00468928)
(-0.00262712 0.0018603 0.00490913)
(-0.00190003 0.00255464 0.00511685)
(-0.00141116 0.00261699 0.00508084)
(-0.00105983 0.0025067 0.005109)
(-0.000997957 0.00207616 0.00511788)
(-0.00105231 0.00171323 0.00515796)
(-0.00114913 0.00131638 0.00516649)
(-0.00125818 0.000962181 0.00515889)
(-0.00139072 0.000597239 0.00512993)
(-0.00153109 0.000250497 0.00510291)
(-0.0016681 -5.84171e-05 0.0050881)
(-0.00181331 -0.000311512 0.00508353)
(-0.00196356 -0.000508421 0.00508765)
(-0.00209376 -0.000651898 0.00510074)
(-0.00220012 -0.000755306 0.00511933)
(-0.00228055 -0.00083482 0.00513728)
(-0.00233995 -0.000896067 0.00514617)
(-0.00239785 -0.000945221 0.00515516)
(-0.00246352 -0.000994176 0.00517288)
(-0.00252137 -0.00104412 0.0051939)
(-0.00255189 -0.00109162 0.00520933)
(-0.00253782 -0.00113549 0.00521)
(-0.00247565 -0.0011763 0.00519285)
(-0.00236691 -0.00121002 0.00515901)
(-0.00222578 -0.00122135 0.00511548)
(-0.00207009 -0.00119886 0.00506859)
(-0.00188803 -0.00112073 0.00502529)
(-0.0016221 -0.00106028 0.00500895)
(-0.00127454 -0.00116604 0.00502208)
(-0.000875696 -0.00185132 0.00500068)
(-0.000121651 -0.00413492 0.00491379)
(0.00188948 -0.0092468 0.00551596)
(0.005507 -0.0173675 0.00765751)
(0.00551056 -0.0263537 0.00746398)
(0.0027973 -0.0277939 0.000893708)
(0.00525868 -0.018311 -0.0038714)
(0.0137299 -0.000938593 0.00266963)
(0.0218321 0.00625563 0.00534298)
(0.0353493 0.0171022 -0.00231214)
(0.0781158 0.071335 -0.00616633)
(0.0766504 0.129587 -0.00798981)
(0.00212518 0.130496 0.00528647)
(-0.0403474 0.103829 0.0179211)
(-0.0513202 0.0787658 0.0573057)
(-0.0458866 0.153148 0.106107)
(-0.0397771 -0.157515 0.141161)
(-0.273938 0.168462 -0.068756)
(0.00297018 -0.189781 0.0101794)
(0.211109 -0.21685 0.145202)
(0.0757304 0.106206 0.0146531)
(0.0437792 -0.103392 0.0213861)
(-0.0225251 0.043178 0.00452574)
(-0.0179009 -0.0489419 0.0341782)
(-0.058625 -0.0120121 0.0202755)
(-0.0671495 -0.0214727 0.0259734)
(-0.0684137 -0.0163482 0.0300386)
(-0.0741623 -0.00217228 0.0075413)
(-0.0657121 0.0635098 -0.01066)
(-0.00692972 0.0809631 0.000943478)
(0.041523 0.0843915 -0.000732118)
(0.0628768 0.0885153 -0.00633898)
(0.0732437 0.0927115 -0.00895052)
(0.0787185 0.0924732 -0.00409704)
(0.0673107 0.0746995 0.00466962)
(0.0548123 0.0662944 0.000745327)
(0.0287202 0.0551392 -0.00172013)
(0.0170139 0.0517082 -0.0052885)
(0.0128216 0.0593178 2.43264e-05)
(0.0115458 0.0545531 0.0336745)
(-0.016783 0.0177142 0.0682204)
(-0.0244029 -0.00534643 0.0656241)
(-0.0300011 -0.0417695 0.0587979)
(-0.0383144 -0.0754894 0.0291198)
(-0.0343031 -0.0849284 -0.00667156)
(-0.0270538 -0.0751294 -0.00852207)
(-0.038254 -0.0419293 -0.00739149)
(-0.0612442 -0.0182385 -0.0044475)
(-0.0654627 -0.0111856 0.00310498)
(-0.0449523 -0.0230731 0.0122735)
(-0.0268109 -0.0189094 0.016079)
(-0.0220536 -0.0156814 0.0144779)
(-0.0238373 -0.015609 0.00996951)
(-0.0298687 -0.00818698 -0.00248233)
(-0.0363551 0.000612485 0.00330919)
(0.0239325 0.0199238 0.00493273)
(0.0325771 0.0220701 0.00740965)
(0.0216253 0.0115437 0.00333105)
(0.0228052 0.012958 0.00340537)
(0.0129811 0.001487 -0.00076956)
(0.00648012 0.00340362 -0.00174595)
(-0.000468395 -0.00279836 0.00119565)
(-0.00180583 0.0011538 0.00215623)
(-0.00238203 -0.000574607 0.00278615)
(-0.00317055 0.000569095 0.0034547)
(-0.00412805 -0.000354442 0.00369029)
(-0.00426753 0.000542707 0.00415801)
(-0.00398136 0.00117626 0.00439619)
(-0.00299227 0.00211564 0.00482909)
(-0.00221685 0.00217084 0.00501272)
(-0.00175304 0.00204353 0.0052085)
(-0.00169677 0.00159827 0.00528263)
(-0.00184059 0.001324 0.00532268)
(-0.00199563 0.00107401 0.00529742)
(-0.00214364 0.00088922 0.00523143)
(-0.00229731 0.000677515 0.00512192)
(-0.00246259 0.000439988 0.00499767)
(-0.00264356 0.000200048 0.00488026)
(-0.00280869 -2.12597e-05 0.00477707)
(-0.00294732 -0.000196856 0.00468789)
(-0.00305057 -0.000321656 0.00460644)
(-0.00311671 -0.000412137 0.0045349)
(-0.00315711 -0.000479997 0.00446894)
(-0.00318932 -0.000541601 0.00440857)
(-0.00321328 -0.000598582 0.00436757)
(-0.003236 -0.000644194 0.00435007)
(-0.00324504 -0.000671499 0.00434348)
(-0.00322852 -0.000676955 0.00433362)
(-0.00317417 -0.000663035 0.00430555)
(-0.0030901 -0.000635664 0.00425831)
(-0.00298538 -0.000598756 0.00419501)
(-0.00287843 -0.000545316 0.00413295)
(-0.00279517 -0.00046679 0.00409349)
(-0.00270567 -0.000343395 0.0041248)
(-0.00250638 -0.000343117 0.00432485)
(-0.00197782 -0.000575644 0.00486806)
(-0.000716574 -0.00167477 0.00583394)
(0.0016651 -0.00466164 0.00750239)
(0.00512829 -0.0112801 0.00995644)
(0.00826678 -0.0201061 0.0129406)
(0.00742247 -0.0279077 0.0131819)
(-1.47743e-05 -0.0330999 0.00452473)
(-0.00180721 -0.0239289 -0.00443724)
(0.000431669 -0.00883764 -0.000478683)
(-0.00119378 0.0135806 0.00313937)
(-0.00759975 0.0475299 -0.00487943)
(0.0340651 0.109131 -0.00912401)
(0.0512933 0.207992 -0.00183289)
(-0.0211234 0.24479 0.0196756)
(-0.0762939 0.214813 0.0251395)
(-0.10067 0.213036 0.0410931)
(-0.0922839 0.194147 0.0755318)
(-0.146778 0.0400986 0.0557326)
(-0.279234 0.350076 -0.0335516)
(0.0315008 -0.314826 0.0299351)
(0.134519 -0.1256 0.171298)
(0.0351688 0.0888425 -0.00457839)
(0.0257557 0.000239595 0.0451811)
(-0.0364989 0.0524165 0.0145821)
(-0.0220985 0.0135496 0.0332995)
(-0.0649229 0.0243208 0.0210874)
(-0.0690692 0.0160417 0.0266648)
(-0.0902682 0.0392234 0.0319085)
(-0.102556 0.064169 0.0231462)
(-0.0760288 0.0918604 0.0232529)
(-0.000661378 0.0794063 0.00744083)
(0.0451621 0.0977595 0.00570749)
(0.0670137 0.106604 0.00811192)
(0.0744298 0.12338 0.00255304)
(0.0806175 0.131895 0.00579638)
(0.0823899 0.134367 0.00651275)
(0.0737244 0.129076 0.0109205)
(0.0601459 0.119597 0.017157)
(0.0368893 0.0995072 0.0234091)
(0.0185921 0.0802693 0.042353)
(-0.00233927 0.0608439 0.0673773)
(-0.026414 0.0261405 0.0726823)
(-0.0251522 -0.00595034 0.0590292)
(-0.0275715 -0.0308669 0.0430002)
(-0.0341069 -0.0481334 0.0132977)
(-0.0384672 -0.0406198 -0.0133032)
(-0.0428598 0.0011884 -0.0142133)
(-0.0458747 0.0270358 0.0127226)
(-0.0518373 0.0325731 0.0241937)
(-0.0476021 0.0253276 0.0205897)
(-0.0354614 0.0185737 0.0145114)
(-0.0222891 0.0122909 0.00921931)
(-0.0168379 0.00934654 0.0069802)
(-0.0217223 0.0047862 0.00444028)
(-0.0300848 0.00826349 0.000259337)
(-0.0342003 0.00486201 0.00470507)
(0.0206131 0.0174363 0.00594299)
(0.0329611 0.0253703 0.0103417)
(0.0206614 0.0120216 0.00564532)
(0.0223642 0.0151493 0.00601795)
(0.0152649 0.00150358 0.00135903)
(0.0096383 0.00416449 -0.00142167)
(-8.16754e-05 -0.00434011 0.00053699)
(-0.00295642 0.000510906 0.00147633)
(-0.00377142 -0.00116907 0.00189841)
(-0.00441479 0.000297112 0.00280686)
(-0.00577546 -0.000741036 0.00287763)
(-0.00672976 0.000190341 0.00349556)
(-0.00683636 0.000598718 0.00395161)
(-0.00552577 0.00147699 0.00489072)
(-0.00448604 0.00145888 0.00553483)
(-0.00396168 0.0014115 0.00601123)
(-0.0040834 0.00107133 0.00614984)
(-0.00452461 0.000918123 0.00612452)
(-0.00490319 0.000811876 0.00599127)
(-0.00517397 0.000796694 0.00581245)
(-0.00533402 0.000776426 0.00558897)
(-0.00545224 0.000734963 0.0053592)
(-0.0055482 0.000662288 0.00514072)
(-0.00564857 0.00057346 0.00495332)
(-0.00576693 0.000505496 0.00481079)
(-0.00581982 0.00046505 0.00467866)
(-0.00582415 0.00042962 0.00456535)
(-0.00577415 0.000394082 0.00448853)
(-0.00569688 0.000342195 0.00444205)
(-0.00563643 0.000281937 0.00442295)
(-0.00560901 0.000239879 0.00442791)
(-0.00558542 0.000241701 0.00444065)
(-0.00554347 0.000296093 0.00444039)
(-0.00545155 0.000386219 0.00441626)
(-0.00531322 0.000480926 0.00437301)
(-0.00514556 0.0005545 0.00431866)
(-0.00499598 0.000589115 0.00427562)
(-0.0049142 0.00056602 0.00427381)
(-0.00484208 0.000463372 0.00436576)
(-0.00462121 8.20901e-05 0.00462437)
(-0.00407217 -0.000760943 0.00528076)
(-0.00255336 -0.00246573 0.00664771)
(0.000838867 -0.00577585 0.00907705)
(0.00577905 -0.0111966 0.0127695)
(0.00912933 -0.0186801 0.0154419)
(0.00834532 -0.0240793 0.0144144)
(0.000429299 -0.0303981 0.00822623)
(-0.00892302 -0.0260161 -0.000506299)
(-0.0136316 -0.0164001 0.00135226)
(-0.0273036 0.00145637 0.00258077)
(-0.0292642 0.0204421 -0.00346975)
(-0.0259934 0.0177385 0.00325738)
(-0.0225143 0.0973579 0.00846766)
(-0.0190162 0.204201 0.0176043)
(-0.0625055 0.236319 0.0354961)
(-0.0782631 0.254233 0.0366425)
(-0.0798291 0.265447 0.0295064)
(-0.0494839 0.22698 0.0294766)
(-0.0520135 0.445013 0.0179798)
(0.0200589 -0.354335 0.0335816)
(0.0259867 -0.0753496 0.162806)
(-0.00123479 0.0785632 0.0305052)
(-0.0150254 0.0423034 0.0472892)
(-0.0320945 0.0721534 0.0305206)
(-0.0368459 0.0681551 0.0408767)
(-0.0717784 0.0671003 0.0353112)
(-0.0886215 0.0588642 0.0356583)
(-0.112018 0.0622637 0.0326678)
(-0.116251 0.0723243 0.0297473)
(-0.0730428 0.0858264 0.0288256)
(0.00113787 0.0716264 0.0114394)
(0.0405055 0.0988296 0.00613337)
(0.0586277 0.113984 0.0190494)
(0.0626885 0.129744 0.0177082)
(0.0693768 0.14534 0.0145071)
(0.0688367 0.15948 0.0179164)
(0.0598477 0.166596 0.0182676)
(0.0438855 0.165144 0.0317447)
(0.02208 0.148453 0.0382458)
(-0.00610037 0.125843 0.0506113)
(-0.0184645 0.095797 0.0638195)
(-0.0334479 0.0593338 0.0634502)
(-0.0343367 0.0307877 0.0508384)
(-0.0391849 0.0176759 0.0313695)
(-0.0476972 0.0227036 0.0143105)
(-0.0524051 0.0529885 0.00859718)
(-0.0528866 0.0712395 0.0144488)
(-0.0507501 0.0756417 0.0144884)
(-0.0444993 0.0598287 0.00451443)
(-0.0386872 0.0413916 5.52281e-05)
(-0.0341399 0.0261137 -0.00845919)
(-0.0286518 0.0160993 -0.0110761)
(-0.0286492 0.0116011 -0.00996748)
(-0.0336269 0.0124982 -0.00640776)
(-0.036504 0.0139313 -0.00423619)
(-0.0355841 0.00626968 0.000414913)
(0.0164621 0.0105546 0.00643169)
(0.0319023 0.0276113 0.0118882)
(0.0185006 0.011551 0.00612852)
(0.0219983 0.0182062 0.00553174)
(0.0158569 0.00181454 0.00230275)
(0.0109006 0.00356439 -0.000120854)
(-0.000474105 -0.00527224 0.00106281)
(-0.00590067 4.54565e-05 0.000986756)
(-0.00508115 -0.00223506 0.00235563)
(-0.00558603 0.000286263 0.00314379)
(-0.00624077 -0.000721897 0.00323855)
(-0.00692141 9.17979e-05 0.00414068)
(-0.00677694 -0.000437825 0.00473729)
(-0.00530689 -0.000150704 0.00602508)
(-0.00434916 -0.000379089 0.00697219)
(-0.00389443 -4.69377e-05 0.00780303)
(-0.00398548 0.000161587 0.00818675)
(-0.00433053 0.000481069 0.00826507)
(-0.00462535 0.000706966 0.00814852)
(-0.00484388 0.00096737 0.00793863)
(-0.00499519 0.0011748 0.00765429)
(-0.00510615 0.00129718 0.00735547)
(-0.00519092 0.0013503 0.00708015)
(-0.00526273 0.00136261 0.00683691)
(-0.0053329 0.00134083 0.00662792)
(-0.00535441 0.00130667 0.00645227)
(-0.00532322 0.00127098 0.00631487)
(-0.00523877 0.00122374 0.00621135)
(-0.00512653 0.00115978 0.00613836)
(-0.00503384 0.0011008 0.00609457)
(-0.00498861 0.00107995 0.00606686)
(-0.00496391 0.00112195 0.00602968)
(-0.00493177 0.00122119 0.0059647)
(-0.00482548 0.00134259 0.00587189)
(-0.0046576 0.00144906 0.0057632)
(-0.00445585 0.00150435 0.00565456)
(-0.00425544 0.00147762 0.00557082)
(-0.00409092 0.00133828 0.00553244)
(-0.00388359 0.00104313 0.00557175)
(-0.00343282 0.000404117 0.00577198)
(-0.00249645 -0.000685184 0.00638247)
(-0.000479519 -0.00244539 0.0078415)
(0.00317485 -0.00505086 0.0104938)
(0.00834761 -0.00839745 0.0132733)
(0.0118259 -0.0115142 0.01425)
(0.00988945 -0.0129953 0.0117794)
(0.000966911 -0.0135357 0.00712584)
(-0.011562 -0.0135712 0.00202846)
(-0.0222052 -0.0119454 0.000978229)
(-0.0382044 -0.00647034 0.00708995)
(-0.0295115 -0.00150833 0.0143369)
(-0.0391807 0.0166259 0.026573)
(-0.0902797 0.048146 0.0253806)
(-0.103149 0.137528 0.0262992)
(-0.103392 0.178332 0.0416492)
(-0.095233 0.171121 0.0784713)
(-0.101892 0.201988 0.0997924)
(-0.00483504 -0.101756 0.0650554)
(0.201644 0.429091 -0.0499758)
(0.00627761 -0.340188 0.0250519)
(-0.0655349 -0.0887424 0.162085)
(-0.034635 0.0848165 -0.0025813)
(-0.0427463 0.0117085 0.0309406)
(-0.0419561 0.063507 0.00208592)
(-0.0480246 0.0556436 0.0251408)
(-0.0598658 0.0645471 0.0380268)
(-0.0775644 0.052978 0.053219)
(-0.107752 0.0589824 0.0453552)
(-0.114437 0.0627279 0.0354344)
(-0.0543472 0.0564432 0.0300892)
(-0.00587796 0.0494179 -0.01165)
(0.0148608 0.0829408 -0.0226565)
(0.0474286 0.119301 0.014368)
(0.0593976 0.129325 0.0223216)
(0.060588 0.146107 0.0196991)
(0.061747 0.160723 0.0278552)
(0.0574397 0.172529 0.030803)
(0.0495412 0.173433 0.0451213)
(0.0389007 0.159136 0.0559985)
(0.0224184 0.139275 0.061454)
(0.00722331 0.10949 0.0590994)
(-0.0130359 0.0673819 0.0480901)
(-0.0173563 0.0505801 0.0353976)
(-0.030226 0.0484693 0.0233411)
(-0.0549435 0.0579726 0.00772906)
(-0.0638456 0.0739208 -0.00081042)
(-0.0587779 0.0833832 -0.00318425)
(-0.0330788 0.0812206 0.00461388)
(0.00319438 0.0661089 0.0150607)
(0.0210151 0.0428272 0.0333965)
(0.0290895 0.0134251 0.0284568)
(0.0200421 -0.00131408 0.0287606)
(0.00294713 -0.0129991 0.0119807)
(-0.0217202 -0.0138223 0.00328377)
(-0.0320463 -0.0108093 -0.011619)
(-0.0261861 -0.00926214 -0.0557635)
(0.00780514 0.000648035 0.00307229)
(0.029397 0.0289097 0.0109838)
(0.0157791 0.0101362 0.0043345)
(0.0211263 0.0216146 0.00221541)
(0.0173412 0.00421818 0.000349891)
(0.0122084 0.00402685 -0.000802816)
(-0.00183178 -0.00578987 -0.0037944)
(-0.00610308 0.000369692 -0.00343916)
(-0.00826684 -0.00270073 -0.00128831)
(-0.0083033 0.000594871 -9.02152e-05)
(-0.00875949 -0.000763377 0.00020435)
(-0.00919252 -0.000166171 0.00125065)
(-0.00911477 -0.00130435 0.00191718)
(-0.00829043 -0.00119952 0.00289926)
(-0.0078944 -0.00134895 0.00364946)
(-0.00793207 -0.000791921 0.0044333)
(-0.00827258 -0.000310921 0.00504535)
(-0.00871508 0.000233585 0.00542065)
(-0.00910911 0.000641431 0.00555719)
(-0.00940517 0.00103457 0.00552554)
(-0.0094262 0.00133266 0.00537028)
(-0.00934239 0.00153391 0.00518743)
(-0.00925021 0.00165971 0.00501449)
(-0.00915826 0.00172875 0.00485898)
(-0.00906559 0.00174871 0.00471941)
(-0.00894143 0.0017386 0.00459501)
(-0.00878577 0.00171897 0.00448646)
(-0.00859303 0.00169785 0.00439293)
(-0.00839887 0.00167876 0.00431152)
(-0.00828986 0.00166985 0.00424592)
(-0.00826295 0.00169298 0.00418989)
(-0.00823933 0.00176771 0.00412625)
(-0.00817861 0.00187581 0.00403841)
(-0.00802143 0.00199126 0.00391686)
(-0.00777922 0.00209444 0.00377374)
(-0.00745989 0.00216234 0.00363064)
(-0.00712806 0.00215893 0.00352782)
(-0.00683033 0.00205655 0.00348452)
(-0.00644669 0.00179718 0.00351104)
(-0.00579277 0.00123445 0.00363357)
(-0.0048168 0.000303335 0.00399937)
(-0.00314215 -0.00110928 0.00481434)
(-0.000237427 -0.00287998 0.00626998)
(0.00405296 -0.00507877 0.00759091)
(0.00643827 -0.00571645 0.00664293)
(0.00285014 -0.00426814 0.00220538)
(-0.00622752 -0.000479612 -0.00132964)
(-0.015131 0.00340076 -0.00288562)
(-0.0230532 -0.000973381 -0.00139606)
(-0.0415046 -0.00854453 0.00583551)
(-0.0506636 -0.0148829 0.0130264)
(-0.0674729 0.0133672 0.0291926)
(-0.113579 0.029797 0.0238339)
(-0.118678 0.0773363 0.00593291)
(-0.0864215 0.127493 0.0230895)
(-0.0108839 0.101478 0.0594089)
(0.029751 0.199116 0.10034)
(0.0231675 -0.267983 0.0874344)
(0.185423 0.252861 -0.0491124)
(-0.000385922 -0.244363 0.0269699)
(-0.13383 -0.177948 0.159092)
(-0.0559717 0.0728191 0.0124703)
(-0.061235 -0.0443312 0.00829464)
(-0.0494462 0.064278 -0.027544)
(-0.0644598 0.0462377 0.00251501)
(-0.0607563 0.0596968 0.014919)
(-0.0745113 0.0345169 0.0372032)
(-0.0884674 0.0243073 0.0443122)
(-0.0869157 0.0160691 0.0511079)
(-0.0389786 -0.0114091 0.0412512)