/*--------------------------------*- C++ -*----------------------------------*\
| =========                 |                                                 |
| \\      /  F ield         | OpenFOAM: The Open Source CFD Toolbox           |
|  \\    /   O peration     | Version:  2.3.0                                 |
|   \\  /    A nd           | Web:      www.OpenFOAM.org                      |
|    \\/     M anipulation  |                                                 |
\*---------------------------------------------------------------------------*/
FoamFile
{
    version     2.0;
    format      ascii;
    class       volVectorField;
    location    "37";
    object      U.water;
}
// * * * * * * * * * * * * * * * * * * * * * * * * * * * * * * * * * * * * * //

dimensions      [0 1 -1 0 0 0 0];

internalField   nonuniform List<vector> 
6144
(
(0.0108802 0.0190782 0.00136929)
(0.0114374 -0.00603461 8.34937e-05)
(0.0040299 -0.00794728 -0.00219238)
(0.00359606 -0.00739122 -0.00236826)
(0.00225471 -0.00615787 -0.00236975)
(0.00277065 -0.00279868 -0.00229217)
(0.00259353 -0.00165785 -0.0017342)
(0.00239713 -0.000352175 -0.00107476)
(0.00174214 0.000118788 -0.000542141)
(0.00125216 0.00220939 0.00024038)
(0.00102803 0.00363977 0.000899392)
(0.00111439 0.00433281 0.0015228)
(0.00132647 0.00408082 0.00190472)
(0.00150017 0.00322912 0.00215194)
(0.00163581 0.00214921 0.00194034)
(0.00176993 0.00114719 0.0016894)
(0.00186271 0.000243064 0.00130442)
(0.00195499 -0.000407028 0.000969034)
(0.00203312 -0.000877382 0.000634248)
(0.00209547 -0.00109606 0.000347625)
(0.00213875 -0.00118777 0.000167951)
(0.00216079 -0.00116665 7.02269e-05)
(0.00216203 -0.00109497 3.75006e-05)
(0.00214371 -0.000991986 5.35792e-05)
(0.00211008 -0.000878678 0.00011227)
(0.00206602 -0.000773111 0.000205017)
(0.00201309 -0.000690148 0.00033779)
(0.00195418 -0.000633386 0.000500183)
(0.00190154 -0.000610485 0.000653678)
(0.00185066 -0.000629369 0.000790199)
(0.00180205 -0.00067463 0.000903604)
(0.00175546 -0.000727667 0.000993284)
(0.00171211 -0.000766286 0.00106823)
(0.00167151 -0.000796148 0.00113619)
(0.00163124 -0.000800545 0.00120368)
(0.00159057 -0.000808387 0.0012798)
(0.00154875 -0.000783584 0.00137579)
(0.00151015 -0.000842166 0.00149732)
(0.00146639 -0.000824851 0.00162265)
(0.00143685 -0.00105093 0.00178158)
(0.00138657 -0.00101672 0.00189255)
(0.0013922 -0.00151332 0.0021111)
(0.00133054 -0.00147143 0.00219967)
(0.00142997 -0.00252585 0.00242608)
(0.00134083 -0.00233811 0.00226062)
(0.00171243 -0.00419119 0.0020384)
(0.00155243 -0.00262207 0.0013123)
(0.00310347 -0.00574393 0.000855104)
(0.00294941 -0.0026093 0.000165489)
(0.00501995 -0.0108194 -0.000274284)
(0.00242322 -0.00353087 -0.00118577)
(0.00349567 -0.0152687 -0.00174261)
(-0.000339438 0.00222533 -0.00574236)
(0.00215106 -0.00268636 -0.0063619)
(0.0140623 0.0377562 -0.00786701)
(0.0125505 -0.0260465 -0.0107297)
(0.0444495 0.0919797 -0.00248307)
(0.00659888 -0.0992982 0.0137617)
(-0.0886757 0.108048 -0.124188)
(-0.0263317 -0.12542 -0.124854)
(0.0738755 -0.226811 -0.0061974)
(0.0468169 -0.00802876 -0.00654922)
(0.00595748 -0.103539 0.00161355)
(0.0180397 -0.0483636 0.00129713)
(0.00315686 -0.0519661 0.000584254)
(-0.0060332 -0.0368164 -0.00636665)
(-0.00842504 -0.0114089 -0.00403267)
(-0.00747483 0.0124197 0.00131227)
(-0.00819407 0.0411769 -0.00520841)
(-0.00224046 0.0525063 -0.00919004)
(0.00121474 0.0593992 -0.00907828)
(0.00501674 0.0658422 -0.00978966)
(0.00832828 0.0707773 -0.0113207)
(0.0111786 0.07256 -0.0118542)
(0.0140489 0.0708324 -0.0124946)
(0.0163937 0.0658986 -0.013037)
(0.0185467 0.0588871 -0.0141182)
(0.0196537 0.0508273 -0.0151989)
(0.0211466 0.0422252 -0.016118)
(0.0221965 0.032749 -0.0167946)
(0.0232367 0.0230093 -0.0169672)
(0.0245985 0.0131616 -0.015471)
(0.025741 0.00278326 -0.0136558)
(0.0261768 -0.00817995 -0.0124434)
(0.0259146 -0.0191169 -0.0117404)
(0.0244395 -0.0297754 -0.0108325)
(0.0229045 -0.0395976 -0.00966653)
(0.0209467 -0.04807 -0.00813459)
(0.0170007 -0.0550628 -0.00691304)
(0.013854 -0.0576994 -0.00586721)
(0.0102645 -0.0586303 -0.00438424)
(0.00546273 -0.0565127 -0.00433416)
(0.000711221 -0.0490697 -0.00362259)
(-0.00435952 -0.0371812 -0.00237093)
(-0.00379851 -0.0212062 0.00295989)
(-0.00732759 -0.0159968 0.000426928)
(0.0208288 0.0176374 0.00370173)
(0.0223967 0.00282131 0.00309011)
(0.0108453 -0.00111126 -0.000434034)
(0.0103038 -0.0015674 -0.000875925)
(0.00572811 -0.00424968 -0.000547806)
(0.00545526 -0.00218647 0.000617546)
(0.00376021 -0.00241952 0.00208049)
(0.00301941 -0.000619298 0.00248823)
(0.00157525 0.000605718 0.00235923)
(0.0010031 0.0036685 0.00259471)
(0.00119605 0.00516673 0.00317696)
(0.00183838 0.00581636 0.00389894)
(0.00247237 0.00534852 0.00432914)
(0.00292557 0.00450741 0.00453032)
(0.0031493 0.00329466 0.0044662)
(0.00334891 0.00218279 0.00435841)
(0.0034228 0.00114145 0.00420475)
(0.003519 0.000363485 0.00408376)
(0.00357543 -0.000264435 0.00397715)
(0.00363808 -0.000625424 0.00385011)
(0.00369052 -0.000835376 0.00373575)
(0.00369811 -0.000912392 0.00368581)
(0.00366781 -0.000914653 0.00369235)
(0.00360301 -0.000866513 0.00374636)
(0.00351187 -0.00079371 0.00383785)
(0.00340294 -0.000717791 0.00395727)
(0.00328043 -0.000654273 0.00409671)
(0.00315192 -0.00060636 0.00424219)
(0.00304835 -0.00058834 0.00433777)
(0.00295813 -0.000611871 0.00442046)
(0.00286862 -0.000647836 0.00449363)
(0.00277659 -0.000685027 0.00456265)
(0.00268828 -0.000710953 0.00462985)
(0.00260291 -0.000743361 0.00469571)
(0.00251966 -0.000757582 0.00476028)
(0.00243669 -0.000796168 0.00482895)
(0.00236369 -0.000793765 0.00490208)
(0.0023025 -0.000893874 0.00498563)
(0.00224856 -0.0008764 0.00507037)
(0.0022131 -0.00115076 0.00517993)
(0.00215513 -0.00109027 0.00526497)
(0.00221043 -0.00170034 0.0054085)
(0.00217644 -0.00158648 0.00545276)
(0.00244991 -0.0028356 0.00559367)
(0.00228531 -0.00230656 0.00546091)
(0.00288886 -0.004447 0.00534474)
(0.00258428 -0.00157737 0.00460773)
(0.00479176 -0.005381 0.00365921)
(0.00554532 0.00212029 0.00304396)
(0.00884856 -0.00877001 0.00301251)
(0.00466171 0.00375474 0.0019173)
(0.00845771 -0.0201464 0.000347878)
(-0.000856158 0.0064956 -0.00461585)
(-0.00544231 -0.0143966 -0.00371058)
(0.0270247 0.0183296 0.0135548)
(0.0190361 -0.0487118 0.00940117)
(0.00518135 0.0162381 -0.00924292)
(-0.0229889 -0.00990934 -0.0380303)
(0.0196685 0.138335 -0.0845185)
(0.101142 -0.127658 -0.0825414)
(0.0950455 -0.225476 0.0129321)
(0.016806 0.132707 -0.0058872)
(-0.0548248 -0.137783 0.00341831)
(-0.0367677 -0.0358295 0.0059401)
(-0.0377401 -0.0570759 0.00276951)
(-0.0287351 -0.0318861 -0.00836504)
(-0.02585 0.00375907 -0.0104736)
(-0.0266926 0.0483082 -0.00548265)
(-0.0149186 0.0674604 -0.00885864)
(-0.00573346 0.0749816 -0.00724285)
(0.00315505 0.0808861 -0.00668925)
(0.0107652 0.0858053 -0.00583818)
(0.0176742 0.0899638 -0.00601171)
(0.0233645 0.0919272 -0.00543722)
(0.0291339 0.0908975 -0.00493771)
(0.0338201 0.0871015 -0.00455987)
(0.0383878 0.081325 -0.00476568)
(0.0412966 0.0747119 -0.00536745)
(0.0444686 0.0672119 -0.00559112)
(0.0470017 0.0588155 -0.00569101)
(0.0488897 0.0494944 -0.00570395)
(0.0503219 0.0393901 -0.00571025)
(0.0511078 0.0287805 -0.00534007)
(0.0511263 0.0174172 -0.00451592)
(0.0499346 0.00565809 -0.00317748)
(0.046994 -0.00651724 -0.00186283)
(0.0424727 -0.0183108 -0.000249597)
(0.0364571 -0.0300034 0.00136449)
(0.0294742 -0.0399159 0.00301013)
(0.022624 -0.0468017 0.00238786)
(0.0158706 -0.0510793 0.00292111)
(0.00830654 -0.0516515 0.00108111)
(-0.000657011 -0.046023 0.000762802)
(-0.00982304 -0.0351562 -0.00124929)
(-0.0173033 -0.0208623 0.00165937)
(-0.0233791 -0.0122836 0.0014152)
(0.0239941 0.0171962 0.00451514)
(0.0259161 0.0086154 0.0046241)
(0.015005 0.00374316 0.00233217)
(0.0134867 0.00414248 0.00271247)
(0.00724005 -0.000397087 0.00351728)
(0.00494286 0.000773676 0.00341739)
(0.00176313 -0.00116638 0.0042453)
(0.000531867 0.00014608 0.00405172)
(-0.00135372 0.000588735 0.00377413)
(-0.0015036 0.00342324 0.00383517)
(-0.0006701 0.00456631 0.00416988)
(0.000511651 0.00524141 0.00474436)
(0.00130928 0.00499006 0.00509616)
(0.00190314 0.00463881 0.00527102)
(0.00227998 0.00381152 0.00520013)
(0.00254647 0.00299013 0.00508125)
(0.00263729 0.00212615 0.00495376)
(0.0027592 0.00144491 0.00487233)
(0.00279416 0.000812284 0.00482362)
(0.00277318 0.000332529 0.00481405)
(0.00272109 -2.67729e-05 0.00483269)
(0.00264525 -0.000258592 0.00487043)
(0.00255155 -0.000404086 0.00491906)
(0.00244112 -0.000478228 0.00498005)
(0.00231839 -0.000508201 0.00504765)
(0.00218842 -0.000513003 0.00511802)
(0.00205467 -0.000508996 0.0051909)
(0.00192074 -0.000509775 0.0052638)
(0.00178426 -0.000518318 0.00533746)
(0.00165004 -0.000525072 0.0054076)
(0.00150732 -0.000516614 0.00547348)
(0.00136424 -0.000501907 0.00553987)
(0.00123516 -0.000486925 0.00560883)
(0.0011131 -0.000495397 0.00567756)
(0.000996328 -0.00050213 0.0057457)
(0.000883842 -0.000551289 0.00581357)
(0.000788503 -0.000555961 0.0058823)
(0.00069497 -0.000651256 0.00594575)
(0.000631587 -0.000601247 0.00601069)
(0.000583342 -0.000839483 0.00608189)
(0.00055162 -0.000708371 0.00614101)
(0.00065593 -0.00126708 0.006216)
(0.000679453 -0.000859233 0.00624198)
(0.00108269 -0.00194353 0.0062329)
(0.00105016 -0.000416138 0.00616613)
(0.00144025 -0.00260571 0.00579125)
(0.00129885 0.00186075 0.00542021)
(0.00261685 -0.00235492 0.00452972)
(0.00425325 0.00644783 0.00396441)
(0.0067294 -0.00228963 0.0052452)
(0.00834716 0.0118768 0.0057866)
(0.00967943 -0.0167525 0.00362102)
(-0.00172583 0.0178186 -0.00306858)
(0.00148423 -0.0125969 0.00298559)
(0.0324933 0.0012841 0.0231937)
(0.0424242 -0.0632176 0.0180997)
(0.00771179 -0.0152794 0.016258)
(-0.041293 -0.101075 -0.00538556)
(-0.0146457 0.107934 -0.126846)
(0.0959172 -0.12009 -0.0479957)
(0.105802 -0.222993 0.0321197)
(0.0552275 0.116667 -0.00935633)
(0.0404758 -0.127224 -0.00503569)
(-0.0218253 -0.0183584 -0.00387994)
(-0.0494352 -0.0421237 -0.0151726)
(-0.0513439 0.0112601 -0.0204616)
(-0.0483461 0.04921 -0.0190251)
(-0.030505 0.0725774 -0.0120844)
(-0.0152684 0.0783872 -0.00938317)
(-0.00512646 0.0849828 -0.00557356)
(0.00538448 0.087614 -0.00353373)
(0.013487 0.0928787 -0.00216873)
(0.0214104 0.0963822 -0.000656222)
(0.0276228 0.0991813 0.00109773)
(0.0342712 0.0987102 0.00296972)
(0.0398878 0.0960902 0.00401282)
(0.0459575 0.0917699 0.00421476)
(0.0508264 0.0871584 0.00384718)
(0.0553193 0.0812105 0.00398482)
(0.0594607 0.0740985 0.00437093)
(0.0627067 0.0651972 0.00503335)
(0.0650732 0.0550658 0.00581641)
(0.066333 0.043697 0.00674685)
(0.0663809 0.0309702 0.00793021)
(0.0646415 0.0171766 0.0095202)
(0.0605366 0.00240409 0.0108493)
(0.0539492 -0.0128866 0.0122521)
(0.0444465 -0.0276176 0.0128937)
(0.0336604 -0.0402361 0.0150565)
(0.0237836 -0.0517987 0.0164623)
(0.0141061 -0.0593312 0.0174072)
(0.00176586 -0.063682 0.0155792)
(-0.0104315 -0.059162 0.010779)
(-0.0203073 -0.0462302 0.00447871)
(-0.0267668 -0.0262336 0.00301781)
(-0.0351119 -0.0142456 0.000276528)
(0.0253383 0.0175869 0.00431044)
(0.0275691 0.0122998 0.00435584)
(0.0168089 0.0069112 0.00113838)
(0.0153148 0.00841625 0.00171388)
(0.007965 0.00337442 0.00351637)
(0.00547351 0.00373471 0.0038281)
(0.00132318 -0.000245391 0.00484745)
(-0.000709299 0.000317349 0.00447578)
(-0.00334508 -0.000459172 0.00430944)
(-0.003525 0.00201678 0.0042069)
(-0.00235181 0.00282226 0.00449117)
(-0.000982736 0.00385243 0.00511571)
(-0.000128797 0.00418158 0.00545887)
(0.000542059 0.00436135 0.00564284)
(0.000979787 0.00392367 0.0055511)
(0.00127558 0.00334776 0.00542757)
(0.00133323 0.00259343 0.00531515)
(0.00142181 0.00198823 0.00525681)
(0.00144023 0.00139761 0.00521591)
(0.00139827 0.000908061 0.0051927)
(0.00130793 0.000483434 0.00518414)
(0.00118717 0.000157444 0.00519743)
(0.00104545 -9.25642e-05 0.00522445)
(0.000890326 -0.000265244 0.00526592)
(0.000733273 -0.00037679 0.00531931)
(0.000581849 -0.000439488 0.00537873)
(0.000437413 -0.000468056 0.00544004)
(0.000302692 -0.000473096 0.00549759)
(0.000176391 -0.000465832 0.00554764)
(4.52031e-05 -0.000450692 0.00559012)
(-9.00883e-05 -0.000423981 0.00563293)
(-0.000215682 -0.000399569 0.00568268)
(-0.000320845 -0.000374299 0.00573852)
(-0.000422229 -0.000367411 0.00579433)
(-0.000514677 -0.000346815 0.00584813)
(-0.000604774 -0.000364015 0.00589042)
(-0.000667869 -0.000340584 0.00592606)
(-0.000738972 -0.00042747 0.00594447)
(-0.000746769 -0.000366467 0.00597739)
(-0.000777285 -0.00060529 0.00599573)
(-0.000727483 -0.000390605 0.00603336)
(-0.000695293 -0.000852431 0.00601152)
(-0.000545091 -3.92165e-05 0.00599056)
(-0.000498915 -0.000681975 0.00576332)
(-0.000162837 0.00163232 0.00555508)
(-0.00035472 0.000317153 0.00496975)
(0.000435542 0.00475191 0.00424636)
(0.00116402 0.000271017 0.00357573)
(0.00241236 0.00767171 0.0024935)
(0.004692 0.000421501 0.00445745)
(0.00876676 0.0129391 0.0065793)
(0.00658099 -0.0059256 0.00661207)
(-0.00117186 0.022329 0.00459153)
(0.0118365 -0.027805 0.0169792)
(0.0433976 0.00136057 0.0318447)
(0.0423484 -0.0476853 0.0259589)
(-0.0152227 0.0233076 0.0414308)
(-0.0724755 -0.112845 0.0275583)
(0.0172806 0.153777 -0.146152)
(0.11187 -0.158723 -0.0167141)
(0.122718 -0.220721 0.0497147)
(0.0555716 0.0691578 -0.0123806)
(0.0171651 -0.0359415 -0.0193906)
(-0.0600291 0.0664451 -0.0165805)
(-0.0568863 0.0276224 -0.023103)
(-0.0581738 0.0696336 -0.0236808)
(-0.0355326 0.0765132 -0.0163583)
(-0.0238166 0.0858444 -0.0103008)
(-0.0106499 0.089199 -0.00617754)
(-0.00323623 0.0943385 -0.00254108)
(0.00630678 0.0974462 -0.000266014)
(0.0125099 0.102365 0.00111406)
(0.0198208 0.10624 0.00319749)
(0.0250257 0.108607 0.00546408)
(0.0307577 0.108352 0.00752172)
(0.0363052 0.106782 0.00873084)
(0.0428751 0.1045 0.00863302)
(0.0491701 0.102205 0.00801466)
(0.0551704 0.0985971 0.00779065)
(0.0608043 0.092853 0.00789657)
(0.0651032 0.0845819 0.00842523)
(0.06777 0.0747634 0.00916354)
(0.0690734 0.0626307 0.0102752)
(0.068837 0.0486984 0.011767)
(0.0669887 0.0329344 0.013409)
(0.0627092 0.015518 0.0145174)
(0.0549614 -0.00350433 0.0153166)
(0.0433068 -0.0229659 0.0170196)
(0.0305472 -0.0410911 0.0194294)
(0.017528 -0.0566698 0.0222155)
(0.00157599 -0.0673968 0.0248606)
(-0.0162422 -0.0743842 0.0263682)
(-0.0343244 -0.0723774 0.0230955)
(-0.047486 -0.0590322 0.0135078)
(-0.0536911 -0.0377569 0.00988397)
(-0.0563482 -0.0167176 0.00140318)
(0.0260667 0.0191454 0.00370578)
(0.0288448 0.01583 0.00329839)
(0.0185541 0.00996772 -0.000543257)
(0.0184176 0.0117083 -0.000810901)
(0.0100354 0.0051861 0.000358266)
(0.00749563 0.00506208 0.00160717)
(0.00157459 -0.000424612 0.0035494)
(-0.00122158 0.000428085 0.00365895)
(-0.00481387 -0.00177167 0.00419011)
(-0.00556009 0.000625064 0.00421176)
(-0.00454246 0.00132971 0.00443382)
(-0.00346659 0.0027151 0.00507417)
(-0.00262735 0.00344622 0.00539489)
(-0.00175738 0.00397668 0.00563919)
(-0.00110851 0.00382266 0.00553461)
(-0.000767811 0.0033716 0.0054135)
(-0.000812276 0.00269963 0.0053057)
(-0.000869303 0.0021597 0.00526816)
(-0.000975563 0.00163301 0.00522427)
(-0.00109285 0.00117341 0.00517878)
(-0.00123836 0.000733097 0.00513524)
(-0.00138386 0.000365887 0.00510699)
(-0.00153053 5.98682e-05 0.00509526)
(-0.00168469 -0.000172804 0.00509943)
(-0.00184371 -0.000339821 0.00511289)
(-0.00199025 -0.000445635 0.00513352)
(-0.00212163 -0.000502202 0.00515824)
(-0.00223224 -0.00052233 0.00518005)
(-0.00232763 -0.00051864 0.00518862)
(-0.00242404 -0.000496844 0.00518416)
(-0.00252725 -0.000460323 0.00518086)
(-0.00262509 -0.000425409 0.00518265)
(-0.00270614 -0.000388014 0.00518897)
(-0.00278451 -0.000363394 0.00519479)
(-0.00285114 -0.000317728 0.00519708)
(-0.00291631 -0.000306838 0.00518532)
(-0.00294274 -0.000246323 0.00517185)
(-0.00299218 -0.00030341 0.00513481)
(-0.00294553 -0.00018637 0.00512111)
(-0.00300089 -0.000345451 0.00504885)
(-0.00288229 1.81382e-05 0.00500567)
(-0.00300933 -0.000170596 0.00484721)
(-0.00285773 0.000925533 0.00463907)
(-0.00306159 0.000914199 0.00426339)
(-0.0028337 0.00319226 0.00376576)
(-0.00262641 0.00241284 0.00342134)
(-0.00156438 0.00576065 0.00283152)
(-0.000407547 0.00105893 0.00245787)
(-0.00116371 0.00746107 0.000561918)
(0.000328538 0.00195487 0.00240815)
(0.00205501 0.0145615 0.00456561)
(0.00640126 0.0022046 0.00734995)
(0.00855738 0.0228893 0.0123245)
(0.00432349 -0.0275699 0.0234328)
(0.00639613 0.0224529 0.0455406)
(0.0126263 0.0208327 0.0414448)
(0.00751863 0.0930801 0.070103)
(-0.0693716 -0.109153 0.0588725)
(0.030298 0.0909101 -0.16005)
(0.0862558 -0.170705 0.0134295)
(0.115319 -0.186749 0.0633544)
(0.0231625 0.141973 -0.036146)
(0.0176484 0.032858 -0.0165445)
(-0.0331334 0.105661 -0.0185357)
(-0.036794 0.0832038 -0.0179021)
(-0.0399371 0.0941983 -0.0153612)
(-0.0246185 0.0969504 -0.00842923)
(-0.0183583 0.100684 -0.0050769)
(-0.00805615 0.103692 -0.00122194)
(-0.00213742 0.106017 0.00169259)
(0.00512298 0.10804 0.00291804)
(0.0103812 0.110864 0.00352719)
(0.0162771 0.113005 0.00530085)
(0.0205389 0.113955 0.00800431)
(0.0250964 0.113052 0.00988413)
(0.0304439 0.111883 0.0112571)
(0.0374483 0.109961 0.0107329)
(0.0445397 0.108784 0.00974055)
(0.0519688 0.107761 0.00887629)
(0.0594918 0.105705 0.00839)
(0.0658896 0.101408 0.00835772)
(0.0704726 0.095069 0.00888804)
(0.0728 0.0844522 0.0101092)
(0.0730305 0.0710425 0.0118442)
(0.0716989 0.0542711 0.0135891)
(0.0678328 0.0350821 0.0137968)
(0.0598686 0.0131135 0.0119725)
(0.0469871 -0.0107428 0.0109167)
(0.0307842 -0.0345123 0.0128885)
(0.0117249 -0.0565543 0.0147552)
(-0.00850036 -0.0731558 0.0189363)
(-0.0337664 -0.081846 0.0220139)
(-0.0563457 -0.0783911 0.0263604)
(-0.0695429 -0.0641532 0.0221264)
(-0.0769889 -0.0437549 0.0134761)
(-0.0834008 -0.0209702 0.0050816)
(0.0259361 0.0210019 0.00539797)
(0.0301175 0.0197736 0.0031816)
(0.0205325 0.0140055 -0.00065062)
(0.0224279 0.0158465 -0.00191037)
(0.0145606 0.00772716 -0.00358816)
(0.0115613 0.00696309 -0.0017423)
(0.002964 -0.000441952 7.45762e-05)
(-0.00118559 0.000854828 0.00119385)
(-0.00565618 -0.00294672 0.00252977)
(-0.00758216 -0.00108827 0.00322494)
(-0.00630452 -0.000509786 0.00356227)
(-0.00497779 0.00128642 0.00444053)
(-0.00377458 0.00249276 0.00491939)
(-0.00260483 0.00334071 0.0054591)
(-0.00170207 0.00332292 0.00556167)
(-0.00124931 0.00294908 0.00560395)
(-0.00138316 0.00229948 0.00549869)
(-0.00156741 0.00185698 0.00545822)
(-0.00177112 0.00147931 0.00538492)
(-0.00195608 0.0011824 0.00529101)
(-0.00215258 0.000875358 0.00516982)
(-0.0023484 0.000592044 0.00505277)
(-0.0025464 0.000332181 0.00494576)
(-0.00272902 0.000113699 0.00485236)
(-0.00289055 -4.89757e-05 0.00476956)
(-0.00301994 -0.000150433 0.00469313)
(-0.00312302 -0.00020468 0.00462223)
(-0.00319731 -0.000222602 0.0045501)
(-0.00326321 -0.000221919 0.00447277)
(-0.00333796 -0.000215694 0.00439971)
(-0.00341168 -0.00019914 0.00434329)
(-0.00347367 -0.000176658 0.00430066)
(-0.00351596 -0.000139883 0.0042672)
(-0.00355717 -9.94689e-05 0.00423741)
(-0.00358498 -2.89991e-05 0.00420783)
(-0.00360582 1.57298e-05 0.00416625)
(-0.00357732 0.000113332 0.00412668)
(-0.00357581 0.000101967 0.00405935)
(-0.00347941 0.000269104 0.00401122)
(-0.003508 0.000209655 0.00389699)
(-0.00338862 0.000657633 0.00381046)
(-0.00356564 0.000681103 0.00358393)
(-0.00356553 0.00179643 0.0032983)
(-0.00367474 0.00180457 0.00291675)
(-0.00345262 0.00355992 0.00253256)
(-0.00264455 0.00191821 0.00264592)
(-0.00141839 0.00479819 0.00306252)
(-8.54089e-05 -0.00033879 0.00343582)
(-0.00272216 0.00668486 0.00190127)
(-0.00187933 -0.000610791 0.0034446)
(-0.00289887 0.0112764 0.00494412)
(0.00581222 -0.00760088 0.00575667)
(0.0140718 0.0199074 0.00997878)
(-0.000505163 -0.024386 0.0124586)
(-0.030013 0.00715266 0.0408648)
(-0.0273785 -0.0378612 0.0448712)
(0.0227435 0.0280741 0.0748129)
(-0.013344 -0.0976963 0.0816084)
(0.0357095 0.0424229 -0.151508)
(0.0598024 -0.189456 0.0232828)
(0.0829826 -0.144052 0.0624873)
(0.00326208 0.145983 -0.0300456)
(0.00768523 0.0642281 -0.0108499)
(-0.0208805 0.125459 -0.0100161)
(-0.0242129 0.116583 -0.00700908)
(-0.0259339 0.11957 -0.00468709)
(-0.0184917 0.119985 -0.000540734)
(-0.0143222 0.119935 0.000521229)
(-0.00674384 0.119498 0.00266133)
(-0.00127347 0.117167 0.00373802)
(0.00474041 0.114444 0.00397876)
(0.00898308 0.114622 0.00278191)
(0.0125532 0.113783 0.0047781)
(0.0154694 0.112076 0.00775938)
(0.0181104 0.10905 0.00914498)
(0.0235842 0.106494 0.0102828)
(0.03127 0.104135 0.00973443)
(0.0376839 0.102966 0.00842776)
(0.0467072 0.103387 0.0074978)
(0.0571058 0.10407 0.00638059)
(0.0653887 0.103017 0.00640557)
(0.0714043 0.10202 0.006052)
(0.075607 0.100038 0.00586819)
(0.0785951 0.0939903 0.00726064)
(0.0784536 0.0791652 0.0102752)
(0.0758641 0.0602573 0.0108843)
(0.069637 0.0379681 0.00748157)
(0.0576264 0.0113586 0.00305399)
(0.0386577 -0.0163506 -0.00129426)
(0.0185798 -0.0436733 -0.00612862)
(-0.0160879 -0.069411 -0.00635164)
(-0.0533406 -0.0817028 -0.00898227)
(-0.0874026 -0.0774147 0.00289421)
(-0.104062 -0.0629071 0.014855)
(-0.108754 -0.0390777 0.0186385)
(-0.111936 -0.0206185 0.0045147)
(0.0242796 0.0219476 0.00587939)
(0.0305536 0.0243962 0.00551675)
(0.0210862 0.0175499 0.00216676)
(0.0245839 0.0193631 0.00130057)
(0.0192803 0.00934116 -0.00341397)
(0.0168139 0.00847236 -0.00201239)
(0.00581007 -0.00108786 -0.00292774)
(0.000490508 0.00109386 -0.000930813)
(-0.00460125 -0.00283035 0.000829104)
(-0.00815731 -0.00172648 0.00182209)
(-0.00809424 -0.00202792 0.00230976)
(-0.00769204 0.00019007 0.00349554)
(-0.00671906 0.00141844 0.00428737)
(-0.00504804 0.00230386 0.00536399)
(-0.00384814 0.0023873 0.00594033)
(-0.00334083 0.0022021 0.00634017)
(-0.00368958 0.00168762 0.00632369)
(-0.00422728 0.00137207 0.00621911)
(-0.00468306 0.00115458 0.00604068)
(-0.00498064 0.00105473 0.00583356)
(-0.00518859 0.000957723 0.00559702)
(-0.00534705 0.000871608 0.00537266)
(-0.00547318 0.000775757 0.0051681)
(-0.00559379 0.000687157 0.00500187)
(-0.00572187 0.000627081 0.00487807)
(-0.00580693 0.00059007 0.00475209)
(-0.00585442 0.000568817 0.00463483)
(-0.00585468 0.000567313 0.00453802)
(-0.00582113 0.000565235 0.00446625)
(-0.00579683 0.000553195 0.00441351)
(-0.00579726 0.000547188 0.00437945)
(-0.00580173 0.000552855 0.00435788)
(-0.00580044 0.000577492 0.00434594)
(-0.00580149 0.000620837 0.00433916)
(-0.00578347 0.000701212 0.00433903)
(-0.00573945 0.000775102 0.00432967)
(-0.00566177 0.000885701 0.00430865)
(-0.00557838 0.000942023 0.00426291)
(-0.00545537 0.00113041 0.00421922)
(-0.00542853 0.00116354 0.00414543)
(-0.00540513 0.00159501 0.0040717)
(-0.00555395 0.00163678 0.00392177)
(-0.00562851 0.00251547 0.00371327)
(-0.00545005 0.00200839 0.00350384)
(-0.00507813 0.00333196 0.00326591)
(-0.00407274 0.000526352 0.00321972)
(-0.00278746 0.00398505 0.00409682)
(-0.0020124 -0.00231152 0.00463567)
(-0.0049369 0.00627887 0.00398069)
(-0.00454058 -0.00397981 0.00555404)
(-0.00620661 0.0101518 0.00736162)
(-0.000501491 -0.0156078 0.00648566)
(0.00974858 0.0132143 0.00822029)
(0.0139259 -0.0124428 0.0098803)
(-0.0200529 0.00370269 0.0366729)
(-0.0138753 -0.0542816 0.03201)
(-0.000219363 -0.0318216 0.0504902)
(-0.00897406 -0.116588 0.0874096)
(0.0127841 -0.0224821 -0.12528)
(0.0284742 -0.210602 0.0328521)
(0.0383848 -0.0992971 0.0560083)
(-0.0181029 0.146512 -0.0223157)
(-0.0102211 0.0906973 -0.00460047)
(-0.0219938 0.137332 -0.00136295)
(-0.0226487 0.133158 0.00205323)
(-0.0195037 0.131822 0.00347233)
(-0.014432 0.125905 0.00469921)
(-0.00814461 0.120729 0.00449411)
(-0.00318799 0.113427 0.00533213)
(0.00240079 0.105601 0.00435093)
(0.0064564 0.0984813 0.00362998)
(0.00862704 0.0932029 0.00276897)
(0.00878924 0.0880931 0.00265311)
(0.0091512 0.0812369 0.00287696)
(0.0114562 0.0767769 0.00402262)
(0.0155036 0.0716621 0.00400135)
(0.0227184 0.0698761 0.00290224)
(0.0314972 0.0703946 0.00292435)
(0.0424273 0.0723756 0.0027134)
(0.0537517 0.0802525 0.00136074)
(0.0655364 0.086196 0.00198626)
(0.0734099 0.0948209 0.00337135)
(0.0789137 0.0986578 0.00435162)
(0.0822403 0.0988903 0.00563167)
(0.085791 0.0955697 0.00922389)
(0.0877406 0.0835299 0.0140561)
(0.0860091 0.0650336 0.0121149)
(0.0778993 0.0400846 0.00561391)
(0.0627392 0.0125892 -0.00413928)
(0.0427088 -0.0217996 -0.0189176)
(0.0132507 -0.0443261 -0.0286525)
(-0.0388434 -0.0679905 -0.0283415)
(-0.0867478 -0.0632849 -0.0218787)
(-0.121009 -0.0513978 -0.00695848)
(-0.136188 -0.0360925 0.00435407)
(-0.140314 -0.0178317 0.00053108)
(0.0248439 0.0212317 0.00693356)
(0.0290567 0.0286322 0.00826631)
(0.019556 0.0209644 0.00481056)
(0.024269 0.0232238 0.00515274)
(0.0211243 0.010157 -5.42871e-06)
(0.0202442 0.00990352 0.000358403)
(0.00845295 -0.00148685 -0.00523573)
(-0.000561991 0.000626329 -0.00357785)
(-0.00502314 -0.00262939 -0.000900398)
(-0.00830166 -0.00111652 0.000526506)
(-0.00889689 -0.00265612 0.00121165)
(-0.00872258 -0.0012093 0.00273064)
(-0.00670768 -0.00103206 0.00425493)
(-0.00473341 -0.000411241 0.00579986)
(-0.00352526 -0.000255706 0.0068313)
(-0.00311042 0.000159914 0.00772735)
(-0.00339411 0.000449295 0.00815925)
(-0.00389941 0.000746806 0.00826284)
(-0.00434634 0.000990544 0.0081451)
(-0.00465592 0.00123966 0.00791871)
(-0.0048923 0.00138636 0.00761868)
(-0.00506585 0.00145343 0.00732466)
(-0.00519823 0.00146662 0.00705411)
(-0.00530891 0.00145554 0.00681479)
(-0.00540523 0.00142887 0.00661374)
(-0.00545267 0.00140313 0.0064495)
(-0.00546698 0.00138041 0.0063034)
(-0.00543588 0.00134829 0.00618582)
(-0.00537401 0.00129534 0.00609413)
(-0.00531828 0.00124442 0.0060335)
(-0.00528565 0.00122115 0.00599965)
(-0.00525213 0.00122677 0.00598094)
(-0.00521971 0.00126058 0.00596787)
(-0.00520504 0.00131854 0.0059478)
(-0.00518197 0.00141501 0.00591397)
(-0.00512686 0.00150404 0.0058608)
(-0.00504911 0.00161213 0.00579378)
(-0.00494489 0.00168644 0.00571108)
(-0.00482397 0.00185189 0.00563515)
(-0.00476836 0.00187116 0.00554318)
(-0.00473613 0.002206 0.00545928)
(-0.00476341 0.00209479 0.0053247)
(-0.00468826 0.00272819 0.00523383)
(-0.00419863 0.00164989 0.00512682)
(-0.00334752 0.0029077 0.00531884)
(-0.00238716 -0.000868162 0.00524323)
(-0.000148855 0.00325524 0.00647711)
(-0.000188015 -0.0034804 0.00645607)
(-0.00215242 0.00641329 0.00608174)
(-0.00330782 -0.00626679 0.00705742)
(-0.00415745 0.00994391 0.00906614)
(-0.000749033 -0.0203481 0.010255)
(0.00231925 0.00849109 0.0131438)
(0.0101714 -0.0208569 0.0227292)
(-0.0109143 0.0193265 0.0526181)
(0.00427729 -0.0313355 0.0327341)
(-0.00323643 0.00931331 0.0727459)
(0.0281859 -0.0971008 0.097689)
(-0.0131462 -0.0479893 -0.116893)
(-0.0133804 -0.232564 0.0399383)
(-0.0235023 -0.0743645 0.0540597)
(-0.0346622 0.140238 -0.017405)
(-0.0334918 0.0922114 0.0018106)
(-0.0250907 0.131692 0.00423916)
(-0.0217698 0.119995 0.009657)
(-0.0125656 0.113066 0.00740878)
(-0.007362 0.100413 0.00805399)
(0.00143505 0.0868912 0.00576839)
(0.0050979 0.0764452 0.00585465)
(0.0116117 0.0637989 0.00528785)
(0.0142798 0.0553565 0.00497574)
(0.0169105 0.043648 0.00501683)
(0.0184097 0.0337047 0.00466821)
(0.0192826 0.0209461 0.00412084)
(0.0221341 0.00820231 0.00228441)
(0.0223251 0.000160852 -0.000463808)
(0.0214995 -0.00653158 -0.0027992)
(0.0243813 -0.00884771 -0.00505946)
(0.0294676 -0.00470646 -0.00650871)
(0.0375568 0.00703362 -0.00663048)
(0.0506593 0.0246862 -0.00718)
(0.0655369 0.0560243 -0.00381385)
(0.0780246 0.0779336 3.754e-05)
(0.0812593 0.0909614 0.00280201)
(0.0877797 0.095469 0.00916485)
(0.0922214 0.0914291 0.0180931)
(0.0964785 0.0844086 0.0228049)
(0.0969088 0.069616 0.0206688)
(0.0890364 0.0494 0.0130053)
(0.0753073 0.0259015 -0.000457555)
(0.0502519 0.0074753 -0.0131688)
(-0.0102127 -0.0146998 -0.0227671)
(-0.0802917 -0.0307603 -0.0239045)
(-0.12055 -0.0275409 -0.0101362)
(-0.147571 -0.0182915 0.00163852)
(-0.166419 -0.0148609 -0.0170406)
(0.00778324 0.021572 -0.00240203)
(0.0260165 0.0295109 0.00815421)
(0.0154815 0.0244228 0.00453812)
(0.0224767 0.0284087 0.00613423)
(0.0198007 0.0128666 0.00254493)
(0.0205913 0.0117079 0.00349275)
(0.0120895 -0.00121221 -0.00591611)
(0.00209473 0.000366183 -0.00857054)
(-0.00475081 -0.00241698 -0.00629486)
(-0.00732466 -0.000274371 -0.00411156)
(-0.00832635 -0.00288511 -0.00283527)
(-0.00879204 -0.00234653 -0.00140807)
(-0.00839559 -0.00335677 0.000156192)
(-0.00746203 -0.00280236 0.00177963)
(-0.00706805 -0.00224384 0.00300574)
(-0.00722281 -0.00122237 0.00408036)
(-0.00785306 -0.000374448 0.00490871)
(-0.00848797 0.000343701 0.00539205)
(-0.0090162 0.000871871 0.00554215)
(-0.00926358 0.00127792 0.00549575)
(-0.00924598 0.00153001 0.00535325)
(-0.00919719 0.001693 0.0051886)
(-0.00913584 0.00177832 0.00502653)
(-0.00907317 0.00181737 0.00487429)
(-0.0090059 0.00182012 0.00473498)
(-0.00891214 0.00180263 0.00461193)
(-0.00880323 0.0017762 0.00449834)
(-0.00865764 0.00174093 0.00439956)
(-0.00851108 0.0016935 0.00431082)
(-0.00843981 0.00164925 0.00423996)
(-0.00841944 0.00162578 0.00419169)
(-0.00839684 0.00162463 0.00416021)
(-0.00836847 0.0016514 0.00413814)
(-0.00834129 0.00170286 0.00411381)
(-0.00828115 0.00178466 0.00407285)
(-0.00816685 0.00186142 0.00400743)
(-0.00804541 0.00195227 0.00392104)
(-0.00789677 0.00202267 0.00381826)
(-0.00774725 0.00219726 0.00371164)
(-0.00763216 0.00227413 0.00359321)
(-0.00765413 0.00261704 0.00348764)
(-0.00761347 0.00239733 0.00335178)
(-0.00748299 0.00285812 0.00330994)
(-0.00696895 0.00136376 0.00313576)
(-0.00584148 0.00260076 0.00334891)
(-0.0054948 -0.00145109 0.00291962)
(-0.00318465 0.00317691 0.00362667)
(-0.0050711 -0.00251682 0.0026806)
(-0.00491527 0.00757577 0.00267661)
(-0.0065426 -0.00513887 0.00386259)
(-0.00516622 0.0111822 0.00489019)
(-0.00150355 -0.0195588 0.00902654)
(-0.00748584 0.00852923 0.0100317)
(-0.00547897 -0.0172451 0.021141)
(-0.0251235 0.0244716 0.0582295)
(-0.0147644 -0.0423482 0.0401551)
(0.0105998 0.0411976 0.0845384)
(0.0829675 -0.107397 0.081108)
(-0.0292578 0.0307779 -0.145641)
(-0.0488131 -0.204545 0.0357714)
(-0.0738327 -0.112199 0.0554537)
(-0.0445801 0.128231 -0.0166867)
(-0.0488168 0.0512336 0.00501247)
(-0.0196842 0.0914689 0.00532352)
(-0.0211478 0.0633609 0.0119394)
(0.00129067 0.0518909 0.00857465)