/*--------------------------------*- C++ -*----------------------------------*\
| =========                 |                                                 |
| \\      /  F ield         | OpenFOAM: The Open Source CFD Toolbox           |
|  \\    /   O peration     | Version:  2.3.0                                 |
|   \\  /    A nd           | Web:      www.OpenFOAM.org                      |
|    \\/     M anipulation  |                                                 |
\*---------------------------------------------------------------------------*/
FoamFile
{
    version     2.0;
    format      ascii;
    class       volVectorField;
    location    "37";
    object      U.waterMean;
}
// * * * * * * * * * * * * * * * * * * * * * * * * * * * * * * * * * * * * * //

dimensions      [0 1 -1 0 0 0 0];

internalField   nonuniform List<vector> 
6144
(
(0.00915 0.0192205 -0.000650521)
(0.00939746 3.87383e-05 -0.001439)
(0.00467144 -0.00156924 -0.00236715)
(0.00444005 -0.00279821 -0.00230996)
(0.00285705 -0.00328628 -0.00191344)
(0.00293112 -0.00200005 -0.0016711)
(0.00243074 -0.00192496 -0.0013033)
(0.00246383 -0.0008081 -0.00102272)
(0.00225661 -0.000428984 -0.000967885)
(0.00216249 0.000762933 -0.000715812)
(0.00206165 0.00157036 -0.000483279)
(0.00216364 0.00219454 -0.000140664)
(0.00229874 0.00214382 -1.33592e-05)
(0.00243888 0.00178737 0.000140589)
(0.00250944 0.00118114 3.22446e-05)
(0.00257878 0.000668238 -8.05696e-05)
(0.0026135 0.000179815 -0.000273334)
(0.00265167 -0.00013862 -0.000416906)
(0.00267921 -0.000400075 -0.000568994)
(0.00269883 -0.000537544 -0.000674401)
(0.00270883 -0.000630499 -0.000750099)
(0.00271039 -0.000657642 -0.000787137)
(0.00270425 -0.000663699 -0.000799569)
(0.00269257 -0.000644172 -0.000790797)
(0.00267578 -0.000617784 -0.000765894)
(0.00265527 -0.000586837 -0.000726467)
(0.00263121 -0.000556473 -0.000674013)
(0.00260512 -0.000530196 -0.000613443)
(0.00257851 -0.000504088 -0.000548846)
(0.00255081 -0.000499146 -0.000481986)
(0.00252293 -0.000482966 -0.000411628)
(0.00248768 -0.000528593 -0.000334363)
(0.0024522 -0.000508662 -0.000245206)
(0.00240597 -0.000643531 -0.000135884)
(0.00236794 -0.00063102 2.83105e-06)
(0.00232099 -0.000976236 0.000165792)
(0.00229612 -0.00104914 0.00033792)
(0.00226491 -0.00173673 0.000474795)
(0.0022666 -0.00186021 0.000539525)
(0.00226533 -0.00280613 0.000478519)
(0.0022854 -0.0026838 0.000245883)
(0.00230713 -0.00345095 -0.000224766)
(0.0023326 -0.00236956 -0.000803416)
(0.002466 -0.00231298 -0.00132086)
(0.00272161 -0.00019558 -0.00167016)
(0.00314345 -0.000686584 -0.00189502)
(0.00383899 0.000778451 -0.00250178)
(0.00430421 -0.000593166 -0.00354249)
(0.0024534 0.00450369 -0.00463526)
(0.00262094 0.00998871 -0.00649373)
(0.0125515 0.0161916 -0.00971396)
(0.0235768 0.0020947 -0.0110477)
(0.0328089 -0.00650583 -0.0125175)
(0.0344638 -0.0456038 -0.012364)
(0.0318911 -0.041873 -0.0151096)
(0.0293065 -0.0864269 -0.0105638)
(0.0125942 -0.0443928 -0.0191249)
(0.0105235 -0.101056 0.0168296)
(-0.0311682 0.00160692 -0.0498874)
(0.0230531 -0.0336672 0.038229)
(0.132021 -0.292297 0.0669777)
(0.0902111 -0.115205 0.0315466)
(0.0590548 -0.186605 0.0104973)
(0.0493015 -0.194063 0.00653179)
(0.040649 -0.196304 0.00665021)
(0.0336687 -0.187433 0.00653724)
(0.027483 -0.188725 0.00555859)
(0.0227765 -0.182747 0.00487787)
(0.0196858 -0.181571 0.00484448)
(0.0173796 -0.17522 0.00506778)
(0.0157325 -0.172379 0.00555374)
(0.0139561 -0.165889 0.00587677)
(0.0118776 -0.160103 0.00629343)
(0.00883028 -0.151365 0.00654939)
(0.00519497 -0.14088 0.00695914)
(0.0025311 -0.126535 0.00549806)
(0.00097641 -0.111913 0.00257056)
(-0.00062801 -0.0967076 0.00105262)
(-0.00123993 -0.0818453 0.000938533)
(0.000843443 -0.0677882 0.00122816)
(0.00325852 -0.0561295 0.000867357)
(0.00474867 -0.0464223 0.000650828)
(0.00514422 -0.0396341 0.00157783)
(0.00390437 -0.0348459 0.00208888)
(0.00282591 -0.0285854 0.00183873)
(0.00278597 -0.0214882 0.00116779)
(0.00286106 -0.0135864 0.0012231)
(0.00263507 -0.00537797 0.000812136)
(0.00181791 0.00253444 6.52691e-05)
(0.000653295 0.0121355 -0.000284809)
(0.00132999 0.0204685 0.00105448)
(0.00192684 0.0264099 0.00347887)
(0.00192651 0.0292453 0.00656346)
(0.00241965 0.028275 0.0103198)
(0.00423878 0.023678 0.0136034)
(0.00723672 0.01081 0.0184869)
(0.0182388 0.0209773 0.00281158)
(0.0192416 0.00788127 0.00236969)
(0.0103247 0.00476546 -0.000193289)
(0.0103349 0.00332356 0.00047586)
(0.00627101 0.000304904 0.00109792)
(0.0060419 0.000546319 0.00164847)
(0.00431027 -0.000775547 0.00213303)
(0.00416807 0.0004162 0.00205566)
(0.00365383 0.000768546 0.00192634)
(0.00358459 0.00220703 0.00197698)
(0.00357324 0.00285706 0.00211245)
(0.00398376 0.00337365 0.00251113)
(0.00434394 0.00311903 0.00268997)
(0.00472124 0.00272511 0.00284095)
(0.00485019 0.00201031 0.00279982)
(0.00497876 0.00142069 0.00275874)
(0.00499281 0.000817691 0.00266576)
(0.00503579 0.000414679 0.00260596)
(0.00505193 6.30314e-05 0.00252651)
(0.00506573 -0.000141413 0.00247863)
(0.00506424 -0.000291254 0.00243812)
(0.00504989 -0.000358403 0.00242915)
(0.00502097 -0.000394736 0.0024409)
(0.00498199 -0.000394697 0.00247343)
(0.00493483 -0.000381505 0.00251941)
(0.00488163 -0.000358013 0.00257634)
(0.00482307 -0.000332176 0.00264039)
(0.00476202 -0.000309377 0.00270519)
(0.00470246 -0.000289026 0.0027683)
(0.00464541 -0.000291685 0.00282484)
(0.00459224 -0.000286763 0.00287995)
(0.00452663 -0.000353163 0.00293844)
(0.00446945 -0.000354093 0.0030031)
(0.0043972 -0.000534956 0.00307417)
(0.00436544 -0.000544276 0.00315923)
(0.00432455 -0.000946666 0.0032496)
(0.00435539 -0.000991658 0.00334607)
(0.00435604 -0.00171583 0.00342211)
(0.00442759 -0.00172857 0.0034694)
(0.00442903 -0.00271223 0.00344574)
(0.00443401 -0.00241251 0.00332531)
(0.00436114 -0.00328407 0.00296129)
(0.00432997 -0.00204073 0.00229209)
(0.00437378 -0.00238485 0.00161261)
(0.00486426 -0.000351284 0.00120202)
(0.00577516 -0.0015236 0.000928013)
(0.00617138 0.000302061 -0.000305022)
(0.00505269 0.00168502 -0.00178803)
(0.00286278 0.00897007 -0.00211816)
(0.00688496 0.00662946 -0.00218623)
(0.0260624 0.00231595 -0.00354593)
(0.043179 -0.0154921 -0.0038192)
(0.0599045 -0.0192196 -0.00275929)
(0.0610767 -0.0478358 -0.000685753)
(0.0538296 -0.0363064 0.00371212)
(0.0543004 -0.0952662 0.0132037)
(0.0142893 -0.048437 0.0109372)
(0.00743737 -0.165397 0.040254)
(-0.0855411 0.0247017 -0.0794483)
(0.00738125 -0.0830034 0.0112657)
(0.168366 -0.262476 0.107537)
(0.0847543 0.00463974 0.0447937)
(0.0233928 -0.11286 0.0107104)
(0.0236775 -0.05081 0.0155222)
(0.0117147 -0.0694749 0.0167698)
(0.00513962 -0.0544918 0.0144133)
(0.00227066 -0.0572944 0.0113872)
(0.00271284 -0.0504896 0.0106966)
(0.00444415 -0.050207 0.0107398)
(0.00430369 -0.0451167 0.0096678)
(0.0028955 -0.045173 0.0104304)
(0.000674455 -0.0436728 0.0113823)
(-0.00153957 -0.0459976 0.0113372)
(-0.0048651 -0.046897 0.0098391)
(-0.00821436 -0.0477554 0.00804876)
(-0.00929622 -0.0447277 0.00656519)
(-0.00867727 -0.0414917 0.00476189)
(-0.00872505 -0.0377934 0.00446787)
(-0.00799425 -0.0337336 0.00431553)
(-0.00529401 -0.0300768 0.00490366)
(-0.00216657 -0.0258314 0.0048853)
(0.00048251 -0.0217214 0.00589141)
(0.00204913 -0.0209877 0.00763454)
(0.00134943 -0.0221761 0.00806667)
(-0.000581078 -0.0224081 0.00694771)
(-0.00118813 -0.0215473 0.00593997)
(-0.00128494 -0.0180461 0.00468612)
(-0.00156093 -0.0120778 0.00353141)
(-0.00157261 -0.00572672 0.00244351)
(-0.00173294 0.00138556 0.00110398)
(-0.000882279 0.00771691 0.00233398)
(1.97791e-05 0.0129614 0.00376144)
(-0.000563085 0.0175964 0.00693406)
(-0.000149023 0.017595 0.0119265)
(0.000843153 0.0160556 0.0172144)
(0.00286936 0.00496193 0.0237143)
(0.0216095 0.0211172 0.00393222)
(0.0233073 0.012085 0.00378097)
(0.0138963 0.00802761 0.0012302)
(0.0136722 0.0075872 0.0020423)
(0.00780785 0.00342518 0.00258263)
(0.0069416 0.00322424 0.00301528)
(0.00382462 0.000690512 0.00353513)
(0.0033976 0.00159417 0.00340504)
(0.00258721 0.00165345 0.00327007)
(0.00277463 0.00285875 0.00335614)
(0.00283819 0.00303018 0.00342691)
(0.00355338 0.003441 0.00371705)
(0.00398871 0.00311415 0.00386182)
(0.00448326 0.00291085 0.00399407)
(0.00465189 0.00233175 0.00396723)
(0.00481679 0.0018747 0.00395736)
(0.00478858 0.00131852 0.00391393)
(0.00480617 0.000934788 0.00390472)
(0.00475377 0.00056022 0.0038961)
(0.00471321 0.000318267 0.00391057)
(0.00464491 0.00011484 0.00393068)
(0.00458018 -2.17308e-06 0.0039639)
(0.00450809 -8.43328e-05 0.00400007)
(0.00443558 -0.000121941 0.00404226)
(0.00436121 -0.000139729 0.00408694)
(0.0042869 -0.000141745 0.00413325)
(0.00421152 -0.000139642 0.00418021)
(0.00413453 -0.000140528 0.00422847)
(0.00405869 -0.000145489 0.00427846)
(0.00398142 -0.000171794 0.00433023)
(0.00390609 -0.000190069 0.00438354)
(0.0038175 -0.000272886 0.00443821)
(0.00374199 -0.000297095 0.00449598)
(0.00364886 -0.000484171 0.00455442)
(0.00361256 -0.000488702 0.00461626)
(0.00356423 -0.000822861 0.00467243)
(0.00361205 -0.000746428 0.00472719)
(0.00361966 -0.00124537 0.00476208)
(0.00373058 -0.000971954 0.0047799)
(0.0037519 -0.0015855 0.00475207)
(0.003841 -0.000919217 0.00466798)
(0.00374779 -0.00157837 0.00449457)
(0.00370762 -0.000386838 0.00421666)
(0.0038088 -0.00125939 0.00382087)
(0.00444918 3.31146e-05 0.0034809)
(0.00536784 -0.00156792 0.00318117)
(0.00506961 0.000868715 0.00197226)
(0.00369919 0.00146389 0.000637736)
(0.00439082 0.00600098 0.000968583)
(0.0155621 -0.00405089 0.000987696)
(0.0399607 -0.00815455 0.0002335)
(0.0623909 -0.020867 0.00108481)
(0.0764432 -0.0149652 0.00391123)
(0.0795519 -0.0326973 0.00657053)
(0.0758139 -0.0154788 0.0159206)
(0.0757202 -0.0775235 0.0278103)
(0.0276151 -0.0182702 0.0374534)
(0.0365711 -0.185731 0.0688607)
(-0.0974857 0.0694398 -0.0637218)
(0.0279958 -0.118328 -0.0181924)
(0.191724 -0.238787 0.113888)
(0.104029 0.0528519 0.050068)
(0.0687539 -0.0868245 0.0251503)
(0.0427254 0.00175198 0.0151562)
(0.0277449 -0.030263 0.0135277)
(0.0184214 -0.00822173 0.0123401)
(0.0169111 -0.0145967 0.0127344)
(0.0140149 -0.00701809 0.0106358)
(0.0136533 -0.00312096 0.0090296)
(0.0134392 0.00311947 0.00952102)
(0.0121278 0.00177711 0.0105772)
(0.00976596 0.00158081 0.0107859)
(0.00781701 -0.00140959 0.00959634)
(0.00458662 -0.00210978 0.00848519)
(0.00092882 -0.00374393 0.00676902)
(-0.000975899 -0.00351813 0.00527779)
(-0.00171695 -0.00295886 0.00614459)
(-0.00219437 -0.00270505 0.00748112)
(-0.00278327 -0.00413043 0.00924356)
(-0.00202207 -0.00565863 0.00995723)
(-0.000288284 -0.00587303 0.0102104)
(0.00175575 -0.00667572 0.0117692)
(0.00262293 -0.0093067 0.0144801)
(-0.000159451 -0.0126635 0.0148804)
(-0.00317766 -0.0158058 0.0139249)
(-0.004945 -0.0174031 0.012493)
(-0.00576005 -0.0156406 0.00970997)
(-0.00628975 -0.0122051 0.0068414)
(-0.00558676 -0.00699609 0.00325164)
(-0.00461458 0.000748259 0.000735827)
(-0.00309901 0.00613262 0.00329397)
(-0.00245875 0.0108361 0.00581433)
(-0.00197128 0.0134751 0.00958541)
(-0.00116813 0.0121156 0.0140234)
(-0.00239645 0.0112477 0.0190218)
(-0.00419841 0.00160784 0.024867)
(0.0229083 0.0212884 0.00419839)
(0.0262041 0.0149378 0.00432499)
(0.0155491 0.00935184 0.000959127)
(0.0163655 0.0103293 0.00142266)
(0.00968271 0.00516085 0.00176118)
(0.00895924 0.00547122 0.00236615)
(0.00396699 0.00132645 0.00320828)
(0.0028019 0.00183816 0.00318614)
(0.00139518 0.00113149 0.00327334)
(0.00184247 0.00246576 0.00344853)
(0.0019087 0.00233528 0.00361264)
(0.00261041 0.00292575 0.00403433)
(0.00298473 0.00278428 0.00421849)
(0.00349915 0.00285533 0.00436897)
(0.00368304 0.0024206 0.00432969)
(0.00386219 0.00210078 0.00432914)
(0.00381303 0.0015879 0.00429879)
(0.00381498 0.00124474 0.00431002)
(0.00373513 0.000872071 0.00431261)
(0.00367344 0.000620519 0.00433345)
(0.00357884 0.00038794 0.00435426)
(0.00348786 0.000238336 0.00438645)
(0.00338752 0.000120264 0.00442072)
(0.0032906 4.96973e-05 0.00446064)
(0.00319658 4.50199e-06 0.00450323)
(0.00310783 -1.88931e-05 0.00454865)
(0.00302309 -3.28602e-05 0.00459523)
(0.00294231 -4.41477e-05 0.00464211)
(0.00286709 -5.67829e-05 0.0046889)
(0.00279626 -8.63013e-05 0.00473545)
(0.00273224 -0.000109989 0.00478265)
(0.00266162 -0.000186933 0.00483118)
(0.00261084 -0.000204178 0.00487996)
(0.00254671 -0.000356946 0.00492397)
(0.00254256 -0.000321061 0.00495968)
(0.00251112 -0.000571047 0.00497842)
(0.00257769 -0.000392345 0.00498161)
(0.00257035 -0.000729224 0.00495996)
(0.0026718 -0.000260147 0.00492033)
(0.0026484 -0.000619847 0.00485155)
(0.00275695 0.00032442 0.00475388)
(0.00277637 -0.000147067 0.00461719)
(0.0030472 0.000946495 0.00443762)
(0.00336789 -0.000426171 0.00424257)
(0.00393096 0.000311127 0.00416319)
(0.0043549 -0.00164666 0.00400989)
(0.0038004 0.000958619 0.00300731)
(0.00342555 -0.000679995 0.00204628)
(0.00840836 -0.000173743 0.00272852)
(0.0207033 -0.0122992 0.00258985)
(0.0444118 -0.0136237 0.00330233)
(0.0662645 -0.0155126 0.00720198)
(0.0805202 0.000503844 0.0117284)
(0.0829397 -0.00493879 0.0157837)
(0.0774225 0.0227755 0.0303193)
(0.0739225 -0.0358889 0.0454881)
(0.0302817 0.05275 0.0839293)
(0.050183 -0.185863 0.111407)
(-0.125528 0.198097 -0.0397706)
(0.0265636 -0.209725 0.0089039)
(0.172556 -0.203203 0.123824)
(0.0757113 0.0772582 0.0379348)
(0.0467531 -0.0458044 0.0244575)
(0.0130775 0.0465307 0.00226476)
(0.00907595 0.0238029 0.00681427)
(0.00156297 0.04601 0.00717897)
(0.00184796 0.0438145 0.00804659)
(0.0010898 0.0524426 0.00731919)
(0.0040148 0.0518793 0.00617696)
(0.00587526 0.055938 0.00549442)
(0.00677731 0.0531837 0.00592372)
(0.00644568 0.0521256 0.00455596)
(0.00488678 0.0487372 0.00409425)
(0.00202233 0.0466096 0.0042264)
(2.63034e-05 0.0428442 0.00483497)
(-0.00134483 0.0394424 0.00703834)
(-0.00350237 0.0341607 0.00929641)
(-0.00517179 0.0296948 0.0118997)
(-0.00663951 0.0234823 0.0142004)
(-0.00727368 0.0200641 0.0148554)
(-0.00672131 0.017124 0.0160888)
(-0.00657124 0.0149925 0.0164038)
(-0.00707098 0.0124666 0.0176889)
(-0.0084392 0.00851034 0.0176521)
(-0.01181 0.00540162 0.0170155)
(-0.0143538 0.00291202 0.0152233)
(-0.0143008 0.00326118 0.0101768)
(-0.0140236 0.00570825 0.00711824)
(-0.0132491 0.00754658 0.00341915)
(-0.0109093 0.0127853 0.000770043)
(-0.00847303 0.0160623 0.00427788)
(-0.00708076 0.0174045 0.00752056)
(-0.00629843 0.0165339 0.0112302)
(-0.00595522 0.0120851 0.0158423)
(-0.00906484 0.00991195 0.0198949)
(-0.0134125 0.00059055 0.0250096)
(0.022935 0.0215089 0.00448987)
(0.0281228 0.0178407 0.00510028)
(0.0167797 0.0101193 0.000810864)
(0.018723 0.0121378 0.00114268)
(0.011397 0.00530527 0.000566752)
(0.0112467 0.00685474 0.00113133)
(0.00517569 0.00191659 0.00176866)
(0.00319241 0.0025229 0.00231855)
(0.000361281 0.000227261 0.00272645)
(0.000465527 0.00149918 0.00311776)
(0.000308351 0.00111617 0.00337003)
(0.000812182 0.00207632 0.00398589)
(0.00103698 0.00220832 0.0042077)
(0.00158697 0.00259596 0.00440031)
(0.00180019 0.00231787 0.00433625)
(0.00196716 0.00210462 0.00435127)
(0.001843 0.00163401 0.00432194)
(0.00175251 0.00134187 0.00434589)
(0.00158739 0.000995746 0.00434387)
(0.00146609 0.000764106 0.00435341)
(0.00132201 0.000525241 0.00435201)
(0.00119937 0.000356654 0.00436089)
(0.0010794 0.000213068 0.00437202)
(0.00096959 0.000117993 0.00439012)
(0.000867554 4.97294e-05 0.00441197)
(0.000776736 6.80911e-06 0.00443897)
(0.00069448 -2.25142e-05 0.00446864)
(0.000621814 -4.52453e-05 0.00449985)
(0.000559529 -6.66366e-05 0.00453038)
(0.000504673 -9.75374e-05 0.00455893)
(0.000455847 -0.000119582 0.00458555)
(0.000399873 -0.000180051 0.00461047)
(0.000359122 -0.000177817 0.00463356)
(0.00030281 -0.00028012 0.00464801)
(0.000309041 -0.000188415 0.00464966)
(0.000289222 -0.000338828 0.00462499)
(0.000371123 -5.94527e-05 0.00457691)
(0.00035827 -0.000234044 0.0044908)
(0.000445976 0.000407795 0.00438101)
(0.000375011 0.000265119 0.00424774)
(0.000547209 0.00135566 0.00412849)
(0.000763262 0.000932659 0.00402241)
(0.00147508 0.0019086 0.00391033)
(0.00212361 0.000298889 0.00384404)
(0.00272841 0.000900014 0.00400726)
(0.00260314 -0.00116964 0.00400989)
(0.00230969 0.000939113 0.00349246)
(0.00486233 -0.00255981 0.00323913)
(0.0121038 -0.0035062 0.00412493)
(0.0248494 -0.0142798 0.00507775)
(0.0433732 -0.0100032 0.00883303)
(0.0607253 -0.00162433 0.0168588)
(0.0716581 0.0253616 0.0217178)
(0.0735866 0.0296255 0.0248652)
(0.0659742 0.0624703 0.0416158)
(0.0604133 0.0199465 0.0562155)
(0.0369601 0.12104 0.0947058)
(0.0575094 -0.12319 0.110759)
(-0.0881342 0.312459 -0.00710338)
(0.0194001 -0.268677 0.0182294)
(0.150237 -0.17039 0.128065)
(0.057087 0.0889522 0.0320732)
(0.0452131 -0.0066595 0.0258754)
(0.0131854 0.0764088 0.000314612)
(0.014738 0.0643301 0.00610172)
(0.0069665 0.0848013 0.00695039)
(0.00727613 0.0842271 0.00786051)
(0.00575143 0.0926013 0.00687568)
(0.00719705 0.092552 0.00679289)
(0.00819894 0.097186 0.0070957)
(0.00996766 0.0952131 0.00715943)
(0.0102768 0.0959466 0.00663596)
(0.0104392 0.0933968 0.00754152)
(0.00922742 0.0904679 0.00909663)
(0.00774903 0.0849776 0.0117325)
(0.00506454 0.0789359 0.0130723)
(0.00251234 0.0729592 0.0136673)
(-0.000747313 0.0668042 0.0142179)
(-0.0040157 0.0610548 0.0151471)
(-0.00639588 0.0566149 0.015676)
(-0.00773974 0.0521291 0.0169635)
(-0.0091361 0.0460223 0.0187187)
(-0.0102724 0.0389263 0.0194918)
(-0.0121465 0.0326667 0.0175188)
(-0.0144672 0.0274048 0.0132783)
(-0.0154276 0.0247046 0.00848767)
(-0.0147463 0.0243581 0.00486229)
(-0.0137895 0.0244417 0.00166448)
(-0.0129667 0.0260767 -0.000836378)
(-0.0107809 0.0272146 0.00217109)
(-0.00979958 0.0261267 0.00673526)
(-0.00850877 0.0237011 0.00974077)
(-0.0076935 0.0205439 0.0138869)
(-0.00902683 0.0130539 0.0178486)
(-0.014453 0.0108912 0.0204463)
(-0.023182 0.000138587 0.0235852)
(0.0215374 0.0212779 0.0053375)
(0.0294894 0.0210185 0.00638652)
(0.0172309 0.0107512 0.00157679)
(0.0205384 0.0139244 0.00240829)
(0.0127898 0.00421564 0.000472579)
(0.0127379 0.00704104 0.0005986)
(0.00663776 0.00141879 0.000627292)
(0.00431472 0.0031586 0.00130613)
(0.00053223 -0.000290751 0.00198505)
(-0.000397405 0.000731464 0.00256515)
(-0.000984651 -0.000324974 0.00285747)
(-0.000742795 0.000892264 0.00364948)
(-0.000431757 0.00130588 0.00399565)
(0.000293467 0.00210329 0.00438197)
(0.000685651 0.00192868 0.00445371)
(0.000908924 0.00183859 0.00457475)
(0.000754755 0.00141282 0.00456479)
(0.000604172 0.00121793 0.00458803)
(0.000388663 0.000956456 0.00455311)
(0.000235542 0.000817463 0.00452237)
(7.17087e-05 0.000646073 0.00446684)
(-6.41744e-05 0.000526658 0.00441668)
(-0.000195514 0.000409271 0.00436642)
(-0.000308232 0.000323842 0.00432596)
(-0.00040262 0.000255867 0.0042926)
(-0.000477034 0.000210321 0.00426812)
(-0.000535036 0.000179625 0.00425152)
(-0.000578327 0.000159474 0.00424125)
(-0.000610694 0.000144541 0.00423448)
(-0.000633827 0.00012565 0.00423139)
(-0.000650204 0.000118482 0.00423281)
(-0.000669656 8.8772e-05 0.004237)
(-0.000674366 0.000126161 0.00424332)
(-0.000691053 9.18477e-05 0.00423909)
(-0.000654857 0.00025495 0.00421752)
(-0.00065473 0.000219614 0.00416159)
(-0.000587952 0.000595253 0.00406808)
(-0.000656203 0.00054536 0.00391687)
(-0.00064301 0.00123624 0.00372995)
(-0.000741211 0.00111833 0.00354)
(-0.000511487 0.00209791 0.00341013)
(-0.000123343 0.00159299 0.00336275)
(0.000846935 0.0025151 0.0034271)
(0.00160448 0.000962395 0.00364692)
(0.00203072 0.00175163 0.00398915)
(0.00159821 -0.000231315 0.00401603)
(0.00192006 0.00100132 0.00348645)
(0.00598555 -0.0026414 0.00367054)
(0.0139331 -0.00212117 0.00497833)
(0.0237788 -0.0111133 0.0082696)
(0.0338369 -0.00140007 0.0152235)
(0.0420548 0.0104969 0.0256683)
(0.0530843 0.0395397 0.0316447)
(0.0567195 0.0491501 0.0362029)
(0.0524252 0.0850322 0.0516802)
(0.0468237 0.040252 0.057856)
(0.0365019 0.13054 0.0779153)
(0.052928 -0.0996534 0.075723)
(-0.0118901 0.352551 0.0302865)
(0.0183903 -0.303873 0.0252499)
(0.0917071 -0.13252 0.121668)
(0.0230817 0.10557 0.0165463)
(0.0165196 0.0385262 0.015603)
(-0.00401046 0.109244 -0.000510314)
(-0.00194104 0.10958 0.00831757)
(-0.00480039 0.126884 0.010284)
(-0.00138895 0.126919 0.0120049)
(0.000698068 0.133939 0.0120304)
(0.00445252 0.132626 0.01253)
(0.00796688 0.136047 0.0129353)
(0.0123926 0.134038 0.0126766)
(0.0145579 0.13467 0.0123751)
(0.0159401 0.132024 0.0130664)
(0.0153301 0.130284 0.0143195)
(0.0135905 0.125351 0.0158486)
(0.0107586 0.119177 0.016903)
(0.00785029 0.111763 0.0175192)
(0.00462307 0.10428 0.017438)
(0.000984433 0.0966254 0.0172397)
(-0.00273128 0.0872143 0.0175584)
(-0.00601263 0.0780217 0.0178283)
(-0.00879956 0.0684472 0.0175948)
(-0.0102729 0.0595298 0.0152378)
(-0.0115483 0.0522871 0.0104937)
(-0.0131766 0.0478456 0.00575583)
(-0.0139041 0.045846 0.00196422)
(-0.0132017 0.0451937 -0.00221741)
(-0.0132432 0.0457107 -0.00369056)
(-0.0124003 0.0458887 -0.000154693)
(-0.0115364 0.0435173 0.00614678)
(-0.0116038 0.0386607 0.00929236)
(-0.0117905 0.0333819 0.0121734)
(-0.0123068 0.0274277 0.0163703)
(-0.0147733 0.0182271 0.0196805)
(-0.0209502 0.0140189 0.0215246)
(-0.0282041 0.000649893 0.0207898)
(0.0178043 0.0199371 0.00540566)
(0.0294074 0.0247361 0.0083165)
(0.015691 0.0107643 0.00338438)
(0.0203385 0.0160018 0.00520032)
(0.0124554 0.00284039 0.00219135)
(0.0123355 0.00649142 0.00181517)
(0.00642194 -0.000124665 0.00128567)
(0.00459109 0.00303823 0.00123015)
(0.000440497 -0.000591059 0.00164743)
(-0.0012017 0.000698555 0.00237263)
(-0.00265288 -0.0010852 0.0025842)
(-0.00333084 0.000147621 0.00336555)
(-0.00344715 0.000507678 0.00380529)
(-0.00250852 0.00147236 0.00453761)
(-0.00200983 0.0013301 0.00487403)
(-0.00179951 0.00141399 0.00514192)
(-0.00208742 0.0010859 0.00514484)
(-0.00241129 0.00103004 0.00512499)
(-0.00275823 0.000876877 0.00502073)
(-0.00297889 0.000858346 0.00492397)
(-0.0031674 0.000790329 0.00480369)
(-0.0032976 0.000767164 0.00469932)
(-0.00340233 0.000722651 0.00460123)
(-0.00348326 0.000691417 0.00452414)
(-0.00354924 0.000660859 0.00446467)
(-0.00359389 0.000639969 0.00442008)
(-0.00362209 0.000623642 0.00438619)
(-0.00362948 0.000615097 0.00436576)
(-0.00361798 0.000611878 0.00435782)
(-0.00359442 0.000607839 0.00436043)
(-0.00357117 0.000619342 0.00437321)
(-0.00355754 0.00062525 0.00439171)
(-0.00354659 0.000708715 0.00441122)
(-0.00355811 0.000752619 0.00441416)
(-0.00352259 0.000987392 0.00439839)
(-0.00351078 0.00104324 0.00434994)
(-0.00341183 0.00145666 0.0042804)
(-0.00340946 0.00141491 0.00416331)
(-0.00330957 0.0019616 0.00399985)
(-0.00332467 0.00162101 0.00378506)
(-0.0030269 0.00225745 0.0035978)
(-0.00260604 0.00146954 0.00347125)
(-0.00156879 0.00225719 0.00355973)
(-0.000844107 0.000838916 0.00384539)
(-0.000454341 0.00186233 0.00414426)
(-0.000649747 8.35236e-05 0.00395542)
(0.000724935 0.000949339 0.00352269)
(0.00489451 -0.00231678 0.00413515)
(0.0130772 -0.00199339 0.00562263)
(0.0199883 -0.00543116 0.0102153)
(0.0195037 0.00967856 0.018477)
(0.0218948 0.0256157 0.0284664)
(0.0274851 0.0570014 0.0369481)
(0.0323154 0.07351 0.046226)
(0.0393043 0.104154 0.0590401)
(0.0433119 0.0585457 0.062602)
(0.0531045 0.145455 0.0737854)
(0.0525731 -0.101535 0.058179)
(0.0211022 0.341539 0.0548627)
(0.010157 -0.316112 0.0307606)
(0.0320198 -0.0955706 0.107604)
(-0.0038744 0.121333 0.0167783)
(-0.00680425 0.0797962 0.0120667)
(-0.0170201 0.144859 -0.0003977)
(-0.0111986 0.143934 0.0106235)
(-0.00849447 0.157428 0.0122642)
(-0.00364646 0.15404 0.0136819)
(7.35412e-05 0.159123 0.0139427)
(0.00400679 0.15729 0.0151186)
(0.00769205 0.159724 0.0156847)
(0.0123387 0.157102 0.0158748)
(0.015004 0.158943 0.0154337)
(0.017692 0.157678 0.016381)
(0.0176448 0.156303 0.017112)
(0.0169019 0.151627 0.0182245)
(0.0144646 0.145778 0.0183881)
(0.0118624 0.138362 0.0180317)
(0.00828451 0.129678 0.0172074)
(0.00511478 0.120899 0.016539)
(0.00174595 0.111151 0.0168399)
(-0.000670224 0.100619 0.0166524)
(-0.0023106 0.0900355 0.0144037)
(-0.00283254 0.0811346 0.0106528)
(-0.00363025 0.0744638 0.00588281)
(-0.0046783 0.069771 0.00106887)
(-0.00613657 0.0660027 -0.00511876)
(-0.00839051 0.0654179 -0.00821137)
(-0.00954773 0.0643651 -0.0059982)
(-0.00919883 0.0606903 -0.00276793)
(-0.00854333 0.0566734 0.00142487)
(-0.00892743 0.0498284 0.0036396)
(-0.0107328 0.0431931 0.00538979)
(-0.012618 0.0355343 0.00794046)
(-0.0167773 0.025247 0.0119602)
(-0.0232282 0.0176466 0.0152207)
(-0.0347426 -0.000126287 0.013151)
(0.0142605 0.0147841 0.00415881)
(0.0281746 0.0279111 0.00904681)
(0.0125931 0.0102715 0.0042323)
(0.0186552 0.0187365 0.00656133)
(0.0113103 0.00257492 0.00344311)
(0.0105538 0.00666396 0.00272462)
(0.00429932 -0.00143028 0.00246416)
(0.00311561 0.00281244 0.0018877)
(-0.000349271 -0.0010193 0.00216671)
(-0.00199827 0.000994499 0.00282483)
(-0.00353316 -0.00118014 0.00312655)
(-0.00444506 -0.000155707 0.00392212)
(-0.00443042 -0.000672893 0.00462044)
(-0.00335192 8.23015e-05 0.00557258)
(-0.00281481 -9.53439e-05 0.00623143)
(-0.00261255 0.000408449 0.00673686)
(-0.00285959 0.000453445 0.00693261)
(-0.00311523 0.000777121 0.00699579)
(-0.00340121 0.000857324 0.00691818)
(-0.00357085 0.00103409 0.00681257)
(-0.00372151 0.00108569 0.00667008)
(-0.00381158 0.001149 0.00654486)
(-0.00387695 0.00116042 0.00642952)
(-0.00391351 0.00116814 0.00633847)
(-0.00393136 0.00115987 0.00626665)
(-0.00392665 0.00115123 0.00621535)
(-0.00390726 0.00114306 0.0061793)
(-0.00387148 0.00113933 0.00615758)
(-0.00382239 0.00113991 0.00614648)
(-0.0037645 0.00114578 0.00614593)
(-0.00371408 0.00117166 0.00615249)
(-0.00368256 0.00120796 0.0061597)
(-0.00366565 0.00132743 0.00616242)
(-0.00366786 0.00142538 0.00615078)
(-0.00361876 0.00168908 0.00612425)
(-0.00358874 0.00177368 0.00607146)
(-0.00346247 0.00214257 0.00600518)
(-0.00341235 0.00204776 0.00589746)
(-0.00321161 0.00246137 0.00576257)
(-0.00311147 0.00199464 0.00558086)
(-0.0027288 0.00240328 0.00541099)
(-0.00238702 0.0014101 0.00527851)
(-0.00160789 0.00197762 0.00535211)
(-0.00117014 0.000531202 0.00560324)
(-0.00112881 0.00166448 0.00575088)
(-0.00121468 -1.84904e-06 0.00533923)
(0.000193053 -8.62466e-05 0.00478315)
(0.00446952 -0.00377131 0.00473676)
(0.0103456 -0.000737899 0.00646495)
(0.00809604 0.00629387 0.0150426)
(-0.00135117 0.0243392 0.0259278)
(-0.00539026 0.0437202 0.0340948)
(-0.002692 0.0736677 0.0393969)
(0.00949994 0.0945267 0.045686)
(0.0267458 0.126479 0.0585606)
(0.0503427 0.105632 0.065342)
(0.0781372 0.172029 0.0825705)
(0.0747625 -0.038358 0.070147)
(0.0697347 0.37076 0.0360462)
(-0.00751782 -0.335667 0.0305776)
(-0.0488299 -0.0670981 0.0785671)
(-0.0399565 0.156418 -0.00862005)
(-0.0403932 0.117561 0.0015922)
(-0.0314324 0.173335 -0.0048075)
(-0.0229487 0.161908 0.00666206)
(-0.0118362 0.167423 0.0067442)
(-0.00617671 0.160489 0.00766576)
(-0.000262396 0.162822 0.00761721)
(0.00443672 0.161364 0.00888214)
(0.00995069 0.162124 0.0103305)
(0.0138511 0.161322 0.010671)
(0.015749 0.163423 0.0106571)
(0.0180473 0.164622 0.0115527)
(0.0202439 0.167592 0.013228)
(0.0215529 0.167101 0.0151435)
(0.0212468 0.164 0.0168096)
(0.020436 0.158862 0.017771)
(0.019035 0.152162 0.0186106)
(0.0171853 0.143865 0.0191219)
(0.0154425 0.134639 0.0192657)
(0.013699 0.125151 0.0187607)
(0.0122068 0.115079 0.0170073)
(0.0100364 0.107149 0.0133805)
(0.00761853 0.102405 0.00755937)
(0.00432226 0.100853 0.00237993)
(-0.000323838 0.100719 -0.000734104)
(-0.00309784 0.100066 -0.00157236)
(-0.00386749 0.0974482 -0.00218397)
(-0.00273359 0.0944463 -0.00171579)
(-0.00117115 0.0905383 0.00080077)
(-0.00115417 0.083953 0.00370074)
(-0.0034058 0.0763993 0.00719844)
(-0.00559541 0.0664431 0.0105636)
(-0.00979874 0.0521959 0.012985)
(-0.0167333 0.034656 0.0101008)
(-0.0254971 0.00676908 -0.00340251)
(0.00425609 0.0101644 -0.00375637)
(0.0256429 0.0298151 0.00696478)
(0.00776272 0.0102152 0.00174122)
(0.0158843 0.0223699 0.00422136)
(0.00937983 0.00423755 0.00196532)
(0.00845031 0.00826926 0.000910008)
(0.00154193 -0.00141829 -0.000185126)
(0.000906666 0.00346243 -0.000924948)
(-0.00247621 -0.000602414 -0.000918094)
(-0.00399749 0.00158435 -0.000417773)
(-0.00571476 -0.000966391 -2.8768e-05)
(-0.00665395 -0.000214105 0.000707669)
(-0.00724495 -0.00150995 0.00140993)
(-0.00671812 -0.000833567 0.00222552)
(-0.00677301 -0.000925113 0.00293766)
(-0.00683695 -0.000119156 0.00348711)
(-0.00727214 0.000115289 0.00387772)
(-0.00757133 0.000642053 0.00411198)
(-0.00789158 0.000835573 0.00419513)
(-0.0080333 0.0011096 0.00420375)
(-0.00811741 0.001226 0.00415645)
(-0.0081432 0.00134276 0.00410743)
(-0.00814509 0.00139301 0.0040589)
(-0.00812606 0.00142696 0.00402275)
(-0.00809377 0.00143728 0.0039957)
(-0.00804695 0.00144147 0.00397909)
(-0.00798962 0.00144331 0.00396978)
(-0.00791934 0.00144937 0.00396689)
(-0.00783674 0.00146319 0.00396681)
(-0.00775332 0.00148828 0.00396868)
(-0.00769209 0.00153293 0.00397122)
(-0.00765795 0.00159187 0.00397127)
(-0.0076468 0.00171901 0.00396572)
(-0.00764918 0.00181804 0.00394918)
(-0.00758361 0.00205407 0.00391707)
(-0.00750312 0.00212442 0.00387238)
(-0.00730349 0.00246492 0.00381375)
(-0.00716944 0.00239407 0.00373246)
(-0.00692961 0.00279319 0.00360707)
(-0.00679496 0.00234481 0.00344156)
(-0.00638805 0.00271796 0.00324793)
(-0.00603474 0.0016996 0.00307324)
(-0.00526482 0.00204708 0.00305009)
(-0.00495402 0.000394087 0.00330349)
(-0.00495649 0.00113043 0.00329494)
(-0.00422415 -0.000941696 0.00246429)
(-0.00165001 -0.000653383 0.00226498)
(-0.00031835 -0.00455069 0.0013585)
(-0.00200967 0.00296721 0.00327309)
(-0.00895915 0.0116368 0.0122718)
(-0.0242207 0.0244332 0.0246671)
(-0.0306946 0.0331044 0.0325442)
(-0.0293287 0.0561301 0.0343858)
(-0.0180007 0.0639955 0.0326264)
(-0.00363997 0.108897 0.0416204)
(0.0279405 0.0722015 0.0434795)
(0.0720024 0.172133 0.0636915)
(0.0892793 -0.0237525 0.0682301)
(0.15625 0.40863 0.0257829)
(-0.00975276 -0.319094 0.0257802)
(-0.114866 -0.108583 0.0605523)
(-0.0642707 0.146119 -0.0116209)
(-0.0608028 0.0724871 0.00287809)
(-0.0316577 0.129823 -0.000587798)
(-0.0248631 0.097429 0.0106985)
(-0.00900164 0.101433 0.0081716)
(-0.00443636 0.0884925 0.00798904)
(0.000551035 0.0875849 0.00655693)
(0.00352899 0.0829656 0.00552525)