/*--------------------------------*- C++ -*----------------------------------*\
| =========                 |                                                 |
| \\      /  F ield         | OpenFOAM: The Open Source CFD Toolbox           |
|  \\    /   O peration     | Version:  2.3.0                                 |
|   \\  /    A nd           | Web:      www.OpenFOAM.org                      |
|    \\/     M anipulation  |                                                 |
\*---------------------------------------------------------------------------*/
FoamFile
{
    version     2.0;
    format      ascii;
    class       volVectorField;
    location    "37";
    object      Ur;
}
// * * * * * * * * * * * * * * * * * * * * * * * * * * * * * * * * * * * * * //

dimensions      [0 1 -1 0 0 0 0];

internalField   nonuniform List<vector> 
6144
(
(-2.97565e-07 0.000331124 -5.5901e-09)
(-3.84765e-07 0.000355174 -8.77638e-08)
(-2.27073e-07 0.000380379 -8.47263e-08)
(-1.76016e-07 0.000400477 -7.83441e-08)
(-1.30095e-07 0.000422649 -6.30367e-08)
(-8.69865e-08 0.000450374 -5.3154e-08)
(-7.0053e-08 0.000486464 -4.99354e-08)
(-6.8398e-08 0.000526518 -3.6044e-08)
(-6.92293e-08 0.000553261 -1.99531e-08)
(-6.755e-08 0.000561323 -2.80405e-08)
(-6.84742e-08 0.000562162 -2.90386e-08)
(-6.95782e-08 0.000562522 -2.91494e-09)
(-7.05801e-08 0.000562832 6.86851e-09)
(-6.54871e-08 0.000563061 1.32469e-08)
(-5.52473e-08 0.000563228 8.92617e-09)
(-4.68377e-08 0.00056336 -5.59219e-10)
(-3.47595e-08 0.000563472 -1.01405e-08)
(-2.58651e-08 0.000563586 -1.93692e-08)
(-1.63822e-08 0.000563689 -2.75824e-08)
(-9.43064e-09 0.000563783 -3.49056e-08)
(-1.8084e-09 0.000563869 -4.22412e-08)
(4.77842e-09 0.000563949 -4.65771e-08)
(1.17662e-08 0.000564024 -4.87134e-08)
(1.84254e-08 0.000564093 -4.96159e-08)
(2.54741e-08 0.000564155 -4.90811e-08)
(3.22327e-08 0.000564209 -4.89581e-08)
(3.94536e-08 0.000564262 -4.87211e-08)
(4.65023e-08 0.000564323 -4.86138e-08)
(5.40813e-08 0.000564389 -4.89521e-08)
(6.09535e-08 0.000564456 -4.99026e-08)
(6.83683e-08 0.000564528 -5.14645e-08)
(7.58625e-08 0.000564607 -5.32681e-08)
(8.39724e-08 0.000564693 -5.48516e-08)
(9.18089e-08 0.00056479 -5.65138e-08)
(9.9845e-08 0.000564896 -5.81338e-08)
(1.07513e-07 0.000565015 -5.96249e-08)
(1.14792e-07 0.000565144 -6.06942e-08)
(1.21218e-07 0.000565282 -6.25375e-08)
(1.26621e-07 0.000565427 -6.1516e-08)
(1.29284e-07 0.000565581 -6.3807e-08)
(1.32175e-07 0.000565763 -6.09029e-08)
(1.26591e-07 0.000565959 -5.60219e-08)
(1.23849e-07 0.000566213 -5.75585e-08)
(1.11504e-07 0.000566459 -5.36857e-08)
(9.19304e-08 0.000566855 -5.38049e-08)
(7.0267e-08 0.000567113 -5.79591e-08)
(2.16814e-08 0.000567771 -5.00018e-08)
(-3.35308e-08 0.000568525 -8.51071e-08)
(-2.1344e-07 0.00058041 -4.49636e-08)
(-2.01375e-07 0.000624067 3.97226e-08)
(-1.19297e-07 0.000734031 1.64234e-08)
(7.90652e-07 0.000985117 4.27427e-07)
(2.12449e-06 0.00156803 -6.77793e-07)
(1.24493e-06 0.00234421 -1.98878e-06)
(-3.81029e-06 0.0028872 -1.68491e-05)
(-1.16451e-05 0.00305552 -2.38355e-05)
(7.8751e-05 0.00399186 1.10659e-05)
(0.000130879 0.00537155 3.1126e-06)
(0.00102698 0.016823 0.00189609)
(0.0139016 0.125512 0.0173161)
(-0.0129128 0.585173 0.011023)
(-0.0205532 0.405491 -0.00172368)
(-0.000313315 0.0210251 5.52919e-05)
(7.21788e-05 0.00693732 -2.20804e-05)
(-4.23162e-05 0.00704384 -1.39646e-05)
(-7.82135e-06 0.00737253 -2.19324e-05)
(6.55338e-06 0.00782975 -9.34692e-06)
(-6.69888e-07 0.00809478 7.51312e-06)
(-1.1613e-05 0.00801713 1.01059e-05)
(-1.31394e-05 0.00780182 4.89207e-07)
(-1.34144e-05 0.00759402 -1.35738e-06)
(-1.41133e-05 0.00743817 1.35606e-06)
(-1.51359e-05 0.00733802 6.42935e-07)
(-1.66819e-05 0.0072766 -1.70734e-06)
(-1.89084e-05 0.00722472 -3.60712e-06)
(-2.04084e-05 0.0071577 -4.99759e-06)
(-2.19555e-05 0.0070757 -6.32652e-06)
(-2.45608e-05 0.00700744 -8.08426e-06)
(-2.74155e-05 0.00697185 -1.02826e-05)
(-2.96779e-05 0.00696283 -1.26254e-05)
(-3.16154e-05 0.00696483 -1.5417e-05)
(-3.45759e-05 0.00696149 -2.27317e-05)
(-3.65318e-05 0.00695566 -2.90801e-05)
(-3.66963e-05 0.00699724 -2.92597e-05)
(-3.57621e-05 0.0072169 -2.47862e-05)
(-3.55606e-05 0.00764011 -2.40678e-05)
(-3.19964e-05 0.0079876 -2.21803e-05)
(-2.75384e-05 0.00804302 -1.86262e-05)
(-2.29654e-05 0.00791117 -1.53047e-05)
(-1.86586e-05 0.00772846 -1.14188e-05)
(-1.49202e-05 0.00754676 -7.99547e-06)
(-1.22764e-05 0.0074223 -5.26173e-06)
(-9.91059e-06 0.00738301 -3.36058e-06)
(-4.97786e-06 0.00734105 4.98585e-07)
(-2.93733e-06 0.00691305 4.5887e-07)
(-2.03016e-06 0.00618598 4.89142e-07)
(-3.45977e-07 0.000318361 1.32864e-07)
(-4.5406e-07 0.000355434 1.85584e-08)
(-4.06846e-07 0.000393526 -2.17975e-08)
(-3.30909e-07 0.000420441 -4.30721e-08)
(-2.81086e-07 0.000445595 -3.27303e-08)
(-2.10588e-07 0.00047023 -6.38449e-09)
(-2.22724e-07 0.000497998 1.6741e-08)
(-2.31016e-07 0.000530604 4.77068e-08)
(-2.64645e-07 0.000554287 5.87218e-08)
(-2.93741e-07 0.000561579 7.40722e-08)
(-3.00922e-07 0.000562026 7.85974e-08)
(-3.04764e-07 0.000562372 1.1267e-07)
(-2.89681e-07 0.000562878 1.3459e-07)
(-2.5984e-07 0.000563305 1.43579e-07)
(-2.12717e-07 0.000563541 1.34197e-07)
(-1.67025e-07 0.000563676 1.24289e-07)
(-1.18682e-07 0.000563778 1.12559e-07)
(-7.85966e-08 0.000563874 1.04535e-07)
(-4.00538e-08 0.000563963 9.59245e-08)
(-8.23185e-09 0.000564043 9.06057e-08)
(1.94025e-08 0.000564117 8.56955e-08)
(4.35514e-08 0.00056419 8.33562e-08)
(6.54356e-08 0.000564261 8.22765e-08)
(8.59068e-08 0.000564327 8.29451e-08)
(1.05684e-07 0.000564391 8.39995e-08)
(1.2468e-07 0.000564456 8.62306e-08)
(1.43593e-07 0.000564525 8.84286e-08)
(1.62527e-07 0.000564599 9.06842e-08)
(1.81437e-07 0.000564674 9.19008e-08)
(2.01071e-07 0.000564749 9.3428e-08)
(2.22522e-07 0.000564829 9.37162e-08)
(2.45755e-07 0.000564916 9.40136e-08)
(2.70415e-07 0.000565013 9.36354e-08)
(2.95701e-07 0.00056512 9.33584e-08)
(3.21274e-07 0.000565236 9.2709e-08)
(3.45221e-07 0.000565361 9.25777e-08)
(3.67873e-07 0.000565497 9.2761e-08)
(3.90606e-07 0.00056564 9.28193e-08)
(4.07498e-07 0.000565793 9.48851e-08)
(4.21589e-07 0.000565959 9.43586e-08)
(4.32256e-07 0.000566153 9.89033e-08)
(4.29654e-07 0.000566358 9.67657e-08)
(4.27653e-07 0.000566623 1.04183e-07)
(4.16195e-07 0.000566849 9.98853e-08)
(3.67172e-07 0.00056726 9.4137e-08)
(3.49865e-07 0.000567432 1.20966e-07)
(2.73222e-07 0.000568206 7.5296e-08)
(1.51248e-07 0.000569168 1.18327e-07)
(-2.40223e-08 0.000586952 1.17216e-07)
(2.00776e-08 0.000651485 2.58979e-07)
(1.61677e-07 0.000809996 1.25496e-07)
(3.31132e-06 0.00107505 4.10216e-07)
(6.61678e-06 0.00153837 -5.23079e-07)
(1.14537e-05 0.00216024 -2.33579e-06)
(-1.8837e-07 0.00268838 -1.09169e-05)
(-1.55911e-05 0.00308108 -1.38616e-05)
(4.05915e-05 0.00415392 -2.38939e-05)
(6.47383e-06 0.00640678 -0.000115075)
(-0.0013461 0.0229373 0.00189612)
(-0.0002663 0.130444 0.0145429)
(-0.0531278 0.595618 0.0031128)
(-0.0422061 0.323319 -0.00273208)
(-0.000169785 0.0208018 -4.23979e-05)
(2.75545e-06 0.00697811 -8.85711e-06)
(-5.83544e-05 0.00685421 -3.62469e-05)
(-4.82436e-06 0.00759083 -3.83605e-05)
(-3.49962e-05 0.00841244 -3.14356e-05)
(-0.000219825 0.0085408 -8.41385e-06)
(-0.000214529 0.00816757 -3.50449e-06)
(-3.81579e-05 0.00781278 -6.60584e-06)
(-3.69023e-05 0.00756788 -6.36808e-06)
(-3.33002e-05 0.00739752 -3.34561e-06)
(-3.23101e-05 0.00729559 -5.03794e-06)
(-3.44071e-05 0.00724015 -8.84446e-06)
(-3.67054e-05 0.00719978 -1.22615e-05)
(-3.70124e-05 0.00712321 -1.34857e-05)
(-3.71271e-05 0.0070079 -1.36188e-05)
(-4.25907e-05 0.00692556 -1.47895e-05)
(-4.90287e-05 0.00691144 -1.73021e-05)
(-5.33102e-05 0.00695167 -1.99884e-05)
(-5.53458e-05 0.00703547 -2.31331e-05)
(-5.60243e-05 0.00716891 -2.64036e-05)
(-5.58247e-05 0.00742871 -2.94732e-05)
(-5.52906e-05 0.00795798 -3.2717e-05)
(-5.51132e-05 0.00874871 -3.44112e-05)
(-5.24034e-05 0.00938657 -3.38601e-05)
(-4.58849e-05 0.00952744 -3.01603e-05)
(-3.79762e-05 0.009349 -2.44004e-05)
(-3.06934e-05 0.00902849 -1.98475e-05)
(-2.41726e-05 0.00861299 -1.46928e-05)
(-2.24478e-05 0.0081832 -1.22415e-05)
(-2.19629e-05 0.00776027 -9.41532e-06)
(-2.11571e-05 0.00741718 -5.27743e-06)
(-1.77889e-05 0.00720784 -2.16497e-06)
(-1.29263e-05 0.00677272 -1.28408e-07)
(-8.05912e-06 0.00609694 1.85499e-06)
(-3.11255e-07 0.000302573 2.43059e-07)
(-3.29967e-07 0.00034218 1.25419e-07)
(-5.12725e-07 0.000389635 5.35003e-08)
(-4.70201e-07 0.00042387 2.57204e-08)
(-4.64394e-07 0.000450944 5.93527e-08)
(-4.5365e-07 0.000475216 6.64892e-08)
(-5.13633e-07 0.000500411 1.17858e-07)
(-5.57206e-07 0.000528061 1.29229e-07)
(-5.91025e-07 0.000549217 1.25457e-07)
(-6.21575e-07 0.000557792 1.26797e-07)
(-6.14037e-07 0.000559691 1.25734e-07)
(-6.15337e-07 0.000561084 1.41963e-07)
(-5.85509e-07 0.000562364 1.55742e-07)
(-5.38107e-07 0.000563163 1.59113e-07)
(-4.68804e-07 0.000563563 1.5144e-07)
(-3.97952e-07 0.000563745 1.40985e-07)
(-3.26217e-07 0.000563853 1.34249e-07)
(-2.6554e-07 0.000563947 1.30424e-07)
(-2.06828e-07 0.000564034 1.29282e-07)
(-1.54585e-07 0.000564113 1.29691e-07)
(-1.0646e-07 0.000564187 1.30995e-07)
(-6.46247e-08 0.000564259 1.32607e-07)
(-2.61677e-08 0.000564326 1.34667e-07)
(8.72447e-09 0.000564391 1.36318e-07)
(4.26179e-08 0.000564454 1.3795e-07)
(7.48619e-08 0.000564517 1.38795e-07)
(1.07959e-07 0.000564584 1.39731e-07)
(1.40745e-07 0.000564654 1.3984e-07)
(1.75741e-07 0.000564727 1.40048e-07)
(2.12562e-07 0.000564802 1.39145e-07)
(2.53609e-07 0.000564884 1.38434e-07)
(2.96153e-07 0.000564972 1.37095e-07)
(3.41679e-07 0.00056507 1.36021e-07)
(3.8743e-07 0.000565177 1.34218e-07)
(4.35289e-07 0.00056529 1.32831e-07)
(4.83848e-07 0.000565409 1.32361e-07)
(5.3205e-07 0.000565535 1.3203e-07)
(5.76215e-07 0.00056566 1.28626e-07)
(6.19093e-07 0.000565808 1.29733e-07)
(6.52504e-07 0.000565966 1.25245e-07)
(6.8331e-07 0.000566159 1.27453e-07)
(7.01819e-07 0.000566363 1.16909e-07)
(7.22715e-07 0.000566633 1.24486e-07)
(6.88302e-07 0.000566811 8.99176e-08)
(7.15932e-07 0.000567212 1.34298e-07)
(6.26883e-07 0.000567341 7.52836e-08)
(6.40135e-07 0.000568128 1.10999e-07)
(3.65573e-07 0.000570071 1.51327e-07)
(3.10437e-07 0.000591143 1.90217e-07)
(1.73806e-07 0.000669403 4.14519e-07)
(1.03839e-06 0.000866723 5.98813e-07)
(4.76772e-06 0.00117934 3.23853e-07)
(6.18424e-06 0.00152859 -1.4776e-06)
(7.53508e-06 0.0019436 -4.728e-06)
(6.38459e-06 0.00263014 -3.14465e-06)
(1.99989e-05 0.00319045 -1.45612e-05)
(-3.22634e-05 0.00397618 -2.07048e-05)
(-0.000173696 0.00428244 8.1332e-05)
(-0.00256139 0.0182694 0.00133025)
(0.00225409 0.128358 0.013744)
(-0.0239946 0.574164 -0.0080849)
(-0.0128748 0.334751 -0.00582513)
(0.000118277 0.0214903 -0.000418659)
(-0.000648248 0.00684908 -0.000189026)
(-0.000206698 0.00679181 -0.000458536)
(-0.000249929 0.00753471 -0.000277666)
(-5.91332e-05 0.0297845 -0.000165033)
(0.00566322 0.361865 0.000878051)
(0.00167119 0.345438 0.000481933)
(-0.000189362 0.026003 -0.000127713)
(-0.000213982 0.00734258 -0.000131614)
(-0.000167025 0.00799601 -0.000118485)
(-0.000151078 0.00882934 -0.000138373)
(-0.000137783 0.00998552 -0.000148669)
(-0.000124255 0.0108328 -1.31962e-05)
(-0.000116057 0.0105189 -1.59588e-05)
(-0.000117356 0.00941857 -0.000160371)
(-0.000129014 0.0085399 -0.000145723)
(-0.000146093 0.00846514 -0.000162254)
(-0.00014566 0.00831369 -2.87102e-05)
(-4.33416e-05 0.00796991 -1.69674e-05)
(-4.00167e-05 0.00813852 -2.3933e-05)
(-3.5522e-05 0.00849577 -2.9759e-05)
(-3.20803e-05 0.00920568 -3.80013e-05)
(-2.90594e-05 0.00986859 -3.55016e-05)
(-2.47777e-05 0.00998054 -3.23859e-05)
(-2.32439e-05 0.00974797 -2.71834e-05)
(-2.49836e-05 0.00950062 -2.21182e-05)
(-2.86265e-05 0.00919116 -2.00052e-05)
(-3.26556e-05 0.0087865 -1.97485e-05)
(-4.04863e-05 0.00840779 -1.7027e-05)
(-4.66579e-05 0.00813918 -1.51239e-05)
(-4.53567e-05 0.00792377 -1.24127e-05)
(-3.88847e-05 0.00762347 -6.5236e-06)
(-2.7687e-05 0.00696551 -2.14015e-06)
(-1.68471e-05 0.00613802 1.93987e-07)
(-3.60868e-07 0.000288652 2.17359e-07)
(-3.75359e-07 0.000325048 2.46599e-07)
(-7.57457e-07 0.000372969 1.09426e-07)
(-7.45098e-07 0.000410734 1.13974e-07)
(-8.18404e-07 0.00044059 1.48358e-07)
(-8.41262e-07 0.000466283 1.43192e-07)
(-9.19569e-07 0.000492259 1.67951e-07)
(-9.30808e-07 0.000521067 1.67252e-07)
(-9.26565e-07 0.000544317 1.51659e-07)
(-9.05921e-07 0.000555103 1.39603e-07)
(-8.77542e-07 0.000558297 1.31587e-07)
(-8.37537e-07 0.000560405 1.45538e-07)
(-7.87511e-07 0.000562095 1.49116e-07)
(-7.21164e-07 0.000563049 1.57288e-07)
(-6.47372e-07 0.000563496 1.46173e-07)
(-5.73901e-07 0.000563691 1.38552e-07)
(-5.04632e-07 0.0005638 1.3033e-07)
(-4.42578e-07 0.000563889 1.29663e-07)
(-3.84327e-07 0.000563974 1.28902e-07)
(-3.2567e-07 0.000564053 1.31587e-07)
(-2.69649e-07 0.000564125 1.31479e-07)
(-2.15798e-07 0.000564191 1.34073e-07)
(-1.65564e-07 0.000564252 1.35001e-07)
(-1.15647e-07 0.000564309 1.37192e-07)
(-6.72399e-08 0.000564364 1.37167e-07)
(-1.72051e-08 0.00056442 1.38129e-07)
(3.2935e-08 0.000564482 1.36697e-07)
(8.62242e-08 0.000564548 1.36297e-07)
(1.40926e-07 0.00056462 1.33187e-07)
(2.00419e-07 0.000564697 1.31719e-07)
(2.6222e-07 0.000564781 1.28313e-07)
(3.2849e-07 0.000564874 1.27166e-07)
(3.95459e-07 0.000564977 1.23671e-07)
(4.66289e-07 0.000565089 1.22245e-07)
(5.37427e-07 0.00056521 1.18526e-07)
(6.12896e-07 0.000565337 1.15761e-07)
(6.86708e-07 0.000565471 1.11144e-07)
(7.58621e-07 0.000565607 1.08757e-07)
(8.30814e-07 0.000565758 1.04914e-07)
(8.9404e-07 0.000565914 1.01437e-07)
(9.60265e-07 0.000566106 1.00932e-07)
(1.01125e-06 0.000566303 8.87274e-08)
(1.07347e-06 0.00056652 8.73495e-08)
(1.0669e-06 0.000566743 8.53206e-08)
(1.12184e-06 0.000567067 8.01811e-08)
(1.00279e-06 0.000567224 9.0946e-08)
(9.42851e-07 0.000568215 6.83831e-08)
(6.86803e-07 0.000570848 1.6821e-07)
(4.94846e-07 0.000595821 1.48375e-07)
(1.99401e-07 0.000697115 4.42008e-07)
(1.5813e-06 0.000912837 6.67831e-07)
(3.76341e-06 0.00117241 2.98686e-07)
(4.72346e-06 0.00147016 -4.34772e-07)
(1.18209e-05 0.00200912 -7.10642e-07)
(5.27732e-05 0.00286914 -1.18109e-06)
(8.26979e-05 0.00334775 -2.47566e-05)
(-2.95133e-05 0.00404681 -2.87295e-06)
(-0.000274974 0.0035664 0.000110314)
(-0.00216393 0.0212238 0.000743883)
(0.0041351 0.141427 0.0135669)
(-0.0415229 0.62026 -0.0215269)
(-0.0369476 0.485543 -0.00905719)
(-0.0302809 0.510411 -8.28305e-05)
(0.00296989 0.47312 -0.00295482)
(0.00435796 0.485463 0.000893966)
(0.0113029 0.484159 0.00407861)
(0.0107911 0.492413 0.0043327)
(0.00623948 0.500695 0.00251362)
(0.00624019 0.497444 0.00209953)
(0.00552885 0.497705 0.00154539)
(0.0052983 0.497654 0.00105124)
(0.00433906 0.49883 0.00125192)
(0.00415536 0.497621 0.00125942)
(0.00379434 0.494591 0.000822234)
(0.00411023 0.495413 0.000279675)
(0.0044483 0.48732 -0.000298456)
(0.00392112 0.47796 -0.000506421)
(0.00292561 0.473651 -0.000346417)
(0.00133008 0.456424 -0.000257896)
(0.000635493 0.35757 -0.000334906)
(-0.000123917 0.0290426 -0.000128211)
(-0.000122673 0.0093013 -0.000200066)
(-0.000104268 0.0101041 -0.000224427)
(-8.31217e-05 0.0108309 -0.000249641)
(-5.27495e-05 0.0107303 -1.64103e-05)
(-2.64693e-05 0.0101336 -0.000236925)
(-1.81587e-05 0.00936564 -9.96725e-06)
(-3.0717e-05 0.00869937 -9.12973e-06)
(-5.17257e-05 0.00818089 -9.22549e-06)
(-7.31189e-05 0.00772614 -1.24314e-05)
(-9.16148e-05 0.00734589 -1.12615e-05)
(-0.000105984 0.00723414 -1.25729e-05)
(-0.00010417 0.00736643 -1.79198e-05)
(-8.74901e-05 0.00747671 -1.57858e-05)
(-6.39793e-05 0.00706432 -8.39792e-06)
(-4.03551e-05 0.00626924 -1.72083e-06)
(-4.67364e-07 0.000271611 1.84322e-07)
(-6.17111e-07 0.000304147 2.81592e-07)
(-1.15448e-06 0.000350841 1.11166e-07)
(-1.09816e-06 0.000391767 9.44791e-08)
(-1.22765e-06 0.000426468 1.2328e-07)
(-1.24299e-06 0.000456144 8.75661e-08)
(-1.29165e-06 0.000484022 1.32394e-07)
(-1.238e-06 0.00051348 1.22449e-07)
(-1.19623e-06 0.000538993 1.35447e-07)
(-1.11668e-06 0.000552978 1.17505e-07)
(-1.05232e-06 0.000557825 1.21876e-07)
(-9.73715e-07 0.00056051 1.30004e-07)
(-8.97014e-07 0.000562326 1.34266e-07)
(-8.18105e-07 0.000563252 1.41082e-07)
(-7.43853e-07 0.000563677 1.37228e-07)
(-6.80657e-07 0.000563871 1.28345e-07)
(-6.21567e-07 0.000563985 1.23325e-07)
(-5.71571e-07 0.000564082 1.19582e-07)
(-5.20941e-07 0.000564173 1.18852e-07)
(-4.6914e-07 0.000564258 1.1565e-07)
(-4.14162e-07 0.000564335 1.14882e-07)
(-3.58238e-07 0.000564408 1.1242e-07)
(-2.97061e-07 0.000564474 1.12245e-07)
(-2.3402e-07 0.000564534 1.09819e-07)
(-1.66243e-07 0.000564592 1.09426e-07)
(-9.65422e-08 0.000564649 1.06232e-07)
(-2.13985e-08 0.000564709 1.05235e-07)
(5.53849e-08 0.000564772 1.00865e-07)
(1.37282e-07 0.000564838 9.83776e-08)
(2.20714e-07 0.000564908 9.2454e-08)
(3.10193e-07 0.000564984 9.00766e-08)
(4.00806e-07 0.000565066 8.43173e-08)
(4.96584e-07 0.000565158 8.18353e-08)
(5.92565e-07 0.000565259 7.60048e-08)
(6.9384e-07 0.00056537 7.37737e-08)
(7.92603e-07 0.000565489 6.80062e-08)
(8.96124e-07 0.000565615 6.61934e-08)
(9.98357e-07 0.000565744 6.16702e-08)
(1.10215e-06 0.000565885 6.06607e-08)
(1.20177e-06 0.000566041 5.51256e-08)
(1.30341e-06 0.000566224 5.32452e-08)
(1.38718e-06 0.000566432 4.46906e-08)
(1.47003e-06 0.000566654 4.10107e-08)
(1.51755e-06 0.000566898 4.20207e-08)
(1.50486e-06 0.000567198 3.88763e-08)
(1.45001e-06 0.000567221 6.91924e-08)
(1.25118e-06 0.000568527 3.81633e-08)
(1.09063e-06 0.000573386 1.18851e-07)
(7.15564e-07 0.00060862 1.15044e-07)
(2.3973e-07 0.000734078 3.15794e-07)
(-4.18337e-07 0.000960166 2.876e-07)
(9.67756e-07 0.00116215 -4.34892e-07)
(3.34462e-06 0.00150666 2.54984e-06)
(1.04964e-05 0.00230006 8.17072e-06)
(1.80257e-05 0.00314127 4.44597e-05)
(4.95403e-05 0.00323926 -1.00284e-05)
(7.62909e-05 0.00358788 7.62945e-05)
(-0.000141911 0.00270878 0.000145416)
(-0.00171151 0.0208182 0.000311129)
(0.005869 0.16231 0.0154601)
(-0.0323028 0.608582 -0.0309629)
(-0.010159 0.479325 0.00368855)
(-0.0145154 0.505691 0.000499544)
(0.000975313 0.492143 0.00165552)
(0.0034467 0.493256 0.00303237)
(0.0070883 0.501739 0.00424172)
(0.00483611 0.497404 0.00279125)
(0.00384626 0.492695 0.00208432)
(0.00458858 0.492886 0.00190201)
(0.00397576 0.493611 0.00123735)
(0.00312559 0.495256 0.000626004)
(0.00298732 0.504131 0.00112977)
(0.00177914 0.489791 0.00126681)
(0.00268339 0.491405 0.00112065)
(0.00294196 0.479879 0.000479815)
(0.00459624 0.437471 -6.12883e-05)
(0.0022029 0.391221 -0.000103961)
(0.00239817 0.498614 0.000116464)
(0.00355467 0.495048 0.000197232)
(0.00152395 0.497907 0.00051901)
(0.000236482 0.499209 0.000604622)
(-0.000204038 0.487396 0.00079692)
(-0.00205808 0.487776 0.000826673)
(-0.00330693 0.462137 0.000265484)
(-0.00374479 0.341377 -0.000639708)
(-0.000107782 0.0300416 -0.000130363)
(-0.000175884 0.00940124 -0.000178035)
(-0.000239239 0.00836012 -0.000183954)
(-0.00032762 0.00694725 -1.97124e-05)
(-0.000470255 0.00591528 -9.61037e-06)
(-0.000116714 0.00567624 -1.2733e-05)
(-0.000138484 0.00580678 -1.09351e-05)
(-0.000140122 0.00620462 -1.376e-05)
(-0.000125279 0.00680152 -1.78719e-05)
(-0.00010254 0.00690312 -1.47006e-05)
(-7.32934e-05 0.00639016 -4.21384e-06)
(-7.21835e-07 0.000253162 3.84219e-07)
(-1.0755e-06 0.00027966 2.14132e-07)
(-1.75101e-06 0.000320486 8.94947e-08)
(-1.4655e-06 0.000361474 2.90785e-08)
(-1.57005e-06 0.000402027 5.32871e-08)
(-1.50058e-06 0.00043949 2.99964e-09)
(-1.51725e-06 0.000473465 1.30351e-08)
(-1.42685e-06 0.000505633 1.84135e-08)
(-1.36799e-06 0.000533721 3.32157e-08)
(-1.21419e-06 0.000551125 6.07156e-08)
(-1.13501e-06 0.00055752 6.6758e-08)
(-1.03724e-06 0.000560469 9.82851e-08)
(-9.52648e-07 0.000562305 9.85395e-08)
(-8.60849e-07 0.000563152 1.21925e-07)
(-7.6884e-07 0.000563526 1.18359e-07)
(-7.02426e-07 0.000563699 1.21399e-07)
(-6.53426e-07 0.000563805 1.16288e-07)
(-6.16326e-07 0.000563899 1.17839e-07)
(-5.81992e-07 0.000563994 1.15314e-07)
(-5.42552e-07 0.000564091 1.14779e-07)
(-4.94434e-07 0.000564184 1.08144e-07)
(-4.34256e-07 0.00056427 1.03578e-07)
(-3.6446e-07 0.000564351 9.52558e-08)
(-2.86089e-07 0.000564425 9.07946e-08)
(-2.02197e-07 0.000564496 8.31072e-08)
(-1.10706e-07 0.000564565 7.9094e-08)
(-1.54334e-08 0.000564636 7.09572e-08)
(8.54059e-08 0.00056471 6.69807e-08)
(1.88664e-07 0.000564785 5.90059e-08)
(2.97126e-07 0.000564863 5.68003e-08)
(4.07099e-07 0.000564945 5.06992e-08)
(5.21505e-07 0.000565033 5.00216e-08)
(6.36643e-07 0.00056513 4.44373e-08)
(7.55467e-07 0.000565236 4.44193e-08)
(8.74397e-07 0.000565351 3.91115e-08)
(9.96823e-07 0.000565473 4.01252e-08)
(1.11829e-06 0.000565604 3.6546e-08)
(1.24393e-06 0.000565734 3.8392e-08)
(1.36654e-06 0.000565876 3.551e-08)
(1.48985e-06 0.000566035 3.66015e-08)
(1.60462e-06 0.000566205 3.36989e-08)
(1.70727e-06 0.000566405 3.12755e-08)
(1.78855e-06 0.000566618 2.56398e-08)
(1.85468e-06 0.000566805 3.42573e-08)
(1.83448e-06 0.000567086 3.32156e-08)
(1.85393e-06 0.000567021 7.22877e-08)
(1.7047e-06 0.000568507 6.68014e-08)
(1.72713e-06 0.000574402 1.43899e-07)
(1.36336e-06 0.000613026 2.54571e-07)
(9.38588e-07 0.000744002 5.34447e-07)
(-1.24062e-06 0.00100401 1.25272e-06)
(-1.97134e-06 0.00131175 -9.21589e-07)
(-3.3264e-07 0.00160373 -2.40522e-07)
(1.19039e-06 0.0020706 -7.14533e-06)
(-2.29903e-05 0.00295177 4.19538e-05)
(-4.36783e-05 0.00346903 4.51786e-05)
(0.000149016 0.003878 0.000125968)
(2.25634e-05 0.00256188 0.000162065)
(-0.000413294 0.0222693 0.00120983)
(0.00315409 0.19598 0.0154954)
(-0.0194829 0.599483 -0.0235549)
(-0.00276273 0.482177 0.00358977)
(-0.00621578 0.493735 0.00155633)
(-0.00114981 0.479643 0.00171299)
(0.000910861 0.478316 0.0016644)
(0.00300122 0.489358 0.00308715)
(0.00218138 0.500524 0.000970096)
(0.00347861 0.478684 0.00111342)
(0.00148793 0.339017 0.000159813)
(0.00181506 0.485141 -0.000279863)
(0.00182931 0.49717 -0.000205494)
(0.000822505 0.451555 0.00138833)
(0.000869424 0.496157 0.00142678)
(0.00174063 0.489706 0.00101982)
(0.00286268 0.492654 0.000835693)
(0.00475297 0.502977 0.000342162)
(0.00578047 0.48741 -0.000267659)
(0.00180661 0.473431 0.000586471)
(0.00486428 0.492742 0.00037977)
(0.00182885 0.500867 0.000672598)
(0.000938247 0.496684 -7.768e-06)
(0.000250729 0.496956 -0.000247107)
(-0.00160422 0.501199 2.75478e-05)
(-0.00466183 0.490023 -5.88274e-05)
(-0.00838784 0.490013 -0.00165925)
(-0.0120969 0.4846 -0.00397588)
(-0.0179088 0.480866 -0.00479906)
(-0.0225041 0.465148 -0.00439338)
(-0.026633 0.4581 -0.00436494)
(-0.028834 0.336856 -0.00302231)
(-0.00074584 0.0268447 -0.000415867)
(-0.000773203 0.00406538 -5.48509e-05)
(-0.000767742 0.00389754 -0.000104225)
(-0.000701964 0.00391489 -0.000106623)
(-0.000668536 0.00385104 -8.83873e-05)
(-0.000661812 0.00383703 -5.23179e-05)
(-1.51302e-06 0.000236608 2.68125e-07)
(-1.91896e-06 0.000256012 5.71496e-08)
(-2.5677e-06 0.000287482 1.07123e-07)
(-1.97279e-06 0.000324073 1.23045e-08)
(-1.93463e-06 0.000367595 -4.16707e-08)
(-1.6966e-06 0.000414242 -6.68442e-08)
(-1.62326e-06 0.000459204 -5.5394e-08)
(-1.49387e-06 0.00049718 -4.4705e-08)
(-1.45006e-06 0.000527933 -4.75564e-08)
(-1.2494e-06 0.000548819 1.55316e-08)
(-1.16127e-06 0.00055713 4.25576e-08)
(-1.02464e-06 0.000560522 7.73031e-08)
(-9.30124e-07 0.000562511 8.26134e-08)
(-8.42245e-07 0.000563406 9.84594e-08)
(-7.89566e-07 0.000563781 1.14742e-07)
(-7.50798e-07 0.000563952 1.34086e-07)
(-7.13664e-07 0.000564053 1.39022e-07)
(-6.78861e-07 0.00056414 1.31828e-07)
(-6.39305e-07 0.00056422 1.22427e-07)
(-5.92723e-07 0.000564295 1.09771e-07)
(-5.33967e-07 0.000564369 9.97076e-08)
(-4.65731e-07 0.000564446 8.71286e-08)
(-3.86528e-07 0.000564523 7.8898e-08)
(-2.9841e-07 0.000564597 6.83139e-08)
(-1.99776e-07 0.000564667 6.34453e-08)
(-9.63765e-08 0.000564735 5.48189e-08)
(1.32436e-08 0.000564805 5.12599e-08)
(1.24296e-07 0.000564879 4.47342e-08)
(2.38617e-07 0.000564957 4.45298e-08)
(3.5361e-07 0.000565039 4.05699e-08)
(4.7395e-07 0.000565125 4.28239e-08)
(5.95217e-07 0.000565216 3.98748e-08)
(7.20115e-07 0.000565316 4.21295e-08)
(8.43961e-07 0.000565423 3.88236e-08)
(9.70392e-07 0.000565539 4.19054e-08)
(1.09581e-06 0.000565662 4.06315e-08)
(1.22408e-06 0.000565791 4.60233e-08)
(1.34953e-06 0.000565921 4.57241e-08)
(1.47554e-06 0.000566059 5.18204e-08)
(1.59134e-06 0.000566213 5.17258e-08)
(1.70148e-06 0.000566381 5.69751e-08)
(1.79484e-06 0.000566567 5.52674e-08)
(1.8666e-06 0.000566782 5.54363e-08)
(1.93477e-06 0.000566934 5.91935e-08)
(1.91839e-06 0.000567246 5.22752e-08)
(2.00322e-06 0.000567126 6.18611e-08)
(1.9327e-06 0.00056844 3.27058e-08)
(2.03458e-06 0.000572898 6.95965e-08)
(1.88601e-06 0.000602547 1.68594e-07)
(1.67297e-06 0.00071407 3.20367e-07)
(2.7732e-07 0.000975413 1.50311e-06)
(-3.0284e-06 0.0013285 -8.34888e-07)
(-2.83332e-06 0.00170645 -8.00786e-07)
(7.58751e-06 0.0021715 -1.52575e-05)
(1.27865e-05 0.00284782 1.28008e-06)
(2.32068e-05 0.00343906 -2.8059e-05)
(0.000106205 0.00402877 3.51337e-05)
(3.6251e-05 0.00289028 0.000332026)
(0.000133678 0.0234504 0.00169368)
(0.00129552 0.239507 0.0150991)
(-0.0132294 0.598872 -0.0206021)
(-0.000312756 0.482491 0.00309305)
(-0.00193965 0.446939 0.00193526)
(0.000215145 0.49109 0.0014822)
(0.00170815 0.499513 0.00101424)
(0.00196883 0.500235 0.000934792)
(0.00226642 0.450684 4.03272e-05)
(0.000836902 0.427711 6.52369e-05)
(0.000950018 0.474581 -0.000683433)
(-0.000456156 0.443919 -0.000502828)
(-0.000668145 0.470249 -0.000698656)
(-0.00108245 0.485477 -0.000168105)
(-0.000519334 0.490435 0.000167191)
(0.000608066 0.449383 0.000495267)
(0.000991901 0.22887 0.000121261)
(0.0039503 0.410694 -0.000179711)
(0.00430292 0.434195 -0.000518442)
(0.00137631 0.204266 0.000677918)
(0.00587059 0.483653 0.00215009)
(0.0076904 0.488198 0.00135419)
(0.00332655 0.489668 0.000911312)
(0.00316524 0.493411 0.000300025)
(0.000534927 0.499986 -0.000327068)
(-0.000797359 0.482665 -0.000727353)
(-0.00516819 0.481176 -0.00225171)
(-0.00931273 0.475385 -0.00657366)
(-0.0146256 0.483846 -0.00969382)
(-0.0223593 0.478922 -0.0121126)
(-0.0298626 0.477464 -0.0129245)
(-0.041088 0.473611 -0.00964836)
(-0.0483026 0.467161 0.00026381)
(-0.0437109 0.458806 0.00558809)
(-0.0301373 0.455078 0.00978083)
(-0.0159614 0.451134 0.00649541)
(-0.00619641 0.453897 -0.0033801)
(-0.00740396 0.428816 -0.00886968)
(-2.00813e-06 0.000223008 -1.19354e-07)
(-3.21899e-06 0.000237879 -9.63041e-08)
(-3.52807e-06 0.000258344 6.29886e-08)
(-2.55564e-06 0.000287283 8.07182e-08)
(-2.25255e-06 0.000331364 -2.00846e-07)
(-1.81996e-06 0.000386117 -9.30056e-08)
(-1.63997e-06 0.000444917 -4.83329e-08)
(-1.46458e-06 0.000493122 1.09293e-08)
(-1.4409e-06 0.000525599 -5.52948e-08)
(-1.25696e-06 0.000547187 1.19578e-08)
(-1.14465e-06 0.000556661 2.54931e-08)
(-9.95901e-07 0.000560339 6.46463e-08)
(-9.36535e-07 0.000562455 9.40484e-08)
(-8.71833e-07 0.000563409 1.38311e-07)
(-8.28386e-07 0.000563808 1.69984e-07)
(-8.05053e-07 0.000564001 2.05858e-07)
(-7.90335e-07 0.000564112 2.30368e-07)
(-7.71424e-07 0.0005642 2.49113e-07)
(-7.43196e-07 0.000564292 2.57267e-07)
(-7.02206e-07 0.000564395 2.59595e-07)
(-6.49154e-07 0.000564503 2.50359e-07)
(-5.84934e-07 0.000564606 2.40848e-07)
(-5.0937e-07 0.000564704 2.28367e-07)
(-4.26015e-07 0.0005648 2.19072e-07)
(-3.34232e-07 0.000564892 2.07816e-07)
(-2.38691e-07 0.00056498 2.016e-07)
(-1.38841e-07 0.000565067 1.93483e-07)
(-3.69337e-08 0.000565154 1.90003e-07)
(6.90461e-08 0.000565239 1.84595e-07)
(1.77409e-07 0.000565328 1.84941e-07)
(2.90626e-07 0.00056542 1.82802e-07)
(4.03903e-07 0.000565519 1.84886e-07)
(5.18341e-07 0.000565623 1.82645e-07)
(6.30515e-07 0.000565735 1.8366e-07)
(7.41115e-07 0.000565857 1.79317e-07)
(8.48278e-07 0.000565986 1.79569e-07)
(9.55664e-07 0.00056612 1.76908e-07)
(1.05749e-06 0.000566257 1.80078e-07)
(1.15551e-06 0.000566402 1.79701e-07)
(1.24466e-06 0.000566553 1.82974e-07)
(1.33019e-06 0.000566727 1.82798e-07)
(1.40551e-06 0.000566902 1.86714e-07)
(1.46171e-06 0.000567125 1.90417e-07)
(1.51958e-06 0.00056725 1.93612e-07)
(1.51525e-06 0.000567582 2.03509e-07)
(1.575e-06 0.000567439 1.85623e-07)
(1.58949e-06 0.000568567 1.44017e-07)
(1.62283e-06 0.000572972 1.11032e-07)
(1.68022e-06 0.000600303 5.54504e-08)
(1.66591e-06 0.000688946 -3.58662e-08)
(1.13576e-06 0.000908298 1.16001e-06)
(-4.01292e-08 0.0012495 -2.82979e-07)
(-7.82778e-07 0.00176729 -3.83802e-07)
(1.49229e-05 0.00247558 -7.99308e-06)
(-8.3368e-07 0.00323418 5.04007e-05)
(4.99644e-05 0.0036976 -5.19825e-05)
(3.59579e-07 0.00406875 8.77733e-05)
(6.97697e-05 0.00285483 0.000301417)
(-0.000166583 0.0244148 0.00113303)
(-0.00213494 0.258481 0.014961)
(-0.00822918 0.580812 -0.0159226)
(-0.000114239 0.477542 0.00216134)
(0.00293888 0.498836 0.0043544)
(0.00294272 0.491795 0.0018477)
(0.00412201 0.484624 -0.000284907)
(0.00540372 0.485621 -1.91014e-05)
(0.00343407 0.490372 -0.000693157)
(0.00100651 0.508003 0.000223118)
(0.00171884 0.487237 -0.000315971)
(0.0016006 0.49276 -0.000585416)
(0.000217461 0.486646 -0.000602313)
(0.000635212 0.489352 -0.000975208)
(-0.000252175 0.485553 -0.00132119)
(0.000307163 0.468947 -0.00205302)
(-0.00074378 0.391298 -0.00189055)
(-0.000814196 0.303681 -0.00115206)
(0.000359193 0.358217 -0.00115033)
(0.00368649 0.35835 5.36569e-05)
(0.0100144 0.497047 0.00132102)
(0.0129513 0.492722 0.00176972)
(0.0120045 0.500742 0.00303506)
(0.00792751 0.469341 0.00172444)
(0.00208265 0.358207 -0.000208549)
(0.00280924 0.463933 0.000918152)
(-0.000457142 0.470041 0.000766777)
(-0.00141815 0.492337 -0.00316275)
(-0.00401819 0.478885 -0.00633739)
(-0.0107438 0.464153 -0.0115389)
(-0.0171221 0.442742 -0.0159346)
(-0.0225989 0.350863 -0.0172611)
(-0.000728121 0.0285588 -0.000741461)
(-0.000924884 0.00827401 -0.000582195)
(-0.000832233 0.0101843 -0.000315017)
(-0.000822714 0.0118973 -0.000320364)
(-0.000995608 0.0206938 0.000110703)
(-2.73444e-05 0.100812 0.0256974)
(-6.10707e-06 0.000108022 -2.40962e-06)
(-5.14852e-06 0.000231437 -4.89413e-07)
(-4.68392e-06 0.000237547 -1.65842e-07)
(-2.98383e-06 0.000257222 3.80978e-08)
(-2.41451e-06 0.000298002 -2.8319e-07)
(-1.73149e-06 0.000354633 -1.61055e-07)
(-1.50252e-06 0.000421468 -2.27435e-07)
(-1.34242e-06 0.000481543 -1.29377e-07)
(-1.26447e-06 0.000520946 -1.85545e-07)
(-1.13809e-06 0.000544614 -1.64194e-07)
(-1.02558e-06 0.000555041 -1.5701e-07)