/*--------------------------------*- C++ -*----------------------------------*\
| =========                 |                                                 |
| \\      /  F ield         | OpenFOAM: The Open Source CFD Toolbox           |
|  \\    /   O peration     | Version:  2.3.0                                 |
|   \\  /    A nd           | Web:      www.OpenFOAM.org                      |
|    \\/     M anipulation  |                                                 |
\*---------------------------------------------------------------------------*/
FoamFile
{
    version     2.0;
    format      ascii;
    class       volScalarField;
    location    "37";
    object      w1;
}
// * * * * * * * * * * * * * * * * * * * * * * * * * * * * * * * * * * * * * //

dimensions      [0 0 0 0 0 0 0];

internalField   nonuniform List<scalar> 
6144
(
0.518788
0.518788
0.518788
0.518788
0.518788
0.518788
0.518788
0.518788
0.518788
0.518788
0.518788
0.518788
0.518788
0.518788
0.518788
0.518788
0.518788
0.518788
0.518788
0.518788
0.518788
0.518788
0.518788
0.518788
0.518788
0.518788
0.518788
0.518788
0.518788
0.518788
0.518788
0.518788
0.518788
0.518788
0.518788
0.518788
0.518788
0.518788
0.518788
0.518788
0.518788
0.518788
0.518788
0.518788
0.518788
0.518788
0.518788
0.518788
0.518788
0.518788
0.518788
0.518788
0.518788
0.518788
0.518788
0.518788
0.518788
0.518776
0.514923
0.467559
0.856915
0.999554
0.999996
0.999403
0.998706
0.998168
0.996709
0.993452
0.997294
0.996782
0.858526
0.101735
0.985143
0.990183
0.981898
0.970939
0.989831
0.990681
0.993558
0.994483
0.995702
0.996554
0.996896
0.997604
0.998471
0.998502
0.99739
0.992254
0.615681
0.923737
0.981073
0.985322
4.13905e-05
0.989386
0.998729
0.999871
0.518788
0.518788
0.518788
0.518788
0.518788
0.518788
0.518788
0.518788
0.518788
0.518788
0.518788
0.518788
0.518788
0.518788
0.518788
0.518788
0.518788
0.518788
0.518788
0.518788
0.518788
0.518788
0.518788
0.518788
0.518788
0.518788
0.518788
0.518788
0.518788
0.518788
0.518788
0.518788
0.518788
0.518788
0.518788
0.518788
0.518788
0.518788
0.518788
0.518788
0.518788
0.518788
0.518788
0.518788
0.518788
0.518788
0.518788
0.518788
0.518788
0.518788
0.518788
0.518788
0.518788
0.518788
0.518788
0.518788
0.518784
0.5181
0.485008
0.470532
0.84861
0.999824
0.999995
0.999523
0.99935
0.99914
0.998643
0.999467
0.996881
0.994456
0.970192
0.979877
0.984357
0.990494
0.992104
0.993399
0.993395
0.992759
0.990865
0.981712
0.885902
0.972974
0.994792
0.997816
0.998113
0.993789
0.99513
0.997165
0.997771
0.998138
0.997954
0.998111
0.997001
0.99289
0.998678
0.999871
0.518788
0.518788
0.518788
0.518788
0.518788
0.518788
0.518788
0.518788
0.518788
0.518788
0.518788
0.518788
0.518788
0.518788
0.518788
0.518788
0.518788
0.518788
0.518788
0.518788
0.518788
0.518788
0.518788
0.518788
0.518788
0.518788
0.518788
0.518788
0.518788
0.518788
0.518788
0.518788
0.518788
0.518788
0.518788
0.518788
0.518788
0.518788
0.518788
0.518788
0.518788
0.518788
0.518788
0.518788
0.518788
0.518788
0.518788
0.518788
0.518788
0.518788
0.518788
0.518788
0.518788
0.518788
0.518788
0.518788
0.518786
0.518924
0.507726
0.552222
0.151045
0.999818
0.999996
0.999897
0.999793
0.999686
0.999992
0.999982
0.999986
0.999993
0.999322
0.998992
0.999324
0.999161
0.998816
0.988764
0.998502
0.998858
0.999083
0.967677
0.989678
0.992236
0.997434
0.998223
0.995783
0.993372
0.993408
0.991018
0.994824
0.995512
0.995242
0.995846
0.997047
0.997865
0.99905
0.999873
0.518788
0.518788
0.518788
0.518788
0.518788
0.518788
0.518788
0.518788
0.518788
0.518788
0.518788
0.518788
0.518788
0.518788
0.518788
0.518788
0.518788
0.518788
0.518788
0.518788
0.518788
0.518788
0.518788
0.518788
0.518788
0.518788
0.518788
0.518788
0.518788
0.518788
0.518788
0.518788
0.518788
0.518788
0.518788
0.518788
0.518788
0.518788
0.518788
0.518788
0.518788
0.518788
0.518788
0.518788
0.518788
0.518788
0.518788
0.518788
0.518788
0.518788
0.518788
0.518788
0.518788
0.518788
0.518788
0.518788
0.518788
0.518806
0.517875
0.468682
0.0271214
0.993196
0.99523
0.993424
0.948526
0.996196
0.991607
0.0164183
0.975288
0.986578
0.990641
0.992605
0.828962
0.986345
0.993964
0.999045
0.999354
0.999672
0.999926
0.999988
0.999993
0.998308
0.996759
0.996584
0.999071
0.997042
0.998005
0.997329
0.994834
0.99479
0.980725
0.994004
0.997695
0.99587
0.998295
0.999871
0.518788
0.518788
0.518788
0.518788
0.518788
0.518788
0.518788
0.518788
0.518788
0.518788
0.518788
0.518788
0.518788
0.518788
0.518788
0.518788
0.518788
0.518788
0.518788
0.518788
0.518788
0.518788
0.518788
0.518788
0.518788
0.518788
0.518788
0.518788
0.518788
0.518788
0.518788
0.518788
0.518788
0.518788
0.518788
0.518788
0.518788
0.518788
0.518788
0.518788
0.518788
0.518788
0.518788
0.518788
0.518788
0.518788
0.518788
0.518788
0.518788
0.518788
0.518788
0.518788
0.518788
0.518788
0.518788
0.518788
0.518788
0.518792
0.518816
0.479728
0.879777
0.925645
0.684327
0.916508
0.146311
0.840897
0.00182982
0.146423
0.145763
0.00188457
0.00870581
0.000349171
0.258235
0.00113505
0.979065
0.158088
0.992806
0.995895
0.976747
0.983214
0.98611
0.994615
0.999419
0.99993
0.999991
0.999992
0.999693
0.99984
0.999921
0.999938
0.993533
0.996048
0.998605
0.998721
0.995327
0.999862
0.518788
0.518788
0.518788
0.518788
0.518788
0.518788
0.518788
0.518788
0.518788
0.518788
0.518788
0.518788
0.518788
0.518788
0.518788
0.518788
0.518788
0.518788
0.518788
0.518788
0.518788
0.518788
0.518788
0.518788
0.518788
0.518788
0.518788
0.518788
0.518788
0.518788
0.518788
0.518788
0.518788
0.518788
0.518788
0.518788
0.518788
0.518788
0.518788
0.518788
0.518788
0.518788
0.518788
0.518788
0.518788
0.518788
0.518788
0.518788
0.518788
0.518788
0.518788
0.518788
0.518788
0.518788
0.518788
0.518788
0.518788
0.518788
0.518779
0.462353
0.84876
0.848114
0.579452
0.485441
0.645801
0.805489
8.33377e-05
0.0304262
0.000117632
0.980885
6.65931e-05
1.96766e-09
1.87803e-06
0.0500959
0.00865635
0.146424
0.139811
0.00313058
0.924379
0.837773
0.849922
0.938769
2.40684e-08
0.306389
0.586308
0.995885
0.999036
0.999589
0.999908
0.999978
0.999996
0.999974
0.999964
0.999949
0.999923
0.999953
0.518788
0.518788
0.518788
0.518788
0.518788
0.518788
0.518788
0.518788
0.518788
0.518788
0.518788
0.518788
0.518788
0.518788
0.518788
0.518788
0.518788
0.518788
0.518788
0.518788
0.518788
0.518788
0.518788
0.518788
0.518788
0.518788
0.518788
0.518788
0.518788
0.518788
0.518788
0.518788
0.518788
0.518788
0.518788
0.518788
0.518788
0.518788
0.518788
0.518788
0.518788
0.518788
0.518788
0.518788
0.518788
0.518788
0.518788
0.518788
0.518788
0.518788
0.518788
0.518788
0.518788
0.518788
0.518788
0.518788
0.518787
0.518829
0.519206
0.437508
0.910015
0.000314525
0.00035807
0.768619
0.0981233
0.143765
9.50794e-06
0.369439
0.808974
0.000501061
0.0950985
0.0617914
0.00956419
2.49427e-07
0.125105
0.951943
0.93259
0.380598
0.951441
0.700055
0.73473
0.573353
0.00810794
0.470683
0.743066
0.844722
0.890099
0.240604
0.973562
0.990451
0.996786
0.993865
0.965687
0.909444
0.963482
0.999889
0.518788
0.518788
0.518788
0.518788
0.518788
0.518788
0.518788
0.518788
0.518788
0.518788
0.518788
0.518788
0.518788
0.518788
0.518788
0.518788
0.518788
0.518788
0.518788
0.518788
0.518788
0.518788
0.518788
0.518788
0.518788
0.518788
0.518788
0.518788
0.518788
0.518788
0.518788
0.518788
0.518788
0.518788
0.518788
0.518788
0.518788
0.518788
0.518788
0.518788
0.518788
0.518788
0.518788
0.518788
0.518788
0.518788
0.518788
0.518788
0.518788
0.518788
0.518788
0.518788
0.518788
0.518788
0.518788
0.518788
0.518788
0.517773
0.538586
0.429735
0.895548
0.137598
0.463007
0.623063
0.000390662
0.0843507
0.323385
0.0005279
6.32749e-06
0.739097
0.663061
4.90344e-05
3.95265e-08
0.00714377
0.00026059
0.146491
0.098439
0.865454
0.000569052
1.49998e-06
0.0746828
0.000433739
0.000790894
0.853513
0.648849
0.730991
0.0672645
0.0381686
7.91467e-06
2.1093e-06
0.999996
0.0844461
0.945343
9.69844e-10
2.57452e-05
0.998887
0.518788
0.518788
0.518788
0.518788
0.518788
0.518788
0.518788
0.518788
0.518788
0.518788
0.518788
0.518788
0.518788
0.518788
0.518788
0.518788
0.518788
0.518788
0.518788
0.518788
0.518788
0.518788
0.518788
0.518788
0.518788
0.518788
0.518788
0.518788
0.518788
0.518788
0.518788
0.518788
0.518788
0.518788
0.518788
0.518788
0.518788
0.518788
0.518788
0.518788
0.518788
0.518788
0.518788
0.518788
0.518788
0.518788
0.518788
0.518788
0.518788
0.518788
0.518788
0.518788
0.518788
0.518788
0.518788
0.518788
0.518791
0.519066
0.51773
0.430018
7.15852e-06
0.137597
0.846502
0.00434354
0.0300869
0.269604
0.00130344
0.0101676
0.581141
0.0134803
0.392269
0.588022
0.824255
8.51419e-06
0.000381661
0.000181797
0.0321195
0.132444
0.146095
0.0556483
0.11034
0.00170328
0.35248
0.829426
0.325239
0.000607847
4.86767e-06
0.951207
0.631702
0.98719
0.988097
0.990608
0.989827
0.973956
0.895974
0.199881
0.518788
0.518788
0.518788
0.518788
0.518788
0.518788
0.518788
0.518788
0.518788
0.518788
0.518788
0.518788
0.518788
0.518788
0.518788
0.518788
0.518788
0.518788
0.518788
0.518788
0.518788
0.518788
0.518788
0.518788
0.518788
0.518788
0.518788
0.518788
0.518788
0.518788
0.518788
0.518788
0.518788
0.518788
0.518788
0.518788
0.518788
0.518788
0.518788
0.518788
0.518788
0.518788
0.518788
0.518788
0.518788
0.518788
0.518788
0.518788
0.518788
0.518788
0.518788
0.518788
0.518788
0.518788
0.518788
0.518788
0.518788
0.518774
0.518754
0.423644
0.917804
0.000997298
0.0650877
5.87033e-05
0.867073
0.463408
0.793913
0.771482
1.88868e-08
0.0133926
0.770177
0.792025
1.97003e-05
0.0562152
5.59152e-06
0.806125
0.0282658
0.987366
0.89455
0.792417
0.912712
0.786406
0.486795
4.63727e-06
0.575728
0.594348
0.573453
0.0930749
0.000832959
0.450709
0.882255
7.86723e-10
0.0109527
0.770719
0.666914
0.999631
0.518788
0.518788
0.518788
0.518788
0.518788
0.518788
0.518788
0.518788
0.518788
0.518788
0.518788
0.518788
0.518788
0.518788
0.518788
0.518788
0.518788
0.518788
0.518788
0.518788
0.518788
0.518788
0.518788
0.518788
0.518788
0.518788
0.518788
0.518788
0.518788
0.518788
0.518788
0.518788
0.518788
0.518788
0.518788
0.518788
0.518788
0.518788
0.518788
0.518788
0.518788
0.518788
0.518788
0.518788
0.518788
0.518788
0.518788
0.518788
0.518788
0.518788
0.518788
0.518788
0.518788
0.518788
0.518788
0.518788
0.518788
0.51882
0.517945
0.433868
0.891101
0.994289
0.98855
0.962543
0.903564
0.96049
0.93964
0.921913
0.972326
0.98255
0.968498
0.978862
0.965495
0.11938
4.91545e-05
0.734552
0.854766
0.0212755
0.677501
0.976937
0.97791
3.65964e-05
0.254344
0.959582
0.818537
0.1408
0.0103232
0.00338559
0.666349
0.687272
0.972809
0.94971
0.905304
0.814983
0.995543
0.99984
0.518788
0.518788
0.518788
0.518788
0.518788
0.518788
0.518788
0.518788
0.518788
0.518788
0.518788
0.518788
0.518788
0.518788
0.518788
0.518788
0.518788
0.518788
0.518788
0.518788
0.518788
0.518788
0.518788
0.518788
0.518788
0.518788
0.518788
0.518788
0.518788
0.518788
0.518788
0.518788
0.518788
0.518788
0.518788
0.518788
0.518788
0.518788
0.518788
0.518788
0.518788
0.518788
0.518788
0.518788
0.518788
0.518788
0.518788
0.518788
0.518788
0.518788
0.518788
0.518788
0.518788
0.518788
0.518788
0.518788
0.518788
0.518582
0.52967
0.445794
0.901573
0.998938
0.999349
0.99886
0.999346
0.999517
0.999722
0.99823
0.998313
0.997936
0.993399
0.997589
0.99413
0.995353
0.987205
0.994734
0.993257
0.97926
0.996949
0.998522
0.998959
0.995741
0.997339
0.91149
0.984943
0.920714
0.979296
0.971002
0.85337
0.989011
0.993746
0.995405
0.992602
0.99371
0.997502
0.999986
0.518788
0.518788
0.518788
0.518788
0.518788
0.518788
0.518788
0.518788
0.518788
0.518788
0.518788
0.518788
0.518788
0.518788
0.518788
0.518788
0.518788
0.518788
0.518788
0.518788
0.518788
0.518788
0.518788
0.518788
0.518788
0.518788
0.518788
0.518788
0.518788
0.518788
0.518788
0.518788
0.518788
0.518788
0.518788
0.518788
0.518788
0.518788
0.518788
0.518788
0.518788
0.518788
0.518788
0.518788
0.518788
0.518788
0.518788
0.518788
0.518788
0.518788
0.518788
0.518788
0.518788
0.518788
0.518788
0.518788
0.518787
0.518786
0.518777
0.382762
0.889234
0.999502
0.999998
0.999943
0.999901
0.999777
0.999856
0.999787
0.999653
0.999382
0.998805
0.998127
0.997691
0.998066
0.998729
0.99899
0.999193
0.999627
0.999782
0.999829
0.999897
0.999923
0.999926
0.999876
0.999185
0.997916
0.999849
0.999918
0.999937
0.999805
0.999992
0.999989
0.99997
0.99999
0.999855
0.999838
0.518788
0.518788
0.518788
0.518788
0.518788
0.518788
0.518788
0.518788
0.518788
0.518788
0.518788
0.518788
0.518788
0.518788
0.518788
0.518788
0.518788
0.518788
0.518788
0.518788
0.518788
0.518788
0.518788
0.518788
0.518788
0.518788
0.518788
0.518788
0.518788
0.518788
0.518788
0.518788
0.518788
0.518788
0.518788
0.518788
0.518788
0.518788
0.518788
0.518788
0.518788
0.518788
0.518788
0.518788
0.518788
0.518788
0.518788
0.518788
0.518788
0.518788
0.518788
0.518788
0.518788
0.518788
0.518788
0.518788
0.518787
0.518784
0.518721
0.445105
0.872934
0.999614
0.999997
0.999735
0.999491
0.998654
0.998563
0.996086
0.994596
0.995116
0.994351
0.994891
0.99637
0.996743
0.997462
0.997668
0.997364
0.997228
0.996404
0.997224
0.993687
0.996651
0.996371
0.997368
0.998929
0.99908
0.997404
0.995788
0.998598
0.998131
0.969597
0.999661
0.999819
0.998291
0.998956
0.999852
0.518788
0.518788
0.518788
0.518788
0.518788
0.518788
0.518788
0.518788
0.518788
0.518788
0.518788
0.518788
0.518788
0.518788
0.518788
0.518788
0.518788
0.518788
0.518788
0.518788
0.518788
0.518788
0.518788
0.518788
0.518788
0.518788
0.518788
0.518788
0.518788
0.518788
0.518788
0.518788
0.518788
0.518788
0.518788
0.518788
0.518788
0.518788
0.518788
0.518788
0.518788
0.518788
0.518788
0.518788
0.518788
0.518788
0.518788
0.518788
0.518788
0.518788
0.518788
0.518788
0.518788
0.518788
0.518788
0.518788
0.518787
0.518783
0.514865
0.404424
0.91998
0.999286
0.999997
0.999666
0.999376
0.998782
0.996312
0.991995
0.985738
0.952244
0.990775
0.993559
0.996528
0.99666
0.996304
0.997438
0.996552
0.997406
0.997615
0.998671
0.998544
0.986788
0.992888
0.997453
0.99904
0.99934
0.998419
0.992548
0.997511
0.997717
0.998621
0.998832
0.998494
0.998367
0.995831
0.999881
0.518788
0.518788
0.518788
0.518788
0.518788
0.518788
0.518788
0.518788
0.518788
0.518788
0.518788
0.518788
0.518788
0.518788
0.518788
0.518788
0.518788
0.518788
0.518788
0.518788
0.518788
0.518788
0.518788
0.518788
0.518788
0.518788
0.518788
0.518788
0.518788
0.518788
0.518788
0.518788
0.518788
0.518788
0.518788
0.518788
0.518788
0.518788
0.518788
0.518788
0.518788
0.518788
0.518788
0.518788
0.518788
0.518788
0.518788
0.518788
0.518788
0.518788
0.518788
0.518788
0.518788
0.518788
0.518788
0.518788
0.518787
0.518789
0.520504
0.443832
0.899473
0.999123
0.999998
0.999661
0.984908
0.998865
0.990051
0.998126
0.996933
0.993334
0.993748
0.993887
0.995244
0.995752
0.993849
0.99677
0.996762
0.998131
0.998196
0.998706
0.998376
0.985725
0.99795
0.998619
0.999087
0.999065
0.997891
0.992164
0.996878
0.994391
0.996782
0.997615
0.997712
0.99835
0.997986
0.999872
0.518788
0.518788
0.518788
0.518788
0.518788
0.518788
0.518788
0.518788
0.518788
0.518788
0.518788
0.518788
0.518788
0.518788
0.518788
0.518788
0.518788
0.518788
0.518788
0.518788
0.518788
0.518788
0.518788
0.518788
0.518788
0.518788
0.518788
0.518788
0.518788
0.518788
0.518788
0.518788
0.518788
0.518788
0.518788
0.518788
0.518788
0.518788
0.518788
0.518788
0.518788
0.518788
0.518788
0.518788
0.518788
0.518788
0.518788
0.518788
0.518788
0.518788
0.518788
0.518788
0.518788
0.518788
0.518788
0.518788
0.518787
0.517701
0.478403
0.472847
0.830683
0.998911
0.999996
0.999495
0.998525
0.990011
0.99731
0.998361
0.996972
0.997204
0.997233
0.993447
0.975206
0.987844
0.99441
0.99475
0.995162
0.994918
0.995815
0.996012
0.996265
0.995258
0.994869
0.994999
0.996674
0.997266
0.996606
0.99233
0.94117
0.970429
0.941484
0.893781
0.98066
0.995102
0.998945
0.999869
0.518788
0.518788
0.518788
0.518788
0.518788
0.518788
0.518788
0.518788
0.518788
0.518788
0.518788
0.518788
0.518788
0.518788
0.518788
0.518788
0.518788
0.518788
0.518788
0.518788
0.518788
0.518788
0.518788
0.518788
0.518788
0.518788
0.518788
0.518788
0.518788
0.518788
0.518788
0.518788
0.518788
0.518788
0.518788
0.518788
0.518788
0.518788
0.518788
0.518788
0.518788
0.518788
0.518788
0.518788
0.518788
0.518788
0.518788
0.518788
0.518788
0.518788
0.518788
0.518788
0.518788
0.518788
0.518788
0.518788
0.518787
0.518767
0.51901
0.459331
0.87508
0.999993
0.999995
0.999855
0.999816
0.999847
0.999685
0.999583
0.999669
0.999355
0.999137
0.998455
0.998881
0.999068
0.997442
0.997143
0.999055
0.999558
0.999324
0.998203
0.989079
0.989671
0.996131
0.994733
0.992467
0.974039
0.992636
0.99552
0.995976
0.995412
0.995396
0.994274
0.996249
0.99783
0.999135
0.99987
0.518788
0.518788
0.518788
0.518788
0.518788
0.518788
0.518788
0.518788
0.518788
0.518788
0.518788
0.518788
0.518788
0.518788
0.518788
0.518788
0.518788
0.518788
0.518788
0.518788
0.518788
0.518788
0.518788
0.518788
0.518788
0.518788
0.518788
0.518788
0.518788
0.518788
0.518788
0.518788
0.518788
0.518788
0.518788
0.518788
0.518788
0.518788
0.518788
0.518788
0.518788
0.518788
0.518788
0.518788
0.518788
0.518788
0.518788
0.518788
0.518788
0.518788
0.518788
0.518788
0.518788
0.518788
0.518788
0.518788
0.518788
0.518785
0.49913
0.452833
0.980911
0.999884
0.999646
0.99985
0.998556
0.99971
0.999756
0.999666
0.999452
0.999453
0.999306
0.999632
0.999951
0.999991
0.999991
0.999985
0.999989
0.999972
0.999984
0.999992
0.999289
0.998272
0.998243
0.745806
0.996211
0.998377
0.996931
0.995621
0.996927
0.997534
0.997064
0.992814
0.986498
0.995345
0.999064
0.999875
0.518788
0.518788
0.518788
0.518788
0.518788
0.518788
0.518788
0.518788
0.518788
0.518788
0.518788
0.518788
0.518788
0.518788
0.518788
0.518788
0.518788
0.518788
0.518788
0.518788
0.518788
0.518788
0.518788
0.518788
0.518788
0.518788
0.518788
0.518788
0.518788
0.518788
0.518788
0.518788
0.518788
0.518788
0.518788
0.518788
0.518788
0.518788
0.518788
0.518788
0.518788
0.518788
0.518788
0.518788
0.518788
0.518788
0.518788
0.518788
0.518788
0.518788
0.518788
0.518788
0.518788
0.518788
0.518788
0.518788
0.518787
0.518788
0.516626
0.458445
0.244465
0.983193
0.973885
0.975668
0.975233
0.918162
0.954378
0.0759395
0.825658
0.946014
0.978246
0.96958
0.815226
6.5537e-11
0.989761
0.979637
0.972806
0.969363
0.987844
0.998415
0.997668
0.999691
0.999938
0.999991
0.999981
0.998653
0.999986
0.999276
0.99878
0.998794
0.999094
0.998415
0.994554
0.997985
0.997866
0.999869
0.518788
0.518788
0.518788
0.518788
0.518788
0.518788
0.518788
0.518788
0.518788
0.518788
0.518788
0.518788
0.518788
0.518788
0.518788
0.518788
0.518788
0.518788
0.518788
0.518788
0.518788
0.518788
0.518788
0.518788
0.518788
0.518788
0.518788
0.518788
0.518788
0.518788
0.518788
0.518788
0.518788
0.518788
0.518788
0.518788
0.518788
0.518788
0.518788
0.518788
0.518788
0.518788
0.518788
0.518788
0.518788
0.518788
0.518788
0.518788
0.518788
0.518788
0.518788
0.518788
0.518788
0.518788
0.518788
0.518788
0.518788
0.51877
0.518601
0.450548
0.907206
0.367974
0.833273
0.885448
0.231799
0.776328
0.953177
0.51531
0.000595035
0.0384506
0.000873722
0.242651
0.113914
0.00293442
0.222695
0.00119368
0.388077
0.203599
0.000883325
0.0333606
0.898748
0.0151353
0.976711
0.96333
0.993215
0.999119
0.999933
0.999992
0.999994
0.999938
0.999957
0.999265
0.995681
0.998803
0.970803
0.999861
0.518788
0.518788
0.518788
0.518788
0.518788
0.518788
0.518788
0.518788
0.518788
0.518788
0.518788
0.518788
0.518788
0.518788
0.518788
0.518788
0.518788
0.518788
0.518788
0.518788
0.518788
0.518788
0.518788
0.518788
0.518788
0.518788
0.518788
0.518788
0.518788
0.518788
0.518788
0.518788
0.518788
0.518788
0.518788
0.518788
0.518788
0.518788
0.518788
0.518788
0.518788
0.518788
0.518788
0.518788
0.518788
0.518788
0.518788
0.518788
0.518788
0.518788
0.518788
0.518788
0.518788
0.518788
0.518788
0.518789
0.518795
0.518879
0.519984
0.383331
1.42822e-06
0.0552284
0.000503689
0.000665753
0.0927322
0.507273
0.439232
0.00143145
0.770671
0.46291
0.092671
0.000745534
0.269701
0.547858
0.687042
0.299892
0.655847
0.225132
5.96345e-08
0.240187
0.580592
0.524886
0.14666
0.925711
0.663287
0.92092
0.985732
0.97781
0.996271
0.999724
0.999991
0.999997
0.999967
0.999925
0.999943
0.999959
0.518788
0.518788
0.518788
0.518788
0.518788
0.518788
0.518788
0.518788
0.518788
0.518788
0.518788
0.518788
0.518788
0.518788
0.518788
0.518788
0.518788
0.518788
0.518788
0.518788
0.518788
0.518788
0.518788
0.518788
0.518788
0.518788
0.518788
0.518788
0.518788
0.518788
0.518788
0.518788
0.518788
0.518788
0.518788
0.518788
0.518788
0.518788
0.518788
0.518788
0.518788
0.518788
0.518788
0.518788
0.518788
0.518788
0.518788
0.518788
0.518788
0.518788
0.518788
0.518788
0.518788
0.518788
0.518788
0.518788
0.518787
0.518772
0.520123
0.356764
0.905137
0.367983
0.603614
0.536266
0.0330721
0.657793
0.557646
0.0483078
0.492872
0.820891
0.499873
0.550706
0.587116
0.127081
0.000158826
0.434945
0.658801
0.664889
0.349021
0.468288
0.404812
0.394729
8.19057e-05
0.63278
1.09189e-06
0.0413078
0.31305
0.0995306
0.298299
0.0892034
0.669548
0.944044
0.889647
6.70566e-06
4.46732e-06
0.969767
0.518788
0.518788
0.518788
0.518788
0.518788
0.518788
0.518788
0.518788
0.518788
0.518788
0.518788
0.518788
0.518788
0.518788
0.518788
0.518788
0.518788
0.518788
0.518788
0.518788
0.518788
0.518788
0.518788
0.518788
0.518788
0.518788
0.518788
0.518788
0.518788
0.518788
0.518788
0.518788
0.518788
0.518788
0.518788
0.518788
0.518788
0.518788
0.518788
0.518788
0.518788
0.518788
0.518788
0.518788
0.518788
0.518788
0.518788
0.518788
0.518788
0.518788
0.518788
0.518788
0.518788
0.518788
0.518788
0.518788
0.518789
0.518788
0.518273
0.344085
0.865386
0.000204553
0.240452
0.663836
0.114293
0.632593
0.685285
0.197248
0.684034
0.356203
0.578276
0.389163
0.651117
0.397775
0.548586
0.756374
0.257207
0.562929
0.558502
0.383977
0.516273
0.502085
0.284515
0.525172
0.347104
0.325154
0.669637
0.419265
5.46107e-08
0.268261
0.0022002
0.559053
0.71684
0.00160233
0.983092
0.000941139
0.518788
0.518788
0.518788
0.518788
0.518788
0.518788
0.518788
0.518788
0.518788
0.518788
0.518788
0.518788
0.518788
0.518788
0.518788
0.518788
0.518788
0.518788
0.518788
0.518788
0.518788
0.518788
0.518788
0.518788
0.518788
0.518788
0.518788
0.518788
0.518788
0.518788
0.518788
0.518788
0.518788
0.518788
0.518788
0.518788
0.518788
0.518788
0.518788
0.518788
0.518788
0.518788
0.518788
0.518788
0.518788
0.518788
0.518788
0.518788
0.518788
0.518788
0.518788
0.518788
0.518788
0.518788
0.518788
0.518788
0.518788
0.518656
0.517228
0.441401
0.679085
0.000396474
0.0411571
0.526045
0.0625258
0.691576
0.435302
0.478297
0.46897
0.453991
0.422162
0.675803
0.43108
0.68871
0.728519
0.571207
0.740792
0.299971
0.000692784
3.3513e-05
0.0633619
0.514959
0.487022
0.501361
0.365633
0.220883
0.605246
0.382756
0.668435
0.407782
0.437812
0.373772
0.51071
0.505964
0.000702382
0.0618695
0.518788
0.518788
0.518788
0.518788
0.518788
0.518788
0.518788
0.518788
0.518788
0.518788
0.518788
0.518788
0.518788
0.518788
0.518788
0.518788
0.518788
0.518788
0.518788
0.518788
0.518788
0.518788
0.518788
0.518788
0.518788
0.518788
0.518788
0.518788
0.518788
0.518788
0.518788
0.518788
0.518788
0.518788
0.518788
0.518788
0.518788
0.518788
0.518788
0.518788
0.518788
0.518788
0.518788
0.518788
0.518788
0.518788
0.518788
0.518788
0.518788
0.518788
0.518788
0.518788
0.518788
0.518788
0.518788
0.518788
0.518788
0.518835
0.519323
0.443554
0.941201
0.15671
0.109823
0.000820881
0.00232889
0.00224236
0.753435
0.121504
0.146257
0.0977063
2.19779e-05
0.000302125
0.0372747
0.00169643
0.26034
0.790112
0.710625
0.0801242
0.000927989
0.125469
0.377475
0.000133602
0.437867
0.752583
0.420734
0.556218
0.556585
0.686936
0.131718
0.165021
0.605685
0.42054
0.606825
0.724327
0.146373
0.971829
0.518788
0.518788
0.518788
0.518788
0.518788
0.518788
0.518788
0.518788
0.518788
0.518788
0.518788
0.518788
0.518788
0.518788
0.518788
0.518788
0.518788
0.518788
0.518788
0.518788
0.518788
0.518788
0.518788
0.518788
0.518788
0.518788
0.518788
0.518788
0.518788
0.518788
0.518788
0.518788
0.518788
0.518788
0.518788
0.518788
0.518788
0.518788
0.518788
0.518788
0.518788
0.518788
0.518788
0.518788
0.518788
0.518788
0.518788
0.518788
0.518788
0.518788
0.518788
0.518788
0.518788
0.518788
0.518788
0.518788
0.518787
0.518798
0.537609
0.421606
3.97583e-10
0.957052
0.000926183
0.0217408
0.0046043
9.94675e-12
0.000478799
0.798055
0.682587
0.784908
0.922027
0.700217
0.880234
0.667527
0.689514
0.734991
0.134086
5.18031e-06
0.853842
0.882088
0.855113
0.648246
0.22847
0.437299
0.445823
9.27673e-05
0.352996
0.00102959
0.386537
0.473835
0.0847978
0.203573
0.813205
0.0845083
0.000423032
0.970989
0.518788
0.518788
0.518788
0.518788
0.518788
0.518788
0.518788
0.518788
0.518788
0.518788
0.518788
0.518788
0.518788
0.518788
0.518788
0.518788
0.518788
0.518788
0.518788
0.518788
0.518788
0.518788
0.518788
0.518788
0.518788
0.518788
0.518788
0.518788
0.518788
0.518788
0.518788
0.518788
0.518788
0.518788
0.518788
0.518788
0.518788
0.518788
0.518788
0.518788
0.518788
0.518788
0.518788
0.518788
0.518788
0.518788
0.518788
0.518788
0.518788
0.518788
0.518788
0.518788
0.518788
0.518788
0.518788
0.518788
0.518788
0.518793
0.555826
0.432931
0.00128814
0.999067
0.856784
0.996194
0.998178
0.998704
0.998428
0.996107
0.995089
0.992746
0.990913
0.987692
0.977807
0.986047
0.983028
0.965094
0.989307
0.957758
0.672662
0.956073
0.923364
0.953449
0.976976
0.750605
5.15911e-06
0.00852421
0.268025
0.333754
0.890042
0.110661
0.909729
0.95642
0.00113695
2.47572e-06
0.974055
0.999978
0.518788
0.518788
0.518788
0.518788
0.518788
0.518788
0.518788
0.518788
0.518788
0.518788
0.518788
0.518788
0.518788
0.518788
0.518788
0.518788
0.518788
0.518788
0.518788
0.518788
0.518788
0.518788
0.518788
0.518788
0.518788
0.518788
0.518788
0.518788
0.518788
0.518788
0.518788
0.518788
0.518788
0.518788
0.518788
0.518788
0.518788
0.518788
0.518788
0.518788
0.518788
0.518788
0.518788
0.518788
0.518788
0.518788
0.518788
0.518788
0.518788
0.518788
0.518788
0.518788
0.518788
0.518788
0.518788
0.518788
0.518787
0.518778
0.51357
0.429891
0.849015
0.999968
0.999783
0.999996
0.999749
0.999666
0.999589
0.999551
0.999442
0.999281
0.999154
0.998877
0.998798
0.999134
0.999311
0.999341
0.999992
0.999987
0.999944
0.999342
0.99929
0.995743
0.999524
0.999701
0.999432
0.9972
0.998707
0.999612
0.997698
0.999504
0.999915
0.999964
0.997261
0.999825
0.99999
0.999992
0.518788
0.518788
0.518788
0.518788
0.518788
0.518788
0.518788
0.518788
0.518788
0.518788
0.518788
0.518788
0.518788
0.518788
0.518788
0.518788
0.518788
0.518788
0.518788
0.518788
0.518788
0.518788
0.518788
0.518788
0.518788
0.518788
0.518788
0.518788
0.518788
0.518788
0.518788
0.518788
0.518788
0.518788
0.518788
0.518788
0.518788
0.518788
0.518788
0.518788
0.518788
0.518788
0.518788
0.518788
0.518788
0.518788
0.518788
0.518788
0.518788
0.518788
0.518788
0.518788
0.518788
0.518788
0.518788
0.518788
0.518787
0.518679
0.517502
0.455957
0.255841
0.999989
0.999851
0.999613
0.999476
0.934198
0.984094
0.99602
0.992417
0.987839
0.995491
0.996679
0.996749
0.996494
0.995402
0.855348
0.97915
0.999599
0.999687
0.99957
0.999473
0.999441
0.999691
0.999864
0.99985
0.987013
0.993709
0.999462
0.994001
0.999743
0.999942
0.999961
0.999926
0.99993
0.999898
0.999861
0.518788
0.518788
0.518788
0.518788
0.518788
0.518788
0.518788
0.518788
0.518788
0.518788
0.518788
0.518788
0.518788
0.518788
0.518788
0.518788
0.518788
0.518788
0.518788
0.518788
0.518788
0.518788
0.518788
0.518788
0.518788
0.518788
0.518788
0.518788
0.518788
0.518788
0.518788
0.518788
0.518788
0.518788
0.518788
0.518788
0.518788
0.518788
0.518788
0.518788
0.518788
0.518788
0.518788
0.518788
0.518788
0.518788
0.518788
0.518788
0.518788
0.518788
0.518788
0.518788
0.518788
0.518788
0.518788
0.518788
0.518786
0.518415
0.486436
0.511329
0.275654
0.999996
0.999733
0.999843
0.999665
0.997791
0.99778
0.936073
0.995198
0.993334
0.986897
0.990397
0.997174
0.996524
0.995192
0.991541
0.960893
0.989909
0.995157
0.997988
0.996009
0.981697
0.997939
0.998873
0.999018
0.997703
0.997116
0.993712
0.998173
0.998917
0.999141
0.998436
0.996028
0.99706
0.995918
0.999866
0.518788
0.518788
0.518788
0.518788
0.518788
0.518788
0.518788
0.518788
0.518788
0.518788
0.518788
0.518788
0.518788
0.518788
0.518788
0.518788
0.518788
0.518788
0.518788
0.518788
0.518788
0.518788
0.518788
0.518788
0.518788
0.518788
0.518788
0.518788
0.518788
0.518788
0.518788
0.518788
0.518788
0.518788
0.518788
0.518788
0.518788
0.518788
0.518788
0.518788
0.518788
0.518788
0.518788
0.518788
0.518788
0.518788
0.518788
0.518788
0.518788
0.518788
0.518788
0.518788
0.518788
0.518788
0.518788
0.518788
0.518787
0.51868
0.513424
0.415399
0.885206
0.998833
0.999998
0.99975
0.998921
0.998969
0.996272
0.996736
0.967095
0.988782
0.987037
0.981309
0.980672
0.993379
0.995414
0.997271
0.997988
0.997951
0.998464
0.998585
0.993859
0.997745
0.998736
0.998813
0.999022
0.996668
0.991946
0.962541
0.998037
0.998041
0.998504
0.997242
0.991856
0.990425
0.998266
0.999864
0.518788
0.518788
0.518788
0.518788
0.518788
0.518788
0.518788
0.518788
0.518788
0.518788
0.518788
0.518788
0.518788
0.518788
0.518788
0.518788
0.518788
0.518788
0.518788
0.518788
0.518788
0.518788
0.518788
0.518788
0.518788
0.518788
0.518788
0.518788
0.518788
0.518788
0.518788
0.518788
0.518788
0.518788
0.518788
0.518788
0.518788
0.518788
0.518788
0.518788
0.518788
0.518788
0.518788
0.518788
0.518788
0.518788
0.518788
0.518788
0.518788
0.518788
0.518788
0.518788
0.518788
0.518788
0.518788
0.518788
0.518788
0.518782
0.518577
0.391892
0.856073
0.999041
0.999995
0.999055
0.998024
0.99032
0.974893
0.996481
0.932352
0.988842
0.998301
0.996127
0.997545
0.997234
0.997594
0.995138
0.996243
0.997758
0.997664
0.997427
0.997369
0.997135
0.996734
0.996456
0.995977
0.995423
0.994855
0.994691
0.994101
0.990157
0.994204
0.991514
0.995442
0.998095
0.999135
0.999869
0.518788
0.518788
0.518788
0.518788
0.518788
0.518788
0.518788
0.518788
0.518788
0.518788
0.518788
0.518788
0.518788
0.518788
0.518788
0.518788
0.518788
0.518788
0.518788
0.518788
0.518788
0.518788
0.518788
0.518788
0.518788
0.518788
0.518788
0.518788
0.518788
0.518788
0.518788
0.518788
0.518788
0.518788
0.518788
0.518788
0.518788
0.518788
0.518788
0.518788
0.518788
0.518788
0.518788
0.518788
0.518788
0.518788