/*--------------------------------*- C++ -*----------------------------------*\
| =========                 |                                                 |
| \\      /  F ield         | OpenFOAM: The Open Source CFD Toolbox           |
|  \\    /   O peration     | Version:  2.3.0                                 |
|   \\  /    A nd           | Web:      www.OpenFOAM.org                      |
|    \\/     M anipulation  |                                                 |
\*---------------------------------------------------------------------------*/
FoamFile
{
    version     2.0;
    format      ascii;
    class       volScalarField;
    location    "37";
    object      w3;
}
// * * * * * * * * * * * * * * * * * * * * * * * * * * * * * * * * * * * * * //

dimensions      [0 0 0 0 0 0 0];

internalField   nonuniform List<scalar> 
6144
(
0.0283736
0.0283736
0.0283736
0.0283736
0.0283736
0.0283736
0.0283736
0.0283736
0.0283736
0.0283736
0.0283736
0.0283736
0.0283736
0.0283736
0.0283736
0.0283736
0.0283736
0.0283736
0.0283736
0.0283736
0.0283736
0.0283736
0.0283736
0.0283736
0.0283736
0.0283736
0.0283736
0.0283736
0.0283736
0.0283736
0.0283736
0.0283736
0.0283736
0.0283736
0.0283736
0.0283736
0.0283736
0.0283736
0.0283736
0.0283736
0.0283736
0.0283736
0.0283736
0.0283736
0.0283736
0.0283736
0.0283736
0.0283736
0.0283736
0.0283736
0.0283736
0.0283736
0.0283736
0.0283736
0.0283736
0.0283735
0.0283736
0.0283754
0.0287897
0.0331769
0.00986947
3.0809e-05
3.00629e-07
4.12393e-05
8.9454e-05
0.000126447
0.000227455
0.000452113
0.000187055
0.000222956
0.0191081
0.0533512
0.00112788
0.000677934
0.00125409
0.00200836
0.000702237
0.000644696
0.000445731
0.000385936
0.000296587
0.000238119
0.000214634
0.000165517
0.000105641
0.000103453
0.000180213
0.000394989
0.0318068
0.00549538
0.00130233
0.00101431
7.44436e-06
0.00073424
8.76259e-05
8.89925e-06
0.0283736
0.0283736
0.0283736
0.0283736
0.0283736
0.0283736
0.0283736
0.0283736
0.0283736
0.0283736
0.0283736
0.0283736
0.0283736
0.0283736
0.0283736
0.0283736
0.0283736
0.0283736
0.0283736
0.0283736
0.0283736
0.0283736
0.0283736
0.0283736
0.0283736
0.0283736
0.0283736
0.0283736
0.0283736
0.0283736
0.0283736
0.0283736
0.0283736
0.0283736
0.0283736
0.0283736
0.0283736
0.0283736
0.0283736
0.0283736
0.0283736
0.0283736
0.0283736
0.0283736
0.0283736
0.0283736
0.0283736
0.0283736
0.0283736
0.0283736
0.0283736
0.0283736
0.0283736
0.0283736
0.0283736
0.0283735
0.0283741
0.0284711
0.0330362
0.0313427
0.0105921
4.82913e-06
3.18495e-07
3.29768e-05
4.4881e-05
5.94161e-05
9.37081e-05
3.67917e-05
0.000215239
0.00040835
0.00203417
0.00168894
0.00108918
0.00064502
0.000548405
0.000456006
0.000455971
0.000500882
0.000635858
0.00123021
0.00729042
0.00187644
0.000368946
0.000150618
0.000130399
0.000422368
0.000336379
0.00019573
0.000146315
0.000128632
0.000141583
0.000130378
0.000207144
0.000489204
9.14595e-05
8.90592e-06
0.0283736
0.0283736
0.0283736
0.0283736
0.0283736
0.0283736
0.0283736
0.0283736
0.0283736
0.0283736
0.0283736
0.0283736
0.0283736
0.0283736
0.0283736
0.0283736
0.0283736
0.0283736
0.0283736
0.0283736
0.0283736
0.0283736
0.0283736
0.0283736
0.0283736
0.0283736
0.0283736
0.0283736
0.0283736
0.0283736
0.0283736
0.0283736
0.0283736
0.0283736
0.0283736
0.0283736
0.0283736
0.0283736
0.0283736
0.0283736
0.0283736
0.0283736
0.0283736
0.0283736
0.0283736
0.0283736
0.0283736
0.0283736
0.0283736
0.0283736
0.0283736
0.0283736
0.0283736
0.0283736
0.0283736
0.0283735
0.0283739
0.0283485
0.0303867
0.0182051
0.0441608
9.05824e-07
2.86158e-07
7.1479e-06
1.52588e-05
2.16563e-05
5.66033e-07
1.23236e-06
9.92175e-07
4.72439e-07
4.70014e-05
6.93336e-05
4.52073e-05
5.79899e-05
8.17851e-05
0.000777042
0.000103467
7.83489e-05
6.54378e-05
0.0022643
0.000757009
0.000524885
0.00017678
0.000123268
0.000290742
0.000457539
0.000455273
0.000622235
0.000357389
0.000310095
0.000328854
0.00028669
0.000204408
0.000148263
6.5634e-05
8.7788e-06
0.0283736
0.0283736
0.0283736
0.0283736
0.0283736
0.0283736
0.0283736
0.0283736
0.0283736
0.0283736
0.0283736
0.0283736
0.0283736
0.0283736
0.0283736
0.0283736
0.0283736
0.0283736
0.0283736
0.0283736
0.0283736
0.0283736
0.0283736
0.0283736
0.0283736
0.0283736
0.0283736
0.0283736
0.0283736
0.0283736
0.0283736
0.0283736
0.0283736
0.0283736
0.0283736
0.0283736
0.0283736
0.0283736
0.0283736
0.0283736
0.0283736
0.0283736
0.0283736
0.0283736
0.0283736
0.0283736
0.0283736
0.0283736
0.0283736
0.0283736
0.0283736
0.0283736
0.0283736
0.0283736
0.0283736
0.0283735
0.0283736
0.0283696
0.0285771
0.0283072
0.0351022
0.000531048
0.000327797
0.0003592
3.94643e-07
0.000231095
0.00117994
0.000678164
0.00137609
0.00095717
0.000568092
8.24156e-05
0.0167538
0.00154798
0.000415779
6.66549e-05
4.45991e-05
2.27904e-05
5.07525e-06
8.22913e-07
4.87901e-07
0.000118289
0.000223717
0.000234672
6.45707e-05
0.000205908
0.00013778
0.000184796
0.000356821
0.000359426
0.00133602
0.000414377
0.00015911
0.000282963
0.000118351
8.87799e-06
0.0283736
0.0283736
0.0283736
0.0283736
0.0283736
0.0283736
0.0283736
0.0283736
0.0283736
0.0283736
0.0283736
0.0283736
0.0283736
0.0283736
0.0283736
0.0283736
0.0283736
0.0283736
0.0283736
0.0283736
0.0283736
0.0283736
0.0283736
0.0283736
0.0283736
0.0283736
0.0283736
0.0283736
0.0283736
0.0283736
0.0283736
0.0283736
0.0283736
0.0283736
0.0283736
0.0283736
0.0283736
0.0283736
0.0283736
0.0283736
0.0283736
0.0283736
0.0283736
0.0283736
0.0283736
0.0283736
0.0283736
0.0283736
0.0283736
0.0283736
0.0283736
0.0283736
0.0283736
0.0283736
0.0283736
0.0283735
0.0283736
0.028373
0.028368
0.0327582
0.00221793
0.0101285
0.0222674
0.00310755
0.85368
0.0112692
0.857873
0.853576
0.854037
0.879118
0.053805
0.141355
0.0439685
0.0198477
0.00141735
0.00229876
0.000352857
0.000482016
0.00124315
0.00113239
0.000594221
0.000330952
7.88957e-06
6.8311e-06
5.98733e-07
5.31969e-07
2.12142e-05
1.09942e-05
5.46695e-06
4.29946e-06
0.000447498
0.000274179
9.61718e-05
8.85809e-05
0.00032252
9.53943e-06
0.0283736
0.0283736
0.0283736
0.0283736
0.0283736
0.0283736
0.0283736
0.0283736
0.0283736
0.0283736
0.0283736
0.0283736
0.0283736
0.0283736
0.0283736
0.0283736
0.0283736
0.0283736
0.0283736
0.0283736
0.0283736
0.0283736
0.0283736
0.0283736
0.0283736
0.0283736
0.0283736
0.0283736
0.0283736
0.0283736
0.0283736
0.0283736
0.0283736
0.0283736
0.0283736
0.0283736
0.0283736
0.0283736
0.0283736
0.0283736
0.0283736
0.0283736
0.0283736
0.0283736
0.0283736
0.0283736
0.0283736
0.0283736
0.0283736
0.0283736
0.0283736
0.0283736
0.0283736
0.0283736
0.0283736
0.0283736
0.0283736
0.0283735
0.0283744
0.0331549
0.00839362
0.000171785
0.0342159
0.0277849
0.00167851
4.92738e-07
1.46878e-05
0.0241199
0.184035
5.60064e-09
0.000412955
0.870499
0.0895407
0.00077932
0.0849467
0.853575
0.806954
0.016897
6.36881e-05
0.00608176
0.00984153
0.00470005
0.0962995
0.0912899
0.0156772
0.00029906
6.66919e-05
3.54371e-05
6.36406e-06
1.50556e-06
2.81526e-07
1.76601e-06
2.45325e-06
3.41058e-06
5.34159e-06
3.25766e-06
0.0283736
0.0283736
0.0283736
0.0283736
0.0283736
0.0283736
0.0283736
0.0283736
0.0283736
0.0283736
0.0283736
0.0283736
0.0283736
0.0283736
0.0283736
0.0283736
0.0283736
0.0283736
0.0283736
0.0283736
0.0283736
0.0283736
0.0283736
0.0283736
0.0283736
0.0283736
0.0283736
0.0283736
0.0283736
0.0283736
0.0283736
0.0283736
0.0283736
0.0283736
0.0283736
0.0283736
0.0283736
0.0283736
0.0283736
0.0283736
0.0283736
0.0283736
0.0283736
0.0283736
0.0283736
0.0283736
0.0283736
0.0283736
0.0283736
0.0283736
0.0283736
0.0283736
0.0283736
0.0283736
0.0283736
0.0283736
0.0283739
0.0283611
0.0283492
0.0371075
0.00604854
5.95359e-05
0.00661254
0.012162
0.844161
0.855174
1.72462e-06
5.09088e-05
3.42248e-05
0.00838052
0.0503815
0.321544
0.0114819
1.47388e-06
0.108272
7.61269e-06
0.00616125
0.0430447
0.00311095
0.0170857
0.000630481
0.0280261
0.0016303
0.0400334
0.0164884
0.00832916
0.00993092
0.0567346
0.00133023
0.000674318
0.000221195
0.000422446
0.00120571
0.00566574
0.00220203
7.69578e-06
0.0283736
0.0283736
0.0283736
0.0283736
0.0283736
0.0283736
0.0283736
0.0283736
0.0283736
0.0283736
0.0283736
0.0283736
0.0283736
0.0283736
0.0283736
0.0283736
0.0283736
0.0283736
0.0283736
0.0283736
0.0283736
0.0283736
0.0283736
0.0283736
0.0283736
0.0283736
0.0283736
0.0283736
0.0283736
0.0283736
0.0283736
0.0283736
0.0283736
0.0283736
0.0283736
0.0283736
0.0283736
0.0283736
0.0283736
0.0283736
0.0283736
0.0283736
0.0283736
0.0283736
0.0283736
0.0283736
0.0283736
0.0283736
0.0283736
0.0283736
0.0283736
0.0283736
0.0283736
0.0283736
0.0283736
0.0283736
0.0283736
0.028518
0.0255094
0.0382856
0.00743423
0.85219
0.0315192
8.9389e-05
7.44268e-05
0.124184
0.0500274
0.00564272
3.8173e-05
0.000269079
0.00801686
0.112785
0.952261
0.0938131
0.00205317
0.853355
4.08441e-05
0.000840334
0.0642582
8.79552e-06
0.746569
0.209981
0.00913929
0.0102339
0.0249622
2.27007e-06
0.59646
0.116958
0.0141678
7.00141e-06
2.86078e-07
0.0672528
0.00352277
0.69595
0.00208497
7.685e-05
0.0283736
0.0283736
0.0283736
0.0283736
0.0283736
0.0283736
0.0283736
0.0283736
0.0283736
0.0283736
0.0283736
0.0283736
0.0283736
0.0283736
0.0283736
0.0283736
0.0283736
0.0283736
0.0283736
0.0283736
0.0283736
0.0283736
0.0283736
0.0283736
0.0283736
0.0283736
0.0283736
0.0283736
0.0283736
0.0283736
0.0283736
0.0283736
0.0283736
0.0283736
0.0283736
0.0283736
0.0283736
0.0283736
0.0283736
0.0283736
0.0283736
0.0283736
0.0283736
0.0283736
0.0283736
0.0283736
0.0283736
0.0283736
0.0283736
0.0283736
0.0283736
0.0283736
0.0283736
0.0283736
0.0283736
0.0283736
0.0283733
0.0283344
0.0287534
0.0388732
0.0640958
0.8462
0.0505829
0.8963
0.00894557
0.0468071
0.0439276
0.00413479
0.0367678
0.0789896
0.00253638
0.170189
1.93156e-05
4.48029e-05
0.132537
0.00233137
2.90267e-11
9.89241e-05
0.8539
0.876885
0.622899
0.0162577
0.0638876
0.00471582
0.0616042
0.0894933
2.90311e-05
0.000277215
0.0346665
0.000359308
0.00102399
0.00066767
0.000581698
0.000986334
0.0124374
0.000736094
0.0283736
0.0283736
0.0283736
0.0283736
0.0283736
0.0283736
0.0283736
0.0283736
0.0283736
0.0283736
0.0283736
0.0283736
0.0283736
0.0283736
0.0283736
0.0283736
0.0283736
0.0283736
0.0283736
0.0283736
0.0283736
0.0283736
0.0283736
0.0283736
0.0283736
0.0283736
0.0283736
0.0283736
0.0283736
0.0283736
0.0283736
0.0283736
0.0283736
0.0283736
0.0283736
0.0283736
0.0283736
0.0283736
0.0283736
0.0283736
0.0283736
0.0283736
0.0283736
0.0283736
0.0283736
0.0283736
0.0283736
0.0283736
0.0283736
0.0283736
0.0283736
0.0283736
0.0283736
0.0283736
0.0283736
0.0283735
0.0283735
0.0283763
0.028376
0.0404882
0.000555212
0.0194599
0.0348367
0.062659
3.30784e-05
0.0324208
0.00161866
0.0106767
0.172135
0.114977
0.0107435
0.0165636
0.0951864
0.560897
0.102327
0.000668854
0.0354575
4.16689e-09
0.00726508
2.40403e-05
1.28302e-07
0.0128145
0.0343245
2.70233e-05
0.0153619
0.0191729
0.00506443
0.106819
0.0145935
0.0343362
8.0796e-05
0.341931
0.0362579
0.00225581
0.0179586
6.15696e-06
0.0283736
0.0283736
0.0283736
0.0283736
0.0283736
0.0283736
0.0283736
0.0283736
0.0283736
0.0283736
0.0283736
0.0283736
0.0283736
0.0283736
0.0283736
0.0283736
0.0283736
0.0283736
0.0283736
0.0283736
0.0283736
0.0283736
0.0283736
0.0283736
0.0283736
0.0283736
0.0283736
0.0283736
0.0283736
0.0283736
0.0283736
0.0283736
0.0283736
0.0283736
0.0283736
0.0283736
0.0283736
0.0283736
0.0283736
0.0283736
0.0283736
0.0283736
0.0283736
0.0283736
0.0283736
0.0283736
0.0283736
0.0283736
0.0283736
0.0283736
0.0283736
0.0283736
0.0283736
0.0283736
0.0283736
0.0283735
0.0283736
0.0283702
0.0284575
0.03706
0.00738891
0.000176566
0.00108845
1.268e-05
0.00565192
0.00272845
0.00136506
0.00821722
0.00181827
0.00159672
0.0021767
0.00114352
0.00283961
0.0164574
0.124315
0.00641449
4.33837e-05
0.108779
0.0172924
0.00185929
0.00178287
0.120846
0.0119103
0.000349768
3.53473e-05
0.856168
0.00270598
0.0718273
0.00552351
0.0374177
0.000233279
0.0036939
0.00243159
4.72732e-07
0.000784875
1.10226e-05
0.0283736
0.0283736
0.0283736
0.0283736
0.0283736
0.0283736
0.0283736
0.0283736
0.0283736
0.0283736
0.0283736
0.0283736
0.0283736
0.0283736
0.0283736
0.0283736
0.0283736
0.0283736
0.0283736
0.0283736
0.0283736
0.0283736
0.0283736
0.0283736
0.0283736
0.0283736
0.0283736
0.0283736
0.0283736
0.0283736
0.0283736
0.0283736
0.0283736
0.0283736
0.0283736
0.0283736
0.0283736
0.0283736
0.0283736
0.0283736
0.0283736
0.0283736
0.0283736
0.0283736
0.0283736
0.0283736
0.0283736
0.0283736
0.0283736
0.0283736
0.0283736
0.0283736
0.0283736
0.0283736
0.0283736
0.0283736
0.0283736
0.0284129
0.0262475
0.0356729
0.00707091
3.83967e-06
4.4568e-05
7.76345e-05
4.50565e-05
3.29336e-05
1.94008e-05
0.000110169
0.000116735
0.000142174
0.000448252
0.000170503
0.000418526
0.000328892
0.00139996
0.000362729
0.000467406
0.000603262
0.000241869
0.000102088
7.71951e-05
0.000251887
0.000117829
0.00950647
0.00103662
1.48585e-05
0.00134484
0.00216993
0.00786781
0.000210354
0.000443622
0.000320685
0.000537638
0.000427954
0.000175727
9.35353e-07
0.0283736
0.0283736
0.0283736
0.0283736
0.0283736
0.0283736
0.0283736
0.0283736
0.0283736
0.0283736
0.0283736
0.0283736
0.0283736
0.0283736
0.0283736
0.0283736
0.0283736
0.0283736
0.0283736
0.0283736
0.0283736
0.0283736
0.0283736
0.0283736
0.0283736
0.0283736
0.0283736
0.0283736
0.0283736
0.0283736
0.0283736
0.0283736
0.0283736
0.0283736
0.0283736
0.0283736
0.0283736
0.0283736
0.0283736
0.0283736
0.0283736
0.0283736
0.0283736
0.0283736
0.0283736
0.0283736
0.0283736
0.0283736
0.0283736
0.0283736
0.0283736
0.0283736
0.0283736
0.0283736
0.0283736
0.0283736
0.0283736
0.0283737
0.0283735
0.0472563
6.13877e-06
3.44249e-05
1.64642e-07
3.95877e-06
6.83036e-06
1.53691e-05
9.94393e-06
1.46901e-05
2.40321e-05
4.25213e-05
8.25673e-05
0.000129204
0.000159454
0.000133472
8.80426e-05
6.97723e-05
5.56601e-05
2.58518e-05
1.50354e-05
1.18238e-05
7.09897e-06
5.37665e-06
5.09182e-06
9.19756e-06
5.39959e-05
0.000151671
1.04258e-05
5.69418e-06
1.8128e-06
1.33827e-05
5.32003e-07
7.66777e-07
2.08621e-06
6.86764e-07
9.92565e-06
1.11822e-05
0.0283736
0.0283736
0.0283736
0.0283736
0.0283736
0.0283736
0.0283736
0.0283736
0.0283736
0.0283736
0.0283736
0.0283736
0.0283736
0.0283736
0.0283736
0.0283736
0.0283736
0.0283736
0.0283736
0.0283736
0.0283736
0.0283736
0.0283736
0.0283736
0.0283736
0.0283736
0.0283736
0.0283736
0.0283736
0.0283736
0.0283736
0.0283736
0.0283736
0.0283736
0.0283736
0.0283736
0.0283736
0.0283736
0.0283736
0.0283736
0.0283736
0.0283736
0.0283736
0.0283736
0.0283736
0.0283736
0.0283736
0.0283736
0.0283736
0.0283736
0.0283736
0.0283736
0.0283736
0.0283736
0.0283736
0.0283736
0.0283736
0.028374
0.0283795
0.035264
0.00840732
2.66644e-05
1.76559e-07
1.82856e-05
3.51277e-05
9.37687e-05
9.95392e-05
0.000269032
0.000372661
0.000338772
0.000391886
0.000352886
0.00025157
0.000225187
0.000175275
0.00015589
0.000182068
0.000191218
0.000248389
0.000191864
0.000429373
0.000235907
0.000250876
0.000181311
7.39762e-05
6.35919e-05
0.000179352
0.000291499
9.68183e-05
0.00012918
0.00217555
2.2607e-05
1.24657e-05
0.000118239
7.20129e-05
1.0214e-05
0.0283736
0.0283736
0.0283736
0.0283736
0.0283736
0.0283736
0.0283736
0.0283736
0.0283736
0.0283736
0.0283736
0.0283736
0.0283736
0.0283736
0.0283736
0.0283736
0.0283736
0.0283736
0.0283736
0.0283736
0.0283736
0.0283736
0.0283736
0.0283736
0.0283736
0.0283736
0.0283736
0.0283736
0.0283736
0.0283736
0.0283736
0.0283736
0.0283736
0.0283736
0.0283736
0.0283736
0.0283736
0.0283736
0.0283736
0.0283736
0.0283736
0.0283736
0.0283736
0.0283736
0.0283736
0.0283736
0.0283736
0.0283736
0.0283736
0.0283736
0.0283736
0.0283736
0.0283736
0.0283736
0.0283736
0.0283735
0.0283737
0.028374
0.028709
0.0374831
0.0216447
2.4005e-05
1.73625e-07
2.30957e-05
4.32346e-05
8.50954e-05
0.000251808
0.000577218
0.000900364
0.00367068
0.000592198
0.00044141
0.000239807
0.000230714
0.000255358
0.00017693
0.000238353
0.000179105
0.000165015
9.17229e-05
0.000100324
0.000890399
0.000497045
0.000176639
6.63156e-05
4.55639e-05
0.000109127
0.000515031
0.000171901
0.000157642
9.52434e-05
8.06622e-05
0.000104001
0.000112769
0.000288443
8.23073e-06
0.0283736
0.0283736
0.0283736
0.0283736
0.0283736
0.0283736
0.0283736
0.0283736
0.0283736
0.0283736
0.0283736
0.0283736
0.0283736
0.0283736
0.0283736
0.0283736
0.0283736
0.0283736
0.0283736
0.0283736
0.0283736
0.0283736
0.0283736
0.0283736
0.0283736
0.0283736
0.0283736
0.0283736
0.0283736
0.0283736
0.0283736
0.0283736
0.0283736
0.0283736
0.0283736
0.0283736
0.0283736
0.0283736
0.0283736
0.0283736
0.0283736
0.0283736
0.0283736
0.0283736
0.0283736
0.0283736
0.0283736
0.0283736
0.0283736
0.0283736
0.0283736
0.0283736
0.0283736
0.0283736
0.0283736
0.0283735
0.0283737
0.0283737
0.0279619
0.0356371
0.0069919
6.64168e-05
1.67518e-07
2.37785e-05
0.00104974
7.62309e-05
0.000687161
0.000129556
0.000210281
0.000463658
0.000431819
0.000423718
0.000329463
0.000294403
0.00042335
0.000223059
0.00022357
0.000129153
0.000124582
8.94092e-05
0.000109746
0.000994816
0.000143125
9.53921e-05
6.3072e-05
6.45328e-05
0.000146522
0.000540429
0.000214644
0.000387403
0.000222214
0.000164789
0.00015806
0.00011406
0.00013885
8.84353e-06
0.0283736
0.0283736
0.0283736
0.0283736
0.0283736
0.0283736
0.0283736
0.0283736
0.0283736
0.0283736
0.0283736
0.0283736
0.0283736
0.0283736
0.0283736
0.0283736
0.0283736
0.0283736
0.0283736
0.0283736
0.0283736
0.0283736
0.0283736
0.0283736
0.0283736
0.0283736
0.0283736
0.0283736
0.0283736
0.0283736
0.0283736
0.0283736
0.0283736
0.0283736
0.0283736
0.0283736
0.0283736
0.0283736
0.0283736
0.0283736
0.0283736
0.0283736
0.0283736
0.0283736
0.0283736
0.0283736
0.0283736
0.0283736
0.0283736
0.0283736
0.0283736
0.0283736
0.0283736
0.0283736
0.0283736
0.0283735
0.0283736
0.0285392
0.0353352
0.0296355
0.0121911
7.52012e-05
2.9686e-07
3.48217e-05
0.000101069
0.000696263
0.000185625
0.000113344
0.000214945
0.000193863
0.000191512
0.000450445
0.00170193
0.000839444
0.000384504
0.000361013
0.0003341
0.000350748
0.000289401
0.000273814
0.000258007
0.00032785
0.000352931
0.000346327
0.000230558
0.000190034
0.00023349
0.000531339
0.00432345
0.00199651
0.00410529
0.0072385
0.0013436
0.000336842
7.28206e-05
9.06925e-06
0.0283736
0.0283736
0.0283736
0.0283736
0.0283736
0.0283736
0.0283736
0.0283736
0.0283736
0.0283736
0.0283736
0.0283736
0.0283736
0.0283736
0.0283736
0.0283736
0.0283736
0.0283736
0.0283736
0.0283736
0.0283736
0.0283736
0.0283736
0.0283736
0.0283736
0.0283736
0.0283736
0.0283736
0.0283736
0.0283736
0.0283736
0.0283736
0.0283736
0.0283736
0.0283736
0.0283736
0.0283736
0.0283736
0.0283736
0.0283736
0.0283736
0.0283736
0.0283736
0.0283736
0.0283736
0.0283736
0.0283736
0.0283736
0.0283736
0.0283736
0.0283736
0.0283736
0.0283736
0.0283736
0.0283736
0.0283736
0.0283737
0.0283769
0.0283442
0.0340399
0.00814969
4.84121e-07
3.25721e-07
1.00187e-05
1.2708e-05
1.05483e-05
2.17658e-05
2.87512e-05
2.278e-05
4.45782e-05
5.96558e-05
0.000106731
7.73358e-05
6.43729e-05
0.000176681
0.000197315
6.54166e-05
3.05627e-05
4.66684e-05
0.00012522
0.000715914
0.000714871
0.000266803
0.000513948
0.000524012
0.00178933
0.000508538
0.000309342
0.000272234
0.000316857
0.000318269
0.000396755
0.000259262
0.000149906
5.97783e-05
8.97858e-06
0.0283736
0.0283736
0.0283736
0.0283736
0.0283736
0.0283736
0.0283736
0.0283736
0.0283736
0.0283736
0.0283736
0.0283736
0.0283736
0.0283736
0.0283736
0.0283736
0.0283736
0.0283736
0.0283736
0.0283736
0.0283736
0.0283736
0.0283736
0.0283736
0.0283736
0.0283736
0.0283736
0.0283736
0.0283736
0.0283736
0.0283736
0.0283736
0.0283736
0.0283736
0.0283736
0.0283736
0.0283736
0.0283736
0.0283736
0.0283736
0.0283736
0.0283736
0.0283736
0.0283736
0.0283736
0.0283736
0.0283736
0.0283736
0.0283736
0.0283736
0.0283736
0.0283736
0.0283736
0.0283736
0.0283736
0.0283736
0.0283736
0.0283738
0.0304759
0.0345214
0.00131684
7.97374e-06
2.44028e-05
1.01367e-05
0.000103515
1.99145e-05
1.68537e-05
1.91203e-05
3.91229e-05
3.80437e-05
4.83147e-05
2.51301e-05
3.37892e-06
7.19292e-07
5.92841e-07
1.04875e-06
7.48541e-07
1.97614e-06
1.0474e-06
5.41156e-07
4.93429e-05
0.000119202
0.000119811
0.017771
0.000260251
0.000111978
0.000212175
0.000301573
0.000212274
0.000170279
0.000202917
0.000497639
0.00092253
0.000321594
6.47625e-05
8.60673e-06
0.0283736
0.0283736
0.0283736
0.0283736
0.0283736
0.0283736
0.0283736
0.0283736
0.0283736
0.0283736
0.0283736
0.0283736
0.0283736
0.0283736
0.0283736
0.0283736
0.0283736
0.0283736
0.0283736
0.0283736
0.0283736
0.0283736
0.0283736
0.0283736
0.0283736
0.0283736
0.0283736
0.0283736
0.0283736
0.0283736
0.0283736
0.0283736
0.0283736
0.0283736
0.0283736
0.0283736
0.0283736
0.0283736
0.0283736
0.0283736
0.0283736
0.0283736
0.0283736
0.0283736
0.0283736
0.0283736
0.0283736
0.0283736
0.0283736
0.0283736
0.0283736
0.0283736
0.0283736
0.0283736
0.0283736
0.0283736
0.0283736
0.0283736
0.0296517
0.0325531
0.00313701
0.000466805
0.0025052
0.00215015
0.00136975
0.0053065
0.000535013
0.157074
0.0119807
0.00488792
0.00119855
0.00266512
0.0144543
0.0820116
0.000949961
0.00110713
0.000340825
0.00313741
3.1769e-07
1.97487e-09
0.000161317
1.67947e-05
4.25105e-06
5.95522e-07
1.3499e-06
9.32999e-05
9.47439e-07
5.01405e-05
8.41533e-05
8.34375e-05
6.20318e-05
0.000110579
0.000376332
0.000138152
0.000149645
9.03504e-06
0.0283736
0.0283736
0.0283736
0.0283736
0.0283736
0.0283736
0.0283736
0.0283736
0.0283736
0.0283736
0.0283736
0.0283736
0.0283736
0.0283736
0.0283736
0.0283736
0.0283736
0.0283736
0.0283736
0.0283736
0.0283736
0.0283736
0.0283736
0.0283736
0.0283736
0.0283736
0.0283736
0.0283736
0.0283736
0.0283736
0.0283736
0.0283736
0.0283736
0.0283736
0.0283736
0.0283736
0.0283736
0.0283736
0.0283736
0.0283736
0.0283736
0.0283736
0.0283736
0.0283736
0.0283736
0.0283736
0.0283736
0.0283736
0.0283736
0.0283736
0.0283736
0.0283736
0.0283736
0.0283736
0.0283736
0.0283735
0.0283734
0.0283792
0.028436
0.0346479
0.00447778
0.0452202
0.0125147
0.00888989
0.0163243
0.0118129
0.00431057
0.0490841
0.00357855
0.603299
0.370136
0.063308
0.816194
0.0169094
0.0421401
0.0364721
0.0568002
0.0754043
0.227971
0.00689889
0.00726547
0.0357048
1.11033e-06
0.00252204
0.000531918
6.13227e-05
4.64395e-06
5.79589e-07
4.14201e-07
4.30062e-06
2.98389e-06
5.05469e-05
0.000298334
8.45229e-05
0.00194256
9.58301e-06
0.0283736
0.0283736
0.0283736
0.0283736
0.0283736
0.0283736
0.0283736
0.0283736
0.0283736
0.0283736
0.0283736
0.0283736
0.0283736
0.0283736
0.0283736
0.0283736
0.0283736
0.0283736
0.0283736
0.0283736
0.0283736
0.0283736
0.0283736
0.0283736
0.0283736
0.0283736
0.0283736
0.0283736
0.0283736
0.0283736
0.0283736
0.0283736
0.0283736
0.0283736
0.0283736
0.0283736
0.0283736
0.0283736
0.0283736
0.0283736
0.0283736
0.0283736
0.0283736
0.0283736
0.0283736
0.0283736
0.0283736
0.0283736
0.0283736
0.0283736
0.0283736
0.0283736
0.0283736
0.0283736
0.0283736
0.0283735
0.0283726
0.0283596
0.0281897
0.045108
0.0477487
0.835635
0.0673321
0.0306846
0.26289
0.0255902
0.0118823
0.0885597
2.80913e-09
0.029492
0.0940018
0.0574394
0.022223
0.0132438
0.00020713
0.0607486
0.0107844
0.0601809
0.160859
0.0641852
0.0121369
0.0240927
0.85272
0.00465997
0.0122931
0.00780209
0.001207
0.000179335
0.000167358
1.96547e-05
6.37233e-07
1.78896e-07
2.12156e-06
8.49151e-06
3.97106e-06
2.82958e-06
0.0283736
0.0283736
0.0283736
0.0283736
0.0283736
0.0283736
0.0283736
0.0283736
0.0283736
0.0283736
0.0283736
0.0283736
0.0283736
0.0283736
0.0283736
0.0283736
0.0283736
0.0283736
0.0283736
0.0283736
0.0283736
0.0283736
0.0283736
0.0283736
0.0283736
0.0283736
0.0283736
0.0283736
0.0283736
0.0283736
0.0283736
0.0283736
0.0283736
0.0283736
0.0283736
0.0283736
0.0283736
0.0283736
0.0283736
0.0283736
0.0283736
0.0283736
0.0283736
0.0283736
0.0283736
0.0283736
0.0283736
0.0283736
0.0283736
0.0283736
0.0283736
0.0283736
0.0283736
0.0283736
0.0283736
0.0283736
0.0283737
0.0283758
0.0280675
0.0500762
0.00169422
1.20381e-08
0.00632212
0.0203477
0.112468
0.00871838
0.00321285
0.0974813
0.00798722
6.12389e-11
0.0232239
0.0211813
0.0126445
0.0818806
0.0972804
0.0359271
0.0123961
0.0100334
0.0516251
0.0315914
0.0413916
0.0403218
0.171795
0.0001731
6.59277e-06
0.0158469
0.0696241
0.0854606
0.0810172
0.151807
0.00847865
0.000149607
9.24454e-06
0.199618
7.31617e-07
0.00097672
0.0283736
0.0283736
0.0283736
0.0283736
0.0283736
0.0283736
0.0283736
0.0283736
0.0283736
0.0283736
0.0283736
0.0283736
0.0283736
0.0283736
0.0283736
0.0283736
0.0283736
0.0283736
0.0283736
0.0283736
0.0283736
0.0283736
0.0283736
0.0283736
0.0283736
0.0283736
0.0283736
0.0283736
0.0283736
0.0283736
0.0283736
0.0283736
0.0283736
0.0283736
0.0283736
0.0283736
0.0283736
0.0283736
0.0283736
0.0283736
0.0283736
0.0283736
0.0283736
0.0283736
0.0283736
0.0283736
0.0283736
0.0283736
0.0283736
0.0283736
0.0283736
0.0283736
0.0283736
0.0283736
0.0283736
0.0283735
0.0283735
0.0283736
0.0284466
0.053984
8.87406e-07
0.0012679
0.0377401
0.0083366
0.075393
0.00937026
0.00273056
0.0652689
0.00693699
0.0416059
0.0190017
0.0396883
0.00702336
0.0572548
0.0235696
4.84947e-07
0.0830658
0.0208224
0.0247673
0.0436515
0.0384021
0.0224618
0.0596287
0.025509
0.0457618
0.0524109
0.00252184
0.0347468
0.168435
0.0438627
0.0265699
0.00999858
0.00327029
0.00912749
0.000546356
0.000184143
0.0283736
0.0283736
0.0283736
0.0283736
0.0283736
0.0283736
0.0283736
0.0283736
0.0283736
0.0283736
0.0283736
0.0283736
0.0283736
0.0283736
0.0283736
0.0283736
0.0283736
0.0283736
0.0283736
0.0283736
0.0283736
0.0283736
0.0283736
0.0283736
0.0283736
0.0283736
0.0283736
0.0283736
0.0283736
0.0283736
0.0283736
0.0283736
0.0283736
0.0283736
0.0283736
0.0283736
0.0283736
0.0283736
0.0283736
0.0283736
0.0283736
0.0283736
0.0283736
0.0283736
0.0283736
0.0283736
0.0283736
0.0283736
0.0283736
0.0283736
0.0283736
0.0283736
0.0283736
0.0283736
0.0283736
0.0283735
0.0283735
0.0283945
0.0286197
0.0360878
0.0201242
8.19829e-05
0.0202149
0.024669
0.100036
0.000201069
0.0341574
0.0291375
0.0316912
0.0339027
0.0432693
0.00759263
0.0454296
0.00638304
0.00637845
0.0209314
0.000905643
0.0475352
0.0148792
0.102433
0.0841019
0.0248857
0.0324369
0.0299209
0.0441834
0.0659946
0.00759221
0.0444892
0.00726813
0.0433423
0.0342118
0.0459075
0.0327005
0.0310105
0.0743837
0.819724
0.0283736
0.0283736
0.0283736
0.0283736
0.0283736
0.0283736
0.0283736
0.0283736
0.0283736
0.0283736
0.0283736
0.0283736
0.0283736
0.0283736
0.0283736
0.0283736
0.0283736
0.0283736
0.0283736
0.0283736
0.0283736
0.0283736
0.0283736
0.0283736
0.0283736
0.0283736
0.0283736
0.0283736
0.0283736
0.0283736
0.0283736
0.0283736
0.0283736
0.0283736
0.0283736
0.0283736
0.0283736
0.0283736
0.0283736
0.0283736
0.0283736
0.0283736
0.0283736
0.0283736
0.0283736
0.0283736
0.0283736
0.0283736
0.0283736
0.0283736
0.0283736
0.0283736
0.0283736
0.0283736
0.0283735
0.0283736
0.0283736
0.0283691
0.0283231
0.0354289
0.000966373
0.000257043
0.0761989
0.0142192
0.859809
0.099787
0.012906
0.103694
0.853731
0.0265613
4.34175e-06
0.21817
0.0428426
0.0515497
0.0348769
4.76059e-05
0.0273474
0.091691
0.000202428
6.46936e-05
0.0426782
0.000865286
0.0354426
0.00439154
0.0373353
0.021398
0.0126265
0.0101044
0.0802603
0.0724688
0.0108525
0.0484014
0.00556143
8.8222e-06
0.0686773
0.000123627
0.0283736
0.0283736
0.0283736
0.0283736
0.0283736
0.0283736
0.0283736
0.0283736
0.0283736
0.0283736
0.0283736
0.0283736
0.0283736
0.0283736
0.0283736
0.0283736
0.0283736
0.0283736
0.0283736
0.0283736
0.0283736
0.0283736
0.0283736
0.0283736
0.0283736
0.0283736
0.0283736
0.0283736
0.0283736
0.0283736
0.0283736
0.0283736
0.0283736
0.0283736
0.0283736
0.0283736
0.0283736
0.0283736
0.0283736
0.0283736
0.0283736
0.0283736
0.0283736
0.0283736
0.0283736
0.0283736
0.0283736
0.0283736
0.0283736
0.0283736
0.0283736
0.0283736
0.0283736
0.0283736
0.0283736
0.0283736
0.0283736
0.0283724
0.0265866
0.038903
0.0194556
0.00290899
0.00746481
0.926156
0.00754578
0.0617165
7.96696e-05
0.0167762
0.00387552
0.0139241
0.0049582
0.0252124
0.000519978
0.0304906
0.00655082
0.000227245
0.829181
3.19814e-05
0.0098319
0.00336576
1.05439e-07
0.000724692
0.0502591
0.0393716
0.0491969
0.0693503
0.0170109
0.0153099
0.0564747
0.0173238
0.0880347
0.0837023
2.90088e-07
0.0752488
0.0640238
0.000376418
0.0283736
0.0283736
0.0283736
0.0283736
0.0283736
0.0283736
0.0283736
0.0283736
0.0283736
0.0283736
0.0283736
0.0283736
0.0283736
0.0283736
0.0283736
0.0283736
0.0283736
0.0283736
0.0283736
0.0283736
0.0283736
0.0283736
0.0283736
0.0283736
0.0283736
0.0283736
0.0283736
0.0283736
0.0283736
0.0283736
0.0283736
0.0283736
0.0283736
0.0283736
0.0283736
0.0283736
0.0283736
0.0283736
0.0283736
0.0283736
0.0283736
0.0283736
0.0283736
0.0283736
0.0283736
0.0283736
0.0283736
0.0283736
0.0283736
0.0283736
0.0283736
0.0283736
0.0283736
0.0283736
0.0283736
0.0283736
0.0283736
0.028373
0.0249559
0.0349827
0.0055851
0.000104991
0.00115583
0.000243175
0.00010127
9.16772e-05
0.000118932
0.000271936
0.00032734
0.000522496
0.000584044
0.000838775
0.00167673
0.000921701
0.000569012
0.00240479
0.000669742
0.00354151
0.0218215
0.0031458
0.00307382
0.00383325
0.00108369
0.0245031
0.0466508
0.130177
0.0719126
0.0629567
1.54491e-05
0.0901553
0.00367116
0.00256664
0.111553
0.00351107
0.00263828
1.68333e-06
0.0283736
0.0283736
0.0283736
0.0283736
0.0283736
0.0283736
0.0283736
0.0283736
0.0283736
0.0283736
0.0283736
0.0283736
0.0283736
0.0283736
0.0283736
0.0283736
0.0283736
0.0283736
0.0283736
0.0283736
0.0283736
0.0283736
0.0283736
0.0283736
0.0283736
0.0283736
0.0283736
0.0283736
0.0283736
0.0283736
0.0283736
0.0283736
0.0283736
0.0283736
0.0283736
0.0283736
0.0283736
0.0283736
0.0283736
0.0283736
0.0283736
0.0283736
0.0283736
0.0283736
0.0283736
0.0283736
0.0283736
0.0283736
0.0283736
0.0283736
0.0283736
0.0283736
0.0283736
0.0283736
0.0283736
0.0283736
0.0283736
0.0283748
0.0289126
0.0369087
1.62943e-05
7.38089e-08
8.53728e-06
2.76094e-07
1.73221e-05
2.32136e-05
2.83789e-05
3.10251e-05
3.86051e-05
4.98312e-05
5.83239e-05
7.76691e-05
8.25208e-05
5.95486e-05
4.73942e-05
4.19149e-05
5.7882e-07
8.65744e-07
2.2795e-06
4.72891e-05
5.39574e-05
0.000267503
3.35883e-05
2.25295e-05
4.04181e-05
0.000261592
8.6487e-05
2.27064e-05
0.000166322
3.37429e-05
5.83541e-06
2.66448e-06
0.000214925
1.19609e-05
6.64391e-07
5.24094e-07
0.0283736
0.0283736
0.0283736
0.0283736
0.0283736
0.0283736
0.0283736
0.0283736
0.0283736
0.0283736
0.0283736
0.0283736
0.0283736
0.0283736