/*--------------------------------*- C++ -*----------------------------------*\
| =========                 |                                                 |
| \\      /  F ield         | OpenFOAM: The Open Source CFD Toolbox           |
|  \\    /   O peration     | Version:  2.3.0                                 |
|   \\  /    A nd           | Web:      www.OpenFOAM.org                      |
|    \\/     M anipulation  |                                                 |
\*---------------------------------------------------------------------------*/
FoamFile
{
    version     2.0;
    format      ascii;
    class       volScalarField;
    location    "47";
    object      alpha.air;
}
// * * * * * * * * * * * * * * * * * * * * * * * * * * * * * * * * * * * * * //

dimensions      [0 0 0 0 0 0 0];

internalField   nonuniform List<scalar> 
6144
(
0.999996
0.999995
0.999995
0.999994
0.999994
0.999993
0.999992
0.999991
0.99999
0.99999
0.99999
0.99999
0.99999
0.99999
0.99999
0.99999
0.99999
0.99999
0.99999
0.99999
0.99999
0.99999
0.99999
0.99999
0.99999
0.99999
0.99999
0.99999
0.99999
0.99999
0.99999
0.99999
0.99999
0.99999
0.99999
0.99999
0.99999
0.99999
0.99999
0.99999
0.99999
0.99999
0.99999
0.99999
0.999988
0.999982
0.999971
0.999947
0.999915
0.999889
0.999883
0.999884
0.999886
0.999886
0.999887
0.999887
0.99989
0.999883
0.998652
0.938524
0.0382666
0.00025026
9.3631e-07
4.6941e-07
4.72923e-07
4.77341e-07
4.7641e-07
4.74835e-07
4.73789e-07
4.7395e-07
4.74543e-07
4.74665e-07
4.73637e-07
4.73419e-07
4.73332e-07
4.74087e-07
4.7678e-07
4.77512e-07
4.76889e-07
4.77286e-07
4.78638e-07
4.78547e-07
4.76551e-07
4.45764e-07
3.85026e-07
3.61995e-07
3.45607e-07
3.30404e-07
3.07265e-07
2.8112e-07
2.59895e-07
2.47771e-07
2.4175e-07
2.3689e-07
2.32773e-07
2.32506e-07
0.999996
0.999995
0.999995
0.999994
0.999994
0.999993
0.999992
0.999991
0.99999
0.99999
0.99999
0.99999
0.99999
0.99999
0.99999
0.99999
0.99999
0.99999
0.99999
0.99999
0.99999
0.99999
0.99999
0.99999
0.99999
0.99999
0.99999
0.99999
0.99999
0.99999
0.99999
0.99999
0.99999
0.99999
0.99999
0.99999
0.99999
0.99999
0.99999
0.99999
0.99999
0.99999
0.99999
0.99999
0.999988
0.999983
0.999967
0.999943
0.999895
0.99987
0.999872
0.999879
0.999882
0.999883
0.999886
0.999886
0.999889
0.999883
0.999353
0.954027
0.0241092
7.17295e-05
4.68249e-07
4.76157e-07
5.28108e-07
5.454e-07
5.22784e-07
4.99905e-07
4.99093e-07
5.10124e-07
5.41766e-07
5.73432e-07
5.71805e-07
5.5534e-07
5.39126e-07
5.31458e-07
5.14732e-07
4.81206e-07
4.70271e-07
4.71839e-07
4.72749e-07
4.74266e-07
4.71713e-07
4.29776e-07
3.75144e-07
3.43847e-07
3.23173e-07
3.11317e-07
3.02949e-07
3.02026e-07
3.25854e-07
3.43666e-07
3.43826e-07
3.17925e-07
2.85209e-07
2.56436e-07
0.999996
0.999996
0.999995
0.999994
0.999993
0.999993
0.999992
0.999991
0.999991
0.99999
0.99999
0.99999
0.99999
0.99999
0.99999
0.99999
0.99999
0.99999
0.99999
0.99999
0.99999
0.99999
0.99999
0.99999
0.99999
0.99999
0.99999
0.99999
0.99999
0.99999
0.99999
0.99999
0.99999
0.99999
0.99999
0.99999
0.99999
0.99999
0.99999
0.99999
0.99999
0.99999
0.99999
0.999989
0.999986
0.999976
0.999954
0.999919
0.999874
0.99986
0.999863
0.999869
0.999872
0.999872
0.999875
0.999874
0.999881
0.999877
0.99955
0.945768
0.0158428
2.60974e-05
4.68249e-07
5.16549e-07
7.31347e-07
7.02395e-07
6.34836e-07
5.72941e-07
5.43893e-07
5.48349e-07
5.66053e-07
5.77138e-07
5.75916e-07
5.73626e-07
5.63278e-07
5.42012e-07
5.12681e-07
4.86054e-07
4.82638e-07
4.81762e-07
4.737e-07
4.6323e-07
4.5132e-07
4.20506e-07
3.93871e-07
3.80248e-07
3.7606e-07
3.85666e-07
4.18912e-07
4.57287e-07
4.79208e-07
4.77609e-07
4.41746e-07
3.96744e-07
3.43242e-07
3.01065e-07
0.999996
0.999996
0.999995
0.999994
0.999993
0.999993
0.999992
0.999991
0.999991
0.99999
0.99999
0.99999
0.99999
0.99999
0.99999
0.99999
0.99999
0.99999
0.99999
0.99999
0.99999
0.99999
0.99999
0.99999
0.99999
0.99999
0.99999
0.99999
0.99999
0.99999
0.99999
0.99999
0.99999
0.99999
0.99999
0.99999
0.99999
0.99999
0.99999
0.99999
0.99999
0.99999
0.99999
0.999989
0.999984
0.999971
0.999947
0.999907
0.999869
0.999854
0.999852
0.999854
0.999855
0.999855
0.999859
0.999865
0.999866
0.999846
0.999607
0.911209
0.0104487
1.26739e-05
2.02594e-06
1.53143e-06
1.0665e-06
7.22121e-07
7.75057e-07
6.88494e-07
7.18177e-07
6.77217e-07
6.14701e-07
5.79994e-07
5.71118e-07
5.61936e-07
5.363e-07
4.96302e-07
4.91685e-07
4.94356e-07
4.97199e-07
4.9669e-07
4.85716e-07
4.83446e-07
4.80998e-07
4.67159e-07
4.62966e-07
4.62438e-07
4.6734e-07
4.92415e-07
5.22048e-07
5.35649e-07
5.32004e-07
5.05961e-07
4.71122e-07
4.24722e-07
3.76612e-07
3.26719e-07
0.999997
0.999996
0.999995
0.999995
0.999994
0.999993
0.999992
0.999991
0.999991
0.99999
0.99999
0.99999
0.99999
0.99999
0.99999
0.99999
0.99999
0.99999
0.99999
0.99999
0.99999
0.99999
0.99999
0.99999
0.99999
0.99999
0.99999
0.99999
0.99999
0.99999
0.99999
0.99999
0.99999
0.99999
0.99999
0.99999
0.99999
0.99999
0.99999
0.99999
0.99999
0.99999
0.99999
0.999987
0.999981
0.999967
0.999946
0.99991
0.999872
0.999853
0.999847
0.999846
0.999847
0.999853
0.999855
0.999846
0.999831
0.999744
0.999433
0.881092
0.0181645
0.000104754
8.03271e-05
7.45656e-05
7.00443e-05
3.79087e-05
1.92877e-05
7.44865e-06
2.12732e-06
1.25889e-06
1.35537e-06
5.79787e-07
8.47129e-07
4.84764e-07
4.84764e-07
4.84764e-07
4.84765e-07
9.42832e-07
1.13631e-06
5.19971e-07
7.56753e-07
1.09691e-06
8.91758e-07
6.30899e-07
5.71342e-07
4.84762e-07
4.8119e-07
5.17822e-07
5.25337e-07
5.12112e-07
4.65182e-07
4.47269e-07
4.36975e-07
4.28779e-07
3.92448e-07
3.42919e-07
0.999997
0.999996
0.999996
0.999995
0.999994
0.999993
0.999992
0.999991
0.999991
0.99999
0.99999
0.99999
0.99999
0.99999
0.99999
0.99999
0.99999
0.99999
0.99999
0.99999
0.99999
0.99999
0.99999
0.99999
0.99999
0.99999
0.99999
0.99999
0.99999
0.99999
0.99999
0.99999
0.99999
0.99999
0.99999
0.99999
0.99999
0.99999
0.99999
0.99999
0.99999
0.99999
0.999989
0.999986
0.999979
0.999966
0.999948
0.999925
0.999892
0.99986
0.999845
0.999841
0.999842
0.999843
0.99984
0.999837
0.999842
0.999779
0.9997
0.863239
0.0175275
0.000828451
0.000831684
0.000729678
0.000722744
0.000475477
0.000369463
0.000371066
0.000407701
0.000446758
0.000495465
0.000565866
0.000647681
0.000703704
0.000757356
0.000802446
0.000826803
0.00082048
0.000767024
0.000744007
0.000711248
0.000580299
0.000437088
0.000288356
0.000163605
7.4253e-05
2.60624e-05
6.20346e-06
8.49599e-07
4.37296e-07
3.44271e-07
3.44271e-07
3.43554e-07
3.43081e-07
3.43031e-07
3.42977e-07
0.999997
0.999996
0.999996
0.999995
0.999994
0.999993
0.999993
0.999991
0.999991
0.999991
0.99999
0.99999
0.99999
0.99999
0.99999
0.99999
0.99999
0.99999
0.99999
0.99999
0.99999
0.99999
0.99999
0.99999
0.99999
0.99999
0.99999
0.99999
0.99999
0.99999
0.99999
0.99999
0.99999
0.99999
0.99999
0.99999
0.99999
0.99999
0.99999
0.99999
0.99999
0.99999
0.999989
0.999986
0.999982
0.999974
0.999958
0.999935
0.999891
0.999866
0.999855
0.999849
0.999848
0.999852
0.999856
0.999865
0.999875
0.99985
0.999893
0.838299
0.01682
0.00686832
0.00785875
0.00806764
0.00813821
0.00814426
0.00806278
0.00815392
0.00827431
0.00866448
0.00943628
0.0104629
0.0114362
0.0122338
0.012819
0.0132666
0.0136254
0.0138698
0.0140087
0.0138786
0.0135044
0.0127876
0.0118792
0.0107534
0.00934028
0.00766872
0.00580047
0.00388408
0.00216211
0.00101732
0.000422019
0.00020841
0.000159072
6.36893e-05
4.05085e-05
3.42344e-05
0.999997
0.999996
0.999996
0.999996
0.999995
0.999994
0.999993
0.999992
0.999991
0.999991
0.99999
0.99999
0.99999
0.99999
0.99999
0.99999
0.99999
0.99999
0.99999
0.99999
0.99999
0.99999
0.99999
0.99999
0.99999
0.99999
0.99999
0.99999
0.99999
0.99999
0.99999
0.99999
0.99999
0.99999
0.99999
0.99999
0.99999
0.99999
0.99999
0.99999
0.99999
0.99999
0.999989
0.999988
0.999986
0.999981
0.999967
0.999939
0.999888
0.999876
0.999871
0.999869
0.999872
0.999879
0.999886
0.99989
0.999891
0.999891
0.999893
0.75481
0.0271629
0.0164532
0.0188798
0.0195492
0.0196373
0.0196614
0.0194058
0.0193731
0.0199371
0.0212189
0.0229342
0.024561
0.0255686
0.0261711
0.0265758
0.0268924
0.0272562
0.0277823
0.0283435
0.0289831
0.02967
0.0305763
0.0316527
0.0327351
0.0339287
0.0352565
0.0365062
0.0376571
0.0385951
0.0390579
0.0391174
0.0376486
0.0357343
0.032794
0.0278732
0.0219042
0.999997
0.999997
0.999996
0.999996
0.999995
0.999994
0.999993
0.999992
0.999991
0.999991
0.99999
0.99999
0.99999
0.99999
0.99999
0.99999
0.99999
0.99999
0.99999
0.99999
0.99999
0.99999
0.99999
0.99999
0.99999
0.99999
0.99999
0.99999
0.99999
0.99999
0.99999
0.99999
0.99999
0.99999
0.99999
0.99999
0.99999
0.99999
0.99999
0.99999
0.99999
0.99999
0.999989
0.999989
0.999987
0.999983
0.999973
0.99995
0.999892
0.999879
0.999883
0.999885
0.999886
0.999888
0.999889
0.999887
0.99989
0.999886
0.999893
0.836884
0.0181173
0.00469418
0.00404098
0.00321874
0.0032445
0.00316491
0.0037535
0.00410919
0.00435482
0.00446459
0.00464402
0.00473096
0.00443946
0.00379858
0.0032282
0.00285314
0.00269955
0.00272274
0.0028231
0.00292669
0.00306702
0.00323876
0.00339644
0.00354143
0.00365252
0.00370282
0.00372127
0.00356607
0.00324921
0.00291599
0.00260625
0.00231074
0.00165905
0.000670211
5.06299e-05
1.40591e-05
0.999998
0.999997
0.999997
0.999996
0.999995
0.999994
0.999992
0.999992
0.999991
0.999991
0.99999
0.99999
0.99999
0.99999
0.99999
0.99999
0.99999
0.99999
0.99999
0.99999
0.99999
0.99999
0.99999
0.99999
0.99999
0.99999
0.99999
0.99999
0.99999
0.99999
0.99999
0.99999
0.99999
0.99999
0.99999
0.99999
0.99999
0.99999
0.99999
0.99999
0.99999
0.99999
0.99999
0.999988
0.999987
0.999984
0.999975
0.999955
0.999912
0.99988
0.999882
0.999885
0.999887
0.999886
0.999886
0.999882
0.99989
0.999883
0.999893
0.917983
0.0109211
0.00019018
0.000126951
8.2158e-05
8.93668e-05
8.69064e-05
0.000121633
0.000142976
0.000148313
0.000122555
9.67332e-05
6.86063e-05
4.40398e-05
3.03718e-05
2.26928e-05
1.93809e-05
1.81241e-05
1.7418e-05
1.91802e-05
2.15095e-05
2.46619e-05
2.83225e-05
3.11636e-05
3.26296e-05
3.1473e-05
2.69899e-05
2.44891e-05
2.25492e-05
2.00957e-05
1.62627e-05
1.21445e-05
7.78677e-06
3.60076e-06
9.50734e-07
3.35599e-07
3.35598e-07
0.999998
0.999998
0.999997
0.999997
0.999995
0.999994
0.999993
0.999992
0.999991
0.999991
0.99999
0.99999
0.99999
0.99999
0.99999
0.99999
0.99999
0.99999
0.99999
0.99999
0.99999
0.99999
0.99999
0.99999
0.99999
0.99999
0.99999
0.99999
0.99999
0.99999
0.99999
0.99999
0.99999
0.99999
0.99999
0.99999
0.99999
0.99999
0.99999
0.99999
0.99999
0.99999
0.99999
0.999988
0.999984
0.99998
0.999975
0.999962
0.999935
0.999891
0.999882
0.999883
0.999884
0.999883
0.999883
0.999881
0.999886
0.999882
0.999893
0.963009
0.0319212
1.01555e-06
7.53184e-07
7.94853e-07
9.67321e-07
6.48252e-07
5.14464e-07
5.14464e-07
5.14464e-07
5.4835e-07
5.88205e-07
5.13837e-07
5.13815e-07
5.13795e-07
5.13776e-07
5.13756e-07
5.13737e-07
5.13743e-07
5.13752e-07
5.13766e-07
5.1378e-07
5.13799e-07
5.13821e-07
5.13845e-07
5.13869e-07
5.13894e-07
5.47328e-07
5.7943e-07
6.6404e-07
7.37289e-07
6.22738e-07
5.23228e-07
5.18265e-07
4.13372e-07
3.93094e-07
3.51207e-07
0.999998
0.999998
0.999998
0.999997
0.999996
0.999995
0.999993
0.999992
0.999991
0.999991
0.99999
0.99999
0.99999
0.99999
0.99999
0.99999
0.99999
0.99999
0.99999
0.99999
0.99999
0.99999
0.99999
0.99999
0.99999
0.99999
0.99999
0.99999
0.99999
0.99999
0.99999
0.99999
0.99999
0.99999
0.99999
0.99999
0.99999
0.99999
0.99999
0.99999
0.99999
0.99999
0.99999
0.999989
0.999985
0.999974
0.999963
0.99996
0.999955
0.999917
0.999892
0.999884
0.999883
0.999882
0.999882
0.999881
0.999885
0.999882
0.999879
0.975099
0.0523411
2.54201e-06
6.01547e-07
6.18979e-07
6.1532e-07
6.34951e-07
6.55475e-07
6.86223e-07
6.92685e-07
6.83169e-07
6.77141e-07
6.72894e-07
6.45786e-07
5.88955e-07
5.33772e-07
5.27971e-07
5.56927e-07
6.1972e-07
6.37218e-07
6.4042e-07
6.27618e-07
5.99913e-07
5.7892e-07
5.78694e-07
5.9391e-07
5.99215e-07
5.98198e-07
5.99143e-07
5.96983e-07
5.93066e-07
5.82781e-07
5.14012e-07
4.61841e-07
4.22352e-07
4.39087e-07
3.71544e-07
0.999998
0.999998
0.999998
0.999998
0.999997
0.999996
0.999995
0.999993
0.999991
0.999991
0.99999
0.99999
0.99999
0.99999
0.99999
0.99999
0.99999
0.99999
0.99999
0.99999
0.99999
0.99999
0.99999
0.99999
0.99999
0.99999
0.99999
0.99999
0.99999
0.99999
0.99999
0.99999
0.99999
0.99999
0.99999
0.99999
0.99999
0.99999
0.99999
0.99999
0.99999
0.99999
0.99999
0.99999
0.999988
0.99998
0.999965
0.999949
0.999952
0.999945
0.999918
0.999899
0.99989
0.999885
0.999886
0.999886
0.999889
0.999884
0.999752
0.975845
0.0389006
3.58954e-05
6.01547e-07
6.12482e-07
6.12502e-07
6.31696e-07
6.37817e-07
6.42471e-07
6.39573e-07
6.30487e-07
6.20896e-07
6.21482e-07
6.28589e-07
6.31888e-07
6.23645e-07
6.02353e-07
6.02766e-07
6.11841e-07
6.30375e-07
6.50802e-07
6.50954e-07
6.39955e-07
6.09718e-07
5.70617e-07
5.68968e-07
5.78286e-07
5.75534e-07
5.73442e-07
5.67835e-07
5.50297e-07
5.49039e-07
5.38685e-07
4.81563e-07
4.54129e-07
4.70141e-07
3.84774e-07
0.999998
0.999998
0.999998
0.999998
0.999998
0.999997
0.999996
0.999994
0.999991
0.99999
0.99999
0.99999
0.99999
0.99999
0.99999
0.99999
0.99999
0.99999
0.99999
0.99999
0.99999
0.99999
0.99999
0.99999
0.99999
0.99999
0.99999
0.99999
0.99999
0.99999
0.99999
0.99999
0.99999
0.99999
0.99999
0.99999
0.99999
0.99999
0.99999
0.99999
0.99999
0.99999
0.99999
0.99999
0.999989
0.999985
0.999972
0.999952
0.99994
0.999943
0.999935
0.999919
0.999906
0.9999
0.999897
0.999895
0.999894
0.999886
0.9996
0.977815
0.0462132
0.000149444
6.01547e-07
6.24084e-07
6.18212e-07
6.29586e-07
6.2844e-07
6.24452e-07
6.18389e-07
6.14736e-07
6.12183e-07
6.10413e-07
6.10092e-07
6.10475e-07
6.12586e-07
6.17696e-07
6.23542e-07
6.29179e-07
6.36203e-07
6.36749e-07
6.34746e-07
6.30016e-07
6.23789e-07
5.98743e-07
5.57677e-07
5.65004e-07
5.62223e-07
5.55625e-07
5.51805e-07
5.38898e-07
5.36661e-07
5.45164e-07
5.23499e-07
5.04331e-07
4.99072e-07
3.99758e-07
0.999998
0.999998
0.999998
0.999998
0.999998
0.999998
0.999997
0.999995
0.999992
0.99999
0.99999
0.99999
0.99999
0.99999
0.99999
0.99999
0.99999
0.99999
0.99999
0.99999
0.99999
0.99999
0.99999
0.99999
0.99999
0.99999
0.99999
0.99999
0.99999
0.99999
0.99999
0.99999
0.99999
0.99999
0.99999
0.99999
0.99999
0.99999
0.99999
0.99999
0.99999
0.99999
0.99999
0.99999
0.999989
0.999987
0.999978
0.999954
0.999937
0.999939
0.999935
0.999925
0.999919
0.999913
0.99991
0.999904
0.999901
0.999893
0.999409
0.970317
0.0593485
0.000380854
1.04998e-06
6.01575e-07
6.01576e-07
6.04035e-07
6.04012e-07
6.02826e-07
6.02818e-07
6.02818e-07
6.03267e-07
6.04779e-07
6.07129e-07
6.08407e-07
6.09004e-07
6.10316e-07
6.12466e-07
6.13317e-07
6.12258e-07
6.12786e-07
6.1426e-07
6.12837e-07
6.13933e-07
6.11505e-07
5.6719e-07
5.5167e-07
5.54436e-07
5.5014e-07
5.44265e-07
5.40926e-07
5.3796e-07
5.41767e-07
5.38047e-07
5.34869e-07
5.1872e-07
4.12254e-07
0.999998
0.999998
0.999998
0.999997
0.999997
0.999997
0.999997
0.999996
0.999993
0.999991
0.99999
0.99999
0.99999
0.99999
0.99999
0.99999
0.99999
0.99999
0.99999
0.99999
0.99999
0.99999
0.99999
0.99999
0.99999
0.99999
0.99999
0.99999
0.99999
0.99999
0.99999
0.99999
0.99999
0.99999
0.99999
0.99999
0.99999
0.99999
0.99999
0.99999
0.99999
0.99999
0.99999
0.99999
0.999989
0.999988
0.999981
0.999958
0.999931
0.999929
0.999926
0.999921
0.999916
0.999907
0.999906
0.999894
0.999897
0.999889
0.998951
0.949837
0.0789264
0.00097511
3.30296e-06
6.01576e-07
6.02313e-07
6.02334e-07
6.02203e-07
6.02394e-07
6.03164e-07
6.03968e-07
6.04754e-07
6.05591e-07
6.06362e-07
6.07091e-07
6.07738e-07
6.08749e-07
6.08864e-07
6.08676e-07
6.07988e-07
6.08485e-07
6.08845e-07
6.0885e-07
6.09735e-07
6.13603e-07
5.85316e-07
5.5197e-07
5.59117e-07
5.58809e-07
5.54562e-07
5.52899e-07
5.49683e-07
5.52917e-07
5.55651e-07
5.61113e-07
5.37403e-07
4.05189e-07
0.999997
0.999996
0.999995
0.999994
0.999994
0.999993
0.999992
0.999991
0.99999
0.99999
0.99999
0.99999
0.99999
0.99999
0.99999
0.99999
0.99999
0.99999
0.99999
0.99999
0.99999
0.99999
0.99999
0.99999
0.99999
0.99999
0.99999
0.99999
0.99999
0.99999
0.99999
0.99999
0.99999
0.99999
0.99999
0.99999
0.99999
0.99999
0.99999
0.99999
0.99999
0.99999
0.99999
0.99999
0.999988
0.999983
0.999972
0.999945
0.999916
0.999893
0.999883
0.999882
0.999883
0.999884
0.999886
0.999886
0.999894
0.999866
0.999184
0.940998
0.0252353
6.24598e-05
4.68249e-07
4.70989e-07
4.7424e-07
4.73626e-07
4.7239e-07
4.72987e-07
4.74268e-07
4.75206e-07
4.77258e-07
4.77982e-07
4.76375e-07
4.73523e-07
4.73131e-07
4.73584e-07
4.7493e-07
4.75742e-07
4.76754e-07
4.7919e-07
4.83157e-07
4.90999e-07
4.91246e-07
4.80438e-07
4.46876e-07
4.1015e-07
4.35683e-07
4.30241e-07
4.1908e-07
3.98229e-07
3.64545e-07
3.30883e-07
3.1036e-07
2.91708e-07
2.64756e-07
2.40828e-07
0.999997
0.999996
0.999994
0.999994
0.999993
0.999992
0.999992
0.999991
0.999991
0.99999
0.99999
0.99999
0.99999
0.99999
0.99999
0.99999
0.99999
0.99999
0.99999
0.99999
0.99999
0.99999
0.99999
0.99999
0.99999
0.99999
0.99999
0.99999
0.99999
0.99999
0.99999
0.99999
0.99999
0.99999
0.99999
0.99999
0.99999
0.99999
0.99999
0.99999
0.99999
0.99999
0.99999
0.99999
0.999989
0.999984
0.99997
0.999944
0.999906
0.999876
0.999868
0.999869
0.999873
0.999876
0.999882
0.999883
0.999889
0.999874
0.999605
0.915256
0.0118017
8.22035e-06
4.68248e-07
4.81141e-07
4.85755e-07
4.81621e-07
4.80271e-07
4.8117e-07
4.87267e-07
5.12e-07
5.56355e-07
5.74055e-07
5.64162e-07
5.30228e-07
5.10167e-07
5.09679e-07
5.0354e-07
4.91654e-07
4.91195e-07
4.92818e-07
4.97511e-07
4.99678e-07
4.96627e-07
4.79834e-07
4.41685e-07
4.10584e-07
4.43361e-07
4.17236e-07
3.91018e-07
3.64738e-07
3.35676e-07
3.19099e-07
3.04784e-07
2.75047e-07
2.52689e-07
2.40275e-07
0.999998
0.999997
0.999995
0.999994
0.999993
0.999993
0.999992
0.999991
0.999991
0.999991
0.99999
0.99999
0.99999
0.99999
0.99999
0.99999
0.99999
0.99999
0.99999
0.99999
0.99999
0.99999
0.99999
0.99999
0.99999
0.99999
0.99999
0.99999
0.99999
0.99999
0.99999
0.99999
0.99999
0.99999
0.99999
0.99999
0.99999
0.99999
0.99999
0.99999
0.99999
0.99999
0.99999
0.99999
0.999987
0.999978
0.99996
0.999933
0.999885
0.999863
0.999858
0.999862
0.999867
0.999867
0.999867
0.999867
0.999873
0.999863
0.99972
0.899911
0.00722483
9.31534e-07
9.0482e-07
6.97082e-07
9.58715e-07
7.8182e-07
7.66523e-07
6.66178e-07
6.45745e-07
6.19534e-07
6.04039e-07
5.80227e-07
5.47941e-07
5.50075e-07
5.47098e-07
5.31647e-07
5.13903e-07
5.14173e-07
5.22848e-07
5.21347e-07
5.1586e-07
5.03159e-07
4.86187e-07
4.68205e-07
4.41637e-07
4.32869e-07
4.50195e-07
4.25133e-07
3.99317e-07
3.98861e-07
4.30661e-07
4.7108e-07
4.84289e-07
4.03097e-07
3.36135e-07
2.84765e-07
0.999998
0.999997
0.999996
0.999995
0.999994
0.999993
0.999992
0.999992
0.999991
0.999991
0.99999
0.99999
0.99999
0.99999
0.99999
0.99999
0.99999
0.99999
0.99999
0.99999
0.99999
0.99999
0.99999
0.99999
0.99999
0.99999
0.99999
0.99999
0.99999
0.99999
0.99999
0.99999
0.99999
0.99999
0.99999
0.99999
0.99999
0.99999
0.99999
0.99999
0.99999
0.99999
0.99999
0.999989
0.999985
0.999972
0.999951
0.999921
0.999879
0.99986
0.999853
0.999858
0.999854
0.99985
0.999849
0.999849
0.999839
0.999815
0.999776
0.807508
0.00162299
7.18818e-05
4.85675e-05
2.68232e-05
1.85941e-05
1.11168e-05
6.41734e-06
3.77752e-06
2.44041e-06
1.8219e-06
1.27444e-06
9.73838e-07
8.64357e-07
7.3625e-07
6.95091e-07
9.39702e-07
1.00257e-06
8.91656e-07
5.71631e-07
5.42224e-07
5.23301e-07
5.12533e-07
4.91906e-07
4.72555e-07
4.65106e-07
4.71597e-07
4.69893e-07
4.43059e-07
4.18807e-07
4.49879e-07
5.31893e-07
6.33581e-07
6.58863e-07
5.64617e-07
4.38048e-07
3.45842e-07
0.999998
0.999998
0.999996
0.999995
0.999994
0.999993
0.999992
0.999992
0.999991
0.999991
0.99999
0.99999
0.99999
0.99999
0.99999
0.99999
0.99999
0.99999
0.99999
0.99999
0.99999
0.99999
0.99999
0.99999
0.99999
0.99999
0.99999
0.99999
0.99999
0.99999
0.99999
0.99999
0.99999
0.99999
0.99999
0.99999
0.99999
0.99999
0.99999
0.99999
0.99999
0.99999
0.99999
0.999988
0.999982
0.999969
0.999949
0.999924
0.999883
0.999863
0.999852
0.999847
0.999835
0.999833
0.999834
0.999831
0.999824
0.99982
0.999846
0.724556
0.00823351
0.00239399
0.00212781
0.00172015
0.00144895
0.00115088
0.000881146
0.000660383
0.000479097
0.000362389
0.000286214
0.000238991
0.00021235
0.000201769
0.000187053
0.000156422
0.000113812
7.35933e-05
4.13551e-05
2.09912e-05
9.58372e-06
3.2717e-06
9.18614e-07
4.7264e-07
6.06841e-07
6.18155e-07
6.41139e-07
6.36487e-07
5.92073e-07
6.19946e-07
6.70124e-07
7.31191e-07
7.75549e-07
6.61517e-07
4.81169e-07
3.87602e-07
0.999998
0.999998
0.999997
0.999996
0.999995
0.999994
0.999993
0.999992
0.999991
0.999991
0.99999
0.99999
0.99999
0.99999
0.99999
0.99999
0.99999
0.99999
0.99999
0.99999
0.99999
0.99999
0.99999
0.99999
0.99999
0.99999
0.99999
0.99999
0.99999
0.99999
0.99999
0.99999
0.99999
0.99999
0.99999
0.99999
0.99999
0.99999
0.99999
0.99999
0.99999
0.99999
0.99999
0.999988
0.999981
0.999968
0.999949
0.999932
0.999909
0.999873
0.99985
0.999836
0.999825
0.999823
0.999824
0.999833
0.999842
0.999862
0.999893
0.547409
0.0166141
0.0134436
0.0138112
0.013248
0.012532
0.0114936
0.0102282
0.00892398
0.00804204
0.00763765
0.00751895
0.0075521
0.00767016
0.00768606
0.00722773
0.00651965
0.00581921
0.00503255
0.00429045
0.0035461
0.00275891
0.00193507
0.00120143
0.000625231
0.000252928
6.69616e-05
6.63609e-06
7.95341e-06
6.39689e-06
5.33089e-06
4.07885e-06
2.65894e-06
1.49442e-06
1.42824e-06
8.46738e-07
6.92475e-07
0.999998
0.999998
0.999997
0.999996
0.999995
0.999994
0.999993
0.999992
0.999991
0.999991
0.99999
0.99999
0.99999
0.99999
0.99999
0.99999
0.99999
0.99999
0.99999
0.99999
0.99999
0.99999
0.99999
0.99999
0.99999
0.99999
0.99999
0.99999
0.99999
0.99999
0.99999
0.99999
0.99999
0.99999
0.99999
0.99999
0.99999
0.99999
0.99999
0.99999
0.99999
0.99999
0.99999
0.999988
0.999982
0.999971
0.999956
0.999939
0.999923
0.999872
0.999851
0.999838
0.999825
0.999823
0.999828
0.999845
0.999863
0.999863
0.999893
0.524243
0.0243709
0.0211453
0.0227331
0.0230678
0.0232161
0.0230851
0.0222217
0.0212595
0.0205275
0.0202387
0.0202205
0.0209224
0.0220611
0.0228599
0.0233271
0.0235157
0.0235965
0.0235553
0.0231758
0.0228122
0.0219657
0.0206833
0.0190691
0.0170331
0.014494
0.0115316
0.0085168
0.00590299
0.003701
0.00255457
0.00234416
0.00280435
0.00288607
0.00245032
0.00241513
0.00184599
0.999998
0.999998
0.999998
0.999997
0.999996
0.999994
0.999993
0.999992
0.999991
0.999991
0.99999
0.99999
0.99999
0.99999
0.99999
0.99999
0.99999
0.99999
0.99999
0.99999
0.99999
0.99999
0.99999
0.99999
0.99999
0.99999
0.99999
0.99999
0.99999
0.99999
0.99999
0.99999
0.99999
0.99999
0.99999
0.99999
0.99999
0.99999
0.99999
0.99999
0.99999
0.99999
0.99999
0.999988
0.999983
0.999974
0.999963
0.999954
0.999936
0.999875
0.999866
0.999866
0.999864
0.99986
0.999865
0.999877
0.999881
0.999882
0.999893
0.704809
0.0342722
0.0229463
0.0244812
0.0250725
0.0252201
0.0252345
0.0251947
0.0249963
0.0239911
0.0231171
0.0225603
0.02245
0.0225507
0.0233078
0.0243687
0.0249788
0.0254103
0.0260539
0.0272076
0.0286283
0.030281
0.0323307
0.0349077
0.0380919
0.0416551
0.0454645
0.0490788
0.0531276
0.0585456
0.0652683
0.0738963
0.0848233
0.0993143
0.121986
0.173407
0.362025
0.999998
0.999998
0.999998
0.999997
0.999996
0.999995
0.999993
0.999992
0.999991
0.999991
0.99999
0.99999
0.99999
0.99999
0.99999
0.99999
0.99999
0.99999
0.99999
0.99999
0.99999
0.99999
0.99999
0.99999
0.99999
0.99999
0.99999
0.99999
0.99999
0.99999
0.99999
0.99999
0.99999
0.99999
0.99999
0.99999
0.99999
0.99999
0.99999
0.99999
0.99999
0.99999
0.99999
0.999989
0.999984
0.999975
0.999968
0.999964
0.999958
0.999883
0.999872
0.999872
0.999875
0.999875
0.999882
0.999877
0.999877
0.999871
0.999893
0.819748
0.0241072
0.0077481
0.00738479
0.00622981
0.00563698
0.00455848
0.00354728
0.00281989
0.00273662
0.00218259
0.00182479
0.00150303
0.0013467
0.0013041
0.00130807
0.00135348
0.00136453
0.00138119
0.00148222
0.00171697
0.00212903
0.00273344
0.00353876
0.00436134
0.00524664
0.00591663
0.00656157
0.00751405
0.00825157
0.00854972
0.00780263
0.00643963
0.00538466
0.00471731
0.000976145
4.15449e-05
0.999998
0.999998
0.999998
0.999998
0.999997
0.999995
0.999993
0.999992
0.999991
0.999991
0.99999
0.99999
0.99999
0.99999
0.99999
0.99999
0.99999
0.99999
0.99999
0.99999
0.99999
0.99999
0.99999
0.99999
0.99999
0.99999
0.99999
0.99999
0.99999
0.99999
0.99999
0.99999
0.99999
0.99999
0.99999
0.99999
0.99999
0.99999
0.99999
0.99999
0.99999
0.99999
0.99999
0.999989
0.999985
0.999978
0.999971
0.999963
0.999951
0.99992
0.999888
0.999877
0.999875
0.999873
0.999872
0.999871
0.999879
0.999875
0.999893
0.905353
0.0120266
0.000555563
0.000491234
0.000319402
0.000271423
0.000171755
0.000125799
0.000105579
0.000100958
7.71016e-05
6.23292e-05
5.28922e-05
5.07216e-05
5.23185e-05
5.93307e-05
6.25542e-05
6.17727e-05
5.84571e-05
5.60942e-05
5.66812e-05
7.38917e-05
9.59764e-05
0.000116599
0.000130754
0.000135371
0.00013466
0.000122933
0.000120402
0.000123381
0.000116154
8.30493e-05
4.13112e-05
2.25121e-05
1.52568e-05
3.37158e-07
3.35599e-07
0.999998
0.999999
0.999998
0.999998
0.999998
0.999996
0.999994
0.999992
0.999991
0.999991
0.99999
0.99999
0.99999
0.99999
0.99999
0.99999
0.99999
0.99999
0.99999
0.99999
0.99999
0.99999
0.99999
0.99999
0.99999
0.99999
0.99999
0.99999
0.99999
0.99999
0.99999
0.99999
0.99999
0.99999
0.99999
0.99999
0.99999
0.99999
0.99999
0.99999
0.99999
0.99999
0.99999
0.999989
0.999986
0.99998
0.999974
0.999965
0.999951
0.99994
0.999924
0.999898
0.999885
0.999876
0.999875
0.999874
0.999881
0.999869
0.999893
0.937806
0.0102771
1.27223e-06
8.43007e-06
4.08367e-06
3.58624e-06
2.21678e-06
1.41558e-06
7.90051e-07
7.13789e-07
7.41528e-07
1.03054e-06
1.14551e-06
8.76188e-07
6.57835e-07
6.50043e-07
7.66639e-07
7.36877e-07
1.18143e-06
1.42861e-06
6.32054e-07
5.13827e-07
5.17349e-07
5.34507e-07
8.25781e-07
1.15987e-06
8.13364e-07
6.26175e-07
7.03354e-07
5.92534e-07
9.22443e-07
9.99488e-07
7.58202e-07
8.65557e-07
4.93193e-07
4.50278e-07
3.56683e-07
0.999998
0.999999
0.999999
0.999998
0.999998
0.999997
0.999995
0.999993
0.999991
0.999991
0.99999
0.99999
0.99999
0.99999
0.99999
0.99999
0.99999
0.99999
0.99999
0.99999
0.99999
0.99999
0.99999
0.99999
0.99999
0.99999
0.99999
0.99999
0.99999
0.99999
0.99999
0.99999
0.99999
0.99999
0.99999
0.99999
0.99999
0.99999
0.99999
0.99999
0.99999
0.99999
0.99999
0.999989
0.999987
0.999983
0.999976
0.999964
0.999953
0.999935
0.999927
0.999921
0.999906
0.999892
0.999883
0.999882
0.999886
0.999868
0.999884
0.955153
0.035593
6.01547e-07
9.73801e-07
6.74384e-07
7.32754e-07
6.56688e-07
6.98011e-07
7.5866e-07
8.50151e-07
8.48442e-07
8.05448e-07
7.37188e-07
6.30466e-07
5.6167e-07
5.34828e-07
5.34109e-07
5.40904e-07
5.4873e-07
5.86255e-07
6.20837e-07
6.25626e-07
6.17959e-07
5.99815e-07
5.81763e-07
5.85782e-07
5.84722e-07
5.81628e-07
5.8999e-07
5.70821e-07
4.91133e-07
4.87302e-07
5.19701e-07
5.32989e-07
5.21884e-07
4.87646e-07
3.82528e-07
0.999998
0.999999
0.999999
0.999999
0.999998
0.999998
0.999996
0.999994
0.999991
0.999991
0.99999
0.99999
0.99999
0.99999
0.99999
0.99999
0.99999
0.99999
0.99999
0.99999
0.99999
0.99999
0.99999
0.99999
0.99999
0.99999
0.99999
0.99999
0.99999
0.99999
0.99999
0.99999
0.99999
0.99999
0.99999
0.99999
0.99999
0.99999
0.99999
0.99999
0.99999
0.99999
0.99999
0.99999
0.999989
0.999986
0.99998
0.999963
0.99995
0.999933
0.999919
0.999921
0.99992
0.999913
0.999903
0.999898
0.999894
0.999885
0.999734
0.970834
0.0746212
6.01546e-07
6.14437e-07
6.48262e-07
6.47589e-07
6.94857e-07
7.01815e-07
7.08916e-07
6.81811e-07
6.48941e-07
6.33345e-07
6.34669e-07
6.2381e-07
6.00207e-07
5.89046e-07
5.78949e-07
5.77598e-07
5.82835e-07
6.09117e-07
6.42183e-07
6.47688e-07
6.42179e-07
6.26188e-07
5.9652e-07
5.86556e-07
5.85489e-07
5.76335e-07
5.79442e-07
5.88493e-07
5.30421e-07
4.79447e-07
5.04498e-07
5.22404e-07
5.15858e-07
4.94992e-07
3.95117e-07
0.999998
0.999998
0.999998
0.999998
0.999999
0.999999
0.999998
0.999996
0.999992
0.999991
0.99999
0.99999
0.99999
0.99999
0.99999
0.99999
0.99999
0.99999
0.99999
0.99999
0.99999
0.99999
0.99999
0.99999
0.99999
0.99999
0.99999
0.99999
0.99999
0.99999
0.99999
0.99999
0.99999
0.99999
0.99999
0.99999
0.99999
0.99999
0.99999
0.99999
0.99999
0.99999
0.99999
0.99999
0.999989
0.999987
0.999981
0.999964
0.999945
0.99993
0.999918
0.999915
0.999918
0.999916
0.999911
0.999901
0.999899
0.999887
0.999471
0.964967
0.057434
9.68926e-06
6.02638e-07
6.59031e-07
6.84559e-07
6.93252e-07
6.75915e-07
6.69283e-07
6.56528e-07
6.48342e-07
6.29438e-07
6.21248e-07
6.24122e-07
6.23475e-07
6.23425e-07
6.24217e-07
6.26391e-07
6.30883e-07
6.38082e-07
6.45655e-07
6.45009e-07
6.42109e-07
6.32382e-07
6.11983e-07
5.88342e-07
5.83872e-07
5.72747e-07
5.74712e-07
5.71949e-07
5.27467e-07
4.96061e-07
5.20366e-07
5.34816e-07
5.3227e-07
5.15174e-07
4.08969e-07
0.999998
0.999998
0.999998
0.999998
0.999998
0.999999
0.999999
0.999998
0.999994
0.999991
0.99999
0.99999
0.99999
0.99999
0.99999
0.99999
0.99999
0.99999
0.99999
0.99999
0.99999
0.99999
0.99999
0.99999
0.99999
0.99999
0.99999
0.99999
0.99999
0.99999
0.99999
0.99999
0.99999
0.99999
0.99999
0.99999
0.99999
0.99999
0.99999
0.99999
0.99999
0.99999
0.99999
0.99999
0.999989
0.999988
0.999981
0.999962
0.999939
0.999929
0.99992
0.999911
0.999914
0.999911
0.99991
0.9999
0.9999
0.999882
0.999689
0.935862
0.0270271
5.02214e-06
6.01546e-07
6.15741e-07
6.02698e-07
6.07913e-07
6.09575e-07
6.11592e-07
6.08533e-07
6.05114e-07
6.08119e-07
6.14033e-07
6.17367e-07
6.15685e-07
6.13444e-07
6.14146e-07
6.16853e-07
6.18388e-07
6.19562e-07
6.24675e-07
6.26862e-07
6.26474e-07
6.25246e-07
6.17988e-07
5.98077e-07
5.80645e-07
5.62526e-07
5.60993e-07
5.53052e-07
5.30076e-07
5.08291e-07
5.26755e-07
5.34759e-07
5.40904e-07
5.22778e-07
4.13039e-07
0.999999
0.999998
0.999998
0.999998
0.999998
0.999999
0.999999
0.999998
0.999995
0.999991
0.99999
0.99999
0.99999
0.99999
0.99999
0.99999
0.99999
0.99999
0.99999
0.99999
0.99999
0.99999
0.99999
0.99999
0.99999
0.99999
0.99999
0.99999
0.99999
0.99999
0.99999
0.99999
0.99999
0.99999
0.99999
0.99999
0.99999
0.99999
0.99999
0.99999
0.99999
0.99999
0.99999
0.99999
0.999989
0.999988
0.999981
0.999961
0.999933
0.999926
0.999921
0.999914
0.99991
0.999901
0.9999
0.999893
0.999899
0.999864
0.999571
0.962906
0.0540922
0.00025383
7.44002e-07
6.07355e-07
6.01773e-07
6.01819e-07
6.01691e-07
6.01691e-07