/*--------------------------------*- C++ -*----------------------------------*\
| =========                 |                                                 |
| \\      /  F ield         | OpenFOAM: The Open Source CFD Toolbox           |
|  \\    /   O peration     | Version:  2.3.0                                 |
|   \\  /    A nd           | Web:      www.OpenFOAM.org                      |
|    \\/     M anipulation  |                                                 |
\*---------------------------------------------------------------------------*/
FoamFile
{
    version     2.0;
    format      ascii;
    class       surfaceScalarField;
    location    "47";
    object      phi.water;
}
// * * * * * * * * * * * * * * * * * * * * * * * * * * * * * * * * * * * * * //

dimensions      [0 3 -1 0 0 0 0];

internalField   nonuniform List<scalar> 
16448
(
-1.13244e-06
-2.50676e-06
4.61395e-07
8.73862e-07
-2.66743e-06
6.65494e-07
8.49852e-07
-1.07764e-06
1.10546e-06
7.15824e-07
-9.19222e-07
1.05654e-06
3.29939e-07
-5.00144e-07
8.9253e-07
1.91643e-07
-6.40636e-07
7.88295e-07
1.51597e-07
-6.39358e-07
6.88585e-07
1.24972e-07
-5.79888e-07
6.13737e-07
2.84982e-08
-4.36246e-07
5.37269e-07
-1.51545e-07
-3.1123e-07
4.92961e-07
-3.44291e-07
-2.46741e-07
4.40167e-07
-4.43005e-07
-2.61217e-07
3.60322e-07
-4.39985e-07
-3.03435e-07
3.00909e-07
-3.4626e-07
-3.47294e-07
2.53962e-07
-2.29331e-07
-3.67112e-07
2.5064e-07
-9.76524e-08
-3.90973e-07
2.5967e-07
2.08273e-08
-4.06664e-07
2.88597e-07
1.20507e-07
-4.21381e-07
3.22077e-07
1.94243e-07
-4.33641e-07
3.60277e-07
2.41668e-07
-4.42458e-07
3.95381e-07
2.62783e-07
-4.46849e-07
4.26082e-07
2.64548e-07
-4.52216e-07
4.50774e-07
2.55671e-07
-4.5353e-07
4.6273e-07
2.428e-07
-4.50466e-07
4.63643e-07
2.30289e-07
-4.42921e-07
4.55748e-07
2.22292e-07
-4.32955e-07
4.41259e-07
2.22564e-07
-4.23503e-07
4.23553e-07
2.33775e-07
-4.17053e-07
4.06155e-07
2.54791e-07
-4.10738e-07
3.90053e-07
2.82773e-07
-4.04359e-07
3.76701e-07
3.17452e-07
-3.9911e-07
3.64778e-07
3.61086e-07
-3.96159e-07
3.52862e-07
4.16948e-07
-3.95713e-07
3.40217e-07
4.90007e-07
-3.98722e-07
3.26017e-07
5.88119e-07
-4.07397e-07
3.09674e-07
7.22462e-07
-4.257e-07
2.91736e-07
9.03449e-07
-4.56649e-07
2.76079e-07
1.13238e-06
-5.01949e-07
2.73428e-07
1.40231e-06
-5.60353e-07
2.90872e-07
1.70014e-06
-6.27172e-07
3.29796e-07
2.00701e-06
-6.92292e-07
3.85934e-07
2.31856e-06
-7.3903e-07
4.28124e-07
2.66883e-06
-7.49267e-07
4.01084e-07
3.02661e-06
-6.35247e-07
2.85992e-07
3.18564e-06
-4.91235e-07
3.58488e-07
2.73816e-06
-2.45162e-07
7.44105e-07
1.73702e-06
-1.31024e-08
1.10307e-06
1.00353e-06
-3.55174e-08
9.19079e-07
3.91231e-06
-5.45543e-06
2.6588e-06
9.1355e-06
-9.46621e-06
4.21833e-06
1.25057e-05
-6.86075e-06
3.47369e-06
1.3131e-05
-2.28343e-06
1.66e-06
1.29782e-05
-3.99627e-07
5.5611e-07
1.31869e-05
4.8603e-07
-7.20483e-07
1.26107e-05
1.64545e-06
-9.70227e-07
1.14685e-05
2.61276e-06
-1.58854e-06
7.09156e-06
4.39306e-06
2.50631e-07
9.10663e-06
4.2952e-06
-6.68194e-06
1.04168e-06
1.30428e-05
4.89055e-06
3.05905e-05
-1.41567e-07
-8.44885e-06
2.64011e-05
-2.38163e-05
-1.27383e-06
3.25679e-05
-1.38451e-05
5.94395e-06
3.27314e-05
-7.2241e-06
7.05474e-06
3.44093e-05
-7.0353e-06
5.3574e-06
3.59352e-05
-6.07501e-06
4.54904e-06
3.65443e-05
-4.60055e-06
3.9915e-06
3.6242e-05
-2.72033e-06
3.02265e-06
3.58293e-05
-1.13979e-06
1.55242e-06
3.52152e-05
-4.18513e-07
1.03261e-06
3.51976e-05
-2.21713e-07
2.39342e-07
3.57187e-05
-1.88258e-07
-3.32898e-07
3.63397e-05
-2.73314e-07
-3.47702e-07
3.66551e-05
-3.92146e-08
-2.76103e-07
3.69623e-05
-6.96272e-09
-3.00249e-07
3.64184e-05
7.04631e-07
-1.60775e-07
3.58153e-05
9.87524e-07
-3.84449e-07
3.62882e-05
-9.75616e-08
-3.75306e-07
3.63376e-05
3.52372e-07
-4.01748e-07
3.51512e-05
2.11069e-06
-9.24284e-07
3.25786e-05
4.02225e-06
-1.44974e-06
2.95711e-05
4.81592e-06
-1.8084e-06
2.48892e-05
4.98392e-06
-3.02035e-07
1.41294e-05
5.9018e-06
4.85798e-06
2.49699e-06
4.84399e-06
6.78846e-06
-4.55628e-06
2.068e-06
4.98528e-06
-9.65742e-06
1.09653e-06
4.00462e-06
-1.22748e-05
9.42155e-07
1.67519e-06
-1.22275e-05
1.19097e-06
-1.23819e-06
-1.11167e-05
1.30641e-06
-2.41723e-06
-9.54851e-06
8.39644e-07
-2.40785e-06
-8.32387e-06
1.61575e-07
-1.38622e-06
-7.60027e-06
-7.03657e-07
-1.99356e-08
-6.98605e-06
-1.55566e-06
9.41439e-07
-5.73446e-06
-2.23347e-06
9.81884e-07
-3.26783e-06
-3.2136e-06
7.46966e-07
-3.47824e-06
2.10411e-07
-1.70595e-06
-3.54365e-06
-2.65295e-07
-1.47845e-07
-3.92478e-06
-2.92389e-07
2.34049e-07
-2.06613e-06
6.13195e-07
5.22191e-07
-1.6708e-06
4.68815e-07
4.81946e-07
-7.32058e-07
2.79266e-07
3.44504e-07
-7.22869e-07
2.27374e-07
1.92222e-07
-5.99831e-07
1.2075e-07
7.11847e-08
-5.2199e-07
6.97829e-08
-9.51927e-08
-3.31221e-07
6.53315e-08
-3.14701e-07
-1.86465e-07
9.59043e-08
-5.09272e-07
-1.23607e-07
7.18677e-08
-5.92602e-07
-1.83756e-07
5.92669e-09
-5.86319e-07
-2.59348e-07
-5.01253e-08
-4.94653e-07
-3.41006e-07
-9.77685e-08
-3.73162e-07
-3.7855e-07
-1.09819e-07
-2.33882e-07
-4.18489e-07
-1.11607e-07
-1.01301e-07
-4.42835e-07
-9.62388e-08
1.5292e-08
-4.62739e-07
-7.51114e-08
1.06965e-07
-4.76492e-07
-4.87076e-08
1.73718e-07
-4.85099e-07
-2.40359e-08
2.13575e-07
-4.86336e-07
-3.36514e-10
2.32592e-07
-4.83672e-07
1.24782e-08
2.38206e-07
-4.77308e-07
1.81997e-08
2.36551e-07
-4.66979e-07
1.81991e-08
2.32032e-07
-4.52366e-07
1.3979e-08
2.28458e-07
-4.36251e-07
6.86975e-09
2.29061e-07
-4.21731e-07
-2.39505e-09
2.3849e-07
-4.10443e-07
-1.60356e-08
2.57075e-07
-4.00757e-07
-2.8553e-08
2.83968e-07
-3.91616e-07
-3.96059e-08
3.19837e-07
-3.8506e-07
-4.98837e-08
3.6721e-07
-3.83479e-07
-5.99961e-08
4.28936e-07
-3.8787e-07
-6.95053e-08
5.08747e-07
-4.00107e-07
-7.83316e-08
6.12139e-07
-4.24114e-07
-8.65694e-08
7.46317e-07
-4.66522e-07
-9.32094e-08
9.17662e-07
-5.33502e-07
-9.43277e-08
1.13033e-06
-6.27537e-07
-8.68669e-08
1.38541e-06
-7.45975e-07
-6.92294e-08
1.68757e-06
-8.83412e-07
-4.56391e-08
2.06128e-06
-1.03294e-06
-3.27383e-08
2.5849e-06
-1.18883e-06
-7.32338e-08
3.39051e-06
-1.3318e-06
-2.20991e-07
4.50676e-06
-1.26165e-06
-4.82047e-07
5.41283e-06
-9.48475e-07
-4.26078e-07
5.20027e-06
-2.39531e-07
2.70468e-07
3.80913e-06
8.21312e-07
6.66765e-07
4.42583e-06
-1.61709e-06
1.18663e-06
6.85483e-06
-1.11656e-05
3.42137e-06
6.01701e-06
-1.31417e-05
4.59322e-06
4.20486e-06
-7.80262e-06
2.82424e-06
3.80939e-06
-1.23017e-06
-5.98754e-07
6.18373e-06
1.01027e-06
-3.75841e-06
8.86996e-06
1.00374e-06
-3.23961e-06
1.0821e-05
2.48695e-06
-2.69218e-06
1.3517e-05
1.65566e-06
-1.91513e-06
1.46782e-05
4.8052e-06
-1.12201e-06
1.86707e-05
5.6836e-06
-6.7935e-06
6.67628e-06
2.64114e-05
9.97296e-06
3.07444e-05
2.83371e-06
-4.89968e-06
1.58092e-05
-3.2369e-05
-6.15712e-06
1.51327e-05
-2.00617e-05
5.8125e-06
1.47014e-05
-1.24938e-05
5.69944e-06
1.44385e-05
-1.04807e-05
3.70826e-06
1.32698e-05
-7.98283e-06
3.07655e-06
1.3445e-05
-5.64563e-06
8.69848e-07
1.45504e-05
-1.91317e-06
-1.9125e-06
1.59606e-05
2.10012e-06
-4.65011e-06
1.70502e-05
5.49345e-06
-7.00156e-06
1.74293e-05
6.89957e-06
-7.50045e-06
1.74238e-05
6.99486e-06
-7.17764e-06
1.77679e-05
7.33175e-06
-7.94909e-06
1.8394e-05
7.30392e-06
-7.96927e-06
1.97208e-05
5.38707e-06
-6.72083e-06
2.025e-05
3.97977e-06
-3.8043e-06
1.82414e-05
2.59003e-06
4.06015e-07
1.68542e-05
-1.28582e-06
2.5755e-06
1.7547e-05
-1.64425e-06
1.30384e-06
2.09096e-05
6.3805e-07
-1.89003e-06
2.37729e-05
4.63025e-06
-3.47129e-06
2.3657e-05
8.15771e-06
-3.22588e-06
1.9435e-05
1.04471e-05
-1.24113e-06
9.49207e-06
1.14452e-05
4.39948e-06
-4.35601e-07
8.92606e-06
5.84559e-06
-6.97784e-06
4.06086e-06
4.54938e-06
-1.1709e-05
2.45744e-06
3.37027e-06
-1.40501e-05
2.21123e-06
1.07201e-06
-1.38941e-05
2.35875e-06
-1.3238e-06
-1.26286e-05
2.20735e-06
-2.16643e-06
-1.079e-05
1.07848e-06
-2.07748e-06
-9.29169e-06
-5.32649e-07
-8.04058e-07
-8.65071e-06
-2.12365e-06
7.79017e-07
-8.25109e-06
-3.33818e-06
1.3829e-06
-7.00291e-06
-4.63686e-06
1.15522e-06
-4.10436e-06
-6.3434e-06
2.31248e-07
-7.03012e-06
-5.52475e-07
-2.10284e-06
-3.81107e-06
-4.85986e-07
-8.76026e-07
-4.37355e-06
-7.68705e-07
-3.70054e-07
-2.68479e-06
1.20059e-07
1.04529e-07
-2.18325e-06
4.46557e-08
2.8823e-07
-8.47631e-07
-6.08146e-08
1.84278e-07
-5.60945e-07
-5.09796e-08
4.78901e-08
-3.03722e-07
-1.52838e-07
-9.8186e-08
-2.07973e-07
-1.6264e-07
-2.27218e-07
-2.36969e-08
-1.74804e-07
-3.44354e-07
7.96589e-08
-1.47142e-07
-4.52615e-07
1.29019e-07
-1.43218e-07
-5.05254e-07
5.30505e-08
-1.8357e-07
-5.1674e-07
-2.0389e-08
-2.26905e-07
-4.80531e-07
-1.10689e-07
-2.66168e-07
-4.17971e-07
-1.58484e-07
-2.82286e-07
-3.3432e-07
-2.06585e-07
-2.95315e-07
-2.41675e-07
-2.36465e-07
-2.98803e-07
-1.50039e-07
-2.57839e-07
-2.96386e-07
-6.90649e-08
-2.68965e-07
-2.8836e-07
5.53344e-10
-2.75193e-07
-2.79417e-07
5.82249e-08
-2.72706e-07
-2.71199e-07
1.02062e-07
-2.62373e-07
-2.65044e-07
1.33774e-07
-2.482e-07
-2.60727e-07
1.55841e-07
-2.31185e-07
-2.57777e-07
1.71544e-07
-2.1214e-07
-2.55838e-07
1.84073e-07
-1.93496e-07
-2.55198e-07
1.95948e-07
-1.77623e-07
-2.5589e-07
2.08987e-07
-1.65278e-07
-2.58109e-07
2.26536e-07
-1.56282e-07
-2.61914e-07
2.51317e-07
-1.4969e-07
-2.66594e-07
2.85337e-07
-1.47618e-07
-2.71328e-07
3.30519e-07
-1.53045e-07
-2.75482e-07
3.88386e-07
-1.66924e-07
-2.78656e-07
4.59815e-07
-1.91406e-07
-2.79972e-07
5.43846e-07
-2.3031e-07
-2.77647e-07
6.38055e-07
-2.9013e-07
-2.70411e-07
7.42733e-07
-3.79521e-07
-2.58434e-07
8.6713e-07
-5.0554e-07
-2.46164e-07
1.03135e-06
-6.7007e-07
-2.39848e-07
1.27603e-06
-8.75211e-07
-2.52552e-07
1.67154e-06
-1.12403e-06
-3.03973e-07
2.34892e-06
-1.43244e-06
-4.32989e-07
3.46687e-06
-1.77806e-06
-6.68242e-07
4.99358e-06
-1.9181e-06
-8.55602e-07
6.08678e-06
-1.50659e-06
-4.88143e-07
5.61281e-06
-6.33014e-08
3.86182e-07
4.44483e-06
1.22589e-06
9.21527e-07
3.47342e-06
-2.49067e-06
2.00933e-06
-2.11763e-06
-1.1147e-05
5.64715e-06
-8.16546e-06
-1.31409e-05
6.04869e-06
-9.01215e-06
-9.41655e-06
2.45258e-06
-4.86955e-06
-2.35954e-06
-3.06695e-06
2.20368e-06
-5.27098e-07
-5.60966e-06
6.92165e-06
5.86082e-07
-4.35294e-06
1.26412e-05
1.10473e-06
-4.28742e-06
1.82087e-05
-1.34959e-06
-2.67544e-06
2.03235e-05
7.24029e-06
-3.66114e-06
2.3829e-05
6.65513e-06
-5.97978e-06
7.86039e-06
3.81951e-05
1.70113e-05
3.21471e-05
3.35444e-06
-2.98507e-06
1.18201e-05
-3.34684e-05
-9.84258e-06
8.6525e-06
-2.03693e-05
2.73187e-06
9.01537e-06
-1.38255e-05
9.68229e-07
5.02826e-06
-8.26066e-06
1.76708e-06
4.23711e-06
-5.25775e-06
-1.93393e-06
4.36574e-06
-1.63649e-06
-4.13776e-06
6.33313e-06
1.13526e-06
-5.01583e-06
8.62742e-06
5.07769e-06
-5.27185e-06
1.07968e-05
8.56821e-06
-5.24413e-06
1.31458e-05
9.98033e-06
-5.42975e-06
1.51187e-05
1.03663e-05
-5.34436e-06
1.65941e-05
1.00823e-05
-4.22595e-06
1.84757e-05
7.55474e-06
-2.13243e-06
1.9504e-05
4.19881e-06
1.59916e-07
1.72775e-05
2.70503e-06
3.50126e-06
1.38034e-05
1.4442e-06
4.61995e-06
1.00861e-05
-1.36724e-06
3.79874e-06
9.19851e-06
-1.5842e-06
8.27526e-07
1.10201e-05
1.75767e-06
-2.9412e-06
1.22419e-05
7.3144e-06
-3.90599e-06
9.70639e-06
1.23192e-05
-1.62594e-06
3.18537e-06
1.42581e-05
2.70996e-06
-2.49302e-06
1.19783e-05
5.14533e-06
-5.49979e-06
7.67161e-06
4.26121e-06
-8.85706e-06
4.19348e-06
3.22465e-06
-1.18779e-05
3.1606e-06
2.31765e-06
-1.37695e-05
3.13008e-06
9.72777e-07
-1.34527e-05
3.40301e-06
-1.36105e-06
-1.19242e-05
2.69382e-06
-2.01498e-06
-9.8422e-06
1.04859e-06
-2.05208e-06
-8.53795e-06
-1.18204e-06
-6.54848e-07
-8.03597e-06
-3.06681e-06
4.41181e-07
-7.67683e-06
-4.36093e-06
6.63603e-07
-6.7069e-06
-5.1951e-06
-4.11693e-07
-5.00722e-06
-6.52002e-06
-1.52306e-06
-8.82545e-06
-3.21189e-06
-2.52659e-06
-3.85607e-06
-2.41464e-07
-1.3564e-06
-4.60756e-06
-9.27722e-07
-8.89311e-07
-3.16089e-06
1.6807e-08
-2.9561e-07
-2.80876e-06
3.99481e-08
5.50386e-08
-1.20323e-06
1.35879e-08
4.76633e-08
-5.33523e-07
-1.3067e-08
5.87108e-09
-8.25211e-08
-1.73079e-07
-8.40258e-08
7.05778e-08
-1.83677e-07
-1.52049e-07
2.56327e-07
-2.08156e-07
-2.25827e-07
3.54603e-07
-1.99065e-07
-2.96124e-07
4.21308e-07
-2.20638e-07
-3.6661e-07
3.73613e-07
-2.49249e-07
-4.23455e-07
3.16025e-07
-2.78866e-07
-4.34866e-07
2.12539e-07
-3.1132e-07
-4.14349e-07
1.49771e-07
-3.28286e-07
-3.67252e-07
9.39786e-08
-3.47233e-07
-3.01304e-07
6.10476e-08
-3.63052e-07
-2.28129e-07
4.63474e-08
-3.76989e-07
-1.56778e-07
4.47906e-08
-3.84738e-07
-8.99831e-08
4.71828e-08
-3.88819e-07
-2.98844e-08
5.61972e-08
-3.8866e-07
2.42709e-08
7.00346e-08
-3.86231e-07
6.97659e-08
8.74074e-08
-3.80788e-07
1.05483e-07
1.07197e-07
-3.7378e-07
1.32146e-07
1.28307e-07
-3.66809e-07
1.51695e-07
1.47966e-07
-3.607e-07
1.6724e-07
1.62973e-07
-3.55848e-07
1.82341e-07
1.72354e-07
-3.52429e-07
1.99465e-07
1.77404e-07
-3.50527e-07
2.20601e-07
1.79306e-07
-3.49832e-07
2.47336e-07
1.75733e-07
-3.49811e-07
2.81265e-07
1.62882e-07
-3.49558e-07
3.23538e-07
1.38678e-07
-3.47599e-07
3.73399e-07
1.01294e-07
-3.42242e-07
4.27904e-07
4.74354e-08
-3.31936e-07
4.8289e-07
-2.76819e-08
-3.17057e-07
5.40198e-07
-1.36231e-07
-3.00215e-07
6.14165e-07
-2.89314e-07
-2.89719e-07
7.36186e-07
-4.96211e-07
-2.95407e-07
9.62827e-07
-7.69405e-07
-3.31881e-07
1.37751e-06
-1.12542e-06
-4.12665e-07
2.10852e-06
-1.60394e-06
-5.58137e-07
3.26833e-06
-2.17568e-06
-7.55495e-07
4.7002e-06
-2.53886e-06
-7.86033e-07
5.60724e-06
-2.09755e-06
-2.53354e-07
5.57996e-06
-5.31003e-07
6.07575e-07
5.46367e-06
8.41466e-07
6.8364e-07
1.23983e-06
-5.12204e-07
2.33102e-06
-7.92932e-06
-8.1685e-06
6.32741e-06
-1.29473e-05
-1.3866e-05
5.79818e-06
-1.19583e-05
-1.21482e-05
1.77157e-06
-4.64444e-06
-4.98956e-06
-4.67826e-06
3.07188e-06
-1.19329e-06
-7.04238e-06
3.96958e-06
3.32698e-06
-3.7557e-06
5.81592e-06
2.06421e-06
-2.78067e-06
-1.65948e-06
6.68245e-06
-1.01657e-06
5.73219e-06
1.59095e-05
-1.41021e-05
1.27165e-05
1.11613e-05
-1.20154e-05
1.73126e-05
4.07034e-05
1.22388e-05
3.56404e-05
4.23008e-06
-1.21861e-06
7.24092e-06
-2.89323e-05
-1.1327e-05
2.91881e-07
-1.83386e-05
4.32769e-06
1.62411e-06
-1.49017e-05
-2.56871e-07
-4.41772e-06
-4.2867e-06
2.06774e-06
-4.29423e-06
-2.21623e-06
-3.1652e-06
-3.79971e-06
3.05814e-06
-5.18922e-06
-2.43158e-06
5.7435e-06
-5.97639e-06
9.03686e-08
8.71924e-06
-6.16351e-06
3.34115e-06
1.08286e-05
-5.51114e-06
7.69221e-06
1.08507e-05
-5.22147e-06
1.25013e-05
9.03696e-06
-3.4798e-06
1.57442e-05
6.79856e-06
4.0907e-08
1.51107e-05
3.77776e-06
4.41047e-06
1.1118e-05
2.53874e-06
5.65278e-06
2.9126e-06
4.26556e-06
6.64482e-06
-4.28675e-06
5.01493e-06
3.62862e-06
-7.4684e-06
2.73186e-06
-9.17457e-07
-8.89047e-06
1.69299e-06
-1.85511e-06
-1.05024e-05
3.3618e-06
7.83791e-09
-1.10535e-05
5.55995e-06
2.30552e-06
-1.07375e-05
7.26456e-06
4.73865e-06
-9.6698e-06
6.89344e-06
6.29696e-06
-8.03547e-06
5.17588e-06
5.1681e-06
-7.50024e-06
3.71203e-06
3.42436e-06
-8.59235e-06
2.6326e-06
2.65299e-06
-1.03512e-05
2.56727e-06
2.35218e-06
-1.14726e-05
2.925e-06
1.3265e-06
-1.08262e-05
3.56754e-06
-8.10974e-07
-9.27892e-06
3.08162e-06
-1.93503e-06
-7.57468e-06
1.13042e-06
-1.78607e-06
-7.03795e-06
-8.84365e-07
-8.34415e-07
-7.13983e-06
-2.90005e-06
-6.48799e-08
-7.01098e-06
-4.63669e-06
1.46907e-07
-6.39103e-06
-5.53566e-06
-2.79394e-07
-4.74833e-06
-5.75014e-06
-2.41258e-06
-7.57167e-06
-6.00211e-06
-2.94845e-06
-3.77227e-06
-6.33066e-09
-1.84088e-06
-4.7553e-06
-9.52768e-07
-1.45339e-06
-3.49572e-06
-4.53443e-08
-7.01392e-07
-3.49527e-06
-5.74346e-08
-2.22656e-07
-1.87231e-06
1.994e-07
-2.84799e-08
-8.18889e-07
9.92819e-08
4.10206e-08
1.00826e-08
-1.54664e-07
-3.76507e-08
3.19393e-07
-1.64936e-07
-4.268e-08
4.84438e-07
-2.19028e-07
-8.98523e-08
6.17593e-07
-2.13305e-07
-1.50691e-07
7.1433e-07
-2.30481e-07
-2.47384e-07
7.03056e-07
-2.31777e-07
-3.44215e-07
6.58284e-07
-2.44732e-07
-3.92999e-07
5.30195e-07
-2.68477e-07
-3.93637e-07
4.34692e-07
-2.83951e-07
-3.60539e-07
3.6535e-07
-3.04222e-07
-3.07805e-07
3.32677e-07
-3.24149e-07
-2.50178e-07
3.33229e-07
-3.44345e-07
-1.91923e-07
3.47778e-07
-3.61087e-07
-1.33847e-07
3.63294e-07
-3.74075e-07
-7.62109e-08
3.81307e-07
-3.82642e-07
-1.94185e-08
4.00682e-07
-3.87376e-07
3.18954e-08
4.23179e-07
-3.87027e-07
7.52922e-08
4.46169e-07
-3.82339e-07
1.10162e-07
4.68176e-07
-3.74705e-07
1.37493e-07
4.86282e-07
-3.6564e-07
1.59205e-07
4.97427e-07
-3.56143e-07
1.77734e-07
5.01296e-07
-3.47469e-07
1.93829e-07
5.00768e-07
-3.39427e-07
2.08662e-07
4.96508e-07
-3.32019e-07
2.24177e-07
4.8538e-07
-3.25104e-07
2.42173e-07
4.62935e-07
-3.18006e-07
2.62164e-07
4.2849e-07
-3.09709e-07
2.8196e-07
3.80667e-07
-2.99094e-07
2.98263e-07
3.16836e-07
-2.85581e-07
3.09692e-07
2.31841e-07
-2.70851e-07
3.21995e-07
1.11362e-07
-2.59734e-07
3.53805e-07
-6.0803e-08
-2.60165e-07
4.30536e-07
-2.9076e-07
-2.81976e-07
6.04472e-07
-6.13639e-07
-3.29483e-07
9.31852e-07
-1.05421e-06
-3.98154e-07
1.48212e-06
-1.66863e-06
-4.83403e-07
2.36635e-06
-2.49047e-06
-5.56975e-07
3.47476e-06
-3.20134e-06
-4.1006e-07
4.2402e-06
-2.9732e-06
1.83184e-07
4.87716e-06
-1.64721e-06
5.95954e-07
5.76954e-06
7.45822e-08
4.14777e-08
1.34651e-06
2.39817e-06
1.59385e-06
-9.25698e-06
-2.89968e-06
5.45873e-06
-1.63746e-05
-1.19127e-05
5.19863e-06
-1.72495e-05
-1.11254e-05
-1.02083e-07
-1.23843e-05
-3.80389e-06
-6.08147e-06
-9.64301e-06
2.3586e-06
-6.35456e-06
-1.23877e-05
7.43791e-06
-1.34241e-06
-1.79196e-05
7.91265e-06
-1.29166e-07
-1.839e-05
1.22273e-05
-5.28567e-06
-1.57977e-05
2.78121e-05
-1.11973e-05
-1.34846e-05
1.56584e-05
-9.75965e-06
2.05286e-05
2.24347e-05
6.93372e-06
4.04865e-05
1.05521e-06
-1.75956e-06
4.9168e-06
-1.83297e-05
-1.3503e-05
-7.8031e-06
-1.12279e-05
4.47883e-06
-1.19124e-05
-1.076e-05
-3.58778e-08
-1.36945e-05
-3.48353e-06
9.77719e-07
-1.21678e-05
-9.33457e-07
-2.81299e-06
-8.18945e-06
3.01886e-06
-3.94282e-06
-5.10855e-06
6.06553e-06
-3.40518e-06
-1.30713e-06
7.4064e-06
-2.48996e-06
2.42282e-06
8.06438e-06
-9.66527e-07
4.55954e-06
7.71867e-06
9.95143e-07
3.6325e-06
7.10348e-06
2.86036e-06
-1.17256e-06
7.13296e-06
4.47062e-06
-9.05058e-06
6.745e-06
4.9109e-06
-1.55275e-05
6.27889e-06
2.73683e-06
-1.87595e-05
6.26204e-06
1.23566e-06
-1.95204e-05
5.26735e-06
5.08677e-07
-2.07701e-05
2.99955e-06
9.81975e-07
-2.25693e-05
1.87199e-06
1.62016e-06
-2.27023e-05
1.50598e-06
1.98914e-06
-2.11486e-05
1.60108e-06
2.40536e-06
-1.8057e-05
1.40496e-06
2.76832e-06
-1.40344e-05
2.16166e-07
2.65458e-06
-1.04011e-05
-6.93649e-07
2.23633e-06
-8.10137e-06
-6.66379e-07
2.07869e-06
-7.32456e-06
-6.10021e-07
2.46583e-06
-7.94835e-06
-2.46601e-07
3.43766e-06
-8.38358e-06
4.90861e-07
2.86936e-06
-7.38425e-06
1.32245e-06
1.24576e-06
-6.41195e-06
1.91262e-06
1.96698e-07
-5.56534e-06
1.02657e-06
-7.42753e-07
-5.63572e-06
-9.70395e-07
1.56414e-07
-6.0944e-06
-2.86811e-06
4.26742e-07
-6.59565e-06
-4.33614e-06
2.00702e-07
-6.45511e-06
-4.86383e-06
-8.12366e-07
-4.02528e-06
-4.23745e-06
-3.94252e-06
-4.88879e-06
-6.70817e-06
-3.36176e-06
-3.59756e-06
3.74588e-07
-2.37646e-06
-4.91406e-06
-8.21185e-07
-2.02135e-06
-3.71157e-06
-1.32667e-07
-1.065e-06
-3.93729e-06
-5.05719e-07
-4.26272e-07
-2.68562e-06
1.84264e-07
-2.92985e-08
-1.37386e-06
1.66801e-07
1.36477e-07
-4.34779e-08
-1.0358e-07
5.06219e-08
5.11821e-07
-1.00572e-07
8.929e-08
6.51568e-07
-2.01499e-07
4.21258e-08
8.36649e-07
-1.68868e-07
-1.97579e-08
9.63292e-07
-1.84934e-07
-1.56286e-07
1.02138e-06
-1.80519e-07
-2.99136e-07
9.92802e-07
-1.90679e-07
-3.67279e-07
8.15395e-07
-2.16389e-07
-3.59082e-07
6.73068e-07
-2.45937e-07
-3.13739e-07
5.96386e-07
-2.75795e-07
-2.5625e-07
5.7754e-07
-3.01795e-07
-2.08688e-07
6.08299e-07
-3.2208e-07
-1.71345e-07
6.49793e-07
-3.38802e-07
-1.3752e-07
6.82245e-07
-3.52221e-07
-1.0313e-07
7.08726e-07
-3.61266e-07
-6.49254e-08
7.29102e-07
-3.66088e-07
-2.60695e-08
7.49587e-07
-3.64752e-07
1.07407e-08
7.68892e-07
-3.59024e-07
4.11333e-08
7.88157e-07
-3.49889e-07
6.55206e-08
8.00757e-07
-3.38365e-07
8.6545e-08
8.02487e-07
-3.25617e-07
1.05535e-07
7.95771e-07
-3.12977e-07
1.21663e-07
7.85263e-07
-3.00162e-07
1.33724e-07
7.72799e-07
-2.87857e-07
1.4082e-07
7.55217e-07
-2.76464e-07
1.43584e-07
7.26653e-07
-2.65971e-07
1.41815e-07
6.86343e-07
-2.55604e-07
1.34318e-07
6.33629e-07
-2.44935e-07
1.19845e-07
5.66122e-07
-2.34317e-07
9.80931e-08
4.79899e-07
-2.25755e-07
7.37698e-08
3.59917e-07
-2.23727e-07
5.70521e-08
1.88974e-07
-2.3253e-07
6.27313e-08
-4.35077e-08
-2.52439e-07
1.03856e-07
-3.75814e-07
-2.78274e-07
1.56187e-07
-8.13592e-07
-2.91929e-07
2.56006e-07
-1.47143e-06
-2.91995e-07
5.27896e-07
-2.55515e-06
-1.88972e-07
8.78822e-07
-3.59867e-06
9.12223e-08
1.00474e-06
-3.54066e-06
5.18868e-07
1.52079e-06
-2.58286e-06
5.35194e-07
2.98609e-06
-5.83158e-07
-6.87131e-07
3.89989e-06
2.75924e-06
-1.12418e-06
-3.50491e-06
2.59087e-06
1.98305e-06
-1.44715e-05
-3.54465e-06
2.70469e-06
-1.93958e-05
-3.85669e-06
-2.3133e-06
-1.95555e-05
9.83823e-07
-4.69593e-06
-2.17537e-05
6.31468e-06
-1.82686e-06
-2.56762e-05
1.06848e-05
6.45441e-07
-2.81037e-05
1.18364e-05
-1.32256e-06
-2.46992e-05
1.23116e-05
-4.3787e-06
3.93738e-06
1.34607e-05
-1.1292e-05
8.24876e-06
9.25635e-06
-5.21998e-07
2.36349e-05
1.08255e-05
1.94724e-05
4.3414e-05
1.60836e-06
-7.1982e-07
6.25342e-06
-9.98232e-06
-1.22012e-05
-1.13335e-05
1.91645e-07
5.04712e-06
-1.99768e-05
-2.92228e-06
7.89688e-07
-2.3314e-05
-8.25338e-07
6.64501e-07
-2.19805e-05
-5.70365e-07
-1.72363e-06
-1.76035e-05
8.34558e-07
-2.22659e-06
-1.39631e-05
2.93936e-06
-5.2763e-07
-1.0898e-05
3.98728e-06
3.51478e-07
-9.15949e-06
4.80895e-06
1.5172e-06
-8.94044e-06
5.32504e-06
2.17683e-06
-1.07964e-05
6.30768e-06
2.65553e-06
-1.44168e-05
7.70275e-06
3.05741e-06
-1.87325e-05
8.12569e-06
2.94651e-06
-2.18818e-05
6.93615e-06
2.49942e-06
-2.36683e-05
5.82422e-06
2.2302e-06
-2.56345e-05
4.8132e-06
2.42598e-06
-2.8697e-05
3.31578e-06
2.7507e-06
-3.18255e-05
1.92562e-06
3.07428e-06
-3.39752e-05
6.01384e-07
3.05186e-06
-3.46721e-05
-4.90959e-07
2.78776e-06
-3.36484e-05
-2.08261e-06
2.45548e-06
-3.12526e-05
-3.97872e-06
1.78009e-06
-2.74126e-05
-5.49583e-06
9.38423e-07
-2.2418e-05
-6.2388e-06
5.54523e-07
-1.7175e-05
-6.53318e-06
6.60875e-07
-1.29864e-05
-5.90679e-06
1.45801e-06
-9.98106e-06
-4.6983e-06
2.17599e-06
-7.08217e-06
-3.18014e-06
1.59945e-06
-4.94146e-06
-8.90441e-07
6.62888e-07
-3.4871e-06
-9.64132e-08
-3.31185e-07
-3.30369e-06
-8.51943e-07
-3.01919e-07
-3.82718e-06
-1.84311e-06
-5.01635e-07
-4.51991e-06
-2.4665e-06
-1.17707e-06
-4.54065e-06
-2.11321e-06
-2.72996e-06
-2.50964e-06
-4.1174e-07
-5.85676e-06
5.9879e-07
-7.99726e-06
-3.6844e-06
-3.29441e-06
8.19002e-07
-2.87231e-06
-4.95578e-06
-7.66605e-07
-2.53723e-06
-3.70946e-06
-3.31697e-07
-1.34433e-06
-3.97965e-06
-1.14198e-06
-5.42384e-07
-3.18892e-06
-2.88204e-07
2.43975e-08
-1.91958e-06
-1.28586e-08
2.04065e-07
-6.43485e-08
-1.4974e-07
7.56654e-08
7.31214e-07
-8.30454e-08
1.4941e-07
8.10822e-07
-2.28759e-07
1.00501e-07
1.05413e-06
-1.6552e-07
4.10258e-08
1.20207e-06
-1.7732e-07
-9.86434e-08
1.29105e-06
-1.28869e-07
-2.32231e-07
1.26634e-06
-1.39292e-07
-2.8105e-07
1.0503e-06
-1.85929e-07
-2.60643e-07
8.92739e-07
-2.40014e-07
-2.16533e-07
8.29564e-07
-2.7731e-07
-1.71373e-07
8.35269e-07
-3.02933e-07
-1.4577e-07
8.96419e-07
-3.13811e-07
-1.38071e-07
9.61545e-07
-3.19553e-07
-1.3804e-07
1.00639e-06
-3.24327e-07
-1.39335e-07
1.03722e-06
-3.27361e-07
-1.36533e-07
1.05453e-06
-3.2842e-07
-1.28672e-07
1.06654e-06
-3.25003e-07
-1.17532e-07
1.0751e-06
-3.17555e-07
-1.08e-07
1.0835e-06
-3.05067e-07
-9.92089e-08
1.08296e-06
-2.91183e-07
-8.68718e-08
1.06827e-06
-2.78258e-07
-7.2085e-08
1.04685e-06
-2.65996e-07
-5.70734e-08
1.02417e-06
-2.54013e-07
-4.65696e-08
1.00461e-06
-2.42423e-07
-4.51318e-08
9.84898e-07
-2.31182e-07
-5.3826e-08
9.5575e-07
-2.20481e-07
-7.37205e-08
9.15975e-07
-2.09755e-07
-1.04248e-07
8.62482e-07
-1.98335e-07
-1.43415e-07
7.93689e-07
-1.88328e-07
-1.92533e-07
7.09384e-07
-1.80272e-07
-2.48509e-07
5.93066e-07
-1.76979e-07
-3.06465e-07
4.27014e-07
-1.79859e-07
-3.73742e-07
2.08876e-07
-1.84776e-07
-5.38638e-07
-3.44262e-08
-1.76201e-07
-9.14492e-07
-3.19532e-07
-1.17108e-07
-1.6202e-06
-7.6582e-07
6.57432e-09
-2.6434e-06
-1.82982e-06
3.14131e-07
-3.98181e-06
-2.81336e-06
5.79164e-07
-5.05483e-06
-2.93097e-06
5.12478e-07
-4.76128e-06
-2.72635e-06
-4.52401e-08
-1.62128e-06
-1.51981e-06
-2.06124e-06
1.63151e-06
2.99122e-06
-3.31321e-06
-3.95637e-06
7.36205e-06
8.90041e-07
-1.65284e-05
7.12708e-06
1.95029e-06
-2.47562e-05
7.65432e-06
-3.25602e-06
-2.88509e-05
1.006e-05
-5.0307e-06
-3.40836e-05
1.28134e-05
-1.3295e-06
-3.83162e-05
1.49325e-05
-4.65335e-08
-4.08597e-05
1.45357e-05
-5.84424e-08
-3.39326e-05
5.37651e-06
-1.03438e-06
6.36779e-06
-1.39177e-05
-7.61115e-06
1.32097e-05
-2.0302e-06
4.28446e-06
3.26775e-05
-1.51491e-06
1.7017e-05
4.44776e-05
3.16402e-06
-1.22478e-07
-5.12442e-06
3.03811e-06
-6.46983e-06
-2.72217e-05
1.29343e-05
8.63649e-06
-3.8144e-05
4.63967e-06
3.4037e-06
-4.33829e-05
1.96297e-06
2.45334e-06
-4.47748e-05
5.26417e-07
2.89113e-07
-4.40626e-05
1.21139e-07
-3.51589e-09
-4.44166e-05
1.76759e-06
1.51847e-06
-4.36917e-05
9.69052e-07
2.30968e-06
-4.34531e-05
1.95524e-06
2.65224e-06
-4.32348e-05
2.48554e-06
2.69321e-06
-4.44805e-05
4.88416e-06
2.77507e-06
-4.58024e-05
5.90852e-06
3.2433e-06
-4.79733e-05
6.7747e-06
3.64265e-06
-5.16973e-05
6.83888e-06
3.91731e-06
-5.53018e-05
5.69036e-06
3.812e-06
-5.85035e-05
4.45447e-06
3.61804e-06
-6.11415e-05
2.54194e-06
3.4535e-06
-6.22508e-05
1.32898e-07
2.92409e-06
-6.21421e-05
-1.90649e-06
2.40365e-06
-6.12428e-05
-3.41328e-06
1.99364e-06
-5.98156e-05
-5.10373e-06
1.52982e-06
-5.77228e-05
-7.06736e-06
8.93219e-07
-5.527e-05
-8.37153e-06
2.87023e-07
-5.18355e-05
-9.54949e-06
-2.97845e-07
-4.71926e-05
-1.05645e-05
-8.32164e-07
-4.14788e-05
-1.09919e-05
-8.85415e-07
-3.46096e-05
-1.04803e-05
-1.36218e-06
-2.68645e-05
-9.45448e-06
-1.75118e-06
-1.86224e-05
-6.33242e-06
-3.02702e-06
-1.13721e-05
-3.45955e-06
-4.0271e-06
-6.67589e-06
-1.31422e-06
-4.30712e-06
-4.31056e-06
3.01627e-07
-4.54319e-06
-3.86847e-06
2.03368e-06
-4.96452e-06
-3.84217e-06
3.26219e-06
-5.42143e-06
-1.97558e-06
4.74586e-06
-7.03477e-06
6.64162e-06
-8.02321e-06
-3.64208e-06
-2.87244e-06
1.45435e-06
-3.22212e-06
-4.6522e-06
-7.20272e-07
-3.12592e-06
-3.55778e-06
-2.42536e-07
-1.83847e-06
-3.87166e-06
-1.38707e-06
-8.16184e-07
-3.49488e-06
-7.04611e-07
3.65837e-08
-2.41495e-06
-3.48963e-07
2.88811e-07
-1.42936e-07
-1.64342e-07
1.77613e-07
8.34934e-07
1.66287e-08
1.97016e-07
1.03373e-06
-2.37108e-07
8.84872e-08
1.2842e-06
-1.1811e-07
5.13211e-08
1.39789e-06
-1.56213e-07
4.99684e-09
1.48202e-06
-1.43482e-07
-1.4024e-08
1.48228e-06
-1.96104e-07
-1.47948e-08
1.3239e-06
-2.72561e-07
-7.81984e-09
1.23199e-06
-3.45779e-07
-2.06101e-08
1.23299e-06
-3.90337e-07
-5.06047e-08
1.28816e-06
-4.22569e-07
-9.13368e-08
1.37718e-06
-4.39759e-07
-1.37138e-07
1.45971e-06
-4.5209e-07
-1.86884e-07
1.51949e-06
-4.63098e-07
-2.32375e-07
1.55442e-06
-4.71476e-07
-2.63573e-07
1.56348e-06
-4.77575e-07
-2.82064e-07
1.56571e-06
-4.80556e-07
-2.90041e-07
1.56384e-06
-4.80696e-07
-2.8825e-07
1.56003e-06
-4.78332e-07
-2.8066e-07
1.55e-06
-4.74716e-07
-2.69836e-07
1.52942e-06
-4.72126e-07
-2.55602e-07
1.50204e-06
-4.69606e-07
-2.40293e-07
1.47502e-06
-4.66376e-07
-2.317e-07
1.45775e-06
-4.61937e-07
-2.38688e-07
1.44801e-06
-4.56332e-07
-2.63814e-07
1.43143e-06
-4.50734e-07
-3.0896e-07
1.40648e-06
-4.45544e-07
-3.72524e-07
1.3684e-06
-4.42491e-07
-4.45706e-07
1.31054e-06
-4.43825e-07
-5.25396e-07
1.23726e-06
-4.48305e-07
-6.09426e-07
1.13397e-06
-4.56982e-07
-7.13562e-07
9.9489e-07
-4.63756e-07
-9.02558e-07
8.46497e-07
-4.48574e-07
-1.3196e-06
7.53787e-07
-3.70895e-07
-2.19178e-06
7.33578e-07
-1.7951e-07
-3.75801e-06
5.79433e-07
2.25982e-07
-6.13379e-06
-1.89442e-07
7.42538e-07
-8.66462e-06
-1.25374e-06
9.82847e-07
-1.02724e-05
-1.91092e-06
6.25674e-07
-1.00082e-05
-2.32848e-06
-5.55151e-07
-6.36553e-06
-1.59396e-06
-3.38027e-06
-1.23233e-06
2.88548e-06
-4.7599e-06
-6.8533e-06
1.20017e-05
1.04922e-06
-2.09101e-05
1.64105e-05
4.76772e-06
-2.92479e-05
1.66296e-05
-6.41194e-07
-3.36526e-05
1.83672e-05
-3.9515e-06
-3.94025e-05
1.83827e-05
1.35273e-07
-4.4368e-05
1.77834e-05
2.11316e-06
-4.80291e-05
1.70596e-05
1.3687e-06
-4.38182e-05
2.45027e-06
-1.15732e-06
-5.7023e-05
3.32031e-06
-3.76726e-06
-5.63561e-05
-8.506e-06
3.08799e-06
4.36971e-05
-6.441e-05
5.01838e-06
4.41838e-05
1.96987e-06
-2.24654e-06
-3.01745e-05
2.98691e-05
3.78252e-06
-4.34985e-05
1.41328e-05
1.13626e-05
-5.81223e-05
1.18731e-05
7.55943e-06
-6.25011e-05
8.79101e-07
5.53844e-06
-6.74505e-05
2.0285e-06
3.45549e-06
-6.88615e-05
-2.69886e-06
4.2921e-06
-7.19287e-05
-2.11734e-06
6.93264e-06
-7.41913e-05
-3.87633e-06
7.12264e-06
-7.57998e-05
-3.5676e-06
7.22838e-06
-7.75448e-05
-2.15161e-06
6.5878e-06
-7.64583e-05
-9.90065e-07
5.05705e-06
-7.53042e-05
1.94168e-06
3.02344e-06
-7.50373e-05
4.37194e-06
2.26236e-06
-7.49717e-05
4.76871e-06
2.08694e-06
-7.48085e-05
3.36999e-06
2.21374e-06
-7.39047e-05
1.71829e-06
1.8986e-06
-7.31381e-05
1.11958e-07
1.74351e-06
-7.2385e-05
-2.33701e-06
1.82981e-06
-7.19253e-05
-4.40155e-06
2.15328e-06
-7.15967e-05
-5.90717e-06
2.30427e-06
-7.15577e-05
-7.0197e-06
2.03342e-06
-7.20536e-05
-8.04888e-06
1.66406e-06
-7.24691e-05
-8.67186e-06
9.45399e-07
-7.27893e-05
-9.35594e-06
3.60488e-07
-7.27777e-05
-1.00113e-05
-3.43368e-07
-7.24781e-05
-9.611e-06
-1.46204e-06
-7.15817e-05
-9.46234e-06
-1.68832e-06
-6.99258e-05
-8.59744e-06
-2.29118e-06
-6.63873e-05
-6.14936e-06
-3.54135e-06
-6.17399e-05
-3.28115e-06
-4.70905e-06
-5.68557e-05
-3.50219e-07
-5.92567e-06
-4.97647e-05
7.93586e-07
-7.83092e-06
-4.24562e-05
3.50892e-06
-9.16256e-06
-3.26147e-05
3.6145e-06
-1.08523e-05
-1.73575e-05
2.63899e-07
-1.17726e-05
-2.68373e-06
-1.30443e-05
-3.19437e-06
-1.91349e-06
2.38535e-06
-3.43926e-06
-4.26774e-06
-1.38621e-07
-3.79508e-06
-3.37752e-06
1.81514e-07
-2.58912e-06
-3.94065e-06
-1.12805e-06
-1.34648e-06
-3.84067e-06
-8.83864e-07
-5.29511e-08
-2.96894e-06
-7.27867e-07
3.36637e-07
-6.53569e-07
1.3036e-07
2.14691e-07
5.05054e-07
4.59305e-07
1.81513e-07
9.5532e-07
1.1795e-07
5.83318e-08
1.14691e-06
2.64369e-07
1.00607e-07
1.20397e-06
1.54404e-07
1.38421e-07
1.27107e-06
1.74863e-07
1.91771e-07
1.27189e-06
1.58252e-07
1.87641e-07
1.17894e-06
1.49899e-07
1.54367e-07
1.13551e-06
1.30631e-07
9.01349e-08
1.17305e-06
1.24984e-07