/*--------------------------------*- C++ -*----------------------------------*\
| =========                 |                                                 |
| \\      /  F ield         | OpenFOAM: The Open Source CFD Toolbox           |
|  \\    /   O peration     | Version:  2.3.0                                 |
|   \\  /    A nd           | Web:      www.OpenFOAM.org                      |
|    \\/     M anipulation  |                                                 |
\*---------------------------------------------------------------------------*/
FoamFile
{
    version     2.0;
    format      ascii;
    class       surfaceScalarField;
    location    "47";
    object      phi.air;
}
// * * * * * * * * * * * * * * * * * * * * * * * * * * * * * * * * * * * * * //

dimensions      [0 3 -1 0 0 0 0];

internalField   nonuniform List<scalar> 
16448
(
-1.18888e-06
-2.5069e-06
4.61751e-07
8.12595e-07
-2.66721e-06
6.6574e-07
7.84151e-07
-1.07717e-06
1.10562e-06
6.46293e-07
-9.18777e-07
1.05664e-06
2.53585e-07
-4.99786e-07
8.92496e-07
1.05836e-07
-6.40408e-07
7.88161e-07
5.66176e-08
-6.39208e-07
6.8843e-07
2.2748e-08
-5.79762e-07
6.13637e-07
-7.83178e-08
-4.36144e-07
5.37216e-07
-2.60113e-07
-3.11145e-07
4.92949e-07
-4.53571e-07
-2.46667e-07
4.40135e-07
-5.52632e-07
-2.61168e-07
3.60239e-07
-5.50009e-07
-3.03408e-07
3.00796e-07
-4.56542e-07
-3.47288e-07
2.53831e-07
-3.39902e-07
-3.67123e-07
2.50495e-07
-2.08411e-07
-3.90999e-07
2.59518e-07
-9.01354e-08
-4.06701e-07
2.8844e-07
9.38477e-09
-4.21427e-07
3.2192e-07
8.29729e-08
-4.33692e-07
3.6012e-07
1.30273e-07
-4.42513e-07
3.95227e-07
1.51265e-07
-4.46908e-07
4.25933e-07
1.52927e-07
-4.52276e-07
4.5063e-07
1.43951e-07
-4.53594e-07
4.62588e-07
1.30995e-07
-4.50529e-07
4.63502e-07
1.18396e-07
-4.42987e-07
4.55604e-07
1.10321e-07
-4.33019e-07
4.41112e-07
1.10508e-07
-4.23569e-07
4.234e-07
1.21646e-07
-4.17118e-07
4.05999e-07
1.42578e-07
-4.10806e-07
3.89892e-07
1.70485e-07
-4.04425e-07
3.76538e-07
2.05073e-07
-3.99181e-07
3.64611e-07
2.48626e-07
-3.96228e-07
3.52695e-07
3.04387e-07
-3.9579e-07
3.40047e-07
3.77356e-07
-3.98798e-07
3.25849e-07
4.75352e-07
-4.07484e-07
3.09506e-07
6.09589e-07
-4.25789e-07
2.91572e-07
7.90444e-07
-4.56753e-07
2.75916e-07
1.01925e-06
-5.02061e-07
2.7327e-07
1.28905e-06
-5.60492e-07
2.90713e-07
1.58676e-06
-6.27335e-07
3.29644e-07
1.89349e-06
-6.92504e-07
3.85788e-07
2.2048e-06
-7.39288e-07
4.28e-07
2.5534e-06
-7.49578e-07
4.00991e-07
2.90307e-06
-6.35654e-07
2.85998e-07
3.03612e-06
-4.91656e-07
3.58618e-07
2.53634e-06
-2.44722e-07
7.44526e-07
1.44583e-06
-1.33485e-08
1.10387e-06
5.62094e-07
-3.36064e-08
9.17344e-07
3.32422e-06
-5.42114e-06
2.65901e-06
8.536e-06
-9.4267e-06
4.21493e-06
1.18966e-05
-6.82372e-06
3.46313e-06
1.25079e-05
-2.26291e-06
1.65163e-06
1.23522e-05
-3.97948e-07
5.53673e-07
1.25929e-05
4.78412e-07
-7.19107e-07
1.1928e-05
1.63621e-06
-9.713e-07
1.09243e-05
2.60081e-06
-1.59714e-06
6.24687e-06
4.39647e-06
2.8095e-07
8.73016e-06
4.29611e-06
-6.77969e-06
-1.02498e-05
1.35803e-05
5.04573e-06
-3.22498e-05
-2.42977e-06
-7.423e-06
-6.38489e-05
-1.93041e-05
4.49765e-06
-1.46742e-05
-6.07902e-06
1.09754e-05
3.14383e-05
-7.09058e-06
7.23636e-06
3.35514e-05
-7.06892e-06
5.40736e-06
3.49326e-05
-6.13403e-06
4.51785e-06
3.55101e-05
-4.66705e-06
3.9585e-06
3.52981e-05
-2.75851e-06
3.02199e-06
3.49e-05
-1.15939e-06
1.55856e-06
3.42637e-05
-4.19385e-07
1.04028e-06
3.42023e-05
-2.1444e-07
2.39369e-07
3.47051e-05
-1.87565e-07
-3.39574e-07
3.53346e-05
-2.74038e-07
-3.56083e-07
3.5691e-05
-3.57277e-08
-2.81514e-07
3.59941e-05
-7.5236e-09
-3.07116e-07
3.54772e-05
6.86456e-07
-1.61942e-07
3.48426e-05
9.73111e-07
-3.9015e-07
3.52111e-05
-9.76113e-08
-3.80444e-07
3.52714e-05
3.52422e-07
-4.0741e-07
3.41693e-05
2.08435e-06
-9.25181e-07
3.16215e-05
3.98199e-06
-1.44563e-06
2.85979e-05
4.77732e-06
-1.80944e-06
2.3944e-05
4.95197e-06
-2.87006e-07
1.3177e-05
5.91405e-06
4.87561e-06
1.59682e-06
4.87785e-06
6.77835e-06
-5.39602e-06
2.06912e-06
5.03981e-06
-1.04349e-05
1.09701e-06
4.06048e-06
-1.29562e-05
9.45438e-07
1.66791e-06
-1.28853e-05
1.19411e-06
-1.25641e-06
-1.17406e-05
1.31184e-06
-2.45978e-06
-1.0164e-05
8.46929e-07
-2.45302e-06
-8.91995e-06
1.66091e-07
-1.41747e-06
-8.17574e-06
-6.96187e-07
-2.43476e-08
-7.52754e-06
-1.55116e-06
9.48461e-07
-6.23951e-06
-2.23447e-06
9.96203e-07
-3.78638e-06
-3.21553e-06
7.43495e-07
-3.48049e-06
2.0613e-07
-1.75967e-06
-3.54369e-06
-2.64838e-07
-2.0994e-07
-3.92478e-06
-2.92159e-07
1.65687e-07
-2.06608e-06
6.13282e-07
4.48613e-07
-1.67049e-06
4.68792e-07
4.01341e-07
-7.31666e-07
2.79153e-07
2.56215e-07
-7.22498e-07
2.27218e-07
9.57757e-08
-5.99441e-07
1.20675e-07
-3.22691e-08
-5.21584e-07
6.98711e-08
-2.03181e-07
-3.30788e-07
6.55653e-08
-4.2443e-07
-1.86046e-07
9.61593e-08
-6.19908e-07
-1.23248e-07
7.20721e-08
-7.0372e-07
-1.83461e-07
6.11675e-09
-6.97984e-07
-2.59106e-07
-5.00259e-08
-6.0673e-07
-3.40803e-07
-9.77268e-08
-4.85662e-07
-3.7838e-07
-1.09796e-07
-3.46701e-07
-4.18349e-07
-1.11593e-07
-2.14445e-07
-4.42723e-07
-9.62159e-08
-9.81265e-08
-4.62651e-07
-7.50732e-08
-6.72769e-09
-4.76423e-07
-4.86467e-08
5.97749e-08
-4.85042e-07
-2.395e-08
9.93887e-08
-4.86287e-07
-2.11631e-10
1.18181e-07
-4.83625e-07
1.25804e-08
1.23574e-07
-4.77259e-07
1.82961e-08
1.21705e-07
-4.66927e-07
1.82924e-08
1.16976e-07
-4.52308e-07
1.40769e-08
1.13195e-07
-4.36188e-07
6.97559e-09
1.13591e-07
-4.21661e-07
-2.27696e-09
1.22817e-07
-4.10368e-07
-1.59483e-08
1.41196e-07
-4.00676e-07
-2.84811e-08
1.67882e-07
-3.91533e-07
-3.95502e-08
2.03538e-07
-3.84975e-07
-4.98349e-08
2.50696e-07
-3.83398e-07
-5.99602e-08
3.12201e-07
-3.87794e-07
-6.94734e-08
3.91785e-07
-4.00044e-07
-7.83107e-08
4.94945e-07
-4.24067e-07
-8.65491e-08
6.28882e-07
-4.66502e-07
-9.31977e-08
7.99979e-07
-5.33515e-07
-9.43089e-08
1.01239e-06
-6.27602e-07
-8.68441e-08
1.26721e-06
-7.46104e-07
-6.91786e-08
1.56908e-06
-8.83626e-07
-4.55622e-08
1.94248e-06
-1.03325e-06
-3.26279e-08
2.4656e-06
-1.18923e-06
-7.31608e-08
3.26918e-06
-1.33217e-06
-2.20972e-07
4.37721e-06
-1.26172e-06
-4.81947e-07
5.25916e-06
-9.47687e-07
-4.25902e-07
4.98386e-06
-2.40129e-07
2.70722e-07
3.48569e-06
8.18031e-07
6.66801e-07
3.87996e-06
-1.61438e-06
1.18649e-06
6.20895e-06
-1.11717e-05
3.42161e-06
5.34975e-06
-1.31592e-05
4.59168e-06
3.53181e-06
-7.81888e-06
2.81312e-06
3.13203e-06
-1.2552e-06
-6.07908e-07
5.51209e-06
9.82519e-07
-3.76051e-06
8.24146e-06
9.8358e-07
-3.23451e-06
1.01068e-05
2.46223e-06
-2.69137e-06
1.29588e-05
1.66505e-06
-1.91622e-06
1.3574e-05
4.87545e-06
-1.09417e-06
1.89675e-05
5.7812e-06
-6.87845e-06
-4.37414e-06
2.6577e-05
1.00864e-05
-3.18951e-05
-1.47201e-06
-5.29458e-06
-7.37167e-05
-2.66233e-05
1.72401e-07
-2.80189e-05
-1.12184e-05
1.21366e-05
1.38481e-05
-1.23019e-05
5.66842e-06
1.32468e-05
-1.04068e-05
3.76608e-06
1.21057e-05
-7.89518e-06
3.1009e-06
1.22795e-05
-5.57721e-06
8.60683e-07
1.34656e-05
-1.88199e-06
-1.93661e-06
1.48998e-05
2.1354e-06
-4.64777e-06
1.59327e-05
5.53013e-06
-6.98513e-06
1.62389e-05
6.93877e-06
-7.50489e-06
1.61859e-05
7.04292e-06
-7.21076e-06
1.64882e-05
7.35618e-06
-8.00615e-06
1.71204e-05
7.32601e-06
-8.03718e-06
1.85402e-05
5.42813e-06
-6.78556e-06
1.9139e-05
4.01209e-06
-3.83936e-06
1.70872e-05
2.57865e-06
4.03989e-07
1.56481e-05
-1.27256e-06
2.55512e-06
1.64548e-05
-1.61597e-06
1.30904e-06
1.98787e-05
6.61245e-07
-1.86955e-06
2.27012e-05
4.68216e-06
-3.43643e-06
2.25958e-05
8.20969e-06
-3.18635e-06
1.8403e-05
1.04396e-05
-1.21203e-06
8.47177e-06
1.13979e-05
4.43587e-06
-1.38436e-06
8.86504e-06
5.85073e-06
-7.86131e-06
4.03728e-06
4.60587e-06
-1.25088e-05
2.44539e-06
3.41936e-06
-1.47622e-05
2.19872e-06
1.06643e-06
-1.45945e-05
2.34509e-06
-1.33878e-06
-1.33302e-05
2.19228e-06
-2.2043e-06
-1.15599e-05
1.0683e-06
-2.12134e-06
-1.01273e-05
-5.37193e-07
-8.28787e-07
-9.5021e-06
-2.13451e-06
7.60214e-07
-9.05408e-06
-3.35333e-06
1.39267e-06
-7.70591e-06
-4.65358e-06
1.17177e-06
-4.75715e-06
-6.3649e-06
2.29439e-07
-7.06692e-06
-5.58329e-07
-2.15385e-06
-3.811e-06
-4.85532e-07
-9.36499e-07
-4.37345e-06
-7.68672e-07
-4.38282e-07
-2.6845e-06
1.20203e-07
2.93053e-08
-2.18281e-06
4.47281e-08
2.05365e-07
-8.46975e-07
-6.07499e-08
9.39128e-08
-5.60233e-07
-5.08134e-08
-4.98331e-08
-3.03036e-07
-1.52657e-07
-2.01738e-07
-2.07304e-07
-1.62371e-07
-3.34929e-07
-2.30696e-08
-1.7452e-07
-4.54322e-07
8.02152e-08
-1.46858e-07
-5.64077e-07
1.29503e-07
-1.42984e-07
-6.17614e-07
5.35034e-08
-1.83415e-07
-6.29919e-07
-1.99804e-08
-2.26807e-07
-5.94304e-07
-1.10297e-07
-2.66106e-07
-5.32315e-07
-1.58115e-07
-2.82238e-07
-4.49134e-07
-2.06233e-07
-2.95279e-07
-3.56938e-07
-2.3613e-07
-2.98769e-07
-2.65699e-07
-2.57518e-07
-2.96351e-07
-1.85122e-07
-2.68657e-07
-2.88321e-07
-1.15873e-07
-2.74893e-07
-2.79376e-07
-5.85661e-08
-2.72414e-07
-2.71156e-07
-1.50803e-08
-2.62085e-07
-2.65002e-07
1.62873e-08
-2.47915e-07
-2.60686e-07
3.80192e-08
-2.30896e-07
-2.57737e-07
5.33874e-08
-2.11849e-07
-2.55801e-07
6.55871e-08
-1.93198e-07
-2.55163e-07
7.71321e-08
-1.77322e-07
-2.55858e-07
8.98425e-08
-1.64971e-07
-2.58081e-07
1.07059e-07
-1.55976e-07
-2.6189e-07
1.31508e-07
-1.49381e-07
-2.66575e-07
1.65188e-07
-1.47316e-07
-2.71312e-07
2.10033e-07
-1.52745e-07
-2.7547e-07
2.67552e-07
-1.66641e-07
-2.78645e-07
3.38633e-07
-1.91136e-07
-2.79962e-07
4.22299e-07
-2.30073e-07
-2.77634e-07
5.1614e-07
-2.89925e-07
-2.70391e-07
6.2043e-07
-3.79375e-07
-2.58404e-07
7.44432e-07
-5.05457e-07
-2.46121e-07
9.08233e-07
-6.70088e-07
-2.39794e-07
1.15246e-06
-8.75334e-07
-2.52495e-07
1.54743e-06
-1.12427e-06
-3.03931e-07
2.22394e-06
-1.43274e-06
-4.32978e-07
3.33835e-06
-1.77835e-06
-6.68208e-07
4.84984e-06
-1.91815e-06
-8.55045e-07
5.89655e-06
-1.50652e-06
-4.87859e-07
5.33334e-06
-6.3904e-08
3.86995e-07
4.00212e-06
1.22658e-06
9.22666e-07
2.86273e-06
-2.49225e-06
2.01723e-06
-2.81558e-06
-1.11426e-05
5.6492e-06
-8.8865e-06
-1.31304e-05
6.04214e-06
-9.75755e-06
-9.41158e-06
2.4638e-06
-5.6176e-06
-2.34626e-06
-3.04884e-06
1.47095e-06
-5.12602e-07
-5.59338e-06
6.21803e-06
5.74282e-07
-4.33774e-06
1.18732e-05
1.0855e-06
-4.27838e-06
1.76456e-05
-1.44732e-06
-2.66003e-06
1.88873e-05
7.26661e-06
-3.63288e-06
2.40222e-05
6.68993e-06
-6.04354e-06
-5.78174e-06
3.86624e-05
1.73452e-05
-3.44689e-05
-2.79264e-06
-4.54084e-06
-8.19515e-05
-3.08282e-05
-5.20535e-06
-3.6123e-05
-1.50356e-05
1.52849e-06
7.80761e-06
-1.12021e-05
8.72994e-07
3.47665e-06
-6.17214e-06
1.74523e-06
2.64316e-06
-3.39915e-06
-1.91935e-06
2.86266e-06
-1.70524e-06
-4.11734e-06
4.95818e-06
1.11868e-06
-4.98819e-06
7.35846e-06
5.04655e-06
-5.25429e-06
9.54789e-06
8.53472e-06
-5.225e-06
1.18141e-05
9.93315e-06
-5.41751e-06
1.37292e-05
1.02964e-05
-5.36938e-06
1.52156e-05
1.00055e-05
-4.27109e-06
1.71555e-05
7.48843e-06
-2.16482e-06
1.81828e-05
4.15337e-06
1.71101e-07
1.60208e-05
2.72077e-06
3.46666e-06
1.2546e-05
1.46625e-06
4.59293e-06
8.81394e-06
-1.35076e-06
3.7779e-06
7.9807e-06
-1.59809e-06
8.1832e-07
9.88079e-06
1.7178e-06
-2.94221e-06
1.10963e-05
7.2423e-06
-3.92916e-06
8.57072e-06
1.22502e-05
-1.62182e-06
2.04751e-06
1.42104e-05
2.74853e-06
-3.60758e-06
1.19581e-05
5.14659e-06
-6.55689e-06
7.67356e-06
4.28947e-06
-9.87772e-06
4.18656e-06
3.26906e-06
-1.28616e-05
3.155e-06
2.32309e-06
-1.47016e-05
3.1275e-06
9.64487e-07
-1.44463e-05
3.40703e-06
-1.37129e-06
-1.30118e-05
2.70552e-06
-2.04293e-06
-1.10386e-05
1.05935e-06
-2.09019e-06
-9.76811e-06
-1.1688e-06
-6.73269e-07
-9.22842e-06
-3.05706e-06
4.29092e-07
-8.76443e-06
-4.35825e-06
6.55894e-07
-7.64157e-06
-5.21545e-06
-4.03615e-07
-5.83939e-06
-6.55671e-06
-1.53172e-06
-8.82316e-06
-3.23332e-06
-2.57588e-06
-3.8559e-06
-2.40623e-07
-1.4141e-06
-4.60727e-06
-9.2795e-07
-9.5513e-07
-3.16051e-06
1.70412e-08
-3.69856e-07
-2.80828e-06
4.01996e-08
-2.83158e-08
-1.20254e-06
1.40187e-08
-4.33717e-08
-5.32621e-07
-1.25573e-08
-9.21437e-08
-8.15983e-08
-1.72666e-07
-1.8764e-07
7.14644e-08
-1.83266e-07
-2.60085e-07
2.57158e-07
-2.07775e-07
-3.36518e-07
3.55368e-07
-1.98708e-07
-4.08663e-07
4.21996e-07
-2.20336e-07
-4.8036e-07
3.7422e-07
-2.49004e-07
-5.38218e-07
3.16556e-07
-2.78664e-07
-5.50366e-07
2.13014e-07
-3.11146e-07
-5.30543e-07
1.50199e-07
-3.2812e-07
-4.84042e-07
9.43673e-08
-3.47081e-07
-4.18659e-07
6.1411e-08
-3.62905e-07
-3.46001e-07
4.66941e-08
-3.76848e-07
-2.75163e-07
4.51272e-08
-3.846e-07
-2.08858e-07
4.75118e-08
-3.88685e-07
-1.49244e-07
5.65243e-08
-3.88528e-07
-9.55601e-08
7.03598e-08
-3.86103e-07
-5.05269e-08
8.7737e-08
-3.8066e-07
-1.52698e-08
1.07529e-07
-3.73656e-07
1.09419e-08
1.28649e-07
-3.66683e-07
3.00356e-08
1.48313e-07
-3.60577e-07
4.5131e-08
1.63332e-07
-3.55722e-07
5.97732e-08
1.7272e-07
-3.52306e-07
7.64428e-08
1.77783e-07
-3.504e-07
9.71109e-08
1.79689e-07
-3.4971e-07
1.23383e-07
1.76125e-07
-3.49684e-07
1.56831e-07
1.63268e-07
-3.49435e-07
1.9863e-07
1.39058e-07
-3.47468e-07
2.47996e-07
1.01637e-07
-3.42112e-07
3.02007e-07
4.77352e-08
-3.31791e-07
3.56469e-07
-2.74555e-08
-3.16906e-07
4.13255e-07
-1.36092e-07
-3.00041e-07
4.8666e-07
-2.893e-07
-2.89538e-07
6.08115e-07
-4.96312e-07
-2.95205e-07
8.34132e-07
-7.69644e-07
-3.31684e-07
1.24812e-06
-1.12577e-06
-4.12461e-07
1.97773e-06
-1.60441e-06
-5.57916e-07
3.13067e-06
-2.17621e-06
-7.55071e-07
4.53698e-06
-2.53932e-06
-7.85115e-07
5.38122e-06
-2.09803e-06
-2.52725e-07
5.2409e-06
-5.32687e-07
6.09106e-07
4.94352e-06
8.38667e-07
6.85294e-07
6.25096e-07
-5.12655e-07
2.33882e-06
-8.68257e-06
-8.16858e-06
6.33362e-06
-1.37379e-05
-1.38749e-05
5.79987e-06
-1.27848e-05
-1.21596e-05
1.79497e-06
-5.46984e-06
-5.00713e-06
-4.65406e-06
2.23197e-06
-1.20525e-06
-7.00912e-06
3.16176e-06
3.34121e-06
-3.69666e-06
4.9476e-06
2.051e-06
-2.75131e-06
-2.16521e-06
6.68597e-06
-1.02038e-06
3.56843e-06
1.58354e-05
-1.43025e-05
1.24373e-05
1.03913e-05
-1.25704e-05
-2.8255e-06
4.07836e-05
1.2243e-05
-4.19575e-05
-2.21085e-06
-2.84533e-06
-0.00010572
-2.81178e-05
-6.36778e-06
-0.000101619
-1.32638e-05
3.95792e-06
-9.93347e-05
-9.05106e-06
7.89693e-08
-8.97452e-05
-2.09506e-06
6.16701e-07
-4.18435e-05
1.52392e-06
-3.84693e-06
-5.65742e-06
5.18335e-06
-5.02611e-06
-4.28047e-06
7.37986e-06
-5.71706e-06
-1.69891e-06
9.35863e-06
-5.69238e-06
1.58694e-06
1.08124e-05
-4.90016e-06
6.02212e-06
1.01571e-05
-4.48396e-06
1.09836e-05
8.26916e-06
-2.27849e-06
1.42832e-05
6.88085e-06
4.70697e-08
1.36835e-05
3.81912e-06
4.34874e-06
9.74461e-06
2.56863e-06
5.60228e-06
1.60924e-06
4.23232e-06
6.63427e-06
-5.60654e-06
4.96305e-06
3.6233e-06
-8.7814e-06
2.73658e-06
-9.22843e-07
-1.02208e-05
1.7204e-06
-1.84264e-06
-1.17702e-05
1.99744e-06
7.80877e-09
-1.22971e-05
5.66316e-06
2.29411e-06
-1.19848e-05
7.36869e-06
4.70751e-06
-1.09455e-05
4.95398e-06
6.26637e-06
-9.33196e-06
5.27356e-06
5.14715e-06
-8.76276e-06
3.75956e-06
3.44558e-06
-9.86289e-06
2.66527e-06
2.6642e-06
-1.16222e-05
2.58662e-06
2.33239e-06
-1.27288e-05
2.93645e-06
1.31712e-06
-1.21628e-05
3.56187e-06
-7.96116e-07
-1.06749e-05
3.06418e-06
-1.9423e-06
-9.01925e-06
1.12134e-06
-1.81195e-06
-8.4593e-06
-8.88484e-07
-8.50724e-07
-8.48473e-06
-2.90257e-06
-6.32609e-08
-8.27786e-06
-4.62193e-06
1.42835e-07
-7.50139e-06
-5.50577e-06
-2.75354e-07
-5.70583e-06
-5.70569e-06
-2.43184e-06
-7.52475e-06
-6.03491e-06
-2.99628e-06
-3.77196e-06
-5.21378e-09
-1.89589e-06
-4.75469e-06
-9.52978e-07
-1.5164e-06
-3.49495e-06
-4.50467e-08
-7.73012e-07
-3.49453e-06
-5.71458e-08
-3.03798e-07
-1.87154e-06
1.99788e-07
-1.18255e-07
-8.17961e-07
9.97926e-08
-5.68708e-08
1.1131e-08
-1.5411e-07
-1.41424e-07
3.20411e-07
-1.6439e-07
-1.51112e-07
4.85414e-07
-2.18555e-07
-2.01362e-07
6.1848e-07
-2.12852e-07
-2.64439e-07
7.15151e-07
-2.30063e-07
-3.6262e-07
7.0381e-07
-2.31396e-07
-4.60645e-07
6.58978e-07
-2.4438e-07
-5.10303e-07
5.30833e-07
-2.68146e-07
-5.11746e-07
4.35287e-07
-2.83625e-07
-4.79366e-07
3.65912e-07
-3.03906e-07
-4.27312e-07
3.33221e-07
-3.23841e-07
-3.70324e-07
3.33769e-07
-3.44043e-07
-3.12704e-07
3.48323e-07
-3.60791e-07
-2.55239e-07
3.63851e-07
-3.73781e-07
-1.98212e-07
3.81875e-07
-3.82353e-07
-1.42008e-07
4.01267e-07
-3.87086e-07
-9.12823e-08
4.23777e-07
-3.8674e-07
-4.84623e-08
4.46785e-07
-3.8205e-07
-1.41735e-08
4.68804e-07
-3.74417e-07
1.25853e-08
4.86927e-07
-3.65346e-07
3.3716e-08
4.98078e-07
-3.5585e-07
5.1672e-08
5.01961e-07
-3.47169e-07
6.71788e-08
5.01431e-07
-3.39127e-07
8.14294e-08
4.97177e-07
-3.3171e-07
9.63424e-08
4.86034e-07
-3.24795e-07
1.13744e-07
4.6358e-07
-3.17684e-07
1.33114e-07
4.29099e-07
-3.09386e-07
1.52291e-07
3.81242e-07
-2.98754e-07
1.67943e-07
3.17341e-07
-2.85232e-07
1.7872e-07
2.32273e-07
-2.70477e-07
1.90335e-07
1.11664e-07
-2.59347e-07
2.21463e-07
-6.06494e-08
-2.59751e-07
2.97448e-07
-2.90721e-07
-2.81553e-07
4.70619e-07
-6.13755e-07
-3.29034e-07
7.9708e-07
-1.05454e-06
-3.97677e-07
1.34471e-06
-1.66924e-06
-4.82772e-07
2.21598e-06
-2.49151e-06
-5.55951e-07
3.2879e-06
-3.20238e-06
-4.08843e-07
3.98e-06
-2.97449e-06
1.84376e-07
4.4994e-06
-1.65003e-06
5.97949e-07
5.22749e-06
6.72987e-08
4.32667e-08
7.1488e-07
2.39753e-06
1.60242e-06
-1.00388e-05
-2.88795e-06
5.47305e-06
-1.72092e-05
-1.19247e-05
5.2203e-06
-1.81391e-05
-1.11461e-05
-8.35637e-08
-1.32676e-05
-3.823e-06
-6.05559e-06
-1.05096e-05
2.34631e-06
-6.30946e-06
-1.3252e-05
7.40343e-06
-1.31976e-06
-1.88803e-05
7.82246e-06
-1.43046e-07
-1.89391e-05
1.20081e-05
-5.26321e-06
-1.94245e-05
2.78088e-05
-1.14883e-05
-1.42272e-05
1.55368e-05
-1.03425e-05
-3.27821e-06
2.20625e-05
6.34956e-06
-4.75327e-05
-2.49394e-06
-2.37751e-06
-0.000119888
-2.02045e-05
-8.96499e-06
-0.00012166
-9.56535e-06
4.28505e-06
-0.000123962
-7.29869e-06
1.4547e-07
-0.00012447
-1.26255e-06
7.63832e-07
-0.000120076
3.13159e-06
-2.86914e-06
-0.000114865
5.7104e-06
-3.54385e-06
-0.000107924
7.23351e-06
-2.74965e-06
-9.5662e-05
7.76409e-06
-1.5403e-06
-8.17302e-05
8.15654e-06
4.82675e-07
-7.81352e-05
7.53117e-06
1.86334e-06
-3.92951e-05
6.90212e-06
3.65163e-06
-3.10485e-06
7.2049e-06
4.35868e-06
-1.08247e-05
6.65583e-06
4.27068e-06
-1.68222e-05
5.97733e-06
2.84832e-06
-2.00188e-05
5.69385e-06
1.8881e-06
-2.0898e-05
4.77486e-06
1.47621e-06
-2.29354e-05
2.87434e-06
1.90495e-06
-6.02686e-05
1.81494e-06
2.50468e-06
-5.98962e-05
6.887e-07
2.75007e-06
-2.2975e-05
1.00807e-06
3.32223e-06
-4.36394e-05
5.2494e-07
3.61978e-06
-4.14763e-05
5.22619e-07
2.95809e-06
-1.24002e-05
-1.10072e-06
2.25583e-06
-9.80087e-06
-9.36909e-07
2.10205e-06
-8.85265e-06
-8.43154e-07
2.49018e-06
-9.34458e-06
-3.07814e-07
3.43614e-06
-9.79151e-06
5.63118e-07
2.89159e-06
-8.86833e-06
1.52885e-06
1.28192e-06
-7.88192e-06
1.93077e-06
2.14251e-07
-6.99775e-06
1.03461e-06
-7.4696e-07
-6.9921e-06
-9.53263e-07
1.53957e-07
-7.41807e-06
-2.88746e-06
4.18872e-07
-7.91791e-06
-4.37428e-06
1.95031e-07
-7.66861e-06
-4.91036e-06
-8.20524e-07
-5.10814e-06
-4.29277e-06
-3.96657e-06
-4.94626e-06
-6.74719e-06
-3.40806e-06
-3.59726e-06
3.76254e-07
-2.42875e-06
-4.91326e-06
-8.20729e-07
-2.08096e-06
-3.71063e-06
-1.32118e-07
-1.1336e-06
-3.93645e-06
-5.05442e-07
-5.04946e-07
-2.68477e-06
1.84564e-07
-1.17185e-07
-1.37294e-06
1.67214e-07
3.9332e-08
-4.23655e-08
-1.0302e-07
-5.32921e-08
5.12976e-07
-9.99303e-08
-1.9469e-08
6.52532e-07
-2.00934e-07
-7.02327e-08
8.37555e-07
-1.68296e-07
-1.34742e-07
9.64054e-07
-1.84382e-07
-2.72993e-07
1.02206e-06
-1.79981e-07
-4.1721e-07
9.93368e-07
-1.90161e-07
-4.86328e-07
8.15869e-07
-2.15898e-07
-4.79038e-07
6.73474e-07
-2.45462e-07
-4.34521e-07
5.96756e-07
-2.7534e-07
-3.77818e-07
5.77888e-07
-3.01352e-07
-3.31014e-07
6.08632e-07
-3.21644e-07
-2.94423e-07
6.5012e-07
-3.38368e-07
-2.61333e-07
6.8257e-07
-3.51786e-07
-2.2767e-07
7.0906e-07
-3.60826e-07
-1.90183e-07
7.29448e-07
-3.65643e-07
-1.52036e-07
7.4995e-07
-3.64297e-07
-1.1593e-07
7.69269e-07
-3.58564e-07
-8.62364e-08
7.88554e-07
-3.49419e-07
-6.25576e-08
8.01163e-07
-3.3789e-07
-4.22315e-08
8.02908e-07
-3.25131e-07
-2.39531e-08
7.96194e-07
-3.12487e-07
-8.52892e-09
7.85691e-07
-2.99659e-07
2.80703e-09
7.73214e-07
-2.87349e-07
9.18391e-09
7.55625e-07
-2.75942e-07
1.12016e-08
7.2703e-07
-2.65444e-07
8.69193e-09
6.86696e-07
-2.5506e-07
4.16214e-10
6.33924e-07
-2.44383e-07
-1.48362e-08
5.66362e-07
-2.33742e-07
-3.74134e-08
4.80039e-07
-2.25167e-07
-6.25658e-08
3.59954e-07
-2.23111e-07
-8.01688e-08
1.88871e-07
-2.31897e-07
-7.53722e-08
-4.37192e-08
-2.51773e-07
-3.51547e-08
-3.76383e-07
-2.77572e-07
1.60308e-08
-8.14565e-07
-2.91135e-07
1.10804e-07
-1.47298e-06
-2.9102e-07
3.64616e-07
-2.55761e-06
-1.87694e-07
6.71943e-07
-3.60253e-06
9.28227e-08
7.21731e-07
-3.54547e-06
5.21206e-07
1.12366e-06
-2.59014e-06
5.3818e-07
2.46628e-06
-5.91846e-07
-6.83468e-07
3.23425e-06
2.74726e-06
-1.11771e-06
-4.22583e-06
2.5743e-06
1.99782e-06
-1.53334e-05
-3.55474e-06
2.73759e-06
-2.03351e-05
-3.85605e-06
-2.28826e-06
-2.04869e-05
9.86837e-07
-4.65799e-06
-2.2681e-05
6.31633e-06
-1.77583e-06
-2.66255e-05
1.06934e-05
6.54708e-07
-2.93013e-05
1.1842e-05
-1.34367e-06
-2.53302e-05
1.23189e-05
-4.28166e-06
3.06695e-07
1.36308e-05
-1.1459e-05
7.37679e-06
9.06436e-06
-5.97368e-07
-2.32725e-06
1.05238e-05
1.94637e-05
-5.21743e-05
-1.28129e-06
-4.21652e-06
-0.000126758
-9.51688e-06
-8.20313e-06
-0.000132842
-8.24006e-07
5.51425e-06
-0.000137382
-1.88608e-06
1.21349e-06
-0.000140482
2.3967e-07
1.15649e-06
-0.000138834
1.40288e-06
-1.13661e-06
-0.00013552
2.48079e-06
-1.26571e-06
-0.000132785
3.54394e-06
2.40033e-07
-0.000131769
4.14171e-06
1.19553e-06
-0.000131414
4.97641e-06
2.29288e-06
-0.000132185
5.37065e-06
2.82851e-06
-0.000134158
6.43637e-06
3.24746e-06
-0.000137902
7.76372e-06
3.51232e-06
-0.000142698
7.39561e-06
3.29147e-06
-0.000145768
6.31916e-06
3.10015e-06
-0.000148598
5.33172e-06
3.0746e-06
-0.00015264
4.2528e-06
3.3294e-06
-0.000157006
2.57978e-06
3.49747e-06
-0.000160475
1.24882e-06
3.65985e-06
-0.000162286
2.32199e-08
3.44848e-06
-0.000162763
-9.73901e-07
3.14237e-06
-0.000161717
-2.47377e-06
2.68757e-06
-0.000159292
-3.76892e-06
1.91588e-06
-0.000155229
-4.74665e-06
1.30382e-06
-0.000150156
-5.23571e-06
1.31326e-06
-0.00014485
-5.39657e-06
1.65547e-06
-0.000137983
-4.70104e-06
2.32111e-06
-0.000124161
-3.51653e-06
2.40167e-06
-6.21458e-05
-1.82076e-06
1.60156e-06
-7.0986e-06
-1.56686e-06
6.8849e-07
-4.83107e-06
-4.9281e-07
-8.85926e-08
-4.44789e-06
-5.54915e-07
2.43916e-07
-4.97922e-06
-7.19816e-07
-7.02957e-08
-5.70059e-06
-4.7974e-07
-9.25488e-07
-5.68325e-06
4.81885e-07
-3.00259e-06
-3.61302e-06
2.23064e-06
-5.88137e-06
2.92949e-06
-8.02051e-06
-3.72875e-06
-3.29348e-06
8.21382e-07
-2.92209e-06
-4.9548e-06
-7.65117e-07
-2.59389e-06
-3.70815e-06
-3.3068e-07
-1.40988e-06
-3.97843e-06
-1.14204e-06
-6.18926e-07
-3.18766e-06
-2.88068e-07
-6.09783e-08
-1.91842e-06
-1.24713e-08
1.08856e-07
-6.3052e-08
-1.4914e-07
-2.83536e-08
7.32457e-07
-8.2266e-08
4.01551e-08
8.12047e-07
-2.2801e-07
-1.27314e-08
1.05521e-06
-1.64759e-07
-7.51874e-08
1.20308e-06
-1.76555e-07
-2.16866e-07
1.29188e-06
-1.28127e-07
-3.52001e-07
1.26709e-06
-1.38568e-07
-4.01905e-07
1.05105e-06
-1.8526e-07
-3.82528e-07
8.93499e-07
-2.39383e-07
-3.39351e-07
8.30314e-07
-2.7672e-07
-2.95099e-07
8.36015e-07
-3.02361e-07
-2.7037e-07
8.97159e-07
-3.1324e-07
-2.63544e-07
9.62286e-07
-3.18971e-07
-2.64362e-07
1.00713e-06
-3.23727e-07
-2.66503e-07
1.03796e-06
-3.26739e-07
-2.64531e-07
1.05527e-06
-3.27771e-07
-2.57502e-07
1.06727e-06
-3.24326e-07
-2.4718e-07
1.07581e-06
-3.16842e-07
-2.38478e-07
1.08418e-06
-3.04309e-07
-2.30511e-07
1.0836e-06
-2.90385e-07
-2.19003e-07
1.06887e-06
-2.77447e-07
-2.05045e-07
1.04743e-06
-2.6517e-07
-1.90881e-07
1.02473e-06
-2.53181e-07
-1.81219e-07
1.00516e-06
-2.41582e-07
-1.80651e-07
9.85416e-07
-2.30338e-07
-1.90212e-07
9.5624e-07
-2.19626e-07
-2.11009e-07
9.16405e-07
-2.08894e-07
-2.42447e-07
8.62843e-07
-1.97458e-07
-2.82562e-07
7.93939e-07
-1.87444e-07
-3.32642e-07
7.09509e-07
-1.79368e-07
-3.89636e-07
5.93024e-07
-1.76059e-07
-4.48626e-07
4.26792e-07
-1.7891e-07
-5.16939e-07
2.08417e-07
-1.83807e-07
-6.82985e-07
-3.5115e-08
-1.75202e-07
-1.06071e-06
-3.20756e-07
-1.16076e-07
-1.77359e-06
-7.67773e-07
7.69441e-09
-2.81478e-06
-1.83248e-06
3.16067e-07
-4.18369e-06
-2.81569e-06
5.82088e-07
-5.3102e-06
-2.93368e-06
5.14731e-07
-5.12241e-06
-2.73333e-06
-4.4581e-08
-2.12379e-06
-1.53206e-06
-2.0584e-06
9.49903e-07
2.98296e-06
-3.3094e-06
-4.73482e-06
7.35002e-06
9.08989e-07
-1.73955e-05
7.12476e-06
1.98122e-06
-2.56955e-05
7.66959e-06
-3.22562e-06
-2.98016e-05
1.00854e-05
-4.99234e-06
-3.50172e-05
1.28478e-05
-1.31572e-06
-3.92475e-05
1.49905e-05
-6.6629e-08
-4.19727e-05
1.46612e-05
-9.38525e-08
-3.41436e-05
5.53766e-06
-1.04741e-06
1.71075e-06
-1.44767e-05
-7.74698e-06
9.28331e-06
-2.72024e-06
4.21201e-06
1.4938e-06
-1.23891e-06
1.70305e-05
-5.97661e-05
5.48206e-06
-2.66953e-06
-0.000147185
5.16918e-06
-2.38013e-06
-0.000155595
1.01457e-05
9.20659e-06
-0.000162252
3.74624e-06
4.36461e-06
-0.000168027
2.2885e-06
3.59626e-06
-0.000170108
1.20967e-06
1.2431e-06
-0.000171657
8.03165e-07
9.73213e-07
-0.000171865
1.54089e-06
2.3041e-06
-0.000172465
9.89521e-07
2.9006e-06
-0.000174005
1.95203e-06
3.45236e-06
-0.000174658
2.54279e-06
3.46409e-06
-0.000175785
4.75755e-06
3.71078e-06
-0.000178534
6.2123e-06
4.21458e-06
-0.000182285
6.5888e-06
4.54123e-06
-0.000186651
6.18103e-06
4.72648e-06
-0.000190678
5.0148e-06
4.51129e-06
-0.000193955
3.67695e-06
4.22565e-06
-0.000196291
1.77611e-06
3.85119e-06
-0.000197378
-1.19426e-07
3.26412e-06
-0.000197675
-2.17168e-06
2.71391e-06
-0.000197163
-3.605e-06
2.21081e-06
-0.000196172
-5.38553e-06
1.64075e-06
-0.000194526
-7.01923e-06
9.38661e-07
-0.000192026
-8.21693e-06
3.12121e-07
-0.000188346
-9.29294e-06
-2.52549e-07
-0.000183421
-9.89849e-06
-7.20965e-07
-0.000177505
-9.83987e-06
-1.14585e-06
-0.000171198
-9.02868e-06
-1.82807e-06
-0.000163837
-7.32752e-06
-2.54028e-06
-0.000157013
-4.44706e-06
-3.83019e-06
-0.000152246
-2.24017e-06
-4.43961e-06
-0.000149054
-3.49501e-07
-4.51071e-06
-0.000147762
1.18658e-06
-4.70967e-06
-0.000146262
2.82232e-06
-5.327e-06
-0.000140518
4.08026e-06
-5.95388e-06
-0.000125689
5.46559e-06
-7.51127e-06
6.6717e-06
-8.07464e-06
-3.68369e-06
-2.87156e-06
1.45749e-06
-3.26982e-06
-4.65075e-06
-7.17927e-07
-3.1809e-06
-3.55615e-06
-2.40921e-07
-1.90195e-06
-3.86987e-06
-1.38752e-06
-8.91601e-07
-3.4932e-06
-7.04807e-07
-4.79949e-08
-2.41325e-06
-3.48769e-07
1.93986e-07
-1.41353e-07
-1.63677e-07
7.25411e-08
8.36442e-07
1.74707e-08
8.56066e-08
1.03525e-06
-2.36262e-07
-2.75423e-08
1.28559e-06
-1.17217e-07
-6.82619e-08
1.3992e-06
-1.55385e-07
-1.16926e-07
1.48326e-06
-1.42702e-07
-1.37954e-07
1.4835e-06
-1.9537e-07
-1.40077e-07
1.32508e-06
-2.71897e-07
-1.34555e-07
1.23315e-06
-3.45159e-07
-1.48599e-07
1.23413e-06
-3.89756e-07
-1.79869e-07
1.28931e-06
-4.2201e-07
-2.21818e-07
1.37834e-06
-4.39212e-07
-2.68845e-07
1.46087e-06
-4.51546e-07
-3.19808e-07
1.52066e-06
-4.62552e-07
-3.66521e-07
1.55561e-06
-4.70917e-07
-3.9893e-07
1.56469e-06
-4.76997e-07
-4.18632e-07
1.56694e-06
-4.79954e-07
-4.27829e-07
1.5651e-06
-4.80072e-07
-4.27252e-07
1.5613e-06
-4.77682e-07
-4.20884e-07
1.5513e-06
-4.74045e-07
-4.11288e-07
1.53072e-06
-4.71433e-07
-3.98302e-07
1.50336e-06
-4.68898e-07
-3.84243e-07
1.47634e-06
-4.6565e-07
-3.76921e-07
1.45905e-06
-4.612e-07
-3.85198e-07
1.44929e-06
-4.5558e-07
-4.11643e-07
1.43267e-06
-4.4997e-07
-4.58123e-07
1.40766e-06
-4.4476e-07
-5.23078e-07
1.3695e-06
-4.41689e-07
-5.97667e-07
1.31154e-06
-4.42997e-07
-6.7882e-07
1.23813e-06
-4.47451e-07
-7.64338e-07
1.13465e-06
-4.56092e-07
-8.70023e-07
9.95319e-07
-4.62828e-07
-1.0606e-06
8.46602e-07
-4.47587e-07
-1.47938e-06
7.53483e-07
-3.69813e-07
-2.35467e-06
7.32776e-07
-1.78221e-07
-3.92809e-06
5.78062e-07
2.27589e-07
-6.31403e-06
-1.91392e-07
7.44872e-07
-8.85893e-06
-1.25592e-06
9.85142e-07
-1.05031e-05
-1.9144e-06
6.2495e-07
-1.03459e-05
-2.33368e-06
-5.56879e-07
-6.8953e-06
-1.60122e-06
-3.38141e-06
-2.0261e-06
2.87329e-06
-4.75956e-06
-7.75285e-06
1.19951e-05
1.08167e-06
-2.18448e-05
1.64104e-05
4.80632e-06
-3.02304e-05
1.66685e-05
-6.13163e-07
-3.46442e-05
1.84175e-05
-3.9183e-06
-4.03641e-05
1.84233e-05
1.44376e-07
-4.52876e-05
1.78216e-05
2.09257e-06
-4.90629e-05
1.71165e-05
1.32007e-06
-4.47183e-05
2.40246e-06
-1.20925e-06
-5.91919e-05
3.94621e-06
-3.94917e-06
-5.6276e-05
-8.58384e-06
2.94758e-06
-3.42443e-06
-6.48185e-05
4.95444e-06
-7.59453e-05
1.40865e-05
-1.13825e-06
-0.000184883
2.90609e-05
8.88104e-06
-0.000192815
1.18877e-05
1.23601e-05
-0.00020334
8.37198e-06
8.19349e-06
-0.000210108
8.86092e-07
7.05448e-06
-0.000214552
-4.18933e-07
4.77278e-06
-0.000219881
-4.08423e-06
5.47329e-06
-0.000224439
-2.07801e-06
8.15311e-06
-0.000227213
-2.82826e-06
8.41594e-06
-0.000228793
-1.76872e-06
8.48495e-06
-0.000230065
-1.47575e-06
7.11211e-06
-0.000230646
5.40472e-07
5.49351e-06
-0.000230633
3.25579e-06
3.68684e-06
-0.000231304
4.81521e-06
3.14031e-06
-0.000232226
4.38037e-06
3.04437e-06
-0.000232846
3.02317e-06
3.03323e-06
-0.000233277
1.46498e-06
2.67207e-06
-0.000233746
-2.80388e-07
2.62235e-06
-0.000234627
-2.3111e-06
2.68714e-06
-0.000235752
-3.92437e-06
2.91436e-06
-0.000237112
-5.28484e-06
2.81334e-06
-0.000238421
-6.45281e-06
2.38017e-06
-0.000239818
-7.35083e-06
1.85531e-06
-0.000241849
-7.89844e-06
1.05796e-06
-0.000243414
-8.48094e-06
3.88054e-07
-0.000243581
-8.79583e-06
-2.69531e-07
-0.000243324
-8.59575e-06
-1.01715e-06
-0.00024281
-8.22769e-06
-1.46764e-06
-0.000241256
-6.77394e-06
-2.72098e-06
-0.000238347
-4.25312e-06
-4.00871e-06
-0.000234311
-1.91611e-06
-5.39371e-06
-0.000229186
1.59849e-07
-6.45271e-06
-0.000222835
9.64813e-07
-7.7484e-06
-0.000215334
2.27694e-06
-9.2209e-06
-0.000203924
3.86788e-07
-1.08545e-05
-0.000184892
-2.56274e-06
-1.16235e-05
-2.45844e-06
-1.00888e-05
-3.23408e-06
-1.91212e-06
2.38978e-06
-3.48367e-06
-4.26613e-06
-1.35034e-07
-3.84752e-06
-3.37587e-06
1.83575e-07
-2.64953e-06
-3.93907e-06
-1.12879e-06
-1.41887e-06
-3.83933e-06
-8.84544e-07
-1.36483e-07
-2.96753e-06
-7.28101e-07
2.43753e-07
-6.52243e-07
1.3066e-07
1.13723e-07
5.0621e-07
4.6027e-07
7.37688e-08
9.56305e-07
1.18913e-07
-5.38259e-08
1.1478e-06
2.65397e-07
-1.47457e-08
1.20472e-06
1.55411e-07
2.09366e-08
1.27172e-06
1.75863e-07
7.28216e-08
1.2724e-06
1.59225e-07
6.77177e-08
1.17935e-06
1.50846e-07