/*--------------------------------*- C++ -*----------------------------------*\
| =========                 |                                                 |
| \\      /  F ield         | OpenFOAM: The Open Source CFD Toolbox           |
|  \\    /   O peration     | Version:  2.3.0                                 |
|   \\  /    A nd           | Web:      www.OpenFOAM.org                      |
|    \\/     M anipulation  |                                                 |
\*---------------------------------------------------------------------------*/
FoamFile
{
    version     2.0;
    format      ascii;
    class       volVectorField;
    location    "47";
    object      U;
}
// * * * * * * * * * * * * * * * * * * * * * * * * * * * * * * * * * * * * * //

dimensions      [0 1 -1 0 0 0 0];

internalField   nonuniform List<vector> 
6144
(
(0.0112473 0.0205121 0.000259406)
(0.0118275 -0.00427497 -0.00111584)
(0.0040447 -0.00580262 -0.00252411)
(0.00332838 -0.00470668 -0.00251496)
(0.00202603 -0.00302571 -0.00188599)
(0.00303007 -0.000435726 -0.0014639)
(0.00316355 -0.000763302 -0.00119482)
(0.00285883 -4.81279e-05 -0.001005)
(0.00220827 -0.000189825 -0.000700084)
(0.00167215 0.00112308 -0.000225211)
(0.00130532 0.00227673 0.000261665)
(0.00128097 0.00339355 0.000883899)
(0.00138115 0.00362699 0.00125199)
(0.00148966 0.00327641 0.00169969)
(0.00155292 0.00252276 0.00175572)
(0.00165299 0.00174611 0.00169819)
(0.00173744 0.000909075 0.00147281)
(0.00182395 0.000224229 0.00121642)
(0.001902 -0.000336916 0.000948639)
(0.00196343 -0.000706668 0.000708401)
(0.00200529 -0.000923651 0.000499296)
(0.00204313 -0.000977941 0.000320663)
(0.00205995 -0.000944748 0.000232336)
(0.00205517 -0.000867577 0.000227517)
(0.00202966 -0.000781429 0.000292076)
(0.00199069 -0.000710207 0.00041005)
(0.00194972 -0.000679834 0.000552947)
(0.0019158 -0.000713614 0.000692661)
(0.00188092 -0.000818295 0.000825744)
(0.00184651 -0.000974001 0.000939208)
(0.00181581 -0.00116719 0.00104198)
(0.00179168 -0.00140714 0.00114528)
(0.00177363 -0.00171151 0.00125595)
(0.00176298 -0.00210407 0.00138197)
(0.00176623 -0.00262377 0.00152941)
(0.00179714 -0.00332935 0.00169577)
(0.00186971 -0.00430209 0.00184875)
(0.00199889 -0.0055785 0.00190645)
(0.00218512 -0.00714404 0.00179733)
(0.00240882 -0.0089162 0.00147114)
(0.00259495 -0.0108221 0.00103155)
(0.00264877 -0.0126881 0.000634595)
(0.00238939 -0.0146379 0.000505481)
(0.00186815 -0.016833 0.000906203)
(0.00124472 -0.0190461 -0.000262867)
(0.00126249 -0.0175294 -0.00236327)
(0.00329535 -0.0121601 -0.00323104)
(-0.00346203 -0.00316884 -0.00101234)
(0.0156714 -0.00504457 -0.00982808)
(0.0461555 -0.0398305 -0.0173835)
(0.0363583 -0.0623725 -0.0101497)
(0.0115698 -0.0822363 -0.000795386)
(0.00164436 -0.0742149 0.0014768)
(-0.00724942 -0.0807986 0.00331601)
(-0.0124415 -0.0672031 0.00461737)
(-0.0158115 -0.0924315 0.00955961)
(-0.0245849 -0.0177867 0.00415964)
(-0.0213349 -0.0909586 0.0606555)
(-0.0326506 0.0167361 -0.0358494)
(0.0322371 0.106137 0.0590975)
(0.135061 -0.275382 0.0870763)
(0.0946915 -0.133136 0.0420683)
(0.0641401 -0.189984 0.0180716)
(0.0519887 -0.21995 0.00997514)
(0.0478438 -0.217741 0.00902562)
(0.0406246 -0.216584 0.00820962)
(0.0332377 -0.221942 0.00770728)
(0.0302947 -0.222931 0.0128252)
(0.0322318 -0.219208 0.0163475)
(0.0361055 -0.213282 0.0217367)
(0.0361885 -0.213829 0.0228775)
(0.0356359 -0.216717 0.0223567)
(0.0348831 -0.22162 0.0196082)
(0.0327822 -0.224685 0.0150322)
(0.0234942 -0.224892 0.00940624)
(0.0200507 -0.221021 0.00800855)
(0.0188035 -0.214633 0.00294549)
(0.0140797 -0.215133 2.07477e-06)
(0.00690393 -0.21612 -2.43178e-05)
(-0.00388788 -0.210336 -0.00267791)
(-0.0147029 -0.189198 0.00326531)
(-0.0206324 -0.172767 -0.00788805)
(-0.0263592 -0.135179 -0.0415648)
(-0.0176955 -0.0376796 -0.0252123)
(-0.00498416 0.00975338 0.00254518)
(-0.00159694 0.0500722 -0.00168308)
(-0.0013696 0.0681003 -0.00545767)
(-0.00292589 0.0737099 0.00154867)
(-0.00359833 0.0681576 0.0068401)
(-0.00374864 0.0616925 0.00854839)
(-0.0022344 0.0533888 0.00838066)
(-0.000974171 0.0486778 0.00614647)
(0.00239768 0.0446211 0.00268217)
(0.00301938 0.0389659 -0.000800893)
(0.00673137 0.0267916 -0.00482394)
(0.00894764 0.0113233 -0.00369042)
(0.0209962 0.0194592 0.00381493)
(0.0229671 0.00375004 0.00307529)
(0.0102995 -0.000989983 -0.00117346)
(0.00880297 -0.00142834 -0.000443249)
(0.00447956 -0.0038651 0.00108379)
(0.00498608 -0.00154152 0.0015936)
(0.00472904 -0.00145172 0.00230264)
(0.00427477 0.000141067 0.00256456)
(0.00311066 0.000331706 0.00275395)
(0.00208277 0.00213612 0.00278746)
(0.00165919 0.00331586 0.00302341)
(0.00186958 0.00435305 0.0036524)
(0.00229701 0.00447018 0.00398322)
(0.00273616 0.00417774 0.00426412)
(0.00291638 0.00339373 0.00432863)
(0.00310908 0.00261577 0.00432821)
(0.00321518 0.00170663 0.0042564)
(0.00330818 0.000946125 0.00417126)
(0.00337903 0.00028184 0.00408929)
(0.0034233 -0.000197264 0.00403273)
(0.00343139 -0.000531129 0.0040015)
(0.00345282 -0.0006925 0.0039266)
(0.00344575 -0.000756957 0.00390962)
(0.00340718 -0.000759378 0.00394629)
(0.00333526 -0.000733958 0.00402874)
(0.00324784 -0.000701205 0.00414095)
(0.0031695 -0.000684267 0.00425531)
(0.00312007 -0.000707469 0.00433492)
(0.00307404 -0.000792527 0.00442029)
(0.00302675 -0.000928696 0.00450307)
(0.00299009 -0.00111368 0.00458104)
(0.00297565 -0.00135868 0.00465694)
(0.00298742 -0.00168036 0.00473328)
(0.00303532 -0.00209718 0.00481181)
(0.00314027 -0.00263525 0.00489401)
(0.00333725 -0.00333278 0.004978)
(0.00364901 -0.00423587 0.00505264)
(0.00407752 -0.00537198 0.00510163)
(0.00460349 -0.00676463 0.00510722)
(0.00518429 -0.00839604 0.00506969)
(0.00576691 -0.0103523 0.00500308)
(0.00624975 -0.0128533 0.00498408)
(0.00662292 -0.0165531 0.00526116)
(0.00569452 -0.0227382 0.00602581)
(0.00450754 -0.0302119 0.00354814)
(0.00197831 -0.0314937 -0.00046167)
(-0.00316163 -0.0240905 -0.00247557)
(0.00415636 -0.0141488 -0.00256455)
(0.0537912 -0.035571 -0.0131319)
(0.0735242 -0.0362042 -0.0178534)
(0.0525811 -0.0215019 -0.00702512)
(0.0203555 -0.0191203 0.00940358)
(0.00483212 -0.0208267 0.0221337)
(0.00170362 -0.0454103 0.0161226)
(-0.00726938 -0.0427489 0.0110169)
(-0.0177756 -0.0868095 0.00895146)
(-0.0323186 -0.0378215 0.00491774)
(-0.031199 -0.160178 0.0496184)
(-0.152777 0.029791 -0.0716947)
(-0.00228764 0.0366677 0.0440045)
(0.173938 -0.248158 0.123811)
(0.0952869 -0.00139237 0.0453868)
(0.0414357 -0.11765 0.0116191)
(0.0400295 -0.0772172 0.0106708)
(0.0335481 -0.0777262 0.0129989)
(0.0229146 -0.0726104 0.0163027)
(0.00464714 -0.0798307 0.0190616)
(-0.0141468 -0.0898524 0.0298925)
(-0.0270679 -0.0969107 0.0443445)
(-0.0330767 -0.0974118 0.0507726)
(-0.032906 -0.0972574 0.0508805)
(-0.0311979 -0.0980507 0.0505521)
(-0.0333681 -0.0995316 0.0471508)
(-0.0315019 -0.1036 0.0390661)
(-0.0290053 -0.120724 0.0229579)
(-0.0306354 -0.114896 -0.00824198)
(-0.0180291 -0.0910975 -0.0141869)
(-0.0169845 -0.0878809 -0.000521991)
(-0.0269519 -0.10598 0.0159307)
(-0.0376868 -0.131493 0.0167014)
(-0.0358458 -0.134878 0.0148021)
(-0.0333522 -0.131589 0.0018757)
(-0.0458211 -0.0905832 -0.0393958)
(-0.0436256 -0.0171332 -0.0155394)
(-0.0186253 0.0240283 0.00682297)
(-0.0112093 0.0574351 -0.00127766)
(-0.0103085 0.0728366 -0.00447229)
(-0.0113466 0.0771757 -0.00177552)
(-0.0120137 0.0711187 -0.000105056)
(-0.00631586 0.0638183 0.00432354)
(0.000521896 0.0548 0.00596024)
(0.00917864 0.0494085 0.00519481)
(0.0159686 0.0474319 0.00440688)
(0.023719 0.0428648 0.00287556)
(0.0313345 0.0302251 0.00489611)
(0.0321556 0.0130038 0.00728833)
(0.0238497 0.0185178 0.00491006)
(0.0267013 0.00926271 0.00504236)
(0.0154847 0.00267244 0.00149759)
(0.0122837 0.00234319 0.00237177)
(0.00473812 -0.00261278 0.00377736)
(0.00401333 -0.000254408 0.00371366)
(0.00273719 -0.000757077 0.00432361)
(0.00223551 0.00130077 0.00418325)
(0.00107283 0.00136992 0.00421228)
(0.000347576 0.00267476 0.00424916)
(-2.5835e-05 0.00307448 0.00431573)
(0.000491163 0.0038211 0.00460683)
(0.000982343 0.00383736 0.0048545)
(0.00154291 0.00386037 0.00504684)
(0.00181235 0.00344057 0.00507312)
(0.00209523 0.00304474 0.00505612)
(0.00226551 0.00243992 0.00499919)
(0.00239334 0.00189218 0.0049427)
(0.00246931 0.00134309 0.00489169)
(0.0025135 0.000897794 0.00487055)
(0.00250852 0.000506029 0.00487588)
(0.00244838 0.000202934 0.00491333)
(0.00237415 -2.0651e-05 0.00496668)
(0.0022867 -0.000174744 0.00502625)
(0.00218368 -0.000281184 0.005089)
(0.00207981 -0.000358134 0.00515276)
(0.00198746 -0.000425428 0.00521998)
(0.00190742 -0.000492311 0.00529498)
(0.00184347 -0.000574578 0.00537565)
(0.00178817 -0.0006928 0.00545875)
(0.00175343 -0.000859112 0.00553899)
(0.00175582 -0.00108488 0.0056155)
(0.00180229 -0.00137946 0.00568773)
(0.0019057 -0.0017507 0.00575354)
(0.00209227 -0.00219834 0.00581173)
(0.00240325 -0.00271102 0.00585621)
(0.00288416 -0.00327461 0.00587956)
(0.00355782 -0.00390532 0.0058901)
(0.0044103 -0.00469522 0.00590782)
(0.00542452 -0.00577801 0.0059975)
(0.00658063 -0.00750529 0.00626644)
(0.00793657 -0.0103502 0.00688276)
(0.00946282 -0.0153031 0.00786965)
(0.0100947 -0.0237044 0.00877516)
(0.00778148 -0.0326567 0.00364793)
(0.000575866 -0.0325855 -0.000956262)
(-0.00738298 -0.0234527 -0.00274796)
(0.0130938 -0.022113 -0.00649226)
(0.0696429 -0.011821 -0.0282777)
(0.0715775 0.0460181 -0.0235716)
(0.0330556 0.0585611 -0.00953885)
(-0.00795578 0.0468567 0.0132737)
(-0.0167548 0.010703 0.0301758)
(-0.0124467 -0.0270403 0.0206234)
(-0.0196889 -0.0359038 0.0296041)
(0.00519998 -0.104909 0.0224674)
(-0.0171197 -0.0609133 0.0228385)
(-0.0232352 -0.183919 0.0603643)
(-0.16287 0.0590363 -0.0714305)
(0.0175192 0.0249797 0.0145223)
(0.196085 -0.233915 0.138262)
(0.123958 0.0474896 0.0435041)
(0.086216 -0.101269 0.0295337)
(0.0708812 -0.0181603 0.00180536)
(0.0479785 -0.0275631 0.0152617)
(0.0343338 -0.0186758 0.0323285)
(0.0151928 -0.0280007 0.0352642)
(-0.00979879 -0.0407123 0.0391791)
(-0.0329557 -0.0547407 0.0439808)
(-0.0419054 -0.0634077 0.0462145)
(-0.0437491 -0.0732987 0.0454759)
(-0.0469648 -0.0810342 0.0387924)
(-0.0448561 -0.0909669 0.0289939)
(-0.0297711 -0.106235 0.0124198)
(-0.0183279 -0.10007 -0.0124232)
(0.00158187 -0.086338 -0.0200658)
(0.0301193 -0.0580968 -0.0110068)
(0.0337207 -0.0396121 0.012085)
(0.0209603 -0.0512716 0.0247971)
(-0.0137381 -0.0666818 0.0363528)
(-0.055277 -0.0636392 0.0229138)
(-0.0804508 -0.0403384 -0.0166792)
(-0.0753582 0.00586983 -0.0180327)
(-0.045525 0.0211858 0.00393612)
(-0.021367 0.0383651 0.00170531)
(-0.0140107 0.0561612 -0.00467158)
(-0.0126452 0.0669207 -0.00341948)
(-0.01273 0.0691288 -0.000445181)
(-0.0100418 0.0636271 -0.00105484)
(-0.0033807 0.0539743 0.00412888)
(0.00686977 0.0459067 0.00631231)
(0.0160712 0.0417809 0.0131441)
(0.0227383 0.0411123 0.0185007)
(0.0286214 0.036653 0.0186011)
(0.0395292 0.0276043 0.0197344)
(0.0476458 0.0203614 0.0242425)
(0.0245759 0.0182894 0.00503787)
(0.0284668 0.0134573 0.00500292)
(0.0183496 0.00524909 0.000733517)
(0.0152246 0.00590652 0.00105991)
(0.00607242 -0.000900448 0.00298787)
(0.00317349 0.00112914 0.00329275)
(0.00111801 -0.000460609 0.00440802)
(0.000423402 0.00147387 0.0043047)
(-0.000687306 0.000999099 0.00439844)
(-0.00124447 0.00209062 0.00441915)
(-0.00148054 0.0021218 0.00456276)
(-0.000997623 0.00282092 0.00491849)
(-0.000565323 0.00307677 0.00514022)
(2.98668e-05 0.00340303 0.00529248)
(0.000367984 0.00325419 0.00528433)
(0.000687677 0.00310587 0.0052796)
(0.000887232 0.00269425 0.0052544)
(0.00101868 0.00229061 0.00524422)
(0.00107306 0.00183099 0.00522208)
(0.00109849 0.00142718 0.00520944)
(0.00106812 0.00104523 0.00520631)
(0.000998277 0.000709109 0.00521751)
(0.000901002 0.000413237 0.00524285)
(0.000786813 0.00017726 0.00527362)
(0.00066783 -3.34151e-07 0.00530815)
(0.000557407 -0.000127917 0.0053486)
(0.000470447 -0.000221518 0.0053918)
(0.000413053 -0.000302275 0.00543897)
(0.000380973 -0.000388034 0.00549491)
(0.000369612 -0.000491336 0.00555813)
(0.000391695 -0.000621421 0.00562233)
(0.000465132 -0.000786615 0.00568136)
(0.000593272 -0.000996252 0.00572901)
(0.000786677 -0.0012524 0.00575917)
(0.001061 -0.00154372 0.00576245)
(0.00144742 -0.00184795 0.00573275)
(0.00199376 -0.00214741 0.00566982)
(0.00275636 -0.00247402 0.00561412)
(0.00376474 -0.0029616 0.00563271)
(0.00507434 -0.00382355 0.00584421)
(0.00677372 -0.00548344 0.00634008)
(0.00904739 -0.00843141 0.00719019)
(0.0116911 -0.0136676 0.00829052)
(0.0128991 -0.0215997 0.00780323)
(0.00975952 -0.028616 0.00182446)
(0.000159832 -0.0278365 -0.00142158)
(-0.00568512 -0.0262136 -0.000491275)
(0.0136508 -0.0293693 -0.00947083)
(0.0518529 0.0234628 -0.0311083)
(0.0727232 0.0705633 -0.0257831)
(0.0681262 0.0786588 -0.0228871)
(0.0371239 0.0531385 0.0176269)
(0.0278997 0.00241608 0.0390329)
(0.00720627 -0.0274848 0.0149649)
(0.0128565 0.00109576 0.0278614)
(0.00897819 -0.0687316 0.0493391)
(-0.0549226 0.103275 0.102374)
(-0.0261427 -0.149147 0.129989)
(-0.243685 0.152297 -0.116912)
(0.00963898 -0.0383913 0.0173789)
(0.167141 -0.198073 0.15818)
(0.0986973 0.0809894 0.0160816)
(0.0741609 -0.067971 0.0337135)
(0.0177337 0.0413439 -0.00689106)
(0.0150994 0.0132547 0.0157515)
(-0.0109542 0.0254312 0.0322884)
(-0.0201313 0.0153935 0.0396837)
(-0.0334365 0.00853224 0.0457152)
(-0.0452245 -0.010279 0.0442426)
(-0.0488719 -0.0249312 0.0396659)
(-0.0490769 -0.0477086 0.0301481)
(-0.0451107 -0.0739395 0.00527771)
(-0.0256268 -0.0803147 -0.0183618)
(-0.0103189 -0.069113 -0.0239791)
(-0.015531 -0.0429915 -0.0359481)
(-0.022633 0.011205 -0.0163304)
(-0.0185902 0.0346338 0.00688612)
(-0.0156238 0.0419899 0.00761699)
(-0.034631 0.0486371 -0.000832045)
(-0.0517224 0.0496543 -0.0119274)
(-0.0619768 0.0505731 -0.0219958)
(-0.0612601 0.0480341 -0.0288456)
(-0.0437229 0.0434868 -0.0153739)
(-0.0301885 0.0358123 -0.00963013)
(-0.019747 0.0374134 -0.0109993)
(-0.0179816 0.0471893 -0.0116656)
(-0.0192059 0.0528793 -0.00804045)
(-0.0219668 0.0523419 -0.0056406)
(-0.0181677 0.0467493 -0.00531866)
(-0.0073559 0.0375875 0.00058027)
(0.00499265 0.0335379 0.00737376)
(0.0161388 0.0334663 0.0180387)
(0.024038 0.0338711 0.0290166)
(0.028481 0.0335534 0.0327292)
(0.0315735 0.0243252 0.0330758)
(0.043143 0.015477 0.0402892)
(0.0245319 0.0187334 0.00471943)
(0.0297347 0.0171737 0.00502566)
(0.0211325 0.00831324 0.000564616)
(0.0197694 0.009451 4.25998e-05)
(0.0088789 0.000777777 -7.64123e-05)
(0.00363539 0.00255144 0.000961144)
(4.10432e-05 -0.000876677 0.00341973)
(-0.00115066 0.00146217 0.00362583)
(-0.00229685 0.000401897 0.00391938)
(-0.00289417 0.00134837 0.00421321)
(-0.00343633 0.00117036 0.00447243)
(-0.00330894 0.00197315 0.0048981)
(-0.00302893 0.00244229 0.00506278)
(-0.0023526 0.00301964 0.00519673)
(-0.00192592 0.00305 0.0051393)
(-0.00157274 0.00298885 0.00514578)
(-0.0013699 0.00265578 0.00515463)
(-0.00131297 0.00234425 0.00519055)
(-0.001338 0.00198074 0.00519212)
(-0.00138129 0.00164814 0.00517373)
(-0.00144768 0.00130592 0.00513739)
(-0.00152946 0.000972696 0.00509978)
(-0.00162279 0.000656088 0.0050673)
(-0.00172376 0.000385884 0.00504515)
(-0.00183162 0.000164924 0.00503291)
(-0.00192691 -6.12394e-06 0.00502747)
(-0.00198767 -0.000136884 0.00503148)
(-0.00200853 -0.00024392 0.00504573)
(-0.00200171 -0.000335353 0.00506356)
(-0.00197659 -0.000414457 0.00508412)
(-0.00191979 -0.000490324 0.00510506)
(-0.00180797 -0.000575828 0.0051177)
(-0.00163519 -0.000676296 0.00511582)
(-0.00139445 -0.00078282 0.00508915)
(-0.00106811 -0.000879917 0.00502617)
(-0.000625378 -0.0009497 0.00492394)
(-2.60519e-06 -0.000994889 0.0047909)
(0.00088613 -0.00107615 0.00467999)
(0.0021414 -0.00131791 0.00470237)
(0.0038597 -0.0019097 0.00498992)
(0.00615688 -0.00318658 0.00560707)
(0.00926569 -0.00542063 0.00647608)
(0.0130388 -0.00920788 0.00713311)
(0.0155691 -0.0148006 0.00506186)
(0.0130914 -0.0197875 -0.000446449)
(0.00528734 -0.0205366 -0.000936655)
(-0.0026462 -0.0258288 0.00329022)
(-0.00910293 -0.0304055 -0.00628187)
(0.0306537 0.0241381 -0.0264917)
(0.0685313 0.0785838 -0.0208251)
(0.0553464 0.0998616 -0.016742)
(0.0169968 0.0800073 0.0185505)
(-0.00998564 0.0526694 0.025572)
(-0.0346724 0.0552605 0.0200528)
(-0.0267504 0.0816275 0.0368987)
(-0.0577025 0.0846341 0.0331449)
(-0.107483 0.143277 0.0539593)
(-0.087171 0.00246437 0.0243585)
(-0.198929 0.287204 -0.151303)
(0.0107388 -0.0924021 0.0471453)
(0.133259 -0.163949 0.174776)
(0.0758961 0.0912867 0.00819781)
(0.0679682 0.0154517 0.0214896)
(0.0225444 0.0764464 -0.00129652)
(0.0046896 0.0656262 0.0130054)
(-0.0177647 0.0491836 0.0229795)
(-0.0332596 0.0314325 0.0260544)
(-0.0419611 0.0163071 0.021747)
(-0.0502307 -0.00520409 0.0136886)
(-0.0489089 -0.0180388 0.00217355)
(-0.0410698 -0.022813 -0.0101668)
(-0.0298204 -0.0135265 -0.0261127)
(-0.0218435 0.0226117 -0.0343257)
(-0.0220696 0.0637409 -0.0209997)
(-0.0259069 0.0783798 -0.00313797)
(-0.0206809 0.0889678 0.00334316)
(-0.00615769 0.0929946 0.000861017)
(-0.00148947 0.100892 -0.00261816)
(-0.00217022 0.103543 -0.00548151)
(-0.00910172 0.0980156 -0.00825253)
(-0.0149538 0.0863094 -0.00797134)
(-0.0109383 0.0714976 -0.00604321)
(-0.00977138 0.0547781 -0.00529724)
(-0.00898941 0.0397866 -0.00855537)
(-0.00910282 0.0332671 -0.011542)
(-0.00993289 0.0339152 -0.0151514)
(-0.0109857 0.0371947 -0.0138591)
(-0.0116582 0.034573 -0.00746984)
(-0.00946245 0.0290044 -0.00587094)
(-0.00166578 0.0245145 0.000306907)
(0.00491125 0.0242241 0.00276761)
(0.0140226 0.0254805 0.0128023)
(0.0230236 0.0280883 0.027134)
(0.0262421 0.0310046 0.032608)
(0.0242229 0.0223672 0.0391009)
(0.029715 0.00865408 0.0424179)
(0.0236544 0.0184603 0.00420254)
(0.0308623 0.0214759 0.00582397)
(0.0229532 0.0115056 0.00174373)
(0.0238982 0.0127395 0.00164648)
(0.0141321 0.00211489 -0.00214088)
(0.0064189 0.00345928 -0.00194714)
(-0.000104094 -0.00178967 0.00127721)
(-0.00265736 0.00120012 0.00196023)
(-0.00342498 -0.000453917 0.00266875)
(-0.00438014 0.000641892 0.00331948)
(-0.00490423 0.000265085 0.00371954)
(-0.00479036 0.00129179 0.00430305)
(-0.00445284 0.00202039 0.00450228)
(-0.00353985 0.00283922 0.00478952)
(-0.00279001 0.00285396 0.00489597)
(-0.00228342 0.00270606 0.00508942)
(-0.00206088 0.0023248 0.00521394)
(-0.00207447 0.00202728 0.00530258)
(-0.0021682 0.00177365 0.00530784)
(-0.0022564 0.00158022 0.00525844)
(-0.0023529 0.00138403 0.00515763)
(-0.00245201 0.0011776 0.00502642)
(-0.0025754 0.000953014 0.00488929)
(-0.00269636 0.000737471 0.00476059)
(-0.00279747 0.000548693 0.00464563)
(-0.00286627 0.000401204 0.00454146)
(-0.00289149 0.000280895 0.00445102)
(-0.00287632 0.000175001 0.00437965)
(-0.00283983 8.17301e-05 0.00432773)
(-0.00278042 7.87105e-06 0.00429799)
(-0.00267852 -3.89677e-05 0.00428522)
(-0.00251228 -6.03953e-05 0.00427371)
(-0.00228305 -5.98035e-05 0.00425017)
(-0.00198621 -3.30154e-05 0.00420329)
(-0.00161542 2.39631e-05 0.00412305)
(-0.00114974 0.000120938 0.00401283)
(-0.000520174 0.0002496 0.00388362)
(0.00036822 0.000372818 0.00378801)
(0.00163457 0.000414401 0.00382581)
(0.00338365 0.000300388 0.00412502)
(0.00580511 6.46437e-06 0.00472922)
(0.00917065 -0.000200578 0.0054005)
(0.013749 -0.00103248 0.00506481)
(0.0184353 -0.00265534 0.00348465)
(0.0179224 -0.00391955 0.00115025)
(0.011953 -0.00270404 0.00087864)
(0.00249394 -0.00891908 0.00766284)
(-0.0140679 -0.0161557 0.00788043)
(-0.00586509 -0.0178698 -0.0105267)
(0.0482195 0.0592245 0.00517672)
(0.0536071 0.093561 0.010221)
(0.0219063 0.100354 0.0127444)
(-0.010472 0.0976392 0.0166817)
(-0.037265 0.124629 0.0342105)
(-0.0485583 0.135468 0.0505601)
(-0.0701527 0.103353 0.0458699)
(-0.136204 0.200532 0.0897905)
(-0.0303772 -0.218363 0.024406)
(-0.00980693 0.298082 -0.103182)
(0.0189915 -0.0877379 0.056354)
(0.0815546 -0.16931 0.184188)
(0.0316653 0.0853545 0.0311731)
(0.0347957 0.0524873 0.0295453)
(0.0154958 0.108906 0.0206021)
(0.0110965 0.11101 0.0257763)
(2.50571e-05 0.0938974 0.0305251)
(-0.0125735 0.0654612 0.0196136)
(-0.0209767 0.054672 0.0135189)
(-0.0240403 0.0408996 0.00317584)
(-0.0257236 0.0378151 -0.00282911)
(-0.0270782 0.0427737 -0.00770499)
(-0.0336565 0.0532283 -0.00891515)
(-0.0366678 0.070671 -0.00465082)
(-0.0310293 0.0921023 0.0043779)
(-0.026408 0.0999752 0.00817028)
(-0.0231594 0.107175 0.00471226)
(-0.0179052 0.118375 0.00258462)
(-0.0142174 0.131042 0.000564361)
(-0.0106988 0.139287 0.000553956)
(-0.00555965 0.145071 0.00290408)
(0.00124145 0.144292 0.00347103)
(0.00882019 0.136377 0.00383312)
(0.0157512 0.127813 0.00715323)
(0.0154711 0.10472 0.00812866)
(0.0147377 0.0831897 0.00759806)
(0.0113256 0.0612182 0.00714446)
(0.00521559 0.0455364 0.00340053)
(-0.000596215 0.0365627 0.00719309)
(-0.00879418 0.0221954 0.00268587)
(-0.00825199 0.0156157 0.000730693)
(0.00351167 0.0135966 0.00506628)
(0.0156998 0.0140944 0.0170596)
(0.0236411 0.0173017 0.0311572)
(0.0269892 0.0199649 0.0404106)
(0.0262077 0.0152562 0.0491804)
(0.027189 0.00232293 0.0531016)
(0.0217313 0.0169868 0.00415541)
(0.0316681 0.0257663 0.00801164)
(0.02354 0.014226 0.00440513)
(0.0246201 0.0156234 0.00464415)
(0.0185571 0.00295404 -0.000759458)
(0.0100073 0.00378026 -0.00315284)
(0.000578266 -0.00283942 -0.000501716)
(-0.00344368 0.00131551 0.000357798)
(-0.00450044 -0.000895022 0.0013812)
(-0.00559019 0.000341286 0.00235529)
(-0.0065596 -0.000157204 0.00278298)
(-0.00722089 0.0009902 0.00352727)
(-0.00716071 0.00163303 0.0039516)
(-0.00592226 0.00238714 0.00473969)
(-0.00495499 0.00225795 0.00523934)
(-0.00449118 0.00210931 0.00571932)
(-0.00442592 0.00176884 0.00596865)
(-0.00470225 0.00157546 0.00605713)
(-0.00502447 0.00147676 0.00600059)
(-0.00524737 0.00146793 0.00587343)
(-0.00539385 0.00147198 0.00567797)
(-0.00546719 0.0014688 0.00544183)
(-0.00551692 0.00143158 0.00520061)
(-0.00555369 0.00137106 0.00497965)
(-0.00560746 0.00130736 0.00479977)
(-0.00561993 0.00125728 0.00464174)
(-0.00555862 0.00120068 0.00451097)
(-0.00544621 0.00112428 0.00442574)
(-0.00531562 0.00103765 0.00438548)
(-0.00518664 0.000962653 0.00438585)
(-0.0050454 0.000927952 0.00441324)
(-0.00485278 0.000943786 0.00444713)
(-0.00460209 0.0010172 0.00446728)
(-0.00429597 0.00114371 0.00444795)
(-0.00391782 0.00131601 0.00439849)
(-0.00345272 0.00153379 0.00431061)
(-0.00281136 0.00179508 0.00418422)
(-0.0018906 0.00207272 0.00406277)
(-0.000654576 0.00234323 0.00401945)
(0.000868075 0.00279059 0.00408901)
(0.00278194 0.00388176 0.00424199)
(0.00584203 0.00650381 0.00418769)
(0.0115769 0.010891 0.00336269)
(0.0164795 0.017507 0.00355482)
(0.0163303 0.0249368 0.00545181)
(0.01297 0.0276366 0.00709041)
(0.0047816 0.0187171 0.0129551)
(-0.0114678 -0.00158986 0.016345)
(-0.0207602 -0.00893719 0.000806268)
(-0.0149366 0.0548207 0.0148652)
(-0.01506 0.11052 0.0334876)
(-0.026428 0.12646 0.0449318)
(-0.0440503 0.147911 0.043841)
(-0.0562022 0.177861 0.0473164)
(-0.0579238 0.186093 0.0495033)
(-0.0447513 0.149172 0.0477609)
(0.0262193 0.23994 0.0696624)
(-0.0621691 -0.235283 0.0333792)
(-0.156787 0.379317 -0.0461055)
(0.00199469 -0.123232 0.0683273)
(0.0440768 -0.130027 0.15449)
(-0.0302702 0.156858 0.0162297)
(-0.00772624 0.13191 0.0188965)
(-0.00600407 0.189311 0.0199121)
(-0.00273352 0.195471 0.0242555)
(-0.00363423 0.196704 0.0247783)
(-0.013544 0.191376 0.0182297)
(-0.015259 0.189126 0.0125128)
(-0.0200694 0.186246 0.0116109)
(-0.0223488 0.186376 0.00821246)
(-0.026948 0.187367 0.0084002)
(-0.0335622 0.192288 0.00534024)
(-0.036295 0.197487 0.00365707)
(-0.0319229 0.210574 0.00209881)
(-0.0265583 0.22795 0.00316773)
(-0.0214459 0.240731 0.00253492)
(-0.0132036 0.252633 0.00410328)
(-0.00363743 0.25671 0.00590587)
(0.00669089 0.25844 0.010031)
(0.0132853 0.253844 0.0149835)
(0.0217264 0.246519 0.0207849)
(0.0309907 0.239757 0.0260642)
(0.0369117 0.230327 0.0291125)
(0.0423366 0.217357 0.0314894)
(0.0460861 0.199796 0.0327994)
(0.0450708 0.177643 0.0337049)
(0.0414755 0.149778 0.0337148)
(0.035844 0.125598 0.0329581)
(0.023462 0.0859266 0.032804)
(0.0144442 0.0571438 0.0307866)
(0.00972335 0.0318607 0.0275321)
(0.006397 0.0176949 0.0303393)
(0.00319218 0.0143517 0.0384673)
(-0.00170656 0.0155059 0.0433654)
(-0.0107934 0.0115286 0.0500176)
(-0.0193138 0.00235453 0.0494664)
(0.0220352 0.0121153 0.00381613)
(0.0311678 0.0285729 0.00969452)
(0.0232652 0.0166217 0.00530834)
(0.0247331 0.0195766 0.00536628)
(0.0207263 0.00519898 0.000583127)
(0.0131978 0.00444266 -0.00253404)
(0.00019318 -0.00367231 -0.00137308)
(-0.00532766 0.00101252 -0.000966561)
(-0.00496759 -0.00170159 0.00113968)
(-0.00669844 0.000552964 0.00198044)
(-0.00729464 -0.000164023 0.00250857)
(-0.00761723 0.00085638 0.0036285)
(-0.00722845 0.000549016 0.00446955)
(-0.00569664 0.000949159 0.00566224)
(-0.00461669 0.000659663 0.00657167)
(-0.00418436 0.000793549 0.00741583)
(-0.00417374 0.000844779 0.0079175)
(-0.00446799 0.00108749 0.00813067)
(-0.00477075 0.00129916 0.00812169)
(-0.00495331 0.0015623 0.00799874)
(-0.00507241 0.00181343 0.00777657)
(-0.00513543 0.00200972 0.00749333)
(-0.00517481 0.0021203 0.00720151)
(-0.00519848 0.00217507 0.00692343)
(-0.00521539 0.00217217 0.00666823)
(-0.00519084 0.0021338 0.00645831)
(-0.00509265 0.00207713 0.00630683)
(-0.00494042 0.00200116 0.00620421)
(-0.00477388 0.00191238 0.00615188)
(-0.00462449 0.00183459 0.0061416)
(-0.00447855 0.00181637 0.00615781)
(-0.00429087 0.00188038 0.00617694)
(-0.00406458 0.00203762 0.00618288)
(-0.00376803 0.00228733 0.00618277)
(-0.00340493 0.00259762 0.00615619)
(-0.00298662 0.00293781 0.00609705)
(-0.0024333 0.00329863 0.00600028)
(-0.00166916 0.0036838 0.00585505)
(-0.000716006 0.00422416 0.00562841)
(0.000237573 0.00537552 0.00530084)
(0.000876009 0.00790155 0.00478127)
(0.00173876 0.0130673 0.00370362)
(0.00567695 0.0218208 0.00190347)
(0.0105173 0.0346265 0.00125608)
(0.0125085 0.0442273 0.00316632)
(0.01355 0.0467575 0.00719299)
(0.012242 0.0370146 0.0186022)
(-0.0123905 0.0156853 0.0256864)
(-0.0474222 -0.00117869 0.00424275)
(-0.049876 0.0664748 0.00659552)
(-0.0500058 0.117075 0.0259545)
(-0.057027 0.129459 0.0440161)
(-0.0623657 0.150858 0.0382102)
(-0.065425 0.177134 0.0387078)
(-0.0512159 0.191883 0.0454296)
(0.0266288 0.178939 0.0472766)
(0.0804146 0.203292 0.0598445)
(0.120225 0.161366 0.0379323)
(0.217452 0.507062 0.0216356)
(-0.0314316 -0.177083 0.0489167)
(-0.0656959 0.00584298 0.0398501)
(-0.0695455 0.19011 -0.0164458)
(-0.0305413 0.193103 -0.00297708)
(-0.00614447 0.243291 -0.0093165)
(0.00325692 0.250679 -0.00665182)
(0.00605752 0.258573 -0.014553)
(0.00279321 0.267934 -0.0162417)
(0.010307 0.272584 -0.0153325)
(0.00776183 0.282485 -0.0152667)
(0.00755834 0.285636 -0.0120051)
(-0.00803681 0.282745 -0.00564832)
(-0.0145363 0.279489 -0.00107786)
(-0.0178758 0.276188 0.000259104)
(-0.0182377 0.274288 0.0037575)
(-0.0119075 0.272749 0.00739255)
(-0.00612668 0.27059 0.0100692)
(0.00109843 0.264955 0.0120668)
(0.00805097 0.258966 0.0142579)
(0.016687 0.255158 0.0173574)
(0.0232589 0.252978 0.0212201)
(0.0297909 0.25286 0.0264217)
(0.0369342 0.251273 0.0301337)
(0.0415164 0.253422 0.0332029)
(0.0447022 0.252978 0.033503)
(0.0466825 0.252312 0.0333373)
(0.0478622 0.251013 0.0345189)
(0.0459477 0.249194 0.0383124)
(0.041999 0.244128 0.041662)
(0.031384 0.234538 0.0457266)
(0.0194967 0.222321 0.0446578)
(0.00878682 0.205481 0.0434653)
(0.00108955 0.182649 0.0388317)
(-0.00489683 0.159318 0.0389087)
(-0.00596906 0.134972 0.0379734)
(-0.00323293 0.0964876 0.0322812)
(-0.00947538 0.0224574 0.020619)
(0.0156015 0.00726449 0.00112308)
(0.0283341 0.0294903 0.00933301)
(0.0217395 0.0194927 0.00338147)
(0.0244532 0.0249166 0.00339901)
(0.0228514 0.00957968 0.000669967)
(0.0166641 0.00635797 -0.0016065)
(0.00127332 -0.00436365 -0.0065685)
(-0.00489545 0.000936289 -0.00597254)
(-0.0072065 -0.00206346 -0.00304227)
(-0.0082336 0.00101479 -0.00171668)
(-0.00876567 -0.000263267 -0.000971413)
(-0.00904669 0.000387261 0.000425624)
(-0.00904419 -0.000589629 0.00143591)
(-0.00833872 -0.000316668 0.00254727)
(-0.0080007 -0.0004293 0.00338148)
(-0.00807385 1.9211e-05 0.00419602)
(-0.00837451 0.000359012 0.00485161)
(-0.00879623 0.000842759 0.00528392)
(-0.00918225 0.00121282 0.00548968)
(-0.00946449 0.00159616 0.00554371)
(-0.00956654 0.00193526 0.00546487)
(-0.0094644 0.00221621 0.00530124)
(-0.00932127 0.00240891 0.00511886)
(-0.00915569 0.00252938 0.00494111)
(-0.00898144 0.00257726 0.00477371)
(-0.00878465 0.00257164 0.00462429)
(-0.0085446 0.00253853 0.00450605)
(-0.00827975 0.00249441 0.00442381)
(-0.0080273 0.00245079 0.00437554)
(-0.007852 0.0024203 0.00435713)
(-0.0077438 0.00243697 0.00435938)
(-0.0076085 0.00253021 0.00436168)
(-0.00743392 0.00270654 0.00435315)
(-0.0072028 0.00297162 0.00432967)
(-0.00685553 0.00330506 0.00429022)
(-0.00643209 0.00368907 0.00422592)
(-0.00588666 0.00413994 0.00409939)
(-0.00525891 0.00472963 0.00387039)
(-0.0048086 0.00564854 0.00344596)
(-0.00497416 0.00726904 0.00272921)
(-0.00564676 0.0101001 0.00165815)
(-0.00549403 0.0150923 0.000241013)
(-0.0030315 0.0233592 -0.00185463)
(0.00217419 0.0364697 -0.00380795)
(0.00669298 0.0449674 -0.00345463)
(0.0114091 0.0470221 0.00329945)
(0.0109997 0.0378231 0.01636)
(-0.0021051 0.0245261 0.0269451)
(-0.0605981 -0.00981281 0.00490567)
(-0.0967278 0.0330903 -0.00399675)
(-0.0829863 0.0892987 0.0147782)
(-0.0837683 0.101873 0.0213108)
(-0.0832203 0.104675 0.0176306)
(-0.0704065 0.110924 0.0278918)
(-0.0693232 0.111792 0.0277214)
(-0.0313713 -0.0171168 0.0215904)
(-0.0462247 0.224371 0.0602671)
(-0.0151121 -0.279598 0.012632)
(0.313553 0.508111 0.0238987)
(-0.0431052 -0.170352 0.0428701)
(-0.140434 -0.0464312 0.0205009)
(-0.0570724 0.142656 -0.00962436)
(-0.0501091 0.0712469 0.0172375)
(0.00868585 0.0804671 0.0301866)
(-0.0057461 0.0520964 0.0345764)
(0.0281044 0.0140469 0.0402463)
(0.0142782 -0.0291001 0.00359594)
(0.014523 -0.0446951 -0.0175615)
(0.00697927 -0.0344921 -0.021462)
(-0.00596686 -0.00946011 -0.0219169)
(-0.00833716 0.0670613 -0.052733)
(-0.00970586 0.114202 -0.0196469)
(-0.0185595 0.122306 -0.0109195)
(-0.0163997 0.117425 -0.00166726)
(-0.00975891 0.105747 0.00059262)
(-0.00390897 0.100393 0.0010621)
(0.00184121 0.0981224 -0.000479028)
(0.0109739 0.099171 -0.00261683)