/*--------------------------------*- C++ -*----------------------------------*\
| =========                 |                                                 |
| \\      /  F ield         | OpenFOAM: The Open Source CFD Toolbox           |
|  \\    /   O peration     | Version:  2.3.0                                 |
|   \\  /    A nd           | Web:      www.OpenFOAM.org                      |
|    \\/     M anipulation  |                                                 |
\*---------------------------------------------------------------------------*/
FoamFile
{
    version     2.0;
    format      ascii;
    class       volScalarField;
    location    "27";
    object      alpha.water;
}
// * * * * * * * * * * * * * * * * * * * * * * * * * * * * * * * * * * * * * //

dimensions      [0 0 0 0 0 0 0];

internalField   nonuniform List<scalar> 
6144
(
5.36652e-06
6.24047e-06
6.72524e-06
7.10324e-06
7.55255e-06
8.04086e-06
8.51317e-06
9.21558e-06
9.87377e-06
9.99165e-06
9.99188e-06
9.99405e-06
9.99618e-06
9.99733e-06
9.99661e-06
9.99762e-06
9.99652e-06
9.99785e-06
9.99731e-06
9.99817e-06
9.9978e-06
9.99786e-06
9.99763e-06
9.99765e-06
9.99734e-06
9.99631e-06
9.99532e-06
9.99514e-06
9.99473e-06
9.99468e-06
9.99424e-06
9.99507e-06
9.99384e-06
9.99548e-06
9.99297e-06
9.99635e-06
9.99206e-06
9.99689e-06
9.98948e-06
9.99498e-06
9.98637e-06
9.99342e-06
9.98532e-06
9.99493e-06
9.98577e-06
9.99621e-06
9.9852e-06
1.00064e-05
1.00045e-05
1.0251e-05
1.13601e-05
1.79436e-05
4.41214e-05
7.72444e-05
8.20054e-05
0.000124747
0.00021467
0.000558304
0.000753745
0.0456322
0.947343
0.999649
0.999999
0.999999
0.999999
0.999999
0.999999
0.999999
0.999999
0.999999
0.999999
0.999999
0.999999
0.999999
0.999999
0.999999
0.999999
0.999999
0.999999
0.999999
0.999999
0.999999
0.999999
0.999999
0.999999
0.999999
0.999999
0.999999
0.999999
0.999999
0.999999
0.999999
0.999999
0.999999
0.999999
1
4.80494e-06
5.96439e-06
6.66943e-06
7.17289e-06
7.779e-06
8.23963e-06
8.74387e-06
9.41884e-06
9.94061e-06
9.9949e-06
9.99093e-06
9.99616e-06
1.00009e-05
1.00028e-05
1.00026e-05
1.0003e-05
1.00022e-05
1.00028e-05
1.00019e-05
1.00025e-05
1.00019e-05
1.00021e-05
1.00019e-05
1.00019e-05
1.00016e-05
1.00011e-05
1.00008e-05
1.00009e-05
1.00008e-05
1.00009e-05
1.00006e-05
1.00014e-05
1.00001e-05
1.00022e-05
9.99925e-06
1.00038e-05
9.99788e-06
1.00052e-05
9.99498e-06
1.00051e-05
9.99279e-06
1.00049e-05
9.99186e-06
1.00058e-05
9.991e-06
1.00073e-05
9.98854e-06
1.00312e-05
1.00218e-05
1.01385e-05
1.06756e-05
1.7975e-05
4.60498e-05
6.08491e-05
6.79272e-05
9.45931e-05
0.000232193
0.000830977
0.00136377
0.0368538
0.951491
0.999863
0.999999
0.999999
0.999999
0.999999
0.999999
0.999999
0.999999
0.999999
0.999999
0.999999
0.999999
0.999999
0.999999
0.999999
0.999999
0.999999
0.999999
0.999999
0.999999
0.999999
0.999999
0.999999
0.999999
0.999999
0.999999
0.999999
0.999999
0.999999
0.999999
0.999999
0.999999
0.999999
0.999999
1
4.33281e-06
5.40303e-06
6.26357e-06
6.83203e-06
7.46931e-06
8.08776e-06
8.84514e-06
9.48008e-06
9.79859e-06
9.8959e-06
9.93792e-06
9.97617e-06
9.99596e-06
1.00019e-05
1.00028e-05
1.0003e-05
1.00025e-05
1.00029e-05
1.00024e-05
1.00028e-05
1.00023e-05
1.00025e-05
1.00023e-05
1.00022e-05
1.00019e-05
1.00014e-05
1.00013e-05
1.00013e-05
1.00012e-05
1.00013e-05
1.00009e-05
1.00015e-05
1.00004e-05
1.00024e-05
9.9997e-06
1.00038e-05
9.99833e-06
1.00049e-05
9.99551e-06
1.00053e-05
9.99319e-06
1.00063e-05
9.99172e-06
1.0008e-05
9.9895e-06
1.00109e-05
9.98765e-06
1.00399e-05
1.00523e-05
1.02131e-05
1.07926e-05
2.33899e-05
3.90906e-05
5.31857e-05
6.7698e-05
0.000110512
0.000118192
0.000549722
0.000727885
0.0356973
0.951258
0.999988
0.999999
0.999999
0.999999
0.999999
0.999999
0.999999
0.999999
0.999999
0.999999
0.999999
0.999999
0.999999
0.999999
0.999999
0.999999
0.999999
0.999999
0.999999
0.999999
0.999999
0.999999
0.999999
0.999999
0.999999
0.999999
0.999999
0.999999
0.999999
0.999999
0.999999
0.999999
0.999999
0.999999
1
3.97457e-06
4.74585e-06
5.73171e-06
6.34363e-06
6.95203e-06
7.61827e-06
8.63391e-06
9.51532e-06
9.77079e-06
9.84673e-06
9.90493e-06
9.96477e-06
9.99227e-06
9.99966e-06
1.00004e-05
1.00005e-05
1.00002e-05
1.00004e-05
9.99992e-06
1.00001e-05
9.99957e-06
9.99956e-06
9.99918e-06
9.99897e-06
9.99844e-06
9.99798e-06
9.99775e-06
9.99767e-06
9.99753e-06
9.99753e-06
9.99715e-06
9.99759e-06
9.9966e-06
9.99828e-06
9.99623e-06
9.99951e-06
9.99536e-06
1.00004e-05
9.99271e-06
1.00016e-05
9.99045e-06
1.00036e-05
9.98935e-06
1.00046e-05
9.98977e-06
1.00085e-05
9.99153e-06
1.00407e-05
1.00879e-05
1.04124e-05
1.1351e-05
1.95284e-05
2.46704e-05
6.84903e-05
9.28199e-05
0.000132441
0.000118744
0.00036979
0.00027565
0.0383548
0.949699
0.999999
0.999999
0.999999
0.999999
0.999999
0.999999
0.999999
0.999999
0.999999
0.999999
0.999999
0.999999
0.999999
0.999999
0.999999
0.999999
0.999999
0.999999
0.999999
0.999999
0.999999
0.999999
0.999999
0.999999
0.999999
0.999999
0.999999
0.999999
0.999999
0.999999
0.999999
0.999999
0.999999
0.999999
1
3.80938e-06
4.16817e-06
5.15582e-06
5.85469e-06
6.50423e-06
7.14159e-06
8.13954e-06
9.25983e-06
9.763e-06
9.85565e-06
9.89222e-06
9.96195e-06
9.99357e-06
1.00018e-05
1.00028e-05
1.0003e-05
1.00029e-05
1.00032e-05
1.00031e-05
1.00035e-05
1.00032e-05
1.00033e-05
1.00031e-05
1.0003e-05
1.00026e-05
1.00021e-05
1.00019e-05
1.00017e-05
1.00015e-05
1.00015e-05
1.0001e-05
1.00012e-05
1e-05
1.00016e-05
9.99925e-06
1.00026e-05
9.99813e-06
1.0003e-05
9.99494e-06
1.00036e-05
9.99213e-06
1.00052e-05
9.99371e-06
1.0006e-05
9.99596e-06
1.00114e-05
9.99556e-06
1.00535e-05
1.01393e-05
1.06016e-05
1.14663e-05
1.45541e-05
4.22729e-05
0.000101907
0.000114503
0.000148287
0.000155281
0.000287379
0.000111593
0.0620782
0.959194
0.999943
0.999972
0.999981
0.999984
0.999987
0.999987
0.999985
0.999982
0.999979
0.999976
0.999975
0.999982
0.999989
0.999993
0.999996
0.999996
0.999997
0.999998
0.999999
0.999999
0.999999
0.999999
0.999999
0.999999
0.999999
0.999999
0.999999
0.999999
0.999999
0.999999
0.999999
0.999999
0.999999
0.999999
1
3.79286e-06
3.90238e-06
4.5901e-06
5.2898e-06
6.11206e-06
6.7576e-06
7.60363e-06
8.50867e-06
9.63166e-06
9.87676e-06
9.88721e-06
9.95531e-06
9.99068e-06
9.99748e-06
9.99787e-06
9.99787e-06
9.9976e-06
9.99754e-06
9.99746e-06
9.99771e-06
9.99775e-06
9.99798e-06
9.99798e-06
9.99802e-06
9.99771e-06
9.9974e-06
9.99725e-06
9.99717e-06
9.99706e-06
9.9971e-06
9.99671e-06
9.99709e-06
9.99586e-06
9.99782e-06
9.99539e-06
9.99905e-06
9.99549e-06
9.99858e-06
9.99235e-06
9.99876e-06
9.98973e-06
1.00011e-05
9.99137e-06
1.00028e-05
9.99237e-06
1.00078e-05
9.99281e-06
1.00589e-05
1.01905e-05
1.08321e-05
1.20864e-05
1.43955e-05
8.65001e-05
0.000125204
0.000127784
0.000129591
0.000133391
0.00022162
6.51266e-05
0.120342
0.976302
0.999188
0.999336
0.999513
0.999538
0.999509
0.999471
0.999415
0.999244
0.999085
0.998937
0.998794
0.998705
0.998678
0.998812
0.999014
0.999112
0.999272
0.9995
0.99973
0.999895
0.999973
0.999994
0.999997
0.999998
0.999999
0.999999
0.999999
0.999999
0.999999
0.999999
0.999999
0.999999
0.999999
0.999999
1
4.05935e-06
3.8951e-06
4.22519e-06
4.75479e-06
5.69066e-06
6.45343e-06
7.32215e-06
8.08982e-06
9.13449e-06
9.78418e-06
9.87645e-06
9.9526e-06
9.99205e-06
1.00008e-05
1.00026e-05
1.00026e-05
1.00026e-05
1.00022e-05
1.00019e-05
1.00019e-05
1.00015e-05
1.00011e-05
1.00007e-05
1.00003e-05
9.99975e-06
9.99927e-06
9.99899e-06
9.99883e-06
9.99865e-06
9.99857e-06
9.99817e-06
9.99838e-06
9.99739e-06
9.99892e-06
9.99704e-06
1e-05
9.99689e-06
9.99945e-06
9.99405e-06
9.99907e-06
9.99172e-06
1.00017e-05
9.99305e-06
1.00044e-05
9.99367e-06
1.00113e-05
9.99269e-06
1.00712e-05
1.02218e-05
1.08707e-05
1.20961e-05
1.35471e-05
3.63935e-05
0.000136363
0.000203947
0.000180268
0.000162026
0.000170605
9.99528e-06
0.253612
0.988655
0.994862
0.994946
0.996111
0.996491
0.996132
0.994313
0.992853
0.992673
0.99211
0.990414
0.988769
0.988064
0.987893
0.988261
0.989731
0.990184
0.990947
0.99204
0.993371
0.995162
0.996544
0.997922
0.998968
0.999567
0.99985
0.999975
0.999997
1
1
1
1
1
1
1
0.999997
4.37458e-06
4.33337e-06
4.13923e-06
4.4822e-06
5.31822e-06
6.26697e-06
7.19038e-06
8.01748e-06
8.68148e-06
9.58131e-06
9.84123e-06
9.94559e-06
9.98908e-06
9.99974e-06
1.00015e-05
1.00018e-05
1.00018e-05
1.00018e-05
1.00017e-05
1.00019e-05
1.00019e-05
1.00023e-05
1.00025e-05
1.00026e-05
1.00024e-05
1.00022e-05
1.00022e-05
1.00024e-05
1.00025e-05
1.00026e-05
1.00025e-05
1.00027e-05
1.00023e-05
1.00032e-05
1.00022e-05
1.00041e-05
1.00017e-05
1.0004e-05
9.9999e-06
1.00038e-05
9.99888e-06
1.0006e-05
9.99921e-06
1.00099e-05
9.99906e-06
1.00141e-05
9.99638e-06
1.00649e-05
1.02071e-05
1.07732e-05
1.25335e-05
1.82973e-05
2.02517e-05
7.63887e-05
0.000145672
0.000163791
0.000204385
0.00019675
9.99528e-06
0.362718
0.980727
0.985579
0.984103
0.984819
0.985097
0.984575
0.984647
0.984535
0.98438
0.983762
0.981923
0.979951
0.979238
0.979073
0.979105
0.979695
0.980298
0.980748
0.981041
0.981267
0.981413
0.98136
0.981317
0.981629
0.981768
0.981644
0.981662
0.981616
0.981274
0.980123
0.978839
0.977555
0.976686
0.97599
0.975875
0.980184
4.45022e-06
4.80057e-06
5.0045e-06
4.96571e-06
5.19007e-06
6.34804e-06
7.38257e-06
8.2647e-06
8.76178e-06
9.33355e-06
9.74455e-06
9.91893e-06
9.97807e-06
9.99562e-06
9.99672e-06
9.99702e-06
9.99631e-06
9.99641e-06
9.99644e-06
9.99711e-06
9.99751e-06
9.99806e-06
9.99839e-06
9.99857e-06
9.99848e-06
9.99846e-06
9.99856e-06
9.99877e-06
9.99891e-06
9.99899e-06
9.99894e-06
9.9991e-06
9.99887e-06
9.9997e-06
9.99903e-06
1.00008e-05
9.99904e-06
1.00004e-05
9.99759e-06
1.00003e-05
9.99705e-06
1.00035e-05
9.99756e-06
1.00072e-05
9.9966e-06
1.00094e-05
9.99343e-06
1.00576e-05
1.02348e-05
1.10812e-05
1.48477e-05
2.51676e-05
3.33218e-05
4.59284e-05
8.85351e-05
0.000125496
0.000166825
0.000167434
9.99528e-06
0.386428
0.981778
0.987159
0.987024
0.987769
0.987725
0.986031
0.986012
0.986861
0.986669
0.985865
0.985726
0.986642
0.987382
0.987572
0.98757
0.986501
0.984264
0.982801
0.982829
0.983062
0.980909
0.978553
0.978057
0.978307
0.978239
0.977658
0.977568
0.977905
0.978265
0.978852
0.979476
0.980644
0.982286
0.985478
0.99008
0.994696
4.26126e-06
4.88483e-06
5.66856e-06
5.8535e-06
5.98063e-06
6.9121e-06
7.69991e-06
8.50574e-06
8.90655e-06
9.21367e-06
9.58142e-06
9.84636e-06
9.95613e-06
9.99718e-06
1.00013e-05
1.00029e-05
1.00019e-05
1.0002e-05
1.00015e-05
1.00018e-05
1.00018e-05
1.0002e-05
1.00019e-05
1.00018e-05
1.00015e-05
1.00013e-05
1.00012e-05
1.00012e-05
1.00011e-05
1.00008e-05
1.00006e-05
1.00005e-05
1.00002e-05
1.00008e-05
1.00002e-05
1.00016e-05
1e-05
1.00008e-05
9.9984e-06
1.00005e-05
9.9978e-06
1.00037e-05
9.9984e-06
1.00076e-05
9.99752e-06
1.00088e-05
9.99358e-06
1.0062e-05
1.03189e-05
1.19527e-05
1.82093e-05
2.99423e-05
4.13897e-05
5.41468e-05
7.61795e-05
0.00010096
0.000130981
0.00013126
9.99528e-06
0.382687
0.985294
0.992179
0.99378
0.994235
0.992682
0.99199
0.993158
0.994095
0.995069
0.99575
0.996701
0.997748
0.998269
0.99843
0.998293
0.99741
0.996869
0.996608
0.996296
0.994879
0.992542
0.991323
0.990454
0.989602
0.988911
0.988042
0.987729
0.98773
0.988708
0.989826
0.991164
0.993018
0.995203
0.997221
0.998821
0.999512
3.80482e-06
4.38416e-06
5.89141e-06
6.34025e-06
6.9513e-06
7.69089e-06
8.26667e-06
8.82923e-06
9.10917e-06
9.30007e-06
9.59088e-06
9.85273e-06
9.95926e-06
9.9964e-06
9.99811e-06
9.99896e-06
9.99836e-06
9.999e-06
9.99899e-06
9.99971e-06
1.00001e-05
1.00007e-05
1.00009e-05
1.0001e-05
1.0001e-05
1.00011e-05
1.00014e-05
1.00016e-05
1.00016e-05
1.00016e-05
1.00015e-05
1.00014e-05
1.00013e-05
1.00018e-05
1.00014e-05
1.00026e-05
1.00011e-05
1.00017e-05
9.9995e-06
1.00011e-05
9.99874e-06
1.00039e-05
9.9991e-06
1.00075e-05
9.99789e-06
1.00069e-05
9.99298e-06
1.00673e-05
1.03486e-05
1.2127e-05
1.84818e-05
3.09074e-05
4.30497e-05
4.89109e-05
6.4983e-05
8.90283e-05
0.000107902
0.000174018
9.99528e-06
0.230454
0.981624
0.997484
0.998305
0.998772
0.998859
0.998929
0.999054
0.999252
0.999528
0.9997
0.999815
0.999876
0.999894
0.999899
0.999885
0.999839
0.999768
0.999689
0.999618
0.999501
0.999191
0.998792
0.998554
0.998432
0.998403
0.998367
0.998172
0.998181
0.998523
0.998807
0.999152
0.999517
0.999776
0.999916
0.999975
0.99999
3.41601e-06
3.64773e-06
5.56908e-06
5.82686e-06
7.07257e-06
7.89231e-06
8.45717e-06
9.00615e-06
9.36975e-06
9.61076e-06
9.81149e-06
9.9736e-06
9.99759e-06
1.00067e-05
1.00026e-05
1.00027e-05
1.00001e-05
1.00001e-05
9.99965e-06
1.00002e-05
1.00004e-05
1.0001e-05
1.00012e-05
1.00014e-05
1.00014e-05
1.00016e-05
1.00021e-05
1.00024e-05
1.00027e-05
1.00028e-05
1.00027e-05
1.00027e-05
1.00029e-05
1.00038e-05
1.00038e-05
1.0005e-05
1.00038e-05
1.00047e-05
1.00029e-05
1.0005e-05
1.00029e-05
1.00075e-05
1.00034e-05
1.00107e-05
1.00019e-05
1.00088e-05
9.99742e-06
1.00822e-05
1.03378e-05
1.20676e-05
1.85324e-05
3.10454e-05
4.58282e-05
6.02209e-05
6.657e-05
9.14365e-05
0.000103011
0.000275256
0.000108135
0.172546
0.993216
0.999783
0.99988
0.99995
0.999967
0.999979
0.999983
0.999988
0.999994
0.999997
0.999999
0.999999
0.999999
0.999999
1
0.999999
0.999998
0.999998
0.999997
0.999993
0.999986
0.999975
0.999966
0.999964
0.999968
0.99997
0.999968
0.999967
0.999976
0.999985
0.999992
0.999996
0.999998
0.999999
0.999999
0.999999
2.92493e-06
2.73322e-06
4.24622e-06
4.32078e-06
6.10762e-06
7.86386e-06
8.85858e-06
9.27289e-06
9.64563e-06
9.88111e-06
9.96825e-06
1.00105e-05
1.00109e-05
1.00109e-05
1.00109e-05
1.00109e-05
1.00093e-05
1.00081e-05
1.00061e-05
1.00054e-05
1.00048e-05
1.00048e-05
1.00045e-05
1.00043e-05
1.00041e-05
1.00042e-05
1.00045e-05
1.00048e-05
1.00049e-05
1.00049e-05
1.00048e-05
1.00048e-05
1.00049e-05
1.00056e-05
1.00055e-05
1.00068e-05
1.00055e-05
1.00071e-05
1.00046e-05
1.00071e-05
1.00048e-05
1.00094e-05
1.00057e-05
1.00113e-05
1.00041e-05
1.00094e-05
1.00019e-05
1.00879e-05
1.03086e-05
1.21389e-05
1.98658e-05
3.22979e-05
4.4732e-05
6.17625e-05
7.85648e-05
0.000102703
0.000106269
0.000368442
0.000245415
0.107618
0.991757
0.999996
0.999998
0.999999
0.999999
0.999999
0.999999
0.999999
0.999999
0.999999
0.999999
0.999999
0.999999
0.999999
0.999999
0.999999
1
1
1
1
1
1
1
1
1
1
1
1
1
1
1
1
1
1
1
1
2.30543e-06
2.52033e-06
2.47426e-06
2.39662e-06
2.50505e-06
5.68716e-06
8.67102e-06
9.414e-06
9.74588e-06
9.92089e-06
9.96324e-06
1.00029e-05
1.00109e-05
1.00109e-05
1.00109e-05
1.00109e-05
1.00109e-05
1.00109e-05
1.00106e-05
1.00104e-05
1.001e-05
1.00098e-05
1.00093e-05
1.00088e-05
1.00084e-05
1.00081e-05
1.00081e-05
1.00081e-05
1.00079e-05
1.00076e-05
1.00073e-05
1.00072e-05
1.00071e-05
1.00079e-05
1.00081e-05
1.00081e-05
1.00078e-05
1.00082e-05
1.00065e-05
1.00092e-05
1.00067e-05
1.00114e-05
1.00073e-05
1.00115e-05
1.00059e-05
1.001e-05
1.00059e-05
1.00917e-05
1.02883e-05
1.22073e-05
2.03215e-05
3.23056e-05
4.2446e-05
5.69697e-05
7.69135e-05
0.000102581
0.000121678
0.000455236
0.000779744
0.0660678
0.976853
1
1
1
1
0.999999
0.999999
0.999999
0.999999
0.999999
0.999999
0.999999
0.999999
0.999999
1
1
1
1
1
1
1
1
1
1
1
1
1
1
1
1
1
1
1
1
1
1
1.92237e-06
2.20907e-06
1.49019e-06
1.7141e-06
1.66703e-06
3.44956e-06
6.77328e-06
9.63568e-06
9.84421e-06
9.93694e-06
9.95836e-06
9.99508e-06
1.00042e-05
1.00084e-05
1.0008e-05
1.00085e-05
1.00083e-05
1.00085e-05
1.00084e-05
1.00084e-05
1.00082e-05
1.00083e-05
1.0008e-05
1.00077e-05
1.00074e-05
1.00072e-05
1.00072e-05
1.00072e-05
1.00071e-05
1.00067e-05
1.00064e-05
1.00063e-05
1.00063e-05
1.00071e-05
1.00073e-05
1.00077e-05
1.00073e-05
1.00077e-05
1.00063e-05
1.00091e-05
1.00071e-05
1.00114e-05
1.00079e-05
1.00108e-05
1.00058e-05
1.00108e-05
1.00121e-05
1.00898e-05
1.02485e-05
1.20092e-05
1.88857e-05
3.08979e-05
4.66765e-05
6.1002e-05
7.73195e-05
9.49638e-05
0.000131542
0.000593171
0.00173803
0.0713881
0.982087
0.999988
1
1
1
1
1
1
1
1
1
1
1
1
1
1
1
1
1
1
1
1
1
1
1
1
1
1
1
1
1
1
1
1
1
1
1.21629e-06
1.54107e-06
1.52573e-06
1.49791e-06
1.47988e-06
1.48537e-06
2.86238e-06
9.14704e-06
9.90631e-06
9.9737e-06
9.9766e-06
1.00027e-05
1.00106e-05
1.00133e-05
1.00133e-05
1.00133e-05
1.00133e-05
1.00133e-05
1.00133e-05
1.00133e-05
1.00133e-05
1.00133e-05
1.00133e-05
1.00132e-05
1.00132e-05
1.00131e-05
1.00131e-05
1.00131e-05
1.0013e-05
1.00128e-05
1.00125e-05
1.00124e-05
1.00124e-05
1.00133e-05
1.00137e-05
1.00137e-05
1.00137e-05
1.00139e-05
1.00131e-05
1.00161e-05
1.00158e-05
1.00165e-05
1.00151e-05
1.00164e-05
1.00119e-05
1.00172e-05
1.00215e-05
1.00739e-05
1.02228e-05
1.20503e-05
1.82473e-05
3.22173e-05
5.02064e-05
6.57956e-05
7.79808e-05
9.40713e-05
0.000114545
0.00052288
0.00147511
0.067671
0.979053
0.999946
1
1
1
1
1
1
1
1
1
1
1
1
1
1
1
1
1
1
1
1
1
1
1
1
1
1
1
1
1
1
1
1
1
1
4.92547e-06
6.2104e-06
6.81693e-06
7.23108e-06
7.6271e-06
8.11995e-06
8.71746e-06
9.47453e-06
9.82784e-06
9.89536e-06
9.95028e-06
9.9912e-06
1.00111e-05
1.0013e-05
1.0013e-05
1.0013e-05
1.0013e-05
1.0013e-05
1.00127e-05
1.00127e-05
1.00123e-05
1.00123e-05
1.00119e-05
1.00119e-05
1.00117e-05
1.00113e-05
1.0011e-05
1.0011e-05
1.0011e-05
1.0011e-05
1.0011e-05
1.00116e-05
1.00116e-05
1.00116e-05
1.00116e-05
1.00116e-05
1.00116e-05
1.00116e-05
1.00113e-05
1.00113e-05
1.00105e-05
1.00121e-05
1.00121e-05
1.00121e-05
1.00057e-05
1.00143e-05
1.00015e-05
1.00281e-05
1.00287e-05
1.02403e-05
1.13226e-05
1.9289e-05
4.35022e-05
7.66635e-05
8.32893e-05
0.000112803
0.000200755
0.000892696
0.00239671
0.0510377
0.939288
0.999553
0.999999
0.999999
0.999999
0.999999
0.999999
0.999999
0.999999
0.999999
0.999999
0.999999
0.999999
0.999999
0.999999
0.999999
0.999999
0.999999
0.999999
0.999999
0.999999
0.999999
0.999999
0.999999
0.999999
0.999999
0.999999
0.999999
0.999999
0.999999
0.999999
0.999999
0.999999
0.999999
0.999999
0.999999
4.29373e-06
6.10449e-06
7.15207e-06
7.70662e-06
8.21128e-06
8.653e-06
9.09301e-06
9.37561e-06
9.56035e-06
9.70296e-06
9.83326e-06
9.93606e-06
9.99298e-06
1.00097e-05
1.00112e-05
1.00117e-05
1.00111e-05
1.00117e-05
1.00112e-05
1.00115e-05
1.00111e-05
1.00113e-05
1.0011e-05
1.00109e-05
1.00105e-05
1.00105e-05
1.00106e-05
1.00105e-05
1.00103e-05
1.00101e-05
1.00098e-05
1.001e-05
1.00095e-05
1.00106e-05
1.00092e-05
1.00114e-05
1.00082e-05
1.00116e-05
1.00075e-05
1.00113e-05
1.00068e-05
1.00121e-05
1.00068e-05
1.00121e-05
1.00045e-05
1.00143e-05
1.00017e-05
1.00411e-05
1.00469e-05
1.02587e-05
1.07539e-05
1.65544e-05
4.4038e-05
7.29081e-05
7.14421e-05
9.60956e-05
0.000228932
0.000810194
0.00170011
0.0481908
0.950815
0.999927
0.999999
0.999999
0.999999
0.999999
0.999999
0.999999
0.999999
0.999999
0.999999
0.999999
0.999999
0.999999
0.999999
0.999999
0.999999
0.999999
0.999999
0.999999
0.999999
0.999999
0.999999
0.999999
0.999999
0.999999
0.999999
0.999999
0.999999
0.999999
0.999999
0.999999
0.999999
0.999999
0.999999
0.999999
3.75923e-06
5.37755e-06
6.85626e-06
7.36558e-06
7.58343e-06
7.90777e-06
8.45668e-06
8.86947e-06
9.26759e-06
9.56363e-06
9.75613e-06
9.89803e-06
9.98081e-06
1.00068e-05
1.00085e-05
1.0009e-05
1.00088e-05
1.0009e-05
1.00088e-05
1.00088e-05
1.00086e-05
1.00087e-05
1.00085e-05
1.00084e-05
1.00082e-05
1.00081e-05
1.00079e-05
1.00079e-05
1.00077e-05
1.00076e-05
1.00074e-05
1.00075e-05
1.00072e-05
1.00079e-05
1.00069e-05
1.00082e-05
1.00059e-05
1.00083e-05
1.00043e-05
1.0009e-05
1.00038e-05
1.00107e-05
1.00036e-05
1.0012e-05
1.00014e-05
1.00141e-05
1.00011e-05
1.00454e-05
1.0126e-05
1.08132e-05
1.16394e-05
1.91684e-05
4.45408e-05
7.00194e-05
7.05546e-05
9.86354e-05
0.000168374
0.000582608
0.000881999
0.0413642
0.950539
0.999999
0.999999
0.999999
0.999999
0.999999
0.999999
0.999999
0.999999
0.999999
0.999999
0.999999
0.999999
0.999999
0.999999
0.999999
0.999999
0.999999
0.999999
0.999999
0.999999
0.999999
0.999999
0.999999
0.999999
0.999999
0.999999
0.999999
0.999999
0.999999
0.999999
0.999999
0.999999
0.999999
0.999999
0.999999
3.37189e-06
4.42477e-06
6.32474e-06
7.06523e-06
7.12457e-06
7.23471e-06
7.82927e-06
8.35251e-06
8.98021e-06
9.4552e-06
9.71279e-06
9.87936e-06
9.97331e-06
1.00047e-05
1.00066e-05
1.0007e-05
1.00065e-05
1.00066e-05
1.00063e-05
1.00062e-05
1.0006e-05
1.00059e-05
1.00058e-05
1.00057e-05
1.00056e-05
1.00055e-05
1.00054e-05
1.00053e-05
1.00052e-05
1.00051e-05
1.00049e-05
1.0005e-05
1.00047e-05
1.00053e-05
1.00045e-05
1.00057e-05
1.00037e-05
1.00059e-05
1.00026e-05
1.00065e-05
1.00023e-05
1.00079e-05
1.0002e-05
1.00086e-05
1.00005e-05
1.00101e-05
1.00011e-05
1.00569e-05
1.02788e-05
1.13388e-05
1.33529e-05
2.35045e-05
4.24466e-05
6.16605e-05
8.75334e-05
0.000130991
0.000118191
0.000456131
0.000419913
0.0405417
0.969381
0.999998
0.999986
0.999996
0.999997
0.999997
0.999997
0.999996
0.999996
0.999996
0.999995
0.999995
0.999996
0.999997
0.999998
0.999998
0.999999
0.999999
0.999999
0.999999
0.999999
0.999999
0.999999
0.999999
0.999999
0.999999
0.999999
0.999999
0.999999
0.999999
0.999999
0.999999
0.999999
0.999999
0.999999
0.999999
3.16298e-06
3.53186e-06
5.43177e-06
6.79981e-06
6.92938e-06
6.95498e-06
7.53221e-06
8.04374e-06
8.79062e-06
9.37879e-06
9.68663e-06
9.87121e-06
9.96905e-06
1.00037e-05
1.00057e-05
1.00061e-05
1.00056e-05
1.00056e-05
1.00052e-05
1.00051e-05
1.00048e-05
1.00048e-05
1.00046e-05
1.00046e-05
1.00044e-05
1.00043e-05
1.00042e-05
1.00041e-05
1.0004e-05
1.00039e-05
1.00038e-05
1.00038e-05
1.00036e-05
1.00042e-05
1.00035e-05
1.00046e-05
1.00028e-05
1.00048e-05
1.00018e-05
1.00055e-05
1.00016e-05
1.00068e-05
1.00015e-05
1.00072e-05
1.00005e-05
1.0009e-05
1.00046e-05
1.00758e-05
1.0383e-05
1.16126e-05
1.39667e-05
2.65964e-05
8.62113e-05
0.000113771
0.000135498
0.000161541
0.000222045
0.000320464
0.000156294
0.065395
0.980179
0.999578
0.999663
0.999792
0.999798
0.999784
0.999753
0.999703
0.999655
0.999613
0.999564
0.999543
0.999563
0.999569
0.999556
0.999629
0.999738
0.99983
0.999907
0.999962
0.999986
0.999993
0.999997
0.999999
0.999999
0.999999
0.999999
0.999999
0.999999
0.999999
0.999999
0.999999
0.999999
0.999999
0.999999
0.999999
3.1111e-06
3.02348e-06
4.23415e-06
5.87507e-06
6.60335e-06
6.7872e-06
7.40368e-06
7.9138e-06
8.72336e-06
9.34661e-06
9.67594e-06
9.86902e-06
9.96659e-06
1.00029e-05
1.00051e-05
1.00054e-05
1.00048e-05
1.00047e-05
1.00043e-05
1.00041e-05
1.00038e-05
1.00037e-05
1.00036e-05
1.00035e-05
1.00034e-05
1.00032e-05
1.00031e-05
1.00031e-05
1.0003e-05
1.00029e-05
1.00028e-05
1.0003e-05
1.00028e-05
1.00034e-05
1.00028e-05
1.00039e-05
1.00023e-05
1.00042e-05
1.00015e-05
1.00051e-05
1.00014e-05
1.00064e-05
1.00015e-05
1.00068e-05
1.00013e-05
1.00087e-05
1.00078e-05
1.00913e-05
1.04527e-05
1.17987e-05
1.51816e-05
5.36188e-05
0.000144142
0.000161738
0.000164195
0.000143524
0.000125499
0.000113014
5.24083e-05
0.128112
0.977346
0.995762
0.996275
0.997037
0.99673
0.99596
0.995736
0.9955
0.995217
0.994842
0.994361
0.993765
0.993408
0.993191
0.993117
0.993893
0.994412
0.995435
0.996586
0.997619
0.998471
0.998979
0.999304
0.999634
0.999849
0.999943
0.999982
0.999997
0.999999
0.999999
0.999999
0.999999
0.999999
0.999999
0.999999
0.999999
3.22529e-06
2.92795e-06
3.43129e-06
4.38573e-06
5.57878e-06
6.32112e-06
7.24991e-06
7.87442e-06
8.7193e-06
9.3409e-06
9.67362e-06
9.87081e-06
9.96532e-06
1.00022e-05
1.00047e-05
1.0005e-05
1.00045e-05
1.00043e-05
1.00039e-05
1.00038e-05
1.00035e-05
1.00034e-05
1.00033e-05
1.00032e-05
1.0003e-05
1.00029e-05
1.00028e-05
1.00028e-05
1.00028e-05
1.00027e-05
1.00026e-05
1.00028e-05
1.00027e-05
1.00033e-05
1.00027e-05
1.00038e-05
1.00024e-05
1.00042e-05
1.00016e-05
1.00053e-05
1.00018e-05
1.00066e-05
1.00022e-05
1.0007e-05
1.00023e-05
1.001e-05
1.00104e-05
1.01e-05
1.04874e-05
1.19831e-05
1.4283e-05
2.00371e-05
3.53513e-05
0.000207866
0.000236588
0.000187747
0.000132779
6.54866e-05
9.99528e-06
0.269737
0.97542
0.986016
0.986295
0.986562
0.984359
0.981595
0.98118
0.981296
0.98232
0.982525
0.980884
0.979133
0.97841
0.978087
0.97868
0.979857
0.980341
0.980559
0.981118
0.983041
0.985885
0.988036
0.988154
0.98779
0.9919
0.994841
0.996509
0.998123
0.999421
0.999979
0.99997
0.999968
0.999966
0.999963
0.999953
0.999907
3.41659e-06
2.93405e-06
3.05919e-06
3.28714e-06
4.43976e-06
5.57037e-06
6.8326e-06
7.8573e-06
8.80437e-06
9.37465e-06
9.68173e-06
9.87358e-06
9.96538e-06
1.00018e-05
1.00042e-05
1.00044e-05
1.00041e-05
1.00041e-05
1.00038e-05
1.00038e-05
1.00039e-05
1.00039e-05
1.00039e-05
1.00038e-05
1.00037e-05
1.00036e-05
1.00036e-05
1.00036e-05
1.00036e-05
1.00035e-05
1.00034e-05
1.00035e-05
1.00034e-05
1.0004e-05
1.00034e-05
1.00045e-05
1.00029e-05
1.00049e-05
1.00021e-05
1.00058e-05
1.00022e-05
1.00071e-05
1.00027e-05
1.00074e-05
1.0003e-05
1.00106e-05
1.00128e-05
1.01042e-05
1.05035e-05
1.21667e-05
1.51549e-05
2.27708e-05
3.47044e-05
7.96225e-05
0.000108986
0.000168818
0.00028156
0.000176519
9.99528e-06
0.349603
0.970417
0.9808
0.981518
0.979951
0.974562
0.973408
0.971788
0.973408
0.971592
0.973458
0.971884
0.974626
0.973761
0.973685
0.973759
0.974018
0.973868
0.972035
0.970466
0.969758
0.968837
0.967138
0.965679
0.964624
0.963804
0.962921
0.961503
0.959189
0.956233
0.952498
0.947792
0.940412
0.928516
0.907266
0.856474
0.654646
3.55541e-06
2.95286e-06
3.06638e-06
3.00711e-06
3.70849e-06
4.80347e-06
6.51378e-06
7.94128e-06
8.87246e-06
9.40373e-06
9.69085e-06
9.88022e-06
9.97153e-06
1.00041e-05
1.0006e-05
1.0006e-05
1.00057e-05
1.00055e-05
1.00053e-05
1.00052e-05
1.00051e-05
1.0005e-05
1.00049e-05
1.00049e-05
1.00047e-05
1.00047e-05
1.00046e-05
1.00047e-05
1.00046e-05
1.00046e-05
1.00045e-05
1.00047e-05
1.00045e-05
1.00052e-05
1.00046e-05
1.00057e-05
1.00042e-05
1.00062e-05
1.00034e-05
1.00072e-05
1.00036e-05
1.00087e-05
1.00044e-05
1.00091e-05
1.00047e-05
1.00126e-05
1.00153e-05
1.01054e-05
1.04839e-05
1.22326e-05
1.59187e-05
2.52811e-05
4.56652e-05
7.5336e-05
0.00011005
0.000125701
0.000132784
0.000145258
9.99528e-06
0.325463
0.978015
0.985762
0.983123
0.983196
0.985336
0.985526
0.987163
0.988442
0.989163
0.989964
0.991646
0.992967
0.993106
0.992339
0.991998
0.991982
0.991446
0.988993
0.984609
0.981614
0.979829
0.974764
0.971536
0.969816
0.965451
0.962013
0.959572
0.957721
0.954406
0.950732
0.945992
0.941333
0.937307
0.93269
0.929775
0.934544
3.43645e-06
2.90643e-06
3.3399e-06
3.46149e-06
3.52886e-06
4.44714e-06
6.31848e-06
7.99994e-06
8.94541e-06
9.43981e-06
9.70603e-06
9.89102e-06
9.97815e-06
1.00056e-05
1.00071e-05
1.00072e-05
1.0007e-05
1.00069e-05
1.00068e-05
1.00068e-05
1.00067e-05
1.00066e-05
1.00065e-05
1.00064e-05
1.00063e-05
1.00062e-05
1.00062e-05
1.00061e-05
1.0006e-05
1.00059e-05
1.00058e-05
1.00059e-05
1.00057e-05
1.00063e-05
1.00057e-05
1.00068e-05
1.00053e-05
1.0007e-05
1.00043e-05
1.00079e-05
1.00044e-05
1.00094e-05
1.00052e-05
1.00097e-05
1.00054e-05
1.00131e-05
1.00157e-05
1.00931e-05
1.0397e-05
1.2154e-05
1.622e-05
2.60829e-05
4.80681e-05
8.82595e-05
9.66541e-05
9.12767e-05
8.8577e-05
6.57685e-05
1.85889e-05
0.26925
0.987704
0.994623
0.994662
0.995705
0.99662
0.997121
0.997733
0.998164
0.99831
0.998736
0.999117
0.999215
0.999164
0.998966
0.998925
0.998964
0.998964
0.998531
0.997334
0.995922
0.994718
0.993816
0.993134
0.992163
0.99092
0.989296
0.987258
0.985643
0.985238
0.985641
0.985629
0.983903
0.982557
0.986294
0.992797
0.997053
3.10654e-06
2.88957e-06
3.45027e-06
3.9694e-06
4.65269e-06
5.56501e-06
6.75899e-06
8.11197e-06
9.00309e-06
9.4813e-06
9.73484e-06
9.90798e-06
9.98452e-06
1.00057e-05
1.00073e-05
1.00073e-05
1.00073e-05
1.00073e-05
1.00073e-05
1.00073e-05
1.00073e-05
1.00072e-05
1.00072e-05
1.00071e-05
1.0007e-05
1.00069e-05
1.00068e-05
1.00068e-05
1.00067e-05
1.00066e-05
1.00065e-05
1.00066e-05
1.00065e-05
1.00072e-05
1.00066e-05
1.00077e-05
1.00063e-05
1.00081e-05
1.00054e-05
1.00091e-05
1.00057e-05
1.00104e-05
1.00064e-05
1.00103e-05
1.00065e-05
1.00135e-05
1.00159e-05
1.00862e-05
1.03432e-05
1.2055e-05
1.63503e-05
2.60917e-05
4.24322e-05
5.95243e-05
0.000100287
0.000158404
0.000166401
0.00010028
3.19094e-05
0.182541
0.99289
0.999322
0.999529
0.999722
0.99975
0.999816
0.999862
0.999883
0.999907
0.999932
0.999946
0.99995
0.999951
0.999942
0.99993
0.999922
0.999907
0.999866
0.999788
0.999682
0.999534
0.99934
0.999202
0.999169
0.999238
0.999287
0.999293
0.999277
0.999283
0.999297
0.999462
0.999606
0.999662
0.999725
0.999902
0.99997
2.33624e-06
2.69717e-06
3.40581e-06
4.09647e-06
5.14477e-06
6.55927e-06
7.6507e-06
8.48933e-06
9.17118e-06
9.54971e-06
9.77063e-06
9.92954e-06
9.99268e-06
1.00058e-05
1.00063e-05
1.00073e-05
1.00068e-05
1.00072e-05
1.0007e-05
1.00071e-05
1.0007e-05
1.0007e-05
1.00069e-05
1.00069e-05
1.00069e-05
1.00068e-05
1.00068e-05
1.00068e-05
1.00067e-05
1.00067e-05
1.00066e-05
1.00067e-05
1.00066e-05
1.00073e-05
1.00067e-05
1.00078e-05
1.00063e-05
1.00082e-05
1.00055e-05
1.00092e-05
1.00059e-05
1.00105e-05
1.00064e-05
1.00103e-05
1.00063e-05
1.0012e-05
1.00137e-05
1.00771e-05
1.02961e-05
1.19068e-05
1.59162e-05
2.64619e-05
4.48032e-05
5.67678e-05
8.8688e-05
0.000135061
0.00021061
0.000262664
0.000101049
0.139069
0.996986
0.999972
0.999982
0.999993
0.999994
0.999996
0.999997
0.999997
0.999998
0.999998
0.999998
0.999998
0.999998
0.999998
0.999998
0.999997
0.999996
0.999995
0.999993
0.999991
0.999987
0.999982
0.999979
0.99998
0.999988
0.999992
0.999994
0.999996
0.999998
0.999998
0.999998
0.999998
0.999999
0.999999
0.999999
0.999999
1.39498e-06
2.08295e-06
2.35967e-06
3.02505e-06
4.36725e-06
6.66305e-06
7.93023e-06
8.67706e-06
9.28121e-06
9.62118e-06
9.81049e-06
9.95085e-06
9.99824e-06
1.00068e-05
1.00065e-05
1.00073e-05
1.00069e-05
1.00073e-05
1.00073e-05
1.00073e-05
1.00073e-05
1.00073e-05
1.00073e-05
1.00073e-05
1.00072e-05
1.00072e-05
1.00071e-05
1.0007e-05
1.00069e-05
1.00069e-05
1.00067e-05
1.00068e-05
1.00067e-05
1.00073e-05
1.00068e-05
1.00078e-05
1.00064e-05
1.00082e-05
1.00056e-05
1.00092e-05
1.00061e-05
1.00105e-05
1.00065e-05
1.00089e-05
1.00052e-05
1.00103e-05
1.00121e-05
1.00693e-05
1.02788e-05
1.1872e-05
1.61502e-05
2.7278e-05
4.5699e-05
5.79323e-05
7.92256e-05
0.000117075
0.000128043
0.000430109
0.000405281
0.0856846
0.974819
1
0.999999
0.999999
0.999999
0.999999
0.999999
0.999999
0.999999
0.999999
0.999999
0.999999
0.999999
0.999999
0.999999
1
1
1
1
1
1
1
1
1
1
1
1
1
1
1
1
1
1
1
1
1
1.6779e-06
1.83835e-06
1.67003e-06
1.99648e-06
2.52453e-06
5.23052e-06
8.06667e-06
8.95223e-06
9.43294e-06
9.7137e-06
9.85561e-06
9.9646e-06
9.99911e-06
1.00058e-05
1.00051e-05
1.00053e-05
1.00053e-05
1.00054e-05
1.00055e-05