/*--------------------------------*- C++ -*----------------------------------*\
| =========                 |                                                 |
| \\      /  F ield         | OpenFOAM: The Open Source CFD Toolbox           |
|  \\    /   O peration     | Version:  2.3.0                                 |
|   \\  /    A nd           | Web:      www.OpenFOAM.org                      |
|    \\/     M anipulation  |                                                 |
\*---------------------------------------------------------------------------*/
FoamFile
{
    version     2.0;
    format      ascii;
    class       surfaceScalarField;
    location    "27";
    object      phi;
}
// * * * * * * * * * * * * * * * * * * * * * * * * * * * * * * * * * * * * * //

dimensions      [0 3 -1 0 0 0 0];

internalField   nonuniform List<scalar> 
16448
(
-7.53453e-07
-2.39981e-06
4.38065e-07
8.71856e-07
-2.43785e-06
8.12538e-07
7.45594e-07
-1.15843e-06
1.28469e-06
6.66418e-07
-1.16601e-06
1.24517e-06
3.77387e-07
-7.71684e-07
1.0607e-06
1.68412e-07
-6.97958e-07
9.06921e-07
-6.9731e-08
-4.70622e-07
7.08752e-07
-2.20885e-07
-4.27834e-07
5.78976e-07
-3.45619e-07
-3.645e-07
4.89223e-07
-4.81552e-07
-3.16669e-07
4.52592e-07
-6.08665e-07
-2.85442e-07
4.12545e-07
-6.53055e-07
-3.0673e-07
3.5111e-07
-6.14783e-07
-3.58914e-07
3.20631e-07
-4.97053e-07
-4.13249e-07
2.95507e-07
-3.64213e-07
-4.43116e-07
3.10264e-07
-2.35248e-07
-4.62236e-07
3.33256e-07
-1.41154e-07
-4.66715e-07
3.72608e-07
-7.08176e-08
-4.74264e-07
4.03913e-07
-2.70559e-08
-4.81757e-07
4.37981e-07
-3.77405e-10
-4.87045e-07
4.60352e-07
1.06031e-08
-4.87993e-07
4.76998e-07
1.07382e-08
-4.84819e-07
4.84668e-07
3.69521e-09
-4.79238e-07
4.86265e-07
-7.64345e-09
-4.71279e-07
4.82601e-07
-2.10819e-08
-4.61738e-07
4.75161e-07
-3.52983e-08
-4.50811e-07
4.65011e-07
-4.97772e-08
-4.38525e-07
4.52988e-07
-6.45774e-08
-4.24843e-07
4.39626e-07
-7.96813e-08
-4.10042e-07
4.25129e-07
-9.29951e-08
-3.96844e-07
4.1014e-07
-1.03106e-07
-3.83298e-07
3.93391e-07
-1.0923e-07
-3.67932e-07
3.74038e-07
-1.10608e-07
-3.50363e-07
3.51723e-07
-1.03866e-07
-3.31761e-07
3.25e-07
-8.13441e-08
-3.14939e-07
2.92399e-07
-3.36403e-08
-3.03042e-07
2.55319e-07
4.40288e-08
-2.98419e-07
2.20731e-07
1.47584e-07
-2.99761e-07
1.96185e-07
2.62288e-07
-3.06251e-07
1.91527e-07
3.59942e-07
-3.13998e-07
2.16323e-07
3.90968e-07
-3.13044e-07
2.81997e-07
3.17622e-07
-3.23802e-07
3.97126e-07
1.34894e-07
-3.66569e-07
5.49276e-07
-4.03164e-08
-4.95624e-07
6.70813e-07
-5.93238e-08
-7.77555e-07
7.96541e-07
7.69255e-08
-1.10351e-06
9.67242e-07
2.35483e-07
-1.38738e-06
1.2288e-06
-8.90357e-08
-1.31857e-06
1.64307e-06
-1.66004e-06
-1.88309e-07
1.7593e-06
-2.29111e-06
-1.32969e-06
1.96076e-06
2.14806e-06
-8.24728e-06
3.80809e-06
7.64629e-06
-1.0556e-05
5.05776e-06
1.1347e-05
-8.24577e-06
4.545e-06
1.29369e-05
-5.85872e-06
4.26883e-06
1.23831e-05
-2.18284e-06
2.73662e-06
1.41313e-05
-3.36983e-06
1.62159e-06
1.15202e-05
2.23921e-06
3.71795e-07
1.25102e-05
2.25423e-06
-3.2444e-06
-9.23121e-06
1.11978e-05
1.05432e-05
-1.89362e-07
-1.73695e-06
-7.3051e-06
2.39038e-05
-2.57e-05
1.60687e-06
3.14678e-05
-1.57333e-05
8.16927e-06
3.19473e-05
-9.41053e-06
8.93101e-06
3.4538e-05
-8.04565e-06
5.45493e-06
3.65666e-05
-5.31199e-06
3.28344e-06
3.71286e-05
-3.06502e-06
2.50303e-06
3.72612e-05
-1.89244e-06
1.75977e-06
3.69276e-05
-1.43729e-06
1.77092e-06
3.65281e-05
-1.66647e-06
2.06599e-06
3.61697e-05
-2.29471e-06
2.65306e-06
3.59511e-05
-3.55467e-06
3.77335e-06
3.46905e-05
-3.46236e-06
4.72289e-06
3.27338e-05
-2.93539e-06
4.89212e-06
3.04958e-05
-2.58729e-06
4.82527e-06
2.81405e-05
-1.84281e-06
4.19813e-06
2.55757e-05
-1.31555e-06
3.88032e-06
2.2555e-05
-2.169e-07
3.23763e-06
1.87611e-05
1.11548e-06
2.67842e-06
1.41777e-05
1.65093e-06
2.93247e-06
1.01354e-05
1.57238e-06
2.46987e-06
7.72278e-06
7.56528e-07
1.65611e-06
7.00246e-06
-9.44517e-08
8.14774e-07
6.72883e-06
2.62335e-07
1.12859e-08
5.89143e-06
6.60879e-07
1.76528e-07
5.67315e-06
-1.97535e-07
4.15809e-07
6.57139e-06
-9.05747e-07
7.51224e-09
8.56711e-06
-5.57925e-07
-1.4378e-06
1.06084e-05
3.10499e-07
-2.35177e-06
1.15856e-05
7.17119e-07
-1.69437e-06
1.10103e-05
6.78691e-07
-1.0334e-07
9.96575e-06
5.82652e-07
4.61873e-07
8.66149e-06
8.04941e-07
4.99314e-07
7.18141e-06
1.1052e-06
3.74882e-07
4.31117e-06
1.53199e-06
1.33824e-06
5.28911e-07
2.24956e-06
1.5327e-06
3.17558e-06
-2.64667e-06
-1.51318e-06
-3.56692e-06
-8.78302e-08
-4.04748e-07
-3.68279e-06
1.36501e-07
-4.66225e-07
-2.09853e-06
1.00156e-06
-3.17017e-07
-1.94245e-06
6.2722e-07
-2.05486e-07
-1.25362e-06
3.70392e-07
-1.0257e-07
-9.75272e-07
1.7438e-07
-1.33326e-07
-5.0333e-07
6.34466e-08
-2.78869e-07
-3.55273e-07
7.29653e-08
-4.92097e-07
-2.3197e-07
8.06837e-08
-6.90009e-07
-1.99511e-07
8.07398e-08
-8.24162e-07
-1.96906e-07
4.56013e-08
-8.5307e-07
-2.68512e-07
-9.32659e-09
-8.02892e-07
-3.63536e-07
-4.5573e-08
-6.78153e-07
-4.62287e-07
-7.57202e-08
-5.28864e-07
-5.19029e-07
-7.33966e-08
-3.78061e-07
-5.52042e-07
-6.10171e-08
-2.56774e-07
-5.539e-07
-3.41225e-08
-1.61308e-07
-5.57794e-07
-1.19581e-08
-9.71032e-08
-5.55684e-07
9.69913e-09
-5.39126e-08
-5.53002e-07
2.27424e-08
-3.17513e-08
-5.43413e-07
3.32333e-08
-2.37239e-08
-5.30966e-07
3.80946e-08
-2.6061e-08
-5.15913e-07
3.89868e-08
-3.4732e-08
-4.98968e-07
3.6334e-08
-4.71339e-08
-4.8075e-07
3.13868e-08
-6.1363e-08
-4.61343e-07
2.47333e-08
-7.63181e-08
-4.40602e-07
1.70033e-08
-9.14147e-08
-4.18402e-07
8.62692e-09
-1.06156e-07
-3.94765e-07
-5.65808e-10
-1.16412e-07
-3.71708e-07
-1.49104e-08
-1.20787e-07
-3.48722e-07
-3.02325e-08
-1.18245e-07
-3.23615e-07
-4.6892e-08
-1.09017e-07
-2.9509e-07
-6.45327e-08
-9.20876e-08
-2.652e-07
-8.35246e-08
-6.20875e-08
-2.40581e-07
-1.04393e-07
-1.24783e-08
-2.27351e-07
-1.25335e-07
6.01156e-08
-2.2748e-07
-1.4357e-07
1.51005e-07
-2.39168e-07
-1.5152e-07
2.44682e-07
-2.56307e-07
-1.4366e-07
3.13585e-07
-2.72277e-07
-1.10663e-07
3.08472e-07
-2.69834e-07
-3.81365e-08
1.91164e-07
-2.63726e-07
5.71912e-08
-2.94297e-08
-3.08708e-07
1.62692e-07
-2.53964e-07
-4.99182e-07
2.28052e-07
-4.05552e-07
-9.23162e-07
2.97154e-07
-5.43581e-07
-1.38635e-06
4.20823e-07
-9.35844e-07
-1.63544e-06
6.40284e-07
-1.70584e-06
-1.36816e-06
8.19546e-07
-2.10693e-06
-3.31625e-07
5.44372e-07
2.96959e-07
-4.79805e-06
1.06444e-06
2.25496e-06
-1.46102e-05
4.40488e-06
2.78816e-06
-1.69009e-05
5.81163e-06
3.30718e-06
-1.38811e-05
5.11634e-06
2.06996e-06
-9.82256e-06
5.20102e-06
5.45594e-06
-6.09976e-06
5.30921e-07
1.0856e-05
-7.16937e-06
-1.60054e-06
1.03191e-05
5.35544e-06
-2.57935e-06
1.38356e-05
4.41378e-06
-5.67624e-06
-6.19418e-06
1.94368e-05
1.17902e-05
-9.09682e-09
-5.38963e-06
-2.53268e-06
1.70697e-05
-3.80239e-05
-4.75483e-06
2.01235e-05
-2.46674e-05
5.88021e-06
2.02239e-05
-1.63864e-05
6.87545e-06
2.31328e-05
-1.31589e-05
2.20443e-06
2.42289e-05
-7.48937e-06
1.08125e-06
2.42872e-05
-3.73942e-06
6.16067e-07
2.45083e-05
-2.73661e-06
6.23119e-07
2.407e-05
-2.18527e-06
1.18629e-06
2.32574e-05
-2.94787e-06
2.09395e-06
2.11052e-05
-3.59802e-06
3.4555e-06
1.68428e-05
-4.281e-06
4.98871e-06
1.24862e-05
-4.1327e-06
5.02696e-06
9.76419e-06
-4.2199e-06
4.00652e-06
7.78912e-06
-3.81332e-06
3.20111e-06
5.3868e-06
-1.95226e-06
2.51178e-06
1.31737e-06
3.79589e-07
2.37428e-06
-1.92541e-06
4.97254e-07
2.52863e-06
-1.94385e-06
-1.14632e-06
2.28025e-06
-4.93641e-07
-1.40809e-06
1.60881e-06
1.22185e-06
-8.98293e-07
7.55182e-07
3.13489e-06
-6.94441e-07
-4.62077e-07
4.89893e-06
-7.16017e-07
-1.14247e-06
6.70259e-06
-2.86379e-08
-1.51268e-06
8.62417e-06
6.23639e-07
-1.88435e-06
9.84336e-06
6.82763e-07
-2.09948e-06
1.07089e-05
6.79066e-07
-2.45039e-06
1.25013e-05
6.87989e-07
-3.03825e-06
1.44301e-05
1.21064e-06
-2.82894e-06
1.53387e-05
1.79169e-06
-1.98322e-06
1.46359e-05
1.7221e-06
-3.40563e-07
1.36599e-05
1.65526e-06
-9.66041e-08
1.2479e-05
2.50656e-06
-5.20721e-07
1.06841e-05
4.08915e-06
-1.18905e-06
7.16396e-06
5.10479e-06
-5.26883e-08
1.99755e-06
6.64222e-06
7.73758e-07
7.98231e-06
-2.80918e-06
-2.30854e-06
-4.08354e-06
-3.44129e-07
-1.39804e-06
-4.29438e-06
-2.98911e-07
-1.37644e-06
-2.57868e-06
4.58536e-07
-1.06313e-06
-2.33119e-06
7.54183e-08
-8.13674e-07
-1.47395e-06
-2.91417e-08
-4.58081e-07
-1.16966e-06
-1.61218e-07
-3.56485e-07
-4.12121e-07
-1.92821e-07
-4.70287e-07
-1.43837e-07
-9.76493e-08
-6.84329e-07
4.44321e-08
-6.23748e-08
-8.08629e-07
8.97581e-09
-8.42011e-08
-8.68394e-07
-3.329e-09
-1.33827e-07
-8.66036e-07
-7.71563e-08
-1.93729e-07
-8.25205e-07
-1.68876e-07
-2.35509e-07
-7.41362e-07
-2.80711e-07
-2.65436e-07
-6.28595e-07
-3.51785e-07
-2.8003e-07
-5.02825e-07
-3.92854e-07
-2.84977e-07
-3.86208e-07
-3.92263e-07
-2.78276e-07
-2.85063e-07
-3.8914e-07
-2.69821e-07
-2.07576e-07
-3.7424e-07
-2.58953e-07
-1.50582e-07
-3.59127e-07
-2.50892e-07
-1.13487e-07
-3.37278e-07
-2.43253e-07
-9.10325e-08
-3.14585e-07
-2.3886e-07
-8.12676e-08
-2.89288e-07
-2.36415e-07
-8.01754e-08
-2.63547e-07
-2.36539e-07
-8.48733e-08
-2.37649e-07
-2.3843e-07
-9.27076e-08
-2.11805e-07
-2.41731e-07
-1.01525e-07
-1.85651e-07
-2.4616e-07
-1.09106e-07
-1.59185e-07
-2.51665e-07
-1.13023e-07
-1.32566e-07
-2.5831e-07
-1.12349e-07
-1.06154e-07
-2.66257e-07
-1.05914e-07
-8.02891e-08
-2.74899e-07
-9.34324e-08
-5.29137e-08
-2.83213e-07
-7.60068e-08
-2.23114e-08
-2.90236e-07
-5.6346e-08
1.03164e-08
-2.95209e-07
-3.71197e-08
3.86532e-08
-2.98494e-07
-1.81052e-08
5.36728e-08
-3.00073e-07
-4.15792e-09
5.58018e-08
-2.97264e-07
-3.97146e-09
4.87993e-08
-2.88189e-07
-3.22881e-08
4.09317e-08
-2.68958e-07
-1.04706e-07
3.86793e-08
-2.38575e-07
-2.28777e-07
4.87077e-08
-1.94509e-07
-3.90486e-07
3.79393e-08
-1.39995e-07
-5.41447e-07
-7.18877e-08
-8.58982e-08
-6.35309e-07
-3.74828e-07
-3.05322e-08
-8.07045e-07
-8.11826e-07
6.03609e-08
-1.21331e-06
-1.17455e-06
1.9443e-07
-1.759e-06
-1.40604e-06
3.16247e-07
-1.95366e-06
-1.42675e-06
2.53223e-07
-4.91338e-07
-1.29608e-06
-4.97904e-07
-1.21514e-07
-6.01884e-06
8.50928e-07
-5.48613e-06
-1.53234e-05
6.07779e-06
-8.55099e-06
-1.88028e-05
4.96675e-06
-7.61902e-06
-1.66563e-05
1.84313e-06
-4.92951e-06
-1.17359e-05
-7.76168e-07
3.65474e-06
-1.00033e-05
-4.68076e-06
1.02406e-05
-8.31734e-06
-5.43788e-06
9.48289e-06
1.34076e-05
-7.29443e-06
1.56462e-05
-1.17067e-06
-5.79017e-07
-6.99055e-06
2.09859e-05
2.10868e-05
2.73228e-07
-1.43828e-05
1.72901e-06
1.51198e-05
-4.4602e-05
-8.26855e-06
1.6344e-05
-2.9396e-05
3.50441e-06
1.61172e-05
-2.13631e-05
5.20348e-06
1.88736e-05
-1.50612e-05
-8.54043e-07
1.91885e-05
-6.67411e-06
-1.13018e-06
1.96753e-05
-2.72939e-06
-1.49683e-06
1.98802e-05
-2.5167e-06
-4.24832e-07
1.92193e-05
-2.20519e-06
6.80882e-07
1.6651e-05
-3.11883e-06
2.73921e-06
1.30093e-05
-4.69881e-06
4.74249e-06
1.00486e-05
-6.38354e-06
5.06323e-06
7.85768e-06
-6.28246e-06
4.3407e-06
5.18853e-06
-5.09996e-06
3.5492e-06
2.476e-06
-3.79721e-06
2.69641e-06
-2.15244e-07
-1.92074e-06
2.65972e-06
-3.4872e-06
-7.36385e-08
3.72519e-06
-5.93681e-06
-4.74319e-07
3.42119e-06
-6.09907e-06
-2.41076e-06
1.42669e-06
-2.95167e-06
-3.87174e-06
-6.83756e-07
1.43551e-06
-2.47248e-06
-2.81299e-06
6.00557e-06
8.75768e-08
-5.35208e-06
9.34527e-06
1.68575e-06
-5.74147e-06
1.0678e-05
2.97573e-06
-4.33713e-06
1.01616e-05
3.11463e-06
-1.9746e-06
1.00264e-05
2.50537e-06
-1.68741e-06
1.06512e-05
2.17251e-06
-2.11823e-06
1.27235e-05
6.01399e-07
-1.98571e-06
1.48325e-05
6.21937e-07
-1.52024e-06
1.54186e-05
1.80851e-06
-6.03014e-07
1.4733e-05
2.79542e-06
-3.87707e-07
1.3395e-05
3.90481e-06
-9.11561e-07
1.2262e-05
5.70057e-06
-2.061e-06
1.0636e-05
7.41524e-06
-1.70001e-06
6.3689e-06
8.95501e-06
4.16839e-07
1.36108e-06
1.05094e-05
1.14063e-06
1.18201e-05
-2.47667e-06
-3.09231e-06
-4.323e-06
-1.46373e-07
-2.09351e-06
-4.82768e-06
-4.65499e-07
-1.98209e-06
-2.90937e-06
2.1926e-07
-1.50849e-06
-2.666e-06
-1.38806e-07
-1.25658e-06
-1.6269e-06
-9.89715e-08
-7.16897e-07
-1.47373e-06
-2.3564e-07
-3.45895e-07
-5.34563e-07
-2.48576e-07
-3.18058e-07
-7.31496e-08
-9.85396e-08
-4.97383e-07
2.81944e-07
-5.82014e-08
-6.20727e-07
2.28798e-07
-9.64938e-08
-7.0156e-07
2.46602e-07
-1.69114e-07
-7.63439e-07
2.12586e-07
-2.27879e-07
-7.81001e-07
1.27304e-07
-2.78636e-07
-7.40498e-07
-2.79166e-09
-3.1844e-07
-6.54801e-07
-9.29124e-08
-3.44588e-07
-5.48727e-07
-1.36795e-07
-3.62154e-07
-4.45591e-07
-1.25019e-07
-3.704e-07
-3.55727e-07
-1.0296e-07
-3.76065e-07
-2.78468e-07
-7.27852e-08
-3.78737e-07
-2.15882e-07
-4.42016e-08
-3.77534e-07
-1.68288e-07
-1.0915e-08
-3.7398e-07
-1.33872e-07
1.98307e-08
-3.68856e-07
-1.11488e-07
5.17126e-08
-3.6341e-07
-9.92474e-08
8.36382e-08
-3.59452e-07
-9.43739e-08
1.14707e-07
-3.57256e-07
-9.39057e-08
1.44688e-07
-3.56988e-07
-9.54816e-08
1.74124e-07
-3.58227e-07
-9.69231e-08
2.02887e-07
-3.60659e-07
-9.62512e-08
2.30739e-07
-3.64006e-07
-9.19906e-08
2.57467e-07
-3.67911e-07
-8.42281e-08
2.83744e-07
-3.71827e-07
-7.41765e-08
3.11848e-07
-3.74844e-07
-6.45494e-08
3.44046e-07
-3.76017e-07
-5.83707e-08
3.78395e-07
-3.7429e-07
-5.75573e-08
4.06067e-07
-3.68261e-07
-6.89761e-08
4.22412e-07
-3.57355e-07
-1.03347e-07
4.30396e-07
-3.40259e-07
-1.70823e-07
4.37267e-07
-3.21026e-07
-2.83076e-07
4.53479e-07
-3.00331e-07
-4.49951e-07
4.84768e-07
-2.79251e-07
-6.58412e-07
5.12836e-07
-2.55706e-07
-8.42038e-07
4.55249e-07
-2.33721e-07
-9.21233e-07
2.08834e-07
-2.01565e-07
-9.11048e-07
-2.2382e-07
-1.61232e-07
-9.93331e-07
-6.36456e-07
-9.31276e-08
-1.39142e-06
-8.31152e-07
5.46496e-08
-1.94431e-06
-1.03692e-06
1.83734e-07
-1.97993e-06
-1.45664e-06
6.54668e-08
2.29095e-07
-2.56634e-06
-9.38803e-07
-1.65359e-06
-4.77373e-06
6.37547e-07
-1.05226e-05
-1.21001e-05
5.64568e-06
-1.52129e-05
-1.83219e-05
4.20942e-06
-1.6343e-05
-1.67324e-05
1.20622e-06
-1.35291e-05
-1.2455e-05
-2.09468e-06
-7.8804e-06
-1.01569e-05
-5.49508e-06
-5.79913e-06
-5.01455e-06
-5.384e-06
9.09935e-06
8.77274e-06
-1.02633e-05
1.7063e-05
-1.16475e-05
2.51306e-06
-2.16673e-06
1.3056e-05
2.71583e-05
6.46955e-07
-1.20993e-05
-5.09746e-06
9.92215e-06
-4.47163e-05
-9.16066e-06
1.01224e-05
-3.05947e-05
9.98476e-07
1.19351e-05
-2.40684e-05
8.92668e-07
1.34005e-05
-1.53373e-05
-1.18931e-06
1.30347e-05
-4.39998e-06
-1.90832e-06
1.25114e-05
-7.99871e-07
-1.40625e-06
1.13032e-05
-1.28587e-06
-2.26015e-08
9.1042e-06
-2.05086e-06
2.04462e-06
4.83628e-06
-3.09211e-06
4.2412e-06
-1.27867e-07
-5.36314e-06
5.62847e-06
-5.20168e-06
-7.14701e-06
5.83728e-06
-9.17948e-06
-7.25035e-06
4.9457e-06
-1.05197e-05
-7.10786e-06
3.3481e-06
-1.02512e-05
-6.13145e-06
2.06581e-06
-9.56507e-06
-4.3151e-06
1.7082e-06
-6.97115e-06
-2.23178e-06
-4.35778e-07
-4.03123e-06
-1.87058e-07
-3.22719e-06
-2.24207e-07
1.5108e-06
-7.72858e-06
3.54221e-06
3.39526e-06
-1.10334e-05
6.03474e-06
5.23732e-06
-1.02023e-05
7.51694e-06
6.55362e-06
-7.94825e-06
7.83021e-06
7.10631e-06
-5.73382e-06
7.05888e-06
6.57587e-06
-2.82881e-06
6.29677e-06
5.4108e-06
-1.53405e-06
6.69151e-06
3.08516e-06
-9.74526e-07
7.4203e-06
1.74175e-06
-2.98031e-07
6.30639e-06
6.09456e-07
1.10585e-06
5.36345e-06
1.51703e-07
1.41317e-06
6.53037e-06
1.3029e-06
-6.61309e-07
7.88563e-06
3.3945e-06
-1.95434e-06
8.28974e-06
5.54542e-06
-2.04473e-06
7.37505e-06
7.79556e-06
-1.1803e-06
4.55601e-06
9.62052e-06
6.13764e-07
3.21829e-07
1.10616e-05
2.12754e-06
-1.29768e-06
1.10328e-05
1.09613e-06
1.30658e-05
-2.54346e-06
-3.60232e-06
-4.25588e-06
-4.34065e-08
-2.52381e-06
-5.21818e-06
-6.88014e-07
-2.31003e-06
-3.18335e-06
6.01965e-08
-1.63874e-06
-3.01391e-06
-3.23393e-07
-1.39664e-06
-1.73475e-06
-1.34261e-07
-8.47278e-07
-1.69728e-06
-3.25823e-07
-3.84515e-07
-7.10025e-07
-2.87315e-07
-1.41107e-07
-1.51892e-07
-1.6468e-07
-1.41729e-07
4.065e-07
-1.23947e-07
-2.88317e-07
4.85097e-07
-1.09726e-07
-4.56011e-07
5.55734e-07
-1.41453e-07
-6.26402e-07
5.57139e-07
-1.74179e-07
-7.26215e-07
4.49636e-07
-2.22535e-07
-7.35264e-07
2.76058e-07
-2.69818e-07
-6.63111e-07
1.38973e-07
-3.04057e-07
-5.55758e-07
8.392e-08
-3.28088e-07
-4.55219e-07
1.17259e-07
-3.42837e-07
-3.73591e-07
1.71116e-07
-3.55725e-07
-3.04346e-07
2.27237e-07
-3.69288e-07
-2.42384e-07
2.73527e-07
-3.79713e-07
-1.88152e-07
3.19223e-07
-3.84393e-07
-1.43713e-07
3.60365e-07
-3.84997e-07
-1.10803e-07
4.01364e-07
-3.82585e-07
-8.89489e-08
4.40212e-07
-3.78453e-07
-7.5736e-08
4.75681e-07
-3.74213e-07
-6.82779e-08
5.07788e-07
-3.70585e-07
-6.37573e-08
5.37017e-07
-3.6744e-07
-5.98448e-08
5.63354e-07
-3.64407e-07
-5.46931e-08
5.86735e-07
-3.61175e-07
-4.83088e-08
6.08169e-07
-3.57114e-07
-4.23904e-08
6.29471e-07
-3.51673e-07
-3.81965e-08
6.52315e-07
-3.44691e-07
-3.86985e-08
6.7996e-07
-3.35441e-07
-4.82927e-08
7.11567e-07
-3.23608e-07
-7.02097e-08
7.3766e-07
-3.09706e-07
-1.12362e-07
7.57805e-07
-2.93272e-07
-1.90372e-07
7.82265e-07
-2.7389e-07
-3.21275e-07
8.24491e-07
-2.56354e-07
-5.11565e-07
8.88235e-07
-2.44497e-07
-7.49015e-07
9.58394e-07
-2.36208e-07
-9.82004e-07
9.75107e-07
-2.29314e-07
-1.14684e-06
8.32221e-07
-2.12173e-07
-1.21997e-06
4.66127e-07
-1.84189e-07
-1.20742e-06
-6.60342e-08
-1.7037e-07
-1.21638e-06
-4.40742e-07
-1.86794e-07
-1.39866e-06
-5.61217e-07
-8.7685e-08
-1.80643e-06
-6.82857e-07
5.3677e-08
-1.80496e-06
-1.40538e-06
-5.27482e-08
1.41763e-08
-3.23553e-06
-1.14998e-06
-2.36735e-06
-2.34081e-06
-5.14171e-08
-1.21781e-05
-6.18953e-06
3.90022e-06
-1.9716e-05
-1.42073e-05
3.42331e-06
-2.34742e-05
-1.47188e-05
1.74465e-06
-2.54021e-05
-1.19593e-05
1.4322e-06
-2.64497e-05
-7.57832e-06
-1.53094e-06
-2.37265e-05
-4.5734e-06
-3.1642e-06
2.65048e-06
-1.06373e-05
-6.96667e-06
8.43484e-06
-1.90153e-05
1.58336e-06
-2.61459e-06
3.07369e-06
2.10302e-05
1.59385e-06
-9.28868e-06
-7.01891e-06
7.49925e-06
-3.88493e-05
-1.1772e-05
3.19433e-06
-2.74217e-05
1.13196e-06
2.8066e-06
-2.05574e-05
-3.12318e-06
1.40905e-06
-9.88553e-06
-4.05422e-06
3.15682e-06
-2.40253e-06
-3.7452e-06
1.6336e-06
1.29674e-06
-5.73377e-07
-3.77084e-06
1.49429e-06
2.62429e-06
-1.15373e-05
5.46318e-07
5.16924e-06
-1.98322e-05
-8.20803e-07
6.02366e-06
-2.59444e-05
-2.50927e-06
3.25833e-06
-2.8178e-05
-4.86673e-06
-4.6679e-08
-2.66011e-05
-6.37691e-06
-2.45029e-06
-2.30749e-05
-5.69826e-06
-4.93579e-06
-1.94387e-05
-3.20097e-06
-6.56665e-06
-1.54938e-05
2.09292e-07
-8.46938e-06
-1.10294e-05
4.43624e-06
-1.11323e-05
-6.11177e-06
7.27885e-06
-1.23836e-05
-2.8588e-06
9.57688e-06
-1.1319e-05
-5.14383e-07
1.10179e-05
-9.96702e-06
8.99415e-07
1.11472e-05
-7.32373e-06
1.28704e-06
1.05238e-05
-4.35775e-06
-3.44474e-07
1.00528e-05
-1.31501e-06
-3.72686e-06
9.23551e-06
7.22744e-07
-5.38266e-06
5.24002e-06
1.82658e-06
-6.99704e-06
1.09768e-06
3.60185e-06
-8.93776e-06
5.52115e-07
3.13037e-06
-9.86138e-06
2.95975e-07
1.2371e-06
-9.68496e-06
-2.86833e-07
2.62113e-07
-8.58605e-06
2.27561e-07
-2.35569e-08
-7.44415e-06
2.14929e-06
1.03301e-07
-7.09832e-06
4.68476e-06
5.1484e-07
-7.31793e-06
6.58179e-06
1.43337e-06
-7.14695e-06
7.53296e-06
1.91658e-06
-5.45641e-06
8.09821e-06
1.2729e-06
-3.70682e-06
8.9664e-06
3.1679e-07
1.26288e-05
-3.26979e-06
-3.87905e-06
-3.83844e-06
-4.83911e-08
-2.6369e-06
-5.26996e-06
-1.19037e-06
-2.42726e-06
-3.14246e-06
-2.5054e-07
-1.58832e-06
-3.28208e-06
-5.70779e-07
-1.30063e-06
-1.75823e-06
-2.64222e-07
-8.1632e-07
-1.67305e-06
-5.08551e-07
-4.79743e-07
-6.46607e-07
-4.00008e-07
-1.45305e-07
-1.84445e-07
-3.01897e-07
1.16555e-07
4.1909e-07
-2.74463e-07
6.86177e-08
7.18023e-07
-1.85002e-07
-1.37372e-07
9.14758e-07
-1.53048e-07
-4.23034e-07
9.79168e-07
-1.36381e-07
-6.26697e-07
8.33787e-07
-1.80502e-07
-6.74477e-07
5.5711e-07
-2.33286e-07
-6.13346e-07
3.68053e-07
-2.90227e-07
-5.09017e-07
3.07346e-07
-3.2777e-07
-4.13184e-07
3.63925e-07
-3.42515e-07
-3.47532e-07
4.57089e-07
-3.51641e-07
-2.9868e-07
5.40813e-07
-3.62446e-07
-2.55931e-07
6.03119e-07
-3.72359e-07
-2.16966e-07
6.57396e-07
-3.77156e-07
-1.8221e-07
7.02398e-07
-3.76807e-07
-1.51931e-07
7.43322e-07
-3.72255e-07
-1.2769e-07
7.80884e-07
-3.64932e-07
-1.0881e-07
8.13156e-07
-3.56375e-07
-9.49446e-08
8.41439e-07
-3.47536e-07
-8.63825e-08
8.67192e-07
-3.38758e-07
-8.11229e-08
8.87823e-07
-3.29749e-07
-7.76613e-08
9.03801e-07
-3.20548e-07
-7.59006e-08
9.16964e-07
-3.10576e-07
-7.6522e-08
9.29753e-07
-2.99681e-07
-8.10235e-08
9.45201e-07
-2.88406e-07
-9.36124e-08
9.69087e-07
-2.7656e-07
-1.21256e-07
1.00259e-06
-2.63402e-07
-1.68957e-07
1.03499e-06
-2.49655e-07
-2.44814e-07
1.06781e-06
-2.34171e-07
-3.58487e-07
1.11269e-06
-2.16773e-07
-5.15792e-07
1.18292e-06
-2.01145e-07
-7.05304e-07
1.26888e-06
-1.91155e-07
-8.92729e-07
1.33145e-06
-1.85649e-07
-1.05012e-06
1.31254e-06
-1.80066e-07
-1.14792e-06
1.09394e-06
-1.63942e-07
-1.22254e-06
6.80807e-07
-1.40076e-07
-1.30672e-06
1.77498e-07
-1.59365e-07
-1.36869e-06
-1.46583e-07
-2.32206e-07
-1.47713e-06
-2.35956e-07
-2.16837e-07
-1.83117e-06
-2.02828e-07
-1.26008e-07
-1.99415e-06
-1.01198e-06
-2.30437e-07
-1.40917e-06
-2.68327e-06
-1.13725e-06
-1.94084e-06
-6.87048e-07
-1.12211e-06
-9.70546e-06
1.22746e-07
1.45235e-06
-1.74868e-05
-6.63651e-06
2.10501e-07
-2.24153e-05
-9.5679e-06
-2.22332e-07
-2.64705e-05
-9.48218e-06
1.57817e-06
-2.81218e-05
-7.20879e-06
1.28186e-06
-2.44692e-05
-8.04713e-06
-1.78797e-07
-2.09598e-05
-1.07289e-05
-3.41755e-06
-2.19908e-05
-1.83748e-05
3.90346e-07
-3.4189e-08
-1.9811e-05
9.26777e-07
3.59154e-06
-7.01022e-06
-5.90412e-06
3.51011e-06
-2.62228e-05
-1.25446e-05
-9.61165e-06
-1.66999e-05
2.40036e-06
-1.50974e-05
-1.23678e-05
-2.70363e-06
-1.6333e-05
-5.60209e-06
-3.04753e-06
-1.90994e-05
1.54559e-06
-1.18149e-06
-2.68352e-05
6.76992e-06
2.26285e-06
-3.48867e-05
7.53871e-06
2.00737e-06
-3.87757e-05
3.83765e-06
5.97854e-07
-4.04356e-05
8.89653e-07
-5.0286e-08
-4.13905e-05
-7.66338e-07
-7.87813e-07
-4.16493e-05
-2.08448e-06
-2.52316e-06
-4.08531e-05
-3.43919e-06
-3.73375e-06
-3.85719e-05
-3.60794e-06
-4.37142e-06
-3.49997e-05
-1.71773e-06
-5.05526e-06
-3.05998e-05
1.68155e-06
-5.87216e-06
-2.55149e-05
4.92245e-06
-5.57103e-06
-2.08893e-05
7.49621e-06
-4.84296e-06
-1.7077e-05
9.38709e-06
-3.62252e-06
-1.47104e-05
1.02621e-05
-1.61079e-06
-1.40572e-05
1.01444e-05
3.49664e-07
-1.41098e-05
8.99689e-06
1.57947e-06
-1.33147e-05
6.48284e-06
2.77489e-06
-1.24887e-05
4.13036e-06
4.27914e-06
-1.37976e-05
1.12594e-06
5.42302e-06
-1.5255e-05
-1.69287e-06
4.24793e-06
-1.51577e-05
-2.21839e-06
2.67315e-06
-1.41821e-05
-2.19749e-06
1.51792e-06
-1.37328e-05
-5.27774e-07
-2.08394e-07
-1.2747e-05
8.64208e-07
-1.62241e-06
-1.16119e-05
3.06569e-06
-2.05152e-06
-1.14154e-05
5.33441e-06
-8.46106e-07
-1.14875e-05
6.12084e-06
5.32984e-07
-1.12097e-05
5.91934e-06
1.3359e-06
-8.85492e-06
5.28058e-06
4.62819e-07
-5.8226e-06
6.77041e-06
-8.36328e-07
1.06064e-05
-3.80017e-06
-3.84113e-06
-3.10258e-06
1.58461e-07
-2.55005e-06
-5.13636e-06
-1.42468e-06
-2.39481e-06
-2.80032e-06
-4.97386e-07
-1.47342e-06
-3.3745e-06
-8.2898e-07
-1.00367e-06
-1.7447e-06
-4.83288e-07
-5.4343e-07
-1.42476e-06
-7.08537e-07
-3.4666e-07
-2.40448e-07
-6.02937e-07
-1.81951e-07
1.16565e-07
-4.65728e-07
1.32813e-07
5.82487e-07
-4.78171e-07
1.99983e-07
9.62752e-07
-3.11911e-07
3.44354e-08
1.27463e-06
-1.9433e-07
-3.17897e-07
1.44009e-06
-1.08597e-07
-5.53952e-07
1.21285e-06
-1.43024e-07
-5.9965e-07
8.28555e-07
-2.25757e-07
-5.50869e-07
6.17705e-07
-2.98444e-07
-4.60923e-07
5.59831e-07
-3.42442e-07
-3.70877e-07
6.28736e-07
-3.54869e-07
-3.15138e-07
7.53088e-07
-3.51749e-07
-2.82386e-07
8.58014e-07
-3.49963e-07
-2.63119e-07
9.32905e-07
-3.49064e-07
-2.50979e-07
9.92112e-07
-3.46867e-07
-2.41333e-07
1.03588e-06
-3.43139e-07
-2.30817e-07
1.07008e-06
-3.37281e-07
-2.20578e-07
1.09909e-06
-3.28458e-07
-2.10845e-07
1.1218e-06
-3.18389e-07
-2.02182e-07
1.13928e-06
-3.0651e-07
-1.9581e-07
1.15389e-06
-2.93082e-07
-1.9267e-07
1.16544e-06
-2.80767e-07
-1.93527e-07
1.17389e-06
-2.69246e-07
-1.98494e-07
1.18032e-06
-2.58396e-07
-2.07492e-07
1.18688e-06
-2.48136e-07
-2.23106e-07
1.19867e-06
-2.37861e-07
-2.53881e-07
1.22686e-06
-2.27009e-07
-3.08409e-07
1.27128e-06
-2.14163e-07
-3.87415e-07
1.31428e-06
-2.00293e-07
-4.91897e-07
1.35859e-06
-1.86305e-07
-6.14064e-07
1.40972e-06
-1.74864e-07
-7.32515e-07
1.46938e-06
-1.68011e-07
-8.18226e-07
1.5186e-06
-1.64014e-07
-8.61595e-07
1.5309e-06
-1.56086e-07
-9.01305e-07
1.49093e-06
-1.38674e-07
-9.59901e-07
1.28214e-06
-1.29605e-07
-1.05656e-06
9.09024e-07
-1.31558e-07
-1.18649e-06
4.84946e-07
-1.77509e-07
-1.37214e-06
2.75352e-07
-2.36283e-07
-1.62041e-06
2.28177e-07
-2.15856e-07
-2.05054e-06
3.60707e-07
-1.33392e-07
-2.56286e-06
-2.54271e-07
-2.45375e-07
-2.88784e-06
-1.54118e-06
-8.17092e-07
-1.64736e-06
-4.72089e-07
-1.45541e-06
-6.4255e-06
4.4302e-06
4.70703e-07
-1.61947e-05
3.51153e-06
-3.78834e-07
-2.1906e-05
-1.60376e-06
-2.2528e-06
-2.49794e-05
-6.14068e-06
-2.67991e-07
-2.87215e-05
-4.33048e-06
8.63814e-07
-2.60013e-05
-1.15349e-05
7.67707e-07
-3.02487e-05
-7.59703e-06
1.11563e-06
-2.18468e-05
-3.07283e-05
3.9512e-06
2.99466e-06
-3.643e-05
-8.22343e-06
1.84424e-06
-9.29818e-07
-4.92969e-06
-1.04887e-05
-4.21337e-06
-9.67576e-06
-3.05685e-05
1.64141e-06
1.73933e-06
-4.00956e-05
2.37053e-07
-3.07688e-06
-4.39342e-05
1.39842e-06
-3.16119e-06
-4.47297e-05
4.11758e-06
-1.77571e-06
-4.37796e-05
5.46404e-06
3.56419e-07
-4.23302e-05
4.96445e-06
1.12565e-06
-4.18238e-05
1.53599e-06
1.79604e-06
-4.26566e-05
-1.21446e-07
1.84456e-06
-4.42391e-05
-4.61593e-07
1.27859e-06
-4.5162e-05
-1.56327e-06
4.02396e-07
-4.54455e-05
-2.67926e-06
-4.75689e-07
-4.39829e-05
-3.50258e-06
-1.56737e-06
-4.04722e-05
-2.8342e-06
-2.39363e-06
-3.54546e-05
-8.8299e-07
-2.45265e-06
-3.10848e-05
2.50165e-06
-1.9486e-06
-2.74004e-05
5.10254e-06
-1.29041e-06
-2.39309e-05
6.30811e-06
-3.90218e-07
-2.13642e-05
6.86017e-06
8.35601e-07
-1.95689e-05
6.45622e-06
1.8932e-06
-1.88585e-05
5.48779e-06
2.79906e-06
-1.95324e-05
3.49253e-06
3.66459e-06
-2.20141e-05
2.17019e-06
4.44234e-06
-2.53991e-05
2.716e-07
4.23967e-06
-2.74216e-05
-2.29008e-06
2.62011e-06
-2.62789e-05
-4.84673e-06
1.48597e-06
-2.29367e-05
-5.00465e-06
-5.34929e-07
-1.94449e-05
-1.9042e-06
-2.11523e-06
-1.77496e-05
2.74362e-06
-3.57475e-06
-1.66436e-05
5.50212e-06
-3.54239e-06
-1.55255e-05
6.73325e-06
-2.51687e-06
-1.4849e-05
7.11619e-06
-1.67192e-06
-1.37796e-05
5.85987e-06
-1.0099e-06
-1.15818e-05
4.71262e-06
-1.62983e-06
-8.26147e-06
5.96909e-06
-2.51901e-06
6.31947e-06
-3.97456e-06
-3.56792e-06
-2.04106e-06
6.23473e-07
-2.38256e-06
-4.92814e-06
-1.39358e-06
-2.26222e-06
-2.41014e-06
-5.10531e-07
-1.30517e-06
-3.51074e-06
-8.20816e-07
-5.88337e-07
-2.01481e-06
-4.46726e-07
-2.84339e-07
-1.1765e-06
-5.52273e-07
-3.20558e-07
2.79201e-07
-4.83437e-07
-3.70232e-07
5.04564e-07
-3.38331e-07
-1.57322e-07
8.7123e-07
-5.01659e-07
-5.93222e-08
1.17461e-06
-3.09862e-07
-2.11001e-08
1.47702e-06
-2.40624e-07
-1.01333e-07
1.67364e-06
-1.53328e-07
-1.56782e-07
1.49669e-06
-2.28388e-07
-2.02036e-07
1.18423e-06
-3.10429e-07
-2.38077e-07
1.04807e-06
-3.94333e-07
-2.77365e-07
1.0535e-06
-4.54389e-07
-3.12003e-07
1.15362e-06
-4.90253e-07
-3.42717e-07
1.28859e-06
-5.04795e-07
-3.642e-07
1.3918e-06
-5.12306e-07
-3.73869e-07
1.4577e-06
-5.15131e-07
-3.78531e-07
1.51071e-06
-5.13942e-07
-3.79383e-07
1.54884e-06
-5.12107e-07
-3.7525e-07
1.57558e-06
-5.09638e-07
-3.6737e-07
1.59683e-06
-5.05618e-07
-3.58634e-07
1.61314e-06
-5.0008e-07
-3.51014e-07
1.62583e-06
-4.94177e-07
-3.45762e-07
1.63693e-06
-4.88291e-07
-3.44338e-07
1.64615e-06
-4.82138e-07
-3.48542e-07
1.65355e-06
-4.75455e-07
-3.58902e-07
1.65963e-06
-4.68949e-07
-3.75836e-07
1.66632e-06
-4.62505e-07
-4.02903e-07
1.68153e-06
-4.5579e-07
-4.51961e-07
1.72142e-06
-4.45494e-07
-5.28361e-07
1.77953e-06
-4.31848e-07
-6.24049e-07
1.83019e-06
-4.2021e-07
-7.26867e-07
1.87294e-06
-4.11521e-07
-8.18175e-07
1.90693e-06
-4.05896e-07
-8.74921e-07
1.92934e-06
-4.03208e-07
-8.7722e-07
1.92492e-06
-4.04005e-07
-8.18415e-07
1.87435e-06
-4.02242e-07
-7.34857e-07
1.79348e-06
-3.86092e-07
-6.99015e-07
1.6296e-06
-3.83277e-07
-7.75149e-07
1.39301e-06
-4.07826e-07
-9.80058e-07
1.19556e-06
-5.05673e-07
-1.3206e-06
1.16816e-06
-5.52236e-07
-1.70167e-06
1.14713e-06
-5.37844e-07
-2.1245e-06
1.19903e-06
-4.15444e-07
-2.72594e-06
7.21865e-07
-3.7466e-07
-3.14463e-06
-5.06285e-07
-6.16164e-07
-1.06458e-06
-7.95622e-07
-1.75648e-06
3.15175e-07
4.79558e-06
-1.7451e-06
-2.28044e-06
8.18957e-06
-2.08239e-06
-6.71468e-06
7.23936e-06
-4.40883e-06
-1.15669e-05
1.0942e-06
-2.38261e-06
-1.53363e-05
2.42797e-06
-2.98898e-06
-1.80092e-05
-5.66755e-06
-3.19447e-06
-1.20725e-05
-7.61496e-06
-5.91834e-06
-1.46136e-05
-2.37504e-05
-4.43691e-06
2.21039e-06
-4.69082e-05
-6.34757e-06
-1.23246e-06
7.25246e-06
-4.73848e-06
-2.8098e-05
2.66007e-05
-3.94685e-06
-4.38605e-05
1.11932e-05
6.21282e-06
-5.62314e-05
1.23069e-05
3.03327e-07
-6.21314e-05
8.43594e-06
-1.13513e-06
-6.31687e-05
6.82892e-06
-1.67153e-06
-6.28529e-05
6.37753e-06
-1.22683e-06
-6.13964e-05
4.66056e-06
-1.14998e-06
-6.03486e-05
4.36211e-07
5.45486e-08
-6.00901e-05
-2.30736e-06
1.9301e-06
-5.99713e-05
-3.13918e-06
2.56148e-06
-6.0804e-05
-3.54975e-06
2.8219e-06
-6.14488e-05
-3.68456e-06
1.65299e-06
-6.15763e-05
-4.09175e-06
7.19683e-07
-6.03711e-05
-4.56576e-06
5.2938e-07
-5.79431e-05
-4.06367e-06
7.55749e-07
-5.46801e-05
-2.41457e-06
1.65652e-06
-5.15766e-05
-3.9869e-07
2.40104e-06
-5.00772e-05
1.44167e-06
3.37051e-06
-5.08085e-05
3.73826e-06
3.85693e-06
-5.30695e-05
5.15357e-06
3.56763e-06
-5.67346e-05
6.1551e-06
3.00197e-06
-5.95524e-05
4.01222e-06
2.30246e-06
-5.83085e-05
-1.69093e-06
2.62182e-06
-5.76253e-05
-5.29151e-06
4.88478e-06
-5.95059e-05
-5.58714e-06
5.18268e-06
-6.21646e-05
-6.07975e-06
3.89711e-06
-6.40511e-05
-4.69362e-06
1.58113e-06
-6.29947e-05
-2.30956e-06
-6.45234e-07
-6.26008e-05
4.7725e-06
-2.41694e-06
-6.01928e-05
6.28805e-06
-3.1884e-06
-5.59636e-05
6.19293e-06
-3.6836e-06
-5.27454e-05
7.26857e-06
-3.36567e-06
-4.42754e-05
1.62477e-06
-4.23056e-06
-3.24343e-05
-2.41427e-06
-4.71058e-06
-1.7158e-05
-4.24331e-06
-5.0614e-06
-6.82476e-06
-4.01284e-06
-3.12094e-06
-4.78098e-07
1.64975e-06
-2.27235e-06
-4.63468e-06
-1.14205e-06
-2.31751e-06
-2.09063e-06
-2.74352e-07
-1.38574e-06
-3.77844e-06
-6.64078e-07
-3.61464e-07
-2.64594e-06
-3.93151e-07
-1.64852e-07
-1.33206e-06
-4.10466e-08
-3.73611e-07
2.38249e-07
2.49707e-07
-5.13202e-07
3.17607e-07
3.26543e-07
-4.04158e-07
7.40994e-07
2.11886e-08
-2.50771e-07
9.28041e-07