/*--------------------------------*- C++ -*----------------------------------*\
| =========                 |                                                 |
| \\      /  F ield         | OpenFOAM: The Open Source CFD Toolbox           |
|  \\    /   O peration     | Version:  2.3.0                                 |
|   \\  /    A nd           | Web:      www.OpenFOAM.org                      |
|    \\/     M anipulation  |                                                 |
\*---------------------------------------------------------------------------*/
FoamFile
{
    version     2.0;
    format      ascii;
    class       surfaceScalarField;
    location    "27";
    object      phi.water;
}
// * * * * * * * * * * * * * * * * * * * * * * * * * * * * * * * * * * * * * //

dimensions      [0 3 -1 0 0 0 0];

internalField   nonuniform List<scalar> 
16448
(
-9.28184e-07
-2.51615e-06
7.26801e-07
5.84782e-07
-2.44995e-06
9.41952e-07
6.92648e-07
-1.30828e-06
1.20309e-06
7.92692e-07
-1.21313e-06
1.1156e-06
6.24737e-07
-7.3228e-07
9.03559e-07
4.90879e-07
-6.72703e-07
8.09504e-07
2.2171e-07
-3.77244e-07
6.50703e-07
-2.99965e-09
-3.34607e-07
5.64244e-07
-2.16401e-07
-2.89899e-07
5.06273e-07
-4.20557e-07
-2.68034e-07
4.72546e-07
-5.62386e-07
-2.82415e-07
4.24472e-07
-5.82467e-07
-3.32642e-07
3.52949e-07
-5.06605e-07
-3.96986e-07
3.21391e-07
-3.67844e-07
-4.44254e-07
3.05723e-07
-2.33459e-07
-4.65598e-07
3.31515e-07
-1.10138e-07
-4.80536e-07
3.57464e-07
-2.75934e-08
-4.82784e-07
4.00542e-07
3.50586e-08
-4.93639e-07
4.31246e-07
7.42355e-08
-5.00513e-07
4.61615e-07
9.91916e-08
-5.03414e-07
4.78716e-07
1.11223e-07
-5.02516e-07
4.90748e-07
1.14978e-07
-4.9858e-07
4.95075e-07
1.12778e-07
-4.9248e-07
4.9494e-07
1.0761e-07
-4.85142e-07
4.90564e-07
1.01216e-07
-4.76657e-07
4.8331e-07
9.53724e-08
-4.67828e-07
4.73927e-07
9.12932e-08
-4.58918e-07
4.63265e-07
8.90127e-08
-4.49677e-07
4.52225e-07
8.90391e-08
-4.40599e-07
4.40851e-07
8.94299e-08
-4.30732e-07
4.30614e-07
9.24652e-08
-4.22625e-07
4.19879e-07
9.3534e-08
-4.13152e-07
4.12359e-07
9.67988e-08
-4.06581e-07
4.03615e-07
9.46996e-08
-3.95702e-07
3.98074e-07
9.70744e-08
-3.90385e-07
3.8832e-07
9.32155e-08
-3.78298e-07
3.82428e-07
9.72976e-08
-3.72697e-07
3.68935e-07
9.86129e-08
-3.60845e-07
3.59792e-07
1.1193e-07
-3.55029e-07
3.42043e-07
1.33462e-07
-3.48758e-07
3.27466e-07
1.65593e-07
-3.44526e-07
3.1276e-07
2.15212e-07
-3.53446e-07
3.0404e-07
2.54153e-07
-3.50103e-07
3.11591e-07
3.11074e-07
-3.85439e-07
3.28666e-07
3.17221e-07
-3.8792e-07
3.82335e-07
3.53107e-07
-4.6512e-07
4.29235e-07
3.57795e-07
-4.9771e-07
4.93947e-07
4.28041e-07
-6.187e-07
5.48137e-07
6.17915e-07
-7.27236e-07
5.39905e-07
6.27354e-07
-7.67739e-07
7.59813e-07
7.80532e-07
-9.70803e-07
8.48789e-07
9.03376e-07
-9.46988e-07
8.7281e-07
4.56764e-09
-5.03948e-07
1.59206e-06
-1.27733e-06
-7.49566e-07
2.03928e-06
-1.95794e-06
-3.61703e-06
4.48617e-06
-3.73987e-06
-3.46384e-06
5.04155e-06
-3.78969e-07
-2.05326e-06
2.42834e-07
-7.38606e-07
-2.82448e-07
-1.37748e-07
5.08831e-06
9.54689e-07
2.28992e-06
2.72025e-05
-1.53537e-05
1.36896e-05
1.98905e-05
-2.26828e-05
3.79596e-06
2.60457e-05
-1.1447e-05
3.09776e-06
2.44115e-05
-5.26954e-07
2.15105e-06
2.57142e-05
-2.33939e-06
1.03671e-06
2.66332e-05
-1.18785e-06
2.68795e-07
2.65966e-05
3.69199e-07
-3.32562e-07
2.56162e-05
1.44337e-06
-4.63031e-07
2.39874e-05
1.98408e-06
-3.55267e-07
2.1845e-05
2.34706e-06
-2.04703e-07
1.94703e-05
2.41677e-06
-4.19976e-08
1.70319e-05
2.26238e-06
1.76037e-07
1.46968e-05
1.97739e-06
3.57708e-07
1.28429e-05
1.41274e-06
4.4116e-07
1.18638e-05
4.8189e-07
4.97177e-07
1.15811e-05
-2.4339e-07
5.26083e-07
1.18041e-05
-7.62573e-07
5.396e-07
1.24685e-05
-1.17663e-06
5.12179e-07
1.34494e-05
-1.42845e-06
4.47566e-07
1.45708e-05
-1.54529e-06
4.23904e-07
1.57534e-05
-1.57028e-06
3.87703e-07
1.69419e-05
-1.58345e-06
3.94928e-07
1.80508e-05
-1.57378e-06
4.64899e-07
1.91339e-05
-1.64369e-06
5.60539e-07
2.01747e-05
-1.72435e-06
6.83533e-07
2.10769e-05
-1.70853e-06
8.06345e-07
2.17647e-05
-1.61786e-06
9.3003e-07
2.19139e-05
-1.27535e-06
1.12621e-06
2.13874e-05
-7.03066e-07
1.22949e-06
1.9755e-05
9.52074e-08
1.53725e-06
1.69491e-05
1.10906e-06
1.69685e-06
1.12208e-05
3.34203e-06
2.38629e-06
1.97156e-06
4.50241e-06
4.74679e-06
-5.33126e-06
3.65098e-06
3.65184e-06
-8.5489e-06
3.37486e-06
-1.57227e-07
-7.11735e-06
3.84999e-06
-5.28153e-06
3.61849e-06
-1.07358e-05
-2.32611e-06
-3.8155e-06
1.10757e-07
-1.27815e-06
-3.73688e-06
2.46416e-07
-9.99292e-07
-2.38257e-06
8.00695e-07
-4.49316e-07
-2.13368e-06
3.74943e-07
-8.97659e-08
-1.28817e-06
2.00761e-07
1.44415e-07
-1.03095e-06
1.27551e-07
1.58599e-07
-4.16591e-07
2.94913e-08
-3.68639e-08
-2.13164e-07
7.8126e-08
-3.44187e-07
-8.40682e-08
1.0338e-07
-6.17668e-07
-9.86337e-08
1.03891e-07
-7.67329e-07
-1.86199e-07
5.34188e-08
-7.73437e-07
-3.17171e-07
-9.39827e-09
-6.91136e-07
-4.33488e-07
-4.57086e-08
-5.46068e-07
-5.23495e-07
-6.57641e-08
-3.90716e-07
-5.66714e-07
-5.41176e-08
-2.43098e-07
-5.90328e-07
-3.77559e-08
-1.34513e-07
-5.85284e-07
-5.98462e-09
-4.8717e-08
-5.90384e-07
1.10201e-08
8.98561e-09
-5.86112e-07
2.80202e-08
4.91969e-08
-5.81536e-07
3.80188e-08
7.17902e-08
-5.70694e-07
4.57099e-08
8.23181e-08
-5.57565e-07
4.85774e-08
8.43626e-08
-5.42589e-07
4.81851e-08
8.13539e-08
-5.26986e-07
4.49675e-08
7.62183e-08
-5.11165e-07
3.97515e-08
7.11366e-08
-4.95819e-07
3.31738e-08
6.75445e-08
-4.81014e-07
2.57839e-08
6.57472e-08
-4.66102e-07
1.83086e-08
6.61033e-08
-4.51705e-07
1.08277e-08
6.70188e-08
-4.36068e-07
4.48028e-09
7.07377e-08
-4.22679e-07
-3.60362e-09
7.25337e-08
-4.04481e-07
-1.04125e-08
7.87075e-08
-3.93382e-07
-1.92909e-08
7.70512e-08
-3.7086e-07
-2.31267e-08
8.46666e-08
-3.64205e-07
-3.37013e-08
8.13112e-08
-3.37534e-07
-3.73486e-08
9.44435e-08
-3.34864e-07
-5.08595e-08
9.68023e-08
-3.06276e-07
-5.68726e-08
1.21845e-07
-3.08681e-07
-7.12651e-08
1.47275e-07
-2.91913e-07
-8.22298e-08
1.82874e-07
-2.95552e-07
-8.44105e-08
2.17536e-07
-2.97938e-07
-9.01392e-08
2.41197e-07
-3.03283e-07
-7.02667e-08
2.46364e-07
-3.3449e-07
-5.61582e-08
2.30608e-07
-3.60131e-07
-1.17326e-08
2.10681e-07
-4.58499e-07
1.3077e-08
2.42234e-07
-5.58831e-07
3.02529e-08
3.38163e-07
-7.65851e-07
5.07493e-08
5.53315e-07
-9.73554e-07
3.29241e-08
4.28254e-07
-9.05898e-07
2.62206e-07
6.01668e-07
-1.43759e-06
3.25909e-07
-3.26326e-07
-6.69562e-07
6.93405e-07
-1.06136e-06
-2.87034e-07
7.00825e-07
-1.24115e-06
-1.38535e-06
7.94721e-07
6.19041e-07
-6.45587e-06
1.12995e-06
2.62868e-06
-7.70137e-06
2.11352e-06
-1.93926e-06
3.01235e-06
7.68006e-07
-1.11516e-05
6.60716e-06
1.54063e-06
2.82987e-07
2.7102e-06
-3.79118e-06
2.79988e-05
-3.3104e-05
7.56728e-06
9.57616e-06
-3.33848e-05
2.66772e-06
8.83714e-06
-1.37993e-05
1.08799e-06
1.39356e-05
-4.40922e-06
-1.21887e-06
1.77871e-05
-3.48915e-06
-2.70176e-06
1.95285e-05
-1.52099e-08
-2.91411e-06
2.07297e-05
1.92166e-06
-2.75362e-06
2.11092e-05
3.21032e-06
-2.14652e-06
2.03769e-05
4.2198e-06
-1.50342e-06
1.87431e-05
4.98295e-06
-1.00205e-06
1.67685e-05
5.00085e-06
-6.09468e-07
1.46747e-05
4.58172e-06
-2.25624e-07
1.24709e-05
4.17806e-06
3.15757e-09
1.04986e-05
3.31446e-06
7.05317e-08
8.97238e-06
1.8739e-06
1.34255e-07
7.92752e-06
7.0867e-07
9.2799e-08
7.39304e-06
-1.32006e-07
-9.60846e-08
7.531e-06
-9.05191e-07
-4.09406e-07
8.27429e-06
-1.42021e-06
-7.51535e-07
9.45048e-06
-1.67527e-06
-1.04621e-06
1.08129e-05
-1.69119e-06
-1.24154e-06
1.21595e-05
-1.65627e-06
-1.27373e-06
1.34569e-05
-1.6641e-06
-1.20714e-06
1.47375e-05
-1.83667e-06
-1.08763e-06
1.59779e-05
-2.06994e-06
-8.94799e-07
1.7227e-05
-2.18785e-06
-7.69781e-07
1.81383e-05
-2.04867e-06
-4.80435e-07
1.85822e-05
-1.5673e-06
-1.51963e-07
1.82696e-05
-5.21697e-07
1.31168e-07
1.69035e-05
7.39428e-07
7.21966e-07
1.45158e-05
2.85595e-06
6.40791e-07
9.71556e-06
6.49951e-06
1.64275e-06
1.41529e-06
8.69315e-06
4.10954e-06
-5.45618e-06
7.29646e-06
3.22599e-06
-8.38735e-06
6.67051e-06
-3.6446e-07
-6.83188e-06
7.87232e-06
-5.57779e-06
8.13619e-06
-1.13496e-05
-3.26337e-06
-4.47249e-06
-1.13052e-07
-2.32851e-06
-4.55265e-06
-1.11485e-07
-2.14846e-06
-3.11735e-06
5.60709e-07
-1.5106e-06
-2.81673e-06
4.95436e-08
-9.47547e-07
-1.8423e-06
-4.00539e-09
-3.75094e-07
-1.4435e-06
-1.55042e-07
-1.5533e-07
-4.00287e-07
-2.31141e-07
-2.81457e-07
1.42664e-08
-9.82523e-08
-5.43121e-07
2.55335e-07
-7.62977e-08
-7.23681e-07
1.65196e-07
-8.29427e-08
-7.97092e-07
2.95007e-08
-1.4188e-07
-7.8511e-07
-1.25686e-07
-2.03184e-07
-7.26332e-07
-2.52483e-07
-2.39549e-07
-6.26372e-07
-3.62641e-07
-2.60675e-07
-5.00416e-07
-4.23213e-07
-2.69326e-07
-3.69627e-07
-4.52097e-07
-2.68919e-07
-2.55404e-07
-4.40367e-07
-2.59014e-07
-1.59355e-07
-4.34709e-07
-2.51624e-07
-8.79091e-08
-4.15384e-07
-2.42044e-07
-3.42875e-08
-3.99374e-07
-2.35675e-07
-1.74379e-10
-3.75999e-07
-2.28679e-07
2.00581e-08
-3.52609e-07
-2.25073e-07
2.94693e-08
-3.28306e-07
-2.23569e-07
3.16019e-08
-3.04602e-07
-2.24394e-07
2.93984e-08
-2.82176e-07
-2.26659e-07
2.55479e-08
-2.61669e-07
-2.30173e-07
2.17234e-08
-2.42717e-07
-2.3434e-07
1.89903e-08
-2.24466e-07
-2.38773e-07
1.79531e-08
-2.072e-07
-2.43329e-07
1.90241e-08
-1.89377e-07
-2.47635e-07
2.27664e-08
-1.73899e-07
-2.52371e-07
2.69732e-08
-1.52557e-07
-2.56006e-07
3.43205e-08
-1.39076e-07
-2.61485e-07
3.81248e-08
-1.10787e-07
-2.63752e-07
4.92344e-08
-1.0435e-07
-2.70782e-07
5.27153e-08
-6.93206e-08
-2.71567e-07
6.96078e-08
-7.20429e-08
-2.79523e-07
7.41819e-08
-3.24171e-08
-2.78299e-07
9.61249e-08
-4.61443e-08
-2.84281e-07
9.31409e-08
-1.15666e-08
-2.77218e-07
1.03903e-07
-2.89851e-08
-2.77105e-07
6.91254e-08
-3.44851e-09
-2.59588e-07
4.22949e-08
-2.22879e-08
-2.53925e-07
-2.84795e-08
-3.04166e-08
-2.3327e-07
-7.01776e-08
-7.7711e-08
-2.40358e-07
-1.05437e-07
-1.80465e-07
-2.42947e-07
-4.43483e-08
-3.4203e-07
-2.77034e-07
7.07832e-08
-5.81086e-07
-3.0008e-07
2.90796e-07
-8.86136e-07
-3.05794e-07
3.68102e-07
-8.9253e-07
-9.0873e-08
-1.21865e-07
-1.2126e-06
3.14579e-07
-2.2678e-06
7.0731e-07
8.11185e-07
-1.51254e-06
-6.88608e-07
-1.90258e-07
3.43581e-06
-4.94294e-06
-1.43758e-06
5.68273e-06
-8.48265e-06
8.46781e-08
3.22032e-06
-6.91641e-06
1.52698e-06
7.76178e-06
8.36779e-07
-3.75005e-07
-4.24334e-07
1.18129e-05
1.63948e-06
7.38224e-06
1.05245e-05
-4.48095e-06
2.83266e-05
-3.71727e-05
2.1637e-06
1.92297e-06
-3.67067e-05
2.99407e-06
1.61583e-06
-1.61563e-05
6.06488e-07
1.45323e-05
-1.49241e-05
-2.40183e-06
1.63318e-05
-1.75797e-06
-3.53072e-06
1.69918e-05
3.01986e-06
-3.69509e-06
1.78693e-05
4.01038e-06
-2.96625e-06
1.7782e-05
5.42644e-06
-2.12885e-06
1.64606e-05
6.58529e-06
-1.04409e-06
1.43318e-05
7.27729e-06
-1.65572e-07
1.19876e-05
6.87611e-06
4.69004e-07
9.19784e-06
6.4185e-06
9.52948e-07
5.90054e-06
6.3151e-06
1.16026e-06
1.69182e-06
6.01826e-06
1.50492e-06
-1.99269e-06
4.53684e-06
1.02157e-06
-3.35048e-06
2.64201e-06
-5.75547e-07
-2.7847e-06
1.25449e-06
-1.95228e-06
-1.1377e-06
2.47052e-07
-2.79925e-06
1.00098e-06
-3.65571e-07
-3.19331e-06
3.22309e-06
-6.05756e-07
-3.29163e-06
5.25345e-06
-4.9324e-07
-3.22831e-06
6.99945e-06
-3.21306e-07
-3.08097e-06
8.49385e-06
-2.56028e-07
-2.90247e-06
9.9912e-06
-6.37934e-07
-2.69609e-06
1.15718e-05
-1.11032e-06
-2.54023e-06
1.31858e-05
-1.46761e-06
-2.33428e-06
1.44448e-05
-1.41965e-06
-1.88798e-06
1.50432e-05
-8.27077e-07
-1.33866e-06
1.45798e-05
4.80355e-07
-5.38659e-07
1.2947e-05
2.23874e-06
1.33515e-07
1.05237e-05
5.19395e-06
8.52953e-08
5.9165e-06
9.85759e-06
1.24915e-06
-1.05929e-06
1.2031e-05
3.63797e-06
-6.28835e-06
1.0053e-05
2.47254e-06
-8.53973e-06
9.73097e-06
-8.09076e-07
-6.71409e-06
1.16949e-05
-5.64824e-06
1.27669e-05
-1.13448e-05
-4.04094e-06
-4.87503e-06
3.81435e-08
-2.95377e-06
-5.14077e-06
-4.92564e-07
-2.82417e-06
-3.67386e-06
4.34119e-07
-2.11114e-06
-3.41761e-06
-1.07995e-07
-1.52973e-06
-2.44155e-06
2.29562e-08
-7.05268e-07
-2.06579e-06
-1.95882e-07
-9.1985e-08
-7.87757e-07
-2.18911e-07
-6.6954e-08
2.99405e-08
-3.72214e-08
-3.36199e-07
5.63138e-07
-3.76318e-08
-5.62234e-07
4.68121e-07
-7.66042e-08
-6.63743e-07
3.06675e-07
-1.75131e-07
-7.09023e-07
1.67574e-07
-2.47518e-07
-6.98384e-07
2.87831e-08
-2.91529e-07
-6.36783e-07
-1.00463e-07
-3.2348e-07
-5.34116e-07
-1.8306e-07
-3.425e-07
-4.19408e-07
-2.1175e-07
-3.54735e-07
-3.11914e-07
-1.87168e-07
-3.60351e-07
-2.19391e-07
-1.62263e-07
-3.64637e-07
-1.42634e-07
-1.26655e-07
-3.65149e-07
-8.26453e-08
-9.62332e-08
-3.62808e-07
-3.9605e-08
-6.03435e-08
-3.58372e-07
-1.0636e-08
-2.72653e-08
-3.54003e-07
5.87859e-09
5.68563e-09
-3.50199e-07
1.50805e-08
3.38771e-08
-3.47369e-07
1.87933e-08
6.03245e-08
-3.45899e-07
1.89358e-08
8.42344e-08
-3.45725e-07
1.70727e-08
1.06036e-07
-3.4657e-07
1.44916e-08
1.26491e-07
-3.48052e-07
1.20862e-08
1.4555e-07
-3.50021e-07
1.07253e-08
1.64255e-07
-3.51956e-07
1.10428e-08
1.80865e-07
-3.54754e-07
1.30519e-08
2.01939e-07
-3.5621e-07
1.90928e-08
2.15511e-07
-3.60298e-07
2.36279e-08
2.45328e-07
-3.60376e-07
3.44625e-08
2.50311e-07
-3.6517e-07
3.80739e-08
2.89966e-07
-3.62652e-07
5.17433e-08
2.8158e-07
-3.6698e-07
4.82859e-08
3.31256e-07
-3.59996e-07
5.42021e-08
3.08306e-07
-3.60064e-07
3.25888e-08
3.58241e-07
-3.47987e-07
8.44772e-09
3.36751e-07
-3.41274e-07
-4.54839e-08
3.79505e-07
-3.28854e-07
-1.0294e-07
3.62174e-07
-3.26669e-07
-1.62458e-07
3.56284e-07
-3.27056e-07
-1.95617e-07
3.07887e-07
-3.51977e-07
-2.12245e-07
1.96267e-07
-3.6011e-07
-1.60249e-07
2.44932e-08
-4.17738e-07
-1.24456e-07
-2.10789e-07
-4.06142e-07
-2.0642e-07
-4.6362e-07
-3.38095e-07
-2.25638e-07
-6.26292e-07
-2.44995e-07
-9.42564e-07
-5.6904e-07
1.10281e-07
-2.394e-06
1.94953e-06
2.38792e-07
3.01197e-07
-2.3186e-06
-8.2023e-07
5.94693e-06
-8.65631e-06
-1.92444e-06
8.31137e-06
-9.35542e-06
-1.24086e-06
6.85174e-06
-3.68231e-06
-1.9985e-06
4.53432e-06
4.77895e-06
-3.82302e-07
-6.09528e-06
2.10447e-05
6.45191e-07
1.3267e-05
6.47636e-06
-2.58375e-06
3.0361e-05
-3.56182e-05
-7.44927e-07
4.53861e-07
-3.89117e-05
3.83559e-06
-2.50732e-06
-1.71195e-05
1.6582e-06
1.57604e-06
-1.85663e-05
-4.41206e-07
2.46969e-06
1.11894e-06
-3.77058e-06
1.05778e-05
9.93779e-07
-6.08211e-06
1.23406e-05
5.71849e-06
-3.47087e-06
1.18332e-05
6.8424e-06
-9.08627e-07
9.98721e-06
7.78699e-06
6.44273e-07
6.39511e-06
8.9051e-06
1.96429e-06
3.69521e-07
1.00642e-05
2.83746e-06
-6.05395e-06
1.05704e-05
2.27158e-06
-1.07219e-05
1.02164e-05
7.66664e-07
-1.2948e-05
9.02856e-06
-7.8414e-07
-1.31447e-05
7.15409e-06
-2.42055e-06
-1.2122e-05
5.15809e-06
-3.53881e-06
-1.02435e-05
3.11038e-06
-3.73439e-06
-7.84434e-06
1.16158e-06
-3.31369e-06
-5.31825e-06
-1.766e-07
-2.71506e-06
-2.75606e-06
-8.52924e-07
-2.31503e-06
-4.76163e-07
-5.08151e-07
-2.26498e-06
1.38863e-06
2.70604e-07
-2.45671e-06
2.91917e-06
8.83127e-07
-2.6697e-06
4.53202e-06
6.00232e-07
-2.85102e-06
6.45334e-06
3.30987e-08
-3.06474e-06
8.53719e-06
-4.59256e-07
-3.09221e-06
1.03958e-05
-5.19906e-07
-2.75837e-06
1.14458e-05
2.68792e-09
-1.87973e-06
1.10688e-05
1.42191e-06
-5.64551e-07
9.73743e-06
3.51095e-06
5.91278e-08
7.85152e-06
7.33294e-06
-2.53081e-07
4.10034e-06
1.29123e-05
6.96459e-07
-1.98863e-06
1.49557e-05
3.16421e-06
-6.70911e-06
1.2762e-05
2.01144e-06
-8.48022e-06
1.26585e-05
-1.15643e-06
-6.47833e-06
1.53442e-05
-5.6512e-06
1.74367e-05
-1.11482e-05
-4.50611e-06
-4.83214e-06
-1.30404e-07
-3.27973e-06
-5.37461e-06
-9.87588e-07
-3.09866e-06
-3.93883e-06
9.2054e-08
-2.21972e-06
-3.73074e-06
-5.61639e-07
-1.75266e-06
-2.76688e-06
-1.36289e-07
-1.0093e-06
-2.4484e-06
-3.54504e-07
-2.98742e-07
-1.34389e-06
-1.46377e-07
8.54228e-08
-3.33921e-07
-1.44951e-08
8.54013e-08
5.98914e-07
-3.39168e-08
-2.05194e-07
7.87615e-07
-2.86445e-08
-4.30821e-07
6.55893e-07
-1.23e-07
-6.00049e-07
5.24715e-07
-1.87402e-07
-6.64402e-07
3.41898e-07
-2.48452e-07
-6.4077e-07
1.70805e-07
-2.94698e-07
-5.44878e-07
4.43146e-08
-3.23101e-07
-4.27674e-07
1.09568e-08
-3.39754e-07
-3.22576e-07
5.86356e-08
-3.50742e-07
-2.37414e-07
1.13637e-07
-3.60919e-07
-1.67025e-07
1.73329e-07
-3.7023e-07
-1.093e-07
2.22227e-07
-3.76063e-07
-6.22992e-08
2.70881e-07
-3.78096e-07
-2.44885e-08
3.12279e-07
-3.77237e-07
3.4436e-09
3.51357e-07
-3.73474e-07
2.05548e-08
3.86259e-07
-3.69384e-07
2.9542e-08
4.16585e-07
-3.65141e-07
3.30091e-08
4.42087e-07
-3.61224e-07
3.30633e-08
4.63876e-07
-3.57795e-07
3.15133e-08
4.8295e-07
-3.54821e-07
2.94461e-08
4.99833e-07
-3.52118e-07
2.79071e-08
5.15407e-07
-3.49531e-07
2.75268e-08
5.28675e-07
-3.47322e-07
2.76658e-08
5.4602e-07
-3.44145e-07
3.15688e-08
5.55015e-07
-3.43282e-07
3.32936e-08
5.81862e-07
-3.38188e-07
4.26256e-08
5.79338e-07
-3.38214e-07
4.37066e-08
6.18892e-07
-3.29936e-07
5.14444e-08
6.00953e-07
-3.26952e-07
4.02524e-08
6.56474e-07
-3.13962e-07
2.76515e-08
6.26854e-07
-3.05768e-07
-8.36839e-09
6.85411e-07
-2.91126e-07
-5.68871e-08
6.67192e-07
-2.81696e-07
-1.15311e-07
7.11529e-07
-2.73572e-07
-1.80988e-07
7.05495e-07
-2.77418e-07
-2.28208e-07
6.83271e-07
-2.79815e-07
-2.4637e-07
6.34276e-07
-3.07851e-07
-2.36154e-07
4.94023e-07
-3.08198e-07
-1.9327e-07
3.08077e-07
-3.25752e-07
-1.97519e-07
5.78193e-08
-2.64212e-07
-4.64947e-07
-9.79329e-08
-9.50221e-08
-6.9769e-07
-3.33181e-07
-5.58807e-08
-9.77593e-07
-3.60389e-07
8.7874e-08
2.2385e-07
1.23498e-06
-3.85923e-07
2.57323e-06
-3.65802e-06
-6.39419e-07
2.73543e-06
-6.95699e-06
-1.77238e-06
5.77475e-06
-8.86323e-06
-3.15819e-06
8.3947e-06
-8.64073e-07
-5.6207e-06
1.1463e-05
7.14975e-06
-4.29864e-06
7.87708e-06
3.0059e-05
-5.16144e-06
2.37011e-05
-2.04769e-06
8.10135e-06
3.46904e-05
-2.84367e-05
-4.53668e-07
-2.55614e-07
-3.89802e-05
3.53649e-06
-8.07605e-06
-1.46169e-05
3.05118e-06
-8.85809e-06
-1.71839e-05
-6.04208e-07
-3.36916e-06
-1.83851e-06
-2.5326e-06
2.48267e-06
-1.69966e-06
-3.15984e-06
2.04223e-06
6.34132e-06
-1.83273e-07
-1.49505e-06
8.58813e-06
1.79112e-06
-7.7576e-06
1.14119e-05
2.63756e-06
-1.43762e-05
1.32053e-05
2.31863e-06
-1.93935e-05
1.40801e-05
1.0017e-06
-2.21772e-05
1.38423e-05
-4.87878e-07
-2.31564e-05
1.28866e-05
-1.69127e-06
-2.29747e-05
1.10339e-05
-2.1876e-06
-2.21181e-05
8.28642e-06
-1.98938e-06
-2.10207e-05
5.21463e-06
-1.15405e-06
-1.95404e-05
1.75718e-06
-1.27132e-07
-1.75152e-05
-1.49638e-06
6.32488e-07
-1.47222e-05
-4.07362e-06
1.10354e-06
-1.15306e-05
-5.15269e-06
1.10767e-06
-8.18477e-06
-4.4118e-06
5.57401e-07
-5.18843e-06
-2.39248e-06
-3.33347e-07
-3.24845e-06
2.1625e-07
-1.27311e-06
-1.49579e-06
9.50786e-07
-2.10323e-06
4.80754e-07
9.61408e-07
-2.90486e-06
2.79418e-06
5.0699e-07
-3.27968e-06
5.09628e-06
2.90829e-07
-3.11283e-06
6.52923e-06
7.14598e-07
-2.14486e-06
6.59894e-06
2.08207e-06
-7.29885e-07
5.80492e-06
4.66106e-06
-3.56085e-07
4.08835e-06
9.60261e-06
-5.53099e-07
6.81513e-07
1.51027e-05
1.21646e-06
-4.15554e-06
1.6527e-05
3.26576e-06
-7.32627e-06
1.43023e-05
1.63048e-06
-8.04779e-06
1.50485e-05
-1.66848e-06
-5.83634e-06
1.88891e-05
-5.75627e-06
2.22819e-05
-1.06815e-05
-4.75993e-06
-4.17519e-06
-5.64161e-07
-3.39967e-06
-5.12111e-06
-1.61166e-06
-3.26976e-06
-3.6204e-06
-4.41041e-07
-2.09201e-06
-3.6687e-06
-1.23505e-06
-1.59508e-06
-2.59534e-06
-6.62684e-07
-1.03904e-06
-2.37093e-06
-6.28077e-07
-5.53527e-07
-1.52389e-06
-2.98736e-07
-3.74383e-09
-7.26044e-07
-1.49951e-07
3.79311e-07
3.5313e-07
-1.32295e-07
2.60083e-07
9.54288e-07
-4.69976e-08
-3.95456e-08
1.05118e-06
-9.52654e-08
-3.69325e-07
9.92372e-07
-1.3735e-07
-5.50218e-07
7.37071e-07
-2.13748e-07
-5.71023e-07
4.72828e-07
-2.80861e-07
-4.85325e-07
2.95008e-07
-3.36036e-07
-3.71766e-07
2.60183e-07
-3.6245e-07
-2.7482e-07
3.32136e-07
-3.70067e-07
-2.0971e-07
4.23732e-07
-3.74786e-07
-1.63925e-07
5.06961e-07
-3.78978e-07
-1.26534e-07
5.6929e-07
-3.8402e-07
-9.27762e-08
6.23065e-07
-3.85502e-07
-6.31263e-08
6.65943e-07
-3.82874e-07
-3.89509e-08
7.0398e-07
-3.76359e-07
-2.09955e-08
7.36145e-07
-3.674e-07
-8.76338e-09
7.62031e-07
-3.57243e-07
-1.29825e-09
7.82139e-07
-3.47075e-07
1.86887e-09
7.98623e-07
-3.37476e-07
1.31405e-09
8.12472e-07
-3.2852e-07
-9.43292e-10
8.22603e-07
-3.20068e-07
-3.59e-09
8.30638e-07
-3.12153e-07
-5.69728e-09
8.36014e-07
-3.04778e-07
-6.55114e-09
8.43847e-07
-2.96564e-07
-5.6995e-09
8.45451e-07
-2.90806e-07
-6.83023e-09
8.64954e-07
-2.81582e-07
-5.88014e-09
8.57031e-07
-2.78124e-07
-1.08183e-08
8.90577e-07
-2.66395e-07
-1.89826e-08
8.71196e-07
-2.61578e-07
-3.64499e-08
9.19861e-07
-2.45583e-07
-6.69464e-08
8.94957e-07
-2.37118e-07
-1.01442e-07
9.41954e-07
-2.2173e-07
-1.48464e-07
9.29078e-07
-2.14363e-07
-1.80781e-07
9.51542e-07
-2.07387e-07
-2.03879e-07
9.39978e-07
-2.10833e-07
-2.08497e-07
8.96415e-07
-2.08281e-07
-2.02925e-07
8.46296e-07
-2.16928e-07
-1.9548e-07
6.91449e-07
-2.04805e-07
-2.30839e-07
5.267e-07
-1.82518e-07
-3.61992e-07
3.1406e-07
-1.24619e-07
-7.96508e-07
2.79236e-07
6.11908e-08
-1.43356e-06
1.02385e-07
2.08447e-07
-2.10695e-06
8.21332e-08
2.39406e-07
3.62646e-07
-3.24523e-07
-6.22832e-07
-4.38967e-06
2.32734e-06
-1.13109e-06
-1.44824e-05
5.75487e-06
-2.5223e-06
-2.06429e-05
1.68965e-06
-4.22978e-06
-1.74496e-05
3.64687e-06
-7.96065e-06
4.52063e-06
-3.67403e-06
-9.81387e-06
1.97041e-05
2.31086e-05
-8.25767e-06
3.34155e-05
-1.21308e-05
1.7013e-05
3.65432e-05
-1.86743e-05
1.20485e-06
-4.73589e-06
-3.53341e-05
3.86536e-06
-1.31528e-05
-1.13038e-05
3.78723e-06
-1.63528e-05
-1.40978e-05
9.05282e-08
-1.44257e-05
-1.71948e-06
-2.05984e-06
-1.65745e-05
2.03346e-06
-1.59007e-06
-1.90494e-05
8.32272e-06
4.93391e-07
-2.3066e-05
1.15849e-05
1.01943e-06
-2.74374e-05
1.47855e-05
1.0061e-06
-3.0493e-05
1.58566e-05
4.2236e-07
-3.22368e-05
1.61036e-05
-2.61902e-07
-3.37197e-05
1.59179e-05
-5.79571e-07
-3.43678e-05
1.389e-05
-3.49317e-07
-3.46799e-05
1.11398e-05
2.14299e-07
-3.48515e-05
7.61236e-06
8.41773e-07
-3.49364e-05
3.83261e-06
1.4496e-06
-3.42879e-05
-9.16845e-07
2.00949e-06
-3.30307e-05
-5.1815e-06
2.41234e-06
-3.08595e-05
-9.12226e-06
2.8524e-06
-2.73883e-05
-1.18954e-05
3.23891e-06
-2.25968e-05
-1.24609e-05
3.2266e-06
-1.68991e-05
-1.08122e-05
2.69995e-06
-1.21537e-05
-6.27045e-06
1.73363e-06
-8.62454e-06
-3.06882e-06
4.87526e-07
-5.71989e-06
-1.03084e-06
-9.13346e-07
-3.28306e-06
2.59179e-08
-1.95622e-06
-1.13363e-06
5.69912e-07
-2.42863e-06
1.1425e-08
1.60567e-06
-2.03614e-06
-4.42967e-07
3.60125e-06
-1.06479e-06
-1.93759e-06
6.68987e-06
-5.34192e-07
-3.86443e-06
1.14065e-05
1.22989e-07
-5.25994e-06
1.48861e-05
1.6121e-06
-6.35296e-06
1.54369e-05
2.18318e-06
-7.36496e-06
1.48853e-05
4.29001e-07
-7.38967e-06
1.74986e-05
-2.4254e-06
-5.20774e-06
2.265e-05
-5.94281e-06
2.69631e-05
-9.88894e-06
-5.10385e-06
-3.23467e-06
-3.61021e-07
-3.71371e-06
-4.87296e-06
-1.63933e-06
-3.58729e-06
-2.89133e-06
-8.49989e-07
-2.17262e-06
-3.3975e-06
-1.68056e-06
-1.37522e-06
-2.14113e-06
-1.24471e-06
-7.00751e-07
-1.98535e-06
-1.05417e-06
-3.23893e-07
-1.12979e-06
-7.65169e-07
1.93932e-08
-6.26527e-07
-4.35919e-07
4.21378e-07
2.93472e-07
-3.36262e-07
4.89043e-07
1.06562e-06
-1.76898e-07
2.59108e-07
1.41369e-06
-1.32229e-07
-1.78268e-07
1.526e-06
-9.60043e-08
-4.41668e-07
1.17198e-06
-1.71386e-07
-4.84542e-07
7.87931e-07
-2.72235e-07
-4.14113e-07
5.77592e-07
-3.5308e-07
-3.2141e-07
5.53521e-07
-3.86081e-07
-2.37565e-07
6.36475e-07
-3.88271e-07
-1.90839e-07
7.54699e-07
-3.77786e-07
-1.64246e-07
8.50733e-07
-3.70475e-07
-1.48551e-07
9.20017e-07
-3.66544e-07
-1.37814e-07
9.74049e-07
-3.61829e-07
-1.29659e-07
1.01315e-06
-3.55475e-07
-1.2311e-07
1.04384e-06
-3.46514e-07
-1.18446e-07
1.06706e-06
-3.35681e-07
-1.14612e-07
1.08228e-06
-3.24179e-07
-1.1156e-07
1.09091e-06
-3.11916e-07
-1.10255e-07
1.09571e-06
-2.98474e-07
-1.10819e-07
1.09967e-06
-2.86717e-07
-1.12884e-07
1.10043e-06
-2.75825e-07
-1.15748e-07
1.09887e-06
-2.65434e-07
-1.18958e-07
1.09526e-06
-2.5607e-07
-1.18913e-07
1.0915e-06
-2.47776e-07
-1.20874e-07
1.08722e-06
-2.39824e-07
-1.23097e-07
1.09821e-06
-2.31137e-07
-1.33986e-07
1.09182e-06
-2.23891e-07
-1.44596e-07
1.11509e-06
-2.14036e-07
-1.719e-07
1.10394e-06
-2.05415e-07
-1.94982e-07
1.13695e-06
-1.94157e-07
-2.37144e-07
1.12101e-06
-1.83829e-07
-2.64202e-07
1.14295e-06
-1.74101e-07
-2.92253e-07
1.1256e-06
-1.68381e-07
-2.91701e-07
1.11447e-06
-1.63674e-07
-2.59275e-07
1.07353e-06
-1.65891e-07
-2.29713e-07
1.02037e-06
-1.53799e-07
-2.11092e-07
9.69968e-07
-1.42156e-07
-2.1899e-07
8.18892e-07
-1.19959e-07
-3.1685e-07
6.93e-07
-6.79951e-08
-4.74684e-07
4.86723e-07
-1.44746e-08
-1.00251e-06
5.99239e-07
2.11855e-07
-1.63452e-06
3.73734e-07
3.67616e-07
-2.2029e-06
1.6723e-07
4.94732e-07
6.32806e-07
-2.79795e-06
-2.67402e-07
2.34033e-06
2.02591e-06
-9.85616e-07
2.90976e-07
1.38573e-05
-5.73432e-06
1.15883e-07
1.3125e-05
-1.1266e-05
2.81562e-06
1.12909e-05
-1.06274e-05
1.53635e-05
-2.86487e-06
-1.27204e-05
3.4046e-05
8.22298e-06
-4.3959e-06
3.61432e-05
-1.35802e-05
2.60418e-05
3.23342e-05
-8.74634e-06
2.31126e-06
-1.8497e-05
-2.32312e-05
4.35024e-06
-2.62027e-05
-7.19468e-06
3.17074e-06
-3.41595e-05
-6.45583e-06
2.28867e-07
-3.51644e-05
1.28861e-06
-2.09125e-06
-3.8358e-05
5.7461e-06
-5.39583e-07
-4.06895e-05
1.08633e-05
-1.37759e-07
-4.33163e-05
1.39523e-05
3.84226e-07
-4.51931e-05
1.62743e-05
5.77715e-07
-4.69097e-05
1.7157e-05
4.97262e-07
-4.80597e-05
1.69134e-05
4.96076e-07
-4.74877e-05
1.51027e-05
4.31402e-07
-4.74263e-05
1.32033e-05
7.35052e-07
-4.68548e-05
9.81717e-06
8.16918e-07
-4.61899e-05
5.97342e-06
9.69333e-07
-4.46938e-05
1.10199e-06
1.074e-06
-4.37466e-05
-3.57756e-06
1.5171e-06
-4.22423e-05
-8.62278e-06
1.93115e-06
-4.10968e-05
-1.3177e-05
2.84016e-06
-4.02138e-05
-1.66755e-05
3.74074e-06
-3.87201e-05
-1.84561e-05
4.28584e-06
-3.60855e-05
-1.82488e-05
4.53794e-06
-3.09168e-05
-1.60354e-05
4.46132e-06
-2.50313e-05
-1.25194e-05
3.43703e-06
-1.93834e-05
-8.60191e-06
1.80139e-06
-1.51392e-05
-4.28934e-06
-3.387e-09
-1.16425e-05
-1.57286e-06
-1.39399e-06
-9.10413e-06
1.01499e-06
-1.97465e-06
-7.71314e-06
3.89721e-06
-1.70485e-06
-7.47207e-06
7.69034e-06
-1.24937e-06
-7.10759e-06
1.16405e-05
-6.01417e-07
-6.38003e-06
1.4017e-05
1.3823e-07
-5.87783e-06
1.49671e-05
-4.16733e-08
-5.82372e-06
1.62108e-05
-1.40001e-06
-4.94494e-06
2.00733e-05
-3.47491e-06
-2.73956e-06
2.66767e-05
-6.2511e-06
3.37059e-05
-9.47363e-06
-4.84438e-06
-2.38476e-06
6.3126e-07
-3.7051e-06
-4.50184e-06
-1.51562e-06
-3.90979e-06
-1.81258e-06
-8.70353e-07
-2.50053e-06
-2.91242e-06
-1.88973e-06
-1.56732e-06
-1.61243e-06
-1.45365e-06
-5.77891e-07
-1.62733e-06
-1.3402e-06
-1.17106e-07
-5.97907e-07
-9.85798e-07
5.00787e-09
-2.21921e-07
-5.21061e-07
2.28206e-07
5.00551e-07
-4.23921e-07
3.57069e-07
1.17348e-06
-2.32343e-07
3.60456e-07
1.57631e-06
-1.64513e-07
2.03849e-07
1.77453e-06
-9.13858e-08
7.51387e-08
1.53087e-06
-2.29841e-07
-1.07936e-08
1.21531e-06
-3.41192e-07
-6.57718e-08
1.06741e-06
-4.3457e-07
-1.2253e-07
1.09793e-06
-4.8741e-07
-1.6877e-07
1.20221e-06
-5.19258e-07
-2.13524e-07
1.32635e-06
-5.26681e-07
-2.45449e-07
1.41564e-06
-5.32795e-07
-2.63926e-07
1.47114e-06
-5.32515e-07
-2.72678e-07
1.51297e-06
-5.30073e-07
-2.76021e-07
1.54308e-06
-5.26535e-07
-2.7476e-07
1.56509e-06
-5.22504e-07
-2.71471e-07
1.58098e-06
-5.17242e-07
-2.66984e-07
1.58973e-06
-5.12008e-07
-2.62432e-07
1.59339e-06
-5.07134e-07
-2.59922e-07
1.59482e-06
-5.01765e-07
-2.59444e-07
1.59507e-06
-4.96054e-07
-2.61411e-07
1.59294e-06
-4.90757e-07
-2.64077e-07
1.58737e-06
-4.86088e-07
-2.6655e-07
1.57945e-06
-4.81981e-07
-2.65124e-07
1.56909e-06
-4.79327e-07
-2.6747e-07
1.56519e-06
-4.75901e-07
-2.72935e-07
1.5748e-06
-4.71479e-07
-2.9465e-07
1.57906e-06
-4.65786e-07
-3.14128e-07
1.59452e-06
-4.60354e-07
-3.55288e-07
1.59762e-06
-4.52768e-07
-3.80856e-07
1.60989e-06
-4.47833e-07
-4.22824e-07
1.60383e-06
-4.41107e-07
-4.34542e-07
1.59374e-06
-4.39561e-07
-4.39073e-07
1.57047e-06
-4.4055e-07
-4.12456e-07
1.52868e-06
-4.41298e-07
-3.50311e-07
1.46553e-06
-4.54263e-07
-3.05965e-07
1.41994e-06
-4.44424e-07
-2.80203e-07
1.374e-06
-4.29873e-07
-3.19082e-07
1.2674e-06
-4.10225e-07
-4.75922e-07
1.16812e-06
-3.1807e-07
-7.5601e-07
1.01805e-06
-2.51198e-07
-1.42095e-06
1.20484e-06
6.31042e-08
-2.00206e-06
7.8063e-07
1.82371e-07
-2.14916e-06
-1.33654e-07
4.91171e-07
4.64342e-07
-4.54736e-06
-8.38616e-07
6.96351e-06
-3.58952e-06
-5.88235e-07
1.6356e-05
6.40047e-06
-1.67682e-06
2.01465e-05
1.42812e-05
-4.47204e-06
2.53521e-05
1.57572e-05
-9.56808e-06
2.65905e-05
1.17372e-05
-1.53964e-05
4.1682e-05
7.02464e-06
-1.4061e-05
3.77003e-05
-1.18284e-05
3.10763e-05
3.14257e-05
-5.10515e-07
2.65259e-06
-3.02415e-05
-2.92534e-06
7.33389e-06
-4.32277e-05
1.27915e-06
4.30234e-06
-5.34408e-05
4.36984e-06
-4.71045e-07
-5.66802e-05
6.65245e-06
-2.08057e-06
-5.95125e-05
9.81714e-06
-1.22738e-06
-6.0421e-05
1.22222e-05
-4.09991e-07
-6.12e-05
1.45747e-05
1.78273e-07
-6.13191e-05
1.5989e-05
4.2537e-07
-6.09552e-05
1.64246e-05
4.03067e-07
-5.9302e-05
1.55424e-05
-1.1655e-07
-5.80463e-05
1.48653e-05
-7.59704e-07
-5.58151e-05
1.25904e-05
-1.41271e-06
-5.33385e-05
9.59042e-06
-2.17551e-06
-5.05184e-05
5.89034e-06
-2.72007e-06
-4.80442e-05
1.21909e-06
-2.62964e-06
-4.63355e-05
-3.33242e-06
-2.03245e-06
-4.54094e-05
-8.62716e-06
-9.95122e-07
-4.53754e-05
-1.37185e-05
3.89569e-07
-4.64565e-05
-1.7606e-05
1.94518e-06
-4.85059e-05
-2.03219e-05
3.93114e-06
-5.11156e-05
-2.14002e-05
5.7491e-06
-5.29622e-05
-2.11209e-05
6.89676e-06
-5.30547e-05
-1.91591e-05
6.68526e-06
-5.13189e-05
-1.54204e-05
5.04421e-06
-4.83886e-05
-9.51755e-06
2.2622e-06
-4.45749e-05
-4.70687e-06
-6.81681e-07
-4.04808e-05
-2.99325e-07
-2.81597e-06
-3.59369e-05
2.99429e-06
-3.66032e-06
-3.15443e-05
6.96707e-06
-3.61177e-06
-2.7196e-05
1.06328e-05
-3.22898e-06
-2.34641e-05
1.36665e-05
-3.24632e-06
-2.07829e-05
1.64406e-05
-3.95785e-06
-1.90563e-05
1.97341e-05
-5.15926e-06
-1.62323e-05
2.42457e-05
-6.92857e-06
-9.704e-06
2.96855e-05
-9.79906e-06
3.18801e-05
-1.17279e-05
-4.17873e-06
-4.88298e-07
2.42175e-06
-3.05991e-06
-4.49925e-06
-1.12649e-06
-3.64193e-06
-7.63344e-07
-4.63224e-07
-2.49704e-06
-2.46487e-06
-1.59317e-06
-1.70235e-06
-1.12561e-06
-1.27263e-06
-6.42798e-07
-1.49903e-06
-1.1781e-06
-2.03687e-07
-3.58298e-07
-6.70846e-07
-1.84439e-07
-5.14147e-08
-1.84688e-07
-1.15469e-07
4.87026e-07
-5.10671e-08
3.92681e-08
9.86428e-07
3.61439e-08
2.94915e-07
1.32122e-06
1.87334e-09
4.65239e-07
1.43372e-06
1.71212e-07
4.72571e-07
1.33906e-06
1.85217e-07
3.47223e-07
1.15489e-06
1.8617e-07
1.88636e-07