/*--------------------------------*- C++ -*----------------------------------*\
| =========                 |                                                 |
| \\      /  F ield         | OpenFOAM: The Open Source CFD Toolbox           |
|  \\    /   O peration     | Version:  2.3.0                                 |
|   \\  /    A nd           | Web:      www.OpenFOAM.org                      |
|    \\/     M anipulation  |                                                 |
\*---------------------------------------------------------------------------*/
FoamFile
{
    version     2.0;
    format      ascii;
    class       volScalarField;
    location    "27";
    object      rho;
}
// * * * * * * * * * * * * * * * * * * * * * * * * * * * * * * * * * * * * * //

dimensions      [1 -3 0 0 0 0 0];

internalField   nonuniform List<scalar> 
6144
(
1.16407
1.16488
1.16538
1.16583
1.16625
1.16677
1.1673
1.16802
1.16864
1.16884
1.16888
1.16888
1.16889
1.16889
1.16889
1.1689
1.1689
1.1689
1.1689
1.1689
1.1689
1.16891
1.16891
1.16891
1.16891
1.16891
1.16891
1.16892
1.16892
1.16892
1.16892
1.16892
1.16892
1.16892
1.16892
1.16893
1.16893
1.16893
1.16893
1.16893
1.16893
1.16893
1.16894
1.16894
1.16945
1.17217
1.17808
1.18695
1.20082
1.22493
1.26807
1.28965
1.29405
1.29844
1.29655
1.29743
1.29281
1.29957
2.26355
60.6211
992.006
1026.9
1027.09
1027.1
1027.1
1027.1
1027.1
1027.1
1027.1
1027.1
1027.1
1027.1
1027.1
1027.1
1027.1
1027.1
1027.1
1027.1
1027.1
1027.1
1027.1
1027.1
1027.1
1027.1
1027.1
1027.1
1027.1
1027.1
1027.1
1027.1
1027.1
1027.1
1027.1
1027.1
1027.1
1027.1
1.16379
1.16491
1.16561
1.16606
1.16656
1.16705
1.16761
1.16822
1.16871
1.16885
1.16887
1.16889
1.16889
1.1689
1.1689
1.1689
1.16891
1.16891
1.16891
1.16891
1.16891
1.16891
1.16891
1.16892
1.16892
1.16892
1.16892
1.16892
1.16892
1.16893
1.16893
1.16893
1.16893
1.16893
1.16893
1.16893
1.16894
1.16894
1.16894
1.16894
1.16894
1.16894
1.16894
1.16894
1.16919
1.17074
1.17478
1.18028
1.18749
1.20699
1.28262
1.29752
1.30178
1.30483
1.29867
1.30175
1.29425
1.30695
1.79895
41.1035
986.067
1026.92
1027.09
1027.1
1027.1
1027.1
1027.1
1027.1
1027.1
1027.1
1027.1
1027.1
1027.1
1027.1
1027.1
1027.1
1027.1
1027.1
1027.1
1027.1
1027.1
1027.1
1027.1
1027.1
1027.1
1027.1
1027.1
1027.1
1027.1
1027.1
1027.1
1027.1
1027.1
1027.1
1027.1
1027.1
1.16349
1.16447
1.16536
1.16584
1.16639
1.16697
1.16769
1.16823
1.16856
1.16871
1.16879
1.16885
1.16888
1.1689
1.1689
1.16891
1.16891
1.16891
1.16891
1.16891
1.16891
1.16891
1.16892
1.16892
1.16892
1.16892
1.16892
1.16892
1.16892
1.16893
1.16893
1.16893
1.16893
1.16893
1.16893
1.16893
1.16894
1.16894
1.16894
1.16894
1.16894
1.16894
1.16894
1.16896
1.16918
1.17005
1.17247
1.17641
1.18396
1.22737
1.28838
1.30236
1.30899
1.30905
1.30259
1.30189
1.29167
1.30212
1.6062
37.2429
980.564
1026.9
1027.09
1027.1
1027.1
1027.1
1027.1
1027.1
1027.1
1027.1
1027.1
1027.1
1027.1
1027.1
1027.1
1027.1
1027.1
1027.1
1027.1
1027.1
1027.1
1027.1
1027.1
1027.1
1027.1
1027.1
1027.1
1027.1
1027.1
1027.1
1027.1
1027.1
1027.1
1027.1
1027.1
1027.1
1.16328
1.16398
1.16499
1.16549
1.16601
1.16651
1.16737
1.16813
1.16848
1.16864
1.16875
1.16883
1.16888
1.16889
1.1689
1.1689
1.1689
1.1689
1.16891
1.16891
1.16891
1.16891
1.16891
1.16891
1.16891
1.16892
1.16892
1.16892
1.16892
1.16892
1.16892
1.16892
1.16893
1.16893
1.16893
1.16893
1.16893
1.16893
1.16893
1.16893
1.16894
1.16894
1.16894
1.16901
1.16925
1.16987
1.17152
1.17432
1.17713
1.23274
1.28901
1.30672
1.31787
1.31994
1.31426
1.30718
1.29321
1.33285
1.43093
56.7071
984.838
1026.95
1027.08
1027.09
1027.09
1027.09
1027.09
1027.1
1027.1
1027.1
1027.1
1027.1
1027.1
1027.1
1027.1
1027.1
1027.1
1027.1
1027.1
1027.1
1027.1
1027.1
1027.1
1027.1
1027.1
1027.1
1027.1
1027.1
1027.1
1027.1
1027.1
1027.1
1027.1
1027.1
1027.1
1027.1
1.16315
1.16345
1.16458
1.16513
1.16576
1.16623
1.16699
1.16789
1.16838
1.16859
1.16871
1.16882
1.16888
1.1689
1.1689
1.16891
1.16891
1.16891
1.16891
1.16891
1.16891
1.16892
1.16892
1.16892
1.16892
1.16892
1.16892
1.16892
1.16892
1.16893
1.16893
1.16893
1.16893
1.16893
1.16893
1.16893
1.16893
1.16893
1.16894
1.16894
1.16894
1.16894
1.16896
1.16905
1.16931
1.16991
1.17127
1.17362
1.17591
1.22593
1.2875
1.30792
1.32084
1.32434
1.32294
1.31632
1.30865
1.38374
1.58983
93.0681
982.966
1026.48
1026.71
1026.88
1026.96
1027.01
1027.01
1027.02
1027.02
1027.04
1027.05
1027.07
1027.08
1027.09
1027.1
1027.1
1027.1
1027.1
1027.1
1027.1
1027.1
1027.1
1027.1
1027.1
1027.1
1027.1
1027.1
1027.1
1027.1
1027.1
1027.1
1027.1
1027.1
1027.1
1027.1
1027.1
1.16311
1.16311
1.1642
1.16478
1.16554
1.16606
1.16665
1.16741
1.16821
1.16853
1.16867
1.16881
1.16887
1.16889
1.1689
1.1689
1.1689
1.1689
1.1689
1.1689
1.16891
1.16891
1.16891
1.16891
1.16891
1.16891
1.16892
1.16892
1.16892
1.16892
1.16892
1.16892
1.16892
1.16893
1.16893
1.16893
1.16893
1.16893
1.16893
1.16893
1.16894
1.16894
1.16896
1.16903
1.16929
1.16995
1.1712
1.17352
1.17732
1.2075
1.28237
1.3019
1.31071
1.31291
1.31392
1.31844
1.33616
1.35255
1.2794
152.588
988.366
1024.93
1025.06
1025.56
1025.81
1025.86
1025.84
1025.89
1025.86
1025.87
1026.02
1026.2
1026.4
1026.58
1026.75
1026.89
1026.98
1027.05
1027.08
1027.09
1027.09
1027.09
1027.09
1027.09
1027.09
1027.1
1027.1
1027.1
1027.1
1027.1
1027.1
1027.1
1027.1
1027.1
1027.1
1027.1
1.16309
1.16302
1.16395
1.1645
1.16537
1.16596
1.16648
1.16712
1.16798
1.16845
1.16864
1.1688
1.16887
1.1689
1.1689
1.1689
1.16891
1.16891
1.16891
1.16891
1.16891
1.16891
1.16891
1.16891
1.16892
1.16892
1.16892
1.16892
1.16892
1.16892
1.16892
1.16892
1.16893
1.16893
1.16893
1.16893
1.16893
1.16893
1.16893
1.16893
1.16894
1.16894
1.16896
1.16902
1.16927
1.16998
1.17132
1.17389
1.17863
1.19712
1.27696
1.29871
1.30186
1.29567
1.29036
1.28708
1.28528
1.28604
1.27626
238.099
1007.58
1022.6
1022.53
1023.33
1023.71
1023.8
1023.65
1023.55
1023.53
1023.57
1023.68
1023.75
1024.03
1024.5
1024.97
1025.29
1025.44
1025.46
1025.38
1025.27
1025.18
1025.12
1025.04
1025.03
1025.26
1025.62
1026.2
1026.73
1026.97
1027.05
1027.09
1027.09
1027.06
1027.05
1027.07
1027.09
1.16308
1.16307
1.16384
1.16428
1.16527
1.16593
1.16644
1.16709
1.16777
1.1684
1.16862
1.16878
1.16887
1.16889
1.1689
1.1689
1.16891
1.16891
1.16891
1.16891
1.16891
1.16891
1.16892
1.16892
1.16892
1.16892
1.16892
1.16892
1.16893
1.16893
1.16893
1.16893
1.16893
1.16893
1.16893
1.16893
1.16894
1.16894
1.16894
1.16894
1.16894
1.16895
1.16896
1.16901
1.16929
1.17016
1.17176
1.17457
1.17887
1.18674
1.24667
1.2917
1.30112
1.29571
1.29392
1.29438
1.28551
1.2972
1.27626
277.138
1011.23
1018.02
1017.39
1017.28
1017.31
1017.23
1017.1
1016.98
1016.88
1016.7
1016.45
1016.2
1015.92
1015.57
1015.21
1014.8
1014.28
1013.65
1012.92
1012.2
1011.56
1010.96
1010.41
1009.72
1008.8
1007.85
1006.88
1006.22
1005.98
1006.74
1007.6
1009.1
1010.56
1013.09
1015.94
1019.65
1.16284
1.16312
1.16379
1.16404
1.16527
1.16622
1.16662
1.16722
1.16779
1.16835
1.16859
1.16876
1.16885
1.16889
1.16889
1.1689
1.1689
1.1689
1.1689
1.1689
1.16891
1.16891
1.16891
1.16891
1.16891
1.16892
1.16892
1.16892
1.16892
1.16892
1.16892
1.16893
1.16893
1.16893
1.16893
1.16893
1.16893
1.16893
1.16894
1.16894
1.16894
1.16894
1.16895
1.16899
1.16924
1.17016
1.17191
1.17498
1.17982
1.1895
1.22111
1.26959
1.29401
1.30009
1.29447
1.30129
1.28651
1.3068
1.27626
154.405
1001.29
1023.13
1023.47
1024.11
1024.5
1024.82
1025.12
1025.28
1025.27
1025.1
1024.94
1024.73
1024.51
1024.24
1023.96
1023.73
1023.56
1023.48
1023.5
1023.86
1024.18
1024.52
1024.63
1024.28
1024.06
1023.82
1023.68
1023.69
1024.21
1024.99
1025.75
1026.43
1026.96
1027.03
1027.07
1027.1
1.16273
1.16287
1.16339
1.16359
1.16522
1.16642
1.16702
1.16751
1.16784
1.16825
1.16852
1.16871
1.16882
1.16888
1.1689
1.1689
1.1689
1.16891
1.16891
1.16891
1.16891
1.16891
1.16891
1.16892
1.16892
1.16892
1.16892
1.16892
1.16892
1.16892
1.16893
1.16893
1.16893
1.16893
1.16893
1.16893
1.16893
1.16893
1.16894
1.16894
1.16894
1.16895
1.16895
1.16898
1.1692
1.17013
1.17212
1.176
1.18334
1.1957
1.21595
1.24766
1.27977
1.30175
1.3012
1.30597
1.30168
1.30986
1.27626
101.089
1008.25
1026.64
1026.82
1026.97
1027.02
1027.04
1027.06
1027.07
1027.08
1027.08
1027.09
1027.08
1027.08
1027.07
1027.07
1027.06
1027.06
1027.06
1027.06
1027.06
1027.06
1027.07
1027.06
1027.05
1027.03
1027.02
1027.02
1027.04
1027.07
1027.09
1027.1
1027.1
1027.1
1027.1
1027.1
1027.1
1.16246
1.16254
1.16288
1.16305
1.16486
1.16633
1.16736
1.16775
1.16797
1.16821
1.16845
1.16865
1.16877
1.16886
1.16889
1.1689
1.1689
1.1689
1.1689
1.16891
1.16891
1.16891
1.16891
1.16891
1.16892
1.16892
1.16892
1.16892
1.16892
1.16892
1.16893
1.16893
1.16893
1.16893
1.16893
1.16893
1.16893
1.16894
1.16894
1.16894
1.16894
1.16895
1.16895
1.16899
1.16926
1.17035
1.17297
1.17838
1.18911
1.20516
1.22154
1.24786
1.27578
1.30648
1.31074
1.31726
1.30758
1.31195
1.28776
69.2986
1015.97
1027.08
1027.09
1027.09
1027.09
1027.1
1027.1
1027.1
1027.1
1027.1
1027.1
1027.1
1027.1
1027.1
1027.1
1027.1
1027.1
1027.1
1027.1
1027.1
1027.1
1027.1
1027.1
1027.1
1027.1
1027.1
1027.1
1027.1
1027.1
1027.1
1027.1
1027.1
1027.1
1027.1
1027.1
1027.1
1.16216
1.16211
1.16233
1.16239
1.16409
1.16576
1.16743
1.16791
1.16816
1.16839
1.16855
1.16876
1.16885
1.1689
1.1689
1.1689
1.1689
1.1689
1.1689
1.16891
1.16891
1.16891
1.16891
1.16891
1.16892
1.16892
1.16892
1.16892
1.16892
1.16893
1.16893
1.16893
1.16893
1.16893
1.16893
1.16894
1.16894
1.16894
1.16894
1.16894
1.16895
1.16895
1.16896
1.16903
1.16945
1.17092
1.17476
1.18228
1.19501
1.21383
1.23174
1.25116
1.27418
1.30976
1.31564
1.31575
1.30266
1.31048
1.41116
28.3822
999.061
1027.08
1027.09
1027.09
1027.09
1027.09
1027.1
1027.1
1027.1
1027.1
1027.1
1027.1
1027.1
1027.1
1027.1
1027.1
1027.1
1027.1
1027.1
1027.1
1027.1
1027.1
1027.1
1027.1
1027.1
1027.1
1027.1
1027.1
1027.1
1027.1
1027.1
1027.1
1027.1
1027.1
1027.1
1027.1
1.16179
1.16163
1.16176
1.16189
1.16312
1.16484
1.16697
1.168
1.16832
1.1686
1.16873
1.16884
1.1689
1.16891
1.16892
1.16892
1.16892
1.16891
1.16891
1.16891
1.16891
1.16891
1.16892
1.16892
1.16892
1.16892
1.16892
1.16892
1.16893
1.16893
1.16893
1.16893
1.16893
1.16893
1.16894
1.16894
1.16894
1.16894
1.16894
1.16895
1.16895
1.16895
1.16897
1.16908
1.16967
1.17164
1.17681
1.18621
1.1999
1.22032
1.24001
1.25609
1.27272
1.30705
1.31102
1.3087
1.29524
1.31709
1.47158
19.8432
963.494
1026.82
1027.09
1027.09
1027.09
1027.1
1027.1
1027.1
1027.1
1027.1
1027.1
1027.1
1027.1
1027.1
1027.1
1027.1
1027.1
1027.1
1027.1
1027.1
1027.1
1027.1
1027.1
1027.1
1027.1
1027.1
1027.1
1027.1
1027.1
1027.1
1027.1
1027.1
1027.1
1027.1
1027.1
1027.1
1.16151
1.16139
1.1614
1.1617
1.16243
1.16396
1.16622
1.1679
1.16842
1.16864
1.16872
1.16881
1.16887
1.16891
1.16892
1.16892
1.16892
1.16892
1.16892
1.16892
1.16892
1.16892
1.16892
1.16892
1.16893
1.16893
1.16893
1.16893
1.16893
1.16893
1.16893
1.16893
1.16894
1.16894
1.16894
1.16894
1.16894
1.16894
1.16894
1.16895
1.16895
1.16895
1.16898
1.16913
1.16983
1.17229
1.17891
1.19012
1.20551
1.22676
1.24686
1.26247
1.27493
1.2982
1.298
1.29461
1.30114
1.39467
1.47833
31.9797
930.412
1026.25
1027.09
1027.09
1027.1
1027.1
1027.1
1027.1
1027.1
1027.1
1027.1
1027.1
1027.1
1027.1
1027.1
1027.1
1027.1
1027.1
1027.1
1027.1
1027.1
1027.1
1027.1
1027.1
1027.1
1027.1
1027.1
1027.1
1027.1
1027.1
1027.1
1027.1
1027.1
1027.1
1027.1
1027.1
1.1612
1.16138
1.16133
1.16174
1.16237
1.16348
1.16521
1.16748
1.16845
1.16866
1.16872
1.16879
1.16884
1.1689
1.16891
1.16892
1.16892
1.16892
1.16892
1.16892
1.16892
1.16892
1.16892
1.16892
1.16892
1.16893
1.16893
1.16893
1.16893
1.16893
1.16893
1.16893
1.16893
1.16894
1.16894
1.16894
1.16894
1.16894
1.16894
1.16895
1.16895
1.16896
1.169
1.16922
1.17003
1.17293
1.18125
1.19441
1.21089
1.23147
1.25001
1.26354
1.27333
1.28077
1.30165
1.32063
1.34606
1.41358
1.68221
50.3707
935.809
1026.16
1027.09
1027.09
1027.1
1027.1
1027.1
1027.1
1027.1
1027.1
1027.1
1027.1
1027.1
1027.1
1027.1
1027.1
1027.1
1027.1
1027.1
1027.1
1027.1
1027.1
1027.1
1027.1
1027.1
1027.1
1027.1
1027.1
1027.1
1027.1
1027.1
1027.1
1027.1
1027.1
1027.1
1027.1
1.16031
1.16062
1.16084
1.16117
1.16211
1.16345
1.16461
1.16732
1.16859
1.16875
1.16877
1.16881
1.16885
1.16891
1.16892
1.16892
1.16892
1.16892
1.16893
1.16893
1.16893
1.16893
1.16893
1.16893
1.16893
1.16893
1.16893
1.16894
1.16894
1.16894
1.16894
1.16894
1.16894
1.16894
1.16895
1.16895
1.16895
1.16895
1.16895
1.16895
1.16896
1.16897
1.16902
1.16928
1.17022
1.17322
1.18118
1.195
1.21252
1.23323
1.25083
1.26136
1.2676
1.27854
1.29107
1.303
1.28955
1.34955
2.25133
69.1524
958.527
1026.47
1027.09
1027.09
1027.1
1027.1
1027.1
1027.1
1027.1
1027.1
1027.1
1027.1
1027.1
1027.1
1027.1
1027.1
1027.1
1027.1
1027.1
1027.1
1027.1
1027.1
1027.1
1027.1
1027.1
1027.1
1027.1
1027.1
1027.1
1027.1
1027.1
1027.1
1027.1
1027.1
1027.1
1027.1
1.16328
1.16462
1.16532
1.16582
1.16622
1.16675
1.16751
1.16829
1.16862
1.16873
1.1688
1.16886
1.1689
1.16891
1.16892
1.16892
1.16892
1.16892
1.16892
1.16892
1.16892
1.16893
1.16893
1.16893
1.16893
1.16893
1.16893
1.16894
1.16894
1.16894
1.16894
1.16894
1.16894
1.16895
1.16895
1.16895
1.16895
1.16895
1.16895
1.16895
1.16895
1.16896
1.16896
1.16896
1.16947
1.17225
1.17817
1.18723
1.20242
1.22835
1.26255
1.28716
1.29196
1.29476
1.29361
1.2932
1.28695
1.32328
1.85101
39.613
975.234
1026.91
1027.09
1027.1
1027.1
1027.1
1027.1
1027.1
1027.1
1027.1
1027.1
1027.1
1027.1
1027.1
1027.1
1027.1
1027.1
1027.1
1027.1
1027.1
1027.1
1027.1
1027.1
1027.1
1027.1
1027.1
1027.1
1027.1
1027.1
1027.1
1027.1
1027.1
1027.1
1027.1
1027.1
1027.1
1.16257
1.16446
1.16584
1.16642
1.16703
1.16759
1.16795
1.16813
1.16832
1.16849
1.16865
1.16877
1.16886
1.1689
1.16891
1.16892
1.16892
1.16892
1.16892
1.16892
1.16892
1.16893
1.16893
1.16893
1.16893
1.16893
1.16893
1.16894
1.16894
1.16894
1.16894
1.16894
1.16894
1.16894
1.16894
1.16894
1.16895
1.16895
1.16895
1.16895
1.16895
1.16896
1.16897
1.16903
1.16924
1.17033
1.17454
1.18202
1.19036
1.20373
1.27138
1.29435
1.30057
1.30159
1.29936
1.2983
1.28692
1.33127
1.59325
53.3243
992.392
1027.08
1027.09
1027.1
1027.1
1027.1
1027.1
1027.1
1027.1
1027.1
1027.1
1027.1
1027.1
1027.1
1027.1
1027.1
1027.1
1027.1
1027.1
1027.1
1027.1
1027.1
1027.1
1027.1
1027.1
1027.1
1027.1
1027.1
1027.1
1027.1
1027.1
1027.1
1027.1
1027.1
1027.1
1027.1
1.16218
1.16382
1.16582
1.16635
1.16656
1.16684
1.16729
1.16763
1.16803
1.16833
1.16855
1.16873
1.16884
1.1689
1.16891
1.16891
1.16892
1.16892
1.16892
1.16892
1.16892
1.16892
1.16892
1.16893
1.16893
1.16893
1.16893
1.16893
1.16893
1.16893
1.16894
1.16894
1.16894
1.16894
1.16894
1.16894
1.16894
1.16894
1.16894
1.16895
1.16895
1.16896
1.16898
1.16906
1.16936
1.17005
1.17239
1.17906
1.1896
1.20611
1.27523
1.29615
1.31001
1.3021
1.29334
1.29378
1.28578
1.34143
1.51756
50.8494
981.763
1027.09
1027.09
1027.09
1027.1
1027.1
1027.1
1027.1
1027.1
1027.1
1027.1
1027.1
1027.1
1027.1
1027.1
1027.1
1027.1
1027.1
1027.1
1027.1
1027.1
1027.1
1027.1
1027.1
1027.1
1027.1
1027.1
1027.1
1027.1
1027.1
1027.1
1027.1
1027.1
1027.1
1027.1
1027.1
1.16191
1.16289
1.16489
1.16559
1.16595
1.16622
1.16681
1.16735
1.16787
1.16826
1.16851
1.16871
1.16883
1.16889
1.16891
1.16891
1.16891
1.16891
1.16892
1.16892
1.16892
1.16892
1.16892
1.16892
1.16892
1.16893
1.16893
1.16893
1.16893
1.16893
1.16893
1.16893
1.16893
1.16894
1.16894
1.16894
1.16894
1.16894
1.16894
1.16894
1.16895
1.16895
1.16897
1.16908
1.16947
1.17034
1.17196
1.17609
1.18438
1.20102
1.26472
1.29651
1.32259
1.31152
1.30064
1.29832
1.32068
1.3701
1.40417
111.188
1019.88
1027.03
1027.05
1027.07
1027.07
1027.08
1027.08
1027.08
1027.09
1027.09
1027.09
1027.1
1027.1
1027.1
1027.1
1027.1
1027.1
1027.1
1027.1
1027.1
1027.1
1027.1
1027.1
1027.1
1027.1
1027.1
1027.1
1027.1
1027.1
1027.1
1027.1
1027.1
1027.1
1027.1
1027.1
1027.1
1.16171
1.16208
1.16402
1.16494
1.16561
1.16612
1.16667
1.16727
1.16782
1.16823
1.1685
1.1687
1.16882
1.16889
1.16891
1.16891
1.16891
1.16891
1.16891
1.16892
1.16892
1.16892
1.16892
1.16892
1.16892
1.16892
1.16892
1.16893
1.16893
1.16893
1.16893
1.16893
1.16893
1.16893
1.16894
1.16894
1.16894
1.16894
1.16894
1.16894
1.16894
1.16895
1.16897
1.16911
1.16959
1.17054
1.1722
1.17534
1.18054
1.1889
1.24585
1.30341
1.32839
1.31977
1.32441
1.3427
1.35701
1.36375
1.35115
207.548
1015
1024.17
1024.6
1024.93
1025.1
1025.31
1025.59
1025.83
1026.07
1026.29
1026.53
1026.74
1026.9
1027
1027.06
1027.08
1027.09
1027.1
1027.1
1027.1
1027.1
1027.1
1027.1
1027.1
1027.1
1027.1
1027.1
1027.1
1027.1
1027.1
1027.1
1027.1
1027.1
1027.1
1027.1
1027.1
1.16161
1.16153
1.16324
1.16437
1.16533
1.16611
1.16671
1.16734
1.16786
1.16824
1.1685
1.1687
1.16882
1.16889
1.1689
1.16891
1.16891
1.16891
1.16891
1.16891
1.16892
1.16892
1.16892
1.16892
1.16892
1.16892
1.16892
1.16892
1.16893
1.16893
1.16893
1.16893
1.16893
1.16893
1.16893
1.16894
1.16894
1.16894
1.16894
1.16894
1.16894
1.16895
1.16897
1.16913
1.16969
1.17085
1.1727
1.17578
1.18042
1.18469
1.23297
1.32268
1.33375
1.3331
1.33756
1.33997
1.3333
1.30942
1.27626
404.03
1004.66
1011.3
1011.57
1011.87
1011.98
1012.24
1012.57
1013.03
1014.28
1015.56
1017.02
1018.44
1019.89
1021.28
1022.51
1023.52
1024.34
1025.01
1025.51
1025.94
1026.31
1026.56
1026.78
1026.94
1027.02
1027.07
1027.08
1027.09
1027.09
1027.1
1027.1
1027.1
1027.1
1027.1
1027.1
1027.1
1.16158
1.16126
1.16258
1.16377
1.16505
1.16611
1.16683
1.16743
1.1679
1.16825
1.1685
1.1687
1.16882
1.16889
1.1689
1.16891
1.16891
1.16891
1.16891
1.16891
1.16891
1.16892
1.16892
1.16892
1.16892
1.16892
1.16892
1.16892
1.16893
1.16893
1.16893
1.16893
1.16893
1.16893
1.16893
1.16894
1.16894
1.16894
1.16894
1.16894
1.16894
1.16895
1.16897
1.16914
1.16978
1.17119
1.17352
1.17731
1.18304
1.18767
1.23645
1.32934
1.33456
1.33003
1.32645
1.31598
1.30088
1.29111
1.27626
526.157
998.837
1001.88
1001.41
1001.01
1000.67
1000.32
999.868
999.238
998.548
997.991
997.663
997.533
997.524
997.55
997.91
998.647
999.582
1000.84
1002.28
1003.73
1005.1
1006.49
1008.13
1009.92
1012.22
1015.28
1018.19
1020.39
1022.11
1023.36
1024.64
1025.49
1025.83
1025.65
1026.34
1026.87
1.1616
1.16109
1.16201
1.16309
1.16472
1.16594
1.16687
1.16745
1.16791
1.16825
1.1685
1.1687
1.16882
1.16889
1.1689
1.16891
1.16891
1.16891
1.16891
1.16891
1.16892
1.16892
1.16892
1.16892
1.16892
1.16892
1.16892
1.16893
1.16893
1.16893
1.16893
1.16893
1.16893
1.16893
1.16894
1.16894
1.16894
1.16894
1.16894
1.16894
1.16894
1.16895
1.16897
1.16914
1.16987
1.17153
1.17428
1.1786
1.18505
1.19312
1.22579
1.3265
1.32867
1.31213
1.30319
1.29667
1.28944
1.28568
1.27626
376.309
1001.43
1008.28
1007.84
1007.82
1007.93
1007.57
1006.69
1005.62
1004.08
1002.14
1000.03
997.944
995.789
993.525
991.315
988.925
986.135
983.119
979.978
976.695
972.938
968.473
963.536
958.584
953.195
946.587
938.179
930.174
924.847
919.186
910.739
901.767
890.65
868.994
820.63
622.174
1.1616
1.16096
1.16155
1.16242
1.16418
1.16572
1.16687
1.16746
1.16791
1.16825
1.1685
1.16871
1.16883
1.16889
1.16891
1.16891
1.16891
1.16891
1.16891
1.16892
1.16892
1.16892
1.16892
1.16892
1.16892
1.16892
1.16893
1.16893
1.16893
1.16893
1.16893
1.16893
1.16893
1.16894
1.16894
1.16894
1.16894
1.16894
1.16894
1.16894
1.16894
1.16895
1.16898
1.16916
1.16994
1.17182
1.17497
1.1799
1.1872
1.19887
1.20828
1.26947
1.32889
1.31442
1.30257
1.29901
1.29865
1.29622
1.27626
138.283
1008.86
1023.84
1024.5
1025.57
1025.88
1025.92
1025.8
1025.68
1025.61
1025.59
1025.57
1025.38
1025.19
1025.04
1024.89
1024.56
1024.26
1023.88
1023.41
1022.76
1021.79
1020.48
1019.05
1017.65
1016.29
1015.57
1017.2
1020.95
1023.57
1025.43
1026.81
1026.86
1026.87
1026.88
1026.83
1026.69
1.16147
1.16085
1.16117
1.16179
1.16337
1.16523
1.16677
1.16746
1.16791
1.16826
1.1685
1.16872
1.16883
1.1689
1.16891
1.16891
1.16891
1.16891
1.16892
1.16892
1.16892
1.16892
1.16892
1.16892
1.16892
1.16893
1.16893
1.16893
1.16893
1.16893
1.16893
1.16893
1.16894
1.16894
1.16894
1.16894
1.16894
1.16894
1.16894
1.16894
1.16895
1.16895
1.16898
1.16918
1.17
1.17203
1.17543
1.18103
1.18929
1.20316
1.21602
1.2436
1.3118
1.32755
1.30774
1.30715
1.30651
1.31786
1.27626
101.303
1018.12
1026.93
1026.99
1027.05
1027.06
1027.06
1027.06
1027.06
1027.06
1027.05
1027.05
1027.05
1027.05
1027.05
1027.05
1027.02
1027
1026.99
1026.99
1026.99
1026.95
1026.89
1026.84
1026.81
1026.77
1026.76
1026.92
1027.04
1027.08
1027.09
1027.1
1027.1
1027.1
1027.1
1027.1
1027.1
1.16137
1.16079
1.16087
1.16126
1.16254
1.16452
1.16649
1.16739
1.16792
1.16828
1.16853
1.16873
1.16884
1.1689
1.16891
1.16891
1.16891
1.16892
1.16892
1.16892
1.16892
1.16892
1.16892
1.16892
1.16893
1.16893
1.16893
1.16893
1.16893
1.16893
1.16893
1.16894
1.16894
1.16894
1.16894
1.16894
1.16894
1.16894
1.16894
1.16895
1.16895
1.16895
1.16898
1.16919
1.17005
1.17225
1.17618
1.183
1.19275
1.20869
1.22397
1.2494
1.30106
1.33773
1.31867
1.3232
1.32099
1.32702
1.3535
44.2831
985.232
1027.09
1027.09
1027.09
1027.09
1027.1
1027.1
1027.1
1027.1
1027.1
1027.1
1027.1
1027.1
1027.1
1027.1
1027.1
1027.1
1027.1
1027.1
1027.1
1027.1
1027.1
1027.1
1027.1
1027.1
1027.1
1027.1
1027.1
1027.1
1027.1
1027.1
1027.1
1027.1
1027.1
1027.1
1027.1
1.1612
1.16071
1.16065
1.16077
1.16158
1.1634
1.16602
1.16734
1.16794
1.16831
1.16855
1.16875
1.16885
1.1689
1.16891
1.16891
1.16891
1.16892
1.16892
1.16892
1.16892
1.16892
1.16892
1.16892
1.16893
1.16893
1.16893
1.16893
1.16893
1.16893
1.16893
1.16894
1.16894
1.16894
1.16894
1.16894
1.16894
1.16894
1.16894
1.16895
1.16895
1.16895
1.16899
1.16921
1.17014
1.17259
1.17709
1.18498
1.19656
1.21442
1.23269
1.24932
1.29229
1.33701
1.33075
1.3334
1.33002
1.3515
1.42274
23.7635
989.084
1027.09
1027.09
1027.09
1027.09
1027.1
1027.1
1027.1
1027.1
1027.1
1027.1
1027.1
1027.1
1027.1
1027.1
1027.1
1027.1
1027.1
1027.1
1027.1
1027.1
1027.1
1027.1
1027.1
1027.1
1027.1
1027.1
1027.1
1027.1
1027.1
1027.1
1027.1
1027.1
1027.1
1027.1
1027.1
1.16107
1.16067
1.16055
1.16053
1.16074
1.1619
1.16489
1.16729
1.16798
1.16835
1.16858
1.16876
1.16885
1.1689
1.16891
1.16891
1.16891
1.16892
1.16892
1.16892
1.16892
1.16892
1.16892
1.16892
1.16893
1.16893
1.16893
1.16893
1.16893
1.16893
1.16893
1.16894
1.16894
1.16894
1.16894
1.16894
1.16894
1.16894
1.16894
1.16895
1.16895
1.16896
1.16899
1.16924
1.17024
1.1729
1.17801
1.18704
1.20096
1.22012
1.24037
1.25349
1.27971
1.32897
1.32799
1.33507
1.34801
1.45514
1.49491
25.905
994.122
1027.09
1027.09
1027.09
1027.09
1027.1
1027.1
1027.1
1027.1
1027.1
1027.1
1027.1
1027.1
1027.1
1027.1
1027.1
1027.1
1027.1
1027.1
1027.1
1027.1
1027.1
1027.1
1027.1
1027.1
1027.1
1027.1
1027.1
1027.1
1027.1
1027.1
1027.1
1027.1
1027.1
1027.1
1027.1
1.16094
1.16093
1.16057
1.16053
1.16049
1.16082
1.16293
1.16672
1.16804
1.16841
1.16861
1.16876
1.16884
1.1689
1.16891
1.16891
1.16891
1.16891
1.16892
1.16892
1.16892
1.16892
1.16892
1.16892
1.16892
1.16892
1.16893
1.16893
1.16893
1.16893
1.16893
1.16893
1.16893
1.16893
1.16893
1.16893
1.16894
1.16894
1.16894
1.16894
1.16894
1.16895
1.169
1.16928
1.17032
1.17305
1.17896
1.19005
1.20645
1.22602
1.24488
1.26236
1.27673
1.30396
1.31525
1.35718
1.40701
1.56022
1.48079
38.8172
992.471
1027.08
1027.09
1027.09
1027.1
1027.1
1027.1
1027.1
1027.1
1027.1
1027.1
1027.1
1027.1
1027.1
1027.1
1027.1
1027.1
1027.1
1027.1
1027.1
1027.1
1027.1
1027.1
1027.1
1027.1
1027.1
1027.1
1027.1
1027.1
1027.1
1027.1
1027.1
1027.1
1027.1
1027.1
1027.1
1.16087
1.16109
1.16097
1.16092
1.1607
1.16055
1.16112
1.16434
1.16801
1.16848
1.16864
1.16875
1.16882
1.16889
1.16891
1.16891
1.16891
1.16891
1.16892
1.16892
1.16892
1.16892
1.16892
1.16892
1.16892
1.16892
1.16892
1.16893
1.16893
1.16893
1.16893
1.16893
1.16893
1.16893
1.16893
1.16893
1.16893
1.16894
1.16894
1.16894
1.16894
1.16896
1.16901
1.1693
1.17028
1.17307
1.18015
1.19334
1.21112
1.23036
1.24584
1.25944
1.26987
1.28882
1.3314
1.38045
1.47816
1.57535
1.56201
57.6607
988.746
1027.05
1027.09
1027.09
1027.1
1027.1
1027.1
1027.1
1027.1
1027.1
1027.1
1027.1
1027.1
1027.1
1027.1
1027.1
1027.1
1027.1
1027.1
1027.1
1027.1
1027.1
1027.1
1027.1
1027.1
1027.1
1027.1
1027.1
1027.1
1027.1
1027.1
1027.1
1027.1
1027.1
1027.1
1027.1
1.16018
1.16064
1.16092
1.16118
1.16126
1.16069
1.16066
1.16286
1.16743
1.16854
1.16866
1.16876
1.16883
1.1689
1.16891
1.16892
1.16892
1.16892
1.16892
1.16892
1.16892
1.16893
1.16893
1.16893
1.16893
1.16893
1.16893
1.16893
1.16893
1.16893
1.16894
1.16894
1.16894
1.16894
1.16894
1.16894
1.16894
1.16895
1.16895
1.16895
1.16895
1.16896
1.16902
1.16928
1.17024
1.17307
1.18024
1.19353
1.2119
1.2327
1.24888
1.26054
1.26883
1.28863
1.32068
1.32609
1.32768
1.43534
1.97742
52.5608
968.859
1026.75
1027.09
1027.09
1027.1
1027.1
1027.1
1027.1
1027.1
1027.1
1027.1
1027.1
1027.1
1027.1
1027.1
1027.1
1027.1
1027.1
1027.1
1027.1
1027.1
1027.1
1027.1
1027.1
1027.1
1027.1
1027.1
1027.1
1027.1
1027.1
1027.1
1027.1
1027.1
1027.1
1027.1
1027.1
1.16225
1.1634
1.1648
1.16564
1.16613
1.16669
1.16745
1.16828
1.16862
1.16874
1.16882
1.16887
1.1689
1.16891
1.16891
1.16891
1.16891
1.16891
1.16891
1.16892
1.16892
1.16892
1.16892
1.16892
1.16892
1.16892
1.16893
1.16893
1.16893
1.16893
1.16893
1.16894
1.16894
1.16894
1.16894
1.16894
1.16894
1.16894
1.16895
1.16895
1.16895
1.16895
1.16895
1.16895
1.16944
1.17233
1.17865
1.18912
1.20609
1.23086
1.25212
1.27826
1.28521
1.28934
1.28868
1.28921
1.28433
1.30992
2.04897
39.1658
963.476
1026.62
1027.09
1027.1
1027.1
1027.1
1027.1
1027.1
1027.1
1027.1
1027.1
1027.1
1027.1
1027.1
1027.1
1027.1
1027.1
1027.1
1027.1
1027.1
1027.1
1027.1
1027.1
1027.1
1027.1
1027.1
1027.1
1027.1
1027.1
1027.1
1027.1
1027.1
1027.1
1027.1
1027.1
1027.1
1.16152
1.16214
1.1654
1.1661
1.16656
1.1672
1.16791
1.16832
1.16851
1.16862
1.16873
1.16882
1.16888
1.1689
1.16891
1.16891
1.16891
1.16891
1.16892
1.16892
1.16892
1.16892
1.16892
1.16892
1.16893
1.16893
1.16893
1.16893
1.16893
1.16893
1.16893
1.16894
1.16894
1.16894
1.16894
1.16894
1.16894
1.16894
1.16894
1.16894
1.16894
1.16895
1.16895
1.16898
1.1693
1.17146
1.17693
1.18628
1.20108
1.22384
1.24492
1.27602
1.28845
1.29409
1.29327
1.29385
1.28775
1.29972
1.5799
33.4032
990.368
1027.04
1027.09
1027.1
1027.1
1027.1
1027.1
1027.1
1027.1
1027.1
1027.1
1027.1
1027.1
1027.1
1027.1
1027.1
1027.1
1027.1
1027.1
1027.1
1027.1
1027.1
1027.1
1027.1
1027.1
1027.1
1027.1
1027.1
1027.1
1027.1
1027.1
1027.1
1027.1
1027.1
1027.1
1027.1
1.16141
1.16145
1.16561
1.16636
1.1668
1.16738
1.16789
1.16818
1.16834
1.16852
1.16867
1.16879
1.16886
1.16889
1.1689
1.1689
1.1689
1.16891
1.16891
1.16891
1.16891
1.16891
1.16891
1.16892
1.16892
1.16892
1.16892
1.16892
1.16892
1.16892
1.16893
1.16893
1.16893
1.16893
1.16893
1.16893
1.16893
1.16893
1.16893
1.16893
1.16894
1.16894
1.16896
1.16901
1.16924
1.17044
1.17402
1.18184
1.19595
1.21929
1.24734
1.2745
1.28967
1.29318
1.29096
1.29192
1.2838
1.29624
1.37253
63.2119
1014.87
1027.08
1027.09
1027.1
1027.1
1027.1
1027.1
1027.1
1027.1
1027.1
1027.1
1027.1
1027.1
1027.1
1027.1
1027.1
1027.1
1027.1
1027.1
1027.1
1027.1
1027.1
1027.1
1027.1
1027.1
1027.1
1027.1
1027.1
1027.1
1027.1
1027.1
1027.1
1027.1
1027.1
1027.1
1027.1
1.16136
1.16121
1.16503
1.16632
1.16678
1.16734
1.16777
1.168
1.16826
1.16848
1.16864
1.16877
1.16886
1.16889
1.1689
1.1689
1.1689
1.16891
1.16891
1.16891
1.16891
1.16891
1.16891
1.16891
1.16891
1.16891
1.16892
1.16892
1.16892
1.16892
1.16892
1.16892
1.16893
1.16893
1.16893
1.16893
1.16893
1.16893
1.16893
1.16893
1.16893
1.16894
1.16895
1.16902
1.16927
1.17019
1.17274
1.17867
1.19556
1.2176
1.23825
1.26543
1.29131
1.31268
1.31229
1.30683
1.29522
1.33084
1.39233
92.6605
1019.55
1027.08
1027.08
1027.09
1027.09
1027.09
1027.09
1027.09
1027.1
1027.1
1027.1
1027.1
1027.1
1027.1
1027.1
1027.1
1027.1
1027.1
1027.1
1027.1
1027.1
1027.1
1027.1
1027.1
1027.1
1027.1
1027.1
1027.1
1027.1
1027.1
1027.1
1027.1
1027.1
1027.1
1027.1
1027.1
1.16128
1.16119
1.16441
1.1663
1.16675
1.16727
1.16766
1.1679
1.16822
1.16845
1.16862
1.16875
1.16884
1.16888
1.1689
1.1689
1.1689
1.16891
1.16891
1.16891
1.16891
1.16891
1.16891
1.16891
1.16892
1.16892
1.16892
1.16892
1.16892
1.16892
1.16892
1.16892
1.16893
1.16893
1.16893
1.16893
1.16893
1.16893
1.16893
1.16893
1.16893
1.16894
1.16897
1.16905
1.16933
1.17016
1.17234
1.1783
1.19538
1.21421
1.22146
1.2625
1.31609
1.3295
1.32821
1.31811
1.34001
1.35439
1.35328
166.29
1015.78
1026.49
1026.54
1026.56
1026.56
1026.62
1026.7
1026.8
1026.91
1026.99
1027.04
1027.06
1027.06
1027.07
1027.08
1027.09
1027.09
1027.09
1027.09
1027.1
1027.1
1027.1
1027.1
1027.1
1027.1
1027.1
1027.1
1027.1
1027.1
1027.1
1027.1
1027.1
1027.1
1027.1
1027.1
1027.1
1.16121
1.161
1.16376
1.16607
1.16669
1.16726
1.16752
1.16785
1.16821
1.16844
1.1686
1.16872
1.16881
1.16887
1.16889
1.1689
1.1689
1.1689
1.1689
1.16891
1.16891
1.16891
1.16891
1.16891
1.16891
1.16892
1.16892
1.16892
1.16892
1.16892
1.16892
1.16892
1.16893
1.16893
1.16893
1.16893
1.16893
1.16893
1.16893
1.16894
1.16897
1.16904
1.16915
1.16929
1.16951
1.17004
1.17177
1.17862
1.19255
1.20439
1.21154
1.28955
1.33644
1.33194
1.32938
1.33204
1.33737
1.33563
1.29957
345.623
1018.08
1022.18
1022.72
1022.76
1022.49
1022.47
1022.81
1023.17
1023.63
1024.02
1024.33
1024.58
1024.78
1025
1025.23
1025.5
1025.78
1026.1
1026.42
1026.69
1026.9
1027.02
1027.08
1027.09
1027.09
1027.1
1027.1
1027.1
1027.1
1027.1
1027.1
1027.1
1027.1
1027.1
1027.1
1027.1
1.16116
1.16084
1.16286
1.16515
1.16664
1.16727
1.16752
1.16791
1.16826
1.16843
1.16858
1.16869
1.16878
1.16886
1.16889
1.16889
1.1689
1.1689
1.1689
1.1689
1.16891
1.16891
1.16891
1.16892
1.16892
1.16892
1.16892
1.16892
1.16892
1.16893
1.16893
1.16893
1.16893
1.16893
1.16893
1.16893
1.16893
1.16893
1.16894
1.16895
1.16904
1.16917
1.16923
1.16926
1.16935
1.16994
1.17195
1.17824
1.18619
1.19321
1.21432
1.30751
1.33695
1.33124
1.32935
1.3311
1.33009
1.3265
1.27626
538.252
1006.24
1009.25
1009.45
1008.99
1008.46
1008.21
1008.28
1009.07
1009.86
1010.67
1011.48
1012.13
1012.53
1012.8
1013.08
1013.56
1014.34
1015.35
1016.76
1018.45
1020.3
1022.23
1024.05
1025.59
1026.58
1026.97
1027.01
1027.03
1027.02
1027.05
1027.08
1027.09
1027.1
1027.1
1027.1
1027.1
1.16114
1.16083
1.162
1.16381
1.16634
1.16719
1.16747
1.16776
1.16811
1.16829
1.16854
1.16867
1.16876
1.16885
1.16889
1.16889
1.16889
1.1689
1.1689
1.1689
1.1689
1.1689
1.16891
1.16891
1.16891
1.16891
1.16891
1.16891
1.16892
1.16892
1.16892
1.16892
1.16892
1.16892
1.16892
1.16892
1.16892
1.16893