/*--------------------------------*- C++ -*----------------------------------*\
| =========                 |                                                 |
| \\      /  F ield         | OpenFOAM: The Open Source CFD Toolbox           |
|  \\    /   O peration     | Version:  2.3.0                                 |
|   \\  /    A nd           | Web:      www.OpenFOAM.org                      |
|    \\/     M anipulation  |                                                 |
\*---------------------------------------------------------------------------*/
FoamFile
{
    version     2.0;
    format      ascii;
    class       volVectorField;
    location    "27";
    object      U.airMean;
}
// * * * * * * * * * * * * * * * * * * * * * * * * * * * * * * * * * * * * * //

dimensions      [0 1 -1 0 0 0 0];

internalField   nonuniform List<vector> 
6144
(
(0.00844346 0.0199394 -0.00111149)
(0.00865033 0.00318419 -0.00160475)
(0.00482757 0.0012896 -0.00225595)
(0.00473837 -0.000897396 -0.00223875)
(0.00304727 -0.00217237 -0.00178598)
(0.00293261 -0.0014646 -0.00151005)
(0.00233564 -0.00158347 -0.00120512)
(0.00241901 -0.000485474 -0.00106301)
(0.00234296 0.000108517 -0.00117617)
(0.00236313 0.00127206 -0.00101088)
(0.00234349 0.00200455 -0.000861927)
(0.00248332 0.00253662 -0.000583654)
(0.00261201 0.00242479 -0.000507251)
(0.00274353 0.00211583 -0.000423524)
(0.00279904 0.00160503 -0.000559179)
(0.00285409 0.00122134 -0.000663341)
(0.002877 0.000855888 -0.000822842)
(0.00290304 0.000644016 -0.000921533)
(0.00291804 0.000455243 -0.00102484)
(0.0029274 0.000356646 -0.00108081)
(0.00292877 0.000273496 -0.00111976)
(0.0029254 0.000238174 -0.00113561)
(0.00291802 0.000211716 -0.00113988)
(0.00290854 0.000205477 -0.00113214)
(0.00289679 0.000203756 -0.00111617)
(0.00288361 0.000207547 -0.00109344)
(0.00286897 0.000213955 -0.00106552)
(0.00285297 0.000219863 -0.00103391)
(0.00283635 0.000234346 -0.000999063)
(0.00281794 0.000233121 -0.000960692)
(0.00280079 0.000262178 -0.00091689)
(0.00277626 0.000217373 -0.000861879)
(0.00275442 0.000268077 -0.000791653)
(0.00271971 0.000112807 -0.000701259)
(0.00269495 0.000176422 -0.000583803)
(0.00265325 -0.000212805 -0.000444201)
(0.00263454 -0.000177242 -0.000285137)
(0.00259778 -0.000938709 -0.000139935)
(0.00259624 -0.000913431 -3.83313e-05)
(0.00258176 -0.00203055 -4.59528e-05)
(0.00259154 -0.00176595 -0.000212855)
(0.00259612 -0.00285034 -0.000616831)
(0.00260593 -0.00163982 -0.00116635)
(0.00268937 -0.00198504 -0.00171326)
(0.00284521 0.000653673 -0.00213008)
(0.00327004 0.000153296 -0.00233558)
(0.00393666 0.00227908 -0.00282683)
(0.00405214 0.000673936 -0.00374227)
(0.00271873 0.00663151 -0.00503035)
(0.0035224 0.00991278 -0.00715253)
(0.010431 0.0192866 -0.00939301)
(0.0208515 0.00677694 -0.0101696)
(0.0297453 0.00128283 -0.0113421)
(0.0322327 -0.0371826 -0.0114859)
(0.0316566 -0.0320374 -0.014717)
(0.0305207 -0.0785359 -0.0105907)
(0.0151123 -0.0385696 -0.0207335)
(0.012638 -0.0929205 0.015691)
(-0.028982 0.0249879 -0.0549094)
(0.0307919 0.107934 0.0414408)
(0.107128 0.321191 0.0404124)
(0.0460594 0.39279 -0.00497897)
(0.0454036 -0.0794659 0.00355127)
(0.0490132 -0.163411 0.00616774)
(0.0396758 -0.171269 0.00574229)
(0.0330066 -0.162931 0.00536449)
(0.027062 -0.164487 0.00439023)
(0.0225958 -0.158309 0.00354172)
(0.0197726 -0.157888 0.00340616)
(0.0179877 -0.151265 0.00358889)
(0.0168343 -0.149606 0.00416693)
(0.0155679 -0.143872 0.004435)
(0.0137842 -0.139628 0.00491375)
(0.0111174 -0.132176 0.00491498)
(0.00735425 -0.124129 0.00498487)
(0.00463246 -0.112864 0.00448791)
(0.0031759 -0.101816 0.0034079)
(0.0014246 -0.0895147 0.00231815)
(-0.00069209 -0.0747282 0.00212109)
(2.15364e-05 -0.059194 0.00210597)
(0.0029168 -0.0468369 0.00184522)
(0.00501677 -0.0369931 0.00187819)
(0.00593374 -0.0308394 0.0032579)
(0.00509493 -0.0273924 0.00369326)
(0.00457953 -0.0230651 0.00305636)
(0.00407521 -0.0186102 0.00231974)
(0.00334516 -0.0134835 0.00188136)
(0.00229743 -0.00708963 0.000935623)
(0.000830966 -0.00027599 -0.000144479)
(-0.000519157 0.00925531 -0.00186561)
(0.000859217 0.0185406 -0.00241994)
(0.00218064 0.0257686 -0.00163093)
(0.00269592 0.0307192 0.00128735)
(0.00353863 0.0319884 0.00512034)
(0.00586389 0.0288566 0.00778988)
(0.00754424 0.0183585 0.0118517)
(0.0171032 0.0226216 0.00249806)
(0.0178777 0.0105393 0.00217039)
(0.0106218 0.00769412 0.000213018)
(0.0108795 0.00545947 0.00100654)
(0.00662859 0.00198771 0.00148429)
(0.00627894 0.0016647 0.00182368)
(0.00437104 0.000154947 0.0021368)
(0.00430949 0.00121149 0.00191893)
(0.00397157 0.00161507 0.0016925)
(0.00414826 0.00282385 0.00171162)
(0.00426181 0.00329877 0.00175986)
(0.00473451 0.00369317 0.00208497)
(0.00504585 0.00336421 0.00220939)
(0.00537563 0.00300475 0.0023247)
(0.00546055 0.00237269 0.00225777)
(0.00556458 0.00190701 0.00221126)
(0.00556372 0.00143112 0.00211541)
(0.00559682 0.00114712 0.00206288)
(0.00560264 0.000886897 0.00198612)
(0.00560873 0.000743042 0.00195377)
(0.00559637 0.000620603 0.0019315)
(0.00557817 0.000561105 0.00193397)
(0.00555209 0.00051642 0.00194688)
(0.00552238 0.000499344 0.00197311)
(0.00548946 0.000490114 0.00200606)
(0.00545446 0.000489773 0.00204478)
(0.00541737 0.000493242 0.0020869)
(0.00537744 0.000496645 0.00213225)
(0.00533575 0.000507106 0.00218027)
(0.00529194 0.000500673 0.00222539)
(0.00525425 0.000520676 0.00226906)
(0.00520376 0.000455465 0.00231794)
(0.00516878 0.000489737 0.00237464)
(0.00511119 0.000288039 0.00243802)
(0.00509736 0.000337476 0.00251746)
(0.00505109 -0.000126097 0.0026026)
(0.0050845 -7.1657e-05 0.00270156)
(0.00506661 -0.000924896 0.00278435)
(0.00514521 -0.000803547 0.00284453)
(0.00513664 -0.00203614 0.00282483)
(0.00516449 -0.00158711 0.00269767)
(0.0050935 -0.00285738 0.00231742)
(0.00505119 -0.00141785 0.00162323)
(0.00490739 -0.00214497 0.000855239)
(0.00510701 0.000592543 0.000377773)
(0.00596616 -0.000566512 0.000201096)
(0.00657311 0.00213688 -0.000658244)
(0.00560051 0.00238054 -0.00189452)
(0.00432502 0.0092915 -0.00251489)
(0.00713685 0.00750089 -0.00335948)
(0.0220746 0.00815177 -0.0038043)
(0.0381233 -0.00971289 -0.00360286)
(0.0545593 -0.0121753 -0.00103565)
(0.0587066 -0.0449809 0.00159063)
(0.0547641 -0.0342764 0.00477032)
(0.0573362 -0.0949522 0.0137961)
(0.0187293 -0.0520292 0.0101979)
(0.00973912 -0.161511 0.0402532)
(-0.0755948 0.0399925 -0.0878173)
(0.0205778 0.0467531 0.0253625)
(0.117351 0.348525 0.0847618)
(0.0241819 0.426902 0.00446021)
(0.0217722 -0.0654973 0.0101305)
(0.0245033 -0.0239869 0.0142631)
(0.0133595 -0.0448142 0.0140677)
(0.00648778 -0.0315526 0.0116992)
(0.00336064 -0.0358958 0.00966995)
(0.00376619 -0.0316586 0.0101288)
(0.00537252 -0.0335177 0.0109989)
(0.00522811 -0.0301968 0.0101397)
(0.00377509 -0.0320776 0.0112614)
(0.0016977 -0.0317021 0.0121912)
(-0.000260078 -0.035483 0.0121795)
(-0.00288665 -0.036896 0.0103055)
(-0.00505169 -0.0383113 0.00808202)
(-0.00576976 -0.0367512 0.00712513)
(-0.00600674 -0.03399 0.00588499)
(-0.00848474 -0.0289165 0.00625338)
(-0.0102716 -0.0229484 0.00609887)
(-0.0080114 -0.0166689 0.00638481)
(-0.00514642 -0.0109069 0.00640003)
(-0.00256619 -0.00481201 0.0077368)
(-0.000825873 -0.00325529 0.0102)
(-0.00135118 -0.00395872 0.0108347)
(-0.00287177 -0.00356381 0.0099317)
(-0.00310032 -0.00298548 0.00972971)
(-0.00329173 -0.0017135 0.00900979)
(-0.00394477 0.000832479 0.00747029)
(-0.00419057 0.00345562 0.00569462)
(-0.00405784 0.00665752 0.00323519)
(-0.00280399 0.0103886 0.0011495)
(-0.000497941 0.0154411 -0.00101301)
(0.00110098 0.0222642 0.00064214)
(0.00347326 0.0249879 0.00623208)
(0.00637763 0.0234504 0.0111514)
(0.00810313 0.0150209 0.0161045)
(0.0205411 0.0226493 0.00361636)
(0.0221466 0.0138765 0.00340219)
(0.0137493 0.0103418 0.00111297)
(0.0144101 0.00962781 0.00195017)
(0.00845883 0.00515532 0.00233557)
(0.0076487 0.00441866 0.00281547)
(0.00421531 0.0017533 0.00336644)
(0.00390075 0.00255933 0.00324716)
(0.00328093 0.00261915 0.00309734)
(0.00371615 0.00362003 0.00316745)
(0.00385999 0.00362347 0.00317121)
(0.00460901 0.0039033 0.00341613)
(0.00497981 0.00348752 0.00352365)
(0.00541707 0.00326243 0.00363886)
(0.00550916 0.00269568 0.00360796)
(0.00562779 0.00230109 0.00360633)
(0.00556244 0.00181899 0.00356746)
(0.00556022 0.00152022 0.0035676)
(0.00548774 0.00122187 0.00356349)
(0.00544653 0.00105409 0.00358218)
(0.00538033 0.000903142 0.00360058)
(0.00532421 0.000823517 0.0036306)
(0.0052635 0.000761898 0.00366128)
(0.00520667 0.000733301 0.00369697)
(0.00515045 0.00071598 0.00373371)
(0.0050963 0.000710298 0.00377173)
(0.00504259 0.00070877 0.00380983)
(0.00498826 0.000706054 0.00384841)
(0.00493397 0.000704243 0.00388755)
(0.00487654 0.00068072 0.00392806)
(0.00482445 0.000675325 0.0039709)
(0.0047604 0.000589143 0.00401548)
(0.00471832 0.000591168 0.00406332)
(0.00464978 0.000377586 0.00411203)
(0.00464408 0.000416 0.00416715)
(0.00459989 -2.8652e-06 0.00421961)
(0.00466664 0.000124907 0.00427744)
(0.0046615 -0.000555774 0.00431603)
(0.00479479 -0.000206708 0.00433742)
(0.00480583 -0.00110547 0.00429959)
(0.0049234 -0.000296569 0.00419116)
(0.00481607 -0.00131301 0.00397174)
(0.00471129 0.000189127 0.00362647)
(0.00454777 -0.000920126 0.00316854)
(0.00489546 0.00113922 0.00275557)
(0.00579269 -0.000564843 0.0024613)
(0.00608935 0.00257162 0.00162033)
(0.00522202 0.00184158 0.00039679)
(0.00556184 0.00719318 1.60944e-05)
(0.0141303 0.000282695 -0.000290673)
(0.0353032 -0.000773655 0.000180732)
(0.0578999 -0.0159085 0.00153972)
(0.0726051 -0.0118261 0.00579398)
(0.079506 -0.0365759 0.00815698)
(0.078814 -0.0190104 0.0171043)
(0.0829388 -0.0850932 0.0281552)
(0.0310017 -0.027284 0.0372821)
(0.0369543 -0.184083 0.0731327)
(-0.0834972 0.078148 -0.0702036)
(0.046761 0.023293 -0.00182537)
(0.161007 0.37355 0.105087)
(0.0692048 0.459052 0.0300472)
(0.0620356 0.0131408 0.0267888)
(0.0430795 0.0826078 0.0132435)
(0.0287417 0.0497054 0.013041)
(0.0190885 0.0665789 0.0127497)
(0.0171492 0.0549362 0.0141385)
(0.0142319 0.0560024 0.0124185)
(0.0149751 0.0511643 0.0108482)
(0.0142613 0.0435904 0.011595)
(0.0125483 0.0261097 0.0126281)
(0.0100351 0.0135013 0.0127881)
(0.00764716 0.00390212 0.0112658)
(0.0047378 0.00172117 0.00913919)
(0.00162367 3.1368e-05 0.00673494)
(-0.00202223 0.00164075 0.00541245)
(-0.00542713 0.00363053 0.00594658)
(-0.00786774 0.00562646 0.0073344)
(-0.00958577 0.00633433 0.00773062)
(-0.00924421 0.00735689 0.00797963)
(-0.00762439 0.00980208 0.00737171)
(-0.00475249 0.0118789 0.00911346)
(-0.0024114 0.0116806 0.0130802)
(-0.00502155 0.0103877 0.0136151)
(-0.00771584 0.00879455 0.0125269)
(-0.00863295 0.00831236 0.0121681)
(-0.00821405 0.00955381 0.0103062)
(-0.00776991 0.0110008 0.0075858)
(-0.00684659 0.0133256 0.00605457)
(-0.00556356 0.0154108 0.00423314)
(-0.00345831 0.0178147 0.0030219)
(-0.0022655 0.0195898 0.00292253)
(8.48588e-05 0.0219628 0.00463794)
(0.00307723 0.0223548 0.00892455)
(0.00488532 0.0198357 0.0137396)
(0.00457121 0.0115208 0.0179899)
(0.0219426 0.0227235 0.00388516)
(0.0252976 0.0161052 0.00395661)
(0.0153014 0.0111621 0.000796779)
(0.017473 0.0121387 0.00125377)
(0.0109089 0.00687412 0.00117101)
(0.0102767 0.00674939 0.00185687)
(0.0046131 0.00228136 0.00275389)
(0.00350334 0.00276118 0.00284815)
(0.00221298 0.00214945 0.0029993)
(0.00296975 0.00349917 0.00322582)
(0.00313039 0.00323835 0.00333112)
(0.0038742 0.00365278 0.00372045)
(0.0041638 0.00332617 0.00389211)
(0.00460339 0.00331598 0.00404232)
(0.00468907 0.00283921 0.00401153)
(0.00481541 0.0025491 0.00402041)
(0.00472389 0.00207486 0.00399072)
(0.00470701 0.00178875 0.00400566)
(0.00460176 0.00146655 0.00401141)
(0.00453857 0.0012803 0.00404002)
(0.00444785 0.00110466 0.00406658)
(0.00437144 0.00100825 0.00410374)
(0.00428905 0.00093049 0.00413951)
(0.00421427 0.000890292 0.00417861)
(0.00414277 0.000864274 0.00421753)
(0.00407584 0.000852828 0.00425722)
(0.00401227 0.000846125 0.00429672)
(0.00395126 0.00083921 0.00433598)
(0.00389318 0.000830876 0.00437495)
(0.00383746 0.000802643 0.00441428)
(0.00379145 0.000785931 0.00445471)
(0.00373894 0.000698111 0.00449618)
(0.00371439 0.000692078 0.00453806)
(0.00366694 0.000497965 0.00457726)
(0.003691 0.000556342 0.00461416)
(0.0036645 0.000209491 0.00464025)
(0.00375872 0.000426445 0.00465659)
(0.00374346 -8.80232e-05 0.00464296)
(0.00387968 0.000469969 0.0046001)
(0.00385302 -0.00014244 0.00450787)
(0.004013 0.000986269 0.00437442)
(0.00400771 0.000194002 0.00420916)
(0.00419563 0.0016343 0.0040313)
(0.00413669 -8.36877e-07 0.00388072)
(0.00428687 0.00150548 0.0038042)
(0.00470319 -0.000672108 0.00367238)
(0.00523551 0.00229358 0.00303709)
(0.00503255 0.000165627 0.00222781)
(0.00763967 0.00297797 0.00227444)
(0.0181952 -0.00680225 0.00134665)
(0.041294 -0.00630055 0.00252966)
(0.0644448 -0.0120877 0.00835403)
(0.0792 0.00120976 0.0150883)
(0.0853627 -0.0120274 0.0197647)
(0.0837436 0.0178372 0.0353818)
(0.0848086 -0.0505514 0.0481594)
(0.0318978 0.0471328 0.0916963)
(0.061803 -0.203035 0.12839)
(-0.10142 0.195846 -0.037763)
(0.0479213 -0.0370854 0.0228885)
(0.14186 0.446916 0.108597)
(0.0434176 0.568908 0.0217007)
(0.026326 0.391915 0.0185343)
(0.00553977 0.440619 0.00335201)
(0.00467128 0.384297 0.0109562)
(0.00079682 0.362886 0.0095031)
(0.00246334 0.329234 0.00978494)
(0.00218977 0.304365 0.00857622)
(0.00490564 0.276446 0.00819317)
(0.00572691 0.257639 0.00815264)
(0.00551452 0.228363 0.00775184)
(0.00401905 0.202996 0.00539782)
(0.00207688 0.176555 0.00328592)
(-0.000596311 0.15343 0.00219247)
(-0.00238023 0.132586 0.00235544)
(-0.00543084 0.117181 0.00416279)
(-0.0088516 0.105514 0.006106)
(-0.0115474 0.090331 0.00826147)
(-0.0130178 0.0709072 0.00924485)
(-0.0128199 0.0541481 0.00897005)
(-0.0118069 0.0464232 0.0103069)
(-0.0119662 0.044237 0.0112736)
(-0.0123547 0.0421281 0.0133913)
(-0.0128487 0.0393809 0.0136117)
(-0.0152026 0.0404311 0.0125849)
(-0.0160866 0.0413261 0.0108485)
(-0.014323 0.0439631 0.00710175)
(-0.0126093 0.044352 0.00540883)
(-0.0108398 0.0409207 0.00444571)
(-0.00830396 0.0360739 0.00263084)
(-0.00621845 0.0321149 0.00294436)
(-0.00388076 0.0290538 0.00454063)
(-0.00166271 0.0269353 0.00739469)
(0.00103155 0.0236986 0.0125503)
(0.000636274 0.0196139 0.016184)
(-0.00200865 0.0107685 0.0188027)
(0.0219652 0.0227773 0.00442672)
(0.0274569 0.0186896 0.0050195)
(0.016156 0.0114183 0.000901228)
(0.0196066 0.0137705 0.00141163)
(0.0129249 0.00706231 0.000232915)
(0.0133242 0.00840749 0.000688039)
(0.006484 0.00297766 0.000981456)
(0.00429226 0.00343851 0.00173951)
(0.00125312 0.00113541 0.00228575)
(0.00167078 0.00257894 0.00280315)
(0.00171682 0.00213032 0.0030399)
(0.00231863 0.00293326 0.00367049)
(0.00242004 0.00282928 0.00390347)
(0.00283622 0.00311018 0.00410785)
(0.00290353 0.00276154 0.00405665)
(0.00300025 0.00258149 0.00408106)
(0.00283985 0.00214069 0.00404657)
(0.0027477 0.00189768 0.00406828)
(0.00256677 0.00158438 0.00406493)
(0.00244639 0.00140808 0.00408308)
(0.00230493 0.00122148 0.00409116)
(0.00219244 0.00111076 0.00411094)
(0.00208346 0.00101679 0.00412957)
(0.00199092 0.000964422 0.00415347)
(0.00190855 0.000927733 0.00417819)
(0.00183603 0.000907585 0.0042051)
(0.00177039 0.000894281 0.0042322)
(0.00171163 0.000882449 0.00426006)
(0.00165964 0.000868139 0.00428866)
(0.00161338 0.000837699 0.00431703)
(0.00157727 0.000816979 0.00434446)
(0.00153708 0.000740566 0.00436978)
(0.00152217 0.000743448 0.00439322)
(0.00148393 0.000591461 0.00441014)
(0.00152032 0.000689826 0.00442163)
(0.00150617 0.000436759 0.0044133)
(0.00161749 0.000746685 0.00438579)
(0.00159354 0.000400778 0.00431062)
(0.00172235 0.00112385 0.00419728)
(0.00164993 0.000729265 0.00403578)
(0.0018893 0.00199229 0.00388902)
(0.00207792 0.00125193 0.00380455)
(0.00266159 0.00255324 0.00379189)
(0.00282307 0.000604798 0.00384842)
(0.00297657 0.00175173 0.00395385)
(0.00316848 -0.000847884 0.00395926)
(0.00380963 0.00172457 0.00377282)
(0.0048585 -0.00112073 0.00395894)
(0.00967971 -0.000215034 0.00434471)
(0.0221195 -0.0112931 0.00393076)
(0.041644 -0.00586185 0.00719055)
(0.0614535 -0.00121847 0.0180121)
(0.0734582 0.0231975 0.0249147)
(0.0772743 0.0194633 0.0284595)
(0.071621 0.0550639 0.0504161)
(0.0689481 -0.00176303 0.063001)
(0.0447066 0.117619 0.110328)
(0.0747756 -0.158806 0.133169)
(-0.078473 0.315384 -0.0050369)
(0.0390969 -0.0714945 0.0315275)
(0.131677 0.492809 0.114949)
(0.0378752 0.609498 0.0194953)
(0.0276961 0.526743 0.0181735)
(0.00620986 0.576546 0.000851218)
(0.00805742 0.565412 0.00765767)
(0.00228155 0.58105 0.00651852)
(0.00445588 0.582396 0.00737329)
(0.0045 0.588502 0.00566179)
(0.0070562 0.585314 0.00485175)
(0.00780061 0.58431 0.00385099)
(0.00812726 0.577619 0.00365151)
(0.00705723 0.573833 0.00348152)
(0.00567558 0.569902 0.0039981)
(0.00319033 0.563884 0.00499999)
(0.000742249 0.547012 0.00632083)
(-0.00249781 0.515833 0.00727174)
(-0.00554814 0.495548 0.00838343)
(-0.00844281 0.474429 0.00937966)
(-0.00993685 0.450367 0.0107399)
(-0.0106335 0.429065 0.0120294)
(-0.0118418 0.411253 0.0135274)
(-0.0130055 0.378949 0.0145569)
(-0.0134214 0.333681 0.0145852)
(-0.0142619 0.295086 0.0115654)
(-0.0137582 0.262224 0.0070425)
(-0.0126731 0.242787 0.00214748)
(-0.0100406 0.218652 0.000376304)
(-0.00742363 0.190992 -4.61535e-05)
(-0.00607058 0.169476 2.89811e-05)
(-0.00548106 0.149433 0.00159816)
(-0.00519962 0.130849 0.00425905)
(-0.00391714 0.106291 0.0069446)
(-0.00293988 0.0901566 0.0106453)
(-0.00199426 0.0647607 0.0151577)
(-0.00402408 0.0385985 0.0185569)
(-0.00933482 0.0189133 0.0186601)
(0.0204009 0.0225555 0.00579309)
(0.0289011 0.0216298 0.00657659)
(0.0160187 0.0114086 0.00182192)
(0.0207138 0.0152395 0.00300567)
(0.013923 0.00578013 0.000956539)
(0.0151816 0.0086528 0.000821356)
(0.00875274 0.00249576 -5.6548e-05)
(0.00603437 0.00408407 0.000609698)
(0.00162242 0.000514617 0.00146676)
(0.000873368 0.00175076 0.0022393)
(0.000428247 0.000625583 0.00258874)
(0.000785427 0.00172215 0.00343895)
(0.000926225 0.00186798 0.00380094)
(0.00145221 0.00259973 0.00417005)
(0.00162929 0.00238871 0.00421442)
(0.00175951 0.00236565 0.00432454)
(0.00157513 0.00198779 0.00430499)
(0.00144505 0.00184496 0.00433106)
(0.00122839 0.00159608 0.00429737)
(0.00108724 0.00148889 0.0042806)
(0.000934826 0.00134532 0.00424223)
(0.000819555 0.00126889 0.00421425)
(0.0007133 0.00119275 0.00418443)
(0.000626717 0.00115009 0.00416223)
(0.000555355 0.00111723 0.00414347)
(0.000498264 0.00109784 0.00413098)
(0.000453021 0.00108451 0.00412371)
(0.000419036 0.00107396 0.00412211)
(0.000394366 0.00106376 0.00412509)
(0.000378934 0.0010443 0.00413279)
(0.000374532 0.00103717 0.00414424)
(0.00037066 0.000991963 0.00415633)
(0.000391161 0.00102591 0.00417101)
(0.00039333 0.000943245 0.00417803)
(0.000461393 0.00111056 0.00417573)
(0.000474775 0.000985167 0.00414416)
(0.000582935 0.00140293 0.00407838)
(0.000529691 0.00121381 0.00394739)
(0.000611612 0.00199656 0.00376508)
(0.00052875 0.00163173 0.00355188)
(0.000816966 0.00274121 0.00339739)
(0.00111557 0.00188381 0.00337337)
(0.00189371 0.0030547 0.00352349)
(0.00208579 0.000969888 0.00376037)
(0.00216758 0.00195925 0.00390232)
(0.00191609 -0.000708616 0.00369869)
(0.00255062 0.00197646 0.00369615)
(0.00428687 -0.00176331 0.00513393)
(0.0111166 -0.00240491 0.00604987)
(0.0224161 -0.0124461 0.00734219)
(0.0353957 -0.0013486 0.0132797)
(0.0454097 0.00903439 0.0273905)
(0.0575055 0.0370702 0.037998)
(0.0611533 0.0381379 0.0430451)
(0.0565397 0.0754447 0.0616478)
(0.052421 0.0142379 0.0665027)
(0.0478016 0.119876 0.0903348)
(0.0620027 -0.128367 0.088265)
(-0.00897438 0.369405 0.0320169)
(0.0278919 -0.0834384 0.0347797)
(0.0771993 0.536976 0.103378)
(0.0115577 0.638502 0.0071481)
(0.00536354 0.596716 0.0102947)
(-0.0103417 0.650123 0.000762662)
(-0.00695467 0.646644 0.00902911)
(-0.0072783 0.660746 0.00869606)
(-0.0012319 0.659658 0.00939772)
(0.00285088 0.664866 0.00857617)
(0.00752802 0.664386 0.0086697)
(0.0106457 0.664917 0.00846178)
(0.0128019 0.657984 0.00854406)
(0.0128717 0.653188 0.0087737)
(0.0125686 0.650617 0.00922318)
(0.0105513 0.648074 0.0100044)
(0.00818058 0.642297 0.0109361)
(0.00481038 0.638467 0.0115506)
(0.00168948 0.631597 0.0120114)
(-0.00183207 0.623972 0.0121519)
(-0.00499854 0.61583 0.012406)
(-0.00737536 0.60495 0.012597)
(-0.00953999 0.594452 0.0118575)
(-0.011172 0.581085 0.0104715)
(-0.0117877 0.56562 0.00728643)
(-0.0118793 0.546953 0.00223575)
(-0.0117137 0.52431 -0.00177876)
(-0.010522 0.498878 -0.00334055)
(-0.00837118 0.464736 -0.00320613)
(-0.00612488 0.420453 -0.00154004)
(-0.00545175 0.382822 0.00172299)
(-0.00582216 0.352251 0.00515214)
(-0.00625512 0.313783 0.00768728)
(-0.00638958 0.272054 0.0105047)
(-0.00692894 0.246258 0.013935)
(-0.00804673 0.210687 0.0165815)
(-0.0110435 0.159904 0.0181715)
(-0.0144635 0.121595 0.0151874)
(0.0161337 0.0212102 0.00594367)
(0.0285112 0.0252019 0.00855327)
(0.0135259 0.0107383 0.0034846)
(0.0196924 0.0171249 0.00579934)
(0.0123826 0.00433832 0.00333591)
(0.0143984 0.00821943 0.00304061)
(0.00877298 0.000951329 0.00132106)
(0.00669681 0.00384728 0.000787771)
(0.00174549 -1.45885e-05 0.00128801)
(0.0001152 0.00157637 0.00216676)
(-0.0011848 -0.000330547 0.00248273)
(-0.00170708 0.000854876 0.0032904)
(-0.00208767 0.000990101 0.0036864)
(-0.00150236 0.00197744 0.00431297)
(-0.00126376 0.00181519 0.00455737)
(-0.00114652 0.0019907 0.00477955)
(-0.00143224 0.00171764 0.00476624)
(-0.00168136 0.00173055 0.00476379)
(-0.00199564 0.0015852 0.00467921)
(-0.00219148 0.00158379 0.00461888)
(-0.00237388 0.00151383 0.0045354)
(-0.00249684 0.001502 0.00447057)
(-0.00259707 0.00147022 0.00440851)
(-0.00266667 0.00146003 0.00436197)
(-0.00271415 0.00144735 0.0043243)
(-0.00274425 0.00143992 0.00429898)
(-0.00276269 0.00143325 0.00428324)
(-0.00276804 0.00142873 0.00427674)
(-0.00276199 0.00142639 0.00427807)
(-0.0027455 0.00142124 0.00428677)
(-0.00272177 0.00143491 0.00430333)
(-0.0026972 0.00142912 0.00432412)
(-0.0026629 0.00150671 0.00434818)
(-0.00265612 0.00150354 0.00436087)
(-0.00259525 0.00174033 0.00436431)
(-0.00258065 0.00171896 0.00433893)
(-0.00245327 0.00218444 0.00429597)
(-0.00243421 0.00203326 0.00420263)
(-0.00223504 0.00269313 0.00406707)
(-0.00218762 0.00213462 0.00386283)
(-0.0017951 0.00289931 0.00367672)
(-0.00148255 0.00175657 0.00354681)
(-0.000626394 0.00277687 0.00366148)
(-0.00035029 0.000791334 0.00387856)
(-0.000254727 0.0019369 0.00397676)
(-0.000766933 -0.000446272 0.00347298)
(0.000434081 0.00193273 0.00346606)
(0.0033024 -0.00326316 0.00529776)
(0.0106835 -0.00545563 0.00667738)
(0.0193423 -0.0100431 0.00946944)
(0.0215159 0.00909745 0.0181357)
(0.0247077 0.0249874 0.0315241)
(0.0312066 0.0549549 0.0441922)
(0.0357235 0.0639235 0.052887)
(0.0440454 0.09804 0.0671388)
(0.0461607 0.0390969 0.0696278)
(0.0610784 0.135909 0.0831519)
(0.0498081 -0.115703 0.0677122)
(0.0146084 0.351742 0.063769)
(0.0104685 -0.0646748 0.0337101)
(0.0161168 0.566663 0.0863589)
(-0.0133442 0.659656 0.00439149)
(-0.0132312 0.635109 0.00706799)
(-0.0181379 0.683613 0.00244128)
(-0.0115385 0.674905 0.0111562)
(-0.00704553 0.68612 0.0100386)
(-0.000767934 0.68281 0.0107471)
(0.00461838 0.686921 0.0105576)
(0.00877299 0.685279 0.0117592)
(0.0121619 0.684672 0.0122245)
(0.0147809 0.682415 0.0128893)
(0.0162159 0.676648 0.0135225)
(0.0167072 0.675292 0.0142557)
(0.0155039 0.671741 0.0144034)
(0.0137454 0.66706 0.0147353)
(0.0108663 0.65853 0.0140757)
(0.00784519 0.648039 0.0135545)
(0.00427289 0.637747 0.0127453)
(0.00136042 0.632292 0.012364)
(-0.000924721 0.627243 0.0119421)
(-0.00184313 0.621296 0.010461)
(-0.00235516 0.617625 0.00746684)
(-0.00248278 0.620892 0.00335986)
(-0.00336946 0.617112 -0.00146891)
(-0.00379884 0.608281 -0.00497784)
(-0.00390385 0.593259 -0.00714904)
(-0.00386552 0.580517 -0.00745601)
(-0.00369779 0.565551 -0.00630642)
(-0.00332199 0.538045 -0.00342183)
(-0.00343856 0.524158 0.000166374)
(-0.00457198 0.510002 0.0023918)
(-0.00701902 0.484199 0.00468782)
(-0.00889804 0.443234 0.00686196)
(-0.0120798 0.388967 0.00966595)
(-0.0171653 0.321426 0.0104681)
(-0.023521 0.262868 0.00623652)
(0.0113397 0.0158291 0.00458317)
(0.0269495 0.0284933 0.00911671)
(0.00934389 0.00945217 0.0043055)
(0.0169854 0.019579 0.00736519)
(0.00978998 0.00371612 0.00506458)
(0.0119903 0.00862753 0.00489973)
(0.00659462 -0.000169512 0.00333636)
(0.00554969 0.00374509 0.00207991)
(0.000865668 -0.000508387 0.00200174)
(-0.00085763 0.00165037 0.00272591)
(-0.00235685 -0.000692197 0.00314511)
(-0.003137 0.000451806 0.00389664)
(-0.00344949 -9.30436e-05 0.00452627)
(-0.00271698 0.000811054 0.00533395)
(-0.00241892 0.000603733 0.00587288)
(-0.00231747 0.00116314 0.00627994)
(-0.00258348 0.00115727 0.00642615)
(-0.00276481 0.00150346 0.00649417)
(-0.00300786 0.00154591 0.00644052)
(-0.0031318 0.00171645 0.00638551)
(-0.00325277 0.00174689 0.0063004)
(-0.00331683 0.00181229 0.00623531)
(-0.00336345 0.00182694 0.00617333)
(-0.00337932 0.00184689 0.00613142)
(-0.00337468 0.00185292 0.00610091)
(-0.00335241 0.00185874 0.00608463)
(-0.00332004 0.00186112 0.00607805)
(-0.00327767 0.00186523 0.00608087)
(-0.00322899 0.00187288 0.00609065)
(-0.0031743 0.00188336 0.00610743)
(-0.00311887 0.00191491 0.00612867)
(-0.00306768 0.0019411 0.0061515)
(-0.00301508 0.00205204 0.00617508)
(-0.0029902 0.00210911 0.00619049)
(-0.00290831 0.0023806 0.00619977)
(-0.00286705 0.00241161 0.00618413)
(-0.0027016 0.00285367 0.00615824)
(-0.00262261 0.00268802 0.00608838)
(-0.00230353 0.00324022 0.00599468)
(-0.00212242 0.00261289 0.00583332)
(-0.00164548 0.00319568 0.00565033)
(-0.00145233 0.00191211 0.00542677)
(-0.000865068 0.00272776 0.00536321)
(-0.000862624 0.000762211 0.00543646)
(-0.0011249 0.00202969 0.00543326)
(-0.00188232 -0.00058979 0.00479407)
(-5.90375e-05 0.000260454 0.00444576)
(0.00412264 -0.00597652 0.00538408)
(0.00879414 -0.00477886 0.00704018)
(0.00504573 0.00289699 0.0152286)
(-0.00313152 0.0267253 0.0262149)
(-0.00440397 0.0479704 0.0363017)
(0.00127398 0.0755661 0.0449987)
(0.0129149 0.092119 0.0525166)
(0.032944 0.125067 0.0672601)
(0.0549668 0.10132 0.0751384)
(0.0861121 0.168242 0.095068)
(0.0700855 -0.0366663 0.0882964)
(0.0510886 0.371199 0.0438933)
(-0.0267656 -0.073545 0.0263974)
(-0.0663661 0.593135 0.0503393)
(-0.0426 0.683536 -0.00889508)
(-0.0400738 0.648654 0.00138952)
(-0.0280144 0.689049 -0.00137126)
(-0.019664 0.675075 0.00580457)
(-0.00779426 0.682599 0.00357398)
(-0.0027048 0.677285 0.00403292)
(0.00405416 0.678222 0.00365856)
(0.00848695 0.680315 0.00529857)
(0.0130476 0.680822 0.00723622)
(0.0160433 0.680012 0.00860648)
(0.0183634 0.681815 0.0100208)
(0.020162 0.680833 0.0115421)
(0.0208445 0.676704 0.0129372)
(0.0207027 0.668968 0.0145811)
(0.0194885 0.663327 0.0155268)
(0.0177353 0.653912 0.0160878)
(0.0153238 0.642848 0.016177)
(0.0126232 0.629167 0.0155577)
(0.010619 0.616383 0.0143651)
(0.00930544 0.608701 0.0127748)
(0.00882883 0.601319 0.0105762)
(0.0079668 0.595047 0.00785298)
(0.00744424 0.58941 0.00476569)
(0.00691442 0.580174 0.00290527)
(0.00561367 0.563883 0.000810277)
(0.00507044 0.548321 -0.000649287)
(0.00471674 0.533667 -0.00167502)
(0.0044419 0.52396 -0.000122877)
(0.00464883 0.512336 0.00305162)
(0.00345021 0.496797 0.00635087)
(0.000749832 0.485198 0.00945912)
(-0.00213564 0.475653 0.009828)
(-0.00627903 0.469171 0.00690569)
(-0.0104407 0.459529 -0.00234281)
(-0.0157754 0.445209 -0.020622)
(0.000438532 0.0108608 -0.00509988)
(0.0242129 0.0307844 0.00646403)
(0.00316789 0.00853408 0.00146676)
(0.0129788 0.0227012 0.00485197)
(0.00574185 0.0044518 0.00320046)
(0.00808516 0.0103348 0.00311281)
(0.00297179 0.000408945 0.00180396)
(0.00282242 0.004785 0.000278805)
(-0.00102887 0.00019698 -0.000619203)
(-0.00278911 0.00229857 -0.000398292)
(-0.00462919 -0.00046898 -4.6021e-06)
(-0.00558778 0.000505152 0.000601936)
(-0.00653868 -0.000773041 0.00125048)
(-0.0062505 6.1797e-05 0.00198387)
(-0.00649045 -9.48614e-05 0.0026373)
(-0.00654691 0.00074877 0.00308396)
(-0.00697055 0.00087612 0.00338028)
(-0.00717806 0.00139408 0.00355852)
(-0.00745205 0.00151865 0.00363056)
(-0.00756963 0.00177686 0.00366741)
(-0.00767466 0.00186549 0.00366127)
(-0.00772215 0.00197835 0.00365734)
(-0.00774734 0.00202561 0.00364903)
(-0.00774588 0.00206592 0.00365179)
(-0.00772645 0.00208563 0.00366034)
(-0.0076913 0.00210179 0.00367676)
(-0.00764486 0.00211424 0.00369754)
(-0.00758707 0.00212846 0.00372232)
(-0.00752034 0.00214776 0.00374902)
(-0.00744943 0.00217416 0.00377645)
(-0.00738405 0.0022197 0.0038023)
(-0.0073257 0.00226619 0.00382532)
(-0.00728187 0.00238516 0.00384403)
(-0.00726666 0.00245192 0.00385816)
(-0.00719009 0.00270154 0.00386372)
(-0.00712668 0.00273028 0.00386107)
(-0.00691593 0.00314326 0.00384446)
(-0.00676043 0.0030209 0.00380201)
(-0.00640943 0.00359171 0.00370441)
(-0.00619565 0.00306191 0.00354921)
(-0.00568506 0.00368355 0.00332885)
(-0.00542351 0.00245287 0.00307444)
(-0.00474056 0.00303376 0.00293483)
(-0.0046983 0.00084579 0.00304508)
(-0.00470184 0.00163643 0.00292651)
(-0.00421969 -0.00141043 0.00202129)
(-0.000926464 -0.000778369 0.00204544)
(0.00121826 -0.00451999 0.00180023)
(-0.00392559 0.00286814 0.00317255)
(-0.0150634 0.0114915 0.0120815)
(-0.0293785 0.0252292 0.0246355)
(-0.0301203 0.0351294 0.0335762)
(-0.0249668 0.0559299 0.0369509)
(-0.0141279 0.06213 0.0372393)
(0.0015217 0.1035 0.0493785)
(0.0322664 0.0626291 0.0499901)
(0.0804902 0.16021 0.0723629)
(0.0900473 -0.0209836 0.0816429)
(0.139454 0.400983 0.0252405)
(-0.0477544 -0.101959 0.0214882)
(-0.127361 0.553635 0.0391082)
(-0.056743 0.663635 -0.00589165)
(-0.0498799 0.604048 0.00498671)
(-0.0239845 0.645745 0.00380997)
(-0.0181891 0.615445 0.00922768)
(-0.00491142 0.621736 0.00528309)
(-0.00309827 0.611218 0.00403806)
(0.00178752 0.61389 0.00233253)
(0.00405968 0.612977 0.00171682)
(0.00730322 0.614586 0.00140765)
(0.00839642 0.613248 0.0007088)
(0.00941037 0.61585 0.000772391)
(0.0101362 0.617384 0.000984097)
(0.0120546 0.62274 0.0023133)
(0.0141728 0.626861 0.00365608)
(0.0158689 0.629678 0.00550722)
(0.0161232 0.626862 0.00611899)
(0.0154865 0.624486 0.00630668)
(0.0144381 0.618126 0.00639145)
(0.0139708 0.61076 0.00589323)