/*--------------------------------*- C++ -*----------------------------------*\
| =========                 |                                                 |
| \\      /  F ield         | OpenFOAM: The Open Source CFD Toolbox           |
|  \\    /   O peration     | Version:  2.3.0                                 |
|   \\  /    A nd           | Web:      www.OpenFOAM.org                      |
|    \\/     M anipulation  |                                                 |
\*---------------------------------------------------------------------------*/
FoamFile
{
    version     2.0;
    format      ascii;
    class       volVectorField;
    location    "27";
    object      U.water;
}
// * * * * * * * * * * * * * * * * * * * * * * * * * * * * * * * * * * * * * //

dimensions      [0 1 -1 0 0 0 0];

internalField   nonuniform List<vector> 
6144
(
(0.0101035 0.0167075 -0.000291472)
(0.0103469 -0.00694279 -0.00234717)
(0.00499752 -0.00575804 -0.00344966)
(0.00478189 -0.00502443 -0.00310382)
(0.00321442 -0.00423798 -0.00274774)
(0.00302148 -0.00205858 -0.00250055)
(0.00223544 -0.00114606 -0.00176314)
(0.00219469 0.000629991 -0.000960323)
(0.00194508 0.000935503 -0.00021854)
(0.00171875 0.00195708 0.000300576)
(0.00145912 0.00281794 0.000654494)
(0.00146451 0.00342886 0.00103561)
(0.00161762 0.00343043 0.00120359)
(0.00178765 0.00288932 0.00143109)
(0.00189925 0.00201106 0.00136129)
(0.00198725 0.00116907 0.00119729)
(0.00203344 0.000431861 0.000910513)
(0.00208643 -5.91596e-05 0.000681565)
(0.00213163 -0.000430826 0.000417865)
(0.00216088 -0.000632612 0.000253532)
(0.00217197 -0.000759553 0.00014364)
(0.00216506 -0.000774444 9.22299e-05)
(0.00214891 -0.000755301 7.95368e-05)
(0.00212299 -0.00068899 0.000101317)
(0.00209019 -0.0006109 0.000148962)
(0.00205168 -0.000521601 0.000217274)
(0.00200685 -0.000431979 0.000310441)
(0.00195605 -0.000340899 0.000425223)
(0.00190157 -0.00024651 0.000550321)
(0.00184952 -0.00015534 0.000675872)
(0.00179174 -8.11978e-05 0.000811568)
(0.00172287 -3.06351e-05 0.000965619)
(0.00164082 -5.39707e-06 0.00114034)
(0.00154857 -1.59701e-05 0.00134818)
(0.00145495 -9.6275e-05 0.00160515)
(0.00136944 -0.000304132 0.00190674)
(0.00130294 -0.000692645 0.00222088)
(0.00125754 -0.00127515 0.00246164)
(0.00124622 -0.00198005 0.00252367)
(0.00126274 -0.00269976 0.00231776)
(0.00130388 -0.00316311 0.00174032)
(0.0014013 -0.00313229 0.00076565)
(0.00161435 -0.00226407 -0.000208105)
(0.00218762 -0.000877098 -0.000939519)
(0.00318164 -5.85373e-05 -0.00150573)
(0.00426911 -0.000791424 -0.00202646)
(0.00571209 -0.00220667 -0.00320105)
(0.00635071 -0.00317435 -0.00441554)
(0.000693017 0.00138238 -0.00460537)
(0.000202188 0.0181955 -0.00579927)
(0.034456 2.82775e-05 -0.0113419)
(0.0460157 -0.037422 -0.0133374)
(0.0357373 -0.0600675 -0.0155422)
(0.0295203 -0.087971 -0.0197782)
(0.0152079 -0.0730415 -0.0119751)
(0.0118375 -0.100769 -0.00369444)
(-0.00318774 -0.0587619 0.00458133)
(0.00617287 -0.130948 0.0329045)
(-0.0256003 -0.00908392 -0.0615007)
(0.0268746 -0.0257516 0.0530526)
(0.134474 -0.295871 0.0777275)
(0.0910895 -0.124393 0.0295864)
(0.0639787 -0.184603 0.00534826)
(0.0502403 -0.220055 -0.00124264)
(0.0378531 -0.222491 0.000764773)
(0.0270808 -0.222744 0.001035)
(0.0196341 -0.226381 0.000278289)
(0.015607 -0.227254 -0.00352054)
(0.0150802 -0.224717 -0.00437376)
(0.0148996 -0.22261 -0.00771166)
(0.0179972 -0.219139 -0.0097188)
(0.0201232 -0.211195 -0.0110706)
(0.0212773 -0.205136 -0.00799619)
(0.0223193 -0.189828 -0.0041819)
(0.0189236 -0.178514 0.0017838)
(0.0164899 -0.158384 0.00505163)
(0.00968369 -0.147535 0.00816012)
(0.0032654 -0.129853 0.0128073)
(0.000745083 -0.0999128 0.0104992)
(-0.000410131 -0.0729532 0.00912099)
(0.00035284 -0.0505883 0.0117438)
(0.000800242 -0.043456 0.0148733)
(-0.00426124 -0.042774 0.0153894)
(-0.00548109 -0.0372618 0.0149016)
(0.00195895 -0.0321906 0.0128383)
(0.00898097 -0.0353899 0.0113229)
(0.0092596 -0.0450849 0.011428)
(0.00422271 -0.0588473 0.00950317)
(0.00103242 -0.0673431 0.00821082)
(0.00152239 -0.0676603 0.0120816)
(0.00225325 -0.0637717 0.017645)
(0.00433983 -0.0565355 0.0191192)
(0.0101647 -0.0485348 0.0133357)
(0.00513292 -0.0406085 0.00302076)
(-0.00347553 -0.00836436 0.00318156)
(-0.00941608 0.00107533 0.024592)
(0.0205655 0.0170986 0.00239221)
(0.0214778 0.00253192 0.0010166)
(0.010476 0.00153991 -0.00304626)
(0.0105644 0.00286164 -0.00138583)
(0.00693841 0.000291115 9.39517e-05)
(0.00594937 0.000806082 0.00137175)
(0.0035863 -0.000654211 0.00234632)
(0.0030224 0.000863698 0.00256597)
(0.00246974 0.0014323 0.00271058)
(0.00209499 0.00321867 0.00295237)
(0.00198005 0.00412595 0.0032567)
(0.00224525 0.00470505 0.00372176)
(0.00274592 0.00454919 0.00393811)
(0.00325602 0.00400426 0.00411524)
(0.00351479 0.00303846 0.00412944)
(0.00366252 0.00211257 0.00409373)
(0.00366862 0.0012071 0.00401816)
(0.00370685 0.000566571 0.00394678)
(0.00375105 4.92513e-05 0.0038168)
(0.00378256 -0.000255599 0.00371758)
(0.00377711 -0.000468962 0.00365107)
(0.00373891 -0.000541625 0.00363836)
(0.00367952 -0.000561554 0.00366213)
(0.003601 -0.000518134 0.00371956)
(0.00351039 -0.000453239 0.00379922)
(0.0034092 -0.000369206 0.00389609)
(0.00329839 -0.000280104 0.00400514)
(0.00317712 -0.000188987 0.00412464)
(0.00304625 -9.77038e-05 0.00425013)
(0.00293195 -1.81431e-05 0.00433981)
(0.00282046 2.63502e-05 0.00442967)
(0.00269926 3.03427e-05 0.00452625)
(0.00256598 -6.67818e-06 0.00462554)
(0.0024323 -8.37463e-05 0.00472947)
(0.00232378 -0.000218316 0.00484642)
(0.00226994 -0.000448506 0.00497947)
(0.00228658 -0.000814873 0.00511657)
(0.00235566 -0.00132199 0.005216)
(0.00245052 -0.00189487 0.00523978)
(0.00252811 -0.00242704 0.0051644)
(0.00246288 -0.00268543 0.00494486)
(0.00245664 -0.00240108 0.0044407)
(0.00269498 -0.00128752 0.00351703)
(0.00358191 0.000195445 0.00276788)
(0.00582938 0.00147528 0.00230628)
(0.00841204 0.00197386 0.00170474)
(0.0101128 0.00295555 0.000678418)
(0.00871575 0.00667132 -8.30711e-05)
(0.0013569 0.0121786 -0.000268692)
(0.017528 0.0075821 -0.00639527)
(0.0700528 -0.0181293 -0.0192547)
(0.0872634 -0.0179566 -0.0209262)
(0.0685979 -0.0187455 -0.0219926)
(0.0438492 -0.0321795 -0.0212851)
(0.0145962 0.00562732 0.0156001)
(0.0319916 -0.0875718 0.0319943)
(-0.0241832 -0.0220814 0.0286274)
(-0.0282071 -0.145919 0.0362411)
(-0.119668 0.0416182 -0.122646)
(-0.034197 -0.0638627 -0.0134329)
(0.20245 -0.266097 0.130236)
(0.121509 -0.0415997 0.0700373)
(0.0663237 -0.129201 0.0201289)
(0.0556457 -0.125744 0.0292964)
(0.0339356 -0.133499 0.0316624)
(0.0159111 -0.1391 0.0262318)
(0.00704256 -0.141501 0.0200769)
(0.00368322 -0.140109 0.0149528)
(0.00575993 -0.136433 0.0130381)
(0.0121613 -0.130752 0.00537733)
(0.0244283 -0.106175 -0.00330968)
(0.0219648 -0.0783856 0.00166534)
(0.0158746 -0.0599509 0.0117661)
(0.0122753 -0.0486461 0.0207523)
(0.00752326 -0.0383567 0.0241947)
(0.00322367 -0.0207476 0.0215724)
(-0.00543242 0.00609305 0.010934)
(-0.0134528 0.0140217 0.00738535)
(-0.0167762 0.00819801 0.0138176)
(-0.014944 -0.0025159 0.0153875)
(-0.00665016 -0.0119613 0.018459)
(0.0020222 -0.0220123 0.0196481)
(0.00379512 -0.0330065 0.0191016)
(0.000489997 -0.0428009 0.0189454)
(0.00129189 -0.0519703 0.0183053)
(0.00145111 -0.0567836 0.016976)
(-0.00308083 -0.0623434 0.0136173)
(-0.00809113 -0.073753 0.00995964)
(-0.00961515 -0.0824756 0.0109918)
(-0.0087308 -0.0824106 0.0141302)
(-0.00765781 -0.0772661 0.0173967)
(-0.0117876 -0.0723938 0.0187455)
(-0.0213473 -0.0644434 0.0162761)
(-0.0218867 -0.0551299 0.00499961)
(-0.02292 -0.0198896 0.00284465)
(-0.0279411 -0.00369355 0.0243833)
(0.0246839 0.0197429 0.00376055)
(0.025082 0.00976809 0.0026528)
(0.0154884 0.00737145 -0.000363903)
(0.0137809 0.00822867 0.00185912)
(0.00865423 0.00459686 0.00273331)
(0.00630749 0.00385891 0.00335896)
(0.00270828 0.000906872 0.00357609)
(0.00151246 0.00199868 0.00340425)
(0.000546904 0.00271849 0.00325809)
(0.000542027 0.00423213 0.00370607)
(0.000598295 0.00448313 0.00410998)
(0.00119805 0.00478423 0.00449929)
(0.00182311 0.00450089 0.004657)
(0.00250483 0.00419447 0.0047504)
(0.00291792 0.00348313 0.00471464)
(0.00315078 0.00278307 0.00468562)
(0.00314144 0.00196562 0.00465541)
(0.00313046 0.00132922 0.00464409)
(0.00304305 0.000746739 0.00464952)
(0.00296717 0.000365092 0.00466058)
(0.00284666 6.37544e-05 0.00468672)
(0.00272754 -9.88736e-05 0.00473019)
(0.00260078 -0.000201343 0.00478258)
(0.00247195 -0.000225322 0.0048449)
(0.00234126 -0.000214713 0.00491156)
(0.00220812 -0.000174641 0.00497982)
(0.00206991 -0.000124599 0.00504929)
(0.00192643 -7.45219e-05 0.00512116)
(0.00177766 -4.02734e-05 0.00519701)
(0.00162222 -3.1584e-05 0.00528216)
(0.00146624 -5.35613e-05 0.00537598)
(0.00129714 -0.000111526 0.00547144)
(0.00110229 -0.000203607 0.00556322)
(0.00089592 -0.000317065 0.00565146)
(0.00073172 -0.000431485 0.00574091)
(0.000648979 -0.000547195 0.00583332)
(0.00065556 -0.000649597 0.00592247)
(0.000738246 -0.000711519 0.00598654)
(0.000843699 -0.000651658 0.00600987)
(0.000929808 -0.000388685 0.00599131)
(0.000933988 0.000181498 0.00594863)
(0.000839457 0.00100976 0.00591576)
(0.0010818 0.00205146 0.00584447)
(0.00234282 0.00268279 0.00541259)
(0.00492535 0.00321243 0.00465339)
(0.00769012 0.00467975 0.00432925)
(0.00921239 0.0078455 0.00425563)
(0.00792643 0.00943105 0.00453884)
(0.00345565 0.0121349 0.0066602)
(0.0355036 -0.0133489 -0.0051301)
(0.09247 0.0090936 -0.0239509)
(0.103394 0.0458471 -0.0040041)
(0.0906465 0.0461884 0.0154313)
(0.067581 0.0229956 0.0298025)
(0.0564686 0.0311325 0.0442673)
(0.0559076 -0.0905481 0.044684)
(-0.0334502 0.00135289 0.0534986)
(-0.0189522 -0.155975 0.036677)
(-0.119916 0.0742148 -0.166104)
(0.0524013 -0.0828063 -0.0852405)
(0.247322 -0.249884 0.138817)
(0.163356 -0.0181999 0.0886798)
(0.11527 -0.107439 0.0404905)
(0.0886949 -0.089983 0.0438697)
(0.046817 -0.100342 0.0326924)
(0.0240613 -0.108463 0.0231734)
(0.0230704 -0.106618 0.020935)
(0.0221944 -0.106559 0.0147618)
(0.0284378 -0.100783 0.00222051)
(0.028038 -0.0807782 -0.00412052)
(0.0254183 -0.0526348 0.000728977)
(0.0281605 -0.0468629 0.0063293)
(0.0311683 -0.034944 0.00925909)
(0.0266961 -0.0207828 0.0118758)
(0.0105281 -0.00539672 0.00300046)
(-0.00910137 0.007588 -0.0101092)
(-0.00263525 0.0271844 -0.0138995)
(0.0246195 0.0377427 0.00425878)
(0.0362053 0.0259313 0.0209083)
(0.0294922 0.00445887 0.0273656)
(0.0170984 -0.0207941 0.0336597)
(0.00682485 -0.0425178 0.0302161)
(-0.00225327 -0.0531996 0.0192418)
(-0.00736434 -0.0528536 0.0147302)
(-0.00704924 -0.051196 0.0133982)
(-0.00684035 -0.0525159 0.0104977)
(-0.00261052 -0.0572203 0.00865538)
(-0.00312048 -0.0692845 0.0112796)
(-0.00658099 -0.0775231 0.0151706)
(-0.00670992 -0.0768253 0.0158141)
(-0.00745022 -0.0715051 0.0158111)
(-0.0141381 -0.0645163 0.017319)
(-0.0222359 -0.0593939 0.0105444)
(-0.0333119 -0.0500426 4.77941e-05)
(-0.0454742 -0.0104457 0.00343911)
(-0.0499059 -0.00447377 0.024289)
(0.027069 0.0217996 0.00415225)
(0.0289815 0.0157602 0.00442248)
(0.0172131 0.0109983 0.00147343)
(0.0156981 0.0116765 0.00258613)
(0.00973129 0.00705471 0.00285372)
(0.00821822 0.00670039 0.0033726)
(0.00260478 0.00133331 0.00351209)
(0.000404258 0.00135823 0.00293551)
(-0.00100394 0.00144033 0.00279116)
(-0.000556134 0.0031143 0.00350296)
(-0.000443988 0.00323095 0.00422108)
(-6.42887e-05 0.00389208 0.00482036)
(0.000472477 0.00399689 0.00495592)
(0.00118675 0.00402036 0.00499746)
(0.00165135 0.00350152 0.00487704)
(0.00191887 0.0029521 0.00484317)
(0.00191153 0.0022342 0.00483206)
(0.00187205 0.0016893 0.00486184)
(0.00176248 0.00114998 0.00487777)
(0.00164169 0.000753535 0.00489479)
(0.00148891 0.000407273 0.00491869)
(0.0013294 0.000176003 0.00495446)
(0.00115075 1.17302e-06 0.00499584)
(0.000974321 -9.52321e-05 0.00504749)
(0.000801905 -0.000145634 0.00510621)
(0.000636043 -0.000158862 0.00517169)
(0.000474496 -0.000155451 0.00524203)
(0.000316856 -0.000145973 0.00531756)
(0.000164528 -0.000143661 0.00539841)
(2.20323e-05 -0.000159083 0.00548592)
(-0.000111947 -0.000196354 0.00557829)
(-0.000250736 -0.000250941 0.00566965)
(-0.000405699 -0.000312005 0.00575496)
(-0.000566476 -0.000362457 0.0058285)
(-0.000691004 -0.00038575 0.00588331)
(-0.000755796 -0.000372245 0.00592017)
(-0.000770505 -0.00025754 0.00592727)
(-0.000765381 3.42885e-06 0.0059048)
(-0.000779289 0.00048331 0.00585669)
(-0.00083903 0.00123033 0.00582575)
(-0.000962815 0.00231405 0.00583952)
(-0.000767521 0.00350116 0.00584095)
(0.000221284 0.00431254 0.00568412)
(0.00226736 0.00435034 0.00508387)
(0.00446595 0.00422436 0.00411217)
(0.00574173 0.00525981 0.00380523)
(0.0068762 0.00860512 0.00469634)
(0.00819222 0.00973011 0.00623497)
(0.0106545 0.0106655 0.00813041)
(0.030648 -0.0190236 -0.00558637)
(0.0736049 0.0341067 -0.0170684)
(0.103212 0.0714184 0.0118499)
(0.0926854 0.0837317 0.0430051)
(0.0672944 0.076056 0.0552774)
(0.0631262 0.0681503 0.056631)
(0.0352245 -0.0180276 0.0540763)
(-0.0912805 0.104742 0.106515)
(0.0388646 -0.225742 0.158605)
(-0.112155 0.206096 -0.153263)
(0.0510699 -0.207645 0.00923582)
(0.242346 -0.209541 0.149376)
(0.159486 0.0203609 0.0710443)
(0.120594 -0.0860331 0.0364053)
(0.0840103 -0.0553364 0.0310173)
(0.0319828 -0.0691733 0.0329443)
(0.0061003 -0.0697961 0.0310975)
(0.00332933 -0.0604999 0.0277309)
(0.000601247 -0.0552518 0.0108256)
(0.00660124 -0.0360462 -0.00924021)
(0.0232763 -0.0141257 -0.0180438)
(0.0374366 0.0155232 -0.0190986)
(0.0326203 0.0387576 -0.0152753)
(0.0244452 0.0524898 -0.00903012)
(0.0179565 0.0521831 -0.00990348)
(0.0136622 0.0489108 -0.0131457)
(0.0109559 0.0444856 -0.00252267)
(0.0118132 0.0274884 0.0288606)
(0.00897307 0.0104022 0.05585)
(0.00489005 -0.00936064 0.0675169)
(-0.00345752 -0.0245559 0.0590246)
(-0.0134048 -0.0314853 0.0412137)
(-0.0191746 -0.0386743 0.0218992)
(-0.0217607 -0.0354673 0.00644926)
(-0.0197215 -0.0333457 0.0053617)
(-0.0181708 -0.0284403 0.00818277)
(-0.0144958 -0.034007 0.00929353)
(-0.00227637 -0.0355139 0.00364698)
(-0.000601376 -0.0213121 0.00604267)
(-0.0079271 -0.0278206 0.0144098)
(-0.0181842 -0.0335459 0.0141139)
(-0.027059 -0.0384792 0.0117142)
(-0.0365727 -0.0391345 0.00592326)
(-0.0465218 -0.0306998 -0.00436866)
(-0.052236 -0.0139496 -0.00586729)
(-0.0527029 0.0115246 0.00205642)
(-0.0582052 -0.00110833 0.0186871)
(0.0278492 0.0225363 0.00466334)
(0.0322571 0.0202298 0.00672247)
(0.0193988 0.0127314 0.00340604)
(0.0175092 0.013409 0.00328627)
(0.0106178 0.00730332 0.00321622)
(0.0101253 0.00794035 0.00335509)
(0.0039801 0.00176668 0.00321946)
(0.000516894 0.00130145 0.00268693)
(-0.00248324 -0.000756236 0.00256194)
(-0.00221406 0.000974025 0.00332872)
(-0.00243794 0.00128373 0.00415831)
(-0.00233738 0.00275157 0.00495594)
(-0.00181658 0.00340742 0.00505099)
(-0.000937558 0.00382354 0.00504804)
(-0.000337463 0.0034814 0.00482417)
(-8.83146e-05 0.00293426 0.0047543)
(-0.000220953 0.00222509 0.00472487)
(-0.000436235 0.00172079 0.00477463)
(-0.000671365 0.00124802 0.00479635)
(-0.000871567 0.000885344 0.00480562)
(-0.00108143 0.000525545 0.00480194)
(-0.00127341 0.000244083 0.0048063)
(-0.00146336 1.07562e-05 0.00481826)
(-0.0016462 -0.000142002 0.0048396)
(-0.00181558 -0.000242899 0.00487243)
(-0.0019726 -0.000298773 0.00491812)
(-0.00212226 -0.000331646 0.00497266)
(-0.00226225 -0.000353888 0.00503519)
(-0.00239117 -0.000379335 0.00510277)
(-0.00250999 -0.000414107 0.00516881)
(-0.00262479 -0.000451488 0.00522866)
(-0.00274704 -0.000482535 0.00528029)
(-0.00289671 -0.000498933 0.0053211)
(-0.00306956 -0.000478009 0.00535133)
(-0.00320838 -0.00039771 0.0053579)
(-0.00328958 -0.00024316 0.0053273)
(-0.00333662 5.47051e-05 0.00524529)
(-0.003395 0.000587059 0.00512004)
(-0.00354335 0.00143926 0.00495189)
(-0.00381677 0.00258438 0.00482225)
(-0.00399015 0.00394235 0.00477062)
(-0.00354364 0.00503829 0.0046096)
(-0.00191443 0.00567474 0.00414026)
(0.000563357 0.00570501 0.00328088)
(0.00254333 0.0055318 0.00264125)
(0.00320039 0.00572838 0.00247535)
(0.00429142 0.00739315 0.00382199)
(0.00760873 0.00908808 0.00674495)
(0.0164927 0.00647829 0.00976915)
(0.0182394 -0.0114304 -0.00123048)
(0.0481203 0.0330905 -0.0102133)
(0.0873823 0.0854917 0.0257924)
(0.0859644 0.107672 0.0547424)
(0.0672955 0.122028 0.0670351)
(0.0406063 0.125589 0.0761531)
(0.0194265 0.0964966 0.0995396)
(0.0279878 0.186676 0.168821)
(0.121605 -0.235818 0.183408)
(-0.0274073 0.316423 -0.0785796)
(0.0308888 -0.263353 0.0337528)
(0.225559 -0.18179 0.161314)
(0.161624 0.0313278 0.0463063)
(0.122825 -0.043263 0.040886)
(0.0674974 0.00588257 0.040655)
(0.0212709 -0.0143446 0.0414606)
(0.0104318 -0.020205 0.0311378)
(0.0157871 0.0019107 0.00886745)
(0.0190458 0.0328393 -0.00805085)
(0.0154936 0.0686573 -0.00897542)
(0.0216559 0.120019 0.0167066)
(0.0315746 0.13254 0.0271292)
(0.0417033 0.131078 0.0331927)
(0.0438753 0.112803 0.0393474)
(0.0379252 0.101338 0.0444021)
(0.0235928 0.0791318 0.0520329)
(0.00898063 0.0579977 0.0631753)
(-0.00358941 0.0403373 0.0692406)
(-0.016743 0.0184281 0.0664597)
(-0.02632 0.0064993 0.0622655)
(-0.0299711 -0.00194668 0.0464317)
(-0.035316 -0.00614839 0.0251875)
(-0.0395877 -0.00565251 0.0151581)
(-0.0397413 0.00822505 0.019219)
(-0.0308727 0.0238615 0.00444285)
(-0.00922781 0.0242545 -0.0117803)
(-0.00220868 0.0359424 -0.0115772)
(-0.003124 0.0446897 -0.00135384)
(-0.000238193 0.0438681 0.00175925)
(-0.00214647 0.040935 0.000839853)
(-0.0105172 0.0350849 -0.00349281)
(-0.0227519 0.0301398 -0.00247428)
(-0.0356337 0.0297517 -0.00555888)
(-0.0423854 0.0319208 -0.00643247)
(-0.0463985 0.0262923 0.000682641)
(-0.0461733 0.0236892 0.00442628)
(-0.0559162 0.00518677 0.0164627)
(0.0263551 0.0222256 0.00617192)
(0.0334047 0.0224738 0.00905705)
(0.0203103 0.0127264 0.00395487)
(0.0199532 0.0143336 0.00420268)
(0.0109483 0.00592224 0.0036503)
(0.0106924 0.00784632 0.00338905)
(0.00465134 0.00169028 0.00341535)
(0.00133682 0.00244172 0.00314524)
(-0.00243442 -0.00183862 0.00298699)
(-0.0036433 -0.00108531 0.0033778)
(-0.00413184 -0.00103044 0.00388333)
(-0.00406118 0.00120675 0.00476228)
(-0.00319132 0.0025141 0.00497343)
(-0.00196813 0.00338297 0.00516888)
(-0.000930477 0.00310323 0.00515179)
(-0.000520771 0.00259649 0.0051881)
(-0.000741874 0.00190631 0.00511232)
(-0.00110444 0.00147072 0.00509651)
(-0.00147203 0.00112224 0.00503334)
(-0.00176011 0.000881682 0.0049709)
(-0.00203077 0.000626921 0.0048886)
(-0.00226636 0.000420447 0.00480548)
(-0.00249986 0.000225312 0.00472499)
(-0.00271229 7.18893e-05 0.00465928)
(-0.00289632 -5.2552e-05 0.00460664)
(-0.00305048 -0.000144813 0.00457375)
(-0.00317554 -0.000208734 0.00456042)
(-0.00327562 -0.000246732 0.00456303)
(-0.00335248 -0.000271772 0.00457673)
(-0.00341755 -0.000288657 0.00459225)
(-0.00348535 -0.000295403 0.00460327)
(-0.00356221 -0.000286421 0.00461136)
(-0.00366347 -0.000250865 0.00461822)
(-0.00378419 -0.000155846 0.00461958)
(-0.00388303 3.2178e-05 0.0045871)
(-0.00398133 0.000337517 0.00449164)
(-0.00416783 0.00081013 0.00431035)
(-0.00453686 0.00149904 0.00402125)
(-0.00503869 0.00240329 0.00364885)
(-0.00545287 0.00341829 0.00336789)
(-0.00537619 0.00432303 0.00330344)
(-0.00428508 0.00495499 0.00330042)
(-0.00215042 0.00535054 0.00319222)
(0.000647431 0.00560472 0.00288471)
(0.0025818 0.0061746 0.00297223)
(0.00308114 0.00602575 0.00272266)
(0.00323364 0.00724127 0.00303338)
(0.00731405 0.00893275 0.00551407)
(0.0166815 0.00863396 0.00936129)
(0.00667319 -0.000746251 0.00693214)
(0.0160498 0.0162233 0.00773712)
(0.0613624 0.0724702 0.0629107)
(0.0719122 0.0903646 0.0870088)
(0.0639854 0.117976 0.0736064)
(0.0504896 0.126094 0.069684)
(0.0469607 0.113685 0.0752595)
(0.075202 0.145947 0.0914621)
(0.0672258 -0.00798717 0.0376405)
(-0.00392663 0.413774 -0.00321413)
(0.0289938 -0.304552 0.0379463)
(0.160227 -0.163943 0.1518)
(0.111303 0.0721762 0.0118409)
(0.0816825 0.0388709 0.0311884)
(0.0413457 0.086421 0.0285868)
(0.00726023 0.0671417 0.0176586)
(-0.0258646 0.0901304 -0.0146835)
(-0.0330544 0.14212 0.00109871)
(-0.0211193 0.172082 0.0247701)
(-0.00196904 0.176931 0.032399)
(0.0113147 0.179251 0.0315273)
(0.0191781 0.185508 0.0353583)
(0.0221862 0.182767 0.0431434)
(0.0165641 0.173025 0.0458264)
(0.00466844 0.161467 0.0473295)
(-0.0127884 0.14865 0.052743)
(-0.0269264 0.118647 0.05311)
(-0.0359712 0.0956797 0.0535067)
(-0.0436808 0.080007 0.0542194)
(-0.0504283 0.0660391 0.0475023)
(-0.0541559 0.058492 0.0326166)
(-0.0503493 0.0586764 0.016327)
(-0.0439318 0.0610302 0.00866076)
(-0.0344378 0.049794 -0.00314363)
(-0.0136156 0.0506721 -0.0203924)
(-0.00240981 0.064187 -0.0177503)
(-0.0032085 0.0651448 -0.00498285)
(0.000940158 0.0594788 -0.00194287)
(0.00266491 0.0580685 -0.000180313)
(0.000268541 0.0559144 0.00412771)
(-0.0097684 0.049515 0.00415561)
(-0.0204731 0.0446398 -0.00261668)
(-0.0241512 0.0461191 -0.00577013)
(-0.023976 0.0467104 -0.00519957)
(-0.0186604 0.0412719 0.00689683)
(-0.0248793 0.0320159 0.0123467)
(-0.043414 0.0109113 0.0191947)
(0.0220196 0.0187807 0.00711479)
(0.0331487 0.0240625 0.0105972)
(0.0190497 0.0107258 0.00468633)
(0.0207512 0.0153496 0.00456996)
(0.010629 0.00362313 0.00335655)
(0.00970213 0.00637606 0.00385138)
(0.00306084 -0.000213035 0.00418643)
(0.000907027 0.00276656 0.00404857)
(-0.00275999 -0.00169489 0.00373036)
(-0.00500761 -0.00140732 0.00392525)
(-0.00681018 -0.0021893 0.00375626)
(-0.00750138 0.000344779 0.00453278)
(-0.0065702 0.00209953 0.00492478)
(-0.00442914 0.00286047 0.00577499)
(-0.0031878 0.00263105 0.00611191)
(-0.00283501 0.00225384 0.00630389)
(-0.00325219 0.00159333 0.00619676)
(-0.00393827 0.0012166 0.00604145)
(-0.00449154 0.000946221 0.00581525)
(-0.0048599 0.000819419 0.00560264)
(-0.00514579 0.000714711 0.00539844)
(-0.00535531 0.000657891 0.00522104)
(-0.00551822 0.000589349 0.0050597)
(-0.00566077 0.000527464 0.00493578)
(-0.00576992 0.000463477 0.00484382)
(-0.00586097 0.000408563 0.00479011)
(-0.005952 0.000357904 0.00474926)
(-0.00600902 0.00032549 0.00472117)
(-0.00603583 0.000312914 0.00471544)
(-0.00604248 0.000321083 0.00473042)
(-0.00604145 0.000350136 0.00475974)
(-0.00605814 0.000400633 0.00479488)
(-0.00613703 0.000501393 0.00483018)
(-0.00629444 0.000706819 0.00484197)
(-0.00646345 0.00103799 0.0047841)
(-0.00664371 0.00148569 0.0046479)
(-0.00686462 0.00205939 0.00445434)
(-0.00717311 0.00268151 0.00413614)
(-0.00752705 0.00320555 0.0036802)
(-0.00773257 0.00348552 0.00318789)
(-0.0075849 0.0036548 0.00281572)
(-0.00644376 0.00380024 0.00280865)
(-0.00440873 0.00422661 0.0030626)
(-0.00205947 0.00456448 0.00357563)
(-0.0007038 0.00564368 0.00417902)
(-0.000445151 0.00610753 0.00339729)
(-0.00097453 0.00801695 0.00237612)
(0.00278584 0.0096754 0.00306282)
(0.0101138 0.0131286 0.00652607)
(0.000906255 0.00865938 0.0103141)
(-0.0161556 -0.000187371 0.0119688)
(0.0112566 0.056107 0.0568419)
(0.0342083 0.0878107 0.0918384)
(0.0382444 0.102498 0.0894855)
(0.0302378 0.120275 0.0733399)
(0.0490825 0.11205 0.0553946)
(0.0532409 0.157644 0.0508296)
(0.131775 0.0074479 0.0184627)
(0.165449 0.329098 0.0420086)
(0.0332048 -0.323681 0.0379658)
(0.0840136 -0.113523 0.097698)
(0.0224516 0.154212 0.00653805)
(0.0241477 0.144254 0.0283073)
(0.00706115 0.188645 0.0251546)
(-0.0189611 0.188314 0.0145528)
(-0.0275838 0.1836 0.00879363)
(-0.0249174 0.177592 0.00963628)
(-0.0069136 0.172975 0.0161912)
(-0.000894756 0.176082 0.0240666)
(0.00222665 0.182719 0.0297193)
(0.00956313 0.187257 0.0355124)
(0.0187558 0.187329 0.0379452)
(0.023529 0.18504 0.0442371)
(0.019845 0.174227 0.0523288)
(0.00846226 0.155985 0.053283)
(-0.00818581 0.134688 0.0506132)
(-0.0213861 0.117591 0.0482434)
(-0.0286805 0.101968 0.0417591)
(-0.0298624 0.0865855 0.0305689)
(-0.0266117 0.079414 0.0190763)
(-0.0199482 0.0741704 0.00627618)
(-0.0108269 0.07413 -0.0124221)
(-0.00713959 0.0749631 -0.0255892)
(-0.00397464 0.0924309 -0.027365)
(0.0102533 0.106282 -0.017572)
(0.0172241 0.106797 -0.0181876)
(0.0167376 0.0973132 -0.0141865)
(0.00301207 0.0782448 0.000444535)
(-0.00375575 0.0720617 0.00942287)
(-0.010724 0.0664539 0.00727021)
(-0.0202959 0.0595379 -0.00208072)
(-0.0235657 0.0581057 -0.00357497)
(-0.0228414 0.053754 0.00154898)
(-0.0222112 0.0476611 0.0153938)
(-0.0270206 0.0382994 0.0180534)
(-0.0363915 0.0203052 0.0221542)
(0.0190156 0.012227 0.00602653)
(0.032339 0.0257335 0.0105682)
(0.0165523 0.00743367 0.00414006)
(0.021808 0.0164607 0.00285)
(0.0114929 0.000364877 0.00105017)
(0.00839196 0.00460637 0.00205139)
(0.000302157 -0.00172602 0.00380421)
(-0.00198025 0.00380574 0.00357543)
(-0.00360356 -0.000300757 0.00410891)
(-0.00579744 0.000571848 0.00424569)
(-0.00763206 -0.00115404 0.00400988)
(-0.00878593 -4.59641e-05 0.00483248)
(-0.00693995 -0.000115174 0.00577836)
(-0.0044257 0.000440493 0.00693156)
(-0.00309782 0.000439419 0.00779345)
(-0.00267245 0.000748851 0.00843446)
(-0.00293684 0.000878205 0.00866664)
(-0.00356232 0.00109474 0.00862558)
(-0.00411986 0.0011913 0.00838785)
(-0.00453782 0.00127433 0.00809694)
(-0.00486327 0.00127417 0.00779442)
(-0.00509069 0.00128209 0.00752314)
(-0.00525514 0.00125048 0.00728134)
(-0.0053792 0.00120314 0.0070819)
(-0.005465 0.00114009 0.00692185)
(-0.00551626 0.00108093 0.00679516)
(-0.00554733 0.00103233 0.00670738)
(-0.00555651 0.00100051 0.00664498)
(-0.0055476 0.000989621 0.00659883)
(-0.0055282 0.00101146 0.00656632)
(-0.00551102 0.00106029 0.00654158)
(-0.00552643 0.00114047 0.00651133)
(-0.00564434 0.00129662 0.00646384)
(-0.00585417 0.00157423 0.00638206)
(-0.00605424 0.00196591 0.00624071)
(-0.00626963 0.00241726 0.00603541)
(-0.00651904 0.00285537 0.00574555)
(-0.00677089 0.00319533 0.00533488)
(-0.00686776 0.00333417 0.00484666)
(-0.00674926 0.00314951 0.00436504)
(-0.00647047 0.00278273 0.00399705)
(-0.00546446 0.00233575 0.0040848)
(-0.003678 0.00247652 0.00480659)
(-0.00173291 0.00285118 0.00607215)
(-0.000975825 0.00436338 0.00672812)
(-0.000918638 0.005645 0.00578714)
(-0.00178969 0.00756282 0.00383699)
(-0.000121024 0.00877688 0.00227978)
(0.00534372 0.0121433 0.00397965)
(0.0063743 0.0102359 0.0131677)
(-0.017812 -0.00805887 0.0295668)
(-0.0313023 -0.00203096 0.0503352)
(-0.00524113 0.013862 0.0617675)
(0.0387512 0.0281716 0.0632284)
(0.0266212 0.0699195 0.0527724)
(0.0576805 0.0139155 0.0363987)
(0.0371226 0.17431 0.0935809)
(0.133241 -0.139417 0.0169009)
(0.173328 0.482499 -0.0376173)
(0.015943 -0.364279 0.0356435)
(-0.0472999 -0.0280026 0.0274626)
(-0.0385836 0.17281 -0.0399713)
(-0.0291197 0.182046 -0.0277201)
(-0.0229471 0.219918 -0.02936)
(-0.0224908 0.22613 -0.0291666)
(-0.0266076 0.226732 -0.0316079)
(-0.0245401 0.21702 -0.0385137)
(-0.0101165 0.21334 -0.04139)
(0.00237884 0.209693 -0.0280783)
(0.00339837 0.205749 -0.0148068)
(0.00695665 0.209597 -0.00334661)
(0.0120943 0.210351 0.0157969)
(0.0187563 0.209403 0.0341965)
(0.0196977 0.207392 0.0413802)
(0.0147455 0.198079 0.0421008)
(0.00360006 0.185418 0.0338714)
(-0.00577473 0.172458 0.028118)
(-0.014419 0.16203 0.0204415)
(-0.0223867 0.158901 0.00846512)
(-0.0263642 0.161826 -0.00148811)
(-0.0283809 0.169861 -0.00706661)
(-0.0220521 0.186345 -0.00541497)
(-0.0116826 0.186986 -0.00297482)
(-0.00184422 0.175248 -0.0072067)
(0.00309319 0.174736 -0.0140388)
(0.0120048 0.182763 -0.0138585)
(0.0126695 0.188949 -0.0124805)
(0.00972957 0.191453 -0.0112029)
(-0.0121972 0.191437 0.00492542)
(-0.0274078 0.179419 0.0109652)
(-0.0305786 0.170633 0.0164336)
(-0.0320114 0.156055 0.0156188)
(-0.0213403 0.145131 0.01813)
(-0.00682177 0.109474 0.019228)
(-0.00847863 0.0729746 0.00967284)
(-0.00371562 0.0140794 -0.00653771)
(0.00876759 0.00681282 0.000490431)
(0.0307323 0.0273492 0.00849705)
(0.0138705 0.005239 0.00189244)
(0.0224999 0.0191751 -0.000103385)
(0.01371 -0.00099144 -0.00140196)
(0.00635098 0.00344323 -0.00327997)
(-0.00356901 -0.0020652 -0.00277566)
(-0.00392859 0.0047219 -0.0032629)
(-0.00647648 0.000821389 -0.00139049)
(-0.00768227 0.00226897 -0.000323655)
(-0.00919575 -0.00039119 8.48824e-05)
(-0.0100012 -0.000549758 0.00119798)
(-0.00931847 -0.00189232 0.00211926)
(-0.00783172 -0.00138805 0.00319321)
(-0.00722572 -0.00105446 0.00417991)
(-0.00734403 -0.000285959 0.00502514)
(-0.00788976 0.000254069 0.00564003)
(-0.00852264 0.000808087 0.00597517)
(-0.00892282 0.00112025 0.00603083)
(-0.00907608 0.00137616 0.00593041)
(-0.00919435 0.00149028 0.00575955)
(-0.00924674 0.00156908 0.00558988)
(-0.00923652 0.00158187 0.00544186)
(-0.00920333 0.00156245 0.00531975)
(-0.00915244 0.00151803 0.0052156)
(-0.0090926 0.00147188 0.00512848)
(-0.00903153 0.00143056 0.00506149)
(-0.00896871 0.00140684 0.00500597)
(-0.00890145 0.00141049 0.00495285)
(-0.00883126 0.00145453 0.00490033)
(-0.00876523 0.00153294 0.00484679)
(-0.00875965 0.00166143 0.00477774)
(-0.00890975 0.00186691 0.00469567)
(-0.00916029 0.0021572 0.00457956)
(-0.00936167 0.00252103 0.00440647)
(-0.00949196 0.00292431 0.00418201)
(-0.00954396 0.00333527 0.00389424)
(-0.00954955 0.0036056 0.00351587)
(-0.00950177 0.00348697 0.00307051)
(-0.00923199 0.0028743 0.00257457)
(-0.00879042 0.00205814 0.00214519)
(-0.00810106 0.00113884 0.00202268)
(-0.00721894 0.000875003 0.00242063)
(-0.00652362 0.00140885 0.00350627)
(-0.00653847 0.00349688 0.0040715)
(-0.00684995 0.00599636 0.00283916)
(-0.00773526 0.00878051 1.07224e-05)
(-0.0061353 0.0118319 -0.0024421)
(-0.000110198 0.0168439 -0.00263571)
(0.00550239 0.0169185 0.0064688)
(-0.0116819 0.00800716 0.0297399)
(-0.023536 -0.0216574 0.0348052)
(-0.0266077 -0.0241827 0.0447625)
(-0.0248345 -0.0725151 0.019258)
(-0.0280496 0.0435322 0.00713986)
(-0.0180704 -0.12713 -0.0535202)
(0.0665406 0.184758 0.0361192)
(0.0923899 -0.295124 0.0118534)
(0.207144 0.493665 -0.0477525)
(0.00859116 -0.34512 0.0238735)
(-0.140019 -0.119489 0.00565252)
(-0.0846341 0.155603 -0.0350091)
(-0.0800263 0.130873 -0.024023)
(-0.0512405 0.170843 -0.0127962)
(-0.0350988 0.16117 -0.00224517)
(-0.0280754 0.153782 0.000494461)
(-0.0183083 0.13244 0.00413986)
(-0.00260097 0.114992 0.00418268)
(0.00398089 0.10777 -0.0175853)
(0.0031567 0.118073 -0.0440923)
(0.00170934 0.128074 -0.0503453)
(0.00527041 0.139261 -0.0433859)
(0.0122722 0.144677 -0.0296066)
(0.0212328 0.143217 -0.0147706)
(0.0240254 0.143664 -0.00754221)