/*--------------------------------*- C++ -*----------------------------------*\
| =========                 |                                                 |
| \\      /  F ield         | OpenFOAM: The Open Source CFD Toolbox           |
|  \\    /   O peration     | Version:  2.3.0                                 |
|   \\  /    A nd           | Web:      www.OpenFOAM.org                      |
|    \\/     M anipulation  |                                                 |
\*---------------------------------------------------------------------------*/
FoamFile
{
    version     2.0;
    format      ascii;
    class       volScalarField;
    location    "27";
    object      w1;
}
// * * * * * * * * * * * * * * * * * * * * * * * * * * * * * * * * * * * * * //

dimensions      [0 0 0 0 0 0 0];

internalField   nonuniform List<scalar> 
6144
(
0.518788
0.518788
0.518788
0.518788
0.518788
0.518788
0.518788
0.518788
0.518788
0.518788
0.518788
0.518788
0.518788
0.518788
0.518788
0.518788
0.518788
0.518788
0.518788
0.518788
0.518788
0.518788
0.518788
0.518788
0.518788
0.518788
0.518788
0.518788
0.518788
0.518788
0.518788
0.518788
0.518788
0.518788
0.518788
0.518788
0.518788
0.518788
0.518788
0.518788
0.518788
0.518788
0.518788
0.518788
0.518788
0.518788
0.518788
0.518788
0.518788
0.518788
0.518788
0.518788
0.518788
0.518788
0.518788
0.518788
0.518785
0.518682
0.4913
0.498553
0.779885
0.996829
0.999992
0.999987
0.996951
0.992581
0.989672
0.980044
0.9903
0.990889
0.979333
0.980567
0.970294
0.957803
0.969866
0.986083
0.978833
0.970113
0.316272
0.947237
0.95402
0.974894
0.968815
0.985089
0.985464
0.984021
0.981417
0.968158
0.974723
0.984885
0.970806
0.99772
0.994124
0.997976
0.994758
0.999844
0.518788
0.518788
0.518788
0.518788
0.518788
0.518788
0.518788
0.518788
0.518788
0.518788
0.518788
0.518788
0.518788
0.518788
0.518788
0.518788
0.518788
0.518788
0.518788
0.518788
0.518788
0.518788
0.518788
0.518788
0.518788
0.518788
0.518788
0.518788
0.518788
0.518788
0.518788
0.518788
0.518788
0.518788
0.518788
0.518788
0.518788
0.518788
0.518788
0.518788
0.518788
0.518788
0.518788
0.518788
0.518788
0.518788
0.518788
0.518788
0.518788
0.518788
0.518788
0.518788
0.518788
0.518788
0.518788
0.518788
0.518772
0.517245
0.46476
0.492185
0.788821
0.999154
0.999995
0.999475
0.998988
0.997225
0.970588
0.994518
0.995935
0.991109
0.976119
0.98866
0.985399
0.983207
0.97452
0.940436
0.832116
0.981003
0.984441
0.9893
0.989386
0.989274
0.985197
0.965912
0.870386
0.932745
0.896832
0.88314
0.97114
0.996392
0.994487
0.997169
0.988822
0.995115
0.918132
0.99984
0.518788
0.518788
0.518788
0.518788
0.518788
0.518788
0.518788
0.518788
0.518788
0.518788
0.518788
0.518788
0.518788
0.518788
0.518788
0.518788
0.518788
0.518788
0.518788
0.518788
0.518788
0.518788
0.518788
0.518788
0.518788
0.518788
0.518788
0.518788
0.518788
0.518788
0.518788
0.518788
0.518788
0.518788
0.518788
0.518788
0.518788
0.518788
0.518788
0.518788
0.518788
0.518788
0.518788
0.518788
0.518788
0.518788
0.518788
0.518788
0.518788
0.518788
0.518788
0.518788
0.518788
0.518788
0.518788
0.518788
0.518787
0.518754
0.507241
0.583612
0.204622
0.999898
0.999994
0.999471
0.999194
0.997871
0.998405
0.996672
0.995601
0.987222
0.995896
0.996235
0.990863
0.995304
0.987641
0.98085
0.991615
0.952274
0.976191
0.980394
0.976943
0.873943
0.975788
0.987383
0.991598
0.993757
0.992973
0.990811
0.976067
0.993116
0.997064
0.998643
0.995648
0.997151
0.987119
0.999849
0.518788
0.518788
0.518788
0.518788
0.518788
0.518788
0.518788
0.518788
0.518788
0.518788
0.518788
0.518788
0.518788
0.518788
0.518788
0.518788
0.518788
0.518788
0.518788
0.518788
0.518788
0.518788
0.518788
0.518788
0.518788
0.518788
0.518788
0.518788
0.518788
0.518788
0.518788
0.518788
0.518788
0.518788
0.518788
0.518788
0.518788
0.518788
0.518788
0.518788
0.518788
0.518788
0.518788
0.518788
0.518788
0.518788
0.518788
0.518788
0.518788
0.518788
0.518788
0.518788
0.518788
0.518788
0.518788
0.518788
0.518788
0.518782
0.517932
0.479798
0.130433
0.999955
0.999993
0.999303
0.999796
0.999902
0.999911
0.999904
0.999888
0.999771
0.998813
0.999013
0.999376
0.998458
0.990365
0.998224
0.998784
0.992945
0.999097
0.998618
0.99571
0.99247
0.987614
0.994798
0.996482
0.996179
0.9918
0.989291
0.989251
0.993567
0.997602
0.997802
0.996111
0.946857
0.994693
0.999855
0.518788
0.518788
0.518788
0.518788
0.518788
0.518788
0.518788
0.518788
0.518788
0.518788
0.518788
0.518788
0.518788
0.518788
0.518788
0.518788
0.518788
0.518788
0.518788
0.518788
0.518788
0.518788
0.518788
0.518788
0.518788
0.518788
0.518788
0.518788
0.518788
0.518788
0.518788
0.518788
0.518788
0.518788
0.518788
0.518788
0.518788
0.518788
0.518788
0.518788
0.518788
0.518788
0.518788
0.518788
0.518788
0.518788
0.518788
0.518788
0.518788
0.518788
0.518788
0.518788
0.518788
0.518788
0.518788
0.518788
0.518787
0.518788
0.518779
0.517028
0.802521
0.996727
0.995198
0.994956
0.998511
0.997758
0.986364
0.987511
0.87859
0.938679
0.989186
0.979962
0.901508
0.990847
0.998499
0.998444
0.999773
7.90668e-07
0.999966
0.99999
0.999989
0.999307
0.999522
0.999445
0.999469
0.989641
0.918978
0.796249
0.985201
0.99739
0.998416
0.99761
0.980848
0.99519
0.996444
0.999852
0.518788
0.518788
0.518788
0.518788
0.518788
0.518788
0.518788
0.518788
0.518788
0.518788
0.518788
0.518788
0.518788
0.518788
0.518788
0.518788
0.518788
0.518788
0.518788
0.518788
0.518788
0.518788
0.518788
0.518788
0.518788
0.518788
0.518788
0.518788
0.518788
0.518788
0.518788
0.518788
0.518788
0.518788
0.518788
0.518788
0.518788
0.518788
0.518788
0.518788
0.518788
0.518788
0.518788
0.518788
0.518788
0.518788
0.518788
0.518788
0.518788
0.518788
0.518788
0.518788
0.518788
0.518788
0.518788
0.518788
0.518788
0.518788
0.51878
0.493845
0.796644
0.898252
0.897562
0.943777
0.661473
0.766471
0.00156291
0.0732556
2.81301e-07
0.867744
3.74665e-09
0.8098
0.7499
0.000629669
0.000611007
0.00352271
0.142402
0.143973
0.0163069
0.0696078
0.980797
0.986462
0.998786
0.999885
0.999988
0.999991
0.999809
0.999814
0.996983
0.99808
0.998027
0.995408
0.993387
0.992723
0.99753
0.99991
0.518788
0.518788
0.518788
0.518788
0.518788
0.518788
0.518788
0.518788
0.518788
0.518788
0.518788
0.518788
0.518788
0.518788
0.518788
0.518788
0.518788
0.518788
0.518788
0.518788
0.518788
0.518788
0.518788
0.518788
0.518788
0.518788
0.518788
0.518788
0.518788
0.518788
0.518788
0.518788
0.518788
0.518788
0.518788
0.518788
0.518788
0.518788
0.518788
0.518788
0.518788
0.518788
0.518788
0.518788
0.518788
0.518788
0.518788
0.518788
0.518788
0.518788
0.518788
0.518788
0.518788
0.518788
0.518788
0.518789
0.518784
0.518896
0.52209
0.418383
0.928849
0.000142958
0.00634771
0.704384
0.0297313
0.000608411
0.145173
0.352012
0.783428
0.0725248
0.000195915
0.00424893
2.00868e-05
0.0590725
0.291347
0.0127902
0.00122193
0.146372
2.4995e-08
0.0192137
0.89574
0.906698
0.0200818
0.113635
0.847241
0.981171
0.998883
5.44075e-10
0.999998
1.74559e-07
0.999155
0.99926
0.999823
0.999697
1.04084e-10
0.99997
0.518788
0.518788
0.518788
0.518788
0.518788
0.518788
0.518788
0.518788
0.518788
0.518788
0.518788
0.518788
0.518788
0.518788
0.518788
0.518788
0.518788
0.518788
0.518788
0.518788
0.518788
0.518788
0.518788
0.518788
0.518788
0.518788
0.518788
0.518788
0.518788
0.518788
0.518788
0.518788
0.518788
0.518788
0.518788
0.518788
0.518788
0.518788
0.518788
0.518788
0.518788
0.518788
0.518788
0.518788
0.518788
0.518788
0.518788
0.518788
0.518788
0.518788
0.518788
0.518788
0.518788
0.518788
0.518788
0.518788
0.518787
0.518745
0.519478
0.448558
0.827211
0.000851367
0.636451
0.683512
2.37537e-06
0.270384
0.491423
1.30609e-06
0.0119382
0.456649
0.744675
0.59182
0.388549
0.490079
0.350019
0.036713
0.0435638
0.000623913
0.000256692
0.336876
0.29898
0.000943979
0.764286
0.410859
0.249902
0.623194
5.88288e-12
0.00868313
0.000426506
1.98904e-05
7.24453e-05
0.127319
0.000701077
0.00101311
4.92131e-05
0.0696668
0.518788
0.518788
0.518788
0.518788
0.518788
0.518788
0.518788
0.518788
0.518788
0.518788
0.518788
0.518788
0.518788
0.518788
0.518788
0.518788
0.518788
0.518788
0.518788
0.518788
0.518788
0.518788
0.518788
0.518788
0.518788
0.518788
0.518788
0.518788
0.518788
0.518788
0.518788
0.518788
0.518788
0.518788
0.518788
0.518788
0.518788
0.518788
0.518788
0.518788
0.518788
0.518788
0.518788
0.518788
0.518788
0.518788
0.518788
0.518788
0.518788
0.518788
0.518788
0.518788
0.518788
0.518788
0.518788
0.518787
0.518806
0.519129
0.518108
0.442603
0.578797
0.000646893
0.845099
0.00119183
0.141204
0.192398
0.530914
0.00143573
0.000600249
1.34884e-05
0.0660975
0.37531
0.432459
0.576311
0.0999983
0.829371
0.00204646
0.0177818
0.0152657
0.00905175
0.000594334
0.385168
3.10592e-08
0.856349
0.000642976
0.0864264
0.689213
0.331341
0.685798
0.579096
0.647849
0.815333
0.309831
0.528574
0.265698
0.990418
0.518788
0.518788
0.518788
0.518788
0.518788
0.518788
0.518788
0.518788
0.518788
0.518788
0.518788
0.518788
0.518788
0.518788
0.518788
0.518788
0.518788
0.518788
0.518788
0.518788
0.518788
0.518788
0.518788
0.518788
0.518788
0.518788
0.518788
0.518788
0.518788
0.518788
0.518788
0.518788
0.518788
0.518788
0.518788
0.518788
0.518788
0.518788
0.518788
0.518788
0.518788
0.518788
0.518788
0.518788
0.518788
0.518788
0.518788
0.518788
0.518788
0.518788
0.518788
0.518788
0.518788
0.518788
0.518788
0.518788
0.518804
0.519107
0.51324
0.452347
0.92508
0.00693758
0.117412
0.000565656
1.6401e-07
0.0248509
0.146346
0.0138506
0.402453
0.777182
0.594373
0.671975
0.609177
0.641615
0.651944
0.596408
0.624358
1.83782e-10
0.00019265
0.894094
0.000523022
0.00331286
0.14672
0.00219851
0.0122171
0.549322
1.5861e-09
0.755994
0.347266
0.052357
0.301693
0.000479543
0.496603
0.741629
0.5528
0.998991
0.518788
0.518788
0.518788
0.518788
0.518788
0.518788
0.518788
0.518788
0.518788
0.518788
0.518788
0.518788
0.518788
0.518788
0.518788
0.518788
0.518788
0.518788
0.518788
0.518788
0.518788
0.518788
0.518788
0.518788
0.518788
0.518788
0.518788
0.518788
0.518788
0.518788
0.518788
0.518788
0.518788
0.518788
0.518788
0.518788
0.518788
0.518788
0.518788
0.518788
0.518788
0.518788
0.518788
0.518788
0.518788
0.518788
0.518788
0.518788
0.518788
0.518788
0.518788
0.518788
0.518788
0.518788
0.518788
0.518788
0.518788
0.520936
0.464485
0.450307
0.857597
0.681085
0.828582
8.97179e-07
0.369748
0.000204042
0.146447
0.651574
0.0853272
0.0556816
0.972832
0.95622
0.954711
0.984554
0.984041
0.92585
0.955123
0.953979
0.60667
0.516798
1.16754e-05
0.891817
0.00173621
0.0722758
0.000132951
0.352135
0.604672
0.742298
0.000410852
0.175047
0.942072
0.803391
0.98176
0.912053
0.996766
0.999966
0.518788
0.518788
0.518788
0.518788
0.518788
0.518788
0.518788
0.518788
0.518788
0.518788
0.518788
0.518788
0.518788
0.518788
0.518788
0.518788
0.518788
0.518788
0.518788
0.518788
0.518788
0.518788
0.518788
0.518788
0.518788
0.518788
0.518788
0.518788
0.518788
0.518788
0.518788
0.518788
0.518788
0.518788
0.518788
0.518788
0.518788
0.518788
0.518788
0.518788
0.518788
0.518788
0.518788
0.518788
0.518788
0.518788
0.518788
0.518788
0.518788
0.518788
0.518788
0.518788
0.518788
0.518788
0.518788
0.518788
0.518787
0.518832
0.517399
0.474177
0.970696
0.974831
0.963902
0.819584
0.996192
0.995436
0.142049
0.99784
0.999453
0.00017397
0.99999
0.999991
0.999686
0.999878
0.999929
0.999995
0.999985
0.999678
0.991206
0.956489
0.9947
0.994671
0.993742
0.993908
0.99415
0.991987
0.989427
0.994587
0.964832
0.995154
0.997996
0.999841
0.999923
0.99991
0.99999
0.999994
0.518788
0.518788
0.518788
0.518788
0.518788
0.518788
0.518788
0.518788
0.518788
0.518788
0.518788
0.518788
0.518788
0.518788
0.518788
0.518788
0.518788
0.518788
0.518788
0.518788
0.518788
0.518788
0.518788
0.518788
0.518788
0.518788
0.518788
0.518788
0.518788
0.518788
0.518788
0.518788
0.518788
0.518788
0.518788
0.518788
0.518788
0.518788
0.518788
0.518788
0.518788
0.518788
0.518788
0.518788
0.518788
0.518788
0.518788
0.518788
0.518788
0.518788
0.518788
0.518788
0.518788
0.518788
0.518788
0.518788
0.518787
0.518785
0.518799
0.388058
0.972312
0.999938
0.999986
0.999991
0.999253
0.999611
0.999562
0.998978
0.999355
0.998206
0.996425
0.99885
0.998764
0.998567
0.998658
0.998881
0.99987
0.999855
0.999867
0.999604
0.999645
0.999893
0.999931
0.99995
0.999948
0.999801
0.999708
0.999945
0.999919
0.999902
0.999944
0.999934
0.999945
0.999915
0.999886
0.999882
0.518788
0.518788
0.518788
0.518788
0.518788
0.518788
0.518788
0.518788
0.518788
0.518788
0.518788
0.518788
0.518788
0.518788
0.518788
0.518788
0.518788
0.518788
0.518788
0.518788
0.518788
0.518788
0.518788
0.518788
0.518788
0.518788
0.518788
0.518788
0.518788
0.518788
0.518788
0.518788
0.518788
0.518788
0.518788
0.518788
0.518788
0.518788
0.518788
0.518788
0.518788
0.518788
0.518788
0.518788
0.518788
0.518788
0.518788
0.518788
0.518788
0.518788
0.518788
0.518788
0.518788
0.518788
0.518788
0.518788
0.518787
0.518786
0.518683
0.475774
0.661274
0.999995
0.999845
0.999725
0.998938
0.999351
0.997982
0.991823
0.994751
0.994434
0.991057
0.987975
0.991922
0.991701
0.995678
0.997112
0.997796
0.997113
0.997617
0.994546
0.991078
0.991957
0.997676
0.995296
0.996912
0.940356
0.995155
0.999198
0.998805
0.994751
0.982512
0.997044
0.965186
0.993744
0.998556
0.999858
0.518788
0.518788
0.518788
0.518788
0.518788
0.518788
0.518788
0.518788
0.518788
0.518788
0.518788
0.518788
0.518788
0.518788
0.518788
0.518788
0.518788
0.518788
0.518788
0.518788
0.518788
0.518788
0.518788
0.518788
0.518788
0.518788
0.518788
0.518788
0.518788
0.518788
0.518788
0.518788
0.518788
0.518788
0.518788
0.518788
0.518788
0.518788
0.518788
0.518788
0.518788
0.518788
0.518788
0.518788
0.518788
0.518788
0.518788
0.518788
0.518788
0.518788
0.518788
0.518788
0.518788
0.518788
0.518788
0.518788
0.518787
0.518785
0.515106
0.418055
0.0273118
0.999899
0.999997
0.999734
0.999674
0.988471
0.998496
0.994641
0.989915
0.991601
0.984143
0.980665
0.986707
0.994152
0.995771
0.996844
0.996926
0.363479
0.997972
0.998425
0.998962
0.998941
0.997906
0.994628
0.958348
0.996615
0.997995
0.998747
0.999453
0.998647
0.996611
0.997106
0.967044
0.994647
0.978361
0.999867
0.518788
0.518788
0.518788
0.518788
0.518788
0.518788
0.518788
0.518788
0.518788
0.518788
0.518788
0.518788
0.518788
0.518788
0.518788
0.518788
0.518788
0.518788
0.518788
0.518788
0.518788
0.518788
0.518788
0.518788
0.518788
0.518788
0.518788
0.518788
0.518788
0.518788
0.518788
0.518788
0.518788
0.518788
0.518788
0.518788
0.518788
0.518788
0.518788
0.518788
0.518788
0.518788
0.518788
0.518788
0.518788
0.518788
0.518788
0.518788
0.518788
0.518788
0.518788
0.518788
0.518788
0.518788
0.518788
0.518788
0.518787
0.518781
0.481143
0.468801
0.895203
0.999073
0.999998
0.999583
0.993672
0.994732
0.996784
0.997037
0.994513
0.986418
0.992199
0.992302
0.993362
0.992648
0.989881
0.993684
0.992501
0.996725
0.993551
0.941799
0.997118
0.993634
0.997086
0.997751
0.993217
0.998107
0.999205
0.997571
0.997199
0.999203
0.9991
0.998212
0.9868
0.996744
0.998536
0.999853
0.518788
0.518788
0.518788
0.518788
0.518788
0.518788
0.518788
0.518788
0.518788
0.518788
0.518788
0.518788
0.518788
0.518788
0.518788
0.518788
0.518788
0.518788
0.518788
0.518788
0.518788
0.518788
0.518788
0.518788
0.518788
0.518788
0.518788
0.518788
0.518788
0.518788
0.518788
0.518788
0.518788
0.518788
0.518788
0.518788
0.518788
0.518788
0.518788
0.518788
0.518788
0.518788
0.518788
0.518788
0.518788
0.518788
0.518788
0.518788
0.518788
0.518788
0.518788
0.518788
0.518788
0.518788
0.518788
0.518788
0.518787
0.516596
0.471731
0.479368
0.787921
0.991991
0.999993
0.999993
0.998182
0.991201
0.994185
0.974764
0.99231
0.990991
0.964246
0.984684
0.971885
0.935407
0.144502
0.0738534
0.97415
0.255612
0.908642
0.938128
0.888532
0.0987201
0.91265
0.97974
0.896245
0.9632
0.94403
0.98728
0.966465
0.994594
0.994743
0.993141
0.998784
0.99794
0.998946
0.999875
0.518788
0.518788
0.518788
0.518788
0.518788
0.518788
0.518788
0.518788
0.518788
0.518788
0.518788
0.518788
0.518788
0.518788
0.518788
0.518788
0.518788
0.518788
0.518788
0.518788
0.518788
0.518788
0.518788
0.518788
0.518788
0.518788
0.518788
0.518788
0.518788
0.518788
0.518788
0.518788
0.518788
0.518788
0.518788
0.518788
0.518788
0.518788
0.518788
0.518788
0.518788
0.518788
0.518788
0.518788
0.518788
0.518788
0.518788
0.518788
0.518788
0.518788
0.518788
0.518788
0.518788
0.518788
0.518788
0.518788
0.518785
0.518733
0.518786
0.476219
0.808193
0.999402
0.999994
0.999562
0.998958
0.998287
0.992944
0.995134
0.991958
0.984704
0.988373
0.389623
2.38576e-06
0.741207
0.900972
0.324845
0.888983
0.935813
0.986466
0.993121
0.994034
0.994242
0.991131
0.989408
0.981727
0.971533
0.939003
0.979084
0.974063
0.995619
0.996307
0.992834
0.99792
0.997779
0.998933
0.999867
0.518788
0.518788
0.518788
0.518788
0.518788
0.518788
0.518788
0.518788
0.518788
0.518788
0.518788
0.518788
0.518788
0.518788
0.518788
0.518788
0.518788
0.518788
0.518788
0.518788
0.518788
0.518788
0.518788
0.518788
0.518788
0.518788
0.518788
0.518788
0.518788
0.518788
0.518788
0.518788
0.518788
0.518788
0.518788
0.518788
0.518788
0.518788
0.518788
0.518788
0.518788
0.518788
0.518788
0.518788
0.518788
0.518788
0.518788
0.518788
0.518788
0.518788
0.518788
0.518788
0.518788
0.518788
0.518788
0.518788
0.518786
0.518783
0.536463
0.442332
0.549377
0.999991
0.999887
0.999888
0.999882
0.999817
0.999687
0.999401
0.999042
0.999452
0.999292
0.998905
0.999683
0.999702
0.999601
0.999328
0.998748
0.9974
0.99819
0.998333
0.997926
0.996127
0.99011
0.944927
0.989487
0.990994
0.991934
0.986621
0.981024
0.993564
0.992139
0.997172
0.99888
0.998018
0.999119
0.999873
0.518788
0.518788
0.518788
0.518788
0.518788
0.518788
0.518788
0.518788
0.518788
0.518788
0.518788
0.518788
0.518788
0.518788
0.518788
0.518788
0.518788
0.518788
0.518788
0.518788
0.518788
0.518788
0.518788
0.518788
0.518788
0.518788
0.518788
0.518788
0.518788
0.518788
0.518788
0.518788
0.518788
0.518788
0.518788
0.518788
0.518788
0.518788
0.518788
0.518788
0.518788
0.518788
0.518788
0.518788
0.518788
0.518788
0.518788
0.518788
0.518788
0.518788
0.518788
0.518788
0.518788
0.518788
0.518788
0.518788
0.518787
0.51881
0.518427
0.512295
0.422617
2.03514e-06
0.999843
0.999611
0.999175
0.998927
0.999476
0.998661
0.998555
0.999358
0.999424
0.999192
0.998526
0.997453
0.999182
0.999823
0.999965
0.999992
0.99999
0.999477
0.999615
0.997413
0.998933
0.999324
0.982866
0.908187
0.966955
0.983475
0.991497
0.993225
0.996032
0.997381
0.99838
0.987849
0.999062
0.999871
0.518788
0.518788
0.518788
0.518788
0.518788
0.518788
0.518788
0.518788
0.518788
0.518788
0.518788
0.518788
0.518788
0.518788
0.518788
0.518788
0.518788
0.518788
0.518788
0.518788
0.518788
0.518788
0.518788
0.518788
0.518788
0.518788
0.518788
0.518788
0.518788
0.518788
0.518788
0.518788
0.518788
0.518788
0.518788
0.518788
0.518788
0.518788
0.518788
0.518788
0.518788
0.518788
0.518788
0.518788
0.518788
0.518788
0.518788
0.518788
0.518788
0.518788
0.518788
0.518788
0.518788
0.518788
0.518788
0.518788
0.518787
0.51878
0.518608
0.4637
0.837287
0.980095
0.942094
0.965189
0.943013
0.937414
0.933433
0.905253
0.979767
0.0977413
0.948973
0.000105616
0.00588742
0.978565
0.219957
8.7783e-05
0.860704
0.321993
0.990944
0.982807
0.998635
0.999465
0.999916
0.999989
0.999991
0.999684
0.999823
0.999707
0.969521
0.99735
0.998036
0.997637
0.998323
0.996389
0.999154
0.99987
0.518788
0.518788
0.518788
0.518788
0.518788
0.518788
0.518788
0.518788
0.518788
0.518788
0.518788
0.518788
0.518788
0.518788
0.518788
0.518788
0.518788
0.518788
0.518788
0.518788
0.518788
0.518788
0.518788
0.518788
0.518788
0.518788
0.518788
0.518788
0.518788
0.518788
0.518788
0.518788
0.518788
0.518788
0.518788
0.518788
0.518788
0.518788
0.518788
0.518788
0.518788
0.518788
0.518788
0.518788
0.518788
0.518788
0.518788
0.518788
0.518788
0.518788
0.518788
0.518788
0.518788
0.518788
0.518788
0.51879
0.518801
0.518925
0.520221
0.385773
4.65149e-05
1.30698e-05
0.0202831
0.013151
0.10217
0.774453
0.681547
0.517961
7.91513e-05
1.84183e-08
0.00196474
0.00554157
0.297296
0.497469
0.518488
0.00148069
0.0195819
3.98241e-10
0.107447
0.663776
9.50501e-06
0.183152
1.31511e-06
0.958477
0.927487
0.996559
0.999541
0.999874
0.999993
0.999667
0.998604
0.999061
0.999182
0.999837
0.999907
0.999947
0.518788
0.518788
0.518788
0.518788
0.518788
0.518788
0.518788
0.518788
0.518788
0.518788
0.518788
0.518788
0.518788
0.518788
0.518788
0.518788
0.518788
0.518788
0.518788
0.518788
0.518788
0.518788
0.518788
0.518788
0.518788
0.518788
0.518788
0.518788
0.518788
0.518788
0.518788
0.518788
0.518788
0.518788
0.518788
0.518788
0.518788
0.518788
0.518788
0.518788
0.518788
0.518788
0.518788
0.518788
0.518788
0.518788
0.518788
0.518788
0.518788
0.518788
0.518788
0.518788
0.518788
0.518787
0.518789
0.518788
0.518788
0.518765
0.526853
0.363527
0.943466
0.39929
0.733489
0.681205
0.000292174
0.782988
0.751749
0.0542183
0.46147
0.000620659
3.78575e-07
0.690447
0.43378
0.0868826
0.791539
0.0180852
7.16087e-10
0.421777
0.388352
0.293541
0.0221989
0.141259
0.0525485
0.334079
0.000552522
0.40782
0.0090922
4.29359e-06
0.948682
0.997568
0.996155
0.996961
0.997425
0.998427
0.997723
0.999604
0.518788
0.518788
0.518788
0.518788
0.518788
0.518788
0.518788
0.518788
0.518788
0.518788
0.518788
0.518788
0.518788
0.518788
0.518788
0.518788
0.518788
0.518788
0.518788
0.518788
0.518788
0.518788
0.518788
0.518788
0.518788
0.518788
0.518788
0.518788
0.518788
0.518788
0.518788
0.518788
0.518788
0.518788
0.518788
0.518788
0.518788
0.518788
0.518788
0.518788
0.518788
0.518788
0.518788
0.518788
0.518788
0.518788
0.518788
0.518788
0.518788
0.518788
0.518788
0.518788
0.518788
0.518788
0.518788
0.518788
0.518788
0.518783
0.518761
0.38991
0.775638
0.00759859
0.00013662
0.00350758
0.000138043
0.414108
0.174721
0.000875549
0.0111783
0.360338
7.45767e-09
0.253691
0.661808
0.0909146
0.121475
0.590917
0.0229728
0.529073
0.588794
0.64718
0.856019
0.209641
0.630913
0.787537
0.640394
0.000865488
0.145783
0.192515
5.08585e-08
0.317447
0.750032
0.00102916
0.000648851
2.17307e-07
0.00124064
0.000769538
0.518788
0.518788
0.518788
0.518788
0.518788
0.518788
0.518788
0.518788
0.518788
0.518788
0.518788
0.518788
0.518788
0.518788
0.518788
0.518788
0.518788
0.518788
0.518788
0.518788
0.518788
0.518788
0.518788
0.518788
0.518788
0.518788
0.518788
0.518788
0.518788
0.518788
0.518788
0.518788
0.518788
0.518788
0.518788
0.518788
0.518788
0.518788
0.518788
0.518788
0.518788
0.518788
0.518788
0.518788
0.518788
0.518788
0.518788
0.518788
0.518788
0.518788
0.518788
0.518788
0.518788
0.518788
0.518788
0.518788
0.518788
0.518735
0.51736
0.443782
0.551614
0.134006
0.633621
0.53656
0.0082032
0.000103118
0.34448
0.000744772
0.20221
0.506583
0.41834
0.430182
0.100473
3.50689e-08
0.0705787
0.870273
0.829678
0.854391
0.840112
0.645223
0.0317393
0.575499
0.4256
0.339826
0.488644
0.162251
0.775955
0.73599
0.388211
0.0614652
0.128215
0.000445335
0.0196289
0.187602
0.000225634
0.00420097
0.518788
0.518788
0.518788
0.518788
0.518788
0.518788
0.518788
0.518788
0.518788
0.518788
0.518788
0.518788
0.518788
0.518788
0.518788
0.518788
0.518788
0.518788
0.518788
0.518788
0.518788
0.518788
0.518788
0.518788
0.518788
0.518788
0.518788
0.518788
0.518788
0.518788
0.518788
0.518788
0.518788
0.518788
0.518788
0.518788
0.518788
0.518788
0.518788
0.518788
0.518788
0.518788
0.518788
0.518788
0.518788
0.518788
0.518788
0.518788
0.518788
0.518788
0.518788
0.518788
0.518788
0.518788
0.518788
0.518788
0.518788
0.518818
0.519381
0.434916
0.00206119
0.0889417
0.000882872
0.0432224
0.00116174
4.06069e-05
0.0108274
0.000733265
0.891964
0.208972
0.134198
0.000299418
0.336377
0.000371472
0.622403
0.88417
0.934516
8.21141e-08
0.0048696
8.94521e-08
0.418383
0.137952
0.00220115
0.125159
0.250155
0.669405
1.61354e-07
0.0606614
0.000693937
2.79088e-05
0.146439
0.145992
0.0061916
0.662306
0.641053
0.989984
0.518788
0.518788
0.518788
0.518788
0.518788
0.518788
0.518788
0.518788
0.518788
0.518788
0.518788
0.518788
0.518788
0.518788
0.518788
0.518788
0.518788
0.518788
0.518788
0.518788
0.518788
0.518788
0.518788
0.518788
0.518788
0.518788
0.518788
0.518788
0.518788
0.518788
0.518788
0.518788
0.518788
0.518788
0.518788
0.518788
0.518788
0.518788
0.518788
0.518788
0.518788
0.518788
0.518788
0.518788
0.518788
0.518788
0.518788
0.518788
0.518788
0.518788
0.518788
0.518788
0.518788
0.518788
0.518788
0.518788
0.518788
0.518709
0.541882
0.41572
6.81204e-12
0.0001793
0.976409
0.979299
0.909362
0.994915
0.96297
0.83068
0.70488
0.971838
0.97433
0.972188
0.602536
0.914358
0.962896
0.922673
0.929645
0.974484
0.000116543
0.994682
0.907275
0.986289
0.853409
0.667317
0.0919513
2.35548e-12
0.000211251
0.0573277
0.0113735
0.00614403
9.33275e-07
0.957717
0.937975
0.986587
0.967538
0.999905
0.518788
0.518788
0.518788
0.518788
0.518788
0.518788
0.518788
0.518788
0.518788
0.518788
0.518788
0.518788
0.518788
0.518788
0.518788
0.518788
0.518788
0.518788
0.518788
0.518788
0.518788
0.518788
0.518788
0.518788
0.518788
0.518788
0.518788
0.518788
0.518788
0.518788
0.518788
0.518788
0.518788
0.518788
0.518788
0.518788
0.518788
0.518788
0.518788
0.518788
0.518788
0.518788
0.518788
0.518788
0.518788
0.518788
0.518788
0.518788
0.518788
0.518788
0.518788
0.518788
0.518788
0.518788
0.518788
0.518788
0.518787
0.518775
0.570008
0.425851
0.000400669
0.998073
0.995717
0.985009
0.991669
0.998932
0.999262
0.999398
0.999314
0.999535
0.999639
0.999501
0.999643
0.999708
0.999646
0.999528
0.999283
0.998754
0.997038
0.964115
0.990262
0.997112
0.998316
0.998591
0.998795
0.996103
0.999229
0.999265
0.999615
0.999762
0.99966
0.999864
0.999986
0.999992
0.999804
0.999636
0.518788
0.518788
0.518788
0.518788
0.518788
0.518788
0.518788
0.518788
0.518788
0.518788
0.518788
0.518788
0.518788
0.518788
0.518788
0.518788
0.518788
0.518788
0.518788
0.518788
0.518788
0.518788
0.518788
0.518788
0.518788
0.518788
0.518788
0.518788
0.518788
0.518788
0.518788
0.518788
0.518788
0.518788
0.518788
0.518788
0.518788
0.518788
0.518788
0.518788
0.518788
0.518788
0.518788
0.518788
0.518788
0.518788
0.518788
0.518788
0.518788
0.518788
0.518788
0.518788
0.518788
0.518788
0.518788
0.518788
0.518787
0.518765
0.509787
0.442393
0.672764
0.999035
0.999861
0.999968
0.997227
0.999991
0.996186
0.999425
0.999408
0.999567
0.999603
0.99967
0.999772
0.999839
0.999873
0.999889
0.999898
0.999899
0.999905
0.999833
0.998655
0.999827
0.999916
0.999935
0.999909
0.999905
0.999965
0.999921
0.99987
0.999775
0.994339
0.999685
0.999877
0.999016
0.998753
0.999866
0.518788
0.518788
0.518788
0.518788
0.518788
0.518788
0.518788
0.518788
0.518788
0.518788
0.518788
0.518788
0.518788
0.518788
0.518788
0.518788
0.518788
0.518788
0.518788
0.518788
0.518788
0.518788
0.518788
0.518788
0.518788
0.518788
0.518788
0.518788
0.518788
0.518788
0.518788
0.518788
0.518788
0.518788
0.518788
0.518788
0.518788
0.518788
0.518788
0.518788
0.518788
0.518788
0.518788
0.518788
0.518788
0.518788
0.518788
0.518788
0.518788
0.518788
0.518788
0.518788
0.518788
0.518788
0.518788
0.518788
0.518787
0.51873
0.517416
0.455426
0.595324
0.999991
0.999682
0.999655
0.999028
0.998239
0.997282
0.979895
0.990947
0.994
0.99552
0.99605
0.994217
0.994481
0.996489
0.997924
0.998475
0.998892
0.99906
0.998285
0.999151
0.999428
0.963452
0.981796
0.999279
0.999068
0.998502
0.99899
0.994179
0.999318
0.999375
0.999444
0.999384
0.99915
0.9994
0.999878
0.518788
0.518788
0.518788
0.518788
0.518788
0.518788
0.518788
0.518788
0.518788
0.518788
0.518788
0.518788
0.518788
0.518788
0.518788
0.518788
0.518788
0.518788
0.518788
0.518788
0.518788
0.518788
0.518788
0.518788
0.518788
0.518788
0.518788
0.518788
0.518788
0.518788
0.518788
0.518788
0.518788
0.518788
0.518788
0.518788
0.518788
0.518788
0.518788
0.518788
0.518788
0.518788
0.518788
0.518788
0.518788
0.518788
0.518788
0.518788
0.518788
0.518788
0.518788
0.518788
0.518788
0.518788
0.518788
0.518788
0.518787
0.518559
0.490209
0.55881
0.421845
0.999919
0.999997
0.99982
0.99947
0.997812
0.99678
0.986006
0.99673
0.997709
0.997825
0.997945
0.997924
0.998215
0.998263
0.998478
0.998027
0.993303
0.985759
0.999003
0.994002
0.99879
0.999098
0.999043
0.997459
0.999173
0.99345
0.998387
0.999228
0.997753
0.994553
0.998812
0.999335
0.999328
0.999023
0.999881
0.518788
0.518788
0.518788
0.518788
0.518788
0.518788
0.518788
0.518788
0.518788
0.518788
0.518788
0.518788
0.518788
0.518788
0.518788
0.518788
0.518788
0.518788
0.518788
0.518788
0.518788
0.518788
0.518788
0.518788
0.518788
0.518788
0.518788
0.518788
0.518788
0.518788
0.518788
0.518788
0.518788
0.518788
0.518788
0.518788
0.518788
0.518788
0.518788
0.518788
0.518788
0.518788
0.518788
0.518788
0.518788
0.518788
0.518788
0.518788
0.518788
0.518788
0.518788
0.518788
0.518788
0.518788
0.518788
0.518788
0.518787
0.518627
0.508879
0.420225
0.865788
0.997232
0.999995
0.99712
0.998806
0.997136
0.996297
0.99694
0.997334
0.996144
0.987653
0.985613
0.958967
0.982096
0.842765
0.62457
0.99224
0.968436
0.998444
0.950261
0.999128
0.999358
0.996815
0.997797
0.996038
0.998539
0.994893
0.997796
0.985595
0.998919
0.999213
0.998106
0.99873
0.999199
0.999115
0.999876
0.518788
0.518788
0.518788
0.518788
0.518788
0.518788
0.518788
0.518788
0.518788
0.518788
0.518788
0.518788
0.518788
0.518788
0.518788
0.518788
0.518788
0.518788
0.518788
0.518788
0.518788
0.518788
0.518788
0.518788
0.518788
0.518788
0.518788
0.518788
0.518788
0.518788
0.518788
0.518788
0.518788
0.518788
0.518788
0.518788
0.518788
0.518788
0.518788
0.518788
0.518788
0.518788
0.518788
0.518788
0.518788
0.518788
0.518788
0.518788
0.518788
0.518788
0.518788
0.518788
0.518788
0.518788
0.518788
0.518788
0.518785
0.518776
0.518627
0.368302
0.8157
0.994947
0.999992
0.999992
0.99838
0.932825
0.992853
0.935392
0.992751
0.993064
0.987624
0.920664
0.978215
0.979513
0.983775
0.979327
0.865733
0.918591
0.584984
0.84004
0.929558
0.886003
0.91801
0.977261
0.987914
0.976183
0.963783
0.985043
0.981184
0.754747
0.988386
0.99713
0.994925
0.994582
0.998301
0.999852
0.518788
0.518788
0.518788
0.518788
0.518788
0.518788
0.518788
0.518788
0.518788
0.518788
0.518788
0.518788
0.518788
0.518788
0.518788
0.518788
0.518788
0.518788
0.518788
0.518788
0.518788
0.518788
0.518788
0.518788
0.518788
0.518788
0.518788
0.518788
0.518788
0.518788
0.518788
0.518788
0.518788
0.518788
0.518788
0.518788
0.518788
0.518788
0.518788
0.518788
0.518788
0.518788
0.518788
0.518788