/*--------------------------------*- C++ -*----------------------------------*\
| =========                 |                                                 |
| \\      /  F ield         | OpenFOAM: The Open Source CFD Toolbox           |
|  \\    /   O peration     | Version:  2.3.0                                 |
|   \\  /    A nd           | Web:      www.OpenFOAM.org                      |
|    \\/     M anipulation  |                                                 |
\*---------------------------------------------------------------------------*/
FoamFile
{
    version     2.0;
    format      ascii;
    class       volScalarField;
    location    "45";
    object      alpha.water;
}
// * * * * * * * * * * * * * * * * * * * * * * * * * * * * * * * * * * * * * //

dimensions      [0 0 0 0 0 0 0];

internalField   nonuniform List<scalar> 
6144
(
4.07883e-06
4.81762e-06
5.24637e-06
5.67459e-06
6.17861e-06
7.20938e-06
8.21499e-06
9.05921e-06
9.66589e-06
9.92691e-06
9.97119e-06
9.97891e-06
9.98198e-06
9.98621e-06
9.98789e-06
9.98944e-06
9.9887e-06
9.98924e-06
9.98875e-06
9.98888e-06
9.9887e-06
9.98838e-06
9.98779e-06
9.9873e-06
9.98677e-06
9.98642e-06
9.98605e-06
9.98561e-06
9.98509e-06
9.98461e-06
9.98402e-06
9.98346e-06
9.98278e-06
9.98208e-06
9.98121e-06
9.98042e-06
9.97964e-06
9.97896e-06
9.97804e-06
9.97697e-06
9.97667e-06
9.98187e-06
1.0195e-05
1.14715e-05
1.61444e-05
2.87543e-05
4.65347e-05
6.03213e-05
6.83518e-05
7.36536e-05
7.76454e-05
8.29119e-05
8.88969e-05
9.20409e-05
8.74232e-05
9.17967e-05
9.2347e-05
9.08601e-05
0.00235802
0.0796023
0.976193
0.999867
0.999999
1
1
1
1
1
1
1
1
1
1
1
1
1
1
1
0.999999
0.999999
0.999999
0.999999
0.999999
1
1
1
1
1
1
1
1
1
1
1
1
1
3.73415e-06
4.69058e-06
5.49047e-06
5.99992e-06
6.68735e-06
7.48055e-06
8.31943e-06
9.12051e-06
9.68894e-06
9.91646e-06
9.9664e-06
9.97735e-06
9.98281e-06
9.99053e-06
9.99497e-06
9.99738e-06
9.99698e-06
9.99717e-06
9.9964e-06
9.99635e-06
9.99608e-06
9.99556e-06
9.99498e-06
9.99454e-06
9.99418e-06
9.99403e-06
9.9939e-06
9.99361e-06
9.99336e-06
9.99314e-06
9.99292e-06
9.99271e-06
9.99249e-06
9.99212e-06
9.99161e-06
9.991e-06
9.99035e-06
9.98961e-06
9.98862e-06
9.98761e-06
9.98704e-06
9.99169e-06
1.02716e-05
1.2214e-05
1.77234e-05
2.77267e-05
3.79984e-05
4.44574e-05
4.69214e-05
4.83405e-05
5.84665e-05
7.63328e-05
9.58789e-05
0.000109384
0.000106958
0.000106743
9.72045e-05
0.00010192
0.00118509
0.0565821
0.983452
0.999967
1
1
1
1
1
1
1
1
1
1
1
1
1
1
1
1
0.999999
0.999999
0.999999
0.999999
1
1
1
1
1
1
1
1
1
1
1
1
1
1
3.5445e-06
4.40115e-06
5.40634e-06
6.04278e-06
6.89278e-06
7.63531e-06
8.4108e-06
9.05394e-06
9.50709e-06
9.76465e-06
9.87976e-06
9.93387e-06
9.96409e-06
9.98134e-06
9.99003e-06
9.99534e-06
9.99637e-06
9.99692e-06
9.99656e-06
9.99656e-06
9.99623e-06
9.99587e-06
9.99541e-06
9.99499e-06
9.99458e-06
9.99428e-06
9.994e-06
9.99373e-06
9.99348e-06
9.99325e-06
9.99292e-06
9.99245e-06
9.99167e-06
9.99078e-06
9.98975e-06
9.98876e-06
9.98769e-06
9.9867e-06
9.98592e-06
9.98634e-06
9.98902e-06
1.00047e-05
1.02348e-05
1.17687e-05
1.61198e-05
2.20652e-05
2.66648e-05
3.01046e-05
3.35323e-05
4.02242e-05
5.19556e-05
8.02868e-05
0.000106175
0.000111173
0.000108745
0.000108378
0.000102553
0.000110863
0.000425765
0.0634737
0.986608
0.999998
1
1
1
1
0.999999
0.999999
1
1
1
1
1
1
0.999999
0.999999
0.999999
0.999999
0.999999
0.999999
0.999999
1
1
1
0.999999
0.999999
0.999999
0.999999
0.999999
1
1
1
1
1
1
1
3.42716e-06
4.11892e-06
5.12734e-06
5.78111e-06
6.81435e-06
7.62884e-06
8.34773e-06
8.94182e-06
9.3968e-06
9.67912e-06
9.82778e-06
9.91118e-06
9.95428e-06
9.97569e-06
9.9852e-06
9.99123e-06
9.9922e-06
9.99255e-06
9.99215e-06
9.99209e-06
9.99171e-06
9.99139e-06
9.99087e-06
9.99026e-06
9.98967e-06
9.98906e-06
9.98864e-06
9.98822e-06
9.98803e-06
9.98787e-06
9.98786e-06
9.98772e-06
9.98745e-06
9.98691e-06
9.9863e-06
9.98557e-06
9.98481e-06
9.98396e-06
9.98376e-06
9.98412e-06
9.98778e-06
1.00087e-05
1.02077e-05
1.13472e-05
1.46288e-05
1.9099e-05
2.23938e-05
2.46534e-05
2.77492e-05
3.75642e-05
7.09127e-05
0.000103322
0.000111566
0.000110107
0.000107626
0.000105673
0.000102619
0.000129088
0.000272063
0.0989896
0.98485
0.999988
0.999995
0.999998
0.999998
0.999998
0.999998
0.999999
0.999999
0.999999
0.999999
0.999999
1
1
1
0.999999
0.999999
0.999999
0.999999
0.999999
0.999999
0.999999
0.999999
0.999999
0.999999
0.999999
0.999999
0.999999
0.999999
0.999999
0.999999
0.999999
0.999999
1
1
1
3.28237e-06
3.86929e-06
4.83144e-06
5.45771e-06
6.47582e-06
7.30893e-06
8.24557e-06
8.84242e-06
9.29263e-06
9.60511e-06
9.78933e-06
9.89964e-06
9.95366e-06
9.97819e-06
9.98815e-06
9.99436e-06
9.99555e-06
9.99603e-06
9.99587e-06
9.99604e-06
9.99583e-06
9.99568e-06
9.99518e-06
9.99464e-06
9.99396e-06
9.99335e-06
9.9927e-06
9.99214e-06
9.99151e-06
9.991e-06
9.9904e-06
9.98981e-06
9.98904e-06
9.98826e-06
9.98735e-06
9.98647e-06
9.98545e-06
9.98441e-06
9.98387e-06
9.98433e-06
9.9882e-06
1.00144e-05
1.02113e-05
1.10531e-05
1.32821e-05
1.65849e-05
1.84142e-05
2.05339e-05
3.56457e-05
6.37766e-05
9.85203e-05
0.000112416
0.000112017
0.000111607
0.000111381
0.000110797
0.000110674
0.000110194
0.000107281
0.219513
0.976772
0.999407
0.999526
0.999619
0.999631
0.999654
0.999682
0.999746
0.999801
0.999852
0.999893
0.999925
0.999947
0.999961
0.999971
0.999976
0.99998
0.999982
0.999984
0.999986
0.999989
0.999991
0.999993
0.999995
0.999996
0.999997
0.999999
0.999999
0.999999
0.999999
0.999999
0.999999
0.999999
0.999999
1
1
3.10829e-06
3.64059e-06
4.4917e-06
5.08872e-06
6.14094e-06
6.92537e-06
8.00613e-06
8.73022e-06
9.18578e-06
9.53346e-06
9.75101e-06
9.88568e-06
9.94849e-06
9.9737e-06
9.98282e-06
9.98847e-06
9.98942e-06
9.98971e-06
9.98956e-06
9.98968e-06
9.98964e-06
9.98967e-06
9.98947e-06
9.98919e-06
9.98876e-06
9.98834e-06
9.98794e-06
9.98748e-06
9.98704e-06
9.98655e-06
9.98606e-06
9.98548e-06
9.98483e-06
9.9841e-06
9.98335e-06
9.98255e-06
9.98179e-06
9.98131e-06
9.98127e-06
9.98165e-06
9.9852e-06
1.00186e-05
1.01963e-05
1.08207e-05
1.22367e-05
1.39617e-05
1.51295e-05
2.60197e-05
6.80798e-05
9.9838e-05
0.000112944
0.00011365
0.000113549
0.000113808
0.000113936
0.000112099
0.000111285
0.000116554
0.000107281
0.43428
0.992051
0.994262
0.994321
0.994409
0.994408
0.994622
0.994823
0.995119
0.995518
0.995927
0.996362
0.996793
0.997202
0.997561
0.997868
0.998121
0.998334
0.998505
0.998644
0.998774
0.998894
0.999023
0.999159
0.999292
0.999421
0.999533
0.999631
0.999719
0.999788
0.999842
0.999897
0.999945
0.999976
0.999992
1
1
2.91211e-06
3.40644e-06
4.14653e-06
4.73496e-06
5.84616e-06
6.65292e-06
7.59245e-06
8.59111e-06
9.10054e-06
9.4653e-06
9.71001e-06
9.87414e-06
9.94784e-06
9.97629e-06
9.98621e-06
9.99289e-06
9.99385e-06
9.99417e-06
9.99388e-06
9.99401e-06
9.99377e-06
9.99311e-06
9.99236e-06
9.99181e-06
9.99113e-06
9.9905e-06
9.98983e-06
9.98926e-06
9.98876e-06
9.98827e-06
9.98775e-06
9.98717e-06
9.98643e-06
9.98563e-06
9.98466e-06
9.98359e-06
9.98253e-06
9.98195e-06
9.9818e-06
9.98204e-06
9.98452e-06
1.0016e-05
1.01605e-05
1.05744e-05
1.14022e-05
1.20192e-05
1.73346e-05
5.6037e-05
0.000106762
0.000115734
0.000113208
0.0001137
0.000115489
0.000116803
0.000116898
0.000114647
0.000109316
0.000116294
0.000107281
0.447787
0.982799
0.98581
0.985718
0.985585
0.985739
0.985982
0.986418
0.986638
0.986852
0.986989
0.987121
0.987227
0.987399
0.98766
0.98803
0.988445
0.988923
0.989401
0.989873
0.990359
0.990777
0.991214
0.991683
0.992233
0.992864
0.993578
0.994335
0.995091
0.995854
0.99662
0.997521
0.998534
0.99934
0.999825
1
1
2.68013e-06
3.16339e-06
3.82384e-06
4.42757e-06
5.57313e-06
6.48648e-06
7.28232e-06
8.41287e-06
9.01049e-06
9.42809e-06
9.68762e-06
9.86415e-06
9.94459e-06
9.97498e-06
9.98392e-06
9.99259e-06
9.99358e-06
9.99404e-06
9.99374e-06
9.99385e-06
9.99369e-06
9.99385e-06
9.99384e-06
9.99381e-06
9.9938e-06
9.99368e-06
9.99348e-06
9.99321e-06
9.99292e-06
9.99252e-06
9.99198e-06
9.9913e-06
9.99048e-06
9.98962e-06
9.98865e-06
9.9876e-06
9.98666e-06
9.98617e-06
9.98601e-06
9.98668e-06
9.99008e-06
1.00139e-05
1.01175e-05
1.04162e-05
1.08056e-05
1.18656e-05
2.94044e-05
9.91755e-05
0.000118893
0.000117343
0.000115933
0.000115447
0.000115204
0.000114615
0.00011379
0.000114382
0.000108707
0.00011383
0.000107281
0.382534
0.981206
0.985883
0.985704
0.985638
0.985925
0.986132
0.986362
0.986479
0.986495
0.986228
0.985894
0.985506
0.984987
0.984539
0.984165
0.983854
0.983604
0.983395
0.983218
0.982984
0.982629
0.9821
0.981489
0.980904
0.980437
0.980177
0.981046
0.982252
0.984165
0.986669
0.989682
0.993318
0.996794
0.999413
1
0.999958
2.4317e-06
2.91314e-06
3.45407e-06
4.11177e-06
5.25352e-06
6.34127e-06
7.33285e-06
8.13898e-06
8.91983e-06
9.38411e-06
9.65609e-06
9.84543e-06
9.93376e-06
9.96748e-06
9.97659e-06
9.98674e-06
9.98744e-06
9.98826e-06
9.98789e-06
9.98797e-06
9.98794e-06
9.98845e-06
9.98867e-06
9.98882e-06
9.98892e-06
9.98893e-06
9.9888e-06
9.98858e-06
9.98833e-06
9.98802e-06
9.98759e-06
9.98704e-06
9.98634e-06
9.98563e-06
9.98491e-06
9.98435e-06
9.98425e-06
9.98425e-06
9.98425e-06
9.98426e-06
9.98708e-06
1.00062e-05
1.00639e-05
1.02636e-05
1.05354e-05
1.18868e-05
3.03947e-05
9.86837e-05
0.000119799
0.000120373
0.000120444
0.000119851
0.00011772
0.000119582
0.000120891
0.000120951
0.000109547
0.000117153
0.000107281
0.192637
0.977065
0.99665
0.997499
0.998618
0.998952
0.999314
0.999307
0.999243
0.99914
0.999035
0.998922
0.998816
0.998745
0.998676
0.998629
0.998594
0.998562
0.998533
0.998494
0.998436
0.998379
0.998324
0.998267
0.998225
0.998201
0.998238
0.99842
0.998647
0.998918
0.999277
0.999595
0.999813
0.999913
0.999947
1
1
2.2418e-06
2.58359e-06
3.01293e-06
3.63544e-06
4.84034e-06
6.11688e-06
7.4232e-06
7.96597e-06
8.84433e-06
9.38919e-06
9.65806e-06
9.83379e-06
9.92555e-06
9.96822e-06
9.98065e-06
9.99183e-06
9.99316e-06
9.99404e-06
9.9934e-06
9.99329e-06
9.9931e-06
9.99324e-06
9.99319e-06
9.993e-06
9.99274e-06
9.99239e-06
9.99193e-06
9.99146e-06
9.99097e-06
9.99043e-06
9.98979e-06
9.98903e-06
9.98813e-06
9.98715e-06
9.98624e-06
9.98547e-06
9.985e-06
9.98455e-06
9.98425e-06
9.98425e-06
9.98661e-06
1.00033e-05
1.00463e-05
1.02268e-05
1.07139e-05
1.23497e-05
2.87174e-05
8.98053e-05
0.000118746
0.000120677
0.000121857
0.000122524
0.000121686
0.000120938
0.000120812
0.000120951
0.000114523
0.000117151
0.000107281
0.0991029
0.986024
0.999905
0.999957
0.999994
0.999996
0.999999
0.999999
0.999999
0.999999
0.999999
0.999999
0.999989
0.999989
0.999983
0.999979
0.999976
0.999973
0.999971
0.999969
0.999969
0.999968
0.99997
0.999971
0.999973
0.999977
0.999981
0.999984
0.999989
0.999993
0.999997
0.999999
1
1
1
0.999999
1
2.07741e-06
2.308e-06
2.5438e-06
3.05963e-06
4.25853e-06
5.63163e-06
7.26983e-06
8.2161e-06
8.87482e-06
9.41457e-06
9.67705e-06
9.82753e-06
9.90744e-06
9.95684e-06
9.97317e-06
9.98586e-06
9.98782e-06
9.98953e-06
9.98948e-06
9.98994e-06
9.99026e-06
9.9907e-06
9.99101e-06
9.99118e-06
9.99127e-06
9.99124e-06
9.99106e-06
9.99076e-06
9.99039e-06
9.98998e-06
9.98945e-06
9.98872e-06
9.98786e-06
9.98697e-06
9.98635e-06
9.98598e-06
9.98579e-06
9.98555e-06
9.9853e-06
9.98542e-06
9.98797e-06
1.00018e-05
1.00475e-05
1.0256e-05
1.11331e-05
1.27402e-05
2.15725e-05
6.43785e-05
0.000107785
0.000119768
0.000121513
0.000122572
0.00012173
0.00012068
0.000118375
0.000118681
0.000111776
0.000114763
0.000107281
0.0329072
0.96664
0.999999
0.999999
0.999999
0.999999
0.999999
0.999999
0.999999
0.999999
0.999999
0.999999
0.999999
0.999999
0.999999
0.999999
0.999999
0.999999
0.999999
0.999999
0.999999
0.999999
0.999999
0.999999
0.999999
0.999999
0.999999
0.999999
0.999999
0.999999
0.999999
0.999999
0.999999
0.999999
0.999999
0.999999
0.999999
2.01995e-06
2.13864e-06
2.16709e-06
2.42693e-06
3.40232e-06
4.75133e-06
6.72858e-06
8.24345e-06
8.93437e-06
9.46783e-06
9.73205e-06
9.83858e-06
9.88725e-06
9.92734e-06
9.95175e-06
9.97658e-06
9.98735e-06
9.99034e-06
9.99013e-06
9.99059e-06
9.99089e-06
9.99128e-06
9.99157e-06
9.99177e-06
9.99187e-06
9.99189e-06
9.99175e-06
9.99152e-06
9.99116e-06
9.99098e-06
9.99082e-06
9.99039e-06
9.98976e-06
9.98908e-06
9.98874e-06
9.9886e-06
9.98861e-06
9.98858e-06
9.98847e-06
9.98839e-06
9.99036e-06
1.00023e-05
1.00566e-05
1.03637e-05
1.15751e-05
1.48748e-05
1.89321e-05
4.06121e-05
8.28413e-05
0.000109983
0.000117896
0.000120987
0.000120646
0.000120144
0.000118263
0.000116347
0.000107908
0.000114117
0.000130578
0.0280766
0.961234
0.999999
0.999999
0.999999
0.999999
0.999999
0.999999
0.999999
0.999999
0.999999
0.999999
0.999999
0.999999
0.999999
0.999999
0.999999
0.999999
0.999999
0.999999
0.999999
0.999999
0.999999
0.999999
0.999999
1
1
0.999999
0.999999
0.999999
0.999999
0.999999
0.999999
0.999999
0.999999
0.999999
0.999999
1.92681e-06
2.09042e-06
2.05241e-06
2.0458e-06
2.5552e-06
3.62329e-06
5.36444e-06
7.35585e-06
8.98802e-06
9.51931e-06
9.77096e-06
9.86026e-06
9.90144e-06
9.92778e-06
9.95428e-06
9.98488e-06
9.99405e-06
9.99588e-06
9.995e-06
9.99494e-06
9.99494e-06
9.99509e-06
9.99521e-06
9.99524e-06
9.99519e-06
9.99499e-06
9.99465e-06
9.99426e-06
9.99386e-06
9.9936e-06
9.99327e-06
9.99265e-06
9.99186e-06
9.99102e-06
9.99053e-06
9.99014e-06
9.98989e-06
9.98979e-06
9.98981e-06
9.99059e-06
9.99391e-06
1.00067e-05
1.00727e-05
1.04664e-05
1.19734e-05
1.71196e-05
2.51772e-05
3.39455e-05
5.75729e-05
8.72901e-05
0.00010467
0.000114231
0.00011479
0.000113383
0.000109924
0.000107742
0.000102347
0.000115861
0.000193139
0.0505797
0.963798
0.999998
0.999999
0.999999
0.999999
0.999999
0.999999
0.999999
0.999999
0.999999
0.999999
0.999999
0.999999
0.999999
0.999999
0.999999
0.999999
0.999999
0.999999
0.999999
0.999999
0.999999
0.999999
0.999999
1
1
1
1
0.999999
0.999999
0.999999
0.999999
0.999999
0.999999
0.999999
0.999999
1.95824e-06
2.22632e-06
2.07269e-06
2.03611e-06
2.01567e-06
2.72097e-06
4.00885e-06
5.98799e-06
8.52732e-06
9.53609e-06
9.76678e-06
9.85087e-06
9.88853e-06
9.91836e-06
9.94779e-06
9.98604e-06
1.00009e-05
1.0001e-05
1.00001e-05
9.99976e-06
9.99962e-06
9.9996e-06
9.99955e-06
9.9994e-06
9.99909e-06
9.99859e-06
9.99796e-06
9.99735e-06
9.99686e-06
9.99645e-06
9.99584e-06
9.99499e-06
9.99399e-06
9.99306e-06
9.99255e-06
9.99212e-06
9.99188e-06
9.99181e-06
9.99223e-06
9.9936e-06
9.99769e-06
1.00118e-05
1.00834e-05
1.05083e-05
1.24543e-05
1.92939e-05
3.15765e-05
4.39396e-05
5.40828e-05
6.95273e-05
8.60108e-05
9.79299e-05
0.000102821
0.000102453
0.000100543
0.000100992
9.96321e-05
0.000127587
0.000306406
0.0305554
0.9453
0.999939
0.999999
0.999999
0.999999
0.999999
0.999999
0.999999
0.999999
0.999999
0.999999
0.999999
0.999999
0.999999
0.999999
0.999999
0.999999
0.999999
0.999999
0.999999
0.999999
0.999999
0.999999
0.999999
0.999999
0.999999
0.999999
0.999999
0.999999
0.999999
0.999999
0.999999
0.999999
0.999999
0.999999
0.999999
2.12236e-06
2.65029e-06
2.55594e-06
2.50102e-06
2.29132e-06
2.29595e-06
3.10144e-06
4.61279e-06
7.57407e-06
9.50195e-06
9.74413e-06
9.81948e-06
9.86121e-06
9.89834e-06
9.93382e-06
9.981e-06
9.99886e-06
9.99953e-06
9.99849e-06
9.99824e-06
9.99813e-06
9.99806e-06
9.99792e-06
9.99768e-06
9.99733e-06
9.99683e-06
9.99622e-06
9.99568e-06
9.99526e-06
9.99488e-06
9.99432e-06
9.99352e-06
9.99269e-06
9.99205e-06
9.9916e-06
9.99129e-06
9.99104e-06
9.99094e-06
9.99119e-06
9.99221e-06
9.99572e-06
1.00101e-05
1.00905e-05
1.06063e-05
1.33277e-05
2.30198e-05
3.81682e-05
4.99504e-05
5.75923e-05
6.56789e-05
7.45665e-05
8.20272e-05
8.72058e-05
8.9497e-05
9.09799e-05
9.65422e-05
9.65921e-05
0.000112402
0.000267313
0.0278309
0.920856
0.999475
0.999999
0.999999
0.999999
0.999999
0.999999
0.999999
0.999999
0.999999
0.999999
0.999999
0.999999
0.999999
0.999999
0.999999
0.999999
0.999999
0.999999
0.999999
0.999999
0.999999
0.999999
0.999999
0.999999
0.999999
0.999999
0.999999
0.999999
0.999999
0.999999
0.999999
0.999999
0.999999
0.999999
0.999999
1.75945e-06
2.13795e-06
2.10073e-06
2.88575e-06
2.96378e-06
2.80348e-06
2.84075e-06
4.19892e-06
6.85396e-06
9.41446e-06
9.69434e-06
9.77777e-06
9.82762e-06
9.87303e-06
9.9234e-06
9.9907e-06
1.00054e-05
1.00054e-05
1.00054e-05
1.00054e-05
1.00052e-05
1.00051e-05
1.00049e-05
1.00046e-05
1.00043e-05
1.00038e-05
1.00032e-05
1.00027e-05
1.00024e-05
1.0002e-05
1.00015e-05
1.00008e-05
9.99998e-06
9.99935e-06
9.99889e-06
9.99859e-06
9.99834e-06
9.9982e-06
9.99835e-06
9.99918e-06
1.00021e-05
1.00159e-05
1.01044e-05
1.0693e-05
1.38929e-05
2.49636e-05
4.25232e-05
5.72531e-05
6.60408e-05
7.18088e-05
7.79147e-05
8.49921e-05
8.77551e-05
9.69785e-05
9.41784e-05
0.000101838
9.69291e-05
0.00013019
0.000401548
0.0492278
0.927838
0.999326
0.999999
0.999999
0.999999
0.999999
0.999999
0.999999
0.999999
0.999999
0.999999
0.999999
0.999999
0.999999
0.999999
0.999999
0.999999
0.999999
0.999999
0.999999
0.999999
0.999999
0.999999
0.999999
0.999999
0.999999
0.999999
0.999999
0.999999
0.999999
0.999999
0.999999
0.999999
0.999999
0.999999
1
3.48181e-06
4.63301e-06
5.25649e-06
5.70198e-06
6.23698e-06
7.42368e-06
8.46603e-06
9.23384e-06
9.69716e-06
9.84697e-06
9.90278e-06
9.94378e-06
9.9752e-06
9.99575e-06
1.00076e-05
1.00095e-05
1.00095e-05
1.00095e-05
1.00095e-05
1.00095e-05
1.00087e-05
1.00078e-05
1.00068e-05
1.00063e-05
1.0006e-05
1.0006e-05
1.0006e-05
1.0006e-05
1.0006e-05
1.0006e-05
1.00058e-05
1.00055e-05
1.00051e-05
1.00046e-05
1.00041e-05
1.00037e-05
1.00034e-05
1.00029e-05
1.00024e-05
1.00023e-05
1.00038e-05
1.0012e-05
1.02007e-05
1.14819e-05
1.62216e-05
2.90828e-05
4.78572e-05
6.1805e-05
6.88018e-05
7.22237e-05
7.42753e-05
7.72771e-05
8.31702e-05
9.09432e-05
9.12285e-05
9.47485e-05
9.60045e-05
0.000101746
0.00155825
0.0678768
0.968054
0.999806
0.999999
1
1
1
1
1
1
1
1
1
1
1
1
1
1
1
1
0.999999
0.999999
0.999999
0.999999
1
1
1
1
1
1
1
1
1
1
1
1
1
2.74466e-06
4.15081e-06
5.69769e-06
6.26664e-06
7.02826e-06
7.86743e-06
8.58387e-06
9.09323e-06
9.38771e-06
9.58609e-06
9.74759e-06
9.86714e-06
9.9387e-06
9.97362e-06
9.99055e-06
1.00041e-05
1.00061e-05
1.00067e-05
1.00063e-05
1.00064e-05
1.00063e-05
1.00067e-05
1.00068e-05
1.00064e-05
1.00059e-05
1.00052e-05
1.00046e-05
1.00041e-05
1.00037e-05
1.00034e-05
1.00029e-05
1.00023e-05
1.00014e-05
1.00004e-05
9.99936e-06
9.99839e-06
9.99747e-06
9.99688e-06
9.99682e-06
9.99884e-06
1.00072e-05
1.00473e-05
1.03444e-05
1.19845e-05
1.66766e-05
2.75211e-05
4.26945e-05
5.22077e-05
5.51379e-05
5.64687e-05
6.26459e-05
7.07383e-05
8.2047e-05
9.95653e-05
0.000100886
0.000103315
9.96628e-05
0.000112985
0.000744241
0.0785079
0.989458
0.99999
1
1
1
1
1
1
1
1
1
1
1
1
1
1
1
1
1
0.999999
0.999999
0.999999
1
1
1
1
1
1
1
1
1
1
1
1
1
1
2.47779e-06
3.41294e-06
5.33049e-06
6.13334e-06
6.88278e-06
7.53672e-06
8.17742e-06
8.69728e-06
9.13203e-06
9.44513e-06
9.66991e-06
9.834e-06
9.92473e-06
9.96636e-06
9.98331e-06
1.00003e-05
1.00029e-05
1.00036e-05
1.00033e-05
1.00034e-05
1.00033e-05
1.00032e-05
1.00028e-05
1.00024e-05
1.00019e-05
1.00015e-05
1.0001e-05
1.00005e-05
1.00001e-05
9.99975e-06
9.99927e-06
9.99858e-06
9.99767e-06
9.9967e-06
9.99575e-06
9.99489e-06
9.99402e-06
9.99362e-06
9.99385e-06
9.99702e-06
1.00087e-05
1.00561e-05
1.02898e-05
1.11252e-05
1.33881e-05
1.90715e-05
2.92309e-05
4.16979e-05
5.37633e-05
6.06797e-05
6.19102e-05
7.0395e-05
9.14112e-05
0.000105254
0.000108312
0.000108938
0.000106218
0.000110819
0.000305712
0.0932415
0.993056
0.999999
0.999999
0.999999
0.999999
0.999999
0.999999
0.999999
0.999999
0.999999
0.999999
0.999999
1
1
1
1
1
0.999999
0.999999
0.999999
0.999999
1
1
1
1
1
1
1
1
1
1
1
1
1
1
1
2.38142e-06
2.80631e-06
4.6514e-06
5.5407e-06
6.35906e-06
7.11515e-06
7.84736e-06
8.46725e-06
9.00599e-06
9.39441e-06
9.64517e-06
9.82278e-06
9.91936e-06
9.96292e-06
9.97883e-06
9.9973e-06
1.00002e-05
1.00007e-05
1.00003e-05
1.00002e-05
9.99998e-06
9.99982e-06
9.99939e-06
9.99891e-06
9.99841e-06
9.99795e-06
9.99751e-06
9.99711e-06
9.99674e-06
9.9964e-06
9.99596e-06
9.99531e-06
9.99445e-06
9.99353e-06
9.99266e-06
9.99192e-06
9.99122e-06
9.99078e-06
9.99083e-06
9.99332e-06
1.00021e-05
1.00337e-05
1.01712e-05
1.06596e-05
1.18433e-05
1.45841e-05
2.12134e-05
3.09156e-05
4.33023e-05
5.13242e-05
6.19811e-05
8.84465e-05
0.000106602
0.000110532
0.000113716
0.000108938
0.00010939
0.000147757
0.000186743
0.119272
0.993445
0.999936
0.999958
0.999988
0.999992
0.999995
0.999996
0.999998
0.999999
0.999999
0.999999
0.999999
0.999999
0.999999
0.999999
0.999999
0.999999
0.999999
0.999999
0.999999
0.999999
0.999999
0.999999
0.999999
0.999999
0.999999
0.999999
0.999999
0.999999
0.999999
0.999999
0.999999
0.999999
0.999999
0.999999
1
2.30326e-06
2.40536e-06
4.07165e-06
5.08108e-06
5.99006e-06
6.82224e-06
7.64274e-06
8.33967e-06
8.94211e-06
9.37238e-06
9.63523e-06
9.81825e-06
9.91699e-06
9.96125e-06
9.97648e-06
9.99574e-06
9.99889e-06
9.9993e-06
9.99887e-06
9.99871e-06
9.99843e-06
9.99821e-06
9.99776e-06
9.99726e-06
9.99674e-06
9.99629e-06
9.99587e-06
9.9955e-06
9.99515e-06
9.99483e-06
9.99442e-06
9.99381e-06
9.99298e-06
9.99208e-06
9.99123e-06
9.99053e-06
9.98997e-06
9.98954e-06
9.98945e-06
9.99141e-06
9.99851e-06
1.00233e-05
1.01302e-05
1.05277e-05
1.14724e-05
1.34516e-05
1.71985e-05
2.37151e-05
3.57994e-05
5.45392e-05
8.69303e-05
0.000107848
0.000111909
0.000116253
0.000138879
0.000145927
0.000143553
0.000137717
0.000112097
0.29348
0.987368
0.99682
0.997416
0.9982
0.998515
0.998778
0.999028
0.999276
0.999501
0.999685
0.999798
0.999883
0.999937
0.999954
0.99996
0.999964
0.999967
0.99997
0.999972
0.999974
0.999976
0.999977
0.999979
0.999981
0.999984
0.999985
0.999986
0.999988
0.99999
0.999993
0.999994
0.999996
0.999997
0.999998
0.999999
0.999999
2.196e-06
2.09655e-06
3.45363e-06
4.59403e-06
5.64728e-06
6.59387e-06
7.50902e-06
8.26782e-06
8.91158e-06
9.36495e-06
9.63263e-06
9.81704e-06
9.91611e-06
9.96023e-06
9.97493e-06
9.99456e-06
9.99784e-06
9.99813e-06
9.99767e-06
9.99744e-06
9.99711e-06
9.99687e-06
9.99638e-06
9.99587e-06
9.99537e-06
9.99493e-06
9.99454e-06
9.9942e-06
9.99392e-06
9.99366e-06
9.99332e-06
9.99276e-06
9.99198e-06
9.99113e-06
9.99034e-06
9.98969e-06
9.98917e-06
9.98875e-06
9.98855e-06
9.99e-06
9.99607e-06
1.00178e-05
1.01164e-05
1.04882e-05
1.1351e-05
1.30444e-05
1.587e-05
2.56056e-05
5.91714e-05
9.15959e-05
0.000110434
0.000114728
0.000112053
0.000122314
0.000143298
0.000146617
0.000142414
0.000127317
0.000107281
0.468246
0.975052
0.978741
0.97875
0.979936
0.980917
0.981998
0.983371
0.984583
0.985752
0.986804
0.987764
0.988743
0.989729
0.990641
0.99159
0.992621
0.993542
0.994421
0.995119
0.995681
0.996142
0.996428
0.996712
0.996967
0.997259
0.997557
0.997834
0.99801
0.998069
0.998139
0.998248
0.998507
0.998821
0.999206
0.999559
0.999806
2.0888e-06
1.87424e-06
2.91118e-06
4.04856e-06
5.30043e-06
6.38817e-06
7.40906e-06
8.22533e-06
8.89795e-06
9.36313e-06
9.63236e-06
9.81691e-06
9.91588e-06
9.9598e-06
9.97418e-06
9.99396e-06
9.99735e-06
9.99757e-06
9.99714e-06
9.9969e-06
9.99662e-06
9.99639e-06
9.9959e-06
9.9954e-06
9.99493e-06
9.99451e-06
9.99415e-06
9.99383e-06
9.99359e-06
9.99335e-06
9.99305e-06
9.99252e-06
9.99176e-06
9.99094e-06
9.99016e-06
9.98951e-06
9.98898e-06
9.98858e-06
9.98835e-06
9.98954e-06
9.99507e-06
1.0015e-05
1.0111e-05
1.04711e-05
1.12972e-05
1.25248e-05
1.84421e-05
5.00809e-05
0.000100966
0.000118125
0.000114759
0.000116464
0.000125454
0.000134131
0.000138054
0.000133446
0.000124777
0.000121101
0.000107281
0.380414
0.961105
0.967358
0.965468
0.965061
0.964809
0.964777
0.964793
0.964918
0.964521
0.96409
0.963664
0.963247
0.962941
0.962718
0.962502
0.962242
0.962032
0.961838
0.961684
0.961575
0.961582
0.961682
0.961942
0.96296
0.964161
0.965083
0.96539
0.964188
0.962435
0.960129
0.957959
0.95629
0.955652
0.959553
0.964224
0.971178
1.99093e-06
1.72699e-06
2.4833e-06
3.45614e-06
4.85766e-06
6.15104e-06
7.30503e-06
8.19024e-06
8.89144e-06
9.36807e-06
9.63748e-06
9.82045e-06
9.91856e-06
9.96023e-06
9.97385e-06
9.99353e-06
9.99693e-06
9.99721e-06
9.99695e-06
9.99683e-06
9.99667e-06
9.9968e-06
9.99649e-06
9.99611e-06
9.99574e-06
9.99539e-06
9.99502e-06
9.99467e-06
9.99437e-06
9.99407e-06
9.9937e-06
9.99309e-06
9.99224e-06
9.99138e-06
9.99057e-06
9.98986e-06
9.98925e-06
9.98889e-06
9.9885e-06
9.98953e-06
9.99459e-06
1.00122e-05
1.01019e-05
1.04401e-05
1.13607e-05
1.22251e-05
2.74614e-05
9.18667e-05
0.00012039
0.000120867
0.000122757
0.000125338
0.000126481
0.000125023
0.00011759
0.000112743
0.000109976
0.000113514
0.000107281
0.264004
0.968832
0.981209
0.98088
0.980619
0.978379
0.977028
0.975618
0.974633
0.973592
0.972387
0.970836
0.968873
0.966515
0.964105
0.961881
0.959726
0.957294
0.95495
0.952598
0.949695
0.94675
0.943705
0.940199
0.936888
0.933805
0.930003
0.925311
0.919065
0.91172
0.90245
0.891175
0.877407
0.861045
0.838949
0.791387
0.601128
1.88033e-06
1.63234e-06
2.09876e-06
2.83322e-06
4.21576e-06
5.74058e-06
7.13591e-06
8.14503e-06
8.88876e-06
9.3762e-06
9.64421e-06
9.82571e-06
9.92298e-06
9.96223e-06
9.9754e-06
9.99528e-06
9.99871e-06
9.99873e-06
9.99844e-06
9.99825e-06
9.99807e-06
9.99803e-06
9.99772e-06
9.99737e-06
9.99703e-06
9.99669e-06
9.99636e-06
9.99605e-06
9.99579e-06
9.99554e-06
9.99522e-06
9.99467e-06
9.99389e-06
9.99305e-06
9.99227e-06
9.99161e-06
9.991e-06
9.99058e-06
9.99029e-06
9.99159e-06
9.99633e-06
1.00112e-05
1.00957e-05
1.04253e-05
1.13606e-05
1.24661e-05
3.263e-05
0.000101868
0.000122343
0.000122359
0.000125258
0.00012733
0.000123579
0.000118876
0.000116913
0.000120951
0.000109167
0.000115998
0.000107281
0.138737
0.982703
0.997938
0.998217
0.998632
0.998564
0.99851
0.998563
0.99857
0.998473
0.998346
0.998152
0.997883
0.997517
0.997111
0.996705
0.996242
0.995674
0.995088
0.994533
0.993827
0.992898
0.991584
0.989901
0.988127
0.986785
0.986191
0.986081
0.986683
0.987262
0.989149
0.991673
0.995551
0.99831
0.997656
0.996886
0.996211
1.77506e-06
1.54639e-06
1.77032e-06
2.29312e-06
3.40578e-06
5.13152e-06
6.86051e-06
8.06643e-06
8.89058e-06
9.38517e-06
9.65235e-06
9.83455e-06
9.92919e-06
9.9636e-06
9.97646e-06
9.99675e-06
1.00003e-05
1.00003e-05
1.00002e-05
1e-05
9.99992e-06
9.99995e-06
9.99966e-06
9.99932e-06
9.99895e-06
9.99859e-06
9.99823e-06
9.99787e-06
9.99754e-06
9.99725e-06
9.99691e-06
9.99632e-06
9.9955e-06
9.99458e-06
9.9937e-06
9.99292e-06
9.99216e-06
9.99162e-06
9.99114e-06
9.99222e-06
9.99667e-06
1.00112e-05
1.01037e-05
1.04932e-05
1.17938e-05
1.42792e-05
2.85344e-05
9.07279e-05
0.00012229
0.000122313
0.000124903
0.000127426
0.000123014
0.000115876
0.000113615
0.000116848
0.000109852
0.000116777
0.000107281
0.0759001
0.98631
0.999958
0.999943
0.999967
0.999966
0.999965
0.999961
0.999956
0.999951
0.999947
0.999942
0.999935
0.999912
0.999894
0.999883
0.999878
0.999871
0.999844
0.999806
0.999773
0.999755
0.999743
0.999712
0.999653
0.999598
0.999589
0.999723
0.999818
0.999874
0.999931
0.999977
0.999995
1
0.999999
1
1
1.69512e-06
1.48408e-06
1.54444e-06
1.82113e-06
2.62138e-06
4.28132e-06
6.28715e-06
7.83603e-06
8.86836e-06
9.39278e-06
9.66263e-06
9.84443e-06
9.93372e-06
9.9625e-06
9.97455e-06
9.99674e-06
1.00005e-05
1.00005e-05
1.00005e-05
1.00005e-05
1.00005e-05
1.00005e-05
1.00002e-05
9.99996e-06
9.99963e-06
9.9993e-06
9.99895e-06
9.99861e-06
9.99832e-06
9.99806e-06
9.99774e-06
9.99717e-06
9.99633e-06
9.99535e-06
9.9945e-06
9.99376e-06
9.99315e-06
9.99281e-06
9.99249e-06
9.99363e-06
9.99798e-06
1.0015e-05
1.0119e-05
1.05731e-05
1.22006e-05
1.74569e-05
2.26528e-05
5.97142e-05
0.000110882
0.00012209
0.000123462
0.000125204
0.000122349
0.000117671
0.00011201
0.000113673
0.00010928
0.00011639
0.000107281
0.0246537
0.956815
0.999999
0.999998
0.999999
0.999999
0.999999
0.999999
0.999999
0.999999
0.999999
0.999999
0.999999
0.999999
0.999999
0.999999
0.999998
0.999999
0.999999
0.999999
0.999999
0.999997
0.999998
0.999999
0.999999
0.999999
0.999998
0.999999
0.999999
0.999999
0.999999
0.999999
0.999999
0.999999
0.999999
0.999999
0.999999
1.64774e-06
1.42413e-06
1.41611e-06
1.50503e-06
2.03371e-06
3.17623e-06
5.20651e-06
7.36953e-06
8.86134e-06
9.42487e-06
9.68821e-06
9.85958e-06
9.93772e-06
9.96013e-06
9.97172e-06
9.99293e-06
1.00005e-05
1.00005e-05
1.00005e-05
1.00005e-05
1.00005e-05
1.00003e-05
1.00001e-05
9.99982e-06
9.99954e-06
9.99925e-06
9.99893e-06
9.99863e-06
9.99837e-06
9.9981e-06
9.99778e-06
9.99716e-06
9.99622e-06
9.99515e-06
9.99419e-06
9.99355e-06
9.99306e-06
9.99287e-06
9.99263e-06
9.9938e-06
9.99839e-06
1.00178e-05
1.01267e-05
1.06195e-05
1.27241e-05
2.01915e-05
3.02272e-05
4.01027e-05
7.9613e-05
0.000110557
0.000119948
0.000122402
0.000121112
0.000118607
0.000114603
0.000120183
0.000117617
0.000130409
0.00010888
0.0125271
0.92643
0.999999
0.999999
0.999999
0.999999
0.999999
0.999999
0.999999
0.999999
0.999999
0.999999
0.999999
0.999999
0.999999
0.999999
0.999999
0.999999
0.999999
0.999999
0.999999
0.999999
0.999999
0.999999
0.999999
0.999999
0.999999
0.999999
0.999999
0.999999
0.999999
0.999999
0.999999
0.999999
0.999999
0.999999
0.999999
1.61903e-06
1.41187e-06
1.37734e-06
1.35974e-06
1.46248e-06
1.95118e-06
3.27541e-06
5.85044e-06
8.52563e-06
9.46296e-06
9.71701e-06
9.8686e-06
9.93824e-06
9.94847e-06
9.96329e-06
9.99131e-06
9.9995e-06
1.00005e-05
1.00003e-05
1.00003e-05
9.99998e-06
1.00001e-05
1.00001e-05
9.99991e-06
9.99966e-06
9.99938e-06
9.99906e-06
9.99875e-06
9.99845e-06
9.99813e-06
9.99774e-06
9.99689e-06
9.99579e-06
9.99459e-06
9.99346e-06
9.99281e-06
9.99231e-06
9.99186e-06
9.992e-06
9.99321e-06
9.99856e-06
1.0019e-05
1.01238e-05
1.06265e-05
1.31477e-05
2.23583e-05
3.79732e-05
4.83073e-05
5.9753e-05
8.16507e-05
0.000100661
0.00011177
0.00011014
0.00010876
0.000117756
0.000141286
0.00013527
0.000153766
0.000162483
0.0159699
0.884655
0.999956
0.999999
0.999999
0.999999
0.999999
0.999999
0.999999
0.999999
0.999999
0.999999
0.999999
0.999999
0.999999
0.999999
0.999999
0.999999
0.999999
0.999999
0.999999
0.999999
0.999999
0.999999
0.999999
0.999999
0.999999
0.999999
0.999999
0.999999
0.999999
0.999999
0.999999
0.999999
0.999999
0.999999
0.999999
1.72589e-06
1.74233e-06
1.55786e-06
1.55917e-06
1.26763e-06
1.37263e-06
1.72201e-06
3.39927e-06
7.08501e-06
9.4995e-06
9.76078e-06
9.8726e-06
9.90694e-06
9.91895e-06
9.94238e-06
9.98462e-06
9.99685e-06
9.99756e-06
9.99738e-06
9.99741e-06
9.99743e-06
9.99737e-06
9.99725e-06
9.99699e-06
9.99659e-06
9.99602e-06
9.99533e-06
9.9946e-06
9.99392e-06
9.99321e-06
9.99238e-06
9.99124e-06
9.98992e-06
9.98874e-06
9.9876e-06
9.98703e-06
9.98681e-06
9.98684e-06