/*--------------------------------*- C++ -*----------------------------------*\
| =========                 |                                                 |
| \\      /  F ield         | OpenFOAM: The Open Source CFD Toolbox           |
|  \\    /   O peration     | Version:  2.3.0                                 |
|   \\  /    A nd           | Web:      www.OpenFOAM.org                      |
|    \\/     M anipulation  |                                                 |
\*---------------------------------------------------------------------------*/
FoamFile
{
    version     2.0;
    format      ascii;
    class       surfaceScalarField;
    location    "45";
    object      phi;
}
// * * * * * * * * * * * * * * * * * * * * * * * * * * * * * * * * * * * * * //

dimensions      [0 3 -1 0 0 0 0];

internalField   nonuniform List<scalar> 
16448
(
-1.20887e-06
-2.52684e-06
4.86225e-07
7.08794e-07
-2.61629e-06
6.98627e-07
6.73013e-07
-1.0652e-06
1.10098e-06
5.78109e-07
-9.45655e-07
1.04056e-06
2.23745e-07
-5.37802e-07
8.92166e-07
8.94177e-08
-6.60084e-07
7.9441e-07
3.1581e-08
-6.30391e-07
6.88229e-07
-1.75835e-08
-5.57533e-07
6.06699e-07
-1.27186e-07
-4.17106e-07
5.26713e-07
-3.11893e-07
-2.92201e-07
4.76915e-07
-5.01325e-07
-2.31607e-07
4.2105e-07
-5.89317e-07
-2.52548e-07
3.4055e-07
-5.77104e-07
-2.96423e-07
2.84219e-07
-4.7611e-07
-3.40686e-07
2.397e-07
-3.56406e-07
-3.60434e-07
2.40739e-07
-2.23083e-07
-3.85849e-07
2.52536e-07
-1.06518e-07
-4.01071e-07
2.84521e-07
-9.2943e-09
-4.16221e-07
3.19011e-07
6.0903e-08
-4.28293e-07
3.58113e-07
1.0347e-07
-4.36289e-07
3.93738e-07
1.1813e-07
-4.3947e-07
4.24828e-07
1.12769e-07
-4.4349e-07
4.48868e-07
9.59052e-08
-4.43173e-07
4.60057e-07
7.35511e-08
-4.37998e-07
4.6037e-07
4.95624e-08
-4.27899e-07
4.51907e-07
2.74156e-08
-4.14767e-07
4.36932e-07
1.05325e-08
-4.02216e-07
4.19119e-07
9.172e-11
-3.90836e-07
4.01296e-07
-6.51877e-09
-3.78343e-07
3.84974e-07
-1.36225e-08
-3.641e-07
3.71224e-07
-2.32406e-08
-3.48961e-07
3.58599e-07
-3.53658e-08
-3.33238e-07
3.45383e-07
-4.89973e-08
-3.16919e-07
3.3057e-07
-6.22078e-08
-3.00069e-07
3.13299e-07
-7.16719e-08
-2.83549e-07
2.93032e-07
-7.33019e-08
-2.68929e-07
2.70579e-07
-6.7059e-08
-2.5639e-07
2.50165e-07
-6.67648e-08
-2.42796e-07
2.42522e-07
-9.98452e-08
-2.21754e-07
2.54852e-07
-2.07123e-07
-1.84643e-07
2.91941e-07
-4.45481e-07
-1.1653e-07
3.54905e-07
-8.57959e-07
-1.75154e-08
4.30013e-07
-1.38871e-06
3.71369e-08
4.93629e-07
-1.92534e-06
-7.49124e-08
6.11562e-07
-2.29515e-06
-5.20795e-07
8.90623e-07
-2.55179e-06
-9.58783e-07
1.21545e-06
-3.59437e-06
-3.97033e-07
1.43964e-06
-6.26883e-06
1.16044e-06
1.51403e-06
-9.50644e-06
1.55761e-06
1.68003e-06
-1.17322e-05
2.4147e-07
1.98435e-06
-1.2059e-05
-1.61061e-06
1.93742e-06
-8.63759e-06
-4.533e-06
1.11159e-06
-4.10035e-06
-5.79483e-06
1.25759e-06
-2.17961e-06
-3.02789e-06
1.10714e-06
1.12962e-06
-1.2116e-06
-2.09766e-06
2.51371e-06
-6.3873e-08
-1.32027e-06
-2.46826e-06
7.79498e-06
-2.81309e-06
6.9884e-06
-2.80844e-06
-6.64838e-06
-1.19546e-05
1.62704e-05
2.67243e-06
2.88384e-07
-8.2548e-06
-3.98835e-06
3.34028e-05
-3.78381e-05
4.72374e-06
4.17472e-05
-1.47359e-05
6.39145e-06
3.85324e-05
-9.60346e-07
4.17511e-06
3.85305e-05
-2.66407e-06
2.66598e-06
3.74639e-05
-1.80812e-06
2.87476e-06
3.54508e-05
-1.33622e-06
3.34932e-06
3.36159e-05
-2.21962e-06
4.05454e-06
3.28765e-05
-4.08206e-06
4.82143e-06
3.1879e-05
-4.06063e-06
5.05812e-06
3.12083e-05
-3.7128e-06
4.3835e-06
3.12702e-05
-3.41995e-06
3.35801e-06
3.14048e-05
-2.0342e-06
1.89961e-06
3.1559e-05
-5.77382e-07
4.2315e-07
3.11809e-05
7.49749e-07
-3.71632e-07
2.96739e-05
2.64637e-06
-1.13938e-06
2.61916e-05
4.05499e-06
-5.72638e-07
1.96238e-05
5.83841e-06
7.2938e-07
1.15435e-05
6.22892e-06
1.8513e-06
6.10497e-06
3.91974e-06
1.51883e-06
3.34656e-06
2.54869e-06
2.09717e-07
1.65265e-06
2.12282e-06
-4.28911e-07
4.59258e-07
1.80107e-06
-6.07677e-07
-9.84263e-07
1.57087e-06
-1.27352e-07
-3.37123e-06
1.54559e-06
8.4138e-07
-6.65846e-06
1.48014e-06
1.80709e-06
-1.01192e-05
3.67671e-07
3.09302e-06
-1.24297e-05
-1.21508e-06
3.52567e-06
-1.36903e-05
-2.33566e-06
3.59617e-06
-1.41964e-05
-2.92271e-06
3.42888e-06
-1.3188e-05
-3.33064e-06
2.3222e-06
-1.11664e-05
-2.58476e-06
5.63177e-07
-8.44541e-06
-2.03669e-06
-6.843e-07
-5.23282e-06
-9.36979e-07
-2.27561e-06
-2.49938e-06
5.45332e-07
-3.27877e-06
-8.92857e-07
8.25296e-07
-2.43182e-06
4.34927e-08
-9.3635e-07
-1.80348e-06
-3.59275e-06
-2.70387e-07
-2.63664e-07
-3.91491e-06
-2.41197e-07
9.77828e-08
-2.02501e-06
5.98363e-07
4.06091e-07
-1.6838e-06
4.29837e-07
3.68022e-07
-7.71381e-07
2.71642e-07
2.02281e-07
-7.23078e-07
2.2873e-07
2.9343e-08
-5.73199e-07
1.1574e-07
-1.07301e-07
-4.92244e-07
7.13539e-08
-2.83362e-07
-3.05487e-07
6.44465e-08
-4.95457e-07
-1.6932e-07
8.92208e-08
-6.77172e-07
-1.12112e-07
6.2231e-08
-7.46636e-07
-1.78049e-07
-5.02621e-09
-7.31567e-07
-2.49996e-07
-6.14877e-08
-6.34124e-07
-3.30635e-07
-1.07485e-07
-5.09422e-07
-3.67026e-07
-1.18099e-07
-3.66784e-07
-4.09369e-07
-1.19101e-07
-2.34709e-07
-4.3222e-07
-1.00907e-07
-1.19811e-07
-4.5262e-07
-7.84782e-08
-3.12843e-08
-4.65817e-07
-5.09801e-08
3.09783e-08
-4.72853e-07
-2.56751e-08
6.47669e-08
-4.71805e-07
-1.4304e-09
7.65138e-08
-4.66453e-07
1.12417e-08
7.37575e-08
-4.56901e-07
1.65096e-08
6.2163e-08
-4.42568e-07
1.61902e-08
4.56383e-08
-4.23118e-07
1.17705e-08
2.73218e-08
-4.01018e-07
4.59406e-09
1.08352e-08
-3.79435e-07
-6.26666e-09
-1.65623e-09
-3.58682e-07
-1.96357e-08
-1.14375e-08
-3.36618e-07
-3.19166e-08
-2.10688e-08
-3.11608e-07
-4.28343e-08
-3.14969e-08
-2.85257e-07
-5.32484e-08
-4.2147e-08
-2.58747e-07
-6.38136e-08
-5.29905e-08
-2.31365e-07
-7.4684e-08
-6.35866e-08
-2.03301e-07
-8.61455e-08
-7.25183e-08
-1.76205e-07
-9.83863e-08
-7.78644e-08
-1.52931e-07
-1.10626e-07
-8.13531e-08
-1.33771e-07
-1.19105e-07
-9.54857e-08
-1.10544e-07
-1.18094e-07
-1.46137e-07
-6.86225e-08
-1.02455e-07
-2.71819e-07
9.21488e-09
-6.81534e-08
-5.20147e-07
1.44255e-07
-1.24334e-08
-9.10875e-07
3.33092e-07
4.01432e-08
-1.4766e-06
5.12907e-07
8.99833e-08
-2.3869e-06
5.90811e-07
2.44593e-07
-3.99125e-06
4.46171e-07
6.37413e-07
-6.23191e-06
1.54248e-07
1.12765e-06
-8.49285e-06
3.902e-07
1.47374e-06
-1.0113e-05
1.39951e-06
1.38113e-06
-1.08692e-05
1.13787e-06
1.17599e-06
-1.06508e-05
-1.79808e-06
1.82111e-06
-6.91437e-06
-8.16938e-06
2.8224e-06
-1.79224e-06
-1.29277e-05
3.27256e-06
3.04121e-06
-1.46741e-05
4.04579e-06
6.02454e-06
-1.0976e-05
4.96473e-06
8.93002e-06
-6.55219e-06
2.43507e-06
1.09589e-05
-4.0336e-06
1.94082e-06
1.08042e-05
9.38872e-06
-1.43919e-06
1.69298e-05
-2.82148e-06
-6.11276e-06
-4.85143e-06
3.23586e-05
5.69253e-06
3.42332e-07
-1.22017e-05
-1.24722e-06
1.21438e-05
-4.91505e-05
-4.89212e-07
8.51133e-06
-1.34914e-05
2.38797e-06
1.44846e-05
-1.91255e-06
-5.0211e-06
1.78636e-05
-1.11502e-06
-4.92798e-06
1.93706e-05
6.02084e-07
-3.91721e-06
2.03372e-05
-1.13922e-07
-2.18897e-06
1.95088e-05
-2.68262e-06
1.2914e-06
1.52666e-05
-4.53965e-06
4.69984e-06
9.90725e-06
-3.37171e-06
4.67043e-06
5.62045e-06
-4.02405e-06
4.59804e-06
4.11048e-06
-5.5725e-06
3.66252e-06
4.50805e-06
-4.08186e-06
1.6501e-06
6.34129e-06
-2.03145e-06
-3.79177e-07
8.61124e-06
6.00917e-07
-2.12112e-06
1.10399e-05
3.03516e-06
-2.81742e-06
1.18424e-05
5.43717e-06
-2.18474e-06
1.04126e-05
8.10073e-06
-8.32489e-07
7.39929e-06
8.65505e-06
5.8719e-07
4.57807e-06
6.05688e-06
6.84076e-07
2.54143e-06
4.35178e-06
2.33556e-07
5.95869e-07
3.62429e-06
4.44086e-07
-1.46721e-06
2.85298e-06
1.01116e-06
-4.21582e-06
2.77729e-06
1.5422e-06
-6.95712e-06
2.71257e-06
1.57432e-06
-9.36353e-06
1.75948e-06
2.12707e-06
-1.16107e-05
-2.29027e-07
2.84391e-06
-1.39521e-05
-1.69286e-06
2.81919e-06
-1.57016e-05
-2.97887e-06
2.3927e-06
-1.60136e-05
-4.27488e-06
1.66417e-06
-1.46929e-05
-4.91242e-06
2.61034e-07
-1.22806e-05
-4.36703e-06
-6.30015e-07
-9.34495e-06
-2.95505e-06
-2.01727e-06
-6.1699e-06
-1.2145e-06
-2.89753e-06
-2.63511e-06
1.23723e-06
-4.22668e-06
-4.33711e-07
1.97515e-06
-3.35126e-06
9.29689e-07
-1.31991e-06
-2.22925e-06
-3.86211e-06
-4.96729e-07
-1.02433e-06
-4.38034e-06
-7.39485e-07
-5.34804e-07
-2.62007e-06
1.05534e-07
-5.67323e-08
-2.16391e-06
2.02493e-09
1.22557e-07
-8.67901e-07
-8.27775e-08
2.90934e-09
-5.44935e-07
-5.85057e-08
-1.35319e-07
-2.73735e-07
-1.61243e-07
-2.74248e-07
-1.87344e-07
-1.65974e-07
-3.95129e-07
-1.26323e-08
-1.71969e-07
-4.9773e-07
8.09312e-08
-1.47641e-07
-5.97854e-07
1.31491e-07
-1.43466e-07
-6.44312e-07
5.5317e-08
-1.86899e-07
-6.55919e-07
-8.66227e-09
-2.29716e-07
-6.20093e-07
-9.67336e-08
-2.69717e-07
-5.5784e-07
-1.42916e-07
-2.86347e-07
-4.71635e-07
-1.94264e-07
-3.01294e-07
-3.77776e-07
-2.22333e-07
-3.03725e-07
-2.8656e-07
-2.43687e-07
-3.00127e-07
-2.08122e-07
-2.5355e-07
-2.90682e-07
-1.42211e-07
-2.57787e-07
-2.80953e-07
-8.95442e-08
-2.52092e-07
-2.72354e-07
-5.21007e-08
-2.37941e-07
-2.65931e-07
-2.8542e-08
-2.19153e-07
-2.6128e-07
-1.609e-08
-1.96485e-07
-2.58508e-07
-1.16851e-08
-1.70634e-07
-2.56861e-07
-1.27533e-08
-1.43475e-07
-2.56448e-07
-1.78633e-08
-1.16903e-07
-2.57394e-07
-2.58264e-08
-9.0968e-08
-2.59723e-07
-3.45801e-08
-6.44397e-08
-2.63397e-07
-4.2731e-08
-3.54892e-08
-2.6794e-07
-4.88973e-08
-6.25213e-09
-2.72811e-07
-5.48965e-08
2.52913e-08
-2.78012e-07
-6.12444e-08
5.74954e-08
-2.82486e-07
-6.9486e-08
9.04723e-08
-2.85504e-07
-8.32733e-08
1.23904e-07
-2.86295e-07
-1.08297e-07
1.5617e-07
-2.84051e-07
-1.51477e-07
1.87998e-07
-2.78564e-07
-2.19934e-07
2.29026e-07
-2.71086e-07
-3.2107e-07
2.95163e-07
-2.62626e-07
-4.59861e-07
4.03844e-07
-2.55811e-07
-6.29448e-07
5.71708e-07
-2.57842e-07
-8.01755e-07
7.82998e-07
-2.77574e-07
-1.00404e-06
1.0068e-06
-2.91592e-07
-1.48169e-06
1.25731e-06
-1.88828e-07
-2.57963e-06
1.40682e-06
1.37317e-07
-4.40934e-06
1.42454e-06
5.59444e-07
-6.60639e-06
1.51847e-06
1.06881e-06
-8.24735e-06
1.94632e-06
1.09418e-06
-7.51262e-06
3.65795e-07
3.73705e-08
-3.32318e-06
-4.07808e-06
-1.90942e-06
2.50127e-06
-1.29511e-05
-1.04271e-06
4.02931e-06
-1.73687e-05
2.91293e-06
2.89629e-06
-1.80466e-05
4.50554e-06
1.8161e-06
-1.5575e-05
5.67923e-06
5.89989e-06
-1.42586e-05
3.62263e-06
9.88222e-06
-1.03992e-05
2.38324e-06
1.76169e-05
2.95884e-06
-1.30487e-06
2.46395e-05
-8.06493e-06
-1.77944e-06
-2.40112e-06
5.43405e-05
5.05803e-06
-2.74159e-07
-1.47572e-05
4.28225e-07
1.00683e-07
-4.92508e-05
-2.74415e-07
-1.39526e-06
-1.29435e-05
9.48088e-07
1.39224e-05
-1.07855e-05
-6.44464e-06
1.46477e-05
3.01552e-06
-4.85586e-06
1.65994e-05
1.73059e-06
-3.0802e-06
1.82759e-05
-3.13267e-07
-1.47719e-06
1.63701e-05
-2.10508e-06
1.32824e-06
9.94974e-06
-2.15397e-06
4.0347e-06
3.33129e-06
-7.0159e-07
3.94832e-06
-1.98398e-06
-1.74649e-06
3.03771e-06
-4.06927e-06
-3.50947e-06
2.22542e-08
-4.00339e-06
-3.36335e-06
-7.84392e-07
-2.90079e-06
-8.25124e-07
-2.30893e-06
-1.22149e-06
2.54554e-06
-3.62392e-06
-5.86524e-07
5.96474e-06
-3.56454e-06
-5.17391e-07
8.15103e-06
-2.783e-06
-7.26413e-07
9.2613e-06
-9.51554e-07
-1.19648e-06
7.98806e-06
1.13706e-06
-2.68787e-06
5.91791e-06
1.63036e-06
-4.37101e-06
4.64254e-06
1.39239e-06
-5.78407e-06
3.84524e-06
1.19211e-06
-7.16466e-06
3.06369e-06
1.16988e-06
-8.75349e-06
2.36644e-06
1.99968e-06
-1.01536e-05
1.62289e-06
2.48981e-06
-1.18219e-05
4.55032e-07
2.97276e-06
-1.42257e-05
-9.73287e-07
3.148e-06
-1.68219e-05
-1.94023e-06
2.84359e-06
-1.84467e-05
-3.20083e-06
1.84681e-06
-1.79455e-05
-3.99975e-06
-7.76355e-07
-1.60723e-05
-4.36146e-06
-2.42416e-06
-1.29663e-05
-4.04781e-06
-3.42522e-06
-9.51148e-06
-2.7682e-06
-3.64168e-06
-6.94957e-06
-1.16459e-06
-2.61182e-06
-3.97217e-06
9.64466e-07
-2.70464e-06
-1.76658e-06
1.73661e-06
-1.96705e-06
5.15446e-07
-1.35233e-06
-2.62071e-06
-3.90445e-06
-2.30332e-07
-1.48742e-06
-4.62389e-06
-8.89743e-07
-1.05128e-06
-3.08118e-06
2.49787e-08
-4.97488e-07
-2.73364e-06
1.59331e-08
-1.8682e-07
-1.16019e-06
-1.83969e-08
-1.55012e-07
-5.21901e-07
-5.48547e-08
-1.86208e-07
-5.22308e-08
-1.90319e-07
-2.58777e-07
7.59919e-08
-1.90766e-07
-3.16847e-07
2.52253e-07
-2.06813e-07
-3.74297e-07
3.38028e-07
-1.99634e-07
-4.36053e-07
4.13208e-07
-2.19952e-07
-5.01369e-07
3.69863e-07
-2.49215e-07
-5.59986e-07
3.28028e-07
-2.78063e-07
-5.73459e-07
2.27932e-07
-3.11174e-07
-5.55899e-07
1.67862e-07
-3.28323e-07
-5.09607e-07
1.08976e-07
-3.4951e-07
-4.42149e-07
7.6634e-08
-3.66406e-07
-3.67973e-07
6.23988e-08
-3.80236e-07
-2.97622e-07
6.30491e-08
-3.86928e-07
-2.33033e-07
6.79822e-08
-3.9033e-07
-1.76232e-07
8.08578e-08
-3.89725e-07
-1.26977e-07
9.95532e-08
-3.8672e-07
-8.79819e-08
1.22849e-07
-3.8097e-07
-6.04928e-08
1.50048e-07
-3.73992e-07
-4.42914e-08
1.80302e-07
-3.67109e-07
-3.74772e-08
2.10813e-07
-3.61072e-07
-3.71856e-08
2.39216e-07
-3.56382e-07
-4.05413e-08
2.65819e-07
-3.53401e-07
-4.56222e-08
2.9306e-07
-3.52389e-07
-5.15486e-08
3.23395e-07
-3.52928e-07
-5.85056e-08
3.55109e-07
-3.54374e-07
-6.5001e-08
3.87103e-07
-3.55287e-07
-7.18099e-08
4.19307e-07
-3.54973e-07
-8.16003e-08
4.52861e-07
-3.52571e-07
-1.00099e-07
4.89085e-07
-3.46653e-07
-1.3629e-07
5.29222e-07
-3.36833e-07
-1.98105e-07
5.74648e-07
-3.24806e-07
-2.85849e-07
6.32165e-07
-3.15369e-07
-3.92462e-07
7.15864e-07
-3.14058e-07
-5.07088e-07
8.43249e-07
-3.24756e-07
-6.064e-07
1.02477e-06
-3.53722e-07
-6.67353e-07
1.24492e-06
-4.00946e-07
-7.4959e-07
1.51196e-06
-4.2289e-07
-1.03499e-06
1.87614e-06
-3.3341e-07
-1.68084e-06
2.11311e-06
-6.04067e-08
-2.94812e-06
2.46232e-06
2.29519e-07
-4.69987e-06
2.82475e-06
4.45498e-07
-5.29158e-06
2.50606e-06
3.19978e-08
-1.16692e-06
-2.73787e-06
-1.02097e-06
4.66628e-06
-8.25921e-06
-1.65207e-06
6.59378e-06
-1.62265e-05
1.3479e-06
6.76867e-07
-1.64445e-05
4.99275e-06
-1.14065e-05
-1.3118e-05
7.15482e-06
-1.92477e-05
-1.38377e-05
6.10388e-06
-2.0877e-05
-1.62727e-05
3.64339e-06
-1.95038e-05
-1.42674e-05
2.49504e-06
5.64269e-06
-1.25513e-05
-9.6362e-06
6.71414e-06
8.44011e-07
-9.98078e-06
-1.00656e-06
6.26052e-05
-5.45294e-07
-7.23202e-07
-1.28663e-05
-2.17435e-06
-3.64743e-06
-4.68732e-05
5.46824e-07
-6.71503e-06
-1.11915e-05
1.31563e-06
-4.46764e-06
-1.05032e-05
-2.52975e-06
-1.56989e-06
4.28239e-06
-4.16462e-06
-3.69548e-07
4.91567e-07
3.86934e-08
-8.46665e-06
4.58314e-07
7.32553e-06
-1.53601e-05
-2.87629e-06
7.66462e-06
-1.97994e-05
-3.84421e-06
6.12958e-06
-2.12856e-05
-3.17074e-06
3.95535e-06
-2.24527e-05
-2.88986e-06
2.31051e-06
-2.28467e-05
-2.60914e-06
-5.06365e-07
-2.21292e-05
-1.60123e-06
-2.47962e-06
-2.1988e-05
1.9253e-07
-1.15887e-06
-2.124e-05
1.44043e-06
3.57102e-07
-1.97957e-05
3.00022e-06
1.52023e-06
-1.83945e-05
4.11545e-06
2.63443e-06
-1.68505e-05
4.9367e-06
2.7806e-06
-1.56186e-05
4.05036e-06
2.70579e-06
-1.49817e-05
3.08093e-06
2.20003e-06
-1.41098e-05
2.11611e-06
1.65453e-06
-1.31975e-05
1.64109e-06
1.29186e-06
-1.26533e-05
9.24335e-07
1.5952e-06
-1.2649e-05
1.09952e-07
2.25217e-06
-1.32571e-05
-5.2159e-07
2.75258e-06
-1.47828e-05
-1.32318e-06
3.30393e-06
-1.71466e-05
-2.20706e-06
3.59753e-06
-1.93568e-05
-2.72029e-06
2.99036e-06
-1.96013e-05
-2.92391e-06
-3.24712e-08
-1.8039e-05
-2.73488e-06
-2.82713e-06
-1.54801e-05
-2.07218e-06
-4.84819e-06
-1.2182e-05
-1.52944e-06
-5.81651e-06
-8.74983e-06
-6.93484e-07
-5.50684e-06
-7.22155e-06
9.2602e-07
-3.61889e-06
-6.18848e-06
2.44196e-06
-2.51057e-06
-4.39647e-06
7.24237e-07
-7.79631e-07
-3.79447e-06
-8.65548e-08
-3.00052e-06
-3.84121e-06
4.29472e-08
-1.9343e-06
-4.77563e-06
-9.14481e-07
-1.58749e-06
-3.43944e-06
1.14426e-08
-8.96403e-07
-3.39625e-06
-2.85071e-08
-4.5195e-07
-1.76431e-06
1.59645e-07
-2.38495e-07
-7.86744e-07
5.13669e-08
-1.65301e-07
4.42524e-08
-1.6968e-07
-2.2188e-07
3.04907e-07
-1.72339e-07
-2.17002e-07
4.59947e-07
-2.12561e-07
-2.43949e-07
5.72769e-07
-2.07786e-07
-2.87789e-07
6.79526e-07
-2.2246e-07
-3.77888e-07
6.84857e-07
-2.24884e-07
-4.74295e-07
6.62094e-07
-2.3764e-07
-5.25727e-07
5.41131e-07
-2.61754e-07
-5.30948e-07
4.50477e-07
-2.7737e-07
-5.01157e-07
3.79005e-07
-2.99801e-07
-4.48921e-07
3.4674e-07
-3.22315e-07
-3.91137e-07
3.48972e-07
-3.44336e-07
-3.3347e-07
3.66764e-07
-3.61354e-07
-2.76493e-07
3.85546e-07
-3.74516e-07
-2.20825e-07
4.08207e-07
-3.82987e-07
-1.67248e-07
4.33402e-07
-3.87398e-07
-1.20783e-07
4.62767e-07
-3.86352e-07
-8.40485e-08
4.94629e-07
-3.81287e-07
-5.77162e-08
5.2764e-07
-3.73638e-07
-4.10597e-08
5.58639e-07
-3.64453e-07
-3.16941e-08
5.85204e-07
-3.55323e-07
-2.75674e-08
6.08875e-07
-3.47153e-07
-2.85684e-08
6.3372e-07
-3.39629e-07
-3.33636e-08
6.61127e-07
-3.32906e-07
-4.02486e-08
6.88929e-07
-3.26905e-07
-4.78446e-08
7.15902e-07
-3.21171e-07
-5.72379e-08
7.43536e-07
-3.14806e-07
-7.15775e-08
7.74013e-07
-3.06781e-07
-9.67863e-08
8.11699e-07
-2.97377e-07
-1.41623e-07
8.60775e-07
-2.86686e-07
-2.12841e-07
9.23675e-07
-2.77782e-07
-3.08126e-07
1.00479e-06
-2.77312e-07
-4.11939e-07
1.1122e-06
-2.92496e-07
-4.99107e-07
1.25726e-06
-3.26815e-07
-5.43527e-07
1.44554e-06
-3.76326e-07
-5.47985e-07
1.68083e-06
-4.31428e-07
-5.88851e-07
1.99382e-06
-4.40973e-07
-7.44359e-07
2.39446e-06
-3.62782e-07
-9.8318e-07
2.56075e-06
-2.08802e-07
-1.97484e-06
3.64996e-06
-1.95949e-07
-2.65316e-06
4.11778e-06
-6.14681e-07
1.12002e-06
-1.67071e-07
-1.10003e-06
7.52289e-06
-7.94502e-06
-1.19571e-06
9.61134e-06
-1.15391e-05
1.1914e-06
1.87582e-06
-1.19751e-05
3.48415e-06
-1.68084e-05
-5.6474e-06
7.88715e-06
-3.12292e-05
-6.67736e-06
7.98019e-06
-3.73958e-05
-1.02751e-05
2.60399e-06
-4.39759e-05
-1.01986e-05
5.06084e-07
-5.28388e-05
-7.55922e-06
2.15484e-06
-7.14833e-05
2.75163e-06
3.3417e-06
-6.16269e-05
-6.25049e-06
-2.76218e-06
6.76144e-06
-4.15036e-06
-1.63365e-06
3.95464e-06
-1.07525e-05
6.92922e-07
-1.35694e-05
-3.20269e-05
2.67785e-06
-1.93266e-05
-9.39781e-06
3.96357e-06
-2.81118e-05
-6.3639e-06
4.64602e-06
-3.23096e-05
1.58854e-06
6.89171e-06
-3.8731e-05
-4.08032e-07
7.32108e-06
-4.24184e-05
-3.23478e-07
4.46934e-06
-4.58058e-05
-2.52685e-06
3.03803e-06
-4.73009e-05
-3.9197e-06
1.5706e-06
-4.69148e-05
-4.68786e-06
1.13109e-06
-4.56641e-05
-5.04123e-06
9.00702e-07
-4.46002e-05
-4.97926e-06
1.30628e-06
-4.3363e-05
-4.48065e-06
1.6422e-06
-4.14451e-05
-3.65927e-06
1.93394e-06
-3.95606e-05
-2.54778e-06
2.10377e-06
-3.71326e-05
-1.61544e-06
2.18764e-06
-3.4449e-05
-8.82881e-07
2.31473e-06
-3.13622e-05
-2.80923e-07
2.13081e-06
-2.90257e-05
-1.47604e-07
1.86148e-06
-2.71515e-05
-4.27766e-07
1.63448e-06
-2.51548e-05
-9.03569e-07
1.02296e-06
-2.30868e-05
-1.36036e-06
9.3348e-07
-2.17857e-05
-2.09068e-06
1.71392e-06
-2.08826e-05
-2.71375e-06
1.92064e-06
-2.03251e-05
-3.38472e-06
2.30562e-06
-2.04392e-05
-3.94427e-06
2.73519e-06
-2.13444e-05
-4.30836e-06
3.00656e-06
-2.19653e-05
-3.90803e-06
1.80858e-06
-2.09114e-05
-2.42384e-06
-1.55391e-06
-1.85436e-05
-9.4028e-07
-4.16247e-06
-1.53346e-05
5.3112e-07
-5.81227e-06
-1.17538e-05
1.74134e-06
-6.85161e-06
-8.81685e-06
2.6733e-06
-6.30371e-06
-8.3212e-06
3.90677e-06
-3.4764e-06
-7.20295e-06
3.11645e-06
-1.79273e-06
-3.93603e-06
-4.128e-06
1.58533e-06
-1.03775e-05
2.64698e-06
-3.44316e-06
-3.68012e-06
4.04562e-07
-2.50521e-06
-4.92157e-06
-7.92016e-07
-2.18062e-06
-3.7202e-06
-4.3839e-08
-1.26558e-06
-3.89409e-06
-4.17215e-07
-6.63048e-07
-2.54152e-06
1.74654e-07
-2.7014e-07
-1.28297e-06
1.03307e-07
-1.05112e-07
-7.66608e-09
-1.13116e-07
-1.59896e-07
4.70794e-07
-1.11092e-07
-1.15828e-07
6.05271e-07
-1.89388e-07
-1.3492e-07
7.56377e-07
-1.64497e-07
-1.71313e-07
8.99438e-07
-1.83508e-07
-2.92167e-07
9.79387e-07
-1.73655e-07
-4.27398e-07
9.80026e-07
-1.82688e-07
-4.96393e-07
8.17688e-07
-2.07539e-07
-4.91961e-07
6.82641e-07
-2.3658e-07
-4.49556e-07
6.0498e-07
-2.68353e-07
-3.93775e-07
5.87849e-07
-2.9687e-07
-3.47661e-07
6.21905e-07
-3.19019e-07
-3.11492e-07
6.67224e-07
-3.36607e-07
-2.78455e-07
7.03294e-07
-3.50755e-07
-2.45219e-07
7.34945e-07
-3.59949e-07
-2.08759e-07
7.61667e-07
-3.64694e-07
-1.72934e-07
7.90048e-07
-3.6308e-07
-1.40993e-07
8.19516e-07
-3.56795e-07
-1.17346e-07
8.51351e-07
-3.47329e-07
-1.00382e-07
8.77544e-07
-3.35837e-07
-8.76574e-08
8.95667e-07
-3.23157e-07
-7.79222e-08
9.09737e-07
-3.10566e-07
-7.19234e-08
9.26153e-07
-2.98401e-07
-7.10741e-08
9.47632e-07
-2.87324e-07
-7.55504e-08
9.71364e-07
-2.77928e-07
-8.43121e-08
9.94685e-07
-2.69992e-07
-9.75579e-08
1.01964e-06
-2.62827e-07
-1.17167e-07
1.0494e-06
-2.55747e-07
-1.49039e-07
1.09217e-06
-2.48569e-07
-1.98969e-07
1.15384e-06
-2.43111e-07
-2.67966e-07
1.23498e-06
-2.42275e-07
-3.4742e-07
1.33396e-06
-2.49687e-07
-4.14987e-07
1.45073e-06
-2.70932e-07
-4.43683e-07
1.59338e-06
-3.07395e-07
-4.22053e-07
1.77993e-06
-3.55988e-07
-3.79838e-07
2.03281e-06
-3.94171e-07
-3.48582e-07
2.36463e-06
-4.02038e-07
-1.63186e-07
2.63349e-06
-4.24419e-07
2.53492e-07
2.73718e-06
-5.93081e-07
1.04785e-06
3.99352e-06
-1.1379e-06
3.37175e-06
2.964e-06
-1.1701e-06
8.02603e-06
-5.06721e-06
2.45864e-07
1.0728e-05
-1.15245e-05
8.77615e-07
2.63978e-06
-6.7299e-06
3.27902e-06
-1.43949e-05
-1.87277e-06
6.93241e-06
-2.71089e-05
-1.0427e-06
8.10934e-06
-3.2045e-05
-5.9281e-06
4.18688e-06
-3.29348e-05
-7.83829e-06
-1.54684e-06
-3.21029e-05
-6.75595e-06
-4.27457e-06
-2.80778e-05
-9.29917e-06
-2.28499e-06
-2.44468e-05
3.20814e-06
-4.08718e-06
-1.22254e-05
-2.03791e-05
1.90718e-06
9.09514e-06
-3.63422e-05
1.08704e-05
-4.93928e-06
7.73828e-07
2.50848e-06
-3.78074e-05
-5.83472e-06
6.67683e-06
-5.07274e-05
7.84837e-07
2.73835e-06
-6.02332e-05
1.1892e-06
1.95396e-06
-6.24951e-05
2.51993e-06
1.33172e-06
-6.50001e-05
1.67192e-06
4.26276e-07
-6.4796e-05
-2.6712e-07
-2.5915e-07
-6.50979e-05
-1.38926e-06
-8.34497e-07
-6.45104e-05
-2.99494e-06
-1.5111e-06
-6.36367e-05
-3.76084e-06
-1.79971e-06
-6.24612e-05
-4.20839e-06
-2.00736e-06
-6.09901e-05
-4.35408e-06
-2.09547e-06
-5.903e-05
-4.43463e-06
-2.00538e-06
-5.68633e-05
-3.80743e-06
-2.01788e-06
-5.43461e-05
-3.10485e-06
-1.95959e-06
-5.17758e-05
-2.41867e-06
-1.76656e-06
-4.89612e-05
-2.01956e-06
-1.67746e-06
-4.59757e-05
-1.77822e-06
-1.48785e-06
-4.32963e-05
-1.45074e-06
-1.37598e-06
-4.06697e-05
-1.64546e-06
-1.40853e-06
-3.84456e-05
-1.95057e-06
-1.17688e-06
-3.60798e-05
-2.50514e-06
-1.2208e-06
-3.36975e-05
-3.2468e-06
-1.22593e-06
-3.17534e-05
-3.76361e-06
-8.94114e-07
-3.01324e-05
-4.38635e-06
-6.19192e-07
-2.90857e-05
-4.68241e-06
-3.08424e-07
-2.85817e-05
-4.71287e-06
-9.93891e-08
-2.74803e-05
-3.71416e-06
-1.29523e-06
-2.49739e-05
-1.73882e-06
-3.19131e-06
-2.19996e-05
6.65056e-07
-4.57966e-06
-1.84202e-05
2.46359e-06
-5.51177e-06
-1.39723e-05
3.57082e-06
-6.27734e-06
-9.87066e-06
3.90323e-06
-5.3316e-06
-7.38928e-06
4.22506e-06
-2.79967e-06
-3.52694e-06
6.52359e-07
-1.39825e-06
3.11083e-07
-9.3157e-06
1.34968e-06
-1.35646e-05
3.49821e-06
-3.87185e-06
-3.41766e-06
8.49997e-07
-3.09196e-06
-4.97107e-06
-7.30401e-07
-2.76982e-06
-3.80392e-06
-2.38433e-07
-1.58578e-06
-4.04278e-06
-1.03538e-06
-8.1089e-07
-3.09091e-06
-2.25514e-07
-2.67625e-07
-1.74026e-06
-8.59831e-08
-8.75414e-08
-3.07735e-08
-1.56969e-07
-1.60382e-07
6.43691e-07
-1.00054e-07
-7.62656e-08
7.28495e-07
-2.07322e-07
-8.9929e-08
9.26245e-07
-1.56196e-07
-1.16955e-07
1.0898e-06
-1.63314e-07
-2.2672e-07
1.20803e-06
-1.18865e-07
-3.48295e-07
1.22925e-06
-1.27624e-07
-3.99528e-07
1.03881e-06
-1.69876e-07
-3.83359e-07
8.94182e-07
-2.27684e-07
-3.44161e-07
8.33761e-07
-2.67962e-07
-3.0268e-07
8.43174e-07
-2.9678e-07
-2.80286e-07
9.09317e-07
-3.09786e-07
-2.74376e-07
9.78603e-07
-3.17261e-07
-2.75215e-07
1.02751e-06
-3.23355e-07
-2.77588e-07
1.06426e-06
-3.26916e-07
-2.75851e-07
1.08849e-06
-3.28538e-07
-2.69717e-07
1.1094e-06
-3.25459e-07
-2.60956e-07
1.12886e-06
-3.18081e-07
-2.54949e-07
1.15071e-06
-3.05336e-07
-2.50281e-07
1.16474e-06
-2.91839e-07
-2.42242e-07
1.16772e-06
-2.80066e-07
-2.31303e-07
1.16835e-06
-2.6952e-07
-2.19663e-07
1.17426e-06
-2.59714e-07
-2.12474e-07
1.19086e-06
-2.50385e-07
-2.13445e-07
1.2144e-06
-2.42032e-07
-2.23005e-07
1.23928e-06
-2.35009e-07
-2.41628e-07
1.26766e-06
-2.29365e-07
-2.68729e-07
1.3014e-06
-2.24874e-07
-3.0563e-07
1.35024e-06
-2.21142e-07
-3.52284e-07
1.42055e-06
-2.20015e-07
-3.99814e-07
1.50748e-06
-2.24946e-07
-4.27731e-07
1.60072e-06
-2.38813e-07
-4.06063e-07
1.692e-06
-2.62914e-07
-3.1355e-07
1.79405e-06
-2.93153e-07
-1.64645e-07
1.9506e-06
-3.19556e-07
3.13585e-09
2.20474e-06
-3.39682e-07
2.18005e-07
2.54208e-06
-3.9231e-07
8.83573e-07
2.54946e-06
-5.81505e-07
2.50606e-06
2.32572e-06
-1.21102e-06
5.623e-06
2.73393e-06
-1.85732e-06
9.32127e-06
-4.79111e-07
-2.55152e-07
7.51735e-06
-5.26532e-06
2.00204e-06
-4.13318e-06
-3.86968e-06
3.99568e-06
-1.88376e-05
1.50815e-06
6.46639e-06
-2.72543e-05
1.66899e-06
4.87502e-06
-3.02289e-05
-8.55005e-07
2.78697e-06
-3.39495e-05
-1.0714e-06
-1.13602e-06
-3.43682e-05
-1.93738e-06
-5.48206e-06
-3.18689e-05
-1.75278e-06
-7.50236e-06
-2.52547e-05
-7.72279e-06
-8.19049e-06
6.80012e-08
-7.09405e-06
-1.502e-05
1.12107e-05
-2.4381e-05
-7.14085e-06
8.93103e-06
-4.42246e-05
1.01608e-05
-7.97492e-06
1.30146e-05
4.66621e-06
-4.47109e-05
1.71786e-05
1.37249e-05
-6.14653e-05
1.11346e-05
6.4076e-06
-7.03975e-05
8.1928e-06
1.93185e-06
-7.2187e-05
3.89579e-06
4.17038e-07
-7.36926e-05
2.37901e-06
8.01908e-07
-7.40965e-05
-1.49066e-07
2.89286e-07
-7.44565e-05
-1.10115e-06
7.53725e-08
-7.42316e-05
-2.67214e-06
-5.44362e-07
-7.36758e-05
-3.75385e-06
-5.59487e-07
-7.30002e-05
-4.23659e-06
-6.44075e-07
-7.19379e-05
-4.73213e-06
-6.80965e-07
-7.05416e-05
-5.0872e-06
-7.40534e-07
-6.88179e-05
-4.66125e-06
-8.66682e-07
-6.67461e-05
-3.99604e-06
-1.17761e-06
-6.45574e-05
-3.2063e-06
-1.39803e-06
-6.22003e-05
-2.74321e-06
-1.63059e-06
-5.97401e-05
-2.50665e-06
-1.72914e-06
-5.72007e-05
-2.26534e-06
-1.72225e-06
-5.46351e-05
-2.40334e-06
-1.80532e-06
-5.24106e-05
-2.86435e-06
-1.3085e-06
-5.02952e-05
-3.59874e-06
-1.01966e-06
-4.8397e-05
-4.44921e-06
-6.9372e-07
-4.64997e-05
-5.18748e-06
-4.71633e-07
-4.46846e-05
-5.81179e-06
-3.87918e-07
-4.27407e-05
-5.99073e-06
-6.33966e-07
-4.06423e-05
-5.46529e-06
-1.34453e-06
-3.78296e-05
-4.20751e-06
-2.31814e-06
-3.39084e-05
-2.40543e-06
-3.25354e-06
-2.90106e-05
-4.23687e-07
-3.80814e-06
-2.33297e-05
8.40247e-07
-4.05684e-06
-1.67108e-05
1.23275e-06
-4.28043e-06
-9.4506e-06
1.5896e-07
-3.5156e-06
-2.16012e-06
-7.4357e-07
-2.32174e-06
3.64763e-06
-4.0671e-06
-1.08827e-06
3.99754e-06
-1.03722e-05
7.06574e-07
-1.4066e-05
4.49897e-06
-3.93541e-06
-3.07065e-06
1.49245e-06
-3.53101e-06
-4.67549e-06
-6.99994e-07
-3.45545e-06
-3.75091e-06
-1.28584e-07
-2.14151e-06
-4.07284e-06
-1.28389e-06
-1.13526e-06
-3.55684e-06
-5.40346e-07
-2.96169e-07
-2.28614e-06
-2.93211e-07
-2.51015e-08
-1.56618e-07
-1.45222e-07
-8.98875e-08
7.41318e-07
-3.28248e-08
-4.66502e-08
9.23264e-07
-2.37997e-07
-1.17401e-07
1.13239e-06
-1.3537e-07
-1.20498e-07
1.2545e-06
-1.6159e-07
-1.43268e-07
1.37618e-06
-1.45353e-07
-1.48829e-07
1.42364e-06
-1.88815e-07
-1.41614e-07
1.29675e-06
-2.65125e-07
-1.33651e-07
1.22279e-06
-3.36552e-07
-1.49229e-07
1.23095e-06
-3.81588e-07
-1.82419e-07
1.29221e-06
-4.15832e-07
-2.25856e-07
1.38683e-06
-4.34046e-07
-2.72885e-07
1.47369e-06
-4.48039e-07
-3.22791e-07
1.538e-06
-4.60556e-07
-3.69478e-07
1.5805e-06
-4.69524e-07
-4.01397e-07
1.59657e-06
-4.76133e-07
-4.20756e-07
1.608e-06
-4.79211e-07
-4.29641e-07
1.61718e-06
-4.79402e-07
-4.28071e-07
1.6266e-06
-4.77428e-07
-4.20726e-07
1.63141e-06
-4.73984e-07
-4.09797e-07
1.62825e-06
-4.71429e-07
-3.94577e-07
1.62311e-06
-4.6995e-07
-3.77639e-07
1.62478e-06
-4.67435e-07
-3.65803e-07
1.64251e-06
-4.63463e-07
-3.66341e-07
1.67357e-06
-4.58604e-07
-3.79295e-07
1.70691e-06
-4.54644e-07
-4.04639e-07
1.74374e-06
-4.50709e-07
-4.3889e-07
1.78304e-06
-4.47354e-07
-4.76066e-07
1.83251e-06
-4.45061e-07
-5.08782e-07
1.89731e-06
-4.44018e-07
-5.20064e-07
1.96733e-06
-4.48537e-07
-4.84565e-07
2.02688e-06
-4.61629e-07
-3.75051e-07
2.0665e-06
-4.83984e-07
-1.75655e-07
2.10499e-06
-5.10319e-07
9.44328e-08
2.20609e-06
-5.25551e-07
3.8177e-07
2.45127e-06
-5.33855e-07
8.38963e-07
2.73913e-06
-6.54224e-07
1.9373e-06
2.51463e-06
-1.0635e-06
5.48985e-06
1.12012e-06
-2.34693e-06
9.75505e-06
1.15094e-06
-2.6822e-06
7.00251e-06
1.18791e-07
2.15465e-06
-3.91937e-06
2.22608e-06
3.4305e-06
-1.35193e-05
3.22606e-06
2.5042e-06
-1.59248e-05
2.93731e-06
9.76451e-07
-1.60875e-05
4.57591e-06
-2.74425e-06
-1.99751e-05
5.99992e-06
-2.9672e-06
-2.49406e-05
7.2871e-06
-3.39295e-06
-2.51523e-05
2.3199e-06
-4.0455e-06
-2.21089e-05
-1.0048e-06
-3.79128e-06
-2.42602e-05
-4.81025e-06
-7.61083e-07
2.81526e-06
-1.95811e-05
-1.45881e-05
2.09984e-06
-2.54619e-05
1.79627e-06
7.78204e-06
-5.55781e-05
5.66982e-06
-1.2604e-06
1.83608e-05
3.69711e-06
-4.79645e-05
4.15549e-05
2.23303e-05
-6.14354e-05
1.57647e-05
8.84413e-06
-6.7368e-05
1.45222e-05
-3.93288e-07
-6.33729e-05
3.75968e-06
-3.85536e-06
-6.42249e-05
5.33573e-06
-2.10109e-06
-6.3065e-05
-3.00182e-07
-1.00507e-06
-6.37496e-05
-5.9641e-07
1.83389e-07
-6.44185e-05
-2.71097e-06
7.11426e-07
-6.53175e-05
-4.08882e-06
1.23758e-06
-6.64665e-05
-4.95022e-06
1.86648e-06
-6.73496e-05
-6.03689e-06
2.1918e-06
-6.80245e-05
-6.79982e-06
2.3916e-06
-6.84356e-05
-6.29925e-06
2.05326e-06
-6.81722e-05
-5.93267e-06
1.67762e-06
-6.75537e-05
-5.09929e-06
1.279e-06
-6.67535e-05
-4.50349e-06
9.6461e-07
-6.56461e-05
-4.3485e-06
7.39012e-07
-6.41121e-05
-4.2371e-06
4.42391e-07
-6.2736e-05
-4.32919e-06
5.54486e-07
-6.14134e-05
-4.79756e-06
6.1525e-07
-6.05149e-05
-5.31762e-06
8.25282e-07
-6.03117e-05
-5.80737e-06
1.15987e-06
-6.04745e-05
-6.2941e-06
1.2746e-06
-6.06726e-05
-6.47131e-06
8.62897e-07
-6.073e-05
-5.49438e-06
-4.33435e-07
-5.95148e-05
-3.75183e-06
-2.92323e-06
-5.67487e-05
-2.12511e-06
-4.84326e-06
-5.23227e-05
-7.90766e-07
-6.03588e-06
-4.57154e-05
3.14794e-07
-7.34164e-06
-3.74484e-05
5.36656e-07
-7.96003e-06
-2.72268e-05
-9.76168e-07
-8.01015e-06
-1.58798e-05
-4.38522e-06
-6.80128e-06
-4.36492e-06
-7.04862e-06
-5.20915e-06
3.95549e-06
-1.07322e-05
-1.6552e-06
5.46849e-06
-1.43255e-05
2.44034e-06
-1.63775e-05
7.77991e-06
-3.53631e-06
-1.94995e-06
2.52076e-06
-3.79573e-06
-4.3516e-06
-6.44725e-08
-4.20006e-06
-3.58191e-06
2.35318e-07
-2.93961e-06
-4.20573e-06
-1.12758e-06
-1.71988e-06
-4.00389e-06
-7.72685e-07
-4.21974e-07
-2.98296e-06
-6.0109e-07
2.78403e-08
-7.3746e-07
1.31036e-07
-5.76046e-08
4.70737e-07
3.56035e-07
-5.08474e-08
8.56304e-07
6.02201e-08
-1.38448e-07