/*--------------------------------*- C++ -*----------------------------------*\
| =========                 |                                                 |
| \\      /  F ield         | OpenFOAM: The Open Source CFD Toolbox           |
|  \\    /   O peration     | Version:  2.3.0                                 |
|   \\  /    A nd           | Web:      www.OpenFOAM.org                      |
|    \\/     M anipulation  |                                                 |
\*---------------------------------------------------------------------------*/
FoamFile
{
    version     2.0;
    format      ascii;
    class       volVectorField;
    location    "45";
    object      U.airMean;
}
// * * * * * * * * * * * * * * * * * * * * * * * * * * * * * * * * * * * * * //

dimensions      [0 1 -1 0 0 0 0];

internalField   nonuniform List<vector> 
6144
(
(0.00959366 0.0200486 -0.000632147)
(0.00983866 -0.000126621 -0.00152291)
(0.00462187 -0.00162441 -0.00247431)
(0.00426345 -0.00246566 -0.00237472)
(0.00272894 -0.00253512 -0.00193091)
(0.00299932 -0.000973568 -0.00168726)
(0.0025858 -0.000977412 -0.00131851)
(0.00256248 0.000124905 -0.00101745)
(0.0022646 0.000372477 -0.00090505)
(0.00207896 0.00158593 -0.000599993)
(0.00192125 0.00244935 -0.000322334)
(0.00200168 0.00314348 7.31026e-05)
(0.00213617 0.003117 0.000242394)
(0.00227471 0.00272982 0.000442546)
(0.00234521 0.00207125 0.000354406)
(0.00242061 0.00149224 0.000241624)
(0.0024629 0.000932809 3.67681e-05)
(0.00250909 0.000545686 -0.000128328)
(0.00254442 0.000229748 -0.000302395)
(0.00257009 5.33353e-05 -0.000433014)
(0.00258484 -5.50413e-05 -0.000534033)
(0.00259168 -8.08888e-05 -0.000593009)
(0.00258808 -7.50106e-05 -0.00061573)
(0.00257605 -3.94672e-05 -0.000607739)
(0.00255618 4.90632e-06 -0.000574889)
(0.00253053 5.28862e-05 -0.000520867)
(0.00250133 9.64364e-05 -0.000451998)
(0.00247051 0.000129376 -0.000376105)
(0.00243882 0.000153941 -0.000297504)
(0.00240564 0.000156079 -0.000220227)
(0.00237176 0.000167116 -0.000142482)
(0.00233152 0.000128843 -5.87081e-05)
(0.00229081 0.000144762 3.77382e-05)
(0.00224102 3.03751e-05 0.000155284)
(0.00219819 2.96386e-05 0.000301715)
(0.00214883 -0.000277625 0.000470525)
(0.00211873 -0.000375244 0.000643532)
(0.002085 -0.000988304 0.000774871)
(0.00208022 -0.00113405 0.000825241)
(0.00207546 -0.0019324 0.000740109)
(0.00208819 -0.00179404 0.000466141)
(0.00209675 -0.0022683 -6.10231e-05)
(0.00212731 -0.00105952 -0.000674096)
(0.0023309 -0.000591182 -0.00118869)
(0.00271885 0.0013923 -0.00151316)
(0.00327999 0.00111216 -0.00180738)
(0.00397301 0.00230197 -0.00243357)
(0.00433483 0.00168445 -0.00366952)
(0.00324644 0.0070901 -0.00524562)
(0.00485978 0.0122921 -0.00719459)
(0.0160626 0.0150928 -0.00999584)
(0.0256769 -0.00262503 -0.0104384)
(0.0324609 -0.0128489 -0.0113487)
(0.0328883 -0.0503971 -0.0106619)
(0.0288339 -0.0457573 -0.0122079)
(0.0251808 -0.0877521 -0.00842856)
(0.00760692 -0.0421416 -0.0149418)
(0.0072453 -0.0982707 0.0199449)
(-0.0362599 0.0183725 -0.0477698)
(0.0327504 0.111215 0.0397472)
(0.110272 0.318575 0.0350338)
(0.046421 0.390172 -0.00655302)
(0.044755 -0.0854084 0.00101689)
(0.0494112 -0.173933 0.00537812)
(0.0405622 -0.179821 0.00590197)
(0.0332362 -0.172357 0.00582687)
(0.026898 -0.170491 0.00495747)
(0.0220648 -0.164245 0.00441589)
(0.0189458 -0.160808 0.00449488)
(0.0162446 -0.153826 0.00479986)
(0.014033 -0.148999 0.00511191)
(0.0117637 -0.141 0.00547175)
(0.00993876 -0.133472 0.00602561)
(0.00755902 -0.123899 0.00651219)
(0.00438967 -0.112947 0.00674835)
(0.00191766 -0.0989501 0.0051229)
(0.000819256 -0.0849408 0.00223483)
(-0.00040633 -0.0714114 0.000631121)
(-0.00130727 -0.0581295 0.000544938)
(2.37376e-05 -0.0456301 0.00135365)
(0.00173875 -0.0355817 0.0020204)
(0.00267995 -0.0276502 0.00278716)
(0.00291288 -0.0228965 0.00408037)
(0.00191241 -0.0196048 0.00455022)
(0.0014529 -0.0156075 0.00412941)
(0.00171501 -0.0105267 0.00348469)
(0.0021061 -0.00502642 0.00328166)
(0.00216289 0.000746091 0.00271204)
(0.00142976 0.00579807 0.00187318)
(0.00011242 0.0126784 0.00137015)
(0.000564568 0.0189689 0.00206037)
(0.0017522 0.0235252 0.00355138)
(0.00201615 0.0254443 0.00530422)
(0.00236223 0.025516 0.0076523)
(0.00412531 0.0242049 0.00967368)
(0.00738616 0.0156113 0.0136881)
(0.0188582 0.0213998 0.00291731)
(0.0199549 0.00779417 0.00240949)
(0.0104111 0.00455014 -0.000436066)
(0.0101399 0.00322036 0.000291474)
(0.00598986 0.000250812 0.00102829)
(0.00591877 0.000942971 0.00155045)
(0.00441995 -0.000115532 0.00209934)
(0.00423282 0.00123417 0.00211097)
(0.00359168 0.00151146 0.00206262)
(0.00334732 0.00300235 0.00212231)
(0.00325036 0.00372332 0.00226985)
(0.00363097 0.00430382 0.00271638)
(0.00400083 0.00407983 0.00293224)
(0.00438854 0.00367288 0.0031061)
(0.00452329 0.00292071 0.00307887)
(0.00466073 0.00227515 0.00304135)
(0.00468561 0.00160502 0.00294901)
(0.00473577 0.001133 0.00288479)
(0.00475888 0.000723188 0.00280552)
(0.00477383 0.000469243 0.00275656)
(0.00477236 0.000291282 0.00271539)
(0.00476161 0.000213492 0.00269644)
(0.00473316 0.000177944 0.00270489)
(0.00469023 0.00018458 0.00273951)
(0.00463453 0.00020834 0.00279299)
(0.0045701 0.000243861 0.00286073)
(0.00450228 0.000280084 0.00293203)
(0.00443552 0.000308536 0.00300012)
(0.00436993 0.000328792 0.00306694)
(0.00430426 0.000326728 0.00312759)
(0.0042399 0.000330181 0.00318676)
(0.00416483 0.00027419 0.00324919)
(0.00409761 0.000269472 0.00331763)
(0.00402015 0.000112193 0.00339257)
(0.00397934 8.91502e-05 0.00348034)
(0.00393517 -0.000266123 0.00357315)
(0.00395293 -0.000336876 0.00366958)
(0.00394562 -0.000971832 0.00374393)
(0.00399183 -0.0010148 0.00378416)
(0.00396866 -0.00182953 0.00374957)
(0.00391955 -0.0015332 0.00360616)
(0.0037926 -0.00209426 0.00319623)
(0.00373984 -0.000801375 0.0025065)
(0.00392772 -0.000724947 0.00184506)
(0.00466054 0.00125074 0.00147126)
(0.0058021 0.000726406 0.00115245)
(0.00623867 0.00256212 5.35116e-05)
(0.0054083 0.00399826 -0.00159774)
(0.00519287 0.0103629 -0.00270405)
(0.0127242 0.00796946 -0.00320277)
(0.033563 0.00220384 -0.004588)
(0.0484238 -0.0153162 -0.00453622)
(0.0592239 -0.0193155 -0.00257805)
(0.056867 -0.0477153 6.69701e-05)
(0.0465794 -0.035112 0.00560705)
(0.0461322 -0.0944482 0.0135502)
(0.00636522 -0.0438491 0.0125966)
(0.00202452 -0.159819 0.0416466)
(-0.0931761 0.0422708 -0.0760136)
(0.0227276 0.0433414 0.0228767)
(0.121397 0.350975 0.077178)
(0.0244371 0.428476 0.00306876)
(0.0208798 -0.0665063 0.00670265)
(0.0246759 -0.0270936 0.0150797)
(0.0114878 -0.0451264 0.0166356)
(0.00470235 -0.0324186 0.0144099)
(0.0022651 -0.0338424 0.011272)
(0.00279862 -0.0284997 0.0105768)
(0.00440645 -0.0281524 0.01034)
(0.00463468 -0.0243567 0.00889775)
(0.00334578 -0.0250804 0.009507)
(0.00111907 -0.0246804 0.0104025)
(-0.000907682 -0.0273672 0.0106867)
(-0.00412738 -0.0285904 0.0093903)
(-0.00761058 -0.0296348 0.00770845)
(-0.0087529 -0.0270499 0.00621519)
(-0.00826547 -0.024487 0.00453451)
(-0.00858263 -0.0212754 0.0038076)
(-0.00817214 -0.0174323 0.00384949)
(-0.00597243 -0.0145175 0.00463551)
(-0.00363209 -0.0110978 0.00514181)
(-0.00185281 -0.00798016 0.00639049)
(-0.000990731 -0.0080713 0.00822418)
(-0.00149373 -0.00994937 0.00876348)
(-0.00247879 -0.0110487 0.00774793)
(-0.00236883 -0.0111651 0.00673565)
(-0.00188563 -0.00902022 0.00546171)
(-0.00209317 -0.00512857 0.00423696)
(-0.00250676 -0.00101069 0.00311406)
(-0.00312701 0.00397626 0.00237657)
(-0.00268535 0.00816142 0.00325315)
(-0.00144731 0.0113613 0.00466166)
(-0.00148573 0.015094 0.00688567)
(-0.00125105 0.0152879 0.0102694)
(-0.00026256 0.0161826 0.0132348)
(0.00311257 0.00978802 0.0178274)
(0.0222189 0.0214911 0.00403746)
(0.0240131 0.0123657 0.00390961)
(0.0142893 0.00807018 0.00126114)
(0.0135787 0.00749989 0.00218615)
(0.00737184 0.00313319 0.00278833)
(0.00648345 0.00335848 0.00307445)
(0.0036554 0.00121827 0.00362039)
(0.00326769 0.00236601 0.00351733)
(0.00238889 0.00237997 0.00342644)
(0.00240921 0.00357583 0.00351556)
(0.00237944 0.0037527 0.00358205)
(0.00306092 0.00421262 0.00387437)
(0.00349968 0.00392754 0.00403975)
(0.0039998 0.00375656 0.00418623)
(0.00417984 0.0031923 0.00416552)
(0.0043618 0.00272782 0.00415315)
(0.00435798 0.00214636 0.00410463)
(0.00439042 0.00172499 0.00408749)
(0.00435685 0.00131566 0.00407266)
(0.00432447 0.00103492 0.00408279)
(0.00425956 0.000798647 0.00410196)
(0.00419012 0.00065282 0.00413654)
(0.00411261 0.000551924 0.00417583)
(0.0040318 0.000501253 0.00422134)
(0.00394647 0.00047598 0.00426974)
(0.00386007 0.000469436 0.00431975)
(0.00377248 0.000468879 0.00437074)
(0.00368369 0.000467838 0.00442362)
(0.00359531 0.000464776 0.00447804)
(0.00350281 0.000444161 0.00453399)
(0.00341051 0.000428607 0.00459169)
(0.00330893 0.000357111 0.00465118)
(0.0032202 0.000331126 0.00471326)
(0.00311943 0.000169125 0.00477549)
(0.00306925 0.000156403 0.00483993)
(0.00301416 -0.000126481 0.0048991)
(0.00304294 -6.7732e-05 0.00495564)
(0.00303945 -0.000474171 0.00499131)
(0.00311517 -0.00022723 0.00500405)
(0.0031059 -0.000680763 0.00496651)
(0.00312689 -4.80888e-05 0.00486426)
(0.00296563 -0.000477973 0.00467216)
(0.00287823 0.00063853 0.00437679)
(0.00306562 0.000114633 0.00396817)
(0.00383967 0.00148442 0.00364543)
(0.0050614 0.000568666 0.00343563)
(0.00538316 0.00268766 0.00256159)
(0.00530661 0.00255859 0.00103152)
(0.00838908 0.00662784 0.000440591)
(0.0231395 -0.00202272 0.000961037)
(0.0487739 -0.00609296 -0.000401261)
(0.0677742 -0.0163746 0.000578014)
(0.0763704 -0.0105464 0.00420366)
(0.0748531 -0.0287478 0.00748985)
(0.0675355 -0.0115674 0.0174152)
(0.0653595 -0.0771224 0.0269216)
(0.0118749 -0.0128686 0.0369787)
(0.0217963 -0.179679 0.0662049)
(-0.111403 0.0860826 -0.0611297)
(0.0509636 0.0184356 -0.0034193)
(0.167401 0.373104 0.0917562)
(0.0732461 0.447679 0.0234481)
(0.0672762 -0.00105552 0.0190849)
(0.0432085 0.0672021 0.013532)
(0.0291835 0.0319753 0.0117544)
(0.0201415 0.0472973 0.0121253)
(0.0181435 0.0390157 0.0124895)
(0.0152543 0.0419392 0.010579)
(0.0151072 0.0415484 0.00900903)
(0.0150501 0.0399838 0.00942701)
(0.0135956 0.0313092 0.0110097)
(0.0106787 0.0237497 0.0113835)
(0.008508 0.0172479 0.0105918)
(0.00535466 0.0151534 0.00952437)
(0.00178898 0.0120216 0.00807027)
(-0.000257876 0.0108389 0.00674551)
(-0.00127464 0.0103004 0.00676616)
(-0.00243423 0.0103841 0.006856)
(-0.00367038 0.00962861 0.00788947)
(-0.00357069 0.00834041 0.00893752)
(-0.00250624 0.00774019 0.00978128)
(-0.00112404 0.00696343 0.0115495)
(-0.000805134 0.00377288 0.0140348)
(-0.00329053 -7.95567e-05 0.0144111)
(-0.00532818 -0.00382655 0.0138228)
(-0.00618827 -0.00642725 0.0121811)
(-0.00618356 -0.00634252 0.00955123)
(-0.00617864 -0.00515993 0.00646217)
(-0.00588134 -0.00282338 0.00280846)
(-0.00554504 0.00226332 0.000508422)
(-0.00481806 0.0056293 0.00293847)
(-0.004685 0.00824319 0.00586044)
(-0.00468458 0.010271 0.00890982)
(-0.00411432 0.00949638 0.0121904)
(-0.00474397 0.0110341 0.0153357)
(-0.00408818 0.00640894 0.019187)
(0.0234757 0.0215988 0.00429262)
(0.0268059 0.0154757 0.00446984)
(0.0161193 0.00963446 0.00105129)
(0.0163643 0.0104851 0.00151122)
(0.00915025 0.00499451 0.00198915)
(0.00806503 0.00551095 0.00248382)
(0.00349093 0.00179493 0.00335372)
(0.00250781 0.00259047 0.0033437)
(0.00114971 0.00187848 0.00344919)
(0.00142372 0.00312296 0.00361571)
(0.00139331 0.00297067 0.0037743)
(0.00204896 0.00356515 0.00418268)
(0.00240894 0.00348081 0.00437673)
(0.00292919 0.00360215 0.00453419)
(0.00313266 0.00321558 0.00450026)
(0.00333441 0.00291728 0.00450102)
(0.00331583 0.0024076 0.00446924)
(0.00333199 0.00204452 0.00447635)
(0.00326965 0.00165221 0.00447466)
(0.00321625 0.00137198 0.00449047)
(0.00312443 0.00111232 0.00450772)
(0.0030293 0.000930881 0.00453654)
(0.00292211 0.000785311 0.00456943)
(0.00281485 0.00069091 0.00460881)
(0.00270893 0.000629044 0.00465164)
(0.0026077 0.000595199 0.00469751)
(0.00251176 0.000576438 0.00474429)
(0.00242098 0.000564266 0.00479137)
(0.00233533 0.000552966 0.00483904)
(0.00225191 0.000528088 0.00488774)
(0.00217416 0.000507727 0.00493817)
(0.00209281 0.000442927 0.00498942)
(0.00202952 0.000426496 0.00503934)
(0.00195764 0.000298233 0.00508314)
(0.00193758 0.000326273 0.0051182)
(0.00189781 0.000123977 0.00513777)
(0.00193985 0.000285156 0.00514229)
(0.001917 3.93218e-05 0.00512118)
(0.00197426 0.000479677 0.00507753)
(0.00191952 0.000264872 0.00500127)
(0.00196293 0.00114503 0.00489153)
(0.00192839 0.000853857 0.00473837)
(0.00211143 0.00181177 0.00452662)
(0.00240777 0.000758182 0.00425721)
(0.00311158 0.00149813 0.00412039)
(0.00403978 -3.4076e-05 0.00408577)
(0.00451212 0.00188584 0.00357825)
(0.00524704 -0.000449212 0.00242257)
(0.0121583 0.000225716 0.00236056)
(0.0283684 -0.00929058 0.00286783)
(0.0530672 -0.00838692 0.00251674)
(0.0700911 -0.00650595 0.00575291)
(0.0783709 0.00926737 0.0103458)
(0.0768522 0.00309111 0.014291)
(0.0689364 0.02912 0.0277227)
(0.063193 -0.0316565 0.0423898)
(0.0170553 0.0574256 0.0775395)
(0.0358038 -0.186973 0.103335)
(-0.142044 0.214561 -0.0403654)
(0.0547383 -0.0465979 0.0226883)
(0.149174 0.456902 0.0921491)
(0.0484834 0.578385 0.0154057)
(0.0340316 0.39731 0.0137643)
(0.0107963 0.448372 0.00281144)
(0.00771508 0.404575 0.00799036)
(0.00248639 0.390771 0.00751754)
(0.00341424 0.367186 0.00879728)
(0.00268613 0.347189 0.00832475)
(0.00495158 0.323707 0.007322)
(0.00612256 0.30193 0.00692265)
(0.00743227 0.269522 0.00733948)
(0.00756594 0.238578 0.00690288)
(0.00575456 0.205185 0.00695546)
(0.0028709 0.173169 0.00692436)
(0.000613822 0.146785 0.00724957)
(-0.00149493 0.130592 0.00816932)
(-0.00386395 0.11684 0.00855671)
(-0.00580323 0.105079 0.00889134)
(-0.00720561 0.088357 0.0110363)
(-0.00780896 0.0723527 0.0129873)
(-0.00794909 0.061647 0.0153867)
(-0.00836409 0.0540932 0.0166713)
(-0.00927233 0.0454655 0.0181652)
(-0.0107629 0.0353281 0.017245)
(-0.0129279 0.0284799 0.0159911)
(-0.0138986 0.0237281 0.0139448)
(-0.0129846 0.020476 0.00895118)
(-0.0111095 0.0190319 0.00522982)
(-0.0104174 0.0170206 0.00180079)
(-0.00850034 0.0169859 -0.000100726)
(-0.00758222 0.0158393 0.00336073)
(-0.00814767 0.0144876 0.00656035)
(-0.00834294 0.0128137 0.00937065)
(-0.00950284 0.0091188 0.0127575)
(-0.0130373 0.00962053 0.0154041)
(-0.014795 0.00517425 0.0191394)
(0.0235138 0.0217359 0.00449318)
(0.0287302 0.018407 0.00516806)
(0.0175843 0.0106074 0.000895386)
(0.0190807 0.0125251 0.0010895)
(0.0110457 0.00544621 0.000535268)
(0.0101318 0.00697886 0.00107954)
(0.00428888 0.00217025 0.00199553)
(0.0025955 0.00314255 0.0025037)
(5.73961e-05 0.00100845 0.0028989)
(5.93553e-05 0.00219614 0.00329665)
(-0.000230981 0.00177651 0.00354196)
(0.000191846 0.00268762 0.00412321)
(0.000380472 0.00285495 0.00434012)
(0.000938872 0.00328851 0.004535)
(0.00118202 0.00306615 0.00447581)
(0.0013812 0.00288158 0.00449486)
(0.00130124 0.00242623 0.00447126)
(0.00122446 0.00212612 0.00449675)
(0.00107521 0.00177333 0.00449418)
(0.00095919 0.00152195 0.0044984)
(0.000820419 0.00126319 0.00449084)
(0.000696284 0.00106476 0.00449204)
(0.00057315 0.000892341 0.00449702)
(0.000455784 0.000769593 0.00450951)
(0.000342193 0.000679711 0.00452641)
(0.000240472 0.000621415 0.00454905)
(0.000149721 0.000582534 0.00457509)
(7.04262e-05 0.000554471 0.00460304)
(4.72789e-07 0.000531715 0.00463052)
(-6.54864e-05 0.000504534 0.00465738)
(-0.000127545 0.00048665 0.00468361)
(-0.000194366 0.000438309 0.00470802)
(-0.000246603 0.000442717 0.00472935)
(-0.000308697 0.000363032 0.00474096)
(-0.000317157 0.00044696 0.00473957)
(-0.000346645 0.000341433 0.00471379)
(-0.00029428 0.000608123 0.00466507)
(-0.000324493 0.000528009 0.00457986)
(-0.000280886 0.00114839 0.00446797)
(-0.000373391 0.00114392 0.00433112)
(-0.000261588 0.00215439 0.00420402)
(-9.3681e-05 0.00186602 0.00408116)
(0.000506559 0.00262462 0.00392097)
(0.00113497 0.00119347 0.00376594)
(0.00198451 0.00156194 0.00386638)
(0.00252752 -0.000321413 0.00395496)
(0.00335712 0.00097836 0.0040296)
(0.00656727 -0.00314949 0.0036103)
(0.0154915 -0.00486422 0.00430284)
(0.0307499 -0.0108288 0.00588366)
(0.0496535 -0.00186174 0.00774235)
(0.0641784 0.0100794 0.0143025)
(0.0711656 0.0372759 0.019156)
(0.070736 0.0415298 0.0231122)
(0.0642878 0.0720266 0.0398341)
(0.0561581 0.0273166 0.0548484)
(0.0285995 0.127174 0.0921687)
(0.0404772 -0.126288 0.109385)
(-0.111101 0.321283 -0.00858363)
(0.0435695 -0.0770457 0.0298247)
(0.139657 0.503901 0.0988113)
(0.0437494 0.621732 0.0139125)
(0.0351307 0.549434 0.0140029)
(0.0117338 0.602804 0.000879342)
(0.0111961 0.594562 0.00705576)
(0.00452076 0.608635 0.00700361)
(0.00567226 0.609283 0.00832358)
(0.00431194 0.614645 0.00754941)
(0.00609499 0.615089 0.00739798)
(0.00733748 0.615642 0.008229)
(0.00886794 0.611088 0.00905496)
(0.00848787 0.6073 0.00952972)
(0.00790003 0.602605 0.0100855)
(0.00602547 0.595595 0.0107463)
(0.00416591 0.579639 0.011707)
(0.00204479 0.549115 0.0115885)
(-3.50169e-05 0.521623 0.011955)
(-0.00275292 0.495103 0.0129769)
(-0.00522915 0.469325 0.0150626)
(-0.00744972 0.445812 0.016887)
(-0.00949736 0.420387 0.0184394)
(-0.011236 0.385956 0.0192565)
(-0.0119121 0.342707 0.0180667)
(-0.0119507 0.301786 0.0147827)
(-0.0106785 0.264611 0.0104097)
(-0.00895833 0.240009 0.00552853)
(-0.00754213 0.208798 0.0024773)
(-0.00628807 0.175336 0.00132674)
(-0.00686684 0.14758 0.000678725)
(-0.00596487 0.125914 0.0041792)
(-0.00710067 0.107477 0.00803878)
(-0.0076342 0.0815563 0.0100752)
(-0.00844801 0.0613851 0.0132406)
(-0.0118554 0.0381554 0.015361)
(-0.0187929 0.0234707 0.0157669)
(-0.0256239 0.0108766 0.0180189)
(0.0221621 0.0214113 0.00519939)
(0.0301189 0.0216552 0.00648823)
(0.0181956 0.0113761 0.00168622)
(0.0211128 0.0144058 0.00232549)
(0.0129424 0.00463885 0.000179499)
(0.0119282 0.00736147 0.000268481)
(0.00554866 0.00156765 0.000771627)
(0.00328633 0.00362373 0.0014529)
(4.98503e-05 0.000407117 0.00209953)
(-0.00083319 0.00145479 0.00270438)
(-0.00147544 0.00042527 0.00298791)
(-0.00129277 0.00158313 0.00373976)
(-0.00104086 0.00200533 0.004062)
(-0.000302263 0.00281755 0.00445138)
(0.000132821 0.00267661 0.00454067)
(0.000397106 0.00258651 0.00467984)
(0.000291231 0.00216363 0.00468942)
(0.000147548 0.00195503 0.00471863)
(-5.63006e-05 0.00169566 0.00468601)
(-0.00020675 0.00154827 0.004649)
(-0.000366929 0.00137133 0.004584)
(-0.000505989 0.00123375 0.00451964)
(-0.000645275 0.00109659 0.00445562)
(-0.000769015 0.000989224 0.00440175)
(-0.000874729 0.000903966 0.00435609)
(-0.000959499 0.000846049 0.00431904)
(-0.00102456 0.000805879 0.00429043)
(-0.00107431 0.000777733 0.00426925)
(-0.00111574 0.00075581 0.0042541)
(-0.00115063 0.000733733 0.00424624)
(-0.00117964 0.000725815 0.00424536)
(-0.00120919 0.000703976 0.00424745)
(-0.00122464 0.000742103 0.00424976)
(-0.00124833 0.000726125 0.00423995)
(-0.00123087 0.000879242 0.00421199)
(-0.00125006 0.000881531 0.00415073)
(-0.0012255 0.00124174 0.00405164)
(-0.00132421 0.00127617 0.00389552)
(-0.00136032 0.00193949 0.00370104)
(-0.00147198 0.00193267 0.00350527)
(-0.00126587 0.00279386 0.00337825)
(-0.00086028 0.00235327 0.00333854)
(8.05306e-05 0.00297221 0.00338193)
(0.000866261 0.00145314 0.00353125)
(0.00158456 0.00183966 0.00387498)
(0.00183758 -5.56772e-05 0.00421212)
(0.00339237 -0.000118603 0.00438498)
(0.00881824 -0.00473149 0.00412086)
(0.0159856 -0.0056172 0.00571931)
(0.0256243 -0.00854219 0.0095421)
(0.0376712 0.00731412 0.0136838)
(0.0434504 0.0272159 0.0215487)
(0.0511263 0.0598253 0.028947)
(0.053348 0.0716218 0.0360272)
(0.0483218 0.10308 0.0522759)
(0.0406792 0.0648081 0.0607801)
(0.0323528 0.145805 0.080956)
(0.0413495 -0.0859579 0.0815475)
(-0.0400411 0.365565 0.0291825)
(0.0341107 -0.0834409 0.0336607)
(0.0878033 0.54387 0.093918)
(0.0175182 0.643791 0.00626953)
(0.0131951 0.606841 0.00930543)
(-0.00438838 0.660689 0.00106617)
(-0.00278536 0.661117 0.00943655)
(-0.00568652 0.674787 0.0104698)
(-0.00199392 0.675208 0.0126533)
(-0.000360617 0.679873 0.0130385)
(0.00348194 0.67971 0.0140125)
(0.00686376 0.680004 0.0145426)
(0.0100707 0.674866 0.0143573)
(0.0112053 0.671854 0.0144556)
(0.0119284 0.669195 0.0147179)
(0.0107177 0.666033 0.0153037)
(0.00870588 0.660006 0.01573)
(0.00583811 0.654876 0.0159219)
(0.00268555 0.647682 0.0163794)
(-0.000940372 0.63958 0.0168701)
(-0.00495396 0.629618 0.0173266)
(-0.00828984 0.615448 0.017246)
(-0.0110778 0.600912 0.015846)
(-0.0125808 0.584555 0.0133944)
(-0.0122734 0.567117 0.00962678)
(-0.0112529 0.546723 0.00514263)
(-0.0103519 0.526299 0.000900461)
(-0.00904715 0.502976 -0.00219897)
(-0.00771007 0.468622 -0.00273689)
(-0.00708385 0.427962 0.000118279)
(-0.00787678 0.391886 0.00495209)
(-0.0091637 0.354779 0.00947794)
(-0.0110131 0.313222 0.0106435)
(-0.0123732 0.265744 0.0119253)
(-0.014311 0.227864 0.0146821)
(-0.0186385 0.178142 0.0162572)
(-0.0250627 0.123483 0.0163079)
(-0.0312845 0.0884927 0.0151287)
(0.0185346 0.0199371 0.005376)
(0.0300818 0.0253283 0.00851273)
(0.0169223 0.0115423 0.00351452)
(0.021089 0.0165058 0.00501078)
(0.0132047 0.0033875 0.00176304)
(0.0121155 0.00689705 0.00124786)
(0.00546262 0.000110684 0.00113216)
(0.00336375 0.00353071 0.00123956)
(-0.000244696 6.6229e-05 0.00165825)
(-0.00171989 0.00138229 0.00240632)
(-0.0031503 -0.000287828 0.00259373)
(-0.00384635 0.000903596 0.00337735)
(-0.00400436 0.00124212 0.00380559)
(-0.00304657 0.00219068 0.00456548)
(-0.00248246 0.00205269 0.00495075)
(-0.00222316 0.00211631 0.00526578)
(-0.0024672 0.00178823 0.00530634)
(-0.00280183 0.00171714 0.00529605)
(-0.00315387 0.00157429 0.00519223)
(-0.00338277 0.00155805 0.00508483)
(-0.00356908 0.00150105 0.00494891)
(-0.00369727 0.00147835 0.00482196)
(-0.00380228 0.00143235 0.00470071)
(-0.00388805 0.00139432 0.00460108)
(-0.00396628 0.00135925 0.00452372)
(-0.00401605 0.00133653 0.00446162)
(-0.00404298 0.00131678 0.00441267)
(-0.00404596 0.00130075 0.00438213)
(-0.00403428 0.00128611 0.00436865)
(-0.00401937 0.00127221 0.00436986)
(-0.00400925 0.00127752 0.0043834)
(-0.00400705 0.00128642 0.00440201)
(-0.00400603 0.00136855 0.00441892)
(-0.00402034 0.00142621 0.00441777)
(-0.00399863 0.00164758 0.00439551)
(-0.00400393 0.00173045 0.00433917)
(-0.00394675 0.00211691 0.00425725)
(-0.00397333 0.00213444 0.00412726)
(-0.00390845 0.00262921 0.00394942)
(-0.0039046 0.00235639 0.00372487)
(-0.00358832 0.00282875 0.00353697)
(-0.00309906 0.00205904 0.00342458)
(-0.00205952 0.00249634 0.00350182)
(-0.00123804 0.00110887 0.00378174)
(-0.000616883 0.00158216 0.00420033)
(9.29667e-05 -0.00022842 0.00446321)
(0.00330895 -0.00097227 0.00442298)
(0.00864005 -0.00406683 0.00443157)
(0.0143219 -0.00319639 0.00624409)
(0.0167697 -0.0010608 0.010593)
(0.0153597 0.0209338 0.0165673)
(0.0196924 0.0439166 0.0256734)
(0.0253052 0.07824 0.0343755)
(0.0292742 0.0970239 0.0436434)
(0.0342049 0.125107 0.0563168)
(0.0374836 0.0879346 0.0608203)
(0.0460547 0.16013 0.0704789)
(0.04024 -0.0645726 0.0591789)
(0.00293675 0.357264 0.0603959)
(0.0133181 -0.0686485 0.0341725)
(0.0276261 0.574563 0.0825688)
(-0.00606627 0.663358 0.00647554)
(-0.00615412 0.645323 0.00828315)
(-0.0133191 0.694543 0.00309786)
(-0.00875017 0.692417 0.0124543)
(-0.00705147 0.703136 0.0128826)
(-0.00294871 0.701304 0.0151022)
(-5.96821e-05 0.703703 0.0157092)
(0.0037187 0.701744 0.0170514)
(0.00738506 0.700283 0.017484)
(0.0107191 0.697568 0.0173969)
(0.0123683 0.694196 0.0173832)
(0.0134942 0.692818 0.017832)
(0.0128323 0.689656 0.0179338)
(0.0113458 0.684946 0.0180151)
(0.00873522 0.677279 0.0174538)
(0.00577635 0.667588 0.0169612)
(0.00235579 0.657466 0.0163954)
(-0.000700233 0.649631 0.0157016)
(-0.00347344 0.641207 0.0148142)
(-0.00484272 0.632203 0.0125321)
(-0.00516913 0.624724 0.00913885)
(-0.00427303 0.621394 0.00477379)
(-0.0036881 0.618744 -5.27327e-05)
(-0.00310713 0.61183 -0.00402325)
(-0.00322318 0.59994 -0.00671005)
(-0.00378419 0.590406 -0.00615238)
(-0.00399605 0.577514 -0.00346555)
(-0.00413392 0.552089 -0.000411367)
(-0.00590055 0.533908 0.00254238)
(-0.00912964 0.515534 0.00383774)
(-0.0133647 0.487956 0.00586067)
(-0.0182689 0.446517 0.00763718)
(-0.024672 0.389103 0.00872728)
(-0.0320528 0.319696 0.00983992)
(-0.0394704 0.25858 0.00744465)
(0.0152594 0.0147254 0.00433538)
(0.0289021 0.0284475 0.00925014)
(0.0141401 0.0113249 0.00423858)
(0.0197795 0.0193719 0.00606577)
(0.0126253 0.00334228 0.00282632)
(0.0109021 0.00698474 0.00202278)
(0.00366025 -0.00113465 0.00208936)
(0.00183223 0.00331854 0.00169885)
(-0.000955241 -0.000449561 0.00220702)
(-0.00247042 0.00168084 0.00284542)
(-0.00389508 -0.000367884 0.00309807)
(-0.00475101 0.000646329 0.0039286)
(-0.00477275 0.000110134 0.00460772)
(-0.00366745 0.000798573 0.00561272)
(-0.00308085 0.000586523 0.00631699)
(-0.00284543 0.00104868 0.00688901)
(-0.00306524 0.00110443 0.0071303)
(-0.00333889 0.00142523 0.00720706)
(-0.00363271 0.00152857 0.00713097)
(-0.0038118 0.00171983 0.00701443)
(-0.00396383 0.00180276 0.00685319)
(-0.00405765 0.00188424 0.006699)
(-0.00412815 0.00190881 0.00655453)
(-0.00417332 0.0019218 0.00643454)
(-0.00420317 0.00191316 0.00633553)
(-0.00420709 0.00189948 0.0062597)
(-0.00418824 0.00188414 0.00620487)
(-0.00414872 0.00186898 0.00616964)
(-0.00409921 0.00185402 0.00615031)
(-0.00405092 0.00184553 0.0061455)
(-0.00401519 0.00186352 0.00614942)
(-0.00399697 0.00190077 0.00615203)
(-0.00399168 0.00201794 0.00614584)
(-0.00399772 0.00212535 0.00612192)
(-0.00396497 0.00237365 0.00607939)
(-0.00395628 0.00247795 0.00600847)
(-0.00387646 0.00281326 0.00591868)
(-0.00385892 0.00275311 0.00578735)
(-0.0036902 0.0030851 0.00562902)
(-0.00354958 0.00264291 0.00543928)
(-0.00311441 0.00285708 0.00528498)
(-0.00263937 0.00185569 0.00520842)
(-0.00178207 0.0021006 0.00535014)
(-0.00116682 0.000681347 0.00566115)
(-0.000795651 0.00137684 0.00603139)
(0.000124677 -0.000634737 0.00569428)
(0.00300247 0.0001615 0.00488625)
(0.0065173 0.000372777 0.00466101)
(0.00843611 0.00616496 0.00684731)
(0.0023924 0.0144565 0.0148161)
(-0.00555195 0.0347468 0.023872)
(-0.00822154 0.0567406 0.0309951)
(-0.0049492 0.0883333 0.0355335)
(0.00722661 0.111523 0.0401124)
(0.0232952 0.143123 0.05155)
(0.0461242 0.128058 0.05816)
(0.0700743 0.185481 0.0725138)
(0.0732627 -0.00780157 0.0646791)
(0.0756845 0.391226 0.0389467)
(-0.0244723 -0.0810977 0.0297507)
(-0.0574674 0.601017 0.0492548)
(-0.0381065 0.6882 -0.00903897)
(-0.0355899 0.666163 0.000993668)
(-0.0250291 0.707681 -0.00032527)
(-0.0171618 0.699348 0.00849672)
(-0.00855483 0.705503 0.00797419)
(-0.0048377 0.70052 0.00949033)
(0.000712089 0.699339 0.00949862)
(0.00469609 0.699001 0.0109444)
(0.00911924 0.697308 0.0118591)
(0.0117579 0.696512 0.0121442)
(0.0137849 0.697982 0.0128079)
(0.0160521 0.697784 0.0140477)
(0.017673 0.695827 0.0155152)
(0.018255 0.690745 0.0169687)
(0.0178356 0.685814 0.0182137)
(0.0168951 0.677841 0.0189596)
(0.0151933 0.668008 0.0192228)
(0.0129645 0.656202 0.0186588)
(0.0108043 0.643691 0.0174765)
(0.00901252 0.632878 0.0155389)
(0.00796086 0.618524 0.0126685)
(0.00671897 0.604014 0.00905898)
(0.00547654 0.596333 0.00526044)
(0.00413867 0.591775 0.00266332)
(0.00299921 0.584089 0.00126839)
(0.00313361 0.575854 0.00126277)
(0.00341689 0.567631 0.001558)
(0.00383351 0.560737 0.00314409)
(0.003102 0.551399 0.00600629)
(0.000210506 0.532107 0.00867604)
(-0.00473049 0.507926 0.0110119)
(-0.0108704 0.485341 0.0111251)
(-0.0195006 0.469046 0.00715079)
(-0.0275075 0.45237 -0.00223532)
(-0.0336026 0.438595 -0.0204406)
(0.00549215 0.00967772 -0.00288463)
(0.0264316 0.0302863 0.00729547)
(0.00981703 0.0114982 0.00188515)
(0.0175315 0.0231652 0.0037765)
(0.0115293 0.005289 0.0014572)
(0.00960302 0.00850477 0.000387527)
(0.00129966 -0.00132339 -0.00103701)
(-6.04327e-05 0.00385757 -0.00143296)
(-0.00323432 -0.000219352 -0.00092634)
(-0.00457796 0.00225572 -0.000368565)
(-0.00609244 -0.00020869 -2.9143e-05)
(-0.00695495 0.000559691 0.000759561)
(-0.00749059 -0.00072501 0.00145585)
(-0.00695276 -0.000133505 0.00230929)
(-0.00695897 -0.000262905 0.00303349)
(-0.0070264 0.000487395 0.00362889)
(-0.0074483 0.000743933 0.00406385)
(-0.00777456 0.00126975 0.00432774)
(-0.00811129 0.00149468 0.00442607)
(-0.00828354 0.00178856 0.00443563)
(-0.00837345 0.00194003 0.00437608)
(-0.00838352 0.0020788 0.00430546)
(-0.00837026 0.00214829 0.00423527)
(-0.00833884 0.00219273 0.0041777)
(-0.00829631 0.00220659 0.00412966)
(-0.00823722 0.0022074 0.00409274)
(-0.00816352 0.00220248 0.00406573)
(-0.00807652 0.00219962 0.00404796)
(-0.00798598 0.00220244 0.00403699)
(-0.00791467 0.00221593 0.00403152)
(-0.00787488 0.0022533 0.00402834)
(-0.00785782 0.00231142 0.00402081)
(-0.00785751 0.00243443 0.00400375)
(-0.00785867 0.00253979 0.00397159)
(-0.00780294 0.00276027 0.00392167)
(-0.00773374 0.00284469 0.00385754)
(-0.00755943 0.00314612 0.00377841)
(-0.00742592 0.003094 0.003676)
(-0.007183 0.00339123 0.00353422)
(-0.00697671 0.00292503 0.00336368)
(-0.00649745 0.00307304 0.00318817)
(-0.00602965 0.00202253 0.00305943)
(-0.00523968 0.00211352 0.00308985)
(-0.00480378 0.000530699 0.00337261)
(-0.00449066 0.00100793 0.00352652)
(-0.00382209 -0.00123613 0.00244877)
(-0.00176314 0.00202315 0.00182824)
(-0.000560889 0.00259407 0.00154388)
(-0.00240977 0.0120359 0.00451772)
(-0.0118237 0.019194 0.0132419)
(-0.027388 0.0322029 0.023681)
(-0.0311882 0.0429601 0.0301748)
(-0.0284061 0.0679139 0.0310881)
(-0.0166393 0.0790495 0.0283956)
(-0.00088639 0.122566 0.0363314)
(0.0316485 0.0919214 0.0410524)
(0.0698868 0.185988 0.0612085)
(0.0941941 -0.011331 0.068585)
(0.168379 0.424099 0.0317261)
(-0.0452704 -0.107994 0.0233638)
(-0.125009 0.568802 0.0300488)
(-0.0545364 0.672041 -0.00834581)
(-0.0493174 0.624946 0.00254276)
(-0.024355 0.664724 0.00347913)
(-0.0177088 0.641353 0.00947992)
(-0.00607372 0.644299 0.00642443)
(-0.00405779 0.634612 0.00610368)
(0.00048381 0.633243 0.00453738)
(0.00300887 0.630646 0.00418821)
(0.00605366 0.629652 0.0036153)
(0.00681656 0.628277 0.00215119)
(0.00800599 0.630095 0.00175903)
(0.00909063 0.631192 0.00212936)
(0.0111908 0.634245 0.00358311)
(0.0134231 0.637065 0.00528515)
(0.0152499 0.638568 0.00733471)
(0.0157736 0.636202 0.00844969)