/*--------------------------------*- C++ -*----------------------------------*\
| =========                 |                                                 |
| \\      /  F ield         | OpenFOAM: The Open Source CFD Toolbox           |
|  \\    /   O peration     | Version:  2.3.0                                 |
|   \\  /    A nd           | Web:      www.OpenFOAM.org                      |
|    \\/     M anipulation  |                                                 |
\*---------------------------------------------------------------------------*/
FoamFile
{
    version     2.0;
    format      ascii;
    class       volVectorField;
    location    "45";
    object      U.water;
}
// * * * * * * * * * * * * * * * * * * * * * * * * * * * * * * * * * * * * * //

dimensions      [0 1 -1 0 0 0 0];

internalField   nonuniform List<vector> 
6144
(
(0.0111566 0.0202719 6.25706e-05)
(0.0112033 -0.00441523 -0.00123781)
(0.00401553 -0.00521581 -0.00244259)
(0.0034361 -0.0046302 -0.00244672)
(0.00225486 -0.0031761 -0.00190987)
(0.00316747 -0.000870423 -0.00148262)
(0.00315306 -0.00123569 -0.00119362)
(0.0027774 -0.000437319 -0.000921737)
(0.00214118 -0.000580083 -0.000557189)
(0.00157979 0.000775696 -2.78455e-05)
(0.00122016 0.00192448 0.000443356)
(0.00122374 0.00297069 0.00104639)
(0.00134001 0.00313368 0.00138295)
(0.00145337 0.00272463 0.00182017)
(0.00152211 0.00193747 0.00183398)
(0.00163095 0.0011443 0.00175181)
(0.00171702 0.000306079 0.00150152)
(0.00180604 -0.000364224 0.00123883)
(0.00188401 -0.000909292 0.000964298)
(0.00194313 -0.00125496 0.000720737)
(0.00198089 -0.00143623 0.000508248)
(0.00201471 -0.00144742 0.000333632)
(0.00202611 -0.00136837 0.000250338)
(0.00201421 -0.00123746 0.000249359)
(0.00198001 -0.00108706 0.00031757)
(0.00193046 -0.00093661 0.000437953)
(0.00187878 -0.000809543 0.000578634)
(0.00182763 -0.000724068 0.000718685)
(0.00177207 -0.00067718 0.000849519)
(0.00171157 -0.000640114 0.00096116)
(0.00164836 -0.000588649 0.00106362)
(0.00158383 -0.000520009 0.00116986)
(0.0015156 -0.00043798 0.00128882)
(0.00144249 -0.000351205 0.00142825)
(0.00136647 -0.000276015 0.00159307)
(0.00129194 -0.000238179 0.00177668)
(0.00122172 -0.000262434 0.00194293)
(0.00115789 -0.000312693 0.00200171)
(0.0010942 -0.00026607 0.00187231)
(0.00102263 9.77358e-05 0.00149376)
(0.000914282 0.00103598 0.000865452)
(0.000724538 0.00306791 0.000171871)
(0.000707377 0.00626673 -0.000300171)
(0.00173014 0.0100006 -0.000586615)
(0.00449143 0.0129828 -0.00154985)
(0.00674317 0.0139591 -0.00283597)
(0.00363959 0.0156405 -0.00338309)
(-0.00678493 0.0258053 -0.00158719)
(-0.0134195 0.0479276 -0.00123288)
(-0.0130843 0.0666762 -0.00246497)
(-0.0111793 0.0738154 -0.00287275)
(-0.00229538 0.0639043 -0.000913134)
(-0.0011169 0.0359865 0.000322115)
(-0.00318784 0.00405751 0.00290646)
(0.00122226 0.0212109 0.019772)
(-0.00167032 -0.0457126 0.00952382)
(-0.0343986 0.0123796 0.0194471)
(0.0328856 0.00334341 0.0499659)
(-0.0399053 -0.0886114 -0.00476424)
(0.0568141 0.0397414 0.0420051)
(0.215603 -0.343184 0.0193343)
(0.137147 -0.190803 -0.00246681)
(0.0909111 -0.241907 -0.00381985)
(0.0731506 -0.250795 -0.000787618)
(0.0558211 -0.239532 -0.00045066)
(0.0383768 -0.223729 0.000744111)
(0.0291635 -0.213207 -0.00423898)
(0.0271116 -0.199474 -0.00713708)
(0.0278827 -0.195593 -0.00379575)
(0.0296422 -0.191821 0.00224412)
(0.0298146 -0.186111 0.0122566)
(0.0267623 -0.186222 0.0203838)
(0.0189131 -0.192402 0.0315734)
(0.00925021 -0.193761 0.0324171)
(-0.00412783 -0.190974 0.0285041)
(-0.0165324 -0.173462 0.0274478)
(-0.028119 -0.148676 0.00801131)
(-0.030941 -0.0903581 0.00511701)
(-0.018802 -0.043875 0.0155209)
(-0.0102152 -0.0280315 0.0101842)
(-0.00738231 -0.0138283 0.00275381)
(-0.00845009 -0.00601197 0.00126197)
(-0.00501577 0.00072478 -0.00169503)
(-0.000829578 0.0116646 -0.00836736)
(-0.00125004 0.0276786 -0.0092973)
(-0.000905785 0.0517244 -0.012611)
(0.00696302 0.0713012 -0.0165277)
(0.0125539 0.0802025 -0.0159788)
(0.0136103 0.0850177 -0.0153461)
(0.0157837 0.0844977 -0.0102531)
(0.0119733 0.0709461 -0.00466211)
(0.00993297 0.0598879 -0.000669876)
(0.00608567 0.0394135 0.00563543)
(0.00185793 0.0209218 0.00930923)
(0.00135726 0.00880823 0.00557004)
(0.00323828 0.0025119 0.00396378)
(0.0212445 0.0196454 0.00377418)
(0.0229042 0.00343544 0.00287234)
(0.0101971 -0.000758214 -0.000992657)
(0.00906718 -0.0015805 -0.000186583)
(0.00473871 -0.00414921 0.00112335)
(0.00509221 -0.00183427 0.00155466)
(0.00462753 -0.00163563 0.00234363)
(0.00408118 -4.05873e-06 0.00261034)
(0.00294221 0.000170849 0.00284022)
(0.00194533 0.00194467 0.00291396)
(0.00156326 0.00303775 0.00314009)
(0.00182612 0.00397117 0.00375833)
(0.00225617 0.00400534 0.00406286)
(0.00269376 0.00367278 0.00433221)
(0.00286556 0.0028542 0.00437273)
(0.00306752 0.00205309 0.00436252)
(0.0031657 0.00112847 0.00427553)
(0.00326154 0.000375981 0.00418597)
(0.00332994 -0.000276013 0.00410071)
(0.00336611 -0.000735672 0.00404333)
(0.00336346 -0.00103858 0.00401281)
(0.00337218 -0.00115901 0.00394224)
(0.00335042 -0.001178 0.00392857)
(0.00329294 -0.00112649 0.00396779)
(0.0031982 -0.00103629 0.00405162)
(0.00308268 -0.00092394 0.00416503)
(0.00297696 -0.000812173 0.00426468)
(0.00288496 -0.000722571 0.00434462)
(0.00278467 -0.000658999 0.00442692)
(0.00266806 -0.00060309 0.00450567)
(0.00254383 -0.000542473 0.00458063)
(0.00241443 -0.000478941 0.00465395)
(0.00228247 -0.000414419 0.00472736)
(0.00215052 -0.000349765 0.00480311)
(0.00202735 -0.000289634 0.00488294)
(0.00192778 -0.000246815 0.00496532)
(0.00185078 -0.000230264 0.00503353)
(0.00175322 -0.000204231 0.00505232)
(0.00156279 -6.2078e-05 0.00497653)
(0.0011855 0.000406775 0.00475364)
(0.000465748 0.0014035 0.00431616)
(-0.000499926 0.00332383 0.00362371)
(-0.00124259 0.00620327 0.00284156)
(-0.000947229 0.010413 0.00185739)
(0.00126129 0.0176343 0.000461429)
(0.00385075 0.0298616 -0.00104963)
(0.000495235 0.0439403 -0.00254376)
(-0.00798084 0.0531828 -0.00267834)
(-0.005978 0.0612519 -0.00243125)
(0.0106112 0.0657122 -0.00597639)
(0.0326128 0.0526503 -0.0108318)
(0.0594594 0.0160875 -0.0162938)
(0.0748088 -0.00233523 -0.0215472)
(0.0433938 -0.0436824 -0.0221622)
(0.0139186 -0.0272484 -0.00362812)
(0.00234618 -0.0919715 0.000299452)
(-0.0495562 -0.0253194 0.0136002)
(0.00888358 -0.147312 0.0487468)
(-0.179943 -0.037009 -0.0428169)
(0.00211137 -0.059794 0.00663286)
(0.273201 -0.286089 0.0641782)
(0.0687415 0.0682368 0.0169266)
(-0.0717236 -0.123561 -9.61312e-05)
(-0.0360201 -0.0799315 0.00770618)
(-0.0284527 -0.101083 0.00899472)
(-0.0170104 -0.121324 -0.000587239)
(0.0021438 -0.12041 -0.019059)
(0.0263139 -0.099156 -0.0170145)
(0.0243561 -0.0730342 0.0130656)
(0.0168998 -0.0409787 0.0150805)
(0.0145977 -0.0208462 0.0233333)
(0.00189366 -0.0223338 0.0345742)
(-0.00770349 -0.0262602 0.0485792)
(-0.0122159 -0.0448256 0.0504775)
(-0.0186349 -0.0581702 0.0487744)
(-0.0225514 -0.0673264 0.0402321)
(-0.0344319 -0.0695621 0.0168317)
(-0.0413066 -0.0506693 0.0139956)
(-0.0281372 -0.0277998 0.018067)
(-0.020784 -0.0208258 0.00711469)
(-0.018954 -0.00840406 -0.00325617)
(-0.0141212 0.00151935 -0.00819479)
(-0.0146052 0.0156653 -0.0101533)
(-0.0176737 0.0314909 -0.00912129)
(-0.0157577 0.0443774 -0.0108552)
(-0.00347048 0.058358 -0.0105144)
(0.00758474 0.0714522 -0.00594973)
(0.0154542 0.0845776 -0.00272952)
(0.0218797 0.0890123 0.000529559)
(0.0251711 0.0843202 0.00695261)
(0.0200206 0.0731129 0.00801774)
(0.0150633 0.0578638 0.0145288)
(0.00545431 0.0432944 0.017743)
(-0.00761329 0.0220397 0.0226991)
(-0.0108177 0.00679064 0.0164045)
(-0.00356202 -0.00175874 0.00560731)
(0.024185 0.018787 0.00500472)
(0.0266364 0.00925575 0.00507737)
(0.0150721 0.002962 0.00178642)
(0.0122291 0.0023774 0.00277655)
(0.00500256 -0.00246453 0.00387231)
(0.00389704 -0.000339933 0.00371112)
(0.00253626 -0.000806313 0.00433579)
(0.00208465 0.00115794 0.00422028)
(0.000952238 0.00114671 0.00425223)
(0.00028451 0.00231427 0.00433819)
(-6.14274e-05 0.00262215 0.00438699)
(0.00046406 0.00331791 0.00467281)
(0.000912671 0.00329534 0.00490651)
(0.00146369 0.00333411 0.00509969)
(0.00172746 0.00289958 0.00511353)
(0.00202916 0.00249892 0.00509099)
(0.00218763 0.00186844 0.00501959)
(0.00231831 0.00131815 0.00495638)
(0.00238998 0.00077427 0.00490048)
(0.00242366 0.00034593 0.00487866)
(0.00240143 -2.29278e-05 0.00488399)
(0.00232195 -0.000294962 0.00492054)
(0.00222461 -0.000477411 0.00497239)
(0.00210826 -0.000581063 0.00503128)
(0.00197021 -0.000628332 0.00509368)
(0.00182289 -0.000635346 0.00515663)
(0.00167383 -0.000615926 0.00522268)
(0.00152303 -0.000574993 0.00529454)
(0.00136561 -0.000523296 0.00537046)
(0.00119061 -0.000471982 0.0054474)
(0.00100826 -0.000430971 0.0055216)
(0.000831391 -0.000398393 0.00559539)
(0.000649973 -0.000364023 0.00566348)
(0.000463049 -0.000326023 0.00572543)
(0.000281161 -0.000269061 0.00578245)
(0.000122091 -0.000167325 0.00583464)
(-1.32002e-05 1.84124e-05 0.00587335)
(-0.000182677 0.000326494 0.00588046)
(-0.000485205 0.000790905 0.00583993)
(-0.00102574 0.00147116 0.00575111)
(-0.00195747 0.00234234 0.00564977)
(-0.0032245 0.00339101 0.00561661)
(-0.00453755 0.00435161 0.00563172)
(-0.00561048 0.00588337 0.0052675)
(-0.00600956 0.0100134 0.00399385)
(-0.00517318 0.0186459 0.00281538)
(-0.00459087 0.0299194 0.00161512)
(-0.00758523 0.0425035 0.000538715)
(-0.00583067 0.0459655 0.00256071)
(0.0115756 0.0359823 0.00952691)
(0.0611353 -0.00788474 0.0021959)
(0.0895892 -0.0295836 -0.0142007)
(0.0957462 -0.0193446 -0.0217119)
(0.0851132 -0.0225555 -0.0247562)
(0.065754 -0.000788585 -0.00970143)
(0.0480419 -0.0783578 -0.00130497)
(-0.0763068 -0.0194512 0.00967164)
(0.0142917 -0.220973 0.0182277)
(-0.193794 0.0884164 -0.019371)
(0.0809203 -0.156963 -0.00950202)
(0.287489 -0.210223 0.0468971)
(0.0693151 0.167979 0.0249149)
(0.0868494 -0.13453 0.031933)
(0.0439748 -0.0536669 0.0321849)
(0.0192189 -0.0800305 0.0280066)
(0.0165401 -0.102828 0.0140007)
(0.0206262 -0.0973467 -0.00149653)
(0.0176853 -0.0727035 0.00243289)
(0.0102638 -0.0308865 0.0101476)
(0.0257924 -0.00600767 0.0162916)
(0.0468343 0.02809 0.0474937)
(0.045088 0.0189141 0.0487904)
(0.0313383 0.0209653 0.0421809)
(0.00748113 0.0070414 0.0439613)
(-0.0163997 0.00442139 0.0435015)
(-0.0395488 0.00238762 0.0378516)
(-0.0545712 0.00208152 0.0226013)
(-0.0493345 0.00400939 0.00926537)
(-0.0346293 0.00983089 -0.00283807)
(-0.0267833 0.0187676 -0.0112205)
(-0.0217349 0.0261943 -0.0129029)
(-0.0177715 0.0339097 -0.00959506)
(-0.0157674 0.0415637 -0.00960879)
(-0.0123591 0.0480225 -0.0115493)
(-0.0048045 0.0544824 -0.00984903)
(0.00481436 0.0662531 -0.00598309)
(0.0106968 0.0819007 -0.00296442)
(0.0180057 0.0921526 -0.00227034)
(0.0256745 0.0930409 0.00714165)
(0.0279235 0.08405 0.0162005)
(0.0260561 0.0732381 0.0200349)
(0.0169109 0.0545078 0.022728)
(0.00900181 0.0425854 0.0204635)
(-0.00259866 0.02763 0.0198397)
(-0.00693037 0.0121135 0.016969)
(-0.00498703 0.00477639 0.00809291)
(0.0249082 0.0182109 0.00513197)
(0.0285824 0.0134731 0.00506733)
(0.0178922 0.00541768 0.00102005)
(0.0149763 0.00611329 0.00137081)
(0.00604178 -0.000379911 0.00310914)
(0.00313801 0.00139053 0.00339044)
(0.000959013 -0.000375951 0.0043915)
(0.000364911 0.00130766 0.00429856)
(-0.00068628 0.000779494 0.00438203)
(-0.00116682 0.00168791 0.00447891)
(-0.00144152 0.00163574 0.00461532)
(-0.000978356 0.0022757 0.00496639)
(-0.000632844 0.0025024 0.00518951)
(-4.93715e-05 0.00285303 0.00534852)
(0.000273882 0.00269988 0.00533781)
(0.000615276 0.00256958 0.00533356)
(0.000802353 0.00213926 0.00529235)
(0.000929235 0.00172668 0.00527018)
(0.000971353 0.00126086 0.00523685)
(0.000982603 0.000864545 0.00521873)
(0.000931151 0.000494645 0.00521269)
(0.000835405 0.000178809 0.00522134)
(0.000706572 -8.71271e-05 0.00524533)
(0.000554971 -0.000283834 0.00527647)
(0.00039132 -0.000411047 0.00531171)
(0.000224296 -0.000475508 0.00535225)
(6.73029e-05 -0.000492957 0.00539455)
(-7.97244e-05 -0.000481642 0.00544092)
(-0.000226234 -0.000456083 0.0054963)
(-0.000384551 -0.000425559 0.00555973)
(-0.000545385 -0.000388732 0.00562384)
(-0.000700298 -0.000351358 0.00567881)
(-0.00085961 -0.000316526 0.00572137)
(-0.00102521 -0.000275759 0.00574851)
(-0.00120271 -0.000207372 0.0057577)
(-0.00139169 -7.05533e-05 0.00574921)
(-0.00160235 0.000193213 0.00572195)
(-0.00188678 0.000608008 0.00568687)
(-0.00232599 0.00114181 0.00566132)
(-0.00301043 0.00176342 0.00567474)
(-0.00399406 0.00237017 0.00579223)
(-0.00516003 0.00285669 0.00605917)
(-0.00639735 0.00300863 0.00635914)
(-0.00813459 0.00393611 0.00605993)
(-0.00925955 0.0060421 0.0048192)
(-0.0102094 0.0110219 0.00324927)
(-0.0112263 0.0196442 0.00194635)
(-0.0133624 0.0301052 0.00404316)
(0.00168579 0.0206697 0.00601306)
(0.0347733 -0.0141102 0.00734706)
(0.0824203 -0.0452392 -0.00646423)
(0.0973973 -0.0325918 -0.0191973)
(0.0920372 0.0189039 -0.0286957)
(0.0793496 0.0904797 -0.00388918)
(0.0906726 0.106023 0.0173833)
(0.0778643 0.083372 0.0293609)
(0.0760934 0.16425 0.0598747)
(0.100435 -0.256703 0.0700685)
(-0.377762 0.389671 -0.0408712)
(0.00873865 -0.299525 0.0339488)
(0.27064 -0.118924 0.0445003)
(0.059126 0.115012 0.00913886)
(0.0415523 -0.0143126 0.00663709)
(-0.0603278 0.0426854 0.0106398)
(-0.0268315 -0.0213385 -0.00937684)
(-0.0118047 0.0231641 -0.0300914)
(0.00375245 0.0644965 -0.02586)
(0.00815202 0.0961071 -0.00954106)
(0.000327229 0.102686 0.00637748)
(-0.00284324 0.111588 0.00847164)
(-0.00253244 0.11384 0.0105504)
(-0.00575235 0.109422 0.0142999)
(-0.017983 0.108596 0.011942)
(-0.025202 0.105534 0.00550514)
(-0.0345154 0.0979324 0.000484661)
(-0.0383841 0.0916448 -0.00640994)
(-0.0400545 0.0835687 -0.00800121)
(-0.0329104 0.0801408 -0.0119951)
(-0.0261416 0.0739177 -0.0114562)
(-0.020519 0.0716297 -0.00916776)
(-0.0172265 0.0646047 -0.00534384)
(-0.0133663 0.0619019 -0.00203044)
(-0.00963811 0.0596526 -0.00115987)
(-0.00565431 0.0604456 -0.00162007)
(-0.000586649 0.0655456 -0.000866767)
(0.00519969 0.0775705 -0.000745431)
(0.00985892 0.0890699 -0.00136625)
(0.0156434 0.094439 0.00632236)
(0.0173466 0.0868165 0.0183518)
(0.0180582 0.0766478 0.0282651)
(0.0177537 0.0640782 0.0325668)
(0.0142298 0.0468097 0.0305794)
(0.00598731 0.0368487 0.0245501)
(-0.00383847 0.0321675 0.0200671)
(-0.00871359 0.0227093 0.0124738)
(0.000464058 0.0164485 0.00318013)
(0.0249372 0.018319 0.00471048)
(0.029853 0.017033 0.00498962)
(0.0206366 0.00822575 0.000563734)
(0.0190927 0.00965606 3.22699e-05)
(0.00841913 0.00126843 0.000304626)
(0.00354837 0.00283419 0.0012802)
(-0.000159317 -0.000715752 0.00349444)
(-0.00113654 0.00138028 0.0036183)
(-0.00222759 0.000222453 0.00384777)
(-0.0027547 0.00101079 0.00419785)
(-0.00336818 0.000672034 0.00444188)
(-0.00327526 0.00139833 0.00488397)
(-0.00310305 0.00181783 0.00506682)
(-0.00245513 0.00242043 0.00522435)
(-0.00203916 0.00244895 0.00517553)
(-0.00166476 0.0024223 0.00519136)
(-0.00145869 0.0020807 0.00519104)
(-0.00140472 0.00177095 0.00521812)
(-0.00144546 0.00140001 0.00520718)
(-0.00150573 0.00106966 0.00518077)
(-0.00159686 0.000730878 0.00513948)
(-0.00170909 0.000408249 0.00509888)
(-0.00183829 0.000110637 0.0050659)
(-0.00198578 -0.000131428 0.00504358)
(-0.00215262 -0.000313316 0.00502993)
(-0.00231343 -0.000434204 0.00502378)
(-0.00245362 -0.000505101 0.005027)
(-0.00257641 -0.000542369 0.00503883)
(-0.00269992 -0.000550662 0.00505313)
(-0.00283977 -0.000533442 0.00507224)
(-0.00298631 -0.00049959 0.00509055)
(-0.00313391 -0.000459996 0.00510113)
(-0.00328688 -0.000416587 0.00509889)
(-0.00345157 -0.000358268 0.00508055)
(-0.00363684 -0.000262344 0.00505114)
(-0.0038567 -8.91039e-05 0.00500592)
(-0.00411504 0.000214054 0.00494327)
(-0.00442916 0.00066366 0.00489405)
(-0.00486554 0.00120868 0.00490529)
(-0.0055186 0.00174261 0.00503093)
(-0.00642902 0.00210771 0.00531041)
(-0.00754561 0.00224621 0.00566411)
(-0.00910276 0.00205746 0.00563546)
(-0.0112152 0.00288728 0.00469939)
(-0.01264 0.00290531 0.00247577)
(-0.015128 0.00605634 0.00102609)
(-0.0177803 0.0133433 0.00376733)
(-0.01244 0.0125074 0.00654654)
(0.0300881 -0.0312732 0.00421035)
(0.0554913 -0.0547323 -0.000896496)
(0.082267 -0.0479888 -0.0154449)
(0.0623464 0.022776 -0.0314605)
(0.0358903 0.136234 -0.0109162)
(0.06013 0.17303 0.0436028)
(0.0688496 0.193569 0.0585648)
(0.0496264 0.236132 0.0417287)
(-0.00143434 0.273463 0.0123078)
(-0.116803 0.314858 0.00805668)
(-0.208854 0.540466 -0.028826)
(0.029053 -0.395059 0.0217913)
(0.181325 -0.0401924 0.0273462)
(0.065667 0.111454 0.00486838)
(0.0506025 0.110246 -0.00520048)
(0.00445774 0.130944 -0.0141585)
(0.0143309 0.172798 -0.0239758)
(0.000290198 0.193583 -0.0155708)
(0.0165678 0.216309 -0.0144776)
(0.023198 0.221492 -0.0118384)
(0.0268072 0.221115 -0.00924687)
(0.0277359 0.217791 -0.00668613)
(0.0249982 0.211536 -0.00467251)
(0.020221 0.202566 -0.00400339)
(0.0163193 0.194875 -0.00419386)
(0.00887161 0.185761 -0.00489718)
(0.00214465 0.174426 -0.00514164)
(-0.00288134 0.162612 -0.00579424)
(-0.00617595 0.149217 -0.00448444)
(-0.00503975 0.13796 -0.00285394)
(-0.00255942 0.12588 0.00137327)
(0.00155627 0.119167 0.00681042)
(0.00325598 0.10717 0.00810393)
(0.00608395 0.100183 0.00623268)
(0.00965464 0.0945057 0.0067763)
(0.0119128 0.0910054 0.00623854)
(0.0145336 0.0901866 0.00540087)
(0.017114 0.0946022 0.00486467)
(0.0170427 0.0975302 0.00713829)
(0.0133958 0.0933643 0.0130922)
(0.011029 0.0854554 0.0256943)
(0.00640223 0.0717397 0.0328306)
(0.00266985 0.0579484 0.0376217)
(-0.00177943 0.041802 0.0336318)
(-0.0103666 0.0367475 0.0197728)
(-0.0157857 0.0376301 0.00919845)
(0.00280075 0.0223181 -0.00462932)
(0.0326417 0.00898715 -0.0123938)
(0.024083 0.018337 0.00390783)
(0.0309922 0.0215543 0.00559029)
(0.0227483 0.011696 0.00125471)
(0.0233407 0.0130796 0.00113673)
(0.0132712 0.00258579 -0.0017822)
(0.00610474 0.00393605 -0.00136452)
(-0.00027102 -0.00137463 0.00157973)
(-0.00244341 0.00131967 0.00211322)
(-0.00315754 -0.000476667 0.00265729)
(-0.00393026 0.000475935 0.00329394)
(-0.00452113 -0.000125443 0.00363526)
(-0.00457756 0.000760518 0.00424226)
(-0.00440281 0.00139204 0.00445831)
(-0.00354598 0.00220608 0.00478315)
(-0.00284686 0.00221436 0.00490882)
(-0.00233791 0.00209953 0.00511954)
(-0.00212418 0.0017103 0.00523753)
(-0.00215431 0.00142459 0.00531784)
(-0.00226971 0.00116903 0.00530897)
(-0.00237769 0.000978285 0.00525053)
(-0.00250116 0.00078156 0.00514471)
(-0.00263425 0.000577504 0.00501077)
(-0.00279752 0.000361422 0.00487366)
(-0.00296904 0.000163144 0.00474499)
(-0.00313073 2.66111e-06 0.00462936)
(-0.00327387 -0.000109926 0.00452408)
(-0.00338615 -0.00019205 0.00443056)
(-0.00348183 -0.000254969 0.00435425)
(-0.00358743 -0.000301148 0.00429851)
(-0.00370109 -0.000322622 0.00426862)
(-0.00380976 -0.000313724 0.0042553)
(-0.00390769 -0.000279623 0.0042443)
(-0.00400868 -0.000224087 0.00422378)
(-0.00413082 -0.000144721 0.00418619)
(-0.00431112 -2.16377e-05 0.00412803)
(-0.00458011 0.000178686 0.00404375)
(-0.00495763 0.0004829 0.00392905)
(-0.00546442 0.000878346 0.00380048)
(-0.00610534 0.00128141 0.00371807)
(-0.00688811 0.00155573 0.0037845)
(-0.00782845 0.00154964 0.00405741)
(-0.00902546 0.00138998 0.00438884)
(-0.0106626 0.000933713 0.00406691)
(-0.0126624 0.00130464 0.00289366)
(-0.0135085 -0.00152168 0.00115476)
(-0.0206749 -0.00247547 0.00339835)
(-0.0214116 -0.00996888 0.00679185)
(0.0161021 -0.0308043 0.00106297)
(0.05809 -0.0590675 -0.00137072)
(0.0616487 -0.0486614 -0.0124041)
(0.0263263 0.0179236 -0.0287191)
(-0.00819483 0.108169 -0.0117606)
(0.0382389 0.150649 0.034391)
(0.0580613 0.153396 0.0579065)
(0.0527513 0.146187 0.0832303)
(0.0527494 0.133666 0.0911513)
(0.00533855 0.182181 0.105289)
(0.154737 -0.026719 0.0824407)
(0.223811 0.267645 0.0355498)
(0.0462232 -0.372561 0.0148458)
(0.0866617 0.0844385 -0.00171695)
(0.0141952 0.21763 0.00622832)
(0.00497424 0.256329 0.00157247)
(-0.0149474 0.269412 0.00669757)
(-0.00848799 0.287203 0.00993984)
(0.00503861 0.287461 0.0114041)
(0.0110252 0.290558 0.0106422)
(0.0172823 0.287253 0.0153042)
(0.0205075 0.284747 0.016524)
(0.0223658 0.277597 0.0156269)
(0.023094 0.270251 0.0140759)
(0.0231086 0.260468 0.0133989)
(0.0204948 0.250679 0.0132644)
(0.0167819 0.239321 0.0112729)
(0.0135905 0.227826 0.0110317)
(0.0110005 0.214393 0.00806223)
(0.00904057 0.203572 0.0062733)
(0.00752648 0.189334 0.00923369)
(0.00881596 0.178245 0.011541)
(0.00965126 0.166777 0.011268)
(0.0118423 0.156544 0.0130633)
(0.014085 0.145709 0.0130181)
(0.0157496 0.136813 0.0114041)
(0.0190683 0.128565 0.0102309)
(0.0211267 0.12439 0.00964387)
(0.0214192 0.12138 0.00968778)
(0.0185092 0.116038 0.0146572)
(0.0121757 0.106517 0.0219294)
(0.00466162 0.094248 0.0303269)
(-0.00188545 0.0809531 0.0339125)
(-0.00722731 0.0646004 0.0339745)
(-0.0113909 0.0471536 0.0273872)
(-0.0162277 0.0351543 0.0132667)
(-0.00631412 0.0264044 0.00503373)
(0.0354856 0.00396454 0.00645219)
(0.0520736 -0.00740988 -0.0189199)
(0.0223583 0.0177443 0.00355695)
(0.0316637 0.0263683 0.0074391)
(0.023855 0.0150882 0.00355125)
(0.0246854 0.0162906 0.00388215)
(0.0176839 0.00362418 -0.0010637)
(0.00929833 0.00450283 -0.00247083)
(0.000378777 -0.00190864 -0.000188084)
(-0.00314972 0.00165432 0.000571502)
(-0.00419809 -0.000796345 0.00137208)
(-0.00510717 0.000315164 0.0022722)
(-0.0061771 -0.000508533 0.00257003)
(-0.00692375 0.000464698 0.00340515)
(-0.00705062 0.000893184 0.00382667)
(-0.00594168 0.00169705 0.00463995)
(-0.00500266 0.00153507 0.00520096)
(-0.00452809 0.00144119 0.00572457)
(-0.00447374 0.00109811 0.00597936)
(-0.00477158 0.000929965 0.00606447)
(-0.00511646 0.000834041 0.00599652)
(-0.00536067 0.000829182 0.00586263)
(-0.00553802 0.000831946 0.00566569)
(-0.00564706 0.0008294 0.00543043)
(-0.00574231 0.000794843 0.00519328)
(-0.00583844 0.000740415 0.00497406)
(-0.00596748 0.000687282 0.004793)
(-0.00605172 0.000654869 0.00463908)
(-0.00607923 0.000614754 0.00451271)
(-0.00607765 0.000555569 0.00443093)
(-0.00608952 0.000482954 0.00439462)
(-0.006143 0.000420634 0.00439798)
(-0.00622074 0.000396622 0.00442616)
(-0.00630061 0.000416316 0.00445883)
(-0.00639143 0.000482222 0.00448337)
(-0.00650786 0.000590618 0.0044953)
(-0.00669824 0.000742353 0.00447642)
(-0.00699068 0.000946592 0.00441637)
(-0.00736977 0.00118733 0.00430376)
(-0.007796 0.00139474 0.00414611)
(-0.00825793 0.00143884 0.00396858)
(-0.00881369 0.0011619 0.00383323)
(-0.00960791 0.000523268 0.00380919)
(-0.0107859 -0.000276201 0.00394136)
(-0.0123872 -0.001221 0.00378245)
(-0.0132059 -0.00218884 0.00328866)
(-0.0132184 -0.00863403 0.00310026)
(-0.0169125 -0.0176521 0.00795076)
(-0.0035379 -0.044045 0.00545267)
(0.0365536 -0.0504327 -0.00410022)
(0.0444369 -0.0218048 -0.00655692)
(-0.00722019 0.0559984 -0.0221418)
(-0.00848681 0.114155 0.00338589)
(0.0241388 0.128839 0.0461425)
(0.0291479 0.145709 0.0650741)
(0.022492 0.159459 0.0669849)
(0.0170266 0.147716 0.0850044)
(0.0336984 0.0912168 0.0850597)
(-0.0104849 0.200969 0.12389)
(0.0825249 -0.24129 0.0739727)
(0.173218 0.271126 0.029356)
(-0.0222482 -0.36087 0.00453755)
(-0.0291869 0.0957753 -0.0298812)
(-0.0237707 0.246865 -0.0015077)
(-0.0169585 0.28181 0.0176725)
(-0.00932738 0.298152 0.0223924)
(-0.00655653 0.304416 0.024682)
(0.000420561 0.308201 0.0228)
(0.00329921 0.309552 0.0221158)
(0.0119117 0.307664 0.0228168)
(0.0159108 0.304215 0.023399)
(0.0189655 0.301711 0.0229344)
(0.0207796 0.294769 0.0209159)
(0.0215785 0.288905 0.0225969)
(0.0179285 0.279945 0.0226406)
(0.0150835 0.271758 0.0222626)
(0.0124366 0.26239 0.0239453)
(0.00991321 0.251181 0.0226599)
(0.0088946 0.242167 0.0232768)
(0.0074893 0.229021 0.0225383)
(0.00788767 0.219497 0.0227004)
(0.00917131 0.208099 0.0195534)
(0.0119348 0.20024 0.0177078)
(0.015992 0.190152 0.0154499)
(0.0194452 0.183288 0.0137579)
(0.0215958 0.17528 0.0108464)
(0.0216736 0.169216 0.010549)
(0.01994 0.159521 0.013059)
(0.015007 0.149474 0.0182256)
(0.00706816 0.134931 0.0228544)
(-0.00300007 0.118081 0.0254556)
(-0.0114816 0.0978213 0.0256065)
(-0.0156812 0.0752591 0.0241786)
(-0.016381 0.0464084 0.0184374)
(-0.0174099 0.0274295 0.00867453)
(0.000552427 -0.0111238 -8.88903e-05)
(0.0335561 -0.0147746 0.00425633)
(0.0459379 -0.0175654 -0.0286791)
(0.0232008 0.0137662 0.00309469)
(0.0312882 0.0295245 0.00885474)
(0.0240891 0.0183807 0.00419423)
(0.0255371 0.0205953 0.00449756)
(0.020446 0.00623537 -0.000458595)
(0.0119481 0.00541774 -0.00254765)
(2.13335e-05 -0.00244003 -0.00138309)
(-0.00451304 0.00149404 -0.000486412)
(-0.00425404 -0.00148323 0.00130723)
(-0.0056388 0.000628604 0.002031)
(-0.00635851 -0.000478703 0.00239499)
(-0.00694692 0.000388279 0.00354524)
(-0.00690614 -5.89357e-05 0.00431846)
(-0.00554571 0.000285662 0.00558828)
(-0.00458148 -5.4819e-05 0.00649749)
(-0.0041855 0.000101341 0.00739811)
(-0.00420448 0.000145933 0.00791217)
(-0.00453281 0.000411936 0.00812324)
(-0.00485835 0.000619527 0.00810496)
(-0.0050629 0.000881294 0.00797703)
(-0.0052131 0.00112782 0.00775408)
(-0.00531355 0.00132314 0.0074706)
(-0.00540109 0.00143089 0.00718163)
(-0.0054798 0.00148422 0.00691005)
(-0.00556086 0.00147863 0.00666806)
(-0.00561017 0.00143431 0.00646465)
(-0.00560045 0.0013726 0.00631827)
(-0.00555926 0.00129001 0.00622389)
(-0.00553415 0.00118791 0.00617884)
(-0.0055623 0.00108987 0.00617303)
(-0.00562555 0.00104758 0.00619092)
(-0.00569652 0.00106406 0.00620758)
(-0.00579446 0.00114218 0.00620426)
(-0.00592907 0.00127006 0.00617007)
(-0.00615548 0.00142405 0.00609166)
(-0.00650656 0.00157929 0.00595864)
(-0.00694374 0.00168298 0.00576447)
(-0.0073936 0.00163737 0.00552717)
(-0.00777253 0.00132496 0.00528134)
(-0.00813447 0.000622853 0.00508854)
(-0.00875689 -0.00046219 0.00500593)
(-0.00987709 -0.00177485 0.00521654)
(-0.011337 -0.00312967 0.00559357)
(-0.0103322 -0.00546629 0.00661364)
(-0.00739216 -0.0137765 0.0110205)
(-0.00531467 -0.0394439 0.0106623)
(0.0101783 -0.0477941 -0.00419894)
(0.00511319 -0.0105738 -0.00611444)
(-0.0109641 0.0422363 0.00959251)
(-0.00309146 0.0618962 0.0303441)
(-0.00129244 0.0599896 0.0493968)
(-0.00897746 0.064953 0.0576054)
(-0.0113355 0.0922501 0.0576951)
(0.00708421 0.102136 0.051116)
(0.0200696 0.106712 0.0550631)
(0.0613777 0.0211564 0.0552715)
(0.0996279 0.230284 0.136709)
(0.129343 -0.315883 0.0379517)
(0.230466 0.551173 -0.00501521)
(-0.0241572 -0.434111 0.00653953)
(-0.13933 0.0843764 -0.0627924)
(-0.0621156 0.220856 -0.00695877)
(-0.039379 0.240206 0.0179983)
(-0.0107568 0.22813 0.0283984)
(-0.0017933 0.230441 0.0373368)
(0.00992858 0.222632 0.0369925)
(0.0171044 0.225796 0.0388848)
(0.0220112 0.221261 0.0333801)
(0.0265581 0.225888 0.0265143)
(0.0261061 0.227036 0.022016)
(0.0266623 0.228712 0.0208392)
(0.027374 0.228783 0.0226446)
(0.0270622 0.228889 0.0285703)
(0.0253675 0.228677 0.030643)
(0.0234324 0.225578 0.0325659)
(0.0230436 0.221478 0.0355819)
(0.0229527 0.215437 0.037691)
(0.0228347 0.210121 0.0380222)
(0.0233719 0.202266 0.0355011)
(0.0250258 0.196551 0.0333882)
(0.027277 0.191497 0.0308751)
(0.0287787 0.188137 0.0286619)
(0.0298323 0.186317 0.0270367)
(0.0305753 0.185496 0.0255707)
(0.0289633 0.185426 0.0234716)
(0.025974 0.182233 0.0244081)
(0.0233433 0.175404 0.0287141)
(0.0215146 0.162096 0.0344814)
(0.0186731 0.147642 0.0384446)
(0.0193826 0.124161 0.038767)
(0.021711 0.0961584 0.0367398)
(0.0281638 0.059446 0.031999)
(0.0366211 0.0360751 0.0309022)
(0.0416136 -0.0093633 0.0193009)
(0.0515763 -0.0168627 0.00624153)
(0.0496101 -0.0186563 -0.0321316)
(0.0164194 0.00989777 0.000252139)
(0.0286873 0.0303427 0.00837392)
(0.0231635 0.0220381 0.00244238)
(0.0260294 0.0262113 0.00312004)
(0.0236364 0.01094 -7.09063e-05)
(0.0161537 0.00776348 -0.00220746)
(0.00164135 -0.00308986 -0.00669447)
(-0.00449595 0.00149243 -0.00542314)
(-0.00650883 -0.00184213 -0.00257736)
(-0.00743307 0.00104029 -0.00139339)
(-0.0079703 -0.000563623 -0.000925526)
(-0.00845566 -3.07395e-06 0.000430248)
(-0.00869425 -0.00108529 0.00132042)
(-0.0081675 -0.000902355 0.00246246)
(-0.00792938 -0.00109845 0.00330682)
(-0.00804127 -0.000666945 0.00415198)
(-0.00837855 -0.00034226 0.00482818)
(-0.00882827 0.000152823 0.00526685)
(-0.00924071 0.000513767 0.00547129)
(-0.00955097 0.000896105 0.00552488)
(-0.00970424 0.00122589 0.00544435)
(-0.00963877 0.00149684 0.00528426)
(-0.00954238 0.00167836 0.00511012)
(-0.00943379 0.0017862 0.00494581)
(-0.00932615 0.00182011 0.00479137)
(-0.00920367 0.00179735 0.00465308)
(-0.00905236 0.00174412 0.00454489)
(-0.00890127 0.00167694 0.00447026)
(-0.00879217 0.00160208 0.00443183)
(-0.00878761 0.00152475 0.00442297)
(-0.00887945 0.00148955 0.00443118)
(-0.00898568 0.0015066 0.00443408)
(-0.0091051 0.00157815 0.00442029)
(-0.00922171 0.00169383 0.00438181)
(-0.00936075 0.00182036 0.00431678)
(-0.00954371 0.00191522 0.00421657)
(-0.0097148 0.00191107 0.00406207)
(-0.00979122 0.00169699 0.00387043)
(-0.00975294 0.00117226 0.00367439)
(-0.00970577 0.000216427 0.00352565)
(-0.00993463 -0.00119813 0.003527)
(-0.0108337 -0.00330233 0.00386389)
(-0.0115925 -0.0061565 0.00472205)
(-0.00957899 -0.0110366 0.00619098)
(0.00233909 -0.021663 0.0114713)
(2.60737e-05 -0.052992 0.00884853)
(-0.0122781 -0.0478598 -0.00542105)
(-0.0245721 -0.0103862 -0.000868015)
(-0.0128461 0.0139196 0.0184579)
(-0.00720701 0.015487 0.0372418)
(-0.0100446 -0.00130896 0.0546143)
(-0.00996901 -0.0342896 0.058656)
(-0.0163264 -0.0374312 0.0539443)
(-0.003881 -0.090787 0.021417)
(0.00451547 -0.030407 -0.0149139)
(-0.0133529 -0.141297 -0.0337914)
(0.123044 0.143464 -0.000414303)
(0.0869528 -0.221507 -0.0255838)
(0.292792 0.575692 0.0368855)
(-0.0205347 -0.424566 0.0108217)
(-0.209208 0.000483962 -0.044953)
(-0.0657206 0.12523 -0.00369726)
(-0.0662499 0.0896341 0.00822049)
(-0.00533339 0.058954 0.0181571)
(-0.0214425 0.0407306 0.0146058)
(0.00884757 0.0117618 0.010215)
(-2.87157e-05 0.00247098 -0.000377723)
(0.00667425 0.0030226 -0.00704606)
(0.0101754 0.01094 -0.00873599)
(0.0151721 0.0229088 -0.0100716)
(0.0213502 0.0397211 -0.0164257)
(0.0288046 0.0578192 -0.0179253)
(0.0306739 0.0674467 -0.011969)
(0.0309403 0.0685677 -0.00495613)
(0.0281777 0.070178 0.00298654)
(0.0278261 0.069968 0.0127277)