/*--------------------------------*- C++ -*----------------------------------*\
| =========                 |                                                 |
| \\      /  F ield         | OpenFOAM: The Open Source CFD Toolbox           |
|  \\    /   O peration     | Version:  2.3.0                                 |
|   \\  /    A nd           | Web:      www.OpenFOAM.org                      |
|    \\/     M anipulation  |                                                 |
\*---------------------------------------------------------------------------*/
FoamFile
{
    version     2.0;
    format      ascii;
    class       volVectorField;
    location    "45";
    object      U.waterMean;
}
// * * * * * * * * * * * * * * * * * * * * * * * * * * * * * * * * * * * * * //

dimensions      [0 1 -1 0 0 0 0];

internalField   nonuniform List<vector> 
6144
(
(0.00959393 0.0195303 -0.00063214)
(0.00983898 -0.000666745 -0.00152284)
(0.00462205 -0.00218951 -0.00247422)
(0.00426358 -0.0030514 -0.00237462)
(0.00272902 -0.00314309 -0.00193084)
(0.00299937 -0.00160695 -0.00168718)
(0.00258583 -0.00163594 -0.00131844)
(0.0025625 -0.000556172 -0.00101738)
(0.00226462 -0.000324735 -0.000904994)
(0.00207898 0.000881402 -0.000599937)
(0.00192127 0.001743 -0.00032227)
(0.0020017 0.00243679 7.31624e-05)
(0.0021362 0.00241017 0.000242452)
(0.00227475 0.0020229 0.000442604)
(0.00234525 0.00136429 0.000354465)
(0.00242065 0.000785248 0.000241686)
(0.00246294 0.00022579 3.68344e-05)
(0.00250913 -0.00016137 -0.000128257)
(0.00254446 -0.00047735 -0.000302321)
(0.00257013 -0.000653812 -0.000432936)
(0.00258488 -0.000762242 -0.000533953)
(0.00259172 -0.000788147 -0.000592927)
(0.00258812 -0.000782331 -0.000615647)
(0.00257609 -0.000746854 -0.000607656)
(0.00255622 -0.000702555 -0.000574807)
(0.00253057 -0.000654657 -0.000520784)
(0.00250138 -0.000611197 -0.000451916)
(0.00247056 -0.000578357 -0.000376021)
(0.00243887 -0.0005539 -0.00029742)
(0.00240569 -0.00055188 -0.000220142)
(0.00237181 -0.00054097 -0.000142396)
(0.00233158 -0.000579384 -5.86208e-05)
(0.00229086 -0.000563622 3.78268e-05)
(0.00224107 -0.000678181 0.000155375)
(0.00219824 -0.000679111 0.000301809)
(0.00214889 -0.000986597 0.000470624)
(0.00211879 -0.00108446 0.000643637)
(0.00208504 -0.00169779 0.000774985)
(0.00208026 -0.00184383 0.000825367)
(0.00207548 -0.00264251 0.000740253)
(0.0020882 -0.00250451 0.000466307)
(0.00209672 -0.00297917 -6.08285e-05)
(0.00212723 -0.00177158 -0.000673869)
(0.00233075 -0.00130923 -0.00118843)
(0.0027186 0.000651903 -0.00151286)
(0.00327958 0.000306521 -0.00180701)
(0.00397235 0.00134038 -0.0024331)
(0.00433379 0.000431095 -0.0036689)
(0.00324605 0.005424 -0.00524456)
(0.00486246 0.0101925 -0.00719268)
(0.0160728 0.0126267 -0.00999086)
(0.0256943 -0.0053541 -0.0104291)
(0.0324812 -0.0157321 -0.011335)
(0.0329039 -0.0533815 -0.0106431)
(0.0288454 -0.0488534 -0.0121887)
(0.02516 -0.0908783 -0.00841584)
(0.0076105 -0.0453297 -0.0149363)
(0.00730972 -0.103044 0.0198854)
(-0.0353517 -0.00055048 -0.0469235)
(0.0237833 -0.0333304 0.0378662)
(0.133685 -0.292871 0.0637014)
(0.0912521 -0.116736 0.0292209)
(0.0593205 -0.186691 0.0089507)
(0.0494929 -0.19522 0.00542947)
(0.0406603 -0.196105 0.00591668)
(0.0332915 -0.187285 0.0058429)
(0.0269533 -0.186126 0.00497557)
(0.0221075 -0.179069 0.00443431)
(0.0189809 -0.175813 0.00451314)
(0.0162769 -0.168399 0.00481842)
(0.0140658 -0.163533 0.00513015)
(0.0117959 -0.155192 0.00549002)
(0.00997016 -0.14756 0.00604393)
(0.00759023 -0.137792 0.00653036)
(0.00442039 -0.126567 0.00676489)
(0.00194636 -0.112379 0.00513596)
(0.000846644 -0.0981952 0.00224444)
(-0.000381296 -0.0844297 0.000639059)
(-0.00128425 -0.070974 0.000552377)
(4.47712e-05 -0.0582668 0.00136337)
(0.00175756 -0.0479423 0.00203198)
(0.0026971 -0.039782 0.00279984)
(0.00292822 -0.0348288 0.00409535)
(0.00192466 -0.0312657 0.00456802)
(0.00146209 -0.0269743 0.00414875)
(0.00172181 -0.0215997 0.0035039)
(0.00211217 -0.015804 0.00330066)
(0.00216891 -0.00969587 0.00272865)
(0.00143528 -0.00433799 0.0018882)
(0.000116283 0.00286215 0.00138475)
(0.000567091 0.00956078 0.00207531)
(0.00175385 0.0144199 0.00356613)
(0.00201771 0.0166904 0.0053189)
(0.00236523 0.0171586 0.00766418)
(0.0041315 0.0161773 0.00968548)
(0.00738956 0.00791655 0.0136949)
(0.0188584 0.0209027 0.00291722)
(0.0199551 0.00726619 0.00240948)
(0.0104113 0.00398658 -0.000436028)
(0.01014 0.00263017 0.000291549)
(0.00598992 -0.000365384 0.00102833)
(0.00591879 0.000301388 0.00155049)
(0.00441995 -0.000779712 0.00209936)
(0.00423282 0.000550188 0.002111)
(0.00359168 0.000813698 0.00206265)
(0.00334732 0.00229816 0.00212234)
(0.00325037 0.00301721 0.00226987)
(0.00363098 0.00359714 0.00271641)
(0.00400085 0.00337287 0.00293226)
(0.00438857 0.00296576 0.00310611)
(0.00452332 0.0022135 0.00307888)
(0.00466076 0.0015679 0.00304136)
(0.00468563 0.000897749 0.00294903)
(0.00473579 0.000425695 0.00288482)
(0.00475888 1.58535e-05 0.00280555)
(0.00477384 -0.000238132 0.0027566)
(0.00477237 -0.000416139 0.00271543)
(0.00476163 -0.00049398 0.00269647)
(0.00473318 -0.000529587 0.00270493)
(0.00469025 -0.000523017 0.00273955)
(0.00463455 -0.000499333 0.00279303)
(0.00457012 -0.000463898 0.00286077)
(0.00450231 -0.000427771 0.00293207)
(0.00443555 -0.000399423 0.00300016)
(0.00436996 -0.000379282 0.00306698)
(0.00430429 -0.00038147 0.00312763)
(0.00423994 -0.000378154 0.0031868)
(0.00416487 -0.000434295 0.00324923)
(0.00409766 -0.000439179 0.00331767)
(0.00402019 -0.000596639 0.00339261)
(0.00397937 -0.000619882 0.00348038)
(0.0039352 -0.000975382 0.00357319)
(0.00395295 -0.00104638 0.00366963)
(0.00394561 -0.0016816 0.00374398)
(0.00399179 -0.00172485 0.00378422)
(0.00396855 -0.00253991 0.00374965)
(0.00391936 -0.00224392 0.00360627)
(0.00379228 -0.0028054 0.00319637)
(0.00373937 -0.00151409 0.00250667)
(0.00392701 -0.0014449 0.00184525)
(0.00465949 0.000506761 0.00147148)
(0.00580057 -8.84563e-05 0.00115273)
(0.00623635 0.0015865 5.38575e-05)
(0.00540484 0.00276287 -0.00159709)
(0.00518934 0.00880219 -0.00270296)
(0.0127222 0.00602609 -0.00320068)
(0.0335674 -0.000184029 -0.00458246)
(0.0484334 -0.0180658 -0.00452432)
(0.0592346 -0.0222923 -0.00256147)
(0.056866 -0.0508361 8.98855e-05)
(0.046551 -0.0383765 0.00562924)
(0.0460246 -0.0977207 0.0135644)
(0.0063046 -0.0472516 0.0125887)
(0.00214471 -0.164028 0.0415553)
(-0.0919417 0.0276595 -0.0755349)
(0.00632748 -0.0850305 0.0121658)
(0.171295 -0.261425 0.102657)
(0.0857383 0.00606586 0.0426345)
(0.0247661 -0.110711 0.0092131)
(0.0247253 -0.0478582 0.0151315)
(0.0115588 -0.0659016 0.0167064)
(0.00468258 -0.0510941 0.0144726)
(0.00226609 -0.0522305 0.0113133)
(0.00283379 -0.0449381 0.0105935)
(0.00444244 -0.0440125 0.0103565)
(0.00466438 -0.039372 0.00891551)
(0.00336896 -0.0399205 0.0095259)
(0.00113479 -0.0391201 0.0104202)
(-0.000889793 -0.0416705 0.0107018)
(-0.0041054 -0.0426856 0.00940504)
(-0.00758417 -0.043441 0.00772323)
(-0.00872211 -0.040676 0.00622658)
(-0.00822963 -0.0379493 0.00454148)
(-0.00854406 -0.0344793 0.00381364)
(-0.00813489 -0.0304646 0.00385605)
(-0.00593771 -0.0273059 0.00464521)
(-0.0036021 -0.0235758 0.00515418)
(-0.00182973 -0.0202407 0.00640449)
(-0.000974417 -0.0200861 0.0082393)
(-0.00148104 -0.0216428 0.00878017)
(-0.00246801 -0.0224497 0.00776552)
(-0.00235976 -0.0222911 0.00675484)
(-0.0018762 -0.0198617 0.00548209)
(-0.00208353 -0.0157001 0.00425641)
(-0.00249796 -0.0113522 0.00313224)
(-0.00312022 -0.00613134 0.00239281)
(-0.00268076 -0.00161521 0.00326932)
(-0.00144423 0.00190362 0.00467778)
(-0.00148406 0.00600417 0.00690093)
(-0.00124928 0.00657243 0.0102813)
(-0.000256872 0.00782405 0.0132445)
(0.00311717 0.00185371 0.0178308)
(0.0222191 0.0210115 0.00403721)
(0.0240131 0.0118561 0.00390942)
(0.0142894 0.00752173 0.00126113)
(0.0135788 0.00691946 0.00218614)
(0.00737187 0.00252247 0.0027883)
(0.00648345 0.00272027 0.00307442)
(0.00365542 0.000556181 0.00362035)
(0.00326769 0.0016848 0.00351729)
(0.00238891 0.00168694 0.00342641)
(0.00240924 0.00287613 0.00351553)
(0.00237949 0.0030494 0.00358202)
(0.003061 0.00350733 0.00387435)
(0.00349978 0.00322112 0.00403972)
(0.00399991 0.00304961 0.00418619)
(0.00417994 0.00248513 0.00416548)
(0.0043619 0.00202056 0.00415312)
(0.00435807 0.00143906 0.00410459)
(0.00439051 0.00101766 0.00408746)
(0.00435692 0.000608302 0.00407264)
(0.00432454 0.000327517 0.00408277)
(0.00425962 9.11992e-05 0.00410194)
(0.00419018 -5.46789e-05 0.00413651)
(0.00411267 -0.000155633 0.00417581)
(0.00403187 -0.00020637 0.00422131)
(0.00394654 -0.000231717 0.00426972)
(0.00386015 -0.000238344 0.00431973)
(0.00377256 -0.000238993 0.00437072)
(0.00368378 -0.000240137 0.0044236)
(0.0035954 -0.000243312 0.00447801)
(0.0035029 -0.00026405 0.00453397)
(0.00341061 -0.000279741 0.00459167)
(0.00330903 -0.000351386 0.00465116)
(0.0032203 -0.000377534 0.00471324)
(0.00311952 -0.000539712 0.00477547)
(0.00306933 -0.000552628 0.00483992)
(0.00301422 -0.00083573 0.0048991)
(0.00304296 -0.000777216 0.00495564)
(0.00303942 -0.00118392 0.00499132)
(0.00311505 -0.000937277 0.00500406)
(0.00310567 -0.00139116 0.00496654)
(0.0031265 -0.000758894 0.00486431)
(0.00296503 -0.00118937 0.00467223)
(0.00287735 -7.50195e-05 0.00437688)
(0.00306437 -0.000607609 0.00396829)
(0.00383789 0.000734826 0.00364556)
(0.0050589 -0.000254081 0.00343579)
(0.00537949 0.00171315 0.00256184)
(0.00530137 0.00134588 0.00103214)
(0.00838216 0.00509157 0.000441815)
(0.0231292 -0.00399992 0.000963398)
(0.0487581 -0.00859271 -0.000393924)
(0.067754 -0.0192788 0.000594362)
(0.0763428 -0.0137017 0.00422862)
(0.0748087 -0.0320594 0.00752014)
(0.0674434 -0.0150417 0.0174539)
(0.0651487 -0.0805892 0.0269526)
(0.0117275 -0.0164868 0.0369733)
(0.0218549 -0.183971 0.0661171)
(-0.109928 0.0726355 -0.0607135)
(0.0285311 -0.118178 -0.0187957)
(0.195008 -0.237856 0.107444)
(0.105409 0.0553913 0.0468785)
(0.0700846 -0.0833579 0.0224361)
(0.0436568 0.00342357 0.0149464)
(0.0285404 -0.0259023 0.0121625)
(0.0189928 -0.00520038 0.0122196)
(0.0176825 -0.010273 0.012607)
(0.0149782 -0.00298149 0.0107581)
(0.0148918 0.000163123 0.00915311)
(0.0150468 0.00560064 0.00954258)
(0.0135968 0.00437923 0.0111086)
(0.0107181 0.00378799 0.011446)
(0.008535 0.000339911 0.0106147)
(0.00538297 -0.000751542 0.00954128)
(0.00181523 -0.00317153 0.00808196)
(-0.000225358 -0.00382023 0.00675605)
(-0.00123099 -0.00375045 0.00677735)
(-0.00238898 -0.00320558 0.00686656)
(-0.00363209 -0.00366697 0.0079004)
(-0.00354227 -0.00457707 0.00895077)
(-0.002485 -0.00493137 0.00979737)
(-0.0011059 -0.00547965 0.0115673)
(-0.000789704 -0.0082917 0.0140535)
(-0.00327625 -0.011823 0.01443)
(-0.00531382 -0.0153041 0.0138426)
(-0.00617496 -0.0176138 0.0122032)
(-0.00617084 -0.0173171 0.00957507)
(-0.006166 -0.0159611 0.00648589)
(-0.00586893 -0.0134303 0.00283092)
(-0.005534 -0.00810374 0.000526308)
(-0.00480734 -0.00448386 0.00295441)
(-0.00467674 -0.0015443 0.00587627)
(-0.0046778 0.000979644 0.00892495)
(-0.00410876 0.000557729 0.0122015)
(-0.00473878 0.00250459 0.0153425)
(-0.00408046 -0.00163507 0.0191895)
(0.023476 0.0211333 0.00429239)
(0.0268058 0.0149846 0.00446959)
(0.0161195 0.00910575 0.00105124)
(0.0163643 0.00992265 0.00151115)
(0.00915031 0.00439955 0.00198908)
(0.00806505 0.00488524 0.00248374)
(0.00349097 0.00114089 0.00335364)
(0.00250784 0.0019135 0.00334364)
(0.00114976 0.00118819 0.00344914)
(0.00142378 0.00242556 0.00361566)
(0.00139341 0.00226901 0.00377426)
(0.00204911 0.00286068 0.00418263)
(0.00240911 0.00277472 0.00437667)
(0.00292938 0.00289536 0.00453413)
(0.00313286 0.00250853 0.0045002)
(0.00333461 0.00221014 0.00450096)
(0.00331603 0.00170042 0.00446919)
(0.00333219 0.00133731 0.00447629)
(0.00326984 0.000944971 0.00447461)
(0.00321644 0.000664704 0.00449042)
(0.00312462 0.000405002 0.00450767)
(0.00302949 0.000223517 0.00453649)
(0.0029223 7.78968e-05 0.00456938)
(0.00281504 -1.6562e-05 0.00460876)
(0.00270913 -7.84939e-05 0.00465159)
(0.0026079 -0.000112415 0.00469746)
(0.00251197 -0.000131263 0.00474425)
(0.0024212 -0.000143532 0.00479132)
(0.00233556 -0.000154943 0.004839)
(0.00225214 -0.000179946 0.0048877)
(0.00217439 -0.000200446 0.00493813)
(0.00209304 -0.000265402 0.00498939)
(0.00202973 -0.000282005 0.00503931)
(0.00195784 -0.000410457 0.0050831)
(0.00193775 -0.000382627 0.00511817)
(0.00189795 -0.000585158 0.00513775)
(0.00193993 -0.000424241 0.00514228)
(0.00191701 -0.000670372 0.00512117)
(0.00197416 -0.000230352 0.00507754)
(0.00191927 -0.000445554 0.00500129)
(0.0019625 0.000434128 0.00489157)
(0.0019277 0.000142193 0.00473842)
(0.00211041 0.00109754 0.00452669)
(0.00240631 3.39725e-05 0.00425728)
(0.00310952 0.000742899 0.00412047)
(0.00403689 -0.000862258 0.00408589)
(0.00450783 0.000916751 0.00357846)
(0.00524098 -0.00165599 0.00242296)
(0.0121504 -0.0013499 0.00236134)
(0.0283529 -0.0113893 0.00287048)
(0.0530402 -0.0110616 0.00252725)
(0.0700533 -0.00959478 0.00577542)
(0.0783155 0.00594133 0.0103798)
(0.0767671 -0.000378443 0.0143371)
(0.068786 0.0254643 0.0277862)
(0.0629253 -0.0353173 0.0424727)
(0.0168149 0.0535095 0.0774769)
(0.0356296 -0.191612 0.103242)
(-0.140678 0.201637 -0.040062)
(0.0297352 -0.211477 0.00945106)
(0.17806 -0.201484 0.116087)
(0.0768251 0.0827872 0.0339362)
(0.0488378 -0.041233 0.0218061)
(0.014023 0.0487225 0.00328947)
(0.00940448 0.0268719 0.00715094)
(0.00159251 0.0475172 0.00801192)
(0.00191365 0.0448097 0.00953764)
(0.00114337 0.0517802 0.00947026)
(0.00373045 0.0507137 0.00838917)
(0.00529094 0.0546744 0.00716436)
(0.00673837 0.0531428 0.00731727)
(0.00752152 0.0520067 0.00691376)
(0.00617686 0.0483978 0.00705722)
(0.00313698 0.0458194 0.00720351)
(0.000329927 0.0412322 0.00748221)
(-0.00174108 0.0376623 0.00856682)
(-0.0040871 0.0327391 0.00886759)
(-0.00596665 0.0299334 0.00917161)
(-0.00730528 0.0257955 0.0113204)
(-0.00793025 0.0234359 0.0132245)
(-0.00818898 0.0201573 0.0154856)
(-0.00850673 0.0175379 0.0166685)
(-0.00927972 0.014127 0.0181812)
(-0.0106952 0.00927982 0.0173331)
(-0.0129002 0.00492824 0.0161165)
(-0.0139471 0.00133003 0.0140613)
(-0.013075 -0.000645576 0.00906726)
(-0.0111742 -0.000350844 0.00531104)
(-0.010444 -0.000496458 0.00186301)
(-0.00847359 0.00264341 -6.76814e-05)
(-0.00755069 0.00424741 0.00338633)
(-0.00811852 0.00414083 0.00658538)
(-0.00831785 0.00314357 0.00938861)
(-0.00948128 -6.20398e-05 0.0127715)
(-0.0130193 0.000876564 0.0154122)
(-0.0147785 -0.00297109 0.0191429)
(0.0235141 0.0212826 0.0044931)
(0.0287299 0.017933 0.00516784)
(0.0175845 0.0100982 0.000895389)
(0.0190807 0.0119821 0.0010895)
(0.0110458 0.00487018 0.00053523)
(0.0101318 0.00637026 0.00107948)
(0.00428893 0.00153031 0.00199545)
(0.00259554 0.00247487 0.00250363)
(5.74782e-05 0.000322076 0.00289884)
(5.94478e-05 0.0015001 0.0032966)
(-0.000230844 0.00107576 0.00354192)
(0.000192018 0.00198359 0.00412317)
(0.000380678 0.00214891 0.00434007)
(0.000939106 0.00258163 0.00453494)
(0.00118227 0.00235899 0.00447575)
(0.00138147 0.00217432 0.00449481)
(0.00130152 0.00171892 0.00447121)
(0.00122475 0.00141877 0.00449669)
(0.00107551 0.00106595 0.00449413)
(0.000959492 0.000814519 0.00449835)
(0.000820726 0.000555707 0.00449079)
(0.000696597 0.000357231 0.00449199)
(0.000573466 0.000184759 0.00449698)
(0.000456105 6.19518e-05 0.00450947)
(0.000342516 -2.79958e-05 0.00452637)
(0.000240799 -8.63651e-05 0.00454902)
(0.00015005 -0.00012533 0.00457506)
(7.07575e-05 -0.000153485 0.00460301)
(8.03583e-07 -0.000176346 0.00463049)
(-6.51568e-05 -0.000203644 0.00465735)
(-0.000127221 -0.000221659 0.00468358)
(-0.000194052 -0.000270145 0.004708)
(-0.000246306 -0.000265902 0.00472933)
(-0.000308426 -0.000345771 0.00474095)
(-0.000316923 -0.000262052 0.00473957)
(-0.000346462 -0.000367819 0.0047138)
(-0.000294167 -0.000101397 0.00466509)
(-0.000324472 -0.000181818 0.00457989)
(-0.000280986 0.000438213 0.00446801)
(-0.000373645 0.000433326 0.00433117)
(-0.000262037 0.00144328 0.00420408)
(-9.43762e-05 0.00115394 0.00408122)
(0.00050555 0.00190908 0.00392103)
(0.00113354 0.000464692 0.00376599)
(0.00198252 0.000796308 0.00386643)
(0.00252471 -0.00116104 0.00395507)
(0.00335283 -7.12514e-07 0.0040298)
(0.00656092 -0.00438768 0.0036103)
(0.015482 -0.00652926 0.00430335)
(0.0307335 -0.0130834 0.00588621)
(0.0496244 -0.00471399 0.00775445)
(0.0641335 0.00682891 0.0143298)
(0.071099 0.0338112 0.0191998)
(0.0706341 0.0379282 0.0231705)
(0.0641259 0.0682304 0.0399139)
(0.0559413 0.0235076 0.0549692)
(0.0283549 0.123054 0.0920802)
(0.0401575 -0.130876 0.109239)
(-0.11041 0.308888 -0.00848697)
(0.017821 -0.26986 0.0176654)
(0.154942 -0.165839 0.120349)
(0.0588012 0.0949279 0.0275805)
(0.0493421 -0.000434934 0.0242645)
(0.0152071 0.0799177 0.00166695)
(0.0155028 0.0674029 0.00752693)
(0.00719739 0.0856481 0.00869784)
(0.00728044 0.0846591 0.010206)
(0.00499166 0.0915882 0.0091757)
(0.00607597 0.0921958 0.00828326)
(0.00699934 0.0968382 0.00854865)
(0.00937836 0.0953253 0.00977056)
(0.00977021 0.0954281 0.0100225)
(0.00988694 0.0933417 0.0105012)
(0.0085095 0.0903509 0.0109155)
(0.00660056 0.0855305 0.012445)
(0.00389493 0.0800492 0.0125933)
(0.00159792 0.0751343 0.0121909)
(-0.00141034 0.0703447 0.0121529)
(-0.00433435 0.0655692 0.0140988)
(-0.00659088 0.0613236 0.0164072)
(-0.00852996 0.0561865 0.0184394)
(-0.0108298 0.0492872 0.0199922)
(-0.0121277 0.0417173 0.0201181)
(-0.0131497 0.0344737 0.0176381)
(-0.0138229 0.0280543 0.0135216)
(-0.0126864 0.0237373 0.00838438)
(-0.0103397 0.0216097 0.00374046)
(-0.00813662 0.0209663 0.00159491)
(-0.00787252 0.020773 0.000550018)
(-0.00637006 0.0202666 0.0039587)
(-0.00735129 0.0181447 0.00800576)
(-0.00780391 0.0145074 0.0100842)
(-0.00842255 0.0111736 0.0132213)
(-0.0117479 0.00407911 0.0153871)
(-0.0185755 0.00351994 0.0158946)
(-0.0255713 -0.00260689 0.0180527)
(0.0221625 0.020968 0.00519935)
(0.0301185 0.021196 0.00648805)
(0.0181958 0.0108863 0.00168631)
(0.0211126 0.0138828 0.00232563)
(0.0129424 0.00408151 0.000179592)
(0.0119282 0.00677001 0.000268519)
(0.00554872 0.000943485 0.000771606)
(0.00328638 0.00296902 0.00145285)
(4.99653e-05 -0.000271131 0.00209949)
(-0.000833074 0.000762349 0.00270434)
(-0.00147527 -0.000274056 0.00298788)
(-0.00129258 0.000879719 0.00373973)
(-0.00104063 0.00129959 0.00406197)
(-0.000301995 0.00211091 0.00445133)
(0.000133126 0.0019697 0.00454062)
(0.000397441 0.00187951 0.00467978)
(0.00029159 0.00145659 0.00468937)
(0.000147927 0.00124796 0.00471857)
(-5.59045e-05 0.000988544 0.00468595)
(-0.00020634 0.00084111 0.00464895)
(-0.000366509 0.000664119 0.00458395)
(-0.000505563 0.000526483 0.00451959)
(-0.000644846 0.000389254 0.00445558)
(-0.000768586 0.000281825 0.00440171)
(-0.0008743 0.000196495 0.00435606)
(-0.000959073 0.000138498 0.00431901)
(-0.00102414 9.82386e-05 0.00429041)
(-0.00107389 6.99943e-05 0.00426923)
(-0.00111533 4.79614e-05 0.00425409)
(-0.00115023 2.57612e-05 0.00424623)
(-0.00117926 1.77062e-05 0.00424535)
(-0.00120883 -4.28658e-06 0.00424744)
(-0.0012243 3.36671e-05 0.00424976)
(-0.00124803 1.74954e-05 0.00423995)
(-0.00123061 0.00017039 0.00421201)
(-0.00124986 0.000172426 0.00415076)
(-0.00122538 0.000532344 0.00405167)
(-0.00132419 0.000566444 0.00389556)
(-0.00136042 0.00122938 0.0037011)
(-0.00147223 0.0012221 0.00350534)
(-0.0012663 0.00208275 0.00337833)
(-0.000860916 0.00164098 0.00333863)
(7.96384e-05 0.00225523 0.003382)
(0.000865029 0.00072016 0.00353129)
(0.00158287 0.00106735 0.003875)
(0.00183525 -0.000908209 0.00421222)
(0.00338885 -0.00112987 0.00438523)
(0.00881291 -0.0060294 0.00412079)
(0.0159766 -0.00737267 0.00571943)
(0.0256104 -0.0109166 0.00954484)
(0.0376498 0.00433667 0.0136956)
(0.043415 0.0238553 0.0215718)
(0.0510705 0.0562726 0.0289829)
(0.0532696 0.067948 0.0360758)
(0.0482142 0.0992417 0.0523281)
(0.040572 0.0610083 0.0608617)
(0.0322366 0.14166 0.0809102)
(0.0411365 -0.0902928 0.0814907)
(-0.0398585 0.353657 0.0290414)
(0.0184377 -0.30835 0.0252381)
(0.0954669 -0.124578 0.114164)
(0.0248219 0.111525 0.0141883)
(0.0208094 0.0491744 0.0153594)
(-0.00173103 0.11607 0.000688345)
(-0.00057759 0.115674 0.00932548)
(-0.00466659 0.130737 0.0112014)
(-0.0021017 0.130687 0.0131152)
(-0.00118488 0.137027 0.0132101)
(0.00190039 0.136096 0.0136188)
(0.00518303 0.13887 0.0145343)
(0.00945889 0.136594 0.014754)
(0.0115494 0.13706 0.0145914)
(0.0132571 0.13474 0.0149871)
(0.0129362 0.133239 0.015764)
(0.0115465 0.128631 0.0165685)
(0.00902342 0.123232 0.0167818)
(0.00618267 0.116858 0.0170425)
(0.00312279 0.110278 0.0174965)
(-0.000476203 0.103031 0.018234)
(-0.00420405 0.0938802 0.0191062)
(-0.00785977 0.0844741 0.0192008)
(-0.0108099 0.0743375 0.0183508)
(-0.0117646 0.0648596 0.0153945)
(-0.0117055 0.0565616 0.0103546)
(-0.0113912 0.0514238 0.00491678)
(-0.0101689 0.0490827 0.000460096)
(-0.00819439 0.0485899 -0.00271597)
(-0.00713637 0.0488912 -0.00288277)
(-0.00696039 0.0472952 0.00123903)
(-0.00790607 0.0426556 0.00769897)
(-0.0101518 0.0358766 0.00991544)
(-0.0117304 0.0294171 0.0120891)
(-0.0131224 0.0229632 0.0154983)
(-0.0170876 0.013615 0.0175426)
(-0.0244838 0.00944279 0.0171632)
(-0.0309688 -0.000919831 0.0153754)
(0.0185353 0.0195009 0.00537611)
(0.0300813 0.0248803 0.00851251)
(0.0169225 0.0110696 0.00351465)
(0.0210889 0.0160018 0.00501092)
(0.0132048 0.00284726 0.00176321)
(0.0121155 0.00632043 0.00124799)
(0.00546279 -0.000499969 0.00113222)
(0.0033639 0.00288771 0.00123957)
(-0.000244461 -0.000601831 0.00165823)
(-0.00171967 0.000696569 0.00240629)
(-0.00315003 -0.000984437 0.00259371)
(-0.00384613 0.000200889 0.00337732)
(-0.00400411 0.000536396 0.00380556)
(-0.00304627 0.00148389 0.00456543)
(-0.00248208 0.00134559 0.00495068)
(-0.00222273 0.0014091 0.0052657)
(-0.00246674 0.00108097 0.00530625)
(-0.00280136 0.00100985 0.00529596)
(-0.00315339 0.000866967 0.00519215)
(-0.00338227 0.000850691 0.00508476)
(-0.00356858 0.000793649 0.00494884)
(-0.00369676 0.000770907 0.0048219)
(-0.00380178 0.00072486 0.00470066)
(-0.00388755 0.000686765 0.00460104)
(-0.00396579 0.00065163 0.00452369)
(-0.00401557 0.000628836 0.00446159)
(-0.00404251 0.000608993 0.00441265)
(-0.0040455 0.000592873 0.00438211)
(-0.00403383 0.000578121 0.00436863)
(-0.00401894 0.000564094 0.00436985)
(-0.00400884 0.000569266 0.00438339)
(-0.00400667 0.000578005 0.004402)
(-0.00400567 0.000659961 0.00441891)
(-0.00402002 0.000717424 0.00441777)
(-0.00399836 0.000938571 0.00439552)
(-0.00400372 0.00102118 0.00433919)
(-0.00394662 0.00140734 0.00425728)
(-0.0039733 0.00142451 0.0041273)
(-0.00390853 0.00191887 0.00394947)
(-0.00390481 0.00164558 0.00372492)
(-0.00358867 0.00211735 0.00353703)
(-0.00309958 0.00134635 0.00342465)
(-0.00206022 0.00177881 0.00350188)
(-0.00123897 0.000375139 0.00378175)
(-0.000618083 0.000808088 0.00420031)
(9.13491e-05 -0.00109928 0.0044632)
(0.00330612 -0.00203525 0.00442298)
(0.00863411 -0.00542952 0.00443196)
(0.0143138 -0.00501414 0.00624472)
(0.0167599 -0.00350444 0.0105964)
(0.0153462 0.017881 0.0165761)
(0.0196779 0.0404912 0.02569)
(0.0252816 0.0746388 0.0343993)
(0.0292457 0.09334 0.0436788)
(0.0341879 0.121297 0.0563433)
(0.0375236 0.0841929 0.0608492)
(0.0460853 0.156014 0.0704986)
(0.0401735 -0.0687435 0.0592471)
(0.0028454 0.346117 0.0600452)
(0.0094616 -0.323102 0.0314365)
(0.0335803 -0.0860202 0.100223)
(-0.00211117 0.126846 0.0159271)
(-0.00281223 0.0913006 0.0124345)
(-0.0121494 0.152074 0.00202319)
(-0.00821664 0.151505 0.0123418)
(-0.00730788 0.162646 0.0137363)
(-0.00392961 0.159662 0.0149907)
(-0.00166266 0.163989 0.0151837)
(0.00167611 0.162216 0.0163661)
(0.00518238 0.164001 0.0173215)
(0.00958974 0.161115 0.0176411)
(0.0118794 0.162463 0.0172553)
(0.0141586 0.161097 0.0180344)
(0.0140655 0.159652 0.0185025)
(0.0133872 0.155331 0.0191819)
(0.0111581 0.149982 0.0188242)
(0.00868335 0.143142 0.0183726)
(0.00544531 0.135041 0.0179885)
(0.00234875 0.126582 0.0175907)
(-0.000910913 0.117008 0.0177989)
(-0.00337286 0.106607 0.0172474)
(-0.00490492 0.0963569 0.0148024)
(-0.00458994 0.0878583 0.0107226)
(-0.00407816 0.0819261 0.00565907)
(-0.00333732 0.0789227 0.000849203)
(-0.00269956 0.0763844 -0.00425184)
(-0.00287754 0.0755598 -0.00648763)
(-0.00290552 0.0737763 -0.00442546)
(-0.00237854 0.0689392 -0.0017411)
(-0.00277148 0.0623684 0.00181395)
(-0.00491442 0.0524206 0.00368375)
(-0.00825173 0.0430232 0.00576887)
(-0.0118632 0.033072 0.00872648)
(-0.0177037 0.0217215 0.0105836)
(-0.02572 0.0142856 0.0123306)
(-0.0368786 -0.000462196 0.00883313)
(0.01526 0.0142938 0.00433561)
(0.0289016 0.028005 0.00924972)
(0.0141406 0.010864 0.00423861)
(0.0197795 0.0188835 0.00606568)
(0.0126256 0.00281625 0.00282642)
(0.0109023 0.00641921 0.00202283)
(0.00366057 -0.00173564 0.00208942)
(0.00183249 0.00268355 0.00169886)
(-0.000954866 -0.00111055 0.002207)
(-0.00247011 0.00100098 0.00284539)
(-0.00389469 -0.00106134 0.00309803)
(-0.00475068 -5.53314e-05 0.00392855)
(-0.00477236 -0.000595326 0.00460765)
(-0.00366699 9.18632e-05 0.00561262)
(-0.0030803 -0.000120539 0.00631686)
(-0.00284482 0.000341492 0.00688887)
(-0.00306459 0.00039718 0.00713014)
(-0.00333821 0.000717949 0.0072069)
(-0.00363201 0.000821246 0.0071308)
(-0.00381109 0.00101245 0.00701426)
(-0.0039631 0.00109532 0.00685302)
(-0.00405691 0.00117673 0.00669884)
(-0.00412741 0.00120123 0.00655438)
(-0.00417258 0.00121415 0.00643439)
(-0.00420243 0.00120543 0.00633539)
(-0.00420635 0.00119165 0.00625957)
(-0.0041875 0.00117621 0.00620474)
(-0.00414799 0.00116095 0.00616952)
(-0.00409849 0.00114586 0.00615019)
(-0.00405022 0.00113724 0.00614539)
(-0.0040145 0.00115509 0.00614931)
(-0.00399631 0.00119217 0.00615193)
(-0.00399105 0.00130916 0.00614575)
(-0.00399712 0.00141636 0.00612184)
(-0.00396442 0.00166442 0.00607931)
(-0.00395578 0.00176845 0.00600841)
(-0.00387603 0.00210345 0.00591863)
(-0.00385856 0.00204293 0.00578731)
(-0.00368993 0.00237451 0.00562899)
(-0.00354941 0.00193183 0.00543926)
(-0.00311435 0.00214537 0.00528497)
(-0.00263942 0.00114282 0.00520841)
(-0.00178223 0.00138362 0.00535012)
(-0.00116708 -5.00008e-05 0.00566107)
(-0.000795986 0.000602412 0.00603122)
(0.000124145 -0.00152501 0.00569404)
(0.00300065 -0.000949993 0.00488609)
(0.0065136 -0.00106464 0.00466085)
(0.00843165 0.00426273 0.00684731)
(0.00239027 0.0119548 0.0148176)
(-0.00554815 0.031659 0.0238749)
(-0.00821076 0.0532971 0.0310036)
(-0.00492363 0.084742 0.0355507)
(0.00726552 0.107896 0.0401459)
(0.0233817 0.139448 0.051581)
(0.0462207 0.12449 0.0581886)
(0.0701173 0.181546 0.0725314)
(0.0732848 -0.0111231 0.0646784)
(0.0756696 0.380057 0.0387167)
(-0.00600755 -0.342043 0.0310239)
(-0.0490557 -0.0603843 0.0724342)
(-0.0376464 0.155344 -0.00719476)
(-0.0365108 0.12121 0.00317366)
(-0.0266801 0.173943 -0.00180702)
(-0.0194317 0.164987 0.00965356)
(-0.0106193 0.169496 0.00981396)
(-0.00684185 0.163699 0.0104105)
(-0.00217652 0.165434 0.00996092)
(0.00174226 0.164204 0.0109073)
(0.00703916 0.164658 0.0120672)
(0.0103884 0.164005 0.0122404)
(0.012088 0.166161 0.0122394)
(0.0141853 0.167426 0.0131956)
(0.0163221 0.169893 0.0146606)
(0.0176923 0.1695 0.0162263)
(0.0177771 0.166705 0.0176911)
(0.0172411 0.161897 0.0187765)
(0.0159595 0.155283 0.0194457)
(0.0139768 0.147451 0.0196092)
(0.0119346 0.138842 0.0192764)
(0.00983456 0.130491 0.0183192)
(0.00856319 0.121736 0.016451)
(0.00744208 0.114845 0.0131862)
(0.00634462 0.110706 0.00832034)
(0.00506462 0.108813 0.00441159)
(0.00312895 0.108085 0.00224074)
(0.00266885 0.106619 0.00195255)
(0.00335422 0.104244 0.00188339)
(0.00486639 0.101271 0.00247201)
(0.00562424 0.0971436 0.00473389)
(0.00419597 0.0892897 0.00733685)
(0.000419803 0.0798969 0.0101935)
(-0.00353086 0.0676777 0.0125881)
(-0.0099896 0.051626 0.0127794)
(-0.0192047 0.0330097 0.0077398)
(-0.0279909 0.00680828 -0.00775731)
(0.00549414 0.00942581 -0.00288275)
(0.0264308 0.0298343 0.00729501)
(0.00981772 0.0110442 0.00188526)
(0.0175316 0.0226873 0.00377635)
(0.0115296 0.004774 0.00145736)
(0.00960325 0.00794568 0.000387629)
(0.00129988 -0.0019209 -0.00103692)
(-6.02616e-05 0.00322579 -0.00143287)
(-0.00323415 -0.000877113 -0.000926223)
(-0.00457786 0.00157924 -0.000368445)
(-0.00609231 -0.000899428 -2.89987e-05)
(-0.00695486 -0.000140491 0.000759723)
(-0.00749049 -0.00142977 0.001456)
(-0.00695265 -0.000839841 0.00230943)
(-0.00695882 -0.000969648 0.00303363)
(-0.00702623 -0.000219485 0.00362904)
(-0.00744809 3.6992e-05 0.004064)
(-0.00777433 0.00056276 0.00432788)
(-0.00811104 0.000787638 0.00442622)
(-0.00828326 0.00108146 0.00443578)
(-0.00837314 0.00123286 0.00437623)
(-0.00838319 0.00137155 0.0043056)
(-0.0083699 0.00144096 0.00423541)
(-0.00833845 0.00148532 0.00417785)
(-0.0082959 0.00149909 0.00412981)
(-0.0082368 0.0014998 0.0040929)
(-0.00816308 0.00149478 0.00406589)
(-0.00807608 0.00149181 0.00404812)
(-0.00798553 0.00149451 0.00403715)
(-0.00791421 0.00150785 0.00403169)
(-0.00787442 0.00154507 0.00402851)
(-0.00785738 0.00160302 0.00402099)
(-0.00785708 0.00172584 0.00400394)
(-0.00785827 0.00183099 0.00397178)
(-0.00780257 0.00205121 0.00392187)
(-0.0077334 0.00213535 0.00385774)
(-0.00755913 0.00243645 0.00377861)
(-0.00742566 0.00238395 0.0036762)
(-0.00718279 0.00268075 0.00353441)
(-0.00697656 0.00221405 0.00336386)
(-0.00649736 0.00236145 0.00318834)
(-0.0060296 0.00130992 0.00305959)
(-0.00523966 0.00139741 0.00308999)
(-0.00480372 -0.000198081 0.0033727)
(-0.00449058 0.000229486 0.00352652)
(-0.00382182 -0.00214798 0.00244856)
(-0.00176188 0.000875981 0.00182869)
(-0.000558056 0.00111808 0.0015448)
(-0.00240309 0.0101293 0.00451958)
(-0.0118081 0.0167426 0.0132449)
(-0.0273572 0.0291959 0.0236859)
(-0.0311414 0.0395934 0.0301878)
(-0.0283302 0.0643851 0.0311151)
(-0.0165459 0.0754882 0.0284478)
(-0.000746299 0.118916 0.0364014)
(0.0317229 0.0882742 0.0411434)
(0.0699696 0.182061 0.0613197)
(0.0943709 -0.0153386 0.0685649)
(0.168082 0.412484 0.0316159)
(-0.00897438 -0.323833 0.0265769)
(-0.115708 -0.102403 0.0547994)
(-0.060059 0.145708 -0.0107462)
(-0.057493 0.0760345 0.00307863)
(-0.0287377 0.131848 0.00089552)
(-0.0235685 0.102697 0.0119206)
(-0.00983827 0.10586 0.00957905)
(-0.00651106 0.0941269 0.00881227)
(-0.00200268 0.0928055 0.00717997)