/*--------------------------------*- C++ -*----------------------------------*\
| =========                 |                                                 |
| \\      /  F ield         | OpenFOAM: The Open Source CFD Toolbox           |
|  \\    /   O peration     | Version:  2.3.0                                 |
|   \\  /    A nd           | Web:      www.OpenFOAM.org                      |
|    \\/     M anipulation  |                                                 |
\*---------------------------------------------------------------------------*/
FoamFile
{
    version     2.0;
    format      ascii;
    class       volScalarField;
    location    "5";
    object      alpha.airMean;
}
// * * * * * * * * * * * * * * * * * * * * * * * * * * * * * * * * * * * * * //

dimensions      [0 0 0 0 0 0 0];

internalField   nonuniform List<scalar> 
6144
(
0.99999
0.99999
0.99999
0.99999
0.99999
0.99999
0.99999
0.99999
0.99999
0.99999
0.99999
0.99999
0.99999
0.99999
0.99999
0.99999
0.99999
0.99999
0.99999
0.99999
0.99999
0.99999
0.99999
0.99999
0.99999
0.99999
0.99999
0.99999
0.99999
0.99999
0.99999
0.99999
0.99999
0.99999
0.99999
0.99999
0.99999
0.99999
0.99999
0.99999
0.99999
0.99999
0.99999
0.99999
0.99999
0.99999
0.99999
0.99999
0.99999
0.99999
0.99999
0.99999
0.99999
0.99999
0.999984
0.999971
0.999959
0.999938
0.9989
0.926437
0.0250233
0.000147766
2.29163e-06
2.15194e-06
2.12158e-06
2.04569e-06
2.03033e-06
1.9671e-06
1.94701e-06
1.89262e-06
1.86547e-06
1.8222e-06
1.78512e-06
1.74506e-06
1.71036e-06
1.67259e-06
1.63481e-06
1.59753e-06
1.56128e-06
1.52379e-06
1.48555e-06
1.44957e-06
1.41199e-06
1.37277e-06
1.33466e-06
1.29478e-06
1.2541e-06
1.21537e-06
1.17339e-06
1.12409e-06
1.05755e-06
9.55064e-07
8.28138e-07
7.62404e-07
7.70177e-07
7.70147e-07
0.99999
0.99999
0.99999
0.99999
0.99999
0.99999
0.99999
0.99999
0.99999
0.99999
0.99999
0.99999
0.99999
0.99999
0.99999
0.99999
0.99999
0.99999
0.99999
0.99999
0.99999
0.99999
0.99999
0.99999
0.99999
0.99999
0.99999
0.99999
0.99999
0.99999
0.99999
0.99999
0.99999
0.99999
0.99999
0.99999
0.99999
0.99999
0.99999
0.99999
0.99999
0.99999
0.99999
0.99999
0.99999
0.99999
0.99999
0.99999
0.99999
0.99999
0.99999
0.99999
0.99999
0.999988
0.999984
0.999975
0.999964
0.99994
0.999423
0.954206
0.0334642
0.000183416
2.31034e-06
2.15156e-06
2.11687e-06
2.04094e-06
2.02584e-06
1.96434e-06
1.9436e-06
1.88902e-06
1.86294e-06
1.819e-06
1.78324e-06
1.74302e-06
1.70857e-06
1.67073e-06
1.63314e-06
1.59654e-06
1.55935e-06
1.52373e-06
1.48601e-06
1.44871e-06
1.40996e-06
1.37058e-06
1.33285e-06
1.29263e-06
1.25268e-06
1.2134e-06
1.1714e-06
1.12373e-06
1.05854e-06
9.56555e-07
8.27603e-07
7.62063e-07
7.69882e-07
7.69848e-07
0.99999
0.99999
0.99999
0.99999
0.99999
0.99999
0.99999
0.99999
0.99999
0.99999
0.99999
0.99999
0.99999
0.99999
0.99999
0.99999
0.99999
0.99999
0.99999
0.99999
0.99999
0.99999
0.99999
0.99999
0.99999
0.99999
0.99999
0.99999
0.99999
0.99999
0.99999
0.99999
0.99999
0.99999
0.99999
0.99999
0.99999
0.99999
0.99999
0.99999
0.99999
0.99999
0.99999
0.99999
0.99999
0.99999
0.99999
0.99999
0.99999
0.99999
0.99999
0.99999
0.999988
0.999983
0.999976
0.999966
0.999959
0.999944
0.999612
0.945606
0.0273971
9.99942e-05
2.24127e-06
2.17973e-06
2.11856e-06
2.05093e-06
2.03004e-06
1.97342e-06
1.95381e-06
1.89933e-06
1.87507e-06
1.82977e-06
1.79602e-06
1.75392e-06
1.71449e-06
1.67226e-06
1.6367e-06
1.59897e-06
1.55895e-06
1.5239e-06
1.48684e-06
1.44715e-06
1.41026e-06
1.37169e-06
1.33139e-06
1.29208e-06
1.25289e-06
1.21268e-06
1.17116e-06
1.12549e-06
1.06087e-06
9.63049e-07
8.3588e-07
7.63589e-07
7.6987e-07
7.70051e-07
0.99999
0.99999
0.99999
0.99999
0.99999
0.99999
0.99999
0.99999
0.99999
0.99999
0.99999
0.99999
0.99999
0.99999
0.99999
0.99999
0.99999
0.99999
0.99999
0.99999
0.99999
0.99999
0.99999
0.99999
0.99999
0.99999
0.99999
0.99999
0.99999
0.99999
0.99999
0.99999
0.99999
0.99999
0.99999
0.99999
0.99999
0.99999
0.99999
0.99999
0.99999
0.99999
0.99999
0.99999
0.99999
0.99999
0.99999
0.99999
0.99999
0.99999
0.99999
0.999988
0.999983
0.999975
0.999964
0.999956
0.999947
0.999939
0.999679
0.925659
0.0274702
8.35186e-05
7.71135e-06
4.22936e-06
3.07944e-06
2.46311e-06
2.25844e-06
2.07682e-06
2.00137e-06
1.90873e-06
1.86935e-06
1.81713e-06
1.7797e-06
1.74404e-06
1.70679e-06
1.6616e-06
1.62175e-06
1.58342e-06
1.54381e-06
1.50787e-06
1.47631e-06
1.44015e-06
1.40343e-06
1.36726e-06
1.32734e-06
1.28811e-06
1.25027e-06
1.20813e-06
1.16404e-06
1.11882e-06
1.0592e-06
9.66214e-07
8.41504e-07
7.63696e-07
7.69915e-07
7.69747e-07
0.99999
0.99999
0.99999
0.99999
0.99999
0.99999
0.99999
0.99999
0.99999
0.99999
0.99999
0.99999
0.99999
0.99999
0.99999
0.99999
0.99999
0.99999
0.99999
0.99999
0.99999
0.99999
0.99999
0.99999
0.99999
0.99999
0.99999
0.99999
0.99999
0.99999
0.99999
0.99999
0.99999
0.99999
0.99999
0.99999
0.99999
0.99999
0.99999
0.99999
0.99999
0.99999
0.99999
0.99999
0.99999
0.99999
0.99999
0.99999
0.99999
0.99999
0.999988
0.999985
0.999978
0.999968
0.999954
0.999947
0.999936
0.999936
0.999743
0.901989
0.0286095
0.000232054
0.000146944
0.000103429
8.0639e-05
6.03376e-05
4.61145e-05
3.3125e-05
2.47267e-05
1.79267e-05
1.26528e-05
8.66541e-06
6.01818e-06
4.16807e-06
3.02302e-06
2.30236e-06
1.93949e-06
1.74356e-06
1.65677e-06
1.57802e-06
1.53294e-06
1.47747e-06
1.42431e-06
1.37992e-06
1.34193e-06
1.29823e-06
1.2499e-06
1.196e-06
1.14629e-06
1.0992e-06
1.04352e-06
9.55483e-07
8.35353e-07
7.62013e-07
7.69865e-07
7.69174e-07
0.99999
0.99999
0.99999
0.99999
0.99999
0.99999
0.99999
0.99999
0.99999
0.99999
0.99999
0.99999
0.99999
0.99999
0.99999
0.99999
0.99999
0.99999
0.99999
0.99999
0.99999
0.99999
0.99999
0.99999
0.99999
0.99999
0.99999
0.99999
0.99999
0.99999
0.99999
0.99999
0.99999
0.99999
0.99999
0.99999
0.99999
0.99999
0.99999
0.99999
0.99999
0.99999
0.99999
0.99999
0.99999
0.99999
0.99999
0.99999
0.99999
0.999989
0.999986
0.999981
0.999974
0.999964
0.999951
0.999948
0.99995
0.999957
0.999827
0.87587
0.0220371
0.000981575
0.00100197
0.000917782
0.000908844
0.000850014
0.000795913
0.000709533
0.000636814
0.00055589
0.000483581
0.000412479
0.000351709
0.000294843
0.000245808
0.000199687
0.000157819
0.000120106
8.71944e-05
6.02175e-05
3.97743e-05
2.54555e-05
1.57e-05
9.46334e-06
5.60368e-06
3.63639e-06
2.36696e-06
1.74731e-06
1.39065e-06
1.19979e-06
1.00843e-06
8.81515e-07
7.9007e-07
7.87332e-07
7.73112e-07
7.69654e-07
0.99999
0.99999
0.99999
0.99999
0.99999
0.99999
0.99999
0.99999
0.99999
0.99999
0.99999
0.99999
0.99999
0.99999
0.99999
0.99999
0.99999
0.99999
0.99999
0.99999
0.99999
0.99999
0.99999
0.99999
0.99999
0.99999
0.99999
0.99999
0.99999
0.99999
0.99999
0.99999
0.99999
0.99999
0.99999
0.99999
0.99999
0.99999
0.99999
0.99999
0.99999
0.99999
0.99999
0.99999
0.99999
0.99999
0.99999
0.99999
0.99999
0.999988
0.999983
0.999978
0.999973
0.999968
0.999958
0.999951
0.999949
0.999946
0.99982
0.847314
0.0239761
0.00279021
0.00287317
0.00270655
0.00268441
0.00255215
0.00250694
0.00234545
0.0022558
0.00207484
0.00198165
0.00178858
0.00168807
0.00151872
0.00141667
0.00124429
0.0011247
0.000980296
0.000887956
0.000799446
0.000733251
0.000655791
0.000592569
0.00051762
0.000455214
0.000393544
0.000338452
0.000279643
0.000222441
0.000163921
0.000106734
5.943e-05
2.30823e-05
7.71595e-06
3.0156e-06
2.61611e-06
0.99999
0.99999
0.99999
0.99999
0.99999
0.99999
0.99999
0.99999
0.99999
0.99999
0.99999
0.99999
0.99999
0.99999
0.99999
0.99999
0.99999
0.99999
0.99999
0.99999
0.99999
0.99999
0.99999
0.99999
0.99999
0.99999
0.99999
0.99999
0.99999
0.99999
0.99999
0.99999
0.99999
0.99999
0.99999
0.99999
0.99999
0.99999
0.99999
0.99999
0.99999
0.99999
0.99999
0.99999
0.99999
0.99999
0.999989
0.999988
0.999987
0.999984
0.999979
0.999975
0.999972
0.99997
0.999966
0.99996
0.999953
0.999937
0.999733
0.731737
0.026473
0.00970321
0.0101989
0.0102439
0.0102653
0.0102483
0.0102478
0.010217
0.0101994
0.0101318
0.0100846
0.00998562
0.00989761
0.00973822
0.00963426
0.00951094
0.00938744
0.00927256
0.00914708
0.00902419
0.0088942
0.00876449
0.00863107
0.00848868
0.00834113
0.00817157
0.00798805
0.00775616
0.00748279
0.00713406
0.00669745
0.00611987
0.00540259
0.00453617
0.0034297
0.00229166
0.99999
0.99999
0.99999
0.99999
0.99999
0.99999
0.99999
0.99999
0.99999
0.99999
0.99999
0.99999
0.99999
0.99999
0.99999
0.99999
0.99999
0.99999
0.99999
0.99999
0.99999
0.99999
0.99999
0.99999
0.99999
0.99999
0.99999
0.99999
0.99999
0.99999
0.99999
0.99999
0.99999
0.99999
0.99999
0.99999
0.99999
0.99999
0.99999
0.99999
0.99999
0.99999
0.99999
0.99999
0.99999
0.999989
0.999985
0.999981
0.99998
0.999978
0.999974
0.999972
0.99997
0.999968
0.999964
0.999963
0.999962
0.999962
0.999882
0.818707
0.0214972
0.00428331
0.0041374
0.00381445
0.00366113
0.00355356
0.00343712
0.00332567
0.00322205
0.00309127
0.0029804
0.00283827
0.00271039
0.00255909
0.00242124
0.00226888
0.002126
0.00197459
0.00182471
0.00166771
0.00150922
0.0013561
0.00119956
0.00103942
0.000892814
0.000744961
0.000600654
0.000469884
0.000349587
0.000243915
0.000156919
8.98095e-05
4.38202e-05
1.83197e-05
6.88473e-06
2.79491e-06
0.999991
0.99999
0.99999
0.99999
0.99999
0.99999
0.99999
0.99999
0.99999
0.99999
0.99999
0.99999
0.99999
0.99999
0.99999
0.99999
0.99999
0.99999
0.99999
0.99999
0.99999
0.99999
0.99999
0.99999
0.99999
0.99999
0.99999
0.99999
0.99999
0.99999
0.99999
0.99999
0.99999
0.99999
0.99999
0.99999
0.99999
0.99999
0.99999
0.99999
0.99999
0.99999
0.99999
0.99999
0.999986
0.999982
0.99998
0.999978
0.999977
0.999976
0.999975
0.999973
0.999972
0.999972
0.999964
0.999963
0.999961
0.99996
0.999906
0.904098
0.0194084
0.000598921
0.000490626
0.000383675
0.000369727
0.000349152
0.000319062
0.000288298
0.000261012
0.000230276
0.000204628
0.000177786
0.000155021
0.00013298
0.000114071
9.61112e-05
8.02944e-05
6.6218e-05
5.36902e-05
4.23231e-05
3.27889e-05
2.4722e-05
1.78769e-05
1.24752e-05
8.4713e-06
5.44508e-06
3.374e-06
2.11774e-06
1.39052e-06
1.02743e-06
8.74844e-07
8.10203e-07
7.74263e-07
7.69236e-07
7.70522e-07
7.73057e-07
0.999991
0.99999
0.99999
0.99999
0.99999
0.99999
0.99999
0.99999
0.99999
0.99999
0.99999
0.99999
0.99999
0.99999
0.99999
0.99999
0.99999
0.99999
0.99999
0.99999
0.99999
0.99999
0.99999
0.99999
0.99999
0.99999
0.99999
0.99999
0.99999
0.99999
0.99999
0.99999
0.99999
0.99999
0.99999
0.99999
0.99999
0.99999
0.99999
0.99999
0.99999
0.99999
0.99999
0.99999
0.999986
0.999982
0.999981
0.999979
0.999979
0.999978
0.999978
0.999979
0.99998
0.999978
0.999971
0.999965
0.999964
0.99995
0.999902
0.946728
0.0232414
7.34876e-05
1.23126e-05
9.9236e-06
8.75728e-06
7.72646e-06
6.81239e-06
5.84193e-06
5.09703e-06
4.29589e-06
3.68291e-06
3.14153e-06
2.73621e-06
2.40645e-06
2.167e-06
1.9736e-06
1.82696e-06
1.71868e-06
1.64018e-06
1.57474e-06
1.51227e-06
1.45191e-06
1.39951e-06
1.35459e-06
1.31293e-06
1.2675e-06
1.22217e-06
1.1751e-06
1.12287e-06
1.06281e-06
9.86151e-07
8.95372e-07
8.08202e-07
7.65262e-07
7.70981e-07
7.69678e-07
0.999992
0.999991
0.999991
0.999991
0.99999
0.99999
0.99999
0.99999
0.99999
0.99999
0.99999
0.99999
0.99999
0.99999
0.99999
0.99999
0.99999
0.99999
0.99999
0.99999
0.99999
0.99999
0.99999
0.99999
0.99999
0.99999
0.99999
0.99999
0.99999
0.99999
0.99999
0.99999
0.99999
0.99999
0.99999
0.99999
0.99999
0.99999
0.99999
0.99999
0.99999
0.99999
0.99999
0.99999
0.999988
0.999984
0.999982
0.999981
0.999981
0.999981
0.999982
0.999982
0.999982
0.99998
0.999977
0.999972
0.999968
0.999954
0.999846
0.967731
0.033553
0.000122073
2.27637e-06
2.17873e-06
2.11612e-06
2.07302e-06
2.0506e-06
2.00635e-06
1.96748e-06
1.92308e-06
1.90003e-06
1.85917e-06
1.82123e-06
1.77081e-06
1.72982e-06
1.68885e-06
1.64577e-06
1.60698e-06
1.56556e-06
1.52307e-06
1.48324e-06
1.44283e-06
1.39991e-06
1.359e-06
1.32032e-06
1.27973e-06
1.24084e-06
1.19918e-06
1.15083e-06
1.09376e-06
1.019e-06
9.22085e-07
8.16247e-07
7.65799e-07
7.70772e-07
7.70003e-07
0.999993
0.999992
0.999992
0.999992
0.999991
0.99999
0.99999
0.99999
0.99999
0.99999
0.99999
0.99999
0.99999
0.99999
0.99999
0.99999
0.99999
0.99999
0.99999
0.99999
0.99999
0.99999
0.99999
0.99999
0.99999
0.99999
0.99999
0.99999
0.99999
0.99999
0.99999
0.99999
0.99999
0.99999
0.99999
0.99999
0.99999
0.99999
0.99999
0.99999
0.99999
0.99999
0.99999
0.99999
0.999989
0.999987
0.999985
0.999983
0.999983
0.999983
0.999983
0.999983
0.999983
0.999982
0.999979
0.999975
0.99997
0.999952
0.999755
0.97225
0.0498032
0.000235475
2.4987e-06
2.14812e-06
2.0927e-06
2.03069e-06
2.00902e-06
1.96814e-06
1.93303e-06
1.88647e-06
1.8601e-06
1.82588e-06
1.79329e-06
1.75488e-06
1.71771e-06
1.6796e-06
1.64283e-06
1.60741e-06
1.56682e-06
1.52594e-06
1.48679e-06
1.44485e-06
1.40442e-06
1.36471e-06
1.32488e-06
1.28626e-06
1.24898e-06
1.2074e-06
1.16182e-06
1.10754e-06
1.03486e-06
9.32417e-07
8.19255e-07
7.65318e-07
7.70677e-07
7.70422e-07
0.999994
0.999993
0.999993
0.999992
0.999992
0.999991
0.99999
0.99999
0.99999
0.99999
0.99999
0.99999
0.99999
0.99999
0.99999
0.99999
0.99999
0.99999
0.99999
0.99999
0.99999
0.99999
0.99999
0.99999
0.99999
0.99999
0.99999
0.99999
0.99999
0.99999
0.99999
0.99999
0.99999
0.99999
0.99999
0.99999
0.99999
0.99999
0.99999
0.99999
0.99999
0.99999
0.99999
0.99999
0.99999
0.999989
0.999987
0.999986
0.999985
0.999985
0.999985
0.999985
0.999984
0.999983
0.999979
0.999974
0.999965
0.999934
0.999743
0.968567
0.0521412
0.000242921
2.48996e-06
2.13969e-06
2.08919e-06
2.02798e-06
2.00691e-06
1.95896e-06
1.92612e-06
1.87678e-06
1.8501e-06
1.80548e-06
1.77462e-06
1.7379e-06
1.70312e-06
1.67055e-06
1.63601e-06
1.60122e-06
1.56636e-06
1.52964e-06
1.48675e-06
1.4478e-06
1.4074e-06
1.36685e-06
1.32849e-06
1.28969e-06
1.25154e-06
1.21133e-06
1.167e-06
1.11346e-06
1.04004e-06
9.33618e-07
8.14913e-07
7.62842e-07
7.70107e-07
7.70345e-07
0.999995
0.999994
0.999993
0.999993
0.999992
0.999991
0.999991
0.99999
0.99999
0.99999
0.99999
0.99999
0.99999
0.99999
0.99999
0.99999
0.99999
0.99999
0.99999
0.99999
0.99999
0.99999
0.99999
0.99999
0.99999
0.99999
0.99999
0.99999
0.99999
0.99999
0.99999
0.99999
0.99999
0.99999
0.99999
0.99999
0.99999
0.99999
0.99999
0.99999
0.99999
0.99999
0.99999
0.99999
0.99999
0.99999
0.999989
0.999988
0.999988
0.999987
0.999987
0.999987
0.999986
0.999985
0.999981
0.999974
0.999965
0.999949
0.999797
0.966973
0.0469462
0.000132651
2.28491e-06
2.12883e-06
2.09292e-06
2.0332e-06
1.99938e-06
1.94829e-06
1.9199e-06
1.86811e-06
1.84649e-06
1.80629e-06
1.76882e-06
1.73094e-06
1.69381e-06
1.65841e-06
1.62237e-06
1.59161e-06
1.55795e-06
1.5244e-06
1.49015e-06
1.45085e-06
1.40937e-06
1.37125e-06
1.33246e-06
1.29323e-06
1.25537e-06
1.21578e-06
1.17195e-06
1.11978e-06
1.04449e-06
9.34429e-07
8.15341e-07
7.64094e-07
7.7044e-07
7.70717e-07
0.999996
0.999994
0.999994
0.999993
0.999992
0.999991
0.999991
0.99999
0.99999
0.99999
0.99999
0.99999
0.99999
0.99999
0.99999
0.99999
0.99999
0.99999
0.99999
0.99999
0.99999
0.99999
0.99999
0.99999
0.99999
0.99999
0.99999
0.99999
0.99999
0.99999
0.99999
0.99999
0.99999
0.99999
0.99999
0.99999
0.99999
0.99999
0.99999
0.99999
0.99999
0.99999
0.99999
0.99999
0.99999
0.99999
0.99999
0.99999
0.99999
0.99999
0.999989
0.999989
0.999989
0.999987
0.999979
0.999968
0.999965
0.999963
0.999659
0.967802
0.0690236
0.000726772
3.55319e-06
2.12677e-06
2.09284e-06
2.03328e-06
1.99523e-06
1.93755e-06
1.91821e-06
1.86993e-06
1.83999e-06
1.79962e-06
1.76207e-06
1.72555e-06
1.68808e-06
1.6512e-06
1.61715e-06
1.58263e-06
1.54649e-06
1.51411e-06
1.48209e-06
1.44749e-06
1.41263e-06
1.37507e-06
1.33476e-06
1.29843e-06
1.26054e-06
1.22117e-06
1.18157e-06
1.12863e-06
1.04639e-06
9.34656e-07
8.15859e-07
7.63729e-07
7.7084e-07
7.70885e-07
0.99999
0.99999
0.99999
0.99999
0.99999
0.99999
0.99999
0.99999
0.99999
0.99999
0.99999
0.99999
0.99999
0.99999
0.99999
0.99999
0.99999
0.99999
0.99999
0.99999
0.99999
0.99999
0.99999
0.99999
0.99999
0.99999
0.99999
0.99999
0.99999
0.99999
0.99999
0.99999
0.99999
0.99999
0.99999
0.99999
0.99999
0.99999
0.99999
0.99999
0.99999
0.99999
0.99999
0.99999
0.99999
0.99999
0.99999
0.99999
0.99999
0.99999
0.99999
0.99999
0.99999
0.99999
0.999988
0.999979
0.99997
0.99993
0.999276
0.949724
0.034009
0.000156005
2.21575e-06
2.14799e-06
2.11169e-06
2.03834e-06
2.02501e-06
1.96358e-06
1.94289e-06
1.88876e-06
1.86177e-06
1.81578e-06
1.78289e-06
1.74284e-06
1.70493e-06
1.66561e-06
1.63178e-06
1.59416e-06
1.55488e-06
1.52044e-06
1.48333e-06
1.44489e-06
1.40982e-06
1.37156e-06
1.33065e-06
1.29307e-06
1.25349e-06
1.21197e-06
1.17163e-06
1.12317e-06
1.05486e-06
9.53999e-07
8.28649e-07
7.64225e-07
7.70138e-07
7.7041e-07
0.99999
0.99999
0.99999
0.99999
0.99999
0.99999
0.99999
0.99999
0.99999
0.99999
0.99999
0.99999
0.99999
0.99999
0.99999
0.99999
0.99999
0.99999
0.99999
0.99999
0.99999
0.99999
0.99999
0.99999
0.99999
0.99999
0.99999
0.99999
0.99999
0.99999
0.99999
0.99999
0.99999
0.99999
0.99999
0.99999
0.99999
0.99999
0.99999
0.99999
0.99999
0.99999
0.99999
0.99999
0.99999
0.99999
0.99999
0.99999
0.99999
0.99999
0.99999
0.99999
0.999989
0.999989
0.999988
0.999981
0.999958
0.999893
0.999594
0.93003
0.020927
2.27115e-05
2.19463e-06
2.14978e-06
2.11575e-06
2.03968e-06
2.02761e-06
1.96907e-06
1.94503e-06
1.8909e-06
1.86481e-06
1.82091e-06
1.78353e-06
1.74412e-06
1.70818e-06
1.66865e-06
1.63297e-06
1.5955e-06
1.55556e-06
1.52049e-06
1.48341e-06
1.44438e-06
1.40803e-06
1.36967e-06
1.32863e-06
1.29064e-06
1.25122e-06
1.20973e-06
1.16914e-06
1.12196e-06
1.05536e-06
9.56452e-07
8.30966e-07
7.65509e-07
7.70205e-07
7.70608e-07
0.99999
0.99999
0.99999
0.99999
0.99999
0.99999
0.99999
0.99999
0.99999
0.99999
0.99999
0.99999
0.99999
0.99999
0.99999
0.99999
0.99999
0.99999
0.99999
0.99999
0.99999
0.99999
0.99999
0.99999
0.99999
0.99999
0.99999
0.99999
0.99999
0.99999
0.99999
0.99999
0.99999
0.99999
0.99999
0.99999
0.99999
0.99999
0.99999
0.99999
0.99999
0.99999
0.99999
0.99999
0.99999
0.99999
0.99999
0.99999
0.99999
0.99999
0.99999
0.999989
0.999985
0.999984
0.99998
0.99997
0.999942
0.999889
0.999734
0.901429
0.0156515
3.81385e-06
2.49404e-06
2.21199e-06
2.17738e-06
2.0739e-06
2.05824e-06
1.99949e-06
1.96807e-06
1.907e-06
1.87914e-06
1.82901e-06
1.7958e-06
1.75468e-06
1.71588e-06
1.67494e-06
1.63831e-06
1.60078e-06
1.56028e-06
1.52454e-06
1.48642e-06
1.44647e-06
1.41004e-06
1.37093e-06
1.33003e-06
1.29201e-06
1.25261e-06
1.21121e-06
1.17063e-06
1.1243e-06
1.05919e-06
9.60961e-07
8.34706e-07
7.64945e-07
7.70039e-07
7.70146e-07
0.99999
0.99999
0.99999
0.99999
0.99999
0.99999
0.99999
0.99999
0.99999
0.99999
0.99999
0.99999
0.99999
0.99999
0.99999
0.99999
0.99999
0.99999
0.99999
0.99999
0.99999
0.99999
0.99999
0.99999
0.99999
0.99999
0.99999
0.99999
0.99999
0.99999
0.99999
0.99999
0.99999
0.99999
0.99999
0.99999
0.99999
0.99999
0.99999
0.99999
0.99999
0.99999
0.99999
0.99999
0.99999
0.99999
0.99999
0.99999
0.99999
0.99999
0.99999
0.999985
0.999979
0.999974
0.999958
0.999927
0.999894
0.999869
0.999762
0.848387
0.0149551
0.000132817
8.93022e-05
5.15496e-05
3.3849e-05
2.03642e-05
1.2579e-05
7.04263e-06
4.35895e-06
2.84596e-06
2.26155e-06
1.99606e-06
1.90296e-06
1.84542e-06
1.78828e-06
1.74098e-06
1.69565e-06
1.65441e-06
1.6147e-06
1.56271e-06
1.5144e-06
1.45428e-06
1.40678e-06
1.36886e-06
1.33008e-06
1.29099e-06
1.255e-06
1.21439e-06
1.16952e-06
1.12214e-06
1.06071e-06
9.6788e-07
8.44097e-07
7.65109e-07
7.69976e-07
7.703e-07
0.99999
0.99999
0.99999
0.99999
0.99999
0.99999
0.99999
0.99999
0.99999
0.99999
0.99999
0.99999
0.99999
0.99999
0.99999
0.99999
0.99999
0.99999
0.99999
0.99999
0.99999
0.99999
0.99999
0.99999
0.99999
0.99999
0.99999
0.99999
0.99999
0.99999
0.99999
0.99999
0.99999
0.99999
0.99999
0.99999
0.99999
0.99999
0.99999
0.99999
0.99999
0.99999
0.99999
0.99999
0.99999
0.99999
0.99999
0.99999
0.99999
0.99999
0.999989
0.999982
0.999971
0.999953
0.999922
0.999887
0.999865
0.999853
0.99981
0.729181
0.0140952
0.00343146
0.00298251
0.00245666
0.00208395
0.00169509
0.00135933
0.001053
0.000799013
0.000583414
0.000421224
0.000297436
0.000209953
0.000148948
0.000106835
7.61081e-05
5.3703e-05
3.64437e-05
2.40898e-05
1.48414e-05
8.90858e-06
5.08677e-06
3.07703e-06
2.05638e-06
1.6289e-06
1.42846e-06
1.33331e-06
1.22013e-06
1.12634e-06
1.02941e-06
9.60111e-07
9.05635e-07
8.35586e-07
7.66659e-07
7.69202e-07
7.72566e-07
0.99999
0.99999
0.99999
0.99999
0.99999
0.99999
0.99999
0.99999
0.99999
0.99999
0.99999
0.99999
0.99999
0.99999
0.99999
0.99999
0.99999
0.99999
0.99999
0.99999
0.99999
0.99999
0.99999
0.99999
0.99999
0.99999
0.99999
0.99999
0.99999
0.99999
0.99999
0.99999
0.99999
0.99999
0.99999
0.99999
0.99999
0.99999
0.99999
0.99999
0.99999
0.99999
0.99999
0.99999
0.99999
0.99999
0.99999
0.99999
0.999989
0.999989
0.999987
0.99998
0.999967
0.999945
0.999914
0.999891
0.999879
0.999884
0.999512
0.559473
0.0216952
0.0175058
0.0176806
0.0173032
0.0168505
0.0160689
0.0152134
0.0142571
0.01321
0.0120919
0.0109627
0.00979727
0.0086713
0.00757978
0.00658413
0.00566675
0.00484326
0.0040847
0.00340324
0.00278135
0.00222794
0.00172933
0.00129988
0.000934208
0.00064267
0.000416159
0.000254397
0.000143752
7.33489e-05
3.38489e-05
1.37582e-05
5.22856e-06
2.45782e-06
1.43369e-06
9.42668e-07
7.94592e-07
0.99999
0.99999
0.99999
0.99999
0.99999
0.99999
0.99999
0.99999
0.99999
0.99999
0.99999
0.99999
0.99999
0.99999
0.99999
0.99999
0.99999
0.99999
0.99999
0.99999
0.99999
0.99999
0.99999
0.99999
0.99999
0.99999
0.99999
0.99999
0.99999
0.99999
0.99999
0.99999
0.99999
0.99999
0.99999
0.99999
0.99999
0.99999
0.99999
0.99999
0.99999
0.99999
0.99999
0.99999
0.99999
0.99999
0.999989
0.999989
0.999988
0.999987
0.999985
0.999981
0.999972
0.999958
0.999933
0.999913
0.999901
0.9999
0.997443
0.581346
0.0356521
0.0293874
0.0313954
0.0326062
0.0335765
0.0342446
0.0346927
0.0350814
0.035367
0.0356085
0.0358004
0.0360168
0.0361235
0.0361733
0.0360092
0.035763
0.0353392
0.0348051
0.0340475
0.0331078
0.0319377
0.0305839
0.0290159
0.0272815
0.0253244
0.0231539
0.0207449
0.0181591
0.0154044
0.0125507
0.00963616
0.00676239
0.0041063
0.00193548
0.000792607
0.000925995
0.999991
0.99999
0.99999
0.99999
0.99999
0.99999
0.99999
0.99999
0.99999
0.99999
0.99999
0.99999
0.99999
0.99999
0.99999
0.99999
0.99999
0.99999
0.99999
0.99999
0.99999
0.99999
0.99999
0.99999
0.99999
0.99999
0.99999
0.99999
0.99999
0.99999
0.99999
0.99999
0.99999
0.99999
0.99999
0.99999
0.99999
0.99999
0.99999
0.99999
0.99999
0.99999
0.99999
0.99999
0.99999
0.999989
0.999988
0.999986
0.999985
0.999984
0.999982
0.999978
0.999972
0.999967
0.999952
0.999936
0.999925
0.999914
0.994983
0.688285
0.031003
0.0209484
0.0224535
0.0236788
0.0251678
0.0269559
0.0291466
0.0315147
0.0343125
0.0371333
0.0399909
0.0428359
0.0456789
0.0485251
0.051527
0.0546165
0.0578492
0.0612892
0.064915
0.0687416
0.0727416
0.0769509
0.0813951
0.0860861
0.091092
0.0964783
0.102304
0.108577
0.115363
0.12279
0.131114
0.140767
0.15294
0.171656
0.215602
0.405441
0.999991
0.99999
0.99999
0.999991
0.99999
0.99999
0.99999
0.99999
0.99999
0.99999
0.99999
0.99999
0.99999
0.99999
0.99999
0.99999
0.99999
0.99999
0.99999
0.99999
0.99999
0.99999
0.99999
0.99999
0.99999
0.99999
0.99999
0.99999
0.99999
0.99999
0.99999
0.99999
0.99999
0.99999
0.99999
0.99999
0.99999
0.99999
0.99999
0.99999
0.99999
0.99999
0.99999
0.99999
0.999989
0.999987
0.999985
0.999983
0.999981
0.999979
0.999977
0.999976
0.999972
0.999964
0.999942
0.999925
0.999917
0.999907
0.99949
0.83245
0.0130408
0.00245287
0.00236899
0.00216737
0.00225108
0.00236004
0.00248946
0.00265071
0.00278197
0.00293609
0.00307198
0.00316501
0.00325499
0.00332662
0.00344095
0.0035449
0.00363287
0.00369653
0.00374803
0.00379989
0.00386489
0.00394678
0.00403467
0.0041055
0.00414318
0.00414454
0.00410867
0.00401171
0.0038306
0.00355878
0.00313549
0.0026186
0.00197781
0.00133003
0.000931349
0.00044712
0.999991
0.999991
0.999991
0.999991
0.999991
0.99999
0.99999
0.99999
0.99999
0.99999
0.99999
0.99999
0.99999
0.99999
0.99999
0.99999
0.99999
0.99999
0.99999
0.99999
0.99999
0.99999
0.99999
0.99999
0.99999
0.99999
0.99999
0.99999
0.99999
0.99999
0.99999
0.99999
0.99999
0.99999
0.99999
0.99999
0.99999
0.99999
0.99999
0.99999
0.99999
0.99999
0.99999
0.99999
0.999989
0.999986
0.999984
0.999984
0.999985
0.999985
0.999984
0.999982
0.999978
0.999967
0.999938
0.999927
0.999925
0.999912
0.999888
0.900783
0.0130914
0.000134278
0.000146749
0.0001329
0.000129114
0.000121039
0.000119849
0.000116169
0.000114628
0.000110227
0.000107611
0.00010295
9.8936e-05
9.43748e-05
8.9414e-05
8.46712e-05
7.90508e-05
7.33145e-05
6.77697e-05
6.23202e-05
5.69285e-05
5.16722e-05
4.66129e-05
4.14587e-05
3.60339e-05
3.08536e-05
2.5514e-05
2.04392e-05
1.58172e-05
1.16979e-05
8.28222e-06
5.55895e-06
3.45094e-06
2.04938e-06
1.17968e-06
8.41575e-07
0.999992
0.999991
0.999991
0.999991
0.999991
0.999991
0.99999
0.99999
0.99999
0.99999
0.99999
0.99999
0.99999
0.99999
0.99999
0.99999
0.99999
0.99999
0.99999
0.99999
0.99999
0.99999
0.99999
0.99999
0.99999
0.99999
0.99999
0.99999
0.99999
0.99999
0.99999
0.99999
0.99999
0.99999
0.99999
0.99999
0.99999
0.99999
0.99999
0.99999
0.99999
0.99999
0.99999
0.99999
0.99999
0.999988
0.999985
0.999985
0.999985
0.999987
0.999988
0.999988
0.999988
0.999985
0.999967
0.99995
0.999942
0.999917
0.999877
0.940865
0.0223163
4.6963e-06
5.69607e-06
4.93482e-06
4.68887e-06
4.4647e-06
4.23106e-06
3.99558e-06
3.84826e-06
3.5715e-06
3.42113e-06
3.18802e-06
3.0197e-06
2.83203e-06
2.65076e-06
2.48904e-06
2.31423e-06
2.15411e-06
2.01227e-06
1.87568e-06
1.75747e-06
1.655e-06
1.55738e-06
1.47494e-06
1.40477e-06
1.33684e-06
1.28275e-06
1.23311e-06
1.18119e-06
1.12368e-06
1.04362e-06
9.34581e-07
8.15841e-07
7.69206e-07
7.70104e-07
7.7412e-07
0.999992
0.999992
0.999992
0.999992
0.999991
0.999991
0.999991
0.99999
0.99999
0.99999
0.99999
0.99999
0.99999
0.99999
0.99999
0.99999
0.99999
0.99999
0.99999
0.99999
0.99999
0.99999
0.99999
0.99999
0.99999
0.99999
0.99999
0.99999
0.99999
0.99999
0.99999
0.99999
0.99999
0.99999
0.99999
0.99999
0.99999
0.99999
0.99999
0.99999
0.99999
0.99999
0.99999
0.99999
0.99999
0.999989
0.999988
0.999988
0.999988
0.999988
0.999989
0.999988
0.999987
0.999982
0.999977
0.999965
0.999953
0.999926
0.99983
0.958062
0.0299588
2.57939e-06
2.2412e-06
2.13449e-06
2.10245e-06
2.04071e-06
2.01921e-06
1.9661e-06
1.94458e-06
1.89112e-06
1.86205e-06
1.81254e-06
1.77906e-06
1.73593e-06
1.70014e-06
1.66223e-06
1.62275e-06
1.58939e-06
1.55297e-06
1.51445e-06
1.47886e-06
1.44068e-06
1.40029e-06
1.36383e-06
1.32587e-06
1.28635e-06
1.25058e-06
1.21281e-06
1.16933e-06
1.11722e-06
1.04017e-06
9.30358e-07
8.11531e-07
7.65442e-07
7.6973e-07
7.71239e-07
0.999993
0.999993
0.999993
0.999992
0.999992
0.999991
0.999991
0.99999
0.99999
0.99999
0.99999
0.99999
0.99999
0.99999
0.99999
0.99999
0.99999
0.99999
0.99999
0.99999
0.99999
0.99999
0.99999
0.99999
0.99999
0.99999
0.99999
0.99999
0.99999
0.99999
0.99999
0.99999
0.99999
0.99999
0.99999
0.99999
0.99999
0.99999
0.99999
0.99999
0.99999
0.99999
0.99999
0.99999
0.99999
0.99999
0.999989
0.999989
0.999989
0.999989
0.999989
0.999988
0.999985
0.999978
0.999972
0.999967
0.99996
0.999938
0.999782
0.965543
0.0474883
6.4937e-05
2.1772e-06
2.11136e-06
2.07711e-06
2.01721e-06
2.00092e-06
1.94566e-06
1.92199e-06
1.87043e-06
1.84455e-06
1.79862e-06
1.76848e-06
1.72814e-06
1.69171e-06
1.65406e-06
1.6212e-06
1.58645e-06
1.54881e-06
1.5154e-06
1.47847e-06
1.43832e-06
1.40214e-06
1.36378e-06
1.32384e-06
1.28815e-06
1.25058e-06
1.21111e-06
1.17096e-06
1.11751e-06
1.03887e-06
9.28844e-07
8.10366e-07
7.64626e-07
7.69542e-07
7.70566e-07
0.999994
0.999993
0.999993
0.999993
0.999992
0.999992
0.999991
0.99999
0.99999
0.99999
0.99999
0.99999
0.99999
0.99999
0.99999
0.99999
0.99999
0.99999
0.99999
0.99999
0.99999
0.99999
0.99999
0.99999
0.99999
0.99999
0.99999
0.99999
0.99999
0.99999
0.99999
0.99999
0.99999
0.99999
0.99999
0.99999
0.99999
0.99999
0.99999
0.99999
0.99999
0.99999
0.99999
0.99999
0.99999
0.99999
0.99999
0.999989
0.999989
0.999989
0.999989
0.999988
0.999982
0.999976
0.99997
0.999965
0.999961
0.999938
0.999767
0.958677
0.0441278
7.10403e-05
2.23642e-06
2.12432e-06
2.07966e-06
2.01642e-06
2.00017e-06
1.9416e-06
1.91878e-06
1.8661e-06
1.83841e-06
1.7924e-06
1.76267e-06
1.72312e-06
1.68759e-06
1.65107e-06
1.61832e-06
1.58379e-06
1.54722e-06
1.51503e-06
1.4785e-06
1.43885e-06
1.40283e-06
1.36417e-06
1.32422e-06
1.28844e-06
1.25038e-06
1.21057e-06
1.17075e-06
1.11793e-06
1.03983e-06
9.30012e-07
8.10764e-07
7.6456e-07
7.69931e-07
7.7061e-07
0.999995
0.999994
0.999994
0.999993
0.999992
0.999992
0.999991
0.999991
0.99999
0.99999
0.99999
0.99999
0.99999
0.99999
0.99999
0.99999
0.99999
0.99999
0.99999
0.99999
0.99999
0.99999
0.99999
0.99999
0.99999
0.99999
0.99999
0.99999
0.99999
0.99999
0.99999
0.99999
0.99999
0.99999
0.99999
0.99999
0.99999
0.99999
0.99999
0.99999
0.99999
0.99999
0.99999
0.99999
0.99999
0.99999
0.99999
0.99999
0.999989
0.999989
0.999989
0.999988
0.999985
0.99998
0.999969
0.999959
0.999956
0.999941
0.99978
0.949122
0.0433385
0.000150983
2.30575e-06
2.10159e-06
2.06776e-06
2.00428e-06
1.98864e-06
1.9327e-06
1.91032e-06
1.86055e-06
1.83505e-06
1.78897e-06
1.75783e-06
1.71717e-06
1.68466e-06
1.64914e-06
1.61163e-06
1.57814e-06
1.54349e-06
1.511e-06
1.47618e-06
1.43814e-06
1.40189e-06
1.36323e-06
1.32304e-06
1.28743e-06
1.24966e-06
1.2103e-06
1.17136e-06
1.11875e-06
1.03733e-06
9.25512e-07
8.07789e-07
7.64035e-07
7.7033e-07
7.70655e-07
0.999996
0.999995
0.999994
0.999993
0.999992
0.999992
0.999991
0.99999
0.99999
0.99999
0.99999
0.99999
0.99999
0.99999
0.99999
0.99999
0.99999
0.99999
0.99999
0.99999
0.99999
0.99999
0.99999
0.99999
0.99999
0.99999
0.99999
0.99999
0.99999
0.99999
0.99999
0.99999
0.99999
0.99999
0.99999
0.99999
0.99999
0.99999
0.99999
0.99999
0.99999
0.99999
0.99999
0.99999
0.99999
0.99999
0.99999
0.99999
0.99999
0.99999
0.99999
0.99999
0.999989
0.999984
0.99997
0.999959
0.999954
0.99995
0.999751
0.961881
0.0660974
0.000676112
3.26168e-06
2.09722e-06
2.06857e-06
2.00277e-06
1.98654e-06
1.92961e-06
1.90711e-06
1.85684e-06
1.83025e-06
1.78584e-06
1.75586e-06
1.71627e-06
1.68226e-06
1.64638e-06
1.61277e-06
1.57745e-06
1.54085e-06
1.50929e-06
1.47627e-06
1.44095e-06
1.40707e-06
1.36892e-06
1.32945e-06
1.29347e-06
1.25548e-06
1.21682e-06
1.17806e-06
1.12474e-06
1.04169e-06
9.29194e-07
8.10571e-07
7.63532e-07
7.7068e-07
7.70719e-07
0.99999
0.99999
0.99999
0.99999