/*--------------------------------*- C++ -*----------------------------------*\
| =========                 |                                                 |
| \\      /  F ield         | OpenFOAM: The Open Source CFD Toolbox           |
|  \\    /   O peration     | Version:  2.3.0                                 |
|   \\  /    A nd           | Web:      www.OpenFOAM.org                      |
|    \\/     M anipulation  |                                                 |
\*---------------------------------------------------------------------------*/
FoamFile
{
    version     2.0;
    format      ascii;
    class       volScalarField;
    location    "5";
    object      alpha.air;
}
// * * * * * * * * * * * * * * * * * * * * * * * * * * * * * * * * * * * * * //

dimensions      [0 0 0 0 0 0 0];

internalField   nonuniform List<scalar> 
6144
(
0.99999
0.99999
0.99999
0.99999
0.99999
0.99999
0.99999
0.99999
0.99999
0.99999
0.99999
0.99999
0.99999
0.99999
0.99999
0.99999
0.99999
0.99999
0.99999
0.99999
0.99999
0.99999
0.99999
0.99999
0.99999
0.99999
0.99999
0.99999
0.99999
0.99999
0.99999
0.99999
0.99999
0.99999
0.99999
0.99999
0.99999
0.99999
0.99999
0.99999
0.99999
0.99999
0.99999
0.99999
0.99999
0.99999
0.99999
0.99999
0.99999
0.99999
0.99999
0.99999
0.99999
0.999987
0.999984
0.999975
0.999969
0.999963
0.998485
0.940359
0.036597
0.00025689
1.04375e-06
7.91238e-07
7.96797e-07
7.991e-07
7.99889e-07
8.01792e-07
8.0554e-07
8.06233e-07
8.06238e-07
8.06466e-07
8.07336e-07
8.08498e-07
8.09663e-07
8.1105e-07
8.12784e-07
8.13575e-07
8.15128e-07
8.20126e-07
8.22195e-07
8.29865e-07
8.49562e-07
8.65496e-07
8.7139e-07
8.7229e-07
8.72232e-07
8.71296e-07
8.64969e-07
8.39062e-07
7.68443e-07
6.36362e-07
4.70983e-07
4.10784e-07
4.1084e-07
4.10849e-07
0.99999
0.99999
0.99999
0.99999
0.99999
0.99999
0.99999
0.99999
0.99999
0.99999
0.99999
0.99999
0.99999
0.99999
0.99999
0.99999
0.99999
0.99999
0.99999
0.99999
0.99999
0.99999
0.99999
0.99999
0.99999
0.99999
0.99999
0.99999
0.99999
0.99999
0.99999
0.99999
0.99999
0.99999
0.99999
0.99999
0.99999
0.99999
0.99999
0.99999
0.99999
0.99999
0.99999
0.99999
0.99999
0.99999
0.99999
0.99999
0.99999
0.99999
0.99999
0.999989
0.99998
0.999961
0.999959
0.999947
0.999952
0.999947
0.999367
0.946898
0.0226558
6.54423e-05
7.90217e-07
7.90538e-07
7.90154e-07
7.90155e-07
7.90157e-07
7.91819e-07
7.93261e-07
7.94069e-07
7.97259e-07
8.0103e-07
8.07522e-07
8.09072e-07
8.06204e-07
8.0404e-07
8.04047e-07
8.04066e-07
8.04299e-07
8.12659e-07
8.24477e-07
8.38792e-07
8.59254e-07
8.66532e-07
8.66477e-07
8.65869e-07
8.65968e-07
8.6518e-07
8.59444e-07
8.35543e-07
7.68369e-07
6.3796e-07
4.69678e-07
4.10789e-07
4.10798e-07
4.10853e-07
0.99999
0.99999
0.99999
0.99999
0.99999
0.99999
0.99999
0.99999
0.99999
0.99999
0.99999
0.99999
0.99999
0.99999
0.99999
0.99999
0.99999
0.99999
0.99999
0.99999
0.99999
0.99999
0.99999
0.99999
0.99999
0.99999
0.99999
0.99999
0.99999
0.99999
0.99999
0.99999
0.99999
0.99999
0.99999
0.99999
0.99999
0.99999
0.99999
0.99999
0.99999
0.99999
0.99999
0.99999
0.99999
0.99999
0.99999
0.99999
0.99999
0.99999
0.999989
0.999974
0.999943
0.999919
0.999924
0.999912
0.999927
0.99992
0.999556
0.921886
0.0207082
3.27974e-05
7.90218e-07
8.73892e-07
7.90152e-07
7.90153e-07
7.90155e-07
8.22037e-07
8.3368e-07
8.31034e-07
8.42653e-07
8.59482e-07
8.57839e-07
8.59617e-07
8.49001e-07
8.38597e-07
8.28505e-07
8.16966e-07
8.15158e-07
8.19592e-07
8.32287e-07
8.51171e-07
8.63115e-07
8.65566e-07
8.66255e-07
8.66724e-07
8.66901e-07
8.65927e-07
8.59645e-07
8.35584e-07
7.69392e-07
6.40526e-07
4.72642e-07
4.10731e-07
4.10791e-07
4.108e-07
0.99999
0.99999
0.99999
0.99999
0.99999
0.99999
0.99999
0.99999
0.99999
0.99999
0.99999
0.99999
0.99999
0.99999
0.99999
0.99999
0.99999
0.99999
0.99999
0.99999
0.99999
0.99999
0.99999
0.99999
0.99999
0.99999
0.99999
0.99999
0.99999
0.99999
0.99999
0.99999
0.99999
0.99999
0.99999
0.99999
0.99999
0.99999
0.99999
0.99999
0.99999
0.99999
0.99999
0.99999
0.99999
0.99999
0.99999
0.99999
0.99999
0.999989
0.999976
0.999937
0.999905
0.999892
0.999897
0.999885
0.999894
0.999903
0.999426
0.887625
0.0374011
6.92284e-05
4.03452e-06
3.45717e-06
2.4704e-06
1.44966e-06
1.05311e-06
8.19563e-07
9.68312e-07
8.90089e-07
9.0191e-07
9.12987e-07
8.91388e-07
9.03418e-07
8.47356e-07
8.29122e-07
8.26169e-07
8.20108e-07
8.23474e-07
8.32179e-07
8.44777e-07
8.53808e-07
8.56891e-07
8.57713e-07
8.59759e-07
8.60821e-07
8.59902e-07
8.52518e-07
8.34404e-07
8.05767e-07
7.48987e-07
6.33234e-07
4.72321e-07
4.10725e-07
4.10734e-07
4.10793e-07
0.99999
0.99999
0.99999
0.99999
0.99999
0.99999
0.99999
0.99999
0.99999
0.99999
0.99999
0.99999
0.99999
0.99999
0.99999
0.99999
0.99999
0.99999
0.99999
0.99999
0.99999
0.99999
0.99999
0.99999
0.99999
0.99999
0.99999
0.99999
0.99999
0.99999
0.99999
0.99999
0.99999
0.99999
0.99999
0.99999
0.99999
0.99999
0.99999
0.99999
0.99999
0.99999
0.99999
0.99999
0.99999
0.99999
0.99999
0.99999
0.99999
0.999983
0.999942
0.999906
0.999888
0.999882
0.99988
0.999877
0.999898
0.999918
0.999681
0.854802
0.0446853
0.000204164
8.60486e-05
7.23087e-05
6.50616e-05
4.81275e-05
4.69641e-05
2.0457e-05
1.15569e-05
3.13008e-06
1.23218e-06
4.13112e-07
4.13112e-07
4.3197e-07
6.06546e-07
8.24252e-07
8.97577e-07
9.10428e-07
9.28188e-07
9.2274e-07
9.30809e-07
9.18624e-07
9.09191e-07
9.02759e-07
9.00535e-07
8.95227e-07
8.61121e-07
8.09262e-07
7.73635e-07
7.45901e-07
6.97734e-07
6.01504e-07
4.5648e-07
4.10681e-07
4.10747e-07
4.10747e-07
0.99999
0.99999
0.99999
0.99999
0.99999
0.99999
0.99999
0.99999
0.99999
0.99999
0.99999
0.99999
0.99999
0.99999
0.99999
0.99999
0.99999
0.99999
0.99999
0.99999
0.99999
0.99999
0.99999
0.99999
0.99999
0.99999
0.99999
0.99999
0.99999
0.99999
0.99999
0.99999
0.99999
0.99999
0.99999
0.99999
0.99999
0.99999
0.99999
0.99999
0.99999
0.99999
0.99999
0.99999
0.99999
0.99999
0.99999
0.99999
0.999988
0.999965
0.999918
0.999896
0.999887
0.999882
0.999877
0.999875
0.999889
0.999916
0.999952
0.831789
0.0348325
0.000443874
0.000356945
0.000382373
0.000313331
0.000284616
0.000305508
0.000196665
0.000172205
5.7628e-05
2.39227e-05
4.13112e-07
4.13112e-07
4.13112e-07
4.13112e-07
6.23073e-07
3.76691e-06
4.9905e-06
1.98401e-06
7.98071e-07
7.70365e-07
7.94406e-07
8.37843e-07
1.01686e-06
8.90278e-07
8.59049e-07
8.40103e-07
9.75411e-07
1.20428e-06
8.6831e-07
6.31402e-07
7.83271e-07
6.13793e-07
5.79306e-07
4.41826e-07
4.10816e-07
0.99999
0.99999
0.99999
0.99999
0.99999
0.99999
0.99999
0.99999
0.99999
0.99999
0.99999
0.99999
0.99999
0.99999
0.99999
0.99999
0.99999
0.99999
0.99999
0.99999
0.99999
0.99999
0.99999
0.99999
0.99999
0.99999
0.99999
0.99999
0.99999
0.99999
0.99999
0.99999
0.99999
0.99999
0.99999
0.99999
0.99999
0.99999
0.99999
0.99999
0.99999
0.99999
0.99999
0.99999
0.99999
0.99999
0.999989
0.999989
0.999985
0.999951
0.999916
0.999914
0.999916
0.999915
0.999902
0.999888
0.999865
0.999804
0.999594
0.892902
0.0479312
0.000580217
0.000373098
0.000478995
0.00042202
0.00047847
0.000492113
0.000415478
0.000467967
0.000227743
0.000232177
4.13112e-07
4.13112e-07
4.13112e-07
4.13112e-07
1.26738e-05
4.52568e-05
6.33431e-05
8.51329e-05
0.000110714
0.000135899
0.000159315
0.000158792
5.05766e-05
1.69631e-05
7.5419e-06
1.26783e-05
1.55467e-05
1.78645e-05
1.65363e-05
4.3398e-06
5.58171e-06
2.06812e-06
2.83883e-06
1.51408e-06
4.10817e-07
0.99999
0.99999
0.99999
0.99999
0.99999
0.99999
0.99999
0.99999
0.99999
0.99999
0.99999
0.99999
0.99999
0.99999
0.99999
0.99999
0.99999
0.99999
0.99999
0.99999
0.99999
0.99999
0.99999
0.99999
0.99999
0.99999
0.99999
0.99999
0.99999
0.99999
0.99999
0.99999
0.99999
0.99999
0.99999
0.99999
0.99999
0.99999
0.99999
0.99999
0.99999
0.99999
0.99999
0.99999
0.99999
0.999989
0.999988
0.999987
0.999985
0.999964
0.999937
0.999938
0.999941
0.999948
0.99994
0.999929
0.999917
0.999848
0.999528
0.927246
0.0398302
0.000379827
0.000446181
0.000546067
0.000573212
0.000635521
0.000683729
0.000722975
0.000643781
0.000528968
0.00053857
0.000436053
9.74621e-05
5.15919e-06
4.99735e-05
4.13111e-07
4.13111e-07
4.13111e-07
4.13111e-07
4.13111e-07
4.13111e-07
4.13111e-07
4.13107e-07
4.13107e-07
4.13107e-07
4.13107e-07
4.13107e-07
4.13107e-07
4.13107e-07
4.13107e-07
4.13107e-07
4.13107e-07
4.13107e-07
0.000223889
0.000371509
0.00015395
0.999991
0.999991
0.99999
0.99999
0.99999
0.99999
0.99999
0.99999
0.99999
0.99999
0.99999
0.99999
0.99999
0.99999
0.99999
0.99999
0.99999
0.99999
0.99999
0.99999
0.99999
0.99999
0.99999
0.99999
0.99999
0.99999
0.99999
0.99999
0.99999
0.99999
0.99999
0.99999
0.99999
0.99999
0.99999
0.99999
0.99999
0.99999
0.99999
0.99999
0.99999
0.99999
0.99999
0.99999
0.99999
0.999988
0.999984
0.999973
0.999972
0.999965
0.999945
0.999947
0.999951
0.999963
0.999964
0.999949
0.99995
0.999944
0.999885
0.952277
0.0336631
0.000145731
5.65316e-05
5.40987e-05
3.59569e-05
2.53704e-05
2.26452e-05
2.5185e-05
2.82976e-05
3.16636e-05
3.46764e-05
3.63544e-05
3.80199e-05
3.85763e-05
3.89733e-05
3.91907e-05
3.98112e-05
4.06891e-05
4.13855e-05
4.12339e-05
3.57526e-05
3.65691e-05
3.76211e-05
2.82195e-05
2.70746e-05
2.9722e-05
1.99686e-05
1.71499e-05
2.21222e-05
2.07928e-05
9.95635e-06
8.24312e-06
9.819e-06
5.14386e-06
1.89278e-06
8.33696e-07
0.999991
0.999991
0.99999
0.999991
0.99999
0.99999
0.99999
0.99999
0.99999
0.99999
0.99999
0.99999
0.99999
0.99999
0.99999
0.99999
0.99999
0.99999
0.99999
0.99999
0.99999
0.99999
0.99999
0.99999
0.99999
0.99999
0.99999
0.99999
0.99999
0.99999
0.99999
0.99999
0.99999
0.99999
0.99999
0.99999
0.99999
0.99999
0.99999
0.99999
0.99999
0.99999
0.99999
0.99999
0.999986
0.999975
0.999965
0.999958
0.999958
0.99996
0.99995
0.999953
0.999959
0.999971
0.999973
0.999967
0.999962
0.999946
0.999952
0.971162
0.0426627
0.000135368
2.75727e-06
1.81075e-06
1.40826e-06
1.31877e-06
1.37847e-06
1.4987e-06
1.67925e-06
1.91076e-06
2.13796e-06
2.33353e-06
2.46825e-06
2.55321e-06
2.6224e-06
2.64679e-06
2.38186e-06
2.04203e-06
1.50588e-06
1.05713e-06
9.63656e-07
1.05516e-06
8.22823e-07
4.50987e-07
4.46385e-07
4.52977e-07
4.48399e-07
4.4799e-07
4.48616e-07
4.41719e-07
5.13966e-07
6.20582e-07
5.7873e-07
4.075e-07
4.07526e-07
4.07691e-07
0.999992
0.999991
0.999991
0.999991
0.99999
0.99999
0.99999
0.99999
0.99999
0.99999
0.99999
0.99999
0.99999
0.99999
0.99999
0.99999
0.99999
0.99999
0.99999
0.99999
0.99999
0.99999
0.99999
0.99999
0.99999
0.99999
0.99999
0.99999
0.99999
0.99999
0.99999
0.99999
0.99999
0.99999
0.99999
0.99999
0.99999
0.99999
0.99999
0.99999
0.99999
0.99999
0.99999
0.999989
0.999982
0.999966
0.999957
0.999954
0.999953
0.999956
0.999955
0.999958
0.999966
0.999976
0.999976
0.999968
0.999964
0.999942
0.999927
0.983387
0.0570299
0.00025488
7.55928e-07
7.55914e-07
7.55936e-07
7.55957e-07
7.55978e-07
7.76532e-07
8.0204e-07
8.08221e-07
7.92953e-07
7.53574e-07
7.34441e-07
7.51699e-07
7.88355e-07
8.22033e-07
8.5281e-07
8.71928e-07
8.78068e-07
8.73931e-07
8.50839e-07
8.41745e-07
8.41364e-07
8.40405e-07
8.37511e-07
8.35161e-07
8.29943e-07
8.1199e-07
7.6718e-07
6.8828e-07
5.85421e-07
4.78301e-07
4.07495e-07
4.07272e-07
4.075e-07
4.07526e-07
0.999993
0.999993
0.999993
0.999993
0.999991
0.99999
0.99999
0.99999
0.99999
0.99999
0.99999
0.99999
0.99999
0.99999
0.99999
0.99999
0.99999
0.99999
0.99999
0.99999
0.99999
0.99999
0.99999
0.99999
0.99999
0.99999
0.99999
0.99999
0.99999
0.99999
0.99999
0.99999
0.99999
0.99999
0.99999
0.99999
0.99999
0.99999
0.99999
0.99999
0.99999
0.99999
0.99999
0.999989
0.999983
0.999968
0.999958
0.999956
0.999956
0.999957
0.999961
0.999967
0.999976
0.999978
0.999976
0.999962
0.999961
0.999939
0.999902
0.985142
0.0794109
0.000504494
9.86086e-07
7.55936e-07
7.59066e-07
7.85734e-07
7.84548e-07
7.76716e-07
7.74637e-07
7.75879e-07
7.75267e-07
7.74747e-07
7.74992e-07
7.7731e-07
7.8876e-07
8.01453e-07
8.11624e-07
8.3604e-07
8.51903e-07
8.55784e-07
8.57342e-07
8.57342e-07
8.56828e-07
8.56404e-07
8.56115e-07
8.55694e-07
8.52022e-07
8.36163e-07
7.9328e-07
7.13212e-07
6.05417e-07
4.92731e-07
4.11418e-07
4.07242e-07
4.07268e-07
4.07503e-07
0.999995
0.999996
0.999996
0.999995
0.999994
0.999992
0.999991
0.99999
0.99999
0.99999
0.99999
0.99999
0.99999
0.99999
0.99999
0.99999
0.99999
0.99999
0.99999
0.99999
0.99999
0.99999
0.99999
0.99999
0.99999
0.99999
0.99999
0.99999
0.99999
0.99999
0.99999
0.99999
0.99999
0.99999
0.99999
0.99999
0.99999
0.99999
0.99999
0.99999
0.99999
0.99999
0.99999
0.99999
0.999985
0.999975
0.999963
0.999958
0.999958
0.999961
0.999965
0.99997
0.999975
0.999975
0.999973
0.999969
0.999967
0.999945
0.999843
0.980639
0.1015
0.000967156
2.07023e-06
7.55957e-07
7.5602e-07
7.63036e-07
7.65095e-07
7.67998e-07
7.71233e-07
7.74116e-07
7.72938e-07
7.71849e-07
7.71448e-07
7.71017e-07
7.70529e-07
7.68413e-07
7.69433e-07
7.87352e-07
8.34144e-07
8.53577e-07
8.53577e-07
8.54485e-07
8.56205e-07
8.57828e-07
8.59147e-07
8.59711e-07
8.56747e-07
8.40478e-07
7.96405e-07
7.14249e-07
6.04126e-07
4.91604e-07
4.11312e-07
4.0709e-07
4.0725e-07
4.07268e-07
0.999997
0.999997
0.999997
0.999996
0.999995
0.999994
0.999993
0.999991
0.99999
0.99999
0.99999
0.99999
0.99999
0.99999
0.99999
0.99999
0.99999
0.99999
0.99999
0.99999
0.99999
0.99999
0.99999
0.99999
0.99999
0.99999
0.99999
0.99999
0.99999
0.99999
0.99999
0.99999
0.99999
0.99999
0.99999
0.99999
0.99999
0.99999
0.99999
0.99999
0.99999
0.99999
0.99999
0.99999
0.999989
0.999982
0.999971
0.999963
0.999961
0.999962
0.999965
0.999968
0.999971
0.999972
0.999972
0.99997
0.999954
0.999879
0.999615
0.97238
0.114398
0.00148093
4.04215e-06
7.55978e-07
7.55999e-07
7.56715e-07
7.63829e-07
7.66461e-07
7.66097e-07
7.68672e-07
7.69823e-07
7.71148e-07
7.71039e-07
7.69615e-07
7.69946e-07
7.70312e-07
7.68609e-07
7.67603e-07
7.79567e-07
8.30667e-07
8.58927e-07
8.55605e-07
8.54613e-07
8.54476e-07
8.5498e-07
8.54836e-07
8.5075e-07
8.32693e-07
7.8664e-07
7.036e-07
5.93841e-07
4.81688e-07
4.06816e-07
4.07074e-07
4.07097e-07
4.0726e-07
0.999997
0.999997
0.999997
0.999997
0.999996
0.999995
0.999994
0.999992
0.99999
0.99999
0.99999
0.99999
0.99999
0.99999
0.99999
0.99999
0.99999
0.99999
0.99999
0.99999
0.99999
0.99999
0.99999
0.99999
0.99999
0.99999
0.99999
0.99999
0.99999
0.99999
0.99999
0.99999
0.99999
0.99999
0.99999
0.99999
0.99999
0.99999
0.99999
0.99999
0.99999
0.99999
0.99999
0.99999
0.99999
0.999988
0.999981
0.999974
0.99997
0.999968
0.999968
0.99997
0.999972
0.999974
0.999974
0.999967
0.999897
0.999731
0.999364
0.970996
0.0816183
0.000461234
1.20541e-06
7.55994e-07
7.56015e-07
7.56036e-07
7.56939e-07
7.58728e-07
7.57482e-07
7.57456e-07
7.60247e-07
7.6697e-07
7.68367e-07
7.67488e-07
7.68131e-07
7.70352e-07
7.72286e-07
7.72232e-07
7.73619e-07
7.82928e-07
8.29757e-07
8.63716e-07
8.61947e-07
8.59442e-07
8.6003e-07
8.5979e-07
8.55552e-07
8.37288e-07
7.90315e-07
7.05615e-07
5.94502e-07
4.83117e-07
4.08195e-07
4.07076e-07
4.07244e-07
4.07268e-07
0.999998
0.999998
0.999998
0.999997
0.999997
0.999996
0.999994
0.999991
0.99999
0.99999
0.99999
0.99999
0.99999
0.99999
0.99999
0.99999
0.99999
0.99999
0.99999
0.99999
0.99999
0.99999
0.99999
0.99999
0.99999
0.99999
0.99999
0.99999
0.99999
0.99999
0.99999
0.99999
0.99999
0.99999
0.99999
0.99999
0.99999
0.99999
0.99999
0.99999
0.99999
0.99999
0.99999
0.99999
0.99999
0.99999
0.999989
0.999987
0.999984
0.999983
0.999982
0.999983
0.999982
0.999981
0.999979
0.999973
0.99995
0.999929
0.999484
0.970141
0.0727315
0.000183885
7.5612e-07
7.60409e-07
7.56036e-07
7.56056e-07
7.57706e-07
7.60454e-07
7.61942e-07
7.63283e-07
7.64323e-07
7.64261e-07
7.64944e-07
7.65764e-07
7.6757e-07
7.71469e-07
7.71436e-07
7.6834e-07
7.68142e-07
7.70085e-07
7.73837e-07
7.98697e-07
8.5592e-07
8.7565e-07
8.77561e-07
8.79178e-07
8.77526e-07
8.63251e-07
8.17701e-07
7.28202e-07
6.09247e-07
4.92385e-07
4.13809e-07
4.07231e-07
4.07268e-07
4.07492e-07
0.99999
0.99999
0.99999
0.99999
0.99999
0.99999
0.99999
0.99999
0.99999
0.99999
0.99999
0.99999
0.99999
0.99999
0.99999
0.99999
0.99999
0.99999
0.99999
0.99999
0.99999
0.99999
0.99999
0.99999
0.99999
0.99999
0.99999
0.99999
0.99999
0.99999
0.99999
0.99999
0.99999
0.99999
0.99999
0.99999
0.99999
0.99999
0.99999
0.99999
0.99999
0.99999
0.99999
0.99999
0.99999
0.99999
0.99999
0.99999
0.99999
0.99999
0.99999
0.99999
0.999989
0.999989
0.999988
0.999982
0.999974
0.999951
0.999187
0.947892
0.0309429
0.00011066
7.90217e-07
7.95986e-07
7.98458e-07
7.98002e-07
7.96801e-07
7.97391e-07
7.99203e-07
7.99392e-07
7.99339e-07
7.99346e-07
7.99347e-07
7.99347e-07
7.99734e-07
8.00637e-07
8.01729e-07
8.01932e-07
8.02414e-07
8.04899e-07
8.08391e-07
8.14055e-07
8.3259e-07
8.58979e-07
8.68302e-07
8.70312e-07
8.71074e-07
8.70436e-07
8.64102e-07
8.37743e-07
7.66621e-07
6.34655e-07
4.69508e-07
4.10786e-07
4.10794e-07
4.10852e-07
0.99999
0.99999
0.99999
0.99999
0.99999
0.99999
0.99999
0.99999
0.99999
0.99999
0.99999
0.99999
0.99999
0.99999
0.99999
0.99999
0.99999
0.99999
0.99999
0.99999
0.99999
0.99999
0.99999
0.99999
0.99999
0.99999
0.99999
0.99999
0.99999
0.99999
0.99999
0.99999
0.99999
0.99999
0.99999
0.99999
0.99999
0.99999
0.99999
0.99999
0.99999
0.99999
0.99999
0.99999
0.99999
0.99999
0.99999
0.99999
0.99999
0.99999
0.99999
0.999988
0.999979
0.999976
0.999975
0.999976
0.999976
0.999964
0.999615
0.909193
0.00651682
1.17793e-05
7.90217e-07
8.12673e-07
8.0828e-07
8.07904e-07
8.07487e-07
8.07288e-07
8.06575e-07
8.05243e-07
8.03936e-07
8.02753e-07
8.02385e-07
8.02404e-07
8.0273e-07
8.03728e-07
8.06182e-07
8.05777e-07
8.05579e-07
8.07229e-07
8.08989e-07
8.14009e-07
8.33401e-07
8.56376e-07
8.61639e-07
8.62237e-07
8.62192e-07
8.61219e-07
8.55358e-07
8.31244e-07
7.63087e-07
6.31362e-07
4.64095e-07
4.10734e-07
4.10845e-07
4.10803e-07
0.99999
0.99999
0.99999
0.99999
0.99999
0.99999
0.99999
0.99999
0.99999
0.99999
0.99999
0.99999
0.99999
0.99999
0.99999
0.99999
0.99999
0.99999
0.99999
0.99999
0.99999
0.99999
0.99999
0.99999
0.99999
0.99999
0.99999
0.99999
0.99999
0.99999
0.99999
0.99999
0.99999
0.99999
0.99999
0.99999
0.99999
0.99999
0.99999
0.99999
0.99999
0.99999
0.99999
0.99999
0.99999
0.99999
0.99999
0.99999
0.99999
0.99999
0.999989
0.999969
0.999959
0.999955
0.999957
0.999961
0.999966
0.999934
0.999693
0.832682
0.00176902
1.75761e-06
1.06678e-06
8.45957e-07
9.28634e-07
9.10319e-07
8.91112e-07
8.69263e-07
8.6816e-07
8.49689e-07
8.64225e-07
8.59745e-07
8.56152e-07
8.39134e-07
8.2516e-07
8.19789e-07
8.15586e-07
8.12399e-07
8.12702e-07
8.13468e-07
8.13788e-07
8.19682e-07
8.39161e-07
8.57357e-07
8.62948e-07
8.64183e-07
8.64802e-07
8.63921e-07
8.58392e-07
8.34787e-07
7.66014e-07
6.32416e-07
4.64635e-07
4.10781e-07
4.10734e-07
4.10803e-07
0.99999
0.99999
0.99999
0.99999
0.99999
0.99999
0.99999
0.99999
0.99999
0.99999
0.99999
0.99999
0.99999
0.99999
0.99999
0.99999
0.99999
0.99999
0.99999
0.99999
0.99999
0.99999
0.99999
0.99999
0.99999
0.99999
0.99999
0.99999
0.99999
0.99999
0.99999
0.99999
0.99999
0.99999
0.99999
0.99999
0.99999
0.99999
0.99999
0.99999
0.99999
0.99999
0.99999
0.99999
0.99999
0.99999
0.99999
0.99999
0.99999
0.999989
0.999981
0.999939
0.999939
0.999925
0.999899
0.999875
0.999858
0.99982
0.999628
0.720818
0.00222593
0.000224558
0.00016162
0.000106122
7.57263e-05
5.02034e-05
3.17573e-05
1.83689e-05
9.67256e-06
4.39584e-06
1.99185e-06
1.06978e-06
1.00016e-06
1.07551e-06
8.07377e-07
8.71368e-07
8.46793e-07
8.42393e-07
8.35875e-07
8.40152e-07
8.36642e-07
8.39695e-07
8.53489e-07
8.61352e-07
8.63474e-07
8.65245e-07
8.67882e-07
8.67876e-07
8.6018e-07
8.31809e-07
7.64098e-07
6.3899e-07
4.74853e-07
4.10676e-07
4.10789e-07
4.10743e-07
0.99999
0.99999
0.99999
0.99999
0.99999
0.99999
0.99999
0.99999
0.99999
0.99999
0.99999
0.99999
0.99999
0.99999
0.99999
0.99999
0.99999
0.99999
0.99999
0.99999
0.99999
0.99999
0.99999
0.99999
0.99999
0.99999
0.99999
0.99999
0.99999
0.99999
0.99999
0.99999
0.99999
0.99999
0.99999
0.99999
0.99999
0.99999
0.99999
0.99999
0.99999
0.99999
0.99999
0.99999
0.99999
0.99999
0.99999
0.999989
0.999988
0.999986
0.999965
0.999922
0.999904
0.999883
0.999861
0.999849
0.999844
0.999842
0.999872
0.559529
0.00849195
0.00515277
0.00456136
0.00385457
0.00339661
0.00284346
0.00230869
0.00179116
0.00128866
0.00086372
0.000530562
0.000306594
0.000167599
8.491e-05
3.69024e-05
1.34903e-05
3.90939e-06
1.1489e-06
9.77607e-07
9.83653e-07
8.33996e-07
9.96828e-07
9.37903e-07
9.02069e-07
8.45392e-07
8.24269e-07
7.78617e-07
7.15164e-07
6.86352e-07
6.59294e-07
6.29995e-07
5.80112e-07
4.6188e-07
4.10735e-07
4.1068e-07
4.10747e-07
0.999991
0.999991
0.999991
0.999991
0.99999
0.99999
0.99999
0.99999
0.99999
0.99999
0.99999
0.99999
0.99999
0.99999
0.99999
0.99999
0.99999
0.99999
0.99999
0.99999
0.99999
0.99999
0.99999
0.99999
0.99999
0.99999
0.99999
0.99999
0.99999
0.99999
0.99999
0.99999
0.99999
0.99999
0.99999
0.99999
0.99999
0.99999
0.99999
0.99999
0.99999
0.99999
0.99999
0.99999
0.99999
0.99999
0.999988
0.999987
0.999983
0.99998
0.999952
0.99991
0.99988
0.999866
0.99986
0.999856
0.999861
0.99987
0.999943
0.451428
0.0255151
0.0228483
0.0225092
0.0222525
0.0223295
0.0211914
0.0200341
0.0185719
0.0166314
0.0144102
0.011962
0.00964992
0.00750324
0.00569438
0.00415941
0.00287435
0.00186706
0.00109968
0.000606047
0.000299008
0.000128089
5.69485e-05
2.49673e-05
1.73089e-05
1.91651e-06
1.2972e-06
1.30764e-06
1.05109e-06
1.21567e-06
9.58555e-07
4.108e-07
4.10507e-07
4.108e-07
4.10591e-07
4.10796e-07
4.141e-07
0.999991
0.999991
0.999991
0.999991
0.999991
0.99999
0.99999
0.99999
0.99999
0.99999
0.99999
0.99999
0.99999
0.99999
0.99999
0.99999
0.99999
0.99999
0.99999
0.99999
0.99999
0.99999
0.99999
0.99999
0.99999
0.99999
0.99999
0.99999
0.99999
0.99999
0.99999
0.99999
0.99999
0.99999
0.99999
0.99999
0.99999
0.99999
0.99999
0.99999
0.99999
0.99999
0.99999
0.99999
0.999989
0.999988
0.999985
0.999983
0.999978
0.999973
0.999952
0.999916
0.999879
0.999867
0.999869
0.999892
0.999914
0.999922
0.999944
0.584034
0.0406695
0.0324924
0.0324524
0.0338943
0.0358271
0.0367967
0.0377416
0.0382528
0.038401
0.0384325
0.0386444
0.0387283
0.0375928
0.0363478
0.0347277
0.0327845
0.0308797
0.0289959
0.0268794
0.0245372
0.0220899
0.0195204
0.0171896
0.0150766
0.0129072
0.0109952
0.00919918
0.0074818
0.00571813
0.00403205
0.00238721
0.00117737
0.000741012
0.000735509
0.000691083
0.000256065
0.999992
0.999991
0.999992
0.999992
0.999992
0.999991
0.99999
0.99999
0.99999
0.99999
0.99999
0.99999
0.99999
0.99999
0.99999
0.99999
0.99999
0.99999
0.99999
0.99999
0.99999
0.99999
0.99999
0.99999
0.99999
0.99999
0.99999
0.99999
0.99999
0.99999
0.99999
0.99999
0.99999
0.99999
0.99999
0.99999
0.99999
0.99999
0.99999
0.99999
0.99999
0.99999
0.99999
0.99999
0.999989
0.999986
0.999981
0.999977
0.999973
0.99997
0.99996
0.999926
0.999893
0.999915
0.999938
0.999942
0.99995
0.99995
0.999939
0.835078
0.041385
0.0171846
0.0185403
0.0201042
0.0224279
0.0243425
0.0268237
0.0299611
0.0342286
0.0386023
0.0424723
0.0455469
0.0485863
0.0517895
0.0551018
0.0592423
0.0645988
0.070112
0.0748884
0.0792023
0.0834508
0.0876004
0.091947
0.0963505
0.101217
0.10684
0.113094
0.119867
0.126909
0.134381
0.14267
0.151867
0.163117
0.180466
0.223325
0.418818
0.999992
0.999992
0.999992
0.999992
0.999992
0.999992
0.999991
0.99999
0.99999
0.99999
0.99999
0.99999
0.99999
0.99999
0.99999
0.99999
0.99999
0.99999
0.99999
0.99999
0.99999
0.99999
0.99999
0.99999
0.99999
0.99999
0.99999
0.99999
0.99999
0.99999
0.99999
0.99999
0.99999
0.99999
0.99999
0.99999
0.99999
0.99999
0.99999
0.99999
0.99999
0.99999
0.99999
0.99999
0.999989
0.999984
0.999978
0.999973
0.999972
0.999971
0.999967
0.999958
0.999931
0.999932
0.999937
0.999929
0.999949
0.999949
0.999952
0.911339
0.0231679
0.0015179
0.00153185
0.00104429
0.000909112
0.00067898
0.000768702
0.000841555
0.000978537
0.00114974
0.00136506
0.00162863
0.00195786
0.00234846
0.00281186
0.00325133
0.00368547
0.00407794
0.0043576
0.00448365
0.00455349
0.004699
0.00489399
0.00515797
0.00544228
0.00559414
0.00562362
0.00548773
0.00500469
0.00445632
0.00378375
0.00305672
0.00208329
0.00104446
0.00047967
3.00117e-05
0.999992
0.999992
0.999993
0.999993
0.999993
0.999992
0.999991
0.99999
0.99999
0.99999
0.99999
0.99999
0.99999
0.99999
0.99999
0.99999
0.99999
0.99999
0.99999
0.99999
0.99999
0.99999
0.99999
0.99999
0.99999
0.99999
0.99999
0.99999
0.99999
0.99999
0.99999
0.99999
0.99999
0.99999
0.99999
0.99999
0.99999
0.99999
0.99999
0.99999
0.99999
0.99999
0.99999
0.99999
0.999989
0.999983
0.999976
0.999977
0.99998
0.999984
0.999985
0.999984
0.999981
0.99998
0.999975
0.99996
0.999951
0.999936
0.999952
0.935869
0.0132091
1.0371e-05
2.10471e-05
8.83749e-06
7.98926e-06
6.71971e-06
7.35415e-06
7.58211e-06
8.22887e-06
8.94487e-06
9.91973e-06
1.09374e-05
1.20595e-05
1.30587e-05
1.43195e-05
1.59093e-05
1.78811e-05
1.85295e-05
1.74916e-05
1.47317e-05
1.10015e-05
7.81967e-06
5.18191e-06
3.03079e-06
1.22499e-06
1.54033e-06
7.59991e-07
8.09708e-07
7.67108e-07
6.87834e-07
5.75461e-07
4.34064e-07
4.07604e-07
4.07441e-07
4.0766e-07
4.07643e-07
0.999992
0.999993
0.999993
0.999993
0.999994
0.999993
0.999993
0.999991
0.99999
0.99999
0.99999
0.99999
0.99999
0.99999
0.99999
0.99999
0.99999
0.99999
0.99999
0.99999
0.99999
0.99999
0.99999
0.99999
0.99999
0.99999
0.99999
0.99999
0.99999
0.99999
0.99999
0.99999
0.99999
0.99999
0.99999
0.99999
0.99999
0.99999
0.99999
0.99999
0.99999
0.99999
0.99999
0.99999
0.99999
0.999987
0.999981
0.999978
0.999979
0.999985
0.999989
0.999989
0.999987
0.999983
0.99998
0.999964
0.999957
0.99992
0.999936
0.967805
0.02333
7.58501e-07
9.94433e-07
7.5839e-07
7.55958e-07
8.89874e-07
7.97103e-07
7.41477e-07
7.35672e-07
7.29332e-07
7.29721e-07
7.2878e-07
7.29812e-07
7.28945e-07
7.29907e-07
7.73782e-07
8.09706e-07
8.36989e-07
8.62754e-07
8.72622e-07
8.62951e-07
8.54162e-07
8.43417e-07
8.2585e-07
8.22269e-07
8.117e-07
8.09268e-07
7.95302e-07
7.66262e-07
7.01262e-07
6.04695e-07
4.96493e-07
4.08866e-07
4.07478e-07
4.07457e-07
4.07659e-07
0.999993
0.999994
0.999994
0.999994
0.999994
0.999994
0.999994
0.999992
0.99999
0.99999
0.99999
0.99999
0.99999
0.99999
0.99999
0.99999
0.99999
0.99999
0.99999
0.99999
0.99999
0.99999
0.99999
0.99999
0.99999
0.99999
0.99999
0.99999
0.99999
0.99999
0.99999
0.99999
0.99999
0.99999
0.99999
0.99999
0.99999
0.99999
0.99999
0.99999
0.99999
0.99999
0.99999
0.99999
0.99999
0.999989
0.999985
0.999985
0.999986
0.999988
0.999989
0.999989
0.999987
0.999983
0.999979
0.999956
0.99995
0.999897
0.99989
0.969636
0.0347161
7.58457e-07
9.68723e-07
7.55958e-07
7.7102e-07
7.95923e-07
7.84206e-07
7.87105e-07
7.84346e-07
7.7847e-07
7.70414e-07
7.66263e-07
7.69326e-07
7.80874e-07
7.94617e-07
7.97109e-07
7.89301e-07
7.938e-07
8.07988e-07
8.3117e-07
8.46784e-07
8.49143e-07
8.50894e-07
8.51586e-07
8.53661e-07
8.55814e-07
8.55336e-07
8.45203e-07
8.07681e-07
7.28528e-07
6.16357e-07
4.97019e-07
4.07543e-07
4.07232e-07
4.07499e-07
4.07482e-07
0.999995
0.999995
0.999996
0.999995
0.999995
0.999995
0.999994
0.999993
0.999991
0.99999
0.99999
0.99999
0.99999
0.99999
0.99999
0.99999
0.99999
0.99999
0.99999
0.99999
0.99999
0.99999
0.99999
0.99999
0.99999
0.99999
0.99999
0.99999
0.99999
0.99999
0.99999
0.99999
0.99999
0.99999
0.99999
0.99999
0.99999
0.99999
0.99999
0.99999
0.99999
0.99999
0.99999
0.99999
0.99999
0.99999
0.999988
0.999987
0.999987
0.999987
0.999987
0.999987
0.999984
0.99998
0.999977
0.999971
0.99996
0.999911
0.999778
0.978127
0.0669044
0.000143102
7.56e-07
7.55978e-07
7.61671e-07
7.89365e-07
7.78559e-07
7.78305e-07
7.80644e-07
7.81549e-07
7.74604e-07
7.66086e-07
7.63478e-07
7.63477e-07
7.64129e-07
7.6591e-07
7.68695e-07
7.79438e-07
7.97074e-07
8.16219e-07
8.41327e-07
8.51195e-07
8.54376e-07
8.5665e-07
8.60405e-07
8.64077e-07
8.64843e-07
8.55039e-07
8.15359e-07
7.32264e-07
6.15939e-07
4.92219e-07
4.07042e-07
4.07247e-07
4.07238e-07
4.07485e-07
0.999996
0.999994
0.999996
0.999995
0.999995
0.999995
0.999994
0.999994
0.999992
0.99999
0.99999
0.99999
0.99999
0.99999
0.99999
0.99999
0.99999
0.99999
0.99999
0.99999
0.99999
0.99999
0.99999
0.99999
0.99999
0.99999
0.99999
0.99999
0.99999
0.99999
0.99999
0.99999
0.99999
0.99999
0.99999
0.99999
0.99999
0.99999
0.99999
0.99999
0.99999
0.99999
0.99999
0.99999
0.99999
0.99999
0.999988
0.999986
0.999984
0.999983
0.999982
0.999982
0.999979
0.999977
0.999976
0.999976
0.999962
0.999933
0.99983
0.971077
0.0515192
7.45164e-05
9.32821e-07
7.85522e-07
7.65808e-07
7.74572e-07
7.77982e-07
7.77474e-07
7.81901e-07
7.79964e-07
7.74673e-07
7.70174e-07
7.66451e-07
7.63478e-07
7.63052e-07
7.6382e-07
7.64246e-07
7.66429e-07
7.75895e-07
7.99658e-07
8.27563e-07
8.48824e-07
8.53092e-07
8.55636e-07
8.58812e-07
8.62231e-07
8.62624e-07
8.52121e-07
8.11593e-07
7.2736e-07
6.09903e-07
4.87475e-07
4.07068e-07
4.07046e-07
4.07256e-07
4.07245e-07
0.999996
0.999995
0.999996
0.999995
0.999995
0.999995
0.999995
0.999994
0.999992
0.99999
0.99999
0.99999
0.99999
0.99999
0.99999
0.99999
0.99999
0.99999
0.99999
0.99999
0.99999
0.99999
0.99999
0.99999
0.99999
0.99999
0.99999
0.99999
0.99999
0.99999
0.99999
0.99999
0.99999
0.99999
0.99999
0.99999
0.99999
0.99999
0.99999
0.99999
0.99999
0.99999
0.99999
0.99999
0.99999
0.99999
0.999988
0.999986
0.999984
0.999982
0.999981
0.99998
0.999978
0.999978
0.999978
0.999976
0.99994
0.99992
0.999869
0.925536
0.0210403
2.86542e-05
7.5608e-07
7.74117e-07
7.66983e-07
7.60453e-07
7.57268e-07
7.57116e-07
7.57116e-07
7.57426e-07
7.65605e-07
7.70522e-07
7.63934e-07
7.59653e-07
7.60398e-07
7.65306e-07
7.73832e-07
7.76981e-07
7.78771e-07
7.83023e-07
8.02869e-07
8.38154e-07
8.58987e-07
8.56478e-07
8.56483e-07
8.57564e-07
8.56308e-07
8.42088e-07
7.97002e-07
7.09349e-07
5.90542e-07
4.68751e-07
4.06964e-07
4.07224e-07
4.07196e-07
4.07453e-07
0.999998
0.999998
0.999998
0.999998
0.999997
0.999997
0.999996
0.999994
0.999991
0.99999
0.99999
0.99999
0.99999
0.99999
0.99999
0.99999
0.99999
0.99999
0.99999
0.99999
0.99999
0.99999
0.99999
0.99999
0.99999
0.99999
0.99999
0.99999
0.99999
0.99999
0.99999
0.99999
0.99999
0.99999
0.99999
0.99999
0.99999
0.99999
0.99999
0.99999
0.99999
0.99999
0.99999
0.99999
0.99999
0.99999
0.99999
0.999989
0.999988
0.999988
0.999987
0.999986
0.999985
0.999984
0.999983
0.999981
0.999969
0.999939
0.999736
0.963214
0.0618104
0.000114078
7.561e-07
7.66328e-07
7.57966e-07
7.56077e-07
7.56692e-07
7.5761e-07
7.58606e-07
7.59809e-07
7.58569e-07
7.58585e-07
7.58834e-07
7.5961e-07
7.63071e-07
7.71412e-07
7.82068e-07
7.7858e-07
7.72654e-07
7.73076e-07
7.77099e-07
8.07392e-07