/*--------------------------------*- C++ -*----------------------------------*\
| =========                 |                                                 |
| \\      /  F ield         | OpenFOAM: The Open Source CFD Toolbox           |
|  \\    /   O peration     | Version:  2.3.0                                 |
|   \\  /    A nd           | Web:      www.OpenFOAM.org                      |
|    \\/     M anipulation  |                                                 |
\*---------------------------------------------------------------------------*/
FoamFile
{
    version     2.0;
    format      ascii;
    class       volScalarField;
    location    "5";
    object      alpha.airMean;
}
// * * * * * * * * * * * * * * * * * * * * * * * * * * * * * * * * * * * * * //

dimensions      [0 0 0 0 0 0 0];

internalField   nonuniform List<scalar> 
6144
(
0.99999
0.99999
0.99999
0.99999
0.99999
0.99999
0.99999
0.99999
0.99999
0.99999
0.99999
0.99999
0.99999
0.99999
0.99999
0.99999
0.99999
0.99999
0.99999
0.99999
0.99999
0.99999
0.99999
0.99999
0.99999
0.99999
0.99999
0.99999
0.99999
0.99999
0.99999
0.99999
0.99999
0.99999
0.99999
0.99999
0.99999
0.99999
0.99999
0.99999
0.99999
0.99999
0.99999
0.99999
0.99999
0.99999
0.99999
0.99999
0.99999
0.99999
0.99999
0.999989
0.999988
0.999985
0.999981
0.999971
0.999935
0.999756
0.999167
0.913767
0.0264559
0.000155147
2.39629e-06
2.25324e-06
2.2372e-06
2.14954e-06
2.14744e-06
2.0758e-06
2.05993e-06
2.00489e-06
1.97472e-06
1.9277e-06
1.89339e-06
1.84939e-06
1.81381e-06
1.77188e-06
1.73426e-06
1.69447e-06
1.65051e-06
1.60892e-06
1.56729e-06
1.52287e-06
1.4799e-06
1.43806e-06
1.39541e-06
1.35242e-06
1.30852e-06
1.26479e-06
1.21927e-06
1.16979e-06
1.10249e-06
1.00077e-06
8.72242e-07
7.86641e-07
7.90504e-07
7.90337e-07
0.99999
0.99999
0.99999
0.99999
0.99999
0.99999
0.99999
0.99999
0.99999
0.99999
0.99999
0.99999
0.99999
0.99999
0.99999
0.99999
0.99999
0.99999
0.99999
0.99999
0.99999
0.99999
0.99999
0.99999
0.99999
0.99999
0.99999
0.99999
0.99999
0.99999
0.99999
0.99999
0.99999
0.99999
0.99999
0.99999
0.99999
0.99999
0.99999
0.99999
0.99999
0.99999
0.99999
0.99999
0.99999
0.99999
0.99999
0.99999
0.99999
0.99999
0.99999
0.999989
0.999987
0.999984
0.999981
0.999977
0.999928
0.999653
0.998838
0.945507
0.0420529
0.000139871
2.3175e-06
2.25383e-06
2.22798e-06
2.15044e-06
2.14473e-06
2.07747e-06
2.05759e-06
2.00004e-06
1.97377e-06
1.92862e-06
1.89506e-06
1.8548e-06
1.8179e-06
1.77749e-06
1.73481e-06
1.69201e-06
1.65001e-06
1.6108e-06
1.57103e-06
1.53284e-06
1.49463e-06
1.45068e-06
1.40584e-06
1.36109e-06
1.3126e-06
1.26238e-06
1.2187e-06
1.1659e-06
1.09516e-06
9.88788e-07
8.56253e-07
7.83854e-07
7.8923e-07
7.91221e-07
0.99999
0.99999
0.99999
0.99999
0.99999
0.99999
0.99999
0.99999
0.99999
0.99999
0.99999
0.99999
0.99999
0.99999
0.99999
0.99999
0.99999
0.99999
0.99999
0.99999
0.99999
0.99999
0.99999
0.99999
0.99999
0.99999
0.99999
0.99999
0.99999
0.99999
0.99999
0.99999
0.99999
0.99999
0.99999
0.99999
0.99999
0.99999
0.99999
0.99999
0.99999
0.99999
0.99999
0.99999
0.99999
0.99999
0.99999
0.99999
0.99999
0.99999
0.99999
0.999989
0.999987
0.999981
0.999974
0.999972
0.999961
0.999771
0.999151
0.950032
0.0463541
0.000138783
2.32352e-06
2.25452e-06
2.23158e-06
2.16291e-06
2.15754e-06
2.09448e-06
2.08131e-06
2.02993e-06
2.00244e-06
1.95189e-06
1.91537e-06
1.86627e-06
1.82344e-06
1.77193e-06
1.73008e-06
1.68719e-06
1.64413e-06
1.60192e-06
1.56076e-06
1.51924e-06
1.47813e-06
1.43582e-06
1.39101e-06
1.35074e-06
1.30699e-06
1.26167e-06
1.2186e-06
1.1675e-06
1.09655e-06
9.90845e-07
8.59114e-07
7.83655e-07
7.89623e-07
7.90216e-07
0.99999
0.99999
0.99999
0.99999
0.99999
0.99999
0.99999
0.99999
0.99999
0.99999
0.99999
0.99999
0.99999
0.99999
0.99999
0.99999
0.99999
0.99999
0.99999
0.99999
0.99999
0.99999
0.99999
0.99999
0.99999
0.99999
0.99999
0.99999
0.99999
0.99999
0.99999
0.99999
0.99999
0.99999
0.99999
0.99999
0.99999
0.99999
0.99999
0.99999
0.99999
0.99999
0.99999
0.99999
0.99999
0.99999
0.99999
0.99999
0.99999
0.99999
0.99999
0.999989
0.999983
0.999975
0.999965
0.999961
0.999958
0.99983
0.999498
0.938672
0.0470658
0.000103437
2.42673e-06
2.34156e-06
2.2726e-06
2.16233e-06
2.16151e-06
2.09194e-06
2.08069e-06
2.01485e-06
1.99015e-06
1.93943e-06
1.89833e-06
1.85024e-06
1.80427e-06
1.76035e-06
1.71892e-06
1.67658e-06
1.63565e-06
1.59843e-06
1.55995e-06
1.52186e-06
1.48067e-06
1.43621e-06
1.39058e-06
1.3466e-06
1.30152e-06
1.25929e-06
1.21701e-06
1.16807e-06
1.09969e-06
9.97339e-07
8.64642e-07
7.83675e-07
7.89086e-07
7.89992e-07
0.99999
0.99999
0.99999
0.99999
0.99999
0.99999
0.99999
0.99999
0.99999
0.99999
0.99999
0.99999
0.99999
0.99999
0.99999
0.99999
0.99999
0.99999
0.99999
0.99999
0.99999
0.99999
0.99999
0.99999
0.99999
0.99999
0.99999
0.99999
0.99999
0.99999
0.99999
0.99999
0.99999
0.99999
0.99999
0.99999
0.99999
0.99999
0.99999
0.99999
0.99999
0.99999
0.99999
0.99999
0.99999
0.99999
0.99999
0.99999
0.99999
0.99999
0.999989
0.999984
0.999978
0.999967
0.999955
0.999949
0.999944
0.999875
0.999721
0.900144
0.0270786
0.00011607
3.25921e-05
2.0899e-05
1.52007e-05
1.11222e-05
1.08636e-05
8.93981e-06
7.90019e-06
6.48952e-06
5.57266e-06
4.65777e-06
3.91706e-06
3.25461e-06
2.7184e-06
2.31892e-06
2.05383e-06
1.87511e-06
1.76332e-06
1.66816e-06
1.59924e-06
1.53746e-06
1.47113e-06
1.40452e-06
1.36296e-06
1.31939e-06
1.27767e-06
1.23636e-06
1.19956e-06
1.15788e-06
1.099e-06
1.01175e-06
8.87477e-07
7.90256e-07
7.90605e-07
7.89452e-07
0.99999
0.99999
0.99999
0.99999
0.99999
0.99999
0.99999
0.99999
0.99999
0.99999
0.99999
0.99999
0.99999
0.99999
0.99999
0.99999
0.99999
0.99999
0.99999
0.99999
0.99999
0.99999
0.99999
0.99999
0.99999
0.99999
0.99999
0.99999
0.99999
0.99999
0.99999
0.99999
0.99999
0.99999
0.99999
0.99999
0.99999
0.99999
0.99999
0.99999
0.99999
0.99999
0.99999
0.99999
0.99999
0.99999
0.99999
0.99999
0.99999
0.99999
0.999988
0.999984
0.999976
0.999963
0.999952
0.999947
0.999937
0.999911
0.999908
0.818706
0.0160298
0.00116442
0.00106836
0.000868136
0.000808461
0.000760753
0.000727061
0.000687004
0.000658089
0.000600761
0.00054017
0.000485573
0.00042739
0.00036247
0.00030763
0.000258627
0.000207295
0.000161318
0.000123243
9.12342e-05
6.55738e-05
4.38708e-05
2.79178e-05
1.69465e-05
9.64967e-06
5.0987e-06
2.62914e-06
1.63823e-06
1.24655e-06
9.84939e-07
8.76342e-07
8.24753e-07
7.89133e-07
7.8892e-07
7.90866e-07
7.96184e-07
0.99999
0.99999
0.99999
0.99999
0.99999
0.99999
0.99999
0.99999
0.99999
0.99999
0.99999
0.99999
0.99999
0.99999
0.99999
0.99999
0.99999
0.99999
0.99999
0.99999
0.99999
0.99999
0.99999
0.99999
0.99999
0.99999
0.99999
0.99999
0.99999
0.99999
0.99999
0.99999
0.99999
0.99999
0.99999
0.99999
0.99999
0.99999
0.99999
0.99999
0.99999
0.99999
0.99999
0.99999
0.99999
0.99999
0.99999
0.99999
0.99999
0.99999
0.99999
0.999988
0.999982
0.999973
0.999962
0.999947
0.999915
0.999905
0.99999
0.705156
0.0125181
0.00620931
0.00657292
0.00627683
0.00610077
0.0061244
0.00607645
0.00601802
0.00583283
0.00559145
0.00537145
0.00499622
0.00473471
0.00449783
0.00434092
0.00391328
0.00354235
0.00332339
0.00298
0.00267284
0.0024905
0.00219704
0.00189467
0.00165675
0.00142782
0.00121879
0.000972999
0.000711251
0.000502374
0.000310178
0.000153027
6.07822e-05
1.72716e-05
5.32047e-06
2.739e-06
2.67866e-06
0.99999
0.99999
0.99999
0.99999
0.99999
0.99999
0.99999
0.99999
0.99999
0.99999
0.99999
0.99999
0.99999
0.99999
0.99999
0.99999
0.99999
0.99999
0.99999
0.99999
0.99999
0.99999
0.99999
0.99999
0.99999
0.99999
0.99999
0.99999
0.99999
0.99999
0.99999
0.99999
0.99999
0.99999
0.99999
0.99999
0.99999
0.99999
0.99999
0.99999
0.99999
0.99999
0.99999
0.99999
0.99999
0.99999
0.99999
0.99999
0.99999
0.99999
0.99999
0.99999
0.999986
0.999981
0.999969
0.999955
0.999937
0.999918
0.999936
0.61548
0.0225187
0.016854
0.0175614
0.0177499
0.0177429
0.0178426
0.0177889
0.0176256
0.0176281
0.0176066
0.0174618
0.0173255
0.0171674
0.0170373
0.0169388
0.0168017
0.0166012
0.0164039
0.0162159
0.0160491
0.0158796
0.0156698
0.015451
0.0152574
0.0150559
0.0149443
0.0147602
0.0144227
0.0140363
0.0133656
0.0125636
0.0115481
0.0101508
0.00872758
0.00673224
0.00469562
0.99999
0.99999
0.99999
0.99999
0.99999
0.99999
0.99999
0.99999
0.99999
0.99999
0.99999
0.99999
0.99999
0.99999
0.99999
0.99999
0.99999
0.99999
0.99999
0.99999
0.99999
0.99999
0.99999
0.99999
0.99999
0.99999
0.99999
0.99999
0.99999
0.99999
0.99999
0.99999
0.99999
0.99999
0.99999
0.99999
0.99999
0.99999
0.99999
0.99999
0.99999
0.99999
0.99999
0.99999
0.99999
0.99999
0.99999
0.99999
0.99999
0.99999
0.99999
0.99999
0.999988
0.999983
0.999971
0.999962
0.999951
0.999918
0.999851
0.715454
0.0182176
0.00692497
0.00677179
0.00612438
0.00570345
0.00561871
0.00531705
0.00497095
0.00469032
0.00439938
0.00423661
0.00392879
0.00367139
0.00342251
0.00320339
0.00300754
0.00278679
0.00259458
0.00247479
0.00233048
0.00209265
0.00187844
0.00164091
0.00141293
0.00121158
0.000989003
0.000789244
0.000610241
0.000449526
0.000310083
0.000188295
0.000105942
5.0099e-05
1.75606e-05
4.86644e-06
2.11791e-06
0.999991
0.99999
0.99999
0.99999
0.99999
0.99999
0.99999
0.99999
0.99999
0.99999
0.99999
0.99999
0.99999
0.99999
0.99999
0.99999
0.99999
0.99999
0.99999
0.99999
0.99999
0.99999
0.99999
0.99999
0.99999
0.99999
0.99999
0.99999
0.99999
0.99999
0.99999
0.99999
0.99999
0.99999
0.99999
0.99999
0.99999
0.99999
0.99999
0.99999
0.99999
0.99999
0.99999
0.99999
0.99999
0.99999
0.99999
0.99999
0.99999
0.99999
0.99999
0.99999
0.999988
0.999983
0.999974
0.999972
0.999967
0.999887
0.999778
0.835759
0.0166775
0.00104256
0.0008885
0.000702015
0.000584731
0.000526223
0.000465557
0.000417822
0.00037172
0.000323131
0.000287353
0.00024568
0.000219132
0.000188669
0.000157147
0.000133061
0.000113671
9.69131e-05
8.04017e-05
6.34238e-05
4.86471e-05
3.7144e-05
2.68163e-05
1.83409e-05
1.21667e-05
7.17527e-06
4.28886e-06
2.59846e-06
1.62484e-06
1.14266e-06
9.15422e-07
8.29033e-07
7.89246e-07
7.88627e-07
7.91111e-07
7.94232e-07
0.999991
0.99999
0.99999
0.99999
0.99999
0.99999
0.99999
0.99999
0.99999
0.99999
0.99999
0.99999
0.99999
0.99999
0.99999
0.99999
0.99999
0.99999
0.99999
0.99999
0.99999
0.99999
0.99999
0.99999
0.99999
0.99999
0.99999
0.99999
0.99999
0.99999
0.99999
0.99999
0.99999
0.99999
0.99999
0.99999
0.99999
0.99999
0.99999
0.99999
0.99999
0.99999
0.99999
0.99999
0.99999
0.99999
0.99999
0.99999
0.99999
0.99999
0.99999
0.99999
0.999987
0.999983
0.999978
0.999977
0.999966
0.99984
0.999694
0.918979
0.029172
0.000120491
3.10752e-05
2.18769e-05
1.71926e-05
1.42418e-05
1.1866e-05
1.00814e-05
8.54268e-06
6.9426e-06
5.63393e-06
4.57648e-06
3.85878e-06
3.21685e-06
2.76338e-06
2.4249e-06
2.16469e-06
1.95856e-06
1.79565e-06
1.67467e-06
1.59936e-06
1.53835e-06
1.47351e-06
1.41984e-06
1.37365e-06
1.33219e-06
1.27897e-06
1.22543e-06
1.16909e-06
1.10207e-06
1.0243e-06
9.3007e-07
8.38451e-07
7.87723e-07
7.90873e-07
7.90078e-07
0.999992
0.999991
0.999991
0.999991
0.99999
0.99999
0.99999
0.99999
0.99999
0.99999
0.99999
0.99999
0.99999
0.99999
0.99999
0.99999
0.99999
0.99999
0.99999
0.99999
0.99999
0.99999
0.99999
0.99999
0.99999
0.99999
0.99999
0.99999
0.99999
0.99999
0.99999
0.99999
0.99999
0.99999
0.99999
0.99999
0.99999
0.99999
0.99999
0.99999
0.99999
0.99999
0.99999
0.99999
0.99999
0.99999
0.99999
0.99999
0.99999
0.99999
0.99999
0.999989
0.999987
0.999984
0.999982
0.999977
0.999957
0.999791
0.999637
0.954848
0.0454763
0.000101278
2.5987e-06
2.34625e-06
2.28126e-06
2.17558e-06
2.15964e-06
2.09196e-06
2.06405e-06
2.0122e-06
1.99293e-06
1.95444e-06
1.92938e-06
1.87828e-06
1.82996e-06
1.78263e-06
1.73687e-06
1.68998e-06
1.64766e-06
1.60338e-06
1.55746e-06
1.51611e-06
1.46857e-06
1.42199e-06
1.38221e-06
1.33902e-06
1.29228e-06
1.24811e-06
1.198e-06
1.13572e-06
1.05682e-06
9.51937e-07
8.3914e-07
7.86602e-07
7.90047e-07
7.91617e-07
0.999992
0.999992
0.999992
0.999991
0.999991
0.99999
0.99999
0.99999
0.99999
0.99999
0.99999
0.99999
0.99999
0.99999
0.99999
0.99999
0.99999
0.99999
0.99999
0.99999
0.99999
0.99999
0.99999
0.99999
0.99999
0.99999
0.99999
0.99999
0.99999
0.99999
0.99999
0.99999
0.99999
0.99999
0.99999
0.99999
0.99999
0.99999
0.99999
0.99999
0.99999
0.99999
0.99999
0.99999
0.99999
0.99999
0.99999
0.99999
0.99999
0.99999
0.99999
0.999989
0.999988
0.999986
0.999982
0.999978
0.999941
0.99974
0.999551
0.964478
0.0507282
0.000152173
2.49103e-06
2.23862e-06
2.20109e-06
2.13164e-06
2.11657e-06
2.04407e-06
2.033e-06
1.97383e-06
1.95044e-06
1.90167e-06
1.87992e-06
1.84512e-06
1.81557e-06
1.78136e-06
1.74372e-06
1.70337e-06
1.65371e-06
1.60496e-06
1.56342e-06
1.51902e-06
1.47188e-06
1.43128e-06
1.3885e-06
1.34429e-06
1.30477e-06
1.26124e-06
1.21169e-06
1.15263e-06
1.06971e-06
9.52703e-07
8.3174e-07
7.81763e-07
7.90129e-07
7.90894e-07
0.999994
0.999993
0.999992
0.999992
0.999991
0.999991
0.99999
0.99999
0.99999
0.99999
0.99999
0.99999
0.99999
0.99999
0.99999
0.99999
0.99999
0.99999
0.99999
0.99999
0.99999
0.99999
0.99999
0.99999
0.99999
0.99999
0.99999
0.99999
0.99999
0.99999
0.99999
0.99999
0.99999
0.99999
0.99999
0.99999
0.99999
0.99999
0.99999
0.99999
0.99999
0.99999
0.99999
0.99999
0.99999
0.99999
0.99999
0.99999
0.99999
0.99999
0.99999
0.99999
0.999989
0.999987
0.999982
0.999978
0.999909
0.999678
0.999583
0.957968
0.0428426
7.46454e-05
2.32135e-06
2.22393e-06
2.20644e-06
2.13205e-06
2.1182e-06
2.05458e-06
2.03378e-06
1.98579e-06
1.95424e-06
1.91235e-06
1.8771e-06
1.84151e-06
1.80875e-06
1.77454e-06
1.74081e-06
1.70344e-06
1.65853e-06
1.6151e-06
1.57009e-06
1.52156e-06
1.47791e-06
1.43401e-06
1.38972e-06
1.34669e-06
1.3059e-06
1.26177e-06
1.21172e-06
1.15294e-06
1.06836e-06
9.50158e-07
8.27568e-07
7.81766e-07
7.90301e-07
7.91041e-07
0.999995
0.999994
0.999993
0.999993
0.999992
0.999991
0.99999
0.99999
0.99999
0.99999
0.99999
0.99999
0.99999
0.99999
0.99999
0.99999
0.99999
0.99999
0.99999
0.99999
0.99999
0.99999
0.99999
0.99999
0.99999
0.99999
0.99999
0.99999
0.99999
0.99999
0.99999
0.99999
0.99999
0.99999
0.99999
0.99999
0.99999
0.99999
0.99999
0.99999
0.99999
0.99999
0.99999
0.99999
0.99999
0.99999
0.99999
0.99999
0.99999
0.99999
0.99999
0.99999
0.99999
0.999988
0.99998
0.999966
0.999851
0.999595
0.999286
0.950301
0.0375137
8.83756e-05
2.30065e-06
2.22224e-06
2.20823e-06
2.12488e-06
2.12086e-06
2.0692e-06
2.04033e-06
1.99846e-06
1.95948e-06
1.91457e-06
1.8809e-06
1.83464e-06
1.80215e-06
1.76463e-06
1.72663e-06
1.69316e-06
1.65545e-06
1.61037e-06
1.56727e-06
1.52452e-06
1.48103e-06
1.43824e-06
1.39656e-06
1.3569e-06
1.31138e-06
1.26533e-06
1.21722e-06
1.15603e-06
1.06964e-06
9.5011e-07
8.28648e-07
7.82402e-07
7.90645e-07
7.91366e-07
0.999996
0.999994
0.999993
0.999993
0.999992
0.999991
0.99999
0.99999
0.99999
0.99999
0.99999
0.99999
0.99999
0.99999
0.99999
0.99999
0.99999
0.99999
0.99999
0.99999
0.99999
0.99999
0.99999
0.99999
0.99999
0.99999
0.99999
0.99999
0.99999
0.99999
0.99999
0.99999
0.99999
0.99999
0.99999
0.99999
0.99999
0.99999
0.99999
0.99999
0.99999
0.99999
0.99999
0.99999
0.99999
0.99999
0.99999
0.99999
0.99999
0.99999
0.99999
0.99999
0.99999
0.999988
0.999983
0.999956
0.999893
0.999684
0.99954
0.940863
0.035946
0.000238498
2.4573e-06
2.22613e-06
2.21783e-06
2.13711e-06
2.12651e-06
2.07105e-06
2.04173e-06
1.98996e-06
1.96262e-06
1.91208e-06
1.88123e-06
1.83741e-06
1.80409e-06
1.76373e-06
1.72578e-06
1.69086e-06
1.65088e-06
1.6065e-06
1.56704e-06
1.52484e-06
1.48071e-06
1.43802e-06
1.3956e-06
1.35456e-06
1.31089e-06
1.26511e-06
1.21983e-06
1.15901e-06
1.06925e-06
9.5123e-07
8.30953e-07
7.82694e-07
7.9111e-07
7.91772e-07
0.99999
0.99999
0.99999
0.99999
0.99999
0.99999
0.99999
0.99999
0.99999
0.99999
0.99999
0.99999
0.99999
0.99999
0.99999
0.99999
0.99999
0.99999
0.99999
0.99999
0.99999
0.99999
0.99999
0.99999
0.99999
0.99999
0.99999
0.99999
0.99999
0.99999
0.99999
0.99999
0.99999
0.99999
0.99999
0.99999
0.99999
0.99999
0.99999
0.99999
0.99999
0.99999
0.99999
0.99999
0.99999
0.99999
0.99999
0.99999
0.99999
0.99999
0.99999
0.999989
0.999988
0.999986
0.999983
0.999974
0.999929
0.999651
0.99835
0.93856
0.0464046
0.000267041
2.48713e-06
2.24705e-06
2.22932e-06
2.13985e-06
2.14211e-06
2.06848e-06
2.05647e-06
1.9953e-06
1.97042e-06
1.91936e-06
1.88728e-06
1.84195e-06
1.80399e-06
1.76496e-06
1.72744e-06
1.68699e-06
1.64729e-06
1.60624e-06
1.56238e-06
1.52046e-06
1.47827e-06
1.43565e-06
1.39292e-06
1.35032e-06
1.30684e-06
1.26296e-06
1.21767e-06
1.16765e-06
1.09902e-06
9.91694e-07
8.56584e-07
7.83436e-07
7.89283e-07
7.90868e-07
0.99999
0.99999
0.99999
0.99999
0.99999
0.99999
0.99999
0.99999
0.99999
0.99999
0.99999
0.99999
0.99999
0.99999
0.99999
0.99999
0.99999
0.99999
0.99999
0.99999
0.99999
0.99999
0.99999
0.99999
0.99999
0.99999
0.99999
0.99999
0.99999
0.99999
0.99999
0.99999
0.99999
0.99999
0.99999
0.99999
0.99999
0.99999
0.99999
0.99999
0.99999
0.99999
0.99999
0.99999
0.99999
0.99999
0.99999
0.99999
0.99999
0.99999
0.99999
0.99999
0.999988
0.999986
0.999982
0.999975
0.999915
0.999648
0.998481
0.944142
0.0495079
0.000240702
2.38157e-06
2.25493e-06
2.23276e-06
2.13928e-06
2.14482e-06
2.07413e-06
2.06149e-06
2.00414e-06
1.97572e-06
1.92533e-06
1.8917e-06
1.84533e-06
1.80614e-06
1.7684e-06
1.72974e-06
1.68574e-06
1.64733e-06
1.60535e-06
1.55922e-06
1.51963e-06
1.47672e-06
1.43159e-06
1.39167e-06
1.34869e-06
1.30299e-06
1.26181e-06
1.21618e-06
1.16257e-06
1.09182e-06
9.83238e-07
8.52159e-07
7.82319e-07
7.90177e-07
7.90188e-07
0.99999
0.99999
0.99999
0.99999
0.99999
0.99999
0.99999
0.99999
0.99999
0.99999
0.99999
0.99999
0.99999
0.99999
0.99999
0.99999
0.99999
0.99999
0.99999
0.99999
0.99999
0.99999
0.99999
0.99999
0.99999
0.99999
0.99999
0.99999
0.99999
0.99999
0.99999
0.99999
0.99999
0.99999
0.99999
0.99999
0.99999
0.99999
0.99999
0.99999
0.99999
0.99999
0.99999
0.99999
0.99999
0.99999
0.99999
0.99999
0.99999
0.99999
0.99999
0.999989
0.999986
0.999983
0.999974
0.999961
0.999952
0.999785
0.999282
0.93044
0.0297787
2.7732e-05
2.38577e-06
2.28921e-06
2.25199e-06
2.16391e-06
2.17103e-06
2.10043e-06
2.09242e-06
2.03055e-06
2.00632e-06
1.95027e-06
1.91594e-06
1.86746e-06
1.82806e-06
1.78559e-06
1.74311e-06
1.69791e-06
1.65498e-06
1.61072e-06
1.56717e-06
1.5261e-06
1.4818e-06
1.43608e-06
1.39182e-06
1.34864e-06
1.30657e-06
1.26316e-06
1.21693e-06
1.16812e-06
1.10039e-06
9.9836e-07
8.66321e-07
7.89315e-07
7.89332e-07
7.9371e-07
0.99999
0.99999
0.99999
0.99999
0.99999
0.99999
0.99999
0.99999
0.99999
0.99999
0.99999
0.99999
0.99999
0.99999
0.99999
0.99999
0.99999
0.99999
0.99999
0.99999
0.99999
0.99999
0.99999
0.99999
0.99999
0.99999
0.99999
0.99999
0.99999
0.99999
0.99999
0.99999
0.99999
0.99999
0.99999
0.99999
0.99999
0.99999
0.99999
0.99999
0.99999
0.99999
0.99999
0.99999
0.99999
0.99999
0.99999
0.99999
0.99999
0.99999
0.999988
0.999983
0.999979
0.999972
0.999956
0.999935
0.999919
0.999826
0.999678
0.913019
0.0230767
6.92789e-06
9.60189e-06
5.39191e-06
4.8768e-06
4.15579e-06
3.80123e-06
3.20519e-06
2.86411e-06
2.53827e-06
2.3859e-06
2.19457e-06
2.10306e-06
1.99833e-06
1.92397e-06
1.85427e-06
1.79848e-06
1.74083e-06
1.6851e-06
1.64419e-06
1.58928e-06
1.53395e-06
1.49406e-06
1.45203e-06
1.40699e-06
1.35915e-06
1.31418e-06
1.26835e-06
1.2239e-06
1.1729e-06
1.10899e-06
1.00955e-06
8.78815e-07
7.87155e-07
7.89777e-07
7.90588e-07
0.99999
0.99999
0.99999
0.99999
0.99999
0.99999
0.99999
0.99999
0.99999
0.99999
0.99999
0.99999
0.99999
0.99999
0.99999
0.99999
0.99999
0.99999
0.99999
0.99999
0.99999
0.99999
0.99999
0.99999
0.99999
0.99999
0.99999
0.99999
0.99999
0.99999
0.99999
0.99999
0.99999
0.99999
0.99999
0.99999
0.99999
0.99999
0.99999
0.99999
0.99999
0.99999
0.99999
0.99999
0.99999
0.99999
0.99999
0.99999
0.99999
0.999989
0.999981
0.99997
0.99996
0.999948
0.999933
0.999923
0.999903
0.999876
0.999779
0.873085
0.0138371
0.000594668
0.00051024
0.000349199
0.000315385
0.000295177
0.000278683
0.000257487
0.000228016
0.000189355
0.000164469
0.000135973
0.00011321
9.0738e-05
7.39807e-05
5.71656e-05
4.21958e-05
2.83949e-05
1.90734e-05
1.22684e-05
7.80879e-06
4.97978e-06
3.30497e-06
2.40268e-06
1.959e-06
1.66131e-06
1.44294e-06
1.30778e-06
1.18898e-06
1.11527e-06
1.0543e-06
9.94707e-07
8.87444e-07
7.93307e-07
7.90022e-07
7.94133e-07
0.99999
0.99999
0.99999
0.99999
0.99999
0.99999
0.99999
0.99999
0.99999
0.99999
0.99999
0.99999
0.99999
0.99999
0.99999
0.99999
0.99999
0.99999
0.99999
0.99999
0.99999
0.99999
0.99999
0.99999
0.99999
0.99999
0.99999
0.99999
0.99999
0.99999
0.99999
0.99999
0.99999
0.99999
0.99999
0.99999
0.99999
0.99999
0.99999
0.99999
0.99999
0.99999
0.99999
0.99999
0.99999
0.99999
0.99999
0.99999
0.99999
0.999989
0.999981
0.999969
0.999959
0.999947
0.999931
0.999911
0.999916
0.999928
0.999892
0.733581
0.0184998
0.00983334
0.00988069
0.00911624
0.00900384
0.00860636
0.00807388
0.00774764
0.00747976
0.00728397
0.00700206
0.00670563
0.00626033
0.00574226
0.00527594
0.00476939
0.00440762
0.00367096
0.00302246
0.00247332
0.00193407
0.0015099
0.00113021
0.000803398
0.000556529
0.000359342
0.000210387
0.000121658
6.55282e-05
3.38735e-05
1.43472e-05
6.43663e-06
3.0631e-06
1.66078e-06
1.01862e-06
8.16276e-07
0.99999
0.99999
0.99999
0.99999
0.99999
0.99999
0.99999
0.99999
0.99999
0.99999
0.99999
0.99999
0.99999
0.99999
0.99999
0.99999
0.99999
0.99999
0.99999
0.99999
0.99999
0.99999
0.99999
0.99999
0.99999
0.99999
0.99999
0.99999
0.99999
0.99999
0.99999
0.99999
0.99999
0.99999
0.99999
0.99999
0.99999
0.99999
0.99999
0.99999
0.99999
0.99999
0.99999
0.99999
0.99999
0.99999
0.99999
0.99999
0.99999
0.99999
0.99999
0.999984
0.999978
0.99997
0.999952
0.999904
0.999854
0.999857
0.999834
0.585406
0.0368787
0.0308828
0.0328344
0.0335105
0.0339423
0.0344398
0.0347592
0.035218
0.0356104
0.0359885
0.0364589
0.0368428
0.0370261
0.0371223
0.0369486
0.0367521
0.0363961
0.0357528
0.034904
0.0338483
0.0325155
0.0309288
0.0291402
0.0270518
0.0246318
0.0221988
0.0196743
0.0170884
0.014611
0.0120368
0.00880914
0.00559597
0.0031483
0.00146769
0.000750217
0.000909706
0.999991
0.99999
0.99999
0.99999
0.99999
0.99999
0.99999
0.99999
0.99999
0.99999
0.99999
0.99999
0.99999
0.99999
0.99999
0.99999
0.99999
0.99999
0.99999
0.99999
0.99999
0.99999
0.99999
0.99999
0.99999
0.99999
0.99999
0.99999
0.99999
0.99999
0.99999
0.99999
0.99999
0.99999
0.99999
0.99999
0.99999
0.99999
0.99999
0.99999
0.99999
0.99999
0.99999
0.99999
0.99999
0.99999
0.99999
0.99999
0.99999
0.99999
0.99999
0.99999
0.999989
0.999979
0.999956
0.999922
0.999895
0.999882
0.999187
0.582463
0.0382055
0.0331342
0.0344284
0.0351198
0.0364045
0.0378535
0.039346
0.0411764
0.0430694
0.0450514
0.0472419
0.0495043
0.0518974
0.0544362
0.0571115
0.0599973
0.0631212
0.0663913
0.0698679
0.0736386
0.0776544
0.08188
0.0863227
0.0909214
0.0957107
0.100641
0.105969
0.111811
0.118269
0.125234
0.133271
0.142996
0.155973
0.176432
0.221306
0.409534
0.999991
0.99999
0.99999
0.99999
0.99999
0.99999
0.99999
0.99999
0.99999
0.99999
0.99999
0.99999
0.99999
0.99999
0.99999
0.99999
0.99999
0.99999
0.99999
0.99999
0.99999
0.99999
0.99999
0.99999
0.99999
0.99999
0.99999
0.99999
0.99999
0.99999
0.99999
0.99999
0.99999
0.99999
0.99999
0.99999
0.99999
0.99999
0.99999
0.99999
0.99999
0.99999
0.99999
0.99999
0.99999
0.99999
0.99999
0.99999
0.99999
0.99999
0.99999
0.99999
0.999989
0.999974
0.999956
0.999942
0.999927
0.999905
0.999764
0.76937
0.0163677
0.00434201
0.00358227
0.00288175
0.00282548
0.00289184
0.00297613
0.00307146
0.00314197
0.00319527
0.00325478
0.00330968
0.00337584
0.003422
0.003524
0.00363014
0.00379211
0.00394148
0.00394088
0.00391518
0.0039683
0.00402824
0.00403186
0.00395621
0.00393748
0.00396717
0.00384285
0.00362739
0.00345615
0.00320746
0.00271319
0.00217532
0.00158956
0.000992244
0.000658404
0.000384985
0.999991
0.999991
0.999991
0.999991
0.99999
0.99999
0.99999
0.99999
0.99999
0.99999
0.99999
0.99999
0.99999
0.99999
0.99999
0.99999
0.99999
0.99999
0.99999
0.99999
0.99999
0.99999
0.99999
0.99999
0.99999
0.99999
0.99999
0.99999
0.99999
0.99999
0.99999
0.99999
0.99999
0.99999
0.99999
0.99999
0.99999
0.99999
0.99999
0.99999
0.99999
0.99999
0.99999
0.99999
0.99999
0.99999
0.99999
0.99999
0.99999
0.99999
0.99999
0.99999
0.999989
0.999982
0.999967
0.999957
0.99994
0.99988
0.999792
0.879657
0.0122698
0.000302865
0.000273459
0.000219846
0.000215299
0.000209167
0.000194356
0.000181455
0.000180024
0.000177033
0.000182081
0.000180145
0.000166469
0.000165092
0.000158043
0.000142655
0.000134862
0.000126431
0.000114526
0.000107079
0.000103547
0.000100168
9.04477e-05
7.2677e-05
5.95871e-05
5.1526e-05
4.2205e-05
3.32632e-05
2.46224e-05
1.7667e-05
1.1668e-05
6.77968e-06
3.93504e-06
2.1866e-06
1.23862e-06
8.64963e-07
0.999992
0.999991
0.999991
0.999991
0.999991
0.99999
0.99999
0.99999
0.99999
0.99999
0.99999
0.99999
0.99999
0.99999
0.99999
0.99999
0.99999
0.99999
0.99999
0.99999
0.99999
0.99999
0.99999
0.99999
0.99999
0.99999
0.99999
0.99999
0.99999
0.99999
0.99999
0.99999
0.99999
0.99999
0.99999
0.99999
0.99999
0.99999
0.99999
0.99999
0.99999
0.99999
0.99999
0.99999
0.99999
0.99999
0.99999
0.99999
0.99999
0.99999
0.99999
0.99999
0.999989
0.999986
0.999979
0.999967
0.999947
0.999829
0.999748
0.930998
0.0290887
1.38952e-05
1.15314e-05
7.4992e-06
6.63245e-06
6.03111e-06
5.70098e-06
5.27918e-06
5.00335e-06
4.70735e-06
4.48061e-06
4.20914e-06
3.97017e-06
3.6738e-06
3.38227e-06
3.13673e-06
2.87604e-06
2.66047e-06
2.46964e-06
2.33218e-06
2.21605e-06
2.05945e-06
1.82502e-06
1.67569e-06
1.5476e-06
1.44176e-06
1.36423e-06
1.29793e-06
1.23143e-06
1.1626e-06
1.07192e-06
9.54459e-07
8.33543e-07
7.87903e-07
7.90241e-07
7.95217e-07
0.999992
0.999992
0.999992
0.999992
0.999991
0.999991
0.99999
0.99999
0.99999
0.99999
0.99999
0.99999
0.99999
0.99999
0.99999
0.99999
0.99999
0.99999
0.99999
0.99999
0.99999
0.99999
0.99999
0.99999
0.99999
0.99999
0.99999
0.99999
0.99999
0.99999
0.99999
0.99999
0.99999
0.99999
0.99999
0.99999
0.99999
0.99999
0.99999
0.99999
0.99999
0.99999
0.99999
0.99999
0.99999
0.99999
0.99999
0.99999
0.99999
0.99999
0.99999
0.99999
0.999989
0.999988
0.999985
0.999974
0.999944
0.999783
0.999682
0.948641
0.0335599
1.18516e-05
2.39292e-06
2.2308e-06
2.21354e-06
2.14319e-06
2.12566e-06
2.06291e-06
2.04626e-06
1.99195e-06
1.96676e-06
1.91984e-06
1.8898e-06
1.84603e-06
1.81293e-06
1.77455e-06
1.74027e-06
1.70193e-06
1.65403e-06
1.60303e-06
1.56449e-06
1.52356e-06
1.48131e-06
1.44147e-06
1.39881e-06
1.3552e-06
1.31332e-06
1.2666e-06
1.2127e-06
1.14919e-06
1.06361e-06
9.47586e-07
8.28531e-07
7.85912e-07
7.9093e-07
7.92002e-07
0.999993
0.999993
0.999993
0.999992
0.999992
0.999991
0.999991
0.99999
0.99999
0.99999
0.99999
0.99999
0.99999
0.99999
0.99999
0.99999
0.99999
0.99999
0.99999
0.99999
0.99999
0.99999
0.99999
0.99999
0.99999
0.99999
0.99999
0.99999
0.99999
0.99999
0.99999
0.99999
0.99999
0.99999
0.99999
0.99999
0.99999
0.99999
0.99999
0.99999
0.99999
0.99999
0.99999
0.99999
0.99999
0.99999
0.99999
0.99999
0.99999
0.99999
0.99999
0.99999
0.99999
0.99999
0.999986
0.999976
0.999921
0.999737
0.999447
0.957959
0.0474655
5.50959e-05
2.29571e-06
2.21944e-06
2.19799e-06
2.14065e-06
2.12879e-06
2.05661e-06
2.04091e-06
1.99078e-06
1.95326e-06
1.90955e-06
1.87357e-06
1.83571e-06
1.80263e-06
1.76531e-06
1.72802e-06
1.68794e-06
1.64443e-06
1.60147e-06
1.55765e-06
1.5138e-06
1.47167e-06
1.42817e-06
1.38522e-06
1.34377e-06
1.30128e-06
1.25728e-06
1.20879e-06
1.1495e-06
1.06286e-06
9.45063e-07
8.24094e-07
7.82334e-07
7.89835e-07
7.91442e-07
0.999994
0.999993
0.999993
0.999993
0.999992
0.999991
0.999991
0.99999
0.99999
0.99999
0.99999
0.99999
0.99999
0.99999
0.99999
0.99999
0.99999
0.99999
0.99999
0.99999
0.99999
0.99999
0.99999
0.99999
0.99999
0.99999
0.99999
0.99999
0.99999
0.99999
0.99999
0.99999
0.99999
0.99999
0.99999
0.99999
0.99999
0.99999
0.99999
0.99999
0.99999
0.99999
0.99999
0.99999
0.99999
0.99999
0.99999
0.99999
0.99999
0.99999
0.99999
0.99999
0.99999
0.999989
0.999981
0.999969
0.999891
0.999685
0.999374
0.947031
0.0447744
5.99546e-05
2.3075e-06
2.22841e-06
2.19947e-06
2.13028e-06
2.12746e-06
2.05542e-06
2.04238e-06
1.979e-06
1.95489e-06
1.90286e-06
1.87341e-06
1.82861e-06
1.79219e-06
1.75371e-06
1.71712e-06
1.68095e-06
1.64233e-06
1.60054e-06
1.55759e-06
1.51625e-06
1.47355e-06
1.43162e-06
1.38938e-06
1.34589e-06
1.30362e-06
1.25997e-06
1.21164e-06
1.15245e-06
1.06681e-06
9.47089e-07
8.26421e-07
7.83851e-07
7.90645e-07
7.92103e-07
0.999995
0.999994
0.999994
0.999993
0.999992
0.999991
0.999991
0.99999
0.99999
0.99999
0.99999
0.99999
0.99999
0.99999
0.99999
0.99999
0.99999
0.99999
0.99999
0.99999
0.99999
0.99999
0.99999
0.99999
0.99999
0.99999
0.99999
0.99999
0.99999
0.99999
0.99999
0.99999
0.99999
0.99999
0.99999
0.99999
0.99999
0.99999
0.99999
0.99999
0.99999
0.99999
0.99999
0.99999
0.99999
0.99999
0.99999
0.99999
0.99999
0.99999
0.99999
0.99999
0.99999
0.999988
0.999973
0.999956
0.999851
0.999593
0.998999
0.939537
0.0441577
0.000135631
2.29808e-06
2.21213e-06
2.19478e-06
2.11528e-06
2.11129e-06
2.04148e-06
2.03254e-06
1.9731e-06
1.95042e-06
1.8987e-06
1.86949e-06
1.82499e-06
1.79037e-06
1.74989e-06
1.7103e-06
1.67633e-06
1.63854e-06
1.59431e-06
1.5547e-06
1.51311e-06
1.47042e-06
1.42797e-06
1.38474e-06
1.34488e-06
1.30249e-06
1.25807e-06
1.20964e-06
1.14931e-06
1.06294e-06
9.44001e-07
8.22082e-07
7.82728e-07
7.90423e-07
7.9196e-07
0.999996
0.999995
0.999994
0.999993
0.999992
0.999991
0.999991
0.99999
0.99999
0.99999
0.99999
0.99999
0.99999
0.99999
0.99999
0.99999
0.99999
0.99999
0.99999
0.99999
0.99999
0.99999
0.99999
0.99999
0.99999
0.99999
0.99999
0.99999
0.99999
0.99999
0.99999
0.99999
0.99999
0.99999
0.99999
0.99999
0.99999
0.99999
0.99999
0.99999
0.99999
0.99999
0.99999
0.99999
0.99999
0.99999
0.99999
0.99999
0.99999
0.99999
0.99999
0.99999
0.99999
0.999989
0.999981
0.999962
0.999883
0.999558
0.998627
0.940057
0.0459007
0.000381539
2.6995e-06
2.20265e-06
2.19525e-06
2.11103e-06
2.11247e-06
2.04928e-06
2.03206e-06
1.97528e-06
1.95038e-06
1.90103e-06
1.87148e-06
1.82734e-06
1.78879e-06
1.7504e-06
1.71598e-06
1.6769e-06
1.63841e-06
1.60007e-06
1.55823e-06
1.51407e-06
1.47432e-06
1.43237e-06
1.38863e-06
1.34868e-06
1.30538e-06
1.26067e-06
1.21499e-06
1.15375e-06
1.06572e-06
9.49293e-07
8.28164e-07
7.83418e-07
7.91086e-07
7.92384e-07
0.99999
0.99999
0.99999
0.99999
0.99999
0.99999
0.99999
0.99999
0.99999
0.99999
0.99999
0.99999
0.99999
0.99999
0.99999
0.99999
0.99999