/*--------------------------------*- C++ -*----------------------------------*\
| =========                 |                                                 |
| \\      /  F ield         | OpenFOAM: The Open Source CFD Toolbox           |
|  \\    /   O peration     | Version:  2.3.0                                 |
|   \\  /    A nd           | Web:      www.OpenFOAM.org                      |
|    \\/     M anipulation  |                                                 |
\*---------------------------------------------------------------------------*/
FoamFile
{
    version     2.0;
    format      ascii;
    class       volScalarField;
    location    "5";
    object      epsilon.water;
}
// * * * * * * * * * * * * * * * * * * * * * * * * * * * * * * * * * * * * * //

dimensions      [0 2 -3 0 0 0 0];

internalField   nonuniform List<scalar> 
6144
(
5.54642e-07
5.59097e-07
5.6543e-07
5.42354e-07
5.37456e-07
5.27217e-07
5.17203e-07
5.13518e-07
5.04356e-07
5.02409e-07
4.95469e-07
4.93895e-07
4.89309e-07
4.87748e-07
4.85075e-07
4.83619e-07
4.82086e-07
4.80953e-07
4.79981e-07
4.79194e-07
4.78544e-07
4.78009e-07
4.77568e-07
4.77204e-07
4.76903e-07
4.76652e-07
4.76441e-07
4.76263e-07
4.76111e-07
4.7598e-07
4.75865e-07
4.75761e-07
4.75654e-07
4.7556e-07
4.75458e-07
4.75365e-07
4.75346e-07
4.75195e-07
4.75611e-07
4.75329e-07
4.77127e-07
4.76764e-07
4.81728e-07
4.81662e-07
4.92445e-07
4.93142e-07
5.21169e-07
6.34116e-07
2.65137e-06
2.82346e-05
0.000178683
0.000469007
0.000778423
0.00120351
0.00146565
0.00154394
0.00150143
0.0042091
0.0138014
0.021868
0.0733737
0.0380153
0.024646
0.0159611
0.0111067
0.00811299
0.00609323
0.00475599
0.00384668
0.00316597
0.00263389
0.00222286
0.00186732
0.00158522
0.00137936
0.00109062
0.000686919
0.000350339
0.00015806
6.78066e-05
2.92332e-05
1.33832e-05
6.92681e-06
4.15031e-06
2.8356e-06
2.13506e-06
1.71912e-06
1.43944e-06
1.23137e-06
1.07264e-06
9.51803e-07
8.40763e-07
7.38932e-07
6.46031e-07
5.68135e-07
5.08594e-07
3.97922e-07
4.07127e-07
4.70639e-07
4.95297e-07
5.18705e-07
5.09778e-07
5.10338e-07
5.0367e-07
4.99756e-07
4.95603e-07
4.91406e-07
4.88518e-07
4.85023e-07
4.82739e-07
4.80222e-07
4.78258e-07
4.76462e-07
4.74839e-07
4.73414e-07
4.72109e-07
4.70929e-07
4.69841e-07
4.68837e-07
4.67904e-07
4.6703e-07
4.66205e-07
4.65419e-07
4.64668e-07
4.63945e-07
4.63244e-07
4.62561e-07
4.61892e-07
4.61228e-07
4.6057e-07
4.59933e-07
4.5927e-07
4.58701e-07
4.58005e-07
4.57819e-07
4.57028e-07
4.5809e-07
4.57252e-07
4.61154e-07
4.60616e-07
4.69521e-07
4.69423e-07
5.03755e-07
9.05747e-07
7.79778e-06
6.33808e-05
0.000263656
0.000590447
0.000911634
0.00147604
0.00254523
0.00349545
0.00571016
0.0078452
0.012792
0.0146262
0.040344
0.00879849
0.00582917
0.00446613
0.0037824
0.00334641
0.00302857
0.00272306
0.00243179
0.0021608
0.00190812
0.00168746
0.00147901
0.00128644
0.00110534
0.000839349
0.000490156
0.000226298
0.000105943
5.36916e-05
2.93127e-05
1.82682e-05
1.19895e-05
7.66473e-06
4.77936e-06
3.00358e-06
1.98276e-06
1.41934e-06
1.10565e-06
9.10053e-07
7.76936e-07
6.88704e-07
6.10412e-07
5.4137e-07
4.81533e-07
4.67652e-07
3.93022e-07
3.03416e-07
2.81979e-07
3.1826e-07
3.65309e-07
3.56481e-07
3.87098e-07
3.70375e-07
3.9119e-07
3.77739e-07
3.92022e-07
3.8396e-07
3.91565e-07
3.87749e-07
3.90703e-07
3.88899e-07
3.89826e-07
3.88932e-07
3.88759e-07
3.88135e-07
3.87552e-07
3.86872e-07
3.86151e-07
3.8539e-07
3.84601e-07
3.8379e-07
3.82962e-07
3.82123e-07
3.81278e-07
3.80426e-07
3.79571e-07
3.78715e-07
3.77863e-07
3.7703e-07
3.76141e-07
3.75407e-07
3.74411e-07
3.73823e-07
3.73216e-07
3.72529e-07
3.73616e-07
3.72576e-07
3.7761e-07
3.76483e-07
3.88036e-07
3.88404e-07
4.24016e-07
1.0137e-06
1.35179e-05
9.96476e-05
0.000298004
0.000575875
0.000773438
0.00140995
0.00311722
0.00440096
0.00651745
0.00804268
0.00725433
0.0082856
0.0279571
0.00324694
0.0025191
0.00252426
0.00240884
0.00221111
0.0020092
0.00184295
0.0016954
0.00150954
0.0013413
0.0012071
0.00103241
0.000772205
0.000512183
0.000321282
0.000195147
0.000150942
0.000135466
0.000107902
7.87293e-05
5.5323e-05
3.68723e-05
2.291e-05
1.32407e-05
7.15416e-06
3.76155e-06
2.04577e-06
1.23707e-06
8.66145e-07
6.79647e-07
5.67897e-07
4.90171e-07
4.38247e-07
3.87973e-07
4.22922e-07
6.26581e-07
3.2146e-07
2.39534e-07
2.55608e-07
2.32492e-07
2.29778e-07
2.27547e-07
2.17203e-07
2.25253e-07
2.144e-07
2.27482e-07
2.19117e-07
2.32129e-07
2.27256e-07
2.36296e-07
2.3459e-07
2.39348e-07
2.39395e-07
2.41342e-07
2.41876e-07
2.42516e-07
2.42774e-07
2.42862e-07
2.42774e-07
2.4255e-07
2.42212e-07
2.41779e-07
2.41273e-07
2.40711e-07
2.401e-07
2.39451e-07
2.38774e-07
2.38076e-07
2.37407e-07
2.36663e-07
2.36268e-07
2.35385e-07
2.35268e-07
2.3472e-07
2.34562e-07
2.35421e-07
2.34879e-07
2.38858e-07
2.37838e-07
2.47146e-07
2.46721e-07
2.82341e-07
1.209e-06
1.78644e-05
0.000112576
0.000363034
0.000607673
0.00088022
0.00194348
0.00541691
0.0066325
0.00705223
0.00987811
0.00516506
0.00520159
0.0196704
0.00240655
0.00156511
0.00166353
0.00184641
0.00151764
0.00114381
0.000935589
0.000813471
0.000692715
0.000591041
0.000524676
0.000477236
0.00043237
0.000411489
0.000412014
0.000430732
0.000429784
0.000391195
0.000320061
0.000249211
0.000181796
0.000124533
7.94478e-05
4.70335e-05
2.47957e-05
1.17452e-05
5.14607e-06
2.26156e-06
1.09375e-06
6.51029e-07
4.83482e-07
4.02664e-07
3.52984e-07
3.10416e-07
4.02982e-07
1.05814e-06
5.11429e-07
2.60032e-07
2.82289e-07
2.14239e-07
2.16454e-07
1.89019e-07
1.86961e-07
1.73479e-07
1.7156e-07
1.64682e-07
1.64388e-07
1.60914e-07
1.61609e-07
1.60321e-07
1.61152e-07
1.60991e-07
1.61881e-07
1.62159e-07
1.6291e-07
1.63462e-07
1.64103e-07
1.64702e-07
1.653e-07
1.6589e-07
1.6647e-07
1.67043e-07
1.67612e-07
1.68173e-07
1.68731e-07
1.69295e-07
1.69858e-07
1.70413e-07
1.70975e-07
1.71517e-07
1.72112e-07
1.72628e-07
1.73227e-07
1.73936e-07
1.74434e-07
1.7583e-07
1.76258e-07
1.79014e-07
1.79607e-07
1.84519e-07
1.86428e-07
2.2364e-07
1.67258e-06
2.0118e-05
0.000108901
0.000322275
0.000475987
0.000786295
0.00268834
0.00870795
0.0102132
0.0117831
0.0102512
0.00365217
0.00348931
0.0103483
0.00208434
0.00155496
0.0012751
0.00113577
0.000953252
0.000891567
0.000859928
0.000853771
0.000858156
0.000899592
0.000954908
0.00102779
0.00111058
0.001163
0.00118286
0.00115909
0.00110744
0.00100517
0.000868889
0.000726112
0.000575095
0.000439338
0.000314057
0.000207317
0.000118918
6.19678e-05
2.97299e-05
1.30934e-05
5.16217e-06
1.92528e-06
7.9519e-07
4.30195e-07
3.06175e-07
2.59766e-07
4.02397e-07
1.79597e-06
1.27833e-06
4.26017e-07
5.05456e-07
2.87548e-07
2.92846e-07
2.25839e-07
2.23677e-07
1.90134e-07
1.8991e-07
1.67473e-07
1.70609e-07
1.56594e-07
1.59838e-07
1.52349e-07
1.54289e-07
1.50969e-07
1.52147e-07
1.5103e-07
1.51662e-07
1.51757e-07
1.52308e-07
1.52869e-07
1.53555e-07
1.54327e-07
1.55171e-07
1.56078e-07
1.57036e-07
1.58028e-07
1.59062e-07
1.60161e-07
1.61291e-07
1.62434e-07
1.63581e-07
1.64782e-07
1.65897e-07
1.6725e-07
1.68276e-07
1.69939e-07
1.70838e-07
1.73149e-07
1.74186e-07
1.77386e-07
1.79797e-07
1.83673e-07
1.90971e-07
2.12366e-07
7.96935e-07
8.35979e-06
4.34143e-05
0.000149762
0.000321715
0.000747961
0.00356064
0.00990183
0.00907327
0.010002
0.00898397
0.00363848
0.00352566
0.00662424
0.00207899
0.00195127
0.00190715
0.00184555
0.00179679
0.00178399
0.00177029
0.00180173
0.0018381
0.00186087
0.00187103
0.00187295
0.00186494
0.00184593
0.00179876
0.00171187
0.00160268
0.00148366
0.00136228
0.00123594
0.00108699
0.00093743
0.000769094
0.000596202
0.000430674
0.000297051
0.000180431
9.37225e-05
3.68474e-05
1.35005e-05
5.15791e-06
1.80175e-06
5.84464e-07
2.87199e-07
4.18951e-07
3.03896e-06
3.39714e-06
8.38587e-07
1.01138e-06
3.62751e-07
3.52398e-07
2.75151e-07
2.62577e-07
2.32274e-07
2.23788e-07
2.00941e-07
2.01893e-07
1.87063e-07
1.88533e-07
1.91628e-07
1.85606e-07
1.95214e-07
1.94619e-07
1.98236e-07
1.9933e-07
2.00844e-07
2.0205e-07
2.03004e-07
2.03818e-07
2.04555e-07
2.05147e-07
2.05581e-07
2.05918e-07
2.06164e-07
2.06387e-07
2.06761e-07
2.07134e-07
2.07499e-07
2.07827e-07
2.08203e-07
2.08489e-07
2.09342e-07
2.09432e-07
2.11564e-07
2.10885e-07
2.15965e-07
2.15613e-07
2.23604e-07
2.24293e-07
2.35357e-07
2.4211e-07
2.56449e-07
3.46691e-07
2.18042e-06
1.57673e-05
7.8993e-05
0.000284641
0.000572658
0.00195316
0.00665454
0.00912495
0.00848253
0.00807528
0.00374146
0.0036686
0.00535302
0.00213416
0.00206224
0.00204273
0.00199819
0.00196715
0.00194218
0.00190446
0.00188231
0.00184564
0.00183709
0.00180712
0.00174702
0.00168664
0.001626
0.00155537
0.0014852
0.00139771
0.00134602
0.0012785
0.00120282
0.00110432
0.00100225
0.000850519
0.000694724
0.000567038
0.000471636
0.000377526
0.000291218
0.00019656
0.000115469
6.14486e-05
2.20792e-05
4.10447e-06
8.54091e-07
5.91159e-07
4.11563e-06
6.62071e-06
1.30553e-06
1.77955e-06
5.09066e-07
4.60987e-07
3.50223e-07
3.32193e-07
2.9745e-07
2.8263e-07
2.62437e-07
2.5992e-07
2.47919e-07
2.49966e-07
2.42801e-07
2.45784e-07
2.42625e-07
2.45309e-07
2.4497e-07
2.4718e-07
2.48489e-07
2.50561e-07
2.52558e-07
2.54843e-07
2.57214e-07
2.59682e-07
2.62269e-07
2.64889e-07
2.67503e-07
2.70159e-07
2.72888e-07
2.75623e-07
2.78369e-07
2.81158e-07
2.83901e-07
2.86468e-07
2.89513e-07
2.91817e-07
2.95602e-07
2.97317e-07
3.02737e-07
3.03899e-07
3.12307e-07
3.14429e-07
3.26361e-07
3.35751e-07
3.51836e-07
3.93845e-07
9.74379e-07
8.68134e-06
6.47994e-05
0.00024675
0.000508595
0.00100082
0.0028354
0.0063118
0.00775136
0.00886444
0.00375471
0.00368762
0.00478589
0.00217884
0.00212208
0.00200052
0.00187974
0.00176515
0.00170513
0.00161049
0.00151842
0.00140198
0.00134591
0.00123387
0.00115361
0.00106948
0.000993279
0.000920303
0.000844954
0.000785038
0.000739949
0.000707464
0.000672592
0.000627466
0.000561405
0.000475974
0.000399862
0.000373283
0.000349293
0.000293121
0.000230997
0.000163136
0.000105943
6.69459e-05
3.58604e-05
1.46702e-05
4.86326e-06
3.35945e-06
4.79902e-06
1.0652e-05
1.28747e-06
2.62237e-06
7.47918e-07
5.42172e-07
3.59821e-07
3.47057e-07
3.02889e-07
2.94346e-07
2.73518e-07
2.70578e-07
2.64903e-07
2.65271e-07
2.63613e-07
2.657e-07
2.65947e-07
2.68533e-07
2.6991e-07
2.72569e-07
2.74816e-07
2.77584e-07
2.80174e-07
2.82931e-07
2.85652e-07
2.88351e-07
2.91047e-07
2.93736e-07
2.96388e-07
2.99017e-07
3.01665e-07
3.04314e-07
3.0698e-07
3.09732e-07
3.12377e-07
3.15103e-07
3.178e-07
3.20458e-07
3.23609e-07
3.25858e-07
3.30478e-07
3.3201e-07
3.39607e-07
3.40892e-07
3.53338e-07
3.57539e-07
3.7555e-07
3.97323e-07
6.94483e-07
6.63722e-06
6.6006e-05
0.000272018
0.00050804
0.000778222
0.00155926
0.0028306
0.00667924
0.0105159
0.00350952
0.00337071
0.00615719
0.00193495
0.00169655
0.0012319
0.000861088
0.000664257
0.000602914
0.00052926
0.000501573
0.000436385
0.000407125
0.000345184
0.000308843
0.000260526
0.000234004
0.000209414
0.000180205
0.000148827
0.000115335
8.76516e-05
6.88855e-05
5.8799e-05
5.32661e-05
4.98648e-05
4.6313e-05
4.10741e-05
3.78529e-05
3.40086e-05
2.99921e-05
2.49022e-05
1.88046e-05
1.37346e-05
9.71948e-06
7.26092e-06
5.85541e-06
1.28953e-06
6.42111e-06
1.61562e-05
1.88347e-06
4.23429e-06
6.85252e-07
6.98814e-07
4.12095e-07
3.68744e-07
3.15524e-07
3.10621e-07
2.79341e-07
2.76534e-07
2.66543e-07
2.66551e-07
2.63435e-07
2.64869e-07
2.64587e-07
2.6659e-07
2.67608e-07
2.69844e-07
2.71731e-07
2.74145e-07
2.76441e-07
2.78913e-07
2.81363e-07
2.83825e-07
2.8635e-07
2.88891e-07
2.91414e-07
2.93915e-07
2.96432e-07
2.98969e-07
3.01509e-07
3.04135e-07
3.06657e-07
3.09313e-07
3.11773e-07
3.14424e-07
3.17187e-07
3.19535e-07
3.23564e-07
3.25223e-07
3.31921e-07
3.3308e-07
3.43922e-07
3.46148e-07
3.62055e-07
3.76469e-07
6.60653e-07
7.28465e-06
7.93938e-05
0.000319233
0.000580656
0.000923365
0.00159801
0.00310726
0.0100203
0.0112144
0.00358554
0.00329097
0.00960996
0.00171086
0.00110918
0.00061656
0.000441703
0.000293959
0.000263415
0.00022516
0.000201818
0.00017084
0.000148018
0.000125527
0.000111962
9.47098e-05
7.82278e-05
6.6257e-05
5.58763e-05
4.85299e-05
3.90289e-05
2.58749e-05
1.5908e-05
1.02197e-05
7.36765e-06
6.00969e-06
5.25253e-06
4.58513e-06
4.12495e-06
3.72113e-06
3.36566e-06
3.01192e-06
2.57383e-06
2.17515e-06
1.93091e-06
1.73847e-06
1.70028e-06
1.00047e-06
7.96781e-06
1.8706e-05
7.05896e-06
1.19897e-05
1.64936e-06
9.06228e-07
5.77109e-07
5.0247e-07
4.0821e-07
4.13612e-07
3.37781e-07
3.38473e-07
3.05203e-07
3.05329e-07
2.92682e-07
2.93377e-07
2.8864e-07
2.89539e-07
2.88223e-07
2.89323e-07
2.89784e-07
2.91121e-07
2.92579e-07
2.94973e-07
2.97797e-07
3.00964e-07
3.04453e-07
3.08483e-07
3.13055e-07
3.17874e-07
3.22162e-07
3.26628e-07
3.31253e-07
3.36042e-07
3.41136e-07
3.46321e-07
3.5159e-07
3.56861e-07
3.62684e-07
3.67136e-07
3.72825e-07
3.75982e-07
3.83804e-07
3.8665e-07
3.98441e-07
4.02105e-07
4.19886e-07
4.4784e-07
9.53717e-07
1.10968e-05
0.000112443
0.000441989
0.000965554
0.0018005
0.00303673
0.00516839
0.00908845
0.0109858
0.00515202
0.00440316
0.0146582
0.00179133
0.000769369
0.000544961
0.000482917
0.000512664
0.00051188
0.000491216
0.000449636
0.000397099
0.000323838
0.000261276
0.000225298
0.000202785
0.000157177
9.6787e-05
5.26486e-05
3.26161e-05
2.7962e-05
2.23105e-05
1.45035e-05
8.3149e-06
5.41394e-06
4.15804e-06
3.43363e-06
2.949e-06
2.58153e-06
2.2917e-06
2.05038e-06
1.85127e-06
1.64693e-06
1.49516e-06
1.41498e-06
1.35258e-06
1.2805e-06
7.6228e-07
2.26378e-05
5.59575e-05
5.39626e-05
5.96549e-05
1.55364e-05
5.84949e-06
8.00386e-07
5.35385e-07
5.06063e-07
5.08207e-07
4.801e-07
4.6756e-07
4.33322e-07
4.30465e-07
4.04135e-07
4.03908e-07
3.86823e-07
3.85857e-07
3.7624e-07
3.74383e-07
3.69394e-07
3.67175e-07
3.64588e-07
3.6288e-07
3.6157e-07
3.6082e-07
3.60578e-07
3.60506e-07
3.6055e-07
3.60705e-07
3.60928e-07
3.61215e-07
3.61741e-07
3.62818e-07
3.64316e-07
3.65989e-07
3.6801e-07
3.70017e-07
3.72683e-07
3.74777e-07
3.78161e-07
3.79744e-07
3.84762e-07
3.86416e-07
3.93949e-07
3.96391e-07
4.06367e-07
4.51239e-07
1.35286e-06
1.58289e-05
0.000127061
0.000452564
0.0010179
0.00197264
0.00340365
0.00538352
0.00850144
0.0105708
0.00757346
0.0071043
0.0194158
0.00203975
0.000803981
0.0010532
0.00116763
0.00107307
0.000980916
0.00089887
0.000831712
0.000774822
0.000718846
0.000668467
0.000622402
0.000576466
0.000525149
0.000435029
0.000257357
7.6301e-05
2.46941e-05
1.85245e-05
1.44618e-05
9.25432e-06
6.19354e-06
4.46437e-06
3.5503e-06
3.0297e-06
2.66077e-06
2.37874e-06
2.15968e-06
1.98407e-06
1.82264e-06
1.69166e-06
1.59643e-06
1.51441e-06
1.43347e-06
7.9135e-07
0.000112196
0.000225313
0.000235775
0.000250404
0.000118538
5.93752e-05
5.16515e-06
7.23299e-07
5.57864e-07
5.36713e-07
5.4193e-07
5.35768e-07
5.30967e-07
5.27213e-07
5.1544e-07
5.14707e-07
5.03359e-07
5.01868e-07
4.93992e-07
4.91194e-07
4.86033e-07
4.82559e-07
4.78806e-07
4.75463e-07
4.72285e-07
4.69316e-07
4.66538e-07
4.63953e-07
4.61536e-07
4.59244e-07
4.57002e-07
4.54859e-07
4.52724e-07
4.50266e-07
4.47788e-07
4.45065e-07
4.43092e-07
4.39893e-07
4.38613e-07
4.35103e-07
4.34953e-07
4.31987e-07
4.33309e-07
4.31451e-07
4.3439e-07
4.3434e-07
4.40819e-07
5.08548e-07
1.6364e-06
1.64135e-05
0.000119101
0.000376712
0.00087682
0.00171312
0.00305115
0.00539473
0.00910837
0.011888
0.0147987
0.0135596
0.0282879
0.00348771
0.00106
0.00125866
0.0020567
0.00200717
0.00170933
0.00134731
0.00113464
0.00102391
0.00095396
0.000894544
0.000858956
0.000804594
0.000731884
0.000684641
0.000606098
0.00038228
8.47749e-05
1.74723e-05
1.01438e-05
7.37423e-06
5.33959e-06
4.19814e-06
3.43071e-06
2.94129e-06
2.58201e-06
2.3111e-06
2.1074e-06
1.94931e-06
1.81326e-06
1.71037e-06
1.64514e-06
1.58762e-06
1.49271e-06
7.99337e-07
0.000287689
0.000425439
0.000395411
0.000437152
0.000297622
0.000195873
5.45884e-05
3.21421e-06
7.44052e-07
5.81021e-07
5.92855e-07
5.90592e-07
6.05723e-07
6.059e-07
6.14281e-07
6.14536e-07
6.17609e-07
6.18266e-07
6.18763e-07
6.19127e-07
6.18828e-07
6.18632e-07
6.18104e-07
6.17537e-07
6.16859e-07
6.16113e-07
6.15311e-07
6.14472e-07
6.13607e-07
6.12717e-07
6.11791e-07
6.10847e-07
6.09889e-07
6.08904e-07
6.07869e-07
6.0667e-07
6.0579e-07
6.04142e-07
6.03824e-07
6.01559e-07
6.02383e-07
5.99636e-07
6.02228e-07
5.9991e-07
6.05204e-07
6.04384e-07
6.18545e-07
6.75187e-07
1.51111e-06
1.14819e-05
7.98597e-05
0.000252022
0.000585556
0.00115628
0.00222816
0.0049634
0.00842648
0.0143377
0.0264634
0.0224996
0.0481292
0.0074975
0.00432192
0.0040308
0.00345843
0.00283758
0.00231552
0.00189666
0.00159366
0.00140588
0.00128726
0.00119317
0.00112645
0.00105088
0.000940434
0.00085795
0.000775522
0.00058216
0.000215339
4.56494e-05
1.06255e-05
4.8426e-06
3.60278e-06
3.08263e-06
2.7047e-06
2.38605e-06
2.12216e-06
1.9189e-06
1.76969e-06
1.65859e-06
1.57142e-06
1.51391e-06
1.47831e-06
1.43999e-06
1.37275e-06
8.12819e-07
0.000345676
0.000486227
0.000473569
0.000500002
0.000365925
0.000227484
7.94131e-05
7.41676e-06
1.18786e-06
6.28467e-07
6.01022e-07
5.94757e-07
6.13648e-07
6.15015e-07
6.3025e-07
6.31279e-07
6.41126e-07
6.43162e-07
6.48576e-07
6.51194e-07
6.54318e-07
6.56716e-07
6.58847e-07
6.60735e-07
6.62408e-07
6.63911e-07
6.65271e-07
6.66511e-07
6.67651e-07
6.68707e-07
6.69687e-07
6.70604e-07
6.71463e-07
6.723e-07
6.73105e-07
6.73737e-07
6.74637e-07
6.74949e-07
6.76445e-07
6.76247e-07
6.79227e-07
6.78579e-07
6.84591e-07
6.84108e-07
6.95721e-07
6.9629e-07
7.20875e-07
7.44709e-07
1.09046e-06
4.10789e-06
2.91784e-05
0.000118728
0.000321959
0.000639681
0.0013941
0.00355357
0.00831633
0.0181609
0.0380495
0.0387997
0.0688629
0.0180409
0.00943349
0.00545403
0.00401159
0.00325837
0.00271102
0.0022994
0.00199096
0.00176735
0.00160463
0.00147594
0.0013564
0.00125614
0.00111938
0.000998407
0.000895874
0.000686313
0.00028108
7.3739e-05
1.79003e-05
6.05241e-06
3.25873e-06
2.39506e-06
2.02166e-06
1.78408e-06
1.59587e-06
1.44693e-06
1.33411e-06
1.24884e-06
1.18073e-06
1.13847e-06
1.12056e-06
1.10295e-06
1.07694e-06
8.10938e-07
0.000304092
0.000299559
0.00041637
0.000414888
0.000318036
8.91799e-05
1.48382e-05
2.40843e-06
9.20452e-07
6.08612e-07
5.75648e-07
5.57782e-07
5.70149e-07
5.68912e-07
5.82017e-07
5.82934e-07
5.92814e-07
5.95315e-07
6.01542e-07
6.04954e-07
6.09079e-07
6.12475e-07
6.15684e-07
6.18668e-07
6.2146e-07
6.24105e-07
6.26626e-07
6.29046e-07
6.31383e-07
6.33652e-07
6.35866e-07
6.38036e-07
6.40167e-07
6.42299e-07
6.4446e-07
6.46403e-07
6.48783e-07
6.50372e-07
6.53547e-07
6.5466e-07
6.59763e-07
6.60464e-07
6.69516e-07
6.70486e-07
6.86697e-07
6.89404e-07
7.18421e-07
7.28922e-07
8.15216e-07
1.27003e-06
5.10941e-06
2.36788e-05
8.99676e-05
0.000207051
0.000480072
0.0013059
0.00304894
0.00692965
0.02277
0.0412564
0.094809
0.046752
0.0236386
0.0128354
0.00801759
0.00550922
0.004057
0.00317993
0.00263349
0.00225917
0.00199197
0.00177903
0.00159243
0.00145062
0.00128373
0.00113631
0.00101896
0.000777564
0.000290827
6.77116e-05
1.84802e-05
7.10286e-06
3.65531e-06
2.43654e-06
1.94234e-06
1.67999e-06
1.48989e-06
1.33546e-06
1.21144e-06
1.11369e-06
1.03679e-06
9.83257e-07
9.50391e-07
9.26586e-07
9.10882e-07
8.03645e-07
3.00697e-07
3.40149e-07
4.11976e-07
4.17302e-07
4.44813e-07
4.37326e-07
4.47447e-07
4.38106e-07
4.41992e-07
4.3564e-07
4.37232e-07
4.33071e-07
4.34325e-07
4.32272e-07
4.33062e-07
4.32374e-07
4.32812e-07
4.3281e-07
4.33096e-07
4.33314e-07
4.33572e-07
4.33819e-07
4.34061e-07
4.34291e-07
4.34509e-07
4.34714e-07
4.34909e-07
4.35093e-07
4.35269e-07
4.35435e-07
4.35591e-07
4.35748e-07
4.35904e-07
4.36105e-07
4.36208e-07
4.36497e-07
4.36751e-07
4.36911e-07
4.38148e-07
4.37738e-07
4.41733e-07
4.40497e-07
4.50403e-07
4.49139e-07
4.6956e-07
4.72148e-07
5.19771e-07
7.32115e-07
4.89076e-06
5.40686e-05
0.000277281
0.000640047
0.00105093
0.00165588
0.00241976
0.00326902
0.00392452
0.00674474
0.0113502
0.0179874
0.0343105
0.0222997
0.0168051
0.012557
0.00954124
0.00741767
0.00592552
0.00485869
0.00406402
0.00343468
0.00291967
0.00250788
0.00216328
0.00187036
0.00164552
0.0013925
0.00107679
0.000809684
0.000558882
0.000297143
0.000114709
3.51795e-05
1.09987e-05
4.5359e-06
2.64545e-06
1.98691e-06
1.66691e-06
1.44472e-06
1.26312e-06
1.11768e-06
9.92981e-07
8.78504e-07
7.74163e-07
6.78106e-07
5.97332e-07
5.33857e-07
4.42327e-07
2.92666e-07
2.07293e-07
2.29197e-07
2.36796e-07
2.4326e-07
2.47323e-07
2.46509e-07
2.48183e-07
2.46123e-07
2.47599e-07
2.45997e-07
2.47564e-07
2.46944e-07
2.48068e-07
2.48166e-07
2.48812e-07
2.49137e-07
2.49562e-07
2.49857e-07
2.50132e-07
2.50338e-07
2.50502e-07
2.50623e-07
2.50706e-07
2.50756e-07
2.50777e-07
2.50771e-07
2.50747e-07
2.50715e-07
2.5067e-07
2.50631e-07
2.50581e-07
2.50579e-07
2.50381e-07
2.50662e-07
2.50205e-07
2.50754e-07
2.50447e-07
2.51037e-07
2.51666e-07
2.5225e-07
2.55459e-07
2.57077e-07
2.67009e-07
2.78643e-07
4.04572e-07
2.18488e-06
2.03319e-05
0.00011711
0.000386261
0.000762881
0.00111722
0.0017884
0.00288421
0.00441264
0.0056516
0.00724779
0.0116375
0.0142327
0.037193
0.00736593
0.00982226
0.00788688
0.00570584
0.00449065
0.0036865
0.00309945
0.00261208
0.00219227
0.00184891
0.00159823
0.00143011
0.00132321
0.00124071
0.00110067
0.00090296
0.000747063
0.000566997
0.000331392
0.000148013
5.40326e-05
1.80395e-05
6.37825e-06
2.80523e-06
1.65099e-06
1.22575e-06
1.02946e-06
9.12931e-07
8.26343e-07
7.54765e-07
6.9243e-07
6.34485e-07
5.91301e-07
5.52435e-07
4.55015e-07
9.71112e-07
4.19064e-07
1.62435e-07
1.78868e-07
1.39422e-07
1.53711e-07
1.32712e-07
1.40551e-07
1.2414e-07
1.29239e-07
1.17286e-07
1.20808e-07
1.13195e-07
1.15494e-07
1.1098e-07
1.12321e-07
1.09994e-07
1.10523e-07
1.09617e-07
1.09678e-07
1.09487e-07
1.09502e-07
1.0954e-07
1.09632e-07
1.09759e-07
1.09911e-07
1.10086e-07
1.10276e-07
1.10474e-07
1.1068e-07
1.10887e-07
1.11094e-07
1.11287e-07
1.11512e-07
1.11625e-07
1.11999e-07
1.11915e-07
1.12444e-07
1.12158e-07
1.12902e-07
1.12303e-07
1.13526e-07
1.12599e-07
1.14862e-07
1.15004e-07
1.22427e-07
2.52041e-07
3.6746e-06
4.09216e-05
0.000185224
0.000452491
0.000886566
0.00124451
0.00185037
0.00340826
0.00562262
0.00664609
0.00860282
0.00936136
0.00942283
0.0310981
0.00475264
0.00993729
0.00596728
0.00391629
0.00309574
0.0024373
0.00205184
0.00184833
0.00177282
0.00174363
0.00167348
0.00149694
0.00123048
0.0010649
0.000976287
0.000913193
0.000845662
0.000699598
0.000435946
0.000224159
0.000106369
4.98922e-05
2.31657e-05
1.05933e-05
4.87069e-06
2.3775e-06
1.33559e-06
8.97246e-07
7.10703e-07
6.30862e-07
5.99407e-07
5.6396e-07
5.22438e-07
4.73664e-07
3.45862e-07
2.32982e-06
1.12352e-06
4.61334e-07
5.52842e-07
3.00476e-07
3.48457e-07
2.26141e-07
2.59482e-07
1.77481e-07
2.00329e-07
1.43803e-07
1.59463e-07
1.2547e-07
1.3473e-07
1.16179e-07
1.20403e-07
1.11503e-07
1.1259e-07
1.09031e-07
1.08764e-07
1.07718e-07
1.07461e-07
1.07335e-07
1.07466e-07
1.07778e-07
1.08237e-07
1.08826e-07
1.09512e-07
1.10275e-07
1.11114e-07
1.12023e-07
1.12979e-07
1.13943e-07
1.14918e-07
1.15921e-07
1.169e-07
1.17903e-07
1.18878e-07
1.19524e-07
1.20862e-07
1.20309e-07
1.2293e-07
1.19725e-07
1.24981e-07
1.18469e-07
1.27465e-07
2.00953e-07
5.87558e-06
5.25592e-05
0.000190489
0.000523738
0.000841204
0.00137281
0.00339965
0.00818322
0.0101087
0.00883161
0.0124676
0.0105453
0.00912101
0.0328938
0.0046651
0.00395732
0.00285023
0.00315085
0.00241918
0.00234656
0.00216078
0.00199057
0.00184179
0.00169674
0.00158415
0.0015061
0.00145344
0.00146735
0.00151711
0.00155887
0.00151086
0.00127523
0.000955544
0.000680248
0.000452723
0.000277573
0.000154606
7.98409e-05
3.74585e-05
1.63688e-05
7.0282e-06
3.09996e-06
1.4632e-06
8.00706e-07
5.28863e-07
4.12308e-07
3.67006e-07
3.63415e-07
1.91291e-07
4.67078e-06
2.592e-06
1.50278e-06
1.90249e-06
1.0488e-06
1.12119e-06
7.3047e-07
7.80582e-07
5.58625e-07
5.93504e-07
4.30215e-07
4.67751e-07
3.5925e-07
3.88863e-07
3.23226e-07
3.40088e-07
3.06636e-07
3.13055e-07
2.99637e-07
3.00682e-07
2.97603e-07
2.98397e-07
2.99567e-07
3.01951e-07
3.0515e-07
3.09015e-07
3.13459e-07
3.18371e-07
3.23651e-07
3.29313e-07
3.35365e-07
3.41667e-07
3.48064e-07
3.54549e-07
3.61308e-07
3.67635e-07
3.75182e-07
3.81168e-07
3.88719e-07
3.95529e-07
4.00847e-07
4.11535e-07
4.1091e-07
4.32043e-07
4.22308e-07
4.67685e-07
5.66325e-07
5.18167e-06
4.34367e-05
0.000182799
0.000581089
0.000868722
0.00172519
0.00856742
0.0163268
0.0183831
0.0189454
0.0210372
0.00957914
0.0089542
0.0424664
0.00447934
0.00390281
0.00320878
0.00338003
0.00305483
0.00306679
0.00293
0.0029235
0.00284647
0.00280898
0.00282087
0.00294312
0.00318403
0.00344385
0.00360161
0.00366122
0.00346947
0.00313066
0.00267147
0.00220261
0.00173972
0.00130279
0.000928296
0.000611176
0.000356974
0.000191404
9.3001e-05
4.10753e-05
1.60399e-05
6.32205e-06
2.53626e-06
1.12581e-06
5.4726e-07
3.63035e-07
1.9977e-07
1.00354e-05
6.2951e-06
4.24965e-06
5.38718e-06
2.91872e-06
2.69488e-06
1.81888e-06
1.72234e-06
1.44058e-06
1.36435e-06
1.14516e-06
1.15309e-06
9.85814e-07
1.02499e-06
9.07562e-07
9.42051e-07
8.77255e-07
8.96777e-07
8.72558e-07
8.82167e-07
8.80609e-07
8.89442e-07
8.98796e-07
9.11312e-07
9.2588e-07
9.42099e-07
9.59772e-07
9.78572e-07
9.9827e-07
1.01897e-06
1.04087e-06
1.0635e-06
1.08653e-06
1.10998e-06
1.13527e-06
1.15926e-06
1.19113e-06
1.21414e-06
1.25255e-06
1.27506e-06
1.31997e-06
1.34595e-06
1.40043e-06
1.4482e-06
1.51532e-06
1.64973e-06
1.74159e-06
2.62107e-06
1.30879e-05
7.63792e-05
0.000301102
0.000612665
0.00232051
0.0128126
0.0190326
0.0173097
0.0187757
0.0192869
0.0104932
0.010591
0.0495644
0.00575365
0.00538689
0.00535751
0.00555558
0.00543568
0.00539051
0.00532526
0.00532544
0.00543275
0.00561773
0.00583991
0.00612173
0.0063886
0.00654298
0.00661696
0.00662952
0.00655298
0.00640848
0.00615575
0.00582812
0.00540286
0.00484646
0.0042543
0.00357988
0.00277436
0.00196676
0.00120551
0.000614465
0.000293019
0.000139966
6.02375e-05
2.43407e-05
5.88744e-06
1.40801e-06
2.25771e-07
2.1372e-05
1.47029e-05
9.57292e-06
1.20064e-05
6.34871e-06
4.82592e-06
3.0889e-06
2.53854e-06
2.47656e-06
2.12802e-06
2.06481e-06
1.95447e-06
1.88353e-06
1.87818e-06
1.80922e-06
1.83875e-06
1.79862e-06
1.82771e-06
1.82145e-06
1.84715e-06
1.86202e-06
1.88803e-06
1.91461e-06
1.94483e-06
1.97709e-06
2.01091e-06
2.04607e-06
2.08235e-06
2.11956e-06
2.15781e-06
2.19735e-06
2.23771e-06
2.27882e-06
2.32084e-06
2.36404e-06
2.40247e-06
2.44897e-06
2.48313e-06
2.53639e-06
2.56602e-06
2.63215e-06
2.65817e-06
2.75197e-06
2.78541e-06
2.93027e-06
3.02066e-06
3.29242e-06
3.35417e-06
5.55562e-06
2.28791e-05
0.000118622
0.000354643
0.00105331
0.00537973
0.0119569
0.0154002
0.0137517
0.0155581
0.0144346
0.0145406
0.0421253
0.00589736
0.00538259
0.00528236
0.00525489
0.00519589
0.00518998
0.00526656
0.00535501
0.00547136
0.00568122
0.00584122
0.00603377
0.00627446
0.00650692
0.00672269
0.00691809
0.0070649
0.0073529
0.00763706
0.00790352
0.0081778
0.0082698
0.00824096
0.00808377
0.00769496
0.00711977
0.00631857
0.00520517
0.00377144
0.0026158
0.00161155
0.000888158
0.000254881
3.93388e-05
5.60269e-07
3.80661e-05
3.06446e-05
1.73573e-05
2.17953e-05
1.2777e-05
8.13472e-06
4.38794e-06
3.29275e-06
3.08818e-06
2.63618e-06
2.61345e-06
2.46022e-06
2.45606e-06
2.42881e-06
2.42362e-06
2.43649e-06
2.44695e-06
2.47007e-06
2.49314e-06
2.52085e-06
2.55014e-06
2.5811e-06
2.61328e-06
2.64602e-06
2.67884e-06
2.71168e-06
2.74434e-06
2.77686e-06
2.80917e-06
2.84124e-06
2.87264e-06
2.90393e-06
2.93522e-06
2.96738e-06
3.00047e-06
3.03267e-06
3.06799e-06
3.09772e-06
3.13827e-06
3.16302e-06
3.21632e-06
3.23349e-06
3.31122e-06
3.32246e-06
3.4552e-06
3.47712e-06
3.72692e-06
3.85221e-06
4.49409e-06
9.10807e-06
6.96483e-05
0.000309795
0.000753031
0.00179481
0.00571586
0.0103485
0.0189819
0.0228536
0.0155124
0.0156604
0.044387
0.00691253
0.00664245
0.00650607
0.00646243
0.00625981
0.00618359
0.00599657
0.00585336
0.00566617
0.00558349
0.00548927
0.00545941
0.00546931
0.00550843
0.00561689
0.0057068
0.00573877
0.00590266
0.00606975
0.00619525
0.00647386
0.00655673
0.00655008
0.00660297
0.00665331
0.0066113
0.00646526
0.00606786
0.00542017
0.00461973
0.0035071
0.00255733
0.00137117
0.000587901
0.000140472
3.95958e-05
5.68237e-05
2.9658e-05
3.61096e-05
2.80843e-05
1.51429e-05
6.63733e-06
3.72919e-06
3.37703e-06
2.809e-06
2.86626e-06
2.65271e-06
2.70718e-06
2.64986e-06
2.67861e-06
2.67711e-06
2.70454e-06
2.71998e-06
2.74874e-06
2.77191e-06
2.80015e-06
2.82687e-06
2.85482e-06
2.882e-06
2.90831e-06
2.9337e-06
2.958e-06
2.98162e-06
3.00454e-06
3.02657e-06
3.04713e-06
3.06722e-06
3.08688e-06
3.10703e-06
3.12744e-06
3.14869e-06
3.16889e-06
3.18784e-06
3.21018e-06
3.22415e-06
3.25453e-06
3.25649e-06
3.30069e-06
3.28901e-06
3.36876e-06
3.33793e-06
3.49701e-06
3.48772e-06
4.37429e-06
1.16253e-05
8.90793e-05
0.000360728
0.000734979
0.00115286
0.0022125
0.00629777
0.0212008
0.0321296
0.00872181
0.00865433
0.0516909
0.00593943
0.00586919
0.00419798
0.00398811
0.00359998
0.00361879
0.00309115
0.0028559
0.00233907
0.00206386
0.00181156
0.0015984
0.00143615
0.00130111
0.00122636
0.00116563
0.00108811
0.00100142
0.000899093
0.000792182
0.00074231
0.00072555
0.000738743
0.000773018
0.000784344
0.000770321
0.000746697
0.000709797
0.000643997
0.000569324
0.000455448
0.00032836
0.000200098
9.3365e-05
2.19343e-06
2.759e-05
9.91823e-05
5.17837e-05
5.97871e-05
5.99337e-05
3.45369e-05
1.2543e-05
4.26131e-06
3.18024e-06
2.4547e-06
2.59142e-06
2.33937e-06
2.52544e-06
2.4248e-06
2.54687e-06
2.51707e-06
2.58767e-06
2.58445e-06
2.62664e-06
2.63579e-06
2.66063e-06
2.67387e-06
2.68777e-06
2.69845e-06
2.70708e-06
2.71266e-06
2.71455e-06
2.71408e-06
2.71199e-06
2.70801e-06
2.70065e-06
2.69285e-06
2.68416e-06
2.67508e-06
2.66489e-06
2.66429e-06
2.65393e-06
2.65286e-06
2.64014e-06
2.63618e-06
2.63212e-06
2.6331e-06
2.65407e-06
2.65651e-06
2.70079e-06
2.70086e-06
2.81451e-06
2.88068e-06
4.11381e-06
1.7394e-05
0.000130058
0.000482994
0.000920244
0.00138101
0.00226165
0.00601501
0.0190555
0.026146
0.00703826
0.00665562
0.0493652
0.00462837
0.00384678
0.00158239
0.00119748
0.00084196
0.000877189
0.000705672
0.000684043
0.000610979
0.000550121
0.000476207
0.000413709
0.000359793
0.000308557
0.000275398
0.000254986
0.000235622
0.000202521
0.000146784
0.00010085
6.4095e-05
4.16922e-05
3.14459e-05
2.74505e-05
2.5732e-05
2.45382e-05
2.32986e-05
2.21228e-05
2.05041e-05
1.92767e-05
1.76849e-05
1.54798e-05
1.30818e-05
1.22767e-05
1.35879e-06
6.57403e-05
0.000126455
9.56206e-05
0.000104551
0.000107876
8.34706e-05
3.30292e-05
7.28453e-06
3.1154e-06
2.30048e-06
2.11067e-06
1.95266e-06