/*--------------------------------*- C++ -*----------------------------------*\
| =========                 |                                                 |
| \\      /  F ield         | OpenFOAM: The Open Source CFD Toolbox           |
|  \\    /   O peration     | Version:  2.3.0                                 |
|   \\  /    A nd           | Web:      www.OpenFOAM.org                      |
|    \\/     M anipulation  |                                                 |
\*---------------------------------------------------------------------------*/
FoamFile
{
    version     2.0;
    format      ascii;
    class       surfaceScalarField;
    location    "5";
    object      phi;
}
// * * * * * * * * * * * * * * * * * * * * * * * * * * * * * * * * * * * * * //

dimensions      [0 3 -1 0 0 0 0];

internalField   nonuniform List<scalar> 
16448
(
-2.77503e-06
-2.00456e-06
7.23281e-07
-1.64858e-06
-1.96831e-06
8.41868e-07
-1.28838e-06
-1.46806e-06
1.10786e-06
-9.65124e-07
-1.44208e-06
1.11883e-06
-8.66256e-07
-1.24321e-06
1.14434e-06
-7.32634e-07
-1.27926e-06
1.14564e-06
-6.94773e-07
-1.18064e-06
1.14278e-06
-5.97781e-07
-1.24014e-06
1.14315e-06
-5.64454e-07
-1.17245e-06
1.13913e-06
-4.81403e-07
-1.22306e-06
1.14002e-06
-4.47422e-07
-1.17057e-06
1.1366e-06
-3.79795e-07
-1.20333e-06
1.13571e-06
-3.47919e-07
-1.16474e-06
1.13287e-06
-2.98236e-07
-1.18118e-06
1.1315e-06
-2.69806e-07
-1.15783e-06
1.12941e-06
-2.35949e-07
-1.16172e-06
1.12787e-06
-2.12374e-07
-1.14984e-06
1.12627e-06
-1.89671e-07
-1.14766e-06
1.12496e-06
-1.71634e-07
-1.1418e-06
1.12377e-06
-1.56054e-07
-1.13832e-06
1.12275e-06
-1.43083e-07
-1.13483e-06
1.12187e-06
-1.32128e-07
-1.13207e-06
1.12112e-06
-1.22865e-07
-1.12976e-06
1.1205e-06
-1.14958e-07
-1.12789e-06
1.11999e-06
-1.08123e-07
-1.12642e-06
1.11959e-06
-1.02103e-07
-1.12529e-06
1.11927e-06
-9.66747e-08
-1.12447e-06
1.11905e-06
-9.16276e-08
-1.12394e-06
1.11889e-06
-8.67797e-08
-1.12364e-06
1.1188e-06
-8.19711e-08
-1.12354e-06
1.11873e-06
-7.70176e-08
-1.12362e-06
1.11867e-06
-7.17792e-08
-1.12385e-06
1.11861e-06
-6.58853e-08
-1.12445e-06
1.11856e-06
-5.99264e-08
-1.12475e-06
1.11879e-06
-5.20504e-08
-1.12625e-06
1.11837e-06
-4.48718e-08
-1.12606e-06
1.11888e-06
-3.45502e-08
-1.12762e-06
1.1173e-06
-2.57057e-08
-1.1278e-06
1.11896e-06
-1.2167e-08
-1.12762e-06
1.11408e-06
-2.9633e-09
-1.12843e-06
1.11922e-06
1.23921e-08
-1.12195e-06
1.1066e-06
2.66238e-08
-1.12797e-06
1.11374e-06
2.96442e-08
-1.09657e-06
1.09354e-06
4.20683e-08
-1.10953e-06
1.09711e-06
1.98911e-08
-1.03817e-06
1.06034e-06
-9.98426e-09
-1.02022e-06
1.05009e-06
-1.0857e-07
-8.87243e-07
9.85825e-07
-2.622e-07
-7.59462e-07
9.13091e-07
-5.95688e-07
-4.43997e-07
7.77482e-07
-1.29337e-06
1.09171e-07
5.88505e-07
-2.6171e-06
8.83489e-07
4.40246e-07
-4.31891e-06
1.04759e-06
6.54227e-07
-5.90257e-06
2.72107e-07
1.31155e-06
-5.20801e-06
-3.35582e-06
2.66127e-06
-2.66973e-06
-5.66759e-06
3.12932e-06
-9.77712e-07
-4.27519e-06
2.58316e-06
-7.15203e-07
3.21747e-08
-2.9469e-07
-3.04457e-06
1.07525e-06
1.25411e-06
-6.82134e-06
-3.8538e-07
4.16218e-06
-3.07341e-07
-1.79518e-05
1.14379e-05
1.84778e-05
-2.29888e-05
4.20367e-06
2.63763e-05
-1.09988e-05
3.10025e-06
2.48689e-05
-3.52351e-07
1.8598e-06
2.63758e-05
-2.29554e-06
7.88646e-07
2.72562e-05
-1.07951e-06
1.99087e-07
2.72775e-05
2.57694e-07
-2.78986e-07
2.68391e-05
9.41679e-07
-5.03325e-07
2.63637e-05
1.08494e-06
-6.09559e-07
2.5867e-05
1.11855e-06
-6.21831e-07
2.52483e-05
1.15814e-06
-5.39447e-07
2.45672e-05
1.17075e-06
-4.89624e-07
2.36405e-05
1.26379e-06
-3.37153e-07
2.22641e-05
1.44332e-06
-6.68921e-08
2.0803e-05
1.26867e-06
1.92452e-07
1.84982e-05
1.31364e-06
9.91104e-07
1.44108e-05
1.8847e-06
2.20276e-06
9.98761e-06
1.88573e-06
2.53743e-06
7.23279e-06
1.03596e-06
1.71885e-06
6.35868e-06
1.03895e-07
7.70212e-07
6.46277e-06
-5.1143e-07
4.07342e-07
6.78643e-06
-8.75731e-07
5.52071e-07
6.99014e-06
-1.07742e-06
8.73711e-07
7.00332e-06
-1.13415e-06
1.12097e-06
6.78875e-06
-1.06394e-06
1.27851e-06
6.32847e-06
-9.391e-07
1.39938e-06
5.75516e-06
-8.67483e-07
1.44079e-06
5.13979e-06
-8.5444e-07
1.46982e-06
4.51918e-06
-8.71946e-07
1.49256e-06
3.90718e-06
-8.95419e-07
1.50741e-06
3.30993e-06
-9.21169e-07
1.51843e-06
2.72919e-06
-9.48272e-07
1.52901e-06
2.164e-06
-9.74659e-07
1.53985e-06
1.61811e-06
-1.00223e-06
1.54812e-06
1.0782e-06
-1.01196e-06
1.55187e-06
5.41536e-07
-1.01788e-06
1.55454e-06
-1.0098e-06
1.55133e-06
-2.90223e-06
-3.01161e-06
-2.51661e-07
-1.76309e-06
-3.06e-06
-4.74472e-08
-1.48925e-06
-2.12911e-06
3.87209e-07
-1.21166e-06
-2.16282e-06
4.43145e-07
-1.14405e-06
-1.82881e-06
5.17983e-07
-1.01364e-06
-1.93049e-06
5.2081e-07
-9.58619e-07
-1.78012e-06
5.44465e-07
-8.44155e-07
-1.8918e-06
5.37201e-07
-7.88693e-07
-1.78123e-06
5.53313e-07
-6.84578e-07
-1.87461e-06
5.47438e-07
-6.30907e-07
-1.78382e-06
5.59579e-07
-5.4391e-07
-1.84735e-06
5.57024e-07
-4.95727e-07
-1.77833e-06
5.6541e-07
-4.29594e-07
-1.81181e-06
5.64505e-07
-3.91135e-07
-1.76584e-06
5.69551e-07
-3.45733e-07
-1.777e-06
5.69876e-07
-3.15285e-07
-1.75265e-06
5.72371e-07
-2.85439e-07
-1.7507e-06
5.73201e-07
-2.62521e-07
-1.73913e-06
5.74417e-07
-2.42483e-07
-1.73362e-06
5.75264e-07
-2.26031e-07
-1.72734e-06
5.76063e-07
-2.12192e-07
-1.72266e-06
5.76758e-07
-2.00603e-07
-1.71873e-06
5.77394e-07
-1.90817e-07
-1.71566e-06
5.77984e-07
-1.82484e-07
-1.71329e-06
5.78543e-07
-1.75278e-07
-1.71157e-06
5.79078e-07
-1.68918e-07
-1.71042e-06
5.79589e-07
-1.63181e-07
-1.70975e-06
5.80075e-07
-1.5785e-07
-1.70952e-06
5.80542e-07
-1.52688e-07
-1.70971e-06
5.81009e-07
-1.47475e-07
-1.7103e-06
5.81458e-07
-1.41915e-07
-1.71124e-06
5.81829e-07
-1.36192e-07
-1.71223e-06
5.82058e-07
-1.29943e-07
-1.71353e-06
5.82532e-07
-1.23018e-07
-1.71536e-06
5.82188e-07
-1.14927e-07
-1.7175e-06
5.83348e-07
-1.06289e-07
-1.71796e-06
5.81693e-07
-9.52575e-08
-1.72296e-06
5.84124e-07
-8.55995e-08
-1.71709e-06
5.79813e-07
-6.9739e-08
-1.72903e-06
5.84738e-07
-6.12947e-08
-1.70508e-06
5.7468e-07
-4.11049e-08
-1.73056e-06
5.82396e-07
-3.79372e-08
-1.66349e-06
5.63753e-07
-1.90191e-08
-1.69931e-06
5.70855e-07
-3.13149e-08
-1.56649e-06
5.40613e-07
-3.62791e-08
-1.54669e-06
5.3142e-07
-1.03128e-07
-1.30211e-06
4.81704e-07
-2.0484e-07
-1.07265e-06
4.14893e-07
-4.4751e-07
-5.11298e-07
3.0996e-07
-8.27314e-07
3.62291e-07
1.26673e-07
-1.18803e-06
1.37249e-06
-1.28289e-07
-1.39031e-06
1.21032e-06
3.95331e-08
-7.59536e-07
-1.03791e-06
6.79238e-07
-1.10462e-06
-5.24119e-06
2.23043e-06
-5.36123e-07
-9.53603e-06
3.29993e-06
9.20056e-07
-7.99792e-06
2.26654e-06
-1.18916e-06
6.00206e-06
-3.86069e-06
-9.22926e-06
8.8315e-06
2.83839e-07
-7.26121e-06
7.53118e-07
-3.1065e-06
9.99695e-08
-2.90113e-05
3.69834e-06
6.40032e-06
-3.30463e-05
3.75722e-06
6.93775e-06
-1.30377e-05
1.50149e-06
1.32849e-05
-4.73252e-06
-1.96695e-06
1.58452e-05
-2.49136e-06
-2.36453e-06
1.70868e-05
3.55977e-07
-2.67709e-06
1.89103e-05
1.39543e-06
-2.96127e-06
2.04581e-05
2.2721e-06
-2.87817e-06
2.13637e-05
2.84739e-06
-2.66804e-06
2.18652e-05
3.13166e-06
-2.51467e-06
2.21285e-05
3.32083e-06
-2.42593e-06
2.22485e-05
3.21105e-06
-2.16039e-06
2.19909e-05
3.07242e-06
-1.55102e-06
2.11278e-05
2.86456e-06
-5.58102e-07
1.93433e-05
2.64969e-06
4.03434e-07
1.60807e-05
2.83508e-06
1.74122e-06
1.16614e-05
3.46635e-06
2.83761e-06
8.09148e-06
2.84673e-06
2.60893e-06
6.47192e-06
1.32124e-06
1.33428e-06
6.30334e-06
6.92242e-08
2.03256e-07
6.69059e-06
-6.55558e-07
-2.43122e-07
7.05883e-06
-1.02119e-06
-2.22788e-07
7.21533e-06
-1.14597e-06
-8.79494e-08
7.16857e-06
-1.14517e-06
5.77841e-08
6.97462e-06
-1.07e-06
2.00011e-07
6.66523e-06
-9.7052e-07
3.40811e-07
6.2188e-06
-8.81132e-07
4.60081e-07
5.65783e-06
-8.36911e-07
5.43442e-07
5.03154e-06
-8.43976e-07
5.9832e-07
4.38396e-06
-8.7054e-07
6.22696e-07
3.74147e-06
-9.12925e-07
6.34251e-07
3.10591e-06
-9.62301e-07
6.49584e-07
2.47334e-06
-1.01233e-06
6.70237e-07
1.85565e-06
-1.0671e-06
6.82555e-07
1.23291e-06
-1.08201e-06
6.92795e-07
6.19471e-07
-1.09091e-06
6.8647e-07
-1.10066e-06
7.10335e-07
-2.54965e-06
-3.245e-06
-8.62236e-07
-1.42457e-06
-3.45843e-06
-7.26657e-07
-1.33487e-06
-2.17051e-06
-4.82985e-08
-1.12818e-06
-2.37588e-06
6.37084e-09
-1.10523e-06
-1.94912e-06
9.73546e-08
-9.98085e-07
-2.12645e-06
8.88069e-08
-9.53905e-07
-1.94296e-06
1.18653e-07
-8.4083e-07
-2.10321e-06
9.83312e-08
-7.84371e-07
-1.96156e-06
1.23876e-07
-6.75792e-07
-2.0916e-06
1.08414e-07
-6.2081e-07
-1.96767e-06
1.28878e-07
-5.3288e-07
-2.05523e-06
1.19959e-07
-4.8683e-07
-1.95823e-06
1.33852e-07
-4.2196e-07
-2.00593e-06
1.29259e-07
-3.84371e-07
-1.94031e-06
1.36887e-07
-3.38493e-07
-1.95779e-06
1.34922e-07
-3.10379e-07
-1.91991e-06
1.39155e-07
-2.80601e-07
-1.91925e-06
1.3878e-07
-2.59568e-07
-1.90059e-06
1.40431e-07
-2.40492e-07
-1.89324e-06
1.40554e-07
-2.2531e-07
-1.88346e-06
1.40944e-07
-2.12519e-07
-1.87637e-06
1.40927e-07
-2.01917e-07
-1.87013e-06
1.40798e-07
-1.93018e-07
-1.86506e-06
1.40514e-07
-1.8549e-07
-1.86094e-06
1.40124e-07
-1.79023e-07
-1.85768e-06
1.39644e-07
-1.7333e-07
-1.8552e-06
1.39092e-07
-1.68166e-07
-1.8534e-06
1.38493e-07
-1.63321e-07
-1.85222e-06
1.37861e-07
-1.58591e-07
-1.85163e-06
1.37193e-07
-1.53786e-07
-1.85157e-06
1.36475e-07
-1.48727e-07
-1.85207e-06
1.35777e-07
-1.4326e-07
-1.85274e-06
1.35038e-07
-1.37292e-07
-1.85417e-06
1.34674e-07
-1.30093e-07
-1.856e-06
1.33441e-07
-1.22363e-07
-1.8591e-06
1.33874e-07
-1.12303e-07
-1.8595e-06
1.31479e-07
-1.0161e-07
-1.8668e-06
1.33146e-07
-8.75169e-08
-1.85973e-06
1.28546e-07
-7.17143e-08
-1.87712e-06
1.3229e-07
-5.16691e-08
-1.84832e-06
1.23181e-07
-2.80171e-08
-1.8836e-06
1.2938e-07
5.63524e-09
-1.80997e-06
1.1282e-07
3.94175e-08
-1.85086e-06
1.17757e-07
8.44697e-08
-1.70997e-06
9.84126e-08
1.49983e-07
-1.69513e-06
8.29206e-08
2.27214e-07
-1.43878e-06
5.94279e-08
3.56503e-07
-1.21513e-06
1.31836e-08
5.03939e-07
-6.18566e-07
-4.0178e-08
7.95765e-07
2.36367e-07
-1.65911e-07
1.58206e-06
1.03937e-06
-4.53188e-07
2.69057e-06
7.13584e-07
-6.11792e-07
4.21511e-06
-2.44036e-06
-1.2211e-07
4.45228e-06
-7.11825e-06
1.63988e-06
1.67936e-06
-9.93063e-06
3.1675e-06
-1.7364e-06
-7.94069e-06
3.35851e-06
5.67409e-06
4.22218e-06
-5.63063e-06
1.05065e-06
1.50237e-05
-1.56875e-06
-4.02445e-06
6.65129e-06
-8.23063e-07
1.38639e-07
-3.32176e-05
4.31789e-08
1.13295e-07
-3.70545e-05
4.03357e-06
1.22416e-07
-1.51146e-05
2.06775e-06
1.12601e-05
-1.43467e-05
-1.52348e-06
1.11254e-05
-3.96048e-07
-1.96064e-06
1.27118e-05
1.00615e-06
-2.23656e-06
1.47713e-05
1.64974e-06
-2.31382e-06
1.64444e-05
2.90142e-06
-2.30246e-06
1.76256e-05
3.79615e-06
-2.12994e-06
1.83758e-05
3.92295e-06
-1.54149e-06
1.89172e-05
3.41112e-06
-6.31726e-07
1.8921e-05
2.86197e-06
3.45311e-07
1.79268e-05
2.67821e-06
1.38846e-06
1.5011e-05
3.01336e-06
2.76694e-06
9.92879e-06
3.57853e-06
4.15338e-06
4.93598e-06
3.51324e-06
4.31465e-06
2.56609e-06
2.35196e-06
3.48427e-06
2.18761e-06
9.72783e-07
2.25244e-06
2.66803e-06
-1.43836e-07
9.84654e-07
3.52679e-06
-8.13362e-07
2.38359e-08
4.41398e-06
-1.08142e-06
-4.61332e-07
5.12361e-06
-1.17202e-06
-5.58797e-07
5.63274e-06
-1.12881e-06
-5.26285e-07
5.98464e-06
-1.00195e-06
-4.95127e-07
6.16759e-06
-8.16535e-07
-4.36414e-07
6.18145e-06
-6.355e-07
-3.48882e-07
6.01927e-06
-4.69342e-07
-2.49608e-07
5.67721e-06
-3.61843e-07
-1.33009e-07
5.16729e-06
-3.11031e-07
-2.30227e-08
4.56075e-06
-3.20833e-07
5.68252e-08
3.90573e-06
-3.66425e-07
1.08529e-07
3.23311e-06
-4.25371e-07
1.35687e-07
2.56742e-06
-4.96826e-07
1.5019e-07
1.92342e-06
-6.03368e-07
1.80275e-07
1.28626e-06
-6.86713e-07
2.41858e-07
6.52572e-07
-7.80633e-07
3.23416e-07
-8.73028e-07
4.2494e-07
-2.38773e-06
-3.06305e-06
-9.68167e-07
-1.25663e-06
-3.60315e-06
-9.86382e-07
-1.29397e-06
-1.85923e-06
-2.73952e-07
-1.12871e-06
-2.29213e-06
-2.49023e-07
-1.154e-06
-1.77709e-06
-1.46741e-07
-1.05869e-06
-2.05535e-06
-1.66409e-07
-1.0175e-06
-1.8566e-06
-1.27552e-07
-8.91129e-07
-2.0686e-06
-1.60978e-07
-8.25546e-07
-1.90585e-06
-1.21286e-07
-7.01718e-07
-2.06849e-06
-1.46929e-07
-6.39668e-07
-1.91578e-06
-1.13935e-07
-5.41328e-07
-2.02436e-06
-1.29203e-07
-4.92865e-07
-1.89928e-06
-1.07398e-07
-4.23563e-07
-1.96059e-06
-1.14635e-07
-3.8768e-07
-1.87303e-06
-1.03155e-07
-3.41046e-07
-1.89811e-06
-1.06307e-07
-3.14497e-07
-1.84513e-06
-1.01332e-07
-2.84349e-07
-1.84666e-06
-1.02733e-07
-2.65236e-07
-1.81876e-06
-1.00936e-07
-2.46763e-07
-1.81015e-06
-1.01563e-07
-2.32907e-07
-1.79563e-06
-1.01679e-07
-2.21105e-07
-1.78567e-06
-1.02493e-07
-2.11513e-07
-1.77627e-06
-1.03441e-07
-2.03537e-07
-1.7684e-06
-1.04639e-07
-1.96853e-07
-1.76163e-06
-1.05989e-07
-1.91146e-07
-1.75591e-06
-1.0747e-07
-1.86155e-07
-1.75113e-06
-1.09053e-07
-1.81669e-07
-1.74717e-06
-1.10711e-07
-1.77484e-07
-1.74397e-06
-1.12427e-07
-1.73402e-07
-1.74151e-06
-1.14194e-07
-1.69221e-07
-1.73975e-06
-1.16005e-07
-1.64764e-07
-1.73867e-06
-1.17862e-07
-1.59787e-07
-1.73784e-06
-1.19876e-07
-1.54383e-07
-1.73805e-06
-1.21531e-07
-1.47339e-07
-1.73904e-06
-1.2401e-07
-1.40207e-07
-1.74134e-06
-1.24894e-07
-1.29193e-07
-1.74176e-06
-1.28753e-07
-1.18887e-07
-1.7488e-06
-1.28311e-07
-1.00889e-07
-1.74316e-06
-1.34574e-07
-8.49086e-08
-1.76117e-06
-1.31939e-07
-5.37514e-08
-1.73674e-06
-1.42739e-07
-2.47316e-08
-1.77428e-06
-1.38339e-07
3.05347e-08
-1.7109e-06
-1.54346e-07
1.01794e-07
-1.76286e-06
-1.59262e-07
2.04201e-07
-1.64266e-06
-1.69719e-07
3.73395e-07
-1.65969e-06
-2.04642e-07
6.19791e-07
-1.45795e-06
-2.27231e-07
1.02631e-06
-1.32749e-06
-2.94174e-07
1.69771e-06
-9.01244e-07
-3.88728e-07
2.67171e-06
-3.64808e-07
-3.72835e-07
4.1456e-06
2.2285e-07
-6.5738e-07
6.18695e-06
-1.97645e-07
-1.13014e-06
7.5088e-06
-2.61929e-06
-1.14293e-06
7.07391e-06
-7.68381e-06
1.00042e-06
4.79187e-06
-9.20154e-06
1.55294e-06
-5.38177e-07
-5.21299e-06
2.60232e-06
6.4093e-06
1.16086e-06
-3.88619e-06
5.11242e-06
2.25376e-05
-6.21706e-06
9.60019e-07
6.87215e-06
3.93151e-06
1.77473e-06
-3.31533e-05
-8.79339e-07
-4.07733e-07
-3.90106e-05
4.13858e-06
-7.0039e-06
-1.2465e-05
3.9466e-06
-6.34141e-06
-1.64471e-05
1.43793e-06
-3.14624e-06
-1.17293e-06
-2.4183e-06
2.5733e-06
-1.29676e-06
-3.41664e-06
5.43055e-06
9.15966e-07
-2.12348e-06
7.60998e-06
1.37215e-06
-6.50162e-07
8.66707e-06
2.03359e-06
7.05463e-07
8.40201e-06
2.11534e-06
2.07267e-06
6.3309e-06
2.27632e-06
3.2059e-06
2.86677e-06
2.32411e-06
4.00199e-06
-1.12998e-06
2.28344e-06
4.39153e-06
-4.44469e-06
2.02478e-06
4.30328e-06
-6.26807e-06
1.60335e-06
3.79856e-06
-6.61975e-06
8.28326e-07
3.0366e-06
-6.23706e-06
-9.36151e-08
2.06289e-06
-5.50416e-06
-8.24551e-07
1.06443e-06
-4.51892e-06
-1.36681e-06
2.37741e-07
-3.33745e-06
-1.71313e-06
-2.81705e-07
-2.08125e-06
-1.82847e-06
-5.09144e-07
-8.73171e-07
-1.80941e-06
-5.7069e-07
3.04198e-07
-1.68452e-06
-6.21662e-07
1.43525e-06
-1.46211e-06
-6.7089e-07
2.47884e-06
-1.14508e-06
-7.1505e-07
3.38882e-06
-8.16498e-07
-7.28982e-07
4.07327e-06
-4.80867e-07
-6.72931e-07
4.48308e-06
-1.80944e-07
-5.90712e-07
4.57945e-06
1.06261e-07
-5.13662e-07
4.40202e-06
2.98191e-07
-4.41588e-07
4.00151e-06
3.76631e-07
-3.42547e-07
3.44251e-06
3.4791e-07
-2.14282e-07
2.82981e-06
2.316e-07
-1.1573e-07
2.27181e-06
4.47277e-08
-9.00919e-08
1.66537e-06
4.2554e-09
-8.45354e-08
9.46618e-07
-2.14158e-09
-5.97346e-08
3.57704e-08
3.78188e-08
-2.4292e-06
-2.41319e-06
-9.98475e-07
-1.30063e-06
-3.57531e-06
-1.15641e-06
-1.43056e-06
-1.27657e-06
-4.52723e-07
-1.265e-06
-1.99279e-06
-4.64915e-07
-1.30185e-06
-1.37056e-06
-3.69686e-07
-1.18409e-06
-1.76723e-06
-4.05885e-07
-1.12221e-06
-1.5533e-06
-3.65171e-07
-9.6709e-07
-1.81151e-06
-4.12207e-07
-8.77734e-07
-1.63359e-06
-3.61614e-07
-7.33594e-07
-1.81586e-06
-3.9677e-07
-6.57779e-07
-1.64045e-06
-3.51134e-07
-5.49484e-07
-1.7586e-06
-3.74042e-07
-4.96131e-07
-1.61185e-06
-3.4078e-07
-4.22943e-07
-1.67975e-06
-3.5402e-07
-3.87575e-07
-1.57395e-06
-3.34447e-07
-3.40615e-07
-1.60444e-06
-3.40624e-07
-3.16709e-07
-1.5376e-06
-3.31422e-07
-2.8754e-07
-1.5416e-06
-3.34219e-07
-2.70607e-07
-1.5044e-06
-3.31291e-07
-2.53018e-07
-1.49503e-06
-3.32697e-07
-2.40997e-07
-1.47494e-06
-3.32711e-07
-2.30434e-07
-1.4621e-06
-3.34125e-07
-2.22161e-07
-1.44887e-06
-3.35672e-07
-2.15359e-07
-1.43751e-06
-3.37684e-07
-2.09754e-07
-1.42728e-06
-3.39946e-07
-2.05026e-07
-1.41818e-06
-3.42448e-07
-2.00937e-07
-1.41008e-06
-3.45132e-07
-1.97296e-07
-1.40287e-06
-3.4794e-07
-1.93915e-07
-1.3965e-06
-3.50856e-07
-1.90597e-07
-1.39096e-06
-3.53863e-07
-1.87182e-07
-1.38622e-06
-3.5694e-07
-1.83473e-07
-1.38229e-06
-3.60081e-07
-1.79077e-07
-1.37892e-06
-3.63308e-07
-1.74352e-07
-1.37663e-06
-3.66141e-07
-1.67667e-07
-1.3758e-06
-3.69923e-07
-1.61399e-07
-1.37559e-06
-3.7202e-07
-1.49875e-07
-1.37586e-06
-3.77421e-07
-1.40494e-07
-1.38013e-06
-3.7805e-07
-1.19844e-07
-1.378e-06
-3.85815e-07
-1.04223e-07
-1.39226e-06
-3.84529e-07
-6.52622e-08
-1.37956e-06
-3.96145e-07
-3.15528e-08
-1.41316e-06
-3.94838e-07
3.99179e-08
-1.37382e-06
-4.08554e-07
1.38442e-07
-1.43797e-06
-4.23422e-07
2.73947e-07
-1.35161e-06
-4.26561e-07
5.30892e-07
-1.43527e-06
-4.81365e-07
8.84564e-07
-1.30789e-06
-5.03734e-07
1.56166e-06
-1.40198e-06
-6.02612e-07
2.59297e-06
-1.22494e-06
-7.07618e-07
4.48981e-06
-1.34869e-06
-9.1296e-07
7.45367e-06
-1.64354e-06
-1.09748e-06
1.09468e-05
-1.97009e-06
-1.72067e-06
1.05652e-05
-1.69471e-06
-5.43059e-07
5.01696e-06
-2.15734e-06
2.17664e-08
1.12505e-06
-2.69112e-06
-2.61853e-06
-1.78477e-06
1.94959e-06
-4.25277e-06
8.00383e-06
9.32942e-07
-9.5607e-06
1.34539e-05
2.53609e-05
-8.27341e-06
1.25287e-05
-7.64996e-06
1.54473e-05
5.07298e-07
-2.20667e-05
9.34632e-07
-7.80993e-06
-3.49585e-05
4.26516e-06
-1.47677e-05
-1.08053e-05
5.29809e-06
-1.85182e-05
-1.49299e-05
2.23315e-06
-1.52882e-05
-5.38134e-06
9.78479e-07
-1.44108e-05
-3.00576e-06
8.31589e-07
-1.42999e-05
-7.16707e-07
1.52178e-06
-1.50605e-05
-1.8166e-07
2.31442e-06
-1.63607e-05
6.05584e-07
2.72813e-06
-1.80033e-05
7.18247e-07
3.03975e-06
-1.9553e-05
6.89903e-07
3.13606e-06
-2.06612e-05
3.62886e-07
3.06945e-06
-2.13092e-05
1.21385e-07
2.81008e-06
-2.15155e-05
-2.11982e-07
2.44303e-06
-2.11622e-05
-6.95735e-07
1.94581e-06
-2.04368e-05
-1.22216e-06
1.3251e-06
-1.93416e-05
-1.84895e-06
6.60156e-07
-1.79746e-05
-2.25706e-06
6.54497e-08
-1.63412e-05
-2.69793e-06
-3.02198e-07
-1.45148e-05
-2.98216e-06
-5.57462e-07
-1.26014e-05
-3.0445e-06
-6.97286e-07
-1.06627e-05
-2.95035e-06
-7.97778e-07
-8.70277e-06
-2.77069e-06
-8.73778e-07
-6.69847e-06
-2.4899e-06
-9.76504e-07
-4.67762e-06
-2.09058e-06
-1.07534e-06
-2.69858e-06
-1.66905e-06
-1.1265e-06
-8.63958e-07
-1.18557e-06
-1.12992e-06
6.95698e-07
-6.40525e-07
-1.10007e-06
1.89355e-06
-1.77866e-08
-1.07381e-06
2.65625e-06
5.50701e-07
-1.01521e-06
2.9196e-06
1.02713e-06
-9.13852e-07
2.85451e-06
1.22368e-06
-8.10676e-07
2.49321e-06
1.262e-06
-6.69098e-07
1.85372e-06
1.08958e-06
-4.05359e-07
1.09804e-06
8.87671e-07
-1.27733e-07
5.69835e-07
5.48364e-07
-2.23041e-08
4.49315e-07
1.56291e-07
-2.64637e-06
-1.43029e-06
-9.28716e-07
-1.41658e-06
-3.36732e-06
-1.43777e-06
-1.6723e-06
-4.04576e-07
-6.16287e-07
-1.461e-06
-1.52629e-06
-6.77798e-07
-1.48962e-06
-7.30301e-07
-6.11656e-07
-1.33162e-06
-1.28439e-06
-6.40843e-07
-1.2316e-06
-1.02404e-06
-6.29277e-07
-1.05143e-06
-1.32705e-06
-6.64622e-07
-9.19489e-07
-1.12048e-06
-6.4504e-07
-7.62912e-07
-1.30521e-06
-6.67209e-07
-6.61664e-07
-1.09658e-06
-6.45114e-07
-5.50197e-07
-1.20951e-06
-6.60553e-07
-4.85979e-07
-1.03375e-06
-6.42304e-07
-4.13835e-07
-1.09734e-06
-6.54553e-07
-3.76353e-07
-9.68743e-07
-6.42674e-07
-3.31982e-07
-9.97025e-07
-6.51778e-07
-3.10313e-07
-9.13099e-07
-6.46162e-07
-2.83629e-07
-9.15946e-07
-6.5233e-07
-2.69826e-07
-8.65224e-07
-6.52966e-07
-2.54808e-07
-8.524e-07
-6.57643e-07
-2.45581e-07
-8.24239e-07
-6.59916e-07
-2.36671e-07
-8.07258e-07
-6.63749e-07
-2.30117e-07
-7.88003e-07
-6.67412e-07
-2.24863e-07
-7.71296e-07
-6.7146e-07
-2.20701e-07
-7.55856e-07
-6.75579e-07
-2.17333e-07
-7.41665e-07
-6.7988e-07
-2.14581e-07
-7.28621e-07
-6.84208e-07
-2.12197e-07
-7.16886e-07
-6.88361e-07
-2.09917e-07
-7.06386e-07
-6.92383e-07
-2.07626e-07
-6.96946e-07
-6.96304e-07
-2.05239e-07
-6.88545e-07
-7.00054e-07
-2.02638e-07
-6.81171e-07
-7.03717e-07
-1.99243e-07
-6.74827e-07
-7.07485e-07
-1.9563e-07
-6.69383e-07
-7.10854e-07
-1.89867e-07
-6.66177e-07
-7.1538e-07
-1.85022e-07
-6.62361e-07
-7.18072e-07
-1.73891e-07
-6.62409e-07
-7.24579e-07
-1.66257e-07
-6.62277e-07
-7.25489e-07
-1.44759e-07
-6.64878e-07
-7.34611e-07
-1.30628e-07
-6.72989e-07
-7.33404e-07
-8.78976e-08
-6.75403e-07
-7.46878e-07
-5.37382e-08
-7.01844e-07
-7.45473e-07
2.86549e-08
-6.93581e-07
-7.6263e-07
1.35933e-07
-7.69152e-07
-7.76094e-07
2.93717e-07
-7.22522e-07
-7.86867e-07
5.84359e-07
-8.92257e-07
-8.33655e-07
9.67965e-07
-8.24277e-07
-8.67215e-07
1.6759e-06
-1.16365e-06
-9.4627e-07
2.72339e-06
-1.18708e-06
-1.08534e-06
4.56886e-06
-1.86261e-06
-1.33156e-06
7.04842e-06
-2.54812e-06
-1.57497e-06
9.79385e-06
-2.82063e-06
-1.8949e-06
9.72149e-06
-3.14394e-07
-1.30797e-06
2.75817e-06
5.51262e-06
-7.06661e-07
-2.86184e-06
8.01756e-06
-5.08867e-06
-3.78394e-06
1.0278e-05
-7.40634e-06
8.83678e-06
6.66636e-07
-1.23544e-05
2.70019e-05
1.13638e-05
-4.16814e-06
9.11381e-06
-1.19618e-05
2.21999e-05
-2.80187e-06
-1.09657e-05
8.15078e-07
-2.10378e-05
-2.18026e-05
5.0803e-06
-2.8409e-05
-7.88904e-06
4.45527e-06
-3.63291e-05
-8.91447e-06
1.90493e-06
-3.77807e-05
-4.29948e-06
3.69908e-07
-3.8555e-05
-2.64277e-06
4.11547e-07
-3.90297e-05
-1.33563e-06
1.09371e-06
-3.95374e-05
-1.04676e-06
1.37302e-06
-3.99287e-05
-5.90696e-07
1.58781e-06
-4.02499e-05
-5.48123e-07
1.58775e-06
-4.03797e-05
-7.01364e-07
1.52129e-06
-4.02369e-05
-1.01323e-06
1.23348e-06
-3.98145e-05
-1.24643e-06
9.45602e-07
-3.9166e-05
-1.48718e-06
6.26818e-07
-3.80711e-05
-2.0398e-06
2.49296e-07
-3.68116e-05
-2.35293e-06
-1.28635e-07
-3.53403e-05
-2.84893e-06
-4.71181e-07
-3.35703e-05
-3.27737e-06
-7.49625e-07
-3.16244e-05
-3.72373e-06
-9.2013e-07
-2.94463e-05
-4.12398e-06
-1.03622e-06
-2.70428e-05
-4.31916e-06
-1.12878e-06
-2.45096e-05
-4.28928e-06
-1.19419e-06
-2.19816e-05
-4.05233e-06
-1.24643e-06
-1.92939e-05
-3.82517e-06
-1.35239e-06
-1.64554e-05
-3.55025e-06
-1.37882e-06
-1.352e-05
-3.3142e-06
-1.29022e-06
-1.05393e-05
-2.9458e-06
-1.22044e-06
-7.66947e-06
-2.26788e-06
-1.24251e-06
-4.98459e-06
-1.42376e-06
-1.27891e-06
-2.55337e-06
-5.72571e-07
-1.30795e-06
-6.6221e-07
4.47495e-07
-1.31153e-06
5.63086e-07
1.19964e-06
-1.20126e-06
1.25334e-06
1.58981e-06
-1.01807e-06
1.42004e-06
1.70757e-06
-7.84692e-07
1.19208e-06
1.61347e-06
-4.97834e-07
9.31902e-07
9.53471e-07
-1.44934e-07
9.18175e-07
4.63041e-07
-2.81869e-06
-1.08094e-07
-7.20929e-07
-1.48617e-06
-2.99593e-06
-1.70392e-06
-1.87649e-06
6.37041e-07
-6.51302e-07
-1.57757e-06
-1.06155e-06
-7.63673e-07
-1.59109e-06
-4.00538e-08
-6.76728e-07
-1.40735e-06
-7.7226e-07
-6.95862e-07
-1.28164e-06
-4.27818e-07
-7.21931e-07
-1.09366e-06
-7.71895e-07
-7.43117e-07
-9.25229e-07
-5.2136e-07
-7.67541e-07
-7.79186e-07
-6.803e-07
-7.70944e-07
-6.52539e-07
-4.37545e-07
-7.85667e-07
-5.54957e-07
-5.22924e-07
-7.84155e-07
-4.78023e-07
-3.16355e-07
-7.9432e-07
-4.16971e-07
-3.63827e-07
-7.94549e-07
-3.74389e-07
-2.09636e-07
-8.01678e-07
-3.37067e-07
-2.29637e-07
-8.04698e-07
-3.14107e-07
-1.27138e-07
-8.08911e-07
-2.91037e-07
-1.25857e-07
-8.13148e-07
-2.78065e-07
-6.39215e-08
-8.14265e-07
-2.64677e-07
-4.84763e-08
-8.173e-07
-2.55486e-07
-1.5126e-08
-8.18295e-07
-2.46269e-07
3.79899e-09
-8.20263e-07
-2.41712e-07
2.96462e-08
-8.22196e-07
-2.3825e-07
4.93643e-08
-8.24112e-07
-2.35604e-07
6.70498e-08
-8.25543e-07
-2.33739e-07
8.27345e-08
-8.26253e-07
-2.32437e-07
9.65589e-08
-8.26474e-07
-2.31187e-07
1.0916e-07
-8.27285e-07
-2.30213e-07
1.20697e-07
-8.2805e-07
-2.29359e-07
1.30879e-07
-8.28669e-07
-2.2845e-07
1.39745e-07
-8.29193e-07
-2.27301e-07
1.47284e-07
-8.29593e-07
-2.25526e-07
1.53347e-07
-8.29943e-07
-2.23204e-07
1.58271e-07
-8.29966e-07
-2.19027e-07
1.60034e-07
-8.30383e-07
-2.15888e-07
1.63254e-07
-8.28745e-07
-2.07045e-07
1.58937e-07
-8.30184e-07
-2.0147e-07
1.59176e-07
-8.27018e-07
-1.8233e-07
1.47342e-07
-8.31357e-07
-1.7043e-07
1.40997e-07
-8.25876e-07
-1.30377e-07
1.20029e-07
-8.35482e-07
-1.02291e-07
9.78857e-08
-8.27807e-07
-2.10186e-08
7.04699e-08
-8.45321e-07
6.46859e-08
-1.15573e-08
-8.4329e-07
2.20118e-07
-1.3066e-08
-8.64885e-07
4.49634e-07
-2.29788e-07
-8.91972e-07
7.74024e-07
-2.15447e-07
-9.33214e-07
1.32382e-06
-7.00885e-07
-1.01254e-06
2.03437e-06
-7.99561e-07
-1.09807e-06
3.25687e-06
-1.7581e-06
-1.32699e-06
4.4963e-06
-2.26577e-06
-1.52178e-06
6.53312e-06
-2.94878e-06
-1.90866e-06
8.34336e-06
-3.133e-07
-1.81134e-06
9.46984e-06
5.89194e-06
-1.5058e-06
7.96352e-06
1.25838e-05
-3.05994e-06
1.19758e-05
1.45798e-05
-8.31411e-06
1.54729e-05
8.12289e-06
-1.09534e-05
3.2817e-05
7.47499e-07
-6.7278e-06
6.95374e-06
-6.18939e-06
2.00908e-05
-5.37601e-06
-1.11502e-06
2.47937e-06
-3.1405e-05
-1.29635e-06
5.52408e-06
-4.47068e-05
7.77954e-07
4.63649e-06
-5.44304e-05
-3.42308e-07
1.15314e-06
-5.85776e-05
-5.99225e-07
4.4883e-07
-6.00783e-05
-1.12242e-06
-1.74358e-08
-6.00735e-05
-1.45607e-06
1.17954e-07
-5.99701e-05
-1.45026e-06
3.02355e-07
-5.95672e-05
-1.33701e-06
3.45597e-07
-5.8854e-05
-1.5116e-06
2.52644e-07
-5.80358e-05
-1.66399e-06
1.46833e-07
-5.68609e-05
-2.04018e-06
-1.45768e-07
-5.55248e-05
-2.25978e-06
-3.20757e-07
-5.42342e-05
-2.34017e-06
-4.35932e-07
-5.29569e-05
-2.6939e-06
-6.21707e-07
-5.13374e-05
-3.11632e-06
-8.54703e-07
-4.96215e-05
-3.54878e-06
-1.01466e-06
-4.77991e-05
-4.00482e-06
-1.09372e-06
-4.61123e-05
-4.31787e-06
-1.0916e-06
-4.43652e-05
-4.74829e-06
-1.12171e-06
-4.26482e-05
-4.94883e-06
-1.08632e-06
-4.07308e-05
-5.13085e-06
-1.07486e-06
-3.86162e-05
-5.0826e-06
-1.08334e-06
-3.62708e-05
-5.06015e-06
-1.10968e-06
-3.38121e-05
-5.01485e-06
-9.93597e-07
-3.12471e-05
-5.0624e-06
-8.16368e-07
-2.83156e-05
-5.07236e-06
-8.04588e-07
-2.5023e-05
-4.64134e-06
-9.18821e-07
-2.13345e-05
-4.04642e-06
-1.06568e-06
-1.72861e-05
-3.38424e-06
-1.23658e-06
-1.30191e-05
-2.54636e-06
-1.27304e-06
-8.9862e-06
-1.64504e-06
-1.18824e-06
-5.40704e-06
-9.46667e-07
-1.04268e-06
-2.61479e-06
-3.09508e-07
-7.75175e-07
-7.27189e-07
1.86646e-07
-4.60773e-07
2.67137e-07
6.7332e-08
-1.08187e-07
3.08398e-07
8.76914e-07
-2.62652e-06
1.64931e-06
-2.96158e-07
-1.47923e-06
-2.55714e-06
-1.58608e-06
-2.05222e-06
1.64508e-06
-4.3505e-07
-1.67041e-06
-6.5826e-07
-7.851e-07
-1.66436e-06
5.89649e-07
-6.3576e-07
-1.44847e-06
-2.88661e-07
-6.99473e-07
-1.30508e-06
1.34066e-07
-7.05264e-07
-1.08539e-06
-2.06116e-07
-7.85459e-07
-9.14722e-07
9.83858e-08
-7.90401e-07
-7.42295e-07
-2.32218e-08
-8.2949e-07
-6.15481e-07
2.70328e-07
-8.34674e-07
-5.1652e-07
2.33447e-07
-8.55317e-07
-4.41701e-07
4.73537e-07
-8.64698e-07
-3.86044e-07
4.59938e-07
-8.79408e-07
-3.48273e-07
6.42742e-07
-8.90135e-07
-3.17624e-07
6.4346e-07
-9.03733e-07
-3.00844e-07
7.69846e-07
-9.13751e-07
-2.84717e-07
7.85396e-07
-9.27367e-07
-2.78936e-07
8.66615e-07
-9.36303e-07
-2.72061e-07
8.93812e-07
-9.49152e-07
-2.71201e-07
9.43383e-07
-9.59355e-07
-2.70676e-07
9.74019e-07
-9.70733e-07
-2.70017e-07
1.00776e-06
-9.78759e-07
-2.69745e-07
1.03659e-06
-9.87483e-07
-2.70374e-07
1.06323e-06
-9.95537e-07
-2.71899e-07
1.08755e-06
-1.00328e-06
-2.73773e-07
1.10972e-06
-1.01128e-06
-2.75554e-07
1.13027e-06
-1.01932e-06
-2.7728e-07
1.14945e-06
-1.02701e-06
-2.79003e-07
1.1672e-06
-1.03458e-06
-2.8067e-07
1.18349e-06
-1.04206e-06
-2.82212e-07
1.19832e-06
-1.04948e-06
-2.83206e-07
1.21136e-06
-1.057e-06
-2.83516e-07
1.22326e-06
-1.06467e-06
-2.82815e-07
1.23135e-06
-1.072e-06
-2.82512e-07
1.24191e-06
-1.07895e-06
-2.77617e-07
1.24142e-06
-1.08736e-06
-2.74627e-07
1.24976e-06
-1.09357e-06
-2.59969e-07
1.23715e-06
-1.10445e-06
-2.50401e-07
1.24063e-06
-1.1092e-06
-2.1597e-07
1.21028e-06
-1.12467e-06
-1.9111e-07
1.20192e-06
-1.12889e-06
-1.15158e-07
1.14619e-06
-1.15166e-06
-5.50106e-08
1.09325e-06
-1.16494e-06
9.27808e-08
1.03048e-06
-1.19132e-06
2.71086e-07
8.29519e-07
-1.2376e-06
5.48624e-07
7.71583e-07
-1.26455e-06
9.80177e-07
2.93294e-07
-1.42572e-06
1.44723e-06
1.69772e-07
-1.43636e-06
2.25459e-06
-7.48469e-07
-1.81697e-06
2.90749e-06
-1.04666e-06
-1.87199e-06
4.64395e-06
-1.78082e-06
-2.90441e-06
5.95765e-06
9.26561e-07
-2.55354e-06
9.2811e-06
4.8349e-06
-2.2664e-06
9.9406e-06
1.36459e-05
-1.72165e-06
1.71194e-05
1.34857e-05
-6.08468e-06
1.93856e-05
1.43853e-05
-8.5286e-06
3.35036e-05
-7.5643e-06
-5.80631e-06
5.82793e-06
-1.57222e-06
2.30585e-05
-8.54846e-06
1.11783e-05
2.08373e-06
-4.32997e-05
2.70502e-05
6.4074e-06
-5.62751e-05
9.30278e-06
4.45459e-06
-6.63517e-05
9.99348e-06
-2.54972e-07
-6.93783e-05
3.35957e-06
-9.27811e-07
-7.11056e-05
1.56266e-06
-9.53212e-07
-7.1323e-05
-4.83257e-07
-7.50812e-07
-7.1138e-05
-8.88191e-07
-7.42417e-07
-7.03745e-05
-1.23601e-06
-8.59728e-07
-6.96008e-05
-1.22359e-06
-1.05688e-06
-6.85525e-05
-1.42446e-06
-1.28296e-06
-6.74379e-05
-1.5993e-06
-1.5506e-06
-6.62645e-05
-1.82129e-06
-1.60696e-06
-6.48479e-05
-1.96489e-06
-1.78706e-06
-6.30642e-05
-2.48215e-06
-1.99077e-06
-6.11918e-05
-2.85629e-06
-2.12823e-06
-5.93411e-05
-3.17561e-06
-2.22003e-06
-5.76679e-05
-3.55712e-06
-2.11741e-06
-5.62282e-05
-3.68137e-06
-2.07263e-06
-5.50858e-05
-3.91735e-06
-1.96974e-06
-5.4042e-05
-4.05117e-06
-1.9377e-06
-5.30514e-05
-4.18855e-06
-1.92916e-06
-5.18794e-05
-4.27872e-06
-1.97206e-06
-5.05366e-05
-4.49325e-06
-1.90623e-06
-4.93627e-05
-4.53492e-06
-1.65056e-06
-4.8636e-05
-4.46752e-06
-1.31824e-06
-4.79469e-05
-4.42729e-06
-1.33048e-06
-4.67049e-05
-4.3005e-06
-1.5791e-06
-4.46008e-05
-4.35943e-06
-1.78748e-06
-4.181e-05
-4.32221e-06
-1.84967e-06
-3.81773e-05
-4.34543e-06
-1.83101e-06
-3.34768e-05
-4.616e-06
-1.7272e-06
-2.82432e-05
-4.54527e-06
-1.63282e-06
-2.23484e-05
-4.49519e-06
-1.70731e-06
-1.56477e-05
-4.81791e-06
-1.69467e-06
-8.78246e-06
-5.22894e-06
-1.56793e-06
-6.43363e-06
-2.04002e-06
-3.16947e-06
3.06569e-06
1.87836e-06
-1.80993e-06
-2.27375e-06
-1.64293e-06
-2.24135e-06
1.82177e-06
2.54732e-07
-1.73289e-06
-4.71356e-07
-6.95364e-07
-1.62234e-06
8.31679e-07
-3.52575e-07
-1.40962e-06
-5.46695e-08
-4.46703e-07
-1.24254e-06
4.23154e-07
-4.56157e-07
-1.02695e-06
1.29756e-07