/*--------------------------------*- C++ -*----------------------------------*\
| =========                 |                                                 |
| \\      /  F ield         | OpenFOAM: The Open Source CFD Toolbox           |
|  \\    /   O peration     | Version:  2.3.0                                 |
|   \\  /    A nd           | Web:      www.OpenFOAM.org                      |
|    \\/     M anipulation  |                                                 |
\*---------------------------------------------------------------------------*/
FoamFile
{
    version     2.0;
    format      ascii;
    class       surfaceScalarField;
    location    "5";
    object      phi.air;
}
// * * * * * * * * * * * * * * * * * * * * * * * * * * * * * * * * * * * * * //

dimensions      [0 3 -1 0 0 0 0];

internalField   nonuniform List<scalar> 
16448
(
-2.77503e-06
-2.00456e-06
7.23281e-07
-1.64858e-06
-1.96831e-06
8.41868e-07
-1.28838e-06
-1.46806e-06
1.10786e-06
-9.65124e-07
-1.44208e-06
1.11883e-06
-8.66257e-07
-1.24321e-06
1.14434e-06
-7.32635e-07
-1.27926e-06
1.14564e-06
-6.94774e-07
-1.18064e-06
1.14278e-06
-5.97782e-07
-1.24014e-06
1.14315e-06
-5.64455e-07
-1.17245e-06
1.13913e-06
-4.81404e-07
-1.22306e-06
1.14002e-06
-4.47423e-07
-1.17057e-06
1.1366e-06
-3.79796e-07
-1.20333e-06
1.13571e-06
-3.4792e-07
-1.16474e-06
1.13287e-06
-2.98237e-07
-1.18118e-06
1.1315e-06
-2.69807e-07
-1.15783e-06
1.12941e-06
-2.3595e-07
-1.16172e-06
1.12787e-06
-2.12375e-07
-1.14984e-06
1.12627e-06
-1.89672e-07
-1.14766e-06
1.12496e-06
-1.71635e-07
-1.1418e-06
1.12377e-06
-1.56054e-07
-1.13832e-06
1.12275e-06
-1.43083e-07
-1.13483e-06
1.12187e-06
-1.32129e-07
-1.13207e-06
1.12112e-06
-1.22866e-07
-1.12976e-06
1.1205e-06
-1.14958e-07
-1.12789e-06
1.11999e-06
-1.08124e-07
-1.12642e-06
1.11959e-06
-1.02104e-07
-1.12529e-06
1.11927e-06
-9.66756e-08
-1.12447e-06
1.11905e-06
-9.16285e-08
-1.12394e-06
1.11889e-06
-8.67806e-08
-1.12364e-06
1.1188e-06
-8.1972e-08
-1.12354e-06
1.11873e-06
-7.70185e-08
-1.12362e-06
1.11867e-06
-7.17801e-08
-1.12385e-06
1.11861e-06
-6.58862e-08
-1.12445e-06
1.11856e-06
-5.99273e-08
-1.12475e-06
1.11879e-06
-5.20513e-08
-1.12625e-06
1.11837e-06
-4.48727e-08
-1.12606e-06
1.11888e-06
-3.45511e-08
-1.12762e-06
1.1173e-06
-2.57066e-08
-1.1278e-06
1.11896e-06
-1.21679e-08
-1.12762e-06
1.11408e-06
-2.96421e-09
-1.12843e-06
1.11922e-06
1.23912e-08
-1.12195e-06
1.1066e-06
2.66229e-08
-1.12797e-06
1.11374e-06
2.96433e-08
-1.09657e-06
1.09354e-06
4.20674e-08
-1.10953e-06
1.09711e-06
1.98902e-08
-1.03817e-06
1.06034e-06
-9.98518e-09
-1.02022e-06
1.05009e-06
-1.08571e-07
-8.87243e-07
9.85825e-07
-2.62201e-07
-7.59462e-07
9.13091e-07
-5.95689e-07
-4.43997e-07
7.77482e-07
-1.29337e-06
1.09171e-07
5.88505e-07
-2.6171e-06
8.83489e-07
4.40246e-07
-4.31892e-06
1.04759e-06
6.54227e-07
-5.90259e-06
2.72107e-07
1.31155e-06
-5.20803e-06
-3.35582e-06
2.66127e-06
-2.66978e-06
-5.66759e-06
3.12932e-06
-9.77767e-07
-4.27519e-06
2.58316e-06
-7.15765e-07
3.21729e-08
-2.94692e-07
-3.04584e-06
1.07523e-06
1.25414e-06
-7.19022e-06
-3.85418e-07
4.16171e-06
-3.01231e-05
-1.79871e-05
1.12976e-05
-6.02955e-05
-1.50505e-05
2.79096e-06
-1.45712e-05
-4.22815e-06
2.41294e-06
2.35654e-05
-1.85279e-07
1.34785e-06
2.4954e-05
-2.29442e-06
7.8667e-07
2.57266e-05
-1.08813e-06
1.97676e-07
2.57455e-05
2.68143e-07
-2.78803e-07
2.53304e-05
9.34937e-07
-5.05733e-07
2.48569e-05
1.07604e-06
-6.12383e-07
2.43461e-05
1.11032e-06
-6.24328e-07
2.37184e-05
1.15139e-06
-5.41273e-07
2.30363e-05
1.16776e-06
-4.9102e-07
2.21044e-05
1.26182e-06
-3.36449e-07
2.07249e-05
1.43602e-06
-6.27885e-08
1.92532e-05
1.25698e-06
1.94717e-07
1.69168e-05
1.30235e-06
9.89268e-07
1.27705e-05
1.88982e-06
2.19691e-06
8.29051e-06
1.89487e-06
2.52908e-06
5.51089e-06
1.03989e-06
1.71274e-06
4.62688e-06
1.04209e-07
7.68077e-07
4.72598e-06
-5.12964e-07
4.05829e-07
5.04879e-06
-8.78606e-07
5.49463e-07
5.25409e-06
-1.0809e-06
8.69942e-07
5.26733e-06
-1.13752e-06
1.11675e-06
5.04904e-06
-1.06723e-06
1.27421e-06
4.58703e-06
-9.41903e-07
1.39595e-06
4.01261e-06
-8.70036e-07
1.43812e-06
3.39558e-06
-8.56969e-07
1.46708e-06
2.77624e-06
-8.74385e-07
1.48965e-06
2.18139e-06
-8.97776e-07
1.50445e-06
1.64665e-06
-9.23586e-07
1.51539e-06
1.21223e-06
-9.50964e-07
1.5258e-06
8.85642e-07
-9.77796e-07
1.53629e-06
6.05287e-07
-1.00582e-06
1.54413e-06
2.06202e-07
-1.01585e-06
1.54751e-06
-3.1485e-07
-1.02186e-06
1.55015e-06
-1.01378e-06
1.54695e-06
-2.90223e-06
-3.01161e-06
-2.51661e-07
-1.76309e-06
-3.06e-06
-4.74472e-08
-1.48925e-06
-2.12911e-06
3.87209e-07
-1.21166e-06
-2.16282e-06
4.43145e-07
-1.14405e-06
-1.82881e-06
5.17983e-07
-1.01364e-06
-1.93049e-06
5.2081e-07
-9.58619e-07
-1.78012e-06
5.44465e-07
-8.44156e-07
-1.8918e-06
5.37201e-07
-7.88693e-07
-1.78123e-06
5.53313e-07
-6.84579e-07
-1.87461e-06
5.47438e-07
-6.30908e-07
-1.78382e-06
5.59579e-07
-5.43911e-07
-1.84735e-06
5.57024e-07
-4.95728e-07
-1.77833e-06
5.6541e-07
-4.29595e-07
-1.81181e-06
5.64505e-07
-3.91136e-07
-1.76584e-06
5.69551e-07
-3.45734e-07
-1.777e-06
5.69876e-07
-3.15286e-07
-1.75265e-06
5.72371e-07
-2.8544e-07
-1.7507e-06
5.73201e-07
-2.62522e-07
-1.73913e-06
5.74417e-07
-2.42484e-07
-1.73362e-06
5.75264e-07
-2.26032e-07
-1.72734e-06
5.76063e-07
-2.12193e-07
-1.72266e-06
5.76758e-07
-2.00604e-07
-1.71873e-06
5.77394e-07
-1.90818e-07
-1.71566e-06
5.77984e-07
-1.82484e-07
-1.71329e-06
5.78543e-07
-1.75279e-07
-1.71157e-06
5.79078e-07
-1.68919e-07
-1.71042e-06
5.79589e-07
-1.63182e-07
-1.70975e-06
5.80075e-07
-1.57851e-07
-1.70952e-06
5.80542e-07
-1.52689e-07
-1.70971e-06
5.81009e-07
-1.47476e-07
-1.7103e-06
5.81458e-07
-1.41916e-07
-1.71124e-06
5.81829e-07
-1.36193e-07
-1.71223e-06
5.82058e-07
-1.29944e-07
-1.71353e-06
5.82532e-07
-1.23019e-07
-1.71536e-06
5.82188e-07
-1.14928e-07
-1.7175e-06
5.83348e-07
-1.0629e-07
-1.71796e-06
5.81693e-07
-9.52584e-08
-1.72296e-06
5.84124e-07
-8.56004e-08
-1.71709e-06
5.79813e-07
-6.97399e-08
-1.72903e-06
5.84738e-07
-6.12957e-08
-1.70508e-06
5.7468e-07
-4.11058e-08
-1.73056e-06
5.82396e-07
-3.79381e-08
-1.66349e-06
5.63753e-07
-1.90201e-08
-1.69931e-06
5.70855e-07
-3.13159e-08
-1.56649e-06
5.40613e-07
-3.62801e-08
-1.54669e-06
5.3142e-07
-1.03129e-07
-1.30211e-06
4.81704e-07
-2.04841e-07
-1.07265e-06
4.14893e-07
-4.47511e-07
-5.11298e-07
3.0996e-07
-8.27315e-07
3.62291e-07
1.26673e-07
-1.18803e-06
1.37249e-06
-1.28289e-07
-1.39032e-06
1.21032e-06
3.95331e-08
-7.59554e-07
-1.03791e-06
6.79238e-07
-1.10464e-06
-5.24119e-06
2.23043e-06
-5.36169e-07
-9.53603e-06
3.29993e-06
9.19994e-07
-7.99792e-06
2.26654e-06
-1.18983e-06
6.00207e-06
-3.86069e-06
-9.23086e-06
8.83159e-06
2.83845e-07
-7.63234e-06
7.53971e-07
-3.10714e-06
-3.08024e-05
-2.90024e-05
3.63182e-06
-7.41141e-05
-2.20345e-05
2.73658e-06
-3.19046e-05
-7.32368e-06
2.43507e-07
1.18765e-05
-4.62726e-06
-1.99958e-06
1.40458e-05
-2.4477e-06
-2.34247e-06
1.55122e-05
3.77163e-07
-2.6648e-06
1.73431e-05
1.42481e-06
-2.96189e-06
1.88385e-05
2.30767e-06
-2.88482e-06
1.97258e-05
2.88045e-06
-2.67423e-06
2.02239e-05
3.15669e-06
-2.52195e-06
2.04833e-05
3.32193e-06
-2.43389e-06
2.05878e-05
3.19589e-06
-2.16558e-06
2.03235e-05
3.05745e-06
-1.55045e-06
1.94639e-05
2.87326e-06
-5.51867e-07
1.76804e-05
2.67003e-06
4.08866e-07
1.43658e-05
2.85604e-06
1.74068e-06
9.85182e-06
3.45968e-06
2.83167e-06
6.22987e-06
2.83574e-06
2.60195e-06
4.61662e-06
1.3156e-06
1.33076e-06
4.44999e-06
6.92378e-08
2.03768e-07
4.8315e-06
-6.53741e-07
-2.42441e-07
5.19729e-06
-1.01785e-06
-2.22312e-07
5.35005e-06
-1.1422e-06
-8.65274e-08
5.29559e-06
-1.1414e-06
5.93244e-08
5.09275e-06
-1.0662e-06
2.00778e-07
4.77593e-06
-9.67164e-07
3.41234e-07
4.32495e-06
-8.77837e-07
4.60187e-07
3.76033e-06
-8.33482e-07
5.43334e-07
3.1343e-06
-8.40619e-07
5.97969e-07
2.5035e-06
-8.6728e-07
6.22165e-07
1.92536e-06
-9.09734e-07
6.33577e-07
1.44428e-06
-9.58921e-07
6.48704e-07
1.06943e-06
-1.00837e-06
6.68979e-07
7.43979e-07
-1.06261e-06
6.80749e-07
2.76326e-07
-1.07718e-06
6.90434e-07
-3.22259e-07
-1.08588e-06
6.84068e-07
-1.09552e-06
7.08026e-07
-2.54965e-06
-3.245e-06
-8.62236e-07
-1.42457e-06
-3.45843e-06
-7.26657e-07
-1.33487e-06
-2.17051e-06
-4.82985e-08
-1.12818e-06
-2.37588e-06
6.37084e-09
-1.10524e-06
-1.94912e-06
9.73546e-08
-9.98086e-07
-2.12645e-06
8.88069e-08
-9.53906e-07
-1.94296e-06
1.18653e-07
-8.40831e-07
-2.10321e-06
9.83312e-08
-7.84372e-07
-1.96156e-06
1.23876e-07
-6.75792e-07
-2.0916e-06
1.08414e-07
-6.20811e-07
-1.96767e-06
1.28878e-07
-5.32881e-07
-2.05523e-06
1.19959e-07
-4.86831e-07
-1.95823e-06
1.33852e-07
-4.21961e-07
-2.00593e-06
1.29259e-07
-3.84372e-07
-1.94031e-06
1.36887e-07
-3.38494e-07
-1.95779e-06
1.34922e-07
-3.1038e-07
-1.91991e-06
1.39155e-07
-2.80602e-07
-1.91925e-06
1.3878e-07
-2.59569e-07
-1.90059e-06
1.40431e-07
-2.40493e-07
-1.89324e-06
1.40554e-07
-2.25311e-07
-1.88346e-06
1.40944e-07
-2.1252e-07
-1.87637e-06
1.40927e-07
-2.01918e-07
-1.87013e-06
1.40798e-07
-1.93019e-07
-1.86506e-06
1.40514e-07
-1.85491e-07
-1.86094e-06
1.40124e-07
-1.79024e-07
-1.85768e-06
1.39644e-07
-1.73331e-07
-1.8552e-06
1.39092e-07
-1.68167e-07
-1.8534e-06
1.38493e-07
-1.63322e-07
-1.85222e-06
1.37861e-07
-1.58592e-07
-1.85163e-06
1.37193e-07
-1.53787e-07
-1.85157e-06
1.36475e-07
-1.48728e-07
-1.85207e-06
1.35777e-07
-1.43261e-07
-1.85274e-06
1.35038e-07
-1.37293e-07
-1.85417e-06
1.34674e-07
-1.30094e-07
-1.856e-06
1.33441e-07
-1.22364e-07
-1.8591e-06
1.33874e-07
-1.12304e-07
-1.8595e-06
1.31479e-07
-1.01611e-07
-1.8668e-06
1.33146e-07
-8.75179e-08
-1.85973e-06
1.28546e-07
-7.17153e-08
-1.87712e-06
1.3229e-07
-5.16701e-08
-1.84832e-06
1.23181e-07
-2.80181e-08
-1.8836e-06
1.2938e-07
5.63424e-09
-1.80997e-06
1.1282e-07
3.94165e-08
-1.85086e-06
1.17757e-07
8.44686e-08
-1.70997e-06
9.84126e-08
1.49982e-07
-1.69513e-06
8.29206e-08
2.27213e-07
-1.43878e-06
5.94279e-08
3.56502e-07
-1.21513e-06
1.31836e-08
5.03938e-07
-6.18566e-07
-4.0178e-08
7.95764e-07
2.36367e-07
-1.65911e-07
1.58206e-06
1.03937e-06
-4.53188e-07
2.69057e-06
7.13584e-07
-6.11792e-07
4.21511e-06
-2.44036e-06
-1.2211e-07
4.45226e-06
-7.11825e-06
1.63988e-06
1.6793e-06
-9.93063e-06
3.1675e-06
-1.73646e-06
-7.94068e-06
3.35851e-06
5.67338e-06
4.22217e-06
-5.63063e-06
1.05004e-06
1.50237e-05
-1.56876e-06
-4.42708e-06
6.65159e-06
-8.23201e-07
-3.13955e-05
-3.32904e-05
2.55612e-08
-7.9992e-05
-3.08027e-05
5.37565e-06
-3.84326e-05
-1.25936e-05
2.61901e-06
9.6386e-06
-1.43565e-05
-1.5048e-06
9.19704e-06
-3.59043e-07
-1.93707e-06
1.10362e-05
1.0087e-06
-2.22369e-06
1.30411e-05
1.63168e-06
-2.31393e-06
1.46628e-05
2.87199e-06
-2.3088e-06
1.5835e-05
3.76227e-06
-2.13639e-06
1.65954e-05
3.8956e-06
-1.54357e-06
1.71337e-05
3.41642e-06
-6.27139e-07
1.71344e-05
2.88303e-06
3.51612e-07
1.61388e-05
2.69944e-06
1.39071e-06
1.31965e-05
3.01351e-06
2.76527e-06
8.03016e-06
3.55887e-06
4.14275e-06
2.97908e-06
3.49626e-06
4.30123e-06
5.89968e-07
2.35934e-06
3.47295e-06
2.07984e-07
9.82774e-07
2.24645e-06
6.85668e-07
-1.3989e-07
9.84801e-07
1.5335e-06
-8.09825e-07
2.72645e-08
2.40906e-06
-1.0823e-06
-4.55266e-07
3.10962e-06
-1.17477e-06
-5.53716e-07
3.61107e-06
-1.13191e-06
-5.22786e-07
3.95116e-06
-1.00468e-06
-4.91438e-07
4.12337e-06
-8.18761e-07
-4.32826e-07
4.13052e-06
-6.37045e-07
-3.45622e-07
3.9635e-06
-4.70331e-07
-2.46421e-07
3.61508e-06
-3.62309e-07
-1.29492e-07
3.10355e-06
-3.10731e-07
-1.87766e-08
2.51402e-06
-3.2015e-07
6.09572e-08
1.92609e-06
-3.65554e-07
1.12767e-07
1.41665e-06
-4.256e-07
1.39701e-07
1.02839e-06
-4.9838e-07
1.534e-07
7.03711e-07
-6.06121e-07
1.82524e-07
2.39717e-07
-6.90271e-07
2.43297e-07
-3.74424e-07
-7.84511e-07
3.24681e-07
-8.76813e-07
4.25814e-07
-2.38774e-06
-3.06305e-06
-9.68167e-07
-1.25663e-06
-3.60315e-06
-9.86382e-07
-1.29397e-06
-1.85923e-06
-2.73952e-07
-1.12871e-06
-2.29213e-06
-2.49023e-07
-1.154e-06
-1.77709e-06
-1.46741e-07
-1.05869e-06
-2.05535e-06
-1.66409e-07
-1.01751e-06
-1.8566e-06
-1.27552e-07
-8.9113e-07
-2.0686e-06
-1.60978e-07
-8.25547e-07
-1.90585e-06
-1.21286e-07
-7.01719e-07
-2.06849e-06
-1.46929e-07
-6.39669e-07
-1.91578e-06
-1.13935e-07
-5.41329e-07
-2.02436e-06
-1.29203e-07
-4.92866e-07
-1.89928e-06
-1.07398e-07
-4.23564e-07
-1.96059e-06
-1.14635e-07
-3.87681e-07
-1.87303e-06
-1.03155e-07
-3.41047e-07
-1.89811e-06
-1.06307e-07
-3.14498e-07
-1.84513e-06
-1.01332e-07
-2.8435e-07
-1.84666e-06
-1.02733e-07
-2.65237e-07
-1.81876e-06
-1.00936e-07
-2.46764e-07
-1.81015e-06
-1.01563e-07
-2.32908e-07
-1.79563e-06
-1.01679e-07
-2.21105e-07
-1.78567e-06
-1.02493e-07
-2.11514e-07
-1.77627e-06
-1.03441e-07
-2.03538e-07
-1.7684e-06
-1.04639e-07
-1.96854e-07
-1.76163e-06
-1.05989e-07
-1.91147e-07
-1.75591e-06
-1.0747e-07
-1.86156e-07
-1.75113e-06
-1.09053e-07
-1.8167e-07
-1.74717e-06
-1.10711e-07
-1.77485e-07
-1.74397e-06
-1.12427e-07
-1.73403e-07
-1.74151e-06
-1.14194e-07
-1.69222e-07
-1.73975e-06
-1.16005e-07
-1.64765e-07
-1.73867e-06
-1.17862e-07
-1.59788e-07
-1.73784e-06
-1.19876e-07
-1.54384e-07
-1.73805e-06
-1.21531e-07
-1.4734e-07
-1.73904e-06
-1.2401e-07
-1.40208e-07
-1.74134e-06
-1.24894e-07
-1.29194e-07
-1.74176e-06
-1.28753e-07
-1.18888e-07
-1.7488e-06
-1.28311e-07
-1.00891e-07
-1.74316e-06
-1.34574e-07
-8.49096e-08
-1.76117e-06
-1.31939e-07
-5.37525e-08
-1.73674e-06
-1.42739e-07
-2.47327e-08
-1.77428e-06
-1.38339e-07
3.05336e-08
-1.7109e-06
-1.54346e-07
1.01793e-07
-1.76286e-06
-1.59262e-07
2.042e-07
-1.64266e-06
-1.69719e-07
3.73393e-07
-1.65969e-06
-2.04642e-07
6.1979e-07
-1.45795e-06
-2.27231e-07
1.02631e-06
-1.32749e-06
-2.94174e-07
1.69771e-06
-9.01244e-07
-3.88728e-07
2.67171e-06
-3.64808e-07
-3.72835e-07
4.1456e-06
2.2285e-07
-6.5738e-07
6.18695e-06
-1.97645e-07
-1.13014e-06
7.5088e-06
-2.6193e-06
-1.14293e-06
7.0739e-06
-7.68381e-06
1.00042e-06
4.79179e-06
-9.20154e-06
1.55294e-06
-5.38255e-07
-5.213e-06
2.60233e-06
6.40876e-06
1.16085e-06
-3.88619e-06
5.1119e-06
2.25377e-05
-6.21708e-06
4.57224e-07
6.87228e-06
3.9315e-06
-3.05308e-05
-3.34551e-05
-9.09882e-07
-8.02414e-05
-3.3916e-05
6.20946e-06
-4.10349e-05
-1.13401e-05
3.7984e-06
-8.39237e-06
-1.46971e-05
1.65347e-06
-5.31539e-06
-2.29524e-06
-2.41259e-06
6.3838e-07
-1.56578e-06
-3.40648e-06
3.42591e-06
6.65604e-07
-2.13029e-06
5.64927e-06
1.08952e-06
-6.48112e-07
6.67767e-06
1.79053e-06
7.09081e-07
6.36124e-06
1.78604e-06
2.07358e-06
4.24333e-06
1.96582e-06
3.21003e-06
7.12583e-07
1.85218e-06
4.00715e-06
-3.31343e-06
1.70179e-06
4.39446e-06
-6.63933e-06
1.34724e-06
4.30191e-06
-8.47301e-06
9.18028e-07
3.79323e-06
-8.82175e-06
2.23347e-07
3.03001e-06
-8.42294e-06
-5.69059e-07
2.05943e-06
-7.67088e-06
-1.17706e-06
1.06537e-06
-6.68e-06
-1.60372e-06
2.43041e-07
-5.50221e-06
-1.90217e-06
-2.73617e-07
-4.24716e-06
-1.82247e-06
-5.00849e-07
-3.03542e-06
-1.80729e-06
-5.65562e-07
-1.85602e-06
-1.68182e-06
-6.17722e-07
-7.18747e-07
-1.4607e-06
-6.67053e-07
3.27278e-07
-1.14613e-06
-7.10829e-07
1.22283e-06
-8.18781e-07
-7.23851e-07
1.88917e-06
-4.82451e-07
-6.67567e-07
2.28011e-06
-1.80832e-07
-5.85764e-07
2.36899e-06
1.07219e-07
-5.09262e-07
2.20301e-06
2.99004e-07
-4.37176e-07
1.86406e-06
3.77922e-07
-3.37724e-07
1.47103e-06
3.49495e-07
-2.09025e-07
1.1521e-06
2.33773e-07
-1.10427e-07
9.40661e-07
4.62661e-08
-8.57262e-08
5.30521e-07
4.99484e-09
-8.17018e-08
-1.65587e-07
-1.4268e-09
-5.70455e-08
3.73185e-08
4.06447e-08
-2.4292e-06
-2.41319e-06
-9.98475e-07
-1.30063e-06
-3.57531e-06
-1.15641e-06
-1.43056e-06
-1.27657e-06
-4.52723e-07
-1.265e-06
-1.99279e-06
-4.64915e-07
-1.30185e-06
-1.37056e-06
-3.69686e-07
-1.18409e-06
-1.76723e-06
-4.05885e-07
-1.12221e-06
-1.5533e-06
-3.65171e-07
-9.67091e-07
-1.81151e-06
-4.12207e-07
-8.77735e-07
-1.63359e-06
-3.61614e-07
-7.33595e-07
-1.81586e-06
-3.9677e-07
-6.5778e-07
-1.64045e-06
-3.51134e-07
-5.49485e-07
-1.7586e-06
-3.74042e-07
-4.96132e-07
-1.61185e-06
-3.4078e-07
-4.22944e-07
-1.67975e-06
-3.5402e-07
-3.87576e-07
-1.57395e-06
-3.34447e-07
-3.40616e-07
-1.60444e-06
-3.40624e-07
-3.1671e-07
-1.5376e-06
-3.31422e-07
-2.87541e-07
-1.5416e-06
-3.34219e-07
-2.70608e-07
-1.5044e-06
-3.31291e-07
-2.53019e-07
-1.49503e-06
-3.32697e-07
-2.40998e-07
-1.47494e-06
-3.32711e-07
-2.30435e-07
-1.4621e-06
-3.34125e-07
-2.22162e-07
-1.44887e-06
-3.35672e-07
-2.1536e-07
-1.43751e-06
-3.37684e-07
-2.09755e-07
-1.42728e-06
-3.39946e-07
-2.05027e-07
-1.41818e-06
-3.42448e-07
-2.00938e-07
-1.41008e-06
-3.45132e-07
-1.97297e-07
-1.40287e-06
-3.4794e-07
-1.93916e-07
-1.3965e-06
-3.50856e-07
-1.90598e-07
-1.39096e-06
-3.53863e-07
-1.87183e-07
-1.38622e-06
-3.5694e-07
-1.83474e-07
-1.38229e-06
-3.60081e-07
-1.79078e-07
-1.37892e-06
-3.63308e-07
-1.74353e-07
-1.37663e-06
-3.66141e-07
-1.67668e-07
-1.3758e-06
-3.69923e-07
-1.614e-07
-1.37559e-06
-3.7202e-07
-1.49876e-07
-1.37586e-06
-3.77421e-07
-1.40495e-07
-1.38013e-06
-3.7805e-07
-1.19845e-07
-1.378e-06
-3.85815e-07
-1.04224e-07
-1.39226e-06
-3.84529e-07
-6.52633e-08
-1.37956e-06
-3.96145e-07
-3.15538e-08
-1.41316e-06
-3.94838e-07
3.99168e-08
-1.37382e-06
-4.08554e-07
1.38441e-07
-1.43797e-06
-4.23422e-07
2.73945e-07
-1.35161e-06
-4.26561e-07
5.3089e-07
-1.43527e-06
-4.81365e-07
8.84562e-07
-1.30789e-06
-5.03734e-07
1.56166e-06
-1.40198e-06
-6.02612e-07
2.59297e-06
-1.22494e-06
-7.07618e-07
4.48981e-06
-1.34869e-06
-9.1296e-07
7.45366e-06
-1.64354e-06
-1.09748e-06
1.09468e-05
-1.97009e-06
-1.72067e-06
1.05652e-05
-1.69471e-06
-5.43059e-07
5.01695e-06
-2.15734e-06
2.17667e-08
1.12495e-06
-2.69112e-06
-2.61854e-06
-1.78487e-06
1.94959e-06
-4.25277e-06
8.00345e-06
9.32937e-07
-9.56072e-06
1.34536e-05
2.53609e-05
-8.27341e-06
1.09052e-05
-7.64994e-06
1.54473e-05
-4.27308e-05
-2.27738e-05
8.46087e-07
-0.0001166
-3.19921e-05
5.69675e-06
-0.000118254
-1.09447e-05
4.89264e-06
-0.000119723
-1.25364e-05
2.44081e-06
-0.000119623
-4.34504e-06
1.63401e-06
-0.000118706
-2.10946e-06
1.72322e-06
-0.000119008
-3.64836e-07
2.3931e-06
-0.000119747
1.13977e-07
3.11835e-06
-0.000121938
6.56972e-07
3.34477e-06
-0.000124203
6.36293e-07
3.56883e-06
-0.000126008
6.14807e-07
3.49622e-06
-0.000127465
3.18506e-07
3.31664e-06
-0.000128332
2.93848e-08
2.9226e-06
-0.00012866
-4.09874e-07
2.47764e-06
-0.00012782
-8.86416e-07
1.95033e-06
-0.000125348
-1.37367e-06
1.31133e-06
-0.00011834
-1.90581e-06
6.56777e-07
-0.000110191
-2.31576e-06
1.96317e-07
-0.00010227
-2.69235e-06
-1.15206e-07
-5.69616e-05
-2.84829e-06
-3.30287e-07
-1.49424e-05
-3.12325e-06
-5.83381e-07
-1.31144e-05
-2.95685e-06
-7.02256e-07
-1.11305e-05
-2.73634e-06
-8.28131e-07
-8.99576e-06
-2.3701e-06
-9.61153e-07
-6.87919e-06
-1.96539e-06
-1.06933e-06
-4.90245e-06
-1.59607e-06
-1.12335e-06
-3.06682e-06
-1.11334e-06
-1.12734e-06
-1.5076e-06
-4.56868e-07
-1.09757e-06
-3.32596e-07
4.82988e-08
-1.07091e-06
4.0567e-07
5.52308e-07
-1.0118e-06
7.14417e-07
1.02991e-06
-9.09613e-07
8.03335e-07
1.22768e-06
-8.06213e-07
7.38206e-07
1.26295e-06
-6.64495e-07
4.52989e-07
1.08546e-06
-4.00588e-07
-1.12666e-07
8.81147e-07
-1.23309e-07
-6.30171e-07
5.43334e-07
-1.84052e-08
4.45561e-07
1.59568e-07
-2.64637e-06
-1.43029e-06
-9.28716e-07
-1.41658e-06
-3.36732e-06
-1.43777e-06
-1.6723e-06
-4.04576e-07
-6.16287e-07
-1.46101e-06
-1.52629e-06
-6.77798e-07
-1.48962e-06
-7.30301e-07
-6.11656e-07
-1.33162e-06
-1.28439e-06
-6.40843e-07
-1.2316e-06
-1.02404e-06
-6.29277e-07
-1.05143e-06
-1.32705e-06
-6.64622e-07
-9.1949e-07
-1.12048e-06
-6.4504e-07
-7.62913e-07
-1.30521e-06
-6.67209e-07
-6.61665e-07
-1.09658e-06
-6.45114e-07
-5.50198e-07
-1.20951e-06
-6.60553e-07
-4.8598e-07
-1.03375e-06
-6.42304e-07
-4.13836e-07
-1.09734e-06
-6.54553e-07
-3.76354e-07
-9.68743e-07
-6.42674e-07
-3.31983e-07
-9.97025e-07
-6.51778e-07
-3.10314e-07
-9.13099e-07
-6.46162e-07
-2.8363e-07
-9.15946e-07
-6.5233e-07
-2.69827e-07
-8.65224e-07
-6.52966e-07
-2.54809e-07
-8.524e-07
-6.57643e-07
-2.45582e-07
-8.24239e-07
-6.59916e-07
-2.36672e-07
-8.07258e-07
-6.63749e-07
-2.30118e-07
-7.88003e-07
-6.67412e-07
-2.24864e-07
-7.71296e-07
-6.7146e-07
-2.20702e-07
-7.55856e-07
-6.75579e-07
-2.17334e-07
-7.41665e-07
-6.7988e-07
-2.14582e-07
-7.28621e-07
-6.84208e-07
-2.12198e-07
-7.16886e-07
-6.88361e-07
-2.09918e-07
-7.06386e-07
-6.92383e-07
-2.07627e-07
-6.96946e-07
-6.96304e-07
-2.05241e-07
-6.88545e-07
-7.00054e-07
-2.02639e-07
-6.81171e-07
-7.03717e-07
-1.99244e-07
-6.74827e-07
-7.07485e-07
-1.95631e-07
-6.69383e-07
-7.10854e-07
-1.89868e-07
-6.66177e-07
-7.1538e-07
-1.85023e-07
-6.62361e-07
-7.18072e-07
-1.73893e-07
-6.62409e-07
-7.24579e-07
-1.66258e-07
-6.62277e-07
-7.25489e-07
-1.4476e-07
-6.64878e-07
-7.3461e-07
-1.30629e-07
-6.72989e-07
-7.33404e-07
-8.78987e-08
-6.75403e-07
-7.46878e-07
-5.37393e-08
-7.01844e-07
-7.45473e-07
2.86538e-08
-6.93581e-07
-7.6263e-07
1.35932e-07
-7.69152e-07
-7.76094e-07
2.93716e-07
-7.22522e-07
-7.86866e-07
5.84357e-07
-8.92257e-07
-8.33655e-07
9.67964e-07
-8.24277e-07
-8.67215e-07
1.6759e-06
-1.16365e-06
-9.4627e-07
2.72339e-06
-1.18708e-06
-1.08534e-06
4.56886e-06
-1.86261e-06
-1.33156e-06
7.04842e-06
-2.54812e-06
-1.57497e-06
9.79384e-06
-2.82063e-06
-1.8949e-06
9.72149e-06
-3.14394e-07
-1.30797e-06
2.75815e-06
5.51262e-06
-7.06662e-07
-2.86193e-06
8.01756e-06
-5.08867e-06
-3.78401e-06
1.0278e-05
-7.40633e-06
8.83657e-06
6.66629e-07
-1.23544e-05
2.70018e-05
1.13638e-05
-4.1681e-06
4.74214e-06
-1.19618e-05
2.21999e-05
-5.88136e-05
-1.16496e-05
3.55525e-07
-0.000127135
-2.16476e-05
6.77921e-06
-0.00013289
-7.74102e-06
4.94255e-06
-0.000140539
-8.08147e-06
2.19945e-06
-0.00014614
-3.45299e-06
9.04903e-07
-0.000145782
-2.11737e-06
1.02917e-06
-0.000146479
-1.10411e-06
1.45231e-06
-0.000148233
-8.11058e-07
1.60766e-06
-0.000144069
-5.7242e-07
1.91589e-06
-0.000146101
-5.54548e-07
1.99009e-06
-0.000150987
-6.18329e-07
1.81099e-06
-0.000151505
-9.29694e-07
1.54009e-06
-0.000153062
-1.13064e-06
1.26672e-06
-0.000152009
-1.43919e-06
9.9883e-07
-0.000152337
-1.89893e-06
5.98686e-07
-0.000151869
-2.27171e-06
2.05719e-07
-0.000150341
-2.81967e-06
-1.19182e-07
-0.000148449
-3.22621e-06
-3.54918e-07
-0.000146271
-3.69243e-06
-4.9117e-07
-0.000144894
-3.89005e-06
-6.37623e-07
-0.000143534
-3.96716e-06
-7.10247e-07
-0.000141685
-3.82485e-06
-8.3681e-07
-0.000141584
-3.60586e-06
-8.9108e-07
-0.000137125
-3.27678e-06
-9.28337e-07
-0.000132577
-2.97523e-06
-9.04569e-07
-0.000131193
-2.85725e-06
-8.48166e-07
-0.000120423
-2.39038e-06
-8.10863e-07
-9.30587e-05
-1.59357e-06
-8.86569e-07
-4.07041e-05
-8.66159e-07
-9.91006e-07
-4.09932e-06
-5.28983e-07
-1.28731e-06
-1.91997e-06
3.30677e-07
-1.29827e-06
-6.98181e-07
1.20901e-06
-1.19324e-06
-1.44513e-08
1.69736e-06
-1.00874e-06
1.46266e-07
1.88179e-06
-7.8179e-07
-8.23375e-08
1.79217e-06
-4.95627e-07
-3.54373e-07
1.25557e-06
-1.41966e-07
1.20544e-06
4.63922e-07
-2.81869e-06
-1.08094e-07
-7.20929e-07
-1.48617e-06
-2.99593e-06
-1.70392e-06
-1.87649e-06
6.37041e-07
-6.51302e-07
-1.57757e-06
-1.06155e-06
-7.63673e-07
-1.59109e-06
-4.00538e-08
-6.76728e-07
-1.40735e-06
-7.7226e-07
-6.95862e-07
-1.28164e-06
-4.27818e-07
-7.21931e-07
-1.09366e-06
-7.71895e-07
-7.43117e-07
-9.2523e-07
-5.2136e-07
-7.67541e-07
-7.79187e-07
-6.803e-07
-7.70944e-07
-6.5254e-07
-4.37545e-07
-7.85667e-07
-5.54958e-07
-5.22924e-07
-7.84155e-07
-4.78024e-07
-3.16355e-07
-7.9432e-07
-4.16972e-07
-3.63827e-07
-7.94549e-07
-3.7439e-07
-2.09636e-07
-8.01678e-07
-3.37068e-07
-2.29637e-07
-8.04698e-07
-3.14108e-07
-1.27138e-07
-8.08911e-07
-2.91038e-07
-1.25857e-07
-8.13148e-07
-2.78066e-07
-6.39215e-08
-8.14265e-07
-2.64678e-07
-4.84763e-08
-8.173e-07
-2.55487e-07
-1.5126e-08
-8.18295e-07
-2.4627e-07
3.799e-09
-8.20263e-07
-2.41713e-07
2.96462e-08
-8.22196e-07
-2.38251e-07
4.93643e-08
-8.24112e-07
-2.35605e-07
6.70498e-08
-8.25543e-07
-2.3374e-07
8.27346e-08
-8.26253e-07
-2.32438e-07
9.65589e-08
-8.26474e-07
-2.31188e-07
1.0916e-07
-8.27285e-07
-2.30214e-07
1.20697e-07
-8.2805e-07
-2.2936e-07
1.30879e-07
-8.28669e-07
-2.28451e-07
1.39745e-07
-8.29193e-07
-2.27302e-07
1.47284e-07
-8.29593e-07
-2.25527e-07
1.53347e-07
-8.29943e-07
-2.23205e-07
1.58271e-07
-8.29966e-07
-2.19028e-07
1.60034e-07
-8.30383e-07
-2.15889e-07
1.63254e-07
-8.28745e-07
-2.07046e-07
1.58937e-07
-8.30184e-07
-2.01471e-07
1.59176e-07
-8.27018e-07
-1.82331e-07
1.47342e-07
-8.31357e-07
-1.70432e-07
1.40997e-07
-8.25876e-07
-1.30378e-07
1.20029e-07
-8.35482e-07
-1.02292e-07
9.78857e-08
-8.27807e-07
-2.10198e-08
7.04699e-08
-8.45321e-07
6.46847e-08
-1.15573e-08
-8.4329e-07
2.20117e-07
-1.3066e-08
-8.64885e-07
4.49633e-07
-2.29788e-07
-8.91972e-07
7.74023e-07
-2.15447e-07
-9.33214e-07
1.32382e-06
-7.00885e-07
-1.01254e-06
2.03437e-06
-7.99561e-07
-1.09807e-06
3.25687e-06
-1.7581e-06
-1.32699e-06
4.4963e-06
-2.26577e-06
-1.52178e-06
6.53312e-06
-2.94878e-06
-1.90866e-06
8.34336e-06
-3.133e-07
-1.81134e-06
9.46983e-06
5.89194e-06
-1.5058e-06
7.96346e-06
1.25838e-05
-3.05994e-06
1.19758e-05
1.45798e-05
-8.31411e-06
1.54728e-05
8.12289e-06
-1.09534e-05
3.28169e-05
7.47502e-07
-6.72779e-06
3.1916e-07
-6.18939e-06
2.00908e-05
-7.68116e-05
-7.70204e-07
2.0716e-06
-0.0001474
-5.58151e-07
7.66924e-06
-0.000154989
1.91109e-07
5.16629e-06
-0.000157429
-1.21347e-07
1.96673e-06
-0.000160227
-7.18398e-07
9.49951e-07
-0.000165737
-1.03096e-06
5.24686e-07
-0.000174
-1.19064e-06
5.66183e-07
-0.000174501
-1.40486e-06
8.26347e-07
-0.000171974
-1.32254e-06
8.59935e-07
-0.000150256
-1.41193e-06
8.00771e-07
-0.00014771
-1.75742e-06
6.48454e-07
-0.000161342
-1.88075e-06
3.27552e-07
-0.00015268
-2.09317e-06
2.1018e-07
-0.000157539
-2.24668e-06
6.07247e-08
-0.000157206
-2.58329e-06
-1.51418e-07
-0.000157528
-3.00391e-06
-3.97912e-07
-0.000168462
-3.58258e-06
-4.9724e-07
-0.000167692
-3.92835e-06
-5.53614e-07
-0.000165214
-4.32597e-06
-5.84485e-07
-0.000165925
-4.67796e-06
-6.0953e-07
-0.000164153
-4.86783e-06
-6.15054e-07
-0.000164796
-4.98829e-06
-6.39756e-07
-0.000161322
-4.96368e-06
-6.63717e-07
-0.000132034
-4.94484e-06
-6.45496e-07
-0.000133134
-5.05953e-06
-5.3815e-07
-0.000154044
-4.86696e-06
-3.31889e-07
-0.00014677
-4.58517e-06
-4.46048e-07
-0.000147561
-4.05299e-06
-6.02783e-07
-0.000142073
-3.41684e-06
-7.38989e-07
-0.000129623
-2.61089e-06
-8.13106e-07
-0.000133058
-1.96048e-06
-7.60537e-07
-0.00013982
-1.14509e-06
-5.22835e-07
-0.000135482
-4.17277e-07
-3.28287e-07
-0.000130694
-9.62963e-09
3.00302e-08
-0.000126195
3.31885e-07
5.66792e-07
-0.000114926
1.4771e-07
9.28091e-07
1.98777e-07
1.50674e-06
-2.62652e-06
1.64931e-06
-2.96158e-07
-1.47923e-06
-2.55714e-06
-1.58608e-06
-2.05223e-06
1.64508e-06
-4.3505e-07
-1.67041e-06
-6.5826e-07
-7.851e-07
-1.66436e-06
5.89649e-07
-6.3576e-07
-1.44847e-06
-2.88661e-07
-6.99473e-07
-1.30508e-06
1.34066e-07
-7.05264e-07
-1.08539e-06
-2.06116e-07
-7.85459e-07
-9.14723e-07
9.83859e-08
-7.90401e-07
-7.42296e-07
-2.32218e-08
-8.2949e-07
-6.15482e-07
2.70328e-07
-8.34674e-07
-5.16521e-07
2.33447e-07
-8.55317e-07
-4.41702e-07
4.73537e-07
-8.64698e-07
-3.86045e-07
4.59938e-07
-8.79408e-07
-3.48274e-07
6.42742e-07
-8.90135e-07
-3.17625e-07
6.4346e-07
-9.03733e-07
-3.00845e-07
7.69846e-07
-9.13751e-07
-2.84718e-07
7.85396e-07
-9.27367e-07
-2.78938e-07
8.66615e-07
-9.36303e-07
-2.72062e-07
8.93812e-07
-9.49152e-07
-2.71202e-07
9.43383e-07
-9.59355e-07
-2.70677e-07
9.74019e-07
-9.70733e-07
-2.70018e-07
1.00776e-06
-9.78759e-07
-2.69746e-07
1.03659e-06
-9.87483e-07
-2.70375e-07
1.06323e-06
-9.95537e-07
-2.719e-07
1.08755e-06
-1.00328e-06
-2.73774e-07
1.10972e-06
-1.01128e-06
-2.75555e-07
1.13027e-06
-1.01932e-06
-2.77281e-07
1.14945e-06
-1.02701e-06
-2.79004e-07
1.1672e-06
-1.03458e-06
-2.80671e-07
1.18349e-06
-1.04206e-06
-2.82213e-07
1.19832e-06
-1.04948e-06
-2.83208e-07
1.21136e-06
-1.057e-06
-2.83517e-07
1.22326e-06
-1.06467e-06
-2.82817e-07
1.23135e-06
-1.072e-06
-2.82514e-07
1.24191e-06
-1.07895e-06
-2.77618e-07
1.24142e-06
-1.08736e-06
-2.74628e-07
1.24976e-06
-1.09357e-06
-2.59971e-07
1.23715e-06
-1.10445e-06
-2.50402e-07
1.24063e-06
-1.1092e-06
-2.15971e-07
1.21028e-06
-1.12467e-06
-1.91111e-07
1.20192e-06
-1.12889e-06
-1.15159e-07
1.14619e-06
-1.15166e-06
-5.5012e-08
1.09325e-06
-1.16494e-06
9.27795e-08
1.03048e-06
-1.19132e-06
2.71084e-07
8.29519e-07
-1.2376e-06
5.48623e-07
7.71583e-07
-1.26455e-06
9.80176e-07
2.93294e-07
-1.42572e-06
1.44723e-06
1.69773e-07
-1.43636e-06
2.25459e-06
-7.48469e-07
-1.81697e-06
2.90749e-06
-1.04666e-06
-1.87199e-06
4.64395e-06
-1.78082e-06
-2.90441e-06
5.95764e-06
9.26561e-07
-2.55354e-06
9.28109e-06
4.8349e-06
-2.2664e-06
9.94056e-06
1.36459e-05
-1.72165e-06
1.71193e-05
1.34857e-05
-6.08468e-06
1.93854e-05
1.43853e-05
-8.5286e-06
3.35035e-05
-7.5643e-06
-5.8063e-06
-3.14512e-06
-1.57221e-06
2.30585e-05
-9.42527e-05
1.29143e-05
1.67154e-06
-0.000175284
2.77054e-05
8.74831e-06
-0.000187291
8.91232e-06
5.21888e-06
-0.0001957
9.73749e-06
4.14913e-07
-0.0002007
2.81349e-06
-1.29423e-07
-0.000202136
1.43526e-06
-3.25592e-07
-0.000203457
-6.92529e-08
-1.75804e-07
-0.000206819
-7.25152e-07
-1.16425e-07
-0.000206747
-9.16899e-07
-1.74891e-07
-0.000205621
-9.99315e-07
-3.05113e-07
-0.000205842
-1.21711e-06
-4.9436e-07
-0.000204833
-1.35591e-06
-6.789e-07
-0.00020498
-1.56041e-06
-8.1068e-07
-0.000204728
-1.72197e-06
-1.04659e-06
-0.000203863
-2.28634e-06
-1.22308e-06
-0.00020345
-2.49522e-06
-1.34508e-06
-0.000203118
-2.74767e-06
-1.35158e-06
-0.000202878
-2.99226e-06
-1.25364e-06
-0.00020239
-3.14811e-06
-1.21184e-06
-0.000201479
-3.36327e-06
-1.10926e-06
-0.000201365
-3.51968e-06
-1.13054e-06
-0.000201441
-3.72382e-06
-1.14656e-06
-0.000201001
-3.87255e-06
-1.13935e-06
-0.000200816
-3.98932e-06
-1.02685e-06
-0.000200987
-3.95432e-06
-8.2448e-07
-0.000201028
-3.87912e-06
-5.33134e-07
-0.000200462
-3.85584e-06
-6.04321e-07
-0.000199787
-3.87172e-06
-8.64954e-07
-0.000197738
-3.93975e-06
-1.06562e-06
-0.000197737
-3.98597e-06
-1.06477e-06
-0.000194687
-4.02089e-06
-1.02483e-06
-0.000188732
-4.13951e-06
-8.0676e-07
-0.000190282
-4.16454e-06
-6.39299e-07
-0.000185593
-4.33036e-06
-7.17608e-07
-0.0001687
-4.92597e-06
-2.16522e-07
-0.000164432
-5.1959e-06
-6.80534e-07
-6.25143e-06
-3.92346e-07
-3.16947e-06
3.06569e-06
1.87836e-06
-1.80993e-06
-2.27375e-06
-1.64293e-06
-2.24135e-06
1.82177e-06
2.54732e-07
-1.73289e-06
-4.71356e-07
-6.95364e-07
-1.62235e-06
8.31679e-07
-3.52575e-07
-1.40963e-06
-5.46695e-08
-4.46703e-07
-1.24254e-06
4.23154e-07
-4.56157e-07
-1.02695e-06