/*--------------------------------*- C++ -*----------------------------------*\
| =========                 |                                                 |
| \\      /  F ield         | OpenFOAM: The Open Source CFD Toolbox           |
|  \\    /   O peration     | Version:  2.3.0                                 |
|   \\  /    A nd           | Web:      www.OpenFOAM.org                      |
|    \\/     M anipulation  |                                                 |
\*---------------------------------------------------------------------------*/
FoamFile
{
    version     2.0;
    format      ascii;
    class       surfaceScalarField;
    location    "5";
    object      phi.water;
}
// * * * * * * * * * * * * * * * * * * * * * * * * * * * * * * * * * * * * * //

dimensions      [0 3 -1 0 0 0 0];

internalField   nonuniform List<scalar> 
16448
(
-2.63664e-06
-2.06646e-06
7.41038e-07
-1.47098e-06
-2.02256e-06
8.57832e-07
-1.12516e-06
-1.47091e-06
1.12485e-06
-8.13568e-07
-1.44693e-06
1.1347e-06
-7.21458e-07
-1.25187e-06
1.15971e-06
-5.99824e-07
-1.27963e-06
1.15747e-06
-5.58977e-07
-1.19889e-06
1.158e-06
-4.69206e-07
-1.24516e-06
1.155e-06
-4.32845e-07
-1.19181e-06
1.15545e-06
-3.53516e-07
-1.23399e-06
1.15433e-06
-3.18618e-07
-1.18932e-06
1.15439e-06
-2.52562e-07
-1.21965e-06
1.15326e-06
-2.20395e-07
-1.18525e-06
1.15297e-06
-1.71178e-07
-1.20139e-06
1.15184e-06
-1.4383e-07
-1.1786e-06
1.15105e-06
-1.10492e-07
-1.18354e-06
1.14989e-06
-8.85384e-08
-1.17121e-06
1.149e-06
-6.6874e-08
-1.16999e-06
1.14801e-06
-5.06019e-08
-1.16382e-06
1.14725e-06
-3.67016e-08
-1.16075e-06
1.14652e-06
-2.5766e-08
-1.15719e-06
1.14593e-06
-1.70995e-08
-1.15444e-06
1.14543e-06
-1.04937e-08
-1.15197e-06
1.14503e-06
-5.71494e-09
-1.14986e-06
1.14472e-06
-2.54212e-09
-1.148e-06
1.14448e-06
-8.73629e-10
-1.14639e-06
1.14435e-06
-6.37307e-10
-1.14488e-06
1.14429e-06
-1.97982e-09
-1.14331e-06
1.14425e-06
-4.31796e-09
-1.14217e-06
1.14418e-06
-9.66374e-09
-1.13925e-06
1.14415e-06
-1.48763e-08
-1.13945e-06
1.14437e-06
-2.52833e-08
-1.13369e-06
1.14364e-06
-3.47065e-08
-1.13574e-06
1.14489e-06
-5.21741e-08
-1.12578e-06
1.14277e-06
-6.81345e-08
-1.12982e-06
1.14552e-06
-9.58858e-08
-1.11429e-06
1.14159e-06
-1.22594e-07
-1.11953e-06
1.14597e-06
-1.65676e-07
-1.09771e-06
1.14037e-06
-2.10548e-07
-1.10131e-06
1.1459e-06
-2.75911e-07
-1.07418e-06
1.13915e-06
-3.52643e-07
-1.06958e-06
1.14603e-06
-4.52305e-07
-1.04028e-06
1.13957e-06
-5.76362e-07
-1.02327e-06
1.14703e-06
-7.26159e-07
-9.95366e-07
1.1448e-06
-9.0402e-07
-9.75911e-07
1.15344e-06
-1.10498e-06
-9.59661e-07
1.16024e-06
-1.30945e-06
-9.71238e-07
1.17538e-06
-1.52537e-06
-9.87943e-07
1.20337e-06
-1.70405e-06
-1.05954e-06
1.23832e-06
-1.89767e-06
-1.13531e-06
1.32797e-06
-2.13454e-06
-1.21366e-06
1.45236e-06
-2.24856e-06
-1.55613e-06
1.66707e-06
-9.97009e-07
-3.28248e-06
2.03598e-06
2.02065e-06
-5.87737e-06
2.77323e-06
4.98996e-06
-7.055e-06
4.11813e-06
9.74439e-06
-9.22742e-06
4.34335e-06
6.68613e-06
-4.72931e-06
7.79279e-06
5.67192e-06
-6.29693e-06
7.09938e-06
-1.06154e-06
1.15142e-05
5.41512e-06
3.03659e-05
-2.35571e-06
-8.02094e-06
2.92342e-05
-2.63037e-05
-1.58037e-06
3.51235e-05
-1.13699e-05
3.84695e-06
3.37438e-05
-2.75948e-06
4.13199e-06
3.35424e-05
-3.50562e-06
3.70701e-06
3.3816e-05
-4.13616e-06
3.86255e-06
3.29233e-05
-2.82139e-06
3.71409e-06
3.17283e-05
-1.90869e-06
3.10372e-06
3.07048e-05
-1.71602e-06
2.73954e-06
2.99111e-05
-1.83329e-06
2.62696e-06
2.92196e-05
-1.79808e-06
2.48955e-06
2.88478e-05
-2.00325e-06
2.3751e-06
2.87495e-05
-2.26761e-06
2.36585e-06
2.88222e-05
-2.41002e-06
2.33734e-06
2.89106e-05
-2.2761e-06
2.18767e-06
2.87503e-05
-1.60739e-06
1.7677e-06
2.81245e-05
-6.95478e-07
1.32131e-06
2.64366e-05
5.6922e-07
1.11865e-06
2.36867e-05
1.43616e-06
1.31376e-06
2.01084e-05
1.81287e-06
1.76538e-06
1.51989e-05
2.95823e-06
1.95133e-06
9.60769e-06
3.94523e-06
1.64596e-06
6.22328e-06
3.47701e-06
-9.2603e-08
5.58091e-06
2.70905e-06
-2.06667e-06
5.61769e-06
1.67348e-06
-1.71026e-06
5.43519e-06
6.28356e-07
-4.4585e-07
5.00716e-06
-1.41986e-07
5.70007e-07
4.53028e-06
-5.81508e-07
1.05839e-06
4.03728e-06
-8.31031e-07
1.32404e-06
3.5325e-06
-9.63664e-07
1.46844e-06
3.01748e-06
-1.03077e-06
1.54579e-06
2.49571e-06
-1.06601e-06
1.58778e-06
1.97484e-06
-1.09544e-06
1.61631e-06
1.47136e-06
-1.12995e-06
1.63343e-06
9.76416e-07
-1.147e-06
1.64195e-06
4.89439e-07
-1.15703e-06
1.64401e-06
-1.14547e-06
1.63491e-06
-2.72245e-06
-3.04873e-06
-2.64849e-07
-1.59226e-06
-3.10797e-06
-4.35266e-08
-1.34377e-06
-2.113e-06
3.94017e-07
-1.08235e-06
-2.15913e-06
4.50664e-07
-1.02131e-06
-1.82841e-06
5.15915e-07
-9.00521e-07
-1.919e-06
5.18581e-07
-8.43292e-07
-1.79421e-06
5.3853e-07
-7.35383e-07
-1.88401e-06
5.31074e-07
-6.743e-07
-1.80163e-06
5.49204e-07
-5.72057e-07
-1.87919e-06
5.43113e-07
-5.12977e-07
-1.80695e-06
5.58975e-07
-4.26213e-07
-1.86228e-06
5.56004e-07
-3.76332e-07
-1.80205e-06
5.67238e-07
-3.10179e-07
-1.83336e-06
5.65919e-07
-2.71135e-07
-1.79086e-06
5.73455e-07
-2.25381e-07
-1.80288e-06
5.73669e-07
-1.95353e-07
-1.77881e-06
5.77725e-07
-1.65657e-07
-1.77846e-06
5.78856e-07
-1.43743e-07
-1.76659e-06
5.80949e-07
-1.24647e-07
-1.76198e-06
5.82193e-07
-1.09632e-07
-1.75562e-06
5.83462e-07
-9.74898e-08
-1.75105e-06
5.84507e-07
-8.80182e-08
-1.74688e-06
5.85449e-07
-8.0806e-08
-1.74336e-06
5.86297e-07
-7.55845e-08
-1.74025e-06
5.87021e-07
-7.21787e-08
-1.73746e-06
5.87654e-07
-7.04919e-08
-1.73469e-06
5.88102e-07
-7.03251e-08
-1.73201e-06
5.88504e-07
-7.19685e-08
-1.72963e-06
5.89096e-07
-7.5687e-08
-1.72533e-06
5.89717e-07
-8.0095e-08
-1.725e-06
5.89974e-07
-8.90498e-08
-1.71501e-06
5.90141e-07
-9.65929e-08
-1.71842e-06
5.90268e-07
-1.1347e-07
-1.69914e-06
5.90085e-07
-1.26002e-07
-1.70729e-06
5.90075e-07
-1.5469e-07
-1.67521e-06
5.89458e-07
-1.76127e-07
-1.68719e-06
5.89166e-07
-2.22432e-07
-1.63979e-06
5.88264e-07
-2.58905e-07
-1.65175e-06
5.86994e-07
-3.2991e-07
-1.58959e-06
5.86344e-07
-3.9667e-07
-1.58834e-06
5.85582e-07
-5.01749e-07
-1.51875e-06
5.8351e-07
-6.19311e-07
-1.4908e-06
5.8511e-07
-7.76952e-07
-1.42264e-06
5.84902e-07
-9.6006e-07
-1.38143e-06
5.8857e-07
-1.17803e-06
-1.33737e-06
5.95692e-07
-1.39468e-06
-1.35617e-06
6.01516e-07
-1.62198e-06
-1.39052e-06
6.29764e-07
-1.78236e-06
-1.53676e-06
6.37978e-07
-1.88981e-06
-1.76437e-06
7.35458e-07
-1.7702e-06
-2.13856e-06
8.09957e-07
-2.76092e-07
-4.30043e-06
1.26329e-06
4.50649e-06
-9.30133e-06
1.3175e-06
1.03673e-05
-1.35938e-05
1.85554e-06
1.43446e-05
-1.30745e-05
2.1353e-06
2.10483e-05
-1.68358e-05
8.06919e-07
2.07918e-05
-7.17965e-06
2.8296e-06
1.71605e-05
-1.06518e-05
5.81429e-06
7.2784e-06
1.54969e-05
1.94709e-05
3.01415e-05
-1.82013e-06
-2.69833e-06
1.50923e-05
-3.32063e-05
-7.16866e-06
1.23054e-05
-1.30729e-05
3.50392e-06
8.29451e-06
-4.19011e-06
5.44014e-06
4.35319e-06
-5.32337e-06
5.75907e-06
1.66765e-06
-7.26722e-06
5.8166e-06
6.01172e-07
-6.10076e-06
4.34585e-06
1.02653e-06
-4.98669e-06
2.65265e-06
2.31793e-06
-4.30759e-06
1.30017e-06
5.32262e-06
-4.74096e-06
-9.70178e-08
8.73788e-06
-4.75864e-06
-4.54699e-07
1.18369e-05
-4.60388e-06
-4.98431e-07
1.41607e-05
-4.47375e-06
-1.17573e-07
1.59538e-05
-4.37883e-06
1.75619e-07
1.7654e-05
-4.06166e-06
8.54032e-08
1.93521e-05
-2.75864e-06
-5.46837e-07
2.08855e-05
-7.72166e-07
-1.45676e-06
2.16453e-05
1.47362e-06
-1.66413e-06
2.06385e-05
3.46298e-06
-1.02002e-06
1.77531e-05
5.00304e-06
-3.04822e-07
1.33637e-05
7.1388e-06
2.08877e-07
8.44027e-06
7.94376e-06
9.24856e-07
5.83868e-06
6.79207e-06
-7.13469e-07
5.62244e-06
5.38929e-06
-2.464e-06
5.8369e-06
3.62098e-06
-2.16197e-06
5.63952e-06
1.87163e-06
-1.04589e-06
5.21635e-06
6.09353e-07
-3.28164e-07
4.75124e-06
-2.17117e-07
1.00721e-07
4.28107e-06
-7.20077e-07
3.59211e-07
3.79049e-06
-9.88111e-07
5.15023e-07
3.26868e-06
-1.12046e-06
6.11504e-07
2.71705e-06
-1.18437e-06
6.70003e-07
2.15456e-06
-1.23277e-06
6.99815e-07
1.60711e-06
-1.29295e-06
7.10461e-07
1.06371e-06
-1.33052e-06
7.26913e-07
5.26506e-07
-1.35695e-06
7.37114e-07
-1.36864e-06
7.49679e-07
-2.35749e-06
-3.2519e-06
-8.30275e-07
-1.27742e-06
-3.48614e-06
-7.01511e-07
-1.1979e-06
-2.1441e-06
-4.76419e-08
-1.00188e-06
-2.36616e-06
1.04387e-08
-9.86041e-07
-1.93118e-06
8.75393e-08
-8.87933e-07
-2.09824e-06
8.10067e-08
-8.40246e-07
-1.94406e-06
1.02695e-07
-7.32764e-07
-2.0764e-06
8.50474e-08
-6.69002e-07
-1.97252e-06
1.0765e-07
-5.63446e-07
-2.07852e-06
9.39679e-08
-5.02911e-07
-1.98221e-06
1.15182e-07
-4.16324e-07
-2.05555e-06
1.06845e-07
-3.66252e-07
-1.97465e-06
1.22884e-07
-3.01409e-07
-2.01666e-06
1.18573e-07
-2.62372e-07
-1.95785e-06
1.28223e-07
-2.1644e-07
-1.975e-06
1.26293e-07
-1.88155e-07
-1.93885e-06
1.31954e-07
-1.58489e-07
-1.93959e-06
1.31557e-07
-1.38218e-07
-1.92072e-06
1.33988e-07
-1.19836e-07
-1.91453e-06
1.34239e-07
-1.05944e-07
-1.90443e-06
1.34991e-07
-9.46185e-08
-1.89745e-06
1.35119e-07
-8.58913e-08
-1.89072e-06
1.35151e-07
-7.92992e-08
-1.88488e-06
1.34953e-07
-7.45943e-08
-1.87955e-06
1.34612e-07
-7.15934e-08
-1.87461e-06
1.34149e-07
-7.00855e-08
-1.86978e-06
1.33585e-07
-7.00106e-08
-1.86499e-06
1.32878e-07
-7.16788e-08
-1.86e-06
1.32045e-07
-7.49706e-08
-1.85338e-06
1.31258e-07
-7.93916e-08
-1.8507e-06
1.3017e-07
-8.72901e-08
-1.83649e-06
1.29255e-07
-9.49225e-08
-1.83867e-06
1.27965e-07
-1.09848e-07
-1.81152e-06
1.2715e-07
-1.2196e-07
-1.82028e-06
1.25204e-07
-1.47359e-07
-1.77472e-06
1.24753e-07
-1.67726e-07
-1.78853e-06
1.21817e-07
-2.09665e-07
-1.71988e-06
1.21896e-07
-2.44707e-07
-1.73366e-06
1.17056e-07
-3.13074e-07
-1.63955e-06
1.18224e-07
-3.76005e-07
-1.63767e-06
1.1235e-07
-4.85379e-07
-1.52269e-06
1.13246e-07
-6.04167e-07
-1.48103e-06
1.09048e-07
-7.81448e-07
-1.3568e-06
1.11408e-07
-9.91842e-07
-1.28228e-06
1.1115e-07
-1.25908e-06
-1.18856e-06
1.18382e-07
-1.53286e-06
-1.19518e-06
1.12527e-07
-1.80682e-06
-1.2479e-06
1.30841e-07
-2.01428e-06
-1.45938e-06
1.30588e-07
-2.03441e-06
-2.02862e-06
2.83352e-07
-5.37217e-07
-4.08853e-06
5.27061e-07
2.8767e-06
-9.09634e-06
1.49058e-06
8.37368e-06
-1.59701e-05
1.41064e-06
1.07481e-05
-1.80948e-05
2.16745e-06
1.24599e-05
-1.55628e-05
8.834e-07
1.74147e-05
-1.96104e-05
-2.27838e-06
2.27035e-05
-6.86361e-06
-5.16183e-06
2.5399e-05
-2.02287e-05
4.81133e-06
1.31359e-05
1.9178e-05
2.58153e-05
3.1812e-05
-2.27115e-06
-5.70366e-07
8.87097e-06
-2.97948e-05
-1.12713e-05
4.9877e-06
-1.00158e-05
-1.10861e-07
4.9332e-06
-6.47081e-06
2.33448e-06
-2.1299e-06
-5.82796e-06
7.56769e-06
-4.60165e-06
-7.67448e-06
2.87901e-06
-4.70588e-06
-6.30501e-06
3.08472e-07
-1.73143e-06
-5.29822e-06
-2.66291e-06
1.62435e-06
-3.48276e-06
-4.18061e-06
4.59339e-06
-3.54717e-06
-4.16282e-06
7.31444e-06
-3.8986e-06
-3.5811e-06
9.67809e-06
-3.99023e-06
-2.9773e-06
1.17632e-05
-4.07506e-06
-2.48379e-06
1.3591e-05
-3.74522e-06
-2.46142e-06
1.54287e-05
-3.20058e-06
-2.69875e-06
1.70346e-05
-1.23582e-06
-3.12871e-06
1.7984e-05
1.48759e-06
-3.20924e-06
1.76335e-05
4.15713e-06
-2.33301e-06
1.50169e-05
6.79258e-06
-7.12981e-07
1.0516e-05
9.33698e-06
1.67019e-07
6.00905e-06
1.10421e-05
6.0358e-07
2.91883e-06
1.01904e-05
8.43622e-07
2.25999e-06
8.31373e-06
-8.6282e-07
3.15427e-06
6.45194e-06
-1.95693e-06
4.06686e-06
4.37803e-06
-1.66964e-06
4.53921e-06
2.60479e-06
-1.20551e-06
4.64854e-06
1.29006e-06
-7.90033e-07
4.53202e-06
3.42198e-07
-4.42799e-07
4.28197e-06
-2.85951e-07
-1.84073e-07
3.91121e-06
-6.09367e-07
-7.98244e-09
3.42595e-06
-7.30342e-07
9.51428e-08
2.84891e-06
-7.55328e-07
1.47992e-07
2.25853e-06
-8.2859e-07
1.86203e-07
1.70494e-06
-9.5099e-07
2.11621e-07
1.16507e-06
-1.0488e-06
2.58154e-07
6.08073e-07
-1.13241e-06
3.32462e-07
-1.13281e-06
3.72234e-07
-2.2407e-06
-3.04105e-06
-9.24018e-07
-1.1606e-06
-3.6076e-06
-9.58807e-07
-1.1891e-06
-1.8283e-06
-2.85737e-07
-1.03152e-06
-2.27541e-06
-2.49254e-07
-1.05516e-06
-1.73882e-06
-1.67712e-07
-9.64648e-07
-2.00931e-06
-1.79655e-07
-9.18824e-07
-1.83398e-06
-1.55091e-07
-7.95661e-07
-2.01615e-06
-1.83164e-07
-7.20933e-07
-1.89681e-06
-1.497e-07
-5.98377e-07
-2.02934e-06
-1.71416e-07
-5.28528e-07
-1.91187e-06
-1.39548e-07
-4.30146e-07
-2.00107e-06
-1.52583e-07
-3.76534e-07
-1.89844e-06
-1.29296e-07
-3.07088e-07
-1.95004e-06
-1.35823e-07
-2.68081e-07
-1.87423e-06
-1.22189e-07
-2.2116e-07
-1.8965e-06
-1.25187e-07
-1.93477e-07
-1.8478e-06
-1.18372e-07
-1.63144e-07
-1.84995e-06
-1.19742e-07
-1.44139e-07
-1.82254e-06
-1.16896e-07
-1.25911e-07
-1.81511e-06
-1.17407e-07
-1.12993e-07
-1.80009e-06
-1.17016e-07
-1.02209e-07
-1.79034e-06
-1.17663e-07
-9.40346e-08
-1.78028e-06
-1.184e-07
-8.78277e-08
-1.77139e-06
-1.19489e-07
-8.33963e-08
-1.763e-06
-1.20787e-07
-8.05003e-08
-1.75502e-06
-1.22282e-07
-7.90106e-08
-1.74714e-06
-1.23945e-07
-7.88577e-08
-1.73916e-06
-1.25795e-07
-8.00807e-08
-1.73074e-06
-1.27845e-07
-8.25868e-08
-1.72076e-06
-1.29969e-07
-8.64485e-08
-1.71444e-06
-1.3216e-07
-9.28073e-08
-1.69554e-06
-1.34487e-07
-9.91356e-08
-1.69481e-06
-1.37247e-07
-1.11314e-07
-1.65998e-06
-1.39282e-07
-1.20918e-07
-1.66697e-06
-1.43371e-07
-1.41917e-07
-1.60912e-06
-1.44518e-07
-1.57704e-07
-1.62173e-06
-1.50654e-07
-1.93305e-07
-1.53396e-06
-1.50201e-07
-2.21319e-07
-1.54561e-06
-1.59678e-07
-2.82417e-07
-1.4216e-06
-1.567e-07
-3.34114e-07
-1.41495e-06
-1.70681e-07
-4.41513e-07
-1.25006e-06
-1.65012e-07
-5.50594e-07
-1.18928e-06
-1.82446e-07
-7.47068e-07
-9.83588e-07
-1.76514e-07
-9.85373e-07
-8.4986e-07
-1.9412e-07
-1.3272e-06
-6.61565e-07
-1.84985e-07
-1.72926e-06
-5.90601e-07
-2.02581e-07
-2.1857e-06
-6.03357e-07
-1.87845e-07
-2.48327e-06
-9.82064e-07
-1.78241e-07
-2.03803e-06
-2.37162e-06
-5.50722e-08
1.45992e-06
-7.71036e-06
3.61658e-07
5.56252e-06
-1.37775e-05
7.13621e-07
7.23324e-06
-1.73042e-05
-2.31433e-07
2.78419e-06
-1.43596e-05
5.89622e-07
-2.72799e-07
-1.25571e-05
1.01886e-07
-8.8687e-06
-1.54074e-05
4.05637e-06
9.64199e-06
-2.04678e-05
-2.8855e-06
4.916e-06
-2.45979e-05
6.20562e-06
1.98429e-05
7.03549e-06
2.29659e-05
3.85301e-05
-2.46089e-06
-3.84012e-06
7.71403e-06
-1.99219e-05
-1.39245e-05
3.30423e-06
-6.12847e-06
-1.60726e-06
1.89174e-07
-3.74872e-06
3.89104e-07
-8.72202e-06
-1.90566e-06
4.98886e-06
-1.32919e-05
-3.99412e-06
8.89448e-07
-1.6159e-05
-3.02555e-06
-4.12446e-07
-1.61594e-05
-3.13528e-06
-2.16261e-06
-1.53161e-05
-2.80481e-06
-1.52128e-06
-1.39733e-05
-3.56637e-06
-1.32363e-06
-1.24077e-05
-4.62581e-06
-8.38355e-07
-1.09192e-05
-5.37698e-06
-1.0172e-07
-9.54524e-06
-5.99599e-06
5.46962e-07
-8.10692e-06
-6.26907e-06
1.08554e-06
-6.42913e-06
-6.33443e-06
1.45607e-06
-4.57655e-06
-4.38831e-06
1.29991e-06
-3.76357e-06
-8.88289e-07
1.56289e-06
-4.0035e-06
1.75393e-06
2.64313e-06
-5.09769e-06
4.83595e-06
3.05082e-06
-5.98608e-06
7.35224e-06
2.87312e-06
-5.68608e-06
8.14526e-06
2.59689e-06
-4.4329e-06
7.59574e-06
1.34144e-06
-2.16588e-06
6.86576e-06
-8.19051e-07
3.26818e-07
5.77804e-06
-1.8188e-06
2.25952e-06
4.43378e-06
-1.98845e-06
3.38613e-06
3.19281e-06
-1.71463e-06
3.87727e-06
2.12391e-06
-1.325e-06
4.0059e-06
1.13189e-06
-9.1832e-07
3.88762e-06
4.17055e-07
-5.84723e-07
3.62462e-06
3.38707e-08
-3.80246e-07
3.22146e-06
-4.2562e-08
-2.8462e-07
2.72107e-06
-1.5403e-08
-2.39527e-07
2.19264e-06
-1.37253e-07
-1.62912e-07
1.70791e-06
-3.76373e-07
-8.98834e-08
1.24404e-06
-5.76117e-07
-8.81432e-09
7.12089e-07
-6.62162e-07
6.17024e-08
-5.78611e-07
1.57894e-07
-2.29978e-06
-2.39094e-06
-9.84869e-07
-1.22324e-06
-3.57391e-06
-1.11109e-06
-1.3372e-06
-1.24238e-06
-4.69707e-07
-1.16911e-06
-1.98988e-06
-4.55031e-07
-1.20114e-06
-1.31966e-06
-3.85647e-07
-1.08911e-06
-1.71595e-06
-4.05902e-07
-1.02511e-06
-1.50805e-06
-3.8888e-07
-8.7585e-07
-1.74044e-06
-4.2482e-07
-7.76592e-07
-1.60432e-06
-3.90931e-07
-6.35992e-07
-1.75296e-06
-4.16685e-07
-5.50254e-07
-1.6164e-06
-3.8052e-07
-4.4285e-07
-1.71066e-06
-3.97544e-07
-3.82256e-07
-1.59058e-06
-3.67889e-07
-3.0895e-07
-1.6449e-06
-3.78202e-07
-2.69103e-07
-1.55442e-06
-3.59191e-07
-2.21929e-07
-1.57919e-06
-3.64262e-07
-1.95642e-07
-1.51924e-06
-3.54478e-07
-1.66258e-07
-1.52225e-06
-3.5689e-07
-1.48595e-07
-1.48663e-06
-3.53282e-07
-1.3095e-07
-1.47799e-06
-3.54583e-07
-1.19354e-07
-1.45734e-06
-3.54128e-07
-1.0935e-07
-1.44474e-06
-3.55441e-07
-1.01976e-07
-1.43071e-06
-3.56769e-07
-9.63713e-08
-1.41814e-06
-3.58709e-07
-9.23798e-08
-1.40589e-06
-3.60965e-07
-8.97305e-08
-1.39399e-06
-3.63568e-07
-8.82944e-08
-1.38205e-06
-3.66411e-07
-8.79696e-08
-1.36988e-06
-3.69522e-07
-8.85413e-08
-1.35716e-06
-3.72882e-07
-9.00755e-08
-1.34274e-06
-3.76448e-07
-9.28727e-08
-1.33156e-06
-3.79909e-07
-9.72162e-08
-1.30774e-06
-3.83484e-07
-1.01294e-07
-1.3022e-06
-3.88324e-07
-1.09733e-07
-1.2607e-06
-3.90909e-07
-1.15705e-07
-1.26285e-06
-3.97901e-07
-1.30471e-07
-1.19584e-06
-3.98592e-07
-1.39914e-07
-1.20314e-06
-4.08871e-07
-1.64708e-07
-1.10245e-06
-4.06783e-07
-1.81844e-07
-1.10655e-06
-4.21632e-07
-2.25672e-07
-9.61862e-07
-4.15923e-07
-2.60153e-07
-9.42142e-07
-4.38048e-07
-3.45605e-07
-7.35254e-07
-4.2932e-07
-4.32299e-07
-6.41595e-07
-4.60814e-07
-6.32913e-07
-3.27992e-07
-4.54932e-07
-9.39757e-07
-6.61783e-08
-4.77081e-07
-1.41806e-06
2.82416e-07
-4.65662e-07
-1.93998e-06
3.8895e-07
-4.58061e-07
-2.44209e-06
2.90764e-07
-3.92315e-07
-2.45689e-06
-5.93264e-07
-3.43852e-07
-9.24317e-07
-3.67414e-06
-5.04591e-08
1.75137e-06
-1.13569e-05
1.25571e-06
1.38024e-06
-1.46253e-05
1.32688e-06
-1.01865e-06
-1.56569e-05
7.70833e-07
-3.23314e-06
-1.42193e-05
2.03399e-06
-5.05019e-06
-1.1938e-05
1.27632e-06
-1.05351e-05
-1.21263e-05
2.07574e-06
-9.97068e-06
-2.04511e-05
2.49817e-07
-2.45109e-05
-1.52254e-05
2.78524e-06
2.49619e-05
-1.46964e-05
-6.7622e-07
4.29558e-05
-2.82915e-06
-5.85373e-06
6.07353e-06
-2.80351e-06
-1.69918e-05
-5.71199e-07
6.83757e-07
-2.8446e-06
-3.21947e-06
-2.28967e-07
-8.84393e-07
-1.14174e-05
2.30906e-06
3.98296e-06
-1.75334e-05
1.13511e-06
9.86514e-07
-2.1262e-05
9.40672e-07
-2.38826e-07
-2.30929e-05
-4.56924e-07
-8.49109e-07
-2.34555e-05
-1.81582e-06
-6.28685e-07
-2.23507e-05
-4.24279e-06
-4.29678e-07
-2.02566e-05
-6.64171e-06
-7.91783e-08
-1.83414e-05
-8.33681e-06
1.04444e-06
-1.75106e-05
-8.82234e-06
1.99545e-06
-1.74251e-05
-8.63795e-06
2.28333e-06
-1.75504e-05
-8.58054e-06
2.37132e-06
-1.74075e-05
-7.19522e-06
2.66401e-06
-1.65995e-05
-4.63804e-06
2.94176e-06
-1.54232e-05
-2.43123e-06
3.00887e-06
-1.39725e-05
4.53332e-07
2.9319e-06
-1.23033e-05
3.32019e-06
2.36291e-06
-9.89559e-06
4.73997e-06
9.97541e-07
-7.14758e-06
5.09812e-06
-2.50383e-07
-4.46908e-06
5.41169e-06
-1.22442e-06
-1.9698e-06
4.80769e-06
-1.52894e-06
-1.77731e-08
4.04239e-06
-1.56063e-06
1.29769e-06
3.2986e-06
-1.42125e-06
2.00602e-06
2.53669e-06
-1.1211e-06
2.27502e-06
1.5859e-06
-7.23011e-07
2.28246e-06
7.66363e-07
-3.56746e-07
2.35667e-06
1.91059e-07
-2.31399e-07
2.47165e-06
9.82507e-08
-2.55791e-07
2.46765e-06
3.25243e-07
-3.36648e-07
2.24005e-06
4.32298e-07
-3.41956e-07
1.64751e-06
5.5721e-07
-3.41043e-07
9.54822e-07
4.01121e-07
-2.84545e-07
5.43884e-07
1.91428e-08
-2.70366e-07
2.08698e-07
-2.43425e-07
-2.47889e-06
-1.49323e-06
-8.59707e-07
-1.30137e-06
-3.39127e-06
-1.36268e-06
-1.53323e-06
-4.11879e-07
-5.95195e-07
-1.31133e-06
-1.59642e-06
-6.17396e-07
-1.3358e-06
-7.16668e-07
-5.76334e-07
-1.19863e-06
-1.27595e-06
-5.78054e-07
-1.11103e-06
-1.00021e-06
-5.94312e-07
-9.48622e-07
-1.28221e-06
-6.20624e-07
-8.14787e-07
-1.1153e-06
-6.222e-07
-6.68991e-07
-1.25937e-06
-6.3915e-07
-5.56908e-07
-1.09468e-06
-6.33307e-07
-4.50492e-07
-1.17342e-06
-6.43453e-07
-3.75989e-07
-1.0277e-06
-6.36952e-07
-3.05348e-07
-1.06984e-06
-6.45531e-07
-2.60864e-07
-9.58195e-07
-6.40319e-07
-2.1673e-07
-9.75264e-07
-6.47893e-07
-1.90915e-07
-8.98911e-07
-6.458e-07
-1.6386e-07
-8.97628e-07
-6.5149e-07
-1.48158e-07
-8.48573e-07
-6.53456e-07
-1.32753e-07
-8.34828e-07
-6.58361e-07
-1.23308e-07
-8.05491e-07
-6.61034e-07
-1.14984e-07
-7.87815e-07
-6.65019e-07
-1.08917e-07
-7.6807e-07
-6.68477e-07
-1.04045e-07
-7.50507e-07
-6.72274e-07
-1.00606e-07
-7.33008e-07
-6.76108e-07
-9.83261e-08
-7.15977e-07
-6.80073e-07
-9.70916e-08
-6.99069e-07
-6.84021e-07
-9.65971e-08
-6.82231e-07
-6.87934e-07
-9.66691e-08
-6.65126e-07
-6.91766e-07
-9.7412e-08
-6.46513e-07
-6.95321e-07
-9.92102e-08
-6.30725e-07
-6.98805e-07
-1.01325e-07
-6.03484e-07
-7.02026e-07
-1.03444e-07
-5.93707e-07
-7.06083e-07
-1.07585e-07
-5.48018e-07
-7.08458e-07
-1.10144e-07
-5.46961e-07
-7.12976e-07
-1.16451e-07
-4.74546e-07
-7.14911e-07
-1.19689e-07
-4.79594e-07
-7.19891e-07
-1.29124e-07
-3.71412e-07
-7.21509e-07
-1.3438e-07
-3.72953e-07
-7.27873e-07
-1.51517e-07
-2.15685e-07
-7.28911e-07
-1.63405e-07
-1.89448e-07
-7.4036e-07
-2.06907e-07
5.05684e-08
-7.42158e-07
-2.54141e-07
1.64477e-07
-7.58562e-07
-3.99641e-07
5.6831e-07
-7.50714e-07
-6.21411e-07
9.2081e-07
-7.65052e-07
-9.31034e-07
1.3541e-06
-7.61395e-07
-1.41717e-06
1.63598e-06
-7.59199e-07
-2.00252e-06
1.61871e-06
-7.38856e-07
-2.3004e-06
4.45396e-07
-6.28823e-07
-2.03189e-06
-4.10665e-06
3.93662e-07
-6.78275e-06
-9.46895e-06
2.98354e-06
-1.12023e-05
-1.03287e-05
1.38338e-07
-1.16978e-05
-1.46587e-05
-4.2497e-07
-9.81418e-06
-1.71017e-05
9.87393e-07
-6.82956e-06
-1.62751e-05
1.59256e-06
-8.27227e-06
-1.32302e-05
2.48212e-06
-1.65154e-05
-1.59015e-05
4.9334e-06
-2.28463e-05
-1.33632e-05
4.38791e-06
3.23661e-05
-2.08072e-05
-2.04257e-05
4.25769e-05
8.66618e-07
-6.5207e-06
2.89099e-06
1.80534e-05
-1.87772e-05
-5.10361e-06
7.47665e-06
-1.01239e-06
-9.89563e-06
4.46768e-06
7.77417e-08
-1.64694e-05
5.76918e-06
3.11483e-06
-2.3201e-05
7.0403e-06
8.25414e-07
-2.69545e-05
4.68281e-06
7.13691e-09
-2.82878e-05
1.41665e-06
-5.45914e-07
-2.80038e-05
-1.60198e-06
-5.09696e-07
-2.54657e-05
-5.99629e-06
-7.97383e-07
-2.28446e-05
-8.70461e-06
-5.72492e-07
-2.05885e-05
-1.03002e-05
-3.00292e-07
-1.91246e-05
-1.07019e-05
4.09122e-07
-1.86475e-05
-1.02613e-05
1.14215e-06
-1.94827e-05
-9.65074e-06
1.90233e-06
-2.07304e-05
-8.47135e-06
2.52172e-06
-2.14046e-05
-6.93621e-06
2.97089e-06
-2.13129e-05
-5.36899e-06
2.84566e-06
-2.01054e-05
-3.37904e-06
2.62438e-06
-1.84252e-05
-3.21481e-07
1.96099e-06
-1.62822e-05
1.40721e-06
1.1896e-06
-1.37621e-05
2.28925e-06
2.88691e-07
-1.12134e-05
3.44258e-06
-5.79603e-07
-9.07593e-06
3.85089e-06
-1.18065e-06
-7.42047e-06
4.11633e-06
-1.7294e-06
-6.32145e-06
3.7082e-06
-1.50861e-06
-5.43662e-06
2.88745e-06
-1.23559e-06
-4.81081e-06
1.75097e-06
-7.90879e-07
-4.04889e-06
5.70955e-07
-5.6647e-07
-3.31194e-06
-1.49233e-07
-3.96666e-07
-2.21257e-06
-4.0103e-07
-6.00125e-07
-1.01583e-06
-1.29027e-07
-7.42467e-07
-4.35143e-08
6.83816e-08
-6.08397e-07
5.76136e-07
4.07353e-07
-4.69792e-07
7.82151e-07
4.86522e-07
-2.91414e-07
8.9515e-07
-3.93445e-08
-5.45111e-08
-2.46496e-07
1.35034e-06
-2.58759e-06
-2.31336e-07
-7.56586e-07
-1.31731e-06
-3.13377e-06
-1.53198e-06
-1.67603e-06
5.2997e-07
-5.78698e-07
-1.36555e-06
-1.22906e-06
-6.80523e-07
-1.36916e-06
-1.10995e-07
-5.9885e-07
-1.22484e-06
-8.34866e-07
-5.86748e-07
-1.12795e-06
-4.80066e-07
-6.15676e-07
-9.63951e-07
-8.07529e-07
-6.38925e-07
-8.17259e-07
-5.92569e-07
-6.68792e-07
-6.75452e-07
-7.15137e-07
-6.85882e-07
-5.48388e-07
-5.16536e-07
-7.04875e-07
-4.5328e-07
-5.59739e-07
-7.08688e-07
-3.69631e-07
-3.84548e-07
-7.26616e-07
-3.09218e-07
-4.01633e-07
-7.28644e-07
-2.60468e-07
-2.64862e-07
-7.41986e-07
-2.2289e-07
-2.67545e-07
-7.45394e-07
-1.96e-07
-1.72773e-07
-7.52991e-07
-1.72416e-07
-1.63777e-07
-7.57566e-07
-1.57589e-07
-1.0317e-07
-7.60242e-07
-1.44131e-07
-8.52116e-08
-7.6321e-07
-1.34819e-07
-4.97918e-08
-7.65066e-07
-1.26434e-07
-2.94652e-08
-7.66853e-07
-1.19391e-07
-7.82015e-09
-7.67381e-07
-1.1481e-07
1.33932e-08
-7.68618e-07
-1.12195e-07
3.38702e-08
-7.69633e-07
-1.10422e-07
5.22694e-08
-7.70194e-07
-1.09172e-07
6.96212e-08
-7.70108e-07
-1.08507e-07
8.65105e-08
-7.69608e-07
-1.08259e-07
1.03544e-07
-7.69091e-07
-1.08153e-07
1.21435e-07
-7.68296e-07
-1.08463e-07
1.36913e-07
-7.67458e-07
-1.08369e-07
1.6166e-07
-7.65533e-07
-1.0827e-07
1.69896e-07
-7.63757e-07
-1.07943e-07
2.138e-07
-7.62473e-07
-1.06229e-07
2.10783e-07
-7.59415e-07
-1.03397e-07
2.82413e-07
-7.6012e-07
-9.69379e-08
2.68834e-07
-7.5473e-07
-8.82088e-08
3.7808e-07
-7.58513e-07
-7.10792e-08
3.62946e-07
-7.52775e-07
-5.19607e-08
5.25256e-07
-7.60306e-07
-7.45988e-09
5.32112e-07
-7.65668e-07
2.72732e-08
7.99801e-07
-7.84259e-07
1.14643e-07
9.0724e-07
-8.3005e-07
1.13849e-07
1.45923e-06
-8.90166e-07
-2.3636e-07
2.2422e-06
-9.70018e-07
-9.31731e-07
3.00579e-06
-9.5332e-07
-1.71296e-06
3.12838e-06
-7.0697e-07
-2.11078e-06
2.60552e-06
-5.75315e-07
-2.3797e-06
1.18637e-06
-3.10529e-07
-5.92827e-06
-1.38159e-06
9.39845e-07
-1.3774e-05
-3.84467e-06
2.30248e-06
-1.67802e-05
-7.08056e-06
-2.35635e-07
-1.64427e-05
-1.29396e-05
-2.01322e-06
-1.72318e-05
-1.64788e-05
3.05934e-07
-1.83959e-05
-1.58427e-05
9.73147e-07
-1.59626e-05
-1.5585e-05
-1.97043e-07
-2.0572e-05
-9.95797e-06
8.72825e-08
-2.50567e-05
-1.34713e-05
1.78039e-06
2.38168e-05
-2.97431e-05
-1.47294e-05
4.55582e-05
4.05526e-06
-7.28757e-06
1.27832e-05
3.03692e-05
-1.95054e-05
5.9957e-06
1.25937e-05
-1.5743e-06
-1.46983e-06
1.05766e-05
1.31287e-06
-1.01736e-05
8.79869e-06
5.69018e-06
-1.64821e-05
1.10284e-05
2.32584e-06
-2.06663e-05
6.39963e-06
2.47696e-06
-2.17647e-05
1.96727e-06
5.49093e-07
-2.20598e-05
-1.83948e-06
5.31221e-07
-2.13995e-05
-5.91228e-06
-7.58883e-07
-2.08168e-05
-8.90687e-06
-4.03728e-07
-1.91769e-05
-1.13512e-05
-6.13293e-07
-1.71734e-05
-1.2688e-05
-5.8433e-08
-1.57111e-05
-1.21701e-05
4.11031e-07
-1.5219e-05
-1.13318e-05
1.15664e-06
-1.51865e-05
-1.01135e-05
1.5776e-06
-1.5326e-05
-8.85394e-06
2.04444e-06
-1.53966e-05
-7.59117e-06
2.27482e-06
-1.58165e-05
-5.47149e-06
2.49634e-06
-1.56355e-05
-2.59443e-06
2.07662e-06
-1.50861e-05
-6.70035e-07
1.51769e-06
-1.44171e-05
9.9821e-07
6.18666e-07
-1.34513e-05
2.66134e-06
-1.85688e-07
-1.22277e-05
3.28908e-06
-6.72307e-07
-1.07131e-05
3.25621e-06
-6.68941e-07
-9.20715e-06
2.49596e-06
-3.02567e-07
-7.9475e-06
1.41668e-06
2.06623e-07
-7.40415e-06
7.15828e-07
4.90071e-07
-7.07884e-06
-8.90329e-08
3.33625e-07
-6.55288e-06
-5.85944e-07
-9.08128e-08
-5.79105e-06
-8.01562e-07
-3.6384e-07
-4.88911e-06
-8.16136e-07
-2.16456e-07
-3.42985e-06
-9.11888e-07
-4.79692e-07
-1.73326e-06
-7.87129e-07
-5.02803e-07
7.59021e-08
-6.78815e-07
-6.44635e-07
1.2231e-06
-7.25037e-07
-4.6286e-07
-1.97548e-06
2.95188e-06
-2.33906e-06
1.53294e-06
-1.83872e-07
-1.40676e-06
-2.58974e-06
-1.48427e-06
-1.86192e-06
1.40488e-06
-4.14182e-07
-1.47924e-06
-8.5312e-07
-7.62432e-07
-1.42914e-06
4.47935e-07
-6.04802e-07
-1.27162e-06
-3.78582e-07
-6.1519e-07
-1.14353e-06
1.74846e-08
-6.23587e-07
-9.62959e-07
-2.94253e-07
-6.94258e-07
-8.07935e-07
-4.811e-08
-6.98447e-07
-6.39926e-07
-1.34045e-07
-7.48915e-07
-5.12034e-07
1.03099e-07
-7.46883e-07
-4.0749e-07
1.09009e-07
-7.73071e-07
-3.28778e-07
3.17511e-07
-7.80352e-07
-2.70863e-07
3.38823e-07
-7.98258e-07
-2.29321e-07
5.02324e-07
-8.08447e-07
-1.97771e-07
5.23441e-07
-8.22505e-07
-1.7822e-07
6.40516e-07
-8.32664e-07
-1.61782e-07
6.65286e-07
-8.45531e-07
-1.54071e-07
7.43385e-07
-8.54188e-07
-1.46822e-07
7.73258e-07
-8.65794e-07
-1.43832e-07
8.2247e-07
-8.75262e-07
-1.41174e-07
8.53457e-07
-8.85681e-07
-1.42055e-07
8.87072e-07
-8.94103e-07
-1.42428e-07
9.15844e-07
-9.02174e-07
-1.42749e-07
9.43308e-07
-9.09212e-07
-1.43343e-07
9.68949e-07
-9.16167e-07
-1.44157e-07
9.9329e-07
-9.2295e-07
-1.45172e-07
1.01694e-06
-9.29495e-07
-1.46079e-07
1.04028e-06
-9.35912e-07
-1.46985e-07
1.06406e-06
-9.41813e-07
-1.48562e-07
1.08626e-06
-9.47785e-07
-1.48018e-07
1.11554e-06
-9.54539e-07
-1.48234e-07
1.13124e-06
-9.61043e-07
-1.45502e-07
1.17833e-06
-9.67381e-07
-1.42155e-07
1.18226e-06
-9.74609e-07
-1.33462e-07
1.25498e-06
-9.81365e-07
-1.20465e-07
1.24709e-06
-9.90901e-07
-9.78934e-08
1.35422e-06
-9.98764e-07
-6.17553e-08
1.34446e-06
-1.01716e-06
-7.67418e-09
1.50166e-06
-1.03058e-06
9.23935e-08
1.51189e-06
-1.07923e-06
2.20718e-07
1.79728e-06
-1.12557e-06
4.26129e-07
1.95494e-06
-1.25254e-06
5.80933e-07
2.69318e-06
-1.38704e-06
6.85741e-07
3.48839e-06
-1.34525e-06
1.03086e-06
3.80414e-06
-1.13619e-06
1.98478e-06
3.07791e-06
-8.96744e-07
3.31724e-06
1.8531e-06
-5.79345e-07
3.02897e-06
1.724e-06
-1.30178e-07
-4.53752e-06
5.17909e-06
1.08107e-06
-1.54251e-05
6.02976e-06
1.15272e-06
-1.87646e-05
-9.63545e-07
-2.70259e-06
-1.89964e-05
-7.40067e-06
-5.15036e-06
-1.88397e-05
-1.28539e-05
-3.69412e-06
-2.08816e-05
-8.05511e-06
-5.57534e-06
-1.58894e-05
-9.37111e-06
-1.14523e-05
-6.00166e-06
-1.74536e-06
-1.57059e-05
-1.27341e-05
-1.94132e-06
-8.60055e-06
1.88933e-05
-4.14666e-05
6.82009e-06
4.81552e-05
4.18514e-06
-6.3256e-06
1.38006e-05
4.12355e-05
-2.19656e-05
5.00389e-06
1.79054e-05
3.76892e-07
-7.09869e-07
1.25744e-05
3.70473e-06
-9.65072e-06
9.3935e-06
8.36629e-06
-1.47749e-05
1.14577e-05
4.70047e-06
-1.69717e-05
5.16451e-06
3.43032e-06
-1.7787e-05
-3.47186e-07
3.13311e-06
-1.77148e-05
-5.66375e-06
3.75884e-06
-1.78133e-05
-8.59345e-06
2.7836e-06
-1.87485e-05
-9.95967e-06
1.99615e-06
-1.99411e-05
-1.04101e-05
2.49028e-07
-2.1263e-05
-1.05327e-05
-8.90997e-07
-2.18394e-05
-1.10613e-05
-5.76345e-07
-2.18628e-05
-1.09928e-05
-3.22138e-07
-2.14321e-05
-1.02689e-05
-2.93416e-07
-2.09275e-05
-9.46799e-06
3.81839e-08
-2.01083e-05
-8.69289e-06
2.12282e-07
-1.90171e-05
-6.93023e-06
2.94509e-07
-1.72956e-05
-4.74392e-06
3.5793e-07
-1.55162e-05
-2.80825e-06
2.87713e-07
-1.37269e-05
-1.03321e-06
1.73189e-07
-1.17014e-05
3.19797e-07
2.43812e-07
-9.54183e-06
6.54696e-07
3.85056e-07
-7.16991e-06
2.68835e-07
5.08973e-07
-4.83697e-06
-6.89554e-07
7.36789e-07
-2.85838e-06
-1.51123e-06
8.19059e-07
-1.54895e-06
-1.72846e-06
1.0009e-06
-7.77641e-07
-1.95208e-06
9.56485e-07
-3.04936e-07
-2.30227e-06
1.10214e-06
-1.08777e-07
-2.56708e-06
1.42137e-06
-1.91376e-07
-2.62516e-06
1.75875e-06
-4.55949e-07
-2.68816e-06
1.95929e-06
-1.03261e-06
-2.32891e-06
2.14987e-06
-1.88203e-06
-2.16129e-06
2.3145e-06
-2.15934e-06
-2.70261e-06
2.24814e-06
-5.01091e-06
-8.29885e-08
-3.05642e-06
2.98152e-06
1.84586e-06
-1.8738e-06
-2.37723e-06
-1.41143e-06
-2.0949e-06
1.58695e-06
4.73226e-08
-1.54249e-06
-6.78736e-07
-7.30857e-07
-1.40808e-06
7.17115e-07
-3.97306e-07
-1.26537e-06
-9.17345e-08
-4.30389e-07
-1.10312e-06
2.79663e-07
-4.21638e-07
-9.29825e-07