/*--------------------------------*- C++ -*----------------------------------*\
| =========                 |                                                 |
| \\      /  F ield         | OpenFOAM: The Open Source CFD Toolbox           |
|  \\    /   O peration     | Version:  2.3.0                                 |
|   \\  /    A nd           | Web:      www.OpenFOAM.org                      |
|    \\/     M anipulation  |                                                 |
\*---------------------------------------------------------------------------*/
FoamFile
{
    version     2.0;
    format      ascii;
    class       volVectorField;
    location    "5";
    object      U.air;
}
// * * * * * * * * * * * * * * * * * * * * * * * * * * * * * * * * * * * * * //

dimensions      [0 1 -1 0 0 0 0];

internalField   nonuniform List<vector> 
6144
(
(0.00861237 0.0259031 -0.00177437)
(0.00825273 0.0109055 -0.00199792)
(0.00627812 0.00912171 -0.00299254)
(0.00610223 0.00647076 -0.00307731)
(0.00527846 0.00553768 -0.00323629)
(0.00533982 0.00484166 -0.00327368)
(0.00496112 0.0043459 -0.0033329)
(0.00512031 0.00398975 -0.0033673)
(0.00488614 0.00350674 -0.00343746)
(0.00503011 0.00324057 -0.00347484)
(0.00486205 0.00276745 -0.00354482)
(0.00495737 0.00255511 -0.00357106)
(0.00483806 0.00214392 -0.00362116)
(0.00487929 0.00196913 -0.00363911)
(0.00480538 0.00166437 -0.00367041)
(0.00481047 0.00151627 -0.00368235)
(0.00477146 0.00131772 -0.00369965)
(0.00475854 0.00119363 -0.00370851)
(0.00473607 0.00106951 -0.00371787)
(0.00472032 0.000977359 -0.00372432)
(0.0047047 0.000899104 -0.00372989)
(0.00469129 0.000838283 -0.00373426)
(0.00467913 0.00079072 -0.00373791)
(0.00466812 0.000755369 -0.00374097)
(0.0046579 0.000730953 -0.00374366)
(0.00464821 0.000715436 -0.0037459)
(0.00463855 0.000710896 -0.00374779)
(0.00462944 0.000708315 -0.00374878)
(0.00462172 0.000744767 -0.00374957)
(0.00460693 0.000700822 -0.00374744)
(0.00460503 0.000869839 -0.00375115)
(0.00458099 0.000688435 -0.00374422)
(0.00458617 0.00109571 -0.00375099)
(0.00454926 0.000697816 -0.00373893)
(0.00456171 0.00143331 -0.00374625)
(0.00450942 0.000773963 -0.00373097)
(0.00452532 0.00190494 -0.00373308)
(0.0044583 0.000989352 -0.00371869)
(0.00446383 0.00255332 -0.00370623)
(0.0043951 0.00145696 -0.00370701)
(0.00436192 0.00345064 -0.00367255)
(0.00429743 0.00235641 -0.00368984)
(0.00422658 0.00474424 -0.00365148)
(0.0041704 0.00387248 -0.003687)
(0.0041014 0.00663344 -0.00367619)
(0.00408867 0.00607501 -0.00375441)
(0.00409952 0.00913456 -0.00383152)
(0.00418309 0.00857077 -0.0040297)
(0.0042877 0.012019 -0.00433157)
(0.0045175 0.0102597 -0.00479212)
(0.00455649 0.0156796 -0.0056093)
(0.00473949 0.0107351 -0.00664089)
(0.00914978 0.0210403 -0.00842938)
(0.0131607 -0.0100217 -0.0127893)
(0.0285328 -0.00799449 -0.0161857)
(0.0354474 -0.0613989 -0.0138529)
(0.0165646 -0.0362568 -0.0299713)
(0.0314303 -0.071212 0.000565749)
(-0.049601 0.025363 -0.0620003)
(0.0362052 0.130076 0.0492973)
(0.122318 0.298525 0.0666742)
(0.037993 0.380488 0.0134154)
(0.0521693 -0.118031 0.0349514)
(0.043886 -0.187339 0.0250096)
(0.0376829 -0.199105 0.0201519)
(0.0275367 -0.194412 0.0135947)
(0.0200214 -0.189942 0.0142824)
(0.0124256 -0.184061 0.0104206)
(0.00798514 -0.173773 0.00880053)
(0.00487352 -0.167383 0.00792378)
(0.00433072 -0.164996 0.00784072)
(0.00508017 -0.164041 0.00778114)
(0.00609847 -0.163696 0.00831164)
(0.00634198 -0.164613 0.00888914)
(0.00562614 -0.165272 0.0109794)
(0.00419075 -0.163402 0.0128917)
(0.00222794 -0.158166 0.0120745)
(0.000603056 -0.14435 0.0145682)
(-0.00109328 -0.126185 0.0107794)
(-0.00934086 -0.101768 0.00753085)
(-0.0184093 -0.0595716 0.0180034)
(-0.0166436 -0.0331966 0.0238117)
(-0.0108536 -0.0237573 0.01812)
(-0.00544047 -0.0229666 0.00703424)
(-0.000736275 -0.0228098 -0.00070123)
(0.00268822 -0.0208386 -0.00291345)
(0.00453157 -0.0181772 -0.00352368)
(0.00552873 -0.0153365 -0.00401617)
(0.00603933 -0.0125018 -0.00446013)
(0.00627969 -0.00981184 -0.00476951)
(0.0064278 -0.00750457 -0.00490978)
(0.00654625 -0.0056894 -0.00497179)
(0.00664195 -0.0040727 -0.00504056)
(0.00666309 -0.00188713 -0.00513323)
(0.00666878 0.000885235 -0.0052173)
(0.00656503 0.00379305 -0.00520722)
(0.0180851 0.0259762 0.00316259)
(0.0178776 0.0117186 0.00237949)
(0.0125642 0.010162 -0.000198982)
(0.0125513 0.00808857 -0.000413645)
(0.0107274 0.00730894 -0.000901899)
(0.0110821 0.00681045 -0.000871564)
(0.010361 0.0061283 -0.00104599)
(0.0107948 0.00574952 -0.000958942)
(0.010322 0.00504169 -0.00111687)
(0.0107139 0.00469214 -0.00103662)
(0.0103013 0.00400949 -0.00117638)
(0.0105881 0.00369818 -0.00112703)
(0.0102465 0.0031346 -0.00122441)
(0.0103992 0.00288002 -0.00119631)
(0.0101618 0.00246083 -0.0012611)
(0.0102055 0.00226437 -0.0012496)
(0.0100688 0.00198115 -0.0012823)
(0.0100472 0.00182496 -0.00128227)
(0.0099727 0.00165005 -0.00129458)
(0.00993079 0.00153023 -0.00129774)
(0.00988283 0.00142211 -0.00130166)
(0.00984314 0.00133927 -0.00130328)
(0.00980617 0.0012723 -0.00130392)
(0.00977266 0.00122084 -0.00130351)
(0.00974152 0.00118251 -0.00130236)
(0.00971225 0.00115519 -0.00130049)
(0.00968376 0.00114046 -0.00129817)
(0.00965601 0.00113076 -0.00129495)
(0.00963086 0.00115235 -0.00129064)
(0.00959208 0.00110709 -0.00128388)
(0.00957992 0.00126747 -0.00128171)
(0.00951433 0.00106069 -0.00127105)
(0.00952176 0.00149581 -0.00127022)
(0.00941323 0.00101127 -0.00125613)
(0.00944303 0.00185045 -0.00125544)
(0.009277 0.00100017 -0.00124054)
(0.00932313 0.00235739 -0.00123688)
(0.00909157 0.00109441 -0.00122498)
(0.0091321 0.00306409 -0.00121251)
(0.00884341 0.00138903 -0.00121155)
(0.00881606 0.00403284 -0.00119639)
(0.00850744 0.00208513 -0.00119825)
(0.00836185 0.00535842 -0.00120113)
(0.00807161 0.00343756 -0.00122164)
(0.00789312 0.00723996 -0.00124679)
(0.00771184 0.00561849 -0.00131874)
(0.00783824 0.00974876 -0.00134976)
(0.00795815 0.00818465 -0.00156271)
(0.00868056 0.012606 -0.00158647)
(0.00927727 0.00939956 -0.0022862)
(0.00996842 0.0153454 -0.00301098)
(0.0153301 0.00494664 -0.00534525)
(0.0356584 0.000139356 -0.00331022)
(0.0684665 -0.0553932 -0.00473141)
(0.0653289 -0.0563027 -0.00111987)
(0.0868406 -0.11556 0.0145895)
(0.0432435 -0.0985719 0.00396156)
(0.0391955 -0.18626 0.0129021)
(-0.107237 0.0651957 -0.142793)
(0.024257 0.0353811 0.0292983)
(0.117911 0.349087 0.103974)
(-0.0120502 0.411304 0.0204244)
(-0.0160101 -0.0686408 0.0206967)
(0.00445258 -0.0142054 -0.00164831)
(0.0195757 -0.00889358 -0.00488743)
(0.0128352 0.0073904 0.00471368)
(0.0083836 0.00498249 0.0131801)
(0.0133208 0.00113468 0.0147637)
(0.0188273 -0.0107232 0.0145824)
(0.0206889 -0.0298476 0.0126203)
(0.0228022 -0.0487586 0.0118265)
(0.0245553 -0.0632186 0.0107613)
(0.0250367 -0.0742778 0.0110529)
(0.0229883 -0.0835607 0.0131656)
(0.0156972 -0.0928015 0.015892)
(0.00594374 -0.103326 0.0166406)
(-0.00714856 -0.112168 0.0147932)
(-0.0150441 -0.110053 0.0150291)
(-0.016982 -0.101806 0.0119162)
(-0.0225143 -0.0824161 0.0048729)
(-0.0279771 -0.0452974 0.0134611)
(-0.0246837 -0.0258397 0.0211303)
(-0.0214277 -0.0203632 0.0190361)
(-0.0149404 -0.0210436 0.00986395)
(-0.00710533 -0.0213175 0.00359137)
(-0.00134433 -0.0194852 0.00116166)
(0.00220356 -0.017023 -0.000350681)
(0.00423254 -0.0144825 -0.00135737)
(0.00530473 -0.0120055 -0.00192121)
(0.00585647 -0.00957184 -0.00225515)
(0.00611808 -0.00739019 -0.00245546)
(0.00634157 -0.00558601 -0.00254666)
(0.0066469 -0.00402284 -0.0025331)
(0.00680182 -0.00185418 -0.0026399)
(0.00688145 0.000961588 -0.00279201)
(0.0068181 0.00382901 -0.00294399)
(0.0208413 0.0223007 0.005785)
(0.0214703 0.0101732 0.00493202)
(0.0141319 0.00816483 0.00188243)
(0.0147539 0.00784373 0.00185306)
(0.0123245 0.00665155 0.00137427)
(0.013066 0.00681035 0.00159206)
(0.0121566 0.00596172 0.00136973)
(0.0128095 0.00576158 0.00158991)
(0.0121936 0.00492553 0.00133645)
(0.0127284 0.0046547 0.00149646)
(0.0121768 0.00386151 0.00125556)
(0.0125338 0.0036446 0.00136372)
(0.0120741 0.00299787 0.0011811)
(0.0122662 0.00282314 0.00124648)
(0.0119249 0.00235542 0.00113476)
(0.0119836 0.00219977 0.00117228)
(0.0117706 0.00189675 0.0011101)
(0.0117423 0.00176808 0.00112683)
(0.0116206 0.00158714 0.00110364)
(0.0115588 0.00148414 0.0011103)
(0.0114811 0.00137969 0.00110861)
(0.0114181 0.00130532 0.00111506)
(0.0113575 0.00124357 0.0011223)
(0.0113019 0.00119709 0.00113212)
(0.0112494 0.00116264 0.00114346)
(0.0111994 0.00113871 0.00115621)
(0.0111505 0.00112519 0.00116993)
(0.0111021 0.0011163 0.00118488)
(0.0110538 0.00113499 0.00120112)
(0.0109958 0.00109591 0.00121868)
(0.0109606 0.00124098 0.00123471)
(0.0108629 0.00104664 0.00125317)
(0.0108532 0.00145496 0.00126749)
(0.0106896 0.000989583 0.00128503)
(0.0107143 0.00178576 0.00130306)
(0.010459 0.000957536 0.00131469)
(0.010512 0.00225294 0.0013411)
(0.0101453 0.00101326 0.00134234)
(0.0102026 0.00290351 0.00138448)
(0.00972131 0.00125183 0.0013679)
(0.00969572 0.00382577 0.00141555)
(0.00915052 0.00184831 0.001381)
(0.00893417 0.00515616 0.00139764)
(0.00839076 0.00315053 0.00132125)
(0.00806272 0.00715753 0.00128233)
(0.00768415 0.00555922 0.00110634)
(0.00774732 0.0100085 0.00107115)
(0.00798912 0.0086572 0.000763674)
(0.00909522 0.0133065 0.000499989)
(0.0109893 0.0100121 -0.000741797)
(0.0161432 0.0156062 -0.00306108)
(0.0403104 -0.0102299 -0.00359964)
(0.0836053 -0.019318 0.0100221)
(0.0970033 -0.0715195 -0.00167674)
(0.0929055 -0.0358517 0.0187833)
(0.117397 -0.105752 0.045786)
(0.044178 -0.0496832 0.0803871)
(0.0943763 -0.232446 0.147397)
(-0.08108 0.10514 -0.0979959)
(0.0425452 0.00625796 -0.00293206)
(0.15915 0.388117 0.131953)
(0.0418659 0.43475 0.0437428)
(0.0497259 -0.0546679 0.0292569)
(0.0478693 0.0231553 -0.023567)
(0.0540802 0.0259474 -0.00184762)
(0.0492898 0.0408727 0.0128761)
(0.0422008 0.0299323 0.0217271)
(0.0297909 0.00634465 0.0245676)
(0.0287964 -0.00598892 0.0230402)
(0.0278447 -0.0210059 0.0186552)
(0.0254839 -0.0349639 0.0155226)
(0.0239495 -0.0448102 0.0133866)
(0.0232789 -0.0569876 0.0147071)
(0.0214315 -0.0645295 0.0153762)
(0.0139768 -0.0742642 0.0153881)
(0.00253483 -0.0826934 0.0101598)
(-0.0104413 -0.0852988 -0.003054)
(-0.0244999 -0.0782849 -0.00955083)
(-0.0402194 -0.0607222 -0.00340159)
(-0.0540817 -0.0322464 0.00973223)
(-0.05311 -0.00822912 0.0218015)
(-0.043374 -0.00143829 0.0207567)
(-0.0331753 -0.00305199 0.011542)
(-0.0220681 -0.00802508 0.005604)
(-0.0122414 -0.0116225 0.00417048)
(-0.00495497 -0.0131556 0.0034491)
(9.44468e-05 -0.0130471 0.00264853)
(0.00321882 -0.0120431 0.00166572)
(0.00484268 -0.0106551 0.000599074)
(0.00557067 -0.00881804 -0.000232741)
(0.00592298 -0.00685361 -0.000620173)
(0.00617782 -0.0050676 -0.000828162)
(0.00651731 -0.00364135 -0.000778447)
(0.00679036 -0.00174498 -0.000841528)
(0.00700812 0.000817941 -0.00109017)
(0.00722332 0.00367426 -0.0012931)
(0.0205984 0.0195364 0.00663824)
(0.0229411 0.0102894 0.00640389)
(0.0129317 0.00688826 0.00302575)
(0.0149947 0.00858587 0.00308841)
(0.0118471 0.00649475 0.00279341)
(0.0131332 0.00755396 0.00304011)
(0.0120461 0.00623886 0.00288507)
(0.012966 0.00629335 0.00312282)
(0.0122324 0.00513837 0.00287741)
(0.0129268 0.00496761 0.00303978)
(0.0122314 0.00392644 0.00279354)
(0.0126933 0.00379604 0.00290468)
(0.0120954 0.00296878 0.00271175)
(0.0123382 0.00289565 0.00278506)
(0.0118959 0.00231332 0.00266239)
(0.0119741 0.00224427 0.00270831)
(0.0116793 0.00187749 0.00264349)
(0.0116478 0.00179576 0.00267028)
(0.0114745 0.00158943 0.00264347)
(0.0113953 0.00150864 0.00265704)
(0.011285 0.00140071 0.00265584)
(0.0111988 0.00133513 0.0026668)
(0.0111135 0.00127616 0.00267711)
(0.0110349 0.00123322 0.00269074)
(0.0109601 0.00120069 0.00270585)
(0.0108882 0.00117801 0.00272253)
(0.0108176 0.00116423 0.00274031)
(0.0107475 0.0011557 0.00275925)
(0.0106762 0.00116859 0.0027789)
(0.0105974 0.0011355 0.00280001)
(0.0105404 0.00125891 0.00282076)
(0.010414 0.00107974 0.00284361)
(0.0103887 0.00145089 0.00286491)
(0.0101817 0.0010023 0.00288712)
(0.0101995 0.00174811 0.00291418)
(0.00987716 0.000929337 0.00292952)
(0.00992695 0.00216429 0.00296595)
(0.00945842 0.000911559 0.00296563)
(0.00950747 0.00274143 0.00301562)
(0.00887272 0.00103617 0.00298678)
(0.00883011 0.00357134 0.00303913)
(0.0080354 0.00145944 0.00295973)
(0.00772994 0.00483702 0.00295239)
(0.00682886 0.00260876 0.00276773)
(0.00626324 0.00691259 0.00263282)
(0.00557572 0.00527265 0.00232205)
(0.00564955 0.0103161 0.00216174)
(0.00604652 0.00970701 0.00170227)
(0.00723972 0.0151476 0.00137366)
(0.0115798 0.0114025 0.000495655)
(0.0330346 0.0138278 -0.000209125)
(0.0672074 -0.0282882 0.0122693)
(0.0971986 -0.0209034 0.0489662)
(0.0935415 -0.052891 0.0352164)
(0.0741467 0.0360191 0.0567787)
(0.086904 -0.034784 0.0832652)
(0.0579485 0.165227 0.159322)
(0.149488 -0.280896 0.198738)
(-0.113002 0.371233 -0.0631047)
(0.0292917 -0.0929237 0.0443627)
(0.124269 0.484672 0.148674)
(0.0276078 0.572803 0.0279458)
(0.0208016 0.528857 -0.00187605)
(0.0171352 0.59585 -0.0291455)
(0.0230338 0.587534 -0.0101543)
(0.0155032 0.57431 -0.0027772)
(0.0137613 0.409965 0.00576865)
(0.0109018 0.107763 0.00205758)
(0.0123262 0.0826663 -0.00246892)
(0.0159948 0.0780969 -0.00142279)
(0.0177074 0.0683821 -0.0025788)
(0.0188171 0.0620186 -0.00360097)
(0.0168924 0.0529329 -0.00456888)
(0.0142785 0.0482139 -0.00762058)
(0.00164219 0.0382438 -0.00741488)
(-0.0141409 0.0273156 -0.00807568)
(-0.0274228 0.0272889 -0.0121736)
(-0.0398215 0.0301462 -0.00727534)
(-0.0486942 0.0365578 0.00283315)
(-0.0503252 0.0392518 0.0115222)
(-0.0437854 0.0355207 0.0155694)
(-0.0364682 0.026039 0.0107578)
(-0.0285574 0.0139643 0.0075154)
(-0.0196609 0.00354413 0.00760033)
(-0.0123984 -0.00364821 0.0068303)
(-0.0071563 -0.00726676 0.00527663)
(-0.00300397 -0.00851596 0.00357855)
(-0.000164212 -0.00843021 0.00189452)
(0.00130605 -0.0077399 0.000535988)
(0.00165845 -0.00656862 -0.000262678)
(0.00136755 -0.00517354 -0.000679713)
(0.00160039 -0.00375665 -0.00127384)
(0.00229596 -0.002813 -0.00145374)
(0.0027894 -0.00141205 -0.00173383)
(0.00319001 0.000716272 -0.00203279)
(0.00279768 0.00331357 -0.00220115)
(0.0177349 0.0175331 0.00723538)
(0.0230377 0.0117643 0.00761775)
(0.00992484 0.00659767 0.00390162)
(0.013524 0.010256 0.00384068)
(0.00972559 0.00680636 0.00356928)
(0.0117391 0.00874598 0.00385023)
(0.0105375 0.00666898 0.00374985)
(0.0117759 0.00699265 0.00405965)
(0.010954 0.00537355 0.00383264)
(0.0117889 0.00531224 0.0040185)
(0.0109631 0.00396327 0.00377959)
(0.0114889 0.00394255 0.0039072)
(0.0107569 0.00291451 0.00370802)
(0.0110406 0.00294769 0.00380382)
(0.0104842 0.00223876 0.00366811)
(0.010582 0.00227117 0.00373546)
(0.0102058 0.0018263 0.00366345)
(0.010175 0.00182012 0.00371032)
(0.0099384 0.00157573 0.00368274)
(0.00984561 0.00153066 0.0037127)
(0.00969756 0.00141355 0.00371473)
(0.00959049 0.00136188 0.00373701)
(0.00948078 0.00130534 0.00375529)
(0.00938037 0.00126739 0.00377848)
(0.00928328 0.00123768 0.00380297)
(0.0091892 0.00121695 0.00382941)
(0.00909621 0.00120345 0.00385714)
(0.00900317 0.00119545 0.00388608)
(0.00890778 0.00120117 0.00391612)
(0.00880538 0.00117243 0.00394677)
(0.00872379 0.00127288 0.00397746)
(0.00857138 0.00110883 0.00400774)
(0.00852199 0.00143513 0.00404298)
(0.00827788 0.00100529 0.00406937)
(0.00827359 0.0016874 0.00411211)
(0.00789799 0.000884369 0.0041271)
(0.00792717 0.00203553 0.00418134)
(0.00738042 0.000779545 0.00417423)
(0.00740467 0.00249955 0.00423932)
(0.00664413 0.000754039 0.00419044)
(0.00657182 0.00314829 0.00424654)
(0.00554597 0.000937106 0.00411488)
(0.00517099 0.00417345 0.00406219)
(0.00382821 0.00177405 0.00374797)
(0.00293482 0.00624679 0.00345127)
(0.00154098 0.00504329 0.0028691)
(0.000600384 0.0107475 0.00232905)
(0.000233721 0.0105602 0.00145931)
(0.00294789 0.015274 0.0011449)
(0.0152221 0.00929497 2.06976e-05)
(0.0531314 0.00188655 -0.00227503)
(0.0815037 -0.0151789 0.0179148)
(0.0886729 0.009247 0.0590286)
(0.0623917 0.00703841 0.0598696)
(0.0584477 0.0377839 0.0716572)
(0.0790859 0.00885677 0.0734911)
(0.140631 0.125812 0.0947751)
(0.10377 -0.0481066 0.0579945)
(0.0508857 0.487353 0.053403)
(0.0225317 -0.11843 0.0528548)
(0.066722 0.503179 0.15661)
(0.00659861 0.577571 0.0268208)
(0.00504659 0.540692 -0.00138791)
(-0.0014585 0.608447 -0.031785)
(0.00745931 0.624222 -0.00735403)
(0.00556318 0.64506 -0.00460441)
(0.0114676 0.641871 0.0103969)
(0.0182161 0.636259 0.0137353)
(0.0269058 0.597858 0.0183882)
(0.0344628 0.497407 0.0156392)
(0.0371053 0.284838 0.0100094)
(0.0401478 0.110373 0.00139245)
(0.0411141 0.0849392 -0.00353961)
(0.0418375 0.086789 -0.00539938)
(0.0345816 0.0900953 -0.00642907)
(0.0195038 0.0863648 -0.00567433)
(0.00641078 0.083759 -0.00607181)
(-0.0108189 0.0762272 -0.00462958)
(-0.0234439 0.069623 -0.000261488)
(-0.0273071 0.0605977 0.00813576)
(-0.0278524 0.0487282 0.00944354)
(-0.0274896 0.0359572 0.00913078)
(-0.0248024 0.0247136 0.0084471)
(-0.0209816 0.0141328 0.00754936)
(-0.0164046 0.0072982 0.00637586)
(-0.0119644 0.00258723 0.00331843)
(-0.00738598 0.000437893 0.000691919)
(-0.0041455 -0.000139017 -0.00357156)
(-0.00229961 -0.000651409 -0.00532474)
(-0.00205082 -0.00151755 -0.00523157)
(-0.00190931 -0.00258596 -0.00439747)
(-0.00112008 -0.00327125 -0.00401514)
(0.000568813 -0.00283189 -0.00377317)
(0.00203893 5.04215e-05 -0.00387913)
(0.00261177 0.00233875 -0.00310148)
(0.00228747 0.00375393 -0.00322661)
(0.0127288 0.0164077 0.00763403)
(0.0222003 0.0137249 0.00883649)
(0.00559406 0.00623092 0.00484095)
(0.0113756 0.0123999 0.00437353)
(0.00661816 0.00678638 0.00437047)
(0.00949255 0.0100544 0.00448636)
(0.00796451 0.00680646 0.00460136)
(0.00952621 0.0077177 0.0049169)
(0.008527 0.00544211 0.00487034)
(0.0094222 0.00564839 0.00504549)
(0.00845985 0.00389107 0.00494785)
(0.00898526 0.0040616 0.00505638)
(0.00816706 0.0027859 0.00495934)
(0.00845022 0.00296531 0.00505389)
(0.00784461 0.00211273 0.00498025)
(0.00796162 0.00225792 0.00506686)
(0.00756081 0.00173639 0.00502864)
(0.00755585 0.00181406 0.00509847)
(0.00730628 0.00152475 0.00509854)
(0.00723236 0.00153527 0.00515419)
(0.0070808 0.00140638 0.00517132)
(0.00698364 0.00137856 0.00521419)
(0.00687432 0.00132553 0.00524737)
(0.00677164 0.00129489 0.00528614)
(0.00667068 0.0012682 0.00532518)
(0.00657373 0.00124998 0.0053665)
(0.00647813 0.0012377 0.00540849)
(0.00638208 0.00123007 0.00544963)
(0.00628384 0.00123029 0.00548898)
(0.00617632 0.00120553 0.00552678)
(0.00608911 0.0012845 0.00556651)
(0.00593724 0.00113731 0.00560018)
(0.00588245 0.00141562 0.00564497)
(0.00563579 0.00101191 0.00567254)
(0.00562633 0.00162232 0.00572029)
(0.00524475 0.000843333 0.00573878)
(0.00526514 0.00189245 0.00578754)
(0.00470646 0.000647656 0.00578991)
(0.00470682 0.00221984 0.00583228)
(0.00391248 0.00045662 0.00579489)
(0.00376255 0.00262458 0.00579843)
(0.0026032 0.000347332 0.0056633)
(0.00197577 0.00324225 0.00551135)
(6.28478e-05 0.000675749 0.0051161)
(-0.00176753 0.00478335 0.00454359)
(-0.00398978 0.00281871 0.00381307)
(-0.00397206 0.00787816 0.00374986)
(-0.00264684 0.00753185 0.00351069)
(0.00380061 0.0145241 0.00352532)
(0.0227886 0.00876996 -0.00176327)
(0.0570812 0.0154312 -0.00308173)
(0.0643634 0.0605622 0.0452292)
(0.0774278 0.0575435 0.0718021)
(0.0882463 0.0578424 0.0724514)
(0.07793 0.0502894 0.0743194)
(0.0591408 0.0109661 0.0663539)
(0.0896609 0.0968254 0.0533146)
(0.0693679 0.0230889 0.0729092)
(0.105919 0.415889 0.155465)
(-0.00394961 -0.101492 0.0443489)
(-0.0304497 0.523403 0.147814)
(-0.0157011 0.59812 0.0132642)
(-0.0161176 0.570151 -0.00254744)
(-0.0251445 0.627158 -0.0180033)
(-0.018973 0.642586 0.00929181)
(-0.0110164 0.664956 0.0110025)
(0.00524572 0.663973 0.0247458)
(0.0179011 0.660462 0.0255355)
(0.032882 0.637378 0.0286891)
(0.0397576 0.578352 0.025228)
(0.0435594 0.394995 0.0202326)
(0.0427819 0.112567 0.0190638)
(0.0391973 0.0875181 0.00898399)
(0.0379096 0.087163 0.00395379)
(0.0321095 0.0934229 -0.00177011)
(0.023546 0.119277 -0.00323448)
(0.0136473 0.445032 -0.00375421)
(0.00472952 0.622297 -0.00266649)
(-0.0039383 0.594626 -0.000623953)
(-0.0114038 0.460463 0.00119464)
(-0.013701 0.0890053 0.00302166)
(-0.0168442 0.0599064 0.00516175)
(-0.0153329 0.0527989 0.00379081)
(-0.0135422 0.0449348 0.0046571)
(-0.0121873 0.0397109 0.0026987)
(-0.0104907 0.0338931 -0.000339466)
(-0.00704499 0.0313127 -0.00363409)
(-0.00326629 0.05052 -0.00599798)
(-0.000408455 0.255308 -0.00598585)
(9.28562e-05 0.0421325 -0.00580015)
(-0.00130285 0.0137635 -0.00223653)
(-0.0029575 0.011027 -0.0017701)
(-0.00584897 0.00570908 -0.00193413)
(-0.00681442 0.00438677 -0.00444735)
(-0.00433023 0.00204659 -0.0073877)
(-0.00689029 0.00226913 -0.0146024)
(0.0061286 0.0142928 0.0103384)
(0.0207713 0.0157421 0.0094662)
(-0.000398808 0.0050654 0.00539684)
(0.00877732 0.014539 0.00428564)
(0.0024415 0.00571688 0.00452349)
(0.00651038 0.0110891 0.00451462)
(0.00452107 0.00624774 0.00487587)
(0.0063916 0.00821039 0.00529236)
(0.005206 0.0051292 0.00537123)
(0.00599712 0.0058635 0.00564309)
(0.00483662 0.00365507 0.00561961)
(0.00518408 0.00414983 0.00575798)
(0.00415287 0.00263516 0.00571089)
(0.00430497 0.00301231 0.00580596)
(0.00351049 0.0020376 0.00575896)
(0.00354269 0.00230042 0.00584151)
(0.00299359 0.00171393 0.00580693)
(0.00294044 0.00186319 0.00587603)
(0.00258004 0.00153768 0.00586188)
(0.00246181 0.00159545 0.00591201)
(0.00224342 0.00144662 0.00592018)
(0.00210849 0.00143291 0.00595677)
(0.00196324 0.00137031 0.00598004)
(0.00184512 0.00134029 0.00601474)
(0.00173442 0.00131591 0.00604838)
(0.00162845 0.00130085 0.00608075)
(0.00152516 0.00128944 0.00611148)
(0.00142652 0.0012805 0.00614377)
(0.00133037 0.00127809 0.00617808)
(0.00122937 0.00125535 0.00621344)
(0.00114234 0.00131178 0.0062519)
(0.00100407 0.0011802 0.00627845)
(0.000953557 0.0014111 0.00632209)
(0.000721619 0.00103335 0.0063438)
(0.000722342 0.00157027 0.0063955)
(0.000357709 0.000815698 0.00640742)
(0.000400443 0.0017545 0.00646797)
(-0.00014124 0.000509212 0.00646586)
(-0.000101304 0.00191476 0.00654066)
(-0.000889106 8.00537e-05 0.00650675)
(-0.000963556 0.00197229 0.00660135)
(-0.00219832 -0.000578775 0.00648241)
(-0.00268362 0.00181616 0.00651338)
(-0.00491137 -0.00156828 0.0061922)
(-0.00662133 0.00197663 0.00604271)
(-0.00871732 0.00178504 0.00502392)
(-0.0114735 0.00851089 0.00347481)
(-0.0127346 0.00900922 0.00244346)
(-0.0083177 0.0134256 0.00187141)
(0.0152436 0.0101268 -0.00330598)
(0.0340785 0.0555554 0.0105412)
(0.0452414 0.0843605 0.0543955)
(0.0730669 0.0747372 0.0737362)
(0.0881228 0.0806719 0.0789301)
(0.0856458 0.0858257 0.0858327)
(0.0776322 0.0742359 0.0867493)
(0.0622635 0.103721 0.071145)
(0.068001 0.0465055 0.063783)
(0.102248 0.339898 0.0573607)
(-0.0278666 -0.0940981 0.0641655)
(-0.0985088 0.464921 0.17103)
(-0.036139 0.5604 0.0235075)
(-0.0361589 0.53399 0.00288818)
(-0.0379049 0.595783 -0.0112937)
(-0.0347798 0.602847 0.0163203)
(-0.0133715 0.632409 0.0179732)
(0.0081634 0.631409 0.0277795)
(0.0240544 0.630908 0.0290065)
(0.0432586 0.61946 0.0366373)
(0.0511563 0.568966 0.0375218)
(0.0567909 0.4048 0.0376806)
(0.0557718 0.103247 0.0359953)
(0.0530393 0.0756217 0.0297636)
(0.0481383 0.0699049 0.0242603)
(0.0419243 0.0894881 0.0175105)
(0.0331307 0.392561 0.00973467)
(0.0237286 0.592286 0.00358658)
(0.014387 0.60052 -0.00190767)
(0.000580825 0.604016 -0.0081868)
(-0.00588794 0.604834 -0.0122297)
(-0.0115969 0.598267 -0.0132437)
(-0.0156726 0.59125 -0.0101229)
(-0.0165717 0.587426 -0.00481524)
(-0.0162377 0.579077 -0.00587141)
(-0.0128896 0.575327 -0.0112291)
(-0.0101531 0.571602 -0.01363)
(-0.00554808 0.573972 -0.0183794)
(-0.00375885 0.57623 -0.0187393)
(-0.00164195 0.566668 -0.018291)
(-0.000734931 0.562564 -0.0172018)
(-0.000658287 0.55833 -0.0180048)
(5.25875e-05 0.548981 -0.0176263)
(0.000349759 0.524898 -0.0183896)
(0.00176072 0.474425 -0.0147202)
(0.00234496 0.30066 -0.0168365)
(0.00270186 0.0241622 -0.0332473)
(-0.00310788 0.00612462 0.00860627)
(0.0184656 0.0193674 0.00898634)
(-0.0058163 0.00335798 0.00541339)
(0.00672994 0.0174739 0.00391279)
(-0.00086516 0.00456607 0.0048839)
(0.00404357 0.0123441 0.00459428)
(0.00165818 0.00560271 0.00511096)
(0.00374564 0.00858542 0.00580152)
(0.00233316 0.00467633 0.00585452)
(0.00298124 0.00584171 0.00638655)
(0.00175375 0.00316594 0.00635549)
(0.00189885 0.00396559 0.00667246)
(0.000868989 0.00219481 0.00666523)
(0.000918953 0.00281204 0.0068591)
(0.00011836 0.00171088 0.00687371)
(0.000131262 0.00214915 0.00701655)
(-0.000413434 0.00150193 0.00704606)
(-0.000443344 0.00177516 0.00716367)
(-0.000771289 0.00143212 0.00720319)
(-0.000836786 0.00157087 0.00730088)
(-0.00101028 0.00142618 0.00735362)
(-0.00108832 0.00146273 0.00743067)
(-0.00118203 0.00142889 0.00748454)
(-0.00124501 0.00143311 0.00754307)
(-0.00129751 0.00142648 0.00759689)
(-0.00133946 0.00142319 0.0076517)
(-0.00137444 0.00142038 0.00770628)
(-0.00140945 0.00141879 0.00775942)
(-0.00144772 0.00141963 0.00781018)
(-0.00148856 0.00140519 0.00786057)
(-0.00151816 0.00145072 0.00791076)
(-0.00158907 0.00134363 0.00795395)
(-0.00158111 0.00153512 0.00800942)
(-0.00174394 0.00119964 0.00804557)
(-0.00167342 0.00166322 0.00811126)
(-0.00196965 0.000966845 0.00813739)
(-0.00183694 0.00178838 0.0082181)
(-0.00231265 0.000604998 0.00823192)
(-0.00216374 0.00182427 0.00834424)
(-0.00289325 2.53307e-05 0.00834116)
(-0.00283109 0.00156391 0.00851758)
(-0.00411531 -0.00103155 0.00850546)
(-0.00455602 0.000554392 0.00866703)
(-0.00762969 -0.00302962 0.00838607)
(-0.01346 -0.000266097 0.00750526)
(-0.0196532 -0.00397928 0.0055935)
(-0.0190782 -0.003749 0.00415033)
(-0.0112645 -0.0119043 0.00312786)
(-0.00260151 -0.0133373 0.00137972)
(-0.00501919 -0.0110577 -0.00285859)
(0.00523218 0.0579234 0.0250249)
(0.0353713 0.0821878 0.0680109)
(0.0639179 0.0759148 0.0681632)
(0.0776704 0.0746753 0.0605637)
(0.0707104 0.0874551 0.0660412)
(0.0818711 0.0625546 0.0730175)
(0.052059 0.101688 0.109334)
(0.0520342 -0.0678501 0.0477895)
(0.17234 0.306777 -0.0608244)
(-0.0333573 -0.0712158 0.0421464)
(-0.109715 0.449298 0.142068)
(-0.0460092 0.57826 -0.00338822)
(-0.0500007 0.523849 -0.0181145)
(-0.0452986 0.593556 -0.0241235)
(-0.0393183 0.58476 -0.0112105)
(-0.0132508 0.608096 -0.0053504)
(0.00573383 0.602273 -0.00508868)
(0.0205121 0.612063 -0.00344506)
(0.0332158 0.607155 0.00518041)
(0.0452878 0.611818 0.0148566)
(0.0546842 0.601284 0.0285649)
(0.0577001 0.570833 0.0354927)
(0.0561114 0.438014 0.0346756)
(0.0536759 0.241924 0.0313777)
(0.0492725 0.302386 0.0285433)
(0.0438773 0.102784 0.0283502)
(0.039059 0.0779185 0.0255095)
(0.030418 0.074904 0.0222456)
(0.0197336 0.0702571 0.0184958)
(0.0108893 0.0627467 0.0143099)
(0.0025023 0.0586752 0.0131995)
(-0.00425851 0.0520446 0.0118013)
(-0.00503084 0.0456374 0.0147676)
(-0.0028949 0.038389 0.0172193)
(0.00154286 0.0302404 0.0176724)
(0.00558369 0.0227622 0.0172824)
(0.00573908 0.0180323 0.0152596)
(0.00609448 0.0151486 0.0136432)
(0.00678018 0.0138001 0.0114191)
(0.00695673 0.0128266 0.00905943)
(0.00605295 0.0130386 0.00402332)
(0.00476073 0.013593 -0.00456762)
(0.000372988 0.0364722 -0.0195106)
(-0.00678552 0.292445 -0.0449477)
(-0.010508 0.343031 -0.0663745)
(-0.0115755 0.290491 -0.0963546)
(-0.014167 0.00795601 -0.00444088)
(0.0158078 0.0272057 0.00747357)
(-0.0110955 0.00289442 0.000471479)
(0.00451385 0.0202815 0.000207022)
(-0.00405017 0.00326669 0.00156385)
(0.00120781 0.0133379 0.000996586)
(-0.00140771 0.00507055 0.0020809)
(0.000634146 0.00878851 0.0030668)
(-0.00104696 0.00445053 0.00327649)
(-0.000443631 0.00581218 0.00389278)
(-0.0019845 0.00297469 0.00389892)
(-0.00204999 0.00385933 0.00423736)
(-0.00326348 0.00207331 0.00429232)
(-0.00340799 0.00272658 0.00448178)
(-0.00432804 0.00163657 0.00455404)
(-0.00442642 0.0021268 0.00469672)
(-0.00505447 0.0014944 0.00476254)
(-0.00514267 0.00181965 0.00488495)
(-0.00553343 0.00148147 0.00494385)
(-0.00563518 0.00166243 0.00504613)
(-0.0058489 0.00152541 0.00510754)
(-0.00594983 0.00158745 0.00519101)
(-0.00606879 0.00155932 0.00525321)
(-0.00615951 0.00157092 0.00532183)
(-0.00624109 0.00157287 0.00538479)
(-0.00631051 0.00157789 0.00544667)
(-0.00637104 0.00158303 0.0055065)
(-0.0064229 0.00158814 0.0055648)
(-0.00646756 0.00159202 0.00562197)
(-0.00651292 0.00158161 0.00567798)
(-0.00655284 0.00161126 0.00573192)
(-0.00662197 0.0015135 0.0057845)
(-0.00662458 0.00166691 0.00583609)
(-0.00677724 0.00135102 0.00589083)
(-0.00671707 0.00174611 0.00594366)
(-0.00698653 0.00106927 0.00600659)
(-0.00685911 0.00178091 0.00606833)
(-0.0072818 0.000581745 0.00614384)
(-0.00712385 0.00162178 0.00625115)
(-0.0077714 -0.000322374 0.00635701)
(-0.00768018 0.000775928 0.00658187)
(-0.0089709 -0.00215003 0.00682771)
(-0.00997413 -0.0018303 0.00708815)
(-0.0142388 -0.00602857 0.0071069)
(-0.0170072 -0.00683413 0.00579282)
(-0.0132894 -0.0149503 0.00302933)
(-0.00525526 -0.0243166 0.00415919)
(-0.00423436 -0.0321941 -0.00302477)
(-0.0142864 -0.0150319 -0.00084343)
(-0.0344896 -0.00835613 0.0141682)
(-0.036392 0.00661893 0.0335351)
(0.0141857 0.0127825 0.0707333)
(0.0454494 -0.00138465 0.0679097)
(0.0588055 -0.02673 0.0325966)
(0.0363596 0.0359136 0.0266847)
(0.0263459 -0.0454366 0.0497594)
(0.0387963 0.0701269 0.127518)
(0.0268128 -0.209201 0.123976)
(0.175709 0.214565 0.000287964)
(-0.032979 -0.0445082 0.0168851)
(-0.116905 0.418897 0.121892)
(-0.0553194 0.578112 0.00594462)
(-0.0538378 0.488722 -0.0150008)
(-0.0420907 0.564049 -0.012677)
(-0.029001 0.542094 -0.00156452)
(-0.000335788 0.566395 0.000291538)
(0.0177335 0.555438 -0.00670502)
(0.0339345 0.568054 -0.0110369)
(0.0386532 0.572467 -0.0153943)
(0.0426682 0.583218 -0.0124203)
(0.0447464 0.592653 -0.00815706)
(0.0466875 0.600925 -0.00109925)
(0.0468863 0.616674 0.00163014)
(0.0453687 0.620875 0.00302244)
(0.0428179 0.615278 0.00469359)
(0.037574 0.613396 0.00397981)
(0.032586 0.61405 0.00174083)
(0.0235865 0.608366 -0.00126617)
(0.0160409 0.59966 -0.00415018)
(0.00953133 0.590973 -0.00511213)
(0.00614793 0.57916 -0.00447971)
(0.00483402 0.570574 -0.00265552)
(0.0061431 0.564035 -0.00220387)
(0.00821454 0.555365 -0.00187504)