/*--------------------------------*- C++ -*----------------------------------*\
| =========                 |                                                 |
| \\      /  F ield         | OpenFOAM: The Open Source CFD Toolbox           |
|  \\    /   O peration     | Version:  2.3.0                                 |
|   \\  /    A nd           | Web:      www.OpenFOAM.org                      |
|    \\/     M anipulation  |                                                 |
\*---------------------------------------------------------------------------*/
FoamFile
{
    version     2.0;
    format      ascii;
    class       volVectorField;
    location    "5";
    object      U.air;
}
// * * * * * * * * * * * * * * * * * * * * * * * * * * * * * * * * * * * * * //

dimensions      [0 1 -1 0 0 0 0];

internalField   nonuniform List<vector> 
6144
(
(0.00811239 0.0258347 -0.00191098)
(0.00781445 0.0113412 -0.00218083)
(0.00613561 0.00954732 -0.00316251)
(0.0059994 0.00677228 -0.00321466)
(0.00512488 0.0058059 -0.00339131)
(0.00526595 0.00503306 -0.00341243)
(0.00483269 0.00449921 -0.00345638)
(0.00504197 0.00415605 -0.00348784)
(0.00476537 0.00362249 -0.00353689)
(0.00493086 0.0033868 -0.00357725)
(0.00474428 0.00287333 -0.00362719)
(0.00484381 0.00267574 -0.00365197)
(0.00472251 0.0022482 -0.00368732)
(0.00476255 0.00207455 -0.00370263)
(0.00469027 0.00176595 -0.00372342)
(0.00469064 0.00160542 -0.00373256)
(0.00465393 0.00140453 -0.00374297)
(0.00463776 0.00126672 -0.00374903)
(0.00461599 0.0011347 -0.00375441)
(0.00459936 0.00102971 -0.0037583)
(0.0045839 0.000939203 -0.00376149)
(0.00457064 0.000863833 -0.00376402)
(0.00455903 0.000800027 -0.00376614)
(0.00454894 0.000745863 -0.00376797)
(0.00454017 0.000699357 -0.00376961)
(0.00453256 0.00065879 -0.00377111)
(0.0045259 0.000622653 -0.00377251)
(0.00452006 0.000589592 -0.0037738)
(0.00451489 0.00055825 -0.00377506)
(0.00451039 0.000527807 -0.00377641)
(0.00450657 0.000497465 -0.00377786)
(0.00450341 0.000462917 -0.00377909)
(0.00450003 0.0004416 -0.00378037)
(0.00449588 0.000359253 -0.00378063)
(0.00449602 0.000421456 -0.00378246)
(0.00449175 0.000181549 -0.00378191)
(0.00449225 0.000432821 -0.00378172)
(0.0044891 -6.74276e-05 -0.00378496)
(0.00448385 0.000456973 -0.00377211)
(0.00448181 -0.000367899 -0.00379062)
(0.00445684 0.000441053 -0.0037441)
(0.00446795 -0.000645253 -0.00377786)
(0.00436597 0.00038145 -0.00368926)
(0.00439439 -0.000823406 -0.00372358)
(0.00417344 0.000386613 -0.00354456)
(0.0040931 -0.000693678 -0.0035386)
(0.00369852 0.000901595 -0.00321128)
(0.00323778 0.000233787 -0.00299777)
(0.00217028 0.00288198 -0.00259966)
(0.000381161 0.00445287 -0.00213819)
(-0.00246368 0.0113096 -0.00175347)
(-0.00437497 0.0243375 -0.00273968)
(-0.00381391 0.0346137 -0.00464344)
(0.0125146 0.0310287 -0.00806166)
(0.019373 0.044353 -0.0101719)
(0.0137527 -0.0252433 -0.00809864)
(0.0180512 0.0491503 -0.00350552)
(0.00586296 -0.0478971 -0.0313925)
(-0.0275408 0.111844 -0.0935627)
(0.0477498 0.0496657 -0.108195)
(0.0919017 0.323389 -0.000119159)
(0.0485903 0.349765 -0.00563003)
(0.0338629 -0.142723 -0.00503107)
(0.0331795 -0.157411 -0.00157026)
(0.026154 -0.155221 0.000880956)
(0.0161133 -0.1558 0.0022249)
(0.0101727 -0.155371 0.00278635)
(0.00702431 -0.153476 0.00291149)
(0.00530641 -0.150302 0.00279592)
(0.0039087 -0.146204 0.00235598)
(0.00305074 -0.141948 0.00194219)
(0.00267796 -0.138106 0.000694445)
(0.00136294 -0.130649 -0.000608934)
(-0.000753561 -0.122043 -0.00108319)
(-0.00328167 -0.113046 -0.00634205)
(-0.00587976 -0.0923776 -0.0127317)
(-0.00553071 -0.0604327 -0.0100595)
(-0.00218827 -0.0379544 -0.00250021)
(0.00149618 -0.0287067 0.00132616)
(0.00381291 -0.027442 0.00137785)
(0.00550459 -0.0292509 0.000187716)
(0.00672281 -0.0311164 -0.000830528)
(0.00693175 -0.0319423 -0.00191575)
(0.00618948 -0.031519 -0.00358862)
(0.00504983 -0.0291923 -0.00554857)
(0.00477939 -0.0259645 -0.00600933)
(0.00511239 -0.022292 -0.0056488)
(0.00542758 -0.0185023 -0.00538349)
(0.00565489 -0.0148334 -0.00522494)
(0.00581027 -0.0114409 -0.00512195)
(0.00590613 -0.00854148 -0.00505688)
(0.00596161 -0.00625953 -0.00500972)
(0.00600276 -0.00444916 -0.00499373)
(0.00597703 -0.00246971 -0.00501092)
(0.00595037 0.00035353 -0.0050489)
(0.00584067 0.003396 -0.00505214)
(0.0177138 0.0265217 0.0030486)
(0.0175293 0.0121047 0.0022695)
(0.0125873 0.0105285 -0.000276665)
(0.0125502 0.00824146 -0.00048156)
(0.0106825 0.00741314 -0.00101041)
(0.0110912 0.00689617 -0.000972127)
(0.0102278 0.00612169 -0.00117517)
(0.0107721 0.0057998 -0.00107423)
(0.0101619 0.00501695 -0.00123069)
(0.0106229 0.00473816 -0.00114512)
(0.010135 0.00401213 -0.00126646)
(0.0104472 0.00375925 -0.00121539)
(0.0100727 0.00316323 -0.00129287)
(0.0102316 0.00293004 -0.00126722)
(0.00998594 0.00250333 -0.00131369)
(0.0100222 0.00230741 -0.00130314)
(0.00988867 0.00202618 -0.00132434)
(0.00985786 0.00186115 -0.00132394)
(0.00978633 0.00168468 -0.00133028)
(0.00974029 0.00155462 -0.00133185)
(0.00969303 0.0014386 -0.00133323)
(0.0096532 0.00134408 -0.00133333)
(0.00961767 0.00126408 -0.00133267)
(0.00958654 0.00119686 -0.00133134)
(0.00955916 0.00113974 -0.0013295)
(0.00953516 0.0010906 -0.0013272)
(0.00951408 0.00104754 -0.00132447)
(0.00949555 0.00100914 -0.00132139)
(0.00947929 0.000974093 -0.00131808)
(0.00946517 0.000940672 -0.0013147)
(0.00945305 0.000908299 -0.00131115)
(0.009443 0.000872235 -0.00130662)
(0.00943396 0.000846668 -0.00130124)
(0.00942377 0.0007695 -0.0012948)
(0.0094213 0.000833778 -0.00128966)
(0.00941195 0.000582583 -0.00128246)
(0.00940501 0.000870148 -0.0012777)
(0.00940564 0.000306581 -0.00126976)
(0.00937081 0.000937416 -0.0012629)
(0.00939553 -4.16663e-05 -0.0012578)
(0.00927788 0.0010008 -0.00123986)
(0.00936113 -0.000410575 -0.00123757)
(0.00901766 0.00101866 -0.00120619)
(0.00915145 -0.000696821 -0.00119659)
(0.00844504 0.00101421 -0.00115521)
(0.00829502 -0.000768821 -0.00110178)
(0.00701141 0.00130605 -0.00104221)
(0.00585224 -0.000272143 -0.000840267)
(0.00308324 0.00249683 -0.000522978)
(-0.00164366 0.00245332 -8.96368e-05)
(-0.00765909 0.00688819 0.000541945)
(-0.00731843 0.00737131 7.78384e-05)
(0.00174285 0.0130576 -0.00270725)
(0.0300032 -0.00867666 -0.00491769)
(0.0519611 0.0278349 -0.00832433)
(0.04363 -0.0277527 -0.000123308)
(-0.0194097 0.0262514 0.0235703)
(-0.0207 -0.0193219 -0.0170625)
(0.0250997 0.171412 -0.021312)
(0.162632 0.00974023 -0.058349)
(0.094179 0.350442 0.00524601)
(0.00811085 0.429289 0.00215776)
(-0.0268542 -0.100435 0.00186549)
(-0.00729392 -0.0591578 0.00677237)
(-0.0107796 -0.0815636 0.00912174)
(-0.0177258 -0.0975405 0.0121504)
(-0.0189979 -0.104637 0.0130274)
(-0.0179657 -0.109879 0.0128401)
(-0.0169954 -0.113116 0.0126132)
(-0.016377 -0.115443 0.0127938)
(-0.0162168 -0.116193 0.0113853)
(-0.0172388 -0.11577 0.00792282)
(-0.0175528 -0.11283 0.00347122)
(-0.0129051 -0.106706 -0.00074628)
(-0.0113226 -0.09397 -0.0102703)
(-0.0176804 -0.0681438 -0.0157691)
(-0.0182862 -0.0406045 -0.00838499)
(-0.0105502 -0.0272636 0.00120897)
(-0.00260861 -0.0242604 0.00544279)
(0.00256321 -0.0254359 0.00554629)
(0.00525372 -0.0278389 0.00436927)
(0.00640974 -0.0294436 0.00317523)
(0.00678625 -0.0296931 0.00219098)
(0.00662577 -0.0289199 0.00124784)
(0.0061482 -0.0274138 0.000133964)
(0.00548868 -0.0252755 -0.000828709)
(0.0049605 -0.022383 -0.00156464)
(0.00481027 -0.0189699 -0.00202053)
(0.0048274 -0.0154432 -0.00216219)
(0.00496236 -0.0120964 -0.00214015)
(0.00519195 -0.00920377 -0.00215699)
(0.00546437 -0.0068432 -0.00224836)
(0.00575921 -0.00493596 -0.00229694)
(0.00589484 -0.0028277 -0.00240382)
(0.00597731 0.000165656 -0.0024901)
(0.00597093 0.00331401 -0.00278613)
(0.0207137 0.0232447 0.00589788)
(0.0212288 0.0103626 0.00496813)
(0.0142804 0.00849108 0.00174284)
(0.0148036 0.00790491 0.0016697)
(0.0123814 0.00679293 0.00109838)
(0.0132051 0.00682878 0.0013063)
(0.0121065 0.00594942 0.00104199)
(0.012925 0.00580061 0.00128868)
(0.0120921 0.00488828 0.0010143)
(0.01276 0.00470597 0.00120623)
(0.0120533 0.00384851 0.000970362)
(0.0124863 0.00369394 0.00109776)
(0.0119422 0.00301239 0.000933609)
(0.0121555 0.00287604 0.00100902)
(0.0117837 0.00239085 0.00091469)
(0.0118408 0.0022445 0.000955919)
(0.0116211 0.00193912 0.000906866)
(0.0115835 0.00180419 0.00092376)
(0.0114635 0.00162282 0.000908858)
(0.0113954 0.00150902 0.000915788)
(0.0113189 0.0013983 0.000917693)
(0.0112555 0.00131231 0.000924817)
(0.0111974 0.00123876 0.000933028)
(0.0111458 0.00117757 0.000943032)
(0.0110994 0.00112562 0.000954256)
(0.0110578 0.00108128 0.000966505)
(0.0110206 0.00104265 0.0009795)
(0.010987 0.00100791 0.000993038)
(0.0109569 0.000975844 0.00100701)
(0.0109299 0.000945023 0.00102144)
(0.0109057 0.000915027 0.00103616)
(0.0108839 0.000881966 0.0010504)
(0.0108629 0.000859515 0.00106445)
(0.0108456 0.000782911 0.00107819)
(0.0108291 0.000851321 0.00109057)
(0.0108192 0.000594224 0.00110329)
(0.0107926 0.000893637 0.00111424)
(0.0108043 0.000305468 0.00112739)
(0.0107351 0.000966132 0.00113904)
(0.010797 -8.31477e-05 0.00115107)
(0.0106075 0.00102695 0.00116961)
(0.0107603 -0.000563046 0.00118218)
(0.0103071 0.000981294 0.00120874)
(0.0105036 -0.00107599 0.00123708)
(0.00964528 0.000705073 0.00123665)
(0.00950343 -0.00175769 0.00133652)
(0.00791194 0.0001544 0.00128917)
(0.0064767 -0.00282298 0.00139912)
(0.0027896 -0.00128685 0.00133509)
(-0.00260154 -0.00462373 0.00119845)
(-0.00762956 -0.00420115 0.00148693)
(-0.00646967 -0.0148049 0.0026949)
(0.0081961 -0.0112862 -0.0016227)
(0.0318278 -0.0439058 -0.00224845)
(0.0541646 0.00619004 -0.00384668)
(0.0414305 -0.0328696 0.000339312)
(-0.045543 0.0678786 0.036486)
(-0.0763578 -0.115823 -0.00772617)
(-0.0384932 0.184779 -0.0582214)
(0.163121 -0.0109489 -0.0333889)
(0.152812 0.352687 -0.00126454)
(0.0728121 0.440283 -0.0132232)
(0.0720246 -0.102489 0.0123143)
(0.0312128 -0.023537 0.0156244)
(0.00577468 -0.0561298 0.0150279)
(-0.00011682 -0.0677099 0.0148019)
(-0.00897684 -0.0746558 0.014282)
(-0.016018 -0.0812192 0.0129898)
(-0.0192966 -0.0861939 0.0101643)
(-0.0195066 -0.0895261 0.00655882)
(-0.0168384 -0.0909523 0.002393)
(-0.0145547 -0.089207 -0.00342894)
(-0.0151488 -0.0814126 -0.0107379)
(-0.0197946 -0.0591323 -0.0169109)
(-0.0239439 -0.0245692 -0.0157768)
(-0.0205479 -0.00544359 -0.00736154)
(-0.0114631 -0.000378442 5.79462e-05)
(-0.00258034 -0.00169974 0.00450514)
(0.00263076 -0.00543189 0.00626384)
(0.00507212 -0.0101883 0.00635827)
(0.00605436 -0.014203 0.0056788)
(0.00606408 -0.0173754 0.00485227)
(0.00555876 -0.0195708 0.00416354)
(0.00479377 -0.0208772 0.00355476)
(0.00413591 -0.0212807 0.00291321)
(0.00374243 -0.0208556 0.00224899)
(0.00369561 -0.0194992 0.00171357)
(0.00387489 -0.0171275 0.00144803)
(0.00411936 -0.0142578 0.00126681)
(0.00441039 -0.0112232 0.00105464)
(0.00464785 -0.00843729 0.000908921)
(0.00480474 -0.00611671 0.000760531)
(0.00500479 -0.00432413 0.00061158)
(0.00495131 -0.00238978 0.00033948)
(0.00489722 0.000367069 -2.3534e-05)
(0.004908 0.00333985 -0.000777192)
(0.0206745 0.0202579 0.00671861)
(0.0228145 0.0101105 0.00633563)
(0.0131199 0.00698637 0.0028152)
(0.015089 0.00841 0.00287916)
(0.0120288 0.00652559 0.0024912)
(0.013377 0.00742374 0.00274877)
(0.0121144 0.00613832 0.00251251)
(0.0132167 0.00624782 0.00278505)
(0.0122289 0.00500669 0.00249035)
(0.013088 0.00496767 0.00270161)
(0.0121999 0.00384026 0.00243423)
(0.0127611 0.00381406 0.00258051)
(0.0120465 0.00293463 0.00238597)
(0.0123359 0.00291753 0.00247784)
(0.0118374 0.00231384 0.00236281)
(0.011922 0.00226744 0.00241457)
(0.011611 0.00189393 0.00235988)
(0.0115721 0.00181226 0.00238756)
(0.011398 0.00160816 0.00236815)
(0.0113113 0.00151744 0.00238112)
(0.0112032 0.00140703 0.0023838)
(0.0111161 0.00133048 0.00239477)
(0.0110343 0.00126244 0.00240613)
(0.0109611 0.00120718 0.00241985)
(0.0108946 0.00116036 0.00243485)
(0.0108342 0.00112046 0.00245103)
(0.0107793 0.00108575 0.00246808)
(0.0107292 0.0010547 0.0024857)
(0.0106835 0.0010262 0.00250377)
(0.0106421 0.00099893 0.00252228)
(0.0106046 0.000972237 0.00254109)
(0.0105713 0.000942481 0.00256022)
(0.0105401 0.000923714 0.00257955)
(0.0105145 0.000849455 0.00259967)
(0.0104916 0.000923186 0.00261806)
(0.0104769 0.000661775 0.00263946)
(0.0104482 0.000976645 0.00265774)
(0.0104591 0.00036012 0.00268047)
(0.010391 0.00106425 0.0027005)
(0.0104612 -7.33952e-05 0.00272306)
(0.0102762 0.00113112 0.00275058)
(0.0104506 -0.000659249 0.00277909)
(0.0100271 0.00101196 0.00280775)
(0.0102473 -0.0014177 0.00288797)
(0.00948283 0.000432391 0.00285495)
(0.00941577 -0.0027734 0.0030216)
(0.00808193 -0.00111125 0.00299075)
(0.00687408 -0.00568726 0.00305841)
(0.00397427 -0.00547667 0.00300885)
(-0.000154152 -0.0130272 0.00177427)
(-0.00460127 -0.0156249 0.00235276)
(-0.002061 -0.0294009 0.00227058)
(0.0161835 -0.0340863 0.00769633)
(0.0452552 -0.0533638 0.0106662)
(0.0564401 -0.0075681 0.00907128)
(0.048095 -0.0540283 -0.00384286)
(0.00911632 0.0762124 0.0281042)
(-0.0865045 -0.125569 0.0178564)
(-0.0571748 0.203695 -0.100488)
(0.189731 -0.0377366 -0.00983989)
(0.180012 0.355166 0.00240255)
(0.0573447 0.390944 -0.0146327)
(0.0797397 0.00946502 0.00239434)
(-0.0228177 0.0670253 0.0144424)
(-0.0100094 -0.00542335 0.0182613)
(-0.012208 -0.00568369 0.0126352)
(-0.0153616 -0.0244688 0.00576265)
(-0.0179226 -0.033525 -0.00101874)
(-0.0178318 -0.034639 -0.0080217)
(-0.0167039 -0.0292783 -0.0141943)
(-0.0161999 -0.0137278 -0.0171606)
(-0.0171855 0.00736005 -0.0172898)
(-0.0181737 0.0256172 -0.0176779)
(-0.016846 0.0386259 -0.0148309)
(-0.0112529 0.043256 -0.00874078)
(-0.00422449 0.0426971 -0.00283879)
(0.00112362 0.0395128 0.00126469)
(0.00445093 0.0349062 0.00355842)
(0.00614691 0.0297012 0.00424156)
(0.0067976 0.0234038 0.00403316)
(0.00680012 0.0175694 0.0036278)
(0.0062675 0.0116094 0.00331358)
(0.00537414 0.00611237 0.0031933)
(0.00418001 0.000735545 0.00330056)
(0.00290867 -0.00389607 0.00340334)
(0.00151581 -0.0077568 0.00323679)
(0.000352209 -0.0101844 0.00267905)
(-0.000493795 -0.0111941 0.00194858)
(-0.000747527 -0.0109912 0.00144203)
(-0.00069378 -0.00975063 0.000952537)
(-0.000313052 -0.00790967 0.000716501)
(0.000324039 -0.0060685 0.000784498)
(0.00123809 -0.00477904 0.00082994)
(0.00211119 -0.00349575 0.000644345)
(0.00304061 -0.00103582 0.000376247)
(0.00379161 0.00253931 -0.000181756)
(0.0179841 0.0177697 0.00714311)
(0.0231563 0.0116233 0.00770047)
(0.0101517 0.00648731 0.00368046)
(0.0136522 0.0100762 0.00378489)
(0.0100342 0.00686918 0.00336801)
(0.0120847 0.00857921 0.00370781)
(0.0107717 0.00659857 0.00347166)
(0.0121899 0.00691012 0.00383159)
(0.0110923 0.00520597 0.00350001)
(0.0121228 0.00528931 0.00376159)
(0.0110593 0.00382531 0.00345192)
(0.0117167 0.00394168 0.00363689)
(0.010826 0.00283525 0.00340171)
(0.0111785 0.00295733 0.00353096)
(0.0105334 0.00220778 0.00338005)
(0.0106564 0.00228091 0.00346182)
(0.0102438 0.00182425 0.003386)
(0.0102125 0.00182551 0.00343581)
(0.00996955 0.00158356 0.00340949)
(0.00987024 0.00153021 0.00343686)
(0.00972636 0.00141488 0.00344068)
(0.00961848 0.00135248 0.00346027)
(0.00951295 0.00129025 0.00347822)
(0.00941813 0.00124237 0.00349996)
(0.0093307 0.00120165 0.00352309)
(0.00925047 0.00116726 0.00354789)
(0.00917666 0.00113731 0.00357389)
(0.00910855 0.00111065 0.00360051)
(0.00904581 0.0010862 0.0036276)
(0.00898816 0.00106286 0.00365532)
(0.00893515 0.00103974 0.00368348)
(0.00888673 0.00101391 0.00371208)
(0.00884157 0.00099904 0.00374031)
(0.00880275 0.000926836 0.00376948)
(0.0087692 0.00100658 0.00379711)
(0.00874208 0.000741764 0.00382751)
(0.00870978 0.00107313 0.00385678)
(0.00870864 0.000432091 0.00388784)
(0.00865226 0.00118029 0.00392134)
(0.00870851 -3.36006e-05 0.00395285)
(0.00857042 0.0012641 0.00399659)
(0.00873138 -0.000693795 0.00403926)
(0.00841644 0.00110808 0.00408254)
(0.00868718 -0.00160425 0.00419962)
(0.00810778 0.000295816 0.00420982)
(0.00830065 -0.00326155 0.00442115)
(0.00743894 -0.00209759 0.00454814)
(0.00725808 -0.00703022 0.00485211)
(0.00568427 -0.0091874 0.00529031)
(0.00423109 -0.0178695 0.00501927)
(0.00281102 -0.0277483 0.00362174)
(0.00457946 -0.0505943 0.00806731)
(0.0136371 -0.0556546 0.015864)
(0.0337646 -0.0477975 0.0329576)
(0.0394949 0.00931138 0.0419981)
(0.00245541 -0.0262438 0.0328342)
(-0.0146875 0.0566354 0.0820531)
(-0.130414 -0.119236 0.0637034)
(-0.00440121 0.161839 -0.16999)
(0.148071 -0.0644039 0.0105792)
(0.162059 0.474746 0.00211464)
(0.0562023 0.610674 -0.0118122)
(0.0644956 0.555183 -0.00393752)
(0.0241616 0.582507 -0.00436198)
(0.0122371 0.563814 -0.00642707)
(-0.000493357 0.567161 -0.00912986)
(-0.00294792 0.563249 -0.0116896)
(-0.00712524 0.566249 -0.0133428)
(-0.00677063 0.579527 -0.0139875)
(-0.00776099 0.584609 -0.0125242)
(-0.0059936 0.591908 -0.0108916)
(-0.00413575 0.593724 -0.00859749)
(-0.0014174 0.595276 -0.0060057)
(0.00107547 0.592219 -0.00302772)
(0.00399929 0.583851 -6.40808e-05)
(0.00678695 0.563912 0.002511)
(0.00890663 0.515365 0.00423056)
(0.0101543 0.486778 0.00492549)
(0.0112113 0.41979 0.00523178)
(0.0113125 0.0912976 0.00544366)
(0.0109716 0.0628782 0.00532195)
(0.0101795 0.0542528 0.00507236)
(0.00905766 0.0450244 0.00522398)
(0.00749399 0.0350927 0.00521837)
(0.0057838 0.0260397 0.00494985)
(0.00393083 0.0171435 0.00441551)
(0.0020889 0.00986378 0.00381599)
(0.000129853 0.00353721 0.00335232)
(-0.00149567 -0.000734239 0.00266009)
(-0.0024551 -0.00290957 0.00192341)
(-0.00272314 -0.00356288 0.00118145)
(-0.00243287 -0.00370092 0.000601686)
(-0.0017807 -0.00298655 -0.000893287)
(-0.00241566 -0.0005636 -0.00224819)
(-0.00335467 0.00186373 -0.00245572)
(-0.0046845 0.00364809 -0.00332175)
(0.0125955 0.0166986 0.00767626)
(0.0222627 0.0140066 0.00938618)
(0.00573663 0.00626851 0.00477276)
(0.0112058 0.0125628 0.00474081)
(0.00686429 0.00725461 0.00449476)
(0.00967425 0.0100871 0.00478659)
(0.00820739 0.00699703 0.00467043)
(0.0098866 0.00768548 0.00502853)
(0.00867917 0.00532253 0.00481657)
(0.00977643 0.00561572 0.00504324)
(0.00860651 0.00371694 0.00482716)
(0.00928148 0.00403231 0.00499457)
(0.00832282 0.00265199 0.00481541)
(0.0086933 0.00294974 0.00495078)
(0.00800809 0.00203398 0.00483162)
(0.00816488 0.00224819 0.004938)
(0.00772856 0.00169929 0.00487865)
(0.00773445 0.00180283 0.00495491)
(0.00747586 0.0015119 0.00494673)
(0.00739956 0.00152035 0.00499988)
(0.00724969 0.00139616 0.00501467)
(0.00714697 0.00135654 0.00505358)
(0.00703585 0.00130013 0.0050869)
(0.00693826 0.00126201 0.00512519)
(0.00684861 0.00122898 0.00516463)
(0.00676691 0.0012018 0.005207)
(0.00669239 0.00117868 0.00525135)
(0.00662401 0.00115847 0.00529498)
(0.00656085 0.00113966 0.00533747)
(0.00650341 0.00112137 0.00538002)
(0.00645158 0.00110312 0.00542253)
(0.00640533 0.00108236 0.00546523)
(0.00636361 0.00107282 0.00550722)
(0.00632829 0.00100541 0.00554966)
(0.00630389 0.00109215 0.00559353)
(0.00627881 0.000828982 0.00563672)
(0.0062659 0.00117525 0.00568714)
(0.00626245 0.000522314 0.00572756)
(0.00625097 0.0013065 0.00578905)
(0.00629427 4.54929e-05 0.00582558)
(0.00625784 0.00142065 0.00590855)
(0.00639815 -0.000651192 0.00594948)
(0.00626536 0.00128996 0.0060516)
(0.00662171 -0.00164205 0.00616576)
(0.00627641 0.000406841 0.00624609)
(0.00691983 -0.00343976 0.00648323)
(0.00644654 -0.00225038 0.00666322)
(0.00754672 -0.00720029 0.00684174)
(0.00729087 -0.00944769 0.00745722)
(0.00987132 -0.017757 0.00801738)
(0.0136531 -0.0261739 0.0070258)
(0.0155926 -0.0436638 0.0121765)
(0.00351899 -0.0482019 0.0130225)
(-0.00991511 -0.0427815 0.0355008)
(-0.00843955 0.0246251 0.0467152)
(-0.0163905 -0.00595192 0.0578248)
(0.0260019 0.0565595 0.125705)
(-0.0889258 -0.121121 0.0988034)
(0.0400892 0.0360277 -0.163339)
(0.0771767 0.022957 0.0257081)
(0.135657 0.516748 0.000133244)
(0.0472868 0.619203 -0.00971516)
(0.0507085 0.610925 -0.00275563)
(0.0182123 0.664784 -0.000452382)
(0.00855496 0.659777 -0.00161931)
(0.00394284 0.656164 -0.00271182)
(0.00168372 0.660378 -0.00356184)
(0.000691173 0.663326 -0.00348556)
(0.00071451 0.619454 -0.00223675)
(0.00170921 0.677933 -0.000851944)
(0.00288656 0.654486 0.000947788)
(0.00414295 0.678002 0.00257423)
(0.00593995 0.661652 0.00422569)
(0.00828904 0.662862 0.00586479)
(0.0100926 0.658597 0.00740302)
(0.0124881 0.651855 0.00893477)
(0.0141051 0.639148 0.00970791)
(0.0162602 0.630189 0.00996399)
(0.0164679 0.618912 0.00993554)
(0.0162628 0.613341 0.00968676)
(0.0151198 0.599516 0.00930355)
(0.0138203 0.592574 0.00881384)
(0.0116188 0.591978 0.00803723)
(0.00960803 0.552289 0.00671995)
(0.00799902 0.552626 0.00538482)
(0.00571721 0.535495 0.00402894)
(0.00208364 0.457412 0.00285449)
(8.18906e-05 0.2827 0.00248438)
(-0.00272496 0.0440383 0.00236049)
(-0.00579526 0.0110123 0.0021343)
(-0.00737046 0.00454504 0.00188219)
(-0.00793298 0.000943141 0.00106612)
(-0.00709618 -0.000780428 -5.76813e-07)
(-0.00493474 -0.000258015 -0.00123794)
(-0.00159493 0.000743144 -0.00400344)
(-0.0003405 0.00229094 -0.00986301)
(0.00555308 0.014512 0.00789623)
(0.020066 0.0166694 0.0105825)
(-0.000692557 0.00533045 0.00552724)
(0.00796746 0.0151045 0.00508704)
(0.00221605 0.00666728 0.00501514)
(0.00634448 0.0114037 0.00527846)
(0.00440203 0.00676343 0.0054415)
(0.00644687 0.00828657 0.00583344)
(0.00496163 0.00509785 0.0058053)
(0.00606496 0.00586559 0.00600505)
(0.0045724 0.00348982 0.00589214)
(0.00519146 0.00412383 0.0060191)
(0.00394771 0.00248556 0.00589451)
(0.00427532 0.00298833 0.00600393)
(0.00336618 0.00193366 0.00590579)
(0.00349302 0.0022802 0.00600212)
(0.00289355 0.00165158 0.00594101)
(0.00287926 0.00183872 0.00601603)
(0.00251013 0.00150234 0.00599131)
(0.00240352 0.00156155 0.00604357)
(0.00219406 0.00141208 0.0060528)
(0.00206908 0.00138628 0.00609329)
(0.00194272 0.00132909 0.00612628)
(0.0018347 0.00130247 0.00616468)
(0.00173553 0.00127741 0.00620248)
(0.00164468 0.00125724 0.00623967)
(0.00156097 0.00124095 0.0062752)
(0.00148655 0.00122673 0.00631296)
(0.00142226 0.00121321 0.0063524)
(0.00136518 0.0012011 0.00639227)
(0.00131483 0.00118934 0.00643246)
(0.00127105 0.00117557 0.00647295)
(0.00123421 0.00117264 0.00651419)
(0.00120304 0.00111173 0.00655619)
(0.00118598 0.00120436 0.00659722)
(0.00116234 0.000949482 0.00663423)
(0.00116911 0.00130592 0.00668221)
(0.00116083 0.000661926 0.00671315)
(0.00119502 0.00146427 0.00677489)
(0.00122003 0.000202028 0.00679925)
(0.00128144 0.00162011 0.00688559)
(0.00138469 -0.000479905 0.00690716)
(0.00144127 0.00159458 0.00702873)
(0.00180789 -0.00144623 0.00710174)
(0.00170408 0.00090962 0.00720639)
(0.00275194 -0.00311919 0.00749252)
(0.00260032 -0.00103811 0.00766957)
(0.00481703 -0.00634559 0.00818624)
(0.00543934 -0.00618417 0.00865671)
(0.00963805 -0.0134311 0.00942306)
(0.0125499 -0.015976 0.0108841)
(0.0147959 -0.0269326 0.0139357)
(0.00228988 -0.0327712 0.0114093)
(-0.0304021 -0.0511325 0.0181254)
(-0.0518104 -0.0272499 0.0278251)
(-0.060812 -0.0541014 0.0496417)
(-0.0141558 -0.0374255 0.0693243)
(-0.00884997 -0.11148 0.0595667)
(0.027453 -0.0724861 -0.16024)
(0.0353512 0.0709026 0.0261041)
(0.0568683 0.587143 -0.000455381)
(0.0192171 0.684503 -0.00972631)
(0.0214178 0.67249 -0.00143197)
(0.0113145 0.692207 0.00359876)
(0.0101794 0.687915 0.00609153)
(0.00686516 0.730056 0.00661381)
(0.00646932 0.755532 0.00613835)
(0.00553781 0.729775 0.00636129)
(0.00557387 0.716726 0.00694358)
(0.00629594 0.549794 0.00812049)
(0.00756814 0.692587 0.00967213)
(0.00845988 0.644871 0.010492)
(0.00935342 0.624105 0.0109435)
(0.0108985 0.676249 0.0119083)
(0.0126638 0.610227 0.0130551)
(0.015448 0.674708 0.0141846)
(0.0171823 0.695726 0.0145661)
(0.0188773 0.661916 0.014747)
(0.0201922 0.668705 0.0148669)
(0.0206707 0.658704 0.0143272)
(0.0203998 0.651931 0.0138561)
(0.0196257 0.659317 0.0128631)
(0.018832 0.605722 0.0115652)
(0.0188423 0.437665 0.010142)
(0.0178373 0.612603 0.00572671)
(0.0157717 0.578496 0.00418361)
(0.0122376 0.563285 0.00275614)
(0.00848754 0.577187 0.0014256)
(0.00358956 0.512721 9.43321e-05)
(0.000379378 0.47904 -0.00113909)
(-0.00410089 0.537292 -0.00359737)
(-0.00707754 0.522471 -0.00585899)
(-0.00888648 0.498268 -0.0079547)
(-0.00969805 0.48439 -0.0116833)
(-0.0090285 0.455382 -0.0165575)
(-0.0101318 0.400537 -0.0223437)
(-0.00413631 0.00809092 0.00865833)
(0.017927 0.019165 0.00957629)
(-0.0068149 0.00349561 0.00591011)
(0.00565077 0.0179265 0.00470979)
(-0.0014931 0.00546821 0.00537298)
(0.00358328 0.0127128 0.0054739)
(0.00127215 0.00606388 0.00594045)
(0.00339035 0.00869003 0.00659176)
(0.00181245 0.00455201 0.00663329)
(0.0025784 0.00587795 0.00700427)
(0.00115707 0.00291808 0.00697965)
(0.00153625 0.00398937 0.00721325)
(0.000325711 0.00202645 0.00718637)
(0.000564011 0.00282691 0.00735642)
(-0.000341543 0.00159847 0.00735637)
(-0.000214388 0.00214851 0.00750074)
(-0.000808346 0.00142821 0.00752258)
(-0.000782608 0.00175366 0.007647)
(-0.00112486 0.00138193 0.00768594)
(-0.00117205 0.00153176 0.00778993)
(-0.00134204 0.00138815 0.00784576)
(-0.00141156 0.00142517 0.00792533)
(-0.00148702 0.00139024 0.0079815)
(-0.00153698 0.0013802 0.00804581)
(-0.00157733 0.00136794 0.00810786)
(-0.00160572 0.00136215 0.00817067)
(-0.00162193 0.00135906 0.00823332)
(-0.0016339 0.00135637 0.0082938)
(-0.00164465 0.00135334 0.00835106)
(-0.0016481 0.00135019 0.00840734)
(-0.00164427 0.00134712 0.0084627)
(-0.00163306 0.00134188 0.00851721)
(-0.0016134 0.00134784 0.00856957)
(-0.00158832 0.00129835 0.00862168)
(-0.00154643 0.00139922 0.00867017)
(-0.00151301 0.00115896 0.00872027)
(-0.0014342 0.00152778 0.00877279)
(-0.00138978 0.000897183 0.00881862)
(-0.00126378 0.00171895 0.00887839)
(-0.00119481 0.000467344 0.00891853)
(-0.00100527 0.00192559 0.0089921)
(-0.000875232 -0.000180851 0.00903066)
(-0.00061497 0.00201273 0.00912495)
(-0.000246662 -0.00112939 0.00920332)
(-6.49915e-05 0.00168548 0.00928668)
(0.00110883 -0.00258869 0.00953325)
(0.00119868 0.000449912 0.00960491)
(0.00374377 -0.00529435 0.0101948)
(0.00425028 -0.00258633 0.0105344)
(0.00933791 -0.00999111 0.0118164)
(0.0114812 -0.00761405 0.0131178)
(0.0158356 -0.0181046 0.0170403)
(0.00411967 -0.0156828 0.0170148)
(-0.0202807 -0.0389874 0.0177231)
(-0.0577747 -0.0289204 0.0147562)
(-0.0636836 -0.0598767 0.0241505)
(-0.0467116 -0.0632613 0.0478965)
(0.018264 -0.0959898 0.0329726)
(-0.019493 -0.0764531 -0.141929)
(-0.0244908 0.0935294 0.0364855)
(-0.060921 0.611915 0.00801274)
(-0.0244461 0.697616 -0.00766116)
(-0.0216925 0.714279 0.0103384)
(-0.00250445 0.742739 0.00789689)
(0.00218645 0.747458 0.0107586)
(0.00670547 0.739481 0.0108392)
(0.00936381 0.742746 0.0119812)
(0.00966762 0.758491 0.0124327)
(0.0104216 0.73372 0.0134656)
(0.0121055 0.73161 0.0151931)
(0.0131942 0.727146 0.0159415)
(0.0138725 0.721129 0.0166503)
(0.01464 0.710874 0.0178562)
(0.0164773 0.709701 0.0188168)
(0.0180513 0.700365 0.0197493)
(0.0198257 0.693855 0.0206251)
(0.0208529 0.688452 0.0209033)
(0.0222034 0.680546 0.0217668)
(0.0237011 0.677167 0.0224235)
(0.024641 0.670444 0.0228919)
(0.0258598 0.660939 0.023538)
(0.0262287 0.662259 0.0232526)
(0.02647 0.65429 0.0227851)
(0.0258931 0.648877 0.0216595)
(0.02504 0.644738 0.0198141)
(0.0242547 0.642482 0.0186015)
(0.0238218 0.633358 0.0185964)
(0.022443 0.627139 0.0167411)
(0.0209945 0.614983 0.014139)
(0.0184394 0.620571 0.00938354)
(0.0154296 0.583561 0.00290928)
(0.0109141 0.577963 -0.00774227)
(0.00777676 0.587068 -0.0170878)
(0.00151962 0.537239 -0.0398921)
(0.000330682 0.483565 -0.047167)
(-0.0023708 0.505198 -0.0611126)
(-0.0145827 0.00809731 -0.00505613)
(0.0159053 0.0262819 0.00872615)
(-0.0128977 0.00201913 0.000817758)
(0.00317035 0.0210624 0.000490831)
(-0.0051158 0.00401872 0.0016302)
(0.000627084 0.0135544 0.00190808)
(-0.00223649 0.00536857 0.00284729)
(-1.24484e-05 0.00880437 0.00389748)
(-0.00210933 0.00416409 0.00402748)
(-0.001359 0.00583671 0.00458832)
(-0.00315601 0.0026876 0.00456199)
(-0.00296098 0.00389588 0.00483979)
(-0.00436459 0.00185457 0.00488109)
(-0.00429028 0.00274997 0.00504542)
(-0.00531507 0.00149382 0.00510285)
(-0.00528219 0.00212781 0.00524364)
(-0.00595334 0.00139614 0.00529847)
(-0.00597769 0.00178895 0.00542479)
(-0.00637489 0.00141029 0.00548094)
(-0.00644946 0.00160972 0.00558833)
(-0.00665838 0.0014647 0.00565318)
(-0.00675325 0.00152585 0.00574214)
(-0.00686782 0.00150092 0.00581113)
(-0.00694995 0.00150963 0.00588547)
(-0.00701702 0.00151202 0.00595611)
(-0.0070695 0.00151728 0.00602593)
(-0.00710989 0.00152434 0.00609351)
(-0.00713684 0.00153304 0.00615894)
(-0.00715082 0.00154084 0.00622273)
(-0.00715661 0.001547 0.00628452)
(-0.00715426 0.00155264 0.00634466)
(-0.00714389 0.00155635 0.00640338)
(-0.00712497 0.00156893 0.00646028)
(-0.00709879 0.00153349 0.0065171)
(-0.00705167 0.00163671 0.00656692)
(-0.00701958 0.00142193 0.00662595)
(-0.00692411 0.00178354 0.00667709)
(-0.0068834 0.00119964 0.0067363)
(-0.00671764 0.00199362 0.00679039)
(-0.00665937 0.000834756 0.00684514)
(-0.00638755 0.00223533 0.00690984)
(-0.00628487 0.0002872 0.00695791)
(-0.00584706 0.00241302 0.00704526)
(-0.00556678 -0.0005232 0.00709841)
(-0.00499876 0.00234193 0.00721485)
(-0.00407585 -0.00182181 0.00733445)
(-0.00350116 0.00161328 0.0074787)
(-0.00132491 -0.00393225 0.00778756)
(-0.000590296 -0.000122086 0.00788473)
(0.0034671 -0.00726971 0.00873047)
(0.00450231 -0.00230103 0.00874426)
(0.00806094 -0.0107722 0.0106694)
(-0.00616756 -0.00254212 0.00805937)
(-0.0175026 -0.0209894 0.00548901)
(-0.0583491 -0.0133937 0.0103172)
(-0.0464416 -0.0534288 0.023565)
(-0.0479239 -0.0461563 0.0515298)
(0.0672157 -0.132257 0.0497309)
(-0.0494823 0.0634136 -0.167917)
(-0.0681584 0.00793569 0.0263952)
(-0.155136 0.535314 -0.00082112)
(-0.0491307 0.583916 -0.0055893)
(-0.0493404 0.584598 0.00367565)
(-0.0109543 0.599427 0.00424402)
(-0.00592314 0.591787 0.00153008)
(0.00209514 0.612905 0.00138702)
(0.00495846 0.557934 0.00163845)
(0.00661327 0.53121 0.00311878)
(0.0075434 0.550465 0.00513134)
(0.00878818 0.561674 0.00683453)
(0.0095311 0.568973 0.00835481)
(0.0111432 0.565412 0.00973755)
(0.0122144 0.569574 0.0104222)
(0.0152906 0.562412 0.0114426)
(0.0158944 0.535215 0.0118745)
(0.0167341 0.55271 0.0121797)