/*--------------------------------*- C++ -*----------------------------------*\
| =========                 |                                                 |
| \\      /  F ield         | OpenFOAM: The Open Source CFD Toolbox           |
|  \\    /   O peration     | Version:  2.3.0                                 |
|   \\  /    A nd           | Web:      www.OpenFOAM.org                      |
|    \\/     M anipulation  |                                                 |
\*---------------------------------------------------------------------------*/
FoamFile
{
    version     2.0;
    format      ascii;
    class       volVectorField;
    location    "5";
    object      U.waterMean;
}
// * * * * * * * * * * * * * * * * * * * * * * * * * * * * * * * * * * * * * //

dimensions      [0 1 -1 0 0 0 0];

internalField   nonuniform List<vector> 
6144
(
(0.00444706 0.0192379 -0.00116147)
(0.00448534 0.0101718 -0.0015631)
(0.00383199 0.00862616 -0.00235687)
(0.00392918 0.00633746 -0.00243857)
(0.00336316 0.00527547 -0.00257143)
(0.00352775 0.00447675 -0.00261349)
(0.00321061 0.00379751 -0.0026277)
(0.00334411 0.00339803 -0.00264544)
(0.00316606 0.00286809 -0.00264793)
(0.00323724 0.00258271 -0.0026643)
(0.00313372 0.00217292 -0.0026763)
(0.00315654 0.00193836 -0.00268704)
(0.00309767 0.00163544 -0.00269495)
(0.00309384 0.00143898 -0.00269956)
(0.00306028 0.00122528 -0.00270328)
(0.00304621 0.00106845 -0.00270484)
(0.00302551 0.000920578 -0.0027059)
(0.00301064 0.000802366 -0.00270601)
(0.00299611 0.000699753 -0.00270579)
(0.00298386 0.000614887 -0.00270521)
(0.00297295 0.000543478 -0.00270446)
(0.00296346 0.000483988 -0.00270358)
(0.00295514 0.000434286 -0.00270265)
(0.00294784 0.000392735 -0.00270172)
(0.00294143 0.000357883 -0.0027008)
(0.00293577 0.000328404 -0.00269991)
(0.00293069 0.000303458 -0.00269908)
(0.00292619 0.000280956 -0.00269823)
(0.00292222 0.000266837 -0.00269748)
(0.0029174 0.000231128 -0.00269642)
(0.00291732 0.00026713 -0.00269636)
(0.00290806 0.000137152 -0.00269446)
(0.00291714 0.000339402 -0.00269591)
(0.00289794 -4.4916e-05 -0.00269265)
(0.00292223 0.000516853 -0.00269562)
(0.00288857 -0.000356022 -0.00269079)
(0.00293279 0.000821138 -0.0026948)
(0.00288472 -0.000820604 -0.00268827)
(0.00294383 0.00123936 -0.00269155)
(0.00290791 -0.00143574 -0.0026826)
(0.00294497 0.00173731 -0.00268649)
(0.00295828 -0.00223701 -0.00267051)
(0.00295026 0.00234589 -0.00269229)
(0.00302397 -0.00331522 -0.00265238)
(0.0029843 0.00309075 -0.00271166)
(0.00311954 -0.00477925 -0.00264187)
(0.0030779 0.00392025 -0.00273791)
(0.00328537 -0.00684311 -0.00268412)
(0.00323327 0.00475503 -0.00274891)
(0.00359921 -0.0100999 -0.00278331)
(0.00334474 0.00561486 -0.00272272)
(0.00398659 -0.0154461 -0.00269427)
(0.00329056 0.00708118 -0.00288264)
(0.00376946 -0.0255093 -0.00289457)
(0.00293397 0.0102859 -0.00663029)
(0.00545432 -0.0387444 -0.0033043)
(0.00319681 0.0279568 -0.0135698)
(0.0152965 -0.0402728 0.0201734)
(-0.00462552 0.0935166 -0.0141313)
(0.00755935 -0.102373 0.0306835)
(0.0907511 -0.249087 0.0488656)
(0.0779064 -0.0251269 0.0334922)
(0.0583763 -0.17207 0.0148429)
(0.0401177 -0.127702 0.00351745)
(0.0291164 -0.163045 1.26499e-05)
(0.0223243 -0.118891 0.000837846)
(0.0154797 -0.140999 -7.46195e-05)
(0.0117267 -0.10735 0.00120729)
(0.00950039 -0.121878 0.00175908)
(0.00767879 -0.0981771 0.00202639)
(0.00662156 -0.105188 0.00217361)
(0.00562117 -0.0886353 0.00228821)
(0.00467842 -0.0903632 0.00221952)
(0.00365746 -0.0781266 0.00214166)
(0.00271635 -0.0753402 0.00189088)
(0.0017706 -0.0653209 0.00143283)
(0.0010631 -0.0592051 0.000944684)
(0.000519492 -0.050702 0.000416429)
(0.000154215 -0.0435539 -0.000264126)
(0.000109155 -0.0366938 -0.00062771)
(0.000672224 -0.031225 -0.00101574)
(0.001632 -0.0275102 -0.00191401)
(0.0025979 -0.0246684 -0.00306279)
(0.0033653 -0.0223106 -0.00382776)
(0.00390397 -0.0202298 -0.004067)
(0.00421626 -0.0183563 -0.00413181)
(0.00438597 -0.0166347 -0.00419205)
(0.0044752 -0.0150069 -0.00424821)
(0.00450122 -0.0134287 -0.00428301)
(0.00448493 -0.0118366 -0.00428997)
(0.00444431 -0.0102042 -0.00427605)
(0.00438574 -0.00850262 -0.00424895)
(0.00431716 -0.00675007 -0.00421406)
(0.00422836 -0.00491536 -0.00417725)
(0.00415878 -0.00300594 -0.00413965)
(0.00406984 -0.00101996 -0.00409334)
(0.0106349 0.021477 0.00196464)
(0.0110313 0.0110671 0.0013167)
(0.00855902 0.00946436 -0.000269514)
(0.0089871 0.00724674 -0.000415379)
(0.0074267 0.0061486 -0.000792438)
(0.00796578 0.0054736 -0.000786073)
(0.00706532 0.00461873 -0.000909788)
(0.00750131 0.00427023 -0.000874328)
(0.00695385 0.00358121 -0.000937165)
(0.00721079 0.00330552 -0.000911105)
(0.00687352 0.00277162 -0.000947369)
(0.00698846 0.00251542 -0.000933914)
(0.00678233 0.00212951 -0.000952686)
(0.00679967 0.00191037 -0.00094504)
(0.00668015 0.00164352 -0.000954908)
(0.00664982 0.00146836 -0.000951616)
(0.0065793 0.00128912 -0.00095422)
(0.00653669 0.00115535 -0.000952665)
(0.00648937 0.0010348 -0.000952054)
(0.00645079 0.000937637 -0.000950419)
(0.00641531 0.000855163 -0.000948576)
(0.00638419 0.000786868 -0.000946367)
(0.00635647 0.000729766 -0.000943917)
(0.00633181 0.000682078 -0.000941263)
(0.00630982 0.000642092 -0.000938441)
(0.00629014 0.000608306 -0.000935469)
(0.00627244 0.00057968 -0.000932386)
(0.0062565 0.000554054 -0.000929138)
(0.00624247 0.000535277 -0.000925692)
(0.0062273 0.000500467 -0.000921844)
(0.00622255 0.000528502 -0.00091825)
(0.0061978 0.000399961 -0.000914198)
(0.00621575 0.000599191 -0.000910055)
(0.00616566 0.000199353 -0.000906155)
(0.00622426 0.000787764 -0.000900519)
(0.0061329 -0.00015046 -0.000896746)
(0.00624812 0.00112626 -0.000889921)
(0.00610807 -0.000689592 -0.000885725)
(0.00628031 0.00162743 -0.000877355)
(0.00612203 -0.0014394 -0.000872943)
(0.00629739 0.00225687 -0.000868273)
(0.00620069 -0.00241198 -0.000849011)
(0.00632005 0.00300102 -0.000865781)
(0.00632177 -0.00368163 -0.000823573)
(0.00641849 0.00388003 -0.000860161)
(0.00648995 -0.00534308 -0.000827959)
(0.006692 0.00488051 -0.000842927)
(0.00681352 -0.00757459 -0.000906019)
(0.00725925 0.00603983 -0.000758591)
(0.00751148 -0.011098 -0.00109266)
(0.00801379 0.00761746 -0.000450415)
(0.00854355 -0.0176079 -0.00125897)
(0.00981156 0.00909629 6.0264e-05)
(0.0130621 -0.0348419 -0.000366805)
(0.0138242 0.00354867 0.000461825)
(0.0224985 -0.0753911 0.00300031)
(-0.00306055 -0.00698019 0.00472256)
(-0.0100471 -0.142305 0.0326484)
(-0.0511952 0.0602209 -0.0847468)
(-0.00653307 -0.0898156 0.0164029)
(0.134599 -0.271282 0.101725)
(0.0771711 0.0130395 0.0389671)
(0.036971 -0.116184 0.00260744)
(0.0198005 -0.0121663 0.00523635)
(0.00806284 -0.0718185 0.0114033)
(0.00147611 -0.0229213 0.0111285)
(-0.00146548 -0.0558588 0.00902752)
(-0.00229944 -0.032874 0.00827683)
(-0.00140956 -0.0557759 0.0068617)
(-0.00187717 -0.0421739 0.00632355)
(-0.00199706 -0.0576789 0.00616655)
(-0.00255739 -0.0484862 0.00613193)
(-0.00302574 -0.0570041 0.00600247)
(-0.00381722 -0.0508932 0.00579106)
(-0.00424355 -0.0537306 0.00538732)
(-0.00457724 -0.0488954 0.00485574)
(-0.00435165 -0.0470527 0.00420696)
(-0.00364343 -0.0420587 0.00351112)
(-0.00267394 -0.0375152 0.00271884)
(-0.00154888 -0.0326702 0.0022228)
(-0.000121223 -0.0287233 0.00190278)
(0.00135007 -0.0260398 0.00112038)
(0.00273175 -0.0238481 0.000103494)
(0.00401506 -0.0218379 -0.000664817)
(0.00492608 -0.0199402 -0.000989076)
(0.00549253 -0.0181677 -0.00115828)
(0.00583604 -0.0165188 -0.00126074)
(0.00602492 -0.0149739 -0.00129437)
(0.00606722 -0.0134857 -0.00131014)
(0.00601739 -0.0119613 -0.00133021)
(0.00592983 -0.0103763 -0.00135215)
(0.00582833 -0.00869647 -0.00137876)
(0.00573006 -0.00695771 -0.00141458)
(0.00557612 -0.00508291 -0.00148672)
(0.00544442 -0.00310076 -0.00153832)
(0.00528081 -0.00105297 -0.00160978)
(0.013226 0.0212467 0.00402131)
(0.0142373 0.0101687 0.00334948)
(0.010154 0.00844067 0.00110193)
(0.0112505 0.00685358 0.001073)
(0.00877398 0.00564882 0.000518832)
(0.00990145 0.00535688 0.000647058)
(0.00842328 0.00436186 0.000419809)
(0.0092438 0.00423268 0.000553557)
(0.00832046 0.00340167 0.000407433)
(0.00879508 0.00326029 0.000502068)
(0.00821861 0.00262619 0.000404305)
(0.00842129 0.00246523 0.000461447)
(0.00807272 0.00202465 0.000403888)
(0.00811288 0.00185618 0.000434341)
(0.00790707 0.00156833 0.000406228)
(0.00786689 0.00141793 0.00042099)
(0.00774636 0.00123508 0.000410905)
(0.00768155 0.0011152 0.000418118)
(0.00760315 0.000998427 0.000418617)
(0.00754151 0.000909388 0.000424161)
(0.00748341 0.000832238 0.000429145)
(0.00743241 0.000769414 0.000435484)
(0.00738644 0.000716933 0.000442331)
(0.00734516 0.000673404 0.000449765)
(0.00730788 0.000637048 0.000457645)
(0.00727411 0.000606423 0.0004659)
(0.00724334 0.00058049 0.000474434)
(0.00721522 0.000557426 0.000483244)
(0.00718942 0.000540126 0.000492334)
(0.00716449 0.000509967 0.000501647)
(0.00714861 0.000534128 0.000511281)
(0.00711459 0.000417563 0.000520195)
(0.00712517 0.000603958 0.000531144)
(0.00706042 0.000226598 0.000537848)
(0.0071229 0.00079179 0.000551619)
(0.00700306 -0.00011342 0.000554543)
(0.00714341 0.00113282 0.000572515)
(0.00695231 -0.000644505 0.000572118)
(0.00718522 0.00164719 0.000596658)
(0.00693636 -0.00139543 0.00059265)
(0.00722294 0.00232409 0.00062035)
(0.00701042 -0.00238486 0.000622753)
(0.00725461 0.00314051 0.000637443)
(0.00716868 -0.00365866 0.000652377)
(0.00736671 0.00410797 0.000652491)
(0.00739537 -0.00527476 0.000635329)
(0.00772625 0.00522505 0.000678824)
(0.00780731 -0.00737734 0.000501955)
(0.00859587 0.00659415 0.000779626)
(0.00879601 -0.010695 0.00010245)
(0.0103848 0.00853575 0.00116556)
(0.0117483 -0.018011 -0.000836694)
(0.0176022 0.00844843 0.00259868)
(0.0242354 -0.0402035 0.000111923)
(0.029843 0.00395919 0.00709029)
(0.0442176 -0.0858148 0.00870087)
(0.0117958 -0.00213335 0.0226723)
(0.0205108 -0.162074 0.0513064)
(-0.0668385 0.0941757 -0.100218)
(0.0102287 -0.11455 -0.0171344)
(0.167615 -0.246953 0.119303)
(0.0952842 0.0601819 0.0436408)
(0.0613294 -0.0994077 0.0149788)
(0.034257 0.0426855 0.00840814)
(0.0225448 -0.0428555 0.0206617)
(0.0139818 0.00780308 0.016115)
(0.010969 -0.0339367 0.0141821)
(0.00612413 -0.0114715 0.0103128)
(0.00368205 -0.0317591 0.00726712)
(0.0010234 -0.016479 0.00657351)
(-0.000477598 -0.0309279 0.00621045)
(-0.00232903 -0.0212438 0.00560866)
(-0.00384478 -0.0301209 0.00523161)
(-0.00575509 -0.0249743 0.00490289)
(-0.00711715 -0.0293267 0.00465415)
(-0.00839853 -0.026684 0.00439491)
(-0.00878581 -0.0274584 0.00412877)
(-0.00853647 -0.025829 0.00410056)
(-0.00753494 -0.0247177 0.00399334)
(-0.00580045 -0.023551 0.00375283)
(-0.00350131 -0.0227123 0.00312576)
(-0.00125696 -0.0220822 0.00217734)
(0.000767219 -0.0212455 0.00143104)
(0.00240214 -0.0201634 0.00106985)
(0.00363115 -0.0188961 0.000897153)
(0.00450919 -0.0175357 0.000754498)
(0.00513103 -0.0161512 0.000631413)
(0.00549161 -0.0148068 0.000486843)
(0.00557919 -0.0134548 0.000332864)
(0.00549552 -0.0119839 0.000240232)
(0.0053161 -0.010402 0.000214765)
(0.00508299 -0.00869266 0.000201701)
(0.0048332 -0.00695409 0.000202949)
(0.00452369 -0.00508284 0.000108252)
(0.00432379 -0.00312277 -5.47513e-05)
(0.00415285 -0.0010791 -0.000261067)
(0.0142328 0.0206811 0.0051191)
(0.0163407 0.00952563 0.00474042)
(0.00992572 0.00732397 0.00181767)
(0.0122627 0.00673714 0.00190297)
(0.00870651 0.00510309 0.00132459)
(0.0106575 0.00549487 0.00154354)
(0.00852939 0.00410602 0.00127069)
(0.00985586 0.00436806 0.00146067)
(0.00850751 0.00321835 0.00127031)
(0.0092626 0.00331866 0.00139893)
(0.00841157 0.00246823 0.00127147)
(0.00875129 0.00245811 0.00134762)
(0.00823602 0.0018941 0.00127328)
(0.00832195 0.00182281 0.00131404)
(0.00802115 0.00147717 0.00127911)
(0.0079822 0.00137733 0.00130075)
(0.00780611 0.00117688 0.00128822)
(0.00772386 0.00108 0.00129988)
(0.00761298 0.000963616 0.00130049)
(0.00752988 0.000885968 0.00130889)
(0.00744913 0.000814437 0.00131564)
(0.00737853 0.000758416 0.00132442)
(0.00731432 0.00071135 0.00133361)
(0.00725632 0.000672675 0.00134352)
(0.00720358 0.000640459 0.00135392)
(0.00715543 0.000613471 0.00136474)
(0.00711117 0.000590717 0.00137588)
(0.00707044 0.000570649 0.0013873)
(0.00703258 0.000555142 0.00139901)
(0.00699687 0.00053024 0.00141104)
(0.00697018 0.000549728 0.00142343)
(0.00692552 0.000448217 0.00143532)
(0.00693024 0.000617502 0.0014492)
(0.00684963 0.000269993 0.00145938)
(0.00691908 0.000803624 0.00147738)
(0.0067694 -5.70738e-05 0.00148352)
(0.00693864 0.0011471 0.0015081)
(0.00669334 -0.000577766 0.00150813)
(0.00698801 0.00167691 0.00154271)
(0.00664812 -0.0013282 0.0015349)
(0.00704936 0.00240541 0.00158038)
(0.00668889 -0.00233823 0.00156493)
(0.00709494 0.00331815 0.00161036)
(0.00685054 -0.00363529 0.00158837)
(0.00719049 0.00440311 0.00162226)
(0.0071191 -0.00520415 0.00155109)
(0.00759154 0.00565749 0.00163098)
(0.00766092 -0.00706325 0.0013557)
(0.00871521 0.0072624 0.00170257)
(0.00912476 -0.00984456 0.000760008)
(0.0119628 0.00947585 0.00211292)
(0.0156517 -0.0179055 0.000433732)
(0.0248336 0.00817079 0.00820624)
(0.0316888 -0.0400515 0.00868264)
(0.0359765 0.0175413 0.0237027)
(0.049255 -0.0754709 0.0317468)
(-0.00280718 0.0601625 0.0811694)
(0.0353994 -0.207659 0.110234)
(-0.0572891 0.203031 -0.101747)
(0.0255552 -0.190771 0.003888)
(0.150292 -0.215887 0.136817)
(0.0771968 0.0747265 0.0378506)
(0.0497375 -0.0632568 0.0134074)
(0.0151419 0.0668706 0.00163729)
(0.0148715 -0.00329622 0.0136602)
(-0.000533273 0.0443194 0.00498007)
(-9.44013e-05 0.00726793 0.00393134)
(-0.00337508 0.0320714 0.00453363)
(-0.00237738 0.00718563 0.0029847)
(-0.00199998 0.0208554 0.00433511)
(-0.00204545 0.00300941 0.00430307)
(-0.0029944 0.0104089 0.00395953)
(-0.00402538 -0.00145613 0.00385014)
(-0.00529555 0.00157112 0.00395113)
(-0.00616642 -0.00555433 0.00420854)
(-0.00715136 -0.00589636 0.00486277)
(-0.0073243 -0.0100421 0.00521724)
(-0.00705989 -0.0117452 0.00530489)
(-0.00597793 -0.0142289 0.00512408)
(-0.00463756 -0.0161098 0.00455604)
(-0.00307424 -0.0175634 0.00392383)
(-0.00163905 -0.0184354 0.00317846)
(-0.000242267 -0.0186022 0.00266448)
(0.00100583 -0.0181721 0.00223536)
(0.00201203 -0.0173375 0.0018343)
(0.00276321 -0.0162667 0.00147803)
(0.00334432 -0.0151155 0.00118115)
(0.00366983 -0.0140484 0.000886966)
(0.0036039 -0.013017 0.000625938)
(0.003367 -0.0118403 0.000508229)
(0.00306129 -0.0105229 0.000472989)
(0.00286753 -0.00902629 0.000473218)
(0.00274563 -0.007531 0.000546497)
(0.00259109 -0.00577866 0.000429669)
(0.00264516 -0.00377842 0.000223086)
(0.0026446 -0.00143485 -6.18963e-05)
(0.0136245 0.0194007 0.0058764)
(0.0177318 0.00935045 0.00587191)
(0.0081842 0.006443 0.00238494)
(0.012235 0.0071575 0.00269721)
(0.00741645 0.00474754 0.0019136)
(0.0104708 0.00596488 0.00230959)
(0.00763943 0.00390582 0.00191786)
(0.00960905 0.00465427 0.00223546)
(0.00777284 0.00301318 0.00194889)
(0.00888363 0.00343077 0.00215976)
(0.00769509 0.00226509 0.00196601)
(0.00821459 0.00246748 0.00209237)
(0.00748101 0.00172508 0.00197643)
(0.00764523 0.00178763 0.00204699)
(0.00721748 0.00135606 0.00198907)
(0.00719658 0.00133522 0.00202638)
(0.00695088 0.00110135 0.00200617)
(0.00685753 0.00104342 0.00202703)
(0.00670788 0.000922532 0.00202634)
(0.00660497 0.00086179 0.00204007)
(0.00650013 0.000795776 0.00204928)
(0.00640996 0.000748494 0.00206226)
(0.00632703 0.000707723 0.00207541)
(0.00625182 0.000674825 0.00208967)
(0.00618294 0.00064746 0.00210454)
(0.0061196 0.000624677 0.00212006)
(0.00606094 0.000605483 0.00213603)
(0.00600645 0.000588897 0.00215234)
(0.00595535 0.000575487 0.00216898)
(0.00590731 0.000555659 0.00218591)
(0.00586794 0.000570937 0.00220321)
(0.00581247 0.000485493 0.00221988)
(0.00580634 0.000635313 0.00223959)
(0.00571215 0.000321121 0.00225382)
(0.00577734 0.000816644 0.00227918)
(0.00560521 9.80181e-06 0.00228734)
(0.00578437 0.00115894 0.00232312)
(0.00549884 -0.000495513 0.0023208)
(0.0058286 0.00169592 0.00237277)
(0.00541609 -0.001235 0.00235572)
(0.0059008 0.00245064 0.00242807)
(0.00540219 -0.00224876 0.00239137)
(0.00596806 0.00343844 0.00247533)
(0.0055135 -0.00356672 0.00241304)
(0.00604036 0.00467139 0.00247826)
(0.00576 -0.00507776 0.00234461)
(0.00625215 0.0062051 0.00242781)
(0.006143 -0.00656941 0.00205283)
(0.00712771 0.00828629 0.00234036)
(0.00796047 -0.00862057 0.00130001)
(0.0128092 0.0109441 0.00257444)
(0.0185898 -0.0160571 0.00120691)
(0.0284122 0.0123432 0.0113876)
(0.0299714 -0.0292574 0.0176416)
(0.0288337 0.0321951 0.0409004)
(0.0277148 -0.0516896 0.0510026)
(0.0325727 0.104555 0.100066)
(0.0397541 -0.221986 0.127781)
(-0.0540399 0.318626 -0.0555827)
(0.027475 -0.249147 0.0179213)
(0.133605 -0.191116 0.147477)
(0.0561656 0.0793016 0.0382926)
(0.0398671 -0.0344859 0.0196321)
(0.0164293 0.073649 0.000142711)
(0.0212693 0.0230705 0.00637789)
(0.0113906 0.065646 0.00214134)
(0.01202 0.0301777 0.00505653)
(0.00747732 0.0538501 0.00456486)
(0.00763421 0.0282808 0.00386297)
(0.00540385 0.0417647 0.0054979)
(0.00522304 0.0235981 0.00489281)
(0.00331149 0.0295641 0.00515969)
(0.00227802 0.0174542 0.00430219)
(-0.000314561 0.0182961 0.00407241)
(-0.00165324 0.0110284 0.00362144)
(-0.00425967 0.00871979 0.00375677)
(-0.00557497 0.00375174 0.00361011)
(-0.00670818 4.17304e-06 0.0038439)
(-0.00703473 -0.00329768 0.00372934)
(-0.00703559 -0.00696489 0.00394047)
(-0.00639431 -0.00910721 0.00370913)
(-0.00578662 -0.0113322 0.00322879)
(-0.00474573 -0.0122388 0.00265453)
(-0.0037279 -0.0129436 0.00180814)
(-0.00245225 -0.0129939 0.00120618)
(-0.00129654 -0.0129924 0.000297281)
(-3.38606e-06 -0.012519 -0.00040629)
(0.000762615 -0.0118706 -0.00128798)
(0.00100317 -0.0114586 -0.00171059)
(0.000853076 -0.0108717 -0.00171634)
(0.000508508 -0.0100832 -0.00159502)
(0.000226458 -0.00881435 -0.001517)
(-0.000184303 -0.00719337 -0.00146625)
(-0.000833197 -0.0048763 -0.00148425)
(-0.00133206 -0.00274926 -0.00107796)
(-0.00214711 -0.00108606 -0.00120982)
(0.011226 0.0177067 0.00656596)
(0.0184418 0.00983099 0.00699873)
(0.00516792 0.00574883 0.00321418)
(0.0112374 0.0083425 0.00371965)
(0.00517754 0.00452163 0.00281798)
(0.00934065 0.00681401 0.00340498)
(0.00586815 0.00369235 0.00289027)
(0.00840123 0.00508216 0.00334819)
(0.00615572 0.00273146 0.00297581)
(0.00754428 0.0035754 0.0032711)
(0.00609546 0.00197286 0.00302802)
(0.00675911 0.00246598 0.0032057)
(0.00587513 0.00147827 0.00306423)
(0.00611675 0.00172895 0.00316831)
(0.00560899 0.00117567 0.00309999)
(0.00562938 0.00126567 0.00316023)
(0.0053465 0.000984709 0.00313907)
(0.00526905 0.000984656 0.00317551)
(0.00510276 0.000853257 0.00318106)
(0.00500193 0.000819066 0.00320673)
(0.00489025 0.000758632 0.00322377)
(0.00479698 0.000723496 0.00324679)
(0.0047097 0.000690443 0.00326925)
(0.00463064 0.000664943 0.00329315)
(0.00455814 0.000643744 0.00331774)
(0.00449138 0.000626359 0.00334343)
(0.00442937 0.000611827 0.00336953)
(0.00437158 0.000599442 0.00339542)
(0.00431737 0.000589022 0.00342131)
(0.00426582 0.000574586 0.00344713)
(0.00422258 0.000586953 0.00347347)
(0.00416616 0.000517894 0.00349832)
(0.00415514 0.000647897 0.00352815)
(0.0040605 0.000370554 0.00354919)
(0.00412042 0.000824054 0.00358579)
(0.00394697 7.91681e-05 0.003599)
(0.00412198 0.00116284 0.00364747)
(0.00383032 -0.000403832 0.003648)
(0.00416182 0.00170196 0.00371456)
(0.00372797 -0.00112108 0.00369606)
(0.00422908 0.00246757 0.00378543)
(0.00366208 -0.00211571 0.00373818)
(0.00428344 0.00348212 0.00384174)
(0.00363594 -0.00342106 0.00374075)
(0.00424532 0.00477263 0.00380454)
(0.00365138 -0.00498171 0.00361025)
(0.00443947 0.0062927 0.00372123)
(0.00445064 -0.00663862 0.00343646)
(0.00597529 0.00870759 0.00373877)
(0.00766064 -0.0075279 0.00252684)
(0.0130728 0.0127035 0.00266779)
(0.0198016 -0.00867666 0.00141669)
(0.026839 0.0231734 0.011201)
(0.0277582 -0.0104856 0.0203709)
(0.0198486 0.044087 0.0396333)
(0.0155256 -0.0315049 0.0393925)
(0.0425788 0.0876599 0.0604939)
(0.0329217 -0.0854583 0.0609526)
(0.0241062 0.322969 0.0211993)
(0.0287033 -0.265965 0.0213778)
(0.0879499 -0.170865 0.142521)
(0.0281048 0.0978381 0.02394)
(0.0247551 -0.0125929 0.0151169)
(0.008282 0.0846158 0.00234526)
(0.0088599 0.05244 0.00485178)
(0.00329984 0.0926525 0.00398149)
(0.00516588 0.0619581 0.0076631)
(0.00379938 0.0866351 0.00757849)
(0.00548368 0.0617676 0.00799582)
(0.00512327 0.0755568 0.00796919)
(0.00605999 0.0577629 0.00768573)
(0.00511148 0.0642155 0.00697896)
(0.00432863 0.052386 0.00629534)
(0.00259507 0.0538598 0.00575361)
(0.00141688 0.046463 0.00575971)
(-0.000410604 0.0442875 0.00602401)
(-0.00167018 0.0389775 0.00647994)
(-0.00297588 0.0339908 0.00696295)
(-0.00355261 0.0297039 0.00712141)
(-0.00437213 0.0233053 0.00671865)
(-0.00441439 0.0194488 0.00562425)
(-0.00454704 0.0140835 0.00445209)
(-0.00373376 0.0113265 0.00314415)
(-0.002907 0.00820545 0.00214605)
(-0.00175798 0.00647814 0.00135397)
(-0.00100596 0.00471017 0.000947988)
(-0.000212041 0.0029883 0.000621805)
(0.000351491 0.00178832 0.000126983)
(0.000332574 -0.000608169 0.000144509)
(-0.000170453 -0.00199654 0.00012514)
(-0.00128774 -0.00464549 0.000540408)
(-0.00229595 -0.00575398 0.000707559)
(-0.00351725 -0.00682703 0.000568148)
(-0.00420297 -0.00597003 -0.000370764)
(-0.00325229 -0.00494774 -0.00203415)
(-0.00314679 -0.00240545 -0.00621108)
(0.00617762 0.0156103 0.00727737)
(0.0182215 0.0113364 0.00796801)
(-7.3936e-05 0.00503401 0.00418174)
(0.00901644 0.0102262 0.00485343)
(0.00126212 0.00411034 0.00400947)
(0.00690909 0.00790138 0.00470294)
(0.00255226 0.00330597 0.00423564)
(0.00578787 0.00557277 0.0047349)
(0.00292774 0.00233304 0.00440229)
(0.00466153 0.00373206 0.00469957)
(0.00277544 0.00163492 0.00446931)
(0.00361035 0.00248679 0.00465267)
(0.00243508 0.00123726 0.00450329)
(0.00275864 0.00170314 0.00461725)
(0.00207269 0.00101964 0.0045374)
(0.00212092 0.00122979 0.00460673)
(0.00174065 0.000891606 0.00457754)
(0.00166309 0.000952546 0.00462057)
(0.00144903 0.000802346 0.00462335)
(0.00133557 0.000796086 0.00465411)
(0.00120263 0.000735647 0.00467274)
(0.00109727 0.000711581 0.00469976)
(0.000998964 0.000684313 0.00472503)
(0.000911342 0.000665609 0.00475188)
(0.000831289 0.000649791 0.00477863)
(0.000757662 0.000637036 0.00480512)
(0.000689854 0.000626605 0.00483156)
(0.000628158 0.000617715 0.00485875)
(0.000571628 0.000610619 0.00488659)
(0.000518959 0.000600922 0.00491479)
(0.000473349 0.000610851 0.0049438)
(0.000418783 0.000556747 0.00496985)
(0.000405212 0.000668025 0.00500218)
(0.000314416 0.000426258 0.00502256)
(0.000373121 0.000838355 0.00506329)
(0.00020303 0.000155129 0.0050735)
(0.000381726 0.00117111 0.00512824)
(9.02836e-05 -0.000307619 0.00512391)
(0.000433946 0.00170189 0.00519952)
(-6.69671e-06 -0.00100553 0.00517588)
(0.000531092 0.00245364 0.00528335)
(-6.24014e-05 -0.00199811 0.00523371)
(0.000674417 0.00342085 0.00537483)
(-4.49394e-05 -0.00333047 0.00527967)
(0.000860016 0.00461936 0.00537803)
(0.000345429 -0.00456054 0.00510569)
(0.000949184 0.00675153 0.00481897)
(-8.01127e-05 -0.00536974 0.00415112)
(0.000231758 0.00954708 0.00368923)
(0.00130512 -0.00735294 0.00201533)
(0.00789686 0.0149233 0.00131636)
(0.0133049 -0.00133162 0.000117996)
(0.0230446 0.0388249 0.00721592)
(0.0217149 0.00438249 0.0106514)
(0.0131939 0.0643859 0.030068)
(0.00784853 -0.0382607 0.0275275)
(0.0139917 0.0864424 0.0432493)
(0.00305986 -0.139621 0.0280666)
(0.0309047 0.288444 0.0525837)
(0.0201583 -0.277302 0.0277352)
(0.0530644 -0.146491 0.104166)
(-0.00231656 0.0892518 0.0251697)
(0.00185456 0.0107604 0.00095666)
(-0.00996091 0.113214 -0.00456794)
(-0.0011033 0.0745395 0.0089661)
(0.00163795 0.113765 0.00925447)
(0.00533172 0.0837447 0.0142437)
(0.00459641 0.104688 0.0130249)
(0.00696159 0.0812559 0.0150387)
(0.00432824 0.0929134 0.0128642)
(0.00633818 0.0766529 0.0149372)
(0.00315124 0.0811427 0.0120303)
(0.00418913 0.0701523 0.0136316)
(0.000399847 0.0692709 0.0102194)
(0.000276022 0.0617795 0.0111827)
(-0.00283485 0.0575966 0.00867871)
(-0.00322757 0.0524862 0.00904009)
(-0.00457343 0.0462637 0.00758304)
(-0.00457508 0.0421509 0.00675344)
(-0.00492955 0.0369086 0.00530454)
(-0.00416863 0.034467 0.00366275)
(-0.00450232 0.0306392 0.00133704)
(-0.0047275 0.0295447 -0.00124753)
(-0.00513214 0.0273347 -0.00326767)
(-0.00500306 0.0266626 -0.00533516)
(-0.00414652 0.0251216 -0.0066593)
(-0.00313809 0.0241019 -0.00802933)
(-0.00215695 0.0230368 -0.00870385)
(-0.00172456 0.0211493 -0.00909568)
(-0.00175897 0.0189514 -0.00905153)
(-0.00263102 0.0147391 -0.00909811)
(-0.00369965 0.0111144 -0.00827585)
(-0.00548106 0.0053047 -0.00775729)
(-0.0074142 0.00121074 -0.00632846)
(-0.00783811 -0.0027627 -0.0028928)
(-0.0100706 -0.00155234 -0.00759707)
(-0.000648585 0.0112111 0.00763972)
(0.0177955 0.0139665 0.00753224)
(-0.00581209 0.00412343 0.00498666)
(0.00702011 0.0128695 0.00512254)
(-0.00292159 0.00348147 0.00508327)
(0.00421306 0.00918088 0.00547081)
(-0.00118159 0.00264554 0.00555409)
(0.00260269 0.00601432 0.00589628)
(-0.000794215 0.00166143 0.00588093)
(0.00111819 0.00380022 0.00608471)
(-0.00104709 0.00106165 0.00604375)
(-0.000102828 0.00240717 0.00620948)
(-0.00143261 0.000810445 0.0061794)
(-0.00102195 0.00158676 0.0063148)
(-0.00178447 0.00072664 0.00631248)
(-0.00166894 0.00112161 0.00642164)
(-0.0020718 0.000709251 0.00644434)
(-0.00209992 0.000869703 0.00653038)
(-0.00230327 0.000703008 0.00657033)
(-0.00237901 0.000744508 0.0066387)
(-0.00248486 0.000692147 0.00668787)
(-0.00255638 0.000689742 0.00674476)
(-0.00262142 0.000675077 0.00679635)
(-0.00267377 0.000668394 0.00684915)
(-0.00271731 0.000662784 0.00690103)
(-0.0027526 0.000659182 0.00695266)
(-0.00278117 0.000656513 0.00700351)
(-0.00280543 0.000654727 0.00705288)
(-0.00282633 0.000653838 0.00710073)
(-0.00284268 0.000651079 0.00714773)
(-0.00285204 0.000662109 0.00719403)
(-0.00286784 0.000624955 0.00723748)
(-0.0028459 0.000721931 0.00728524)
(-0.00289651 0.000520376 0.00732208)
(-0.00279873 0.00089332 0.0073765)
(-0.00293078 0.000280472 0.00740436)
(-0.00270584 0.00122905 0.00746769)
(-0.00296379 -0.000145893 0.00748583)
(-0.00256762 0.00176898 0.00756101)
(-0.00298123 -0.000795395 0.00756985)
(-0.0023903 0.00254055 0.0076617)
(-0.00297662 -0.00169351 0.00765883)
(-0.00223687 0.00355745 0.00772951)
(-0.00307824 -0.00276662 0.00763877)
(-0.00278327 0.00511466 0.007276)
(-0.00400145 -0.00435221 0.00645387)
(-0.0024971 0.00481257 0.00547482)
(-0.0011674 -0.00973334 0.0045363)
(0.00260076 0.00210065 0.00328269)
(0.00387007 -0.0140178 0.00171934)
(0.00649794 0.0124097 0.00055599)
(0.00820674 0.00647752 0.000490047)
(0.0186703 0.0505176 0.00723758)
(0.0247016 0.032884 0.0111413)
(0.0406467 0.0830392 0.0268371)
(0.0338934 0.0108326 0.0319314)
(0.0606882 0.0835337 0.0478118)
(0.0463652 -0.0856629 0.047241)
(-0.00388601 0.231774 0.051237)
(0.00179814 -0.300868 0.0246294)
(-0.0178894 -0.0510227 0.0554091)
(-0.0308845 0.1655 -1.32081e-05)
(-0.0220191 0.120098 0.00124184)
(-0.0138078 0.192303 0.00507438)
(-0.00139895 0.150712 0.0115213)
(0.00446457 0.181959 0.013117)
(0.00907304 0.156982 0.0160515)
(0.010696 0.172388 0.0169017)
(0.0121779 0.156052 0.0185037)
(0.0122487 0.163458 0.0198866)
(0.0129057 0.152745 0.0217523)
(0.0128118 0.15431 0.0231685)
(0.0130504 0.14676 0.0246307)
(0.0124137 0.144189 0.0243383)
(0.0118526 0.137297 0.0240485)
(0.0109804 0.131653 0.0223593)
(0.0101305 0.125945 0.0213781)
(0.00915428 0.119463 0.019794)
(0.00774956 0.114664 0.0182847)
(0.00608469 0.109145 0.016458)
(0.00434552 0.105791 0.0146607)
(0.00314435 0.101978 0.0132705)
(0.00240082 0.0995889 0.0123732)
(0.00264487 0.0960917 0.0119902)
(0.00311103 0.0930551 0.0112808)
(0.00402584 0.0884573 0.010327)
(0.00415053 0.084943 0.00877745)
(0.00416104 0.080219 0.00716127)
(0.00394999 0.0764949 0.00502399)
(0.0035651 0.0710759 0.00255942)
(0.00232858 0.0658301 -0.00102051)
(0.000920906 0.0584898 -0.00546584)
(-0.00188535 0.0502469 -0.0119486)
(-0.00604002 0.0390683 -0.0217487)
(-0.0126846 0.0238967 -0.0398835)
(-0.0166094 0.0100502 -0.0572852)
(-0.0100649 0.0063289 -0.00280514)
(0.0166945 0.0184372 0.00594307)
(-0.0121235 0.00212082 0.0005073)
(0.00510056 0.0158838 0.00140074)
(-0.00707515 0.00215719 0.00207627)
(0.00154774 0.0102225 0.00261702)
(-0.00527828 0.00155534 0.00308657)
(-0.000912456 0.00633857 0.00350282)
(-0.00520813 0.000912017 0.00358629)
(-0.0030443 0.00389378 0.00380684)
(-0.00569484 0.000586389 0.00381019)
(-0.00468034 0.0024138 0.00395344)
(-0.00625247 0.00052763 0.00397124)
(-0.00582894 0.00157401 0.00408354)
(-0.00672198 0.000576014 0.00410744)
(-0.00660905 0.00112066 0.00420404)
(-0.00708629 0.000650725 0.00423421)
(-0.00712441 0.000889459 0.00431482)
(-0.00737035 0.00070774 0.00435399)
(-0.00746085 0.000787354 0.00441916)
(-0.00759057 0.000740438 0.00446558)
(-0.00767695 0.000755194 0.00451983)
(-0.0077568 0.000750391 0.00456847)
(-0.00782157 0.000753218 0.00461785)
(-0.0078757 0.000755473 0.00466588)
(-0.00792028 0.000758817 0.00471313)
(-0.00795659 0.000762835 0.00475936)
(-0.00798483 0.000767327 0.00480465)
(-0.00800545 0.000771844 0.00484913)
(-0.0080208 0.00077468 0.00489253)
(-0.00802982 0.000786289 0.00493484)
(-0.00804181 0.000762287 0.0049759)
(-0.00802053 0.000844016 0.00501694)
(-0.00806406 0.000676757 0.00505584)
(-0.00796759 0.00100623 0.0050965)
(-0.00809091 0.000461042 0.00513593)
(-0.00786677 0.00132605 0.00517251)
(-0.00811449 6.24629e-05 0.00521707)
(-0.00772079 0.00184141 0.00524795)
(-0.00811889 -0.00056763 0.005303)
(-0.00753097 0.0025497 0.00533306)
(-0.0080831 -0.00149448 0.00540223)
(-0.00736391 0.00335813 0.00539427)
(-0.00817681 -0.00274794 0.00529802)
(-0.00621079 0.00427318 0.00457758)
(-0.00360369 -0.00503168 0.00320122)
(0.00057566 0.00586276 0.00215052)
(0.00075247 -0.00107136 -0.000483564)
(-0.00202877 0.0240513 -0.00132293)
(-0.00851349 0.0241938 0.00238183)
(-0.0122023 0.0545918 0.00616258)
(-0.0100945 0.0520367 0.0118635)
(0.000192085 0.0853531 0.0191458)
(0.0101124 0.0703602 0.0200227)
(0.0227114 0.119093 0.0271958)
(0.0303385 0.0877865 0.0367228)
(0.0354996 0.155716 0.0552734)
(0.0341061 0.0276561 0.0656639)
(0.0216364 0.381227 0.0477691)