/*--------------------------------*- C++ -*----------------------------------*\
| =========                 |                                                 |
| \\      /  F ield         | OpenFOAM: The Open Source CFD Toolbox           |
|  \\    /   O peration     | Version:  2.3.0                                 |
|   \\  /    A nd           | Web:      www.OpenFOAM.org                      |
|    \\/     M anipulation  |                                                 |
\*---------------------------------------------------------------------------*/
FoamFile
{
    version     2.0;
    format      ascii;
    class       volVectorField;
    location    "5";
    object      Ur;
}
// * * * * * * * * * * * * * * * * * * * * * * * * * * * * * * * * * * * * * //

dimensions      [0 1 -1 0 0 0 0];

internalField   nonuniform List<vector> 
6144
(
(-2.78135e-07 0.00068609 -9.27111e-08)
(-3.19385e-07 0.000684858 -8.48707e-09)
(-3.74512e-07 0.000684826 -1.6368e-08)
(-4.86583e-07 0.000684977 -7.55656e-08)
(-5.80148e-07 0.000685435 -1.22348e-07)
(-6.91585e-07 0.000686495 -1.67135e-07)
(-7.31024e-07 0.000688055 -1.9195e-07)
(-7.5945e-07 0.000690007 -2.0544e-07)
(-7.13548e-07 0.000692166 -2.06052e-07)
(-6.68116e-07 0.000694339 -2.00974e-07)
(-5.85082e-07 0.000696385 -1.925e-07)
(-5.20395e-07 0.0006982 -1.83301e-07)
(-4.49004e-07 0.00069976 -1.772e-07)
(-3.9834e-07 0.000701062 -1.72133e-07)
(-3.50078e-07 0.000702151 -1.68523e-07)
(-3.14944e-07 0.000703062 -1.64201e-07)
(-2.81654e-07 0.000703825 -1.57626e-07)
(-2.60539e-07 0.000704459 -1.52277e-07)
(-2.42397e-07 0.000704975 -1.4517e-07)
(-2.36086e-07 0.000705389 -1.4056e-07)
(-2.29033e-07 0.00070572 -1.33386e-07)
(-2.33763e-07 0.000705982 -1.29459e-07)
(-2.34582e-07 0.000706192 -1.22265e-07)
(-2.47706e-07 0.000706362 -1.19087e-07)
(-2.54319e-07 0.000706507 -1.1204e-07)
(-2.7446e-07 0.000706635 -1.09842e-07)
(-2.85648e-07 0.000706762 -1.02882e-07)
(-3.12278e-07 0.000706891 -1.01876e-07)
(-3.26825e-07 0.000707043 -9.42997e-08)
(-3.59344e-07 0.000707224 -9.44626e-08)
(-3.79388e-07 0.000707438 -8.79658e-08)
(-4.16686e-07 0.000707721 -8.96232e-08)
(-4.42575e-07 0.000708051 -8.35234e-08)
(-4.85065e-07 0.000708502 -8.72205e-08)
(-5.17065e-07 0.000708972 -8.10143e-08)
(-5.65228e-07 0.000709694 -8.69186e-08)
(-6.0278e-07 0.000710353 -8.00012e-08)
(-6.57543e-07 0.000711344 -8.68692e-08)
(-6.99666e-07 0.000712264 -7.84029e-08)
(-7.65176e-07 0.000713563 -8.31572e-08)
(-8.11907e-07 0.000714783 -7.08206e-08)
(-8.95407e-07 0.000716413 -6.91653e-08)
(-9.59015e-07 0.000717918 -4.66864e-08)
(-1.08345e-06 0.000719855 -3.13294e-08)
(-1.21139e-06 0.000721678 1.11401e-08)
(-1.46588e-06 0.000724057 5.15245e-08)
(-1.81686e-06 0.000726613 1.23205e-07)
(-2.46786e-06 0.000730342 1.88636e-07)
(-3.44588e-06 0.000735591 2.62089e-07)
(-4.99344e-06 0.000744021 3.03137e-07)
(-6.9974e-06 0.000757552 1.47875e-07)
(-8.21234e-06 0.000778544 1.21542e-07)
(-6.84808e-06 0.000844789 -1.31114e-06)
(-6.1458e-06 0.000974111 -4.60059e-06)
(9.50261e-07 0.00119477 -8.8565e-06)
(-2.5755e-05 0.00151185 -1.56245e-05)
(-6.24835e-05 0.00175726 -3.33168e-05)
(1.17568e-05 0.00415536 -2.76934e-05)
(-0.000517374 0.0206386 -0.000936584)
(0.0104264 0.141104 0.00385104)
(-0.0315142 0.608492 -0.0272216)
(-0.0582271 0.537346 -0.0425691)
(-0.00779808 0.0839233 -0.00419097)
(-0.000145991 0.0307402 -0.00011027)
(-0.000123697 0.0095158 -5.20662e-05)
(-0.000123052 0.00934727 -3.0989e-05)
(-0.00010431 0.00941862 -1.37974e-05)
(-9.13267e-05 0.00948422 -2.56548e-05)
(-6.8015e-05 0.00950149 -3.84772e-05)
(-4.85261e-05 0.00949192 -3.46416e-05)
(-2.56805e-05 0.00947545 -2.62506e-05)
(-1.40166e-05 0.00946836 -2.28119e-05)
(-1.37162e-05 0.00947637 -1.97137e-05)
(-1.4595e-05 0.00949854 -1.31759e-05)
(-2.00123e-05 0.00953841 -1.0873e-06)
(-2.4886e-05 0.0096061 1.80999e-06)
(-2.83993e-05 0.00968419 -1.06412e-05)
(-3.33753e-05 0.00975575 -1.48215e-05)
(-4.49421e-05 0.0098079 -3.00182e-05)
(-4.06063e-05 0.00984002 -2.49945e-05)
(-2.52275e-05 0.00984267 9.7616e-06)
(-2.75456e-06 0.00991351 3.01674e-05)
(5.65111e-06 0.0100725 1.258e-05)
(8.37287e-06 0.010191 5.82609e-06)
(3.38709e-06 0.0102324 5.74448e-06)
(1.80665e-06 0.0102317 4.19157e-06)
(2.16061e-08 0.0102228 2.12139e-06)
(-1.01652e-06 0.0101983 9.35845e-08)
(-1.66164e-06 0.0101005 -1.31038e-06)
(-1.8503e-06 0.00977825 -1.83647e-06)
(-1.78524e-06 0.00900705 -1.97221e-06)
(-1.5298e-06 0.00766657 -1.85483e-06)
(-1.11079e-06 0.00622091 -1.38215e-06)
(-9.48029e-07 0.00542329 -1.24102e-06)
(-9.3682e-07 0.00526347 -1.25786e-06)
(-9.00619e-07 0.00526479 -1.26278e-06)
(-3.53281e-07 0.000685339 -5.80982e-08)
(-4.40822e-07 0.000684529 8.41107e-08)
(-7.3345e-07 0.000684453 6.92204e-08)
(-1.06707e-06 0.000684535 -1.78783e-08)
(-1.38713e-06 0.000684987 -6.22713e-08)
(-1.66091e-06 0.000686108 -1.19622e-07)
(-1.77449e-06 0.000687765 -1.33566e-07)
(-1.80866e-06 0.000689819 -1.53335e-07)
(-1.66979e-06 0.000692066 -1.46339e-07)
(-1.52503e-06 0.000694286 -1.50309e-07)
(-1.29438e-06 0.000696349 -1.39562e-07)
(-1.12021e-06 0.000698163 -1.39433e-07)
(-9.27057e-07 0.000699698 -1.34409e-07)
(-7.92408e-07 0.000700966 -1.33179e-07)
(-6.6173e-07 0.000702037 -1.32231e-07)
(-5.68623e-07 0.000702937 -1.26617e-07)
(-4.90291e-07 0.000703687 -1.2501e-07)
(-4.40642e-07 0.000704304 -1.1719e-07)
(-4.0951e-07 0.000704805 -1.16007e-07)
(-3.99411e-07 0.000705207 -1.07444e-07)
(-4.01288e-07 0.000705528 -1.0657e-07)
(-4.20122e-07 0.000705782 -9.77207e-08)
(-4.45236e-07 0.000705985 -9.77565e-08)
(-4.85263e-07 0.00070615 -8.84929e-08)
(-5.27765e-07 0.000706289 -8.98397e-08)
(-5.84382e-07 0.000706413 -8.00788e-08)
(-6.40896e-07 0.000706533 -8.30166e-08)
(-7.12336e-07 0.000706658 -7.28756e-08)
(-7.80874e-07 0.000706808 -7.75817e-08)
(-8.65944e-07 0.00070698 -6.65759e-08)
(-9.48529e-07 0.000707195 -7.39198e-08)
(-1.04459e-06 0.000707482 -6.26051e-08)
(-1.14308e-06 0.000707804 -7.28992e-08)
(-1.24986e-06 0.000708257 -6.15155e-08)
(-1.36574e-06 0.000708722 -7.44837e-08)
(-1.48308e-06 0.000709447 -6.32144e-08)
(-1.61636e-06 0.000710093 -7.84728e-08)
(-1.74562e-06 0.000711081 -6.67108e-08)
(-1.89674e-06 0.000711969 -8.33626e-08)
(-2.04709e-06 0.000713291 -6.98034e-08)
(-2.22196e-06 0.000714461 -8.5149e-08)
(-2.41829e-06 0.000716121 -6.76971e-08)
(-2.64877e-06 0.000717552 -7.53673e-08)
(-2.95692e-06 0.000719491 -4.53818e-08)
(-3.36467e-06 0.000721158 -3.21689e-08)
(-4.00443e-06 0.000723398 3.49798e-08)
(-5.00177e-06 0.000725582 9.77492e-08)
(-6.67664e-06 0.000728776 2.40849e-07)
(-9.37993e-06 0.000733113 3.50011e-07)
(-1.34764e-05 0.000739891 6.15254e-07)
(-1.8048e-05 0.000758348 5.09997e-07)
(-1.91152e-05 0.000888711 1.88496e-06)
(-1.93344e-05 0.00129939 1.78008e-07)
(-2.67673e-05 0.00178909 -2.69869e-06)
(2.77067e-05 0.00203529 -1.15212e-05)
(-3.59351e-05 0.00219575 -1.44351e-05)
(-0.000275508 0.00246638 -6.59645e-05)
(-8.08005e-06 0.003817 -0.000177299)
(-0.000131752 0.0152296 -0.000373034)
(0.0202713 0.134673 0.0168716)
(-0.0691499 0.595989 -0.0281516)
(-0.0775655 0.413528 -0.0442319)
(-0.00364438 0.0248985 -0.000429225)
(-0.000101807 0.00914975 8.10574e-06)
(-0.000127679 0.00923638 -4.30149e-05)
(-9.86519e-05 0.0092943 -2.97822e-05)
(-5.14144e-05 0.00934557 -2.76802e-05)
(-2.80738e-05 0.00940324 -2.96624e-05)
(-1.3877e-05 0.00940896 -2.21119e-05)
(-1.47907e-05 0.00939615 -1.18048e-06)
(-1.25955e-05 0.0093994 3.6085e-06)
(-1.43419e-05 0.0094207 2.52381e-06)
(-1.51064e-05 0.00946258 5.48657e-06)
(-1.6231e-05 0.00949263 7.82274e-06)
(-2.19808e-05 0.00950748 1.00483e-05)
(-3.13453e-05 0.00953402 4.17836e-06)
(-4.798e-05 0.00957991 -5.78061e-06)
(-6.11925e-05 0.00962581 -1.7309e-05)
(-5.7015e-05 0.00969624 -2.32577e-05)
(-5.72503e-05 0.00980077 -2.3879e-05)
(-5.5836e-05 0.00988503 3.53201e-06)
(-2.71428e-05 0.0100045 1.76117e-05)
(-8.14745e-06 0.0101539 1.17512e-05)
(-7.95586e-07 0.010207 5.34197e-06)
(-7.51144e-08 0.0101883 8.1879e-06)
(1.50452e-07 0.0101686 6.39416e-06)
(-7.18751e-07 0.0101577 3.43368e-06)
(-2.18849e-06 0.0101366 1.99687e-06)
(-2.39591e-06 0.0100472 4.12638e-07)
(-2.61284e-06 0.0097456 -7.22883e-07)
(-2.50011e-06 0.0090022 -1.35701e-06)
(-1.97904e-06 0.00767179 -1.39737e-06)
(-1.28237e-06 0.00621767 -8.0628e-07)
(-1.13039e-06 0.00541946 -8.97541e-07)
(-1.19353e-06 0.00526341 -1.03606e-06)
(-1.19646e-06 0.00526473 -9.2694e-07)
(-3.0107e-07 0.000683636 8.33652e-08)
(-5.45744e-07 0.000683853 2.39896e-07)
(-1.13768e-06 0.000684085 2.08274e-07)
(-1.5887e-06 0.000684138 9.82055e-08)
(-2.13161e-06 0.000684597 8.24684e-09)
(-2.49337e-06 0.000685842 -6.4582e-08)
(-2.64184e-06 0.00068767 -7.42149e-08)
(-2.61945e-06 0.000689903 -9.22785e-08)
(-2.37072e-06 0.000692277 -8.33352e-08)
(-2.10379e-06 0.000694558 -8.56589e-08)
(-1.74885e-06 0.000696636 -7.38252e-08)
(-1.47161e-06 0.000698424 -7.65196e-08)
(-1.18633e-06 0.000699923 -7.07491e-08)
(-9.80263e-07 0.000701139 -7.31522e-08)
(-7.90058e-07 0.000702175 -6.89046e-08)
(-6.57869e-07 0.000703037 -6.73989e-08)
(-5.57166e-07 0.00070375 -6.28689e-08)
(-5.0049e-07 0.000704332 -5.91635e-08)
(-4.74309e-07 0.000704805 -5.49818e-08)
(-4.78526e-07 0.000705182 -5.01628e-08)
(-5.03338e-07 0.000705481 -4.57232e-08)
(-5.51563e-07 0.000705717 -4.11559e-08)
(-6.11745e-07 0.000705905 -3.66631e-08)
(-6.92062e-07 0.000706056 -3.26632e-08)
(-7.78575e-07 0.000706183 -2.83338e-08)
(-8.83884e-07 0.000706296 -2.50133e-08)
(-9.91662e-07 0.000706406 -2.11822e-08)
(-1.1184e-06 0.000706521 -1.86645e-08)
(-1.2441e-06 0.000706661 -1.53228e-08)
(-1.38986e-06 0.000706822 -1.33841e-08)
(-1.53388e-06 0.000707027 -1.15245e-08)
(-1.69658e-06 0.0007073 -1.10782e-08)
(-1.86113e-06 0.000707611 -1.10126e-08)
(-2.03874e-06 0.000708039 -1.22937e-08)
(-2.22594e-06 0.000708501 -1.41581e-08)
(-2.41662e-06 0.000709206 -1.73697e-08)
(-2.62695e-06 0.000709856 -2.14388e-08)
(-2.83084e-06 0.000710826 -2.61176e-08)
(-3.06625e-06 0.00071171 -3.24294e-08)
(-3.29507e-06 0.000712998 -3.74598e-08)
(-3.56856e-06 0.000714152 -4.47547e-08)
(-3.86239e-06 0.000715757 -4.73367e-08)
(-4.2224e-06 0.000717137 -4.9402e-08)
(-4.6805e-06 0.000718954 -3.73642e-08)
(-5.29985e-06 0.000720446 -8.24735e-09)
(-6.23574e-06 0.000722323 6.68961e-08)
(-7.70641e-06 0.00072392 2.01341e-07)
(-1.01861e-05 0.000725999 4.40548e-07)
(-1.42605e-05 0.000728697 7.86232e-07)
(-2.03805e-05 0.000734466 1.52686e-06)
(-2.16263e-05 0.000904708 2.09623e-06)
(-2.53018e-05 0.00149615 -1.88161e-07)
(-1.2311e-05 0.00231326 -4.69921e-05)
(7.84505e-06 0.0028466 -4.39416e-05)
(4.83984e-05 0.0028936 -2.4732e-05)
(3.32283e-05 0.00270545 5.41922e-05)
(-0.000617074 0.00323966 0.000244364)
(0.000111961 0.00513543 2.844e-05)
(-0.000295408 0.0156533 -0.000213724)
(0.0284677 0.164225 0.0273549)
(-0.0317713 0.590536 -0.017493)
(-0.0328741 0.381935 -0.0343628)
(-0.000230236 0.0265694 -0.000338704)
(-2.53204e-05 0.0102157 -0.000135174)
(0.000117772 0.0102074 -3.29719e-05)
(0.000152084 0.00978623 -1.51168e-05)
(0.000100575 0.0095494 1.08889e-05)
(4.58367e-05 0.00965543 2.55632e-05)
(1.78541e-05 0.00975247 2.687e-05)
(-4.90964e-06 0.00974579 1.50013e-05)
(-1.25202e-05 0.00982547 7.29731e-06)
(-8.71192e-06 0.00994342 -7.60395e-07)
(6.08903e-07 0.00999105 4.2886e-06)
(-4.67952e-06 0.00998138 1.95003e-05)
(-2.76811e-05 0.0099328 2.88896e-05)
(-4.47145e-05 0.00987647 4.56112e-06)
(-5.48732e-05 0.00981549 -4.47109e-05)
(-5.65449e-05 0.00977669 -7.76862e-05)
(-4.26453e-05 0.00981069 -6.13931e-05)
(-6.10964e-05 0.00988404 -3.0529e-05)
(-5.6559e-05 0.00996819 6.02731e-07)
(-2.85753e-05 0.0101158 1.90563e-05)
(-1.51164e-05 0.010217 4.53605e-06)
(-1.14547e-05 0.0102157 2.46905e-06)
(-7.72958e-06 0.0101915 9.18777e-06)
(-3.99685e-06 0.0101773 7.91611e-06)
(-2.04852e-06 0.0101673 5.36424e-06)
(-2.00962e-06 0.0101432 3.20261e-06)
(-2.42072e-06 0.0100499 1.91371e-06)
(-2.936e-06 0.00974863 9.03545e-07)
(-2.62035e-06 0.00901433 4.00811e-07)
(-1.74088e-06 0.00769673 2.01875e-07)
(-7.18525e-07 0.00624131 6.46032e-07)
(-3.73324e-07 0.00542721 3.56173e-07)
(-2.45085e-07 0.00526284 1.38104e-07)
(-1.40138e-07 0.00526424 3.05059e-07)
(-2.54809e-07 0.000681343 2.39803e-07)
(-7.54752e-07 0.000682311 2.83253e-07)
(-1.61573e-06 0.000683263 2.9939e-07)
(-2.22661e-06 0.000683487 1.3437e-07)
(-2.94497e-06 0.000684034 1.63062e-08)
(-3.34587e-06 0.000685533 -5.56303e-08)
(-3.4925e-06 0.000687623 -6.82548e-08)
(-3.3635e-06 0.000690101 -5.8599e-08)
(-2.99532e-06 0.000692642 -4.16771e-08)
(-2.59836e-06 0.000694985 -3.23317e-08)
(-2.12905e-06 0.000697067 -1.99406e-08)
(-1.75506e-06 0.000698806 -1.6143e-08)
(-1.39129e-06 0.000700254 -1.06361e-08)
(-1.12632e-06 0.000701406 -6.4938e-09)
(-8.95227e-07 0.000702384 -4.17545e-09)
(-7.40394e-07 0.000703185 1.44394e-09)
(-6.31687e-07 0.000703845 3.39328e-09)
(-5.76158e-07 0.000704379 1.08095e-08)
(-5.64508e-07 0.00070481 1.16775e-08)
(-5.85669e-07 0.000705152 2.07999e-08)
(-6.41361e-07 0.000705422 2.09617e-08)
(-7.17925e-07 0.000705633 3.12766e-08)
(-8.2044e-07 0.000705798 3.02495e-08)
(-9.3709e-07 0.000705932 4.11257e-08)
(-1.07498e-06 0.000706041 3.84771e-08)
(-1.22219e-06 0.00070614 5.02025e-08)
(-1.38871e-06 0.000706234 4.52834e-08)
(-1.56113e-06 0.000706336 5.76814e-08)
(-1.75198e-06 0.00070646 5.05613e-08)
(-1.94603e-06 0.000706607 6.41551e-08)
(-2.15992e-06 0.000706797 5.30408e-08)
(-2.37303e-06 0.000707051 6.59799e-08)
(-2.61205e-06 0.000707346 5.02182e-08)
(-2.84025e-06 0.000707765 6.23588e-08)
(-3.10551e-06 0.000708214 4.15076e-08)
(-3.34412e-06 0.000708891 5.23087e-08)
(-3.63393e-06 0.000709535 2.61489e-08)
(-3.88017e-06 0.000710498 3.55399e-08)
(-4.19456e-06 0.000711364 3.84993e-09)
(-4.46108e-06 0.000712631 1.14324e-08)
(-4.81749e-06 0.000713733 -2.58212e-08)
(-5.15683e-06 0.000715284 -2.01848e-08)
(-5.61667e-06 0.000716569 -5.59173e-08)
(-6.1577e-06 0.000718262 -3.99524e-08)
(-6.91627e-06 0.000719499 -2.8416e-08)
(-8.00152e-06 0.000720945 8.60295e-08)
(-9.72963e-06 0.000721718 3.17648e-07)
(-1.27365e-05 0.000722452 8.38546e-07)
(-1.71107e-05 0.000722451 1.77089e-06)
(-2.11716e-05 0.000860503 3.84744e-06)
(-2.17653e-05 0.0014512 9.45149e-06)
(-7.59234e-06 0.00242313 2.89988e-05)
(-4.21511e-06 0.00318054 6.30117e-06)
(6.48705e-06 0.00345269 -4.07696e-05)
(3.54866e-05 0.00338367 2.08932e-05)
(0.000160414 0.00298453 5.02002e-05)
(0.000345165 0.00410031 0.000734604)
(0.000585337 0.00728758 0.00052459)
(-0.00114339 0.0181696 -0.000641824)
(0.0196285 0.200634 0.0194568)
(-0.00505863 0.644888 -0.0184904)
(-0.0201877 0.534963 -0.048684)
(-0.00689069 0.582494 -0.0309129)
(0.00402814 0.548741 0.00554583)
(-0.00122212 0.535288 0.00653413)
(-0.00287482 0.49548 0.00516249)
(-0.00293805 0.326495 0.00516218)
(-0.000132292 0.030699 0.000215234)
(-0.000259483 0.010763 0.000113126)
(-0.000265498 0.0109556 -2.79443e-06)
(-0.000220147 0.010569 -0.000101893)
(-1.65325e-05 0.0104859 -0.000129344)
(1.53165e-05 0.010395 8.6774e-06)
(3.15868e-05 0.0102126 -7.65984e-06)
(4.6115e-05 0.0099817 2.46745e-05)
(5.55459e-05 0.0098038 1.14931e-05)
(5.00369e-05 0.00980668 -3.80564e-05)
(3.74428e-05 0.00983933 -8.58255e-05)
(2.43906e-05 0.00990552 -9.26261e-05)
(1.42188e-06 0.00998575 -5.84667e-05)
(1.63602e-06 0.010072 -1.58956e-05)
(9.96473e-06 0.0101493 7.34709e-06)
(-6.19256e-07 0.0101654 -6.33633e-08)
(-6.56018e-06 0.0101409 8.4429e-06)
(-1.03682e-05 0.0101259 9.98138e-06)
(-7.02946e-06 0.0101174 7.22382e-06)
(-3.7647e-06 0.0100863 4.66216e-06)
(-2.7773e-06 0.00999501 2.87206e-06)
(-2.70485e-06 0.00980989 2.09471e-06)
(-3.0704e-06 0.0094762 1.85515e-06)
(-2.8668e-06 0.00881189 1.16188e-06)
(-2.22537e-06 0.0076049 4.55184e-07)
(-1.30802e-06 0.00622145 8.41664e-07)
(-1.29608e-06 0.00542685 4.78494e-07)
(-1.92452e-06 0.00526268 6.86513e-08)
(-2.43235e-06 0.00526417 2.65291e-07)
(-5.16457e-07 0.000678104 5.25775e-07)
(-1.04832e-06 0.000678553 4.59909e-07)
(-2.34878e-06 0.000680596 3.21021e-07)
(-2.99497e-06 0.000681856 4.50221e-08)
(-3.86137e-06 0.000683075 -5.3781e-08)
(-4.24404e-06 0.000685215 -1.62137e-07)
(-4.30831e-06 0.000687644 -1.14994e-07)
(-4.06723e-06 0.000690454 -1.04473e-07)
(-3.55485e-06 0.000693169 -5.13627e-08)
(-3.05881e-06 0.000695569 -4.71642e-08)
(-2.47189e-06 0.00069764 -1.18509e-08)
(-2.03347e-06 0.000699313 -1.57409e-08)
(-1.59437e-06 0.000700686 5.48952e-09)
(-1.30074e-06 0.000701764 2.27133e-09)
(-1.03877e-06 0.000702665 1.53097e-08)
(-8.84902e-07 0.000703385 1.50544e-08)
(-7.75549e-07 0.000703977 2.41894e-08)
(-7.37416e-07 0.00070445 2.47329e-08)
(-7.44024e-07 0.000704832 3.36825e-08)
(-7.94312e-07 0.000705129 3.44588e-08)
(-8.80091e-07 0.000705364 4.30492e-08)
(-9.95351e-07 0.000705544 4.29629e-08)
(-1.13456e-06 0.000705683 5.24016e-08)
(-1.29701e-06 0.000705791 4.98674e-08)
(-1.47556e-06 0.00070588 6.04949e-08)
(-1.67495e-06 0.000705956 5.54654e-08)
(-1.88495e-06 0.000706033 6.64847e-08)
(-2.11386e-06 0.000706116 5.83014e-08)
(-2.3495e-06 0.000706225 6.95414e-08)
(-2.60385e-06 0.000706354 5.88021e-08)
(-2.86118e-06 0.000706531 7.00366e-08)
(-3.13495e-06 0.000706763 5.36877e-08)
(-3.41509e-06 0.000707047 6.15409e-08)
(-3.70181e-06 0.000707454 3.98387e-08)
(-4.00379e-06 0.000707891 4.35008e-08)
(-4.29264e-06 0.000708536 1.65437e-08)
(-4.61129e-06 0.000709171 1.4062e-08)
(-4.89144e-06 0.000710113 -1.70606e-08)
(-5.2233e-06 0.000710968 -2.86263e-08)
(-5.50059e-06 0.000712212 -6.35946e-08)
(-5.8648e-06 0.000713269 -9.13765e-08)
(-6.19432e-06 0.000714765 -1.31912e-07)
(-6.66357e-06 0.000715936 -1.74864e-07)
(-7.19906e-06 0.0007175 -2.06876e-07)
(-7.98614e-06 0.000718518 -1.97292e-07)
(-9.01444e-06 0.000719678 -8.50896e-08)
(-1.05531e-05 0.000720236 2.65117e-07)
(-1.29564e-05 0.000719138 1.07368e-06)
(-1.59844e-05 0.000780854 2.80004e-06)
(-1.58859e-05 0.00125996 6.06557e-06)
(-1.55846e-06 0.00226066 1.67542e-05)
(1.41045e-05 0.00313322 2.34619e-05)
(-1.06127e-05 0.003544 1.03031e-05)
(-1.39779e-05 0.00368879 -1.42475e-05)
(-2.55363e-05 0.00371295 4.15256e-05)
(6.93095e-05 0.00352283 6.43139e-05)
(0.000592489 0.00458747 0.00029637)
(0.000475545 0.00673913 0.000521454)
(-0.000217847 0.0131333 0.000426509)
(0.0015968 0.210626 0.0157491)
(-0.0136804 0.649216 -0.0174703)
(-0.0100203 0.524622 -0.0435326)
(-0.00676182 0.579828 -0.0269396)
(0.00147818 0.55069 0.00736491)
(-0.00175592 0.559941 0.0114133)
(-0.0010276 0.54747 0.00801048)
(0.000346663 0.535317 0.00902141)
(0.0033963 0.526154 0.0067561)
(0.00471611 0.489865 0.00334882)
(0.0030145 0.395673 -0.00228767)
(-0.000432615 0.195265 -0.000946376)
(-3.87766e-06 0.0284891 -0.000146599)
(-4.99876e-06 0.00497792 -0.000185693)
(2.51575e-05 0.00583354 -0.00023257)
(6.50269e-05 0.00741532 -0.000281383)
(0.000111813 0.00927015 -0.00031092)
(0.000411655 0.0103732 -0.000398949)
(0.000356425 0.0106449 -0.000617177)
(0.000357364 0.0108305 -4.39696e-05)
(0.000189162 0.010851 -0.000542862)
(5.09455e-05 0.0108882 -2.16616e-05)
(3.42006e-05 0.010812 -1.06245e-05)
(9.9849e-06 0.0106901 2.18094e-06)
(-5.52318e-06 0.0105939 1.01663e-05)
(-9.78142e-06 0.0105316 1.01368e-05)
(-8.95039e-06 0.0104052 7.27665e-06)
(-6.81443e-06 0.0100732 3.59985e-06)
(-5.80694e-06 0.00961843 2.22249e-06)
(-5.17263e-05 0.00922879 1.0935e-06)
(-6.88853e-06 0.00887379 3.37207e-06)
(-5.5158e-06 0.0083006 2.75461e-06)
(-4.55302e-06 0.00725367 1.19754e-06)
(-2.35344e-06 0.00604729 1.47776e-06)
(-1.93969e-06 0.00538332 1.58715e-06)
(-1.15806e-06 0.00526219 1.84041e-06)
(-1.34932e-06 0.00526311 2.4079e-06)
(-9.81817e-07 0.000670972 4.42879e-07)
(-1.54645e-06 0.000670657 3.33787e-07)
(-3.35555e-06 0.000673908 2.30738e-07)
(-3.78414e-06 0.000677544 -1.51308e-07)
(-4.79407e-06 0.000681022 -2.44665e-07)
(-5.0228e-06 0.00068481 -3.68429e-07)
(-5.00151e-06 0.00068774 -2.97757e-07)
(-4.64369e-06 0.000690919 -2.5225e-07)
(-4.02977e-06 0.000693805 -1.75168e-07)
(-3.46239e-06 0.000696237 -1.38418e-07)
(-2.801e-06 0.000698285 -8.86121e-08)
(-2.32902e-06 0.000699865 -7.87771e-08)
(-1.85165e-06 0.000701153 -4.38897e-08)
(-1.55324e-06 0.000702119 -4.40487e-08)
(-1.28551e-06 0.000702927 -2.14049e-08)
(-1.14794e-06 0.000703543 -2.00451e-08)
(-1.05207e-06 0.000704059 -7.72753e-09)
(-1.03954e-06 0.000704456 -2.87674e-09)
(-1.0677e-06 0.000704778 2.20481e-09)
(-1.14588e-06 0.000705027 8.86598e-09)
(-1.26072e-06 0.000705219 8.63287e-09)
(-1.40539e-06 0.000705365 1.68824e-08)
(-1.57755e-06 0.000705472 1.35611e-08)
(-1.76968e-06 0.000705554 2.07848e-08)
(-1.985e-06 0.000705615 1.33722e-08)
(-2.21657e-06 0.00070567 1.99374e-08)
(-2.46484e-06 0.000705723 8.36806e-09)
(-2.72477e-06 0.000705789 1.43691e-08)
(-2.9987e-06 0.000705875 -1.07416e-09)
(-3.28185e-06 0.000705988 4.8183e-09)
(-3.57519e-06 0.000706146 -1.4692e-08)
(-3.87189e-06 0.000706362 -1.18257e-08)
(-4.18044e-06 0.000706629 -4.02134e-08)
(-4.48021e-06 0.000707012 -4.10325e-08)
(-4.79724e-06 0.000707439 -7.84866e-08)
(-5.08201e-06 0.000708068 -8.34615e-08)
(-5.39601e-06 0.0007087 -1.3111e-07)
(-5.64592e-06 0.000709626 -1.40872e-07)
(-5.94423e-06 0.000710484 -1.99243e-07)
(-6.15585e-06 0.000711702 -2.17251e-07)
(-6.44909e-06 0.000712732 -2.94274e-07)
(-6.6721e-06 0.00071417 -3.32795e-07)
(-7.02509e-06 0.000715253 -4.27014e-07)
(-7.3969e-06 0.000716711 -4.82781e-07)
(-8.00768e-06 0.000717957 -5.10551e-07)
(-8.67902e-06 0.000721161 -3.94986e-07)
(-9.45014e-06 0.0007267 -9.28912e-08)
(-1.04172e-05 0.000740462 8.13254e-07)
(-1.04349e-05 0.000974674 3.58792e-06)
(-3.92386e-06 0.00176389 8.03866e-06)
(1.25575e-05 0.00279519 8.95934e-06)
(7.87343e-07 0.00333754 1.12132e-05)
(-5.51002e-06 0.00354497 -7.88568e-06)
(-4.08907e-05 0.00364333 -1.73279e-05)
(-6.79881e-05 0.0037591 3.97779e-05)
(-0.000101598 0.00366365 5.37706e-05)
(-6.33571e-05 0.00495519 -8.13217e-05)
(0.000109605 0.00644325 8.45654e-05)
(-2.77946e-05 0.0103428 0.000355772)
(-0.0168471 0.218975 0.0035261)
(-0.0110078 0.639595 -0.0298551)
(-0.00448955 0.532278 -0.0186971)
(-0.00870193 0.571458 -0.009173)
(-0.00276904 0.553996 0.0105126)
(0.00174412 0.553488 0.0132221)
(0.00346624 0.54689 0.00734316)
(0.00868019 0.538054 0.00902165)
(0.0100781 0.534696 0.00358752)
(0.00873436 0.517918 0.00102438)
(0.00357252 0.471944 -0.00394071)
(0.000238981 0.298529 -0.00628422)
(7.49001e-06 0.0276148 -0.00022866)
(2.91724e-06 0.00529086 -0.000335021)
(3.1347e-06 0.0054942 -0.000365282)
(1.57787e-05 0.0056653 -0.000398994)
(0.000197738 0.0280503 -0.000403187)
(-0.00188282 0.353453 -0.00216442)
(-0.00240194 0.533033 -0.0028919)
(0.000235089 0.512573 -0.00269104)
(0.000150879 0.388349 -0.00145401)
(0.000209612 0.0250855 -0.000372975)
(0.000113322 0.00913122 -0.000323384)
(-1.72992e-07 0.0103788 -0.000173944)
(-8.74816e-05 0.0110447 -9.9708e-05)
(-0.000112523 0.0107371 -0.000112622)
(-0.000106346 0.0102057 -0.000123797)
(-7.36042e-05 0.00979411 5.60678e-06)
(-2.41053e-06 0.0320321 6.41529e-05)
(7.85297e-05 0.240163 0.00019857)
(-4.2911e-06 0.0297875 -7.76949e-05)
(-9.9543e-06 0.00821542 1.11013e-05)
(-1.64104e-05 0.0085027 5.00215e-06)
(-2.11069e-05 0.00790439 4.42359e-06)
(-3.3353e-05 0.00686535 1.05985e-06)
(-5.91126e-05 0.00593491 -3.08921e-06)
(-9.40335e-06 0.00533999 1.60632e-06)
(-1.6632e-06 0.000661519 1.15689e-06)
(-2.33096e-06 0.000661335 2.02978e-07)
(-4.49878e-06 0.000665077 9.92582e-08)
(-4.60874e-06 0.000670773 -3.54281e-07)
(-5.52396e-06 0.000677279 -3.52433e-07)
(-5.53468e-06 0.000683722 -5.82411e-07)
(-5.44853e-06 0.000687768 -4.77878e-07)
(-4.98129e-06 0.000691461 -4.25078e-07)
(-4.34473e-06 0.000694497 -3.24691e-07)
(-3.70035e-06 0.000696911 -2.52181e-07)
(-3.0339e-06 0.000698937 -1.9498e-07)
(-2.5383e-06 0.000700415 -1.59247e-07)
(-2.07167e-06 0.000701612 -1.23569e-07)
(-1.78432e-06 0.000702461 -1.11084e-07)
(-1.53547e-06 0.000703178 -8.94249e-08)
(-1.42035e-06 0.000703697 -8.4138e-08)
(-1.34693e-06 0.000704148 -7.19278e-08)
(-1.35691e-06 0.000704475 -6.84186e-08)
(-1.4082e-06 0.000704751 -6.02129e-08)
(-1.5062e-06 0.000704958 -5.93541e-08)
(-1.64136e-06 0.000705119 -5.53236e-08)
(-1.80301e-06 0.000705236 -5.77185e-08)
(-1.9953e-06 0.000705322 -5.59347e-08)
(-2.2066e-06 0.000705379 -6.43186e-08)
(-2.43765e-06 0.000705421 -6.25861e-08)
(-2.67922e-06 0.000705457 -7.26322e-08)
(-2.93786e-06 0.000705498 -7.17142e-08)
(-3.20297e-06 0.000705548 -8.60984e-08)
(-3.48219e-06 0.000705623 -8.7122e-08)
(-3.76361e-06 0.000705725 -1.06002e-07)
(-4.05289e-06 0.000705875 -1.1038e-07)
(-4.33565e-06 0.000706077 -1.35669e-07)
(-4.62598e-06 0.000706343 -1.46465e-07)
(-4.8948e-06 0.000706708 -1.7834e-07)
(-5.17155e-06 0.00070714 -1.95328e-07)
(-5.40085e-06 0.000707756 -2.32596e-07)
(-5.64254e-06 0.000708404 -2.59744e-07)
(-5.80026e-06 0.000709346 -3.02035e-07)
(-5.98356e-06 0.000710224 -3.41241e-07)
(-6.05188e-06 0.000711425 -3.88011e-07)
(-6.18134e-06 0.000712448 -4.58114e-07)
(-6.19165e-06 0.000713823 -5.22126e-07)
(-6.31123e-06 0.000714803 -6.33371e-07)
(-6.40071e-06 0.000716616 -7.2255e-07)
(-6.90595e-06 0.000721311 -7.75793e-07)
(-7.07523e-06 0.000731937 -6.50824e-07)
(-5.92883e-06 0.000743067 -3.00718e-07)
(-3.63648e-06 0.000781947 9.85733e-07)
(9.71153e-07 0.00115375 4.94721e-06)
(1.37456e-05 0.00204828 9.42208e-06)
(1.38333e-05 0.00282012 2.01002e-06)
(-1.11558e-05 0.00300016 -8.29614e-06)
(-3.76925e-06 0.00298922 -1.27542e-07)
(-4.63804e-06 0.00303006 2.78928e-05)
(9.98023e-07 0.00324937 6.67525e-05)
(-5.59956e-05 0.00342329 0.000104442)
(-0.000268112 0.00537533 1.34354e-05)
(-0.000347709 0.00687682 -3.66442e-05)
(-0.000304873 0.0146561 0.000535393)
(-0.0147352 0.187378 0.0132983)
(-0.00494563 0.637823 -0.0280835)
(0.0082817 0.550312 -0.0513829)
(-0.00481916 0.575336 -0.0180616)
(-0.00060786 0.54895 0.0125528)
(0.00849242 0.55011 0.0113696)
(0.0133042 0.548196 0.004078)
(0.0147006 0.540278 0.00477658)
(0.0144063 0.540722 0.00382587)
(0.0109981 0.525921 0.00515994)
(0.0057958 0.482564 0.00189985)
(0.00447902 0.317492 0.00135906)
(8.55939e-05 0.0297919 -0.000242767)
(4.72894e-05 0.00705264 -0.000467828)
(0.000136047 0.00684507 -0.000448884)
(0.000147268 0.0280303 -0.000331225)
(-0.00290471 0.330533 -0.00423053)
(-0.00626509 0.530392 -0.00694354)
(-0.00600485 0.539158 -0.00630624)
(-0.00608661 0.53982 -0.00763705)
(-0.00369462 0.543211 -0.00611026)
(-0.00373882 0.540011 -0.00229145)
(-0.00152752 0.536642 0.00282204)
(0.000698333 0.535688 0.0025237)
(0.00239129 0.533272 -0.00197905)
(0.0042602 0.536505 -0.00406684)
(0.00325461 0.538563 -0.00269502)
(0.00404135 0.544936 -0.00243776)
(0.00150515 0.548146 0.000205633)
(0.00056495 0.540543 0.000809321)
(0.000116609 0.538249 0.000527357)
(0.000196218 0.538323 -1.63776e-05)
(0.000410271 0.531749 -0.000716852)
(0.000988788 0.515969 0.00133536)
(0.00141777 0.47038 0.00239093)
(0.0005121 0.305383 -0.0034942)
(1.86944e-05 0.027605 -2.5426e-05)
(-2.50663e-06 0.000656524 2.29985e-07)
(-4.00526e-06 0.000655515 8.0631e-08)
(-5.83426e-06 0.00065784 -2.03267e-07)
(-5.58839e-06 0.000663691 -3.67699e-07)
(-6.06613e-06 0.000671729 -3.42623e-07)
(-5.8187e-06 0.000681198 -5.83034e-07)
(-5.62294e-06 0.000687298 -5.53147e-07)
(-5.08965e-06 0.000691845 -4.77375e-07)
(-4.40134e-06 0.000695046 -3.76538e-07)
(-3.73459e-06 0.000697439 -2.74914e-07)
(-3.09183e-06 0.000699416 -2.37931e-07)
(-2.59863e-06 0.000700757 -1.82426e-07)
(-2.16088e-06 0.000701846 -1.63976e-07)
(-1.89341e-06 0.000702568 -1.41022e-07)
(-1.6782e-06 0.000703192 -1.33489e-07)
(-1.58785e-06 0.000703619 -1.24938e-07)
(-1.53972e-06 0.000704002 -1.21402e-07)
(-1.57281e-06 0.000704273 -1.17522e-07)
(-1.64042e-06 0.000704501 -1.15754e-07)
(-1.75706e-06 0.000704663 -1.13371e-07)
(-1.90126e-06 0.000704784 -1.15748e-07)
(-2.07433e-06 0.000704866 -1.15352e-07)
(-2.26767e-06 0.000704917 -1.20717e-07)
(-2.48302e-06 0.000704952 -1.19914e-07)
(-2.70719e-06 0.000704976 -1.28221e-07)
(-2.94688e-06 0.000704996 -1.31243e-07)
(-3.19156e-06 0.00070502 -1.43088e-07)
(-3.44813e-06 0.000705058 -1.48485e-07)
(-3.7027e-06 0.00070512 -1.64253e-07)
(-3.96511e-06 0.000705213 -1.73055e-07)
(-4.21589e-06 0.000705357 -1.96109e-07)
(-4.46713e-06 0.00070556 -2.12299e-07)
(-4.69993e-06 0.000705828 -2.4102e-07)
(-4.91769e-06 0.000706203 -2.63816e-07)
(-5.10979e-06 0.000706653 -3.02096e-07)
(-5.26053e-06 0.000707279 -3.367e-07)
(-5.37989e-06 0.000707959 -3.84257e-07)
(-5.41899e-06 0.000708919 -4.2907e-07)
(-5.4312e-06 0.000709854 -4.82555e-07)
(-5.32722e-06 0.000711079 -5.41998e-07)
(-5.1987e-06 0.000712157 -6.1467e-07)
(-4.96167e-06 0.000713527 -7.07781e-07)
(-4.67297e-06 0.000714397 -7.72999e-07)
(-4.42618e-06 0.000718231 -8.37107e-07)
(-4.38351e-06 0.000730639 -6.45386e-07)
(-4.50182e-06 0.00075865 -4.21055e-07)
(-3.29531e-06 0.000808855 -5.31904e-07)
(7.01753e-07 0.000869871 -1.96754e-07)
(9.70392e-06 0.00110703 2.30897e-06)
(1.98794e-05 0.00173989 4.82364e-06)
(1.43037e-05 0.00232649 1.68334e-06)
(6.76909e-06 0.00246722 -1.49642e-07)
(1.91762e-05 0.00241014 3.04391e-05)
(2.761e-05 0.00230384 1.32962e-05)
(-1.059e-05 0.00243422 2.5198e-05)
(5.33899e-05 0.00253221 8.34392e-05)
(-6.80366e-05 0.00439205 0.000445816)
(-0.000632169 0.00646345 0.000568872)
(0.000848702 0.0165811 -0.00094235)
(-0.018813 0.158464 0.0186908)
(0.00992709 0.643043 -0.056048)
(0.00731426 0.544427 -0.0551507)
(0.00398439 0.574316 -0.0111041)
(0.00237692 0.543487 0.00933414)
(0.0105538 0.550267 0.00352856)
(0.011892 0.541194 0.0015784)
(0.0112418 0.542182 0.00118917)
(0.0101747 0.547317 0.00717503)
(0.0103654 0.546665 0.011967)
(0.011103 0.545697 0.0144193)
(0.0073221 0.534958 0.0129382)
(0.00216174 0.496392 0.00579605)
(-0.000118795 0.361696 0.00114052)
(0.000577966 0.165406 -0.000204609)
(0.00139839 0.228758 0.000383597)
(0.000354527 0.0297562 2.23287e-06)
(0.000360548 0.00888333 -0.000144478)
(0.00036828 0.00935505 -0.000188414)
(0.000335798 0.00953419 -0.000278162)
(0.000293207 0.00967333 -0.000289942)
(0.000232527 0.00992698 -0.000279751)
(0.000194468 0.0102432 -0.000222615)
(0.0001389 0.0105081 -0.000266416)
(0.000104725 0.0107399 -0.000313788)
(5.31997e-05 0.0109822 -0.000346566)
(-4.41477e-05 0.0112535 -0.000437401)
(-8.53461e-05 0.0115148 -0.000468873)
(-0.000111376 0.0118203 -0.000464737)
(-0.000157069 0.0121261 -0.000458851)
(-0.000175042 0.0124085 -0.000462574)
(-0.000204095 0.0127205 -0.000490966)
(-0.000248936 0.0128403 -0.000417982)
(-0.000223904 0.0344393 -0.000182524)
(-0.00186376 0.288632 -0.00647626)
(-0.000810055 0.334976 -0.0039346)
(-0.00139767 0.286147 -0.00661259)