/*--------------------------------*- C++ -*----------------------------------*\
| =========                 |                                                 |
| \\      /  F ield         | OpenFOAM: The Open Source CFD Toolbox           |
|  \\    /   O peration     | Version:  2.3.0                                 |
|   \\  /    A nd           | Web:      www.OpenFOAM.org                      |
|    \\/     M anipulation  |                                                 |
\*---------------------------------------------------------------------------*/
FoamFile
{
    version     2.0;
    format      ascii;
    class       volScalarField;
    location    "5";
    object      w1;
}
// * * * * * * * * * * * * * * * * * * * * * * * * * * * * * * * * * * * * * //

dimensions      [0 0 0 0 0 0 0];

internalField   nonuniform List<scalar> 
6144
(
0.518788
0.518788
0.518788
0.518788
0.518788
0.518788
0.518788
0.518788
0.518788
0.518788
0.518788
0.518788
0.518788
0.518788
0.518788
0.518788
0.518788
0.518788
0.518788
0.518788
0.518788
0.518788
0.518788
0.518788
0.518788
0.518788
0.518788
0.518788
0.518788
0.518788
0.518788
0.518788
0.518788
0.518788
0.518788
0.518788
0.518788
0.518788
0.518788
0.518788
0.518788
0.518788
0.518788
0.518788
0.518788
0.518788
0.518788
0.518788
0.518788
0.518788
0.518788
0.518788
0.518788
0.518788
0.518788
0.518788
0.518786
0.518543
0.47884
0.495679
0.81047
0.998653
0.999993
0.998084
0.998073
0.970847
0.983823
0.976439
0.990826
0.987169
0.958992
0.966374
0.964305
0.988415
0.994723
0.99595
0.995543
0.990396
0.977928
0.968353
0.960217
0.95588
0.966075
0.977112
0.967796
0.960091
0.963109
0.938439
0.976795
0.995367
0.998244
0.999086
0.99936
0.999059
0.983064
0.999858
0.518788
0.518788
0.518788
0.518788
0.518788
0.518788
0.518788
0.518788
0.518788
0.518788
0.518788
0.518788
0.518788
0.518788
0.518788
0.518788
0.518788
0.518788
0.518788
0.518788
0.518788
0.518788
0.518788
0.518788
0.518788
0.518788
0.518788
0.518788
0.518788
0.518788
0.518788
0.518788
0.518788
0.518788
0.518788
0.518788
0.518788
0.518788
0.518788
0.518788
0.518788
0.518788
0.518788
0.518788
0.518788
0.518788
0.518788
0.518788
0.518788
0.518788
0.518788
0.518788
0.518788
0.518788
0.518788
0.518788
0.518784
0.517812
0.475407
0.478002
0.840842
0.999626
0.999994
0.999243
0.999082
0.990344
0.98513
0.986014
0.988879
0.941254
0.992437
0.986948
0.990255
0.993254
0.987665
0.997654
0.996455
0.960459
0.829759
0.872814
0.926227
0.937405
0.403864
0.833778
0.740267
0.739902
0.838683
0.944442
0.986401
0.995842
0.998312
0.999118
0.999392
0.999155
0.993808
0.999861
0.518788
0.518788
0.518788
0.518788
0.518788
0.518788
0.518788
0.518788
0.518788
0.518788
0.518788
0.518788
0.518788
0.518788
0.518788
0.518788
0.518788
0.518788
0.518788
0.518788
0.518788
0.518788
0.518788
0.518788
0.518788
0.518788
0.518788
0.518788
0.518788
0.518788
0.518788
0.518788
0.518788
0.518788
0.518788
0.518788
0.518788
0.518788
0.518788
0.518788
0.518788
0.518788
0.518788
0.518788
0.518788
0.518788
0.518788
0.518788
0.518788
0.518788
0.518788
0.518788
0.518788
0.518788
0.518788
0.518788
0.518787
0.518818
0.504694
0.548595
0.162109
0.999993
0.999993
0.999069
0.998926
0.997387
0.997804
0.996726
0.993915
0.94829
0.99312
0.992612
0.992607
0.997913
0.997327
0.98214
0.97262
0.953484
0.930846
0.964807
0.970521
0.972931
0.97892
0.976928
0.964013
0.950931
0.955792
0.640372
0.982465
0.995451
0.9982
0.999073
0.999366
0.999098
0.987733
0.999859
0.518788
0.518788
0.518788
0.518788
0.518788
0.518788
0.518788
0.518788
0.518788
0.518788
0.518788
0.518788
0.518788
0.518788
0.518788
0.518788
0.518788
0.518788
0.518788
0.518788
0.518788
0.518788
0.518788
0.518788
0.518788
0.518788
0.518788
0.518788
0.518788
0.518788
0.518788
0.518788
0.518788
0.518788
0.518788
0.518788
0.518788
0.518788
0.518788
0.518788
0.518788
0.518788
0.518788
0.518788
0.518788
0.518788
0.518788
0.518788
0.518788
0.518788
0.518788
0.518788
0.518788
0.518788
0.518788
0.518788
0.518787
0.518785
0.516902
0.462416
0.0836421
0.999957
0.999992
0.999732
0.989085
0.999033
0.99855
0.998712
0.999122
0.999117
0.999411
0.999469
0.99951
0.999498
0.999424
0.999286
0.999031
0.99857
0.998238
0.975619
0.974822
0.970695
0.975819
0.955272
0.968415
0.975798
0.975562
0.883075
0.97808
0.994938
0.998157
0.999083
0.999386
0.999199
0.994766
0.999861
0.518788
0.518788
0.518788
0.518788
0.518788
0.518788
0.518788
0.518788
0.518788
0.518788
0.518788
0.518788
0.518788
0.518788
0.518788
0.518788
0.518788
0.518788
0.518788
0.518788
0.518788
0.518788
0.518788
0.518788
0.518788
0.518788
0.518788
0.518788
0.518788
0.518788
0.518788
0.518788
0.518788
0.518788
0.518788
0.518788
0.518788
0.518788
0.518788
0.518788
0.518788
0.518788
0.518788
0.518788
0.518788
0.518788
0.518788
0.518788
0.518788
0.518788
0.518788
0.518788
0.518788
0.518788
0.518788
0.518788
0.518787
0.518791
0.518759
0.482339
0.913079
0.986782
0.995889
0.990656
0.99826
0.999188
0.99924
0.937307
0.989528
0.995543
0.995395
0.996126
0.996756
0.998961
0.999652
0.999953
0.999912
0.999918
0.999987
0.999991
0.98508
0.99631
0.998622
0.998548
0.99562
0.995673
0.998196
0.992497
0.983411
0.993231
0.997958
0.999034
0.999355
0.999081
0.980584
0.99986
0.518788
0.518788
0.518788
0.518788
0.518788
0.518788
0.518788
0.518788
0.518788
0.518788
0.518788
0.518788
0.518788
0.518788
0.518788
0.518788
0.518788
0.518788
0.518788
0.518788
0.518788
0.518788
0.518788
0.518788
0.518788
0.518788
0.518788
0.518788
0.518788
0.518788
0.518788
0.518788
0.518788
0.518788
0.518788
0.518788
0.518788
0.518788
0.518788
0.518788
0.518788
0.518788
0.518788
0.518788
0.518788
0.518788
0.518788
0.518788
0.518788
0.518788
0.518788
0.518788
0.518788
0.518788
0.518788
0.518788
0.518788
0.518788
0.518773
0.456623
0.000248691
0.0274544
2.03693e-06
0.000769126
0.356582
0.000351771
0.742551
0.0738084
7.8652e-11
0.908975
0.395529
0.67463
0.00650112
0.823617
0.000234422
0.00396859
0.749049
0.815983
0.111426
0.737817
0.0106615
0.973762
0.988232
0.997172
0.98721
0.999677
0.999947
0.99999
0.999992
0.999033
0.981702
0.998378
0.998984
0.999043
0.999398
0.999886
0.518788
0.518788
0.518788
0.518788
0.518788
0.518788
0.518788
0.518788
0.518788
0.518788
0.518788
0.518788
0.518788
0.518788
0.518788
0.518788
0.518788
0.518788
0.518788
0.518788
0.518788
0.518788
0.518788
0.518788
0.518788
0.518788
0.518788
0.518788
0.518788
0.518788
0.518788
0.518788
0.518788
0.518788
0.518788
0.518788
0.518788
0.518788
0.518788
0.518788
0.518788
0.518788
0.518788
0.518788
0.518788
0.518788
0.518788
0.518788
0.518788
0.518788
0.518788
0.518788
0.518788
0.518788
0.518788
0.518788
0.518789
0.518739
0.520973
0.447034
0.925704
0.145555
0.00175915
0.136367
0.794973
0.542549
4.14242e-06
0.0964232
0.000109685
0.015472
0.0840079
0.0641246
1.38524e-07
0.0490153
0.765774
0.110275
1.14691e-06
0.0879008
0.610314
0.76267
0.391535
8.93427e-14
0.914638
0.748831
0.956581
0.12413
9.59373e-06
0.000426994
0.966448
0.981349
0.991567
0.993496
0.998523
0.999824
0.999914
0.999996
0.518788
0.518788
0.518788
0.518788
0.518788
0.518788
0.518788
0.518788
0.518788
0.518788
0.518788
0.518788
0.518788
0.518788
0.518788
0.518788
0.518788
0.518788
0.518788
0.518788
0.518788
0.518788
0.518788
0.518788
0.518788
0.518788
0.518788
0.518788
0.518788
0.518788
0.518788
0.518788
0.518788
0.518788
0.518788
0.518788
0.518788
0.518788
0.518788
0.518788
0.518788
0.518788
0.518788
0.518788
0.518788
0.518788
0.518788
0.518788
0.518788
0.518788
0.518788
0.518788
0.518788
0.518788
0.518788
0.518788
0.518786
0.518931
0.516081
0.464045
0.817717
0.00801472
0.00088564
0.593872
3.0975e-08
0.151
0.238728
0.000184218
0.130565
0.717618
0.0504006
0.504249
0.34746
0.52505
0.615165
0.27718
0.199763
6.29679e-08
0.000468932
0.308216
0.578526
0.518945
0.660469
0.676556
0.376102
0.00127005
0.631915
3.03454e-09
0.039339
0.000206765
0.947005
0.401308
0.628718
0.000947977
0.0368697
0.0552271
0.518788
0.518788
0.518788
0.518788
0.518788
0.518788
0.518788
0.518788
0.518788
0.518788
0.518788
0.518788
0.518788
0.518788
0.518788
0.518788
0.518788
0.518788
0.518788
0.518788
0.518788
0.518788
0.518788
0.518788
0.518788
0.518788
0.518788
0.518788
0.518788
0.518788
0.518788
0.518788
0.518788
0.518788
0.518788
0.518788
0.518788
0.518788
0.518788
0.518788
0.518788
0.518788
0.518788
0.518788
0.518788
0.518788
0.518788
0.518788
0.518788
0.518788
0.518788
0.518788
0.518788
0.518788
0.518788
0.518787
0.518826
0.519841
0.516071
0.455969
1.68919e-06
0.025016
0.564261
0.76648
0.475612
0.000922414
0.287654
0.146499
0.913922
0.851958
0.792014
0.679289
0.343632
0.000222982
0.0799118
0.92261
3.55062e-07
0.128689
3.7476e-07
0.708568
0.583128
0.82975
0.893111
0.000973632
0.878414
0.874707
0.924491
0.924249
0.937151
0.861441
0.955447
0.991051
0.999681
1.03393e-14
0.999996
0.999877
0.518788
0.518788
0.518788
0.518788
0.518788
0.518788
0.518788
0.518788
0.518788
0.518788
0.518788
0.518788
0.518788
0.518788
0.518788
0.518788
0.518788
0.518788
0.518788
0.518788
0.518788
0.518788
0.518788
0.518788
0.518788
0.518788
0.518788
0.518788
0.518788
0.518788
0.518788
0.518788
0.518788
0.518788
0.518788
0.518788
0.518788
0.518788
0.518788
0.518788
0.518788
0.518788
0.518788
0.518788
0.518788
0.518788
0.518788
0.518788
0.518788
0.518788
0.518788
0.518788
0.518788
0.518788
0.518788
0.518788
0.518787
0.518821
0.517052
0.422655
0.949968
2.15368e-05
0.990895
0.999942
0.999989
0.999996
0.999467
0.99572
0.998521
0.997673
0.952854
0.998918
0.998302
0.996031
0.999341
0.999542
0.999111
0.000185005
0.996041
0.998771
0.996846
0.999692
0.99931
0.999619
0.99955
0.999613
0.99971
0.999769
0.999775
0.99969
0.999676
0.999677
0.999719
0.99975
0.971867
0.999861
0.518788
0.518788
0.518788
0.518788
0.518788
0.518788
0.518788
0.518788
0.518788
0.518788
0.518788
0.518788
0.518788
0.518788
0.518788
0.518788
0.518788
0.518788
0.518788
0.518788
0.518788
0.518788
0.518788
0.518788
0.518788
0.518788
0.518788
0.518788
0.518788
0.518788
0.518788
0.518788
0.518788
0.518788
0.518788
0.518788
0.518788
0.518788
0.518788
0.518788
0.518788
0.518788
0.518788
0.518788
0.518788
0.518788
0.518788
0.518788
0.518788
0.518788
0.518788
0.518788
0.518788
0.518788
0.518788
0.518788
0.518787
0.520761
0.460936
0.482134
0.523027
0.999994
0.999909
0.996074
0.998764
0.996902
0.997255
0.985044
0.992768
0.994929
0.995997
0.994933
0.993188
0.988872
0.971964
0.533785
0.974504
0.98434
0.810674
0.965161
0.961598
0.925248
0.91854
0.935402
0.950648
0.965919
0.985621
0.994662
0.997402
0.998409
0.998837
0.998969
0.998747
0.995782
0.993293
0.999857
0.518788
0.518788
0.518788
0.518788
0.518788
0.518788
0.518788
0.518788
0.518788
0.518788
0.518788
0.518788
0.518788
0.518788
0.518788
0.518788
0.518788
0.518788
0.518788
0.518788
0.518788
0.518788
0.518788
0.518788
0.518788
0.518788
0.518788
0.518788
0.518788
0.518788
0.518788
0.518788
0.518788
0.518788
0.518788
0.518788
0.518788
0.518788
0.518788
0.518788
0.518788
0.518788
0.518788
0.518788
0.518788
0.518788
0.518788
0.518788
0.518788
0.518788
0.518788
0.518788
0.518788
0.518788
0.518788
0.518788
0.518787
0.518746
0.521637
0.454331
0.534218
0.999995
0.999136
0.997857
0.997539
0.998966
0.995901
0.991024
0.984605
0.971356
0.442392
0.383032
0.579018
0.98226
0.996162
0.997903
0.997714
0.991945
0.98741
0.946311
0.975611
0.980098
0.976914
0.975055
0.975297
0.964467
0.868699
0.991338
0.996874
0.998373
0.998916
0.999067
0.998907
0.996963
0.99128
0.999858
0.518788
0.518788
0.518788
0.518788
0.518788
0.518788
0.518788
0.518788
0.518788
0.518788
0.518788
0.518788
0.518788
0.518788
0.518788
0.518788
0.518788
0.518788
0.518788
0.518788
0.518788
0.518788
0.518788
0.518788
0.518788
0.518788
0.518788
0.518788
0.518788
0.518788
0.518788
0.518788
0.518788
0.518788
0.518788
0.518788
0.518788
0.518788
0.518788
0.518788
0.518788
0.518788
0.518788
0.518788
0.518788
0.518788
0.518788
0.518788
0.518788
0.518788
0.518788
0.518788
0.518788
0.518788
0.518788
0.518788
0.518785
0.518786
0.518747
0.38716
0.855467
0.999983
0.999993
0.998815
0.999118
0.997491
0.951112
0.972542
0.928067
0.976344
0.975457
0.975271
0.957989
0.89298
0.968682
0.990286
0.997516
0.998458
0.991993
0.985114
0.8855
0.913459
0.795271
0.911941
0.865457
0.949298
0.982882
0.993814
0.997267
0.9985
0.998971
0.9991
0.998929
0.996847
0.990908
0.999858
0.518788
0.518788
0.518788
0.518788
0.518788
0.518788
0.518788
0.518788
0.518788
0.518788
0.518788
0.518788
0.518788
0.518788
0.518788
0.518788
0.518788
0.518788
0.518788
0.518788
0.518788
0.518788
0.518788
0.518788
0.518788
0.518788
0.518788
0.518788
0.518788
0.518788
0.518788
0.518788
0.518788
0.518788
0.518788
0.518788
0.518788
0.518788
0.518788
0.518788
0.518788
0.518788
0.518788
0.518788
0.518788
0.518788
0.518788
0.518788
0.518788
0.518788
0.518788
0.518788
0.518788
0.518788
0.518788
0.518788
0.518784
0.518786
0.518724
0.446495
0.807459
0.999545
0.999993
0.999341
0.999002
0.998077
0.997691
0.991027
0.986722
0.98984
0.986603
0.953025
0.99097
0.991899
0.951759
0.986482
0.966832
0.997764
0.997339
0.919104
0.967048
0.810637
0.683071
0.872368
0.921105
0.936781
0.977991
0.9931
0.997247
0.998554
0.999021
0.999169
0.999061
0.998111
0.993781
0.999863
0.518788
0.518788
0.518788
0.518788
0.518788
0.518788
0.518788
0.518788
0.518788
0.518788
0.518788
0.518788
0.518788
0.518788
0.518788
0.518788
0.518788
0.518788
0.518788
0.518788
0.518788
0.518788
0.518788
0.518788
0.518788
0.518788
0.518788
0.518788
0.518788
0.518788
0.518788
0.518788
0.518788
0.518788
0.518788
0.518788
0.518788
0.518788
0.518788
0.518788
0.518788
0.518788
0.518788
0.518788
0.518788
0.518788
0.518788
0.518788
0.518788
0.518788
0.518788
0.518788
0.518788
0.518788
0.518788
0.518788
0.518783
0.518786
0.514497
0.39712
0.874627
0.998477
0.999994
0.999211
0.999192
0.995469
0.995971
0.986434
0.97518
0.976933
0.993973
0.99435
0.991706
0.970429
0.925507
0.976562
0.99536
0.997855
0.996571
0.966168
0.908409
0.763326
0.956082
0.973481
0.977811
0.978124
0.950874
0.986206
0.996526
0.998384
0.998945
0.999082
0.998891
0.996538
0.992365
0.999857
0.518788
0.518788
0.518788
0.518788
0.518788
0.518788
0.518788
0.518788
0.518788
0.518788
0.518788
0.518788
0.518788
0.518788
0.518788
0.518788
0.518788
0.518788
0.518788
0.518788
0.518788
0.518788
0.518788
0.518788
0.518788
0.518788
0.518788
0.518788
0.518788
0.518788
0.518788
0.518788
0.518788
0.518788
0.518788
0.518788
0.518788
0.518788
0.518788
0.518788
0.518788
0.518788
0.518788
0.518788
0.518788
0.518788
0.518788
0.518788
0.518788
0.518788
0.518788
0.518788
0.518788
0.518788
0.518788
0.518789
0.518783
0.518783
0.519004
0.449293
0.802359
0.019225
0.999992
0.998384
0.987798
0.995481
0.991421
0.996194
0.993632
0.989245
0.99174
0.988377
0.98827
0.978243
0.899746
0.985438
0.972048
0.99718
0.997415
0.978195
0.9579
0.976645
0.976785
0.976726
0.979386
0.979876
0.970072
0.976644
0.996031
0.998321
0.998939
0.99909
0.998945
0.996828
0.994642
0.999856
0.518788
0.518788
0.518788
0.518788
0.518788
0.518788
0.518788
0.518788
0.518788
0.518788
0.518788
0.518788
0.518788
0.518788
0.518788
0.518788
0.518788
0.518788
0.518788
0.518788
0.518788
0.518788
0.518788
0.518788
0.518788
0.518788
0.518788
0.518788
0.518788
0.518788
0.518788
0.518788
0.518788
0.518788
0.518788
0.518788
0.518788
0.518788
0.518788
0.518788
0.518788
0.518788
0.518788
0.518788
0.518788
0.518788
0.518788
0.518788
0.518788
0.518788
0.518788
0.518788
0.518788
0.518788
0.518788
0.518788
0.518787
0.516931
0.468868
0.477171
0.814074
0.996733
0.999992
0.999986
0.997919
0.972874
0.990926
0.976025
0.955931
0.000889169
0.140243
0.0655266
0.979897
0.976737
0.991658
0.989697
0.84946
0.98698
0.994468
0.989712
0.8674
0.967453
0.948889
0.860995
0.89967
0.906743
0.845349
0.810687
0.983761
0.995751
0.998316
0.999114
0.99938
0.999107
0.99149
0.99986
0.518788
0.518788
0.518788
0.518788
0.518788
0.518788
0.518788
0.518788
0.518788
0.518788
0.518788
0.518788
0.518788
0.518788
0.518788
0.518788
0.518788
0.518788
0.518788
0.518788
0.518788
0.518788
0.518788
0.518788
0.518788
0.518788
0.518788
0.518788
0.518788
0.518788
0.518788
0.518788
0.518788
0.518788
0.518788
0.518788
0.518788
0.518788
0.518788
0.518788
0.518788
0.518788
0.518788
0.518788
0.518788
0.518788
0.518788
0.518788
0.518788
0.518788
0.518788
0.518788
0.518788
0.518788
0.518788
0.518788
0.518787
0.518743
0.51908
0.46338
0.871185
0.999733
0.999994
0.999493
0.998781
0.997321
0.99321
0.994366
0.990805
0.976242
0.9906
0.975418
0.989658
0.993814
0.970199
0.989428
0.991939
0.994246
0.993971
0.927526
0.979311
0.978354
0.973736
0.963685
0.959536
0.961559
0.964491
0.978678
0.990736
0.996406
0.998414
0.999142
0.999402
0.99916
0.994585
0.999861
0.518788
0.518788
0.518788
0.518788
0.518788
0.518788
0.518788
0.518788
0.518788
0.518788
0.518788
0.518788
0.518788
0.518788
0.518788
0.518788
0.518788
0.518788
0.518788
0.518788
0.518788
0.518788
0.518788
0.518788
0.518788
0.518788
0.518788
0.518788
0.518788
0.518788
0.518788
0.518788
0.518788
0.518788
0.518788
0.518788
0.518788
0.518788
0.518788
0.518788
0.518788
0.518788
0.518788
0.518788
0.518788
0.518788
0.518788
0.518788
0.518788
0.518788
0.518788
0.518788
0.518788
0.518788
0.518788
0.518788
0.518788
0.518783
0.537172
0.437352
0.665449
0.999997
0.997881
0.997606
0.998975
0.996235
0.996173
0.992389
0.950484
0.988203
0.991966
0.986777
0.971954
0.986464
0.973305
0.989846
0.979878
0.980507
0.990498
0.986686
0.955247
0.638632
0.94817
0.939712
0.932105
0.836343
0.854597
0.936171
0.969645
0.994982
0.998195
0.99909
0.999371
0.999076
0.983092
0.999859
0.518788
0.518788
0.518788
0.518788
0.518788
0.518788
0.518788
0.518788
0.518788
0.518788
0.518788
0.518788
0.518788
0.518788
0.518788
0.518788
0.518788
0.518788
0.518788
0.518788
0.518788
0.518788
0.518788
0.518788
0.518788
0.518788
0.518788
0.518788
0.518788
0.518788
0.518788
0.518788
0.518788
0.518788
0.518788
0.518788
0.518788
0.518788
0.518788
0.518788
0.518788
0.518788
0.518788
0.518788
0.518788
0.518788
0.518788
0.518788
0.518788
0.518788
0.518788
0.518788
0.518788
0.518788
0.518788
0.518788
0.518787
0.518792
0.518393
0.486911
0.284037
7.24302e-07
0.992161
0.99999
0.99886
0.99931
0.992991
0.996068
0.993633
0.996054
0.997541
0.998343
0.998913
0.998905
0.999082
0.99933
0.999352
0.999288
0.999082
0.998631
0.997987
0.997673
0.991098
0.976226
0.911579
0.936388
0.864994
0.966862
0.987528
0.995295
0.998097
0.99907
0.999398
0.999227
0.995787
0.999861
0.518788
0.518788
0.518788
0.518788
0.518788
0.518788
0.518788
0.518788
0.518788
0.518788
0.518788
0.518788
0.518788
0.518788
0.518788
0.518788
0.518788
0.518788
0.518788
0.518788
0.518788
0.518788
0.518788
0.518788
0.518788
0.518788
0.518788
0.518788
0.518788
0.518788
0.518788
0.518788
0.518788
0.518788
0.518788
0.518788
0.518788
0.518788
0.518788
0.518788
0.518788
0.518788
0.518788
0.518788
0.518788
0.518788
0.518788
0.518788
0.518788
0.518788
0.518788
0.518788
0.518788
0.518788
0.518788
0.518788
0.518788
0.51878
0.5187
0.451219
0.783259
0.757531
3.30114e-05
0.0909445
0.989907
0.99098
0.997859
0.0611296
0.975423
0.95458
0.96194
0.99154
0.989763
0.997291
3.1843e-05
0.00567172
0.919309
0.998518
0.999855
0.999969
0.999956
0.999986
0.999989
0.99938
0.969487
0.998592
0.999136
0.999052
0.993889
0.996164
0.99799
0.998942
0.999288
0.999063
0.990177
0.999858
0.518788
0.518788
0.518788
0.518788
0.518788
0.518788
0.518788
0.518788
0.518788
0.518788
0.518788
0.518788
0.518788
0.518788
0.518788
0.518788
0.518788
0.518788
0.518788
0.518788
0.518788
0.518788
0.518788
0.518788
0.518788
0.518788
0.518788
0.518788
0.518788
0.518788
0.518788
0.518788
0.518788
0.518788
0.518788
0.518788
0.518788
0.518788
0.518788
0.518788
0.518788
0.518788
0.518788
0.518788
0.518788
0.518788
0.518788
0.518788
0.518788
0.518788
0.518788
0.518788
0.518788
0.518788
0.518788
0.518789
0.518788
0.518789
0.518786
0.405125
1.51271e-06
0.107524
0.013588
0.00853033
0.000312768
0.895108
0.8542
0.930463
0.874431
0.105073
0.751205
0.705599
0.00370821
3.02018e-05
0.634362
0.0654057
0.0369567
5.82022e-06
0.0709893
0.905823
1.4351e-06
0.937993
0.146446
0.146447
0.146442
2.58111e-05
0.999342
0.999975
0.999991
0.999225
0.998931
0.999233
0.999789
0.999844
0.99992
0.999955
0.518788
0.518788
0.518788
0.518788
0.518788
0.518788
0.518788
0.518788
0.518788
0.518788
0.518788
0.518788
0.518788
0.518788
0.518788
0.518788
0.518788
0.518788
0.518788
0.518788
0.518788
0.518788
0.518788
0.518788
0.518788
0.518788
0.518788
0.518788
0.518788
0.518788
0.518788
0.518788
0.518788
0.518788
0.518788
0.518788
0.518788
0.518788
0.518788
0.518788
0.518788
0.518788
0.518788
0.518788
0.518788
0.518788
0.518788
0.518788
0.518788
0.518788
0.518788
0.518788
0.518788
0.518788
0.518788
0.518788
0.518788
0.518781
0.493081
0.393491
0.000276708
0.00247872
0.000801466
0.506529
0.620491
0.582996
0.676675
0.110352
0.552294
0.369818
0.51638
0.445272
0.505854
0.475174
0.524637
0.552974
0.515801
0.471368
0.535769
0.451199
0.337424
0.428432
0.0211631
0.39339
0.00230151
0.775714
0.396508
0.512206
0.920375
1.6376e-09
0.000532604
0.0343351
0.970996
0.549584
0.825103
0.995527
0.518788
0.518788
0.518788
0.518788
0.518788
0.518788
0.518788
0.518788
0.518788
0.518788
0.518788
0.518788
0.518788
0.518788
0.518788
0.518788
0.518788
0.518788
0.518788
0.518788
0.518788
0.518788
0.518788
0.518788
0.518788
0.518788
0.518788
0.518788
0.518788
0.518788
0.518788
0.518788
0.518788
0.518788
0.518788
0.518788
0.518788
0.518788
0.518788
0.518788
0.518788
0.518788
0.518788
0.518788
0.518788
0.518788
0.518788
0.518788
0.518788
0.518788
0.518788
0.518788
0.518788
0.518788
0.518788
0.518788
0.518788
0.517593
0.514857
0.371817
0.783654
0.000110163
0.226153
0.450736
0.254549
0.572138
0.569228
0.360584
0.650343
0.414402
0.566786
0.512689
0.479717
0.471528
0.508396
0.577287
0.0792541
0.665386
0.466221
0.771168
0.509919
0.415456
0.544888
0.685324
0.426571
0.686131
0.448753
0.394679
0.773438
0.740618
0.474424
0.582897
0.678444
0.000356988
0.557567
9.12664e-06
0.518788
0.518788
0.518788
0.518788
0.518788
0.518788
0.518788
0.518788
0.518788
0.518788
0.518788
0.518788
0.518788
0.518788
0.518788
0.518788
0.518788
0.518788
0.518788
0.518788
0.518788
0.518788
0.518788
0.518788
0.518788
0.518788
0.518788
0.518788
0.518788
0.518788
0.518788
0.518788
0.518788
0.518788
0.518788
0.518788
0.518788
0.518788
0.518788
0.518788
0.518788
0.518788
0.518788
0.518788
0.518788
0.518788
0.518788
0.518788
0.518788
0.518788
0.518788
0.518788
0.518788
0.518788
0.518788
0.518788
0.518788
0.518688
0.514881
0.441146
0.550987
0.0011827
0.85902
0.064734
0.0344183
1.5678e-05
0.145523
0.107347
0.00111012
0.403612
0.499904
0.554841
0.657751
0.136949
0.588738
0.227336
0.756489
0.336893
3.56823e-07
0.000148032
0.000973189
0.00444606
1.38493e-05
0.812606
1.22108e-06
0.0950115
0.0936146
0.82771
0.582088
0.909911
0.882621
0.0304798
0.870041
0.869851
0.951868
0.999769
0.518788
0.518788
0.518788
0.518788
0.518788
0.518788
0.518788
0.518788
0.518788
0.518788
0.518788
0.518788
0.518788
0.518788
0.518788
0.518788
0.518788
0.518788
0.518788
0.518788
0.518788
0.518788
0.518788
0.518788
0.518788
0.518788
0.518788
0.518788
0.518788
0.518788
0.518788
0.518788
0.518788
0.518788
0.518788
0.518788
0.518788
0.518788
0.518788
0.518788
0.518788
0.518788
0.518788
0.518788
0.518788
0.518788
0.518788
0.518788
0.518788
0.518788
0.518788
0.518788
0.518788
0.518788
0.518788
0.518788
0.518788
0.518801
0.519
0.447769
0.961033
0.999493
0.984092
0.999911
0.998657
0.998336
0.99946
0.997856
0.997466
0.995919
0.997001
0.996533
0.996041
0.998125
0.999076
0.999425
0.994629
0.998935
0.989182
0.985606
0.939058
0.99421
0.993212
0.991972
0.983712
0.986613
0.999014
0.99993
0.999989
0.999993
0.995104
0.999656
0.999737
0.999833
0.999898
0.999944
0.518788
0.518788
0.518788
0.518788
0.518788
0.518788
0.518788
0.518788
0.518788
0.518788
0.518788
0.518788
0.518788
0.518788
0.518788
0.518788
0.518788
0.518788
0.518788
0.518788
0.518788
0.518788
0.518788
0.518788
0.518788
0.518788
0.518788
0.518788
0.518788
0.518788
0.518788
0.518788
0.518788
0.518788
0.518788
0.518788
0.518788
0.518788
0.518788
0.518788
0.518788
0.518788
0.518788
0.518788
0.518788
0.518788
0.518788
0.518788
0.518788
0.518788
0.518788
0.518788
0.518788
0.518788
0.518788
0.518788
0.518787
0.518783
0.530266
0.416158
0.637418
0.99999
0.99953
0.999977
0.999777
0.91331
0.997409
0.999142
0.999474
0.999576
0.999634
0.999635
0.999649
0.999602
0.999512
0.999361
0.998507
0.996529
0.998507
0.998464
0.997053
0.997327
0.996426
0.995251
0.990987
0.898227
0.954353
0.991219
0.997684
0.998505
0.999086
0.999264
0.999189
0.998281
0.995207
0.999862
0.518788
0.518788
0.518788
0.518788
0.518788
0.518788
0.518788
0.518788
0.518788
0.518788
0.518788
0.518788
0.518788
0.518788
0.518788
0.518788
0.518788
0.518788
0.518788
0.518788
0.518788
0.518788
0.518788
0.518788
0.518788
0.518788
0.518788
0.518788
0.518788
0.518788
0.518788
0.518788
0.518788
0.518788
0.518788
0.518788
0.518788
0.518788
0.518788
0.518788
0.518788
0.518788
0.518788
0.518788
0.518788
0.518788
0.518788
0.518788
0.518788
0.518788
0.518788
0.518788
0.518788
0.518788
0.518788
0.518788
0.518787
0.518787
0.517726
0.468092
0.194917
1.88565e-07
0.999523
0.992888
0.996466
0.995564
0.998284
0.988672
0.995376
0.994292
0.991894
0.989462
0.893597
0.980172
0.993483
0.991815
0.988649
0.995699
0.995884
0.991554
0.928191
0.966598
0.953715
0.955784
0.965972
0.967375
0.142035
0.987376
0.996436
0.998415
0.999033
0.999256
0.999182
0.998377
0.996401
0.999867
0.518788
0.518788
0.518788
0.518788
0.518788
0.518788
0.518788
0.518788
0.518788
0.518788
0.518788
0.518788
0.518788
0.518788
0.518788
0.518788
0.518788
0.518788
0.518788
0.518788
0.518788
0.518788
0.518788
0.518788
0.518788
0.518788
0.518788
0.518788
0.518788
0.518788
0.518788
0.518788
0.518788
0.518788
0.518788
0.518788
0.518788
0.518788
0.518788
0.518788
0.518788
0.518788
0.518788
0.518788
0.518788
0.518788
0.518788
0.518788
0.518788
0.518788
0.518788
0.518788
0.518788
0.518788
0.518788
0.518788
0.518785
0.518795
0.518734
0.432805
0.690167
0.999627
0.999398
0.998641
0.998417
0.99791
0.995564
0.997243
0.997004
0.995778
0.992821
0.992034
0.992194
0.978299
0.957006
0.893457
0.993666
0.993494
0.880107
0.992582
0.994478
0.98901
0.985256
0.987574
0.988612
0.988744
0.99035
0.994457
0.997353
0.998608
0.999113
0.999301
0.999244
0.998495
0.995905
0.999864
0.518788
0.518788
0.518788
0.518788
0.518788
0.518788
0.518788
0.518788
0.518788
0.518788
0.518788
0.518788
0.518788
0.518788
0.518788
0.518788
0.518788
0.518788
0.518788
0.518788
0.518788
0.518788
0.518788
0.518788
0.518788
0.518788
0.518788
0.518788
0.518788
0.518788
0.518788
0.518788
0.518788
0.518788
0.518788
0.518788
0.518788
0.518788
0.518788
0.518788
0.518788
0.518788
0.518788
0.518788
0.518788
0.518788
0.518788
0.518788
0.518788
0.518788
0.518788
0.518788
0.518788
0.518788
0.518788
0.518788
0.518785
0.518882
0.516956
0.475368
0.379813
0.999926
0.999374
0.999523
0.998897
0.997924
0.995977
0.969516
0.98962
0.993258
0.99398
0.993716
0.993504
0.987335
0.9845
0.991064
0.98642
0.978768
0.991616
0.985755
0.987836
0.986773
0.981314
0.981766
0.98121
0.98215
0.986523
0.993596
0.997242
0.998576
0.999088
0.999276
0.999211
0.998441
0.993734
0.999863
0.518788
0.518788
0.518788
0.518788
0.518788
0.518788
0.518788
0.518788
0.518788
0.518788
0.518788
0.518788
0.518788
0.518788
0.518788
0.518788
0.518788
0.518788
0.518788
0.518788
0.518788
0.518788
0.518788
0.518788
0.518788
0.518788
0.518788
0.518788
0.518788
0.518788
0.518788
0.518788
0.518788
0.518788
0.518788
0.518788
0.518788
0.518788
0.518788
0.518788
0.518788
0.518788
0.518788
0.518788
0.518788
0.518788
0.518788
0.518788
0.518788
0.518788
0.518788
0.518788
0.518788
0.518788
0.518788
0.518788
0.518784
0.517898
0.476045
0.647883
0.387184
0.996657
0.999992
0.999368
0.998963
0.997497
0.950398
0.99469
0.997254
0.994483
0.967576
0.982154
0.9913
0.992569
0.979975
0.895631
0.994953
0.997112
0.996535
0.990122
0.975882
0.984453
0.98445
0.988993
0.990208
0.989524
0.991008
0.994831
0.997563
0.998709
0.999151
0.999312
0.999255
0.998627
0.997414
0.999867
0.518788
0.518788
0.518788
0.518788
0.518788
0.518788
0.518788
0.518788
0.518788
0.518788
0.518788
0.518788
0.518788
0.518788
0.518788
0.518788
0.518788
0.518788
0.518788
0.518788
0.518788
0.518788
0.518788
0.518788
0.518788
0.518788
0.518788
0.518788
0.518788
0.518788
0.518788
0.518788
0.518788
0.518788
0.518788
0.518788
0.518788
0.518788
0.518788
0.518788
0.518788
0.518788
0.518788
0.518788
0.518788
0.518788
0.518788
0.518788
0.518788
0.518788
0.518788
0.518788
0.518788
0.518788
0.518788
0.518788
0.518784
0.51858
0.510612
0.399859
0.802065
0.827196
0.999991
0.999992
0.996342
0.996815
0.993236
0.987651
0.994217
0.99482
0.992557
0.990216
0.980708
0.984157
0.540663
0.992565
0.977212
0.993583
0.997706
0.994262
0.979026
0.96059
0.961892
0.965897
0.953995
0.950928
0.968578
0.990519
0.996846
0.998515
0.999042
0.999197
0.999111
0.99804
0.981491
0.999861
0.518788
0.518788
0.518788
0.518788
0.518788
0.518788
0.518788
0.518788
0.518788
0.518788
0.518788
0.518788
0.518788
0.518788
0.518788
0.518788
0.518788
0.518788
0.518788
0.518788
0.518788
0.518788
0.518788
0.518788
0.518788
0.518788
0.518788
0.518788
0.518788
0.518788
0.518788
0.518788
0.518788
0.518788
0.518788
0.518788
0.518788
0.518788
0.518788
0.518788
0.518788
0.518788
0.518788
0.518788
0.518788
0.518788
0.518788
0.518788
0.518788
0.518788
0.518788
0.518788
0.518788
0.518788
0.518788
0.518788
0.518786
0.518777
0.51868
0.381111
0.847242
0.996382
0.999993
0.999991
0.997976
0.955655
0.969905
0.984692
0.990039
0.966983
0.688801
0.973874
0.926285
0.98452
0.989851
0.988594
0.943802
0.486022
0.994131
0.995651
0.992228
0.969248
0.909752
8.59402e-05
0.938004
0.954863
0.958818
0.97422
0.989603
0.996228
0.998397
0.999145
0.999404
0.999151
0.994594
0.999861
0.518788
0.518788
0.518788
0.518788
0.518788
0.518788
0.518788
0.518788
0.518788
0.518788
0.518788
0.518788
0.518788
0.518788
0.518788
0.518788
0.518788
0.518788
0.518788
0.518788
0.518788
0.518788
0.518788
0.518788
0.518788
0.518788
0.518788
0.518788
0.518788
0.518788
0.518788
0.518788
0.518788
0.518788
0.518788
0.518788
0.518788
0.518788
0.518788
0.518788
0.518788
0.518788
0.518788
0.518788
0.518788
0.518788
0.518788
0.518788
0.518788
0.518788
0.518788
0.518788
0.518788
0.518788
0.518788
0.518788
0.518787
0.518784
0.51552
0.450451
0.826245
0.994251