/*--------------------------------*- C++ -*----------------------------------*\
| =========                 |                                                 |
| \\      /  F ield         | OpenFOAM: The Open Source CFD Toolbox           |
|  \\    /   O peration     | Version:  2.3.0                                 |
|   \\  /    A nd           | Web:      www.OpenFOAM.org                      |
|    \\/     M anipulation  |                                                 |
\*---------------------------------------------------------------------------*/
FoamFile
{
    version     2.0;
    format      ascii;
    class       volScalarField;
    location    "5";
    object      w2;
}
// * * * * * * * * * * * * * * * * * * * * * * * * * * * * * * * * * * * * * //

dimensions      [0 0 0 0 0 0 0];

internalField   nonuniform List<scalar> 
6144
(
0.452838
0.452838
0.452838
0.452838
0.452838
0.452838
0.452838
0.452838
0.452838
0.452838
0.452838
0.452838
0.452838
0.452838
0.452838
0.452838
0.452838
0.452838
0.452838
0.452838
0.452838
0.452838
0.452838
0.452838
0.452838
0.452838
0.452838
0.452838
0.452838
0.452838
0.452838
0.452838
0.452838
0.452838
0.452838
0.452838
0.452838
0.452838
0.452838
0.452838
0.452838
0.452838
0.452838
0.452838
0.452838
0.452838
0.452838
0.452838
0.452838
0.452838
0.452838
0.452838
0.452838
0.452838
0.452838
0.452838
0.45284
0.453063
0.488578
0.474222
0.176385
0.00125444
6.58612e-06
0.00178376
0.00179921
0.0270532
0.0152013
0.0217275
0.0085426
0.0119486
0.0381778
0.0313035
0.033238
0.0107865
0.00491243
0.00377008
0.00414885
0.00894243
0.0205446
0.0294754
0.0370427
0.0410899
0.0315771
0.0213208
0.0299694
0.0371612
0.0343434
0.0571414
0.0216341
0.00431316
0.00163459
0.000850781
0.000595587
0.000875575
0.0157671
0.000131788
0.452838
0.452838
0.452838
0.452838
0.452838
0.452838
0.452838
0.452838
0.452838
0.452838
0.452838
0.452838
0.452838
0.452838
0.452838
0.452838
0.452838
0.452838
0.452838
0.452838
0.452838
0.452838
0.452838
0.452838
0.452838
0.452838
0.452838
0.452838
0.452838
0.452838
0.452838
0.452838
0.452838
0.452838
0.452838
0.452838
0.452838
0.452838
0.452838
0.452838
0.452838
0.452838
0.452838
0.452838
0.452838
0.452838
0.452838
0.452838
0.452838
0.452838
0.452838
0.452838
0.452838
0.452838
0.452838
0.452838
0.452842
0.453677
0.49028
0.491882
0.147858
0.000364999
6.02982e-06
0.000705056
0.000854769
0.00898865
0.0137644
0.0130886
0.0103522
0.0546947
0.00703391
0.012136
0.00909785
0.0062613
0.011504
0.00218706
0.00329956
0.0368037
0.157378
0.119438
0.0687291
0.0583278
0.541613
0.160629
0.238866
0.245917
0.150223
0.0516239
0.0126597
0.00387041
0.00157104
0.000821499
0.000565685
0.000786973
0.00576424
0.000129621
0.452838
0.452838
0.452838
0.452838
0.452838
0.452838
0.452838
0.452838
0.452838
0.452838
0.452838
0.452838
0.452838
0.452838
0.452838
0.452838
0.452838
0.452838
0.452838
0.452838
0.452838
0.452838
0.452838
0.452838
0.452838
0.452838
0.452838
0.452838
0.452838
0.452838
0.452838
0.452838
0.452838
0.452838
0.452838
0.452838
0.452838
0.452838
0.452838
0.452838
0.452838
0.452838
0.452838
0.452838
0.452838
0.452838
0.452838
0.452838
0.452838
0.452838
0.452838
0.452838
0.452838
0.452838
0.452839
0.452838
0.45284
0.452814
0.464419
0.432585
0.793237
7.36301e-06
6.49916e-06
0.000867017
0.00100019
0.00243204
0.00204443
0.0030483
0.00566568
0.048166
0.00640286
0.00687384
0.00688019
0.00194322
0.0024885
0.0166141
0.0254875
0.0432622
0.0644012
0.0327818
0.0274176
0.0251805
0.0195352
0.0214828
0.0334824
0.0458081
0.0411575
0.335729
0.0163243
0.00423505
0.00167539
0.00086288
0.000590107
0.000839399
0.0114199
0.000131651
0.452838
0.452838
0.452838
0.452838
0.452838
0.452838
0.452838
0.452838
0.452838
0.452838
0.452838
0.452838
0.452838
0.452838
0.452838
0.452838
0.452838
0.452838
0.452838
0.452838
0.452838
0.452838
0.452838
0.452838
0.452838
0.452838
0.452838
0.452838
0.452838
0.452838
0.452838
0.452838
0.452838
0.452838
0.452838
0.452838
0.452838
0.452838
0.452838
0.452838
0.452838
0.452838
0.452838
0.452838
0.452838
0.452838
0.452838
0.452838
0.452838
0.452838
0.452838
0.452838
0.452838
0.452838
0.452839
0.452838
0.452839
0.452841
0.454447
0.50819
0.864545
3.92532e-05
7.74154e-06
0.000249511
0.010162
0.000900012
0.00135024
0.0011999
0.000817115
0.000821558
0.000547911
0.000494568
0.000456456
0.000467231
0.000536647
0.000664763
0.000902179
0.00133108
0.00163845
0.0227131
0.0234468
0.0272912
0.0225108
0.0416404
0.0294062
0.0225336
0.0227511
0.108842
0.0204062
0.00471243
0.00171535
0.000854026
0.000571494
0.000745574
0.00487281
0.000129709
0.452838
0.452838
0.452838
0.452838
0.452838
0.452838
0.452838
0.452838
0.452838
0.452838
0.452838
0.452838
0.452838
0.452838
0.452838
0.452838
0.452838
0.452838
0.452838
0.452838
0.452838
0.452838
0.452838
0.452838
0.452838
0.452838
0.452838
0.452838
0.452838
0.452838
0.452838
0.452838
0.452838
0.452838
0.452838
0.452838
0.452838
0.452838
0.452838
0.452838
0.452838
0.452838
0.452838
0.452838
0.452838
0.452838
0.452838
0.452838
0.452838
0.452838
0.452838
0.452838
0.452838
0.452838
0.452839
0.452838
0.452839
0.452836
0.452864
0.486983
0.0851589
0.0117926
0.00385603
0.00860212
0.00158283
0.000796264
0.000706707
0.059614
0.0095186
0.0041565
0.00430718
0.00360602
0.00301846
0.000972504
0.000324198
4.69769e-05
8.10732e-05
7.72361e-05
1.16682e-05
8.15388e-06
0.0138906
0.00343116
0.00128212
0.00135205
0.00407866
0.00402817
0.00167937
0.00698509
0.0154431
0.0063012
0.00190112
0.000899204
0.000600852
0.000855511
0.0180753
0.000130634
0.452838
0.452838
0.452838
0.452838
0.452838
0.452838
0.452838
0.452838
0.452838
0.452838
0.452838
0.452838
0.452838
0.452838
0.452838
0.452838
0.452838
0.452838
0.452838
0.452838
0.452838
0.452838
0.452838
0.452838
0.452838
0.452838
0.452838
0.452838
0.452838
0.452838
0.452838
0.452838
0.452838
0.452838
0.452838
0.452838
0.452838
0.452838
0.452838
0.452838
0.452838
0.452838
0.452838
0.452838
0.452838
0.452838
0.452838
0.452838
0.452838
0.452838
0.452838
0.452838
0.452838
0.452838
0.452839
0.452838
0.452839
0.452839
0.452852
0.508924
0.998354
0.811309
0.999998
0.994027
0.585263
0.997002
0.234077
0.895583
0.868889
0.0858967
0.590251
0.26242
0.774242
0.176368
0.799942
0.898866
0.250768
0.184016
0.83395
0.242411
0.987032
0.0235202
0.0109868
0.00216585
0.0117242
0.000308952
4.9688e-05
9.79468e-06
7.46269e-06
0.000900631
0.017033
0.00150973
0.000945376
0.000890795
0.000560094
0.000106235
0.452838
0.452838
0.452838
0.452838
0.452838
0.452838
0.452838
0.452838
0.452838
0.452838
0.452838
0.452838
0.452838
0.452838
0.452838
0.452838
0.452838
0.452838
0.452838
0.452838
0.452838
0.452838
0.452838
0.452838
0.452838
0.452838
0.452838
0.452838
0.452838
0.452838
0.452838
0.452838
0.452838
0.452838
0.452838
0.452838
0.452838
0.452838
0.452838
0.452838
0.452838
0.452838
0.452838
0.452838
0.452838
0.452838
0.452838
0.452838
0.452838
0.452838
0.452838
0.452838
0.452838
0.452838
0.452839
0.452839
0.452837
0.452889
0.450923
0.514763
0.0742553
0.00015245
0.942081
0.0208975
0.204491
0.447577
0.99997
0.409961
0.999872
0.949561
0.901877
0.0646162
0.851131
0.816052
0.234111
0.824722
0.999999
0.465379
0.37445
0.232468
0.604677
1
0.0762369
0.233869
0.0402335
0.799123
0.93443
0.910999
0.0327178
0.0181773
0.00784678
0.00650354
0.00137608
0.000167186
8.0476e-05
3.99273e-06
0.452838
0.452838
0.452838
0.452838
0.452838
0.452838
0.452838
0.452838
0.452838
0.452838
0.452838
0.452838
0.452838
0.452838
0.452838
0.452838
0.452838
0.452838
0.452838
0.452838
0.452838
0.452838
0.452838
0.452838
0.452838
0.452838
0.452838
0.452838
0.452838
0.452838
0.452838
0.452838
0.452838
0.452838
0.452838
0.452838
0.452838
0.452838
0.452838
0.452838
0.452838
0.452838
0.452838
0.452838
0.452838
0.452838
0.452838
0.452838
0.452838
0.452838
0.452838
0.452838
0.452838
0.452838
0.452838
0.452838
0.45284
0.45271
0.455269
0.500559
0.169215
0.989857
0.966646
0.40606
1
0.762476
0.706129
0.998304
0.80895
0.281542
0.866895
0.469375
0.597562
0.455502
0.374624
0.655159
0.740863
0.835246
0.93306
0.645857
0.402058
0.442116
0.329086
0.311519
0.582964
0.936849
0.366815
0.780708
0.854633
0.87262
0.0529946
0.555208
0.370649
0.998848
0.869987
0.941615
0.452838
0.452838
0.452838
0.452838
0.452838
0.452838
0.452838
0.452838
0.452838
0.452838
0.452838
0.452838
0.452838
0.452838
0.452838
0.452838
0.452838
0.452838
0.452838
0.452838
0.452838
0.452838
0.452838
0.452838
0.452838
0.452838
0.452838
0.452838
0.452838
0.452838
0.452838
0.452838
0.452838
0.452838
0.452838
0.452838
0.452838
0.452838
0.452838
0.452838
0.452838
0.452838
0.452838
0.452838
0.452838
0.452838
0.452838
0.452838
0.452838
0.452838
0.452838
0.452838
0.452838
0.452838
0.452838
0.452839
0.452804
0.451935
0.454387
0.510911
0.97442
0.958748
0.398901
0.200033
0.488102
0.958528
0.711913
0.000143943
0.0809721
0.139572
0.188437
0.293005
0.622551
0.919384
0.836289
0.0773787
0.84906
0.871295
0.954491
0.233225
0.391743
0.156341
0.10669
0.918026
0.112449
0.125254
0.070395
0.0698555
0.0580074
0.126981
0.0407534
0.00849655
0.000312195
0.999991
3.93123e-06
0.000113706
0.452838
0.452838
0.452838
0.452838
0.452838
0.452838
0.452838
0.452838
0.452838
0.452838
0.452838
0.452838
0.452838
0.452838
0.452838
0.452838
0.452838
0.452838
0.452838
0.452838
0.452838
0.452838
0.452838
0.452838
0.452838
0.452838
0.452838
0.452838
0.452838
0.452838
0.452838
0.452838
0.452838
0.452838
0.452838
0.452838
0.452838
0.452838
0.452838
0.452838
0.452838
0.452838
0.452838
0.452838
0.452838
0.452838
0.452838
0.452838
0.452838
0.452838
0.452838
0.452838
0.452838
0.452838
0.452838
0.452838
0.452839
0.452808
0.454354
0.536582
0.0497094
0.999002
0.00853009
5.40235e-05
1.06504e-05
3.91462e-06
0.000495841
0.00427923
0.00135645
0.00212039
0.043514
0.00100741
0.00158082
0.00367796
0.000639111
0.000426047
0.000771678
0.999393
0.00368421
0.00113207
0.0030208
0.000302367
0.000631962
0.000354821
0.000408308
0.000366857
0.000269539
0.00021873
0.000209009
0.000290036
0.000302616
0.000300511
0.000261436
0.00023303
0.0261896
0.000129239
0.452838
0.452838
0.452838
0.452838
0.452838
0.452838
0.452838
0.452838
0.452838
0.452838
0.452838
0.452838
0.452838
0.452838
0.452838
0.452838
0.452838
0.452838
0.452838
0.452838
0.452838
0.452838
0.452838
0.452838
0.452838
0.452838
0.452838
0.452838
0.452838
0.452838
0.452838
0.452838
0.452838
0.452838
0.452838
0.452838
0.452838
0.452838
0.452838
0.452838
0.452838
0.452838
0.452838
0.452838
0.452838
0.452838
0.452838
0.452838
0.452838
0.452838
0.452838
0.452838
0.452838
0.452838
0.452838
0.452838
0.452839
0.451122
0.503448
0.487112
0.445104
6.06058e-06
8.43926e-05
0.00365473
0.00115116
0.00288432
0.00255567
0.0139035
0.00673421
0.00472019
0.00372657
0.0047546
0.0063901
0.0103613
0.0258766
0.436573
0.0239752
0.0145929
0.176318
0.0324358
0.0357188
0.0695498
0.0758232
0.0601182
0.0459457
0.0317287
0.0133836
0.00496937
0.00241813
0.00148151
0.00108221
0.000960028
0.00116689
0.00392669
0.00624407
0.000133391
0.452838
0.452838
0.452838
0.452838
0.452838
0.452838
0.452838
0.452838
0.452838
0.452838
0.452838
0.452838
0.452838
0.452838
0.452838
0.452838
0.452838
0.452838
0.452838
0.452838
0.452838
0.452838
0.452838
0.452838
0.452838
0.452838
0.452838
0.452838
0.452838
0.452838
0.452838
0.452838
0.452838
0.452838
0.452838
0.452838
0.452838
0.452838
0.452838
0.452838
0.452838
0.452838
0.452838
0.452838
0.452838
0.452838
0.452838
0.452838
0.452838
0.452838
0.452838
0.452838
0.452838
0.452838
0.452838
0.452838
0.45284
0.452875
0.45043
0.511603
0.43243
5.14601e-06
0.000804077
0.00199488
0.00229118
0.000962148
0.00381236
0.00836294
0.0143378
0.0269634
0.520437
0.570191
0.385794
0.0166289
0.00357751
0.00195204
0.00212856
0.00749228
0.0117191
0.0499624
0.0227043
0.018528
0.021465
0.0232505
0.0229962
0.0330798
0.12229
0.00806361
0.00290993
0.00151462
0.00100923
0.000868906
0.00101746
0.002827
0.00811829
0.000132278
0.452838
0.452838
0.452838
0.452838
0.452838
0.452838
0.452838
0.452838
0.452838
0.452838
0.452838
0.452838
0.452838
0.452838
0.452838
0.452838
0.452838
0.452838
0.452838
0.452838
0.452838
0.452838
0.452838
0.452838
0.452838
0.452838
0.452838
0.452838
0.452838
0.452838
0.452838
0.452838
0.452838
0.452838
0.452838
0.452838
0.452838
0.452838
0.452838
0.452838
0.452838
0.452838
0.452838
0.452838
0.452838
0.452838
0.452838
0.452838
0.452838
0.452838
0.452838
0.452838
0.452838
0.452838
0.452838
0.452838
0.452841
0.452841
0.452874
0.564969
0.144498
1.54724e-05
6.70239e-06
0.00110336
0.000820941
0.00233566
0.0455598
0.0255663
0.0670931
0.0219203
0.0225789
0.0230259
0.0393834
0.0994274
0.0290639
0.00905492
0.00231539
0.00143549
0.00746135
0.0138649
0.1066
0.0805832
0.189757
0.0818334
0.125442
0.0472063
0.0159358
0.00575864
0.00254399
0.00139619
0.000957514
0.000837823
0.000997388
0.00293515
0.00846426
0.00013224
0.452838
0.452838
0.452838
0.452838
0.452838
0.452838
0.452838
0.452838
0.452838
0.452838
0.452838
0.452838
0.452838
0.452838
0.452838
0.452838
0.452838
0.452838
0.452838
0.452838
0.452838
0.452838
0.452838
0.452838
0.452838
0.452838
0.452838
0.452838
0.452838
0.452838
0.452838
0.452838
0.452838
0.452838
0.452838
0.452838
0.452838
0.452838
0.452838
0.452838
0.452838
0.452838
0.452838
0.452838
0.452838
0.452838
0.452838
0.452838
0.452838
0.452838
0.452838
0.452838
0.452838
0.452838
0.452838
0.452838
0.452842
0.452841
0.452891
0.518419
0.179406
0.000423468
6.13468e-06
0.000613121
0.000928895
0.00179007
0.00214786
0.00836327
0.0124187
0.00944222
0.0124436
0.0437366
0.00839155
0.00756642
0.044887
0.012599
0.0308298
0.00208394
0.00248157
0.0751506
0.0307069
0.17768
0.297088
0.119411
0.0733577
0.0587735
0.0204778
0.00642344
0.00256333
0.00134641
0.000910976
0.000773942
0.000874578
0.00175823
0.00578792
0.000127351
0.452838
0.452838
0.452838
0.452838
0.452838
0.452838
0.452838
0.452838
0.452838
0.452838
0.452838
0.452838
0.452838
0.452838
0.452838
0.452838
0.452838
0.452838
0.452838
0.452838
0.452838
0.452838
0.452838
0.452838
0.452838
0.452838
0.452838
0.452838
0.452838
0.452838
0.452838
0.452838
0.452838
0.452838
0.452838
0.452838
0.452838
0.452838
0.452838
0.452838
0.452838
0.452838
0.452838
0.452838
0.452838
0.452838
0.452838
0.452838
0.452838
0.452838
0.452838
0.452838
0.452838
0.452838
0.452838
0.452838
0.452843
0.452841
0.456764
0.565137
0.105658
0.00148364
6.02611e-06
0.000734259
0.000752458
0.0042115
0.00375619
0.0125482
0.0231795
0.0215977
0.00559947
0.00526247
0.00772112
0.0274961
0.0693987
0.0218016
0.00431901
0.00199658
0.00319658
0.0315018
0.0853382
0.234766
0.040681
0.0246002
0.0206573
0.020407
0.0457767
0.0128415
0.00323404
0.00150408
0.00098252
0.00085424
0.00103202
0.00322289
0.00710898
0.000133045
0.452838
0.452838
0.452838
0.452838
0.452838
0.452838
0.452838
0.452838
0.452838
0.452838
0.452838
0.452838
0.452838
0.452838
0.452838
0.452838
0.452838
0.452838
0.452838
0.452838
0.452838
0.452838
0.452838
0.452838
0.452838
0.452838
0.452838
0.452838
0.452838
0.452838
0.452838
0.452838
0.452838
0.452838
0.452838
0.452838
0.452838
0.452838
0.452838
0.452838
0.452838
0.452838
0.452838
0.452838
0.452838
0.452838
0.452838
0.452838
0.452838
0.452838
0.452838
0.452838
0.452838
0.452838
0.452838
0.452838
0.452843
0.452842
0.452688
0.515876
0.184162
0.980141
7.20862e-06
0.00150349
0.011344
0.00421632
0.00798407
0.00354358
0.00593282
0.0100015
0.00768307
0.0108262
0.010926
0.0200329
0.0946824
0.0135571
0.0260116
0.00262632
0.0024061
0.0202995
0.0391762
0.0216224
0.0216006
0.0216664
0.0192093
0.0187353
0.0278597
0.0217429
0.00369432
0.00156298
0.000987426
0.0008472
0.000982026
0.00295301
0.00498489
0.000134254
0.452838
0.452838
0.452838
0.452838
0.452838
0.452838
0.452838
0.452838
0.452838
0.452838
0.452838
0.452838
0.452838
0.452838
0.452838
0.452838
0.452838
0.452838
0.452838
0.452838
0.452838
0.452838
0.452838
0.452838
0.452838
0.452838
0.452838
0.452838
0.452838
0.452838
0.452838
0.452838
0.452838
0.452838
0.452838
0.452838
0.452838
0.452838
0.452838
0.452838
0.452838
0.452838
0.452838
0.452838
0.452838
0.452838
0.452838
0.452838
0.452838
0.452838
0.452838
0.452838
0.452838
0.452838
0.452838
0.452838
0.452839
0.454414
0.494177
0.494187
0.172264
0.00304138
7.82191e-06
1.34015e-05
0.00192916
0.0253663
0.00841809
0.0220007
0.0415174
0.98047
0.00509233
0.930104
0.0187134
0.0216571
0.00776633
0.00943692
0.14424
0.0121295
0.00515368
0.00957731
0.123602
0.0303024
0.0475872
0.129186
0.0928048
0.0867961
0.142788
0.178608
0.0151182
0.00395582
0.00156755
0.000825049
0.000577155
0.000831715
0.00792256
0.000130555
0.452838
0.452838
0.452838
0.452838
0.452838
0.452838
0.452838
0.452838
0.452838
0.452838
0.452838
0.452838
0.452838
0.452838
0.452838
0.452838
0.452838
0.452838
0.452838
0.452838
0.452838
0.452838
0.452838
0.452838
0.452838
0.452838
0.452838
0.452838
0.452838
0.452838
0.452838
0.452838
0.452838
0.452838
0.452838
0.452838
0.452838
0.452838
0.452838
0.452838
0.452838
0.452838
0.452838
0.452838
0.452838
0.452838
0.452838
0.452838
0.452838
0.452838
0.452838
0.452838
0.452838
0.452838
0.452838
0.452838
0.45284
0.452877
0.452586
0.503047
0.121029
0.000248032
5.99238e-06
0.000472084
0.00113488
0.00249358
0.00632607
0.00524122
0.0086011
0.0220745
0.00872738
0.0228912
0.00963751
0.00575651
0.0277412
0.00984078
0.00748069
0.00535482
0.00561251
0.0674761
0.0192386
0.0200904
0.0244565
0.0337713
0.0376543
0.0357299
0.0330583
0.0198473
0.00862362
0.0033458
0.00147664
0.000798597
0.000556838
0.000782127
0.00504072
0.000129386
0.452838
0.452838
0.452838
0.452838
0.452838
0.452838
0.452838
0.452838
0.452838
0.452838
0.452838
0.452838
0.452838
0.452838
0.452838
0.452838
0.452838
0.452838
0.452838
0.452838
0.452838
0.452838
0.452838
0.452838
0.452838
0.452838
0.452838
0.452838
0.452838
0.452838
0.452838
0.452838
0.452838
0.452838
0.452838
0.452838
0.452838
0.452838
0.452838
0.452838
0.452838
0.452838
0.452838
0.452838
0.452838
0.452838
0.452838
0.452838
0.452838
0.452838
0.452838
0.452838
0.452838
0.452838
0.452839
0.452838
0.452839
0.452843
0.436521
0.52658
0.310498
2.644e-06
0.00197279
0.00222783
0.000953943
0.00350576
0.00356228
0.0070852
0.0461558
0.0109794
0.00748224
0.0123674
0.0259829
0.0126446
0.0247494
0.00946083
0.0187447
0.0181601
0.00884675
0.0124008
0.0419053
0.339592
0.049284
0.0561739
0.063214
0.152719
0.135324
0.059447
0.0282704
0.0046699
0.00168
0.000846868
0.000585984
0.000860447
0.0157417
0.000131502
0.452838
0.452838
0.452838
0.452838
0.452838
0.452838
0.452838
0.452838
0.452838
0.452838
0.452838
0.452838
0.452838
0.452838
0.452838
0.452838
0.452838
0.452838
0.452838
0.452838
0.452838
0.452838
0.452838
0.452838
0.452838
0.452838
0.452838
0.452838
0.452838
0.452838
0.452838
0.452838
0.452838
0.452838
0.452838
0.452838
0.452838
0.452838
0.452838
0.452838
0.452838
0.452838
0.452838
0.452838
0.452838
0.452838
0.452838
0.452838
0.452838
0.452838
0.452838
0.452838
0.452838
0.452838
0.452839
0.452838
0.452839
0.452835
0.453018
0.483961
0.652792
0.999972
0.0072804
9.74449e-06
0.00106147
0.000642176
0.00652454
0.00366067
0.00592836
0.00367366
0.00228486
0.0015423
0.00101231
0.00102003
0.000855243
0.000627989
0.000602884
0.000662742
0.000854258
0.00127419
0.00187424
0.00216652
0.00828906
0.0221495
0.0823188
0.0591086
0.125974
0.0308674
0.0116074
0.0043797
0.0017716
0.000865842
0.000560093
0.000719489
0.00392236
0.000129382
0.452838
0.452838
0.452838
0.452838
0.452838
0.452838
0.452838
0.452838
0.452838
0.452838
0.452838
0.452838
0.452838
0.452838
0.452838
0.452838
0.452838
0.452838
0.452838
0.452838
0.452838
0.452838
0.452838
0.452838
0.452838
0.452838
0.452838
0.452838
0.452838
0.452838
0.452838
0.452838
0.452838
0.452838
0.452838
0.452838
0.452838
0.452838
0.452838
0.452838
0.452838
0.452838
0.452838
0.452838
0.452838
0.452838
0.452838
0.452838
0.452838
0.452838
0.452838
0.452838
0.452838
0.452838
0.452839
0.452838
0.452839
0.452844
0.452902
0.515236
0.204156
0.237734
0.995364
0.78476
0.00999239
0.00840473
0.00199383
0.820343
0.0238547
0.0415826
0.0350842
0.00800777
0.00950238
0.00251746
0.999308
0.988717
0.0753444
0.00137845
0.000131261
2.96954e-05
4.05613e-05
1.25962e-05
1.03556e-05
0.000454719
0.0283971
0.00131075
0.000804667
0.000882465
0.00569085
0.00357075
0.00187116
0.000985314
0.000662901
0.000872033
0.00914518
0.000131951
0.452838
0.452838
0.452838
0.452838
0.452838
0.452838
0.452838
0.452838
0.452838
0.452838
0.452838
0.452838
0.452838
0.452838
0.452838
0.452838
0.452838
0.452838
0.452838
0.452838
0.452838
0.452838
0.452838
0.452838
0.452838
0.452838
0.452838
0.452838
0.452838
0.452838
0.452838
0.452838
0.452838
0.452838
0.452838
0.452838
0.452838
0.452838
0.452838
0.452838
0.452838
0.452838
0.452838
0.452838
0.452838
0.452838
0.452838
0.452838
0.452838
0.452838
0.452838
0.452838
0.452838
0.452838
0.452839
0.452838
0.452838
0.452838
0.45284
0.551375
0.951023
0.0439
0.626551
0.95632
0.943855
0.0907621
0.142115
0.065902
0.116847
0.550274
0.230518
0.288156
0.936005
0.999771
0.352544
0.893355
0.961911
0.908068
0.795341
0.0860463
0.917405
0.061288
7.03013e-09
4.09649e-10
1.86183e-06
0.99667
0.000619014
2.34685e-05
8.46252e-06
0.00072311
0.000994451
0.000712914
0.000196799
0.000144764
7.48075e-05
4.19236e-05
0.452838
0.452838
0.452838
0.452838
0.452838
0.452838
0.452838
0.452838
0.452838
0.452838
0.452838
0.452838
0.452838
0.452838
0.452838
0.452838
0.452838
0.452838
0.452838
0.452838
0.452838
0.452838
0.452838
0.452838
0.452838
0.452838
0.452838
0.452838
0.452838
0.452838
0.452838
0.452838
0.452838
0.452838
0.452838
0.452838
0.452838
0.452838
0.452838
0.452838
0.452838
0.452838
0.452838
0.452838
0.452838
0.452838
0.452838
0.452838
0.452838
0.452838
0.452838
0.452838
0.452838
0.452838
0.452839
0.452839
0.452839
0.452845
0.475315
0.56046
0.888422
0.958142
0.953477
0.472316
0.351472
0.39222
0.321401
0.803623
0.440566
0.556813
0.460558
0.518386
0.462892
0.496413
0.443613
0.421826
0.456606
0.495352
0.439289
0.511391
0.610182
0.533756
0.852549
0.603341
0.960606
0.221868
0.560157
0.455183
0.0768254
0.165624
0.994177
0.877956
0.0290001
0.40919
0.16244
0.00416381
0.452838
0.452838
0.452838
0.452838
0.452838
0.452838
0.452838
0.452838
0.452838
0.452838
0.452838
0.452838
0.452838
0.452838
0.452838
0.452838
0.452838
0.452838
0.452838
0.452838
0.452838
0.452838
0.452838
0.452838
0.452838
0.452838
0.452838
0.452838
0.452838
0.452838
0.452838
0.452838
0.452838
0.452838
0.452838
0.452838
0.452838
0.452838
0.452838
0.452838
0.452838
0.452838
0.452838
0.452838
0.452838
0.452838
0.452838
0.452838
0.452838
0.452838
0.452838
0.452838
0.452838
0.452838
0.452838
0.452839
0.452838
0.453902
0.456448
0.575473
0.216211
0.999131
0.734357
0.516742
0.691805
0.403444
0.4136
0.591444
0.336807
0.548406
0.410792
0.459615
0.483129
0.486874
0.461979
0.414385
0.823194
0.327366
0.500523
0.226365
0.461354
0.540041
0.433265
0.306624
0.537533
0.304805
0.514572
0.562222
0.22635
0.255912
0.498429
0.390341
0.31211
0.936833
0.400022
0.999989
0.452838
0.452838
0.452838
0.452838
0.452838
0.452838
0.452838
0.452838
0.452838
0.452838
0.452838
0.452838
0.452838
0.452838
0.452838
0.452838
0.452838
0.452838
0.452838
0.452838
0.452838
0.452838
0.452838
0.452838
0.452838
0.452838
0.452838
0.452838
0.452838
0.452838
0.452838
0.452838
0.452838
0.452838
0.452838
0.452838
0.452838
0.452838
0.452838
0.452838
0.452838
0.452838
0.452838
0.452838
0.452838
0.452838
0.452838
0.452838
0.452838
0.452838
0.452838
0.452838
0.452838
0.452838
0.452838
0.452838
0.452839
0.452925
0.456198
0.52307
0.420723
0.977718
0.138669
0.872576
0.909125
0.957058
0.000520421
0.0344363
0.977997
0.543021
0.471347
0.42792
0.340307
0.724427
0.397382
0.691362
0.243013
0.589982
0.874097
0.998694
0.98394
0.994616
0.999915
0.17462
0.847155
0.849113
0.875358
0.136966
0.408633
0.0863974
0.117377
0.852962
0.129071
0.117961
0.0453673
0.000208887
0.452838
0.452838
0.452838
0.452838
0.452838
0.452838
0.452838
0.452838
0.452838
0.452838
0.452838
0.452838
0.452838
0.452838
0.452838
0.452838
0.452838
0.452838
0.452838
0.452838
0.452838
0.452838
0.452838
0.452838
0.452838
0.452838
0.452838
0.452838
0.452838
0.452838
0.452838
0.452838
0.452838
0.452838
0.452838
0.452838
0.452838
0.452838
0.452838
0.452838
0.452838
0.452838
0.452838
0.452838
0.452838
0.452838
0.452838
0.452838
0.452838
0.452838
0.452838
0.452838
0.452838
0.452838
0.452839
0.452839
0.452838
0.452827
0.452643
0.518205
0.0388297
0.000478118
0.0149569
7.9706e-05
0.00124994
0.00154818
0.000534363
0.0020709
0.0023599
0.00382582
0.00281536
0.00317259
0.00362259
0.0017446
0.000859603
0.0005447
0.00500643
0.00102909
0.0101069
0.0140668
0.0568382
0.00528437
0.00619118
0.00747466
0.0151512
0.012486
0.000893392
6.54927e-05
9.80999e-06
6.14634e-06
0.00460096
0.000320057
0.000244539
0.00015568
9.53644e-05
5.16841e-05
0.452838
0.452838
0.452838
0.452838
0.452838
0.452838
0.452838
0.452838
0.452838
0.452838
0.452838
0.452838
0.452838
0.452838
0.452838
0.452838
0.452838
0.452838
0.452838
0.452838
0.452838
0.452838
0.452838
0.452838
0.452838
0.452838
0.452838
0.452838
0.452838
0.452838
0.452838
0.452838
0.452838
0.452838
0.452838
0.452838
0.452838
0.452838
0.452838
0.452838
0.452838
0.452838
0.452838
0.452838
0.452838
0.452838
0.452838
0.452838
0.452838
0.452838
0.452838
0.452838
0.452838
0.452838
0.452839
0.452838
0.452839
0.452843
0.442431
0.54281
0.349733
9.25737e-06
0.000437209
2.15048e-05
0.000207135
0.0813479
0.00240972
0.000799666
0.000489793
0.000394339
0.000340842
0.000339778
0.000327141
0.000370724
0.000454339
0.000587747
0.0013902
0.00322991
0.00138986
0.00142976
0.00273613
0.00249173
0.00332861
0.00441218
0.00838839
0.0951131
0.042553
0.00817618
0.00215573
0.00139184
0.000850704
0.000685465
0.000755243
0.00160045
0.00446124
0.000128725
0.452838
0.452838
0.452838
0.452838
0.452838
0.452838
0.452838
0.452838
0.452838
0.452838
0.452838
0.452838
0.452838
0.452838
0.452838
0.452838
0.452838
0.452838
0.452838
0.452838
0.452838
0.452838
0.452838
0.452838
0.452838
0.452838
0.452838
0.452838
0.452838
0.452838
0.452838
0.452838
0.452838
0.452838
0.452838
0.452838
0.452838
0.452838
0.452838
0.452838
0.452838
0.452838
0.452838
0.452838
0.452838
0.452838
0.452838
0.452838
0.452838
0.452838
0.452838
0.452838
0.452838
0.452838
0.452838
0.452838
0.452839
0.452839
0.453767
0.501177
0.709797
0.999998
0.000444116
0.00662094
0.00328995
0.00412214
0.00159667
0.0105517
0.00430575
0.00531428
0.00764074
0.00986217
0.0979935
0.0185632
0.00607698
0.00763714
0.0105671
0.00400487
0.00387592
0.00786202
0.0671145
0.031141
0.0430642
0.0412498
0.0316594
0.0318074
0.00270877
0.0117509
0.0033175
0.00147593
0.000900634
0.000692608
0.000761753
0.00151103
0.00335047
0.000124028
0.452838
0.452838
0.452838
0.452838
0.452838
0.452838
0.452838
0.452838
0.452838
0.452838
0.452838
0.452838
0.452838
0.452838
0.452838
0.452838
0.452838
0.452838
0.452838
0.452838
0.452838
0.452838
0.452838
0.452838
0.452838
0.452838
0.452838
0.452838
0.452838
0.452838
0.452838
0.452838
0.452838
0.452838
0.452838
0.452838
0.452838
0.452838
0.452838
0.452838
0.452838
0.452838
0.452838
0.452838
0.452838
0.452838
0.452838
0.452838
0.452838
0.452838
0.452838
0.452838
0.452838
0.452838
0.452838
0.452838
0.452841
0.452832
0.452886
0.530803
0.303718
0.000373046
0.000560337
0.00126549
0.00147385
0.00194543
0.0041296
0.00256596
0.00278879
0.00393077
0.00668361
0.00741517
0.00727833
0.0201516
0.0402389
0.0996336
0.00587612
0.00603486
0.110383
0.00697893
0.00512818
0.0102282
0.0137174
0.0115577
0.010602
0.010491
0.00897137
0.0051603
0.00246424
0.00129591
0.000825997
0.000650441
0.000703625
0.00140107
0.00381059
0.000126173
0.452838
0.452838
0.452838
0.452838
0.452838
0.452838
0.452838
0.452838
0.452838
0.452838
0.452838
0.452838
0.452838
0.452838
0.452838
0.452838
0.452838
0.452838
0.452838
0.452838
0.452838
0.452838
0.452838
0.452838
0.452838
0.452838
0.452838
0.452838
0.452838
0.452838
0.452838
0.452838
0.452838
0.452838
0.452838
0.452838
0.452838
0.452838
0.452838
0.452838
0.452838
0.452838
0.452838
0.452838
0.452838
0.452838
0.452838
0.452838
0.452838
0.452838
0.452838
0.452838
0.452838
0.452838
0.452838
0.452838
0.452842
0.452757
0.454529
0.492655
0.575255
6.82994e-05
0.000582668
0.000444189
0.00102632
0.00193299
0.00374499
0.0283061
0.00966589
0.00627309
0.005606
0.00585198
0.00604787
0.0117892
0.0144403
0.00828264
0.0126436
0.0197101
0.00782684
0.0132397
0.0113235
0.0123138
0.0174049
0.0169771
0.0174906
0.0166235
0.0125461
0.00596173
0.00256756
0.00132525
0.000849213
0.000674346
0.000734609
0.00145119
0.00583394
0.000127978
0.452838
0.452838
0.452838
0.452838
0.452838
0.452838
0.452838
0.452838
0.452838
0.452838
0.452838
0.452838
0.452838
0.452838
0.452838
0.452838
0.452838
0.452838
0.452838
0.452838
0.452838
0.452838
0.452838
0.452838
0.452838
0.452838
0.452838
0.452838
0.452838
0.452838
0.452838
0.452838
0.452838
0.452838
0.452838
0.452838
0.452838
0.452838
0.452838
0.452838
0.452838
0.452838
0.452838
0.452838
0.452838
0.452838
0.452838
0.452838
0.452838
0.452838
0.452838
0.452838
0.452838
0.452838
0.452838
0.452838
0.452842
0.45366
0.492573
0.343813
0.561665
0.00311388
7.21907e-06
0.000588471
0.000965236
0.00232978
0.0466824
0.00489322
0.00255591
0.00513484
0.030151
0.0165963
0.00809892
0.00691898
0.0187372
0.0970829
0.00469659
0.00268937
0.00322497
0.00920351
0.0224333
0.0143962
0.014479
0.01024
0.00911534
0.00974478
0.00836944
0.0048116
0.00226902
0.00120229
0.00079064
0.000640197
0.0006937
0.00127856
0.00240737
0.000123865
0.452838
0.452838
0.452838
0.452838
0.452838
0.452838
0.452838
0.452838
0.452838
0.452838
0.452838
0.452838
0.452838
0.452838
0.452838
0.452838
0.452838
0.452838
0.452838
0.452838
0.452838
0.452838
0.452838
0.452838
0.452838
0.452838
0.452838
0.452838
0.452838
0.452838
0.452838
0.452838
0.452838
0.452838
0.452838
0.452838
0.452838
0.452838
0.452838
0.452838
0.452838
0.452838
0.452838
0.452838
0.452838
0.452838
0.452838
0.452838
0.452838
0.452838
0.452838
0.452838
0.452838
0.452838
0.452838
0.452838
0.452842
0.452978
0.458359
0.558155
0.195221
0.167649
8.70906e-06
7.83743e-06
0.00340872
0.00296003
0.00629102
0.0114832
0.00538292
0.00482668
0.00692285
0.00911644
0.0179219
0.0152285
0.415441
0.0072503
0.0212211
0.0059736
0.00213537
0.00533991
0.0195218
0.0366652
0.0355135
0.0317508
0.0427876
0.0456285
0.0292488
0.00882746
0.00293598
0.00138223
0.000891666
0.000747738
0.000827716