/*--------------------------------*- C++ -*----------------------------------*\
| =========                 |                                                 |
| \\      /  F ield         | OpenFOAM: The Open Source CFD Toolbox           |
|  \\    /   O peration     | Version:  2.3.0                                 |
|   \\  /    A nd           | Web:      www.OpenFOAM.org                      |
|    \\/     M anipulation  |                                                 |
\*---------------------------------------------------------------------------*/
FoamFile
{
    version     2.0;
    format      ascii;
    class       volScalarField;
    location    "17";
    object      alpha.air;
}
// * * * * * * * * * * * * * * * * * * * * * * * * * * * * * * * * * * * * * //

dimensions      [0 0 0 0 0 0 0];

internalField   nonuniform List<scalar> 
6144
(
0.999994
0.999994
0.999993
0.999993
0.999992
0.999991
0.999991
0.99999
0.99999
0.99999
0.99999
0.99999
0.99999
0.99999
0.99999
0.99999
0.99999
0.99999
0.99999
0.99999
0.99999
0.99999
0.99999
0.99999
0.99999
0.99999
0.99999
0.99999
0.99999
0.99999
0.99999
0.99999
0.99999
0.99999
0.99999
0.99999
0.99999
0.99999
0.99999
0.99999
0.99999
0.99999
0.99999
0.99999
0.99999
0.999989
0.99998
0.999957
0.999939
0.99993
0.999923
0.999916
0.999908
0.999896
0.999885
0.999869
0.999862
0.999853
0.999342
0.958244
0.0501124
0.000318093
9.37618e-07
6.42304e-07
6.42649e-07
6.44771e-07
6.50537e-07
6.50572e-07
6.50005e-07
6.47753e-07
6.46059e-07
6.46253e-07
6.48656e-07
6.51375e-07
6.51673e-07
6.5047e-07
6.50186e-07
6.50252e-07
6.34139e-07
5.98257e-07
5.87291e-07
5.75011e-07
5.62084e-07
5.54123e-07
5.52086e-07
5.5367e-07
5.63374e-07
5.80627e-07
5.99397e-07
6.17247e-07
6.33924e-07
6.48219e-07
6.29656e-07
4.83209e-07
2.41488e-07
2.41496e-07
0.999994
0.999994
0.999993
0.999993
0.999992
0.999991
0.999991
0.99999
0.99999
0.99999
0.99999
0.99999
0.99999
0.99999
0.99999
0.99999
0.99999
0.99999
0.99999
0.99999
0.99999
0.99999
0.99999
0.99999
0.99999
0.99999
0.99999
0.99999
0.99999
0.99999
0.99999
0.99999
0.99999
0.99999
0.99999
0.99999
0.99999
0.99999
0.99999
0.99999
0.99999
0.99999
0.99999
0.99999
0.99999
0.999989
0.999979
0.999958
0.999942
0.999933
0.999927
0.999916
0.999902
0.999881
0.999865
0.999847
0.999844
0.999839
0.999674
0.959116
0.0400132
0.000187689
6.34856e-07
6.43236e-07
6.49609e-07
6.69278e-07
6.67556e-07
6.39111e-07
6.37418e-07
6.37419e-07
6.3742e-07
6.4969e-07
6.66304e-07
6.61947e-07
6.62523e-07
6.55491e-07
6.46034e-07
6.39676e-07
6.18159e-07
5.93429e-07
5.74272e-07
5.52463e-07
5.29865e-07
5.09445e-07
4.97567e-07
4.95342e-07
5.10089e-07
5.39697e-07
5.66883e-07
5.95747e-07
6.19159e-07
5.79669e-07
5.20531e-07
3.09246e-07
2.41479e-07
2.41487e-07
0.999994
0.999994
0.999994
0.999993
0.999992
0.999992
0.999991
0.99999
0.99999
0.99999
0.99999
0.99999
0.99999
0.99999
0.99999
0.99999
0.99999
0.99999
0.99999
0.99999
0.99999
0.99999
0.99999
0.99999
0.99999
0.99999
0.99999
0.99999
0.99999
0.99999
0.99999
0.99999
0.99999
0.99999
0.99999
0.99999
0.99999
0.99999
0.99999
0.99999
0.99999
0.99999
0.99999
0.99999
0.99999
0.999988
0.999979
0.999961
0.999947
0.999937
0.99993
0.999908
0.999884
0.999856
0.999843
0.99983
0.999835
0.999831
0.999611
0.955926
0.0404709
0.000215118
6.34857e-07
6.34858e-07
6.34859e-07
6.43538e-07
6.50411e-07
6.37418e-07
6.37418e-07
6.38507e-07
6.84739e-07
6.36775e-07
6.31542e-07
6.27819e-07
6.45193e-07
6.67139e-07
6.60143e-07
6.56709e-07
6.30104e-07
6.07952e-07
6.01276e-07
5.99736e-07
5.85936e-07
5.16579e-07
4.90224e-07
4.85451e-07
4.94979e-07
5.30385e-07
5.65411e-07
5.60826e-07
4.57434e-07
3.20895e-07
2.51098e-07
2.42101e-07
2.41488e-07
2.41495e-07
0.999994
0.999994
0.999994
0.999993
0.999993
0.999992
0.999991
0.99999
0.99999
0.99999
0.99999
0.99999
0.99999
0.99999
0.99999
0.99999
0.99999
0.99999
0.99999
0.99999
0.99999
0.99999
0.99999
0.99999
0.99999
0.99999
0.99999
0.99999
0.99999
0.99999
0.99999
0.99999
0.99999
0.99999
0.99999
0.99999
0.99999
0.99999
0.99999
0.99999
0.99999
0.99999
0.99999
0.99999
0.99999
0.999987
0.999979
0.999966
0.999953
0.999942
0.99993
0.999895
0.999864
0.999837
0.99983
0.999821
0.999833
0.999819
0.9994
0.93197
0.022692
8.33374e-05
1.29236e-05
9.95835e-06
8.86588e-06
6.75379e-06
4.62209e-06
3.35063e-06
2.51973e-06
1.75137e-06
1.11764e-06
8.68157e-07
7.06845e-07
6.27879e-07
6.29931e-07
1.03381e-06
1.60497e-06
8.12813e-07
6.01535e-07
6.01535e-07
6.09259e-07
9.60742e-07
1.05953e-06
6.73273e-07
6.73487e-07
6.63388e-07
7.0113e-07
7.11172e-07
6.62749e-07
4.98853e-07
3.45806e-07
3.07467e-07
3.28521e-07
3.50358e-07
3.12432e-07
2.41504e-07
0.999994
0.999994
0.999993
0.999993
0.999993
0.999992
0.999992
0.999991
0.99999
0.99999
0.99999
0.99999
0.99999
0.99999
0.99999
0.99999
0.99999
0.99999
0.99999
0.99999
0.99999
0.99999
0.99999
0.99999
0.99999
0.99999
0.99999
0.99999
0.99999
0.99999
0.99999
0.99999
0.99999
0.99999
0.99999
0.99999
0.99999
0.99999
0.99999
0.99999
0.99999
0.99999
0.99999
0.99999
0.999989
0.999987
0.999981
0.999971
0.999959
0.999946
0.999929
0.999884
0.99985
0.999828
0.999822
0.999814
0.999811
0.999804
0.998846
0.755814
0.00357334
0.000637475
0.000567897
0.000498454
0.000439886
0.000359461
0.000276683
0.000192176
0.000133877
9.71816e-05
8.18623e-05
7.90551e-05
8.62525e-05
9.3704e-05
9.6238e-05
9.48499e-05
9.73148e-05
9.81052e-05
9.35045e-05
9.2422e-05
8.91105e-05
7.56499e-05
5.68034e-05
2.813e-05
1.38759e-05
7.04469e-06
5.35892e-06
4.01488e-06
3.1299e-06
2.29467e-06
1.59822e-06
1.15762e-06
1.04461e-06
6.73183e-07
4.97398e-07
2.42433e-07
0.999994
0.999994
0.999993
0.999993
0.999992
0.999992
0.999992
0.999991
0.99999
0.99999
0.99999
0.99999
0.99999
0.99999
0.99999
0.99999
0.99999
0.99999
0.99999
0.99999
0.99999
0.99999
0.99999
0.99999
0.99999
0.99999
0.99999
0.99999
0.99999
0.99999
0.99999
0.99999
0.99999
0.99999
0.99999
0.99999
0.99999
0.99999
0.99999
0.99999
0.99999
0.99999
0.99999
0.99999
0.999989
0.999987
0.999982
0.999975
0.999966
0.999957
0.999943
0.999884
0.999849
0.999834
0.999838
0.999837
0.999852
0.999837
0.999863
0.640447
0.0066737
0.00407144
0.00404217
0.00382459
0.0035292
0.0031782
0.00265089
0.00211755
0.0016787
0.00145437
0.00139043
0.0013313
0.0013074
0.00131429
0.00132686
0.00134327
0.00136094
0.00135827
0.00131008
0.00131136
0.00130196
0.00116761
0.000837233
0.000465973
0.000152022
3.11689e-05
4.39265e-05
3.53322e-05
1.79086e-05
2.02643e-05
1.77597e-05
8.28346e-06
4.62511e-06
2.04252e-06
9.18245e-07
2.42568e-07
0.999994
0.999994
0.999993
0.999993
0.999992
0.999992
0.999992
0.999991
0.999991
0.99999
0.99999
0.99999
0.99999
0.99999
0.99999
0.99999
0.99999
0.99999
0.99999
0.99999
0.99999
0.99999
0.99999
0.99999
0.99999
0.99999
0.99999
0.99999
0.99999
0.99999
0.99999
0.99999
0.99999
0.99999
0.99999
0.99999
0.99999
0.99999
0.99999
0.99999
0.99999
0.99999
0.99999
0.99999
0.999989
0.999987
0.999985
0.999981
0.999978
0.999975
0.999963
0.999895
0.999866
0.99984
0.999846
0.999847
0.999861
0.999856
0.999863
0.688046
0.0128817
0.00858722
0.00878292
0.00886194
0.00853941
0.00784391
0.00675168
0.00567747
0.00469602
0.00411368
0.00379884
0.00365333
0.00353183
0.00342778
0.00327321
0.00316072
0.00321351
0.00326788
0.00329556
0.00330029
0.00312538
0.00287033
0.00217906
0.00119108
0.000432459
4.03893e-06
7.02143e-05
6.51598e-07
2.44518e-07
2.44517e-07
2.44516e-07
2.44516e-07
2.44516e-07
2.44516e-07
2.44517e-07
2.42708e-07
0.999995
0.999995
0.999994
0.999993
0.999992
0.999992
0.999992
0.999991
0.999991
0.999991
0.99999
0.99999
0.99999
0.99999
0.99999
0.99999
0.99999
0.99999
0.99999
0.99999
0.99999
0.99999
0.99999
0.99999
0.99999
0.99999
0.99999
0.99999
0.99999
0.99999
0.99999
0.99999
0.99999
0.99999
0.99999
0.99999
0.99999
0.99999
0.99999
0.99999
0.99999
0.99999
0.99999
0.99999
0.999989
0.999988
0.999986
0.999984
0.999981
0.999978
0.999971
0.999916
0.999865
0.999849
0.999857
0.999858
0.999858
0.999857
0.999863
0.715767
0.0176863
0.0111675
0.0115373
0.0116617
0.0112943
0.0108907
0.0101208
0.00935416
0.00858738
0.00797887
0.00744445
0.00664586
0.00587486
0.00530312
0.00514487
0.00555032
0.00589838
0.00625407
0.00660029
0.0069293
0.00716683
0.00681421
0.00594779
0.00496939
0.00376408
0.00275908
0.0024065
0.00198187
0.0011789
0.00056818
2.44517e-07
2.44516e-07
2.44516e-07
2.44516e-07
0.00111112
0.00250248
0.999995
0.999995
0.999994
0.999993
0.999992
0.999992
0.999992
0.999991
0.999991
0.999991
0.99999
0.99999
0.99999
0.99999
0.99999
0.99999
0.99999
0.99999
0.99999
0.99999
0.99999
0.99999
0.99999
0.99999
0.99999
0.99999
0.99999
0.99999
0.99999
0.99999
0.99999
0.99999
0.99999
0.99999
0.99999
0.99999
0.99999
0.99999
0.99999
0.99999
0.99999
0.99999
0.99999
0.99999
0.99999
0.999988
0.999985
0.999979
0.999972
0.999967
0.999964
0.999942
0.999876
0.999846
0.999857
0.999859
0.999859
0.999858
0.999863
0.797712
0.0142656
0.00419124
0.00383475
0.00341286
0.0032389
0.00291865
0.00248749
0.00212315
0.00184922
0.00175747
0.00171453
0.00156854
0.00141128
0.00125188
0.00114181
0.00109661
0.00107553
0.00107223
0.00111963
0.00115915
0.00113259
0.000959721
0.000713962
0.000532218
0.000421464
0.000386537
0.000385043
0.000410026
0.000412667
0.000305642
0.000170353
5.61269e-05
1.12931e-05
2.44517e-07
3.92946e-07
2.60658e-07
0.999995
0.999995
0.999994
0.999993
0.999992
0.999991
0.999991
0.999991
0.999991
0.99999
0.99999
0.99999
0.99999
0.99999
0.99999
0.99999
0.99999
0.99999
0.99999
0.99999
0.99999
0.99999
0.99999
0.99999
0.99999
0.99999
0.99999
0.99999
0.99999
0.99999
0.99999
0.99999
0.99999
0.99999
0.99999
0.99999
0.99999
0.99999
0.99999
0.99999
0.99999
0.99999
0.99999
0.99999
0.99999
0.999988
0.999984
0.999977
0.999966
0.999958
0.999955
0.999951
0.999909
0.999848
0.999845
0.999846
0.999859
0.99985
0.999863
0.887338
0.0078377
0.000375074
0.000279299
0.000209828
0.000199247
0.000175692
0.000156617
0.000145111
0.000140674
0.000141157
0.00013787
0.000110831
8.66106e-05
6.13098e-05
4.46152e-05
3.27423e-05
2.69069e-05
2.47119e-05
2.66567e-05
2.80268e-05
2.16412e-05
1.73596e-05
7.0453e-06
2.78335e-06
1.30086e-06
7.50181e-07
1.31747e-06
1.34342e-06
1.8747e-06
2.16441e-06
2.35398e-06
9.63951e-07
6.97908e-07
6.14471e-07
5.9105e-07
4.60864e-07
0.999996
0.999995
0.999994
0.999993
0.999992
0.999991
0.999991
0.99999
0.99999
0.99999
0.99999
0.99999
0.99999
0.99999
0.99999
0.99999
0.99999
0.99999
0.99999
0.99999
0.99999
0.99999
0.99999
0.99999
0.99999
0.99999
0.99999
0.99999
0.99999
0.99999
0.99999
0.99999
0.99999
0.99999
0.99999
0.99999
0.99999
0.99999
0.99999
0.99999
0.99999
0.99999
0.99999
0.99999
0.99999
0.999988
0.999984
0.999977
0.999965
0.999952
0.999944
0.999944
0.999935
0.999871
0.999844
0.999821
0.999833
0.999822
0.999863
0.92657
0.00533289
7.59751e-06
4.76898e-06
4.28448e-06
4.31548e-06
3.58768e-06
3.29647e-06
3.31954e-06
3.61355e-06
3.79588e-06
3.94997e-06
3.69926e-06
3.1377e-06
2.08154e-06
1.27935e-06
1.00758e-06
9.95276e-07
7.40602e-07
6.56032e-07
6.56032e-07
6.56032e-07
6.75588e-07
6.55986e-07
6.55986e-07
6.55986e-07
6.5601e-07
6.61152e-07
6.89051e-07
6.90641e-07
6.63586e-07
6.04712e-07
5.23925e-07
5.24777e-07
5.66343e-07
5.56818e-07
4.16785e-07
0.999997
0.999995
0.999994
0.999993
0.999992
0.999991
0.99999
0.99999
0.99999
0.99999
0.99999
0.99999
0.99999
0.99999
0.99999
0.99999
0.99999
0.99999
0.99999
0.99999
0.99999
0.99999
0.99999
0.99999
0.99999
0.99999
0.99999
0.99999
0.99999
0.99999
0.99999
0.99999
0.99999
0.99999
0.99999
0.99999
0.99999
0.99999
0.99999
0.99999
0.99999
0.99999
0.99999
0.99999
0.99999
0.999989
0.999986
0.999978
0.999965
0.99995
0.999939
0.999933
0.999934
0.999902
0.999862
0.999826
0.999825
0.999814
0.999838
0.957832
0.0197506
3.74308e-06
6.94215e-07
8.07361e-07
7.38528e-07
8.338e-07
8.26201e-07
7.2637e-07
6.96249e-07
7.27726e-07
8.89645e-07
8.95325e-07
7.58298e-07
7.05524e-07
7.05523e-07
7.59665e-07
7.93553e-07
7.93434e-07
7.84833e-07
7.60085e-07
7.24782e-07
6.99029e-07
6.80634e-07
6.8878e-07
7.11083e-07
7.33632e-07
7.29461e-07
7.26397e-07
7.26751e-07
7.02e-07
6.3148e-07
5.26571e-07
4.99281e-07
5.34405e-07
5.39409e-07
4.11303e-07
0.999998
0.999996
0.999995
0.999993
0.999993
0.999991
0.99999
0.99999
0.99999
0.99999
0.99999
0.99999
0.99999
0.99999
0.99999
0.99999
0.99999
0.99999
0.99999
0.99999
0.99999
0.99999
0.99999
0.99999
0.99999
0.99999
0.99999
0.99999
0.99999
0.99999
0.99999
0.99999
0.99999
0.99999
0.99999
0.99999
0.99999
0.99999
0.99999
0.99999
0.99999
0.99999
0.99999
0.99999
0.99999
0.999989
0.999987
0.99998
0.999966
0.99995
0.999938
0.999928
0.999931
0.999919
0.999889
0.99985
0.999835
0.999821
0.999658
0.973819
0.0496852
0.0001254
6.94214e-07
7.36408e-07
7.0991e-07
7.27747e-07
7.27727e-07
7.38149e-07
7.5149e-07
7.50868e-07
7.29026e-07
7.19226e-07
7.36965e-07
7.32692e-07
7.15374e-07
7.25281e-07
7.32459e-07
7.35743e-07
7.33544e-07
7.31608e-07
7.28142e-07
7.23738e-07
7.11608e-07
7.134e-07
7.32158e-07
7.40439e-07
7.35858e-07
7.2989e-07
7.26947e-07
7.06792e-07
6.51535e-07
5.62e-07
4.91099e-07
5.10591e-07
5.26451e-07
4.15975e-07
0.999998
0.999996
0.999995
0.999994
0.999996
0.999994
0.999992
0.99999
0.99999
0.99999
0.99999
0.99999
0.99999
0.99999
0.99999
0.99999
0.99999
0.99999
0.99999
0.99999
0.99999
0.99999
0.99999
0.99999
0.99999
0.99999
0.99999
0.99999
0.99999
0.99999
0.99999
0.99999
0.99999
0.99999
0.99999
0.99999
0.99999
0.99999
0.99999
0.99999
0.99999
0.99999
0.99999
0.99999
0.99999
0.99999
0.999988
0.999981
0.999965
0.999949
0.999938
0.999928
0.999922
0.999916
0.999901
0.999871
0.999854
0.999844
0.999672
0.976937
0.0787209
0.000569891
1.03721e-06
6.94229e-07
6.97301e-07
7.19754e-07
7.25531e-07
7.31306e-07
7.40438e-07
7.4554e-07
7.48069e-07
7.45716e-07
7.36408e-07
7.4013e-07
7.45247e-07
7.38109e-07
7.31699e-07
7.31831e-07
7.31235e-07
7.31214e-07
7.33378e-07
7.34913e-07
7.34594e-07
7.32625e-07
7.34957e-07
7.41828e-07
7.44835e-07
7.38766e-07
7.27517e-07
7.06144e-07
6.56323e-07
5.74499e-07
4.90149e-07
4.97746e-07
5.19112e-07
4.33069e-07
0.999998
0.999996
0.999995
0.999996
0.999998
0.999997
0.999996
0.999991
0.99999
0.99999
0.99999
0.99999
0.99999
0.99999
0.99999
0.99999
0.99999
0.99999
0.99999
0.99999
0.99999
0.99999
0.99999
0.99999
0.99999
0.99999
0.99999
0.99999
0.99999
0.99999
0.99999
0.99999
0.99999
0.99999
0.99999
0.99999
0.99999
0.99999
0.99999
0.99999
0.99999
0.99999
0.99999
0.99999
0.99999
0.99999
0.999988
0.999982
0.999964
0.999948
0.999939
0.99993
0.999923
0.999916
0.999908
0.999888
0.999876
0.999868
0.999634
0.960698
0.0675487
0.000457286
1.03263e-06
6.94219e-07
6.94219e-07
7.01426e-07
7.10883e-07
7.14119e-07
7.15596e-07
7.18763e-07
7.23474e-07
7.24126e-07
7.26422e-07
7.37048e-07
7.43352e-07
7.39838e-07
7.36694e-07
7.32962e-07
7.31939e-07
7.31936e-07
7.31679e-07
7.3225e-07
7.32969e-07
7.35003e-07
7.38123e-07
7.39864e-07
7.32918e-07
7.234e-07
7.26585e-07
7.0137e-07
6.45213e-07
5.64249e-07
4.82163e-07
4.89531e-07
5.14169e-07
4.39895e-07
0.999999
0.999998
0.999998
0.999998
0.999998
0.999998
0.999998
0.999994
0.99999
0.99999
0.99999
0.99999
0.99999
0.99999
0.99999
0.99999
0.99999
0.99999
0.99999
0.99999
0.99999
0.99999
0.99999
0.99999
0.99999
0.99999
0.99999
0.99999
0.99999
0.99999
0.99999
0.99999
0.99999
0.99999
0.99999
0.99999
0.99999
0.99999
0.99999
0.99999
0.99999
0.99999
0.99999
0.99999
0.99999
0.99999
0.999989
0.999983
0.999961
0.999942
0.999933
0.999926
0.999919
0.999912
0.999905
0.999893
0.99989
0.999878
0.999159
0.951697
0.0536806
0.000375938
1.04982e-06
6.94231e-07
7.02337e-07
7.09832e-07
7.14148e-07
7.15005e-07
7.15043e-07
7.14463e-07
7.14504e-07
7.1649e-07
7.19538e-07
7.2005e-07
7.22771e-07
7.2829e-07
7.32155e-07
7.38156e-07
7.43442e-07
7.44042e-07
7.4433e-07
7.44264e-07
7.43786e-07
7.43696e-07
7.43143e-07
7.4391e-07
7.43932e-07
7.43532e-07
7.3978e-07
7.06973e-07
6.25597e-07
5.29105e-07
4.68439e-07
4.87273e-07
5.10093e-07
4.2598e-07
0.999994
0.999994
0.999993
0.999993
0.999992
0.999991
0.99999
0.99999
0.99999
0.99999
0.99999
0.99999
0.99999
0.99999
0.99999
0.99999
0.99999
0.99999
0.99999
0.99999
0.99999
0.99999
0.99999
0.99999
0.99999
0.99999
0.99999
0.99999
0.99999
0.99999
0.99999
0.99999
0.99999
0.99999
0.99999
0.99999
0.99999
0.99999
0.99999
0.99999
0.99999
0.99999
0.99999
0.99999
0.99999
0.999989
0.999981
0.999958
0.999941
0.999932
0.999925
0.999918
0.999908
0.999894
0.999885
0.999871
0.999869
0.999851
0.999529
0.964778
0.0437983
9.74843e-05
6.34856e-07
6.475e-07
6.43286e-07
6.45283e-07
6.4793e-07
6.46742e-07
6.47469e-07
6.49092e-07
6.53476e-07
6.61412e-07
6.76394e-07
6.80474e-07
6.74138e-07
6.63799e-07
6.56038e-07
6.55408e-07
6.34428e-07
5.8114e-07
5.63892e-07
5.52071e-07
5.36606e-07
5.25673e-07
5.23136e-07
5.46227e-07
5.89873e-07
6.27935e-07
6.455e-07
6.50256e-07
6.49773e-07
6.45717e-07
6.17993e-07
4.45423e-07
2.41478e-07
2.41487e-07
0.999994
0.999993
0.999993
0.999992
0.999992
0.999991
0.999991
0.999991
0.99999
0.99999
0.99999
0.99999
0.99999
0.99999
0.99999
0.99999
0.99999
0.99999
0.99999
0.99999
0.99999
0.99999
0.99999
0.99999
0.99999
0.99999
0.99999
0.99999
0.99999
0.99999
0.99999
0.99999
0.99999
0.99999
0.99999
0.99999
0.99999
0.99999
0.99999
0.99999
0.99999
0.99999
0.99999
0.99999
0.99999
0.999989
0.999982
0.999961
0.999943
0.999933
0.999924
0.999913
0.999885
0.99986
0.999858
0.999852
0.999855
0.999848
0.99976
0.933661
0.0198408
1.00112e-05
6.34855e-07
7.43666e-07
7.43028e-07
7.27083e-07
6.90204e-07
6.47161e-07
6.52349e-07
6.66763e-07
6.87101e-07
6.92351e-07
6.84274e-07
6.70858e-07
6.6391e-07
6.59091e-07
6.36914e-07
6.30672e-07
6.08521e-07
5.75533e-07
5.60681e-07
5.43668e-07
5.17577e-07
4.91058e-07
4.77238e-07
4.74863e-07
5.13272e-07
5.55362e-07
5.72006e-07
5.82884e-07
5.85315e-07
5.62547e-07
5.30517e-07
3.15346e-07
2.4147e-07
2.41479e-07
0.999994
0.999993
0.999993
0.999993
0.999992
0.999992
0.999991
0.999991
0.999991
0.99999
0.99999
0.99999
0.99999
0.99999
0.99999
0.99999
0.99999
0.99999
0.99999
0.99999
0.99999
0.99999
0.99999
0.99999
0.99999
0.99999
0.99999
0.99999
0.99999
0.99999
0.99999
0.99999
0.99999
0.99999
0.99999
0.99999
0.99999
0.99999
0.99999
0.99999
0.99999
0.99999
0.99999
0.99999
0.99999
0.999989
0.999983
0.999966
0.999948
0.999934
0.999922
0.999892
0.99985
0.999841
0.999847
0.999844
0.999856
0.999853
0.999795
0.903477
0.0254879
8.69123e-07
8.79897e-07
6.45804e-07
7.37132e-07
1.44495e-06
1.46693e-06
7.58967e-07
6.79971e-07
8.05711e-07
9.16e-07
7.82182e-07
6.15086e-07
6.13876e-07
6.1503e-07
6.88106e-07
8.36559e-07
1.17908e-06
7.86172e-07
5.80402e-07
7.02654e-07
8.70183e-07
9.16882e-07
6.33583e-07
4.75539e-07
4.64442e-07
4.69767e-07
4.87188e-07
5.01956e-07
5.00628e-07
4.37889e-07
3.34559e-07
2.6315e-07
2.45466e-07
2.4148e-07
2.41486e-07
0.999994
0.999993
0.999993
0.999993
0.999992
0.999992
0.999992
0.999991
0.999991
0.999991
0.99999
0.99999
0.99999
0.99999
0.99999
0.99999
0.99999
0.99999
0.99999
0.99999
0.99999
0.99999
0.99999
0.99999
0.99999
0.99999
0.99999
0.99999
0.99999
0.99999
0.99999
0.99999
0.99999
0.99999
0.99999
0.99999
0.99999
0.99999
0.99999
0.99999
0.99999
0.99999
0.99999
0.99999
0.99999
0.999988
0.999985
0.999972
0.999955
0.999939
0.999914
0.999858
0.999831
0.999836
0.999838
0.999838
0.999825
0.999807
0.999738
0.896586
0.0064992
9.43478e-05
9.40079e-05
7.68614e-05
8.14786e-05
7.87114e-05
5.3083e-05
3.4817e-05
2.29103e-05
1.64117e-05
1.39385e-05
1.32157e-05
1.4995e-05
1.78589e-05
2.07789e-05
2.36238e-05
2.52616e-05
2.40306e-05
2.14726e-05
2.11832e-05
2.00352e-05
1.46846e-05
1.05456e-05
5.44735e-06
2.46526e-06
1.07391e-06
7.11571e-07
6.58917e-07
4.92669e-07
4.63134e-07
3.67817e-07
3.42798e-07
3.48994e-07
3.61146e-07
3.40254e-07
2.42112e-07
0.999994
0.999993
0.999993
0.999992
0.999992
0.999992
0.999992
0.999991
0.999991
0.999991
0.99999
0.99999
0.99999
0.99999
0.99999
0.99999
0.99999
0.99999
0.99999
0.99999
0.99999
0.99999
0.99999
0.99999
0.99999
0.99999
0.99999
0.99999
0.99999
0.99999
0.99999
0.99999
0.99999
0.99999
0.99999
0.99999
0.99999
0.99999
0.99999
0.99999
0.99999
0.99999
0.99999
0.99999
0.99999
0.999989
0.999987
0.999979
0.999964
0.999948
0.999912
0.999846
0.999822
0.999807
0.999788
0.999762
0.999729
0.999669
0.999529
0.793809
0.00767932
0.0029671
0.00303444
0.00303765
0.00306775
0.00233874
0.00178643
0.00123528
0.000848803
0.00059198
0.000478894
0.000456179
0.000560104
0.00066792
0.000851167
0.00105971
0.00126314
0.00139241
0.00146996
0.00153826
0.00155644
0.00137678
0.00112573
0.00078257
0.000475223
0.000244024
0.000115764
4.99735e-05
2.22213e-05
1.19607e-05
5.32541e-06
2.48187e-06
1.23915e-06
9.20986e-07
1.06318e-06
7.1898e-07
0.999995
0.999994
0.999993
0.999993
0.999992
0.999992
0.999991
0.999991
0.999991
0.999991
0.99999
0.99999
0.99999
0.99999
0.99999
0.99999
0.99999
0.99999
0.99999
0.99999
0.99999
0.99999
0.99999
0.99999
0.99999
0.99999
0.99999
0.99999
0.99999
0.99999
0.99999
0.99999
0.99999
0.99999
0.99999
0.99999
0.99999
0.99999
0.99999
0.99999
0.99999
0.99999
0.99999
0.99999
0.99999
0.999989
0.999988
0.999983
0.999974
0.999962
0.999932
0.999859
0.999835
0.999829
0.999817
0.999803
0.999796
0.999795
0.999863
0.704685
0.022801
0.0153793
0.0169343
0.0174898
0.0168171
0.0148931
0.0133927
0.0120333
0.0109692
0.0100279
0.00920777
0.00886691
0.00905028
0.0104139
0.0118156
0.0134954
0.0151401
0.0165095
0.0175006
0.0182801
0.0187033
0.0181763
0.0166753
0.0150671
0.0129405
0.0107326
0.00830471
0.00623216
0.00440142
0.00292267
0.00175272
0.00100968
0.000543963
0.000248312
9.53842e-05
3.43647e-05
0.999996
0.999995
0.999994
0.999994
0.999992
0.999992
0.999991
0.999991
0.999991
0.999991
0.99999
0.99999
0.99999
0.99999
0.99999
0.99999
0.99999
0.99999
0.99999
0.99999
0.99999
0.99999
0.99999
0.99999
0.99999
0.99999
0.99999
0.99999
0.99999
0.99999
0.99999
0.99999
0.99999
0.99999
0.99999
0.99999
0.99999
0.99999
0.99999
0.99999
0.99999
0.99999
0.99999
0.99999
0.99999
0.999989
0.999988
0.999985
0.999982
0.999979
0.999955
0.999865
0.999843
0.999846
0.99985
0.999853
0.999861
0.999848
0.999863
0.67812
0.0355256
0.0269337
0.0292247
0.0297776
0.0297634
0.0294373
0.0304547
0.0314813
0.0321876
0.032453
0.0324118
0.032774
0.0341566
0.0356449
0.0375684
0.0397812
0.0421513
0.044427
0.0462743
0.047697
0.0484701
0.0487407
0.0502673
0.0525201
0.0542442
0.0552807
0.0542286
0.0524336
0.0504602
0.046661
0.041503
0.0359033
0.0306859
0.0254113
0.0190977
0.0137786
0.999996
0.999996
0.999996
0.999995
0.999993
0.999992
0.999991
0.999991
0.999991
0.999991
0.99999
0.99999
0.99999
0.99999
0.99999
0.99999
0.99999
0.99999
0.99999
0.99999
0.99999
0.99999
0.99999
0.99999
0.99999
0.99999
0.99999
0.99999
0.99999
0.99999
0.99999
0.99999
0.99999
0.99999
0.99999
0.99999
0.99999
0.99999
0.99999
0.99999
0.99999
0.99999
0.99999
0.99999
0.99999
0.999989
0.999988
0.999984
0.999979
0.99997
0.999964
0.999884
0.999845
0.999849
0.999857
0.99986
0.999861
0.999856
0.999863
0.779675
0.0343325
0.0198773
0.0211805
0.0215869
0.0223316
0.0239108
0.0258527
0.0276947
0.0291738
0.0305297
0.0316256
0.0332755
0.03553
0.0379295
0.0401138
0.0421534
0.0443346
0.0466258
0.0489373
0.0509773
0.0524567
0.0544326
0.0589906
0.0646038
0.0716727
0.0781404
0.084105
0.0915358
0.101388
0.111023
0.121625
0.131986
0.145172
0.166224
0.215801
0.4096
0.999996
0.999996
0.999996
0.999996
0.999994
0.999992
0.999991
0.999991
0.999991
0.999991
0.99999
0.99999
0.99999
0.99999
0.99999
0.99999
0.99999
0.99999
0.99999
0.99999
0.99999
0.99999
0.99999
0.99999
0.99999
0.99999
0.99999
0.99999
0.99999
0.99999
0.99999
0.99999
0.99999
0.99999
0.99999
0.99999
0.99999
0.99999
0.99999
0.99999
0.99999
0.99999
0.99999
0.99999
0.99999
0.999989
0.999988
0.999984
0.999976
0.999961
0.999952
0.999927
0.999861
0.999844
0.999853
0.999859
0.99986
0.999855
0.999863
0.850521
0.0211607
0.00612806
0.00609428
0.00626901
0.00659873
0.00669167
0.00675486
0.00614037
0.00553236
0.00524214
0.00582846
0.00621433
0.00668128
0.00734639
0.00828341
0.009849
0.0115413
0.0129268
0.0136617
0.0138782
0.0132086
0.0110043
0.00798341
0.00454075
0.0026415
0.00319982
0.00361304
0.00418918
0.00506491
0.00572179
0.00533588
0.00413884
0.00358927
0.00448731
0.0052831
0.0050253
0.999996
0.999996
0.999997
0.999996
0.999995
0.999992
0.999991
0.999991
0.999991
0.999991
0.99999
0.99999
0.99999
0.99999
0.99999
0.99999
0.99999
0.99999
0.99999
0.99999
0.99999
0.99999
0.99999
0.99999
0.99999
0.99999
0.99999
0.99999
0.99999
0.99999
0.99999
0.99999
0.99999
0.99999
0.99999
0.99999
0.99999
0.99999
0.99999
0.99999
0.99999
0.99999
0.99999
0.99999
0.99999
0.999989
0.999988
0.999984
0.999976
0.99996
0.999938
0.999936
0.999906
0.999859
0.999843
0.999841
0.999856
0.999855
0.999863
0.911363
0.00984418
0.000698689
0.000658452
0.000609742
0.000595368
0.000521441
0.000467306
0.000456806
0.000484444
0.000533743
0.000593485
0.000611953
0.00058272
0.000550694
0.000536478
0.000580539
0.000667458
0.000708183
0.000696841
0.000629005
0.000497193
0.000331512
0.000142388
3.87597e-05
1.5186e-05
1.29355e-05
1.28031e-05
1.51115e-05
1.67268e-05
1.80607e-05
1.23412e-05
4.44707e-06
5.73422e-07
3.6721e-07
3.67208e-07
3.67208e-07
0.999996
0.999996
0.999997
0.999996
0.999995
0.999992
0.999991
0.999991
0.999991
0.999991
0.99999
0.99999
0.99999
0.99999
0.99999
0.99999
0.99999
0.99999
0.99999
0.99999
0.99999
0.99999
0.99999
0.99999
0.99999
0.99999
0.99999
0.99999
0.99999
0.99999
0.99999
0.99999
0.99999
0.99999
0.99999
0.99999
0.99999
0.99999
0.99999
0.99999
0.99999
0.99999
0.99999
0.99999
0.99999
0.99999
0.999988
0.999984
0.999976
0.99996
0.999936
0.999928
0.999925
0.999896
0.999863
0.999857
0.999868
0.999851
0.999848
0.938274
0.00492781
3.10235e-05
3.52993e-05
2.99919e-05
2.74318e-05
1.92795e-05
1.43988e-05
1.2928e-05
1.42541e-05
1.62464e-05
1.83006e-05
1.94423e-05
1.97659e-05
1.73298e-05
1.40674e-05
1.01945e-05
7.00793e-06
4.59037e-06
3.042e-06
2.30359e-06
1.86713e-06
1.5993e-06
1.01633e-06
7.84533e-07
6.79158e-07
6.55998e-07
6.55996e-07
6.55998e-07
6.61689e-07
7.06205e-07
6.69843e-07
4.94597e-07
4.66426e-07
5.53841e-07
5.51016e-07
3.97569e-07
0.999997
0.999996
0.999996
0.999996
0.999996
0.999993
0.999992
0.999991
0.999991
0.99999
0.99999
0.99999
0.99999
0.99999
0.99999
0.99999
0.99999
0.99999
0.99999
0.99999
0.99999
0.99999
0.99999
0.99999
0.99999
0.99999
0.99999
0.99999
0.99999
0.99999
0.99999
0.99999
0.99999
0.99999
0.99999
0.99999
0.99999
0.99999
0.99999
0.99999
0.99999
0.99999
0.99999
0.99999
0.99999
0.99999
0.999988
0.999985
0.999976
0.999959
0.999935
0.999924
0.999923
0.999915
0.999894
0.999883
0.999881
0.999842
0.999686
0.956778
0.017756
9.50514e-07
1.15192e-06
1.0357e-06
1.18037e-06
7.56264e-07
9.98837e-07
7.0728e-07
6.96249e-07
6.96249e-07
7.15256e-07
8.76011e-07
9.24378e-07
8.23131e-07
7.68553e-07
8.26199e-07
8.48371e-07
8.12816e-07
8.26583e-07
8.75781e-07
8.88198e-07
8.487e-07
7.74841e-07
7.31236e-07
7.29283e-07
7.33056e-07
7.30412e-07
7.30422e-07
7.29551e-07
7.23651e-07
6.98118e-07
5.7249e-07
4.39785e-07
4.86372e-07
5.24524e-07
3.94567e-07
0.999997
0.999996
0.999997
0.999996
0.999997
0.999995
0.999993
0.999991
0.999991
0.99999
0.99999
0.99999
0.99999
0.99999
0.99999
0.99999
0.99999
0.99999
0.99999
0.99999
0.99999
0.99999
0.99999
0.99999
0.99999
0.99999
0.99999
0.99999
0.99999
0.99999
0.99999
0.99999
0.99999
0.99999
0.99999
0.99999
0.99999
0.99999
0.99999
0.99999
0.99999
0.99999
0.99999
0.99999
0.99999
0.99999
0.999989
0.999985
0.999974
0.999955
0.999937
0.999923
0.999919
0.99991
0.999903
0.999868
0.999852
0.999802
0.999465
0.963682
0.0374901
1.16943e-06
6.94216e-07
7.25961e-07
7.63403e-07
7.57e-07
7.25556e-07
7.0741e-07
7.19345e-07
7.34576e-07
7.26457e-07
7.21244e-07
7.2655e-07
7.28556e-07
7.26151e-07
7.18868e-07
7.08205e-07
7.08222e-07
7.10302e-07
7.16168e-07
7.13363e-07
7.14322e-07
7.15955e-07
7.17055e-07
7.21993e-07
7.30375e-07
7.32036e-07
7.30899e-07
7.27625e-07
7.25025e-07
7.14402e-07
6.48342e-07
4.68155e-07
4.60594e-07
5.07837e-07
4.02906e-07
0.999997
0.999997
0.999997
0.999997
0.999998
0.999997
0.999995
0.999991
0.99999
0.99999
0.99999
0.99999
0.99999
0.99999
0.99999
0.99999
0.99999
0.99999
0.99999
0.99999
0.99999
0.99999
0.99999
0.99999
0.99999
0.99999
0.99999
0.99999
0.99999
0.99999
0.99999
0.99999
0.99999
0.99999
0.99999
0.99999
0.99999
0.99999
0.99999
0.99999
0.99999
0.99999
0.99999
0.99999
0.99999
0.99999
0.999989
0.999986
0.99997
0.999951
0.999938
0.999923
0.999909
0.999893
0.999872
0.999859
0.99986
0.999835
0.999752
0.958476
0.0355648
1.04403e-06
6.99359e-07
6.94553e-07
6.94243e-07
7.03847e-07
7.03824e-07
7.01115e-07
7.01416e-07
7.0262e-07
7.04574e-07
7.09745e-07
7.10313e-07
7.14735e-07
7.26881e-07
7.30461e-07
7.25016e-07
7.15757e-07
7.14585e-07
7.12854e-07
7.12916e-07
7.15184e-07
7.18867e-07
7.20657e-07
7.21136e-07
7.22673e-07
7.25121e-07
7.24583e-07
7.23356e-07
7.22614e-07
7.13977e-07
6.58427e-07
4.86225e-07
4.42328e-07
4.9135e-07
4.15628e-07
0.999997
0.999996
0.999997
0.999997
0.999998
0.999998
0.999997
0.999992
0.99999
0.99999
0.99999
0.99999
0.99999
0.99999
0.99999
0.99999
0.99999
0.99999
0.99999
0.99999
0.99999
0.99999
0.99999
0.99999
0.99999
0.99999
0.99999
0.99999
0.99999
0.99999
0.99999
0.99999
0.99999
0.99999
0.99999
0.99999
0.99999
0.99999
0.99999
0.99999
0.99999
0.99999
0.99999
0.99999
0.99999
0.99999
0.999989
0.999985
0.999967
0.999947
0.999938
0.999926
0.999911
0.999896
0.999887
0.99988
0.99988
0.999868
0.999759
0.941886
0.0228169
2.43952e-05
6.94215e-07
6.95637e-07
6.94218e-07
6.94276e-07
6.94337e-07
6.94236e-07
6.9436e-07
6.94285e-07
6.94384e-07
6.96189e-07
6.97945e-07
7.00998e-07
7.08406e-07
7.14982e-07
7.14773e-07
7.13401e-07
7.10994e-07
7.08659e-07
7.07717e-07
7.07741e-07
7.08795e-07
7.10692e-07
7.12682e-07
7.16988e-07
7.1541e-07
7.15425e-07
7.16892e-07
7.16899e-07
7.05557e-07
6.40387e-07
4.69879e-07
4.27666e-07
4.78568e-07
4.19213e-07
0.999998
0.999998
0.999998
0.999998
0.999998
0.999998
0.999998
0.999994
0.99999
0.99999
0.99999
0.99999
0.99999
0.99999
0.99999
0.99999
0.99999
0.99999
0.99999
0.99999
0.99999
0.99999
0.99999
0.99999
0.99999
0.99999
0.99999
0.99999
0.99999
0.99999
0.99999
0.99999
0.99999
0.99999
0.99999
0.99999
0.99999
0.99999
0.99999
0.99999
0.99999
0.99999
0.99999
0.99999
0.99999
0.99999
0.999989
0.999984
0.999962
0.999942
0.999931
0.999923
0.999915
0.999908
0.9999
0.999883
0.999861
0.99985
0.999593
0.957454
0.028589
7.94309e-05
6.94217e-07
7.06143e-07
7.02672e-07
7.00258e-07
7.0242e-07
7.02436e-07
7.00733e-07
6.99317e-07
6.99477e-07
7.01149e-07
7.03621e-07
7.04791e-07
7.0719e-07
7.0779e-07
7.08913e-07
7.11972e-07