/*--------------------------------*- C++ -*----------------------------------*\
| =========                 |                                                 |
| \\      /  F ield         | OpenFOAM: The Open Source CFD Toolbox           |
|  \\    /   O peration     | Version:  2.3.0                                 |
|   \\  /    A nd           | Web:      www.OpenFOAM.org                      |
|    \\/     M anipulation  |                                                 |
\*---------------------------------------------------------------------------*/
FoamFile
{
    version     2.0;
    format      ascii;
    class       volScalarField;
    location    "17";
    object      alpha.water;
}
// * * * * * * * * * * * * * * * * * * * * * * * * * * * * * * * * * * * * * //

dimensions      [0 0 0 0 0 0 0];

internalField   nonuniform List<scalar> 
6144
(
5.52687e-06
6.18191e-06
6.68983e-06
7.19808e-06
7.88463e-06
8.69182e-06
9.38932e-06
9.78944e-06
9.92094e-06
9.96163e-06
9.98005e-06
9.98834e-06
9.99042e-06
9.99187e-06
9.99105e-06
9.99105e-06
9.9908e-06
9.9908e-06
9.99076e-06
9.99076e-06
9.99073e-06
9.99073e-06
9.99068e-06
9.99068e-06
9.99063e-06
9.99061e-06
9.99052e-06
9.99049e-06
9.99035e-06
9.99033e-06
9.99017e-06
9.99017e-06
9.99004e-06
9.99003e-06
9.99003e-06
9.99002e-06
9.99002e-06
9.99002e-06
9.99002e-06
9.99002e-06
9.99002e-06
9.99002e-06
9.99002e-06
9.99002e-06
9.99671e-06
1.07474e-05
1.98166e-05
4.26636e-05
6.07063e-05
6.98877e-05
7.65208e-05
8.36627e-05
9.15014e-05
0.000104397
0.00011491
0.000131283
0.000137727
0.000147373
0.000658304
0.0417557
0.949888
0.999682
0.999999
0.999999
0.999999
0.999999
0.999999
0.999999
0.999999
0.999999
0.999999
0.999999
0.999999
0.999999
0.999999
0.999999
0.999999
0.999999
0.999999
0.999999
0.999999
0.999999
0.999999
0.999999
0.999999
0.999999
0.999999
0.999999
0.999999
0.999999
0.999999
0.999999
0.999999
1
1
1
5.57771e-06
6.08087e-06
6.50421e-06
7.22201e-06
8.0417e-06
8.70781e-06
9.45914e-06
9.80867e-06
9.85891e-06
9.91637e-06
9.96974e-06
9.99165e-06
9.99609e-06
9.99767e-06
9.99649e-06
9.99681e-06
9.99615e-06
9.99626e-06
9.99597e-06
9.99606e-06
9.99591e-06
9.99595e-06
9.99588e-06
9.9959e-06
9.99585e-06
9.99585e-06
9.9958e-06
9.9958e-06
9.99575e-06
9.9958e-06
9.9957e-06
9.99585e-06
9.99564e-06
9.99583e-06
9.99551e-06
9.99578e-06
9.99541e-06
9.99562e-06
9.99526e-06
9.99511e-06
9.99457e-06
9.99394e-06
9.99293e-06
9.99434e-06
1.00128e-05
1.12101e-05
2.08636e-05
4.19284e-05
5.84747e-05
6.68971e-05
7.26178e-05
8.37653e-05
9.75125e-05
0.000119181
0.000135033
0.000153243
0.000156206
0.000161054
0.000325688
0.0408837
0.959987
0.999812
0.999999
0.999999
0.999999
0.999999
0.999999
0.999999
0.999999
0.999999
0.999999
0.999999
0.999999
0.999999
0.999999
0.999999
0.999999
0.999999
0.999999
0.999999
0.999999
0.999999
0.999999
0.999999
1
1
0.999999
0.999999
0.999999
0.999999
0.999999
0.999999
0.999999
1
1
1
5.7337e-06
6.0711e-06
6.40253e-06
6.99174e-06
7.69054e-06
8.49053e-06
9.28995e-06
9.76901e-06
9.80879e-06
9.89103e-06
9.95328e-06
9.98357e-06
9.99322e-06
9.99669e-06
9.99633e-06
9.99702e-06
9.99665e-06
9.99686e-06
9.99675e-06
9.99686e-06
9.9968e-06
9.99688e-06
9.99687e-06
9.99694e-06
9.99694e-06
9.99697e-06
9.99693e-06
9.99693e-06
9.99687e-06
9.99688e-06
9.99677e-06
9.99683e-06
9.99664e-06
9.99673e-06
9.99646e-06
9.99653e-06
9.99609e-06
9.99608e-06
9.99555e-06
9.99528e-06
9.99456e-06
9.99399e-06
9.99407e-06
1.00059e-05
1.0136e-05
1.20733e-05
2.1412e-05
3.89141e-05
5.34685e-05
6.31599e-05
7.04288e-05
9.15983e-05
0.000115949
0.000144306
0.000156765
0.000170052
0.000165238
0.000169023
0.000389036
0.0440736
0.959529
0.999785
0.999999
0.999999
0.999999
0.999999
0.999999
0.999999
0.999999
0.999999
0.999999
0.999999
0.999999
0.999999
0.999999
0.999999
0.999999
0.999999
0.999999
0.999999
0.999999
0.999999
0.999999
0.999999
1
1
1
0.999999
0.999999
0.999999
1
1
1
1
1
1
5.91502e-06
6.26621e-06
6.42646e-06
6.91932e-06
7.46273e-06
8.23748e-06
9.09852e-06
9.69912e-06
9.82509e-06
9.88259e-06
9.93542e-06
9.97393e-06
9.98903e-06
9.99429e-06
9.99398e-06
9.99397e-06
9.99397e-06
9.99397e-06
9.99397e-06
9.99397e-06
9.99379e-06
9.99365e-06
9.99351e-06
9.99339e-06
9.99329e-06
9.99316e-06
9.99305e-06
9.99291e-06
9.9928e-06
9.99268e-06
9.99256e-06
9.99247e-06
9.99234e-06
9.99229e-06
9.99227e-06
9.99226e-06
9.99226e-06
9.99226e-06
9.99225e-06
9.99225e-06
9.99225e-06
9.99225e-06
9.99464e-06
1.00329e-05
1.04187e-05
1.292e-05
2.0691e-05
3.40511e-05
4.70751e-05
5.81498e-05
6.99221e-05
0.000104818
0.000136483
0.000163424
0.00016975
0.000179413
0.000166857
0.000180707
0.00059976
0.0680303
0.977308
0.999917
0.999987
0.99999
0.999991
0.999993
0.999995
0.999997
0.999997
0.999998
0.999999
0.999999
0.999999
0.999999
0.999999
0.999999
0.999998
0.999999
0.999999
0.999999
0.999999
0.999999
0.999999
0.999999
0.999999
0.999999
0.999999
0.999999
0.999999
1
1
1
1
1
1
1
5.96635e-06
6.43091e-06
6.75533e-06
7.02817e-06
7.36983e-06
7.95002e-06
8.48345e-06
9.32763e-06
9.81812e-06
9.90812e-06
9.90865e-06
9.96276e-06
9.98764e-06
9.99622e-06
9.99541e-06
9.9969e-06
9.99643e-06
9.99713e-06
9.99709e-06
9.99737e-06
9.99735e-06
9.99745e-06
9.9974e-06
9.99743e-06
9.9973e-06
9.99727e-06
9.99714e-06
9.99708e-06
9.99686e-06
9.99676e-06
9.99647e-06
9.99641e-06
9.99603e-06
9.99597e-06
9.99548e-06
9.99547e-06
9.99499e-06
9.99492e-06
9.99445e-06
9.99424e-06
9.9938e-06
9.99429e-06
9.99859e-06
1.0055e-05
1.06435e-05
1.31328e-05
1.88262e-05
2.87189e-05
4.1141e-05
5.4069e-05
7.1419e-05
0.000115692
0.000149926
0.00017167
0.000178105
0.000185759
0.000188682
0.000196289
0.00115437
0.244186
0.996427
0.999363
0.999432
0.999502
0.99956
0.999641
0.999723
0.999808
0.999866
0.999903
0.999918
0.999921
0.999914
0.999906
0.999904
0.999905
0.999903
0.999902
0.999906
0.999908
0.999911
0.999924
0.999943
0.999972
0.999986
0.999993
0.999995
0.999996
0.999997
0.999998
0.999998
0.999999
0.999999
0.999999
1
1
5.83215e-06
6.36456e-06
6.91531e-06
7.22443e-06
7.55546e-06
7.89243e-06
8.05325e-06
8.82288e-06
9.5598e-06
9.80413e-06
9.86214e-06
9.94673e-06
9.97675e-06
9.99078e-06
9.99044e-06
9.99044e-06
9.99044e-06
9.99044e-06
9.99044e-06
9.99044e-06
9.99051e-06
9.99062e-06
9.9906e-06
9.99054e-06
9.99048e-06
9.99039e-06
9.99035e-06
9.99026e-06
9.99021e-06
9.99013e-06
9.99006e-06
9.99e-06
9.98986e-06
9.98978e-06
9.98958e-06
9.98953e-06
9.98949e-06
9.98949e-06
9.98948e-06
9.98948e-06
9.98948e-06
9.98967e-06
9.99938e-06
1.01004e-05
1.09343e-05
1.34917e-05
1.78976e-05
2.50734e-05
3.4007e-05
4.27326e-05
5.66623e-05
0.000115975
0.000151261
0.000166194
0.000161679
0.000163394
0.000147607
0.000162859
0.000137162
0.359553
0.993326
0.995929
0.995958
0.996175
0.996471
0.996822
0.997349
0.997882
0.998321
0.998546
0.99861
0.998669
0.998693
0.998686
0.998673
0.998657
0.998639
0.998642
0.99869
0.998689
0.998698
0.998832
0.999163
0.999534
0.999848
0.999969
0.999956
0.999965
0.999982
0.99998
0.999982
0.999992
0.999995
0.999998
0.999999
1
5.51184e-06
5.79966e-06
6.83656e-06
7.24422e-06
7.7911e-06
8.03786e-06
7.99367e-06
8.58935e-06
9.12088e-06
9.54911e-06
9.7675e-06
9.92965e-06
9.97897e-06
9.99822e-06
9.99542e-06
9.99726e-06
9.99555e-06
9.99591e-06
9.99535e-06
9.99547e-06
9.99527e-06
9.99529e-06
9.9952e-06
9.99518e-06
9.99508e-06
9.99506e-06
9.99498e-06
9.99491e-06
9.99474e-06
9.99462e-06
9.99442e-06
9.99434e-06
9.99417e-06
9.99417e-06
9.994e-06
9.99415e-06
9.99437e-06
9.99482e-06
9.99519e-06
9.99565e-06
9.99596e-06
9.9964e-06
1.00035e-05
1.01217e-05
1.10146e-05
1.30327e-05
1.5438e-05
1.86475e-05
2.18054e-05
2.45811e-05
3.71218e-05
0.000105312
0.000134079
0.000159927
0.000153888
0.00015264
0.000139453
0.000144473
0.000137162
0.311954
0.987118
0.991413
0.991217
0.991138
0.991461
0.992156
0.993248
0.994323
0.995304
0.995886
0.996201
0.996347
0.996468
0.996572
0.996727
0.996839
0.996786
0.996732
0.996704
0.9967
0.996875
0.99713
0.997821
0.998809
0.999568
0.999996
0.99993
0.999999
1
1
1
1
1
1
1
1
5.29709e-06
5.35035e-06
6.42825e-06
7.09377e-06
7.78062e-06
8.17651e-06
8.17027e-06
8.61616e-06
8.93329e-06
9.37452e-06
9.707e-06
9.91672e-06
9.97763e-06
9.99762e-06
9.99543e-06
9.9984e-06
9.99611e-06
9.99783e-06
9.99724e-06
9.99778e-06
9.99783e-06
9.99804e-06
9.99819e-06
9.99838e-06
9.99851e-06
9.99864e-06
9.99879e-06
9.99892e-06
9.99911e-06
9.9993e-06
9.99948e-06
9.99965e-06
9.99981e-06
1.00001e-05
1.00005e-05
1.0001e-05
1.0001e-05
1.0001e-05
1.0001e-05
1.0001e-05
1.00006e-05
1.00003e-05
1.00076e-05
1.00982e-05
1.07293e-05
1.21209e-05
1.38639e-05
1.59122e-05
1.87531e-05
2.15464e-05
2.88929e-05
8.39717e-05
0.000134669
0.000151163
0.000143069
0.000142026
0.000141596
0.00014305
0.000137162
0.284233
0.982314
0.988832
0.988463
0.988338
0.988706
0.989109
0.989879
0.990646
0.991413
0.992021
0.992556
0.993354
0.994125
0.994697
0.994855
0.99445
0.994102
0.993746
0.9934
0.993071
0.992833
0.993186
0.994052
0.995031
0.996236
0.997241
0.997594
0.998018
0.998821
0.999432
1
1
1
1
0.998889
0.997498
4.83313e-06
5.27253e-06
6.00795e-06
7.05568e-06
7.70169e-06
8.29182e-06
8.3929e-06
8.83e-06
8.94347e-06
9.29627e-06
9.64687e-06
9.88844e-06
9.96419e-06
9.99008e-06
9.99009e-06
9.99244e-06
9.99173e-06
9.99173e-06
9.9919e-06
9.99267e-06
9.99268e-06
9.99288e-06
9.993e-06
9.9932e-06
9.99332e-06
9.99341e-06
9.99355e-06
9.99375e-06
9.99405e-06
9.9944e-06
9.99469e-06
9.99493e-06
9.99512e-06
9.99539e-06
9.99563e-06
9.99581e-06
9.99582e-06
9.99582e-06
9.99582e-06
9.99583e-06
9.99583e-06
9.99594e-06
1.00062e-05
1.00748e-05
1.04941e-05
1.1864e-05
1.50466e-05
2.08666e-05
2.81814e-05
3.30916e-05
3.5884e-05
5.80104e-05
0.000123827
0.000154326
0.00014266
0.000140878
0.000140805
0.000142142
0.000137162
0.202288
0.985734
0.995809
0.996165
0.996587
0.996761
0.997081
0.997513
0.997877
0.998151
0.998243
0.998285
0.998431
0.998589
0.998748
0.998858
0.998903
0.998924
0.998928
0.99888
0.998841
0.998867
0.99904
0.999286
0.999468
0.999579
0.999613
0.999615
0.99959
0.999587
0.999694
0.99983
0.999944
0.999989
1
1
1
4.62902e-06
5.24312e-06
5.64019e-06
6.9463e-06
7.69578e-06
8.50494e-06
8.67368e-06
9.02244e-06
9.11337e-06
9.52705e-06
9.73377e-06
9.90939e-06
9.96781e-06
9.99846e-06
9.99706e-06
9.99939e-06
9.99733e-06
9.9995e-06
9.9987e-06
9.99975e-06
9.99964e-06
9.99984e-06
9.99989e-06
1e-05
1.00001e-05
1.00001e-05
9.99998e-06
9.99995e-06
9.99994e-06
9.99996e-06
9.99987e-06
9.99969e-06
9.9994e-06
9.99911e-06
9.99873e-06
9.99832e-06
9.9979e-06
9.99755e-06
9.9973e-06
9.99721e-06
9.9972e-06
9.99881e-06
1.00064e-05
1.00516e-05
1.03623e-05
1.19521e-05
1.60437e-05
2.3283e-05
3.37515e-05
4.24377e-05
4.52044e-05
4.93085e-05
9.07116e-05
0.000152001
0.000155373
0.000153895
0.000141021
0.000150495
0.000137162
0.112662
0.992162
0.999625
0.999721
0.99979
0.999801
0.999824
0.999843
0.999855
0.999859
0.999859
0.999862
0.999889
0.999913
0.999939
0.999955
0.999967
0.999973
0.999975
0.999973
0.999972
0.999978
0.999983
0.999993
0.999997
0.999999
0.999999
0.999999
0.999999
0.999998
0.999998
0.999998
0.999999
0.999999
0.999999
0.999999
1
4.45691e-06
5.45978e-06
5.8455e-06
6.83972e-06
7.60753e-06
8.89955e-06
9.17287e-06
9.58373e-06
9.66648e-06
9.89501e-06
9.91935e-06
9.98014e-06
9.97504e-06
9.99902e-06
9.99244e-06
9.99368e-06
9.99203e-06
9.99203e-06
9.99203e-06
9.99283e-06
9.99366e-06
9.99435e-06
9.99469e-06
9.99502e-06
9.99525e-06
9.99538e-06
9.99544e-06
9.9955e-06
9.99556e-06
9.99563e-06
9.99567e-06
9.9957e-06
9.9957e-06
9.9957e-06
9.99574e-06
9.99581e-06
9.99583e-06
9.99584e-06
9.99588e-06
9.99636e-06
9.99708e-06
9.99913e-06
1.00034e-05
1.00239e-05
1.02286e-05
1.16752e-05
1.55806e-05
2.32885e-05
3.52489e-05
4.8293e-05
5.5863e-05
5.58037e-05
6.54887e-05
0.000128904
0.000155565
0.000179247
0.000166677
0.000177945
0.000137162
0.0734303
0.994667
0.999992
0.999995
0.999996
0.999996
0.999996
0.999997
0.999997
0.999996
0.999996
0.999996
0.999996
0.999997
0.999998
0.999999
0.999999
0.999999
0.999999
0.999999
0.999999
0.999999
0.999999
0.999999
0.999999
0.999999
0.999999
0.999999
0.999999
0.999999
0.999999
0.999999
0.999999
0.999999
0.999999
0.999999
1
3.4183e-06
5.13462e-06
5.88281e-06
6.99787e-06
7.68645e-06
9.245e-06
9.60397e-06
9.84815e-06
9.90842e-06
9.97002e-06
9.99001e-06
1.001e-05
1.0005e-05
1.001e-05
9.99943e-06
1.00077e-05
9.99936e-06
1.0002e-05
9.99865e-06
9.9992e-06
9.99837e-06
9.99845e-06
9.99826e-06
9.99819e-06
9.99811e-06
9.99805e-06
9.99798e-06
9.99797e-06
9.99794e-06
9.99796e-06
9.99792e-06
9.99792e-06
9.99789e-06
9.99789e-06
9.99786e-06
9.99788e-06
9.99788e-06
9.99781e-06
9.9982e-06
9.99995e-06
1.00025e-05
1.00051e-05
1.00069e-05
1.00153e-05
1.01036e-05
1.11312e-05
1.44816e-05
2.20301e-05
3.51138e-05
4.98215e-05
6.08312e-05
6.68292e-05
6.58469e-05
9.7656e-05
0.000138474
0.000173941
0.000174536
0.000185708
0.0001624
0.0421685
0.980249
0.999996
0.999999
0.999999
0.999999
0.999999
0.999999
0.999999
0.999999
0.999999
0.999999
0.999999
0.999999
0.999999
0.999999
0.999999
0.999999
0.999999
0.999999
0.999999
0.999999
0.999999
0.999999
0.999999
0.999999
0.999999
0.999999
0.999999
0.999999
0.999999
0.999999
0.999999
1
0.999999
0.999999
1
1.9187e-06
3.93228e-06
5.4152e-06
6.83711e-06
7.19754e-06
8.74509e-06
9.50634e-06
9.84979e-06
9.89779e-06
9.95962e-06
9.98633e-06
1.001e-05
1.001e-05
1.001e-05
1.001e-05
1.001e-05
1.001e-05
1.001e-05
1.00099e-05
1.00099e-05
1.00096e-05
1.00096e-05
1.00091e-05
1.00085e-05
1.0008e-05
1.00074e-05
1.00069e-05
1.00065e-05
1.0006e-05
1.00056e-05
1.0005e-05
1.00044e-05
1.00037e-05
1.0003e-05
1.00021e-05
1.00014e-05
1.00009e-05
1.0001e-05
1.00021e-05
1.00051e-05
1.00073e-05
1.00089e-05
1.00094e-05
1.00145e-05
1.00481e-05
1.06001e-05
1.31664e-05
2.00314e-05
3.43652e-05
4.97202e-05
6.17927e-05
7.18222e-05
6.94728e-05
8.09307e-05
0.0001106
0.000149724
0.000165254
0.000178633
0.000341507
0.0261811
0.950315
0.999875
0.999999
0.999999
0.999999
0.999999
0.999999
0.999999
0.999999
0.999999
0.999999
0.999999
0.999999
0.999999
0.999999
0.999999
0.999999
0.999999
0.999999
0.999999
0.999999
0.999999
0.999999
0.999999
0.999999
0.999999
0.999999
0.999999
0.999999
0.999999
0.999999
0.999999
1
0.999999
0.999999
1
2.08025e-06
4.39215e-06
5.22321e-06
5.66485e-06
4.19463e-06
6.29234e-06
8.3617e-06
9.7684e-06
9.8851e-06
9.96821e-06
9.97843e-06
1.00083e-05
1.00058e-05
1.001e-05
1.00083e-05
1.001e-05
1.00071e-05
1.00099e-05
1.00084e-05
1.00095e-05
1.00089e-05
1.00091e-05
1.00088e-05
1.00085e-05
1.00081e-05
1.00077e-05
1.00074e-05
1.00071e-05
1.00067e-05
1.00064e-05
1.0006e-05
1.00057e-05
1.00053e-05
1.0005e-05
1.00046e-05
1.00042e-05
1.00039e-05
1.00042e-05
1.0005e-05
1.00062e-05
1.0007e-05
1.00077e-05
1.00079e-05
1.00127e-05
1.00365e-05
1.0322e-05
1.2348e-05
1.94901e-05
3.52876e-05
5.07325e-05
6.17291e-05
7.24627e-05
7.81007e-05
8.35841e-05
9.91273e-05
0.0001294
0.000145509
0.000156489
0.000328192
0.0230633
0.921279
0.99943
0.999999
0.999999
0.999999
0.999999
0.999999
0.999999
0.999999
0.999999
0.999999
0.999999
0.999999
0.999999
0.999999
0.999999
0.999999
0.999999
0.999999
0.999999
0.999999
0.999999
0.999999
0.999999
0.999999
0.999999
0.999999
0.999999
0.999999
0.999999
0.999999
0.999999
1
1
0.999999
1
1.86709e-06
4.02226e-06
4.56752e-06
4.48469e-06
2.14532e-06
2.65854e-06
4.44516e-06
9.4893e-06
9.8962e-06
9.98599e-06
9.97897e-06
1.00062e-05
9.99739e-06
1.00044e-05
9.99862e-06
1.00061e-05
9.99974e-06
1.00055e-05
1.00026e-05
1.00045e-05
1.00038e-05
1.00043e-05
1.00043e-05
1.00043e-05
1.00043e-05
1.00043e-05
1.00042e-05
1.00042e-05
1.00041e-05
1.00039e-05
1.00038e-05
1.00037e-05
1.00035e-05
1.00034e-05
1.00031e-05
1.0003e-05
1.00028e-05
1.00031e-05
1.00035e-05
1.00038e-05
1.00034e-05
1.0003e-05
1.00027e-05
1.00076e-05
1.00277e-05
1.02254e-05
1.18786e-05
1.84081e-05
3.55071e-05
5.15055e-05
6.05173e-05
6.96683e-05
7.72321e-05
8.35818e-05
9.19714e-05
0.000112483
0.000123513
0.000132258
0.000366171
0.0393019
0.932451
0.999543
0.999999
0.999999
0.999999
0.999999
0.999999
0.999999
0.999999
0.999999
0.999999
0.999999
0.999999
0.999999
0.999999
0.999999
0.999999
0.999999
0.999999
0.999999
0.999999
0.999999
0.999999
0.999999
0.999999
0.999999
0.999999
0.999999
0.999999
0.999999
0.999999
0.999999
1
1
0.999999
1
9.36637e-07
2.02449e-06
2.15329e-06
2.36837e-06
2.29279e-06
2.12767e-06
2.2821e-06
5.94762e-06
9.52446e-06
9.97726e-06
9.98418e-06
1.00084e-05
1.00076e-05
1.00086e-05
1.00086e-05
1.00087e-05
1.00087e-05
1.00107e-05
1.00107e-05
1.00107e-05
1.00107e-05
1.00107e-05
1.00107e-05
1.00107e-05
1.00107e-05
1.00107e-05
1.00107e-05
1.00107e-05
1.00107e-05
1.00107e-05
1.00107e-05
1.00107e-05
1.00106e-05
1.00106e-05
1.00105e-05
1.00105e-05
1.00105e-05
1.00105e-05
1.00105e-05
1.00105e-05
1.00098e-05
1.00092e-05
1.00086e-05
1.00132e-05
1.00349e-05
1.02166e-05
1.13357e-05
1.66393e-05
3.89266e-05
5.81226e-05
6.73183e-05
7.4376e-05
8.09093e-05
8.76442e-05
9.54321e-05
0.000107042
0.0001096
0.000122286
0.000840528
0.0483026
0.946319
0.999624
0.999999
0.999999
0.999999
0.999999
0.999999
0.999999
0.999999
0.999999
0.999999
0.999999
0.999999
0.999999
0.999999
0.999999
0.999999
0.999999
0.999999
0.999999
0.999999
0.999999
0.999999
0.999999
0.999999
0.999999
0.999999
0.999999
0.999999
0.999999
0.999999
0.999999
1
1
0.999999
1
5.82633e-06
6.43898e-06
6.86383e-06
7.37526e-06
8.08128e-06
8.90469e-06
9.50747e-06
9.70858e-06
9.8503e-06
9.9387e-06
9.98242e-06
1.00053e-05
1.00086e-05
1.00086e-05
1.00086e-05
1.00086e-05
1.00086e-05
1.00086e-05
1.00083e-05
1.00081e-05
1.0008e-05
1.00079e-05
1.00079e-05
1.0008e-05
1.0008e-05
1.0008e-05
1.0008e-05
1.0008e-05
1.00081e-05
1.00082e-05
1.00085e-05
1.00091e-05
1.00093e-05
1.00094e-05
1.00094e-05
1.00094e-05
1.00093e-05
1.00093e-05
1.00093e-05
1.00091e-05
1.00084e-05
1.00076e-05
1.00063e-05
1.00053e-05
1.00071e-05
1.05983e-05
1.91157e-05
4.16772e-05
5.9476e-05
6.83636e-05
7.48165e-05
8.19666e-05
9.15753e-05
0.00010631
0.000115307
0.000129061
0.000130716
0.000148517
0.000471269
0.0352216
0.956202
0.999903
0.999999
0.999999
0.999999
0.999999
0.999999
0.999999
0.999999
0.999999
0.999999
0.999999
0.999999
0.999999
0.999999
0.999999
0.999999
0.999999
0.999999
0.999999
0.999999
0.999999
0.999999
0.999999
0.999999
0.999999
0.999999
0.999999
0.999999
0.999999
0.999999
0.999999
0.999999
1
1
1
6.20798e-06
6.69535e-06
7.00162e-06
7.59975e-06
8.10576e-06
8.50249e-06
8.9166e-06
9.32185e-06
9.64967e-06
9.83049e-06
9.93609e-06
9.98424e-06
1.00023e-05
1.00084e-05
1.00067e-05
1.00081e-05
1.00076e-05
1.00081e-05
1.00082e-05
1.00082e-05
1.00082e-05
1.00082e-05
1.00082e-05
1.00082e-05
1.00081e-05
1.00081e-05
1.00081e-05
1.0008e-05
1.00077e-05
1.00074e-05
1.00071e-05
1.00067e-05
1.00065e-05
1.00064e-05
1.00061e-05
1.00057e-05
1.00052e-05
1.00047e-05
1.0004e-05
1.00034e-05
1.00027e-05
1.00029e-05
1.00075e-05
1.00424e-05
1.00939e-05
1.06353e-05
1.84789e-05
3.86923e-05
5.66358e-05
6.70831e-05
7.55023e-05
8.73232e-05
0.000114912
0.000139852
0.000142128
0.000148049
0.000144521
0.000152078
0.000240127
0.0663392
0.980159
0.99999
0.999999
0.999999
0.999999
0.999999
0.999999
0.999999
0.999999
0.999999
0.999999
0.999999
0.999999
0.999999
0.999999
0.999999
0.999999
0.999999
0.999999
0.999999
0.999999
0.999999
0.999999
1
1
1
0.999999
0.999999
0.999999
0.999999
0.999999
0.999999
0.999999
1
1
1
6.29591e-06
6.84613e-06
6.96498e-06
7.24499e-06
7.57571e-06
8.06852e-06
8.51731e-06
8.96966e-06
9.34518e-06
9.60041e-06
9.80103e-06
9.93834e-06
9.99042e-06
1.0005e-05
1.00026e-05
1.00048e-05
1.00039e-05
1.00046e-05
1.00045e-05
1.00047e-05
1.00046e-05
1.00046e-05
1.00046e-05
1.00046e-05
1.00045e-05
1.00045e-05
1.00044e-05
1.00043e-05
1.00041e-05
1.00039e-05
1.00037e-05
1.00035e-05
1.00033e-05
1.0003e-05
1.00027e-05
1.00023e-05
1.00019e-05
1.00015e-05
1.00011e-05
1.00008e-05
1.00007e-05
1.00018e-05
1.00107e-05
1.00957e-05
1.04373e-05
1.12032e-05
1.71823e-05
3.3816e-05
5.1582e-05
6.64933e-05
7.8121e-05
0.000108436
0.000150278
0.000158997
0.000152691
0.000155568
0.000144402
0.000147035
0.000205464
0.0965235
0.974512
0.999999
0.999999
0.999999
0.999999
0.999999
0.999999
0.999999
0.999999
0.999999
0.999999
0.999999
0.999999
0.999999
0.999999
0.999999
0.999999
0.999999
0.999999
0.999999
0.999999
0.999999
0.999999
0.999999
1
1
1
1
0.999999
0.999999
1
1
1
1
1
1
6.05282e-06
6.96296e-06
7.21718e-06
7.49293e-06
7.63803e-06
7.99307e-06
8.26316e-06
8.69866e-06
9.08385e-06
9.41884e-06
9.67667e-06
9.89706e-06
9.9762e-06
1.00025e-05
9.99915e-06
1.00025e-05
1.00007e-05
1.00017e-05
1.00012e-05
1.00014e-05
1.00013e-05
1.00013e-05
1.00012e-05
1.00012e-05
1.00011e-05
1.0001e-05
1.0001e-05
1.00008e-05
1.00006e-05
1.00005e-05
1.00003e-05
1.00001e-05
9.99985e-06
9.99969e-06
9.99951e-06
9.99935e-06
9.99915e-06
9.99898e-06
9.99872e-06
9.99847e-06
9.99826e-06
9.99874e-06
1.00033e-05
1.00747e-05
1.04836e-05
1.15328e-05
1.45556e-05
2.75725e-05
4.47866e-05
6.12942e-05
8.64243e-05
0.000141767
0.000169058
0.000164493
0.000162182
0.000162274
0.000174717
0.000192649
0.000261823
0.103414
0.993501
0.999906
0.999906
0.999923
0.999919
0.999921
0.999947
0.999965
0.999977
0.999984
0.999986
0.999987
0.999985
0.999982
0.999979
0.999976
0.999975
0.999976
0.999979
0.999979
0.99998
0.999985
0.999989
0.999995
0.999998
0.999999
0.999999
0.999999
1
1
1
1
1
1
1
1
5.54807e-06
6.73923e-06
7.23352e-06
7.7004e-06
8.04044e-06
8.26842e-06
8.26187e-06
8.65753e-06
8.98306e-06
9.33318e-06
9.61008e-06
9.87289e-06
9.96434e-06
1.00015e-05
9.99739e-06
1.00018e-05
9.99928e-06
1.00008e-05
9.99985e-06
1.00001e-05
9.99995e-06
9.9999e-06
9.99982e-06
9.99975e-06
9.99968e-06
9.99963e-06
9.99954e-06
9.99939e-06
9.99924e-06
9.99907e-06
9.99889e-06
9.99871e-06
9.99854e-06
9.99841e-06
9.99831e-06
9.99824e-06
9.99814e-06
9.99805e-06
9.99781e-06
9.99754e-06
9.99716e-06
9.99731e-06
9.99998e-06
1.00326e-05
1.0239e-05
1.08985e-05
1.28775e-05
2.0683e-05
3.56864e-05
5.15475e-05
8.80026e-05
0.000153946
0.000177646
0.000193356
0.000212291
0.000238271
0.000271463
0.000331208
0.000470972
0.206191
0.992321
0.997033
0.996966
0.996962
0.996932
0.997661
0.998214
0.998765
0.999151
0.999408
0.999521
0.999544
0.99944
0.999332
0.999149
0.99894
0.998737
0.998608
0.99853
0.998462
0.998444
0.998623
0.998874
0.999217
0.999525
0.999756
0.999884
0.99995
0.999978
0.999988
0.999995
0.999998
0.999999
0.999999
0.999999
0.999999
4.77239e-06
5.95281e-06
6.64447e-06
7.38227e-06
8.05443e-06
8.37379e-06
8.56393e-06
8.86897e-06
8.97508e-06
9.30376e-06
9.58409e-06
9.8604e-06
9.95421e-06
1.00006e-05
9.99589e-06
1.00013e-05
9.99812e-06
1e-05
9.9987e-06
9.99907e-06
9.99877e-06
9.99872e-06
9.9986e-06
9.99853e-06
9.99847e-06
9.99843e-06
9.99832e-06
9.9982e-06
9.9981e-06
9.99798e-06
9.99785e-06
9.99773e-06
9.9976e-06
9.99751e-06
9.99745e-06
9.99742e-06
9.99733e-06
9.99728e-06
9.99702e-06
9.99678e-06
9.99636e-06
9.9964e-06
9.99883e-06
1.00243e-05
1.01893e-05
1.0769e-05
1.24895e-05
1.69209e-05
2.62626e-05
3.81564e-05
6.79327e-05
0.000141195
0.000165468
0.000171371
0.000182831
0.000196534
0.000204289
0.000204928
0.000137162
0.295315
0.977199
0.984621
0.983066
0.98251
0.983183
0.985107
0.986607
0.987967
0.989031
0.989972
0.990792
0.991133
0.99095
0.989586
0.988184
0.986505
0.98486
0.98349
0.982499
0.98172
0.981297
0.981824
0.983325
0.984933
0.987059
0.989267
0.991695
0.993768
0.995599
0.997077
0.998247
0.99899
0.999456
0.999752
0.999905
0.999966
4.27241e-06
4.83014e-06
5.67012e-06
6.47762e-06
7.73445e-06
8.34506e-06
8.7901e-06
8.96061e-06
9.03598e-06
9.30962e-06
9.5777e-06
9.85432e-06
9.9463e-06
1.00003e-05
9.99506e-06
1.00013e-05
9.99766e-06
9.99984e-06
9.99827e-06
9.99877e-06
9.99837e-06
9.99836e-06
9.99826e-06
9.9982e-06
9.99814e-06
9.9981e-06
9.99801e-06
9.99794e-06
9.99787e-06
9.99776e-06
9.99765e-06
9.99755e-06
9.99745e-06
9.99738e-06
9.99731e-06
9.99725e-06
9.99713e-06
9.99709e-06
9.99689e-06
9.99674e-06
9.9964e-06
9.99641e-06
9.99901e-06
1.00219e-05
1.01757e-05
1.07674e-05
1.24587e-05
1.49819e-05
1.79075e-05
2.14578e-05
4.49479e-05
0.000134838
0.000156693
0.000154144
0.000149544
0.000147493
0.000139002
0.000151592
0.000137162
0.32188
0.964474
0.973066
0.970775
0.970222
0.970237
0.970563
0.969545
0.968519
0.967812
0.967547
0.967588
0.967226
0.965843
0.964355
0.962432
0.960219
0.957849
0.955573
0.953726
0.952303
0.95153
0.951259
0.949733
0.94748
0.945756
0.944719
0.945771
0.947566
0.94954
0.953339
0.958497
0.964097
0.969314
0.974589
0.980902
0.986221
4.02402e-06
3.82309e-06
4.49434e-06
5.41245e-06
6.98996e-06
8.15712e-06
8.83177e-06
9.0222e-06
9.05365e-06
9.32092e-06
9.57632e-06
9.85043e-06
9.94064e-06
1.00001e-05
9.99428e-06
1.00013e-05
9.99728e-06
9.99965e-06
9.99802e-06
9.99869e-06
9.99825e-06
9.99828e-06
9.99819e-06
9.99816e-06
9.9981e-06
9.99804e-06
9.99796e-06
9.99792e-06
9.9979e-06
9.99794e-06
9.99791e-06
9.99791e-06
9.99789e-06
9.99782e-06
9.99743e-06
9.99728e-06
9.99711e-06
9.99706e-06
9.99688e-06
9.99677e-06
9.99685e-06
9.99669e-06
9.99949e-06
1.00209e-05
1.01665e-05
1.07457e-05
1.23802e-05
1.55189e-05
2.14501e-05
2.98865e-05
3.58634e-05
0.000115702
0.000154844
0.000150652
0.000142807
0.000140423
0.000139128
0.000143598
0.000137162
0.220325
0.965668
0.980123
0.978819
0.978413
0.977668
0.976089
0.974147
0.972305
0.970826
0.96947
0.968374
0.966724
0.96447
0.96207
0.959886
0.957847
0.955665
0.953374
0.951063
0.949023
0.947543
0.945567
0.941009
0.935396
0.928327
0.92186
0.915895
0.908464
0.898612
0.888977
0.878375
0.868014
0.854828
0.833776
0.784199
0.5904
4.1699e-06
3.60208e-06
3.60588e-06
4.48304e-06
5.94878e-06
8.05136e-06
8.85066e-06
9.10127e-06
9.07984e-06
9.34183e-06
9.59847e-06
9.85199e-06
9.94013e-06
1.00031e-05
9.99645e-06
1.00045e-05
9.9999e-06
1.00024e-05
1.00006e-05
1.00015e-05
1.00009e-05
1.00009e-05
1.00007e-05
1.00006e-05
1.00005e-05
1.00004e-05
1.00003e-05
1.00003e-05
1.00003e-05
1.00003e-05
1.00003e-05
1.00002e-05
1.00001e-05
1.00001e-05
9.99981e-06
9.99967e-06
9.99943e-06
9.99937e-06
9.99927e-06
9.99932e-06
9.99938e-06
9.99952e-06
1.00007e-05
1.00215e-05
1.01694e-05
1.0734e-05
1.23805e-05
1.58644e-05
2.38775e-05
3.88272e-05
4.80306e-05
7.26342e-05
0.00013867
0.000155626
0.000146961
0.000141317
0.000140312
0.000144516
0.000137162
0.149479
0.978839
0.993872
0.993906
0.993731
0.993401
0.993308
0.993245
0.99386
0.994468
0.994758
0.994172
0.993786
0.993319
0.992654
0.991717
0.990151
0.988459
0.987073
0.986338
0.986122
0.986791
0.988996
0.992017
0.995459
0.997359
0.9968
0.996387
0.995811
0.994935
0.994278
0.994664
0.995861
0.996411
0.995513
0.994717
0.994975
4.22551e-06
3.58163e-06
3.39892e-06
4.1539e-06
5.13636e-06
7.8522e-06
8.83946e-06
9.21069e-06
9.15755e-06
9.39186e-06
9.64601e-06
9.88176e-06
9.96e-06
1.00052e-05
9.99847e-06
1.00059e-05
1.00015e-05
1.00039e-05
1.00022e-05
1.00031e-05
1.00026e-05
1.00026e-05
1.00024e-05
1.00023e-05
1.00022e-05
1.00021e-05
1.0002e-05
1.00019e-05
1.00019e-05
1.00019e-05
1.00019e-05
1.00019e-05
1.00018e-05
1.00017e-05
1.00015e-05
1.00013e-05
1.00011e-05
1.00009e-05
1.00008e-05
1.00008e-05
1.00007e-05
1.00007e-05
1.00014e-05
1.00136e-05
1.01286e-05
1.06152e-05
1.23135e-05
1.59398e-05
2.43538e-05
3.9986e-05
6.15078e-05
6.40529e-05
9.37001e-05
0.000141276
0.000157314
0.000158943
0.000144257
0.000145148
0.000137162
0.0886371
0.990156
0.999301
0.999342
0.99939
0.999405
0.999479
0.999533
0.999543
0.999516
0.999466
0.999407
0.999388
0.999417
0.999449
0.999464
0.999419
0.999333
0.999292
0.999303
0.999371
0.999503
0.999668
0.999858
0.999961
0.999985
0.999987
0.999987
0.999985
0.999983
0.999982
0.999988
0.999996
0.999999
1
1
1
3.65316e-06
3.59988e-06
3.23398e-06
4.1993e-06
4.88266e-06
7.57954e-06
8.76518e-06
9.28761e-06
9.25307e-06
9.46878e-06
9.69445e-06
9.9065e-06
9.9741e-06
1.00055e-05
9.99886e-06
1.00059e-05
1.00014e-05
1.00039e-05
1.00022e-05
1.00032e-05
1.00028e-05
1.00028e-05
1.00027e-05
1.00027e-05
1.00026e-05
1.00024e-05
1.00023e-05
1.00023e-05
1.00022e-05
1.00022e-05
1.00022e-05
1.00022e-05
1.00021e-05
1.00021e-05
1.00019e-05
1.00018e-05
1.00015e-05
1.00014e-05
1.00012e-05
1.00012e-05
1.00011e-05
1.00011e-05
1.00008e-05
1.00079e-05
1.0091e-05
1.04718e-05
1.20291e-05
1.59731e-05
2.43871e-05
4.01435e-05
6.42971e-05
7.19167e-05
7.49435e-05
0.000104486
0.000136909
0.000142762
0.000131946
0.000148679
0.000151964
0.0617262
0.995072
0.999969
0.999965
0.99997
0.999973
0.999981
0.999986
0.999987
0.999986
0.999984
0.999982
0.999981
0.99998
0.999983
0.999986
0.99999
0.999993
0.999995
0.999997
0.999998
0.999998
0.999998
0.999999
0.999999
0.999999
0.999999
0.999999
0.999999
0.999999
0.999999
0.999999
1
1
0.999999
0.999999
1
3.43861e-06
3.75741e-06
3.54072e-06
3.93911e-06
4.19699e-06
6.68009e-06
8.20083e-06
9.31042e-06
9.31512e-06
9.53701e-06
9.73265e-06
9.93684e-06
9.98694e-06
1.00055e-05
9.99959e-06
1.00059e-05
1.00015e-05
1.00039e-05
1.00023e-05
1.00032e-05
1.00026e-05
1.00028e-05
1.00026e-05
1.00025e-05
1.00024e-05
1.00023e-05
1.00022e-05
1.00021e-05
1.0002e-05
1.00019e-05
1.00018e-05
1.00018e-05
1.00017e-05
1.00016e-05
1.00014e-05
1.00012e-05
1.00009e-05
1.00008e-05
1.00005e-05
1.00003e-05
1.00001e-05
9.99998e-06
9.99939e-06
1.00037e-05
1.00589e-05
1.03733e-05
1.17259e-05
1.54121e-05
2.44493e-05
4.1376e-05
6.48328e-05
7.63469e-05
7.70283e-05
8.54601e-05
0.000106161
0.000116982
0.00011901
0.000157504
0.00031425
0.0432216
0.982244
0.999999
0.999999
0.999999
0.999999
0.999999
0.999999
0.999999
0.999999
0.999999
0.999999
0.999999
0.999999
0.999999
0.999999
0.999999
0.999999
0.999999
0.999999
0.999999
0.999999
0.999999
0.999999
0.999999
0.999999
0.999999
0.999999
0.999999
0.999999
0.999999
0.999999
0.999999
1
1
0.999999
1
3.23102e-06
3.6198e-06
3.41289e-06
3.50842e-06
2.89441e-06
4.72921e-06
7.0995e-06
9.30933e-06
9.44896e-06
9.67038e-06
9.8126e-06
9.97526e-06
9.99566e-06
1.00042e-05
1.00005e-05
1.00043e-05
1.00008e-05
1.00039e-05
1.00018e-05
1.00032e-05
1.00025e-05
1.00028e-05
1.00026e-05
1.00026e-05
1.00025e-05
1.00024e-05
1.00023e-05
1.00022e-05
1.00019e-05
1.00017e-05
1.00015e-05
1.00013e-05
1.00012e-05
1.00012e-05
1.00009e-05
1.00006e-05
1.00002e-05
1e-05
9.99954e-06
9.9992e-06
9.99923e-06
9.9995e-06
9.99939e-06
1.00023e-05
1.00356e-05
1.0276e-05
1.12865e-05
1.47429e-05
2.60675e-05
4.53e-05
6.33358e-05
7.69448e-05
8.08337e-05
8.99211e-05
9.73682e-05
0.000132187
0.000148078
0.000198152
0.000535375
0.036318
0.96251
0.999999
0.999999
0.999999
0.999999
0.999999
0.999999
0.999999
0.999999
0.999999
0.999999
0.999999
0.999999
0.999999
0.999999
0.999999
0.999999
0.999999
0.999999
0.999999