/*--------------------------------*- C++ -*----------------------------------*\
| =========                 |                                                 |
| \\      /  F ield         | OpenFOAM: The Open Source CFD Toolbox           |
|  \\    /   O peration     | Version:  2.3.0                                 |
|   \\  /    A nd           | Web:      www.OpenFOAM.org                      |
|    \\/     M anipulation  |                                                 |
\*---------------------------------------------------------------------------*/
FoamFile
{
    version     2.0;
    format      ascii;
    class       volScalarField;
    location    "17";
    object      nut.water;
}
// * * * * * * * * * * * * * * * * * * * * * * * * * * * * * * * * * * * * * //

dimensions      [0 2 -1 0 0 0 0];

internalField   nonuniform List<scalar> 
6144
(
1.43112e-05
1.13786e-05
9.52347e-06
8.99581e-06
7.64527e-06
6.70727e-06
6.03535e-06
5.84144e-06
5.54558e-06
5.22325e-06
5.35372e-06
5.92689e-06
6.22955e-06
6.3361e-06
6.30245e-06
6.23839e-06
6.16454e-06
6.11357e-06
6.06926e-06
6.04488e-06
6.03195e-06
6.03128e-06
6.03776e-06
6.05016e-06
6.0653e-06
6.08292e-06
6.10132e-06
6.12213e-06
6.14331e-06
6.16365e-06
6.18498e-06
6.20223e-06
6.22561e-06
6.23563e-06
6.26933e-06
6.26356e-06
6.31455e-06
6.27966e-06
6.35228e-06
6.29862e-06
6.4107e-06
6.40367e-06
6.54721e-06
6.6505e-06
6.72871e-06
6.93492e-06
6.67296e-06
6.75702e-06
6.608e-06
7.77311e-06
9.77252e-06
1.14212e-05
1.49376e-05
2.0218e-05
2.59268e-05
3.53044e-05
4.087e-05
5.85499e-05
7.94621e-05
9.45169e-05
0.000147275
0.000113793
9.9594e-05
8.62531e-05
7.77612e-05
7.20042e-05
6.77479e-05
6.44293e-05
6.17419e-05
5.94669e-05
5.74692e-05
5.56619e-05
5.40237e-05
5.25442e-05
5.12476e-05
5.01457e-05
4.91989e-05
4.84728e-05
4.7797e-05
4.72883e-05
4.67842e-05
4.62836e-05
4.56898e-05
4.50069e-05
4.42646e-05
4.30282e-05
4.18341e-05
3.95179e-05
3.72691e-05
3.26507e-05
2.06351e-05
1.24922e-05
1.44512e-05
1.54565e-05
1.53888e-05
1.46533e-05
1.77627e-05
1.41725e-05
1.24111e-05
1.14774e-05
9.13574e-06
8.41747e-06
7.88747e-06
7.84661e-06
8.17572e-06
8.60615e-06
9.04095e-06
9.56944e-06
9.71677e-06
9.70417e-06
9.64119e-06
9.6346e-06
9.66298e-06
9.71344e-06
9.76161e-06
9.80865e-06
9.85625e-06
9.9049e-06
9.95532e-06
1.00071e-05
1.00578e-05
1.01082e-05
1.01578e-05
1.02097e-05
1.02616e-05
1.03127e-05
1.03635e-05
1.04094e-05
1.04571e-05
1.04927e-05
1.0547e-05
1.05585e-05
1.06278e-05
1.0597e-05
1.06843e-05
1.06137e-05
1.07294e-05
1.06674e-05
1.08022e-05
1.08708e-05
1.09613e-05
1.13085e-05
1.11453e-05
1.12495e-05
1.06559e-05
1.18695e-05
1.34565e-05
1.5568e-05
2.05949e-05
3.155e-05
4.44505e-05
5.50379e-05
6.74025e-05
8.91408e-05
0.000105613
9.65468e-05
0.00012726
7.61083e-05
7.90051e-05
7.01968e-05
6.89887e-05
6.79561e-05
6.62414e-05
6.45443e-05
6.30209e-05
6.13805e-05
5.97216e-05
5.81465e-05
5.67462e-05
5.55127e-05
5.44684e-05
5.36048e-05
5.29062e-05
5.2378e-05
5.19302e-05
5.16165e-05
5.12388e-05
5.09487e-05
5.04796e-05
4.98226e-05
4.90393e-05
4.76742e-05
4.62921e-05
4.37551e-05
4.12231e-05
3.72326e-05
2.61711e-05
1.63811e-05
1.81572e-05
1.9328e-05
1.93843e-05
1.63453e-05
1.90179e-05
1.64653e-05
1.47601e-05
1.33355e-05
1.04565e-05
9.72036e-06
8.82623e-06
8.53527e-06
9.30018e-06
9.94372e-06
1.0395e-05
1.09081e-05
1.09934e-05
1.08763e-05
1.08439e-05
1.09091e-05
1.10287e-05
1.117e-05
1.13047e-05
1.14239e-05
1.15333e-05
1.1635e-05
1.17312e-05
1.18228e-05
1.19083e-05
1.19891e-05
1.20655e-05
1.21419e-05
1.22174e-05
1.22923e-05
1.23667e-05
1.24391e-05
1.2508e-05
1.25729e-05
1.2639e-05
1.26802e-05
1.27481e-05
1.27478e-05
1.28176e-05
1.27542e-05
1.28485e-05
1.27238e-05
1.28518e-05
1.28309e-05
1.29959e-05
1.34389e-05
1.36221e-05
1.44125e-05
1.43037e-05
1.64366e-05
1.72221e-05
2.07223e-05
2.42917e-05
3.69034e-05
5.66465e-05
6.85079e-05
7.3141e-05
9.37935e-05
9.60009e-05
8.04313e-05
0.000118853
6.92318e-05
6.85803e-05
6.12653e-05
6.39253e-05
6.34184e-05
6.20922e-05
6.11688e-05
5.99493e-05
5.85785e-05
5.74568e-05
5.64253e-05
5.54537e-05
5.45447e-05
5.36939e-05
5.28388e-05
5.20714e-05
5.14523e-05
5.09486e-05
5.06511e-05
5.03537e-05
5.02245e-05
4.99952e-05
4.99058e-05
4.98187e-05
4.9138e-05
4.82235e-05
4.59356e-05
4.3611e-05
3.98701e-05
2.87812e-05
2.04414e-05
2.22472e-05
2.35542e-05
2.37805e-05
1.78742e-05
1.9637e-05
1.75177e-05
1.65216e-05
1.61177e-05
1.29688e-05
1.16248e-05
9.61614e-06
9.10199e-06
9.77289e-06
1.05049e-05
1.0975e-05
1.13361e-05
1.1354e-05
1.119e-05
1.11734e-05
1.12713e-05
1.14216e-05
1.15925e-05
1.17585e-05
1.1907e-05
1.20403e-05
1.21615e-05
1.22744e-05
1.23813e-05
1.24824e-05
1.25777e-05
1.26677e-05
1.27565e-05
1.28436e-05
1.29307e-05
1.30184e-05
1.31067e-05
1.31927e-05
1.32754e-05
1.33516e-05
1.34153e-05
1.34855e-05
1.35156e-05
1.35748e-05
1.35452e-05
1.36181e-05
1.35259e-05
1.36688e-05
1.36024e-05
1.39482e-05
1.43648e-05
1.51461e-05
1.62352e-05
1.70685e-05
1.87641e-05
1.99364e-05
2.41113e-05
2.97764e-05
4.04239e-05
6.89145e-05
8.4038e-05
8.9154e-05
0.000108934
8.36884e-05
7.45078e-05
0.000118786
6.66444e-05
5.69886e-05
6.4193e-05
6.24818e-05
5.94855e-05
5.73826e-05
5.57091e-05
5.41934e-05
5.28856e-05
5.16526e-05
5.04698e-05
4.94972e-05
4.88669e-05
4.8615e-05
4.85337e-05
4.83041e-05
4.7761e-05
4.69148e-05
4.60236e-05
4.51428e-05
4.48757e-05
4.52974e-05
4.60965e-05
4.70348e-05
4.76348e-05
4.77345e-05
4.61961e-05
4.43081e-05
4.089e-05
2.85464e-05
2.35534e-05
2.60361e-05
2.7342e-05
2.74649e-05
1.89301e-05
2.03481e-05
1.78146e-05
1.70089e-05
1.71496e-05
1.53587e-05
1.38473e-05
1.12771e-05
1.04897e-05
1.0443e-05
1.10816e-05
1.1733e-05
1.19033e-05
1.17244e-05
1.14155e-05
1.13779e-05
1.14928e-05
1.16847e-05
1.18962e-05
1.20957e-05
1.22749e-05
1.24332e-05
1.25744e-05
1.27046e-05
1.28252e-05
1.29372e-05
1.3042e-05
1.31412e-05
1.32366e-05
1.33305e-05
1.34244e-05
1.35194e-05
1.36161e-05
1.37095e-05
1.38024e-05
1.38865e-05
1.3964e-05
1.40328e-05
1.40784e-05
1.41189e-05
1.41029e-05
1.41314e-05
1.40652e-05
1.41314e-05
1.41774e-05
1.44837e-05
1.52474e-05
1.63019e-05
1.75828e-05
1.90727e-05
2.0225e-05
2.14789e-05
2.66671e-05
3.5668e-05
5.28314e-05
8.75724e-05
0.000108916
0.000117651
0.000116601
7.62509e-05
7.44096e-05
0.000108453
6.81457e-05
6.16204e-05
6.19341e-05
5.82406e-05
5.42914e-05
5.41111e-05
5.5824e-05
5.90946e-05
6.08986e-05
6.1849e-05
6.21968e-05
6.18684e-05
6.12862e-05
6.0595e-05
5.98174e-05
5.89851e-05
5.72709e-05
5.52542e-05
5.29198e-05
4.99949e-05
4.69925e-05
4.39123e-05
4.17333e-05
4.08003e-05
4.11549e-05
4.2366e-05
4.28989e-05
4.19315e-05
3.59294e-05
2.73492e-05
2.70244e-05
2.95009e-05
3.08699e-05
3.07569e-05
1.98983e-05
2.17339e-05
1.80251e-05
1.67108e-05
1.71944e-05
1.62146e-05
1.50839e-05
1.33039e-05
1.16132e-05
1.1189e-05
1.17642e-05
1.25855e-05
1.24889e-05
1.21312e-05
1.16514e-05
1.15615e-05
1.16675e-05
1.18996e-05
1.21548e-05
1.23841e-05
1.25818e-05
1.2752e-05
1.29021e-05
1.30387e-05
1.31649e-05
1.32821e-05
1.33909e-05
1.34923e-05
1.35879e-05
1.36809e-05
1.3774e-05
1.38683e-05
1.39651e-05
1.40589e-05
1.41537e-05
1.42385e-05
1.43208e-05
1.43906e-05
1.44399e-05
1.44838e-05
1.44658e-05
1.44937e-05
1.4438e-05
1.44718e-05
1.46156e-05
1.48815e-05
1.59618e-05
1.72423e-05
1.88482e-05
2.0968e-05
2.1718e-05
2.24522e-05
2.64862e-05
3.42188e-05
5.26571e-05
8.6818e-05
0.000112583
0.000124936
0.000123936
8.2878e-05
8.60215e-05
0.000100994
7.5147e-05
7.25586e-05
7.21561e-05
7.15725e-05
7.15776e-05
7.28003e-05
7.39078e-05
7.48288e-05
7.5263e-05
7.56372e-05
7.55222e-05
7.54233e-05
7.51739e-05
7.45747e-05
7.35668e-05
7.20415e-05
7.02673e-05
6.79703e-05
6.4668e-05
6.05198e-05
5.59034e-05
5.03952e-05
4.57073e-05
4.19146e-05
4.00293e-05
3.95922e-05
3.88452e-05
3.69848e-05
3.3372e-05
3.06205e-05
3.23679e-05
3.35695e-05
3.40276e-05
3.35723e-05
2.02022e-05
2.26086e-05
1.95627e-05
1.55383e-05
1.55032e-05
1.59357e-05
1.54145e-05
1.45694e-05
1.2894e-05
1.23988e-05
1.27513e-05
1.34862e-05
1.30542e-05
1.25138e-05
1.15981e-05
1.13109e-05
1.13151e-05
1.15845e-05
1.19042e-05
1.22108e-05
1.24676e-05
1.26738e-05
1.28418e-05
1.29871e-05
1.31159e-05
1.32318e-05
1.33381e-05
1.34376e-05
1.35319e-05
1.36215e-05
1.37142e-05
1.38103e-05
1.39091e-05
1.40032e-05
1.41002e-05
1.41775e-05
1.42646e-05
1.43027e-05
1.43711e-05
1.43302e-05
1.43498e-05
1.42075e-05
1.42751e-05
1.40788e-05
1.45365e-05
1.46918e-05
1.63703e-05
1.79086e-05
1.97061e-05
2.21251e-05
2.25399e-05
2.30338e-05
2.76315e-05
3.42411e-05
4.98094e-05
7.66611e-05
0.000104198
0.000124037
0.000128465
9.19772e-05
0.000100652
9.95503e-05
9.03216e-05
9.20167e-05
9.22784e-05
9.22582e-05
9.18786e-05
9.22449e-05
9.24412e-05
9.25711e-05
9.24192e-05
9.20064e-05
9.16829e-05
9.12107e-05
9.04701e-05
8.97038e-05
8.88893e-05
8.78721e-05
8.67118e-05
8.51547e-05
8.3283e-05
8.06863e-05
7.72536e-05
7.25721e-05
6.67622e-05
6.05797e-05
5.43413e-05
4.99635e-05
4.78447e-05
4.68359e-05
4.82339e-05
4.97835e-05
4.9102e-05
4.5355e-05
4.0409e-05
3.83407e-05
2.17077e-05
2.30324e-05
2.2932e-05
1.49893e-05
1.388e-05
1.38314e-05
1.42514e-05
1.46678e-05
1.32949e-05
1.2959e-05
1.29826e-05
1.372e-05
1.30851e-05
1.26565e-05
1.15928e-05
1.12552e-05
1.1142e-05
1.14141e-05
1.17504e-05
1.20927e-05
1.23919e-05
1.2647e-05
1.28642e-05
1.30544e-05
1.32255e-05
1.33824e-05
1.3527e-05
1.36625e-05
1.37899e-05
1.39097e-05
1.40265e-05
1.41407e-05
1.42535e-05
1.43608e-05
1.44705e-05
1.45634e-05
1.46648e-05
1.47055e-05
1.47971e-05
1.4735e-05
1.47936e-05
1.46177e-05
1.475e-05
1.45439e-05
1.50535e-05
1.5319e-05
1.69788e-05
1.88057e-05
2.03124e-05
2.24808e-05
2.2622e-05
2.46151e-05
3.12928e-05
3.91508e-05
5.53327e-05
7.63638e-05
9.82023e-05
0.000132951
0.000141795
0.000101867
0.000111563
0.000105882
0.000105558
0.000109282
0.000110573
0.000108844
0.000108158
0.000107413
0.000106646
0.000105731
0.000104647
0.000103797
0.000102582
0.000101272
0.000100106
9.89328e-05
9.79648e-05
9.70979e-05
9.63917e-05
9.59331e-05
9.55102e-05
9.45892e-05
9.32401e-05
9.12556e-05
8.85545e-05
8.52713e-05
8.15062e-05
7.75411e-05
7.36867e-05
7.06972e-05
6.7891e-05
6.49339e-05
6.18114e-05
5.84066e-05
5.49581e-05
5.11779e-05
2.75905e-05
2.31397e-05
2.4607e-05
1.50998e-05
1.28262e-05
1.2244e-05
1.20533e-05
1.22594e-05
1.1688e-05
1.1644e-05
1.16332e-05
1.22842e-05
1.14102e-05
1.10833e-05
9.86742e-06
9.36782e-06
9.19114e-06
9.42477e-06
9.71936e-06
1.00273e-05
1.03013e-05
1.05397e-05
1.07439e-05
1.09187e-05
1.10711e-05
1.12063e-05
1.13278e-05
1.14425e-05
1.15499e-05
1.16523e-05
1.17527e-05
1.1851e-05
1.19462e-05
1.20358e-05
1.21234e-05
1.21973e-05
1.2275e-05
1.2293e-05
1.23666e-05
1.22727e-05
1.23433e-05
1.21528e-05
1.23274e-05
1.21501e-05
1.2679e-05
1.30109e-05
1.43764e-05
1.60903e-05
1.69806e-05
1.84335e-05
1.83224e-05
2.05969e-05
2.71964e-05
3.58772e-05
5.02479e-05
6.70625e-05
8.79629e-05
0.000125056
0.000143667
9.46076e-05
0.000103684
0.000102203
9.60841e-05
9.7497e-05
9.57029e-05
9.07018e-05
8.62355e-05
8.24514e-05
7.84033e-05
7.57676e-05
7.2301e-05
7.07578e-05
6.8655e-05
6.73846e-05
6.62229e-05
6.50047e-05
6.41215e-05
6.36533e-05
6.37984e-05
6.46066e-05
6.604e-05
6.78211e-05
6.97416e-05
7.08624e-05
7.12544e-05
7.04634e-05
6.83072e-05
6.52889e-05
6.16807e-05
5.82013e-05
5.51007e-05
5.23264e-05
5.01101e-05
4.82697e-05
4.62943e-05
4.36886e-05
2.47213e-05
2.41555e-05
2.65304e-05
1.62505e-05
1.19313e-05
1.10804e-05
1.03748e-05
1.03897e-05
9.88385e-06
9.7149e-06
9.68966e-06
9.97224e-06
9.44837e-06
9.08797e-06
7.99254e-06
7.51446e-06
7.34104e-06
7.52403e-06
7.75855e-06
8.01125e-06
8.23585e-06
8.43171e-06
8.5986e-06
8.74382e-06
8.87185e-06
8.98683e-06
9.09008e-06
9.18286e-06
9.26855e-06
9.35402e-06
9.44095e-06
9.52757e-06
9.61209e-06
9.69363e-06
9.77102e-06
9.84137e-06
9.9076e-06
9.94998e-06
1.00042e-05
9.96506e-06
9.99938e-06
9.94906e-06
1.00493e-05
1.00673e-05
1.04149e-05
1.08998e-05
1.1832e-05
1.31509e-05
1.36617e-05
1.44381e-05
1.50927e-05
1.79322e-05
2.48679e-05
3.3004e-05
4.52427e-05
6.10263e-05
8.69151e-05
0.000127314
0.000135342
8.87398e-05
9.47948e-05
0.000101595
8.15628e-05
7.8839e-05
7.3582e-05
6.62532e-05
5.8148e-05
5.4378e-05
4.92848e-05
4.75297e-05
4.60331e-05
4.55649e-05
4.5106e-05
4.48606e-05
4.46898e-05
4.46583e-05
4.46539e-05
4.47212e-05
4.48736e-05
4.52051e-05
4.56851e-05
4.60647e-05
4.6584e-05
4.75601e-05
4.89326e-05
4.97763e-05
5.00943e-05
4.91975e-05
4.72115e-05
4.49215e-05
4.29908e-05
4.09957e-05
3.96198e-05
3.83819e-05
3.68871e-05
3.48906e-05
2.06495e-05
2.59484e-05
2.93526e-05
1.66894e-05
1.06675e-05
9.7395e-06
8.69479e-06
8.61047e-06
8.36027e-06
8.57613e-06
8.80823e-06
8.60219e-06
8.19107e-06
7.53245e-06
6.58474e-06
6.17212e-06
5.99775e-06
6.09228e-06
6.23038e-06
6.39275e-06
6.54164e-06
6.67729e-06
6.79743e-06
6.90675e-06
7.00662e-06
7.09918e-06
7.18463e-06
7.26304e-06
7.33732e-06
7.41177e-06
7.48876e-06
7.56684e-06
7.64525e-06
7.72237e-06
7.7987e-06
7.87558e-06
7.95322e-06
8.02425e-06
8.0855e-06
8.11788e-06
8.16834e-06
8.23177e-06
8.30487e-06
8.486e-06
8.66102e-06
9.21807e-06
9.69127e-06
1.06969e-05
1.10315e-05
1.17829e-05
1.29487e-05
1.68261e-05
2.38294e-05
3.11904e-05
4.00056e-05
5.43768e-05
8.50468e-05
0.000126416
0.000128175
8.09884e-05
7.97001e-05
0.000109717
6.85588e-05
6.16168e-05
5.85134e-05
5.31823e-05
4.33149e-05
4.05917e-05
4.22375e-05
4.36451e-05
4.52359e-05
4.62439e-05
4.6746e-05
4.6912e-05
4.67556e-05
4.61538e-05
4.53958e-05
4.44918e-05
4.33273e-05
4.20179e-05
4.07978e-05
3.93612e-05
3.77383e-05
3.62548e-05
3.53438e-05
3.4989e-05
3.51653e-05
3.55319e-05
3.54365e-05
3.48898e-05
3.42484e-05
3.35178e-05
3.29911e-05
3.1879e-05
2.97304e-05
2.7028e-05
1.73479e-05
2.91754e-05
3.40265e-05
2.08881e-05
1.02364e-05
8.33453e-06
7.5552e-06
7.49916e-06
7.56938e-06
8.22919e-06
8.6892e-06
8.09031e-06
7.77865e-06
6.57113e-06
5.73871e-06
5.42177e-06
5.31535e-06
5.3312e-06
5.38352e-06
5.45958e-06
5.53429e-06
5.61146e-06
5.68382e-06
5.75588e-06
5.82647e-06
5.89606e-06
5.96277e-06
6.02997e-06
6.10183e-06
6.18177e-06
6.26133e-06
6.33632e-06
6.40677e-06
6.47394e-06
6.54389e-06
6.61362e-06
6.68867e-06
6.75259e-06
6.8157e-06
6.84518e-06
6.91062e-06
6.95492e-06
7.07631e-06
7.21243e-06
7.41222e-06
7.87437e-06
8.25323e-06
9.14777e-06
9.40531e-06
1.0246e-05
1.13377e-05
1.60696e-05
2.32716e-05
3.06942e-05
3.86262e-05
5.66494e-05
8.1097e-05
0.000104237
0.000117472
8.2437e-05
7.33609e-05
0.000110905
6.27858e-05
5.45621e-05
5.59834e-05
5.31367e-05
4.96153e-05
5.02607e-05
5.1445e-05
5.25282e-05
5.35451e-05
5.42335e-05
5.46774e-05
5.48697e-05
5.48181e-05
5.4356e-05
5.3616e-05
5.27427e-05
5.16528e-05
5.04158e-05
4.91283e-05
4.76197e-05
4.56568e-05
4.30242e-05
3.91583e-05
3.44213e-05
3.00558e-05
2.76996e-05
2.73322e-05
2.70249e-05
2.59879e-05
2.47162e-05
2.41566e-05
2.32967e-05
2.10593e-05
1.85307e-05
1.22811e-05
3.17077e-05
2.22383e-05
1.53864e-05
1.00186e-05
8.25945e-06
7.18359e-06
6.87587e-06
7.15759e-06
7.96299e-06
8.41938e-06
7.95927e-06
7.49143e-06
6.36336e-06
5.65288e-06
5.30112e-06
5.20034e-06
5.17203e-06
5.18852e-06
5.21789e-06
5.25095e-06
5.28961e-06
5.32593e-06
5.36431e-06
5.40138e-06
5.43923e-06
5.47704e-06
5.51689e-06
5.55812e-06
5.60259e-06
5.65324e-06
5.70542e-06
5.75675e-06
5.80694e-06
5.85838e-06
5.90598e-06
5.96048e-06
6.01968e-06
6.08577e-06
6.13803e-06
6.19481e-06
6.27354e-06
6.34846e-06
6.5135e-06
6.61201e-06
6.96536e-06
7.07276e-06
7.7944e-06
8.03708e-06
8.83638e-06
9.93277e-06
1.51117e-05
2.20975e-05
2.95844e-05
3.74651e-05
4.85726e-05
6.8074e-05
8.60715e-05
0.000102485
9.69837e-05
7.46108e-05
0.000117906
6.17834e-05
5.2883e-05
6.16739e-05
6.33529e-05
6.15048e-05
5.99036e-05
5.92352e-05
5.87773e-05
5.88193e-05
5.90983e-05
5.93806e-05
5.94701e-05
5.9162e-05
5.85093e-05
5.76902e-05
5.66914e-05
5.54098e-05
5.3881e-05
5.21354e-05
5.02726e-05
4.84716e-05
4.67006e-05
4.45057e-05
4.21343e-05
3.96344e-05
3.61002e-05
3.16628e-05
2.75313e-05
2.46773e-05
2.24559e-05
2.11055e-05
2.00966e-05
1.86322e-05
1.67325e-05
1.13821e-05
3.72854e-05
2.35834e-05
1.76303e-05
1.43741e-05
1.46315e-05
7.74353e-06
6.40967e-06
6.34892e-06
7.2126e-06
7.41533e-06
7.31144e-06
6.41669e-06
5.71223e-06
5.28357e-06
5.0719e-06
4.95283e-06
4.91901e-06
4.91266e-06
4.91937e-06
4.92343e-06
4.92595e-06
4.92137e-06
4.92086e-06
4.9203e-06
4.92343e-06
4.92955e-06
4.94256e-06
4.96678e-06
5.00327e-06
5.04372e-06
5.08868e-06
5.13133e-06
5.17296e-06
5.21704e-06
5.25821e-06
5.29869e-06
5.33338e-06
5.3727e-06
5.41974e-06
5.46527e-06
5.55187e-06
5.6069e-06
5.76534e-06
5.83064e-06
6.11455e-06
6.16274e-06
6.70178e-06
6.94596e-06
7.6043e-06
8.61711e-06
1.34058e-05
1.9489e-05
2.5462e-05
3.50402e-05
4.23467e-05
5.68602e-05
7.78214e-05
9.30694e-05
0.000100879
8.18768e-05
0.000118014
6.54797e-05
6.8308e-05
6.5728e-05
6.70646e-05
6.71931e-05
6.59597e-05
6.47775e-05
6.37999e-05
6.30468e-05
6.25532e-05
6.22832e-05
6.2082e-05
6.18485e-05
6.14495e-05
6.04322e-05
5.91716e-05
5.75492e-05
5.557e-05
5.32891e-05
5.09079e-05
4.87434e-05
4.67624e-05
4.46244e-05
4.24755e-05
4.03065e-05
3.80082e-05
3.56219e-05
3.3008e-05
3.05921e-05
2.82749e-05
2.62966e-05
2.44133e-05
2.30049e-05
2.13815e-05
1.47138e-05
5.26759e-05
4.46042e-05
3.89001e-05
3.41124e-05
2.87012e-05
1.49238e-05
7.45981e-06
5.28168e-06
5.48952e-06
5.51809e-06
5.55247e-06
4.89451e-06
4.64401e-06
4.45607e-06
4.41426e-06
4.32958e-06
4.3236e-06
4.31054e-06
4.31276e-06
4.31156e-06
4.32124e-06
4.33551e-06
4.35299e-06
4.37121e-06
4.39215e-06
4.41501e-06
4.44101e-06
4.47085e-06
4.50557e-06
4.54458e-06
4.59229e-06
4.63989e-06
4.68559e-06
4.73162e-06
4.77524e-06
4.81834e-06
4.85995e-06
4.89948e-06
4.94311e-06
4.98251e-06
5.06237e-06
5.10943e-06
5.24928e-06
5.3018e-06
5.54939e-06
5.59066e-06
6.04539e-06
6.28855e-06
6.8021e-06
7.71449e-06
1.07871e-05
1.49429e-05
2.08608e-05
2.97983e-05
4.05646e-05
5.31986e-05
7.39476e-05
9.07597e-05
0.000105811
9.58779e-05
0.000126569
7.59089e-05
7.71733e-05
6.89541e-05
6.79208e-05
6.8909e-05
6.87555e-05
6.8091e-05
6.70633e-05
6.59341e-05
6.48162e-05
6.36647e-05
6.26522e-05
6.17149e-05
6.07005e-05
5.94648e-05
5.78903e-05
5.59786e-05
5.38101e-05
5.13973e-05
4.89517e-05
4.6706e-05
4.46025e-05
4.25217e-05
4.04736e-05
3.84815e-05
3.64919e-05
3.46158e-05
3.27593e-05
3.10621e-05
2.93736e-05
2.77636e-05
2.6018e-05
2.41786e-05
2.19235e-05
1.53369e-05
5.22928e-05
4.9306e-05
4.53781e-05
3.96951e-05
3.22853e-05
2.13055e-05
1.04532e-05
5.29888e-06
4.43678e-06
4.28114e-06
4.17452e-06
3.83231e-06
3.71678e-06
3.61238e-06
3.58229e-06
3.54579e-06
3.54553e-06
3.54522e-06
3.55584e-06
3.56761e-06
3.58379e-06
3.6002e-06
3.61856e-06
3.63779e-06
3.6584e-06
3.68001e-06
3.70257e-06
3.72541e-06
3.74838e-06
3.77285e-06
3.80391e-06
3.83818e-06
3.87255e-06
3.90722e-06
3.9401e-06
3.97168e-06
4.00298e-06
4.03136e-06
4.06225e-06
4.08494e-06
4.14297e-06
4.1757e-06
4.2751e-06
4.30046e-06
4.48301e-06
4.52236e-06
4.85092e-06
5.12686e-06
5.57818e-06
6.25092e-06
7.96698e-06
1.04614e-05
1.46398e-05
2.07492e-05
3.0505e-05
3.58518e-05
4.90421e-05
5.88816e-05
7.18986e-05
8.85793e-05
0.000142783
0.000114281
0.000100485
8.8271e-05
7.99339e-05
7.45838e-05
7.08792e-05
6.80443e-05
6.57001e-05
6.36745e-05
6.19211e-05
6.03678e-05
5.89557e-05
5.76054e-05
5.62396e-05
5.47575e-05
5.31052e-05
5.12069e-05
4.90847e-05
4.6758e-05
4.44083e-05
4.20902e-05
3.99636e-05
3.78767e-05
3.59143e-05
3.40394e-05
3.21428e-05
3.03156e-05
2.85601e-05
2.71001e-05
2.55946e-05
2.43049e-05
2.27234e-05
2.10489e-05
1.8805e-05
1.38043e-05
2.01122e-05
1.53622e-05
1.16967e-05
1.04793e-05
8.83047e-06
8.62432e-06
8.43611e-06
8.50461e-06
8.38635e-06
8.63355e-06
9.46877e-06
1.0795e-05
1.12779e-05
1.1395e-05
1.11145e-05
1.08256e-05
1.0556e-05
1.03747e-05
1.02345e-05
1.01512e-05
1.01038e-05
1.00876e-05
1.00912e-05
1.01113e-05
1.01393e-05
1.01729e-05
1.02098e-05
1.02524e-05
1.02964e-05
1.03392e-05
1.03803e-05
1.04123e-05
1.04514e-05
1.04627e-05
1.05194e-05
1.04942e-05
1.05988e-05
1.05073e-05
1.06907e-05
1.05524e-05
1.08696e-05
1.07847e-05
1.1217e-05
1.12607e-05
1.15344e-05
1.14091e-05
1.07828e-05
1.01407e-05
8.68158e-06
1.00205e-05
1.29341e-05
1.39008e-05
1.77124e-05
2.1541e-05
3.00241e-05
4.19029e-05
5.74333e-05
7.29148e-05
8.69518e-05
0.000101144
0.000128808
0.000105825
9.58268e-05
8.70785e-05
8.06701e-05
7.61454e-05
7.26259e-05
6.96984e-05
6.70683e-05
6.4664e-05
6.24654e-05
6.0484e-05
5.86872e-05
5.70955e-05
5.56942e-05
5.45053e-05
5.35007e-05
5.26892e-05
5.199e-05
5.14217e-05
5.0852e-05
5.03199e-05
4.96253e-05
4.89203e-05
4.78585e-05
4.66766e-05
4.49391e-05
4.30016e-05
4.01121e-05
3.74189e-05
3.14974e-05
1.89734e-05
1.36838e-05
1.45284e-05
1.76355e-05
1.7639e-05
6.84333e-05
5.48432e-05
4.12594e-05
3.5828e-05
3.17729e-05
3.20207e-05
3.26849e-05
3.3157e-05
3.56252e-05
3.79084e-05
3.96217e-05
4.07873e-05
4.03036e-05
3.89327e-05
3.78156e-05
3.73443e-05
3.73131e-05
3.75309e-05
3.77739e-05
3.79809e-05
3.81596e-05
3.83343e-05
3.85111e-05
3.86843e-05
3.88465e-05
3.89944e-05
3.91304e-05
3.9268e-05
3.94154e-05
3.95626e-05
3.97076e-05
3.98403e-05
3.99718e-05
4.00505e-05
4.01611e-05
4.01258e-05
4.02545e-05
4.00741e-05
4.02364e-05
3.99048e-05
4.01284e-05
3.97805e-05
4.01502e-05
4.03387e-05
4.10593e-05
4.22571e-05
4.24711e-05
4.16613e-05
3.80722e-05
4.25367e-05
5.13033e-05
5.40349e-05
6.08902e-05
7.24546e-05
0.000133462
0.000177365
0.000288696
0.00037331
0.000710295
0.000676977
2.97522e-05
3.75162e-05
8.58793e-05
9.01812e-05
9.75697e-05
9.81375e-05
9.59888e-05
9.43161e-05
9.37132e-05
9.41011e-05
9.6012e-05
9.83533e-05
0.000100489
0.000103016
0.000105648
0.000108357
0.000111063
0.000112986
0.000114128
0.000114333
0.000113661
0.000111745
0.000107681
0.000103201
9.55294e-05
8.7347e-05
7.6644e-05
6.63077e-05
5.7076e-05
4.81522e-05
4.3675e-05
2.93095e-05
2.67568e-05
3.05496e-05
2.89338e-05
1.9639e-05
6.8753e-05
5.86158e-05
5.35068e-05
4.26104e-05
3.89708e-05
3.89071e-05
4.01028e-05
4.1741e-05
4.41815e-05
4.59878e-05
4.67785e-05
4.66477e-05
4.4532e-05
4.18641e-05
4.02628e-05
3.97571e-05
3.99186e-05
4.0459e-05
4.11059e-05
4.16419e-05
4.2009e-05
4.23016e-05
4.25487e-05
4.27644e-05
4.2952e-05
4.31116e-05
4.32431e-05
4.3351e-05
4.34532e-05
4.35556e-05
4.36688e-05
4.37922e-05
4.39086e-05
4.39985e-05
4.40589e-05
4.40382e-05
4.40284e-05
4.3888e-05
4.37494e-05
4.34172e-05
4.32466e-05
4.28776e-05
4.29987e-05
4.33983e-05
4.47914e-05
4.68882e-05
4.93895e-05
5.11522e-05
5.36075e-05
5.8649e-05
6.53362e-05
7.09493e-05
8.15965e-05
9.80074e-05
0.000152994
0.000187483
0.000301538
0.000347981
0.000556832
0.000446284
2.8028e-05
9.82441e-05
0.000146027
0.000121964
0.000122372
0.000113934
0.000113546
0.000117016
0.00012224
0.00013006
0.000132449
0.000133699
0.000134281
0.000134564
0.000134916
0.0001349
0.00013495
0.00013505
0.000135112
0.000134538
0.000133237
0.000131147
0.000127997
0.000124916
0.000118767
0.0001125
0.00010034
8.51373e-05
6.99389e-05
5.68135e-05
4.61172e-05
3.58882e-05
3.40818e-05
3.88132e-05
3.6822e-05
2.14573e-05
7.10458e-05
6.22953e-05
5.88082e-05
5.1861e-05
4.68165e-05
4.50783e-05
4.39251e-05
4.56592e-05
4.67699e-05
4.78546e-05
4.825e-05
4.66928e-05
4.39534e-05
4.02973e-05
3.88388e-05
3.86503e-05
3.90789e-05
3.98271e-05
4.07438e-05
4.15832e-05
4.21405e-05
4.25219e-05
4.28233e-05
4.30643e-05
4.32605e-05
4.34198e-05
4.35502e-05
4.36519e-05
4.37299e-05
4.38131e-05
4.3905e-05
4.4e-05
4.40784e-05
4.41459e-05
4.41689e-05
4.41529e-05
4.40527e-05
4.39485e-05
4.36158e-05
4.33424e-05
4.28359e-05
4.26059e-05
4.23051e-05
4.28437e-05
4.41993e-05
4.77007e-05
5.20695e-05
5.70794e-05
6.10314e-05
6.53963e-05
6.95816e-05
7.60701e-05
9.04112e-05
0.000102867
0.000168746
0.000225273
0.000290904
0.00030962
0.000302134
0.000196775
2.73405e-05
0.00011355
0.000139763
0.000132731
0.000131099
0.00012329
0.000133428
0.000131883
0.000129424
0.000127995
0.00012749
0.000128476
0.000131414
0.000135039
0.00013799
0.000139998
0.000141091
0.000141701
0.000141944
0.000141282
0.000139164
0.000134412
0.000128482
0.000122175
0.000115275
0.000108445
9.86371e-05
8.71533e-05
7.15841e-05
5.80274e-05
4.58586e-05
3.54252e-05
3.84938e-05
4.40975e-05
4.10359e-05
2.22366e-05
7.64951e-05
6.12332e-05
5.82466e-05
5.24526e-05
5.18616e-05
5.03778e-05
4.82777e-05
4.64185e-05
4.65224e-05
4.57342e-05
4.74594e-05
4.45633e-05
4.18628e-05
3.80766e-05
3.6348e-05
3.57398e-05
3.60822e-05
3.67912e-05
3.7545e-05
3.82138e-05
3.88134e-05
3.92634e-05
3.96071e-05
3.98735e-05
4.008e-05
4.02368e-05
4.03587e-05
4.04569e-05
4.05358e-05
4.06247e-05
4.07134e-05
4.08035e-05
4.08768e-05
4.09489e-05
4.09598e-05
4.09597e-05
4.08169e-05
4.07541e-05
4.03037e-05
4.00908e-05
3.93646e-05
3.93341e-05
3.86885e-05
3.98738e-05
4.0843e-05
4.50229e-05
5.03086e-05
5.54723e-05
6.23536e-05
6.45878e-05
6.97474e-05
7.85301e-05
9.46454e-05
0.000136555
0.000207449
0.000267343
0.000273026
0.000259193
0.000112117
8.6447e-05
2.40513e-05
0.00011903
0.000145313
0.000140151
0.000140913
0.000128949
0.000122654
0.000120942
0.000130059
0.000141647
0.000146838
0.000149576
0.000152821
0.00015181
0.000149755
0.00014607
0.00013975
0.000133542
0.00012763
0.000123493
0.000120002
0.000114994
0.000108767
0.000102861
9.80096e-05
9.2226e-05
8.61296e-05
7.75064e-05
6.40583e-05
5.19942e-05
4.0401e-05
3.92799e-05
4.4606e-05
4.69927e-05
4.21477e-05
2.25088e-05
9.38966e-05
5.7076e-05
4.94478e-05
5.0651e-05
5.10355e-05
4.84507e-05
4.83121e-05
4.45983e-05
4.49724e-05
4.42243e-05
4.6146e-05
4.35116e-05
4.06253e-05
3.72826e-05
3.54393e-05
3.46207e-05
3.49383e-05
3.56562e-05
3.632e-05
3.68041e-05
3.72089e-05
3.75113e-05
3.7745e-05
3.79317e-05
3.808e-05
3.81935e-05
3.82756e-05
3.83329e-05
3.83647e-05
3.83781e-05
3.84145e-05
3.84649e-05
3.851e-05
3.85402e-05
3.8547e-05
3.85073e-05
3.84374e-05
3.82766e-05
3.80926e-05
3.76999e-05
3.74929e-05
3.70523e-05
3.71069e-05
3.74384e-05
3.8599e-05
4.1835e-05
4.66085e-05
5.20584e-05
5.88425e-05
6.07065e-05
6.71631e-05
7.72722e-05
9.13191e-05
0.000127949
0.000196405
0.000242093
0.000224365
0.000209917
5.29433e-05
5.52215e-05
2.82243e-05
0.000135155
0.000172641
0.000162446
0.000159605
0.000150561
0.000148571
0.000149616
0.000151481
0.0001523
0.000149452
0.00014591
0.000141986
0.000138098
0.000134252
0.000130694
0.000126749
0.000122921
0.000118921
0.000113914
0.000108644
0.000102747
9.61945e-05
8.963e-05
8.3084e-05
7.64566e-05
6.78142e-05
6.06488e-05
5.45678e-05
4.9986e-05
4.55509e-05
4.75501e-05
4.99058e-05
4.80035e-05
4.22793e-05
2.2657e-05
9.87475e-05
6.11711e-05
4.1544e-05
3.43659e-05
4.10433e-05
4.29152e-05
4.70577e-05
4.305e-05
4.37027e-05
4.32121e-05
4.52906e-05
4.19721e-05
3.94116e-05
3.33818e-05
3.04579e-05
2.87814e-05
2.89458e-05
2.96584e-05
3.0637e-05
3.15203e-05
3.22473e-05
3.27873e-05
3.31716e-05
3.34376e-05
3.3611e-05
3.37045e-05
3.37489e-05
3.37692e-05
3.37729e-05
3.38127e-05
3.38368e-05
3.38325e-05
3.37921e-05
3.37783e-05
3.36769e-05
3.36272e-05
3.33193e-05
3.32538e-05
3.25513e-05
3.24307e-05
3.12245e-05
3.16412e-05
3.04126e-05
3.24316e-05
3.32585e-05
3.83212e-05
4.47763e-05
4.91314e-05
5.58161e-05
5.48519e-05
5.88351e-05
7.46083e-05
9.07792e-05
0.00011439
0.000166726
0.000195335
0.000198307
0.000157033
3.03053e-05
3.68648e-05
4.72015e-05
0.000144956
0.000184876
0.000190584
0.000181265
0.000175558
0.000165617
0.000161564
0.000156607
0.000154458
0.000152134
0.000149494
0.000146684
0.000145182
0.000142286
0.000140081
0.000137735
0.000134974
0.00013169
0.000128089
0.000123862
0.000118281
0.000110823
0.000101504
9.23231e-05
8.46614e-05
7.83846e-05
7.49675e-05
7.31119e-05
7.40608e-05
7.55386e-05
7.3018e-05
5.86443e-05
4.44244e-05
4.19749e-05
2.43187e-05
8.75294e-05
7.20776e-05
3.81597e-05
3.06448e-05
3.05431e-05
2.7942e-05
3.47975e-05
3.2935e-05
3.60647e-05
3.70704e-05
3.88578e-05
3.57287e-05
3.37281e-05
2.85314e-05
2.58267e-05
2.39655e-05
2.40257e-05
2.4452e-05
2.51141e-05
2.56981e-05
2.62065e-05
2.65814e-05
2.68297e-05
2.70091e-05
2.71332e-05
2.72001e-05
2.72198e-05
2.72064e-05
2.71513e-05
2.7049e-05
2.69067e-05
2.67396e-05
2.65562e-05
2.63949e-05
2.62267e-05
2.61102e-05
2.58154e-05
2.57223e-05
2.50937e-05
2.50051e-05
2.39781e-05
2.42788e-05
2.33626e-05
2.46094e-05
2.56603e-05
2.88144e-05
3.49538e-05
3.74236e-05
4.14318e-05
4.0812e-05
4.93826e-05
7.1284e-05
9.17557e-05
0.000113978
0.000148681
0.00017642
0.000219301
0.000173459
3.37503e-05
3.94678e-05
6.70235e-05
0.000161425
0.00019563
0.000197798
0.000189902
0.000185242
0.000178354
0.000176155
0.000172895
0.000170619
0.000166217
0.000163894
0.000161397
0.000158697
0.00015572
0.000152212
0.000149752
0.000146596
0.000144784
0.000143367
0.000141216
0.000138356
0.00013448
0.000127947
0.000119233
0.000108558
9.58578e-05
8.60766e-05
7.62562e-05
6.86089e-05
6.45059e-05
6.71489e-05
6.57301e-05
7.16301e-05
7.42813e-05
6.99344e-05
6.82729e-05
9.3565e-05
4.80183e-05
2.97464e-05
2.7636e-05
2.29197e-05
2.34525e-05
2.47337e-05
2.87304e-05
3.27941e-05
3.50045e-05
3.13229e-05
2.9024e-05
2.25479e-05
1.93827e-05
1.76221e-05
1.74635e-05
1.76021e-05
1.79529e-05
1.82733e-05
1.85015e-05
1.87299e-05
1.892e-05
1.90368e-05
1.91023e-05
1.91208e-05
1.90753e-05
1.89886e-05
1.88667e-05
1.87568e-05
1.86476e-05
1.85283e-05
1.83867e-05
1.82639e-05
1.81295e-05
1.81067e-05
1.79157e-05
1.79489e-05
1.74365e-05
1.75422e-05
1.70141e-05
1.71882e-05
1.66636e-05
1.76616e-05
1.8387e-05
2.09057e-05
2.60391e-05
2.80152e-05
3.01306e-05
2.88967e-05
3.68191e-05
6.15215e-05
8.94552e-05
0.00011224
0.000150696
0.000204429
0.000281572
0.000250401
3.70366e-05
4.32385e-05
5.99125e-05
0.00014612
0.000181778
0.000180872
0.000172561
0.000165001
0.000153715
0.00014796
0.000141822
0.00013864
0.000133703
0.000130312
0.000128146
0.00012559
0.000123026
0.000117961
0.000109267
0.000103744
0.000101144
0.000100549
0.000104118
0.000106586
0.000110258
0.000112976
0.000114415
0.000115427
0.000108791
9.5252e-05
7.69203e-05
6.23613e-05
5.28931e-05
4.30909e-05
3.56655e-05
2.95256e-05
2.77112e-05
2.21516e-05
6.59668e-05
9.9724e-05
6.15528e-05
3.15477e-05
2.69211e-05
2.08473e-05
1.87407e-05
2.11167e-05
2.5614e-05
2.8396e-05
2.98177e-05
2.66788e-05
2.40222e-05
1.90225e-05
1.6559e-05
1.50949e-05
1.48726e-05
1.4865e-05
1.49941e-05
1.51244e-05
1.52357e-05
1.53032e-05
1.53432e-05
1.53574e-05
1.53595e-05
1.53643e-05
1.53462e-05
1.53167e-05
1.53209e-05
1.53303e-05
1.52887e-05
1.51853e-05
1.50603e-05
1.49246e-05
1.48279e-05
1.47663e-05
1.47867e-05
1.49072e-05
1.48121e-05
1.48958e-05
1.46189e-05
1.48084e-05
1.43883e-05
1.49542e-05
1.52803e-05
1.59584e-05
1.90135e-05
2.08365e-05
2.19485e-05
2.2275e-05
3.09786e-05
5.42746e-05