/*--------------------------------*- C++ -*----------------------------------*\
| =========                 |                                                 |
| \\      /  F ield         | OpenFOAM: The Open Source CFD Toolbox           |
|  \\    /   O peration     | Version:  2.3.0                                 |
|   \\  /    A nd           | Web:      www.OpenFOAM.org                      |
|    \\/     M anipulation  |                                                 |
\*---------------------------------------------------------------------------*/
FoamFile
{
    version     2.0;
    format      ascii;
    class       surfaceScalarField;
    location    "17";
    object      phi.air;
}
// * * * * * * * * * * * * * * * * * * * * * * * * * * * * * * * * * * * * * //

dimensions      [0 3 -1 0 0 0 0];

internalField   nonuniform List<scalar> 
16448
(
-1.87007e-06
-2.90657e-06
8.61475e-07
1.43214e-07
-2.86889e-06
8.55599e-07
6.81588e-07
-1.50794e-06
9.69562e-07
1.26796e-06
-1.3853e-06
7.98921e-07
1.3183e-06
-5.44201e-07
4.93852e-07
1.32587e-06
-4.52118e-07
4.4455e-07
9.8933e-07
-1.53871e-07
4.90401e-07
5.90761e-07
-2.21946e-07
6.20508e-07
8.32284e-08
-2.15372e-07
7.22898e-07
-3.32823e-07
-2.77182e-07
6.93226e-07
-6.11033e-07
-3.3343e-07
6.11633e-07
-6.85611e-07
-4.32654e-07
5.07226e-07
-6.24563e-07
-5.11417e-07
4.50363e-07
-4.91512e-07
-5.60014e-07
4.26958e-07
-3.65407e-07
-5.72894e-07
4.46783e-07
-2.5803e-07
-5.78015e-07
4.70633e-07
-1.78934e-07
-5.76786e-07
4.97683e-07
-1.20103e-07
-5.75509e-07
5.16673e-07
-7.85955e-08
-5.73356e-07
5.31841e-07
-4.89878e-08
-5.70841e-07
5.41228e-07
-2.81277e-08
-5.68134e-07
5.47268e-07
-1.33207e-08
-5.64803e-07
5.49991e-07
-2.47629e-09
-5.61727e-07
5.50877e-07
5.91518e-09
-5.58419e-07
5.50023e-07
1.21646e-08
-5.54956e-07
5.48702e-07
1.68332e-08
-5.51397e-07
5.46725e-07
1.99901e-08
-5.47618e-07
5.44457e-07
2.28082e-08
-5.44617e-07
5.41797e-07
2.55838e-08
-5.41808e-07
5.3903e-07
2.784e-08
-5.38757e-07
5.365e-07
3.0194e-08
-5.36425e-07
5.3407e-07
3.17618e-08
-5.33647e-07
5.3208e-07
3.47682e-08
-5.32637e-07
5.29631e-07
3.50226e-08
-5.29101e-07
5.28849e-07
4.1239e-08
-5.31046e-07
5.24831e-07
4.05687e-08
-5.25519e-07
5.26194e-07
5.27548e-08
-5.30822e-07
5.1864e-07
5.48332e-08
-5.24655e-07
5.22583e-07
7.31627e-08
-5.2928e-07
5.10956e-07
8.80167e-08
-5.27962e-07
5.13116e-07
1.14629e-07
-5.23255e-07
4.9665e-07
1.70626e-07
-5.46061e-07
4.90074e-07
2.19123e-07
-5.24026e-07
4.75539e-07
3.47403e-07
-5.87505e-07
4.59238e-07
4.13924e-07
-5.36033e-07
4.69524e-07
5.71796e-07
-6.30995e-07
4.73139e-07
5.29685e-07
-5.19361e-07
5.61487e-07
5.1892e-07
-5.47452e-07
5.58238e-07
3.23285e-07
-5.0135e-07
6.97004e-07
9.80139e-08
-3.72963e-07
5.98258e-07
3.75441e-07
-1.12447e-06
8.47066e-07
-2.59265e-07
-1.27899e-07
7.62632e-07
3.12139e-07
-1.66301e-06
1.09162e-06
-1.82501e-07
-1.19687e-06
1.69153e-06
-1.11608e-06
-1.21584e-06
2.14936e-06
-2.10272e-06
-2.95452e-06
3.94116e-06
-2.62179e-06
5.49772e-07
-3.18399e-08
-5.47261e-06
3.57434e-06
-7.23641e-07
-7.42052e-06
3.04507e-06
-1.33678e-06
-2.78997e-05
-1.89665e-05
1.22833e-05
-6.51564e-05
-1.44026e-05
2.34109e-06
-4.82212e-05
-7.31651e-07
-3.57512e-07
-8.21866e-06
5.67366e-06
-6.86258e-06
2.00082e-05
-5.30439e-07
-1.16919e-06
2.08593e-05
7.18763e-07
-1.58735e-06
2.1592e-05
1.49477e-06
-2.21371e-06
2.23249e-05
1.67026e-06
-2.4231e-06
2.28914e-05
1.69977e-06
-2.29481e-06
2.32223e-05
1.69476e-06
-2.05134e-06
2.33372e-05
1.64831e-06
-1.78447e-06
2.33079e-05
1.54015e-06
-1.52994e-06
2.31964e-05
1.38624e-06
-1.29055e-06
2.30738e-05
1.19344e-06
-1.08351e-06
2.30093e-05
9.66117e-07
-9.11838e-07
2.30444e-05
7.19044e-07
-7.63583e-07
2.31764e-05
4.86445e-07
-6.27429e-07
2.34284e-05
2.58027e-07
-5.18746e-07
2.37544e-05
8.56013e-08
-4.18192e-07
2.40805e-05
-2.40746e-08
-3.05999e-07
2.43906e-05
-6.37754e-08
-2.48541e-07
2.46032e-05
-5.8241e-08
-1.58781e-07
2.45775e-05
9.77378e-08
-7.61152e-08
2.43097e-05
2.80983e-07
-1.78062e-08
2.38041e-05
5.14158e-07
-2.17643e-08
2.26883e-05
9.56857e-07
1.49829e-07
2.11536e-05
1.31838e-06
2.0018e-07
1.86742e-05
2.02549e-06
4.42435e-07
1.55105e-05
2.41022e-06
7.46615e-07
1.12001e-05
3.1622e-06
1.17478e-06
4.9925e-06
3.86704e-06
2.51461e-06
-6.55869e-07
2.96363e-06
2.98011e-06
-4.46715e-06
1.24156e-06
2.68027e-06
-7.06815e-06
5.08786e-07
2.07713e-06
-7.38689e-06
6.53494e-07
-2.70869e-07
-5.23536e-06
8.30994e-07
-2.99043e-06
4.33348e-07
-4.94863e-06
-4.25383e-06
-4.17605e-06
1.20778e-07
-2.95956e-06
-4.18768e-06
2.4519e-08
-2.05757e-06
-2.85173e-06
4.41807e-07
-7.39528e-07
-2.77706e-06
7.37166e-08
8.66248e-08
-1.27718e-06
-9.31753e-08
5.50559e-07
-8.71883e-07
-4.41704e-08
4.92454e-07
-1.48697e-07
5.29274e-08
1.19088e-07
-1.35135e-07
2.86553e-07
-3.45615e-07
-1.08529e-07
3.57855e-07
-7.15259e-07
-2.15897e-07
3.08356e-07
-9.32909e-07
-3.11371e-07
1.95586e-07
-9.24497e-07
-5.14586e-07
7.35171e-08
-8.07575e-07
-6.50488e-07
2.21473e-08
-6.41572e-07
-7.22913e-07
-3.10397e-09
-4.90511e-07
-7.30188e-07
6.23105e-09
-3.62879e-07
-7.24635e-07
1.89842e-08
-2.67441e-07
-7.07253e-07
3.50255e-08
-1.96415e-07
-6.92822e-07
4.6283e-08
-1.4613e-07
-6.78265e-07
5.46217e-08
-1.10252e-07
-6.65839e-07
5.91162e-08
-8.50653e-08
-6.54748e-07
6.14248e-08
-6.72231e-08
-6.44468e-07
6.18204e-08
-5.45548e-08
-6.35447e-07
6.10515e-08
-4.52654e-08
-6.27096e-07
5.93872e-08
-3.88773e-08
-6.19004e-07
5.76606e-08
-3.45515e-08
-6.11214e-07
5.54928e-08
-3.15313e-08
-6.03717e-07
5.3082e-08
-2.90702e-08
-5.97633e-07
5.05578e-08
-2.71669e-08
-5.91744e-07
4.80374e-08
-2.55268e-08
-5.86148e-07
4.57562e-08
-2.35137e-08
-5.81887e-07
4.34566e-08
-2.28314e-08
-5.76099e-07
4.17773e-08
-1.95885e-08
-5.7476e-07
3.88891e-08
-2.21673e-08
-5.65801e-07
3.92894e-08
-1.22794e-08
-5.73889e-07
3.29679e-08
-2.02923e-08
-5.55724e-07
3.8231e-08
3.56845e-09
-5.79826e-07
2.51584e-08
-1.23333e-08
-5.46973e-07
3.82371e-08
2.68956e-08
-5.85796e-07
1.73073e-08
1.68953e-08
-5.5085e-07
3.29093e-08
7.72616e-08
-5.92211e-07
8.61446e-09
1.09302e-07
-5.90289e-07
1.22126e-08
1.93585e-07
-6.15174e-07
6.89485e-09
3.0807e-07
-6.77082e-07
-2.48765e-08
4.09369e-07
-6.5576e-07
1.84615e-08
5.93406e-07
-7.98589e-07
-1.6407e-08
5.90648e-07
-6.1576e-07
9.91977e-08
7.85555e-07
-7.35744e-07
-6.57255e-09
6.12401e-07
-5.31811e-07
2.03661e-07
1.03297e-06
-6.49422e-07
-1.44056e-07
7.96764e-07
-1.2362e-06
3.47985e-07
1.44044e-06
-6.71254e-07
-1.00274e-07
-1.88939e-07
-8.86655e-07
8.5307e-07
-3.37479e-06
3.38754e-07
1.65027e-06
-4.80335e-07
-3.62357e-06
-4.86736e-07
3.3056e-06
-8.0278e-06
1.28736e-06
-4.25944e-06
9.22717e-06
-1.11352e-06
-1.15817e-05
1.18925e-05
-9.95983e-07
-7.66777e-06
6.02155e-06
-7.13924e-06
-2.75496e-05
-3.05955e-05
4.8841e-06
-7.48625e-05
-2.30627e-05
4.01014e-06
-3.57384e-05
-3.37665e-06
-2.30831e-06
1.06008e-05
-2.41216e-06
-5.60955e-06
1.20573e-05
1.61528e-06
-3.91272e-06
1.35736e-05
3.79924e-06
-4.26155e-06
1.59152e-05
3.62537e-06
-4.46044e-06
1.78406e-05
3.73219e-06
-4.01385e-06
1.91404e-05
3.77504e-06
-3.35215e-06
1.99558e-05
3.6038e-06
-2.69163e-06
2.04294e-05
3.30732e-06
-2.11175e-06
2.06561e-05
2.92636e-06
-1.60442e-06
2.07119e-05
2.51351e-06
-1.18303e-06
2.07033e-05
2.04571e-06
-8.49655e-07
2.07442e-05
1.48795e-06
-5.6843e-07
2.09051e-05
8.87538e-07
-3.28843e-07
2.11484e-05
3.69618e-07
-1.2271e-07
2.14314e-05
-5.25855e-08
2.94876e-08
2.17779e-05
-4.2493e-07
1.63418e-07
2.2164e-05
-6.58058e-07
2.45966e-07
2.25285e-05
-7.20719e-07
2.88677e-07
2.28456e-05
-6.77543e-07
2.98977e-07
2.30875e-05
-3.95012e-07
2.42311e-07
2.30424e-05
4.45881e-08
2.73706e-07
2.27309e-05
6.259e-07
1.8875e-07
2.18665e-05
1.52774e-06
2.86788e-07
2.05214e-05
2.40475e-06
2.56765e-07
1.84008e-05
3.62603e-06
5.09525e-07
1.53601e-05
4.71939e-06
7.41576e-07
1.16535e-05
5.8141e-06
1.07018e-06
6.3377e-06
7.06024e-06
2.26102e-06
8.49322e-07
5.96508e-06
2.77055e-06
-3.52066e-06
3.09237e-06
2.64025e-06
-6.67625e-06
1.54437e-06
2.0869e-06
-7.21357e-06
1.68894e-06
-4.41628e-07
-5.28682e-06
2.30872e-06
-3.38498e-06
2.13141e-06
-6.12695e-06
-5.36012e-06
-4.58671e-06
2.23861e-08
-4.39872e-06
-4.86552e-06
-2.83543e-07
-3.63705e-06
-3.77532e-06
1.61924e-07
-2.33047e-06
-3.78907e-06
-2.94563e-07
-1.33568e-06
-2.15077e-06
-1.212e-07
-4.08098e-07
-1.63774e-06
-1.61721e-07
-4.04776e-08
-3.41574e-07
-1.74744e-07
-2.51536e-07
-3.05838e-08
1.06505e-07
-6.09512e-07
9.88267e-08
1.50616e-07
-8.73041e-07
-8.00036e-08
1.2763e-07
-1.00637e-06
-1.97882e-07
1.98332e-08
-9.52976e-07
-4.61962e-07
-1.0602e-07
-8.36046e-07
-5.91943e-07
-1.75479e-07
-6.92235e-07
-6.51738e-07
-2.14988e-07
-5.60267e-07
-6.31582e-07
-2.30578e-07
-4.43937e-07
-6.06892e-07
-2.34077e-07
-3.52961e-07
-5.70305e-07
-2.27928e-07
-2.83033e-07
-5.39981e-07
-2.22773e-07
-2.31688e-07
-5.11019e-07
-2.18595e-07
-1.94565e-07
-4.86426e-07
-2.16539e-07
-1.67899e-07
-4.65154e-07
-2.16264e-07
-1.48785e-07
-4.46237e-07
-2.17347e-07
-1.35139e-07
-4.29909e-07
-2.19186e-07
-1.24977e-07
-4.15696e-07
-2.21562e-07
-1.17794e-07
-4.02439e-07
-2.23749e-07
-1.13188e-07
-3.89832e-07
-2.25987e-07
-1.10174e-07
-3.78448e-07
-2.28283e-07
-1.0802e-07
-3.69036e-07
-2.30747e-07
-1.06764e-07
-3.59857e-07
-2.3314e-07
-1.05489e-07
-3.51859e-07
-2.3556e-07
-1.04472e-07
-3.4508e-07
-2.3782e-07
-1.03417e-07
-3.37558e-07
-2.39589e-07
-1.03095e-07
-3.34102e-07
-2.40972e-07
-1.02052e-07
-3.24658e-07
-2.42176e-07
-9.86688e-08
-3.31303e-07
-2.45959e-07
-9.80606e-08
-3.12354e-07
-2.43966e-07
-8.51399e-08
-3.40568e-07
-2.52165e-07
-8.6364e-08
-3.01532e-07
-2.44201e-07
-5.32375e-08
-3.59065e-07
-2.59841e-07
-6.05196e-08
-3.012e-07
-2.42347e-07
1.29136e-08
-3.94769e-07
-2.70855e-07
-2.75963e-09
-3.35793e-07
-2.38798e-07
1.09547e-07
-4.57512e-07
-2.69944e-07
1.35596e-07
-4.51367e-07
-2.51735e-07
2.49834e-07
-5.35616e-07
-2.34352e-07
3.21856e-07
-6.13648e-07
-2.56928e-07
3.63727e-07
-5.09072e-07
-1.48524e-07
5.50273e-07
-6.33379e-07
-2.88872e-07
5.07996e-07
-4.09402e-07
-8.009e-08
1.14073e-06
-8.17907e-07
-4.64209e-07
8.62731e-07
-9.72188e-07
1.40322e-08
1.83349e-06
-1.1813e-06
-4.60659e-07
8.12356e-07
-1.61285e-07
2.95795e-07
-1.90709e-06
2.77796e-06
2.80286e-07
1.66583e-06
-5.32626e-06
-1.87029e-06
7.4736e-07
-8.21414e-06
1.10483e-06
3.90711e-06
8.53229e-06
-2.46618e-06
2.69607e-06
1.59046e-05
-2.80091e-06
-3.89711e-06
1.62803e-05
-3.84135e-06
-2.33199e-05
-3.61751e-05
2.10919e-06
-3.32469e-05
-3.53083e-05
7.82112e-06
-4.13338e-06
-1.07361e-05
1.25184e-06
4.37038e-06
-8.70815e-06
-2.63401e-06
4.84083e-06
3.65008e-06
-2.60142e-06
8.8346e-06
3.48966e-06
-3.44763e-06
1.14439e-05
4.19537e-06
-3.34603e-06
1.30774e-05
4.74475e-06
-2.71293e-06
1.41845e-05
4.29626e-06
-1.66958e-06
1.49394e-05
3.45647e-06
-6.43738e-07
1.53221e-05
2.748e-06
1.5477e-07
1.53666e-05
2.10214e-06
7.77743e-07
1.51759e-05
1.58688e-06
1.12935e-06
1.48615e-05
1.02944e-06
1.34565e-06
1.44671e-05
4.00203e-07
1.4894e-06
1.40562e-05
-2.8098e-07
1.57609e-06
1.37655e-05
-9.61801e-07
1.61379e-06
1.36481e-05
-1.50937e-06
1.56801e-06
1.37075e-05
-1.93093e-06
1.44002e-06
1.40105e-05
-2.2091e-06
1.24309e-06
1.45029e-05
-2.2637e-06
1.03998e-06
1.51247e-05
-2.10173e-06
7.91634e-07
1.58443e-05
-1.68206e-06
5.54955e-07
1.65019e-05
-1.00017e-06
3.7618e-07
1.71024e-05
-8.68968e-08
1.19957e-07
1.72177e-05
1.28651e-06
1.31941e-07
1.67554e-05
2.84192e-06
2.80115e-08
1.53411e-05
4.64828e-06
3.88514e-07
1.2975e-05
6.22574e-06
8.54805e-07
9.8241e-06
7.76797e-06
1.2507e-06
5.09401e-06
9.52802e-06
2.4722e-06
8.60565e-08
8.23118e-06
3.05732e-06
-3.72297e-06
4.39664e-06
2.60616e-06
-6.6649e-06
2.45712e-06
1.99906e-06
-7.15731e-06
2.7104e-06
-4.97295e-07
-5.22984e-06
3.8968e-06
-3.47628e-06
4.38349e-06
-6.49678e-06
-5.75519e-06
-4.6622e-06
2.2949e-07
-4.86148e-06
-5.17105e-06
-5.8817e-07
-4.46181e-06
-4.20458e-06
2.95917e-08
-3.44057e-06
-4.36184e-06
-4.48465e-07
-2.65206e-06
-2.84017e-06
-9.91001e-08
-1.43308e-06
-2.60754e-06
-2.49179e-07
-5.78643e-07
-1.00725e-06
-1.88757e-07
-4.0146e-07
-2.94497e-07
8.6727e-08
-6.10276e-07
1.76994e-07
1.30645e-07
-8.1888e-07
2.6763e-08
1.01831e-07
-8.78262e-07
-1.39213e-07
7.08517e-10
-8.09505e-07
-3.99152e-07
-1.31573e-07
-7.3594e-07
-4.59896e-07
-2.05617e-07
-6.50333e-07
-4.81477e-07
-2.55874e-07
-5.64508e-07
-4.29269e-07
-2.88141e-07
-4.71756e-07
-3.89092e-07
-3.10558e-07
-3.90249e-07
-3.34066e-07
-3.1775e-07
-3.23026e-07
-2.87625e-07
-3.19585e-07
-2.70656e-07
-2.44741e-07
-3.18652e-07
-2.31858e-07
-2.07854e-07
-3.17375e-07
-2.03987e-07
-1.75904e-07
-3.17124e-07
-1.84398e-07
-1.48215e-07
-3.17615e-07
-1.70657e-07
-1.25402e-07
-3.1825e-07
-1.61082e-07
-1.06088e-07
-3.19185e-07
-1.54635e-07
-8.86053e-08
-3.20282e-07
-1.50612e-07
-7.25067e-08
-3.21349e-07
-1.48176e-07
-5.86036e-08
-3.22278e-07
-1.47034e-07
-4.68653e-08
-3.23312e-07
-1.46816e-07
-3.57854e-08
-3.24286e-07
-1.46951e-07
-2.63988e-08
-3.25322e-07
-1.47644e-07
-1.80381e-08
-3.26342e-07
-1.47818e-07
-1.00231e-08
-3.27356e-07
-1.48998e-07
-4.42511e-09
-3.28488e-07
-1.47706e-07
3.42728e-09
-3.2937e-07
-1.47454e-07
-2.70791e-10
-3.31272e-07
-1.43832e-07
1.3612e-08
-3.29578e-07
-1.34978e-07
-1.3018e-08
-3.36389e-07
-1.30684e-07
2.30428e-08
-3.28855e-07
-1.02868e-07
-4.26298e-08
-3.44234e-07
-1.03675e-07
2.4897e-08
-3.25273e-07
-4.20629e-08
-1.00688e-07
-3.55672e-07
-6.82404e-08
3.78953e-09
-3.13385e-07
2.99857e-08
-1.96252e-07
-3.5946e-07
-4.94568e-08
-7.98394e-08
-2.9206e-07
6.91399e-08
-3.174e-07
-3.36782e-07
-5.67457e-08
-2.12671e-07
-2.75062e-07
8.63195e-08
-3.55064e-07
-2.97037e-07
7.5431e-08
-3.17749e-07
-3.04707e-07
2.6912e-07
-3.27993e-07
-2.75056e-07
6.17685e-07
-7.24219e-07
-4.42213e-07
5.16728e-07
-6.75239e-07
-1.95946e-07
7.04899e-07
-1.11805e-06
-2.51386e-07
1.20436e-06
-5.64176e-07
-9.65273e-08
1.7401e-06
1.75768e-06
4.84556e-07
4.65211e-07
-2.43247e-06
-1.61898e-06
-5.29064e-06
-2.58729e-06
1.29009e-07
4.58228e-06
1.4901e-06
-2.83186e-06
7.95655e-06
2.05645e-05
-8.03367e-06
8.56067e-06
1.61716e-05
-7.94339e-07
-2.40719e-05
-3.42462e-05
4.56769e-06
-4.05455e-05
-3.78573e-05
9.85157e-06
-1.01945e-05
-8.17111e-06
2.73505e-06
-9.94243e-06
-8.1525e-06
8.87518e-07
-5.89748e-06
1.95018e-06
-3.44137e-06
1.08061e-06
9.93361e-07
-4.38323e-06
4.02292e-06
3.092e-06
-2.46372e-06
5.85304e-06
2.53998e-06
-2.09383e-07
6.32726e-06
1.98e-06
1.40597e-06
5.81678e-06
1.05752e-06
2.5536e-06
4.59285e-06
6.88416e-07
3.08188e-06
2.81286e-06
3.76724e-07
3.67665e-06
7.60411e-07
7.85617e-08
3.5865e-06
-1.12571e-06
-5.17662e-07
2.98373e-06
-2.63522e-06
-1.25885e-06
2.72097e-06
-3.64039e-06
-2.04459e-06
2.36619e-06
-4.03645e-06
-2.79682e-06
1.90717e-06
-3.75746e-06
-3.45366e-06
1.41011e-06
-2.87977e-06
-3.68309e-06
9.52335e-07
-1.57885e-06
-4.03342e-06
5.66517e-07
2.99065e-08
-4.064e-06
2.21583e-07
1.8077e-06
-3.79745e-06
-7.07962e-08
3.61668e-06
-3.21335e-06
-2.97186e-07
5.36205e-06
-2.26735e-06
-5.14752e-07
6.96048e-06
-1.02246e-06
-6.9303e-07
8.3298e-06
6.63599e-07
-7.62185e-07
9.32972e-06
2.69947e-06
-8.44336e-07
9.34273e-06
5.09211e-06
-4.43685e-07
8.20568e-06
7.42311e-06
-5.12022e-08
5.75103e-06
9.60917e-06
7.08897e-07
1.30253e-06
1.17635e-05
2.47998e-06
-2.43007e-06
9.02064e-06
3.13786e-06
-4.91423e-06
4.47856e-06
2.42125e-06
-6.92445e-06
3.00883e-06
1.42773e-06
-7.03175e-06
3.75867e-06
-9.07391e-07
-5.15025e-06
5.76632e-06
-3.67767e-06
7.0625e-06
-6.70449e-06
-5.9993e-06
-4.57484e-06
4.39717e-07
-4.98223e-06
-5.35329e-06
-8.34829e-07
-4.70089e-06
-4.46631e-06
-1.95913e-08
-3.51177e-06
-4.65468e-06
-8.96277e-07
-2.97902e-06
-3.09538e-06
-2.77538e-07
-1.91322e-06
-3.20608e-06
-4.67254e-07
-1.17658e-06
-1.61988e-06
-1.24013e-07
-6.89397e-07
-8.41559e-07
5.98763e-08
-5.971e-07
-1.26696e-09
8.5957e-08
-6.46301e-07
3.13327e-08
4.46259e-08
-5.95721e-07
-1.15476e-07
-7.43252e-08
-5.36046e-07
-3.02616e-07
-1.56217e-07
-5.26786e-07
-2.67868e-07
-2.01295e-07
-5.14036e-07
-2.61413e-07
-2.32819e-07
-4.90993e-07
-1.8412e-07
-2.68199e-07
-4.40674e-07
-1.39334e-07
-3.00081e-07
-3.85636e-07
-7.21929e-08
-3.16919e-07
-3.29379e-07
-1.79233e-08
-3.25963e-07
-2.81882e-07
3.68734e-08
-3.29118e-07
-2.45162e-07
8.50656e-08
-3.29644e-07
-2.18817e-07
1.26208e-07
-3.28463e-07
-2.00804e-07
1.60181e-07
-3.26411e-07
-1.88405e-07
1.86743e-07
-3.24549e-07
-1.79886e-07
2.08402e-07
-3.23011e-07
-1.74526e-07
2.26999e-07
-3.20968e-07
-1.7125e-07
2.42945e-07
-3.18728e-07
-1.68962e-07
2.55839e-07
-3.16733e-07
-1.68216e-07
2.66948e-07
-3.14558e-07
-1.68397e-07
2.76715e-07
-3.1232e-07
-1.69364e-07
2.84628e-07
-3.10056e-07
-1.71335e-07
2.91618e-07
-3.07683e-07
-1.73188e-07
2.97533e-07
-3.05698e-07
-1.76019e-07
3.0223e-07
-3.0382e-07
-1.76609e-07
3.06199e-07
-3.02174e-07
-1.7713e-07
3.02021e-07
-3.01765e-07
-1.74885e-07
3.10559e-07
-2.99181e-07
-1.69476e-07
2.84405e-07
-3.02823e-07
-1.66352e-07
3.13906e-07
-2.93974e-07
-1.46798e-07
2.42444e-07
-3.04617e-07
-1.47782e-07
3.09231e-07
-2.83333e-07
-1.078e-07
1.64256e-07
-3.04912e-07
-1.30722e-07
2.88773e-07
-2.62042e-07
-9.33928e-08
5.68095e-08
-2.90374e-07
-1.57969e-07
2.27999e-07
-2.43239e-07
-1.89726e-07
-2.5065e-08
-2.60558e-07
-2.67921e-07
1.30892e-07
-2.65341e-07
-2.66425e-07
-7.59382e-08
-2.80598e-07
-2.42421e-07
-1.68136e-08
-3.24908e-07
1.57714e-07
-3.25072e-07
-4.03028e-07
5.14883e-07
-5.76307e-07
-5.05045e-07
5.09054e-07
-4.60329e-07
-2.09052e-07
1.54878e-08
-4.26446e-07
-1.97996e-07
1.32477e-07
-6.68667e-07
-1.2471e-08
2.86997e-06
-1.02764e-06
4.78509e-08
5.49352e-07
2.4296e-06
-2.54156e-06
-5.20546e-06
6.53184e-06
-3.36432e-06
5.18805e-06
-2.0585e-06
-6.84563e-06
1.17885e-05
2.32273e-05
-9.26306e-06
1.75694e-05
-3.3733e-06
1.25026e-05
-3.82355e-05
-2.33895e-05
6.06113e-06
-0.000115619
-3.78493e-05
9.70498e-06
-0.000116348
-6.42722e-06
3.29944e-06
-0.000115958
-6.7247e-06
1.67193e-06
-0.000113521
5.04392e-08
-3.73087e-08
-0.000111082
6.33551e-07
4.35929e-07
-0.000112236
2.09851e-06
2.9689e-06
-0.000116188
1.92219e-06
4.41377e-06
-0.000121548
1.95402e-06
4.68156e-06
-0.000125893
1.18788e-06
4.04477e-06
-0.000128537
6.23402e-07
3.06397e-06
-0.000130224
-1.04673e-07
2.31471e-06
-0.00013097
-5.89915e-07
1.79437e-06
-0.000130906
-1.37003e-06
1.32116e-06
-0.000130248
-2.18643e-06
9.64322e-07
-0.000127358
-3.02839e-06
5.73964e-07
-0.000112649
-3.70352e-06
1.93877e-07
-6.086e-05
-4.29676e-06
-1.35037e-07
-1.92754e-05
-5.00332e-06
-5.1396e-07
-1.69474e-05
-5.22717e-06
-7.85762e-07
-1.43574e-05
-5.18304e-06
-9.71864e-07
-1.17841e-05
-4.7973e-06
-1.06108e-06
-9.2864e-06
-4.12166e-06
-1.14645e-06
-6.89873e-06
-3.04229e-06
-1.20435e-06
-4.81551e-06
-1.53331e-06
-1.14582e-06
-3.11857e-06
-1.31724e-08
-1.04447e-06
-1.72067e-06
2.11609e-06
-8.14319e-07
-1.1247e-06
4.79488e-06
-2.88711e-07
-1.58502e-06
7.55839e-06
4.09088e-07
-3.32767e-06
9.8134e-06
1.75926e-06
-4.83518e-06
1.04755e-05
3.04239e-06
-5.171e-06
6.50925e-06
2.91861e-06
-6.29109e-06
3.72914e-06
1.84742e-06
-7.22278e-06
3.28643e-06
6.67853e-07
-6.80942e-06
4.95607e-06
-1.55652e-06
-4.99016e-06
7.86068e-06
-3.81977e-06
9.97519e-06
-6.68964e-06
-6.22023e-06
-4.01133e-06
3.34732e-07
-4.95749e-06
-5.40432e-06
-1.2117e-06
-4.62271e-06
-4.42382e-06
-3.77263e-07
-3.19733e-06
-4.59998e-06
-1.48008e-06
-2.76043e-06
-2.94854e-06
-5.83732e-07
-1.80543e-06
-3.2392e-06
-9.21883e-07
-1.35143e-06
-1.70778e-06
-3.66102e-07
-9.17112e-07
-1.25073e-06
-2.51538e-08
-6.85039e-07
-2.30393e-07
-2.95302e-09
-4.8576e-07
-9.6375e-08
-7.15807e-08
-2.51683e-07
-1.29538e-07
-2.20022e-07
-1.74697e-07
-1.44648e-07
-2.34964e-07
-2.29666e-07
3.2825e-08
-2.45731e-07
-3.02192e-07
6.18313e-08
-2.50728e-07
-3.46739e-07
1.42671e-07
-2.82251e-07
-3.48069e-07
1.70554e-07
-3.08568e-07
-3.33027e-07
2.41639e-07
-3.2888e-07
-3.06765e-07
2.9767e-07
-3.41865e-07
-2.79841e-07
3.56318e-07
-3.46375e-07
-2.56183e-07
4.07686e-07
-3.46287e-07
-2.38796e-07
4.522e-07
-3.43384e-07
-2.27822e-07
4.88556e-07
-3.39358e-07
-2.21787e-07
5.16e-07
-3.35296e-07
-2.19422e-07
5.37076e-07
-3.31046e-07
-2.19578e-07
5.53868e-07
-3.26716e-07
-2.20838e-07
5.66539e-07
-3.2234e-07
-2.22739e-07
5.75383e-07
-3.17644e-07
-2.25117e-07
5.81893e-07
-3.12571e-07
-2.27588e-07
5.86336e-07
-3.0715e-07
-2.30432e-07
5.88945e-07
-3.01476e-07
-2.33688e-07
5.90625e-07
-2.95751e-07
-2.36453e-07
5.90801e-07
-2.90505e-07
-2.39629e-07
5.90719e-07
-2.8531e-07
-2.40856e-07
5.88544e-07
-2.81119e-07
-2.44453e-07
5.82786e-07
-2.77164e-07
-2.42692e-07
5.81321e-07
-2.72522e-07
-2.43624e-07
5.58093e-07
-2.72751e-07
-2.38023e-07
5.70236e-07
-2.61928e-07
-2.32701e-07
5.06902e-07
-2.69774e-07
-2.28016e-07
5.51002e-07
-2.46452e-07
-2.26621e-07
4.26036e-07
-2.63166e-07
-2.34899e-07
5.24501e-07
-2.27446e-07
-2.94174e-07
3.52151e-07
-2.36055e-07
-3.2119e-07
4.78524e-07
-2.23505e-07
-4.96806e-07
3.4797e-07
-1.97407e-07
-5.31672e-07
4.24062e-07
-2.58298e-07
-5.95638e-07
2.61042e-07
-2.73001e-07
-5.4687e-07
2.55919e-07
-3.21493e-07
4.11294e-08
-3.5611e-07
-5.56945e-07
5.2152e-07
-5.22689e-07
-5.34e-07
5.29397e-07
-2.55606e-07
-2.12583e-07
6.29489e-07
-2.366e-07
-2.89929e-07
7.27169e-08
-3.93506e-07
2.81625e-07
1.29792e-06
-2.63633e-06
3.83496e-07
2.43061e-06
3.80881e-06
-2.51205e-06
-3.90123e-07
1.31984e-05
-3.84585e-06
5.37612e-06
2.28647e-07
-8.05369e-06
2.55734e-05
1.4625e-05
-1.15949e-05
1.16463e-05
-1.26818e-05
1.90443e-05
-5.10777e-05
-1.43154e-05
5.81938e-06
-0.000114406
-3.2185e-05
1.46067e-05
-0.000128175
-5.58205e-06
4.8519e-06
-0.000143196
-3.89927e-06
3.00891e-06
-0.000144387
5.0758e-07
6.78409e-08
-0.000144465
1.39963e-06
6.27232e-07
-0.000143509
2.56004e-06
1.56753e-06
-0.000142697
2.37284e-06
1.97547e-06
-0.000141343
2.20926e-06
1.87546e-06
-0.000137136
1.59589e-06
1.49927e-06
-0.000126544
7.64231e-07
1.00705e-06
-0.000139027
-1.53054e-07
6.116e-07
-0.000157335
-6.52285e-07
1.93561e-07
-0.000152506
-1.39834e-06
1.36101e-07
-0.000149724
-2.3225e-06
-1.53742e-07
-0.000148681
-3.24865e-06
-5.01286e-07
-0.000150233
-4.02228e-06
-6.96991e-07
-0.00015146
-4.81705e-06
-9.21249e-07
-0.000146883
-5.59217e-06
-1.19632e-06
-0.000144463
-6.09414e-06
-1.43213e-06
-0.000143564
-6.07504e-06
-1.29334e-06
-0.000138792
-5.81083e-06
-1.3013e-06
-0.0001257
-5.25793e-06
-1.1651e-06
-0.000106938
-4.18118e-06
-9.68546e-07
-5.80102e-05
-2.45218e-06
-4.36018e-07
-1.44888e-05
-1.63676e-06
-3.17907e-07
-1.25303e-05
4.73407e-08
3.89737e-07
-1.13414e-05
2.12871e-06
7.02831e-07
-1.00615e-05
4.87492e-06
1.87667e-06
-8.419e-06
4.88134e-06
2.64371e-06
-6.09057e-06
5.91596e-06
2.66747e-06
-5.05336e-06
3.97494e-06
1.37747e-06
-5.39809e-06
3.59032e-06
2.05677e-07
-5.67238e-06
4.46004e-06
-1.03074e-06
-5.07205e-06
7.03354e-06
-2.56101e-06
-3.5661e-06
1.08304e-05
-4.20998e-06
1.54186e-05
-6.44886e-06
-6.42294e-06
-2.86867e-06
2.50678e-07
-4.85755e-06
-4.83055e-06
-2.13915e-06
-4.53154e-06
-3.70511e-06
-1.04472e-06
-3.0368e-06
-4.08061e-06
-2.01411e-06
-2.4952e-06
-2.47017e-06
-1.01997e-06
-1.41227e-06
-2.80749e-06
-1.51463e-06
-1.07081e-06
-1.15985e-06
-8.89401e-07
-8.7145e-07
-1.09552e-06
-3.54577e-07
-7.22167e-07
-1.03588e-07
-2.761e-07
-4.51823e-07
-1.20607e-07
-2.46121e-07
-8.45394e-08
-8.5158e-08
-4.11676e-07
3.16182e-08
5.27564e-08
-3.13572e-07
-1.29954e-08
3.6282e-07
-2.85394e-07
-1.20744e-07
4.15749e-07
-2.46178e-07
-1.98864e-07
5.07044e-07
-2.86265e-07
-2.48257e-07
5.21447e-07
-3.0151e-07
-2.83248e-07
5.99164e-07
-3.22546e-07
-2.9718e-07
6.44214e-07
-3.3262e-07
-3.01968e-07
6.99314e-07
-3.38219e-07
-3.01536e-07
7.46246e-07
-3.39001e-07
-3.00226e-07
7.85767e-07
-3.34888e-07
-3.01389e-07
8.15498e-07
-3.25787e-07
-3.04583e-07
8.36466e-07
-3.17282e-07
-3.09014e-07
8.51088e-07
-3.09588e-07
-3.14094e-07
8.61051e-07
-3.02113e-07
-3.18819e-07
8.6637e-07
-2.95114e-07
-3.23258e-07
8.6798e-07
-2.88167e-07
-3.26413e-07
8.67182e-07
-2.8214e-07
-3.29195e-07
8.64845e-07
-2.75735e-07
-3.32042e-07
8.60936e-07
-2.6915e-07
-3.34951e-07
8.56093e-07
-2.62566e-07
-3.37071e-07
8.49485e-07
-2.56568e-07
-3.39552e-07
8.43555e-07
-2.50362e-07
-3.3982e-07
8.34174e-07
-2.45366e-07
-3.42181e-07
8.24185e-07
-2.39045e-07
-3.37892e-07
8.11634e-07
-2.34605e-07
-3.43172e-07
7.92939e-07
-2.29573e-07
-3.34265e-07
7.84751e-07
-2.23426e-07
-3.4719e-07
7.39973e-07
-2.20155e-07
-3.37573e-07
7.51477e-07
-2.10096e-07
-3.79388e-07
6.70783e-07
-2.02941e-07
-3.75278e-07
7.19545e-07
-1.9916e-07
-4.87836e-07
6.322e-07
-1.67503e-07
-4.87697e-07
6.82754e-07
-2.04377e-07
-6.62364e-07
6.6748e-07
-1.44857e-07
-6.55617e-07
6.45047e-07
-2.27743e-07
-6.70483e-07
5.32492e-07
-2.566e-07
-6.2074e-07
4.87639e-07
-2.81473e-07
-1.39501e-07
-2.44775e-07
-5.92593e-07
9.46264e-08
-2.92118e-07
-4.64709e-07
1.70398e-07
-1.0934e-07
-2.22057e-07
5.66525e-07
-2.26289e-07
-4.06451e-07
-9.11186e-08
-1.82309e-07
4.46419e-07
-4.42614e-07
-2.6246e-06
3.39743e-07
1.82081e-06
2.84311e-06
-1.29785e-06
8.77427e-06
9.97983e-06
-3.73504e-06
1.20806e-05
6.04036e-06
-9.11845e-06
3.5214e-05
5.69955e-06
-1.42076e-05
-1.49672e-06
-9.1447e-06
2.35982e-05
-8.77124e-05
-4.83921e-06
6.19812e-06
-0.000154407
-1.16573e-05
1.86089e-05
-0.000157565
-4.50858e-07
6.97331e-06
-0.000169033
1.4002e-06
2.31708e-06
-0.000185816
3.37432e-06
1.18716e-07
-0.000185857
3.48969e-06
-5.03361e-07
-0.000180624
4.0121e-06
-7.7039e-08
-0.000170404
3.43921e-06
2.1003e-07
-0.000173469
2.90996e-06
2.33413e-07
-0.000170849
2.1814e-06
8.91197e-08
-0.000148515
1.27822e-06
-3.42632e-08
-0.000159807
5.00993e-07
-3.14924e-07
-0.000182614
-2.69581e-07
-4.36394e-07
-0.000182899
-1.06131e-06
-5.87055e-07
-0.000182422
-2.10234e-06
-7.2084e-07
-0.000183065
-3.2091e-06
-8.29064e-07
-0.00018433
-4.26953e-06
-9.76314e-07
-0.000181665
-5.31408e-06
-1.12902e-06
-0.000177094
-6.36251e-06
-1.35701e-06
-0.000176563
-7.14525e-06
-1.63432e-06
-0.000174152
-7.37142e-06
-1.92479e-06
-0.000174308
-7.42711e-06
-2.14799e-06
-0.000169144
-7.06179e-06
-2.39168e-06
-0.000159876
-6.15891e-06
-2.37525e-06
-0.000153415
-4.68434e-06
-2.12472e-06
-0.000144401
-2.9611e-06
-1.75907e-06
-0.000134317
-1.42846e-06
-1.20943e-06
-7.58575e-05
4.10898e-07
-4.86504e-07
-3.17556e-05
1.74147e-06
-2.17456e-07
-2.99031e-05
3.20929e-06
-6.35076e-07
-1.14355e-05
3.50364e-06
-1.1387e-06
-8.25453e-06
4.26128e-06
-2.67452e-06
-6.27946e-06
5.83188e-06
-3.61935e-06
-4.53294e-06
8.38318e-06
-4.8633e-06
-3.22032e-06
1.2143e-05
-5.61812e-06
-8.372e-06
1.64293e-05
-6.2187e-06
1.92011e-05
-7.18007e-06
-6.52297e-06
-1.18933e-06
7.5547e-07
-4.77588e-06
-3.97241e-06
-2.60522e-06
-4.34651e-06
-2.57229e-06
-1.56219e-06
-3.06226e-06
-3.1968e-06
-2.16806e-06
-2.49826e-06
-1.56655e-06
-1.46761e-06
-1.25918e-06
-1.93174e-06
-2.11484e-06
-8.60821e-07
-2.97641e-07
-1.26058e-06
-6.67016e-07
-4.86335e-07
-8.03e-07
-5.29595e-07
3.68585e-07
-6.09605e-07
-2.88952e-07
1.16399e-07
-4.77664e-07
3.3789e-08
2.04286e-07
-6.12196e-07
5.47428e-08
4.60196e-07
-4.28409e-07
2.06787e-08
8.40111e-07
-4.43239e-07
-3.37976e-08
8.43387e-07
-3.73177e-07
-8.84597e-08
9.80246e-07
-4.18552e-07
-1.55117e-07
9.87402e-07
-3.99312e-07
-2.24852e-07
1.08892e-06
-4.20036e-07
-2.79023e-07
1.13053e-06
-4.32155e-07
-3.20709e-07
1.18758e-06
-4.46592e-07
-3.49314e-07
1.23209e-06
-4.57252e-07
-3.68659e-07
1.27008e-06
-4.64978e-07
-3.82108e-07
1.30097e-06
-4.72038e-07
-3.93587e-07
1.3256e-06
-4.77667e-07
-4.0513e-07
1.34518e-06
-4.82568e-07
-4.17889e-07
1.36114e-06
-4.87337e-07
-4.3357e-07
1.3738e-06
-4.91766e-07
-4.48833e-07
1.37958e-06
-4.96345e-07
-4.58503e-07
1.3773e-06
-5.00457e-07
-4.64834e-07
1.37455e-06
-5.03382e-07
-4.6948e-07
1.37142e-06
-5.05852e-07
-4.72902e-07
1.36741e-06
-5.07901e-07
-4.7465e-07
1.3613e-06
-5.10085e-07
-4.76185e-07
1.35607e-06
-5.10991e-07
-4.75859e-07
1.34722e-06
-5.13386e-07
-4.78586e-07
1.34047e-06
-5.13575e-07
-4.75508e-07
1.32678e-06
-5.18241e-07
-4.87163e-07
1.31944e-06
-5.14861e-07
-4.79395e-07
1.29905e-06
-5.22083e-07
-5.15928e-07
1.28849e-06
-5.12001e-07
-5.07672e-07
1.26782e-06
-5.24622e-07
-5.98173e-07
1.2595e-06
-4.98233e-07
-5.90118e-07
1.23986e-06
-5.28397e-07
-7.52124e-07
1.26302e-06
-4.68846e-07
-7.22149e-07
1.19438e-06
-5.41632e-07
-8.54649e-07
1.25959e-06
-4.59643e-07
-7.9599e-07
1.13311e-06
-5.46761e-07
-6.96634e-07
1.04386e-06
-6.10766e-07
-6.92167e-07
1.02377e-06
-5.40643e-07
-3.87409e-07
3.77201e-07
-9.26778e-07
-4.92779e-07
6.15745e-07
-8.02545e-07
-5.17129e-07
6.9207e-07
-7.77107e-07
7.34026e-07
-1.88863e-07
-1.28864e-06
-9.85922e-07
1.68251e-06
-1.44932e-07
-3.20242e-06
5.81493e-07
-9.8965e-07
-2.88555e-06
3.84159e-06
-1.31546e-06
7.73875e-06
4.37248e-06
-5.01707e-06
1.32186e-05
1.11599e-05
-1.05999e-05
3.77737e-05
-8.05012e-08
-1.87747e-05
-8.88818e-06
-5.19608e-06
2.88929e-05
-0.000115795
9.30006e-06
7.55031e-06
-0.00018985
1.48869e-05
2.94117e-05
-0.00020932
1.16476e-05
1.06429e-05
-0.000219285
8.25867e-06
3.72241e-06
-0.000224248
7.64441e-06
-5.80311e-07
-0.000227961
7.68318e-06
-1.78749e-06
-0.000229115
6.7359e-06
-1.36636e-06
-0.000228751
5.67261e-06
-1.13218e-06
-0.000229632
4.50922e-06
-8.6906e-07
-0.000230699
3.3463e-06
-6.17407e-07
-0.000230963
2.23992e-06
-6.56501e-07
-0.000231316
1.54542e-06
-7.95583e-07
-0.000231608
6.73175e-07
-9.40341e-07
-0.000231401
-8.11683e-08
-1.05963e-06
-0.000231809
-9.62489e-07
-1.16719e-06
-0.000232242
-1.99133e-06
-1.23867e-06
-0.000231874
-3.05304e-06
-1.25444e-06
-0.000232355
-4.02601e-06
-1.27812e-06
-0.000232736
-5.039e-06
-1.39702e-06
-0.000232181
-5.6398e-06
-1.70066e-06
-0.000232192
-5.87545e-06
-2.06994e-06
-0.000232153
-5.59714e-06
-2.59025e-06
-0.000231433
-4.97802e-06
-3.1338e-06
-0.000230719
-4.0122e-06
-3.72782e-06
-0.000229666
-2.40593e-06
-4.15299e-06
-0.000227906
-9.67542e-07
-4.47579e-06
-0.000225329
8.43456e-07
-4.71693e-06
-0.000221776
2.29775e-06
-4.83839e-06
-0.00021742
3.89465e-06
-5.02421e-06
-0.000213324
5.03459e-06
-5.53076e-06
-0.000208245
5.97158e-06
-6.36207e-06
-0.000201414
6.93729e-06
-7.20223e-06
-0.000194557
8.27943e-06
-7.86713e-06
-0.000185829
1.02135e-05
-8.24062e-06
-0.000176921
1.24993e-05
-8.63109e-06
-0.000165703
1.43198e-05
-8.94751e-06
1.4057e-05
-8.73832e-06
-6.07298e-06
1.35703e-06
3.73136e-06
-4.5611e-06
-3.3199e-06
-2.16439e-06
-4.07908e-06
-1.70578e-06
-1.34853e-06
-2.88446e-06
-2.5746e-06
-1.81682e-06
-2.42189e-06
-7.40714e-07
-1.28842e-06
-1.64376e-06
-1.2783e-06
-1.43158e-06
-1.43193e-06
1.81841e-07
-6.91315e-07
-9.11428e-07
-2.48028e-07
-7.58825e-07
-6.76361e-07
4.71993e-07
-3.3849e-07
-3.61609e-07
1.72462e-08
-2.15613e-07
-1.11715e-07
2.17018e-07