/*--------------------------------*- C++ -*----------------------------------*\
| =========                 |                                                 |
| \\      /  F ield         | OpenFOAM: The Open Source CFD Toolbox           |
|  \\    /   O peration     | Version:  2.3.0                                 |
|   \\  /    A nd           | Web:      www.OpenFOAM.org                      |
|    \\/     M anipulation  |                                                 |
\*---------------------------------------------------------------------------*/
FoamFile
{
    version     2.0;
    format      ascii;
    class       surfaceScalarField;
    location    "17";
    object      phi.water;
}
// * * * * * * * * * * * * * * * * * * * * * * * * * * * * * * * * * * * * * //

dimensions      [0 3 -1 0 0 0 0];

internalField   nonuniform List<scalar> 
16448
(
-1.80991e-06
-2.90596e-06
8.61469e-07
2.11113e-07
-2.86798e-06
8.55437e-07
7.55148e-07
-1.50703e-06
9.69462e-07
1.34442e-06
-1.3846e-06
7.98787e-07
1.40012e-06
-5.44062e-07
4.93874e-07
1.41232e-06
-4.51921e-07
4.44551e-07
1.0791e-06
-1.53752e-07
4.90381e-07
6.80763e-07
-2.21762e-07
6.20331e-07
1.73274e-07
-2.15191e-07
7.22793e-07
-2.4297e-07
-2.76998e-07
6.93266e-07
-5.21206e-07
-3.33255e-07
6.11715e-07
-5.95939e-07
-4.32485e-07
5.07364e-07
-5.34943e-07
-5.1126e-07
4.50517e-07
-4.02004e-07
-5.59868e-07
4.27122e-07
-2.75932e-07
-5.72763e-07
4.46943e-07
-1.6861e-07
-5.77896e-07
4.70785e-07
-8.95319e-08
-5.76676e-07
4.97826e-07
-3.07219e-08
-5.75408e-07
5.16808e-07
1.07906e-08
-5.7326e-07
5.3197e-07
4.03971e-08
-5.70752e-07
5.41352e-07
6.12661e-08
-5.68049e-07
5.4739e-07
7.60832e-08
-5.64723e-07
5.50112e-07
8.69524e-08
-5.6165e-07
5.50998e-07
9.53679e-08
-5.58346e-07
5.50144e-07
1.01649e-07
-5.54885e-07
5.48824e-07
1.06346e-07
-5.51329e-07
5.46847e-07
1.09546e-07
-5.47552e-07
5.44581e-07
1.1241e-07
-5.44554e-07
5.41922e-07
1.15239e-07
-5.41746e-07
5.39156e-07
1.17546e-07
-5.38698e-07
5.36627e-07
1.19966e-07
-5.36366e-07
5.34198e-07
1.21582e-07
-5.33591e-07
5.32209e-07
1.24672e-07
-5.32583e-07
5.29763e-07
1.24961e-07
-5.29047e-07
5.28981e-07
1.3129e-07
-5.30996e-07
5.24966e-07
1.30624e-07
-5.25468e-07
5.26329e-07
1.42972e-07
-5.3078e-07
5.18779e-07
1.44987e-07
-5.24605e-07
5.22723e-07
1.63563e-07
-5.29242e-07
5.11098e-07
1.78233e-07
-5.27917e-07
5.13265e-07
2.05255e-07
-5.23222e-07
4.96802e-07
2.60854e-07
-5.46029e-07
4.90234e-07
3.10092e-07
-5.24e-07
4.75702e-07
4.37547e-07
-5.87473e-07
4.59399e-07
5.0541e-07
-5.36022e-07
4.69692e-07
6.61719e-07
-6.30986e-07
4.73267e-07
6.21865e-07
-5.19362e-07
5.616e-07
6.08548e-07
-5.47487e-07
5.58305e-07
4.19125e-07
-5.01329e-07
6.96958e-07
1.96515e-07
-3.73057e-07
5.98345e-07
5.02185e-07
-1.12435e-06
8.46968e-07
-1.29143e-07
-1.28233e-07
7.62542e-07
6.03816e-07
-1.66257e-06
1.09103e-06
7.72891e-08
-1.19533e-06
1.68963e-06
-3.82508e-07
-1.21502e-06
2.14635e-06
-1.64107e-06
-2.94985e-06
3.92959e-06
-4.50412e-07
5.78644e-07
-1.88828e-08
-4.13024e-06
3.61222e-06
-7.89771e-07
3.07371e-06
2.98594e-06
-1.18434e-06
2.75988e-05
-1.86714e-05
1.41781e-05
1.97469e-05
-2.38872e-05
5.83252e-06
2.2073e-05
-7.69028e-06
2.78333e-06
1.96608e-05
2.72262e-06
-3.2565e-07
2.14088e-05
-5.81115e-07
-1.16697e-06
2.22707e-05
7.14586e-07
-1.57645e-06
2.29664e-05
1.50755e-06
-2.20328e-06
2.36944e-05
1.68365e-06
-2.41162e-06
2.42664e-05
1.71137e-06
-2.28337e-06
2.46014e-05
1.70612e-06
-2.04116e-06
2.47182e-05
1.65924e-06
-1.77597e-06
2.46917e-05
1.54955e-06
-1.52308e-06
2.45833e-05
1.39347e-06
-1.28512e-06
2.44639e-05
1.1986e-06
-1.07919e-06
2.44027e-05
9.69562e-07
-9.08357e-07
2.44409e-05
7.22629e-07
-7.60766e-07
2.4575e-05
4.91063e-07
-6.25225e-07
2.483e-05
2.61991e-07
-5.16951e-07
2.51587e-05
8.81328e-08
-4.16816e-07
2.54867e-05
-2.29019e-08
-3.05134e-07
2.57973e-05
-6.27967e-08
-2.47865e-07
2.60138e-05
-5.78771e-08
-1.58611e-07
2.59925e-05
9.79214e-08
-7.65556e-08
2.57304e-05
2.80952e-07
-1.88935e-08
2.52388e-05
5.14361e-07
-2.28065e-08
2.41309e-05
9.57952e-07
1.49954e-07
2.261e-05
1.32043e-06
2.00531e-07
2.01379e-05
2.02789e-06
4.44176e-07
1.6974e-05
2.41419e-06
7.49697e-07
1.26306e-05
3.16387e-06
1.17958e-06
6.23846e-06
3.87105e-06
2.52105e-06
3.03234e-07
2.97009e-06
2.96514e-06
-3.59578e-06
1.2391e-06
2.65992e-06
-6.19972e-06
5.08807e-07
2.09514e-06
-6.59195e-06
6.58214e-07
-2.65985e-07
-4.47342e-06
8.36853e-07
-2.95539e-06
4.34779e-07
-4.90819e-06
-4.19909e-06
-4.17595e-06
1.20669e-07
-2.89854e-06
-4.18727e-06
2.44916e-08
-1.9907e-06
-2.851e-06
4.41806e-07
-6.66032e-07
-2.77635e-06
7.36838e-08
1.66802e-07
-1.27654e-06
-9.31871e-08
6.3685e-07
-8.71419e-07
-4.44835e-08
5.82926e-07
-1.48466e-07
5.23337e-08
2.09949e-07
-1.34941e-07
2.85921e-07
-2.54636e-07
-1.08337e-07
3.57488e-07
-6.24437e-07
-2.15737e-07
3.08293e-07
-8.41958e-07
-3.11249e-07
1.95588e-07
-8.33637e-07
-5.14489e-07
7.35109e-08
-7.16638e-07
-6.50392e-07
2.21105e-08
-5.5066e-07
-7.22821e-07
-3.1668e-09
-3.99531e-07
-7.301e-07
6.17176e-09
-2.71859e-07
-7.24555e-07
1.89419e-08
-1.76338e-07
-7.07183e-07
3.49932e-08
-1.05228e-07
-6.92762e-07
4.62563e-08
-5.48454e-08
-6.78215e-07
5.45965e-08
-1.88731e-08
-6.65797e-07
5.90932e-08
6.42001e-09
-6.54714e-07
6.14015e-08
2.43724e-08
-6.44439e-07
6.17982e-08
3.71627e-08
-6.35425e-07
6.10281e-08
4.65759e-08
-6.27078e-07
5.93645e-08
5.30868e-08
-6.18992e-07
5.76366e-08
5.75406e-08
-6.11205e-07
5.54703e-08
6.07039e-08
-6.03714e-07
5.30581e-08
6.33118e-08
-5.97633e-07
5.05343e-08
6.53619e-08
-5.9175e-07
4.80124e-08
6.71531e-08
-5.86158e-07
4.57322e-08
6.93339e-08
-5.81902e-07
4.3431e-08
7.0167e-08
-5.76119e-07
4.17518e-08
7.3588e-08
-5.74784e-07
3.88618e-08
7.11462e-08
-5.65833e-07
3.92635e-08
8.12351e-08
-5.73922e-07
3.29394e-08
7.33441e-08
-5.5577e-07
3.82059e-08
9.74126e-08
-5.79868e-07
2.51272e-08
8.16185e-08
-5.47035e-07
3.8213e-08
1.21104e-07
-5.85853e-07
1.72703e-08
1.1114e-07
-5.5092e-07
3.28868e-08
1.71907e-07
-5.92291e-07
8.5694e-09
2.03721e-07
-5.90361e-07
1.21795e-08
2.888e-07
-6.15283e-07
6.84613e-09
4.02563e-07
-6.7719e-07
-2.4886e-08
5.05332e-07
-6.55903e-07
1.84261e-08
6.87823e-07
-7.98719e-07
-1.64351e-08
6.8755e-07
-6.15965e-07
9.91712e-08
8.79758e-07
-7.35945e-07
-6.62758e-09
7.11362e-07
-5.32118e-07
2.03574e-07
1.1313e-06
-6.49828e-07
-1.43986e-07
9.17691e-07
-1.23644e-06
3.47931e-07
1.57104e-06
-6.72167e-07
-1.00312e-07
1.08273e-07
-8.8772e-07
8.51467e-07
-3.06623e-06
3.33702e-07
1.64415e-06
2.70727e-07
-3.62872e-06
-4.88045e-07
3.7245e-06
-8.04064e-06
1.285e-06
-2.16428e-06
9.12766e-06
-1.1213e-06
-1.01156e-05
1.1669e-05
-1.05206e-06
3.78801e-06
5.49476e-06
-6.76537e-06
2.67601e-05
-3.12267e-05
6.16499e-06
3.05681e-06
-3.26388e-05
7.27364e-06
1.37521e-06
-8.98407e-06
9.05433e-07
1.20209e-05
-2.41458e-06
-5.50944e-06
1.37794e-05
1.58072e-06
-3.92028e-06
1.4995e-05
3.75153e-06
-4.25256e-06
1.73617e-05
3.58025e-06
-4.43948e-06
1.93465e-05
3.69482e-06
-3.99594e-06
2.0648e-05
3.74859e-06
-3.33871e-06
2.14508e-05
3.58477e-06
-2.68144e-06
2.19211e-05
3.29322e-06
-2.10429e-06
2.21531e-05
2.91749e-06
-1.59995e-06
2.22154e-05
2.51233e-06
-1.18116e-06
2.22113e-05
2.05241e-06
-8.49796e-07
2.22575e-05
1.4934e-06
-5.7003e-07
2.24252e-05
8.86334e-07
-3.31419e-07
2.26737e-05
3.6836e-07
-1.25759e-07
2.29603e-05
-5.05829e-08
2.6003e-08
2.33149e-05
-4.27331e-07
1.60837e-07
2.37099e-05
-6.61692e-07
2.43831e-07
2.40846e-05
-7.24427e-07
2.86911e-07
2.44101e-05
-6.80886e-07
2.97475e-07
2.46625e-05
-3.95528e-07
2.41083e-07
2.46281e-05
4.25817e-08
2.72719e-07
2.43283e-05
6.26407e-07
1.87743e-07
2.34698e-05
1.53021e-06
2.86226e-07
2.21271e-05
2.40698e-06
2.56172e-07
2.00154e-05
3.62934e-06
5.10283e-07
1.69624e-05
4.72379e-06
7.43392e-07
1.32269e-05
5.82588e-06
1.07351e-06
7.75442e-06
7.07707e-06
2.26644e-06
1.9746e-06
5.9811e-06
2.76882e-06
-2.5121e-06
3.09728e-06
2.62851e-06
-5.65631e-06
1.54888e-06
2.10413e-06
-6.25904e-06
1.69289e-06
-4.31947e-07
-4.38952e-06
2.31408e-06
-3.34674e-06
2.13014e-06
-6.08488e-06
-5.30594e-06
-4.58666e-06
2.23366e-08
-4.34013e-06
-4.8651e-06
-2.83417e-07
-3.57253e-06
-3.77482e-06
1.6201e-07
-2.25983e-06
-3.78834e-06
-2.94563e-07
-1.25977e-06
-2.14977e-06
-1.21304e-07
-3.24971e-07
-1.63694e-06
-1.61933e-07
4.92623e-08
-3.41079e-07
-1.75341e-07
-1.599e-07
-3.02447e-08
1.05746e-07
-5.17627e-07
9.91034e-08
1.50093e-07
-7.81278e-07
-7.97851e-08
1.27421e-07
-9.14332e-07
-1.97726e-07
1.96928e-08
-8.60965e-07
-4.61877e-07
-1.06083e-07
-7.43826e-07
-5.91918e-07
-1.7551e-07
-5.99942e-07
-6.51756e-07
-2.15002e-07
-4.67799e-07
-6.31629e-07
-2.3059e-07
-3.51334e-07
-6.06958e-07
-2.34088e-07
-2.60172e-07
-5.70384e-07
-2.27943e-07
-1.90062e-07
-5.40075e-07
-2.2279e-07
-1.38521e-07
-5.11126e-07
-2.18614e-07
-1.01205e-07
-4.86546e-07
-2.16558e-07
-7.43316e-08
-4.65286e-07
-2.16283e-07
-5.5008e-08
-4.46383e-07
-2.17366e-07
-4.11394e-08
-4.30065e-07
-2.19203e-07
-3.07552e-08
-4.15864e-07
-2.21577e-07
-2.33477e-08
-4.02617e-07
-2.23762e-07
-1.85163e-08
-3.90021e-07
-2.25997e-07
-1.52593e-08
-3.78643e-07
-2.28291e-07
-1.28615e-08
-3.69242e-07
-2.30752e-07
-1.13586e-08
-3.60069e-07
-2.33143e-07
-9.83007e-09
-3.5208e-07
-2.35561e-07
-8.54608e-09
-3.45307e-07
-2.37818e-07
-7.24947e-09
-3.37794e-07
-2.39586e-07
-6.63005e-09
-3.34345e-07
-2.40968e-07
-5.40665e-09
-3.2491e-07
-2.4217e-07
-1.59831e-09
-3.31563e-07
-2.45948e-07
-9.70836e-10
-3.1262e-07
-2.43957e-07
1.25249e-08
-3.40846e-07
-2.52148e-07
1.11594e-08
-3.01816e-07
-2.4419e-07
4.49047e-08
-3.59367e-07
-2.59816e-07
3.75572e-08
-3.01509e-07
-2.42333e-07
1.11522e-07
-3.951e-07
-2.7082e-07
9.59881e-08
-3.36137e-07
-2.38781e-07
2.08955e-07
-4.57886e-07
-2.69906e-07
2.3459e-07
-4.51721e-07
-2.51708e-07
3.50158e-07
-5.36045e-07
-2.34328e-07
4.20994e-07
-6.13978e-07
-2.56908e-07
4.65115e-07
-5.09538e-07
-1.4855e-07
6.49339e-07
-6.33745e-07
-2.88824e-07
6.1248e-07
-4.09936e-07
-8.0187e-08
1.2457e-06
-8.18524e-07
-4.6404e-07
9.94454e-07
-9.73012e-07
1.37757e-08
1.97581e-06
-1.18263e-06
-4.60447e-07
1.11894e-06
-1.62214e-07
2.94969e-07
-1.59157e-06
2.7663e-06
2.77209e-07
2.65512e-06
-5.31919e-06
-1.87171e-06
1.34454e-06
-8.16887e-06
1.099e-06
6.66994e-06
8.5469e-06
-2.4525e-06
3.97973e-06
1.5877e-05
-2.8012e-06
6.36412e-06
1.58117e-05
-3.68449e-06
2.3738e-05
-3.50922e-05
2.93533e-06
-2.48067e-06
-3.68093e-05
7.60648e-06
-2.69308e-06
-1.08192e-05
1.17501e-06
6.18244e-06
-8.61712e-06
-2.67297e-06
6.74175e-06
3.6551e-06
-2.63371e-06
1.04421e-05
3.50723e-06
-3.4561e-06
1.31463e-05
4.21741e-06
-3.34133e-06
1.47666e-05
4.77818e-06
-2.70367e-06
1.58485e-05
4.33154e-06
-1.66491e-06
1.65963e-05
3.484e-06
-6.47022e-07
1.69808e-05
2.76272e-06
1.46009e-07
1.70277e-05
2.09473e-06
7.75845e-07
1.6839e-05
1.5721e-06
1.12901e-06
1.653e-05
1.01649e-06
1.34485e-06
1.61429e-05
3.93667e-07
1.48685e-06
1.57434e-05
-2.85584e-07
1.57141e-06
1.54726e-05
-9.68157e-07
1.60729e-06
1.53725e-05
-1.51081e-06
1.56041e-06
1.54396e-05
-1.92634e-06
1.43188e-06
1.57462e-05
-2.20351e-06
1.23524e-06
1.62464e-05
-2.25736e-06
1.03271e-06
1.68753e-05
-2.09499e-06
7.85202e-07
1.76073e-05
-1.67675e-06
5.492e-07
1.82763e-05
-9.97233e-07
3.70836e-07
1.88763e-05
-8.93041e-08
1.15725e-07
1.899e-05
1.28881e-06
1.27655e-07
1.85227e-05
2.84959e-06
2.46734e-08
1.7104e-05
4.66085e-06
3.8721e-07
1.47329e-05
6.23929e-06
8.55548e-07
1.15275e-05
7.77767e-06
1.25364e-06
6.60674e-06
9.51821e-06
2.47963e-06
1.31148e-06
8.21054e-06
3.06581e-06
-2.59002e-06
4.40254e-06
2.59625e-06
-5.5179e-06
2.46215e-06
2.01462e-06
-6.05676e-06
2.71842e-06
-4.86669e-07
-4.20335e-06
3.90014e-06
-3.43947e-06
4.38476e-06
-6.45797e-06
-5.69983e-06
-4.66222e-06
2.29326e-07
-4.80476e-06
-5.17064e-06
-5.88143e-07
-4.40081e-06
-4.20415e-06
2.96454e-08
-3.37608e-06
-4.36107e-06
-4.48523e-07
-2.58041e-06
-2.83934e-06
-9.91813e-08
-1.35195e-06
-2.60665e-06
-2.49357e-07
-4.89848e-07
-1.00638e-06
-1.89207e-07
-3.09331e-07
-2.9388e-07
8.58905e-08
-5.1751e-07
1.77338e-07
1.30048e-07
-7.26168e-07
2.70685e-08
1.01497e-07
-7.85177e-07
-1.38958e-07
4.15964e-10
-7.16361e-07
-3.98949e-07
-1.31741e-07
-6.42457e-07
-4.59743e-07
-2.05755e-07
-5.56684e-07
-4.81378e-07
-2.55989e-07
-4.70563e-07
-4.29214e-07
-2.88252e-07
-3.77582e-07
-3.89075e-07
-3.1066e-07
-2.95792e-07
-3.34081e-07
-3.17853e-07
-2.28286e-07
-2.87661e-07
-3.19684e-07
-1.75621e-07
-2.448e-07
-3.18752e-07
-1.36525e-07
-2.07928e-07
-3.17472e-07
-1.08352e-07
-1.75997e-07
-3.1722e-07
-8.84504e-08
-1.4832e-07
-3.17707e-07
-7.43907e-08
-1.25523e-07
-3.18343e-07
-6.44934e-08
-1.0622e-07
-3.19274e-07
-5.77281e-08
-8.87517e-08
-3.2037e-07
-5.33746e-08
-7.26626e-08
-3.21434e-07
-5.05998e-08
-5.87736e-08
-3.22363e-07
-4.91106e-08
-4.70447e-08
-3.23394e-07
-4.85476e-08
-3.59793e-08
-3.24368e-07
-4.83276e-08
-2.66023e-08
-3.25401e-07
-4.86633e-08
-1.82565e-08
-3.26421e-07
-4.84879e-08
-1.02527e-08
-3.27432e-07
-4.92893e-08
-4.67069e-09
-3.28564e-07
-4.76785e-08
3.1701e-09
-3.29444e-07
-4.69763e-08
-5.43235e-10
-3.31344e-07
-4.31277e-08
1.3334e-08
-3.29651e-07
-3.36894e-08
-1.33071e-08
-3.36456e-07
-2.93842e-08
2.27379e-08
-3.28927e-07
-6.78487e-10
-4.29419e-08
-3.44295e-07
-1.84527e-09
2.45594e-08
-3.25344e-07
6.07006e-08
-1.01029e-07
-3.55725e-07
3.43421e-08
3.41107e-09
-3.13459e-07
1.33496e-07
-1.96628e-07
-3.59509e-07
5.39026e-08
-8.02599e-08
-2.92144e-07
1.73625e-07
-3.17797e-07
-3.36827e-07
4.70509e-08
-2.13138e-07
-2.75155e-07
1.91845e-07
-3.55498e-07
-2.97071e-07
1.80008e-07
-3.18275e-07
-3.0475e-07
3.79292e-07
-3.28548e-07
-2.75069e-07
7.30248e-07
-7.24844e-07
-4.422e-07
6.66355e-07
-6.76106e-07
-1.96274e-07
8.61298e-07
-1.11832e-06
-2.52152e-07
1.50759e-06
-5.66088e-07
-9.63115e-08
2.03593e-06
1.76626e-06
4.82258e-07
1.38177e-06
-2.42274e-06
-1.62342e-06
-4.53066e-06
-2.54749e-06
1.05254e-07
7.68803e-06
1.50721e-06
-2.80243e-06
9.41905e-06
2.0398e-05
-7.92928e-06
2.22903e-05
1.56722e-05
-5.47661e-07
2.90636e-05
-3.10465e-05
5.07748e-06
-2.71948e-06
-4.05507e-05
9.63582e-06
-8.31581e-06
-8.94168e-06
2.65399e-06
-7.98775e-06
-9.37307e-06
4.27888e-07
-3.81509e-06
2.92983e-06
-3.44741e-06
2.95229e-06
1.12425e-06
-4.38441e-06
5.95841e-06
3.66184e-06
-2.45056e-06
7.72467e-06
3.23112e-06
-2.19212e-07
8.21618e-06
2.43215e-06
1.40788e-06
7.74061e-06
1.40113e-06
2.55843e-06
6.55255e-06
8.63079e-07
3.0877e-06
4.82255e-06
5.92567e-07
3.23217e-06
2.82568e-06
3.96858e-07
3.17211e-06
9.78873e-07
-1.11592e-07
2.97489e-06
-5.40575e-07
-7.90897e-07
2.70401e-06
-1.59916e-06
-1.57918e-06
2.35218e-06
-2.08091e-06
-2.38248e-06
1.89607e-06
-1.89483e-06
-3.09721e-06
1.40031e-06
-1.07164e-06
-3.69329e-06
9.43763e-07
2.07931e-07
-4.04173e-06
5.58645e-07
1.80767e-06
-4.07201e-06
2.14902e-07
3.59266e-06
-3.80352e-06
-7.64605e-08
5.43501e-06
-3.21578e-06
-3.03323e-07
7.22274e-06
-2.2637e-06
-5.21267e-07
8.85092e-06
-1.01738e-06
-7.00098e-07
1.02395e-05
6.6972e-07
-7.69461e-07
1.12328e-05
2.70688e-06
-8.50661e-07
1.12448e-05
5.0962e-06
-4.47315e-07
1.01059e-05
7.43423e-06
-5.60793e-08
7.56212e-06
9.61287e-06
7.08603e-07
2.82148e-06
1.17727e-05
2.48617e-06
-1.15798e-06
9.04207e-06
3.14793e-06
-3.65875e-06
4.49008e-06
2.41323e-06
-5.65326e-06
3.01662e-06
1.44005e-06
-5.80021e-06
3.75747e-06
-8.92107e-07
-4.00787e-06
5.75271e-06
-3.64492e-06
7.04929e-06
-6.6724e-06
-5.94095e-06
-4.57456e-06
4.39172e-07
-4.92525e-06
-5.3528e-06
-8.35305e-07
-4.63979e-06
-4.46551e-06
-1.96356e-08
-3.4492e-06
-4.65358e-06
-8.97069e-07
-2.90959e-06
-3.09453e-06
-2.77773e-07
-1.8353e-06
-3.20516e-06
-4.67378e-07
-1.09102e-06
-1.61901e-06
-1.24325e-07
-5.98364e-07
-8.40753e-07
5.92782e-08
-5.03471e-07
-7.85077e-10
8.5448e-08
-5.52661e-07
3.16447e-08
4.42101e-08
-5.01614e-07
-1.1525e-07
-7.46785e-08
-4.41751e-07
-3.02501e-07
-1.56494e-07
-4.32041e-07
-2.67848e-07
-2.01563e-07
-4.19023e-07
-2.61451e-07
-2.33067e-07
-3.95565e-07
-1.842e-07
-2.68449e-07
-3.4492e-07
-1.39448e-07
-3.00322e-07
-2.89483e-07
-7.2327e-08
-3.17158e-07
-2.32858e-07
-1.80705e-08
-3.26201e-07
-1.84961e-07
3.6697e-08
-3.29352e-07
-1.47844e-07
8.48518e-08
-3.29879e-07
-1.21091e-07
1.2597e-07
-3.28695e-07
-1.02671e-07
1.59916e-07
-3.26646e-07
-8.98479e-08
1.86462e-07
-3.24782e-07
-8.09109e-08
2.081e-07
-3.23246e-07
-7.51288e-08
2.26685e-07
-3.21201e-07
-7.14277e-08
2.42612e-07
-3.18962e-07
-6.86972e-08
2.55496e-07
-3.16964e-07
-6.75116e-08
2.66588e-07
-3.14792e-07
-6.72402e-08
2.76346e-07
-3.12553e-07
-6.7756e-08
2.84244e-07
-3.10293e-07
-6.92718e-08
2.91225e-07
-3.07919e-07
-7.06815e-08
2.97124e-07
-3.05937e-07
-7.30373e-08
3.01812e-07
-3.04058e-07
-7.32021e-08
3.05765e-07
-3.02415e-07
-7.3184e-08
3.01577e-07
-3.02004e-07
-7.05942e-08
3.10099e-07
-2.99423e-07
-6.45303e-08
2.83936e-07
-3.03059e-07
-6.1246e-08
3.13416e-07
-2.94219e-07
-4.08006e-08
2.41949e-07
-3.0485e-07
-4.19596e-08
3.08709e-07
-2.83581e-07
-6.46012e-10
1.63737e-07
-3.05143e-07
-2.42181e-08
2.88213e-07
-2.62298e-07
1.48611e-08
5.62759e-08
-2.90608e-07
-5.07913e-08
2.27398e-07
-2.43502e-07
-8.00749e-08
-2.56409e-08
-2.60793e-07
-1.60031e-07
1.30227e-07
-2.65591e-07
-1.55366e-07
-7.65968e-08
-2.80777e-07
-1.3431e-07
-1.75428e-08
-3.25095e-07
2.72563e-07
-3.25821e-07
-4.03078e-07
6.32785e-07
-5.77105e-07
-5.0515e-07
6.68547e-07
-4.61299e-07
-2.09662e-07
1.88027e-07
-4.28281e-07
-1.99001e-07
3.95637e-07
-6.7051e-07
-1.27711e-08
3.17294e-06
-1.02834e-06
4.60773e-08
1.46897e-06
2.41083e-06
-2.50155e-06
-4.35814e-06
6.48535e-06
-3.3354e-06
7.63305e-06
-2.04629e-06
-6.72086e-06
1.36237e-05
2.3066e-05
-9.22188e-06
3.96588e-05
-3.78929e-06
1.27088e-05
3.37018e-05
-1.91112e-05
6.43515e-06
-9.15322e-06
-3.9964e-05
1.07276e-05
-1.36563e-05
-8.66582e-06
3.46002e-06
-1.53148e-05
-9.17152e-06
1.45518e-06
-1.06795e-05
-3.74499e-07
-1.33137e-06
-7.89813e-06
-8.06065e-08
-1.57695e-06
-7.31506e-06
1.90418e-06
1.17445e-06
-9.70855e-06
2.15814e-06
3.46658e-06
-1.40946e-05
2.2441e-06
4.57428e-06
-1.83476e-05
1.4024e-06
4.25181e-06
-2.13074e-05
7.57693e-07
3.06522e-06
-2.29276e-05
-6.0329e-08
2.27313e-06
-2.36148e-05
-5.86506e-07
1.67052e-06
-2.37237e-05
-1.19655e-06
1.1939e-06
-2.31808e-05
-2.10527e-06
7.71434e-07
-2.21785e-05
-2.9262e-06
3.44722e-07
-2.07263e-05
-3.75594e-06
-7.88247e-08
-1.8991e-05
-4.41079e-06
-4.21963e-07
-1.69979e-05
-5.00647e-06
-6.7988e-07
-1.47567e-05
-5.36751e-06
-9.15533e-07
-1.23287e-05
-5.39062e-06
-1.10936e-06
-9.85048e-06
-5.09272e-06
-1.18903e-06
-7.37466e-06
-4.4767e-06
-1.21492e-06
-5.01274e-06
-3.40979e-06
-1.21583e-06
-2.90916e-06
-1.96534e-06
-1.15562e-06
-1.17515e-06
-9.83192e-09
-1.05446e-06
2.53065e-07
2.10237e-06
-8.23699e-07
8.66805e-07
4.77845e-06
-2.9599e-07
3.62998e-07
7.53841e-06
3.99625e-07
-1.572e-06
9.79816e-06
1.7497e-06
-3.34097e-06
1.0496e-05
3.04569e-06
-3.75625e-06
6.53012e-06
2.92722e-06
-4.85022e-06
3.73133e-06
1.85272e-06
-5.78728e-06
3.27846e-06
6.75209e-07
-5.43325e-06
4.94226e-06
-1.53882e-06
-3.73533e-06
7.84668e-06
-3.79189e-06
9.97894e-06
-6.66498e-06
-6.159e-06
-4.0106e-06
3.34739e-07
-4.8987e-06
-5.40293e-06
-1.21235e-06
-4.56e-06
-4.42234e-06
-3.77623e-07
-3.13507e-06
-4.59852e-06
-1.48157e-06
-2.69169e-06
-2.94731e-06
-5.84311e-07
-1.73069e-06
-3.2379e-06
-9.22429e-07
-1.26966e-06
-1.70681e-06
-3.66425e-07
-8.29057e-07
-1.24986e-06
-2.56325e-08
-5.92354e-07
-2.29818e-07
-3.45158e-09
-3.91422e-07
-9.59843e-08
-7.20311e-08
-1.56598e-07
-1.29294e-07
-2.20398e-07
-7.92695e-08
-1.44471e-07
-2.35302e-07
-1.33677e-07
3.29123e-08
-2.46094e-07
-2.05847e-07
6.18805e-08
-2.51082e-07
-2.49852e-07
1.42695e-07
-2.82619e-07
-2.50768e-07
1.70543e-07
-3.08924e-07
-2.35214e-07
2.416e-07
-3.29241e-07
-2.08479e-07
2.97611e-07
-3.42221e-07
-1.81062e-07
3.56239e-07
-3.46736e-07
-1.56905e-07
4.07597e-07
-3.46647e-07
-1.39014e-07
4.52098e-07
-3.43751e-07
-1.27523e-07
4.88449e-07
-3.39726e-07
-1.20976e-07
5.15881e-07
-3.35669e-07
-1.1809e-07
5.36954e-07
-3.31418e-07
-1.1773e-07
5.53736e-07
-3.27093e-07
-1.18455e-07
5.66404e-07
-3.22716e-07
-1.19819e-07
5.75236e-07
-3.18025e-07
-1.21652e-07
5.81741e-07
-3.12954e-07
-1.2358e-07
5.86173e-07
-3.07539e-07
-1.25869e-07
5.88777e-07
-3.01867e-07
-1.28577e-07
5.90445e-07
-2.96149e-07
-1.30793e-07
5.90613e-07
-2.90904e-07
-1.33404e-07
5.90517e-07
-2.85715e-07
-1.34099e-07
5.88334e-07
-2.81526e-07
-1.37073e-07
5.82559e-07
-2.77575e-07
-1.34861e-07
5.81083e-07
-2.72936e-07
-1.3504e-07
5.57837e-07
-2.73164e-07
-1.29168e-07
5.69965e-07
-2.62351e-07
-1.22898e-07
5.0661e-07
-2.70188e-07
-1.18197e-07
5.50689e-07
-2.46885e-07
-1.15516e-07
4.25697e-07
-2.63584e-07
-1.2413e-07
5.24131e-07
-2.27892e-07
-1.81686e-07
3.51753e-07
-2.36487e-07
-2.09521e-07
4.78076e-07
-2.2396e-07
-3.82802e-07
3.47503e-07
-1.97855e-07
-4.19304e-07
4.23507e-07
-2.58747e-07
-4.79917e-07
2.60439e-07
-2.73386e-07
-4.34017e-07
2.55207e-07
-3.21914e-07
1.59721e-07
-3.56856e-07
-5.57119e-07
6.41507e-07
-5.23392e-07
-5.34411e-07
6.80204e-07
-2.56583e-07
-2.13376e-07
7.91641e-07
-2.3735e-07
-2.90892e-07
3.40701e-07
-3.95236e-07
2.82828e-07
1.60521e-06
-2.637e-06
3.8112e-07
3.51658e-06
3.81871e-06
-2.47578e-06
5.54715e-07
1.31328e-05
-3.79235e-06
7.13469e-06
2.8284e-07
-7.93229e-06
2.70199e-05
1.46132e-05
-1.15912e-05
4.22552e-05
-1.30098e-05
1.93322e-05
2.98177e-05
-1.05597e-05
6.06039e-06
-2.21304e-05
-3.10821e-05
1.3791e-05
-2.84173e-05
-7.18132e-06
4.62098e-06
-3.55513e-05
-4.01016e-06
1.95367e-06
-3.58768e-05
3.45664e-07
-4.0303e-07
-3.67342e-05
1.12071e-06
-3.43486e-07
-3.82328e-05
2.15128e-06
1.25137e-06
-3.99476e-05
2.1586e-06
1.71439e-06
-4.11997e-05
1.8451e-06
1.64901e-06
-4.21524e-05
1.17718e-06
1.17038e-06
-4.26509e-05
6.13294e-07
6.33259e-07
-4.2608e-05
-3.61604e-07
2.74334e-07
-4.21463e-05
-9.61173e-07
-7.71027e-08
-4.14237e-05
-1.59211e-06
-3.46417e-07
-4.03631e-05
-2.58979e-06
-5.87965e-07
-3.89819e-05
-3.46043e-06
-8.59347e-07
-3.73162e-05
-4.34468e-06
-1.09344e-06
-3.53606e-05
-5.14528e-06
-1.2389e-06
-3.30958e-05
-5.89817e-06
-1.39081e-06
-3.04471e-05
-6.39738e-06
-1.6333e-06
-2.75609e-05
-6.50105e-06
-1.78753e-06
-2.45066e-05
-6.29822e-06
-1.85701e-06
-2.13302e-05
-5.80151e-06
-1.85661e-06
-1.8307e-05
-4.76707e-06
-1.66847e-06
-1.56635e-05
-3.33568e-06
-1.27465e-06
-1.33328e-05
-1.60296e-06
-7.37538e-07
-1.16199e-05
4.24983e-07
-3.54819e-08
-1.02878e-05
2.7563e-06
6.90024e-07
-9.01512e-06
4.75179e-06
1.51394e-06
-7.45521e-06
6.00753e-06
2.23073e-06
-5.12364e-06
5.80971e-06
2.35468e-06
-3.93167e-06
3.94668e-06
1.39148e-06
-3.96757e-06
3.56382e-06
2.0341e-07
-4.09455e-06
4.42706e-06
-1.02162e-06
-3.59879e-06
6.98957e-06
-2.54306e-06
-2.34833e-06
1.07813e-05
-4.18507e-06
1.40562e-05
-6.42563e-06
-6.35958e-06
-2.86863e-06
2.50734e-07
-4.79664e-06
-4.82876e-06
-2.13938e-06
-4.46569e-06
-3.7034e-06
-1.04568e-06
-2.9732e-06
-4.07904e-06
-2.01549e-06
-2.42583e-06
-2.4686e-06
-1.02057e-06
-1.33908e-06
-2.80627e-06
-1.51543e-06
-9.92002e-07
-1.15906e-06
-8.90065e-07
-7.86407e-07
-1.09486e-06
-3.55009e-07
-6.32241e-07
-1.03254e-07
-2.76554e-07
-3.58406e-07
-1.20342e-07
-2.46551e-07
1.15102e-08
-8.50357e-08
-4.12128e-07
1.28233e-07
5.27696e-08
-3.14024e-07
8.42169e-08
3.62715e-07
-2.85897e-07
-2.30476e-08
4.15607e-07
-2.46675e-07
-1.00491e-07
5.06845e-07
-2.86774e-07
-1.49386e-07
5.21214e-07
-3.02003e-07
-1.83737e-07
5.98889e-07
-3.23043e-07
-1.97112e-07
6.43904e-07
-3.33124e-07
-2.01287e-07
6.98976e-07
-3.38737e-07
-2.00261e-07
7.45879e-07
-3.39539e-07
-1.98344e-07
7.85383e-07
-3.35446e-07
-1.98897e-07
8.15096e-07
-3.26377e-07
-2.01468e-07
8.36058e-07
-3.17888e-07
-2.05284e-07
8.50666e-07
-3.10207e-07
-2.09738e-07
8.60623e-07
-3.02739e-07
-2.13836e-07
8.65928e-07
-2.95749e-07
-2.17633e-07
8.67536e-07
-2.88807e-07
-2.20151e-07
8.66732e-07
-2.82789e-07
-2.22281e-07
8.64397e-07
-2.76386e-07
-2.24483e-07
8.60486e-07
-2.69805e-07
-2.26742e-07
8.55647e-07
-2.63223e-07
-2.28223e-07
8.49036e-07
-2.5723e-07
-2.30039e-07
8.43112e-07
-2.51024e-07
-2.29678e-07
8.33735e-07
-2.46033e-07
-2.31313e-07
8.23757e-07
-2.39712e-07
-2.26478e-07
8.11209e-07
-2.35278e-07
-2.30904e-07
7.92515e-07
-2.30242e-07
-2.21634e-07
7.84328e-07
-2.24103e-07
-2.33503e-07
7.39536e-07
-2.20823e-07
-2.23775e-07
7.51044e-07
-2.10777e-07
-2.64207e-07
6.70324e-07
-2.03606e-07
-2.60333e-07
7.19089e-07
-1.99843e-07
-3.71057e-07
6.31716e-07
-1.68165e-07
-3.71691e-07
6.82259e-07
-2.05062e-07
-5.43874e-07
6.66964e-07
-1.45523e-07
-5.38744e-07
6.44464e-07
-2.28447e-07
-5.50121e-07
5.31886e-07
-2.57288e-07
-5.03262e-07
4.86831e-07
-2.82267e-07
-1.4868e-08
-2.45532e-07
-5.93064e-07
2.20834e-07
-2.93289e-07
-4.65678e-07
3.21375e-07
-1.10245e-07
-2.22918e-07
7.26662e-07
-2.28192e-07
-4.07713e-07
2.28722e-07
-1.82143e-07
4.47932e-07
-8.90585e-08
-2.61869e-06
3.34684e-07
2.8034e-06
2.84509e-06
-1.29277e-06
9.66259e-06
1.0043e-05
-3.72668e-06
1.3768e-05
6.0163e-06
-8.99153e-06
3.58483e-05
5.67336e-06
-1.41243e-05
3.57924e-05
-9.38961e-06
2.40534e-05
2.06881e-05
-3.83837e-06
6.07693e-06
-4.09561e-05
-1.16206e-05
1.6603e-05
-5.58871e-05
3.86761e-07
7.02526e-06
-6.3165e-05
1.67535e-06
1.59067e-06
-6.50756e-05
3.24964e-06
-9.22793e-07
-6.5854e-05
3.13776e-06
-1.26787e-06
-6.63695e-05
3.241e-06
-5.92779e-07
-6.68369e-05
2.86587e-06
-3.18238e-07
-6.70169e-05
2.3651e-06
-2.86635e-07
-6.70853e-05
1.62587e-06
-4.8308e-07
-6.70897e-05
9.78204e-07
-6.54932e-07
-6.64983e-05
3.28997e-08
-7.72387e-07
-6.54732e-05
-7.77139e-07
-9.34891e-07
-6.46434e-05
-1.40753e-06
-1.0938e-06
-6.37186e-05
-2.37082e-06
-1.19299e-06
-6.24563e-05
-3.41894e-06
-1.35597e-06
-6.10041e-05
-4.41316e-06
-1.45245e-06
-5.91645e-05
-5.56157e-06
-1.54032e-06
-5.69184e-05
-6.64684e-06
-1.63729e-06
-5.42044e-05
-7.40005e-06
-1.84908e-06
-5.10713e-05
-7.73204e-06
-2.08069e-06
-4.73207e-05
-7.8316e-06
-2.38631e-06
-4.30503e-05
-7.57317e-06
-2.69754e-06
-3.8247e-05
-6.82639e-06
-2.93558e-06
-3.31454e-05
-5.67252e-06
-2.92762e-06
-2.81451e-05
-4.12014e-06
-2.61533e-06
-2.3639e-05
-2.16758e-06
-1.99001e-06
-1.97598e-05
1.24433e-08
-1.16233e-06
-1.62909e-05
1.84296e-06
-5.5916e-07
-1.27523e-05
2.94413e-06
-4.79056e-07
-9.20099e-06
3.30975e-06
-1.05428e-06
-6.73257e-06
3.67527e-06
-2.20535e-06
-4.76568e-06
4.86919e-06
-3.28594e-06
-3.03431e-06
7.07626e-06
-4.39839e-06
-1.69995e-06
1.07962e-05
-5.15826e-06
-8.22682e-07
1.56618e-05
-5.76619e-06
2.02402e-05
-6.99709e-06
-6.458e-06
-1.18774e-06
7.56021e-07
-4.71367e-06
-3.97013e-06
-2.60381e-06
-4.27733e-06
-2.57058e-06
-1.56267e-06
-2.99398e-06
-3.19536e-06
-2.1689e-06
-2.42417e-06
-1.56543e-06
-1.46811e-06
-1.18429e-06
-1.93124e-06
-2.1153e-06
-7.81428e-07
-2.97142e-07
-1.26053e-06
-5.826e-07
-4.8614e-07
-8.03093e-07
-4.39351e-07
3.68573e-07
-6.09954e-07
-1.9315e-07
1.16333e-07
-4.78041e-07
1.32498e-07
2.04039e-07
-6.12685e-07
1.54301e-07
4.59897e-07
-4.28863e-07
1.21156e-07
8.39661e-07
-4.43703e-07
6.74573e-08
8.42921e-07
-3.73655e-07
1.37923e-08
9.79698e-07
-4.19025e-07
-5.21579e-08
9.86836e-07
-3.99792e-07
-1.20925e-07
1.0883e-06
-4.20517e-07
-1.74276e-07
1.12987e-06
-4.32635e-07
-2.15051e-07
1.18688e-06
-4.47077e-07
-2.42757e-07
1.23136e-06
-4.57737e-07
-2.61195e-07
1.26932e-06
-4.65469e-07
-2.73729e-07
1.30019e-06
-4.72533e-07
-2.84292e-07
1.3248e-06
-4.7817e-07
-2.94908e-07
1.34437e-06
-4.83073e-07
-3.06741e-07
1.3603e-06
-4.87848e-07
-3.21472e-07
1.37296e-06
-4.92279e-07
-3.35779e-07
1.3787e-06
-4.96866e-07
-3.44481e-07
1.37641e-06
-5.00982e-07
-3.49844e-07
1.37364e-06
-5.03916e-07
-3.53515e-07
1.3705e-06
-5.0639e-07
-3.55965e-07
1.36647e-06
-5.08447e-07
-3.56733e-07
1.36035e-06
-5.10636e-07
-3.57276e-07
1.3551e-06
-5.1155e-07
-3.55971e-07
1.34623e-06
-5.1395e-07
-3.57637e-07
1.33947e-06
-5.14147e-07
-3.53657e-07
1.32576e-06
-5.1882e-07
-3.64104e-07
1.3184e-06
-5.15445e-07
-3.55641e-07
1.29799e-06
-5.22677e-07
-3.90726e-07
1.28742e-06
-5.12593e-07
-3.82052e-07
1.26672e-06
-5.25232e-07
-4.70731e-07
1.2584e-06
-4.98838e-07
-4.6264e-07
1.2387e-06
-5.2902e-07
-6.22313e-07
1.26188e-06
-4.69478e-07
-5.92909e-07
1.19316e-06
-5.42266e-07
-7.22381e-07
1.25837e-06
-4.60323e-07
-6.65176e-07
1.13184e-06
-5.47444e-07
-5.61795e-07
1.04254e-06
-6.11514e-07
-5.60018e-07
1.02245e-06
-5.4162e-07
-2.45022e-07
3.75846e-07
-9.27352e-07
-3.50112e-07
6.14234e-07
-8.0368e-07
-3.40761e-07
6.90449e-07
-7.77959e-07
9.3345e-07
-1.90722e-07
-1.28919e-06
-5.61149e-07
1.68152e-06
-1.4627e-07
-2.76271e-06
5.85765e-07
-9.95464e-07
-1.92263e-06
3.84521e-06
-1.31779e-06
8.6322e-06
4.39936e-06
-5.01713e-06
1.52208e-05
1.1099e-05
-1.04454e-05
3.81374e-05
-9.74375e-08
-1.86584e-05
3.55627e-05
-5.46143e-06
2.95824e-05
1.33125e-05
5.18342e-06
6.29491e-06
-5.66633e-05
1.26787e-05
2.3152e-05
-7.82946e-05
1.06555e-05
1.12197e-05
-8.75255e-05
8.83813e-06
2.14504e-06
-9.0215e-05
7.73294e-06
-1.67592e-06
-9.12847e-05
6.83517e-06
-2.53046e-06
-9.21101e-05
6.02699e-06
-1.95217e-06
-9.23862e-05
5.10321e-06
-1.98312e-06
-9.23863e-05
3.91741e-06
-1.50996e-06
-9.2022e-05
2.81071e-06
-1.49027e-06
-9.12785e-05
1.63546e-06
-1.35847e-06
-9.06516e-05
9.99872e-07
-1.54975e-06
-8.97832e-05
-2.21837e-08
-1.58496e-06
-8.88459e-05
-6.0465e-07
-1.73751e-06
-8.80027e-05
-1.36992e-06
-1.82887e-06
-8.7149e-05
-2.31528e-06
-1.93587e-06
-8.6302e-05
-3.30105e-06
-1.94308e-06
-8.54283e-05
-4.40635e-06
-1.93626e-06
-8.4539e-05
-5.44459e-06
-1.97489e-06
-8.36725e-05
-6.1301e-06
-2.07024e-06
-8.2627e-05
-6.37528e-06
-2.32865e-06
-8.14223e-05
-6.21557e-06
-2.7539e-06
-8.01363e-05
-5.54802e-06
-3.26495e-06
-7.85365e-05
-4.45119e-06
-3.92812e-06
-7.65329e-05
-3.13684e-06
-4.51945e-06
-7.3966e-05
-1.74004e-06
-4.95544e-06
-7.0748e-05
-1.60559e-07
-5.26827e-06
-6.67335e-05
1.35002e-06
-5.41376e-06
-6.21792e-05
2.7097e-06
-5.4894e-06
-5.7279e-05
3.84942e-06
-5.84926e-06
-5.20023e-05
4.57858e-06
-6.65238e-06
-4.62886e-05
5.23847e-06
-7.46178e-06
-3.96155e-05
6.0774e-06
-8.10642e-06
-3.21285e-05
7.66031e-06
-8.40632e-06
-2.32413e-05
1.01983e-05
-8.75536e-06
-1.25872e-05
1.36056e-05
-9.3244e-06
1.4385e-05
-1.08361e-05
-6.00262e-06
1.35854e-06
3.73149e-06
-4.49864e-06
-3.31679e-06
-2.16114e-06
-4.00827e-06
-1.70335e-06
-1.34763e-06
-2.81414e-06
-2.57279e-06
-1.81718e-06
-2.34623e-06
-7.39281e-07
-1.28943e-06
-1.56802e-06
-1.27718e-06
-1.43204e-06
-1.35203e-06
1.8259e-07
-6.91036e-07
-8.28591e-07
-2.47573e-07
-7.59019e-07
-5.88507e-07
4.72403e-07
-3.38935e-07
-2.68847e-07
1.74231e-08
-2.16074e-07
-1.61001e-08
2.17227e-07
-2.63308e-07
6.10496e-08
3.62134e-07
2.05596e-08