/*--------------------------------*- C++ -*----------------------------------*\
| =========                 |                                                 |
| \\      /  F ield         | OpenFOAM: The Open Source CFD Toolbox           |
|  \\    /   O peration     | Version:  2.3.0                                 |
|   \\  /    A nd           | Web:      www.OpenFOAM.org                      |
|    \\/     M anipulation  |                                                 |
\*---------------------------------------------------------------------------*/
FoamFile
{
    version     2.0;
    format      ascii;
    class       volVectorField;
    location    "17";
    object      U;
}
// * * * * * * * * * * * * * * * * * * * * * * * * * * * * * * * * * * * * * //

dimensions      [0 1 -1 0 0 0 0];

internalField   nonuniform List<vector> 
6144
(
(0.011806 0.0248634 -0.00219862)
(0.0118915 0.000256226 -0.00255189)
(0.00491064 -0.00240567 -0.00287032)
(0.00416475 -0.00668693 -0.0023287)
(0.00170221 -0.00902609 -0.000985199)
(0.00154099 -0.00839673 -0.000516446)
(0.000672277 -0.007899 -0.0005993)
(0.00106888 -0.00503447 -0.00097348)
(0.00117578 -0.00224784 -0.00162057)
(0.00144161 0.0011022 -0.00122661)
(0.0016182 0.00320277 -0.000498528)
(0.00191716 0.00443958 0.000233862)
(0.00220904 0.00427014 0.000546368)
(0.00241835 0.00359348 0.000677116)
(0.00248762 0.00267476 0.000514256)
(0.00251812 0.00194862 0.000353084)
(0.00252251 0.00134068 0.000176052)
(0.00252495 0.000924661 5.68515e-05)
(0.00252356 0.000602931 -3.60811e-05)
(0.00251882 0.000391074 -9.23087e-05)
(0.0025118 0.000231551 -0.000126674)
(0.0025008 0.000123003 -0.000140853)
(0.0024902 4.66861e-05 -0.000142322)
(0.00247788 -1.56134e-05 -0.000133991)
(0.00246429 -5.78329e-05 -0.000121566)
(0.00245038 -9.46273e-05 -0.00010549)
(0.00243549 -0.000115203 -8.73601e-05)
(0.00242386 -0.000134843 -6.65607e-05)
(0.00241336 -0.000151245 -4.53639e-05)
(0.00240124 -0.000170141 -2.5963e-05)
(0.00239114 -0.000174386 -6.25054e-06)
(0.00238166 -0.000210718 1.0024e-05)
(0.00237494 -0.000171753 3.06225e-05)
(0.00236664 -0.000285921 3.72516e-05)
(0.00236309 -0.000115378 6.92529e-05)
(0.00235883 -0.000452135 6.02617e-05)
(0.00235077 1.82176e-05 0.00011655)
(0.0023676 -0.000779498 9.0727e-05)
(0.00233152 0.000231918 0.000177821)
(0.00238296 -0.00133007 0.000159844)
(0.0022925 0.000484468 0.000284361)
(0.00243349 -0.00223702 0.000328741)
(0.0022661 0.000586067 0.000448874)
(0.00258253 -0.0039057 0.000561933)
(0.00225032 0.000478115 0.000489798)
(0.00266605 -0.00670254 0.000545456)
(0.002116 0.00115418 -0.000174229)
(0.00220438 -0.00941104 0.000163771)
(0.00217012 0.00501004 -0.000956444)
(0.00149674 -0.010847 -0.000704474)
(0.00552737 0.0108922 -0.00157723)
(-0.000119556 -0.0183544 -0.00215253)
(0.00963838 0.0247431 -0.00188865)
(0.00784742 -0.0329919 -0.00572491)
(0.0005897 0.0425135 -0.00870618)
(0.000930875 -0.0384692 -0.0137917)
(0.0232314 0.0826133 -0.0160785)
(-0.00523315 -0.0543794 -0.0302006)
(-0.0503926 0.174236 -0.0579041)
(0.0463861 0.00806039 -0.126898)
(0.122242 -0.21909 -0.0245852)
(0.0734261 -0.0730597 -0.00714758)
(0.0222219 -0.137485 0.00444772)
(0.0274571 -0.128915 0.00736767)
(0.0219435 -0.130202 0.0080562)
(0.0129841 -0.13673 0.00988963)
(0.00745888 -0.142463 0.0107155)
(0.0040874 -0.146511 0.0102131)
(0.00171102 -0.149137 0.00909685)
(6.0808e-05 -0.150396 0.00780425)
(-0.000986622 -0.150544 0.0066101)
(-0.00148361 -0.149882 0.00556556)
(-0.0015792 -0.148898 0.00476028)
(-0.00133799 -0.14803 0.00408875)
(-0.000821314 -0.147683 0.00359086)
(-0.00037968 -0.148012 0.0030253)
(0.000102634 -0.148923 0.00267313)
(0.000426393 -0.150606 0.0022316)
(0.000488536 -0.152455 0.00167307)
(0.00067744 -0.154256 0.00147206)
(0.000549636 -0.156141 0.00100623)
(-0.000315372 -0.156553 0.000467435)
(-0.000687597 -0.155754 2.42169e-05)
(-0.00130445 -0.153459 0.0004947)
(-0.00269297 -0.14941 -0.00118551)
(-0.00382402 -0.140854 -0.000198387)
(-0.00699905 -0.131469 -0.0028785)
(-0.00752866 -0.112155 -0.00277731)
(-0.0134651 -0.0944708 -0.0059295)
(-0.0140156 -0.0606217 -0.0141304)
(-0.00910766 -0.014197 -0.00779946)
(-0.0031977 0.0111823 -0.00849651)
(-0.000922441 0.0339483 -0.00878345)
(-0.0013736 0.0427349 -0.000986782)
(-0.00118843 0.0323054 0.0148226)
(0.00115577 0.0181096 0.0239451)
(0.0244642 0.0344874 0.00129725)
(0.023481 0.02055 0.00123652)
(0.0135797 0.016436 -0.00067328)
(0.0129244 0.00857756 0.00152133)
(0.00531637 0.000479313 0.00250532)
(0.00412726 -0.00182062 0.00305211)
(0.00128534 -0.00473142 0.0029485)
(0.00161754 -0.00178827 0.00164155)
(0.00142161 0.000425868 0.0011968)
(0.00191691 0.00376151 0.00152715)
(0.00244158 0.00535448 0.00230098)
(0.00337797 0.00618597 0.00326477)
(0.00407023 0.00543889 0.00378354)
(0.00446501 0.00457926 0.00405972)
(0.00455612 0.00346763 0.00398685)
(0.00458807 0.00262784 0.00386551)
(0.00456298 0.00190556 0.00371931)
(0.00453866 0.00141469 0.00362015)
(0.00450642 0.00102884 0.00354669)
(0.00447285 0.000778763 0.00351002)
(0.00443947 0.000586239 0.00349887)
(0.00440257 0.000459959 0.00351028)
(0.00436874 0.000369263 0.00353489)
(0.00433394 0.000299388 0.00356997)
(0.00429851 0.000255517 0.00360774)
(0.00426254 0.000218687 0.00365049)
(0.00422491 0.00020328 0.00369581)
(0.00419356 0.000181205 0.00374322)
(0.0041633 0.000170862 0.00379044)
(0.00413181 0.000156665 0.00383473)
(0.00410777 0.00015601 0.00387834)
(0.00407688 0.000120281 0.0039164)
(0.00406801 0.000168515 0.003962)
(0.00402344 4.80085e-05 0.00398)
(0.00405249 0.000248227 0.00405506)
(0.00397286 -0.000132605 0.0040296)
(0.00405781 0.000429287 0.00416549)
(0.0039365 -0.000498319 0.00407064)
(0.00404928 0.000713234 0.00428606)
(0.00395503 -0.00115014 0.00415937)
(0.00400539 0.0010582 0.00443386)
(0.00413253 -0.00224703 0.00439498)
(0.00403087 0.00132398 0.00450454)
(0.00447251 -0.00418249 0.00473086)
(0.00418517 0.00136518 0.00437568)
(0.00492287 -0.00727914 0.00458546)
(0.00407534 0.00181804 0.00351801)
(0.00437471 -0.0105141 0.00409456)
(0.0036592 0.00365426 0.00202918)
(0.00301122 -0.0132246 0.00416011)
(0.00764665 0.0047562 0.00156552)
(0.00188364 -0.0178551 0.00240807)
(0.00958256 0.00760363 -0.000771462)
(0.00545644 -0.00837791 -0.0034637)
(0.0135511 0.0631208 0.00606407)
(0.0371539 -0.0653976 0.00321739)
(-0.0329556 0.0468122 -0.001892)
(-0.0411697 -0.0102557 -0.00706198)
(0.00838025 0.220153 0.0127111)
(0.17068 -0.0276472 -0.0678386)
(0.171233 -0.173145 -0.0264219)
(0.0315922 0.130737 0.0095244)
(-0.0423637 -0.125204 0.0173635)
(-0.0229317 -0.0515211 0.013973)
(-0.0284823 -0.0809042 0.0154505)
(-0.0274198 -0.0971719 0.017641)
(-0.0246657 -0.105243 0.0167434)
(-0.0221755 -0.113087 0.0146934)
(-0.0199459 -0.119496 0.0124178)
(-0.0179777 -0.123362 0.0100878)
(-0.0159778 -0.125155 0.00809329)
(-0.0140272 -0.12547 0.00647183)
(-0.0119825 -0.125189 0.00524082)
(-0.00980888 -0.124921 0.00415116)
(-0.00745155 -0.125061 0.00328915)
(-0.00505872 -0.125957 0.00241743)
(-0.00289287 -0.127214 0.00177683)
(-0.0012989 -0.128801 0.00109512)
(-0.000166381 -0.130504 0.000582115)
(0.000130724 -0.132586 0.000155415)
(0.000203769 -0.134032 -0.000132464)
(-0.000708177 -0.135852 4.9453e-06)
(-0.00252887 -0.136392 -0.000668689)
(-0.00447031 -0.135141 -0.000127601)
(-0.00815265 -0.132791 -0.00152948)
(-0.0109805 -0.125925 -0.000610334)
(-0.0161617 -0.118539 -0.00333307)
(-0.0199384 -0.102393 -0.00340766)
(-0.0230473 -0.0866359 -0.00593678)
(-0.0312026 -0.0617642 -0.0141985)
(-0.025273 -0.0224692 -0.00841106)
(-0.0120418 0.002401 -0.00788508)
(-0.00548173 0.0267964 -0.00539538)
(-0.00564024 0.0372229 0.00523301)
(-0.00658893 0.0279917 0.0212383)
(-0.00410644 0.0163981 0.0313786)
(0.028406 0.0367902 0.00180506)
(0.0292851 0.0302545 0.00313509)
(0.0216826 0.0258441 0.00083477)
(0.0214483 0.0187226 0.00290118)
(0.0103191 0.0102308 0.0021779)
(0.00672437 0.00578341 0.0032042)
(0.000661352 -0.000662456 0.00390565)
(0.000178176 0.00113031 0.00255356)
(3.46686e-06 0.00218758 0.00222912)
(0.000867256 0.00518005 0.00246177)
(0.00155795 0.0058527 0.0032737)
(0.00314811 0.00642258 0.0040829)
(0.00407936 0.00544493 0.00445305)
(0.00452977 0.00476416 0.00468182)
(0.00447813 0.0037781 0.00473273)
(0.00434443 0.00306211 0.00478832)
(0.00413165 0.00238463 0.00480917)
(0.00395961 0.001916 0.00483609)
(0.00379663 0.0015315 0.00486795)
(0.00366379 0.00127622 0.00490695)
(0.00354817 0.00107664 0.00495417)
(0.00344742 0.00094295 0.00500622)
(0.00335998 0.000845568 0.00505972)
(0.00328259 0.000770214 0.0051131)
(0.00320989 0.000720131 0.00516375)
(0.00314229 0.000678722 0.00521269)
(0.00308134 0.000664541 0.00525934)
(0.00303225 0.000638646 0.00530779)
(0.00298537 0.00063252 0.00535454)
(0.00294408 0.000621288 0.00540072)
(0.00291091 0.000616833 0.00544542)
(0.0028681 0.000596621 0.0054824)
(0.0028535 0.000624949 0.00551851)
(0.00279102 0.000545459 0.00554632)
(0.00284636 0.000684412 0.00560112)
(0.00271701 0.0003885 0.005604)
(0.00289826 0.00083962 0.00568305)
(0.00264586 1.72942e-05 0.00564968)
(0.00297179 0.00113172 0.00576522)
(0.0026519 -0.000681707 0.00568848)
(0.00309737 0.00157682 0.00585415)
(0.00290345 -0.00183475 0.0057215)
(0.00334335 0.00198401 0.0058716)
(0.00360248 -0.00365665 0.00584131)
(0.0036481 0.00267894 0.00572476)
(0.00453181 -0.00635253 0.00578991)
(0.00328459 0.00386647 0.0053056)
(0.00435701 -0.0093112 0.00587641)
(0.00271709 0.00509557 0.00438855)
(0.0048461 -0.0128678 0.00648756)
(0.00638112 0.00381169 0.0037371)
(0.00614402 -0.0170531 0.00474422)
(0.000655846 0.00338491 0.00149111)
(-0.00910011 -0.0172819 0.00256438)
(0.0317206 0.0501139 0.0165964)
(0.0543745 -0.0773313 0.00714427)
(-0.0664 0.0897223 0.0111397)
(-0.0870135 -0.113202 -0.00809369)
(-0.0784004 0.151929 -0.00535591)
(0.175356 -0.0215175 -0.0568308)
(0.184049 -0.133374 -0.0286859)
(0.0613862 0.147618 0.0117242)
(0.0634361 -0.0946368 0.0215832)
(0.00470686 0.00170159 0.0205932)
(-0.0152539 -0.0564377 0.01942)
(-0.015191 -0.0647141 0.0192456)
(-0.0183787 -0.0738633 0.0165809)
(-0.0206137 -0.0817053 0.0120738)
(-0.0206939 -0.08689 0.00745773)
(-0.0192891 -0.0896585 0.00345806)
(-0.0168496 -0.0902551 0.000249378)
(-0.0137155 -0.0894568 -0.00200289)
(-0.0100525 -0.0878797 -0.00361363)
(-0.00635809 -0.0857762 -0.00482503)
(-0.0028734 -0.0834657 -0.0056464)
(0.000261693 -0.0811196 -0.00624857)
(0.00298442 -0.0795289 -0.00641221)
(0.00512717 -0.0793021 -0.00614474)
(0.00654895 -0.0798876 -0.00537103)
(0.0070506 -0.082055 -0.00465946)
(0.00667305 -0.084335 -0.00360593)
(0.00495492 -0.0881981 -0.00267307)
(0.00204223 -0.0912905 -0.00223589)
(-0.00177914 -0.0943878 -0.000758303)
(-0.00761404 -0.0976543 -0.00179292)
(-0.0139603 -0.0957836 -0.000343337)
(-0.0219692 -0.093252 -0.0035386)
(-0.0298183 -0.0815314 -0.00525857)
(-0.0379189 -0.0691671 -0.00764304)
(-0.043625 -0.050613 -0.0167095)
(-0.0376705 -0.0162101 -0.0114547)
(-0.0212066 0.00412726 -0.00758881)
(-0.011062 0.0236162 -0.00461844)
(-0.0110501 0.0334446 0.00776905)
(-0.0144012 0.0250548 0.0238761)
(-0.0142295 0.0135186 0.0340459)
(0.0298734 0.0359541 0.00179015)
(0.032188 0.0345996 0.00418473)
(0.0258926 0.0292084 0.00167205)
(0.0260185 0.0251745 0.00307655)
(0.0160915 0.0184361 0.00166497)
(0.0133193 0.0134885 0.00335459)
(0.00362945 0.00381876 0.0031082)
(0.000283035 0.00305659 0.00224686)
(-0.00114721 0.00215062 0.00149449)
(0.000227579 0.00514536 0.00179603)
(0.00103498 0.0051019 0.00256467)
(0.00276074 0.00546244 0.00366317)
(0.00345008 0.00454067 0.00418751)
(0.00373502 0.00429523 0.00455328)
(0.00352271 0.00362117 0.0046149)
(0.00333044 0.0031361 0.0046857)
(0.00307184 0.00254882 0.00471177)
(0.0028589 0.00211752 0.00475871)
(0.00265917 0.00173969 0.00481075)
(0.00248808 0.00147539 0.00486952)
(0.00234488 0.0012697 0.00493504)
(0.00221807 0.0011318 0.00499976)
(0.00211076 0.001033 0.00505757)
(0.00202079 0.000960521 0.00511355)
(0.00193862 0.000912265 0.00516724)
(0.00185951 0.000877518 0.00521559)
(0.00178801 0.000861556 0.00525826)
(0.00172832 0.000841888 0.00530163)
(0.00166914 0.000839467 0.00534258)
(0.00161841 0.000834136 0.00538285)
(0.00157466 0.000836531 0.00542164)
(0.0015317 0.000829546 0.00545877)
(0.00150908 0.000850005 0.00549716)
(0.00146304 0.000799474 0.00552394)
(0.00148932 0.000905539 0.00556419)
(0.00139308 0.00066158 0.00556738)
(0.00154867 0.001052 0.00563465)
(0.00133916 0.000296544 0.00560499)
(0.00169418 0.00133545 0.00570933)
(0.00133628 -0.00041196 0.00563047)
(0.00198325 0.0018055 0.00580066)
(0.00148859 -0.0015468 0.00561495)
(0.00246148 0.00258636 0.00590721)
(0.00203861 -0.00314032 0.0055569)
(0.0030471 0.0040167 0.00601428)
(0.00276483 -0.00522211 0.00547342)
(0.00307168 0.00631263 0.00612227)
(0.00310537 -0.00790769 0.00586603)
(0.00245292 0.00781642 0.00620604)
(0.00487506 -0.0121996 0.0072829)
(0.00487567 0.00834001 0.00398023)
(0.00745765 -0.0165571 0.00294697)
(0.0014827 0.01313 0.00390563)
(-0.0190393 -0.0320438 -0.00710776)
(0.0256504 0.0242748 0.0215655)
(0.0312663 -0.0346964 0.010366)
(-0.0216058 0.123569 0.0234325)
(-0.0880271 -0.144704 0.0365761)
(-0.113165 0.18008 -0.0618735)
(0.201426 -0.104609 -0.0466452)
(0.213789 -0.111418 -0.037998)
(0.0480453 0.128916 0.00305634)
(0.0360325 -0.00592626 0.0149492)
(-0.033405 0.0623539 0.0201995)
(-0.0146339 -0.0144922 0.0246182)
(-0.0230424 -0.0193623 0.0161397)
(-0.0256554 -0.0370179 0.00471178)
(-0.0198603 -0.0421193 -0.00226254)
(-0.0127324 -0.0407885 -0.00868733)
(-0.00849959 -0.0361608 -0.0127885)
(-0.00648689 -0.0287496 -0.0147709)
(-0.00519753 -0.0192686 -0.0153172)
(-0.0031852 -0.00923384 -0.0147118)
(0.000141789 -0.000607961 -0.012924)
(0.00399519 0.00587024 -0.0104333)
(0.00791333 0.0098983 -0.00771279)
(0.0113938 0.0104834 -0.00499099)
(0.0141444 0.00790366 -0.00275771)
(0.0157882 0.00255136 -0.000915992)
(0.0160436 -0.0043086 0.000515381)
(0.0149468 -0.0125509 0.00154582)
(0.0124332 -0.0213675 0.00202736)
(0.0084458 -0.0297056 0.00258824)
(0.00293633 -0.0380302 0.00296877)
(-0.00446752 -0.0453796 0.00278578)
(-0.0126811 -0.0507314 0.00362802)
(-0.0224105 -0.0558319 0.000658573)
(-0.0300587 -0.0513792 -8.75906e-05)
(-0.0380047 -0.0447887 -0.00610818)
(-0.0530153 -0.0287943 -0.0174868)
(-0.0463636 0.0013768 -0.0127382)
(-0.022127 0.0108438 -0.00574586)
(-0.0129217 0.0243976 -0.00226333)
(-0.0129758 0.0292617 0.0105435)
(-0.018581 0.0227294 0.0261489)
(-0.0216877 0.0112491 0.0360885)
(0.0298429 0.0352776 0.00136822)
(0.0336332 0.0364581 0.00458755)
(0.0276662 0.0300601 0.00209568)
(0.028567 0.0261218 0.00460409)
(0.0191347 0.0195041 0.00189508)
(0.0188263 0.0160646 0.00349568)
(0.00857453 0.00748773 0.00141985)
(0.00328575 0.00638894 0.00146147)
(-0.000936895 0.00241864 0.0005652)
(-0.000538178 0.00459993 0.00102545)
(0.000662301 0.00343884 0.00143635)
(0.00210561 0.00361352 0.00292564)
(0.00214598 0.00297703 0.00353288)
(0.00213923 0.00323366 0.00401015)
(0.0017211 0.00295384 0.0041069)
(0.00144226 0.00280982 0.00422215)
(0.00104411 0.00241433 0.00423205)
(0.000704007 0.00209665 0.00425571)
(0.00039992 0.00176207 0.00427821)
(0.000142561 0.00151869 0.0043091)
(-8.06474e-05 0.00132461 0.00433783)
(-0.000266103 0.00119833 0.0043691)
(-0.000411097 0.00110725 0.00440324)
(-0.000531001 0.00104273 0.00443489)
(-0.000635614 0.000998436 0.00445997)
(-0.00072531 0.000973115 0.00448054)
(-0.000795857 0.000952845 0.00449838)
(-0.000852265 0.000937426 0.00451003)
(-0.000900051 0.000934492 0.00452073)
(-0.000936255 0.000932054 0.0045307)
(-0.000966946 0.000937823 0.00453888)
(-0.000992774 0.000940914 0.00454862)
(-0.00101138 0.000960669 0.00455751)
(-0.00103348 0.00093581 0.00456467)
(-0.000998943 0.00101976 0.0045902)
(-0.00105441 0.000822691 0.00458448)
(-0.000901652 0.00116428 0.0046363)
(-0.0010759 0.000499316 0.00459561)
(-0.000703791 0.00147056 0.00468601)
(-0.00106286 -0.00014962 0.00459744)
(-0.000342307 0.00200245 0.00476528)
(-0.000958184 -0.00116972 0.00456191)
(0.000227791 0.00292839 0.00490078)
(-0.000604606 -0.00233959 0.00451633)
(0.000921499 0.00455142 0.00513399)
(7.07862e-05 -0.00330759 0.00467849)
(0.00130762 0.00704322 0.0057033)
(0.000870342 -0.00542883 0.00537132)
(0.00174405 0.00912001 0.00677607)
(0.0034259 -0.0118712 0.00654866)
(0.00267849 0.009095 0.00423976)
(0.00380603 -0.0171062 0.00339997)
(0.00499436 0.0192657 0.00668598)
(-0.00102131 -0.0240149 -0.0022385)
(0.00231471 0.00655304 0.0372261)
(-0.00313684 -0.0177841 0.0422978)
(0.00982675 0.0965465 0.0747922)
(-0.112904 -0.127317 0.060235)
(-0.0267521 0.191418 -0.170059)
(0.139262 -0.139654 -0.0304532)
(0.195232 -0.0767826 -0.0420878)
(0.0474442 0.122792 -0.00109739)
(0.0561376 0.0480818 0.00846155)
(0.00304371 0.07402 0.0114504)
(0.00499034 0.0382729 0.00884493)
(-0.0107821 0.0337415 -0.001647)
(-0.00997499 0.0351918 -0.0132267)
(-0.0097073 0.0530745 -0.0200882)
(-0.00600349 0.0794475 -0.0180925)
(-0.00362187 0.0953912 -0.0124888)
(-0.00174072 0.104878 -0.0073166)
(0.000335287 0.108706 -0.00356104)
(0.00342674 0.109614 -0.000854081)
(0.00771611 0.108258 0.00177785)
(0.0120151 0.104322 0.00413241)
(0.0158992 0.0984458 0.00625056)
(0.0190124 0.0908555 0.00770625)
(0.021377 0.0820044 0.00839145)
(0.0227186 0.0722135 0.00887596)
(0.0227012 0.0616819 0.00896314)
(0.0212309 0.0498065 0.00830223)
(0.0183157 0.0389636 0.00736523)
(0.0137662 0.027673 0.0063357)
(0.00765628 0.0175439 0.00509479)
(-0.000486804 0.00888038 0.00372431)
(-0.0109794 0.0017864 0.00204221)
(-0.0240475 -0.00413567 -0.0012951)
(-0.0375294 -0.00375333 -0.0054806)
(-0.0514231 0.000239755 -0.014564)
(-0.0570563 0.0120145 -0.0189437)
(-0.0358177 0.0173096 -0.00805257)
(-0.0181492 0.0174424 -0.00296452)
(-0.0136086 0.0250975 0.00114861)
(-0.0181885 0.0249882 0.0142071)
(-0.028079 0.0204607 0.0279201)
(-0.0341377 0.00924943 0.0372745)
(0.0281154 0.0344862 0.00509165)
(0.0349757 0.0382603 0.00577792)
(0.0286298 0.0287652 0.00306978)
(0.0292798 0.0254871 0.00743736)
(0.0195388 0.0167603 0.0040918)
(0.0208185 0.0155416 0.00496495)
(0.0111963 0.00752212 0.00108885)
(0.00681119 0.00819494 0.000862076)
(0.000959938 0.00342629 0.000242018)
(0.000229932 0.00450878 0.00134045)
(0.000773523 0.0015189 0.00131849)
(0.00171242 0.00136037 0.00277789)
(0.00131988 0.000830813 0.00315485)
(0.00128861 0.00177875 0.0037302)
(0.000787079 0.00185194 0.00381292)
(0.00054098 0.00212003 0.00399058)
(0.000134978 0.00195919 0.00399279)
(-0.000181236 0.00185702 0.0039945)
(-0.000482772 0.00166798 0.0039527)
(-0.000735942 0.00152138 0.00390745)
(-0.00094603 0.00138898 0.0038644)
(-0.00111192 0.00130624 0.0038345)
(-0.00123419 0.00125113 0.00381029)
(-0.00132498 0.00122304 0.00378913)
(-0.00139587 0.00120849 0.00376848)
(-0.0014517 0.00121254 0.00374838)
(-0.00149292 0.00120981 0.00372692)
(-0.00152934 0.00121626 0.00369654)
(-0.0015597 0.00122321 0.00366654)
(-0.00158138 0.00122999 0.00363802)
(-0.00159859 0.00123976 0.0036115)
(-0.00160862 0.00125043 0.00359015)
(-0.00161298 0.00126527 0.00357269)
(-0.00160672 0.00124843 0.00356078)
(-0.00156783 0.00131859 0.00356391)
(-0.00157916 0.00116441 0.00355054)
(-0.00142574 0.00147223 0.00359785)
(-0.00154173 0.000880046 0.00354299)
(-0.00113467 0.00179189 0.0036786)
(-0.00145873 0.000305472 0.00354717)
(-0.000644558 0.00236492 0.00383412)
(-0.0013136 -0.000486935 0.00355905)
(-9.81618e-05 0.00335566 0.00401452)
(-0.00102128 -0.00105189 0.00360539)
(7.11085e-05 0.00503226 0.00406733)
(-0.000669097 -0.00119175 0.00381782)
(0.000319732 0.00774021 0.00450677)
(7.82895e-05 -0.00345899 0.00437381)
(0.00263116 0.010549 0.00666001)
(0.00318896 -0.0117439 0.00518172)
(0.00262984 0.00905865 0.00399734)
(0.00135157 -0.0170009 0.00329108)
(0.00269432 0.0146969 0.00536826)
(0.010406 -0.0184785 -0.00451138)
(-0.0176256 0.013891 0.0348022)
(-0.0509824 -0.0462937 0.0453147)
(0.0270295 0.0631089 0.0879169)
(-0.0905062 -0.104778 0.0804696)
(0.0319198 0.0280244 -0.197265)
(0.07534 -0.0934786 -0.0211588)
(0.160598 -0.000764662 -0.053582)
(0.0412845 0.149962 -0.0105467)
(0.0277964 0.144034 0.00339575)
(0.00328513 0.162357 0.0032421)
(-0.00350043 0.161998 -0.000926552)
(-0.00939099 0.167694 -0.00543176)
(-0.0108922 0.175607 -0.00534403)
(-0.0103283 0.18119 -0.00312469)
(-0.00608471 0.187096 0.000184586)
(-0.00264513 0.187641 0.00325126)
(0.00257635 0.188925 0.0053027)
(0.0054741 0.186141 0.00705024)
(0.00770663 0.182398 0.0088277)
(0.0119013 0.177937 0.0106237)
(0.0153258 0.172147 0.0124195)
(0.0191549 0.165183 0.0138172)
(0.021889 0.15617 0.0145072)
(0.0247202 0.146709 0.0151781)
(0.026576 0.136003 0.0160533)
(0.0265655 0.123479 0.0157972)
(0.0249702 0.110027 0.0146106)
(0.0220667 0.0970678 0.0128686)
(0.0167092 0.0828241 0.00995197)
(0.00964011 0.0706142 0.00618583)
(0.00118007 0.0598189 0.00210367)
(-0.00881407 0.0510421 -0.00238574)
(-0.0199042 0.044482 -0.00714325)
(-0.0312862 0.0383297 -0.0120107)
(-0.0373849 0.0334859 -0.0144195)
(-0.0346121 0.025288 -0.00949839)
(-0.0189843 0.0175356 -0.000352608)
(-0.0130416 0.0156847 0.00257279)
(-0.0136293 0.0165911 0.00518628)
(-0.0205706 0.0157516 0.0138109)
(-0.0311728 0.0133171 0.026604)
(-0.0385345 0.00408437 0.0371827)
(0.0217205 0.0328461 0.00470872)
(0.0327598 0.0405268 0.00925419)
(0.0261826 0.0260321 0.0055524)
(0.0276309 0.026349 0.0103936)
(0.0167487 0.0142093 0.00711248)
(0.0184365 0.0142411 0.00904561)
(0.00920971 0.00422465 0.00475961)
(0.00796731 0.00791107 0.00209449)
(0.00164692 0.00322787 0.00111706)
(0.000920556 0.00494685 0.00269118)
(0.00077938 0.000648774 0.00273942)
(4.78897e-05 0.00024698 0.00349022)
(-0.001595 -0.000557383 0.00335035)
(-0.00187035 0.000676421 0.00384175)
(-0.00232579 0.000797008 0.00403621)
(-0.00236194 0.00140921 0.00429355)
(-0.00276766 0.00149051 0.00428904)
(-0.0030729 0.00167636 0.00423992)
(-0.00342137 0.0016788 0.00415814)
(-0.00372812 0.00168836 0.00407859)
(-0.00399383 0.00166361 0.00398792)
(-0.00420536 0.00165518 0.00388996)
(-0.00435484 0.00165372 0.00380286)
(-0.00446213 0.0016656 0.00372859)
(-0.0045399 0.00168013 0.00366422)
(-0.00458501 0.00169833 0.00361168)
(-0.00459724 0.00171047 0.00356169)
(-0.00458798 0.00172245 0.0035094)
(-0.00456388 0.00172516 0.00346518)
(-0.00452757 0.00172907 0.00343162)
(-0.004485 0.00173341 0.00340612)
(-0.0044338 0.00173776 0.00339045)
(-0.00438541 0.00173995 0.00338034)
(-0.00432403 0.00172507 0.00337915)
(-0.00425724 0.00176534 0.00338677)
(-0.00418564 0.00163141 0.00340434)
(-0.00404638 0.00188174 0.00346225)
(-0.00401516 0.00137796 0.0034574)
(-0.00370689 0.00218272 0.00361811)
(-0.00380432 0.000935376 0.00355004)
(-0.00326006 0.00277011 0.00384811)
(-0.0035769 0.00044277 0.00369803)
(-0.00295286 0.00378496 0.0040178)
(-0.00329292 0.000162712 0.00387332)
(-0.00301307 0.00540414 0.00389484)
(-0.00299031 -0.000251784 0.00388154)
(-0.00225396 0.00783207 0.00386768)
(-0.0019482 -0.003082 0.00390287)
(0.00189506 0.0106983 0.00646639)
(0.0024196 -0.0104005 0.00499386)
(0.00050433 0.0106508 0.00400529)
(0.00113684 -0.0138043 0.00396646)
(0.00203695 0.0121675 0.00207555)
(0.0127842 -0.0140459 -0.00732712)
(-0.0138663 0.0227474 0.0236019)
(-0.0587812 -0.0469545 0.0329448)
(-0.0131009 -0.0153216 0.0728423)
(-0.031476 -0.104328 0.103503)
(0.0384499 -0.147796 -0.206578)
(0.039303 -0.0985426 -0.0309458)
(0.0861873 0.0994679 -0.0596351)
(0.0156775 0.235325 -0.0107025)
(0.00583325 0.265531 0.00268583)
(-0.00622808 0.276285 0.00811896)
(-0.00710943 0.284866 0.00786025)
(-0.00994006 0.286774 0.00708853)
(-0.00833579 0.290093 0.0080141)
(-0.00636672 0.288229 0.0089255)
(-0.00406542 0.286762 0.00993625)
(-0.00164404 0.283248 0.0110112)
(0.00260437 0.281271 0.0127433)
(0.00556829 0.279257 0.0142218)
(0.00869438 0.274185 0.0155242)
(0.0131029 0.270444 0.0168463)
(0.0173641 0.263825 0.0185679)
(0.0216151 0.257664 0.0201748)
(0.0260272 0.248864 0.021836)
(0.0302822 0.239746 0.0235427)
(0.033331 0.227618 0.025201)
(0.0344614 0.21502 0.0265368)
(0.0344377 0.199345 0.027466)
(0.0329329 0.182104 0.0272514)
(0.0291938 0.162588 0.0256993)
(0.0236772 0.141814 0.0228161)
(0.0165549 0.120485 0.0186622)
(0.00803752 0.0997264 0.0136509)
(-0.000814376 0.0818731 0.00937567)
(-0.0083028 0.0685185 0.00754817)
(-0.0125672 0.0548274 0.00866594)
(-0.012428 0.0414985 0.0137276)
(-0.0111665 0.0302056 0.0192072)
(-0.013431 0.0216378 0.0213438)
(-0.019095 0.0148112 0.0233873)
(-0.0308357 0.00786591 0.0255413)
(-0.0471994 0.00551101 0.0303289)
(-0.0642419 -0.000146666 0.0362175)
(0.0166337 0.0272979 0.00129875)
(0.0281324 0.0444365 0.0103078)
(0.0201302 0.0219288 0.00710803)
(0.0233659 0.0272037 0.0115576)
(0.0133098 0.0135078 0.00949656)
(0.0158252 0.0144993 0.0127574)
(0.00496984 0.00203611 0.00870256)
(0.0052146 0.00720085 0.00585762)
(-0.000265186 0.0014038 0.0039288)
(0.000745691 0.00425469 0.00488624)
(0.000474584 -0.000622081 0.0047777)
(-0.000309122 0.000156381 0.00514435)
(-0.0021572 -0.000687852 0.00511141)
(-0.00241112 0.000395433 0.00546704)
(-0.00291465 4.86932e-05 0.00584015)
(-0.00296046 0.000844223 0.0060619)
(-0.00335619 0.000944219 0.00615808)
(-0.00348077 0.00142499 0.00616157)
(-0.00367406 0.00160749 0.00606939)
(-0.00381159 0.00179316 0.00595787)
(-0.00390826 0.001888 0.00585355)
(-0.00395329 0.00195813 0.00578562)
(-0.003964 0.00200028 0.0057342)
(-0.00394425 0.00204109 0.00569921)
(-0.00389947 0.00208425 0.0056772)
(-0.00383644 0.00213756 0.00566574)
(-0.00377548 0.00220042 0.00564717)
(-0.0037169 0.00224489 0.00561652)
(-0.0036615 0.00226145 0.0055857)
(-0.0036051 0.00226824 0.00555811)
(-0.00354772 0.00226882 0.00553565)
(-0.00348383 0.00226137 0.00552055)
(-0.00342836 0.00225208 0.00550752)
(-0.00335814 0.00222719 0.00550326)
(-0.00329338 0.00224764 0.00550551)
(-0.00320685 0.0021312 0.00552032)
(-0.00310621 0.00235388 0.00555475)
(-0.00302965 0.00191586 0.00555215)
(-0.00280607 0.00267083 0.00566487)
(-0.00282233 0.00162393 0.00560554)
(-0.00245765 0.00331768 0.00579309)
(-0.00264527 0.001417 0.00566321)
(-0.00230982 0.00440095 0.00574561)
(-0.0024898 0.00129135 0.00561806)
(-0.0025973 0.00589818 0.00519623)
(-0.00237209 0.00020773 0.00520627)
(-0.00206688 0.00790276 0.00473085)
(-0.00177801 -0.0035007 0.00488663)
(0.00162187 0.010999 0.00733906)
(0.00156572 -0.00927931 0.00640727)
(0.00172156 0.0153311 0.00828424)
(0.00268767 -0.0136337 0.00837146)
(-0.000264654 0.0114169 0.00384766)
(0.00907776 -0.00788339 0.00817387)
(-0.00714518 0.0445348 0.0222071)
(-0.0239418 -0.0323453 0.0320447)
(-0.0226757 -0.0127736 0.0769027)
(0.00743277 -0.101886 0.10842)
(0.000250622 -0.161399 -0.191288)
(-0.0115467 -0.0946483 -0.0424711)
(-0.0168548 0.154158 -0.0742234)
(-0.0268578 0.289506 -0.0143074)
(-0.0231349 0.329521 0.0017763)
(-0.0204059 0.343264 0.0120272)
(-0.0180097 0.349947 0.0122147)
(-0.0160299 0.351745 0.0117109)
(-0.0138091 0.351702 0.0127636)
(-0.0104496 0.350152 0.0115762)
(-0.0058181 0.346184 0.0119261)
(-0.00211796 0.343254 0.0117017)
(0.00109234 0.337697 0.013171)
(0.00555223 0.333657 0.0142022)
(0.00838648 0.327354 0.0148249)
(0.0123776 0.322741 0.0158813)
(0.0172448 0.317338 0.0170022)
(0.021418 0.312754 0.0181573)
(0.0265362 0.30738 0.0193853)
(0.0309238 0.302771 0.0208135)
(0.0337332 0.298397 0.0229698)
(0.0349845 0.293688 0.0257957)
(0.0352882 0.287876 0.0285385)
(0.0338589 0.28217 0.0308426)
(0.0308642 0.275929 0.0330377)
(0.0264711 0.268388 0.0345233)
(0.0209875 0.259632 0.0353641)
(0.0146987 0.248907 0.0355631)
(0.00798471 0.235547 0.0352567)
(0.00248675 0.218986 0.0350899)
(-0.000948962 0.203288 0.0365842)
(-0.00293541 0.186367 0.0388626)
(-0.00567726 0.168606 0.0412923)
(-0.0108619 0.147941 0.0420198)
(-0.0200131 0.125095 0.0408442)
(-0.0338189 0.0986547 0.0383379)
(-0.0511975 0.0662125 0.0342403)
(-0.0632097 0.0236978 0.0292964)
(0.000109053 0.0207758 -0.017684)
(0.0229203 0.0467115 0.00381)
(0.0130063 0.0184134 0.00281535)
(0.017643 0.0272961 0.00810183)
(0.00710453 0.0119953 0.00728336)
(0.00985263 0.0155812 0.0102521)
(-0.000179684 0.00628295 0.00714819)
(0.00177983 0.00968992 0.00500008)
(-0.00331194 0.00233836 0.00208773)
(-0.00135738 0.00503367 0.00223014)
(-0.00205624 -0.000228485 0.00179639)
(-0.00414415 0.00130424 0.00149027)
(-0.00648626 -0.000769455 0.00150072)
(-0.00613527 0.0001915 0.00174123)
(-0.00694978 -0.000531939 0.00221917)
(-0.00682864 0.000461203 0.00240642)
(-0.00737173 0.000484031 0.00268682)
(-0.00754042 0.00117995 0.00282799)
(-0.00782397 0.00143379 0.00289947)
(-0.00803055 0.0017382 0.00293254)
(-0.00820639 0.00192415 0.00294169)
(-0.00834682 0.00206744 0.0029446)
(-0.00845589 0.00216314 0.00294424)
(-0.00853911 0.00224402 0.00294772)
(-0.00860313 0.00231178 0.0029544)
(-0.0086457 0.0023756 0.00296712)
(-0.00861101 0.00243132 0.00298957)
(-0.00850024 0.00247264 0.00301613)
(-0.00838459 0.00249518 0.00304418)
(-0.0082689 0.0025062 0.00307077)
(-0.00814735 0.00250888 0.0030985)
(-0.00801243 0.00250203 0.00312891)
(-0.00788137 0.00249467 0.00315543)
(-0.00772961 0.00247242 0.00318369)
(-0.00759432 0.0024831 0.00320978)
(-0.00740982 0.00239708 0.00324959)
(-0.00729679 0.00257885 0.00329064)
(-0.00704466 0.00224614 0.00335275)
(-0.00700598 0.00289491 0.00339811)
(-0.00667811 0.00208884 0.00346825)
(-0.00678711 0.00356655 0.00348829)
(-0.00632232 0.00208908 0.00358158)
(-0.00676121 0.00472635 0.00340648)
(-0.00587147 0.00213884 0.00350875)
(-0.00651007 0.00641917 0.00283306)
(-0.00553013 0.000791312 0.00286697)
(-0.00512826 0.00832488 0.00227304)
(-0.00531464 -0.00390699 0.00199136)
(-0.00138693 0.0108181 0.00444215)
(-0.00376496 -0.010232 0.00393972)
(-0.00308716 0.0145877 0.00670845)
(0.00358616 -0.0125617 0.00767717)
(-0.0126136 0.00831031 0.00103952)
(-0.00985015 -0.00620486 0.00463204)
(-0.0178045 0.0502636 0.0120219)
(-0.00690878 -0.0277797 0.0156409)
(-0.0299016 0.0177777 0.0699675)
(0.0486378 -0.106212 0.0894934)
(-0.0709185 -0.160406 -0.205249)
(-0.0700046 -0.0950356 -0.0409954)
(-0.123404 0.129093 -0.0679301)
(-0.0622029 0.257386 -0.0118716)
(-0.0450976 0.284688 0.00168847)
(-0.0353284 0.289467 0.00869163)
(-0.0281622 0.28645 0.00890879)
(-0.0240937 0.281865 0.00611916)
(-0.0181211 0.268337 0.00676572)
(-0.0132523 0.254911 0.00471113)
(-0.00899177 0.245603 0.00349027)
(-0.00456666 0.238963 0.000219926)
(-0.00207313 0.229823 0.000593052)
(0.000795987 0.224114 -0.000494696)
(0.00359325 0.21938 -0.000528984)