/*--------------------------------*- C++ -*----------------------------------*\
| =========                 |                                                 |
| \\      /  F ield         | OpenFOAM: The Open Source CFD Toolbox           |
|  \\    /   O peration     | Version:  2.3.0                                 |
|   \\  /    A nd           | Web:      www.OpenFOAM.org                      |
|    \\/     M anipulation  |                                                 |
\*---------------------------------------------------------------------------*/
FoamFile
{
    version     2.0;
    format      ascii;
    class       volVectorField;
    location    "17";
    object      U;
}
// * * * * * * * * * * * * * * * * * * * * * * * * * * * * * * * * * * * * * //

dimensions      [0 1 -1 0 0 0 0];

internalField   nonuniform List<vector> 
6144
(
(0.0129006 0.0283833 -0.00350097)
(0.013038 0.00860251 -0.00377011)
(0.00722864 0.00469811 -0.0042004)
(0.00674245 -0.000253754 -0.00376154)
(0.00287903 -0.00392759 -0.00199029)
(0.00216217 -0.00338181 -0.00135035)
(0.0010408 -0.00407326 -0.000630055)
(0.00132948 -0.00218518 -0.000804224)
(0.00140108 -0.00037419 -0.00123513)
(0.00157435 0.00211285 -0.00066299)
(0.00157102 0.00388197 -6.29508e-06)
(0.00176638 0.00488396 0.000718419)
(0.00203659 0.00460686 0.000961082)
(0.00226368 0.00379662 0.00110214)
(0.00230632 0.00275772 0.000877022)
(0.0023337 0.00199701 0.000683775)
(0.00233556 0.00136174 0.000455833)
(0.00234126 0.0009442 0.000313635)
(0.00233862 0.000625235 0.000208516)
(0.00233267 0.000417256 0.000147208)
(0.00232228 0.000261905 0.000113681)
(0.00230828 0.000158002 0.000103581)
(0.00229158 7.91531e-05 0.000109566)
(0.00227307 2.22735e-05 0.000128807)
(0.00225335 -2.57593e-05 0.000155782)
(0.00223285 -6.64314e-05 0.000187886)
(0.00221206 -0.0001048 0.000223466)
(0.00219072 -0.000142299 0.000262266)
(0.00216856 -0.000180863 0.000305994)
(0.00214477 -0.000225908 0.00035879)
(0.00211845 -0.000279542 0.000425296)
(0.00209186 -0.000353643 0.0005086)
(0.00206526 -0.000457308 0.000614885)
(0.00203433 -0.000623566 0.000751512)
(0.0019988 -0.000869991 0.000935315)
(0.00196221 -0.00126334 0.00116304)
(0.00192941 -0.00182851 0.00143373)
(0.00191567 -0.0026608 0.00169773)
(0.00193367 -0.00372945 0.00189771)
(0.00200139 -0.00505737 0.00190698)
(0.00210657 -0.0064389 0.00162355)
(0.00224214 -0.00778657 0.000945385)
(0.00236513 -0.0087246 8.18419e-05)
(0.00257235 -0.00921505 -0.000739537)
(0.0026997 -0.0092817 -0.00124058)
(0.00308506 -0.00981962 -0.00162273)
(0.00418304 -0.0109589 -0.00368527)
(0.00121747 -0.00822473 -0.00693928)
(-0.00255805 0.00956505 -0.00841394)
(0.00360421 0.0209377 -0.00838668)
(0.00821783 0.0266345 -0.00820202)
(0.0161983 0.0221287 -0.00857463)
(0.0226457 0.0249337 -0.00820382)
(0.0286701 -0.0175922 -0.00696179)
(0.0500346 -0.0283139 -0.0116528)
(0.0485482 -0.0911761 -0.00926171)
(0.0420426 -0.0672637 -0.0350545)
(0.0375725 -0.127553 -0.00747468)
(0.0242108 0.0533009 -0.0895601)
(0.019488 0.0763197 0.0218166)
(0.0864377 -0.256907 0.0681853)
(0.0590521 -0.0850456 0.0344091)
(0.0437967 -0.150372 -0.000947237)
(0.0406044 -0.14759 0.00176656)
(0.0320112 -0.143775 0.00346432)
(0.0297344 -0.147588 0.0101539)
(0.0273478 -0.147474 0.0125445)
(0.0246266 -0.14975 0.0109254)
(0.0220834 -0.147101 0.00845779)
(0.0160404 -0.148263 0.00463901)
(0.0113238 -0.142834 0.00244938)
(0.00891394 -0.138714 0.00265672)
(0.0050743 -0.133832 0.007515)
(-7.15484e-05 -0.132393 0.00646986)
(-0.00626281 -0.127464 0.00455509)
(-0.00736942 -0.118312 -0.00339772)
(-0.0117556 -0.102188 -0.00329438)
(-0.0159624 -0.0796278 -0.0121389)
(-0.0219476 -0.0101129 -0.0131043)
(-0.0150448 0.056648 -0.0108552)
(0.00475552 0.068128 -0.000817976)
(0.00898417 0.0736262 0.00325753)
(0.0173779 0.0611653 0.00932846)
(0.0208054 0.0453426 0.0102754)
(0.0187476 0.0260442 0.0104237)
(0.0162882 0.00672669 0.00822095)
(0.0181162 -0.00999189 0.00599417)
(0.0150041 -0.0209423 0.00196359)
(0.0124565 -0.0310375 0.00327048)
(0.00587263 -0.0387606 -0.000292156)
(0.00374744 -0.0381876 -0.00242734)
(0.00403969 -0.0347468 -0.00456665)
(0.000636054 -0.0303558 -0.0117226)
(-0.0021045 -0.0144863 -0.0112692)
(0.00746192 0.00559277 -0.00469022)
(0.00911698 -0.00299847 -0.0034719)
(0.0218673 0.0343903 0.000325731)
(0.0235271 0.0261432 0.00106174)
(0.0173649 0.0217953 -0.000359453)
(0.0169506 0.0153928 0.00246921)
(0.00805413 0.00728932 0.00233345)
(0.00610519 0.00424062 0.00282129)
(0.00245565 -0.00029121 0.00314463)
(0.00198966 0.00148654 0.00212081)
(0.00187896 0.00262374 0.00182169)
(0.00209542 0.00516909 0.00238401)
(0.002431 0.00621222 0.00284678)
(0.00320127 0.00665371 0.0036556)
(0.00376188 0.00572437 0.00405551)
(0.00413877 0.00483074 0.00428856)
(0.00414751 0.00362322 0.00419338)
(0.0041806 0.00276401 0.00411275)
(0.00415124 0.00200854 0.00395565)
(0.00413584 0.00150672 0.00386204)
(0.00410557 0.00110604 0.00379482)
(0.00407241 0.000840888 0.00376742)
(0.0040338 0.000640808 0.00376643)
(0.00398994 0.000507598 0.00378827)
(0.00394358 0.000407905 0.00382553)
(0.00389522 0.00033839 0.00387568)
(0.00384574 0.000282271 0.00393352)
(0.0037945 0.000237228 0.00399624)
(0.00374232 0.00019597 0.00406145)
(0.00368876 0.000156216 0.00412885)
(0.00363416 0.000115635 0.00419949)
(0.00357758 6.68734e-05 0.00427569)
(0.00351811 1.06345e-05 0.00436062)
(0.0034553 -6.9892e-05 0.00444996)
(0.00339975 -0.000186174 0.00452871)
(0.00335302 -0.000384834 0.00461654)
(0.003325 -0.00066837 0.00471989)
(0.0033258 -0.00111528 0.00483864)
(0.00338034 -0.00171586 0.00496538)
(0.00350132 -0.00255858 0.00507775)
(0.00370923 -0.00355715 0.00514214)
(0.00399385 -0.00475914 0.005109)
(0.00432257 -0.00597745 0.00491093)
(0.00472517 -0.00721385 0.00436097)
(0.00514915 -0.00819368 0.00336482)
(0.00540985 -0.00901011 0.00236569)
(0.00585758 -0.0099919 0.00179563)
(0.00697402 -0.0127647 0.00109901)
(0.00684794 -0.0155111 -0.00297976)
(-0.000358311 -0.00851394 -0.00634307)
(-0.00524336 0.00153139 -0.00363165)
(0.0024977 0.00326043 0.00517951)
(0.00909782 0.00285064 0.013063)
(0.0239358 -0.0278461 0.00993869)
(0.0446299 -0.0360135 0.0147415)
(0.0699997 -0.0935638 0.0277939)
(0.0768857 -0.106309 0.0201132)
(0.0826142 -0.1557 0.0236719)
(0.0577714 -0.135906 2.85426e-05)
(0.0362888 -0.191739 0.00947362)
(0.0111596 0.0682158 -0.0480959)
(0.0239983 0.0455913 0.0332113)
(0.120723 -0.242552 0.11226)
(0.0690202 -0.0477384 0.0629029)
(0.0467694 -0.114899 0.020459)
(0.0390212 -0.100983 0.0219576)
(0.0201044 -0.0945769 0.00249962)
(0.00538973 -0.0815674 0.000745779)
(0.00617172 -0.0615131 -0.00536257)
(0.00622481 -0.0465209 -0.0131868)
(0.0126007 -0.021016 -0.0224634)
(0.0130326 -0.00684138 -0.0189163)
(0.012318 0.00260933 -0.00950833)
(0.00945377 -0.000391734 -0.00666459)
(0.00781197 -0.00341246 0.0052914)
(0.00131228 -0.0160725 0.0128004)
(-0.000115316 -0.0319173 0.0115422)
(0.000878143 -0.0406126 0.0186658)
(-0.00177183 -0.0356403 0.01023)
(-0.0367203 -0.0127746 -0.020035)
(-0.0482303 0.0448809 -0.0208599)
(-0.0149125 0.0654285 -0.0100218)
(-0.00187516 0.0720105 0.00367334)
(0.00190792 0.0781368 0.0159294)
(0.0138586 0.0669535 0.0214958)
(0.0152681 0.0570059 0.0217849)
(0.0139158 0.0442366 0.0272201)
(0.013847 0.0251968 0.0266922)
(0.0149476 0.012679 0.0245948)
(0.0160841 -0.0016616 0.0233463)
(0.0162713 -0.0120143 0.0212824)
(0.00841024 -0.020957 0.0149487)
(0.00717037 -0.0227009 0.00525923)
(0.0124761 -0.0169841 -0.00749725)
(0.00478059 -0.00576573 -0.0161512)
(0.000418466 0.0110798 -0.0050742)
(0.00981922 0.0106631 0.00383298)
(0.0136375 0.00443405 0.0064773)
(0.0252282 0.0330207 0.00133678)
(0.0277786 0.0312939 0.00292871)
(0.0226628 0.0268761 0.00182184)
(0.0218376 0.0240875 0.00424878)
(0.0122645 0.0169354 0.00336394)
(0.0097 0.0109906 0.00440632)
(0.0030893 0.00433751 0.00442582)
(0.00129924 0.00392635 0.00366198)
(0.000683532 0.00451518 0.00296702)
(0.00123382 0.00626458 0.00350701)
(0.00171992 0.00635079 0.00385354)
(0.00308999 0.00647464 0.00434569)
(0.00375125 0.00540363 0.00455881)
(0.00411522 0.00486797 0.00473529)
(0.00399821 0.00389752 0.00472081)
(0.00391986 0.00322856 0.00478489)
(0.00369636 0.00251638 0.00478832)
(0.00354157 0.00203877 0.00482549)
(0.00338486 0.00163082 0.00486018)
(0.00325072 0.00135154 0.00490666)
(0.00312707 0.00113728 0.004956)
(0.00301416 0.000990628 0.00500827)
(0.00291054 0.000880446 0.00506037)
(0.00281641 0.000802411 0.00511203)
(0.00272919 0.000739558 0.00516392)
(0.00265049 0.000687866 0.00521588)
(0.00257723 0.000640596 0.0052663)
(0.0025075 0.000595129 0.00531369)
(0.00244214 0.000548692 0.0053584)
(0.00238114 0.000492869 0.00540284)
(0.00232609 0.000422753 0.00544779)
(0.00227354 0.000314662 0.005494)
(0.00222921 0.000163804 0.00554343)
(0.002203 -6.39361e-05 0.00559903)
(0.00221506 -0.000361517 0.00565779)
(0.00227127 -0.000767895 0.0057198)
(0.00240287 -0.00123585 0.00577336)
(0.0026219 -0.00177684 0.00580413)
(0.00295964 -0.00227745 0.00578816)
(0.0034394 -0.00275789 0.00570794)
(0.00406417 -0.00315927 0.00554942)
(0.00474828 -0.00367406 0.00535346)
(0.00530118 -0.00429577 0.00512892)
(0.00575965 -0.00512358 0.00485574)
(0.00689758 -0.00655413 0.00475656)
(0.00945278 -0.00949183 0.00420232)
(0.00901811 -0.0115579 -0.000479904)
(0.00105778 -0.00661861 -0.00440308)
(-0.00726419 -0.00026647 -0.000182796)
(-0.00986098 -0.00377766 0.0104812)
(0.0058238 -0.00683103 0.0202768)
(0.0360661 -0.0458686 0.0248943)
(0.0615034 -0.0579252 0.0351193)
(0.0983111 -0.111806 0.0421424)
(0.101415 -0.109233 0.0364614)
(0.114835 -0.144242 0.0493099)
(0.0552656 -0.113918 0.0121286)
(0.0299196 -0.187867 0.0334356)
(-0.016693 0.0570153 -0.063352)
(0.0232609 0.0532292 0.00488385)
(0.19375 -0.237672 0.122508)
(0.107485 -0.0663534 0.094807)
(0.0700511 -0.114431 0.0543904)
(0.0531784 -0.0976278 0.0460849)
(0.0390878 -0.0756382 -0.00190585)
(0.0193666 -0.0363303 -0.0236093)
(0.019854 0.001147 -0.0224296)
(0.0277115 0.0301182 -0.00826731)
(0.0315993 0.0416238 -0.00829643)
(0.025999 0.0434086 0.00371999)
(0.0164074 0.0291754 0.0147612)
(0.00838335 0.00881166 0.0246588)
(0.0023523 -0.00400318 0.0250099)
(0.000638224 -0.00166023 0.0214599)
(-0.00144597 -0.000323313 0.00105279)
(-0.0340069 0.0411177 -0.00909194)
(-0.0458205 0.0620968 -0.00562824)
(-0.0484614 0.0653262 -0.0131864)
(-0.030564 0.0693719 -0.0141111)
(-0.00924035 0.0626871 0.00326392)
(-0.00229233 0.0766022 0.0180666)
(0.00247647 0.0790491 0.0248286)
(0.0103664 0.0760445 0.0225032)
(0.00906868 0.0628968 0.0256251)
(0.00667797 0.0509324 0.0305229)
(0.00670331 0.0388132 0.030765)
(0.0092007 0.0315862 0.0330799)
(0.0150788 0.0125523 0.0257539)
(0.0232234 0.00629096 0.0125471)
(0.0194935 -0.000106793 -0.00103864)
(0.0203251 0.00705795 -0.0166185)
(0.0148189 0.0260025 -0.0105202)
(0.00718918 0.032993 -0.00312442)
(0.010891 0.0268118 0.00772859)
(0.0165572 0.0120159 0.0118799)
(0.0182033 0.00683931 0.0123751)
(0.0257902 0.0307532 0.000486327)
(0.0295775 0.0323487 0.00312348)
(0.0241501 0.027674 0.00179277)
(0.0247084 0.0264539 0.00389577)
(0.0169324 0.02018 0.00299785)
(0.0168643 0.0144648 0.00455043)
(0.0059652 0.00603678 0.00345318)
(0.00238017 0.00440665 0.00267686)
(-0.000143672 0.0035121 0.00215012)
(0.000688171 0.00549554 0.0027398)
(0.00130448 0.00501238 0.00309838)
(0.0026729 0.00498773 0.00388338)
(0.00294282 0.00423064 0.00420231)
(0.00316223 0.00422829 0.00453062)
(0.00294836 0.00362418 0.00454654)
(0.00284619 0.00324974 0.00462239)
(0.00258753 0.00263073 0.00460564)
(0.00240123 0.00219549 0.00465386)
(0.00219985 0.00177653 0.00469341)
(0.00202824 0.00147913 0.00475301)
(0.00187441 0.0012459 0.0048157)
(0.00174028 0.00108577 0.00488457)
(0.0016237 0.000967954 0.00495062)
(0.00152315 0.000888154 0.00501131)
(0.00143506 0.000832647 0.00506936)
(0.00135061 0.000792822 0.00512422)
(0.00126997 0.000753418 0.00517746)
(0.00119466 0.000710028 0.00522719)
(0.00112464 0.00066118 0.00527055)
(0.00106384 0.000599378 0.00531209)
(0.00101721 0.000520094 0.00535554)
(0.000990057 0.000403625 0.00540213)
(0.000990012 0.00024932 0.00545132)
(0.00102368 3.28679e-05 0.00550166)
(0.00110105 -0.00022246 0.00554504)
(0.00122738 -0.000522679 0.0055721)
(0.00141201 -0.000791824 0.00556458)
(0.00164283 -0.00100669 0.00549535)
(0.00195822 -0.0010541 0.00535422)
(0.00242496 -0.000965037 0.00517313)
(0.00312896 -0.000733077 0.00503394)
(0.00409468 -0.00063036 0.00506653)
(0.00500872 -0.000867333 0.00531046)
(0.00559894 -0.00150782 0.00577192)
(0.00680696 -0.00275411 0.0064986)
(0.00961208 -0.00493689 0.00686899)
(0.0100002 -0.00658806 0.00359989)
(0.00295703 -0.00269807 -0.00243835)
(-0.00553569 0.0025871 -2.79831e-05)
(-0.0118626 -0.00783092 0.00581466)
(0.00710816 -0.014253 0.0155554)
(0.0398499 -0.0486675 0.0338385)
(0.0739364 -0.0455294 0.0560814)
(0.111095 -0.0806276 0.0494341)
(0.109538 -0.0156452 0.0716117)
(0.136885 -0.0939232 0.0657294)
(0.0576487 0.0427268 0.141249)
(0.0662096 -0.197703 0.171766)
(-0.0215566 0.155643 -0.020097)
(0.0578746 -0.0167101 -0.0138697)
(0.249117 -0.21937 0.0924698)
(0.11669 -0.00865902 0.0846529)
(0.0596528 -0.0637058 0.0579066)
(0.0150061 -0.00450567 0.0168799)
(-0.0127206 0.067359 -0.0243228)
(0.0048506 0.122739 -0.0138741)
(0.0223606 0.125162 -0.000162105)
(0.0310524 0.10515 0.0264659)
(0.0318172 0.0776007 0.0314885)
(0.0268138 0.0523036 0.0335377)
(0.0205468 0.0374162 0.030306)
(0.00192761 0.023497 0.0260549)
(-0.0251145 0.0120436 -0.0021191)
(-0.0509431 0.0429813 -0.013916)
(-0.0543269 0.0827409 -0.0166011)
(-0.0453961 0.0964116 -0.00539057)
(-0.0320033 0.084033 0.00943969)
(-0.0231019 0.0739064 0.0112006)
(-0.00714089 0.0754354 0.0213531)
(-0.00191492 0.076547 0.0260405)
(0.000598184 0.0919876 0.0291614)
(0.00274539 0.0950889 0.0320304)
(0.0054466 0.0866633 0.0263915)
(0.00724133 0.0775193 0.0304027)
(-0.0017141 0.063053 0.0306042)
(-0.0104345 0.0595232 0.0275389)
(-0.00732925 0.0491769 0.0245913)
(0.00777877 0.0371112 0.0154517)
(0.0229354 0.0317307 -0.00377439)
(0.0271316 0.0330393 -0.0122128)
(0.0228743 0.0383802 -0.00493362)
(0.0189453 0.0341918 0.00314585)
(0.0180793 0.0280631 0.0105968)
(0.0195303 0.0130542 0.0164987)
(0.0146777 0.00500623 0.0161305)
(0.0196038 -0.00035264 0.0112013)
(0.0258141 0.0280747 0.000318944)
(0.0310878 0.0322657 0.00350461)
(0.0255745 0.025251 0.00105914)
(0.0273179 0.025145 0.00280708)
(0.0201815 0.0189743 0.00220416)
(0.0217578 0.0155243 0.00404288)
(0.00973701 0.00764238 0.00138572)
(0.00566318 0.00634218 0.00152085)
(-2.65145e-06 0.00222979 0.00128583)
(0.000313587 0.00418587 0.00204724)
(0.000914224 0.00286681 0.00209119)
(0.00184828 0.00297303 0.00322221)
(0.00142591 0.00257876 0.00349408)
(0.00144489 0.00311407 0.00395917)
(0.00109489 0.00289611 0.00393917)
(0.000961331 0.00285509 0.00409051)
(0.000588862 0.00243611 0.00406081)
(0.000330485 0.0021284 0.00410874)
(4.08626e-05 0.00176842 0.00411686)
(-0.000206554 0.00150635 0.00414408)
(-0.00043321 0.001282 0.00416987)
(-0.000630289 0.00112501 0.00419857)
(-0.000799441 0.00100968 0.00422537)
(-0.000938287 0.000931674 0.00425527)
(-0.0010546 0.000869125 0.00428416)
(-0.00115364 0.000818509 0.00431407)
(-0.00123767 0.000775877 0.00434312)
(-0.00130743 0.000733638 0.00436966)
(-0.00136266 0.000685825 0.00439414)
(-0.00139942 0.000625154 0.00441966)
(-0.00141594 0.000548736 0.00444745)
(-0.00140896 0.000444087 0.00447787)
(-0.00137281 0.000318432 0.00451263)
(-0.00130172 0.000164307 0.00454927)
(-0.00119064 2.0984e-05 0.00457361)
(-0.00104153 -0.000105411 0.0045633)
(-0.000845805 -0.000147718 0.00449107)
(-0.000625132 -0.000107598 0.00433872)
(-0.000339928 8.5935e-05 0.00412334)
(0.000101566 0.000371848 0.00391301)
(0.000854756 0.000735806 0.0038568)
(0.00198005 0.00101342 0.00413334)
(0.00304869 0.00120022 0.00475097)
(0.00372316 0.00139343 0.00573659)
(0.00526026 0.00128151 0.00695082)
(0.00897137 -0.000380251 0.00783767)
(0.0100115 -0.00230474 0.00684512)
(0.00520592 0.000517965 0.00135049)
(-0.000564434 0.00690675 0.00170022)
(-0.00740525 -0.00375025 0.00502589)
(0.00645412 -0.0114616 0.020113)
(0.0277197 -0.0317591 0.0454937)
(0.0438642 -0.00145399 0.0559802)
(0.0699775 -0.0111803 0.0395115)
(0.0659817 0.0764357 0.0720842)
(0.0949323 -0.039827 0.0692222)
(0.0580888 0.144974 0.128197)
(0.133542 -0.252219 0.162326)
(-0.0305551 0.22214 -0.112401)
(0.082192 -0.0792953 0.0107772)
(0.184451 -0.0451726 0.0263051)
(0.0215412 0.165688 0.0105382)
(0.00434234 0.126947 -0.0113143)
(-0.00634617 0.19044 -0.0151032)
(0.0176739 0.191344 0.0020826)
(0.0317931 0.18068 0.0051793)
(0.0442593 0.165033 0.0152297)
(0.0333132 0.140047 0.0248445)
(0.0234319 0.122579 0.0300362)
(0.000937519 0.0950329 0.0148561)
(-0.0162913 0.0821208 -0.0181483)
(-0.0279027 0.0806312 -0.0265165)
(-0.044528 0.0911319 -0.0344749)
(-0.0517119 0.102165 -0.0327108)
(-0.0426221 0.113566 -0.0110298)
(-0.0302175 0.0997672 0.0225043)
(-0.0217255 0.0972751 0.037428)
(-0.0194763 0.0944551 0.0395523)
(-0.00997445 0.104259 0.0319512)
(-0.00808854 0.115951 0.0225716)
(-0.00250003 0.12478 0.0242119)
(-0.0012192 0.126517 0.0232985)
(-0.000658977 0.115715 0.0336089)
(-0.00550468 0.105459 0.0343597)
(-0.0166468 0.0914935 0.0291071)
(-0.0196863 0.0807784 0.0118932)
(-0.00529252 0.0745418 0.00134529)
(0.000974505 0.0690093 -0.0070948)
(0.013413 0.0674149 -0.00201436)
(0.0253144 0.0522028 0.00717139)
(0.0302423 0.0370052 0.00554962)
(0.026261 0.025381 0.00602936)
(0.0208487 0.0182353 0.0139702)
(0.0181798 0.00566908 0.0185043)
(0.0115801 0.0023147 0.0189561)
(0.0173574 -0.0104983 -0.00311569)
(0.0235916 0.0267708 0.00521333)
(0.031272 0.0333322 0.00508011)
(0.0255147 0.0224658 0.00102648)
(0.0287338 0.0237246 0.00375758)
(0.0210842 0.0145584 0.00240936)
(0.0237232 0.0144253 0.00409485)
(0.0120786 0.00613313 0.0013889)
(0.00961615 0.00736069 0.00147841)
(0.00173982 0.00128217 0.00112046)
(0.000958425 0.00320178 0.00238858)
(0.000989035 0.000514584 0.00211086)
(0.00140964 0.000794067 0.00323158)
(0.000463307 0.000485088 0.00316724)
(0.000555227 0.00175995 0.00374552)
(0.000243617 0.0018811 0.00372013)
(0.000121029 0.00219853 0.00396277)
(-0.000269557 0.00201933 0.00394626)
(-0.000528941 0.00194288 0.00397091)
(-0.000841268 0.00171395 0.00389831)
(-0.00108744 0.00155027 0.00384437)
(-0.00130967 0.00138751 0.00378172)
(-0.00148823 0.00127584 0.00373691)
(-0.0016291 0.00119321 0.00370409)
(-0.00173644 0.00114278 0.00367917)
(-0.001816 0.00110902 0.00366178)
(-0.00187215 0.0010868 0.00365152)
(-0.00191044 0.00106926 0.00364331)
(-0.00193483 0.00105216 0.00363452)
(-0.00195023 0.0010293 0.00362461)
(-0.00194817 0.000993838 0.00361967)
(-0.00192212 0.00094919 0.0036247)
(-0.00186446 0.000893123 0.00364104)
(-0.00177447 0.000840244 0.00366636)
(-0.00165389 0.000797957 0.00369138)
(-0.00150096 0.000808712 0.00369916)
(-0.00131661 0.000878812 0.00366284)
(-0.00109677 0.00104412 0.00355565)
(-0.000858471 0.00125383 0.00336573)
(-0.000581413 0.00151293 0.00311745)
(-0.00019094 0.00172959 0.00288453)
(0.000383435 0.00199168 0.00280753)
(0.00110408 0.00238156 0.00303777)
(0.00147095 0.00317158 0.00352486)
(0.00145428 0.00450719 0.00433818)
(0.00354394 0.00585942 0.00541363)
(0.0083216 0.00595546 0.00624821)
(0.0106476 0.00597428 0.00622066)
(0.00690932 0.00871086 0.00675696)
(0.00424662 0.0152082 0.00608958)
(0.0020943 0.00873055 0.00498165)
(0.00557034 0.00408207 0.0181241)
(-0.00149038 -0.0194535 0.043053)
(-0.00267369 0.00346315 0.055413)
(-0.00170686 -0.0278786 0.0440132)
(0.0221298 0.0772978 0.0872707)
(0.040226 -0.0888148 0.0617382)
(0.0865155 0.142026 0.0446537)
(0.106464 -0.240496 0.118581)
(-0.0503725 0.306194 -0.0729688)
(0.0466494 -0.134081 0.0261665)
(0.0878073 0.0414539 -0.0116689)
(0.0241614 0.203732 -0.0163567)
(0.0197417 0.21682 -0.0118139)
(0.0184608 0.250782 -0.000392686)
(0.0344545 0.253849 0.0160813)
(0.0349527 0.247278 0.0298222)
(0.0354864 0.232144 0.0377308)
(0.0286504 0.215693 0.0374404)
(0.0252697 0.198457 0.025074)
(0.0194357 0.184897 0.0150403)
(0.0191125 0.178959 0.00854184)
(0.0117199 0.17154 0.00666878)
(-0.00267594 0.162802 0.00420628)
(-0.0121424 0.156784 0.0133499)
(-0.0127583 0.156218 0.0313788)
(-0.0151906 0.153259 0.0378875)
(-0.0158439 0.152478 0.0390561)
(-0.0150022 0.150083 0.0272734)
(-0.0115738 0.152277 0.00991626)
(-0.00877725 0.154504 0.00404979)
(-0.00654369 0.156145 0.00347565)
(-0.00330549 0.151194 0.0193969)
(-0.00304302 0.135953 0.0357911)
(-0.00323551 0.116498 0.0372616)
(-0.0150424 0.0897658 0.0216583)
(-0.0177041 0.0748766 0.00220022)
(-0.0121531 0.0785487 -0.0126162)
(-0.000619793 0.0759267 -0.0129424)
(0.023796 0.0702899 -0.00337678)
(0.0343405 0.0493473 -0.0024547)
(0.0338482 0.0369103 -0.0100741)
(0.023171 0.021133 -0.00452154)
(0.0146629 0.0153188 0.00657949)
(0.011106 0.00613318 0.0117296)
(0.00807139 0.00473481 0.00964062)
(0.0322853 -0.0189566 -0.0239138)
(0.0163626 0.0273377 0.00495747)
(0.0293595 0.0377841 0.0074185)
(0.0233874 0.0200843 0.0026188)
(0.0284406 0.0244866 0.00653757)
(0.0196506 0.00965301 0.00499582)
(0.0231628 0.0123046 0.00787398)
(0.0104165 0.00128122 0.00504761)
(0.0109456 0.00613782 0.00363662)
(0.00242858 -0.000549402 0.00213731)
(0.00154517 0.00281244 0.00307876)
(0.00076002 -0.00113492 0.00297813)
(-0.000301187 -8.64991e-05 0.00368472)
(-0.00228812 -0.000755845 0.00328061)
(-0.00260607 0.000809775 0.0039172)
(-0.00275178 0.000860807 0.00414469)
(-0.00268866 0.0014421 0.00454048)
(-0.00308974 0.00147429 0.00454635)
(-0.00335801 0.00169791 0.00454013)
(-0.0037405 0.00167302 0.00440936)
(-0.00402107 0.00168593 0.00432756)
(-0.00428858 0.0016372 0.00423429)
(-0.00450415 0.00160919 0.00416623)
(-0.00467929 0.00158425 0.00411179)
(-0.00480796 0.00157308 0.0040622)
(-0.00490112 0.00156323 0.00401424)
(-0.00495783 0.00156198 0.00397916)
(-0.00498592 0.00156612 0.0039506)
(-0.00498722 0.00157326 0.00393007)
(-0.00496254 0.00157562 0.00391819)
(-0.00491391 0.00156864 0.00391737)
(-0.00484431 0.00156416 0.00392875)
(-0.00474873 0.00157094 0.00395064)
(-0.0046313 0.00160762 0.00398055)
(-0.00449018 0.00168674 0.00401287)
(-0.00432619 0.00184223 0.0040388)
(-0.00412086 0.0020595 0.0040456)
(-0.00384237 0.00233012 0.0040168)
(-0.00348368 0.00255805 0.00393624)
(-0.00305211 0.00268749 0.00380242)
(-0.0025781 0.00266604 0.00363816)
(-0.00220255 0.00264715 0.00345992)
(-0.00209438 0.00293925 0.00326384)
(-0.00249468 0.00404068 0.00283005)
(-0.00288305 0.00656813 0.00246144)
(-0.000807323 0.0103199 0.00233697)
(0.00437134 0.0144324 0.00221229)
(0.007563 0.0175975 0.00164167)
(0.00430044 0.0201579 0.00430797)
(0.00280894 0.0196376 0.00674504)
(0.0108504 0.0104287 0.00840818)
(0.00895641 0.00823372 0.0186571)
(-0.0130502 -0.0175981 0.0373719)
(-0.00710398 -0.00322587 0.0537021)
(-0.0120909 -0.0543392 0.0414252)
(0.0423159 0.0426081 0.068316)
(0.0103047 -0.0410906 0.0476688)
(0.10063 0.145737 0.00802184)
(0.0325313 -0.0202992 0.0278542)
(-0.12605 0.376605 0.0621054)
(-0.000127332 -0.174454 0.0126647)
(0.00392722 0.0137881 -0.0254332)
(-0.0101264 0.211413 -0.0174199)
(-0.00190624 0.235354 -0.000238455)
(0.0162536 0.269289 0.0082999)
(0.030995 0.26849 0.0278926)
(0.0307542 0.265396 0.041121)
(0.0300074 0.254167 0.0446333)
(0.022736 0.246097 0.0414832)
(0.0231624 0.233813 0.0355985)
(0.0214514 0.226047 0.0351158)
(0.025867 0.216486 0.0334198)
(0.0263493 0.204031 0.0316239)
(0.0175053 0.190847 0.0244779)
(0.00460793 0.180614 0.0153758)
(-0.00325991 0.177236 0.00750791)
(-0.00880676 0.176032 0.0042522)
(-0.00882147 0.167011 -0.00405383)
(-0.00607876 0.162814 -0.0152839)
(-0.00450784 0.161068 -0.0203558)
(-0.00267623 0.160806 -0.0214807)
(0.000474825 0.157706 -0.0102882)
(0.00222013 0.149028 0.0130477)
(0.00943615 0.135266 0.0318458)
(0.0094624 0.110745 0.0364202)
(-0.00533179 0.0862904 0.0271274)
(-0.0104062 0.0671463 0.0150774)
(0.00228013 0.0625283 0.00205316)
(0.0242705 0.0469732 0.00792058)
(0.0425683 0.033617 0.00893262)
(0.053176 0.0188926 0.0037364)
(0.0516188 0.00958776 -0.00524172)
(0.0321015 0.00139228 -0.0165747)
(0.0173356 -0.0055527 -0.0237534)
(0.00834103 -0.0172095 -0.0245871)
(0.0149636 -0.0142267 -0.0222073)
(0.0277315 -0.0237682 -0.0367785)
(0.0102767 0.023511 -0.000472777)
(0.0272571 0.0436524 0.00675985)
(0.0190805 0.0155955 0.00374019)
(0.0263161 0.0256676 0.00758865)
(0.0172672 0.00391101 0.0072348)
(0.0201158 0.0109722 0.0111377)
(0.00791076 -0.000890797 0.00760552)
(0.0084124 0.00569724 0.00685487)
(0.000674683 -0.00242339 0.00465636)
(0.000640511 0.00266422 0.00451166)
(-2.00318e-05 -0.00236792 0.00444188)
(-0.000765533 0.00015032 0.00504364)
(-0.00258145 -0.000852427 0.00505403)
(-0.00279847 0.000422181 0.00573332)
(-0.00308238 1.7746e-05 0.00630419)
(-0.00318765 0.000872166 0.00666394)
(-0.00367285 0.000885694 0.00680521)
(-0.0037863 0.00144258 0.00687568)
(-0.0040249 0.00156393 0.00680129)
(-0.00415779 0.00177726 0.00671004)
(-0.00430088 0.00185322 0.00658851)
(-0.00439444 0.00191352 0.00648359)
(-0.00444871 0.00194289 0.0063944)
(-0.00445204 0.00196879 0.00633897)
(-0.00441864 0.00199299 0.00631138)
(-0.0043699 0.00202805 0.00628748)
(-0.0043073 0.00206815 0.00626438)
(-0.00423472 0.00210708 0.00624626)
(-0.00415473 0.00214045 0.00623225)
(-0.0040644 0.00216826 0.00622265)
(-0.00396516 0.00220826 0.00621691)
(-0.0038509 0.00226786 0.00621438)
(-0.00372193 0.00237629 0.00621372)
(-0.00358256 0.00253827 0.00621444)
(-0.00342791 0.00276869 0.00621765)
(-0.00322474 0.00303565 0.00622478)
(-0.00292121 0.00332054 0.00623036)
(-0.00249637 0.00351972 0.00622461)
(-0.00197137 0.00361506 0.00619474)
(-0.00148239 0.00359836 0.00611548)
(-0.00129976 0.00369591 0.0058743)
(-0.0018599 0.00428188 0.00534979)
(-0.00359227 0.00567267 0.00440029)
(-0.00581169 0.00805011 0.00321229)
(-0.00508366 0.0113321 0.00217973)
(0.000171782 0.0161028 0.00140397)
(0.00672142 0.0178307 -0.00111956)
(0.0103298 0.0210588 -0.00318041)
(0.0153915 0.0152806 -0.00247563)
(0.017648 0.00605035 0.0078356)
(0.00913752 0.00482658 0.0197266)
(-0.0246779 -0.00425559 0.0378754)
(-0.0263841 0.0143952 0.048742)
(-0.0506372 0.068573 -0.00770843)
(-0.0442252 0.21293 -0.0563874)
(-0.0410281 0.279015 -0.0407057)
(0.00603323 0.303335 -0.0138386)
(0.01245 0.261582 0.0368507)
(-0.0181551 0.478327 0.0923162)
(-0.0151342 -0.193568 0.0154853)
(-0.0941494 0.0166753 -0.025262)
(-0.0516962 0.195855 -0.0193574)
(-0.0293481 0.201881 0.0123962)
(-0.00768291 0.223136 0.0227244)
(0.00244608 0.211275 0.0419411)
(0.00305654 0.206796 0.0511173)
(0.00217443 0.195865 0.0489393)
(0.00652001 0.191996 0.0362748)
(0.0180684 0.190423 0.0295455)
(0.0308757 0.191782 0.0361509)
(0.0366174 0.186727 0.0405966)
(0.0425157 0.181545 0.0359304)
(0.0401452 0.173204 0.0308108)
(0.0268977 0.165852 0.0205023)
(0.0140031 0.162487 0.00727074)
(0.0109317 0.156857 0.00112333)
(0.00806868 0.154029 -0.00193264)
(0.00904954 0.146803 -0.0101126)
(0.00609729 0.14755 -0.0183521)
(0.00478431 0.148627 -0.0220739)
(0.00435405 0.147605 -0.0150605)
(0.0103306 0.144106 0.00693101)
(0.0148337 0.13493 0.0151345)
(0.0244785 0.125675 0.0248103)
(0.0211546 0.113172 0.0296267)
(0.0190419 0.0925281 0.0171849)
(0.0298102 0.0802675 0.0154391)
(0.0525225 0.0674669 0.0210347)
(0.0722805 0.051804 0.0299409)
(0.0827194 0.0315088 0.0313273)
(0.0797247 0.0136389 0.0255785)
(0.0637887 -0.00237947 0.0167838)
(0.050488 -0.0152699 0.00429419)
(0.0371157 -0.0280587 -0.00202205)
(0.0320603 -0.0269453 -0.010061)
(0.0246409 -0.0250134 -0.0464527)
(-0.00401219 0.0171194 -0.0215058)
(0.0255184 0.0491488 0.00314812)
(0.0126586 0.00795496 0.00212229)
(0.022489 0.0267967 0.00458765)
(0.0107111 -0.00173177 0.00470777)
(0.0117636 0.0107326 0.00695264)
(0.00251312 0.00132764 0.00538327)
(0.0043621 0.0075074 0.00558026)
(-0.00236092 2.20765e-05 0.00266144)
(-0.001752 0.00445246 0.00183776)
(-0.00248985 -0.000755893 0.00129579)
(-0.00460711 0.00162745 0.00135792)
(-0.00654106 -0.000712167 0.00173774)
(-0.00654752 0.000396246 0.00220809)
(-0.00735857 -0.00042889 0.00293286)
(-0.00721602 0.000679553 0.00318454)
(-0.00783376 0.000539104 0.00349649)
(-0.00794335 0.00125719 0.00366944)
(-0.00829166 0.00140471 0.00376851)
(-0.00847549 0.00174746 0.00382578)
(-0.0086686 0.00190832 0.00382632)
(-0.00881241 0.00204977 0.00382275)
(-0.00892308 0.00213806 0.00381388)
(-0.00900116 0.00220651 0.00381395)
(-0.0090544 0.00225421 0.00382053)
(-0.00904899 0.00230373 0.00384078)
(-0.00899737 0.00236468 0.0038641)
(-0.0089117 0.00243523 0.00388816)
(-0.00879735 0.00250113 0.00390883)
(-0.00867119 0.00256429 0.00392603)
(-0.00854373 0.00264125 0.00393803)
(-0.00841211 0.00273496 0.00394444)
(-0.00826778 0.00286884 0.00395018)
(-0.00810131 0.00304513 0.00396334)
(-0.00788925 0.00327161 0.00399359)
(-0.0075884 0.00352099 0.00404718)
(-0.00714507 0.00379698 0.00412091)
(-0.00659556 0.00406795 0.00418773)
(-0.00610058 0.00434439 0.00420646)
(-0.00586459 0.00470742 0.00412828)
(-0.0062866 0.00531024 0.00385183)
(-0.00764249 0.00626564 0.00312559)
(-0.00945239 0.00776988 0.0017094)
(-0.0109318 0.00949433 0.000184628)
(-0.00990118 0.0115127 -0.00094496)
(-0.00448571 0.0138902 -0.00200769)
(0.00429915 0.014572 -0.0019094)
(0.0119927 0.0144183 -0.0038091)
(0.0205672 0.0138982 -0.00205907)
(0.0204323 0.00929885 0.00484621)
(0.000677282 0.00373802 0.0127414)
(-0.0360552 -0.00995799 0.0318462)
(-0.0621583 0.00140097 0.039153)
(-0.105793 0.0502103 -0.00467734)
(-0.090573 0.166764 -0.0676619)
(-0.0084748 0.279384 -0.0517476)
(0.0661212 0.325947 0.00753207)
(0.124252 0.288888 0.0451725)
(0.197352 0.565268 0.0779146)
(-0.0425759 -0.18831 0.0219619)
(-0.158456 -0.0315185 -0.0345451)
(-0.0625748 0.167599 -0.0195184)
(-0.045856 0.14499 -0.00606489)
(-0.013239 0.172514 0.00281382)
(-0.010052 0.162023 0.0126102)
(-0.0222966 0.145312 0.0230274)
(-0.0313819 0.126321 0.023003)
(-0.0241519 0.105027 0.0284558)
(-0.011595 0.0946251 0.0267907)
(-0.00300171 0.0915704 0.0233076)
(-0.000294711 0.0962063 0.0222236)
(-0.00134844 0.0983332 0.0231845)
(0.00244825 0.0904919 0.0213005)
(0.00725503 0.0844151 0.010666)
(0.0142384 0.0733674 0.0058305)
(0.0150802 0.0702523 0.00301375)
(0.0185989 0.0685167 0.00925075)
(0.0199876 0.0708989 0.0195767)
(0.0196015 0.0705984 0.0200717)
(0.00598427 0.0718607 0.00221808)
(-0.00467745 0.0731986 -0.00466521)