/*--------------------------------*- C++ -*----------------------------------*\
| =========                 |                                                 |
| \\      /  F ield         | OpenFOAM: The Open Source CFD Toolbox           |
|  \\    /   O peration     | Version:  2.3.0                                 |
|   \\  /    A nd           | Web:      www.OpenFOAM.org                      |
|    \\/     M anipulation  |                                                 |
\*---------------------------------------------------------------------------*/
FoamFile
{
    version     2.0;
    format      ascii;
    class       volVectorField;
    location    "17";
    object      U.airMean;
}
// * * * * * * * * * * * * * * * * * * * * * * * * * * * * * * * * * * * * * //

dimensions      [0 1 -1 0 0 0 0];

internalField   nonuniform List<vector> 
6144
(
(0.00770925 0.0206244 -0.000775785)
(0.00781961 0.00489142 -0.000854987)
(0.00416889 0.00249862 -0.00153782)
(0.00421662 0.000295954 -0.00158389)
(0.0028512 -0.00124958 -0.00130117)
(0.00296769 -0.000700674 -0.00119963)
(0.00261645 -0.000991357 -0.0012914)
(0.00282819 -0.000228284 -0.00136782)
(0.00279375 0.000105454 -0.00170442)
(0.00294024 0.000958839 -0.00178025)
(0.00296034 0.00143725 -0.0017538)
(0.00310608 0.00188174 -0.00160815)
(0.00319571 0.00179678 -0.0015711)
(0.0032998 0.00163593 -0.00154752)
(0.00333101 0.0013095 -0.00162266)
(0.00336327 0.00108017 -0.0016795)
(0.00337111 0.000841527 -0.00175676)
(0.00338073 0.000698337 -0.0018043)
(0.0033828 0.000563489 -0.00185063)
(0.00338554 0.000488787 -0.00187741)
(0.00338423 0.000421165 -0.00189985)
(0.00338356 0.000384481 -0.0019113)
(0.00338045 0.000352785 -0.00191917)
(0.00337747 0.000335199 -0.00192138)
(0.00337337 0.000321251 -0.001921)
(0.00336899 0.000312274 -0.00191787)
(0.0033641 0.000307062 -0.00191305)
(0.00335877 0.00029952 -0.00190622)
(0.003354 0.000302644 -0.00189781)
(0.00334648 0.000279277 -0.00188676)
(0.00334253 0.000307726 -0.00187352)
(0.00333152 0.000229034 -0.00185576)
(0.00333055 0.00031871 -0.00183284)
(0.00331478 0.000114035 -0.00180292)
(0.00331938 0.00030977 -0.00176093)
(0.00329854 -0.000129642 -0.00171012)
(0.00331178 0.000210613 -0.00164319)
(0.00329007 -0.000597875 -0.00157854)
(0.00331363 -7.88267e-05 -0.00151646)
(0.00330419 -0.00134087 -0.00150503)
(0.0033191 -0.000511888 -0.00155686)
(0.00332178 -0.00207204 -0.00171828)
(0.00333152 -0.0005068 -0.00199776)
(0.00337862 -0.0020356 -0.00231274)
(0.00341162 0.000690166 -0.00258285)
(0.00351379 -0.00114786 -0.00275969)
(0.00374774 0.00239215 -0.00321323)
(0.0032461 0.000696061 -0.00407849)
(0.00146762 0.0108181 -0.00503253)
(0.00335679 0.0121561 -0.00616415)
(0.00801947 0.0194709 -0.00703445)
(0.0132639 0.00611081 -0.00673321)
(0.019543 0.00716717 -0.00782231)
(0.0233563 -0.0277098 -0.00749293)
(0.025108 -0.0178229 -0.0106531)
(0.0249816 -0.0656129 -0.00716953)
(0.016769 -0.0216167 -0.0209716)
(0.0194784 -0.0862579 0.0123694)
(-0.0251688 0.042121 -0.0573359)
(0.0267472 0.0960061 0.0376861)
(0.0970471 0.329983 0.0456722)
(0.0433767 0.396622 0.0008523)
(0.0468507 -0.0889469 0.0103614)
(0.0432373 -0.140488 0.00859871)
(0.0345794 -0.148632 0.00752067)
(0.0282662 -0.136417 0.00638764)
(0.0224318 -0.139049 0.00454836)
(0.0177783 -0.129456 0.00279971)
(0.014774 -0.129671 0.0021105)
(0.0130661 -0.120627 0.00217655)
(0.012264 -0.120084 0.00280895)
(0.0113823 -0.113391 0.00308729)
(0.00986472 -0.10955 0.00357118)
(0.0066622 -0.100679 0.00343153)
(0.00236694 -0.0909166 0.00322817)
(8.9001e-05 -0.0772535 0.0024727)
(1.90986e-06 -0.0658713 0.000467897)
(-0.000299393 -0.054762 -0.00112592)
(-0.00159614 -0.0420662 -0.00125454)
(-0.000522344 -0.0289762 -0.00127262)
(0.00258876 -0.0187939 -0.00119397)
(0.00496664 -0.0111905 -0.00021638)
(0.00650929 -0.0080747 0.00173014)
(0.0068308 -0.00871837 0.00252714)
(0.00651891 -0.00928742 0.00183822)
(0.00635973 -0.0100661 0.000247201)
(0.00545941 -0.00887189 -0.00107117)
(0.00430169 -0.00602999 -0.00188278)
(0.00171518 -0.00178117 -0.00252005)
(-0.000504444 0.00711313 -0.00340792)
(0.00116112 0.0160413 -0.00339317)
(0.00309108 0.0235277 -0.00333484)
(0.00379436 0.0296871 5.37374e-05)
(0.00485577 0.0307269 0.00450299)
(0.00699006 0.0276019 0.00643765)
(0.0086141 0.0183788 0.00810087)
(0.0159898 0.0233307 0.00272834)
(0.0168385 0.0109512 0.00271218)
(0.00946155 0.00761398 0.000958201)
(0.0101708 0.0051133 0.00114836)
(0.00612829 0.00192097 0.00136194)
(0.00641874 0.00221575 0.00135856)
(0.0052236 0.000921135 0.00144028)
(0.00564355 0.00179872 0.00124192)
(0.00540522 0.00171508 0.00103516)
(0.00573327 0.00247513 0.000931425)
(0.00575886 0.00266868 0.000878328)
(0.00617423 0.00296784 0.00107131)
(0.0063708 0.00266285 0.00114686)
(0.00662428 0.00238809 0.00121832)
(0.00666205 0.00193376 0.00114103)
(0.00673455 0.00163533 0.00109237)
(0.00672339 0.0013231 0.0010021)
(0.00673699 0.00113966 0.000956083)
(0.00672224 0.000964439 0.000904764)
(0.00671821 0.000867049 0.000882564)
(0.00670452 0.000778257 0.00086374)
(0.00669474 0.000729832 0.000860576)
(0.0066815 0.000687392 0.000861438)
(0.00666904 0.000663809 0.000870164)
(0.00665537 0.000644502 0.00088204)
(0.0066414 0.000632154 0.000897558)
(0.00662698 0.000623746 0.000915029)
(0.00661175 0.000613802 0.000934985)
(0.00659764 0.000613269 0.000957147)
(0.00657869 0.000586916 0.000981991)
(0.0065679 0.000612165 0.00101033)
(0.00654043 0.0005218 0.00104233)
(0.0065396 0.000615049 0.00108134)
(0.00650037 0.000375868 0.00112249)
(0.00652074 0.000591726 0.00117875)
(0.00647281 7.50129e-05 0.00123458)
(0.00652873 0.000469415 0.00130864)
(0.00648573 -0.000482584 0.00136712)
(0.00658706 0.000163725 0.00142194)
(0.00656125 -0.00133457 0.0014058)
(0.0066537 -0.000267377 0.00130987)
(0.00660824 -0.00219989 0.00103733)
(0.00658433 -0.000286365 0.000595366)
(0.0064513 -0.00224872 7.90385e-05)
(0.00643638 0.00107515 -0.000407576)
(0.00652874 -0.00105728 -0.000829534)
(0.00591414 0.0037134 -0.00181462)
(0.00314078 0.00442687 -0.00287837)
(0.00188815 0.014111 -0.00256418)
(0.00763687 0.00867717 -0.00243791)
(0.0189923 0.0106078 -0.00157758)
(0.0273265 -0.0119936 -0.000117956)
(0.0408287 -0.0123173 0.00367966)
(0.0490143 -0.0517565 0.00892034)
(0.0478379 -0.0429868 0.00936541)
(0.0523974 -0.101871 0.0149319)
(0.0268732 -0.0621379 0.0073902)
(0.0202732 -0.16494 0.0352115)
(-0.0556057 0.0488136 -0.093547)
(0.0218272 0.0421129 0.0202528)
(0.102654 0.355312 0.0846446)
(0.0192901 0.431973 0.000335275)
(0.015407 -0.0473157 0.00705496)
(0.0167935 -0.00188879 0.0110744)
(0.00753086 -0.0212188 0.0099243)
(0.00307235 -0.00126439 0.00648604)
(0.00265276 -0.00516103 0.00343564)
(0.00592076 0.00419201 0.00373868)
(0.00986881 0.00137297 0.00548134)
(0.0107151 0.00531732 0.00388415)
(0.00962535 0.000365778 0.00500754)
(0.00674943 0.000211712 0.0065041)
(0.00300943 -0.00584168 0.00688252)
(-0.000985463 -0.00782239 0.00494255)
(-0.00324833 -0.0111447 0.00289199)
(-0.00209488 -0.00957781 0.00074373)
(0.000303599 -0.00802367 -0.00141215)
(-0.000770916 -0.00291052 0.000533024)
(-0.00193728 0.00071098 0.00140315)
(-0.000319645 0.00372592 0.00252427)
(0.00168208 0.00606904 0.00293373)
(0.00457576 0.00916184 0.00502691)
(0.00739 0.00744857 0.00786299)
(0.00705391 0.00373177 0.00933128)
(0.00530301 0.000442429 0.00929452)
(0.00368335 -0.00239404 0.00923668)
(0.00233811 -0.00369615 0.00881044)
(0.000825121 -0.0042886 0.00765462)
(-7.23454e-05 -0.00429887 0.0062334)
(-0.00113979 -0.00313579 0.00376524)
(-0.00115243 -0.000927064 0.00125997)
(0.000109256 0.00414315 -0.0026305)
(0.0011374 0.0140074 -0.00127402)
(0.00339671 0.0190237 0.00530138)
(0.00619065 0.019568 0.0104369)
(0.00811808 0.0141176 0.0123428)
(0.0191572 0.0229098 0.00388843)
(0.0213129 0.0135332 0.00387135)
(0.0121993 0.0095006 0.00162834)
(0.0138067 0.00840887 0.00201893)
(0.00765028 0.00399518 0.00212562)
(0.00779233 0.00422827 0.0023262)
(0.00542552 0.00199387 0.0027533)
(0.00591792 0.00292515 0.00268957)
(0.00547593 0.00253886 0.00264408)
(0.00594566 0.00325192 0.00267412)
(0.00589574 0.00308429 0.00263211)
(0.00652928 0.00332735 0.00280857)
(0.0067795 0.00286915 0.00288053)
(0.00711717 0.002611 0.00296879)
(0.00710047 0.00211901 0.00294496)
(0.0071517 0.00183533 0.00295307)
(0.00707063 0.00150478 0.00292363)
(0.00704933 0.00132388 0.00292499)
(0.00698631 0.00113903 0.00291739)
(0.00695199 0.00104082 0.00292892)
(0.00690662 0.000947393 0.00293875)
(0.00687311 0.000897148 0.00295819)
(0.00683757 0.000852741 0.00297739)
(0.00680656 0.000827763 0.00300087)
(0.00677593 0.000807271 0.00302499)
(0.00674709 0.000794243 0.00305075)
(0.00671924 0.000784498 0.00307668)
(0.00669194 0.000773944 0.00310318)
(0.00666654 0.00077151 0.00313005)
(0.00663841 0.000746828 0.00315724)
(0.00662033 0.000766673 0.00318523)
(0.00658496 0.000681696 0.00321345)
(0.0065852 0.000763625 0.00324465)
(0.00653946 0.000535878 0.00327465)
(0.00657778 0.000738872 0.00331285)
(0.00652937 0.000251231 0.00334556)
(0.00662876 0.000652755 0.00338958)
(0.00659297 -0.000221942 0.00341651)
(0.00676446 0.000501275 0.00344285)
(0.00674203 -0.000835336 0.0034194)
(0.00691203 0.000399462 0.00334696)
(0.00680373 -0.00138858 0.00317207)
(0.00672009 0.000644301 0.00289505)
(0.00641454 -0.00138535 0.00254027)
(0.0063722 0.0020265 0.00208837)
(0.00635674 0.000182159 0.00148176)
(0.00526153 0.00548407 0.000376233)
(0.00316862 0.00408709 -0.000406624)
(0.00445257 0.00988498 -0.000161235)
(0.0141587 -0.00112063 0.000127123)
(0.030558 -0.000622294 0.00238686)
(0.0441439 -0.0236849 0.0038906)
(0.056645 -0.0208144 0.010626)
(0.0660569 -0.0566742 0.0165155)
(0.0653478 -0.0422278 0.0221334)
(0.0746911 -0.106115 0.0287836)
(0.0375165 -0.0527265 0.0326438)
(0.0514652 -0.193243 0.0769289)
(-0.0594429 0.0837666 -0.0717134)
(0.0423749 0.0200196 0.00203057)
(0.142789 0.384669 0.108987)
(0.0599555 0.474055 0.0274472)
(0.049919 0.0553188 0.02405)
(0.0347606 0.132668 0.00765369)
(0.0215308 0.098326 0.00810852)
(0.0169045 0.121727 0.00842031)
(0.0174027 0.107258 0.011044)
(0.015815 0.109213 0.00957871)
(0.0187638 0.10039 0.00802775)
(0.0193737 0.0894577 0.00747418)
(0.0173963 0.0651242 0.00753921)
(0.0128424 0.0488217 0.008408)
(0.00874448 0.0354196 0.0082102)
(0.00454858 0.0314023 0.00646714)
(0.001375 0.0267228 0.00411776)
(0.000252532 0.0268287 0.00118959)
(-0.00104291 0.0271588 0.00155372)
(-0.00172452 0.0276374 0.00343459)
(-0.00193324 0.0255629 0.00420015)
(-0.00132869 0.0231235 0.00511672)
(0.000738463 0.0213436 0.00637334)
(0.00339384 0.0196356 0.0092531)
(0.00548359 0.0153425 0.0135976)
(0.00358055 0.00992211 0.0156186)
(-0.000398372 0.00458197 0.0158886)
(-0.00376485 0.000515321 0.0154315)
(-0.00486716 -0.000207332 0.0136165)
(-0.00561825 -0.000870388 0.0115661)
(-0.00562676 -0.00056762 0.00953943)
(-0.00497627 -5.24866e-06 0.00718216)
(-0.00386699 0.00170036 0.00489158)
(-0.00473572 0.00377551 0.00283718)
(-0.00393048 0.00890037 0.00330419)
(-0.000373063 0.0129135 0.00752596)
(0.00274106 0.0135173 0.0129879)
(0.00186684 0.0103005 0.0147619)
(0.0201922 0.0224106 0.00440019)
(0.0244943 0.0153136 0.00462046)
(0.0133225 0.00992062 0.00135957)
(0.0167292 0.0109465 0.00164169)
(0.00942202 0.00541049 0.0013094)
(0.00988914 0.00639027 0.00167313)
(0.0057473 0.00241075 0.00238984)
(0.00586577 0.00346865 0.00249353)
(0.00487281 0.00255069 0.00267184)
(0.0055681 0.00359188 0.00285248)
(0.00540887 0.0031552 0.00289751)
(0.00612386 0.00346526 0.00321167)
(0.00628909 0.00292448 0.00338863)
(0.00662425 0.00278673 0.00354158)
(0.00653643 0.00228988 0.00355882)
(0.00657069 0.00206556 0.00359093)
(0.00644497 0.00171752 0.00358533)
(0.00640485 0.00154895 0.00360521)
(0.00631052 0.00134861 0.00361593)
(0.00625821 0.00124985 0.00364174)
(0.0061917 0.00114778 0.00366373)
(0.00614404 0.00109544 0.00369292)
(0.00609476 0.00104702 0.00372015)
(0.00605302 0.00102043 0.0037498)
(0.00601238 0.000998202 0.00377801)
(0.00597411 0.000984729 0.00380619)
(0.0059372 0.000973895 0.00383358)
(0.00590147 0.000963375 0.00386023)
(0.00586794 0.000957974 0.00388591)
(0.00583431 0.000934787 0.00391078)
(0.00581141 0.00094768 0.00393508)
(0.00577445 0.000869176 0.00395913)
(0.00577764 0.00093934 0.00398388)
(0.00573488 0.000727378 0.00400654)
(0.00578822 0.000921205 0.00403145)
(0.0057403 0.000471707 0.00404871)
(0.00586405 0.000893668 0.00406731)
(0.00580915 0.000111775 0.00406409)
(0.00600176 0.000939169 0.00404955)
(0.00594287 -0.000221445 0.00399977)
(0.00617 0.00121842 0.00392665)
(0.00604637 -0.000421 0.00382532)
(0.00604443 0.00170972 0.00368475)
(0.00547619 -0.000567968 0.00353951)
(0.00495639 0.00273978 0.00338955)
(0.00465398 0.000743344 0.00316744)
(0.00451133 0.00563529 0.00262727)
(0.00366256 0.00231545 0.00226991)
(0.00825476 0.00512754 0.00255278)
(0.0196077 -0.0083654 0.00233524)
(0.0376168 -0.00844711 0.00572036)
(0.0529834 -0.0255368 0.0104986)
(0.0631933 -0.016181 0.022629)
(0.0719205 -0.0467862 0.0319366)
(0.0704282 -0.0169478 0.0463506)
(0.0829245 -0.0907148 0.0530921)
(0.0447425 0.0120197 0.0916711)
(0.0781603 -0.21605 0.132138)
(-0.0773412 0.199677 -0.0364642)
(0.0391523 -0.035228 0.0271302)
(0.120561 0.449811 0.116675)
(0.0343278 0.571191 0.0204242)
(0.0161815 0.409404 0.0157595)
(-0.00172903 0.467551 -0.00194051)
(0.000522662 0.427264 0.00637017)
(-0.00244807 0.421386 0.00457395)
(0.00158546 0.392748 0.00546768)
(0.00377601 0.373299 0.00547566)
(0.00775389 0.354226 0.00514187)
(0.00970546 0.341188 0.00513226)
(0.00993526 0.310467 0.00554911)
(0.00807274 0.283718 0.00444158)
(0.00580689 0.247297 0.00357701)
(0.00283784 0.210062 0.00199537)
(0.00187553 0.175439 0.00138234)
(0.00126051 0.153964 0.000797879)
(0.000945356 0.142419 0.00176414)
(0.000726201 0.125527 0.00393989)
(0.000943162 0.0991122 0.00618578)
(0.000499318 0.0707012 0.00840421)
(7.53755e-05 0.0533023 0.0106246)
(8.7642e-06 0.0440189 0.0134083)
(0.00024495 0.0350482 0.0172408)
(-0.00226237 0.0254984 0.0176244)
(-0.00760969 0.019482 0.0165829)
(-0.0129004 0.0147658 0.0162927)
(-0.0148667 0.0131301 0.0142099)
(-0.0144022 0.01155 0.0114713)
(-0.0129818 0.0101287 0.00888254)
(-0.010804 0.0105732 0.00577555)
(-0.00967559 0.012586 0.00509326)
(-0.00969178 0.0125607 0.00508737)
(-0.00939075 0.0139285 0.0062698)
(-0.00636633 0.0136709 0.0108374)
(-0.00613549 0.0126131 0.0143817)
(-0.00851226 0.0103716 0.0151408)
(0.0195248 0.0218991 0.00512303)
(0.0265508 0.0172557 0.0057887)
(0.0135445 0.00953504 0.00121505)
(0.0188283 0.0127291 0.00186123)
(0.0108769 0.00540827 0.000417785)
(0.012368 0.00778422 0.000691236)
(0.00687514 0.00269204 0.00111474)
(0.00619562 0.00402626 0.00158909)
(0.00398614 0.00192526 0.00198496)
(0.00447884 0.00314088 0.0023846)
(0.0042047 0.00246192 0.00257848)
(0.00490748 0.00303787 0.00315029)
(0.00485961 0.00256829 0.00346555)
(0.00512076 0.00265157 0.00372203)
(0.0049025 0.00222096 0.0037773)
(0.0048745 0.00211838 0.00384199)
(0.00465909 0.00179188 0.00384062)
(0.00456418 0.00166614 0.00386422)
(0.00441365 0.0014641 0.00387148)
(0.00432184 0.00137828 0.00389346)
(0.00422056 0.00127318 0.00390916)
(0.00414678 0.00122349 0.00393203)
(0.00407584 0.00117357 0.00395054)
(0.00401749 0.00114749 0.00397097)
(0.0039645 0.00112445 0.00398907)
(0.00391748 0.00110972 0.00400714)
(0.00387431 0.00109813 0.00402357)
(0.00383536 0.00108838 0.00403901)
(0.00380043 0.00108204 0.00405338)
(0.00376819 0.00106343 0.00406567)
(0.00374723 0.00107416 0.00407607)
(0.00371703 0.00100836 0.00408429)
(0.00372551 0.00107293 0.00409193)
(0.00369231 0.000887679 0.00409408)
(0.00375991 0.0010797 0.00409806)
(0.00372455 0.000686404 0.00408806)
(0.00387296 0.00113126 0.00407579)
(0.0038155 0.000452496 0.00402889)
(0.0040348 0.0013372 0.00397667)
(0.00394898 0.000314724 0.00389497)
(0.00423623 0.00184054 0.00383492)
(0.0041362 0.000339645 0.00380072)
(0.00431707 0.00251309 0.00376071)
(0.00372492 9.54497e-05 0.00366654)
(0.00308717 0.00309295 0.0035588)
(0.0025586 0.000347056 0.00362339)
(0.00262662 0.00431986 0.0038273)
(0.0033701 -0.000290653 0.00415772)
(0.0103019 0.000379464 0.00434094)
(0.0235186 -0.0122568 0.00511039)
(0.0406078 -0.00830986 0.00963696)
(0.0532775 -0.0163 0.0173437)
(0.0605794 -0.000506038 0.0298641)
(0.0648533 -0.0257021 0.038481)
(0.0599977 0.0165536 0.0617021)
(0.0671031 -0.0534909 0.0685231)
(0.0454026 0.0887813 0.11214)
(0.0735856 -0.160487 0.13122)
(-0.0547974 0.328388 -0.00339079)
(0.0312765 -0.0724785 0.03555)
(0.101956 0.489746 0.124577)
(0.0238699 0.608964 0.0181044)
(0.0116182 0.534044 0.0141324)
(-0.00183625 0.602079 -0.00366348)
(0.00445417 0.592164 0.00552671)
(0.00125348 0.611983 0.00731912)
(0.00643572 0.607383 0.00851127)
(0.00851336 0.613171 0.0072471)
(0.0128633 0.605088 0.00635455)
(0.015174 0.599828 0.00498792)
(0.016624 0.585228 0.00421394)
(0.0160941 0.573988 0.00291926)
(0.0152988 0.560938 0.00242489)
(0.0130903 0.545239 0.00180395)
(0.0117305 0.524699 0.00211324)
(0.0095295 0.4953 0.00334764)
(0.00855622 0.469284 0.00578546)
(0.00664777 0.443767 0.00859738)
(0.00502261 0.414953 0.0121517)
(0.0029684 0.387216 0.0146395)
(0.00018863 0.366739 0.016763)
(-0.00296364 0.330603 0.0188174)
(-0.00550948 0.269242 0.0193462)
(-0.00977043 0.215637 0.0169838)
(-0.0135691 0.171352 0.0133706)
(-0.0173335 0.148706 0.00907002)
(-0.017024 0.122311 0.0068151)
(-0.0162001 0.0958173 0.00434515)
(-0.0150998 0.0709336 0.00168153)
(-0.0145641 0.0545693 0.0021733)
(-0.0144834 0.0370246 0.00521204)
(-0.014364 0.0233247 0.00671814)
(-0.0139199 0.0200649 0.00907897)
(-0.0120802 0.0148884 0.0132264)
(-0.0137836 0.0142249 0.0160644)
(-0.0196504 0.0101605 0.0146024)
(0.0172337 0.0211149 0.00597419)
(0.0277564 0.0199296 0.00706053)
(0.0125735 0.00869561 0.00174204)
(0.0195772 0.0141682 0.0031957)
(0.0115306 0.00414015 0.000961553)
(0.0138606 0.00831013 0.000657585)
(0.00814927 0.00237062 0.000161732)
(0.00704894 0.00464373 0.000657018)
(0.00388594 0.00140684 0.00120511)
(0.00364432 0.00265432 0.00180856)
(0.00287654 0.00134091 0.00212605)
(0.00339569 0.00207558 0.00292161)
(0.00329311 0.00169084 0.00342663)
(0.0035917 0.00215538 0.0038442)
(0.00332966 0.00185008 0.00398282)
(0.00328846 0.00195555 0.00410885)
(0.00304562 0.00170402 0.00413355)
(0.00294146 0.00168112 0.0041634)
(0.00277976 0.00151573 0.00415988)
(0.00268599 0.00147577 0.00416364)
(0.00258802 0.00138989 0.00415701)
(0.00252221 0.00136193 0.0041563)
(0.00246263 0.0013242 0.00415037)
(0.00241744 0.00130962 0.00414682)
(0.00237965 0.0012955 0.00414173)
(0.00234815 0.00128868 0.00413711)
(0.00232118 0.00128413 0.00413156)
(0.00229881 0.00128086 0.00412569)
(0.00227943 0.00128043 0.00411839)
(0.00226483 0.00127113 0.00411135)
(0.00226244 0.00128565 0.00410569)
(0.00225859 0.0012397 0.00409883)
(0.00229263 0.0013094 0.00409646)
(0.00229529 0.00116943 0.00408803)
(0.00239002 0.0013811 0.00408181)
(0.00239163 0.00107386 0.00406009)
(0.0025606 0.00155459 0.00403393)
(0.00252329 0.000995427 0.00397151)
(0.00273301 0.00190582 0.0038931)
(0.00261029 0.000988632 0.0037723)
(0.00282982 0.00248968 0.00365047)
(0.00264567 0.00105226 0.00353768)
(0.00287749 0.00317453 0.0034471)
(0.00227586 0.000640614 0.00330213)
(0.00169069 0.00327596 0.00310569)
(0.00105998 -0.000159934 0.00317906)
(0.00166855 0.003166 0.00385067)
(0.00318768 -0.00333167 0.00534349)
(0.0109561 -0.0035657 0.00595267)
(0.022934 -0.0127456 0.00843464)
(0.0367665 -0.00275487 0.0152135)
(0.0444226 -0.00249813 0.0239071)
(0.0510609 0.0176944 0.03707)
(0.0514971 0.00138004 0.0477371)
(0.0422061 0.0420846 0.0717408)
(0.0393594 -0.0341021 0.0753884)
(0.0333893 0.0895108 0.0919731)
(0.0481097 -0.146335 0.0883796)
(0.0186044 0.359699 0.0452222)
(0.0202558 -0.0799725 0.0376859)
(0.0453248 0.525728 0.114523)
(-0.00147632 0.639184 0.00607126)
(-0.00787387 0.588683 0.00935587)
(-0.0182342 0.649832 -0.0016468)
(-0.0110455 0.644534 0.00884539)
(-0.00778196 0.661976 0.00940598)
(0.000110497 0.657854 0.0107964)
(0.00663041 0.66469 0.00949644)
(0.0134293 0.660977 0.00946156)
(0.0188999 0.66083 0.00812125)
(0.0230084 0.648683 0.0074756)
(0.0246433 0.640736 0.00685348)
(0.0254652 0.635416 0.00656369)
(0.0238113 0.631225 0.00696157)
(0.0221235 0.623314 0.00823949)
(0.0192273 0.619865 0.00964073)
(0.0162996 0.612071 0.011453)
(0.012222 0.60382 0.0131918)
(0.0076145 0.593366 0.0154434)
(0.0026715 0.578809 0.0167408)
(-0.00236064 0.565934 0.0164815)
(-0.00741487 0.54849 0.0153087)
(-0.0112118 0.527253 0.0125189)
(-0.0143511 0.500669 0.00677613)
(-0.0168963 0.466001 0.00236424)
(-0.0173172 0.42676 -0.000479824)
(-0.0161554 0.378311 -0.00126379)
(-0.0149557 0.322426 -0.000972027)
(-0.0149581 0.278569 0.00122478)
(-0.0156904 0.249692 0.00441586)
(-0.0164371 0.221966 0.00724383)
(-0.017417 0.203491 0.0102194)
(-0.0188746 0.183053 0.0139438)
(-0.020109 0.146767 0.015934)
(-0.0243359 0.0859577 0.0155433)
(-0.0270829 0.0466756 0.00965038)
(0.0124288 0.0191582 0.00541922)
(0.027648 0.023596 0.00839191)
(0.00928757 0.00719811 0.00287652)
(0.0183264 0.0160289 0.00545393)
(0.00965719 0.00283003 0.00282895)
(0.0128437 0.00838258 0.00237321)
(0.00752549 0.00127724 0.00116177)
(0.00704465 0.00474592 0.000924722)
(0.00329225 0.000900491 0.0012713)
(0.00250194 0.00238789 0.00199087)
(0.00106748 0.000456812 0.00221545)
(0.000990357 0.00124786 0.00293933)
(0.000352591 0.000785785 0.00340005)
(0.00053259 0.00155687 0.00389707)
(0.000159153 0.00133482 0.00409833)
(9.53147e-05 0.00166326 0.00426943)
(-0.000225166 0.00151077 0.00429954)
(-0.000369326 0.0016353 0.00432688)
(-0.000590998 0.00154189 0.0043058)
(-0.000718493 0.0015836 0.00429512)
(-0.000845021 0.00153934 0.00426724)
(-0.000926262 0.00155169 0.00424712)
(-0.000992544 0.00153722 0.00422224)
(-0.00103637 0.00154112 0.00420335)
(-0.00106762 0.00153907 0.00418474)
(-0.00108716 0.00154164 0.00416954)
(-0.00109807 0.00154377 0.00415526)
(-0.00110009 0.00154661 0.00414277)
(-0.00109502 0.00155173 0.00413159)
(-0.00108167 0.00155039 0.00412329)
(-0.00106018 0.00157119 0.00411906)
(-0.00103609 0.00154688 0.00411649)
(-0.000984867 0.00162694 0.00412079)
(-0.000960879 0.00153248 0.00412285)
(-0.00085592 0.0017579 0.00413746)
(-0.000838003 0.00151901 0.00414283)
(-0.000656205 0.00200537 0.00416275)
(-0.000665444 0.00151068 0.0041481)
(-0.000413237 0.00237208 0.00412416)
(-0.000489863 0.00145104 0.00400898)
(-0.000171865 0.00279247 0.00385745)
(-0.00026889 0.00122911 0.00358763)
(0.000222272 0.00318759 0.00337467)
(-9.16666e-05 0.000588336 0.0030769)
(-0.000327508 0.00299673 0.00285781)
(-0.00100292 -0.000682283 0.0028816)
(0.000190522 0.00211085 0.00377671)
(0.0024313 -0.00603844 0.0058405)
(0.00850745 -0.00701853 0.00728481)
(0.0185128 -0.0108412 0.0114256)
(0.0249256 0.00811189 0.0201947)
(0.026414 0.0172434 0.0292669)
(0.0269942 0.0442998 0.0414897)
(0.0241334 0.0383104 0.0532055)
(0.0270801 0.0731944 0.0711419)
(0.0218835 -0.00953944 0.0715417)
(0.0317875 0.103979 0.087353)
(0.0210979 -0.152835 0.0762469)
(-0.0018187 0.335846 0.0524661)
(0.00554528 -0.0678693 0.0396517)
(-0.00410936 0.535674 0.101502)
(-0.0253858 0.645415 0.00233982)
(-0.0274442 0.60464 0.00427801)
(-0.0272565 0.662962 -0.00105959)
(-0.0181038 0.647513 0.0106604)
(-0.00893254 0.661074 0.00964654)
(-0.000453269 0.65451 0.0106441)
(0.0079265 0.659114 0.00940847)
(0.0137964 0.655499 0.0106046)
(0.0193564 0.654736 0.0105754)
(0.023613 0.651844 0.0112154)
(0.0267268 0.643617 0.0118369)
(0.0282073 0.64365 0.0131244)
(0.0274904 0.640869 0.0137557)
(0.0257947 0.636612 0.0153745)
(0.0226245 0.626547 0.0158962)
(0.0190852 0.613598 0.0171195)
(0.0144835 0.600779 0.0177215)
(0.0102093 0.595483 0.0185061)
(0.00585771 0.591382 0.0186812)
(0.00229076 0.585678 0.0170154)
(-0.00133633 0.583543 0.0130871)
(-0.00384589 0.592322 0.00693673)
(-0.00664084 0.589341 -0.000115553)
(-0.00901024 0.577217 -0.00567363)
(-0.0111128 0.554741 -0.00954083)
(-0.0129954 0.535846 -0.0106123)
(-0.0146142 0.515157 -0.00993156)
(-0.0156636 0.476231 -0.00736991)
(-0.0170232 0.462426 -0.00447897)
(-0.0188276 0.45423 -0.00277743)
(-0.0211766 0.438607 -0.000236288)
(-0.0236124 0.407138 0.00237396)
(-0.0268027 0.345707 0.00463801)
(-0.0313459 0.247372 0.00547446)
(-0.0346304 0.165503 0.000705843)
(0.00661135 0.0130839 0.00330533)
(0.026328 0.0274186 0.00867916)
(0.0045918 0.00538422 0.00357528)
(0.0150581 0.0185943 0.00725803)
(0.00654688 0.00211559 0.00479633)
(0.0103939 0.00926437 0.00456041)
(0.00505915 0.000199122 0.00318594)
(0.00559672 0.00476653 0.002318)
(0.00207328 0.000222801 0.00228473)
(0.00108421 0.00223218 0.00293867)
(-0.000751342 -0.000214972 0.00320856)
(-0.000916315 0.000755584 0.00383897)
(-0.00162151 2.45469e-05 0.00430151)
(-0.00131355 0.000906339 0.00485904)
(-0.00165895 0.000680119 0.00515819)
(-0.00168039 0.00123289 0.00538374)
(-0.00199095 0.00118957 0.00545934)
(-0.00206218 0.00150289 0.00552612)
(-0.0022267 0.00151182 0.00553083)
(-0.00228095 0.00166189 0.00554634)
(-0.00234391 0.00168085 0.00554465)
(-0.00235924 0.00174879 0.00555653)
(-0.00236534 0.00177011 0.00556498)
(-0.00234945 0.00180317 0.00558331)
(-0.00232451 0.00182422 0.00560251)
(-0.00229112 0.00184696 0.00562531)
(-0.00225303 0.00186731 0.00564846)
(-0.00221106 0.00188643 0.00567208)
(-0.00216803 0.00190474 0.00569498)
(-0.0021196 0.00191579 0.0057203)
(-0.0020662 0.00194355 0.00574837)
(-0.00200942 0.00193689 0.00578006)
(-0.0019258 0.00202213 0.00582077)
(-0.00186445 0.00196555 0.00586291)
(-0.00172142 0.00219913 0.00592129)
(-0.00166116 0.0020319 0.00597203)
(-0.00143253 0.00253818 0.00603431)
(-0.00139532 0.00214983 0.00605033)
(-0.00107191 0.00301843 0.00603893)
(-0.00108865 0.00219297 0.00589141)
(-0.000714454 0.00347078 0.00563531)
(-0.000886762 0.00189443 0.00514629)
(-0.000515549 0.00359704 0.00464291)
(-0.000957478 0.000835429 0.00413838)
(-0.0013629 0.0027826 0.00394232)
(-0.00209613 -0.00159281 0.00413105)
(5.22245e-05 -0.000619378 0.00504501)
(0.00331721 -0.00981186 0.00635239)
(0.0058253 -0.006318 0.00923557)
(0.00299004 0.000883033 0.019516)
(-0.00127403 0.0281237 0.0285438)
(-0.0040472 0.0435781 0.0346447)
(0.000393509 0.0720723 0.0431061)
(0.00732563 0.077584 0.0534542)
(0.0203029 0.104786 0.0722173)
(0.0289929 0.0621352 0.0800084)
(0.0636304 0.142791 0.108041)
(0.0328085 -0.106136 0.0966181)
(0.0100581 0.345046 0.0241482)
(-0.0154972 -0.0665089 0.0312667)
(-0.0682768 0.565005 0.0649767)
(-0.0524906 0.670444 -0.0112417)
(-0.0486822 0.613023 0.00186414)
(-0.0353245 0.65937 -0.00140385)
(-0.0234503 0.636758 0.00924754)
(-0.00721313 0.645617 0.00676198)
(-0.000779881 0.636885 0.00770299)
(0.00806551 0.637705 0.00666908)
(0.0138505 0.640287 0.00877524)
(0.0202801 0.641314 0.0110961)
(0.02457 0.640487 0.0129794)
(0.0282107 0.643457 0.0148281)
(0.0310759 0.642975 0.0168328)
(0.0324068 0.637152 0.0185534)
(0.032549 0.626766 0.0209455)
(0.0310168 0.620124 0.0224075)
(0.0284871 0.608746 0.023434)
(0.0248925 0.594719 0.0237739)
(0.02049 0.578329 0.0231032)
(0.0160702 0.563722 0.0213973)
(0.012042 0.557576 0.0181409)
(0.00862428 0.552035 0.0137232)
(0.00581305 0.547951 0.00919908)
(0.00408239 0.543744 0.00539159)
(0.00247538 0.533654 0.00327641)
(-0.000678342 0.511293 0.000736402)
(-0.00325309 0.488581 -0.000797356)
(-0.00588138 0.465649 -0.000952717)
(-0.00832763 0.44925 0.000293399)
(-0.00974905 0.430646 0.00186136)
(-0.012209 0.410317 0.00261887)
(-0.016155 0.400807 0.00342899)
(-0.0219094 0.400201 0.0011024)
(-0.0290362 0.405887 -0.00500273)
(-0.035285 0.406763 -0.0176296)
(-0.0397796 0.404999 -0.0375534)
(-0.0044599 0.00927232 -0.00660319)
(0.0241771 0.0308211 0.00641274)
(-0.00202398 0.00422518 0.000644246)
(0.0104472 0.0218436 0.00503469)
(0.00159408 0.0024062 0.00321282)
(0.00600024 0.0113223 0.00325805)
(0.00134302 0.000705609 0.00189996)
(0.00279315 0.00600202 0.000624084)
(-0.000158147 0.000481998 0.000132791)
(-0.00132027 0.00264083 0.000219713)
(-0.00360153 -0.000320224 0.000369967)
(-0.00422589 0.00081538 0.000768724)
(-0.0053558 -0.000302664 0.00113216)
(-0.00525836 0.000591706 0.00163239)
(-0.00577456 0.000351917 0.00199218)
(-0.00582696 0.00106309 0.00225181)
(-0.00619297 0.00107761 0.00240056)
(-0.00629701 0.00149669 0.00251984)
(-0.00650074 0.00155396 0.00258258)
(-0.00658647 0.00175782 0.002643)
(-0.00668227 0.00180691 0.00268179)
(-0.00673135 0.0018999 0.00272526)
(-0.006769 0.00193764 0.00276155)
(-0.00678669 0.00198164 0.00280362)
(-0.0067927 0.00200984 0.00284526)
(-0.00678601 0.00203669 0.00288974)
(-0.00676706 0.00205933 0.0029353)
(-0.00673475 0.00208047 0.00298254)
(-0.00668964 0.00210149 0.00303058)
(-0.00663591 0.00211721 0.00307928)
(-0.00658211 0.00214588 0.00312751)
(-0.0065251 0.00214734 0.00317788)
(-0.00645505 0.00222727 0.00323091)
(-0.00640967 0.00218979 0.00328828)
(-0.00631039 0.00241695 0.00335136)
(-0.006299 0.00230097 0.00341836)
(-0.00612756 0.00282495 0.003473)
(-0.00611731 0.00255383 0.00349757)
(-0.00583267 0.00350424 0.00343841)
(-0.00583914 0.00289736 0.00325046)
(-0.00540056 0.00426701 0.00287789)
(-0.00531539 0.00282539 0.00233815)
(-0.00446234 0.00419064 0.00181884)
(-0.00435557 0.00109592 0.00155016)
(-0.003955 0.0021396 0.0013506)
(-0.00321254 -0.00281405 0.00133459)
(0.000152554 -0.0015738 0.00261972)
(0.000374168 -0.00681153 0.00181482)
(-0.00839854 0.00563089 0.00467375)
(-0.021046 0.0129308 0.016353)
(-0.0303035 0.0309123 0.0258901)
(-0.0312399 0.0374161 0.0328562)
(-0.0280404 0.0599045 0.0347264)
(-0.0193256 0.0599776 0.0376527)
(-0.00941789 0.0988332 0.0543589)
(0.0111674 0.0385338 0.0561583)
(0.0729725 0.131639 0.0781003)
(0.0559915 -0.0643739 0.0896002)
(0.0742512 0.35373 0.0159617)
(-0.0396543 -0.0866063 0.0232675)
(-0.116188 0.534104 0.0518836)
(-0.0608005 0.659621 -0.00541669)
(-0.0529232 0.584577 0.0067808)
(-0.0279408 0.632724 0.00546067)
(-0.0203527 0.592303 0.0133706)
(-0.0063943 0.602371 0.0090151)
(-0.00300261 0.589286 0.00800675)
(0.0029659 0.594374 0.00545773)
(0.00678123 0.592494 0.00471356)
(0.0117711 0.594089 0.00446205)
(0.0139883 0.591344 0.00349502)
(0.0162539 0.595481 0.00344668)
(0.0175309 0.599029 0.00391048)
(0.020581 0.609389 0.00577285)
(0.0236684 0.616041 0.0076044)
(0.0256707 0.619781 0.00983398)
(0.025018 0.617617 0.00978225)
(0.0234572 0.617184 0.00925021)
(0.0212052 0.611618 0.00858706)
(0.0185761 0.605737 0.00652668)