/*--------------------------------*- C++ -*----------------------------------*\
| =========                 |                                                 |
| \\      /  F ield         | OpenFOAM: The Open Source CFD Toolbox           |
|  \\    /   O peration     | Version:  2.3.0                                 |
|   \\  /    A nd           | Web:      www.OpenFOAM.org                      |
|    \\/     M anipulation  |                                                 |
\*---------------------------------------------------------------------------*/
FoamFile
{
    version     2.0;
    format      ascii;
    class       volVectorField;
    location    "17";
    object      U.air;
}
// * * * * * * * * * * * * * * * * * * * * * * * * * * * * * * * * * * * * * //

dimensions      [0 1 -1 0 0 0 0];

internalField   nonuniform List<vector> 
6144
(
(0.011806 0.0248634 -0.00219862)
(0.0118915 0.000256229 -0.00255189)
(0.00491064 -0.00240567 -0.00287032)
(0.00416475 -0.00668693 -0.0023287)
(0.00170221 -0.00902608 -0.000985199)
(0.00154099 -0.00839672 -0.000516446)
(0.000672277 -0.00789899 -0.0005993)
(0.00106888 -0.00503446 -0.00097348)
(0.00117578 -0.00224783 -0.00162057)
(0.00144161 0.00110221 -0.00122661)
(0.0016182 0.00320277 -0.000498528)
(0.00191716 0.00443959 0.000233862)
(0.00220904 0.00427015 0.000546368)
(0.00241835 0.00359348 0.000677116)
(0.00248762 0.00267476 0.000514256)
(0.00251812 0.00194863 0.000353084)
(0.00252251 0.00134068 0.000176052)
(0.00252495 0.000924667 5.68515e-05)
(0.00252356 0.000602937 -3.60811e-05)
(0.00251882 0.00039108 -9.23087e-05)
(0.0025118 0.000231557 -0.000126674)
(0.0025008 0.000123009 -0.000140853)
(0.0024902 4.66917e-05 -0.000142322)
(0.00247788 -1.56078e-05 -0.000133991)
(0.00246429 -5.78272e-05 -0.000121566)
(0.00245038 -9.46217e-05 -0.00010549)
(0.00243549 -0.000115197 -8.73601e-05)
(0.00242386 -0.000134838 -6.65607e-05)
(0.00241336 -0.00015124 -4.53639e-05)
(0.00240124 -0.000170136 -2.5963e-05)
(0.00239114 -0.00017438 -6.25054e-06)
(0.00238166 -0.000210712 1.0024e-05)
(0.00237494 -0.000171747 3.06225e-05)
(0.00236664 -0.000285915 3.72516e-05)
(0.00236309 -0.000115373 6.92529e-05)
(0.00235883 -0.00045213 6.02617e-05)
(0.00235077 1.82232e-05 0.00011655)
(0.0023676 -0.000779492 9.0727e-05)
(0.00233152 0.000231924 0.000177821)
(0.00238296 -0.00133006 0.000159844)
(0.0022925 0.000484474 0.000284361)
(0.00243349 -0.00223701 0.000328741)
(0.0022661 0.000586072 0.000448874)
(0.00258253 -0.00390569 0.000561933)
(0.00225032 0.000478121 0.000489798)
(0.00266605 -0.00670253 0.000545456)
(0.002116 0.00115418 -0.000174229)
(0.00220438 -0.00941103 0.000163771)
(0.00217012 0.00501005 -0.000956444)
(0.00149674 -0.010847 -0.000704474)
(0.00552737 0.0108922 -0.00157723)
(-0.000119556 -0.0183544 -0.00215253)
(0.00963838 0.0247431 -0.00188865)
(0.00784742 -0.0329918 -0.00572491)
(0.0005897 0.0425137 -0.00870618)
(0.00093087 -0.0384686 -0.0137917)
(0.0232314 0.0826154 -0.0160785)
(-0.00523313 -0.0543709 -0.0302006)
(-0.0503923 0.174264 -0.0579021)
(0.0466652 0.0134692 -0.126255)
(0.0882534 0.328911 0.000610063)
(0.0320587 0.424676 0.00408099)
(-0.0360524 0.179004 0.0249614)
(0.0275752 -0.0989456 0.00739219)
(0.0218609 -0.122207 0.00805994)
(0.012921 -0.128389 0.00989321)
(0.00742437 -0.134108 0.0107064)
(0.00406552 -0.138131 0.0101937)
(0.00169492 -0.140735 0.00907425)
(4.96956e-05 -0.141975 0.00778328)
(-0.000992895 -0.142109 0.00659212)
(-0.00148559 -0.141438 0.00555057)
(-0.00157751 -0.140449 0.00474792)
(-0.00133334 -0.13958 0.00407861)
(-0.000815071 -0.139234 0.00358239)
(-0.000373534 -0.139565 0.00301799)
(0.000108351 -0.140478 0.00266697)
(0.000430975 -0.142164 0.00222596)
(0.00049144 -0.144014 0.00166791)
(0.0006793 -0.145811 0.00146794)
(0.000548551 -0.147692 0.00100196)
(-0.00031956 -0.148079 0.000463129)
(-0.000692733 -0.147241 2.0374e-05)
(-0.00131274 -0.144897 0.000490424)
(-0.00270485 -0.140769 -0.00119113)
(-0.00383962 -0.132113 -0.000205617)
(-0.00701569 -0.122626 -0.002889)
(-0.00754661 -0.103233 -0.0027909)
(-0.0134851 -0.0855978 -0.00595282)
(-0.0140315 -0.0524988 -0.0141563)
(-0.0091159 -0.00765327 -0.00781154)
(-0.00319987 0.0165389 -0.00849574)
(-0.000923667 0.0389953 -0.00879306)
(-0.00137413 0.0477275 -0.00101223)
(-0.00119143 0.0371441 0.0147958)
(0.00115652 0.0227125 0.023937)
(0.0244642 0.0344874 0.00129725)
(0.023481 0.02055 0.00123652)
(0.0135797 0.016436 -0.00067328)
(0.0129244 0.00857757 0.00152133)
(0.00531637 0.000479317 0.00250532)
(0.00412726 -0.00182061 0.00305211)
(0.00128534 -0.00473141 0.0029485)
(0.00161754 -0.00178826 0.00164155)
(0.00142161 0.000425874 0.0011968)
(0.00191691 0.00376152 0.00152715)
(0.00244158 0.00535449 0.00230098)
(0.00337797 0.00618597 0.00326477)
(0.00407023 0.00543889 0.00378354)
(0.00446501 0.00457927 0.00405972)
(0.00455612 0.00346763 0.00398685)
(0.00458807 0.00262784 0.00386551)
(0.00456298 0.00190556 0.00371931)
(0.00453866 0.0014147 0.00362015)
(0.00450642 0.00102885 0.00354669)
(0.00447285 0.000778769 0.00351002)
(0.00443947 0.000586245 0.00349887)
(0.00440257 0.000459964 0.00351028)
(0.00436874 0.000369269 0.00353489)
(0.00433394 0.000299393 0.00356997)
(0.00429851 0.000255523 0.00360774)
(0.00426254 0.000218693 0.00365049)
(0.00422491 0.000203285 0.00369581)
(0.00419356 0.00018121 0.00374322)
(0.0041633 0.000170867 0.00379044)
(0.00413181 0.000156671 0.00383473)
(0.00410777 0.000156016 0.00387834)
(0.00407688 0.000120287 0.0039164)
(0.00406801 0.00016852 0.003962)
(0.00402344 4.80141e-05 0.00398)
(0.00405249 0.000248233 0.00405506)
(0.00397286 -0.000132599 0.0040296)
(0.00405781 0.000429293 0.00416549)
(0.0039365 -0.000498314 0.00407064)
(0.00404928 0.00071324 0.00428606)
(0.00395503 -0.00115013 0.00415937)
(0.00400539 0.0010582 0.00443386)
(0.00413253 -0.00224703 0.00439498)
(0.00403087 0.00132398 0.00450454)
(0.00447251 -0.00418248 0.00473086)
(0.00418517 0.00136518 0.00437568)
(0.00492287 -0.00727913 0.00458546)
(0.00407534 0.00181804 0.00351801)
(0.00437471 -0.0105141 0.00409456)
(0.0036592 0.00365426 0.00202918)
(0.00301122 -0.0132246 0.00416011)
(0.00764665 0.00475621 0.00156552)
(0.00188364 -0.017855 0.00240807)
(0.00958256 0.00760366 -0.000771462)
(0.00545644 -0.0083778 -0.0034637)
(0.013551 0.0631209 0.00606407)
(0.0371539 -0.0653971 0.00321739)
(-0.0329556 0.0468144 -0.001892)
(-0.0411701 -0.010246 -0.00706216)
(0.0083783 0.220184 0.0127134)
(0.1705 -0.0229638 -0.067426)
(0.0891124 0.349708 -0.00488498)
(-0.0160232 0.439397 0.0140149)
(-0.0450251 -0.101794 0.0172733)
(-0.0228707 -0.0427147 0.0139289)
(-0.0285696 -0.0724735 0.0154514)
(-0.0274699 -0.0886758 0.0176306)
(-0.024699 -0.0967556 0.0167198)
(-0.0221996 -0.104617 0.0146655)
(-0.0199618 -0.11103 0.0123909)
(-0.0179863 -0.114892 0.0100638)
(-0.0159804 -0.116675 0.008073)
(-0.0140247 -0.11698 0.00645574)
(-0.0119746 -0.116691 0.0052285)
(-0.00979571 -0.116418 0.00414168)
(-0.00743381 -0.116556 0.00328174)
(-0.0050384 -0.11745 0.00241178)
(-0.00287365 -0.118702 0.00177243)
(-0.00128328 -0.120275 0.00109156)
(-0.000155636 -0.121956 0.000579283)
(0.000136077 -0.124009 0.00015293)
(0.000203675 -0.12542 -0.000134199)
(-0.000714613 -0.127201 3.21754e-06)
(-0.00254188 -0.127692 -0.000671318)
(-0.00449197 -0.126385 -0.000130871)
(-0.00818295 -0.123978 -0.00153428)
(-0.0110173 -0.117059 -0.000616785)
(-0.0162034 -0.109629 -0.00334393)
(-0.019982 -0.0934515 -0.00341986)
(-0.0230953 -0.0777437 -0.00595739)
(-0.031247 -0.0534972 -0.0142216)
(-0.0252946 -0.0156107 -0.00842282)
(-0.0120518 0.0080858 -0.00788997)
(-0.0054869 0.0321827 -0.00540264)
(-0.00564276 0.0425969 0.00521284)
(-0.00659421 0.0331896 0.0212188)
(-0.00410879 0.0213057 0.0313697)
(0.028406 0.0367902 0.00180506)
(0.0292851 0.0302545 0.00313509)
(0.0216826 0.0258441 0.00083477)
(0.0214483 0.0187226 0.00290118)
(0.0103191 0.0102308 0.0021779)
(0.00672437 0.00578341 0.0032042)
(0.000661352 -0.000662451 0.00390565)
(0.000178176 0.00113032 0.00255356)
(3.46688e-06 0.00218758 0.00222912)
(0.000867256 0.00518006 0.00246177)
(0.00155795 0.00585271 0.0032737)
(0.00314811 0.00642259 0.0040829)
(0.00407936 0.00544494 0.00445305)
(0.00452977 0.00476417 0.00468182)
(0.00447813 0.00377811 0.00473273)
(0.00434443 0.00306211 0.00478832)
(0.00413165 0.00238464 0.00480917)
(0.00395961 0.00191601 0.00483609)
(0.00379663 0.0015315 0.00486795)
(0.00366379 0.00127623 0.00490695)
(0.00354817 0.00107664 0.00495417)
(0.00344742 0.000942956 0.00500622)
(0.00335998 0.000845574 0.00505972)
(0.00328259 0.00077022 0.0051131)
(0.00320989 0.000720137 0.00516375)
(0.00314229 0.000678728 0.00521269)
(0.00308134 0.000664547 0.00525934)
(0.00303225 0.000638651 0.00530779)
(0.00298537 0.000632526 0.00535454)
(0.00294408 0.000621293 0.00540072)
(0.00291091 0.000616838 0.00544542)
(0.0028681 0.000596626 0.0054824)
(0.0028535 0.000624955 0.00551851)
(0.00279102 0.000545464 0.00554632)
(0.00284636 0.000684417 0.00560112)
(0.00271701 0.000388506 0.005604)
(0.00289826 0.000839626 0.00568305)
(0.00264586 1.72998e-05 0.00564968)
(0.00297179 0.00113173 0.00576522)
(0.0026519 -0.000681702 0.00568848)
(0.00309737 0.00157682 0.00585415)
(0.00290345 -0.00183475 0.0057215)
(0.00334335 0.00198402 0.0058716)
(0.00360248 -0.00365664 0.00584131)
(0.0036481 0.00267894 0.00572476)
(0.00453181 -0.00635252 0.00578991)
(0.00328459 0.00386648 0.0053056)
(0.00435701 -0.00931119 0.00587641)
(0.00271709 0.00509558 0.00438855)
(0.0048461 -0.0128678 0.00648756)
(0.00638112 0.0038117 0.0037371)
(0.00614402 -0.0170531 0.00474422)
(0.000655846 0.00338493 0.00149111)
(-0.00910011 -0.0172818 0.00256438)
(0.0317206 0.0501141 0.0165964)
(0.0543745 -0.0773307 0.00714427)
(-0.0664 0.0897237 0.0111397)
(-0.087014 -0.113196 -0.00809376)
(-0.0784023 0.151945 -0.00535513)
(0.17539 -0.0182018 -0.0565839)
(0.169437 0.250309 -0.0184315)
(0.061409 0.183323 0.0111908)
(0.0635868 -0.0854816 0.0216142)
(0.00448258 0.0120246 0.0206052)
(-0.0153532 -0.0473024 0.0194185)
(-0.0152307 -0.0556587 0.0192361)
(-0.0184246 -0.0649187 0.0165523)
(-0.0206432 -0.0728288 0.0120347)
(-0.0207046 -0.0780556 0.00741836)
(-0.0192875 -0.080855 0.003424)
(-0.016841 -0.0814759 0.000221983)
(-0.0137002 -0.0806933 -0.00202315)
(-0.0100304 -0.0791172 -0.00362844)
(-0.00633371 -0.0770004 -0.00483597)
(-0.00284966 -0.074663 -0.00565485)
(0.000282938 -0.0722785 -0.00625522)
(0.00300254 -0.0706427 -0.00641692)
(0.00514176 -0.0703818 -0.0061474)
(0.00655895 -0.0709597 -0.00537207)
(0.00705567 -0.073129 -0.00465944)
(0.00667402 -0.0753984 -0.00360493)
(0.00495059 -0.0792341 -0.00267156)
(0.00203089 -0.0822958 -0.00223348)
(-0.00179852 -0.0853746 -0.000755745)
(-0.00764271 -0.0886303 -0.00179157)
(-0.0139998 -0.0867568 -0.000344945)
(-0.0220186 -0.0842332 -0.00354616)
(-0.029872 -0.0725318 -0.00527076)
(-0.0379755 -0.0602748 -0.0076613)
(-0.0436703 -0.0424049 -0.0167336)
(-0.0376919 -0.00937646 -0.0114694)
(-0.0212223 0.00992023 -0.00759458)
(-0.0110698 0.0291985 -0.00462471)
(-0.011053 0.039047 0.00775084)
(-0.0144059 0.0304935 0.0238613)
(-0.0142344 0.0186421 0.0340405)
(0.0298734 0.0359541 0.00179015)
(0.032188 0.0345996 0.00418473)
(0.0258926 0.0292084 0.00167205)
(0.0260185 0.0251745 0.00307655)
(0.0160915 0.0184361 0.00166497)
(0.0133193 0.0134885 0.00335459)
(0.00362945 0.00381877 0.0031082)
(0.000283035 0.0030566 0.00224686)
(-0.00114721 0.00215063 0.00149449)
(0.000227579 0.00514537 0.00179603)
(0.00103498 0.00510191 0.00256467)
(0.00276074 0.00546245 0.00366317)
(0.00345008 0.00454068 0.00418751)
(0.00373502 0.00429524 0.00455328)
(0.00352271 0.00362117 0.0046149)
(0.00333044 0.0031361 0.0046857)
(0.00307184 0.00254883 0.00471177)
(0.0028589 0.00211753 0.00475871)
(0.00265917 0.0017397 0.00481075)
(0.00248808 0.0014754 0.00486952)
(0.00234488 0.0012697 0.00493504)
(0.00221807 0.00113181 0.00499976)
(0.00211076 0.00103301 0.00505757)
(0.00202079 0.000960526 0.00511355)
(0.00193862 0.000912271 0.00516724)
(0.00185951 0.000877523 0.00521559)
(0.00178801 0.000861561 0.00525826)
(0.00172832 0.000841894 0.00530163)
(0.00166914 0.000839473 0.00534258)
(0.00161841 0.000834141 0.00538285)
(0.00157466 0.000836537 0.00542164)
(0.0015317 0.000829551 0.00545877)
(0.00150908 0.00085001 0.00549716)
(0.00146304 0.00079948 0.00552394)
(0.00148932 0.000905544 0.00556419)
(0.00139308 0.000661586 0.00556738)
(0.00154867 0.00105201 0.00563465)
(0.00133916 0.000296549 0.00560499)
(0.00169418 0.00133546 0.00570933)
(0.00133628 -0.000411954 0.00563047)
(0.00198325 0.0018055 0.00580066)
(0.00148859 -0.0015468 0.00561495)
(0.00246148 0.00258636 0.00590721)
(0.00203861 -0.00314031 0.0055569)
(0.0030471 0.0040167 0.00601428)
(0.00276483 -0.0052221 0.00547342)
(0.00307168 0.00631264 0.00612227)
(0.00310537 -0.00790768 0.00586603)
(0.00245292 0.00781643 0.00620604)
(0.00487506 -0.0121996 0.0072829)
(0.00487567 0.00834002 0.00398023)
(0.00745765 -0.0165571 0.00294697)
(0.0014827 0.01313 0.00390563)
(-0.0190393 -0.0320438 -0.00710776)
(0.0256504 0.0242751 0.0215655)
(0.0312663 -0.0346956 0.010366)
(-0.0216058 0.123571 0.0234326)
(-0.0880273 -0.144699 0.0365763)
(-0.113166 0.180088 -0.061873)
(0.201912 -0.099911 -0.0464057)
(0.207203 0.305729 -0.0262535)
(0.047219 0.164706 0.00248911)
(0.036737 0.00379018 0.0150206)
(-0.0336424 0.072825 0.0202024)
(-0.0146739 -0.00465794 0.0246189)
(-0.0231615 -0.00978396 0.0161022)
(-0.0256128 -0.0275216 0.00465723)
(-0.0196825 -0.0326523 -0.00230552)
(-0.0125709 -0.0312716 -0.00872212)
(-0.00842973 -0.0265271 -0.0128151)
(-0.00650965 -0.018922 -0.0149789)
(-0.00528215 -0.00920282 -0.0155055)
(-0.00329459 0.00103674 -0.0147201)
(3.5009e-05 0.00969262 -0.0129352)
(0.00390289 0.0159723 -0.0104417)
(0.0078446 0.0196705 -0.00771939)
(0.0113491 0.01974 -0.00499882)
(0.0141466 0.0167447 -0.00276269)
(0.01579 0.0112069 -0.000920747)
(0.0160461 0.0042377 0.00051372)
(0.0149509 -0.00404287 0.00154596)
(0.0124371 -0.0127964 0.00202904)
(0.00844722 -0.0209928 0.00259161)
(0.00293386 -0.0291643 0.00297321)
(-0.00447725 -0.036417 0.00279124)
(-0.0126987 -0.0417343 0.00363255)
(-0.0224353 -0.0468192 0.000660037)
(-0.0300889 -0.0423738 -9.19264e-05)
(-0.0380376 -0.0359744 -0.00612267)
(-0.0530447 -0.0209179 -0.0175103)
(-0.0463815 0.00782498 -0.0127545)
(-0.0221435 0.0165974 -0.00574957)
(-0.0129297 0.0301522 -0.002269)
(-0.0129776 0.0350262 0.0105286)
(-0.0185845 0.028304 0.0261393)
(-0.0216949 0.0164716 0.0360867)
(0.0298429 0.0352776 0.00136822)
(0.0336332 0.0364581 0.00458755)
(0.0276662 0.0300602 0.00209568)
(0.028567 0.0261218 0.00460409)
(0.0191347 0.0195041 0.00189508)
(0.0188263 0.0160646 0.00349568)
(0.00857453 0.00748773 0.00141985)
(0.00328575 0.00638895 0.00146147)
(-0.000936895 0.00241864 0.0005652)
(-0.000538178 0.00459993 0.00102545)
(0.000662301 0.00343884 0.00143635)
(0.00210561 0.00361353 0.00292564)
(0.00214598 0.00297704 0.00353288)
(0.00213923 0.00323367 0.00401015)
(0.0017211 0.00295385 0.0041069)
(0.00144226 0.00280982 0.00422215)
(0.00104411 0.00241433 0.00423205)
(0.000704007 0.00209666 0.00425571)
(0.00039992 0.00176207 0.00427821)
(0.000142561 0.0015187 0.0043091)
(-8.06474e-05 0.00132462 0.00433783)
(-0.000266103 0.00119833 0.0043691)
(-0.000411097 0.00110725 0.00440324)
(-0.000531001 0.00104274 0.00443489)
(-0.000635614 0.000998442 0.00445997)
(-0.00072531 0.000973121 0.00448054)
(-0.000795857 0.00095285 0.00449838)
(-0.000852265 0.000937432 0.00451003)
(-0.000900051 0.000934497 0.00452073)
(-0.000936255 0.000932059 0.0045307)
(-0.000966946 0.000937828 0.00453888)
(-0.000992775 0.000940919 0.00454862)
(-0.00101138 0.000960675 0.00455751)
(-0.00103348 0.000935816 0.00456467)
(-0.000998943 0.00101976 0.0045902)
(-0.00105441 0.000822697 0.00458448)
(-0.000901652 0.00116429 0.0046363)
(-0.0010759 0.000499322 0.00459561)
(-0.000703791 0.00147057 0.00468601)
(-0.00106286 -0.000149615 0.00459744)
(-0.000342307 0.00200245 0.00476528)
(-0.000958184 -0.00116971 0.00456191)
(0.000227791 0.0029284 0.00490078)
(-0.000604606 -0.00233958 0.00451633)
(0.000921499 0.00455143 0.00513399)
(7.07861e-05 -0.00330758 0.00467849)
(0.00130762 0.00704322 0.0057033)
(0.000870342 -0.00542882 0.00537132)
(0.00174405 0.00912001 0.00677607)
(0.0034259 -0.0118712 0.00654866)
(0.00267849 0.00909501 0.00423976)
(0.00380603 -0.0171062 0.00339997)
(0.00499436 0.0192657 0.00668598)
(-0.00102131 -0.0240148 -0.0022385)
(0.00231471 0.00655332 0.0372261)
(-0.00313685 -0.017783 0.0422978)
(0.00982679 0.0965479 0.0747922)
(-0.112904 -0.127314 0.0602352)
(-0.0267527 0.191423 -0.170059)
(0.141555 -0.120791 -0.0290452)
(0.171206 0.476676 -0.0228256)
(0.0387839 0.600956 0.00250218)
(0.0375964 0.543988 0.00824751)
(0.000908708 0.558656 0.00684856)
(-0.00101148 0.530443 0.00126201)
(-0.010561 0.526803 -0.00831412)
(-0.00829428 0.536368 -0.0189106)
(-0.00811106 0.559466 -0.0191356)
(-0.00429188 0.584396 -0.0144901)
(-0.00280823 0.596297 -0.00911598)
(-0.000443306 0.604193 -0.00518194)
(0.00212243 0.607098 -0.00172104)
(0.00582331 0.606338 0.000578003)
(0.0100212 0.601738 0.00312449)
(0.0139575 0.595996 0.00520565)
(0.0173398 0.571269 0.00685492)
(0.0199108 0.437184 0.00768058)
(0.0213214 0.112063 0.00826961)
(0.0226693 0.0820054 0.00874096)
(0.0226828 0.0711771 0.00882547)
(0.0212489 0.0586764 0.00817617)
(0.0183629 0.0475396 0.00724742)
(0.0138481 0.0360616 0.00634409)
(0.00776577 0.0259034 0.00510421)
(-0.000468275 0.0173518 0.00373418)
(-0.010965 0.0104096 0.00205174)
(-0.0240367 0.00458054 -0.00128806)
(-0.0375242 0.00488609 -0.00547862)
(-0.0514259 0.0083696 -0.0145697)
(-0.0570569 0.019095 -0.0189491)
(-0.0358277 0.0235011 -0.00806054)
(-0.0181581 0.0235048 -0.00296567)
(-0.0136128 0.0312444 0.00114043)
(-0.0181893 0.031026 0.0141952)
(-0.0280858 0.0261622 0.0279134)
(-0.0341481 0.0145341 0.0372754)
(0.0281154 0.0344862 0.00509165)
(0.0349757 0.0382603 0.00577792)
(0.0286298 0.0287652 0.00306978)
(0.0292798 0.0254871 0.00743736)
(0.0195388 0.0167603 0.0040918)
(0.0208185 0.0155416 0.00496495)
(0.0111963 0.00752213 0.00108885)
(0.00681119 0.00819495 0.000862076)
(0.000959938 0.0034263 0.000242018)
(0.000229932 0.00450878 0.00134045)
(0.000773523 0.0015189 0.00131849)
(0.00171242 0.00136037 0.00277789)
(0.00131988 0.000830819 0.00315485)
(0.00128861 0.00177876 0.0037302)
(0.000787079 0.00185194 0.00381292)
(0.00054098 0.00212003 0.00399058)
(0.000134978 0.00195919 0.00399279)
(-0.000181236 0.00185703 0.0039945)
(-0.000482772 0.00166799 0.0039527)
(-0.000735942 0.00152139 0.00390745)
(-0.00094603 0.00138899 0.0038644)
(-0.00111192 0.00130625 0.0038345)
(-0.00123419 0.00125113 0.00381029)
(-0.00132498 0.00122305 0.00378913)
(-0.00139587 0.00120849 0.00376848)
(-0.0014517 0.00121255 0.00374838)
(-0.00149292 0.00120981 0.00372692)
(-0.00152934 0.00121627 0.00369654)
(-0.0015597 0.00122322 0.00366654)
(-0.00158138 0.00123 0.00363802)
(-0.00159859 0.00123976 0.0036115)
(-0.00160862 0.00125044 0.00359015)
(-0.00161298 0.00126527 0.00357269)
(-0.00160672 0.00124843 0.00356078)
(-0.00156783 0.0013186 0.00356391)
(-0.00157916 0.00116441 0.00355054)
(-0.00142574 0.00147224 0.00359785)
(-0.00154173 0.000880051 0.00354299)
(-0.00113467 0.0017919 0.0036786)
(-0.00145873 0.000305477 0.00354717)
(-0.000644558 0.00236492 0.00383412)
(-0.0013136 -0.000486929 0.00355905)
(-9.81618e-05 0.00335567 0.00401452)
(-0.00102128 -0.00105189 0.00360539)
(7.11084e-05 0.00503226 0.00406733)
(-0.000669097 -0.00119174 0.00381782)
(0.000319732 0.00774022 0.00450677)
(7.82895e-05 -0.00345898 0.00437381)
(0.00263116 0.010549 0.00666001)
(0.00318896 -0.0117438 0.00518172)
(0.00262984 0.00905866 0.00399734)
(0.00135157 -0.0170009 0.00329108)
(0.00269432 0.0146969 0.00536826)
(0.010406 -0.0184784 -0.00451138)
(-0.0176256 0.0138912 0.0348022)
(-0.0509825 -0.0462927 0.0453148)
(0.0270295 0.0631101 0.0879169)
(-0.0905063 -0.104777 0.0804697)
(0.0319198 0.0280253 -0.197265)
(0.0817708 -0.0197339 -0.0157046)
(0.179981 0.48266 -0.044706)
(0.0255436 0.545615 -0.00387377)
(0.0261369 0.642962 0.00130877)
(0.00119553 0.657929 0.00171385)
(-0.0042554 0.649011 -0.00198957)
(-0.00998805 0.651395 -0.0044253)
(-0.0107914 0.641016 -0.0039034)
(-0.0101576 0.639337 -0.00224602)
(-0.00604435 0.616663 0.000710102)
(-0.00196284 0.595698 0.00320375)
(0.00238082 0.522016 0.00536687)
(0.00485685 0.70219 0.00726885)
(0.00843809 0.675034 0.00919766)
(0.0119895 0.651455 0.0107365)
(0.0160132 0.645134 0.0126187)
(0.0188353 0.641036 0.0135436)
(0.0215573 0.653813 0.0141905)
(0.0245844 0.640566 0.0150181)
(0.0250064 0.611772 0.0153042)
(0.0243143 0.615768 0.0142683)
(0.0219385 0.596552 0.0127125)
(0.0183969 0.571569 0.0107047)
(0.0130987 0.482813 0.00779145)
(0.00550288 0.389651 0.00357677)
(0.00128462 0.0865177 0.0020836)
(-0.00873349 0.054889 -0.00247186)
(-0.019782 0.0485722 -0.00713206)
(-0.0312632 0.042762 -0.0121266)
(-0.0373068 0.037677 -0.0145759)
(-0.0346235 0.0292262 -0.00971418)
(-0.0189843 0.0216604 -0.000356267)
(-0.0130435 0.0207741 0.00255772)
(-0.013628 0.0226548 0.00518241)
(-0.0205722 0.0218746 0.0138068)
(-0.0311846 0.0187061 0.0266017)
(-0.0385812 0.00871897 0.0371839)
(0.0217205 0.0328461 0.00470872)
(0.0327598 0.0405268 0.00925419)
(0.0261826 0.0260321 0.0055524)
(0.0276309 0.026349 0.0103936)
(0.0167487 0.0142093 0.00711248)
(0.0184365 0.0142411 0.00904561)
(0.00920971 0.00422466 0.00475961)
(0.00796731 0.00791108 0.00209449)
(0.00164692 0.00322788 0.00111706)
(0.000920556 0.00494686 0.00269118)
(0.00077938 0.00064878 0.00273942)
(4.78897e-05 0.000246986 0.00349022)
(-0.001595 -0.000557377 0.00335035)
(-0.00187035 0.000676427 0.00384175)
(-0.00232579 0.000797014 0.00403621)
(-0.00236194 0.00140922 0.00429355)
(-0.00276766 0.00149052 0.00428904)
(-0.0030729 0.00167637 0.00423992)
(-0.00342137 0.00167881 0.00415814)
(-0.00372812 0.00168836 0.00407859)
(-0.00399383 0.00166361 0.00398792)
(-0.00420536 0.00165519 0.00388996)
(-0.00435484 0.00165372 0.00380286)
(-0.00446213 0.0016656 0.00372859)
(-0.0045399 0.00168014 0.00366422)
(-0.00458501 0.00169833 0.00361168)
(-0.00459724 0.00171048 0.00356169)
(-0.00458798 0.00172245 0.0035094)
(-0.00456388 0.00172517 0.00346518)
(-0.00452757 0.00172907 0.00343162)
(-0.004485 0.00173341 0.00340612)
(-0.0044338 0.00173776 0.00339045)
(-0.00438541 0.00173995 0.00338034)
(-0.00432403 0.00172507 0.00337915)
(-0.00425724 0.00176534 0.00338677)
(-0.00418564 0.00163142 0.00340434)
(-0.00404638 0.00188175 0.00346225)
(-0.00401516 0.00137796 0.0034574)
(-0.00370689 0.00218273 0.00361811)
(-0.00380432 0.000935382 0.00355004)
(-0.00326006 0.00277012 0.00384811)
(-0.0035769 0.000442775 0.00369803)
(-0.00295286 0.00378496 0.0040178)
(-0.00329292 0.000162718 0.00387332)
(-0.00301307 0.00540414 0.00389484)
(-0.00299031 -0.000251778 0.00388154)
(-0.00225396 0.00783207 0.00386768)
(-0.0019482 -0.00308199 0.00390287)
(0.00189506 0.0106983 0.00646639)
(0.0024196 -0.0104005 0.00499386)
(0.00050433 0.0106508 0.00400529)
(0.00113684 -0.0138043 0.00396646)
(0.00203695 0.0121675 0.00207555)
(0.0127842 -0.0140458 -0.00732712)
(-0.0138663 0.0227475 0.0236019)
(-0.0587812 -0.0469538 0.0329448)
(-0.0131009 -0.0153202 0.0728423)
(-0.031476 -0.104327 0.103503)
(0.0384499 -0.147796 -0.206578)
(0.0472651 0.112915 -0.0191477)
(0.0942087 0.63607 -0.0549296)
(0.0233508 0.704741 -0.0139778)
(0.00842292 0.671084 -0.00048982)
(-0.00468627 0.793149 0.00747603)
(-0.00700254 0.809795 0.00845323)
(-0.0113674 0.780605 0.00838353)
(-0.00864094 0.755009 0.00863618)
(-0.00781799 0.697679 0.00871985)
(-0.00596484 0.772296 0.00939662)
(-0.00230852 0.661252 0.0109486)
(0.0015874 0.57806 0.0126377)
(0.00421217 0.751548 0.0141548)
(0.00768333 0.76462 0.0156224)
(0.0122647 0.744017 0.0172858)
(0.0164045 0.752969 0.0188305)
(0.0204056 0.742989 0.0202339)
(0.0246019 0.757024 0.0218175)
(0.0284686 0.714237 0.0234563)
(0.0324195 0.708218 0.025612)
(0.0328083 0.70251 0.0264361)
(0.0326636 0.690347 0.0265348)
(0.0310588 0.697495 0.0259222)
(0.0267206 0.637859 0.0237557)
(0.0192847 0.616317 0.0196635)
(0.0111519 0.582765 0.0154131)
(0.00564179 0.544971 0.0127833)
(-0.00165138 0.479699 0.00979321)
(-0.00825341 0.120652 0.00759108)
(-0.0122073 0.124785 0.0088782)
(-0.0123982 0.0753452 0.0136933)
(-0.0111976 0.0358187 0.0190294)
(-0.0134893 0.0271758 0.0211985)
(-0.0192223 0.020515 0.0231958)
(-0.0310605 0.0134598 0.025289)
(-0.0474822 0.0171526 0.0300763)
(-0.0618739 0.0473298 0.0349269)
(0.0166337 0.0272979 0.00129875)
(0.0281324 0.0444365 0.0103078)
(0.0201302 0.0219288 0.00710803)
(0.0233659 0.0272037 0.0115576)
(0.0133098 0.0135078 0.00949656)
(0.0158252 0.0144993 0.0127574)
(0.00496984 0.00203612 0.00870256)
(0.0052146 0.00720085 0.00585762)
(-0.000265186 0.0014038 0.0039288)
(0.000745691 0.00425469 0.00488624)
(0.000474584 -0.000622076 0.0047777)
(-0.000309122 0.000156386 0.00514435)
(-0.0021572 -0.000687846 0.00511141)
(-0.00241112 0.000395439 0.00546704)
(-0.00291465 4.86989e-05 0.00584015)
(-0.00296046 0.000844228 0.0060619)
(-0.00335619 0.000944225 0.00615808)
(-0.00348077 0.00142499 0.00616157)
(-0.00367406 0.0016075 0.00606939)
(-0.00381159 0.00179316 0.00595787)
(-0.00390826 0.001888 0.00585355)
(-0.00395329 0.00195814 0.00578562)
(-0.003964 0.00200028 0.0057342)
(-0.00394425 0.0020411 0.00569921)
(-0.00389947 0.00208426 0.0056772)
(-0.00383644 0.00213757 0.00566574)
(-0.00377548 0.00220042 0.00564717)
(-0.0037169 0.00224489 0.00561652)
(-0.0036615 0.00226146 0.0055857)
(-0.0036051 0.00226824 0.00555811)
(-0.00354772 0.00226883 0.00553565)
(-0.00348383 0.00226137 0.00552055)
(-0.00342836 0.00225208 0.00550752)
(-0.00335814 0.0022272 0.00550326)
(-0.00329338 0.00224764 0.00550551)
(-0.00320685 0.00213121 0.00552032)
(-0.00310621 0.00235388 0.00555475)
(-0.00302965 0.00191587 0.00555215)
(-0.00280607 0.00267083 0.00566487)
(-0.00282233 0.00162393 0.00560554)
(-0.00245765 0.00331769 0.00579309)
(-0.00264527 0.001417 0.00566321)
(-0.00230982 0.00440096 0.00574561)
(-0.0024898 0.00129136 0.00561806)
(-0.0025973 0.00589819 0.00519623)
(-0.00237209 0.000207736 0.00520627)
(-0.00206688 0.00790277 0.00473085)
(-0.00177801 -0.0035007 0.00488663)
(0.00162187 0.010999 0.00733906)
(0.00156572 -0.00927931 0.00640727)
(0.00172156 0.0153311 0.00828424)
(0.00268767 -0.0136337 0.00837146)
(-0.000264654 0.0114169 0.00384766)
(0.00907776 -0.00788329 0.00817387)
(-0.00714518 0.044535 0.0222071)
(-0.0239418 -0.0323448 0.0320447)
(-0.0226757 -0.0127724 0.0769028)
(0.00743275 -0.101884 0.10842)
(0.000250623 -0.161398 -0.191288)
(-0.0136983 0.182685 -0.0316368)
(-0.0196438 0.671209 -0.0814857)
(-0.0287587 0.765392 -0.00950289)
(-0.021987 0.807646 -0.00240378)
(-0.0215239 0.821913 0.0130299)
(-0.0196928 0.836 0.0126408)
(-0.0189582 0.843157 0.0133086)
(-0.016761 0.833657 0.013047)
(-0.0126902 0.826195 0.0117471)
(-0.00815131 0.823138 0.0115796)
(-0.00371598 0.823232 0.0123519)
(-0.000784181 0.818935 0.01361)
(0.00369571 0.810405 0.0149048)
(0.00683427 0.809178 0.0156913)
(0.0110763 0.802673 0.0167348)
(0.0163929 0.794478 0.0180182)
(0.0212987 0.795004 0.0193172)
(0.0256347 0.787965 0.0204576)
(0.0303229 0.780065 0.0224616)
(0.0328961 0.780196 0.0249297)
(0.034443 0.772572 0.0273977)
(0.0350189 0.764472 0.030425)
(0.0336256 0.760441 0.0327921)
(0.0304936 0.752648 0.0349859)
(0.0258777 0.744628 0.0363844)
(0.0201418 0.735492 0.0371613)
(0.0136053 0.72408 0.0373489)
(0.00677018 0.709415 0.0371774)
(0.00103395 0.691879 0.0374699)
(-0.00291392 0.672746 0.039214)
(-0.00634844 0.65762 0.041523)
(-0.0108915 0.632791 0.0433403)
(-0.0185519 0.607277 0.0431708)
(-0.0299067 0.582996 0.0406593)
(-0.0443126 0.546129 0.0360286)
(-0.0581979 0.523763 0.0277502)
(-0.0673274 0.467602 0.0174424)
(0.000109053 0.0207758 -0.017684)
(0.0229203 0.0467115 0.00381)
(0.0130063 0.0184134 0.00281535)
(0.017643 0.0272961 0.00810183)
(0.00710453 0.0119953 0.00728336)
(0.00985263 0.0155812 0.0102521)
(-0.000179684 0.00628295 0.00714819)
(0.00177983 0.00968992 0.00500008)
(-0.00331194 0.00233836 0.00208773)
(-0.00135738 0.00503367 0.00223014)
(-0.00205624 -0.000228479 0.00179639)
(-0.00414415 0.00130424 0.00149027)
(-0.00648626 -0.00076945 0.00150072)
(-0.00613527 0.000191505 0.00174123)
(-0.00694978 -0.000531933 0.00221917)
(-0.00682864 0.000461208 0.00240642)
(-0.00737173 0.000484036 0.00268682)
(-0.00754042 0.00117995 0.00282799)
(-0.00782397 0.00143379 0.00289947)
(-0.00803055 0.0017382 0.00293254)
(-0.00820639 0.00192415 0.00294169)
(-0.00834682 0.00206744 0.0029446)
(-0.00845589 0.00216315 0.00294424)
(-0.00853911 0.00224402 0.00294772)
(-0.00860313 0.00231179 0.0029544)
(-0.0086457 0.0023756 0.00296712)
(-0.00861101 0.00243133 0.00298957)
(-0.00850024 0.00247264 0.00301613)
(-0.00838459 0.00249519 0.00304418)
(-0.0082689 0.0025062 0.00307077)
(-0.00814735 0.00250888 0.0030985)
(-0.00801243 0.00250203 0.00312891)
(-0.00788137 0.00249468 0.00315543)
(-0.00772961 0.00247242 0.00318369)
(-0.00759432 0.00248311 0.00320978)
(-0.00740982 0.00239709 0.00324959)
(-0.00729679 0.00257886 0.00329064)
(-0.00704466 0.00224615 0.00335275)
(-0.00700598 0.00289492 0.00339811)
(-0.00667811 0.00208884 0.00346825)
(-0.00678711 0.00356655 0.00348829)
(-0.00632232 0.00208908 0.00358158)
(-0.00676121 0.00472635 0.00340648)
(-0.00587147 0.00213885 0.00350875)
(-0.00651007 0.00641917 0.00283306)
(-0.00553013 0.000791317 0.00286697)
(-0.00512826 0.00832489 0.00227304)
(-0.00531464 -0.00390698 0.00199136)
(-0.00138693 0.0108181 0.00444215)
(-0.00376496 -0.010232 0.00393972)
(-0.00308716 0.0145877 0.00670845)
(0.00358616 -0.0125617 0.00767717)
(-0.0126136 0.00831034 0.00103952)
(-0.00985015 -0.00620474 0.00463204)
(-0.0178045 0.0502638 0.0120219)
(-0.00690878 -0.0277793 0.0156409)
(-0.0299017 0.0177785 0.0699675)
(0.0486378 -0.106211 0.0894935)
(-0.0709185 -0.160406 -0.205249)
(-0.0794473 0.146089 -0.029066)
(-0.137931 0.627544 -0.0660494)
(-0.07132 0.589613 -0.0175707)
(-0.0487962 0.396468 -0.00103318)
(-0.036507 0.404248 0.0078947)
(-0.0324898 0.718789 0.00767662)
(-0.0257932 0.72662 0.006894)
(-0.0195469 0.745487 0.00626087)
(-0.0153394 0.750778 0.0040141)
(-0.0105982 0.72553 0.00245267)
(-0.00612899 0.724298 0.0008494)
(-0.00302372 0.711479 0.000605186)
(-3.85258e-05 0.709773 0.000100328)
(0.00312681 0.704974 -1.83428e-05)
(0.00655219 0.708384 0.000178249)