/*--------------------------------*- C++ -*----------------------------------*\
| =========                 |                                                 |
| \\      /  F ield         | OpenFOAM: The Open Source CFD Toolbox           |
|  \\    /   O peration     | Version:  2.3.0                                 |
|   \\  /    A nd           | Web:      www.OpenFOAM.org                      |
|    \\/     M anipulation  |                                                 |
\*---------------------------------------------------------------------------*/
FoamFile
{
    version     2.0;
    format      ascii;
    class       volVectorField;
    location    "17";
    object      U.water;
}
// * * * * * * * * * * * * * * * * * * * * * * * * * * * * * * * * * * * * * //

dimensions      [0 1 -1 0 0 0 0];

internalField   nonuniform List<vector> 
6144
(
(0.0129011 0.0278782 -0.00350082)
(0.0130382 0.00806895 -0.00376985)
(0.00722823 0.0041322 -0.00420017)
(0.00674176 -0.000849958 -0.00376137)
(0.0028779 -0.00455984 -0.0019903)
(0.00216088 -0.0040527 -0.00135043)
(0.00103946 -0.00477546 -0.000630241)
(0.00132821 -0.00290419 -0.000804433)
(0.00139995 -0.00109701 -0.0012354)
(0.00157339 0.00139192 -0.000663238)
(0.00157024 0.00316423 -6.48223e-06)
(0.00176575 0.0041695 0.000718239)
(0.00203612 0.0038955 0.000960927)
(0.00226333 0.00308801 0.001102)
(0.00230609 0.0020515 0.000876908)
(0.00233356 0.00129278 0.000683682)
(0.00233549 0.00065912 0.000455757)
(0.00234125 0.000242879 0.000313577)
(0.00233865 -7.505e-05 0.000208467)
(0.00233275 -0.000282213 0.000147173)
(0.00232239 -0.000436937 0.00011365)
(0.00230843 -0.000540376 0.00010356)
(0.00229174 -0.000618902 0.000109547)
(0.00227327 -0.000675581 0.000128794)
(0.00225356 -0.000723523 0.000155769)
(0.00223309 -0.000764195 0.00018788)
(0.00221231 -0.000802651 0.000223459)
(0.002191 -0.000840314 0.000262267)
(0.00216884 -0.000879118 0.000305995)
(0.00214508 -0.000924476 0.000358799)
(0.00211876 -0.000978499 0.000425305)
(0.00209219 -0.00105306 0.00050862)
(0.00206559 -0.00115728 0.000614906)
(0.00203469 -0.00132416 0.000751547)
(0.00199915 -0.00157131 0.000935349)
(0.00196258 -0.00196547 0.00116309)
(0.00192977 -0.00253155 0.00143379)
(0.00191603 -0.00336483 0.00169781)
(0.001934 -0.00443455 0.0018978)
(0.00200169 -0.00576359 0.00190711)
(0.00210678 -0.00714628 0.00162371)
(0.00224226 -0.00849509 0.000945612)
(0.00236506 -0.00943421 8.21211e-05)
(0.00257207 -0.00992541 -0.000739202)
(0.00269906 -0.00999589 -0.00124022)
(0.00308398 -0.0106381 -0.00162238)
(0.00418143 -0.0121888 -0.00368514)
(0.00121587 -0.0101144 -0.00693853)
(-0.00256036 0.00714979 -0.0084154)
(0.00360504 0.0182446 -0.00838617)
(0.0082238 0.02375 -0.00819764)
(0.0162027 0.0190548 -0.00856544)
(0.0226423 0.0216271 -0.00819344)
(0.0286676 -0.0211654 -0.00694009)
(0.050046 -0.0322132 -0.0116103)
(0.0485925 -0.0954192 -0.00918822)
(0.042142 -0.0724186 -0.0347653)
(0.0376546 -0.134254 -0.00740461)
(0.0247091 0.0370311 -0.0888639)
(0.0145652 -0.0359763 0.0181995)
(0.0870638 -0.287941 0.0693473)
(0.0590595 -0.0852001 0.0344203)
(0.0437967 -0.150372 -0.000947237)
(0.0406044 -0.14759 0.00176656)
(0.0320112 -0.143775 0.00346432)
(0.0297344 -0.147588 0.0101539)
(0.0273478 -0.147474 0.0125445)
(0.0246266 -0.14975 0.0109254)
(0.0220834 -0.147101 0.00845779)
(0.0160404 -0.148263 0.00463901)
(0.0113238 -0.142834 0.00244938)
(0.00891394 -0.138714 0.00265672)
(0.0050743 -0.133832 0.007515)
(-7.15483e-05 -0.132393 0.00646986)
(-0.00626281 -0.127464 0.00455509)
(-0.00736942 -0.118312 -0.00339772)
(-0.0117556 -0.102188 -0.00329438)
(-0.0159624 -0.0796278 -0.0121389)
(-0.0219476 -0.0101129 -0.0131043)
(-0.0150448 0.056648 -0.0108552)
(0.00475552 0.068128 -0.000817976)
(0.00898417 0.0736262 0.00325753)
(0.0173779 0.0611653 0.00932846)
(0.0208054 0.0453426 0.0102754)
(0.0187476 0.0260442 0.0104237)
(0.0162882 0.00672669 0.00822095)
(0.0181162 -0.00999189 0.00599417)
(0.0150041 -0.0209423 0.00196359)
(0.0124565 -0.0310375 0.00327048)
(0.00587263 -0.0387606 -0.000292156)
(0.00374744 -0.0381876 -0.00242734)
(0.00403969 -0.0347468 -0.00456665)
(0.000636054 -0.0303558 -0.0117226)
(-0.0021045 -0.0144863 -0.0112692)
(0.00746192 0.00559277 -0.00469022)
(0.00911698 -0.00299847 -0.0034719)
(0.0218678 0.0338839 0.000325948)
(0.0235264 0.0256145 0.00106202)
(0.0173632 0.0212362 -0.000359271)
(0.0169482 0.0147959 0.00246942)
(0.00805078 0.00665141 0.00233336)
(0.00610156 0.00356633 0.0028211)
(0.00245201 -0.000995756 0.00314439)
(0.00198632 0.000767092 0.00212055)
(0.00187602 0.00190337 0.00182143)
(0.00209295 0.00445074 0.00238375)
(0.002429 0.00549561 0.00284658)
(0.00319971 0.00593951 0.00365541)
(0.00376074 0.00501303 0.00405535)
(0.00413798 0.00412208 0.00428842)
(0.004147 0.00291692 0.00419327)
(0.00418033 0.00205966 0.00411265)
(0.00415115 0.00130577 0.00395556)
(0.00413591 0.000805238 0.00386196)
(0.00410576 0.000405586 0.00379476)
(0.00407271 0.000141238 0.00376736)
(0.0040342 -5.82248e-05 0.00376638)
(0.00399042 -0.00019098 0.00378823)
(0.00394413 -0.000290358 0.00382549)
(0.00389583 -0.000359679 0.00387564)
(0.0038464 -0.000415711 0.00393349)
(0.00379521 -0.00046076 0.00399621)
(0.00374307 -0.000502108 0.00406143)
(0.00368956 -0.000542031 0.00412882)
(0.00363499 -0.000582855 0.00419947)
(0.00357846 -0.000631935 0.00427567)
(0.00351901 -0.000688567 0.00436062)
(0.00345624 -0.000769562 0.00444994)
(0.00340071 -0.00088639 0.00452872)
(0.00335401 -0.00108568 0.00461653)
(0.00332599 -0.00136994 0.0047199)
(0.0033268 -0.00181766 0.00483864)
(0.00338132 -0.00241915 0.00496541)
(0.00350226 -0.00326287 0.00507777)
(0.00371007 -0.00426252 0.00514219)
(0.00399454 -0.00546565 0.00510905)
(0.00432301 -0.00668514 0.00491105)
(0.00472526 -0.00792271 0.00436111)
(0.00514873 -0.0089037 0.00336503)
(0.00540874 -0.00972077 0.00236587)
(0.00585545 -0.0107117 0.00179581)
(0.00697046 -0.0136067 0.00109899)
(0.00684151 -0.0167656 -0.00298053)
(-0.000366949 -0.0103866 -0.00634357)
(-0.0052513 -0.000829607 -0.00363201)
(0.00249363 0.000645026 0.00518405)
(0.00909562 3.49047e-05 0.0130755)
(0.0239263 -0.0309376 0.0099541)
(0.044605 -0.0394613 0.0147544)
(0.069993 -0.0974169 0.0278211)
(0.0768738 -0.110519 0.0201704)
(0.0826786 -0.160207 0.023773)
(0.0581262 -0.141549 0.000383893)
(0.0365285 -0.198767 0.00961458)
(0.0117891 0.0544815 -0.0475435)
(0.0162647 -0.0693165 0.0261407)
(0.121882 -0.267191 0.113179)
(0.0690277 -0.0478244 0.0629105)
(0.0467694 -0.114899 0.020459)
(0.0390212 -0.100983 0.0219576)
(0.0201044 -0.0945769 0.00249962)
(0.00538973 -0.0815674 0.000745779)
(0.00617172 -0.0615131 -0.00536257)
(0.00622481 -0.0465209 -0.0131868)
(0.0126007 -0.021016 -0.0224634)
(0.0130326 -0.00684138 -0.0189163)
(0.012318 0.00260932 -0.00950833)
(0.00945377 -0.000391739 -0.00666459)
(0.00781197 -0.00341247 0.0052914)
(0.00131228 -0.0160725 0.0128004)
(-0.000115316 -0.0319173 0.0115422)
(0.000878143 -0.0406127 0.0186658)
(-0.00177183 -0.0356403 0.01023)
(-0.0367203 -0.0127746 -0.020035)
(-0.0482303 0.0448809 -0.0208599)
(-0.0149125 0.0654285 -0.0100218)
(-0.00187516 0.0720105 0.00367334)
(0.00190792 0.0781368 0.0159294)
(0.0138586 0.0669535 0.0214958)
(0.0152681 0.0570059 0.0217849)
(0.0139158 0.0442366 0.0272201)
(0.013847 0.0251968 0.0266922)
(0.0149476 0.012679 0.0245948)
(0.0160841 -0.0016616 0.0233463)
(0.0162713 -0.0120143 0.0212824)
(0.00841024 -0.020957 0.0149487)
(0.00717037 -0.0227009 0.00525923)
(0.0124761 -0.0169841 -0.00749725)
(0.00478059 -0.00576573 -0.0161512)
(0.000418466 0.0110798 -0.0050742)
(0.00981922 0.0106631 0.00383298)
(0.0136375 0.00443405 0.0064773)
(0.0252284 0.0325059 0.00133718)
(0.0277766 0.0307633 0.00292887)
(0.0226597 0.0263224 0.00182193)
(0.0218333 0.023503 0.00424879)
(0.0122591 0.0163135 0.0033636)
(0.00969434 0.0103293 0.00440595)
(0.00308382 0.00364115 0.00442539)
(0.00129422 0.00321111 0.00366157)
(0.000679273 0.00379756 0.00296667)
(0.00123032 0.00554849 0.0035067)
(0.00171719 0.00563571 0.00385331)
(0.00308801 0.00576152 0.00434547)
(0.00374992 0.004693 0.00455861)
(0.00411444 0.00415982 0.0047351)
(0.00399785 0.00319159 0.00472064)
(0.00391983 0.00252449 0.00478474)
(0.00369659 0.00181384 0.00478819)
(0.00354202 0.00133747 0.00482537)
(0.00338549 0.000930504 0.00486006)
(0.00325152 0.000652004 0.00490656)
(0.003128 0.000438336 0.0049559)
(0.00301521 0.00029212 0.00500817)
(0.0029117 0.000182236 0.00506028)
(0.00281766 0.000104383 0.00511194)
(0.00273052 4.16062e-05 0.00516384)
(0.0026519 -1.00986e-05 0.00521581)
(0.0025787 -5.74638e-05 0.00526623)
(0.00250904 -0.000103101 0.00531362)
(0.00244373 -0.000149785 0.00535833)
(0.0023828 -0.000205925 0.00540277)
(0.00232779 -0.000276434 0.00544773)
(0.0022753 -0.000384993 0.00549394)
(0.00223099 -0.000536402 0.00554337)
(0.00220482 -0.00076478 0.00559898)
(0.00221688 -0.00106309 0.00565774)
(0.00227309 -0.0014703 0.00571976)
(0.00240462 -0.00193919 0.00577333)
(0.00262356 -0.00248121 0.00580412)
(0.00296111 -0.00298294 0.00578816)
(0.0034406 -0.0034646 0.00570797)
(0.00406496 -0.00386725 0.00554948)
(0.0047485 -0.00438334 0.00535355)
(0.00530056 -0.00500647 0.00512901)
(0.00575791 -0.00583618 0.00485581)
(0.00689423 -0.00728808 0.00475651)
(0.00944688 -0.0103662 0.00420191)
(0.00900714 -0.0128162 -0.000481002)
(0.00104225 -0.00841422 -0.00440269)
(-0.00727649 -0.00250871 -0.00017985)
(-0.00987274 -0.00629863 0.0104903)
(0.00580959 -0.00963296 0.0202976)
(0.0360279 -0.0491307 0.0249129)
(0.0614317 -0.0617133 0.0351269)
(0.09824 -0.116072 0.0421531)
(0.101353 -0.113775 0.0365947)
(0.11484 -0.14876 0.0493373)
(0.0561644 -0.119822 0.0128888)
(0.0302645 -0.19583 0.0340482)
(-0.0157159 0.0424627 -0.0627847)
(0.00521779 -0.0643015 -0.00691651)
(0.195187 -0.261778 0.122188)
(0.107497 -0.0664527 0.0948127)
(0.0700511 -0.114431 0.0543904)
(0.0531784 -0.0976278 0.0460849)
(0.0390878 -0.0756382 -0.00190585)
(0.0193666 -0.0363303 -0.0236093)
(0.019854 0.00114699 -0.0224296)
(0.0277115 0.0301182 -0.00826731)
(0.0315993 0.0416238 -0.00829643)
(0.025999 0.0434086 0.00371999)
(0.0164074 0.0291754 0.0147612)
(0.00838335 0.00881166 0.0246588)
(0.0023523 -0.00400319 0.0250099)
(0.000638224 -0.00166024 0.0214599)
(-0.00144597 -0.000323318 0.00105279)
(-0.0340069 0.0411177 -0.00909194)
(-0.0458205 0.0620968 -0.00562824)
(-0.0484614 0.0653262 -0.0131864)
(-0.030564 0.0693719 -0.0141111)
(-0.00924035 0.0626871 0.00326392)
(-0.00229233 0.0766022 0.0180666)
(0.00247647 0.0790491 0.0248286)
(0.0103664 0.0760445 0.0225032)
(0.00906868 0.0628968 0.0256251)
(0.00667797 0.0509324 0.0305229)
(0.00670331 0.0388132 0.030765)
(0.0092007 0.0315862 0.0330799)
(0.0150788 0.0125523 0.0257539)
(0.0232234 0.00629096 0.0125471)
(0.0194935 -0.000106797 -0.00103864)
(0.0203251 0.00705794 -0.0166185)
(0.0148189 0.0260025 -0.0105202)
(0.00718918 0.032993 -0.00312442)
(0.010891 0.0268118 0.00772859)
(0.0165572 0.0120159 0.0118799)
(0.0182033 0.00683931 0.0123751)
(0.0257901 0.0302252 0.000486917)
(0.0295742 0.0318068 0.00312365)
(0.0241456 0.0271165 0.001793)
(0.0247021 0.0258733 0.00389576)
(0.0169253 0.0195688 0.00299751)
(0.016857 0.0138165 0.00455008)
(0.00595814 0.00535043 0.00345271)
(0.00237375 0.00369622 0.00267644)
(-0.000148982 0.00279583 0.00214974)
(0.000683867 0.00478066 0.00273948)
(0.00130123 0.00429903 0.00309813)
(0.00267062 0.00427602 0.00388314)
(0.00294139 0.003521 0.00420212)
(0.00316147 0.0035209 0.00453043)
(0.00294817 0.00291888 0.00454637)
(0.00284643 0.00254622 0.00462223)
(0.00258814 0.00192866 0.0046055)
(0.00240212 0.00149461 0.00465372)
(0.002201 0.00107659 0.00469329)
(0.00202959 0.000779944 0.00475289)
(0.00187595 0.000547284 0.0048156)
(0.00174197 0.000387582 0.00488447)
(0.00162553 0.000270056 0.00495053)
(0.00152509 0.000190433 0.00501121)
(0.00143712 0.000135001 0.00506927)
(0.00135277 9.51615e-05 0.00512413)
(0.00127222 5.56635e-05 0.00517738)
(0.001197 1.21044e-05 0.0052271)
(0.00112707 -3.69874e-05 0.00527048)
(0.00106634 -9.91092e-05 0.00531201)
(0.00101979 -0.000178783 0.00535548)
(0.000992695 -0.000295725 0.00540205)
(0.00099271 -0.000450585 0.00545128)
(0.0010264 -0.00066769 0.0055016)
(0.0011038 -0.000923771 0.00554502)
(0.00123009 -0.00122486 0.00557207)
(0.00141466 -0.00149499 0.00556459)
(0.00164532 -0.00171096 0.00549535)
(0.00196049 -0.00175959 0.00535427)
(0.00242687 -0.00167185 0.00517318)
(0.00313038 -0.00144131 0.00503403)
(0.00409541 -0.00134011 0.00506661)
(0.00500848 -0.00157894 0.00531054)
(0.00559729 -0.00222499 0.00577188)
(0.00680321 -0.00350768 0.00649835)
(0.00960477 -0.00583457 0.00686827)
(0.00998708 -0.00780908 0.00359884)
(0.00293883 -0.00435976 -0.00243652)
(-0.00555273 0.000512444 -2.45114e-05)
(-0.0118791 -0.010232 0.00582629)
(0.00708577 -0.0170857 0.0155692)
(0.0397931 -0.0521943 0.0338291)
(0.0738182 -0.0496972 0.0560492)
(0.110876 -0.0851952 0.0494628)
(0.109252 -0.0203229 0.0716921)
(0.136595 -0.0980343 0.065837)
(0.0583876 0.0365955 0.14072)
(0.0662448 -0.207466 0.171689)
(-0.0203337 0.136439 -0.0192746)
(0.0284049 -0.153675 -0.0277777)
(0.250096 -0.233771 0.0922384)
(0.116696 -0.00870588 0.0846549)
(0.0596532 -0.0637131 0.057907)
(0.0150064 -0.00451154 0.0168802)
(-0.0127206 0.0673539 -0.0243229)
(0.00485057 0.122735 -0.0138741)
(0.0223606 0.12516 -0.000162162)
(0.0310524 0.105149 0.0264659)
(0.0318172 0.0775994 0.0314885)
(0.0268138 0.0523027 0.0335378)
(0.0205469 0.0374158 0.0303061)
(0.00192761 0.023497 0.0260549)
(-0.0251145 0.0120436 -0.0021191)
(-0.0509431 0.0429813 -0.013916)
(-0.0543269 0.0827409 -0.0166011)
(-0.0453961 0.0964115 -0.00539057)
(-0.0320033 0.0840324 0.00943969)
(-0.0231019 0.0739061 0.0112006)
(-0.00714089 0.0754354 0.0213531)
(-0.00191492 0.076547 0.0260405)
(0.000598184 0.0919876 0.0291614)
(0.00274539 0.0950889 0.0320304)
(0.0054466 0.086663 0.0263915)
(0.00724133 0.0775193 0.0304027)
(-0.0017141 0.063053 0.0306042)
(-0.0104345 0.0595232 0.0275389)
(-0.00732925 0.0491769 0.0245913)
(0.00777877 0.0371112 0.0154517)
(0.0229354 0.0317307 -0.00377439)
(0.0271316 0.0330393 -0.0122128)
(0.0228743 0.0383802 -0.00493362)
(0.0189453 0.0341918 0.00314585)
(0.0180793 0.0280631 0.0105968)
(0.0195303 0.0130541 0.0164987)
(0.0146777 0.00500623 0.0161305)
(0.0196038 -0.000352641 0.0112013)
(0.0258134 0.0275396 0.000319839)
(0.0310829 0.0317105 0.00350476)
(0.0255682 0.0246776 0.0010595)
(0.0273097 0.0245564 0.00280731)
(0.0201729 0.0183676 0.00220412)
(0.0217489 0.0148936 0.00404268)
(0.00972873 0.00698325 0.00138532)
(0.00565576 0.00565136 0.00152044)
(-8.69047e-06 0.00151876 0.00128542)
(0.000308768 0.00347164 0.00204689)
(0.000910734 0.00215524 0.00209091)
(0.00184592 0.00226305 0.00322197)
(0.00142451 0.00187015 0.00349388)
(0.00144429 0.00240736 0.003959)
(0.00109492 0.00219132 0.00393902)
(0.000961899 0.00215195 0.00409038)
(0.000589859 0.00173432 0.00406068)
(0.000331839 0.00142771 0.00410864)
(4.25052e-05 0.00106861 0.00411676)
(-0.000204661 0.000807236 0.004144)
(-0.000431114 0.000583413 0.00416979)
(-0.000628007 0.000426813 0.00419851)
(-0.000797005 0.000311752 0.0042253)
(-0.000935702 0.000233903 0.00425522)
(-0.00105189 0.000171418 0.00428409)
(-0.0011508 0.00012078 0.00431403)
(-0.00123472 7.80468e-05 0.00434307)
(-0.00130436 3.56314e-05 0.00436963)
(-0.0013595 -1.24285e-05 0.0043941)
(-0.00139615 -7.34149e-05 0.00441965)
(-0.00141259 -0.000150228 0.00444742)
(-0.00140553 -0.000255351 0.00447787)
(-0.00136932 -0.00038157 0.00451263)
(-0.00129819 -0.000536355 0.00454929)
(-0.00118711 -0.000680451 0.00457362)
(-0.00103804 -0.00080774 0.00456336)
(-0.000842417 -0.000851071 0.00449113)
(-0.000621911 -0.000812113 0.00433883)
(-0.00033698 -0.000619871 0.00412346)
(0.000104139 -0.000335367 0.00391318)
(0.000856801 2.70448e-05 0.00385698)
(0.0019814 0.000302918 0.00413357)
(0.00304906 0.000487491 0.00475116)
(0.00372206 0.000671841 0.00573667)
(0.00525683 0.000516097 0.0069506)
(0.00896405 -0.0012741 0.00783713)
(0.00999848 -0.00344995 0.00684462)
(0.0051873 -0.000988412 0.00135232)
(-0.000587491 0.00499687 0.00170402)
(-0.00742753 -0.00605983 0.00503605)
(0.00643056 -0.0143467 0.0201228)
(0.0276844 -0.0354932 0.0454983)
(0.0437631 -0.00590779 0.0559748)
(0.0697315 -0.0159983 0.0395713)
(0.0655742 0.0717137 0.0721745)
(0.0944098 -0.0439482 0.0692693)
(0.0577937 0.138503 0.127084)
(0.132999 -0.263546 0.161357)
(-0.0295817 0.194662 -0.112201)
(0.057923 -0.295797 -0.000660338)
(0.184507 -0.0474771 0.0262986)
(0.0215412 0.165341 0.01054)
(0.00433836 0.126624 -0.0113163)
(-0.00634927 0.190169 -0.0151063)
(0.0176731 0.19111 0.00208322)
(0.0317945 0.180488 0.00518047)
(0.0442632 0.164887 0.0152305)
(0.0333169 0.139945 0.0248464)
(0.0234348 0.122509 0.0300389)
(0.000939388 0.094981 0.0148586)
(-0.0162905 0.0820768 -0.0181478)
(-0.027902 0.0805886 -0.0265166)
(-0.0445283 0.0910862 -0.0344756)
(-0.0517128 0.102116 -0.0327127)
(-0.0426233 0.113515 -0.0110319)
(-0.0302181 0.0997162 0.0225036)
(-0.0217258 0.0972219 0.0374282)
(-0.0194766 0.0944019 0.0395528)
(-0.00997459 0.104208 0.0319519)
(-0.00808853 0.1159 0.0225716)
(-0.00249978 0.124732 0.024212)
(-0.00121886 0.126477 0.0232985)
(-0.000658455 0.115684 0.0336092)
(-0.00550443 0.105444 0.03436)
(-0.0166468 0.0914861 0.0291073)
(-0.0196864 0.0807746 0.0118933)
(-0.00529257 0.0745389 0.00134531)
(0.000974467 0.0690071 -0.00709481)
(0.0134129 0.0674133 -0.00201438)
(0.0253144 0.0522016 0.00717139)
(0.0302423 0.0370045 0.00554962)
(0.026261 0.0253806 0.00602936)
(0.0208487 0.0182351 0.0139702)
(0.0181798 0.00566906 0.0185043)
(0.0115801 0.00231469 0.0189561)
(0.0173574 -0.0104983 -0.00311569)
(0.0235894 0.0262386 0.00521373)
(0.0312644 0.0327752 0.00507986)
(0.0255059 0.0218837 0.00102683)
(0.0287234 0.0231239 0.00375812)
(0.0210738 0.0139436 0.00240962)
(0.0237129 0.0137995 0.00409505)
(0.0120695 0.00549509 0.00138868)
(0.00960808 0.00669468 0.00147807)
(0.00173339 0.00058734 0.00112007)
(0.000953363 0.00249531 0.00238825)
(0.000985528 -0.000193021 0.00211058)
(0.00140733 8.63349e-05 0.00323133)
(0.000462038 -0.000222009 0.00316706)
(0.000554806 0.0010544 0.00374534)
(0.000243911 0.00117727 0.00372)
(0.000121903 0.00149627 0.00396263)
(-0.000268189 0.00131833 0.00394615)
(-0.000527181 0.00124291 0.00397079)
(-0.000839176 0.00101481 0.00389823)
(-0.00108508 0.000851781 0.00384428)
(-0.00130708 0.000689515 0.00378166)
(-0.00148545 0.000578208 0.00373685)
(-0.00162614 0.000495825 0.00370405)
(-0.00173333 0.000445542 0.00367912)
(-0.00181274 0.000411842 0.00366176)
(-0.00186876 0.000389584 0.00365149)
(-0.00190692 0.000371939 0.00364331)
(-0.0019312 0.000354655 0.0036345)
(-0.00194648 0.00033154 0.00362463)
(-0.00194433 0.000295752 0.00361967)
(-0.00191819 0.000250699 0.00362473)
(-0.00186047 0.000194139 0.00364106)
(-0.00177042 0.000140675 0.00366642)
(-0.00164982 9.76936e-05 0.00369144)
(-0.00149691 0.000107635 0.00369926)
(-0.00131263 0.000176785 0.00366295)
(-0.00109292 0.000340995 0.00355581)
(-0.000854845 0.000549463 0.0033659)
(-0.000578105 0.000807163 0.00311768)
(-0.000188065 0.00102229 0.00288477)
(0.000385729 0.00128269 0.00280783)
(0.00110563 0.00167064 0.00303809)
(0.0014715 0.00245769 0.00352519)
(0.00145337 0.00377993 0.0043384)
(0.00354076 0.00507908 0.0054136)
(0.00831469 0.00505316 0.00624796)
(0.0106355 0.00487037 0.00622056)
(0.00689068 0.00733014 0.00675781)
(0.00422221 0.0135198 0.00609188)
(0.00207157 0.00674092 0.0049869)
(0.005557 0.00148398 0.0181342)
(-0.00149747 -0.0231422 0.0430627)
(-0.00266595 -0.00105936 0.0554173)
(-0.00172616 -0.0327053 0.0440751)
(0.0221181 0.0726471 0.087381)
(0.0400709 -0.0927459 0.0618146)
(0.0856142 0.135136 0.0436294)
(0.10598 -0.253093 0.117852)
(-0.0498222 0.29102 -0.0727298)
(0.0290444 -0.35492 0.0239799)
(0.0877552 0.0371954 -0.0116221)
(0.024138 0.201514 -0.0163732)
(0.0197142 0.214586 -0.0118336)
(0.0184454 0.248707 -0.000392771)
(0.0344601 0.251962 0.0160816)
(0.0349611 0.245569 0.0298318)
(0.0354953 0.230728 0.0377481)
(0.0286584 0.214563 0.0374598)
(0.0252747 0.197556 0.0250873)
(0.0194387 0.184112 0.0150476)
(0.0191187 0.17821 0.00854568)
(0.0117297 0.17082 0.00666753)
(-0.0026716 0.162095 0.00419689)
(-0.0121433 0.156068 0.0133371)
(-0.0127584 0.155492 0.0313785)
(-0.0151909 0.152522 0.0378935)
(-0.0158445 0.15174 0.0390666)
(-0.0150032 0.149343 0.0272903)
(-0.0115728 0.151557 0.00991908)
(-0.00877601 0.153795 0.00405125)
(-0.00654374 0.155448 0.0034738)
(-0.00330119 0.150567 0.0193971)
(-0.00303862 0.135508 0.0357972)
(-0.00323227 0.11625 0.0372678)
(-0.0150425 0.089684 0.0216603)
(-0.0177043 0.0748596 0.00220047)
(-0.0121537 0.0785249 -0.0126163)
(-0.000620374 0.0759081 -0.0129426)
(0.0237959 0.0702806 -0.00337677)
(0.0343405 0.0493369 -0.00245462)
(0.0338484 0.0369011 -0.0100742)
(0.0231711 0.0211287 -0.0045216)
(0.014663 0.0153165 0.00657948)
(0.011106 0.00613248 0.0117297)
(0.00807139 0.00473478 0.00964062)
(0.0322853 -0.0189566 -0.0239138)
(0.0163586 0.0268212 0.00495639)
(0.0293481 0.0372468 0.00741719)
(0.0233758 0.019511 0.0026189)
(0.0284283 0.0238823 0.0065378)
(0.0196388 0.00902909 0.00499613)
(0.0231523 0.011673 0.00787434)
(0.0104071 0.000647051 0.00504757)
(0.0109376 0.00548654 0.0036365)
(0.00242225 -0.00122382 0.00213701)
(0.00154022 0.00212135 0.00307857)
(0.000756747 -0.00183537 0.00297794)
(-0.000303356 -0.000791562 0.00368457)
(-0.00228924 -0.00146189 0.00328046)
(-0.00260636 0.000104792 0.00391705)
(-0.00275129 0.000157395 0.00414452)
(-0.00268756 0.000740132 0.00454032)
(-0.00308811 0.000773507 0.00454619)
(-0.00335597 0.000998088 0.00453999)
(-0.00373811 0.000973972 0.00440922)
(-0.00401841 0.000987482 0.00432746)
(-0.00428568 0.00093922 0.00423419)
(-0.00450105 0.000911547 0.00416616)
(-0.00467602 0.000886838 0.00411172)
(-0.00480454 0.000875793 0.00406216)
(-0.00489757 0.000865987 0.0040142)
(-0.00495416 0.000864708 0.00397914)
(-0.00498214 0.000868729 0.00395058)
(-0.00498333 0.000875683 0.00393008)
(-0.00495856 0.00087779 0.00391819)
(-0.00490985 0.000870472 0.0039174)
(-0.00484018 0.000865581 0.00392878)
(-0.00474456 0.000871847 0.0039507)
(-0.00462711 0.000907916 0.00398062)
(-0.00448603 0.000986312 0.00401298)
(-0.0043221 0.00114093 0.00403892)
(-0.00411691 0.00135719 0.00404578)
(-0.00383862 0.00162662 0.00401701)
(-0.00348023 0.00185319 0.0039365)
(-0.00304905 0.00198111 0.00380271)
(-0.00257557 0.00195798 0.0036385)
(-0.00220064 0.00193724 0.00346029)
(-0.00209327 0.00222725 0.00326426)
(-0.00249457 0.00332542 0.00283048)
(-0.00288437 0.00583768 0.00246178)
(-0.000810571 0.00953884 0.00233719)
(0.00436526 0.0135591 0.00221242)
(0.00755361 0.0166053 0.00164231)
(0.00428653 0.0190278 0.00430994)
(0.00279136 0.0183759 0.00674867)
(0.0108319 0.009001 0.00841319)
(0.0089343 0.00613099 0.0186637)
(-0.013075 -0.0209618 0.0373852)
(-0.00713138 -0.0074544 0.0536965)
(-0.0121154 -0.0589188 0.0414885)
(0.0424451 0.0380291 0.0684472)
(0.0105442 -0.0451074 0.0478134)
(0.0994898 0.139294 0.00789613)
(0.0317852 -0.030713 0.0281267)
(-0.125797 0.363561 0.0616527)
(-0.015716 -0.390636 0.026136)
(0.00396328 0.0052277 -0.0253217)
(-0.010153 0.206718 -0.0174965)
(-0.00198473 0.23057 -0.000250722)
(0.0162334 0.264471 0.00828269)
(0.0309909 0.263858 0.0278863)
(0.0307522 0.26113 0.0411277)
(0.0300077 0.250528 0.0446438)
(0.0227279 0.24305 0.0414969)
(0.0231541 0.231285 0.035605)
(0.0214459 0.223835 0.0351266)
(0.0258679 0.21444 0.0334386)
(0.0263706 0.202063 0.0316515)
(0.0175325 0.18894 0.0245118)
(0.00462447 0.178754 0.0154035)
(-0.00325373 0.175463 0.00752834)
(-0.00880971 0.174325 0.00427545)
(-0.00882922 0.16527 -0.00403148)
(-0.00608351 0.161034 -0.0152737)
(-0.00451252 0.159283 -0.0203544)
(-0.00268327 0.159033 -0.0214899)
(0.000474566 0.156027 -0.0103038)
(0.00222215 0.147509 0.0130394)
(0.00944779 0.134147 0.0318492)
(0.00947586 0.110176 0.0364269)
(-0.00532957 0.0861167 0.0271306)
(-0.0104062 0.0671447 0.0150774)
(0.00227949 0.0625 0.002053)
(0.0242705 0.0469732 0.00792058)
(0.0425683 0.033617 0.00893262)
(0.053176 0.0188926 0.0037364)
(0.0516188 0.00958776 -0.00524172)
(0.0321015 0.00139228 -0.0165747)
(0.0173356 -0.0055527 -0.0237534)
(0.00834103 -0.0172095 -0.0245871)
(0.0149636 -0.0142267 -0.0222073)
(0.0277315 -0.0237682 -0.0367785)
(0.0102693 0.0230005 -0.000476446)
(0.0272408 0.0431339 0.00675689)
(0.0190661 0.0150435 0.00373944)
(0.0263023 0.0250741 0.00758809)
(0.0172548 0.00328847 0.00723467)
(0.0201055 0.0103357 0.0111377)
(0.00790167 -0.00153108 0.00760528)
(0.00840496 0.00504691 0.0068546)
(0.000668686 -0.00308876 0.00465608)
(0.000635907 0.00198288 0.00451154)
(-2.30447e-05 -0.00306297 0.00444174)
(-0.00076751 -0.000552508 0.00504351)
(-0.00258232 -0.00155719 0.00505387)
(-0.00279853 -0.000281837 0.00573313)
(-0.00308164 -0.000684881 0.00630397)
(-0.00318633 0.000170795 0.00666371)
(-0.00367101 0.000185383 0.00680498)
(-0.00378406 0.000743113 0.00687544)
(-0.00402231 0.000865145 0.00680107)
(-0.00415491 0.001079 0.00670981)
(-0.00429778 0.00115537 0.0065883)
(-0.00439114 0.00121596 0.00648338)
(-0.00444525 0.00124553 0.0063942)
(-0.00444843 0.00127153 0.00633877)
(-0.00441491 0.00129574 0.00631121)
(-0.00436605 0.00133074 0.00628731)
(-0.00430336 0.00137071 0.00626424)
(-0.00423069 0.00140943 0.00624613)
(-0.00415063 0.00144252 0.00623214)
(-0.00406025 0.00146996 0.00622255)
(-0.003961 0.00150951 0.00621684)
(-0.00384673 0.00156856 0.00621433)
(-0.0037178 0.00167632 0.00621371)
(-0.00357851 0.00183751 0.00621446)
(-0.00342401 0.00206698 0.00621772)
(-0.00322105 0.00233283 0.0062249)
(-0.00291782 0.00261645 0.00623054)
(-0.00249336 0.00281419 0.00622483)
(-0.00196889 0.00290792 0.00619502)
(-0.00148052 0.00288943 0.00611579)
(-0.00129866 0.00298501 0.00587465)
(-0.00185972 0.00356874 0.00535018)
(-0.00359322 0.00495617 0.0044007)
(-0.00581397 0.00732151 0.00321274)
(-0.0050873 0.0105663 0.00218022)
(0.000167064 0.0152695 0.00140465)
(0.00671604 0.0169099 -0.00111819)
(0.0103236 0.0200346 -0.00317816)
(0.0153843 0.0141333 -0.00247183)
(0.0176369 0.00476177 0.00784205)
(0.00911776 0.00300456 0.0197316)
(-0.0247042 -0.00731928 0.0378955)
(-0.0264013 0.010227 0.0488026)
(-0.0505832 0.0640465 -0.00752919)
(-0.0440108 0.208642 -0.0562557)
(-0.0406644 0.274605 -0.0405246)
(0.00561211 0.295987 -0.013179)
(0.0124042 0.252835 0.0378667)
(-0.0181011 0.4659 0.0917375)
(-0.000545397 -0.40288 0.0326697)
(-0.0939271 0.00507064 -0.0250918)
(-0.0518786 0.189849 -0.0195183)
(-0.0294156 0.195667 0.0123322)
(-0.00772083 0.216812 0.0227019)
(0.00241409 0.205125 0.0419634)
(0.00300637 0.200883 0.0511694)
(0.00208914 0.190383 0.0490147)
(0.0064259 0.18695 0.0362975)
(0.0179796 0.185733 0.0295326)
(0.0308657 0.187405 0.0361633)
(0.0366205 0.182693 0.040631)
(0.042552 0.177955 0.0359789)
(0.0402098 0.170015 0.0308671)
(0.0269434 0.162976 0.0205612)
(0.0140123 0.159707 0.00730762)
(0.0109336 0.153846 0.0011559)
(0.00806342 0.150845 -0.00189784)
(0.00905045 0.143389 -0.0100762)
(0.00608929 0.143917 -0.0183453)
(0.0047729 0.14488 -0.0220792)
(0.00432708 0.143765 -0.0151035)
(0.0103032 0.140426 0.00692004)
(0.014805 0.131737 0.0151279)
(0.0244688 0.123005 0.0248063)
(0.0211416 0.111162 0.0296416)
(0.0190077 0.0910482 0.0171843)
(0.0297694 0.0789769 0.0154219)
(0.0524946 0.0664201 0.0210228)
(0.0722741 0.0512191 0.0299389)
(0.0827202 0.0313098 0.0313285)
(0.0797247 0.0136389 0.0255785)
(0.0637887 -0.00237948 0.0167838)
(0.050488 -0.0152699 0.00429419)
(0.0371157 -0.0280587 -0.00202205)
(0.0320647 -0.0274263 -0.0100368)
(0.0246461 -0.0262692 -0.0464215)
(-0.00402374 0.0168003 -0.0215104)
(0.0254972 0.0486227 0.00314453)
(0.0126418 0.00742091 0.00212135)
(0.0224739 0.0262134 0.00458671)
(0.0106982 -0.00235152 0.00470732)
(0.0117532 0.0100929 0.00695258)
(0.00250417 0.00067819 0.00538303)
(0.00435496 0.0068495 0.00557996)
(-0.00236695 -0.000643594 0.00266127)
(-0.00175658 0.00377577 0.00183774)
(-0.00249311 -0.00144655 0.00129582)
(-0.00460944 0.000927528 0.00135801)
(-0.00654234 -0.00141508 0.00173781)
(-0.00654803 -0.000306473 0.00220814)
(-0.00735833 -0.00113048 0.0029329)
(-0.00721523 -2.09677e-05 0.0031846)
(-0.00783247 -0.000160467 0.00349656)
(-0.00794171 0.000558394 0.00366952)
(-0.00828968 0.000706526 0.0037686)
(-0.00847328 0.00104973 0.00382587)
(-0.00866617 0.00121095 0.00382642)
(-0.00880982 0.00135267 0.00382286)
(-0.00892033 0.00144112 0.003814)
(-0.0089983 0.00150966 0.00381408)
(-0.00905142 0.00155736 0.00382067)
(-0.00904593 0.00160681 0.00384093)
(-0.00899423 0.00166761 0.00386426)
(-0.0089085 0.00173794 0.00388834)
(-0.0087941 0.00180353 0.00390902)
(-0.00866794 0.00186629 0.00392624)
(-0.00854049 0.00194276 0.00393825)
(-0.00840892 0.00203588 0.00394469)
(-0.00826468 0.00216904 0.00395045)
(-0.00809836 0.00234447 0.00396365)
(-0.00788652 0.00256993 0.00399392)
(-0.00758598 0.00281813 0.00404755)
(-0.00714305 0.00309274 0.0041213)
(-0.00659405 0.00336214 0.00418812)
(-0.00609971 0.00363683 0.00420685)
(-0.00586449 0.00399788 0.00412867)
(-0.00628744 0.00459855 0.00385224)
(-0.00764444 0.00555147 0.00312599)
(-0.00945553 0.00705225 0.00170979)
(-0.0109361 0.00876763 0.00018498)
(-0.00990638 0.0107563 -0.000944664)
(-0.00449114 0.0130563 -0.00200751)
(0.0042946 0.0135822 -0.00190887)
(0.0119907 0.0131891 -0.00380739)
(0.0205682 0.0124079 -0.00205416)
(0.0204343 0.00762674 0.00485555)
(0.00067517 0.00182522 0.0127508)
(-0.0360337 -0.0126204 0.0318686)
(-0.0620112 -0.00245081 0.0392151)
(-0.105492 0.04578 -0.00448613)
(-0.0902152 0.162469 -0.0675987)
(-0.00794389 0.275044 -0.0516876)
(0.0677164 0.318514 0.00794788)
(0.126241 0.278902 0.0449735)
(0.196891 0.552801 0.077274)
(0.00111622 -0.376463 0.0369413)
(-0.15838 -0.0410019 -0.0344737)
(-0.0626261 0.16534 -0.0195573)
(-0.045881 0.142895 -0.00608325)
(-0.0132361 0.17067 0.0027984)
(-0.0100317 0.1603 0.0125872)
(-0.0222911 0.14375 0.0230157)
(-0.0314002 0.124997 0.0229927)
(-0.0241704 0.103884 0.0284552)
(-0.0116061 0.093618 0.0267948)
(-0.00300247 0.0906143 0.0233096)
(-0.000291125 0.0952696 0.0222281)
(-0.00134707 0.0974746 0.0231923)
(0.0024456 0.089731 0.0213124)
(0.00725103 0.0837388 0.0106718)
(0.0142372 0.0727423 0.00583159)
(0.0150798 0.0696554 0.00301152)
(0.0185997 0.0679293 0.00924808)
(0.0199906 0.0703138 0.0195821)
(0.0196102 0.069995 0.0200847)