/*--------------------------------*- C++ -*----------------------------------*\
| =========                 |                                                 |
| \\      /  F ield         | OpenFOAM: The Open Source CFD Toolbox           |
|  \\    /   O peration     | Version:  2.3.0                                 |
|   \\  /    A nd           | Web:      www.OpenFOAM.org                      |
|    \\/     M anipulation  |                                                 |
\*---------------------------------------------------------------------------*/
FoamFile
{
    version     2.0;
    format      ascii;
    class       volVectorField;
    location    "17";
    object      U.water;
}
// * * * * * * * * * * * * * * * * * * * * * * * * * * * * * * * * * * * * * //

dimensions      [0 1 -1 0 0 0 0];

internalField   nonuniform List<vector> 
6144
(
(0.0118064 0.0244962 -0.00219822)
(0.0118916 -0.000148835 -0.00255154)
(0.00491047 -0.00285595 -0.00287004)
(0.00416448 -0.00716523 -0.00232848)
(0.00170183 -0.00953036 -0.000985091)
(0.00154056 -0.00893311 -0.000516368)
(0.000671849 -0.00846067 -0.000599271)
(0.00106843 -0.00560638 -0.000973434)
(0.00117534 -0.00282043 -0.00162056)
(0.0014412 0.000530759 -0.00122664)
(0.00161784 0.00263248 -0.000498556)
(0.00191685 0.00387041 0.000233819)
(0.00220879 0.00370197 0.000546322)
(0.00241815 0.00302621 0.000677066)
(0.00248747 0.00210831 0.000514215)
(0.002518 0.00138291 0.000353052)
(0.00252241 0.00077562 0.000176029)
(0.00252488 0.000360181 5.6837e-05)
(0.0025235 3.8934e-05 -3.60914e-05)
(0.00251878 -0.000172495 -9.23138e-05)
(0.00251177 -0.00033161 -0.000126679)
(0.00250079 -0.000439784 -0.000140854)
(0.00249021 -0.000515782 -0.000142324)
(0.0024779 -0.000577806 -0.00013399)
(0.00246431 -0.000619775 -0.000121567)
(0.00245041 -0.000656331 -0.000105489)
(0.00243553 -0.000676704 -8.73613e-05)
(0.00242391 -0.000696195 -6.65609e-05)
(0.00241342 -0.00071248 -4.53665e-05)
(0.00240131 -0.000731283 -2.59651e-05)
(0.0023912 -0.00073546 -6.25541e-06)
(0.00238173 -0.000771743 1.00191e-05)
(0.00237502 -0.000732744 3.06145e-05)
(0.00236673 -0.000846884 3.72432e-05)
(0.00236318 -0.000676341 6.92408e-05)
(0.00235893 -0.00101308 6.02489e-05)
(0.00235088 -0.000542761 0.000116532)
(0.00236772 -0.00134044 9.07084e-05)
(0.00233164 -0.000329054 0.000177799)
(0.0023831 -0.00189097 0.000159815)
(0.00229265 -7.65019e-05 0.000284326)
(0.00243365 -0.00279795 0.000328698)
(0.00226627 2.49509e-05 0.000448829)
(0.00258272 -0.0044668 0.000561886)
(0.00225054 -8.33353e-05 0.000489753)
(0.00266628 -0.00726392 0.000545439)
(0.00211627 0.000592079 -0.000174228)
(0.00220469 -0.00997249 0.000163788)
(0.00217043 0.00444034 -0.000956406)
(0.00149724 -0.0114471 -0.000704489)
(0.00552798 0.0102163 -0.00157719)
(-0.000118344 -0.0191673 -0.00215252)
(0.00963899 0.0235974 -0.00188892)
(0.00785015 -0.0347054 -0.00572295)
(0.000592616 0.0399236 -0.00870554)
(0.000962239 -0.0423884 -0.0137745)
(0.0231933 0.0759902 -0.0160853)
(-0.00525886 -0.0643876 -0.0301516)
(-0.050626 0.152922 -0.0595094)
(0.0404131 -0.107728 -0.140679)
(0.124439 -0.254513 -0.0262139)
(0.0734441 -0.0732762 -0.00715247)
(0.022222 -0.137485 0.0044477)
(0.0274571 -0.128915 0.00736767)
(0.0219435 -0.130202 0.0080562)
(0.0129841 -0.13673 0.00988963)
(0.00745888 -0.142463 0.0107155)
(0.0040874 -0.146511 0.0102131)
(0.00171102 -0.149137 0.00909685)
(6.0808e-05 -0.150396 0.00780425)
(-0.000986622 -0.150544 0.0066101)
(-0.00148361 -0.149882 0.00556556)
(-0.0015792 -0.148898 0.00476028)
(-0.00133799 -0.14803 0.00408875)
(-0.000821314 -0.147683 0.00359086)
(-0.00037968 -0.148012 0.0030253)
(0.000102634 -0.148923 0.00267313)
(0.000426393 -0.150606 0.0022316)
(0.000488536 -0.152455 0.00167307)
(0.00067744 -0.154256 0.00147206)
(0.000549636 -0.156141 0.00100623)
(-0.000315372 -0.156553 0.000467435)
(-0.000687597 -0.155754 2.42169e-05)
(-0.00130445 -0.153459 0.0004947)
(-0.00269297 -0.14941 -0.00118551)
(-0.00382402 -0.140854 -0.000198387)
(-0.00699905 -0.131469 -0.0028785)
(-0.00752866 -0.112155 -0.00277731)
(-0.0134651 -0.0944708 -0.0059295)
(-0.0140156 -0.0606217 -0.0141304)
(-0.00910766 -0.014197 -0.00779946)
(-0.0031977 0.0111823 -0.00849651)
(-0.000922441 0.0339483 -0.00878345)
(-0.0013736 0.0427349 -0.000986782)
(-0.00118843 0.0323054 0.0148226)
(0.00115577 0.0181096 0.0239451)
(0.0244647 0.0341518 0.00129778)
(0.0234803 0.0201835 0.00123665)
(0.0135787 0.0160323 -0.00067315)
(0.0129232 0.00813579 0.00152141)
(0.00531501 -5.68239e-06 0.00250525)
(0.00412589 -0.0023472 0.00305201)
(0.00128399 -0.00529004 0.0029484)
(0.00161626 -0.00236026 0.00164152)
(0.00142039 -0.000146687 0.00119674)
(0.0019158 0.00319016 0.00152703)
(0.00244063 0.00478425 0.00230084)
(0.00337718 0.00561679 0.00326461)
(0.0040696 0.00487069 0.00378338)
(0.0044645 0.00401197 0.00405956)
(0.00455571 0.00290116 0.0039867)
(0.00458775 0.00206212 0.00386537)
(0.00456272 0.00134049 0.00371918)
(0.00453847 0.000850164 0.00362002)
(0.00450628 0.00046479 0.00354657)
(0.00447275 0.000215165 0.00350989)
(0.00443941 2.30619e-05 0.00349876)
(0.00440256 -0.000102849 0.00351016)
(0.00436876 -0.00019323 0.00353478)
(0.00433399 -0.00026283 0.00356985)
(0.00429859 -0.000306431 0.00360763)
(0.00426264 -0.000343004 0.00365037)
(0.00422503 -0.000358221 0.00369569)
(0.00419371 -0.000380159 0.00374309)
(0.00416347 -0.000390375 0.00379032)
(0.00413199 -0.000404469 0.00383461)
(0.00410797 -0.000405069 0.00387822)
(0.00407711 -0.000440765 0.00391628)
(0.00406825 -0.000392502 0.00396187)
(0.00402371 -0.000512971 0.00397986)
(0.00405278 -0.000312757 0.00405493)
(0.00397317 -0.000693576 0.00402946)
(0.00405815 -0.000131716 0.00416535)
(0.00393687 -0.00105925 0.0040705)
(0.00404967 0.000152314 0.00428592)
(0.00395545 -0.00171093 0.00415922)
(0.00400586 0.00049731 0.00443371)
(0.00413302 -0.00280784 0.00439481)
(0.00403144 0.000762917 0.00450439)
(0.00447309 -0.00474346 0.00473068)
(0.00418585 0.000803787 0.00437554)
(0.00492357 -0.00784036 0.0045853)
(0.00407617 0.00125605 0.00351792)
(0.00437564 -0.0110757 0.00409442)
(0.00366023 0.0030894 0.00202918)
(0.00301274 -0.0138065 0.00415998)
(0.00764839 0.00412228 0.00156555)
(0.00188671 -0.0186175 0.00240798)
(0.00958522 0.00640884 -0.00077183)
(0.00546477 -0.0102143 -0.00345919)
(0.0135622 0.0606192 0.0060629)
(0.0371708 -0.0690729 0.00322128)
(-0.0328772 0.0399933 -0.00188049)
(-0.0407343 -0.0204977 -0.00687298)
(0.00982241 0.197151 0.0110339)
(0.174741 -0.133418 -0.0771563)
(0.175842 -0.202486 -0.0276305)
(0.0315946 0.130722 0.00952418)
(-0.0423637 -0.125204 0.0173635)
(-0.0229317 -0.0515211 0.013973)
(-0.0284823 -0.0809042 0.0154505)
(-0.0274198 -0.0971719 0.017641)
(-0.0246657 -0.105243 0.0167434)
(-0.0221755 -0.113087 0.0146934)
(-0.0199459 -0.119496 0.0124178)
(-0.0179777 -0.123362 0.0100878)
(-0.0159778 -0.125155 0.00809329)
(-0.0140272 -0.12547 0.00647183)
(-0.0119825 -0.125189 0.00524082)
(-0.00980888 -0.124921 0.00415116)
(-0.00745155 -0.125061 0.00328915)
(-0.00505872 -0.125957 0.00241743)
(-0.00289287 -0.127214 0.00177683)
(-0.0012989 -0.128801 0.00109512)
(-0.000166381 -0.130504 0.000582115)
(0.000130724 -0.132586 0.000155415)
(0.000203769 -0.134032 -0.000132464)
(-0.000708177 -0.135852 4.94531e-06)
(-0.00252887 -0.136392 -0.000668689)
(-0.00447031 -0.135141 -0.000127601)
(-0.00815265 -0.132791 -0.00152948)
(-0.0109805 -0.125925 -0.000610334)
(-0.0161617 -0.118539 -0.00333307)
(-0.0199384 -0.102393 -0.00340766)
(-0.0230473 -0.0866359 -0.00593678)
(-0.0312026 -0.0617642 -0.0141985)
(-0.025273 -0.0224692 -0.00841106)
(-0.0120418 0.002401 -0.00788508)
(-0.00548173 0.0267964 -0.00539538)
(-0.00564024 0.0372229 0.00523301)
(-0.00658893 0.0279917 0.0212383)
(-0.00410644 0.0163981 0.0313786)
(0.028406 0.0364573 0.0018053)
(0.0292835 0.0298976 0.00313513)
(0.0216808 0.0254562 0.000834809)
(0.0214461 0.0182992 0.00290111)
(0.0103167 0.00977144 0.00217767)
(0.00672195 0.00528617 0.00320395)
(0.000658974 -0.00120362 0.00390542)
(0.000176062 0.000562356 0.00255337)
(1.59654e-06 0.00161514 0.00222899)
(0.000865649 0.00460893 0.00246159)
(0.00155662 0.00528272 0.00327352)
(0.00314706 0.00585364 0.00408269)
(0.00407857 0.00487693 0.00445286)
(0.00452918 0.00419703 0.00468163)
(0.0044777 0.00321176 0.00473256)
(0.00434413 0.00249649 0.00478815)
(0.00413146 0.00181963 0.004809)
(0.0039595 0.00135154 0.00483593)
(0.0037966 0.000967514 0.00486778)
(0.00366384 0.00071269 0.00490678)
(0.00354828 0.000513513 0.004954)
(0.00344758 0.000380182 0.00500605)
(0.00336018 0.000283106 0.00505956)
(0.00328284 0.000208021 0.00511294)
(0.00321018 0.000158199 0.00516359)
(0.00314262 0.000117037 0.00521252)
(0.00308171 0.000103043 0.00525918)
(0.00303266 7.72867e-05 0.00530763)
(0.00298581 7.1285e-05 0.00535437)
(0.00294455 6.01439e-05 0.00540055)
(0.00291141 5.57367e-05 0.00544525)
(0.00286865 3.55657e-05 0.00548223)
(0.00285408 6.39302e-05 0.00551833)
(0.00279163 -1.55274e-05 0.00554615)
(0.00284701 0.000123423 0.00560095)
(0.0027177 -0.000172473 0.00560382)
(0.00289898 0.000278619 0.00568287)
(0.00264664 -0.000543648 0.0056495)
(0.00297262 0.000570786 0.00576503)
(0.00265278 -0.00124252 0.0056883)
(0.00309832 0.0010159 0.00585395)
(0.00290445 -0.00239556 0.00572131)
(0.00334445 0.00142294 0.00587141)
(0.00360363 -0.00421759 0.00584111)
(0.00364939 0.00211754 0.00572458)
(0.00453313 -0.00691364 0.00578971)
(0.00328611 0.00330458 0.00530543)
(0.00435865 -0.00987244 0.00587617)
(0.002719 0.00452968 0.00438842)
(0.00484861 -0.0134555 0.00648727)
(0.00638416 0.00316219 0.00373698)
(0.00614822 -0.0178302 0.00474391)
(0.000659556 0.00221669 0.00149012)
(-0.00908432 -0.0190282 0.0025655)
(0.0317255 0.0475109 0.0165907)
(0.0543069 -0.0810476 0.00714421)
(-0.0662525 0.0835744 0.0110738)
(-0.0863724 -0.121541 -0.00800791)
(-0.0762595 0.134011 -0.00621282)
(0.174386 -0.117133 -0.0639512)
(0.184928 -0.156437 -0.0293023)
(0.0613862 0.147618 0.0117242)
(0.0634361 -0.0946368 0.0215832)
(0.00470686 0.00170159 0.0205932)
(-0.0152539 -0.0564377 0.01942)
(-0.015191 -0.0647141 0.0192456)
(-0.0183787 -0.0738633 0.0165809)
(-0.0206137 -0.0817053 0.0120738)
(-0.0206939 -0.08689 0.00745773)
(-0.0192891 -0.0896585 0.00345806)
(-0.0168496 -0.0902551 0.000249378)
(-0.0137155 -0.0894568 -0.00200289)
(-0.0100525 -0.0878797 -0.00361363)
(-0.00635809 -0.0857762 -0.00482503)
(-0.0028734 -0.0834657 -0.0056464)
(0.000261693 -0.0811196 -0.00624857)
(0.00298442 -0.0795289 -0.00641221)
(0.00512717 -0.0793021 -0.00614474)
(0.00654895 -0.0798876 -0.00537103)
(0.0070506 -0.082055 -0.00465946)
(0.00667305 -0.084335 -0.00360593)
(0.00495492 -0.0881981 -0.00267307)
(0.00204223 -0.0912905 -0.00223589)
(-0.00177914 -0.0943878 -0.000758303)
(-0.00761404 -0.0976543 -0.00179292)
(-0.0139603 -0.0957836 -0.000343337)
(-0.0219692 -0.093252 -0.0035386)
(-0.0298183 -0.0815314 -0.00525857)
(-0.0379189 -0.0691671 -0.00764304)
(-0.043625 -0.050613 -0.0167095)
(-0.0376705 -0.0162102 -0.0114547)
(-0.0212066 0.00412725 -0.00758881)
(-0.011062 0.0236161 -0.00461844)
(-0.0110501 0.0334446 0.00776905)
(-0.0144012 0.0250548 0.0238761)
(-0.0142295 0.0135186 0.0340459)
(0.0298732 0.0356123 0.00179077)
(0.0321855 0.0342441 0.00418481)
(0.0258898 0.0288363 0.00167211)
(0.0260151 0.0247814 0.00307647)
(0.0160879 0.0180115 0.00166477)
(0.0133157 0.0130163 0.00335434)
(0.00362609 0.00329289 0.0031079)
(0.000280068 0.00249528 0.00224663)
(-0.0011497 0.00157916 0.00149435)
(0.000225542 0.00457453 0.00179586)
(0.00103333 0.00453228 0.00256451)
(0.00275948 0.00489384 0.00366298)
(0.00344915 0.00397298 0.00418734)
(0.00373435 0.00372837 0.00455311)
(0.00352227 0.00305506 0.00461474)
(0.00333017 0.00257066 0.00468553)
(0.00307172 0.001984 0.00471161)
(0.00285889 0.00155322 0.00475855)
(0.00265927 0.00117585 0.0048106)
(0.00248827 0.000911984 0.00486937)
(0.00234516 0.000706688 0.00493489)
(0.00221841 0.000569144 0.0049996)
(0.00211117 0.000470644 0.00505742)
(0.00202126 0.000398432 0.00511339)
(0.00193914 0.000350445 0.00516709)
(0.00186007 0.000315938 0.00521543)
(0.00178863 0.000300152 0.0052581)
(0.00172898 0.000280618 0.00530147)
(0.00166985 0.00027831 0.00534243)
(0.00161916 0.000273061 0.00538269)
(0.00157545 0.000275514 0.00542148)
(0.00153254 0.00026858 0.00545861)
(0.00150996 0.000289076 0.00549701)
(0.00146398 0.000238575 0.00552377)
(0.00149031 0.000344629 0.00556403)
(0.00139412 0.000100683 0.00556722)
(0.00154977 0.000491084 0.00563449)
(0.00134032 -0.000264301 0.00560483)
(0.00169541 0.000774598 0.00570916)
(0.00133759 -0.000972707 0.0056303)
(0.00198464 0.00124466 0.00580049)
(0.00149007 -0.00210755 0.00561478)
(0.00246306 0.00202535 0.00590704)
(0.00204028 -0.00370116 0.00555674)
(0.00304889 0.00345542 0.00601411)
(0.00276676 -0.00578302 0.00547326)
(0.00307374 0.00575097 0.00612206)
(0.00310767 -0.00846845 0.0058658)
(0.00245549 0.00724896 0.0062058)
(0.00487822 -0.0127956 0.00728245)
(0.0048796 0.0076601 0.00397999)
(0.00746222 -0.0173631 0.00294727)
(0.00148794 0.0120555 0.00390444)
(-0.0190243 -0.0336676 -0.0071028)
(0.0256554 0.0214691 0.021563)
(0.0312031 -0.0386565 0.0104114)
(-0.0216519 0.117749 0.0233856)
(-0.0876559 -0.151605 0.0362746)
(-0.110515 0.162847 -0.0629393)
(0.190643 -0.208837 -0.0519575)
(0.214182 -0.13629 -0.0386983)
(0.0480453 0.128916 0.00305634)
(0.0360325 -0.00592627 0.0149492)
(-0.033405 0.0623539 0.0201995)
(-0.0146339 -0.0144922 0.0246182)
(-0.0230424 -0.0193623 0.0161397)
(-0.0256554 -0.037018 0.00471178)
(-0.0198603 -0.0421193 -0.00226254)
(-0.0127324 -0.0407885 -0.00868733)
(-0.00849959 -0.0361608 -0.0127885)
(-0.00648689 -0.0287496 -0.0147709)
(-0.00519753 -0.0192686 -0.0153172)
(-0.0031852 -0.00923384 -0.0147118)
(0.000141789 -0.00060797 -0.012924)
(0.00399519 0.00587023 -0.0104333)
(0.00791333 0.00989829 -0.00771279)
(0.0113938 0.0104834 -0.00499099)
(0.0141444 0.00790365 -0.00275771)
(0.0157882 0.00255135 -0.000915992)
(0.0160436 -0.00430861 0.000515381)
(0.0149468 -0.012551 0.00154582)
(0.0124332 -0.0213675 0.00202736)
(0.0084458 -0.0297056 0.00258824)
(0.00293633 -0.0380302 0.00296877)
(-0.00446752 -0.0453797 0.00278578)
(-0.0126811 -0.0507314 0.00362802)
(-0.0224105 -0.0558319 0.000658573)
(-0.0300587 -0.0513792 -8.75906e-05)
(-0.0380047 -0.0447887 -0.00610818)
(-0.0530153 -0.0287943 -0.0174868)
(-0.0463636 0.0013768 -0.0127382)
(-0.022127 0.0108438 -0.00574586)
(-0.0129217 0.0243976 -0.00226333)
(-0.0129758 0.0292617 0.0105435)
(-0.018581 0.0227294 0.0261489)
(-0.0216877 0.0112491 0.0360885)
(0.0298421 0.0349191 0.00136894)
(0.0336293 0.036093 0.00458753)
(0.0276618 0.0296874 0.00209585)
(0.0285619 0.0257352 0.00460428)
(0.0191299 0.0190929 0.00189508)
(0.0188215 0.0156109 0.00349551)
(0.00857031 0.006985 0.00141961)
(0.00328207 0.00584636 0.00146124)
(-0.000939872 0.00185335 0.000565057)
(-0.000540551 0.00402954 0.00102528)
(0.000660474 0.00286966 0.00143623)
(0.00210424 0.00304528 0.00292548)
(0.002145 0.00240961 0.00353275)
(0.00213855 0.00266702 0.00401001)
(0.00172068 0.00238791 0.00410678)
(0.00144205 0.00224451 0.00422203)
(0.00104407 0.00184959 0.00423194)
(0.000704121 0.00153242 0.0042556)
(0.000400156 0.00119829 0.00427809)
(0.000142905 0.000955316 0.00430899)
(-8.02147e-05 0.000761605 0.00433771)
(-0.000265587 0.000635661 0.004369)
(-0.000410513 0.000544876 0.00440314)
(-0.000530349 0.000480621 0.00443479)
(-0.000634906 0.00043658 0.00445986)
(-0.000724544 0.000411491 0.00448044)
(-0.00079504 0.000391395 0.00449828)
(-0.000851395 0.000376113 0.00450993)
(-0.000899133 0.000373284 0.00452063)
(-0.000935283 0.000370914 0.00453061)
(-0.000965925 0.000376748 0.00453879)
(-0.000991698 0.000379912 0.00454853)
(-0.00101025 0.000399719 0.00455742)
(-0.00103229 0.000374884 0.00456459)
(-0.000997695 0.000458816 0.00459011)
(-0.00105309 0.000261752 0.00458439)
(-0.000900272 0.000603314 0.00463621)
(-0.00107443 -6.15643e-05 0.00459553)
(-0.000702262 0.000909696 0.00468592)
(-0.00106124 -0.000710354 0.00459736)
(-0.000340602 0.00144161 0.00476519)
(-0.000956361 -0.0017305 0.00456184)
(0.000229703 0.0023674 0.00490069)
(-0.000602537 -0.00290051 0.00451626)
(0.000923659 0.0039902 0.00513391)
(7.3203e-05 -0.00386853 0.00467841)
(0.0013101 0.00648171 0.00570317)
(0.000873219 -0.0059895 0.00537118)
(0.00174708 0.00855289 0.00677583)
(0.00342943 -0.0124667 0.00654837)
(0.00268263 0.00841125 0.00423954)
(0.00381074 -0.0179574 0.00340035)
(0.00500024 0.0181876 0.00668496)
(-0.00101591 -0.0255571 -0.00223371)
(0.00232674 0.00358741 0.0372128)
(-0.00311726 -0.0221472 0.0422707)
(0.00968333 0.0906523 0.0746224)
(-0.1121 -0.132747 0.0599243)
(-0.0242983 0.169386 -0.171759)
(0.12146 -0.286133 -0.0413872)
(0.195583 -0.0848583 -0.0423689)
(0.0474444 0.122785 -0.00109745)
(0.0561377 0.048079 0.00846155)
(0.00304371 0.0740183 0.0114504)
(0.00499036 0.0382713 0.00884495)
(-0.0107821 0.0337399 -0.00164698)
(-0.00997499 0.0351898 -0.0132267)
(-0.00970731 0.0530723 -0.0200882)
(-0.0060035 0.0794453 -0.0180925)
(-0.00362188 0.0953891 -0.0124888)
(-0.00174073 0.104875 -0.00731661)
(0.000335279 0.108704 -0.00356105)
(0.00342673 0.109612 -0.000854086)
(0.0077161 0.108257 0.00177784)
(0.0120151 0.104321 0.0041324)
(0.0158992 0.0984447 0.00625056)
(0.0190124 0.090855 0.00770625)
(0.021377 0.0820043 0.00839145)
(0.0227186 0.0722135 0.00887596)
(0.0227012 0.0616819 0.00896314)
(0.0212309 0.0498065 0.00830223)
(0.0183157 0.0389636 0.00736523)
(0.0137662 0.027673 0.0063357)
(0.00765628 0.0175439 0.00509479)
(-0.000486804 0.00888037 0.00372431)
(-0.0109794 0.00178639 0.00204221)
(-0.0240475 -0.00413568 -0.0012951)
(-0.0375294 -0.00375334 -0.0054806)
(-0.0514231 0.000239749 -0.014564)
(-0.0570563 0.0120145 -0.0189437)
(-0.0358177 0.0173096 -0.00805257)
(-0.0181492 0.0174424 -0.00296452)
(-0.0136086 0.0250975 0.00114861)
(-0.0181885 0.0249882 0.0142071)
(-0.028079 0.0204606 0.0279201)
(-0.0341377 0.00924943 0.0372745)
(0.0281136 0.034114 0.00509126)
(0.0349696 0.0378814 0.00577763)
(0.0286235 0.0283824 0.0030701)
(0.0292729 0.0250977 0.00743796)
(0.0195325 0.0163534 0.00409207)
(0.0208126 0.0151005 0.00496507)
(0.0111914 0.00704246 0.0010888)
(0.00680701 0.00767741 0.000861931)
(0.00095665 0.00287823 0.000241855)
(0.000227383 0.00394487 0.00134026)
(0.000771664 0.000950996 0.00131836)
(0.00171104 0.000792713 0.00277772)
(0.00131892 0.000263809 0.00315472)
(0.00128795 0.00121248 0.00373007)
(0.0007867 0.00128632 0.00381282)
(0.000540822 0.00155499 0.00399046)
(0.000135026 0.00139469 0.00399269)
(-0.000181028 0.001293 0.00399439)
(-0.000482426 0.00110441 0.00395261)
(-0.000735485 0.000958205 0.00390735)
(-0.000945478 0.000826158 0.00386431)
(-0.00111129 0.00074373 0.00383442)
(-0.00123348 0.000688898 0.00381021)
(-0.00132422 0.000661088 0.00378905)
(-0.00139504 0.000646791 0.00376842)
(-0.00145082 0.000651055 0.00374831)
(-0.00149199 0.000648478 0.00372686)
(-0.00152835 0.00065506 0.00369648)
(-0.00155866 0.000662114 0.00366649)
(-0.00158029 0.000668974 0.00363796)
(-0.00159746 0.000678808 0.00361146)
(-0.00160743 0.000689552 0.0035901)
(-0.00161174 0.000704434 0.00357265)
(-0.00160542 0.000687624 0.00356074)
(-0.00156646 0.0007578 0.00356387)
(-0.00157772 0.000603633 0.00355051)
(-0.00142424 0.000911416 0.00359782)
(-0.00154015 0.000319295 0.00354296)
(-0.00113302 0.00123115 0.00367856)
(-0.00145697 -0.000255144 0.00354715)
(-0.000642718 0.0018042 0.00383408)
(-0.00131163 -0.00104759 0.00355904)
(-9.61032e-05 0.0027948 0.0040145)
(-0.00101903 -0.00161267 0.00360538)
(7.34428e-05 0.00447122 0.00406734)
(-0.000666452 -0.00175252 0.00381783)
(0.000322466 0.00717894 0.00450678)
(8.14833e-05 -0.00401948 0.00437383)
(0.00263445 0.00998368 0.00665989)
(0.0031927 -0.0123272 0.00518178)
(0.00263401 0.00841652 0.00399748)
(0.00135621 -0.01777 0.00329175)
(0.00270026 0.013693 0.00536708)
(0.0104061 -0.0199228 -0.00450728)
(-0.0176345 0.0111526 0.0347769)
(-0.0508105 -0.0504859 0.0452549)
(0.0268914 0.0577458 0.0877281)
(-0.0901058 -0.109027 0.0801221)
(0.033105 0.00225211 -0.200798)
(0.0583044 -0.288835 -0.0356076)
(0.160504 -0.00309978 -0.0536248)
(0.041304 0.14947 -0.010555)
(0.027798 0.143565 0.00339771)
(0.00328674 0.161975 0.00324328)
(-0.00349982 0.161605 -0.000925694)
(-0.00939047 0.167279 -0.00543262)
(-0.0108923 0.175185 -0.00534533)
(-0.0103284 0.180757 -0.00312552)
(-0.00608475 0.186675 0.000184071)
(-0.0026458 0.187244 0.00325131)
(0.00257656 0.188574 0.00530264)
(0.00547477 0.185579 0.00705)
(0.00770595 0.181939 0.00882736)
(0.0119012 0.17753 0.0106236)
(0.0153252 0.171772 0.0124194)
(0.0191551 0.164867 0.0138174)
(0.0218892 0.155917 0.0145074)
(0.0247203 0.146527 0.0151782)
(0.0265764 0.135886 0.0160535)
(0.0265658 0.123411 0.0157974)
(0.0249704 0.109994 0.0146107)
(0.0220668 0.0970541 0.0128686)
(0.0167092 0.0828202 0.00995199)
(0.00964012 0.0706135 0.00618583)
(0.00118007 0.0598189 0.00210367)
(-0.00881407 0.0510421 -0.00238574)
(-0.0199042 0.044482 -0.00714325)
(-0.0312862 0.0383297 -0.0120107)
(-0.0373849 0.0334859 -0.0144195)
(-0.0346121 0.025288 -0.00949839)
(-0.0189843 0.0175356 -0.000352608)
(-0.0130416 0.0156847 0.00257279)
(-0.0136293 0.0165911 0.00518628)
(-0.0205706 0.0157516 0.0138109)
(-0.0311728 0.0133171 0.026604)
(-0.0385345 0.00408437 0.0371827)
(0.0217174 0.032465 0.00470732)
(0.0327506 0.0401362 0.00925327)
(0.026174 0.025634 0.00555283)
(0.0276223 0.0259468 0.0103941)
(0.0167412 0.0137976 0.00711275)
(0.0184299 0.0138048 0.00904584)
(0.00920442 0.00376085 0.00475966)
(0.007963 0.00741514 0.00209441)
(0.00164368 0.00270202 0.00111695)
(0.000918087 0.00440009 0.002691)
(0.00077768 8.73633e-05 0.0027393)
(4.66658e-05 -0.000319963 0.00349006)
(-0.00159583 -0.00112411 0.00335024)
(-0.00187094 0.000110354 0.00384161)
(-0.0023261 0.00023154 0.00403609)
(-0.00236205 0.000844265 0.00429341)
(-0.00276755 0.000926071 0.00428891)
(-0.00307263 0.00111239 0.00423979)
(-0.00342095 0.00111524 0.00415801)
(-0.00372759 0.00112515 0.00407848)
(-0.0039932 0.00110073 0.00398781)
(-0.00420465 0.00109261 0.00388987)
(-0.00435406 0.00109142 0.00380277)
(-0.00446128 0.00110355 0.00372851)
(-0.004539 0.00111832 0.00366414)
(-0.00458406 0.00113672 0.0036116)
(-0.00459623 0.00114901 0.00356162)
(-0.00458692 0.00116112 0.00350934)
(-0.00456277 0.00116393 0.00346511)
(-0.00452642 0.00116791 0.00343156)
(-0.0044838 0.00117233 0.00340607)
(-0.00443255 0.00117677 0.0033904)
(-0.0043841 0.00117902 0.00338029)
(-0.00432267 0.00116418 0.00337911)
(-0.00425582 0.00120446 0.00338673)
(-0.00418415 0.00107054 0.00340431)
(-0.00404482 0.00132085 0.00346222)
(-0.00401353 0.000817134 0.00345738)
(-0.0037052 0.0016219 0.00361808)
(-0.00380252 0.000374678 0.00355003)
(-0.0032582 0.00220933 0.00384808)
(-0.00357488 -0.000117945 0.00369803)
(-0.0029508 0.00322406 0.00401778)
(-0.00329063 -0.000398076 0.00387333)
(-0.00301072 0.00484314 0.00389486)
(-0.00298762 -0.00081248 0.00388159)
(-0.00225113 0.00727094 0.00386774)
(-0.00194486 -0.00364221 0.00390301)
(0.00189845 0.0101329 0.00646633)
(0.00242369 -0.0109833 0.00499418)
(0.000508363 0.0100176 0.00400537)
(0.00114231 -0.0145297 0.00396761)
(0.00204196 0.0111496 0.00207469)
(0.0127822 -0.0155512 -0.00731973)
(-0.0138831 0.0203681 0.023591)
(-0.0587193 -0.050832 0.0329432)
(-0.0131217 -0.0208037 0.0726824)
(-0.0313996 -0.108411 0.103062)
(0.0392549 -0.167815 -0.212734)
(0.0317753 -0.298463 -0.0421002)
(0.086043 0.0898188 -0.0597197)
(0.0155698 0.22874 -0.0106565)
(0.00579644 0.259766 0.00273097)
(-0.00624793 0.269634 0.00812723)
(-0.00711074 0.278435 0.00785299)
(-0.00992186 0.280477 0.00707201)
(-0.00833166 0.283806 0.00800569)
(-0.00634602 0.282391 0.00892843)
(-0.0040387 0.279934 0.00994384)
(-0.00163523 0.278237 0.0110121)
(0.00261914 0.27696 0.0127449)
(0.00558818 0.272329 0.0142228)
(0.0087081 0.267532 0.0155228)
(0.013114 0.264189 0.0168405)
(0.0173763 0.257586 0.0185645)
(0.0216296 0.25182 0.020174)
(0.026043 0.243199 0.0218362)
(0.030301 0.234832 0.0235436)
(0.0333395 0.223152 0.0251971)
(0.0344743 0.211224 0.0265376)
(0.034449 0.196232 0.0274719)
(0.0329418 0.179646 0.0272578)
(0.0292022 0.160975 0.0257059)
(0.0236866 0.1408 0.0228228)
(0.0165606 0.11999 0.0186657)
(0.00803836 0.09957 0.0136513)
(-0.000814368 0.0818696 0.00937566)
(-0.0083028 0.0685185 0.00754817)
(-0.0125672 0.0548271 0.00866594)
(-0.012428 0.0414985 0.0137276)
(-0.0111665 0.0302056 0.0192072)
(-0.013431 0.0216378 0.0213438)
(-0.019095 0.0148112 0.0233873)
(-0.0308357 0.0078659 0.0255413)
(-0.0471994 0.005511 0.0303289)
(-0.0642419 -0.00014668 0.0362175)
(0.0166265 0.0269109 0.00129559)
(0.0281186 0.0440405 0.0103055)
(0.020119 0.0215201 0.0071079)
(0.0233559 0.0267812 0.0115576)
(0.0133017 0.0130724 0.00949667)
(0.0158188 0.0140489 0.0127575)
(0.00496476 0.00157222 0.00870239)
(0.0052106 0.00671439 0.0058574)
(-0.000268136 0.00089004 0.00392859)
(0.00074343 0.00371308 0.00488605)
(0.000473093 -0.00118328 0.00477755)
(-0.000310281 -0.000410234 0.00514414)
(-0.00215793 -0.00125416 0.00511121)
(-0.00241164 -0.000170298 0.00546682)
(-0.00291487 -0.000516508 0.0058399)
(-0.0029605 0.000279489 0.00606165)
(-0.00335601 0.000379978 0.00615782)
(-0.00348043 0.000861176 0.00616129)
(-0.00367357 0.00104409 0.00606912)
(-0.00381098 0.0012301 0.0059576)
(-0.00390755 0.00132524 0.00585328)
(-0.00395249 0.00139566 0.00578535)
(-0.00396312 0.00143805 0.00573394)
(-0.00394331 0.00147912 0.00569895)
(-0.00389847 0.0015225 0.00567695)
(-0.00383538 0.001576 0.00566548)
(-0.00377436 0.001639 0.00564692)
(-0.00371572 0.00168357 0.00561628)
(-0.00366027 0.00170021 0.00558547)
(-0.00360381 0.00170707 0.00555787)
(-0.00354639 0.00170774 0.00553543)
(-0.00348243 0.00170036 0.00552033)
(-0.00342691 0.00169113 0.0055073)
(-0.00335663 0.00166628 0.00550305)
(-0.00329181 0.00168671 0.00550531)
(-0.00320521 0.00157026 0.00552013)
(-0.00310451 0.0017929 0.00555456)
(-0.00302787 0.00135495 0.00555196)
(-0.00280424 0.00210992 0.00566469)
(-0.00282038 0.00106311 0.00560537)
(-0.00245567 0.00275679 0.00579293)
(-0.00264311 0.00085614 0.00566306)
(-0.00230765 0.00383991 0.00574547)
(-0.00248739 0.000730425 0.00561794)
(-0.00259486 0.00533707 0.00519613)
(-0.00236934 -0.000353008 0.00520618)
(-0.00206397 0.00734166 0.00473077)
(-0.0017747 -0.0040609 0.0048866)
(0.00162528 0.0104313 0.00733883)
(0.00156988 -0.00986942 0.00640719)
(0.00172547 0.0146906 0.0082838)
(0.0026938 -0.0144186 0.00837135)
(-0.000258797 0.0102168 0.00384609)
(0.0090777 -0.00964401 0.00817484)
(-0.00715091 0.042124 0.0221965)
(-0.0239847 -0.0357847 0.0320442)
(-0.0225894 -0.0179459 0.0767377)
(0.00748185 -0.10607 0.107928)
(9.7781e-05 -0.174231 -0.198504)
(-0.0102425 -0.262759 -0.0490385)
(-0.0167616 0.136881 -0.0739807)
(-0.0267974 0.274388 -0.01446)
(-0.0231723 0.313965 0.0019123)
(-0.0203691 0.327493 0.0119941)
(-0.0179535 0.333711 0.0122005)
(-0.0159319 0.335304 0.0116575)
(-0.0137103 0.335584 0.0127542)
(-0.0103742 0.334152 0.0115705)
(-0.00573929 0.330072 0.0119378)
(-0.00206363 0.326937 0.0116796)
(0.00115641 0.321267 0.013156)
(0.00561594 0.317295 0.014178)
(0.00843968 0.310839 0.0147953)
(0.012422 0.306352 0.0158521)
(0.0172738 0.301104 0.0169677)
(0.0214221 0.296362 0.0181179)
(0.026567 0.290954 0.0193487)
(0.0309448 0.286136 0.0207561)
(0.0337629 0.281342 0.0229004)
(0.0350038 0.276562 0.0257384)
(0.0352979 0.270729 0.0284706)
(0.0338673 0.264866 0.0307721)
(0.0308777 0.258605 0.0329669)
(0.0264927 0.251074 0.0344557)
(0.0210181 0.242387 0.035299)
(0.014738 0.2318 0.0354988)
(0.0080281 0.218617 0.0351881)
(0.00253821 0.202234 0.0350056)
(-0.000879565 0.186708 0.0364913)
(-0.0028163 0.169921 0.0387698)
(-0.00549852 0.152694 0.0412221)
(-0.0106052 0.13261 0.0419813)
(-0.0196982 0.110522 0.0408501)
(-0.0335064 0.0853288 0.0384067)
(-0.051017 0.0544167 0.0344076)
(-0.0631244 0.0145087 0.0295417)
(9.65392e-05 0.0205358 -0.0176884)
(0.0229012 0.0462976 0.00380639)
(0.0129924 0.0179964 0.00281488)
(0.0176319 0.0268572 0.00810158)
(0.00709608 0.0115418 0.00728362)
(0.0098464 0.0151149 0.0102521)
(-0.000184699 0.00580574 0.00714804)
(0.00177598 0.00919533 0.00499991)
(-0.00331505 0.00182238 0.00208759)
(-0.00135984 0.00449185 0.00223005)
(-0.00205801 -0.00078976 0.00179638)
(-0.0041457 0.000737946 0.00149029)
(-0.0064874 -0.00133533 0.00150074)
(-0.00613621 -0.000373837 0.00174123)
(-0.00695043 -0.00109676 0.00221915)
(-0.00682911 -0.000103192 0.00240641)
(-0.00737199 -7.98877e-05 0.00268681)
(-0.00754054 0.000616404 0.00282797)
(-0.00782394 0.000870636 0.00289944)
(-0.00803041 0.00117538 0.00293252)
(-0.00820615 0.00136165 0.00294166)
(-0.00834649 0.00150522 0.00294458)
(-0.00845548 0.00160118 0.00294422)
(-0.00853863 0.00168228 0.00294771)
(-0.00860257 0.00175025 0.00295438)
(-0.00864509 0.00181423 0.00296711)
(-0.00861033 0.0018701 0.00298956)
(-0.00849949 0.00191154 0.00301612)
(-0.00838377 0.00193417 0.00304417)
(-0.00826802 0.00194524 0.00307077)
(-0.0081464 0.00194799 0.0030985)
(-0.00801142 0.0019412 0.00312891)
(-0.00788028 0.0019339 0.00315543)
(-0.00772846 0.00191168 0.0031837)
(-0.0075931 0.00192239 0.0032098)
(-0.00740853 0.00183638 0.00324961)
(-0.00729544 0.00201811 0.00329066)
(-0.00704323 0.0016854 0.00335278)
(-0.00700451 0.00233418 0.00339814)
(-0.00667651 0.00152821 0.00346828)
(-0.00678549 0.00300587 0.00348834)
(-0.00632052 0.00152843 0.00358161)
(-0.00675942 0.00416556 0.00340654)
(-0.00586944 0.00157819 0.00350878)
(-0.00650801 0.00585833 0.0028331)
(-0.00552779 0.000230846 0.00286701)
(-0.00512578 0.00776405 0.00227302)
(-0.00531188 -0.00446681 0.00199144)
(-0.00138407 0.0102512 0.00444196)
(-0.00376165 -0.0108224 0.00393965)
(-0.0030837 0.0139545 0.00670812)
(0.00359034 -0.013347 0.00767671)
(-0.0126078 0.00704229 0.00103777)
(-0.0098462 -0.00813701 0.00463249)
(-0.017788 0.0476866 0.0120197)
(-0.0068887 -0.0309811 0.015662)
(-0.0297593 0.0131873 0.0698169)
(0.0486448 -0.11001 0.0892333)
(-0.0738453 -0.175308 -0.21263)
(-0.0628004 -0.279 -0.0500969)
(-0.123106 0.118848 -0.0679688)
(-0.0620575 0.252087 -0.0117807)
(-0.045037 0.282857 0.00173307)
(-0.035306 0.28729 0.00870675)
(-0.0280728 0.277522 0.00893423)
(-0.024056 0.271993 0.00610197)
(-0.0180938 0.259225 0.00677536)
(-0.0132213 0.247551 0.00472148)
(-0.00896882 0.238748 0.00350509)
(-0.0045443 0.232017 0.000210918)