/*--------------------------------*- C++ -*----------------------------------*\
| =========                 |                                                 |
| \\      /  F ield         | OpenFOAM: The Open Source CFD Toolbox           |
|  \\    /   O peration     | Version:  2.3.0                                 |
|   \\  /    A nd           | Web:      www.OpenFOAM.org                      |
|    \\/     M anipulation  |                                                 |
\*---------------------------------------------------------------------------*/
FoamFile
{
    version     2.0;
    format      ascii;
    class       volVectorField;
    location    "17";
    object      U.waterMean;
}
// * * * * * * * * * * * * * * * * * * * * * * * * * * * * * * * * * * * * * //

dimensions      [0 1 -1 0 0 0 0];

internalField   nonuniform List<vector> 
6144
(
(0.0072705 0.0194361 -0.00057992)
(0.00733263 0.00425033 -0.00066537)
(0.00399306 0.00205822 -0.00147442)
(0.00411199 0.000103038 -0.00153486)
(0.00296704 -0.00128556 -0.00137323)
(0.0031174 -0.000855326 -0.00132796)
(0.00279796 -0.00117292 -0.001458)
(0.0029784 -0.000497213 -0.00153104)
(0.00290911 -0.000240667 -0.00183051)
(0.00305187 0.00051743 -0.00189553)
(0.00308671 0.000882937 -0.00188382)
(0.00323863 0.00121125 -0.00178411)
(0.00331218 0.00109441 -0.00177743)
(0.00340681 0.000948285 -0.00177452)
(0.00343106 0.000660035 -0.00184652)
(0.00346375 0.000465419 -0.00189617)
(0.00347016 0.000252896 -0.00196475)
(0.00348042 0.000128687 -0.00200578)
(0.00348307 5.72686e-06 -0.00204855)
(0.00348637 -6.01368e-05 -0.00207347)
(0.00348648 -0.000122703 -0.0020961)
(0.00348694 -0.000156045 -0.00210863)
(0.00348582 -0.000184468 -0.00211892)
(0.00348471 -0.000201906 -0.00212407)
(0.0034827 -0.00021439 -0.00212752)
(0.00348061 -0.000222524 -0.00212869)
(0.00347799 -0.000227056 -0.00212881)
(0.00347555 -0.000230209 -0.00212804)
(0.00347294 -0.00023186 -0.00212643)
(0.00346991 -0.000233577 -0.00212443)
(0.00346759 -0.000228886 -0.00212222)
(0.00346305 -0.0002395 -0.00211972)
(0.0034636 -0.000213242 -0.00211606)
(0.00345324 -0.000264049 -0.00211452)
(0.0034624 -0.000168983 -0.00210615)
(0.00344173 -0.000332849 -0.00210828)
(0.00346196 -7.31628e-05 -0.00209101)
(0.00343138 -0.000487252 -0.00210036)
(0.0034574 0.000102827 -0.00206666)
(0.00342359 -0.000772699 -0.00208601)
(0.00344863 0.000381522 -0.00202096)
(0.00342015 -0.001255 -0.00204971)
(0.00343286 0.00074063 -0.00194259)
(0.00342523 -0.0020248 -0.00198064)
(0.0033913 0.00114957 -0.00186663)
(0.00340421 -0.00313812 -0.00188881)
(0.00326277 0.00185521 -0.00192387)
(0.00323723 -0.00425826 -0.0018827)
(0.00309297 0.00377287 -0.00225757)
(0.0031417 -0.00482134 -0.00221266)
(0.00422511 0.00799562 -0.00277012)
(0.00327415 -0.00904154 -0.00269774)
(0.00415041 0.0149492 -0.00333128)
(0.00396715 -0.0130239 -0.0047548)
(0.00536456 0.035875 -0.00619861)
(0.00367052 -0.032911 -0.0102065)
(0.013746 0.0601344 -0.0051404)
(0.0133367 -0.0651913 -0.0232528)
(-0.0380447 0.0989495 -0.0832221)
(0.0346724 -0.104846 -0.123773)
(0.112949 -0.235565 -0.0193218)
(0.0743851 -0.059754 -0.00538705)
(0.0310641 -0.149012 -0.00168378)
(0.0304449 -0.134295 0.000625195)
(0.0253567 -0.148994 0.00145087)
(0.0161497 -0.141019 0.00384413)
(0.0107271 -0.153097 0.00473056)
(0.00686201 -0.14655 0.00458591)
(0.00432443 -0.150028 0.00395494)
(0.00232231 -0.142522 0.0031528)
(0.000899371 -0.141459 0.00230915)
(1.94308e-05 -0.1338 0.0015322)
(-0.000307152 -0.130434 0.000786002)
(-0.000331025 -0.12354 0.000103601)
(-0.000203974 -0.11924 -0.000536042)
(-4.90204e-05 -0.113267 -0.00111609)
(0.000118362 -0.108463 -0.00165688)
(0.000307574 -0.103119 -0.00213745)
(0.000517213 -0.0981257 -0.00255104)
(0.000714802 -0.0930128 -0.00288798)
(0.000854933 -0.0876547 -0.00315829)
(0.000926492 -0.0818453 -0.00339557)
(0.000898929 -0.0754548 -0.00359868)
(0.000776878 -0.0683401 -0.00376679)
(0.00054499 -0.0605082 -0.00395857)
(0.000223479 -0.0519472 -0.00406591)
(-0.00022269 -0.0426504 -0.00432368)
(-0.000736666 -0.0323665 -0.00441863)
(-0.00129632 -0.0211358 -0.00458763)
(-0.00101873 -0.00899335 -0.00377174)
(0.00135596 0.000258565 -0.00342507)
(0.00393507 0.00510615 -0.00575428)
(0.00474224 0.00888724 -0.00630525)
(0.00499426 0.0107897 -0.00408578)
(0.00539927 0.00868873 -0.000974628)
(0.00624755 0.00485367 0.00191442)
(0.0152982 0.0218203 0.00294534)
(0.0161053 0.0092396 0.00286858)
(0.00885274 0.00603516 0.00103349)
(0.00960125 0.0039869 0.00107755)
(0.0062123 0.0013804 0.00123704)
(0.00667649 0.00181351 0.00119852)
(0.00560762 0.000711521 0.00125832)
(0.0060234 0.00147716 0.00107156)
(0.00574039 0.00129873 0.000858826)
(0.00605523 0.00196169 0.00074548)
(0.00609332 0.00205373 0.000699465)
(0.0065021 0.00225695 0.000862586)
(0.00665619 0.0019374 0.000894776)
(0.00689202 0.00168247 0.000935578)
(0.00691611 0.00126999 0.000849375)
(0.00699034 0.00101132 0.000800914)
(0.00697592 0.000728008 0.000712816)
(0.00699262 0.000567889 0.000669662)
(0.00697834 0.000406813 0.00061772)
(0.00697712 0.00032088 0.000594675)
(0.00696593 0.000238495 0.000572496)
(0.00695951 0.000194662 0.000565883)
(0.00695022 0.000156046 0.000561772)
(0.00694222 0.000133321 0.0005649)
(0.00693312 0.000116382 0.000570053)
(0.00692436 0.000105598 0.00057851)
(0.006915 9.98441e-05 0.000588422)
(0.00690618 9.50179e-05 0.000599683)
(0.00689723 9.32003e-05 0.000611825)
(0.0068878 9.15617e-05 0.000624282)
(0.00687989 9.4658e-05 0.000637209)
(0.00686814 8.62285e-05 0.000650238)
(0.00686576 0.00010947 0.000664722)
(0.00684358 6.3142e-05 0.000676266)
(0.00685729 0.000156847 0.000698015)
(0.00681353 -1.36569e-05 0.00070374)
(0.00685453 0.000265121 0.00074011)
(0.00677975 -0.000194563 0.000732883)
(0.00685019 0.000468192 0.000794723)
(0.00674537 -0.000533504 0.000770141)
(0.00684117 0.000792175 0.000878164)
(0.00672247 -0.00111542 0.000837973)
(0.00683037 0.00123001 0.0010011)
(0.00670664 -0.00205325 0.000948277)
(0.00677682 0.00172868 0.00109817)
(0.00663009 -0.00343736 0.00106136)
(0.00649135 0.00242889 0.00095269)
(0.00622695 -0.00496141 0.00094922)
(0.00575668 0.0040197 0.00018464)
(0.00572936 -0.00549091 0.000340186)
(0.00699058 0.00769089 -0.000731113)
(0.00572373 -0.00644277 -0.000487744)
(0.00513637 0.0157938 -6.95269e-05)
(0.00320717 -0.011517 -0.000879405)
(0.0145147 0.0381453 0.00119774)
(0.027162 -0.0427385 -0.00161228)
(-0.0162992 0.0344856 0.00725841)
(-0.0125546 -0.0262044 -0.0101794)
(0.0159661 0.164973 -0.00990346)
(0.15273 -0.129396 -0.0710836)
(0.162662 -0.217283 -0.0117389)
(0.0525153 0.0935391 0.00778004)
(-0.0214271 -0.120854 0.0102054)
(-0.00802338 -0.0626822 0.00985147)
(-0.0117027 -0.091826 0.010492)
(-0.0177353 -0.0981548 0.0121934)
(-0.0185595 -0.112438 0.0114179)
(-0.0182646 -0.110516 0.0101635)
(-0.0170547 -0.118473 0.00852223)
(-0.0158456 -0.114993 0.00686614)
(-0.0143302 -0.11722 0.00531947)
(-0.0127854 -0.112077 0.00398782)
(-0.0110512 -0.110699 0.00271981)
(-0.00936563 -0.105628 0.00157342)
(-0.00766405 -0.102905 0.000540751)
(-0.00598789 -0.0982891 -0.000291751)
(-0.00422008 -0.0943427 -0.000956902)
(-0.0027578 -0.0893674 -0.0014593)
(-0.00188001 -0.0843455 -0.00181757)
(-0.00152834 -0.0790243 -0.00204694)
(-0.00160222 -0.0734141 -0.00216406)
(-0.00199486 -0.0674685 -0.00219181)
(-0.00254005 -0.0611684 -0.00215137)
(-0.00313739 -0.0544784 -0.00208532)
(-0.00367704 -0.047376 -0.00194563)
(-0.00431586 -0.0402375 -0.00170973)
(-0.00502138 -0.0330558 -0.00162872)
(-0.00568004 -0.0256949 -0.00155019)
(-0.00637143 -0.0182108 -0.00195716)
(-0.00570242 -0.00969012 -0.00112532)
(-0.00232483 -0.00255026 0.000191213)
(0.00160684 0.00221175 -0.000960627)
(0.00383581 0.00638656 -0.00143874)
(0.00417338 0.00876193 0.0014085)
(0.00417909 0.00701129 0.00509253)
(0.00515555 0.00400244 0.00810681)
(0.0183633 0.0214819 0.00415528)
(0.0203902 0.0116017 0.0039988)
(0.0111771 0.00771085 0.00163238)
(0.0127859 0.00674332 0.001883)
(0.00735901 0.00287941 0.00204349)
(0.00788692 0.00349252 0.00223392)
(0.00588232 0.00161458 0.00263827)
(0.00647 0.00251867 0.00260725)
(0.00595955 0.00203641 0.00256866)
(0.00638605 0.00264317 0.00255868)
(0.00634662 0.0024395 0.00250904)
(0.00696199 0.00261197 0.00267794)
(0.0071453 0.00214941 0.00272809)
(0.00745763 0.00189973 0.00279665)
(0.00742881 0.00143295 0.00276301)
(0.00749086 0.00118147 0.00276332)
(0.00741621 0.000875281 0.00272719)
(0.00740792 0.000718154 0.00272431)
(0.00735185 0.000547637 0.00271084)
(0.00732735 0.000462738 0.00271801)
(0.007289 0.000376411 0.00272268)
(0.00726346 0.000332188 0.00273819)
(0.00723489 0.000292213 0.00275331)
(0.00721109 0.000269115 0.00277299)
(0.00718694 0.000251549 0.00279291)
(0.00716438 0.000240664 0.00281475)
(0.00714212 0.000235857 0.00283663)
(0.00712111 0.000230381 0.00285968)
(0.00710021 0.0002294 0.00288269)
(0.0070797 0.000228605 0.00290577)
(0.00706014 0.000230902 0.00292844)
(0.0070379 0.000226004 0.00294961)
(0.00702327 0.000243904 0.00297081)
(0.00699268 0.00020795 0.00298985)
(0.00699609 0.00028632 0.00301475)
(0.00694129 0.00013882 0.00302833)
(0.00698125 0.000388532 0.00306187)
(0.00688178 -3.40211e-05 0.00306455)
(0.00697513 0.000585714 0.00311316)
(0.00681878 -0.000369835 0.00309868)
(0.00698447 0.000909514 0.00317809)
(0.00677458 -0.000956858 0.00313795)
(0.00702802 0.00136349 0.00326474)
(0.00675372 -0.00191221 0.00318129)
(0.00704762 0.00194164 0.0033343)
(0.00668033 -0.00332535 0.0032145)
(0.00669703 0.00272563 0.00317464)
(0.00619352 -0.00489384 0.00312751)
(0.00549387 0.00426906 0.00221657)
(0.0056509 -0.00543529 0.00241292)
(0.00626178 0.00818298 0.00126483)
(0.0061451 -0.00510114 0.00176012)
(0.00548637 0.0166981 0.00292189)
(0.00139124 -0.0193018 0.00154736)
(0.0224671 0.0309534 0.00434033)
(0.034413 -0.0509028 0.000939585)
(-0.0475181 0.0668366 0.022615)
(-0.0591847 -0.114225 -0.00505108)
(-0.0498832 0.160642 -0.0381884)
(0.156686 -0.133068 -0.0441333)
(0.186944 -0.180359 -0.00584051)
(0.0725132 0.128558 0.00828265)
(0.0674713 -0.113185 0.0138004)
(0.0263078 -0.0299304 0.0159841)
(0.00369244 -0.0700074 0.0154937)
(-0.00325964 -0.0728001 0.0143688)
(-0.00867066 -0.0856283 0.0115802)
(-0.0128248 -0.0829414 0.00912088)
(-0.0147583 -0.0898191 0.00642004)
(-0.0154487 -0.0855258 0.00413448)
(-0.0148743 -0.0869798 0.00207314)
(-0.0129752 -0.0817406 0.000311877)
(-0.00999822 -0.0801721 -0.00131973)
(-0.00770894 -0.0745262 -0.00282223)
(-0.006058 -0.0704776 -0.00381846)
(-0.00501895 -0.0639787 -0.00464389)
(-0.00413365 -0.0572397 -0.00509652)
(-0.0033153 -0.0498909 -0.00473369)
(-0.00250334 -0.0440845 -0.00384748)
(-0.00201517 -0.0394186 -0.00287428)
(-0.0020093 -0.0360699 -0.00186981)
(-0.00248635 -0.0336626 -0.00102127)
(-0.00330865 -0.0316165 -0.000355243)
(-0.00429389 -0.0295382 3.49602e-05)
(-0.00520019 -0.026946 0.00021903)
(-0.00603718 -0.023868 0.000273145)
(-0.00699726 -0.0201888 0.000212891)
(-0.00796944 -0.0160531 0.000102851)
(-0.0091674 -0.0114332 -0.000665658)
(-0.00902768 -0.00629016 -0.00039663)
(-0.00543977 -0.00203424 0.000918613)
(-0.00084601 0.00106202 0.000768709)
(0.0013849 0.0046941 0.00136355)
(0.00162936 0.00664615 0.00474576)
(0.00107955 0.00586822 0.00833969)
(0.00134028 0.00283253 0.0109669)
(0.019361 0.0210911 0.00469982)
(0.0235095 0.013404 0.00471074)
(0.0122126 0.0082456 0.00127723)
(0.0156083 0.00927898 0.0013803)
(0.00882365 0.00420001 0.00111816)
(0.00955351 0.00546032 0.00152039)
(0.00603661 0.00203339 0.00229696)
(0.00640745 0.00316458 0.00253253)
(0.00545021 0.00216724 0.00274311)
(0.00609328 0.00306725 0.00285239)
(0.00589233 0.002618 0.00288573)
(0.00659809 0.0028632 0.00317936)
(0.00670527 0.00229575 0.00332642)
(0.00702588 0.0021321 0.00345394)
(0.00692301 0.0016328 0.00345894)
(0.00696925 0.00142437 0.00348326)
(0.00684842 0.00109013 0.00347297)
(0.0068234 0.000945574 0.00348848)
(0.00673667 0.000758465 0.00349365)
(0.00669566 0.000675608 0.00351492)
(0.00663701 0.000581322 0.00353229)
(0.00659769 0.000536528 0.00355709)
(0.00655468 0.000493182 0.00357894)
(0.00651981 0.000469632 0.00360453)
(0.00648517 0.000450071 0.00362888)
(0.00645256 0.000438852 0.00365325)
(0.00642099 0.000432603 0.00367677)
(0.00639109 0.000426862 0.00370076)
(0.00636157 0.000425509 0.00372404)
(0.00633314 0.000424708 0.00374685)
(0.00630581 0.000426725 0.00376914)
(0.00627829 0.000424438 0.00379125)
(0.00625612 0.000437214 0.00381352)
(0.00622479 0.000411387 0.00383257)
(0.00621818 0.000474534 0.00385307)
(0.00616798 0.000348692 0.00386732)
(0.00619713 0.000569494 0.00389421)
(0.00610677 0.000183677 0.00389765)
(0.00619538 0.000758278 0.00393682)
(0.00604419 -0.000150348 0.00392004)
(0.00622819 0.00107308 0.00399035)
(0.00600163 -0.000744114 0.00393343)
(0.00632284 0.0015332 0.00407153)
(0.00596731 -0.0017027 0.00392794)
(0.00644807 0.00215445 0.00416848)
(0.00583837 -0.00307975 0.00389875)
(0.00619629 0.00296501 0.00406346)
(0.00530491 -0.00461794 0.00378137)
(0.0048383 0.00430232 0.00317761)
(0.00465392 -0.0062086 0.00315838)
(0.00512385 0.0074969 0.00252634)
(0.00564454 -0.00919458 0.00324916)
(0.00692705 0.0121155 0.00520831)
(0.00146408 -0.0240608 0.000743017)
(0.0222523 0.0237128 0.00978608)
(0.0242014 -0.0398327 0.00384536)
(-0.00310049 0.0888496 0.0215647)
(-0.0693141 -0.135882 0.0183511)
(-0.0582012 0.200781 -0.0934534)
(0.16781 -0.192112 -0.0233048)
(0.20615 -0.159461 -0.00266527)
(0.0720566 0.113726 0.00162175)
(0.0715119 -0.0294013 0.0103027)
(-0.0189528 0.0502723 0.0174263)
(-0.0131453 -0.0316295 0.0201751)
(-0.0158152 -0.022057 0.0129129)
(-0.0181396 -0.0426774 0.00696327)
(-0.0189685 -0.0416624 0.00222132)
(-0.0174653 -0.0481723 -0.00128637)
(-0.0153613 -0.0425128 -0.00417176)
(-0.0133585 -0.0412413 -0.0070227)
(-0.0115354 -0.0306652 -0.00897701)
(-0.00906817 -0.0204983 -0.00969221)
(-0.00682097 -0.00920794 -0.00842297)
(-0.00491592 -0.00234892 -0.00714001)
(-0.00322982 0.0036075 -0.00590774)
(-0.00145071 0.00693048 -0.00452365)
(0.00014014 0.0086948 -0.00318482)
(0.00119628 0.00879055 -0.00206006)
(0.00147168 0.00765384 -0.00109151)
(0.000963627 0.00575734 -0.000388916)
(-0.000284088 0.00333379 9.07901e-05)
(-0.00204975 0.000835149 0.000388798)
(-0.00406389 -0.00147321 0.00051151)
(-0.00606391 -0.00309307 0.000520439)
(-0.00792726 -0.00391179 0.000387955)
(-0.00972928 -0.00385107 2.20465e-05)
(-0.0113972 -0.00303709 -0.000480346)
(-0.0121501 -0.00188731 -0.000896722)
(-0.0106761 -0.000688585 -0.000202458)
(-0.00682438 -0.000316073 0.00108823)
(-0.00339417 0.000774285 0.00158885)
(-0.00182809 0.00293671 0.002853)
(-0.0018857 0.00408008 0.00593343)
(-0.00300004 0.00390407 0.00934447)
(-0.00337996 0.00154486 0.0118094)
(0.0186344 0.0206847 0.00551554)
(0.0255411 0.0154564 0.00587871)
(0.0123889 0.00808847 0.00116748)
(0.0176973 0.0112756 0.00157621)
(0.0101917 0.00432558 0.000140293)
(0.0118387 0.0068868 0.000441153)
(0.0069019 0.0023295 0.00102165)
(0.00656613 0.00371155 0.00165912)
(0.00452136 0.00162832 0.00211402)
(0.00499363 0.00274064 0.00244932)
(0.00465927 0.00207686 0.00266867)
(0.00537135 0.00259689 0.0032042)
(0.00529041 0.00205065 0.00348976)
(0.00554216 0.00208043 0.00371469)
(0.00531299 0.00161654 0.00376037)
(0.00529983 0.00151317 0.00381485)
(0.00509286 0.00118668 0.00380974)
(0.00501589 0.00108014 0.0038299)
(0.00487611 0.000885337 0.00383453)
(0.00480001 0.000814619 0.00385553)
(0.00470978 0.000716426 0.00386926)
(0.00464769 0.000676052 0.00389126)
(0.00458629 0.000631184 0.00390964)
(0.00453642 0.000608241 0.00393041)
(0.00448988 0.00058788 0.00394884)
(0.00444827 0.000577577 0.00396691)
(0.00441004 0.000569946 0.00398318)
(0.00437451 0.000565253 0.00399826)
(0.00434088 0.000563832 0.00401242)
(0.00430905 0.000563325 0.00402563)
(0.00427781 0.000565323 0.00403709)
(0.00424743 0.00056429 0.00404803)
(0.00421861 0.000574613 0.00405736)
(0.00418777 0.000556047 0.004066)
(0.00417408 0.000610498 0.00407791)
(0.00413139 0.000500702 0.0040831)
(0.0041484 0.000702683 0.0041002)
(0.00407199 0.00034723 0.0040918)
(0.0041494 0.00089024 0.00411929)
(0.00401494 2.44082e-05 0.00408726)
(0.00420382 0.00120668 0.00414819)
(0.00398223 -0.00055284 0.0040669)
(0.00434977 0.00167938 0.00420947)
(0.00397354 -0.0014346 0.00402509)
(0.00454856 0.00231887 0.00429304)
(0.00391977 -0.00250708 0.00395969)
(0.00433266 0.00318509 0.00414976)
(0.00358917 -0.00358037 0.00378017)
(0.00350277 0.00450286 0.00331478)
(0.00333141 -0.00580887 0.00348586)
(0.00510034 0.00621472 0.00351587)
(0.00516367 -0.0112547 0.00634184)
(0.00748507 0.0112828 0.00927628)
(-0.000973817 -0.0219487 0.00806327)
(0.018032 0.0233727 0.0330252)
(0.010795 -0.0497618 0.0307341)
(0.00242837 0.05318 0.0630998)
(-0.0991725 -0.128481 0.0458236)
(0.000538942 0.168349 -0.173137)
(0.114205 -0.252278 -0.0102395)
(0.183115 -0.108635 -0.000634127)
(0.0649386 0.111979 -0.00208568)
(0.0699716 0.0353544 0.0049152)
(0.0221446 0.0758301 0.00595194)
(0.0180469 0.0286605 0.00458819)
(-0.00212362 0.0354084 -0.000686016)
(-0.00486431 0.0231006 -0.0046866)
(-0.00780106 0.0305334 -0.00734305)
(-0.00848893 0.0320481 -0.00979278)
(-0.00949756 0.04492 -0.0103391)
(-0.00920686 0.0506537 -0.00966538)
(-0.00811316 0.0602111 -0.00780033)
(-0.00531688 0.0639795 -0.0059965)
(-0.00265689 0.0684643 -0.00398259)
(-0.000168798 0.0693495 -0.00209735)
(0.00178665 0.0699694 -0.000485939)
(0.0034433 0.0680066 0.000861246)
(0.00464007 0.0650162 0.00173503)
(0.00542691 0.0608885 0.00220009)
(0.00562929 0.0556951 0.00229071)
(0.00506988 0.0500279 0.00210751)
(0.00385722 0.043851 0.0016898)
(0.00205822 0.0375466 0.00113996)
(-0.000102153 0.0312582 0.000571075)
(-0.00243756 0.0253694 8.72287e-05)
(-0.00464925 0.0200092 -0.000268964)
(-0.00656648 0.0154169 -0.000536377)
(-0.00801344 0.0112283 -0.00061819)
(-0.00859538 0.00758422 -0.000443193)
(-0.00750022 0.00459235 0.000559202)
(-0.00560564 0.0025476 0.00165921)
(-0.00466785 0.0021061 0.00219242)
(-0.0050325 0.00311919 0.00313275)
(-0.00703 0.00373854 0.00539805)
(-0.00984279 0.00383677 0.00835326)
(-0.0122629 0.00131047 0.0105939)
(0.0162152 0.0198687 0.00630198)
(0.0266067 0.018265 0.00704756)
(0.0114121 0.00760176 0.00171157)
(0.0184308 0.0129729 0.00294408)
(0.0109223 0.00328088 0.000593917)
(0.013324 0.00755518 0.000247672)
(0.00811058 0.00195575 -2.91142e-05)
(0.0073161 0.00423899 0.000622688)
(0.0043938 0.00113632 0.00127943)
(0.00410795 0.002272 0.00181495)
(0.00324847 0.00100756 0.00222493)
(0.00386127 0.00177741 0.00301493)
(0.00373128 0.0012968 0.0035169)
(0.00398496 0.00167266 0.0038946)
(0.00369363 0.00130843 0.00402548)
(0.00365891 0.001396 0.00413845)
(0.00341965 0.00112391 0.0041609)
(0.00333139 0.00110876 0.00419261)
(0.00317829 0.000942086 0.00419334)
(0.00309814 0.000914078 0.00420271)
(0.00300904 0.000830307 0.00420108)
(0.00295233 0.00080874 0.00420538)
(0.00289978 0.000773345 0.00420354)
(0.00285959 0.000760575 0.00420354)
(0.00282381 0.000747149 0.00420053)
(0.00279291 0.000743849 0.00419774)
(0.00276639 0.000740167 0.00419471)
(0.00274236 0.000740553 0.00419051)
(0.00272032 0.000742178 0.00418541)
(0.00270036 0.000744645 0.00417992)
(0.00268213 0.000748712 0.00417448)
(0.00266566 0.000750293 0.00416948)
(0.00264924 0.000760265 0.00416338)
(0.00263461 0.00074528 0.00415698)
(0.00262872 0.000793922 0.0041523)
(0.00260636 0.000699902 0.00414386)
(0.00263007 0.000890272 0.00414891)
(0.00258743 0.000567386 0.00413543)
(0.00267824 0.00108638 0.004165)
(0.0025896 0.000274183 0.00413351)
(0.00280071 0.00141537 0.00421087)
(0.00263016 -0.000231644 0.00413174)
(0.00300517 0.00192814 0.00429191)
(0.00271699 -0.000908238 0.00412236)
(0.00314871 0.00266383 0.00433379)
(0.00274623 -0.00158075 0.00404692)
(0.00286221 0.00372804 0.00407691)
(0.00262778 -0.00247417 0.00376677)
(0.00273477 0.00491152 0.00344494)
(0.00306741 -0.00527786 0.00378415)
(0.00480246 0.00543316 0.00420975)
(0.00349278 -0.0100215 0.00719274)
(0.00510363 0.00999299 0.00933024)
(-0.00465493 -0.0165299 0.016823)
(0.00622101 0.0148343 0.0436019)
(-0.00962067 -0.0289367 0.0499037)
(0.0174211 0.0367421 0.0988222)
(-0.0724738 -0.121225 0.0829121)
(0.0372418 0.0314866 -0.17023)
(0.062625 -0.259466 -0.00199229)
(0.147735 -0.0462192 -0.00378349)
(0.0521173 0.141894 -0.00513467)
(0.0489669 0.106821 0.0058102)
(0.017969 0.1389 0.00267988)
(0.0103851 0.126421 0.00034889)
(0.00190497 0.135423 -0.0029391)
(-0.00137788 0.13015 -0.00350502)
(-0.00481324 0.138421 -0.00397155)
(-0.00521912 0.136537 -0.00298032)
(-0.00559769 0.141874 -0.00147547)
(-0.00453101 0.139716 0.000325646)
(-0.00279352 0.141947 0.00211582)
(-0.000460042 0.138777 0.0038456)
(0.00152126 0.137606 0.0054068)
(0.00279115 0.133164 0.00670187)
(0.00511901 0.129619 0.00771905)
(0.0069027 0.124119 0.00846299)
(0.00841203 0.118121 0.00880857)
(0.00963669 0.111476 0.0089001)
(0.0104223 0.103691 0.00867794)
(0.0102391 0.09536 0.00829228)
(0.0095182 0.0862984 0.00766413)
(0.00823615 0.0770553 0.00689699)
(0.00653124 0.0672118 0.00604773)
(0.0042782 0.0573284 0.00525506)
(0.00164861 0.04741 0.00463525)
(-0.000718134 0.0380807 0.00424631)
(-0.00285347 0.0289504 0.00411112)
(-0.00450416 0.0205156 0.00429657)
(-0.00536124 0.0132341 0.00496946)
(-0.00607301 0.00733301 0.00557161)
(-0.00703154 0.00348673 0.00578037)
(-0.00827112 0.00121049 0.0056856)
(-0.00970363 0.000493793 0.00607336)
(-0.0116531 0.000608455 0.00732873)
(-0.0136563 -0.000681229 0.00761202)
(0.0118276 0.0179311 0.00530637)
(0.0264108 0.0219538 0.00819077)
(0.00826067 0.00656608 0.00276299)
(0.0172383 0.0150614 0.00520733)
(0.00913165 0.0021214 0.00244977)
(0.0124181 0.00765561 0.00186624)
(0.0076898 0.000941695 0.000748499)
(0.00721165 0.00435967 0.000667545)
(0.0037071 0.000710129 0.001227)
(0.00283731 0.00207306 0.00189656)
(0.00129859 0.000155407 0.00223602)
(0.00133668 0.000942595 0.00296255)
(0.000758964 0.000430552 0.00347184)
(0.000923133 0.00111511 0.00393265)
(0.00049375 0.000836897 0.00411715)
(0.00042097 0.00114435 0.00427132)
(9.6025e-05 0.000959215 0.0043014)
(-3.41745e-05 0.00108029 0.0043366)
(-0.00024629 0.000972381 0.00432429)
(-0.000357903 0.00101785 0.00432135)
(-0.00047366 0.000968238 0.00430051)
(-0.000544 0.00098328 0.00428778)
(-0.000602452 0.000967124 0.00426917)
(-0.000640683 0.000970985 0.00425612)
(-0.000668958 0.000968022 0.00424191)
(-0.000687204 0.000970419 0.0042302)
(-0.000698208 0.000971107 0.00421822)
(-0.000702914 0.000974768 0.00420663)
(-0.000703093 0.000978401 0.00419649)
(-0.000700489 0.000982399 0.00418796)
(-0.000696925 0.000987163 0.00418053)
(-0.000692038 0.000990982 0.0041745)
(-0.000688034 0.00100013 0.004169)
(-0.000679823 0.000987936 0.00416593)
(-0.000669984 0.0010313 0.00416386)
(-0.000666443 0.000947295 0.00416472)
(-0.000638842 0.00112203 0.00417528)
(-0.000644527 0.000826335 0.00418459)
(-0.000568821 0.00131759 0.00423202)
(-0.000594947 0.000571595 0.00424473)
(-0.000447174 0.00166419 0.00433327)
(-0.000512394 0.000172158 0.0043215)
(-0.000289271 0.00223176 0.00445042)
(-0.000376691 -0.00030415 0.00440086)
(-0.00022495 0.00309215 0.00448332)
(-0.000217724 -0.000785541 0.00436858)
(-0.000309638 0.00431812 0.00418909)
(0.000145522 -0.0018133 0.0041095)
(0.000396215 0.00560929 0.00388585)
(0.00145633 -0.00471788 0.00427674)
(0.00196354 0.00617137 0.00447389)
(0.00181683 -0.00916754 0.00646957)
(0.000589421 0.00708532 0.00658095)
(-0.00646546 -0.0160575 0.00782186)
(-0.0163741 7.67932e-05 0.0289389)
(-0.0352033 -0.0438041 0.0491681)
(0.00128842 -0.0257901 0.085306)
(-0.014609 -0.118534 0.0820778)
(0.0322605 -0.0867634 -0.167074)
(0.032023 -0.275814 -0.00201393)
(0.0717663 0.0312385 -0.00559791)
(0.0249295 0.198087 -0.00596419)
(0.0258895 0.196207 0.00672161)
(0.0107555 0.224179 0.00627118)
(0.00798657 0.218555 0.00834164)
(0.00303652 0.22824 0.00598223)
(0.00109595 0.222396 0.00681804)
(-0.00105064 0.226219 0.006538)
(-0.00153704 0.219782 0.00748478)
(-0.00206161 0.219837 0.0083243)
(-0.00115555 0.213443 0.00967488)
(-0.000392333 0.212023 0.0103446)
(0.00154783 0.205203 0.0115652)
(0.00305781 0.200778 0.0122481)
(0.00530961 0.193511 0.0137482)
(0.00703501 0.18763 0.0138721)
(0.00924928 0.181168 0.0146098)
(0.0109079 0.173448 0.0147055)
(0.0126405 0.166139 0.0148438)
(0.013877 0.15805 0.0146001)
(0.0147077 0.149773 0.0145208)
(0.0148564 0.14047 0.0140342)
(0.0145267 0.131075 0.0132146)
(0.0135509 0.120608 0.012405)
(0.0119702 0.109365 0.0113975)
(0.00967824 0.0973668 0.0105453)
(0.00724185 0.0848631 0.00958508)
(0.00468407 0.0719736 0.00868595)
(0.00170489 0.0586062 0.00756925)
(-0.00125602 0.045467 0.00669275)
(-0.00478286 0.0327485 0.00563444)
(-0.00826302 0.0214975 0.00429241)
(-0.0126382 0.0116661 0.00339821)
(-0.0176729 0.00469445 0.00327875)
(-0.0221932 0.000990215 0.00286778)
(-0.0290866 -0.00147012 0.00169652)
(0.00617777 0.0125365 0.00396145)
(0.0249359 0.0254833 0.00832226)
(0.00372964 0.00541363 0.0034844)
(0.0140636 0.0177245 0.00716565)
(0.00614346 0.00178984 0.00445244)
(0.00990536 0.00847243 0.00404939)
(0.00522315 -9.39471e-05 0.00272116)
(0.00576787 0.00428764 0.00183407)
(0.00247212 0.000129849 0.00208518)
(0.00142068 0.00188913 0.00276593)
(-0.00047864 -0.000544898 0.00318413)
(-0.000563528 0.000360659 0.00382358)
(-0.00126039 -0.000398092 0.00432232)
(-0.00100433 0.000447048 0.00483703)
(-0.00142335 0.0001895 0.0051026)
(-0.00145012 0.000727463 0.00531601)
(-0.00176947 0.000652591 0.0053851)
(-0.00183996 0.000954088 0.00545682)
(-0.00200814 0.000941471 0.00546949)
(-0.00205616 0.00108936 0.00549836)
(-0.00211868 0.00109855 0.00550924)
(-0.00213221 0.00116855 0.00553229)
(-0.00213991 0.0011874 0.00554843)
(-0.00212801 0.00122066 0.00557244)
(-0.00210967 0.0012419 0.00559536)
(-0.00208418 0.00126312 0.00562089)
(-0.0020557 0.00128016 0.00564534)
(-0.00202489 0.00129309 0.00566923)
(-0.00199274 0.00130166 0.00569379)
(-0.0019587 0.00130855 0.00571976)
(-0.00192389 0.00131509 0.00574691)
(-0.00188683 0.00131872 0.00577597)
(-0.00185075 0.00132737 0.0058051)
(-0.00180906 0.00131662 0.00583756)
(-0.00176828 0.00135511 0.0058694)
(-0.0017287 0.00127683 0.00590599)
(-0.00167118 0.00144008 0.00594584)
(-0.00163332 0.00116639 0.00598764)
(-0.0015338 0.00164343 0.00604871)
(-0.00150736 0.000960874 0.00608737)
(-0.00135421 0.00202683 0.00617013)
(-0.00134553 0.000678543 0.00619278)
(-0.00115696 0.00267224 0.00626183)
(-0.00114043 0.000388196 0.00626188)
(-0.00110425 0.00366449 0.00615423)
(-0.000924979 -6.14254e-05 0.00613451)
(-0.00117475 0.00499597 0.00570022)
(-0.000521193 -0.00155036 0.00572541)
(-0.000534283 0.0064964 0.00563923)
(0.000806706 -0.00494949 0.0059999)
(0.000810219 0.00796037 0.00693457)
(0.00279271 -0.00828629 0.00889103)
(0.000121687 0.00958836 0.00951097)
(0.00372196 -0.0118252 0.00868972)
(-0.0127025 0.00879645 0.0294308)
(-0.027733 -0.047477 0.0462529)
(-0.0157541 -0.0368379 0.0767483)
(0.0196901 -0.0981755 0.0724866)
(-0.00537084 -0.112478 -0.153201)
(-0.0096033 -0.269999 -0.00160952)
(-0.0269159 0.0685518 -0.00887984)
(-0.0124235 0.229142 -0.00767513)
(-0.00512565 0.239274 0.00833843)
(-0.00112471 0.268311 0.010492)
(0.000970698 0.263851 0.0130923)
(0.000657388 0.273759 0.0121844)
(0.000790401 0.267799 0.0128917)
(0.000394942 0.270796 0.0129003)
(0.000258505 0.264006 0.0137121)
(0.000824032 0.263248 0.0141866)
(0.00162806 0.256941 0.0151296)
(0.00266546 0.253603 0.0156294)
(0.00418881 0.247213 0.0164238)
(0.00609257 0.242082 0.0168403)
(0.00870188 0.235826 0.0175942)
(0.0104704 0.229953 0.0179085)
(0.0126557 0.223771 0.0184371)
(0.0144634 0.217471 0.0187975)
(0.0161299 0.211423 0.0192669)
(0.0174488 0.205327 0.0196756)
(0.0188011 0.199295 0.0201654)
(0.0194733 0.193246 0.0205861)
(0.0197283 0.187145 0.0209539)
(0.0194524 0.180595 0.0211989)
(0.0189374 0.173222 0.0213108)
(0.0181733 0.165111 0.0213737)
(0.0170108 0.155716 0.0210999)
(0.015596 0.145411 0.0205882)
(0.0139065 0.133531 0.0196388)
(0.0115662 0.120217 0.0181328)
(0.00841203 0.106312 0.0159484)
(0.00406712 0.0903695 0.0125732)
(-0.00138726 0.0734344 0.00805311)
(-0.00815551 0.0539252 0.00089654)
(-0.0173378 0.0303694 -0.0145275)
(-0.0264765 0.0100221 -0.0348454)
(-0.00428444 0.00920768 -0.00592304)
(0.0226518 0.029077 0.00522734)
(-0.00263588 0.00524788 0.00037841)
(0.00937517 0.0212101 0.00496799)
(0.00134545 0.00258911 0.00304093)
(0.0056789 0.0105231 0.00291633)
(0.00157483 0.000189946 0.00155572)
(0.00294974 0.00529974 0.000176638)
(0.000194682 0.000113853 -6.71232e-05)
(-0.000972256 0.00203652 4.7873e-05)
(-0.00338094 -0.000852226 0.000295216)
(-0.00395199 0.000246343 0.000737474)
(-0.00506986 -0.000811206 0.001144)
(-0.00498397 0.00011122 0.00162987)
(-0.00555594 -0.000125439 0.00195501)
(-0.00563383 0.000568325 0.00221292)
(-0.00600616 0.000562564 0.00234766)
(-0.00610998 0.000962767 0.0024644)
(-0.00631233 0.000995146 0.00252562)
(-0.00638998 0.00119046 0.00258955)
(-0.00648283 0.00122398 0.0026332)
(-0.00652582 0.00131357 0.00268269)
(-0.0065589 0.00134505 0.00272434)
(-0.00657259 0.0013869 0.00277169)
(-0.0065753 0.00141262 0.00281816)
(-0.0065649 0.00143594 0.0028674)
(-0.00653963 0.00145297 0.00291777)
(-0.00650252 0.00146692 0.00296989)
(-0.00646338 0.00147812 0.00302202)
(-0.00642327 0.00148772 0.00307375)
(-0.00638242 0.00149652 0.00312498)
(-0.00633898 0.00150225 0.00317617)
(-0.00629714 0.00151316 0.00322587)
(-0.0062498 0.00150626 0.00327632)
(-0.00620691 0.00154414 0.0033237)
(-0.00616299 0.00147815 0.00337513)
(-0.00612106 0.00163088 0.00342146)
(-0.00607643 0.00138888 0.00347759)
(-0.00603669 0.00183709 0.00351915)
(-0.00596439 0.00122936 0.00358116)
(-0.00596157 0.00223872 0.00360836)
(-0.00583004 0.00104349 0.0036808)
(-0.00593419 0.00294248 0.00364486)
(-0.00565415 0.000910903 0.00372513)
(-0.00587049 0.00406702 0.00349514)
(-0.00534357 0.000550729 0.00353129)
(-0.00545962 0.00550126 0.00307088)
(-0.00461654 -0.00123266 0.00311151)
(-0.00422881 0.00702005 0.0033044)
(-0.00357753 -0.00574565 0.00358816)
(-0.00446734 0.00811701 0.00480428)
(-0.00217222 -0.00840688 0.00672545)
(-0.00786607 0.0114167 0.00625794)
(-0.00291803 -0.00991381 0.0080512)
(-0.0188184 0.0269187 0.0217178)
(-0.0182759 -0.0509281 0.0352848)
(-0.0342524 -0.0278069 0.0580567)
(0.0573159 -0.127626 0.0607133)
(-0.0384619 -0.0426167 -0.171658)
(-0.0450394 -0.268773 -0.0116625)
(-0.126157 0.0107081 -0.0228506)