/*--------------------------------*- C++ -*----------------------------------*\
| =========                 |                                                 |
| \\      /  F ield         | OpenFOAM: The Open Source CFD Toolbox           |
|  \\    /   O peration     | Version:  2.3.0                                 |
|   \\  /    A nd           | Web:      www.OpenFOAM.org                      |
|    \\/     M anipulation  |                                                 |
\*---------------------------------------------------------------------------*/
FoamFile
{
    version     2.0;
    format      ascii;
    class       volVectorField;
    location    "17";
    object      Ur;
}
// * * * * * * * * * * * * * * * * * * * * * * * * * * * * * * * * * * * * * //

dimensions      [0 1 -1 0 0 0 0];

internalField   nonuniform List<vector> 
6144
(
(-3.7687e-07 0.000367173 -3.99558e-07)
(-4.52868e-08 0.000405064 -3.43844e-07)
(1.69625e-07 0.000450282 -2.77561e-07)
(2.74735e-07 0.000478298 -2.29203e-07)
(3.80902e-07 0.000504272 -1.07431e-07)
(4.27038e-07 0.000536393 -7.72497e-08)
(4.27784e-07 0.000561678 -2.92601e-08)
(4.49929e-07 0.000571921 -4.61656e-08)
(4.40659e-07 0.000572598 -9.45584e-09)
(4.1294e-07 0.000571449 2.9495e-08)
(3.59688e-07 0.000570289 2.71354e-08)
(3.03343e-07 0.000569183 4.31991e-08)
(2.4512e-07 0.000568181 4.54493e-08)
(1.97701e-07 0.000567273 5.03961e-08)
(1.58046e-07 0.000566457 4.13327e-08)
(1.24954e-07 0.00056572 3.16981e-08)
(1.00061e-07 0.000565063 2.26093e-08)
(7.49193e-08 0.000564486 1.4468e-08)
(5.79507e-08 0.000564003 1.02958e-08)
(3.75482e-08 0.000563575 5.06285e-09)
(2.52534e-08 0.000563166 4.72014e-09)
(8.15943e-09 0.000562793 1.24034e-09)
(-6.08186e-10 0.000562474 1.71801e-09)
(-1.52554e-08 0.000562198 -5.81957e-10)
(-2.14959e-08 0.000561947 8.26597e-10)
(-3.41528e-08 0.00056171 -8.05165e-10)
(-3.87934e-08 0.000561507 1.22371e-09)
(-4.99714e-08 0.000561357 1.94089e-10)
(-5.36608e-08 0.00056124 2.58425e-09)
(-6.3776e-08 0.000561148 2.125e-09)
(-6.71808e-08 0.00056108 4.86538e-09)
(-7.67639e-08 0.000561031 4.89084e-09)
(-8.05691e-08 0.000560997 8.02475e-09)
(-8.97767e-08 0.000560968 8.36358e-09)
(-9.45033e-08 0.000560968 1.20787e-08)
(-1.02782e-07 0.000560953 1.28188e-08)
(-1.11395e-07 0.000560984 1.76633e-08)
(-1.15959e-07 0.000560945 1.86053e-08)
(-1.27492e-07 0.000560978 2.23329e-08)
(-1.3521e-07 0.000560911 2.9051e-08)
(-1.50227e-07 0.000560976 3.43633e-08)
(-1.61595e-07 0.00056094 4.31598e-08)
(-1.79173e-07 0.000561121 4.41664e-08)
(-1.88513e-07 0.000561112 4.65365e-08)
(-2.19419e-07 0.000561456 4.47787e-08)
(-2.30381e-07 0.000561388 1.6813e-08)
(-2.63187e-07 0.000562102 -1.38966e-09)
(-3.02297e-07 0.000561458 -1.705e-08)
(-3.09037e-07 0.000569707 -3.78362e-08)
(-4.99789e-07 0.000600025 1.54503e-08)
(-6.12736e-07 0.000675951 -4.26287e-08)
(-1.21184e-06 0.000812865 -5.99177e-09)
(-6.10609e-07 0.00114571 2.77475e-07)
(-2.73518e-06 0.0017136 -1.9616e-06)
(-2.91608e-06 0.00259003 -6.4099e-07)
(-3.13696e-05 0.00391984 -1.71974e-05)
(3.81474e-05 0.00662515 6.79443e-06)
(2.57324e-05 0.0100166 -4.90287e-05)
(0.000233779 0.0213412 0.0016073)
(0.00625205 0.121197 0.0144245)
(-0.0361852 0.583424 0.0268239)
(-0.0413854 0.497952 0.0112335)
(-0.0582743 0.31649 0.0205137)
(0.000118101 0.0299691 2.45207e-05)
(-8.26308e-05 0.00799507 3.74296e-06)
(-6.30578e-05 0.00834044 3.58032e-06)
(-3.45166e-05 0.00835525 -9.08636e-06)
(-2.18801e-05 0.00837952 -1.94209e-05)
(-1.60989e-05 0.00840163 -2.25995e-05)
(-1.11124e-05 0.00842023 -2.09667e-05)
(-6.27308e-06 0.00843453 -1.79802e-05)
(-1.97529e-06 0.00844408 -1.49917e-05)
(1.68855e-06 0.00844913 -1.23623e-05)
(4.65299e-06 0.00845038 -1.01314e-05)
(6.24288e-06 0.00844902 -8.46707e-06)
(6.14566e-06 0.0084467 -7.3057e-06)
(5.71621e-06 0.00844414 -6.15331e-06)
(4.58199e-06 0.00844128 -5.63991e-06)
(2.904e-06 0.00844078 -5.1621e-06)
(1.86074e-06 0.00844463 -4.11546e-06)
(-1.08532e-06 0.00844864 -4.26527e-06)
(-4.18783e-06 0.00847405 -4.306e-06)
(-5.13673e-06 0.00851331 -3.84286e-06)
(-8.29522e-06 0.00856148 -4.27588e-06)
(-1.18822e-05 0.00864102 -5.61964e-06)
(-1.55974e-05 0.00874053 -7.2296e-06)
(-1.66332e-05 0.00884263 -1.05028e-05)
(-1.79439e-05 0.00892204 -1.35932e-05)
(-1.99638e-05 0.00887292 -2.33223e-05)
(-1.59066e-05 0.00812293 -2.59625e-05)
(-8.24318e-06 0.00654371 -1.20817e-05)
(-2.17297e-06 0.00535662 7.70717e-07)
(-1.22529e-06 0.005047 -9.61254e-06)
(-5.29671e-07 0.00499266 -2.54521e-05)
(-3.00909e-06 0.00483874 -2.67212e-05)
(7.57303e-07 0.00460292 -8.16333e-06)
(-4.70151e-07 0.000335652 -5.24055e-07)
(6.57054e-07 0.000366426 -1.33196e-07)
(9.9942e-07 0.000403724 -1.30737e-07)
(1.15988e-06 0.000441775 -8.12656e-08)
(1.36409e-06 0.000484999 6.96024e-08)
(1.36672e-06 0.00052659 9.74697e-08)
(1.35512e-06 0.00055863 1.06627e-07)
(1.28266e-06 0.000571996 2.37986e-08)
(1.22706e-06 0.00057256 5.82213e-08)
(1.11283e-06 0.000571356 1.21077e-07)
(9.55843e-07 0.000570239 1.33359e-07)
(7.94017e-07 0.00056918 1.64981e-07)
(6.35577e-07 0.000568197 1.6043e-07)
(5.09388e-07 0.000567299 1.62004e-07)
(4.06919e-07 0.000566471 1.47629e-07)
(3.22948e-07 0.000565724 1.42098e-07)
(2.53139e-07 0.000565078 1.31237e-07)
(1.9089e-07 0.000564536 1.29216e-07)
(1.39961e-07 0.000564058 1.22243e-07)
(9.16927e-08 0.000563604 1.22632e-07)
(5.24332e-08 0.000563183 1.17333e-07)
(1.37777e-08 0.000562814 1.19616e-07)
(-1.69321e-08 0.000562499 1.15627e-07)
(-4.87844e-08 0.000562223 1.1912e-07)
(-7.36049e-08 0.000561953 1.16226e-07)
(-1.00614e-07 0.000561696 1.20324e-07)
(-1.21545e-07 0.000561506 1.17897e-07)
(-1.45544e-07 0.000561369 1.22192e-07)
(-1.64477e-07 0.000561243 1.20341e-07)
(-1.8694e-07 0.000561139 1.24958e-07)
(-2.05194e-07 0.000561085 1.23568e-07)
(-2.27492e-07 0.000561052 1.28018e-07)
(-2.45404e-07 0.000561022 1.27838e-07)
(-2.70295e-07 0.000560985 1.3131e-07)
(-2.877e-07 0.00056099 1.33239e-07)
(-3.14088e-07 0.000560977 1.34689e-07)
(-3.36581e-07 0.000561009 1.41039e-07)
(-3.62737e-07 0.000560933 1.37539e-07)
(-3.9179e-07 0.000560926 1.46434e-07)
(-4.20879e-07 0.000560795 1.47143e-07)
(-4.66301e-07 0.000560894 1.54411e-07)
(-4.90728e-07 0.000560818 1.68554e-07)
(-5.61635e-07 0.000561064 1.50188e-07)
(-5.82406e-07 0.000560984 1.82969e-07)
(-6.85629e-07 0.000561395 1.40264e-07)
(-7.02591e-07 0.000561226 1.66062e-07)
(-8.29496e-07 0.000561992 8.20154e-08)
(-9.30561e-07 0.000561562 1.39018e-07)
(-1.03003e-06 0.000564863 2.23397e-09)
(-1.51926e-06 0.000581928 1.31772e-07)
(-1.73862e-06 0.000633928 -2.9234e-08)
(-3.06345e-06 0.000762461 9.00558e-08)
(-2.66068e-06 0.00119482 3.68663e-07)
(-8.33195e-06 0.0018365 -4.50318e-06)
(-1.11135e-05 0.00250179 1.16871e-06)
(-1.68589e-05 0.00367581 -3.89317e-06)
(-7.84536e-05 0.0068211 -1.1509e-05)
(-0.000435883 0.0102517 -0.000189178)
(-0.00144411 0.0230329 0.00167949)
(-0.00424036 0.110454 0.00973035)
(-0.0867294 0.552194 0.0227455)
(-0.0476178 0.308675 0.0044907)
(-0.0026614 0.0234094 -9.02689e-05)
(6.10844e-05 0.00880644 -4.4093e-05)
(-8.73128e-05 0.00843065 9.07261e-07)
(-5.00839e-05 0.00849609 -1.04162e-05)
(-3.33875e-05 0.00848784 -2.35965e-05)
(-2.40575e-05 0.00847055 -2.79258e-05)
(-1.58726e-05 0.00846554 -2.69557e-05)
(-8.63699e-06 0.00847022 -2.40191e-05)
(-2.53038e-06 0.00847995 -2.02925e-05)
(2.49545e-06 0.00849021 -1.60934e-05)
(7.9012e-06 0.0084984 -1.23176e-05)
(1.31674e-05 0.0085032 -9.47424e-06)
(1.77393e-05 0.00850473 -7.40522e-06)
(2.03192e-05 0.00850651 -5.65083e-06)
(1.92208e-05 0.00851279 -4.3982e-06)
(1.56168e-05 0.00852656 -3.5646e-06)
(1.07446e-05 0.00854788 -2.83169e-06)
(5.35356e-06 0.00857643 -2.48486e-06)
(-9.36714e-08 0.00861181 -1.73538e-06)
(-6.43526e-06 0.00865117 -1.72777e-06)
(-1.30121e-05 0.00870049 -2.6298e-06)
(-2.16636e-05 0.00875658 -3.27011e-06)
(-3.02969e-05 0.0088133 -4.79865e-06)
(-3.68042e-05 0.00886625 -6.45085e-06)
(-4.16605e-05 0.00890928 -1.08586e-05)
(-4.35485e-05 0.0089414 -1.22037e-05)
(-4.80215e-05 0.00889214 -2.06127e-05)
(-4.43626e-05 0.00826706 -2.30739e-05)
(-2.1539e-05 0.00685848 -1.17591e-05)
(-9.9816e-06 0.0056848 -4.88731e-06)
(-5.17441e-06 0.00538629 -7.26191e-06)
(-2.51706e-06 0.00537403 -2.01778e-05)
(-5.27422e-06 0.00519792 -1.9462e-05)
(-2.35715e-06 0.00490758 -8.85736e-06)
(-1.38677e-08 0.000332821 -2.37092e-07)
(1.57272e-06 0.0003569 -3.41495e-08)
(1.8503e-06 0.00038791 -3.86087e-08)
(2.17613e-06 0.000423392 7.6701e-08)
(2.41435e-06 0.00045934 2.26735e-07)
(2.41994e-06 0.000497242 2.53351e-07)
(2.37875e-06 0.000541173 2.34452e-07)
(2.11381e-06 0.000567961 1.91666e-07)
(1.87034e-06 0.000572443 1.29511e-07)
(1.6061e-06 0.000571128 1.82761e-07)
(1.33013e-06 0.000569984 1.86469e-07)
(1.04888e-06 0.000568951 2.0775e-07)
(7.91119e-07 0.000568004 1.95676e-07)
(5.89841e-07 0.000567139 1.91634e-07)
(4.29437e-07 0.000566346 1.7737e-07)
(3.0233e-07 0.000565628 1.73058e-07)
(1.97446e-07 0.000565002 1.6813e-07)
(1.04856e-07 0.000564467 1.668e-07)
(2.87577e-08 0.00056399 1.66413e-07)
(-4.33477e-08 0.000563541 1.65168e-07)
(-1.01777e-07 0.000563131 1.64978e-07)
(-1.59911e-07 0.000562774 1.63867e-07)
(-2.06322e-07 0.000562468 1.64672e-07)
(-2.54971e-07 0.000562199 1.64087e-07)
(-2.93467e-07 0.000561938 1.65187e-07)
(-3.35605e-07 0.000561691 1.64984e-07)
(-3.68958e-07 0.000561504 1.6666e-07)
(-4.07304e-07 0.000561365 1.66621e-07)
(-4.3843e-07 0.000561241 1.68459e-07)
(-4.75346e-07 0.000561149 1.68837e-07)
(-5.06197e-07 0.000561102 1.70905e-07)
(-5.44056e-07 0.000561061 1.71469e-07)
(-5.75339e-07 0.000561025 1.73749e-07)
(-6.15764e-07 0.000560991 1.75018e-07)
(-6.49634e-07 0.000560994 1.78079e-07)
(-6.9351e-07 0.000560979 1.7781e-07)
(-7.28027e-07 0.000561007 1.83631e-07)
(-7.81962e-07 0.000560948 1.80818e-07)
(-8.24726e-07 0.000560941 1.86465e-07)
(-8.82704e-07 0.00056082 1.84923e-07)
(-9.45366e-07 0.000560917 1.9216e-07)
(-1.00234e-06 0.00056081 1.87444e-07)
(-1.10372e-06 0.000561082 1.89732e-07)
(-1.14624e-06 0.000560946 1.99073e-07)
(-1.29669e-06 0.000561401 1.82908e-07)
(-1.32199e-06 0.00056112 1.99799e-07)
(-1.52238e-06 0.000561896 1.71816e-07)
(-1.63619e-06 0.000561251 2.32788e-07)
(-1.91814e-06 0.000565902 1.24994e-07)
(-2.50871e-06 0.000587713 2.89646e-07)
(-3.03972e-06 0.000649515 1.27776e-07)
(-4.19641e-06 0.000777076 3.07787e-07)
(-3.71004e-06 0.00116824 9.95161e-07)
(-1.5787e-05 0.00174644 -1.11277e-06)
(-4.87436e-06 0.00260316 5.7247e-06)
(6.75832e-05 0.00371694 5.91292e-08)
(-0.000147533 0.00614931 6.59119e-05)
(-0.00064161 0.00834554 -8.58475e-05)
(-0.00214289 0.0179341 0.000857681)
(0.00100428 0.0989309 0.00736729)
(-0.0154902 0.406746 0.0108707)
(2.2811e-05 0.0357041 -0.000533388)
(0.000150684 0.00915526 3.10574e-05)
(-0.000224285 0.0103231 1.2005e-05)
(-9.93251e-05 0.00913537 -1.5593e-06)
(-3.97122e-05 0.00905538 -9.50823e-06)
(-4.59785e-05 0.00894467 -2.85993e-05)
(-2.95367e-05 0.00887645 -3.91026e-05)
(-1.06552e-05 0.00883438 -3.93694e-05)
(1.58511e-06 0.00880347 -3.40546e-05)
(8.6125e-06 0.00877923 -2.73956e-05)
(1.53315e-05 0.00876353 -2.02574e-05)
(2.21504e-05 0.00876254 -1.48089e-05)
(2.43821e-05 0.00877582 -1.0947e-05)
(2.37449e-05 0.00880266 -8.44566e-06)
(2.12455e-05 0.00884113 -6.648e-06)
(1.81237e-05 0.00888617 -4.70943e-06)
(1.45901e-05 0.00892026 -2.66134e-06)
(9.99631e-06 0.00892799 -1.03935e-06)
(5.07834e-06 0.00892603 2.68504e-08)
(9.75042e-07 0.00893663 1.0041e-06)
(-4.32583e-06 0.00896404 1.51636e-06)
(-1.13303e-05 0.00899471 2.40779e-06)
(-1.93743e-05 0.00901327 2.55836e-06)
(-2.86674e-05 0.00902402 1.35292e-06)
(-3.955e-05 0.0090268 -1.60825e-06)
(-4.93963e-05 0.00901876 -7.55718e-06)
(-5.36786e-05 0.00899966 -1.21879e-05)
(-5.66072e-05 0.00889228 -1.82636e-05)
(-4.5216e-05 0.00820812 -2.41068e-05)
(-2.14718e-05 0.00683369 -1.47049e-05)
(-1.5689e-05 0.00579298 -5.77335e-06)
(-7.83252e-06 0.00558233 -6.26792e-06)
(-2.98435e-06 0.00560247 -1.82101e-05)
(-4.71637e-06 0.0054387 -1.48643e-05)
(-4.83615e-06 0.00512345 -5.37089e-06)
(1.64457e-07 0.000341767 -6.11747e-07)
(2.41945e-06 0.000355509 -7.97435e-08)
(2.8415e-06 0.000372125 -6.60614e-08)
(3.41929e-06 0.000393012 7.73451e-08)
(3.56064e-06 0.000424628 2.08038e-07)
(3.56356e-06 0.000472203 2.5113e-07)
(3.36034e-06 0.000525874 2.95992e-07)
(2.96651e-06 0.00056132 2.29195e-07)
(2.48705e-06 0.00057147 1.40528e-07)
(2.03677e-06 0.000570832 1.75964e-07)
(1.64658e-06 0.000569629 1.65899e-07)
(1.26253e-06 0.000568612 1.82895e-07)
(9.28191e-07 0.000567697 1.74326e-07)
(6.63107e-07 0.000566863 1.75304e-07)
(4.42224e-07 0.000566113 1.59528e-07)
(2.68336e-07 0.000565439 1.61362e-07)
(1.19614e-07 0.00056483 1.52022e-07)
(1.03856e-09 0.000564304 1.56783e-07)
(-1.06001e-07 0.000563842 1.51521e-07)
(-1.93811e-07 0.000563414 1.57619e-07)
(-2.75149e-07 0.000563013 1.51856e-07)
(-3.42161e-07 0.000562662 1.58639e-07)
(-4.07905e-07 0.000562365 1.52741e-07)
(-4.62406e-07 0.000562094 1.5877e-07)
(-5.18064e-07 0.000561825 1.52568e-07)
(-5.64565e-07 0.000561586 1.59295e-07)
(-6.14139e-07 0.00056141 1.53746e-07)
(-6.56795e-07 0.000561275 1.60141e-07)
(-7.04158e-07 0.000561163 1.54698e-07)
(-7.46105e-07 0.00056108 1.61081e-07)
(-7.93724e-07 0.000561023 1.56116e-07)
(-8.37426e-07 0.000560971 1.62345e-07)
(-8.87425e-07 0.000560934 1.57813e-07)
(-9.36199e-07 0.000560905 1.62637e-07)
(-9.87457e-07 0.000560916 1.61584e-07)
(-1.04587e-06 0.000560903 1.63257e-07)
(-1.09921e-06 0.000560924 1.6304e-07)
(-1.16779e-06 0.000560851 1.64586e-07)
(-1.22974e-06 0.00056086 1.64562e-07)
(-1.3073e-06 0.000560753 1.65941e-07)
(-1.38402e-06 0.000560845 1.6693e-07)
(-1.47593e-06 0.000560756 1.63899e-07)
(-1.57553e-06 0.000561008 1.6753e-07)
(-1.66992e-06 0.000560853 1.58599e-07)
(-1.79099e-06 0.000561279 1.73025e-07)
(-1.92752e-06 0.000560921 1.6147e-07)
(-2.05681e-06 0.000561664 2.0712e-07)
(-2.30723e-06 0.000560767 2.29226e-07)
(-2.575e-06 0.000567466 2.45054e-07)
(-3.15626e-06 0.000596012 4.49192e-07)
(-3.92872e-06 0.000679925 2.35466e-07)
(-4.57435e-06 0.000806023 -3.05234e-07)
(-5.24207e-06 0.00107453 1.18822e-06)
(-1.50177e-05 0.00162388 -4.95786e-06)
(-5.04848e-06 0.00280602 2.4556e-06)
(6.31974e-05 0.00396097 -4.5448e-05)
(4.61308e-05 0.00582173 4.6906e-05)
(-0.00037144 0.00690618 0.000301721)
(-0.00265103 0.017241 0.0010663)
(0.0112689 0.108926 0.00555179)
(-0.0069782 0.442019 0.0124449)
(-0.000826374 0.0357903 -0.000567237)
(0.000704534 0.00971645 7.14239e-05)
(-0.000237421 0.0104711 2.88695e-06)
(-3.99872e-05 0.00983427 7.74066e-07)
(-0.000119034 0.0095783 -3.75107e-05)
(4.26492e-05 0.00949631 -5.45575e-05)
(0.000177764 0.00946702 -4.29748e-05)
(0.000161496 0.00951693 -3.47901e-05)
(6.98566e-05 0.00963366 -2.66001e-05)
(-2.27671e-05 0.0098276 -0.000207984)
(-8.46206e-05 0.0100658 -0.000188338)
(-0.000109388 0.0102706 -8.2691e-06)
(-0.00010678 0.0103006 -1.11673e-05)
(-9.22994e-05 0.0101021 -8.4725e-06)
(-6.87261e-05 0.00977225 -6.5933e-06)
(-4.47441e-05 0.00925656 -7.83165e-06)
(2.26509e-06 0.00884109 -4.97511e-06)
(1.722e-06 0.00865555 -4.75518e-06)
(2.51679e-06 0.0085463 -1.66092e-06)
(4.02795e-06 0.00850809 1.42153e-07)
(3.93581e-06 0.00857106 1.67143e-06)
(1.42561e-06 0.00871282 3.36549e-06)
(-2.46709e-06 0.00886586 4.44044e-06)
(-9.732e-06 0.00896269 5.46051e-06)
(-1.75652e-05 0.00899708 4.53184e-06)
(-2.48519e-05 0.00901268 1.46375e-06)
(-3.02077e-05 0.00900541 -4.33589e-06)
(-3.29718e-05 0.00881423 -1.44879e-05)
(-2.94399e-05 0.00787644 -2.34949e-05)
(-1.78395e-05 0.00644818 -1.6334e-05)
(-1.65166e-05 0.00575362 -3.71193e-06)
(-7.94917e-06 0.00575462 -5.67085e-06)
(-1.85972e-06 0.00576453 -1.49365e-05)
(-3.5349e-06 0.00557461 -9.66195e-06)
(-7.2458e-06 0.00522247 -1.82894e-06)
(7.64917e-07 0.000358506 -7.20698e-07)
(3.87734e-06 0.000365129 2.56054e-08)
(4.39259e-06 0.000372746 -1.72618e-07)
(5.07655e-06 0.00038655 -1.90636e-07)
(4.84624e-06 0.000411216 -4.95537e-09)
(4.74827e-06 0.00045368 1.64737e-07)
(4.22138e-06 0.000502735 2.4196e-07)
(3.68053e-06 0.000542583 2.20818e-07)
(2.97694e-06 0.000565289 1.42743e-07)
(2.37337e-06 0.000570394 1.70068e-07)
(1.82716e-06 0.00056918 1.22275e-07)
(1.37175e-06 0.000568244 1.56335e-07)
(9.80195e-07 0.000567422 1.3386e-07)
(6.81748e-07 0.000566646 1.41957e-07)
(4.23107e-07 0.000565943 1.23914e-07)
(2.1316e-07 0.000565315 1.2241e-07)
(3.43812e-08 0.000564749 1.1877e-07)
(-1.14566e-07 0.000564235 1.12895e-07)
(-2.36372e-07 0.000563782 1.16192e-07)
(-3.44304e-07 0.000563382 1.07879e-07)
(-4.32672e-07 0.000563011 1.13082e-07)
(-5.15767e-07 0.00056267 1.03978e-07)
(-5.84119e-07 0.000562379 1.08726e-07)
(-6.5171e-07 0.000562119 9.98627e-08)
(-7.08054e-07 0.000561862 1.05455e-07)
(-7.66465e-07 0.00056163 9.71446e-08)
(-8.16323e-07 0.000561455 1.02963e-07)
(-8.70353e-07 0.000561319 9.42453e-08)
(-9.18159e-07 0.000561213 9.88585e-08)
(-9.71885e-07 0.000561146 9.00869e-08)
(-1.0209e-06 0.00056108 9.44869e-08)
(-1.07693e-06 0.000561007 8.65945e-08)
(-1.12982e-06 0.000560956 9.131e-08)
(-1.19266e-06 0.000560932 8.4101e-08)
(-1.24758e-06 0.000560946 8.87052e-08)
(-1.32152e-06 0.000560945 8.19415e-08)
(-1.38034e-06 0.000560974 9.02855e-08)
(-1.46391e-06 0.000560886 8.0551e-08)
(-1.52953e-06 0.000560873 9.09427e-08)
(-1.62637e-06 0.000560739 7.8394e-08)
(-1.70534e-06 0.000560844 9.08767e-08)
(-1.82268e-06 0.000560784 7.18398e-08)
(-1.91209e-06 0.000560994 8.70221e-08)
(-2.06861e-06 0.000560928 6.55066e-08)
(-2.15931e-06 0.000561223 8.10151e-08)
(-2.41688e-06 0.000560948 7.61046e-08)
(-2.47932e-06 0.000561509 1.3061e-07)
(-2.87658e-06 0.000560676 1.3143e-07)
(-3.03005e-06 0.000567121 2.37978e-07)
(-3.52429e-06 0.000595487 2.89654e-07)
(-4.14455e-06 0.000683765 2.1582e-07)
(-4.71e-06 0.000851221 -3.82156e-07)
(-5.88175e-06 0.00107807 1.0187e-06)
(-5.39735e-06 0.00154223 -4.78648e-06)
(-1.20264e-05 0.0029659 1.32503e-05)
(-1.95894e-05 0.00436415 2.71018e-05)
(0.000143459 0.00589555 0.000169863)
(-0.00080442 0.00543276 0.000310835)
(-0.00245435 0.0220374 0.00170039)
(0.0200946 0.165342 0.012342)
(-0.0243765 0.561534 0.0195433)
(-0.00866042 0.478172 0.00359963)
(-0.0185413 0.495909 -0.000214038)
(-0.00213501 0.484638 -0.00460183)
(-0.00600184 0.492172 -0.00758295)
(0.000221084 0.493063 -0.00666714)
(0.00168071 0.501178 -0.00568389)
(0.00159625 0.506393 0.000952677)
(0.00171162 0.504951 0.00360239)
(0.000813646 0.500908 0.00337285)
(0.00129742 0.499317 0.00213467)
(0.00178715 0.498394 0.00184001)
(0.00239657 0.496725 0.00143209)
(0.0023051 0.493482 0.00134665)
(0.00194234 0.491675 0.00107325)
(0.0014406 0.472825 0.000604358)
(0.000898407 0.346329 -2.56693e-05)
(-5.56227e-05 0.0300583 -0.000121841)
(-4.92431e-05 0.0097919 -0.000134994)
(-1.84401e-05 0.00949518 -0.000137667)
(1.80702e-05 0.00886993 -0.000126063)
(4.72207e-05 0.00857601 -0.000117811)
(8.18815e-05 0.00838863 8.39114e-06)
(0.000109486 0.00835956 9.41957e-06)
(1.85288e-05 0.00847143 9.87564e-06)
(1.43731e-05 0.00862317 9.53088e-06)
(1.08176e-05 0.00871622 7.04164e-06)
(5.17121e-06 0.00863943 1.97973e-06)
(-2.78517e-06 0.00812985 -5.74301e-06)
(-6.06493e-07 0.00708049 -5.40402e-06)
(-1.0001e-05 0.00619147 -7.96742e-06)
(-8.92948e-06 0.00606238 -1.14363e-06)
(-4.17534e-06 0.00614699 -8.18029e-06)
(-8.19571e-07 0.00603786 -1.189e-05)
(-6.81919e-06 0.00570158 -6.69118e-06)
(-1.03858e-05 0.00528465 9.17936e-07)
(1.8231e-06 0.000372259 3.88648e-07)
(6.0276e-06 0.000378901 2.91653e-07)
(6.32941e-06 0.000382843 -3.17217e-07)
(6.86211e-06 0.000389388 -6.06431e-07)
(6.28313e-06 0.000406916 -2.64075e-07)
(5.92306e-06 0.000441128 -1.1947e-07)
(4.95216e-06 0.000479663 5.03351e-08)
(4.18368e-06 0.000517538 1.44722e-07)
(3.2889e-06 0.000548068 1.62842e-07)
(2.54913e-06 0.000563908 1.96764e-07)
(1.8587e-06 0.000567905 1.34759e-07)
(1.3723e-06 0.000567662 1.70159e-07)
(9.60124e-07 0.00056701 1.23826e-07)
(6.56393e-07 0.00056628 1.3698e-07)
(3.78816e-07 0.000565628 1.06523e-07)
(1.58075e-07 0.000565043 1.19733e-07)
(-4.71871e-08 0.000564505 1.03752e-07)
(-2.08502e-07 0.00056403 1.09771e-07)
(-3.46641e-07 0.000563585 9.45739e-08)
(-4.56239e-07 0.000563184 9.66374e-08)
(-5.51455e-07 0.000562829 8.21219e-08)
(-6.30802e-07 0.000562519 8.50893e-08)
(-7.03602e-07 0.000562236 7.22847e-08)
(-7.66337e-07 0.000561962 7.6619e-08)
(-8.2645e-07 0.000561703 6.4752e-08)
(-8.79758e-07 0.000561492 6.99832e-08)
(-9.3275e-07 0.000561335 5.86399e-08)
(-9.81585e-07 0.000561208 6.25176e-08)
(-1.03247e-06 0.000561103 5.09041e-08)
(-1.08135e-06 0.000561024 5.44336e-08)
(-1.13425e-06 0.000560957 4.35736e-08)
(-1.18724e-06 0.000560888 4.74842e-08)
(-1.24533e-06 0.00056084 3.75357e-08)
(-1.30439e-06 0.000560808 4.11052e-08)
(-1.36909e-06 0.000560799 3.26406e-08)
(-1.43646e-06 0.00056078 3.49199e-08)
(-1.50286e-06 0.00056082 3.16175e-08)
(-1.58397e-06 0.000560756 2.94695e-08)
(-1.65573e-06 0.000560753 3.30436e-08)
(-1.75673e-06 0.000560621 2.30648e-08)
(-1.8395e-06 0.000560723 3.30051e-08)
(-1.97582e-06 0.000560663 1.30547e-08)
(-2.05861e-06 0.00056087 2.22029e-08)
(-2.25404e-06 0.000560778 1.34674e-09)
(-2.33438e-06 0.00056104 -8.06628e-09)
(-2.64502e-06 0.000560778 -1.00856e-08)
(-2.73458e-06 0.000561275 -1.32856e-08)
(-3.19376e-06 0.000560499 -2.22404e-08)
(-3.2924e-06 0.000565283 1.18649e-07)
(-3.7402e-06 0.000583394 -6.02018e-08)
(-4.16819e-06 0.00064214 -1.42773e-07)
(-4.63931e-06 0.00076911 -6.72326e-07)
(-5.93794e-06 0.00100387 1.17927e-06)
(-1.20158e-07 0.00144435 -4.10236e-06)
(8.92184e-06 0.0027386 2.5287e-05)
(-0.000171997 0.00419319 5.98683e-05)
(0.000138118 0.00536428 0.000188816)
(-0.000400503 0.00424982 0.000347646)
(-0.00118528 0.0257732 0.00353306)
(0.0234664 0.269101 0.019903)
(0.0194768 0.48576 0.00891883)
(-0.0157605 0.396144 0.00668122)
(-0.00166105 0.499396 -0.00208893)
(-0.00209121 0.495954 -0.00152943)
(-0.000755573 0.487405 -0.00106387)
(-0.000597574 0.484116 0.00100732)
(0.000100942 0.465831 0.00144193)
(0.000170846 0.45858 0.000879507)
(4.03982e-05 0.429988 0.000526032)
(0.000682953 0.408454 -4.75562e-05)
(-0.000195738 0.333442 6.42372e-05)
(-0.000617922 0.516611 0.000218844)
(0.000732144 0.493095 0.000370302)
(8.83111e-05 0.473925 0.00011296)
(0.000687985 0.473362 0.000199299)
(-0.00031982 0.47617 -0.000273746)
(-0.000331922 0.497896 -0.000316826)
(-0.000135929 0.494039 -0.000160018)
(-0.00156994 0.475885 -0.000749363)
(-0.00225146 0.492358 -0.00152915)
(-0.00303185 0.486559 -0.00189818)
(-0.00366987 0.474515 -0.0021639)
(-0.00361054 0.399993 -0.00216054)
(-0.00413724 0.319038 -0.00260906)
(0.000104548 0.0266988 -2.0075e-05)
(8.0581e-05 0.00384693 -8.61147e-05)
(0.000122181 0.00409024 1.11945e-05)
(2.29669e-05 0.00443237 -0.000115916)
(7.81005e-05 0.00419105 -0.000156355)
(-1.14825e-05 0.00393821 -0.000215792)
(4.75579e-08 0.00412481 -3.65918e-06)
(-1.84592e-06 0.0050894 -1.50715e-05)
(1.31851e-06 0.00606363 -3.86439e-06)
(-1.6465e-06 0.00612306 -4.01008e-06)
(-1.17142e-05 0.00538909 -2.23022e-06)
(-4.66569e-05 0.0046346 1.16652e-06)
(3.07535e-06 0.000381151 1.39414e-06)
(9.172e-06 0.000390592 9.15831e-07)
(8.64484e-06 0.000398121 -4.31719e-07)
(8.59455e-06 0.00040221 -5.18085e-07)
(7.47587e-06 0.000411709 -2.69063e-07)
(6.53616e-06 0.000436322 -2.20933e-07)
(5.28816e-06 0.000463805 -5.27775e-08)
(4.30621e-06 0.000495932 8.61113e-08)
(3.23988e-06 0.000525854 1.12588e-07)
(2.46874e-06 0.000546768 1.75811e-07)
(1.69998e-06 0.000561417 1.22748e-07)
(1.22396e-06 0.000566949 1.64239e-07)
(8.33248e-07 0.000566737 1.17035e-07)
(5.90784e-07 0.000566073 1.36873e-07)
(3.11115e-07 0.000565474 1.25294e-07)
(1.09784e-07 0.000564952 1.38168e-07)
(-1.07003e-07 0.000564445 1.38522e-07)
(-2.71053e-07 0.000563977 1.31542e-07)
(-4.17298e-07 0.00056357 1.26126e-07)
(-5.34865e-07 0.000563213 1.09148e-07)
(-6.31766e-07 0.000562878 1.06787e-07)
(-7.12946e-07 0.000562571 9.23272e-08)
(-7.82818e-07 0.000562301 9.39597e-08)
(-8.45374e-07 0.000562052 8.13143e-08)
(-9.02593e-07 0.000561814 8.3421e-08)
(-9.56319e-07 0.000561615 7.13758e-08)
(-1.0065e-06 0.000561461 7.24827e-08)
(-1.05467e-06 0.000561338 6.11597e-08)
(-1.10212e-06 0.000561242 6.42922e-08)
(-1.15038e-06 0.000561163 5.43963e-08)
(-1.20023e-06 0.000561082 5.67985e-08)
(-1.25212e-06 0.000560997 4.69735e-08)
(-1.30669e-06 0.000560929 4.88384e-08)
(-1.3653e-06 0.000560887 3.89953e-08)
(-1.4255e-06 0.000560882 4.05192e-08)
(-1.49359e-06 0.000560875 2.94294e-08)
(-1.55283e-06 0.0005609 3.51284e-08)
(-1.63451e-06 0.00056083 2.07747e-08)
(-1.69186e-06 0.000560822 3.35923e-08)
(-1.80062e-06 0.000560704 1.15031e-08)
(-1.85751e-06 0.000560785 2.92404e-08)
(-2.01576e-06 0.00056072 4.21492e-10)
(-2.06041e-06 0.000560902 1.33166e-08)
(-2.29069e-06 0.000560794 -1.15581e-08)
(-2.34475e-06 0.000561004 -2.33341e-08)
(-2.69671e-06 0.000560702 -4.37551e-08)
(-2.83169e-06 0.000561131 -5.78919e-08)
(-3.34072e-06 0.000560212 -1.41371e-07)
(-3.38873e-06 0.000565384 6.21145e-08)
(-4.0882e-06 0.00058283 -3.18799e-07)
(-4.03343e-06 0.000633195 -8.6125e-08)
(-5.47545e-06 0.000725383 -1.15007e-06)
(-5.01484e-06 0.00101792 8.53113e-07)
(1.95267e-06 0.00150539 -7.38641e-06)
(1.67942e-05 0.00237946 1.09261e-05)
(-6.18439e-05 0.00387821 1.59615e-06)
(2.08541e-05 0.0054835 0.000159974)
(-7.63965e-05 0.00408439 0.000441644)
(-0.00080504 0.0200184 0.00615641)
(0.0154898 0.411379 0.0229525)
(0.00816564 0.546251 0.00479014)
(0.00778097 0.476001 -0.00332124)
(0.00262648 0.411318 -0.00322079)
(0.00156166 0.523516 -0.000651204)
(0.000108198 0.53136 0.000600246)
(-0.00144552 0.500128 0.00131152)
(-0.000309281 0.471202 0.00063049)
(-0.00147196 0.415288 -0.000208588)
(-0.00192614 0.492362 -0.000547214)
(-0.000673286 0.383015 -6.344e-05)
(-0.00103174 0.3011 -0.00010711)
(-0.00137602 0.479219 -6.79719e-05)
(-0.00102477 0.497089 9.96066e-05)
(-0.000849291 0.479828 0.000445397)
(-0.000971814 0.495383 0.000265983)
(-0.00122401 0.491168 5.98827e-05)
(-0.00144115 0.513825 -1.87248e-05)
(-0.0018324 0.479405 -8.733e-05)
(-0.000919968 0.485066 0.00041486)
(-0.001666 0.491286 -0.000101519)
(-0.00178537 0.494115 -0.000937014)
(-0.00188302 0.51785 -0.00133556)
(-0.0024816 0.476884 -0.00195019)
(-0.00440191 0.475517 -0.00315928)
(-0.00540877 0.462775 -0.00325254)
(-0.00239657 0.445401 -0.00086796)
(-0.000837008 0.39783 0.000417542)
(4.93861e-05 0.0521333 4.2912e-05)
(0.000359914 0.0699577 0.000212258)
(2.98128e-05 0.0338467 -3.42654e-05)
(-3.10569e-05 0.00561317 -0.000177784)
(-5.83864e-05 0.00553795 -0.000145287)
(-0.000127243 0.00570386 -0.000191433)
(-0.000224832 0.00559389 -0.000252315)
(-0.000282752 0.0116416 -0.000252564)
(0.00236803 0.0474765 -0.00129064)
(7.16522e-06 0.00038696 3.15398e-06)
(1.37684e-05 0.000396015 2.33199e-06)
(1.12829e-05 0.000408626 1.32333e-07)
(1.00215e-05 0.000422541 1.82395e-08)
(8.1234e-06 0.000435432 -1.12062e-07)
(6.38442e-06 0.000450445 -1.00512e-07)
(5.07572e-06 0.000463897 1.7019e-07)
(3.99835e-06 0.000486465 2.21467e-07)
(2.95029e-06 0.000513762 2.02796e-07)
(2.26133e-06 0.000541607 1.97979e-07)
(1.49129e-06 0.000561204 1.52989e-07)
(1.15939e-06 0.00056662 2.10941e-07)
(7.28198e-07 0.000566312 2.00795e-07)
(5.25308e-07 0.000565737 2.27672e-07)
(2.15189e-07 0.000565207 2.42997e-07)
(4.65272e-08 0.00056474 2.56613e-07)
(-1.80628e-07 0.000564247 2.60415e-07)
(-3.37699e-07 0.000563819 2.72221e-07)
(-4.87464e-07 0.00056341 2.68061e-07)
(-6.09641e-07 0.000563065 2.74286e-07)
(-7.10003e-07 0.00056276 2.67034e-07)
(-7.99241e-07 0.000562481 2.68261e-07)
(-8.72086e-07 0.000562226 2.59952e-07)
(-9.42531e-07 0.000561984 2.62085e-07)
(-1.00266e-06 0.000561757 2.54165e-07)
(-1.06436e-06 0.000561567 2.55482e-07)
(-1.11985e-06 0.000561423 2.45739e-07)
(-1.17776e-06 0.000561321 2.45255e-07)
(-1.22985e-06 0.000561248 2.36895e-07)
(-1.28597e-06 0.000561172 2.36264e-07)
(-1.33807e-06 0.00056109 2.27181e-07)
(-1.39569e-06 0.000561011 2.25103e-07)
(-1.45052e-06 0.000560952 2.1505e-07)
(-1.51234e-06 0.000560921 2.11524e-07)
(-1.57104e-06 0.00056093 2.01085e-07)
(-1.64115e-06 0.000560945 1.96473e-07)
(-1.69581e-06 0.000560986 1.89377e-07)
(-1.78039e-06 0.000560918 1.82079e-07)
(-1.82418e-06 0.000560912 1.8085e-07)
(-1.94604e-06 0.000560817 1.65072e-07)
(-1.978e-06 0.0005609 1.65003e-07)
(-2.15676e-06 0.000560865 1.42825e-07)
(-2.16506e-06 0.000561047 1.36721e-07)
(-2.40819e-06 0.000560931 1.20587e-07)
(-2.43981e-06 0.00056112 9.8199e-08)
(-2.75033e-06 0.000560744 9.22887e-08)
(-2.91224e-06 0.000561113 8.17667e-08)
(-3.30749e-06 0.000560199 2.66772e-08)
(-3.4131e-06 0.00056769 2.35619e-07)
(-4.15029e-06 0.000590107 7.88169e-08)
(-3.9085e-06 0.00064044 4.37897e-07)
(-6.12901e-06 0.000784815 1.06304e-07)
(-5.85793e-06 0.00120011 1.56918e-06)
(5.48156e-08 0.00176071 -9.69578e-07)
(5.7343e-06 0.00241099 1.0616e-05)
(4.2844e-05 0.00343986 4.63256e-07)
(-8.63786e-05 0.00517345 0.000165065)
(-4.90963e-05 0.00418546 0.000492439)
(0.000152842 0.0128321 0.00721627)
(-0.00345574 0.445444 0.0174017)
(-0.00288224 0.534328 -0.00750495)
(-0.00196129 0.491005 0.0049571)
(0.00118523 0.49368 -0.00431608)
(-0.00115478 0.494421 0.00103573)
(-0.00173931 0.502289 0.000440297)
(-0.00302629 0.507852 0.00165108)
(-0.00305068 0.498073 0.000292799)
(-0.00231596 0.492044 0.000176662)
(-0.00241202 0.493066 -0.000358218)
(-0.00165235 0.496296 0.000672304)
(-0.00194059 0.497668 0.000453959)
(-0.00192023 0.49311 0.000726759)
(-0.00160541 0.498339 0.000896064)
(-0.0013457 0.496321 0.000882673)
(-0.00088087 0.493375 0.00105056)
(-0.000123373 0.498642 0.00119934)
(-0.000932309 0.497011 0.00110892)
(-0.000621927 0.493928 0.00170551)
(-0.000866749 0.498854 0.00202935)
(-0.000560881 0.496009 0.00165938)
(-0.000278992 0.493743 0.00195445)
(-0.000241728 0.495575 0.00201999)
(-0.000384018 0.494043 0.00201893)
(-0.00061503 0.493554 0.00192877)
(-0.000876336 0.493104 0.00186233)
(-0.00113279 0.492279 0.00185017)
(-0.00125792 0.490798 0.00198926)
(-0.00150427 0.489646 0.00246427)
(-0.00203435 0.486038 0.00272262)
(-0.00353213 0.487699 0.00275319)
(-0.00539303 0.480097 0.00211819)
(-0.00794673 0.474668 0.00118949)
(-0.0102085 0.472475 -0.000190785)
(-0.0108062 0.4608 -0.00237808)
(-0.00718089 0.469346 -0.00665734)
(-0.00420295 0.453094 -0.0120994)
(1.25137e-05 0.000239976 4.36809e-06)
(1.90506e-05 0.000413882 3.60932e-06)
(1.38405e-05 0.000417014 4.69028e-07)
(1.11403e-05 0.000438903 2.52956e-07)
(8.45277e-06 0.000453496 -2.63426e-07)
(6.23046e-06 0.000466372 2.20335e-08)
(5.01569e-06 0.000477213 1.46527e-07)