/*--------------------------------*- C++ -*----------------------------------*\
| =========                 |                                                 |
| \\      /  F ield         | OpenFOAM: The Open Source CFD Toolbox           |
|  \\    /   O peration     | Version:  2.3.0                                 |
|   \\  /    A nd           | Web:      www.OpenFOAM.org                      |
|    \\/     M anipulation  |                                                 |
\*---------------------------------------------------------------------------*/
FoamFile
{
    version     2.0;
    format      ascii;
    class       volScalarField;
    location    "17";
    object      w3;
}
// * * * * * * * * * * * * * * * * * * * * * * * * * * * * * * * * * * * * * //

dimensions      [0 0 0 0 0 0 0];

internalField   nonuniform List<scalar> 
6144
(
0.0283736
0.0283736
0.0283736
0.0283736
0.0283736
0.0283736
0.0283736
0.0283736
0.0283736
0.0283736
0.0283736
0.0283736
0.0283736
0.0283736
0.0283736
0.0283736
0.0283736
0.0283736
0.0283736
0.0283736
0.0283736
0.0283736
0.0283736
0.0283736
0.0283736
0.0283736
0.0283736
0.0283736
0.0283736
0.0283736
0.0283736
0.0283736
0.0283736
0.0283736
0.0283736
0.0283736
0.0283736
0.0283736
0.0283736
0.0283736
0.0283736
0.0283736
0.0283736
0.0283736
0.0283736
0.0283736
0.0283736
0.0283736
0.0283736
0.0283736
0.0283736
0.0283736
0.0283736
0.0283736
0.0283736
0.0283736
0.0283742
0.0284081
0.0322519
0.0286531
0.0161563
0.000509051
5.44769e-07
5.29801e-07
0.000777335
0.00110374
0.000710358
0.000491879
0.000552774
0.000665229
0.000741483
0.000930783
0.0010922
0.00136901
0.00147193
0.00156792
0.00158812
0.00211142
0.00353531
0.00546361
0.0030085
0.00330887
0.0034202
0.000955922
0.00164465
0.000872567
0.00127823
0.00229227
0.000540587
8.38482e-05
3.51508e-05
7.4627e-05
0.000538057
0.000127099
0.000968661
1.00285e-05
0.0283736
0.0283736
0.0283736
0.0283736
0.0283736
0.0283736
0.0283736
0.0283736
0.0283736
0.0283736
0.0283736
0.0283736
0.0283736
0.0283736
0.0283736
0.0283736
0.0283736
0.0283736
0.0283736
0.0283736
0.0283736
0.0283736
0.0283736
0.0283736
0.0283736
0.0283736
0.0283736
0.0283736
0.0283736
0.0283736
0.0283736
0.0283736
0.0283736
0.0283736
0.0283736
0.0283736
0.0283736
0.0283736
0.0283736
0.0283736
0.0283736
0.0283736
0.0283736
0.0283736
0.0283736
0.0283736
0.0283736
0.0283736
0.0283736
0.0283736
0.0283736
0.0283736
0.0283736
0.0283736
0.0283736
0.0283735
0.0283753
0.028516
0.0333843
0.0304124
0.00555314
7.60423e-06
4.78073e-07
5.13449e-05
4.66955e-05
0.00134917
0.000612891
0.000644092
0.000476305
0.000749465
0.00626816
0.00747779
0.000172682
1.34274e-06
0.0780807
0.0167164
0.0121922
0.00988355
0.00614703
0.00435191
0.00450368
0.00183081
0.00193866
0.00143325
0.00197662
0.00841703
0.00153453
0.00176249
0.00109729
0.000117031
4.32518e-05
7.90918e-05
0.000293891
0.000171121
0.00048806
9.81867e-06
0.0283736
0.0283736
0.0283736
0.0283736
0.0283736
0.0283736
0.0283736
0.0283736
0.0283736
0.0283736
0.0283736
0.0283736
0.0283736
0.0283736
0.0283736
0.0283736
0.0283736
0.0283736
0.0283736
0.0283736
0.0283736
0.0283736
0.0283736
0.0283736
0.0283736
0.0283736
0.0283736
0.0283736
0.0283736
0.0283736
0.0283736
0.0283736
0.0283736
0.0283736
0.0283736
0.0283736
0.0283736
0.0283736
0.0283736
0.0283736
0.0283736
0.0283736
0.0283736
0.0283736
0.0283736
0.0283736
0.0283736
0.0283736
0.0283736
0.0283736
0.0283736
0.0283736
0.0283736
0.0283736
0.0283736
0.0283736
0.0283739
0.0283648
0.0298091
0.0226937
0.087134
4.39271e-08
4.80104e-05
0.000204728
7.56731e-05
0.00010616
0.000260318
0.00042122
0.000472835
0.000776781
0.00725913
0.00170661
0.00116179
0.00260036
0.00413335
0.00214919
0.00270267
0.00268871
0.00347044
0.00154124
0.00163655
0.00141669
0.00161406
0.00253432
0.00270628
0.00886641
0.00460829
0.00328829
0.000342352
8.29379e-05
4.15095e-05
0.000106248
0.000362953
0.00034812
0.000277825
9.8115e-06
0.0283736
0.0283736
0.0283736
0.0283736
0.0283736
0.0283736
0.0283736
0.0283736
0.0283736
0.0283736
0.0283736
0.0283736
0.0283736
0.0283736
0.0283736
0.0283736
0.0283736
0.0283736
0.0283736
0.0283736
0.0283736
0.0283736
0.0283736
0.0283736
0.0283736
0.0283736
0.0283736
0.0283736
0.0283736
0.0283736
0.0283736
0.0283736
0.0283736
0.0283736
0.0283736
0.0283736
0.0283736
0.0283736
0.0283736
0.0283736
0.0283736
0.0283736
0.0283736
0.0283736
0.0283736
0.0283736
0.0283736
0.0283736
0.0283736
0.0283736
0.0283736
0.0283736
0.0283736
0.0283736
0.0283736
0.0283736
0.0283737
0.0283906
0.0322268
0.0305997
0.0819796
1.83209e-06
1.22118e-05
2.07642e-05
0.00020531
3.22002e-05
3.40453e-05
4.5263e-05
5.61307e-05
0.000100119
0.000124919
0.000852004
4.90113e-05
4.93277e-05
5.31721e-05
6.31042e-05
7.70558e-05
0.000244412
0.000435884
0.000627804
0.00165933
0.000939875
0.000512865
0.000637507
0.00116718
0.000777541
0.00154922
0.0023493
0.000206549
6.74652e-05
6.44784e-05
0.000644805
0.000392518
0.000371987
0.000165613
9.47727e-06
0.0283736
0.0283736
0.0283736
0.0283736
0.0283736
0.0283736
0.0283736
0.0283736
0.0283736
0.0283736
0.0283736
0.0283736
0.0283736
0.0283736
0.0283736
0.0283736
0.0283736
0.0283736
0.0283736
0.0283736
0.0283736
0.0283736
0.0283736
0.0283736
0.0283736
0.0283736
0.0283736
0.0283736
0.0283736
0.0283736
0.0283736
0.0283736
0.0283736
0.0283736
0.0283736
0.0283736
0.0283736
0.0283736
0.0283736
0.0283736
0.0283736
0.0283736
0.0283736
0.0283736
0.0283736
0.0283736
0.0283736
0.0283736
0.0283736
0.0283736
0.0283736
0.0283736
0.0283736
0.0283735
0.0283736
0.0283736
0.0283737
0.0283732
0.0284918
0.0291257
0.00204636
0.000148083
4.23298e-05
0.000178124
3.39765e-05
0.000111848
0.000829359
0.000152011
0.000718601
0.000325761
0.000689762
0.000331687
0.000193277
0.000141295
3.14682e-05
7.45506e-06
6.35111e-07
6.17161e-07
4.99613e-05
4.13986e-05
3.69401e-05
4.27445e-05
4.6769e-05
4.4955e-05
0.000803609
0.051384
0.0021296
0.000244645
8.74549e-05
6.56245e-05
0.000183884
0.000624479
0.00105604
0.000258632
0.000141431
9.60863e-06
0.0283736
0.0283736
0.0283736
0.0283736
0.0283736
0.0283736
0.0283736
0.0283736
0.0283736
0.0283736
0.0283736
0.0283736
0.0283736
0.0283736
0.0283736
0.0283736
0.0283736
0.0283736
0.0283736
0.0283736
0.0283736
0.0283736
0.0283736
0.0283736
0.0283736
0.0283736
0.0283736
0.0283736
0.0283736
0.0283736
0.0283736
0.0283736
0.0283736
0.0283736
0.0283736
0.0283736
0.0283736
0.0283736
0.0283736
0.0283736
0.0283736
0.0283736
0.0283736
0.0283736
0.0283736
0.0283736
0.0283736
0.0283736
0.0283736
0.0283736
0.0283736
0.0283736
0.0283736
0.0283736
0.0283736
0.0283736
0.0283736
0.0283736
0.0283756
0.0311634
0.00768587
0.00747149
0.000465742
0.0203994
0.00308326
5.88469e-06
0.0109065
0.0171579
0.00190596
0.00239295
0.00222062
0.00158088
0.00218717
3.82886e-08
0.86205
0.000423274
3.46594e-05
0.0273186
0.852058
2.80079e-08
0.0016243
0.000128061
5.04675e-05
4.85496e-07
1.14311e-07
5.27346e-05
1.25042e-05
2.20353e-05
1.50321e-05
2.02608e-05
7.28479e-05
4.33773e-05
0.000120467
0.000134208
4.98623e-05
4.14248e-06
0.0283736
0.0283736
0.0283736
0.0283736
0.0283736
0.0283736
0.0283736
0.0283736
0.0283736
0.0283736
0.0283736
0.0283736
0.0283736
0.0283736
0.0283736
0.0283736
0.0283736
0.0283736
0.0283736
0.0283736
0.0283736
0.0283736
0.0283736
0.0283736
0.0283736
0.0283736
0.0283736
0.0283736
0.0283736
0.0283736
0.0283736
0.0283736
0.0283736
0.0283736
0.0283736
0.0283736
0.0283736
0.0283736
0.0283736
0.0283736
0.0283736
0.0283736
0.0283736
0.0283736
0.0283736
0.0283736
0.0283736
0.0283736
0.0283736
0.0283736
0.0283736
0.0283736
0.0283736
0.0283736
0.0283736
0.0283736
0.0283699
0.0285437
0.0273987
0.0420729
0.00894099
0.855443
2.12823e-05
0.0140823
0.857814
0.855093
0.865279
0.786397
0.00606443
0.036652
0.0964596
0.0906382
6.17836e-07
0.104837
0.0680425
0.131248
0.00274083
0.195645
0.0110356
0.0271294
0.00169641
0.0230939
0.259321
0.0201449
0.011458
0.00358562
4.76172e-07
6.65641e-13
0.000348746
3.14439e-05
2.91419e-05
0.000360557
1.82675e-11
6.83612e-13
2.32245e-09
3.59675e-05
0.0283736
0.0283736
0.0283736
0.0283736
0.0283736
0.0283736
0.0283736
0.0283736
0.0283736
0.0283736
0.0283736
0.0283736
0.0283736
0.0283736
0.0283736
0.0283736
0.0283736
0.0283736
0.0283736
0.0283736
0.0283736
0.0283736
0.0283736
0.0283736
0.0283736
0.0283736
0.0283736
0.0283736
0.0283736
0.0283736
0.0283736
0.0283736
0.0283736
0.0283736
0.0283736
0.0283736
0.0283736
0.0283736
0.0283736
0.0283736
0.0283736
0.0283736
0.0283736
0.0283736
0.0283736
0.0283736
0.0283736
0.0283736
0.0283736
0.0283736
0.0283736
0.0283736
0.0283736
0.0283736
0.0283736
0.0283736
0.0283733
0.0282506
0.0299892
0.0323042
0.03333
4.39489e-06
0.023311
0.0124276
0.127722
0.0346282
0.0742612
0.0529265
0.000504967
0.0360743
0.0150984
0.0162264
0.0207956
0.0720068
0.00942829
0.0604104
0.0589894
0.00157136
0.190053
0.0399588
0.0628518
0.0406579
0.0122137
0.0326712
0.0327083
0.0086662
0.0113305
5.6417e-06
0.0946767
1.40092e-07
0.0165296
0.0257118
2.29913e-05
7.81804e-08
0.482657
0.0196067
0.0283736
0.0283736
0.0283736
0.0283736
0.0283736
0.0283736
0.0283736
0.0283736
0.0283736
0.0283736
0.0283736
0.0283736
0.0283736
0.0283736
0.0283736
0.0283736
0.0283736
0.0283736
0.0283736
0.0283736
0.0283736
0.0283736
0.0283736
0.0283736
0.0283736
0.0283736
0.0283736
0.0283736
0.0283736
0.0283736
0.0283736
0.0283736
0.0283736
0.0283736
0.0283736
0.0283736
0.0283736
0.0283736
0.0283736
0.0283736
0.0283736
0.0283736
0.0283736
0.0283736
0.0283736
0.0283736
0.0283736
0.0283736
0.0283736
0.0283736
0.0283736
0.0283736
0.0283736
0.0283736
0.0283736
0.0283735
0.0283823
0.0282674
0.0336566
0.0269581
0.0919322
0.0386972
0.10587
0.00550603
0.0548789
0.0688571
0.000791657
7.54718e-09
0.0847402
0.0315253
0.144251
0.205013
0.134183
0.010296
0.0652576
0.000450012
0.879983
0.000177082
2.90429e-13
0.00243525
0.0285914
0.0364391
0.0483942
0.00199692
0.0757568
0.0693899
0.0688331
0.0415136
0.0312698
0.0224471
0.022069
0.0557266
0.000706871
0.102011
0.0557542
0.000111181
0.0283736
0.0283736
0.0283736
0.0283736
0.0283736
0.0283736
0.0283736
0.0283736
0.0283736
0.0283736
0.0283736
0.0283736
0.0283736
0.0283736
0.0283736
0.0283736
0.0283736
0.0283736
0.0283736
0.0283736
0.0283736
0.0283736
0.0283736
0.0283736
0.0283736
0.0283736
0.0283736
0.0283736
0.0283736
0.0283736
0.0283736
0.0283736
0.0283736
0.0283736
0.0283736
0.0283736
0.0283736
0.0283736
0.0283736
0.0283736
0.0283736
0.0283736
0.0283736
0.0283736
0.0283736
0.0283736
0.0283736
0.0283736
0.0283736
0.0283736
0.0283736
0.0283736
0.0283736
0.0283736
0.0283736
0.0283736
0.0283744
0.0283504
0.028377
0.0384206
0.000172041
0.0439058
0.0736269
0.0488401
0.00286411
0.00970185
0.854001
0.0137421
0.0484933
0.03833
0.0110292
2.44958e-08
0.0302534
0.00568822
0.0355871
0.0291482
0.165068
0.0173637
0.00131533
0.00574487
0.0009636
0.00122073
0.00221165
0.00393757
0.010678
0.121163
0.0430492
0.0113065
0.00129586
0.00810808
0.00074561
0.00944191
1.05734e-06
0.00382011
0.00368226
4.42347e-06
0.0283736
0.0283736
0.0283736
0.0283736
0.0283736
0.0283736
0.0283736
0.0283736
0.0283736
0.0283736
0.0283736
0.0283736
0.0283736
0.0283736
0.0283736
0.0283736
0.0283736
0.0283736
0.0283736
0.0283736
0.0283736
0.0283736
0.0283736
0.0283736
0.0283736
0.0283736
0.0283736
0.0283736
0.0283736
0.0283736
0.0283736
0.0283736
0.0283736
0.0283736
0.0283736
0.0283736
0.0283736
0.0283736
0.0283736
0.0283736
0.0283736
0.0283736
0.0283736
0.0283736
0.0283736
0.0283736
0.0283736
0.0283736
0.0283736
0.0283736
0.0283736
0.0283736
0.0283736
0.0283736
0.0283736
0.0283736
0.0283737
0.0275549
0.0478923
0.0339636
0.00538061
0.000632593
0.00585861
0.000986753
0.000110979
0.00021617
6.67679e-06
2.32148e-05
8.61703e-05
0.00290355
0.000170087
6.03599e-05
0.000246908
4.57518e-05
0.00020071
0.000408536
0.00109811
0.00225279
0.00151389
0.000516906
0.0004667
0.000214253
0.000180076
0.000984985
0.0124956
0.000138335
0.000499489
0.00121614
0.000209176
2.47503e-05
3.46797e-06
5.98964e-07
6.07682e-07
4.71686e-05
1.02234e-05
9.57869e-06
0.0283736
0.0283736
0.0283736
0.0283736
0.0283736
0.0283736
0.0283736
0.0283736
0.0283736
0.0283736
0.0283736
0.0283736
0.0283736
0.0283736
0.0283736
0.0283736
0.0283736
0.0283736
0.0283736
0.0283736
0.0283736
0.0283736
0.0283736
0.0283736
0.0283736
0.0283736
0.0283736
0.0283736
0.0283736
0.0283736
0.0283736
0.0283736
0.0283736
0.0283736
0.0283736
0.0283736
0.0283736
0.0283736
0.0283736
0.0283736
0.0283736
0.0283736
0.0283736
0.0283736
0.0283736
0.0283736
0.0283736
0.0283736
0.0283736
0.0283736
0.0283736
0.0283736
0.0283736
0.0283736
0.0283736
0.0283735
0.0283737
0.0283792
0.0277359
0.0199856
0.00975674
5.49812e-08
4.06583e-07
3.73017e-05
1.23536e-05
1.58813e-05
8.72569e-05
0.000122495
2.63128e-05
2.11796e-05
1.78103e-05
1.72793e-05
1.83794e-05
2.24232e-05
3.10194e-05
7.36225e-05
0.000670913
8.58688e-05
5.03272e-05
5.26832e-05
0.000535572
6.74799e-05
3.71044e-05
3.72076e-05
1.70601e-05
1.08125e-05
1.5827e-05
1.40063e-05
6.53597e-06
4.94761e-06
5.47787e-06
6.04111e-06
0.000669139
0.000245619
0.000119688
1.01033e-05
0.0283736
0.0283736
0.0283736
0.0283736
0.0283736
0.0283736
0.0283736
0.0283736
0.0283736
0.0283736
0.0283736
0.0283736
0.0283736
0.0283736
0.0283736
0.0283736
0.0283736
0.0283736
0.0283736
0.0283736
0.0283736
0.0283736
0.0283736
0.0283736
0.0283736
0.0283736
0.0283736
0.0283736
0.0283736
0.0283736
0.0283736
0.0283736
0.0283736
0.0283736
0.0283736
0.0283736
0.0283736
0.0283736
0.0283736
0.0283736
0.0283736
0.0283736
0.0283736
0.0283736
0.0283736
0.0283736
0.0283736
0.0283736
0.0283736
0.0283736
0.0283736
0.0283736
0.0283736
0.0283735
0.0283736
0.0283736
0.0283739
0.0283737
0.0284057
0.0382936
0.00296746
2.68552e-07
4.36127e-05
0.000108754
5.50121e-05
7.37996e-05
0.000111533
0.00018524
0.00032713
0.000253893
0.000218225
0.000227561
0.000279638
0.000410073
0.00041883
0.000368769
0.000407299
0.000492682
0.000418256
0.000384435
0.000952664
0.00264717
0.000723554
0.000650145
0.000344384
0.000170101
0.00137733
0.00042216
0.000497271
0.000228381
0.00107663
0.000977724
0.000133868
0.000104356
0.000170435
8.52423e-06
0.0283736
0.0283736
0.0283736
0.0283736
0.0283736
0.0283736
0.0283736
0.0283736
0.0283736
0.0283736
0.0283736
0.0283736
0.0283736
0.0283736
0.0283736
0.0283736
0.0283736
0.0283736
0.0283736
0.0283736
0.0283736
0.0283736
0.0283736
0.0283736
0.0283736
0.0283736
0.0283736
0.0283736
0.0283736
0.0283736
0.0283736
0.0283736
0.0283736
0.0283736
0.0283736
0.0283736
0.0283736
0.0283736
0.0283736
0.0283736
0.0283736
0.0283736
0.0283736
0.0283736
0.0283736
0.0283736
0.0283736
0.0283736
0.0283736
0.0283736
0.0283736
0.0283736
0.0283736
0.0283736
0.0283736
0.0283736
0.0283741
0.0283738
0.0283927
0.0370931
0.0167806
1.25673e-06
2.3376e-07
2.06256e-05
6.67064e-05
0.000123482
0.000138886
0.000386508
0.000492597
0.000600942
0.000460849
0.00475583
0.000641257
0.000459809
0.000262694
0.00016619
0.000184702
0.000252251
0.00035564
0.000509109
0.000724863
0.000342054
0.000227568
0.000251447
0.000227115
0.000378759
0.0064678
0.000554093
0.00267366
0.00139192
0.00106573
0.00401171
0.000675348
0.000289155
5.64795e-05
8.25429e-06
0.0283736
0.0283736
0.0283736
0.0283736
0.0283736
0.0283736
0.0283736
0.0283736
0.0283736
0.0283736
0.0283736
0.0283736
0.0283736
0.0283736
0.0283736
0.0283736
0.0283736
0.0283736
0.0283736
0.0283736
0.0283736
0.0283736
0.0283736
0.0283736
0.0283736
0.0283736
0.0283736
0.0283736
0.0283736
0.0283736
0.0283736
0.0283736
0.0283736
0.0283736
0.0283736
0.0283736
0.0283736
0.0283736
0.0283736
0.0283736
0.0283736
0.0283736
0.0283736
0.0283736
0.0283736
0.0283736
0.0283736
0.0283736
0.0283736
0.0283736
0.0283736
0.0283736
0.0283736
0.0283736
0.0283736
0.0283735
0.0283742
0.0283739
0.0288315
0.03819
0.0226471
3.78871e-05
2.41413e-07
2.23651e-05
1.99231e-05
6.48738e-05
0.000331465
0.000775332
0.000281777
0.000213422
0.000196926
0.000160627
0.000129784
0.000123604
0.000178996
0.000803329
0.0012016
0.00155776
0.000330021
0.000210761
0.000135062
0.000124756
0.000141914
0.000171294
0.000619215
0.001919
0.000790267
0.00419394
0.000809578
0.00130638
0.00472149
0.000594009
0.00031417
0.00144781
0.00012649
8.76599e-06
0.0283736
0.0283736
0.0283736
0.0283736
0.0283736
0.0283736
0.0283736
0.0283736
0.0283736
0.0283736
0.0283736
0.0283736
0.0283736
0.0283736
0.0283736
0.0283736
0.0283736
0.0283736
0.0283736
0.0283736
0.0283736
0.0283736
0.0283736
0.0283736
0.0283736
0.0283736
0.0283736
0.0283736
0.0283736
0.0283736
0.0283736
0.0283736
0.0283736
0.0283736
0.0283736
0.0283736
0.0283736
0.0283736
0.0283736
0.0283736
0.0283736
0.0283736
0.0283736
0.0283736
0.0283736
0.0283736
0.0283736
0.0283736
0.0283736
0.0283736
0.0283736
0.0283736
0.0283736
0.0283736
0.0283736
0.0283735
0.0283742
0.0284036
0.0337445
0.0306677
0.0154305
0.00400661
7.73294e-07
1.8917e-07
0.00042404
0.000285692
0.000149639
9.08773e-05
8.75372e-05
8.93014e-05
9.74779e-05
0.000114246
0.000151904
0.000206433
0.000270579
0.000386706
0.000710459
0.000990339
0.00124761
0.00451169
0.00060919
0.000528391
0.00162493
0.00434736
0.00101212
0.000673184
0.00171313
0.00156322
0.000776757
0.00268989
0.000733655
0.000655024
0.00548032
0.00101197
7.37107e-05
8.40072e-06
0.0283736
0.0283736
0.0283736
0.0283736
0.0283736
0.0283736
0.0283736
0.0283736
0.0283736
0.0283736
0.0283736
0.0283736
0.0283736
0.0283736
0.0283736
0.0283736
0.0283736
0.0283736
0.0283736
0.0283736
0.0283736
0.0283736
0.0283736
0.0283736
0.0283736
0.0283736
0.0283736
0.0283736
0.0283736
0.0283736
0.0283736
0.0283736
0.0283736
0.0283736
0.0283736
0.0283736
0.0283736
0.0283736
0.0283736
0.0283736
0.0283736
0.0283736
0.0283736
0.0283736
0.0283736
0.0283736
0.0283736
0.0283736
0.0283736
0.0283736
0.0283736
0.0283736
0.0283736
0.0283736
0.0283736
0.0283736
0.0283738
0.0287124
0.0374443
0.0276484
0.0178125
0.00111262
1.07237e-06
5.13018e-07
0.000206961
0.00057417
0.000381986
0.000428321
0.000714457
0.00128977
0.00234082
0.00250135
0.00247135
0.00259182
0.00329165
0.00493444
0.00811858
0.00778427
0.00778077
0.00506393
0.0210909
0.0562352
0.00425355
0.0310259
0.000805507
0.00391474
0.00111672
0.000988766
0.00163518
0.000179436
7.93619e-05
0.000110968
0.000296512
0.000199435
6.85263e-05
8.50431e-06
0.0283736
0.0283736
0.0283736
0.0283736
0.0283736
0.0283736
0.0283736
0.0283736
0.0283736
0.0283736
0.0283736
0.0283736
0.0283736
0.0283736
0.0283736
0.0283736
0.0283736
0.0283736
0.0283736
0.0283736
0.0283736
0.0283736
0.0283736
0.0283736
0.0283736
0.0283736
0.0283736
0.0283736
0.0283736
0.0283736
0.0283736
0.0283736
0.0283736
0.0283736
0.0283736
0.0283736
0.0283736
0.0283736
0.0283736
0.0283736
0.0283736
0.0283736
0.0283736
0.0283736
0.0283736
0.0283736
0.0283736
0.0283736
0.0283736
0.0283736
0.0283736
0.0283736
0.0283736
0.0283736
0.0283736
0.0283736
0.0283739
0.0283805
0.0283207
0.0318001
0.0135032
5.80147e-05
6.41343e-07
6.56875e-05
5.61301e-05
0.00018582
0.000356153
0.000261482
0.000321165
0.000651304
0.00297371
0.00868234
0.00440521
0.0220006
0.00447717
0.00578764
0.00565431
0.0103137
0.0146113
0.0134786
0.010936
0.0100129
0.00461188
0.00366217
0.00810454
0.000823108
0.00217388
0.00195905
0.00117424
0.000351172
8.13039e-05
8.03628e-05
0.000437341
0.000179085
9.30275e-05
8.42767e-06
0.0283736
0.0283736
0.0283736
0.0283736
0.0283736
0.0283736
0.0283736
0.0283736
0.0283736
0.0283736
0.0283736
0.0283736
0.0283736
0.0283736
0.0283736
0.0283736
0.0283736
0.0283736
0.0283736
0.0283736
0.0283736
0.0283736
0.0283736
0.0283736
0.0283736
0.0283736
0.0283736
0.0283736
0.0283736
0.0283736
0.0283736
0.0283736
0.0283736
0.0283736
0.0283736
0.0283736
0.0283736
0.0283736
0.0283736
0.0283736
0.0283736
0.0283736
0.0283736
0.0283736
0.0283736
0.0283736
0.0283736
0.0283736
0.0283736
0.0283736
0.0283736
0.0283736
0.0283736
0.0283736
0.0283736
0.0283736
0.0283738
0.028374
0.0260315
0.0356532
0.033024
1.23337e-06
4.08561e-05
0.000200615
0.000114809
0.0001477
0.00247681
0.00613986
0.00140387
0.0115037
0.00011508
0.000248539
0.000787318
0.00385694
0.00376343
0.00197618
0.00119267
0.000826403
0.000838885
0.00087009
0.00109661
0.00152396
0.00205052
0.00551953
0.0024689
0.00132957
0.00601879
0.00122154
0.000483583
0.000131039
6.17706e-05
9.65288e-05
0.000163306
0.000249848
0.000114799
8.56019e-06
0.0283736
0.0283736
0.0283736
0.0283736
0.0283736
0.0283736
0.0283736
0.0283736
0.0283736
0.0283736
0.0283736
0.0283736
0.0283736
0.0283736
0.0283736
0.0283736
0.0283736
0.0283736
0.0283736
0.0283736
0.0283736
0.0283736
0.0283736
0.0283736
0.0283736
0.0283736
0.0283736
0.0283736
0.0283736
0.0283736
0.0283736
0.0283736
0.0283736
0.0283736
0.0283736
0.0283736
0.0283736
0.0283736
0.0283736
0.0283736
0.0283736
0.0283736
0.0283736
0.0283736
0.0283736
0.0283736
0.0283736
0.0283736
0.0283736
0.0283736
0.0283736
0.0283736
0.0283736
0.0283736
0.0283736
0.0283736
0.0283738
0.0283735
0.0284795
0.0269502
0.0634773
0.000102685
4.1969e-05
6.72965e-07
5.16652e-05
9.5224e-05
0.000300512
0.000231513
9.40754e-05
6.36723e-07
1.08498e-06
9.97179e-07
4.93123e-07
3.62242e-05
3.73039e-05
4.55226e-05
7.35897e-05
6.01318e-05
0.00017935
0.00580811
0.00103897
0.000185365
0.00084011
0.0161886
0.00296442
0.00170962
0.00114366
0.000476667
0.00020259
0.000121435
6.81462e-05
0.000154691
0.000580095
0.000232176
0.000122819
8.58894e-06
0.0283736
0.0283736
0.0283736
0.0283736
0.0283736
0.0283736
0.0283736
0.0283736
0.0283736
0.0283736
0.0283736
0.0283736
0.0283736
0.0283736
0.0283736
0.0283736
0.0283736
0.0283736
0.0283736
0.0283736
0.0283736
0.0283736
0.0283736
0.0283736
0.0283736
0.0283736
0.0283736
0.0283736
0.0283736
0.0283736
0.0283736
0.0283736
0.0283736
0.0283736
0.0283736
0.0283736
0.0283736
0.0283736
0.0283736
0.0283736
0.0283736
0.0283736
0.0283736
0.0283736
0.0283736
0.0283736
0.0283736
0.0283736
0.0283736
0.0283736
0.0283736
0.0283736
0.0283736
0.0283736
0.0283736
0.0283736
0.0283734
0.028377
0.0284225
0.0327176
0.0114894
0.00100853
0.0184656
0.0336978
0.000136648
0.0039905
0.0148409
0.00647918
0.00448994
0.0104052
0.00105868
0.00813982
6.28301e-05
0.0560007
0.000870931
0.00263758
0.00143136
7.10943e-05
0.000211501
6.22672e-05
2.77802e-06
5.74298e-07
6.69334e-07
2.81051e-05
3.88761e-05
3.9677e-05
0.00149799
0.000251421
0.000122722
3.72359e-05
7.00001e-05
0.000243637
0.00116229
0.00457876
7.12662e-05
8.55906e-06
0.0283736
0.0283736
0.0283736
0.0283736
0.0283736
0.0283736
0.0283736
0.0283736
0.0283736
0.0283736
0.0283736
0.0283736
0.0283736
0.0283736
0.0283736
0.0283736
0.0283736
0.0283736
0.0283736
0.0283736
0.0283736
0.0283736
0.0283736
0.0283736
0.0283736
0.0283736
0.0283736
0.0283736
0.0283736
0.0283736
0.0283736
0.0283736
0.0283736
0.0283736
0.0283736
0.0283736
0.0283736
0.0283736
0.0283736
0.0283736
0.0283736
0.0283736
0.0283736
0.0283736
0.0283736
0.0283736
0.0283736
0.0283736
0.0283736
0.0283736
0.0283736
0.0283736
0.0283736
0.0283735
0.0283736
0.0283735
0.0283734
0.0283705
0.0283099
0.0395849
0.0170032
0.0985592
0.113375
0.057099
0.0228096
0.075277
0.000685314
0.0209485
0.0093698
0.0485952
0.0250305
0.178876
0.00153118
0.121323
0.00035796
0.00882902
0.00475491
0.000123679
0.00300701
0.00328384
0.0648915
0.000102201
0.00201307
0.000198237
9.83069e-05
6.77007e-07
2.29421e-06
8.10905e-07
5.42621e-06
7.92451e-07
6.17028e-07
0.000145927
1.75908e-05
1.09351e-05
6.51969e-06
3.33625e-06
0.0283736
0.0283736
0.0283736
0.0283736
0.0283736
0.0283736
0.0283736
0.0283736
0.0283736
0.0283736
0.0283736
0.0283736
0.0283736
0.0283736
0.0283736
0.0283736
0.0283736
0.0283736
0.0283736
0.0283736
0.0283736
0.0283736
0.0283736
0.0283736
0.0283736
0.0283736
0.0283736
0.0283736
0.0283736
0.0283736
0.0283736
0.0283736
0.0283736
0.0283736
0.0283736
0.0283736
0.0283736
0.0283736
0.0283736
0.0283736
0.0283736
0.0283736
0.0283736
0.0283736
0.0283736
0.0283736
0.0283736
0.0283736
0.0283736
0.0283736
0.0283736
0.0283736
0.0283736
0.0283736
0.0283736
0.0283736
0.0283733
0.0283546
0.027167
0.0446988
4.40711e-06
0.402879
0.0670512
0.0062874
0.00159583
0.219762
0.0983451
0.098174
0.000850454
0.0114281
0.00165905
0.00171894
0.000470641
0.106073
0.0266575
0.00235216
1.87929e-05
0.0285986
0.0497134
0.0384829
0.0818781
0.0590373
0.0948848
3.24223e-05
0.667993
0.0353033
0.0922215
0.0135819
0.0184991
0.0804975
2.04671e-05
0.0414807
0.0156044
0.00112194
0.00634078
0.000135116
0.0283736
0.0283736
0.0283736
0.0283736
0.0283736
0.0283736
0.0283736
0.0283736
0.0283736
0.0283736
0.0283736
0.0283736
0.0283736
0.0283736
0.0283736
0.0283736
0.0283736
0.0283736
0.0283736
0.0283736
0.0283736
0.0283736
0.0283736
0.0283736
0.0283736
0.0283736
0.0283736
0.0283736
0.0283736
0.0283736
0.0283736
0.0283736
0.0283736
0.0283736
0.0283736
0.0283736
0.0283736
0.0283736
0.0283736
0.0283736
0.0283736
0.0283736
0.0283736
0.0283736
0.0283736
0.0283736
0.0283736
0.0283736
0.0283736
0.0283736
0.0283736
0.0283736
0.0283736
0.0283736
0.0283736
0.0283736
0.0283745
0.0284174
0.0283629
0.0537433
8.36164e-11
0.00275626
0.0293118
0.0361219
0.103467
0.0524649
4.59181e-05
0.0341189
3.33251e-05
0.0908555
0.0234559
0.00676614
0.0452149
0.0997076
0.0440002
0.00677303
0.0394108
0.0213041
0.00255254
0.0286941
0.0159877
0.033983
0.045614
0.0369392
0.0380893
0.0104771
0.0143892
0.0467921
0.00994069
0.0256405
0.0252128
0.0197369
0.000378262
0.0121834
0.00326668
9.61074e-06
0.0283736
0.0283736
0.0283736
0.0283736
0.0283736
0.0283736
0.0283736
0.0283736
0.0283736
0.0283736
0.0283736
0.0283736
0.0283736
0.0283736
0.0283736
0.0283736
0.0283736
0.0283736
0.0283736
0.0283736
0.0283736
0.0283736
0.0283736
0.0283736
0.0283736
0.0283736
0.0283736
0.0283736
0.0283736
0.0283736
0.0283736
0.0283736
0.0283736
0.0283736
0.0283736
0.0283736
0.0283736
0.0283736
0.0283736
0.0283736
0.0283736
0.0283736
0.0283736
0.0283736
0.0283736
0.0283736
0.0283736
0.0283736
0.0283736
0.0283736
0.0283736
0.0283736
0.0283736
0.0283736
0.0283736
0.0283736
0.0283737
0.0283542
0.0270457
0.0370047
0.0328161
0.023254
0.0107094
0.00800805
0.00138026
0.102526
0.00364531
0.00354641
0.859009
0.854466
6.29091e-13
2.59218e-05
4.70373e-08
5.47814e-10
2.71767e-07
0.000340816
0.204264
0.0153207
0.864534
0.0344885
0.0553086
0.0305206
0.0385402
0.0299061
0.0841644
0.114034
0.0354125
0.000727459
9.91261e-12
0.0172534
0.00844195
0.0810049
0.0239058
0.0346337
0.0272382
0.0262755
0.0283736
0.0283736
0.0283736
0.0283736
0.0283736
0.0283736
0.0283736
0.0283736
0.0283736
0.0283736
0.0283736
0.0283736
0.0283736
0.0283736
0.0283736
0.0283736
0.0283736
0.0283736
0.0283736
0.0283736
0.0283736
0.0283736
0.0283736
0.0283736
0.0283736
0.0283736
0.0283736
0.0283736
0.0283736
0.0283736
0.0283736
0.0283736
0.0283736
0.0283736
0.0283736
0.0283736
0.0283736
0.0283736
0.0283736
0.0283736
0.0283736
0.0283736
0.0283736
0.0283736
0.0283736
0.0283736
0.0283736
0.0283736
0.0283736
0.0283736
0.0283736
0.0283736
0.0283736
0.0283736
0.0283736
0.0283736
0.0283735
0.0283727
0.0283227
0.0398186
0.00349975
0.0293295
0.0635107
0.0231337
0.134761
0.0665836
0.00402019
0.07007
0.0050142
0.0669406
6.53226e-08
0.0197113
0.0750061
0.0121875
0.0113473
0.0253015
0.00121253
0.0259763
5.62301e-07
7.90936e-05
0.00495161
0.00597621
0.000298591
0.00104512
0.000776197
0.00317251
0.00631538
0.00495858
0.000706766
0.00152231
0.0011475
1.1216e-05
0.070068
0.0038952
0.000583116
3.20164e-06
0.0283736
0.0283736
0.0283736
0.0283736
0.0283736
0.0283736
0.0283736
0.0283736
0.0283736
0.0283736
0.0283736
0.0283736
0.0283736
0.0283736
0.0283736
0.0283736
0.0283736
0.0283736
0.0283736
0.0283736
0.0283736
0.0283736
0.0283736
0.0283736
0.0283736
0.0283736
0.0283736
0.0283736
0.0283736
0.0283736
0.0283736
0.0283736
0.0283736
0.0283736
0.0283736
0.0283736
0.0283736
0.0283736
0.0283736
0.0283736
0.0283736
0.0283736
0.0283736
0.0283736
0.0283736
0.0283736
0.0283736
0.0283736
0.0283736
0.0283736
0.0283736
0.0283736
0.0283736
0.0283736
0.0283736
0.0283736
0.0283737
0.0283932
0.0245575
0.0446457
4.27439e-09
0.000136971
0.000471057
5.17031e-05
0.000557348
0.000214838
0.000101757
6.04168e-05
3.21142e-05
1.60017e-05
7.45747e-05
1.66855e-05
2.1916e-05
0.000114178
0.000169718
0.000161057
0.000383026
0.000431559
0.000571289
0.00258788
0.000862484
0.000213008
0.000140385
0.000114737
3.05754e-05
9.07319e-07
5.94008e-07
3.69702e-05
0.000132012
2.30934e-05
1.05729e-05
7.82422e-06
9.74323e-06
3.97608e-05
3.80855e-05
1.29489e-05
0.0283736
0.0283736
0.0283736
0.0283736
0.0283736
0.0283736
0.0283736
0.0283736
0.0283736
0.0283736
0.0283736
0.0283736
0.0283736
0.0283736
0.0283736
0.0283736
0.0283736
0.0283736
0.0283736
0.0283736
0.0283736
0.0283736
0.0283736
0.0283736
0.0283736
0.0283736
0.0283736
0.0283736
0.0283736
0.0283736
0.0283736
0.0283736
0.0283736
0.0283736
0.0283736
0.0283736
0.0283736
0.0283736
0.0283736
0.0283736
0.0283736
0.0283736
0.0283736
0.0283736
0.0283736
0.0283736
0.0283736
0.0283736
0.0283736
0.0283736
0.0283736
0.0283736
0.0283736
0.0283736
0.0283736
0.0283736
0.0283739
0.0283735
0.0256302
0.0317
0.0810845
2.19615e-06
1.03292e-05
6.67699e-07
1.21245e-05
1.14481e-06
2.01898e-05
3.33007e-05
0.000178807
0.000130186
8.31481e-05
0.000111488
0.000330963
0.000176574
5.2419e-05
2.34351e-05
1.23503e-05
9.92836e-06
1.02623e-05
1.45575e-05
3.78739e-05
8.23652e-05
0.000205931
0.000105559
9.34851e-05
0.000108979
0.000113063
0.000472185
0.00116941
0.000136792
6.9766e-05
7.61381e-05
6.51657e-05
5.14731e-05
3.03419e-05
7.55846e-06
0.0283736
0.0283736
0.0283736
0.0283736
0.0283736
0.0283736
0.0283736
0.0283736
0.0283736
0.0283736
0.0283736
0.0283736
0.0283736
0.0283736
0.0283736
0.0283736
0.0283736
0.0283736
0.0283736
0.0283736
0.0283736
0.0283736
0.0283736
0.0283736
0.0283736
0.0283736
0.0283736
0.0283736
0.0283736
0.0283736
0.0283736
0.0283736
0.0283736
0.0283736
0.0283736
0.0283736
0.0283736
0.0283736
0.0283736
0.0283736
0.0283736
0.0283736
0.0283736
0.0283736
0.0283736
0.0283736
0.0283736
0.0283736
0.0283736
0.0283736
0.0283736
0.0283736
0.0283736
0.0283736
0.0283736
0.0283736
0.0283738
0.0283743
0.028495
0.0374556
0.00686624
6.39222e-11
7.12184e-05
2.48611e-05
1.26764e-05
0.000226469
0.000125063
0.0023546
0.000363412
0.000186451
0.000216179
0.000258938
0.000308827
0.000236793
0.000135303
9.67298e-05
9.76221e-05
0.000116983
0.000161111
0.000245571
0.000506154
0.000714462
0.000399829
0.000287423
0.000334707
0.000436765
0.000386361
0.000409032
0.000588568
0.010546
0.000726211
0.00271935
0.000381151
0.00482317
6.46597e-05
7.73689e-06
0.0283736
0.0283736
0.0283736