/*--------------------------------*- C++ -*----------------------------------*\
| =========                 |                                                 |
| \\      /  F ield         | OpenFOAM: The Open Source CFD Toolbox           |
|  \\    /   O peration     | Version:  2.3.0                                 |
|   \\  /    A nd           | Web:      www.OpenFOAM.org                      |
|    \\/     M anipulation  |                                                 |
\*---------------------------------------------------------------------------*/
FoamFile
{
    version     2.0;
    format      ascii;
    class       volScalarField;
    location    "8";
    object      alpha.water;
}
// * * * * * * * * * * * * * * * * * * * * * * * * * * * * * * * * * * * * * //

dimensions      [0 0 0 0 0 0 0];

internalField   nonuniform List<scalar> 
6144
(
9.78947e-06
9.89301e-06
9.9951e-06
1.00013e-05
9.99773e-06
1.00011e-05
9.99801e-06
1.00004e-05
9.9984e-06
1.00007e-05
9.99876e-06
1.00012e-05
9.99914e-06
1.00009e-05
9.99945e-06
1.0001e-05
1e-05
1.0001e-05
1.00006e-05
1.0001e-05
1.00009e-05
1.00011e-05
1.00011e-05
1.00012e-05
1.00012e-05
1.00013e-05
1.00013e-05
1.00013e-05
1.00014e-05
1.00014e-05
1.00014e-05
1.00016e-05
1.00012e-05
1.00021e-05
1.00008e-05
1.00028e-05
1.00003e-05
1.00038e-05
1e-05
1.00047e-05
9.9997e-06
1.00056e-05
1.00005e-05
1.00062e-05
1.00017e-05
1.00068e-05
1.00018e-05
1.00075e-05
9.99849e-06
1.00098e-05
1.05289e-05
1.39396e-05
2.41212e-05
4.34151e-05
6.76031e-05
0.000119037
0.000214942
0.000632222
0.00121694
0.0463422
0.959555
0.999797
0.999999
0.999999
0.999999
0.999999
0.999999
0.999999
0.999999
0.999999
0.999999
0.999999
0.999999
0.999999
0.999999
0.999999
0.999999
0.999999
0.999999
0.999999
0.999999
0.999999
0.999999
0.999999
0.999999
0.999999
0.999999
0.999999
0.999999
0.999999
0.999999
0.999999
1
1
1
1
9.25003e-06
9.45126e-06
9.90676e-06
9.95926e-06
9.98818e-06
9.99537e-06
9.9942e-06
9.99718e-06
9.99586e-06
9.99768e-06
9.99624e-06
9.99828e-06
9.99649e-06
9.99798e-06
9.99669e-06
9.99819e-06
9.99729e-06
9.99824e-06
9.99781e-06
9.99822e-06
9.99816e-06
9.99837e-06
9.99845e-06
9.99854e-06
9.99859e-06
9.99864e-06
9.99869e-06
9.99872e-06
9.99876e-06
9.99881e-06
9.99881e-06
9.99901e-06
9.99865e-06
9.99963e-06
9.99804e-06
1.00005e-05
9.99754e-06
1.00014e-05
9.99741e-06
1.00021e-05
9.99696e-06
1.00032e-05
9.99745e-06
1.00037e-05
9.99868e-06
1.00038e-05
9.99942e-06
1.00034e-05
9.99647e-06
1.00047e-05
1.08082e-05
1.8641e-05
3.50556e-05
5.45861e-05
6.34178e-05
0.000100591
0.000213227
0.000761556
0.00147123
0.0494893
0.960893
0.999957
0.999999
0.999999
0.999999
0.999999
0.999999
0.999999
0.999999
0.999999
0.999999
0.999999
0.999999
0.999999
0.999999
0.999999
0.999999
0.999999
0.999999
0.999999
0.999999
0.999999
0.999999
0.999999
0.999999
0.999999
0.999999
0.999999
0.999999
0.999999
0.999999
0.999999
1
1
1
1
8.95626e-06
9.06134e-06
9.60259e-06
9.75052e-06
9.92621e-06
9.97337e-06
9.98836e-06
9.99628e-06
9.996e-06
9.99829e-06
9.997e-06
9.99901e-06
9.99707e-06
9.99893e-06
9.99705e-06
9.99885e-06
9.99744e-06
9.99881e-06
9.99793e-06
9.99871e-06
9.99838e-06
9.99874e-06
9.99871e-06
9.99882e-06
9.99884e-06
9.99889e-06
9.99892e-06
9.99895e-06
9.99899e-06
9.99904e-06
9.99906e-06
9.99922e-06
9.99899e-06
9.99967e-06
9.99853e-06
1.00005e-05
9.99798e-06
1.00016e-05
9.99775e-06
1.00024e-05
9.99775e-06
1.00033e-05
9.99834e-06
1.00039e-05
9.999e-06
1.00044e-05
9.99942e-06
1.00047e-05
9.99646e-06
1.0009e-05
1.0272e-05
1.55495e-05
2.98759e-05
5.0868e-05
6.274e-05
0.0001178
0.000137733
0.000597192
0.000824627
0.0440592
0.951921
0.999999
0.999999
0.999999
0.999999
0.999999
0.999999
0.999999
0.999999
0.999999
0.999999
0.999999
0.999999
0.999999
0.999999
0.999999
0.999999
0.999999
0.999999
0.999999
0.999999
0.999999
0.999999
0.999999
0.999999
0.999999
0.999999
0.999999
0.999999
0.999999
0.999999
0.999999
1
1
1
1
8.87187e-06
8.92996e-06
9.28183e-06
9.42505e-06
9.70399e-06
9.84996e-06
9.91852e-06
9.9721e-06
9.99252e-06
9.99819e-06
9.99766e-06
9.99941e-06
9.99803e-06
9.99949e-06
9.99794e-06
9.99936e-06
9.99811e-06
9.99925e-06
9.99845e-06
9.99918e-06
9.99879e-06
9.99916e-06
9.99906e-06
9.99917e-06
9.99917e-06
9.9992e-06
9.99922e-06
9.99925e-06
9.99928e-06
9.99933e-06
9.99939e-06
9.9995e-06
9.99944e-06
9.99973e-06
9.99918e-06
1.00004e-05
9.99878e-06
1.00016e-05
9.99852e-06
1.00026e-05
9.9986e-06
1.00037e-05
9.99941e-06
1.00043e-05
1.00006e-05
1.00045e-05
1.00007e-05
1.0005e-05
9.99645e-06
1.00125e-05
1.00083e-05
1.1098e-05
2.33019e-05
4.69124e-05
6.59304e-05
0.000127986
0.000120807
0.000485135
0.000318955
0.0646953
0.949493
0.999999
0.999999
0.999999
0.999999
0.999999
0.999999
0.999999
0.999999
0.999999
0.999999
0.999999
0.999999
0.999999
0.999999
0.999999
0.999999
0.999999
0.999999
0.999999
0.999999
0.999999
0.999999
0.999999
0.999999
0.999999
0.999999
0.999999
0.999999
0.999999
0.999999
0.999999
1
1
1
1
8.86173e-06
8.90396e-06
9.13989e-06
9.25075e-06
9.53702e-06
9.71638e-06
9.80856e-06
9.92022e-06
9.97169e-06
9.99387e-06
9.99776e-06
9.99949e-06
9.99849e-06
9.99966e-06
9.99846e-06
9.99961e-06
9.99857e-06
9.99953e-06
9.99888e-06
9.99955e-06
9.99919e-06
9.99956e-06
9.99945e-06
9.99958e-06
9.99958e-06
9.99964e-06
9.99967e-06
9.99971e-06
9.99976e-06
9.99982e-06
9.99999e-06
1.00001e-05
1.00001e-05
1.00001e-05
9.99987e-06
1.00008e-05
9.9995e-06
1.00018e-05
9.99929e-06
1.00028e-05
9.99943e-06
1.0004e-05
1.00003e-05
1.00046e-05
1.00014e-05
1.00045e-05
1.00012e-05
1.0005e-05
9.99678e-06
1.00154e-05
1.00034e-05
1.03496e-05
1.56361e-05
3.70045e-05
6.22049e-05
0.000138663
0.000171059
0.000354999
0.000126678
0.143689
0.988037
0.999966
0.999985
0.999993
0.999995
0.999995
0.999994
0.999993
0.999992
0.999992
0.999992
0.999992
0.999995
0.999997
0.999997
0.999997
0.999998
0.999999
0.999999
0.999999
0.999999
0.999999
0.999999
0.999999
0.999999
0.999999
0.999999
0.999999
0.999999
0.999999
0.999999
0.999999
1
1
1
1
8.88436e-06
8.90282e-06
9.10093e-06
9.17971e-06
9.45717e-06
9.62985e-06
9.74948e-06
9.8832e-06
9.94383e-06
9.98362e-06
9.99522e-06
9.99845e-06
9.99766e-06
9.99884e-06
9.99797e-06
9.99902e-06
9.99821e-06
9.99909e-06
9.99855e-06
9.99916e-06
9.99879e-06
9.99913e-06
9.99896e-06
9.99906e-06
9.99902e-06
9.99904e-06
9.99902e-06
9.99901e-06
9.999e-06
9.999e-06
9.999e-06
9.99907e-06
9.99892e-06
9.99927e-06
9.99869e-06
9.99959e-06
9.99844e-06
1.00002e-05
9.99821e-06
1.00012e-05
9.99822e-06
1.00023e-05
9.99863e-06
1.0003e-05
9.99905e-06
1.00036e-05
9.9984e-06
1.00038e-05
9.99546e-06
1.00151e-05
1.0028e-05
1.04363e-05
1.24094e-05
3.79729e-05
9.6592e-05
0.000159063
0.000151387
0.000218762
1.00208e-05
0.258047
0.993205
0.998598
0.998894
0.9992
0.999251
0.999246
0.999139
0.998988
0.998859
0.998811
0.99884
0.999052
0.99932
0.999399
0.999399
0.999397
0.999528
0.999692
0.999829
0.999918
0.999959
0.999979
0.99999
0.999996
0.999998
0.999999
0.999999
1
0.999999
0.999999
0.999999
1
1
1
1
1
8.89036e-06
8.87621e-06
9.06996e-06
9.12236e-06
9.32242e-06
9.43004e-06
9.63921e-06
9.80071e-06
9.90978e-06
9.97241e-06
9.99284e-06
9.99827e-06
9.99695e-06
9.99853e-06
9.99763e-06
9.99884e-06
9.99815e-06
9.99908e-06
9.99871e-06
9.99935e-06
9.99915e-06
9.99957e-06
9.99951e-06
9.99973e-06
9.99977e-06
9.99988e-06
9.99996e-06
1e-05
1.00001e-05
1.00002e-05
1.00003e-05
1.00004e-05
1.00003e-05
1.00007e-05
1.00003e-05
1.0001e-05
1.00002e-05
1.00016e-05
1.00001e-05
1.00026e-05
1.00005e-05
1.00038e-05
1.00008e-05
1.00047e-05
1.00021e-05
1.00051e-05
1.00026e-05
1.0004e-05
9.99719e-06
1.00256e-05
1.01249e-05
1.07764e-05
1.2767e-05
2.83749e-05
7.22696e-05
0.000155159
0.000216443
0.000252324
1.00208e-05
0.409256
0.986233
0.990196
0.990749
0.991617
0.991482
0.990548
0.990057
0.99098
0.991604
0.989558
0.987905
0.988255
0.991851
0.99273
0.992649
0.992184
0.991946
0.993848
0.995708
0.996715
0.997146
0.997541
0.99809
0.998545
0.999095
0.999604
0.999852
0.999946
0.999982
0.999989
0.99999
0.999993
0.999995
0.999998
0.999999
1
8.84728e-06
8.79894e-06
9.02519e-06
9.0528e-06
9.12493e-06
9.14975e-06
9.42023e-06
9.6209e-06
9.81676e-06
9.93882e-06
9.98656e-06
9.99816e-06
9.99646e-06
9.9987e-06
9.99738e-06
9.99891e-06
9.99827e-06
9.99917e-06
9.99906e-06
9.99955e-06
9.99955e-06
9.99993e-06
9.99994e-06
1.00002e-05
1.00003e-05
1.00004e-05
1.00005e-05
1.00006e-05
1.00007e-05
1.00008e-05
1.00009e-05
1.00009e-05
1.0001e-05
1.00012e-05
1.00012e-05
1.00012e-05
1.00014e-05
1.00018e-05
1.00014e-05
1.00027e-05
1.00016e-05
1.00038e-05
1.00017e-05
1.00047e-05
1.00019e-05
1.00051e-05
1.0001e-05
1.0004e-05
9.99715e-06
1.0052e-05
1.0311e-05
1.12968e-05
1.30015e-05
2.10371e-05
4.81913e-05
0.000140012
0.00020423
0.00027254
1.00208e-05
0.472767
0.975317
0.980265
0.981072
0.981524
0.981593
0.981213
0.979579
0.978328
0.977838
0.977669
0.978279
0.980766
0.982544
0.982978
0.983052
0.983574
0.984431
0.984187
0.985059
0.986955
0.987383
0.987158
0.98699
0.987101
0.989186
0.991826
0.99353
0.994977
0.996792
0.998548
0.999652
1
1
1
1
0.999176
8.37212e-06
8.73112e-06
8.97305e-06
8.94554e-06
8.98083e-06
8.9655e-06
9.21021e-06
9.44883e-06
9.74212e-06
9.92e-06
9.98151e-06
9.99491e-06
9.99387e-06
9.99471e-06
9.994e-06
9.99516e-06
9.99467e-06
9.99621e-06
9.99576e-06
9.99678e-06
9.99651e-06
9.99708e-06
9.99703e-06
9.99732e-06
9.99737e-06
9.9975e-06
9.99757e-06
9.99765e-06
9.99771e-06
9.99776e-06
9.9978e-06
9.99786e-06
9.99781e-06
9.99809e-06
9.99775e-06
9.99842e-06
9.99759e-06
9.99889e-06
9.99755e-06
9.99955e-06
9.99779e-06
1.00003e-05
9.99812e-06
1.0001e-05
9.99815e-06
1.00015e-05
9.99776e-06
1.0003e-05
9.9976e-06
1.00874e-05
1.04775e-05
1.17949e-05
1.58451e-05
3.00282e-05
5.34312e-05
0.000101111
0.000151937
0.00025522
1.00208e-05
0.361171
0.986018
0.991992
0.992552
0.994878
0.996034
0.996648
0.997113
0.997503
0.997745
0.998019
0.998798
0.99915
0.999191
0.999058
0.999031
0.999049
0.999071
0.99909
0.999083
0.999089
0.999092
0.99901
0.998945
0.99895
0.999047
0.999188
0.99929
0.999415
0.999511
0.999627
0.999742
0.999819
0.999896
0.999956
0.999986
0.999996
8.0956e-06
8.69132e-06
8.78651e-06
8.81385e-06
8.88647e-06
8.87831e-06
8.96158e-06
9.15059e-06
9.46151e-06
9.86662e-06
9.97907e-06
9.99828e-06
9.9963e-06
9.9968e-06
9.99538e-06
9.99611e-06
9.99531e-06
9.99675e-06
9.99606e-06
9.99706e-06
9.99665e-06
9.99719e-06
9.99708e-06
9.99734e-06
9.99737e-06
9.99749e-06
9.99756e-06
9.99764e-06
9.99771e-06
9.99778e-06
9.99785e-06
9.99792e-06
9.9979e-06
9.99819e-06
9.99787e-06
9.99857e-06
9.99778e-06
9.99919e-06
9.99801e-06
1.00001e-05
9.99863e-06
1.00012e-05
9.9994e-06
1.00023e-05
9.99999e-06
1.00036e-05
1.00003e-05
1.0005e-05
1.00015e-05
1.01301e-05
1.06651e-05
1.26493e-05
2.07566e-05
4.29951e-05
7.2125e-05
0.000109902
0.000128024
0.000327157
0.000114439
0.20595
0.994815
0.999382
0.999594
0.999858
0.999927
0.999964
0.999978
0.999988
0.999994
0.999997
0.999999
1
1
1
1
1
1
1
1
1
1
1
1
1
1
1
1
1
1
1
1
1
1
1
1
1
7.52346e-06
8.76053e-06
8.91397e-06
8.81431e-06
8.7356e-06
8.86381e-06
8.85499e-06
8.92985e-06
9.00616e-06
9.63487e-06
9.93542e-06
9.99805e-06
1.00015e-05
1.00017e-05
1.00012e-05
1.00013e-05
1.00008e-05
1.00015e-05
1.0001e-05
1.00015e-05
1.00012e-05
1.00015e-05
1.00014e-05
1.00016e-05
1.00016e-05
1.00017e-05
1.00017e-05
1.00018e-05
1.00019e-05
1.0002e-05
1.0002e-05
1.0002e-05
1.0002e-05
1.00023e-05
1.00023e-05
1.00025e-05
1.00022e-05
1.00027e-05
1.00026e-05
1.00039e-05
1.00038e-05
1.0005e-05
1.0005e-05
1.0005e-05
1.0005e-05
1.0005e-05
1.00048e-05
1.00054e-05
1.00047e-05
1.01668e-05
1.07495e-05
1.23437e-05
2.4509e-05
6.75472e-05
9.81103e-05
0.000111496
0.000128777
0.000467766
0.000234952
0.089291
0.978391
0.999992
0.999998
1
0.999999
0.999999
0.999999
0.999999
0.999999
0.999999
0.999999
0.999999
0.999999
0.999999
0.999999
0.999999
0.999999
0.999999
0.999999
0.999999
0.999999
0.999999
0.999999
0.999999
0.999999
0.999999
0.999999
0.999999
0.999999
0.999999
1
1
1
1
1
1
4.96075e-06
6.98624e-06
7.17965e-06
7.41389e-06
7.73343e-06
8.28193e-06
8.8767e-06
9.05016e-06
8.78901e-06
9.40144e-06
9.83803e-06
9.98773e-06
1.00012e-05
1.0002e-05
1.00023e-05
1.00027e-05
1.00027e-05
1.00027e-05
1.00027e-05
1.00027e-05
1.00027e-05
1.00027e-05
1.00027e-05
1.00027e-05
1.00027e-05
1.00027e-05
1.00027e-05
1.00027e-05
1.00027e-05
1.00027e-05
1.00027e-05
1.00027e-05
1.00027e-05
1.00028e-05
1.00028e-05
1.00028e-05
1.00028e-05
1.00029e-05
1.0003e-05
1.0004e-05
1.0004e-05
1.00049e-05
1.00047e-05
1.00049e-05
1.00045e-05
1.0005e-05
1.00041e-05
1.00055e-05
1.00073e-05
1.02157e-05
1.08641e-05
1.22055e-05
1.77449e-05
4.63615e-05
8.981e-05
0.000122543
0.000127254
0.000563237
0.000350863
0.0353055
0.955295
0.999999
0.999999
1
0.999999
0.999999
0.999999
0.999999
0.999999
0.999999
0.999999
0.999999
0.999999
0.999999
0.999999
0.999999
0.999999
0.999999
0.999999
0.999999
0.999999
0.999999
0.999999
0.999999
0.999999
0.999999
0.999999
0.999999
0.999999
0.999999
1
1
1
1
1
1
4.65351e-06
5.66602e-06
5.82481e-06
6.01401e-06
6.10787e-06
6.17103e-06
6.2586e-06
7.26595e-06
8.10007e-06
9.46539e-06
9.92657e-06
9.98995e-06
9.99835e-06
1.00002e-05
1.00002e-05
1.00007e-05
1.00006e-05
1.00011e-05
1.0001e-05
1.00013e-05
1.00011e-05
1.00013e-05
1.00012e-05
1.00013e-05
1.00012e-05
1.00012e-05
1.00012e-05
1.00012e-05
1.00012e-05
1.00012e-05
1.00012e-05
1.00013e-05
1.00013e-05
1.00014e-05
1.00014e-05
1.00016e-05
1.00016e-05
1.00019e-05
1.00018e-05
1.00028e-05
1.00026e-05
1.00036e-05
1.00032e-05
1.00037e-05
1.00031e-05
1.00039e-05
1.0002e-05
1.00053e-05
1.00053e-05
1.02014e-05
1.08999e-05
1.21112e-05
1.3151e-05
2.50206e-05
6.11169e-05
9.69267e-05
0.000160689
0.000680969
0.000540016
0.0333818
0.940313
0.999999
0.999999
0.999999
0.999999
0.999999
0.999999
0.999999
0.999999
0.999999
0.999999
0.999999
0.999999
0.999999
0.999999
0.999999
0.999999
0.999999
0.999999
0.999999
0.999999
0.999999
0.999999
0.999999
0.999999
0.999999
0.999999
0.999999
0.999999
0.999999
1
1
1
1
1
1
4.03922e-06
5.11464e-06
5.40329e-06
5.6615e-06
5.81233e-06
5.7172e-06
5.18994e-06
5.4102e-06
6.27097e-06
8.83812e-06
9.91014e-06
9.99798e-06
9.99699e-06
9.99844e-06
9.99673e-06
9.99815e-06
9.99719e-06
9.99832e-06
9.9977e-06
9.99844e-06
9.99796e-06
9.99842e-06
9.99816e-06
9.99836e-06
9.9983e-06
9.99834e-06
9.99834e-06
9.99834e-06
9.99834e-06
9.99834e-06
9.99834e-06
9.99835e-06
9.99831e-06
9.99843e-06
9.99825e-06
9.99864e-06
9.99836e-06
9.99907e-06
9.99861e-06
9.99955e-06
9.99899e-06
1.00003e-05
9.99962e-06
1.00009e-05
9.99986e-06
1.00015e-05
9.99859e-06
1.00034e-05
9.99914e-06
1.01587e-05
1.08552e-05
1.20681e-05
1.34601e-05
2.51599e-05
4.70587e-05
7.05392e-05
0.000235059
0.000812726
0.000689629
0.0486368
0.950551
0.999999
1
0.999999
0.999999
0.999999
0.999999
0.999999
0.999999
0.999999
0.999999
0.999999
0.999999
0.999999
0.999999
0.999999
0.999999
0.999999
0.999999
0.999999
0.999999
0.999999
0.999999
0.999999
0.999999
0.999999
0.999999
0.999999
0.999999
1
1
1
1
1
1
1
3.32462e-06
4.04518e-06
4.27038e-06
4.64543e-06
4.86103e-06
5.06092e-06
4.75558e-06
4.59761e-06
5.3171e-06
7.9288e-06
9.73149e-06
9.99937e-06
9.99891e-06
1.00004e-05
9.99786e-06
9.99973e-06
9.99825e-06
9.99955e-06
9.99866e-06
9.99952e-06
9.99892e-06
9.99944e-06
9.99914e-06
9.99935e-06
9.99928e-06
9.99933e-06
9.99934e-06
9.99936e-06
9.99938e-06
9.9994e-06
9.99943e-06
9.99947e-06
9.99945e-06
9.99961e-06
9.99945e-06
9.99993e-06
9.99963e-06
1.00005e-05
1e-05
1.00011e-05
1.00005e-05
1.0002e-05
1.00013e-05
1.00028e-05
1.00016e-05
1.00035e-05
1.00002e-05
1.00051e-05
9.99718e-06
1.00905e-05
1.07629e-05
1.31829e-05
2.15292e-05
3.80928e-05
5.50875e-05
9.23422e-05
0.000343635
0.000918689
0.00139059
0.0442038
0.957128
0.999917
1
0.999999
0.999999
0.999999
0.999999
0.999999
1
1
1
0.999999
0.999999
0.999999
0.999999
0.999999
0.999999
0.999999
0.999999
0.999999
0.999999
0.999999
0.999999
0.999999
0.999999
0.999999
0.999999
0.999999
0.999999
1
1
1
1
1
1
1
2.5818e-06
3.04468e-06
3.16727e-06
3.28832e-06
3.41926e-06
3.58627e-06
3.78317e-06
4.05343e-06
5.06736e-06
8.03408e-06
9.76287e-06
1.00054e-05
1.00072e-05
1.00073e-05
1.00062e-05
1.00074e-05
1.00064e-05
1.00072e-05
1.00065e-05
1.00071e-05
1.00067e-05
1.0007e-05
1.00068e-05
1.00069e-05
1.00068e-05
1.00069e-05
1.00068e-05
1.00068e-05
1.00068e-05
1.00068e-05
1.00068e-05
1.00069e-05
1.00068e-05
1.0007e-05
1.00069e-05
1.00073e-05
1.0007e-05
1.00077e-05
1.00072e-05
1.00088e-05
1.0008e-05
1.00096e-05
1.0009e-05
1.00102e-05
1.00099e-05
1.00105e-05
1.00098e-05
1.00108e-05
1.00041e-05
1.01202e-05
1.12825e-05
1.58552e-05
2.42669e-05
3.67829e-05
5.50587e-05
0.000150409
0.000243916
0.000857769
0.00114328
0.047604
0.94917
0.999658
0.999999
1
1
1
1
1
1
1
1
1
1
1
1
1
1
0.999999
0.999999
0.999999
0.999999
0.999999
0.999999
0.999999
0.999999
0.999999
0.999999
0.999999
0.999999
1
1
1
1
1
1
1
9.61129e-06
9.71104e-06
9.95186e-06
9.9798e-06
1.0001e-05
1.00045e-05
1.00045e-05
1.00045e-05
1.00045e-05
1.00045e-05
1.00045e-05
1.00045e-05
1.00045e-05
1.00045e-05
1.00045e-05
1.00045e-05
1.00045e-05
1.00045e-05
1.00045e-05
1.00045e-05
1.00045e-05
1.00045e-05
1.00046e-05
1.00046e-05
1.00046e-05
1.00046e-05
1.00046e-05
1.00046e-05
1.00046e-05
1.00046e-05
1.00046e-05
1.00046e-05
1.00046e-05
1.00049e-05
1.00049e-05
1.0005e-05
1.0005e-05
1.00054e-05
1.00054e-05
1.00056e-05
1.00052e-05
1.00066e-05
1.00066e-05
1.00075e-05
1.00075e-05
1.00075e-05
1.00075e-05
1.00075e-05
1.00007e-05
1.00138e-05
1.034e-05
1.29607e-05
1.90315e-05
3.97173e-05
6.53021e-05
0.000119142
0.000205274
0.000916969
0.00300659
0.0541238
0.938428
0.999507
0.999999
0.999999
0.999999
0.999999
0.999999
0.999999
0.999999
0.999999
0.999999
0.999999
0.999999
0.999999
0.999999
0.999999
0.999999
0.999999
0.999999
0.999999
0.999999
0.999999
0.999999
0.999999
0.999999
0.999999
0.999999
0.999999
0.999999
0.999999
0.999999
0.999999
1
1
1
1
8.82206e-06
8.82943e-06
9.29309e-06
9.48359e-06
9.81166e-06
9.93519e-06
9.98784e-06
1.00007e-05
1.00025e-05
1.00039e-05
1.00031e-05
1.00041e-05
1.00032e-05
1.00038e-05
1.0003e-05
1.00037e-05
1.00031e-05
1.00039e-05
1.00036e-05
1.00039e-05
1.00038e-05
1.0004e-05
1.00039e-05
1.0004e-05
1.0004e-05
1.0004e-05
1.0004e-05
1.0004e-05
1.0004e-05
1.0004e-05
1.0004e-05
1.00041e-05
1.00039e-05
1.00044e-05
1.00037e-05
1.00048e-05
1.00034e-05
1.00052e-05
1.00034e-05
1.00056e-05
1.00034e-05
1.00059e-05
1.00037e-05
1.00063e-05
1.0004e-05
1.00069e-05
1.00044e-05
1.00075e-05
9.99883e-06
1.00102e-05
1.04678e-05
1.63171e-05
2.64363e-05
4.23074e-05
5.79932e-05
0.000102281
0.000213781
0.000814604
0.0017637
0.0526636
0.954298
0.999927
0.999999
0.999999
0.999999
0.999999
0.999999
0.999999
0.999999
0.999999
0.999999
0.999999
0.999999
0.999999
0.999999
0.999999
0.999999
0.999999
0.999999
0.999999
0.999999
0.999999
0.999999
0.999999
0.999999
0.999999
0.999999
0.999999
0.999999
0.999999
0.999999
0.999999
1
1
1
1
8.52421e-06
8.46499e-06
8.48368e-06
8.61191e-06
9.02212e-06
9.38575e-06
9.73231e-06
9.93092e-06
9.99818e-06
1.00043e-05
1.00045e-05
1.0005e-05
1.0005e-05
1.0005e-05
1.0005e-05
1.0005e-05
1.00048e-05
1.00055e-05
1.00055e-05
1.00058e-05
1.00058e-05
1.0006e-05
1.0006e-05
1.0006e-05
1.0006e-05
1.0006e-05
1.0006e-05
1.0006e-05
1.0006e-05
1.0006e-05
1.0006e-05
1.0006e-05
1.0006e-05
1.00061e-05
1.00061e-05
1.00061e-05
1.00062e-05
1.00064e-05
1.00064e-05
1.00066e-05
1.00067e-05
1.00067e-05
1.00067e-05
1.00067e-05
1.00067e-05
1.00069e-05
1.00063e-05
1.00075e-05
9.99889e-06
1.0014e-05
1.01055e-05
1.3864e-05
2.52149e-05
4.02097e-05
5.01001e-05
0.000130119
0.000153759
0.00061472
0.000948718
0.0486555
0.960659
0.999999
0.999999
0.999999
0.999999
0.999999
0.999999
0.999999
0.999999
0.999999
0.999999
0.999999
0.999999
0.999999
0.999999
0.999999
0.999999
0.999999
0.999999
0.999999
0.999999
0.999999
0.999999
0.999999
0.999999
0.999999
0.999999
0.999999
0.999999
0.999999
0.999999
0.999999
0.999999
1
1
1
8.48094e-06
8.44732e-06
8.34701e-06
8.34723e-06
8.44449e-06
8.62342e-06
9.01194e-06
9.57594e-06
9.89268e-06
9.98566e-06
9.99925e-06
1.00018e-05
1.00012e-05
1.00021e-05
1.00015e-05
1.00022e-05
1.00014e-05
1.00021e-05
1.00018e-05
1.00022e-05
1.0002e-05
1.00023e-05
1.00021e-05
1.00022e-05
1.00021e-05
1.00021e-05
1.0002e-05
1.00019e-05
1.00018e-05
1.00018e-05
1.00017e-05
1.00018e-05
1.00016e-05
1.00019e-05
1.00015e-05
1.0002e-05
1.00014e-05
1.00022e-05
1.00015e-05
1.00026e-05
1.00019e-05
1.0004e-05
1.0003e-05
1.00046e-05
1.00028e-05
1.00052e-05
1.0001e-05
1.00048e-05
9.99628e-06
1.00258e-05
1.00774e-05
1.11072e-05
2.15151e-05
3.62993e-05
6.16462e-05
0.000167489
0.000122808
0.000551336
0.000375569
0.0556592
0.968828
0.999999
0.999997
0.999999
0.999999
0.999999
0.999999
0.999999
0.999999
0.999999
0.999999
0.999999
0.999999
0.999999
0.999999
0.999999
0.999999
0.999999
0.999999
0.999999
0.999999
0.999999
0.999999
0.999999
0.999999
0.999999
0.999999
0.999999
0.999999
0.999999
0.999999
0.999999
0.999999
1
1
1
8.50065e-06
8.67206e-06
8.44277e-06
8.43806e-06
8.33045e-06
8.31495e-06
8.4354e-06
9.07402e-06
9.57863e-06
9.90353e-06
9.99125e-06
9.99968e-06
9.99936e-06
9.99999e-06
9.99997e-06
1.00001e-05
9.99963e-06
1.00001e-05
9.99994e-06
1.00001e-05
9.99993e-06
1e-05
9.99986e-06
9.99989e-06
9.99974e-06
9.99967e-06
9.99955e-06
9.99946e-06
9.99938e-06
9.99931e-06
9.99926e-06
9.99923e-06
9.99917e-06
9.99923e-06
9.9991e-06
9.99925e-06
9.99904e-06
9.99928e-06
9.99904e-06
9.99987e-06
9.99968e-06
1.00008e-05
1.00004e-05
1.00011e-05
1.00003e-05
1.00012e-05
9.9985e-06
1.00014e-05
9.99551e-06
1.006e-05
1.03021e-05
1.118e-05
1.36001e-05
2.72356e-05
0.000116446
0.000243558
0.000259045
0.000266402
0.000123336
0.127594
0.989475
0.999831
0.999868
0.999943
0.999957
0.999963
0.999962
0.99996
0.999956
0.999953
0.99995
0.999948
0.99995
0.99997
0.999981
0.999987
0.999992
0.999995
0.999998
0.999999
0.999999
0.999999
0.999999
0.999999
0.999999
0.999999
0.999999
0.999999
0.999999
0.999999
0.999999
0.999999
0.999999
1
1
1
8.42532e-06
8.82369e-06
8.68733e-06
8.69939e-06
8.34478e-06
8.27701e-06
8.22558e-06
8.67704e-06
9.16373e-06
9.73108e-06
9.96366e-06
9.99679e-06
9.99728e-06
9.99854e-06
9.99839e-06
9.99843e-06
9.99802e-06
9.99833e-06
9.99815e-06
9.99816e-06
9.998e-06
9.998e-06
9.99784e-06
9.99783e-06
9.99769e-06
9.99762e-06
9.99752e-06
9.99744e-06
9.99736e-06
9.99728e-06
9.9972e-06
9.99714e-06
9.99709e-06
9.99709e-06
9.99702e-06
9.9971e-06
9.997e-06
9.99726e-06
9.99716e-06
9.99808e-06
9.99797e-06
9.99882e-06
9.99867e-06
9.99948e-06
9.99893e-06
9.99978e-06
9.9974e-06
1.00006e-05
9.99599e-06
1.01153e-05
1.058e-05
1.19732e-05
1.52306e-05
6.31264e-05
0.000173782
0.000184809
0.000185771
0.000113129
1.00208e-05
0.257055
0.986452
0.993922
0.994064
0.995094
0.995252
0.995254
0.995264
0.99523
0.994812
0.994383
0.994118
0.993981
0.994948
0.996281
0.996839
0.997189
0.997588
0.998071
0.998619
0.999218
0.999627
0.999834
0.999935
0.999978
0.999995
0.999999
0.999999
0.999999
0.999999
0.999999
0.999999
0.999999
0.999999
1
1
1
8.36914e-06
8.86216e-06
8.82077e-06
8.95745e-06
8.53058e-06
8.35727e-06
8.20233e-06
8.41856e-06
8.80812e-06
9.52488e-06
9.91182e-06
9.99336e-06
9.99617e-06
9.99785e-06
9.99748e-06
9.99749e-06
9.99706e-06
9.99725e-06
9.99705e-06
9.99705e-06
9.99688e-06
9.99688e-06
9.99677e-06
9.99677e-06
9.99666e-06
9.99662e-06
9.99656e-06
9.99651e-06
9.99647e-06
9.99643e-06
9.99638e-06
9.99636e-06
9.99636e-06
9.99636e-06
9.99636e-06
9.99643e-06
9.99643e-06
9.99675e-06
9.99674e-06
9.99769e-06
9.99769e-06
9.99855e-06
9.99855e-06
9.99936e-06
9.99897e-06
1.00003e-05
9.99864e-06
1.00027e-05
1.00007e-05
1.01744e-05
1.08913e-05
1.27451e-05
1.38219e-05
3.14813e-05
9.58617e-05
0.000255832
0.000294576
0.000303736
1.00208e-05
0.426149
0.961188
0.967273
0.96587
0.966149
0.966237
0.965671
0.963659
0.959878
0.957854
0.957534
0.95803
0.961743
0.964285
0.964533
0.964262
0.963056
0.962423
0.963091
0.966872
0.971745
0.976769
0.980921
0.983717
0.98549
0.989179
0.993212
0.996157
0.99834
0.999349
0.999549
0.999518
0.9995
0.999553
0.999712
0.99974
0.999732
8.14107e-06
8.6325e-06
8.85413e-06
9.08409e-06
8.75698e-06
8.47143e-06
8.20335e-06
8.26611e-06
8.52558e-06
9.3065e-06
9.83762e-06
9.98877e-06
9.99703e-06
9.99903e-06
9.99764e-06
9.99884e-06
9.99706e-06
9.9985e-06
9.99731e-06
9.99827e-06
9.9976e-06
9.99811e-06
9.99785e-06
9.99805e-06
9.99799e-06
9.99803e-06
9.99803e-06
9.99805e-06
9.99806e-06
9.99807e-06
9.99807e-06
9.9981e-06
9.99805e-06
9.99822e-06
9.99801e-06
9.9985e-06
9.99819e-06
9.99903e-06
9.99865e-06
9.99984e-06
9.99937e-06
1.00006e-05
1.00001e-05
1.00011e-05
1.00004e-05
1.00016e-05
9.99989e-06
1.00042e-05
1.00069e-05
1.02367e-05
1.11788e-05
1.38523e-05
1.48922e-05
2.61202e-05
5.01365e-05
0.000220039
0.000276533
0.000325666
1.00208e-05
0.456239
0.946841
0.953694
0.952404
0.952336
0.951125
0.948354
0.943826
0.939468
0.93819
0.938199
0.938821
0.939535
0.939531
0.936586
0.929044
0.922086
0.917528
0.914496
0.91178
0.909405
0.907171
0.902661
0.894288
0.884875
0.876668
0.870128
0.865366
0.862278
0.859348
0.856
0.851275
0.843184
0.830376
0.808593
0.761607
0.576189
7.78284e-06
7.93517e-06
8.55172e-06
9.07197e-06
8.89877e-06
8.52576e-06
8.12368e-06
8.04368e-06
8.20782e-06
9.02948e-06
9.73906e-06
9.97897e-06
9.99843e-06
1.00003e-05
9.99961e-06
1.00002e-05
9.99927e-06
9.99998e-06
9.99945e-06
9.99987e-06
9.99952e-06
9.99977e-06
9.99959e-06
9.99971e-06
9.99965e-06
9.99967e-06
9.99965e-06
9.99965e-06
9.99965e-06
9.99964e-06
9.99963e-06
9.99964e-06
9.99959e-06
9.99969e-06
9.99953e-06
9.99998e-06
9.99976e-06
1.00006e-05
1.00002e-05
1.00013e-05
1.00008e-05
1.00019e-05
1.00014e-05
1.00023e-05
1.00018e-05
1.00028e-05
1.00011e-05
1.00059e-05
1.00146e-05
1.03119e-05
1.14217e-05
1.47405e-05
1.53666e-05
3.10564e-05
7.06894e-05
0.000108981
0.000199311
0.000330794
1.00208e-05
0.279413
0.971048
0.988899
0.991963
0.99521
0.996536
0.997181
0.997349
0.99741
0.99751
0.997453
0.997716
0.997865
0.997862
0.99754
0.996862
0.996441
0.996074
0.995761
0.995552
0.995087
0.994577
0.994252
0.994102
0.993983
0.993382
0.992498
0.992518
0.992803
0.992851
0.992677
0.992501
0.992349
0.993187
0.994841
0.997097
0.999591
7.54071e-06
7.43219e-06
7.84395e-06
8.4089e-06
8.79373e-06
8.50093e-06
7.94826e-06
7.72503e-06
7.74077e-06
8.58953e-06
9.59136e-06
9.96068e-06
9.9985e-06
1.00007e-05
1e-05
1.00005e-05
9.99968e-06
1.00003e-05
9.9998e-06
1.00002e-05
9.99986e-06
1.00001e-05
9.99992e-06
1e-05
9.99999e-06
1e-05
1e-05
1e-05
1e-05
1e-05
1e-05
1e-05
9.99997e-06
1.00001e-05
9.99994e-06
1.00004e-05
1.00002e-05
1.00011e-05
1.00006e-05
1.00017e-05
1.00011e-05
1.00022e-05
1.00016e-05
1.00026e-05
1.00019e-05
1.00029e-05
1.00011e-05
1.00063e-05
1.00217e-05
1.04424e-05
1.20988e-05
1.5919e-05
1.70365e-05
3.09578e-05
8.17843e-05
0.000148947
0.000246503
0.000296374
3.35106e-05
0.132408
0.988557
0.999596
0.999795
0.99996
0.999981
0.99999
0.999992
0.999993
0.999993
0.999991
0.99999
0.999989
0.99999
0.99999
0.99999
0.999989
0.999986
0.999983
0.999982
0.99998
0.999978
0.999978
0.999978
0.999975
0.999975
0.999976
0.99998
0.999984
0.999986
0.999988
0.999988
0.999989
0.999991
0.999995
0.999998
1
6.78908e-06
7.52489e-06
7.68907e-06
7.90863e-06
8.30951e-06
8.48312e-06
7.85261e-06
7.39431e-06
7.16801e-06
7.92614e-06
9.3572e-06
9.93704e-06
9.9986e-06
1.00009e-05
1.00003e-05
1.00007e-05
1e-05
1.00006e-05
1.00002e-05
1.00005e-05
1.00002e-05
1.00004e-05
1.00003e-05
1.00004e-05
1.00004e-05
1.00004e-05
1.00004e-05
1.00004e-05
1.00004e-05
1.00004e-05
1.00004e-05
1.00004e-05
1.00004e-05
1.00004e-05
1.00004e-05
1.00008e-05
1.00006e-05
1.00014e-05
1.0001e-05
1.00019e-05
1.00014e-05
1.00023e-05
1.00018e-05
1.00026e-05
1.0002e-05
1.0002e-05
1.00003e-05
1.00054e-05
1.00335e-05
1.06333e-05
1.30008e-05
1.74205e-05
1.98302e-05
2.93717e-05
8.07331e-05
0.000159287
0.00024648
0.000420707
0.000198194
0.056271
0.947284
0.999999
0.999996
1
0.999999
0.999999
0.999999
0.999999
0.999999
0.999999
0.999999
0.999999
0.999999
0.999999
0.999999
0.999999
0.999999
0.999999
0.999999
0.999999
0.999999
0.999999
0.999999
0.999999
0.999999
0.999999
0.999999
0.999999
0.999999
0.999999
1
1
1
1
1
1
5.05959e-06
7.22491e-06
7.59565e-06
7.94687e-06
8.23236e-06
8.59467e-06
7.85228e-06
7.21697e-06
6.60927e-06
7.10438e-06
9.05182e-06
9.90594e-06
9.99637e-06
9.99937e-06
9.99906e-06
9.99931e-06
9.99906e-06
9.9993e-06
9.99915e-06
9.9993e-06
9.99913e-06
9.99922e-06
9.9991e-06
9.99914e-06
9.99906e-06
9.99905e-06
9.99901e-06
9.99898e-06
9.99895e-06
9.99891e-06
9.99886e-06
9.99881e-06
9.99873e-06
9.99871e-06
9.99862e-06
9.99878e-06
9.9985e-06
9.99902e-06
9.9987e-06
9.99921e-06
9.99883e-06
9.99933e-06
9.999e-06
9.9994e-06
9.99916e-06
9.9998e-06
9.99813e-06
1.00041e-05
1.00472e-05
1.08703e-05
1.39362e-05
1.86534e-05
2.3028e-05
2.64504e-05
5.40379e-05
0.000106458
0.00013804
0.00061661
0.00049046
0.0380607
0.95238
0.999999
0.999999
1
0.999999
0.999999
0.999999
0.999999
0.999999
0.999999
0.999999
0.999999
0.999999
0.999999
0.999999
0.999999
0.999999
0.999999
0.999999
0.999999
0.999999
0.999999
0.999999
0.999999
0.999999
0.999999
0.999999
0.999999
0.999999
0.999999
1
1
1
1
1
1
4.91697e-06
6.30572e-06
6.61111e-06
7.3081e-06
7.90968e-06
8.65925e-06
8.20309e-06
7.42506e-06
6.24518e-06
6.42898e-06
8.80677e-06
9.89018e-06
9.99432e-06
9.99784e-06
9.9975e-06
9.99759e-06
9.99745e-06
9.99751e-06
9.99742e-06
9.99746e-06
9.99726e-06
9.99728e-06
9.99707e-06
9.99705e-06
9.99689e-06
9.99681e-06
9.99671e-06
9.99663e-06
9.99656e-06
9.9965e-06
9.99643e-06
9.99637e-06
9.99628e-06
9.99622e-06
9.99609e-06
9.99609e-06
9.99576e-06
9.99602e-06
9.99552e-06
9.99591e-06
9.99539e-06
9.9959e-06
9.99541e-06
9.99572e-06
9.9954e-06
9.99593e-06
9.99487e-06
1.00005e-05
1.00544e-05
1.09785e-05
1.42579e-05
1.88776e-05
2.44654e-05
3.66171e-05
4.41959e-05
6.89843e-05
0.000190911
0.000704892
0.00100678
0.0328342
0.941566
0.999999
0.999999
0.999999
0.999999
0.999999
0.999999
0.999999
0.999999
0.999999
0.999999
0.999999
0.999999
0.999999
0.999999
0.999999
0.999999
0.999999
0.999999
0.999999
0.999999
0.999999
0.999999
0.999999
0.999999
0.999999
0.999999
0.999999
0.999999
0.999999
1
1
1
1
1
1
4.29599e-06
5.33239e-06
5.15534e-06
5.5873e-06
6.52649e-06
7.65116e-06
8.36725e-06
7.75498e-06
6.0681e-06
6.07288e-06
8.69997e-06
9.8941e-06
9.99184e-06
9.99598e-06
9.99534e-06
9.99534e-06
9.99515e-06
9.99515e-06
9.99506e-06
9.99506e-06
9.9948e-06
9.9948e-06
9.9945e-06
9.99447e-06
9.99424e-06
9.99413e-06
9.994e-06
9.99391e-06
9.99384e-06
9.9938e-06
9.99379e-06
9.99379e-06
9.99379e-06