/*--------------------------------*- C++ -*----------------------------------*\
| =========                 |                                                 |
| \\      /  F ield         | OpenFOAM: The Open Source CFD Toolbox           |
|  \\    /   O peration     | Version:  2.3.0                                 |
|   \\  /    A nd           | Web:      www.OpenFOAM.org                      |
|    \\/     M anipulation  |                                                 |
\*---------------------------------------------------------------------------*/
FoamFile
{
    version     2.0;
    format      ascii;
    class       volScalarField;
    location    "8";
    object      alpha.airMean;
}
// * * * * * * * * * * * * * * * * * * * * * * * * * * * * * * * * * * * * * //

dimensions      [0 0 0 0 0 0 0];

internalField   nonuniform List<scalar> 
6144
(
0.99999
0.99999
0.99999
0.99999
0.99999
0.99999
0.99999
0.99999
0.99999
0.99999
0.99999
0.99999
0.99999
0.99999
0.99999
0.99999
0.99999
0.99999
0.99999
0.99999
0.99999
0.99999
0.99999
0.99999
0.99999
0.99999
0.99999
0.99999
0.99999
0.99999
0.99999
0.99999
0.99999
0.99999
0.99999
0.99999
0.99999
0.99999
0.99999
0.99999
0.99999
0.99999
0.99999
0.99999
0.99999
0.99999
0.99999
0.99999
0.99999
0.99999
0.99999
0.999986
0.999981
0.999972
0.999965
0.999945
0.999901
0.999651
0.998955
0.925552
0.0317975
0.000181135
1.82002e-06
1.70221e-06
1.69265e-06
1.63757e-06
1.63595e-06
1.59108e-06
1.58119e-06
1.54683e-06
1.52798e-06
1.49858e-06
1.47714e-06
1.44968e-06
1.42756e-06
1.40167e-06
1.37907e-06
1.35639e-06
1.33218e-06
1.30983e-06
1.28772e-06
1.26416e-06
1.24205e-06
1.22152e-06
1.2012e-06
1.17973e-06
1.15388e-06
1.12578e-06
1.09356e-06
1.05261e-06
9.8633e-07
8.77289e-07
7.33568e-07
6.24704e-07
6.22888e-07
6.2271e-07
0.99999
0.99999
0.99999
0.99999
0.99999
0.99999
0.99999
0.99999
0.99999
0.99999
0.99999
0.99999
0.99999
0.99999
0.99999
0.99999
0.99999
0.99999
0.99999
0.99999
0.99999
0.99999
0.99999
0.99999
0.99999
0.99999
0.99999
0.99999
0.99999
0.99999
0.99999
0.99999
0.99999
0.99999
0.99999
0.99999
0.99999
0.99999
0.99999
0.99999
0.99999
0.99999
0.99999
0.99999
0.99999
0.99999
0.99999
0.99999
0.99999
0.99999
0.99999
0.999986
0.99998
0.999974
0.999968
0.999951
0.999893
0.999536
0.99869
0.945414
0.0411849
0.000108103
1.73671e-06
1.70491e-06
1.68484e-06
1.63451e-06
1.63121e-06
1.58903e-06
1.57638e-06
1.54029e-06
1.52397e-06
1.49608e-06
1.47557e-06
1.45089e-06
1.42826e-06
1.40377e-06
1.37895e-06
1.35504e-06
1.3319e-06
1.31063e-06
1.28931e-06
1.26947e-06
1.25027e-06
1.22847e-06
1.20686e-06
1.18387e-06
1.15462e-06
1.1219e-06
1.09125e-06
1.04888e-06
9.81258e-07
8.70869e-07
7.25513e-07
6.2299e-07
6.22048e-07
6.23231e-07
0.99999
0.99999
0.99999
0.99999
0.99999
0.99999
0.99999
0.99999
0.99999
0.99999
0.99999
0.99999
0.99999
0.99999
0.99999
0.99999
0.99999
0.99999
0.99999
0.99999
0.99999
0.99999
0.99999
0.99999
0.99999
0.99999
0.99999
0.99999
0.99999
0.99999
0.99999
0.99999
0.99999
0.99999
0.99999
0.99999
0.99999
0.99999
0.99999
0.99999
0.99999
0.99999
0.99999
0.99999
0.99999
0.99999
0.99999
0.99999
0.99999
0.99999
0.99999
0.999988
0.999982
0.999974
0.999963
0.999942
0.99993
0.999678
0.999188
0.949471
0.0469288
8.72863e-05
1.75417e-06
1.71931e-06
1.69572e-06
1.65153e-06
1.64806e-06
1.60789e-06
1.59873e-06
1.56555e-06
1.54713e-06
1.5143e-06
1.49042e-06
1.4594e-06
1.43369e-06
1.40372e-06
1.38053e-06
1.35706e-06
1.33399e-06
1.31205e-06
1.29067e-06
1.26877e-06
1.24728e-06
1.22564e-06
1.20229e-06
1.17934e-06
1.15174e-06
1.12216e-06
1.09213e-06
1.0509e-06
9.82726e-07
8.72029e-07
7.27508e-07
6.23473e-07
6.22275e-07
6.22574e-07
0.99999
0.99999
0.99999
0.99999
0.99999
0.99999
0.99999
0.99999
0.99999
0.99999
0.99999
0.99999
0.99999
0.99999
0.99999
0.99999
0.99999
0.99999
0.99999
0.99999
0.99999
0.99999
0.99999
0.99999
0.99999
0.99999
0.99999
0.99999
0.99999
0.99999
0.99999
0.99999
0.99999
0.99999
0.99999
0.99999
0.99999
0.99999
0.99999
0.99999
0.99999
0.99999
0.99999
0.99999
0.99999
0.99999
0.99999
0.99999
0.99999
0.99999
0.99999
0.999989
0.999982
0.999971
0.999955
0.999931
0.999935
0.999759
0.9996
0.936151
0.048713
6.49529e-05
1.86303e-06
1.78929e-06
1.73999e-06
1.66223e-06
1.66094e-06
1.61742e-06
1.61103e-06
1.57045e-06
1.55852e-06
1.5328e-06
1.5152e-06
1.4936e-06
1.47528e-06
1.4538e-06
1.41725e-06
1.38011e-06
1.34886e-06
1.32258e-06
1.29819e-06
1.27459e-06
1.25015e-06
1.22457e-06
1.19886e-06
1.17286e-06
1.14509e-06
1.11771e-06
1.08778e-06
1.0478e-06
9.82719e-07
8.77029e-07
7.3443e-07
6.24783e-07
6.21897e-07
6.22403e-07
0.99999
0.99999
0.99999
0.99999
0.99999
0.99999
0.99999
0.99999
0.99999
0.99999
0.99999
0.99999
0.99999
0.99999
0.99999
0.99999
0.99999
0.99999
0.99999
0.99999
0.99999
0.99999
0.99999
0.99999
0.99999
0.99999
0.99999
0.99999
0.99999
0.99999
0.99999
0.99999
0.99999
0.99999
0.99999
0.99999
0.99999
0.99999
0.99999
0.99999
0.99999
0.99999
0.99999
0.99999
0.99999
0.99999
0.99999
0.99999
0.99999
0.99999
0.999989
0.999986
0.999981
0.999969
0.999945
0.999911
0.999906
0.999823
0.999799
0.876857
0.0203405
9.27995e-05
3.08687e-05
1.70512e-05
1.21908e-05
9.02641e-06
8.70672e-06
7.4289e-06
6.7906e-06
5.88602e-06
5.288e-06
4.61379e-06
3.96e-06
3.21713e-06
2.57027e-06
2.08292e-06
1.76282e-06
1.58122e-06
1.4739e-06
1.387e-06
1.32646e-06
1.27861e-06
1.23291e-06
1.18954e-06
1.16436e-06
1.13838e-06
1.11413e-06
1.08914e-06
1.06398e-06
1.02831e-06
9.69928e-07
8.75668e-07
7.39634e-07
6.25479e-07
6.2283e-07
6.22036e-07
0.99999
0.99999
0.99999
0.99999
0.99999
0.99999
0.99999
0.99999
0.99999
0.99999
0.99999
0.99999
0.99999
0.99999
0.99999
0.99999
0.99999
0.99999
0.99999
0.99999
0.99999
0.99999
0.99999
0.99999
0.99999
0.99999
0.99999
0.99999
0.99999
0.99999
0.99999
0.99999
0.99999
0.99999
0.99999
0.99999
0.99999
0.99999
0.99999
0.99999
0.99999
0.99999
0.99999
0.99999
0.99999
0.99999
0.99999
0.99999
0.99999
0.99999
0.999989
0.999986
0.999981
0.999969
0.999931
0.999905
0.999906
0.999877
0.999939
0.773038
0.0117763
0.00139664
0.0012545
0.00102037
0.000944421
0.000894724
0.000863033
0.000832135
0.000807065
0.000755451
0.000699519
0.00064423
0.000579766
0.000496717
0.000417252
0.000344645
0.000268365
0.000201978
0.000147158
0.00010256
6.89311e-05
4.27132e-05
2.51345e-05
1.43471e-05
7.74342e-06
3.93458e-06
2.00638e-06
1.23963e-06
9.5224e-07
7.81888e-07
7.11498e-07
6.68013e-07
6.22348e-07
6.21646e-07
6.22885e-07
6.26219e-07
0.99999
0.99999
0.99999
0.99999
0.99999
0.99999
0.99999
0.99999
0.99999
0.99999
0.99999
0.99999
0.99999
0.99999
0.99999
0.99999
0.99999
0.99999
0.99999
0.99999
0.99999
0.99999
0.99999
0.99999
0.99999
0.99999
0.99999
0.99999
0.99999
0.99999
0.99999
0.99999
0.99999
0.99999
0.99999
0.99999
0.99999
0.99999
0.99999
0.99999
0.99999
0.99999
0.99999
0.99999
0.99999
0.99999
0.99999
0.99999
0.99999
0.99999
0.99999
0.999989
0.999985
0.999977
0.999944
0.999903
0.999879
0.999873
0.99999
0.657714
0.0128987
0.00774929
0.00823619
0.007996
0.00781967
0.00787954
0.00778675
0.00777715
0.00759895
0.00736958
0.00712568
0.00671017
0.00636089
0.00607189
0.00584724
0.00530408
0.00475249
0.00435002
0.0038063
0.00331596
0.00298147
0.0025061
0.00204504
0.00169141
0.00137644
0.00110164
0.000827188
0.000572459
0.000384483
0.000229356
0.000111536
4.43472e-05
1.27031e-05
4.03045e-06
2.01406e-06
1.88151e-06
0.99999
0.99999
0.99999
0.99999
0.99999
0.99999
0.99999
0.99999
0.99999
0.99999
0.99999
0.99999
0.99999
0.99999
0.99999
0.99999
0.99999
0.99999
0.99999
0.99999
0.99999
0.99999
0.99999
0.99999
0.99999
0.99999
0.99999
0.99999
0.99999
0.99999
0.99999
0.99999
0.99999
0.99999
0.99999
0.99999
0.99999
0.99999
0.99999
0.99999
0.99999
0.99999
0.99999
0.99999
0.99999
0.99999
0.99999
0.99999
0.99999
0.99999
0.99999
0.99999
0.999987
0.999983
0.999956
0.999914
0.999895
0.999878
0.999956
0.582735
0.0230732
0.018182
0.0188096
0.0189349
0.0187878
0.0187719
0.018601
0.0183394
0.0183017
0.0182438
0.0180224
0.0178248
0.0175936
0.0173752
0.0171864
0.0169981
0.016791
0.0164698
0.0160981
0.0157613
0.0154052
0.0149928
0.0145648
0.0141563
0.0137679
0.0134826
0.0130785
0.0124958
0.0118656
0.0109439
0.00997784
0.00889823
0.00760242
0.00633071
0.00478487
0.00336431
0.999991
0.99999
0.99999
0.99999
0.99999
0.99999
0.99999
0.99999
0.99999
0.99999
0.99999
0.99999
0.99999
0.99999
0.99999
0.99999
0.99999
0.99999
0.99999
0.99999
0.99999
0.99999
0.99999
0.99999
0.99999
0.99999
0.99999
0.99999
0.99999
0.99999
0.99999
0.99999
0.99999
0.99999
0.99999
0.99999
0.99999
0.99999
0.99999
0.99999
0.99999
0.99999
0.99999
0.99999
0.99999
0.99999
0.99999
0.99999
0.99999
0.99999
0.99999
0.99999
0.999988
0.999982
0.999962
0.999932
0.999914
0.999867
0.999903
0.699555
0.0165503
0.00657382
0.00602382
0.00499967
0.00443759
0.00417282
0.00387281
0.00358781
0.00336001
0.0031498
0.00303386
0.00282536
0.00265084
0.00248865
0.00235409
0.00223002
0.00208823
0.00196982
0.00189586
0.00180394
0.00164308
0.0014941
0.00131939
0.00113925
0.000978699
0.000800531
0.000634772
0.000489937
0.000362354
0.00025017
0.000153579
8.62463e-05
4.11677e-05
1.49645e-05
4.40061e-06
1.8755e-06
0.999991
0.99999
0.99999
0.99999
0.99999
0.99999
0.99999
0.99999
0.99999
0.99999
0.99999
0.99999
0.99999
0.99999
0.99999
0.99999
0.99999
0.99999
0.99999
0.99999
0.99999
0.99999
0.99999
0.99999
0.99999
0.99999
0.99999
0.99999
0.99999
0.99999
0.99999
0.99999
0.99999
0.99999
0.99999
0.99999
0.99999
0.99999
0.99999
0.99999
0.99999
0.99999
0.99999
0.99999
0.99999
0.99999
0.99999
0.99999
0.99999
0.99999
0.99999
0.999989
0.999987
0.999979
0.999965
0.999948
0.999937
0.999815
0.999817
0.836299
0.0158385
0.00076734
0.000612481
0.000451564
0.000371307
0.000330814
0.000292016
0.000261625
0.000232618
0.000202157
0.000179756
0.000153688
0.000137087
0.000118047
9.83457e-05
8.3292e-05
7.11728e-05
6.06994e-05
5.03797e-05
3.97685e-05
3.0533e-05
2.33436e-05
1.68887e-05
1.15916e-05
7.73269e-06
4.613e-06
2.80897e-06
1.7524e-06
1.14386e-06
8.4247e-07
7.0042e-07
6.46394e-07
6.21547e-07
6.21174e-07
6.22654e-07
6.24634e-07
0.999991
0.999991
0.99999
0.99999
0.99999
0.99999
0.99999
0.99999
0.99999
0.99999
0.99999
0.99999
0.99999
0.99999
0.99999
0.99999
0.99999
0.99999
0.99999
0.99999
0.99999
0.99999
0.99999
0.99999
0.99999
0.99999
0.99999
0.99999
0.99999
0.99999
0.99999
0.99999
0.99999
0.99999
0.99999
0.99999
0.99999
0.99999
0.99999
0.99999
0.99999
0.99999
0.99999
0.99999
0.99999
0.99999
0.99999
0.99999
0.99999
0.99999
0.99999
0.999989
0.999984
0.999971
0.999959
0.99995
0.999943
0.999738
0.999718
0.922083
0.0303861
7.63754e-05
1.97911e-05
1.38994e-05
1.10001e-05
9.17392e-06
7.70915e-06
6.60118e-06
5.64389e-06
4.64509e-06
3.82741e-06
3.16605e-06
2.71619e-06
2.31468e-06
2.03241e-06
1.82291e-06
1.66296e-06
1.53686e-06
1.43808e-06
1.36635e-06
1.32384e-06
1.28983e-06
1.25161e-06
1.21823e-06
1.18685e-06
1.15648e-06
1.11452e-06
1.06396e-06
1.00099e-06
9.2297e-07
8.35572e-07
7.41405e-07
6.59417e-07
6.20557e-07
6.2249e-07
6.22005e-07
0.999993
0.999992
0.999991
0.999991
0.999991
0.99999
0.99999
0.99999
0.99999
0.99999
0.99999
0.99999
0.99999
0.99999
0.99999
0.99999
0.99999
0.99999
0.99999
0.99999
0.99999
0.99999
0.99999
0.99999
0.99999
0.99999
0.99999
0.99999
0.99999
0.99999
0.99999
0.99999
0.99999
0.99999
0.99999
0.99999
0.99999
0.99999
0.99999
0.99999
0.99999
0.99999
0.99999
0.99999
0.99999
0.99999
0.99999
0.99999
0.99999
0.99999
0.99999
0.999989
0.999984
0.999972
0.999957
0.999946
0.999928
0.999667
0.999638
0.958159
0.0478345
6.35442e-05
1.9161e-06
1.72645e-06
1.69952e-06
1.65005e-06
1.64336e-06
1.60321e-06
1.5871e-06
1.555e-06
1.5425e-06
1.51728e-06
1.49977e-06
1.46571e-06
1.43364e-06
1.40333e-06
1.37607e-06
1.34988e-06
1.32727e-06
1.30407e-06
1.2808e-06
1.26176e-06
1.2401e-06
1.21751e-06
1.19403e-06
1.16345e-06
1.12701e-06
1.08582e-06
1.02947e-06
9.5392e-07
8.62567e-07
7.57796e-07
6.59764e-07
6.19836e-07
6.21988e-07
6.22967e-07
0.999994
0.999993
0.999993
0.999993
0.999992
0.999991
0.999991
0.99999
0.99999
0.99999
0.99999
0.99999
0.99999
0.99999
0.99999
0.99999
0.99999
0.99999
0.99999
0.99999
0.99999
0.99999
0.99999
0.99999
0.99999
0.99999
0.99999
0.99999
0.99999
0.99999
0.99999
0.99999
0.99999
0.99999
0.99999
0.99999
0.99999
0.99999
0.99999
0.99999
0.99999
0.99999
0.99999
0.99999
0.99999
0.99999
0.99999
0.99999
0.99999
0.99999
0.99999
0.999988
0.999985
0.999977
0.999963
0.999952
0.999901
0.999592
0.999523
0.965413
0.0520958
9.57773e-05
1.80519e-06
1.67607e-06
1.64991e-06
1.61443e-06
1.60921e-06
1.56535e-06
1.55879e-06
1.52166e-06
1.50674e-06
1.47581e-06
1.46161e-06
1.43919e-06
1.4201e-06
1.39816e-06
1.37451e-06
1.35081e-06
1.3238e-06
1.29818e-06
1.27712e-06
1.25481e-06
1.2321e-06
1.2152e-06
1.19527e-06
1.16664e-06
1.13351e-06
1.09148e-06
1.03514e-06
9.62021e-07
8.686e-07
7.57144e-07
6.55627e-07
6.16826e-07
6.22038e-07
6.22529e-07
0.999995
0.999994
0.999994
0.999993
0.999993
0.999992
0.999992
0.999991
0.999991
0.99999
0.99999
0.99999
0.99999
0.99999
0.99999
0.99999
0.99999
0.99999
0.99999
0.99999
0.99999
0.99999
0.99999
0.99999
0.99999
0.99999
0.99999
0.99999
0.99999
0.99999
0.99999
0.99999
0.99999
0.99999
0.99999
0.99999
0.99999
0.99999
0.99999
0.99999
0.99999
0.99999
0.99999
0.99999
0.99999
0.99999
0.99999
0.99999
0.99999
0.99999
0.99999
0.999988
0.999986
0.999981
0.999969
0.999961
0.999854
0.999508
0.999523
0.957654
0.0440505
4.86452e-05
1.69126e-06
1.64732e-06
1.63884e-06
1.59736e-06
1.5936e-06
1.55636e-06
1.54461e-06
1.51551e-06
1.49661e-06
1.47122e-06
1.4499e-06
1.42829e-06
1.4084e-06
1.38762e-06
1.36745e-06
1.34576e-06
1.32146e-06
1.29989e-06
1.27729e-06
1.25227e-06
1.23114e-06
1.21143e-06
1.19126e-06
1.16587e-06
1.13257e-06
1.0883e-06
1.03044e-06
9.57192e-07
8.63159e-07
7.5239e-07
6.51634e-07
6.16814e-07
6.22161e-07
6.22621e-07
0.999996
0.999995
0.999994
0.999994
0.999993
0.999993
0.999992
0.999991
0.999991
0.99999
0.99999
0.99999
0.99999
0.99999
0.99999
0.99999
0.99999
0.99999
0.99999
0.99999
0.99999
0.99999
0.99999
0.99999
0.99999
0.99999
0.99999
0.99999
0.99999
0.99999
0.99999
0.99999
0.99999
0.99999
0.99999
0.99999
0.99999
0.99999
0.99999
0.99999
0.99999
0.99999
0.99999
0.99999
0.99999
0.99999
0.99999
0.99999
0.99999
0.99999
0.99999
0.999988
0.999986
0.999981
0.99997
0.999955
0.999774
0.999408
0.999069
0.953719
0.0408159
9.60216e-05
1.67823e-06
1.63998e-06
1.63272e-06
1.58203e-06
1.58099e-06
1.54955e-06
1.53239e-06
1.50736e-06
1.48449e-06
1.45836e-06
1.4396e-06
1.41316e-06
1.39528e-06
1.3743e-06
1.35316e-06
1.33528e-06
1.31614e-06
1.29414e-06
1.27369e-06
1.25314e-06
1.23208e-06
1.21253e-06
1.19448e-06
1.17271e-06
1.13581e-06
1.08822e-06
1.03095e-06
9.56795e-07
8.6326e-07
7.53128e-07
6.52916e-07
6.17243e-07
6.2238e-07
6.22846e-07
0.999997
0.999995
0.999995
0.999994
0.999994
0.999993
0.999992
0.999992
0.999991
0.99999
0.99999
0.99999
0.99999
0.99999
0.99999
0.99999
0.99999
0.99999
0.99999
0.99999
0.99999
0.99999
0.99999
0.99999
0.99999
0.99999
0.99999
0.99999
0.99999
0.99999
0.99999
0.99999
0.99999
0.99999
0.99999
0.99999
0.99999
0.99999
0.99999
0.99999
0.99999
0.99999
0.99999
0.99999
0.99999
0.99999
0.99999
0.99999
0.99999
0.99999
0.99999
0.999988
0.999986
0.999982
0.999973
0.999924
0.999844
0.999487
0.999363
0.945899
0.0426923
0.000287943
1.92659e-06
1.61154e-06
1.61021e-06
1.56338e-06
1.56053e-06
1.52983e-06
1.51546e-06
1.48692e-06
1.47363e-06
1.44588e-06
1.43051e-06
1.40703e-06
1.39004e-06
1.36873e-06
1.34895e-06
1.33115e-06
1.31118e-06
1.28978e-06
1.2718e-06
1.25203e-06
1.23157e-06
1.21304e-06
1.19589e-06
1.17641e-06
1.14338e-06
1.09487e-06
1.03685e-06
9.62448e-07
8.66922e-07
7.57713e-07
6.57011e-07
6.17456e-07
6.22707e-07
6.23119e-07
0.99999
0.99999
0.99999
0.99999
0.99999
0.99999
0.99999
0.99999
0.99999
0.99999
0.99999
0.99999
0.99999
0.99999
0.99999
0.99999
0.99999
0.99999
0.99999
0.99999
0.99999
0.99999
0.99999
0.99999
0.99999
0.99999
0.99999
0.99999
0.99999
0.99999
0.99999
0.99999
0.99999
0.99999
0.99999
0.99999
0.99999
0.99999
0.99999
0.99999
0.99999
0.99999
0.99999
0.99999
0.99999
0.99999
0.99999
0.99999
0.99999
0.99999
0.999989
0.999986
0.999981
0.999973
0.999966
0.99995
0.9999
0.999494
0.997784
0.937971
0.0496437
0.000323097
1.98041e-06
1.69435e-06
1.68447e-06
1.62846e-06
1.62961e-06
1.58339e-06
1.57593e-06
1.5378e-06
1.52237e-06
1.49057e-06
1.47061e-06
1.44238e-06
1.41877e-06
1.39459e-06
1.37159e-06
1.3473e-06
1.32442e-06
1.3017e-06
1.27787e-06
1.2556e-06
1.23356e-06
1.21189e-06
1.1909e-06
1.1706e-06
1.14895e-06
1.12365e-06
1.09321e-06
1.05218e-06
9.83862e-07
8.70152e-07
7.21843e-07
6.22209e-07
6.22141e-07
6.23062e-07
0.99999
0.99999
0.99999
0.99999
0.99999
0.99999
0.99999
0.99999
0.99999
0.99999
0.99999
0.99999
0.99999
0.99999
0.99999
0.99999
0.99999
0.99999
0.99999
0.99999
0.99999
0.99999
0.99999
0.99999
0.99999
0.99999
0.99999
0.99999
0.99999
0.99999
0.99999
0.99999
0.99999
0.99999
0.99999
0.99999
0.99999
0.99999
0.99999
0.99999
0.99999
0.99999
0.99999
0.99999
0.99999
0.99999
0.99999
0.99999
0.99999
0.99999
0.99999
0.999986
0.999981
0.999974
0.99997
0.999952
0.999882
0.999524
0.99837
0.94307
0.0464191
0.000173328
1.77675e-06
1.706e-06
1.68821e-06
1.62689e-06
1.63022e-06
1.58602e-06
1.57816e-06
1.54244e-06
1.52507e-06
1.49418e-06
1.47374e-06
1.44511e-06
1.42072e-06
1.39733e-06
1.37369e-06
1.34734e-06
1.32529e-06
1.30179e-06
1.27619e-06
1.25501e-06
1.23206e-06
1.20818e-06
1.18815e-06
1.16657e-06
1.14251e-06
1.11853e-06
1.08902e-06
1.04928e-06
9.84457e-07
8.7218e-07
7.25123e-07
6.21783e-07
6.22661e-07
6.22608e-07
0.99999
0.99999
0.99999
0.99999
0.99999
0.99999
0.99999
0.99999
0.99999
0.99999
0.99999
0.99999
0.99999
0.99999
0.99999
0.99999
0.99999
0.99999
0.99999
0.99999
0.99999
0.99999
0.99999
0.99999
0.99999
0.99999
0.99999
0.99999
0.99999
0.99999
0.99999
0.99999
0.99999
0.99999
0.99999
0.99999
0.99999
0.99999
0.99999
0.99999
0.99999
0.99999
0.99999
0.99999
0.99999
0.99999
0.99999
0.99999
0.99999
0.99999
0.99999
0.999988
0.999982
0.999976
0.999967
0.999935
0.999921
0.99968
0.999223
0.936756
0.0329734
1.76221e-05
1.85454e-06
1.76164e-06
1.71451e-06
1.65389e-06
1.6573e-06
1.6124e-06
1.60647e-06
1.56653e-06
1.54987e-06
1.51346e-06
1.4911e-06
1.4605e-06
1.4361e-06
1.4103e-06
1.3851e-06
1.35887e-06
1.33483e-06
1.31073e-06
1.28745e-06
1.26558e-06
1.24163e-06
1.21697e-06
1.19337e-06
1.17019e-06
1.14644e-06
1.12009e-06
1.09086e-06
1.0564e-06
9.97415e-07
8.91664e-07
7.42193e-07
6.2902e-07
6.22108e-07
6.24778e-07
0.99999
0.99999
0.99999
0.99999
0.99999
0.99999
0.99999
0.99999
0.99999
0.99999
0.99999
0.99999
0.99999
0.99999
0.99999
0.99999
0.99999
0.99999
0.99999
0.99999
0.99999
0.99999
0.99999
0.99999
0.99999
0.99999
0.99999
0.99999
0.99999
0.99999
0.99999
0.99999
0.99999
0.99999
0.99999
0.99999
0.99999
0.99999
0.99999
0.99999
0.99999
0.99999
0.99999
0.99999
0.99999
0.99999
0.99999
0.99999
0.99999
0.99999
0.999989
0.999985
0.99998
0.999971
0.999952
0.999908
0.999907
0.999739
0.999669
0.923374
0.0278039
4.61956e-06
7.42913e-06
3.68365e-06
3.41572e-06
2.8912e-06
2.68432e-06
2.31376e-06
2.10491e-06
1.90553e-06
1.81566e-06
1.70359e-06
1.65348e-06
1.59375e-06
1.55439e-06
1.51375e-06
1.47189e-06
1.42716e-06
1.38817e-06
1.3578e-06
1.32184e-06
1.28539e-06
1.26041e-06
1.23565e-06
1.20906e-06
1.17978e-06
1.15173e-06
1.12306e-06
1.09503e-06
1.05978e-06
1.00515e-06
9.04769e-07
7.58165e-07
6.32543e-07
6.22353e-07
6.22796e-07
0.99999
0.99999
0.99999
0.99999
0.99999
0.99999
0.99999
0.99999
0.99999
0.99999
0.99999
0.99999
0.99999
0.99999
0.99999
0.99999
0.99999
0.99999
0.99999
0.99999
0.99999
0.99999
0.99999
0.99999
0.99999
0.99999
0.99999
0.99999
0.99999
0.99999
0.99999
0.99999
0.99999
0.99999
0.99999
0.99999
0.99999
0.99999
0.99999
0.99999
0.99999
0.99999
0.99999
0.99999
0.99999
0.99999
0.99999
0.99999
0.99999
0.99999
0.999985
0.999978
0.999971
0.999958
0.999915
0.999875
0.999861
0.999847
0.999827
0.870154
0.0138694
0.000467176
0.000392198
0.000246112
0.000213723
0.000194124
0.00018144
0.00016731
0.000148999
0.000124957
0.000109538
9.17636e-05
7.71739e-05
6.21178e-05
5.03314e-05
3.84415e-05
2.79865e-05
1.86452e-05
1.24438e-05
8.05789e-06
5.23967e-06
3.44061e-06
2.40195e-06
1.83303e-06
1.55706e-06
1.36396e-06
1.22521e-06
1.14035e-06
1.06446e-06
1.01398e-06
9.63038e-07
8.91644e-07
7.65058e-07
6.39215e-07
6.22551e-07
6.24981e-07
0.999991
0.99999
0.999991
0.999991
0.999991
0.99999
0.99999
0.99999
0.99999
0.99999
0.99999
0.99999
0.99999
0.99999
0.99999
0.99999
0.99999
0.99999
0.99999
0.99999
0.99999
0.99999
0.99999
0.99999
0.99999
0.99999
0.99999
0.99999
0.99999
0.99999
0.99999
0.99999
0.99999
0.99999
0.99999
0.99999
0.99999
0.99999
0.99999
0.99999
0.99999
0.99999
0.99999
0.99999
0.99999
0.99999
0.99999
0.99999
0.99999
0.999989
0.999984
0.999977
0.99997
0.999955
0.999895
0.999874
0.999889
0.999923
0.999929
0.726892
0.0170352
0.00897366
0.00894025
0.00812038
0.00798676
0.00761231
0.00717663
0.00692811
0.00666237
0.00648944
0.00626412
0.00598132
0.00553431
0.0050054
0.00451675
0.0039925
0.00356308
0.00289489
0.00231947
0.00182912
0.00137614
0.00103906
0.000755147
0.000522844
0.000355503
0.000227274
0.000132345
7.6455e-05
4.13324e-05
2.15206e-05
9.30083e-06
4.32892e-06
2.08982e-06
1.16707e-06
7.65249e-07
6.42047e-07
0.999991
0.999991
0.999991
0.999991
0.999991
0.99999
0.99999
0.99999
0.99999
0.99999
0.99999
0.99999
0.99999
0.99999
0.99999
0.99999
0.99999
0.99999
0.99999
0.99999
0.99999
0.99999
0.99999
0.99999
0.99999
0.99999
0.99999
0.99999
0.99999
0.99999
0.99999
0.99999
0.99999
0.99999
0.99999
0.99999
0.99999
0.99999
0.99999
0.99999
0.99999
0.99999
0.99999
0.99999
0.99999
0.99999
0.99999
0.99999
0.99999
0.99999
0.99999
0.999986
0.999981
0.999974
0.999921
0.999858
0.999831
0.999848
0.999892
0.57306
0.0388926
0.0332007
0.0352166
0.0357951
0.0362522
0.0366732
0.0368692
0.0372103
0.0374191
0.0375517
0.0378133
0.0379833
0.0378659
0.0376539
0.0371935
0.0366713
0.035907
0.03481
0.0334431
0.0318419
0.0299178
0.0277008
0.0253303
0.0226805
0.0196802
0.0169178
0.0143842
0.0120113
0.00995045
0.00803022
0.00582019
0.00373924
0.0022052
0.00116874
0.000738191
0.000886608
0.999991
0.999991
0.999991
0.999991
0.999991
0.999991
0.999991
0.99999
0.99999
0.99999
0.99999
0.99999
0.99999
0.99999
0.99999
0.99999
0.99999
0.99999
0.99999
0.99999
0.99999
0.99999
0.99999
0.99999
0.99999
0.99999
0.99999
0.99999
0.99999
0.99999
0.99999
0.99999
0.99999
0.99999
0.99999
0.99999
0.99999
0.99999
0.99999
0.99999
0.99999
0.99999
0.99999
0.99999
0.99999
0.99999
0.99999
0.99999
0.99999
0.99999
0.99999
0.999989
0.999987
0.999977
0.999936
0.999879
0.99986
0.999857
0.999488
0.565617
0.0434243
0.0379492
0.0393797
0.0400737
0.041362
0.0427222
0.0440249
0.0457078
0.047546
0.0495534
0.0517244
0.054124
0.0566977
0.059415
0.062409
0.0657128
0.0692437
0.0730067
0.0769973
0.0812205
0.085723
0.0904312
0.0952951
0.100284
0.105325
0.110345
0.115575
0.12111
0.127034
0.133433
0.140823
0.14977
0.161796
0.181362
0.225742
0.414312
0.999991
0.999991
0.999991
0.999991
0.999991
0.999991
0.999991
0.99999
0.99999
0.99999
0.99999
0.99999
0.99999
0.99999
0.99999
0.99999
0.99999
0.99999
0.99999
0.99999
0.99999
0.99999
0.99999
0.99999
0.99999
0.99999
0.99999
0.99999
0.99999
0.99999
0.99999
0.99999
0.99999
0.99999
0.99999
0.99999
0.99999
0.99999
0.99999
0.99999
0.99999
0.99999
0.99999
0.99999
0.99999
0.99999
0.99999
0.99999
0.99999
0.99999
0.99999
0.999989
0.999987
0.999973
0.999948
0.999913
0.999879
0.999852
0.999849
0.759257
0.0200055
0.00584035
0.00460003
0.00311617
0.00263297
0.002466
0.00250709
0.00260606
0.00268176
0.00274849
0.00283479
0.00290506
0.00298988
0.00308398
0.00323119
0.00339692
0.00365471
0.0038955
0.00399841
0.0040824
0.00423667
0.00438341
0.00446424
0.00447928
0.00452488
0.00457258
0.00442086
0.0041981
0.00398546
0.0036352
0.0030767
0.00246455
0.00177653
0.00106216
0.000602128
0.000274402
0.999992
0.999991
0.999991
0.999991
0.999991
0.999991
0.999991
0.999991
0.99999
0.99999
0.99999
0.99999
0.99999
0.99999
0.99999
0.99999
0.99999
0.99999
0.99999
0.99999
0.99999
0.99999
0.99999
0.99999
0.99999
0.99999
0.99999
0.99999
0.99999
0.99999
0.99999
0.99999
0.99999
0.99999
0.99999
0.99999
0.99999
0.99999
0.99999
0.99999
0.99999
0.99999
0.99999
0.99999
0.99999
0.99999
0.99999
0.99999
0.99999
0.99999
0.99999
0.999989
0.999986
0.999975
0.999956
0.999931
0.999896
0.99979
0.999838
0.881033
0.0132341
0.000258713
0.000213286
0.000145071
0.000138153
0.000132902
0.000123625
0.000115656
0.00011488
0.000113126
0.000116433
0.000115376
0.000107016
0.000106361
0.000102208
9.28724e-05
8.84087e-05
8.35347e-05
7.65469e-05
7.22703e-05
7.03926e-05
6.8366e-05
6.19968e-05
5.0306e-05
4.12681e-05
3.52227e-05
2.85136e-05
2.22582e-05
1.63395e-05
1.16614e-05
7.83708e-06
4.64846e-06
2.78488e-06
1.59574e-06
9.53588e-07
7.0192e-07
0.999992
0.999992
0.999992
0.999992
0.999991
0.999991
0.999991
0.999991
0.999991
0.99999
0.99999
0.99999
0.99999
0.99999
0.99999
0.99999
0.99999
0.99999
0.99999
0.99999
0.99999
0.99999
0.99999
0.99999
0.99999
0.99999
0.99999
0.99999
0.99999
0.99999
0.99999
0.99999
0.99999
0.99999
0.99999
0.99999
0.99999
0.99999
0.99999
0.99999
0.99999
0.99999
0.99999
0.99999
0.99999
0.99999
0.99999
0.99999
0.99999
0.99999
0.99999
0.999988
0.999985
0.999974
0.999958
0.99994
0.999922
0.999716
0.999749
0.938067
0.0347174
8.92225e-06
7.95099e-06
4.90652e-06
4.41978e-06
4.05669e-06
3.85391e-06
3.59083e-06
3.42057e-06
3.23475e-06
3.093e-06
2.92348e-06
2.77408e-06
2.58735e-06
2.40343e-06
2.24879e-06
2.08702e-06
1.95543e-06
1.84135e-06
1.76212e-06
1.69674e-06
1.60602e-06
1.46695e-06
1.38049e-06
1.30426e-06
1.23758e-06
1.18415e-06
1.13143e-06
1.06506e-06
9.83348e-07
8.80099e-07
7.63611e-07
6.59002e-07
6.23087e-07
6.23051e-07
6.252e-07
0.999993
0.999993
0.999992
0.999992
0.999992
0.999992
0.999991
0.999991
0.999991
0.99999
0.99999
0.99999
0.99999
0.99999
0.99999
0.99999
0.99999
0.99999
0.99999
0.99999
0.99999
0.99999
0.99999
0.99999
0.99999
0.99999
0.99999
0.99999
0.99999
0.99999
0.99999
0.99999
0.99999
0.99999
0.99999
0.99999
0.99999
0.99999
0.99999
0.99999
0.99999
0.99999
0.99999
0.99999
0.99999
0.99999
0.99999
0.99999
0.99999
0.99999
0.999989
0.999988
0.999985
0.999978
0.999965
0.999948
0.999916
0.999655
0.999614
0.954758
0.0370373
7.64489e-06
1.8206e-06
1.6396e-06
1.67549e-06
1.65386e-06
1.64013e-06
1.60039e-06
1.588e-06
1.55038e-06
1.53083e-06
1.49793e-06
1.4759e-06
1.4458e-06
1.42319e-06
1.39844e-06
1.37755e-06
1.35516e-06
1.32769e-06
1.29886e-06
1.27851e-06
1.25799e-06
1.23806e-06
1.22023e-06
1.19895e-06
1.17358e-06
1.14553e-06
1.10831e-06
1.05377e-06
9.7538e-07
8.7479e-07
7.574e-07
6.52723e-07
6.194e-07
6.22523e-07
6.23207e-07
0.999994
0.999993
0.999993
0.999993
0.999992
0.999992
0.999992
0.999991
0.999991
0.999991
0.99999
0.99999
0.99999
0.99999
0.99999
0.99999
0.99999
0.99999
0.99999
0.99999
0.99999
0.99999
0.99999
0.99999
0.99999
0.99999
0.99999
0.99999
0.99999
0.99999
0.99999
0.99999
0.99999
0.99999
0.99999
0.99999
0.99999
0.99999
0.99999
0.99999
0.99999
0.99999
0.99999
0.99999
0.99999
0.99999
0.99999
0.99999
0.99999
0.99999
0.999989
0.999988
0.999986
0.999982
0.999971
0.999956
0.999883
0.999584
0.999292
0.961533
0.050982
3.46809e-05
1.73082e-06
1.66982e-06
1.65678e-06
1.63579e-06
1.63539e-06
1.59101e-06
1.57857e-06
1.54353e-06
1.51634e-06
1.48578e-06
1.46066e-06
1.43499e-06
1.41287e-06
1.38847e-06
1.36448e-06
1.33967e-06
1.31465e-06
1.29167e-06
1.26906e-06
1.24702e-06
1.22682e-06
1.20701e-06
1.18747e-06
1.16482e-06
1.13464e-06
1.09441e-06
1.04106e-06
9.69488e-07
8.7206e-07
7.55452e-07
6.50095e-07
6.17156e-07
6.21858e-07
6.22853e-07
0.999995
0.999994
0.999994
0.999993
0.999992
0.999992
0.999992
0.999992
0.999991
0.999991
0.99999
0.99999
0.99999
0.99999
0.99999
0.99999
0.99999
0.99999
0.99999
0.99999
0.99999
0.99999
0.99999
0.99999
0.99999
0.99999
0.99999
0.99999
0.99999
0.99999
0.99999
0.99999
0.99999
0.99999
0.99999
0.99999
0.99999
0.99999
0.99999
0.99999
0.99999
0.99999
0.99999
0.99999
0.99999
0.99999
0.99999
0.99999
0.99999
0.99999
0.999989
0.999988
0.999986
0.999981
0.999971
0.999959
0.999834
0.999503
0.999147
0.953305
0.0511944
3.77099e-05
1.70877e-06
1.67341e-06
1.65358e-06
1.6121e-06
1.61247e-06
1.56841e-06
1.55988e-06
1.51865e-06
1.50164e-06
1.46753e-06
1.44821e-06
1.41991e-06
1.39718e-06
1.37319e-06
1.35059e-06
1.32893e-06
1.30739e-06
1.28624e-06
1.26551e-06
1.24604e-06
1.22577e-06
1.20648e-06
1.18738e-06
1.1646e-06
1.13343e-06
1.08904e-06
1.03119e-06
9.59481e-07
8.66628e-07
7.53875e-07
6.51497e-07
6.18126e-07
6.22358e-07
6.23285e-07
0.999996
0.999995
0.999995
0.999994
0.999993
0.999992
0.999992
0.999992
0.999992
0.999991
0.99999
0.99999
0.99999
0.99999
0.99999
0.99999
0.99999
0.99999
0.99999
0.99999
0.99999
0.99999
0.99999
0.99999
0.99999
0.99999
0.99999
0.99999
0.99999
0.99999
0.99999
0.99999
0.99999
0.99999
0.99999
0.99999
0.99999
0.99999
0.99999
0.99999
0.99999
0.99999
0.99999
0.99999
0.99999
0.99999
0.99999
0.99999
0.99999
0.99999
0.999989
0.999988
0.999986
0.999981
0.999968
0.999948
0.999777
0.999386
0.998563
0.945218
0.0539198
0.00017304
1.67856e-06
1.62778e-06
1.6142e-06
1.56271e-06
1.56142e-06
1.52033e-06
1.51743e-06
1.48288e-06
1.47144e-06
1.44214e-06
1.42691e-06
1.40201e-06
1.38301e-06
1.36037e-06
1.33848e-06
1.32057e-06
1.30136e-06
1.2799e-06
1.26232e-06
1.24351e-06
1.22358e-06
1.20391e-06
1.1844e-06
1.16455e-06
1.1327e-06
1.08625e-06
1.02662e-06
9.53508e-07
8.60779e-07
7.49733e-07
6.48028e-07
6.17418e-07
6.22249e-07
6.23196e-07
0.999997
0.999996
0.999995
0.999995
0.999994
0.999993
0.999993
0.999992
0.999992
0.99999
0.99999
0.99999
0.99999
0.99999
0.99999
0.99999
0.99999
0.99999
0.99999
0.99999
0.99999
0.99999
0.99999
0.99999
0.99999
0.99999
0.99999
0.99999
0.99999
0.99999
0.99999
0.99999
0.99999
0.99999
0.99999
0.99999
0.99999
0.99999
0.99999
0.99999
0.99999
0.99999
0.99999
0.99999
0.99999
0.99999
0.99999
0.99999
0.99999
0.99999
0.999989
0.999988
0.999986
0.999983
0.999973
0.999942
0.999828
0.999334
0.997985
0.942064
0.0579992
0.000539538
2.40903e-06
1.59634e-06
1.59486e-06
1.54546e-06
1.54951e-06
1.51336e-06
1.50605e-06
1.47402e-06
1.46194e-06
1.43468e-06
1.41988e-06
1.39602e-06
1.3757e-06
1.35561e-06
1.33814e-06
1.31795e-06
1.29895e-06
1.28168e-06
1.26291e-06
1.24275e-06
1.22538e-06
1.20729e-06
1.18924e-06
1.1713e-06
1.1403e-06
1.09357e-06
1.03479e-06
9.59826e-07
8.65345e-07
7.56679e-07
6.53902e-07
6.17894e-07
6.22676e-07
6.23502e-07
0.99999
0.99999
0.99999
0.99999
0.99999
0.99999
0.99999
0.99999
0.99999