/*--------------------------------*- C++ -*----------------------------------*\
| =========                 |                                                 |
| \\      /  F ield         | OpenFOAM: The Open Source CFD Toolbox           |
|  \\    /   O peration     | Version:  2.3.0                                 |
|   \\  /    A nd           | Web:      www.OpenFOAM.org                      |
|    \\/     M anipulation  |                                                 |
\*---------------------------------------------------------------------------*/
FoamFile
{
    version     2.0;
    format      ascii;
    class       volScalarField;
    location    "8";
    object      alpha.air;
}
// * * * * * * * * * * * * * * * * * * * * * * * * * * * * * * * * * * * * * //

dimensions      [0 0 0 0 0 0 0];

internalField   nonuniform List<scalar> 
6144
(
0.99999
0.99999
0.99999
0.99999
0.99999
0.99999
0.99999
0.99999
0.99999
0.99999
0.99999
0.99999
0.99999
0.99999
0.99999
0.99999
0.99999
0.99999
0.99999
0.99999
0.99999
0.99999
0.99999
0.99999
0.99999
0.99999
0.99999
0.99999
0.99999
0.99999
0.99999
0.99999
0.99999
0.99999
0.99999
0.99999
0.99999
0.99999
0.99999
0.99999
0.99999
0.99999
0.99999
0.99999
0.99999
0.99999
0.99999
0.99999
0.99999
0.99999
0.999989
0.999986
0.999976
0.999957
0.999932
0.999881
0.999785
0.999368
0.998783
0.953658
0.0404451
0.000203487
7.69119e-07
7.80337e-07
7.86635e-07
7.84811e-07
7.81573e-07
7.81171e-07
7.81935e-07
7.8392e-07
7.85668e-07
7.86531e-07
7.87203e-07
7.88572e-07
7.91191e-07
7.93427e-07
7.93459e-07
7.9238e-07
7.89056e-07
7.83832e-07
7.8099e-07
7.80147e-07
7.80073e-07
7.81254e-07
7.91966e-07
8.40709e-07
8.87019e-07
8.71091e-07
8.30921e-07
7.74974e-07
6.88338e-07
5.63975e-07
4.1329e-07
3.10886e-07
2.99715e-07
2.99682e-07
0.999991
0.999991
0.99999
0.99999
0.99999
0.99999
0.99999
0.99999
0.99999
0.99999
0.99999
0.99999
0.99999
0.99999
0.99999
0.99999
0.99999
0.99999
0.99999
0.99999
0.99999
0.99999
0.99999
0.99999
0.99999
0.99999
0.99999
0.99999
0.99999
0.99999
0.99999
0.99999
0.99999
0.99999
0.99999
0.99999
0.99999
0.99999
0.99999
0.99999
0.99999
0.99999
0.99999
0.99999
0.99999
0.99999
0.99999
0.99999
0.99999
0.99999
0.999989
0.999981
0.999965
0.999945
0.999937
0.999899
0.999787
0.999238
0.998529
0.950511
0.0391065
4.34751e-05
7.69119e-07
7.94469e-07
7.82845e-07
7.76923e-07
7.77383e-07
7.76632e-07
7.75361e-07
7.75181e-07
7.75661e-07
7.76969e-07
7.79006e-07
7.81525e-07
7.81922e-07
7.81538e-07
7.80561e-07
7.7867e-07
7.77421e-07
7.77424e-07
7.77892e-07
7.79154e-07
7.80535e-07
7.81618e-07
7.93593e-07
8.44702e-07
8.86064e-07
8.685e-07
8.37373e-07
7.90041e-07
7.03586e-07
5.77936e-07
4.25748e-07
3.11694e-07
2.99682e-07
2.99584e-07
0.999991
0.999991
0.99999
0.99999
0.99999
0.99999
0.99999
0.99999
0.99999
0.99999
0.99999
0.99999
0.99999
0.99999
0.99999
0.99999
0.99999
0.99999
0.99999
0.99999
0.99999
0.99999
0.99999
0.99999
0.99999
0.99999
0.99999
0.99999
0.99999
0.99999
0.99999
0.99999
0.99999
0.99999
0.99999
0.99999
0.99999
0.99999
0.99999
0.99999
0.99999
0.99999
0.99999
0.99999
0.99999
0.99999
0.99999
0.99999
0.99999
0.99999
0.99999
0.999984
0.99997
0.999949
0.999937
0.999882
0.999862
0.999403
0.999175
0.955941
0.0480787
7.89129e-07
8.50241e-07
8.98885e-07
8.62595e-07
8.39533e-07
8.20413e-07
8.08068e-07
7.99585e-07
7.94189e-07
7.89498e-07
7.85332e-07
7.8303e-07
7.83014e-07
7.83054e-07
7.83462e-07
7.84552e-07
7.84283e-07
7.81989e-07
7.77375e-07
7.7464e-07
7.75431e-07
7.78274e-07
7.86645e-07
8.20385e-07
8.77936e-07
8.86657e-07
8.69518e-07
8.43978e-07
8.05467e-07
7.31757e-07
6.04746e-07
4.41537e-07
3.15094e-07
2.99584e-07
2.99552e-07
0.999991
0.999991
0.999991
0.999991
0.99999
0.99999
0.99999
0.99999
0.99999
0.99999
0.99999
0.99999
0.99999
0.99999
0.99999
0.99999
0.99999
0.99999
0.99999
0.99999
0.99999
0.99999
0.99999
0.99999
0.99999
0.99999
0.99999
0.99999
0.99999
0.99999
0.99999
0.99999
0.99999
0.99999
0.99999
0.99999
0.99999
0.99999
0.99999
0.99999
0.99999
0.99999
0.99999
0.99999
0.99999
0.99999
0.99999
0.99999
0.99999
0.99999
0.99999
0.999989
0.999977
0.999953
0.999934
0.999872
0.999879
0.999515
0.999681
0.935305
0.0505071
7.70504e-07
8.22507e-07
9.01514e-07
7.87769e-07
8.17864e-07
1.15336e-06
9.20974e-07
7.83691e-07
7.83692e-07
7.85352e-07
7.92323e-07
8.08982e-07
8.60817e-07
9.24722e-07
9.11235e-07
8.68004e-07
8.53707e-07
8.41985e-07
8.34766e-07
8.30406e-07
8.2874e-07
8.34796e-07
8.54498e-07
8.80746e-07
8.87761e-07
8.75732e-07
8.582e-07
8.36659e-07
8.04372e-07
7.42334e-07
6.2754e-07
4.65835e-07
3.20403e-07
2.99552e-07
2.99452e-07
0.999991
0.999991
0.999991
0.999991
0.99999
0.99999
0.99999
0.99999
0.99999
0.99999
0.99999
0.99999
0.99999
0.99999
0.99999
0.99999
0.99999
0.99999
0.99999
0.99999
0.99999
0.99999
0.99999
0.99999
0.99999
0.99999
0.99999
0.99999
0.99999
0.99999
0.99999
0.99999
0.99999
0.99999
0.99999
0.99999
0.99999
0.99999
0.99999
0.99999
0.99999
0.99999
0.99999
0.99999
0.99999
0.99999
0.99999
0.99999
0.99999
0.99999
0.99999
0.99999
0.999984
0.999963
0.999938
0.999861
0.999829
0.999645
0.999873
0.856311
0.0119625
3.40039e-05
1.52356e-05
6.55867e-06
5.27733e-06
4.99133e-06
5.93525e-06
6.82389e-06
7.69616e-06
8.18165e-06
8.49369e-06
8.0768e-06
5.268e-06
3.42831e-06
2.96098e-06
2.54936e-06
1.64111e-06
1.00191e-06
8.42107e-07
8.80255e-07
8.7024e-07
8.95297e-07
9.03359e-07
9.04101e-07
8.82193e-07
8.61355e-07
8.53957e-07
8.43901e-07
8.2826e-07
7.99175e-07
7.41436e-07
6.32134e-07
4.71653e-07
3.26394e-07
2.99451e-07
2.99445e-07
0.999991
0.999991
0.999991
0.999991
0.999991
0.99999
0.99999
0.99999
0.99999
0.99999
0.99999
0.99999
0.99999
0.99999
0.99999
0.99999
0.99999
0.99999
0.99999
0.99999
0.99999
0.99999
0.99999
0.99999
0.99999
0.99999
0.99999
0.99999
0.99999
0.99999
0.99999
0.99999
0.99999
0.99999
0.99999
0.99999
0.99999
0.99999
0.99999
0.99999
0.99999
0.99999
0.99999
0.99999
0.99999
0.99999
0.99999
0.99999
0.99999
0.99999
0.99999
0.99999
0.999988
0.999962
0.999903
0.999841
0.999849
0.999781
0.99999
0.741953
0.00679482
0.00140174
0.00110575
0.000799999
0.000749312
0.000754129
0.000861404
0.00101219
0.00114135
0.00118864
0.00115989
0.000948214
0.000679639
0.000600814
0.000601232
0.000602676
0.000472319
0.000307622
0.000170833
8.19182e-05
4.07741e-05
2.05819e-05
9.88707e-06
4.24666e-06
1.74575e-06
8.92594e-07
6.62655e-07
4.99954e-07
5.60659e-07
5.65746e-07
5.12232e-07
4.37288e-07
3.21393e-07
2.99451e-07
2.99445e-07
2.99326e-07
0.999991
0.999991
0.999991
0.999991
0.999991
0.999991
0.99999
0.99999
0.99999
0.99999
0.99999
0.99999
0.99999
0.99999
0.99999
0.99999
0.99999
0.99999
0.99999
0.99999
0.99999
0.99999
0.99999
0.99999
0.99999
0.99999
0.99999
0.99999
0.99999
0.99999
0.99999
0.99999
0.99999
0.99999
0.99999
0.99999
0.99999
0.99999
0.99999
0.99999
0.99999
0.99999
0.99999
0.99999
0.99999
0.99999
0.99999
0.99999
0.99999
0.99999
0.99999
0.999989
0.999987
0.999972
0.999928
0.999845
0.999784
0.999748
0.99999
0.590744
0.0137669
0.00980393
0.00925095
0.00838298
0.00851823
0.00945157
0.00994312
0.00902014
0.00839612
0.0104416
0.0120955
0.011745
0.00814901
0.00726973
0.00735077
0.00781569
0.00805364
0.00615171
0.00429214
0.0032852
0.00285418
0.00245888
0.00191018
0.00145548
0.000904934
0.000395759
0.000148205
5.43452e-05
1.77637e-05
1.12872e-05
9.56106e-06
7.23645e-06
4.64493e-06
1.61485e-06
5.32932e-07
2.99445e-07
0.999991
0.999991
0.999991
0.999991
0.999991
0.999991
0.999991
0.99999
0.99999
0.99999
0.99999
0.99999
0.99999
0.99999
0.99999
0.99999
0.99999
0.99999
0.99999
0.99999
0.99999
0.99999
0.99999
0.99999
0.99999
0.99999
0.99999
0.99999
0.99999
0.99999
0.99999
0.99999
0.99999
0.99999
0.99999
0.99999
0.99999
0.99999
0.99999
0.99999
0.99999
0.99999
0.99999
0.99999
0.99999
0.99999
0.99999
0.99999
0.99999
0.99999
0.99999
0.999989
0.999987
0.999979
0.999952
0.99986
0.999796
0.999727
0.99999
0.527233
0.0246833
0.0197349
0.018928
0.0184761
0.0184072
0.0187868
0.0204206
0.0216716
0.0221624
0.0223312
0.0217212
0.0192342
0.0174557
0.0170218
0.0169482
0.0164258
0.0155689
0.0158127
0.0149415
0.0130446
0.0126172
0.0128418
0.0130103
0.0128989
0.0108137
0.0081739
0.00646975
0.00502286
0.00320842
0.00145236
0.000347821
3.20114e-07
3.20114e-07
3.20114e-07
3.20114e-07
0.00082425
0.999992
0.999991
0.999991
0.999991
0.999991
0.999991
0.999991
0.999991
0.99999
0.99999
0.99999
0.99999
0.99999
0.99999
0.99999
0.99999
0.99999
0.99999
0.99999
0.99999
0.99999
0.99999
0.99999
0.99999
0.99999
0.99999
0.99999
0.99999
0.99999
0.99999
0.99999
0.99999
0.99999
0.99999
0.99999
0.99999
0.99999
0.99999
0.99999
0.99999
0.99999
0.99999
0.99999
0.99999
0.99999
0.99999
0.99999
0.99999
0.99999
0.99999
0.99999
0.999988
0.999984
0.99997
0.999947
0.999899
0.999848
0.999745
0.99999
0.638829
0.0139816
0.00800771
0.00744777
0.00512158
0.0039656
0.00335188
0.00288654
0.00249747
0.00225543
0.00198095
0.00120237
0.000850074
0.000808821
0.000941881
0.00096862
0.000951129
0.000928706
0.000909847
0.000917334
0.000911405
0.000907613
0.00099029
0.00105546
0.00104966
0.00095263
0.000812197
0.000709634
0.000585271
0.000488595
0.000372713
0.000258045
0.000180551
0.000104141
4.35334e-05
1.39281e-05
4.34161e-06
0.999992
0.999991
0.999991
0.999991
0.999991
0.999991
0.999991
0.999991
0.999991
0.99999
0.99999
0.99999
0.99999
0.99999
0.99999
0.99999
0.99999
0.99999
0.99999
0.99999
0.99999
0.99999
0.99999
0.99999
0.99999
0.99999
0.99999
0.99999
0.99999
0.99999
0.99999
0.99999
0.99999
0.99999
0.99999
0.99999
0.99999
0.99999
0.99999
0.99999
0.99999
0.99999
0.99999
0.99999
0.99999
0.99999
0.99999
0.99999
0.99999
0.99999
0.999989
0.999987
0.999979
0.999957
0.999928
0.99989
0.999872
0.999673
0.999886
0.79405
0.00518492
0.000617657
0.000406175
0.00014213
7.32574e-05
3.62725e-05
2.22692e-05
1.1889e-05
6.28807e-06
2.79773e-06
9.28442e-07
4.78623e-07
3.04346e-07
3.00966e-07
3.00966e-07
3.00966e-07
3.00966e-07
3.00966e-07
3.00966e-07
3.00966e-07
3.00966e-07
3.00966e-07
3.00966e-07
3.00966e-07
3.00967e-07
3.00968e-07
3.25996e-07
3.00976e-07
3.00976e-07
3.00976e-07
3.00976e-07
3.0288e-07
3.22719e-07
3.20843e-07
2.99795e-07
2.98752e-07
0.999992
0.999991
0.999991
0.999991
0.999991
0.999991
0.999991
0.999991
0.999991
0.99999
0.99999
0.99999
0.99999
0.99999
0.99999
0.99999
0.99999
0.99999
0.99999
0.99999
0.99999
0.99999
0.99999
0.99999
0.99999
0.99999
0.99999
0.99999
0.99999
0.99999
0.99999
0.99999
0.99999
0.99999
0.99999
0.99999
0.99999
0.99999
0.99999
0.99999
0.99999
0.99999
0.99999
0.99999
0.99999
0.99999
0.99999
0.99999
0.99999
0.99999
0.999989
0.999988
0.999975
0.999932
0.999902
0.999889
0.999871
0.999532
0.999765
0.910709
0.0216086
8.01284e-06
1.95635e-06
4.05243e-07
8.07413e-07
7.149e-07
7.65155e-07
7.73029e-07
7.90181e-07
8.02157e-07
8.08516e-07
8.07104e-07
7.89521e-07
7.68794e-07
7.58996e-07
7.52738e-07
7.50834e-07
7.53699e-07
7.60742e-07
7.74169e-07
7.9587e-07
8.26203e-07
8.56901e-07
8.70458e-07
8.47831e-07
8.13106e-07
7.75624e-07
7.0704e-07
6.11826e-07
5.09362e-07
4.13983e-07
3.44607e-07
3.12995e-07
3.00476e-07
2.98626e-07
2.98718e-07
0.999995
0.999993
0.999993
0.999993
0.999992
0.999992
0.999991
0.999991
0.999991
0.999991
0.99999
0.99999
0.99999
0.99999
0.99999
0.99999
0.99999
0.99999
0.99999
0.99999
0.99999
0.99999
0.99999
0.99999
0.99999
0.99999
0.99999
0.99999
0.99999
0.99999
0.99999
0.99999
0.99999
0.99999
0.99999
0.99999
0.99999
0.99999
0.99999
0.99999
0.99999
0.99999
0.99999
0.99999
0.99999
0.99999
0.99999
0.99999
0.99999
0.99999
0.999989
0.999988
0.999982
0.999954
0.99991
0.999877
0.999873
0.999437
0.999649
0.964694
0.0447049
5.09475e-07
8.86538e-07
4.67472e-07
6.54929e-07
7.20713e-07
7.19894e-07
7.26662e-07
7.36584e-07
7.47523e-07
7.61324e-07
7.78789e-07
7.89084e-07
7.87128e-07
7.72919e-07
7.45579e-07
7.24206e-07
7.1276e-07
7.06998e-07
7.07149e-07
7.11447e-07
7.23503e-07
7.55635e-07
8.18082e-07
8.55263e-07
8.12261e-07
7.56247e-07
6.99185e-07
6.16264e-07
5.12904e-07
4.10239e-07
3.32198e-07
2.98599e-07
2.98502e-07
2.98594e-07
2.98626e-07
0.999995
0.999994
0.999994
0.999994
0.999994
0.999994
0.999994
0.999993
0.999992
0.999991
0.99999
0.99999
0.99999
0.99999
0.99999
0.99999
0.99999
0.99999
0.99999
0.99999
0.99999
0.99999
0.99999
0.99999
0.99999
0.99999
0.99999
0.99999
0.99999
0.99999
0.99999
0.99999
0.99999
0.99999
0.99999
0.99999
0.99999
0.99999
0.99999
0.99999
0.99999
0.99999
0.99999
0.99999
0.99999
0.99999
0.99999
0.99999
0.99999
0.99999
0.999989
0.999988
0.999987
0.999975
0.999939
0.999903
0.999839
0.999319
0.99946
0.966618
0.0596867
5.09474e-07
5.20854e-07
6.62989e-07
6.26994e-07
6.56592e-07
6.73109e-07
6.87156e-07
7.00188e-07
7.10864e-07
7.21154e-07
7.31421e-07
7.40346e-07
7.42525e-07
7.41455e-07
7.37643e-07
7.2903e-07
7.13969e-07
6.98165e-07
6.95351e-07
6.97488e-07
7.02903e-07
7.14379e-07
7.46338e-07
8.10497e-07
8.35483e-07
7.62762e-07
6.86884e-07
6.00271e-07
5.00291e-07
4.00161e-07
3.28284e-07
3.01806e-07
2.98471e-07
2.98506e-07
2.98596e-07
0.999996
0.999995
0.999995
0.999994
0.999994
0.999994
0.999995
0.999995
0.999994
0.999991
0.99999
0.99999
0.99999
0.99999
0.99999
0.99999
0.99999
0.99999
0.99999
0.99999
0.99999
0.99999
0.99999
0.99999
0.99999
0.99999
0.99999
0.99999
0.99999
0.99999
0.99999
0.99999
0.99999
0.99999
0.99999
0.99999
0.99999
0.99999
0.99999
0.99999
0.99999
0.99999
0.99999
0.99999
0.99999
0.99999
0.99999
0.99999
0.99999
0.99999
0.999989
0.999988
0.999987
0.999975
0.999953
0.999929
0.999765
0.999187
0.99931
0.951363
0.0494493
1.34287e-06
4.84187e-07
5.31808e-07
5.4912e-07
5.71172e-07
5.92312e-07
6.0576e-07
6.14243e-07
6.22196e-07
6.32317e-07
6.44786e-07
6.56954e-07
6.66222e-07
6.69219e-07
6.68847e-07
6.67821e-07
6.68068e-07
6.70817e-07
6.77554e-07
6.86543e-07
6.93359e-07
7.00807e-07
7.18285e-07
7.69293e-07
8.23525e-07
7.8699e-07
6.89882e-07
5.89657e-07
4.83252e-07
3.83139e-07
3.20616e-07
3.00935e-07
2.98393e-07
2.98479e-07
2.98518e-07
0.999997
0.999996
0.999996
0.999995
0.999995
0.999995
0.999995
0.999995
0.999995
0.999992
0.99999
0.99999
0.99999
0.99999
0.99999
0.99999
0.99999
0.99999
0.99999
0.99999
0.99999
0.99999
0.99999
0.99999
0.99999
0.99999
0.99999
0.99999
0.99999
0.99999
0.99999
0.99999
0.99999
0.99999
0.99999
0.99999
0.99999
0.99999
0.99999
0.99999
0.99999
0.99999
0.99999
0.99999
0.99999
0.99999
0.99999
0.99999
0.99999
0.99999
0.999989
0.999987
0.999978
0.999962
0.999945
0.999908
0.999656
0.999081
0.998609
0.955796
0.0428721
8.27625e-05
4.82146e-07
5.14297e-07
5.09952e-07
5.09537e-07
5.07809e-07
5.0307e-07
4.97601e-07
4.96704e-07
4.97942e-07
5.02426e-07
5.11049e-07
5.22633e-07
5.34854e-07
5.4799e-07
5.65602e-07
5.90526e-07
6.21019e-07
6.51876e-07
6.76639e-07
6.90885e-07
6.99182e-07
7.10317e-07
7.47569e-07
8.10221e-07
7.8886e-07
6.87374e-07
5.83982e-07
4.76473e-07
3.79133e-07
3.19732e-07
2.98288e-07
2.98365e-07
2.98408e-07
2.9849e-07
0.999997
0.999997
0.999997
0.999997
0.999997
0.999996
0.999996
0.999996
0.999995
0.999992
0.99999
0.99999
0.99999
0.99999
0.99999
0.99999
0.99999
0.99999
0.99999
0.99999
0.99999
0.99999
0.99999
0.99999
0.99999
0.99999
0.99999
0.99999
0.99999
0.99999
0.99999
0.99999
0.99999
0.99999
0.99999
0.99999
0.99999
0.99999
0.99999
0.99999
0.99999
0.99999
0.99999
0.99999
0.99999
0.99999
0.99999
0.99999
0.99999
0.99999
0.999989
0.999984
0.999976
0.999963
0.999945
0.99985
0.999756
0.999142
0.998857
0.952396
0.0508296
0.000342496
1.05426e-06
3.47063e-07
3.52759e-07
3.58533e-07
3.6288e-07
3.68058e-07
3.74045e-07
3.7934e-07
3.84575e-07
3.92232e-07
4.04611e-07
4.20673e-07
4.36579e-07
4.53267e-07
4.78384e-07
5.2143e-07
5.79771e-07
6.34071e-07
6.71122e-07
6.88578e-07
6.95819e-07
7.0499e-07
7.39615e-07
8.06484e-07
8.08348e-07
7.12956e-07
5.75746e-07
4.72997e-07
3.85002e-07
3.27188e-07
3.03212e-07
2.98386e-07
2.98475e-07
2.98511e-07
0.99999
0.99999
0.99999
0.99999
0.99999
0.99999
0.99999
0.99999
0.99999
0.99999
0.99999
0.99999
0.99999
0.99999
0.99999
0.99999
0.99999
0.99999
0.99999
0.99999
0.99999
0.99999
0.99999
0.99999
0.99999
0.99999
0.99999
0.99999
0.99999
0.99999
0.99999
0.99999
0.99999
0.99999
0.99999
0.99999
0.99999
0.99999
0.99999
0.99999
0.99999
0.99999
0.99999
0.99999
0.99999
0.99999
0.99999
0.99999
0.99999
0.99999
0.99999
0.999987
0.999981
0.99996
0.999935
0.999881
0.999795
0.999083
0.996993
0.945876
0.0615722
0.000492999
1.21338e-06
7.73305e-07
7.76031e-07
7.75431e-07
7.74663e-07
7.74179e-07
7.74118e-07
7.74224e-07
7.74383e-07
7.74628e-07
7.74916e-07
7.75117e-07
7.75334e-07
7.7541e-07
7.75602e-07
7.75831e-07
7.76026e-07
7.76572e-07
7.76452e-07
7.76799e-07
7.76414e-07
7.76418e-07
7.79505e-07
7.93146e-07
8.29023e-07
8.70199e-07
8.65054e-07
8.06692e-07
7.02288e-07
5.55665e-07
4.04874e-07
3.09571e-07
2.99682e-07
2.99584e-07
0.999991
0.999991
0.999991
0.999991
0.99999
0.99999
0.99999
0.99999
0.99999
0.99999
0.99999
0.99999
0.99999
0.99999
0.99999
0.99999
0.99999
0.99999
0.99999
0.99999
0.99999
0.99999
0.99999
0.99999
0.99999
0.99999
0.99999
0.99999
0.99999
0.99999
0.99999
0.99999
0.99999
0.99999
0.99999
0.99999
0.99999
0.99999
0.99999
0.99999
0.99999
0.99999
0.99999
0.99999
0.99999
0.99999
0.99999
0.99999
0.99999
0.99999
0.99999
0.999984
0.999974
0.999958
0.999942
0.999898
0.999786
0.999185
0.998236
0.947336
0.0457015
7.29038e-05
7.69119e-07
7.92455e-07
7.82891e-07
7.743e-07
7.72841e-07
7.7282e-07
7.72841e-07
7.72914e-07
7.73451e-07
7.74536e-07
7.75951e-07
7.76389e-07
7.75098e-07
7.74955e-07
7.74977e-07
7.74955e-07
7.74977e-07
7.7506e-07
7.74903e-07
7.7544e-07
7.76064e-07
7.76617e-07
7.80466e-07
7.95557e-07
8.28214e-07
8.6055e-07
8.60442e-07
8.39051e-07
7.83599e-07
6.52441e-07
4.58828e-07
3.14459e-07
2.99585e-07
2.99552e-07
0.999991
0.999992
0.999992
0.999991
0.999991
0.999991
0.99999
0.99999
0.99999
0.99999
0.99999
0.99999
0.99999
0.99999
0.99999
0.99999
0.99999
0.99999
0.99999
0.99999
0.99999
0.99999
0.99999
0.99999
0.99999
0.99999
0.99999
0.99999
0.99999
0.99999
0.99999
0.99999
0.99999
0.99999
0.99999
0.99999
0.99999
0.99999
0.99999
0.99999
0.99999
0.99999
0.99999
0.99999
0.99999
0.99999
0.99999
0.99999
0.99999
0.99999
0.99999
0.999986
0.999975
0.99996
0.99995
0.99987
0.999846
0.999385
0.999051
0.951345
0.0393405
7.70503e-07
9.43726e-07
9.14676e-07
8.44701e-07
8.12704e-07
8.02314e-07
7.97164e-07
7.93562e-07
7.8892e-07
7.83656e-07
7.79837e-07
7.78007e-07
7.78403e-07
7.79076e-07
7.80348e-07
7.82088e-07
7.81915e-07
7.80251e-07
7.74628e-07
7.74472e-07
7.74508e-07
7.74476e-07
7.75968e-07
7.88047e-07
8.15905e-07
8.48377e-07
8.6772e-07
8.64525e-07
8.50892e-07
8.24595e-07
7.38018e-07
5.46288e-07
3.44714e-07
2.99553e-07
2.99452e-07
0.999992
0.999992
0.999992
0.999992
0.999992
0.999991
0.999991
0.99999
0.99999
0.99999
0.99999
0.99999
0.99999
0.99999
0.99999
0.99999
0.99999
0.99999
0.99999
0.99999
0.99999
0.99999
0.99999
0.99999
0.99999
0.99999
0.99999
0.99999
0.99999
0.99999
0.99999
0.99999
0.99999
0.99999
0.99999
0.99999
0.99999
0.99999
0.99999
0.99999
0.99999
0.99999
0.99999
0.99999
0.99999
0.99999
0.99999
0.99999
0.99999
0.99999
0.99999
0.999989
0.999978
0.999964
0.999938
0.999833
0.999877
0.999449
0.999624
0.944341
0.0311721
7.70503e-07
2.69072e-06
8.22109e-07
8.24219e-07
7.77463e-07
7.72465e-07
7.73813e-07
7.86327e-07
8.03086e-07
8.27717e-07
8.40331e-07
8.44585e-07
8.74878e-07
9.28158e-07
9.39729e-07
9.09343e-07
8.62282e-07
8.46849e-07
8.36344e-07
8.22675e-07
8.21146e-07
8.25333e-07
8.33867e-07
8.53328e-07
8.66895e-07
8.67239e-07
8.63877e-07
8.59343e-07
8.52093e-07
8.37576e-07
7.72289e-07
5.98468e-07
3.79281e-07
2.99453e-07
2.99445e-07
0.999991
0.999991
0.999992
0.999992
0.999992
0.999992
0.999992
0.999991
0.99999
0.99999
0.99999
0.99999
0.99999
0.99999
0.99999
0.99999
0.99999
0.99999
0.99999
0.99999
0.99999
0.99999
0.99999
0.99999
0.99999
0.99999
0.99999
0.99999
0.99999
0.99999
0.99999
0.99999
0.99999
0.99999
0.99999
0.99999
0.99999
0.99999
0.99999
0.99999
0.99999
0.99999
0.99999
0.99999
0.99999
0.99999
0.99999
0.99999
0.99999
0.99999
0.99999
0.999989
0.999986
0.999973
0.999884
0.999756
0.999741
0.999734
0.999877
0.872406
0.0105251
0.000168967
0.000131878
5.67426e-05
4.32586e-05
3.72457e-05
3.77847e-05
4.048e-05
4.35079e-05
4.69834e-05
5.01123e-05
5.1565e-05
5.01311e-05
2.96154e-05
1.89294e-05
1.26315e-05
7.96138e-06
4.55297e-06
2.21679e-06
1.01601e-06
8.22757e-07
8.70693e-07
8.37114e-07
8.5394e-07
8.60735e-07
8.61724e-07
8.58071e-07
8.54827e-07
8.52835e-07
8.52851e-07
8.49696e-07
7.89016e-07
6.28441e-07
4.15722e-07
3.00456e-07
2.99326e-07
0.999992
0.999991
0.999991
0.999991
0.999992
0.999992
0.999992
0.999991
0.999991
0.99999
0.99999
0.99999
0.99999
0.99999
0.99999
0.99999
0.99999
0.99999
0.99999
0.99999
0.99999
0.99999
0.99999
0.99999
0.99999
0.99999
0.99999
0.99999
0.99999
0.99999
0.99999
0.99999
0.99999
0.99999
0.99999
0.99999
0.99999
0.99999
0.99999
0.99999
0.99999
0.99999
0.99999
0.99999
0.99999
0.99999
0.99999
0.99999
0.99999
0.99999
0.999989
0.999988
0.999985
0.999937
0.999826
0.999815
0.999814
0.999887
0.99999
0.742945
0.0135478
0.00607834
0.00593601
0.00490643
0.00474782
0.00474612
0.00473612
0.00476977
0.00518836
0.005617
0.00588235
0.00601904
0.00505212
0.00371905
0.00316128
0.00281054
0.00241234
0.00192888
0.0013808
0.00078221
0.000373225
0.000166457
6.52393e-05
2.21642e-05
4.99734e-06
1.38205e-06
1.34171e-06
1.41654e-06
1.0478e-06
6.9253e-07
7.07724e-07
6.95931e-07
6.14514e-07
3.25227e-07
2.99326e-07
2.9932e-07
0.999992
0.999991
0.999991
0.999991
0.999991
0.999992
0.999992
0.999992
0.999991
0.99999
0.99999
0.99999
0.99999
0.99999
0.99999
0.99999
0.99999
0.99999
0.99999
0.99999
0.99999
0.99999
0.99999
0.99999
0.99999
0.99999
0.99999
0.99999
0.99999
0.99999
0.99999
0.99999
0.99999
0.99999
0.99999
0.99999
0.99999
0.99999
0.99999
0.99999
0.99999
0.99999
0.99999
0.99999
0.99999
0.99999
0.99999
0.99999
0.99999
0.99999
0.999989
0.999987
0.999986
0.999969
0.999904
0.999744
0.999705
0.999696
0.99999
0.573851
0.0388124
0.032727
0.03413
0.0338505
0.0337627
0.0343291
0.0363408
0.0401224
0.0421459
0.042466
0.0419705
0.0382571
0.0357155
0.0354667
0.0357376
0.0369441
0.0375774
0.0369088
0.0331283
0.0282552
0.023231
0.0190787
0.0162826
0.0145097
0.0108211
0.0067884
0.00384274
0.00165999
0.000651131
0.000450734
0.000482129
0.000499672
0.000447276
0.000288179
0.000259882
0.000267949
0.999992
0.999991
0.999991
0.999991
0.999991
0.999992
0.999992
0.999992
0.999991
0.999991
0.99999
0.99999
0.99999
0.99999
0.99999
0.99999
0.99999
0.99999
0.99999
0.99999
0.99999
0.99999
0.99999
0.99999
0.99999
0.99999
0.99999
0.99999
0.99999
0.99999
0.99999
0.99999
0.99999
0.99999
0.99999
0.99999
0.99999
0.99999
0.99999
0.99999
0.99999
0.99999
0.99999
0.99999
0.99999
0.99999
0.99999
0.99999
0.99999
0.99999
0.999989
0.999986
0.999985
0.999974
0.99995
0.99978
0.999723
0.999674
0.99999
0.543761
0.0531592
0.0463056
0.0475961
0.0476643
0.0488747
0.0516458
0.0561736
0.0605316
0.0618101
0.0618012
0.0611791
0.0604652
0.0604692
0.0634142
0.0709556
0.0779144
0.0824721
0.0855039
0.0882201
0.0905948
0.092829
0.0973394
0.105712
0.115125
0.123332
0.129872
0.134634
0.137722
0.140652
0.144
0.148725
0.156816
0.169624
0.191407
0.238393
0.423811
0.999992
0.999992
0.999991
0.999991
0.999991
0.999991
0.999992
0.999992
0.999992
0.999991
0.99999
0.99999
0.99999
0.99999
0.99999
0.99999
0.99999
0.99999
0.99999
0.99999
0.99999
0.99999
0.99999
0.99999
0.99999
0.99999
0.99999
0.99999
0.99999
0.99999
0.99999
0.99999
0.99999
0.99999
0.99999
0.99999
0.99999
0.99999
0.99999
0.99999
0.99999
0.99999
0.99999
0.99999
0.99999
0.99999
0.99999
0.99999
0.99999
0.99999
0.999989
0.999985
0.999985
0.999969
0.999929
0.999891
0.999801
0.999669
0.99999
0.720587
0.0289521
0.0111008
0.00803696
0.00478954
0.00346379
0.00281926
0.00265129
0.0025898
0.00249019
0.00254716
0.00228399
0.00213464
0.00213787
0.00245965
0.00313789
0.00355854
0.00392593
0.00423949
0.00444816
0.00491262
0.00542302
0.0057485
0.00589779
0.00601733
0.00661786
0.00750178
0.0074822
0.00719707
0.00714918
0.00732277
0.0074987
0.00765058
0.00681321
0.00515861
0.00290308
0.000409362
0.999992
0.999993
0.999992
0.999992
0.999991
0.999991
0.999992
0.999992
0.999992
0.999991
0.99999
0.99999
0.99999
0.99999
0.99999
0.99999
0.99999
0.99999
0.99999
0.99999
0.99999
0.99999
0.99999
0.99999
0.99999
0.99999
0.99999
0.99999
0.99999
0.99999
0.99999
0.99999
0.99999
0.99999
0.99999
0.99999
0.99999
0.99999
0.99999
0.99999
0.99999
0.99999
0.99999
0.99999
0.99999
0.99999
0.99999
0.99999
0.99999
0.99999
0.999988
0.999984
0.999983
0.999969
0.999918
0.999851
0.999753
0.999704
0.999966
0.867592
0.0114428
0.000403548
0.000205186
3.98787e-05
1.87852e-05
1.01827e-05
8.25148e-06
7.38663e-06
7.36692e-06
8.57254e-06
1.02333e-05
1.06404e-05
1.02957e-05
9.94507e-06
9.83771e-06
1.08745e-05
1.4275e-05
1.68227e-05
1.80785e-05
1.96929e-05
2.19584e-05
2.23371e-05
2.23735e-05
2.50545e-05
2.48635e-05
2.40418e-05
1.99425e-05
1.61154e-05
1.36431e-05
1.23032e-05
1.15329e-05
1.149e-05
8.92715e-06
4.79438e-06
1.73687e-06
2.98821e-07
0.999993
0.999992
0.999992
0.999992
0.999992
0.999992
0.999992
0.999993
0.999993
0.999992
0.999991
0.99999
0.99999
0.99999
0.99999
0.99999
0.99999
0.99999
0.99999
0.99999
0.99999
0.99999
0.99999
0.99999
0.99999
0.99999
0.99999
0.99999
0.99999
0.99999
0.99999
0.99999
0.99999
0.99999
0.99999
0.99999
0.99999
0.99999
0.99999
0.99999
0.99999
0.99999
0.99999
0.99999
0.99999
0.99999
0.99999
0.99999
0.99999
0.999989
0.999987
0.999983
0.99998
0.999971
0.999919
0.999841
0.999754
0.999579
0.999802
0.943729
0.0527161
5.09475e-07
3.98798e-06
3.42284e-07
7.41058e-07
7.04632e-07
7.04725e-07
7.05084e-07
7.09031e-07
7.09094e-07
7.10896e-07
7.15985e-07
7.22893e-07
7.23785e-07
7.16247e-07
7.00214e-07
6.99773e-07
6.99726e-07
7.06424e-07
7.20993e-07
7.41164e-07
7.59575e-07
7.79122e-07
8.16733e-07
8.58089e-07
8.84462e-07
8.6105e-07
7.94398e-07
6.80646e-07
5.58739e-07
4.44259e-07
3.63844e-07
3.38563e-07
3.41181e-07
3.33572e-07
2.98709e-07
0.999995
0.999993
0.999992
0.999992
0.999992
0.999991
0.999992
0.999993
0.999993
0.999993
0.999991
0.99999
0.99999
0.99999
0.99999
0.99999
0.99999
0.99999
0.99999
0.99999
0.99999
0.99999
0.99999
0.99999
0.99999
0.99999
0.99999
0.99999
0.99999
0.99999
0.99999
0.99999
0.99999
0.99999
0.99999
0.99999
0.99999
0.99999
0.99999
0.99999
0.99999
0.99999
0.99999
0.99999
0.99999
0.99999
0.99999
0.99999
0.99999
0.999989
0.999986
0.999981
0.999977
0.999974
0.999946
0.999894
0.999862
0.999383
0.99951
0.961939
0.0476196
5.09474e-07
6.91429e-07
4.2702e-07
6.89649e-07
8.07449e-07
8.0666e-07
8.13264e-07
8.13208e-07
8.07126e-07
8.03198e-07
8.0286e-07
7.9957e-07
7.87844e-07
7.64685e-07
7.36856e-07
7.15699e-07
7.00466e-07
6.87383e-07
6.82789e-07
6.85919e-07
6.93503e-07
7.06531e-07
7.37986e-07
7.84578e-07
8.13577e-07
7.9988e-07
7.46276e-07
6.74423e-07
5.50879e-07
4.25512e-07
3.31862e-07
2.99959e-07
2.98571e-07
2.98576e-07
2.98683e-07
0.999995
0.999994
0.999993
0.999993
0.999992
0.999991
0.999992
0.999993
0.999994
0.999994
0.999991
0.99999
0.99999
0.99999
0.99999
0.99999
0.99999
0.99999
0.99999
0.99999
0.99999
0.99999
0.99999
0.99999
0.99999
0.99999
0.99999
0.99999
0.99999
0.99999
0.99999
0.99999
0.99999
0.99999
0.99999
0.99999
0.99999
0.99999
0.99999
0.99999
0.99999
0.99999
0.99999
0.99999
0.99999
0.99999
0.99999
0.99999
0.99999
0.999989
0.999986
0.999981
0.999976
0.999963
0.999956
0.999931
0.999809
0.999295
0.998993
0.967166
0.0584343
5.09474e-07
6.87721e-07
6.04797e-07
6.10582e-07
6.7592e-07
7.33817e-07
7.64284e-07
7.65716e-07
7.61761e-07
7.54658e-07
7.48507e-07
7.44076e-07
7.38327e-07
7.30761e-07
7.21404e-07
7.07932e-07
6.88729e-07
6.70161e-07
6.66484e-07
6.70733e-07
6.8365e-07
6.96289e-07
7.11803e-07
7.50866e-07
8.0191e-07
7.94877e-07
7.2725e-07
6.16278e-07
5.21593e-07
4.14766e-07
3.2664e-07
2.98469e-07
2.98444e-07
2.9857e-07
2.98575e-07
0.999996
0.999995
0.999995
0.999994
0.999993
0.999992
0.999992
0.999992
0.999994
0.999994
0.999991
0.99999
0.99999
0.99999
0.99999
0.99999
0.99999
0.99999
0.99999
0.99999
0.99999
0.99999
0.99999
0.99999
0.99999
0.99999
0.99999
0.99999
0.99999
0.99999
0.99999
0.99999
0.99999
0.99999
0.99999
0.99999
0.99999
0.99999
0.99999
0.99999
0.99999
0.99999
0.99999
0.99999
0.99999
0.99999
0.99999
0.99999
0.99999
0.999989
0.999987
0.999984
0.999976
0.999956
0.999948
0.999934
0.99974
0.99916
0.99872
0.961841
0.0588719
5.09474e-07
6.12849e-07
6.27845e-07
6.27585e-07
6.28787e-07
6.33223e-07
6.34547e-07
6.33887e-07
6.30436e-07
6.21851e-07
6.14954e-07
6.12993e-07
6.12283e-07
6.11005e-07
6.0772e-07
6.02779e-07
6.03374e-07
6.10009e-07
6.2488e-07
6.44665e-07
6.68966e-07
6.91278e-07
7.05248e-07
7.32267e-07
7.83233e-07
7.92626e-07
7.24363e-07
5.91003e-07
4.83208e-07
3.89463e-07
3.20543e-07
2.98352e-07
2.98473e-07
2.98445e-07
2.98576e-07
0.999996
0.999996
0.999996
0.999996
0.999995
0.999994
0.999993
0.999994
0.999995
0.999994
0.999991
0.99999
0.99999
0.99999
0.99999
0.99999
0.99999
0.99999
0.99999
0.99999
0.99999
0.99999
0.99999
0.99999
0.99999
0.99999
0.99999
0.99999
0.99999
0.99999
0.99999
0.99999
0.99999
0.99999
0.99999
0.99999
0.99999
0.99999
0.99999
0.99999
0.99999
0.99999
0.99999
0.99999
0.99999
0.99999
0.99999
0.99999
0.99999
0.99999
0.999988
0.999984
0.999972
0.999954
0.99994
0.999912
0.999667
0.999005
0.997741
0.951909
0.0644943
0.000210819
4.80196e-07
4.7956e-07
4.47436e-07
4.2374e-07
4.15815e-07
4.18653e-07
4.22789e-07
4.26464e-07
4.29772e-07
4.33921e-07
4.40512e-07
4.49655e-07
4.59725e-07
4.7037e-07
4.83691e-07
5.04812e-07
5.38836e-07
5.83127e-07
6.25866e-07
6.61214e-07
6.90256e-07
7.04609e-07
7.26473e-07
7.75904e-07
7.93077e-07
7.21391e-07
5.83811e-07
4.74121e-07
3.81256e-07
3.15734e-07
2.98356e-07
2.98332e-07
2.9849e-07
2.98445e-07
0.999997
0.999997
0.999997
0.999997
0.999997
0.999997
0.999996
0.999996
0.999996
0.999993
0.99999
0.99999
0.99999
0.99999
0.99999
0.99999
0.99999
0.99999
0.99999
0.99999
0.99999
0.99999
0.99999
0.99999
0.99999
0.99999
0.99999
0.99999
0.99999
0.99999
0.99999
0.99999
0.99999
0.99999
0.99999
0.99999
0.99999
0.99999
0.99999
0.99999
0.99999
0.99999
0.99999
0.99999
0.99999
0.99999
0.99999
0.99999
0.99999
0.99999
0.999988
0.999982
0.999973
0.99996
0.999946
0.999894
0.999739
0.998935
0.996677
0.942175
0.0719949
0.000720562
1.76415e-06
3.45837e-07
3.49633e-07
3.55179e-07
3.57616e-07
3.59718e-07
3.63544e-07
3.69097e-07
3.74622e-07
3.80089e-07
3.87699e-07
3.99915e-07
4.15578e-07
4.30292e-07
4.44612e-07
4.6618e-07
5.05179e-07
5.61115e-07
6.15183e-07
6.55292e-07
6.82791e-07
6.9643e-07
7.19478e-07
7.75167e-07