/*--------------------------------*- C++ -*----------------------------------*\
| =========                 |                                                 |
| \\      /  F ield         | OpenFOAM: The Open Source CFD Toolbox           |
|  \\    /   O peration     | Version:  2.3.0                                 |
|   \\  /    A nd           | Web:      www.OpenFOAM.org                      |
|    \\/     M anipulation  |                                                 |
\*---------------------------------------------------------------------------*/
FoamFile
{
    version     2.0;
    format      ascii;
    class       volScalarField;
    location    "8";
    object      alpha.air;
}
// * * * * * * * * * * * * * * * * * * * * * * * * * * * * * * * * * * * * * //

dimensions      [0 0 0 0 0 0 0];

internalField   nonuniform List<scalar> 
6144
(
0.99999
0.99999
0.99999
0.99999
0.99999
0.99999
0.99999
0.99999
0.99999
0.99999
0.99999
0.99999
0.99999
0.99999
0.99999
0.99999
0.99999
0.99999
0.99999
0.99999
0.99999
0.99999
0.99999
0.99999
0.99999
0.99999
0.99999
0.99999
0.99999
0.99999
0.99999
0.99999
0.99999
0.99999
0.99999
0.99999
0.99999
0.99999
0.99999
0.99999
0.99999
0.99999
0.99999
0.99999
0.99999
0.99999
0.99999
0.99999
0.99999
0.999985
0.99998
0.999982
0.999982
0.999976
0.999972
0.999968
0.999964
0.999959
0.998863
0.948088
0.0336772
0.000206717
9.60808e-07
7.49732e-07
7.53442e-07
7.57884e-07
7.57813e-07
7.57535e-07
7.58889e-07
7.61686e-07
7.66707e-07
7.72891e-07
7.7916e-07
7.87826e-07
7.91142e-07
7.93753e-07
7.95856e-07
7.96406e-07
8.04741e-07
8.20482e-07
8.3281e-07
8.30284e-07
8.29477e-07
8.28909e-07
8.26063e-07
8.21827e-07
8.17398e-07
8.11556e-07
7.81165e-07
5.73791e-07
4.00998e-07
4.00998e-07
4.04922e-07
4.21225e-07
3.70561e-07
3.23207e-07
0.999991
0.999991
0.99999
0.99999
0.99999
0.99999
0.99999
0.99999
0.99999
0.99999
0.99999
0.99999
0.99999
0.99999
0.99999
0.99999
0.99999
0.99999
0.99999
0.99999
0.99999
0.99999
0.99999
0.99999
0.99999
0.99999
0.99999
0.99999
0.99999
0.99999
0.99999
0.99999
0.99999
0.99999
0.99999
0.99999
0.99999
0.99999
0.99999
0.99999
0.99999
0.99999
0.99999
0.99999
0.99999
0.99999
0.99999
0.99999
0.99999
0.999989
0.999988
0.999987
0.999981
0.999965
0.999957
0.999949
0.999943
0.999937
0.999587
0.956177
0.0203005
5.02483e-05
7.47254e-07
7.50097e-07
7.47463e-07
7.47273e-07
7.52041e-07
7.62177e-07
7.70099e-07
7.85808e-07
8.41103e-07
8.61111e-07
8.76578e-07
8.83154e-07
8.85685e-07
8.85654e-07
8.8738e-07
8.91328e-07
8.85787e-07
8.59336e-07
8.52363e-07
8.49669e-07
8.57445e-07
8.47031e-07
8.40303e-07
8.37654e-07
8.321e-07
8.18347e-07
7.69723e-07
5.57998e-07
4.36174e-07
4.38039e-07
4.40626e-07
4.57618e-07
4.09678e-07
3.46111e-07
0.999991
0.999991
0.99999
0.99999
0.99999
0.99999
0.99999
0.99999
0.99999
0.99999
0.99999
0.99999
0.99999
0.99999
0.99999
0.99999
0.99999
0.99999
0.99999
0.99999
0.99999
0.99999
0.99999
0.99999
0.99999
0.99999
0.99999
0.99999
0.99999
0.99999
0.99999
0.99999
0.99999
0.99999
0.99999
0.99999
0.99999
0.99999
0.99999
0.99999
0.99999
0.99999
0.99999
0.99999
0.99999
0.99999
0.99999
0.99999
0.99999
0.999989
0.999987
0.999984
0.999968
0.999946
0.999939
0.999928
0.999926
0.999924
0.99971
0.932157
0.0190295
2.85666e-05
7.47254e-07
7.47255e-07
9.32759e-07
8.59179e-07
7.52085e-07
7.5213e-07
7.61628e-07
8.16059e-07
8.94135e-07
9.298e-07
9.46489e-07
1.07026e-06
1.17236e-06
9.60103e-07
8.87345e-07
9.37876e-07
9.14369e-07
8.68654e-07
8.61006e-07
8.73873e-07
8.73534e-07
8.40864e-07
8.40951e-07
8.40525e-07
8.36064e-07
8.18791e-07
7.48992e-07
5.43115e-07
4.81863e-07
4.78347e-07
4.77113e-07
4.90475e-07
4.51149e-07
3.86625e-07
0.999991
0.999991
0.999991
0.999991
0.99999
0.99999
0.99999
0.99999
0.99999
0.99999
0.99999
0.99999
0.99999
0.99999
0.99999
0.99999
0.99999
0.99999
0.99999
0.99999
0.99999
0.99999
0.99999
0.99999
0.99999
0.99999
0.99999
0.99999
0.99999
0.99999
0.99999
0.99999
0.99999
0.99999
0.99999
0.99999
0.99999
0.99999
0.99999
0.99999
0.99999
0.99999
0.99999
0.99999
0.99999
0.99999
0.99999
0.99999
0.999988
0.999978
0.999976
0.999971
0.99995
0.99993
0.999925
0.999916
0.999922
0.999936
0.999759
0.889397
0.0267079
4.32275e-05
8.53554e-06
4.48197e-06
3.05162e-06
2.29994e-06
2.26721e-06
2.74499e-06
3.13009e-06
3.44591e-06
3.64929e-06
3.84928e-06
4.10661e-06
4.19651e-06
4.0725e-06
3.99945e-06
3.54386e-06
2.42601e-06
1.44923e-06
1.18705e-06
1.17461e-06
8.40533e-07
7.95797e-07
7.95141e-07
7.90633e-07
8.10447e-07
8.02468e-07
7.66056e-07
6.51533e-07
5.4801e-07
5.33452e-07
5.21158e-07
5.14932e-07
5.19945e-07
4.68527e-07
3.91508e-07
0.999991
0.999991
0.999991
0.999991
0.99999
0.99999
0.99999
0.99999
0.99999
0.99999
0.99999
0.99999
0.99999
0.99999
0.99999
0.99999
0.99999
0.99999
0.99999
0.99999
0.99999
0.99999
0.99999
0.99999
0.99999
0.99999
0.99999
0.99999
0.99999
0.99999
0.99999
0.99999
0.99999
0.99999
0.99999
0.99999
0.99999
0.99999
0.99999
0.99999
0.99999
0.99999
0.99999
0.99999
0.99999
0.99999
0.99999
0.999989
0.999979
0.999968
0.999967
0.999957
0.999935
0.999918
0.999916
0.99991
0.999941
0.999954
0.999957
0.863255
0.0316523
0.000278709
0.000227579
0.000176187
0.000141011
8.99548e-05
5.7313e-05
4.53708e-05
4.64579e-05
6.66195e-05
8.36563e-05
0.000103607
0.000124126
0.000147108
0.000169685
0.000187136
0.000195235
0.000189105
0.000141059
8.75748e-05
3.93166e-05
1.48899e-05
4.46368e-06
1.21373e-06
7.54189e-07
7.53977e-07
7.53764e-07
6.89376e-07
6.29215e-07
5.94596e-07
5.75183e-07
5.54399e-07
5.42968e-07
5.26268e-07
4.61598e-07
3.75102e-07
0.999991
0.999991
0.999991
0.999991
0.99999
0.99999
0.99999
0.99999
0.99999
0.99999
0.99999
0.99999
0.99999
0.99999
0.99999
0.99999
0.99999
0.99999
0.99999
0.99999
0.99999
0.99999
0.99999
0.99999
0.99999
0.99999
0.99999
0.99999
0.99999
0.99999
0.99999
0.99999
0.99999
0.99999
0.99999
0.99999
0.99999
0.99999
0.99999
0.99999
0.99999
0.99999
0.99999
0.99999
0.99999
0.99999
0.99999
0.999985
0.99997
0.999966
0.999958
0.999936
0.999916
0.999906
0.999907
0.999904
0.999915
0.999911
0.999957
0.844206
0.013033
0.000949071
0.000956567
0.000790704
0.000654884
0.00044915
0.000376386
0.000422086
0.000539384
0.000652042
0.000770302
0.000902183
0.00101498
0.00114381
0.00129442
0.00143341
0.00155435
0.00163991
0.00167287
0.0015109
0.00112859
0.000770487
0.000453383
0.000210544
7.75704e-05
2.06768e-05
4.27728e-06
1.00745e-06
4.33923e-07
3.22191e-07
3.22191e-07
3.22191e-07
3.22191e-07
3.22191e-07
3.22191e-07
3.22191e-07
0.999991
0.999991
0.999991
0.999991
0.999991
0.999991
0.99999
0.99999
0.99999
0.99999
0.99999
0.99999
0.99999
0.99999
0.99999
0.99999
0.99999
0.99999
0.99999
0.99999
0.99999
0.99999
0.99999
0.99999
0.99999
0.99999
0.99999
0.99999
0.99999
0.99999
0.99999
0.99999
0.99999
0.99999
0.99999
0.99999
0.99999
0.99999
0.99999
0.99999
0.99999
0.99999
0.99999
0.99999
0.99999
0.99999
0.999989
0.999981
0.999968
0.999966
0.999945
0.999917
0.999904
0.999898
0.9999
0.999897
0.999899
0.999898
0.999957
0.852362
0.0243785
0.0023177
0.00258058
0.00268585
0.00280498
0.00281594
0.00303389
0.00353742
0.00405614
0.00451746
0.00479519
0.00491246
0.00488783
0.00448942
0.00425534
0.00399401
0.00379858
0.00376115
0.00393132
0.00426341
0.00459416
0.00475059
0.00458877
0.00387298
0.0030872
0.00218513
0.00138485
0.000740807
0.000320541
0.000179653
0.000185152
0.000203427
0.000214281
0.000221913
0.000176264
0.000117074
0.999991
0.999991
0.999991
0.999991
0.999991
0.999991
0.999991
0.99999
0.99999
0.99999
0.99999
0.99999
0.99999
0.99999
0.99999
0.99999
0.99999
0.99999
0.99999
0.99999
0.99999
0.99999
0.99999
0.99999
0.99999
0.99999
0.99999
0.99999
0.99999
0.99999
0.99999
0.99999
0.99999
0.99999
0.99999
0.99999
0.99999
0.99999
0.99999
0.99999
0.99999
0.99999
0.99999
0.99999
0.99999
0.99999
0.999989
0.999981
0.99997
0.999968
0.999939
0.999911
0.9999
0.999899
0.999908
0.999923
0.99993
0.999933
0.999957
0.888484
0.0529963
0.0071479
0.00928962
0.0100998
0.010725
0.0112804
0.011963
0.0130291
0.0139204
0.0142645
0.0140669
0.0125089
0.0111786
0.0098584
0.00858116
0.00723819
0.00610721
0.00534264
0.00495396
0.00499503
0.00621592
0.00764309
0.00918065
0.0106501
0.0120152
0.0132445
0.0142755
0.0150655
0.0156932
0.0161556
0.0165837
0.016987
0.0172997
0.0167092
0.0146243
0.0114644
0.999992
0.999991
0.999991
0.999991
0.999991
0.999991
0.999991
0.999991
0.99999
0.99999
0.99999
0.99999
0.99999
0.99999
0.99999
0.99999
0.99999
0.99999
0.99999
0.99999
0.99999
0.99999
0.99999
0.99999
0.99999
0.99999
0.99999
0.99999
0.99999
0.99999
0.99999
0.99999
0.99999
0.99999
0.99999
0.99999
0.99999
0.99999
0.99999
0.99999
0.99999
0.99999
0.99999
0.99999
0.99999
0.99999
0.99999
0.999988
0.999982
0.999977
0.999957
0.999935
0.999927
0.99991
0.999908
0.999912
0.999931
0.999924
0.999761
0.918167
0.0438859
0.00660554
0.00732103
0.00729212
0.00697542
0.00637489
0.00573128
0.00499216
0.00423806
0.00340927
0.00259617
0.00173063
0.00108291
0.000708503
0.00056225
0.000553938
0.000577465
0.000720402
0.000917968
0.00118779
0.00154918
0.00206866
0.00277712
0.00351051
0.00426962
0.00493883
0.00539798
0.00568911
0.00581657
0.00583001
0.00538411
0.00488214
0.00395057
0.0027228
0.00129377
0.000265212
0.999992
0.999991
0.999991
0.999991
0.999991
0.999991
0.999991
0.999991
0.999991
0.99999
0.99999
0.99999
0.99999
0.99999
0.99999
0.99999
0.99999
0.99999
0.99999
0.99999
0.99999
0.99999
0.99999
0.99999
0.99999
0.99999
0.99999
0.99999
0.99999
0.99999
0.99999
0.99999
0.99999
0.99999
0.99999
0.99999
0.99999
0.99999
0.99999
0.99999
0.99999
0.99999
0.99999
0.99999
0.99999
0.99999
0.99999
0.99999
0.999989
0.999986
0.999974
0.999953
0.999945
0.999933
0.99993
0.999921
0.999938
0.999932
0.999921
0.949213
0.0347773
0.00280464
0.00243376
0.00178345
0.00138942
0.000914275
0.000555095
0.00027751
0.000127577
5.26953e-05
2.29382e-05
9.63311e-06
4.80939e-06
3.30801e-06
2.86214e-06
2.55161e-06
2.16944e-06
2.42403e-06
8.19639e-06
2.70998e-05
5.85677e-05
0.000103688
0.000158328
0.000214994
0.000270263
0.000314607
0.000332022
0.000333293
0.000298421
0.000272262
0.000218965
0.000150726
7.8207e-05
2.9136e-05
5.48796e-06
3.04671e-07
0.999993
0.999991
0.999991
0.999991
0.999991
0.999991
0.999991
0.999991
0.999991
0.999991
0.99999
0.99999
0.99999
0.99999
0.99999
0.99999
0.99999
0.99999
0.99999
0.99999
0.99999
0.99999
0.99999
0.99999
0.99999
0.99999
0.99999
0.99999
0.99999
0.99999
0.99999
0.99999
0.99999
0.99999
0.99999
0.99999
0.99999
0.99999
0.99999
0.99999
0.99999
0.99999
0.99999
0.99999
0.99999
0.99999
0.99999
0.99999
0.999989
0.999989
0.999985
0.999968
0.999956
0.999944
0.999944
0.999938
0.999943
0.999937
0.999842
0.972758
0.0413155
0.000383081
0.00017389
8.47601e-05
4.68706e-05
1.86864e-05
6.01528e-06
1.48308e-06
7.10705e-07
7.22972e-07
7.655e-07
7.45087e-07
7.22223e-07
7.15924e-07
7.1593e-07
7.15936e-07
7.15941e-07
7.16183e-07
7.25707e-07
7.02654e-07
5.89571e-07
3.93196e-07
3.71111e-07
3.71111e-07
3.71111e-07
3.71111e-07
3.71111e-07
3.71111e-07
7.53426e-07
9.84381e-07
1.04998e-06
7.27066e-07
4.04778e-07
3.04895e-07
3.04543e-07
3.04608e-07
0.999995
0.999993
0.999993
0.999993
0.999993
0.999992
0.999992
0.999991
0.999992
0.999991
0.99999
0.99999
0.99999
0.99999
0.99999
0.99999
0.99999
0.99999
0.99999
0.99999
0.99999
0.99999
0.99999
0.99999
0.99999
0.99999
0.99999
0.99999
0.99999
0.99999
0.99999
0.99999
0.99999
0.99999
0.99999
0.99999
0.99999
0.99999
0.99999
0.99999
0.99999
0.99999
0.99999
0.99999
0.99999
0.99999
0.99999
0.99999
0.999989
0.999989
0.999988
0.99998
0.999966
0.999951
0.99995
0.999946
0.999944
0.999925
0.999834
0.984753
0.0544395
0.000238637
1.92941e-06
9.92796e-07
9.72496e-07
9.94876e-07
7.84915e-07
7.83374e-07
7.47189e-07
7.38753e-07
7.66221e-07
7.90355e-07
7.8326e-07
7.75745e-07
7.63411e-07
7.63322e-07
7.68774e-07
7.67971e-07
7.65336e-07
7.67265e-07
7.75883e-07
7.89818e-07
7.90847e-07
7.87233e-07
7.72588e-07
6.44169e-07
4.7409e-07
4.31382e-07
3.90741e-07
3.52971e-07
3.27486e-07
3.11898e-07
3.04354e-07
3.04415e-07
3.04481e-07
3.04542e-07
0.999995
0.999994
0.999994
0.999994
0.999994
0.999994
0.999994
0.999993
0.999993
0.999991
0.99999
0.99999
0.99999
0.99999
0.99999
0.99999
0.99999
0.99999
0.99999
0.99999
0.99999
0.99999
0.99999
0.99999
0.99999
0.99999
0.99999
0.99999
0.99999
0.99999
0.99999
0.99999
0.99999
0.99999
0.99999
0.99999
0.99999
0.99999
0.99999
0.99999
0.99999
0.99999
0.99999
0.99999
0.99999
0.99999
0.99999
0.999989
0.999989
0.999988
0.999988
0.999982
0.99997
0.999956
0.999949
0.999946
0.999947
0.999904
0.999803
0.985835
0.0799707
0.000518121
1.03737e-06
7.52245e-07
7.61794e-07
7.83043e-07
7.87131e-07
8.0036e-07
8.07823e-07
8.06183e-07
8.00532e-07
7.89133e-07
7.72273e-07
7.67581e-07
7.68554e-07
7.64794e-07
7.62449e-07
7.63773e-07
7.61545e-07
7.61601e-07
7.66664e-07
7.80591e-07
7.8839e-07
7.85025e-07
7.78092e-07
7.05866e-07
4.85029e-07
4.27804e-07
3.98169e-07
3.67229e-07
3.4101e-07
3.22434e-07
3.08071e-07
3.0442e-07
3.04473e-07
3.04546e-07
0.999996
0.999995
0.999995
0.999994
0.999994
0.999994
0.999994
0.999995
0.999994
0.999992
0.99999
0.99999
0.99999
0.99999
0.99999
0.99999
0.99999
0.99999
0.99999
0.99999
0.99999
0.99999
0.99999
0.99999
0.99999
0.99999
0.99999
0.99999
0.99999
0.99999
0.99999
0.99999
0.99999
0.99999
0.99999
0.99999
0.99999
0.99999
0.99999
0.99999
0.99999
0.99999
0.99999
0.99999
0.99999
0.99999
0.99999
0.999989
0.999989
0.999988
0.999987
0.99998
0.999967
0.999951
0.999945
0.999947
0.999948
0.999873
0.999776
0.978465
0.103455
0.00084964
1.46344e-06
7.50177e-07
7.52501e-07
7.59503e-07
7.69452e-07
7.86081e-07
8.05034e-07
8.10538e-07
8.1147e-07
8.10089e-07
7.99003e-07
7.81604e-07
7.81877e-07
7.72114e-07
7.64535e-07
7.6532e-07
7.62814e-07
7.60109e-07
7.65084e-07
7.78297e-07
7.88686e-07
7.84971e-07
7.80244e-07
7.49765e-07
5.50956e-07
4.16368e-07
3.81675e-07
3.58003e-07
3.39098e-07
3.23785e-07
3.11052e-07
3.04348e-07
3.0442e-07
3.04473e-07
0.999997
0.999996
0.999996
0.999995
0.999995
0.999995
0.999995
0.999995
0.999995
0.999993
0.999991
0.99999
0.99999
0.99999
0.99999
0.99999
0.99999
0.99999
0.99999
0.99999
0.99999
0.99999
0.99999
0.99999
0.99999
0.99999
0.99999
0.99999
0.99999
0.99999
0.99999
0.99999
0.99999
0.99999
0.99999
0.99999
0.99999
0.99999
0.99999
0.99999
0.99999
0.99999
0.99999
0.99999
0.99999
0.99999
0.99999
0.99999
0.999989
0.999989
0.999987
0.999978
0.999961
0.999954
0.999948
0.999949
0.999952
0.999925
0.99986
0.970246
0.0898234
0.000549312
1.03741e-06
7.50195e-07
7.5184e-07
7.54465e-07
7.58216e-07
7.65011e-07
7.77725e-07
7.92053e-07
7.95249e-07
7.94e-07
7.91711e-07
7.84914e-07
7.79424e-07
7.75673e-07
7.68517e-07
7.64236e-07
7.68279e-07
7.71e-07
7.71628e-07
7.79004e-07
7.88735e-07
7.85738e-07
7.79355e-07
7.78178e-07
7.21315e-07
5.0406e-07
3.70316e-07
3.43462e-07
3.27374e-07
3.14594e-07
3.06315e-07
3.04307e-07
3.04362e-07
3.04433e-07
0.999997
0.999997
0.999997
0.999997
0.999996
0.999996
0.999996
0.999996
0.999995
0.999993
0.999991
0.99999
0.99999
0.99999
0.99999
0.99999
0.99999
0.99999
0.99999
0.99999
0.99999
0.99999
0.99999
0.99999
0.99999
0.99999
0.99999
0.99999
0.99999
0.99999
0.99999
0.99999
0.99999
0.99999
0.99999
0.99999
0.99999
0.99999
0.99999
0.99999
0.99999
0.99999
0.99999
0.99999
0.99999
0.99999
0.99999
0.99999
0.999989
0.999988
0.999987
0.999981
0.999971
0.999962
0.999953
0.999942
0.99994
0.999935
0.999797
0.967689
0.0754214
0.00043792
8.74521e-07
7.75288e-07
7.66343e-07
7.63587e-07
7.65483e-07
7.69589e-07
7.7451e-07
7.77226e-07
7.782e-07
7.77901e-07
7.79024e-07
7.79448e-07
7.7854e-07
7.77477e-07
7.7282e-07
7.71818e-07
7.72589e-07
7.72589e-07
7.70318e-07
7.77485e-07
7.84882e-07
7.80756e-07
7.75392e-07
7.8127e-07
7.76003e-07
7.09522e-07
4.58864e-07
3.54025e-07
3.34814e-07
3.18988e-07
3.07321e-07
3.04256e-07
3.04326e-07
3.04382e-07
0.999991
0.99999
0.99999
0.99999
0.99999
0.99999
0.99999
0.99999
0.99999
0.99999
0.99999
0.99999
0.99999
0.99999
0.99999
0.99999
0.99999
0.99999
0.99999
0.99999
0.99999
0.99999
0.99999
0.99999
0.99999
0.99999
0.99999
0.99999
0.99999
0.99999
0.99999
0.99999
0.99999
0.99999
0.99999
0.99999
0.99999
0.99999
0.99999
0.99999
0.99999
0.99999
0.99999
0.99999
0.99999
0.99999
0.99999
0.99999
0.999989
0.999983
0.999979
0.999981
0.99998
0.999973
0.999969
0.999965
0.999966
0.999955
0.999373
0.95803
0.0295748
9.18513e-05
7.47254e-07
7.50143e-07
7.55425e-07
7.55468e-07
7.5578e-07
7.5713e-07
7.58956e-07
7.61174e-07
7.61193e-07
7.61666e-07
7.64026e-07
7.69021e-07
7.70281e-07
7.7072e-07
7.71834e-07
7.73318e-07
7.75751e-07
7.81654e-07
7.91567e-07
7.98682e-07
7.9849e-07
7.97336e-07
7.95859e-07
7.94026e-07
7.91933e-07
7.89891e-07
7.8627e-07
7.59374e-07
6.56093e-07
5.25976e-07
6.05302e-07
6.71348e-07
6.05574e-07
4.20131e-07
0.999991
0.999991
0.999991
0.999991
0.99999
0.99999
0.99999
0.99999
0.99999
0.99999
0.99999
0.99999
0.99999
0.99999
0.99999
0.99999
0.99999
0.99999
0.99999
0.99999
0.99999
0.99999
0.99999
0.99999
0.99999
0.99999
0.99999
0.99999
0.99999
0.99999
0.99999
0.99999
0.99999
0.99999
0.99999
0.99999
0.99999
0.99999
0.99999
0.99999
0.99999
0.99999
0.99999
0.99999
0.99999
0.99999
0.99999
0.99999
0.999989
0.999986
0.999983
0.999981
0.999971
0.99995
0.999942
0.999937
0.999941
0.999937
0.999714
0.92664
0.0116565
8.21812e-06
7.47253e-07
7.77939e-07
8.04045e-07
7.97074e-07
7.85885e-07
7.76157e-07
7.76533e-07
7.80239e-07
7.87518e-07
8.09679e-07
8.37946e-07
8.32268e-07
8.09942e-07
7.94011e-07
7.95759e-07
8.09583e-07
8.30838e-07
8.48659e-07
8.39562e-07
8.2624e-07
8.14276e-07
8.03195e-07
8.04053e-07
8.05816e-07
8.05415e-07
8.04228e-07
8.01281e-07
7.71436e-07
6.6653e-07
5.42704e-07
6.09834e-07
6.82307e-07
6.53806e-07
4.97555e-07
0.999991
0.999991
0.999992
0.999991
0.999991
0.999991
0.999991
0.99999
0.99999
0.99999
0.99999
0.99999
0.99999
0.99999
0.99999
0.99999
0.99999
0.99999
0.99999
0.99999
0.99999
0.99999
0.99999
0.99999
0.99999
0.99999
0.99999
0.99999
0.99999
0.99999
0.99999
0.99999
0.99999
0.99999
0.99999
0.99999
0.99999
0.99999
0.99999
0.99999
0.99999
0.99999
0.99999
0.99999
0.99999
0.99999
0.99999
0.99999
0.999989
0.999984
0.999974
0.999961
0.999938
0.999928
0.999928
0.99993
0.999942
0.999934
0.999819
0.870666
0.00912876
9.85283e-07
1.002e-06
8.07456e-07
9.95957e-07
7.66126e-07
8.32609e-07
8.93583e-07
9.25893e-07
9.0531e-07
9.17619e-07
9.09627e-07
8.69483e-07
8.52665e-07
8.59395e-07
8.87886e-07
9.27323e-07
9.46421e-07
9.46799e-07
9.13997e-07
8.36735e-07
8.26176e-07
8.26924e-07
8.24457e-07
8.20684e-07
8.18519e-07
8.16866e-07
8.1485e-07
8.04271e-07
7.51068e-07
6.28828e-07
5.67781e-07
6.64679e-07
7.02737e-07
6.90936e-07
5.68348e-07
0.999991
0.999991
0.999992
0.999992
0.999992
0.999992
0.999991
0.999991
0.99999
0.99999
0.99999
0.99999
0.99999
0.99999
0.99999
0.99999
0.99999
0.99999
0.99999
0.99999
0.99999
0.99999
0.99999
0.99999
0.99999
0.99999
0.99999
0.99999
0.99999
0.99999
0.99999
0.99999
0.99999
0.99999
0.99999
0.99999
0.99999
0.99999
0.99999
0.99999
0.99999
0.99999
0.99999
0.99999
0.99999
0.99999
0.99999
0.999989
0.999981
0.999962
0.999941
0.999926
0.999914
0.999925
0.999928
0.99992
0.999913
0.999905
0.999847
0.719963
0.00142632
0.000108902
7.56962e-05
4.77467e-05
3.34064e-05
2.11381e-05
1.36906e-05
9.1125e-06
6.80758e-06
5.19248e-06
3.4775e-06
1.91473e-06
1.05477e-06
9.88732e-07
1.7152e-06
2.12116e-06
1.13734e-06
8.9809e-07
9.0553e-07
8.97455e-07
8.69513e-07
8.44776e-07
8.41868e-07
8.57014e-07
8.13955e-07
8.14728e-07
8.10475e-07
7.86982e-07
7.18187e-07
6.41263e-07
6.06109e-07
6.83546e-07
7.60707e-07
7.36971e-07
7.14495e-07
5.71751e-07
0.999991
0.999991
0.999991
0.999991
0.999992
0.999992
0.999992
0.999991
0.999991
0.99999
0.99999
0.99999
0.99999
0.99999
0.99999
0.99999
0.99999
0.99999
0.99999
0.99999
0.99999
0.99999
0.99999
0.99999
0.99999
0.99999
0.99999
0.99999
0.99999
0.99999
0.99999
0.99999
0.99999
0.99999
0.99999
0.99999
0.99999
0.99999
0.99999
0.99999
0.99999
0.99999
0.99999
0.99999
0.99999
0.99999
0.99999
0.999984
0.999961
0.999939
0.999918
0.999908
0.99991
0.999921
0.999919
0.999912
0.999911
0.999922
0.999941
0.580516
0.00660585
0.00343158
0.00303744
0.00259571
0.00229282
0.00200303
0.00171949
0.0014417
0.00117371
0.000924883
0.000706373
0.000524499
0.000383605
0.000280261
0.000202951
0.000146888
0.000104131
7.29999e-05
4.6227e-05
2.62852e-05
1.30222e-05
5.59297e-06
2.285e-06
1.08904e-06
8.69093e-07
1.00162e-06
7.84965e-07
7.77612e-07
7.5415e-07
7.46217e-07
7.20038e-07
6.8417e-07
7.69727e-07
7.6928e-07
7.20555e-07
5.54397e-07
0.999991
0.999991
0.999991
0.999991
0.999991
0.999992
0.999992
0.999992
0.999991
0.99999
0.99999
0.99999
0.99999
0.99999
0.99999
0.99999
0.99999
0.99999
0.99999
0.99999
0.99999
0.99999
0.99999
0.99999
0.99999
0.99999
0.99999
0.99999
0.99999
0.99999
0.99999
0.99999
0.99999
0.99999
0.99999
0.99999
0.99999
0.99999
0.99999
0.99999
0.99999
0.99999
0.99999
0.99999
0.99999
0.99999
0.999987
0.999967
0.999947
0.999929
0.999909
0.999902
0.999904
0.999917
0.999916
0.99991
0.999906
0.999891
0.999957
0.40647
0.0202891
0.017992
0.0174813
0.0167111
0.0164076
0.0163112
0.0159526
0.0152034
0.01408
0.0127953
0.0114375
0.0100576
0.0088766
0.00790462
0.00698727
0.00606886
0.00512505
0.00414076
0.00318247
0.00234719
0.00163918
0.00104512
0.000595923
0.000297624
0.000135284
5.63348e-05
2.27959e-05
1.08565e-05
8.2967e-06
8.27325e-06
7.14456e-06
4.86785e-06
1.29521e-06
4.8805e-07
6.78446e-07
4.6407e-07
0.999992
0.999991
0.999991
0.999991
0.999991
0.999991
0.999992
0.999992
0.999991
0.999991
0.99999
0.99999
0.99999
0.99999
0.99999
0.99999
0.99999
0.99999
0.99999
0.99999
0.99999
0.99999
0.99999
0.99999
0.99999
0.99999
0.99999
0.99999
0.99999
0.99999
0.99999
0.99999
0.99999
0.99999
0.99999
0.99999
0.99999
0.99999
0.99999
0.99999
0.99999
0.99999
0.99999
0.99999
0.99999
0.999989
0.999983
0.999958
0.999945
0.999929
0.999909
0.999902
0.999901
0.999903
0.999905
0.999897
0.999904
0.999905
0.999945
0.372315
0.0326546
0.0311996
0.0311795
0.0304379
0.030488
0.0316652
0.0325878
0.0329455
0.0330648
0.0331783
0.0331015
0.0322197
0.0319005
0.0322042
0.0327961
0.0331779
0.033208
0.0316226
0.0295501
0.027035
0.0242835
0.0217513
0.0191103
0.0160739
0.0128789
0.00986137
0.00720459
0.00518149
0.0036457
0.00254216
0.00222233
0.00252216
0.00281443
0.00318417
0.00375493
0.00452231
0.999992
0.999991
0.999991
0.999991
0.999991
0.999991
0.999992
0.999992
0.999992
0.999991
0.99999
0.99999
0.99999
0.99999
0.99999
0.99999
0.99999
0.99999
0.99999
0.99999
0.99999
0.99999
0.99999
0.99999
0.99999
0.99999
0.99999
0.99999
0.99999
0.99999
0.99999
0.99999
0.99999
0.99999
0.99999
0.99999
0.99999
0.99999
0.99999
0.99999
0.99999
0.99999
0.99999
0.99999
0.99999
0.999989
0.999983
0.999968
0.999959
0.999949
0.999923
0.999906
0.999904
0.999912
0.999922
0.99993
0.999941
0.999949
0.999957
0.641716
0.0422862
0.0302753
0.0310023
0.0308605
0.030637
0.0306286
0.0313023
0.0336114
0.0352937
0.0359268
0.0359941
0.0358395
0.0358662
0.0372725
0.0399867
0.0434173
0.0467824
0.0499018
0.0530116
0.0562831
0.0601863
0.0651068
0.0705931
0.0756477
0.0801089
0.0837749
0.0865442
0.0885092
0.0898159
0.091084
0.0944556
0.103161
0.116473
0.136087
0.17625
0.36527
0.999992
0.999992
0.999992
0.999991
0.999991
0.999991
0.999991
0.999992
0.999992
0.999991
0.99999
0.99999
0.99999
0.99999
0.99999
0.99999
0.99999
0.99999
0.99999
0.99999
0.99999
0.99999
0.99999
0.99999
0.99999
0.99999
0.99999
0.99999
0.99999
0.99999
0.99999
0.99999
0.99999
0.99999
0.99999
0.99999
0.99999
0.99999
0.99999
0.99999
0.99999
0.99999
0.99999
0.99999
0.99999
0.99999
0.999988
0.999985
0.999982
0.999977
0.999966
0.99994
0.999924
0.999923
0.999925
0.999927
0.999932
0.999932
0.999937
0.857185
0.0321981
0.00910202
0.00842694
0.00707388
0.00630956
0.00563521
0.00526358
0.00451014
0.00379651
0.00318414
0.00262766
0.00218087
0.00198115
0.00175994
0.00165764
0.00181219
0.00207889
0.00270546
0.00372801
0.00510963
0.00635203
0.00728286
0.00856081
0.0113934
0.0147342
0.0180696
0.021411
0.0245015
0.0277595
0.0308308
0.0333767
0.0354865
0.0368594
0.0343
0.0293474
0.0233477
0.999993
0.999993
0.999992
0.999992
0.999991
0.999991
0.999991
0.999992
0.999992
0.999992
0.999991
0.99999
0.99999
0.99999
0.99999
0.99999
0.99999
0.99999
0.99999
0.99999
0.99999
0.99999
0.99999
0.99999
0.99999
0.99999
0.99999
0.99999
0.99999
0.99999
0.99999
0.99999
0.99999
0.99999
0.99999
0.99999
0.99999
0.99999
0.99999
0.99999
0.99999
0.99999
0.99999
0.99999
0.99999
0.99999
0.999989
0.999985
0.99998
0.999978
0.999977
0.999971
0.999958
0.999954
0.999956
0.999943
0.999943
0.999923
0.999946
0.906179
0.0173445
0.000981996
0.000762518
0.000473581
0.000330026
0.000207208
0.000136169
6.96519e-05
3.29887e-05
1.87141e-05
1.57907e-05
1.83771e-05
1.99892e-05
1.95474e-05
1.94825e-05
2.03482e-05
1.90228e-05
2.20499e-05
3.02563e-05
4.87501e-05
7.76398e-05
0.000104227
0.000130284
0.000174548
0.000291183
0.000423292
0.000483451
0.000461502
0.000346212
0.000252426
0.000189843
0.000135872
0.000120378
9.91832e-05
9.34412e-05
2.37808e-05
0.999993
0.999992
0.999992
0.999992
0.999992
0.999991
0.999991
0.999992
0.999993
0.999992
0.999991
0.99999
0.99999
0.99999
0.99999
0.99999
0.99999
0.99999
0.99999
0.99999
0.99999
0.99999
0.99999
0.99999
0.99999
0.99999
0.99999
0.99999
0.99999
0.99999
0.99999
0.99999
0.99999
0.99999
0.99999
0.99999
0.99999
0.99999
0.99999
0.99999
0.99999
0.99999
0.99999
0.99999
0.99999
0.99999
0.999989
0.999985
0.99998
0.999978
0.999981
0.999978
0.999971
0.999963
0.999957
0.999947
0.999928
0.999907
0.999917
0.945662
0.0135392
3.23082e-05
3.155e-05
1.13163e-05
6.41543e-06
2.81852e-06
1.05342e-06
7.08772e-07
7.6305e-07
7.08886e-07
7.08943e-07
7.08999e-07
7.58181e-07
8.00951e-07
7.23603e-07
7.39755e-07
8.21998e-07
8.18993e-07
8.29066e-07
8.50529e-07
8.80165e-07
9.35535e-07
9.41183e-07
7.08414e-07
5.30543e-07
7.00948e-07
9.95485e-07
9.5093e-07
7.67326e-07
5.43565e-07
3.95416e-07
3.20044e-07
3.04714e-07
3.04643e-07
3.04588e-07
3.04641e-07
0.999995
0.999993
0.999993
0.999992
0.999992
0.999991
0.999991
0.999992
0.999993
0.999993
0.999991
0.99999
0.99999
0.99999
0.99999
0.99999
0.99999
0.99999
0.99999
0.99999
0.99999
0.99999
0.99999
0.99999
0.99999
0.99999
0.99999
0.99999
0.99999
0.99999
0.99999
0.99999
0.99999
0.99999
0.99999
0.99999
0.99999
0.99999
0.99999
0.99999
0.99999
0.99999
0.99999
0.99999
0.99999
0.99999
0.999989
0.999984
0.99998
0.999982
0.999984
0.99998
0.999969
0.999959
0.999934
0.999942
0.99993
0.999899
0.999896
0.971335
0.0214566
1.05573e-06
1.08868e-06
7.5965e-07
9.80166e-07
8.25809e-07
8.54517e-07
8.2824e-07
7.98757e-07
7.74892e-07
7.89156e-07
8.03651e-07
8.01103e-07
7.85541e-07
7.6928e-07
7.58382e-07
7.62371e-07
7.6186e-07
7.58523e-07
7.58509e-07
7.68671e-07
7.86534e-07
7.776e-07
7.76851e-07
7.53498e-07
6.06925e-07
5.38735e-07
5.25513e-07
4.91781e-07
4.35287e-07
3.82783e-07
3.4857e-07
3.26154e-07
3.11963e-07
3.04515e-07
3.04584e-07
0.999995
0.999994
0.999994
0.999993
0.999993
0.999992
0.999991
0.999992
0.999993
0.999994
0.999992
0.99999
0.99999
0.99999
0.99999
0.99999
0.99999
0.99999
0.99999
0.99999
0.99999
0.99999
0.99999
0.99999
0.99999
0.99999
0.99999
0.99999
0.99999
0.99999
0.99999
0.99999
0.99999
0.99999
0.99999
0.99999
0.99999
0.99999
0.99999
0.99999
0.99999
0.99999
0.99999
0.99999
0.99999
0.99999
0.999989
0.999984
0.999983
0.999986
0.999986
0.999979
0.999965
0.999953
0.999921
0.999929
0.999928
0.999923
0.999892
0.973011
0.0374129
1.21751e-06
8.90683e-07
7.59983e-07
8.27571e-07
8.26055e-07
8.24072e-07
8.2831e-07
8.3253e-07
8.32397e-07
8.29545e-07
8.14053e-07
7.96055e-07
7.936e-07
7.90971e-07
7.73378e-07
7.59163e-07
7.59165e-07
7.60423e-07
7.58523e-07
7.61124e-07
7.77665e-07
7.82313e-07
7.75657e-07
7.66613e-07
6.67205e-07
5.24093e-07
4.88892e-07
4.68446e-07
4.53397e-07
4.04097e-07
3.71104e-07
3.4469e-07
3.2016e-07
3.04459e-07
3.04513e-07
0.999996
0.999995
0.999995
0.999995
0.999994
0.999993
0.999992
0.999992
0.999993
0.999994
0.999992
0.99999
0.99999
0.99999
0.99999
0.99999
0.99999
0.99999
0.99999
0.99999
0.99999
0.99999
0.99999
0.99999
0.99999
0.99999
0.99999
0.99999
0.99999
0.99999
0.99999
0.99999
0.99999
0.99999
0.99999
0.99999
0.99999
0.99999
0.99999
0.99999
0.99999
0.99999
0.99999
0.99999
0.99999
0.99999
0.999989
0.999987
0.999986
0.999987
0.999987
0.999974
0.999937
0.999913
0.999911
0.999928
0.999939
0.999904
0.999727
0.975405
0.0702917
1.05573e-06
1.07613e-06
7.50164e-07
7.5015e-07
7.64963e-07
7.64712e-07
7.66956e-07
7.7882e-07
7.91222e-07
7.91067e-07
7.90518e-07
7.87364e-07
7.79879e-07
7.77028e-07
7.75189e-07
7.68979e-07
7.65547e-07
7.63873e-07
7.58727e-07
7.60317e-07
7.75287e-07
7.83768e-07
7.75837e-07
7.66962e-07
7.25407e-07
5.52201e-07
4.71949e-07
4.06152e-07
3.7936e-07
3.58427e-07
3.44361e-07
3.32566e-07
3.14918e-07
3.04388e-07
3.04457e-07
0.999997
0.999996
0.999997
0.999996
0.999996
0.999995
0.999994
0.999994
0.999995
0.999994
0.999991
0.99999
0.99999
0.99999
0.99999
0.99999
0.99999
0.99999
0.99999
0.99999
0.99999
0.99999
0.99999
0.99999
0.99999
0.99999
0.99999
0.99999
0.99999
0.99999
0.99999
0.99999
0.99999
0.99999
0.99999
0.99999
0.99999
0.99999
0.99999
0.99999
0.99999
0.99999
0.99999
0.99999
0.99999
0.99999
0.99999
0.999989
0.999989
0.999988
0.999987
0.999977
0.999912
0.999911
0.999911
0.999897
0.999881
0.999873
0.999831
0.951583
0.0348674
3.19343e-05
7.48273e-07
7.61938e-07
7.49716e-07
7.50276e-07
7.51185e-07
7.52005e-07
7.5478e-07
7.55595e-07
7.55557e-07
7.55882e-07
7.57451e-07
7.58021e-07
7.57694e-07
7.54492e-07
7.54543e-07
7.54505e-07
7.55756e-07
7.58092e-07
7.62601e-07
7.76405e-07
7.86778e-07
7.80254e-07
7.65147e-07
7.5618e-07
7.06385e-07
5.66905e-07
3.98439e-07
3.49599e-07
3.25716e-07
3.11113e-07
3.04468e-07
3.04261e-07
3.04331e-07
3.04387e-07
0.999997
0.999997
0.999997
0.999997
0.999997
0.999997
0.999996
0.999996
0.999996
0.999994
0.999991
0.99999
0.99999
0.99999
0.99999
0.99999
0.99999
0.99999
0.99999
0.99999
0.99999
0.99999
0.99999
0.99999
0.99999
0.99999
0.99999
0.99999
0.99999
0.99999
0.99999
0.99999
0.99999
0.99999
0.99999
0.99999
0.99999
0.99999
0.99999
0.99999
0.99999
0.99999
0.99999
0.99999
0.99999
0.99999
0.99999
0.99999
0.999989
0.999988
0.999986
0.999978
0.999956
0.999933
0.999911
0.999898
0.999892
0.999878
0.999838
0.975357
0.0457407
8.75707e-05
7.48274e-07
7.6422e-07
7.57012e-07
7.52438e-07
7.53878e-07
7.56478e-07
7.60836e-07
7.63001e-07
7.62506e-07
7.61861e-07
7.62252e-07
7.62992e-07
7.62438e-07
7.61628e-07
7.58785e-07
7.56778e-07
7.58058e-07
7.58043e-07
7.58698e-07
7.70353e-07
7.84725e-07