/*--------------------------------*- C++ -*----------------------------------*\
| =========                 |                                                 |
| \\      /  F ield         | OpenFOAM: The Open Source CFD Toolbox           |
|  \\    /   O peration     | Version:  2.3.0                                 |
|   \\  /    A nd           | Web:      www.OpenFOAM.org                      |
|    \\/     M anipulation  |                                                 |
\*---------------------------------------------------------------------------*/
FoamFile
{
    version     2.0;
    format      ascii;
    class       volScalarField;
    location    "8";
    object      dsauterMean;
}
// * * * * * * * * * * * * * * * * * * * * * * * * * * * * * * * * * * * * * //

dimensions      [0 0 0 0 0 0 0];

internalField   nonuniform List<scalar> 
6144
(
0.00833335
0.00833335
0.00833335
0.00833335
0.00833335
0.00833335
0.00833335
0.00833335
0.00833335
0.00833335
0.00833335
0.00833335
0.00833335
0.00833335
0.00833335
0.00833335
0.00833335
0.00833335
0.00833335
0.00833335
0.00833335
0.00833335
0.00833335
0.00833335
0.00833335
0.00833335
0.00833335
0.00833335
0.00833335
0.00833335
0.00833335
0.00833335
0.00833335
0.00833335
0.00833335
0.00833335
0.00833335
0.00833335
0.00833335
0.00833335
0.00833335
0.00833335
0.00833335
0.00833335
0.00833335
0.00833335
0.00833335
0.00833335
0.00833335
0.00833335
0.00833335
0.00833335
0.00833335
0.00833335
0.00833335
0.00833335
0.00833335
0.0083333
0.00832573
0.0083437
0.00834173
0.00833269
0.00231242
0.000923661
0.000897597
0.000877025
0.000856439
0.000825572
0.000804975
0.000779278
0.000758675
0.000732939
0.000712361
0.000691772
0.000671197
0.000645455
0.000624883
0.000604285
0.000583709
0.000563397
0.000541033
0.000525347
0.000497564
0.000487495
0.000463957
0.000449915
0.000429087
0.000414398
0.000398145
0.000388167
0.000377873
0.000367584
0.000362443
0.00035729
0.000362403
0.000357377
0.00833335
0.00833335
0.00833335
0.00833335
0.00833335
0.00833335
0.00833335
0.00833335
0.00833335
0.00833335
0.00833335
0.00833335
0.00833335
0.00833335
0.00833335
0.00833335
0.00833335
0.00833335
0.00833335
0.00833335
0.00833335
0.00833335
0.00833335
0.00833335
0.00833335
0.00833335
0.00833335
0.00833335
0.00833335
0.00833335
0.00833335
0.00833335
0.00833335
0.00833335
0.00833335
0.00833335
0.00833335
0.00833335
0.00833335
0.00833335
0.00833335
0.00833335
0.00833335
0.00833335
0.00833335
0.00833335
0.00833335
0.00833335
0.00833335
0.00833335
0.00833335
0.00833335
0.00833335
0.00833335
0.00833335
0.00833335
0.00833335
0.00833316
0.00832524
0.00834295
0.00837748
0.00833073
0.00119606
0.000928508
0.000902391
0.000881228
0.000856311
0.00083071
0.000810242
0.000785737
0.000764206
0.00073737
0.000717349
0.000691669
0.000667662
0.000644812
0.0006257
0.000606757
0.000581503
0.000562903
0.000543822
0.000521561
0.00050286
0.000486001
0.000465435
0.000450308
0.00043448
0.000419042
0.000403614
0.000388167
0.000377878
0.00037273
0.000361175
0.000362921
0.000362487
0.000362538
0.00833335
0.00833335
0.00833335
0.00833335
0.00833335
0.00833335
0.00833335
0.00833335
0.00833335
0.00833335
0.00833335
0.00833335
0.00833335
0.00833335
0.00833335
0.00833335
0.00833335
0.00833335
0.00833335
0.00833335
0.00833335
0.00833335
0.00833335
0.00833335
0.00833335
0.00833335
0.00833335
0.00833335
0.00833335
0.00833335
0.00833335
0.00833335
0.00833335
0.00833335
0.00833335
0.00833335
0.00833335
0.00833335
0.00833335
0.00833335
0.00833335
0.00833335
0.00833335
0.00833335
0.00833335
0.00833335
0.00833335
0.00833335
0.00833335
0.00833335
0.00833335
0.00833335
0.00833335
0.00833335
0.00833335
0.00833335
0.00833335
0.00833335
0.00833375
0.00835991
0.00768911
0.00632616
0.00134528
0.000930236
0.000896855
0.000877029
0.000850703
0.000826509
0.000804993
0.000771101
0.000757071
0.000727879
0.00071296
0.000687923
0.000674934
0.00064662
0.000625285
0.000605585
0.000580355
0.000565534
0.000544318
0.000521957
0.000506525
0.000485917
0.000465006
0.00044993
0.00043448
0.000419046
0.000403607
0.000388167
0.000378511
0.000372217
0.000362531
0.000360009
0.000368937
0.000362899
0.00833335
0.00833335
0.00833335
0.00833335
0.00833335
0.00833335
0.00833335
0.00833335
0.00833335
0.00833335
0.00833335
0.00833335
0.00833335
0.00833335
0.00833335
0.00833335
0.00833335
0.00833335
0.00833335
0.00833335
0.00833335
0.00833335
0.00833335
0.00833335
0.00833335
0.00833335
0.00833335
0.00833335
0.00833335
0.00833335
0.00833335
0.00833335
0.00833335
0.00833335
0.00833335
0.00833335
0.00833335
0.00833335
0.00833335
0.00833335
0.00833335
0.00833335
0.00833335
0.00833335
0.00833335
0.00833335
0.00833335
0.00833335
0.00833335
0.00833335
0.00833335
0.00833335
0.00833335
0.00833335
0.00833335
0.00833335
0.00833335
0.00833335
0.0083305
0.00833636
0.00834843
0.00396034
0.00205028
0.00124767
0.00119089
0.00107372
0.00107133
0.00102626
0.00100466
0.000950672
0.000923346
0.000902714
0.00086673
0.000815279
0.000727791
0.000660908
0.000624871
0.000604252
0.000581289
0.000563828
0.000542605
0.000519482
0.000502816
0.000487305
0.000464215
0.000449893
0.000434485
0.00041982
0.000401427
0.000388167
0.000377899
0.000370984
0.000364438
0.000362423
0.000362436
0.000367584
0.00833335
0.00833335
0.00833335
0.00833335
0.00833335
0.00833335
0.00833335
0.00833335
0.00833335
0.00833335
0.00833335
0.00833335
0.00833335
0.00833335
0.00833335
0.00833335
0.00833335
0.00833335
0.00833335
0.00833335
0.00833335
0.00833335
0.00833335
0.00833335
0.00833335
0.00833335
0.00833335
0.00833335
0.00833335
0.00833335
0.00833335
0.00833335
0.00833335
0.00833335
0.00833335
0.00833335
0.00833335
0.00833335
0.00833335
0.00833335
0.00833335
0.00833335
0.00833335
0.00833335
0.00833335
0.00833335
0.00833335
0.00833335
0.00833335
0.00833335
0.00833335
0.00833335
0.00833335
0.00833335
0.00833335
0.00833335
0.00833335
0.00833335
0.00833332
0.0083531
0.00736922
0.00831924
0.00818006
0.0081944
0.0081487
0.00798061
0.00794086
0.00779621
0.00774176
0.00765271
0.00761323
0.00750183
0.00726795
0.00706529
0.00684811
0.00641526
0.00552623
0.00414294
0.00297965
0.00187209
0.00106846
0.000598987
0.000537369
0.000491082
0.000470501
0.000446185
0.000430808
0.000415235
0.000398904
0.000387444
0.000377876
0.000367584
0.000357274
0.000357267
0.000362464
0.000362438
0.00833335
0.00833335
0.00833335
0.00833335
0.00833335
0.00833335
0.00833335
0.00833335
0.00833335
0.00833335
0.00833335
0.00833335
0.00833335
0.00833335
0.00833335
0.00833335
0.00833335
0.00833335
0.00833335
0.00833335
0.00833335
0.00833335
0.00833335
0.00833335
0.00833335
0.00833335
0.00833335
0.00833335
0.00833335
0.00833335
0.00833335
0.00833335
0.00833335
0.00833335
0.00833335
0.00833335
0.00833335
0.00833335
0.00833335
0.00833335
0.00833335
0.00833335
0.00833335
0.00833335
0.00833335
0.00833335
0.00833335
0.00833335
0.00833335
0.00833335
0.00833335
0.00833335
0.00833335
0.00833335
0.00833335
0.00833335
0.00833335
0.00833335
0.00833335
0.00834578
0.00729607
0.00809353
0.00808293
0.00824514
0.00828945
0.00826963
0.00834609
0.0081516
0.00827045
0.00794292
0.0084229
0.00790543
0.0082757
0.00821846
0.00828344
0.00800533
0.00813114
0.00808802
0.00779512
0.00800419
0.00783702
0.00775851
0.0076014
0.00738844
0.00698127
0.00542492
0.00466973
0.00307982
0.000760977
0.00041428
0.000383956
0.000366236
0.000362665
0.000352711
0.000351997
0.000362842
0.00833335
0.00833335
0.00833335
0.00833335
0.00833335
0.00833335
0.00833335
0.00833335
0.00833335
0.00833335
0.00833335
0.00833335
0.00833335
0.00833335
0.00833335
0.00833335
0.00833335
0.00833335
0.00833335
0.00833335
0.00833335
0.00833335
0.00833335
0.00833335
0.00833335
0.00833335
0.00833335
0.00833335
0.00833335
0.00833335
0.00833335
0.00833335
0.00833335
0.00833335
0.00833335
0.00833335
0.00833335
0.00833335
0.00833335
0.00833335
0.00833335
0.00833335
0.00833335
0.00833335
0.00833335
0.00833335
0.00833335
0.00833335
0.00833335
0.00833335
0.00833335
0.00833335
0.00833335
0.00833335
0.00833335
0.00833335
0.00833335
0.00833333
0.00833357
0.00833325
0.00833435
0.00913015
0.0062261
0.00835407
0.00821659
0.0079712
0.0082138
0.00721868
0.0078727
0.0077509
0.00799918
0.00769672
0.0081653
0.00790045
0.00816895
0.00799458
0.00863235
0.00721017
0.0082076
0.00839499
0.00793989
0.00833305
0.00830169
0.00827485
0.00822749
0.00781945
0.00800632
0.0083398
0.00809014
0.00792325
0.00798736
0.00805324
0.00735345
0.00627518
0.00405922
0.00310601
0.00833335
0.00833335
0.00833335
0.00833335
0.00833335
0.00833335
0.00833335
0.00833335
0.00833335
0.00833335
0.00833335
0.00833335
0.00833335
0.00833335
0.00833335
0.00833335
0.00833335
0.00833335
0.00833335
0.00833335
0.00833335
0.00833335
0.00833335
0.00833335
0.00833335
0.00833335
0.00833335
0.00833335
0.00833335
0.00833335
0.00833335
0.00833335
0.00833335
0.00833335
0.00833335
0.00833335
0.00833335
0.00833335
0.00833335
0.00833335
0.00833335
0.00833335
0.00833335
0.00833335
0.00833335
0.00833335
0.00833335
0.00833335
0.00833335
0.00833335
0.00833335
0.00833335
0.00833335
0.00833335
0.00833335
0.00833335
0.00833335
0.00833336
0.00833341
0.00833345
0.00831717
0.00835662
0.00831629
0.00831783
0.0083363
0.00824811
0.00805994
0.00879326
0.00817061
0.00837619
0.0082688
0.00832247
0.00832514
0.0083366
0.00835515
0.00838137
0.00809321
0.00830338
0.00832146
0.00830283
0.00830066
0.00827397
0.00824892
0.00823878
0.0082693
0.00818522
0.00826543
0.00807409
0.00790395
0.00818321
0.00802913
0.00767281
0.00815277
0.00745695
0.00767914
0.00804315
0.00833335
0.00833335
0.00833335
0.00833335
0.00833335
0.00833335
0.00833335
0.00833335
0.00833335
0.00833335
0.00833335
0.00833335
0.00833335
0.00833335
0.00833335
0.00833335
0.00833335
0.00833335
0.00833335
0.00833335
0.00833335
0.00833335
0.00833335
0.00833335
0.00833335
0.00833335
0.00833335
0.00833335
0.00833335
0.00833335
0.00833335
0.00833335
0.00833335
0.00833335
0.00833335
0.00833335
0.00833335
0.00833335
0.00833335
0.00833335
0.00833335
0.00833335
0.00833335
0.00833335
0.00833335
0.00833335
0.00833335
0.00833335
0.00833335
0.00833335
0.00833335
0.00833335
0.00833335
0.00833335
0.00833335
0.00833335
0.00833336
0.00833332
0.00833367
0.0083349
0.00824785
0.00762794
0.00773297
0.00805516
0.0081396
0.0075752
0.00783912
0.00809282
0.00815547
0.00805273
0.0078561
0.00833014
0.00782947
0.00862285
0.00767363
0.00834284
0.00829375
0.00833405
0.00814602
0.00802823
0.00836746
0.00796418
0.00804329
0.00823829
0.0081555
0.00826709
0.00817218
0.00833818
0.00797453
0.00827514
0.0081038
0.00795895
0.00816947
0.00826012
0.00611727
0.00443672
0.00833335
0.00833335
0.00833335
0.00833335
0.00833335
0.00833335
0.00833335
0.00833335
0.00833335
0.00833335
0.00833335
0.00833335
0.00833335
0.00833335
0.00833335
0.00833335
0.00833335
0.00833335
0.00833335
0.00833335
0.00833335
0.00833335
0.00833335
0.00833335
0.00833335
0.00833335
0.00833335
0.00833335
0.00833335
0.00833335
0.00833335
0.00833335
0.00833335
0.00833335
0.00833335
0.00833335
0.00833335
0.00833335
0.00833335
0.00833335
0.00833335
0.00833335
0.00833335
0.00833335
0.00833335
0.00833335
0.00833335
0.00833335
0.00833335
0.00833335
0.00833335
0.00833335
0.00833335
0.00833335
0.00833335
0.00833335
0.00833335
0.00833336
0.00833316
0.00833442
0.00831516
0.00829558
0.00784208
0.00816265
0.00821658
0.00623369
0.00568388
0.00514273
0.0046816
0.00424942
0.00391101
0.00375835
0.00340486
0.00344514
0.00326399
0.00317244
0.00305252
0.002873
0.00276705
0.00265052
0.00256067
0.00230781
0.00214566
0.00198535
0.00185257
0.00174617
0.00153454
0.00135323
0.00116942
0.00101479
0.000733581
0.000418764
0.000372727
0.000357292
0.000357521
0.000362211
0.00833335
0.00833335
0.00833335
0.00833335
0.00833335
0.00833335
0.00833335
0.00833335
0.00833335
0.00833335
0.00833335
0.00833335
0.00833335
0.00833335
0.00833335
0.00833335
0.00833335
0.00833335
0.00833335
0.00833335
0.00833335
0.00833335
0.00833335
0.00833335
0.00833335
0.00833335
0.00833335
0.00833335
0.00833335
0.00833335
0.00833335
0.00833335
0.00833335
0.00833335
0.00833335
0.00833335
0.00833335
0.00833335
0.00833335
0.00833335
0.00833335
0.00833335
0.00833335
0.00833335
0.00833335
0.00833335
0.00833335
0.00833335
0.00833335
0.00833335
0.00833335
0.00833335
0.00833335
0.00833335
0.00833335
0.00833335
0.00833335
0.00833373
0.00831871
0.00833598
0.00833602
0.0070538
0.00498837
0.00284624
0.00301359
0.0028366
0.00284344
0.00278903
0.00273704
0.00267252
0.00259901
0.00251163
0.00239531
0.00229801
0.00210687
0.00196856
0.00179296
0.00164796
0.00146136
0.00126313
0.00102717
0.000872287
0.000714644
0.00059895
0.000478847
0.00044578
0.000434481
0.000412828
0.000399454
0.00038723
0.000377876
0.000367565
0.000358805
0.000357636
0.00036009
0.000362438
0.00833335
0.00833335
0.00833335
0.00833335
0.00833335
0.00833335
0.00833335
0.00833335
0.00833335
0.00833335
0.00833335
0.00833335
0.00833335
0.00833335
0.00833335
0.00833335
0.00833335
0.00833335
0.00833335
0.00833335
0.00833335
0.00833335
0.00833335
0.00833335
0.00833335
0.00833335
0.00833335
0.00833335
0.00833335
0.00833335
0.00833335
0.00833335
0.00833335
0.00833335
0.00833335
0.00833335
0.00833335
0.00833335
0.00833335
0.00833335
0.00833335
0.00833335
0.00833335
0.00833335
0.00833335
0.00833335
0.00833335
0.00833335
0.00833335
0.00833335
0.00833335
0.00833335
0.00833335
0.00833335
0.00833335
0.00833335
0.00833335
0.00833334
0.00833372
0.00834404
0.00833234
0.00265059
0.00188984
0.00120702
0.00115835
0.00108857
0.00103536
0.000990772
0.000940714
0.000860596
0.000799834
0.000742806
0.000722148
0.000696932
0.000671188
0.000650604
0.000629998
0.0006043
0.000583694
0.000562965
0.000542516
0.000519647
0.000508932
0.000485919
0.000465353
0.000449919
0.000434496
0.000413911
0.000403604
0.000389604
0.000376182
0.000367583
0.000357359
0.000362406
0.000362446
0.000367584
0.00833335
0.00833335
0.00833335
0.00833335
0.00833335
0.00833335
0.00833335
0.00833335
0.00833335
0.00833335
0.00833335
0.00833335
0.00833335
0.00833335
0.00833335
0.00833335
0.00833335
0.00833335
0.00833335
0.00833335
0.00833335
0.00833335
0.00833335
0.00833335
0.00833335
0.00833335
0.00833335
0.00833335
0.00833335
0.00833335
0.00833335
0.00833335
0.00833335
0.00833335
0.00833335
0.00833335
0.00833335
0.00833335
0.00833335
0.00833335
0.00833335
0.00833335
0.00833335
0.00833335
0.00833335
0.00833335
0.00833335
0.00833335
0.00833335
0.00833335
0.00833335
0.00833335
0.00833335
0.00833335
0.00833335
0.00833335
0.00833335
0.00833335
0.00833334
0.00833917
0.00833752
0.00414445
0.00194731
0.000928447
0.000902739
0.000877022
0.000856439
0.000830684
0.000810124
0.000777036
0.000766661
0.000732939
0.000717501
0.000691773
0.000671148
0.000645523
0.000625053
0.00060048
0.000584203
0.000563125
0.000542507
0.00052188
0.0005067
0.00048405
0.000466041
0.000451424
0.000434481
0.000415915
0.000403687
0.000388254
0.000377864
0.00037273
0.000362438
0.000362438
0.000367584
0.000367584
0.00833335
0.00833335
0.00833335
0.00833335
0.00833335
0.00833335
0.00833335
0.00833335
0.00833335
0.00833335
0.00833335
0.00833335
0.00833335
0.00833335
0.00833335
0.00833335
0.00833335
0.00833335
0.00833335
0.00833335
0.00833335
0.00833335
0.00833335
0.00833335
0.00833335
0.00833335
0.00833335
0.00833335
0.00833335
0.00833335
0.00833335
0.00833335
0.00833335
0.00833335
0.00833335
0.00833335
0.00833335
0.00833335
0.00833335
0.00833335
0.00833335
0.00833335
0.00833335
0.00833335
0.00833335
0.00833335
0.00833335
0.00833335
0.00833335
0.00833335
0.00833335
0.00833335
0.00833335
0.00833335
0.00833335
0.00833335
0.00833335
0.00833335
0.00833335
0.00832964
0.00833356
0.0071564
0.00128873
0.00092848
0.000902751
0.000876892
0.000856651
0.000830666
0.000804992
0.000779239
0.000758678
0.000732939
0.000712491
0.000691772
0.000669509
0.000650271
0.000623306
0.000601577
0.000581026
0.000563126
0.000542533
0.000522593
0.000503599
0.000489839
0.000465265
0.000449785
0.000434322
0.000419039
0.000403606
0.000388093
0.000377629
0.000372136
0.000363588
0.000362438
0.000367584
0.000367584
0.00833335
0.00833335
0.00833335
0.00833335
0.00833335
0.00833335
0.00833335
0.00833335
0.00833335
0.00833335
0.00833335
0.00833335
0.00833335
0.00833335
0.00833335
0.00833335
0.00833335
0.00833335
0.00833335
0.00833335
0.00833335
0.00833335
0.00833335
0.00833335
0.00833335
0.00833335
0.00833335
0.00833335
0.00833335
0.00833335
0.00833335
0.00833335
0.00833335
0.00833335
0.00833335
0.00833335
0.00833335
0.00833335
0.00833335
0.00833335
0.00833335
0.00833335
0.00833335
0.00833335
0.00833335
0.00833335
0.00833335
0.00833335
0.00833335
0.00833335
0.00833335
0.00833335
0.00833335
0.00833335
0.00833335
0.00833335
0.00833335
0.00833335
0.0083329
0.00830473
0.00915072
0.0076158
0.00119088
0.000923284
0.00090325
0.000876561
0.000856377
0.000830712
0.000804965
0.000777284
0.000765035
0.000738085
0.000717243
0.000691774
0.000671188
0.000650605
0.000631078
0.000609485
0.000577905
0.000566697
0.000542503
0.000520401
0.000507572
0.000486033
0.000465806
0.00044304
0.00043712
0.000416853
0.000402227
0.00038859
0.000376435
0.000374406
0.000362183
0.000362438
0.000367586
0.000367583
0.00833335
0.00833335
0.00833335
0.00833335
0.00833335
0.00833335
0.00833335
0.00833335
0.00833335
0.00833335
0.00833335
0.00833335
0.00833335
0.00833335
0.00833335
0.00833335
0.00833335
0.00833335
0.00833335
0.00833335
0.00833335
0.00833335
0.00833335
0.00833335
0.00833335
0.00833335
0.00833335
0.00833335
0.00833335
0.00833335
0.00833335
0.00833335
0.00833335
0.00833335
0.00833335
0.00833335
0.00833335
0.00833335
0.00833335
0.00833335
0.00833335
0.00833335
0.00833335
0.00833335
0.00833335
0.00833335
0.00833335
0.00833335
0.00833335
0.00833335
0.00833335
0.00833335
0.00833335
0.00833335
0.00833335
0.00833335
0.00833335
0.00833334
0.00833075
0.00833608
0.00833315
0.0072841
0.00505034
0.00092402
0.00090205
0.000877011
0.000857308
0.000824695
0.000805166
0.000784396
0.000758739
0.00073813
0.000720472
0.000691049
0.00067259
0.000651343
0.000624322
0.000604287
0.000583709
0.000565124
0.000540932
0.000521957
0.000506348
0.000485138
0.000465362
0.00044993
0.000432183
0.000421456
0.000403753
0.000388169
0.000377877
0.000372969
0.000362463
0.000362436
0.000367486
0.000367673
0.00833335
0.00833335
0.00833335
0.00833335
0.00833335
0.00833335
0.00833335
0.00833335
0.00833335
0.00833335
0.00833335
0.00833335
0.00833335
0.00833335
0.00833335
0.00833335
0.00833335
0.00833335
0.00833335
0.00833335
0.00833335
0.00833335
0.00833335
0.00833335
0.00833335
0.00833335
0.00833335
0.00833335
0.00833335
0.00833335
0.00833335
0.00833335
0.00833335
0.00833335
0.00833335
0.00833335
0.00833335
0.00833335
0.00833335
0.00833335
0.00833335
0.00833335
0.00833335
0.00833335
0.00833335
0.00833335
0.00833335
0.00833335
0.00833335
0.00833335
0.00833335
0.00833335
0.00833335
0.00833335
0.00833335
0.00833335
0.00833335
0.00833304
0.00833352
0.00833165
0.00833296
0.00833348
0.00621326
0.000923321
0.000897614
0.000878623
0.000847999
0.000828079
0.000804613
0.000779197
0.000758194
0.000733031
0.000712364
0.000691767
0.000672777
0.000645852
0.000624876
0.000604335
0.000583706
0.000563124
0.000542002
0.000522737
0.000506523
0.00048731
0.000462844
0.000452091
0.00043448
0.000419106
0.000404552
0.000387778
0.000377412
0.000372943
0.000362439
0.000362439
0.000362438
0.000362438
0.00833335
0.00833335
0.00833335
0.00833335
0.00833335
0.00833335
0.00833335
0.00833335
0.00833335
0.00833335
0.00833335
0.00833335
0.00833335
0.00833335
0.00833335
0.00833335
0.00833335
0.00833335
0.00833335
0.00833335
0.00833335
0.00833335
0.00833335
0.00833335
0.00833335
0.00833335
0.00833335
0.00833335
0.00833335
0.00833335
0.00833335
0.00833335
0.00833335
0.00833335
0.00833335
0.00833335
0.00833335
0.00833335
0.00833335
0.00833335
0.00833335
0.00833335
0.00833335
0.00833335
0.00833335
0.00833335
0.00833335
0.00833335
0.00833335
0.00833335
0.00833335
0.00833335
0.00833335
0.00833335
0.00833335
0.00833335
0.00833335
0.00833334
0.00833344
0.00833339
0.00839237
0.00832632
0.00176084
0.000928493
0.000899934
0.000876773
0.000854076
0.000826209
0.000809764
0.000779354
0.000759376
0.000738085
0.000712356
0.000691772
0.000673545
0.000648405
0.000630022
0.000604291
0.000583618
0.000563168
0.000542541
0.00052712
0.000506525
0.000487816
0.000467696
0.000449917
0.00043448
0.000419041
0.000403605
0.000388167
0.000377876
0.00037273
0.000363483
0.000363265
0.000368101
0.000362357
0.00833335
0.00833335
0.00833335
0.00833335
0.00833335
0.00833335
0.00833335
0.00833335
0.00833335
0.00833335
0.00833335
0.00833335
0.00833335
0.00833335
0.00833335
0.00833335
0.00833335
0.00833335
0.00833335
0.00833335
0.00833335
0.00833335
0.00833335
0.00833335
0.00833335
0.00833335
0.00833335
0.00833335
0.00833335
0.00833335
0.00833335
0.00833335
0.00833335
0.00833335
0.00833335
0.00833335
0.00833335
0.00833335
0.00833335
0.00833335
0.00833335
0.00833335
0.00833335
0.00833335
0.00833335
0.00833335
0.00833335
0.00833335
0.00833335
0.00833335
0.00833335
0.00833335
0.00833335
0.00833335
0.00833335
0.00833335
0.00833335
0.00833335
0.00833649
0.00833002
0.00829057
0.00270962
0.00127376
0.000990254
0.000938404
0.000897605
0.000882162
0.00083071
0.00080867
0.000784132
0.000765576
0.000738087
0.000717502
0.000691449
0.00067478
0.000646476
0.000630019
0.000611811
0.00058161
0.00056529
0.000545176
0.000525502
0.000503577
0.000487639
0.000471113
0.000449403
0.00043448
0.000419029
0.000403997
0.000386806
0.000377528
0.000372713
0.00036176
0.00036308
0.000367581
0.000367584
0.00833335
0.00833335
0.00833335
0.00833335
0.00833335
0.00833335
0.00833335
0.00833335
0.00833335
0.00833335
0.00833335
0.00833335
0.00833335
0.00833335
0.00833335
0.00833335
0.00833335
0.00833335
0.00833335
0.00833335
0.00833335
0.00833335
0.00833335
0.00833335
0.00833335
0.00833335
0.00833335
0.00833335
0.00833335
0.00833335
0.00833335
0.00833335
0.00833335
0.00833335
0.00833335
0.00833335
0.00833335
0.00833335
0.00833335
0.00833335
0.00833335
0.00833335
0.00833335
0.00833335
0.00833335
0.00833335
0.00833335
0.00833335
0.00833335
0.00833335
0.00833335
0.00833335
0.00833335
0.00833335
0.00833335
0.00833335
0.00833335
0.00833335
0.00833333
0.00834674
0.00760965
0.00345679
0.00750382
0.00308057
0.00375856
0.00287445
0.00282632
0.00269957
0.00257476
0.00241614
0.00220987
0.00197384
0.00171561
0.00154905
0.00135831
0.00108913
0.000907868
0.000799826
0.000681769
0.00061465
0.000568025
0.000531874
0.000511653
0.000486464
0.00046165
0.000451964
0.000434433
0.000422375
0.000400848
0.000386915
0.000378519
0.000368356
0.000357403
0.000362455
0.000362329
0.000367697
0.00833335
0.00833335
0.00833335
0.00833335
0.00833335
0.00833335
0.00833335
0.00833335
0.00833335
0.00833335
0.00833335
0.00833335
0.00833335
0.00833335
0.00833335
0.00833335
0.00833335
0.00833335
0.00833335
0.00833335
0.00833335
0.00833335
0.00833335
0.00833335
0.00833335
0.00833335
0.00833335
0.00833335
0.00833335
0.00833335
0.00833335
0.00833335
0.00833335
0.00833335
0.00833335
0.00833335
0.00833335
0.00833335
0.00833335
0.00833335
0.00833335
0.00833335
0.00833335
0.00833335
0.00833335
0.00833335
0.00833335
0.00833335
0.00833335
0.00833335
0.00833335
0.00833335
0.00833335
0.00833335
0.00833335
0.00833335
0.00833335
0.00833335
0.00833334
0.00834008
0.00732272
0.00738949
0.00827196
0.008254
0.00822348
0.00825342
0.00837002
0.00824906
0.00843966
0.00824942
0.00827606
0.00817993
0.00830337
0.00836861
0.00807895
0.00785366
0.00794673
0.00787137
0.00764332
0.00596051
0.00507893
0.00402159
0.00347031
0.00267115
0.00157354
0.00114304
0.000563165
0.000491285
0.000444923
0.000404996
0.000377913
0.000372738
0.00036234
0.000357345
0.000362463
0.000362438
0.00833335
0.00833335
0.00833335
0.00833335
0.00833335
0.00833335
0.00833335
0.00833335
0.00833335
0.00833335
0.00833335
0.00833335
0.00833335
0.00833335
0.00833335
0.00833335
0.00833335
0.00833335
0.00833335
0.00833335
0.00833335
0.00833335
0.00833335
0.00833335
0.00833335
0.00833335
0.00833335
0.00833335
0.00833335
0.00833335
0.00833335
0.00833335
0.00833335
0.00833335
0.00833335
0.00833335
0.00833335
0.00833335
0.00833335
0.00833335
0.00833335
0.00833335
0.00833335
0.00833335
0.00833335
0.00833335
0.00833335
0.00833335
0.00833335
0.00833335
0.00833335
0.00833335
0.00833335
0.00833335
0.00833335
0.00833335
0.00833335
0.00833335
0.00833335
0.00831881
0.00952695
0.00826796
0.00833228
0.00878102
0.00696573
0.00828394
0.00779771
0.00857824
0.0083373
0.00820851
0.00828496
0.0077883
0.00854937
0.00833865
0.00833678
0.00910497
0.00693596
0.00922608
0.0071871
0.0085872
0.00897245
0.00833012
0.00775201
0.00852266
0.00702769
0.00798604
0.00715355
0.00691446
0.00552845
0.00481364
0.00397651
0.0011945
0.000369906
0.000350476
0.000362092
0.00036273
0.00833335
0.00833335
0.00833335
0.00833335
0.00833335
0.00833335
0.00833335
0.00833335
0.00833335
0.00833335
0.00833335
0.00833335
0.00833335
0.00833335
0.00833335
0.00833335
0.00833335
0.00833335
0.00833335
0.00833335
0.00833335
0.00833335
0.00833335
0.00833335
0.00833335
0.00833335
0.00833335
0.00833335
0.00833335
0.00833335
0.00833335
0.00833335
0.00833335
0.00833335
0.00833335
0.00833335
0.00833335
0.00833335
0.00833335
0.00833335
0.00833335
0.00833335
0.00833335
0.00833335
0.00833335
0.00833335
0.00833335
0.00833335
0.00833335
0.00833335
0.00833335
0.00833335
0.00833335
0.00833335
0.00833335
0.00833335
0.00833335
0.00833335
0.00833335
0.00828978
0.0089803
0.00826706
0.00829913
0.00831792
0.00831425
0.0083235
0.00834794
0.00829821
0.0082555
0.00847677
0.00824181
0.00829965
0.00830425
0.00822743
0.00841085
0.00834594
0.0083184
0.00830986
0.00835504
0.00828888
0.00826434
0.00830958
0.00822392
0.00786066
0.00857876
0.00833136
0.00832431
0.00832479
0.00822167
0.00758507
0.0080257
0.00859092
0.00833341
0.00835516
0.00830641
0.00805918
0.00833335
0.00833335
0.00833335
0.00833335
0.00833335
0.00833335
0.00833335
0.00833335
0.00833335
0.00833335
0.00833335
0.00833335
0.00833335
0.00833335
0.00833335
0.00833335
0.00833335
0.00833335
0.00833335
0.00833335
0.00833335
0.00833335
0.00833335
0.00833335
0.00833335
0.00833335
0.00833335
0.00833335
0.00833335
0.00833335
0.00833335
0.00833335
0.00833335
0.00833335
0.00833335
0.00833335
0.00833335
0.00833335
0.00833335
0.00833335
0.00833335
0.00833335
0.00833335
0.00833335
0.00833335
0.00833335
0.00833335
0.00833335
0.00833335
0.00833335
0.00833335
0.00833335
0.00833335
0.00833335
0.00833335
0.00833335
0.00833335
0.00833276
0.0083339
0.00829997
0.00880758
0.00840488
0.0081252
0.00839685
0.00819136
0.00834544
0.00833021
0.00832598
0.00830259
0.00828271
0.00834041
0.00830513
0.00833323
0.00833604
0.00833291
0.00833455
0.00833753
0.00833356
0.0083369
0.00833655
0.0083202
0.00831016
0.0083221
0.00829382
0.008321
0.0083322
0.008316
0.00832025
0.00832939
0.00833204
0.00833247
0.00835399
0.0083803
0.00822102
0.0083586
0.00833334
0.00833335
0.00833335
0.00833335
0.00833335
0.00833335
0.00833335
0.00833335
0.00833335
0.00833335
0.00833335
0.00833335
0.00833335
0.00833335
0.00833335
0.00833335
0.00833335
0.00833335
0.00833335
0.00833335
0.00833335
0.00833335
0.00833335
0.00833335
0.00833335
0.00833335
0.00833335
0.00833335
0.00833335
0.00833335
0.00833335
0.00833335
0.00833335
0.00833335
0.00833335
0.00833335
0.00833335
0.00833335
0.00833335
0.00833335
0.00833335
0.00833335
0.00833335
0.00833335
0.00833335
0.00833335
0.00833335
0.00833335
0.00833335
0.00833335
0.00833335
0.00833335
0.00833335
0.00833335
0.00833335
0.00833335
0.00833335
0.00833335
0.00833334
0.00833294
0.00833035
0.00772958
0.00865109
0.00784945
0.00808299
0.00822369
0.00832729
0.00833825
0.00827317
0.00835587
0.00832948
0.00826046
0.0082457
0.00829281
0.00833457
0.00827836
0.00833696
0.00823857
0.00804753
0.00812738
0.00831861
0.00832199
0.00832834
0.0082973
0.00831879
0.00830691
0.00788384
0.0081235
0.0086862
0.00738257
0.00846796
0.00820925
0.00850484
0.00831749
0.00833363
0.00833141
0.00833302
0.00833335
0.00833335
0.00833335
0.00833335
0.00833335
0.00833335
0.00833335
0.00833335
0.00833335
0.00833335
0.00833335
0.00833335
0.00833335
0.00833335
0.00833335
0.00833335
0.00833335
0.00833335
0.00833335
0.00833335
0.00833335
0.00833335
0.00833335
0.00833335
0.00833335
0.00833335
0.00833335
0.00833335
0.00833335
0.00833335
0.00833335
0.00833335
0.00833335
0.00833335
0.00833335
0.00833335
0.00833335
0.00833335
0.00833335
0.00833335
0.00833335
0.00833335
0.00833335
0.00833335
0.00833335
0.00833335
0.00833335
0.00833335
0.00833335
0.00833335
0.00833335
0.00833335
0.00833335
0.00833335
0.00833335
0.00833335
0.00833335
0.00833335
0.00833333
0.00833153
0.00858176
0.00861324
0.00832944
0.00841268
0.00828116
0.00830064
0.00827566
0.0082438
0.0083003
0.00824327
0.00821802
0.0081551
0.00827874
0.00827522
0.00827108
0.00827845
0.00823716
0.00826943
0.00839175
0.00836895
0.00825996
0.0081165
0.00831647
0.00808126
0.00796717
0.0078653
0.00768378
0.00707347
0.00585867
0.00202996
0.00117286
0.000792165
0.000754494
0.000580436
0.000595229
0.000362181
0.00833335
0.00833335
0.00833335
0.00833335
0.00833335
0.00833335
0.00833335
0.00833335
0.00833335
0.00833335
0.00833335
0.00833335
0.00833335
0.00833335
0.00833335
0.00833335
0.00833335
0.00833335
0.00833335
0.00833335
0.00833335
0.00833335
0.00833335
0.00833335
0.00833335
0.00833335
0.00833335
0.00833335
0.00833335
0.00833335
0.00833335
0.00833335
0.00833335
0.00833335
0.00833335
0.00833335
0.00833335
0.00833335
0.00833335
0.00833335
0.00833335
0.00833335
0.00833335
0.00833335
0.00833335
0.00833335
0.00833335
0.00833335
0.00833335
0.00833335
0.00833335
0.00833335
0.00833335
0.00833335
0.00833335
0.00833335
0.00833335
0.00833335
0.00833334
0.00833302
0.00825284
0.00192022
0.00678983
0.00207799
0.0021618
0.00204085
0.00191681
0.00179292
0.00160929
0.00117641
0.00102866
0.000955206
0.000918618
0.000861771
0.00083064
0.000799828
0.000768823
0.000737964
0.000713487
0.00067294
0.000646257
0.000610277
0.00058675
0.000547647
0.000516759
0.000489301
0.000456653
0.000426539
0.000409773
0.000396358
0.000377884
0.000373024
0.000362316
0.000362465
0.000362472
0.000367584
0.00833335
0.00833335
0.00833335
0.00833335
0.00833335
0.00833335
0.00833335
0.00833335
0.00833335
0.00833335
0.00833335
0.00833335
0.00833335
0.00833335
0.00833335
0.00833335
0.00833335
0.00833335
0.00833335
0.00833335
0.00833335
0.00833335
0.00833335