/*--------------------------------*- C++ -*----------------------------------*\
| =========                 |                                                 |
| \\      /  F ield         | OpenFOAM: The Open Source CFD Toolbox           |
|  \\    /   O peration     | Version:  2.3.0                                 |
|   \\  /    A nd           | Web:      www.OpenFOAM.org                      |
|    \\/     M anipulation  |                                                 |
\*---------------------------------------------------------------------------*/
FoamFile
{
    version     2.0;
    format      ascii;
    class       volScalarField;
    location    "8";
    object      nut.water;
}
// * * * * * * * * * * * * * * * * * * * * * * * * * * * * * * * * * * * * * //

dimensions      [0 2 -1 0 0 0 0];

internalField   nonuniform List<scalar> 
6144
(
3.87744e-06
3.00493e-06
2.58292e-06
2.5635e-06
2.47432e-06
2.46702e-06
2.44743e-06
2.4442e-06
2.42945e-06
2.42372e-06
2.41329e-06
2.40934e-06
2.40382e-06
2.40251e-06
2.40038e-06
2.40115e-06
2.40106e-06
2.40272e-06
2.40388e-06
2.40592e-06
2.40763e-06
2.40973e-06
2.41173e-06
2.41382e-06
2.41594e-06
2.4181e-06
2.42028e-06
2.42249e-06
2.42473e-06
2.42701e-06
2.42931e-06
2.43165e-06
2.43397e-06
2.43643e-06
2.43882e-06
2.44159e-06
2.44414e-06
2.44748e-06
2.45075e-06
2.45514e-06
2.46057e-06
2.46753e-06
2.47645e-06
2.49047e-06
2.50388e-06
2.53096e-06
2.57472e-06
2.91325e-06
4.41108e-06
7.65926e-06
1.23456e-05
1.49742e-05
1.69606e-05
1.95588e-05
2.5499e-05
3.50537e-05
4.27874e-05
5.68947e-05
8.05484e-05
9.8743e-05
0.000158423
0.000119233
0.000103505
8.93587e-05
8.0779e-05
7.50655e-05
7.05799e-05
6.68151e-05
6.365e-05
6.08709e-05
5.83307e-05
5.60285e-05
5.38951e-05
5.20331e-05
5.03811e-05
4.88539e-05
4.75599e-05
4.6271e-05
4.50448e-05
4.38938e-05
4.23078e-05
4.09931e-05
3.88577e-05
3.63504e-05
3.36231e-05
2.66106e-05
1.43852e-05
8.16099e-06
7.58789e-06
6.77282e-06
5.40649e-06
4.66888e-06
4.20345e-06
3.81542e-06
3.48241e-06
3.07256e-06
6.19891e-06
4.65813e-06
3.14385e-06
3.05052e-06
2.6307e-06
2.61025e-06
2.53751e-06
2.5557e-06
2.5059e-06
2.50724e-06
2.45704e-06
2.45567e-06
2.41977e-06
2.42298e-06
2.39763e-06
2.40476e-06
2.38904e-06
2.39604e-06
2.39091e-06
2.39699e-06
2.39877e-06
2.40487e-06
2.4104e-06
2.41717e-06
2.42444e-06
2.43238e-06
2.44073e-06
2.44941e-06
2.45846e-06
2.46777e-06
2.47737e-06
2.48711e-06
2.49718e-06
2.5071e-06
2.51842e-06
2.52829e-06
2.54165e-06
2.55187e-06
2.56855e-06
2.58109e-06
2.60208e-06
2.62373e-06
2.64756e-06
2.69518e-06
2.72106e-06
2.81071e-06
2.8949e-06
3.50074e-06
5.47401e-06
9.6236e-06
1.58939e-05
2.04904e-05
2.23495e-05
2.71426e-05
3.55539e-05
4.98235e-05
6.28214e-05
8.23928e-05
9.72132e-05
9.60056e-05
0.000139221
8.1345e-05
7.95234e-05
7.08708e-05
6.93931e-05
6.88414e-05
6.745e-05
6.58599e-05
6.41539e-05
6.22652e-05
6.02609e-05
5.82269e-05
5.62167e-05
5.44744e-05
5.28582e-05
5.14995e-05
5.02999e-05
4.91135e-05
4.80104e-05
4.68635e-05
4.53195e-05
4.39497e-05
4.16978e-05
3.91924e-05
3.63412e-05
2.91122e-05
1.7685e-05
1.27676e-05
1.33371e-05
1.26564e-05
9.36868e-06
6.34469e-06
5.02318e-06
4.2988e-06
3.80204e-06
2.94591e-06
8.26573e-06
7.03772e-06
4.70203e-06
4.44846e-06
3.47371e-06
3.34779e-06
3.16675e-06
3.23714e-06
3.13619e-06
3.15707e-06
3.00398e-06
2.99437e-06
2.8608e-06
2.86155e-06
2.77044e-06
2.78041e-06
2.71717e-06
2.72631e-06
2.69554e-06
2.70195e-06
2.69403e-06
2.70128e-06
2.70679e-06
2.71708e-06
2.72919e-06
2.74386e-06
2.76006e-06
2.7775e-06
2.79619e-06
2.81586e-06
2.83649e-06
2.85793e-06
2.8807e-06
2.90297e-06
2.93101e-06
2.95224e-06
2.98867e-06
3.00987e-06
3.05747e-06
3.08537e-06
3.14498e-06
3.19857e-06
3.26359e-06
3.39766e-06
3.46892e-06
3.72711e-06
3.84281e-06
4.44842e-06
6.15632e-06
1.04761e-05
1.71943e-05
2.3952e-05
2.65045e-05
3.16888e-05
4.2058e-05
6.22804e-05
6.87999e-05
8.77979e-05
8.52155e-05
8.20942e-05
0.000128984
7.19681e-05
6.9938e-05
6.2172e-05
6.41617e-05
6.43063e-05
6.37133e-05
6.29805e-05
6.18433e-05
5.99898e-05
5.82459e-05
5.66018e-05
5.48264e-05
5.31723e-05
5.14899e-05
4.99962e-05
4.85229e-05
4.71474e-05
4.60444e-05
4.51899e-05
4.44248e-05
4.36013e-05
4.17894e-05
3.97001e-05
3.60368e-05
2.67544e-05
1.8413e-05
1.71907e-05
1.81643e-05
1.79572e-05
1.43553e-05
9.22048e-06
6.16615e-06
4.7914e-06
4.06784e-06
2.84999e-06
9.5125e-06
8.63568e-06
6.60846e-06
6.41648e-06
5.3016e-06
4.86666e-06
4.59526e-06
4.37686e-06
4.28228e-06
4.29774e-06
4.26732e-06
4.26504e-06
4.14984e-06
4.13362e-06
4.0021e-06
4.00333e-06
3.89989e-06
3.90809e-06
3.85222e-06
3.86081e-06
3.84287e-06
3.85515e-06
3.86382e-06
3.88279e-06
3.90529e-06
3.9332e-06
3.96405e-06
3.99723e-06
4.03258e-06
4.06958e-06
4.10815e-06
4.14844e-06
4.19116e-06
4.23395e-06
4.2866e-06
4.32769e-06
4.39632e-06
4.43688e-06
4.52718e-06
4.57695e-06
4.69492e-06
4.78262e-06
4.91609e-06
5.05269e-06
5.16301e-06
5.31579e-06
5.4336e-06
5.75308e-06
7.22021e-06
1.10563e-05
1.76513e-05
2.68882e-05
3.14439e-05
3.72861e-05
5.34622e-05
7.96579e-05
8.4089e-05
9.71584e-05
7.68118e-05
7.63356e-05
0.000127276
7.03505e-05
6.12383e-05
6.48916e-05
6.32723e-05
5.98841e-05
5.71423e-05
5.65106e-05
5.59342e-05
5.47895e-05
5.28314e-05
5.02315e-05
4.98552e-05
5.14494e-05
5.1945e-05
5.09916e-05
4.8854e-05
4.58732e-05
4.23318e-05
3.89677e-05
3.61346e-05
3.47295e-05
3.36814e-05
3.2068e-05
2.77795e-05
2.27695e-05
2.05982e-05
2.086e-05
2.15105e-05
2.07898e-05
1.71067e-05
1.16512e-05
7.47467e-06
5.42255e-06
4.45151e-06
2.7153e-06
1.04628e-05
9.85185e-06
7.49711e-06
7.46632e-06
6.28685e-06
5.7808e-06
5.34315e-06
4.72127e-06
4.60157e-06
4.61163e-06
4.69191e-06
4.71779e-06
4.7211e-06
4.72261e-06
4.7617e-06
4.79148e-06
4.82144e-06
4.85674e-06
4.88341e-06
4.91791e-06
4.94555e-06
4.97856e-06
5.01026e-06
5.04395e-06
5.07783e-06
5.11302e-06
5.14899e-06
5.18598e-06
5.22359e-06
5.26183e-06
5.30074e-06
5.34032e-06
5.38086e-06
5.4222e-06
5.46663e-06
5.50575e-06
5.55787e-06
5.59601e-06
5.65674e-06
5.69105e-06
5.76019e-06
5.77907e-06
5.85808e-06
5.88291e-06
5.97834e-06
6.00842e-06
6.12527e-06
6.28553e-06
8.01336e-06
1.24174e-05
1.97223e-05
2.99787e-05
3.88172e-05
4.73455e-05
7.70283e-05
0.000100807
0.000110351
0.00010747
7.58227e-05
7.71971e-05
0.000116483
7.34011e-05
6.71386e-05
6.56604e-05
6.42386e-05
6.41265e-05
6.47077e-05
6.55216e-05
6.65934e-05
6.74158e-05
6.84295e-05
6.94113e-05
7.02308e-05
6.9868e-05
6.86569e-05
6.71956e-05
6.4457e-05
6.08844e-05
5.61633e-05
5.09594e-05
4.52214e-05
4.04627e-05
3.66473e-05
3.28938e-05
2.99689e-05
2.79419e-05
2.69021e-05
2.60599e-05
2.52999e-05
2.31775e-05
1.90222e-05
1.37597e-05
9.26065e-06
6.45537e-06
4.82851e-06
2.75659e-06
1.12314e-05
1.11914e-05
7.76773e-06
7.88211e-06
6.51331e-06
6.12011e-06
5.53805e-06
4.69746e-06
4.43978e-06
4.39962e-06
4.51882e-06
4.62329e-06
4.72362e-06
4.76764e-06
4.90197e-06
4.96691e-06
5.09283e-06
5.15818e-06
5.24391e-06
5.30158e-06
5.36284e-06
5.41287e-06
5.4625e-06
5.5085e-06
5.55245e-06
5.5953e-06
5.6382e-06
5.68156e-06
5.72501e-06
5.76866e-06
5.81232e-06
5.85587e-06
5.89928e-06
5.94266e-06
5.98553e-06
6.02457e-06
6.06799e-06
6.10182e-06
6.14184e-06
6.15593e-06
6.18418e-06
6.1337e-06
6.16569e-06
6.10709e-06
6.1612e-06
6.08519e-06
6.15888e-06
6.43868e-06
8.81416e-06
1.4245e-05
2.26934e-05
3.51474e-05
5.46693e-05
7.63654e-05
0.000102808
0.000104937
0.000113577
0.00011143
8.2506e-05
8.61311e-05
0.000110445
8.25039e-05
8.07955e-05
8.13368e-05
8.1464e-05
8.14855e-05
8.20368e-05
8.24925e-05
8.30766e-05
8.35561e-05
8.40649e-05
8.44309e-05
8.47261e-05
8.44248e-05
8.37064e-05
8.28984e-05
8.18462e-05
8.02628e-05
7.79044e-05
7.50575e-05
7.1519e-05
6.70046e-05
6.26679e-05
5.78753e-05
5.37818e-05
4.91444e-05
4.47724e-05
3.90433e-05
3.46248e-05
3.04248e-05
2.56487e-05
2.03556e-05
1.49642e-05
9.73636e-06
6.29456e-06
2.93614e-06
1.21651e-05
1.29509e-05
8.02583e-06
8.4145e-06
6.97822e-06
6.96801e-06
5.77562e-06
5.19176e-06
4.61017e-06
4.439e-06
4.47742e-06
4.61737e-06
4.65078e-06
4.70883e-06
4.75041e-06
4.81251e-06
4.86732e-06
4.92856e-06
4.98459e-06
5.03996e-06
5.0938e-06
5.1446e-06
5.19468e-06
5.24302e-06
5.28937e-06
5.33414e-06
5.37734e-06
5.42005e-06
5.46254e-06
5.50541e-06
5.54865e-06
5.59274e-06
5.63735e-06
5.68392e-06
5.73093e-06
5.77439e-06
5.82639e-06
5.86844e-06
5.92783e-06
5.96797e-06
6.04111e-06
6.07779e-06
6.16109e-06
6.1921e-06
6.26435e-06
6.27791e-06
6.38703e-06
6.99038e-06
9.91459e-06
1.60586e-05
2.46465e-05
3.59624e-05
5.2993e-05
7.28112e-05
9.59703e-05
0.000116851
0.000120115
0.000119925
9.09869e-05
9.77377e-05
0.00010663
9.22524e-05
9.32344e-05
9.41565e-05
9.42777e-05
9.39058e-05
9.41209e-05
9.39201e-05
9.3905e-05
9.37543e-05
9.33223e-05
9.29125e-05
9.29203e-05
9.24807e-05
9.2013e-05
9.15787e-05
9.14762e-05
9.0844e-05
9.00066e-05
8.91957e-05
8.81701e-05
8.65305e-05
8.48909e-05
8.28224e-05
8.04411e-05
7.74036e-05
7.38385e-05
6.95683e-05
6.29652e-05
5.73857e-05
5.09523e-05
4.31572e-05
3.34712e-05
2.05068e-05
1.08161e-05
5.23718e-06
1.3238e-05
1.52907e-05
9.1646e-06
1.00882e-05
8.64002e-06
8.74112e-06
7.09423e-06
6.29966e-06
5.17189e-06
4.67905e-06
4.70401e-06
4.89554e-06
4.96072e-06
5.03887e-06
5.09828e-06
5.1854e-06
5.25796e-06
5.342e-06
5.41619e-06
5.49396e-06
5.56855e-06
5.64143e-06
5.71427e-06
5.78601e-06
5.85712e-06
5.92795e-06
5.99827e-06
6.06861e-06
6.13925e-06
6.21023e-06
6.28141e-06
6.35337e-06
6.42498e-06
6.49871e-06
6.56976e-06
6.64129e-06
6.71419e-06
6.78673e-06
6.866e-06
6.93782e-06
7.02415e-06
7.09298e-06
7.17912e-06
7.23046e-06
7.29537e-06
7.31365e-06
7.46247e-06
8.31349e-06
1.20834e-05
1.8718e-05
2.68758e-05
3.78682e-05
5.49505e-05
7.33676e-05
9.28966e-05
0.000119745
0.000132447
0.000142783
9.98023e-05
0.000107457
0.000112548
0.000103433
0.000105764
0.000107175
0.000105857
0.000105298
0.000104111
0.000102876
0.000101693
0.00010006
9.86135e-05
9.67225e-05
9.47965e-05
9.24106e-05
9.05599e-05
8.93737e-05
8.85397e-05
8.76504e-05
8.73184e-05
8.75695e-05
8.78156e-05
8.80153e-05
8.82179e-05
8.74858e-05
8.55663e-05
8.19683e-05
7.61308e-05
7.04609e-05
6.27425e-05
5.44882e-05
4.4626e-05
3.44668e-05
2.84767e-05
2.36998e-05
2.2107e-05
1.14669e-05
1.41491e-05
1.64218e-05
1.08923e-05
1.19195e-05
1.0129e-05
9.90375e-06
8.53143e-06
7.43146e-06
5.35177e-06
4.21167e-06
4.10527e-06
4.31482e-06
4.41481e-06
4.51702e-06
4.60677e-06
4.69914e-06
4.7853e-06
4.86825e-06
4.94671e-06
5.02035e-06
5.09217e-06
5.15902e-06
5.22568e-06
5.28998e-06
5.35306e-06
5.41513e-06
5.47608e-06
5.53613e-06
5.59537e-06
5.65395e-06
5.71186e-06
5.76985e-06
5.82709e-06
5.88571e-06
5.94134e-06
5.99765e-06
6.05207e-06
6.10254e-06
6.14686e-06
6.18793e-06
6.23354e-06
6.26866e-06
6.3006e-06
6.30735e-06
6.31087e-06
6.29706e-06
6.44597e-06
7.52691e-06
1.15412e-05
1.79351e-05
2.51944e-05
3.58882e-05
5.2584e-05
6.72379e-05
8.06952e-05
9.73172e-05
0.0001162
0.000138198
9.1006e-05
9.58304e-05
0.000112614
9.25928e-05
9.20013e-05
9.14235e-05
8.76588e-05
8.38542e-05
8.20526e-05
7.80126e-05
7.60391e-05
7.17104e-05
6.91076e-05
6.47346e-05
6.1161e-05
5.69676e-05
5.36012e-05
5.0739e-05
4.87702e-05
4.70603e-05
4.57441e-05
4.45788e-05
4.32543e-05
4.22191e-05
4.20066e-05
4.22195e-05
4.25205e-05
4.19432e-05
4.04366e-05
3.81651e-05
3.4946e-05
3.23642e-05
3.10325e-05
3.07218e-05
2.99803e-05
2.86837e-05
2.6394e-05
1.1315e-05
1.36669e-05
1.50772e-05
1.28129e-05
1.31079e-05
1.14766e-05
1.06669e-05
9.6929e-06
8.78299e-06
6.80853e-06
4.20209e-06
3.56979e-06
3.64381e-06
3.7328e-06
3.76997e-06
3.83916e-06
3.90611e-06
3.99904e-06
4.07456e-06
4.15938e-06
4.22975e-06
4.30255e-06
4.36675e-06
4.43179e-06
4.4938e-06
4.55459e-06
4.61415e-06
4.6728e-06
4.73073e-06
4.78802e-06
4.84474e-06
4.90103e-06
4.95755e-06
5.0141e-06
5.07171e-06
5.12729e-06
5.18454e-06
5.23843e-06
5.29161e-06
5.33443e-06
5.37542e-06
5.40929e-06
5.45114e-06
5.49196e-06
5.53271e-06
5.58783e-06
5.65577e-06
5.97747e-06
7.40539e-06
1.17946e-05
1.79993e-05
2.49697e-05
3.56649e-05
5.23997e-05
6.62416e-05
8.11086e-05
0.000100897
0.0001185
0.00012812
8.33168e-05
8.46046e-05
0.0001187
8.18076e-05
7.71978e-05
7.03372e-05
6.48276e-05
5.56533e-05
5.24816e-05
4.80003e-05
4.63298e-05
4.39418e-05
4.29511e-05
4.18395e-05
4.14078e-05
4.04492e-05
3.95329e-05
3.88543e-05
3.83182e-05
3.76238e-05
3.66564e-05
3.51792e-05
3.2965e-05
2.99213e-05
2.64505e-05
2.39987e-05
2.26383e-05
2.19647e-05
1.98495e-05
1.71107e-05
1.53388e-05
1.41279e-05
1.32954e-05
1.28075e-05
1.29283e-05
1.4126e-05
1.55025e-05
7.89811e-06
1.25576e-05
1.39219e-05
1.22526e-05
1.29691e-05
1.26915e-05
1.11855e-05
1.00263e-05
9.54188e-06
8.41221e-06
5.41045e-06
3.829e-06
3.64551e-06
3.68983e-06
3.71713e-06
3.72752e-06
3.75759e-06
3.79846e-06
3.84858e-06
3.90356e-06
3.9601e-06
4.01991e-06
4.07873e-06
4.14002e-06
4.2012e-06
4.26331e-06
4.32642e-06
4.39051e-06
4.45511e-06
4.51988e-06
4.5845e-06
4.64917e-06
4.7147e-06
4.78073e-06
4.84651e-06
4.91045e-06
4.97465e-06
5.0384e-06
5.10322e-06
5.16956e-06
5.23173e-06
5.30488e-06
5.37479e-06
5.45857e-06
5.52753e-06
5.6143e-06
5.69271e-06
6.00385e-06
7.41217e-06
1.15762e-05
1.75989e-05
2.34862e-05
3.17362e-05
4.79241e-05
6.19023e-05
8.04531e-05
9.70826e-05
0.000110693
0.00011794
8.33436e-05
8.14519e-05
0.000134031
7.62846e-05
6.37428e-05
5.54853e-05
5.25414e-05
4.25328e-05
4.22291e-05
4.09744e-05
4.01758e-05
3.90799e-05
3.77478e-05
3.66289e-05
3.62001e-05
3.65976e-05
3.76446e-05
3.87753e-05
3.95917e-05
3.99225e-05
3.97031e-05
3.9066e-05
3.78631e-05
3.54704e-05
3.09781e-05
2.33214e-05
1.77941e-05
1.54981e-05
1.46744e-05
1.2413e-05
1.08476e-05
1.00622e-05
9.69234e-06
9.63033e-06
9.87684e-06
1.13087e-05
1.31354e-05
7.17193e-06
1.50886e-05
1.38398e-05
1.38819e-05
1.397e-05
1.32876e-05
1.12861e-05
9.69152e-06
9.68946e-06
9.28505e-06
6.44073e-06
4.37307e-06
3.97672e-06
4.04739e-06
4.12004e-06
4.10624e-06
4.12362e-06
4.13867e-06
4.17563e-06
4.21098e-06
4.25528e-06
4.30004e-06
4.34568e-06
4.39287e-06
4.44116e-06
4.49068e-06
4.54186e-06
4.59468e-06
4.64898e-06
4.7047e-06
4.76154e-06
4.81948e-06
4.87847e-06
4.93739e-06
4.99671e-06
5.05492e-06
5.11222e-06
5.16735e-06
5.22046e-06
5.27457e-06
5.32338e-06
5.37852e-06
5.4262e-06
5.48651e-06
5.53323e-06
5.59956e-06
5.66944e-06
5.95908e-06
7.36571e-06
1.14158e-05
1.71093e-05
2.22073e-05
2.71532e-05
3.7913e-05
4.94406e-05
6.58555e-05
7.46111e-05
8.8196e-05
0.000108735
9.25697e-05
8.56256e-05
0.000136005
7.1338e-05
5.45054e-05
5.21191e-05
5.10204e-05
4.52936e-05
4.40696e-05
4.44156e-05
4.45925e-05
4.47956e-05
4.4552e-05
4.37689e-05
4.25485e-05
4.16567e-05
4.11808e-05
4.10305e-05
4.11409e-05
4.10642e-05
4.07504e-05
3.98687e-05
3.93551e-05
3.83639e-05
3.63719e-05
3.28015e-05
2.33645e-05
1.42899e-05
1.17756e-05
1.0724e-05
9.54567e-06
9.0195e-06
8.7391e-06
8.5243e-06
8.27761e-06
8.88779e-06
1.04311e-05
6.66745e-06
1.91549e-05
1.91647e-05
1.95388e-05
1.95097e-05
1.70726e-05
1.55021e-05
1.29425e-05
1.20265e-05
1.06845e-05
6.64506e-06
4.10894e-06
3.86134e-06
3.98104e-06
4.04242e-06
4.05258e-06
4.06815e-06
4.0963e-06
4.1233e-06
4.15471e-06
4.18676e-06
4.22151e-06
4.25691e-06
4.29383e-06
4.33146e-06
4.37047e-06
4.41253e-06
4.45637e-06
4.50181e-06
4.54882e-06
4.5971e-06
4.64624e-06
4.69651e-06
4.7474e-06
4.79893e-06
4.84929e-06
4.89803e-06
4.94395e-06
4.98805e-06
5.03254e-06
5.07336e-06
5.12098e-06
5.16399e-06
5.21777e-06
5.25996e-06
5.31943e-06
5.38439e-06
5.65721e-06
6.96118e-06
1.07562e-05
1.60573e-05
2.08463e-05
2.46806e-05
3.03476e-05
3.85526e-05
4.95224e-05
5.86688e-05
8.20415e-05
0.000101315
0.000108092
9.8014e-05
0.000144253
7.10092e-05
5.51597e-05
5.72596e-05
5.84192e-05
5.50993e-05
5.32083e-05
5.29959e-05
5.29355e-05
5.26594e-05
5.21688e-05
5.14563e-05
5.03801e-05
4.90395e-05
4.77201e-05
4.67567e-05
4.59478e-05
4.5033e-05
4.3894e-05
4.20858e-05
4.01461e-05
3.86011e-05
3.6802e-05
3.48661e-05
3.06545e-05
1.94847e-05
1.02676e-05
9.28134e-06
8.59363e-06
8.33611e-06
8.21725e-06
8.05592e-06
7.85711e-06
7.96851e-06
8.57413e-06
6.29105e-06
2.09619e-05
2.19789e-05
2.18751e-05
2.26877e-05
2.02896e-05
1.7777e-05
1.54723e-05
1.4222e-05
1.29029e-05
7.92562e-06
4.37968e-06
3.51779e-06
3.64428e-06
3.71808e-06
3.76254e-06
3.78401e-06
3.81371e-06
3.84093e-06
3.87125e-06
3.90258e-06
3.93559e-06
3.96905e-06
4.00355e-06
4.0388e-06
4.0746e-06
4.11119e-06
4.1492e-06
4.1883e-06
4.22846e-06
4.26936e-06
4.31036e-06
4.3515e-06
4.39307e-06
4.43562e-06
4.47764e-06
4.51901e-06
4.55752e-06
4.59549e-06
4.63286e-06
4.66899e-06
4.70966e-06
4.74763e-06
4.792e-06
4.82837e-06
4.87804e-06
4.93825e-06
5.17885e-06
6.28865e-06
9.63697e-06
1.44714e-05
1.90818e-05
2.30096e-05
2.8447e-05
3.66687e-05
4.19693e-05
5.51803e-05
8.02496e-05
9.96027e-05
0.000113544
0.000106731
0.000147182
7.51097e-05
7.16506e-05
6.89755e-05
6.95209e-05
6.80018e-05
6.51707e-05
6.30589e-05
6.14185e-05
6.0111e-05
5.87612e-05
5.74315e-05
5.61035e-05
5.46941e-05
5.32403e-05
5.17339e-05
5.00783e-05
4.8038e-05
4.58485e-05
4.34313e-05
4.06578e-05
3.87062e-05
3.68424e-05
3.43134e-05
3.14197e-05
2.46998e-05
1.29135e-05
7.98148e-06
8.01454e-06
8.13822e-06
8.13005e-06
7.99755e-06
7.72625e-06
7.32632e-06
6.8838e-06
5.39136e-06
2.14762e-05
2.30452e-05
2.21303e-05
2.28913e-05
2.09604e-05
1.83155e-05
1.59609e-05
1.47131e-05
1.31805e-05
8.55811e-06
5.04568e-06
3.41065e-06
3.22745e-06
3.26333e-06
3.30116e-06
3.31941e-06
3.33878e-06
3.35784e-06
3.37619e-06
3.39687e-06
3.41794e-06
3.44105e-06
3.46508e-06
3.49085e-06
3.51733e-06
3.5437e-06
3.57025e-06
3.597e-06
3.62406e-06
3.65132e-06
3.67832e-06
3.70495e-06
3.732e-06
3.7607e-06
3.78968e-06
3.81962e-06
3.84728e-06
3.87671e-06
3.90332e-06
3.93187e-06
3.95711e-06
3.98283e-06
4.00546e-06
4.02781e-06
4.05651e-06
4.11466e-06
4.36233e-06
5.31066e-06
7.68612e-06
1.13683e-05
1.55082e-05
2.06512e-05
2.66041e-05
3.23289e-05
3.85666e-05
5.10762e-05
7.86015e-05
9.89613e-05
0.000119292
0.000113773
0.000155941
9.08075e-05
8.53762e-05
7.15414e-05
6.82361e-05
6.69718e-05
6.55449e-05
6.42206e-05
6.29822e-05
6.18106e-05
6.05761e-05
5.92156e-05
5.77657e-05
5.62019e-05
5.45786e-05
5.28428e-05
5.09783e-05
4.87204e-05
4.61824e-05
4.34625e-05
4.04388e-05
3.76663e-05
3.53057e-05
3.25465e-05
2.98186e-05
2.51448e-05
1.52741e-05
7.62944e-06
7.22627e-06
7.54691e-06
7.60784e-06
7.49893e-06
7.25476e-06
6.83349e-06
6.05888e-06
4.93281e-06
1.75485e-05
1.83826e-05
1.83355e-05
1.86718e-05
1.68779e-05
1.60819e-05
1.48641e-05
1.37296e-05
1.08656e-05
7.22139e-06
4.52814e-06
3.07742e-06
2.84309e-06
2.8526e-06
2.87991e-06
2.8913e-06
2.90513e-06
2.91322e-06
2.92143e-06
2.92865e-06
2.93533e-06
2.94225e-06
2.94885e-06
2.95596e-06
2.96309e-06
2.97037e-06
2.9776e-06
2.98483e-06
2.99218e-06
2.99968e-06
3.00723e-06
3.01481e-06
3.02257e-06
3.03092e-06
3.03913e-06
3.04748e-06
3.05538e-06
3.06336e-06
3.07078e-06
3.0779e-06
3.08496e-06
3.09084e-06
3.09824e-06
3.10315e-06
3.11866e-06
3.15436e-06
3.36143e-06
4.09309e-06
5.64912e-06
7.81712e-06
1.05029e-05
1.4476e-05
1.95131e-05
2.35624e-05
2.89906e-05
3.57504e-05
5.15115e-05
6.4483e-05
8.96119e-05
0.000104673
0.000164001
0.00012642
0.000110538
9.44713e-05
8.40701e-05
7.73956e-05
7.26247e-05
6.89845e-05
6.60216e-05
6.35016e-05
6.12389e-05
5.91074e-05
5.70038e-05
5.48929e-05
5.27736e-05
5.0607e-05
4.83932e-05
4.58721e-05
4.30372e-05
4.00542e-05
3.6864e-05
3.38398e-05
3.12812e-05
2.86519e-05
2.56867e-05
2.23429e-05
1.61249e-05
8.74481e-06
6.02624e-06
6.12006e-06
6.19218e-06
6.11507e-06
5.94194e-06
5.61342e-06
5.06399e-06
4.45782e-06
4.72663e-06
3.65124e-06
2.98512e-06
2.96348e-06
2.72761e-06
2.70855e-06
2.64498e-06
2.64532e-06
2.59741e-06
2.5951e-06
2.5431e-06
2.53479e-06
2.50004e-06
2.49558e-06
2.47434e-06
2.4734e-06
2.46151e-06
2.46166e-06
2.45658e-06
2.4571e-06
2.45597e-06
2.45693e-06
2.45777e-06
2.4592e-06
2.46086e-06
2.46282e-06
2.46495e-06
2.46721e-06
2.46958e-06
2.47205e-06
2.47462e-06
2.47729e-06
2.47991e-06
2.48294e-06
2.48573e-06
2.48931e-06
2.49252e-06
2.49668e-06
2.50164e-06
2.50676e-06
2.51514e-06
2.52439e-06
2.53671e-06
2.55877e-06
2.57645e-06
2.62444e-06
2.66995e-06
3.03412e-06
4.55791e-06
7.83838e-06
1.21634e-05
1.48782e-05
1.68687e-05
2.13954e-05
2.89545e-05
3.92732e-05
5.20736e-05
6.78618e-05
7.96691e-05
9.61442e-05
0.000135106
0.000108596
9.81532e-05
8.92542e-05
8.27429e-05
7.8186e-05
7.45841e-05
7.14105e-05
6.85073e-05
6.57804e-05
6.3233e-05
6.08728e-05
5.86788e-05
5.6711e-05
5.49389e-05
5.3338e-05
5.18983e-05
5.04897e-05
4.91969e-05
4.77665e-05
4.62523e-05
4.45789e-05
4.25431e-05
4.02312e-05
3.75979e-05
3.43839e-05
2.92105e-05
2.1642e-05
1.5444e-05
1.30342e-05
7.86012e-06
4.52779e-06
4.1549e-06
3.9121e-06
3.67694e-06
3.34216e-06
9.0351e-06
6.79282e-06
4.47873e-06
4.33716e-06
3.25008e-06
3.10346e-06
2.8939e-06
2.95173e-06
2.80841e-06
2.87223e-06
2.52743e-06
2.44882e-06
2.22276e-06
2.18861e-06
2.02835e-06
2.01428e-06
1.90569e-06
1.8962e-06
1.83886e-06
1.82997e-06
1.80715e-06
1.80263e-06
1.79789e-06
1.79886e-06
1.80219e-06
1.80886e-06
1.81739e-06
1.82714e-06
1.83787e-06
1.84933e-06
1.86154e-06
1.87418e-06
1.8875e-06
1.90162e-06
1.91751e-06
1.93256e-06
1.95242e-06
1.96848e-06
1.99661e-06
2.01702e-06
2.05798e-06
2.09687e-06
2.14964e-06
2.24841e-06
2.32944e-06
2.57252e-06
2.71392e-06
3.81247e-06
8.59088e-06
1.84829e-05
2.94945e-05
3.57828e-05
4.65076e-05
6.65967e-05
0.000110894
0.000149034
0.000281783
0.000353427
0.000644335
0.000609927
2.97674e-05
3.64435e-05
0.000101158
0.000105046
0.000106602
0.000104767
0.000101873
9.92131e-05
9.68633e-05
9.57914e-05
9.46396e-05
9.37456e-05
9.32604e-05
9.34852e-05
9.3726e-05
9.37953e-05
9.28014e-05
9.10494e-05
8.86377e-05
8.32475e-05
7.76243e-05
7.0489e-05
6.25609e-05
5.60897e-05
4.96563e-05
4.38602e-05
3.86723e-05
3.05267e-05
2.67483e-05
2.52933e-05
1.89009e-05
8.06506e-06
4.40103e-06
4.52098e-06
4.54163e-06
2.81723e-06
1.52682e-05
1.27196e-05
1.14858e-05
1.16349e-05
9.07839e-06
8.15962e-06
7.19213e-06
6.7984e-06
6.50288e-06
6.76925e-06
6.16628e-06
5.82565e-06
5.16198e-06
5.00114e-06
4.48811e-06
4.39409e-06
3.99872e-06
3.93755e-06
3.71596e-06
3.66354e-06
3.55132e-06
3.51525e-06
3.47504e-06
3.46089e-06
3.4556e-06
3.46419e-06
3.4809e-06
3.50302e-06
3.52942e-06
3.55942e-06
3.59275e-06
3.63041e-06
3.67409e-06
3.71828e-06
3.7825e-06
3.828e-06
3.92046e-06
3.97078e-06
4.09502e-06
4.17328e-06
4.33039e-06
4.48795e-06
4.73682e-06
5.08853e-06
5.48936e-06
6.20283e-06
6.61202e-06
8.14875e-06
1.35164e-05
2.62732e-05
4.12468e-05
5.47937e-05
7.02108e-05
0.000100479
0.000146696
0.000152045
0.000281229
0.000340777
0.00049223
0.000395287
2.75136e-05
0.000103695
0.000174523
0.000141825
0.000134855
0.000128779
0.00012703
0.000128231
0.000128813
0.000130269
0.000131012
0.000131957
0.000130388
0.000129157
0.000125984
0.000123712
0.00012177
0.000120324
0.000117728
0.000113957
0.000109011
9.97496e-05
8.80325e-05
7.42522e-05
6.08589e-05
5.25982e-05
4.36666e-05
3.67736e-05
3.57193e-05
3.47483e-05
3.06177e-05
1.73963e-05
7.44352e-06
5.16967e-06
5.13639e-06
2.78083e-06
1.92463e-05
1.6963e-05
1.62045e-05
1.61365e-05
1.5755e-05
1.40447e-05
1.222e-05
9.95685e-06
8.87027e-06
8.35968e-06
8.4974e-06
8.71814e-06
8.28833e-06
8.12448e-06
7.93889e-06
7.87374e-06
7.74438e-06
7.7025e-06
7.57991e-06
7.54642e-06
7.47313e-06
7.45291e-06
7.42994e-06
7.4275e-06
7.43041e-06
7.44595e-06
7.46932e-06
7.49823e-06
7.53077e-06
7.56682e-06
7.60596e-06
7.65045e-06
7.70229e-06
7.75872e-06
7.83369e-06
7.89732e-06
8.0034e-06
8.07533e-06
8.21229e-06
8.29186e-06
8.46322e-06
8.56906e-06
8.73811e-06
8.9187e-06
9.00551e-06
9.15426e-06
9.49167e-06
1.12744e-05
1.99049e-05
3.51409e-05
4.98765e-05
6.80623e-05
8.3659e-05
0.000103183
0.000161175
0.000199428
0.00025935
0.000263848
0.00022671
0.000141641
2.61716e-05
0.000117792
0.000166763
0.000147838
0.00015328
0.000151747
0.00015394
0.000149027
0.000146277
0.000140656
0.000130947
0.000121373
0.000119315
0.000128428
0.000133784
0.000136531
0.000134496
0.000128775
0.00012031
0.000109903
9.77745e-05
8.48672e-05
7.19534e-05
5.97852e-05
5.03756e-05
4.40151e-05
3.9617e-05
3.88998e-05
4.06473e-05
3.87223e-05
3.32282e-05
2.12753e-05
1.0374e-05
5.38036e-06
4.58704e-06
2.98527e-06
2.42115e-05
1.81305e-05
1.74538e-05
1.74397e-05
1.80645e-05
1.76734e-05
1.63784e-05
1.19571e-05
9.60817e-06
8.79248e-06
9.01339e-06
9.48398e-06
9.07197e-06
8.9059e-06
8.68501e-06
8.63827e-06
8.63093e-06
8.6488e-06
8.69848e-06
8.72477e-06
8.7646e-06
8.78305e-06
8.80817e-06
8.82643e-06
8.84679e-06
8.86734e-06
8.89069e-06
8.91917e-06
8.95253e-06
8.99111e-06
9.03362e-06
9.07619e-06
9.12001e-06
9.16504e-06
9.21109e-06
9.25225e-06
9.31043e-06
9.36052e-06
9.42125e-06
9.47469e-06
9.54061e-06
9.63188e-06
9.74491e-06
9.93685e-06
1.00614e-05
1.02189e-05
1.05617e-05
1.27769e-05
2.22085e-05
3.8593e-05
5.34851e-05
7.17432e-05
9.55681e-05
0.000119549
0.000190744
0.000226628
0.000218777
0.000221443
7.15456e-05
5.74566e-05
2.11521e-05
0.000129436
0.000169239
0.000160974
0.000161366
0.000155109
0.00015222
0.00015162
0.000152815
0.000153374
0.000153593
0.000154397
0.000157082
0.000156375
0.000151886
0.000144755
0.000134777
0.000123167
0.000111175
9.8872e-05
8.58434e-05
7.41825e-05
6.25937e-05
5.43376e-05
4.91788e-05
4.57188e-05
4.34162e-05
4.36519e-05
4.28231e-05
3.9043e-05
3.18704e-05
2.07433e-05
1.07025e-05
5.72138e-06
4.2747e-06
3.37361e-06
3.59842e-05
2.02571e-05
1.80169e-05
1.77623e-05
1.91017e-05
1.94673e-05
1.95373e-05
1.60218e-05
1.15748e-05
9.18118e-06
8.96822e-06
9.85137e-06
9.95262e-06
9.81422e-06
9.42192e-06
9.33467e-06
9.10703e-06
9.08686e-06
9.04877e-06
9.0691e-06
9.10363e-06
9.13962e-06
9.18476e-06
9.22485e-06
9.26695e-06
9.31698e-06
9.37254e-06
9.42645e-06
9.47981e-06
9.53683e-06
9.59709e-06
9.65903e-06
9.72178e-06
9.7842e-06
9.84752e-06
9.90537e-06
9.98859e-06
1.00621e-05
1.01851e-05
1.03211e-05
1.0512e-05
1.07607e-05
1.09247e-05
1.10492e-05
1.10043e-05
1.09126e-05
1.10655e-05
1.34787e-05
2.29078e-05
3.99756e-05
5.48546e-05
7.25614e-05
0.000116165
0.000158187
0.000204501
0.000189196
0.000163359
0.000163884
2.81306e-05
3.25201e-05
2.92144e-05
0.000156546
0.000191001
0.000187715
0.000186008
0.000177841
0.000174785
0.000171927
0.000170564
0.000167955
0.000165067
0.000160139
0.00015244
0.000148016
0.000141954
0.000138034
0.000134538
0.000130648
0.00012572
0.000118679
0.000109973
0.000100783
9.07319e-05
7.96898e-05
7.03847e-05
6.07455e-05
5.26948e-05
4.56293e-05
3.80737e-05
3.26429e-05
2.57035e-05
1.69044e-05
9.84844e-06
5.58877e-06
4.39867e-06
4.18167e-06
4.27388e-05
2.51419e-05
1.98292e-05
1.88939e-05
1.89304e-05
1.91549e-05
1.96824e-05
1.76925e-05
1.43723e-05
1.02769e-05
9.12568e-06
9.82104e-06
1.00648e-05
1.00668e-05
9.96665e-06
1.00133e-05
9.93938e-06
9.9956e-06
9.96567e-06
1.00192e-05
1.00433e-05
1.00936e-05
1.01486e-05
1.02108e-05
1.02797e-05
1.03308e-05
1.0361e-05
1.03814e-05
1.04183e-05
1.04714e-05
1.05295e-05
1.05919e-05
1.06562e-05
1.07243e-05
1.07936e-05
1.08574e-05
1.09292e-05
1.09838e-05
1.1033e-05
1.1049e-05
1.11125e-05
1.11647e-05
1.1179e-05
1.11717e-05
1.10971e-05
1.1115e-05
1.11479e-05
1.3346e-05
2.32012e-05
4.04689e-05
5.66567e-05
7.26509e-05
0.000107045
0.000146648
0.000186496
0.000197031
0.000157039
0.00014106
3.13983e-05
3.83212e-05
4.55263e-05
0.000177838
0.000207091
0.000199701
0.00019659
0.00018588
0.000180777
0.000175091
0.000168913
0.000163712
0.000157435
0.000151588
0.000146384
0.000142771
0.000139883
0.000138203
0.000137331
0.000136778
0.000136075
0.000135463
0.000134537
0.000132142
0.000130146
0.000127163
0.000119755
0.000113027
0.000102834
9.70585e-05
8.41493e-05
7.40858e-05
6.34014e-05
5.18212e-05
3.71431e-05
1.82135e-05
5.91219e-06
6.44894e-06
4.29764e-05
3.35825e-05
2.37728e-05
1.93715e-05
1.91054e-05
1.8933e-05
1.96627e-05
1.79896e-05
1.53743e-05
1.06523e-05
9.15797e-06
9.83632e-06
9.99227e-06
1.00804e-05
9.96138e-06
9.99122e-06
9.96656e-06
1.00222e-05
1.00422e-05
1.00867e-05
1.01179e-05
1.01509e-05
1.01872e-05
1.02235e-05
1.02656e-05
1.03195e-05
1.03895e-05
1.0472e-05
1.05464e-05
1.06048e-05
1.0657e-05
1.07116e-05
1.07682e-05
1.08304e-05
1.08927e-05
1.09494e-05
1.10079e-05
1.1043e-05
1.10784e-05
1.11008e-05
1.11481e-05
1.11637e-05
1.11307e-05
1.10725e-05
1.09511e-05
1.08999e-05
1.08524e-05
1.28268e-05
2.27792e-05
4.04532e-05
5.67583e-05
7.2168e-05
0.000100967
0.000139005
0.000182209
0.000194914
0.000199909
0.000212055
3.7698e-05
4.39474e-05
5.40636e-05
0.000180819
0.00020588
0.000202741
0.000198533
0.000191838
0.000186976
0.000181894
0.000175254
0.000169652
0.000162706
0.000157387
0.000151046
0.00014787
0.000143567
0.000141687
0.000138219
0.000136603
0.000135268
0.000134112
0.000131798
0.000131929
0.000131596
0.000131498
0.000129614
0.000128003
0.000116197
0.000106705
9.12098e-05
7.55625e-05
6.06813e-05
4.54757e-05
2.87364e-05
1.79471e-05
1.0668e-05
3.22958e-06
3.69245e-05
4.41443e-05
3.47383e-05
2.12011e-05
1.84717e-05
1.82869e-05
1.94285e-05
1.77594e-05
1.55942e-05
1.06276e-05
8.09373e-06
8.96845e-06
9.71174e-06
9.87491e-06
9.79203e-06
9.80346e-06
9.79594e-06
9.82468e-06
9.83859e-06
9.85235e-06
9.86501e-06
9.87253e-06
9.88165e-06
9.89317e-06
9.91357e-06
9.93968e-06
9.96886e-06
9.99621e-06
1.00189e-05
1.00355e-05
1.00484e-05
1.00691e-05
1.00969e-05
1.01312e-05
1.01732e-05
1.02062e-05
1.02373e-05
1.02125e-05
1.01628e-05
1.00945e-05
1.00586e-05
9.96699e-06
9.8184e-06
9.75765e-06
9.59422e-06
9.41508e-06
9.18494e-06
1.06448e-05
2.07668e-05
3.86307e-05
5.57731e-05
7.06685e-05
9.71885e-05
0.000143633
0.000194923
0.000211405
0.000274701
0.00028342
3.54394e-05
3.65606e-05
4.22671e-05
0.000148581
0.000181328
0.00016737
0.000162734
0.000156148
0.000154332
0.000151725
0.000147689
0.000143116
0.000138692
0.000134999
0.000130732
0.000125046
0.000115695
0.000101989
9.62307e-05
8.96273e-05
8.31752e-05
7.84846e-05
7.05871e-05
6.20073e-05
5.25388e-05
4.34782e-05
3.9057e-05
3.56531e-05
3.44442e-05
3.40694e-05
3.44204e-05
3.59531e-05
3.67253e-05
3.70576e-05
3.50621e-05
3.36693e-05
3.20896e-05
1.58729e-05
3.01675e-05
4.76348e-05
4.00679e-05
2.90877e-05
2.10957e-05
2.04652e-05
2.14701e-05
2.07006e-05
1.78055e-05
1.08141e-05
6.89809e-06
6.79599e-06
8.3507e-06
8.83539e-06
8.69321e-06
8.633e-06
8.63468e-06
8.63121e-06
8.66533e-06
8.6575e-06
8.66878e-06
8.6731e-06
8.6876e-06
8.71201e-06
8.74787e-06
8.79255e-06
8.84431e-06
8.89849e-06
8.95122e-06
9.01123e-06
9.08279e-06
9.16905e-06
9.26036e-06
9.35914e-06
9.46472e-06
9.58178e-06
9.67935e-06
9.68854e-06
9.54414e-06
9.266e-06
8.82981e-06
8.70198e-06
8.653e-06
8.7233e-06
8.84906e-06
8.95373e-06
8.54473e-06
9.8262e-06
2.02145e-05