/*--------------------------------*- C++ -*----------------------------------*\
| =========                 |                                                 |
| \\      /  F ield         | OpenFOAM: The Open Source CFD Toolbox           |
|  \\    /   O peration     | Version:  2.3.0                                 |
|   \\  /    A nd           | Web:      www.OpenFOAM.org                      |
|    \\/     M anipulation  |                                                 |
\*---------------------------------------------------------------------------*/
FoamFile
{
    version     2.0;
    format      ascii;
    class       surfaceScalarField;
    location    "8";
    object      phi;
}
// * * * * * * * * * * * * * * * * * * * * * * * * * * * * * * * * * * * * * //

dimensions      [0 3 -1 0 0 0 0];

internalField   nonuniform List<scalar> 
16448
(
-1.80681e-06
-1.97455e-06
5.38645e-07
-4.57224e-07
-1.98194e-06
6.32357e-07
-2.48859e-07
-1.07927e-06
8.70901e-07
-4.63807e-08
-1.11186e-06
9.0938e-07
-7.08484e-08
-8.87768e-07
9.1223e-07
-8.26153e-08
-9.15209e-07
9.2697e-07
-1.22025e-07
-8.85916e-07
9.2532e-07
-1.42826e-07
-9.11317e-07
9.32113e-07
-1.6472e-07
-9.22933e-07
9.44824e-07
-1.5395e-07
-9.60164e-07
9.49391e-07
-1.50536e-07
-9.72635e-07
9.69218e-07
-1.21179e-07
-1.00714e-06
9.77784e-07
-1.05753e-07
-1.01342e-06
9.97995e-07
-7.72916e-08
-1.03638e-06
1.00791e-06
-6.3261e-08
-1.03869e-06
1.02466e-06
-4.35774e-08
-1.05245e-06
1.03277e-06
-3.46755e-08
-1.05366e-06
1.04475e-06
-2.40587e-08
-1.06166e-06
1.05104e-06
-1.96009e-08
-1.06337e-06
1.05891e-06
-1.49344e-08
-1.06842e-06
1.06375e-06
-1.33104e-08
-1.07055e-06
1.06892e-06
-1.18981e-08
-1.07397e-06
1.07256e-06
-1.16779e-08
-1.07629e-06
1.07607e-06
-1.16957e-08
-1.07889e-06
1.07891e-06
-1.20114e-08
-1.08116e-06
1.08147e-06
-1.23643e-08
-1.08335e-06
1.0837e-06
-1.26831e-08
-1.08546e-06
1.08577e-06
-1.27251e-08
-1.08751e-06
1.08754e-06
-1.19455e-08
-1.09009e-06
1.08931e-06
-1.12846e-08
-1.09136e-06
1.0907e-06
-8.87276e-09
-1.0947e-06
1.09229e-06
-7.08648e-09
-1.09509e-06
1.09329e-06
-1.70191e-09
-1.10002e-06
1.09463e-06
1.76036e-09
-1.09907e-06
1.0956e-06
1.15457e-08
-1.10607e-06
1.09628e-06
1.89516e-08
-1.10422e-06
1.09681e-06
3.27622e-08
-1.11104e-06
1.09722e-06
4.36062e-08
-1.10876e-06
1.09791e-06
5.80636e-08
-1.112e-06
1.09753e-06
6.28215e-08
-1.10493e-06
1.10017e-06
5.8407e-08
-1.09817e-06
1.10257e-06
2.08667e-08
-1.07518e-06
1.11271e-06
-5.9128e-08
-1.04711e-06
1.12709e-06
-2.18513e-07
-9.96648e-07
1.15602e-06
-4.62884e-07
-9.52394e-07
1.19676e-06
-8.22421e-07
-9.08966e-07
1.26849e-06
-1.28722e-06
-9.29498e-07
1.39429e-06
-1.92634e-06
-9.71259e-07
1.61037e-06
-2.56539e-06
-1.12261e-06
1.76165e-06
-3.37481e-06
-7.72144e-07
1.58156e-06
-5.22099e-06
4.66052e-07
1.38013e-06
-6.49883e-06
1.50651e-07
1.12719e-06
-3.93009e-06
-3.67744e-06
1.1087e-06
6.21289e-07
-5.83338e-06
1.28199e-06
4.11903e-06
-5.62159e-06
2.12384e-06
7.03663e-06
-4.74136e-06
1.82372e-06
5.80664e-06
-4.30823e-06
5.53818e-06
8.90216e-06
-3.84447e-06
7.48846e-07
-1.23123e-05
9.21363e-06
1.20006e-05
1.94932e-07
-6.32699e-06
-6.18034e-06
2.71209e-05
-2.66636e-05
-2.62339e-07
3.4131e-05
-1.32737e-05
6.26349e-06
3.30208e-05
-5.86631e-06
6.97655e-06
3.33265e-05
-6.08087e-06
5.77519e-06
3.41052e-05
-5.49407e-06
4.71531e-06
3.38543e-05
-3.87582e-06
4.12678e-06
3.24884e-05
-1.72876e-06
3.09466e-06
3.04543e-05
1.97859e-07
1.83617e-06
2.85903e-05
2.56528e-07
1.60755e-06
2.70306e-05
-7.35085e-07
2.29472e-06
2.52677e-05
-1.46499e-06
3.22787e-06
2.30811e-05
-1.54617e-06
3.73282e-06
2.08448e-05
-1.28327e-06
3.51955e-06
1.87307e-05
-1.1512e-06
3.26526e-06
1.68023e-05
-9.48149e-07
2.8766e-06
1.49714e-05
-8.56734e-07
2.68764e-06
1.31386e-05
-1.01316e-06
2.84596e-06
1.10758e-05
-6.53104e-07
2.71588e-06
9.31312e-06
-1.18832e-06
2.95098e-06
8.92178e-06
-2.94488e-06
3.33622e-06
1.06681e-05
-5.10501e-06
3.35869e-06
1.3162e-05
-5.49176e-06
2.99789e-06
1.55546e-05
-4.75607e-06
2.36347e-06
1.71418e-05
-3.19615e-06
1.60895e-06
1.77549e-05
-1.9506e-06
1.33746e-06
1.74926e-05
-9.04858e-07
1.16716e-06
1.65476e-05
-2.77452e-07
1.22241e-06
1.39548e-05
8.41236e-07
1.75156e-06
7.8344e-06
3.54766e-06
2.57277e-06
9.81545e-08
4.26097e-06
3.47528e-06
-6.16115e-06
2.01264e-06
4.24667e-06
-1.13391e-05
9.68729e-07
4.20925e-06
-1.40742e-05
1.37501e-06
1.36011e-06
-1.24646e-05
2.59081e-06
-4.20045e-06
-7.05873e-06
2.20209e-06
-7.60795e-06
1.0725e-06
-8.13123e-06
-2.22738e-06
-2.812e-06
-2.87865e-07
-9.29769e-07
-3.06754e-06
-2.1202e-07
-6.18951e-07
-1.6114e-06
2.21307e-07
-3.54338e-07
-1.69385e-06
3.17365e-07
-3.62692e-07
-1.21506e-06
3.35639e-07
-3.56781e-07
-1.26301e-06
3.41877e-07
-3.89988e-07
-1.18128e-06
3.28556e-07
-3.95954e-07
-1.23077e-06
3.25409e-07
-4.01148e-07
-1.24845e-06
3.307e-07
-3.69323e-07
-1.31828e-06
3.26286e-07
-3.43264e-07
-1.34241e-06
3.43712e-07
-2.91832e-07
-1.40525e-06
3.46668e-07
-2.57877e-07
-1.41605e-06
3.68668e-07
-2.11463e-07
-1.45819e-06
3.75387e-07
-1.84183e-07
-1.46116e-06
3.95182e-07
-1.51565e-07
-1.48688e-06
4.01797e-07
-1.34226e-07
-1.48786e-06
4.16847e-07
-1.15145e-07
-1.50355e-06
4.22799e-07
-1.0524e-07
-1.50652e-06
4.33233e-07
-9.5348e-08
-1.51666e-06
4.38337e-07
-9.03205e-08
-1.52061e-06
4.45018e-07
-8.5837e-08
-1.52749e-06
4.49019e-07
-8.33895e-08
-1.53194e-06
4.53189e-07
-8.16178e-08
-1.53694e-06
4.56258e-07
-8.05675e-08
-1.54122e-06
4.59005e-07
-7.9767e-08
-1.5454e-06
4.61237e-07
-7.92127e-08
-1.5493e-06
4.6327e-07
-7.85891e-08
-1.55303e-06
4.64887e-07
-7.76486e-08
-1.55725e-06
4.66204e-07
-7.63833e-08
-1.5601e-06
4.67452e-07
-7.37588e-08
-1.56567e-06
4.68327e-07
-7.12145e-08
-1.56697e-06
4.69319e-07
-6.54849e-08
-1.57519e-06
4.69422e-07
-6.04184e-08
-1.57464e-06
4.70485e-07
-4.9314e-08
-1.58626e-06
4.69065e-07
-4.02209e-08
-1.58365e-06
4.70314e-07
-2.17949e-08
-1.59671e-06
4.67224e-07
-8.41796e-09
-1.59135e-06
4.69194e-07
1.5388e-08
-1.60079e-06
4.64967e-07
2.71169e-08
-1.58709e-06
4.70401e-07
3.41811e-08
-1.57799e-06
4.72742e-07
3.17552e-09
-1.53775e-06
4.93548e-07
-7.9999e-08
-1.48688e-06
5.22923e-07
-2.67164e-07
-1.38654e-06
5.77032e-07
-5.84245e-07
-1.27776e-06
6.42427e-07
-1.05951e-06
-1.1638e-06
7.30068e-07
-1.72007e-06
-1.14224e-06
8.73276e-07
-2.75734e-06
-1.10622e-06
1.17221e-06
-3.98874e-06
-1.27281e-06
1.38159e-06
-4.69956e-06
-1.1313e-06
1.06996e-06
-4.05055e-06
-6.44638e-07
4.61664e-07
-1.67549e-06
-1.76143e-06
-4.62998e-07
4.01621e-06
-8.83081e-06
-5.38363e-07
1.06189e-05
-1.05584e-05
-1.8777e-06
1.35882e-05
-7.53889e-06
-1.05202e-06
1.77985e-05
-8.17163e-06
-7.80151e-07
1.8371e-05
-6.74355e-06
1.86281e-06
2.2395e-05
-7.48649e-06
-3.82078e-07
-4.28643e-06
1.58082e-05
2.00865e-05
-9.61801e-08
-7.76428e-06
-2.75314e-06
1.38063e-05
-3.41019e-05
-6.46415e-06
1.21925e-05
-1.74588e-05
5.79891e-06
1.12584e-05
-1.09377e-05
6.00551e-06
1.12635e-05
-9.49084e-06
3.40478e-06
1.17598e-05
-8.28856e-06
2.29826e-06
1.26791e-05
-4.82791e-06
3.2731e-08
1.26268e-05
1.25934e-07
-1.80237e-06
1.07193e-05
4.8554e-06
-2.75e-06
6.29773e-06
6.18578e-06
-1.5077e-06
-1.56279e-07
4.47501e-06
1.24391e-06
-5.78497e-06
2.42895e-06
1.73475e-06
-1.06972e-05
8.76954e-07
2.48916e-06
-1.38285e-05
-8.27061e-07
2.67502e-06
-1.49469e-05
-2.24697e-06
2.21418e-06
-1.46192e-05
-2.94297e-06
1.66719e-06
-1.30713e-05
-3.92131e-06
1.51664e-06
-1.11366e-05
-4.97238e-06
2.02447e-06
-9.11344e-06
-5.29789e-06
2.62167e-06
-6.35556e-06
-7.08378e-06
3.13758e-06
-3.22207e-06
-8.94164e-06
2.86327e-06
-1.11358e-07
-1.02194e-05
2.00366e-06
3.4822e-06
-1.00754e-05
9.90079e-07
7.16489e-06
-8.48519e-06
4.64286e-08
1.10723e-05
-5.25651e-06
-1.847e-06
1.40951e-05
-1.47835e-06
-3.49506e-06
1.51011e-05
1.51832e-06
-3.42922e-06
1.41494e-05
2.56133e-06
-1.88704e-06
1.12661e-05
4.29626e-06
-5.71757e-07
6.27272e-06
7.74628e-06
7.94751e-07
5.97117e-08
7.87114e-06
2.60284e-06
-5.76647e-06
4.22658e-06
3.61224e-06
-1.09198e-05
2.41675e-06
3.70535e-06
-1.38633e-05
2.87081e-06
1.44767e-06
-1.22667e-05
5.29994e-06
-4.30573e-06
-7.2394e-06
5.73939e-06
-8.56461e-06
4.59006e-06
-1.0757e-05
-2.55842e-06
-2.97952e-06
-5.09219e-07
-1.34937e-06
-3.56216e-06
-7.1443e-07
-9.84937e-07
-1.72298e-06
-2.52857e-07
-6.00507e-07
-1.96684e-06
-1.1145e-07
-4.89736e-07
-1.27353e-06
-5.23144e-08
-4.42027e-07
-1.32042e-06
9.69283e-09
-4.46827e-07
-1.16565e-06
-1.08337e-08
-4.49735e-07
-1.21506e-06
-1.28037e-08
-4.50951e-07
-1.21582e-06
-3.14157e-08
-4.18065e-07
-1.3005e-06
-5.06759e-08
-3.83075e-07
-1.32883e-06
-4.85783e-08
-3.26855e-07
-1.40774e-06
-5.37416e-08
-2.83569e-07
-1.41981e-06
-3.95356e-08
-2.33484e-07
-1.47233e-06
-3.59536e-08
-2.00971e-07
-1.47419e-06
-1.94946e-08
-1.66664e-07
-1.50666e-06
-1.45302e-08
-1.47463e-07
-1.50646e-06
-6.01112e-10
-1.28109e-07
-1.52558e-06
2.66625e-09
-1.17111e-07
-1.52586e-06
8.33536e-09
-1.06932e-07
-1.53714e-06
1.02957e-08
-1.01652e-07
-1.53967e-06
1.37753e-08
-9.70955e-08
-1.54699e-06
1.49371e-08
-9.47629e-08
-1.55081e-06
1.65251e-08
-9.30787e-08
-1.55573e-06
1.70972e-08
-9.22289e-08
-1.55961e-06
1.75213e-08
-9.16552e-08
-1.5635e-06
1.75129e-08
-9.1218e-08
-1.56708e-06
1.7335e-08
-9.07227e-08
-1.57041e-06
1.68747e-08
-9.01052e-08
-1.57412e-06
1.62398e-08
-8.90672e-08
-1.57679e-06
1.56418e-08
-8.71064e-08
-1.58236e-06
1.47185e-08
-8.46993e-08
-1.58325e-06
1.38623e-08
-7.95451e-08
-1.59258e-06
1.22204e-08
-7.41147e-08
-1.5914e-06
1.13148e-08
-6.31724e-08
-1.60582e-06
8.59874e-09
-5.20647e-08
-1.60227e-06
7.50101e-09
-3.15887e-08
-1.62084e-06
3.63867e-09
-1.24152e-08
-1.6131e-06
2.55583e-09
1.93113e-08
-1.62937e-06
-3.17375e-09
4.45781e-08
-1.61098e-06
-1.39092e-09
6.94498e-08
-1.60495e-06
2.06354e-09
6.29374e-08
-1.54938e-06
1.81222e-08
5.67742e-09
-1.48132e-06
5.16807e-08
-1.59463e-07
-1.33284e-06
1.11416e-07
-4.79106e-07
-1.15609e-06
1.97946e-07
-9.45808e-07
-9.84165e-07
2.87048e-07
-1.56432e-06
-9.0956e-07
3.85807e-07
-2.34677e-06
-8.70051e-07
5.46264e-07
-2.76064e-06
-1.48621e-06
6.27258e-07
-2.10251e-06
-2.21769e-06
4.28238e-07
2.62502e-07
-2.77694e-06
-2.32739e-07
4.64972e-06
-6.31117e-06
1.62501e-07
1.12442e-05
-1.377e-05
-1.65531e-06
1.63844e-05
-1.3486e-05
-2.21265e-06
1.73079e-05
-8.89623e-06
4.33801e-07
2.03252e-05
-1.11306e-05
-5.8309e-08
2.40956e-05
-9.52847e-06
-9.85481e-07
2.99377e-05
-1.43651e-05
1.03631e-06
-3.00649e-06
2.48186e-05
2.39332e-05
-1.22654e-07
-7.7718e-06
-2.87644e-06
7.84061e-06
-3.07262e-05
-1.13389e-05
4.21785e-06
-1.42113e-05
3.75269e-07
6.62293e-06
-1.10016e-05
-2.34124e-06
4.06518e-06
-6.82411e-06
-1.08994e-07
4.95304e-06
-5.2141e-06
-3.96232e-06
7.14874e-06
-9.30245e-07
-6.09337e-06
8.33266e-06
3.87772e-06
-4.93571e-06
6.60056e-06
8.97181e-06
-2.38431e-06
1.79284e-06
1.10915e-05
-9.79761e-08
-4.264e-06
9.12672e-06
1.40512e-06
-9.77002e-06
5.48399e-06
2.45098e-06
-1.27929e-05
1.85318e-06
2.04662e-06
-1.38916e-05
-1.39429e-06
1.66602e-06
-1.40164e-05
-2.9729e-06
8.5074e-07
-1.33455e-05
-3.89235e-06
2.78427e-07
-1.30262e-05
-4.71117e-06
4.70561e-07
-1.26015e-05
-6.1195e-06
7.22418e-07
-1.13449e-05
-6.98917e-06
4.34709e-07
-8.9841e-06
-9.00871e-06
-4.35885e-07
-6.36332e-06
-1.0506e-05
-1.05642e-06
-4.6883e-06
-1.15401e-05
-3.54329e-07
-2.25447e-06
-1.18221e-05
-6.87147e-07
2.21768e-06
-1.10778e-05
-1.87951e-06
7.8354e-06
-7.51827e-06
-3.35596e-06
1.26775e-05
-1.9534e-06
-4.36702e-06
1.45565e-05
3.69001e-06
-4.05075e-06
1.42131e-05
5.80117e-06
-2.89637e-06
1.0797e-05
8.61072e-06
-8.9841e-07
4.46618e-06
1.21314e-05
1.94572e-06
-1.31579e-06
1.01669e-05
3.48618e-06
-6.47977e-06
5.33871e-06
4.05185e-06
-1.12869e-05
3.73737e-06
3.48648e-06
-1.3808e-05
4.43578e-06
9.56183e-07
-1.19644e-05
7.11542e-06
-3.65911e-06
-7.1493e-06
9.19893e-06
-8.27463e-06
9.00061e-06
-1.15598e-05
-2.75896e-06
-2.64801e-06
-5.30708e-07
-1.62065e-06
-3.85259e-06
-8.47887e-07
-1.41894e-06
-1.55171e-06
-3.72991e-07
-9.9586e-07
-2.13409e-06
-2.55834e-07
-8.00973e-07
-1.24231e-06
-2.26123e-07
-6.68449e-07
-1.33346e-06
-1.19498e-07
-6.17235e-07
-1.06173e-06
-1.55143e-07
-5.97117e-07
-1.08881e-06
-1.46383e-07
-5.84562e-07
-1.03335e-06
-1.95031e-07
-5.45547e-07
-1.10659e-06
-2.32928e-07
-4.94881e-07
-1.12284e-06
-2.56662e-07
-4.28893e-07
-1.19905e-06
-2.7468e-07
-3.6746e-07
-1.20427e-06
-2.7698e-07
-3.08937e-07
-1.25222e-06
-2.78638e-07
-2.65021e-07
-1.24682e-06
-2.71289e-07
-2.26304e-07
-1.27688e-06
-2.68509e-07
-2.00706e-07
-1.27082e-06
-2.61247e-07
-1.78583e-07
-1.28856e-06
-2.59149e-07
-1.65034e-07
-1.28517e-06
-2.54253e-07
-1.53489e-07
-1.2953e-06
-2.53399e-07
-1.47052e-07
-1.29505e-06
-2.5107e-07
-1.41757e-07
-1.30116e-06
-2.51142e-07
-1.3897e-07
-1.30298e-06
-2.50623e-07
-1.3702e-07
-1.30648e-06
-2.51206e-07
-1.36027e-07
-1.30874e-06
-2.51871e-07
-1.35472e-07
-1.3111e-06
-2.52969e-07
-1.35256e-07
-1.31311e-06
-2.542e-07
-1.35025e-07
-1.31492e-06
-2.55737e-07
-1.34683e-07
-1.31707e-06
-2.57406e-07
-1.33869e-07
-1.31855e-06
-2.59069e-07
-1.32871e-07
-1.32286e-06
-2.60517e-07
-1.30883e-07
-1.32286e-06
-2.62396e-07
-1.26774e-07
-1.33154e-06
-2.65165e-07
-1.2178e-07
-1.32937e-06
-2.6704e-07
-1.1179e-07
-1.34478e-06
-2.71044e-07
-9.96312e-08
-1.34099e-06
-2.73459e-07
-7.77029e-08
-1.36357e-06
-2.79217e-07
-5.15049e-08
-1.35694e-06
-2.82379e-07
-1.02308e-08
-1.3832e-06
-2.8746e-07
3.21484e-08
-1.36766e-06
-2.85717e-07
8.17455e-08
-1.37949e-06
-2.75075e-07
1.14844e-07
-1.33489e-06
-2.47612e-07
1.11282e-07
-1.28441e-06
-1.93372e-07
1.95308e-09
-1.11237e-06
-1.11162e-07
-2.53408e-07
-8.78193e-07
-2.25599e-08
-6.15175e-07
-6.50014e-07
2.75915e-08
-1.06103e-06
-5.11672e-07
4.79405e-08
-1.28246e-06
-6.69325e-07
2.06859e-08
3.4237e-08
-2.41554e-06
-3.87396e-07
2.57077e-06
-3.93426e-06
-8.19992e-07
5.56918e-06
-5.00282e-06
-7.72559e-07
9.2765e-06
-9.64334e-06
-3.75182e-07
1.27867e-05
-1.27671e-05
-4.51323e-06
1.55703e-05
-1.05835e-05
-5.6861e-06
1.49793e-05
-7.29567e-06
-1.00954e-06
1.3961e-05
-9.85287e-06
-2.59569e-07
1.66334e-05
-1.04431e-05
-1.75768e-06
1.20429e-05
-1.30866e-05
3.3119e-06
-1.16196e-06
1.78606e-05
2.01621e-05
1.12226e-06
-4.6174e-06
-5.43862e-06
4.1878e-06
-2.14199e-05
-1.23717e-05
-2.86043e-06
-8.55752e-06
1.39449e-06
-3.4935e-06
-7.77142e-06
-2.59706e-06
-6.91945e-06
-2.97737e-06
-4.20783e-07
-6.75011e-06
-1.81466e-06
-3.56878e-06
-5.80827e-06
2.00905e-06
-3.88114e-06
-4.96999e-06
5.49726e-06
-2.45782e-06
-5.71277e-06
1.05039e-05
-7.89256e-07
-9.31943e-06
1.4042e-05
6.56123e-07
-1.42318e-05
1.2572e-05
1.46709e-06
-1.64466e-05
6.9211e-06
7.77685e-07
-1.47613e-05
8.41348e-08
8.37192e-08
-1.34787e-05
-3.21532e-06
5.38415e-07
-1.26487e-05
-4.58606e-06
7.83232e-07
-1.1795e-05
-5.57567e-06
8.29613e-07
-1.10109e-05
-6.35015e-06
8.54873e-07
-9.92181e-06
-7.46685e-06
2.58268e-07
-8.34762e-06
-8.40357e-06
-1.59803e-07
-6.9849e-06
-1.05967e-05
2.25241e-07
-6.1509e-06
-1.27184e-05
1.37844e-06
-6.47101e-06
-1.39675e-05
2.74754e-06
-6.95053e-06
-1.47582e-05
3.41562e-06
-6.24953e-06
-1.5452e-05
3.67316e-06
-3.72813e-06
-1.34624e-05
3.42274e-06
1.33603e-06
-8.60219e-06
1.58462e-06
5.09994e-06
-5.43751e-07
4.69854e-07
4.60649e-06
4.59628e-06
1.69834e-06
9.80563e-07
8.73283e-06
3.50383e-06
-3.04059e-06
1.0987e-05
5.16553e-06
-5.52795e-06
7.22528e-06
5.42901e-06
-8.94712e-06
4.80403e-06
3.95386e-06
-1.24425e-05
4.48572e-06
2.74707e-06
-1.37611e-05
5.92534e-06
-1.70973e-07
-1.17705e-05
8.97483e-06
-3.84999e-06
-7.12874e-06
1.2423e-05
-7.86589e-06
1.34363e-05
-1.15644e-05
-2.77181e-06
-2.2144e-06
-2.32132e-07
-1.56787e-06
-4.01354e-06
-1.04299e-06
-1.60238e-06
-1.22531e-06
-2.91899e-07
-1.18619e-06
-2.31479e-06
-2.35505e-07
-9.64696e-07
-1.25809e-06
-2.05714e-07
-7.67394e-07
-1.47171e-06
-5.90557e-08
-6.85336e-07
-1.02187e-06
-1.2193e-07
-6.37905e-07
-1.02564e-06
-1.10603e-07
-6.28063e-07
-8.47573e-07
-1.95626e-07
-6.03403e-07
-8.7244e-07
-2.58815e-07
-5.6105e-07
-8.40338e-07
-3.24859e-07
-5.00965e-07
-8.87782e-07
-3.7136e-07
-4.33922e-07
-8.70383e-07
-4.00937e-07
-3.767e-07
-8.92153e-07
-4.17294e-07
-3.2479e-07
-8.7313e-07
-4.25608e-07
-2.85844e-07
-8.86697e-07
-4.29135e-07
-2.54886e-07
-8.71873e-07
-4.29915e-07
-2.32391e-07
-8.80578e-07
-4.30488e-07
-2.15891e-07
-8.71497e-07
-4.30181e-07
-2.0407e-07
-8.76299e-07
-4.30826e-07
-1.95891e-07
-8.72263e-07
-4.30974e-07
-1.90192e-07
-8.7507e-07
-4.31794e-07
-1.86681e-07
-8.74201e-07
-4.32299e-07
-1.844e-07
-8.75448e-07
-4.33327e-07
-1.83125e-07
-8.75535e-07
-4.34489e-07
-1.82514e-07
-8.75867e-07
-4.35851e-07
-1.82422e-07
-8.76315e-07
-4.36898e-07
-1.82438e-07
-8.77063e-07
-4.37853e-07
-1.82676e-07
-8.77984e-07
-4.38859e-07
-1.8245e-07
-8.78756e-07
-4.40031e-07
-1.82337e-07
-8.82102e-07
-4.40883e-07
-1.80592e-07
-8.82469e-07
-4.42146e-07
-1.78629e-07
-8.90499e-07
-4.43014e-07
-1.73769e-07
-8.90222e-07
-4.4402e-07
-1.66636e-07
-9.0645e-07
-4.45477e-07
-1.53279e-07
-9.07736e-07
-4.46627e-07
-1.33507e-07
-9.35678e-07
-4.47676e-07
-1.04267e-07
-9.39026e-07
-4.47169e-07
-6.61718e-08
-9.79601e-07
-4.41709e-07
-2.19208e-08
-9.82551e-07
-4.29381e-07
2.41131e-08
-1.02745e-06
-3.98092e-07
6.58619e-08
-1.02276e-06
-3.53892e-07
1.15493e-07
-1.04339e-06
-2.90675e-07
1.44381e-07
-9.30118e-07
-2.11156e-07
1.03441e-07
-7.03915e-07
-1.33356e-07
7.73079e-09
-4.31207e-07
-1.23115e-07
-8.49033e-08
-2.51622e-07
-1.67434e-07
8.42884e-07
-1.02913e-06
-5.67998e-07
3.39439e-06
-3.70857e-06
-1.2585e-06
6.14335e-06
-5.18687e-06
-1.49636e-06
8.55026e-06
-7.53429e-06
1.2454e-07
1.08524e-05
-1.22607e-05
3.15151e-07
1.34615e-05
-1.08115e-05
-4.56463e-06
1.45642e-05
-7.13094e-06
-4.55534e-06
1.0378e-05
-1.56411e-06
-1.54534e-06
1.95359e-06
-1.18678e-06
-2.41723e-07
-1.44591e-05
5.9868e-06
-1.71935e-08
-2.74742e-05
-3.00593e-06
2.93437e-06
2.69176e-07
-1.62068e-05
6.32348e-06
2.39269e-06
-1.79252e-06
-4.94828e-06
2.15988e-06
-7.0881e-06
-1.40989e-05
-7.5545e-06
-9.18926e-07
2.07583e-06
-1.36951e-05
-5.86269e-07
-1.04455e-06
-1.6345e-05
9.04895e-07
-1.23229e-06
-1.71207e-05
1.95317e-06
-2.99209e-06
-1.67425e-05
4.87178e-06
-3.24091e-06
-1.76413e-05
8.57361e-06
-2.17753e-06
-1.83332e-05
1.22485e-05
-1.05278e-06
-1.8317e-05
1.38228e-05
2.03104e-07
-1.78575e-05
1.11078e-05
1.00472e-06
-1.5272e-05
3.24717e-06
1.08845e-06
-1.31861e-05
-2.81294e-06
8.11108e-07
-1.24871e-05
-4.88733e-06
9.73057e-07
-1.22609e-05
-5.49861e-06
6.86337e-07
-1.16723e-05
-6.57358e-06
4.09392e-07
-1.05553e-05
-7.79404e-06
3.26869e-07
-8.88675e-06
-9.31686e-06
1.81528e-07
-6.31285e-06
-1.10316e-05
5.41166e-08
-4.40074e-06
-1.3006e-05
4.97232e-07
-3.39415e-06
-1.50299e-05
1.30486e-06
-4.33687e-06
-1.5839e-05
2.81426e-06
-6.80222e-06
-1.61515e-05
3.85867e-06
-9.09824e-06
-1.73607e-05
4.20469e-06
-1.04407e-05
-1.6844e-05
4.72413e-06
-1.11566e-05
-1.29162e-05
5.02985e-06
-9.82324e-06
-6.93919e-06
5.06211e-06
-9.11707e-06
-8.41072e-07
4.73118e-06
-8.8477e-06
3.38711e-06
5.07635e-06
-8.0758e-06
5.1243e-06
5.09082e-06
-9.00419e-06
3.73387e-06
4.4198e-06
-1.08933e-05
3.82224e-06
2.87089e-06
-1.30962e-05
4.70676e-06
1.98192e-06
-1.38183e-05
7.37171e-06
-7.24314e-07
-1.19482e-05
1.11947e-05
-4.08994e-06
-7.18117e-06
1.54506e-05
-7.79466e-06
1.6934e-05
-1.06789e-05
-2.75004e-06
-1.64048e-06
1.38832e-07
-1.49013e-06
-3.99989e-06
-1.27356e-06
-1.69693e-06
-1.03063e-06
1.21186e-08
-1.26015e-06
-2.61554e-06
-1.36038e-07
-9.61432e-07
-1.57306e-06
1.62421e-08
-6.87119e-07
-1.87999e-06
1.33959e-07
-5.32718e-07
-1.26046e-06
8.41816e-08
-4.74879e-07
-1.18027e-06
9.67855e-08
-4.93618e-07
-8.21064e-07
-7.77239e-09
-5.24056e-07
-7.55057e-07
-8.69469e-08
-5.31221e-07
-6.23986e-07
-2.09191e-07
-4.94785e-07
-6.30596e-07
-2.93625e-07
-4.49532e-07
-5.54467e-07
-3.61172e-07
-4.02775e-07
-5.33992e-07
-4.04921e-07
-3.57677e-07
-4.79181e-07
-4.39052e-07
-3.23062e-07
-4.62053e-07
-4.59263e-07
-2.92887e-07
-4.25148e-07
-4.76905e-07
-2.72195e-07
-4.1488e-07
-4.86393e-07
-2.56176e-07
-3.91737e-07
-4.95784e-07
-2.46305e-07
-3.85497e-07
-5.00677e-07
-2.38535e-07
-3.74508e-07
-5.0553e-07
-2.33842e-07
-3.71946e-07
-5.07821e-07
-2.30615e-07
-3.67915e-07
-5.09519e-07
-2.28585e-07
-3.67463e-07
-5.10019e-07
-2.27733e-07
-3.6698e-07
-5.09414e-07
-2.27995e-07
-3.6763e-07
-5.07981e-07
-2.28807e-07
-3.69011e-07
-5.06497e-07
-2.29799e-07
-3.71246e-07
-5.04831e-07
-2.31102e-07
-3.7409e-07
-5.02598e-07
-2.3185e-07
-3.7765e-07
-5.00364e-07
-2.33126e-07
-3.83327e-07
-4.97505e-07
-2.32769e-07
-3.88006e-07
-4.94826e-07
-2.33757e-07
-3.9875e-07
-4.90768e-07
-2.31726e-07
-4.0493e-07
-4.87329e-07
-2.3025e-07
-4.26578e-07
-4.81355e-07
-2.22758e-07
-4.38069e-07
-4.77165e-07
-2.1529e-07
-4.76344e-07
-4.6681e-07
-2.0212e-07
-4.95642e-07
-4.56561e-07
-1.9541e-07
-5.53681e-07
-4.32636e-07
-1.92527e-07
-5.81728e-07
-4.03713e-07
-2.07805e-07
-6.61009e-07
-3.51172e-07
-2.06774e-07
-7.24307e-07
-2.99494e-07
-1.18928e-07
-8.67656e-07
-2.63581e-07
9.09193e-08
-8.97756e-07
-2.42215e-07
3.30205e-07
-7.12761e-07
-2.30444e-07
4.71106e-07
-3.60737e-07
-2.11376e-07
8.13712e-07
-2.61469e-07
-3.32763e-07
2.51129e-06
-1.35782e-06
-1.36889e-06
4.36567e-06
-3.01371e-06
-2.54925e-06
5.12048e-06
-4.77397e-06
-1.16771e-06
7.39534e-06
-9.12339e-06
-6.85772e-07
8.6069e-06
-1.24718e-05
-1.00044e-06
1.18781e-05
-9.27972e-06
-4.80299e-06
1.73955e-05
-6.18294e-06
-6.46542e-06
2.13046e-05
-2.24664e-06
-3.22658e-06
2.4875e-05
-4.30936e-06
-4.47772e-07
2.62991e-05
3.98499e-06
5.77817e-07
2.4092e-05
1.95167e-06
-2.75072e-06
2.84523e-06
6.88184e-06
-1.843e-06
4.64364e-07
3.22008e-06
-2.63166e-06
3.23524e-06
5.58013e-06
-1.54388e-05
-8.96839e-06
9.46866e-06
1.81621e-06
-1.71231e-05
7.80171e-06
-2.33154e-07
-1.96666e-05
4.47665e-06
-1.02804e-06
-2.01912e-05
4.5658e-06
-2.08795e-06
-1.9938e-05
6.24849e-06
-1.62981e-06
-2.09599e-05
1.01246e-05
-5.28935e-07
-2.1141e-05
1.21091e-05
3.20532e-07
-1.9965e-05
1.16252e-05
1.02169e-06
-1.70191e-05
6.7979e-06
1.36411e-06
-1.56616e-05
4.82173e-07
1.40758e-06
-1.73423e-05
-2.49705e-06
1.36501e-06
-1.92949e-05
-3.66177e-06
7.27254e-07
-1.96016e-05
-5.09137e-06
-1.00418e-07
-1.89085e-05
-6.66683e-06
-5.9959e-07
-1.74347e-05
-8.33138e-06
-9.36149e-07
-1.45146e-05
-1.10119e-05
-1.22478e-06
-1.0369e-05
-1.39299e-05
-1.24704e-06
-6.53202e-06
-1.60704e-05
-7.72291e-07
-3.95966e-06
-1.74115e-05
-1.905e-07
-3.38458e-06
-1.76526e-05
1.23866e-06
-5.1486e-06
-1.67243e-05
2.33693e-06
-7.91736e-06
-1.74248e-05
2.83295e-06
-1.00852e-05
-1.8081e-05
3.4048e-06
-1.20907e-05
-1.5587e-05
4.6763e-06
-1.28557e-05
-1.08771e-05
4.70288e-06
-1.22585e-05
-6.22131e-06
4.78304e-06
-1.09181e-05
-2.35776e-06
4.40442e-06
-9.6674e-06
-5.52223e-07
4.42585e-06
-9.98949e-06
1.24082e-07
3.93188e-06
-1.12859e-05
2.54756e-06
2.57108e-06
-1.2491e-05
4.93571e-06
9.76119e-07
-1.29001e-05
8.67123e-06
-8.90363e-07
-1.11061e-05
1.34253e-05
-4.02464e-06
-6.54516e-06
1.81802e-05
-7.29053e-06
1.98419e-05
-9.45303e-06
-2.89565e-06
-7.06157e-07
5.00016e-07
-1.74455e-06
-3.68837e-06
-1.46262e-06
-2.11504e-06
-8.69127e-07
2.08985e-07
-1.60519e-06
-2.75486e-06
-3.70542e-07
-1.23213e-06
-1.98752e-06
4.1391e-08
-8.02785e-07
-2.29165e-06
-1.76817e-08
-4.49547e-07
-1.66045e-06
4.67595e-08
-2.74557e-07
-1.40404e-06
4.87786e-08
-2.26733e-07
-9.07972e-07
3.9085e-08
-2.94368e-07
-6.77367e-07
-1.0056e-08
-3.58414e-07
-4.57143e-07
-1.02797e-07
-3.66141e-07
-4.36651e-07
-1.86217e-07
-3.65657e-07
-3.04963e-07
-2.49988e-07
-3.468e-07
-2.52437e-07
-3.00412e-07
-3.33128e-07
-1.56016e-07
-3.36835e-07
-3.15758e-07
-1.11651e-07
-3.67772e-07
-3.02097e-07
-5.08829e-08
-3.87925e-07
-2.90364e-07
-2.65133e-08
-4.00099e-07
-2.83995e-07
1.02332e-08
-4.08337e-07
-2.79956e-07
2.25618e-08
-4.12096e-07
-2.7728e-07
3.79795e-08
-4.15162e-07
-2.76097e-07
4.25892e-08
-4.15716e-07
-2.75771e-07
4.74918e-08
-4.1573e-07
-2.76189e-07
4.73742e-08
-4.14418e-07
-2.77207e-07
4.63572e-08
-4.12316e-07
-2.78251e-07
4.3118e-08
-4.09702e-07
-2.79457e-07
3.87378e-08
-4.0654e-07
-2.80838e-07
3.32055e-08
-4.03069e-07
-2.82777e-07
2.69422e-08
-3.9909e-07
-2.84741e-07
1.95347e-08
-3.95218e-07
-2.88561e-07
1.09133e-08
-3.90417e-07
-2.92239e-07
2.3768e-09
-3.86702e-07
-2.97896e-07
-1.2999e-08
-3.80089e-07
-3.029e-07
-2.48277e-08
-3.75093e-07
-3.10183e-07
-5.09794e-08
-3.68311e-07
-3.1672e-07
-6.79575e-08
-3.63569e-07
-3.26888e-07
-1.12002e-07
-3.54168e-07
-3.42563e-07
-1.38493e-07
-3.41467e-07
-3.71986e-07
-2.07112e-07
-3.17139e-07
-4.16679e-07
-2.51027e-07
-2.85999e-07
-4.66512e-07
-3.66115e-07
-2.45053e-07
-4.71478e-07
-5.05131e-07
-2.14198e-07
-3.17795e-07
-7.7029e-07
-2.51038e-07
3.27375e-08
-9.24225e-07
-3.24049e-07
4.85021e-07
-7.8518e-07
-3.79851e-07
8.84447e-07
-4.48807e-07
-3.11341e-07
1.84298e-06
-5.45868e-07
-6.74122e-07
3.57553e-06
-8.51101e-07
-2.23925e-06
3.14182e-06
-6.73622e-07
-1.90635e-06
1.82935e-06
-1.89931e-06
-1.56218e-06
1.84142e-06
-6.03812e-06
-3.09732e-06
1.95344e-06
-9.61431e-06
-2.96949e-06
5.65938e-06
-8.8028e-06
-4.18284e-06
9.16526e-06
-1.72961e-06
-7.95919e-06
1.26218e-05
5.38212e-07
-6.24141e-06
2.03809e-05
-2.58824e-06
-9.48017e-06
2.64006e-05
2.85746e-07
-2.3202e-06
1.80362e-05
6.0414e-06
4.27451e-06
9.70259e-07
2.93448e-05
-5.39855e-06
1.1824e-06
6.2693e-06
-3.26115e-06
4.11709e-06
1.79191e-05
-1.52732e-05
-4.02953e-06
1.61516e-05
1.4641e-06
-1.17319e-05
1.51617e-05
3.42856e-07
-1.7368e-05
9.79353e-06
3.19641e-07
-1.97948e-05
8.08312e-06
-1.08999e-06
-2.06728e-05
8.09857e-06
-9.71552e-07
-2.19254e-05
1.16092e-05
-2.31532e-07
-2.18253e-05
1.16304e-05
3.79388e-07
-2.07299e-05
9.46817e-06
1.06235e-06
-2.10652e-05
5.55085e-06
1.58326e-06
-2.6572e-05
4.53232e-06
1.45758e-06
-3.2136e-05
2.72428e-06
3.43694e-07
-3.37125e-05
-8.59858e-07
-1.22446e-06
-3.21798e-05
-4.8917e-06
-1.73139e-06
-2.95432e-05
-7.21114e-06
-2.09148e-06
-2.57404e-05
-1.00266e-05
-2.10678e-06
-2.10914e-05
-1.38893e-05
-1.77088e-06
-1.62073e-05
-1.74724e-05
-1.34082e-06
-1.1447e-05
-2.01161e-05
-7.13896e-07
-7.7679e-06
-2.11816e-05
9.17454e-08
-6.10211e-06
-2.06823e-05
1.36471e-06
-6.40182e-06
-1.84893e-05
2.06552e-06
-8.64219e-06
-1.70289e-05
1.84533e-06
-1.06796e-05
-1.76672e-05
1.62439e-06
-1.13029e-05
-1.62574e-05
1.29429e-06
-1.21577e-05
-1.23439e-05
2.32204e-06
-1.21908e-05
-8.89836e-06
2.71039e-06
-1.20948e-05
-5.68574e-06
3.23215e-06
-1.06745e-05
-2.399e-06
4.26482e-07
-9.44352e-06
2.08319e-07
-1.31516e-06
-9.48535e-06
3.72246e-06
-1.13302e-06
-1.01784e-05
7.45853e-06
-1.82976e-06
-1.04442e-05
1.14872e-05
-2.55013e-06
-9.01852e-06
1.60813e-05
-4.08155e-06
-4.84891e-06
2.06129e-05
-6.60221e-06
2.27627e-05
-7.76965e-06
-3.01103e-06
5.43877e-07
1.3183e-06
-2.15478e-06
-2.74716e-06
-1.79746e-06
-2.55746e-06
-6.53565e-07
1.87115e-07
-2.0103e-06
-2.35926e-06
-9.4276e-07
-1.5463e-06
-2.22078e-06
-2.30735e-07
-1.02919e-06
-2.34207e-06
-4.66683e-07
-5.46708e-07
-1.9324e-06
-2.10527e-07
-1.77323e-07
-1.54867e-06
-2.24751e-07
4.83933e-08
-1.02606e-06
-1.07624e-07
-2.98128e-08
-4.98371e-07
-1.00786e-07
-1.17417e-07
-2.04662e-07
-1.64873e-07
-1.73919e-07
-1.29355e-07
-2.50789e-07
-2.05981e-07
4.65382e-08
-3.19435e-07
-2.23204e-07
1.4299e-07
-3.78198e-07
-2.44962e-07
2.70799e-07
-4.05052e-07
-2.66645e-07
3.35469e-07
-4.2543e-07
-2.85532e-07
4.12674e-07
-4.44664e-07
-2.99677e-07
4.48621e-07
-4.60983e-07
-3.13282e-07
4.94488e-07
-4.70643e-07
-3.25071e-07
5.14465e-07
-4.80106e-07
-3.36341e-07
5.36913e-07
-4.87655e-07
-3.46947e-07
5.47911e-07
-4.94706e-07
-3.56324e-07
5.58281e-07
-5.01404e-07
-3.64656e-07
5.63495e-07
-5.07779e-07
-3.72631e-07
5.67804e-07
-5.13463e-07
-3.802e-07
5.69772e-07
-5.19074e-07
-3.87513e-07
5.70501e-07
-5.24439e-07
-3.94517e-07
5.69997e-07
-5.29775e-07
-4.01971e-07
5.69075e-07
-5.34667e-07
-4.09227e-07
5.66917e-07
-5.40112e-07
-4.18656e-07
5.64566e-07
-5.4421e-07
-4.27388e-07
5.60466e-07
-5.49342e-07
-4.42219e-07
5.55796e-07
-5.53948e-07
-4.54578e-07
5.53789e-07
-5.66241e-07
-4.71286e-07
5.42996e-07
-5.7725e-07
-4.92483e-07
5.38387e-07
-5.85128e-07
-5.27879e-07
5.12273e-07
-5.88858e-07
-5.7886e-07
4.95149e-07
-5.82639e-07
-6.52501e-07
4.34783e-07
-5.6823e-07
-7.39544e-07
3.78241e-07
-5.422e-07
-8.03876e-07
2.17502e-07
-5.19256e-07
-7.66549e-07
-3.48117e-08
-5.07617e-07
-5.44685e-07
-4.05024e-07
-5.87096e-07
-9.41683e-08
-6.58282e-07
-7.16424e-07
4.97885e-07
-5.92688e-07
-7.84505e-07
9.74327e-07
-2.64185e-07
-6.61023e-07
1.98889e-06
-2.02049e-07
-1.35834e-06
3.88104e-06
3.39348e-07
-3.08256e-06
3.44757e-06
1.68402e-06
-1.92413e-06
3.36393e-07
3.34438e-06
-2.13247e-06
-3.63533e-06
4.02338e-06
-6.08973e-06
-5.95622e-06
7.74996e-07
-8.06836e-06
-7.34471e-06
1.2867e-06
-8.70095e-06
-6.41439e-06
6.95176e-06
-9.61162e-06
-9.74416e-06
1.3934e-05
-1.0066e-05
-1.77578e-05
1.17386e-05
-6.31299e-06
-1.38753e-05
4.51995e-06
-8.11639e-06
-2.81017e-05
1.72343e-05
3.03333e-06
-9.13667e-07
-6.65761e-06
8.81249e-06
2.39641e-06
1.05067e-05
-7.54732e-06
-4.35128e-07
3.64843e-05
-1.57326e-05
-7.64048e-06
1.76935e-05
5.66511e-06
-1.51381e-05
2.00596e-05
2.60155e-06
-2.04913e-05
1.05864e-05
4.56257e-06
-2.52685e-05
1.15071e-05
1.35558e-06
-2.91286e-05
1.08989e-05
1.06219e-06
-3.36993e-05
1.50839e-05
1.09881e-06
-3.86572e-05
1.45043e-05
2.08706e-06
-4.38424e-05
1.30244e-05
1.63229e-06
-4.72749e-05
1.09184e-05
-1.93144e-06
-4.84811e-05
1.09514e-05
-5.20947e-06
-4.75407e-05
9.79256e-06
-8.00554e-06
-4.53168e-05
6.73029e-06
-9.81119e-06
-4.28378e-05
3.49065e-06
-1.08589e-05
-3.85986e-05
-9.28948e-08
-1.13554e-05
-3.30638e-05
-5.30263e-06
-1.02571e-05
-2.70252e-05
-1.19555e-05
-7.97105e-06
-2.06782e-05
-1.76911e-05
-6.12711e-06
-1.46584e-05
-2.20682e-05
-4.06668e-06
-9.27081e-06
-2.48419e-05
-1.72609e-06
-6.2978e-06
-2.43889e-05
7.34935e-07
-5.6777e-06
-2.2034e-05
2.92625e-06
-8.88463e-06
-1.76025e-05
3.7825e-06
-1.56732e-05
-1.42108e-05
3.33452e-06
-1.97025e-05
-1.43033e-05
2.07803e-06
-2.27463e-05
-1.07974e-05
1.50049e-06
-2.55335e-05
-7.31793e-06
1.21019e-06
-2.87014e-05
-3.83198e-06
1.31782e-06
-3.26398e-05
-1.15332e-08
1.55486e-06
-3.48787e-05
2.52184e-06
-7.05883e-08
-3.48174e-05
4.85204e-06
-1.18668e-06
-3.35631e-05
8.48146e-06
-2.27285e-06
-3.04215e-05
1.19833e-05
-3.63344e-06
-2.46365e-05
1.53699e-05
-5.06955e-06
-1.45174e-05
1.69835e-05
-6.48644e-06
1.53377e-05
-7.09101e-06
-3.75797e-06
1.79398e-06
2.6656e-06
-2.57886e-06
-2.31017e-06
-1.61609e-06
-2.8583e-06
-1.91626e-07
-1.82501e-07
-2.18041e-06
-1.55803e-06
-1.47911e-06
-1.64905e-06
-1.94422e-06
-8.07918e-07
-1.16388e-06
-2.05205e-06
-7.75193e-07
-6.67383e-07
-1.88837e-06
-5.40525e-07