/*--------------------------------*- C++ -*----------------------------------*\
| =========                 |                                                 |
| \\      /  F ield         | OpenFOAM: The Open Source CFD Toolbox           |
|  \\    /   O peration     | Version:  2.3.0                                 |
|   \\  /    A nd           | Web:      www.OpenFOAM.org                      |
|    \\/     M anipulation  |                                                 |
\*---------------------------------------------------------------------------*/
FoamFile
{
    version     2.0;
    format      ascii;
    class       surfaceScalarField;
    location    "8";
    object      phi.water;
}
// * * * * * * * * * * * * * * * * * * * * * * * * * * * * * * * * * * * * * //

dimensions      [0 3 -1 0 0 0 0];

internalField   nonuniform List<scalar> 
16448
(
-1.69944e-06
-1.9743e-06
5.38665e-07
-3.48368e-07
-1.98168e-06
6.32427e-07
-1.3915e-07
-1.07936e-06
8.71041e-07
6.30647e-08
-1.11203e-06
9.09498e-07
3.8892e-08
-8.87869e-07
9.12367e-07
2.70097e-08
-9.15334e-07
9.27079e-07
-1.20468e-08
-8.85998e-07
9.2541e-07
-3.2897e-08
-9.11419e-07
9.32173e-07
-5.45525e-08
-9.23026e-07
9.44873e-07
-4.37406e-08
-9.6027e-07
9.49436e-07
-4.012e-08
-9.72736e-07
9.69248e-07
-1.07432e-08
-1.00725e-06
9.77805e-07
4.88998e-09
-1.01353e-06
9.97989e-07
3.33669e-08
-1.03649e-06
1.00789e-06
4.75349e-08
-1.0388e-06
1.0246e-06
6.72728e-08
-1.05257e-06
1.0327e-06
7.62881e-08
-1.05377e-06
1.04466e-06
8.69676e-08
-1.06177e-06
1.05094e-06
9.15233e-08
-1.06348e-06
1.0588e-06
9.62572e-08
-1.06853e-06
1.06362e-06
9.79691e-08
-1.07067e-06
1.06879e-06
9.94531e-08
-1.07409e-06
1.07242e-06
9.97575e-08
-1.07641e-06
1.07592e-06
9.98162e-08
-1.07901e-06
1.07876e-06
9.95875e-08
-1.08128e-06
1.08132e-06
9.93157e-08
-1.08347e-06
1.08354e-06
9.9094e-08
-1.08558e-06
1.08562e-06
9.9139e-08
-1.08763e-06
1.08738e-06
1.00033e-07
-1.09021e-06
1.08914e-06
1.0079e-07
-1.09149e-06
1.09053e-06
1.03339e-07
-1.09483e-06
1.09212e-06
1.05241e-07
-1.09521e-06
1.09312e-06
1.1079e-07
-1.10014e-06
1.09445e-06
1.14399e-07
-1.09919e-06
1.09541e-06
1.24383e-07
-1.10619e-06
1.09609e-06
1.31976e-07
-1.10434e-06
1.09661e-06
1.46027e-07
-1.11115e-06
1.09702e-06
1.57108e-07
-1.10887e-06
1.0977e-06
1.71851e-07
-1.1121e-06
1.09732e-06
1.7692e-07
-1.10503e-06
1.09993e-06
1.72848e-07
-1.09825e-06
1.10231e-06
1.35715e-07
-1.07526e-06
1.11241e-06
5.61531e-08
-1.04717e-06
1.12675e-06
-1.02717e-07
-9.96703e-07
1.1556e-06
-3.46505e-07
-9.52427e-07
1.19626e-06
-7.05232e-07
-9.08963e-07
1.26789e-06
-1.16916e-06
-9.29425e-07
1.39352e-06
-1.80649e-06
-9.71088e-07
1.60934e-06
-2.4243e-06
-1.12215e-06
1.761e-06
-3.19595e-06
-7.71907e-07
1.5822e-06
-5.02539e-06
4.65223e-07
1.37953e-06
-6.3083e-06
1.48035e-07
1.12612e-06
-3.68358e-06
-3.68357e-06
1.10714e-06
8.78926e-07
-5.86391e-06
1.27978e-06
4.44446e-06
-5.633e-06
2.12213e-06
7.32255e-06
-4.77024e-06
1.82469e-06
6.18357e-06
-4.33598e-06
5.51163e-06
8.73145e-06
-3.83608e-06
7.76119e-07
-2.65826e-06
8.81884e-06
1.17568e-05
2.98944e-05
-4.27394e-06
-6.78809e-06
2.86027e-05
-2.68252e-05
-4.46969e-07
3.41358e-05
-1.32749e-05
6.26269e-06
3.30208e-05
-5.86631e-06
6.97655e-06
3.33265e-05
-6.08087e-06
5.77519e-06
3.41052e-05
-5.49407e-06
4.71531e-06
3.38543e-05
-3.87582e-06
4.12678e-06
3.24884e-05
-1.72876e-06
3.09466e-06
3.04543e-05
1.97859e-07
1.83617e-06
2.85903e-05
2.56528e-07
1.60755e-06
2.70306e-05
-7.35085e-07
2.29472e-06
2.52677e-05
-1.46499e-06
3.22787e-06
2.30811e-05
-1.54617e-06
3.73282e-06
2.08448e-05
-1.28327e-06
3.51955e-06
1.87307e-05
-1.1512e-06
3.26526e-06
1.68023e-05
-9.48149e-07
2.8766e-06
1.49714e-05
-8.56734e-07
2.68764e-06
1.31386e-05
-1.01316e-06
2.84596e-06
1.10758e-05
-6.53104e-07
2.71588e-06
9.31313e-06
-1.18832e-06
2.95098e-06
8.92178e-06
-2.94488e-06
3.33622e-06
1.06681e-05
-5.10501e-06
3.35869e-06
1.3162e-05
-5.49176e-06
2.99789e-06
1.55546e-05
-4.75607e-06
2.36347e-06
1.71418e-05
-3.19615e-06
1.60895e-06
1.77549e-05
-1.9506e-06
1.33746e-06
1.74926e-05
-9.04858e-07
1.16716e-06
1.65476e-05
-2.77452e-07
1.22241e-06
1.39548e-05
8.41236e-07
1.75156e-06
7.8344e-06
3.54766e-06
2.57277e-06
9.8155e-08
4.26097e-06
3.47528e-06
-6.16115e-06
2.01264e-06
4.24667e-06
-1.13391e-05
9.68729e-07
4.20925e-06
-1.40742e-05
1.37501e-06
1.36011e-06
-1.24646e-05
2.59081e-06
-4.20045e-06
-7.05873e-06
2.20209e-06
-7.60795e-06
1.0725e-06
-8.13123e-06
-2.12365e-06
-2.81188e-06
-2.87948e-07
-8.23047e-07
-3.06743e-06
-2.12172e-07
-5.09514e-07
-1.61134e-06
2.20925e-07
-2.44837e-07
-1.6939e-06
3.16965e-07
-2.52363e-07
-1.21516e-06
3.35454e-07
-2.46489e-07
-1.26311e-06
3.41773e-07
-2.79223e-07
-1.18136e-06
3.2851e-07
-2.85054e-07
-1.23085e-06
3.25368e-07
-2.8989e-07
-1.24851e-06
3.30659e-07
-2.57892e-07
-1.31834e-06
3.26242e-07
-2.31509e-07
-1.34246e-06
3.43667e-07
-1.79916e-07
-1.4053e-06
3.46618e-07
-1.45672e-07
-1.4161e-06
3.68611e-07
-9.91001e-08
-1.45823e-06
3.75322e-07
-7.15521e-08
-1.46121e-06
3.95106e-07
-3.87672e-08
-1.48693e-06
4.01714e-07
-2.11783e-08
-1.48791e-06
4.16755e-07
-1.94263e-09
-1.5036e-06
4.22702e-07
8.21248e-09
-1.50657e-06
4.33127e-07
1.82892e-08
-1.5167e-06
4.38227e-07
2.35298e-08
-1.52066e-06
4.449e-07
2.82089e-08
-1.52754e-06
4.48899e-07
3.08623e-08
-1.53199e-06
4.53063e-07
3.28366e-08
-1.53698e-06
4.56131e-07
3.40946e-08
-1.54127e-06
4.58873e-07
3.51037e-08
-1.54545e-06
4.61103e-07
3.58748e-08
-1.54935e-06
4.63132e-07
3.67134e-08
-1.55308e-06
4.64747e-07
3.78908e-08
-1.5573e-06
4.66059e-07
3.93771e-08
-1.56014e-06
4.67306e-07
4.22657e-08
-1.56571e-06
4.68176e-07
4.50481e-08
-1.567e-06
4.69167e-07
5.1075e-08
-1.57522e-06
4.69265e-07
5.64046e-08
-1.57465e-06
4.70325e-07
6.78473e-08
-1.58626e-06
4.689e-07
7.72509e-08
-1.58363e-06
4.70145e-07
9.60545e-08
-1.59667e-06
4.67051e-07
1.09804e-07
-1.59129e-06
4.69015e-07
1.3403e-07
-1.6007e-06
4.64779e-07
1.46207e-07
-1.58694e-06
4.70202e-07
1.53748e-07
-1.57781e-06
4.7252e-07
1.23292e-07
-1.5375e-06
4.93284e-07
4.06711e-08
-1.48658e-06
5.22573e-07
-1.45824e-07
-1.38618e-06
5.76593e-07
-4.62203e-07
-1.27736e-06
6.41899e-07
-9.3651e-07
-1.16336e-06
7.29449e-07
-1.59605e-06
-1.14179e-06
8.72506e-07
-2.63161e-06
-1.10586e-06
1.17118e-06
-3.85712e-06
-1.27255e-06
1.38104e-06
-4.55667e-06
-1.13106e-06
1.07105e-06
-3.89576e-06
-6.45184e-07
4.62381e-07
-1.48698e-06
-1.76886e-06
-4.66007e-07
4.3473e-06
-8.8628e-06
-5.42904e-07
1.09594e-05
-1.05902e-05
-1.87451e-06
1.40202e-05
-7.56716e-06
-1.04259e-06
1.81696e-05
-8.20477e-06
-7.70999e-07
1.90567e-05
-6.79271e-06
1.8294e-06
2.16822e-05
-7.54686e-06
-3.58399e-07
6.27271e-06
1.57334e-05
1.9803e-05
2.94016e-05
-4.06044e-06
-1.55768e-06
1.46958e-05
-3.42436e-05
-6.56848e-06
1.21935e-05
-1.74591e-05
5.79874e-06
1.12584e-05
-1.09377e-05
6.00551e-06
1.12635e-05
-9.49084e-06
3.40478e-06
1.17598e-05
-8.28856e-06
2.29826e-06
1.26791e-05
-4.82791e-06
3.2731e-08
1.26268e-05
1.25934e-07
-1.80237e-06
1.07193e-05
4.8554e-06
-2.75e-06
6.29773e-06
6.18578e-06
-1.5077e-06
-1.56277e-07
4.47501e-06
1.24391e-06
-5.78496e-06
2.42895e-06
1.73475e-06
-1.06972e-05
8.76954e-07
2.48916e-06
-1.38285e-05
-8.27061e-07
2.67502e-06
-1.49469e-05
-2.24697e-06
2.21418e-06
-1.46192e-05
-2.94297e-06
1.66719e-06
-1.30713e-05
-3.92131e-06
1.51664e-06
-1.11366e-05
-4.97238e-06
2.02447e-06
-9.11344e-06
-5.29789e-06
2.62167e-06
-6.35556e-06
-7.08378e-06
3.13758e-06
-3.22207e-06
-8.94164e-06
2.86327e-06
-1.11357e-07
-1.02194e-05
2.00366e-06
3.4822e-06
-1.00754e-05
9.90079e-07
7.16489e-06
-8.48519e-06
4.64286e-08
1.10723e-05
-5.25651e-06
-1.847e-06
1.40951e-05
-1.47835e-06
-3.49506e-06
1.51011e-05
1.51832e-06
-3.42922e-06
1.41494e-05
2.56133e-06
-1.88704e-06
1.12661e-05
4.29626e-06
-5.71757e-07
6.27272e-06
7.74628e-06
7.94751e-07
5.97122e-08
7.87114e-06
2.60284e-06
-5.76647e-06
4.22658e-06
3.61224e-06
-1.09198e-05
2.41675e-06
3.70535e-06
-1.38633e-05
2.87081e-06
1.44767e-06
-1.22667e-05
5.29994e-06
-4.30573e-06
-7.2394e-06
5.73939e-06
-8.56461e-06
4.59006e-06
-1.0757e-05
-2.45634e-06
-2.9794e-06
-5.09107e-07
-1.24532e-06
-3.56219e-06
-7.14299e-07
-8.77379e-07
-1.72305e-06
-2.53217e-07
-4.91923e-07
-1.96691e-06
-1.12042e-07
-3.79235e-07
-1.27364e-06
-5.29982e-08
-3.3121e-07
-1.32058e-06
9.02414e-09
-3.35266e-07
-1.1658e-06
-1.13289e-08
-3.37845e-07
-1.21521e-06
-1.31243e-08
-3.38569e-07
-1.21594e-06
-3.16338e-08
-3.05365e-07
-1.30059e-06
-5.08605e-08
-2.69944e-07
-1.32888e-06
-4.87593e-08
-2.13429e-07
-1.40777e-06
-5.39208e-08
-1.69742e-07
-1.41983e-06
-3.97288e-08
-1.19368e-07
-1.47233e-06
-3.61552e-08
-8.64731e-08
-1.47418e-06
-1.97166e-08
-5.18734e-08
-1.50665e-06
-1.4763e-08
-3.23047e-08
-1.50645e-06
-8.56344e-10
-1.26502e-08
-1.52556e-06
2.4113e-09
-1.28746e-09
-1.52585e-06
8.09376e-09
9.18724e-09
-1.53713e-06
1.00549e-08
1.4804e-08
-1.53966e-06
1.35388e-08
1.9678e-08
-1.54698e-06
1.47009e-08
2.23415e-08
-1.5508e-06
1.629e-08
2.43503e-08
-1.55573e-06
1.68618e-08
2.55325e-08
-1.55961e-06
1.72857e-08
2.64372e-08
-1.5635e-06
1.72762e-08
2.72176e-08
-1.56708e-06
1.70972e-08
2.80501e-08
-1.57042e-06
1.66349e-08
2.90311e-08
-1.57412e-06
1.59979e-08
3.04141e-08
-1.57679e-06
1.53968e-08
3.27688e-08
-1.58236e-06
1.44706e-08
3.55384e-08
-1.58324e-06
1.36092e-08
4.11235e-08
-1.59255e-06
1.19626e-08
4.69439e-08
-1.59136e-06
1.10497e-08
5.83626e-08
-1.60575e-06
8.32572e-09
6.99041e-08
-1.60218e-06
7.21776e-09
9.09071e-08
-1.6207e-06
3.34264e-09
1.10582e-07
-1.61292e-06
2.24401e-09
1.42882e-07
-1.62912e-06
-3.4994e-09
1.68728e-07
-1.61067e-06
-1.72762e-09
1.94233e-07
-1.60456e-06
1.71346e-09
1.884e-07
-1.54892e-06
1.77761e-08
1.31874e-07
-1.48079e-06
5.13245e-08
-3.24739e-08
-1.33224e-06
1.1102e-07
-3.51223e-07
-1.15545e-06
1.97442e-07
-8.16669e-07
-9.83499e-07
2.86373e-07
-1.43382e-06
-9.08946e-07
3.84936e-07
-2.21402e-06
-8.69505e-07
5.45044e-07
-2.61762e-06
-1.48684e-06
6.2569e-07
-1.94542e-06
-2.22444e-06
4.27102e-07
4.44994e-07
-2.78457e-06
-2.3425e-07
4.93495e-06
-6.32465e-06
1.69678e-07
1.16757e-05
-1.37528e-05
-1.64765e-06
1.68191e-05
-1.34604e-05
-2.21168e-06
1.78579e-05
-8.89515e-06
4.18344e-07
2.07606e-05
-1.11292e-05
-7.48368e-08
2.50846e-05
-9.59552e-06
-1.04271e-06
2.92388e-05
-1.43051e-05
1.08462e-06
1.28676e-05
2.45148e-05
2.35008e-05
3.13244e-05
-3.56713e-06
-2.50544e-07
8.71152e-06
-3.07977e-05
-1.13948e-05
4.21848e-06
-1.42114e-05
3.75281e-07
6.62293e-06
-1.10016e-05
-2.34124e-06
4.06519e-06
-6.82411e-06
-1.08994e-07
4.95304e-06
-5.2141e-06
-3.96232e-06
7.14874e-06
-9.3025e-07
-6.09337e-06
8.33266e-06
3.87772e-06
-4.93571e-06
6.60056e-06
8.97181e-06
-2.38431e-06
1.79284e-06
1.10915e-05
-9.79761e-08
-4.264e-06
9.12672e-06
1.40512e-06
-9.77001e-06
5.48399e-06
2.45098e-06
-1.27929e-05
1.85318e-06
2.04662e-06
-1.38916e-05
-1.39429e-06
1.66602e-06
-1.40164e-05
-2.9729e-06
8.50741e-07
-1.33454e-05
-3.89235e-06
2.78428e-07
-1.30262e-05
-4.71117e-06
4.70562e-07
-1.26015e-05
-6.11949e-06
7.22418e-07
-1.13449e-05
-6.98917e-06
4.34709e-07
-8.9841e-06
-9.00871e-06
-4.35885e-07
-6.36332e-06
-1.0506e-05
-1.05642e-06
-4.6883e-06
-1.15401e-05
-3.54329e-07
-2.25447e-06
-1.18221e-05
-6.87147e-07
2.21768e-06
-1.10778e-05
-1.87951e-06
7.8354e-06
-7.51827e-06
-3.35596e-06
1.26775e-05
-1.9534e-06
-4.36702e-06
1.45565e-05
3.69001e-06
-4.05075e-06
1.42131e-05
5.80117e-06
-2.89637e-06
1.0797e-05
8.61072e-06
-8.9841e-07
4.46618e-06
1.21314e-05
1.94572e-06
-1.31579e-06
1.01669e-05
3.48618e-06
-6.47977e-06
5.33871e-06
4.05185e-06
-1.12869e-05
3.73737e-06
3.48648e-06
-1.3808e-05
4.43578e-06
9.56183e-07
-1.19644e-05
7.11542e-06
-3.65911e-06
-7.1493e-06
9.19893e-06
-8.27463e-06
9.00061e-06
-1.15598e-05
-2.65641e-06
-2.64843e-06
-5.30999e-07
-1.5182e-06
-3.85265e-06
-8.47792e-07
-1.31284e-06
-1.55204e-06
-3.73328e-07
-8.88951e-07
-2.1344e-06
-2.56328e-07
-6.9117e-07
-1.24269e-06
-2.26808e-07
-5.57922e-07
-1.33386e-06
-1.20333e-07
-5.05367e-07
-1.06212e-06
-1.55882e-07
-4.8449e-07
-1.0892e-06
-1.46917e-07
-4.71122e-07
-1.0337e-06
-1.95379e-07
-4.31586e-07
-1.1069e-06
-2.33163e-07
-3.80377e-07
-1.12307e-06
-2.56849e-07
-3.13953e-07
-1.19924e-06
-2.7485e-07
-2.52017e-07
-1.20442e-06
-2.77145e-07
-1.93065e-07
-1.25234e-06
-2.78803e-07
-1.48661e-07
-1.24692e-06
-2.71458e-07
-1.09516e-07
-1.27696e-06
-2.68681e-07
-8.34384e-08
-1.2709e-06
-2.61423e-07
-6.08855e-08
-1.28863e-06
-2.59326e-07
-4.68669e-08
-1.28523e-06
-2.54435e-07
-3.48886e-08
-1.29535e-06
-2.5358e-07
-2.79923e-08
-1.2951e-06
-2.51255e-07
-2.22551e-08
-1.30121e-06
-2.51325e-07
-1.90165e-08
-1.30303e-06
-2.50809e-07
-1.66149e-08
-1.30654e-06
-2.5139e-07
-1.51693e-08
-1.3088e-06
-2.52057e-07
-1.41547e-08
-1.31115e-06
-2.53153e-07
-1.34755e-08
-1.31317e-06
-2.54387e-07
-1.27749e-08
-1.31498e-06
-2.55921e-07
-1.19502e-08
-1.31713e-06
-2.57593e-07
-1.06591e-08
-1.31861e-06
-2.59255e-07
-9.14165e-09
-1.32292e-06
-2.60708e-07
-6.66324e-09
-1.3229e-06
-2.62586e-07
-1.97054e-09
-1.33157e-06
-2.65361e-07
3.51885e-09
-1.32938e-06
-2.67237e-07
1.41284e-08
-1.34477e-06
-2.71249e-07
2.68531e-08
-1.34094e-06
-2.73664e-07
4.94554e-08
-1.36348e-06
-2.79432e-07
7.62848e-08
-1.35678e-06
-2.82596e-07
1.18288e-07
-1.38299e-06
-2.87691e-07
1.614e-07
-1.36736e-06
-2.85956e-07
2.1179e-07
-1.37912e-06
-2.75346e-07
2.45709e-07
-1.3344e-06
-2.47919e-07
2.42997e-07
-1.28383e-06
-1.93762e-07
1.34719e-07
-1.11167e-06
-1.11644e-07
-1.19442e-07
-8.77386e-07
-2.31706e-08
-4.79396e-07
-6.49139e-07
2.68361e-08
-9.23282e-07
-5.10798e-07
4.69293e-08
-1.13479e-06
-6.68717e-07
1.92598e-08
2.44234e-07
-2.41868e-06
-3.91477e-07
2.82524e-06
-3.93975e-06
-8.21683e-07
5.85879e-06
-5.00859e-06
-7.55088e-07
9.66533e-06
-9.65293e-06
-3.46207e-07
1.32946e-05
-1.27488e-05
-4.46552e-06
1.60693e-05
-1.05576e-05
-5.63953e-06
1.56499e-05
-7.25173e-06
-9.93271e-07
1.44303e-05
-9.76116e-06
-2.80372e-07
1.77497e-05
-1.03148e-05
-1.5828e-06
1.09069e-05
-1.30952e-05
4.06302e-06
2.18289e-05
1.84479e-05
1.98469e-05
3.7967e-05
-2.06765e-06
-2.99709e-06
5.73518e-06
-2.14863e-05
-1.24154e-05
-2.85765e-06
-8.55793e-06
1.39442e-06
-3.4928e-06
-7.77178e-06
-2.59711e-06
-6.91905e-06
-2.97754e-06
-4.20761e-07
-6.74983e-06
-1.81487e-06
-3.56877e-06
-5.80803e-06
2.00888e-06
-3.88115e-06
-4.96973e-06
5.49717e-06
-2.45783e-06
-5.71246e-06
1.05038e-05
-7.89264e-07
-9.31908e-06
1.40421e-05
6.56117e-07
-1.42314e-05
1.25722e-05
1.46709e-06
-1.64462e-05
6.92133e-06
7.77685e-07
-1.47608e-05
8.42817e-08
8.37174e-08
-1.34782e-05
-3.21525e-06
5.38414e-07
-1.26483e-05
-4.58599e-06
7.83233e-07
-1.17946e-05
-5.57561e-06
8.29613e-07
-1.10105e-05
-6.35006e-06
8.54873e-07
-9.9215e-06
-7.46672e-06
2.58268e-07
-8.34743e-06
-8.40342e-06
-1.59802e-07
-6.98481e-06
-1.05966e-05
2.25241e-07
-6.15083e-06
-1.27184e-05
1.37844e-06
-6.47098e-06
-1.39675e-05
2.74754e-06
-6.95053e-06
-1.47582e-05
3.41562e-06
-6.24953e-06
-1.5452e-05
3.67316e-06
-3.72813e-06
-1.34624e-05
3.42274e-06
1.33603e-06
-8.60219e-06
1.58462e-06
5.09994e-06
-5.43751e-07
4.69854e-07
4.6065e-06
4.59628e-06
1.69834e-06
9.80565e-07
8.73283e-06
3.50383e-06
-3.04059e-06
1.0987e-05
5.16553e-06
-5.52795e-06
7.22528e-06
5.42901e-06
-8.94711e-06
4.80403e-06
3.95386e-06
-1.24425e-05
4.48572e-06
2.74707e-06
-1.37611e-05
5.92534e-06
-1.70973e-07
-1.17705e-05
8.97483e-06
-3.84999e-06
-7.12874e-06
1.2423e-05
-7.86589e-06
1.34363e-05
-1.15644e-05
-2.6681e-06
-2.21471e-06
-2.3265e-07
-1.46617e-06
-4.01379e-06
-1.04294e-06
-1.49626e-06
-1.22584e-06
-2.92312e-07
-1.07997e-06
-2.31515e-06
-2.35983e-07
-8.54781e-07
-1.25859e-06
-2.06401e-07
-6.56828e-07
-1.47208e-06
-5.98415e-08
-5.72925e-07
-1.02232e-06
-1.2275e-07
-5.24631e-07
-1.02606e-06
-1.11368e-07
-5.13651e-07
-8.48018e-07
-1.96238e-07
-4.88243e-07
-8.7291e-07
-2.59269e-07
-4.45175e-07
-8.40805e-07
-3.25203e-07
-3.84511e-07
-8.88245e-07
-3.71652e-07
-3.16866e-07
-8.70831e-07
-4.01202e-07
-2.59075e-07
-8.92588e-07
-4.17546e-07
-2.06573e-07
-8.73547e-07
-4.25852e-07
-1.67062e-07
-8.87105e-07
-4.29379e-07
-1.35515e-07
-8.7227e-07
-4.30157e-07
-1.12459e-07
-8.80972e-07
-4.30731e-07
-9.53712e-08
-8.71887e-07
-4.30424e-07
-8.29927e-08
-8.76695e-07
-4.3107e-07
-7.423e-08
-8.72662e-07
-4.31217e-07
-6.79696e-08
-8.75481e-07
-4.3204e-07
-6.3878e-08
-8.74619e-07
-4.32543e-07
-6.10277e-08
-8.7588e-07
-4.33574e-07
-5.91693e-08
-8.75976e-07
-4.34734e-07
-5.79802e-08
-8.76323e-07
-4.36099e-07
-5.72944e-08
-8.76777e-07
-4.37144e-07
-5.67204e-08
-8.77538e-07
-4.38105e-07
-5.6341e-08
-8.7846e-07
-4.3911e-07
-5.55183e-08
-8.79241e-07
-4.40289e-07
-5.47497e-08
-8.8258e-07
-4.4114e-07
-5.2389e-08
-8.82947e-07
-4.42412e-07
-4.97214e-08
-8.9096e-07
-4.43282e-07
-4.42176e-08
-8.9067e-07
-4.44301e-07
-3.63148e-08
-9.06863e-07
-4.4576e-07
-2.22779e-08
-9.08117e-07
-4.46927e-07
-1.6062e-09
-9.35997e-07
-4.47983e-07
2.83242e-08
-9.39283e-07
-4.47499e-07
6.73538e-08
-9.79756e-07
-4.42052e-07
1.12446e-07
-9.82603e-07
-4.29759e-07
1.59462e-07
-1.02734e-06
-3.985e-07
2.02174e-07
-1.02248e-06
-3.54359e-07
2.52845e-07
-1.04288e-06
-2.9122e-07
2.82913e-07
-9.29381e-07
-2.11802e-07
2.436e-07
-7.02947e-07
-1.34182e-07
1.50365e-07
-4.3001e-07
-1.24158e-07
6.06605e-08
-2.50272e-07
-1.68898e-07
1.04788e-06
-1.02743e-06
-5.71739e-07
3.69302e-06
-3.70786e-06
-1.26368e-06
6.47181e-06
-5.18306e-06
-1.48232e-06
8.92745e-06
-7.53644e-06
1.92209e-07
1.133e-05
-1.22696e-05
3.7226e-07
1.40487e-05
-1.07922e-05
-4.51875e-06
1.5135e-05
-7.1288e-06
-4.51332e-06
1.11269e-05
-1.56395e-06
-1.50546e-06
2.6727e-06
-1.24424e-06
-2.45133e-07
-1.36496e-05
5.86392e-06
2.09491e-07
-2.72312e-05
-2.57156e-06
3.33798e-06
2.93271e-05
-1.60465e-05
6.37774e-06
4.16325e-05
-2.21821e-06
-3.45124e-06
4.13207e-06
-7.12868e-06
-1.41648e-05
-7.52541e-06
-9.19687e-07
2.0734e-06
-1.36722e-05
-5.87119e-07
-1.04539e-06
-1.63271e-05
9.04213e-07
-1.23304e-06
-1.71077e-05
1.95241e-06
-2.99261e-06
-1.67341e-05
4.87117e-06
-3.24178e-06
-1.76354e-05
8.57338e-06
-2.17866e-06
-1.83279e-05
1.22488e-05
-1.05381e-06
-1.83105e-05
1.38239e-05
2.02302e-07
-1.78488e-05
1.11103e-05
1.00422e-06
-1.52611e-05
3.24915e-06
1.08818e-06
-1.31727e-05
-2.81201e-06
8.10852e-07
-1.24711e-05
-4.88709e-06
9.72918e-07
-1.22421e-05
-5.49828e-06
6.86261e-07
-1.16512e-05
-6.57307e-06
4.09289e-07
-1.05326e-05
-7.79347e-06
3.26775e-07
-8.86397e-06
-9.3162e-06
1.81431e-07
-6.2931e-06
-1.10309e-05
5.39997e-08
-4.38693e-06
-1.30055e-05
4.97131e-07
-3.38641e-06
-1.503e-05
1.3048e-06
-4.33356e-06
-1.58391e-05
2.81424e-06
-6.80109e-06
-1.61514e-05
3.85867e-06
-9.09796e-06
-1.73609e-05
4.20468e-06
-1.04407e-05
-1.68443e-05
4.72412e-06
-1.11566e-05
-1.29163e-05
5.02985e-06
-9.82324e-06
-6.9392e-06
5.06211e-06
-9.11707e-06
-8.41071e-07
4.73118e-06
-8.8477e-06
3.38711e-06
5.07635e-06
-8.07579e-06
5.1243e-06
5.09082e-06
-9.00419e-06
3.73387e-06
4.4198e-06
-1.08933e-05
3.82224e-06
2.87089e-06
-1.30962e-05
4.70676e-06
1.98192e-06
-1.38183e-05
7.37171e-06
-7.24314e-07
-1.19482e-05
1.11947e-05
-4.08994e-06
-7.18117e-06
1.54506e-05
-7.79466e-06
1.6934e-05
-1.06789e-05
-2.64525e-06
-1.64052e-06
1.3878e-07
-1.38892e-06
-4.00019e-06
-1.27378e-06
-1.59028e-06
-1.03083e-06
1.14424e-08
-1.15421e-06
-2.61551e-06
-1.36709e-07
-8.51153e-07
-1.57307e-06
1.55576e-08
-5.76226e-07
-1.87988e-06
1.33459e-07
-4.19262e-07
-1.26048e-06
8.35663e-08
-3.60695e-07
-1.18027e-06
9.61532e-08
-3.781e-07
-8.21181e-07
-8.55417e-09
-4.07769e-07
-7.55185e-07
-8.77293e-08
-4.1398e-07
-6.24203e-07
-2.09828e-07
-3.76875e-07
-6.30858e-07
-2.94154e-07
-3.30864e-07
-5.54792e-07
-3.61641e-07
-2.83429e-07
-5.34339e-07
-4.05352e-07
-2.3761e-07
-4.79552e-07
-4.39464e-07
-2.02306e-07
-4.62428e-07
-4.59663e-07
-1.71424e-07
-4.25535e-07
-4.77302e-07
-1.50045e-07
-4.15272e-07
-4.86787e-07
-1.33322e-07
-3.92141e-07
-4.96181e-07
-1.22763e-07
-3.85905e-07
-5.01073e-07
-1.14294e-07
-3.74927e-07
-5.0593e-07
-1.08911e-07
-3.72369e-07
-5.08223e-07
-1.04986e-07
-3.68348e-07
-5.09927e-07
-1.02259e-07
-3.67899e-07
-5.10428e-07
-1.00707e-07
-3.67425e-07
-5.09833e-07
-1.00257e-07
-3.68076e-07
-5.08404e-07
-1.0036e-07
-3.69466e-07
-5.0693e-07
-1.00627e-07
-3.71698e-07
-5.05266e-07
-1.01197e-07
-3.74545e-07
-5.03044e-07
-1.01207e-07
-3.78093e-07
-5.00814e-07
-1.01711e-07
-3.83768e-07
-4.97969e-07
-1.00593e-07
-3.88424e-07
-4.95296e-07
-1.00757e-07
-3.9915e-07
-4.91254e-07
-9.79301e-08
-4.05285e-07
-4.87824e-07
-9.55615e-08
-4.26885e-07
-4.8187e-07
-8.72231e-08
-4.3829e-07
-4.77695e-07
-7.87776e-08
-4.76467e-07
-4.67368e-07
-6.46928e-08
-4.95625e-07
-4.57141e-07
-5.69066e-08
-5.53506e-07
-4.33255e-07
-5.30289e-08
-5.81355e-07
-4.04364e-07
-6.71218e-08
-6.60424e-07
-3.5187e-07
-6.4967e-08
-7.23483e-07
-3.00238e-07
2.41245e-08
-8.66577e-07
-2.64396e-07
2.35324e-07
-8.9638e-07
-2.43134e-07
4.76615e-07
-7.11073e-07
-2.3154e-07
6.19291e-07
-3.58787e-07
-2.1267e-07
9.88112e-07
-2.58922e-07
-3.3529e-07
2.78861e-06
-1.35454e-06
-1.37758e-06
4.70186e-06
-3.0091e-06
-2.54005e-06
5.50381e-06
-4.76599e-06
-1.10656e-06
7.8774e-06
-9.10689e-06
-6.16612e-07
9.20054e-06
-1.24417e-05
-9.80669e-07
1.25698e-05
-9.28731e-06
-4.77116e-06
1.80285e-05
-6.15021e-06
-6.42242e-06
2.20729e-05
-2.20449e-06
-3.20518e-06
2.53865e-05
-4.23976e-06
-4.53085e-07
2.8708e-05
3.96139e-06
6.32624e-07
2.6725e-05
2.01067e-06
-2.90451e-06
3.07953e-05
6.8622e-06
-1.83898e-06
4.03873e-05
2.60274e-06
-2.06896e-06
4.13762e-06
5.51982e-06
-1.55105e-05
-8.85288e-06
9.46951e-06
1.79271e-06
-1.70193e-05
7.80212e-06
-2.39375e-07
-1.95802e-05
4.47467e-06
-1.03907e-06
-2.01254e-05
4.56339e-06
-2.09863e-06
-1.98881e-05
6.24583e-06
-1.64259e-06
-2.09114e-05
1.01254e-05
-5.42137e-07
-2.10828e-05
1.2115e-05
3.07249e-07
-1.98926e-05
1.16365e-05
1.00954e-06
-1.69313e-05
6.81119e-06
1.35543e-06
-1.55571e-05
4.8725e-07
1.40174e-06
-1.72219e-05
-2.49463e-06
1.36258e-06
-1.91597e-05
-3.66045e-06
7.25653e-07
-1.94492e-05
-5.08939e-06
-1.03158e-07
-1.8738e-05
-6.66504e-06
-6.0242e-07
-1.72484e-05
-8.32852e-06
-9.39054e-07
-1.43154e-05
-1.10098e-05
-1.22803e-06
-1.0161e-05
-1.393e-05
-1.25068e-06
-6.32964e-06
-1.60732e-05
-7.75739e-07
-3.78943e-06
-1.74157e-05
-1.93805e-07
-3.26046e-06
-1.76568e-05
1.23682e-06
-5.06797e-06
-1.6725e-05
2.336e-06
-7.87378e-06
-1.74261e-05
2.83244e-06
-1.00664e-05
-1.80859e-05
3.40451e-06
-1.20846e-05
-1.55928e-05
4.67623e-06
-1.28544e-05
-1.08806e-05
4.70286e-06
-1.22584e-05
-6.22302e-06
4.78304e-06
-1.09181e-05
-2.3581e-06
4.40442e-06
-9.6674e-06
-5.52238e-07
4.42585e-06
-9.98949e-06
1.2399e-07
3.93189e-06
-1.12859e-05
2.54741e-06
2.57108e-06
-1.2491e-05
4.93551e-06
9.76118e-07
-1.29001e-05
8.67099e-06
-8.90363e-07
-1.11061e-05
1.34251e-05
-4.02464e-06
-6.54516e-06
1.81801e-05
-7.29053e-06
1.98419e-05
-9.45303e-06
-2.7902e-06
-7.06935e-07
4.99224e-07
-1.64448e-06
-3.68793e-06
-1.46363e-06
-2.00797e-06
-8.69551e-07
2.08132e-07
-1.5006e-06
-2.75487e-06
-3.71668e-07
-1.1233e-06
-1.9876e-06
4.07403e-08
-6.93243e-07
-2.29166e-06
-1.81575e-08
-3.36331e-07
-1.66044e-06
4.64043e-08
-1.59997e-07
-1.40416e-06
4.84577e-08
-1.10191e-07
-9.08153e-07
3.8502e-08
-1.76948e-07
-6.77537e-07
-1.09198e-08
-2.39785e-07
-4.57357e-07
-1.0379e-07
-2.46786e-07
-4.36871e-07
-1.8717e-07
-2.45356e-07
-3.05211e-07
-2.50884e-07
-2.25746e-07
-2.52705e-07
-3.01258e-07
-2.11188e-07
-1.56304e-07
-3.37638e-07
-1.93035e-07
-1.11971e-07
-3.68528e-07
-1.7852e-07
-5.12223e-08
-3.88677e-07
-1.65995e-07
-2.68674e-08
-4.00863e-07
-1.58782e-07
9.86666e-09
-4.09125e-07
-1.53945e-07
2.21907e-08
-4.12909e-07
-1.50434e-07
3.76092e-08
-4.15994e-07
-1.48447e-07
4.22119e-08
-4.16566e-07
-1.47289e-07
4.71135e-08
-4.16595e-07
-1.46892e-07
4.69878e-08
-4.15299e-07
-1.47076e-07
4.59699e-08
-4.13209e-07
-1.47293e-07
4.2723e-08
-4.10609e-07
-1.47652e-07
3.83447e-08
-4.07457e-07
-1.4819e-07
3.28074e-08
-4.04001e-07
-1.49255e-07
2.65509e-08
-4.00031e-07
-1.50361e-07
1.91434e-08
-3.96175e-07
-1.53265e-07
1.05366e-08
-3.91384e-07
-1.56057e-07
2.00675e-09
-3.87686e-07
-1.6074e-07
-1.33161e-08
-3.81084e-07
-1.64817e-07
-2.50963e-08
-3.76111e-07
-1.71053e-07
-5.11687e-08
-3.69343e-07
-1.76598e-07
-6.80707e-08
-3.64625e-07
-1.8563e-07
-1.11994e-07
-3.55233e-07
-2.00227e-07
-1.38356e-07
-3.42551e-07
-2.28405e-07
-2.06792e-07
-3.1823e-07
-2.71922e-07
-2.50507e-07
-2.87108e-07
-3.20395e-07
-3.65335e-07
-2.46172e-07
-3.2406e-07
-5.0406e-07
-2.15337e-07
-1.68925e-07
-7.68894e-07
-2.52201e-07
1.83191e-07
-9.22476e-07
-3.25232e-07
6.37762e-07
-7.82985e-07
-3.81071e-07
1.04014e-06
-4.45995e-07
-3.12499e-07
2.05227e-06
-5.42176e-07
-6.77153e-07
3.87368e-06
-8.47208e-07
-2.24357e-06
3.49452e-06
-6.69362e-07
-1.8809e-06
2.25509e-06
-1.89398e-06
-1.50223e-06
2.41874e-06
-6.02213e-06
-3.08971e-06
2.63132e-06
-9.60672e-06
-2.99258e-06
6.44105e-06
-8.78163e-06
-4.19772e-06
9.86927e-06
-1.70091e-06
-7.93733e-06
1.34571e-05
5.64571e-07
-6.23937e-06
2.08799e-05
-2.60582e-06
-9.46503e-06
2.92666e-05
3.56033e-07
-2.29171e-06
2.18148e-05
5.87398e-06
4.03301e-06
3.03684e-05
2.91044e-05
-5.31415e-06
4.30301e-05
6.08307e-06
-2.96746e-06
5.89745e-06
1.7843e-05
-1.53899e-05
-3.71789e-06
1.61584e-05
1.39598e-06
-1.13978e-05
1.51742e-05
3.19844e-07
-1.70204e-05
9.79728e-06
2.95468e-07
-1.94415e-05
8.0814e-06
-1.115e-06
-2.03013e-05
8.09202e-06
-1.00398e-06
-2.1506e-05
1.16133e-05
-2.6708e-07
-2.13384e-05
1.16491e-05
3.44449e-07
-2.01726e-05
9.48876e-06
1.0371e-06
-2.04466e-05
5.56119e-06
1.57296e-06
-2.59235e-05
4.54037e-06
1.4595e-06
-3.14857e-05
2.74009e-06
3.43989e-07
-3.30973e-05
-8.44894e-07
-1.23577e-06
-3.16074e-05
-4.8804e-06
-1.74939e-06
-2.90023e-05
-7.19915e-06
-2.1082e-06
-2.52292e-05
-1.00117e-05
-2.12589e-06
-2.0594e-05
-1.38788e-05
-1.79179e-06
-1.56973e-05
-1.74682e-05
-1.36294e-06
-1.0898e-05
-2.01181e-05
-7.39414e-07
-7.1663e-06
-2.11899e-05
6.52126e-08
-5.45944e-06
-2.06963e-05
1.3458e-06
-5.75319e-06
-1.85011e-05
2.05989e-06
-8.05137e-06
-1.7035e-05
1.83976e-06
-1.01933e-05
-1.76789e-05
1.61688e-06
-1.09336e-05
-1.62826e-05
1.28374e-06
-1.19068e-05
-1.23687e-05
2.31827e-06
-1.20408e-05
-8.92239e-06
2.71249e-06
-1.20201e-05
-5.70902e-06
3.23863e-06
-1.06393e-05
-2.4212e-06
4.2915e-07
-9.41798e-06
1.83158e-07
-1.31592e-06
-9.45833e-06
3.69331e-06
-1.13335e-06
-1.01497e-05
7.43137e-06
-1.82895e-06
-1.04147e-05
1.14594e-05
-2.54825e-06
-8.99204e-06
1.6059e-05
-4.07821e-06
-4.82955e-06
2.06039e-05
-6.59984e-06
2.27635e-05
-7.76786e-06
-2.90483e-06
5.43355e-07
1.31665e-06
-2.05598e-06
-2.74825e-06
-1.79834e-06
-2.4496e-06
-6.54116e-07
1.85904e-07
-1.90656e-06
-2.35995e-06
-9.44284e-07
-1.43822e-06
-2.22113e-06
-2.31961e-07
-9.20728e-07
-2.34278e-06
-4.67447e-07
-4.34037e-07
-1.9329e-06
-2.10829e-07
-6.20959e-08
-1.54931e-06
-2.24879e-07
1.66807e-07
-1.02665e-06
-1.07926e-07
9.05392e-08
-4.99095e-07
-1.01659e-07
4.70259e-09
-2.05344e-07
-1.65951e-07
-5.08219e-08
-1.30046e-07
-2.51825e-07
-8.15701e-08
4.58824e-08
-3.20341e-07
-9.76941e-08
1.42267e-07
-3.79015e-07
-1.18231e-07
2.7002e-07
-4.05881e-07
-1.38771e-07
3.34674e-07
-4.2627e-07
-1.56444e-07
4.11855e-07
-4.45519e-07
-1.69438e-07
4.47786e-07
-4.61851e-07
-1.81837e-07
4.93633e-07
-4.71549e-07
-1.92461e-07
5.13598e-07
-4.81034e-07
-2.02527e-07
5.36031e-07
-4.88608e-07
-2.1195e-07
5.47018e-07
-4.95674e-07
-2.20121e-07
5.57377e-07
-5.02389e-07
-2.27249e-07
5.62586e-07
-5.08775e-07
-2.34008e-07
5.66885e-07
-5.14474e-07
-2.40348e-07
5.68849e-07
-5.20096e-07
-2.46424e-07
5.6957e-07
-5.25475e-07
-2.52171e-07
5.69068e-07
-5.30822e-07
-2.58352e-07
5.68145e-07
-5.35728e-07
-2.64319e-07
5.65998e-07
-5.41184e-07
-2.72418e-07
5.63657e-07
-5.45298e-07
-2.79821e-07
5.59584e-07
-5.50442e-07
-2.93243e-07
5.54939e-07
-5.55069e-07
-3.04209e-07
5.52977e-07
-5.67367e-07
-3.19426e-07
5.42247e-07
-5.78382e-07
-3.39134e-07
5.37738e-07
-5.86266e-07
-3.72914e-07
5.11747e-07
-5.90001e-07
-4.22291e-07
4.9479e-07
-5.83794e-07
-4.9417e-07
4.34631e-07
-5.69403e-07
-5.79492e-07
3.7835e-07
-5.43395e-07
-6.41894e-07
2.17949e-07
-5.20488e-07
-6.02737e-07
-3.39101e-08
-5.08889e-07
-3.78779e-07
-4.03832e-07
-5.88397e-07
7.39834e-08
-6.56597e-07
-7.17697e-07
6.69072e-07
-5.90302e-07
-7.85609e-07
1.15164e-06
-2.60813e-07
-6.61781e-07
2.22378e-06
-1.9799e-07
-1.35948e-06
4.21028e-06
3.4488e-07
-3.07316e-06
3.8347e-06
1.69078e-06
-1.89394e-06
7.85437e-07
3.34053e-06
-2.08435e-06
-2.95772e-06
3.97292e-06
-6.09499e-06
-5.17667e-06
7.10799e-07
-8.0749e-06
-6.44207e-06
1.22662e-06
-8.71459e-06
-5.60227e-06
6.92211e-06
-9.6627e-06
-8.91852e-06
1.38685e-05
-1.01463e-05
-1.72031e-05
1.17121e-05
-6.3995e-06
-1.13128e-05
4.35994e-06
-8.11542e-06
-2.51547e-05
1.71475e-05
2.72879e-06
3.72194e-05
-6.8559e-06
8.80986e-06
5.24517e-05
7.57652e-06
-5.8631e-06
4.27072e-06
3.65007e-05
-1.60414e-05
-6.43162e-06
1.76995e-05
5.59956e-06
-1.37081e-05
2.00859e-05
2.5457e-06
-1.89402e-05
1.0578e-05
4.53431e-06
-2.36322e-05
1.15016e-05
1.33002e-06
-2.73686e-05
1.08871e-05
1.01502e-06
-3.17903e-05
1.50841e-05
1.06546e-06
-3.65857e-05
1.45136e-05
2.08038e-06
-4.16696e-05
1.30272e-05
1.6812e-06
-4.50878e-05
1.09186e-05
-1.8889e-06
-4.64302e-05
1.09577e-05
-5.17987e-06
-4.57094e-05
9.80771e-06
-7.99769e-06
-4.36834e-05
6.74388e-06
-9.81663e-06
-4.14046e-05
3.50358e-06
-1.08735e-05
-3.73668e-05
-7.61102e-08
-1.13911e-05
-3.20191e-05
-5.28433e-06
-1.03232e-05
-2.61218e-05
-1.19418e-05
-8.04809e-06
-1.98579e-05
-1.76836e-05
-6.21837e-06
-1.38591e-05
-2.20662e-05
-4.17543e-06
-8.35694e-06
-2.48472e-05
-1.84998e-06
-5.15005e-06
-2.44022e-05
6.04048e-07
-4.26069e-06
-2.2054e-05
2.82175e-06
-7.18712e-06
-1.76227e-05
3.72237e-06
-1.37326e-05
-1.42231e-05
3.29638e-06
-1.75354e-05
-1.43253e-05
2.02338e-06
-2.03729e-05
-1.08296e-05
1.42311e-06
-2.29847e-05
-7.34808e-06
1.12055e-06
-2.60122e-05
-3.86578e-06
1.24185e-06
-2.9846e-05
-3.98409e-08
1.54699e-06
-3.2006e-05
2.49588e-06
-7.69427e-08
-3.18712e-05
4.81895e-06
-1.21178e-06
-3.05488e-05
8.45189e-06
-2.30418e-06
-2.74337e-05
1.19634e-05
-3.6607e-06
-2.18972e-05
1.53656e-05
-5.13311e-06
-1.2256e-05
1.69913e-05
-6.63993e-06
1.53424e-05
-7.87361e-06
-3.64459e-06
1.79123e-06
2.66295e-06
-2.48257e-06
-2.31059e-06
-1.61611e-06
-2.75196e-06
-1.92184e-07
-1.83108e-07
-2.07908e-06
-1.55883e-06
-1.48051e-06
-1.5437e-06
-1.94486e-06
-8.09845e-07
-1.05931e-06
-2.05254e-06
-7.76089e-07
-5.59736e-07
-1.88879e-06
-5.4081e-07
-4.51731e-08
-1.633e-06
-4.27557e-07
4.07188e-07
-1.21034e-06
-2.6398e-07
4.01846e-07
-3.9901e-07
-9.21874e-08