/*--------------------------------*- C++ -*----------------------------------*\
| =========                 |                                                 |
| \\      /  F ield         | OpenFOAM: The Open Source CFD Toolbox           |
|  \\    /   O peration     | Version:  2.3.0                                 |
|   \\  /    A nd           | Web:      www.OpenFOAM.org                      |
|    \\/     M anipulation  |                                                 |
\*---------------------------------------------------------------------------*/
FoamFile
{
    version     2.0;
    format      ascii;
    class       surfaceScalarField;
    location    "8";
    object      phi.air;
}
// * * * * * * * * * * * * * * * * * * * * * * * * * * * * * * * * * * * * * //

dimensions      [0 3 -1 0 0 0 0];

internalField   nonuniform List<scalar> 
16448
(
-1.9336e-06
-2.05915e-06
5.97428e-07
-5.92977e-07
-2.04036e-06
6.99741e-07
-3.89969e-07
-1.16903e-06
9.66011e-07
-1.77002e-07
-1.20859e-06
9.95615e-07
-1.9858e-07
-9.86048e-07
1.00761e-06
-1.92113e-07
-1.02566e-06
1.01918e-06
-2.21565e-07
-9.87335e-07
1.01678e-06
-2.20492e-07
-1.02061e-06
1.01953e-06
-2.29416e-07
-1.02101e-06
1.02993e-06
-2.03753e-07
-1.05768e-06
1.03202e-06
-1.94487e-07
-1.05771e-06
1.04845e-06
-1.58777e-07
-1.08945e-06
1.05374e-06
-1.42991e-07
-1.08551e-06
1.06972e-06
-1.12139e-07
-1.10655e-06
1.0757e-06
-9.83915e-08
-1.10126e-06
1.08751e-06
-7.722e-08
-1.11373e-06
1.09256e-06
-6.77618e-08
-1.10995e-06
1.1005e-06
-5.55109e-08
-1.11667e-06
1.10443e-06
-4.9921e-08
-1.11518e-06
1.1096e-06
-4.38294e-08
-1.11874e-06
1.11265e-06
-4.09431e-08
-1.11893e-06
1.11605e-06
-3.84651e-08
-1.12093e-06
1.11846e-06
-3.72716e-08
-1.122e-06
1.12081e-06
-3.65938e-08
-1.12346e-06
1.12279e-06
-3.64418e-08
-1.12474e-06
1.12459e-06
-3.65864e-08
-1.12606e-06
1.12621e-06
-3.69514e-08
-1.12734e-06
1.12771e-06
-3.74583e-08
-1.12858e-06
1.1291e-06
-3.80494e-08
-1.12982e-06
1.13042e-06
-3.87549e-08
-1.13095e-06
1.13166e-06
-3.93017e-08
-1.13238e-06
1.13293e-06
-3.99364e-08
-1.13344e-06
1.13408e-06
-3.96958e-08
-1.13551e-06
1.13528e-06
-4.02914e-08
-1.13568e-06
1.13628e-06
-3.89254e-08
-1.13895e-06
1.13759e-06
-3.84534e-08
-1.13893e-06
1.13846e-06
-3.50806e-08
-1.14327e-06
1.13991e-06
-3.15855e-08
-1.14422e-06
1.14073e-06
-2.50604e-08
-1.14926e-06
1.14274e-06
-1.45151e-08
-1.15336e-06
1.14282e-06
-6.52788e-10
-1.15883e-06
1.14498e-06
2.35683e-08
-1.17091e-06
1.1467e-06
4.66897e-08
-1.16817e-06
1.14506e-06
1.01929e-07
-1.20176e-06
1.14653e-06
1.48833e-07
-1.18841e-06
1.14152e-06
2.52322e-07
-1.23479e-06
1.13131e-06
3.52739e-07
-1.22332e-06
1.12291e-06
5.40839e-07
-1.24894e-06
1.06085e-06
7.41923e-07
-1.24622e-06
1.04514e-06
1.01723e-06
-1.1181e-06
8.42802e-07
1.35868e-06
-1.12681e-06
7.85367e-07
9.3238e-07
5.35995e-09
4.20945e-07
8.41601e-07
-4.606e-07
5.51377e-07
-1.8795e-07
-4.88938e-07
1.51849e-06
-6.06341e-07
-1.59168e-06
2.01004e-06
-1.31062e-06
-3.74557e-06
4.44984e-06
-2.36814e-06
-1.13918e-06
2.19603e-06
-4.45266e-06
2.03137e-06
5.27731e-08
-6.3843e-06
6.27064e-07
1.05964e-06
-2.8183e-05
-1.83344e-05
1.23117e-05
-6.0825e-05
-1.48981e-05
2.91213e-06
-1.7555e-05
-2.10264e-06
7.83673e-07
1.97254e-05
1.24706e-06
-3.52243e-06
2.154e-05
-1.43612e-06
-6.2895e-07
2.27799e-05
-2.68224e-07
-1.01686e-06
2.3522e-05
8.70918e-07
-1.58417e-06
2.39651e-05
1.37115e-06
-1.81862e-06
2.41449e-05
1.57613e-06
-1.78121e-06
2.4038e-05
1.69064e-06
-1.60821e-06
2.36577e-05
1.71353e-06
-1.35274e-06
2.31334e-05
1.59375e-06
-1.08405e-06
2.26373e-05
1.33579e-06
-8.51816e-07
2.22841e-05
9.724e-07
-6.27613e-07
2.20758e-05
6.63274e-07
-4.64487e-07
2.19169e-05
4.36588e-07
-2.86157e-07
2.17855e-05
2.9772e-07
-1.72561e-07
2.16033e-05
2.83031e-07
-1.01707e-07
2.12981e-05
3.27796e-07
-1.94052e-08
2.08641e-05
4.92899e-07
-5.36748e-08
1.99958e-05
7.86508e-07
9.54617e-08
1.89165e-05
1.0319e-06
5.17174e-08
1.72979e-05
1.42663e-06
1.97707e-07
1.48947e-05
1.84136e-06
5.72987e-07
1.22245e-05
1.99438e-06
6.64753e-07
7.89983e-06
2.35501e-06
1.89408e-06
2.6621e-06
2.40508e-06
2.72198e-06
-1.33649e-06
1.78272e-06
2.20031e-06
-3.52319e-06
1.01189e-06
1.23324e-06
-3.90323e-06
3.45178e-07
1.18862e-07
-3.04702e-06
-3.77754e-07
-3.65077e-07
-1.75593e-06
-1.01631e-06
-1.01775e-07
-8.2801e-07
-1.3603e-06
6.76249e-07
-3.16822e-07
-1.35678e-06
1.07722e-06
-2.18574e-07
-1.27154e-06
1.2767e-06
-3.97719e-07
-1.21093e-06
1.39427e-06
-1.19965e-06
1.45588e-06
-2.24147e-06
-2.93843e-06
-3.03208e-07
-9.47837e-07
-3.14116e-06
-1.92848e-07
-7.0173e-07
-1.7147e-06
2.99544e-07
-4.73176e-07
-1.81087e-06
3.73701e-07
-4.92531e-07
-1.37277e-06
4.06053e-07
-4.80968e-07
-1.44631e-06
4.09073e-07
-5.00338e-07
-1.36939e-06
4.01409e-07
-4.83627e-07
-1.4316e-06
3.94267e-07
-4.71206e-07
-1.43507e-06
4.01646e-07
-4.23069e-07
-1.50161e-06
3.9579e-07
-3.89651e-07
-1.50646e-06
4.15331e-07
-3.32625e-07
-1.56214e-06
4.15671e-07
-2.98058e-07
-1.55799e-06
4.37925e-07
-2.50075e-07
-1.59595e-06
4.4142e-07
-2.23053e-07
-1.58861e-06
4.60335e-07
-1.8932e-07
-1.61206e-06
4.64605e-07
-1.71136e-07
-1.60655e-06
4.78417e-07
-1.50435e-07
-1.62005e-06
4.8269e-07
-1.39069e-07
-1.61822e-06
4.91676e-07
-1.27627e-07
-1.62576e-06
4.95589e-07
-1.20908e-07
-1.62682e-06
5.01179e-07
-1.15059e-07
-1.63135e-06
5.04578e-07
-1.11264e-07
-1.63386e-06
5.08064e-07
-1.08415e-07
-1.63702e-06
5.10715e-07
-1.0649e-07
-1.63974e-06
5.13086e-07
-1.05125e-07
-1.64249e-06
5.15065e-07
-1.04185e-07
-1.64506e-06
5.16793e-07
-1.03525e-07
-1.64754e-06
5.18298e-07
-1.03e-07
-1.64995e-06
5.19603e-07
-1.02394e-07
-1.65229e-06
5.20737e-07
-1.01944e-07
-1.65465e-06
5.21834e-07
-1.01398e-07
-1.6567e-06
5.22721e-07
-1.00179e-07
-1.65997e-06
5.23243e-07
-9.92472e-08
-1.66071e-06
5.24108e-07
-9.60355e-08
-1.66624e-06
5.24082e-07
-9.41681e-08
-1.66576e-06
5.24972e-07
-8.76078e-08
-1.67396e-06
5.24132e-07
-8.2558e-08
-1.67399e-06
5.24732e-07
-7.13555e-08
-1.68415e-06
5.23699e-07
-5.86488e-08
-1.68858e-06
5.2252e-07
-3.97244e-08
-1.69906e-06
5.21314e-07
-1.22268e-08
-1.71547e-06
5.17071e-07
2.46253e-08
-1.72002e-06
5.15008e-07
8.49852e-08
-1.76503e-06
5.02926e-07
1.48295e-07
-1.7546e-06
5.02889e-07
2.73417e-07
-1.83341e-06
4.73512e-07
3.98183e-07
-1.82634e-06
4.78277e-07
6.69499e-07
-1.9249e-06
4.0466e-07
9.1484e-07
-1.93172e-06
4.40177e-07
1.61956e-06
-2.06909e-06
2.46279e-07
2.29119e-06
-2.1076e-06
3.09175e-07
3.48662e-06
-7.15492e-07
-4.74569e-07
3.01597e-06
1.31292e-07
-1.21253e-07
3.57254e-07
1.26493e-06
9.04849e-07
1.11935e-06
-2.63447e-06
2.80665e-07
3.09702e-06
-8.10697e-06
2.3837e-06
-3.42548e-06
5.15696e-06
2.256e-07
-1.04949e-05
9.90161e-06
-8.01331e-07
-7.27988e-06
2.86696e-06
-5.75599e-06
-2.91151e-05
-2.97442e-05
4.87665e-06
-7.45808e-05
-2.41999e-05
3.68989e-06
-3.40609e-05
-5.00223e-06
-1.41776e-06
1.22315e-05
-4.85923e-06
-4.03641e-06
1.44064e-05
-7.01604e-07
-3.25674e-06
1.59819e-05
1.8471e-06
-3.39504e-06
1.80709e-05
2.53328e-06
-3.71361e-06
1.97242e-05
3.15524e-06
-3.46646e-06
2.0691e-05
3.59747e-06
-2.96591e-06
2.10547e-05
3.74874e-06
-2.38591e-06
2.0991e-05
3.63127e-06
-1.83217e-06
2.06348e-05
3.34042e-06
-1.39023e-06
2.0247e-05
2.67643e-06
-9.80615e-07
2.00881e-05
1.67196e-06
-5.80293e-07
2.00998e-05
8.50754e-07
-2.20362e-07
2.01196e-05
3.20589e-07
1.0072e-07
2.00811e-05
9.07496e-08
2.5862e-07
1.99772e-05
3.10711e-08
3.64472e-07
1.97883e-05
1.43255e-07
3.82426e-07
1.94913e-05
4.75725e-07
3.12062e-07
1.88265e-05
1.07395e-06
3.69609e-07
1.78726e-05
1.75786e-06
2.15608e-07
1.63649e-05
2.58549e-06
3.30914e-07
1.42407e-05
3.29406e-06
6.48583e-07
1.16846e-05
3.86854e-06
6.70486e-07
7.63813e-06
4.54257e-06
1.77382e-06
2.74851e-06
4.69641e-06
2.49222e-06
-8.84285e-07
3.41376e-06
1.97883e-06
-3.01336e-06
1.92706e-06
1.26418e-06
-3.65406e-06
1.14899e-06
-7.89887e-08
-3.0178e-06
4.94752e-07
-1.39334e-06
-1.77021e-06
-4.85055e-07
-1.58545e-06
-6.89587e-07
-1.29816e-06
-8.60157e-07
-7.31835e-08
-1.54507e-06
-1.41204e-07
-7.84647e-09
-1.49265e-06
2.99917e-07
-3.07847e-07
-1.41077e-06
5.23243e-07
-1.41411e-06
6.45249e-07
-2.48003e-06
-3.13288e-06
-5.96513e-07
-1.24495e-06
-3.61006e-06
-7.66189e-07
-9.23957e-07
-1.84129e-06
-1.94422e-07
-6.10332e-07
-2.05592e-06
-6.85961e-08
-5.54032e-07
-1.43739e-06
8.29772e-09
-5.29443e-07
-1.51096e-06
4.00382e-08
-5.35969e-07
-1.38549e-06
2.26146e-08
-5.21849e-07
-1.45903e-06
1.33066e-08
-5.06088e-07
-1.45802e-06
7.1894e-09
-4.55074e-07
-1.54402e-06
-8.59702e-09
-4.13846e-07
-1.55e-06
2.32809e-09
-3.5403e-07
-1.61936e-06
-2.58152e-09
-3.12522e-07
-1.61109e-06
1.15987e-08
-2.63096e-07
-1.65771e-06
1.23485e-08
-2.32042e-07
-1.64508e-06
2.54235e-08
-1.9811e-07
-1.67343e-06
2.74449e-08
-1.78183e-07
-1.66356e-06
3.70981e-08
-1.574e-07
-1.67965e-06
3.88228e-08
-1.45671e-07
-1.67463e-06
4.46966e-08
-1.34264e-07
-1.68306e-06
4.58979e-08
-1.27813e-07
-1.68219e-06
4.89248e-08
-1.22053e-07
-1.68675e-06
4.96402e-08
-1.18566e-07
-1.68814e-06
5.07997e-08
-1.15919e-07
-1.69076e-06
5.10946e-08
-1.14245e-07
-1.69264e-06
5.1227e-08
-1.13086e-07
-1.69464e-06
5.0999e-08
-1.1236e-07
-1.69637e-06
5.05887e-08
-1.11934e-07
-1.69796e-06
5.00052e-08
-1.11696e-07
-1.69945e-06
4.92731e-08
-1.11526e-07
-1.70086e-06
4.84104e-08
-1.11376e-07
-1.70229e-06
4.74982e-08
-1.11009e-07
-1.70351e-06
4.64524e-08
-1.10419e-07
-1.70578e-06
4.52274e-08
-1.0974e-07
-1.70561e-06
4.42216e-08
-1.07542e-07
-1.71094e-06
4.25126e-08
-1.06083e-07
-1.70875e-06
4.15412e-08
-1.00845e-07
-1.71811e-06
3.89193e-08
-9.75822e-08
-1.71524e-06
3.79941e-08
-8.75307e-08
-1.72854e-06
3.43535e-08
-7.88854e-08
-1.72973e-06
3.2521e-08
-6.01079e-08
-1.74555e-06
2.77198e-08
-3.88037e-08
-1.75982e-06
2.30593e-08
1.46964e-09
-1.77678e-06
1.64953e-08
4.65617e-08
-1.81636e-06
6.24686e-09
1.13262e-07
-1.82443e-06
3.14612e-09
2.28835e-07
-1.9121e-06
-3.6876e-08
3.47607e-07
-1.91941e-06
-2.569e-08
5.7906e-07
-2.06181e-06
-9.45305e-08
7.64318e-07
-2.07777e-06
-3.91932e-08
1.25215e-06
-2.3845e-06
-1.72404e-07
1.8303e-06
-2.59964e-06
-8.61019e-08
3.93606e-06
-1.80299e-06
-1.01826e-06
4.83624e-06
3.9624e-07
-1.16513e-06
3.43494e-06
3.18881e-06
-5.22578e-07
2.7032e-06
-2.02769e-06
1.24905e-07
-6.19926e-07
-7.53851e-06
2.75467e-06
3.0396e-06
2.85776e-06
-1.36115e-06
2.29732e-06
1.33342e-05
-2.69034e-06
-3.66458e-06
1.01977e-05
-1.61381e-06
-2.50895e-05
-3.46697e-05
1.54176e-06
-3.36451e-05
-3.59462e-05
7.50051e-06
-2.88271e-06
-1.31673e-05
1.4807e-06
6.62472e-06
-1.29222e-05
-1.90049e-06
6.86703e-06
8.35403e-07
-2.02251e-06
1.03949e-05
1.2579e-06
-2.69587e-06
1.32102e-05
2.35599e-06
-2.7372e-06
1.50441e-05
3.33346e-06
-2.26086e-06
1.59777e-05
3.81875e-06
-1.48155e-06
1.61851e-05
4.19868e-06
-6.69301e-07
1.58939e-05
3.91808e-06
7.41885e-09
1.53297e-05
3.24592e-06
6.91726e-07
1.45997e-05
2.16451e-06
1.29037e-06
1.37541e-05
7.19917e-07
1.82423e-06
1.28239e-05
-4.1222e-07
2.19963e-06
1.18563e-05
-9.88745e-07
2.28571e-06
1.1051e-05
-1.20888e-06
2.1127e-06
1.05685e-05
-1.31525e-06
1.82436e-06
1.04864e-05
-1.15226e-06
1.37814e-06
1.07603e-05
-7.59681e-07
9.7424e-07
1.11896e-05
2.46118e-08
6.33162e-07
1.14696e-05
1.19346e-06
3.00832e-07
1.11428e-05
2.59885e-06
3.18172e-07
1.00232e-05
3.91801e-06
4.87982e-07
7.51069e-06
5.21013e-06
1.1327e-06
3.27505e-06
6.23177e-06
2.42253e-06
-3.09099e-07
5.4472e-06
2.74443e-06
-2.36415e-06
3.27041e-06
2.20874e-06
-3.71578e-06
1.86839e-06
1.43701e-06
-3.85231e-06
1.40155e-06
-5.43903e-08
-2.90987e-06
1.17907e-06
-1.53059e-06
-1.57928e-06
5.35123e-07
-2.16146e-06
-4.89023e-07
-3.9072e-07
-1.69298e-06
6.33474e-08
-9.06189e-07
-8.70129e-07
9.4548e-08
-1.002e-06
-3.65662e-07
-2.47217e-07
-9.7773e-07
-8.11839e-08
-1.01035e-06
1.32239e-07
-2.76369e-06
-2.77808e-06
-6.29392e-07
-1.61867e-06
-3.81692e-06
-9.38171e-07
-1.3823e-06
-1.68848e-06
-3.89198e-07
-9.95771e-07
-2.1584e-06
-2.84079e-07
-8.36507e-07
-1.38018e-06
-2.1651e-07
-7.32708e-07
-1.47278e-06
-1.42004e-07
-6.92168e-07
-1.25563e-06
-1.70418e-07
-6.59674e-07
-1.31486e-06
-1.76662e-07
-6.26361e-07
-1.28215e-06
-2.09178e-07
-5.64308e-07
-1.3689e-06
-2.37154e-07
-5.03844e-07
-1.36404e-06
-2.46414e-07
-4.32274e-07
-1.43265e-06
-2.58271e-07
-3.7525e-07
-1.41689e-06
-2.51211e-07
-3.18222e-07
-1.46218e-06
-2.52548e-07
-2.794e-07
-1.44276e-06
-2.41127e-07
-2.41992e-07
-1.47114e-06
-2.39684e-07
-2.18239e-07
-1.45591e-06
-2.31395e-07
-1.95971e-07
-1.47154e-06
-2.30367e-07
-1.82445e-07
-1.46283e-06
-2.2532e-07
-1.70044e-07
-1.47034e-06
-2.25107e-07
-1.62964e-07
-1.46639e-06
-2.22874e-07
-1.56722e-07
-1.46973e-06
-2.23244e-07
-1.53038e-07
-1.46883e-06
-2.22987e-07
-1.50266e-07
-1.46974e-06
-2.23786e-07
-1.48543e-07
-1.46965e-06
-2.24707e-07
-1.4738e-07
-1.46975e-06
-2.26042e-07
-1.46719e-07
-1.4695e-06
-2.27527e-07
-1.46422e-07
-1.46907e-06
-2.29186e-07
-1.46363e-07
-1.46848e-06
-2.31019e-07
-1.46412e-07
-1.46781e-06
-2.32998e-07
-1.46486e-07
-1.46715e-06
-2.35064e-07
-1.46468e-07
-1.46632e-06
-2.37204e-07
-1.46662e-07
-1.46623e-06
-2.39342e-07
-1.46253e-07
-1.46433e-06
-2.41678e-07
-1.45088e-07
-1.46757e-06
-2.44528e-07
-1.44349e-07
-1.4627e-06
-2.46784e-07
-1.40861e-07
-1.47091e-06
-2.5068e-07
-1.39078e-07
-1.46431e-06
-2.527e-07
-1.31404e-07
-1.47809e-06
-2.58113e-07
-1.27355e-07
-1.47327e-06
-2.605e-07
-1.1112e-07
-1.49278e-06
-2.68993e-07
-9.84255e-08
-1.49905e-06
-2.73444e-07
-6.48661e-08
-1.52435e-06
-2.85975e-07
-3.07217e-08
-1.55509e-06
-2.954e-07
4.26153e-08
-1.58813e-06
-3.09617e-07
1.27258e-07
-1.66339e-06
-3.33329e-07
2.48161e-07
-1.71178e-06
-3.28515e-07
4.09199e-07
-1.86003e-06
-3.62793e-07
5.55793e-07
-1.93499e-06
-2.89362e-07
6.56061e-07
-2.14646e-06
-3.38294e-07
7.76508e-07
-2.566e-06
-1.54077e-07
2.34707e-06
-2.33647e-06
-1.03708e-06
3.86179e-06
4.05477e-07
-1.52396e-06
3.03169e-06
5.3214e-06
-1.30249e-06
9.56933e-07
-2.27408e-07
2.74429e-07
-4.53478e-06
-3.73128e-06
1.68449e-06
3.45674e-06
-3.92974e-06
-1.20478e-06
7.20604e-06
1.7071e-05
-7.48589e-06
8.2785e-06
8.01781e-06
6.06763e-07
-2.57011e-05
-3.14894e-05
2.25045e-06
-4.07576e-05
-3.60545e-05
9.01405e-06
-1.04103e-05
-1.12381e-05
3.33939e-06
-1.02964e-05
-1.2804e-05
1.47524e-06
-6.17278e-06
-1.54153e-06
-2.96964e-06
2.74214e-08
-1.4136e-06
-3.35972e-06
-1.6137e-05
8.76671e-07
-1.50761e-06
-4.70008e-05
2.04516e-06
7.17366e-08
-2.67563e-05
2.64641e-06
1.19962e-06
4.98811e-06
2.29548e-06
2.14126e-06
3.25623e-06
2.47371e-06
2.8917e-06
1.34511e-07
2.12712e-06
3.70551e-06
-4.51524e-06
1.34333e-06
4.7499e-06
-8.90332e-06
-4.41381e-07
4.84507e-06
-1.17381e-05
-1.8507e-06
3.63282e-06
-1.2944e-05
-2.86102e-06
2.4822e-06
-1.27016e-05
-3.43052e-06
1.69866e-06
-1.15172e-05
-3.73742e-06
1.05507e-06
-9.87988e-06
-3.67141e-06
6.62787e-07
-8.0534e-06
-2.95519e-06
4.22085e-07
-6.12859e-06
-2.218e-06
3.38269e-07
-4.44449e-06
-9.23452e-07
4.54833e-07
-3.29628e-06
5.97585e-07
8.54745e-07
-3.00442e-06
2.16231e-06
1.46075e-06
-3.72957e-06
3.54619e-06
2.36288e-06
-4.48441e-06
4.00206e-06
2.9453e-06
-4.71734e-06
2.93825e-06
2.73476e-06
-5.06993e-06
1.54177e-06
2.10175e-06
-5.2526e-06
9.52519e-07
1.14276e-06
-4.56001e-06
1.12667e-06
-3.48317e-07
-3.04619e-06
1.46806e-06
-1.7042e-06
-1.35587e-06
1.36088e-06
-2.31406e-06
-1.62401e-07
7.32989e-07
-1.98017e-06
4.29237e-07
1.36094e-07
-1.24432e-06
4.90757e-07
-8.88503e-08
-7.51991e-07
8.31827e-08
-6.87269e-08
-4.61789e-07
1.26003e-07
-1.78771e-07
-2.89232e-06
-2.23229e-06
-4.27826e-07
-1.69564e-06
-3.85226e-06
-1.16136e-06
-1.68373e-06
-1.30492e-06
-3.95488e-07
-1.2726e-06
-2.20927e-06
-3.60294e-07
-1.06704e-06
-1.29894e-06
-2.86843e-07
-8.80704e-07
-1.47482e-06
-1.84317e-07
-7.86596e-07
-1.1238e-06
-2.25939e-07
-7.27136e-07
-1.15394e-06
-2.20375e-07
-6.86763e-07
-1.03839e-06
-2.84123e-07
-6.31257e-07
-1.0909e-06
-3.33494e-07
-5.65906e-07
-1.05484e-06
-3.74537e-07
-4.97144e-07
-1.09935e-06
-4.02051e-07
-4.29444e-07
-1.06729e-06
-4.1729e-07
-3.73286e-07
-1.09246e-06
-4.25864e-07
-3.25418e-07
-1.06274e-06
-4.27876e-07
-2.8778e-07
-1.07927e-06
-4.29506e-07
-2.59626e-07
-1.05637e-06
-4.27682e-07
-2.37408e-07
-1.06538e-06
-4.28376e-07
-2.21861e-07
-1.05089e-06
-4.27478e-07
-2.09639e-07
-1.05395e-06
-4.28614e-07
-2.01558e-07
-1.04585e-06
-4.2861e-07
-1.95261e-07
-1.04597e-06
-4.30051e-07
-1.913e-07
-1.04177e-06
-4.31009e-07
-1.88455e-07
-1.03989e-06
-4.32684e-07
-1.86681e-07
-1.03687e-06
-4.34549e-07
-1.85579e-07
-1.03414e-06
-4.36705e-07
-1.85036e-07
-1.03136e-06
-4.38681e-07
-1.84866e-07
-1.02863e-06
-4.40602e-07
-1.85009e-07
-1.02598e-06
-4.42356e-07
-1.85419e-07
-1.0234e-06
-4.4399e-07
-1.85972e-07
-1.02085e-06
-4.45739e-07
-1.86537e-07
-1.01821e-06
-4.47539e-07
-1.87269e-07
-1.01615e-06
-4.49341e-07
-1.87103e-07
-1.01317e-06
-4.5132e-07
-1.87055e-07
-1.01436e-06
-4.53245e-07
-1.86882e-07
-1.00827e-06
-4.54596e-07
-1.85448e-07
-1.01494e-06
-4.57387e-07
-1.84521e-07
-1.00714e-06
-4.58095e-07
-1.79901e-07
-1.02145e-06
-4.61255e-07
-1.7793e-07
-1.01475e-06
-4.6048e-07
-1.66717e-07
-1.03903e-06
-4.64941e-07
-1.60142e-07
-1.04169e-06
-4.63921e-07
-1.34706e-07
-1.07924e-06
-4.70531e-07
-1.16821e-07
-1.10432e-06
-4.68634e-07
-6.30313e-08
-1.1668e-06
-4.75101e-07
-5.05203e-08
-1.21498e-06
-4.60908e-07
4.21204e-08
-1.35112e-06
-4.53285e-07
-3.2774e-08
-1.39094e-06
-3.94179e-07
5.12467e-08
-1.6831e-06
-3.35887e-07
-2.14799e-07
-1.64318e-06
-2.37214e-07
-4.04813e-07
-2.33429e-06
-4.16699e-08
-2.92947e-07
-2.09236e-06
-3.55952e-07
1.57886e-06
-2.93629e-07
-1.17269e-06
3.80532e-06
5.1086e-06
-2.01367e-06
3.48518e-06
1.241e-06
-1.14834e-06
1.50838e-06
3.85069e-07
-2.13959e-06
7.40981e-06
-2.87975e-06
-6.95182e-06
1.3129e-05
2.02962e-05
-8.94437e-06
1.41508e-05
-7.18024e-06
1.24742e-05
-4.14487e-05
-1.99778e-05
2.89898e-06
-0.000117998
-3.09732e-05
7.97491e-06
-0.000120365
-9.63557e-06
4.34485e-06
-0.000122237
-1.01188e-05
2.79766e-06
-0.000122403
-3.06705e-06
1.309e-06
-0.000122159
-1.31712e-06
1.47801e-06
-0.000123873
4.44781e-07
2.67728e-06
-0.000126301
8.17034e-07
3.18387e-06
-0.000128657
1.40839e-06
3.40807e-06
-0.000130792
1.39072e-06
3.47735e-06
-0.000132966
1.67471e-06
3.27343e-06
-0.000134558
9.63497e-07
2.879e-06
-0.000135452
-4.65182e-08
2.29572e-06
-0.000135539
-1.43892e-06
1.46018e-06
-0.00013452
-2.74721e-06
9.05176e-07
-0.000132487
-3.62769e-06
3.89509e-07
-0.000127816
-4.14725e-06
1.08076e-07
-0.000110655
-4.41647e-06
6.32176e-09
-6.02364e-05
-4.54848e-06
2.95852e-08
-2.16207e-05
-4.73568e-06
1.64474e-08
-1.95457e-05
-4.36503e-06
2.81785e-07
-1.7363e-05
-3.56891e-06
4.26256e-07
-1.52383e-05
-2.59828e-06
9.50356e-07
-1.31168e-05
-1.75137e-06
1.4784e-06
-1.1168e-05
-7.03601e-07
1.92303e-06
-9.27148e-06
-2.74665e-07
2.01047e-06
-8.00152e-06
8.9391e-08
1.61432e-06
-7.23001e-06
-7.26726e-08
8.66678e-07
-6.39261e-06
3.05975e-07
-1.48311e-07
-5.0806e-06
1.04353e-06
-1.18578e-06
-3.25127e-06
1.78295e-06
-2.07319e-06
-1.359e-06
2.01177e-06
-2.3669e-06
4.52058e-08
1.71998e-06
-2.07208e-06
6.80548e-07
1.23234e-06
-1.34157e-06
6.17188e-07
9.4881e-07
-7.515e-07
1.9937e-08
9.31939e-07
-3.72768e-07
1.31712e-06
-2.61342e-07
-2.90133e-06
-1.5761e-06
-7.54522e-08
-1.64937e-06
-3.76313e-06
-1.34111e-06
-1.8291e-06
-9.36011e-07
-1.89213e-07
-1.41646e-06
-2.32422e-06
-2.97737e-07
-1.17723e-06
-1.37737e-06
-1.60838e-07
-9.08098e-07
-1.68165e-06
-6.23058e-08
-7.60861e-07
-1.17357e-06
-9.74706e-08
-6.76199e-07
-1.15647e-06
-8.21227e-08
-6.48522e-07
-8.95426e-07
-1.70626e-07
-6.15995e-07
-8.77434e-07
-2.45977e-07
-5.7512e-07
-7.63025e-07
-3.32673e-07
-5.17034e-07
-7.66661e-07
-3.90753e-07
-4.54925e-07
-6.89784e-07
-4.39599e-07
-4.04719e-07
-6.74362e-07
-4.68293e-07
-3.55891e-07
-6.15753e-07
-4.95802e-07
-3.2163e-07
-6.03565e-07
-5.09949e-07
-2.91937e-07
-5.61051e-07
-5.25005e-07
-2.7153e-07
-5.52949e-07
-5.32824e-07
-2.56044e-07
-5.2503e-07
-5.41339e-07
-2.4585e-07
-5.17663e-07
-5.46466e-07
-2.37852e-07
-5.02157e-07
-5.51686e-07
-2.32442e-07
-4.96574e-07
-5.548e-07
-2.28727e-07
-4.88237e-07
-5.57242e-07
-2.26133e-07
-4.83682e-07
-5.58794e-07
-2.24733e-07
-4.79044e-07
-5.59217e-07
-2.24443e-07
-4.75532e-07
-5.58896e-07
-2.24863e-07
-4.72414e-07
-5.58515e-07
-2.25668e-07
-4.70053e-07
-5.57762e-07
-2.2668e-07
-4.68289e-07
-5.56669e-07
-2.27772e-07
-4.66996e-07
-5.55304e-07
-2.28938e-07
-4.66128e-07
-5.53549e-07
-2.30295e-07
-4.65452e-07
-5.51386e-07
-2.31803e-07
-4.65821e-07
-5.48814e-07
-2.32402e-07
-4.66502e-07
-5.46057e-07
-2.33621e-07
-4.70353e-07
-5.42782e-07
-2.34606e-07
-4.68569e-07
-5.38702e-07
-2.36098e-07
-4.79009e-07
-5.3443e-07
-2.37174e-07
-4.76984e-07
-5.29063e-07
-2.36759e-07
-4.98231e-07
-5.23619e-07
-2.37989e-07
-4.98661e-07
-5.14841e-07
-2.3523e-07
-5.34563e-07
-5.07216e-07
-2.37899e-07
-5.44863e-07
-4.94145e-07
-2.29331e-07
-6.0307e-07
-4.84716e-07
-2.33357e-07
-6.36568e-07
-4.63706e-07
-2.26413e-07
-7.28617e-07
-4.45113e-07
-2.56558e-07
-7.861e-07
-3.98713e-07
-3.079e-07
-9.52248e-07
-3.47506e-07
-4.39402e-07
-9.8761e-07
-2.71805e-07
-7.12719e-07
-1.27962e-06
-1.30139e-07
-1.02154e-06
-1.25245e-06
-8.18856e-08
-1.61546e-06
-1.77301e-06
3.26566e-08
-2.17128e-06
-1.32861e-06
-2.07919e-07
-3.69422e-07
-8.46798e-07
-1.24868e-06
2.33046e-06
5.39431e-06
-2.9856e-06
9.1974e-07
5.73261e-06
-3.08099e-06
-2.8305e-06
8.25791e-06
-4.12258e-06
4.63154e-06
-1.08057e-06
-9.26139e-06
2.5254e-05
7.4175e-06
-7.74362e-06
6.92597e-06
-1.27497e-05
2.00447e-05
-5.54715e-05
-1.02602e-05
2.5029e-06
-0.000127977
-2.26296e-05
9.65582e-06
-0.000137441
-5.30257e-06
4.9258e-06
-0.000145309
-5.27539e-06
2.55444e-06
-0.000149499
-1.34498e-06
5.93128e-07
-0.000151385
-2.16301e-07
4.64057e-07
-0.000152985
6.92583e-07
1.21769e-06
-0.000153682
9.34314e-07
1.45646e-06
-0.000155249
1.11522e-06
1.51104e-06
-0.000155066
1.08695e-06
1.36894e-06
-0.000155968
1.43998e-06
1.05932e-06
-0.000152525
9.59113e-07
5.03565e-07
-0.000152897
-1.32193e-07
1.56305e-07
-0.000156856
-9.54443e-07
-4.00774e-07
-0.000150338
-2.32772e-06
-6.24185e-07
-0.000145783
-3.39531e-06
-9.53887e-07
-0.000149612
-4.09271e-06
-1.02209e-06
-0.000151625
-4.83479e-06
-1.07812e-06
-0.000147518
-5.31497e-06
-9.44015e-07
-0.000146426
-5.785e-06
-8.42632e-07
-0.00014659
-5.74825e-06
-5.75393e-07
-0.000142085
-5.3149e-06
-2.12856e-07
-0.000132909
-4.54888e-06
-5.59281e-08
-0.000127278
-3.91518e-06
1.5368e-07
-0.000110786
-2.837e-06
1.71244e-07
-5.46247e-05
-2.06668e-06
-5.06032e-08
-1.2014e-05
-1.81e-06
-5.38996e-07
-9.40511e-06
-8.91633e-07
-9.0534e-07
-7.26804e-06
3.93966e-07
-1.54277e-06
-5.32892e-06
2.06998e-06
-2.09609e-06
-3.11397e-06
3.1479e-06
-2.56702e-06
-1.13542e-06
3.70998e-06
-2.59629e-06
2.65646e-07
3.70616e-06
-2.31591e-06
8.21688e-07
3.67464e-06
-1.95733e-06
6.38437e-07
3.63898e-06
-1.60219e-06
1.08735e-07
2.5982e-06
-1.13426e-06
3.12612e-06
-6.5031e-07
-2.97675e-06
-6.75789e-07
3.38216e-07
-1.77691e-06
-3.48927e-06
-1.47372e-06
-2.11926e-06
-5.85054e-07
-8.64456e-09
-1.65693e-06
-2.3651e-06
-4.21491e-07
-1.33872e-06
-1.58486e-06
-1.10737e-07
-9.56968e-07
-1.93013e-06
-1.33291e-07
-6.95581e-07
-1.34746e-06
-8.74797e-08
-5.3723e-07
-1.23059e-06
-8.42174e-08
-4.87722e-07
-8.41448e-07
-1.03463e-07
-4.79499e-07
-7.34554e-07
-1.51085e-07
-4.80614e-07
-5.40384e-07
-2.21505e-07
-4.44297e-07
-5.15655e-07
-2.87307e-07
-4.1391e-07
-3.85235e-07
-3.34918e-07
-3.79548e-07
-3.32869e-07
-3.75841e-07
-3.50534e-07
-2.3644e-07
-4.08312e-07
-3.25908e-07
-1.97705e-07
-4.30474e-07
-3.07681e-07
-1.31825e-07
-4.4744e-07
-2.93754e-07
-1.09561e-07
-4.57306e-07
-2.84156e-07
-6.96832e-08
-4.64934e-07
-2.77883e-07
-5.59884e-08
-4.67938e-07
-2.7331e-07
-3.56568e-08
-4.71063e-07
-2.70437e-07
-2.78308e-08
-4.71608e-07
-2.68614e-07
-1.84304e-08
-4.71619e-07
-2.67462e-07
-1.42513e-08
-4.70575e-07
-2.6722e-07
-1.05582e-08
-4.68718e-07
-2.67539e-07
-8.90331e-09
-4.66302e-07
-2.68492e-07
-8.24184e-09
-4.63209e-07
-2.69813e-07
-9.09136e-09
-4.59633e-07
-2.71392e-07
-1.10433e-08
-4.55657e-07
-2.73259e-07
-1.38593e-08
-4.51261e-07
-2.75534e-07
-1.74104e-08
-4.46433e-07
-2.77782e-07
-2.16844e-08
-4.41511e-07
-2.80546e-07
-2.68549e-08
-4.3619e-07
-2.82757e-07
-3.31283e-08
-4.31153e-07
-2.86227e-07
-4.18087e-08
-4.25062e-07
-2.89733e-07
-4.6149e-08
-4.18903e-07
-2.9505e-07
-6.1952e-08
-4.11727e-07
-3.01454e-07
-6.62995e-08
-4.04267e-07
-3.07637e-07
-9.43301e-08
-3.97703e-07
-3.16172e-07
-9.95875e-08
-3.90525e-07
-3.23682e-07
-1.43139e-07
-3.83897e-07
-3.39068e-07
-1.56335e-07
-3.73125e-07
-3.53832e-07
-2.25459e-07
-3.62829e-07
-3.87798e-07
-2.58567e-07
-3.44016e-07
-4.32384e-07
-3.63536e-07
-3.20474e-07
-5.13273e-07
-4.20099e-07
-2.85092e-07
-6.60787e-07
-5.80726e-07
-2.23986e-07
-8.47258e-07
-6.29629e-07
-1.71489e-07
-1.22922e-06
-8.42164e-07
-5.54778e-08
-1.56656e-06
-8.79356e-07
-3.57302e-08
-2.21411e-06
-1.16004e-06
3.45961e-08
-2.62562e-06
-7.93308e-07
-1.23773e-07
-2.04172e-06
-9.58126e-07
-4.72565e-07
2.76799e-06
2.28642e-06
-1.70183e-06
4.96202e-06
6.41169e-06
-2.87319e-06
9.81653e-06
1.04004e-05
-6.99711e-06
1.39251e-05
5.83249e-06
-1.10218e-05
3.36416e-05
-2.13218e-06
-1.01666e-05
5.32573e-07
-7.53684e-06
2.08259e-05
-7.80425e-05
-1.19034e-07
3.55256e-06
-0.000149418
-2.40376e-06
1.13043e-05
-0.000151702
1.72771e-06
5.33403e-06
-0.000159281
2.11479e-06
1.78128e-06
-0.000171439
2.38248e-06
5.581e-08
-0.000166212
2.2919e-06
-3.79471e-07
-0.000157397
2.18573e-06
-5.72721e-08
-0.000162697
2.16218e-06
2.27608e-08
-0.000164653
2.28521e-06
2.02829e-07
-0.000153973
2.17389e-06
7.53237e-08
-0.000152274
1.61897e-06
-3.84652e-07
-0.000157699
1.31652e-06
-6.86961e-07
-0.00016938
1.93691e-07
-8.11852e-07
-0.000165523
-9.38404e-07
-1.07645e-06
-0.000129405
-1.98355e-06
-1.12692e-06
-0.000138243
-3.08259e-06
-1.12535e-06
-0.000172828
-4.13944e-06
-1.18305e-06
-0.00017243
-5.47768e-06
-1.23625e-06
-0.00017001
-6.36655e-06
-1.16787e-06
-0.000166504
-7.05189e-06
-1.00353e-06
-0.000158625
-7.21607e-06
-9.27556e-07
-0.000149611
-7.17805e-06
-9.26789e-07
-0.000153803
-7.02621e-06
-9.05186e-07
-0.00015995
-6.46209e-06
-9.22201e-07
-0.000154962
-5.61801e-06
-9.95196e-07
-0.000148851
-4.92937e-06
-1.07918e-06
-0.000145265
-3.88666e-06
-1.28722e-06
-0.000145398
-2.73496e-06
-1.42832e-06
-0.000141318
-1.56267e-06
-1.51434e-06
-0.000136031
1.10024e-07
-1.43434e-06
-0.0001335
1.32194e-06
-1.20755e-06
-0.000131239
2.16035e-06
-9.32009e-07
-0.000126316
3.6678e-06
-6.72483e-07
-0.000108207
3.81814e-06
-3.82153e-07
-4.75422e-05
3.92188e-06
-6.71751e-08
-4.25937e-07
2.66543e-06
-2.19279e-08
2.48245e-06
7.02465e-07
-2.95745e-06
6.90428e-07
9.09163e-07
-2.05746e-06
-2.63368e-06
-1.7556e-06
-2.53218e-06
-2.24816e-07
1.14435e-07
-2.03867e-06
-2.04712e-06
-8.11524e-07
-1.60561e-06
-1.75997e-06
-2.57978e-07
-1.09318e-06
-1.94557e-06
-4.96987e-07
-7.04525e-07
-1.46339e-06
-2.72719e-07
-4.26635e-07
-1.22029e-06
-2.88166e-07
-2.88876e-07
-7.60843e-07
-2.18344e-07
-2.92769e-07
-4.8711e-07
-2.43527e-07
-3.17852e-07
-2.24576e-07
-2.90706e-07
-3.07487e-07
-1.62351e-07
-3.63648e-07
-2.94394e-07
9.04438e-09
-4.07356e-07
-2.86516e-07
1.0321e-07
-4.43939e-07
-2.89488e-07
2.33584e-07
-4.67038e-07
-2.9058e-07
2.95191e-07
-4.91789e-07
-2.96017e-07
3.78819e-07
-5.05195e-07
-3.00929e-07
4.14611e-07
-5.19246e-07
-3.08607e-07
4.66284e-07
-5.28278e-07
-3.15504e-07
4.8834e-07
-5.37419e-07
-3.23101e-07
5.16947e-07
-5.44996e-07
-3.30742e-07
5.31876e-07
-5.52054e-07
-3.38077e-07
5.47266e-07
-5.58352e-07
-3.44958e-07
5.56977e-07
-5.64335e-07
-3.51539e-07
5.65724e-07
-5.69692e-07
-3.57709e-07
5.72175e-07
-5.74898e-07
-3.63538e-07
5.77364e-07
-5.79767e-07
-3.69237e-07
5.81216e-07
-5.84598e-07
-3.75009e-07
5.84105e-07
-5.89367e-07
-3.80843e-07
5.86067e-07
-5.94081e-07
-3.8687e-07
5.87287e-07
-5.9866e-07
-3.92899e-07
5.87656e-07
-6.033e-07
-3.99677e-07
5.87321e-07
-6.07387e-07
-4.05793e-07
5.85267e-07
-6.12265e-07
-4.14537e-07
5.82646e-07
-6.15699e-07
-4.23267e-07
5.82324e-07
-6.19728e-07
-4.37489e-07
5.74792e-07
-6.2251e-07
-4.47377e-07
5.78493e-07
-6.34888e-07
-4.60149e-07
5.63124e-07
-6.44668e-07
-4.74571e-07
5.64566e-07
-6.49713e-07
-4.9541e-07
5.32927e-07
-6.55211e-07
-5.23244e-07
5.27173e-07
-6.55653e-07
-5.62155e-07
4.70967e-07
-6.57496e-07
-6.21794e-07
4.50842e-07
-6.49749e-07
-7.08903e-07
3.61522e-07
-6.3793e-07
-8.44591e-07
3.27294e-07
-6.11685e-07
-1.05476e-06
1.90894e-07
-5.6143e-07
-1.3189e-06
1.52469e-07
-5.17939e-07
-1.71364e-06
-2.83937e-08
-4.19008e-07
-2.11326e-06
-4.43651e-08
-4.35352e-07
-2.9583e-06
-3.15124e-08
-2.83474e-07
-3.8583e-06
5.63402e-07
-4.5669e-07
-5.16499e-06
5.71605e-07
-2.23037e-07
-1.4918e-06
9.073e-07
-2.29407e-06
3.45186e-06
5.90995e-06
-4.44199e-06
1.40073e-05
9.37705e-06
-9.53211e-06
1.7112e-05
1.40321e-05
-1.13045e-05
3.42033e-05
-7.9213e-06
-1.1302e-05
-2.38418e-06
-4.27702e-06
2.35532e-05
-9.65182e-05
1.30988e-05
4.30396e-06
-0.000178573
2.60254e-05
1.50708e-05
-0.00019397
1.18005e-05
6.28099e-06
-0.000201099
1.11114e-05
7.62154e-07
-0.000204164
7.52356e-06
-9.92951e-07
-0.00020629
6.21073e-06
-1.54058e-06
-0.000208734
4.73839e-06
-1.22213e-06
-0.000210412
4.39419e-06
-1.19231e-06
-0.000210712
3.96725e-06
-1.10567e-06
-0.000210711
3.44938e-06
-1.21562e-06
-0.000211044
2.61123e-06
-1.422e-06
-0.000211175
2.23189e-06
-1.71301e-06
-0.000211369
9.35423e-07
-1.85589e-06
-0.000211016
7.24771e-08
-1.93399e-06
-0.000208552
-9.5041e-07
-1.84816e-06
-0.000206958
-1.97376e-06
-1.88605e-06
-0.000187113
-3.1477e-06
-1.93868e-06
-0.000156604
-4.30451e-06
-1.86021e-06
-0.000172977
-5.2135e-06
-1.75918e-06
-0.000204687
-5.66983e-06
-1.70911e-06
-0.00020903
-5.88064e-06
-1.72954e-06
-0.00020771
-5.90445e-06
-1.93699e-06
-0.000206667
-5.92949e-06
-2.22672e-06
-0.00020548
-5.47988e-06
-2.50481e-06
-0.000204475
-5.24018e-06
-2.72032e-06
-0.000203261
-5.19735e-06
-2.78435e-06
-0.000199745
-5.26033e-06
-2.37231e-06
-0.000190047
-5.01964e-06
-1.86698e-06
-0.00016426
-4.75286e-06
-1.64069e-06
-0.000156857
-4.57194e-06
-1.37597e-06
-0.000148706
-4.37105e-06
-6.79994e-07
-7.33777e-05
-4.07677e-06
1.33132e-07
-1.17799e-05
-5.11924e-06
1.67368e-06
-6.7361e-06
-4.61974e-06
2.97593e-06
-4.39733e-06
-4.53954e-06
4.55467e-06
-7.66761e-05
-4.56758e-06
6.5836e-06
-5.14577e-06
9.58553e-06
-3.75501e-06
2.13211e-06
2.45471e-06
-2.54768e-06
-2.26846e-06
-1.57258e-06
-2.93267e-06
1.92184e-07
-3.20437e-08
-2.27579e-06
-1.46846e-06
-1.23557e-06
-1.71555e-06
-1.64227e-06
-6.77951e-07
-1.18581e-06
-1.704e-06
-7.71307e-07
-7.05313e-07
-1.43565e-06
-5.08217e-07