/*--------------------------------*- C++ -*----------------------------------*\
| =========                 |                                                 |
| \\      /  F ield         | OpenFOAM: The Open Source CFD Toolbox           |
|  \\    /   O peration     | Version:  2.3.0                                 |
|   \\  /    A nd           | Web:      www.OpenFOAM.org                      |
|    \\/     M anipulation  |                                                 |
\*---------------------------------------------------------------------------*/
FoamFile
{
    version     2.0;
    format      ascii;
    class       volVectorField;
    location    "8";
    object      U;
}
// * * * * * * * * * * * * * * * * * * * * * * * * * * * * * * * * * * * * * //

dimensions      [0 1 -1 0 0 0 0];

internalField   nonuniform List<vector> 
6144
(
(0.00884663 0.0216001 -0.000518706)
(0.00822874 0.00456318 -0.000690775)
(0.00499307 0.00322552 -0.0019346)
(0.00510301 0.00148404 -0.00213431)
(0.00433597 0.000979971 -0.00224029)
(0.0044427 0.00136758 -0.0022884)
(0.00427245 0.00122287 -0.00232423)
(0.00437626 0.00148283 -0.00234191)
(0.00435012 0.00140975 -0.0024354)
(0.00447843 0.00142022 -0.00245976)
(0.00446494 0.00123935 -0.00258495)
(0.00457818 0.00115453 -0.00262401)
(0.00455814 0.000920867 -0.00273792)
(0.00463147 0.000834526 -0.00277777)
(0.00461057 0.000631608 -0.00286308)
(0.00465196 0.000574757 -0.00289615)
(0.00463822 0.000431651 -0.00295429)
(0.00465803 0.000400515 -0.00298014)
(0.00465192 0.00031841 -0.00301716)
(0.00466053 0.000298884 -0.00303717)
(0.00465887 0.000261837 -0.00306002)
(0.00466199 0.000249727 -0.00307511)
(0.00466229 0.000236712 -0.00308941)
(0.00466339 0.000231631 -0.00310057)
(0.00466391 0.000228927 -0.00311013)
(0.0046644 0.00022903 -0.00311801)
(0.00466468 0.000230602 -0.00312466)
(0.00466482 0.000233281 -0.00313025)
(0.00466482 0.000236786 -0.0031349)
(0.00466467 0.000239387 -0.00313871)
(0.00466435 0.000248958 -0.00314226)
(0.00466212 0.000236705 -0.00314402)
(0.00466637 0.000271269 -0.00314747)
(0.00466139 0.000213015 -0.00314653)
(0.00467011 0.00030346 -0.00315076)
(0.004665 0.000165975 -0.00314719)
(0.0046763 0.000330925 -0.00315158)
(0.00467813 8.54646e-05 -0.00314767)
(0.00468543 0.000331155 -0.00315007)
(0.00470711 -4.78747e-05 -0.00314457)
(0.00470611 0.000255701 -0.0031458)
(0.00476668 -0.000255777 -0.00313941)
(0.00473052 2.23505e-05 -0.00313335)
(0.00486665 -0.000703968 -0.00311208)
(0.00480046 -0.00036931 -0.003104)
(0.00498059 -0.00176573 -0.00301646)
(0.00491613 -0.000883413 -0.00300566)
(0.00502548 -0.00416004 -0.00268314)
(0.00500523 -0.00152221 -0.00277441)
(0.00424856 -0.00902152 -0.00194703)
(0.00496635 -0.00148609 -0.0026431)
(0.000550634 -0.0187112 -0.000714282)
(0.00530426 0.0117035 -0.0030805)
(0.00624628 -0.0272701 -0.00631497)
(0.00325817 0.0347641 -0.0103603)
(0.00839676 -0.034168 -0.0170155)
(0.0183566 0.0637947 -0.0161399)
(-0.000103104 -0.0426668 -0.0302996)
(-0.0367116 0.136418 -0.0799461)
(0.0410907 0.0200146 -0.125746)
(0.117393 -0.228266 -0.0234726)
(0.0708906 -0.0651036 -0.00821896)
(0.0220215 -0.143842 0.0019076)
(0.0261564 -0.13977 0.00485745)
(0.0219023 -0.141886 0.00573753)
(0.0135979 -0.14958 0.00742122)
(0.00752036 -0.154745 0.00828207)
(0.00380905 -0.156622 0.00795571)
(0.00124722 -0.156682 0.00705877)
(-0.000529073 -0.155093 0.00568843)
(-0.00148713 -0.152125 0.00449374)
(-0.00163438 -0.148743 0.00356301)
(-0.00100345 -0.145459 0.0025478)
(-0.000196168 -0.143394 0.00202056)
(0.000342253 -0.142028 0.00111831)
(0.000670166 -0.140995 0.000800874)
(0.00032809 -0.140238 0.000466482)
(8.50812e-05 -0.138783 -0.000167722)
(-0.000620706 -0.13656 0.000506683)
(-0.00180323 -0.133351 -0.000964922)
(-0.00248896 -0.126737 -2.41373e-05)
(-0.00425842 -0.120307 -0.00110084)
(-0.00560354 -0.107419 -0.00353912)
(-0.0057392 -0.0924742 -0.00167029)
(-0.00971909 -0.0757571 -0.0119926)
(-0.00845835 -0.0391996 -0.013629)
(-0.00426277 -0.0114766 -0.00144134)
(-0.00169534 0.00757208 0.00150043)
(0.00149996 0.0144 -0.00181478)
(0.00482511 0.012401 -0.0026344)
(0.00661134 0.00572068 -0.00216486)
(0.00711572 0.000121095 -0.00370105)
(0.00682838 -0.00239808 -0.00450649)
(0.00664532 -0.00308153 -0.00469524)
(0.00661006 -0.00227945 -0.00463421)
(0.00660268 -0.000941709 -0.0046904)
(0.0174988 0.0218257 0.00426435)
(0.0178611 0.00768853 0.0037801)
(0.0101068 0.00482137 0.00108126)
(0.010534 0.00371484 0.000740944)
(0.00832699 0.00263516 0.000336034)
(0.00871684 0.00333766 0.000339595)
(0.00833534 0.00295188 0.000281492)
(0.00865795 0.00323146 0.000361382)
(0.00866408 0.00295878 0.000255656)
(0.00900754 0.0028806 0.000322214)
(0.0090073 0.00250337 0.000130515)
(0.00929484 0.00230376 0.00014061)
(0.00924446 0.00192241 -6.55214e-05)
(0.00943191 0.00174031 -8.18787e-05)
(0.00936634 0.00142826 -0.000247519)
(0.00947371 0.00130383 -0.000268612)
(0.00942192 0.00108421 -0.000381288)
(0.00947517 0.00100907 -0.000402037)
(0.0094462 0.000875076 -0.000467207)
(0.00946877 0.000827395 -0.0004851)
(0.00945748 0.000757072 -0.000518213)
(0.00946529 0.000725401 -0.000530913)
(0.00946318 0.000691596 -0.000545192)
(0.00946517 0.000672037 -0.000552331)
(0.00946531 0.000656097 -0.000557197)
(0.00946599 0.000645429 -0.000558802)
(0.00946623 0.000637428 -0.000558295)
(0.0094663 0.000631658 -0.00055595)
(0.00946637 0.000627409 -0.000552)
(0.00946632 0.000621553 -0.000546513)
(0.00946678 0.000621534 -0.000539937)
(0.00946429 0.000605112 -0.000531127)
(0.0094707 0.000630411 -0.000521878)
(0.009462 0.000560186 -0.000511675)
(0.00948017 0.000653255 -0.00049856)
(0.00946802 0.000477051 -0.000486356)
(0.00949847 0.000676028 -0.000466938)
(0.00949207 0.000341994 -0.000449954)
(0.00953241 0.000677341 -0.000424996)
(0.00955151 0.000133124 -0.00039357)
(0.00959335 0.000611477 -0.000365713)
(0.00968357 -0.000192491 -0.000299758)
(0.00966704 0.000375628 -0.000278298)
(0.00992982 -0.000741581 -0.000138765)
(0.00981937 -9.40233e-05 -0.00014808)
(0.0102167 -0.0019374 9.79411e-05)
(0.0101277 -0.000816683 5.32635e-05)
(0.0104621 -0.00454984 0.000454657)
(0.0104267 -0.00229849 0.000179356)
(0.0100323 -0.00981661 0.000729203)
(0.00957056 -0.00702854 -0.000612969)
(-0.000501222 -0.0240393 0.00141056)
(-0.000654016 -0.0100725 8.89391e-05)
(-0.00188025 -0.0323219 -0.00190975)
(0.014408 0.0325866 -0.00054595)
(0.0397485 -0.0539105 -0.00653722)
(-0.00823926 0.0367577 -0.00151307)
(-0.027971 -0.00840964 -0.00901546)
(0.0227189 0.190564 -0.00157868)
(0.165505 -0.0152537 -0.0680587)
(0.169955 -0.186732 -0.0209344)
(0.0412272 0.115843 0.00557188)
(-0.0280694 -0.127928 0.0114851)
(-0.0119158 -0.0686627 0.0113224)
(-0.0174194 -0.0925193 0.0122918)
(-0.0211125 -0.111423 0.0146951)
(-0.0211506 -0.118203 0.0143639)
(-0.0203735 -0.123969 0.0130203)
(-0.0194443 -0.127993 0.0111067)
(-0.0182338 -0.129154 0.00883003)
(-0.0163165 -0.127762 0.007056)
(-0.013943 -0.125203 0.00536534)
(-0.0111257 -0.122551 0.00372423)
(-0.00815467 -0.121649 0.0023918)
(-0.00568596 -0.12119 0.000986139)
(-0.00396975 -0.121429 0.000338374)
(-0.00341724 -0.120987 -0.000485062)
(-0.00374211 -0.120085 -0.000814223)
(-0.00493996 -0.118679 -0.000480819)
(-0.00742714 -0.116445 -0.00171728)
(-0.00970546 -0.111235 -0.000336317)
(-0.0128174 -0.106079 -0.00198271)
(-0.0165008 -0.0948294 -0.00391401)
(-0.017383 -0.0825077 -0.00217436)
(-0.0180715 -0.0677297 -0.0122649)
(-0.019983 -0.0362602 -0.0130372)
(-0.0165039 -0.0128579 -0.00180615)
(-0.00968891 0.00295364 0.00225667)
(-0.00517696 0.0103392 0.00326314)
(4.32378e-05 0.0095842 0.00621619)
(0.00573401 0.00464303 0.00641004)
(0.00904972 -0.000858856 0.00398138)
(0.00916413 -0.003956 0.00142914)
(0.00826201 -0.00461513 -0.000421692)
(0.00754539 -0.00325582 -0.0016645)
(0.00739568 -0.00136789 -0.00250382)
(0.0198908 0.0208853 0.0059623)
(0.0220367 0.0108508 0.00646618)
(0.0115514 0.00572968 0.00380522)
(0.0123999 0.00537264 0.00331969)
(0.00902389 0.00281039 0.00301147)
(0.0094846 0.00383223 0.0029358)
(0.00885244 0.0030743 0.00300571)
(0.00926933 0.00349209 0.00310299)
(0.00927533 0.00312216 0.0031277)
(0.00972989 0.00309535 0.00324424)
(0.00976211 0.00261525 0.00315606)
(0.0101334 0.00244186 0.00318314)
(0.0100937 0.00198058 0.0030257)
(0.0103381 0.00181707 0.00300921)
(0.010269 0.00145528 0.00286039)
(0.0104092 0.00134762 0.00284029)
(0.0103475 0.0011029 0.00273488)
(0.0104171 0.00103908 0.00272245)
(0.0103787 0.000892757 0.00266002)
(0.0104052 0.000853572 0.00265607)
(0.0103852 0.00077826 0.00262922)
(0.0103897 0.000751623 0.00263316)
(0.0103789 0.000716822 0.00263134)
(0.0103731 0.000699206 0.00264154)
(0.0103635 0.000683966 0.00265368)
(0.0103541 0.000674357 0.00267065)
(0.0103433 0.000666963 0.00268991)
(0.0103317 0.000661951 0.0027114)
(0.0103196 0.000658408 0.00273485)
(0.0103071 0.000654903 0.00276003)
(0.0102949 0.000655122 0.00278616)
(0.0102812 0.000641377 0.00281393)
(0.0102738 0.000665467 0.00284259)
(0.0102521 0.000602854 0.00287163)
(0.0102601 0.000691217 0.00290556)
(0.0102288 0.000528624 0.0029373)
(0.0102561 0.000723102 0.00298073)
(0.0102243 0.000408399 0.00301566)
(0.0102684 0.000743283 0.00307243)
(0.0102627 0.000219783 0.00311931)
(0.0103136 0.000726728 0.00319645)
(0.0103811 -9.91397e-05 0.00327343)
(0.0104221 0.000602996 0.00338524)
(0.0106422 -0.000640427 0.00350686)
(0.0106118 0.000240724 0.00362879)
(0.0110686 -0.00176215 0.00385517)
(0.011043 -0.000387129 0.00390765)
(0.0117069 -0.00414109 0.00421576)
(0.0117597 -0.00138706 0.00399087)
(0.0133225 -0.00840974 0.00415269)
(0.0139615 -0.00358846 0.00295311)
(0.0080416 -0.0203985 0.00491383)
(-0.000793547 -0.0180334 0.0049069)
(-0.0106757 -0.0433501 0.00246282)
(0.0168795 0.0175079 2.65478e-05)
(0.0490968 -0.0578613 -0.00945262)
(-0.0481381 0.0822095 0.0131888)
(-0.0764299 -0.10118 0.000898286)
(-0.0598895 0.137313 -0.0379233)
(0.171648 -0.00967065 -0.0477188)
(0.186829 -0.136987 -0.0223697)
(0.0681928 0.145641 0.00513779)
(0.0757009 -0.107939 0.0153955)
(0.0192266 -0.0139518 0.015953)
(-0.00453335 -0.0620257 0.0159508)
(-0.00952747 -0.0764323 0.0158806)
(-0.0160498 -0.0855796 0.0140265)
(-0.0210749 -0.0924119 0.0104591)
(-0.0231385 -0.0957661 0.00662119)
(-0.0226488 -0.0955956 0.00309094)
(-0.020026 -0.0927562 4.92538e-05)
(-0.0137631 -0.0890503 -0.00284171)
(-0.00588041 -0.0840944 -0.00554113)
(-0.00104254 -0.0788817 -0.00817979)
(0.00125026 -0.0727398 -0.00961261)
(0.00216733 -0.0682636 -0.00973181)
(0.00240894 -0.0646444 -0.00895853)
(0.00162072 -0.0627802 -0.00690184)
(-9.01414e-05 -0.0636721 -0.00543464)
(-0.00358574 -0.0655714 -0.004124)
(-0.00810909 -0.0677741 -0.00218676)
(-0.0137247 -0.0690921 -0.00276474)
(-0.0176699 -0.0647473 -0.00311456)
(-0.0233903 -0.0578625 -0.00791064)
(-0.0316445 -0.0401276 -0.016045)
(-0.0313118 -0.0135026 -0.010872)
(-0.0195522 -0.00299401 -0.00255729)
(-0.0107288 0.00689875 0.00145368)
(-0.00685276 0.0108659 0.00444589)
(-0.00444432 0.00779197 0.00827749)
(0.000142075 0.00234455 0.0097422)
(0.00490195 -0.00269249 0.00783208)
(0.00707608 -0.00506586 0.00557401)
(0.00719612 -0.0051269 0.00375707)
(0.0068598 -0.00379324 0.00236987)
(0.00683794 -0.00173821 0.000972238)
(0.0195222 0.0194469 0.00660206)
(0.0237578 0.0144346 0.00780395)
(0.0115647 0.0074885 0.00489123)
(0.0134346 0.00886673 0.00398026)
(0.00894959 0.00442412 0.00403638)
(0.00943908 0.00555493 0.00358674)
(0.00839279 0.00393977 0.00372994)
(0.00883259 0.00447571 0.00373889)
(0.00872421 0.00380403 0.00393997)
(0.00926413 0.00383547 0.00411697)
(0.009233 0.00313509 0.00419724)
(0.00965475 0.00297131 0.00426401)
(0.00953604 0.00233557 0.00423224)
(0.00980555 0.00217738 0.00423338)
(0.00967002 0.0017078 0.00416887)
(0.00982047 0.00162393 0.00416432)
(0.00971096 0.00131043 0.00411773)
(0.0097812 0.00127044 0.00412355)
(0.00970702 0.00108564 0.00409944)
(0.00972766 0.00105888 0.00411481)
(0.00968454 0.000963934 0.00411017)
(0.00968031 0.000942641 0.00413099)
(0.00965436 0.000899334 0.0041431)
(0.00963799 0.000882986 0.00416596)
(0.00961671 0.000864754 0.00418857)
(0.00959666 0.000854363 0.00421483)
(0.00957484 0.000845748 0.00424184)
(0.00955214 0.000840136 0.00427013)
(0.00952885 0.000836198 0.00429973)
(0.0095053 0.000832977 0.00433048)
(0.00948221 0.000832549 0.00436195)
(0.00945843 0.000821091 0.00439421)
(0.00944141 0.000842269 0.00442667)
(0.00941179 0.000791349 0.00445989)
(0.0094137 0.000869823 0.00449722)
(0.00936953 0.000724037 0.00453326)
(0.00939815 0.000912305 0.004578)
(0.00934788 0.000616106 0.00461492)
(0.00940331 0.000956837 0.00467185)
(0.00937053 0.000449645 0.00471242)
(0.00944663 0.000993929 0.00480003)
(0.00948394 0.000164273 0.00485077)
(0.00957298 0.000984634 0.00499659)
(0.00974509 -0.000376823 0.00504618)
(0.00982137 0.000800323 0.00528456)
(0.0102635 -0.00140788 0.00535303)
(0.0103337 0.000351469 0.00555068)
(0.0111872 -0.00353524 0.00571176)
(0.0112137 -2.49664e-05 0.00550171)
(0.0127873 -0.00701023 0.00551485)
(0.0143156 0.00150228 0.00451317)
(0.0117285 -0.0118921 0.00742197)
(-0.00224674 -0.00858151 0.00935052)
(-0.0249197 -0.040117 0.00576906)
(0.00342381 0.020276 0.00844457)
(0.0282505 -0.0373874 0.000856228)
(0.0227767 0.114731 0.00217568)
(-0.0709821 -0.129678 0.0259734)
(-0.0696682 0.191364 -0.0906019)
(0.190244 -0.0895056 -0.0249626)
(0.203603 -0.112645 -0.0234984)
(0.0634654 0.124579 -0.00422203)
(0.0632517 0.00130465 0.00513793)
(-0.0216159 0.0583585 0.0171056)
(-0.00270867 -0.00775852 0.018173)
(-0.0096546 -0.0145919 0.00969519)
(-0.0150938 -0.0315669 0.000871149)
(-0.0174412 -0.0373551 -0.00409827)
(-0.0180654 -0.0365836 -0.00842569)
(-0.018234 -0.0316437 -0.0126504)
(-0.0169908 -0.0199264 -0.0173192)
(-0.0134695 -0.00200057 -0.0198914)
(-0.00547843 0.0264277 -0.0199016)
(0.00238496 0.0438284 -0.0164846)
(0.00681083 0.0512937 -0.00974087)
(0.00951933 0.0528572 -0.00624354)
(0.0108975 0.0492443 -0.00326675)
(0.00999225 0.0421034 -0.00235276)
(0.00736921 0.0335531 -0.00217651)
(0.0028352 0.0247518 -0.0026042)
(-0.00413787 0.0149341 -0.00415089)
(-0.0127008 0.00756375 -0.00702872)
(-0.021887 0.00383694 -0.0107575)
(-0.0295899 0.0041844 -0.0151871)
(-0.0316351 0.00979703 -0.0158018)
(-0.0230977 0.0119305 -0.0100425)
(-0.0126064 0.0129775 -0.00462092)
(-0.00683779 0.015435 0.000607206)
(-0.00550872 0.0138998 0.00557166)
(-0.00532778 0.00841001 0.00945625)
(-0.00350646 0.000858472 0.0101695)
(0.00053113 -0.00470284 0.00834638)
(0.00312925 -0.00691772 0.00630645)
(0.00365209 -0.00689059 0.00462891)
(0.00349827 -0.00569465 0.00318955)
(0.00361819 -0.00300989 0.00161124)
(0.0161676 0.0178844 0.00689836)
(0.0245397 0.0159821 0.00881727)
(0.0097022 0.00770987 0.0048436)
(0.0138074 0.0116962 0.00355015)
(0.00842116 0.00542949 0.00387117)
(0.00913888 0.00708349 0.00281944)
(0.00735912 0.00434594 0.00327896)
(0.00764076 0.00506763 0.00318815)
(0.00716681 0.00403011 0.00365836)
(0.00759271 0.00425875 0.0040492)
(0.00744502 0.00342392 0.0043737)
(0.00777519 0.00337569 0.0045869)
(0.00760332 0.00260952 0.00468604)
(0.00780344 0.00251143 0.00474115)
(0.00761998 0.00195034 0.00474517)
(0.00773606 0.00188931 0.00476148)
(0.00758808 0.00152517 0.00474855)
(0.00763551 0.00150543 0.00476841)
(0.00753292 0.00128569 0.00477252)
(0.00753512 0.0012768 0.00480275)
(0.00746729 0.0011618 0.00481353)
(0.00744856 0.00114786 0.00484729)
(0.00740353 0.00109537 0.00486945)
(0.0073721 0.00108057 0.00490281)
(0.00733493 0.00105869 0.00493605)
(0.00730008 0.00104746 0.00497313)
(0.00726401 0.00103768 0.0050078)
(0.00722785 0.00103128 0.00504171)
(0.00719171 0.00102655 0.00507445)
(0.00715559 0.00102325 0.00510591)
(0.00711966 0.00102295 0.0051369)
(0.00708292 0.00101491 0.00516773)
(0.00705003 0.00103308 0.00519885)
(0.00701063 0.000991163 0.0052287)
(0.00699647 0.00105925 0.00526296)
(0.00693912 0.000932776 0.00529177)
(0.00695459 0.00110684 0.00533196)
(0.00688595 0.000841735 0.00535557)
(0.00693845 0.00116215 0.00539907)
(0.00687423 0.000703677 0.00541025)
(0.0069732 0.00122232 0.00546419)
(0.00696264 0.000473514 0.00545753)
(0.00711997 0.00127908 0.00554073)
(0.00724373 1.77359e-05 0.00549995)
(0.00750146 0.00134029 0.00565326)
(0.00780637 -0.000843305 0.00546626)
(0.00833653 0.00154514 0.00566774)
(0.00878389 -0.00219602 0.00509902)
(0.00986979 0.00275723 0.00504295)
(0.00991984 -0.00363429 0.00391939)
(0.0128603 0.00663124 0.00327803)
(0.012425 -0.00398684 0.00474263)
(-0.00105478 0.0086949 0.00872838)
(-0.0265323 -0.0303891 0.00567495)
(0.00245882 0.00435934 0.025641)
(0.013964 -0.0517468 0.0306697)
(0.016514 0.051233 0.0646276)
(-0.097932 -0.114025 0.0527223)
(-0.000730474 0.163986 -0.177727)
(0.124194 -0.112408 -0.00275417)
(0.167003 -0.0777264 -0.0202186)
(0.0583054 0.12967 -0.0117714)
(0.0723441 0.0731712 -0.00464207)
(0.0258397 0.0999056 -0.000946351)
(0.0145087 0.0828835 -0.00426192)
(-0.000597247 0.0877105 -0.00876574)
(-0.00411141 0.0933373 -0.0121716)
(-0.00974049 0.100604 -0.0138311)
(-0.01073 0.111675 -0.0138949)
(-0.0118171 0.119119 -0.0123302)
(-0.00947253 0.126813 -0.00966441)
(-0.0052431 0.129703 -0.0058606)
(0.00336322 0.133101 -0.00128868)
(0.0114505 0.129386 0.00188395)
(0.0165248 0.125119 0.00412783)
(0.0198653 0.118431 0.00507134)
(0.021254 0.110661 0.00505665)
(0.0210823 0.102309 0.00421632)
(0.0195042 0.0923542 0.00257457)
(0.0167785 0.0828424 0.000610541)
(0.011543 0.0715496 -0.00184968)
(0.00542957 0.0619009 -0.00457913)
(-0.000999445 0.0517305 -0.00670509)
(-0.00649617 0.0423866 -0.00809915)
(-0.00732702 0.0344748 -0.00685381)
(-0.00442219 0.027696 -0.00337888)
(-0.00115529 0.0238255 0.00078163)
(-0.000934292 0.0203117 0.00497782)
(-0.00359791 0.015491 0.00860929)
(-0.00653821 0.00853909 0.0106141)
(-0.00735401 0.000802772 0.0102894)
(-0.00598882 -0.00556394 0.00818391)
(-0.00337121 -0.0080572 0.00569518)
(-0.00223209 -0.00775114 0.0034815)
(-0.00261023 -0.00558188 0.00151827)
(-0.00483386 -0.00259745 0.000816091)
(0.0122969 0.0151503 0.00717927)
(0.0245086 0.0174235 0.0088824)
(0.007127 0.0063924 0.0032145)
(0.0142415 0.0140191 0.00159894)
(0.00822072 0.00534358 0.001781)
(0.00955138 0.00809194 0.000146654)
(0.00691567 0.0038357 0.00095793)
(0.00692898 0.00502213 0.000949158)
(0.00593655 0.00351543 0.00199238)
(0.00611078 0.00415942 0.00281845)
(0.00575057 0.00330673 0.00364176)
(0.00589076 0.00348585 0.00420797)
(0.00559354 0.00266147 0.00456233)
(0.00561542 0.00268544 0.00479056)
(0.00535902 0.00207018 0.0049208)
(0.0053688 0.00207185 0.00501114)
(0.00517578 0.00167317 0.00506409)
(0.00517808 0.00168343 0.00511599)
(0.00505782 0.00144509 0.00514667)
(0.00504835 0.00146167 0.00518884)
(0.00497999 0.0013368 0.00521168)
(0.00496622 0.00133448 0.0052436)
(0.00492946 0.00127757 0.00525817)
(0.0049092 0.00126587 0.0052779)
(0.00488335 0.00124205 0.00528764)
(0.00486021 0.00123287 0.00529679)
(0.00483787 0.00122633 0.00530528)
(0.00481681 0.00122354 0.00531309)
(0.00479673 0.00122186 0.00531965)
(0.0047778 0.00122089 0.00532525)
(0.00476001 0.0012216 0.00532886)
(0.00474325 0.00121655 0.00533041)
(0.00472894 0.00123321 0.00532924)
(0.00471068 0.00120054 0.0053217)
(0.00471334 0.00126039 0.00531629)
(0.00468087 0.00115414 0.00530204)
(0.0047147 0.0013157 0.00529513)
(0.00467543 0.00108927 0.00527257)
(0.00475493 0.00138922 0.00526344)
(0.00472294 0.000990496 0.00522735)
(0.00486282 0.00148087 0.00521552)
(0.00487126 0.000846688 0.00515658)
(0.00508992 0.00162051 0.00514828)
(0.00519404 0.00058078 0.00504302)
(0.0055588 0.00189726 0.00503497)
(0.00573173 0.000138888 0.00476867)
(0.00647887 0.00271016 0.00463965)
(0.00641701 -0.000123454 0.00390981)
(0.00788754 0.00508904 0.00309235)
(0.00743252 0.000818846 0.00201936)
(0.0106394 0.010656 0.00160817)
(0.00904647 0.00230527 0.00513371)
(0.00572585 0.0237813 0.0115947)
(-0.0236347 -0.0237837 0.022501)
(-0.0114049 0.0103011 0.0436033)
(-0.0138939 -0.0254653 0.038676)
(0.0316083 0.0673194 0.106979)
(-0.071071 -0.103459 0.0855019)
(0.0405539 0.033018 -0.172741)
(0.0645008 -0.0702389 0.00911029)
(0.127017 -0.0252341 -0.0189833)
(0.0399849 0.154686 -0.00890582)
(0.0389879 0.15159 -0.000970669)
(0.0117244 0.179158 0.0032434)
(0.00353734 0.183294 0.00206708)
(-0.000353507 0.189491 0.000476975)
(-0.00266296 0.194192 0.000351567)
(-0.00370535 0.196485 0.000610326)
(-0.00277161 0.197895 0.00231169)
(-0.00410237 0.197487 0.00353552)
(-0.00046281 0.196488 0.00635317)
(0.00458628 0.1932 0.00826133)
(0.00849161 0.189997 0.0106133)
(0.0130222 0.185347 0.0118295)
(0.0166747 0.179179 0.0126793)
(0.020576 0.172313 0.0129744)
(0.0224563 0.163092 0.0132195)
(0.0235641 0.153158 0.0124784)
(0.0242814 0.1415 0.0108604)
(0.0233652 0.128426 0.00931859)
(0.0204549 0.114195 0.00787998)
(0.0160642 0.09989 0.00568301)
(0.0129704 0.0864156 0.00465071)
(0.00866704 0.0711638 0.0035957)
(0.00611816 0.0580938 0.0043435)
(0.00411356 0.0456414 0.00585449)
(0.00277321 0.0360819 0.00782102)
(-1.11431e-05 0.0268259 0.00996997)
(-0.00286167 0.0185398 0.0119833)
(-0.00492918 0.0100078 0.012835)
(-0.00575653 0.00163069 0.012394)
(-0.00500813 -0.00435563 0.0110439)
(-0.00421545 -0.00736409 0.00902178)
(-0.00362919 -0.00726427 0.00673785)
(-0.00383503 -0.0057416 0.00268494)
(-0.00520261 -0.00278791 -0.00206823)
(0.00750201 0.0116521 0.00573828)
(0.0235509 0.0204642 0.00792404)
(0.00465702 0.00579174 0.000393075)
(0.0146183 0.0173166 -0.000134348)
(0.00882329 0.00552762 -0.00087723)
(0.0108775 0.00943662 -0.00169647)
(0.00735445 0.00322602 -0.000969791)
(0.00693126 0.00462733 -0.0010949)
(0.0048696 0.00225603 -0.000130989)
(0.00450486 0.00334689 0.00100598)
(0.0035824 0.00252073 0.00217072)
(0.00351283 0.00301534 0.00313144)
(0.00292463 0.0022645 0.00368192)
(0.00270799 0.00249253 0.0041172)
(0.00225802 0.00193157 0.00432366)
(0.00208491 0.00206171 0.00449547)
(0.00176685 0.00168716 0.0045741)
(0.00165345 0.00177863 0.00466053)
(0.00144243 0.00155174 0.00469427)
(0.00135489 0.00161179 0.00474364)
(0.00123327 0.0014921 0.00476353)
(0.00117275 0.00151414 0.00478981)
(0.00110236 0.00146218 0.00479231)
(0.00106066 0.00146005 0.00479959)
(0.00102368 0.00144058 0.00479674)
(0.00099628 0.00143402 0.00479201)
(0.000972128 0.00142783 0.00478067)
(0.000954565 0.00142545 0.00476564)
(0.000942292 0.00142432 0.00474805)
(0.000933909 0.00142458 0.00472809)
(0.000928707 0.00142672 0.00470533)
(0.000926386 0.00142645 0.00467955)
(0.000928527 0.0014439 0.00465095)
(0.000934079 0.00141911 0.0046213)
(0.000954892 0.00147956 0.0045901)
(0.00094946 0.00139351 0.00455094)
(0.00100479 0.00155315 0.00451493)
(0.00100127 0.0013654 0.00446185)
(0.00111041 0.00166984 0.00443018)
(0.00110724 0.00133081 0.00439729)
(0.00128443 0.00182354 0.00438807)
(0.00131458 0.00128822 0.00435063)
(0.00160827 0.00207461 0.00435565)
(0.00173729 0.00125713 0.00428685)
(0.00220659 0.00260413 0.00426451)
(0.00246248 0.0013235 0.0040419)
(0.00322779 0.00387175 0.00379878)
(0.00344969 0.00189663 0.00313609)
(0.00454069 0.00676916 0.00196788)
(0.00464007 0.0036417 0.00134382)
(0.00624553 0.0125831 4.02643e-05)
(0.00484551 0.00511273 0.0050429)
(0.00446723 0.0241086 0.00997373)
(-0.0220709 -0.0123002 0.0169014)
(-0.0304604 -0.0062584 0.0317718)
(-0.0469619 -0.0486051 0.0516452)
(-0.00554008 -0.0254395 0.0823187)
(0.00983849 -0.107739 0.0824887)
(0.0301437 -0.0881795 -0.160109)
(0.0276023 -0.076688 0.0135985)
(0.0555104 0.0393259 -0.0110565)
(0.00844988 0.208013 -0.00919662)
(0.0106518 0.230648 0.00500594)
(-0.000410631 0.248585 0.00824937)
(-0.000799579 0.256398 0.0112876)
(-0.00383661 0.260622 0.00913906)
(-0.00394657 0.262379 0.00981585)
(-0.00475798 0.262016 0.00975034)
(-0.00407269 0.258152 0.01015)
(-0.00317444 0.256901 0.012536)
(-0.00139475 0.252288 0.0130364)
(0.00200993 0.246722 0.0133828)
(0.0069451 0.240742 0.0157359)
(0.0115564 0.235563 0.0162051)
(0.0163694 0.228846 0.0167559)
(0.0209868 0.223433 0.0173696)
(0.0254415 0.216544 0.0184645)
(0.0288247 0.2079 0.0181516)
(0.0310834 0.198069 0.0173099)
(0.0319031 0.186922 0.0166297)
(0.0303172 0.174849 0.0157946)
(0.0286273 0.161538 0.0142515)
(0.0269023 0.14755 0.0135576)
(0.0229416 0.129598 0.0117526)
(0.0195745 0.113564 0.0115279)
(0.0145869 0.0951031 0.0110444)
(0.0106661 0.078733 0.0113194)
(0.00425097 0.061649 0.0113571)
(-0.00409003 0.0438917 0.0110234)
(-0.0116713 0.0298217 0.00981836)
(-0.0164587 0.0180409 0.00798322)
(-0.0184603 0.00917212 0.00569681)
(-0.0190612 0.00281213 0.00285259)
(-0.0197932 -0.00134571 -0.00113135)
(-0.0196388 -0.00386948 -0.00912205)
(-0.0242148 -0.00407432 -0.0165408)
(0.00163099 0.00523204 0.00204947)
(0.0196224 0.0250654 0.00739115)
(0.00284146 0.00575493 -0.00280547)
(0.0144288 0.0212897 9.38545e-05)
(0.0105794 0.00665902 -0.0021971)
(0.0124308 0.0110158 -0.00101453)
(0.00881699 0.00325903 -0.000949872)
(0.0077298 0.00449108 -0.00107451)
(0.00508762 0.000937354 -0.000159107)
(0.00412424 0.0022225 0.00107318)
(0.0027494 0.00135449 0.00220967)
(0.00256808 0.00214611 0.00327928)
(0.00164481 0.00141731 0.00380002)
(0.00131098 0.00183734 0.00430647)
(0.000709538 0.00140962 0.00452721)
(0.000491553 0.00174271 0.00476098)
(0.000105088 0.00147582 0.00485093)
(-4.77229e-06 0.00170499 0.00497409)
(-0.000224414 0.00155775 0.00502554)
(-0.000270896 0.00170924 0.00509947)
(-0.000361128 0.00164058 0.0051367)
(-0.00037221 0.00172705 0.00518722)
(-0.000393035 0.0017152 0.00521137)
(-0.000379115 0.00175316 0.00524405)
(-0.000361817 0.0017651 0.00526575)
(-0.00033187 0.00178526 0.00528862)
(-0.00029533 0.00179865 0.00530887)
(-0.000251153 0.00181152 0.00532871)
(-0.000202413 0.00182388 0.00534802)
(-0.000150025 0.00183656 0.0053669)
(-9.46455e-05 0.00184992 0.00538507)
(-3.62264e-05 0.00186072 0.00540305)
(2.51787e-05 0.0018843 0.00541865)
(9.30216e-05 0.00187574 0.00543616)
(0.000166698 0.00193999 0.00544946)
(0.000224507 0.00188368 0.00546218)
(0.000326302 0.00204488 0.00547345)
(0.000375425 0.00190636 0.00548286)
(0.000540127 0.00218336 0.00550846)
(0.000605708 0.00190993 0.00553204)
(0.00085033 0.00236688 0.00556901)
(0.000952032 0.00196034 0.00558435)
(0.00131459 0.00269234 0.00560974)
(0.00148876 0.00211672 0.00558015)
(0.00199658 0.00337303 0.00553487)
(0.00221228 0.00252142 0.00533194)
(0.00286502 0.00493825 0.00501384)
(0.00288782 0.00352902 0.00431497)
(0.00341579 0.00814285 0.00321295)
(0.0033825 0.00512748 0.0023415)
(0.00372925 0.0137994 0.000232348)
(0.00277817 0.00794721 0.00390688)
(0.00534049 0.0281624 0.00764559)
(0.00465174 0.00583218 0.0191982)
(-0.0203167 0.0104931 0.0361344)
(-0.0367532 -0.0477715 0.0553091)
(-0.0285874 -0.0488012 0.0726403)
(0.0322264 -0.0927215 0.0633413)
(-0.00583331 -0.109151 -0.14469)
(-0.0218552 -0.0812867 0.0158876)
(-0.0443176 0.0784111 -0.00540674)
(-0.0344621 0.229989 -0.00715632)
(-0.0264009 0.255484 0.0102403)
(-0.0168512 0.271525 0.0123377)
(-0.0127903 0.276475 0.0152541)
(-0.0101951 0.278684 0.0139378)
(-0.00793332 0.278556 0.0148539)
(-0.00701102 0.275903 0.0142705)
(-0.00580336 0.271779 0.014907)
(-0.00158913 0.267651 0.0153445)
(-0.000490892 0.262916 0.0162384)
(0.00280301 0.256421 0.0164751)
(0.00862677 0.249874 0.0175679)
(0.0128727 0.243009 0.0173184)
(0.0172676 0.236072 0.0179648)
(0.0216505 0.229253 0.0189526)
(0.0268856 0.22119 0.0201414)
(0.0304828 0.214029 0.0209212)
(0.0329163 0.210274 0.0221165)
(0.0340568 0.204989 0.0228544)
(0.0341644 0.198574 0.0241397)
(0.0344428 0.191392 0.025648)
(0.0331199 0.185207 0.0264685)
(0.0317906 0.175356 0.0272332)
(0.0305207 0.16489 0.0280608)
(0.0290628 0.150893 0.0273712)
(0.0259659 0.135518 0.0251247)
(0.0222925 0.120246 0.0236463)
(0.0189941 0.101774 0.0231495)
(0.0156343 0.0802102 0.0217315)
(0.0126161 0.0573241 0.0183844)
(0.00963357 0.0320135 0.0144558)
(0.00656941 0.0155284 0.00946804)
(0.00464394 0.00123919 0.00270082)
(0.000789211 -0.00872545 -0.016382)
(-0.00790001 -0.00277554 -0.0569828)
(-0.00907537 0.0102173 -0.0078863)
(0.0150692 0.0309767 0.00287962)
(-0.000237993 0.00741727 -0.00653139)
(0.0114008 0.0242421 0.000403092)
(0.0108671 0.00727402 -0.00309893)
(0.0116916 0.0120493 -0.00176911)
(0.00893739 0.00361761 -0.00286117)
(0.00702397 0.00435912 -0.00378963)
(0.00407652 -0.000485774 -0.003914)
(0.00186303 0.000646642 -0.00276508)
(0.000237768 0.000106346 -0.00144646)
(-0.000147987 0.00137545 -0.00010526)
(-0.00126618 0.000945374 0.000572125)
(-0.00175597 0.00165295 0.00115709)
(-0.00248511 0.00133637 0.00139147)
(-0.00282897 0.00175859 0.00166078)
(-0.00327419 0.00156444 0.00177426)
(-0.00345184 0.00184245 0.00191047)
(-0.00370663 0.00172523 0.00197642)
(-0.00379849 0.00190233 0.00206009)
(-0.00392332 0.00185211 0.00211332)
(-0.00397335 0.00195075 0.00217635)
(-0.00402333 0.00195087 0.00221771)
(-0.00404356 0.00199561 0.002266)
(-0.00406008 0.00201343 0.00230429)
(-0.00406331 0.00203842 0.00234338)
(-0.0040589 0.00205654 0.00237933)
(-0.00404763 0.00207595 0.00241369)
(-0.00403228 0.00209181 0.00244522)
(-0.00401204 0.00210375 0.00247652)
(-0.00398786 0.00211632 0.00250692)
(-0.00395877 0.00212662 0.00253685)
(-0.00392693 0.00214705 0.00256401)
(-0.00388441 0.00214019 0.00259419)
(-0.00384429 0.00219626 0.00261599)
(-0.00381046 0.00214301 0.00264357)
(-0.00374806 0.00226829 0.00266334)
(-0.00373224 0.00212684 0.00269359)
(-0.00365486 0.00238268 0.00271811)
(-0.00364886 0.00216429 0.00274458)
(-0.00350616 0.00260583 0.00276098)
(-0.00348004 0.00230613 0.00276554)
(-0.00324167 0.00301394 0.00275587)
(-0.0031877 0.00266302 0.00269477)
(-0.00284099 0.00386844 0.00260213)
(-0.00280892 0.00346295 0.00233253)
(-0.00234507 0.005709 0.00196915)
(-0.00234917 0.00486531 0.00130612)
(-0.001722 0.00880783 0.000535818)
(-0.00186929 0.00603603 4.41604e-05)
(-0.00342211 0.0138322 -0.00247124)
(-0.0058303 0.0119081 0.00105029)
(-0.00721101 0.0322747 0.00388399)
(-0.00382147 0.0229073 0.0162815)
(-0.0169223 0.0485064 0.0287414)
(-0.0208926 -0.0485393 0.0387537)
(-0.0532749 -0.0320502 0.0528599)
(0.0672883 -0.118563 0.0487966)
(-0.0442808 -0.0359996 -0.168036)
(-0.064852 -0.072349 0.00501679)
(-0.144166 0.0221586 -0.0258925)
(-0.0645347 0.175595 -0.0105472)
(-0.0526822 0.175906 0.00912608)
(-0.0296975 0.179753 0.0106245)
(-0.0225332 0.16835 0.0123529)
(-0.0147426 0.158041 0.00977218)
(-0.0127733 0.149509 0.0113803)
(-0.0101556 0.13732 0.00953055)
(-0.00952676 0.12878 0.0104347)
(-0.0066378 0.11514 0.00975305)