/*--------------------------------*- C++ -*----------------------------------*\
| =========                 |                                                 |
| \\      /  F ield         | OpenFOAM: The Open Source CFD Toolbox           |
|  \\    /   O peration     | Version:  2.3.0                                 |
|   \\  /    A nd           | Web:      www.OpenFOAM.org                      |
|    \\/     M anipulation  |                                                 |
\*---------------------------------------------------------------------------*/
FoamFile
{
    version     2.0;
    format      ascii;
    class       volScalarField;
    location    "8";
    object      w2;
}
// * * * * * * * * * * * * * * * * * * * * * * * * * * * * * * * * * * * * * //

dimensions      [0 0 0 0 0 0 0];

internalField   nonuniform List<scalar> 
6144
(
0.452838
0.452838
0.452838
0.452838
0.452838
0.452838
0.452838
0.452838
0.452838
0.452838
0.452838
0.452838
0.452838
0.452838
0.452838
0.452838
0.452838
0.452838
0.452838
0.452838
0.452838
0.452838
0.452838
0.452838
0.452838
0.452838
0.452838
0.452838
0.452838
0.452838
0.452838
0.452838
0.452838
0.452838
0.452838
0.452838
0.452838
0.452838
0.452838
0.452838
0.452838
0.452838
0.452838
0.452838
0.452838
0.452838
0.452838
0.452838
0.452838
0.452838
0.452838
0.452838
0.452838
0.452838
0.452838
0.452838
0.452842
0.45311
0.482082
0.474877
0.175238
0.00121871
6.03086e-06
0.000853331
0.00474616
0.00758438
0.0470856
0.00825041
0.00870448
0.0109206
0.0145224
0.0173565
0.0248478
0.0220551
0.0248657
0.0334024
0.189417
0.0762708
0.0452145
0.0162679
0.0529643
0.0410351
0.0193609
0.0197186
0.00291329
0.00211306
0.0155637
0.00419009
0.00278002
0.00192087
0.00111787
0.00064988
0.000501481
0.000845924
0.0206773
0.000128939
0.452838
0.452838
0.452838
0.452838
0.452838
0.452838
0.452838
0.452838
0.452838
0.452838
0.452838
0.452838
0.452838
0.452838
0.452838
0.452838
0.452838
0.452838
0.452838
0.452838
0.452838
0.452838
0.452838
0.452838
0.452838
0.452838
0.452838
0.452838
0.452838
0.452838
0.452838
0.452838
0.452838
0.452838
0.452838
0.452838
0.452838
0.452838
0.452838
0.452838
0.452838
0.452838
0.452838
0.452838
0.452838
0.452838
0.452838
0.452838
0.452838
0.452838
0.452838
0.452838
0.452838
0.452838
0.452838
0.452838
0.452847
0.453662
0.485482
0.493963
0.129349
0.000298012
6.23372e-06
0.00067047
0.000778949
0.00612178
0.00792901
0.0103173
0.00647713
0.0106416
0.858501
0.98793
0.00582016
0.0102566
0.0578664
0.0190833
0.0280217
0.0272127
0.0908751
0.0283569
0.0184648
0.0128452
0.0102438
0.0201439
0.00281076
0.00241712
0.0115859
0.00531601
0.00306072
0.00210552
0.00111958
0.000629999
0.000457692
0.00066814
0.00397986
0.000125585
0.452838
0.452838
0.452838
0.452838
0.452838
0.452838
0.452838
0.452838
0.452838
0.452838
0.452838
0.452838
0.452838
0.452838
0.452838
0.452838
0.452838
0.452838
0.452838
0.452838
0.452838
0.452838
0.452838
0.452838
0.452838
0.452838
0.452838
0.452838
0.452838
0.452838
0.452838
0.452838
0.452838
0.452838
0.452838
0.452838
0.452838
0.452838
0.452838
0.452838
0.452838
0.452838
0.452838
0.452838
0.452838
0.452838
0.452838
0.452838
0.452838
0.452838
0.452838
0.452838
0.452838
0.452838
0.452838
0.452838
0.45284
0.452805
0.459836
0.455257
0.742209
8.21217e-06
0.000580131
0.00115276
0.00111126
0.00264851
0.00103599
0.000773801
0.0207458
0.097243
0.00639163
0.00520629
0.00953404
0.0411056
0.0299852
0.033661
0.0522819
0.024845
0.0118313
0.0197545
0.0157055
0.059665
0.0313674
0.00669503
0.00217435
0.00325573
0.0295767
0.0109585
0.00458056
0.00280121
0.00129315
0.000664965
0.000461596
0.000679241
0.0101594
0.000129249
0.452838
0.452838
0.452838
0.452838
0.452838
0.452838
0.452838
0.452838
0.452838
0.452838
0.452838
0.452838
0.452838
0.452838
0.452838
0.452838
0.452838
0.452838
0.452838
0.452838
0.452838
0.452838
0.452838
0.452838
0.452838
0.452838
0.452838
0.452838
0.452838
0.452838
0.452838
0.452838
0.452838
0.452838
0.452838
0.452838
0.452838
0.452838
0.452838
0.452838
0.452838
0.452838
0.452838
0.452838
0.452838
0.452838
0.452838
0.452838
0.452838
0.452838
0.452838
0.452838
0.452838
0.452838
0.452838
0.452838
0.452839
0.452896
0.477787
0.503535
0.625513
8.69613e-05
0.000158786
0.000243905
0.00155184
1.37509e-05
1.14222e-05
1.67645e-05
8.24649e-06
0.000923387
0.000496031
0.000377458
0.000390586
0.000457767
0.000531351
0.00111676
0.00163797
0.00134629
0.0055777
0.0144785
0.0136635
0.22369
0.0835621
0.0113505
0.0078717
0.0414589
0.0155465
0.00700723
0.00434867
0.00294613
0.0013277
0.000674243
0.000434084
0.000524081
0.00276999
0.000125423
0.452838
0.452838
0.452838
0.452838
0.452838
0.452838
0.452838
0.452838
0.452838
0.452838
0.452838
0.452838
0.452838
0.452838
0.452838
0.452838
0.452838
0.452838
0.452838
0.452838
0.452838
0.452838
0.452838
0.452838
0.452838
0.452838
0.452838
0.452838
0.452838
0.452838
0.452838
0.452838
0.452838
0.452838
0.452838
0.452838
0.452838
0.452838
0.452838
0.452838
0.452838
0.452838
0.452838
0.452838
0.452838
0.452838
0.452838
0.452838
0.452838
0.452838
0.452838
0.452838
0.452838
0.452838
0.452839
0.452839
0.452839
0.452837
0.453208
0.483835
0.084643
0.00344139
0.00148531
0.00644492
0.000930441
0.00323703
0.0042441
0.0136461
0.00666759
0.00926751
0.985936
0.859598
0.98263
0.0012212
0.000610956
0.000252561
3.55954e-05
7.59711e-06
8.46299e-06
0.00154011
0.00879508
0.00277076
0.00108094
0.000901795
0.000902988
0.00932507
0.0140179
0.00768487
0.007472
0.00437176
0.0016335
0.000770898
0.000471987
0.000574131
0.00386292
0.000129837
0.452838
0.452838
0.452838
0.452838
0.452838
0.452838
0.452838
0.452838
0.452838
0.452838
0.452838
0.452838
0.452838
0.452838
0.452838
0.452838
0.452838
0.452838
0.452838
0.452838
0.452838
0.452838
0.452838
0.452838
0.452838
0.452838
0.452838
0.452838
0.452838
0.452838
0.452838
0.452838
0.452838
0.452838
0.452838
0.452838
0.452838
0.452838
0.452838
0.452838
0.452838
0.452838
0.452838
0.452838
0.452838
0.452838
0.452838
0.452838
0.452838
0.452838
0.452838
0.452838
0.452838
0.452838
0.452839
0.452838
0.452839
0.452839
0.452853
0.506086
0.125663
0.738825
0.289264
0.133402
0.342711
0.309299
0.881226
0.975503
0.945345
0.970111
0.091043
0.665547
0.0382953
0.0419369
0.0811622
0.0375664
0.0368248
0.0476827
0.803045
0.0170665
0.00597444
0.0011261
0.000833865
5.26077e-05
7.93528e-06
0.999999
0.000306342
0.000299481
0.000264848
0.000230531
0.000196385
0.000169765
0.000128909
0.00013885
0.0594653
0.000120558
0.452838
0.452838
0.452838
0.452838
0.452838
0.452838
0.452838
0.452838
0.452838
0.452838
0.452838
0.452838
0.452838
0.452838
0.452838
0.452838
0.452838
0.452838
0.452838
0.452838
0.452838
0.452838
0.452838
0.452838
0.452838
0.452838
0.452838
0.452838
0.452838
0.452838
0.452838
0.452838
0.452838
0.452838
0.452838
0.452838
0.452838
0.452838
0.452838
0.452838
0.452838
0.452838
0.452838
0.452838
0.452838
0.452838
0.452838
0.452838
0.452838
0.452838
0.452838
0.452838
0.452838
0.452838
0.452839
0.452839
0.452838
0.45286
0.451633
0.514016
0.106529
0.889192
0.333589
0.211415
0.986918
0.130961
0.999992
0.657002
0.999918
0.972414
0.919581
0.817807
0.944613
0.998806
0.180552
0.91373
0.99798
0.921589
0.869636
0.180538
0.32897
0.946185
0.963335
0.755599
0.226484
1.42332e-07
0.999695
0.142317
0.00453575
0.999011
0.0175426
0.000728934
0.000123573
1.34111e-05
5.10809e-06
0.000278735
0.452838
0.452838
0.452838
0.452838
0.452838
0.452838
0.452838
0.452838
0.452838
0.452838
0.452838
0.452838
0.452838
0.452838
0.452838
0.452838
0.452838
0.452838
0.452838
0.452838
0.452838
0.452838
0.452838
0.452838
0.452838
0.452838
0.452838
0.452838
0.452838
0.452838
0.452838
0.452838
0.452838
0.452838
0.452838
0.452838
0.452838
0.452838
0.452838
0.452838
0.452838
0.452838
0.452838
0.452838
0.452838
0.452838
0.452838
0.452838
0.452838
0.452838
0.452838
0.452838
0.452838
0.452838
0.452839
0.452839
0.45284
0.452698
0.455219
0.494906
0.226937
0.999974
0.998162
0.451745
0.222519
0.759394
0.709543
0.886683
0.665493
0.601632
0.407341
0.439195
0.85067
0.615958
0.999994
0.959402
0.960622
0.895741
0.146995
0.197176
0.995584
0.389817
0.278595
0.601193
0.425539
0.768808
0.000432754
0.914856
0.999844
0.351866
0.971129
0.000692431
0.201265
0.260641
0.998269
0.00563824
0.452838
0.452838
0.452838
0.452838
0.452838
0.452838
0.452838
0.452838
0.452838
0.452838
0.452838
0.452838
0.452838
0.452838
0.452838
0.452838
0.452838
0.452838
0.452838
0.452838
0.452838
0.452838
0.452838
0.452838
0.452838
0.452838
0.452838
0.452838
0.452838
0.452838
0.452838
0.452838
0.452838
0.452838
0.452838
0.452838
0.452838
0.452838
0.452838
0.452838
0.452838
0.452838
0.452838
0.452838
0.452838
0.452838
0.452838
0.452838
0.452838
0.452838
0.452838
0.452838
0.452838
0.452838
0.452838
0.452839
0.452822
0.452304
0.453738
0.508173
0.962019
0.000155845
0.623267
0.989501
0.583678
0.143989
0.0581651
0.0698099
0.0339711
0.0318288
0.0132781
0.770877
0.91114
0.838428
0.671196
0.0157616
0.667908
0.924799
0.516497
0.086658
0.995698
0.0459586
0.16048
0.181752
0.193622
0.507344
0.0956805
0.0812011
0.417566
0.0234173
0.55806
0.999884
0.0650667
0.0683509
0.0226544
1.46416e-05
0.452838
0.452838
0.452838
0.452838
0.452838
0.452838
0.452838
0.452838
0.452838
0.452838
0.452838
0.452838
0.452838
0.452838
0.452838
0.452838
0.452838
0.452838
0.452838
0.452838
0.452838
0.452838
0.452838
0.452838
0.452838
0.452838
0.452838
0.452838
0.452838
0.452838
0.452838
0.452838
0.452838
0.452838
0.452838
0.452838
0.452838
0.452838
0.452838
0.452838
0.452838
0.452838
0.452838
0.452838
0.452838
0.452838
0.452838
0.452838
0.452838
0.452838
0.452838
0.452838
0.452838
0.452838
0.452839
0.452838
0.45284
0.452782
0.453903
0.529521
0.0206609
0.999936
0.977122
0.021501
0.00469784
0.0061837
0.00214781
0.000195478
0.000688346
3.37685e-05
7.30639e-06
0.000159773
0.000292124
0.000426194
0.000398204
0.000414065
0.999851
0.000296876
0.000548528
0.00051917
0.999603
0.988705
0.00425089
0.0008069
0.99868
0.000232229
0.00036869
0.000326267
6.65059e-05
9.22086e-05
8.55271e-05
0.000116265
0.000138831
0.000140013
0.000158781
6.29391e-05
0.452838
0.452838
0.452838
0.452838
0.452838
0.452838
0.452838
0.452838
0.452838
0.452838
0.452838
0.452838
0.452838
0.452838
0.452838
0.452838
0.452838
0.452838
0.452838
0.452838
0.452838
0.452838
0.452838
0.452838
0.452838
0.452838
0.452838
0.452838
0.452838
0.452838
0.452838
0.452838
0.452838
0.452838
0.452838
0.452838
0.452838
0.452838
0.452838
0.452838
0.452838
0.452838
0.452838
0.452838
0.452838
0.452838
0.452838
0.452838
0.452838
0.452838
0.452838
0.452838
0.452838
0.452838
0.452838
0.452838
0.45284
0.450012
0.569992
0.516113
0.0834904
0.000127
1.18051e-05
4.47689e-06
0.000385469
0.000663917
0.000572998
0.00159467
0.00363242
0.0042696
0.060078
0.0253404
0.0069068
0.00704023
0.0110128
0.0182976
0.0392438
0.00927364
0.00586354
0.00378364
0.00289431
0.00283949
0.00395289
0.0234172
0.00817534
0.00240642
0.00210799
0.00163047
0.00104689
0.000857471
0.000837472
0.00124701
0.00386825
0.00877344
0.00672175
0.000129356
0.452838
0.452838
0.452838
0.452838
0.452838
0.452838
0.452838
0.452838
0.452838
0.452838
0.452838
0.452838
0.452838
0.452838
0.452838
0.452838
0.452838
0.452838
0.452838
0.452838
0.452838
0.452838
0.452838
0.452838
0.452838
0.452838
0.452838
0.452838
0.452838
0.452838
0.452838
0.452838
0.452838
0.452838
0.452838
0.452838
0.452838
0.452838
0.452838
0.452838
0.452838
0.452838
0.452838
0.452838
0.452838
0.452838
0.452838
0.452838
0.452838
0.452838
0.452838
0.452838
0.452838
0.452838
0.452839
0.452838
0.45284
0.452863
0.449495
0.438882
0.430371
3.04418e-06
0.000232409
0.00233072
0.000838807
0.000856721
0.00331022
0.00524255
0.00397501
0.0049391
0.00458451
0.00550438
0.0110611
0.0323221
0.00807512
0.00714872
0.00914909
0.0163762
0.0251555
0.0162602
0.0246576
0.0368087
0.00260414
0.00212278
0.0227017
0.00441376
0.00180738
0.00164021
0.00111707
0.000788753
0.000685309
0.000854206
0.00253712
0.0494731
0.038716
0.000127726
0.452838
0.452838
0.452838
0.452838
0.452838
0.452838
0.452838
0.452838
0.452838
0.452838
0.452838
0.452838
0.452838
0.452838
0.452838
0.452838
0.452838
0.452838
0.452838
0.452838
0.452838
0.452838
0.452838
0.452838
0.452838
0.452838
0.452838
0.452838
0.452838
0.452838
0.452838
0.452838
0.452838
0.452838
0.452838
0.452838
0.452838
0.452838
0.452838
0.452838
0.452838
0.452838
0.452838
0.452838
0.452838
0.452838
0.452838
0.452838
0.452838
0.452838
0.452838
0.452838
0.452838
0.452838
0.452839
0.452838
0.45284
0.45284
0.452935
0.510427
0.312429
5.36362e-06
0.000984772
0.00210573
0.000766234
0.000664773
0.00293785
0.00652938
0.0129231
0.194551
0.0561661
0.0111067
0.0120988
0.0505647
0.0140149
0.0101775
0.00726455
0.00620769
0.0144517
0.0147672
0.00823181
0.0137904
0.010533
0.00317168
0.00327874
0.0101171
0.00192062
0.00129261
0.00103791
0.000802835
0.000752144
0.00127093
0.0747799
0.00729767
0.00306973
0.000131453
0.452838
0.452838
0.452838
0.452838
0.452838
0.452838
0.452838
0.452838
0.452838
0.452838
0.452838
0.452838
0.452838
0.452838
0.452838
0.452838
0.452838
0.452838
0.452838
0.452838
0.452838
0.452838
0.452838
0.452838
0.452838
0.452838
0.452838
0.452838
0.452838
0.452838
0.452838
0.452838
0.452838
0.452838
0.452838
0.452838
0.452838
0.452838
0.452838
0.452838
0.452838
0.452838
0.452838
0.452838
0.452838
0.452838
0.452838
0.452838
0.452838
0.452838
0.452838
0.452838
0.452838
0.452838
0.452838
0.452839
0.452842
0.452842
0.452929
0.535695
0.196579
1.19931e-05
4.16425e-06
0.000334407
0.000744467
0.00224955
0.00153456
0.00237271
0.00325777
0.00471799
0.0049364
0.0045129
0.00467391
0.00757083
0.0202377
0.0458273
0.0121357
0.010866
0.00797687
0.00699965
0.0100127
0.0810545
0.0492975
0.0051524
0.00185091
0.0233357
0.00194936
0.00118005
0.000847944
0.000667684
0.000628625
0.000953158
0.00348392
0.0192263
0.00267108
0.000131908
0.452838
0.452838
0.452838
0.452838
0.452838
0.452838
0.452838
0.452838
0.452838
0.452838
0.452838
0.452838
0.452838
0.452838
0.452838
0.452838
0.452838
0.452838
0.452838
0.452838
0.452838
0.452838
0.452838
0.452838
0.452838
0.452838
0.452838
0.452838
0.452838
0.452838
0.452838
0.452838
0.452838
0.452838
0.452838
0.452838
0.452838
0.452838
0.452838
0.452838
0.452838
0.452838
0.452838
0.452838
0.452838
0.452838
0.452838
0.452838
0.452838
0.452838
0.452838
0.452838
0.452838
0.452838
0.452838
0.452838
0.452842
0.452842
0.456381
0.564114
0.0853891
0.000820958
3.67282e-06
0.000343374
0.000489974
0.00524928
0.00305964
0.0369957
0.00642302
0.00647341
0.0131328
0.0585606
0.0105267
0.00776822
0.0162583
0.0119441
0.00458703
0.00314438
0.00272026
0.00256592
0.00295655
0.00580109
0.0102073
0.00825031
0.00253019
0.00374997
0.00201414
0.00104998
0.000900744
0.000733928
0.000772539
0.00128516
0.00388653
0.00316051
0.00297627
0.000122986
0.452838
0.452838
0.452838
0.452838
0.452838
0.452838
0.452838
0.452838
0.452838
0.452838
0.452838
0.452838
0.452838
0.452838
0.452838
0.452838
0.452838
0.452838
0.452838
0.452838
0.452838
0.452838
0.452838
0.452838
0.452838
0.452838
0.452838
0.452838
0.452838
0.452838
0.452838
0.452838
0.452838
0.452838
0.452838
0.452838
0.452838
0.452838
0.452838
0.452838
0.452838
0.452838
0.452838
0.452838
0.452838
0.452838
0.452838
0.452838
0.452838
0.452838
0.452838
0.452838
0.452838
0.452838
0.452838
0.452838
0.452842
0.452879
0.470762
0.50498
0.185453
0.959465
8.3881e-06
1.21747e-05
0.00166304
0.00488702
0.0083524
0.00225866
0.00198055
0.00255948
0.00324881
0.00295456
0.0026015
0.00235418
0.0030478
0.00304101
0.00190489
0.001396
0.00145955
0.00199663
0.0034082
0.0161497
0.018719
0.491449
0.00229719
0.00291635
0.00303776
0.000998872
0.000789057
0.000846601
0.000967036
0.00191432
0.0117316
0.00301012
0.00203146
0.000134694
0.452838
0.452838
0.452838
0.452838
0.452838
0.452838
0.452838
0.452838
0.452838
0.452838
0.452838
0.452838
0.452838
0.452838
0.452838
0.452838
0.452838
0.452838
0.452838
0.452838
0.452838
0.452838
0.452838
0.452838
0.452838
0.452838
0.452838
0.452838
0.452838
0.452838
0.452838
0.452838
0.452838
0.452838
0.452838
0.452838
0.452838
0.452838
0.452838
0.452838
0.452838
0.452838
0.452838
0.452838
0.452838
0.452838
0.452838
0.452838
0.452838
0.452838
0.452838
0.452838
0.452838
0.452838
0.452839
0.452838
0.45284
0.454391
0.491948
0.492753
0.201928
0.00906015
7.8499e-06
7.80906e-06
0.0020802
0.00641862
0.00555403
0.00900233
0.0178819
0.0479055
0.0726285
0.104472
0.160199
0.310734
0.058469
0.0923488
0.0417504
0.0774001
0.338858
0.0366655
0.0287074
0.0358812
0.0287354
0.0120913
0.00537173
0.0106425
0.00355335
0.00287315
0.00521878
0.00152999
0.00087773
0.000555838
0.000467359
0.000814255
0.00692893
0.000127019
0.452838
0.452838
0.452838
0.452838
0.452838
0.452838
0.452838
0.452838
0.452838
0.452838
0.452838
0.452838
0.452838
0.452838
0.452838
0.452838
0.452838
0.452838
0.452838
0.452838
0.452838
0.452838
0.452838
0.452838
0.452838
0.452838
0.452838
0.452838
0.452838
0.452838
0.452838
0.452838
0.452838
0.452838
0.452838
0.452838
0.452838
0.452838
0.452838
0.452838
0.452838
0.452838
0.452838
0.452838
0.452838
0.452838
0.452838
0.452838
0.452838
0.452838
0.452838
0.452838
0.452838
0.452838
0.452838
0.452838
0.45284
0.452876
0.452579
0.493837
0.171107
0.000565908
6.91799e-06
0.000565628
0.00102893
0.00251831
0.00830411
0.00503407
0.00495115
0.0488256
0.95514
0.0195521
0.00884211
0.0228911
0.0440188
0.0218145
0.0301283
0.0312315
0.0236588
0.00115025
0.02796
0.0360608
0.0262691
0.0781612
0.00427263
0.00540257
0.00470647
0.0106001
0.00342674
0.00264805
0.0012652
0.000580512
0.000390733
0.000526874
0.0030796
0.00012581
0.452838
0.452838
0.452838
0.452838
0.452838
0.452838
0.452838
0.452838
0.452838
0.452838
0.452838
0.452838
0.452838
0.452838
0.452838
0.452838
0.452838
0.452838
0.452838
0.452838
0.452838
0.452838
0.452838
0.452838
0.452838
0.452838
0.452838
0.452838
0.452838
0.452838
0.452838
0.452838
0.452838
0.452838
0.452838
0.452838
0.452838
0.452838
0.452838
0.452838
0.452838
0.452838
0.452838
0.452838
0.452838
0.452838
0.452838
0.452838
0.452838
0.452838
0.452838
0.452838
0.452838
0.452838
0.452838
0.452839
0.452839
0.452843
0.436155
0.524669
0.371781
3.69594e-06
0.0139598
0.00182632
0.00115862
0.00388964
0.00844658
0.0246532
0.0169547
0.0396295
0.00672356
0.00661214
0.0140164
0.0404815
0.0149271
0.00994071
0.00845132
0.0113019
0.0204892
0.0226317
0.0357567
0.0108248
0.00559406
0.00723901
0.00938876
0.00880024
0.00574787
0.00699834
0.00861242
0.00349558
0.00247234
0.000863522
0.000428666
0.000413096
0.0018503
0.000127618
0.452838
0.452838
0.452838
0.452838
0.452838
0.452838
0.452838
0.452838
0.452838
0.452838
0.452838
0.452838
0.452838
0.452838
0.452838
0.452838
0.452838
0.452838
0.452838
0.452838
0.452838
0.452838
0.452838
0.452838
0.452838
0.452838
0.452838
0.452838
0.452838
0.452838
0.452838
0.452838
0.452838
0.452838
0.452838
0.452838
0.452838
0.452838
0.452838
0.452838
0.452838
0.452838
0.452838
0.452838
0.452838
0.452838
0.452838
0.452838
0.452838
0.452838
0.452838
0.452838
0.452838
0.452838
0.452839
0.452839
0.452839
0.452834
0.453138
0.483525
0.65009
0.999973
0.0588106
8.5088e-06
0.000595019
0.000451905
0.00112374
0.000930437
0.00226984
0.00465433
0.000834185
0.000658262
0.000566857
0.000727647
0.00077287
0.00132622
0.00479044
0.0323721
0.0172657
0.00354798
0.0309653
0.00835598
0.0051043
0.00492324
0.0052349
0.0094657
0.0101838
0.00414258
0.00488432
0.00604277
0.00404104
0.00107046
0.000462678
0.000359967
0.000965097
0.000125234
0.452838
0.452838
0.452838
0.452838
0.452838
0.452838
0.452838
0.452838
0.452838
0.452838
0.452838
0.452838
0.452838
0.452838
0.452838
0.452838
0.452838
0.452838
0.452838
0.452838
0.452838
0.452838
0.452838
0.452838
0.452838
0.452838
0.452838
0.452838
0.452838
0.452838
0.452838
0.452838
0.452838
0.452838
0.452838
0.452838
0.452838
0.452838
0.452838
0.452838
0.452838
0.452838
0.452838
0.452838
0.452838
0.452838
0.452838
0.452838
0.452838
0.452838
0.452838
0.452838
0.452838
0.452838
0.452839
0.452839
0.452839
0.452849
0.452968
0.519398
0.107618
0.998312
0.982862
0.993263
0.0360948
0.0181183
0.122121
0.0866615
0.0210006
0.0069806
0.110474
0.00491618
0.00793902
0.00414152
0.00381496
0.0120379
0.00226651
0.000220366
9.94327e-05
7.23606e-06
8.35629e-06
0.00359731
0.00124431
0.00253482
0.00908611
0.00397373
0.00248388
0.00189372
0.00382392
0.0132353
0.00700723
0.00129536
0.000537934
0.000393485
0.000870654
0.000129042
0.452838
0.452838
0.452838
0.452838
0.452838
0.452838
0.452838
0.452838
0.452838
0.452838
0.452838
0.452838
0.452838
0.452838
0.452838
0.452838
0.452838
0.452838
0.452838
0.452838
0.452838
0.452838
0.452838
0.452838
0.452838
0.452838
0.452838
0.452838
0.452838
0.452838
0.452838
0.452838
0.452838
0.452838
0.452838
0.452838
0.452838
0.452838
0.452838
0.452838
0.452838
0.452838
0.452838
0.452838
0.452838
0.452838
0.452838
0.452838
0.452838
0.452838
0.452838
0.452838
0.452838
0.452838
0.452839
0.452838
0.452838
0.452837
0.452839
0.54994
0.969281
0.143147
0.966522
0.999491
0.101133
0.26106
0.485836
0.926285
0.827024
0.00208182
0.00014209
0.652458
0.783222
0.415644
0.842524
0.196732
0.357152
0.983419
0.782393
0.0274906
0.975997
0.0318431
0.999996
0.000546681
6.87572e-05
0.000516452
1.01531e-05
0.000466028
1.00319e-05
7.76314e-06
0.000572357
0.00138154
0.000467013
0.000125516
6.5087e-05
3.31621e-05
0.452838
0.452838
0.452838
0.452838
0.452838
0.452838
0.452838
0.452838
0.452838
0.452838
0.452838
0.452838
0.452838
0.452838
0.452838
0.452838
0.452838
0.452838
0.452838
0.452838
0.452838
0.452838
0.452838
0.452838
0.452838
0.452838
0.452838
0.452838
0.452838
0.452838
0.452838
0.452838
0.452838
0.452838
0.452838
0.452838
0.452838
0.452838
0.452838
0.452838
0.452838
0.452838
0.452838
0.452838
0.452838
0.452838
0.452838
0.452838
0.452838
0.452838
0.452838
0.452838
0.452838
0.452838
0.452839
0.452839
0.452839
0.452855
0.45703
0.570468
0.116948
0.551871
0.945387
0.472521
0.400604
0.35308
0.263099
0.861019
0.433443
0.553499
0.624051
0.387186
0.3089
0.812859
0.987511
0.71145
0.229638
0.636485
0.30385
0.998774
0.955297
0.0311177
0.00280299
0.996786
0.957032
0.485651
0.878598
0.114754
0.999435
0.00209931
0.446657
0.411705
0.128016
0.0357228
0.0135181
0.00128262
0.452838
0.452838
0.452838
0.452838
0.452838
0.452838
0.452838
0.452838
0.452838
0.452838
0.452838
0.452838
0.452838
0.452838
0.452838
0.452838
0.452838
0.452838
0.452838
0.452838
0.452838
0.452838
0.452838
0.452838
0.452838
0.452838
0.452838
0.452838
0.452838
0.452838
0.452838
0.452838
0.452838
0.452838
0.452838
0.452838
0.452838
0.452838
0.452838
0.452838
0.452838
0.452838
0.452838
0.452838
0.452838
0.452838
0.452838
0.452838
0.452838
0.452838
0.452838
0.452838
0.452838
0.452838
0.452839
0.452839
0.452839
0.453103
0.455174
0.579937
0.204181
0.999663
0.826344
0.499674
0.776848
0.259058
0.250011
0.801886
0.511046
0.251793
0.489397
0.549606
0.358107
0.586084
0.250101
0.525111
0.376177
0.512286
0.370309
0.588723
0.339537
0.649539
0.395207
0.853887
0.510134
0.803347
0.855248
0.290481
0.462004
0.356985
0.360804
0.343465
0.27783
0.907244
0.286317
0.999997
0.452838
0.452838
0.452838
0.452838
0.452838
0.452838
0.452838
0.452838
0.452838
0.452838
0.452838
0.452838
0.452838
0.452838
0.452838
0.452838
0.452838
0.452838
0.452838
0.452838
0.452838
0.452838
0.452838
0.452838
0.452838
0.452838
0.452838
0.452838
0.452838
0.452838
0.452838
0.452838
0.452838
0.452838
0.452838
0.452838
0.452838
0.452838
0.452838
0.452838
0.452838
0.452838
0.452838
0.452838
0.452838
0.452838
0.452838
0.452838
0.452838
0.452838
0.452838
0.452838
0.452838
0.452838
0.452839
0.452838
0.45284
0.452851
0.454107
0.523943
0.315546
0.99814
0.0252629
0.377866
0.985153
0.0998674
0.000124237
0.000108127
0.504989
0.31014
0.381094
0.257993
0.98095
0.83583
0.514553
0.464118
0.581815
0.826067
0.932997
0.999839
0.135487
0.536686
0.0309077
0.998976
0.666418
0.718478
0.843922
0.387208
0.34742
0.613918
0.603135
0.380188
0.470623
0.4863
0.347445
0.99935
0.452838
0.452838
0.452838
0.452838
0.452838
0.452838
0.452838
0.452838
0.452838
0.452838
0.452838
0.452838
0.452838
0.452838
0.452838
0.452838
0.452838
0.452838
0.452838
0.452838
0.452838
0.452838
0.452838
0.452838
0.452838
0.452838
0.452838
0.452838
0.452838
0.452838
0.452838
0.452838
0.452838
0.452838
0.452838
0.452838
0.452838
0.452838
0.452838
0.452838
0.452838
0.452838
0.452838
0.452838
0.452838
0.452838
0.452838
0.452838
0.452838
0.452838
0.452838
0.452838
0.452838
0.452838
0.452839
0.452838
0.452839
0.452843
0.452904
0.523589
0.035534
0.0557301
0.050091
0.0151086
0.00301343
0.278535
0.00661811
0.013474
0.00597355
0.00768655
0.00344009
0.00673544
0.00971464
0.00555846
0.00667719
0.00415171
0.0183666
0.0188455
0.0032708
0.00228513
0.0112183
0.00685639
0.00832032
0.0210143
0.0177121
0.0796178
0.720494
0.00400493
0.00284712
0.0054681
0.00369683
0.00555501
0.0015076
0.000138537
1.25392e-05
2.79374e-06
0.452838
0.452838
0.452838
0.452838
0.452838
0.452838
0.452838
0.452838
0.452838
0.452838
0.452838
0.452838
0.452838
0.452838
0.452838
0.452838
0.452838
0.452838
0.452838
0.452838
0.452838
0.452838
0.452838
0.452838
0.452838
0.452838
0.452838
0.452838
0.452838
0.452838
0.452838
0.452838
0.452838
0.452838
0.452838
0.452838
0.452838
0.452838
0.452838
0.452838
0.452838
0.452838
0.452838
0.452838
0.452838
0.452838
0.452838
0.452838
0.452838
0.452838
0.452838
0.452838
0.452838
0.452838
0.452839
0.452838
0.45284
0.452867
0.436931
0.550175
0.366388
2.36519e-05
0.00783767
3.55402e-06
0.00016721
0.000376279
0.000703993
0.000656554
0.000549404
0.000387394
0.000380789
0.00043357
0.00046137
0.000496321
0.000496205
0.0005009
0.000492444
0.000539766
0.00144818
0.0260811
0.00066821
0.000482962
0.00062359
0.000831865
0.00145891
0.000803452
0.000508171
0.0012743
0.00188644
0.000929438
0.00172736
0.00079172
0.000204765
0.000133897
0.000114541
0.00012396
0.452838
0.452838
0.452838
0.452838
0.452838
0.452838
0.452838
0.452838
0.452838
0.452838
0.452838
0.452838
0.452838
0.452838
0.452838
0.452838
0.452838
0.452838
0.452838
0.452838
0.452838
0.452838
0.452838
0.452838
0.452838
0.452838
0.452838
0.452838
0.452838
0.452838
0.452838
0.452838
0.452838
0.452838
0.452838
0.452838
0.452838
0.452838
0.452838
0.452838
0.452838
0.452838
0.452838
0.452838
0.452838
0.452838
0.452838
0.452838
0.452838
0.452838
0.452838
0.452838
0.452838
0.452838
0.452839
0.452838
0.45284
0.452838
0.454016
0.499725
0.647145
1
0.000458816
0.00254567
0.000565231
0.00145899
0.0037626
0.00488285
0.0223804
0.0850523
0.0109027
0.00925313
0.020504
0.0267971
0.00577399
0.00383452
0.00420811
0.00426294
0.00503844
0.00800812
0.0383158
0.0553955
0.00430661
0.00148054
0.00243203
0.00755631
0.00226021
0.00175654
0.00102037
0.00063923
0.000525612
0.00063498
0.00143365
0.00335455
0.00265296
0.000119952
0.452838
0.452838
0.452838
0.452838
0.452838
0.452838
0.452838
0.452838
0.452838
0.452838
0.452838
0.452838
0.452838
0.452838
0.452838
0.452838
0.452838
0.452838
0.452838
0.452838
0.452838
0.452838
0.452838
0.452838
0.452838
0.452838
0.452838
0.452838
0.452838
0.452838
0.452838
0.452838
0.452838
0.452838
0.452838
0.452838
0.452838
0.452838
0.452838
0.452838
0.452838
0.452838
0.452838
0.452838
0.452838
0.452838
0.452838
0.452838
0.452838
0.452838
0.452838
0.452838
0.452838
0.452838
0.452838
0.452838
0.452841
0.452835
0.452901
0.533006
0.31549
0.000984382
0.000785934
0.00273208
0.00132609
0.00122479
0.00763826
0.010267
0.00826362
0.0054938
0.00675255
0.0123177
0.609989
0.80979
0.0118769
0.00805324
0.00540535
0.00400431
0.00462537
0.0125527
0.00517705
0.00477274
0.00809621
0.00413235
0.00241809
0.00859292
0.00210899
0.0013056
0.000873613
0.000715246
0.000592579
0.000761292
0.00226753
0.00335054
0.00129459
0.000117851
0.452838
0.452838
0.452838
0.452838
0.452838
0.452838
0.452838
0.452838
0.452838
0.452838
0.452838
0.452838
0.452838
0.452838
0.452838
0.452838
0.452838
0.452838
0.452838
0.452838
0.452838
0.452838
0.452838
0.452838
0.452838
0.452838
0.452838
0.452838
0.452838
0.452838
0.452838
0.452838
0.452838
0.452838
0.452838
0.452838
0.452838
0.452838
0.452838
0.452838
0.452838
0.452838
0.452838
0.452838
0.452838
0.452838
0.452838
0.452838
0.452838
0.452838
0.452838
0.452838
0.452838
0.452838
0.452838
0.452838
0.452842
0.452782
0.454952
0.500672
0.499698
4.24282e-05
0.000590683
0.00027716
0.000839118
0.00383805
0.00312292
0.00407966
0.00866037
0.0295422
0.0238849
0.00968163
0.0116576
0.191708
0.0946738
0.025599
0.00799119
0.00642446
0.00709966
0.0306482
0.00725129
0.00501577
0.0131743
0.0109536
0.00215671
0.00481387
0.00316843
0.000926813
0.000719185
0.000656061
0.000618096
0.000774086
0.00207621
0.00455044
0.0060782
0.000120636
0.452838
0.452838
0.452838
0.452838
0.452838
0.452838
0.452838
0.452838
0.452838
0.452838
0.452838
0.452838
0.452838
0.452838
0.452838
0.452838
0.452838
0.452838
0.452838
0.452838
0.452838
0.452838
0.452838
0.452838
0.452838
0.452838
0.452838
0.452838
0.452838
0.452838
0.452838
0.452838
0.452838
0.452838
0.452838
0.452838
0.452838
0.452838
0.452838
0.452838
0.452838
0.452838
0.452838
0.452838
0.452838
0.452838
0.452838
0.452838
0.452838
0.452838
0.452838
0.452838
0.452838
0.452838
0.452838
0.452838
0.452842
0.453591
0.492404
0.363037
0.551748
0.00198163
4.2465e-06
0.000351097
0.000441794
0.000609758
0.00154685
0.00233334
0.00193241
0.00220076
0.00373616
0.0106297
0.0189933
0.00841772
0.0135627
0.00955258
0.00443837
0.00258447
0.00186155
0.00149981
0.00146393
0.00161082
0.00237743
0.00474518
0.00178057
0.00256537
0.00350427
0.000982352
0.000587976
0.000553661
0.000534311
0.000668806
0.00122899
0.00164692
0.00266769
0.000119369
0.452838
0.452838
0.452838
0.452838
0.452838
0.452838
0.452838
0.452838
0.452838
0.452838
0.452838
0.452838
0.452838
0.452838
0.452838
0.452838
0.452838
0.452838
0.452838
0.452838
0.452838
0.452838
0.452838
0.452838
0.452838
0.452838
0.452838
0.452838
0.452838
0.452838
0.452838
0.452838
0.452838
0.452838
0.452838
0.452838
0.452838
0.452838
0.452838
0.452838
0.452838
0.452838
0.452838
0.452838
0.452838
0.452838
0.452838
0.452838
0.452838
0.452838
0.452838
0.452838
0.452838
0.452838
0.452838
0.452838
0.452841
0.452991
0.459368
0.553564
0.186195
0.0641173
1.05629e-05
3.37052e-06
0.00153815
0.00486387
0.0019965
0.00508234
0.0236162
0.0196618
0.0199332
0.00747884
0.00379719
0.00266643
0.00296122
0.00362687
0.0036168
0.00267499
0.00194783
0.0019903