/*--------------------------------*- C++ -*----------------------------------*\
| =========                 |                                                 |
| \\      /  F ield         | OpenFOAM: The Open Source CFD Toolbox           |
|  \\    /   O peration     | Version:  2.3.0                                 |
|   \\  /    A nd           | Web:      www.OpenFOAM.org                      |
|    \\/     M anipulation  |                                                 |
\*---------------------------------------------------------------------------*/
FoamFile
{
    version     2.0;
    format      ascii;
    class       volScalarField;
    location    "13";
    object      alpha.airMean;
}
// * * * * * * * * * * * * * * * * * * * * * * * * * * * * * * * * * * * * * //

dimensions      [0 0 0 0 0 0 0];

internalField   nonuniform List<scalar> 
6144
(
0.99999
0.99999
0.99999
0.99999
0.99999
0.99999
0.99999
0.99999
0.99999
0.99999
0.99999
0.99999
0.99999
0.99999
0.99999
0.99999
0.99999
0.99999
0.99999
0.99999
0.99999
0.99999
0.99999
0.99999
0.99999
0.99999
0.99999
0.99999
0.99999
0.99999
0.99999
0.99999
0.99999
0.99999
0.99999
0.99999
0.99999
0.99999
0.99999
0.99999
0.99999
0.99999
0.99999
0.99999
0.99999
0.99999
0.99999
0.99999
0.99999
0.99999
0.99999
0.999987
0.999981
0.999965
0.999952
0.999919
0.99985
0.999507
0.998763
0.933786
0.0373107
0.000224582
1.50618e-06
1.34025e-06
1.33535e-06
1.30149e-06
1.30049e-06
1.2731e-06
1.26734e-06
1.24654e-06
1.23528e-06
1.21751e-06
1.20463e-06
1.18802e-06
1.17469e-06
1.1591e-06
1.14566e-06
1.13227e-06
1.11788e-06
1.10448e-06
1.09114e-06
1.07698e-06
1.06382e-06
1.05174e-06
1.03996e-06
1.02857e-06
1.01623e-06
9.98153e-07
9.58023e-07
8.71472e-07
7.49536e-07
6.5674e-07
5.55341e-07
4.81914e-07
4.8064e-07
4.80522e-07
0.99999
0.99999
0.99999
0.99999
0.99999
0.99999
0.99999
0.99999
0.99999
0.99999
0.99999
0.99999
0.99999
0.99999
0.99999
0.99999
0.99999
0.99999
0.99999
0.99999
0.99999
0.99999
0.99999
0.99999
0.99999
0.99999
0.99999
0.99999
0.99999
0.99999
0.99999
0.99999
0.99999
0.99999
0.99999
0.99999
0.99999
0.99999
0.99999
0.99999
0.99999
0.99999
0.99999
0.99999
0.99999
0.99999
0.99999
0.99999
0.99999
0.99999
0.99999
0.999987
0.999982
0.999968
0.999954
0.999926
0.999839
0.999386
0.99857
0.947807
0.0423216
9.66804e-05
1.36384e-06
1.35273e-06
1.33739e-06
1.30387e-06
1.30084e-06
1.27388e-06
1.26517e-06
1.2423e-06
1.23196e-06
1.21493e-06
1.2029e-06
1.18822e-06
1.17456e-06
1.15955e-06
1.14429e-06
1.12973e-06
1.11593e-06
1.1036e-06
1.09148e-06
1.08043e-06
1.06974e-06
1.05686e-06
1.04378e-06
1.03104e-06
1.01646e-06
9.95714e-07
9.5924e-07
8.76905e-07
7.59839e-07
6.62744e-07
5.56497e-07
4.82843e-07
4.82626e-07
4.83575e-07
0.999991
0.99999
0.99999
0.99999
0.99999
0.99999
0.99999
0.99999
0.99999
0.99999
0.99999
0.99999
0.99999
0.99999
0.99999
0.99999
0.99999
0.99999
0.99999
0.99999
0.99999
0.99999
0.99999
0.99999
0.99999
0.99999
0.99999
0.99999
0.99999
0.99999
0.99999
0.99999
0.99999
0.99999
0.99999
0.99999
0.99999
0.99999
0.99999
0.99999
0.99999
0.99999
0.99999
0.99999
0.99999
0.99999
0.99999
0.99999
0.99999
0.99999
0.99999
0.999988
0.999983
0.999973
0.999947
0.999913
0.999886
0.999538
0.999155
0.951465
0.0489522
5.43001e-05
1.37879e-06
1.37255e-06
1.35489e-06
1.32707e-06
1.32437e-06
1.29807e-06
1.29061e-06
1.2686e-06
1.25536e-06
1.23301e-06
1.21673e-06
1.19622e-06
1.17947e-06
1.16157e-06
1.14983e-06
1.13715e-06
1.1226e-06
1.10828e-06
1.09401e-06
1.07934e-06
1.06535e-06
1.05198e-06
1.03865e-06
1.02744e-06
1.01396e-06
9.93592e-07
9.53874e-07
8.70961e-07
7.71932e-07
6.84104e-07
5.75104e-07
4.92172e-07
4.8839e-07
4.87003e-07
0.999991
0.999991
0.99999
0.99999
0.99999
0.99999
0.99999
0.99999
0.99999
0.99999
0.99999
0.99999
0.99999
0.99999
0.99999
0.99999
0.99999
0.99999
0.99999
0.99999
0.99999
0.99999
0.99999
0.99999
0.99999
0.99999
0.99999
0.99999
0.99999
0.99999
0.99999
0.99999
0.99999
0.99999
0.99999
0.99999
0.99999
0.99999
0.99999
0.99999
0.99999
0.99999
0.99999
0.99999
0.99999
0.99999
0.99999
0.99999
0.99999
0.99999
0.99999
0.999988
0.999983
0.999969
0.999936
0.999902
0.999908
0.999641
0.999602
0.942743
0.052194
4.04061e-05
1.45303e-06
1.4422e-06
1.40176e-06
1.34028e-06
1.33611e-06
1.3054e-06
1.29582e-06
1.26566e-06
1.25849e-06
1.257e-06
1.25871e-06
1.24672e-06
1.2316e-06
1.21108e-06
1.18315e-06
1.1564e-06
1.13485e-06
1.11714e-06
1.10094e-06
1.08614e-06
1.06964e-06
1.0527e-06
1.03736e-06
1.02296e-06
1.00303e-06
9.7065e-07
9.18093e-07
8.51429e-07
7.87662e-07
7.07516e-07
5.97447e-07
5.05684e-07
4.93437e-07
4.89205e-07
0.999991
0.999991
0.99999
0.99999
0.99999
0.99999
0.99999
0.99999
0.99999
0.99999
0.99999
0.99999
0.99999
0.99999
0.99999
0.99999
0.99999
0.99999
0.99999
0.99999
0.99999
0.99999
0.99999
0.99999
0.99999
0.99999
0.99999
0.99999
0.99999
0.99999
0.99999
0.99999
0.99999
0.99999
0.99999
0.99999
0.99999
0.99999
0.99999
0.99999
0.99999
0.99999
0.99999
0.99999
0.99999
0.99999
0.99999
0.99999
0.99999
0.99999
0.999989
0.999986
0.999982
0.999969
0.999936
0.999885
0.999871
0.999735
0.999807
0.880215
0.0202168
7.27381e-05
2.40376e-05
1.17433e-05
8.38233e-06
6.27749e-06
6.21341e-06
5.53e-06
5.28006e-06
4.86877e-06
4.63875e-06
4.32431e-06
3.99176e-06
3.54656e-06
3.08819e-06
2.66363e-06
2.27537e-06
1.91722e-06
1.63118e-06
1.40102e-06
1.24945e-06
1.16498e-06
1.10573e-06
1.05732e-06
1.01616e-06
9.78123e-07
9.49207e-07
9.17242e-07
8.81369e-07
8.42497e-07
7.92205e-07
7.17362e-07
6.10679e-07
5.1392e-07
4.96067e-07
4.89455e-07
0.999991
0.999991
0.999991
0.999991
0.99999
0.99999
0.99999
0.99999
0.99999
0.99999
0.99999
0.99999
0.99999
0.99999
0.99999
0.99999
0.99999
0.99999
0.99999
0.99999
0.99999
0.99999
0.99999
0.99999
0.99999
0.99999
0.99999
0.99999
0.99999
0.99999
0.99999
0.99999
0.99999
0.99999
0.99999
0.99999
0.99999
0.99999
0.99999
0.99999
0.99999
0.99999
0.99999
0.99999
0.99999
0.99999
0.99999
0.99999
0.99999
0.99999
0.999989
0.999986
0.999981
0.999969
0.999916
0.999873
0.999877
0.999819
0.999948
0.767244
0.0109135
0.00136375
0.00115611
0.000875852
0.000788458
0.000746249
0.000730868
0.000722447
0.000720665
0.000702048
0.000680034
0.000657281
0.000625091
0.000567169
0.000509503
0.000452464
0.000383832
0.000316458
0.000251683
0.000191562
0.000140935
9.68901e-05
6.30635e-05
3.92604e-05
2.28133e-05
1.17336e-05
5.20628e-06
2.27753e-06
1.17033e-06
7.39803e-07
5.8515e-07
5.38976e-07
4.98026e-07
4.88535e-07
4.88681e-07
4.85374e-07
0.999991
0.999991
0.999991
0.999991
0.999991
0.99999
0.99999
0.99999
0.99999
0.99999
0.99999
0.99999
0.99999
0.99999
0.99999
0.99999
0.99999
0.99999
0.99999
0.99999
0.99999
0.99999
0.99999
0.99999
0.99999
0.99999
0.99999
0.99999
0.99999
0.99999
0.99999
0.99999
0.99999
0.99999
0.99999
0.99999
0.99999
0.99999
0.99999
0.99999
0.99999
0.99999
0.99999
0.99999
0.99999
0.99999
0.99999
0.99999
0.99999
0.99999
0.999989
0.999987
0.999983
0.999975
0.999931
0.99987
0.999847
0.999838
0.99999
0.62426
0.0127228
0.00820264
0.0084671
0.0080234
0.00773027
0.00775903
0.00768492
0.00777568
0.00773257
0.00769617
0.00762188
0.00734123
0.00714214
0.00699554
0.00686138
0.00638288
0.00583382
0.00546592
0.0049047
0.00435856
0.00398769
0.00342033
0.00285969
0.00240346
0.0019757
0.00159799
0.0012016
0.000827718
0.000549367
0.000323139
0.00015033
5.18863e-05
1.15046e-05
4.88294e-06
2.9864e-06
2.71874e-06
0.999991
0.999991
0.999991
0.999991
0.999991
0.999991
0.999991
0.99999
0.99999
0.99999
0.99999
0.99999
0.99999
0.99999
0.99999
0.99999
0.99999
0.99999
0.99999
0.99999
0.99999
0.99999
0.99999
0.99999
0.99999
0.99999
0.99999
0.99999
0.99999
0.99999
0.99999
0.99999
0.99999
0.99999
0.99999
0.99999
0.99999
0.99999
0.99999
0.99999
0.99999
0.99999
0.99999
0.99999
0.99999
0.99999
0.99999
0.99999
0.99999
0.99999
0.999989
0.999988
0.999983
0.999975
0.999948
0.999885
0.999854
0.999839
0.999969
0.553144
0.0230135
0.0188466
0.0194675
0.0196251
0.019496
0.0195057
0.0193503
0.0190923
0.019114
0.019104
0.018902
0.0186807
0.0183914
0.01811
0.0178167
0.0175278
0.0172418
0.0167887
0.0163006
0.0159074
0.0155311
0.0151426
0.0147578
0.0143673
0.0139562
0.013569
0.0129991
0.0122403
0.0114461
0.010471
0.00955969
0.00858295
0.00744846
0.00636558
0.00499489
0.00386413
0.999991
0.999991
0.999991
0.999991
0.999991
0.999991
0.999991
0.999991
0.99999
0.99999
0.99999
0.99999
0.99999
0.99999
0.99999
0.99999
0.99999
0.99999
0.99999
0.99999
0.99999
0.99999
0.99999
0.99999
0.99999
0.99999
0.99999
0.99999
0.99999
0.99999
0.99999
0.99999
0.99999
0.99999
0.99999
0.99999
0.99999
0.99999
0.99999
0.99999
0.99999
0.99999
0.99999
0.99999
0.99999
0.99999
0.99999
0.99999
0.99999
0.99999
0.999989
0.999988
0.999983
0.999972
0.999952
0.999909
0.999878
0.999834
0.999936
0.673215
0.0161034
0.00754216
0.00710099
0.006215
0.0056661
0.00540804
0.00502431
0.00459124
0.00424115
0.00387123
0.0035673
0.00315865
0.0028005
0.00248165
0.00222716
0.00202183
0.00183623
0.00169489
0.00160899
0.00152418
0.00140294
0.00131722
0.00122861
0.00113092
0.00104878
0.000949734
0.000841526
0.000731478
0.000624065
0.00050703
0.000386572
0.000279821
0.000191096
0.000126887
8.33774e-05
4.00457e-05
0.999992
0.999991
0.999991
0.999991
0.999991
0.999991
0.999991
0.999991
0.999991
0.99999
0.99999
0.99999
0.99999
0.99999
0.99999
0.99999
0.99999
0.99999
0.99999
0.99999
0.99999
0.99999
0.99999
0.99999
0.99999
0.99999
0.99999
0.99999
0.99999
0.99999
0.99999
0.99999
0.99999
0.99999
0.99999
0.99999
0.99999
0.99999
0.99999
0.99999
0.99999
0.99999
0.99999
0.99999
0.99999
0.99999
0.99999
0.99999
0.99999
0.99999
0.999989
0.999988
0.999982
0.999969
0.999953
0.999923
0.999903
0.999777
0.999865
0.804164
0.0121792
0.000972424
0.000772362
0.000536594
0.000430347
0.000366993
0.000310631
0.000262259
0.000218748
0.000178213
0.000147639
0.000118532
9.96441e-05
8.2145e-05
6.60781e-05
5.42795e-05
4.53364e-05
3.8111e-05
3.13833e-05
2.46772e-05
1.89262e-05
1.448e-05
1.04984e-05
7.23863e-06
4.88169e-06
3.10639e-06
2.10483e-06
1.55929e-06
1.23252e-06
1.10771e-06
1.0365e-06
1.01583e-06
9.36842e-07
8.75281e-07
7.80091e-07
6.51207e-07
0.999993
0.999991
0.999991
0.999991
0.999991
0.999991
0.999991
0.999991
0.999991
0.99999
0.99999
0.99999
0.99999
0.99999
0.99999
0.99999
0.99999
0.99999
0.99999
0.99999
0.99999
0.99999
0.99999
0.99999
0.99999
0.99999
0.99999
0.99999
0.99999
0.99999
0.99999
0.99999
0.99999
0.99999
0.99999
0.99999
0.99999
0.99999
0.99999
0.99999
0.99999
0.99999
0.99999
0.99999
0.99999
0.99999
0.99999
0.99999
0.99999
0.99999
0.999989
0.999988
0.999981
0.999963
0.999944
0.999923
0.999915
0.999683
0.999748
0.906097
0.025551
6.18149e-05
1.85138e-05
1.07609e-05
8.17609e-06
6.5056e-06
5.36725e-06
4.52038e-06
3.86985e-06
3.21707e-06
2.68062e-06
2.25399e-06
1.9629e-06
1.70323e-06
1.51821e-06
1.38345e-06
1.27956e-06
1.19665e-06
1.13069e-06
1.08127e-06
1.04901e-06
1.02152e-06
9.92934e-07
9.68809e-07
9.44783e-07
9.1673e-07
8.78185e-07
8.33811e-07
7.78182e-07
7.10818e-07
6.40297e-07
5.7473e-07
5.24127e-07
4.98396e-07
4.85982e-07
4.79073e-07
0.999994
0.999992
0.999992
0.999992
0.999992
0.999991
0.999991
0.999991
0.999991
0.999991
0.99999
0.99999
0.99999
0.99999
0.99999
0.99999
0.99999
0.99999
0.99999
0.99999
0.99999
0.99999
0.99999
0.99999
0.99999
0.99999
0.99999
0.99999
0.99999
0.99999
0.99999
0.99999
0.99999
0.99999
0.99999
0.99999
0.99999
0.99999
0.99999
0.99999
0.99999
0.99999
0.99999
0.99999
0.99999
0.99999
0.99999
0.99999
0.99999
0.99999
0.999989
0.999987
0.999982
0.999967
0.999937
0.999919
0.999909
0.999597
0.999647
0.954322
0.04944
3.93116e-05
1.47248e-06
1.29719e-06
1.3263e-06
1.30904e-06
1.31768e-06
1.30157e-06
1.29547e-06
1.26808e-06
1.2401e-06
1.21271e-06
1.19349e-06
1.1668e-06
1.14234e-06
1.11892e-06
1.09662e-06
1.07366e-06
1.05185e-06
1.02853e-06
1.00438e-06
9.82859e-07
9.61648e-07
9.44442e-07
9.31826e-07
9.12952e-07
8.82748e-07
8.44392e-07
7.93252e-07
7.26571e-07
6.48837e-07
5.70655e-07
5.05114e-07
4.79148e-07
4.78964e-07
4.79571e-07
0.999994
0.999994
0.999993
0.999993
0.999993
0.999992
0.999992
0.999991
0.999991
0.999991
0.99999
0.99999
0.99999
0.99999
0.99999
0.99999
0.99999
0.99999
0.99999
0.99999
0.99999
0.99999
0.99999
0.99999
0.99999
0.99999
0.99999
0.99999
0.99999
0.99999
0.99999
0.99999
0.99999
0.99999
0.99999
0.99999
0.99999
0.99999
0.99999
0.99999
0.99999
0.99999
0.99999
0.99999
0.99999
0.99999
0.99999
0.99999
0.99999
0.99999
0.999989
0.999987
0.999983
0.999973
0.99995
0.999925
0.999882
0.999505
0.999502
0.966329
0.0532835
5.9164e-05
1.31846e-06
1.24538e-06
1.22569e-06
1.21285e-06
1.2123e-06
1.18571e-06
1.18362e-06
1.1629e-06
1.15445e-06
1.13482e-06
1.1246e-06
1.10866e-06
1.09417e-06
1.07719e-06
1.05845e-06
1.03877e-06
1.01627e-06
9.94084e-07
9.7466e-07
9.55103e-07
9.36482e-07
9.23877e-07
9.14393e-07
9.04797e-07
8.8476e-07
8.45496e-07
7.92299e-07
7.2824e-07
6.51334e-07
5.6886e-07
5.00291e-07
4.75754e-07
4.78966e-07
4.79297e-07
0.999995
0.999994
0.999994
0.999994
0.999993
0.999993
0.999992
0.999992
0.999991
0.999991
0.99999
0.99999
0.99999
0.99999
0.99999
0.99999
0.99999
0.99999
0.99999
0.99999
0.99999
0.99999
0.99999
0.99999
0.99999
0.99999
0.99999
0.99999
0.99999
0.99999
0.99999
0.99999
0.99999
0.99999
0.99999
0.99999
0.99999
0.99999
0.99999
0.99999
0.99999
0.99999
0.99999
0.99999
0.99999
0.99999
0.99999
0.99999
0.99999
0.99999
0.999989
0.999986
0.999982
0.999975
0.999961
0.999941
0.999828
0.999407
0.999429
0.957901
0.0460252
3.03562e-05
1.20839e-06
1.19589e-06
1.19427e-06
1.17288e-06
1.17303e-06
1.15002e-06
1.14147e-06
1.12143e-06
1.1073e-06
1.08898e-06
1.07314e-06
1.05715e-06
1.04229e-06
1.02691e-06
1.01192e-06
9.95988e-07
9.78381e-07
9.62649e-07
9.46786e-07
9.30282e-07
9.17216e-07
9.06762e-07
8.99307e-07
8.93786e-07
8.81407e-07
8.46095e-07
7.85951e-07
7.20098e-07
6.45015e-07
5.65466e-07
4.97775e-07
4.75719e-07
4.79038e-07
4.79326e-07
0.999996
0.999995
0.999995
0.999994
0.999994
0.999993
0.999993
0.999992
0.999992
0.999991
0.99999
0.99999
0.99999
0.99999
0.99999
0.99999
0.99999
0.99999
0.99999
0.99999
0.99999
0.99999
0.99999
0.99999
0.99999
0.99999
0.99999
0.99999
0.99999
0.99999
0.99999
0.99999
0.99999
0.99999
0.99999
0.99999
0.99999
0.99999
0.99999
0.99999
0.99999
0.99999
0.99999
0.99999
0.99999
0.99999
0.99999
0.99999
0.99999
0.99999
0.999989
0.999986
0.999981
0.999972
0.999962
0.999942
0.999739
0.999296
0.99892
0.954808
0.0421581
8.78847e-05
1.19802e-06
1.18159e-06
1.17352e-06
1.13786e-06
1.13331e-06
1.1103e-06
1.0964e-06
1.07814e-06
1.06175e-06
1.04377e-06
1.03069e-06
1.01321e-06
1.00131e-06
9.8777e-07
9.74388e-07
9.63298e-07
9.51815e-07
9.39103e-07
9.28076e-07
9.17717e-07
9.07807e-07
8.99837e-07
8.9496e-07
8.92846e-07
8.81519e-07
8.48161e-07
7.87363e-07
7.18193e-07
6.43886e-07
5.65137e-07
4.98011e-07
4.7598e-07
4.79146e-07
4.79461e-07
0.999997
0.999996
0.999995
0.999995
0.999994
0.999994
0.999993
0.999992
0.999992
0.999991
0.99999
0.99999
0.99999
0.99999
0.99999
0.99999
0.99999
0.99999
0.99999
0.99999
0.99999
0.99999
0.99999
0.99999
0.99999
0.99999
0.99999
0.99999
0.99999
0.99999
0.99999
0.99999
0.99999
0.99999
0.99999
0.99999
0.99999
0.99999
0.99999
0.99999
0.99999
0.99999
0.99999
0.99999
0.99999
0.99999
0.99999
0.99999
0.99999
0.99999
0.999989
0.999986
0.999981
0.999973
0.999963
0.999903
0.999816
0.99937
0.99922
0.949822
0.0462948
0.000308626
1.56282e-06
1.11424e-06
1.1137e-06
1.08502e-06
1.08351e-06
1.06499e-06
1.05655e-06
1.03938e-06
1.03159e-06
1.01494e-06
1.00596e-06
9.92077e-07
9.82295e-07
9.69962e-07
9.58736e-07
9.49032e-07
9.38487e-07
9.2773e-07
9.19802e-07
9.11438e-07
9.03147e-07
8.9659e-07
8.92908e-07
8.93685e-07
8.88871e-07
8.5602e-07
7.89011e-07
7.21227e-07
6.4696e-07
5.68996e-07
5.01352e-07
4.76107e-07
4.79362e-07
4.79626e-07
0.99999
0.99999
0.99999
0.99999
0.99999
0.99999
0.99999
0.99999
0.99999
0.99999
0.99999
0.99999
0.99999
0.99999
0.99999
0.99999
0.99999
0.99999
0.99999
0.99999
0.99999
0.99999
0.99999
0.99999
0.99999
0.99999
0.99999
0.99999
0.99999
0.99999
0.99999
0.99999
0.99999
0.99999
0.99999
0.99999
0.99999
0.99999
0.99999
0.99999
0.99999
0.99999
0.99999
0.99999
0.99999
0.99999
0.99999
0.99999
0.99999
0.99999
0.99999
0.999987
0.999981
0.999966
0.999953
0.999924
0.999855
0.999309
0.99729
0.938218
0.0539089
0.000404503
1.79142e-06
1.33373e-06
1.32889e-06
1.29451e-06
1.29512e-06
1.26664e-06
1.2622e-06
1.23898e-06
1.22976e-06
1.21046e-06
1.19842e-06
1.18125e-06
1.16686e-06
1.15214e-06
1.13825e-06
1.12366e-06
1.10994e-06
1.09629e-06
1.08192e-06
1.06854e-06
1.05535e-06
1.04249e-06
1.03016e-06
1.01854e-06
1.00721e-06
9.94708e-07
9.74149e-07
9.25191e-07
8.18147e-07
6.76044e-07
5.518e-07
4.81949e-07
4.83288e-07
4.82676e-07
0.999991
0.999991
0.99999
0.99999
0.99999
0.99999
0.99999
0.99999
0.99999
0.99999
0.99999
0.99999
0.99999
0.99999
0.99999
0.99999
0.99999
0.99999
0.99999
0.99999
0.99999
0.99999
0.99999
0.99999
0.99999
0.99999
0.99999
0.99999
0.99999
0.99999
0.99999
0.99999
0.99999
0.99999
0.99999
0.99999
0.99999
0.99999
0.99999
0.99999
0.99999
0.99999
0.99999
0.99999
0.99999
0.99999
0.99999
0.99999
0.99999
0.99999
0.999989
0.999987
0.999981
0.999967
0.999957
0.999928
0.999834
0.999367
0.998221
0.944838
0.0474602
0.000148505
1.38851e-06
1.35149e-06
1.33645e-06
1.29459e-06
1.29569e-06
1.26801e-06
1.2632e-06
1.2413e-06
1.23085e-06
1.21233e-06
1.2004e-06
1.18323e-06
1.16842e-06
1.15416e-06
1.1398e-06
1.12382e-06
1.11066e-06
1.09675e-06
1.08166e-06
1.06933e-06
1.0559e-06
1.04179e-06
1.02988e-06
1.01718e-06
1.00397e-06
9.91768e-07
9.72418e-07
9.32226e-07
8.46319e-07
7.15073e-07
5.809e-07
4.93521e-07
4.93713e-07
4.92835e-07
0.999991
0.999991
0.999991
0.999991
0.99999
0.99999
0.99999
0.99999
0.99999
0.99999
0.99999
0.99999
0.99999
0.99999
0.99999
0.99999
0.99999
0.99999
0.99999
0.99999
0.99999
0.99999
0.99999
0.99999
0.99999
0.99999
0.99999
0.99999
0.99999
0.99999
0.99999
0.99999
0.99999
0.99999
0.99999
0.99999
0.99999
0.99999
0.99999
0.99999
0.99999
0.99999
0.99999
0.99999
0.99999
0.99999
0.99999
0.99999
0.99999
0.99999
0.999989
0.999987
0.999982
0.999969
0.999957
0.99991
0.99988
0.999551
0.999131
0.944959
0.0388005
1.11396e-05
1.51227e-06
1.42269e-06
1.3743e-06
1.32731e-06
1.32536e-06
1.29582e-06
1.29094e-06
1.26507e-06
1.2532e-06
1.22913e-06
1.21445e-06
1.19514e-06
1.18003e-06
1.16474e-06
1.151e-06
1.13686e-06
1.12244e-06
1.10674e-06
1.09092e-06
1.07657e-06
1.06174e-06
1.04667e-06
1.03233e-06
1.019e-06
1.00646e-06
9.9275e-07
9.73246e-07
9.38523e-07
8.6602e-07
7.53862e-07
6.2559e-07
5.26453e-07
5.10003e-07
5.02898e-07
0.999991
0.999991
0.999991
0.999991
0.999991
0.99999
0.99999
0.99999
0.99999
0.99999
0.99999
0.99999
0.99999
0.99999
0.99999
0.99999
0.99999
0.99999
0.99999
0.99999
0.99999
0.99999
0.99999
0.99999
0.99999
0.99999
0.99999
0.99999
0.99999
0.99999
0.99999
0.99999
0.99999
0.99999
0.99999
0.99999
0.99999
0.99999
0.99999
0.99999
0.99999
0.99999
0.99999
0.99999
0.99999
0.99999
0.99999
0.99999
0.99999
0.99999
0.999988
0.999986
0.999981
0.999969
0.999944
0.999881
0.999891
0.999621
0.999622
0.937507
0.0344955
3.13806e-06
5.97687e-06
2.57611e-06
2.46329e-06
2.07736e-06
1.9539e-06
1.72547e-06
1.59612e-06
1.47218e-06
1.42103e-06
1.36614e-06
1.34955e-06
1.32186e-06
1.30333e-06
1.27942e-06
1.25025e-06
1.20967e-06
1.1728e-06
1.14618e-06
1.11972e-06
1.09547e-06
1.07884e-06
1.06304e-06
1.04729e-06
1.03061e-06
1.01441e-06
9.94885e-07
9.6898e-07
9.26844e-07
8.6476e-07
7.75216e-07
6.62881e-07
5.60016e-07
5.26422e-07
5.06335e-07
0.999991
0.999991
0.999991
0.999991
0.999991
0.999991
0.999991
0.99999
0.99999
0.99999
0.99999
0.99999
0.99999
0.99999
0.99999
0.99999
0.99999
0.99999
0.99999
0.99999
0.99999
0.99999
0.99999
0.99999
0.99999
0.99999
0.99999
0.99999
0.99999
0.99999
0.99999
0.99999
0.99999
0.99999
0.99999
0.99999
0.99999
0.99999
0.99999
0.99999
0.99999
0.99999
0.99999
0.99999
0.99999
0.99999
0.99999
0.99999
0.99999
0.99999
0.999986
0.99998
0.999975
0.999964
0.999909
0.999846
0.999803
0.999784
0.999833
0.882206
0.0154338
0.000353847
0.000291993
0.0001711
0.000145537
0.000130594
0.000122835
0.000114473
0.000103671
8.93617e-05
8.0098e-05
6.90232e-05
5.98914e-05
5.02611e-05
4.19981e-05
3.29384e-05
2.46459e-05
1.67933e-05
1.13374e-05
7.36365e-06
4.7757e-06
3.12958e-06
2.14733e-06
1.59794e-06
1.33626e-06
1.16735e-06
1.05183e-06
9.75569e-07
9.12783e-07
8.69003e-07
8.27808e-07
7.7665e-07
6.89856e-07
5.88201e-07
5.3584e-07
5.08139e-07
0.999991
0.999991
0.999991
0.999991
0.999991
0.999991
0.999991
0.999991
0.99999
0.99999
0.99999
0.99999
0.99999
0.99999
0.99999
0.99999
0.99999
0.99999
0.99999
0.99999
0.99999
0.99999
0.99999
0.99999
0.99999
0.99999
0.99999
0.99999
0.99999
0.99999
0.99999
0.99999
0.99999
0.99999
0.99999
0.99999
0.99999
0.99999
0.99999
0.99999
0.99999
0.99999
0.99999
0.99999
0.99999
0.99999
0.99999
0.99999
0.99999
0.999989
0.999985
0.99998
0.999974
0.999953
0.999867
0.999847
0.999857
0.999902
0.999951
0.744977
0.0164278
0.00749747
0.00726428
0.00633901
0.00612373
0.00582664
0.00555914
0.00546166
0.00535262
0.00533131
0.00528906
0.00519041
0.00493287
0.00459254
0.00427058
0.00388325
0.00357467
0.00298691
0.00244638
0.00196126
0.00148357
0.00112092
0.000809291
0.000547086
0.000360073
0.000222734
0.000126297
6.91364e-05
3.49242e-05
1.62579e-05
6.4354e-06
2.98489e-06
1.51913e-06
9.11169e-07
6.15449e-07
5.14612e-07
0.999991
0.999991
0.999991
0.999991
0.999991
0.999991
0.999991
0.999991
0.99999
0.99999
0.99999
0.99999
0.99999
0.99999
0.99999
0.99999
0.99999
0.99999
0.99999
0.99999
0.99999
0.99999
0.99999
0.99999
0.99999
0.99999
0.99999
0.99999
0.99999
0.99999
0.99999
0.99999
0.99999
0.99999
0.99999
0.99999
0.99999
0.99999
0.99999
0.99999
0.99999
0.99999
0.99999
0.99999
0.99999
0.99999
0.99999
0.99999
0.99999
0.99999
0.999989
0.999985
0.99998
0.999971
0.999895
0.99982
0.999807
0.99984
0.99993
0.570292
0.0377912
0.0318452
0.033373
0.0334578
0.0337226
0.0340125
0.034297
0.0348277
0.0352456
0.0356376
0.0362224
0.0367099
0.0369308
0.0370809
0.0370003
0.0369124
0.0365448
0.0357525
0.0346442
0.0331884
0.0312988
0.0289811
0.0264294
0.0235052
0.0201569
0.0171031
0.0142207
0.0114551
0.00905782
0.00689406
0.00464662
0.00280444
0.00159291
0.000896674
0.000649747
0.000768362
0.999992
0.999992
0.999992
0.999991
0.999991
0.999991
0.999991
0.999991
0.999991
0.99999
0.99999
0.99999
0.99999
0.99999
0.99999
0.99999
0.99999
0.99999
0.99999
0.99999
0.99999
0.99999
0.99999
0.99999
0.99999
0.99999
0.99999
0.99999
0.99999
0.99999
0.99999
0.99999
0.99999
0.99999
0.99999
0.99999
0.99999
0.99999
0.99999
0.99999
0.99999
0.99999
0.99999
0.99999
0.99999
0.99999
0.99999
0.99999
0.99999
0.99999
0.999989
0.999987
0.999984
0.999973
0.999932
0.999843
0.999817
0.999825
0.999681
0.548337
0.0467267
0.0413996
0.0430003
0.0436525
0.0447598
0.0458946
0.0469031
0.048184
0.0495232
0.0510161
0.0527629
0.0547657
0.0569674
0.0594014
0.0621541
0.0652818
0.0686821
0.0724057
0.0764148
0.080683
0.0851823
0.0898645
0.0946565
0.0995807
0.104621
0.109748
0.115146
0.120813
0.126855
0.133364
0.140674
0.1495
0.161434
0.180953
0.225759
0.413746
0.999992
0.999992
0.999992
0.999992
0.999992
0.999991
0.999991
0.999991
0.999991
0.99999
0.99999
0.99999
0.99999
0.99999
0.99999
0.99999
0.99999
0.99999
0.99999
0.99999
0.99999
0.99999
0.99999
0.99999
0.99999
0.99999
0.99999
0.99999
0.99999
0.99999
0.99999
0.99999
0.99999
0.99999
0.99999
0.99999
0.99999
0.99999
0.99999
0.99999
0.99999
0.99999
0.99999
0.99999
0.99999
0.99999
0.99999
0.99999
0.99999
0.99999
0.999989
0.999987
0.999984
0.999969
0.999943
0.999887
0.999834
0.999827
0.999903
0.735638
0.0207844
0.00722279
0.0060436
0.00458803
0.00402902
0.00367158
0.00348999
0.00333414
0.00316187
0.00298551
0.00285478
0.00276462
0.00273004
0.00276961
0.0029023
0.00307527
0.00336137
0.00364481
0.00383255
0.00404976
0.00436499
0.00468661
0.00495096
0.0051546
0.00539604
0.00562298
0.00568842
0.0057621
0.00584835
0.00580225
0.00551002
0.00499371
0.00415141
0.00307861
0.00205307
0.0013737
0.999993
0.999992
0.999992
0.999992
0.999992
0.999992
0.999991
0.999991
0.999991
0.999991
0.99999
0.99999
0.99999
0.99999
0.99999
0.99999
0.99999
0.99999
0.99999
0.99999
0.99999
0.99999
0.99999
0.99999
0.99999
0.99999
0.99999
0.99999
0.99999
0.99999
0.99999
0.99999
0.99999
0.99999
0.99999
0.99999
0.99999
0.99999
0.99999
0.99999
0.99999
0.99999
0.99999
0.99999
0.99999
0.99999
0.99999
0.99999
0.99999
0.99999
0.999989
0.999987
0.999983
0.999971
0.999946
0.999898
0.999853
0.999775
0.999889
0.862829
0.0110107
0.000303745
0.000225129
0.000130514
0.00011257
0.000100683
8.99368e-05
8.11034e-05
7.81036e-05
7.56134e-05
7.71504e-05
7.64596e-05
7.16731e-05
7.1576e-05
6.93784e-05
6.40222e-05
6.17397e-05
5.92742e-05
5.56528e-05
5.39707e-05
5.40302e-05
5.40572e-05
5.12411e-05
4.49597e-05
4.00297e-05
3.63244e-05
3.22102e-05
2.85776e-05
2.5068e-05
2.14818e-05
1.70773e-05
1.16422e-05
6.9069e-06
3.58139e-06
1.47718e-06
5.37297e-07
0.999993
0.999993
0.999992
0.999993
0.999992
0.999992
0.999992
0.999991
0.999991
0.999991
0.99999
0.99999
0.99999
0.99999
0.99999
0.99999
0.99999
0.99999
0.99999
0.99999
0.99999
0.99999
0.99999
0.99999
0.99999
0.99999
0.99999
0.99999
0.99999
0.99999
0.99999
0.99999
0.99999
0.99999
0.99999
0.99999
0.99999
0.99999
0.99999
0.99999
0.99999
0.99999
0.99999
0.99999
0.99999
0.99999
0.99999
0.99999
0.99999
0.99999
0.999989
0.999987
0.999982
0.99997
0.999948
0.999919
0.999877
0.999649
0.999768
0.933921
0.0401386
5.64834e-06
7.3071e-06
3.30934e-06
3.09448e-06
2.80848e-06
2.71028e-06
2.50126e-06
2.40059e-06
2.26087e-06
2.16963e-06
2.06461e-06
1.97133e-06
1.85257e-06
1.7341e-06
1.63292e-06
1.52685e-06
1.43843e-06
1.35931e-06
1.30077e-06
1.25235e-06
1.19126e-06
1.10244e-06
1.04938e-06
1.0062e-06
9.69754e-07
9.39749e-07
9.06314e-07
8.57077e-07
7.89238e-07
7.04425e-07
6.12098e-07
5.35906e-07
5.09306e-07
4.95943e-07
4.82761e-07
0.999994
0.999993
0.999993
0.999993
0.999993
0.999992
0.999992
0.999991
0.999991
0.999991
0.99999
0.99999
0.99999
0.99999
0.99999
0.99999
0.99999
0.99999
0.99999
0.99999
0.99999
0.99999
0.99999
0.99999
0.99999
0.99999
0.99999
0.99999
0.99999
0.99999
0.99999
0.99999
0.99999
0.99999
0.99999
0.99999
0.99999
0.99999
0.99999
0.99999
0.99999
0.99999
0.99999
0.99999
0.99999
0.99999
0.99999
0.99999
0.99999
0.99999
0.999989
0.999987
0.999982
0.999972
0.99995
0.999923
0.999898
0.999567
0.999594
0.955342
0.0400847
4.86224e-06
1.47661e-06
1.19613e-06
1.31613e-06
1.31919e-06
1.32521e-06
1.30423e-06
1.29966e-06
1.27049e-06
1.24593e-06
1.21355e-06
1.18969e-06
1.163e-06
1.14209e-06
1.11993e-06
1.09943e-06
1.07683e-06
1.04973e-06
1.02029e-06
9.94623e-07
9.68304e-07
9.44831e-07
9.27415e-07
9.14647e-07
9.04534e-07
8.9297e-07
8.71799e-07
8.31509e-07
7.63754e-07
6.71706e-07
5.74329e-07
5.02257e-07
4.80166e-07
4.793e-07
4.79727e-07
0.999995
0.999994
0.999994
0.999994
0.999993
0.999993
0.999992
0.999992
0.999991
0.999991
0.99999
0.99999
0.99999
0.99999
0.99999
0.99999
0.99999
0.99999
0.99999
0.99999
0.99999
0.99999
0.99999
0.99999
0.99999
0.99999
0.99999
0.99999
0.99999
0.99999
0.99999
0.99999
0.99999
0.99999
0.99999
0.99999
0.99999
0.99999
0.99999
0.99999
0.99999
0.99999
0.99999
0.99999
0.99999
0.99999
0.99999
0.99999
0.99999
0.99999
0.999989
0.999986
0.999982
0.999974
0.999962
0.999935
0.999859
0.999491
0.999206
0.962423
0.0518977
2.14997e-05
1.35892e-06
1.23858e-06
1.24111e-06
1.25352e-06
1.26827e-06
1.25157e-06
1.24359e-06
1.21534e-06
1.18995e-06
1.16261e-06
1.1393e-06
1.11608e-06
1.09523e-06
1.07305e-06
1.05108e-06
1.02828e-06
1.00476e-06
9.82143e-07
9.60173e-07
9.39486e-07
9.2225e-07
9.0807e-07
8.9847e-07
8.91688e-07
8.81412e-07
8.59935e-07
8.19295e-07
7.55313e-07
6.65108e-07
5.68844e-07
4.96792e-07
4.75966e-07
4.78868e-07
4.79477e-07
0.999995
0.999995
0.999995
0.999994
0.999993
0.999993
0.999992
0.999992
0.999992
0.999991
0.99999
0.99999
0.99999
0.99999
0.99999
0.99999
0.99999
0.99999
0.99999
0.99999
0.99999
0.99999
0.99999
0.99999
0.99999
0.99999
0.99999
0.99999
0.99999
0.99999
0.99999
0.99999
0.99999
0.99999
0.99999
0.99999
0.99999
0.99999
0.99999
0.99999
0.99999
0.99999
0.99999
0.99999
0.99999
0.99999
0.99999
0.99999
0.99999
0.99999
0.999989
0.999986
0.999981
0.999973
0.999963
0.999945
0.999808
0.999396
0.999008
0.955953
0.0531033
2.33638e-05
1.28656e-06
1.2634e-06
1.23892e-06
1.20919e-06
1.2108e-06
1.18482e-06
1.17823e-06
1.1493e-06
1.13347e-06
1.10608e-06
1.08758e-06
1.06389e-06
1.04445e-06
1.025e-06
1.00701e-06
9.89838e-07
9.7245e-07
9.55154e-07
9.38425e-07
9.23362e-07
9.09707e-07
8.98709e-07
8.90926e-07
8.84802e-07
8.76484e-07
8.54616e-07
8.09558e-07
7.41423e-07
6.53504e-07
5.6534e-07
4.97103e-07
4.76538e-07
4.79139e-07
4.79743e-07
0.999996
0.999995
0.999995
0.999994
0.999994
0.999993
0.999992
0.999992
0.999992
0.999991
0.99999
0.99999
0.99999
0.99999
0.99999
0.99999
0.99999
0.99999
0.99999
0.99999
0.99999
0.99999
0.99999
0.99999
0.99999
0.99999
0.99999
0.99999
0.99999
0.99999
0.99999
0.99999
0.99999
0.99999
0.99999
0.99999
0.99999
0.99999
0.99999
0.99999
0.99999
0.99999
0.99999
0.99999
0.99999
0.99999
0.99999
0.99999
0.99999
0.99999
0.999989
0.999986
0.999981
0.999972
0.99996
0.999938
0.999743
0.999264
0.998318
0.947871
0.0577047
0.000175344
1.20706e-06
1.17008e-06
1.15228e-06
1.11252e-06
1.10801e-06
1.08198e-06
1.08067e-06
1.06023e-06
1.05376e-06
1.03591e-06
1.02633e-06
1.01048e-06
9.981e-07
9.83472e-07
9.69367e-07
9.57738e-07
9.45281e-07
9.31515e-07
9.20533e-07
9.09763e-07
8.99824e-07
8.91589e-07
8.85494e-07
8.82569e-07
8.75262e-07
8.52919e-07
8.02224e-07
7.27767e-07
6.43482e-07
5.61022e-07
4.94939e-07
4.76066e-07
4.79077e-07
4.79656e-07
0.999997
0.999996
0.999996
0.999995
0.999994
0.999994
0.999993
0.999993
0.999992
0.999991
0.99999
0.99999
0.99999
0.99999
0.99999
0.99999
0.99999
0.99999
0.99999
0.99999
0.99999
0.99999
0.99999
0.99999
0.99999
0.99999
0.99999
0.99999
0.99999
0.99999
0.99999
0.99999
0.99999
0.99999
0.99999
0.99999
0.99999
0.99999
0.99999
0.99999
0.99999
0.99999
0.99999
0.99999
0.99999
0.99999
0.99999
0.99999
0.99999
0.99999
0.999989
0.999986
0.999981
0.999974
0.999965
0.999924
0.999803
0.999198
0.997561
0.943556
0.0644825
0.000618372
2.12717e-06
1.10432e-06
1.10363e-06
1.07341e-06
1.07608e-06
1.05405e-06
1.04984e-06
1.0305e-06
1.0235e-06
1.00723e-06
9.98711e-07
9.84732e-07
9.73063e-07
9.61668e-07
9.51998e-07
9.40789e-07
9.30543e-07
9.21761e-07
9.1261e-07
9.03305e-07
8.9667e-07
8.905e-07
8.86067e-07
8.85415e-07
8.80732e-07
8.57761e-07
8.01003e-07
7.23302e-07
6.46417e-07
5.67934e-07
4.98547e-07