/*--------------------------------*- C++ -*----------------------------------*\
| =========                 |                                                 |
| \\      /  F ield         | OpenFOAM: The Open Source CFD Toolbox           |
|  \\    /   O peration     | Version:  2.3.0                                 |
|   \\  /    A nd           | Web:      www.OpenFOAM.org                      |
|    \\/     M anipulation  |                                                 |
\*---------------------------------------------------------------------------*/
FoamFile
{
    version     2.0;
    format      ascii;
    class       volScalarField;
    location    "13";
    object      alpha.air;
}
// * * * * * * * * * * * * * * * * * * * * * * * * * * * * * * * * * * * * * //

dimensions      [0 0 0 0 0 0 0];

internalField   nonuniform List<scalar> 
6144
(
0.999991
0.999991
0.99999
0.99999
0.99999
0.99999
0.99999
0.99999
0.99999
0.99999
0.99999
0.99999
0.99999
0.99999
0.99999
0.99999
0.99999
0.99999
0.99999
0.99999
0.99999
0.99999
0.99999
0.99999
0.99999
0.99999
0.99999
0.99999
0.99999
0.99999
0.99999
0.99999
0.99999
0.99999
0.99999
0.99999
0.99999
0.99999
0.99999
0.99999
0.99999
0.99999
0.99999
0.99999
0.99999
0.99999
0.99999
0.99999
0.99999
0.99999
0.99999
0.999989
0.999976
0.999944
0.999933
0.999882
0.999803
0.999279
0.997682
0.939826
0.0399524
0.000235188
8.64693e-07
7.51642e-07
7.5199e-07
7.49693e-07
7.48435e-07
7.49002e-07
7.50538e-07
7.5201e-07
7.52573e-07
7.52727e-07
7.52758e-07
7.52809e-07
7.52812e-07
7.53014e-07
7.53097e-07
7.52746e-07
7.53152e-07
7.54332e-07
7.54241e-07
7.54095e-07
7.54785e-07
7.5818e-07
7.64272e-07
7.70831e-07
7.74838e-07
7.76032e-07
7.59309e-07
6.12586e-07
2.77732e-07
2.24831e-07
2.25514e-07
2.25853e-07
2.27118e-07
2.2612e-07
0.999991
0.999991
0.999991
0.999991
0.99999
0.99999
0.99999
0.99999
0.99999
0.99999
0.99999
0.99999
0.99999
0.99999
0.99999
0.99999
0.99999
0.99999
0.99999
0.99999
0.99999
0.99999
0.99999
0.99999
0.99999
0.99999
0.99999
0.99999
0.99999
0.99999
0.99999
0.99999
0.99999
0.99999
0.99999
0.99999
0.99999
0.99999
0.99999
0.99999
0.99999
0.99999
0.99999
0.99999
0.99999
0.99999
0.99999
0.99999
0.99999
0.99999
0.999988
0.999984
0.999977
0.999952
0.999938
0.999888
0.999792
0.999182
0.998043
0.942397
0.0352121
5.75358e-05
7.52913e-07
7.75277e-07
7.70977e-07
7.64828e-07
7.611e-07
7.58348e-07
7.56057e-07
7.54389e-07
7.5336e-07
7.52388e-07
7.51701e-07
7.50718e-07
7.50115e-07
7.51325e-07
7.54064e-07
7.53736e-07
7.5051e-07
7.50331e-07
7.50401e-07
7.53674e-07
7.6509e-07
7.79397e-07
7.82032e-07
7.80887e-07
7.78879e-07
7.69911e-07
7.2832e-07
5.63025e-07
2.80891e-07
2.3598e-07
2.49511e-07
2.61291e-07
2.82357e-07
2.93556e-07
0.999992
0.999992
0.999991
0.999991
0.99999
0.99999
0.99999
0.99999
0.99999
0.99999
0.99999
0.99999
0.99999
0.99999
0.99999
0.99999
0.99999
0.99999
0.99999
0.99999
0.99999
0.99999
0.99999
0.99999
0.99999
0.99999
0.99999
0.99999
0.99999
0.99999
0.99999
0.99999
0.99999
0.99999
0.99999
0.99999
0.99999
0.99999
0.99999
0.99999
0.99999
0.99999
0.99999
0.99999
0.99999
0.99999
0.99999
0.99999
0.99999
0.999989
0.999987
0.999983
0.999979
0.999964
0.999929
0.999864
0.999833
0.999329
0.998951
0.938838
0.0457744
1.10935e-06
7.56295e-07
7.55237e-07
7.52904e-07
7.5867e-07
7.65763e-07
7.68754e-07
7.70321e-07
7.723e-07
7.74753e-07
7.7535e-07
7.74936e-07
7.73023e-07
7.6853e-07
7.62835e-07
7.5641e-07
7.56379e-07
7.63836e-07
7.67122e-07
7.65341e-07
7.65003e-07
7.65257e-07
7.67444e-07
7.69237e-07
7.6983e-07
7.64391e-07
7.36966e-07
6.53875e-07
4.50423e-07
2.66362e-07
2.62857e-07
2.87708e-07
3.00379e-07
3.16553e-07
3.21582e-07
0.999992
0.999992
0.999991
0.999991
0.999991
0.999991
0.99999
0.99999
0.99999
0.99999
0.99999
0.99999
0.99999
0.99999
0.99999
0.99999
0.99999
0.99999
0.99999
0.99999
0.99999
0.99999
0.99999
0.99999
0.99999
0.99999
0.99999
0.99999
0.99999
0.99999
0.99999
0.99999
0.99999
0.99999
0.99999
0.99999
0.99999
0.99999
0.99999
0.99999
0.99999
0.99999
0.99999
0.99999
0.99999
0.99999
0.99999
0.99999
0.99999
0.999989
0.999987
0.999984
0.999981
0.999964
0.999913
0.999849
0.999865
0.999483
0.999621
0.938075
0.0519281
7.82842e-07
1.13037e-06
8.35366e-07
7.17862e-07
7.12835e-07
7.51278e-07
7.61853e-07
7.63968e-07
7.67773e-07
7.73735e-07
7.81154e-07
7.83021e-07
7.80375e-07
7.77812e-07
7.76524e-07
7.67864e-07
7.62987e-07
7.60139e-07
7.52779e-07
7.40165e-07
7.21002e-07
7.07031e-07
7.03271e-07
7.05968e-07
7.05245e-07
6.63207e-07
5.98387e-07
4.80876e-07
3.40906e-07
2.868e-07
3.01273e-07
3.14509e-07
3.24925e-07
3.35047e-07
3.29594e-07
0.999993
0.999993
0.999992
0.999992
0.999991
0.999991
0.999991
0.999991
0.99999
0.99999
0.99999
0.99999
0.99999
0.99999
0.99999
0.99999
0.99999
0.99999
0.99999
0.99999
0.99999
0.99999
0.99999
0.99999
0.99999
0.99999
0.99999
0.99999
0.99999
0.99999
0.99999
0.99999
0.99999
0.99999
0.99999
0.99999
0.99999
0.99999
0.99999
0.99999
0.99999
0.99999
0.99999
0.99999
0.99999
0.99999
0.99999
0.99999
0.99999
0.999989
0.999987
0.999985
0.999983
0.999968
0.999925
0.999827
0.999813
0.999629
0.999857
0.842026
0.0126434
5.49528e-05
1.73558e-05
2.25159e-06
1.05667e-06
7.20107e-07
6.92864e-07
6.92886e-07
6.92915e-07
6.92948e-07
6.93095e-07
6.93244e-07
6.93403e-07
6.93566e-07
6.93713e-07
6.93854e-07
6.93948e-07
6.9398e-07
6.94014e-07
8.1421e-07
8.6235e-07
7.52662e-07
6.08877e-07
5.24081e-07
4.75451e-07
4.47307e-07
4.15911e-07
3.77725e-07
3.46267e-07
3.25786e-07
3.21979e-07
3.4027e-07
3.48824e-07
3.58237e-07
3.63017e-07
3.3635e-07
0.999994
0.999994
0.999993
0.999993
0.999992
0.999992
0.999991
0.999991
0.999991
0.99999
0.99999
0.99999
0.99999
0.99999
0.99999
0.99999
0.99999
0.99999
0.99999
0.99999
0.99999
0.99999
0.99999
0.99999
0.99999
0.99999
0.99999
0.99999
0.99999
0.99999
0.99999
0.99999
0.99999
0.99999
0.99999
0.99999
0.99999
0.99999
0.99999
0.99999
0.99999
0.99999
0.99999
0.99999
0.99999
0.99999
0.99999
0.99999
0.99999
0.999989
0.999988
0.999986
0.999983
0.999978
0.999913
0.999815
0.999819
0.999752
0.99999
0.689729
0.0101118
0.00195784
0.00117725
0.000599028
0.000401478
0.000252607
0.000174508
0.000151374
0.000141709
0.000141082
0.000150984
0.000159815
0.000163637
0.000162443
0.000159424
0.000159003
0.000153829
0.000157311
0.00016156
0.00014637
0.000123723
9.63318e-05
6.30148e-05
3.73496e-05
2.20806e-05
1.13835e-05
4.81791e-06
2.05518e-06
1.19094e-06
8.2777e-07
2.86883e-07
2.40011e-07
3.26011e-07
3.45621e-07
3.38772e-07
2.66982e-07
0.999994
0.999994
0.999994
0.999994
0.999993
0.999993
0.999992
0.999991
0.999991
0.999991
0.99999
0.99999
0.99999
0.99999
0.99999
0.99999
0.99999
0.99999
0.99999
0.99999
0.99999
0.99999
0.99999
0.99999
0.99999
0.99999
0.99999
0.99999
0.99999
0.99999
0.99999
0.99999
0.99999
0.99999
0.99999
0.99999
0.99999
0.99999
0.99999
0.99999
0.99999
0.99999
0.99999
0.99999
0.99999
0.99999
0.99999
0.99999
0.99999
0.999989
0.999988
0.999986
0.999983
0.999974
0.999917
0.999788
0.999777
0.999779
0.99999
0.467294
0.0150081
0.0121611
0.0110548
0.0104263
0.0101975
0.00749897
0.00505299
0.0048353
0.00615692
0.00699437
0.00637155
0.006482
0.00656745
0.00575763
0.00637454
0.006961
0.00629143
0.00606186
0.00588972
0.00533743
0.00529224
0.00505776
0.00449931
0.00411523
0.0038836
0.00347708
0.00268393
0.00188905
0.00127883
0.000725829
0.000260532
5.8537e-05
2.83143e-06
2.41854e-07
2.41854e-07
5.34749e-06
0.999994
0.999994
0.999994
0.999995
0.999994
0.999993
0.999992
0.999992
0.999991
0.999991
0.99999
0.99999
0.99999
0.99999
0.99999
0.99999
0.99999
0.99999
0.99999
0.99999
0.99999
0.99999
0.99999
0.99999
0.99999
0.99999
0.99999
0.99999
0.99999
0.99999
0.99999
0.99999
0.99999
0.99999
0.99999
0.99999
0.99999
0.99999
0.99999
0.99999
0.99999
0.99999
0.99999
0.99999
0.99999
0.99999
0.99999
0.99999
0.99999
0.999989
0.999988
0.999986
0.999981
0.999962
0.99992
0.999791
0.999784
0.999785
0.99999
0.424731
0.0266138
0.0247398
0.0251019
0.0253268
0.0254926
0.0255589
0.0255423
0.0255498
0.0258729
0.0259869
0.0253892
0.0248409
0.0245772
0.0247452
0.0264827
0.0285259
0.0293368
0.029381
0.0275673
0.0268307
0.0267697
0.0265704
0.0264019
0.0263921
0.0265092
0.0268056
0.027254
0.0276724
0.0279508
0.0281216
0.0281255
0.027182
0.0259468
0.0242588
0.0209603
0.0165627
0.999994
0.999994
0.999994
0.999995
0.999995
0.999994
0.999993
0.999992
0.999992
0.999991
0.999991
0.99999
0.99999
0.99999
0.99999
0.99999
0.99999
0.99999
0.99999
0.99999
0.99999
0.99999
0.99999
0.99999
0.99999
0.99999
0.99999
0.99999
0.99999
0.99999
0.99999
0.99999
0.99999
0.99999
0.99999
0.99999
0.99999
0.99999
0.99999
0.99999
0.99999
0.99999
0.99999
0.99999
0.99999
0.99999
0.99999
0.99999
0.99999
0.99999
0.999989
0.999986
0.999977
0.999953
0.999941
0.999829
0.999801
0.99974
0.99999
0.633463
0.0155074
0.00756976
0.00746589
0.00817584
0.00881918
0.00868984
0.00728606
0.00671435
0.00758764
0.0081899
0.00786011
0.00742796
0.00740884
0.00717492
0.00616024
0.00513658
0.00425251
0.00355745
0.00296913
0.0025151
0.00216987
0.00208315
0.00217479
0.00216186
0.00229942
0.00250724
0.00255636
0.00253201
0.00256412
0.00251752
0.00245367
0.00224038
0.00192989
0.00152188
0.000945759
0.000361713
0.999998
0.999994
0.999994
0.999995
0.999995
0.999994
0.999993
0.999992
0.999992
0.999991
0.99999
0.99999
0.99999
0.99999
0.99999
0.99999
0.99999
0.99999
0.99999
0.99999
0.99999
0.99999
0.99999
0.99999
0.99999
0.99999
0.99999
0.99999
0.99999
0.99999
0.99999
0.99999
0.99999
0.99999
0.99999
0.99999
0.99999
0.99999
0.99999
0.99999
0.99999
0.99999
0.99999
0.99999
0.99999
0.99999
0.99999
0.99999
0.99999
0.99999
0.999989
0.999986
0.999969
0.999945
0.999937
0.999886
0.99985
0.99968
0.999887
0.804414
0.00565067
0.000732973
0.000572538
0.000412075
0.000386897
0.000383821
0.000361645
0.000336289
0.000313413
0.000270566
0.00021522
0.000191477
0.000213038
0.000223964
0.00011961
5.64677e-05
2.71862e-05
1.3046e-05
6.18278e-06
2.59231e-06
1.0489e-06
5.95824e-07
2.61022e-07
2.61021e-07
2.61021e-07
2.61021e-07
2.61021e-07
2.61021e-07
1.38514e-06
5.77536e-06
4.22071e-06
4.64733e-06
2.99022e-06
1.87096e-06
9.65633e-07
4.19189e-07
0.999997
0.999994
0.999993
0.999994
0.999994
0.999994
0.999993
0.999992
0.999991
0.999991
0.99999
0.99999
0.99999
0.99999
0.99999
0.99999
0.99999
0.99999
0.99999
0.99999
0.99999
0.99999
0.99999
0.99999
0.99999
0.99999
0.99999
0.99999
0.99999
0.99999
0.99999
0.99999
0.99999
0.99999
0.99999
0.99999
0.99999
0.99999
0.99999
0.99999
0.99999
0.99999
0.99999
0.99999
0.99999
0.99999
0.99999
0.99999
0.99999
0.99999
0.999989
0.999986
0.999974
0.99994
0.999909
0.999889
0.999888
0.999564
0.999771
0.911115
0.0252121
1.05868e-05
5.26241e-06
2.89333e-06
2.41605e-06
1.00576e-06
6.7532e-07
9.94642e-07
2.18611e-06
1.99892e-06
8.77002e-07
6.47802e-07
7.57583e-07
8.01124e-07
6.36573e-07
5.4109e-07
5.20647e-07
5.20524e-07
5.20396e-07
5.20268e-07
5.27394e-07
5.14222e-07
4.96793e-07
4.76585e-07
4.57165e-07
4.35306e-07
4.11188e-07
3.86084e-07
3.56811e-07
3.09905e-07
2.79578e-07
2.91131e-07
3.32175e-07
3.00066e-07
2.26157e-07
2.11882e-07
0.999996
0.999994
0.999993
0.999994
0.999994
0.999993
0.999992
0.999992
0.999991
0.99999
0.99999
0.99999
0.99999
0.99999
0.99999
0.99999
0.99999
0.99999
0.99999
0.99999
0.99999
0.99999
0.99999
0.99999
0.99999
0.99999
0.99999
0.99999
0.99999
0.99999
0.99999
0.99999
0.99999
0.99999
0.99999
0.99999
0.99999
0.99999
0.99999
0.99999
0.99999
0.99999
0.99999
0.99999
0.99999
0.99999
0.99999
0.99999
0.99999
0.99999
0.999989
0.999986
0.999979
0.999948
0.999885
0.99988
0.999876
0.999424
0.999631
0.965648
0.0749635
3.63299e-07
7.01916e-07
6.39969e-07
6.54083e-07
6.64781e-07
6.40357e-07
6.41103e-07
7.39077e-07
8.36617e-07
7.29011e-07
6.89835e-07
6.56786e-07
6.30733e-07
6.06331e-07
5.8848e-07
5.88157e-07
5.88038e-07
5.83636e-07
5.73532e-07
5.56525e-07
5.33687e-07
5.07237e-07
4.77656e-07
4.43352e-07
4.11905e-07
3.87286e-07
3.68662e-07
3.58965e-07
3.46112e-07
3.08479e-07
2.39266e-07
2.28188e-07
2.22841e-07
2.11829e-07
2.11831e-07
0.999996
0.999994
0.999994
0.999993
0.999993
0.999993
0.999992
0.999991
0.999991
0.99999
0.99999
0.99999
0.99999
0.99999
0.99999
0.99999
0.99999
0.99999
0.99999
0.99999
0.99999
0.99999
0.99999
0.99999
0.99999
0.99999
0.99999
0.99999
0.99999
0.99999
0.99999
0.99999
0.99999
0.99999
0.99999
0.99999
0.99999
0.99999
0.99999
0.99999
0.99999
0.99999
0.99999
0.99999
0.99999
0.99999
0.99999
0.99999
0.99999
0.99999
0.999989
0.999984
0.999978
0.999965
0.999911
0.999867
0.9998
0.999326
0.999521
0.971343
0.072538
1.71398e-06
4.10263e-07
5.69601e-07
5.87817e-07
6.20973e-07
6.17328e-07
5.97991e-07
5.75837e-07
5.57849e-07
5.49828e-07
5.49265e-07
5.49528e-07
5.49786e-07
5.52338e-07
5.50973e-07
5.44606e-07
5.31671e-07
5.13329e-07
4.91371e-07
4.67675e-07
4.44033e-07
4.20553e-07
3.98615e-07
3.79436e-07
3.63793e-07
3.52266e-07
3.43149e-07
3.36597e-07
3.34638e-07
3.25635e-07
2.73174e-07
2.15858e-07
2.11753e-07
2.11759e-07
2.11829e-07
0.999996
0.999994
0.999994
0.999993
0.999993
0.999992
0.999992
0.999991
0.99999
0.99999
0.99999
0.99999
0.99999
0.99999
0.99999
0.99999
0.99999
0.99999
0.99999
0.99999
0.99999
0.99999
0.99999
0.99999
0.99999
0.99999
0.99999
0.99999
0.99999
0.99999
0.99999
0.99999
0.99999
0.99999
0.99999
0.99999
0.99999
0.99999
0.99999
0.99999
0.99999
0.99999
0.99999
0.99999
0.99999
0.99999
0.99999
0.99999
0.99999
0.99999
0.999989
0.999983
0.999976
0.999968
0.999938
0.999896
0.999738
0.999225
0.999466
0.963025
0.0551968
1.68616e-06
4.10263e-07
4.5807e-07
4.65256e-07
4.71942e-07
4.67609e-07
4.6021e-07
4.53211e-07
4.4728e-07
4.43821e-07
4.41819e-07
4.40205e-07
4.37715e-07
4.3348e-07
4.26957e-07
4.18269e-07
4.07877e-07
3.96617e-07
3.85265e-07
3.74374e-07
3.64353e-07
3.55437e-07
3.47553e-07
3.41584e-07
3.37031e-07
3.33287e-07
3.29575e-07
3.25678e-07
3.25615e-07
3.23013e-07
2.88365e-07
2.20988e-07
2.11707e-07
2.11755e-07
2.11759e-07
0.999996
0.999994
0.999994
0.999993
0.999993
0.999992
0.999992
0.999991
0.99999
0.99999
0.99999
0.99999
0.99999
0.99999
0.99999
0.99999
0.99999
0.99999
0.99999
0.99999
0.99999
0.99999
0.99999
0.99999
0.99999
0.99999
0.99999
0.99999
0.99999
0.99999
0.99999
0.99999
0.99999
0.99999
0.99999
0.99999
0.99999
0.99999
0.99999
0.99999
0.99999
0.99999
0.99999
0.99999
0.99999
0.99999
0.99999
0.99999
0.99999
0.99999
0.999988
0.999983
0.999973
0.999954
0.999941
0.999907
0.999612
0.999086
0.998894
0.963598
0.0501979
9.66946e-05
4.10264e-07
4.20255e-07
3.99414e-07
3.77305e-07
3.65714e-07
3.602e-07
3.56803e-07
3.5461e-07
3.54018e-07
3.54158e-07
3.54612e-07
3.54932e-07
3.54775e-07
3.53745e-07
3.5157e-07
3.48421e-07
3.44848e-07
3.4106e-07
3.37336e-07
3.33642e-07
3.3066e-07
3.28071e-07
3.26618e-07
3.26179e-07
3.2531e-07
3.23574e-07
3.2154e-07
3.22035e-07
3.19755e-07
2.89278e-07
2.21374e-07
2.11713e-07
2.11714e-07
2.11758e-07
0.999996
0.999995
0.999994
0.999993
0.999993
0.999992
0.999992
0.999991
0.999991
0.99999
0.99999
0.99999
0.99999
0.99999
0.99999
0.99999
0.99999
0.99999
0.99999
0.99999
0.99999
0.99999
0.99999
0.99999
0.99999
0.99999
0.99999
0.99999
0.99999
0.99999
0.99999
0.99999
0.99999
0.99999
0.99999
0.99999
0.99999
0.99999
0.99999
0.99999
0.99999
0.99999
0.99999
0.99999
0.99999
0.99999
0.99999
0.99999
0.99999
0.99999
0.999988
0.999984
0.999976
0.999956
0.99993
0.999834
0.999757
0.99914
0.999134
0.958881
0.0651488
0.000484646
1.078e-06
3.14128e-07
3.14131e-07
3.14135e-07
3.1434e-07
3.14832e-07
3.15396e-07
3.15894e-07
3.16307e-07
3.16607e-07
3.16912e-07
3.17208e-07
3.17561e-07
3.1795e-07
3.18458e-07
3.1893e-07
3.1948e-07
3.19906e-07
3.20291e-07
3.20219e-07
3.2014e-07
3.19905e-07
3.20113e-07
3.20325e-07
3.18712e-07
3.18584e-07
3.18585e-07
3.1952e-07
3.15731e-07
2.73067e-07
2.15395e-07
2.11636e-07
2.1172e-07
2.11723e-07
0.999991
0.999991
0.999991
0.999991
0.999991
0.999991
0.999991
0.99999
0.99999
0.99999
0.99999
0.99999
0.99999
0.99999
0.99999
0.99999
0.99999
0.99999
0.99999
0.99999
0.99999
0.99999
0.99999
0.99999
0.99999
0.99999
0.99999
0.99999
0.99999
0.99999
0.99999
0.99999
0.99999
0.99999
0.99999
0.99999
0.99999
0.99999
0.99999
0.99999
0.99999
0.99999
0.99999
0.99999
0.99999
0.99999
0.99999
0.99999
0.99999
0.99999
0.99999
0.999989
0.999978
0.999945
0.999932
0.999887
0.999809
0.999074
0.995429
0.923668
0.0597901
0.000531948
1.44684e-06
7.43579e-07
7.46808e-07
7.46747e-07
7.46291e-07
7.46168e-07
7.46434e-07
7.47157e-07
7.48234e-07
7.49222e-07
7.49856e-07
7.50188e-07
7.50527e-07
7.50507e-07
7.49961e-07
7.49963e-07
7.49967e-07
7.50354e-07
7.51012e-07
7.50931e-07
7.51125e-07
7.52282e-07
7.55153e-07
7.59572e-07
7.64873e-07
7.70539e-07
7.7016e-07
7.53022e-07
6.50136e-07
3.84387e-07
2.26187e-07
2.56336e-07
3.09312e-07
3.0935e-07
0.999991
0.999991
0.999991
0.999991
0.999991
0.999991
0.999991
0.999991
0.999991
0.999991
0.99999
0.99999
0.99999
0.99999
0.99999
0.99999
0.99999
0.99999
0.99999
0.99999
0.99999
0.99999
0.99999
0.99999
0.99999
0.99999
0.99999
0.99999
0.99999
0.99999
0.99999
0.99999
0.99999
0.99999
0.99999
0.99999
0.99999
0.99999
0.99999
0.99999
0.99999
0.99999
0.99999
0.99999
0.99999
0.99999
0.99999
0.99999
0.99999
0.99999
0.999989
0.999986
0.999978
0.999949
0.999941
0.99989
0.999771
0.999186
0.997629
0.937516
0.0415216
8.92242e-05
7.52914e-07
7.6756e-07
7.58524e-07
7.47879e-07
7.44318e-07
7.44381e-07
7.44332e-07
7.44395e-07
7.44493e-07
7.44961e-07
7.45461e-07
7.45484e-07
7.45726e-07
7.47016e-07
7.49569e-07
7.50817e-07
7.5035e-07
7.50331e-07
7.50545e-07
7.51513e-07
7.54377e-07
7.59662e-07
7.64999e-07
7.69744e-07
7.72155e-07
7.72173e-07
7.71952e-07
7.58835e-07
6.87417e-07
4.79444e-07
2.77807e-07
2.59217e-07
3.66538e-07
3.93855e-07
0.999992
0.999991
0.999991
0.999991
0.999991
0.999991
0.999991
0.999991
0.999991
0.999991
0.99999
0.99999
0.99999
0.99999
0.99999
0.99999
0.99999
0.99999
0.99999
0.99999
0.99999
0.99999
0.99999
0.99999
0.99999
0.99999
0.99999
0.99999
0.99999
0.99999
0.99999
0.99999
0.99999
0.99999
0.99999
0.99999
0.99999
0.99999
0.99999
0.99999
0.99999
0.99999
0.99999
0.99999
0.99999
0.99999
0.99999
0.99999
0.99999
0.999989
0.999988
0.999985
0.99998
0.999952
0.99995
0.999866
0.999818
0.999415
0.998928
0.946439
0.0387277
7.5854e-07
9.65907e-07
7.69122e-07
7.53131e-07
7.4948e-07
7.50659e-07
7.51797e-07
7.53584e-07
7.5647e-07
7.59754e-07
7.61348e-07
7.62522e-07
7.62445e-07
7.6037e-07
7.56291e-07
7.51509e-07
7.51098e-07
7.55182e-07
7.61955e-07
7.62654e-07
7.5931e-07
7.59077e-07
7.63449e-07
7.68565e-07
7.70696e-07
7.71414e-07
7.71397e-07
7.71343e-07
7.61529e-07
7.00221e-07
5.29496e-07
3.37825e-07
2.8884e-07
4.01331e-07
4.20226e-07
0.999992
0.999992
0.999991
0.999992
0.999991
0.999991
0.999991
0.999991
0.999991
0.999991
0.99999
0.99999
0.99999
0.99999
0.99999
0.99999
0.99999
0.99999
0.99999
0.99999
0.99999
0.99999
0.99999
0.99999
0.99999
0.99999
0.99999
0.99999
0.99999
0.99999
0.99999
0.99999
0.99999
0.99999
0.99999
0.99999
0.99999
0.99999
0.99999
0.99999
0.99999
0.99999
0.99999
0.99999
0.99999
0.99999
0.99999
0.99999
0.99999
0.999989
0.999988
0.999985
0.99998
0.999962
0.999942
0.999825
0.999849
0.999467
0.999606
0.946625
0.0356944
7.58541e-07
6.7704e-06
7.66234e-07
9.97939e-07
7.10449e-07
7.17394e-07
7.31879e-07
7.59821e-07
7.60006e-07
7.42899e-07
7.1321e-07
6.9975e-07
7.09699e-07
7.54347e-07
8.19654e-07
8.44323e-07
8.48346e-07
8.48704e-07
8.4791e-07
8.40376e-07
8.28499e-07
8.15371e-07
8.01705e-07
7.90251e-07
7.82492e-07
7.76588e-07
7.70707e-07
7.6309e-07
7.38313e-07
6.5976e-07
4.95804e-07
3.35546e-07
3.35032e-07
4.32955e-07
4.2907e-07
0.999993
0.999993
0.999992
0.999992
0.999992
0.999992
0.999991
0.999991
0.999991
0.999991
0.99999
0.99999
0.99999
0.99999
0.99999
0.99999
0.99999
0.99999
0.99999
0.99999
0.99999
0.99999
0.99999
0.99999
0.99999
0.99999
0.99999
0.99999
0.99999
0.99999
0.99999
0.99999
0.99999
0.99999
0.99999
0.99999
0.99999
0.99999
0.99999
0.99999
0.99999
0.99999
0.99999
0.99999
0.99999
0.99999
0.99999
0.99999
0.99999
0.999989
0.999988
0.999986
0.99998
0.999977
0.999906
0.999777
0.999741
0.999732
0.99988
0.872127
0.0161098
0.000276415
0.000174667
5.30898e-05
2.45954e-05
1.25533e-05
8.59377e-06
6.97417e-06
6.84041e-06
7.30991e-06
7.79246e-06
8.12495e-06
8.3157e-06
8.37016e-06
8.11599e-06
7.01603e-06
6.7115e-06
6.58995e-06
6.04793e-06
5.74566e-06
5.20326e-06
4.34471e-06
3.55041e-06
2.18468e-06
1.4039e-06
9.66495e-07
8.8619e-07
8.40109e-07
5.44498e-07
5.33643e-07
4.77229e-07
4.10141e-07
3.55753e-07
4.11904e-07
4.8739e-07
4.37236e-07
0.999994
0.999994
0.999993
0.999993
0.999992
0.999992
0.999992
0.999992
0.999991
0.999991
0.99999
0.99999
0.99999
0.99999
0.99999
0.99999
0.99999
0.99999
0.99999
0.99999
0.99999
0.99999
0.99999
0.99999
0.99999
0.99999
0.99999
0.99999
0.99999
0.99999
0.99999
0.99999
0.99999
0.99999
0.99999
0.99999
0.99999
0.99999
0.99999
0.99999
0.99999
0.99999
0.99999
0.99999
0.99999
0.99999
0.99999
0.99999
0.99999
0.999989
0.999988
0.999985
0.99998
0.999976
0.99986
0.999788
0.999801
0.999847
0.99999
0.727279
0.012514
0.00588831
0.00495027
0.00330193
0.00240782
0.00181091
0.00148931
0.00136508
0.00133753
0.00144831
0.00152987
0.00162511
0.00171011
0.00180519
0.00189078
0.00194947
0.00206164
0.00209462
0.00209448
0.00215649
0.00219711
0.00214245
0.00168752
0.00130757
0.0010719
0.000782491
0.000490959
0.000294447
0.000177454
9.51402e-05
2.26857e-05
8.46086e-07
3.26033e-07
4.08866e-07
4.70235e-07
4.27576e-07
0.999995
0.999995
0.999995
0.999994
0.999993
0.999993
0.999992
0.999992
0.999992
0.999991
0.99999
0.99999
0.99999
0.99999
0.99999
0.99999
0.99999
0.99999
0.99999
0.99999
0.99999
0.99999
0.99999
0.99999
0.99999
0.99999
0.99999
0.99999
0.99999
0.99999
0.99999
0.99999
0.99999
0.99999
0.99999
0.99999
0.99999
0.99999
0.99999
0.99999
0.99999
0.99999
0.99999
0.99999
0.99999
0.99999
0.99999
0.99999
0.99999
0.99999
0.999988
0.999985
0.999979
0.999972
0.999893
0.999727
0.999732
0.999797
0.99999
0.528435
0.031968
0.0278129
0.0278157
0.0260839
0.0251678
0.0240735
0.02342
0.0233669
0.0237146
0.0239454
0.024307
0.0248295
0.0254361
0.0259463
0.0265091
0.0273472
0.0283547
0.029169
0.0298381
0.0301672
0.0303004
0.0293708
0.028554
0.0278476
0.0258243
0.0236093
0.020989
0.0189358
0.017888
0.0172355
0.0114348
0.005454
0.00174947
1.03333e-05
4.10264e-05
4.06876e-05
0.999994
0.999996
0.999995
0.999996
0.999995
0.999994
0.999993
0.999992
0.999992
0.999991
0.99999
0.99999
0.99999
0.99999
0.99999
0.99999
0.99999
0.99999
0.99999
0.99999
0.99999
0.99999
0.99999
0.99999
0.99999
0.99999
0.99999
0.99999
0.99999
0.99999
0.99999
0.99999
0.99999
0.99999
0.99999
0.99999
0.99999
0.99999
0.99999
0.99999
0.99999
0.99999
0.99999
0.99999
0.99999
0.99999
0.99999
0.99999
0.99999
0.99999
0.999989
0.999985
0.999977
0.999965
0.999886
0.999756
0.999766
0.999785
0.99999
0.501239
0.0467311
0.0426052
0.0438928
0.0440961
0.0453702
0.0460786
0.0466602
0.0473673
0.0483886
0.0493614
0.0498094
0.0500591
0.050134
0.0500414
0.0502471
0.0515751
0.0533867
0.055413
0.0574436
0.0595678
0.0620798
0.0652939
0.068733
0.0716993
0.0739361
0.0760637
0.0795519
0.0850137
0.0895039
0.0942439
0.101982
0.112687
0.127268
0.149115
0.196587
0.38631
0.999996
0.999996
0.999995
0.999996
0.999996
0.999995
0.999994
0.999993
0.999991
0.999991
0.99999
0.99999
0.99999
0.99999
0.99999
0.99999
0.99999
0.99999
0.99999
0.99999
0.99999
0.99999
0.99999
0.99999
0.99999
0.99999
0.99999
0.99999
0.99999
0.99999
0.99999
0.99999
0.99999
0.99999
0.99999
0.99999
0.99999
0.99999
0.99999
0.99999
0.99999
0.99999
0.99999
0.99999
0.99999
0.99999
0.99999
0.99999
0.99999
0.99999
0.999989
0.999985
0.999976
0.99996
0.999941
0.999852
0.999728
0.999656
0.99999
0.730673
0.0142763
0.00303721
0.00252183
0.00237127
0.00248748
0.00251784
0.00239375
0.00225843
0.00221368
0.00217384
0.00207195
0.00206803
0.00205967
0.00182609
0.0015244
0.00145909
0.00209656
0.00300705
0.00322619
0.0027459
0.00253411
0.00267365
0.00378336
0.00503132
0.00538185
0.0054221
0.0055451
0.00650124
0.00748751
0.00838373
0.00926584
0.00962463
0.00823346
0.00645129
0.00428477
0.00260625
0.999996
0.999996
0.999995
0.999997
0.999997
0.999996
0.999994
0.999993
0.999991
0.99999
0.99999
0.99999
0.99999
0.99999
0.99999
0.99999
0.99999
0.99999
0.99999
0.99999
0.99999
0.99999
0.99999
0.99999
0.99999
0.99999
0.99999
0.99999
0.99999
0.99999
0.99999
0.99999
0.99999
0.99999
0.99999
0.99999
0.99999
0.99999
0.99999
0.99999
0.99999
0.99999
0.99999
0.99999
0.99999
0.99999
0.99999
0.99999
0.99999
0.99999
0.999989
0.999985
0.999976
0.999959
0.999921
0.999893
0.999863
0.999544
0.999931
0.877932
0.0102806
5.25355e-05
3.49456e-05
1.65104e-05
1.44695e-05
1.23704e-05
1.01365e-05
8.56799e-06
7.18971e-06
6.76709e-06
6.43171e-06
6.25825e-06
7.67215e-06
1.01169e-05
1.24541e-05
1.35766e-05
1.40254e-05
1.46437e-05
1.43208e-05
1.45431e-05
1.67441e-05
1.75752e-05
1.77542e-05
2.11117e-05
2.62468e-05
2.70202e-05
2.66432e-05
2.90932e-05
3.45031e-05
3.44004e-05
3.93265e-05
4.00239e-05
1.96273e-05
8.21966e-06
2.88021e-06
2.11886e-07
0.999996
0.999996
0.999995
0.999997
0.999997
0.999996
0.999994
0.999993
0.999991
0.99999
0.99999
0.99999
0.99999
0.99999
0.99999
0.99999
0.99999
0.99999
0.99999
0.99999
0.99999
0.99999
0.99999
0.99999
0.99999
0.99999
0.99999
0.99999
0.99999
0.99999
0.99999
0.99999
0.99999
0.99999
0.99999
0.99999
0.99999
0.99999
0.99999
0.99999
0.99999
0.99999
0.99999
0.99999
0.99999
0.99999
0.99999
0.99999
0.99999
0.99999
0.999989
0.999986
0.999976
0.999962
0.999909
0.999874
0.999871
0.999445
0.999813
0.945639
0.0547392
3.63298e-07
1.19902e-06
8.46358e-07
1.38203e-06
7.83922e-07
6.95162e-07
7.26715e-07
7.47863e-07
6.83969e-07
6.4913e-07
6.30469e-07
6.22148e-07
6.20385e-07
6.19408e-07
6.05332e-07
5.90721e-07
5.72039e-07
5.4594e-07
5.14453e-07
4.85127e-07
4.67839e-07
4.61788e-07
4.59213e-07
4.49409e-07
4.37998e-07
4.21798e-07
3.95438e-07
3.6208e-07
3.37923e-07
3.36782e-07
3.36246e-07
3.00292e-07
2.74816e-07
2.74021e-07
2.11834e-07
0.999996
0.999995
0.999995
0.999996
0.999996
0.999995
0.999994
0.999992
0.999991
0.99999
0.99999
0.99999
0.99999
0.99999
0.99999
0.99999
0.99999
0.99999
0.99999
0.99999
0.99999
0.99999
0.99999
0.99999
0.99999
0.99999
0.99999
0.99999
0.99999
0.99999
0.99999
0.99999
0.99999
0.99999
0.99999
0.99999
0.99999
0.99999
0.99999
0.99999
0.99999
0.99999
0.99999
0.99999
0.99999
0.99999
0.99999
0.99999
0.99999
0.99999
0.999989
0.999986
0.999975
0.999963
0.999906
0.999878
0.999842
0.999376
0.999611
0.969822
0.0710065
3.63298e-07
8.80654e-07
7.18381e-07
9.13471e-07
8.58512e-07
7.69383e-07
7.28769e-07
7.84459e-07
8.3312e-07
7.68377e-07
7.04582e-07
6.64764e-07
6.40108e-07
6.22862e-07
6.11312e-07
5.98926e-07
5.81401e-07
5.57364e-07
5.29633e-07
5.03695e-07
4.79009e-07
4.49227e-07
4.14266e-07
3.94808e-07
3.80213e-07
3.70571e-07
3.6412e-07
3.58215e-07
3.47283e-07
3.18528e-07
2.60167e-07
2.16224e-07
2.12977e-07
2.1176e-07
2.11832e-07
0.999996
0.999995
0.999994
0.999994
0.999994
0.999994
0.999992
0.999991
0.999991
0.99999
0.99999
0.99999
0.99999
0.99999
0.99999
0.99999
0.99999
0.99999
0.99999
0.99999
0.99999
0.99999
0.99999
0.99999
0.99999
0.99999
0.99999
0.99999
0.99999
0.99999
0.99999
0.99999
0.99999
0.99999
0.99999
0.99999
0.99999
0.99999
0.99999
0.99999
0.99999
0.99999
0.99999
0.99999
0.99999
0.99999
0.99999
0.99999
0.99999
0.99999
0.999989
0.999985
0.999973
0.999956
0.99993
0.99989
0.999801
0.999282
0.999098
0.973344
0.0982029
3.63299e-07
8.07841e-07
7.21735e-07
7.48562e-07
8.21164e-07
8.25752e-07
8.07322e-07
7.53402e-07
6.92377e-07
6.39502e-07
6.04235e-07
5.83352e-07
5.71239e-07
5.61731e-07
5.49742e-07
5.33211e-07
5.11623e-07
4.87483e-07
4.63445e-07
4.40556e-07
4.19477e-07
3.99575e-07
3.73993e-07
3.72321e-07
3.68457e-07
3.63457e-07
3.57352e-07
3.49853e-07
3.4153e-07
3.28025e-07
2.79278e-07
2.14925e-07
2.11707e-07
2.11757e-07
2.11759e-07
0.999996
0.999994
0.999994
0.999994
0.999993
0.999992
0.999991
0.999991
0.99999
0.99999
0.99999
0.99999
0.99999
0.99999
0.99999
0.99999
0.99999
0.99999
0.99999
0.99999
0.99999
0.99999
0.99999
0.99999
0.99999
0.99999
0.99999
0.99999
0.99999
0.99999
0.99999
0.99999
0.99999
0.99999
0.99999
0.99999
0.99999
0.99999
0.99999
0.99999
0.99999
0.99999
0.99999
0.99999
0.99999
0.99999
0.99999
0.99999
0.99999
0.99999
0.999989
0.999984
0.999971
0.999951
0.999939
0.999912
0.999733
0.999176
0.998906
0.97036
0.0912088
3.63299e-07
6.26386e-07
6.5645e-07
6.16799e-07
6.04785e-07
6.16937e-07
6.35976e-07
6.353e-07
6.26009e-07
6.08477e-07
5.8795e-07
5.69062e-07
5.51765e-07
5.33347e-07
5.13262e-07
4.93044e-07
4.7399e-07
4.56952e-07
4.3991e-07
4.21187e-07
4.018e-07
3.83705e-07
3.62511e-07
3.60877e-07
3.59761e-07
3.58408e-07
3.54742e-07
3.47485e-07
3.38278e-07
3.27427e-07
2.85135e-07
2.18397e-07
2.11709e-07
2.11707e-07
2.11757e-07
0.999996
0.999994
0.999994
0.999993
0.999992
0.999992
0.999991
0.99999
0.99999
0.99999
0.99999
0.99999
0.99999
0.99999
0.99999
0.99999
0.99999
0.99999
0.99999
0.99999
0.99999
0.99999
0.99999
0.99999
0.99999
0.99999
0.99999
0.99999
0.99999
0.99999
0.99999
0.99999
0.99999
0.99999
0.99999
0.99999
0.99999
0.99999
0.99999
0.99999
0.99999
0.99999
0.99999
0.99999
0.99999
0.99999
0.99999
0.99999
0.99999
0.99999
0.999988
0.999983
0.99997
0.999952
0.999939
0.999907
0.999639
0.999013
0.9981
0.959805
0.077854
0.000272531
6.55973e-07
4.0918e-07
3.50052e-07
3.46147e-07
3.53115e-07
3.66562e-07
3.86278e-07
4.07003e-07
4.21487e-07
4.30937e-07
4.3907e-07
4.47523e-07
4.50491e-07
4.50272e-07
4.48998e-07
4.45221e-07
4.37651e-07
4.25679e-07
4.09408e-07
3.90827e-07
3.74105e-07
3.57878e-07
3.55931e-07
3.56403e-07
3.57536e-07
3.55164e-07
3.48024e-07
3.38877e-07
3.25611e-07
2.80271e-07
2.16249e-07
2.11634e-07
2.11716e-07
2.11717e-07
0.999996
0.999995
0.999994
0.999993
0.999992
0.999992
0.999991
0.999991
0.99999
0.99999
0.99999
0.99999
0.99999
0.99999
0.99999
0.99999
0.99999
0.99999
0.99999
0.99999
0.99999
0.99999
0.99999
0.99999
0.99999
0.99999
0.99999
0.99999
0.99999
0.99999
0.99999
0.99999
0.99999
0.99999
0.99999
0.99999
0.99999
0.99999
0.99999
0.99999
0.99999
0.99999
0.99999
0.99999
0.99999
0.99999
0.99999
0.99999
0.99999
0.99999
0.999988
0.999984
0.999973
0.999953
0.999938
0.999876
0.999718
0.998936
0.997279
0.947411
0.0921199
0.00109498
2.85189e-06
3.14124e-07
3.14128e-07
3.14132e-07
3.14136e-07
3.14181e-07
3.14523e-07
3.15398e-07
3.16838e-07
3.18726e-07
3.20909e-07
3.23632e-07
3.2744e-07
3.32782e-07
3.39819e-07
3.47415e-07
3.54054e-07
3.56522e-07
3.5616e-07
3.54379e-07
3.51865e-07
3.47215e-07
3.48051e-07
3.50047e-07
3.52173e-07
3.49725e-07
3.42387e-07