/*--------------------------------*- C++ -*----------------------------------*\
| =========                 |                                                 |
| \\      /  F ield         | OpenFOAM: The Open Source CFD Toolbox           |
|  \\    /   O peration     | Version:  2.3.0                                 |
|   \\  /    A nd           | Web:      www.OpenFOAM.org                      |
|    \\/     M anipulation  |                                                 |
\*---------------------------------------------------------------------------*/
FoamFile
{
    version     2.0;
    format      ascii;
    class       volScalarField;
    location    "13";
    object      alpha.airMean;
}
// * * * * * * * * * * * * * * * * * * * * * * * * * * * * * * * * * * * * * //

dimensions      [0 0 0 0 0 0 0];

internalField   nonuniform List<scalar> 
6144
(
0.99999
0.99999
0.99999
0.99999
0.99999
0.99999
0.99999
0.99999
0.99999
0.99999
0.99999
0.99999
0.99999
0.99999
0.99999
0.99999
0.99999
0.99999
0.99999
0.99999
0.99999
0.99999
0.99999
0.99999
0.99999
0.99999
0.99999
0.99999
0.99999
0.99999
0.99999
0.99999
0.99999
0.99999
0.99999
0.99999
0.99999
0.99999
0.99999
0.99999
0.99999
0.99999
0.99999
0.99999
0.99999
0.99999
0.99999
0.999987
0.999983
0.99998
0.999978
0.999975
0.999973
0.999969
0.999964
0.999956
0.99995
0.99994
0.99869
0.9313
0.0320556
0.000198669
1.44575e-06
1.25995e-06
1.25034e-06
1.22318e-06
1.21843e-06
1.1966e-06
1.19328e-06
1.17722e-06
1.17064e-06
1.1571e-06
1.14585e-06
1.13351e-06
1.12329e-06
1.10868e-06
1.09689e-06
1.08707e-06
1.07549e-06
1.06296e-06
1.04757e-06
1.03184e-06
1.01736e-06
1.00399e-06
9.90148e-07
9.74638e-07
9.57319e-07
9.34185e-07
8.9565e-07
8.31277e-07
7.52839e-07
6.8811e-07
6.15671e-07
5.81428e-07
5.79074e-07
5.71526e-07
0.99999
0.99999
0.99999
0.99999
0.99999
0.99999
0.99999
0.99999
0.99999
0.99999
0.99999
0.99999
0.99999
0.99999
0.99999
0.99999
0.99999
0.99999
0.99999
0.99999
0.99999
0.99999
0.99999
0.99999
0.99999
0.99999
0.99999
0.99999
0.99999
0.99999
0.99999
0.99999
0.99999
0.99999
0.99999
0.99999
0.99999
0.99999
0.99999
0.99999
0.99999
0.99999
0.99999
0.99999
0.99999
0.99999
0.999989
0.999987
0.999985
0.999982
0.99998
0.999976
0.99997
0.999963
0.999958
0.999949
0.999944
0.999932
0.999384
0.947709
0.0292728
0.000127655
1.32352e-06
1.26235e-06
1.24811e-06
1.21984e-06
1.22179e-06
1.21661e-06
1.22237e-06
1.20663e-06
1.2042e-06
1.18692e-06
1.17257e-06
1.15776e-06
1.1438e-06
1.1279e-06
1.11568e-06
1.10133e-06
1.08576e-06
1.06869e-06
1.04936e-06
1.03062e-06
1.01329e-06
9.9788e-07
9.82852e-07
9.6753e-07
9.51809e-07
9.34226e-07
9.10854e-07
8.70019e-07
8.09433e-07
7.32055e-07
6.48164e-07
6.0852e-07
5.9558e-07
5.77237e-07
0.999991
0.999991
0.99999
0.99999
0.99999
0.99999
0.99999
0.99999
0.99999
0.99999
0.99999
0.99999
0.99999
0.99999
0.99999
0.99999
0.99999
0.99999
0.99999
0.99999
0.99999
0.99999
0.99999
0.99999
0.99999
0.99999
0.99999
0.99999
0.99999
0.99999
0.99999
0.99999
0.99999
0.99999
0.99999
0.99999
0.99999
0.99999
0.99999
0.99999
0.99999
0.99999
0.99999
0.99999
0.99999
0.99999
0.999989
0.999988
0.999985
0.999982
0.999978
0.999971
0.999963
0.999954
0.999948
0.999938
0.999935
0.999926
0.99957
0.935797
0.0255079
8.15643e-05
1.32121e-06
1.29704e-06
1.26288e-06
1.23737e-06
1.23467e-06
1.23778e-06
1.23897e-06
1.22211e-06
1.22396e-06
1.21444e-06
1.2028e-06
1.18488e-06
1.16689e-06
1.14844e-06
1.13414e-06
1.11592e-06
1.09769e-06
1.07802e-06
1.05735e-06
1.03689e-06
1.02016e-06
1.00034e-06
9.8347e-07
9.67488e-07
9.48986e-07
9.30461e-07
9.08745e-07
8.77515e-07
8.28822e-07
7.59607e-07
6.78169e-07
6.35186e-07
6.22738e-07
5.85037e-07
0.999991
0.999991
0.99999
0.99999
0.99999
0.99999
0.99999
0.99999
0.99999
0.99999
0.99999
0.99999
0.99999
0.99999
0.99999
0.99999
0.99999
0.99999
0.99999
0.99999
0.99999
0.99999
0.99999
0.99999
0.99999
0.99999
0.99999
0.99999
0.99999
0.99999
0.99999
0.99999
0.99999
0.99999
0.99999
0.99999
0.99999
0.99999
0.99999
0.99999
0.99999
0.99999
0.99999
0.99999
0.99999
0.99999
0.99999
0.999988
0.999985
0.99998
0.999972
0.999963
0.999955
0.999946
0.999938
0.999928
0.999926
0.999917
0.999662
0.91097
0.0244359
6.33059e-05
1.17652e-05
8.0718e-06
6.51836e-06
5.02243e-06
4.55008e-06
4.09256e-06
3.74252e-06
3.34674e-06
3.0303e-06
2.73584e-06
2.44761e-06
2.17783e-06
1.92471e-06
1.67999e-06
1.46768e-06
1.30132e-06
1.18389e-06
1.1163e-06
1.08203e-06
1.04781e-06
1.01952e-06
9.87379e-07
9.68803e-07
9.5563e-07
9.42815e-07
9.26115e-07
9.03159e-07
8.7244e-07
8.29212e-07
7.67667e-07
6.90506e-07
6.44804e-07
6.2839e-07
5.8586e-07
0.999991
0.999991
0.999991
0.999991
0.99999
0.99999
0.99999
0.99999
0.99999
0.99999
0.99999
0.99999
0.99999
0.99999
0.99999
0.99999
0.99999
0.99999
0.99999
0.99999
0.99999
0.99999
0.99999
0.99999
0.99999
0.99999
0.99999
0.99999
0.99999
0.99999
0.99999
0.99999
0.99999
0.99999
0.99999
0.99999
0.99999
0.99999
0.99999
0.99999
0.99999
0.99999
0.99999
0.99999
0.99999
0.99999
0.99999
0.999989
0.999984
0.999976
0.999966
0.999956
0.999949
0.999941
0.999931
0.999921
0.999919
0.999914
0.999753
0.8867
0.028068
0.000379451
0.000311585
0.000255983
0.000237104
0.00020196
0.000178756
0.00015472
0.000136622
0.00012227
0.000110759
0.000101508
9.32406e-05
8.51516e-05
7.67615e-05
6.72187e-05
5.66839e-05
4.50033e-05
3.30861e-05
2.20197e-05
1.37803e-05
8.40266e-06
5.20876e-06
3.03417e-06
1.91606e-06
1.47695e-06
1.27217e-06
1.11509e-06
9.77358e-07
8.94424e-07
8.37369e-07
7.71312e-07
6.82033e-07
6.34564e-07
6.20125e-07
5.80473e-07
0.999991
0.999991
0.999991
0.999991
0.999991
0.99999
0.99999
0.99999
0.99999
0.99999
0.99999
0.99999
0.99999
0.99999
0.99999
0.99999
0.99999
0.99999
0.99999
0.99999
0.99999
0.99999
0.99999
0.99999
0.99999
0.99999
0.99999
0.99999
0.99999
0.99999
0.99999
0.99999
0.99999
0.99999
0.99999
0.99999
0.99999
0.99999
0.99999
0.99999
0.99999
0.99999
0.99999
0.99999
0.99999
0.99999
0.99999
0.999989
0.999982
0.999972
0.99996
0.999951
0.999946
0.999938
0.99993
0.999923
0.999925
0.999922
0.999828
0.856809
0.0240641
0.00201496
0.00208009
0.00197855
0.00199231
0.00190978
0.001838
0.00172885
0.00163043
0.001532
0.00143793
0.00135162
0.00127411
0.00119716
0.00111807
0.00103046
0.000931573
0.000816575
0.000682942
0.000538896
0.000392107
0.000261501
0.000154232
7.48201e-05
3.78722e-05
2.96231e-05
2.97251e-05
2.79237e-05
2.16665e-05
1.63158e-05
9.23982e-06
4.31594e-06
1.72748e-06
8.1754e-07
5.98621e-07
5.59377e-07
0.999991
0.999991
0.999991
0.999991
0.999991
0.999991
0.99999
0.99999
0.99999
0.99999
0.99999
0.99999
0.99999
0.99999
0.99999
0.99999
0.99999
0.99999
0.99999
0.99999
0.99999
0.99999
0.99999
0.99999
0.99999
0.99999
0.99999
0.99999
0.99999
0.99999
0.99999
0.99999
0.99999
0.99999
0.99999
0.99999
0.99999
0.99999
0.99999
0.99999
0.99999
0.99999
0.99999
0.99999
0.99999
0.99999
0.99999
0.999988
0.999981
0.999969
0.999957
0.999949
0.999944
0.99994
0.999934
0.999927
0.999928
0.999926
0.999842
0.83258
0.0280713
0.00529914
0.00565485
0.00562469
0.00568335
0.00562227
0.00556061
0.00545101
0.00534142
0.00518004
0.00502182
0.0048057
0.00461103
0.00437771
0.00415519
0.0038999
0.00365611
0.00337995
0.00309322
0.00276357
0.00240939
0.00201938
0.00162242
0.00127095
0.000988046
0.000745141
0.00058424
0.000486592
0.000422301
0.000358385
0.00030242
0.000234371
0.00014494
7.04882e-05
2.34406e-05
7.07973e-06
0.999991
0.999991
0.999991
0.999991
0.999991
0.999991
0.999991
0.99999
0.99999
0.99999
0.99999
0.99999
0.99999
0.99999
0.99999
0.99999
0.99999
0.99999
0.99999
0.99999
0.99999
0.99999
0.99999
0.99999
0.99999
0.99999
0.99999
0.99999
0.99999
0.99999
0.99999
0.99999
0.99999
0.99999
0.99999
0.99999
0.99999
0.99999
0.99999
0.99999
0.99999
0.99999
0.99999
0.99999
0.99999
0.99999
0.999989
0.999986
0.999977
0.999966
0.999953
0.999947
0.999945
0.999945
0.999943
0.999941
0.999939
0.999926
0.999794
0.795259
0.0321948
0.00975416
0.0104193
0.010497
0.0105152
0.0104665
0.0104969
0.0105706
0.010658
0.0107075
0.0107433
0.0107258
0.0106675
0.0105459
0.0104136
0.0102601
0.0101162
0.0100081
0.00992733
0.00990015
0.00995667
0.0100977
0.0102838
0.0104778
0.0106957
0.0109249
0.0111332
0.0113034
0.0114685
0.0116141
0.0116965
0.0116584
0.011344
0.0106773
0.00925122
0.00740757
0.999992
0.999991
0.999991
0.999991
0.999991
0.999991
0.999991
0.999991
0.999991
0.99999
0.99999
0.99999
0.99999
0.99999
0.99999
0.99999
0.99999
0.99999
0.99999
0.99999
0.99999
0.99999
0.99999
0.99999
0.99999
0.99999
0.99999
0.99999
0.99999
0.99999
0.99999
0.99999
0.99999
0.99999
0.99999
0.99999
0.99999
0.99999
0.99999
0.99999
0.99999
0.99999
0.99999
0.99999
0.99999
0.999989
0.999987
0.999981
0.999975
0.999966
0.999955
0.999949
0.999947
0.999947
0.999945
0.999943
0.999946
0.999939
0.999856
0.854959
0.0274972
0.00554648
0.00545964
0.00496427
0.0047439
0.00458691
0.00450714
0.00443888
0.00441809
0.00441651
0.00445623
0.00448565
0.00452071
0.00455276
0.00460622
0.00466036
0.00473302
0.00481266
0.00490215
0.00498662
0.00508973
0.00519761
0.00532069
0.0054335
0.00553022
0.00560611
0.0056813
0.00575967
0.00579124
0.00571793
0.0055056
0.00509544
0.00443245
0.00342945
0.00210487
0.00103009
0.999992
0.999991
0.999991
0.999991
0.999991
0.999991
0.999991
0.999991
0.999991
0.99999
0.99999
0.99999
0.99999
0.99999
0.99999
0.99999
0.99999
0.99999
0.99999
0.99999
0.99999
0.99999
0.99999
0.99999
0.99999
0.99999
0.99999
0.99999
0.99999
0.99999
0.99999
0.99999
0.99999
0.99999
0.99999
0.99999
0.99999
0.99999
0.99999
0.99999
0.99999
0.99999
0.99999
0.99999
0.999988
0.999987
0.999984
0.999979
0.999975
0.999968
0.99996
0.999953
0.99995
0.999949
0.999947
0.999945
0.999947
0.999942
0.999903
0.914836
0.025393
0.00137892
0.00116021
0.000860329
0.000752292
0.000669782
0.000632036
0.000603707
0.000598282
0.000601644
0.000615418
0.000625026
0.000636083
0.000649293
0.000670408
0.000695578
0.000721538
0.000746585
0.000784872
0.000836595
0.000908348
0.00100015
0.00111418
0.00123946
0.00136697
0.00148922
0.00158827
0.00163779
0.0016309
0.00153144
0.00133296
0.00103816
0.000707438
0.000391027
0.000162751
6.5011e-05
0.999993
0.999992
0.999991
0.999991
0.999991
0.999991
0.999991
0.999991
0.999991
0.99999
0.99999
0.99999
0.99999
0.99999
0.99999
0.99999
0.99999
0.99999
0.99999
0.99999
0.99999
0.99999
0.99999
0.99999
0.99999
0.99999
0.99999
0.99999
0.99999
0.99999
0.99999
0.99999
0.99999
0.99999
0.99999
0.99999
0.99999
0.99999
0.99999
0.99999
0.99999
0.99999
0.99999
0.99999
0.999988
0.999987
0.999984
0.99998
0.999976
0.999971
0.999965
0.99996
0.999956
0.999954
0.999951
0.999948
0.999949
0.999938
0.999892
0.948361
0.0281376
0.000182188
7.54653e-05
4.49328e-05
3.41944e-05
2.74164e-05
2.64025e-05
2.68131e-05
2.89165e-05
3.15283e-05
3.42097e-05
3.61636e-05
3.76461e-05
3.87749e-05
3.98994e-05
4.07722e-05
4.11318e-05
4.16446e-05
4.43218e-05
4.88876e-05
5.59219e-05
6.49967e-05
7.54985e-05
8.61154e-05
9.51138e-05
0.000101871
0.000106156
0.000107501
0.000102954
9.01055e-05
7.03521e-05
4.37191e-05
2.22726e-05
8.81876e-06
3.06782e-06
1.50677e-06
0.999994
0.999992
0.999992
0.999992
0.999992
0.999991
0.999991
0.999991
0.999991
0.999991
0.99999
0.99999
0.99999
0.99999
0.99999
0.99999
0.99999
0.99999
0.99999
0.99999
0.99999
0.99999
0.99999
0.99999
0.99999
0.99999
0.99999
0.99999
0.99999
0.99999
0.99999
0.99999
0.99999
0.99999
0.99999
0.99999
0.99999
0.99999
0.99999
0.99999
0.99999
0.99999
0.99999
0.99999
0.999989
0.999987
0.999986
0.999982
0.999978
0.999974
0.999969
0.999964
0.999961
0.999957
0.999955
0.999951
0.99995
0.999937
0.999839
0.966403
0.0363856
0.000141165
2.00919e-06
1.52785e-06
1.40463e-06
1.34778e-06
1.33227e-06
1.30709e-06
1.30506e-06
1.30259e-06
1.30766e-06
1.2939e-06
1.28147e-06
1.26502e-06
1.24804e-06
1.21712e-06
1.16638e-06
1.10132e-06
1.07701e-06
1.07837e-06
1.10692e-06
1.18032e-06
1.28215e-06
1.38098e-06
1.45595e-06
1.48857e-06
1.44704e-06
1.34819e-06
1.27867e-06
1.17954e-06
1.01624e-06
8.32621e-07
6.83459e-07
6.18232e-07
5.99418e-07
5.67243e-07
0.999995
0.999994
0.999993
0.999993
0.999993
0.999992
0.999992
0.999991
0.999991
0.999991
0.99999
0.99999
0.99999
0.99999
0.99999
0.99999
0.99999
0.99999
0.99999
0.99999
0.99999
0.99999
0.99999
0.99999
0.99999
0.99999
0.99999
0.99999
0.99999
0.99999
0.99999
0.99999
0.99999
0.99999
0.99999
0.99999
0.99999
0.99999
0.99999
0.99999
0.99999
0.99999
0.99999
0.99999
0.99999
0.999988
0.999987
0.999984
0.99998
0.999976
0.999972
0.999968
0.999964
0.99996
0.999958
0.999954
0.999953
0.999934
0.999754
0.972828
0.0522991
0.000254551
1.49238e-06
1.30248e-06
1.28221e-06
1.26027e-06
1.24923e-06
1.23066e-06
1.21594e-06
1.19823e-06
1.18902e-06
1.179e-06
1.17087e-06
1.15661e-06
1.13713e-06
1.11836e-06
1.1058e-06
1.09359e-06
1.077e-06
1.06112e-06
1.04723e-06
1.0331e-06
1.02097e-06
1.0088e-06
9.92631e-07
9.62789e-07
9.19596e-07
8.64095e-07
7.97587e-07
7.36214e-07
7.02099e-07
6.51204e-07
5.75633e-07
5.40862e-07
5.3356e-07
5.16852e-07
0.999995
0.999994
0.999994
0.999994
0.999993
0.999993
0.999992
0.999992
0.999991
0.999991
0.99999
0.99999
0.99999
0.99999
0.99999
0.99999
0.99999
0.99999
0.99999
0.99999
0.99999
0.99999
0.99999
0.99999
0.99999
0.99999
0.99999
0.99999
0.99999
0.99999
0.99999
0.99999
0.99999
0.99999
0.99999
0.99999
0.99999
0.99999
0.99999
0.99999
0.99999
0.99999
0.99999
0.99999
0.99999
0.999989
0.999988
0.999986
0.999982
0.999978
0.999974
0.99997
0.999966
0.999962
0.999959
0.999955
0.999951
0.999923
0.999725
0.970721
0.062275
0.000380006
1.70101e-06
1.28733e-06
1.26663e-06
1.24714e-06
1.24123e-06
1.22406e-06
1.21211e-06
1.19352e-06
1.18391e-06
1.16776e-06
1.15641e-06
1.14174e-06
1.12706e-06
1.11162e-06
1.09705e-06
1.08459e-06
1.07209e-06
1.0595e-06
1.04526e-06
1.03279e-06
1.02077e-06
1.00842e-06
9.93838e-07
9.67637e-07
9.23089e-07
8.62945e-07
7.86802e-07
7.06725e-07
6.47641e-07
6.16973e-07
5.65891e-07
5.32478e-07
5.22178e-07
5.06646e-07
0.999996
0.999995
0.999995
0.999994
0.999994
0.999993
0.999993
0.999992
0.999992
0.999991
0.99999
0.99999
0.99999
0.99999
0.99999
0.99999
0.99999
0.99999
0.99999
0.99999
0.99999
0.99999
0.99999
0.99999
0.99999
0.99999
0.99999
0.99999
0.99999
0.99999
0.99999
0.99999
0.99999
0.99999
0.99999
0.99999
0.99999
0.99999
0.99999
0.99999
0.99999
0.99999
0.99999
0.99999
0.99999
0.99999
0.999989
0.999987
0.999984
0.999981
0.999976
0.999972
0.999968
0.999965
0.99996
0.999956
0.999947
0.999924
0.999739
0.965909
0.05734
0.000246862
1.41302e-06
1.28171e-06
1.26537e-06
1.24197e-06
1.22943e-06
1.21074e-06
1.20079e-06
1.18159e-06
1.17425e-06
1.16006e-06
1.14658e-06
1.13242e-06
1.11862e-06
1.10466e-06
1.09029e-06
1.07927e-06
1.06749e-06
1.05596e-06
1.04456e-06
1.03232e-06
1.01976e-06
1.00865e-06
9.96128e-07
9.7693e-07
9.43711e-07
8.88507e-07
8.10464e-07
7.1796e-07
6.44731e-07
6.00285e-07
5.57103e-07
5.25411e-07
5.13681e-07
4.99606e-07
0.999997
0.999995
0.999995
0.999995
0.999994
0.999994
0.999993
0.999992
0.999992
0.999991
0.99999
0.99999
0.99999
0.99999
0.99999
0.99999
0.99999
0.99999
0.99999
0.99999
0.99999
0.99999
0.99999
0.99999
0.99999
0.99999
0.99999
0.99999
0.99999
0.99999
0.99999
0.99999
0.99999
0.99999
0.99999
0.99999
0.99999
0.99999
0.99999
0.99999
0.99999
0.99999
0.99999
0.99999
0.99999
0.99999
0.999989
0.999988
0.999985
0.999982
0.999978
0.999974
0.999971
0.999968
0.999962
0.999949
0.999945
0.99994
0.999534
0.961488
0.0634446
0.000508141
1.97011e-06
1.28327e-06
1.26898e-06
1.24482e-06
1.23028e-06
1.20871e-06
1.20187e-06
1.18378e-06
1.17279e-06
1.15784e-06
1.14402e-06
1.13061e-06
1.11696e-06
1.10344e-06
1.09092e-06
1.07842e-06
1.06521e-06
1.05351e-06
1.04177e-06
1.02949e-06
1.01858e-06
1.0079e-06
9.95857e-07
9.84126e-07
9.64198e-07
9.22654e-07
8.54584e-07
7.66874e-07
6.67852e-07
5.84148e-07
5.41846e-07
5.1421e-07
5.04594e-07
4.89314e-07
0.99999
0.99999
0.99999
0.99999
0.99999
0.99999
0.99999
0.99999
0.99999
0.99999
0.99999
0.99999
0.99999
0.99999
0.99999
0.99999
0.99999
0.99999
0.99999
0.99999
0.99999
0.99999
0.99999
0.99999
0.99999
0.99999
0.99999
0.99999
0.99999
0.99999
0.99999
0.99999
0.99999
0.99999
0.99999
0.99999
0.99999
0.99999
0.99999
0.99999
0.99999
0.99999
0.99999
0.99999
0.99999
0.99999
0.99999
0.999988
0.999984
0.99998
0.999978
0.999976
0.999974
0.99997
0.999967
0.999961
0.999956
0.999928
0.999197
0.945241
0.0333077
0.000124473
1.28963e-06
1.25902e-06
1.24707e-06
1.21971e-06
1.21521e-06
1.19269e-06
1.18688e-06
1.16997e-06
1.16291e-06
1.14744e-06
1.13693e-06
1.1237e-06
1.11256e-06
1.09988e-06
1.08786e-06
1.07763e-06
1.06851e-06
1.05841e-06
1.04445e-06
1.02731e-06
1.01233e-06
9.96708e-07
9.80743e-07
9.66452e-07
9.51215e-07
9.32366e-07
9.07325e-07
8.67747e-07
8.06771e-07
7.27179e-07
6.45564e-07
6.08738e-07
6.04584e-07
5.83224e-07
0.999991
0.999991
0.99999
0.99999
0.99999
0.99999
0.99999
0.99999
0.99999
0.99999
0.99999
0.99999
0.99999
0.99999
0.99999
0.99999
0.99999
0.99999
0.99999
0.99999
0.99999
0.99999
0.99999
0.99999
0.99999
0.99999
0.99999
0.99999
0.99999
0.99999
0.99999
0.99999
0.99999
0.99999
0.99999
0.99999
0.99999
0.99999
0.99999
0.99999
0.99999
0.99999
0.99999
0.99999
0.99999
0.99999
0.999989
0.999987
0.999984
0.999982
0.999979
0.999975
0.99997
0.999965
0.999961
0.999956
0.999946
0.99991
0.999584
0.914744
0.0156358
1.52755e-05
1.27314e-06
1.27643e-06
1.27377e-06
1.24076e-06
1.23465e-06
1.21286e-06
1.21227e-06
1.20168e-06
1.19189e-06
1.17097e-06
1.15688e-06
1.14176e-06
1.1266e-06
1.11329e-06
1.10377e-06
1.09487e-06
1.08378e-06
1.07121e-06
1.05227e-06
1.03279e-06
1.01486e-06
9.95229e-07
9.74229e-07
9.55564e-07
9.36221e-07
9.19628e-07
9.07119e-07
8.88006e-07
8.45212e-07
7.73027e-07
6.84295e-07
6.40058e-07
6.33875e-07
5.97661e-07
0.999991
0.999991
0.999991
0.999991
0.99999
0.99999
0.99999
0.99999
0.99999
0.99999
0.99999
0.99999
0.99999
0.99999
0.99999
0.99999
0.99999
0.99999
0.99999
0.99999
0.99999
0.99999
0.99999
0.99999
0.99999
0.99999
0.99999
0.99999
0.99999
0.99999
0.99999
0.99999
0.99999
0.99999
0.99999
0.99999
0.99999
0.99999
0.99999
0.99999
0.99999
0.99999
0.99999
0.99999
0.99999
0.99999
0.999989
0.999988
0.999986
0.999982
0.999976
0.999966
0.999959
0.999953
0.999949
0.999948
0.99994
0.999906
0.99972
0.883157
0.013702
2.49365e-06
1.83234e-06
1.44717e-06
1.42789e-06
1.32861e-06
1.34191e-06
1.30797e-06
1.29691e-06
1.25729e-06
1.24685e-06
1.23024e-06
1.21989e-06
1.20641e-06
1.19248e-06
1.18033e-06
1.16419e-06
1.14706e-06
1.13311e-06
1.11239e-06
1.08858e-06
1.06679e-06
1.04079e-06
1.00709e-06
9.78941e-07
9.59318e-07
9.35143e-07
9.16516e-07
9.02112e-07
8.86122e-07
8.54365e-07
7.95607e-07
7.15311e-07
6.67683e-07
6.55507e-07
6.15296e-07
0.999991
0.999991
0.999991
0.999991
0.999991
0.999991
0.99999
0.99999
0.99999
0.99999
0.99999
0.99999
0.99999
0.99999
0.99999
0.99999
0.99999
0.99999
0.99999
0.99999
0.99999
0.99999
0.99999
0.99999
0.99999
0.99999
0.99999
0.99999
0.99999
0.99999
0.99999
0.99999
0.99999
0.99999
0.99999
0.99999
0.99999
0.99999
0.99999
0.99999
0.99999
0.99999
0.99999
0.99999
0.99999
0.99999
0.99999
0.999989
0.999986
0.999979
0.999967
0.999956
0.999949
0.999941
0.999935
0.999921
0.999901
0.999876
0.999763
0.816284
0.0086681
0.000141171
0.000107721
7.17853e-05
5.32204e-05
3.72179e-05
2.6656e-05
1.93414e-05
1.48222e-05
1.17203e-05
9.82458e-06
8.72598e-06
7.99031e-06
7.3429e-06
6.64088e-06
5.66729e-06
4.67904e-06
3.8015e-06
3.06259e-06
2.37025e-06
1.87204e-06
1.52292e-06
1.31967e-06
1.19181e-06
1.07695e-06
1.02826e-06
9.92774e-07
9.55362e-07
9.26171e-07
8.95517e-07
8.59455e-07
8.02034e-07
7.31948e-07
6.83752e-07
6.62674e-07
6.14237e-07
0.999991
0.999991
0.999991
0.999991
0.999991
0.999991
0.999991
0.999991
0.99999
0.99999
0.99999
0.99999
0.99999
0.99999
0.99999
0.99999
0.99999
0.99999
0.99999
0.99999
0.99999
0.99999
0.99999
0.99999
0.99999
0.99999
0.99999
0.99999
0.99999
0.99999
0.99999
0.99999
0.99999
0.99999
0.99999
0.99999
0.99999
0.99999
0.99999
0.99999
0.99999
0.99999
0.99999
0.99999
0.99999
0.99999
0.99999
0.999989
0.999985
0.999973
0.999959
0.999949
0.999939
0.999926
0.99991
0.999889
0.999873
0.999862
0.999847
0.712686
0.00991653
0.00320961
0.0029292
0.00254314
0.00226915
0.00196429
0.00168319
0.00141282
0.00117436
0.000965045
0.000795446
0.000661096
0.00055533
0.000473365
0.000398058
0.000331966
0.000272418
0.000218841
0.000172684
0.000132508
9.83619e-05
7.14217e-05
5.38045e-05
4.35892e-05
3.4783e-05
2.81299e-05
2.01995e-05
1.28686e-05
7.50271e-06
4.09737e-06
2.24635e-06
1.2624e-06
8.40704e-07
6.89102e-07
6.5021e-07
6.04822e-07
0.999991
0.999991
0.999991
0.999991
0.999991
0.999991
0.999991
0.999991
0.999991
0.99999
0.99999
0.99999
0.99999
0.99999
0.99999
0.99999
0.99999
0.99999
0.99999
0.99999
0.99999
0.99999
0.99999
0.99999
0.99999
0.99999
0.99999
0.99999
0.99999
0.99999
0.99999
0.99999
0.99999
0.99999
0.99999
0.99999
0.99999
0.99999
0.99999
0.99999
0.99999
0.99999
0.99999
0.99999
0.99999
0.99999
0.999989
0.999987
0.999982
0.999969
0.999953
0.999945
0.999934
0.999919
0.999901
0.99989
0.999887
0.999887
0.99976
0.574524
0.0196425
0.0153064
0.015455
0.0152554
0.0150495
0.014635
0.0141167
0.0134969
0.0127392
0.0118882
0.0109901
0.0100744
0.00917314
0.00829159
0.00742021
0.00658292
0.00575698
0.00496375
0.00421546
0.00351899
0.00288931
0.00234573
0.0019124
0.00158545
0.00132299
0.00106666
0.000858333
0.000669708
0.000493347
0.000332062
0.00020644
0.000116159
5.39703e-05
1.5569e-05
2.18541e-06
5.85385e-07
0.999992
0.999992
0.999991
0.999991
0.999991
0.999991
0.999991
0.999991
0.999991
0.99999
0.99999
0.99999
0.99999
0.99999
0.99999
0.99999
0.99999
0.99999
0.99999
0.99999
0.99999
0.99999
0.99999
0.99999
0.99999
0.99999
0.99999
0.99999
0.99999
0.99999
0.99999
0.99999
0.99999
0.99999
0.99999
0.99999
0.99999
0.99999
0.99999
0.99999
0.99999
0.99999
0.99999
0.99999
0.99999
0.99999
0.999989
0.999985
0.999979
0.999968
0.999953
0.999944
0.999935
0.999928
0.999918
0.999911
0.999909
0.999905
0.998974
0.571933
0.0320947
0.0260837
0.0272253
0.0279194
0.0285302
0.029043
0.0293857
0.0297161
0.0299959
0.0302699
0.0305168
0.0307341
0.0308478
0.0308733
0.0307184
0.0304346
0.0299429
0.0292982
0.0284232
0.0273389
0.026002
0.0244433
0.0226868
0.0207463
0.0186494
0.0166248
0.0146563
0.0128032
0.0110875
0.00947843
0.00784863
0.00623662
0.00455628
0.00279513
0.00139481
0.0009543
0.999992
0.999992
0.999992
0.999992
0.999991
0.999991
0.999991
0.999991
0.999991
0.99999
0.99999
0.99999
0.99999
0.99999
0.99999
0.99999
0.99999
0.99999
0.99999
0.99999
0.99999
0.99999
0.99999
0.99999
0.99999
0.99999
0.99999
0.99999
0.99999
0.99999
0.99999
0.99999
0.99999
0.99999
0.99999
0.99999
0.99999
0.99999
0.99999
0.99999
0.99999
0.99999
0.99999
0.99999
0.99999
0.999989
0.999988
0.999983
0.999977
0.999963
0.999952
0.999946
0.999942
0.999942
0.999937
0.999932
0.999928
0.999922
0.998027
0.716954
0.0343002
0.0207665
0.0217964
0.0223943
0.0232637
0.0244263
0.0258605
0.0274186
0.0291813
0.030998
0.0328746
0.034836
0.0368786
0.0390035
0.0412992
0.0437678
0.0464469
0.0493446
0.052419
0.0555953
0.0588179
0.0621102
0.0655267
0.0691826
0.0730744
0.0771859
0.0815706
0.0862788
0.0913977
0.0972048
0.104207
0.113084
0.125523
0.145997
0.193922
0.388207
0.999992
0.999992
0.999992
0.999992
0.999992
0.999992
0.999991
0.999991
0.999991
0.99999
0.99999
0.99999
0.99999
0.99999
0.99999
0.99999
0.99999
0.99999
0.99999
0.99999
0.99999
0.99999
0.99999
0.99999
0.99999
0.99999
0.99999
0.99999
0.99999
0.99999
0.99999
0.99999
0.99999
0.99999
0.99999
0.99999
0.99999
0.99999
0.99999
0.99999
0.99999
0.99999
0.99999
0.99999
0.99999
0.999989
0.999987
0.999983
0.999977
0.999966
0.999955
0.999951
0.999947
0.999944
0.999936
0.999929
0.999925
0.99992
0.999761
0.843303
0.0212656
0.00507176
0.0047523
0.00392805
0.00366781
0.00348094
0.003525
0.00363611
0.00375594
0.00388673
0.00401802
0.00412103
0.00420873
0.00428705
0.00442085
0.00458988
0.00482643
0.00509054
0.0053914
0.00577293
0.0062372
0.00684673
0.0076386
0.00855245
0.00956038
0.0105949
0.011678
0.0128083
0.0139232
0.015
0.0159732
0.0170193
0.0182667
0.0193568
0.0198343
0.0176867
0.999993
0.999992
0.999992
0.999992
0.999992
0.999992
0.999992
0.999991
0.999991
0.999991
0.99999
0.99999
0.99999
0.99999
0.99999
0.99999
0.99999
0.99999
0.99999
0.99999
0.99999
0.99999
0.99999
0.99999
0.99999
0.99999
0.99999
0.99999
0.99999
0.99999
0.99999
0.99999
0.99999
0.99999
0.99999
0.99999
0.99999
0.99999
0.99999
0.99999
0.99999
0.99999
0.99999
0.99999
0.99999
0.999988
0.999986
0.999983
0.999979
0.999975
0.999963
0.999958
0.999954
0.999949
0.999938
0.999933
0.99993
0.999918
0.999917
0.900618
0.014257
0.000707014
0.000601405
0.000415738
0.000357288
0.000310368
0.000312875
0.000323024
0.000340477
0.00035681
0.000375324
0.000390137
0.000403011
0.000412907
0.000418744
0.000419968
0.000420799
0.000419213
0.000422791
0.000442021
0.000487224
0.000586012
0.000719641
0.000880717
0.0010493
0.00123267
0.00143875
0.00163881
0.00185415
0.00208734
0.00230359
0.00242868
0.00237417
0.0018619
0.0011161
0.000488789
0.999993
0.999993
0.999993
0.999993
0.999993
0.999992
0.999992
0.999991
0.999991
0.999991
0.99999
0.99999
0.99999
0.99999
0.99999
0.99999
0.99999
0.99999
0.99999
0.99999
0.99999
0.99999
0.99999
0.99999
0.99999
0.99999
0.99999
0.99999
0.99999
0.99999
0.99999
0.99999
0.99999
0.99999
0.99999
0.99999
0.99999
0.99999
0.99999
0.99999
0.99999
0.99999
0.99999
0.99999
0.99999
0.999989
0.999987
0.999985
0.99998
0.999977
0.999969
0.999964
0.999962
0.999959
0.999952
0.999943
0.999937
0.999914
0.999895
0.937398
0.018344
5.03832e-05
4.35648e-05
2.53908e-05
2.22696e-05
1.95782e-05
1.97791e-05
1.99573e-05
2.0265e-05
2.02006e-05
2.02858e-05
2.04487e-05
2.0734e-05
2.09565e-05
2.15126e-05
2.17612e-05
2.0741e-05
1.90168e-05
1.84361e-05
1.9076e-05
2.13919e-05
2.67343e-05
3.35419e-05
4.1636e-05
4.87024e-05
5.24856e-05
5.30657e-05
5.11559e-05
4.85e-05
4.57243e-05
4.47379e-05
4.27732e-05
3.36932e-05
1.90327e-05
8.5522e-06
3.52849e-06
0.999994
0.999993
0.999993
0.999993
0.999993
0.999993
0.999992
0.999991
0.999991
0.999991
0.99999
0.99999
0.99999
0.99999
0.99999
0.99999
0.99999
0.99999
0.99999
0.99999
0.99999
0.99999
0.99999
0.99999
0.99999
0.99999
0.99999
0.99999
0.99999
0.99999
0.99999
0.99999
0.99999
0.99999
0.99999
0.99999
0.99999
0.99999
0.99999
0.99999
0.99999
0.99999
0.99999
0.99999
0.99999
0.99999
0.999988
0.999987
0.999983
0.99998
0.999974
0.999967
0.999963
0.999959
0.999954
0.999948
0.99994
0.999915
0.99985
0.954619
0.0239093
1.95101e-06
3.04648e-06
1.62543e-06
1.63911e-06
1.51203e-06
1.51289e-06
1.47397e-06
1.45142e-06
1.41359e-06
1.39607e-06
1.37985e-06
1.36331e-06
1.34292e-06
1.32435e-06
1.30331e-06
1.24632e-06
1.19529e-06
1.17738e-06
1.16701e-06
1.17693e-06
1.19185e-06
1.21365e-06
1.24472e-06
1.25649e-06
1.20006e-06
1.06881e-06
9.60707e-07
9.05973e-07
8.5512e-07
7.88812e-07
7.10873e-07
6.37454e-07
5.93292e-07
5.65837e-07
5.51614e-07
0.999995
0.999994
0.999994
0.999993
0.999993
0.999993
0.999992
0.999991
0.999991
0.999991
0.99999
0.99999
0.99999
0.99999
0.99999
0.99999
0.99999
0.99999
0.99999
0.99999
0.99999
0.99999
0.99999
0.99999
0.99999
0.99999
0.99999
0.99999
0.99999
0.99999
0.99999
0.99999
0.99999
0.99999
0.99999
0.99999
0.99999
0.99999
0.99999
0.99999
0.99999
0.99999
0.99999
0.99999
0.99999
0.99999
0.999989
0.999987
0.999985
0.999983
0.999979
0.999971
0.999962
0.999955
0.999949
0.999946
0.99994
0.999922
0.999799
0.96287
0.0389892
2.97442e-05
1.36562e-06
1.30081e-06
1.3028e-06
1.27348e-06
1.26583e-06
1.24595e-06
1.23638e-06
1.21214e-06
1.19892e-06
1.17953e-06
1.16561e-06
1.14694e-06
1.12966e-06
1.11379e-06
1.10299e-06
1.08789e-06
1.07034e-06
1.05713e-06
1.04331e-06
1.02876e-06
1.01674e-06
1.00372e-06
9.87074e-07
9.61003e-07
9.21129e-07
8.68179e-07
8.06242e-07
7.43527e-07
6.85725e-07
6.32673e-07
5.64892e-07
5.27724e-07
5.0226e-07
4.80428e-07
0.999995
0.999994
0.999995
0.999994
0.999993
0.999993
0.999992
0.999992
0.999992
0.999991
0.99999
0.99999
0.99999
0.99999
0.99999
0.99999
0.99999
0.99999
0.99999
0.99999
0.99999
0.99999
0.99999
0.99999
0.99999
0.99999
0.99999
0.99999
0.99999
0.99999
0.99999
0.99999
0.99999
0.99999
0.99999
0.99999
0.99999
0.99999
0.99999
0.99999
0.99999
0.99999
0.99999
0.99999
0.99999
0.99999
0.999989
0.999988
0.999985
0.999983
0.99998
0.999972
0.999961
0.999953
0.999945
0.999941
0.999936
0.999909
0.999734
0.956494
0.0379849
3.89397e-05
1.33119e-06
1.2908e-06
1.26424e-06
1.24432e-06
1.24141e-06
1.21977e-06
1.21082e-06
1.19048e-06
1.17971e-06
1.16263e-06
1.15194e-06
1.13493e-06
1.11967e-06
1.10444e-06
1.09123e-06
1.07765e-06
1.06429e-06
1.05264e-06
1.03941e-06
1.02625e-06
1.01552e-06
1.00335e-06
9.87368e-07
9.63704e-07
9.2393e-07
8.70131e-07
8.05141e-07
7.30083e-07
6.59204e-07
5.99442e-07
5.58374e-07
5.31663e-07
5.18223e-07
4.88424e-07
0.999996
0.999995
0.999995
0.999994
0.999994
0.999993
0.999992
0.999992
0.999992
0.999991
0.99999
0.99999
0.99999
0.99999
0.99999
0.99999
0.99999
0.99999
0.99999
0.99999
0.99999
0.99999
0.99999
0.99999
0.99999
0.99999
0.99999
0.99999
0.99999
0.99999
0.99999
0.99999
0.99999
0.99999
0.99999
0.99999
0.99999
0.99999
0.99999
0.99999
0.99999
0.99999
0.99999
0.99999
0.99999
0.99999
0.999989
0.999988
0.999986
0.999982
0.999979
0.999974
0.999961
0.999956
0.999941
0.999929
0.999923
0.999908
0.999754
0.936741
0.0315778
6.94648e-05
1.3457e-06
1.27494e-06
1.25609e-06
1.22992e-06
1.22464e-06
1.20383e-06
1.19611e-06
1.17788e-06
1.16867e-06
1.15116e-06
1.13902e-06
1.12336e-06
1.11127e-06
1.0979e-06
1.08494e-06
1.07372e-06
1.06123e-06
1.04947e-06
1.03657e-06
1.0238e-06
1.01313e-06
1.00129e-06
9.86658e-07
9.68535e-07
9.38241e-07
8.88448e-07
8.21003e-07
7.4131e-07
6.55442e-07
5.80732e-07
5.47216e-07
5.24026e-07
5.10739e-07
4.88978e-07
0.999997
0.999996
0.999995
0.999995
0.999994
0.999994
0.999993
0.999993
0.999992
0.999991
0.99999
0.99999
0.99999
0.99999
0.99999
0.99999
0.99999
0.99999
0.99999
0.99999
0.99999
0.99999
0.99999
0.99999
0.99999
0.99999
0.99999
0.99999
0.99999
0.99999
0.99999
0.99999
0.99999
0.99999
0.99999
0.99999
0.99999
0.99999
0.99999
0.99999
0.99999
0.99999
0.99999
0.99999
0.99999
0.99999
0.999989
0.999988
0.999985
0.999982
0.999978
0.999974
0.99997
0.999964
0.999946
0.99993
0.999927
0.999912
0.999654
0.959415
0.0510371
0.00033277
1.73016e-06
1.27174e-06
1.25757e-06
1.22999e-06
1.22392e-06
1.20252e-06
1.19422e-06
1.17513e-06
1.16512e-06
1.14837e-06
1.13729e-06
1.12254e-06
1.11012e-06
1.0974e-06
1.08647e-06
1.07463e-06
1.06188e-06
1.05083e-06
1.03841e-06
1.02553e-06
1.01537e-06
1.00395e-06
9.90554e-07
9.77202e-07