/*--------------------------------*- C++ -*----------------------------------*\
| =========                 |                                                 |
| \\      /  F ield         | OpenFOAM: The Open Source CFD Toolbox           |
|  \\    /   O peration     | Version:  2.3.0                                 |
|   \\  /    A nd           | Web:      www.OpenFOAM.org                      |
|    \\/     M anipulation  |                                                 |
\*---------------------------------------------------------------------------*/
FoamFile
{
    version     2.0;
    format      ascii;
    class       volScalarField;
    location    "13";
    object      alpha.water;
}
// * * * * * * * * * * * * * * * * * * * * * * * * * * * * * * * * * * * * * //

dimensions      [0 0 0 0 0 0 0];

internalField   nonuniform List<scalar> 
6144
(
9.09724e-06
9.14787e-06
9.4875e-06
9.61699e-06
9.74009e-06
9.88825e-06
9.94331e-06
9.97034e-06
9.97836e-06
9.98823e-06
9.98926e-06
9.99241e-06
9.99252e-06
9.99328e-06
9.99307e-06
9.99307e-06
9.99306e-06
9.99306e-06
9.99306e-06
9.99309e-06
9.99367e-06
9.99392e-06
9.99392e-06
9.99398e-06
9.99399e-06
9.99402e-06
9.99401e-06
9.99401e-06
9.99397e-06
9.99397e-06
9.99391e-06
9.99391e-06
9.9939e-06
9.9939e-06
9.9939e-06
9.9939e-06
9.99389e-06
9.99389e-06
9.99389e-06
9.99389e-06
9.99393e-06
9.99468e-06
9.99579e-06
9.99764e-06
1.00006e-05
1.00542e-05
1.13489e-05
2.27398e-05
5.24892e-05
6.58338e-05
6.76853e-05
7.04457e-05
7.32743e-05
7.75277e-05
7.88155e-05
8.7941e-05
8.52874e-05
7.86293e-05
0.00149955
0.0816479
0.972858
0.999886
0.999999
0.999999
0.999999
0.999999
0.999999
0.999999
0.999999
0.999999
0.999999
0.999999
0.999999
0.999999
0.999999
0.999999
0.999999
0.999999
0.999999
0.999999
0.999999
0.999999
0.999999
0.999999
0.999999
0.999999
0.999999
0.999999
0.999999
0.999999
1
1
0.999999
0.999999
1
1
8.32538e-06
8.28281e-06
9.29849e-06
9.28475e-06
9.61639e-06
9.78786e-06
9.83197e-06
9.88227e-06
9.90129e-06
9.93937e-06
9.97243e-06
9.99057e-06
9.99476e-06
9.99722e-06
9.99584e-06
9.99657e-06
9.9956e-06
9.99612e-06
9.99555e-06
9.99594e-06
9.99564e-06
9.99579e-06
9.99564e-06
9.99569e-06
9.99561e-06
9.99561e-06
9.99555e-06
9.99557e-06
9.99548e-06
9.99557e-06
9.99531e-06
9.99563e-06
9.99508e-06
9.99585e-06
9.99483e-06
9.99615e-06
9.99497e-06
9.99626e-06
9.99562e-06
9.99628e-06
9.99583e-06
9.99608e-06
9.99599e-06
9.99601e-06
1.00057e-05
1.03071e-05
1.24074e-05
2.0808e-05
4.12758e-05
6.50251e-05
7.41287e-05
8.01033e-05
8.12183e-05
8.06859e-05
8.17396e-05
9.85661e-05
9.43845e-05
9.85466e-05
0.000855973
0.0850437
0.981723
0.999965
0.999999
0.999999
0.999999
0.999999
0.999999
0.999999
0.999999
0.999999
0.999999
0.999999
0.999999
0.999999
0.999999
0.999999
0.999999
0.999999
0.999999
0.999999
0.999999
0.999999
0.999999
0.999999
0.999999
0.999999
0.999999
0.999999
0.999999
0.999999
0.999999
0.999999
0.999999
0.999999
0.999999
1
7.34377e-06
7.40022e-06
8.82328e-06
8.39186e-06
9.44494e-06
9.57965e-06
9.73338e-06
9.83078e-06
9.79437e-06
9.85112e-06
9.91553e-06
9.9702e-06
9.99376e-06
9.99821e-06
9.99725e-06
9.9976e-06
9.99696e-06
9.99727e-06
9.99691e-06
9.99715e-06
9.99693e-06
9.99706e-06
9.99693e-06
9.99697e-06
9.99689e-06
9.9969e-06
9.99683e-06
9.99684e-06
9.99676e-06
9.99684e-06
9.99659e-06
9.99688e-06
9.99646e-06
9.99702e-06
9.99634e-06
9.99723e-06
9.99621e-06
9.99756e-06
9.99645e-06
9.99756e-06
9.9967e-06
9.99731e-06
9.99746e-06
9.99976e-06
1.00378e-05
1.09067e-05
1.56005e-05
2.4958e-05
4.14728e-05
6.3304e-05
7.79926e-05
8.40308e-05
8.31154e-05
7.83411e-05
7.94229e-05
0.000103605
9.92227e-05
0.000113318
0.000740585
0.0973731
0.984756
0.999976
0.999999
0.999999
0.999999
0.999999
0.999999
0.999999
0.999999
0.999999
0.999999
0.999999
0.999999
0.999999
0.999999
0.999999
0.999999
0.999999
0.999999
0.999999
0.999999
0.999999
0.999999
0.999999
0.999999
0.999999
0.999999
0.999999
0.999999
0.999999
0.999999
0.999999
0.999999
0.999999
0.999999
0.999999
6.41267e-06
6.47144e-06
7.5836e-06
7.10534e-06
8.73835e-06
8.99347e-06
9.56667e-06
9.8244e-06
9.82058e-06
9.84653e-06
9.89599e-06
9.96094e-06
9.99061e-06
9.9962e-06
9.99604e-06
9.99603e-06
9.99586e-06
9.99586e-06
9.99574e-06
9.99574e-06
9.99565e-06
9.99565e-06
9.99559e-06
9.99557e-06
9.99552e-06
9.99551e-06
9.99547e-06
9.99547e-06
9.99543e-06
9.99543e-06
9.99536e-06
9.99536e-06
9.99529e-06
9.99529e-06
9.99525e-06
9.99525e-06
9.99525e-06
9.99534e-06
9.99535e-06
9.99536e-06
9.99536e-06
9.99549e-06
9.99692e-06
1.00051e-05
1.00379e-05
1.04821e-05
1.40318e-05
2.23373e-05
3.5097e-05
6.21695e-05
7.9767e-05
8.71396e-05
8.60424e-05
8.03499e-05
9.18795e-05
0.00012601
0.000129019
0.000158138
0.000597257
0.108064
0.984617
0.999889
0.999912
0.999909
0.99992
0.999937
0.999963
0.999981
0.999992
0.999997
0.999999
0.999999
0.999999
0.999999
0.999999
0.999999
0.999999
0.999999
0.999999
0.999999
0.999999
0.999999
0.999999
0.999999
0.999999
0.999999
0.999999
0.999999
0.999999
0.999999
0.999999
0.999999
0.999999
0.999999
0.999999
1
5.72434e-06
5.58882e-06
6.30954e-06
6.00212e-06
7.41353e-06
7.98416e-06
8.92519e-06
9.38624e-06
9.81263e-06
9.93823e-06
9.92178e-06
9.96056e-06
9.98947e-06
9.99606e-06
9.99656e-06
9.9971e-06
9.997e-06
9.99728e-06
9.99717e-06
9.99732e-06
9.99721e-06
9.9973e-06
9.99721e-06
9.99724e-06
9.99713e-06
9.99712e-06
9.99702e-06
9.99701e-06
9.99689e-06
9.9969e-06
9.99668e-06
9.99686e-06
9.99648e-06
9.99683e-06
9.99622e-06
9.99673e-06
9.99598e-06
9.99635e-06
9.99563e-06
9.99598e-06
9.99564e-06
9.99667e-06
9.9986e-06
1.00123e-05
1.00501e-05
1.01974e-05
1.12734e-05
1.48208e-05
2.79827e-05
6.29609e-05
8.05108e-05
8.97772e-05
9.28959e-05
9.31831e-05
0.000109637
0.000140411
0.000143834
0.000211335
0.000713073
0.120906
0.976482
0.998711
0.998544
0.998455
0.998401
0.998437
0.998791
0.999127
0.999439
0.999681
0.999839
0.999919
0.999957
0.999974
0.999978
0.999978
0.999976
0.999975
0.999973
0.999972
0.999975
0.999976
0.999982
0.999989
0.999993
0.999996
0.999997
0.999998
0.999999
0.999999
0.999999
0.999999
0.999999
0.999999
1
1
5.39373e-06
5.02535e-06
5.47383e-06
5.18865e-06
6.20645e-06
6.89061e-06
8.10815e-06
8.85276e-06
9.29289e-06
9.81284e-06
9.94307e-06
9.97001e-06
9.98599e-06
9.99204e-06
9.99197e-06
9.99197e-06
9.99186e-06
9.99186e-06
9.99169e-06
9.99164e-06
9.9915e-06
9.99144e-06
9.99137e-06
9.99132e-06
9.99128e-06
9.99125e-06
9.99124e-06
9.99123e-06
9.99123e-06
9.99123e-06
9.99123e-06
9.99122e-06
9.99122e-06
9.99122e-06
9.99122e-06
9.99122e-06
9.99122e-06
9.99122e-06
9.99122e-06
9.99122e-06
9.99123e-06
9.99261e-06
9.99606e-06
1.00123e-05
1.00547e-05
1.01467e-05
1.05797e-05
1.223e-05
2.46928e-05
6.28715e-05
7.92526e-05
9.04215e-05
9.85319e-05
0.000109316
0.00011769
0.000112362
0.000102206
0.000245021
0.000705458
0.123308
0.969411
0.994303
0.993146
0.992607
0.992295
0.99228
0.992919
0.993782
0.994827
0.995811
0.996766
0.997554
0.998124
0.998503
0.998709
0.998798
0.99881
0.998751
0.998718
0.998697
0.998768
0.998953
0.999235
0.999537
0.999678
0.999678
0.999669
0.999728
0.99979
0.999851
0.999909
0.999955
0.999982
0.999995
0.999999
1
5.35385e-06
4.86698e-06
4.99249e-06
4.69991e-06
5.30902e-06
6.01073e-06
7.18691e-06
8.48342e-06
8.81664e-06
9.35604e-06
9.83103e-06
9.97107e-06
9.9924e-06
9.99754e-06
9.99653e-06
9.99751e-06
9.99698e-06
9.99754e-06
9.99736e-06
9.99772e-06
9.99765e-06
9.99783e-06
9.9978e-06
9.9979e-06
9.99782e-06
9.9979e-06
9.99791e-06
9.998e-06
9.99802e-06
9.99821e-06
9.99824e-06
9.99856e-06
9.9986e-06
9.99913e-06
9.99927e-06
1.00002e-05
1.00006e-05
1.00016e-05
1.00017e-05
1.00016e-05
1.00014e-05
1.00013e-05
1.00013e-05
1.00151e-05
1.00523e-05
1.01375e-05
1.0438e-05
1.12693e-05
2.63061e-05
6.51694e-05
7.78558e-05
8.57695e-05
9.22325e-05
9.55524e-05
9.39619e-05
9.01795e-05
8.56793e-05
0.000104283
0.000543207
0.123124
0.964888
0.988619
0.987054
0.986724
0.986631
0.986797
0.987245
0.987607
0.988098
0.988549
0.989187
0.99004
0.990942
0.9918
0.992514
0.993044
0.993419
0.993666
0.993941
0.994413
0.99517
0.996125
0.997113
0.997394
0.997177
0.997053
0.997036
0.997207
0.99744
0.997702
0.997935
0.998184
0.998661
0.999261
0.999751
1
5.41391e-06
4.90641e-06
4.95806e-06
4.57109e-06
4.67344e-06
5.43254e-06
6.60083e-06
8.13667e-06
8.58777e-06
8.97939e-06
9.62579e-06
9.93798e-06
9.99022e-06
9.9983e-06
9.99858e-06
9.99935e-06
9.99929e-06
1e-05
1.00001e-05
1.00006e-05
1.00007e-05
1.0001e-05
1.00011e-05
1.00014e-05
1.00019e-05
1.00021e-05
1.00023e-05
1.00025e-05
1.00028e-05
1.0003e-05
1.00031e-05
1.00031e-05
1.00031e-05
1.00031e-05
1.00031e-05
1.00031e-05
1.00031e-05
1.0003e-05
1.0003e-05
1.00029e-05
1.00025e-05
1.0003e-05
1.00036e-05
1.00164e-05
1.00486e-05
1.01258e-05
1.03131e-05
1.11376e-05
4.61342e-05
7.28186e-05
7.70628e-05
7.98948e-05
8.14829e-05
8.09509e-05
7.81682e-05
7.64065e-05
7.41669e-05
7.87319e-05
0.000367839
0.110902
0.955921
0.987018
0.986064
0.986139
0.986227
0.986109
0.986385
0.986091
0.985805
0.985444
0.985099
0.98481
0.984595
0.984435
0.984324
0.984331
0.984713
0.985131
0.985843
0.98646
0.986887
0.987
0.986253
0.985351
0.983958
0.982477
0.981238
0.980321
0.979186
0.977889
0.976656
0.975892
0.975547
0.976549
0.979053
0.982832
4.94844e-06
4.89153e-06
5.22254e-06
4.55862e-06
4.43154e-06
5.31414e-06
6.49348e-06
8.1301e-06
8.50697e-06
8.79484e-06
9.42516e-06
9.84233e-06
9.97222e-06
9.99201e-06
9.99213e-06
9.9924e-06
9.99237e-06
9.99324e-06
9.99348e-06
9.99406e-06
9.99424e-06
9.99462e-06
9.99476e-06
9.99517e-06
9.99559e-06
9.99585e-06
9.99597e-06
9.99608e-06
9.9961e-06
9.99612e-06
9.99606e-06
9.99605e-06
9.99594e-06
9.99591e-06
9.9958e-06
9.9958e-06
9.99579e-06
9.9958e-06
9.9958e-06
9.99579e-06
9.99579e-06
9.99579e-06
9.99619e-06
1.00062e-05
1.00249e-05
1.00794e-05
1.02224e-05
1.04465e-05
3.54752e-05
7.10378e-05
7.40634e-05
7.52254e-05
7.53628e-05
7.39537e-05
7.26063e-05
7.53325e-05
7.26841e-05
7.59296e-05
0.000340953
0.0861274
0.957801
0.992803
0.993536
0.995549
0.996568
0.996942
0.996458
0.996004
0.995465
0.994753
0.993876
0.992936
0.992164
0.991602
0.99115
0.990821
0.990651
0.990606
0.990842
0.991294
0.992114
0.993196
0.994347
0.995729
0.997156
0.998191
0.998588
0.998397
0.9982
0.998043
0.997999
0.99802
0.998149
0.998641
0.999123
0.99952
1.87816e-06
4.83753e-06
6.09496e-06
5.1849e-06
4.39599e-06
5.2552e-06
6.62393e-06
8.15154e-06
8.54165e-06
8.91939e-06
9.46857e-06
9.85229e-06
9.97638e-06
9.99543e-06
9.99573e-06
9.99666e-06
9.99705e-06
9.99819e-06
9.99854e-06
9.99912e-06
9.99921e-06
9.99943e-06
9.99938e-06
9.99949e-06
9.9995e-06
9.99938e-06
9.99911e-06
9.99881e-06
9.99843e-06
9.99806e-06
9.99767e-06
9.99736e-06
9.99699e-06
9.99674e-06
9.99643e-06
9.99628e-06
9.99607e-06
9.99596e-06
9.99585e-06
9.99584e-06
9.99625e-06
9.99871e-06
1.00024e-05
1.00077e-05
1.00142e-05
1.00461e-05
1.02603e-05
1.06984e-05
1.45343e-05
6.10669e-05
7.1361e-05
7.22258e-05
7.33039e-05
7.23384e-05
6.94255e-05
7.11197e-05
7.1323e-05
7.53883e-05
0.000269911
0.0553369
0.968085
0.998705
0.99919
0.999628
0.999719
0.999722
0.999665
0.999605
0.999533
0.999428
0.999283
0.999114
0.998947
0.998775
0.998606
0.998483
0.998415
0.998399
0.998504
0.998658
0.998989
0.999343
0.999654
0.999867
0.999976
0.999999
0.999999
0.999999
0.999999
0.999999
0.999999
0.999999
0.999999
0.999999
0.999999
0.999999
1.54976e-06
5.2411e-06
6.88846e-06
6.20191e-06
5.09002e-06
6.14339e-06
7.38176e-06
8.34584e-06
8.80382e-06
9.34496e-06
9.72034e-06
9.92129e-06
9.98727e-06
9.99665e-06
9.99455e-06
9.99455e-06
9.99454e-06
9.99454e-06
9.99454e-06
9.99454e-06
9.99454e-06
9.99529e-06
9.99575e-06
9.99601e-06
9.9962e-06
9.99637e-06
9.9965e-06
9.99663e-06
9.99674e-06
9.99681e-06
9.99679e-06
9.99679e-06
9.99673e-06
9.99673e-06
9.99662e-06
9.99664e-06
9.99656e-06
9.99672e-06
9.99694e-06
9.99852e-06
1.00018e-05
1.00061e-05
1.00074e-05
1.00104e-05
1.00187e-05
1.00633e-05
1.04024e-05
1.17966e-05
1.14409e-05
3.65306e-05
6.4066e-05
6.97249e-05
7.15993e-05
7.22679e-05
7.10788e-05
7.2839e-05
7.284e-05
7.62294e-05
0.000194146
0.037618
0.965155
0.999874
0.999984
0.999996
0.999998
0.999999
0.999998
0.999997
0.999995
0.999993
0.999988
0.999981
0.999973
0.999964
0.999958
0.999954
0.999953
0.999959
0.999967
0.999977
0.999988
0.999995
0.999998
0.999999
0.999999
0.999999
0.999999
0.999999
0.999999
0.999999
0.999999
0.999999
0.999999
0.999999
1
1
2.09464e-06
5.59131e-06
6.89606e-06
6.46134e-06
6.05843e-06
7.18168e-06
8.06213e-06
8.65367e-06
9.23378e-06
9.70705e-06
9.91328e-06
9.98626e-06
1.00049e-05
1.00072e-05
1.00056e-05
1.00052e-05
1.00046e-05
1.00045e-05
1.00043e-05
1.00043e-05
1.00042e-05
1.00042e-05
1.00041e-05
1.00042e-05
1.00041e-05
1.00041e-05
1.00041e-05
1.00041e-05
1.00041e-05
1.00041e-05
1.00039e-05
1.00039e-05
1.00036e-05
1.00037e-05
1.00034e-05
1.00034e-05
1.0003e-05
1.00036e-05
1.00047e-05
1.00069e-05
1.00071e-05
1.00071e-05
1.00071e-05
1.00093e-05
1.00253e-05
1.00857e-05
1.04742e-05
1.22899e-05
1.35661e-05
1.77375e-05
4.63247e-05
6.37569e-05
6.90091e-05
7.12511e-05
7.15191e-05
7.30202e-05
7.33489e-05
7.70184e-05
0.000263682
0.0305722
0.960532
0.999877
0.999999
0.999999
0.999999
0.999999
0.999999
0.999999
0.999999
0.999999
0.999999
0.999999
0.999999
0.999999
0.999999
0.999999
0.999999
0.999999
0.999999
0.999999
0.999999
0.999999
0.999999
0.999999
0.999999
0.999999
0.999999
0.999999
0.999999
0.999999
0.999999
0.999999
0.999999
1
1
1
2.31668e-06
5.43156e-06
6.56926e-06
6.81549e-06
7.11668e-06
7.82812e-06
8.4274e-06
9.01876e-06
9.55645e-06
9.85423e-06
9.9672e-06
1.00025e-05
1.00083e-05
1.00083e-05
1.00083e-05
1.00083e-05
1.00083e-05
1.00083e-05
1.00083e-05
1.00083e-05
1.00083e-05
1.00083e-05
1.00082e-05
1.0008e-05
1.00078e-05
1.00076e-05
1.00074e-05
1.00072e-05
1.00071e-05
1.00069e-05
1.00068e-05
1.00067e-05
1.00066e-05
1.00066e-05
1.00064e-05
1.00064e-05
1.00062e-05
1.00064e-05
1.00066e-05
1.00069e-05
1.00069e-05
1.0007e-05
1.00068e-05
1.00103e-05
1.00319e-05
1.01126e-05
1.05135e-05
1.24527e-05
1.69866e-05
1.74237e-05
2.97423e-05
5.06578e-05
6.20001e-05
6.74775e-05
6.94869e-05
7.13817e-05
7.19967e-05
7.61863e-05
0.000317742
0.0299671
0.957823
0.999843
0.999999
0.999999
0.999999
0.999999
0.999999
0.999999
0.999999
0.999999
0.999999
0.999999
0.999999
0.999999
0.999999
0.999999
0.999999
0.999999
0.999999
0.999999
0.999999
0.999999
0.999999
0.999999
0.999999
0.999999
0.999999
0.999999
0.999999
0.999999
0.999999
0.999999
0.999999
1
1
1
2.57223e-06
5.55236e-06
6.50939e-06
7.08366e-06
7.5391e-06
8.10035e-06
8.75176e-06
9.37575e-06
9.76279e-06
9.93097e-06
9.98793e-06
1.00037e-05
1.00067e-05
1.0007e-05
1.00067e-05
1.00068e-05
1.00067e-05
1.00067e-05
1.00067e-05
1.00067e-05
1.00067e-05
1.00066e-05
1.00066e-05
1.00065e-05
1.00063e-05
1.00062e-05
1.00061e-05
1.0006e-05
1.00059e-05
1.00059e-05
1.00058e-05
1.00058e-05
1.00058e-05
1.00059e-05
1.00059e-05
1.0006e-05
1.00059e-05
1.00061e-05
1.00062e-05
1.00065e-05
1.0006e-05
1.00055e-05
1.00044e-05
1.00082e-05
1.00348e-05
1.01346e-05
1.05274e-05
1.21469e-05
1.65565e-05
2.00132e-05
2.5039e-05
3.86686e-05
5.15367e-05
5.9984e-05
6.4925e-05
6.75468e-05
6.86245e-05
7.31403e-05
0.000324156
0.0281744
0.939216
0.999571
0.999999
0.999999
0.999999
0.999999
0.999999
0.999999
0.999999
0.999999
0.999999
0.999999
0.999999
0.999999
0.999999
0.999999
0.999999
0.999999
0.999999
0.999999
0.999999
0.999999
0.999999
0.999999
0.999999
0.999999
0.999999
0.999999
0.999999
0.999999
0.999999
0.999999
0.999999
0.999999
1
1
2.91661e-06
5.85332e-06
6.58574e-06
7.16517e-06
7.69367e-06
8.35993e-06
8.99808e-06
9.50361e-06
9.77523e-06
9.91972e-06
9.97588e-06
9.99607e-06
1.00001e-05
1.00011e-05
1.00009e-05
1.00014e-05
1.00015e-05
1.00016e-05
1.00018e-05
1.00018e-05
1.00019e-05
1.0002e-05
1.0002e-05
1.00021e-05
1.00022e-05
1.00022e-05
1.00023e-05
1.00023e-05
1.00023e-05
1.00024e-05
1.00024e-05
1.00025e-05
1.00025e-05
1.00027e-05
1.00028e-05
1.00032e-05
1.00033e-05
1.00036e-05
1.00034e-05
1.00034e-05
1.00023e-05
1.00016e-05
1.00004e-05
1.00088e-05
1.00507e-05
1.01913e-05
1.06159e-05
1.22802e-05
1.60791e-05
1.97902e-05
2.38534e-05
3.04814e-05
3.91727e-05
4.73735e-05
5.43448e-05
5.8091e-05
5.96049e-05
6.36964e-05
0.000149059
0.0489631
0.952099
0.999784
0.999999
0.999999
0.999999
0.999999
0.999999
0.999999
0.999999
0.999999
0.999999
0.999999
0.999999
0.999999
0.999999
0.999999
0.999999
0.999999
0.999999
0.999999
0.999999
0.999999
0.999999
0.999999
0.999999
0.999999
0.999999
0.999999
0.999999
0.999999
0.999999
0.999999
0.999999
1
1
1
2.72077e-06
5.37101e-06
6.28311e-06
7.0193e-06
7.67393e-06
8.37759e-06
8.9572e-06
9.42647e-06
9.72101e-06
9.89194e-06
9.97094e-06
1.00006e-05
1.00067e-05
1.00075e-05
1.00075e-05
1.0008e-05
1.00081e-05
1.00083e-05
1.00084e-05
1.00085e-05
1.00085e-05
1.00086e-05
1.00086e-05
1.00087e-05
1.00087e-05
1.00088e-05
1.00088e-05
1.00089e-05
1.00095e-05
1.00095e-05
1.00095e-05
1.00095e-05
1.00095e-05
1.00095e-05
1.00095e-05
1.00095e-05
1.00095e-05
1.00095e-05
1.00095e-05
1.00095e-05
1.00093e-05
1.0009e-05
1.0008e-05
1.00186e-05
1.00694e-05
1.02819e-05
1.12811e-05
1.565e-05
2.26366e-05
2.66414e-05
2.99573e-05
3.46474e-05
4.01427e-05
4.63911e-05
5.15833e-05
5.78129e-05
6.14141e-05
6.58574e-05
0.000327343
0.0477875
0.95893
0.999822
0.999999
0.999999
0.999999
0.999999
0.999999
0.999999
0.999999
0.999999
0.999999
0.999999
0.999999
0.999999
0.999999
0.999999
0.999999
0.999999
0.999999
0.999999
0.999999
0.999999
0.999999
0.999999
0.999999
0.999999
0.999999
0.999999
0.999999
0.999999
0.999999
0.999999
0.999999
1
1
1
9.12741e-06
9.26126e-06
9.41578e-06
9.46271e-06
9.49242e-06
9.53513e-06
9.49893e-06
9.51901e-06
9.59016e-06
9.71154e-06
9.90541e-06
9.98566e-06
1.00069e-05
1.00072e-05
1.00072e-05
1.00072e-05
1.00072e-05
1.00072e-05
1.00071e-05
1.00071e-05
1.0007e-05
1.0007e-05
1.00069e-05
1.00069e-05
1.00068e-05
1.00068e-05
1.00068e-05
1.00068e-05
1.00068e-05
1.00071e-05
1.00071e-05
1.00071e-05
1.00071e-05
1.00071e-05
1.00071e-05
1.00071e-05
1.00071e-05
1.00071e-05
1.00071e-05
1.00071e-05
1.00071e-05
1.00065e-05
1.00056e-05
1.00043e-05
1.00047e-05
1.00557e-05
1.14262e-05
2.32529e-05
5.15383e-05
6.48899e-05
6.68453e-05
6.84533e-05
6.91893e-05
7.19638e-05
7.20404e-05
7.46041e-05
7.48969e-05
8.08377e-05
0.000926636
0.0890612
0.980563
0.999973
0.999999
0.999999
0.999999
0.999999
0.999999
0.999999
0.999999
0.999999
0.999999
0.999999
0.999999
0.999999
0.999999
0.999999
0.999999
0.999999
0.999999
0.999999
0.999999
0.999999
0.999999
0.999999
0.999999
0.999999
0.999999
0.999999
0.999999
0.999999
0.999999
1
1
1
1
1
8.44541e-06
8.64107e-06
9.11333e-06
8.98836e-06
9.28024e-06
9.28239e-06
9.24265e-06
9.27871e-06
9.30888e-06
9.36798e-06
9.64545e-06
9.90101e-06
9.9947e-06
1.00072e-05
1.00072e-05
1.00072e-05
1.00072e-05
1.00072e-05
1.00072e-05
1.00072e-05
1.00069e-05
1.0007e-05
1.00067e-05
1.00067e-05
1.00065e-05
1.00065e-05
1.00064e-05
1.00063e-05
1.00062e-05
1.00062e-05
1.00061e-05
1.00062e-05
1.0006e-05
1.00062e-05
1.0006e-05
1.00063e-05
1.00062e-05
1.00064e-05
1.00061e-05
1.00059e-05
1.00049e-05
1.00051e-05
1.00072e-05
1.0017e-05
1.00338e-05
1.02525e-05
1.19111e-05
2.10601e-05
4.39617e-05
6.42723e-05
7.12042e-05
7.46612e-05
7.27342e-05
7.01751e-05
6.29374e-05
6.18641e-05
6.04579e-05
7.98337e-05
0.000514691
0.13458
0.996984
0.999997
0.999999
0.999999
0.999999
0.999999
0.999999
0.999999
0.999999
0.999999
0.999999
0.999999
0.999999
0.999999
0.999999
0.999999
0.999999
0.999999
0.999999
0.999999
0.999999
0.999999
0.999999
0.999999
0.999999
0.999999
0.999999
0.999999
0.999999
0.999999
0.999999
0.999999
1
0.999999
0.999999
1
7.41407e-06
7.70236e-06
8.70279e-06
8.14139e-06
8.77397e-06
8.89883e-06
8.9042e-06
9.01072e-06
9.15323e-06
9.31028e-06
9.55886e-06
9.85713e-06
9.98468e-06
1.00045e-05
1.0005e-05
1.00054e-05
1.00051e-05
1.00054e-05
1.00053e-05
1.00053e-05
1.00053e-05
1.00053e-05
1.00053e-05
1.00052e-05
1.00052e-05
1.00051e-05
1.00051e-05
1.0005e-05
1.0005e-05
1.0005e-05
1.00049e-05
1.00049e-05
1.00048e-05
1.00048e-05
1.00047e-05
1.00047e-05
1.00045e-05
1.00044e-05
1.00039e-05
1.00038e-05
1.00032e-05
1.00047e-05
1.00114e-05
1.00485e-05
1.01575e-05
1.09242e-05
1.54059e-05
2.36985e-05
4.01733e-05
6.10088e-05
7.30644e-05
7.62139e-05
6.91272e-05
6.06953e-05
5.84937e-05
5.9378e-05
5.41909e-05
8.48266e-05
0.000412606
0.176089
0.999206
0.999996
0.999996
0.999997
0.999998
0.999999
0.999999
0.999999
0.999999
0.999999
0.999999
0.999999
0.999999
0.999999
0.999999
0.999999
0.999999
0.999999
0.999999
0.999999
0.999999
0.999999
0.999999
0.999999
0.999999
0.999999
0.999999
0.999999
0.999999
0.999999
0.999999
0.999999
0.999999
0.999999
0.999999
1
6.25284e-06
6.84906e-06
8.10046e-06
7.26299e-06
8.00562e-06
8.33687e-06
8.43192e-06
8.49704e-06
8.6784e-06
9.21221e-06
9.55617e-06
9.85366e-06
9.98241e-06
1.00011e-05
1.00014e-05
1.00015e-05
1.00014e-05
1.00015e-05
1.00014e-05
1.00014e-05
1.00013e-05
1.00013e-05
1.00012e-05
1.00011e-05
1.0001e-05
1.00009e-05
1.00008e-05
1.00007e-05
1.00006e-05
1.00005e-05
1.00004e-05
1.00005e-05
1.00004e-05
1.00004e-05
1.00003e-05
1.00004e-05
1.00003e-05
1.00003e-05
1.00002e-05
1.00003e-05
1.00004e-05
1.00017e-05
1.00089e-05
1.00475e-05
1.01828e-05
1.08423e-05
1.5617e-05
2.67091e-05
3.62716e-05
5.60408e-05
7.23854e-05
7.77996e-05
6.99218e-05
5.74863e-05
6.87614e-05
7.90344e-05
8.45082e-05
0.000151518
0.000383034
0.202302
0.998478
0.999715
0.999735
0.999787
0.999835
0.999887
0.999932
0.999965
0.999984
0.999993
0.999996
0.999997
0.999997
0.999997
0.999997
0.999997
0.999997
0.999996
0.999996
0.999998
0.999999
0.999999
0.999999
0.999999
0.999999
0.999999
0.999999
0.999999
0.999999
0.999999
0.999999
0.999999
0.999999
0.999999
0.999999
1
5.22697e-06
5.6227e-06
7.11454e-06
6.30577e-06
7.1248e-06
7.58976e-06
7.9073e-06
8.02356e-06
8.26369e-06
9.08192e-06
9.6525e-06
9.91349e-06
9.98891e-06
1.00001e-05
1e-05
1.00002e-05
1e-05
1.00001e-05
9.99994e-06
9.99993e-06
9.99975e-06
9.99971e-06
9.99958e-06
9.99955e-06
9.99942e-06
9.99927e-06
9.99911e-06
9.99898e-06
9.99885e-06
9.99878e-06
9.99873e-06
9.99877e-06
9.9987e-06
9.99874e-06
9.99867e-06
9.99878e-06
9.99873e-06
9.99883e-06
9.99881e-06
9.9989e-06
9.99874e-06
9.99954e-06
1.0002e-05
1.00171e-05
1.00717e-05
1.02678e-05
1.14713e-05
1.79582e-05
2.27406e-05
5.09895e-05
7.19885e-05
8.13367e-05
7.07364e-05
6.32866e-05
0.000108434
0.000168675
0.000179025
0.000309412
0.000349434
0.261037
0.993141
0.996532
0.996568
0.99672
0.996874
0.997269
0.997903
0.998526
0.999079
0.999477
0.999707
0.999809
0.999852
0.999863
0.999851
0.999831
0.999796
0.999747
0.999702
0.999682
0.999683
0.999716
0.999738
0.999736
0.999765
0.999815
0.999872
0.999931
0.999966
0.999983
0.999991
0.999995
0.999998
0.999999
1
1
4.67842e-06
4.29841e-06
5.60841e-06
5.10374e-06
6.31772e-06
6.75334e-06
7.2167e-06
7.4762e-06
8.01269e-06
9.03296e-06
9.72645e-06
9.95309e-06
9.99295e-06
9.99903e-06
9.99885e-06
9.99912e-06
9.99884e-06
9.99876e-06
9.99859e-06
9.99851e-06
9.99829e-06
9.99822e-06
9.99808e-06
9.99807e-06
9.99799e-06
9.99791e-06
9.99776e-06
9.99764e-06
9.99751e-06
9.99746e-06
9.99744e-06
9.99748e-06
9.99746e-06
9.99748e-06
9.99747e-06
9.99761e-06
9.99762e-06
9.99776e-06
9.99778e-06
9.99783e-06
9.99735e-06
9.99746e-06
9.99964e-06
1.0011e-05
1.00484e-05
1.0194e-05
1.09588e-05
1.44644e-05
1.85611e-05
4.99369e-05
7.50132e-05
8.62451e-05
7.50539e-05
9.21486e-05
0.000144916
0.000156907
0.000152784
0.000207406
0.00029535
0.305786
0.981667
0.987857
0.987012
0.986643
0.986319
0.98638
0.987796
0.989068
0.990683
0.992422
0.994088
0.995386
0.996307
0.996813
0.99695
0.996556
0.996062
0.995341
0.99453
0.993807
0.9933
0.992774
0.99223
0.99165
0.991472
0.992488
0.993501
0.994849
0.996259
0.997427
0.998265
0.998845
0.999339
0.999739
0.999953
1
4.58291e-06
3.90251e-06
4.18736e-06
3.94098e-06
5.04546e-06
5.89296e-06
6.6027e-06
7.04276e-06
7.89614e-06
9.04083e-06
9.79396e-06
9.97176e-06
9.99401e-06
9.99845e-06
9.99851e-06
9.99887e-06
9.99862e-06
9.99847e-06
9.99833e-06
9.99823e-06
9.99803e-06
9.99795e-06
9.99785e-06
9.99784e-06
9.99779e-06
9.99775e-06
9.99764e-06
9.99752e-06
9.99739e-06
9.99732e-06
9.99732e-06
9.99733e-06
9.99733e-06
9.99734e-06
9.99735e-06
9.99748e-06
9.99751e-06
9.99764e-06
9.99768e-06
9.99772e-06
9.99716e-06
9.99703e-06
9.9992e-06
1.00086e-05
1.00396e-05
1.02068e-05
1.10226e-05
1.30502e-05
2.15536e-05
6.30222e-05
8.02577e-05
9.00989e-05
9.60865e-05
0.000114278
0.000123726
0.000121314
0.000121872
0.000181361
0.000264688
0.249862
0.969189
0.9814
0.979923
0.979486
0.979298
0.979205
0.97921
0.979205
0.979269
0.979124
0.979036
0.979558
0.980047
0.980607
0.980957
0.981087
0.9806
0.979478
0.978034
0.976421
0.97468
0.972627
0.970086
0.968513
0.967933
0.967113
0.966225
0.965827
0.966204
0.967304
0.968908
0.972057
0.975866
0.980881
0.989708
0.999913
4.36358e-06
3.89545e-06
3.96077e-06
3.61497e-06
4.00822e-06
4.63947e-06
5.9189e-06
6.90811e-06
8.00629e-06
9.23043e-06
9.85476e-06
9.98107e-06
9.99405e-06
9.99806e-06
9.99847e-06
9.99936e-06
9.9993e-06
9.99913e-06
9.99914e-06
9.9991e-06
9.99901e-06
9.99901e-06
9.99897e-06
9.99894e-06
9.99888e-06
9.99886e-06
9.99879e-06
9.99865e-06
9.9985e-06
9.99834e-06
9.99825e-06
9.99816e-06
9.998e-06
9.99805e-06
9.99788e-06
9.99774e-06
9.99753e-06
9.99758e-06
9.99762e-06
9.99769e-06
9.99711e-06
9.99689e-06
9.99919e-06
1.00072e-05
1.00321e-05
1.02193e-05
1.10808e-05
1.24774e-05
3.55483e-05
7.51476e-05
8.03321e-05
8.4047e-05
8.86559e-05
9.06535e-05
8.68756e-05
8.60479e-05
9.09122e-05
0.000108262
0.000213421
0.181545
0.965416
0.985012
0.984658
0.984739
0.984234
0.983322
0.982139
0.980708
0.979065
0.977526
0.975886
0.974173
0.972759
0.971619
0.970681
0.969666
0.968569
0.967435
0.966294
0.965275
0.964393
0.963783
0.963354
0.961689
0.959039
0.955703
0.951531
0.946494
0.940174
0.932777
0.924067
0.913674
0.900972
0.880079
0.826228
0.634202
4.02713e-06
4.47109e-06
3.89812e-06
3.53594e-06
3.52921e-06
4.12203e-06
5.63794e-06
7.0033e-06
8.35751e-06
9.40922e-06
9.88847e-06
9.98583e-06
9.99611e-06
1.00002e-05
1.00009e-05
1.00012e-05
1.00011e-05
1.0001e-05
1.0001e-05
1.00009e-05
1.00009e-05
1.00009e-05
1.00009e-05
1.00008e-05
1.00008e-05
1.00007e-05
1.00007e-05
1.00006e-05
1.00005e-05
1.00004e-05
1.00004e-05
1.00003e-05
1.00002e-05
1.00003e-05
1.00002e-05
1.00003e-05
1.00003e-05
1.00003e-05
1.00003e-05
1.00005e-05
1.00001e-05
9.99972e-06
1.00009e-05
1.00074e-05
1.00289e-05
1.02257e-05
1.13516e-05
1.38291e-05
2.16836e-05
7.18968e-05
7.87554e-05
8.10155e-05
8.27467e-05
8.20988e-05
7.94009e-05
8.15e-05
8.3867e-05
9.22134e-05
0.000173857
0.128387
0.976792
0.996731
0.997518
0.998217
0.998055
0.998065
0.997485
0.996993
0.996351
0.995757
0.995203
0.994886
0.994479
0.99408
0.993411
0.992809
0.992382
0.992171
0.992125
0.992528
0.993385
0.994732
0.996119
0.997475
0.998177
0.998004
0.997797
0.997533
0.997144
0.996624
0.995875
0.994722
0.993073
0.991686
0.991845
0.994286
3.89418e-06
5.17593e-06
4.28492e-06
3.68128e-06
3.27443e-06
3.93475e-06
5.52733e-06
7.2121e-06
8.69248e-06
9.55344e-06
9.90506e-06
9.98569e-06
9.99658e-06
1.00008e-05
1.00016e-05
1.00022e-05
1.00022e-05
1.00022e-05
1.00023e-05
1.00023e-05
1.00023e-05
1.00022e-05
1.00022e-05
1.00022e-05
1.00022e-05
1.00021e-05
1.00021e-05
1.0002e-05
1.0002e-05
1.0002e-05
1.0002e-05
1.00019e-05
1.00018e-05
1.00018e-05
1.00018e-05
1.00017e-05
1.00017e-05
1.00016e-05
1.00016e-05
1.00016e-05
1.00013e-05
1.00007e-05
9.99926e-06
1.00014e-05
1.00241e-05
1.02204e-05
1.18148e-05
1.65011e-05
1.48563e-05
4.80977e-05
7.34082e-05
7.81647e-05
7.97632e-05
8.28047e-05
7.85324e-05
7.81352e-05
7.8146e-05
8.74332e-05
0.000127424
0.0970652
0.98881
0.999618
0.999701
0.999771
0.999776
0.999789
0.99976
0.999725
0.999672
0.999597
0.999513
0.999427
0.999342
0.999277
0.999223
0.999197
0.999211
0.999353
0.999512
0.999673
0.999798
0.999894
0.999963
0.999993
0.999995
0.999993
0.999993
0.999991
0.99999
0.999989
0.999989
0.999988
0.999985
0.999984
0.999988
0.999998
3.58823e-06
5.71564e-06
5.49599e-06
5.47459e-06
4.98596e-06
5.42539e-06
6.6479e-06
8.08549e-06
9.06984e-06
9.6578e-06
9.91647e-06
9.98951e-06
9.99771e-06
1.00007e-05
1.00012e-05
1.0002e-05
1.0002e-05
1.00022e-05
1.00022e-05
1.00023e-05
1.00023e-05
1.00023e-05
1.00023e-05
1.00023e-05
1.00023e-05
1.00023e-05
1.00023e-05
1.00023e-05
1.00023e-05
1.00023e-05
1.00023e-05
1.00023e-05
1.00023e-05
1.00023e-05
1.00023e-05
1.00023e-05
1.00023e-05
1.00023e-05
1.00023e-05
1.00023e-05
1.00018e-05
1.00012e-05
9.99941e-06
9.9997e-06
1.00215e-05
1.02766e-05
1.21476e-05
1.81411e-05
2.15972e-05
2.53038e-05
5.35982e-05
7.16047e-05
7.63935e-05
8.03162e-05
7.92054e-05
7.85426e-05
7.47645e-05
7.7647e-05
9.58769e-05
0.0877557
0.994342
0.999984
0.999983
0.999989
0.99999
0.99999
0.999989
0.999988
0.999986
0.999984
0.999983
0.999982
0.999979
0.999978
0.999977
0.999977
0.999982
0.999987
0.999992
0.999995
0.999998
0.999999
0.999999
0.999999
0.999999
0.999999
0.999999
0.999999
0.999999
0.999999
0.999999
0.999999
0.999999
0.999999
1
1
3.45495e-06
5.94438e-06
6.32469e-06
6.65808e-06
6.85001e-06
7.5547e-06
8.23126e-06
8.69107e-06
9.32621e-06
9.72841e-06
9.92771e-06
9.99017e-06
9.99798e-06
1.00005e-05
1.00011e-05
1.00017e-05
1.00017e-05
1.0002e-05
1.0002e-05
1.00021e-05
1.0002e-05
1.00021e-05
1.0002e-05
1.00021e-05
1.0002e-05
1.00021e-05
1.00021e-05
1.00021e-05
1.00021e-05
1.00022e-05
1.00018e-05
1.00018e-05
1.00017e-05
1.00019e-05
1.00017e-05
1.00021e-05
1.00018e-05
1.00023e-05
1.00016e-05
1.0002e-05
1.00014e-05
1.00012e-05
1.00001e-05
1.00029e-05
1.00283e-05
1.02895e-05
1.18929e-05
1.85715e-05
2.78854e-05
2.74918e-05
3.37682e-05
5.296e-05
6.62949e-05
7.48312e-05
7.47501e-05
7.62016e-05
7.421e-05
7.68931e-05
0.000124977
0.0491029
0.99278
0.999999
0.999998
0.999999
0.999999
0.999999
0.999999
0.999999
0.999999
0.999999
0.999999
0.999999
0.999999
0.999999
0.999999
0.999999
0.999999
0.999999
0.999999
0.999999
0.999999
0.999999
0.999999
0.999999
0.999999
0.999999
0.999999
0.999999
0.999999
0.999999
0.999999
0.999999
0.999999
1
1
1
3.86486e-06
6.07491e-06
6.682e-06
7.24514e-06
7.84516e-06
8.48248e-06
8.9211e-06
9.10348e-06
9.55355e-06
9.81946e-06
9.95862e-06
9.99458e-06
9.99869e-06
9.9999e-06
9.99977e-06
1.00003e-05
1.00003e-05
1.00005e-05
1.00004e-05
1.00004e-05
1.00004e-05
1.00004e-05
1.00003e-05
1.00003e-05
1.00003e-05
1.00003e-05
1.00003e-05
1.00002e-05
1.00002e-05
1.00001e-05
1.00001e-05
1.00001e-05
1.00001e-05
1.00001e-05
9.99991e-06
9.99983e-06
9.99978e-06
9.99963e-06
9.99976e-06
9.99988e-06
9.9995e-06