/*--------------------------------*- C++ -*----------------------------------*\
| =========                 |                                                 |
| \\      /  F ield         | OpenFOAM: The Open Source CFD Toolbox           |
|  \\    /   O peration     | Version:  2.3.0                                 |
|   \\  /    A nd           | Web:      www.OpenFOAM.org                      |
|    \\/     M anipulation  |                                                 |
\*---------------------------------------------------------------------------*/
FoamFile
{
    version     2.0;
    format      ascii;
    class       volScalarField;
    location    "13";
    object      dsauterMean;
}
// * * * * * * * * * * * * * * * * * * * * * * * * * * * * * * * * * * * * * //

dimensions      [0 0 0 0 0 0 0];

internalField   nonuniform List<scalar> 
6144
(
0.00833335
0.00833335
0.00833335
0.00833335
0.00833335
0.00833335
0.00833335
0.00833335
0.00833335
0.00833335
0.00833335
0.00833335
0.00833335
0.00833335
0.00833335
0.00833335
0.00833335
0.00833335
0.00833335
0.00833335
0.00833335
0.00833335
0.00833335
0.00833335
0.00833335
0.00833335
0.00833335
0.00833335
0.00833335
0.00833335
0.00833335
0.00833335
0.00833335
0.00833335
0.00833335
0.00833335
0.00833335
0.00833335
0.00833335
0.00833335
0.00833335
0.00833335
0.00833335
0.00833335
0.00833335
0.00833335
0.00833335
0.00833335
0.00833335
0.00833335
0.00833335
0.00833335
0.00833335
0.00833335
0.00833335
0.00833335
0.00833335
0.00833327
0.00832455
0.00834495
0.00833704
0.00833301
0.00305749
0.000606868
0.000590829
0.000578169
0.000565501
0.000546506
0.000533831
0.000518017
0.000505338
0.000489501
0.000476837
0.000464167
0.000451506
0.000435665
0.000423005
0.000410329
0.000397667
0.000385167
0.000371405
0.000361752
0.000344655
0.000338459
0.000323974
0.000315332
0.000302515
0.000293475
0.000283474
0.000277334
0.000270999
0.000264667
0.000261504
0.000258332
0.000261479
0.000258386
0.00833335
0.00833335
0.00833335
0.00833335
0.00833335
0.00833335
0.00833335
0.00833335
0.00833335
0.00833335
0.00833335
0.00833335
0.00833335
0.00833335
0.00833335
0.00833335
0.00833335
0.00833335
0.00833335
0.00833335
0.00833335
0.00833335
0.00833335
0.00833335
0.00833335
0.00833335
0.00833335
0.00833335
0.00833335
0.00833335
0.00833335
0.00833335
0.00833335
0.00833335
0.00833335
0.00833335
0.00833335
0.00833335
0.00833335
0.00833335
0.00833335
0.00833335
0.00833335
0.00833335
0.00833335
0.00833335
0.00833335
0.00833335
0.00833335
0.00833335
0.00833335
0.00833335
0.00833335
0.00833335
0.00833335
0.00833335
0.00833335
0.00833314
0.00832492
0.00834346
0.0083841
0.00833003
0.000774501
0.000609851
0.000593779
0.000580756
0.000565422
0.000549667
0.000537072
0.000521992
0.000508742
0.000492228
0.000479907
0.000464104
0.00044933
0.000435269
0.000423508
0.000411851
0.000396309
0.000384863
0.000373121
0.000359422
0.000347914
0.000337539
0.000324883
0.000315574
0.000305834
0.000296334
0.000286839
0.000277334
0.000271002
0.000267834
0.000260723
0.000261798
0.000261531
0.000261562
0.00833335
0.00833335
0.00833335
0.00833335
0.00833335
0.00833335
0.00833335
0.00833335
0.00833335
0.00833335
0.00833335
0.00833335
0.00833335
0.00833335
0.00833335
0.00833335
0.00833335
0.00833335
0.00833335
0.00833335
0.00833335
0.00833335
0.00833335
0.00833335
0.00833335
0.00833335
0.00833335
0.00833335
0.00833335
0.00833335
0.00833335
0.00833335
0.00833335
0.00833335
0.00833335
0.00833335
0.00833335
0.00833335
0.00833335
0.00833335
0.00833335
0.00833335
0.00833335
0.00833335
0.00833335
0.00833335
0.00833335
0.00833335
0.00833335
0.00833335
0.00833335
0.00833335
0.00833335
0.00833335
0.00833335
0.00833335
0.00833335
0.00833335
0.00833369
0.00836006
0.00770132
0.00617349
0.000866329
0.000610914
0.000590372
0.000578172
0.000561971
0.000547082
0.000533842
0.000512985
0.000504352
0.000486387
0.000477206
0.000461799
0.000453805
0.000436381
0.000423252
0.000411129
0.000395603
0.000386483
0.000373426
0.000359666
0.000350169
0.000337488
0.000324619
0.000315341
0.000305834
0.000296336
0.000286835
0.000277334
0.000271391
0.000267518
0.000261557
0.000260005
0.0002655
0.000261784
0.00833335
0.00833335
0.00833335
0.00833335
0.00833335
0.00833335
0.00833335
0.00833335
0.00833335
0.00833335
0.00833335
0.00833335
0.00833335
0.00833335
0.00833335
0.00833335
0.00833335
0.00833335
0.00833335
0.00833335
0.00833335
0.00833335
0.00833335
0.00833335
0.00833335
0.00833335
0.00833335
0.00833335
0.00833335
0.00833335
0.00833335
0.00833335
0.00833335
0.00833335
0.00833335
0.00833335
0.00833335
0.00833335
0.00833335
0.00833335
0.00833335
0.00833335
0.00833335
0.00833335
0.00833335
0.00833335
0.00833335
0.00833335
0.00833335
0.00833335
0.00833335
0.00833335
0.00833335
0.00833335
0.00833335
0.00833335
0.00833335
0.00833335
0.00833053
0.00833631
0.00834944
0.00306423
0.0014015
0.000904425
0.000859981
0.000721373
0.000726243
0.000689004
0.000675716
0.000645657
0.00062884
0.000619313
0.000587668
0.000540172
0.000486333
0.000445174
0.000422998
0.000410309
0.000396178
0.000385432
0.000372372
0.000358143
0.000347887
0.000338342
0.000324132
0.000315319
0.000305837
0.000296813
0.000285494
0.000277334
0.000271015
0.000266759
0.000262731
0.000261491
0.000261499
0.000264667
0.00833335
0.00833335
0.00833335
0.00833335
0.00833335
0.00833335
0.00833335
0.00833335
0.00833335
0.00833335
0.00833335
0.00833335
0.00833335
0.00833335
0.00833335
0.00833335
0.00833335
0.00833335
0.00833335
0.00833335
0.00833335
0.00833335
0.00833335
0.00833335
0.00833335
0.00833335
0.00833335
0.00833335
0.00833335
0.00833335
0.00833335
0.00833335
0.00833335
0.00833335
0.00833335
0.00833335
0.00833335
0.00833335
0.00833335
0.00833335
0.00833335
0.00833335
0.00833335
0.00833335
0.00833335
0.00833335
0.00833335
0.00833335
0.00833335
0.00833335
0.00833335
0.00833335
0.00833335
0.00833335
0.00833335
0.00833335
0.00833335
0.00833335
0.00833331
0.0083535
0.00737304
0.0083285
0.00823788
0.008247
0.00814134
0.00695848
0.00709618
0.0070163
0.00704926
0.00704959
0.00711385
0.00710339
0.00698018
0.0068832
0.00680344
0.00655778
0.00605904
0.0051207
0.00415198
0.00318325
0.00220654
0.00141371
0.000833973
0.000486331
0.000328
0.000313037
0.000303574
0.000293991
0.000283941
0.000276889
0.000271
0.000264667
0.000258322
0.000258318
0.000261516
0.0002615
0.00833335
0.00833335
0.00833335
0.00833335
0.00833335
0.00833335
0.00833335
0.00833335
0.00833335
0.00833335
0.00833335
0.00833335
0.00833335
0.00833335
0.00833335
0.00833335
0.00833335
0.00833335
0.00833335
0.00833335
0.00833335
0.00833335
0.00833335
0.00833335
0.00833335
0.00833335
0.00833335
0.00833335
0.00833335
0.00833335
0.00833335
0.00833335
0.00833335
0.00833335
0.00833335
0.00833335
0.00833335
0.00833335
0.00833335
0.00833335
0.00833335
0.00833335
0.00833335
0.00833335
0.00833335
0.00833335
0.00833335
0.00833335
0.00833335
0.00833335
0.00833335
0.00833335
0.00833335
0.00833335
0.00833335
0.00833335
0.00833335
0.00833335
0.00833335
0.00834583
0.00725543
0.00792343
0.00795903
0.00827791
0.00824954
0.00826485
0.00833806
0.00813865
0.00825407
0.007931
0.00839318
0.0079087
0.00825362
0.00827046
0.00829643
0.00806828
0.00820353
0.00817019
0.00791711
0.00813743
0.00800758
0.00794622
0.00789352
0.00774122
0.00740808
0.00570576
0.00505622
0.00367104
0.00187665
0.000897794
0.000274742
0.000263838
0.00026164
0.000255514
0.000255075
0.000261749
0.00833335
0.00833335
0.00833335
0.00833335
0.00833335
0.00833335
0.00833335
0.00833335
0.00833335
0.00833335
0.00833335
0.00833335
0.00833335
0.00833335
0.00833335
0.00833335
0.00833335
0.00833335
0.00833335
0.00833335
0.00833335
0.00833335
0.00833335
0.00833335
0.00833335
0.00833335
0.00833335
0.00833335
0.00833335
0.00833335
0.00833335
0.00833335
0.00833335
0.00833335
0.00833335
0.00833335
0.00833335
0.00833335
0.00833335
0.00833335
0.00833335
0.00833335
0.00833335
0.00833335
0.00833335
0.00833335
0.00833335
0.00833335
0.00833335
0.00833335
0.00833335
0.00833335
0.00833335
0.00833335
0.00833335
0.00833335
0.00833335
0.00833334
0.00833354
0.00833326
0.00833187
0.00914376
0.00609777
0.00834191
0.00818469
0.00790267
0.00825671
0.00716845
0.00794184
0.00768035
0.00800788
0.00774796
0.00815024
0.00785215
0.00813058
0.00789298
0.00880693
0.00710625
0.0082222
0.00839224
0.00783111
0.00846498
0.00829282
0.00826464
0.00824121
0.00777502
0.00800718
0.00827336
0.00817548
0.00805574
0.00807256
0.00815482
0.00727851
0.00612678
0.00436793
0.00423302
0.00833335
0.00833335
0.00833335
0.00833335
0.00833335
0.00833335
0.00833335
0.00833335
0.00833335
0.00833335
0.00833335
0.00833335
0.00833335
0.00833335
0.00833335
0.00833335
0.00833335
0.00833335
0.00833335
0.00833335
0.00833335
0.00833335
0.00833335
0.00833335
0.00833335
0.00833335
0.00833335
0.00833335
0.00833335
0.00833335
0.00833335
0.00833335
0.00833335
0.00833335
0.00833335
0.00833335
0.00833335
0.00833335
0.00833335
0.00833335
0.00833335
0.00833335
0.00833335
0.00833335
0.00833335
0.00833335
0.00833335
0.00833335
0.00833335
0.00833335
0.00833335
0.00833335
0.00833335
0.00833335
0.00833335
0.00833335
0.00833335
0.00833336
0.00833328
0.00833351
0.00831355
0.00838699
0.00833497
0.00830451
0.00833571
0.00820859
0.00800111
0.00889042
0.00814699
0.00840203
0.0081826
0.00831745
0.00832714
0.00833262
0.00841456
0.00843127
0.00798902
0.00829714
0.00832494
0.00830141
0.00831564
0.00830214
0.00827651
0.00825566
0.00828186
0.00818893
0.00825901
0.00805379
0.00800384
0.00803623
0.00757683
0.006974
0.00714943
0.00630071
0.00681615
0.00806501
0.00833335
0.00833335
0.00833335
0.00833335
0.00833335
0.00833335
0.00833335
0.00833335
0.00833335
0.00833335
0.00833335
0.00833335
0.00833335
0.00833335
0.00833335
0.00833335
0.00833335
0.00833335
0.00833335
0.00833335
0.00833335
0.00833335
0.00833335
0.00833335
0.00833335
0.00833335
0.00833335
0.00833335
0.00833335
0.00833335
0.00833335
0.00833335
0.00833335
0.00833335
0.00833335
0.00833335
0.00833335
0.00833335
0.00833335
0.00833335
0.00833335
0.00833335
0.00833335
0.00833335
0.00833335
0.00833335
0.00833335
0.00833335
0.00833335
0.00833335
0.00833335
0.00833335
0.00833335
0.00833335
0.00833335
0.00833335
0.00833336
0.00833332
0.00833371
0.00833486
0.00809326
0.00766905
0.00769013
0.00786554
0.00820047
0.00725576
0.00772042
0.00808266
0.00810564
0.00793117
0.0078591
0.00826782
0.0077127
0.00854257
0.00771621
0.00829963
0.00832866
0.00832759
0.00809672
0.00799013
0.00860847
0.00794791
0.00806752
0.00823748
0.00817628
0.00826973
0.00817147
0.00840779
0.00797768
0.00832957
0.00814436
0.00805504
0.00822183
0.00828671
0.00684589
0.00557281
0.00833335
0.00833335
0.00833335
0.00833335
0.00833335
0.00833335
0.00833335
0.00833335
0.00833335
0.00833335
0.00833335
0.00833335
0.00833335
0.00833335
0.00833335
0.00833335
0.00833335
0.00833335
0.00833335
0.00833335
0.00833335
0.00833335
0.00833335
0.00833335
0.00833335
0.00833335
0.00833335
0.00833335
0.00833335
0.00833335
0.00833335
0.00833335
0.00833335
0.00833335
0.00833335
0.00833335
0.00833335
0.00833335
0.00833335
0.00833335
0.00833335
0.00833335
0.00833335
0.00833335
0.00833335
0.00833335
0.00833335
0.00833335
0.00833335
0.00833335
0.00833335
0.00833335
0.00833335
0.00833335
0.00833335
0.00833335
0.00833335
0.00833336
0.00833316
0.00833463
0.00830675
0.00827851
0.00764105
0.00818269
0.00818096
0.00702415
0.00664712
0.00634705
0.00601213
0.00585427
0.00558559
0.00538757
0.00497904
0.00476717
0.00426381
0.00358346
0.00313369
0.00277345
0.00247368
0.00212493
0.00171675
0.00145865
0.00135887
0.00126022
0.00125661
0.00155886
0.00152083
0.00145047
0.00138538
0.00138663
0.00119956
0.00101323
0.00102208
0.00105
0.000977817
0.000837487
0.00833335
0.00833335
0.00833335
0.00833335
0.00833335
0.00833335
0.00833335
0.00833335
0.00833335
0.00833335
0.00833335
0.00833335
0.00833335
0.00833335
0.00833335
0.00833335
0.00833335
0.00833335
0.00833335
0.00833335
0.00833335
0.00833335
0.00833335
0.00833335
0.00833335
0.00833335
0.00833335
0.00833335
0.00833335
0.00833335
0.00833335
0.00833335
0.00833335
0.00833335
0.00833335
0.00833335
0.00833335
0.00833335
0.00833335
0.00833335
0.00833335
0.00833335
0.00833335
0.00833335
0.00833335
0.00833335
0.00833335
0.00833335
0.00833335
0.00833335
0.00833335
0.00833335
0.00833335
0.00833335
0.00833335
0.00833335
0.00833335
0.00833384
0.00831476
0.00833618
0.00833546
0.00752028
0.00619779
0.00475434
0.00471138
0.00425428
0.00421158
0.00370983
0.00283524
0.00237333
0.0019725
0.00174248
0.00155361
0.00145262
0.001335
0.00124988
0.00114182
0.00105259
0.000937763
0.00081577
0.000670565
0.000575253
0.000478242
0.000407046
0.000333136
0.000312788
0.000305835
0.00029251
0.00028428
0.000276757
0.000271
0.000264655
0.000259264
0.000258545
0.000260055
0.0002615
0.00833335
0.00833335
0.00833335
0.00833335
0.00833335
0.00833335
0.00833335
0.00833335
0.00833335
0.00833335
0.00833335
0.00833335
0.00833335
0.00833335
0.00833335
0.00833335
0.00833335
0.00833335
0.00833335
0.00833335
0.00833335
0.00833335
0.00833335
0.00833335
0.00833335
0.00833335
0.00833335
0.00833335
0.00833335
0.00833335
0.00833335
0.00833335
0.00833335
0.00833335
0.00833335
0.00833335
0.00833335
0.00833335
0.00833335
0.00833335
0.00833335
0.00833335
0.00833335
0.00833335
0.00833335
0.00833335
0.00833335
0.00833335
0.00833335
0.00833335
0.00833335
0.00833335
0.00833335
0.00833335
0.00833335
0.00833335
0.00833335
0.00833334
0.00833385
0.00834886
0.00833149
0.0018031
0.00141994
0.000866746
0.000839956
0.000781186
0.000729444
0.000670334
0.000623696
0.000568059
0.000530667
0.000495573
0.00048286
0.000467343
0.0004515
0.000438833
0.000426153
0.000410338
0.000397658
0.000384902
0.000372318
0.000358244
0.000351651
0.000337489
0.000324833
0.000315335
0.000305843
0.000293176
0.000286834
0.000278218
0.000269958
0.000264666
0.000258375
0.00026148
0.000261505
0.000264667
0.00833335
0.00833335
0.00833335
0.00833335
0.00833335
0.00833335
0.00833335
0.00833335
0.00833335
0.00833335
0.00833335
0.00833335
0.00833335
0.00833335
0.00833335
0.00833335
0.00833335
0.00833335
0.00833335
0.00833335
0.00833335
0.00833335
0.00833335
0.00833335
0.00833335
0.00833335
0.00833335
0.00833335
0.00833335
0.00833335
0.00833335
0.00833335
0.00833335
0.00833335
0.00833335
0.00833335
0.00833335
0.00833335
0.00833335
0.00833335
0.00833335
0.00833335
0.00833335
0.00833335
0.00833335
0.00833335
0.00833335
0.00833335
0.00833335
0.00833335
0.00833335
0.00833335
0.00833335
0.00833335
0.00833335
0.00833335
0.00833335
0.00833335
0.00833333
0.00833919
0.00833591
0.00286756
0.00123681
0.000609813
0.000593993
0.000578167
0.000565501
0.000549652
0.000536999
0.000516637
0.000510253
0.000489501
0.000480001
0.000464168
0.000451476
0.000435706
0.00042311
0.000407988
0.000397971
0.000385
0.000372312
0.000359619
0.000350277
0.000336338
0.000325256
0.000316261
0.000305834
0.000294409
0.000286885
0.000277387
0.000270993
0.000267834
0.0002615
0.0002615
0.000264667
0.000264667
0.00833335
0.00833335
0.00833335
0.00833335
0.00833335
0.00833335
0.00833335
0.00833335
0.00833335
0.00833335
0.00833335
0.00833335
0.00833335
0.00833335
0.00833335
0.00833335
0.00833335
0.00833335
0.00833335
0.00833335
0.00833335
0.00833335
0.00833335
0.00833335
0.00833335
0.00833335
0.00833335
0.00833335
0.00833335
0.00833335
0.00833335
0.00833335
0.00833335
0.00833335
0.00833335
0.00833335
0.00833335
0.00833335
0.00833335
0.00833335
0.00833335
0.00833335
0.00833335
0.00833335
0.00833335
0.00833335
0.00833335
0.00833335
0.00833335
0.00833335
0.00833335
0.00833335
0.00833335
0.00833335
0.00833335
0.00833335
0.00833335
0.00833335
0.00833335
0.00832898
0.00833348
0.00663373
0.000831527
0.000609834
0.000594001
0.000578087
0.000565632
0.00054964
0.000533841
0.000517993
0.00050534
0.000489501
0.000476918
0.000464168
0.000450467
0.000438628
0.000422034
0.000408663
0.000396016
0.000385001
0.000372328
0.000360057
0.000348368
0.000339901
0.000324778
0.000315252
0.000305737
0.000296331
0.000286834
0.000277288
0.000270849
0.000267468
0.000262208
0.0002615
0.000264667
0.000264667
0.00833335
0.00833335
0.00833335
0.00833335
0.00833335
0.00833335
0.00833335
0.00833335
0.00833335
0.00833335
0.00833335
0.00833335
0.00833335
0.00833335
0.00833335
0.00833335
0.00833335
0.00833335
0.00833335
0.00833335
0.00833335
0.00833335
0.00833335
0.00833335
0.00833335
0.00833335
0.00833335
0.00833335
0.00833335
0.00833335
0.00833335
0.00833335
0.00833335
0.00833335
0.00833335
0.00833335
0.00833335
0.00833335
0.00833335
0.00833335
0.00833335
0.00833335
0.00833335
0.00833335
0.00833335
0.00833335
0.00833335
0.00833335
0.00833335
0.00833335
0.00833335
0.00833335
0.00833335
0.00833335
0.00833335
0.00833335
0.00833335
0.00833335
0.00833287
0.00830331
0.00914108
0.00762514
0.000771308
0.000606636
0.000594308
0.000577884
0.000565463
0.000549669
0.000533824
0.00051679
0.000509252
0.000492668
0.000479842
0.000464169
0.0004515
0.000438834
0.000426817
0.000413529
0.000394095
0.000387198
0.00037231
0.000358708
0.000350813
0.000337559
0.000325111
0.000311101
0.000307459
0.000294986
0.000285986
0.000277594
0.000270114
0.000268865
0.000261343
0.000261501
0.000264669
0.000264667
0.00833335
0.00833335
0.00833335
0.00833335
0.00833335
0.00833335
0.00833335
0.00833335
0.00833335
0.00833335
0.00833335
0.00833335
0.00833335
0.00833335
0.00833335
0.00833335
0.00833335
0.00833335
0.00833335
0.00833335
0.00833335
0.00833335
0.00833335
0.00833335
0.00833335
0.00833335
0.00833335
0.00833335
0.00833335
0.00833335
0.00833335
0.00833335
0.00833335
0.00833335
0.00833335
0.00833335
0.00833335
0.00833335
0.00833335
0.00833335
0.00833335
0.00833335
0.00833335
0.00833335
0.00833335
0.00833335
0.00833335
0.00833335
0.00833335
0.00833335
0.00833335
0.00833335
0.00833335
0.00833335
0.00833335
0.00833335
0.00833335
0.00833334
0.00832999
0.00833689
0.00833548
0.00768753
0.00422872
0.000607089
0.000593569
0.000578161
0.000566036
0.000545966
0.000533948
0.000521167
0.000505378
0.000492696
0.000481829
0.000463723
0.000452363
0.000439288
0.000422659
0.00041033
0.000397667
0.00038623
0.000371343
0.000359666
0.00035006
0.000337008
0.000324838
0.000315342
0.000304421
0.000297819
0.000286925
0.000277334
0.000271001
0.000267981
0.000261516
0.000261499
0.000264607
0.000264722
0.00833335
0.00833335
0.00833335
0.00833335
0.00833335
0.00833335
0.00833335
0.00833335
0.00833335
0.00833335
0.00833335
0.00833335
0.00833335
0.00833335
0.00833335
0.00833335
0.00833335
0.00833335
0.00833335
0.00833335
0.00833335
0.00833335
0.00833335
0.00833335
0.00833335
0.00833335
0.00833335
0.00833335
0.00833335
0.00833335
0.00833335
0.00833335
0.00833335
0.00833335
0.00833335
0.00833335
0.00833335
0.00833335
0.00833335
0.00833335
0.00833335
0.00833335
0.00833335
0.00833335
0.00833335
0.00833335
0.00833335
0.00833335
0.00833335
0.00833335
0.00833335
0.00833335
0.00833335
0.00833335
0.00833335
0.00833335
0.00833335
0.00833298
0.00833358
0.0083317
0.00833324
0.0083334
0.00701601
0.000606659
0.00059084
0.000579152
0.000560307
0.000548049
0.000533608
0.000517968
0.000505043
0.000489558
0.000476839
0.000464164
0.000452478
0.000435909
0.000423001
0.00041036
0.000397665
0.000384999
0.000372002
0.000360146
0.000350168
0.000338345
0.000323288
0.000316671
0.000305834
0.000296373
0.000287416
0.000277094
0.000270715
0.000267965
0.000261501
0.000261501
0.0002615
0.0002615
0.00833335
0.00833335
0.00833335
0.00833335
0.00833335
0.00833335
0.00833335
0.00833335
0.00833335
0.00833335
0.00833335
0.00833335
0.00833335
0.00833335
0.00833335
0.00833335
0.00833335
0.00833335
0.00833335
0.00833335
0.00833335
0.00833335
0.00833335
0.00833335
0.00833335
0.00833335
0.00833335
0.00833335
0.00833335
0.00833335
0.00833335
0.00833335
0.00833335
0.00833335
0.00833335
0.00833335
0.00833335
0.00833335
0.00833335
0.00833335
0.00833335
0.00833335
0.00833335
0.00833335
0.00833335
0.00833335
0.00833335
0.00833335
0.00833335
0.00833335
0.00833335
0.00833335
0.00833335
0.00833335
0.00833335
0.00833335
0.00833335
0.00833334
0.00833344
0.00833345
0.0084118
0.00832368
0.00112206
0.000609842
0.000592267
0.000578014
0.000564047
0.000546898
0.000536778
0.000518064
0.00050577
0.000492667
0.000476835
0.000464167
0.000452951
0.00043748
0.000426167
0.000410333
0.000397611
0.000385026
0.000372333
0.000362843
0.000350169
0.000338656
0.000326275
0.000315334
0.000305834
0.000296333
0.000286834
0.000277334
0.000271
0.000267834
0.000262143
0.000262009
0.000264985
0.00026145
0.00833335
0.00833335
0.00833335
0.00833335
0.00833335
0.00833335
0.00833335
0.00833335
0.00833335
0.00833335
0.00833335
0.00833335
0.00833335
0.00833335
0.00833335
0.00833335
0.00833335
0.00833335
0.00833335
0.00833335
0.00833335
0.00833335
0.00833335
0.00833335
0.00833335
0.00833335
0.00833335
0.00833335
0.00833335
0.00833335
0.00833335
0.00833335
0.00833335
0.00833335
0.00833335
0.00833335
0.00833335
0.00833335
0.00833335
0.00833335
0.00833335
0.00833335
0.00833335
0.00833335
0.00833335
0.00833335
0.00833335
0.00833335
0.00833335
0.00833335
0.00833335
0.00833335
0.00833335
0.00833335
0.00833335
0.00833335
0.00833335
0.00833335
0.00833772
0.00832869
0.00827473
0.00170592
0.00112315
0.000647849
0.000615941
0.000590834
0.000581331
0.000549667
0.000536104
0.000521004
0.000509585
0.000492669
0.000480001
0.000463969
0.000453711
0.000436293
0.000426166
0.00041496
0.000396376
0.000386332
0.000373954
0.000361847
0.000348355
0.000338547
0.000328377
0.000315017
0.000305834
0.000296326
0.000287075
0.000276496
0.000270787
0.000267823
0.000261083
0.000261895
0.000264665
0.000264667
0.00833335
0.00833335
0.00833335
0.00833335
0.00833335
0.00833335
0.00833335
0.00833335
0.00833335
0.00833335
0.00833335
0.00833335
0.00833335
0.00833335
0.00833335
0.00833335
0.00833335
0.00833335
0.00833335
0.00833335
0.00833335
0.00833335
0.00833335
0.00833335
0.00833335
0.00833335
0.00833335
0.00833335
0.00833335
0.00833335
0.00833335
0.00833335
0.00833335
0.00833335
0.00833335
0.00833335
0.00833335
0.00833335
0.00833335
0.00833335
0.00833335
0.00833335
0.00833335
0.00833335
0.00833335
0.00833335
0.00833335
0.00833335
0.00833335
0.00833335
0.00833335
0.00833335
0.00833335
0.00833335
0.00833335
0.00833335
0.00833335
0.00833335
0.00833334
0.0083471
0.00776032
0.00216571
0.00782019
0.00201337
0.00278525
0.00189918
0.00192024
0.00184223
0.00176859
0.00167416
0.00154722
0.00139563
0.00120507
0.00108355
0.000950344
0.000743531
0.00059715
0.000530662
0.000458012
0.000416707
0.000388016
0.000365768
0.000353325
0.000337824
0.000322554
0.000316593
0.000305805
0.000298385
0.000285137
0.000276563
0.000271397
0.000265142
0.000258402
0.000261511
0.000261433
0.000264736
0.00833335
0.00833335
0.00833335
0.00833335
0.00833335
0.00833335
0.00833335
0.00833335
0.00833335
0.00833335
0.00833335
0.00833335
0.00833335
0.00833335
0.00833335
0.00833335
0.00833335
0.00833335
0.00833335
0.00833335
0.00833335
0.00833335
0.00833335
0.00833335
0.00833335
0.00833335
0.00833335
0.00833335
0.00833335
0.00833335
0.00833335
0.00833335
0.00833335
0.00833335
0.00833335
0.00833335
0.00833335
0.00833335
0.00833335
0.00833335
0.00833335
0.00833335
0.00833335
0.00833335
0.00833335
0.00833335
0.00833335
0.00833335
0.00833335
0.00833335
0.00833335
0.00833335
0.00833335
0.00833335
0.00833335
0.00833335
0.00833335
0.00833335
0.00833334
0.00834063
0.00731859
0.007948
0.00830522
0.00822049
0.00824318
0.00828439
0.00835188
0.00827358
0.00841096
0.00823895
0.00828168
0.00824355
0.00829585
0.0083741
0.00817479
0.00799421
0.00809961
0.00804553
0.00787274
0.0069312
0.00608751
0.00485631
0.00399853
0.00294228
0.00180536
0.0010818
0.000467357
0.00034079
0.00031226
0.00028769
0.000271023
0.000267839
0.00026144
0.000258366
0.000261516
0.0002615
0.00833335
0.00833335
0.00833335
0.00833335
0.00833335
0.00833335
0.00833335
0.00833335
0.00833335
0.00833335
0.00833335
0.00833335
0.00833335
0.00833335
0.00833335
0.00833335
0.00833335
0.00833335
0.00833335
0.00833335
0.00833335
0.00833335
0.00833335
0.00833335
0.00833335
0.00833335
0.00833335
0.00833335
0.00833335
0.00833335
0.00833335
0.00833335
0.00833335
0.00833335
0.00833335
0.00833335
0.00833335
0.00833335
0.00833335
0.00833335
0.00833335
0.00833335
0.00833335
0.00833335
0.00833335
0.00833335
0.00833335
0.00833335
0.00833335
0.00833335
0.00833335
0.00833335
0.00833335
0.00833335
0.00833335
0.00833335
0.00833335
0.00833335
0.00833335
0.00831943
0.00957222
0.00830741
0.00833355
0.00885656
0.00697506
0.00831393
0.00783733
0.00850458
0.00836621
0.00824851
0.00830648
0.00774388
0.00862673
0.00833742
0.00833588
0.00936928
0.00666546
0.00922907
0.00718276
0.00860717
0.00916932
0.00833335
0.00771801
0.00847464
0.00704198
0.00809385
0.0073407
0.0071199
0.00565188
0.00457537
0.00351562
0.00110896
0.000266096
0.000254139
0.000261288
0.00026168
0.00833335
0.00833335
0.00833335
0.00833335
0.00833335
0.00833335
0.00833335
0.00833335
0.00833335
0.00833335
0.00833335
0.00833335
0.00833335
0.00833335
0.00833335
0.00833335
0.00833335
0.00833335
0.00833335
0.00833335
0.00833335
0.00833335
0.00833335
0.00833335
0.00833335
0.00833335
0.00833335
0.00833335
0.00833335
0.00833335
0.00833335
0.00833335
0.00833335
0.00833335
0.00833335
0.00833335
0.00833335
0.00833335
0.00833335
0.00833335
0.00833335
0.00833335
0.00833335
0.00833335
0.00833335
0.00833335
0.00833335
0.00833335
0.00833335
0.00833335
0.00833335
0.00833335
0.00833335
0.00833335
0.00833335
0.00833335
0.00833335
0.00833335
0.00833335
0.00828866
0.00907641
0.0082713
0.00830803
0.00832297
0.00831896
0.00832493
0.00832914
0.00829601
0.00822569
0.00850214
0.00823478
0.00830356
0.00831223
0.0082048
0.00845097
0.00834021
0.00831901
0.00831586
0.00835428
0.00828367
0.00825185
0.00831073
0.00820353
0.00786145
0.00869666
0.00832981
0.00832497
0.00832082
0.00815093
0.00721121
0.0081967
0.00835341
0.00833374
0.00836679
0.0083155
0.00813234
0.00833335
0.00833335
0.00833335
0.00833335
0.00833335
0.00833335
0.00833335
0.00833335
0.00833335
0.00833335
0.00833335
0.00833335
0.00833335
0.00833335
0.00833335
0.00833335
0.00833335
0.00833335
0.00833335
0.00833335
0.00833335
0.00833335
0.00833335
0.00833335
0.00833335
0.00833335
0.00833335
0.00833335
0.00833335
0.00833335
0.00833335
0.00833335
0.00833335
0.00833335
0.00833335
0.00833335
0.00833335
0.00833335
0.00833335
0.00833335
0.00833335
0.00833335
0.00833335
0.00833335
0.00833335
0.00833335
0.00833335
0.00833335
0.00833335
0.00833335
0.00833335
0.00833335
0.00833335
0.00833335
0.00833335
0.00833335
0.00833335
0.00833297
0.0083337
0.00829632
0.00874357
0.00842534
0.00811406
0.00838636
0.00822306
0.00835206
0.00834817
0.00830295
0.00830494
0.00830287
0.00832799
0.0083218
0.00832446
0.00833321
0.00833784
0.00832933
0.00833668
0.00832937
0.00833407
0.00833596
0.0083204
0.00831316
0.00832617
0.0083032
0.00831574
0.00833411
0.00832402
0.0083225
0.00835239
0.00832914
0.00833471
0.0083515
0.00838422
0.00821822
0.00835887
0.00833333
0.00833335
0.00833335
0.00833335
0.00833335
0.00833335
0.00833335
0.00833335
0.00833335
0.00833335
0.00833335
0.00833335
0.00833335
0.00833335
0.00833335
0.00833335
0.00833335
0.00833335
0.00833335
0.00833335
0.00833335
0.00833335
0.00833335
0.00833335
0.00833335
0.00833335
0.00833335
0.00833335
0.00833335
0.00833335
0.00833335
0.00833335
0.00833335
0.00833335
0.00833335
0.00833335
0.00833335
0.00833335
0.00833335
0.00833335
0.00833335
0.00833335
0.00833335
0.00833335
0.00833335
0.00833335
0.00833335
0.00833335
0.00833335
0.00833335
0.00833335
0.00833335
0.00833335
0.00833335
0.00833335
0.00833335
0.00833335
0.00833335
0.00833334
0.00833291
0.00833035
0.00761886
0.00881615
0.00796725
0.00804733
0.00825665
0.00833345
0.00833408
0.00828964
0.00831943
0.00839282
0.00838977
0.00819123
0.00829034
0.00833748
0.00828202
0.00833747
0.00813716
0.0080887
0.0081243
0.00832658
0.00832389
0.00832655
0.00830558
0.0083227
0.00830235
0.00796353
0.00824076
0.00854066
0.00776239
0.00841434
0.00825916
0.00843724
0.00832408
0.00833348
0.00833202
0.00833305
0.00833335
0.00833335
0.00833335
0.00833335
0.00833335
0.00833335
0.00833335
0.00833335
0.00833335
0.00833335
0.00833335
0.00833335
0.00833335
0.00833335
0.00833335
0.00833335
0.00833335
0.00833335
0.00833335
0.00833335
0.00833335
0.00833335
0.00833335
0.00833335
0.00833335
0.00833335
0.00833335
0.00833335
0.00833335
0.00833335
0.00833335
0.00833335
0.00833335
0.00833335
0.00833335
0.00833335
0.00833335
0.00833335
0.00833335
0.00833335
0.00833335
0.00833335
0.00833335
0.00833335
0.00833335
0.00833335
0.00833335
0.00833335
0.00833335
0.00833335
0.00833335
0.00833335
0.00833335
0.00833335
0.00833335
0.00833335
0.00833335
0.00833335
0.00833333
0.00833105
0.00863151
0.00864613
0.00830205
0.00848281
0.00829324
0.00832469
0.0083752
0.00815209
0.0083978
0.00826749
0.00824174
0.0082203
0.00829785
0.00829723
0.00829316
0.00829836
0.00826358
0.00828993
0.0084512
0.00840137
0.00828741
0.00812834
0.00838325
0.00817824
0.00810379
0.0080865
0.00793803
0.00756948
0.00679724
0.00450724
0.00397346
0.00365177
0.00366944
0.00356227
0.00297677
0.000261342
0.00833335
0.00833335
0.00833335
0.00833335
0.00833335
0.00833335
0.00833335
0.00833335
0.00833335
0.00833335
0.00833335
0.00833335
0.00833335
0.00833335
0.00833335
0.00833335
0.00833335
0.00833335
0.00833335
0.00833335
0.00833335
0.00833335
0.00833335
0.00833335
0.00833335
0.00833335
0.00833335
0.00833335
0.00833335
0.00833335
0.00833335
0.00833335
0.00833335
0.00833335
0.00833335
0.00833335
0.00833335
0.00833335
0.00833335
0.00833335
0.00833335
0.00833335
0.00833335
0.00833335
0.00833335
0.00833335
0.00833335
0.00833335
0.00833335
0.00833335
0.00833335
0.00833335
0.00833335
0.00833335
0.00833335
0.00833335
0.00833335
0.00833334
0.0083332
0.00833312
0.00825517
0.00122014
0.00737246
0.00181085
0.00258114
0.00149073
0.00158229
0.0011418
0.00102879
0.000762408
0.000671486
0.000626281
0.000603765
0.000568782
0.000549625
0.000530663
0.000511584
0.000492593
0.000477531
0.000452578
0.000436158
0.000414017
0.000399538
0.000375475
0.000356467
0.00033957
0.000319479
0.000300947
0.000290629
0.000282374
0.000271006
0.000268015
0.000261425
0.000261517
0.000261521
0.000264667
0.00833335
0.00833335
0.00833335
0.00833335
0.00833335
0.00833335
0.00833335
0.00833335
0.00833335
0.00833335
0.00833335
0.00833335
0.00833335
0.00833335
0.00833335
0.00833335
0.00833335
0.00833335
0.00833335
0.00833335
0.00833335
0.00833335