/*--------------------------------*- C++ -*----------------------------------*\
| =========                 |                                                 |
| \\      /  F ield         | OpenFOAM: The Open Source CFD Toolbox           |
|  \\    /   O peration     | Version:  2.3.0                                 |
|   \\  /    A nd           | Web:      www.OpenFOAM.org                      |
|    \\/     M anipulation  |                                                 |
\*---------------------------------------------------------------------------*/
FoamFile
{
    version     2.0;
    format      ascii;
    class       surfaceScalarField;
    location    "13";
    object      phi.water;
}
// * * * * * * * * * * * * * * * * * * * * * * * * * * * * * * * * * * * * * //

dimensions      [0 3 -1 0 0 0 0];

internalField   nonuniform List<scalar> 
16448
(
-1.29282e-06
-1.65618e-06
4.22113e-07
2.01658e-07
-1.92051e-06
4.2694e-07
4.35421e-07
-6.95556e-07
4.63262e-07
8.43987e-07
-9.58942e-07
5.50586e-07
8.31176e-07
-3.90297e-07
4.04913e-07
8.69242e-07
-5.08887e-07
4.70907e-07
7.50307e-07
-3.60765e-07
4.80438e-07
6.53016e-07
-4.10653e-07
5.07869e-07
4.48243e-07
-3.93314e-07
5.98432e-07
2.42708e-07
-4.21808e-07
6.27436e-07
6.7432e-08
-4.60729e-07
6.3628e-07
-1.40234e-08
-5.33768e-07
6.15451e-07
-3.09406e-08
-6.00027e-07
6.1724e-07
-2.69694e-09
-6.498e-07
6.21773e-07
3.18189e-08
-6.79559e-07
6.45325e-07
6.84312e-08
-6.99389e-07
6.63007e-07
9.45921e-08
-7.1161e-07
6.85692e-07
1.14434e-07
-7.20451e-07
7.00829e-07
1.25504e-07
-7.26553e-07
7.15709e-07
1.32548e-07
-7.32081e-07
7.25246e-07
1.34356e-07
-7.35541e-07
7.33948e-07
1.34654e-07
-7.39414e-07
7.39321e-07
1.3259e-07
-7.4172e-07
7.43993e-07
1.30053e-07
-7.44193e-07
7.46934e-07
1.26787e-07
-7.45841e-07
7.49314e-07
1.23434e-07
-7.47319e-07
7.50878e-07
1.19965e-07
-7.48382e-07
7.52056e-07
1.16526e-07
-7.49201e-07
7.52847e-07
1.13105e-07
-7.4977e-07
7.53399e-07
1.09675e-07
-7.50042e-07
7.53677e-07
1.06422e-07
-7.50451e-07
7.53917e-07
1.02005e-07
-7.49267e-07
7.53884e-07
1.00228e-07
-7.51425e-07
7.53422e-07
9.22808e-08
-7.4558e-07
7.53722e-07
9.50877e-08
-7.53703e-07
7.5112e-07
8.15116e-08
-7.38545e-07
7.52296e-07
9.20408e-08
-7.56895e-07
7.46607e-07
6.93362e-08
-7.2716e-07
7.50007e-07
8.96026e-08
-7.58947e-07
7.38961e-07
5.53763e-08
-7.11265e-07
7.4557e-07
9.05092e-08
-7.58999e-07
7.24215e-07
4.7955e-08
-6.91553e-07
7.34098e-07
1.02275e-07
-7.54155e-07
7.00278e-07
5.85965e-08
-6.66495e-07
7.10121e-07
1.14332e-07
-7.3246e-07
6.77239e-07
6.25089e-08
-6.25893e-07
6.77543e-07
3.02396e-09
-6.40567e-07
7.0113e-07
-1.54351e-07
-5.2859e-07
6.84571e-07
-5.50788e-07
-5.02882e-07
9.01237e-07
-8.81651e-07
-4.91377e-07
8.19472e-07
-7.83486e-07
-1.05605e-06
9.66653e-07
-1.34022e-07
-1.48361e-06
8.51215e-07
-3.16088e-07
-9.41899e-07
1.29785e-06
-1.72853e-06
-9.01792e-08
1.501e-06
-6.65492e-07
-2.43675e-06
1.66979e-06
-8.98377e-07
-2.87342e-06
2.90859e-06
-2.44065e-07
1.2164e-06
-4.4284e-07
-2.73801e-06
1.05786e-06
1.17816e-06
2.02098e-06
2.98852e-06
2.0643e-06
2.83519e-05
-2.12446e-05
1.41675e-05
2.21001e-05
-2.62973e-05
5.66114e-06
2.75033e-05
-1.02787e-05
3.2819e-06
2.67396e-05
-2.32079e-07
9.90995e-07
2.89975e-05
-2.16807e-06
-8.9845e-08
3.11676e-05
-1.2926e-06
-8.77567e-07
3.25661e-05
-4.11169e-08
-1.35737e-06
3.32742e-05
8.90952e-07
-1.59905e-06
3.36545e-05
1.28743e-06
-1.6677e-06
3.37608e-05
1.47984e-06
-1.58611e-06
3.35392e-05
1.63328e-06
-1.41169e-06
3.29736e-05
1.7546e-06
-1.18901e-06
3.20874e-05
1.82568e-06
-9.39514e-07
3.08746e-05
1.88812e-06
-6.75278e-07
2.93423e-05
1.9373e-06
-4.05048e-07
2.7452e-05
2.02237e-06
-1.32056e-07
2.53864e-05
1.95569e-06
1.09897e-07
2.33019e-05
1.66335e-06
4.21185e-07
2.1085e-05
1.46229e-06
7.54612e-07
1.88814e-05
1.12009e-06
1.08355e-06
1.68902e-05
5.90963e-07
1.4002e-06
1.50173e-05
2.60763e-07
1.61208e-06
1.32858e-05
5.94833e-08
1.67202e-06
1.16208e-05
-5.29885e-08
1.71799e-06
1.01562e-05
-2.34281e-07
1.69887e-06
8.8514e-06
-3.62304e-07
1.66712e-06
7.69651e-06
-3.35515e-07
1.49039e-06
6.51558e-06
-1.41542e-07
1.32246e-06
5.13431e-06
2.7702e-07
1.10424e-06
3.14055e-06
9.38678e-07
1.05507e-06
3.8515e-07
1.79663e-06
9.58767e-07
-1.87696e-06
1.53905e-06
7.23055e-07
-3.09773e-06
1.87714e-07
1.03306e-06
-3.98147e-06
-5.89023e-07
1.47276e-06
-4.82008e-06
-5.7661e-07
1.41522e-06
-3.7464e-06
-3.88108e-07
-6.85562e-07
-9.02066e-07
-2.84433e-06
-1.73218e-06
-2.37365e-06
-4.88971e-08
-4.80787e-07
-3.02898e-06
-1.41619e-07
-2.87705e-07
-9.95953e-07
1.09755e-07
9.08494e-08
-1.54734e-06
2.10204e-07
1.83391e-07
-5.07026e-07
2.52422e-08
2.10777e-07
-6.74894e-07
1.38389e-07
2.33261e-07
-3.91504e-07
8.55837e-09
2.01915e-07
-4.5629e-07
7.67772e-08
1.28752e-07
-4.25744e-07
1.05709e-07
-1.84156e-08
-4.28758e-07
1.54051e-07
-1.48788e-07
-4.78136e-07
1.47975e-07
-1.91648e-07
-6.03272e-07
1.12397e-07
-1.74157e-07
-7.13033e-07
9.56505e-08
-1.1526e-07
-7.9898e-07
9.03427e-08
-5.79233e-08
-8.39834e-07
1.03068e-07
-4.3184e-09
-8.68057e-07
1.15156e-07
3.27803e-08
-8.79344e-07
1.30772e-07
6.06224e-08
-8.89592e-07
1.41413e-07
7.67711e-08
-8.94215e-07
1.51645e-07
8.64029e-08
-8.99506e-07
1.57915e-07
9.0362e-08
-9.02618e-07
1.63248e-07
9.09304e-08
-9.06156e-07
1.663e-07
8.92096e-08
-9.08557e-07
1.68687e-07
8.61378e-08
-9.1092e-07
1.69926e-07
8.22669e-08
-9.12578e-07
1.70738e-07
7.80827e-08
-9.13969e-07
1.70962e-07
7.37148e-08
-9.14849e-07
1.70963e-07
6.93352e-08
-9.15393e-07
1.70698e-07
6.49815e-08
-9.15577e-07
1.70288e-07
6.07e-08
-9.15398e-07
1.6976e-07
5.62919e-08
-9.15057e-07
1.69142e-07
5.18582e-08
-9.13277e-07
1.68551e-07
4.71086e-08
-9.14335e-07
1.67797e-07
4.18369e-08
-9.07575e-07
1.67343e-07
3.87584e-08
-9.1555e-07
1.65091e-07
3.04945e-08
-8.95834e-07
1.65569e-07
3.27929e-08
-9.19687e-07
1.60723e-07
1.82671e-08
-8.76663e-07
1.63907e-07
3.03409e-08
-9.2447e-07
1.53824e-07
5.13524e-09
-8.48404e-07
1.61984e-07
3.70388e-08
-9.31094e-07
1.40772e-07
6.99768e-10
-8.12647e-07
1.56869e-07
7.1122e-08
-9.4244e-07
1.18485e-07
2.63928e-08
-7.67015e-07
1.44674e-07
1.25429e-07
-9.35331e-07
1.0452e-07
6.99524e-08
-6.95375e-07
1.24584e-07
7.51251e-08
-8.01967e-07
1.56808e-07
-6.68547e-08
-5.24746e-07
1.36801e-07
-7.2726e-07
-3.33914e-07
4.94093e-07
-9.68107e-07
-4.99874e-07
2.50211e-07
-1.68884e-06
-9.80439e-07
6.73866e-07
-1.63925e-06
-1.95064e-06
4.28468e-07
-3.38714e-07
-2.14083e-06
6.26256e-08
-1.03658e-06
1.79649e-07
4.05739e-07
2.57254e-07
-3.82423e-06
4.01695e-07
2.82146e-06
-6.53728e-06
9.43963e-07
-4.41384e-07
8.40444e-06
-2.68697e-06
-8.32907e-06
8.6705e-06
-1.53942e-07
4.75556e-06
5.82939e-06
-5.37348e-06
2.80656e-05
-3.3768e-05
5.73176e-06
6.49827e-06
-3.83146e-05
6.65901e-06
6.32622e-06
-1.28397e-05
1.336e-06
1.54265e-05
-5.59203e-06
-3.74147e-06
1.96273e-05
-2.5536e-06
-3.8152e-06
2.2314e-05
-2.29795e-07
-3.74951e-06
2.46748e-05
1.50652e-06
-3.9085e-06
2.69523e-05
2.38953e-06
-3.77602e-06
2.86743e-05
2.95477e-06
-3.38936e-06
2.97021e-05
3.30471e-06
-2.85272e-06
3.01623e-05
3.50481e-06
-2.33168e-06
3.02168e-05
3.53722e-06
-1.83712e-06
2.98476e-05
3.56195e-06
-1.36705e-06
2.91082e-05
3.54408e-06
-9.16587e-07
2.78829e-05
3.62053e-06
-4.57926e-07
2.60549e-05
3.95738e-06
-1.06971e-07
2.39726e-05
3.83701e-06
2.00958e-07
2.19284e-05
3.09482e-06
6.12745e-07
1.98608e-05
2.47664e-06
1.05324e-06
1.75644e-05
2.02207e-06
1.39443e-06
1.48979e-05
1.71443e-06
1.543e-06
1.20983e-05
1.46836e-06
1.59199e-06
9.29118e-06
1.21669e-06
1.6499e-06
6.54762e-06
9.47059e-07
1.7435e-06
4.18136e-06
5.31367e-07
1.60059e-06
2.70168e-06
-6.45324e-08
1.1819e-06
2.05579e-06
-3.66446e-07
6.76796e-07
1.83876e-06
-2.35666e-07
3.1114e-07
1.76167e-06
3.183e-07
3.57928e-08
1.26793e-06
1.39099e-06
4.14162e-08
7.51815e-08
2.64886e-06
3.40501e-07
-1.33886e-06
2.71147e-06
2.41608e-07
-2.56242e-06
1.01764e-06
3.93639e-07
-3.76624e-06
3.60292e-08
5.7877e-07
-4.39128e-06
2.22224e-07
-1.73782e-07
-3.55103e-06
9.04996e-07
-2.13335e-06
7.47775e-07
-5.20087e-06
-1.71225e-06
-2.81911e-06
-3.31795e-08
-5.40764e-07
-3.81411e-06
-3.84455e-07
-4.92663e-07
-1.2474e-06
2.07183e-07
-1.53579e-07
-2.24116e-06
3.54864e-07
-1.23757e-07
-6.72334e-07
1.37644e-07
-1.38863e-07
-8.66374e-07
2.06587e-07
-1.50387e-07
-3.2402e-07
-5.50987e-08
-1.70834e-07
-3.81974e-07
-5.40334e-08
-1.91945e-07
-2.68536e-07
-1.3583e-07
-2.47247e-07
-2.67502e-07
-1.05829e-07
-3.30064e-07
-2.84509e-07
-1.10412e-07
-3.41457e-07
-4.32582e-07
-1.5913e-07
-2.9407e-07
-5.63039e-07
-1.97223e-07
-2.13991e-07
-6.62994e-07
-2.16008e-07
-1.3896e-07
-7.03121e-07
-2.11619e-07
-7.54162e-08
-7.28724e-07
-2.02779e-07
-3.06377e-08
-7.32975e-07
-1.91021e-07
1.53758e-09
-7.38818e-07
-1.82852e-07
2.10787e-08
-7.37814e-07
-1.75819e-07
3.3245e-08
-7.39666e-07
-1.71903e-07
3.88287e-08
-7.39224e-07
-1.68867e-07
4.10407e-08
-7.40587e-07
-1.67677e-07
4.00907e-08
-7.40664e-07
-1.66834e-07
3.78252e-08
-7.4153e-07
-1.67019e-07
3.44873e-08
-7.41785e-07
-1.67347e-07
3.06548e-08
-7.41913e-07
-1.68116e-07
2.65748e-08
-7.41661e-07
-1.69e-07
2.24571e-08
-7.4111e-07
-1.70057e-07
1.83553e-08
-7.40208e-07
-1.7116e-07
1.42909e-08
-7.38928e-07
-1.723e-07
1.00732e-08
-7.37322e-07
-1.73409e-07
6.14064e-09
-7.34996e-07
-1.74256e-07
1.00086e-09
-7.34152e-07
-1.74896e-07
-2.89828e-09
-7.27854e-07
-1.75819e-07
-8.01312e-09
-7.33298e-07
-1.76904e-07
-1.31044e-08
-7.14259e-07
-1.76563e-07
-1.48619e-08
-7.37875e-07
-1.79721e-07
-2.36325e-08
-6.91582e-07
-1.76542e-07
-1.74879e-08
-7.46466e-07
-1.83614e-07
-3.29903e-08
-6.58385e-07
-1.75006e-07
-8.88194e-09
-7.63166e-07
-1.91264e-07
-3.22345e-08
-6.17622e-07
-1.72526e-07
2.82958e-08
-7.9584e-07
-2.06141e-07
-5.27711e-09
-5.6469e-07
-1.69794e-07
9.94463e-08
-8.21261e-07
-2.18027e-07
4.74612e-08
-4.74406e-07
-1.6961e-07
3.66443e-08
-6.50997e-07
-1.39e-07
-4.67132e-08
-2.85379e-07
-1.57882e-07
-6.56538e-07
5.97608e-08
2.20752e-07
-7.43887e-07
-2.98386e-07
-1.09164e-07
-1.56998e-06
-4.21859e-07
2.99941e-07
-2.10962e-06
-1.65906e-06
2.50922e-07
-2.99428e-07
-3.15016e-06
-6.84879e-07
4.13602e-07
5.21491e-08
-6.08166e-07
2.16547e-06
-5.1682e-06
8.87045e-08
4.28848e-07
-6.49422e-06
1.55153e-06
7.1752e-06
7.61459e-06
-3.91431e-06
1.58602e-07
1.44776e-05
-2.13479e-07
1.07198e-05
9.67056e-06
-2.5967e-06
2.72967e-05
-3.56784e-05
1.49978e-06
-1.65232e-06
-4.21142e-05
7.95832e-06
-2.67379e-08
-1.70964e-05
1.31319e-06
1.36081e-05
-1.69499e-05
-2.27703e-06
1.59237e-05
-1.47218e-06
-3.39707e-06
1.83384e-05
9.5702e-07
-3.6015e-06
2.10354e-05
2.34521e-06
-3.53563e-06
2.31318e-05
3.50663e-06
-3.21352e-06
2.45309e-05
4.31821e-06
-2.76252e-06
2.52876e-05
4.71833e-06
-2.17033e-06
2.54811e-05
4.84054e-06
-1.52922e-06
2.52842e-05
4.52537e-06
-7.91299e-07
2.49356e-05
4.00588e-06
-9.52579e-08
2.42578e-05
3.59138e-06
6.30464e-07
2.3028e-05
3.72851e-06
1.12186e-06
2.13392e-05
4.36654e-06
1.27963e-06
1.92221e-05
4.39057e-06
1.56352e-06
1.65048e-05
3.88268e-06
1.92943e-06
1.27919e-05
3.57403e-06
2.61549e-06
7.42705e-06
3.661e-06
3.72594e-06
2.2317e-06
3.21537e-06
3.6944e-06
-1.02309e-06
2.17458e-06
2.54857e-06
-2.6243e-06
1.1407e-06
1.6772e-06
-2.97685e-06
3.55831e-07
9.43768e-07
-2.55232e-06
-2.02577e-07
3.09406e-07
-1.87975e-06
-5.02826e-07
-2.34282e-07
-1.21929e-06
-4.0309e-07
-6.23831e-07
-7.00969e-07
1.01401e-07
-8.55405e-07
-4.07475e-07
9.75361e-07
-9.50569e-07
-5.17692e-07
2.28932e-06
-7.88131e-07
-1.08515e-06
3.46379e-06
-2.47475e-07
-1.70212e-06
3.31821e-06
1.02275e-08
-2.60887e-06
1.68612e-06
2.38272e-07
-3.84114e-06
9.02692e-07
3.65603e-07
-4.29679e-06
1.20789e-06
-5.30006e-07
-3.29898e-06
2.24433e-06
-2.33716e-06
2.81293e-06
-5.36414e-06
-2.17589e-06
-3.23095e-06
1.2268e-07
-7.53689e-07
-4.63427e-06
-5.98439e-07
-7.48343e-07
-1.91415e-06
6.65989e-07
-3.25888e-07
-3.33861e-06
6.75802e-07
-1.11258e-07
-1.53999e-06
6.56958e-07
-4.10807e-08
-1.66982e-06
7.33805e-07
-1.52092e-08
-6.24243e-07
2.76765e-07
-1.53858e-07
-4.22848e-07
1.7908e-07
-2.2607e-07
-1.17854e-07
-7.80319e-08
-3.17201e-07
-8.32242e-08
-9.29432e-08
-4.08128e-07
-6.07535e-08
-1.32239e-07
-4.37363e-07
-2.03684e-07
-1.99266e-07
-3.94806e-07
-3.35002e-07
-2.70291e-07
-3.19717e-07
-4.23588e-07
-3.14283e-07
-2.40015e-07
-4.51196e-07
-3.31374e-07
-1.73424e-07
-4.61186e-07
-3.33883e-07
-1.22611e-07
-4.52827e-07
-3.30693e-07
-8.70939e-08
-4.47862e-07
-3.26211e-07
-6.34534e-08
-4.38579e-07
-3.22602e-07
-4.90485e-08
-4.33963e-07
-3.19839e-07
-4.09004e-08
-4.28971e-07
-3.18123e-07
-3.72049e-08
-4.26947e-07
-3.17062e-07
-3.64038e-08
-4.24759e-07
-3.16429e-07
-3.74874e-08
-4.23927e-07
-3.16246e-07
-3.97501e-08
-4.23086e-07
-3.16163e-07
-4.28543e-08
-4.22408e-07
-3.1613e-07
-4.62601e-08
-4.21579e-07
-3.16406e-07
-4.97257e-08
-4.20622e-07
-3.16756e-07
-5.31766e-08
-4.19478e-07
-3.17013e-07
-5.66661e-08
-4.18008e-07
-3.17169e-07
-6.04312e-08
-4.15996e-07
-3.17298e-07
-6.3982e-08
-4.13693e-07
-3.17499e-07
-6.87117e-08
-4.11531e-07
-3.17622e-07
-7.12241e-08
-4.07242e-07
-3.1788e-07
-7.79682e-08
-4.09376e-07
-3.16868e-07
-7.92886e-08
-3.96108e-07
-3.16686e-07
-8.56122e-08
-4.14113e-07
-3.17042e-07
-8.70004e-08
-3.75603e-07
-3.14573e-07
-8.73126e-08
-4.27387e-07
-3.18227e-07
-8.97124e-08
-3.45904e-07
-3.1026e-07
-7.2202e-08
-4.5719e-07
-3.22704e-07
-7.70193e-08
-3.11035e-07
-3.02245e-07
-2.1892e-08
-5.16434e-07
-3.33297e-07
-3.95825e-08
-2.61534e-07
-2.86607e-07
5.53265e-08
-5.80172e-07
-3.34649e-07
1.51313e-08
-1.71178e-07
-2.64013e-07
1.98018e-09
-3.94549e-07
-2.41204e-07
-7.73565e-08
2.21063e-08
-2.3047e-07
-2.66014e-07
2.46235e-07
8.27942e-09
-2.84551e-07
-4.68607e-08
-2.29237e-07
8.39661e-08
-6.44531e-07
-1.12453e-07
-5.89066e-07
-1.06673e-06
8.26701e-08
-1.27083e-08
-3.46045e-06
-1.60016e-07
-3.94422e-07
6.4214e-07
-2.17458e-07
-9.88302e-07
-4.15124e-06
9.45742e-08
-4.62096e-06
-3.67398e-06
6.13478e-07
8.54968e-06
-4.95358e-07
-2.92873e-06
8.74195e-06
1.85883e-05
-5.45617e-06
2.33233e-05
6.36009e-06
2.07161e-06
3.08211e-05
-3.00598e-05
2.09978e-06
-1.62552e-06
-4.56426e-05
8.86789e-06
-6.15379e-06
-1.64264e-05
2.85724e-06
-3.74867e-06
-1.99843e-05
6.29321e-07
1.78964e-06
-2.62482e-06
-4.3857e-06
9.70069e-06
-1.5506e-06
-5.40343e-06
1.3623e-05
2.75074e-06
-4.3279e-06
1.62026e-05
3.85232e-06
-2.92529e-06
1.7973e-05
4.24272e-06
-1.69484e-06
1.89792e-05
4.36226e-06
-6.50123e-07
1.93289e-05
4.13192e-06
3.58902e-07
1.90675e-05
3.53553e-06
1.25123e-06
1.80615e-05
3.07029e-06
1.94158e-06
1.62153e-05
3.02301e-06
2.41454e-06
1.3754e-05
3.70554e-06
2.48429e-06
1.02266e-05
5.06491e-06
2.82903e-06
4.36861e-06
6.17997e-06
4.06864e-06
-2.33804e-06
5.87273e-06
4.7166e-06
-7.49861e-06
4.64642e-06
4.08819e-06
-1.02486e-05
3.24158e-06
3.16939e-06
-1.09716e-05
1.88821e-06
2.05015e-06
-1.05863e-05
8.5735e-07
9.31998e-07
-9.57575e-06
1.86879e-07
-5.67447e-08
-8.29909e-06
-1.89736e-07
-7.3109e-07
-6.98006e-06
-2.8745e-07
-1.23416e-06
-5.73733e-06
-1.52569e-07
-1.593e-06
-4.66706e-06
2.62391e-07
-1.73576e-06
-3.87699e-06
9.86644e-07
-1.67532e-06
-3.47113e-06
2.01015e-06
-1.44066e-06
-3.32124e-06
3.09683e-06
-9.57408e-07
-2.95894e-06
3.50329e-06
-4.01804e-07
-2.46861e-06
2.89158e-06
-6.37043e-08
-2.78416e-06
1.8698e-06
1.31863e-07
-3.53456e-06
1.66771e-06
-1.46263e-08
-3.84797e-06
2.42604e-06
-9.04759e-07
-2.97565e-06
3.89727e-06
-2.52527e-06
5.17662e-06
-5.33935e-06
-3.29013e-06
-3.35454e-06
1.7668e-08
-1.30997e-06
-5.21644e-06
-1.3959e-06
-1.25182e-06
-2.67771e-06
7.0934e-07
-5.89876e-07
-4.18542e-06
1.855e-07
-2.13593e-07
-2.71967e-06
8.08138e-07
-9.62226e-08
-2.76861e-06
9.82804e-07
1.46284e-07
-1.5058e-06
6.4166e-07
9.13211e-08
-8.31343e-07
4.65655e-07
1.35367e-07
-2.31613e-07
7.12114e-08
-2.30198e-08
6.67079e-08
8.37518e-09
-1.95148e-07
1.87603e-07
-7.58826e-08
-3.32018e-07
7.51049e-08
-1.41589e-07
-3.54375e-07
-7.54863e-08
-2.36879e-07
-3.21943e-07
-1.54854e-07
-3.0104e-07
-2.68161e-07
-1.63506e-07
-3.41365e-07
-2.16403e-07
-1.52083e-07
-3.60792e-07
-1.71419e-07
-1.27903e-07
-3.69835e-07
-1.38367e-07
-1.09401e-07
-3.71451e-07
-1.14633e-07
-9.10977e-08
-3.7115e-07
-9.9858e-08
-7.92188e-08
-3.69459e-07
-9.02826e-08
-7.03953e-08
-3.6809e-07
-8.57158e-08
-6.55886e-08
-3.65866e-07
-8.3992e-08
-6.26872e-08
-3.63737e-07
-8.50128e-08
-6.14886e-08
-3.61359e-07
-8.696e-08
-6.14668e-08
-3.59612e-07
-8.93254e-08
-6.21929e-08
-3.5779e-07
-9.20088e-08
-6.31626e-08
-3.55674e-07
-9.48534e-08
-6.4258e-08
-3.5346e-07
-9.77816e-08
-6.5251e-08
-3.51241e-07
-1.00847e-07
-6.5955e-08
-3.4893e-07
-1.04237e-07
-6.6248e-08
-3.46302e-07
-1.07609e-07
-6.64901e-08
-3.43778e-07
-1.12323e-07
-6.5922e-08
-3.40838e-07
-1.15873e-07
-6.5179e-08
-3.38479e-07
-1.22649e-07
-6.63223e-08
-3.36182e-07
-1.24154e-07
-6.03796e-08
-3.34255e-07
-1.32254e-07
-7.30473e-08
-3.3278e-07
-1.31518e-07
-4.84576e-08
-3.28038e-07
-1.34953e-07
-9.47769e-08
-3.28838e-07
-1.31761e-07
-3.11767e-08
-3.18276e-07
-1.20632e-07
-1.4059e-07
-3.2717e-07
-1.16364e-07
-1.28746e-08
-3.03074e-07
-8.27935e-08
-2.22151e-07
-3.26945e-07
-8.45296e-08
1.82466e-08
-2.7919e-07
-7.41907e-08
-2.88495e-07
-3.00529e-07
-8.82222e-08
9.53375e-08
-2.54355e-07
-2.40928e-07
-6.91276e-08
-1.70524e-07
-2.57624e-07
2.64742e-07
-2.28319e-07
-2.00931e-07
2.25394e-07
-2.82883e-08
-9.39286e-08
4.78727e-08
-1.98492e-07
6.26005e-07
-1.14744e-06
-1.88996e-07
5.02578e-07
-8.34107e-07
-1.06447e-07
-7.64686e-08
-2.9749e-06
1.80395e-07
-1.04162e-06
1.55497e-06
6.44561e-08
2.28355e-06
-3.66541e-06
-3.07878e-06
3.74521e-06
-1.4374e-06
-3.87686e-06
1.22848e-05
-1.80814e-06
-5.98223e-06
1.64233e-05
2.16843e-05
-7.28127e-06
3.97563e-05
-9.09998e-06
1.34981e-05
3.32617e-05
-1.81749e-05
3.68145e-06
-9.80701e-06
-4.2628e-05
8.93603e-06
-1.27427e-05
-1.7651e-05
3.50293e-06
-1.42429e-05
-1.90929e-05
6.04996e-07
-6.73693e-06
-8.119e-06
-2.01342e-06
-3.81982e-07
-5.83607e-06
-2.06956e-06
3.98483e-06
-7.42864e-07
-8.73216e-07
7.04129e-06
5.91256e-07
2.04628e-07
8.43026e-06
1.35579e-06
1.49797e-06
8.0999e-06
2.14122e-06
2.55139e-06
5.89717e-06
2.78251e-06
3.55214e-06
1.66169e-06
3.48314e-06
4.28786e-06
-4.08826e-06
4.15851e-06
4.66174e-06
-9.80277e-06
4.54836e-06
4.1892e-06
-1.46426e-05
4.91235e-06
3.63303e-06
-1.83971e-05
5.23177e-06
3.58772e-06
-2.06195e-05
4.96717e-06
3.43528e-06
-2.15782e-05
4.05335e-06
2.77807e-06
-2.17445e-05
3.00106e-06
1.81175e-06
-2.11871e-05
1.93356e-06
7.50555e-07
-2.01938e-05
1.15237e-06
-2.57397e-07
-1.88786e-05
6.55042e-07
-1.1129e-06
-1.72541e-05
2.97246e-07
-1.73487e-06
-1.54474e-05
1.0712e-07
-2.10354e-06
-1.3545e-05
6.49967e-08
-2.25484e-06
-1.16427e-05
1.43928e-07
-2.19889e-06
-9.85759e-06
4.16281e-07
-1.93895e-06
-8.22831e-06
9.37888e-07
-1.58053e-06
-6.80924e-06
1.74107e-06
-1.15e-06
-5.56516e-06
2.52676e-06
-6.74014e-07
-4.58181e-06
2.87393e-06
-3.53997e-07
-3.95641e-06
2.51474e-06
-2.48567e-07
-4.04395e-06
2.12855e-06
-1.71228e-07
-4.17845e-06
2.217e-06
-4.14798e-07
-3.90389e-06
3.42869e-06
-1.27724e-06
-2.84746e-06
5.57217e-06
-2.73135e-06
7.62466e-06
-5.29553e-06
-4.31737e-06
-2.80614e-06
-2.40724e-07
-1.78943e-06
-5.66709e-06
-2.07812e-06
-1.28449e-06
-2.74782e-06
-4.31423e-07
-2.83537e-07
-4.06835e-06
-1.11688e-06
2.42562e-07
-2.98932e-06
-2.51631e-07
4.95538e-08
-3.14743e-06
5.75593e-07
1.66743e-07
-2.29045e-06
6.70164e-07
8.5523e-08
-1.33226e-06
5.84427e-07
3.52619e-07
-6.42777e-07
1.47819e-07
3.62442e-07
3.81285e-08
2.07134e-08
2.27692e-07
3.77522e-07
-5.46308e-08
8.7807e-09
3.94488e-07
-1.00295e-07
-1.26892e-07
2.49264e-07
-1.88696e-07
-1.86321e-07
1.59302e-07
-2.54462e-07
-1.99402e-07
1.56018e-07
-3.0614e-07
-1.92941e-07
1.78358e-07
-3.36607e-07
-1.78121e-07
2.12928e-07
-3.55331e-07
-1.6323e-07
2.39512e-07
-3.63492e-07
-1.52047e-07
2.63409e-07
-3.65361e-07
-1.45583e-07
2.77745e-07
-3.63098e-07
-1.42348e-07
2.86235e-07
-3.59522e-07
-1.41981e-07
2.89501e-07
-3.55115e-07
-1.42782e-07
2.89095e-07
-3.5063e-07
-1.44724e-07
2.86062e-07
-3.4526e-07
-1.47043e-07
2.80988e-07
-3.39786e-07
-1.49949e-07
2.74979e-07
-3.3392e-07
-1.53303e-07
2.68517e-07
-3.27979e-07
-1.57113e-07
2.61913e-07
-3.2202e-07
-1.61294e-07
2.55425e-07
-3.16153e-07
-1.65665e-07
2.49209e-07
-3.10456e-07
-1.70064e-07
2.43566e-07
-3.05075e-07
-1.74207e-07
2.38372e-07
-3.00388e-07
-1.788e-07
2.348e-07
-2.95789e-07
-1.8236e-07
2.30809e-07
-2.92112e-07
-1.88931e-07
2.28021e-07
-2.87414e-07
-1.91742e-07
2.27467e-07
-2.84786e-07
-2.03202e-07
2.18615e-07
-2.79757e-07
-2.03003e-07
2.31473e-07
-2.80022e-07
-2.13306e-07
1.94502e-07
-2.78376e-07
-2.06729e-07
2.38033e-07
-2.75903e-07
-2.15205e-07
1.48821e-07
-2.80092e-07
-2.0501e-07
2.45511e-07
-2.6904e-07
-2.32302e-07
7.99707e-08
-2.73624e-07
-2.21905e-07
2.64167e-07
-2.57231e-07
-3.48841e-07
6.22023e-08
-2.2205e-07
-3.38102e-07
3.31637e-07
-2.48579e-07
-5.82707e-07
2.7603e-07
-9.803e-08
-5.07707e-07
4.39597e-07
-2.52004e-07
-3.05301e-07
1.87465e-07
-1.55842e-07
-1.96723e-07
1.87161e-07
-2.45711e-07
2.74915e-07
-1.25183e-06
-3.45326e-07
8.25683e-08
-4.73462e-07
-1.62355e-07
-1.14911e-06
-1.86155e-06
1.60636e-07
6.95622e-07
3.3474e-07
-5.0043e-07
2.80766e-06
-2.0279e-06
-3.11414e-06
3.6978e-06
3.36424e-06
-5.71866e-06
1.1591e-05
-7.76286e-07
-8.23085e-06
2.98868e-05
1.29079e-05
-9.34145e-06
4.02059e-05
-1.45017e-05
2.05148e-05
3.01279e-05
-1.03633e-05
3.44813e-06
-2.09053e-05
-3.07178e-05
1.13459e-05
-2.75166e-05
-1.58933e-05
4.51564e-06
-3.25545e-05
-1.46827e-05
5.8197e-07
-2.94122e-05
-1.00709e-05
-1.23141e-06
-2.79124e-05
-6.8636e-06
-4.93242e-07
-2.59377e-05
-3.98598e-06
1.2543e-06
-2.53762e-05
-2.26321e-06
2.2866e-06
-2.58424e-05
-1.02454e-06
2.84357e-06
-2.75195e-05
7.93103e-07
3.02481e-06
-2.94423e-05
1.67282e-06
3.03178e-06
-3.17455e-05
2.8656e-06
2.92218e-06
-3.34807e-05
3.1728e-06
2.72146e-06
-3.48078e-05
3.42439e-06
2.45123e-06
-3.54701e-05
3.4512e-06
2.12272e-06
-3.61631e-05
4.27644e-06
1.64953e-06
-3.60618e-05
3.7776e-06
1.08844e-06
-3.56063e-05
3.19352e-06
4.03967e-07
-3.48896e-05
2.61535e-06
-3.31235e-07
-3.3869e-05
1.9435e-06
-1.0324e-06
-3.24464e-05
1.30926e-06
-1.58301e-06
-3.06948e-05
8.31618e-07
-1.93256e-06
-2.86871e-05
3.75805e-07
-2.09184e-06
-2.64691e-05
-2.02447e-08
-2.09572e-06
-2.4034e-05
-3.61332e-07
-2.01256e-06
-2.13938e-05
-5.90697e-07
-1.90877e-06
-1.85478e-05
-5.85333e-07
-1.84704e-06
-1.54786e-05
-3.25521e-07
-1.80769e-06
-1.22639e-05
2.72289e-07
-1.74703e-06
-9.17266e-06
1.1089e-06
-1.67399e-06
-6.55468e-06
1.8939e-06
-1.63791e-06
-4.75265e-06
2.33184e-06
-1.61913e-06
-3.74841e-06
2.64925e-06
-1.52496e-06
-3.27921e-06
3.23814e-06
-1.49037e-06
-2.90302e-06
4.99297e-06
-1.94051e-06
-2.01755e-06
7.70312e-06
-3.01646e-06
1.06117e-05
-5.00467e-06
-4.97306e-06
-1.85953e-06
1.88714e-07
-2.01673e-06
-6.05724e-06
-2.57079e-06
-8.75475e-07
-1.82833e-06
-2.05894e-06
2.01057e-07
-2.95505e-06
-2.18833e-06
1.0303e-06
-2.05637e-06
-1.75761e-06
7.99848e-07
-2.31545e-06
-5.97127e-07
5.21532e-07
-2.00505e-06
-2.2887e-09
1.9405e-07
-1.35963e-06
3.56403e-07
3.1716e-07
-7.95933e-07
3.28148e-08
4.64915e-07
1.03217e-08
-1.15942e-07
5.11936e-07
5.23323e-07
-1.90726e-07
3.3957e-07
7.08722e-07
-1.41685e-07
1.3836e-07
6.00736e-07
-1.5019e-07
8.65795e-09
4.70604e-07
-1.8162e-07
-6.82727e-08
4.4718e-07
-2.14209e-07
-1.15918e-07
4.62875e-07
-2.36917e-07
-1.4601e-07
4.99066e-07
-2.56097e-07
-1.65381e-07
5.26269e-07
-2.675e-07
-1.79112e-07
5.51208e-07
-2.74201e-07
-1.89587e-07
5.64297e-07
-2.76253e-07
-1.98628e-07
5.70554e-07
-2.75472e-07
-2.06534e-07
5.70132e-07
-2.72943e-07
-2.13594e-07
5.65909e-07
-2.69978e-07
-2.20286e-07
5.58335e-07
-2.65814e-07
-2.26673e-07
5.48058e-07
-2.60913e-07
-2.3301e-07
5.36831e-07
-2.55734e-07
-2.39111e-07
5.25184e-07
-2.50776e-07
-2.448e-07
5.1342e-07
-2.46014e-07
-2.499e-07
5.01448e-07
-2.4111e-07
-2.5433e-07
4.90064e-07
-2.36596e-07
-2.58666e-07
4.80221e-07
-2.32484e-07
-2.63062e-07
4.71248e-07
-2.28634e-07
-2.67759e-07
4.64116e-07
-2.24768e-07
-2.7163e-07
4.56469e-07
-2.21936e-07
-2.76882e-07
4.51708e-07
-2.18563e-07
-2.78732e-07
4.46883e-07
-2.17745e-07
-2.87712e-07
4.41315e-07
-2.1376e-07
-2.85146e-07
4.45203e-07
-2.16606e-07
-3.00685e-07
4.20379e-07
-2.10179e-07
-2.90947e-07
4.45523e-07
-2.17745e-07
-3.24347e-07
3.85981e-07
-2.03351e-07
-3.10314e-07
4.4731e-07
-2.16694e-07
-3.95298e-07
3.42907e-07
-1.77143e-07
-3.79469e-07
4.62865e-07
-2.15856e-07
-5.80889e-07
3.7145e-07
-1.06399e-07
-5.49527e-07
5.22258e-07
-2.24009e-07
-7.68725e-07
5.39862e-07
-4.21764e-08
-6.59766e-07
5.56146e-07
-2.27998e-07
-4.08723e-07
2.4251e-07
-2.98029e-07
-2.38364e-07
3.18602e-07
-2.99715e-07
-4.24943e-07
-6.93596e-07
-3.50326e-07
-4.99782e-07
-2.77375e-07
-1.1429e-07
-1.8534e-06
-6.37568e-07
1.90446e-07
2.08744e-06
-2.92305e-06
-5.31691e-07
3.67949e-06
6.65424e-07
-3.74521e-06
7.44717e-06
8.1516e-06
-8.45432e-06
1.43868e-05
3.23735e-06
-1.06739e-05
3.43419e-05
3.07669e-06
-1.07414e-05
3.34805e-05
-9.65017e-06
2.28181e-05
1.80209e-05
-3.66996e-06
4.47096e-06
-4.16694e-05
-7.25293e-06
1.22182e-05
-5.433e-05
-8.2789e-06
4.73945e-06
-6.08625e-05
-8.75763e-06
5.11451e-07
-6.23614e-05
-7.67406e-06
-8.35629e-07
-6.14041e-05
-6.93717e-06
-9.94644e-07
-6.02266e-05
-5.45036e-06
-1.82934e-08
-5.93658e-05
-3.90246e-06
5.87872e-07
-5.91654e-05
-2.31852e-06
1.11649e-06
-5.83267e-05
-9.22816e-07
9.81416e-07
-5.85551e-05
7.01033e-07
1.25562e-06
-5.82071e-05
1.5284e-06
9.2773e-07
-5.81827e-05
2.27196e-06
8.78985e-07
-5.85425e-05
3.00487e-06
7.33502e-07
-5.95718e-05
3.69934e-06
6.36477e-07
-5.80262e-05
2.9822e-06
-2.10145e-07
-5.66423e-05
3.07633e-06
-5.11812e-07
-5.55539e-05
2.96694e-06
-8.77215e-07
-5.44143e-05
2.72549e-06
-1.29165e-06
-5.32366e-05
2.3244e-06
-1.5878e-06
-5.18503e-05
1.56821e-06
-1.69753e-06
-5.00948e-05
7.58018e-07
-1.70785e-06
-4.79907e-05
-1.14907e-07
-1.67295e-06
-4.57013e-05
-7.87937e-07
-1.59713e-06
-4.32473e-05
-1.38047e-06
-1.48616e-06
-4.04928e-05
-1.95482e-06
-1.43703e-06
-3.72112e-05
-2.43887e-06
-1.50738e-06
-3.33306e-05
-2.68286e-06
-1.6335e-06
-2.87136e-05
-2.65643e-06
-1.80244e-06
-2.33415e-05
-2.31755e-06
-2.05521e-06
-1.77612e-05
-1.55608e-06
-2.19077e-06
-1.25449e-05
-4.46409e-07
-2.49321e-06
-8.40498e-06
8.53925e-07
-2.37204e-06
-5.41646e-06
2.9779e-06
-2.75101e-06
-3.30106e-06
6.09691e-06
-3.22741e-06
-1.78238e-06
1.01464e-05
-3.96763e-06
1.40506e-05
-5.21752e-06
-4.35331e-06
-8.3844e-07
1.71271e-06
-2.15087e-06
-5.80053e-06
-2.47001e-06
-1.35728e-06
-7.15993e-07
-1.90351e-06
-2.25551e-07
-1.7525e-06
-2.33536e-06
9.80384e-07
-8.61652e-07
-2.39471e-06
1.13717e-06
-9.24205e-07
-1.54046e-06
9.78277e-07
-8.61223e-07
-9.77732e-07
4.26775e-07
-8.11545e-07
6.31912e-09
2.6336e-07
-6.00835e-07
-3.0063e-08
3.96254e-07
8.6097e-08
-2.04357e-07
5.89764e-07
6.57975e-07
-3.24363e-07
5.56266e-07
9.8132e-07
-2.37852e-07
4.13466e-07
9.43093e-07
-1.99243e-07
2.58665e-07
8.56453e-07
-2.31061e-07
1.20952e-07
8.55056e-07
-2.70182e-07
6.22978e-09
8.84682e-07
-3.07167e-07
-8.38745e-08
9.25251e-07
-3.36139e-07
-1.51096e-07
9.55079e-07
-3.61658e-07
-2.02091e-07
9.81851e-07
-3.79695e-07
-2.41593e-07
9.97918e-07
-3.94167e-07
-2.72603e-07
1.00771e-06
-4.06185e-07
-2.97612e-07
1.01081e-06
-4.15712e-07
-3.18129e-07
1.0091e-06
-4.22698e-07
-3.34273e-07
1.00168e-06
-4.27218e-07
-3.45058e-07
9.91357e-07
-4.32553e-07
-3.53032e-07
9.81907e-07
-4.37167e-07
-3.59648e-07
9.72901e-07
-4.41188e-07
-3.65848e-07
9.64571e-07
-4.45058e-07
-3.71518e-07
9.57549e-07
-4.50558e-07
-3.77146e-07
9.51673e-07
-4.56135e-07
-3.82731e-07
9.47126e-07
-4.6149e-07
-3.87837e-07
9.43356e-07
-4.67198e-07
-3.9291e-07
9.4164e-07
-4.72656e-07
-3.97107e-07
9.39383e-07
-4.78949e-07
-4.01477e-07
9.40218e-07
-4.84366e-07
-4.03801e-07
9.40268e-07
-4.91337e-07
-4.11985e-07
9.43785e-07
-4.94463e-07
-4.11078e-07
9.48248e-07
-5.04394e-07
-4.35978e-07
9.47027e-07
-5.01739e-07
-4.29489e-07
9.57906e-07
-5.19591e-07
-4.96093e-07
9.54731e-07
-5.01822e-07
-4.87321e-07
9.70266e-07
-5.32849e-07
-6.4915e-07
9.81856e-07
-4.76331e-07
-6.44139e-07
9.98076e-07
-5.41883e-07
-9.12195e-07
1.03163e-06
-3.90685e-07
-8.53808e-07
1.00561e-06
-5.44165e-07
-9.43655e-07
9.81357e-07
-3.49119e-07
-7.5765e-07
8.72212e-07
-5.05299e-07
-2.57536e-07
5.15066e-07
-7.65739e-07
-4.36732e-08
7.34257e-07
-6.28487e-07
-3.41335e-07
4.9438e-07
-8.65512e-07
-1.16825e-07
2.85816e-07
-7.74859e-07
-2.78698e-07
1.46047e-07
-4.77366e-07
2.18989e-06
-4.31016e-06
-9.57036e-07
4.8731e-06
4.57154e-06
-5.89908e-06
1.00405e-05
1.37295e-05
-1.07582e-05
1.22144e-05
1.34567e-05
-1.20749e-05
3.32725e-05
-5.96192e-06
-1.21173e-05
3.71294e-05
-9.0692e-06
2.59822e-05
1.70049e-05
4.99421e-06
4.71081e-06
-5.38069e-05
2.37054e-05
1.43667e-05
-7.2024e-05
4.00951e-06
5.80239e-06
-8.15588e-05
8.02534e-07
-3.56647e-08
-8.50916e-05
-2.78928e-06
-1.33501e-06
-8.75162e-05
-3.15074e-06
-1.37472e-06
-8.869e-05
-3.18874e-06
-1.06414e-06
-8.93904e-05
-2.49874e-06
-6.28098e-07
-8.96555e-05
-1.68774e-06
-3.64629e-07
-8.96804e-05
-5.28158e-07
-4.06794e-07
-8.91831e-05
7.13449e-07
-5.3527e-07
-8.86058e-05
1.57216e-06
-7.13784e-07
-8.79763e-05
2.42746e-06
-8.43807e-07
-8.71271e-05
3.21868e-06
-1.08187e-06
-8.58154e-05
3.83819e-06
-1.33241e-06
-8.48256e-05
4.02657e-06
-1.77259e-06
-8.38562e-05
4.33008e-06
-2.04918e-06
-8.29146e-05
4.34439e-06
-2.35034e-06
-8.1188e-05
3.66917e-06
-2.77799e-06
-7.89681e-05
2.86166e-06
-2.89508e-06
-7.70127e-05
2.16234e-06
-2.64536e-06
-7.50215e-05
1.15186e-06
-2.40376e-06
-7.30816e-05
-4.29772e-08
-2.04423e-06
-7.11685e-05
-1.15121e-06
-1.57957e-06
-6.93536e-05
-2.12336e-06
-1.07969e-06
-6.77609e-05
-2.86203e-06
-6.73492e-07
-6.62535e-05
-3.41216e-06
-4.86228e-07
-6.44192e-05
-3.92079e-06
-5.27254e-07
-6.20913e-05
-4.15986e-06
-7.59857e-07
-5.90514e-05
-4.13219e-06
-1.17319e-06
-5.5224e-05
-3.51323e-06
-1.87528e-06
-5.00607e-05
-2.88817e-06
-2.81419e-06
-4.35004e-05
-2.14463e-06
-3.69586e-06
-3.55017e-05
-8.68946e-07
-4.43182e-06
-2.5516e-05
1.09796e-06
-5.40477e-06
-1.36912e-05
4.38985e-06
-6.70167e-06
5.56375e-06
-8.86033e-06
-2.57025e-06
1.07625e-07
1.8811e-06
-2.14501e-06
-5.37415e-06
-8.63901e-07
-2.59166e-06
2.50852e-07
-5.16405e-07
-1.3362e-06
-1.43557e-06
-1.57772e-06
-1.60165e-07
6.2851e-08
-2.09444e-06
2.86456e-07
2.48485e-07
-1.60916e-06
5.85813e-07
8.1459e-08
-1.23299e-06
1.31532e-07
-1.53429e-07
-1.98501e-07
4.67581e-08
-4.83464e-07
-3.05756e-08
1.37427e-07
1.90364e-08
-1.99074e-08
4.31217e-07
5.36272e-07
-1.67873e-07
5.49607e-07
8.78664e-07
-1.35084e-08
5.20692e-07
8.52153e-07
1.20776e-07