/*--------------------------------*- C++ -*----------------------------------*\
| =========                 |                                                 |
| \\      /  F ield         | OpenFOAM: The Open Source CFD Toolbox           |
|  \\    /   O peration     | Version:  2.3.0                                 |
|   \\  /    A nd           | Web:      www.OpenFOAM.org                      |
|    \\/     M anipulation  |                                                 |
\*---------------------------------------------------------------------------*/
FoamFile
{
    version     2.0;
    format      ascii;
    class       surfaceScalarField;
    location    "13";
    object      phi.air;
}
// * * * * * * * * * * * * * * * * * * * * * * * * * * * * * * * * * * * * * //

dimensions      [0 3 -1 0 0 0 0];

internalField   nonuniform List<scalar> 
16448
(
-1.37612e-06
-1.65628e-06
4.22179e-07
1.17487e-07
-1.92059e-06
4.26978e-07
3.49725e-07
-6.95569e-07
4.63331e-07
7.58095e-07
-9.59031e-07
5.5066e-07
7.43428e-07
-3.90318e-07
4.04985e-07
7.81371e-07
-5.08988e-07
4.71044e-07
6.61669e-07
-3.60833e-07
4.80536e-07
5.64467e-07
-4.1074e-07
5.07941e-07
3.59368e-07
-3.9338e-07
5.98479e-07
1.53833e-07
-4.21873e-07
6.27409e-07
-2.15734e-08
-4.60786e-07
6.36193e-07
-1.03076e-07
-5.33827e-07
6.1533e-07
-1.20097e-07
-6.00086e-07
6.17108e-07
-9.18774e-08
-6.49856e-07
6.21636e-07
-5.74597e-08
-6.79611e-07
6.45194e-07
-2.09044e-08
-6.99436e-07
6.62881e-07
5.17613e-09
-7.11655e-07
6.85574e-07
2.49513e-08
-7.20493e-07
7.00718e-07
3.59399e-08
-7.26593e-07
7.15604e-07
4.29154e-08
-7.32121e-07
7.25145e-07
4.4643e-08
-7.35579e-07
7.33851e-07
4.48688e-08
-7.39452e-07
7.39225e-07
4.27258e-08
-7.41757e-07
7.43899e-07
4.01134e-08
-7.44229e-07
7.4684e-07
3.6769e-08
-7.45877e-07
7.4922e-07
3.33387e-08
-7.47354e-07
7.50783e-07
2.97921e-08
-7.48417e-07
7.51962e-07
2.62752e-08
-7.49236e-07
7.52751e-07
2.27748e-08
-7.49805e-07
7.53303e-07
1.92693e-08
-7.50077e-07
7.5358e-07
1.59323e-08
-7.50486e-07
7.53819e-07
1.14449e-08
-7.49301e-07
7.53785e-07
9.57901e-09
-7.5146e-07
7.53322e-07
1.56545e-09
-7.45613e-07
7.53622e-07
4.28086e-09
-7.53737e-07
7.51017e-07
-9.34412e-09
-7.38576e-07
7.52196e-07
1.08071e-09
-7.5693e-07
7.46499e-07
-2.16455e-08
-7.27189e-07
7.49909e-07
-1.51762e-09
-7.5898e-07
7.38846e-07
-3.57038e-08
-7.11292e-07
7.45471e-07
-7.71989e-10
-7.59028e-07
7.24089e-07
-4.31985e-08
-6.91577e-07
7.33996e-07
1.08237e-08
-7.54173e-07
7.00142e-07
-3.26751e-08
-6.66518e-07
7.10007e-07
2.26748e-08
-7.32462e-07
6.77103e-07
-2.88409e-08
-6.25908e-07
6.77414e-07
-8.93754e-08
-6.40494e-07
7.0102e-07
-2.4526e-07
-5.2858e-07
6.84456e-07
-6.43855e-07
-5.02768e-07
9.01355e-07
-9.72101e-07
-4.91123e-07
8.19363e-07
-8.83045e-07
-1.05577e-06
9.66708e-07
-2.51938e-07
-1.48269e-06
8.51578e-07
-6.08687e-07
-9.42826e-07
1.29957e-06
-2.02354e-06
-8.74948e-08
1.50235e-06
-1.25537e-06
-2.43827e-06
1.67007e-06
-1.30161e-06
-2.8687e-06
2.91494e-06
-2.04645e-06
1.19256e-06
-4.48484e-07
-4.25901e-06
1.0007e-06
1.21036e-06
-9.55553e-06
3.08868e-06
1.84801e-06
-2.92629e-05
-2.15249e-05
1.20455e-05
-5.74239e-05
-1.58436e-05
2.96598e-06
-1.32445e-05
-2.49796e-06
1.16112e-06
2.54868e-05
-6.93824e-08
-2.04642e-06
2.76537e-05
-2.14394e-06
-9.64407e-08
2.96872e-05
-1.29169e-06
-8.77253e-07
3.10829e-05
-2.33552e-08
-1.35869e-06
3.1818e-05
8.86817e-07
-1.60651e-06
3.22023e-05
1.2785e-06
-1.67583e-06
3.22976e-05
1.47091e-06
-1.59372e-06
3.20648e-05
1.6241e-06
-1.41813e-06
3.14921e-05
1.74479e-06
-1.19384e-06
3.06008e-05
1.81466e-06
-9.42528e-07
2.93858e-05
1.87651e-06
-6.76517e-07
2.78527e-05
1.92635e-06
-4.04494e-07
2.59661e-05
2.01262e-06
-1.2931e-07
2.38949e-05
1.95343e-06
1.12474e-07
2.17989e-05
1.6705e-06
4.21594e-07
1.95868e-05
1.46788e-06
7.53322e-07
1.73794e-05
1.1133e-06
1.08062e-06
1.5375e-05
5.84433e-07
1.39644e-06
1.35038e-05
2.62764e-07
1.6101e-06
1.17789e-05
6.04136e-08
1.67101e-06
1.01154e-05
-5.21951e-08
1.71622e-06
8.63641e-06
-2.30386e-07
1.69606e-06
7.31792e-06
-3.61069e-07
1.66369e-06
6.15491e-06
-3.3829e-07
1.48739e-06
4.97606e-06
-1.43284e-07
1.32041e-06
3.6147e-06
2.73981e-07
1.10305e-06
1.76093e-06
9.32779e-07
1.05409e-06
-5.53108e-07
1.79128e-06
9.6372e-07
-2.44514e-06
1.53463e-06
7.28349e-07
-3.61336e-06
1.86286e-07
1.04248e-06
-4.5063e-06
-5.9142e-07
1.47834e-06
-5.31717e-06
-5.80516e-07
1.40025e-06
-4.23994e-06
-3.93387e-07
-6.97783e-07
-8.97718e-07
-2.87164e-06
-1.81356e-06
-2.37373e-06
-4.8779e-08
-5.63174e-07
-3.02935e-06
-1.41618e-07
-3.72797e-07
-9.95873e-07
1.09928e-07
5.07245e-09
-1.54736e-06
2.10461e-07
9.61643e-08
-5.06895e-07
2.54864e-08
1.23161e-07
-6.7473e-07
1.38747e-07
1.4484e-07
-3.9138e-07
8.86886e-09
1.1313e-07
-4.5615e-07
7.71214e-08
3.94204e-08
-4.25703e-07
1.06034e-07
-1.08084e-07
-4.28711e-07
1.54343e-07
-2.38877e-07
-4.78106e-07
1.48113e-07
-2.81895e-07
-6.03252e-07
1.12444e-07
-2.64626e-07
-7.13026e-07
9.56725e-08
-2.05859e-07
-7.98983e-07
9.03626e-08
-1.48712e-07
-8.39842e-07
1.03086e-07
-9.52534e-08
-8.68068e-07
1.15173e-07
-5.83418e-08
-8.79356e-07
1.30789e-07
-3.06624e-08
-8.89603e-07
1.41431e-07
-1.46927e-08
-8.94227e-07
1.51664e-07
-5.23115e-09
-8.99518e-07
1.57935e-07
-1.44876e-09
-9.0263e-07
1.63267e-07
-1.0547e-09
-9.06167e-07
1.66319e-07
-2.95273e-09
-9.08568e-07
1.68707e-07
-6.1999e-09
-9.1093e-07
1.69946e-07
-1.0249e-08
-9.12587e-07
1.70757e-07
-1.46102e-08
-9.13977e-07
1.70981e-07
-1.91564e-08
-9.14856e-07
1.70982e-07
-2.37141e-08
-9.15398e-07
1.70716e-07
-2.82469e-08
-9.15581e-07
1.70305e-07
-3.27055e-08
-9.154e-07
1.69777e-07
-3.72976e-08
-9.15057e-07
1.69158e-07
-4.18979e-08
-9.13275e-07
1.68568e-07
-4.68475e-08
-9.14331e-07
1.67814e-07
-5.22604e-08
-9.07568e-07
1.6736e-07
-5.55737e-08
-9.15538e-07
1.65106e-07
-6.39252e-08
-8.9582e-07
1.65585e-07
-6.19331e-08
-9.19667e-07
1.60735e-07
-7.64166e-08
-8.7664e-07
1.63923e-07
-6.48046e-08
-9.24439e-07
1.53835e-07
-8.97398e-08
-8.48369e-07
1.61999e-07
-5.85121e-08
-9.31048e-07
1.40778e-07
-9.43923e-08
-8.12594e-07
1.56883e-07
-2.46924e-08
-9.42374e-07
1.18486e-07
-6.89759e-08
-7.66934e-07
1.44685e-07
2.92501e-08
-9.35227e-07
1.04523e-07
-2.59986e-08
-6.95256e-07
1.24582e-07
-2.14777e-08
-8.01829e-07
1.568e-07
-1.62295e-07
-5.24554e-07
1.36778e-07
-8.25686e-07
-3.33629e-07
4.94241e-07
-1.06715e-06
-4.99681e-07
2.50019e-07
-1.81649e-06
-9.80678e-07
6.74244e-07
-1.77831e-06
-1.95059e-06
4.2972e-07
-6.42629e-07
-2.14165e-06
6.31473e-08
-1.31508e-06
1.79231e-07
4.05736e-07
-3.40552e-07
-3.81548e-06
4.02668e-07
2.37088e-06
-6.52799e-06
9.47858e-07
-2.20326e-06
8.46603e-06
-2.70013e-06
-9.85658e-06
8.79553e-06
-1.42548e-07
-7.90129e-06
6.54221e-06
-5.78347e-06
-2.9908e-05
-3.36014e-05
4.80224e-06
-7.28286e-05
-2.65739e-05
4.01767e-06
-3.18612e-05
-6.58296e-06
-9.98646e-07
1.40716e-05
-5.55395e-06
-3.79437e-06
1.7853e-05
-2.50985e-06
-3.79818e-06
2.06917e-05
-2.00904e-07
-3.75837e-06
2.31504e-05
1.54219e-06
-3.92936e-06
2.53931e-05
2.427e-06
-3.79308e-06
2.7085e-05
2.98833e-06
-3.40135e-06
2.81082e-05
3.33129e-06
-2.86245e-06
2.85694e-05
3.52435e-06
-2.33984e-06
2.86173e-05
3.55397e-06
-1.84229e-06
2.82439e-05
3.58152e-06
-1.36863e-06
2.74974e-05
3.56521e-06
-9.14919e-07
2.62751e-05
3.6407e-06
-4.53893e-07
2.44598e-05
3.96742e-06
-1.01414e-07
2.23616e-05
3.82045e-06
2.0551e-07
2.02918e-05
3.07343e-06
6.1558e-07
1.82251e-05
2.47915e-06
1.05423e-06
1.59363e-05
2.03949e-06
1.39549e-06
1.32747e-05
1.73325e-06
1.5491e-06
1.04699e-05
1.47941e-06
1.59742e-06
7.64568e-06
1.21054e-06
1.6491e-06
4.87153e-06
9.39794e-07
1.74019e-06
2.48751e-06
5.26954e-07
1.59663e-06
1.01009e-06
-6.49523e-08
1.17881e-06
3.6702e-07
-3.65414e-07
6.75619e-07
1.57827e-07
-2.34624e-07
3.11439e-07
1.30278e-07
3.1941e-07
3.75036e-08
-1.6127e-07
1.39373e-06
4.38672e-08
-9.04637e-07
2.64356e-06
3.44225e-07
-1.97664e-06
2.70865e-06
2.43917e-07
-3.16474e-06
1.02381e-06
3.97362e-07
-4.40797e-06
3.91635e-08
5.75473e-07
-5.07034e-06
2.26726e-07
-1.78792e-07
-4.2269e-06
9.13246e-07
-2.16143e-06
7.52656e-07
-5.23675e-06
-1.79022e-06
-2.81935e-06
-3.30345e-08
-6.20844e-07
-3.81429e-06
-3.84427e-07
-5.76856e-07
-1.24745e-06
2.07589e-07
-2.3801e-07
-2.24138e-06
3.55176e-07
-2.10757e-07
-6.72221e-07
1.38075e-07
-2.26132e-07
-8.66443e-07
2.07091e-07
-2.39036e-07
-3.23811e-07
-5.4664e-08
-2.59742e-07
-3.81823e-07
-5.36201e-08
-2.81569e-07
-2.68345e-07
-1.3553e-07
-3.37462e-07
-2.67322e-07
-1.05494e-07
-4.21057e-07
-2.84339e-07
-1.1017e-07
-4.32874e-07
-4.32409e-07
-1.59024e-07
-3.85844e-07
-5.62878e-07
-1.97177e-07
-3.05998e-07
-6.62851e-07
-2.15978e-07
-2.3125e-07
-7.03001e-07
-2.11588e-07
-1.67959e-07
-7.28616e-07
-2.02742e-07
-1.23463e-07
-7.32874e-07
-1.90977e-07
-9.15445e-08
-7.38719e-07
-1.82802e-07
-7.22888e-08
-7.37717e-07
-1.75766e-07
-6.03908e-08
-7.39568e-07
-1.71848e-07
-5.50862e-08
-7.39125e-07
-1.6881e-07
-5.31464e-08
-7.40488e-07
-1.6762e-07
-5.43749e-08
-7.40563e-07
-1.66778e-07
-5.69156e-08
-7.41428e-07
-1.66963e-07
-6.05318e-08
-7.41682e-07
-1.67291e-07
-6.46415e-08
-7.41807e-07
-1.68062e-07
-6.89997e-08
-7.41553e-07
-1.68947e-07
-7.33958e-08
-7.41e-07
-1.70006e-07
-7.77766e-08
-7.40095e-07
-1.7111e-07
-8.21191e-08
-7.38811e-07
-1.72251e-07
-8.66188e-08
-7.37202e-07
-1.73361e-07
-9.08177e-08
-7.34872e-07
-1.74209e-07
-9.62803e-08
-7.34025e-07
-1.7485e-07
-1.00362e-07
-7.27719e-07
-1.75774e-07
-1.05886e-07
-7.33161e-07
-1.76862e-07
-1.11086e-07
-7.1411e-07
-1.76519e-07
-1.13356e-07
-7.37725e-07
-1.79683e-07
-1.22093e-07
-6.91415e-07
-1.76498e-07
-1.16664e-07
-7.463e-07
-1.83581e-07
-1.3189e-07
-6.58193e-07
-1.74962e-07
-1.08739e-07
-7.62973e-07
-1.91239e-07
-1.31472e-07
-6.17394e-07
-1.72482e-07
-7.21287e-08
-7.95601e-07
-2.06131e-07
-1.0491e-07
-5.64415e-07
-1.69753e-07
-1.18665e-09
-8.20936e-07
-2.18029e-07
-5.28134e-08
-4.74066e-07
-1.69579e-07
-6.51482e-08
-6.50543e-07
-1.38967e-07
-1.46823e-07
-2.85009e-07
-1.57886e-07
-7.6153e-07
6.02661e-08
2.20799e-07
-8.53924e-07
-2.98118e-07
-1.09178e-07
-1.71408e-06
-4.2102e-07
3.00493e-07
-2.25889e-06
-1.65809e-06
2.52309e-07
-5.64696e-07
-3.1505e-06
-6.85337e-07
1.66942e-07
5.40494e-08
-6.06448e-07
1.4372e-06
-5.17673e-06
9.09547e-08
-1.2621e-07
-6.52931e-06
1.56475e-06
4.69274e-06
7.58927e-06
-3.94315e-06
-8.58205e-07
1.45574e-05
-2.10805e-07
-2.07876e-06
1.0135e-05
-2.77019e-06
-2.63597e-05
-3.75192e-05
1.22722e-06
-5.92185e-05
-3.94511e-05
8.61417e-06
-2.21812e-05
-1.62657e-05
9.60658e-07
1.21296e-05
-1.71195e-05
-2.25028e-06
1.40759e-05
-1.50734e-06
-3.36764e-06
1.67014e-05
9.71709e-07
-3.59809e-06
1.9402e-05
2.33575e-06
-3.54172e-06
2.14292e-05
3.48756e-06
-3.22305e-06
2.27983e-05
4.2954e-06
-2.77252e-06
2.35527e-05
4.69712e-06
-2.17723e-06
2.37456e-05
4.82049e-06
-1.5313e-06
2.35379e-05
4.49995e-06
-7.87808e-07
2.3163e-05
3.9744e-06
-8.52108e-08
2.24737e-05
3.56274e-06
6.34452e-07
2.1262e-05
3.70592e-06
1.12357e-06
1.95941e-05
4.36913e-06
1.28125e-06
1.74636e-05
4.42271e-06
1.56504e-06
1.47506e-05
3.91762e-06
1.92838e-06
1.10477e-05
3.59354e-06
2.61083e-06
5.64128e-06
3.6423e-06
3.71777e-06
4.37958e-07
3.19423e-06
3.69361e-06
-2.80005e-06
2.16541e-06
2.56169e-06
-4.40746e-06
1.14313e-06
1.67743e-06
-4.76415e-06
3.62047e-07
9.41054e-07
-4.35283e-06
-1.97793e-07
3.09307e-07
-3.68702e-06
-4.98332e-07
-2.33916e-07
-3.02463e-06
-4.01047e-07
-6.2411e-07
-2.47622e-06
1.00361e-07
-8.54165e-07
-2.06938e-06
9.77588e-07
-9.46065e-07
-1.8685e-06
2.29539e-06
-7.81417e-07
-2.00091e-06
3.47165e-06
-2.42226e-07
-2.40725e-06
3.32785e-06
1.28548e-08
-3.34356e-06
1.69378e-06
2.4206e-07
-4.63281e-06
9.06155e-07
3.62064e-07
-5.1272e-06
1.20706e-06
-5.38628e-07
-4.11491e-06
2.23958e-06
-2.36198e-06
2.80702e-06
-5.39417e-06
-2.24905e-06
-3.2312e-06
1.22776e-07
-8.30077e-07
-4.63493e-06
-5.98339e-07
-8.2946e-07
-1.91458e-06
6.66514e-07
-4.07545e-07
-3.33924e-06
6.75941e-07
-1.96786e-07
-1.54048e-06
6.57506e-07
-1.27612e-07
-1.6701e-06
7.34487e-07
-1.0458e-07
-6.2434e-07
2.77499e-07
-2.43508e-07
-4.22723e-07
1.7983e-07
-3.16588e-07
-1.17703e-07
-7.75602e-08
-4.08271e-07
-8.31226e-08
-9.25143e-08
-5.00105e-07
-6.05973e-08
-1.31906e-07
-5.29956e-07
-2.03503e-07
-1.99053e-07
-4.87867e-07
-3.34816e-07
-2.70149e-07
-4.13125e-07
-4.2342e-07
-3.14171e-07
-3.33795e-07
-4.51058e-07
-3.31272e-07
-2.67561e-07
-4.61065e-07
-3.33784e-07
-2.17125e-07
-4.52715e-07
-3.30596e-07
-1.81975e-07
-4.47755e-07
-3.26114e-07
-1.58711e-07
-4.38475e-07
-3.22505e-07
-1.44678e-07
-4.3386e-07
-3.19742e-07
-1.36907e-07
-4.28869e-07
-3.18028e-07
-1.33585e-07
-4.26844e-07
-3.16967e-07
-1.33162e-07
-4.24653e-07
-3.16334e-07
-1.34621e-07
-4.23818e-07
-3.16152e-07
-1.37262e-07
-4.22973e-07
-3.1607e-07
-1.40743e-07
-4.22291e-07
-3.16038e-07
-1.44528e-07
-4.21457e-07
-3.16314e-07
-1.48371e-07
-4.20495e-07
-3.16665e-07
-1.52202e-07
-4.19346e-07
-3.16923e-07
-1.56069e-07
-4.1787e-07
-3.17079e-07
-1.60214e-07
-4.15853e-07
-3.17208e-07
-1.64139e-07
-4.13544e-07
-3.1741e-07
-1.6926e-07
-4.11376e-07
-3.17535e-07
-1.72117e-07
-4.07078e-07
-3.17793e-07
-1.793e-07
-4.09205e-07
-3.16782e-07
-1.80896e-07
-3.95927e-07
-3.16597e-07
-1.87749e-07
-4.13926e-07
-3.16957e-07
-1.89291e-07
-3.75402e-07
-3.14483e-07
-1.90282e-07
-4.27177e-07
-3.18145e-07
-1.92641e-07
-3.45679e-07
-3.10168e-07
-1.7605e-07
-4.56952e-07
-3.22627e-07
-1.80531e-07
-3.10779e-07
-3.02149e-07
-1.26766e-07
-5.16153e-07
-3.33229e-07
-1.43464e-07
-2.61226e-07
-2.86507e-07
-5.00077e-08
-5.79819e-07
-3.34592e-07
-8.93903e-08
-1.70787e-07
-2.63913e-07
-1.04706e-07
-3.94119e-07
-2.41127e-07
-1.81929e-07
2.26056e-08
-2.30406e-07
-3.76925e-07
2.46756e-07
8.48795e-09
-3.99648e-07
-4.62686e-08
-2.29136e-07
-6.44425e-08
-6.44194e-07
-1.12042e-07
-7.40549e-07
-1.06571e-06
8.37281e-08
-2.71438e-07
-3.45915e-06
-1.60458e-07
-6.46582e-07
6.45671e-07
-2.16465e-07
-1.78701e-06
-4.14111e-06
1.04758e-07
-5.27528e-06
-3.66451e-06
6.23521e-07
5.73235e-06
-4.99146e-07
-2.91999e-06
7.13032e-06
1.86843e-05
-5.52467e-06
7.92195e-06
6.89013e-06
1.97416e-06
-2.59881e-05
-3.40242e-05
1.88701e-06
-4.01559e-05
-4.38376e-05
9.92146e-06
-2.81913e-05
-1.63696e-05
2.93321e-06
-2.87046e-05
-1.81796e-05
3.32857e-07
9.81582e-08
-1.82903e-06
-4.38563e-06
8.09531e-06
-3.90305e-06
-5.40864e-06
1.18356e-05
2.77122e-06
-4.34556e-06
1.43973e-05
3.86012e-06
-2.94269e-06
1.61594e-05
4.25229e-06
-1.70285e-06
1.71518e-05
4.3718e-06
-6.47084e-07
1.74775e-05
4.14726e-06
3.65822e-07
1.71834e-05
3.56241e-06
1.25087e-06
1.61469e-05
3.1025e-06
1.94075e-06
1.42851e-05
3.05356e-06
2.4174e-06
1.18396e-05
3.72738e-06
2.49326e-06
8.34467e-06
5.05843e-06
2.84445e-06
2.46367e-06
6.14538e-06
4.08125e-06
-4.25839e-06
5.83489e-06
4.72886e-06
-9.39445e-06
4.62802e-06
4.08873e-06
-1.21408e-05
3.25307e-06
3.16199e-06
-1.28393e-05
1.90729e-06
2.04413e-06
-1.24244e-05
8.67806e-07
9.30546e-07
-1.13832e-05
1.92959e-07
-5.20604e-08
-1.00921e-05
-1.84278e-07
-7.31393e-07
-8.77904e-06
-2.82977e-07
-1.23303e-06
-7.54439e-06
-1.50265e-07
-1.58692e-06
-6.43118e-06
2.6098e-07
-1.72782e-06
-5.52303e-06
9.7883e-07
-1.66749e-06
-4.89972e-06
1.99528e-06
-1.43255e-06
-4.43361e-06
3.07688e-06
-9.49241e-07
-3.82965e-06
3.48391e-06
-3.97653e-07
-3.30343e-06
2.88522e-06
-6.01393e-08
-3.66263e-06
1.87116e-06
1.35212e-07
-4.45554e-06
1.66865e-06
-1.30974e-08
-4.80193e-06
2.42999e-06
-9.13552e-07
-3.89921e-06
3.91112e-06
-2.54658e-06
5.18974e-06
-5.36409e-06
-3.35839e-06
-3.35484e-06
1.80731e-08
-1.38076e-06
-5.21713e-06
-1.39543e-06
-1.32752e-06
-2.67788e-06
7.10063e-07
-6.66871e-07
-4.1858e-06
1.85921e-07
-2.95729e-07
-2.72012e-06
8.08498e-07
-1.80136e-07
-2.76883e-06
9.83138e-07
5.93205e-08
-1.50602e-06
6.42222e-07
1.61978e-09
-8.314e-07
4.66378e-07
4.35789e-08
-2.315e-07
7.18387e-08
-1.15352e-07
6.68955e-08
8.91429e-09
-2.88244e-07
1.87745e-07
-7.54487e-08
-4.25781e-07
7.52781e-08
-1.41242e-07
-4.48727e-07
-7.52647e-08
-2.36604e-07
-4.16752e-07
-1.54596e-07
-3.00798e-07
-3.63443e-07
-1.63228e-07
-3.41138e-07
-3.12142e-07
-1.51794e-07
-3.60571e-07
-2.67632e-07
-1.27608e-07
-3.69617e-07
-2.35049e-07
-1.09103e-07
-3.71235e-07
-2.1179e-07
-9.07991e-08
-3.70935e-07
-1.97488e-07
-7.89184e-08
-3.69244e-07
-1.88388e-07
-7.0093e-08
-3.67876e-07
-1.84296e-07
-6.52838e-08
-3.65653e-07
-1.83049e-07
-6.23798e-08
-3.63523e-07
-1.84547e-07
-6.11785e-08
-3.61143e-07
-1.86972e-07
-6.11535e-08
-3.59397e-07
-1.89814e-07
-6.18764e-08
-3.57574e-07
-1.92976e-07
-6.28424e-08
-3.55457e-07
-1.96299e-07
-6.39342e-08
-3.53241e-07
-1.99706e-07
-6.49227e-08
-3.51021e-07
-2.0325e-07
-6.56227e-08
-3.48708e-07
-2.0712e-07
-6.59106e-08
-3.46078e-07
-2.10968e-07
-6.61484e-08
-3.43553e-07
-2.16166e-07
-6.55746e-08
-3.40611e-07
-2.20173e-07
-6.48273e-08
-3.38252e-07
-2.2747e-07
-6.59632e-08
-3.35954e-07
-2.29365e-07
-6.00159e-08
-3.34025e-07
-2.38079e-07
-7.26709e-08
-3.32552e-07
-2.37607e-07
-4.80809e-08
-3.27805e-07
-2.41811e-07
-9.4374e-08
-3.28612e-07
-2.38683e-07
-3.0785e-08
-3.18038e-07
-2.28556e-07
-1.40147e-07
-3.26947e-07
-2.24061e-07
-1.24623e-08
-3.02829e-07
-1.91856e-07
-2.21646e-07
-3.26729e-07
-1.92877e-07
1.87138e-08
-2.78937e-07
-1.84475e-07
-2.87918e-07
-3.00321e-07
-1.97092e-07
9.59167e-08
-2.54108e-07
-3.52415e-07
-6.85179e-08
-1.70295e-07
-3.6716e-07
2.65455e-07
-2.28126e-07
-3.18572e-07
2.26118e-07
-2.79629e-08
-2.15343e-07
4.86875e-08
-1.98203e-07
4.75361e-07
-1.14636e-06
-1.88544e-07
3.48708e-07
-8.3324e-07
-1.05824e-07
-3.16617e-07
-2.97341e-06
1.79586e-07
-1.29933e-06
1.5593e-06
6.90933e-08
1.32601e-06
-3.66803e-06
-3.09849e-06
3.00029e-06
-1.44573e-06
-3.89305e-06
1.03939e-05
-1.79754e-06
-6.09562e-06
1.4544e-05
2.18759e-05
-7.34161e-06
1.48106e-05
-8.65306e-06
1.3306e-05
-4.12093e-05
-2.27232e-05
3.39604e-06
-0.000113716
-4.34438e-05
9.01025e-06
-0.000109722
-1.68937e-05
3.03027e-06
-9.91487e-05
-1.70283e-05
3.67106e-08
-5.97277e-05
-5.16416e-06
-1.55155e-06
-1.5369e-05
-5.87799e-06
-1.22711e-06
2.18036e-06
-8.50387e-07
1.98089e-07
5.27446e-06
1.6797e-07
1.33723e-06
6.64567e-06
1.07564e-06
2.53491e-06
6.30803e-06
2.2234e-06
3.5823e-06
4.10739e-06
2.80888e-06
4.43421e-06
-1.42738e-07
3.59008e-06
5.02956e-06
-5.92142e-06
4.0346e-06
5.04234e-06
-1.16378e-05
4.16287e-06
4.53115e-06
-1.64275e-05
4.39347e-06
4.13371e-06
-2.01733e-05
4.81952e-06
4.01115e-06
-2.24377e-05
4.48966e-06
3.64987e-06
-2.34235e-05
3.64212e-06
2.82497e-06
-2.36074e-05
2.70989e-06
1.77221e-06
-2.32042e-05
1.81804e-06
6.69174e-07
-2.24157e-05
1.18345e-06
-3.47854e-07
-2.10462e-05
7.82617e-07
-1.15331e-06
-1.91429e-05
5.12485e-07
-1.72416e-06
-1.70741e-05
3.57126e-07
-2.04597e-06
-1.50123e-05
3.54324e-07
-2.15917e-06
-1.29973e-05
5.03174e-07
-2.10958e-06
-1.1121e-05
8.52247e-07
-1.92009e-06
-9.39574e-06
1.42894e-06
-1.5693e-06
-7.8744e-06
2.18776e-06
-1.1411e-06
-6.55715e-06
2.81248e-06
-6.6952e-07
-5.53191e-06
2.86897e-06
-3.53756e-07
-4.95063e-06
2.54777e-06
-2.45409e-07
-5.09388e-06
2.16829e-06
-1.68412e-07
-5.25885e-06
2.24843e-06
-4.17171e-07
-5.01399e-06
3.4508e-06
-1.28607e-06
-3.89683e-06
5.58336e-06
-2.74973e-06
7.62463e-06
-5.31632e-06
-4.3816e-06
-2.80623e-06
-2.40446e-07
-1.85396e-06
-5.66712e-06
-2.07765e-06
-1.35336e-06
-2.74796e-06
-4.3052e-07
-3.54653e-07
-4.06842e-06
-1.11608e-06
1.65578e-07
-2.98923e-06
-2.51122e-07
-3.16034e-08
-3.14761e-06
5.75963e-07
8.26311e-08
-2.29064e-06
6.70391e-07
-1.31396e-09
-1.3323e-06
5.84844e-07
2.6175e-07
-6.42808e-07
1.48246e-07
2.69142e-07
3.83051e-08
2.11989e-08
1.3337e-07
3.77669e-07
-5.41519e-08
-8.61242e-08
3.94619e-07
-9.98467e-08
-2.22508e-07
2.49417e-07
-1.88296e-07
-2.82495e-07
1.59475e-07
-2.54085e-07
-2.96153e-07
1.56204e-07
-3.05774e-07
-2.90249e-07
1.7855e-07
-3.36247e-07
-2.76005e-07
2.13123e-07
-3.54974e-07
-2.61677e-07
2.39704e-07
-3.63136e-07
-2.5107e-07
2.63599e-07
-3.65005e-07
-2.45176e-07
2.7793e-07
-3.62742e-07
-2.42519e-07
2.86415e-07
-3.59166e-07
-2.42725e-07
2.89678e-07
-3.54757e-07
-2.44103e-07
2.8927e-07
-3.50272e-07
-2.46622e-07
2.86236e-07
-3.44898e-07
-2.49517e-07
2.81163e-07
-3.39422e-07
-2.53001e-07
2.75156e-07
-3.33552e-07
-2.56933e-07
2.68695e-07
-3.27608e-07
-2.6132e-07
2.62094e-07
-3.21645e-07
-2.6608e-07
2.55607e-07
-3.15774e-07
-2.71028e-07
2.49394e-07
-3.10074e-07
-2.76007e-07
2.43753e-07
-3.04689e-07
-2.80726e-07
2.38563e-07
-3e-07
-2.85901e-07
2.34995e-07
-2.95401e-07
-2.90025e-07
2.3101e-07
-2.91722e-07
-2.97201e-07
2.28227e-07
-2.87024e-07
-3.0052e-07
2.27683e-07
-2.8439e-07
-3.12676e-07
2.18838e-07
-2.79364e-07
-3.12857e-07
2.31708e-07
-2.7962e-07
-3.24016e-07
1.94752e-07
-2.77982e-07
-3.17611e-07
2.38292e-07
-2.75496e-07
-3.27181e-07
1.49108e-07
-2.797e-07
-3.16838e-07
2.45805e-07
-2.68627e-07
-3.45583e-07
8.03188e-08
-2.73238e-07
-3.346e-07
2.64524e-07
-2.5681e-07
-4.63496e-07
6.26285e-08
-2.2167e-07
-4.51529e-07
3.32097e-07
-2.48164e-07
-6.98959e-07
2.76531e-07
-9.76404e-08
-6.22116e-07
4.40246e-07
-2.51649e-07
-4.28704e-07
1.8816e-07
-1.55474e-07
-3.22919e-07
1.88183e-07
-2.45291e-07
1.26707e-07
-1.25111e-06
-3.44893e-07
-7.33071e-08
-4.7147e-07
-1.61753e-07
-1.34679e-06
-1.86068e-06
1.60755e-07
3.72526e-07
3.4148e-07
-5.01478e-07
1.9146e-06
-2.02478e-06
-3.18541e-06
2.87959e-06
3.35699e-06
-5.76772e-06
1.02395e-05
-8.4468e-07
-8.31291e-06
2.86514e-05
1.27687e-05
-9.30464e-06
9.46441e-06
-1.44968e-05
2.02653e-05
-5.05419e-05
-1.40963e-05
3.12367e-06
-9.68497e-05
-3.39186e-05
1.28242e-05
-0.000109111
-1.46584e-05
4.4637e-06
-0.00013063
-1.41018e-05
1.34628e-06
-0.000131108
-9.46569e-06
-2.20977e-07
-0.000133545
-6.31169e-06
5.57101e-07
-0.000135638
-3.547e-06
2.26998e-06
-0.000135666
-2.15056e-06
2.90725e-06
-0.000136331
-7.65284e-07
3.3621e-06
-0.000137498
6.09426e-07
3.43901e-06
-0.000139507
1.92358e-06
3.4181e-06
-0.000143343
2.74398e-06
3.22314e-06
-0.00014656
3.19849e-06
2.97737e-06
-0.000148411
3.35661e-06
2.71669e-06
-0.000149164
3.50619e-06
2.34263e-06
-0.000149956
3.89252e-06
1.55743e-06
-0.000150339
3.63535e-06
1.1917e-06
-0.000150503
3.23982e-06
5.54521e-07
-0.000150514
2.74302e-06
-6.33469e-08
-0.000149862
2.18496e-06
-6.33258e-07
-0.000149214
1.54812e-06
-1.02922e-06
-0.000148703
1.18567e-06
-1.49898e-06
-0.000145047
8.40389e-07
-1.56458e-06
-0.000142225
4.47221e-07
-1.59604e-06
-0.00014228
1.4883e-07
-1.51756e-06
-0.000139411
6.66289e-08
-1.46174e-06
-0.000134461
2.12769e-07
-1.3874e-06
-0.00012494
5.75101e-07
-1.3425e-06
-9.99284e-05
1.17158e-06
-1.28088e-06
-4.64533e-05
1.75441e-06
-1.2793e-06
-8.13218e-06
1.64418e-06
-1.58659e-06
-5.62888e-06
2.12135e-06
-1.39157e-06
-4.70442e-06
2.43478e-06
-1.40621e-06
-4.38664e-06
3.78788e-06
-1.4862e-06
-4.03678e-06
4.97433e-06
-1.94891e-06
-3.00591e-06
7.71068e-06
-3.03297e-06
1.13794e-05
-5.02723e-06
-5.03648e-06
-1.85849e-06
1.89748e-07
-2.07594e-06
-6.05712e-06
-2.57053e-06
-9.37706e-07
-1.82785e-06
-2.05834e-06
1.36417e-07
-2.95468e-06
-2.18786e-06
9.59406e-07
-2.05561e-06
-1.75661e-06
7.22922e-07
-2.31476e-06
-5.96369e-07
4.39142e-07
-2.0048e-06
-2.05592e-09
1.09666e-07
-1.35952e-06
3.56696e-07
2.29342e-07
-7.95781e-07
3.32979e-08
3.72511e-07
1.05706e-08
-1.15434e-07
4.16738e-07
5.23664e-07
-1.90221e-07
2.43423e-07
7.0909e-07
-1.41155e-07
4.14316e-08
6.01064e-07
-1.49656e-07
-8.89227e-08
4.70903e-07
-1.81073e-07
-1.66549e-07
4.47459e-07
-2.13629e-07
-2.1485e-07
4.63151e-07
-2.36299e-07
-2.45626e-07
4.99359e-07
-2.5546e-07
-2.6566e-07
5.26586e-07
-2.66847e-07
-2.80072e-07
5.51547e-07
-2.73536e-07
-2.91215e-07
5.64653e-07
-2.7558e-07
-3.00934e-07
5.70923e-07
-2.74791e-07
-3.09511e-07
5.70511e-07
-2.72256e-07
-3.1725e-07
5.66296e-07
-2.69289e-07
-3.24618e-07
5.58724e-07
-2.65121e-07
-3.31683e-07
5.48441e-07
-2.60216e-07
-3.38698e-07
5.37205e-07
-2.55036e-07
-3.45478e-07
5.25548e-07
-2.50077e-07
-3.51846e-07
5.13773e-07
-2.45313e-07
-3.57625e-07
5.01788e-07
-2.40407e-07
-3.62735e-07
4.90391e-07
-2.35892e-07
-3.6775e-07
4.80541e-07
-2.31779e-07
-3.72824e-07
4.71561e-07
-2.27929e-07
-3.78202e-07
4.64426e-07
-2.24061e-07
-3.82746e-07
4.56776e-07
-2.21229e-07
-3.88689e-07
4.52017e-07
-2.17856e-07
-3.91171e-07
4.47193e-07
-2.17038e-07
-4.00922e-07
4.41632e-07
-2.13055e-07
-3.98853e-07
4.45526e-07
-2.15899e-07
-4.15345e-07
4.2071e-07
-2.09479e-07
-4.05891e-07
4.45863e-07
-2.17039e-07
-4.40481e-07
3.86342e-07
-2.02659e-07
-4.26379e-07
4.47678e-07
-2.15991e-07
-5.12923e-07
3.43317e-07
-1.76469e-07
-4.9655e-07
4.63289e-07
-2.15156e-07
-7.00082e-07
3.71913e-07
-1.05767e-07
-6.67459e-07
5.2277e-07
-2.23315e-07
-8.89729e-07
5.404e-07
-4.16123e-08
-7.78971e-07
5.5679e-07
-2.27321e-07
-5.36579e-07
2.43299e-07
-2.97543e-07
-3.68984e-07
3.19593e-07
-2.99023e-07
-5.78436e-07
-6.92073e-07
-3.49586e-07
-6.60764e-07
-2.75805e-07
-1.13342e-07
-2.07754e-06
-6.34955e-07
1.91069e-07
1.70193e-06
-2.90915e-06
-5.28838e-07
2.77287e-06
6.63529e-07
-3.75933e-06
6.47912e-06
8.15777e-06
-8.50708e-06
1.31522e-05
3.26217e-06
-1.07799e-05
3.35112e-05
3.09315e-06
-1.06832e-05
-3.85472e-06
-9.7025e-06
2.26359e-05
-8.70189e-05
-3.86776e-06
4.81161e-06
-0.000147545
-8.03533e-06
1.49336e-05
-0.000149198
-9.43416e-06
4.79092e-06
-0.000156038
-8.33728e-06
1.1805e-06
-0.000167021
-8.39396e-06
-2.47264e-07
-0.000171571
-7.11458e-06
-2.85234e-07
-0.000167702
-5.70297e-06
6.22591e-07
-0.000159703
-3.7496e-06
1.2231e-06
-0.000154477
-2.51505e-06
1.63839e-06
-0.000153852
-1.51407e-06
1.50611e-06
-0.000161547
6.59824e-07
1.65936e-06
-0.000157134
1.43413e-06
1.51724e-06
-0.000157524
2.30328e-06
1.43559e-06
-0.000158235
3.02832e-06
1.37132e-06
-0.000137483
3.46083e-06
1.01602e-06
-0.000137181
3.22838e-06
2.675e-07
-0.000164296
3.36844e-06
-2.47608e-08
-0.000171318
3.31826e-06
-3.04124e-07
-0.00017001
3.0543e-06
-6.77342e-07
-0.000174276
2.63063e-06
-9.38772e-07
-0.00017293
1.77714e-06
-1.05341e-06
-0.000172881
1.17005e-06
-1.12324e-06
-0.000172149
3.96302e-07
-1.13527e-06
-0.000169567
-3.12808e-07
-1.1092e-06
-0.000166941
-1.00425e-06
-1.0639e-06
-0.000165128
-1.54766e-06
-1.09058e-06
-0.000163698
-1.87965e-06
-1.25875e-06
-0.000160449
-1.95409e-06
-1.45798e-06
-0.000149203
-1.65031e-06
-1.66633e-06
-0.00011945
-1.17998e-06
-2.02218e-06
-0.000113712
-6.24404e-07
-2.24563e-06
-0.00010092
9.65557e-07
-2.05455e-06
-8.49148e-05
2.1314e-06
-2.3658e-06
-5.29022e-05
4.74441e-06
-2.90289e-06
-5.14368e-06
6.82732e-06
-3.7948e-06
-6.04147e-05
1.07651e-05
-4.42751e-06
1.35238e-05
-5.33519e-06
-4.41957e-06
-8.38215e-07
1.71474e-06
-2.20712e-06
-5.79957e-06
-2.46999e-06
-1.41655e-06
-7.15448e-07
-1.90297e-06
-2.84077e-07
-1.75181e-06
-2.33534e-06
9.15464e-07
-8.60885e-07
-2.39426e-06
1.06434e-06
-9.23344e-07
-1.54029e-06
8.97495e-07
-8.60295e-07
-9.77663e-07
3.42297e-07
-8.10889e-07
6.56983e-09
1.7623e-07
-6.00197e-07
-2.95154e-08
3.03962e-07
8.66286e-08
-2.0379e-07
4.92804e-07
6.58647e-07
-3.23825e-07
4.57219e-07
9.82004e-07
-2.37329e-07
3.13224e-07
9.43753e-07
-1.98693e-07
1.57496e-07
8.57121e-07
-2.30491e-07
1.88135e-08
8.55743e-07
-2.696e-07
-9.68527e-08
8.85393e-07
-3.06576e-07
-1.87932e-07
9.25981e-07
-3.35543e-07
-2.56114e-07
9.55824e-07
-3.61056e-07
-3.08085e-07
9.82605e-07
-3.79088e-07
-3.48557e-07
9.98678e-07
-3.93553e-07
-3.80546e-07
1.00848e-06
-4.05564e-07
-4.06531e-07
1.01158e-06
-4.15087e-07
-4.28037e-07
1.00987e-06
-4.22072e-07
-4.45173e-07
1.00245e-06
-4.26589e-07
-4.56949e-07
9.92132e-07
-4.31916e-07
-4.65918e-07
9.82692e-07
-4.36521e-07
-4.73532e-07
9.73696e-07
-4.40535e-07
-4.80736e-07
9.65374e-07
-4.44402e-07
-4.87411e-07
9.5836e-07
-4.499e-07
-4.94048e-07
9.52494e-07
-4.55472e-07
-5.00646e-07
9.47957e-07
-4.60823e-07
-5.06764e-07
9.44198e-07
-4.66526e-07
-5.12858e-07
9.42493e-07
-4.7198e-07
-5.18069e-07
9.40248e-07
-4.7827e-07
-5.23469e-07
9.41095e-07
-4.83686e-07
-5.2679e-07
9.41158e-07
-4.90654e-07
-5.36078e-07
9.44687e-07
-4.93777e-07
-5.36028e-07
9.49167e-07
-5.03703e-07
-5.62232e-07
9.47956e-07
-5.01055e-07
-5.56339e-07
9.58856e-07
-5.189e-07
-6.2455e-07
9.55684e-07
-5.01146e-07
-6.15978e-07
9.71254e-07
-5.3216e-07
-7.79848e-07
9.82837e-07
-4.75664e-07
-7.74491e-07
9.99119e-07
-5.412e-07
-1.04523e-06
1.03264e-06
-3.90011e-07
-9.85702e-07
1.00672e-06
-5.43485e-07
-1.07933e-06
9.82443e-07
-3.48434e-07
-8.91359e-07
8.73383e-07
-5.04573e-07
-3.99282e-07
5.16311e-07
-7.65105e-07
-1.87733e-07
7.35649e-07
-6.27613e-07
-5.11637e-07
4.96127e-07
-8.64307e-07
-3.00998e-07
2.87659e-07
-7.74098e-07
-6.05811e-07
1.47851e-07
-4.77991e-07
1.7467e-06
-4.30987e-06
-9.51776e-07
3.75465e-06
4.57949e-06
-5.92402e-06
8.96508e-06
1.37531e-05
-1.08058e-05
1.08211e-05
1.35151e-05
-1.2109e-05
3.19388e-05
-5.94905e-06
-1.20753e-05
-7.42232e-06
-8.99698e-06
2.5857e-05
-0.000110167
1.07026e-05
5.91284e-06
-0.000186891
2.45096e-05
1.79532e-05
-0.000204274
3.45659e-06
5.7466e-06
-0.000213562
2.21248e-06
8.71941e-07
-0.000218319
-2.74149e-06
-4.62335e-07
-0.000220451
-3.22691e-06
-7.13179e-07
-0.000223423
-3.47762e-06
-2.26194e-07
-0.000228207
-2.25723e-06
2.20512e-07
-0.000228547
-1.76489e-06
3.56996e-07
-0.000227286
-5.45348e-07
3.76072e-07
-0.000228245
9.27277e-07
2.42043e-07
-0.000228787
2.01934e-06
2.2335e-07
-0.000229722
2.86741e-06
1.25397e-07
-0.000230184
3.75488e-06
-6.22964e-08
-0.000230118
4.3476e-06
-2.59379e-07
-0.000230055
4.26121e-06
-7.50816e-07
-0.00022912
4.53975e-06
-1.07041e-06
-0.000225855
4.34286e-06
-1.50168e-06
-0.000225815
3.5926e-06
-1.8613e-06
-0.000226956
3.0685e-06
-1.79013e-06
-0.000225341
2.29265e-06
-1.56487e-06
-0.000225027
1.42136e-06
-1.37218e-06
-0.000224642
2.38603e-07
-1.00199e-06
-0.000223919
-7.89841e-07
-5.88067e-07
-0.000223296
-1.67e-06
-1.77073e-07
-0.000222447
-2.44388e-06
9.24727e-08
-0.000221672
-2.92005e-06
1.13715e-07
-0.000220553
-3.24543e-06
-1.32075e-07
-0.000218945
-3.26497e-06
-4.94548e-07
-0.000216916
-2.98463e-06
-9.2802e-07
-0.000212818
-2.29638e-06
-1.69649e-06
-0.000206862
-1.52642e-06
-2.77619e-06
-0.000201852
-3.83507e-07
-3.6562e-06
-0.000192176
1.19862e-06
-4.35978e-06
-0.000181373
3.13038e-06
-5.41245e-06
-0.000170467
5.27053e-06
-6.36561e-06
5.38004e-06
-6.50298e-06
-2.64111e-06
1.08925e-07
1.88505e-06
-2.20137e-06
-5.376e-06
-8.63302e-07
-2.65178e-06
2.50805e-07
-5.15846e-07
-1.3901e-06
-1.43583e-06
-1.57766e-06
-2.19463e-07
6.3142e-08
-2.09466e-06
2.18214e-07
2.48998e-07
-1.61002e-06
5.09417e-07
8.18945e-08
-1.23339e-06
5.01402e-08
-1.53067e-07
-1.98544e-07
-3.68828e-08
-4.83213e-07
-2.9961e-08
4.94233e-08
1.93805e-08
-1.90573e-08
3.38627e-07