/*--------------------------------*- C++ -*----------------------------------*\
| =========                 |                                                 |
| \\      /  F ield         | OpenFOAM: The Open Source CFD Toolbox           |
|  \\    /   O peration     | Version:  2.3.0                                 |
|   \\  /    A nd           | Web:      www.OpenFOAM.org                      |
|    \\/     M anipulation  |                                                 |
\*---------------------------------------------------------------------------*/
FoamFile
{
    version     2.0;
    format      ascii;
    class       volScalarField;
    location    "13";
    object      rho;
}
// * * * * * * * * * * * * * * * * * * * * * * * * * * * * * * * * * * * * * //

dimensions      [1 -3 0 0 0 0 0];

internalField   nonuniform List<scalar> 
6144
(
1.16796
1.16801
1.16836
1.16849
1.16862
1.16878
1.16883
1.16886
1.16887
1.16889
1.16889
1.16889
1.1689
1.1689
1.1689
1.1689
1.1689
1.1689
1.16891
1.16891
1.16891
1.16891
1.16891
1.16891
1.16892
1.16892
1.16892
1.16892
1.16892
1.16892
1.16893
1.16893
1.16893
1.16893
1.16893
1.16893
1.16894
1.16894
1.16894
1.16894
1.16894
1.16895
1.16895
1.16895
1.16896
1.16901
1.17034
1.18203
1.21255
1.22625
1.22815
1.23098
1.23388
1.23825
1.23957
1.24894
1.24622
1.23939
2.69716
84.9243
999.25
1026.98
1027.09
1027.1
1027.1
1027.1
1027.1
1027.1
1027.1
1027.1
1027.1
1027.1
1027.1
1027.1
1027.1
1027.1
1027.1
1027.1
1027.1
1027.1
1027.1
1027.1
1027.1
1027.1
1027.1
1027.1
1027.1
1027.1
1027.1
1027.1
1027.1
1027.1
1027.1
1027.1
1027.1
1027.1
1.16716
1.16712
1.16817
1.16815
1.1685
1.16867
1.16872
1.16877
1.16879
1.16884
1.16887
1.16889
1.1689
1.1689
1.1689
1.1689
1.1689
1.16891
1.16891
1.16891
1.16891
1.16891
1.16891
1.16892
1.16892
1.16892
1.16892
1.16892
1.16892
1.16893
1.16893
1.16893
1.16893
1.16893
1.16893
1.16894
1.16894
1.16894
1.16894
1.16894
1.16895
1.16895
1.16895
1.16895
1.16896
1.16927
1.17143
1.18005
1.20105
1.22542
1.23476
1.24089
1.24203
1.24149
1.24257
1.25984
1.25555
1.25982
2.03689
88.4082
1008.34
1027.06
1027.09
1027.09
1027.1
1027.1
1027.1
1027.1
1027.1
1027.1
1027.1
1027.1
1027.1
1027.1
1027.1
1027.1
1027.1
1027.1
1027.1
1027.1
1027.1
1027.1
1027.1
1027.1
1027.1
1027.1
1027.1
1027.1
1027.1
1027.1
1027.1
1027.1
1027.1
1027.1
1027.1
1027.1
1.16616
1.16622
1.16768
1.16724
1.16832
1.16846
1.16862
1.16872
1.16869
1.16875
1.16881
1.16887
1.1689
1.1689
1.1689
1.16891
1.16891
1.16891
1.16891
1.16891
1.16891
1.16891
1.16892
1.16892
1.16892
1.16892
1.16892
1.16892
1.16893
1.16893
1.16893
1.16893
1.16893
1.16893
1.16894
1.16894
1.16894
1.16894
1.16894
1.16895
1.16895
1.16895
1.16895
1.16895
1.16899
1.16989
1.1747
1.18431
1.20125
1.22365
1.23872
1.24492
1.24398
1.23908
1.2402
1.26501
1.26051
1.27498
1.91851
101.057
1011.46
1027.07
1027.09
1027.09
1027.09
1027.09
1027.1
1027.1
1027.1
1027.1
1027.1
1027.1
1027.1
1027.1
1027.1
1027.1
1027.1
1027.1
1027.1
1027.1
1027.1
1027.1
1027.1
1027.1
1027.1
1027.1
1027.1
1027.1
1027.1
1027.1
1027.1
1027.1
1027.1
1027.1
1027.1
1027.1
1.1652
1.16526
1.16641
1.16592
1.1676
1.16786
1.16845
1.16871
1.16871
1.16874
1.16879
1.16886
1.16889
1.1689
1.1689
1.1689
1.16891
1.16891
1.16891
1.16891
1.16891
1.16891
1.16891
1.16892
1.16892
1.16892
1.16892
1.16892
1.16892
1.16893
1.16893
1.16893
1.16893
1.16893
1.16893
1.16894
1.16894
1.16894
1.16894
1.16894
1.16894
1.16895
1.16895
1.16896
1.16899
1.16945
1.1731
1.18162
1.19471
1.22249
1.24054
1.24811
1.24698
1.24115
1.25298
1.28799
1.29108
1.32096
1.77147
112.026
1011.31
1026.98
1027
1027
1027.01
1027.03
1027.06
1027.08
1027.09
1027.09
1027.1
1027.1
1027.1
1027.1
1027.1
1027.1
1027.1
1027.1
1027.1
1027.1
1027.1
1027.1
1027.1
1027.1
1027.1
1027.1
1027.1
1027.1
1027.1
1027.1
1027.1
1027.1
1027.1
1027.1
1027.1
1027.1
1.1645
1.16436
1.1651
1.16479
1.16624
1.16682
1.16779
1.16826
1.1687
1.16883
1.16882
1.16886
1.16889
1.1689
1.1689
1.1689
1.16891
1.16891
1.16891
1.16891
1.16891
1.16891
1.16892
1.16892
1.16892
1.16892
1.16892
1.16892
1.16893
1.16893
1.16893
1.16893
1.16893
1.16893
1.16894
1.16894
1.16894
1.16894
1.16894
1.16894
1.16894
1.16895
1.16895
1.16897
1.16901
1.16916
1.17027
1.17391
1.18741
1.2233
1.24131
1.25081
1.25402
1.25431
1.27119
1.30277
1.30628
1.37554
1.89028
125.2
1002.97
1025.77
1025.6
1025.51
1025.46
1025.49
1025.86
1026.2
1026.52
1026.77
1026.93
1027.01
1027.05
1027.07
1027.07
1027.07
1027.07
1027.07
1027.07
1027.07
1027.07
1027.07
1027.08
1027.09
1027.09
1027.09
1027.1
1027.1
1027.1
1027.1
1027.1
1027.1
1027.1
1027.1
1027.1
1027.1
1.16416
1.16378
1.16424
1.16395
1.165
1.1657
1.16695
1.16772
1.16817
1.16871
1.16884
1.16887
1.16889
1.1689
1.1689
1.1689
1.1689
1.1689
1.1689
1.16891
1.16891
1.16891
1.16891
1.16891
1.16891
1.16892
1.16892
1.16892
1.16892
1.16892
1.16892
1.16893
1.16893
1.16893
1.16893
1.16893
1.16893
1.16894
1.16894
1.16894
1.16894
1.16894
1.16895
1.16897
1.16901
1.16911
1.16955
1.17125
1.18404
1.22321
1.24001
1.25148
1.2598
1.27086
1.27946
1.27399
1.26357
1.41009
1.88247
127.665
995.713
1021.25
1020.06
1019.51
1019.19
1019.18
1019.83
1020.72
1021.79
1022.8
1023.78
1024.59
1025.17
1025.56
1025.77
1025.86
1025.88
1025.82
1025.78
1025.76
1025.83
1026.02
1026.31
1026.62
1026.77
1026.77
1026.76
1026.82
1026.88
1026.95
1027.01
1027.05
1027.08
1027.09
1027.1
1027.1
1.16412
1.16362
1.16375
1.16345
1.16408
1.1648
1.16601
1.16734
1.16768
1.16824
1.16873
1.16887
1.16889
1.1689
1.1689
1.16891
1.16891
1.16891
1.16891
1.16891
1.16891
1.16892
1.16892
1.16892
1.16892
1.16892
1.16892
1.16893
1.16893
1.16893
1.16893
1.16893
1.16893
1.16894
1.16894
1.16894
1.16894
1.16895
1.16895
1.16895
1.16895
1.16895
1.16895
1.16897
1.16901
1.1691
1.16941
1.17026
1.18569
1.22556
1.23858
1.2467
1.25333
1.25674
1.25511
1.25123
1.24662
1.26571
1.71601
127.476
991.072
1015.42
1013.81
1013.47
1013.38
1013.55
1014.01
1014.38
1014.89
1015.35
1016
1016.88
1017.8
1018.68
1019.42
1019.96
1020.35
1020.6
1020.88
1021.37
1022.14
1023.12
1024.14
1024.42
1024.2
1024.07
1024.06
1024.23
1024.47
1024.74
1024.98
1025.24
1025.73
1026.34
1026.84
1027.1
1.16418
1.16366
1.16371
1.16332
1.16342
1.16421
1.16541
1.16698
1.16745
1.16785
1.16852
1.16884
1.16889
1.1689
1.1689
1.16891
1.16891
1.16891
1.16891
1.16892
1.16892
1.16892
1.16892
1.16892
1.16892
1.16893
1.16893
1.16893
1.16893
1.16893
1.16894
1.16894
1.16894
1.16894
1.16894
1.16894
1.16895
1.16895
1.16895
1.16895
1.16895
1.16895
1.16896
1.16897
1.16901
1.16909
1.16928
1.17013
1.20603
1.23341
1.23777
1.24068
1.24231
1.24176
1.23891
1.2371
1.23481
1.23949
1.5361
114.938
981.873
1013.78
1012.8
1012.88
1012.97
1012.84
1013.13
1012.83
1012.53
1012.16
1011.81
1011.51
1011.29
1011.13
1011.01
1011.02
1011.41
1011.84
1012.57
1013.21
1013.65
1013.76
1013
1012.07
1010.64
1009.12
1007.85
1006.91
1005.75
1004.42
1003.15
1002.37
1002.01
1003.04
1005.61
1009.49
1.1637
1.16364
1.16398
1.16331
1.16318
1.16408
1.1653
1.16698
1.16736
1.16766
1.16831
1.16874
1.16887
1.1689
1.1689
1.1689
1.1689
1.1689
1.16891
1.16891
1.16891
1.16891
1.16891
1.16892
1.16892
1.16892
1.16892
1.16892
1.16893
1.16893
1.16893
1.16893
1.16893
1.16893
1.16893
1.16894
1.16894
1.16894
1.16894
1.16894
1.16894
1.16895
1.16895
1.16896
1.16898
1.16904
1.16919
1.16942
1.1951
1.23159
1.23469
1.23588
1.23603
1.23458
1.2332
1.236
1.23329
1.23662
1.50851
89.52
983.802
1019.71
1020.46
1022.53
1023.57
1023.96
1023.46
1023
1022.44
1021.71
1020.81
1019.85
1019.06
1018.48
1018.02
1017.68
1017.51
1017.46
1017.7
1018.17
1019.01
1020.12
1021.3
1022.72
1024.18
1025.24
1025.65
1025.45
1025.25
1025.09
1025.05
1025.07
1025.2
1025.7
1026.2
1026.61
1.16055
1.16359
1.16488
1.16395
1.16314
1.16402
1.16543
1.167
1.1674
1.16779
1.16835
1.16875
1.16888
1.1689
1.1689
1.1689
1.16891
1.16891
1.16891
1.16891
1.16892
1.16892
1.16892
1.16892
1.16892
1.16892
1.16893
1.16893
1.16893
1.16893
1.16893
1.16893
1.16893
1.16893
1.16894
1.16894
1.16894
1.16894
1.16894
1.16894
1.16895
1.16895
1.16896
1.16896
1.16897
1.169
1.16923
1.16968
1.17361
1.22136
1.23192
1.23281
1.23392
1.23293
1.22994
1.23168
1.23189
1.23606
1.43563
57.9308
994.352
1025.77
1026.26
1026.71
1026.81
1026.81
1026.75
1026.69
1026.62
1026.51
1026.36
1026.19
1026.02
1025.84
1025.67
1025.54
1025.47
1025.45
1025.56
1025.72
1026.06
1026.42
1026.74
1026.96
1027.07
1027.1
1027.1
1027.1
1027.1
1027.1
1027.1
1027.1
1027.1
1027.1
1027.1
1027.1
1.16021
1.164
1.16569
1.16499
1.16385
1.16493
1.16621
1.1672
1.16767
1.16823
1.16861
1.16882
1.16889
1.1689
1.1689
1.1689
1.1689
1.16891
1.16891
1.16891
1.16891
1.16891
1.16891
1.16892
1.16892
1.16892
1.16892
1.16892
1.16893
1.16893
1.16893
1.16893
1.16893
1.16893
1.16894
1.16894
1.16894
1.16894
1.16894
1.16895
1.16895
1.16896
1.16896
1.16896
1.16898
1.16902
1.16937
1.1708
1.17044
1.19618
1.22443
1.23024
1.23217
1.23285
1.23164
1.23344
1.23345
1.23693
1.3579
39.7524
991.347
1026.97
1027.08
1027.09
1027.09
1027.09
1027.09
1027.09
1027.09
1027.09
1027.08
1027.08
1027.07
1027.06
1027.05
1027.05
1027.05
1027.05
1027.06
1027.07
1027.08
1027.09
1027.1
1027.1
1027.1
1027.1
1027.1
1027.1
1027.1
1027.1
1027.1
1027.1
1027.1
1027.1
1027.1
1027.1
1.16077
1.16436
1.1657
1.16526
1.16485
1.166
1.1669
1.16751
1.16811
1.1686
1.16881
1.16889
1.16891
1.16891
1.16891
1.16891
1.16891
1.16892
1.16892
1.16892
1.16892
1.16892
1.16892
1.16893
1.16893
1.16893
1.16893
1.16893
1.16893
1.16894
1.16894
1.16894
1.16894
1.16894
1.16894
1.16894
1.16895
1.16895
1.16895
1.16895
1.16896
1.16896
1.16896
1.16896
1.16898
1.16905
1.16945
1.17131
1.17262
1.1769
1.20623
1.22412
1.22951
1.23181
1.23209
1.23363
1.23397
1.23773
1.42924
32.5238
986.604
1026.97
1027.09
1027.09
1027.1
1027.1
1027.1
1027.1
1027.1
1027.1
1027.1
1027.1
1027.1
1027.1
1027.1
1027.1
1027.1
1027.1
1027.1
1027.1
1027.1
1027.1
1027.1
1027.1
1027.1
1027.1
1027.1
1027.1
1027.1
1027.1
1027.1
1027.1
1027.1
1027.1
1027.1
1027.1
1.161
1.1642
1.16537
1.16562
1.16593
1.16666
1.16728
1.16789
1.16844
1.16875
1.16887
1.1689
1.16891
1.16891
1.16891
1.16892
1.16892
1.16892
1.16892
1.16892
1.16892
1.16893
1.16893
1.16893
1.16893
1.16893
1.16893
1.16894
1.16894
1.16894
1.16894
1.16894
1.16894
1.16894
1.16895
1.16895
1.16895
1.16895
1.16895
1.16895
1.16896
1.16896
1.16896
1.16896
1.16899
1.16907
1.16949
1.17148
1.17613
1.17658
1.18922
1.21068
1.22232
1.22794
1.23
1.23195
1.23258
1.23688
1.4847
31.9031
983.824
1026.93
1027.09
1027.09
1027.1
1027.1
1027.1
1027.1
1027.1
1027.1
1027.1
1027.1
1027.1
1027.1
1027.1
1027.1
1027.1
1027.1
1027.1
1027.1
1027.1
1027.1
1027.1
1027.1
1027.1
1027.1
1027.1
1027.1
1027.1
1027.1
1027.1
1027.1
1027.1
1027.1
1027.1
1027.1
1.16126
1.16432
1.1653
1.1659
1.16636
1.16694
1.16761
1.16825
1.16865
1.16883
1.16889
1.1689
1.16891
1.16891
1.16891
1.16891
1.16892
1.16892
1.16892
1.16892
1.16892
1.16892
1.16893
1.16893
1.16893
1.16893
1.16893
1.16893
1.16894
1.16894
1.16894
1.16894
1.16894
1.16894
1.16895
1.16895
1.16895
1.16895
1.16895
1.16895
1.16896
1.16896
1.16896
1.16896
1.16899
1.1691
1.1695
1.17116
1.17569
1.17924
1.1844
1.19838
1.21158
1.22025
1.22532
1.22801
1.22912
1.23376
1.49128
30.0638
964.734
1026.66
1027.09
1027.09
1027.1
1027.1
1027.1
1027.1
1027.1
1027.1
1027.1
1027.1
1027.1
1027.1
1027.1
1027.1
1027.1
1027.1
1027.1
1027.1
1027.1
1027.1
1027.1
1027.1
1027.1
1027.1
1027.1
1027.1
1027.1
1027.1
1027.1
1027.1
1027.1
1027.1
1027.1
1027.1
1.16162
1.16463
1.16538
1.16598
1.16652
1.16721
1.16786
1.16839
1.16867
1.16882
1.16887
1.1689
1.1689
1.16891
1.16891
1.16891
1.16891
1.16891
1.16891
1.16892
1.16892
1.16892
1.16892
1.16892
1.16892
1.16893
1.16893
1.16893
1.16893
1.16893
1.16894
1.16894
1.16894
1.16894
1.16894
1.16894
1.16895
1.16895
1.16895
1.16895
1.16895
1.16895
1.16895
1.16896
1.16901
1.16915
1.16959
1.1713
1.1752
1.17901
1.18318
1.18998
1.1989
1.20731
1.21447
1.21831
1.21987
1.22407
1.31164
51.3918
977.952
1026.87
1027.09
1027.09
1027.1
1027.1
1027.1
1027.1
1027.1
1027.1
1027.1
1027.1
1027.1
1027.1
1027.1
1027.1
1027.1
1027.1
1027.1
1027.1
1027.1
1027.1
1027.1
1027.1
1027.1
1027.1
1027.1
1027.1
1027.1
1027.1
1027.1
1027.1
1027.1
1027.1
1027.1
1027.1
1.16141
1.16414
1.16507
1.16583
1.1665
1.16723
1.16782
1.16831
1.16861
1.16879
1.16887
1.1689
1.16891
1.16891
1.16891
1.16892
1.16892
1.16892
1.16892
1.16892
1.16892
1.16893
1.16893
1.16893
1.16893
1.16893
1.16893
1.16894
1.16894
1.16894
1.16894
1.16894
1.16895
1.16895
1.16895
1.16895
1.16895
1.16895
1.16896
1.16896
1.16896
1.16896
1.16896
1.16897
1.16903
1.16925
1.17027
1.17476
1.18193
1.18604
1.18944
1.19425
1.19989
1.20631
1.21163
1.21803
1.22172
1.22628
1.49455
50.1857
984.96
1026.91
1027.09
1027.09
1027.1
1027.1
1027.1
1027.1
1027.1
1027.1
1027.1
1027.1
1027.1
1027.1
1027.1
1027.1
1027.1
1027.1
1027.1
1027.1
1027.1
1027.1
1027.1
1027.1
1027.1
1027.1
1027.1
1027.1
1027.1
1027.1
1027.1
1027.1
1027.1
1027.1
1027.1
1027.1
1.16799
1.16813
1.16829
1.16834
1.16837
1.16841
1.16838
1.1684
1.16848
1.1686
1.1688
1.16889
1.16891
1.16891
1.16891
1.16892
1.16892
1.16892
1.16892
1.16892
1.16892
1.16892
1.16893
1.16893
1.16893
1.16893
1.16893
1.16893
1.16894
1.16894
1.16894
1.16894
1.16894
1.16894
1.16895
1.16895
1.16895
1.16895
1.16895
1.16895
1.16896
1.16896
1.16896
1.16896
1.16896
1.16901
1.17042
1.18256
1.21158
1.22528
1.22729
1.22894
1.22969
1.23254
1.23262
1.23525
1.23556
1.24165
2.10939
92.5298
1007.15
1027.07
1027.09
1027.1
1027.1
1027.1
1027.1
1027.1
1027.1
1027.1
1027.1
1027.1
1027.1
1027.1
1027.1
1027.1
1027.1
1027.1
1027.1
1027.1
1027.1
1027.1
1027.1
1027.1
1027.1
1027.1
1027.1
1027.1
1027.1
1027.1
1027.1
1027.1
1027.1
1027.1
1027.1
1027.1
1.16729
1.16749
1.16798
1.16785
1.16815
1.16815
1.16812
1.16815
1.16819
1.16825
1.16854
1.1688
1.1689
1.16891
1.16891
1.16892
1.16892
1.16892
1.16892
1.16892
1.16892
1.16892
1.16893
1.16893
1.16893
1.16893
1.16893
1.16893
1.16894
1.16894
1.16894
1.16894
1.16894
1.16894
1.16895
1.16895
1.16895
1.16895
1.16895
1.16895
1.16895
1.16896
1.16896
1.16897
1.16899
1.16922
1.17092
1.18031
1.20381
1.22464
1.23176
1.23531
1.23333
1.23071
1.22328
1.22218
1.22074
1.24062
1.68676
139.23
1024
1027.09
1027.09
1027.09
1027.1
1027.1
1027.1
1027.1
1027.1
1027.1
1027.1
1027.1
1027.1
1027.1
1027.1
1027.1
1027.1
1027.1
1027.1
1027.1
1027.1
1027.1
1027.1
1027.1
1027.1
1027.1
1027.1
1027.1
1027.1
1027.1
1027.1
1027.1
1027.1
1027.1
1027.1
1027.1
1.16623
1.16653
1.16756
1.16698
1.16763
1.16776
1.16777
1.16788
1.16803
1.16819
1.16845
1.16875
1.16889
1.16891
1.16891
1.16891
1.16891
1.16892
1.16892
1.16892
1.16892
1.16892
1.16892
1.16893
1.16893
1.16893
1.16893
1.16893
1.16893
1.16894
1.16894
1.16894
1.16894
1.16894
1.16894
1.16895
1.16895
1.16895
1.16895
1.16895
1.16895
1.16896
1.16896
1.169
1.16912
1.16991
1.17451
1.18301
1.19992
1.2213
1.23367
1.2369
1.22963
1.22098
1.21872
1.21963
1.21431
1.24575
1.58202
181.815
1026.28
1027.09
1027.09
1027.09
1027.09
1027.09
1027.09
1027.1
1027.1
1027.1
1027.1
1027.1
1027.1
1027.1
1027.1
1027.1
1027.1
1027.1
1027.1
1027.1
1027.1
1027.1
1027.1
1027.1
1027.1
1027.1
1027.1
1027.1
1027.1
1027.1
1027.1
1027.1
1027.1
1027.1
1027.1
1027.1
1.16504
1.16565
1.16694
1.16608
1.16684
1.16718
1.16728
1.16735
1.16754
1.16809
1.16844
1.16875
1.16888
1.16891
1.16891
1.16891
1.16891
1.16891
1.16891
1.16892
1.16892
1.16892
1.16892
1.16892
1.16892
1.16893
1.16893
1.16893
1.16893
1.16893
1.16893
1.16893
1.16894
1.16894
1.16894
1.16894
1.16894
1.16894
1.16895
1.16895
1.16895
1.16895
1.16896
1.169
1.16914
1.16982
1.17472
1.1861
1.19592
1.2162
1.23297
1.23853
1.23045
1.21769
1.22926
1.2398
1.24542
1.31417
1.55169
208.708
1025.53
1026.8
1026.82
1026.88
1026.93
1026.98
1027.03
1027.06
1027.08
1027.09
1027.09
1027.09
1027.09
1027.09
1027.09
1027.09
1027.09
1027.09
1027.09
1027.1
1027.1
1027.1
1027.1
1027.1
1027.1
1027.1
1027.1
1027.1
1027.1
1027.1
1027.1
1027.1
1027.1
1027.1
1027.1
1027.1
1.16399
1.16439
1.16593
1.1651
1.16594
1.16642
1.16675
1.16687
1.16711
1.16796
1.16854
1.16881
1.16889
1.1689
1.16891
1.16891
1.16891
1.16891
1.16891
1.16891
1.16892
1.16892
1.16892
1.16892
1.16892
1.16892
1.16893
1.16893
1.16893
1.16893
1.16893
1.16893
1.16893
1.16894
1.16894
1.16894
1.16894
1.16894
1.16894
1.16895
1.16895
1.16895
1.16895
1.16897
1.16903
1.16923
1.17047
1.17713
1.18203
1.21102
1.23256
1.24215
1.23128
1.22364
1.26996
1.33177
1.34239
1.47616
1.51721
268.966
1020.06
1023.54
1023.57
1023.73
1023.89
1024.29
1024.94
1025.58
1026.15
1026.56
1026.8
1026.9
1026.94
1026.96
1026.94
1026.92
1026.89
1026.84
1026.79
1026.77
1026.77
1026.81
1026.83
1026.83
1026.86
1026.91
1026.97
1027.03
1027.06
1027.08
1027.09
1027.09
1027.1
1027.1
1027.1
1027.1
1.16342
1.16304
1.16438
1.16386
1.16511
1.16556
1.16604
1.16631
1.16686
1.16791
1.16862
1.16885
1.1689
1.1689
1.1689
1.16891
1.16891
1.16891
1.16891
1.16891
1.16891
1.16892
1.16892
1.16892
1.16892
1.16892
1.16892
1.16893
1.16893
1.16893
1.16893
1.16893
1.16893
1.16894
1.16894
1.16894
1.16894
1.16894
1.16894
1.16895
1.16895
1.16895
1.16895
1.16897
1.16901
1.16916
1.16994
1.17354
1.17775
1.20994
1.23567
1.24719
1.23571
1.25325
1.30739
1.31969
1.31546
1.3715
1.46173
314.876
1008.29
1014.64
1013.77
1013.39
1013.06
1013.12
1014.58
1015.88
1017.54
1019.32
1021.03
1022.36
1023.31
1023.83
1023.97
1023.56
1023.06
1022.32
1021.49
1020.74
1020.22
1019.68
1019.13
1018.53
1018.35
1019.39
1020.43
1021.81
1023.26
1024.46
1025.32
1025.91
1026.42
1026.83
1027.05
1027.1
1.16333
1.16263
1.16292
1.16267
1.16381
1.16468
1.16541
1.16586
1.16674
1.16791
1.16869
1.16887
1.1689
1.1689
1.1689
1.16891
1.16891
1.16891
1.16891
1.16891
1.16891
1.16892
1.16892
1.16892
1.16892
1.16892
1.16892
1.16893
1.16893
1.16893
1.16893
1.16893
1.16893
1.16893
1.16894
1.16894
1.16894
1.16894
1.16894
1.16895
1.16895
1.16895
1.16895
1.16896
1.169
1.16917
1.17001
1.17209
1.18082
1.22336
1.24105
1.25114
1.25729
1.27595
1.28565
1.28318
1.28375
1.34478
1.43027
257.501
995.485
1008.01
1006.5
1006.05
1005.86
1005.76
1005.77
1005.76
1005.83
1005.68
1005.59
1006.12
1006.63
1007.2
1007.56
1007.69
1007.19
1006.04
1004.56
1002.91
1001.12
999.015
996.409
994.795
994.201
993.359
992.449
992.04
992.428
993.556
995.202
998.432
1002.34
1007.48
1016.54
1027.01
1.1631
1.16262
1.16269
1.16234
1.16274
1.16339
1.16471
1.16572
1.16685
1.16811
1.16875
1.16888
1.1689
1.1689
1.1689
1.16891
1.16891
1.16891
1.16891
1.16891
1.16892
1.16892
1.16892
1.16892
1.16892
1.16892
1.16892
1.16893
1.16893
1.16893
1.16893
1.16893
1.16893
1.16894
1.16894
1.16894
1.16894
1.16894
1.16894
1.16895
1.16895
1.16895
1.16895
1.16896
1.16899
1.16918
1.17007
1.1715
1.19517
1.2358
1.24112
1.24494
1.24967
1.25172
1.24784
1.247
1.25199
1.26979
1.37767
187.412
991.615
1011.72
1011.36
1011.44
1010.92
1009.99
1008.77
1007.3
1005.62
1004.04
1002.36
1000.6
999.149
997.981
997.018
995.977
994.852
993.689
992.519
991.473
990.568
989.942
989.503
987.795
985.076
981.654
977.374
972.206
965.723
958.135
949.2
938.537
925.507
904.074
848.828
651.832
1.16276
1.16321
1.16263
1.16226
1.16225
1.16286
1.16442
1.16582
1.16721
1.16829
1.16879
1.16889
1.1689
1.1689
1.16891
1.16891
1.16891
1.16891
1.16891
1.16892
1.16892
1.16892
1.16892
1.16892
1.16892
1.16893
1.16893
1.16893
1.16893
1.16893
1.16893
1.16893
1.16894
1.16894
1.16894
1.16894
1.16894
1.16894
1.16895
1.16895
1.16895
1.16895
1.16895
1.16896
1.16899
1.16919
1.17035
1.17289
1.18095
1.23247
1.2395
1.24183
1.2436
1.24294
1.24017
1.24233
1.24476
1.25332
1.33708
132.876
1003.29
1023.74
1024.55
1025.27
1025.1
1025.11
1024.52
1024.01
1023.35
1022.74
1022.18
1021.85
1021.43
1021.02
1020.34
1019.72
1019.28
1019.07
1019.02
1019.43
1020.31
1021.69
1023.12
1024.51
1025.23
1025.05
1024.84
1024.57
1024.17
1023.64
1022.87
1021.68
1019.99
1018.57
1018.73
1021.24
1.16262
1.16394
1.16302
1.16241
1.16199
1.16267
1.1643
1.16603
1.16755
1.16844
1.1688
1.16889
1.1689
1.16891
1.16891
1.16891
1.16891
1.16891
1.16892
1.16892
1.16892
1.16892
1.16892
1.16892
1.16892
1.16893
1.16893
1.16893
1.16893
1.16893
1.16893
1.16894
1.16894
1.16894
1.16894
1.16894
1.16894
1.16895
1.16895
1.16895
1.16895
1.16895
1.16895
1.16896
1.16898
1.16918
1.17082
1.17563
1.17394
1.20805
1.23402
1.2389
1.24054
1.24366
1.23928
1.23888
1.23889
1.24842
1.28945
100.741
1015.62
1026.7
1026.79
1026.86
1026.87
1026.88
1026.85
1026.81
1026.76
1026.68
1026.6
1026.51
1026.42
1026.35
1026.3
1026.27
1026.29
1026.43
1026.6
1026.76
1026.89
1026.99
1027.06
1027.09
1027.09
1027.09
1027.09
1027.09
1027.09
1027.09
1027.09
1027.09
1027.08
1027.08
1027.09
1027.1
1.1623
1.16449
1.16427
1.16425
1.16375
1.1642
1.16545
1.16693
1.16794
1.16855
1.16881
1.16889
1.1689
1.16891
1.16891
1.16891
1.16891
1.16891
1.16891
1.16892
1.16892
1.16892
1.16892
1.16892
1.16892
1.16893
1.16893
1.16893
1.16893
1.16893
1.16893
1.16894
1.16894
1.16894
1.16894
1.16894
1.16894
1.16895
1.16895
1.16895
1.16895
1.16895
1.16895
1.16895
1.16898
1.16924
1.17116
1.17731
1.18086
1.18467
1.21369
1.23217
1.23708
1.24111
1.23997
1.23929
1.23542
1.23838
1.25708
91.1905
1021.29
1027.08
1027.08
1027.08
1027.09
1027.09
1027.08
1027.08
1027.08
1027.08
1027.08
1027.08
1027.08
1027.07
1027.07
1027.07
1027.08
1027.08
1027.09
1027.09
1027.1
1027.1
1027.1
1027.1
1027.1
1027.1
1027.1
1027.1
1027.1
1027.1
1027.1
1027.1
1027.1
1027.1
1027.1
1027.1
1.16217
1.16472
1.16512
1.16546
1.16566
1.16638
1.16708
1.16755
1.1682
1.16862
1.16883
1.16889
1.1689
1.1689
1.16891
1.16891
1.16891
1.16891
1.16891
1.16892
1.16892
1.16892
1.16892
1.16892
1.16892
1.16893
1.16893
1.16893
1.16893
1.16893
1.16893
1.16894
1.16894
1.16894
1.16894
1.16894
1.16894
1.16895
1.16895
1.16895
1.16895
1.16895
1.16895
1.16896
1.16898
1.16925
1.1709
1.17775
1.18731
1.18691
1.19335
1.21304
1.22672
1.23548
1.2354
1.23689
1.23485
1.23761
1.28694
51.5352
1019.69
1027.09
1027.09
1027.09
1027.09
1027.1
1027.1
1027.1
1027.1
1027.09
1027.1
1027.1
1027.1
1027.1
1027.1
1027.1
1027.1
1027.1
1027.1
1027.1
1027.1
1027.1
1027.1
1027.1
1027.1
1027.1
1027.1
1027.1
1027.1
1027.1
1027.1
1027.1
1027.1
1027.1
1027.1
1027.1
1.16259
1.16486
1.16548
1.16606
1.16668
1.16733
1.16779
1.16797
1.16844
1.16871
1.16886
1.1689
1.1689
1.1689
1.16891
1.16891
1.16891
1.16891
1.16891
1.16891
1.16892
1.16892
1.16892
1.16892
1.16892
1.16892
1.16893
1.16893
1.16893
1.16893
1.16893
1.16893
1.16894
1.16894
1.16894
1.16894
1.16894
1.16894
1.16895
1.16895
1.16895
1.16895
1.16895
1.16896
1.16899
1.16918
1.17018
1.17566
1.18888
1.1977
1.19887
1.20294
1.21299
1.22281
1.22839
1.23423
1.23115
1.23353
1.32325
50.2228
1018.34
1027.09
1027.09
1027.09
1027.09
1027.1
1027.1
1027.1
1027.1
1027.1
1027.1
1027.1
1027.1
1027.1
1027.1
1027.1
1027.1
1027.1
1027.1
1027.1
1027.1
1027.1
1027.1
1027.1
1027.1
1027.1
1027.1
1027.1
1027.1
1027.1
1027.1
1027.1
1027.1
1027.1
1027.1
1027.1
1.16269
1.16489
1.16563
1.16633
1.16704
1.16772
1.16814
1.16834
1.16866
1.16883
1.1689
1.1689
1.1689
1.1689
1.1689
1.16891
1.16891
1.16891
1.16891
1.16891
1.16891
1.16891
1.16892
1.16892
1.16892
1.16892
1.16892
1.16892
1.16892
1.16893
1.16893
1.16893
1.16893
1.16893
1.16893
1.16893
1.16894
1.16894
1.16894
1.16894
1.16894
1.16895
1.16895
1.16896
1.169
1.1692
1.17011
1.17452
1.18644
1.19938
1.20503
1.20676
1.21237
1.22097
1.2276
1.22591
1.2283
1.23559
1.53004
38.7156
978.059
1027.08
1027.09
1027.09
1027.1
1027.1
1027.1
1027.1
1027.1
1027.1
1027.1
1027.1
1027.1
1027.1
1027.1
1027.1
1027.1
1027.1
1027.1
1027.1
1027.1
1027.1
1027.1
1027.1
1027.1
1027.1
1027.1
1027.1
1027.1
1027.1
1027.1
1027.1
1027.1
1027.1
1027.1
1027.1
1.16189
1.16458
1.1656
1.16635
1.1671
1.16783
1.16833
1.16864
1.1688
1.16887
1.16889
1.1689
1.1689
1.1689
1.1689
1.1689
1.1689
1.16891
1.16891
1.16891
1.16891
1.16891
1.16891
1.16891
1.16892
1.16892
1.16892
1.16892
1.16892
1.16892
1.16892
1.16893
1.16893
1.16893
1.16893
1.16893
1.16893
1.16894
1.16894
1.16894
1.16894
1.16894
1.16894
1.16895
1.16901
1.16924
1.17034
1.17426
1.18302
1.19185
1.1978
1.20607
1.21318
1.22423
1.22381
1.22371
1.23613
1.26363
1.39674
157.577
1017.91
1027.09
1027.09
1027.09
1027.1
1027.1
1027.1
1027.1
1027.1
1027.1
1027.1
1027.1
1027.1
1027.1
1027.1
1027.1
1027.1
1027.1
1027.1
1027.1
1027.1
1027.1
1027.1
1027.1
1027.1
1027.1
1027.1
1027.1
1027.1
1027.1
1027.1
1027.1
1027.1
1027.1
1027.1
1027.1
1.16139
1.16424
1.16526
1.1661
1.1668
1.16755
1.16808
1.16847
1.16868
1.16881
1.16887
1.1689
1.1689
1.16891
1.16891
1.16891
1.16891
1.16891
1.16892
1.16892
1.16892
1.16892
1.16892
1.16892
1.16893
1.16893
1.16893
1.16893
1.16893
1.16893
1.16894
1.16894
1.16894
1.16894
1.16894
1.16895
1.16895
1.16895
1.16895
1.16895
1.16895
1.16895
1.16895
1.16897
1.16902
1.16926
1.17053
1.17551
1.18505
1.19234
1.19689
1.20209
1.20766
1.21407
1.21656
1.22267
1.24229
1.30127
1.47881
82.8332
1001.73
1027.09
1027.09
1027.09
1027.1
1027.1
1027.1
1027.1
1027.1
1027.1
1027.1
1027.1
1027.1
1027.1
1027.1
1027.1
1027.1
1027.1
1027.1
1027.1
1027.1
1027.1
1027.1
1027.1
1027.1
1027.1
1027.1
1027.1
1027.1
1027.1
1027.1
1027.1
1027.1
1027.1
1027.1
1027.1
1.16799
1.1681
1.16817
1.16822
1.16825
1.16829
1.16834
1.1684
1.16851
1.16867
1.16883
1.16889
1.1689
1.16891
1.16891
1.16891
1.16891
1.16891
1.16891
1.16892
1.16892
1.16892
1.16892
1.16892
1.16892
1.16893
1.16893
1.16893
1.16893
1.16893
1.16893
1.16894
1.16894
1.16894
1.16894
1.16894
1.16894
1.16894
1.16895
1.16895
1.16895
1.16895
1.16895
1.16895
1.16896
1.16904
1.17141
1.18443
1.20669
1.22139
1.22524
1.22636
1.22627
1.2271
1.22698
1.22753
1.22681
1.23561
1.99737
100.648
1012.93
1027.08
1027.09
1027.09
1027.1
1027.1
1027.1
1027.1
1027.1
1027.1
1027.1
1027.1
1027.1
1027.1
1027.1
1027.1
1027.1
1027.1
1027.1
1027.1
1027.1
1027.1
1027.1
1027.1
1027.1
1027.1
1027.1
1027.1
1027.1
1027.1
1027.1
1027.1
1027.1
1027.1
1027.1
1027.1
1.16777
1.16791
1.168
1.168
1.16808
1.1681
1.16814
1.1682
1.16827
1.16842
1.16869
1.16885
1.1689
1.16891
1.16891
1.16891
1.16891
1.16891
1.16891
1.16892
1.16892
1.16892
1.16892
1.16892
1.16892
1.16893
1.16893
1.16893
1.16893
1.16893
1.16893
1.16893
1.16894
1.16894
1.16894
1.16894
1.16894
1.16894
1.16895
1.16895
1.16895
1.16895
1.16895
1.16896
1.16896
1.16904
1.17102
1.18244
1.20189
1.21707
1.22512
1.22775
1.22671
1.22522
1.2234
1.22273
1.22044
1.23144
1.55562
146.164
1024.58
1027.09
1027.09
1027.09
1027.09
1027.1
1027.1
1027.1
1027.1
1027.1
1027.1
1027.1
1027.1
1027.1
1027.1
1027.1
1027.1
1027.1
1027.1
1027.1
1027.1
1027.1
1027.1
1027.1
1027.1
1027.1
1027.1
1027.1
1027.1
1027.1
1027.1
1027.1
1027.1
1027.1
1027.1
1027.1
1.16733
1.16778
1.16782
1.16773
1.16796
1.16798
1.16803
1.1681
1.16819
1.16833
1.16859
1.16881
1.16889
1.1689
1.1689
1.1689
1.16891
1.16891
1.16891
1.16891
1.16891
1.16892
1.16892
1.16892
1.16892
1.16892
1.16892
1.16892
1.16893
1.16893
1.16893
1.16893
1.16893
1.16893
1.16894
1.16894
1.16894
1.16894
1.16894
1.16894
1.16894
1.16895
1.16895
1.16896
1.16899
1.1692
1.17134
1.1808
1.19823
1.21575
1.22755
1.2282
1.22634
1.22152
1.21831
1.21643
1.21384
1.23978
1.45698
185.007
1026.35
1027.09
1027.09
1027.09
1027.09
1027.1
1027.1
1027.1
1027.1
1027.1
1027.1
1027.1
1027.1
1027.1
1027.1
1027.1
1027.1
1027.1
1027.1
1027.1
1027.1
1027.1
1027.1
1027.1
1027.1
1027.1
1027.1
1027.1
1027.1
1027.1
1027.1
1027.1
1027.1
1027.1
1027.1
1027.1
1.16654
1.16796
1.16763
1.16747
1.16767
1.1677
1.16783
1.16792
1.1681
1.16831
1.16858
1.1688
1.16888
1.1689
1.1689
1.1689
1.1689
1.1689
1.1689
1.16891
1.16891
1.16891
1.16891
1.16891
1.16891
1.16891
1.16892
1.16892
1.16892
1.16892
1.16892
1.16892
1.16893
1.16893
1.16893
1.16893
1.16893
1.16893
1.16894
1.16894
1.16894
1.16894
1.16895
1.16897
1.16905
1.16951
1.17225
1.18044
1.19493
1.21195
1.2253
1.22744
1.22222
1.21437
1.22398
1.22559
1.24241
1.28768
1.42314
223.344
1026.36
1026.95
1026.97
1027
1027.03
1027.06
1027.07
1027.08
1027.09
1027.09
1027.09
1027.09
1027.09
1027.1
1027.1
1027.1
1027.1
1027.1
1027.1
1027.1
1027.1
1027.1
1027.1
1027.1
1027.1
1027.1
1027.1
1027.1
1027.1
1027.1
1027.1
1027.1
1027.1
1027.1
1027.1
1027.1
1.16571
1.16811
1.16768
1.16783
1.16755
1.16748
1.16764
1.16776
1.16804
1.16832
1.16862
1.16882
1.16889
1.1689
1.1689
1.1689
1.1689
1.1689
1.1689
1.16891
1.16891
1.16891
1.16891
1.16891
1.16891
1.16892
1.16892
1.16892
1.16892
1.16892
1.16892
1.16892
1.16893
1.16893
1.16893
1.16893
1.16893
1.16893
1.16894
1.16894
1.16894
1.16894
1.16894
1.16897
1.16906
1.16948
1.17225
1.18047
1.19228
1.20559
1.2197
1.22537
1.21896
1.22566
1.28067
1.30082
1.34386
1.3741
1.36044
260.317
1023.29
1025.29
1025.35
1025.55
1025.84
1026.15
1026.42
1026.63
1026.79
1026.89
1026.95
1026.98
1027
1027.01
1027.02
1027.01
1027.01
1026.99
1026.98
1026.96
1026.95
1026.95
1027.01
1027.04
1027.06
1027.08
1027.09
1027.1
1027.1
1027.1
1027.1
1027.1
1027.1
1027.1
1027.1
1027.1
1.1645
1.16565
1.16724
1.16795
1.16807
1.1679
1.16761
1.16771
1.16816
1.16846
1.1687
1.16885
1.16889
1.1689
1.1689
1.1689
1.1689
1.1689
1.1689
1.16891
1.16891
1.16891
1.16891
1.16891
1.16891
1.16891
1.16892
1.16892
1.16892
1.16892
1.16892
1.16892
1.16893
1.16893
1.16893
1.16893
1.16893
1.16894
1.16894
1.16894
1.16894
1.16894
1.16894
1.16895
1.16906
1.16972
1.17305
1.18096
1.19015
1.19994
1.21759
1.22883
1.22265
1.22183
1.29945
1.32926
1.33616
1.33717
1.29152
302.492
1016.13
1020.31
1020.07
1020.32
1020.98
1021.57
1022.36
1023.1
1023.85
1024.49
1024.97
1025.29
1025.52
1025.65
1025.72
1025.73
1025.66
1025.54
1025.35
1025.07
1024.72
1024.51
1024.48
1024.79
1025.15
1025.65
1026.26
1026.7
1026.91
1027.04
1027.08
1027.09
1027.09
1027.09
1027.09
1027.1
1.16363
1.16279
1.16359
1.16475
1.16669
1.16784
1.16829
1.16808
1.1683
1.16867
1.16883
1.16888
1.1689
1.1689
1.1689
1.16891
1.16891
1.16891
1.16892
1.16892
1.16892
1.16892
1.16892
1.16893
1.16893
1.16893
1.16893
1.16893
1.16893
1.16894
1.16894
1.16894
1.16894
1.16894
1.16894
1.16894
1.16894
1.16894
1.16895
1.16895
1.16895
1.16895
1.16895
1.16895
1.16908
1.17022
1.17431
1.1801
1.18333
1.20657
1.22921
1.23586
1.22343
1.24407
1.29929
1.30406
1.28829
1.2823
1.27086
262.047
1007.68
1015.72
1015
1014.85
1014.9
1014.62
1015.16
1015.8
1016.84
1017.91
1019.09
1020.08
1020.77
1021.17
1021.32
1021.1
1020.63
1019.94
1018.81
1017.42
1015.83
1014.35
1013.36
1013.17
1014.3
1016.03
1018.24
1020.44
1022.52
1024.66
1026.3
1026.96
1027.08
1027.03
1027.01
1027.08
1.16205
1.16211
1.16272
1.16335
1.16488
1.16633
1.16752
1.16804
1.1683
1.1686
1.16884
1.16888
1.16889
1.16889
1.16889
1.1689
1.1689
1.1689
1.1689
1.16891
1.16891
1.16891
1.16891
1.16891
1.16892
1.16892
1.16892
1.16892
1.16892