/*--------------------------------*- C++ -*----------------------------------*\
| =========                 |                                                 |
| \\      /  F ield         | OpenFOAM: The Open Source CFD Toolbox           |
|  \\    /   O peration     | Version:  2.3.0                                 |
|   \\  /    A nd           | Web:      www.OpenFOAM.org                      |
|    \\/     M anipulation  |                                                 |
\*---------------------------------------------------------------------------*/
FoamFile
{
    version     2.0;
    format      ascii;
    class       volVectorField;
    location    "13";
    object      U;
}
// * * * * * * * * * * * * * * * * * * * * * * * * * * * * * * * * * * * * * //

dimensions      [0 1 -1 0 0 0 0];

internalField   nonuniform List<vector> 
6144
(
(0.00763986 0.0158429 -0.000389166)
(0.00863331 -0.00193294 0.000152721)
(0.0025731 -0.0047482 0.000121972)
(0.00346431 -0.00545873 5.77282e-05)
(0.0014431 -0.00832921 0.000848021)
(0.00175285 -0.00620408 0.000994203)
(0.00128739 -0.00673253 0.00102593)
(0.00151 -0.0050034 0.000826896)
(0.00153303 -0.00425837 -8.97036e-05)
(0.00168795 -0.00231284 -0.000477829)
(0.00178655 -0.000759061 -0.000512792)
(0.00205715 0.000586264 -0.00025817)
(0.00233975 0.000937928 -0.000114199)
(0.00254229 0.000965996 -3.69892e-05)
(0.00266997 0.000651939 -0.000131375)
(0.00274568 0.000392946 -0.000221787)
(0.00279721 0.000119299 -0.000348491)
(0.00282918 -4.04428e-05 -0.000434225)
(0.00285218 -0.000182611 -0.000515553)
(0.00287177 -0.00024272 -0.000565085)
(0.00288013 -0.00029554 -0.000604695)
(0.0028911 -0.000307663 -0.000624643)
(0.00289381 -0.000320104 -0.000637679)
(0.00289746 -0.00031667 -0.000639958)
(0.00289686 -0.000316793 -0.000637395)
(0.0028962 -0.000314817 -0.000629498)
(0.00289358 -0.000316967 -0.000618451)
(0.00289079 -0.000326578 -0.000604324)
(0.00288705 -0.000340604 -0.000587078)
(0.00288318 -0.000372027 -0.000567006)
(0.00287878 -0.000408139 -0.000540905)
(0.00287473 -0.000478417 -0.000511488)
(0.00287114 -0.000556694 -0.000468643)
(0.00286991 -0.000703585 -0.00042024)
(0.00287165 -0.000872835 -0.000346084)
(0.00288027 -0.00117733 -0.000265046)
(0.00289692 -0.00153983 -0.000152427)
(0.00292949 -0.00213428 -4.86171e-05)
(0.00297716 -0.00282289 5.01869e-05)
(0.00304154 -0.00379677 5.28352e-05)
(0.00310109 -0.00474841 -8.90825e-05)
(0.0031851 -0.00572906 -0.00043071)
(0.00328614 -0.00628186 -0.000958789)
(0.00337114 -0.00663526 -0.00151269)
(0.00318471 -0.00665593 -0.00179927)
(0.00250401 -0.0076424 -0.00156637)
(0.000974371 -0.00762568 -0.00159764)
(-0.000506504 -0.0069721 -0.00282572)
(0.00139843 0.0114663 -0.00687966)
(0.0284255 0.00807954 -0.0215768)
(0.044498 0.0025348 -0.028283)
(0.0361874 -0.00585706 -0.0247737)
(0.0374722 -0.00607941 -0.0302067)
(0.0496504 -0.0283883 -0.0243938)
(0.0441615 -0.0189469 -0.0132668)
(0.0571152 -0.0846645 -0.00952268)
(0.0296804 -0.0520431 -0.0245847)
(0.0203953 -0.111348 0.00434689)
(-0.0597946 0.00298162 -0.0533971)
(0.0152352 0.0823781 0.0320006)
(0.0895934 -0.254081 0.0833849)
(0.0549425 -0.104226 0.0462991)
(0.0337055 -0.163756 0.0241379)
(0.0336716 -0.184154 0.0281107)
(0.0291759 -0.187468 0.028544)
(0.0251194 -0.195326 0.0243818)
(0.0221863 -0.209096 0.0222901)
(0.0213696 -0.228478 0.0192972)
(0.018503 -0.246292 0.0148964)
(0.0159896 -0.265293 0.0183058)
(0.0129756 -0.281131 0.0173831)
(0.0106968 -0.290347 0.0165637)
(0.00872486 -0.300499 0.0162171)
(0.00472734 -0.30165 0.0111754)
(0.00379398 -0.297467 0.00973051)
(0.00364343 -0.288062 0.00525598)
(-0.00569181 -0.271493 0.00240901)
(0.00144587 -0.238163 0.00161678)
(-0.0167386 -0.207015 0.00201515)
(-0.0351741 -0.135616 -0.0109153)
(-0.018335 -0.0485655 -0.0156414)
(-0.00249548 0.000988991 -0.00300624)
(0.000939768 0.0222791 0.0037611)
(0.00193928 0.0241621 0.0066969)
(0.000282317 0.023058 0.0067682)
(-0.00059614 0.0243516 0.00184245)
(-0.00342477 0.0311647 0.000437205)
(-0.00502576 0.0368572 0.00324696)
(-0.00398446 0.0369148 0.00722306)
(-0.00218415 0.0260053 0.00901475)
(-0.00179476 0.0202397 0.00781377)
(0.00331799 0.0201667 0.00439854)
(0.0102203 0.0216732 0.005902)
(0.014651 0.0125018 0.00344723)
(0.020208 0.01478 -0.00392002)
(0.0281427 0.00452804 -0.00827478)
(0.0164851 0.0176123 0.00240156)
(0.0186821 0.00423978 0.00351816)
(0.00559097 -0.000523378 0.00178981)
(0.00916361 -0.000605857 0.00166233)
(0.00242027 -0.00587214 0.00333394)
(0.00367532 -0.00229775 0.00315468)
(0.00184428 -0.00416439 0.00421552)
(0.00247791 -0.00175375 0.00383942)
(0.00228767 -0.00192814 0.00367838)
(0.00250071 -0.000359395 0.00310771)
(0.00270539 0.000682155 0.00281949)
(0.00333688 0.00187051 0.00306425)
(0.00401072 0.00193598 0.00335997)
(0.00451617 0.00176192 0.0035266)
(0.00480142 0.00124668 0.00345851)
(0.00496724 0.000876836 0.00335942)
(0.00505405 0.00050524 0.00321607)
(0.0051088 0.000295086 0.00311961)
(0.00514113 0.000113179 0.00303597)
(0.00516467 3.52002e-05 0.0029915)
(0.00517756 -3.14026e-05 0.00296517)
(0.00518771 -4.35339e-05 0.00296098)
(0.00519089 -5.83798e-05 0.00296763)
(0.0051917 -4.92912e-05 0.00298608)
(0.00518858 -4.50995e-05 0.00301092)
(0.00518347 -3.62293e-05 0.00304182)
(0.00517667 -3.25457e-05 0.00307638)
(0.00516832 -3.67082e-05 0.00311407)
(0.00515968 -4.54172e-05 0.00315523)
(0.00514957 -7.48211e-05 0.00319918)
(0.00514155 -0.000106117 0.00324978)
(0.00513205 -0.000181514 0.00330543)
(0.00513098 -0.000256169 0.00337586)
(0.00513156 -0.00042106 0.00345721)
(0.00515263 -0.000590383 0.00356645)
(0.00518764 -0.000934391 0.0036906)
(0.00526321 -0.00130497 0.00384168)
(0.00538027 -0.00196665 0.00397851)
(0.00556783 -0.002672 0.00405644)
(0.00582414 -0.00373927 0.00396468)
(0.00609398 -0.00472222 0.00362421)
(0.00634132 -0.00586533 0.00293957)
(0.00647461 -0.00650022 0.00196994)
(0.00663269 -0.00707993 0.00112296)
(0.00695316 -0.0076248 0.000851197)
(0.00664594 -0.00988166 0.00111199)
(0.00311026 -0.0122556 0.000361355)
(-0.00678405 -0.0114578 -0.00127414)
(0.000274637 -0.00233041 -0.00283957)
(0.0427988 -0.0171848 -0.0195307)
(0.0579161 0.0145455 -0.0321691)
(0.0669503 0.0253187 -0.0137427)
(0.0782223 0.0239969 0.00702623)
(0.0825282 -0.00798128 0.0193072)
(0.0837446 0.00988521 0.0423365)
(0.0868864 -0.0960195 0.0388143)
(0.0331326 -0.0146647 0.0167732)
(0.0203089 -0.155403 0.0549184)
(-0.0485724 0.0647608 -0.114221)
(0.0148963 0.0238318 0.0128841)
(0.0878416 -0.219441 0.112112)
(0.0390077 -0.00334472 0.0493142)
(-0.00190552 -0.102823 0.023598)
(-0.00420736 -0.0798452 0.0299143)
(-0.00648463 -0.0928121 0.0242935)
(-0.00432548 -0.111648 0.024143)
(-0.000688712 -0.136658 0.0173317)
(0.000185443 -0.157687 0.0115001)
(-0.00437024 -0.185047 0.0106597)
(-0.0130813 -0.209616 0.0145371)
(-0.0242764 -0.228597 0.00816392)
(-0.0320385 -0.241662 0.00378087)
(-0.0346118 -0.252204 0.00688193)
(-0.0386674 -0.255469 0.00427415)
(-0.0414452 -0.252401 0.00249798)
(-0.0438463 -0.244055 -0.00345157)
(-0.0556265 -0.227379 -0.011423)
(-0.0617333 -0.195193 -0.0171141)
(-0.0516549 -0.16771 0.00571417)
(-0.0591439 -0.107371 0.000837173)
(-0.0537505 -0.0335449 -0.01043)
(-0.0287598 0.0109521 0.00156822)
(-0.0141944 0.0275733 0.0114443)
(-0.0118315 0.0281069 0.018634)
(-0.0139013 0.0260137 0.0197436)
(-0.0127541 0.0314849 0.0174994)
(-0.0102162 0.0360558 0.015363)
(-0.00462966 0.0351568 0.0145791)
(0.00202177 0.0268362 0.0153125)
(0.00661495 0.0150085 0.0176725)
(-0.00222574 -0.00488496 0.0147538)
(-0.00967218 -0.0136443 0.0111445)
(-0.00724867 -0.0128801 0.0125191)
(0.00467576 -0.021027 0.0130278)
(0.0111683 -0.019098 0.00755509)
(0.0244633 -0.0196309 -0.00774853)
(0.0212917 0.0197502 0.00267384)
(0.0252832 0.00900604 0.00260826)
(0.00858033 0.0014692 -0.00156204)
(0.0139606 0.00309322 -0.00132092)
(0.00270534 -0.00497858 0.00085846)
(0.00404216 -0.000219724 0.00146541)
(0.000656734 -0.00308871 0.00354405)
(0.00142614 0.000412442 0.00379226)
(0.0012901 0.000143755 0.0045693)
(0.00135233 0.00157443 0.00450385)
(0.00145528 0.00193043 0.00419599)
(0.0023766 0.00293091 0.00431636)
(0.00331433 0.0027616 0.0046267)
(0.00399807 0.00248274 0.00483681)
(0.00425373 0.00184982 0.00490326)
(0.00436691 0.00142925 0.0049138)
(0.00435151 0.00100275 0.00490069)
(0.00433995 0.000768267 0.00489881)
(0.00429972 0.000560598 0.00490838)
(0.00427447 0.000466756 0.00493006)
(0.00424627 0.00038564 0.00496041)
(0.00422556 0.000359485 0.00499682)
(0.00420394 0.000336782 0.00503702)
(0.00418547 0.000337003 0.00507912)
(0.00416781 0.000335979 0.00512135)
(0.00415108 0.000340283 0.00516494)
(0.00413608 0.00034025 0.00520792)
(0.0041218 0.000333818 0.00525001)
(0.00411105 0.00032192 0.00529062)
(0.00410132 0.000292347 0.00532962)
(0.00410095 0.000259912 0.00536779)
(0.00410242 0.000189256 0.0054054)
(0.00412798 0.000120238 0.00544416)
(0.00416023 -2.4915e-05 0.00548442)
(0.00424639 -0.000170087 0.00552811)
(0.00436013 -0.000458207 0.00557539)
(0.00457212 -0.000749255 0.00561998)
(0.004842 -0.0012523 0.00565246)
(0.00522784 -0.00171195 0.00563158)
(0.00567212 -0.00238141 0.00554706)
(0.00611034 -0.00288688 0.00529761)
(0.00640787 -0.00352586 0.00487354)
(0.00647096 -0.00378937 0.00428081)
(0.00675692 -0.00402122 0.00390457)
(0.00782497 -0.0040041 0.00367753)
(0.00759457 -0.00486918 0.00337302)
(0.00187528 -0.00748718 0.00225896)
(-0.00460804 -0.014492 0.0023113)
(0.0110407 -0.0223142 -0.0029446)
(0.0492844 -0.0202545 -0.0232709)
(0.0737634 0.0204349 -0.0214189)
(0.0914932 0.0208624 0.00523462)
(0.0947981 0.0236885 0.0288862)
(0.0897949 -0.0117998 0.040164)
(0.0915777 -0.00382484 0.0684335)
(0.0787674 -0.10412 0.0593219)
(0.0208687 -0.0206794 0.0433472)
(0.0400274 -0.18213 0.11302)
(-0.0359423 0.0583824 -0.0967738)
(0.0203966 0.0213333 -0.00703805)
(0.0994298 -0.210323 0.130834)
(0.0501545 0.0196527 0.0675161)
(0.0184742 -0.0893523 0.0449137)
(0.00619268 -0.0625646 0.0356528)
(0.00757067 -0.0771739 0.0246433)
(0.0306603 -0.0818186 0.00549254)
(0.0474122 -0.0941322 -0.00989115)
(0.0513637 -0.102735 -0.0161223)
(0.0472837 -0.119308 -0.0165434)
(0.0328529 -0.13568 -0.0113301)
(0.0141016 -0.155291 -0.00749377)
(-0.000520626 -0.18167 -0.00113454)
(-0.0117539 -0.200427 0.00262353)
(-0.0212778 -0.209548 -0.00447541)
(-0.0256696 -0.204895 -0.0129116)
(-0.0242894 -0.189441 -0.0141853)
(-0.0301348 -0.160831 0.00339409)
(-0.0487425 -0.125968 0.0236326)
(-0.0943836 -0.0899336 0.0195094)
(-0.100418 -0.0162415 -0.00483526)
(-0.0639727 0.0112054 -0.0054915)
(-0.0335932 0.0292471 -0.000329639)
(-0.0198377 0.031234 0.00990066)
(-0.0206457 0.0272529 0.0170306)
(-0.0280789 0.026105 0.0162699)
(-0.0314946 0.0310929 0.0130245)
(-0.0248618 0.0382326 0.00967585)
(-0.0145643 0.0408864 0.0112763)
(-0.00352824 0.035613 0.0115404)
(0.00584175 0.0278581 0.0130206)
(0.0102651 0.0156936 0.0132333)
(-0.00447069 -0.00829374 0.0150473)
(-0.00226147 -0.01455 0.00936642)
(0.00352578 -0.0203805 0.0141507)
(0.0158243 -0.0215128 0.0111696)
(0.012854 -0.024117 -0.000360909)
(0.0268216 0.0273109 0.00449726)
(0.0322785 0.016373 0.00343559)
(0.0148323 0.00559404 -0.00470845)
(0.0228484 0.00977592 -0.00265817)
(0.00752105 -0.00364516 -0.00392577)
(0.00760359 0.00168703 -0.0032232)
(0.000811176 -0.00499579 0.000133699)
(0.000336888 -0.000326024 0.001206)
(-0.000369002 -0.000689117 0.00307314)
(0.000144573 0.00169356 0.0035551)
(0.00026808 0.00189892 0.00351523)
(0.00119151 0.00309371 0.0038916)
(0.00223379 0.00299734 0.00440562)
(0.00292769 0.00285905 0.0047521)
(0.00315602 0.00230326 0.00489952)
(0.00322515 0.00192113 0.00496487)
(0.00318761 0.00149762 0.00500133)
(0.00315032 0.00125533 0.00503726)
(0.00308979 0.00103508 0.00508081)
(0.00304624 0.000926499 0.0051272)
(0.00300399 0.000833153 0.00517746)
(0.00297321 0.000794049 0.00522709)
(0.0029434 0.00076186 0.00527462)
(0.00291965 0.000752167 0.00531949)
(0.00289743 0.000743757 0.00536041)
(0.00287745 0.000741024 0.00539902)
(0.00286165 0.000735066 0.00543571)
(0.00284967 0.000725052 0.00546834)
(0.00284258 0.000710361 0.00549607)
(0.00284177 0.000681056 0.00551867)
(0.00285152 0.000648821 0.00553517)
(0.00287277 0.000584429 0.00554756)
(0.00291903 0.000520333 0.00555481)
(0.00299028 0.000393358 0.00555815)
(0.00311233 0.000270918 0.00555474)
(0.00327175 4.85931e-05 0.00554431)
(0.00352025 -0.000134791 0.00551776)
(0.00382323 -0.000408601 0.00546636)
(0.00423639 -0.000518984 0.00537092)
(0.00472304 -0.000647707 0.00524433)
(0.00525435 -0.000496994 0.00508853)
(0.00571973 -0.00047742 0.00499817)
(0.00592106 -0.000406628 0.00501825)
(0.00578499 -0.000765115 0.00536972)
(0.00579722 -0.000674514 0.00603876)
(0.00696211 -0.000247802 0.00714117)
(0.0078904 -0.0054483 0.00711088)
(0.00459292 -0.0160699 0.00794417)
(0.0174519 -0.032215 -0.00129241)
(0.0462258 -0.0144843 -0.0246456)
(0.0819533 0.0163807 -0.0122543)
(0.0923178 0.0324009 0.0111486)
(0.0794104 0.034396 0.0489887)
(0.071558 -0.00498568 0.0580887)
(0.0833483 -0.00889239 0.0784661)
(0.0908569 -0.11893 0.0730537)
(0.0303595 -0.0550887 0.101843)
(0.0852788 -0.2263 0.198208)
(-0.00944571 0.108773 -0.0114109)
(0.0255329 -0.00912867 0.00994409)
(0.0747159 -0.204868 0.147205)
(0.0248515 -0.0024169 0.0752885)
(-0.0125596 -0.0795385 0.0558166)
(-0.0129087 -0.0403984 0.0376209)
(0.0108248 -0.0366566 -0.0127577)
(0.0525208 0.0144096 -0.0345453)
(0.0692705 0.0614489 -0.0215031)
(0.0765356 0.0759163 -0.0151942)
(0.0723917 0.0737715 -0.0107315)
(0.0594827 0.054462 -0.00355859)
(0.0335383 0.00799554 1.66317e-05)
(0.00769684 -0.0197347 -0.00981394)
(-0.00666684 -0.0197761 -0.0167636)
(-0.017823 -0.0162054 -0.00749941)
(-0.0328532 -0.00912089 0.00860963)
(-0.0592272 0.0013618 0.0146288)
(-0.0882187 0.0171622 0.0147318)
(-0.11173 0.0344857 0.00970958)
(-0.122669 0.0462152 -0.00736702)
(-0.0904667 0.0467232 -0.00764503)
(-0.0475152 0.0514679 -0.00507494)
(-0.0264025 0.0491203 0.00805657)
(-0.0231685 0.037352 0.0197408)
(-0.0368448 0.0254932 0.0192744)
(-0.0464667 0.026861 0.0112872)
(-0.0388508 0.0442615 0.0133644)
(-0.0332965 0.0499444 0.0138639)
(-0.0184674 0.0511554 0.0129755)
(-0.00526819 0.0505283 0.0157757)
(0.00744252 0.0445634 0.0220012)
(0.0130317 0.0361112 0.0244424)
(0.00785131 0.0150451 0.0173137)
(0.000794068 -0.0025509 0.0113562)
(0.00347637 -0.0146852 0.0151044)
(0.00824199 -0.0187657 0.0116105)
(0.0010299 -0.0186397 0.00084026)
(0.028325 0.032425 0.00624562)
(0.0377929 0.0235277 0.0076241)
(0.0216022 0.00826943 -0.00222072)
(0.0299384 0.0139402 0.0030527)
(0.0163231 -0.00330976 -0.00458475)
(0.0160175 0.00422038 -0.00580389)
(0.00568169 -0.00522246 -0.00319355)
(0.00158321 -0.000332551 -0.00144662)
(-0.00130214 -0.00249886 0.00076746)
(-0.001709 -0.000303702 0.00159606)
(-0.00140636 -1.12194e-05 0.00208898)
(-0.000522945 0.00179136 0.00297777)
(0.000487252 0.00221358 0.00383556)
(0.00101008 0.00245734 0.00432904)
(0.00109087 0.0021871 0.00455971)
(0.000986214 0.00199658 0.00464742)
(0.000800402 0.00167535 0.00466948)
(0.000644537 0.0014715 0.00468536)
(0.00050327 0.00125942 0.00470922)
(0.000398503 0.00115192 0.00473863)
(0.000316404 0.00105632 0.00477065)
(0.000255578 0.00101181 0.00480142)
(0.000209996 0.000973309 0.00482346)
(0.00017756 0.000956283 0.00484059)
(0.000157485 0.000941527 0.00485064)
(0.000148284 0.000934629 0.00485618)
(0.000146872 0.000930018 0.00485869)
(0.000154022 0.000925536 0.00485859)
(0.000169907 0.000918968 0.00485531)
(0.000195792 0.000904179 0.00484528)
(0.000233432 0.000886842 0.00482934)
(0.000290085 0.000845727 0.00480651)
(0.000368458 0.000804039 0.00477328)
(0.000483185 0.000710068 0.0047298)
(0.000656662 0.000625303 0.00467842)
(0.000887976 0.000478872 0.00461833)
(0.00119286 0.000420149 0.00453449)
(0.00152087 0.000352434 0.00441022)
(0.00192148 0.000511875 0.00425451)
(0.00236425 0.000741601 0.00412154)
(0.00290521 0.00128214 0.00410273)
(0.00352621 0.00172194 0.00436333)
(0.00408972 0.00199609 0.00476646)
(0.00424931 0.00143799 0.00522773)
(0.00414169 0.000794623 0.00572099)
(0.00570784 0.000398988 0.0071756)
(0.00834474 -0.00196931 0.00909797)
(0.0112712 -0.00987886 0.0113255)
(0.0214173 -0.0263146 -0.00377719)
(0.0453679 -0.00379686 -0.0179326)
(0.0815519 0.0285989 -0.00303327)
(0.0825624 0.0566746 0.0168875)
(0.0660687 0.0443955 0.0570843)
(0.0564564 0.0123858 0.0644615)
(0.0780093 0.0194283 0.081365)
(0.0914591 -0.0926713 0.0888489)
(0.0346439 0.0403601 0.134603)
(0.0933532 -0.241177 0.223051)
(-0.0911749 0.238105 0.0294979)
(0.0152838 -0.0627279 0.0309018)
(0.0637462 -0.174615 0.148439)
(0.00535032 0.0575201 0.0583041)
(-0.0242745 -0.0739419 0.0551332)
(0.00516194 0.0267663 -0.00968489)
(0.00561088 0.0621341 -0.0478758)
(0.0196672 0.157366 -0.0126139)
(0.0666955 0.174855 0.00116731)
(0.0844679 0.189246 0.00161893)
(0.0917013 0.19061 8.42626e-05)
(0.0893071 0.188335 -0.00942815)
(0.0637058 0.171327 -0.012712)
(0.0381942 0.145883 -0.0167967)
(0.0165961 0.139241 -0.0192604)
(-0.00673336 0.12777 -0.0181622)
(-0.0313073 0.125823 -0.0174517)
(-0.0519238 0.122979 -0.0173891)
(-0.0749567 0.115649 -0.0138995)
(-0.0814547 0.104736 -0.00736564)
(-0.0647385 0.0933437 -0.000651472)
(-0.0474524 0.0741416 -0.000524606)
(-0.0277686 0.0678088 0.00802788)
(-0.0217781 0.0527871 0.0352614)
(-0.0216407 0.0415778 0.0451919)
(-0.0418487 0.0313854 0.0376384)
(-0.0590498 0.0336814 0.0261181)
(-0.060157 0.0533484 0.0208604)
(-0.0444114 0.062781 0.0121354)
(-0.0356949 0.0657153 0.00905201)
(-0.0268153 0.0600532 0.0149842)
(-0.013173 0.0557177 0.0216567)
(0.000564536 0.0529368 0.0275185)
(0.00569643 0.0381902 0.0293849)
(0.00657871 0.0251738 0.0298656)
(0.00115684 -0.0026922 0.0306169)
(-0.00133929 -0.0176173 0.0222722)
(-0.0175432 -0.0164977 0.00113775)
(0.0271866 0.032973 0.00882673)
(0.0431031 0.0292103 0.0120549)
(0.0215669 0.00679755 0.00490274)
(0.0301505 0.0139472 0.0106763)
(0.01902 -0.00723259 0.00323956)
(0.019413 0.0023308 -0.00331285)
(0.0106712 -0.00537025 -0.00432046)
(0.00448488 0.000755591 -0.00316015)
(0.000379985 -0.00213679 -0.000430238)
(-0.00219385 -0.000930853 4.2799e-05)
(-0.00287049 -0.00209002 0.000497723)
(-0.00241484 -0.000692927 0.00162305)
(-0.00105943 0.000277839 0.00296008)
(-0.000253044 0.00115812 0.00371372)
(-8.12147e-05 0.00138037 0.00406615)
(-0.000148589 0.00156204 0.00421346)
(-0.000313594 0.00150262 0.00425189)
(-0.000453644 0.00148572 0.00425029)
(-0.000585626 0.00139095 0.00422278)
(-0.000682359 0.00135101 0.0041912)
(-0.000745351 0.00129823 0.00415804)
(-0.000783054 0.00128606 0.00412712)
(-0.00080104 0.00127185 0.00409346)
(-0.000804424 0.00127682 0.00406019)
(-0.000798543 0.00127995 0.00402366)
(-0.000786722 0.00128648 0.00398278)
(-0.000767036 0.00129489 0.00393986)
(-0.0007368 0.00130219 0.00389919)
(-0.000697545 0.00130993 0.00385929)
(-0.000640314 0.00131196 0.00382121)
(-0.000563528 0.00131359 0.00378614)
(-0.000455794 0.00130153 0.00375313)
(-0.000313944 0.00129651 0.00372493)
(-0.000120657 0.00127045 0.00369664)
(0.0001281 0.001288 0.00365894)
(0.000433909 0.00128389 0.00360584)
(0.000780681 0.00138206 0.00352685)
(0.00113188 0.00149249 0.00340811)
(0.00147565 0.00180421 0.00324101)
(0.00176258 0.00214307 0.0030569)
(0.00206512 0.00264897 0.00293323)
(0.00256964 0.00300711 0.00305575)
(0.00331961 0.00320091 0.00324517)
(0.00390262 0.0025821 0.00340302)
(0.00391312 0.00168985 0.00331237)
(0.00532847 0.000890659 0.00402912)
(0.00805069 8.95078e-05 0.00642408)
(0.0134691 -0.00503353 0.00896981)
(0.0201894 -0.0172016 -0.00494276)
(0.0344758 -0.000647244 -0.00883567)
(0.0635674 0.0319626 0.00184522)
(0.0670348 0.0704458 0.0203771)
(0.0497914 0.068961 0.0657679)
(0.0407495 0.0698698 0.0839958)
(0.0549114 0.0762685 0.101575)
(0.0498196 0.0153328 0.113587)
(0.0418604 0.130672 0.14295)
(0.0379451 -0.244417 0.151784)
(0.000511539 0.345693 0.0150391)
(0.0040883 -0.107549 0.0334629)
(-0.00254875 -0.157785 0.141929)
(-0.0089928 0.144351 -0.00594306)
(-0.0335294 -0.0382717 0.023003)
(-0.0658084 0.133097 -0.0445287)
(-0.0328864 0.168147 -0.00721455)
(0.0159108 0.202774 0.00128108)
(0.0623571 0.197118 0.0141822)
(0.0862071 0.220114 0.0116538)
(0.101046 0.224318 0.0148476)
(0.105487 0.229966 0.0127728)
(0.0995961 0.23339 0.00946527)
(0.0865689 0.220033 0.00709284)
(0.0691331 0.207692 0.00402496)
(0.0414399 0.187114 -0.00425904)
(0.0222793 0.173151 -0.00554333)
(0.00659455 0.159652 0.00153229)
(-0.00984303 0.140473 0.00287092)
(-0.0140699 0.12285 0.0108958)
(-0.0170166 0.104848 0.0147931)
(-0.0207057 0.0906082 0.0174426)
(-0.0294585 0.0728527 0.0334772)
(-0.0366665 0.0663092 0.0566537)
(-0.0511956 0.0585106 0.0641899)
(-0.0734601 0.0549089 0.0417164)
(-0.0833694 0.0541716 0.0233921)
(-0.069355 0.0732214 0.00631527)
(-0.0501758 0.0800112 -0.000842983)
(-0.0363686 0.0875683 -0.00132595)
(-0.0230992 0.0874735 0.0070076)
(-0.0180559 0.076781 0.0200551)
(-0.0143464 0.0670188 0.0276508)
(-0.00608118 0.0562292 0.0366744)
(0.00159736 0.0383502 0.0431853)
(0.00157218 0.0156312 0.0443922)
(-0.012042 0.00111586 0.0406411)
(-0.0291978 -0.0206679 0.00794236)
(0.0228419 0.0256382 0.00616006)
(0.0447447 0.0321305 0.0136626)
(0.0157939 0.00226591 0.00846738)
(0.0271983 0.0152523 0.0137842)
(0.0136825 -0.00859921 0.00936399)
(0.0154075 -0.000222859 0.00423715)
(0.0100079 -0.00745009 -0.000573599)
(0.00541827 -0.000597528 -0.00296529)
(0.00123159 -0.00161393 0.0001451)
(-0.00193282 -9.47797e-05 0.000823123)
(-0.0036796 -0.00260145 0.000892019)
(-0.00463209 -0.00226346 0.00139318)
(-0.00401419 -0.00136614 0.00242676)
(-0.00320466 -6.60402e-05 0.00320016)
(-0.00299736 0.000498182 0.00356096)
(-0.0030834 0.0010198 0.0036987)
(-0.00326268 0.0012076 0.00371581)
(-0.00343651 0.00141017 0.00368097)
(-0.00360146 0.00148078 0.00357755)
(-0.00371598 0.00157188 0.00346751)
(-0.00378772 0.00160922 0.00335746)
(-0.00381723 0.00166379 0.00326436)
(-0.00381155 0.00169475 0.00318708)
(-0.00378393 0.00172709 0.0031254)
(-0.00373521 0.00174977 0.003072)
(-0.00366846 0.00177345 0.00302528)
(-0.00358528 0.00179471 0.0029773)
(-0.00348818 0.00181496 0.00293574)
(-0.00338303 0.00183524 0.00290261)
(-0.00326268 0.0018522 0.00287919)
(-0.00313548 0.00187246 0.00286403)
(-0.00298338 0.00188628 0.0028569)
(-0.00281313 0.00191522 0.00285978)
(-0.00259831 0.00194007 0.00287646)
(-0.00235186 0.00201044 0.00290827)
(-0.00206028 0.00208443 0.00295292)
(-0.00174366 0.00225454 0.00299474)
(-0.00140985 0.00242366 0.00300907)
(-0.00106485 0.0026865 0.00296542)
(-0.000726762 0.00284676 0.00283173)
(-0.000280831 0.00304928 0.00259214)
(0.000368257 0.0030509 0.00232813)
(0.00135269 0.0033154 0.00200451)
(0.00238601 0.00304794 0.00161316)
(0.00279787 0.00295675 0.000745681)
(0.00351487 0.00217798 0.000682072)
(0.00660878 0.00307564 0.00408275)
(0.0137441 -0.00255404 0.00829361)
(0.0252595 -0.00865339 0.00133388)
(0.0380805 0.00764696 0.0040594)
(0.0510545 0.052999 0.00570372)
(0.0409442 0.109199 0.0335952)
(0.00805944 0.117819 0.0787169)
(-0.010058 0.131351 0.0900442)
(-0.00993355 0.12156 0.113599)
(0.00543615 0.0566784 0.124927)
(0.0827902 0.141481 0.180633)
(-0.00455861 -0.238759 0.225661)
(-0.0189031 0.223627 0.0306005)
(-0.0158117 -0.0595211 0.0242919)
(-0.0611742 -0.167238 0.147323)
(-0.0388266 0.121546 -0.0056704)
(-0.0717538 0.0492795 -0.0100297)
(-0.0746273 0.169738 -0.0273415)
(-0.0303534 0.180798 0.00328843)
(0.0139433 0.204628 0.00764922)
(0.050683 0.188946 0.0200585)
(0.0783266 0.207933 0.0156199)
(0.0930606 0.219816 0.0180776)
(0.0996669 0.2332 0.0148023)
(0.0967234 0.24495 0.0176473)
(0.0900647 0.248189 0.0167233)
(0.0794888 0.247361 0.0228388)
(0.0654519 0.240586 0.0250165)
(0.0498284 0.221927 0.0274216)
(0.0317806 0.205432 0.0310788)
(0.0142832 0.182051 0.0311562)
(-0.000716851 0.161888 0.0387495)
(-0.0188407 0.143271 0.0445004)
(-0.0325579 0.126478 0.0555248)
(-0.0444568 0.111327 0.0734064)
(-0.052675 0.0957822 0.0804071)
(-0.0626821 0.0661235 0.0656329)
(-0.0742168 0.057966 0.0346136)
(-0.0763889 0.0610261 0.0149418)
(-0.0586681 0.0721719 -0.0036527)
(-0.0423808 0.0744853 -0.013663)
(-0.0336323 0.079216 -0.0157136)
(-0.0256517 0.082999 -0.0134916)
(-0.0178141 0.0833246 -0.0103301)
(-0.0127661 0.0814951 -0.00633923)
(-0.00965805 0.0738399 0.00831329)
(-0.0057747 0.0582026 0.0217472)
(-0.00884903 0.0374686 0.0278695)
(-0.0193557 0.0183854 0.0226875)
(-0.0514686 -0.00481078 0.0105022)
(0.0215097 0.0137787 0.00753714)
(0.0463978 0.0336664 0.0108119)
(0.00838641 0.00147817 0.00543677)
(0.0215234 0.0217027 0.013395)
(0.00852232 -0.00643037 0.010318)
(0.00859078 0.00376738 0.00711972)
(0.00340743 -0.00831531 0.004345)
(0.00246703 -0.00112129 -0.000482589)
(-0.000708143 -0.00191158 0.000632277)
(-0.00280324 0.000861905 0.00184072)
(-0.0045982 -0.00183564 0.0021598)
(-0.00596641 -0.0022073 0.00246757)
(-0.00559186 -0.00214806 0.00308688)
(-0.00432706 -0.00118063 0.00384043)
(-0.00371071 -0.00050422 0.00433217)
(-0.00351974 0.000220925 0.0046058)
(-0.0035441 0.000715264 0.00467753)
(-0.00354996 0.00117617 0.00466305)
(-0.00355068 0.00145072 0.00462517)
(-0.00351351 0.0016932 0.00457802)
(-0.00344646 0.00184422 0.00453016)
(-0.00335359 0.00197837 0.00449905)
(-0.00324528 0.0020684 0.00447886)
(-0.00312562 0.00215226 0.00447251)
(-0.0030048 0.00222168 0.00447058)
(-0.00288858 0.00228801 0.00446958)
(-0.00277622 0.0023399 0.00445794)
(-0.00266591 0.00237461 0.00444722)
(-0.00255671 0.00240018 0.0044431)
(-0.00243588 0.00242048 0.0044518)
(-0.0023088 0.0024492 0.0044751)
(-0.00216109 0.0024755 0.00451192)
(-0.00198725 0.00253089 0.0045648)
(-0.00176665 0.00259379 0.00463611)
(-0.00151036 0.00272348 0.00473287)
(-0.00120923 0.00288398 0.00485026)
(-0.000892404 0.0031696 0.00496907)
(-0.000565095 0.00346274 0.00504739)
(-0.000208871 0.00382983 0.00502643)
(0.000155762 0.00404739 0.00481927)
(0.000560904 0.00423893 0.00434124)
(0.000928903 0.00408876 0.00357356)
(0.0014975 0.00428727 0.00259095)
(0.00245532 0.00402782 0.00167798)
(0.00309952 0.00431478 0.000681293)
(0.0040329 0.00411459 0.00074213)
(0.00701641 0.00416871 0.0034395)
(0.0137557 -0.00165553 0.00589223)
(0.0116612 0.0137437 0.00427133)
(-0.000207043 0.0683405 0.0197359)
(-0.0104338 0.132165 0.0346543)
(-0.0251156 0.163077 0.0620247)
(-0.0409615 0.160514 0.0879305)
(-0.0363996 0.149979 0.106597)
(-0.0166747 0.11834 0.123099)
(0.0194636 0.0225318 0.110833)
(0.16891 0.0803786 0.132658)
(0.124593 -0.207289 0.159379)
(-0.00975952 0.21231 -0.00494228)
(-0.0252627 -0.0579636 0.0259728)
(-0.0916107 -0.165343 0.137279)
(-0.0818149 0.149759 -0.0311455)
(-0.105582 0.0284966 -0.00838842)
(-0.0991645 0.121901 -0.0191645)
(-0.0718764 0.0798132 0.00691136)
(0.00317158 0.0557123 0.00292818)
(0.0279798 0.0565101 -0.00311343)
(0.0416188 0.0515024 -0.000175282)
(0.0533305 0.08043 -0.00224917)
(0.0636052 0.114275 0.00467521)
(0.066317 0.162938 0.00655376)
(0.0687367 0.202924 0.00206636)
(0.0671827 0.237008 0.00921969)
(0.0643787 0.249999 0.0219322)
(0.0503356 0.248229 0.0292986)
(0.039415 0.240974 0.0397809)
(0.0232246 0.220426 0.0448901)
(0.00830101 0.198793 0.0555481)
(-0.00647236 0.169472 0.0594924)
(-0.023185 0.141001 0.0637895)
(-0.0440628 0.119373 0.068303)
(-0.0596924 0.0980372 0.0597053)
(-0.0772851 0.0985709 0.0347423)
(-0.0938327 0.124772 -0.00066669)
(-0.081182 0.155006 -0.015294)
(-0.0615035 0.174354 -0.0227427)
(-0.0341172 0.185466 -0.0227806)
(-0.0154283 0.179583 -0.019826)
(-0.00427983 0.182691 -0.0208066)
(0.000502929 0.178938 -0.0211103)
(-0.000680186 0.17447 -0.0149655)
(0.00268403 0.167503 -0.00346255)
(0.00744273 0.154162 0.0141571)
(-0.0027433 0.124186 0.022262)
(-0.0165013 0.0818121 0.0132636)
(-0.0372936 0.0277313 0.00676142)
(0.00336009 0.00525431 0.0022181)
(0.0446645 0.0323032 0.00495858)
(0.00106347 0.00402031 0.002887)
(0.0190613 0.0279847 0.0108289)
(0.00121845 -0.00353027 0.00642223)
(0.00191766 0.0110822 0.00553985)
(-0.0023441 -0.00662264 0.00341371)
(-0.00250887 0.00311393 -0.0021297)
(-0.00308387 -0.000563942 -0.00180355)
(-0.00513191 0.00327865 -0.00147241)
(-0.00639004 -9.21634e-05 -0.000322248)
(-0.00854902 -0.00088396 -0.000630592)
(-0.00852936 -0.00212005 -0.000594442)
(-0.00773905 -0.00185089 -7.2962e-05)
(-0.0073846 -0.00115551 0.000515913)
(-0.00732695 -0.000227889 0.000915137)
(-0.0073943 0.000481128 0.00111589)
(-0.00746869 0.00110676 0.00120915)
(-0.007554 0.00151862 0.00125376)
(-0.00761291 0.001849 0.00126964)
(-0.00765045 0.00205384 0.00127369)
(-0.00766584 0.00222018 0.00127778)
(-0.00766507 0.00233019 0.00128374)
(-0.00764784 0.00242236 0.00129863)
(-0.0076088 0.00248553 0.00131651)
(-0.00753151 0.00252616 0.00134221)
(-0.00738689 0.00254736 0.00138392)
(-0.00721702 0.00256741 0.00144263)
(-0.00704029 0.00259285 0.0015077)
(-0.0068484 0.00261748 0.00157648)
(-0.00665809 0.00264868 0.00165134)
(-0.00645662 0.00268024 0.00173594)
(-0.00624701 0.00274054 0.00184168)
(-0.00602525 0.00281934 0.00196261)
(-0.00581807 0.00298515 0.00210548)
(-0.00560334 0.00321022 0.0022635)
(-0.00536457 0.00358957 0.00241818)
(-0.00506722 0.00401485 0.00252785)
(-0.00467956 0.00458856 0.00249329)
(-0.00419867 0.00505111 0.00220647)
(-0.00356423 0.00548893 0.00154666)
(-0.00280991 0.00540744 0.000523706)
(-0.00171269 0.00525582 -0.000651333)
(-0.000448478 0.00454212 -0.00146594)
(0.000362396 0.0045494 -0.00216193)
(0.00147789 0.00437534 -0.00113809)
(0.00580556 0.00251478 0.00249442)
(0.00177961 -0.00373277 -0.000332167)
(-0.0215805 0.00906696 -0.00331375)
(-0.0461675 0.052095 0.0145581)
(-0.0568691 0.109074 0.0205741)
(-0.0619611 0.127974 0.0505865)
(-0.0715381 0.11946 0.0702148)
(-0.0696948 0.0868076 0.0797488)
(-0.0462522 0.0572479 0.107396)
(0.00873168 -0.0822251 0.0802793)
(0.117461 -0.0345367 0.057162)
(0.136582 -0.178308 0.0699287)
(0.060879 0.160067 -0.0644492)
(-0.0561173 -0.0350914 0.0251508)
(-0.122982 -0.195946 0.13084)
(-0.104106 0.1345 -0.0202963)
(-0.111164 -0.0467609 -0.0116005)
(-0.0596624 0.0880042 -0.00186982)
(-0.00433864 -0.0521218 0.0310235)
(0.027307 -0.0316463 0.0259825)
(0.0364477 -0.0374121 0.00284352)
(0.0354775 -0.0245517 -0.0133432)
(0.0404573 -0.0127585 -0.0162251)
(0.0491733 -0.00711507 -0.011334)
(0.049922 -0.0124796 -0.0114518)
(0.0465255 -0.0132935 -0.0150476)
(0.0310965 0.018038 -0.0419267)
(0.0287119 0.0681325 -0.0370416)
(0.03434 0.109386 -0.0200827)
(0.0349894 0.140943 -0.00169095)