/*--------------------------------*- C++ -*----------------------------------*\
| =========                 |                                                 |
| \\      /  F ield         | OpenFOAM: The Open Source CFD Toolbox           |
|  \\    /   O peration     | Version:  2.3.0                                 |
|   \\  /    A nd           | Web:      www.OpenFOAM.org                      |
|    \\/     M anipulation  |                                                 |
\*---------------------------------------------------------------------------*/
FoamFile
{
    version     2.0;
    format      ascii;
    class       volVectorField;
    location    "13";
    object      U.air;
}
// * * * * * * * * * * * * * * * * * * * * * * * * * * * * * * * * * * * * * //

dimensions      [0 1 -1 0 0 0 0];

internalField   nonuniform List<vector> 
6144
(
(0.00730159 0.0166414 0.000452816)
(0.00827964 0.00089443 0.00070783)
(0.00297005 -0.00203613 0.00066576)
(0.00365866 -0.00305468 0.000360618)
(0.00171652 -0.00578114 0.00128765)
(0.00204081 -0.00438225 0.00103287)
(0.00160833 -0.00503428 0.000833556)
(0.00183432 -0.00375767 0.000556513)
(0.00177424 -0.00316692 -0.000282835)
(0.00195863 -0.00154229 -0.000503554)
(0.0021372 -0.000339809 -0.000559352)
(0.00241159 0.000580878 -0.000405938)
(0.00265824 0.000752344 -0.000391269)
(0.0028396 0.000726382 -0.000391752)
(0.00295879 0.000458031 -0.000516109)
(0.0030369 0.000251542 -0.000610195)
(0.00309292 2.39836e-05 -0.000737037)
(0.00312971 -9.3791e-05 -0.00081947)
(0.00315776 -0.0002119 -0.000903259)
(0.00318168 -0.000247826 -0.000954458)
(0.00319517 -0.000285909 -0.00100112)
(0.00321102 -0.000280746 -0.0010275)
(0.00321831 -0.000279722 -0.00104961)
(0.00322667 -0.000259783 -0.00106111)
(0.00323089 -0.000242547 -0.00106922)
(0.00323442 -0.000219763 -0.0010725)
(0.00323609 -0.000198021 -0.00107362)
(0.00323675 -0.000175618 -0.00107257)
(0.00323635 -0.000153028 -0.0010703)
(0.00323478 -0.000133478 -0.00106657)
(0.00323414 -0.000103473 -0.00106306)
(0.00322614 -0.000103084 -0.00105791)
(0.00323401 -2.98118e-05 -0.00104949)
(0.00320388 -0.000102826 -0.00104906)
(0.00324156 9.06658e-05 -0.00102305)
(0.00317093 -0.000161116 -0.00103638)
(0.00324989 0.000311305 -0.000984211)
(0.00312398 -0.000340849 -0.00102223)
(0.00325129 0.000689502 -0.000924585)
(0.00306507 -0.000705307 -0.000999797)
(0.00323807 0.00129262 -0.000810623)
(0.00299888 -0.00134829 -0.00094237)
(0.00318873 0.00209537 -0.000620716)
(0.00292184 -0.00235415 -0.000817866)
(0.00307336 0.00299606 -0.000453002)
(0.00279198 -0.00350041 -0.000592932)
(0.00275087 0.0041355 -0.000657107)
(0.00249235 -0.00355416 -0.000525866)
(0.00267378 0.00751651 -0.00197151)
(0.00260537 -0.00126218 -0.00158199)
(0.00540495 0.0158404 -0.00295804)
(0.00683995 -0.00862859 -0.00118339)
(0.00209552 0.0144012 -0.00250232)
(0.00341754 -0.0113693 -0.00418297)
(0.00991632 0.0468603 -0.00602099)
(0.00404274 -0.0404474 -0.0127097)
(0.00962669 0.0695824 -0.00928482)
(0.0111516 -0.0457669 -0.0303725)
(-0.0282704 0.11274 -0.0688403)
(0.0644999 0.0630969 -0.115427)
(0.0952317 0.306438 -0.00364865)
(0.0442627 0.335676 -0.00359341)
(0.0360479 -0.145696 -0.00163774)
(0.0357516 -0.173606 0.00237604)
(0.0300019 -0.175021 0.00542124)
(0.0223357 -0.18366 0.00693102)
(0.015589 -0.191455 0.00788886)
(0.0109432 -0.195788 0.00802858)
(0.00766372 -0.19723 0.0075185)
(0.00503793 -0.196475 0.00652305)
(0.00286173 -0.193706 0.00527097)
(0.00104821 -0.189067 0.00402037)
(-0.000780504 -0.182537 0.00267457)
(-0.00222448 -0.174251 0.00139279)
(-0.00380113 -0.163972 2.15067e-05)
(-0.0048431 -0.151846 -0.000954864)
(-0.00461186 -0.138326 -0.00217395)
(-0.00371651 -0.12508 -0.00333986)
(-0.00259879 -0.111814 -0.00479685)
(-0.0017549 -0.0980007 -0.0062261)
(-0.00102939 -0.0861218 -0.00699959)
(0.00103039 -0.0753402 -0.00649748)
(0.00386914 -0.0659284 -0.00610375)
(0.00633108 -0.0557613 -0.00555602)
(0.00596774 -0.0474762 -0.005322)
(0.00452909 -0.0395886 -0.00428574)
(0.00263372 -0.033623 -0.0033984)
(0.000456905 -0.026179 -0.00259009)
(-0.00189732 -0.0184206 -0.00273361)
(-0.00800554 -0.00424415 -0.0032714)
(-0.00513823 0.010818 0.000626195)
(0.00220098 0.019673 -0.00346259)
(0.00542278 0.0244126 -0.0112939)
(0.00633596 0.0308321 -0.0119395)
(0.0076002 0.0312574 -0.00420457)
(0.0094693 0.0175087 0.0100007)
(0.013773 0.0164714 0.0028005)
(0.0163447 0.00598956 0.00369828)
(0.0058193 0.00205534 0.00292131)
(0.0084109 0.001951 0.00292507)
(0.00315494 -0.00190878 0.00447083)
(0.00422278 0.000394373 0.00386937)
(0.00279677 -0.00168824 0.00470535)
(0.00316814 -0.000360424 0.00416718)
(0.00303647 -0.000921936 0.00360443)
(0.00320498 0.000366161 0.0029914)
(0.00352242 0.00106724 0.00278407)
(0.00415922 0.00183049 0.00300346)
(0.00474215 0.00172761 0.00312014)
(0.00518798 0.0015242 0.00316596)
(0.0054405 0.00106906 0.00302776)
(0.0056095 0.000760995 0.00290601)
(0.0057012 0.000439133 0.00274854)
(0.00576904 0.000273908 0.0026486)
(0.00581021 0.000115111 0.00255181)
(0.00584653 6.12296e-05 0.002499)
(0.00586877 6.87253e-06 0.00245604)
(0.00589098 9.18157e-06 0.00243909)
(0.00590438 5.19457e-06 0.00242901)
(0.0059169 2.92805e-05 0.00243244)
(0.00592407 4.804e-05 0.00244032)
(0.00592937 7.59977e-05 0.00245462)
(0.00593143 0.000102336 0.00247096)
(0.00593141 0.000130198 0.00248992)
(0.00592925 0.000157795 0.00251012)
(0.00592471 0.000183847 0.00253118)
(0.00592028 0.000214365 0.00255228)
(0.00590488 0.000228753 0.00257332)
(0.00591192 0.000291771 0.00259657)
(0.00586286 0.000246918 0.00261315)
(0.00591272 0.000419636 0.00265439)
(0.00578979 0.000192507 0.00265413)
(0.00592295 0.00065049 0.00272945)
(0.00567903 -8.19314e-06 0.00269108)
(0.00592816 0.00105441 0.00282911)
(0.00552417 -0.000435676 0.00272726)
(0.00592573 0.00171564 0.00299685)
(0.00532925 -0.00122924 0.00279378)
(0.00590948 0.00265178 0.00326359)
(0.00507831 -0.00254463 0.00291673)
(0.00575718 0.00370119 0.00347082)
(0.00469452 -0.004302 0.00304138)
(0.00503178 0.00487682 0.00292893)
(0.00380313 -0.00490525 0.00266484)
(0.00332684 0.00758729 0.000176416)
(0.00355131 0.000150113 0.00109858)
(0.00729594 0.0151249 -0.000863362)
(0.0109674 0.0014844 0.0023956)
(0.00894237 0.0257461 0.00568653)
(-0.00220033 -0.023096 0.00159669)
(0.0188594 0.0468723 0.00215619)
(0.0324828 -0.0482808 0.000233216)
(-0.0275172 0.0365202 0.00930385)
(-0.0252041 -0.0164873 -0.00855293)
(-0.0133973 0.17734 0.000817991)
(0.186889 -3.17612e-05 -0.0628534)
(0.101696 0.350057 -0.00509116)
(-0.00681723 0.420497 0.00800963)
(-0.0301297 -0.100163 0.0116592)
(-0.0126721 -0.0825121 0.0139867)
(-0.0130509 -0.102938 0.0148329)
(-0.021249 -0.127893 0.0156476)
(-0.0237663 -0.140808 0.015175)
(-0.0239649 -0.150132 0.0140902)
(-0.0232926 -0.15689 0.0124218)
(-0.0226506 -0.161051 0.0102503)
(-0.0220009 -0.162075 0.00801942)
(-0.0210049 -0.160843 0.00584277)
(-0.0199227 -0.157342 0.00389044)
(-0.0192061 -0.151639 0.00191931)
(-0.0188715 -0.143751 0.000292166)
(-0.0181183 -0.132622 -0.000915584)
(-0.0162191 -0.119025 -0.00260708)
(-0.0147197 -0.106885 -0.00433635)
(-0.0104712 -0.0953064 -0.00628905)
(-0.00501289 -0.0815018 -0.00721387)
(-0.00277689 -0.0660087 -0.00631823)
(-0.00245645 -0.0500504 -0.00549368)
(-0.00410605 -0.0343378 -0.00598929)
(-0.00466688 -0.0187404 -0.00459923)
(-0.00216678 -0.00783879 -0.00133141)
(-0.000335278 -0.00290976 0.00151648)
(-0.000728827 -0.00102388 0.00230544)
(-0.0032692 -0.000728187 0.00246501)
(-0.00841025 -0.00143887 0.000437784)
(-0.0125181 0.00187129 -0.00251176)
(-0.0122854 0.00823169 0.00141498)
(-0.0043635 0.0145346 0.000930122)
(0.00115642 0.0206103 -0.00246232)
(0.000278301 0.0286203 0.000763152)
(-0.00236068 0.0274505 0.0133406)
(0.00169858 0.0158447 0.0266063)
(0.016505 0.01452 0.00235684)
(0.0218112 0.00697638 0.00236753)
(0.00694528 0.00199875 0.000466334)
(0.0112386 0.0042737 0.000264079)
(0.00344598 -0.000619899 0.00252281)
(0.00459914 0.0027627 0.00297687)
(0.00229088 0.000505802 0.00465785)
(0.00277964 0.00217135 0.00485809)
(0.00229656 0.00128763 0.00507513)
(0.00217502 0.00206604 0.00480138)
(0.00243268 0.00225489 0.00444889)
(0.00333298 0.00285312 0.00456262)
(0.00408195 0.00250644 0.00475629)
(0.00467138 0.00218896 0.00485465)
(0.0048977 0.00158945 0.00484828)
(0.00505413 0.00122595 0.00481861)
(0.00507881 0.000842394 0.00477938)
(0.00511649 0.000652448 0.00475721)
(0.0051103 0.000468171 0.00474597)
(0.00511956 0.000400957 0.00475)
(0.00511426 0.000333326 0.004762)
(0.00511736 0.000325224 0.00478361)
(0.00511331 0.000314996 0.00480892)
(0.00511194 0.000332363 0.00483963)
(0.00510677 0.000346696 0.00487019)
(0.00510088 0.000370994 0.00490328)
(0.00509207 0.000394372 0.00493628)
(0.00508157 0.000419695 0.00496987)
(0.00506915 0.000444434 0.00500286)
(0.00505485 0.000468217 0.00503463)
(0.0050389 0.000494533 0.00506418)
(0.00501699 0.000512433 0.00509069)
(0.0050069 0.000559196 0.00511696)
(0.00495989 0.000536874 0.00513574)
(0.00499083 0.00066725 0.00516965)
(0.00486369 0.000495549 0.00516879)
(0.00500165 0.000874144 0.00522467)
(0.00471822 0.000312588 0.0051882)
(0.00502719 0.00124442 0.00528094)
(0.00451338 -9.81771e-05 0.0051886)
(0.005086 0.00184892 0.00535637)
(0.00426613 -0.000878611 0.00517073)
(0.005215 0.00271747 0.00546053)
(0.00396482 -0.00220454 0.00512756)
(0.00526645 0.0038055 0.00548415)
(0.00350449 -0.00399027 0.00506032)
(0.0043386 0.0049686 0.00478656)
(0.00243258 -0.00471258 0.00478209)
(0.000525458 0.00713157 0.00177)
(0.00227012 -0.000638036 0.0034328)
(0.0035588 0.0127441 0.00223997)
(0.0113244 0.00197073 0.0045782)
(0.0153945 0.0299219 0.0079406)
(5.23483e-06 -0.0285796 0.00326915)
(0.0273958 0.0318848 0.00343461)
(0.0432318 -0.0556681 0.000636262)
(-0.062518 0.0727037 0.0224758)
(-0.0706763 -0.10816 -0.0130348)
(-0.0615062 0.190572 -0.0334792)
(0.192356 -0.0313489 -0.0352585)
(0.192946 0.309725 -0.0193106)
(0.0802212 0.248756 0.00326427)
(0.0847938 -0.0948068 0.0190009)
(0.0398567 -0.052543 0.0233134)
(0.016098 -0.0790301 0.0230364)
(0.0032856 -0.101169 0.0216154)
(-0.00468294 -0.110727 0.0193307)
(-0.0104536 -0.117774 0.0164489)
(-0.0144196 -0.123156 0.0129993)
(-0.0167776 -0.126083 0.00988192)
(-0.0178071 -0.125775 0.00647883)
(-0.0197288 -0.123374 0.00350987)
(-0.0210761 -0.119572 0.000194658)
(-0.0226875 -0.114903 -0.00287383)
(-0.025733 -0.107996 -0.0038426)
(-0.0226395 -0.0986614 -0.00628753)
(-0.0159371 -0.0834636 -0.00687225)
(-0.0134654 -0.069988 -0.0115499)
(-0.0150936 -0.0465824 -0.018007)
(-0.0172746 -0.011286 -0.0132482)
(-0.015111 0.00807266 -0.00740596)
(-0.0103133 0.0204915 -0.00368741)
(-0.00521806 0.0245931 -0.000325504)
(-0.00022839 0.0238245 0.00273833)
(0.00338051 0.0207147 0.00508715)
(0.00465789 0.0169595 0.00631856)
(0.0035673 0.013777 0.00650531)
(0.000123412 0.0112139 0.00606499)
(-0.00655311 0.00921965 0.00331691)
(-0.0154696 0.00897752 -0.00160691)
(-0.0161576 0.0114124 -0.000104583)
(-0.00678126 0.0136653 0.000232103)
(-0.00186067 0.0203863 -0.000449173)
(-0.00241759 0.0269705 0.00664129)
(-0.005803 0.0251541 0.0178004)
(-0.00639095 0.013386 0.0288193)
(0.0191688 0.0162905 0.00271624)
(0.0269582 0.0102579 0.00139116)
(0.00876391 0.00175304 -0.00430057)
(0.0170194 0.00731578 -0.00466835)
(0.00520325 -0.00126885 -0.0030559)
(0.00608206 0.00315877 -0.00164763)
(0.00203136 -0.00116007 0.00134216)
(0.00216261 0.00218213 0.00264409)
(0.00129074 0.00113 0.00406406)
(0.00139067 0.00254058 0.0041879)
(0.00131251 0.00263762 0.00402403)
(0.00224147 0.003381 0.0043243)
(0.0030672 0.00306031 0.00469998)
(0.00365736 0.00280805 0.00492845)
(0.00385437 0.00218956 0.00501143)
(0.00396622 0.00182253 0.00504039)
(0.00396011 0.00140284 0.0050506)
(0.00396885 0.00119205 0.00506301)
(0.00394101 0.000983162 0.00508255)
(0.00393562 0.000897939 0.00510737)
(0.00391829 0.000814789 0.00513622)
(0.00391433 0.000793665 0.00516793)
(0.00390298 0.000772873 0.00520042)
(0.00389859 0.000779466 0.00523555)
(0.00389114 0.000785263 0.00526514)
(0.00388336 0.000802644 0.00529392)
(0.00387439 0.000820042 0.00532372)
(0.00386421 0.000839521 0.00535294)
(0.00385239 0.000858254 0.00537993)
(0.00383869 0.000876508 0.00540468)
(0.00382326 0.000896905 0.00542745)
(0.00380514 0.000914433 0.00544853)
(0.00379125 0.000942253 0.00546795)
(0.00375783 0.000942054 0.00547905)
(0.00377401 0.00102452 0.0054912)
(0.00367883 0.000914059 0.00548557)
(0.00379145 0.00119405 0.00551425)
(0.00354777 0.000753659 0.00547105)
(0.00384093 0.00151448 0.00553504)
(0.00336463 0.000355144 0.00542909)
(0.00395607 0.00203801 0.00556516)
(0.00315004 -0.000438704 0.00534528)
(0.00419737 0.00279747 0.00562843)
(0.00285671 -0.00180926 0.00520066)
(0.0044714 0.00383965 0.00566779)
(0.00230504 -0.00363347 0.00502695)
(0.00351967 0.00509275 0.00505611)
(0.00118679 -0.00457971 0.00484855)
(-0.000884635 0.00742791 0.00274596)
(0.00119356 -0.00494869 0.0044861)
(0.00174366 0.011084 0.00415692)
(0.00757149 -0.011566 0.00550628)
(0.0192186 0.0232505 0.00695557)
(-0.000351541 -0.0239933 -0.000385499)
(0.0258255 0.0366975 0.00703419)
(0.0226483 -0.0265827 0.00786938)
(-0.0125994 0.111321 0.0163915)
(-0.0862604 -0.142881 0.0131554)
(-0.0657738 0.214744 -0.0931123)
(0.203827 -0.0900902 -0.0251229)
(0.231967 0.315425 -0.02128)
(0.0878 0.165712 -0.000245717)
(0.0946286 0.209022 0.0144108)
(-0.0179509 0.0693274 0.0251672)
(-0.0197478 -0.0412886 0.0285856)
(-0.0221705 -0.0485846 0.0258534)
(-0.0261127 -0.0659284 0.0196996)
(-0.0292309 -0.0776047 0.0130895)
(-0.0304573 -0.0842878 0.00750913)
(-0.0303015 -0.0872217 0.00218922)
(-0.0260735 -0.0866194 -0.00211078)
(-0.0184621 -0.0829452 -0.00579032)
(-0.0133479 -0.0748866 -0.00933771)
(-0.0138741 -0.0635622 -0.010634)
(-0.0201565 -0.0523742 -0.0137339)
(-0.0274971 -0.0327751 -0.0179654)
(-0.0298492 0.00768872 -0.0207032)
(-0.0271598 0.0353377 -0.0192825)
(-0.0218178 0.0557525 -0.0118482)
(-0.0134038 0.0617625 -0.00411095)
(-0.00554481 0.0615056 0.0010591)
(-0.00071186 0.0574368 0.00473708)
(0.00196915 0.0513028 0.00726936)
(0.00286808 0.044784 0.00879476)
(0.00234761 0.0386846 0.00930655)
(0.000219635 0.0327771 0.00878369)
(-0.00361877 0.027939 0.00728776)
(-0.00938666 0.023965 0.00484664)
(-0.0164839 0.0214188 0.000710187)
(-0.0197032 0.0195516 -0.00175444)
(-0.0171246 0.0161805 -0.00111832)
(-0.0100105 0.0151177 -8.70494e-05)
(-0.0067714 0.0192706 0.00207118)
(-0.00755816 0.0227051 0.00962631)
(-0.0119907 0.0223775 0.0200288)
(-0.0148842 0.0113873 0.029933)
(0.0216887 0.0223 0.00485321)
(0.030961 0.0168908 0.00458489)
(0.0149642 0.00301881 -0.00591012)
(0.0243137 0.0115321 -0.00440455)
(0.013403 -0.00192823 -0.00749816)
(0.014366 0.0049077 -0.00664591)
(0.00547557 -0.00222584 -0.00308156)
(0.00312651 0.00129732 -0.000927884)
(0.000255585 -0.00128509 0.00148854)
(-0.000338218 0.00064877 0.00214731)
(-0.000432014 0.00088176 0.00267258)
(0.000442549 0.00249691 0.0034499)
(0.00122689 0.00262454 0.00416226)
(0.00166473 0.00268696 0.00458745)
(0.00172618 0.00226515 0.00477448)
(0.00169019 0.00202616 0.00485156)
(0.0015653 0.00166504 0.00487592)
(0.00147511 0.00147942 0.00489245)
(0.00137762 0.00127554 0.00490665)
(0.00131621 0.00118911 0.00492118)
(0.00126511 0.00109916 0.00493714)
(0.00123874 0.00107042 0.00495428)
(0.00122027 0.00104262 0.00496741)
(0.00121221 0.00104472 0.00497944)
(0.00120787 0.00104886 0.00498877)
(0.00120637 0.00106097 0.00499561)
(0.00120481 0.00107213 0.00499581)
(0.00120311 0.00108611 0.00499292)
(0.00120058 0.00109939 0.00498744)
(0.00119592 0.00111303 0.00497808)
(0.00118685 0.00112956 0.00496277)
(0.00117712 0.00114317 0.00494483)
(0.00116581 0.00116572 0.0049228)
(0.00115016 0.00117738 0.00490294)
(0.0011565 0.00123453 0.00488902)
(0.00110279 0.00116889 0.0048659)
(0.00118734 0.00138381 0.0048692)
(0.00100207 0.00103183 0.00480478)
(0.00128047 0.00167992 0.00485201)
(0.000850488 0.00064784 0.00470794)
(0.00148212 0.00216882 0.00485708)
(0.000671013 -0.00012151 0.00456283)
(0.00187744 0.00289046 0.00492796)
(0.000421679 -0.00135318 0.00435241)
(0.00229247 0.00389549 0.00499759)
(1.19944e-05 -0.00259428 0.00413651)
(0.00116402 0.00533687 0.00433876)
(-0.000897145 -0.00280248 0.00399281)
(-0.0014803 0.00781796 0.00233128)
(-0.000156361 -0.00596492 0.00418114)
(0.00500271 0.00948052 0.00279652)
(0.0040681 -0.0165795 0.00438995)
(0.0178368 0.0155989 0.00472446)
(-0.00555266 -0.0152592 0.00530143)
(0.0222307 0.0362069 0.0362669)
(0.020078 -0.0563767 0.0296517)
(0.0207276 0.0440181 0.0642336)
(-0.103527 -0.12838 0.042086)
(0.00425472 0.182324 -0.186187)
(0.139538 -0.0899827 -0.000446897)
(0.203879 0.482704 -0.0190017)
(0.0832847 0.582725 4.90793e-05)
(0.0881757 0.497834 0.0125017)
(0.0136614 0.442526 0.00996529)
(0.0358272 0.111519 0.00978022)
(-0.00310894 0.0221185 0.0061299)
(-0.0101023 -0.0197735 0.000638477)
(-0.0121407 -0.0300904 -0.00485907)
(-0.0131417 -0.0321254 -0.0104882)
(-0.0127016 -0.0272034 -0.0161727)
(-0.0134081 -0.0125256 -0.0215846)
(-0.0177705 0.0128871 -0.0218212)
(-0.0222376 0.0436825 -0.0213568)
(-0.0268577 0.0660476 -0.0195068)
(-0.0306574 0.0832347 -0.0179448)
(-0.0306329 0.0988033 -0.0146498)
(-0.0242687 0.105689 -0.00960385)
(-0.0164142 0.107946 -0.0036465)
(-0.00984135 0.107121 0.00205748)
(-0.00498028 0.1032 0.00616478)
(-0.00172058 0.0977259 0.00888611)
(0.000420014 0.0900107 0.0103765)
(0.00141258 0.0808117 0.010679)
(0.0014955 0.071326 0.0101754)
(0.000761173 0.0621965 0.00880555)
(-0.000984248 0.0530744 0.0068669)
(-0.00385298 0.0451379 0.00423649)
(-0.00765063 0.0371388 0.00139786)
(-0.010879 0.0309395 -0.00107786)
(-0.0114062 0.0256773 -0.00126)
(-0.00825505 0.0221179 0.000979374)
(-0.00606776 0.021202 0.00188033)
(-0.0068877 0.0232645 0.00535993)
(-0.0118102 0.0222276 0.0119318)
(-0.0192298 0.0212605 0.0211757)
(-0.025545 0.0103432 0.0301869)
(0.0201392 0.0263066 0.00782841)
(0.0340647 0.0244442 0.00885058)
(0.0188443 0.00222815 -0.00142325)
(0.0276859 0.0121576 0.00437965)
(0.0198838 -0.00670853 -0.00389971)
(0.0195123 0.00409623 -0.00723734)
(0.0126059 -0.00349429 -0.00583207)
(0.00682784 0.00224685 -0.00351519)
(0.00259329 -0.00220403 -0.000870608)
(-0.000414811 -0.00124412 -0.000288813)
(-0.00183076 -0.00179663 0.000583279)
(-0.00123874 0.000138655 0.00188313)
(-8.98854e-05 0.00093597 0.00317466)
(0.000504446 0.00163337 0.0038981)
(0.000585599 0.00167165 0.00426003)
(0.000506186 0.00175927 0.00441809)
(0.0003527 0.0016091 0.00446455)
(0.000231131 0.0015648 0.00447094)
(0.000118375 0.00144418 0.00445428)
(4.80452e-05 0.00141821 0.00443139)
(4.85745e-06 0.00136628 0.00440376)
(-1.47454e-05 0.00136616 0.00437088)
(-1.99818e-05 0.00135623 0.00433053)
(-1.55511e-05 0.00136407 0.00429037)
(-1.31789e-06 0.00136894 0.00424935)
(1.86324e-05 0.00138041 0.00420884)
(4.06207e-05 0.00139241 0.00416473)
(6.3723e-05 0.00140791 0.00411959)
(8.59926e-05 0.00142489 0.00407413)
(0.000106501 0.00144352 0.00402932)
(0.000126053 0.00146341 0.00398839)
(0.000145359 0.00147925 0.00395136)
(0.00015581 0.00150064 0.00391162)
(0.000168065 0.001511 0.00387342)
(0.000180227 0.00154796 0.0038352)
(0.000170844 0.00152029 0.00379838)
(0.000237267 0.0016769 0.00378157)
(0.000145018 0.00143347 0.00374316)
(0.000399821 0.00196136 0.00379494)
(0.000106896 0.00111054 0.00370103)
(0.000717869 0.00243545 0.00387788)
(7.63192e-05 0.000482862 0.00365034)
(0.00122377 0.00318541 0.00405304)
(6.11373e-06 -0.000308106 0.00355909)
(0.00151215 0.00432354 0.00414622)
(-0.000334456 -0.00062747 0.00333562)
(0.000198343 0.00610908 0.00340686)
(-0.00112013 -0.000674585 0.00307905)
(-0.000416148 0.00833152 0.00209649)
(0.000274923 -0.00569953 0.00378433)
(0.00711459 0.010405 0.00265561)
(0.00436939 -0.0128125 0.00291394)
(0.0125616 0.0149592 0.00259615)
(-0.00817204 -0.00751281 0.0123132)
(0.0198897 0.00729869 0.0471927)
(-0.000233238 -0.0334411 0.0493885)
(0.014985 0.0186685 0.0840034)
(-0.0831801 -0.107072 0.0715595)
(0.0457932 -0.00464644 -0.189138)
(0.082238 -0.00159414 0.0106702)
(0.200948 0.454047 -0.0321343)
(0.0789471 0.433542 -0.00687431)
(0.0726873 0.588584 0.00307245)
(0.0387823 0.592632 0.00208836)
(0.0207051 0.593193 -0.00342701)
(0.00640606 0.609286 -0.010677)
(0.00265827 0.611941 -0.0127527)
(-0.00284294 0.603171 -0.0137414)
(-0.0108155 0.61063 -0.0138158)
(-0.0138443 0.61036 -0.0132179)
(-0.0180511 0.620402 -0.0113702)
(-0.0180129 0.637582 -0.00876381)
(-0.016504 0.642983 -0.00596373)
(-0.0162425 0.648299 -0.00325086)
(-0.0182228 0.648639 -2.21377e-05)
(-0.0155358 0.649099 0.00334362)
(-0.0118674 0.642752 0.00636669)
(-0.0082883 0.642317 0.00935256)
(-0.00530222 0.639175 0.0112347)
(-0.00337113 0.634771 0.0120137)
(-0.00223745 0.628442 0.0122988)
(-0.00154069 0.622975 0.012189)
(-0.0011414 0.594475 0.0116943)
(-0.00136722 0.594469 0.0107888)
(-0.00244327 0.585516 0.00953678)
(-0.00434431 0.56748 0.00874398)
(-0.00715758 0.541479 0.0078564)
(-0.0104066 0.485248 0.00685601)
(-0.0126602 0.310379 0.00606225)
(-0.0139644 0.0602515 0.00617009)
(-0.0138543 0.0267976 0.00614044)
(-0.0124578 0.0201606 0.00665814)
(-0.0114431 0.0183051 0.00787405)
(-0.0148721 0.0168243 0.0122906)
(-0.0222327 0.0157376 0.0209228)
(-0.029775 0.00712502 0.0291016)
(0.0148002 0.0254663 0.0057579)
(0.0383033 0.0316187 0.0131282)
(0.0145156 -0.00184364 0.00743999)
(0.0224419 0.0112116 0.0128852)
(0.0166171 -0.0121644 0.00682532)
(0.0183858 -0.00121496 -0.00223489)
(0.0146029 -0.0065518 -0.00482443)
(0.00884862 0.000706286 -0.00390589)
(0.00482851 -0.00182065 -0.00090021)
(-0.000106492 -0.00121197 -0.000348489)
(-0.00281535 -0.00306036 -7.09967e-05)
(-0.00354473 -0.00191545 0.000732165)
(-0.00283963 -0.000836899 0.00204407)
(-0.00226988 0.0003283 0.00289656)
(-0.00225209 0.000718816 0.00333272)
(-0.0023954 0.00116975 0.00352205)
(-0.00261452 0.00128909 0.00356351)
(-0.00277976 0.00147997 0.00353264)
(-0.0029249 0.00151779 0.00346814)
(-0.00300078 0.00160764 0.00340878)
(-0.00303492 0.00163315 0.00334853)
(-0.00302928 0.0016886 0.00329892)
(-0.00299676 0.00171196 0.00324584)
(-0.00294385 0.00174659 0.00319292)
(-0.00287558 0.00177133 0.0031389)
(-0.00280283 0.00179914 0.00309266)
(-0.00272843 0.00182391 0.00305122)
(-0.00265569 0.00184772 0.00301282)
(-0.00258508 0.00186814 0.00297699)
(-0.00251691 0.00188472 0.00294721)
(-0.00245447 0.00189974 0.00292189)
(-0.00239681 0.0019132 0.00290028)
(-0.00234814 0.00193102 0.00288084)
(-0.00229666 0.00194008 0.00286766)
(-0.00225867 0.00196373 0.00285613)
(-0.00222268 0.00195043 0.00285831)
(-0.00217289 0.00203815 0.00286788)
(-0.00219383 0.00186591 0.00289539)
(-0.00202609 0.0022692 0.00297129)
(-0.00217245 0.00159176 0.00301739)
(-0.00180374 0.00271891 0.00317681)
(-0.00216622 0.00116384 0.00316462)
(-0.00151908 0.0034871 0.00345426)
(-0.00222993 0.000809106 0.00331076)
(-0.00156949 0.00471983 0.00359166)
(-0.00252548 0.000941778 0.00323437)
(-0.00249935 0.00654633 0.00291814)
(-0.0027404 0.000348621 0.00281556)
(-0.00111811 0.00860897 0.00245478)
(-0.00138142 -0.0051921 0.00366648)
(0.00490627 0.0101667 0.0041947)
(0.00102641 -0.00696135 0.00307478)
(0.00451188 0.0157553 0.00182585)
(0.00710675 -0.00270796 0.00335645)
(0.00681248 -0.00799831 0.035676)
(-0.0198069 -0.0247582 0.0654956)
(0.00838768 -0.0225987 0.104156)
(-0.0283361 -0.102247 0.0932601)
(0.0412309 -0.142602 -0.183212)
(0.0502988 0.129616 0.00869511)
(0.0917261 0.610914 -0.0307395)
(0.0549132 0.670004 -0.00873261)
(0.053693 0.634403 0.00426754)
(0.0447042 0.717154 0.0077631)
(0.0351693 0.722168 0.00817585)
(0.0249161 0.750497 0.00452717)
(0.0163316 0.678196 0.00161974)
(0.00880316 0.676755 3.41387e-05)
(0.00507918 0.628422 0.00121065)
(-0.00368578 0.66283 0.00171772)
(-0.00626945 0.687695 0.00252733)
(-0.00956318 0.624305 0.00285838)
(-0.0116608 0.684504 0.00364813)
(-0.0130097 0.61846 0.00472699)
(-0.0129318 0.504439 0.00859296)
(-0.0122657 0.613044 0.0104464)
(-0.0120362 0.723629 0.0101825)
(-0.0110545 0.664287 0.0113263)
(-0.00902673 0.705297 0.0122204)
(-0.00547815 0.690901 0.0129611)
(-0.00351023 0.689609 0.0131983)
(-0.00116468 0.683181 0.0133697)
(0.00159694 0.675035 0.0133148)
(0.00418603 0.658802 0.0128927)
(0.00583171 0.647749 0.0125365)
(0.0066836 0.638397 0.0126213)
(0.00659899 0.631839 0.0127353)
(0.00491622 0.605869 0.0125343)
(0.00303526 0.533309 0.0120622)
(0.00101263 0.386033 0.0109973)
(-0.00429298 0.491035 0.00804229)
(-0.00659075 0.266657 0.00602524)
(-0.0151441 0.354204 0.00929448)
(-0.019505 0.0398012 0.0127733)
(-0.0325626 0.0390382 0.0194076)
(-0.0455769 0.413982 0.0246732)
(0.0110041 0.0119095 0.00262693)
(0.0392046 0.0344923 0.0138927)
(0.00897664 -0.00168976 0.00790479)
(0.0149783 0.015833 0.0142961)
(0.00953187 -0.0111539 0.0112062)
(0.0104931 -0.00175972 0.00499524)
(0.00925196 -0.00968839 0.000629242)
(0.00711726 -0.001735 -0.00334454)
(0.00445636 -0.00186443 -0.000727693)
(-3.0925e-05 -0.000440514 0.000123971)
(-0.00323456 -0.00301864 0.000538571)
(-0.00453288 -0.00273394 0.00115031)
(-0.00390411 -0.002347 0.0021658)
(-0.00289363 -0.00122262 0.00317408)
(-0.00259058 -0.000506877 0.00376229)
(-0.00256672 0.000290474 0.00409203)
(-0.00267511 0.000781634 0.00420549)
(-0.00272468 0.00124747 0.00426319)
(-0.00277122 0.00150804 0.00426384)
(-0.00275981 0.00176459 0.00425503)
(-0.00272262 0.00191336 0.00423521)
(-0.00265737 0.0020632 0.00422433)
(-0.00258369 0.0021563 0.00421091)
(-0.00250176 0.00223976 0.00419942)
(-0.00242423 0.00228923 0.00418484)
(-0.0023484 0.00232169 0.00418186)
(-0.00227252 0.00234163 0.00418989)
(-0.00219609 0.00235793 0.00420722)
(-0.00212306 0.00237138 0.00422756)
(-0.00205546 0.00238337 0.00425191)
(-0.00199287 0.00239557 0.00428009)
(-0.00193167 0.00240477 0.00431291)
(-0.00187826 0.00241561 0.00434861)
(-0.00182008 0.00241841 0.00439061)
(-0.00177565 0.00242974 0.0044337)
(-0.00172603 0.00241599 0.0044859)
(-0.00168121 0.00246138 0.00453716)
(-0.00165673 0.00234682 0.0046095)
(-0.00153169 0.00265913 0.00468979)
(-0.00158684 0.00214953 0.00477717)
(-0.00130128 0.00313228 0.00491111)
(-0.00150796 0.00194233 0.00496452)
(-0.00104375 0.00399876 0.00511529)
(-0.0014929 0.00206254 0.00507221)
(-0.00122821 0.00545395 0.00486813)
(-0.00172562 0.00238018 0.00473246)
(-0.0020376 0.00723542 0.00371459)
(-0.00190287 0.000335212 0.00378687)
(-0.000564744 0.00873809 0.00376165)
(-0.000732212 -0.00671389 0.00461955)
(0.00270149 0.00930152 0.00667315)
(0.00252629 -0.00705898 0.00716393)
(0.00257553 0.0113471 0.00708657)
(0.0217329 -0.00950786 0.00383055)
(-0.00605427 0.00105764 0.0423217)
(-0.0383005 -0.0386274 0.0754562)
(-0.012515 -0.0181214 0.0965613)
(0.0322976 -0.077199 0.0925989)
(-0.000114292 -0.145917 -0.169838)
(-0.018869 0.156897 0.00589071)
(-0.0423757 0.658798 -0.0323913)
(0.0199497 0.749867 -0.00301197)
(0.0170333 0.78326 0.00837133)
(0.0299992 0.806337 0.0119469)
(0.0281434 0.814483 0.0129735)
(0.0253349 0.80774 0.0118096)
(0.0166786 0.819817 0.0101986)
(0.0146703 0.836034 0.00994865)
(0.010271 0.81302 0.0101149)
(0.00166961 0.809837 0.0101221)
(-0.00202953 0.806593 0.0102432)
(-0.00625143 0.804641 0.00989153)
(-0.00999097 0.804067 0.00998533)
(-0.0113161 0.799083 0.0101442)
(-0.00881953 0.78936 0.0117279)
(-0.0105282 0.78278 0.0121616)
(-0.0101291 0.773567 0.0132093)
(-0.00824104 0.756856 0.0137978)
(-0.00608463 0.760713 0.0140391)
(-0.00259884 0.750156 0.0136847)
(0.000109115 0.742783 0.0136033)
(0.00406941 0.738132 0.0132736)
(0.00694169 0.730705 0.0128402)
(0.00956865 0.720981 0.0122215)
(0.0119888 0.716991 0.0118793)
(0.013564 0.70938 0.0122206)
(0.0142249 0.700651 0.0134087)
(0.0136575 0.692218 0.0148634)
(0.0117557 0.682333 0.0160308)
(0.00806804 0.670518 0.0175892)
(0.00287126 0.647948 0.0187503)
(-0.00455997 0.625476 0.0180746)
(-0.0148387 0.609027 0.0155666)
(-0.0251803 0.55938 0.0127971)
(-0.0399945 0.53779 0.00536321)
(-0.0474664 0.481737 -0.00714031)
(0.000393469 -0.00346149 -0.000162741)
(0.0378118 0.0307804 0.00768408)
(0.00101166 0.00357083 0.00211372)
(0.00928812 0.024117 0.0107582)
(0.00243368 -0.00382523 0.0073685)
(0.0019871 0.00558926 0.0036742)
(0.00208389 -0.00757422 0.00191636)
(0.0027307 0.000595919 -0.00405346)
(0.00296032 -0.000975047 -0.00243405)
(-0.00102206 0.00130601 -0.0028916)
(-0.00430235 -0.00185579 -0.0024238)
(-0.00665524 -0.00237363 -0.00238253)
(-0.00663762 -0.00285768 -0.00180503)
(-0.0063531 -0.00207681 -0.000973306)
(-0.00638717 -0.0011878 -0.000272984)
(-0.00653065 -0.000151982 0.000180971)
(-0.00671665 0.000564934 0.000427661)
(-0.00685558 0.00121966 0.000570356)
(-0.0069832 0.00161457 0.000647827)
(-0.00705633 0.00194007 0.000687084)
(-0.00709276 0.00212165 0.000714101)
(-0.00708599 0.00227398 0.000739248)
(-0.00703952 0.00235193 0.000764397)
(-0.0069428 0.00240254 0.000805117)
(-0.00679991 0.00242941 0.000869164)
(-0.0066599 0.00245895 0.000942572)
(-0.00652541 0.00248051 0.00101898)
(-0.00640005 0.0024966 0.00110032)
(-0.00628366 0.00251004 0.00118823)
(-0.00617358 0.00252362 0.00127888)
(-0.00607234 0.00253756 0.00136908)
(-0.00597704 0.00254964 0.00145886)
(-0.0058946 0.00256394 0.00154745)
(-0.00581103 0.00257253 0.00163554)
(-0.00574505 0.00259032 0.00172132)
(-0.005676 0.00259069 0.00180677)
(-0.00563542 0.00263285 0.00188641)
(-0.00558006 0.00256858 0.001977)
(-0.00556643 0.00282834 0.0020302)
(-0.00548717 0.0024625 0.00216013)
(-0.00560525 0.00333641 0.00214425)
(-0.00541852 0.00245375 0.00234018)
(-0.00587507 0.00433232 0.00215893)
(-0.00547502 0.0029062 0.00239767)
(-0.00615321 0.00599354 0.00180015)
(-0.00537101 0.0033684 0.00196169)
(-0.00538198 0.00783106 0.000813272)
(-0.00442362 0.000443342 0.00109399)
(-0.00227988 0.00929705 0.00177878)
(-0.00387615 -0.00848382 0.0017568)
(-0.00338843 0.00902477 0.00447898)
(-0.00103476 -0.00684489 0.00625324)
(0.000257259 0.0134735 0.00611226)
(0.0222789 -0.0103834 0.011195)
(-0.0120775 0.0337206 0.0275864)
(-0.044799 -0.0607499 0.0507115)
(-0.0572991 -0.0429225 0.0590077)
(0.0638357 -0.127915 0.0646709)
(-0.0291135 -0.0381815 -0.175951)
(-0.0701943 0.0547909 -0.00134979)
(-0.162646 0.564459 -0.033563)
(-0.037724 0.617326 -0.00533251)
(-0.0227374 0.552053 0.0022051)
(0.00648586 0.623672 0.007245)
(0.01182 0.648677 0.00877721)
(0.0137944 0.433909 0.00870093)
(0.0109703 0.516825 0.00823116)
(0.00910411 0.552189 0.0086621)
(0.00423147 0.683662 0.00902556)