/*--------------------------------*- C++ -*----------------------------------*\
| =========                 |                                                 |
| \\      /  F ield         | OpenFOAM: The Open Source CFD Toolbox           |
|  \\    /   O peration     | Version:  2.3.0                                 |
|   \\  /    A nd           | Web:      www.OpenFOAM.org                      |
|    \\/     M anipulation  |                                                 |
\*---------------------------------------------------------------------------*/
FoamFile
{
    version     2.0;
    format      ascii;
    class       volVectorField;
    location    "13";
    object      U.airMean;
}
// * * * * * * * * * * * * * * * * * * * * * * * * * * * * * * * * * * * * * //

dimensions      [0 1 -1 0 0 0 0];

internalField   nonuniform List<vector> 
6144
(
(0.00679251 0.0202179 -0.000402099)
(0.00680941 0.00664126 -0.000535987)
(0.00403589 0.00458089 -0.00128064)
(0.00417264 0.00268342 -0.00152784)
(0.00327283 0.00144798 -0.00146761)
(0.00343044 0.0015653 -0.0015507)
(0.00318417 0.00112061 -0.00168637)
(0.00333007 0.0013868 -0.00176506)
(0.00325816 0.0012922 -0.00195387)
(0.00337996 0.00154033 -0.00202376)
(0.00337996 0.00154788 -0.00209265)
(0.00348982 0.00161414 -0.00208931)
(0.00351532 0.0014365 -0.00214059)
(0.0035816 0.00131875 -0.00216412)
(0.00359186 0.00109807 -0.00222996)
(0.00361924 0.000965391 -0.00226694)
(0.00362353 0.000802443 -0.00232057)
(0.00363288 0.000714362 -0.00235096)
(0.00363434 0.000615804 -0.00238553)
(0.00363799 0.000565326 -0.00240565)
(0.00363789 0.000512969 -0.00242568)
(0.00363919 0.000485598 -0.00243766)
(0.00363853 0.00045957 -0.00244827)
(0.00363832 0.000444722 -0.00245493)
(0.00363736 0.000432429 -0.00246006)
(0.00363629 0.000423571 -0.0024632)
(0.00363495 0.000418274 -0.00246524)
(0.00363329 0.000409091 -0.00246575)
(0.00363279 0.000412861 -0.00246554)
(0.00362915 0.000383178 -0.00246345)
(0.003631 0.000420861 -0.00246134)
(0.00362427 0.000323149 -0.00245645)
(0.00363146 0.000447454 -0.00245094)
(0.00361976 0.000200542 -0.00244248)
(0.00363546 0.000487155 -0.00243048)
(0.00361767 -2.29428e-05 -0.00241683)
(0.00364371 0.000513556 -0.00239614)
(0.00362087 -0.000388706 -0.00237937)
(0.00365221 0.000483845 -0.00235635)
(0.00363253 -0.000906777 -0.00235679)
(0.00364411 0.000418289 -0.00237172)
(0.00363289 -0.00142165 -0.00244045)
(0.00361932 0.000647927 -0.00255573)
(0.00362412 -0.00150406 -0.00269912)
(0.00361099 0.00168951 -0.00282416)
(0.00367364 -0.00105924 -0.00289391)
(0.00376429 0.00310223 -0.00314786)
(0.00323899 0.000126952 -0.0037368)
(0.00139312 0.0100462 -0.0045108)
(0.00211997 0.00976679 -0.00492236)
(0.00500624 0.0182046 -0.00525587)
(0.00980646 0.00702236 -0.00531669)
(0.0174074 0.00973687 -0.00688504)
(0.0210411 -0.0266765 -0.0071402)
(0.0221016 -0.0150983 -0.0102268)
(0.0218875 -0.0616994 -0.00701431)
(0.013548 -0.0153363 -0.0187944)
(0.0164712 -0.0767181 0.0171733)
(-0.0237769 0.0470318 -0.0469795)
(0.0276185 0.0957186 0.0403925)
(0.101997 0.330668 0.0404789)
(0.0469899 0.399144 -0.000533754)
(0.0499769 -0.0740197 0.0095881)
(0.0455237 -0.139361 0.00667527)
(0.0368722 -0.151431 0.00507072)
(0.0298044 -0.136838 0.00448555)
(0.0235488 -0.141604 0.00321207)
(0.0193714 -0.129359 0.00313023)
(0.016723 -0.130711 0.0038753)
(0.0144741 -0.120034 0.00485899)
(0.0120316 -0.119923 0.00564952)
(0.00920034 -0.11072 0.00599912)
(0.00602298 -0.104253 0.0062118)
(0.00169683 -0.0905089 0.00581726)
(-0.00361759 -0.0763277 0.00572536)
(-0.00596144 -0.0579796 0.00521424)
(-0.00455999 -0.0439819 0.00290295)
(-0.00396496 -0.0317219 0.00100407)
(-0.00344146 -0.0210594 0.000316411)
(0.000953721 -0.012659 -0.00111045)
(0.00539471 -0.00841243 -0.00152793)
(0.00735176 -0.00582571 -0.00163767)
(0.00853615 -0.00427443 -0.000834772)
(0.00867096 -0.00418227 -0.000929131)
(0.00804435 -0.00262358 -0.00202162)
(0.00745919 -0.000581674 -0.00195775)
(0.006714 0.00163093 -0.00217823)
(0.00555154 0.00485209 -0.00251119)
(0.0023684 0.00931252 -0.0031882)
(-0.000440486 0.019603 -0.00337559)
(0.00177924 0.0284304 -0.00288562)
(0.00327876 0.0348909 -0.00233084)
(0.00346773 0.0394363 0.00179787)
(0.00385428 0.0380472 0.00707475)
(0.00440875 0.0329884 0.0098769)
(0.00645405 0.0238383 0.0128541)
(0.0138364 0.021316 0.00300744)
(0.0148778 0.00979977 0.00294124)
(0.00862615 0.00699776 0.00136221)
(0.00941115 0.0053223 0.00110325)
(0.00673618 0.00345927 0.00113811)
(0.00726271 0.00369915 0.000945748)
(0.0064721 0.00275731 0.000923572)
(0.00682776 0.00302162 0.000814155)
(0.00658364 0.00257499 0.000616303)
(0.00686921 0.00273939 0.000526592)
(0.0068197 0.0025495 0.000410372)
(0.00712438 0.00254047 0.000460055)
(0.007158 0.00222159 0.000401634)
(0.00734032 0.00202195 0.000400812)
(0.00733337 0.00169792 0.000307421)
(0.00740203 0.00151081 0.000269183)
(0.00738345 0.00128485 0.000191595)
(0.00740166 0.00116395 0.000158331)
(0.00738721 0.00103003 0.000111548)
(0.00738852 0.000960174 9.13513e-05)
(0.00737851 0.000888121 6.85741e-05)
(0.0073748 0.000849398 5.97861e-05)
(0.00736748 0.000812172 5.21424e-05)
(0.00736205 0.000790486 5.09721e-05)
(0.0073558 0.000771837 5.18862e-05)
(0.00734995 0.000758554 5.59684e-05)
(0.00734413 0.000749178 6.1613e-05)
(0.00733807 0.000737198 6.94789e-05)
(0.00733423 0.00073693 7.89171e-05)
(0.00732528 0.00070535 9.02952e-05)
(0.00732816 0.000741206 0.000103524)
(0.007311 0.000633357 0.000118611)
(0.00732944 0.000767403 0.000138931)
(0.00729845 0.000486398 0.000158641)
(0.00734287 0.000809858 0.000191494)
(0.00729486 0.000218222 0.000218939)
(0.00737215 0.000840752 0.00026608)
(0.00730714 -0.000227707 0.000297574)
(0.0074115 0.000814849 0.000342088)
(0.0073317 -0.000882373 0.000332914)
(0.00739757 0.000739235 0.000288922)
(0.00727175 -0.00157377 0.000127068)
(0.0071939 0.000970445 -0.000135602)
(0.00698867 -0.00169391 -0.000490729)
(0.00687464 0.00235186 -0.000860976)
(0.00683492 -0.000643909 -0.00117977)
(0.0061497 0.00525025 -0.00176933)
(0.00358749 0.00375156 -0.00246714)
(0.00209159 0.0134696 -0.00227454)
(0.00624492 0.00643283 -0.00197526)
(0.0135366 0.0106063 -0.000902573)
(0.0201846 -0.0119187 -0.000190083)
(0.0369381 -0.0106877 0.00199403)
(0.0456174 -0.0501789 0.00610585)
(0.0422947 -0.0372209 0.00691968)
(0.0471488 -0.0964043 0.0110655)
(0.019638 -0.0523989 0.0072515)
(0.0122034 -0.160631 0.0374165)
(-0.0683468 0.0485429 -0.0924888)
(0.017957 0.044389 0.0229536)
(0.112354 0.350355 0.0835734)
(0.0243053 0.429562 0.00126442)
(0.0231566 -0.044048 0.00609238)
(0.0220426 -0.0127891 0.0106277)
(0.0118463 -0.0342857 0.0114085)
(0.00449561 -0.0160584 0.00827172)
(-0.00017473 -0.020899 0.00714456)
(0.000135763 -0.00640443 0.00909673)
(0.00146662 -0.00700894 0.0117236)
(0.00071948 0.00264324 0.00923822)
(-0.00176376 0.00123158 0.00941118)
(-0.00487897 0.00656496 0.0102868)
(-0.00764415 0.00483333 0.00854566)
(-0.00947704 0.00864952 0.00543964)
(-0.00978516 0.0085531 0.00361133)
(-0.00630135 0.012106 0.00240815)
(-0.00136185 0.0127569 0.000570932)
(0.00195467 0.0153596 0.00127066)
(0.00516703 0.0152748 0.00181739)
(0.00918833 0.015852 0.00279136)
(0.0119262 0.015457 0.00266082)
(0.0138659 0.0168356 0.00324056)
(0.0148026 0.0150062 0.00466578)
(0.0127082 0.0113819 0.00491265)
(0.00894109 0.00890371 0.00465136)
(0.00581776 0.00711139 0.00548426)
(0.0040699 0.00605834 0.00628174)
(0.00184082 0.00507987 0.00612275)
(0.000165633 0.00453997 0.0055142)
(-0.00179051 0.00445386 0.0035978)
(-0.0020498 0.00621145 0.00155613)
(0.000477378 0.0113213 -0.00234219)
(0.00284432 0.0211291 -0.000252871)
(0.00370102 0.0249759 0.00745706)
(0.00320742 0.0247505 0.012687)
(0.00579516 0.019611 0.0169185)
(0.0162313 0.0196725 0.00425781)
(0.0186282 0.0104833 0.0042747)
(0.00999881 0.00690548 0.00222759)
(0.0117332 0.00665699 0.0020904)
(0.00766044 0.00396433 0.00236559)
(0.00849175 0.00463406 0.00236219)
(0.00710818 0.00333053 0.00255544)
(0.00764583 0.00369209 0.00259389)
(0.00714887 0.00301418 0.00248814)
(0.00750308 0.00315744 0.00248391)
(0.00733551 0.00279842 0.00235537)
(0.00777016 0.00281651 0.00243081)
(0.00778383 0.00239178 0.00240616)
(0.0080356 0.00219325 0.00243902)
(0.00798548 0.00180664 0.00238352)
(0.0080648 0.00161981 0.00237646)
(0.00800543 0.0013678 0.00233193)
(0.00801633 0.00124917 0.00232519)
(0.00797386 0.00110579 0.0023048)
(0.00796223 0.00103846 0.00230673)
(0.00793332 0.000963787 0.00230445)
(0.00791643 0.000926306 0.00231387)
(0.00789473 0.000889204 0.00232277)
(0.0078769 0.000868584 0.00233701)
(0.0078584 0.000850588 0.0023521)
(0.00784116 0.000838671 0.00236952)
(0.00782428 0.000829622 0.00238767)
(0.00780779 0.000818681 0.00240702)
(0.00779334 0.000817916 0.00242717)
(0.00777567 0.000790467 0.0024479)
(0.00777045 0.000821832 0.0024696)
(0.0077435 0.000724537 0.00249149)
(0.00776065 0.000849009 0.00251667)
(0.00771706 0.000587272 0.00253932)
(0.0077737 0.000896633 0.00257163)
(0.00771003 0.000334388 0.00259553)
(0.00781983 0.000940254 0.00263639)
(0.00773634 -9.13795e-05 0.00265896)
(0.00789796 0.000942527 0.0026939)
(0.0077837 -0.000714857 0.00268245)
(0.00791199 0.000925296 0.00264068)
(0.00769468 -0.00139636 0.00248891)
(0.00757916 0.00119279 0.0022424)
(0.00718545 -0.00156512 0.00191241)
(0.0069879 0.00262459 0.0014922)
(0.00672526 -4.26048e-05 0.00100501)
(0.0056934 0.00660336 0.000321959)
(0.00412621 0.00353461 -0.000321195)
(0.00527617 0.00999338 -0.00052531)
(0.0136178 -0.00333932 -0.00045375)
(0.0256381 0.000433724 0.00131552)
(0.0390241 -0.0236264 0.00135174)
(0.0543434 -0.01801 0.00656944)
(0.0612597 -0.05136 0.0118617)
(0.0603902 -0.0304349 0.0182827)
(0.0692268 -0.0950243 0.022814)
(0.0314961 -0.0335074 0.0296051)
(0.0462807 -0.185272 0.0745488)
(-0.0751231 0.0810449 -0.0758147)
(0.0459306 0.0248161 0.000821766)
(0.155576 0.374033 0.10629)
(0.0670645 0.454647 0.0254978)
(0.0581892 -0.0228828 0.0221067)
(0.0422741 0.0502019 0.00812855)
(0.0247711 0.00497887 0.0132942)
(0.0152839 0.0280792 0.013241)
(0.008716 0.0144855 0.0162317)
(0.0040353 0.02573 0.0130594)
(0.00422839 0.0278639 0.0102974)
(0.00454546 0.0403258 0.00763583)
(0.00245098 0.0395102 0.00577038)
(-0.00147582 0.0460653 0.00561554)
(-0.00350495 0.0447762 0.00443767)
(-0.00458496 0.0474225 0.00361969)
(-0.00485667 0.0460947 0.00426444)
(-0.00175402 0.0455332 0.00492123)
(0.000932586 0.0420264 0.00431008)
(0.00281165 0.0394936 0.00444251)
(0.00460839 0.0348007 0.00472403)
(0.00677227 0.0308174 0.00503602)
(0.00941811 0.0278095 0.00515981)
(0.0109093 0.0263517 0.00572998)
(0.0120162 0.0227898 0.00871073)
(0.0100741 0.0179946 0.0109131)
(0.00497879 0.0130307 0.011244)
(0.000401555 0.00931928 0.0117226)
(-0.00203265 0.00791016 0.0112386)
(-0.00422436 0.00669403 0.0106848)
(-0.00599174 0.00529189 0.0100954)
(-0.00717194 0.00412332 0.00859387)
(-0.00738683 0.0035776 0.00735937)
(-0.00693666 0.00460312 0.00487476)
(-0.00487214 0.00930818 0.00487549)
(-0.00294729 0.013125 0.00824908)
(-0.00259559 0.0154695 0.0133262)
(-0.00297679 0.0138835 0.0177506)
(0.0166691 0.0184541 0.00473543)
(0.0212652 0.0112142 0.00469844)
(0.00994171 0.00624899 0.00167229)
(0.0136509 0.00802234 0.00141678)
(0.00794543 0.00387307 0.00175274)
(0.00925331 0.00549791 0.00186486)
(0.00701092 0.00329253 0.00251435)
(0.00770844 0.00417633 0.0027318)
(0.00685159 0.00318579 0.00289874)
(0.00731545 0.00358269 0.00300426)
(0.00693613 0.00304431 0.00294827)
(0.00744855 0.00317921 0.00310185)
(0.00739424 0.00264252 0.00315692)
(0.00767667 0.00249545 0.00323776)
(0.0075627 0.00203038 0.00322261)
(0.00763751 0.00186568 0.00323946)
(0.00753178 0.00156965 0.00322059)
(0.00753077 0.00145957 0.00323058)
(0.00745813 0.00129607 0.00322717)
(0.00743334 0.00123181 0.00324169)
(0.00738484 0.00114887 0.00325082)
(0.00735595 0.00111168 0.00326924)
(0.00732072 0.00107141 0.00328556)
(0.0072923 0.00105042 0.00330617)
(0.00726345 0.00103093 0.00332613)
(0.00723681 0.00101881 0.00334727)
(0.00721134 0.00100886 0.00336858)
(0.00718681 0.000998983 0.00339002)
(0.00716445 0.000996103 0.00341123)
(0.00714107 0.000972879 0.00343206)
(0.00712991 0.000998526 0.00345246)
(0.00709809 0.000913339 0.00347257)
(0.00711424 0.00102636 0.00349376)
(0.00706521 0.000786487 0.00351287)
(0.00713258 0.00108028 0.00353696)
(0.00705978 0.000549799 0.00355496)
(0.00719876 0.00114497 0.00358348)
(0.0070983 0.000159318 0.00359731)
(0.00730798 0.00121423 0.00361663)
(0.00716636 -0.000374978 0.00360141)
(0.00736785 0.00134645 0.00355108)
(0.00708105 -0.000958928 0.00342355)
(0.00700873 0.00166654 0.00321028)
(0.00633222 -0.00140613 0.00297417)
(0.00571815 0.00260875 0.00277201)
(0.00504662 -0.000571878 0.00261303)
(0.00472127 0.00539381 0.00231206)
(0.00448155 0.00050353 0.00193115)
(0.00990765 0.00427731 0.00208614)
(0.0198834 -0.0104384 0.00198101)
(0.0333319 -0.00705272 0.00477425)
(0.0496613 -0.0252281 0.0074366)
(0.0609066 -0.010343 0.0189633)
(0.0650543 -0.0357757 0.0294854)
(0.0619679 0.00125589 0.0454279)
(0.0687832 -0.072377 0.0499877)
(0.03543 0.0410968 0.0867714)
(0.0706728 -0.210507 0.124978)
(-0.100729 0.212591 -0.0541504)
(0.0452366 -0.0397191 0.0299061)
(0.130981 0.45029 0.113329)
(0.0415004 0.566506 0.0178166)
(0.0249328 0.377554 0.014303)
(0.00331406 0.424542 0.00189013)
(0.00168631 0.36824 0.0121315)
(-0.00803449 0.350815 0.00638633)
(-0.00859925 0.311685 0.00638651)
(-0.010103 0.284592 0.00503955)
(-0.00842855 0.26245 0.00376507)
(-0.0072783 0.252698 0.00324097)
(-0.00713053 0.233383 0.0031154)
(-0.00752148 0.22836 0.00215466)
(-0.00655002 0.216452 0.00212669)
(-0.00505253 0.207792 0.00221078)
(-0.00202297 0.197202 0.00233773)
(0.000893145 0.186001 0.00174842)
(0.00371486 0.172532 0.00126444)
(0.00589984 0.149899 0.002311)
(0.00771084 0.11528 0.00342209)
(0.00862816 0.0774051 0.00413843)
(0.00855979 0.0559112 0.00440354)
(0.00839247 0.0466289 0.00583181)
(0.00893021 0.0397182 0.00948359)
(0.00653408 0.0333365 0.0108241)
(-0.000210339 0.0283776 0.0110998)
(-0.00744264 0.0228063 0.0123823)
(-0.0110777 0.0202776 0.0116055)
(-0.0129719 0.0176746 0.0102906)
(-0.0137865 0.0148787 0.00902328)
(-0.0135216 0.0125452 0.00774075)
(-0.0132016 0.0108446 0.00627551)
(-0.0131103 0.00993593 0.00467559)
(-0.0120283 0.0116858 0.00596461)
(-0.0107462 0.0126413 0.00974652)
(-0.0127933 0.0134453 0.0129973)
(-0.0151585 0.0131342 0.0166059)
(0.0156789 0.0177739 0.0053571)
(0.0231443 0.0128403 0.00554616)
(0.00954593 0.00561973 0.00100782)
(0.0154139 0.00980739 0.000957658)
(0.00862728 0.00347824 0.000453036)
(0.0105219 0.00632897 0.000554375)
(0.00692847 0.00273752 0.00145177)
(0.00744933 0.00413491 0.0019124)
(0.00583181 0.00252043 0.00239165)
(0.00625153 0.00328715 0.00274428)
(0.00562842 0.00266415 0.00290916)
(0.00616249 0.00313875 0.00326872)
(0.00597623 0.00260148 0.00345299)
(0.00622913 0.00259514 0.00363133)
(0.00600313 0.00210318 0.00365628)
(0.0060328 0.00200656 0.0037058)
(0.00585352 0.00168838 0.00369708)
(0.00581521 0.00160745 0.00371748)
(0.00569804 0.00142984 0.00371799)
(0.00564616 0.00137656 0.00373629)
(0.0055718 0.00128784 0.0037463)
(0.0055242 0.00125394 0.00376553)
(0.00547253 0.00121173 0.00378076)
(0.0054305 0.0011911 0.00379961)
(0.00539029 0.00117101 0.0038169)
(0.00535411 0.00115858 0.00383517)
(0.00532013 0.00114832 0.00385229)
(0.00528878 0.00113945 0.00386879)
(0.00526013 0.00113505 0.00388452)
(0.00523252 0.00111621 0.00389798)
(0.00521697 0.00113703 0.00390956)
(0.00518559 0.00106448 0.00391927)
(0.0052001 0.00116497 0.00392914)
(0.00515382 0.000950437 0.00393358)
(0.00522859 0.00122548 0.00394331)
(0.00516129 0.000737687 0.00394249)
(0.00532417 0.0013166 0.00395265)
(0.00522012 0.000406937 0.0039383)
(0.0054718 0.00147769 0.00393392)
(0.00531278 1.53003e-05 0.00388832)
(0.00560083 0.00181344 0.00383205)
(0.00532784 -0.00034518 0.00372421)
(0.00546183 0.00229152 0.00356439)
(0.00478387 -0.00104273 0.00335713)
(0.00415238 0.00248045 0.00320854)
(0.00314199 -0.00173873 0.00323621)
(0.00285674 0.00312715 0.00336085)
(0.00418764 -0.00282396 0.00362457)
(0.0118788 -0.00110042 0.00365271)
(0.0231587 -0.012817 0.00469614)
(0.0377085 -0.00558609 0.00853957)
(0.0523558 -0.0136034 0.0136814)
(0.0589075 0.00751636 0.0255668)
(0.0569987 -0.0143154 0.0359456)
(0.0496264 0.0257908 0.0598179)
(0.0467016 -0.0363933 0.0664824)
(0.0423061 0.0965797 0.106104)
(0.0617458 -0.142419 0.123439)
(-0.0538123 0.350669 -0.00659161)
(0.0378438 -0.0802002 0.0381329)
(0.110909 0.490633 0.127685)
(0.032194 0.602006 0.0218289)
(0.0228854 0.5241 0.0180589)
(0.00769828 0.584531 0.00202538)
(0.00895133 0.570984 0.00770814)
(-0.000327535 0.59045 0.00665211)
(-0.000303512 0.583962 0.0063632)
(-0.00207856 0.589669 0.00426589)
(-0.000527934 0.579578 0.00244987)
(0.00061155 0.573104 0.00138895)
(0.00216153 0.555867 0.000881464)
(0.00272979 0.544584 0.000231563)
(0.00477225 0.530941 0.000257393)
(0.00653432 0.514911 -6.02409e-05)
(0.0093168 0.492623 0.00012609)
(0.0107443 0.459249 0.000341524)
(0.012869 0.430454 0.00155697)
(0.0134808 0.399252 0.00317433)
(0.0134539 0.365034 0.0054637)
(0.0124307 0.335239 0.00699188)
(0.0104392 0.315236 0.00836629)
(0.00779985 0.278527 0.0100842)
(0.00621404 0.216896 0.0103674)
(0.00147541 0.157624 0.00904294)
(-0.00348248 0.109026 0.00733123)
(-0.00969663 0.0932907 0.00472075)
(-0.0125755 0.0823725 0.00384076)
(-0.0132961 0.0747221 0.00261494)
(-0.0142207 0.0612713 0.0020886)
(-0.0148237 0.0431967 0.00238951)
(-0.0153274 0.0267678 0.0025508)
(-0.0160408 0.020196 0.00298786)
(-0.0165503 0.018489 0.00557151)
(-0.0164953 0.0159888 0.00908387)
(-0.0201549 0.0157932 0.0123167)
(-0.0276525 0.0130892 0.0146882)
(0.0133106 0.0169 0.00552904)
(0.0241787 0.0154967 0.00677354)
(0.00863141 0.00489287 0.00102913)
(0.0162555 0.0115634 0.00177607)
(0.00952478 0.00256011 5.47974e-05)
(0.0118447 0.00701441 -0.000229234)
(0.00769292 0.00209127 0.000260604)
(0.00757898 0.00422924 0.000851836)
(0.00524214 0.00160012 0.00150021)
(0.00515 0.00259891 0.00204548)
(0.0040349 0.00171564 0.002466)
(0.00449055 0.00255858 0.00313665)
(0.00428976 0.00210081 0.00356846)
(0.00455807 0.00237985 0.00391454)
(0.00427017 0.00193149 0.0040345)
(0.00426905 0.00198262 0.00414603)
(0.00404871 0.00168261 0.00416956)
(0.00399308 0.00167127 0.00420787)
(0.00385909 0.00150113 0.00421524)
(0.00380121 0.00148167 0.0042329)
(0.00372579 0.00140023 0.00423719)
(0.00368117 0.00138111 0.0042471)
(0.00363555 0.00134456 0.00424947)
(0.00360053 0.00133032 0.00425386)
(0.00356899 0.00131414 0.00425531)
(0.0035416 0.0013053 0.00425664)
(0.00351725 0.0012984 0.0042567)
(0.00349639 0.0012933 0.0042564)
(0.00347782 0.00129229 0.0042546)
(0.00346185 0.0012815 0.00425208)
(0.003457 0.00130258 0.0042494)
(0.00344246 0.00124763 0.00424347)
(0.00346962 0.00134207 0.00424224)
(0.00344721 0.0011633 0.0042336)
(0.00353748 0.00142967 0.00423175)
(0.00350031 0.00100813 0.00421864)
(0.00367759 0.00158382 0.00421468)
(0.00359408 0.000784919 0.00418342)
(0.00384724 0.00187108 0.00415023)
(0.00367319 0.000567898 0.00406286)
(0.00394341 0.00239596 0.00394892)
(0.00366895 0.000371606 0.00378065)
(0.00400239 0.00291878 0.00362412)
(0.00348221 -0.00067471 0.0034517)
(0.0029906 0.00225256 0.00334713)
(0.00182932 -0.00281283 0.00344166)
(0.00183296 0.00147578 0.00379109)
(0.00392521 -0.00606009 0.00444681)
(0.0122269 -0.0035272 0.00503435)
(0.0213621 -0.0104153 0.00862816)
(0.0346704 0.00275672 0.0153302)
(0.044657 0.00377989 0.0211867)
(0.052063 0.0276763 0.0333031)
(0.0528115 0.00859401 0.0447316)
(0.0402123 0.0376458 0.0634273)
(0.0331847 -0.0315584 0.0681847)
(0.0367844 0.0713252 0.0888278)
(0.0402326 -0.127123 0.0809137)
(0.0296144 0.347765 0.0564829)
(0.0256815 -0.0768938 0.0381175)
(0.0540827 0.516503 0.124718)
(0.00712912 0.623859 0.0132575)
(0.00281984 0.575194 0.0126112)
(-0.0091138 0.637135 -0.000226037)
(-0.00685101 0.633591 0.00694485)
(-0.00833617 0.653648 0.0054824)
(-0.00423508 0.649365 0.00644538)
(-0.00108484 0.656558 0.00530771)
(0.00291391 0.650732 0.00462713)
(0.00669953 0.648107 0.00386217)
(0.00968366 0.630113 0.00317662)
(0.0113942 0.619704 0.00263591)
(0.0137119 0.614025 0.00238569)
(0.0146562 0.610033 0.00278813)
(0.0162609 0.601805 0.00388651)
(0.0169265 0.599978 0.00504252)
(0.0177818 0.592497 0.00639294)
(0.0175747 0.585045 0.00800277)
(0.0163425 0.57407 0.00976278)
(0.0138747 0.559021 0.0100321)
(0.010233 0.546978 0.00846318)
(0.00559512 0.529306 0.00623323)
(0.00149064 0.507448 0.0036335)
(-0.00317566 0.47749 -0.000259118)
(-0.00745339 0.435512 -0.0020148)
(-0.0101961 0.38611 -0.00276645)
(-0.0108783 0.322859 -0.0019414)
(-0.0109325 0.248612 -0.00120424)
(-0.0119586 0.188695 0.000179372)
(-0.0140174 0.15004 0.00182616)
(-0.0162396 0.115124 0.00383197)
(-0.0182263 0.0929026 0.00632739)
(-0.0207183 0.0722871 0.0100568)
(-0.0228218 0.0441071 0.0125408)
(-0.0281326 0.0188381 0.0131274)
(-0.0335943 0.0132476 0.0113659)
(0.00871798 0.0151333 0.00560295)
(0.0241592 0.0191227 0.00816431)
(0.00551877 0.00356771 0.0021132)
(0.015041 0.0133147 0.00387762)
(0.00835404 0.00141818 0.00148719)
(0.0114979 0.00724099 0.000613101)
(0.00743204 0.00142192 0.000358632)
(0.00723852 0.00434411 0.000789966)
(0.00426879 0.000900075 0.0013579)
(0.00353131 0.00203851 0.00190816)
(0.00172714 0.000743994 0.00224714)
(0.0018682 0.00180189 0.00298665)
(0.00132905 0.00136269 0.00351894)
(0.00152568 0.00194723 0.00398442)
(0.0010642 0.00156181 0.0041572)
(0.000991944 0.0018062 0.00431142)
(0.000662673 0.00156043 0.0043467)
(0.00055715 0.00166177 0.00439678)
(0.000358894 0.00152715 0.00439815)
(0.000269063 0.00156761 0.00441358)
(0.000167218 0.00150841 0.00440968)
(0.000109349 0.00151899 0.00441327)
(5.77722e-05 0.00149656 0.00440777)
(2.40597e-05 0.0014959 0.0044057)
(-1.78556e-06 0.00148898 0.00440012)
(-1.91547e-05 0.00148791 0.00439494)
(-3.08415e-05 0.00148687 0.00438853)
(-3.67551e-05 0.00148702 0.00438265)
(-3.83805e-05 0.00149032 0.00437731)
(-3.45343e-05 0.00148592 0.00437315)
(-2.3304e-05 0.00150874 0.00437093)
(-1.47749e-05 0.00147102 0.00436788)
(2.43544e-05 0.001563 0.00437098)
(2.06377e-05 0.00142172 0.00436895)
(0.000118363 0.00168125 0.00438193)
(9.51949e-05 0.00132281 0.00438368)
(0.000277635 0.00189078 0.00440785)
(0.000205127 0.00118153 0.00439689)
(0.000474352 0.00224717 0.00439337)
(0.000320873 0.0010204 0.00429216)
(0.000701249 0.00275541 0.00416994)
(0.000573268 0.000679633 0.00390949)
(0.00129238 0.00303945 0.00378048)
(0.00110555 -0.000698986 0.00361822)
(0.000929165 0.0018243 0.00365971)
(-0.000433635 -0.00342005 0.00373637)
(-0.000373675 0.00079963 0.00412698)
(0.0018804 -0.00737247 0.00520263)
(0.00682164 -0.00373055 0.00657113)
(0.0136178 -0.00648853 0.01094)
(0.020792 0.0141228 0.0182117)
(0.0279063 0.0228204 0.0234807)
(0.0353037 0.050996 0.0345961)
(0.035936 0.0397134 0.0463806)
(0.0344942 0.0714094 0.0624262)
(0.0266205 -0.0107633 0.0632156)
(0.0270877 0.0829289 0.0691499)
(0.0214742 -0.124288 0.0525648)
(0.0137586 0.327071 0.0624509)
(0.00999469 -0.0667271 0.0417239)
(0.00824087 0.531338 0.108094)
(-0.0160739 0.63139 0.00982319)
(-0.0168836 0.595638 0.00518349)
(-0.0185295 0.657545 -0.00207212)
(-0.0116074 0.645334 0.00806234)
(-0.00639385 0.664244 0.0077495)
(-0.000634096 0.659251 0.0101082)
(0.00459212 0.662963 0.00896316)
(0.00922252 0.654376 0.00894971)
(0.0128405 0.648208 0.00823833)
(0.0161666 0.639392 0.00823527)
(0.0180672 0.622905 0.00795429)
(0.0201747 0.619962 0.00885369)
(0.0211574 0.615446 0.00915969)
(0.0222764 0.610775 0.0104817)
(0.0223172 0.598771 0.0111926)
(0.0220995 0.584066 0.0123062)
(0.0209118 0.570142 0.0126247)
(0.0195987 0.567444 0.0128276)
(0.0175417 0.566579 0.0122272)
(0.0153148 0.565159 0.00981147)
(0.0119401 0.568159 0.00569067)
(0.0086947 0.585865 -0.000249279)
(0.00448965 0.588362 -0.00642214)
(-9.82446e-05 0.584315 -0.0107261)
(-0.00441703 0.578311 -0.0135887)
(-0.00789935 0.568636 -0.0136999)
(-0.011078 0.540316 -0.0122025)
(-0.0136213 0.492016 -0.00949073)
(-0.0171022 0.472005 -0.00556231)
(-0.0202482 0.45837 -0.00193433)
(-0.0226414 0.441812 0.00228052)
(-0.0248353 0.412016 0.00577131)
(-0.0288604 0.349638 0.00907617)
(-0.0364592 0.228751 0.0106629)
(-0.0461725 0.137441 0.00800488)
(0.00164455 0.00904361 0.00416003)
(0.022742 0.0230064 0.00848385)
(0.00125795 0.00208222 0.00274017)
(0.0118783 0.0160076 0.00566499)
(0.00568856 0.000718972 0.00345108)
(0.00940064 0.00783124 0.00245858)
(0.00564695 0.000672314 0.00181477)
(0.00613309 0.00439656 0.00161308)
(0.00318219 0.000413671 0.0020827)
(0.00185725 0.0017124 0.00259312)
(-0.00044074 -0.00010256 0.00294815)
(-0.000352207 0.00105888 0.00364472)
(-0.000943313 0.00040409 0.00421043)
(-0.000621856 0.00122755 0.00478614)
(-0.00109168 0.000925046 0.00504762)
(-0.00112926 0.00142383 0.00527238)
(-0.00146826 0.00128641 0.00534708)
(-0.00153515 0.00155565 0.00543871)
(-0.00171471 0.00149886 0.00547166)
(-0.00176312 0.00163291 0.00552271)
(-0.00183212 0.00162311 0.0055496)
(-0.00185022 0.00168499 0.005587)
(-0.0018654 0.00169608 0.0056139)
(-0.00186062 0.00172407 0.00564709)
(-0.00184916 0.00173884 0.0056773)
(-0.00182888 0.00175471 0.00570931)
(-0.00180292 0.00176643 0.00574128)
(-0.00177182 0.00177627 0.00577463)
(-0.00173811 0.00178692 0.00580872)
(-0.0016987 0.00179164 0.00584541)
(-0.00165347 0.00181734 0.00588357)
(-0.00160866 0.00179567 0.00592349)
(-0.00153361 0.00188323 0.00597123)
(-0.00149401 0.00177582 0.00601721)
(-0.00135118 0.00202743 0.00608041)
(-0.00132558 0.00174391 0.00613056)
(-0.00109113 0.00232243 0.00619583)
(-0.00112113 0.00174361 0.00620927)
(-0.000790956 0.00282081 0.0062086)
(-0.000891495 0.00172857 0.0060762)
(-0.000417339 0.00337664 0.0058781)
(-0.000507022 0.00127023 0.00548635)
(0.000288029 0.00329825 0.00521315)
(0.000180991 -0.000586661 0.00502141)
(-0.00028378 0.00156104 0.00513056)
(-0.00224954 -0.00435468 0.00534391)
(-0.00199681 -0.00180596 0.00547205)
(0.000891378 -0.0109425 0.00642146)
(0.00326699 -0.00450516 0.00791979)
(0.000717396 -0.00218581 0.0153938)
(0.00146287 0.0267206 0.0225999)
(0.00643127 0.0429828 0.0268843)
(0.0156122 0.076613 0.035645)
(0.0246645 0.0779191 0.0460088)
(0.0361619 0.104071 0.0638593)
(0.0408034 0.061333 0.0723538)
(0.0582315 0.128053 0.0932621)
(0.0348932 -0.0914711 0.0754367)
(0.0360559 0.329162 0.0274561)
(-0.0152502 -0.0581574 0.0302731)
(-0.0584961 0.568111 0.0657824)
(-0.042722 0.666391 -0.00726128)
(-0.0399765 0.613594 0.000867379)
(-0.0292517 0.663065 -0.00334928)
(-0.019097 0.645525 0.00717358)
(-0.00690527 0.658518 0.00782641)
(-0.00153591 0.649925 0.0113982)
(0.00661394 0.648 0.0127864)
(0.0120362 0.647092 0.0145289)
(0.0176329 0.64465 0.0152329)
(0.021253 0.639821 0.0155833)
(0.0243689 0.638229 0.0150499)
(0.0266846 0.632004 0.0153997)
(0.0286482 0.618889 0.0160866)
(0.0305621 0.603547 0.017191)
(0.0318432 0.594979 0.0180507)
(0.0320753 0.581357 0.0192958)
(0.0311455 0.56497 0.0198391)
(0.0293379 0.546732 0.0197485)
(0.0272172 0.531148 0.0185905)
(0.0244227 0.526471 0.0156831)
(0.0207925 0.52248 0.0111605)
(0.0171022 0.520829 0.00666879)
(0.013358 0.52028 0.00273757)
(0.00987512 0.52072 0.00025853)
(0.00482546 0.519261 -0.00211113)
(0.000119528 0.516471 -0.00316584)
(-0.00453626 0.510415 -0.0025494)
(-0.00877942 0.499314 -9.12059e-05)
(-0.0122709 0.48415 0.0035089)
(-0.0163859 0.461794 0.0067272)
(-0.0205927 0.450849 0.00865037)
(-0.0270643 0.451009 0.00626852)
(-0.0368734 0.458129 -0.00155829)
(-0.0486348 0.448941 -0.0164314)
(-0.0559533 0.424881 -0.0360412)
(-0.0073878 0.00514188 -0.00436754)
(0.0205621 0.0270112 0.00551611)
(-0.00448586 0.00204468 -0.000767234)
(0.00728385 0.0197461 0.00335888)
(0.00159243 0.00125576 0.00210643)
(0.00564308 0.00956106 0.00120585)
(0.00245594 0.00057947 0.000585323)
(0.00375112 0.00509172 -0.00026923)
(0.00115697 0.000375995 -0.000100743)
(-0.000497179 0.0017873 -0.000139824)
(-0.00348978 -0.000567219 1.79779e-05)
(-0.00369102 0.000693831 0.000573557)
(-0.00466204 -0.00011142 0.00110328)
(-0.004628 0.000875656 0.00168117)
(-0.00526214 0.000650552 0.00201296)
(-0.00536482 0.00131321 0.00227812)
(-0.00575555 0.00124325 0.00240358)
(-0.0058512 0.00160284 0.00252479)
(-0.00605763 0.00158076 0.00259003)
(-0.00612584 0.00175246 0.00266288)
(-0.00621343 0.00175824 0.00271444)
(-0.00624885 0.00183394 0.00277294)
(-0.00627641 0.00185331 0.00282214)
(-0.00628435 0.00188581 0.00287668)
(-0.00628189 0.00190327 0.00292956)
(-0.00626864 0.00192099 0.00298453)
(-0.00624855 0.00193564 0.00303971)
(-0.00622373 0.00194939 0.00309518)
(-0.00619708 0.00196449 0.00314994)
(-0.00616537 0.00197387 0.00320494)
(-0.00613355 0.00199897 0.00325893)
(-0.00609926 0.00198656 0.00331495)
(-0.00604917 0.00206736 0.00337192)
(-0.00603398 0.0019853 0.00343101)
(-0.00594974 0.00222806 0.00349139)
(-0.00599052 0.00200802 0.00355109)
(-0.00584148 0.00259826 0.00359389)
(-0.00592019 0.00214303 0.00361226)
(-0.00563704 0.00326185 0.00356314)
(-0.00569006 0.00235075 0.00342074)
(-0.00506686 0.00400076 0.00315224)
(-0.0047884 0.0020121 0.00280967)
(-0.00355087 0.00366475 0.00263809)
(-0.00330762 -0.000481734 0.00279968)
(-0.00302196 0.000675744 0.00283506)
(-0.0035908 -0.00576507 0.00259197)
(-0.0021645 -0.00327607 0.00277325)
(-0.00236109 -0.00755622 0.00133626)
(-0.0093618 0.00923903 0.00273362)
(-0.0197031 0.0142635 0.0126029)
(-0.0272492 0.034714 0.0221786)
(-0.0241176 0.0414012 0.0285989)
(-0.0144432 0.0685516 0.0301893)
(-0.00120973 0.0652129 0.030675)
(0.00657708 0.107849 0.0440137)
(0.0229147 0.0568037 0.0476187)
(0.0612386 0.138613 0.0695135)
(0.0531613 -0.0460588 0.0813042)
(0.0860641 0.348756 0.028036)
(-0.0398812 -0.0851223 0.0200419)
(-0.110363 0.537947 0.0497818)
(-0.0515503 0.656725 -0.00149401)
(-0.0459273 0.590118 0.0056591)
(-0.0223472 0.640672 0.00393698)
(-0.0149836 0.602741 0.0121172)
(-0.00464938 0.614842 0.0106251)
(-0.00208089 0.599551 0.0125685)
(0.00418703 0.60275 0.0125824)
(0.00604255 0.596057 0.0121689)
(0.00914433 0.59521 0.0108388)
(0.0104765 0.590526 0.00986658)
(0.0128414 0.593978 0.00881184)
(0.0154637 0.596115 0.00839523)
(0.0206077 0.603843 0.00906483)
(0.0245779 0.605605 0.00879458)
(0.0284072 0.606824 0.00806279)
(0.0299129 0.602479 0.00662452)
(0.0307816 0.601811 0.00605835)
(0.0310118 0.596158 0.00627609)
(0.0303791 0.589877 0.00553872)