/*--------------------------------*- C++ -*----------------------------------*\
| =========                 |                                                 |
| \\      /  F ield         | OpenFOAM: The Open Source CFD Toolbox           |
|  \\    /   O peration     | Version:  2.3.0                                 |
|   \\  /    A nd           | Web:      www.OpenFOAM.org                      |
|    \\/     M anipulation  |                                                 |
\*---------------------------------------------------------------------------*/
FoamFile
{
    version     2.0;
    format      ascii;
    class       volVectorField;
    location    "13";
    object      U.airMean;
}
// * * * * * * * * * * * * * * * * * * * * * * * * * * * * * * * * * * * * * //

dimensions      [0 1 -1 0 0 0 0];

internalField   nonuniform List<vector> 
6144
(
(0.00679034 0.0205159 -0.000470579)
(0.00673172 0.00709328 -0.000647843)
(0.00417551 0.00506707 -0.00155752)
(0.00425577 0.00309343 -0.00177787)
(0.00342724 0.00196743 -0.00178835)
(0.00357035 0.00197272 -0.00185142)
(0.00333104 0.0015527 -0.00197958)
(0.00347334 0.00174889 -0.00204001)
(0.0033907 0.00162718 -0.00216487)
(0.00351385 0.00179302 -0.00220854)
(0.00350593 0.00171226 -0.0022715)
(0.00360826 0.00170802 -0.00227932)
(0.00361361 0.00149986 -0.0023367)
(0.00367197 0.00137663 -0.00236256)
(0.00367037 0.00116063 -0.00242265)
(0.00369447 0.00103816 -0.00245315)
(0.00369258 0.000881743 -0.00249947)
(0.00369954 0.000797964 -0.00252378)
(0.00369845 0.00070123 -0.0025534)
(0.0036998 0.000650511 -0.0025701)
(0.00369861 0.000596835 -0.00258771)
(0.00369833 0.000567345 -0.00259834)
(0.00369717 0.000539273 -0.00260825)
(0.00369618 0.000522311 -0.00261483)
(0.00369491 0.000508157 -0.00262028)
(0.00369361 0.000498724 -0.00262414)
(0.00369212 0.000491562 -0.00262713)
(0.00369053 0.000486531 -0.0026293)
(0.00368882 0.000483033 -0.00263085)
(0.00368698 0.000479918 -0.0026318)
(0.00368539 0.000480744 -0.00263235)
(0.00368241 0.000471867 -0.0026319)
(0.00368252 0.000487734 -0.00263135)
(0.0036754 0.000447469 -0.00262983)
(0.00368138 0.000517786 -0.00262712)
(0.00366729 0.000383975 -0.00262551)
(0.00368111 0.000590119 -0.00261926)
(0.00366106 0.000247109 -0.00261905)
(0.00367781 0.00073093 -0.00260536)
(0.00365805 -5.30493e-06 -0.00260872)
(0.00367446 0.000965044 -0.00257936)
(0.00365603 -0.000424642 -0.00258797)
(0.0036683 0.00129492 -0.00253134)
(0.00365771 -0.00106414 -0.0025478)
(0.00364652 0.00170955 -0.00247116)
(0.00364454 -0.00198195 -0.00246644)
(0.0036006 0.00236253 -0.00243404)
(0.00356747 -0.00319364 -0.00237294)
(0.00354576 0.00376375 -0.00259448)
(0.00339911 -0.00452198 -0.0024807)
(0.00379564 0.00715518 -0.00309892)
(0.00277356 -0.00693716 -0.00277956)
(0.00329581 0.0155456 -0.00383546)
(0.00367064 -0.00830384 -0.00503541)
(0.00653721 0.037664 -0.00586379)
(0.0040657 -0.0304727 -0.00962957)
(0.0124494 0.0612019 -0.00420212)
(0.0145214 -0.0597964 -0.0219367)
(-0.037783 0.115666 -0.085294)
(0.0357978 0.0290182 -0.105053)
(0.0790201 0.342039 -0.00235614)
(0.0419094 0.387973 -0.00174195)
(0.0197544 -0.0315869 3.87957e-05)
(0.0297685 -0.0832046 -6.24369e-06)
(0.0247122 -0.104316 0.000390019)
(0.015238 -0.096078 0.00288709)
(0.00995079 -0.10775 0.00368759)
(0.00606795 -0.100695 0.0034147)
(0.00358205 -0.103722 0.00273519)
(0.00162485 -0.0952628 0.00191124)
(0.000294347 -0.0942252 0.00106753)
(-0.000454352 -0.0856807 0.000297023)
(-0.000583831 -0.0823176 -0.0004338)
(-0.000389821 -0.0751014 -0.00109232)
(-3.80771e-05 -0.071123 -0.00168677)
(0.000343243 -0.0652178 -0.00220976)
(0.000723421 -0.0612892 -0.00267825)
(0.00110068 -0.0566149 -0.00307083)
(0.00147165 -0.052628 -0.0033676)
(0.00179732 -0.0490098 -0.00355811)
(0.00204582 -0.045164 -0.003654)
(0.0021855 -0.0409877 -0.00370875)
(0.00211698 -0.0365087 -0.00376714)
(0.00187938 -0.03114 -0.00375901)
(0.00142693 -0.0254675 -0.00379186)
(0.00105599 -0.0191531 -0.00373281)
(0.000647816 -0.0124758 -0.00385878)
(0.000575379 -0.00518693 -0.0038772)
(0.000516081 0.00196621 -0.00414206)
(0.00102418 0.00916506 -0.00401583)
(0.00271498 0.013499 -0.003841)
(0.00439943 0.0153042 -0.00490606)
(0.00535103 0.0158591 -0.00549888)
(0.00597205 0.0159778 -0.00516424)
(0.00671493 0.0163307 -0.00461421)
(0.0070655 0.0150942 -0.00372657)
(0.0137883 0.0217356 0.00307168)
(0.014738 0.0101892 0.00291945)
(0.00896741 0.00747857 0.00118094)
(0.00955741 0.00569715 0.000950015)
(0.00716802 0.00401771 0.000795601)
(0.00761113 0.00402325 0.000656256)
(0.00686966 0.00315125 0.000552986)
(0.00720649 0.00328829 0.0004772)
(0.00693715 0.00284987 0.000286035)
(0.00723558 0.00294903 0.00024057)
(0.00716281 0.00268364 0.000139616)
(0.0074514 0.00261126 0.000184071)
(0.00743324 0.00226377 0.000108379)
(0.0075946 0.00206878 0.000102219)
(0.0075581 0.00175461 1.15892e-05)
(0.00761932 0.00158388 -1.81613e-05)
(0.00758695 0.00136659 -8.86006e-05)
(0.0076011 0.00125281 -0.000114524)
(0.00758003 0.001121 -0.000156917)
(0.00757784 0.00105136 -0.000173758)
(0.00756427 0.000977942 -0.000195302)
(0.00755801 0.000936393 -0.000203622)
(0.00754869 0.00089691 -0.000211987)
(0.00754169 0.000872355 -0.00021435)
(0.00753418 0.000851625 -0.000215236)
(0.00752739 0.000837318 -0.000213415)
(0.0075205 0.000826124 -0.00021029)
(0.00751374 0.000818053 -0.000205854)
(0.00750705 0.000812155 -0.000200465)
(0.00750027 0.000806756 -0.00019415)
(0.00749401 0.000804462 -0.000186931)
(0.00748586 0.000795346 -0.000178398)
(0.00748241 0.000806799 -0.000169033)
(0.00746773 0.000768289 -0.000159007)
(0.00747417 0.000835503 -0.000145658)
(0.00744687 0.000693548 -0.000135789)
(0.00746925 0.000915035 -0.000115273)
(0.00742564 0.000527933 -0.000107592)
(0.00746362 0.00107519 -7.55132e-05)
(0.00740628 0.000225702 -7.08587e-05)
(0.00745717 0.00134368 -1.60378e-05)
(0.00738821 -0.000276632 -1.40919e-05)
(0.00744629 0.0017326 8.10384e-05)
(0.00735748 -0.00104629 6.85359e-05)
(0.00739597 0.00220765 0.000192631)
(0.0072659 -0.0021535 0.000193032)
(0.0072331 0.00287502 0.000216437)
(0.00697152 -0.00352579 0.000212608)
(0.00681573 0.00430817 -0.000204216)
(0.00633775 -0.00421048 -0.000336885)
(0.0064347 0.00832821 -0.00122971)
(0.00479588 -0.00417862 -0.00107539)
(0.00358727 0.0171189 -0.000870463)
(0.00344299 -0.00934017 -0.000897145)
(0.0156092 0.0354043 0.000491582)
(0.0261314 -0.0355684 -0.00164526)
(-0.0126564 0.0366778 0.00643426)
(-0.00693572 -0.016566 -0.0119528)
(0.0210852 0.186414 -0.0117196)
(0.141018 -0.00504763 -0.0607593)
(0.0829748 0.350136 0.00469176)
(0.00523886 0.437754 0.00751097)
(-0.0205564 -0.0618701 0.00901547)
(-0.00681789 -0.0231344 0.00883507)
(-0.0108043 -0.0506152 0.00920288)
(-0.0170552 -0.0566097 0.0107791)
(-0.0177218 -0.0696362 0.00991252)
(-0.0173904 -0.0669528 0.00865093)
(-0.0161028 -0.0742796 0.00698548)
(-0.0148489 -0.0698137 0.00534308)
(-0.0132232 -0.0719352 0.00384529)
(-0.0115655 -0.0659632 0.0026006)
(-0.00969225 -0.0647502 0.00140081)
(-0.00788133 -0.059325 0.000319883)
(-0.00601297 -0.0569915 -0.000633965)
(-0.00410535 -0.0525115 -0.00136418)
(-0.00202008 -0.0490753 -0.00189521)
(-0.000267509 -0.0445705 -0.00222579)
(0.000760827 -0.0404232 -0.00236985)
(0.00106077 -0.0360545 -0.00234866)
(0.000818683 -0.0316734 -0.00222322)
(0.000278322 -0.0273974 -0.00203102)
(-0.000347037 -0.0232649 -0.00177045)
(-0.000851007 -0.0183523 -0.00143235)
(-0.00129337 -0.0140973 -0.00113936)
(-0.00190788 -0.00971406 -0.000963694)
(-0.00248466 -0.00526032 -0.00100047)
(-0.00295239 -0.000671836 -0.000989475)
(-0.00301286 0.00386541 -0.00123045)
(-0.00190646 0.00857861 -0.000619378)
(0.000289911 0.0121805 0.00028813)
(0.00287855 0.0140562 -0.000197894)
(0.00493933 0.0149458 -0.000811673)
(0.00611399 0.015734 -0.000493207)
(0.0068513 0.0158088 0.000524118)
(0.00739501 0.0153594 0.00159944)
(0.0160422 0.0200601 0.00449217)
(0.0182619 0.0108171 0.00453132)
(0.0102925 0.00741665 0.00240023)
(0.0117732 0.0070154 0.00231974)
(0.00817152 0.00460317 0.00235342)
(0.00895157 0.00497278 0.0023574)
(0.00765634 0.00373479 0.00237983)
(0.00817807 0.00389467 0.00241564)
(0.00763054 0.00320354 0.00224206)
(0.00803397 0.00328255 0.00224991)
(0.00784397 0.00286228 0.00213789)
(0.00825741 0.00282276 0.00221594)
(0.00819632 0.00237333 0.00216882)
(0.00841907 0.00219121 0.00219306)
(0.00833638 0.00181718 0.00212934)
(0.00841174 0.001654 0.00212395)
(0.00834121 0.00141267 0.00207776)
(0.00835179 0.00130509 0.00207255)
(0.00830466 0.0011653 0.00205042)
(0.00829187 0.00110027 0.00205185)
(0.00826012 0.00102525 0.00204741)
(0.00824168 0.000986329 0.00205524)
(0.0082181 0.000947527 0.00206181)
(0.00819891 0.000924762 0.00207398)
(0.00817885 0.000905061 0.00208695)
(0.00816014 0.000892107 0.00210226)
(0.00814141 0.000881908 0.00211831)
(0.00812295 0.000874712 0.00213533)
(0.00810464 0.00086938 0.00215297)
(0.00808639 0.000864987 0.00217114)
(0.00806831 0.000862997 0.0021894)
(0.00804929 0.000855516 0.00220781)
(0.00803328 0.000865513 0.00222652)
(0.00800967 0.000832075 0.00224489)
(0.00800236 0.000893151 0.00226541)
(0.00796702 0.000762022 0.00228242)
(0.00797663 0.000972157 0.00230857)
(0.00792117 0.000601945 0.00232111)
(0.00795583 0.00113416 0.00235691)
(0.00787429 0.000304353 0.00236184)
(0.00794146 0.00140828 0.0024179)
(0.00783038 -0.000201067 0.00241343)
(0.00793958 0.00180853 0.0025045)
(0.00776751 -0.00100281 0.00247047)
(0.00790816 0.00231965 0.00259974)
(0.00762961 -0.00218377 0.00252812)
(0.00769558 0.00299021 0.00253591)
(0.00717009 -0.00359967 0.00245475)
(0.00680045 0.00446058 0.00179018)
(0.00607953 -0.00397796 0.00158049)
(0.00618191 0.00921601 0.000559455)
(0.00530393 -0.00388247 0.00116668)
(0.00548677 0.016945 0.00223501)
(0.00358397 -0.0183656 0.00143205)
(0.0217221 0.0278687 0.00304913)
(0.0324005 -0.0438131 0.00152708)
(-0.0456301 0.0654352 0.0234795)
(-0.0553331 -0.104872 -0.00407317)
(-0.0445975 0.182077 -0.0409706)
(0.152159 -0.0153275 -0.0346772)
(0.149113 0.320586 0.00262344)
(0.0663146 0.363579 -0.000704236)
(0.0623804 -0.0572012 0.0114075)
(0.0256455 0.00543652 0.0143502)
(0.00275229 -0.0307657 0.013539)
(-0.00429391 -0.0329883 0.0123254)
(-0.0095723 -0.0443888 0.00955211)
(-0.013438 -0.040949 0.0072017)
(-0.0150656 -0.0474142 0.00450557)
(-0.0155312 -0.0424023 0.00229897)
(-0.0147086 -0.0439787 0.000351882)
(-0.0123394 -0.0380858 -0.00126744)
(-0.00866095 -0.0363397 -0.00278028)
(-0.00591145 -0.0301256 -0.00417161)
(-0.00391354 -0.0259075 -0.00498822)
(-0.00265814 -0.0188417 -0.00564853)
(-0.00169208 -0.0116476 -0.00589467)
(-0.000829948 -0.00394944 -0.00513669)
(0.000163247 0.00136276 -0.00358074)
(0.000945008 0.00449242 -0.00197986)
(0.00124695 0.00527529 -0.000607813)
(0.000962586 0.004783 0.000450228)
(0.00021899 0.00360968 0.00118404)
(-0.000773799 0.00273599 0.00155528)
(-0.00181537 0.00257767 0.00159635)
(-0.00287216 0.00305606 0.00139767)
(-0.00388512 0.00455226 0.00115617)
(-0.00460674 0.00666589 0.000877059)
(-0.00519097 0.00893339 0.000268565)
(-0.00474918 0.011349 0.000565761)
(-0.00220503 0.0130836 0.00163728)
(0.000695683 0.0138206 0.00180137)
(0.00263202 0.0144037 0.00202332)
(0.0038043 0.0151335 0.00298345)
(0.00466078 0.0156703 0.00403466)
(0.00533072 0.0147823 0.00464525)
(0.016134 0.018396 0.00493478)
(0.0205299 0.0112182 0.00500961)
(0.00989065 0.00668759 0.00215661)
(0.013164 0.00819327 0.00190129)
(0.0082072 0.0046683 0.00213339)
(0.00960403 0.00593907 0.00224948)
(0.00758225 0.00397581 0.00263843)
(0.00835257 0.0045323 0.0028109)
(0.00744757 0.00349608 0.00281865)
(0.00795145 0.00375589 0.0029017)
(0.00753339 0.00313883 0.00284807)
(0.00803697 0.00319329 0.00299227)
(0.00788505 0.00260661 0.00301236)
(0.00814098 0.002468 0.00307454)
(0.00798542 0.00200518 0.00304554)
(0.00805867 0.00186654 0.00305972)
(0.00793841 0.00157722 0.00303627)
(0.0079376 0.00148312 0.00304525)
(0.00785836 0.00132285 0.00303832)
(0.00783204 0.00126388 0.00305105)
(0.00777956 0.00118115 0.00305712)
(0.00774839 0.00114433 0.00307357)
(0.00771031 0.00110299 0.00308756)
(0.00767967 0.00108099 0.00310635)
(0.00764846 0.00106027 0.00312471)
(0.00761951 0.00104731 0.00314451)
(0.00759097 0.00103686 0.00316443)
(0.00756307 0.00102964 0.00318476)
(0.00753564 0.00102419 0.00320523)
(0.00750868 0.00101986 0.00322581)
(0.00748224 0.00101751 0.00324641)
(0.00745554 0.00101131 0.00326688)
(0.00743131 0.0010187 0.00328735)
(0.00740275 0.000990946 0.00330709)
(0.00738815 0.00104438 0.00332728)
(0.00735016 0.000925267 0.00334596)
(0.00735247 0.00112159 0.00336857)
(0.00729631 0.000772207 0.00338146)
(0.0073259 0.00128337 0.00341166)
(0.00724236 0.000478585 0.00341242)
(0.00731459 0.00155931 0.00346456)
(0.00720084 -3.12002e-05 0.00344268)
(0.00733222 0.00195265 0.003539)
(0.00714285 -0.000864103 0.00346584)
(0.00737698 0.00243648 0.00362969)
(0.00697257 -0.00211136 0.00346686)
(0.00725456 0.00298715 0.00354953)
(0.00643515 -0.0036582 0.00331192)
(0.00621451 0.00402122 0.00267593)
(0.00511164 -0.0051036 0.00238152)
(0.0055695 0.00715487 0.00200484)
(0.00538388 -0.0079558 0.003065)
(0.00669059 0.0101657 0.00536603)
(0.00530714 -0.0222419 0.002617)
(0.0213638 0.0243001 0.00631303)
(0.0220647 -0.0343992 0.00343157)
(-0.00202015 0.0905625 0.0186751)
(-0.065185 -0.129292 0.0132105)
(-0.0535125 0.230706 -0.0909634)
(0.173119 -0.0609801 -0.0103945)
(0.181243 0.322905 0.00541255)
(0.0675062 0.268255 -0.00198542)
(0.0709666 0.0350387 0.00870299)
(-0.0193445 0.0995785 0.0163123)
(-0.0145187 0.0174973 0.0178011)
(-0.0162671 0.0230023 0.0104909)
(-0.0179132 0.00334838 0.00502725)
(-0.018095 0.0045762 0.000467333)
(-0.0160332 -0.00154268 -0.00285578)
(-0.0135834 0.00491247 -0.00562353)
(-0.0115658 0.00667519 -0.00850844)
(-0.0100926 0.0190492 -0.0103865)
(-0.00797965 0.0302464 -0.0107647)
(-0.00609969 0.0419864 -0.0086943)
(-0.00431048 0.0478041 -0.00677787)
(-0.00234495 0.0527786 -0.00495537)
(0.000198433 0.0540416 -0.00299554)
(0.0026933 0.0530533 -0.00116438)
(0.00451221 0.0498263 0.000194693)
(0.00523343 0.0452297 0.00113821)
(0.00485745 0.0400274 0.00163098)
(0.00350834 0.0345368 0.00181891)
(0.00153738 0.0294361 0.00178114)
(-0.00069634 0.0249601 0.00156752)
(-0.00290662 0.0213133 0.00123506)
(-0.00489864 0.0188253 0.000817939)
(-0.00664318 0.0174338 0.000287936)
(-0.00798586 0.0168023 -0.000212483)
(-0.0079188 0.0162075 -0.000147008)
(-0.00622523 0.0155223 0.000730212)
(-0.00360049 0.0146111 0.00176139)
(-0.00150358 0.0142481 0.00227199)
(-0.000232816 0.0139535 0.0030461)
(0.000479134 0.0139144 0.00405599)
(0.000995555 0.0140799 0.00497534)
(0.00157588 0.0139817 0.00537816)
(0.0148089 0.0171451 0.00549367)
(0.022134 0.0123751 0.00563461)
(0.00887962 0.00591665 0.001424)
(0.0143629 0.00975947 0.00114367)
(0.00821201 0.0043923 0.000959047)
(0.0102937 0.00674123 0.00117438)
(0.00716817 0.0035963 0.0018266)
(0.00800622 0.00463187 0.00223372)
(0.00642366 0.0030304 0.00252693)
(0.00696722 0.00366971 0.00282506)
(0.00628098 0.00292522 0.00294834)
(0.00681466 0.00325984 0.00326973)
(0.00651369 0.00260822 0.00339674)
(0.00675089 0.00259449 0.00354786)
(0.00648375 0.00207848 0.00355281)
(0.00652468 0.00200178 0.00359931)
(0.00633494 0.00168125 0.0035862)
(0.00630456 0.00161709 0.00360772)
(0.00618438 0.00144047 0.00360703)
(0.00613445 0.00139527 0.00362548)
(0.00605738 0.00130667 0.00363403)
(0.00600845 0.00127501 0.00365306)
(0.00595341 0.0012322 0.00366838)
(0.00590836 0.00121145 0.00368852)
(0.00586397 0.00119063 0.0037075)
(0.00582287 0.00117812 0.00372746)
(0.00578314 0.00116775 0.0037462)
(0.0057449 0.00116043 0.00376436)
(0.00570788 0.00115451 0.0037818)
(0.00567182 0.00114962 0.00379842)
(0.0056364 0.00114661 0.00381365)
(0.0056016 0.00114075 0.00382823)
(0.00556831 0.00114628 0.00384217)
(0.00553369 0.00112182 0.00385507)
(0.00550911 0.00117023 0.00386847)
(0.00546798 0.00105976 0.00387902)
(0.00545916 0.00124634 0.0038933)
(0.00540511 0.000913489 0.00389541)
(0.00542542 0.00140759 0.00391417)
(0.00534727 0.000625366 0.00389945)
(0.00542571 0.00168457 0.00394017)
(0.00531357 0.000119108 0.00389222)
(0.00548354 0.00208097 0.0039819)
(0.00529876 -0.000688213 0.00386822)
(0.00560275 0.00255923 0.00402283)
(0.0052206 -0.00180377 0.00378957)
(0.00554136 0.00310663 0.00382526)
(0.00488317 -0.00296427 0.00349111)
(0.00487634 0.00405786 0.0028514)
(0.00409106 -0.00462447 0.00292958)
(0.00574422 0.00538491 0.00350063)
(0.00577896 -0.010334 0.00702993)
(0.00715292 0.00928717 0.0100716)
(-0.000558052 -0.0216263 0.009567)
(0.0195705 0.0282126 0.0301588)
(0.0119586 -0.0497851 0.0277129)
(0.00126125 0.0513998 0.0614176)
(-0.0973604 -0.12666 0.0425983)
(-0.00265919 0.197191 -0.16705)
(0.131817 -0.074283 0.00961148)
(0.155707 0.45089 0.00847534)
(0.0536527 0.589206 -0.0023633)
(0.0502098 0.516061 0.00335108)
(0.0133172 0.545489 0.00255709)
(0.0102515 0.480614 0.00057484)
(-0.00483605 0.44732 -0.0032435)
(-0.00668068 0.444684 -0.00663096)
(-0.00879488 0.45319 -0.00835128)
(-0.0090808 0.460544 -0.00987407)
(-0.00958638 0.474531 -0.00906673)
(-0.00863765 0.482972 -0.00732156)
(-0.00681829 0.490732 -0.0046494)
(-0.00358974 0.484776 -0.0024897)
(-0.000602116 0.477577 -0.000451975)
(0.00237313 0.463469 0.00113987)
(0.00461114 0.433462 0.00237738)
(0.00661528 0.380377 0.00328935)
(0.00804026 0.314512 0.00377591)
(0.00893641 0.255706 0.00384747)
(0.00914293 0.201996 0.00357992)
(0.00852917 0.150897 0.00302891)
(0.00726215 0.106343 0.0022923)
(0.00539062 0.0743919 0.0013819)
(0.00315526 0.0557303 0.000472455)
(0.000759294 0.0449143 -0.000257327)
(-0.00141637 0.0379414 -0.000720844)
(-0.00312988 0.0324204 -0.000889107)
(-0.00425181 0.0274421 -0.000651238)
(-0.00455566 0.0231669 -8.52236e-05)
(-0.00402897 0.0197012 0.000786484)
(-0.00338138 0.0175135 0.00151535)
(-0.00319282 0.0160803 0.00199278)
(-0.0033752 0.0149042 0.00246013)
(-0.0041739 0.0144793 0.00283699)
(-0.00494885 0.0147931 0.00335494)
(-0.0061097 0.014081 0.00352189)
(0.0121222 0.0159117 0.00572582)
(0.0227405 0.0146558 0.00657173)
(0.00760874 0.00527034 0.000938263)
(0.0150437 0.0116331 0.00126592)
(0.0087316 0.00382861 3.96532e-05)
(0.0113955 0.00765315 0.00025269)
(0.0074761 0.00304414 0.000680836)
(0.00794211 0.0047361 0.0012624)
(0.00563979 0.00209964 0.00174558)
(0.00582775 0.00308695 0.00226968)
(0.00468412 0.0021157 0.00267432)
(0.00519965 0.002871 0.0032924)
(0.0048243 0.00222757 0.00363296)
(0.00504384 0.00246666 0.00393389)
(0.00469742 0.00194998 0.00402665)
(0.00470344 0.00200589 0.00413276)
(0.00446783 0.00168118 0.00415318)
(0.00441846 0.00168008 0.00419532)
(0.00427882 0.00150211 0.00420473)
(0.00422217 0.00148839 0.00422677)
(0.00414243 0.00140302 0.00423447)
(0.00409529 0.00138477 0.00424857)
(0.00404484 0.00134579 0.00425474)
(0.00400502 0.00133046 0.00426326)
(0.00396744 0.00131301 0.0042688)
(0.00393421 0.00130373 0.00427531)
(0.00390398 0.00129635 0.00428164)
(0.0038759 0.00129178 0.00428709)
(0.00384929 0.00128831 0.00429109)
(0.00382399 0.0012857 0.00429403)
(0.00379989 0.00128438 0.00429618)
(0.00377681 0.00128033 0.00429746)
(0.00375408 0.00128666 0.00429668)
(0.00373219 0.00126576 0.00429419)
(0.00371829 0.00131204 0.00429222)
(0.00369309 0.00121174 0.00428755)
(0.00369578 0.00139403 0.00428851)
(0.00366607 0.0010839 0.00428286)
(0.00370072 0.00156539 0.00429361)
(0.00365722 0.000820356 0.00428034)
(0.0037535 0.00185456 0.00431306)
(0.00368815 0.000356999 0.00427509)
(0.00387915 0.00228409 0.00434952)
(0.00377841 -0.000350822 0.00426059)
(0.0040463 0.0028402 0.00435424)
(0.00385587 -0.00122898 0.00415999)
(0.00397483 0.00355992 0.00403587)
(0.00375417 -0.00209867 0.00372887)
(0.00369641 0.00447437 0.00305842)
(0.003886 -0.00385437 0.00350307)
(0.00550773 0.00496584 0.004392)
(0.00411614 -0.00932829 0.00820315)
(0.00485478 0.00881218 0.0102378)
(-0.0081858 -0.0163582 0.0198367)
(0.00868181 0.0192624 0.044193)
(-0.00253013 -0.023292 0.0501401)
(0.0172892 0.0416102 0.106368)
(-0.073148 -0.123973 0.0861838)
(0.0352176 0.0780699 -0.157205)
(0.0808005 -0.00953267 0.023064)
(0.145812 0.481234 0.0062456)
(0.0448444 0.601412 -0.00364197)
(0.043829 0.565667 0.0034941)
(0.0125925 0.612252 0.000946558)
(0.00562219 0.607502 -0.000616776)
(-0.00211193 0.616926 -0.0023847)
(-0.00441186 0.615173 -0.00247266)
(-0.00686709 0.609054 -0.00209904)
(-0.00689155 0.605512 -0.0007344)
(-0.00664074 0.606865 0.000867738)
(-0.00495798 0.613267 0.00288389)
(-0.00310482 0.605731 0.00446776)
(-0.000381254 0.609243 0.00614293)
(0.00173831 0.620492 0.0073937)
(0.00363814 0.612197 0.0084939)
(0.00597934 0.600782 0.00911803)
(0.00818189 0.599086 0.00938874)
(0.0100135 0.589316 0.00926422)
(0.011373 0.580067 0.00893951)
(0.0121904 0.573764 0.00817616)
(0.0119776 0.552686 0.00742261)
(0.0112018 0.540771 0.00656675)
(0.00998245 0.521103 0.00564225)
(0.00822035 0.497 0.00462802)
(0.00609987 0.434761 0.00385012)
(0.00384684 0.351954 0.00326266)
(0.00157924 0.291603 0.00286869)
(-0.000114657 0.188176 0.00286862)
(-0.00148837 0.101398 0.00308536)
(-0.00267208 0.0503111 0.00336046)
(-0.0037719 0.0223639 0.0036714)
(-0.00459685 0.016472 0.00393925)
(-0.00517558 0.0137658 0.0039882)
(-0.00579494 0.0124208 0.00381235)
(-0.00595045 0.0121834 0.0027024)
(-0.00631034 0.0127281 -0.000105109)
(0.00775829 0.0142467 0.00520842)
(0.0222778 0.0182675 0.00770074)
(0.0046255 0.00422972 0.00151428)
(0.0140356 0.0136175 0.0030922)
(0.00776706 0.00279928 0.000844431)
(0.0112096 0.00827684 0.000591335)
(0.00715074 0.00247287 0.000610979)
(0.00747829 0.00500476 0.0012037)
(0.00446296 0.00136453 0.00154711)
(0.00402968 0.00253333 0.00209684)
(0.00224628 0.0011598 0.00246905)
(0.00250902 0.00221592 0.00320596)
(0.00183045 0.0015709 0.00366942)
(0.00197364 0.00210744 0.00409058)
(0.00144017 0.00162691 0.00423767)
(0.00137672 0.00186466 0.00439003)
(0.00102818 0.00157498 0.00442497)
(0.000930866 0.00167741 0.00448471)
(0.000725781 0.00152302 0.00449356)
(0.000637474 0.00156428 0.0045193)
(0.000529758 0.00149491 0.00452367)
(0.000467055 0.00150396 0.00453487)
(0.000407475 0.00147683 0.00453496)
(0.000365358 0.00147366 0.0045383)
(0.000329134 0.00146329 0.0045377)
(0.000299747 0.00145913 0.00453747)
(0.000274361 0.00145556 0.00453548)
(0.000254184 0.00145453 0.00453337)
(0.000238194 0.00145442 0.00453134)
(0.000224973 0.00145518 0.00452931)
(0.00021344 0.00145714 0.00452671)
(0.000203755 0.00145778 0.00452376)
(0.000195476 0.00146723 0.00451986)
(0.00019046 0.00145144 0.00451632)
(0.000189374 0.0014991 0.00451228)
(0.000179336 0.00140851 0.00450746)
(0.000191801 0.00158741 0.00450844)
(0.000178494 0.0012967 0.0045107)
(0.000223516 0.00176848 0.00453395)
(0.000204888 0.00106084 0.00454721)
(0.000302335 0.00207868 0.00458881)
(0.000277519 0.00066012 0.00459245)
(0.00045035 0.00256318 0.0046599)
(0.000435126 9.2936e-05 0.00463575)
(0.000620703 0.00325821 0.00468071)
(0.000673566 -0.000574861 0.00458994)
(0.00066099 0.00422584 0.00439591)
(0.00099302 -0.00145439 0.00425564)
(0.000915404 0.00537739 0.00368408)
(0.00201756 -0.00335155 0.00416792)
(0.00304765 0.00622549 0.00475633)
(0.00254549 -0.00861206 0.00733658)
(0.000377112 0.00600303 0.00773924)
(-0.0111638 -0.017591 0.0099705)
(-0.0197188 -0.00338764 0.0296269)
(-0.0339383 -0.0416481 0.050758)
(0.00320246 -0.0216554 0.0865622)
(-0.0164308 -0.117424 0.0784222)
(0.0299875 -0.0381983 -0.151663)
(0.042886 0.0605704 0.0259428)
(0.0785427 0.564776 0.003789)
(0.025015 0.641698 -0.00405668)
(0.0241208 0.600023 0.00431259)
(0.00914722 0.674683 0.00572582)
(0.00490153 0.637665 0.00776735)
(-0.000368755 0.654079 0.00655485)
(-0.00246885 0.643189 0.00717907)
(-0.00441951 0.634715 0.00719368)
(-0.00507003 0.645582 0.00814736)
(-0.00540459 0.628971 0.00916484)
(-0.00452628 0.645748 0.0103385)
(-0.00340164 0.650166 0.0111033)
(-0.00130527 0.652713 0.01208)
(0.000600319 0.635251 0.0127143)
(0.00313525 0.617466 0.013832)
(0.00561841 0.635797 0.0140252)
(0.00805982 0.638815 0.0142387)
(0.0102598 0.614884 0.0141385)
(0.0126629 0.639839 0.0139068)
(0.0148697 0.627306 0.0132313)
(0.0157668 0.6046 0.0127976)
(0.0163477 0.615098 0.0119707)
(0.0163129 0.611142 0.0107851)
(0.015119 0.59553 0.00937613)
(0.0132033 0.577231 0.00797695)
(0.0110624 0.543938 0.00695755)
(0.00821112 0.540164 0.00562207)
(0.00497833 0.535827 0.00415301)
(0.0015535 0.514379 0.00274104)
(-0.00183324 0.505444 0.00152552)
(-0.00561327 0.49052 0.000161294)
(-0.00894458 0.45937 -0.00104906)
(-0.0117808 0.393573 -0.00185609)
(-0.0141896 0.309322 -0.00300119)
(-0.0157986 0.218728 -0.00480899)
(-0.0192273 0.200801 -0.00728084)
(0.000761634 0.00949237 0.00434654)
(0.0206073 0.0221106 0.00793849)
(0.000474608 0.00303087 0.00238219)
(0.0111918 0.0160072 0.00507857)
(0.0053496 0.00191896 0.00279759)
(0.00950006 0.00866354 0.00222904)
(0.0056951 0.00168662 0.0017457)
(0.00642097 0.00509962 0.00193698)
(0.00335603 0.000826624 0.00228977)
(0.00229494 0.0021278 0.00278281)
(2.75732e-05 0.000224981 0.00320603)
(0.000255324 0.00146065 0.00392582)
(-0.000505125 0.000655446 0.0044465)
(-0.000292216 0.00147175 0.00496223)
(-0.000876317 0.0010498 0.00518252)
(-0.000923159 0.00153841 0.00539276)
(-0.00129959 0.0013271 0.00546208)
(-0.00136934 0.00158834 0.00555862)
(-0.00156648 0.00149695 0.00559397)
(-0.00161972 0.00162408 0.00565092)
(-0.0017024 0.00159663 0.00568257)
(-0.00173042 0.0016535 0.00572494)
(-0.00175703 0.0016556 0.0057551)
(-0.00176297 0.00167767 0.00579163)
(-0.00176266 0.00168629 0.00582515)
(-0.00175337 0.0016979 0.00586084)
(-0.0017381 0.00170631 0.0058963)
(-0.00171787 0.00171392 0.00593199)
(-0.00169471 0.00172055 0.00596749)
(-0.00166806 0.00172689 0.00600328)
(-0.00163898 0.00173344 0.00603897)
(-0.00160681 0.00173808 0.00607501)
(-0.00157309 0.00174924 0.00611001)
(-0.00153447 0.00173807 0.00614679)
(-0.00149338 0.00178467 0.00618162)
(-0.00145807 0.00170103 0.0062181)
(-0.00139839 0.00187456 0.00625677)
(-0.00136406 0.00160152 0.00629689)
(-0.00127007 0.00206671 0.0063449)
(-0.00124005 0.00140092 0.00638827)
(-0.00109924 0.00240817 0.00644246)
(-0.00106513 0.0010721 0.00648237)
(-0.000867686 0.00296057 0.00653458)
(-0.000804144 0.000634663 0.00655728)
(-0.000643996 0.00380779 0.00653375)
(-0.000464477 0.000101037 0.00650643)
(-0.000538983 0.00498473 0.00623216)
(-3.86348e-05 -0.000972525 0.00613218)
(-0.000310626 0.0062571 0.00573568)
(0.00112433 -0.00338824 0.00616448)
(0.00171437 0.00741998 0.00698591)
(0.00329008 -0.00674362 0.00925332)
(0.00098761 0.00936151 0.0106132)
(0.000828085 -0.0108942 0.0107356)
(-0.0164846 0.00523523 0.0289936)
(-0.0298291 -0.0452216 0.0428071)
(-0.0152617 -0.0342137 0.0751267)
(0.0157632 -0.0945732 0.0680959)
(-0.00317635 -0.073076 -0.138582)
(-0.0126033 0.0977812 0.0247332)
(-0.0277769 0.607373 -0.00295259)
(-0.0113935 0.704155 -0.00582482)
(-0.00831912 0.711027 0.00949375)
(-0.00383805 0.740603 0.0107276)
(-0.00220468 0.736204 0.0137386)
(-0.00250642 0.735008 0.0136189)
(-0.00277321 0.737619 0.014435)
(-0.00313939 0.751586 0.0145856)
(-0.00324986 0.730622 0.0152272)
(-0.00256313 0.731846 0.0160645)
(-0.00153826 0.724643 0.0169291)
(-0.000121639 0.723196 0.0175661)
(0.00176534 0.717398 0.0183172)
(0.00420986 0.711658 0.0188136)
(0.00716467 0.703173 0.0195157)
(0.00972934 0.693065 0.0198473)
(0.0122187 0.683186 0.0203521)
(0.0146549 0.684643 0.0206865)
(0.0169717 0.680856 0.0211182)
(0.0191073 0.67433 0.0215736)
(0.0211164 0.668026 0.0220829)
(0.0222806 0.661552 0.0224455)
(0.023018 0.653431 0.0226395)
(0.0232198 0.645356 0.0226428)
(0.023108 0.633684 0.0223706)
(0.0226069 0.612676 0.0218138)
(0.0214527 0.600995 0.0208255)
(0.0197679 0.586378 0.0192479)
(0.0176868 0.566896 0.0169439)
(0.0146023 0.552377 0.0133713)
(0.0106943 0.513263 0.00849477)
(0.00595033 0.480266 0.00193753)
(0.000869597 0.446873 -0.00625794)
(-0.00476128 0.405102 -0.0183981)
(-0.0127788 0.405968 -0.0394288)
(-0.0202883 0.424864 -0.0636645)
(-0.00805766 0.0064061 -0.00497955)
(0.0184353 0.027 0.00507604)
(-0.00506917 0.0029165 -0.000990311)
(0.00667995 0.0195199 0.00287898)
(0.00143142 0.00212648 0.00166106)
(0.00602676 0.00983461 0.00107129)
(0.00277024 0.00131313 0.000469748)
(0.00417593 0.00545552 3.34229e-05)
(0.00121691 0.0005379 0.000134154)
(-0.000222605 0.00191356 0.000140932)
(-0.00319479 -0.000442122 0.000273446)
(-0.00328488 0.000989715 0.000892077)
(-0.00439329 0.000125505 0.00141895)
(-0.00439639 0.00117026 0.00194963)
(-0.00511716 0.00081872 0.00223549)
(-0.00521206 0.00146459 0.00247709)
(-0.00563161 0.00130355 0.00258752)
(-0.00572053 0.00164304 0.00270587)
(-0.00593607 0.00157327 0.00276869)
(-0.00599969 0.00173444 0.00284478)
(-0.00609186 0.0017188 0.00289904)
(-0.00612777 0.00178787 0.00296184)
(-0.00615787 0.00179797 0.00301456)
(-0.00616962 0.00182716 0.00307239)
(-0.00617534 0.00184232 0.00312718)
(-0.00617401 0.00185939 0.00318257)
(-0.00616805 0.0018728 0.00323656)
(-0.00615792 0.00188529 0.00328964)
(-0.00614503 0.00189611 0.00334142)
(-0.00613022 0.00190584 0.00339198)
(-0.00611378 0.00191555 0.00344107)
(-0.00609468 0.00192309 0.00348904)
(-0.00607518 0.0019363 0.00353505)
(-0.00605044 0.00193 0.00358089)
(-0.00602598 0.00197681 0.00362228)
(-0.00600714 0.00190302 0.00366546)
(-0.00597234 0.00206932 0.003704)
(-0.00596433 0.00181612 0.0037475)
(-0.0058999 0.00226112 0.0037838)
(-0.00588976 0.00164116 0.00382951)
(-0.00579919 0.0026104 0.00385739)
(-0.00577033 0.00136936 0.00390761)
(-0.00567969 0.00319864 0.00391187)
(-0.00558573 0.00104996 0.00395539)
(-0.00554231 0.00413776 0.00388258)
(-0.00524553 0.000654755 0.00387562)
(-0.00522986 0.00545495 0.00363974)
(-0.00450382 -0.000486116 0.00359658)
(-0.00443753 0.00681499 0.00351969)
(-0.00324464 -0.00377916 0.00384534)
(-0.00391454 0.00768667 0.00460895)
(-0.00223185 -0.00673891 0.00664564)
(-0.00794074 0.0124059 0.00737039)
(-0.00480904 -0.00890186 0.00882473)
(-0.0201431 0.0225842 0.0234871)
(-0.0191753 -0.0480521 0.035542)
(-0.0297973 -0.0255764 0.0589171)
(0.0539096 -0.125418 0.0594103)
(-0.0351554 0.00529826 -0.158796)
(-0.0602283 0.0340567 0.0120906)
(-0.133295 0.515202 -0.0177772)
(-0.0425627 0.597629 -0.00646963)
(-0.0371263 0.586333 0.00311601)
(-0.0165317 0.618682 0.00737577)
(-0.0115866 0.60488 0.00882622)
(-0.00792246 0.589267 0.00919985)
(-0.00711798 0.601733 0.00981127)
(-0.00653256 0.601343 0.0102927)