/*--------------------------------*- C++ -*----------------------------------*\
| =========                 |                                                 |
| \\      /  F ield         | OpenFOAM: The Open Source CFD Toolbox           |
|  \\    /   O peration     | Version:  2.3.0                                 |
|   \\  /    A nd           | Web:      www.OpenFOAM.org                      |
|    \\/     M anipulation  |                                                 |
\*---------------------------------------------------------------------------*/
FoamFile
{
    version     2.0;
    format      ascii;
    class       volVectorField;
    location    "13";
    object      U.water;
}
// * * * * * * * * * * * * * * * * * * * * * * * * * * * * * * * * * * * * * //

dimensions      [0 1 -1 0 0 0 0];

internalField   nonuniform List<vector> 
6144
(
(0.00730179 0.0161109 0.000453016)
(0.00827989 0.000359191 0.000708086)
(0.0029702 -0.00257816 0.000665944)
(0.00365874 -0.00360249 0.000360767)
(0.0017166 -0.00633503 0.0012877)
(0.00204083 -0.0049417 0.0010329)
(0.00160838 -0.00559654 0.000833528)
(0.00183435 -0.00432125 0.000556481)
(0.00177428 -0.00373113 -0.000282838)
(0.00195866 -0.00210684 -0.000503549)
(0.00213725 -0.000904495 -0.000559331)
(0.00241165 1.61143e-05 -0.000405921)
(0.00265831 0.000187563 -0.000391255)
(0.00283967 0.000161611 -0.00039174)
(0.00295886 -0.00010674 -0.000516091)
(0.00303698 -0.000313238 -0.000610173)
(0.003093 -0.00054082 -0.000737009)
(0.00312979 -0.000658624 -0.000819439)
(0.00315784 -0.000776766 -0.000903225)
(0.00318177 -0.00081273 -0.000954422)
(0.00319526 -0.000850855 -0.00100109)
(0.00321112 -0.000845738 -0.00102747)
(0.00321841 -0.000844764 -0.00104957)
(0.00322677 -0.000824879 -0.00106107)
(0.00323099 -0.000807698 -0.00106918)
(0.00323452 -0.00078497 -0.00107246)
(0.0032362 -0.000763287 -0.00107358)
(0.00323686 -0.000740944 -0.00107254)
(0.00323646 -0.000718417 -0.00107026)
(0.00323489 -0.00069893 -0.00106653)
(0.00323426 -0.000668989 -0.00106303)
(0.00322626 -0.000668663 -0.00105788)
(0.00323412 -0.000595454 -0.00104946)
(0.003204 -0.000668518 -0.00104903)
(0.00324169 -0.000475091 -0.00102302)
(0.00317106 -0.000726912 -0.00103636)
(0.00325002 -0.000254559 -0.00098419)
(0.00312412 -0.000906745 -0.00102221)
(0.00325143 0.000123546 -0.00092457)
(0.00306521 -0.00127128 -0.000999781)
(0.00323823 0.000726605 -0.000810617)
(0.00299904 -0.00191432 -0.000942363)
(0.00318892 0.00152936 -0.000620719)
(0.00292201 -0.00292014 -0.000817876)
(0.00307358 0.00243006 -0.000453014)
(0.00279219 -0.00406634 -0.000592955)
(0.00275118 0.00356959 -0.000657135)
(0.00249261 -0.00412036 -0.000525872)
(0.00267423 0.00695021 -0.0019715)
(0.00260583 -0.00182944 -0.00158206)
(0.00540544 0.015262 -0.0029581)
(0.00684035 -0.00933384 -0.00118331)
(0.0020949 0.0132267 -0.00250245)
(0.00342014 -0.0131673 -0.0041818)
(0.00991832 0.044502 -0.0060214)
(0.00405871 -0.0436077 -0.0127004)
(0.00958701 0.0644287 -0.00929833)
(0.0110747 -0.055724 -0.0303453)
(-0.0284225 0.0868184 -0.0703357)
(0.0586044 -0.0774497 -0.132232)
(0.135376 -0.259994 -0.0237469)
(0.0838483 -0.101448 -0.00889704)
(0.0369042 -0.169335 -0.00231971)
(0.0357307 -0.182338 0.00235226)
(0.0300452 -0.18387 0.00540754)
(0.0224168 -0.192485 0.00692356)
(0.0156504 -0.200296 0.00789116)
(0.0109823 -0.204679 0.00804206)
(0.00769134 -0.206173 0.00753916)
(0.00506002 -0.20546 0.00654651)
(0.00287967 -0.202721 0.00529468)
(0.00106389 -0.198105 0.00404314)
(-0.00076584 -0.191594 0.00269587)
(-0.00221103 -0.183324 0.00141248)
(-0.0037898 -0.173058 3.88458e-05)
(-0.00483948 -0.16094 -0.000940222)
(-0.00461675 -0.147415 -0.00216078)
(-0.00372464 -0.134157 -0.00332731)
(-0.00260521 -0.120884 -0.00478449)
(-0.00175716 -0.107065 -0.00621477)
(-0.0010325 -0.0951726 -0.00699257)
(0.00102285 -0.0843806 -0.00649354)
(0.00385874 -0.0749751 -0.00610107)
(0.00632476 -0.0648387 -0.0055534)
(0.00596871 -0.0566051 -0.00531971)
(0.00453353 -0.0487733 -0.00428456)
(0.00263842 -0.0428475 -0.00339785)
(0.00046104 -0.0353873 -0.00258915)
(-0.00189277 -0.0271811 -0.00273122)
(-0.00800515 -0.0112117 -0.00327013)
(-0.00513689 0.00636319 0.00062383)
(0.00220314 0.016511 -0.00346371)
(0.00542575 0.0213859 -0.0112936)
(0.00633893 0.0277858 -0.0119361)
(0.00760459 0.0281929 -0.00419213)
(0.00946973 0.0144523 0.010002)
(0.013773 0.0159534 0.00280052)
(0.0163448 0.00546712 0.00369838)
(0.00581947 0.00152206 0.00292145)
(0.00841093 0.00140921 0.00292518)
(0.00315511 -0.00245718 0.00447082)
(0.00422284 -0.000159364 0.00386937)
(0.00279693 -0.0022447 0.00470526)
(0.00316826 -0.000919421 0.00416712)
(0.00303659 -0.00148295 0.00360435)
(0.00320509 -0.000196565 0.00299134)
(0.00352254 0.00050327 0.00278401)
(0.00415935 0.00126588 0.0030034)
(0.00474228 0.0011628 0.00312008)
(0.00518811 0.000959351 0.00316589)
(0.00544062 0.000504208 0.00302769)
(0.00560963 0.000196147 0.00290594)
(0.00570133 -0.000125721 0.00274849)
(0.00576918 -0.000290963 0.00264855)
(0.00581035 -0.000449785 0.00255176)
(0.00584668 -0.000503698 0.00249896)
(0.00586892 -0.000558093 0.002456)
(0.00589113 -0.000555826 0.00243905)
(0.00590454 -0.00055986 0.00242897)
(0.00591706 -0.000535824 0.0024324)
(0.00592424 -0.000517118 0.00244028)
(0.00592954 -0.000489216 0.00245457)
(0.00593161 -0.000462936 0.00247092)
(0.0059316 -0.000435134 0.00248988)
(0.00592944 -0.000407599 0.00251008)
(0.00592491 -0.00038161 0.00253114)
(0.00592049 -0.000351156 0.00255223)
(0.00590509 -0.000336829 0.00257327)
(0.00591215 -0.000273875 0.00259653)
(0.00586309 -0.000318779 0.0026131)
(0.00591297 -0.000146127 0.00265434)
(0.00579005 -0.000373298 0.00265408)
(0.00592322 8.46156e-05 0.00272939)
(0.00567933 -0.000574104 0.00269103)
(0.00592847 0.000488426 0.00282905)
(0.0055245 -0.00100167 0.0027272)
(0.00592609 0.00114959 0.00299678)
(0.00532964 -0.00179529 0.00279371)
(0.00590994 0.00208571 0.0032635)
(0.00507878 -0.00311064 0.00291665)
(0.00575778 0.00313517 0.00347072)
(0.00469513 -0.0048678 0.00304126)
(0.0050326 0.00431087 0.00292881)
(0.00380391 -0.00547125 0.00266471)
(0.00332803 0.00702042 0.000176329)
(0.00355238 -0.000431883 0.00109828)
(0.00729716 0.0144739 -0.000863448)
(0.010968 0.000686782 0.00239575)
(0.00894268 0.0246035 0.00568585)
(-0.00219589 -0.0247481 0.00159743)
(0.0188672 0.0446351 0.00215366)
(0.032488 -0.0513768 0.000236844)
(-0.02748 0.0310567 0.0092677)
(-0.0250926 -0.0263529 -0.00848298)
(-0.0112703 0.150846 -0.000938448)
(0.190822 -0.130101 -0.0717676)
(0.199495 -0.213305 -0.0239576)
(0.055411 0.0878179 0.00492988)
(-0.029531 -0.122898 0.0116462)
(-0.0126812 -0.0916104 0.0140029)
(-0.012973 -0.111866 0.0148386)
(-0.0211567 -0.136851 0.0156623)
(-0.023706 -0.149816 0.015197)
(-0.0239239 -0.159145 0.0141163)
(-0.0232591 -0.165902 0.0124504)
(-0.0226218 -0.170069 0.0102793)
(-0.021978 -0.171102 0.00804744)
(-0.0209891 -0.16988 0.00586862)
(-0.0199108 -0.166388 0.00391367)
(-0.0191935 -0.160692 0.0019399)
(-0.0188597 -0.15282 0.000308853)
(-0.0181153 -0.141715 -0.000900932)
(-0.0162227 -0.128127 -0.00259164)
(-0.0147291 -0.115963 -0.00432138)
(-0.0104915 -0.104349 -0.00627732)
(-0.00503263 -0.0905251 -0.00720765)
(-0.00277995 -0.0750321 -0.00631556)
(-0.00245062 -0.0591112 -0.00549048)
(-0.00409699 -0.0434937 -0.00598496)
(-0.00465903 -0.0279963 -0.00459724)
(-0.00216193 -0.0171313 -0.00133203)
(-0.000334746 -0.0121967 0.00151392)
(-0.000732155 -0.0102784 0.00230246)
(-0.0032734 -0.00983433 0.00246272)
(-0.00841224 -0.00987865 0.000437357)
(-0.0125179 -0.00474433 -0.0025106)
(-0.0122835 0.00386597 0.00141515)
(-0.00435637 0.0112191 0.00092985)
(0.00116547 0.0172916 -0.00246184)
(0.000286896 0.0251114 0.000765678)
(-0.00235263 0.0237268 0.0133482)
(0.00170342 0.0119863 0.0266121)
(0.0165048 0.0140237 0.00235656)
(0.0218109 0.00647395 0.00236754)
(0.00694533 0.0014777 0.000466578)
(0.0112385 0.00374063 0.000264146)
(0.00344613 -0.00116105 0.00252289)
(0.00459921 0.00221442 0.00297694)
(0.0022912 -4.64255e-05 0.00465783)
(0.00277992 0.00161597 0.00485806)
(0.00229687 0.000730611 0.00507502)
(0.00217528 0.00150672 0.00480126)
(0.00243295 0.00169289 0.00444878)
(0.00333326 0.00228922 0.00456253)
(0.00408222 0.00194172 0.00475618)
(0.00467166 0.00162406 0.00485454)
(0.00489797 0.00102455 0.00484816)
(0.0050544 0.000661065 0.0048185)
(0.00507908 0.000277497 0.00477927)
(0.00511677 8.75365e-05 0.0047571)
(0.00511058 -9.67642e-05 0.00474586)
(0.00511984 -0.000164009 0.0047499)
(0.00511455 -0.000231677 0.00476189)
(0.00511765 -0.00023982 0.00478351)
(0.00511361 -0.000250094 0.00480881)
(0.00511225 -0.000232776 0.00483952)
(0.00510709 -0.000218495 0.00487008)
(0.0051012 -0.000194253 0.00490317)
(0.00509241 -0.000170933 0.00493617)
(0.00508191 -0.000145668 0.00496976)
(0.00506951 -0.000120991 0.00500274)
(0.00505522 -9.72711e-05 0.00503451)
(0.00503929 -7.10167e-05 0.00506406)
(0.00501739 -5.31758e-05 0.00509057)
(0.00500731 -6.47569e-06 0.00511685)
(0.00496033 -2.88435e-05 0.00513562)
(0.00499128 0.000101467 0.00516953)
(0.00486417 -7.02747e-05 0.00516867)
(0.00500215 0.000308254 0.00522454)
(0.00471876 -0.000253322 0.00518808)
(0.00502776 0.000678438 0.00528081)
(0.004514 -0.000664169 0.00518847)
(0.00508667 0.00128287 0.00535623)
(0.00426685 -0.00144464 0.0051706)
(0.00521582 0.00215141 0.00546037)
(0.0039657 -0.00277051 0.00512741)
(0.0052675 0.0032395 0.00548398)
(0.00350561 -0.00455597 0.00506015)
(0.00434001 0.00440267 0.00478637)
(0.002434 -0.00527832 0.00478186)
(0.000527361 0.00656139 0.00176977)
(0.00227166 -0.001242 0.00343239)
(0.00356101 0.0120455 0.00223962)
(0.0113264 0.00114385 0.0045783)
(0.0153965 0.0288819 0.00793907)
(1.27266e-05 -0.0300676 0.00326993)
(0.0273991 0.0295039 0.00342899)
(0.0431828 -0.0589052 0.000652642)
(-0.062445 0.0674792 0.0223832)
(-0.0702663 -0.115835 -0.0129821)
(-0.058519 0.169555 -0.0346155)
(0.186913 -0.160694 -0.0412959)
(0.220702 -0.155409 -0.024558)
(0.0829218 0.139718 0.00855027)
(0.0846412 -0.120726 0.0189422)
(0.0400241 -0.0618464 0.023283)
(0.0162982 -0.0877824 0.0230432)
(0.00335902 -0.110096 0.0216284)
(-0.00462898 -0.119779 0.0193515)
(-0.010406 -0.126884 0.0164767)
(-0.0143827 -0.132311 0.0130303)
(-0.0167536 -0.135289 0.00991384)
(-0.0177924 -0.135027 0.00651004)
(-0.0197172 -0.132654 0.00354059)
(-0.0210641 -0.128859 0.000224468)
(-0.0226727 -0.124181 -0.00284976)
(-0.0257233 -0.11725 -0.0038242)
(-0.0226568 -0.107869 -0.00626807)
(-0.0159646 -0.0926154 -0.00685163)
(-0.0134725 -0.0791309 -0.0115225)
(-0.0150831 -0.0557628 -0.0179772)
(-0.0172555 -0.0204666 -0.013231)
(-0.0150887 -0.00107186 -0.00740059)
(-0.0102925 0.0113471 -0.00368597)
(-0.00519934 0.015445 -0.000322262)
(-0.000217949 0.0146612 0.00274026)
(0.00337951 0.0115365 0.00508678)
(0.00464678 0.00778788 0.00631678)
(0.0035493 0.0047017 0.00650317)
(0.000102143 0.00250906 0.00606367)
(-0.00657026 0.00158797 0.00331854)
(-0.0154805 0.00326037 -0.00160451)
(-0.0161528 0.00738208 -0.000100411)
(-0.00676582 0.0101094 0.000234304)
(-0.00184289 0.0166291 -0.00044768)
(-0.00240266 0.0230006 0.00664252)
(-0.00579087 0.0210188 0.0178043)
(-0.00637954 0.00917169 0.0288223)
(0.0191685 0.0158264 0.00271574)
(0.0269574 0.00978495 0.00139103)
(0.00876378 0.00125625 -0.00430041)
(0.0170191 0.00680469 -0.00466851)
(0.0052032 -0.00179331 -0.00305585)
(0.00608204 0.0026208 -0.00164756)
(0.00203161 -0.00170807 0.0013422)
(0.00216294 0.00162707 0.00264413)
(0.00129118 0.000573055 0.00406403)
(0.00139106 0.00198173 0.00418783)
(0.00131291 0.00207633 0.00402395)
(0.0022419 0.00281754 0.00432422)
(0.00306764 0.00249573 0.00469989)
(0.00365782 0.0022432 0.00492834)
(0.00385484 0.0016247 0.00501132)
(0.00396668 0.00125767 0.00504028)
(0.00396058 0.000837968 0.00505048)
(0.00396932 0.00062716 0.00506289)
(0.00394149 0.000418251 0.00508244)
(0.0039361 0.000332999 0.00510725)
(0.00391877 0.000249812 0.0051361)
(0.00391483 0.000228648 0.00516781)
(0.00390348 0.000207809 0.0052003)
(0.00389911 0.000214354 0.00523542)
(0.00389166 0.000220099 0.00526501)
(0.0038839 0.000237425 0.00529379)
(0.00387495 0.000254766 0.00532359)
(0.00386477 0.000274187 0.00535282)
(0.00385297 0.000292859 0.0053798)
(0.00383929 0.000311052 0.00540455)
(0.00382387 0.000331388 0.00542732)
(0.00380577 0.000348858 0.0054484)
(0.00379191 0.00037662 0.00546782)
(0.00375852 0.000376372 0.00547892)
(0.00377472 0.000458781 0.00549106)
(0.00367958 0.000348282 0.00548544)
(0.00379222 0.00062821 0.00551411)
(0.0035486 0.000187809 0.00547092)
(0.00384179 0.000948568 0.0055349)
(0.00336556 -0.000210741 0.00542895)
(0.00395706 0.00147206 0.00556501)
(0.00315111 -0.00100462 0.00534514)
(0.00419856 0.00223151 0.00562827)
(0.002858 -0.00237508 0.00520052)
(0.00447289 0.00327381 0.00566761)
(0.00230665 -0.00419896 0.00502679)
(0.00352157 0.00452704 0.00505589)
(0.00118882 -0.00514496 0.00484831)
(-0.000882166 0.00685644 0.00274568)
(0.00119587 -0.00555298 0.00448575)
(0.00174661 0.0103945 0.00415643)
(0.00757485 -0.01236 0.00550617)
(0.0192216 0.0222687 0.00695399)
(-0.000342245 -0.0255249 -0.000383959)
(0.0258277 0.0340503 0.00703233)
(0.0226313 -0.0299652 0.00789348)
(-0.0126734 0.106542 0.0163794)
(-0.0859307 -0.148781 0.0129895)
(-0.0630081 0.196045 -0.0940815)
(0.188722 -0.218132 -0.0305206)
(0.243405 -0.13152 -0.0285115)
(0.0879184 0.113549 0.000236706)
(0.1007 -0.0175842 0.0121759)
(-0.017395 0.0383833 0.0250852)
(-0.0196509 -0.0495744 0.0285841)
(-0.0220962 -0.0572357 0.0258727)
(-0.0260488 -0.0747823 0.0197398)
(-0.0291814 -0.086647 0.0131327)
(-0.0304263 -0.0934036 0.00755137)
(-0.0302924 -0.0963995 0.00222863)
(-0.0260888 -0.0958732 -0.00207807)
(-0.0184945 -0.0922703 -0.00576557)
(-0.0133706 -0.0842478 -0.00931949)
(-0.013878 -0.0729313 -0.010621)
(-0.020151 -0.0617625 -0.0137197)
(-0.0274848 -0.0421438 -0.0179467)
(-0.0298331 -0.00157422 -0.0206782)
(-0.0271363 0.0261697 -0.0192596)
(-0.0217792 0.0466461 -0.0118222)
(-0.0133578 0.0527444 -0.00408933)
(-0.00551086 0.0526275 0.00107418)
(-0.000691134 0.0487338 0.00474715)
(0.00197847 0.0427358 0.00727407)
(0.00286853 0.0362668 0.00879576)
(0.00234059 0.0301625 0.00930506)
(0.00020589 0.0243602 0.00878151)
(-0.00364004 0.0199222 0.00728586)
(-0.00941697 0.01674 0.00484595)
(-0.0165196 0.015446 0.000711687)
(-0.01973 0.0149125 -0.00175138)
(-0.0171125 0.0122391 -0.001112)
(-0.00997678 0.0111853 -8.28877e-05)
(-0.00673937 0.0151602 0.00207241)
(-0.00753558 0.0184474 0.00962668)
(-0.0119739 0.018032 0.0200305)
(-0.0148683 0.00704742 0.0299339)
(0.0216884 0.0218705 0.00485271)
(0.0309598 0.0164536 0.00458487)
(0.0149641 0.00255956 -0.0059101)
(0.0243133 0.011057 -0.0044048)
(0.013403 -0.00242405 -0.00749826)
(0.014366 0.00439193 -0.00664601)
(0.00547572 -0.00275481 -0.00308161)
(0.00312684 0.000753837 -0.000927922)
(0.000256039 -0.00184061 0.0014885)
(-0.000337773 8.75729e-05 0.00214729)
(-0.00043156 0.000319502 0.00267254)
(0.000443044 0.00193345 0.00344984)
(0.00122744 0.00206005 0.00416219)
(0.00166533 0.00212216 0.00458737)
(0.00172681 0.0017003 0.00477439)
(0.00169085 0.00146129 0.00485148)
(0.00156599 0.00110016 0.00487583)
(0.00147581 0.000914515 0.00489236)
(0.00137834 0.000710612 0.00490656)
(0.00131694 0.000624151 0.00492109)
(0.00126584 0.000534164 0.00493705)
(0.00123949 0.000505385 0.00495419)
(0.00122103 0.000477541 0.00496732)
(0.00121298 0.000479592 0.00497935)
(0.00120865 0.000483682 0.00498868)
(0.00120716 0.000495735 0.00499552)
(0.00120562 0.000506835 0.00499572)
(0.00120393 0.000520764 0.00499284)
(0.00120142 0.000533987 0.00498735)
(0.00119677 0.000547563 0.00497799)
(0.00118773 0.000564031 0.00496269)
(0.00117802 0.000577591 0.00494474)
(0.00116674 0.000600088 0.00492272)
(0.00115111 0.000611698 0.00490285)
(0.00115748 0.000668793 0.00488893)
(0.00110381 0.000603125 0.00486582)
(0.00118839 0.000817994 0.00486911)
(0.00100318 0.000466008 0.00480469)
(0.00128162 0.00111404 0.00485192)
(0.000851706 8.20003e-05 0.00470785)
(0.0014834 0.00160293 0.00485698)
(0.000672393 -0.000687321 0.00456274)
(0.00187893 0.00232461 0.00492785)
(0.000423304 -0.00191885 0.00435232)
(0.00229428 0.00332979 0.00499745)
(1.40123e-05 -0.00315961 0.0041364)
(0.00116628 0.00477136 0.00433858)
(-0.000894575 -0.00336792 0.00399262)
(-0.0014774 0.0072428 0.00233108)
(-0.00015312 -0.00657336 0.00418084)
(0.00500642 0.00880205 0.00279642)
(0.00407281 -0.0173389 0.00438971)
(0.0178411 0.0146757 0.00472351)
(-0.00554246 -0.016657 0.00530232)
(0.022239 0.0336525 0.0362456)
(0.0200774 -0.0600116 0.0296427)
(0.0205933 0.0390638 0.0640698)
(-0.102898 -0.132841 0.041759)
(0.00670766 0.15721 -0.187648)
(0.115946 -0.285495 -0.0155654)
(0.208239 -0.0652027 -0.0260997)
(0.0859661 0.10899 -0.00377033)
(0.097024 0.0511973 0.00843777)
(0.0439338 0.0620684 0.0104232)
(0.0353876 0.0108206 0.00981222)
(-0.00310336 -0.0084142 0.00629585)
(-0.0101145 -0.0281777 0.000940089)
(-0.0121811 -0.0384541 -0.00453625)
(-0.0131945 -0.0405192 -0.0101788)
(-0.012722 -0.0356312 -0.0158851)
(-0.013366 -0.0209764 -0.021347)
(-0.0176468 0.00444704 -0.0215473)
(-0.0221479 0.0353297 -0.0210964)
(-0.0268699 0.0577286 -0.0192999)
(-0.0306799 0.0749302 -0.0177321)
(-0.0305435 0.0905097 -0.0143952)
(-0.0240879 0.0973603 -0.00931039)
(-0.0162229 0.0995917 -0.00333084)
(-0.0096897 0.0984191 0.00235734)
(-0.00486683 0.0936714 0.00641027)
(-0.0016338 0.0878358 0.00906303)
(0.000490744 0.0809134 0.0105109)
(0.00147098 0.0729816 0.0107855)
(0.00154389 0.0644706 0.0102657)
(0.000795861 0.0559602 0.00888523)
(-0.000972556 0.0473773 0.00686497)
(-0.0038632 0.039817 0.0042357)
(-0.00768694 0.0322332 0.00139592)
(-0.010945 0.0264221 -0.00108769)
(-0.011469 0.0214402 -0.0012728)
(-0.00822466 0.0179211 0.000987471)
(-0.00600242 0.0168351 0.00189186)
(-0.0068401 0.0187257 0.00536457)
(-0.0117821 0.0175754 0.0119343)
(-0.0192104 0.0166258 0.0211783)
(-0.0255291 0.00586237 0.0301872)
(0.0201392 0.0259046 0.00782763)
(0.0340634 0.0240417 0.00885067)
(0.0188442 0.00181167 -0.00142307)
(0.0276854 0.0117258 0.00437965)
(0.019884 -0.00716716 -0.00389969)
(0.0195123 0.00360746 -0.00723737)
(0.0126061 -0.00400147 -0.00583214)
(0.00682821 0.00172552 -0.00351527)
(0.0025938 -0.00274256 -0.000870734)
(-0.000414255 -0.0017996 -0.000288863)
(-0.00183022 -0.00235925 0.000583239)
(-0.00123819 -0.000425244 0.00188308)
(-8.92642e-05 0.000371594 0.00317459)
(0.000505122 0.00106875 0.00389803)
(0.000586327 0.00110698 0.00425996)
(0.000506957 0.00119459 0.00441803)
(0.000353504 0.0010444 0.00446449)
(0.000231959 0.00100008 0.00447088)
(0.000119221 0.000879433 0.00445423)
(4.89034e-05 0.000853436 0.00443134)
(5.72484e-06 0.000801465 0.00440371)
(-1.38702e-05 0.000801313 0.00437083)
(-1.90988e-05 0.000791331 0.00433049)
(-1.46603e-05 0.000799125 0.00429033)
(-4.20114e-07 0.000803947 0.0042493)
(1.95382e-05 0.00081536 0.0042088)
(4.15347e-05 0.00082731 0.00416469)
(6.46475e-05 0.000842749 0.00411955)
(8.69283e-05 0.000859676 0.0040741)
(0.00010745 0.000878244 0.00402928)
(0.000127017 0.000898086 0.00398835)
(0.000146342 0.000913871 0.00395132)
(0.000156814 0.000935207 0.00391158)
(0.000169095 0.000945519 0.00387339)
(0.000181283 0.000982436 0.00383516)
(0.000171939 0.000954731 0.00379834)
(0.000238394 0.0011113 0.00378152)
(0.000146206 0.000867858 0.00374313)
(0.000401049 0.0013957 0.00379489)
(0.000108203 0.000544918 0.003701)
(0.000719231 0.00186978 0.00387782)
(7.77951e-05 -8.2655e-05 0.0036503)
(0.00122535 0.00261987 0.00405297)
(7.86808e-06 -0.000873415 0.00355905)
(0.00151405 0.00375821 0.00414613)
(-0.000332248 -0.00119241 0.00333558)
(0.000200739 0.00554394 0.00340675)
(-0.00111725 -0.00124043 0.00307896)
(-0.000412982 0.0077542 0.00209635)
(0.000278847 -0.00630736 0.00378419)
(0.00711894 0.00974321 0.00265564)
(0.00437573 -0.0135497 0.00291428)
(0.0125681 0.014126 0.0025967)
(-0.00815961 -0.00879462 0.0123135)
(0.0198901 0.00465949 0.0471506)
(-0.000223186 -0.0372315 0.0493227)
(0.0148556 0.0141802 0.0838706)
(-0.0829859 -0.11052 0.0712675)
(0.0466273 -0.0301246 -0.192464)
(0.0586283 -0.285139 -0.00933013)
(0.172056 -0.00532883 -0.034131)
(0.0849023 0.144627 -0.0103448)
(0.075962 0.138591 0.0069895)
(0.0398578 0.142526 0.00379743)
(0.0248347 0.128692 -0.00103041)
(0.0112787 0.116588 -0.00756329)
(0.0043232 0.1133 -0.0123469)
(-0.00111327 0.112153 -0.0135416)
(-0.00841379 0.118327 -0.0143454)
(-0.013766 0.124895 -0.0143312)
(-0.0188873 0.135619 -0.0130474)
(-0.0192078 0.142754 -0.0107351)
(-0.0183777 0.150033 -0.00843539)
(-0.0179853 0.152151 -0.00540034)
(-0.0196944 0.155141 -0.00222429)
(-0.0167434 0.155951 0.0014739)
(-0.0134894 0.15393 0.00485761)
(-0.00963883 0.150944 0.00799995)
(-0.00602869 0.1468 0.0103887)
(-0.00349342 0.140483 0.0118306)
(-0.00202678 0.133384 0.0124528)
(-0.000676984 0.124957 0.0125194)
(0.000193751 0.115912 0.0119935)
(0.000385644 0.105432 0.0111707)
(6.20155e-05 0.0946216 0.0100091)
(-0.00109407 0.0826808 0.00908397)
(-0.00342348 0.070419 0.00820106)
(-0.00728971 0.0564013 0.00710438)
(-0.0114462 0.0429367 0.00616556)
(-0.0140592 0.0311924 0.00605947)
(-0.0136872 0.0221941 0.00636231)
(-0.0122287 0.016528 0.00690465)
(-0.0113262 0.0142082 0.00789381)
(-0.0148456 0.0123593 0.012297)
(-0.02221 0.0114862 0.0209284)
(-0.0296876 0.00336696 0.02911)
(0.0148014 0.0250755 0.00575831)
(0.0383021 0.0312363 0.0131283)
(0.0145157 -0.00222402 0.00744052)
(0.0224412 0.0108228 0.0128853)
(0.0166174 -0.0125801 0.00682568)
(0.0183859 -0.00166947 -0.00223474)
(0.0146034 -0.00703807 -0.0048245)
(0.00884915 0.000201145 -0.00390595)
(0.00482912 -0.00233823 -0.00090036)
(-0.000105803 -0.00174984 -0.000348605)
(-0.00281463 -0.00361664 -7.11032e-05)
(-0.00354403 -0.00247888 0.00073205)
(-0.00283893 -0.0014015 0.00204397)
(-0.00226917 -0.000236486 0.00289647)
(-0.00225135 0.000153993 0.00333264)
(-0.00239462 0.000604905 0.00352198)
(-0.00261371 0.00072421 0.00356346)
(-0.00277892 0.000915064 0.00353259)
(-0.00292403 0.000952838 0.0034681)
(-0.0029999 0.00104266 0.00340875)
(-0.00303402 0.00106813 0.00334851)
(-0.00302837 0.00112353 0.00329891)
(-0.00299584 0.00114684 0.00324583)
(-0.00294292 0.00118143 0.00319291)
(-0.00287464 0.00120611 0.0031389)
(-0.00280189 0.00123387 0.00309266)
(-0.00272749 0.00125858 0.00305123)
(-0.00265474 0.00128234 0.00301283)
(-0.00258413 0.00130269 0.00297699)
(-0.00251594 0.00131922 0.00294722)
(-0.00245349 0.00133418 0.0029219)
(-0.00239581 0.00134758 0.00290029)
(-0.00234712 0.00136534 0.00288085)
(-0.00229562 0.00137436 0.00286766)
(-0.0022576 0.00139795 0.00285613)
(-0.00222157 0.00138462 0.00285832)
(-0.00217174 0.00147231 0.00286789)
(-0.00219263 0.00130006 0.00289539)
(-0.00202485 0.00170329 0.00297129)
(-0.00217113 0.00102584 0.00301738)
(-0.00180238 0.00215295 0.00317679)
(-0.00216475 0.00059808 0.00316461)
(-0.00151753 0.00292138 0.00345423)
(-0.00222817 0.000243708 0.00331074)
(-0.00156763 0.0041545 0.00359162)
(-0.00252327 0.000376946 0.00323435)
(-0.00249696 0.00598127 0.00291811)
(-0.00273748 -0.000217265 0.00281554)
(-0.00111481 0.00803288 0.00245473)
(-0.00137723 -0.00579538 0.00366645)
(0.00491112 0.00951357 0.00419486)
(0.00103349 -0.00769248 0.00307543)
(0.00452043 0.014892 0.0018265)
(0.00711707 -0.00403065 0.00336001)
(0.00681245 -0.0106707 0.0356736)
(-0.01979 -0.0289535 0.0654345)
(0.00826104 -0.027454 0.103976)
(-0.0284358 -0.105708 0.093239)
(0.0409266 -0.16233 -0.187354)
(0.0357303 -0.282982 -0.0103557)
(0.0741814 0.0991945 -0.0273339)
(0.047123 0.228429 -0.00748658)
(0.0511827 0.253076 0.00537741)
(0.0414604 0.261457 0.00884742)
(0.0320526 0.257647 0.00969104)
(0.0216052 0.255815 0.00328921)
(0.0146666 0.253756 0.00178043)
(0.00818369 0.246076 -0.00021539)
(0.00119557 0.243813 0.00122329)
(-0.00355975 0.239309 0.000509806)
(-0.00802024 0.239563 0.00217202)
(-0.0103924 0.24142 0.00271745)
(-0.0126679 0.239211 0.00407356)
(-0.0137255 0.237307 0.00480316)
(-0.0133003 0.234409 0.00846743)
(-0.0123858 0.229824 0.00912389)
(-0.0114043 0.227322 0.0100205)
(-0.0102389 0.221887 0.0113192)
(-0.00801148 0.216102 0.0124288)
(-0.00492835 0.208155 0.0131404)
(-0.00211271 0.201095 0.0135008)
(0.000715105 0.193101 0.0133741)
(0.00338564 0.18456 0.0131745)
(0.00560729 0.174177 0.0126469)
(0.00768322 0.163929 0.0122731)
(0.0092864 0.151152 0.0123531)
(0.00962771 0.137011 0.0125246)
(0.00849091 0.119573 0.012513)
(0.00648318 0.100129 0.0124018)
(0.00327314 0.0788729 0.0113362)
(-0.000504819 0.0572113 0.0102419)
(-0.00488329 0.0375507 0.00607509)
(-0.0103087 0.0255875 0.00743491)
(-0.0194731 0.0150709 0.0130367)
(-0.032392 0.0102726 0.019589)
(-0.0468783 0.00219147 0.0248519)
(0.0110054 0.011515 0.00262749)
(0.0392033 0.0341118 0.0138923)
(0.00897745 -0.0020524 0.00790562)
(0.0149779 0.0154749 0.014296)
(0.00953221 -0.0115299 0.0112065)
(0.0104935 -0.00217697 0.00499547)
(0.00925284 -0.0101494 0.000629256)
(0.00711806 -0.00222676 -0.00334461)
(0.00445724 -0.00236938 -0.000727841)
(-3.00609e-05 -0.000962637 0.000123833)
(-0.00323364 -0.00356438 0.00053841)
(-0.00453203 -0.00329417 0.00115011)
(-0.00390331 -0.00291126 0.00216563)
(-0.00289284 -0.00178741 0.00317393)
(-0.00258978 -0.00107172 0.00376214)
(-0.00256589 -0.000274393 0.0040919)
(-0.00267425 0.000216728 0.00420535)
(-0.00272378 0.000682519 0.00426305)
(-0.0027703 0.000943035 0.00426371)
(-0.00275887 0.00119954 0.0042549)
(-0.00272166 0.00134825 0.00423508)
(-0.00265639 0.00149804 0.00422421)
(-0.00258269 0.00159109 0.00421078)
(-0.00250076 0.00167448 0.00419929)
(-0.00242321 0.00172388 0.00418472)
(-0.00234738 0.00175628 0.00418175)
(-0.00227148 0.00177616 0.00418978)
(-0.00219504 0.00179239 0.00420711)
(-0.002122 0.00180579 0.00422746)
(-0.00205437 0.00181772 0.00425181)
(-0.00199176 0.00182985 0.00427998)
(-0.00193054 0.001839 0.0043128)
(-0.0018771 0.00184979 0.00434851)
(-0.00181889 0.00185255 0.00439051)
(-0.00177443 0.00186384 0.00443359)
(-0.00172478 0.00185005 0.00448579)
(-0.00167992 0.00189539 0.00453704)
(-0.00165539 0.00178084 0.00460939)
(-0.00153031 0.00209313 0.00468967)
(-0.00158539 0.00158362 0.00477706)
(-0.0012998 0.00256638 0.00491099)
(-0.00150636 0.00137664 0.00496441)
(-0.00104211 0.00343315 0.00511517)
(-0.00149106 0.00149728 0.0050721)
(-0.0012263 0.00488881 0.00486805)
(-0.0017234 0.00181553 0.00473237)
(-0.00203521 0.00667043 0.00371455)
(-0.00190007 -0.000229912 0.00378681)
(-0.000561444 0.00816677 0.00376155)
(-0.000728281 -0.00730474 0.00461947)
(0.00270637 0.00866398 0.00667307)
(0.00253261 -0.00778493 0.00716403)
(0.00258362 0.0103748 0.0070858)
(0.0217336 -0.0110305 0.00383785)
(-0.00606442 -0.00165622 0.0423059)
(-0.0382728 -0.0427297 0.0753755)
(-0.0124289 -0.0229122 0.0964656)
(0.0322028 -0.0807635 0.0925712)
(-0.000925927 -0.164352 -0.173168)
(-0.00897896 -0.276184 -0.0112253)
(-0.034048 0.120721 -0.0272359)
(0.0130205 0.254554 -0.00761344)
(0.020284 0.290547 0.00975414)
(0.0287136 0.308672 0.010742)
(0.0268185 0.318013 0.01359)
(0.0225504 0.322071 0.0100517)
(0.0169122 0.323841 0.0100285)
(0.0114321 0.322749 0.00870155)
(0.00744244 0.321063 0.00985595)
(0.000382067 0.317931 0.00941264)
(-0.00269807 0.314288 0.0101232)
(-0.00630641 0.309823 0.0100606)
(-0.00936286 0.305363 0.0107219)
(-0.0113425 0.299088 0.0108246)
(-0.00925872 0.293537 0.0121771)
(-0.0104238 0.287526 0.0122725)
(-0.00987949 0.281757 0.0129528)
(-0.00732078 0.275141 0.0140945)
(-0.00451787 0.266093 0.014444)
(-0.00166487 0.259223 0.0136873)
(0.00168736 0.251114 0.0131618)
(0.00516534 0.243011 0.0125017)
(0.00838642 0.234209 0.0118356)
(0.0108307 0.226952 0.0111461)
(0.0131477 0.220319 0.0106504)
(0.0149859 0.213848 0.010706)
(0.0160551 0.207393 0.0114764)
(0.016192 0.199463 0.0131264)
(0.0154038 0.189776 0.0149647)
(0.0128791 0.178378 0.0170165)
(0.0087068 0.163942 0.0182177)
(0.00271501 0.144184 0.0180243)
(-0.00608478 0.121739 0.0169829)
(-0.0174889 0.0947328 0.0166715)
(-0.032288 0.0595275 0.0150642)
(-0.0442085 0.0161413 0.00878305)
(0.000396247 -0.00366751 -0.000162011)
(0.0378088 0.0303833 0.00768321)
(0.00101255 0.00320413 0.00211421)
(0.00928765 0.0237654 0.0107576)
(0.00243413 -0.00417972 0.00736882)
(0.00198759 0.00519746 0.0036743)
(0.00208478 -0.00801572 0.0019164)
(0.00273158 0.000114896 -0.00405334)
(0.00296121 -0.00147377 -0.00243398)
(-0.00102131 0.000791153 -0.00289154)
(-0.00430162 -0.0023938 -0.00242382)
(-0.00665463 -0.0029295 -0.00238257)
(-0.00663706 -0.00342079 -0.00180506)
(-0.00635259 -0.00264133 -0.000973317)
(-0.00638669 -0.0017524 -0.000272972)
(-0.00653017 -0.000716594 0.000180994)
(-0.00671616 2.76427e-07 0.000427692)
(-0.00685508 0.000654944 0.000570393)
(-0.00698268 0.00104979 0.000647869)
(-0.00705579 0.00137523 0.00068713)
(-0.00709221 0.00155676 0.000714151)
(-0.00708542 0.00170902 0.000739302)
(-0.00703893 0.0017869 0.000764455)
(-0.00694219 0.00183746 0.000805182)
(-0.00679927 0.00186426 0.000869234)
(-0.00665924 0.00189374 0.000942644)
(-0.00652472 0.00191524 0.00101905)
(-0.00639934 0.00193127 0.00110039)
(-0.00628292 0.00194466 0.00118831)
(-0.00617281 0.00195819 0.00127896)
(-0.00607154 0.00197208 0.00136916)
(-0.00597621 0.00198411 0.00145893)
(-0.00589374 0.00199837 0.00154752)
(-0.00581013 0.00200691 0.0016356)
(-0.00574411 0.00202468 0.00172138)
(-0.00567501 0.00202503 0.00180682)
(-0.00563439 0.00206716 0.00188647)
(-0.00557897 0.00200289 0.00197704)
(-0.0055653 0.00226264 0.00203024)
(-0.00548596 0.00189687 0.00216017)
(-0.00560403 0.0027708 0.00214429)
(-0.00541716 0.00188835 0.00234021)
(-0.00587369 0.00376705 0.00215899)
(-0.00547346 0.00234125 0.0023977)
(-0.00615157 0.00542871 0.00180024)
(-0.00536917 0.00280401 0.00196172)
(-0.00537989 0.00726631 0.000813369)
(-0.0044213 -0.000121016 0.00109406)
(-0.00227709 0.00872858 0.00177881)
(-0.00387299 -0.00906794 0.00175684)
(-0.00338463 0.00839442 0.00447882)
(-0.0010303 -0.007599 0.00625304)
(0.000260258 0.0123631 0.00611164)
(0.022265 -0.0119803 0.0111954)
(-0.0120886 0.0313052 0.0275845)
(-0.0447978 -0.0643964 0.0507432)
(-0.0571126 -0.0476606 0.0590486)
(0.0633837 -0.131768 0.0644377)
(-0.0303027 -0.0627664 -0.179597)
(-0.0453939 -0.273062 -0.0188103)
(-0.151364 0.0262847 -0.0383136)
(-0.0378726 0.17983 -0.00934504)
(-0.0159562 0.186134 0.00466229)
(0.00711328 0.207295 0.00655838)
(0.0119202 0.216121 0.00875069)