/*--------------------------------*- C++ -*----------------------------------*\
| =========                 |                                                 |
| \\      /  F ield         | OpenFOAM: The Open Source CFD Toolbox           |
|  \\    /   O peration     | Version:  2.3.0                                 |
|   \\  /    A nd           | Web:      www.OpenFOAM.org                      |
|    \\/     M anipulation  |                                                 |
\*---------------------------------------------------------------------------*/
FoamFile
{
    version     2.0;
    format      ascii;
    class       volVectorField;
    location    "13";
    object      U.waterMean;
}
// * * * * * * * * * * * * * * * * * * * * * * * * * * * * * * * * * * * * * //

dimensions      [0 1 -1 0 0 0 0];

internalField   nonuniform List<vector> 
6144
(
(0.00679265 0.0195237 -0.000401994)
(0.00680954 0.00594413 -0.000535935)
(0.00403596 0.0038795 -0.0012806)
(0.00417272 0.00197964 -0.00152776)
(0.00327292 0.000742821 -0.00146755)
(0.00343052 0.000859069 -0.00155062)
(0.00318425 0.000414027 -0.00168628)
(0.00333016 0.000680074 -0.00176496)
(0.00325824 0.0005854 -0.00195376)
(0.00338004 0.000833476 -0.00202365)
(0.00338004 0.000840989 -0.00209254)
(0.0034899 0.000907203 -0.0020892)
(0.00351539 0.000729543 -0.00214048)
(0.00358168 0.000611786 -0.002164)
(0.00359194 0.000391088 -0.00222985)
(0.00361932 0.000258386 -0.00226682)
(0.00362361 9.54115e-05 -0.00232044)
(0.00363296 7.30038e-06 -0.00235083)
(0.00363442 -9.12927e-05 -0.0023854)
(0.00363807 -0.00014181 -0.00240552)
(0.00363797 -0.000194208 -0.00242555)
(0.00363927 -0.000221622 -0.00243753)
(0.00363861 -0.000247697 -0.00244814)
(0.0036384 -0.000262594 -0.0024548)
(0.00363744 -0.000274941 -0.00245993)
(0.00363637 -0.000283855 -0.00246307)
(0.00363503 -0.000289214 -0.00246511)
(0.00363338 -0.000298463 -0.00246562)
(0.00363287 -0.000294768 -0.00246541)
(0.00362924 -0.000324531 -0.00246332)
(0.00363109 -0.000286936 -0.0024612)
(0.00362436 -0.000384743 -0.00245631)
(0.00363155 -0.000260547 -0.0024508)
(0.00361985 -0.000507571 -0.00244234)
(0.00363556 -0.000221087 -0.00243034)
(0.00361776 -0.000731346 -0.00241669)
(0.0036438 -0.000194998 -0.00239599)
(0.00362096 -0.00109743 -0.00237922)
(0.00365229 -0.000225063 -0.0023562)
(0.0036326 -0.00161589 -0.00235663)
(0.00364417 -0.000291039 -0.00237154)
(0.00363293 -0.00213121 -0.00244026)
(0.00361934 -6.18874e-05 -0.00255552)
(0.0036241 -0.00221412 -0.00269889)
(0.00361091 0.000979231 -0.00282393)
(0.00367348 -0.00177434 -0.00289367)
(0.00376401 0.0023525 -0.00314763)
(0.00323848 -0.000719228 -0.00373657)
(0.00139243 0.00906682 -0.00451046)
(0.00211911 0.00867447 -0.00492116)
(0.00500622 0.0170165 -0.00525343)
(0.00980685 0.00575033 -0.00531355)
(0.0174079 0.00837153 -0.00687939)
(0.0210408 -0.0281618 -0.00712959)
(0.0220957 -0.0167474 -0.0102149)
(0.0218742 -0.0635192 -0.00700616)
(0.0135415 -0.0172874 -0.018772)
(0.0165131 -0.0805527 0.0171576)
(-0.0231319 0.0284038 -0.0461508)
(0.019689 -0.0527139 0.038231)
(0.12155 -0.280426 0.0684017)
(0.0874017 -0.0954886 0.0358814)
(0.0592923 -0.185012 0.0147145)
(0.0456077 -0.180012 0.00676936)
(0.0369901 -0.191352 0.00510113)
(0.029858 -0.171781 0.00450585)
(0.0236026 -0.178868 0.00323177)
(0.0194036 -0.163689 0.00314902)
(0.0167466 -0.165545 0.00389059)
(0.014496 -0.153269 0.00487341)
(0.0120587 -0.152939 0.00566393)
(0.00922943 -0.142482 0.00601614)
(0.00605538 -0.135591 0.00623152)
(0.00173093 -0.121124 0.00583908)
(-0.00358678 -0.105955 0.0057461)
(-0.00593728 -0.0868866 0.00523265)
(-0.00453959 -0.0722108 0.00291962)
(-0.00394773 -0.0590644 0.00101918)
(-0.00342824 -0.0477647 0.00032921)
(0.000962904 -0.0386851 -0.00109734)
(0.0054038 -0.0335862 -0.0015143)
(0.0073622 -0.0303232 -0.00162215)
(0.00854781 -0.0282033 -0.000817807)
(0.00868236 -0.0273552 -0.000913364)
(0.00805464 -0.0251033 -0.00200804)
(0.00746674 -0.0225034 -0.00194308)
(0.00671928 -0.0197079 -0.0021613)
(0.0055559 -0.0156522 -0.00249319)
(0.00237239 -0.0104156 -0.0031715)
(-0.000438657 0.000686906 -0.00336314)
(0.00177996 0.0106618 -0.00287581)
(0.00327879 0.0179213 -0.00231924)
(0.00346577 0.0232327 0.00181678)
(0.00385321 0.022308 0.00709175)
(0.00441252 0.0171917 0.0098892)
(0.0064571 0.0082782 0.0128602)
(0.0138364 0.0206302 0.00300737)
(0.0148777 0.00911051 0.00294113)
(0.00862612 0.0063024 0.00136217)
(0.00941117 0.00462274 0.00110327)
(0.00673626 0.00275676 0.00113812)
(0.00726278 0.00299458 0.000945779)
(0.00647219 0.00205202 0.000923591)
(0.00682785 0.00231581 0.000814192)
(0.00658372 0.0018688 0.000616342)
(0.0068693 0.0020329 0.000526642)
(0.00681978 0.00184279 0.000410424)
(0.00712446 0.00183362 0.000460109)
(0.00715806 0.0015147 0.000401685)
(0.00734038 0.00131504 0.000400864)
(0.00733343 0.000991004 0.000307475)
(0.00740209 0.000803872 0.00026924)
(0.0073835 0.000577897 0.000191655)
(0.00740172 0.000456967 0.000158393)
(0.00738726 0.000323011 0.000111612)
(0.00738857 0.000253123 9.14154e-05)
(0.00737856 0.000181032 6.86395e-05)
(0.00737486 0.000142267 5.98517e-05)
(0.00736753 0.000104996 5.22092e-05)
(0.00736211 8.32608e-05 5.10388e-05)
(0.00735586 6.45587e-05 5.1954e-05)
(0.00735002 5.1219e-05 5.60359e-05)
(0.00734419 4.17818e-05 6.16819e-05)
(0.00733814 2.97346e-05 6.95476e-05)
(0.0073343 2.93918e-05 7.89874e-05)
(0.00732535 -2.2663e-06 9.03654e-05)
(0.00732824 3.35e-05 0.000103596)
(0.00731108 -7.44457e-05 0.000118684)
(0.00732952 5.94903e-05 0.000139006)
(0.00729853 -0.000221631 0.000158717)
(0.00734294 0.000101699 0.000191573)
(0.00729493 -0.0004901 0.000219018)
(0.00737221 0.00013228 0.000266164)
(0.00730718 -0.000936358 0.000297658)
(0.00741152 0.000106018 0.000342179)
(0.00733169 -0.00159141 0.00033301)
(0.00739751 2.99781e-05 0.000289031)
(0.00727162 -0.00228326 0.000127189)
(0.00719367 0.00026069 -0.00013546)
(0.00698831 -0.00240391 -0.00049058)
(0.00687408 0.00164135 -0.000860826)
(0.00683409 -0.00136589 -0.00117963)
(0.00614845 0.00448188 -0.00176921)
(0.00358571 0.00290348 -0.00246701)
(0.0020892 0.0125384 -0.00227421)
(0.00624163 0.0054213 -0.00197413)
(0.0135322 0.00949722 -0.000900402)
(0.0201785 -0.013165 -0.000187249)
(0.0369307 -0.0121271 0.00199975)
(0.0456066 -0.0518227 0.00611686)
(0.0422663 -0.0390671 0.0069323)
(0.0470903 -0.0984181 0.0110739)
(0.019599 -0.0545821 0.00726246)
(0.0122672 -0.16389 0.0373664)
(-0.0675838 0.0342909 -0.09201)
(0.0020049 -0.0864346 0.00993015)
(0.157209 -0.262205 0.112984)
(0.081777 -0.00149763 0.0447983)
(0.0269909 -0.113879 0.00835204)
(0.0220268 -0.0486333 0.010579)
(0.0119646 -0.0742312 0.0114217)
(0.00450191 -0.0510168 0.00830349)
(-0.000158376 -0.0582504 0.00716547)
(0.000125835 -0.0409481 0.00910832)
(0.00145591 -0.0421266 0.0117278)
(0.000709105 -0.0309018 0.00924089)
(-0.00176978 -0.0321047 0.00941444)
(-0.0048852 -0.0255025 0.0102891)
(-0.00764211 -0.0267769 0.00854307)
(-0.00946498 -0.0222201 0.0054402)
(-0.00976111 -0.0212654 0.00361711)
(-0.0062707 -0.0170088 0.00241381)
(-0.00132711 -0.0156912 0.00057714)
(0.0019888 -0.0121044 0.00127818)
(0.00519391 -0.0115757 0.00182666)
(0.00920961 -0.0102266 0.00280339)
(0.0119411 -0.00967538 0.00267514)
(0.0138751 -0.00770474 0.00325697)
(0.0148077 -0.00889102 0.00468264)
(0.0127133 -0.0116821 0.00492753)
(0.00894776 -0.013519 0.004664)
(0.00582434 -0.0147776 0.00549939)
(0.00407767 -0.0151981 0.00630017)
(0.00185028 -0.0154692 0.00614215)
(0.000176714 -0.0153817 0.0055322)
(-0.00178369 -0.0148276 0.0036097)
(-0.00204975 -0.012107 0.00156532)
(0.000474128 -0.00613734 -0.00233114)
(0.00283583 0.00454624 -0.000236371)
(0.00369217 0.00895922 0.007475)
(0.00320805 0.00878454 0.0126961)
(0.00579711 0.00393405 0.0169181)
(0.0162312 0.0189936 0.0042574)
(0.0186279 0.00980126 0.00427435)
(0.00999878 0.00621626 0.00222746)
(0.0117332 0.00596241 0.00209033)
(0.00766052 0.00326551 0.00236555)
(0.00849178 0.00393209 0.00236217)
(0.00710829 0.00262721 0.00255541)
(0.00764591 0.00298769 0.00259387)
(0.00714896 0.00230918 0.00248811)
(0.00750316 0.00245184 0.00248389)
(0.00733558 0.00209217 0.00235536)
(0.00777023 0.00210981 0.00243081)
(0.00778388 0.00168489 0.00240615)
(0.00803565 0.00148632 0.00243901)
(0.00798552 0.00109969 0.00238351)
(0.00806483 0.000912857 0.00237645)
(0.00800546 0.000660821 0.00233193)
(0.00801635 0.000542165 0.00232519)
(0.00797388 0.000398755 0.0023048)
(0.00796226 0.000331389 0.00230673)
(0.00793334 0.000256682 0.00230445)
(0.00791646 0.000219161 0.00231388)
(0.00789476 0.000182015 0.00232277)
(0.00787693 0.000161347 0.00233702)
(0.00785844 0.0001433 0.00235211)
(0.0078412 0.000131327 0.00236953)
(0.00782433 0.000122217 0.00238768)
(0.00780785 0.00011121 0.00240703)
(0.0077934 0.000110371 0.00242717)
(0.00777572 8.28432e-05 0.00244791)
(0.00777051 0.000114119 0.00246961)
(0.00774356 1.67254e-05 0.00249151)
(0.0077607 0.000141087 0.00251668)
(0.00771711 -0.000120768 0.00253934)
(0.00777374 0.000188457 0.00257165)
(0.00771006 -0.000373947 0.00259555)
(0.00781984 0.000231759 0.00263642)
(0.00773631 -0.000800062 0.00265899)
(0.00789789 0.00023365 0.00269392)
(0.00778357 -0.00142396 0.00268249)
(0.00791177 0.000215952 0.00264072)
(0.00769435 -0.00210596 0.00248897)
(0.00757866 0.000482887 0.00224248)
(0.00718473 -0.00227533 0.00191251)
(0.00698687 0.00191328 0.00149231)
(0.00672378 -0.000761913 0.0010051)
(0.00569132 0.00585343 0.000322004)
(0.00412344 0.00272073 -0.000321184)
(0.00527205 0.00908637 -0.000524835)
(0.0136114 -0.00436669 -0.000452569)
(0.0256281 -0.00075652 0.00131782)
(0.0390107 -0.0250364 0.00135624)
(0.0543223 -0.0196729 0.00658153)
(0.061225 -0.053262 0.0118801)
(0.0603324 -0.0325716 0.0183098)
(0.0690924 -0.097314 0.0228367)
(0.0314241 -0.0359655 0.0296147)
(0.0463026 -0.188477 0.0744822)
(-0.0740341 0.067545 -0.0753655)
(0.0237763 -0.11838 -0.0188959)
(0.181078 -0.238773 0.125947)
(0.0985956 0.048549 0.0509547)
(0.0614228 -0.0968225 0.024295)
(0.0423384 0.00281802 0.00818957)
(0.0249811 -0.0396797 0.0134063)
(0.0154637 -0.0115007 0.0133701)
(0.00894922 -0.0278567 0.016382)
(0.00415404 -0.0145816 0.0131053)
(0.00424317 -0.0143376 0.0102613)
(0.00451425 -0.000830966 0.00764068)
(0.00242686 -0.00110198 0.00576194)
(-0.0015164 0.00726725 0.00560482)
(-0.00352309 0.00741578 0.00442838)
(-0.00457757 0.0122742 0.00361081)
(-0.00481243 0.0125218 0.00425739)
(-0.0016921 0.0136539 0.00492012)
(0.00100398 0.0123025 0.00431533)
(0.00287737 0.0113636 0.00445096)
(0.00466364 0.00758963 0.00473817)
(0.00680786 0.00480059 0.00505562)
(0.00942841 0.00251649 0.00518385)
(0.0109053 0.00160347 0.0057545)
(0.0120045 -0.00102156 0.00873377)
(0.0100643 -0.00511255 0.0109304)
(0.00497907 -0.0095127 0.0112576)
(0.000409411 -0.0124798 0.0117377)
(-0.00201866 -0.0132727 0.0112572)
(-0.00420507 -0.0138855 0.0107054)
(-0.00597119 -0.0146558 0.0101163)
(-0.00715621 -0.0151371 0.00861191)
(-0.00737735 -0.0150041 0.00737471)
(-0.00693797 -0.0132258 0.00488951)
(-0.00487964 -0.00742802 0.00489153)
(-0.00295364 -0.00324107 0.00826217)
(-0.00259825 -0.000664213 0.0133289)
(-0.00296903 -0.00177363 0.0177493)
(0.0166691 0.0177828 0.00473489)
(0.0212648 0.01054 0.00469803)
(0.00994178 0.00556744 0.00167214)
(0.0136508 0.00733491 0.00141666)
(0.00794551 0.00317974 0.0017527)
(0.00925331 0.00479951 0.00186483)
(0.00701104 0.00259103 0.00251431)
(0.00770854 0.00347257 0.00273176)
(0.00685172 0.00248128 0.00289869)
(0.00731556 0.00287754 0.00300421)
(0.00693624 0.00233838 0.00294823)
(0.00744866 0.00247266 0.00310181)
(0.00739435 0.00193565 0.00315687)
(0.00767677 0.00178852 0.00323771)
(0.00756279 0.00132342 0.00322256)
(0.00763759 0.00115871 0.00323941)
(0.00753186 0.000862662 0.00322054)
(0.00753084 0.000752566 0.00323053)
(0.0074582 0.00058903 0.00322713)
(0.00743341 0.000524742 0.00324164)
(0.00738492 0.000441765 0.00325077)
(0.00735603 0.00040453 0.0032692)
(0.00732081 0.000364222 0.00328552)
(0.00729239 0.000343185 0.00330612)
(0.00726354 0.000323646 0.00332608)
(0.0072369 0.000311471 0.00334723)
(0.00721145 0.000301454 0.00336854)
(0.00718691 0.000291511 0.00338997)
(0.00716457 0.000288557 0.00341119)
(0.00714118 0.000265254 0.00343201)
(0.00713003 0.000290811 0.00345241)
(0.00709821 0.000205525 0.00347253)
(0.00711436 0.000318438 0.00349372)
(0.00706532 7.84388e-05 0.00351283)
(0.00713268 0.000372099 0.00353693)
(0.00705985 -0.000158548 0.00355493)
(0.00719881 0.000436453 0.00358345)
(0.0070983 -0.000549397 0.00359729)
(0.00730792 0.000505306 0.00361661)
(0.00716622 -0.00108415 0.0036014)
(0.0073676 0.00063701 0.00355108)
(0.00708065 -0.00166866 0.00342356)
(0.00700814 0.000956468 0.0032103)
(0.00633136 -0.00211663 0.00297419)
(0.0057169 0.00189731 0.00277205)
(0.00504484 -0.00128771 0.00261306)
(0.00471875 0.00465864 0.00231206)
(0.00447808 -0.000287628 0.00193108)
(0.00990262 0.00336445 0.00208655)
(0.0198749 -0.0115521 0.00198254)
(0.0333185 -0.00842157 0.00477635)
(0.0496426 -0.026868 0.00744034)
(0.0608782 -0.012243 0.0189714)
(0.0650036 -0.0379172 0.0294968)
(0.0618846 -0.00117018 0.0454371)
(0.0686014 -0.0749536 0.0500343)
(0.0352656 0.0382951 0.0866755)
(0.0705247 -0.213972 0.12488)
(-0.0996889 0.199428 -0.0538644)
(0.0248096 -0.21113 0.0133493)
(0.152921 -0.203986 0.138882)
(0.0690182 0.0729064 0.040598)
(0.037297 -0.0595226 0.0232758)
(0.00563907 0.0499857 -0.000740364)
(0.00483658 0.0064045 0.0114334)
(-0.00555539 0.0373157 0.0075581)
(-0.00830291 0.0254803 0.00722876)
(-0.0108928 0.0413155 0.00532488)
(-0.00969675 0.0373961 0.00365846)
(-0.00863198 0.0494836 0.00288371)
(-0.00855705 0.0464725 0.00284296)
(-0.00874479 0.0515857 0.00227663)
(-0.00760354 0.0494812 0.00241245)
(-0.00625153 0.0510615 0.00237538)
(-0.00307374 0.0475664 0.00234846)
(2.12296e-05 0.0454084 0.00178019)
(0.00307712 0.0418984 0.00146692)
(0.0055084 0.0378212 0.0027703)
(0.00763109 0.0314793 0.00401518)
(0.00877425 0.0263297 0.00450678)
(0.00861801 0.0215988 0.0045996)
(0.00841764 0.0194708 0.00595357)
(0.0089604 0.0154234 0.00956116)
(0.00659434 0.0103017 0.0108528)
(-0.000149965 0.00599887 0.0111133)
(-0.00738879 0.00104575 0.012403)
(-0.0110287 -0.000798199 0.0116358)
(-0.0129221 -0.00284134 0.0103227)
(-0.0137419 -0.00505533 0.00905388)
(-0.0134879 -0.00667637 0.00776517)
(-0.0131794 -0.00774799 0.00629404)
(-0.0131005 -0.00800664 0.00469019)
(-0.0120243 -0.0051354 0.00597671)
(-0.0107391 -0.00363723 0.00975655)
(-0.0127849 -0.00273006 0.0130029)
(-0.0151388 -0.0023247 0.0166085)
(0.0156791 0.0171114 0.00535676)
(0.0231439 0.0121755 0.00554583)
(0.00954617 0.00494805 0.00100769)
(0.0154137 0.00912966 0.000957558)
(0.00862739 0.00279356 0.000452984)
(0.0105219 0.00563716 0.000554338)
(0.00692859 0.00204038 0.00145173)
(0.00744944 0.00343318 0.00191236)
(0.00583198 0.001816 0.00239161)
(0.00625168 0.00258144 0.00274425)
(0.00562859 0.00195802 0.00290913)
(0.00616267 0.00243222 0.00326868)
(0.00597643 0.00189463 0.00345294)
(0.00622933 0.00188819 0.00363127)
(0.00600333 0.00139621 0.00365622)
(0.00603301 0.00129957 0.00370574)
(0.00585372 0.000981376 0.00369701)
(0.00581542 0.00090042 0.00371742)
(0.00569824 0.000722779 0.00371793)
(0.00564637 0.000669474 0.00373623)
(0.00557201 0.000580709 0.00374624)
(0.00552441 0.000546772 0.00376547)
(0.00547275 0.000504524 0.0037807)
(0.00543073 0.000483849 0.00379955)
(0.00539053 0.000463699 0.00381685)
(0.00535435 0.000451214 0.00383512)
(0.00532037 0.000440895 0.00385224)
(0.00528903 0.000431959 0.00386874)
(0.00526039 0.000427482 0.00388446)
(0.00523278 0.000408568 0.00389793)
(0.00521724 0.00042929 0.00390951)
(0.00518586 0.000356641 0.00391923)
(0.00520036 0.000457017 0.0039291)
(0.00515407 0.000242357 0.00393354)
(0.00522882 0.000517256 0.00394327)
(0.0051615 2.93033e-05 0.00394246)
(0.00532434 0.000608034 0.00395262)
(0.00522024 -0.000301832 0.00393828)
(0.00547185 0.000768698 0.00393391)
(0.00531274 -0.00069396 0.00388831)
(0.00560066 0.00110389 0.00383205)
(0.00532751 -0.00105506 0.00372421)
(0.00546129 0.00158124 0.00356441)
(0.00478304 -0.00175361 0.00335715)
(0.00415117 0.00176829 0.00320857)
(0.00314025 -0.00245389 0.00323624)
(0.00285424 0.00239933 0.00336086)
(0.00418396 -0.00361674 0.00362446)
(0.0118735 -0.00206937 0.00365296)
(0.0231487 -0.0140638 0.00469806)
(0.0376915 -0.00714432 0.00854168)
(0.0523318 -0.0154395 0.0136869)
(0.0588759 0.00544192 0.0255759)
(0.0569513 -0.0166292 0.0359525)
(0.049558 0.0231513 0.0598111)
(0.0465967 -0.0391957 0.0665089)
(0.0421437 0.0935749 0.105973)
(0.0615684 -0.14565 0.123337)
(-0.0535436 0.339067 -0.00658339)
(0.022534 -0.269124 0.022447)
(0.126329 -0.176059 0.147925)
(0.047375 0.0807366 0.0398255)
(0.0332128 -0.0215097 0.0295887)
(0.00806365 0.0667143 0.000445144)
(0.0127018 0.0432672 0.00731221)
(0.00248604 0.074217 0.00723606)
(0.000821329 0.0642054 0.00836181)
(-0.00217362 0.0788329 0.00594116)
(-0.00139794 0.0724081 0.00392207)
(-0.000313223 0.0810026 0.00253234)
(0.00120184 0.0758824 0.0018369)
(0.00134753 0.0774619 0.00090702)
(0.0032379 0.0730179 0.00107149)
(0.00472084 0.0708909 0.00077108)
(0.00753435 0.0670232 0.000961411)
(0.00896585 0.0637693 0.000830908)
(0.0112777 0.0603292 0.00135368)
(0.0125574 0.0567659 0.00288228)
(0.0133139 0.0519208 0.00524647)
(0.0136196 0.0466102 0.00665355)
(0.0129904 0.0414109 0.0078079)
(0.0108475 0.0350897 0.00986636)
(0.00981245 0.029445 0.0116882)
(0.00540397 0.0246856 0.0111109)
(-0.0022622 0.0210271 0.00871768)
(-0.00980901 0.018192 0.00559445)
(-0.0131556 0.0142453 0.0042806)
(-0.0138781 0.0111385 0.00278231)
(-0.0145724 0.00731498 0.00198591)
(-0.0149067 0.00455293 0.00236394)
(-0.0152418 0.00285299 0.00259751)
(-0.0159856 0.00117835 0.0030147)
(-0.0165125 0.0016068 0.00559111)
(-0.01646 -0.00018049 0.0091001)
(-0.0201308 -9.87465e-05 0.0123281)
(-0.0276184 -0.0023098 0.0147026)
(0.0133112 0.0162463 0.00552885)
(0.0241782 0.0148419 0.00677332)
(0.00863179 0.00423222 0.00102908)
(0.0162553 0.0108967 0.00177609)
(0.00952498 0.00188607 5.47926e-05)
(0.0118447 0.00633148 -0.000229219)
(0.00769309 0.00140144 0.000260586)
(0.00757912 0.0035333 0.00085181)
(0.00524236 0.000899007 0.00150017)
(0.00515022 0.00189399 0.00204545)
(0.00403515 0.00100933 0.00246598)
(0.00449082 0.00185194 0.00313663)
(0.00429006 0.00139401 0.00356842)
(0.0045584 0.00167298 0.00391449)
(0.00427051 0.00122459 0.00403444)
(0.00426941 0.0012757 0.00414598)
(0.00404907 0.000975674 0.0041695)
(0.00399346 0.000964311 0.00420781)
(0.00385947 0.000794148 0.00421518)
(0.00380159 0.000774663 0.00423284)
(0.00372618 0.000693181 0.00423713)
(0.00368156 0.000674026 0.00424704)
(0.00363595 0.000637437 0.00424942)
(0.00360094 0.000623148 0.00425381)
(0.0035694 0.000606924 0.00425526)
(0.00354202 0.000598026 0.00425659)
(0.00351768 0.000591064 0.00425666)
(0.00349682 0.000585896 0.00425636)
(0.00347826 0.00058481 0.00425456)
(0.00346229 0.000573936 0.00425204)
(0.00345743 0.000594932 0.00424937)
(0.00344289 0.000539877 0.00424344)
(0.00347004 0.000634198 0.00424221)
(0.00344762 0.000455298 0.00423358)
(0.00353786 0.000721517 0.00423173)
(0.00350066 0.000299813 0.00421862)
(0.00367789 0.000875311 0.00421467)
(0.00359432 7.61978e-05 0.00418341)
(0.00384741 0.00116211 0.00415024)
(0.00367325 -0.00014136 0.00406287)
(0.00394334 0.00168638 0.00394894)
(0.00366873 -0.000338352 0.00378067)
(0.00400198 0.00220837 0.00362416)
(0.00348156 -0.00138589 0.00345175)
(0.00298963 0.00153958 0.00334721)
(0.00182792 -0.00352928 0.00344177)
(0.00183091 0.000743877 0.00379122)
(0.00392199 -0.00687889 0.00444683)
(0.0122226 -0.00457299 0.00503417)
(0.0213537 -0.0117945 0.00863005)
(0.0346529 0.00103437 0.0153335)
(0.0446305 0.00179385 0.0211951)
(0.0520286 0.0254894 0.0333088)
(0.0527677 0.00620983 0.0447277)
(0.0401648 0.0349882 0.0633988)
(0.0331514 -0.0342738 0.0681607)
(0.0367518 0.0684307 0.0887535)
(0.0402158 -0.12993 0.0809606)
(0.0295968 0.337167 0.056349)
(0.0221158 -0.285546 0.0271111)
(0.0655987 -0.150537 0.145975)
(0.0139747 0.0973554 0.0250326)
(0.00879906 0.00889288 0.0211146)
(-0.00859642 0.0937511 -0.00155559)
(-0.00659409 0.0832467 0.00677472)
(-0.0083906 0.111274 0.00642726)
(-0.00549224 0.103401 0.00736943)
(-0.00319099 0.117073 0.00646706)
(0.000395154 0.108369 0.00572542)
(0.00390537 0.114191 0.00487287)
(0.00782981 0.106979 0.00437515)
(0.00990969 0.107344 0.00332407)
(0.0128534 0.101125 0.00288792)
(0.0142151 0.0993331 0.00308832)
(0.0163562 0.0936833 0.00415931)
(0.0175563 0.0897864 0.00541384)
(0.0190559 0.0840131 0.00666271)
(0.0197313 0.0794487 0.0082827)
(0.0196919 0.0738033 0.0106572)
(0.0182214 0.0657754 0.0121588)
(0.0154336 0.0574796 0.0113362)
(0.0112761 0.0498083 0.00940464)
(0.00764044 0.0443051 0.00725967)
(0.00247489 0.040195 0.00254619)
(-0.00346106 0.0371465 -0.000594944)
(-0.00833353 0.0338017 -0.00246365)
(-0.0107267 0.0306482 -0.00212769)
(-0.0122021 0.026604 -0.00173535)
(-0.0127839 0.0227603 -0.000773137)
(-0.0137072 0.0191117 0.00103204)
(-0.0154988 0.0153137 0.00354898)
(-0.0173157 0.0123427 0.00629617)
(-0.0194938 0.00935268 0.0101943)
(-0.021575 0.00328188 0.0129726)
(-0.0280329 0.00067172 0.0131773)
(-0.0335288 -0.00181802 0.0114098)
(0.00871914 0.0144867 0.00560308)
(0.0241586 0.0184765 0.00816413)
(0.00551947 0.00291809 0.00211329)
(0.0150409 0.0126597 0.00387771)
(0.00835445 0.000755884 0.0014873)
(0.011498 0.00656841 0.000613201)
(0.00743238 0.000740679 0.000358649)
(0.00723882 0.00365552 0.000789978)
(0.00426916 0.000205392 0.00135787)
(0.0035317 0.0013375 0.00190813)
(0.00172757 3.87956e-05 0.00224711)
(0.00186864 0.00109525 0.00298663)
(0.00132951 0.000655793 0.0035189)
(0.00152617 0.00124027 0.00398437)
(0.00106472 0.000854822 0.00415715)
(0.000992479 0.00109919 0.00431136)
(0.000663227 0.000853397 0.00434665)
(0.000557718 0.000954709 0.00439673)
(0.000359473 0.000820055 0.0043981)
(0.000269651 0.000860478 0.00441353)
(0.000167813 0.000801242 0.00440963)
(0.000109949 0.00081178 0.00441322)
(5.83785e-05 0.000789311 0.00440773)
(2.46708e-05 0.000788599 0.00440565)
(-1.17002e-06 0.000781624 0.00440008)
(-1.85356e-05 0.000780501 0.0043949)
(-3.02195e-05 0.000779397 0.00438849)
(-3.61317e-05 0.000779471 0.00438261)
(-3.77569e-05 0.000782689 0.00437728)
(-3.39128e-05 0.000778203 0.00437312)
(-2.26875e-05 0.000800918 0.00437091)
(-1.41669e-05 0.000763096 0.00436786)
(2.49482e-05 0.00085495 0.00437096)
(2.12121e-05 0.000713531 0.00436893)
(0.000118908 0.0009729 0.00438191)
(9.57037e-05 0.000614284 0.00438367)
(0.000278091 0.00118204 0.00440784)
(0.000205521 0.000472545 0.00439689)
(0.00047466 0.00153792 0.00439338)
(0.000321084 0.000310852 0.00429217)
(0.000701336 0.00204553 0.00416997)
(0.000573224 -3.06094e-05 0.00390953)
(0.00129219 0.00232875 0.00378054)
(0.0011052 -0.00141057 0.0036183)
(0.000928612 0.00111033 0.00365983)
(-0.00043446 -0.00413904 0.00373654)
(-0.000374961 6.11122e-05 0.00412723)
(0.00187841 -0.00821554 0.00520277)
(0.00681833 -0.00483539 0.0065707)
(0.0136123 -0.00796201 0.0109419)
(0.0207814 0.0122912 0.0182174)
(0.0278914 0.020748 0.0234897)
(0.0352836 0.0487735 0.0346007)
(0.0359129 0.037374 0.0463786)
(0.034462 0.0688556 0.0624015)
(0.0266231 -0.0133656 0.0631863)
(0.0271043 0.0801161 0.0691425)
(0.0215602 -0.126908 0.0526171)
(0.0137672 0.316148 0.0621459)
(0.00925745 -0.291065 0.0345199)
(0.0159155 -0.129291 0.12739)
(-0.0149161 0.0979782 0.0276132)
(-0.0158569 0.0325252 0.0115994)
(-0.0206659 0.119079 -0.00624902)
(-0.0139624 0.104873 0.0079561)
(-0.00793776 0.130754 0.00823856)
(-0.00297333 0.122183 0.0109644)
(0.00149708 0.133833 0.0100114)
(0.00668225 0.125678 0.00987842)
(0.00982936 0.130243 0.00827981)
(0.0143555 0.12341 0.00875263)
(0.01609 0.124315 0.00739093)
(0.0191778 0.118926 0.00878154)
(0.0199646 0.117054 0.00854884)
(0.0223658 0.110986 0.0105019)
(0.0228633 0.105516 0.0112368)
(0.0236884 0.0989765 0.0130737)
(0.0229778 0.091045 0.0136163)
(0.022323 0.0844655 0.0141418)
(0.0211084 0.0770124 0.014474)
(0.0197499 0.0707919 0.0134898)
(0.0164799 0.0634753 0.0106188)
(0.0130759 0.0571553 0.00562067)
(0.00855072 0.0523996 -0.000645154)
(0.00319531 0.0499621 -0.00610939)
(-0.00165987 0.0460308 -0.0110052)
(-0.00550002 0.0426875 -0.0133388)
(-0.00856404 0.0397363 -0.0133583)
(-0.0115932 0.035669 -0.0117865)
(-0.0146133 0.032166 -0.0079638)
(-0.0172371 0.0270879 -0.00371443)
(-0.0192337 0.0215033 0.00132233)
(-0.0207887 0.0143248 0.00570589)
(-0.0244681 0.0059237 0.00980374)
(-0.0334828 0.000108188 0.0129041)
(-0.0460195 -0.00430295 0.00823631)
(0.00164639 0.00840151 0.00416049)
(0.0227416 0.0223653 0.00848349)
(0.00125922 0.00144139 0.00274038)
(0.0118786 0.0153631 0.00566497)
(0.00568932 6.84776e-05 0.00345119)
(0.00940108 0.00716941 0.00245865)
(0.0056476 -1.56922e-07 0.00181477)
(0.00613364 0.00371529 0.00161304)
(0.00318284 -0.000273916 0.00208265)
(0.00185789 0.00101717 0.00259304)
(-0.000440031 -0.000804933 0.0029481)
(-0.000351504 0.00035294 0.00364466)
(-0.00094258 -0.000302693 0.00421036)
(-0.000621093 0.000520643 0.00478606)
(-0.00109089 0.0002181 0.00504753)
(-0.00112844 0.000716851 0.00527228)
(-0.00146741 0.000579396 0.00534699)
(-0.00153428 0.000848597 0.00543862)
(-0.00171383 0.000791767 0.00547157)
(-0.00176222 0.000925777 0.00552262)
(-0.00183122 0.000915931 0.00554951)
(-0.0018493 0.000977765 0.0055869)
(-0.00186447 0.000988808 0.00561381)
(-0.00185968 0.00101675 0.005647)
(-0.00184822 0.00103146 0.00567721)
(-0.00182793 0.00104726 0.00570923)
(-0.00180196 0.00105892 0.00574119)
(-0.00177086 0.00106868 0.00577455)
(-0.00173714 0.00107926 0.00580864)
(-0.00169773 0.00108389 0.00584532)
(-0.0016525 0.00110949 0.00588349)
(-0.00160769 0.00108771 0.00592341)
(-0.00153266 0.00117515 0.00597115)
(-0.00149308 0.0010676 0.00601714)
(-0.00135028 0.00131905 0.00608034)
(-0.00132471 0.00103535 0.00613049)
(-0.00109031 0.00161367 0.00619577)
(-0.00112036 0.00103461 0.00620921)
(-0.000790277 0.00211153 0.00620854)
(-0.000890903 0.00101899 0.00607615)
(-0.000416863 0.00266672 0.00587807)
(-0.000506656 0.000559927 0.00548634)
(0.000288275 0.00258747 0.00521315)
(0.000181177 -0.00129852 0.00502145)
(-0.00028364 0.000846031 0.00513063)
(-0.00224942 -0.00507768 0.00534404)
(-0.00199684 -0.00257057 0.00547217)
(0.000890862 -0.0118614 0.00642131)
(0.00326541 -0.00572188 0.00791939)
(0.000717307 -0.00377735 0.0153954)
(0.0014673 0.0247825 0.0226015)
(0.00644316 0.0408481 0.0268896)
(0.0156323 0.0743996 0.0356529)
(0.0246932 0.0756746 0.0460213)
(0.0361973 0.101743 0.0638625)
(0.0408501 0.0590246 0.072365)
(0.0582046 0.125465 0.0932213)
(0.0349534 -0.094154 0.07535)
(0.0359757 0.317699 0.0273102)
(-0.00805057 -0.305015 0.0282152)
(-0.0522623 -0.0891794 0.0930376)
(-0.0424593 0.143716 0.0012491)
(-0.0425787 0.0788066 0.00569565)
(-0.0318938 0.149869 -0.00787021)
(-0.0236412 0.121572 0.00732989)
(-0.00994886 0.138326 0.00772083)
(-0.00511357 0.12778 0.0107309)
(0.00281224 0.136767 0.0122778)
(0.00904318 0.134104 0.0143877)
(0.0144891 0.141587 0.0152544)
(0.0185419 0.140609 0.0157584)
(0.0212754 0.144809 0.0152279)
(0.0237602 0.143858 0.0153527)
(0.0258035 0.143795 0.015633)
(0.0282576 0.140251 0.0165499)
(0.0302224 0.135157 0.0174144)
(0.0312719 0.129398 0.0186725)
(0.0310967 0.122169 0.0194433)
(0.0302342 0.115535 0.0199455)
(0.0293221 0.108599 0.0201299)
(0.0278286 0.10309 0.0190846)
(0.0246918 0.0980462 0.0159619)
(0.0204648 0.0959396 0.0115966)
(0.0154598 0.0957544 0.00605383)
(0.0119003 0.0978177 0.0024132)
(0.00679241 0.0972682 -0.000693885)
(0.00169974 0.095755 -0.00296684)
(-0.00255593 0.0926208 -0.00362047)
(-0.00662066 0.0888329 -0.00198442)
(-0.0093125 0.0828824 0.00162646)
(-0.0119139 0.0752896 0.00552373)
(-0.0141463 0.0658569 0.00900285)
(-0.0176649 0.0555132 0.00975807)
(-0.0251732 0.0419231 0.0068643)
(-0.0392514 0.0261454 -0.00453618)
(-0.0507403 0.00672561 -0.0233351)
(-0.00738353 0.00475981 -0.00436475)
(0.0205611 0.0263521 0.00551552)
(-0.0044844 0.00140808 -0.000766769)
(0.00728425 0.0191074 0.0033588)
(0.00159327 0.000614398 0.00210666)
(0.00564361 0.00890756 0.00120595)
(0.00245664 -8.65262e-05 0.000585414)
(0.00375168 0.00441603 -0.000269159)
(0.0011576 -0.000305701 -0.000100666)
(-0.000496584 0.00109719 -0.000139786)
(-0.00348916 -0.00126667 1.80342e-05)
(-0.00369044 -1.10345e-05 0.000573609)
(-0.00466144 -0.000817862 0.00110335)
(-0.0046274 0.000168977 0.00168123)
(-0.00526153 -5.61628e-05 0.00201303)
(-0.00536419 0.000606463 0.00227819)
(-0.0057549 0.000536458 0.00240366)
(-0.00585053 0.000896006 0.00252488)
(-0.00605693 0.000873879 0.00259011)
(-0.00612513 0.00104552 0.00266297)
(-0.00621269 0.00105125 0.00271454)
(-0.00624809 0.0011269 0.00277303)
(-0.00627563 0.00114622 0.00282224)
(-0.00628356 0.00117867 0.00287678)
(-0.00628108 0.00119607 0.00292965)
(-0.00626781 0.00121373 0.00298462)
(-0.00624771 0.00122832 0.00303981)
(-0.00622287 0.001242 0.00309528)
(-0.00619621 0.00125701 0.00315004)
(-0.00616449 0.0012663 0.00320504)
(-0.00613267 0.00129131 0.00325904)
(-0.00609838 0.00127879 0.00331505)
(-0.0060483 0.00135946 0.00337203)
(-0.00603313 0.00127726 0.00343112)
(-0.00594891 0.00151986 0.0034915)
(-0.00598972 0.00129962 0.00355121)
(-0.00584073 0.00188964 0.00359401)
(-0.00591948 0.00143417 0.00361237)
(-0.00563641 0.0025527 0.00356325)
(-0.00568949 0.00164128 0.00342085)
(-0.00506638 0.00329093 0.00315235)
(-0.00478798 0.00130187 0.00280979)
(-0.00355049 0.00295399 0.00263823)
(-0.00330717 -0.00119311 0.00279985)
(-0.00302152 -4.17552e-05 0.00283526)
(-0.00359051 -0.00652022 0.00259205)
(-0.00216392 -0.00414129 0.00277312)
(-0.00236039 -0.00861216 0.00133615)
(-0.00936135 0.0079372 0.00273445)
(-0.019697 0.0126664 0.0126059)
(-0.0272326 0.032823 0.022181)
(-0.0240863 0.0393172 0.0286029)
(-0.0143935 0.0663811 0.0302034)
(-0.00114887 0.0630123 0.0307018)
(0.00664763 0.105552 0.0440431)
(0.0229581 0.0545112 0.0476611)
(0.0611993 0.136229 0.0695369)
(0.0531442 -0.0484866 0.081215)
(0.0858116 0.338183 0.0280738)
(-0.0187977 -0.284888 0.0197068)
(-0.105495 -0.130388 0.0788323)
(-0.0586081 0.137238 0.00319737)
(-0.0567251 0.0339982 0.00893842)
(-0.0273588 0.116256 -0.00269566)
(-0.0215437 0.0584261 0.0129861)
(-0.0083143 0.0792868 0.0104238)
(-0.00504158 0.0571689 0.0128213)
(0.00269021 0.0634385 0.0133916)