/*--------------------------------*- C++ -*----------------------------------*\
| =========                 |                                                 |
| \\      /  F ield         | OpenFOAM: The Open Source CFD Toolbox           |
|  \\    /   O peration     | Version:  2.3.0                                 |
|   \\  /    A nd           | Web:      www.OpenFOAM.org                      |
|    \\/     M anipulation  |                                                 |
\*---------------------------------------------------------------------------*/
FoamFile
{
    version     2.0;
    format      ascii;
    class       volVectorField;
    location    "13";
    object      U.waterMean;
}
// * * * * * * * * * * * * * * * * * * * * * * * * * * * * * * * * * * * * * //

dimensions      [0 1 -1 0 0 0 0];

internalField   nonuniform List<vector> 
6144
(
(0.00679045 0.0199627 -0.00047052)
(0.00673181 0.00653732 -0.000647816)
(0.00417558 0.00450764 -0.0015575)
(0.00425584 0.00253206 -0.00177782)
(0.00342732 0.00140486 -0.00178831)
(0.00357042 0.00140928 -0.00185136)
(0.00333112 0.000988966 -0.00197951)
(0.00347341 0.00118502 -0.00203994)
(0.00339077 0.00106324 -0.00216479)
(0.00351391 0.00122904 -0.00220844)
(0.00350599 0.00114825 -0.0022714)
(0.00360833 0.00114399 -0.00227923)
(0.00361367 0.000935816 -0.00233661)
(0.00367202 0.000812587 -0.00236247)
(0.00367042 0.000596588 -0.00242256)
(0.00369452 0.000474107 -0.00245306)
(0.00369263 0.000317696 -0.00249937)
(0.00369959 0.000233918 -0.00252368)
(0.0036985 0.000137188 -0.0025533)
(0.00369985 8.64731e-05 -0.00257)
(0.00369865 3.28033e-05 -0.00258761)
(0.00369838 3.31969e-06 -0.00259824)
(0.00369722 -2.47459e-05 -0.00260815)
(0.00369623 -4.16999e-05 -0.00261473)
(0.00369496 -5.58444e-05 -0.00262018)
(0.00369366 -6.52667e-05 -0.00262404)
(0.00369217 -7.24184e-05 -0.00262703)
(0.00369057 -7.74378e-05 -0.0026292)
(0.00368887 -8.09252e-05 -0.00263075)
(0.00368703 -8.40278e-05 -0.0026317)
(0.00368543 -8.31908e-05 -0.00263225)
(0.00368246 -9.20549e-05 -0.0026318)
(0.00368256 -7.6176e-05 -0.00263125)
(0.00367545 -0.000116426 -0.00262973)
(0.00368143 -4.60977e-05 -0.00262702)
(0.00366734 -0.000179891 -0.00262542)
(0.00368116 2.62571e-05 -0.00261917)
(0.00366111 -0.000316733 -0.00261896)
(0.00367786 0.000167087 -0.00260526)
(0.0036581 -0.000569123 -0.00260863)
(0.00367451 0.000401213 -0.00257927)
(0.00365608 -0.000988446 -0.00258787)
(0.00366835 0.000731076 -0.00253124)
(0.00365777 -0.00162792 -0.00254771)
(0.00364658 0.00114568 -0.00247107)
(0.00364461 -0.0025457 -0.00246635)
(0.00360068 0.00179864 -0.00243395)
(0.00356756 -0.00375741 -0.00237285)
(0.00354587 0.00319978 -0.00259437)
(0.00339927 -0.00508736 -0.00248059)
(0.0037958 0.00656571 -0.00309881)
(0.00277379 -0.00761984 -0.00277941)
(0.00329607 0.0146153 -0.00383544)
(0.00367271 -0.00959356 -0.00503479)
(0.00653886 0.0359262 -0.00586378)
(0.0040788 -0.0328354 -0.00962118)
(0.0124338 0.0571478 -0.00421286)
(0.0144904 -0.0668863 -0.021934)
(-0.0386265 0.0952834 -0.0870827)
(0.0275517 -0.110766 -0.120116)
(0.106509 -0.228789 -0.017072)
(0.0724031 -0.0506435 -0.00401596)
(0.0309246 -0.146248 -0.00162263)
(0.029753 -0.125401 1.99497e-05)
(0.0247932 -0.144243 0.000390192)
(0.0152922 -0.131593 0.00289667)
(0.00999065 -0.145289 0.00369684)
(0.00608683 -0.13524 0.00344139)
(0.00359288 -0.138911 0.00275774)
(0.0016305 -0.128727 0.00193719)
(0.000294873 -0.127362 0.00108895)
(-0.000459347 -0.117682 0.000317533)
(-0.000592699 -0.11386 -0.00041596)
(-0.000400979 -0.105627 -0.00107593)
(-4.86688e-05 -0.100972 -0.00167215)
(0.000333127 -0.0943373 -0.00219627)
(0.000714397 -0.0894561 -0.00266581)
(0.00109235 -0.0841339 -0.00305956)
(0.00146389 -0.0795047 -0.0033572)
(0.0017902 -0.0750326 -0.00354868)
(0.00203964 -0.0705002 -0.00364539)
(0.0021804 -0.0657094 -0.00370048)
(0.00211329 -0.0604255 -0.00375905)
(0.00187696 -0.0545627 -0.00375092)
(0.00142562 -0.0482345 -0.00378396)
(0.00105528 -0.0413325 -0.00372511)
(0.000647674 -0.0340512 -0.00385156)
(0.000575457 -0.0261218 -0.00387069)
(0.00051612 -0.0181479 -0.0041367)
(0.00102301 -0.00990701 -0.00401156)
(0.0027133 -0.00409107 -0.00383726)
(0.0043986 -0.00105541 -0.00490218)
(0.00535007 0.00051887 -0.00549493)
(0.0059711 0.00165962 -0.00516028)
(0.00671436 0.00196135 -0.00460973)
(0.00706422 0.00102203 -0.00372232)
(0.0137882 0.0211884 0.00307157)
(0.0147379 0.00963905 0.00291932)
(0.00896741 0.00692391 0.00118087)
(0.00955742 0.00513925 0.000949998)
(0.0071681 0.00345739 0.000795574)
(0.0076112 0.00346133 0.000656253)
(0.00686974 0.00258862 0.000552978)
(0.00720657 0.00272513 0.000477208)
(0.00693721 0.00228636 0.000286051)
(0.00723564 0.00238528 0.000240598)
(0.00716285 0.00211973 0.000139647)
(0.00745144 0.00204728 0.000184102)
(0.00743327 0.00169978 0.00010841)
(0.00759462 0.00150478 0.000102253)
(0.00755812 0.00119062 1.16242e-05)
(0.00761933 0.00101988 -1.81233e-05)
(0.00758696 0.000802596 -8.85606e-05)
(0.0076011 0.000688822 -0.000114482)
(0.00758004 0.000557023 -0.000156874)
(0.00757785 0.000487381 -0.000173714)
(0.00756428 0.000413973 -0.000195257)
(0.00755802 0.000372431 -0.000203577)
(0.00754869 0.000332955 -0.000211942)
(0.00754169 0.000308408 -0.000214304)
(0.00753418 0.000287686 -0.00021519)
(0.00752739 0.00027339 -0.00021337)
(0.00752051 0.000262206 -0.000210244)
(0.00751375 0.000254146 -0.000205809)
(0.00750705 0.00024826 -0.000200419)
(0.00750028 0.000242873 -0.000194105)
(0.00749401 0.00024059 -0.000186886)
(0.00748587 0.000231487 -0.000178353)
(0.00748242 0.00024295 -0.000168988)
(0.00746774 0.000204456 -0.000158962)
(0.00747418 0.000271679 -0.000145613)
(0.00744688 0.000129741 -0.000135745)
(0.00746926 0.000351233 -0.00011523)
(0.00742566 -3.58531e-05 -0.000107548)
(0.00746363 0.0005114 -7.54707e-05)
(0.0074063 -0.000338059 -7.08159e-05)
(0.00745719 0.000779904 -1.5997e-05)
(0.00738824 -0.000840378 -1.40502e-05)
(0.00744632 0.00116881 8.10762e-05)
(0.00735752 -0.00161001 6.85752e-05)
(0.00739601 0.00164383 0.000192666)
(0.00726597 -0.00271716 0.000193065)
(0.00723319 0.00231117 0.000216472)
(0.00697166 -0.00408944 0.000212637)
(0.00681593 0.00374421 -0.00020417)
(0.00633804 -0.00477613 -0.000336862)
(0.00643504 0.00773438 -0.00122968)
(0.00479636 -0.00486358 -0.00107539)
(0.00358813 0.0162173 -0.000870532)
(0.00344641 -0.0105682 -0.000896602)
(0.0156133 0.0337482 0.000490902)
(0.0261315 -0.037854 -0.0016402)
(-0.0126227 0.0323563 0.00641519)
(-0.00678773 -0.0243684 -0.0118559)
(0.0222096 0.163655 -0.013248)
(0.143041 -0.127454 -0.0708443)
(0.153321 -0.221337 -0.00717681)
(0.0541629 0.089764 0.00866524)
(-0.0192484 -0.120704 0.00935799)
(-0.00685777 -0.0600518 0.00881494)
(-0.0107277 -0.0907287 0.00919677)
(-0.0170372 -0.0922594 0.0107842)
(-0.0176953 -0.107283 0.00992468)
(-0.0173966 -0.1017 0.00867755)
(-0.0161044 -0.109647 0.00700246)
(-0.0148616 -0.103397 0.00536548)
(-0.0132382 -0.105283 0.0038605)
(-0.0115872 -0.0981091 0.00261607)
(-0.00971524 -0.096252 0.00141344)
(-0.00790759 -0.0898547 0.000331492)
(-0.00603844 -0.0867589 -0.000624515)
(-0.00413321 -0.0814368 -0.00135628)
(-0.0020474 -0.0772989 -0.00188908)
(-0.000291194 -0.0721326 -0.00222114)
(0.000742269 -0.0671552 -0.00236575)
(0.00104733 -0.062087 -0.00234529)
(0.000808821 -0.057006 -0.0022203)
(0.000270561 -0.0519224 -0.00202797)
(-0.000353158 -0.0468505 -0.00176753)
(-0.000857203 -0.0417868 -0.00142947)
(-0.00129811 -0.0368407 -0.00113614)
(-0.00191182 -0.03196 -0.000960566)
(-0.00248739 -0.0270253 -0.000997527)
(-0.00295391 -0.0217532 -0.00098663)
(-0.00301489 -0.0163736 -0.0012282)
(-0.00190801 -0.0105247 -0.000617976)
(0.000287007 -0.00565778 0.00028959)
(0.00287611 -0.00248871 -0.000196115)
(0.00493953 -0.000410945 -0.000809898)
(0.00611288 0.00103981 -0.000491293)
(0.00685127 0.00140717 0.00052689)
(0.00739345 0.0010933 0.00160187)
(0.016042 0.0195167 0.00449181)
(0.0182615 0.0102714 0.00453101)
(0.0102925 0.00686621 0.00240009)
(0.0117732 0.00646098 0.00231967)
(0.00817162 0.00404573 0.00235336)
(0.00895163 0.00441306 0.00235735)
(0.00765645 0.00317383 0.00237977)
(0.00817814 0.00333272 0.00241558)
(0.00763061 0.00264092 0.00224201)
(0.00803402 0.00271937 0.00224987)
(0.00784402 0.00229863 0.00213786)
(0.00825745 0.00225884 0.00221591)
(0.00819634 0.00180932 0.00216879)
(0.00841907 0.00162719 0.00219303)
(0.00833637 0.00125317 0.00212931)
(0.00841173 0.00108999 0.00212393)
(0.0083412 0.00084867 0.00207774)
(0.00835177 0.000741093 0.00207253)
(0.00830463 0.000601313 0.00205041)
(0.00829184 0.000536288 0.00205184)
(0.00826009 0.000461271 0.0020474)
(0.00824165 0.00042236 0.00205523)
(0.00821808 0.000383566 0.00206179)
(0.00819888 0.00036081 0.00207397)
(0.00817882 0.000341119 0.00208694)
(0.00816012 0.000328176 0.00210224)
(0.00814139 0.000317987 0.0021183)
(0.00812293 0.000310803 0.00213532)
(0.00810463 0.000305482 0.00215296)
(0.00808638 0.000301101 0.00217113)
(0.0080683 0.000299123 0.00218939)
(0.00804928 0.000291655 0.00220779)
(0.00803327 0.000301663 0.0022265)
(0.00800966 0.00026824 0.00224488)
(0.00800236 0.000329326 0.00226539)
(0.00796702 0.000198213 0.0022824)
(0.00797663 0.000408353 0.00230855)
(0.00792118 3.81575e-05 0.0023211)
(0.00795584 0.000570372 0.0023569)
(0.00787431 -0.000259408 0.00236182)
(0.00794148 0.000844502 0.00241788)
(0.00783041 -0.000764815 0.00241341)
(0.00793961 0.00124474 0.00250448)
(0.00776756 -0.00156654 0.00247045)
(0.00790822 0.00175583 0.00259971)
(0.00762971 -0.00274741 0.0025281)
(0.00769571 0.00242638 0.00253589)
(0.0071703 -0.00416328 0.00245472)
(0.00680077 0.00389635 0.00179018)
(0.00607999 -0.00454457 0.00158046)
(0.00618252 0.00862559 0.000559449)
(0.00530464 -0.00454864 0.00116662)
(0.00548758 0.0161026 0.00223478)
(0.00358775 -0.0195463 0.00143322)
(0.0217191 0.0260783 0.00304899)
(0.0323673 -0.0461177 0.0015385)
(-0.0455727 0.0616237 0.0234182)
(-0.0549933 -0.110775 -0.00404984)
(-0.0425177 0.163275 -0.0417967)
(0.149597 -0.13189 -0.0419659)
(0.179932 -0.189626 0.000788125)
(0.0715907 0.124799 0.00838264)
(0.0633976 -0.117023 0.0117932)
(0.0257188 -0.0319886 0.0142952)
(0.00293316 -0.0708774 0.0135358)
(-0.00434011 -0.0687707 0.0123285)
(-0.00953953 -0.0820454 0.009564)
(-0.0134509 -0.07575 0.00723088)
(-0.0150721 -0.0826926 0.0045243)
(-0.0155562 -0.0757417 0.00232548)
(-0.0147393 -0.0769677 0.000369221)
(-0.0123851 -0.0698771 -0.00124985)
(-0.00870723 -0.0678709 -0.00276789)
(-0.00595387 -0.0607268 -0.00416062)
(-0.00394375 -0.0558203 -0.00497915)
(-0.00268357 -0.047901 -0.00564)
(-0.00171369 -0.0399449 -0.00588749)
(-0.000846767 -0.0315088 -0.00513175)
(0.000145625 -0.0254445 -0.00357852)
(0.000929066 -0.021643 -0.00197895)
(0.00123115 -0.0201377 -0.000607546)
(0.000947539 -0.0200142 0.000450143)
(0.000204554 -0.0204437 0.0011839)
(-0.000789424 -0.0206834 0.00155551)
(-0.00182869 -0.0202886 0.00159707)
(-0.00288367 -0.0191112 0.00139862)
(-0.00389532 -0.0171379 0.0011571)
(-0.00461365 -0.0144998 0.000878127)
(-0.00519498 -0.011233 0.000269405)
(-0.00475253 -0.0077078 0.000565589)
(-0.00220605 -0.00484657 0.00163725)
(0.00069673 -0.00297756 0.00180174)
(0.00263289 -0.0010923 0.00202404)
(0.00380922 0.000326098 0.00298476)
(0.00466288 0.000905005 0.00403645)
(0.00533408 0.000591633 0.00464736)
(0.016134 0.0178567 0.00493429)
(0.0205296 0.0106771 0.00500926)
(0.0098908 0.0061414 0.00215648)
(0.0131639 0.00764276 0.00190122)
(0.00820734 0.00411425 0.00213335)
(0.00960409 0.00538178 0.00224944)
(0.00758239 0.00341633 0.00263837)
(0.00835267 0.00397116 0.00281084)
(0.00744769 0.0029341 0.00281858)
(0.00795154 0.00319317 0.00290164)
(0.00753348 0.00257544 0.00284801)
(0.00803704 0.00262946 0.00299222)
(0.00788511 0.00204261 0.0030123)
(0.00814103 0.00190397 0.00307448)
(0.00798546 0.00144115 0.00304548)
(0.0080587 0.00130252 0.00305967)
(0.00793843 0.0010132 0.00303621)
(0.00793762 0.00091911 0.0030452)
(0.00785837 0.000758854 0.00303827)
(0.00783205 0.000699894 0.003051)
(0.00777956 0.00061717 0.00305706)
(0.0077484 0.000580357 0.00307352)
(0.00771032 0.000539021 0.0030875)
(0.00767968 0.000517033 0.00310629)
(0.00764847 0.000496328 0.00312465)
(0.00761952 0.000483377 0.00314446)
(0.00759098 0.00047294 0.00316437)
(0.00756308 0.00046573 0.00318471)
(0.00753566 0.000460293 0.00320517)
(0.0075087 0.000455966 0.00322575)
(0.00748226 0.000453628 0.00324635)
(0.00745557 0.000447448 0.00326682)
(0.00743134 0.000454848 0.00328729)
(0.00740278 0.000427108 0.00330703)
(0.0073882 0.000480554 0.00332721)
(0.0073502 0.000361455 0.0033459)
(0.00735252 0.000557785 0.00336851)
(0.00729637 0.000208417 0.0033814)
(0.00732596 0.000719579 0.0034116)
(0.00724243 -8.51774e-05 0.00341236)
(0.00731466 0.000995527 0.00346449)
(0.00720093 -0.000594948 0.00344262)
(0.00733231 0.00138885 0.00353893)
(0.00714296 -0.00142782 0.00346578)
(0.0073771 0.00187268 0.00362962)
(0.00697273 -0.00267499 0.0034668)
(0.00725476 0.00242337 0.00354946)
(0.00643546 -0.00422169 0.00331185)
(0.00621491 0.00345675 0.00267589)
(0.00511229 -0.00567275 0.00238149)
(0.00557036 0.00656377 0.00200489)
(0.00538498 -0.00862093 0.00306527)
(0.00669109 0.00929284 0.0053663)
(0.00530995 -0.023539 0.00262038)
(0.0213621 0.0222727 0.00632126)
(0.0220512 -0.0368283 0.003456)
(-0.00206139 0.0870222 0.0186648)
(-0.0649083 -0.133958 0.0131459)
(-0.0513008 0.213246 -0.0916533)
(0.162931 -0.183538 -0.0177226)
(0.198145 -0.169553 0.00684138)
(0.0720991 0.111529 0.00207113)
(0.0712161 -0.0376522 0.00913224)
(-0.01935 0.0509138 0.015784)
(-0.0145975 -0.0324046 0.0179549)
(-0.0163306 -0.0180601 0.0104569)
(-0.0179365 -0.0394926 0.00510038)
(-0.0181841 -0.0347998 0.00052825)
(-0.0161222 -0.0413655 -0.00280981)
(-0.0136628 -0.0328648 -0.00556911)
(-0.0115952 -0.0308567 -0.00847024)
(-0.0100603 -0.0173384 -0.0103502)
(-0.00790134 -0.00478573 -0.0107371)
(-0.00603079 0.00885454 -0.00866997)
(-0.00426204 0.0165837 -0.00676093)
(-0.00231632 0.0229372 -0.00494349)
(0.000214228 0.0253563 -0.00298699)
(0.00269573 0.0252341 -0.00115887)
(0.00450256 0.0228261 0.000197685)
(0.0052134 0.018982 0.00113884)
(0.00482907 0.0145705 0.00162925)
(0.00347921 0.00987056 0.00181587)
(0.00150801 0.00542426 0.0017775)
(-0.000724914 0.00150027 0.00156382)
(-0.00293144 -0.00145484 0.00123208)
(-0.00491967 -0.00330188 0.000815625)
(-0.00666036 -0.00412993 0.00028591)
(-0.00799703 -0.00409083 -0.00021435)
(-0.00792559 -0.00360789 -0.000148781)
(-0.00622974 -0.00334558 0.000727983)
(-0.00359638 -0.00340983 0.00175979)
(-0.00149813 -0.00281144 0.00227059)
(-0.000227585 -0.00179804 0.00304583)
(0.000489515 -0.00106236 0.00405753)
(0.00100158 -0.000604143 0.00497726)
(0.00158432 -0.000429749 0.00538253)
(0.0148091 0.016611 0.00549331)
(0.0221336 0.0118393 0.00563433)
(0.00887993 0.00537572 0.00142391)
(0.0143628 0.00921398 0.00114362)
(0.00821218 0.00384292 0.000959032)
(0.0102937 0.00618762 0.00117437)
(0.00716833 0.00303925 0.00182657)
(0.00800634 0.00407176 0.00223367)
(0.00642383 0.00246847 0.00252688)
(0.00696736 0.00310677 0.00282501)
(0.00628115 0.00236179 0.0029483)
(0.00681482 0.00269604 0.00326968)
(0.00651384 0.00204422 0.00339668)
(0.00675104 0.00203045 0.00354779)
(0.0064839 0.00151443 0.00355274)
(0.00652482 0.00143775 0.00359924)
(0.00633508 0.00111723 0.00358613)
(0.00630469 0.00105307 0.00360765)
(0.00618451 0.00087646 0.00360696)
(0.00613458 0.000831269 0.00362541)
(0.00605751 0.000742675 0.00363396)
(0.00600857 0.000711021 0.00365299)
(0.00595354 0.000668221 0.00366831)
(0.00590849 0.00064748 0.00368845)
(0.0058641 0.000626668 0.00370743)
(0.00582301 0.000614174 0.00372739)
(0.00578327 0.000603818 0.00374613)
(0.00574504 0.0005965 0.00376429)
(0.00570802 0.000590599 0.00378173)
(0.00567197 0.000585722 0.00379835)
(0.00563656 0.000582719 0.00381358)
(0.00560176 0.000576876 0.00382817)
(0.00556848 0.000582419 0.0038421)
(0.00553386 0.000557969 0.003855)
(0.00550929 0.000606391 0.0038684)
(0.00546817 0.000495938 0.00387895)
(0.00545935 0.000682522 0.00389323)
(0.00540531 0.000349686 0.00389534)
(0.00542562 0.000843783 0.0039141)
(0.00534748 6.15907e-05 0.00389938)
(0.00542592 0.00112078 0.0039401)
(0.00531379 -0.000444645 0.00389216)
(0.00548377 0.00151717 0.00398183)
(0.00529901 -0.00125194 0.00386817)
(0.00560299 0.00199543 0.00402275)
(0.00522089 -0.00236739 0.00378951)
(0.00554164 0.00254288 0.00382519)
(0.00488357 -0.00352776 0.00349105)
(0.00487679 0.00349278 0.00285137)
(0.00409181 -0.00520107 0.00292959)
(0.00574524 0.00476308 0.00350036)
(0.00577996 -0.0110453 0.00702735)
(0.00715164 0.00838912 0.0100668)
(-0.000556188 -0.0229188 0.00956726)
(0.0195605 0.0261218 0.0301434)
(0.0119427 -0.0524832 0.0277135)
(0.00118525 0.047678 0.0613037)
(-0.0968712 -0.130193 0.0423346)
(-0.000583471 0.175973 -0.167854)
(0.115715 -0.241897 -0.00393693)
(0.177403 -0.122161 0.00991697)
(0.0628841 0.110048 -0.00175958)
(0.0657776 0.0275148 0.00362563)
(0.0181928 0.0762453 0.00433201)
(0.0162299 0.0276477 0.0033945)
(-0.00303415 0.0401639 -0.00141218)
(-0.00577483 0.0275908 -0.00519017)
(-0.0084685 0.039264 -0.0076184)
(-0.00896123 0.0414778 -0.00998383)
(-0.0102239 0.0577053 -0.0100925)
(-0.0100501 0.0638452 -0.0087226)
(-0.00891865 0.0741688 -0.00599102)
(-0.00552829 0.0762945 -0.00354976)
(-0.0022299 0.0788795 -0.00117104)
(0.00109523 0.077254 0.000732798)
(0.00378935 0.0755282 0.00229669)
(0.00611164 0.0716425 0.00343602)
(0.00775273 0.0670777 0.0040661)
(0.00881027 0.0617574 0.00419069)
(0.00912927 0.0554666 0.00387926)
(0.0085633 0.0489413 0.00325636)
(0.0072789 0.0419816 0.00240404)
(0.00537387 0.0350238 0.00143656)
(0.00311412 0.028178 0.000501464)
(0.000710247 0.0218792 -0.00024703)
(-0.00145496 0.0162432 -0.000717214)
(-0.00316003 0.0115458 -0.000894759)
(-0.00427216 0.00729499 -0.000658684)
(-0.00456653 0.00374482 -9.23027e-05)
(-0.00403134 0.00100679 0.000781262)
(-0.00336945 -0.000472289 0.00151261)
(-0.00318027 -0.000953368 0.00199331)
(-0.00336139 -0.000756186 0.00246422)
(-0.00415134 -0.000411429 0.00284822)
(-0.0049339 8.99342e-05 0.00336457)
(-0.00609243 -0.000157871 0.00353543)
(0.0121227 0.0153836 0.00572551)
(0.0227401 0.0141264 0.00657151)
(0.00760918 0.00473602 0.000938254)
(0.0150436 0.0110938 0.00126596)
(0.00873183 0.00328502 3.96876e-05)
(0.0113956 0.00710448 0.000252749)
(0.00747629 0.0024917 0.00068085)
(0.00794226 0.00417966 0.00126239)
(0.00564001 0.00153953 0.00174556)
(0.00582796 0.0025243 0.00226966)
(0.00468436 0.00155214 0.0026743)
(0.00519989 0.00230715 0.00329237)
(0.00482456 0.00166359 0.00363291)
(0.00504411 0.00190265 0.00393383)
(0.00469769 0.00138597 0.00402659)
(0.00470372 0.00144189 0.00413269)
(0.00446812 0.00111718 0.00415311)
(0.00441874 0.0011161 0.00419525)
(0.00427911 0.000938133 0.00420466)
(0.00422245 0.000924426 0.00422671)
(0.00414272 0.000839056 0.00423441)
(0.00409558 0.000820819 0.0042485)
(0.00404513 0.000781854 0.00425467)
(0.00400531 0.000766537 0.00426319)
(0.00396774 0.000749093 0.00426874)
(0.0039345 0.000739828 0.00427524)
(0.00390428 0.000732458 0.00428158)
(0.00387621 0.000727898 0.00428703)
(0.0038496 0.000724447 0.00429103)
(0.0038243 0.000721847 0.00429397)
(0.0038002 0.000720538 0.00429612)
(0.00377712 0.000716506 0.0042974)
(0.0037544 0.00072285 0.00429663)
(0.00373252 0.000701964 0.00429414)
(0.00371862 0.000748253 0.00429217)
(0.00369342 0.000647975 0.00428749)
(0.00369612 0.000830273 0.00428845)
(0.00366641 0.000520159 0.00428281)
(0.00370107 0.00100165 0.00429356)
(0.00365757 0.000256637 0.00428029)
(0.00375384 0.00129082 0.00431301)
(0.00368851 -0.000206696 0.00427504)
(0.00387949 0.00172036 0.00434946)
(0.00377878 -0.000914478 0.00426055)
(0.00404663 0.00227648 0.00435418)
(0.00385624 -0.00179254 0.00415994)
(0.00397515 0.00299624 0.00403581)
(0.00375459 -0.00266217 0.00372882)
(0.00369681 0.00390858 0.00305841)
(0.00388661 -0.00443444 0.00350306)
(0.00550829 0.00433577 0.00439162)
(0.00411759 -0.0100535 0.00820091)
(0.00485699 0.00791321 0.0102357)
(-0.0081763 -0.0177392 0.0198339)
(0.00867519 0.0169099 0.044152)
(-0.00250787 -0.0261891 0.0501197)
(0.0172004 0.0381776 0.106187)
(-0.0729726 -0.126783 0.0859013)
(0.0358358 0.0546563 -0.15949)
(0.0649448 -0.250203 0.00534147)
(0.143247 -0.0633622 0.00863586)
(0.0485229 0.13775 -0.00386802)
(0.0477547 0.0920112 0.00538547)
(0.0146653 0.131357 0.00208723)
(0.00763949 0.117075 0.00017813)
(-0.000916896 0.13081 -0.00263147)
(-0.00365048 0.124441 -0.00280518)
(-0.00701837 0.135963 -0.00304601)
(-0.00695102 0.133195 -0.00173841)
(-0.00709436 0.140009 4.99641e-05)
(-0.0054046 0.13682 0.0020604)
(-0.00334461 0.13951 0.00395004)
(-0.000509928 0.135605 0.00566713)
(0.00170715 0.134612 0.00714695)
(0.00328111 0.129816 0.00830165)
(0.00589495 0.126265 0.00911162)
(0.00802742 0.120782 0.00963757)
(0.00997649 0.114789 0.00971704)
(0.0116528 0.108334 0.00954877)
(0.0128515 0.100508 0.00903914)
(0.0130215 0.0922381 0.00840989)
(0.0125531 0.0830134 0.00752119)
(0.0115092 0.0736597 0.00652482)
(0.00992402 0.0634802 0.00544689)
(0.00772666 0.053285 0.00448323)
(0.0050467 0.0430126 0.00374058)
(0.00274442 0.0335761 0.00332537)
(0.000624681 0.0245023 0.00315656)
(-0.00112625 0.0164657 0.00319599)
(-0.00251569 0.00989568 0.00344399)
(-0.00374102 0.00475835 0.00373134)
(-0.00456617 0.00144835 0.00395425)
(-0.00515818 -0.000676245 0.00398806)
(-0.00577857 -0.00145839 0.00383485)
(-0.00593568 -0.00182469 0.00273045)
(-0.00628631 -0.0014878 -6.0545e-05)
(0.00775929 0.0137242 0.00520841)
(0.0222772 0.0177444 0.00770055)
(0.00462624 0.00370307 0.00151439)
(0.0140356 0.0130856 0.00309227)
(0.00776746 0.00226264 0.000844556)
(0.0112098 0.007734 0.000591474)
(0.00715106 0.0019258 0.000611054)
(0.00747858 0.00445362 0.00120375)
(0.00446332 0.00080908 0.00154712)
(0.00403004 0.00197323 0.00209683)
(0.00224668 0.000596877 0.00246905)
(0.00250942 0.00165206 0.00320594)
(0.00183087 0.00100688 0.00366939)
(0.00197407 0.00154337 0.00409053)
(0.00144062 0.00106285 0.00423762)
(0.00137718 0.0013006 0.00438997)
(0.00102866 0.00101093 0.00442492)
(0.000931348 0.00111336 0.00448466)
(0.000726269 0.000958971 0.0044935)
(0.000637965 0.00100024 0.00451924)
(0.000530251 0.000930873 0.00452362)
(0.00046755 0.000939937 0.00453481)
(0.000407971 0.000912809 0.0045349)
(0.000365854 0.000909655 0.00453825)
(0.00032963 0.000899294 0.00453765)
(0.000300245 0.000895144 0.00453742)
(0.00027486 0.00089158 0.00453544)
(0.000254684 0.000890565 0.00453332)
(0.000238695 0.00089046 0.0045313)
(0.000225476 0.000891233 0.00452926)
(0.000213945 0.000893204 0.00452667)
(0.000204261 0.000893857 0.00452372)
(0.000195985 0.000903313 0.00451982)
(0.000190971 0.000887534 0.00451629)
(0.000189887 0.000935207 0.00451224)
(0.000179852 0.000844635 0.00450742)
(0.000192318 0.00102354 0.0045084)
(0.000179014 0.000732843 0.00451066)
(0.000224035 0.00120461 0.00453392)
(0.000205411 0.000496983 0.00454717)
(0.000302851 0.00151481 0.00458877)
(0.000278041 9.62838e-05 0.00459241)
(0.000450851 0.00199932 0.00465985)
(0.000435636 -0.000470853 0.00463572)
(0.000621168 0.00269436 0.00468066)
(0.000674053 -0.00113854 0.00458991)
(0.000661415 0.00366205 0.00439588)
(0.000993495 -0.00201805 0.00425561)
(0.00091585 0.00481144 0.00368407)
(0.00201809 -0.00392712 0.00416791)
(0.00304822 0.00561583 0.0047564)
(0.00254669 -0.00930204 0.00733661)
(0.00037897 0.00516996 0.00773969)
(-0.011159 -0.0188174 0.00997363)
(-0.0197049 -0.00552825 0.0296216)
(-0.03386 -0.0446582 0.0507194)
(0.00311569 -0.0252893 0.0864486)
(-0.0164452 -0.120187 0.0783871)
(0.0293439 -0.0608244 -0.154253)
(0.0322545 -0.271194 0.00704058)
(0.0706259 0.00872139 0.006888)
(0.0228617 0.186057 -0.00552678)
(0.0244584 0.174537 0.00699595)
(0.00712655 0.207967 0.00503064)
(0.00450999 0.199361 0.00798243)
(-0.000639729 0.212507 0.0055718)
(-0.00239903 0.205499 0.00691577)
(-0.00454816 0.211773 0.00674087)
(-0.00469792 0.204736 0.00796041)
(-0.00515 0.206473 0.00888236)
(-0.00382065 0.199659 0.0102985)
(-0.00291085 0.19918 0.0109016)
(-0.000500748 0.192288 0.0121261)
(0.001243 0.188449 0.0126106)
(0.00401402 0.181484 0.0140616)
(0.00609126 0.176061 0.0139001)
(0.00891397 0.170259 0.0145193)
(0.0110934 0.163324 0.0143326)
(0.0135133 0.157044 0.0142746)
(0.0153862 0.14998 0.0138)
(0.0168754 0.143019 0.0135467)
(0.0175643 0.134865 0.012891)
(0.0177269 0.126654 0.0118676)
(0.0170922 0.117073 0.0108923)
(0.015743 0.106492 0.00972057)
(0.0134731 0.0948296 0.00864329)
(0.0110164 0.0824516 0.00739151)
(0.00822104 0.0695984 0.00606218)
(0.00484864 0.0563247 0.00439677)
(0.00133225 0.0433317 0.00293223)
(-0.0026207 0.0308912 0.00148258)
(-0.00600799 0.0200433 0.000137849)
(-0.00969274 0.0105156 -0.000639657)
(-0.0130495 0.00412476 -0.001452)
(-0.0149889 -0.000334264 -0.00373007)
(-0.0192722 -0.00180345 -0.0069504)
(0.000763304 0.00897463 0.00434682)
(0.0206069 0.0215922 0.0079382)
(0.000475823 0.00251177 0.00238242)
(0.0111921 0.0154836 0.00507856)
(0.0053503 0.00139034 0.00279774)
(0.00950046 0.00812736 0.00222914)
(0.00569567 0.00114517 0.00174575)
(0.00642147 0.00455386 0.001937)
(0.00335661 0.000276719 0.00228975)
(0.00229552 0.00157202 0.00278277)
(2.82138e-05 -0.000335924 0.003206)
(0.000255958 0.000897293 0.00392577)
(-0.000504468 9.15145e-05 0.00444644)
(-0.00029155 0.000907723 0.00496215)
(-0.000875627 0.000485774 0.00518243)
(-0.000922454 0.000974377 0.00539266)
(-0.00129886 0.000763055 0.00546199)
(-0.00136861 0.0010243 0.00555852)
(-0.00156574 0.0009329 0.00559387)
(-0.00161897 0.00106004 0.00565083)
(-0.00170164 0.00103259 0.00568247)
(-0.00172966 0.00108946 0.00572484)
(-0.00175627 0.00109156 0.005755)
(-0.0017622 0.00111364 0.00579153)
(-0.00176188 0.00112228 0.00582505)
(-0.00175259 0.00113389 0.00586074)
(-0.00173732 0.00114232 0.0058962)
(-0.00171708 0.00114993 0.00593189)
(-0.00169392 0.00115657 0.00596739)
(-0.00166726 0.00116292 0.00600318)
(-0.00163818 0.00116949 0.00603887)
(-0.001606 0.00117414 0.00607491)
(-0.00157228 0.00118532 0.00610991)
(-0.00153365 0.00117416 0.00614668)
(-0.00149256 0.00122077 0.00618152)
(-0.00145725 0.00113714 0.006218)
(-0.00139757 0.00131068 0.00625667)
(-0.00136323 0.00103765 0.00629678)
(-0.00126924 0.00150284 0.0063448)
(-0.00123922 0.00083708 0.00638816)
(-0.00109842 0.00184432 0.00644235)
(-0.00106431 0.000508291 0.00648226)
(-0.000866889 0.00239673 0.00653446)
(-0.000803345 7.08854e-05 0.00655716)
(-0.000643251 0.00324396 0.00653364)
(-0.000463727 -0.00046264 0.00650632)
(-0.000538305 0.00442092 0.00623207)
(-3.79551e-05 -0.00153625 0.00613208)
(-0.000309965 0.00569113 0.00573559)
(0.00112498 -0.00396328 0.00616434)
(0.00171512 0.00681626 0.00698576)
(0.00329104 -0.0074181 0.0092529)
(0.000988838 0.00853858 0.0106125)
(0.000827498 -0.0120312 0.010737)
(-0.0164784 0.00336176 0.028985)
(-0.0297932 -0.0480028 0.0427881)
(-0.0152093 -0.0377092 0.075034)
(0.015788 -0.0974427 0.0680855)
(-0.0031521 -0.0949083 -0.140611)
(-0.00707438 -0.269697 0.00826176)
(-0.023638 0.0463485 0.00409882)
(-0.0128853 0.215634 -0.00748231)
(-0.00673658 0.217073 0.008654)
(-0.00393827 0.250114 0.00996462)
(-0.00169853 0.241565 0.0135056)
(-0.0024986 0.253508 0.0125215)
(-0.00232609 0.245074 0.0136232)
(-0.00289219 0.249233 0.013627)
(-0.00286346 0.240934 0.0146475)
(-0.0021842 0.240763 0.0151669)
(-0.00109543 0.233564 0.016232)
(0.000208442 0.23051 0.0166732)
(0.00210314 0.223524 0.0175101)
(0.00433191 0.218381 0.0177934)
(0.00744807 0.211761 0.0184852)
(0.00963193 0.20583 0.0186254)
(0.0123872 0.199534 0.0190157)
(0.0147227 0.193331 0.0191712)
(0.0170608 0.18752 0.0194568)
(0.0190278 0.181795 0.0196867)
(0.021058 0.176302 0.020029)
(0.0223237 0.170999 0.0203262)
(0.0231687 0.165845 0.0205852)
(0.0234313 0.16034 0.020731)
(0.0234491 0.153965 0.0207341)
(0.0231486 0.146879 0.0206948)
(0.0222677 0.138406 0.0201902)
(0.0209664 0.128934 0.0192629)
(0.0192507 0.11774 0.0175996)
(0.016802 0.10504 0.0151402)
(0.0136619 0.092029 0.0119072)
(0.00956641 0.0770094 0.00740398)
(0.00482934 0.0616063 0.00163175)
(-0.000595148 0.0438879 -0.00751435)
(-0.00791686 0.0228944 -0.0268987)
(-0.0161846 0.00849616 -0.0516195)
(-0.00805395 0.00609835 -0.00497728)
(0.0184345 0.0264689 0.00507561)
(-0.00506774 0.00240169 -0.000989807)
(0.00668041 0.019002 0.00287898)
(0.0014322 0.00160531 0.00166133)
(0.00602726 0.00930495 0.00107144)
(0.00277087 0.000776842 0.000469891)
(0.00417644 0.00491436 3.35454e-05)
(0.00121748 -7.32268e-06 0.00013426)
(-0.00022206 0.00136141 0.000141001)
(-0.00319421 -0.00100121 0.000273523)
(-0.00328433 0.000426943 0.000892136)
(-0.00439274 -0.000438245 0.00141901)
(-0.00439584 0.000606384 0.00194968)
(-0.00511659 0.000254847 0.00223554)
(-0.00521149 0.000900709 0.00247715)
(-0.00563102 0.000739649 0.00258758)
(-0.00571993 0.00107912 0.00270593)
(-0.00593545 0.00100935 0.00276875)
(-0.00599905 0.00117051 0.00284484)
(-0.00609121 0.00115488 0.0028991)
(-0.00612711 0.00122394 0.0029619)
(-0.00615719 0.00123405 0.00301462)
(-0.00616893 0.00126325 0.00307245)
(-0.00617464 0.00127842 0.00312724)
(-0.0061733 0.00129549 0.00318263)
(-0.00616733 0.00130892 0.00323662)
(-0.00615719 0.00132141 0.0032897)
(-0.00614428 0.00133225 0.00334148)
(-0.00612945 0.00134199 0.00339203)
(-0.00611301 0.00135171 0.00344113)
(-0.0060939 0.00135926 0.0034891)
(-0.00607438 0.00137249 0.00353511)
(-0.00604964 0.00136621 0.00358094)
(-0.00602516 0.00141303 0.00362233)
(-0.00600632 0.00133925 0.00366551)
(-0.00597151 0.00150556 0.00370405)
(-0.0059635 0.00125237 0.00374755)
(-0.00589907 0.00169738 0.00378385)
(-0.00588893 0.00107743 0.00382956)
(-0.00579837 0.00204665 0.00385744)
(-0.0057695 0.000805643 0.00390765)
(-0.00567888 0.00263488 0.00391191)
(-0.00558493 0.000486251 0.00395543)
(-0.00554155 0.00357399 0.00388263)
(-0.00524478 9.11149e-05 0.00387566)
(-0.00522916 0.00489115 0.00363979)
(-0.00450317 -0.00104978 0.00359662)
(-0.00443688 0.00624952 0.00351973)
(-0.00324407 -0.00435232 0.00384536)
(-0.00391391 0.00708561 0.00460893)
(-0.00223136 -0.00741554 0.00664541)
(-0.00793952 0.0115443 0.0073701)
(-0.00481024 -0.0100896 0.00882645)
(-0.0201356 0.0208149 0.0234839)
(-0.0191668 -0.0504933 0.0355354)
(-0.0296861 -0.0288136 0.0588621)
(0.0537259 -0.128176 0.0592564)
(-0.035313 -0.0188706 -0.161602)
(-0.0426768 -0.262424 -0.00473195)