/*--------------------------------*- C++ -*----------------------------------*\
| =========                 |                                                 |
| \\      /  F ield         | OpenFOAM: The Open Source CFD Toolbox           |
|  \\    /   O peration     | Version:  2.3.0                                 |
|   \\  /    A nd           | Web:      www.OpenFOAM.org                      |
|    \\/     M anipulation  |                                                 |
\*---------------------------------------------------------------------------*/
FoamFile
{
    version     2.0;
    format      ascii;
    class       volVectorField;
    location    "13";
    object      Ur;
}
// * * * * * * * * * * * * * * * * * * * * * * * * * * * * * * * * * * * * * //

dimensions      [0 1 -1 0 0 0 0];

internalField   nonuniform List<vector> 
6144
(
(-1.93899e-07 0.000530499 -1.99936e-07)
(-2.44538e-07 0.000535238 -2.5643e-07)
(-1.5216e-07 0.000542026 -1.83904e-07)
(-7.00611e-08 0.000547811 -1.49261e-07)
(-8.2587e-08 0.000553893 -4.73363e-08)
(-1.62362e-08 0.000559454 -2.84146e-08)
(-4.87779e-08 0.000562252 2.835e-08)
(-3.05022e-08 0.00056358 3.14419e-08)
(-3.58638e-08 0.000564212 3.10386e-09)
(-3.82992e-08 0.000564551 -4.96287e-09)
(-5.07513e-08 0.000564686 -2.06046e-08)
(-5.83203e-08 0.000564764 -1.6932e-08)
(-6.3382e-08 0.000564781 -1.38573e-08)
(-6.86167e-08 0.000564772 -1.24009e-08)
(-7.42291e-08 0.000564772 -1.83482e-08)
(-7.88643e-08 0.00056478 -2.26596e-08)
(-8.20087e-08 0.000564804 -2.79981e-08)
(-8.55488e-08 0.000564833 -3.16695e-08)
(-8.79273e-08 0.000564865 -3.43546e-08)
(-9.03958e-08 0.000564903 -3.61563e-08)
(-9.24051e-08 0.000564946 -3.71309e-08)
(-9.43575e-08 0.000564992 -3.76829e-08)
(-9.62987e-08 0.000565042 -3.77075e-08)
(-9.81284e-08 0.000565096 -3.75173e-08)
(-9.99861e-08 0.000565151 -3.70966e-08)
(-1.01796e-07 0.000565207 -3.65181e-08)
(-1.03741e-07 0.000565266 -3.58213e-08)
(-1.05523e-07 0.000565327 -3.49568e-08)
(-1.07682e-07 0.000565389 -3.41266e-08)
(-1.09502e-07 0.000565452 -3.30652e-08)
(-1.11912e-07 0.000565516 -3.22764e-08)
(-1.13947e-07 0.000565579 -3.07649e-08)
(-1.16787e-07 0.000565642 -2.9882e-08)
(-1.18216e-07 0.000565693 -2.77597e-08)
(-1.24181e-07 0.000565757 -2.73424e-08)
(-1.25057e-07 0.000565796 -2.49716e-08)
(-1.29889e-07 0.000565864 -2.15316e-08)
(-1.34544e-07 0.000565896 -2.16676e-08)
(-1.38395e-07 0.000565956 -1.5523e-08)
(-1.43042e-07 0.000565976 -1.56629e-08)
(-1.55181e-07 0.000566011 -5.64452e-09)
(-1.56209e-07 0.000566029 -6.13026e-09)
(-1.89658e-07 0.000566015 3.58396e-09)
(-1.71716e-07 0.000565995 1.02397e-08)
(-2.25879e-07 0.000565995 1.2128e-08)
(-2.06172e-07 0.000565926 2.37031e-08)
(-3.07068e-07 0.000565919 2.75522e-08)
(-2.54303e-07 0.000566197 6.43733e-09)
(-4.55426e-07 0.000566304 -9.16331e-09)
(-4.56847e-07 0.000567267 6.43258e-08)
(-4.92236e-07 0.000578344 6.41438e-08)
(-3.95173e-07 0.000705251 -8.16126e-08)
(6.17466e-07 0.00117454 1.25597e-07)
(-2.60473e-06 0.00179792 -1.17244e-06)
(-2.00196e-06 0.00235831 4.05718e-07)
(-1.59693e-05 0.00316029 -9.29461e-06)
(3.96816e-05 0.00515368 1.35142e-05)
(7.69188e-05 0.00995708 -2.71895e-05)
(0.000152129 0.0259215 0.00149537)
(0.00589557 0.140547 0.0168059)
(-0.0401443 0.566432 0.0200982)
(-0.0395856 0.437124 0.00530364)
(-0.000856319 0.0236396 0.000681973)
(2.08951e-05 0.00873263 2.37737e-05)
(-4.32224e-05 0.00884881 1.36992e-05)
(-8.11505e-05 0.00882528 7.4578e-06)
(-6.14311e-05 0.00884084 -2.29944e-06)
(-3.91081e-05 0.00889055 -1.34814e-05)
(-2.76196e-05 0.00894215 -2.06515e-05)
(-2.20904e-05 0.00898455 -2.34515e-05)
(-1.79386e-05 0.00901542 -2.37063e-05)
(-1.56751e-05 0.00903823 -2.27675e-05)
(-1.46638e-05 0.00905684 -2.12985e-05)
(-1.34451e-05 0.00907235 -1.96938e-05)
(-1.13303e-05 0.00908539 -1.73391e-05)
(-3.62599e-06 0.00909372 -1.46412e-05)
(4.88828e-06 0.00908932 -1.31713e-05)
(8.13209e-06 0.00907652 -1.25424e-05)
(6.42441e-06 0.0090701 -1.2351e-05)
(2.25842e-06 0.00906419 -1.133e-05)
(3.11279e-06 0.00905087 -7.02045e-06)
(7.54086e-06 0.00904044 -3.93876e-06)
(1.04029e-05 0.00904676 -2.68035e-06)
(6.31366e-06 0.00907747 -2.62728e-06)
(-9.69879e-07 0.00912899 -2.29243e-06)
(-4.43879e-06 0.00918466 -1.18552e-06)
(-4.7003e-06 0.00922447 -5.55271e-07)
(-4.1352e-06 0.00920826 -9.36779e-07)
(-4.55493e-06 0.00876052 -2.39544e-06)
(-3.92128e-07 0.00696757 -1.27218e-06)
(-1.33639e-06 0.00445483 2.36428e-06)
(-2.15516e-06 0.00316194 1.11678e-06)
(-2.97034e-06 0.00302664 -2.8445e-07)
(-2.96115e-06 0.0030463 -3.44386e-06)
(-4.39362e-06 0.00306447 -1.24447e-05)
(-4.28914e-07 0.0030564 -1.25904e-06)
(-1.04262e-08 0.000517934 -1.82083e-08)
(-6.83687e-08 0.000522438 -9.59933e-08)
(-1.70514e-07 0.000533287 -1.417e-07)
(-2.7969e-08 0.000541785 -1.15256e-07)
(-1.75746e-07 0.000548401 1.10324e-08)
(-6.25107e-08 0.000553738 -6.64013e-11)
(-1.63747e-07 0.000556463 9.69285e-08)
(-1.17895e-07 0.000558997 6.04602e-08)
(-1.17335e-07 0.000561015 7.57766e-08)
(-1.07013e-07 0.000562726 6.15893e-08)
(-1.16067e-07 0.00056397 5.30416e-08)
(-1.24505e-07 0.000564607 5.52803e-08)
(-1.21343e-07 0.000564811 6.54222e-08)
(-1.23279e-07 0.000564852 7.14384e-08)
(-1.24937e-07 0.000564849 6.75936e-08)
(-1.29259e-07 0.000564848 6.20521e-08)
(-1.3194e-07 0.000564854 5.49076e-08)
(-1.36988e-07 0.000564871 4.9948e-08)
(-1.40447e-07 0.000564896 4.59058e-08)
(-1.45068e-07 0.000564928 4.32739e-08)
(-1.48949e-07 0.000564965 4.15525e-08)
(-1.53697e-07 0.000565007 4.04932e-08)
(-1.58212e-07 0.000565055 4.03139e-08)
(-1.633e-07 0.000565105 4.02309e-08)
(-1.68489e-07 0.000565158 4.059e-08)
(-1.74013e-07 0.000565213 4.09758e-08)
(-1.7986e-07 0.000565272 4.18322e-08)
(-1.86005e-07 0.000565332 4.24531e-08)
(-1.92737e-07 0.000565394 4.36599e-08)
(-1.99756e-07 0.000565457 4.42461e-08)
(-2.07408e-07 0.000565522 4.56525e-08)
(-2.16124e-07 0.000565582 4.63277e-08)
(-2.24345e-07 0.000565646 4.83691e-08)
(-2.34341e-07 0.000565696 4.8503e-08)
(-2.4894e-07 0.000565763 5.1853e-08)
(-2.60034e-07 0.000565805 5.18952e-08)
(-2.74103e-07 0.000565874 5.58018e-08)
(-2.92159e-07 0.000565911 5.64011e-08)
(-3.12604e-07 0.000565981 6.02023e-08)
(-3.3099e-07 0.000565999 6.0476e-08)
(-3.65452e-07 0.00056605 7.05493e-08)
(-3.86528e-07 0.000566051 7.07999e-08)
(-4.57878e-07 0.00056607 9.03177e-08)
(-4.77037e-07 0.000566009 8.45619e-08)
(-5.99127e-07 0.00056602 9.9607e-08)
(-6.02243e-07 0.000565802 1.18204e-07)
(-8.207e-07 0.000565955 1.20112e-07)
(-7.84138e-07 0.000565999 1.31951e-07)
(-1.18654e-06 0.000566861 8.71338e-08)
(-1.07123e-06 0.000581996 2.93613e-07)
(-1.2185e-06 0.000651026 8.64758e-08)
(-6.36396e-07 0.000797621 -1.56408e-07)
(-3.06466e-07 0.00114261 6.74676e-07)
(-4.43447e-06 0.00165211 -7.38515e-07)
(-7.85307e-06 0.00223717 2.53767e-06)
(-5.16112e-06 0.00309601 -3.62804e-06)
(-3.72176e-05 0.00546355 3.61522e-05)
(-0.000111474 0.00986566 -6.99472e-05)
(-0.002127 0.0264947 0.00175644)
(-0.00393276 0.13007 0.00891417)
(-0.0977992 0.563362 0.0188664)
(-0.0622282 0.332679 0.00307975)
(-0.00059874 0.022735 1.3016e-05)
(9.07837e-06 0.00909833 -1.61978e-05)
(-7.79362e-05 0.0089276 -5.67736e-06)
(-9.23053e-05 0.00895879 -1.46685e-05)
(-6.03792e-05 0.00900797 -2.19502e-05)
(-4.10208e-05 0.00901304 -2.60654e-05)
(-3.34564e-05 0.00901234 -2.85558e-05)
(-2.88406e-05 0.00901794 -2.90157e-05)
(-2.29311e-05 0.00902781 -2.80219e-05)
(-1.58444e-05 0.00903729 -2.58553e-05)
(-1.1892e-05 0.00904591 -2.32379e-05)
(-1.25967e-05 0.00905332 -2.05848e-05)
(-1.18206e-05 0.00906848 -1.66865e-05)
(-2.97127e-06 0.00909314 -1.46519e-05)
(3.67642e-06 0.00910224 -1.54371e-05)
(9.485e-06 0.00907798 -1.49671e-05)
(2.02964e-05 0.0090424 -1.1736e-05)
(1.97406e-05 0.00902326 -6.21711e-06)
(3.05762e-06 0.00902342 -2.6659e-06)
(-5.83075e-06 0.0090608 -3.19926e-06)
(-9.05891e-06 0.00915585 -4.32767e-06)
(-7.85105e-06 0.00925591 -1.99132e-06)
(-4.84637e-06 0.00929246 6.21001e-07)
(-5.32413e-07 0.00928694 2.56651e-06)
(3.32824e-06 0.00925448 2.98452e-06)
(4.20504e-06 0.00910614 2.294e-06)
(1.98596e-06 0.00843978 4.27467e-07)
(-1.30738e-07 0.00661562 -1.15516e-06)
(-1.8982e-06 0.00436572 -1.6962e-07)
(-7.13348e-06 0.00331545 2.71702e-07)
(-9.04582e-06 0.00331873 -4.75049e-07)
(-8.59468e-06 0.00350892 -2.52602e-06)
(-8.04654e-06 0.00372376 -7.54939e-06)
(-4.84406e-06 0.00385839 -5.79511e-06)
(1.67723e-07 0.0004963 2.83552e-07)
(2.47244e-07 0.000502432 -7.51548e-09)
(-4.79429e-08 0.000521051 -2.44874e-07)
(6.79152e-08 0.000533076 -6.71016e-08)
(-1.53598e-07 0.00054115 -8.6008e-08)
(-7.43561e-08 0.000548286 -6.89616e-08)
(-3.21642e-07 0.000552227 1.8488e-08)
(-2.75352e-07 0.000555385 2.47136e-08)
(-3.09899e-07 0.000557024 1.08237e-07)
(-2.66557e-07 0.000559321 1.19637e-07)
(-2.65628e-07 0.000561995 1.04191e-07)
(-2.80124e-07 0.000563895 9.71539e-08)
(-2.74769e-07 0.000564724 1.0706e-07)
(-2.74976e-07 0.000564896 1.13893e-07)
(-2.6895e-07 0.000564895 1.1436e-07)
(-2.7034e-07 0.00056489 1.11657e-07)
(-2.69115e-07 0.000564897 1.08516e-07)
(-2.72708e-07 0.000564912 1.05993e-07)
(-2.74755e-07 0.000564936 1.04568e-07)
(-2.80193e-07 0.000564966 1.03689e-07)
(-2.84641e-07 0.000565003 1.03692e-07)
(-2.91338e-07 0.000565044 1.03998e-07)
(-2.97824e-07 0.00056509 1.0497e-07)
(-3.05918e-07 0.000565139 1.05929e-07)
(-3.14208e-07 0.000565192 1.07018e-07)
(-3.23207e-07 0.000565247 1.08383e-07)
(-3.33129e-07 0.000565304 1.09681e-07)
(-3.43617e-07 0.000565364 1.11117e-07)
(-3.55482e-07 0.000565425 1.12485e-07)
(-3.67841e-07 0.000565488 1.13967e-07)
(-3.81992e-07 0.00056555 1.15231e-07)
(-3.97264e-07 0.000565609 1.16374e-07)
(-4.13439e-07 0.000565672 1.17163e-07)
(-4.33414e-07 0.000565717 1.17916e-07)
(-4.52018e-07 0.000565783 1.22667e-07)
(-4.78676e-07 0.000565824 1.21299e-07)
(-5.0202e-07 0.00056589 1.2604e-07)
(-5.35684e-07 0.00056591 1.24733e-07)
(-5.72236e-07 0.000565977 1.31759e-07)
(-6.13293e-07 0.000565992 1.26748e-07)
(-6.69996e-07 0.000566046 1.37971e-07)
(-7.18754e-07 0.000566033 1.33171e-07)
(-8.18445e-07 0.00056606 1.53704e-07)
(-8.81693e-07 0.000565968 1.4926e-07)
(-1.05759e-06 0.000565998 1.72693e-07)
(-1.11728e-06 0.0005657 1.72032e-07)
(-1.40909e-06 0.000565927 1.92629e-07)
(-1.42481e-06 0.000565736 2.34219e-07)
(-1.90293e-06 0.00057018 2.27701e-07)
(-1.54615e-06 0.000603965 4.17428e-07)
(-2.21537e-06 0.000698594 3.46069e-07)
(-2.00423e-06 0.000826879 -9.92074e-08)
(-1.99697e-06 0.00103995 1.5316e-06)
(-7.49173e-06 0.00148802 -7.73117e-07)
(-3.27237e-06 0.00238094 5.61279e-06)
(4.89515e-05 0.00323707 -1.63805e-05)
(-7.29401e-05 0.00522452 9.25327e-05)
(-0.000409969 0.00767505 -5.26764e-05)
(-0.0029872 0.021018 0.00113635)
(0.00544367 0.129345 0.00603735)
(-0.0277561 0.465135 0.00524746)
(-0.00270056 0.109037 -0.005286)
(0.000152589 0.0259195 5.86458e-05)
(-0.000167409 0.00930337 3.03359e-05)
(-0.000200175 0.00875229 -6.7487e-06)
(-7.34211e-05 0.00892689 -1.29347e-05)
(-5.39588e-05 0.00905226 -2.07629e-05)
(-4.76822e-05 0.00911063 -2.78116e-05)
(-3.69017e-05 0.00915539 -3.10672e-05)
(-2.39547e-05 0.00920543 -3.19271e-05)
(-1.46577e-05 0.00925273 -3.12102e-05)
(-1.1646e-05 0.00928035 -3.07173e-05)
(-1.19774e-05 0.00928675 -2.98097e-05)
(-1.47299e-05 0.00927762 -2.40642e-05)
(-9.7e-06 0.00925451 -1.84012e-05)
(1.73076e-05 0.0092078 -1.94629e-05)
(2.747e-05 0.00915187 -2.06226e-05)
(7.10821e-06 0.00914286 -2.73366e-05)
(-1.04302e-05 0.00918041 -2.97521e-05)
(-1.91323e-05 0.0091806 -1.7166e-05)
(-2.23411e-05 0.00914452 -5.37018e-06)
(-2.08676e-05 0.00914439 -1.44176e-06)
(-1.87112e-05 0.0091481 -3.24212e-06)
(-1.04409e-05 0.00916328 -1.93616e-06)
(9.93491e-07 0.00917823 3.71971e-07)
(1.11142e-05 0.00917159 1.78876e-06)
(1.8001e-05 0.00907525 2.13712e-06)
(2.12685e-05 0.00870484 1.31438e-06)
(1.71459e-05 0.00763168 -1.63231e-06)
(1.08548e-05 0.00571715 -2.40702e-06)
(-4.72594e-06 0.00403032 -4.17211e-06)
(-1.5446e-05 0.00355593 -2.20085e-06)
(-1.77749e-05 0.00375718 -1.49293e-06)
(-1.49272e-05 0.0039699 -1.23374e-06)
(-1.21307e-05 0.00413526 -3.84977e-06)
(-1.14099e-05 0.00421431 -2.96955e-06)
(2.64388e-07 0.000464103 4.93965e-07)
(7.13966e-07 0.000472985 1.38254e-07)
(1.30595e-07 0.000496781 -1.61358e-07)
(2.6893e-07 0.00051109 1.61107e-07)
(5.01748e-08 0.000524457 -5.39836e-08)
(1.95831e-08 0.000537974 -7.2465e-08)
(-2.53372e-07 0.000547995 -4.15384e-08)
(-3.29939e-07 0.000555054 -4.20858e-08)
(-4.35007e-07 0.000556941 2.4532e-08)
(-3.86593e-07 0.000558851 6.7202e-08)
(-3.99688e-07 0.000561291 7.51632e-08)
(-4.25697e-07 0.000563456 7.83269e-08)
(-4.44163e-07 0.000564582 9.41285e-08)
(-4.58781e-07 0.000564845 1.07243e-07)
(-4.62514e-07 0.000564862 1.1175e-07)
(-4.67154e-07 0.000564861 1.13994e-07)
(-4.68789e-07 0.000564871 1.15424e-07)
(-4.72516e-07 0.000564886 1.16748e-07)
(-4.75575e-07 0.00056491 1.17837e-07)
(-4.81001e-07 0.00056494 1.1926e-07)
(-4.86796e-07 0.000564977 1.20568e-07)
(-4.94808e-07 0.000565018 1.22122e-07)
(-5.0383e-07 0.000565063 1.23295e-07)
(-5.14476e-07 0.000565112 1.2413e-07)
(-5.25705e-07 0.000565164 1.25213e-07)
(-5.3816e-07 0.000565219 1.26088e-07)
(-5.51272e-07 0.000565275 1.2713e-07)
(-5.65975e-07 0.000565334 1.27462e-07)
(-5.81302e-07 0.000565395 1.28635e-07)
(-5.98573e-07 0.000565456 1.28539e-07)
(-6.16497e-07 0.000565516 1.29951e-07)
(-6.37225e-07 0.000565575 1.29835e-07)
(-6.58125e-07 0.000565633 1.3198e-07)
(-6.86596e-07 0.000565681 1.31256e-07)
(-7.07776e-07 0.000565742 1.34496e-07)
(-7.47862e-07 0.000565777 1.31918e-07)
(-7.74199e-07 0.000565839 1.3727e-07)
(-8.26025e-07 0.00056585 1.33674e-07)
(-8.63211e-07 0.000565914 1.41346e-07)
(-9.30348e-07 0.000565886 1.35503e-07)
(-9.92932e-07 0.000565947 1.47853e-07)
(-1.07323e-06 0.000565914 1.38433e-07)
(-1.18721e-06 0.000565958 1.60881e-07)
(-1.28124e-06 0.000565825 1.45818e-07)
(-1.48207e-06 0.000565847 1.82979e-07)
(-1.60472e-06 0.000565489 1.61503e-07)
(-1.90701e-06 0.000565711 2.2199e-07)
(-2.02906e-06 0.000565257 2.39701e-07)
(-2.46899e-06 0.000571466 2.78792e-07)
(-2.31423e-06 0.000604283 3.50864e-07)
(-2.95367e-06 0.000689536 4.85904e-07)
(-3.36374e-06 0.000794067 1.14383e-07)
(-3.01043e-06 0.000981753 1.57738e-06)
(-9.29625e-06 0.00153164 -1.54086e-06)
(-2.18761e-06 0.00264718 1.85915e-06)
(1.70104e-05 0.00338249 -2.40913e-05)
(7.39483e-05 0.00477937 1.21249e-05)
(-0.000329664 0.00589966 0.000165924)
(-0.00276565 0.0186987 0.000969188)
(0.0151056 0.128042 0.00539768)
(-0.0114376 0.446945 0.00723149)
(-0.000118419 0.0521634 -0.000482423)
(-0.00607183 0.226606 0.00223489)
(-0.000555835 0.0309441 8.19725e-05)
(-9.68783e-05 0.00828575 1.50811e-06)
(-7.43153e-05 0.0086511 -1.9309e-05)
(-6.38585e-05 0.00885382 -4.01835e-05)
(-4.94445e-05 0.00904236 -4.3179e-05)
(-3.09779e-05 0.00911579 -4.22394e-05)
(-9.07311e-06 0.0091778 -3.94052e-05)
(1.53002e-05 0.0092538 -3.27123e-05)
(3.24839e-05 0.00932511 -2.4757e-05)
(2.26864e-05 0.00936119 -1.82233e-05)
(3.87066e-06 0.00936916 -1.30167e-05)
(-5.51659e-06 0.00938829 -1.41836e-05)
(-1.23002e-05 0.00936871 -1.87499e-05)
(-1.60701e-05 0.00926295 -2.49643e-05)
(-2.35124e-05 0.00916805 -2.29011e-05)
(-3.867e-05 0.00910642 -2.60047e-05)
(-4.60532e-05 0.00901808 -2.16265e-05)
(-3.39535e-05 0.00887815 -1.50731e-05)
(-2.07257e-05 0.00870302 -1.00706e-05)
(-9.32326e-06 0.00856693 -4.70184e-06)
(-4.49047e-07 0.00851717 -1.00254e-06)
(7.01729e-06 0.00852218 1.48893e-06)
(1.37448e-05 0.00841696 2.18547e-06)
(2.12694e-05 0.00801673 1.90071e-06)
(3.03121e-05 0.00722495 6.95016e-07)
(3.5662e-05 0.0059728 -1.49989e-06)
(2.67302e-05 0.00463909 -3.0602e-06)
(-1.20552e-05 0.00394148 -6.3253e-06)
(-3.37439e-05 0.00393232 -4.16167e-06)
(-3.20282e-05 0.00411047 -1.22866e-06)
(-2.25867e-05 0.00425762 -3.67742e-07)
(-1.67391e-05 0.00434555 -1.70078e-06)
(-1.59412e-05 0.00433984 -8.69251e-07)
(3.00057e-07 0.000429496 5.07872e-07)
(1.18212e-06 0.000437241 2.07474e-08)
(1.70872e-07 0.000459244 -1.82859e-08)
(3.88133e-07 0.000475154 2.51525e-07)
(3.18618e-08 0.000495821 9.36725e-08)
(-3.00767e-08 0.000515772 1.00829e-07)
(-1.51131e-07 0.000528968 5.38047e-08)
(-3.25977e-07 0.000543479 3.84056e-08)
(-4.53783e-07 0.00055552 3.94423e-08)
(-4.44598e-07 0.000561197 1.57391e-08)
(-4.53445e-07 0.000562258 4.01687e-08)
(-4.95346e-07 0.000563462 5.28426e-08)
(-5.55106e-07 0.000564494 7.26294e-08)
(-6.02632e-07 0.000564805 8.38351e-08)
(-6.3577e-07 0.000564853 8.75998e-08)
(-6.64077e-07 0.000564868 8.69603e-08)
(-6.84475e-07 0.000564886 8.69165e-08)
(-7.00704e-07 0.000564905 8.64822e-08)
(-7.13462e-07 0.000564932 8.67406e-08)
(-7.25444e-07 0.000564963 8.69858e-08)
(-7.36568e-07 0.000564999 8.81372e-08)
(-7.4815e-07 0.000565038 8.97964e-08)
(-7.59406e-07 0.000565083 9.01138e-08)
(-7.70787e-07 0.00056513 8.98826e-08)
(-7.82614e-07 0.000565181 8.98505e-08)
(-7.94743e-07 0.000565235 8.96961e-08)
(-8.08499e-07 0.00056529 8.84802e-08)
(-8.22948e-07 0.000565348 8.80526e-08)
(-8.39527e-07 0.000565407 8.65816e-08)
(-8.5679e-07 0.000565467 8.69621e-08)
(-8.76784e-07 0.000565525 8.56216e-08)
(-8.9773e-07 0.000565581 8.6955e-08)
(-9.22118e-07 0.000565635 8.48204e-08)
(-9.4935e-07 0.000565684 8.59323e-08)
(-9.78309e-07 0.000565737 8.51514e-08)
(-1.01645e-06 0.000565767 8.66099e-08)
(-1.05012e-06 0.00056582 8.76843e-08)
(-1.10442e-06 0.000565823 8.70242e-08)
(-1.14745e-06 0.000565881 9.0965e-08)
(-1.2187e-06 0.00056584 8.7238e-08)
(-1.28433e-06 0.00056589 9.59742e-08)
(-1.38018e-06 0.000565811 8.9011e-08)
(-1.49463e-06 0.000565856 1.0896e-07)
(-1.6251e-06 0.000565675 9.36614e-08)
(-1.81185e-06 0.000565705 1.36151e-07)
(-2.01788e-06 0.000565333 1.10095e-07)
(-2.25543e-06 0.000565505 1.75508e-07)
(-2.57028e-06 0.000565441 1.89987e-07)
(-2.90763e-06 0.00057517 1.95197e-07)
(-3.24057e-06 0.00060844 3.04362e-07)
(-3.70624e-06 0.000678473 9.91047e-08)
(-4.7049e-06 0.000759419 2.32173e-07)
(-4.34093e-06 0.000923142 9.43696e-07)
(-1.02006e-05 0.00139778 -8.8306e-07)
(-8.34179e-06 0.00255443 2.13554e-05)
(6.82624e-07 0.00363494 9.05134e-06)
(0.000134349 0.00495434 0.000163802)
(-0.000629398 0.00446107 0.000327023)
(-0.00245294 0.025114 0.00146048)
(0.0235922 0.195512 0.0151186)
(-0.00436039 0.547906 0.00709798)
(-0.00268138 0.473735 0.00381941)
(-0.00884834 0.446637 0.00406391)
(-0.0302724 0.380458 -0.000457892)
(0.000439546 0.100699 -3.20015e-05)
(-5.58285e-06 0.0305327 -0.000165949)
(1.21747e-05 0.00840415 -0.000301612)
(4.03746e-05 0.00836368 -0.000322815)
(5.28126e-05 0.0083938 -0.000309443)
(2.04019e-05 0.00842788 -0.000287602)
(-4.20292e-05 0.00845078 -0.000237609)
(-0.00012374 0.00844008 -0.000273875)
(-8.9662e-05 0.00835283 -0.000260347)
(1.22264e-05 0.00831896 -0.000206853)
(2.25572e-05 0.00830453 -0.000212709)
(-8.94008e-05 0.0082936 -0.000254643)
(-0.000180803 0.00832906 -0.000293466)
(-0.00019126 0.00835466 -0.000315663)
(-0.000151651 0.008702 -0.000299858)
(-0.000113454 0.00952812 -0.000245489)
(-8.67749e-05 0.00989009 -0.000176921)
(-7.073e-05 0.00909723 -0.000134371)
(-5.84015e-05 0.00783009 -0.000106518)
(-4.83822e-05 0.00685541 -9.02804e-05)
(-3.46883e-05 0.00623635 -7.96726e-05)
(-1.16921e-05 0.00569715 1.92439e-06)
(1.02193e-05 0.00532089 7.90233e-07)
(3.63166e-05 0.00490558 1.93946e-06)
(6.59443e-05 0.00451741 9.83548e-06)
(6.27631e-05 0.00423712 1.28041e-05)
(-3.03881e-05 0.00419673 -8.09671e-06)
(-6.53417e-05 0.00436688 -1.15351e-05)
(-4.76002e-05 0.00453882 -4.64073e-06)
(-2.81258e-05 0.00465221 -2.44842e-06)
(-1.93917e-05 0.00463471 -2.57578e-06)
(-1.59167e-05 0.0044808 -2.72511e-07)
(2.72194e-08 0.000402033 7.74127e-07)
(1.26096e-06 0.00040255 -9.5211e-08)
(1.39632e-07 0.000416482 -1.77774e-07)
(5.32135e-07 0.000431713 -9.4728e-09)
(-2.29771e-07 0.000458633 -1.91344e-08)
(-6.29701e-11 0.000488767 3.31252e-08)
(-2.65489e-07 0.000507176 7.16709e-08)
(-3.67072e-07 0.000521331 7.4694e-08)
(-5.05072e-07 0.000538529 1.2585e-07)
(-5.55995e-07 0.000555482 5.01934e-08)
(-5.40936e-07 0.000562627 4.00894e-08)
(-5.55778e-07 0.000563899 4.95251e-08)
(-6.21252e-07 0.000564376 6.40142e-08)
(-6.75581e-07 0.000564615 6.90692e-08)
(-7.27842e-07 0.000564667 6.84425e-08)
(-7.70611e-07 0.000564681 6.63454e-08)
(-8.03601e-07 0.000564701 6.22153e-08)
(-8.28073e-07 0.000564722 5.87968e-08)
(-8.45785e-07 0.000564747 5.46044e-08)
(-8.5817e-07 0.000564777 5.28916e-08)
(-8.67395e-07 0.000564812 5.15623e-08)
(-8.75187e-07 0.000564852 5.01611e-08)
(-8.82989e-07 0.000564898 4.88982e-08)
(-8.90866e-07 0.000564946 4.68343e-08)
(-8.97778e-07 0.000564996 4.51401e-08)
(-9.05726e-07 0.000565049 4.27507e-08)
(-9.14034e-07 0.000565104 4.17923e-08)
(-9.24465e-07 0.000565159 3.92134e-08)
(-9.35735e-07 0.000565215 3.8603e-08)
(-9.49395e-07 0.000565271 3.57615e-08)
(-9.64486e-07 0.000565327 3.60317e-08)
(-9.83401e-07 0.000565381 3.38899e-08)
(-1.00391e-06 0.000565434 3.62582e-08)
(-1.0297e-06 0.00056548 3.46771e-08)
(-1.05639e-06 0.000565525 3.8527e-08)
(-1.09523e-06 0.000565556 3.59071e-08)
(-1.12779e-06 0.000565602 4.28821e-08)
(-1.18757e-06 0.000565607 3.49235e-08)
(-1.22749e-06 0.000565662 4.67689e-08)
(-1.30673e-06 0.000565623 3.48489e-08)
(-1.36188e-06 0.000565669 5.67682e-08)
(-1.47594e-06 0.000565517 3.7564e-08)
(-1.57254e-06 0.000565546 7.46832e-08)
(-1.75435e-06 0.000565309 3.61536e-08)
(-1.90154e-06 0.000565329 9.76468e-08)
(-2.20755e-06 0.000564941 4.30594e-08)
(-2.39577e-06 0.000565146 1.13794e-07)
(-2.88052e-06 0.00056584 8.45947e-08)
(-3.16609e-06 0.000577323 1.3617e-07)
(-3.92419e-06 0.000607827 1.38838e-07)
(-4.35568e-06 0.000661804 -2.74156e-08)
(-6.33589e-06 0.000737155 -3.37846e-07)
(-6.49514e-06 0.000833251 -5.48965e-07)
(-1.24298e-05 0.00128181 -2.21183e-07)
(-3.67922e-07 0.0026392 4.20156e-05)
(-1.00519e-05 0.00379042 6.58595e-05)
(0.000129433 0.0044883 0.000132797)
(-0.000194206 0.00344799 0.000292067)
(-0.000834097 0.0254782 0.00332613)
(0.0236096 0.283545 0.0200003)
(0.0288916 0.459376 0.00199668)
(-0.00595517 0.288916 0.00347048)
(-0.0032747 0.449993 -0.00391705)
(-0.00107551 0.450106 -0.00170907)
(-0.00412958 0.464501 -0.00239659)
(-0.00487266 0.492698 -0.0031137)
(-0.00166493 0.498641 -0.000405802)
(-0.00172967 0.491018 -0.000199777)
(-0.00240166 0.492303 0.000529638)
(-7.82742e-05 0.485465 0.00111322)
(0.000836188 0.484782 0.00167719)
(0.00119489 0.494828 0.00197127)
(0.00187372 0.492949 0.00247166)
(0.00174277 0.496148 0.00214948)
(0.00147159 0.493498 0.00220215)
(0.00120765 0.493148 0.00186972)
(0.00162209 0.488821 0.00150909)
(0.00135053 0.491373 0.0013526)
(0.000726474 0.492375 0.000845985)
(0.000122291 0.494288 0.000183089)
(-0.000210661 0.495058 -0.000154028)
(-0.000863702 0.498018 -0.000330339)
(-0.00133515 0.478563 -0.000299217)
(-0.00175286 0.489037 -0.000381949)
(-0.00250528 0.490894 -0.000472273)
(-0.00325023 0.4848 -0.000339992)
(-0.0037341 0.47106 -0.000344663)
(-0.00311689 0.428846 -0.000248363)
(-0.00121407 0.267442 -0.000103307)
(9.47432e-05 0.0290592 0.000110619)
(-0.000167151 0.00460353 -0.000221874)
(-0.000229096 0.00363266 -0.000246511)
(-0.000116987 0.00409691 -1.97594e-05)
(-2.64597e-05 0.00446501 -6.36767e-06)
(-2.27063e-05 0.0042514 -5.59255e-06)
(-8.74487e-05 0.00375806 -8.41153e-06)
(-1.23466e-06 0.000390803 -4.05866e-07)
(1.14928e-06 0.000382384 -1.3403e-07)
(-1.47002e-07 0.000380387 -5.26168e-07)
(6.89471e-07 0.000388836 -1.35444e-07)
(-2.91925e-07 0.00041567 -3.58588e-07)
(-1.25268e-07 0.000454512 -1.47334e-07)
(-4.83886e-07 0.000486271 6.66932e-08)
(-5.34596e-07 0.000505142 5.19682e-08)
(-6.12882e-07 0.00051758 1.49943e-07)
(-6.89141e-07 0.000537866 1.15699e-07)
(-7.22487e-07 0.000556284 1.06496e-07)
(-7.05148e-07 0.00056344 1.15442e-07)
(-6.99838e-07 0.000564605 1.01708e-07)
(-7.10039e-07 0.000564786 8.5808e-08)
(-7.34992e-07 0.000564823 7.46838e-08)
(-7.70539e-07 0.000564844 6.50676e-08)
(-8.09312e-07 0.000564879 5.53845e-08)
(-8.42139e-07 0.000564911 4.41489e-08)
(-8.68043e-07 0.000564949 3.50679e-08)
(-8.86768e-07 0.000564986 2.55129e-08)
(-9.01126e-07 0.000565026 1.70574e-08)
(-9.12825e-07 0.000565069 1.02455e-08)
(-9.22678e-07 0.000565114 6.02997e-09)
(-9.3019e-07 0.000565162 3.79393e-09)
(-9.34774e-07 0.000565214 -4.69117e-10)
(-9.3823e-07 0.000565268 -2.81369e-09)
(-9.42944e-07 0.000565324 -5.37372e-09)
(-9.495e-07 0.000565382 -5.05381e-09)
(-9.58645e-07 0.000565441 -7.26401e-09)
(-9.69546e-07 0.000565501 -7.71015e-09)
(-9.83882e-07 0.000565561 -1.01366e-08)
(-1.00043e-06 0.00056562 -8.86496e-09)
(-1.02099e-06 0.000565676 -1.07887e-08)
(-1.04497e-06 0.000565728 -7.75034e-09)
(-1.07329e-06 0.000565774 -8.7911e-09)
(-1.10898e-06 0.000565806 -3.68325e-09)
(-1.1448e-06 0.000565847 -3.84758e-09)
(-1.20058e-06 0.000565852 7.34664e-12)
(-1.24149e-06 0.000565916 3.37308e-09)
(-1.31478e-06 0.00056592 5.96912e-09)
(-1.36256e-06 0.000565956 1.71129e-08)
(-1.47468e-06 0.000565762 1.40553e-08)
(-1.54954e-06 0.000565722 3.08085e-08)
(-1.75658e-06 0.000565398 1.82173e-08)
(-1.85329e-06 0.000565331 3.86045e-08)
(-2.21156e-06 0.000564832 2.08538e-08)
(-2.38136e-06 0.000565058 3.39116e-08)
(-2.92153e-06 0.000565886 2.2882e-08)
(-3.29726e-06 0.000576093 4.90575e-08)
(-4.19657e-06 0.000603277 2.90659e-08)
(-4.85642e-06 0.000653127 -1.62191e-07)
(-7.07751e-06 0.000731126 -6.44479e-07)
(-8.54838e-06 0.00086328 -6.50632e-07)
(-1.03155e-05 0.00132269 -3.56473e-06)
(3.27323e-08 0.00267241 2.43353e-06)
(-1.69156e-05 0.00419536 6.10218e-05)
(0.00012664 0.00485531 0.000179567)
(9.97209e-05 0.00346158 2.10727e-05)
(0.000304313 0.019728 0.00414228)
(0.0145685 0.412598 0.0190508)
(0.0175446 0.511719 -0.0034056)
(0.00779027 0.441575 -0.00124603)
(0.00251035 0.381327 -0.00110987)
(0.00324383 0.455697 -0.00108431)
(0.0031167 0.464521 -0.0015152)
(0.00331086 0.494682 0.00123796)
(0.00166504 0.42444 -0.000160691)
(0.000619468 0.430678 0.000249529)
(0.00388361 0.384608 -1.26409e-05)
(-0.000126029 0.423521 0.00120791)
(0.00175078 0.448133 0.00035531)
(0.000829174 0.382885 0.000140926)
(0.00100716 0.445293 -0.000425422)
(0.000715747 0.381153 -7.61762e-05)
(0.00036844 0.27003 0.000125524)
(0.000120079 0.38322 0.00132248)
(-0.000631944 0.496307 0.000162041)
(-0.000815615 0.4424 7.18599e-06)
(-0.00101525 0.489195 -0.000208458)
(-0.000549802 0.482746 -0.000179296)
(-0.00139752 0.488515 -0.000302487)
(-0.00187978 0.49008 -4.44568e-06)
(-0.0017887 0.490474 0.000140367)
(-0.00142127 0.484625 0.000245749)
(-0.00185152 0.48382 0.000263366)
(-0.0026028 0.487245 0.000268215)
(-0.00302872 0.494828 0.000210701)
(-0.00357469 0.486296 2.13491e-05)
(-0.00344792 0.43318 -0.000339548)
(-0.00226051 0.30716 -0.000338864)
(-0.00378816 0.433823 -0.00219957)
(-0.00170747 0.229106 -4.9851e-05)
(-0.00483545 0.328616 0.00185957)
(-3.18969e-05 0.0247302 -0.000263459)
(-0.000170586 0.0287657 -0.000181365)
(0.00130136 0.411791 -0.000178681)
(-1.27314e-06 0.000394562 -5.66897e-07)
(1.26419e-06 0.000380547 4.4691e-07)
(-8.12133e-07 0.000362644 -8.31944e-07)
(3.41124e-07 0.000358117 1.31208e-07)
(-3.39015e-07 0.000376002 -2.92206e-07)
(-3.57051e-07 0.000417255 -2.3231e-07)
(-8.72076e-07 0.000460989 -1.39253e-08)
(-8.08041e-07 0.000491759 7.05616e-08)
(-8.80484e-07 0.000504944 1.47864e-07)
(-8.64157e-07 0.000522122 1.37134e-07)
(-9.21e-07 0.000545737 1.61351e-07)
(-8.58333e-07 0.000560231 1.93542e-07)
(-7.96099e-07 0.000564259 1.77512e-07)
(-7.85785e-07 0.000564786 1.47163e-07)
(-7.97785e-07 0.000564848 1.40934e-07)
(-8.28326e-07 0.000564867 1.39213e-07)
(-8.63008e-07 0.000564906 1.38043e-07)
(-8.96265e-07 0.000564951 1.36131e-07)
(-9.22315e-07 0.000565002 1.32941e-07)
(-9.46449e-07 0.000565053 1.29337e-07)
(-9.66143e-07 0.000565105 1.26345e-07)
(-9.82714e-07 0.00056516 1.24684e-07)
(-9.95404e-07 0.000565218 1.24954e-07)
(-1.00435e-06 0.000565281 1.25034e-07)
(-1.01409e-06 0.000565347 1.21411e-07)
(-1.02597e-06 0.00056541 1.16079e-07)
(-1.0389e-06 0.000565473 1.12438e-07)
(-1.05167e-06 0.000565534 1.09224e-07)
(-1.06679e-06 0.000565595 1.08379e-07)
(-1.08489e-06 0.000565655 1.05385e-07)
(-1.10606e-06 0.000565714 1.04931e-07)
(-1.12922e-06 0.00056577 1.02667e-07)
(-1.15516e-06 0.000565822 1.04022e-07)
(-1.18342e-06 0.000565865 1.0331e-07)
(-1.21527e-06 0.000565902 1.07049e-07)
(-1.25213e-06 0.000565938 1.07675e-07)
(-1.29104e-06 0.000565983 1.11468e-07)
(-1.34464e-06 0.000565978 1.10282e-07)
(-1.38109e-06 0.000565998 1.16114e-07)
(-1.45044e-06 0.000565915 1.12648e-07)
(-1.48281e-06 0.000565906 1.25378e-07)
(-1.59398e-06 0.000565683 1.15233e-07)
(-1.64337e-06 0.000565605 1.22713e-07)
(-1.84199e-06 0.000565256 1.08791e-07)
(-1.91131e-06 0.000565144 8.18051e-08)
(-2.21795e-06 0.000564654 9.38665e-08)
(-2.39372e-06 0.000564992 4.01332e-08)
(-2.79969e-06 0.000565125 6.34667e-08)
(-3.30022e-06 0.000571325 9.69103e-08)
(-3.9309e-06 0.000590847 8.06409e-08)
(-4.88111e-06 0.000637546 8.76562e-08)
(-6.32279e-06 0.000725952 -9.27321e-08)
(-8.08516e-06 0.000972309 7.68845e-07)
(-6.92421e-07 0.00152264 -7.30309e-06)
(1.01484e-05 0.00271386 1.58162e-05)
(-2.76889e-05 0.00410229 8.07007e-05)
(-8.61946e-05 0.00479074 9.56201e-05)
(9.48414e-05 0.0035645 2.76826e-05)
(0.000811635 0.0184351 0.00332945)
(-0.00988999 0.433081 0.017116)
(-0.00832768 0.538077 -0.00515543)
(0.00692921 0.495312 0.00460147)
(-0.0032507 0.492714 -0.00138281)
(0.00128558 0.497665 0.00120488)
(0.00132493 0.49647 -0.000616476)
(0.0027845 0.485669 0.00175786)
(-0.000233684 0.495976 0.000170083)
(0.00323827 0.513286 0.00124711)
(0.00282858 0.491957 0.000258973)
(0.00128754 0.491906 0.000709427)
(0.00066854 0.492305 0.000119985)
(5.49828e-05 0.494818 -0.000169106)
(-0.00062811 0.498704 -0.000736608)
(2.63803e-05 0.499995 -0.000680452)
(0.000439189 0.495823 -0.000449145)
(-0.000104415 0.495254 -0.000110832)
(-0.000249623 0.49181 0.00025651)
(-0.000920258 0.481715 -0.00029674)
(-0.00156675 0.49462 -0.000404921)
(-0.000933977 0.490933 -2.56307e-06)
(-0.00157825 0.491669 0.000441476)
(-0.00109593 0.495121 0.000771899)
(-0.00144473 0.496496 0.00100457)
(-0.00126204 0.49403 0.00107539)
(-0.00115887 0.496672 0.00122894)
(-0.00142185 0.495532 0.00151456)
(-0.00183023 0.493259 0.00193231)
(-0.0025345 0.492755 0.00173693)
(-0.00364818 0.492557 0.00106611)
(-0.00481104 0.49214 0.000572739)
(-0.00583555 0.484006 0.00053261)
(-0.00727498 0.481292 5.02472e-05)
(-0.00875395 0.487288 -0.00141632)
(-0.00769141 0.464647 -0.00387439)
(-0.00770648 0.478262 -0.00970102)
(-0.00325785 0.465596 -0.0159234)
(-2.77796e-06 0.000206016 -7.30484e-07)