/*--------------------------------*- C++ -*----------------------------------*\
| =========                 |                                                 |
| \\      /  F ield         | OpenFOAM: The Open Source CFD Toolbox           |
|  \\    /   O peration     | Version:  2.3.0                                 |
|   \\  /    A nd           | Web:      www.OpenFOAM.org                      |
|    \\/     M anipulation  |                                                 |
\*---------------------------------------------------------------------------*/
FoamFile
{
    version     2.0;
    format      ascii;
    class       volScalarField;
    location    "31";
    object      alpha.air;
}
// * * * * * * * * * * * * * * * * * * * * * * * * * * * * * * * * * * * * * //

dimensions      [0 0 0 0 0 0 0];

internalField   nonuniform List<scalar> 
6144
(
0.999995
0.999994
0.999993
0.999993
0.999993
0.999992
0.999991
0.999991
0.99999
0.99999
0.99999
0.99999
0.99999
0.99999
0.99999
0.99999
0.99999
0.99999
0.99999
0.99999
0.99999
0.99999
0.99999
0.99999
0.99999
0.99999
0.99999
0.99999
0.99999
0.99999
0.99999
0.99999
0.99999
0.99999
0.99999
0.99999
0.99999
0.99999
0.99999
0.99999
0.99999
0.99999
0.99999
0.99999
0.99999
0.99999
0.99999
0.99999
0.99999
0.99999
0.999985
0.999967
0.999944
0.999929
0.999929
0.999902
0.999851
0.99962
0.997832
0.891752
0.0118283
2.15473e-05
5.85836e-07
5.89355e-07
5.93494e-07
5.95136e-07
5.96861e-07
5.99385e-07
6.02066e-07
6.05229e-07
6.09952e-07
6.1633e-07
6.24409e-07
6.33198e-07
6.38693e-07
6.39605e-07
6.3909e-07
6.37944e-07
6.38951e-07
6.42327e-07
6.44131e-07
6.43784e-07
6.41823e-07
6.38707e-07
6.35371e-07
6.2748e-07
6.05961e-07
5.72421e-07
5.63145e-07
5.67176e-07
5.74649e-07
5.83999e-07
5.92585e-07
6.02967e-07
5.87771e-07
4.73095e-07
0.999995
0.999994
0.999993
0.999993
0.999992
0.999992
0.999991
0.99999
0.99999
0.99999
0.99999
0.99999
0.99999
0.99999
0.99999
0.99999
0.99999
0.99999
0.99999
0.99999
0.99999
0.99999
0.99999
0.99999
0.99999
0.99999
0.99999
0.99999
0.99999
0.99999
0.99999
0.99999
0.99999
0.99999
0.99999
0.99999
0.99999
0.99999
0.99999
0.99999
0.99999
0.99999
0.99999
0.99999
0.99999
0.99999
0.99999
0.99999
0.99999
0.999989
0.999982
0.999965
0.999943
0.999936
0.999936
0.999893
0.999836
0.99951
0.996774
0.892046
0.0184035
3.55241e-05
5.85836e-07
5.95425e-07
5.96373e-07
5.99757e-07
6.05019e-07
6.10727e-07
6.17426e-07
6.27003e-07
6.41931e-07
6.63205e-07
6.76122e-07
6.75537e-07
6.69623e-07
6.56362e-07
6.41057e-07
6.38129e-07
6.40469e-07
6.40914e-07
6.38155e-07
6.34049e-07
6.27944e-07
6.15715e-07
5.99154e-07
5.85068e-07
5.70503e-07
5.61571e-07
5.68348e-07
5.78062e-07
5.84589e-07
5.92503e-07
5.99565e-07
5.997e-07
5.82737e-07
4.69231e-07
0.999995
0.999994
0.999994
0.999993
0.999992
0.999992
0.999991
0.99999
0.99999
0.99999
0.99999
0.99999
0.99999
0.99999
0.99999
0.99999
0.99999
0.99999
0.99999
0.99999
0.99999
0.99999
0.99999
0.99999
0.99999
0.99999
0.99999
0.99999
0.99999
0.99999
0.99999
0.99999
0.99999
0.99999
0.99999
0.99999
0.99999
0.99999
0.99999
0.99999
0.99999
0.99999
0.99999
0.99999
0.99999
0.99999
0.99999
0.99999
0.99999
0.999989
0.999978
0.999963
0.999951
0.99994
0.999935
0.999875
0.999856
0.999644
0.998353
0.900562
0.0161619
2.79526e-05
5.85837e-07
6.03406e-07
6.13395e-07
6.17351e-07
6.1421e-07
6.1385e-07
6.19247e-07
6.33138e-07
6.57568e-07
6.88073e-07
7.0488e-07
7.04776e-07
6.9799e-07
6.81611e-07
6.57877e-07
6.40215e-07
6.3975e-07
6.38414e-07
6.31317e-07
6.22439e-07
5.99807e-07
5.53785e-07
5.16481e-07
5.17048e-07
5.25553e-07
5.45275e-07
5.64712e-07
5.77466e-07
5.94907e-07
6.08242e-07
6.19473e-07
6.23207e-07
5.94064e-07
4.64185e-07
0.999996
0.999995
0.999994
0.999994
0.999993
0.999992
0.999991
0.999991
0.99999
0.99999
0.99999
0.99999
0.99999
0.99999
0.99999
0.99999
0.99999
0.99999
0.99999
0.99999
0.99999
0.99999
0.99999
0.99999
0.99999
0.99999
0.99999
0.99999
0.99999
0.99999
0.99999
0.99999
0.99999
0.99999
0.99999
0.99999
0.99999
0.99999
0.99999
0.99999
0.99999
0.99999
0.99999
0.99999
0.99999
0.99999
0.99999
0.99999
0.99999
0.999985
0.999974
0.999966
0.999954
0.999938
0.999927
0.999869
0.999853
0.999701
0.998843
0.887325
0.0107589
2.74854e-05
7.20233e-06
1.93573e-06
8.52357e-07
6.15e-07
6.0218e-07
5.80911e-07
5.81423e-07
5.87111e-07
6.08628e-07
6.58737e-07
6.97304e-07
7.00634e-07
6.94026e-07
6.7706e-07
6.56229e-07
6.44195e-07
6.40724e-07
6.31756e-07
6.17461e-07
5.84426e-07
5.17501e-07
4.62584e-07
4.59768e-07
4.77464e-07
5.11918e-07
5.46273e-07
5.71912e-07
5.99724e-07
6.14652e-07
5.97997e-07
6.03997e-07
6.17413e-07
5.90379e-07
4.55229e-07
0.999996
0.999995
0.999994
0.999994
0.999993
0.999993
0.999992
0.999991
0.99999
0.99999
0.99999
0.99999
0.99999
0.99999
0.99999
0.99999
0.99999
0.99999
0.99999
0.99999
0.99999
0.99999
0.99999
0.99999
0.99999
0.99999
0.99999
0.99999
0.99999
0.99999
0.99999
0.99999
0.99999
0.99999
0.99999
0.99999
0.99999
0.99999
0.99999
0.99999
0.99999
0.99999
0.99999
0.99999
0.99999
0.99999
0.99999
0.99999
0.999988
0.999982
0.999976
0.999969
0.999959
0.999944
0.999922
0.999868
0.999795
0.999725
0.999476
0.870686
0.010077
0.000532141
0.000360561
0.000108731
3.60697e-05
8.39504e-06
1.8008e-06
5.63193e-07
5.63099e-07
5.62973e-07
5.6289e-07
5.62793e-07
5.91568e-07
6.27108e-07
6.38319e-07
6.29298e-07
6.09822e-07
5.89489e-07
5.7144e-07
5.52617e-07
5.52378e-07
5.48599e-07
5.18478e-07
4.79553e-07
4.73557e-07
4.86332e-07
5.1933e-07
5.61678e-07
6.01863e-07
6.19834e-07
6.07176e-07
5.74211e-07
5.73058e-07
5.93556e-07
5.75237e-07
4.40654e-07
0.999996
0.999996
0.999995
0.999994
0.999994
0.999993
0.999992
0.999991
0.999991
0.99999
0.99999
0.99999
0.99999
0.99999
0.99999
0.99999
0.99999
0.99999
0.99999
0.99999
0.99999
0.99999
0.99999
0.99999
0.99999
0.99999
0.99999
0.99999
0.99999
0.99999
0.99999
0.99999
0.99999
0.99999
0.99999
0.99999
0.99999
0.99999
0.99999
0.99999
0.99999
0.99999
0.99999
0.99999
0.99999
0.99999
0.99999
0.99999
0.999988
0.999984
0.999978
0.999971
0.999963
0.999953
0.99991
0.999847
0.999828
0.999767
0.999942
0.837189
0.0131058
0.00346223
0.00295146
0.00146191
0.000899185
0.000573188
0.000215351
6.06106e-05
1.96932e-05
4.88359e-06
1.77949e-06
1.57291e-06
1.74679e-06
1.85589e-06
2.03121e-06
2.70869e-06
4.38727e-06
6.80033e-06
8.17202e-06
8.26705e-06
4.84204e-06
2.09421e-06
9.22894e-07
4.73638e-07
4.73597e-07
4.73638e-07
4.73678e-07
4.73718e-07
4.73758e-07
4.73799e-07
7.84122e-07
7.21421e-07
4.16963e-07
4.28858e-07
4.97132e-07
4.16092e-07
0.999996
0.999996
0.999995
0.999995
0.999994
0.999993
0.999993
0.999992
0.999991
0.99999
0.99999
0.99999
0.99999
0.99999
0.99999
0.99999
0.99999
0.99999
0.99999
0.99999
0.99999
0.99999
0.99999
0.99999
0.99999
0.99999
0.99999
0.99999
0.99999
0.99999
0.99999
0.99999
0.99999
0.99999
0.99999
0.99999
0.99999
0.99999
0.99999
0.99999
0.99999
0.99999
0.99999
0.99999
0.99999
0.99999
0.99999
0.99999
0.999989
0.999987
0.999981
0.999972
0.999961
0.99995
0.999899
0.999845
0.999847
0.999826
0.99999
0.780152
0.0163312
0.00779033
0.0078214
0.00609722
0.00597434
0.00568659
0.00328907
0.00192831
0.00122964
0.0006448
0.000336888
0.000242098
0.000234192
0.000265777
0.00037897
0.000499659
0.000586335
0.000722523
0.000912849
0.000801672
0.000698437
0.000645917
0.00044509
0.000369795
0.000368737
0.000304001
0.000318056
0.000362604
0.000483035
0.000530222
0.000526848
0.000190595
5.02007e-05
3.65686e-07
3.65685e-07
3.65685e-07
0.999996
0.999996
0.999995
0.999995
0.999994
0.999994
0.999993
0.999992
0.999991
0.999991
0.99999
0.99999
0.99999
0.99999
0.99999
0.99999
0.99999
0.99999
0.99999
0.99999
0.99999
0.99999
0.99999
0.99999
0.99999
0.99999
0.99999
0.99999
0.99999
0.99999
0.99999
0.99999
0.99999
0.99999
0.99999
0.99999
0.99999
0.99999
0.99999
0.99999
0.99999
0.99999
0.99999
0.99999
0.99999
0.99999
0.99999
0.99999
0.999989
0.999988
0.999984
0.999975
0.999961
0.999944
0.999898
0.999832
0.999831
0.999846
0.99999
0.767013
0.0203196
0.0109047
0.0122196
0.0126145
0.0128493
0.0136923
0.0119933
0.00959157
0.00865411
0.00777921
0.00713409
0.00684496
0.0067165
0.00684347
0.00712283
0.00762901
0.00823485
0.0087706
0.00975106
0.0115783
0.0140347
0.0161445
0.0179428
0.0197907
0.0214921
0.0230504
0.0244305
0.025492
0.0263426
0.0277085
0.0285964
0.0287672
0.0261458
0.0228772
0.0163601
0.0100146
0.999996
0.999996
0.999995
0.999995
0.999995
0.999994
0.999993
0.999992
0.999991
0.999991
0.99999
0.99999
0.99999
0.99999
0.99999
0.99999
0.99999
0.99999
0.99999
0.99999
0.99999
0.99999
0.99999
0.99999
0.99999
0.99999
0.99999
0.99999
0.99999
0.99999
0.99999
0.99999
0.99999
0.99999
0.99999
0.99999
0.99999
0.99999
0.99999
0.99999
0.99999
0.99999
0.99999
0.99999
0.99999
0.99999
0.99999
0.99999
0.999989
0.999988
0.999985
0.999976
0.999961
0.999932
0.999927
0.999856
0.999835
0.999844
0.99999
0.770698
0.0207636
0.0111134
0.0138386
0.0152715
0.0156127
0.0158601
0.0148945
0.0136256
0.0134561
0.0147361
0.0157396
0.0143636
0.0127707
0.0123506
0.012187
0.0123012
0.0136601
0.0162575
0.017568
0.017556
0.0161718
0.0157321
0.0158089
0.0152949
0.0143806
0.013587
0.0130097
0.0125114
0.0117361
0.010983
0.0101475
0.00887255
0.00706423
0.00498268
0.00272314
0.00109653
0.999996
0.999996
0.999996
0.999996
0.999995
0.999994
0.999993
0.999992
0.999991
0.999991
0.99999
0.99999
0.99999
0.99999
0.99999
0.99999
0.99999
0.99999
0.99999
0.99999
0.99999
0.99999
0.99999
0.99999
0.99999
0.99999
0.99999
0.99999
0.99999
0.99999
0.99999
0.99999
0.99999
0.99999
0.99999
0.99999
0.99999
0.99999
0.99999
0.99999
0.99999
0.99999
0.99999
0.99999
0.99999
0.99999
0.99999
0.99999
0.99999
0.999988
0.999987
0.999972
0.999955
0.999921
0.999926
0.999889
0.999857
0.999865
0.99999
0.812906
0.030164
0.0112822
0.0114092
0.0111298
0.0109764
0.0120114
0.012302
0.0122371
0.0129486
0.0134728
0.0135833
0.0130558
0.0122082
0.0117142
0.0114803
0.0109408
0.0110954
0.012472
0.011257
0.00830147
0.00665677
0.00495667
0.00308595
0.00182614
0.00115154
0.000779962
0.000568398
0.00048301
0.000430637
0.000370179
0.000355573
0.000335666
0.000204284
9.45074e-05
3.74126e-05
1.35218e-05
0.999997
0.999996
0.999996
0.999996
0.999995
0.999994
0.999993
0.999992
0.999991
0.999991
0.99999
0.99999
0.99999
0.99999
0.99999
0.99999
0.99999
0.99999
0.99999
0.99999
0.99999
0.99999
0.99999
0.99999
0.99999
0.99999
0.99999
0.99999
0.99999
0.99999
0.99999
0.99999
0.99999
0.99999
0.99999
0.99999
0.99999
0.99999
0.99999
0.99999
0.99999
0.99999
0.99999
0.99999
0.99999
0.99999
0.99999
0.99999
0.99999
0.999989
0.999987
0.999966
0.99994
0.999912
0.999917
0.999902
0.999883
0.999888
0.99999
0.849432
0.0173712
0.00431578
0.00477906
0.00723652
0.00804967
0.00771918
0.00772602
0.00756018
0.00796812
0.00834575
0.00823916
0.00790588
0.00749539
0.00705286
0.00609164
0.00509353
0.00393453
0.00280252
0.00160008
0.000760574
0.00038225
0.000148936
3.4321e-05
6.03547e-06
1.19295e-06
4.9627e-07
4.80925e-07
4.80925e-07
4.80925e-07
5.33457e-07
1.21162e-06
1.4547e-06
7.02652e-07
6.43199e-07
7.93239e-07
8.38977e-07
0.999997
0.999996
0.999996
0.999996
0.999995
0.999994
0.999993
0.999992
0.999991
0.999991
0.99999
0.99999
0.99999
0.99999
0.99999
0.99999
0.99999
0.99999
0.99999
0.99999
0.99999
0.99999
0.99999
0.99999
0.99999
0.99999
0.99999
0.99999
0.99999
0.99999
0.99999
0.99999
0.99999
0.99999
0.99999
0.99999
0.99999
0.99999
0.99999
0.99999
0.99999
0.99999
0.99999
0.99999
0.99999
0.99999
0.99999
0.99999
0.99999
0.999989
0.999986
0.99997
0.999938
0.999908
0.999899
0.999889
0.99988
0.999841
0.999948
0.893582
0.00794596
0.0013203
0.001473
0.0016138
0.00193606
0.00238058
0.00277751
0.00266485
0.00210991
0.00204342
0.00215038
0.00219524
0.00165124
0.00111332
0.000811948
0.000521015
0.000264907
9.68614e-05
2.65746e-05
6.20542e-06
1.52525e-06
5.70973e-07
5.10761e-07
6.05518e-07
6.38995e-07
6.35183e-07
6.15685e-07
5.92419e-07
5.69027e-07
5.24212e-07
5.29715e-07
7.46233e-07
6.09421e-07
4.01787e-07
3.51715e-07
3.19103e-07
0.999998
0.999997
0.999996
0.999996
0.999995
0.999993
0.999992
0.999991
0.999991
0.99999
0.99999
0.99999
0.99999
0.99999
0.99999
0.99999
0.99999
0.99999
0.99999
0.99999
0.99999
0.99999
0.99999
0.99999
0.99999
0.99999
0.99999
0.99999
0.99999
0.99999
0.99999
0.99999
0.99999
0.99999
0.99999
0.99999
0.99999
0.99999
0.99999
0.99999
0.99999
0.99999
0.99999
0.99999
0.99999
0.99999
0.99999
0.99999
0.99999
0.999989
0.999986
0.999966
0.999942
0.99993
0.999908
0.999887
0.999894
0.999763
0.999896
0.932762
0.010602
0.000152479
0.000159521
0.000154025
0.00019464
0.000233945
0.000268304
0.000273257
0.000221737
0.000147712
0.000124122
0.000109061
6.66808e-05
2.96425e-05
1.4585e-05
6.01347e-06
2.13143e-06
8.95733e-07
6.69902e-07
5.70869e-07
5.90893e-07
5.78337e-07
6.49178e-07
6.83611e-07
6.68351e-07
6.44866e-07
6.12055e-07
5.73783e-07
5.44719e-07
5.29732e-07
5.00357e-07
5.00172e-07
5.48213e-07
3.93438e-07
3.16029e-07
2.79989e-07
0.999998
0.999998
0.999998
0.999998
0.999996
0.999994
0.999992
0.999991
0.999991
0.99999
0.99999
0.99999
0.99999
0.99999
0.99999
0.99999
0.99999
0.99999
0.99999
0.99999
0.99999
0.99999
0.99999
0.99999
0.99999
0.99999
0.99999
0.99999
0.99999
0.99999
0.99999
0.99999
0.99999
0.99999
0.99999
0.99999
0.99999
0.99999
0.99999
0.99999
0.99999
0.99999
0.99999
0.99999
0.99999
0.99999
0.99999
0.99999
0.99999
0.999989
0.999985
0.999961
0.999946
0.999932
0.999914
0.999885
0.999882
0.999654
0.999754
0.955991
0.0114002
4.33818e-06
3.28944e-06
3.14992e-06
3.67029e-06
4.03766e-06
4.64325e-06
4.81295e-06
4.07681e-06
1.70088e-06
1.01246e-06
9.54062e-07
1.10209e-06
7.81187e-07
6.12253e-07
5.69491e-07
6.10085e-07
5.93583e-07
5.89236e-07
5.83542e-07
6.17687e-07
6.4477e-07
6.566e-07
6.46446e-07
6.23243e-07
5.99199e-07
5.86751e-07
5.68235e-07
5.42197e-07
5.22405e-07
5.00041e-07
4.7416e-07
4.81064e-07
4.26575e-07
3.1971e-07
2.71983e-07
0.999998
0.999998
0.999998
0.999998
0.999998
0.999997
0.999994
0.999991
0.99999
0.99999
0.99999
0.99999
0.99999
0.99999
0.99999
0.99999
0.99999
0.99999
0.99999
0.99999
0.99999
0.99999
0.99999
0.99999
0.99999
0.99999
0.99999
0.99999
0.99999
0.99999
0.99999
0.99999
0.99999
0.99999
0.99999
0.99999
0.99999
0.99999
0.99999
0.99999
0.99999
0.99999
0.99999
0.99999
0.99999
0.99999
0.99999
0.99999
0.99999
0.999989
0.999985
0.999964
0.999944
0.999926
0.999915
0.999893
0.999779
0.99953
0.999345
0.967348
0.0387048
5.55583e-05
3.20659e-07
6.67614e-07
7.6467e-07
5.33341e-07
4.24865e-07
5.32316e-07
8.13756e-07
8.54996e-07
6.9611e-07
5.55641e-07
5.28098e-07
5.23249e-07
5.23249e-07
5.23249e-07
5.35168e-07
5.55541e-07
5.66857e-07
5.78634e-07
6.01083e-07
6.26392e-07
6.2704e-07
6.18728e-07
6.06657e-07
5.87374e-07
5.68821e-07
5.53521e-07
5.34518e-07
5.16301e-07
4.98522e-07
4.72712e-07
4.5551e-07
4.25416e-07
3.28107e-07
2.56455e-07
0.999999
0.999999
0.999998
0.999998
0.999998
0.999998
0.999997
0.999991
0.99999
0.99999
0.99999
0.99999
0.99999
0.99999
0.99999
0.99999
0.99999
0.99999
0.99999
0.99999
0.99999
0.99999
0.99999
0.99999
0.99999
0.99999
0.99999
0.99999
0.99999
0.99999
0.99999
0.99999
0.99999
0.99999
0.99999
0.99999
0.99999
0.99999
0.99999
0.99999
0.99999
0.99999
0.99999
0.99999
0.99999
0.99999
0.99999
0.99999
0.99999
0.999989
0.999985
0.99997
0.999941
0.999916
0.999906
0.99989
0.999865
0.999583
0.999577
0.971569
0.052965
0.00019013
3.20659e-07
3.22977e-07
3.20682e-07
3.32294e-07
3.34843e-07
3.45524e-07
3.86317e-07
4.88892e-07
6.14373e-07
6.39614e-07
5.99283e-07
5.75585e-07
5.63214e-07
5.56753e-07
5.5878e-07
5.65093e-07
5.72596e-07
5.80667e-07
5.89428e-07
5.99534e-07
6.05701e-07
6.0571e-07
6.0499e-07
5.9505e-07
5.68863e-07
5.45886e-07
5.24391e-07
5.05495e-07
4.87507e-07
4.63298e-07
4.57713e-07
4.3695e-07
3.46952e-07
2.5494e-07
0.999995
0.999994
0.999994
0.999993
0.999993
0.999992
0.999991
0.99999
0.99999
0.99999
0.99999
0.99999
0.99999
0.99999
0.99999
0.99999
0.99999
0.99999
0.99999
0.99999
0.99999
0.99999
0.99999
0.99999
0.99999
0.99999
0.99999
0.99999
0.99999
0.99999
0.99999
0.99999
0.99999
0.99999
0.99999
0.99999
0.99999
0.99999
0.99999
0.99999
0.99999
0.99999
0.99999
0.99999
0.99999
0.99999
0.99999
0.99999
0.99999
0.999989
0.999986
0.99997
0.999946
0.999929
0.999924
0.999903
0.999843
0.999516
0.996436
0.879955
0.0311764
7.37795e-05
5.85836e-07
5.94936e-07
5.96417e-07
5.9622e-07
5.97181e-07
5.98877e-07
6.01058e-07
6.03963e-07
6.07838e-07
6.12875e-07
6.19814e-07
6.29194e-07
6.39533e-07
6.45475e-07
6.45523e-07
6.43748e-07
6.39146e-07
6.33765e-07
6.27684e-07
6.25778e-07
6.26168e-07
6.23916e-07
6.11605e-07
5.67162e-07
4.72935e-07
4.01146e-07
4.0356e-07
4.31999e-07
4.87178e-07
5.30049e-07
5.409e-07
5.49074e-07
5.36117e-07
4.44117e-07
0.999996
0.999994
0.999993
0.999993
0.999992
0.999991
0.999991
0.999991
0.999991
0.99999
0.99999
0.99999
0.99999
0.99999
0.99999
0.99999
0.99999
0.99999
0.99999
0.99999
0.99999
0.99999
0.99999
0.99999
0.99999
0.99999
0.99999
0.99999
0.99999
0.99999
0.99999
0.99999
0.99999
0.99999
0.99999
0.99999
0.99999
0.99999
0.99999
0.99999
0.99999
0.99999
0.99999
0.99999
0.99999
0.99999
0.99999
0.99999
0.99999
0.999988
0.999984
0.999969
0.999945
0.999932
0.999928
0.999906
0.999757
0.999458
0.997857
0.874371
0.0536401
5.85838e-07
6.07737e-07
6.07523e-07
6.07671e-07
6.14835e-07
6.27427e-07
6.30131e-07
6.32233e-07
6.36665e-07
6.44522e-07
6.53487e-07
6.62311e-07
6.72561e-07
6.79589e-07
6.7944e-07
6.75947e-07
6.67918e-07
6.55759e-07
6.41329e-07
6.28366e-07
6.25024e-07
6.17615e-07
5.84383e-07
5.22578e-07
4.60546e-07
4.05645e-07
3.95658e-07
4.20789e-07
4.99126e-07
5.72558e-07
5.91756e-07
5.95306e-07
5.89448e-07
5.55737e-07
4.406e-07
0.999996
0.999995
0.999993
0.999993
0.999992
0.999992
0.999992
0.999991
0.999991
0.999991
0.99999
0.99999
0.99999
0.99999
0.99999
0.99999
0.99999
0.99999
0.99999
0.99999
0.99999
0.99999
0.99999
0.99999
0.99999
0.99999
0.99999
0.99999
0.99999
0.99999
0.99999
0.99999
0.99999
0.99999
0.99999
0.99999
0.99999
0.99999
0.99999
0.99999
0.99999
0.99999
0.99999
0.99999
0.99999
0.99999
0.99999
0.99999
0.999989
0.999987
0.99998
0.999966
0.999953
0.999931
0.999928
0.999906
0.999815
0.999532
0.999079
0.873328
0.0195215
5.85838e-07
1.70331e-06
6.72807e-07
7.76993e-07
7.27481e-07
6.69457e-07
6.47847e-07
6.40086e-07
6.42922e-07
6.53121e-07
6.66663e-07
6.73419e-07
6.77371e-07
6.81445e-07
6.85602e-07
6.85767e-07
6.82907e-07
6.64511e-07
6.40909e-07
6.27617e-07
6.17175e-07
5.70468e-07
4.61072e-07
3.76438e-07
3.59426e-07
3.73308e-07
4.15711e-07
4.93424e-07
5.64623e-07
5.90636e-07
5.81514e-07
5.96647e-07
6.08731e-07
5.75077e-07
4.40363e-07
0.999997
0.999996
0.999994
0.999994
0.999993
0.999992
0.999992
0.999992
0.999991
0.999991
0.99999
0.99999
0.99999
0.99999
0.99999
0.99999
0.99999
0.99999
0.99999
0.99999
0.99999
0.99999
0.99999
0.99999
0.99999
0.99999
0.99999
0.99999
0.99999
0.99999
0.99999
0.99999
0.99999
0.99999
0.99999
0.99999
0.99999
0.99999
0.99999
0.99999
0.99999
0.99999
0.99999
0.99999
0.99999
0.99999
0.99999
0.99999
0.999989
0.999986
0.999978
0.99997
0.999958
0.999932
0.999929
0.999882
0.999802
0.999527
0.999345
0.833797
0.00202201
7.92249e-05
5.16356e-05
1.44496e-05
5.04055e-06
1.02822e-06
5.8935e-07
6.04557e-07
6.10427e-07
6.18405e-07
6.3668e-07
6.47921e-07
6.51374e-07
6.57394e-07
6.67118e-07
6.75085e-07
6.7454e-07
6.71712e-07
6.54717e-07
6.30685e-07
6.13996e-07
5.7105e-07
4.68476e-07
3.81392e-07
3.60339e-07
3.72741e-07
4.18117e-07
4.92871e-07
5.58923e-07
5.93267e-07
5.78655e-07
5.40322e-07
5.76597e-07
6.06032e-07
5.69992e-07
4.32369e-07
0.999997
0.999996
0.999995
0.999994
0.999994
0.999993
0.999992
0.999992
0.999991
0.999991
0.99999
0.99999
0.99999
0.99999
0.99999
0.99999
0.99999
0.99999
0.99999
0.99999
0.99999
0.99999
0.99999
0.99999
0.99999
0.99999
0.99999
0.99999
0.99999
0.99999
0.99999
0.99999
0.99999
0.99999
0.99999
0.99999
0.99999
0.99999
0.99999
0.99999
0.99999
0.99999
0.99999
0.99999
0.99999
0.99999
0.99999
0.99999
0.999989
0.999986
0.999981
0.999974
0.999963
0.999946
0.999914
0.999841
0.999639
0.999622
0.999713
0.797758
0.00623698
0.00147257
0.00121445
0.000603641
0.000291071
8.10176e-05
1.52504e-05
3.1516e-06
1.05872e-06
8.20572e-07
7.07699e-07
5.62718e-07
5.62793e-07
5.6939e-07
8.08029e-07
1.36931e-06
8.72158e-07
5.89711e-07
5.92038e-07
6.07281e-07
6.73391e-07
7.28183e-07
7.33092e-07
6.62683e-07
6.02791e-07
5.97762e-07
6.44884e-07
6.87887e-07
7.26005e-07
8.15437e-07
7.89839e-07
5.19601e-07
5.35977e-07
5.84924e-07
5.49124e-07
4.13239e-07
0.999997
0.999997
0.999996
0.999995
0.999994
0.999993
0.999992
0.999992
0.999991
0.999991
0.99999
0.99999
0.99999
0.99999
0.99999
0.99999
0.99999
0.99999
0.99999
0.99999
0.99999
0.99999
0.99999
0.99999
0.99999
0.99999
0.99999
0.99999
0.99999
0.99999
0.99999
0.99999
0.99999
0.99999
0.99999
0.99999
0.99999
0.99999
0.99999
0.99999
0.99999
0.99999
0.99999
0.99999
0.99999
0.99999
0.99999
0.99999
0.999989
0.999988
0.999984
0.999978
0.999964
0.999944
0.999852
0.99978
0.99978
0.999835
0.999938
0.750986
0.0144681
0.00720308
0.0074939
0.00590452
0.00407141
0.00211021
0.00093344
0.000396242
0.00013794
6.34231e-05
4.62823e-05
4.23152e-05
4.35159e-05
4.73236e-05
5.53792e-05
6.33293e-05
7.21886e-05
9.24668e-05
0.000110949
0.00011855
0.000122796
0.000108622
8.72803e-05
7.51425e-05
6.68232e-05
5.5459e-05
4.21043e-05
4.08296e-05
4.3834e-05
4.5012e-05
2.59091e-05
6.12879e-06
1.18868e-06
4.15291e-07
4.21808e-07
3.39781e-07
0.999997
0.999997
0.999996
0.999995
0.999995
0.999993
0.999993
0.999992
0.999991
0.999991
0.99999
0.99999
0.99999
0.99999
0.99999
0.99999
0.99999
0.99999
0.99999
0.99999
0.99999
0.99999
0.99999
0.99999
0.99999
0.99999
0.99999
0.99999
0.99999
0.99999
0.99999
0.99999
0.99999
0.99999
0.99999
0.99999
0.99999
0.99999
0.99999
0.99999
0.99999
0.99999
0.99999
0.99999
0.99999
0.99999
0.99999
0.99999
0.99999
0.999988
0.999985
0.999978
0.999965
0.999928
0.999838
0.999817
0.999811
0.999876
0.99999
0.722722
0.022984
0.0138866
0.0155262
0.0160715
0.0145014
0.0116495
0.00932154
0.00717009
0.00462679
0.00277306
0.00204078
0.00187449
0.00162856
0.00143092
0.0017129
0.00202151
0.00260185
0.0035776
0.00449739
0.00548503
0.00607533
0.00651372
0.00687531
0.00706962
0.0070529
0.00708148
0.00789926
0.00905114
0.0102952
0.0107217
0.00713396
0.00444259
0.00245937
0.000500665
7.51527e-05
7.32369e-05
0.999997
0.999997
0.999997
0.999996
0.999995
0.999994
0.999993
0.999992
0.999991
0.999991
0.99999
0.99999
0.99999
0.99999
0.99999
0.99999
0.99999
0.99999
0.99999
0.99999
0.99999
0.99999
0.99999
0.99999
0.99999
0.99999
0.99999
0.99999
0.99999
0.99999
0.99999
0.99999
0.99999
0.99999
0.99999
0.99999
0.99999
0.99999
0.99999
0.99999
0.99999
0.99999
0.99999
0.99999
0.99999
0.99999
0.99999
0.99999
0.99999
0.999988
0.999986
0.999975
0.999957
0.999942
0.99984
0.999809
0.99982
0.999923
0.99999
0.754619
0.0290073
0.0166513
0.0188577
0.0200693
0.0207094
0.0209225
0.0207921
0.0233127
0.0241278
0.0227695
0.0228358
0.0236081
0.0241017
0.0246327
0.0253948
0.0268574
0.0296001
0.0335215
0.0376235
0.0405194
0.0436793
0.0480127
0.0513962
0.0547115
0.0583895
0.0624556
0.0673973
0.0723645
0.0756268
0.077598
0.0804718
0.0905937
0.10819
0.13721
0.196867
0.397187
0.999997
0.999997
0.999997
0.999997
0.999996
0.999995
0.999993
0.999992
0.999991
0.999991
0.99999
0.99999
0.99999
0.99999
0.99999
0.99999
0.99999
0.99999
0.99999
0.99999
0.99999
0.99999
0.99999
0.99999
0.99999
0.99999
0.99999
0.99999
0.99999
0.99999
0.99999
0.99999
0.99999
0.99999
0.99999
0.99999
0.99999
0.99999
0.99999
0.99999
0.99999
0.99999
0.99999
0.99999
0.99999
0.99999
0.99999
0.99999
0.99999
0.999988
0.999984
0.999966
0.999942
0.999923
0.999896
0.99982
0.999843
0.999898
0.999989
0.852197
0.0345176
0.0125435
0.0130373
0.0129717
0.0157578
0.0175669
0.0195753
0.0222306
0.0242935
0.0254767
0.0262713
0.0265536
0.0265685
0.025705
0.0243757
0.0242237
0.0250727
0.0252835
0.0244813
0.0218549
0.018908
0.0177238
0.0176975
0.0165402
0.0150127
0.0145492
0.0144255
0.0154317
0.016764
0.0186814
0.0214496
0.0242994
0.026405
0.0279037
0.0287239
0.0261248
0.999997
0.999998
0.999998
0.999997
0.999996
0.999996
0.999994
0.999992
0.999991
0.999991
0.99999
0.99999
0.99999
0.99999
0.99999
0.99999
0.99999
0.99999
0.99999
0.99999
0.99999
0.99999
0.99999
0.99999
0.99999
0.99999
0.99999
0.99999
0.99999
0.99999
0.99999
0.99999
0.99999
0.99999
0.99999
0.99999
0.99999
0.99999
0.99999
0.99999
0.99999
0.99999
0.99999
0.99999
0.99999
0.99999
0.99999
0.99999
0.99999
0.999988
0.999982
0.999948
0.999918
0.999898
0.99987
0.999865
0.999901
0.999914
0.99998
0.874498
0.0201216
0.00345866
0.00351718
0.00329923
0.00500145
0.00658246
0.00834946
0.00983847
0.0111683
0.0124544
0.0140929
0.014907
0.0147756
0.0123672
0.0104374
0.00973825
0.00943552
0.00850128
0.00562562
0.00340139
0.00207662
0.00127048
0.000827681
0.000611184
0.000545397
0.000529903
0.000524744
0.000535958
0.000546506
0.000541466
0.000584437
0.000612151
0.000600441
0.000385421
0.000164634
2.9106e-05
0.999997
0.999998
0.999998
0.999998
0.999997
0.999996
0.999995
0.999993
0.999991
0.999991
0.99999
0.99999
0.99999
0.99999
0.99999
0.99999
0.99999
0.99999
0.99999
0.99999
0.99999
0.99999
0.99999
0.99999
0.99999
0.99999
0.99999
0.99999
0.99999
0.99999
0.99999
0.99999
0.99999
0.99999
0.99999
0.99999
0.99999
0.99999
0.99999
0.99999
0.99999
0.99999
0.99999
0.99999
0.99999
0.99999
0.99999
0.99999
0.99999
0.999988
0.99998
0.99993
0.999904
0.999898
0.999895
0.999894
0.9999
0.999918
0.999979
0.89784
0.00999464
0.000861866
0.000766085
0.000630504
0.000906831
0.00100723
0.00127466
0.00156618
0.00182957
0.00227833
0.00260501
0.00267799
0.00242677
0.00201285
0.00154494
0.00119511
0.000881634
0.000547313
0.000221991
6.75494e-05
1.78756e-05
3.79963e-06
1.44794e-06
1.70279e-06
1.04026e-06
8.48465e-07
8.64838e-07
8.08638e-07
5.99776e-07
7.31217e-07
1.22261e-06
8.36878e-07
5.82008e-07
7.35516e-07
4.76111e-07
2.57928e-07
0.999997
0.999998
0.999998
0.999998
0.999997
0.999997
0.999996
0.999993
0.999991
0.999991
0.99999
0.99999
0.99999
0.99999
0.99999
0.99999
0.99999
0.99999
0.99999
0.99999
0.99999
0.99999
0.99999
0.99999
0.99999
0.99999
0.99999
0.99999
0.99999
0.99999
0.99999
0.99999
0.99999
0.99999
0.99999
0.99999
0.99999
0.99999
0.99999
0.99999
0.99999
0.99999
0.99999
0.99999
0.99999
0.99999
0.99999
0.99999
0.99999
0.999989
0.999984
0.999961
0.99991
0.9999
0.999886
0.999872
0.999845
0.999808
0.999945
0.920288
0.00427046
0.000193604
0.000166048
0.000118243
0.00012305
0.000119789
0.000118657
0.000118228
0.000122404
0.000130485
0.000141578
0.000148434
0.0001335
9.17888e-05
6.45609e-05
3.67993e-05
1.74041e-05
6.15347e-06
1.71265e-06
7.2402e-07
6.78969e-07
6.0276e-07
6.72525e-07
6.88064e-07
6.87996e-07
6.39761e-07
5.67854e-07
5.05163e-07
5.00462e-07
5.04307e-07
5.10298e-07
6.41332e-07
5.78306e-07
3.52994e-07
3.00137e-07
2.59965e-07
0.999998
0.999998
0.999998
0.999998
0.999997
0.999996
0.999994
0.999992
0.999991
0.99999
0.99999
0.99999
0.99999
0.99999
0.99999
0.99999
0.99999
0.99999
0.99999
0.99999
0.99999
0.99999
0.99999
0.99999
0.99999
0.99999
0.99999
0.99999
0.99999
0.99999
0.99999
0.99999
0.99999
0.99999
0.99999
0.99999
0.99999
0.99999
0.99999
0.99999
0.99999
0.99999
0.99999
0.99999
0.99999
0.99999
0.99999
0.99999
0.99999
0.999989
0.999985
0.999965
0.99994
0.999928
0.999914
0.999894
0.999893
0.999684
0.999838
0.93416
0.00572466
2.02825e-05
2.2802e-05
1.9565e-05
2.04763e-05
1.88758e-05
1.34318e-05
6.49281e-06
3.41751e-06
3.01254e-06
2.71504e-06
2.31172e-06
1.81034e-06
1.23554e-06
9.99179e-07
9.53193e-07
9.30986e-07
6.573e-07
6.94842e-07
6.54066e-07
6.89365e-07
7.33768e-07
7.59702e-07
7.52079e-07
7.34396e-07
6.93911e-07
6.20931e-07
5.28242e-07
4.71827e-07
4.81145e-07
4.88433e-07
4.91417e-07
5.37912e-07
4.24777e-07
2.99867e-07
2.44279e-07
0.999998
0.999999
0.999998
0.999998
0.999998
0.999996
0.999993
0.999991
0.999991
0.99999
0.99999
0.99999
0.99999
0.99999
0.99999
0.99999
0.99999
0.99999
0.99999
0.99999
0.99999
0.99999
0.99999
0.99999
0.99999
0.99999
0.99999
0.99999
0.99999
0.99999
0.99999
0.99999
0.99999
0.99999
0.99999
0.99999
0.99999
0.99999
0.99999
0.99999
0.99999
0.99999
0.99999
0.99999
0.99999
0.99999
0.99999
0.99999
0.99999
0.999989
0.999985
0.999964
0.999944
0.999926
0.999921
0.999894
0.999884
0.999651
0.99942
0.951308
0.0248941
3.1976e-07
1.48375e-06
8.32214e-07
1.73209e-06
1.16333e-06
7.25883e-07
1.03321e-06
1.398e-06
9.94929e-07
7.38407e-07
8.21705e-07
8.82264e-07
7.61784e-07
6.93043e-07
6.46629e-07
6.27447e-07
6.10135e-07
6.15937e-07
6.27822e-07
6.45851e-07
6.65965e-07
6.82778e-07
6.81558e-07
6.68113e-07
6.42888e-07
6.16579e-07
5.68729e-07
4.94827e-07
4.78775e-07
4.83332e-07
4.75187e-07
4.75953e-07
4.45036e-07
3.46974e-07
2.44278e-07
0.999999
0.999999
0.999999
0.999999
0.999999
0.999997
0.999994
0.999991
0.999991
0.99999
0.99999
0.99999
0.99999
0.99999
0.99999
0.99999
0.99999
0.99999
0.99999
0.99999
0.99999
0.99999
0.99999
0.99999
0.99999
0.99999
0.99999
0.99999
0.99999
0.99999
0.99999
0.99999
0.99999
0.99999
0.99999
0.99999
0.99999
0.99999
0.99999
0.99999
0.99999
0.99999
0.99999
0.99999
0.99999
0.99999
0.99999
0.99999
0.99999
0.999989
0.999985
0.999968
0.999943
0.999922
0.999918
0.999898
0.999842
0.999438
0.998255
0.954809
0.069755
3.1976e-07
3.8685e-07
4.05464e-07
3.92672e-07
3.84352e-07
3.85624e-07
4.61129e-07
7.03351e-07
8.11792e-07
7.94005e-07
7.18714e-07
6.69141e-07
6.37836e-07
6.08645e-07
5.93733e-07
5.86665e-07
5.8788e-07
5.89293e-07
5.94549e-07
6.03102e-07
6.16878e-07
6.22633e-07
6.19432e-07
6.08313e-07
5.81868e-07
5.63545e-07
5.45726e-07
5.02665e-07
4.77865e-07
4.80632e-07
4.72481e-07
4.58255e-07
4.32691e-07
3.58461e-07
2.54902e-07
0.999999
0.999999
0.999999
0.999999
0.999999
0.999999
0.999995
0.999991
0.99999
0.99999
0.99999
0.99999
0.99999
0.99999
0.99999
0.99999
0.99999
0.99999
0.99999
0.99999
0.99999
0.99999
0.99999
0.99999
0.99999
0.99999
0.99999
0.99999
0.99999
0.99999
0.99999
0.99999
0.99999
0.99999
0.99999
0.99999
0.99999
0.99999
0.99999
0.99999
0.99999
0.99999
0.99999
0.99999
0.99999
0.99999
0.99999
0.99999
0.99999
0.999989
0.999985
0.99997
0.999943
0.999917
0.999909
0.999894
0.999854
0.999362
0.998696
0.963082
0.0657253
0.000250845
3.2066e-07
3.32093e-07
3.24236e-07
3.30966e-07
3.29841e-07
3.33593e-07
3.51376e-07
4.1606e-07
5.45985e-07
6.33318e-07
6.37959e-07
6.29627e-07
6.19654e-07
6.11304e-07
6.05544e-07
6.0274e-07
6.01157e-07
6.01836e-07
6.02971e-07
6.03767e-07
6.03693e-07
6.01795e-07
5.94659e-07
5.68576e-07
5.43332e-07
5.26696e-07
4.91616e-07
4.68932e-07
4.71774e-07
4.63811e-07