/*--------------------------------*- C++ -*----------------------------------*\
| =========                 |                                                 |
| \\      /  F ield         | OpenFOAM: The Open Source CFD Toolbox           |
|  \\    /   O peration     | Version:  2.3.0                                 |
|   \\  /    A nd           | Web:      www.OpenFOAM.org                      |
|    \\/     M anipulation  |                                                 |
\*---------------------------------------------------------------------------*/
FoamFile
{
    version     2.0;
    format      ascii;
    class       volScalarField;
    location    "31";
    object      alpha.water;
}
// * * * * * * * * * * * * * * * * * * * * * * * * * * * * * * * * * * * * * //

dimensions      [0 0 0 0 0 0 0];

internalField   nonuniform List<scalar> 
6144
(
4.92817e-06
5.75455e-06
6.29214e-06
6.76677e-06
7.20779e-06
7.79731e-06
8.44583e-06
9.24249e-06
9.78174e-06
9.95043e-06
9.97556e-06
9.98253e-06
9.98598e-06
9.98848e-06
9.98868e-06
9.98938e-06
9.98842e-06
9.98896e-06
9.98831e-06
9.98862e-06
9.98816e-06
9.98825e-06
9.98798e-06
9.98788e-06
9.98766e-06
9.98753e-06
9.98733e-06
9.98722e-06
9.98704e-06
9.98677e-06
9.98629e-06
9.98586e-06
9.9853e-06
9.98476e-06
9.98411e-06
9.98374e-06
9.9834e-06
9.98333e-06
9.98306e-06
9.98266e-06
9.98244e-06
9.98244e-06
9.98244e-06
9.98579e-06
1.04704e-05
1.25647e-05
1.71056e-05
2.56511e-05
4.15779e-05
6.56426e-05
8.85477e-05
0.000113169
0.000138848
0.000158105
0.000166042
0.000169935
0.000172255
0.000178139
0.00141147
0.0848196
0.969773
0.99989
0.999999
0.999999
0.999999
0.999999
0.999999
0.999999
0.999999
0.999999
0.999999
0.999999
0.999999
0.999999
0.999999
0.999999
0.999999
0.999999
0.999999
0.999999
0.999999
0.999999
0.999999
0.999999
0.999999
0.999999
1
1
1
1
1
1
1
1
1
1
4.41499e-06
5.59836e-06
6.64377e-06
7.09571e-06
7.59034e-06
8.07323e-06
8.68492e-06
9.34889e-06
9.81545e-06
9.94937e-06
9.97309e-06
9.98302e-06
9.9904e-06
9.99585e-06
9.99712e-06
9.99776e-06
9.99695e-06
9.99707e-06
9.99634e-06
9.99617e-06
9.99548e-06
9.99533e-06
9.99492e-06
9.99475e-06
9.99458e-06
9.99457e-06
9.9946e-06
9.99471e-06
9.9948e-06
9.99472e-06
9.99461e-06
9.99447e-06
9.99425e-06
9.99392e-06
9.99358e-06
9.99331e-06
9.99297e-06
9.99242e-06
9.99153e-06
9.9904e-06
9.98892e-06
9.98723e-06
9.98537e-06
1.00195e-05
1.06018e-05
1.25575e-05
1.68089e-05
2.45765e-05
3.92361e-05
6.02428e-05
7.83221e-05
0.000114541
0.000150928
0.000165738
0.000161081
0.000152742
0.00015635
0.000174619
0.000559024
0.0901944
0.994947
0.999996
0.999999
0.999999
0.999999
0.999999
0.999999
0.999999
0.999999
0.999999
0.999999
0.999999
0.999999
0.999999
0.999999
0.999999
0.999999
0.999999
0.999999
0.999999
0.999999
0.999999
0.999999
0.999999
0.999999
0.999999
0.999999
0.999999
0.999999
1
0.999999
1
1
1
1
1
4.06892e-06
5.11026e-06
6.45971e-06
7.01746e-06
7.63473e-06
8.10698e-06
8.7129e-06
9.28312e-06
9.66874e-06
9.82983e-06
9.89647e-06
9.94547e-06
9.97652e-06
9.99239e-06
9.99685e-06
9.99807e-06
9.9976e-06
9.9977e-06
9.99724e-06
9.99707e-06
9.99653e-06
9.99635e-06
9.9959e-06
9.99566e-06
9.99542e-06
9.99533e-06
9.99524e-06
9.9952e-06
9.99515e-06
9.99509e-06
9.99495e-06
9.99477e-06
9.99443e-06
9.99399e-06
9.99334e-06
9.99257e-06
9.99138e-06
9.99019e-06
9.98889e-06
9.98803e-06
9.98727e-06
9.98853e-06
1.00013e-05
1.01508e-05
1.0893e-05
1.27925e-05
1.68435e-05
2.26062e-05
3.22359e-05
5.39668e-05
7.86251e-05
0.000135994
0.000158009
0.000160553
0.00015042
0.000144708
0.000141531
0.000166626
0.000506057
0.139447
0.996877
0.999999
0.999999
0.999999
0.999999
0.999999
0.999999
0.999999
0.999999
0.999999
0.999999
0.999999
0.999999
0.999999
0.999999
0.999999
0.999999
0.999999
0.999999
0.999999
0.999999
0.999999
0.999999
0.999999
0.999999
0.999999
0.999999
0.999999
0.999999
0.999999
0.999999
0.999999
0.999999
0.999999
1
1
3.81965e-06
4.60069e-06
5.97385e-06
6.67381e-06
7.45567e-06
7.90565e-06
8.49338e-06
9.08683e-06
9.54248e-06
9.75077e-06
9.85303e-06
9.92627e-06
9.96772e-06
9.98759e-06
9.99292e-06
9.99447e-06
9.99401e-06
9.99401e-06
9.99369e-06
9.99354e-06
9.99306e-06
9.99267e-06
9.99213e-06
9.99165e-06
9.99124e-06
9.99087e-06
9.9906e-06
9.99028e-06
9.99012e-06
9.98993e-06
9.9899e-06
9.98976e-06
9.9897e-06
9.98944e-06
9.98915e-06
9.9886e-06
9.98803e-06
9.98723e-06
9.98655e-06
9.9864e-06
9.98639e-06
9.98725e-06
1.00119e-05
1.02241e-05
1.10173e-05
1.29812e-05
1.68238e-05
2.19716e-05
2.88271e-05
4.98997e-05
9.27072e-05
0.00014402
0.000148746
0.000150634
0.000148849
0.000143912
0.000141173
0.00016427
0.000162968
0.160248
0.99562
0.999951
0.999958
0.999967
0.999972
0.999978
0.999984
0.99999
0.999994
0.999997
0.999998
0.999999
0.999999
0.999999
0.999999
0.999999
0.999999
0.999999
0.999999
0.999999
0.999999
0.999999
0.999999
0.999999
0.999999
0.999999
0.999999
0.999999
0.999999
0.999999
0.999999
0.999999
0.999999
0.999999
1
1
3.6067e-06
4.1797e-06
5.43221e-06
6.23291e-06
7.28228e-06
7.76063e-06
8.35856e-06
8.90823e-06
9.38639e-06
9.65859e-06
9.81547e-06
9.92032e-06
9.96996e-06
9.9906e-06
9.99591e-06
9.99755e-06
9.99741e-06
9.99775e-06
9.99762e-06
9.99778e-06
9.99744e-06
9.99736e-06
9.99691e-06
9.99653e-06
9.996e-06
9.9956e-06
9.99509e-06
9.99467e-06
9.99416e-06
9.99373e-06
9.99319e-06
9.99267e-06
9.992e-06
9.99141e-06
9.99073e-06
9.99014e-06
9.98943e-06
9.98862e-06
9.98754e-06
9.9869e-06
9.98618e-06
9.99196e-06
1.00463e-05
1.03157e-05
1.11208e-05
1.31208e-05
1.71335e-05
2.31215e-05
3.02012e-05
5.24279e-05
0.000107833
0.00014396
0.00013458
0.000135952
0.000150465
0.000151448
0.000148378
0.000148042
0.00011454
0.220582
0.997479
0.999381
0.99938
0.999433
0.999465
0.99952
0.999632
0.999743
0.999832
0.999883
0.999922
0.999949
0.999957
0.999957
0.999954
0.999952
0.99995
0.999956
0.99997
0.999982
0.99999
0.999995
0.999998
0.999999
0.999999
0.999999
0.999999
0.999999
0.999999
0.999999
0.999999
0.999999
0.999999
0.999999
1
1
3.40346e-06
3.85455e-06
4.91859e-06
5.72438e-06
6.99195e-06
7.59215e-06
8.22964e-06
8.77015e-06
9.23586e-06
9.55737e-06
9.76166e-06
9.90588e-06
9.9648e-06
9.98508e-06
9.98913e-06
9.99065e-06
9.99051e-06
9.99051e-06
9.99051e-06
9.99051e-06
9.99082e-06
9.99099e-06
9.99093e-06
9.99081e-06
9.9906e-06
9.99031e-06
9.99004e-06
9.9897e-06
9.98941e-06
9.98907e-06
9.98875e-06
9.98829e-06
9.98783e-06
9.98729e-06
9.98681e-06
9.98627e-06
9.9858e-06
9.98514e-06
9.98496e-06
9.98496e-06
9.98496e-06
9.98714e-06
1.00631e-05
1.03316e-05
1.11458e-05
1.33478e-05
1.79306e-05
2.49075e-05
3.42168e-05
5.56934e-05
0.000116305
0.000137868
0.000124067
0.000123145
0.000133449
0.000141445
0.000140277
0.000139228
0.00011454
0.256489
0.991594
0.997287
0.997212
0.997324
0.997376
0.997917
0.998473
0.999052
0.99934
0.999402
0.999396
0.99942
0.999405
0.999397
0.999384
0.999361
0.999328
0.999293
0.999271
0.999345
0.999506
0.999649
0.999781
0.999874
0.999935
0.999968
0.999982
0.999988
0.999991
0.999994
0.999997
0.999998
0.999999
0.999999
1
1
3.20657e-06
3.56331e-06
4.44872e-06
5.23399e-06
6.57075e-06
7.41657e-06
8.08346e-06
8.68417e-06
9.14407e-06
9.47163e-06
9.70567e-06
9.89225e-06
9.96633e-06
9.98973e-06
9.99451e-06
9.99658e-06
9.99616e-06
9.99604e-06
9.99545e-06
9.99492e-06
9.99409e-06
9.99371e-06
9.99329e-06
9.99301e-06
9.99262e-06
9.99223e-06
9.99175e-06
9.99132e-06
9.99091e-06
9.99058e-06
9.99022e-06
9.98983e-06
9.9893e-06
9.9887e-06
9.98804e-06
9.9874e-06
9.98681e-06
9.98619e-06
9.98567e-06
9.98528e-06
9.9851e-06
9.99137e-06
1.00658e-05
1.03338e-05
1.12132e-05
1.37719e-05
1.87225e-05
2.62735e-05
3.81827e-05
6.52044e-05
0.000122681
0.000131924
0.000120434
0.000119162
0.000119843
0.000121671
0.000123706
0.000132701
0.00011454
0.309723
0.987191
0.99167
0.991441
0.991348
0.991562
0.992517
0.993616
0.994991
0.996158
0.996846
0.997232
0.99756
0.997755
0.997867
0.997949
0.997994
0.998019
0.998065
0.998259
0.998623
0.998875
0.999102
0.999349
0.999481
0.999501
0.999597
0.999579
0.999552
0.999528
0.999579
0.999659
0.99974
0.999881
0.999992
1
1
3.00386e-06
3.29848e-06
3.98746e-06
4.77245e-06
6.16527e-06
7.3116e-06
7.85302e-06
8.55872e-06
9.09129e-06
9.45513e-06
9.67396e-06
9.87661e-06
9.96094e-06
9.98862e-06
9.99365e-06
9.99635e-06
9.99598e-06
9.99591e-06
9.99536e-06
9.99553e-06
9.99554e-06
9.9956e-06
9.99556e-06
9.9956e-06
9.99561e-06
9.99566e-06
9.99558e-06
9.99541e-06
9.99522e-06
9.99504e-06
9.99481e-06
9.99443e-06
9.99387e-06
9.99323e-06
9.99262e-06
9.99205e-06
9.99156e-06
9.991e-06
9.99036e-06
9.98991e-06
9.99008e-06
9.99832e-06
1.00543e-05
1.02697e-05
1.10903e-05
1.35751e-05
1.86889e-05
2.75588e-05
4.15131e-05
6.84321e-05
0.00011969
0.000127913
0.000119977
0.000119295
0.000118976
0.000118751
0.000118701
0.000119366
0.00011454
0.295864
0.978414
0.986036
0.985787
0.985714
0.986126
0.986565
0.987363
0.988261
0.98934
0.990301
0.991265
0.992201
0.992807
0.993051
0.993166
0.993362
0.993572
0.993777
0.993917
0.993903
0.99381
0.993698
0.993619
0.993606
0.993659
0.993764
0.993602
0.992944
0.99196
0.990907
0.989974
0.989185
0.988428
0.987282
0.986206
0.986302
2.80301e-06
3.07298e-06
3.52521e-06
4.2658e-06
5.64649e-06
6.97401e-06
7.71278e-06
8.41904e-06
9.0895e-06
9.47635e-06
9.6787e-06
9.86011e-06
9.95023e-06
9.98362e-06
9.98665e-06
9.98926e-06
9.9887e-06
9.98894e-06
9.98867e-06
9.98945e-06
9.98993e-06
9.99032e-06
9.99049e-06
9.99069e-06
9.99082e-06
9.99095e-06
9.99099e-06
9.99092e-06
9.9908e-06
9.99065e-06
9.99045e-06
9.99019e-06
9.98977e-06
9.98923e-06
9.98871e-06
9.98823e-06
9.98799e-06
9.98798e-06
9.98798e-06
9.98797e-06
9.98797e-06
9.98846e-06
1.00331e-05
1.02171e-05
1.1024e-05
1.34674e-05
1.85248e-05
2.86749e-05
4.50781e-05
6.8594e-05
0.000110791
0.000131839
0.000122551
0.000120879
0.000119987
0.000119173
0.000118522
0.000118472
0.00011454
0.207013
0.979012
0.990013
0.990164
0.990553
0.990799
0.990931
0.991044
0.991127
0.991281
0.991481
0.991656
0.991774
0.991856
0.991949
0.992075
0.992269
0.992474
0.992654
0.99276
0.992769
0.992553
0.992254
0.99199
0.991794
0.991701
0.991875
0.992055
0.991939
0.991566
0.991125
0.990835
0.990661
0.990946
0.992532
0.994376
0.996828
2.65582e-06
2.83767e-06
3.10256e-06
3.69299e-06
4.92003e-06
6.30621e-06
7.93704e-06
8.52209e-06
9.0901e-06
9.50879e-06
9.69832e-06
9.84986e-06
9.93801e-06
9.97954e-06
9.98903e-06
9.99501e-06
9.99465e-06
9.99488e-06
9.99439e-06
9.99468e-06
9.99475e-06
9.99474e-06
9.99448e-06
9.99427e-06
9.99407e-06
9.99396e-06
9.99381e-06
9.99359e-06
9.99332e-06
9.99298e-06
9.99249e-06
9.99196e-06
9.99129e-06
9.99051e-06
9.98978e-06
9.98917e-06
9.98878e-06
9.98857e-06
9.98851e-06
9.98861e-06
9.9887e-06
9.98971e-06
1.00181e-05
1.0185e-05
1.09995e-05
1.32874e-05
1.82029e-05
2.97349e-05
4.84389e-05
6.88127e-05
9.56919e-05
0.00013131
0.000129899
0.000125644
0.000123745
0.000122858
0.000118525
0.000118531
0.00011454
0.115328
0.981373
0.996211
0.996358
0.996603
0.996631
0.996561
0.996491
0.996483
0.996511
0.996648
0.996853
0.997105
0.997344
0.997602
0.99785
0.998088
0.998265
0.998344
0.998254
0.99806
0.99772
0.997237
0.996715
0.996269
0.995887
0.995667
0.995603
0.995539
0.995402
0.995331
0.995289
0.995839
0.996805
0.998059
0.999047
0.999547
2.51294e-06
2.65651e-06
2.76011e-06
3.16825e-06
4.28286e-06
5.67249e-06
7.53873e-06
8.72567e-06
9.12885e-06
9.48981e-06
9.68593e-06
9.80989e-06
9.88574e-06
9.9417e-06
9.97138e-06
9.98692e-06
9.98854e-06
9.99001e-06
9.99042e-06
9.99137e-06
9.99213e-06
9.99266e-06
9.99294e-06
9.99317e-06
9.99332e-06
9.99342e-06
9.99347e-06
9.99342e-06
9.99325e-06
9.99296e-06
9.99265e-06
9.99222e-06
9.99158e-06
9.99093e-06
9.99036e-06
9.98987e-06
9.98952e-06
9.98928e-06
9.98919e-06
9.98932e-06
9.98974e-06
9.99147e-06
1.00047e-05
1.01369e-05
1.08837e-05
1.28792e-05
1.73285e-05
2.94453e-05
5.05875e-05
7.08846e-05
8.93635e-05
0.000116985
0.000129709
0.000133873
0.000129363
0.000129754
0.000119077
0.00012948
0.00011454
0.0625551
0.988363
0.999535
0.999584
0.999654
0.999656
0.99966
0.999627
0.999614
0.999611
0.999637
0.999663
0.999713
0.999763
0.999812
0.99985
0.999879
0.999894
0.999898
0.999873
0.999843
0.999796
0.999728
0.999654
0.999592
0.999536
0.9995
0.999471
0.999426
0.999397
0.999381
0.999418
0.999537
0.999736
0.999884
0.999958
0.99998
2.44061e-06
2.54275e-06
2.53653e-06
2.7202e-06
3.73795e-06
5.11731e-06
7.17491e-06
8.78539e-06
9.21707e-06
9.51551e-06
9.64912e-06
9.79527e-06
9.8834e-06
9.95792e-06
9.9842e-06
9.99327e-06
9.99089e-06
9.99103e-06
9.99083e-06
9.99168e-06
9.99242e-06
9.99301e-06
9.99336e-06
9.99366e-06
9.99386e-06
9.99403e-06
9.99414e-06
9.99419e-06
9.99411e-06
9.99391e-06
9.9939e-06
9.99409e-06
9.99389e-06
9.99376e-06
9.99365e-06
9.99352e-06
9.99337e-06
9.99309e-06
9.9929e-06
9.99276e-06
9.99343e-06
9.99525e-06
1.0001e-05
1.00802e-05
1.07466e-05
1.25796e-05
1.64107e-05
2.76767e-05
5.15577e-05
7.54274e-05
9.27688e-05
0.000109488
0.000125123
0.000134331
0.000131939
0.000132065
0.00012681
0.000174817
0.000152668
0.0352896
0.988597
0.99999
0.999994
0.999996
0.999996
0.999996
0.999995
0.999994
0.999994
0.999995
0.999995
0.999996
0.999997
0.999998
0.999999
0.999999
0.999999
0.999999
0.999999
0.999999
0.999998
0.999998
0.999996
0.999994
0.999992
0.999992
0.999991
0.99999
0.999989
0.999989
0.99999
0.999993
0.999997
0.999999
0.999999
0.999999
2.33577e-06
2.4877e-06
2.43147e-06
2.42204e-06
3.1684e-06
4.43556e-06
6.6463e-06
8.40414e-06
9.24826e-06
9.57831e-06
9.71519e-06
9.84523e-06
9.92918e-06
9.99141e-06
1.00082e-05
1.00084e-05
1.00047e-05
9.99924e-06
9.99636e-06
9.99597e-06
9.99607e-06
9.99639e-06
9.99663e-06
9.99683e-06
9.99694e-06
9.99698e-06
9.99698e-06
9.99684e-06
9.99665e-06
9.99631e-06
9.99611e-06
9.99613e-06
9.99579e-06
9.99552e-06
9.99532e-06
9.995e-06
9.99463e-06
9.99434e-06
9.99417e-06
9.99459e-06
9.99634e-06
9.99906e-06
1.00028e-05
1.00578e-05
1.06174e-05
1.22574e-05
1.53734e-05
2.37406e-05
4.7952e-05
7.51037e-05
9.58994e-05
0.000108989
0.0001181
0.000131778
0.000130009
0.000134857
0.00014822
0.000232365
0.000248061
0.0181725
0.963419
0.999999
0.999999
0.999999
0.999999
0.999999
0.999999
0.999999
0.999999
0.999999
0.999999
0.999999
0.999999
0.999999
0.999999
0.999999
0.999999
0.999999
0.999999
0.999999
0.999999
0.999999
0.999999
0.999999
0.999999
0.999999
0.999999
0.999999
0.999999
0.999999
0.999999
1
1
1
1
1
2.27099e-06
2.47831e-06
2.38312e-06
2.36159e-06
2.74065e-06
3.63305e-06
5.69253e-06
7.90903e-06
9.26335e-06
9.58458e-06
9.70852e-06
9.82523e-06
9.90807e-06
9.97946e-06
1.00079e-05
1.00084e-05
1.00084e-05
1.00077e-05
1.00047e-05
1.00031e-05
1.00022e-05
1.00018e-05
1.00015e-05
1.00012e-05
1.0001e-05
1.00007e-05
1.00003e-05
9.99991e-06
9.99944e-06
9.99889e-06
9.99842e-06
9.99812e-06
9.99757e-06
9.99709e-06
9.99681e-06
9.9964e-06
9.99609e-06
9.996e-06
9.9963e-06
9.99742e-06
9.99993e-06
1.00037e-05
1.00091e-05
1.0055e-05
1.04912e-05
1.19027e-05
1.43969e-05
2.01022e-05
4.00674e-05
6.81113e-05
9.36832e-05
0.00010637
0.000113454
0.000122243
0.000122477
0.000131396
0.000157758
0.000255535
0.000297735
0.0259838
0.958901
0.999997
0.999999
0.999999
0.999999
0.999999
0.999999
0.999999
0.999999
0.999999
0.999999
0.999999
0.999999
0.999999
0.999999
0.999999
0.999999
0.999999
0.999999
0.999999
0.999999
0.999999
0.999999
0.999999
0.999999
0.999999
0.999999
0.999999
0.999999
0.999999
0.999999
1
1
1
1
1
2.25562e-06
2.66273e-06
2.69735e-06
2.71876e-06
2.65903e-06
3.2196e-06
4.65587e-06
7.1933e-06
9.15673e-06
9.58585e-06
9.70751e-06
9.79735e-06
9.87053e-06
9.95106e-06
9.99889e-06
1.00069e-05
1.00069e-05
1.00068e-05
1.00045e-05
1.00028e-05
1.00016e-05
1.0001e-05
1.00004e-05
1e-05
9.99962e-06
9.99926e-06
9.99889e-06
9.99846e-06
9.998e-06
9.9975e-06
9.99707e-06
9.99675e-06
9.99654e-06
9.99624e-06
9.99597e-06
9.99565e-06
9.9954e-06
9.99535e-06
9.99555e-06
9.99644e-06
9.99803e-06
1.00015e-05
1.0008e-05
1.0052e-05
1.03495e-05
1.1476e-05
1.36318e-05
1.8272e-05
3.14655e-05
5.59209e-05
8.10269e-05
0.00010394
0.000112964
0.000115877
0.000112924
0.000125822
0.000168392
0.00022317
0.000352221
0.0256021
0.950448
0.999873
0.999999
0.999999
0.999999
0.999999
0.999999
0.999999
0.999999
0.999999
0.999999
0.999999
0.999999
0.999999
0.999999
0.999999
0.999999
0.999999
0.999999
0.999999
0.999999
0.999999
0.999999
0.999999
0.999999
0.999999
0.999999
0.999999
0.999999
0.999999
0.999999
1
1
1
1
1
1.84478e-06
2.137e-06
2.33598e-06
2.96123e-06
3.29062e-06
3.20949e-06
4.10789e-06
6.60416e-06
9.06716e-06
9.62762e-06
9.75561e-06
9.82686e-06
9.88128e-06
9.9525e-06
1.00095e-05
1.00125e-05
1.00125e-05
1.00125e-05
1.00125e-05
1.00113e-05
1.001e-05
1.00091e-05
1.00083e-05
1.00077e-05
1.00072e-05
1.00067e-05
1.00063e-05
1.00059e-05
1.00054e-05
1.00049e-05
1.00045e-05
1.00042e-05
1.0004e-05
1.00038e-05
1.00036e-05
1.00033e-05
1.00031e-05
1.00031e-05
1.00033e-05
1.0004e-05
1.00051e-05
1.0009e-05
1.00201e-05
1.00757e-05
1.03123e-05
1.11019e-05
1.29353e-05
1.64964e-05
2.35526e-05
3.87292e-05
5.77547e-05
9.65888e-05
0.000120525
0.000128279
0.000131987
0.000157854
0.000161576
0.000183427
0.000461751
0.0395469
0.931101
0.999305
0.999998
0.999999
0.999999
0.999999
0.999999
0.999999
0.999999
0.999999
0.999999
0.999999
0.999999
0.999999
0.999999
0.999999
0.999999
0.999999
0.999999
0.999999
0.999999
0.999999
0.999999
0.999999
0.999999
0.999999
0.999999
0.999999
0.999999
0.999999
0.999999
0.999999
0.999999
1
1
1
4.35728e-06
5.54833e-06
6.23275e-06
6.71709e-06
7.13127e-06
7.7861e-06
8.71375e-06
9.42382e-06
9.73071e-06
9.82626e-06
9.8945e-06
9.95159e-06
9.99058e-06
1.00099e-05
1.00105e-05
1.00105e-05
1.00105e-05
1.00105e-05
1.00099e-05
1.0009e-05
1.0008e-05
1.00077e-05
1.00072e-05
1.0007e-05
1.00069e-05
1.00069e-05
1.00072e-05
1.00074e-05
1.00074e-05
1.00074e-05
1.00074e-05
1.00074e-05
1.00074e-05
1.00073e-05
1.00072e-05
1.00072e-05
1.00069e-05
1.00064e-05
1.00054e-05
1.00044e-05
1.00031e-05
1.00046e-05
1.00197e-05
1.00679e-05
1.04836e-05
1.23776e-05
1.64942e-05
2.46312e-05
4.03882e-05
6.58689e-05
9.02492e-05
0.000109114
0.00013194
0.000153016
0.000161812
0.000169887
0.000172319
0.000181408
0.00125571
0.0854305
0.979466
0.999944
0.999999
0.999999
0.999999
0.999999
0.999999
0.999999
0.999999
0.999999
0.999999
0.999999
0.999999
0.999999
0.999999
0.999999
0.999999
0.999999
0.999999
0.999999
0.999999
0.999999
0.999999
0.999999
0.999999
0.999999
0.999999
0.999999
0.999999
0.999999
0.999999
0.999999
0.999999
1
1
1
3.53381e-06
5.11229e-06
6.67043e-06
7.21445e-06
7.86755e-06
8.53977e-06
8.91642e-06
9.14968e-06
9.38321e-06
9.56679e-06
9.73082e-06
9.86303e-06
9.94801e-06
9.99272e-06
1.00055e-05
1.00093e-05
1.00087e-05
1.0009e-05
1.00087e-05
1.00089e-05
1.00087e-05
1.00086e-05
1.00083e-05
1.0008e-05
1.00077e-05
1.00074e-05
1.00071e-05
1.00065e-05
1.0006e-05
1.00058e-05
1.00054e-05
1.00049e-05
1.00043e-05
1.00037e-05
1.0003e-05
1.00022e-05
1.00013e-05
1.00005e-05
9.99965e-06
9.99942e-06
9.99928e-06
1.00067e-05
1.00515e-05
1.02447e-05
1.07303e-05
1.20067e-05
1.49601e-05
2.2583e-05
3.94116e-05
6.2903e-05
7.36155e-05
9.68405e-05
0.000139378
0.000160839
0.000160515
0.000164769
0.000164395
0.000194883
0.000613384
0.114105
0.991136
0.999998
0.999999
0.999999
0.999999
0.999999
0.999999
0.999999
0.999999
0.999999
0.999999
0.999999
0.999999
0.999999
0.999999
0.999999
0.999999
0.999999
0.999999
0.999999
0.999999
0.999999
0.999999
0.999999
0.999999
0.999999
0.999999
0.999999
0.999999
0.999999
0.999999
0.999999
0.999999
0.999999
0.999999
1
3.14879e-06
4.23614e-06
6.17463e-06
7.00054e-06
7.6666e-06
8.14673e-06
8.56713e-06
8.88272e-06
9.17749e-06
9.4299e-06
9.64331e-06
9.81653e-06
9.92259e-06
9.98353e-06
1.0001e-05
1.0006e-05
1.00057e-05
1.00059e-05
1.00056e-05
1.00055e-05
1.00052e-05
1.00049e-05
1.00046e-05
1.00042e-05
1.00038e-05
1.00034e-05
1.00031e-05
1.00027e-05
1.00024e-05
1.00021e-05
1.00016e-05
1.00012e-05
1.00007e-05
1.00001e-05
9.9994e-06
9.99865e-06
9.99798e-06
9.9973e-06
9.99677e-06
9.99681e-06
9.99744e-06
1.00044e-05
1.00335e-05
1.01758e-05
1.0665e-05
1.18189e-05
1.43175e-05
1.95862e-05
3.05231e-05
4.53401e-05
6.92304e-05
0.000124789
0.000153709
0.000159697
0.000149868
0.000151604
0.000147794
0.000193889
0.000421383
0.143729
0.991432
0.999999
0.999997
0.999998
0.999998
0.999999
0.999999
0.999999
0.999999
0.999999
0.999999
0.999999
0.999999
0.999999
0.999999
0.999999
0.999999
0.999999
0.999999
0.999999
0.999999
0.999999
0.999999
0.999999
0.999999
0.999999
0.999999
0.999999
0.999999
0.999999
0.999999
0.999999
0.999999
0.999999
0.999999
1
2.97534e-06
3.442e-06
5.42732e-06
6.34988e-06
7.12934e-06
7.83317e-06
8.38603e-06
8.77888e-06
9.10432e-06
9.38582e-06
9.61252e-06
9.79908e-06
9.91082e-06
9.97786e-06
9.99748e-06
1.00035e-05
1.0003e-05
1.00031e-05
1.00026e-05
1.00024e-05
1.00019e-05
1.00016e-05
1.00012e-05
1.00008e-05
1.00003e-05
9.99998e-06
9.99964e-06
9.99931e-06
9.99901e-06
9.99869e-06
9.99831e-06
9.99792e-06
9.99746e-06
9.99696e-06
9.99634e-06
9.99571e-06
9.99519e-06
9.99452e-06
9.9939e-06
9.99382e-06
9.99486e-06
1.00017e-05
1.00221e-05
1.01073e-05
1.04682e-05
1.16447e-05
1.44536e-05
1.92492e-05
2.32838e-05
3.14279e-05
9.74628e-05
0.000145679
0.000153315
0.000152875
0.000142741
0.000141398
0.000139424
0.000207028
0.000338217
0.15054
0.998015
0.999699
0.999712
0.999746
0.999735
0.99976
0.999813
0.999872
0.999918
0.999947
0.999964
0.999977
0.999985
0.999989
0.999989
0.999989
0.999991
0.999993
0.999996
0.999998
0.999999
0.999999
0.999999
0.999999
0.999999
0.999999
0.999999
0.999999
0.999999
0.999999
0.999999
0.999999
0.999999
0.999999
0.999999
1
2.86266e-06
2.95846e-06
4.85839e-06
5.9107e-06
6.71948e-06
7.54739e-06
8.22679e-06
8.70547e-06
9.06464e-06
9.36738e-06
9.60135e-06
9.79311e-06
9.90622e-06
9.97498e-06
9.99561e-06
1.00022e-05
1.00017e-05
1.00018e-05
1.00012e-05
1.0001e-05
1.00004e-05
1e-05
9.99953e-06
9.99911e-06
9.99868e-06
9.9983e-06
9.99797e-06
9.99765e-06
9.99738e-06
9.99708e-06
9.99673e-06
9.99637e-06
9.99594e-06
9.99546e-06
9.99485e-06
9.99423e-06
9.9937e-06
9.99303e-06
9.99235e-06
9.99237e-06
9.99401e-06
1.00013e-05
1.00195e-05
1.00937e-05
1.04354e-05
1.17289e-05
1.52653e-05
2.20319e-05
2.77653e-05
4.11116e-05
0.000134335
0.000145418
0.000140671
0.0001409
0.000148865
0.000142085
0.000161654
0.000207256
0.00022731
0.239402
0.991288
0.995381
0.995083
0.995096
0.995081
0.995735
0.996179
0.996723
0.997162
0.99747
0.99765
0.997815
0.998
0.998187
0.998388
0.998632
0.998874
0.999148
0.999416
0.999618
0.99976
0.999858
0.999923
0.999965
0.999986
0.999995
0.999998
0.999999
0.999999
0.999998
0.999999
0.999999
0.999999
1
0.999999
1
2.69659e-06
2.65129e-06
4.27481e-06
5.52293e-06
6.38784e-06
7.26696e-06
8.03557e-06
8.6148e-06
9.02545e-06
9.35445e-06
9.59673e-06
9.79152e-06
9.90486e-06
9.9735e-06
9.99436e-06
1.00012e-05
1.00007e-05
1.00006e-05
9.99996e-06
9.99974e-06
9.99909e-06
9.99863e-06
9.9981e-06
9.99767e-06
9.99724e-06
9.99689e-06
9.99658e-06
9.99631e-06
9.99609e-06
9.99588e-06
9.99559e-06
9.99531e-06
9.99494e-06
9.99451e-06
9.99394e-06
9.99337e-06
9.99285e-06
9.99223e-06
9.99155e-06
9.99171e-06
9.99352e-06
1.00011e-05
1.00179e-05
1.00865e-05
1.04335e-05
1.1954e-05
1.58353e-05
2.33095e-05
3.3645e-05
5.15257e-05
0.00013817
0.000139498
0.000127922
0.000126519
0.000137289
0.00015098
0.000165996
0.000188129
0.00013675
0.258103
0.978555
0.985672
0.983732
0.98324
0.983152
0.983261
0.982977
0.9828
0.982753
0.983369
0.983759
0.983977
0.98404
0.984199
0.984666
0.985526
0.986673
0.988272
0.990136
0.991962
0.993657
0.995104
0.996307
0.997354
0.998167
0.998765
0.999189
0.999466
0.999629
0.999747
0.999848
0.999925
0.999969
0.999996
1
1
2.53353e-06
2.38178e-06
3.6481e-06
5.05381e-06
6.11524e-06
7.05422e-06
7.89891e-06
8.54907e-06
9.00058e-06
9.34763e-06
9.59484e-06
9.79406e-06
9.90663e-06
9.97297e-06
9.99386e-06
1.00007e-05
1.00003e-05
1.00001e-05
9.99948e-06
9.9993e-06
9.99863e-06
9.99814e-06
9.99762e-06
9.9972e-06
9.9968e-06
9.99647e-06
9.9962e-06
9.99596e-06
9.99578e-06
9.9956e-06
9.99535e-06
9.99511e-06
9.99476e-06
9.99436e-06
9.99384e-06
9.99329e-06
9.9928e-06
9.9922e-06
9.99154e-06
9.99162e-06
9.994e-06
1.00023e-05
1.0019e-05
1.00848e-05
1.04397e-05
1.20353e-05
1.60936e-05
2.38137e-05
3.71178e-05
4.98333e-05
0.00011186
0.000135597
0.000122981
0.000120855
0.000126751
0.000138972
0.000146403
0.000157372
0.00011454
0.287987
0.971851
0.979938
0.978064
0.977452
0.97741
0.976464
0.975645
0.974656
0.973753
0.973128
0.972601
0.971492
0.970005
0.968463
0.967182
0.966418
0.966119
0.966828
0.967969
0.968955
0.970438
0.97216
0.973983
0.976132
0.978378
0.980464
0.982309
0.984366
0.986656
0.988667
0.990874
0.993151
0.995234
0.998076
0.999849
0.99986
2.40068e-06
2.17394e-06
3.09296e-06
4.41196e-06
5.76078e-06
6.84014e-06
7.80395e-06
8.50599e-06
8.98892e-06
9.34574e-06
9.59967e-06
9.80122e-06
9.9115e-06
9.97302e-06
9.99339e-06
1.00001e-05
9.99983e-06
9.99985e-06
9.99941e-06
9.99939e-06
9.99907e-06
9.99874e-06
9.99833e-06
9.99801e-06
9.99771e-06
9.99745e-06
9.99721e-06
9.99698e-06
9.99676e-06
9.99652e-06
9.9962e-06
9.99591e-06
9.99549e-06
9.99503e-06
9.99452e-06
9.994e-06
9.99352e-06
9.99297e-06
9.99236e-06
9.99182e-06
9.99382e-06
1.00012e-05
1.00173e-05
1.00823e-05
1.04464e-05
1.2055e-05
1.62649e-05
2.41794e-05
3.87038e-05
5.92872e-05
8.6009e-05
0.000129846
0.000121608
0.000119715
0.000120853
0.000124524
0.000127417
0.000134098
0.000116024
0.224702
0.966849
0.98068
0.979665
0.979354
0.978509
0.976999
0.975484
0.973871
0.972578
0.971544
0.97051
0.968758
0.966648
0.964883
0.963558
0.962587
0.961461
0.960639
0.959832
0.95861
0.956917
0.954666
0.952085
0.950066
0.948956
0.948475
0.948269
0.947881
0.947199
0.945676
0.943208
0.938304
0.930802
0.91379
0.868348
0.66957
2.26892e-06
2.02175e-06
2.5895e-06
3.62565e-06
5.13559e-06
6.48755e-06
7.68792e-06
8.47295e-06
8.9854e-06
9.35819e-06
9.61081e-06
9.81078e-06
9.91772e-06
9.97637e-06
9.99565e-06
1.00021e-05
1.00017e-05
1.00015e-05
1.0001e-05
1.00008e-05
1.00004e-05
1e-05
9.99962e-06
9.99932e-06
9.99902e-06
9.99876e-06
9.99851e-06
9.9983e-06
9.99812e-06
9.99793e-06
9.99768e-06
9.99743e-06
9.99708e-06
9.99671e-06
9.99624e-06
9.99574e-06
9.99528e-06
9.99477e-06
9.99435e-06
9.99457e-06
9.99728e-06
1.00047e-05
1.00188e-05
1.00803e-05
1.04413e-05
1.20473e-05
1.63764e-05
2.43981e-05
3.91924e-05
6.11146e-05
8.21378e-05
0.000113771
0.000124331
0.000122936
0.000120838
0.000125696
0.000118525
0.0001254
0.00011454
0.156916
0.977471
0.993954
0.99446
0.994829
0.994893
0.994916
0.994532
0.994147
0.99369
0.993131
0.992396
0.991669
0.990853
0.990154
0.989588
0.988748
0.987651
0.986037
0.984028
0.981513
0.978257
0.973301
0.966392
0.958136
0.950569
0.945501
0.94365
0.942376
0.939833
0.936168
0.930783
0.924059
0.91601
0.910654
0.908196
0.913143
2.15789e-06
1.8993e-06
2.16872e-06
2.86352e-06
4.18165e-06
5.83649e-06
7.47715e-06
8.44501e-06
8.99332e-06
9.37364e-06
9.62749e-06
9.82754e-06
9.92602e-06
9.97841e-06
9.99716e-06
1.00035e-05
1.00033e-05
1.00032e-05
1.00028e-05
1.00027e-05
1.00024e-05
1.0002e-05
1.00016e-05
1.00013e-05
1.0001e-05
1.00007e-05
1.00004e-05
1.00001e-05
9.99988e-06
9.99963e-06
9.99932e-06
9.99902e-06
9.99863e-06
9.9982e-06
9.9976e-06
9.99698e-06
9.99642e-06
9.99589e-06
9.99548e-06
9.99571e-06
9.99848e-06
1.0006e-05
1.00219e-05
1.00853e-05
1.0442e-05
1.18053e-05
1.58165e-05
2.39814e-05
3.67827e-05
5.65249e-05
7.89315e-05
0.000100049
0.000115093
0.000121987
0.000121271
0.000127268
0.000118829
0.000131218
0.00011454
0.0882182
0.985003
0.998367
0.998441
0.998568
0.998551
0.998611
0.998674
0.998759
0.998833
0.998844
0.998712
0.998587
0.998418
0.99826
0.998132
0.998009
0.99788
0.997691
0.997459
0.997128
0.996558
0.99563
0.994214
0.992555
0.991029
0.989867
0.98796
0.986089
0.984643
0.982635
0.980212
0.978239
0.977348
0.979775
0.987121
0.994125
2.04382e-06
1.7882e-06
1.85802e-06
2.16919e-06
3.02263e-06
4.73866e-06
6.9924e-06
8.29266e-06
8.97461e-06
9.38113e-06
9.64838e-06
9.84377e-06
9.93167e-06
9.97866e-06
9.9973e-06
1.00036e-05
1.00035e-05
1.00035e-05
1.00034e-05
1.00033e-05
1.0003e-05
1.00027e-05
1.00024e-05
1.00021e-05
1.00017e-05
1.00015e-05
1.00012e-05
1.00009e-05
1.00007e-05
1.00004e-05
1.00002e-05
9.99992e-06
9.99961e-06
9.99925e-06
9.99869e-06
9.99814e-06
9.9977e-06
9.99725e-06
9.99687e-06
9.99715e-06
9.99994e-06
1.00078e-05
1.00249e-05
1.00902e-05
1.04276e-05
1.15256e-05
1.48684e-05
2.24924e-05
3.60215e-05
5.31717e-05
7.20065e-05
9.99319e-05
0.000108234
0.000123719
0.000122653
0.000126636
0.000119527
0.000136212
0.00011454
0.0579402
0.98779
0.999805
0.999798
0.999825
0.999821
0.999826
0.999839
0.999856
0.999875
0.999893
0.999905
0.999909
0.999908
0.999906
0.999906
0.999903
0.999895
0.999888
0.999874
0.999851
0.999812
0.999757
0.999691
0.999628
0.99959
0.999589
0.999588
0.999566
0.999565
0.999492
0.999447
0.999415
0.999535
0.999687
0.999832
0.999929
1.94549e-06
1.66765e-06
1.66787e-06
1.7349e-06
2.15082e-06
3.34109e-06
6.09317e-06
8.07692e-06
8.97076e-06
9.41054e-06
9.68017e-06
9.86213e-06
9.9364e-06
9.98002e-06
9.998e-06
1.00036e-05
1.00034e-05
1.00035e-05
1.00033e-05
1.00032e-05
1.00029e-05
1.00026e-05
1.00023e-05
1.0002e-05
1.00017e-05
1.00014e-05
1.00012e-05
1.00009e-05
1.00007e-05
1.00004e-05
1.00002e-05
9.99994e-06
9.99963e-06
9.99927e-06
9.99869e-06
9.99815e-06
9.99775e-06
9.99733e-06
9.99692e-06
9.99723e-06
1e-05
1.00082e-05
1.0026e-05
1.00899e-05
1.0349e-05
1.12516e-05
1.40021e-05
2.05683e-05
3.48773e-05
5.82697e-05
7.76801e-05
0.000100526
0.000111912
0.000126218
0.00011972
0.000124814
0.000130725
0.000187455
0.0002082
0.024961
0.964984
0.999999
0.99999
0.999996
0.999995
0.999995
0.999997
0.999997
0.999998
0.999998
0.999998
0.999999
0.999999
0.999999
0.999999
0.999999
0.999998
0.999998
0.999998
0.999998
0.999997
0.999997
0.999997
0.999996
0.999997
0.999998
0.999998
0.999998
0.999999
0.999999
0.999998
0.999998
0.999999
0.999999
0.999999
0.999999
1.88461e-06
1.59242e-06
1.56453e-06
1.55039e-06
1.6827e-06
2.2497e-06
4.54911e-06
7.59531e-06
9.02889e-06
9.45809e-06
9.71574e-06
9.86997e-06
9.93197e-06
9.97171e-06
9.99671e-06
1.00037e-05
1.00037e-05
1.00037e-05
1.00036e-05
1.00035e-05
1.00032e-05
1.00029e-05
1.00026e-05
1.00023e-05
1.0002e-05
1.00017e-05
1.00014e-05
1.00011e-05
1.00008e-05
1.00005e-05
1.00002e-05
9.9997e-06
9.99912e-06
9.99836e-06
9.9977e-06
9.99713e-06
9.99664e-06
9.99619e-06
9.99586e-06
9.99652e-06
9.9986e-06
1.00074e-05
1.00263e-05
1.00843e-05
1.03056e-05
1.10731e-05
1.33763e-05
1.87322e-05
2.97025e-05
5.59209e-05
8.14125e-05
0.000102759
0.000112757