/*--------------------------------*- C++ -*----------------------------------*\
| =========                 |                                                 |
| \\      /  F ield         | OpenFOAM: The Open Source CFD Toolbox           |
|  \\    /   O peration     | Version:  2.3.0                                 |
|   \\  /    A nd           | Web:      www.OpenFOAM.org                      |
|    \\/     M anipulation  |                                                 |
\*---------------------------------------------------------------------------*/
FoamFile
{
    version     2.0;
    format      ascii;
    class       volScalarField;
    location    "31";
    object      alpha.airMean;
}
// * * * * * * * * * * * * * * * * * * * * * * * * * * * * * * * * * * * * * //

dimensions      [0 0 0 0 0 0 0];

internalField   nonuniform List<scalar> 
6144
(
0.999992
0.999992
0.999991
0.999991
0.999991
0.999991
0.99999
0.99999
0.99999
0.99999
0.99999
0.99999
0.99999
0.99999
0.99999
0.99999
0.99999
0.99999
0.99999
0.99999
0.99999
0.99999
0.99999
0.99999
0.99999
0.99999
0.99999
0.99999
0.99999
0.99999
0.99999
0.99999
0.99999
0.99999
0.99999
0.99999
0.99999
0.99999
0.99999
0.99999
0.99999
0.99999
0.99999
0.99999
0.99999
0.99999
0.99999
0.99999
0.99999
0.99999
0.999989
0.999983
0.999971
0.999952
0.999939
0.999891
0.9998
0.999382
0.998525
0.93784
0.0389802
0.000234675
1.13927e-06
9.56174e-07
9.56178e-07
9.42543e-07
9.42326e-07
9.31249e-07
9.29414e-07
9.21288e-07
9.17142e-07
9.10232e-07
9.05357e-07
8.98936e-07
8.93836e-07
8.87726e-07
8.82646e-07
8.77655e-07
8.72197e-07
8.6703e-07
8.61775e-07
8.56203e-07
8.51225e-07
8.46804e-07
8.42355e-07
8.37741e-07
8.32606e-07
8.2437e-07
7.98479e-07
7.29987e-07
6.53349e-07
6.02203e-07
5.4533e-07
4.91995e-07
4.54224e-07
4.25195e-07
0.999993
0.999992
0.999992
0.999991
0.999991
0.999991
0.99999
0.99999
0.99999
0.99999
0.99999
0.99999
0.99999
0.99999
0.99999
0.99999
0.99999
0.99999
0.99999
0.99999
0.99999
0.99999
0.99999
0.99999
0.99999
0.99999
0.99999
0.99999
0.99999
0.99999
0.99999
0.99999
0.99999
0.99999
0.99999
0.99999
0.99999
0.99999
0.99999
0.99999
0.99999
0.99999
0.99999
0.99999
0.99999
0.99999
0.99999
0.99999
0.99999
0.99999
0.999988
0.999983
0.999972
0.999955
0.999943
0.999905
0.999788
0.999244
0.998295
0.948402
0.0409023
9.10572e-05
9.66264e-07
9.70426e-07
9.60503e-07
9.45054e-07
9.44281e-07
9.33403e-07
9.29896e-07
9.20364e-07
9.16148e-07
9.09245e-07
9.04507e-07
8.98791e-07
8.93531e-07
8.87615e-07
8.81774e-07
8.76361e-07
8.70893e-07
8.65439e-07
8.59518e-07
8.54334e-07
8.50223e-07
8.45214e-07
8.39716e-07
8.33529e-07
8.26115e-07
8.1418e-07
7.85735e-07
7.23983e-07
6.55623e-07
6.06449e-07
5.49825e-07
4.9781e-07
4.65239e-07
4.34299e-07
0.999993
0.999993
0.999992
0.999992
0.999991
0.999991
0.99999
0.99999
0.99999
0.99999
0.99999
0.99999
0.99999
0.99999
0.99999
0.99999
0.99999
0.99999
0.99999
0.99999
0.99999
0.99999
0.99999
0.99999
0.99999
0.99999
0.99999
0.99999
0.99999
0.99999
0.99999
0.99999
0.99999
0.99999
0.99999
0.99999
0.99999
0.99999
0.99999
0.99999
0.99999
0.99999
0.99999
0.99999
0.99999
0.99999
0.99999
0.99999
0.99999
0.99999
0.999988
0.999982
0.999975
0.99996
0.999939
0.999886
0.999846
0.99942
0.999046
0.952777
0.0456402
4.07259e-05
9.82237e-07
9.88146e-07
9.73788e-07
9.64197e-07
9.65938e-07
9.56272e-07
9.53294e-07
9.43514e-07
9.37135e-07
9.27023e-07
9.19871e-07
9.11365e-07
9.05782e-07
8.98616e-07
8.89546e-07
8.79608e-07
8.702e-07
8.62649e-07
8.55413e-07
8.47525e-07
8.39263e-07
8.31994e-07
8.26069e-07
8.22144e-07
8.1624e-07
8.02521e-07
7.7227e-07
7.19168e-07
6.64734e-07
6.19691e-07
5.61961e-07
5.04515e-07
4.7252e-07
4.39097e-07
0.999993
0.999993
0.999993
0.999992
0.999991
0.999991
0.999991
0.99999
0.99999
0.99999
0.99999
0.99999
0.99999
0.99999
0.99999
0.99999
0.99999
0.99999
0.99999
0.99999
0.99999
0.99999
0.99999
0.99999
0.99999
0.99999
0.99999
0.99999
0.99999
0.99999
0.99999
0.99999
0.99999
0.99999
0.99999
0.99999
0.99999
0.99999
0.99999
0.99999
0.99999
0.99999
0.99999
0.99999
0.99999
0.99999
0.99999
0.99999
0.99999
0.99999
0.999987
0.999983
0.999977
0.999957
0.999924
0.999869
0.999871
0.99954
0.999536
0.944394
0.0481281
2.79316e-05
1.09634e-06
1.06099e-06
1.03566e-06
9.86815e-07
9.74067e-07
9.55863e-07
9.49938e-07
9.37296e-07
9.34407e-07
9.34605e-07
9.40127e-07
9.41025e-07
9.33856e-07
9.21512e-07
9.02423e-07
8.84882e-07
8.71892e-07
8.612e-07
8.50834e-07
8.40616e-07
8.32109e-07
8.24847e-07
8.18901e-07
8.12835e-07
8.02229e-07
7.83437e-07
7.52591e-07
7.12766e-07
6.75221e-07
6.31002e-07
5.70636e-07
5.0936e-07
4.77315e-07
4.39913e-07
0.999993
0.999993
0.999993
0.999992
0.999992
0.999991
0.999991
0.99999
0.99999
0.99999
0.99999
0.99999
0.99999
0.99999
0.99999
0.99999
0.99999
0.99999
0.99999
0.99999
0.99999
0.99999
0.99999
0.99999
0.99999
0.99999
0.99999
0.99999
0.99999
0.99999
0.99999
0.99999
0.99999
0.99999
0.99999
0.99999
0.99999
0.99999
0.99999
0.99999
0.99999
0.99999
0.99999
0.99999
0.99999
0.99999
0.99999
0.99999
0.99999
0.999989
0.999988
0.999984
0.999974
0.999952
0.999918
0.999856
0.999846
0.999651
0.999805
0.887814
0.0213182
6.267e-05
2.35864e-05
9.4945e-06
6.5186e-06
4.93155e-06
5.06491e-06
5.0234e-06
5.24799e-06
5.39691e-06
5.62558e-06
5.71899e-06
5.43928e-06
4.83163e-06
4.16647e-06
3.57626e-06
3.05859e-06
2.48106e-06
1.9347e-06
1.48788e-06
1.17819e-06
9.83019e-07
8.77064e-07
8.26381e-07
8.00004e-07
7.71216e-07
7.57224e-07
7.44626e-07
7.29963e-07
7.06214e-07
6.7451e-07
6.3208e-07
5.72814e-07
5.12988e-07
4.79199e-07
4.38399e-07
0.999993
0.999993
0.999993
0.999993
0.999992
0.999992
0.999991
0.999991
0.99999
0.99999
0.99999
0.99999
0.99999
0.99999
0.99999
0.99999
0.99999
0.99999
0.99999
0.99999
0.99999
0.99999
0.99999
0.99999
0.99999
0.99999
0.99999
0.99999
0.99999
0.99999
0.99999
0.99999
0.99999
0.99999
0.99999
0.99999
0.99999
0.99999
0.99999
0.99999
0.99999
0.99999
0.99999
0.99999
0.99999
0.99999
0.99999
0.99999
0.99999
0.999989
0.999987
0.999984
0.999969
0.999946
0.999909
0.999852
0.999852
0.999755
0.999933
0.778628
0.0128608
0.00124642
0.00100601
0.000697816
0.000596533
0.000549595
0.00054278
0.000550037
0.000564962
0.000573568
0.000577148
0.000578831
0.000570896
0.000540166
0.000507053
0.000469431
0.00041438
0.000350034
0.000279288
0.0002094
0.000151385
0.000102807
6.64388e-05
4.08065e-05
2.27767e-05
1.09722e-05
4.55972e-06
2.02981e-06
1.17217e-06
8.01647e-07
6.15292e-07
5.18276e-07
4.69203e-07
4.53172e-07
4.35988e-07
4.0882e-07
0.999993
0.999994
0.999993
0.999993
0.999993
0.999992
0.999992
0.999991
0.99999
0.99999
0.99999
0.99999
0.99999
0.99999
0.99999
0.99999
0.99999
0.99999
0.99999
0.99999
0.99999
0.99999
0.99999
0.99999
0.99999
0.99999
0.99999
0.99999
0.99999
0.99999
0.99999
0.99999
0.99999
0.99999
0.99999
0.99999
0.99999
0.99999
0.99999
0.99999
0.99999
0.99999
0.99999
0.99999
0.99999
0.99999
0.99999
0.99999
0.99999
0.999989
0.999988
0.999984
0.99997
0.999945
0.999913
0.999854
0.999829
0.999792
0.999988
0.625183
0.0130494
0.00798187
0.00805512
0.00735662
0.00693479
0.00683735
0.00669832
0.00678988
0.0068029
0.00685593
0.0068812
0.00675252
0.00672539
0.00675437
0.00676146
0.00644205
0.00600165
0.00569761
0.0051735
0.00456948
0.00410208
0.00347755
0.00286357
0.00235004
0.00188157
0.00148141
0.00108317
0.00071426
0.000452681
0.000258682
0.000126358
4.87586e-05
1.26104e-05
7.4973e-06
1.03475e-05
1.19563e-05
0.999993
0.999994
0.999994
0.999994
0.999993
0.999992
0.999992
0.999991
0.999991
0.99999
0.99999
0.99999
0.99999
0.99999
0.99999
0.99999
0.99999
0.99999
0.99999
0.99999
0.99999
0.99999
0.99999
0.99999
0.99999
0.99999
0.99999
0.99999
0.99999
0.99999
0.99999
0.99999
0.99999
0.99999
0.99999
0.99999
0.99999
0.99999
0.99999
0.99999
0.99999
0.99999
0.99999
0.99999
0.99999
0.99999
0.99999
0.99999
0.99999
0.999989
0.999988
0.999984
0.999973
0.99995
0.999921
0.999865
0.99983
0.999799
0.999981
0.548771
0.0229534
0.0187689
0.0192597
0.0192415
0.0190776
0.0190918
0.0189806
0.0188227
0.0189182
0.0190009
0.0189868
0.0190073
0.0189966
0.0190384
0.0190839
0.0191065
0.0190814
0.0189648
0.0188648
0.0188171
0.0187823
0.0187463
0.0187247
0.0187168
0.0187101
0.0187273
0.018639
0.0184445
0.0182302
0.0178269
0.0174606
0.0169704
0.016055
0.0149888
0.0129558
0.0101518
0.999994
0.999994
0.999994
0.999994
0.999993
0.999992
0.999992
0.999991
0.999991
0.99999
0.99999
0.99999
0.99999
0.99999
0.99999
0.99999
0.99999
0.99999
0.99999
0.99999
0.99999
0.99999
0.99999
0.99999
0.99999
0.99999
0.99999
0.99999
0.99999
0.99999
0.99999
0.99999
0.99999
0.99999
0.99999
0.99999
0.99999
0.99999
0.99999
0.99999
0.99999
0.99999
0.99999
0.99999
0.99999
0.99999
0.99999
0.99999
0.99999
0.999989
0.999988
0.999984
0.999974
0.999952
0.999929
0.999882
0.999855
0.999795
0.999962
0.649839
0.0177601
0.0102945
0.0101415
0.00953791
0.00896221
0.00874702
0.00836598
0.00792854
0.00766751
0.00739535
0.0072044
0.00683909
0.00649539
0.0062217
0.00601953
0.00590211
0.00582072
0.00588896
0.00614729
0.00644397
0.00652429
0.00658291
0.00667228
0.00667477
0.00667823
0.00667031
0.00666344
0.00656187
0.00635974
0.00610321
0.00567698
0.005151
0.00441086
0.00340683
0.00214471
0.001045
0.999994
0.999994
0.999994
0.999993
0.999993
0.999992
0.999992
0.999991
0.999991
0.99999
0.99999
0.99999
0.99999
0.99999
0.99999
0.99999
0.99999
0.99999
0.99999
0.99999
0.99999
0.99999
0.99999
0.99999
0.99999
0.99999
0.99999
0.99999
0.99999
0.99999
0.99999
0.99999
0.99999
0.99999
0.99999
0.99999
0.99999
0.99999
0.99999
0.99999
0.99999
0.99999
0.99999
0.99999
0.99999
0.99999
0.99999
0.99999
0.99999
0.999989
0.999988
0.999983
0.999974
0.999952
0.999931
0.99989
0.999874
0.999758
0.999902
0.764652
0.0130975
0.00331909
0.00319251
0.00284763
0.00262614
0.00249006
0.00231733
0.00216204
0.00202255
0.0019047
0.00178092
0.00163787
0.00150026
0.00136908
0.00124155
0.00113571
0.00106231
0.00101974
0.00102012
0.00106679
0.00112906
0.00119518
0.00131974
0.00143948
0.00149764
0.00157677
0.00164
0.00165525
0.00160273
0.0014275
0.00120845
0.000955053
0.000638912
0.000354131
0.000148225
5.99357e-05
0.999995
0.999994
0.999993
0.999993
0.999993
0.999992
0.999992
0.999991
0.999991
0.99999
0.99999
0.99999
0.99999
0.99999
0.99999
0.99999
0.99999
0.99999
0.99999
0.99999
0.99999
0.99999
0.99999
0.99999
0.99999
0.99999
0.99999
0.99999
0.99999
0.99999
0.99999
0.99999
0.99999
0.99999
0.99999
0.99999
0.99999
0.99999
0.99999
0.99999
0.99999
0.99999
0.99999
0.99999
0.99999
0.99999
0.99999
0.99999
0.99999
0.999989
0.999988
0.999983
0.999973
0.999952
0.999929
0.999896
0.999886
0.99966
0.999793
0.870876
0.0230049
0.00106645
0.00107551
0.00106772
0.00108017
0.00102662
0.000959236
0.000913824
0.00084753
0.000759894
0.000656063
0.000544515
0.00044136
0.000342294
0.000255245
0.000186446
0.000133445
9.67351e-05
7.57422e-05
7.07217e-05
7.88378e-05
9.49603e-05
0.000115788
0.000140195
0.000161004
0.000172829
0.000179572
0.000182534
0.000169728
0.000135471
9.57162e-05
5.77053e-05
2.7455e-05
1.03824e-05
3.26361e-06
1.45256e-06
0.999995
0.999995
0.999994
0.999993
0.999993
0.999992
0.999991
0.999991
0.999991
0.99999
0.99999
0.99999
0.99999
0.99999
0.99999
0.99999
0.99999
0.99999
0.99999
0.99999
0.99999
0.99999
0.99999
0.99999
0.99999
0.99999
0.99999
0.99999
0.99999
0.99999
0.99999
0.99999
0.99999
0.99999
0.99999
0.99999
0.99999
0.99999
0.99999
0.99999
0.99999
0.99999
0.99999
0.99999
0.99999
0.99999
0.99999
0.99999
0.99999
0.999989
0.999988
0.999982
0.999974
0.999956
0.999921
0.99989
0.999884
0.999559
0.99969
0.929476
0.0422906
0.00027482
0.000266331
0.000259452
0.00026923
0.000268324
0.000252927
0.00023138
0.00020442
0.000164428
0.000122822
8.86748e-05
6.11075e-05
3.58833e-05
1.9664e-05
1.0138e-05
4.76971e-06
2.27525e-06
1.43465e-06
1.44256e-06
1.82849e-06
2.4377e-06
3.11026e-06
3.67958e-06
4.01271e-06
4.12955e-06
4.1583e-06
3.99363e-06
3.43892e-06
2.53266e-06
1.60045e-06
9.0818e-07
5.44926e-07
4.19668e-07
3.93968e-07
3.92252e-07
0.999996
0.999996
0.999995
0.999994
0.999994
0.999992
0.999992
0.999991
0.999991
0.99999
0.99999
0.99999
0.99999
0.99999
0.99999
0.99999
0.99999
0.99999
0.99999
0.99999
0.99999
0.99999
0.99999
0.99999
0.99999
0.99999
0.99999
0.99999
0.99999
0.99999
0.99999
0.99999
0.99999
0.99999
0.99999
0.99999
0.99999
0.99999
0.99999
0.99999
0.99999
0.99999
0.99999
0.99999
0.99999
0.99999
0.99999
0.99999
0.99999
0.99999
0.999987
0.999982
0.999974
0.999963
0.999934
0.999895
0.99986
0.999455
0.99953
0.953986
0.0490233
5.52162e-05
2.28753e-05
2.06295e-05
2.1937e-05
2.15803e-05
2.05231e-05
1.76057e-05
1.41508e-05
9.98376e-06
6.65797e-06
4.15798e-06
2.48371e-06
1.43375e-06
9.76058e-07
7.88326e-07
7.1758e-07
6.91613e-07
6.72832e-07
6.53383e-07
6.39238e-07
6.25657e-07
6.13136e-07
6.0283e-07
5.94586e-07
5.87892e-07
5.81796e-07
5.65812e-07
5.43106e-07
5.13832e-07
4.79958e-07
4.45246e-07
4.09609e-07
3.82182e-07
3.69977e-07
3.58301e-07
0.999997
0.999996
0.999995
0.999995
0.999995
0.999994
0.999992
0.999991
0.999991
0.999991
0.99999
0.99999
0.99999
0.99999
0.99999
0.99999
0.99999
0.99999
0.99999
0.99999
0.99999
0.99999
0.99999
0.99999
0.99999
0.99999
0.99999
0.99999
0.99999
0.99999
0.99999
0.99999
0.99999
0.99999
0.99999
0.99999
0.99999
0.99999
0.99999
0.99999
0.99999
0.99999
0.99999
0.99999
0.99999
0.99999
0.99999
0.99999
0.99999
0.99999
0.999988
0.999981
0.999974
0.999962
0.999947
0.999916
0.999812
0.999352
0.999353
0.953081
0.0453436
2.66875e-05
1.01947e-06
9.77557e-07
1.01647e-06
1.00176e-06
9.83284e-07
9.1827e-07
8.69923e-07
8.05903e-07
7.70499e-07
7.41436e-07
7.23529e-07
7.01208e-07
6.83344e-07
6.69159e-07
6.57807e-07
6.46874e-07
6.35309e-07
6.25085e-07
6.1525e-07
6.04573e-07
5.95031e-07
5.86974e-07
5.80783e-07
5.7643e-07
5.68771e-07
5.4847e-07
5.14051e-07
4.88616e-07
4.66152e-07
4.38023e-07
4.0632e-07
3.87787e-07
3.73186e-07
3.51768e-07
0.999997
0.999996
0.999996
0.999996
0.999995
0.999995
0.999994
0.999991
0.999991
0.999991
0.99999
0.99999
0.99999
0.99999
0.99999
0.99999
0.99999
0.99999
0.99999
0.99999
0.99999
0.99999
0.99999
0.99999
0.99999
0.99999
0.99999
0.99999
0.99999
0.99999
0.99999
0.99999
0.99999
0.99999
0.99999
0.99999
0.99999
0.99999
0.99999
0.99999
0.99999
0.99999
0.99999
0.99999
0.99999
0.99999
0.99999
0.99999
0.99999
0.99999
0.999988
0.999982
0.999972
0.999958
0.999948
0.999921
0.999725
0.999231
0.998794
0.953411
0.0446126
0.000104076
7.36055e-07
7.18969e-07
7.14352e-07
6.96235e-07
6.95743e-07
6.85965e-07
6.83407e-07
6.78253e-07
6.72564e-07
6.62012e-07
6.53106e-07
6.43059e-07
6.35569e-07
6.27146e-07
6.18745e-07
6.11702e-07
6.04559e-07
5.97131e-07
5.90565e-07
5.84415e-07
5.78498e-07
5.74249e-07
5.71776e-07
5.71146e-07
5.66519e-07
5.50323e-07
5.18938e-07
4.83866e-07
4.61155e-07
4.35659e-07
4.04652e-07
3.85127e-07
3.73666e-07
3.50794e-07
0.999998
0.999997
0.999997
0.999996
0.999996
0.999995
0.999995
0.999992
0.999991
0.99999
0.99999
0.99999
0.99999
0.99999
0.99999
0.99999
0.99999
0.99999
0.99999
0.99999
0.99999
0.99999
0.99999
0.99999
0.99999
0.99999
0.99999
0.99999
0.99999
0.99999
0.99999
0.99999
0.99999
0.99999
0.99999
0.99999
0.99999
0.99999
0.99999
0.99999
0.99999
0.99999
0.99999
0.99999
0.99999
0.99999
0.99999
0.99999
0.99999
0.99999
0.999988
0.999982
0.999972
0.999958
0.999947
0.999876
0.999805
0.999325
0.999015
0.95128
0.0505345
0.00035121
1.21311e-06
6.45467e-07
6.44263e-07
6.32493e-07
6.32601e-07
6.26284e-07
6.25319e-07
6.22172e-07
6.23336e-07
6.19116e-07
6.14938e-07
6.08444e-07
6.03724e-07
5.98066e-07
5.92943e-07
5.88537e-07
5.83846e-07
5.79277e-07
5.75829e-07
5.7225e-07
5.68931e-07
5.66904e-07
5.66389e-07
5.67929e-07
5.66816e-07
5.52618e-07
5.21877e-07
4.89192e-07
4.54424e-07
4.30109e-07
4.0209e-07
3.81319e-07
3.67752e-07
3.41852e-07
0.999992
0.999992
0.999991
0.999991
0.999991
0.999991
0.99999
0.99999
0.99999
0.99999
0.99999
0.99999
0.99999
0.99999
0.99999
0.99999
0.99999
0.99999
0.99999
0.99999
0.99999
0.99999
0.99999
0.99999
0.99999
0.99999
0.99999
0.99999
0.99999
0.99999
0.99999
0.99999
0.99999
0.99999
0.99999
0.99999
0.99999
0.99999
0.99999
0.99999
0.99999
0.99999
0.99999
0.99999
0.99999
0.99999
0.99999
0.99999
0.99999
0.99999
0.999989
0.999984
0.999972
0.999953
0.99994
0.999897
0.999807
0.999167
0.996842
0.934387
0.0549088
0.000426691
1.47873e-06
9.51886e-07
9.51816e-07
9.37875e-07
9.38267e-07
9.26622e-07
9.2518e-07
9.15924e-07
9.12548e-07
9.04905e-07
9.00315e-07
8.93576e-07
8.87987e-07
8.82166e-07
8.76692e-07
8.70941e-07
8.65533e-07
8.60038e-07
8.54073e-07
8.48235e-07
8.41938e-07
8.35014e-07
8.27494e-07
8.19969e-07
8.13947e-07
8.09081e-07
8.00506e-07
7.75495e-07
7.12397e-07
6.24361e-07
5.64603e-07
5.41189e-07
5.31564e-07
4.71254e-07
0.999993
0.999992
0.999992
0.999991
0.999991
0.999991
0.999991
0.99999
0.99999
0.99999
0.99999
0.99999
0.99999
0.99999
0.99999
0.99999
0.99999
0.99999
0.99999
0.99999
0.99999
0.99999
0.99999
0.99999
0.99999
0.99999
0.99999
0.99999
0.99999
0.99999
0.99999
0.99999
0.99999
0.99999
0.99999
0.99999
0.99999
0.99999
0.99999
0.99999
0.99999
0.99999
0.99999
0.99999
0.99999
0.99999
0.99999
0.99999
0.99999
0.99999
0.999988
0.999984
0.999972
0.999954
0.999944
0.999906
0.999773
0.999241
0.998042
0.940634
0.044743
0.000103366
9.773e-07
9.70612e-07
9.62172e-07
9.42995e-07
9.43509e-07
9.32175e-07
9.30344e-07
9.21326e-07
9.17123e-07
9.09479e-07
9.0458e-07
8.9749e-07
8.91355e-07
8.85441e-07
8.7955e-07
8.72593e-07
8.65205e-07
8.54732e-07
8.42521e-07
8.33222e-07
8.26103e-07
8.20112e-07
8.15449e-07
8.10667e-07
8.06753e-07
8.04269e-07
7.98702e-07
7.81763e-07
7.34503e-07
6.53609e-07
5.8028e-07
5.45564e-07
5.46685e-07
4.8724e-07
0.999993
0.999993
0.999992
0.999992
0.999992
0.999992
0.999991
0.999991
0.99999
0.99999
0.99999
0.99999
0.99999
0.99999
0.99999
0.99999
0.99999
0.99999
0.99999
0.99999
0.99999
0.99999
0.99999
0.99999
0.99999
0.99999
0.99999
0.99999
0.99999
0.99999
0.99999
0.99999
0.99999
0.99999
0.99999
0.99999
0.99999
0.99999
0.99999
0.99999
0.99999
0.99999
0.99999
0.99999
0.99999
0.99999
0.99999
0.99999
0.99999
0.999989
0.999988
0.999983
0.999974
0.999957
0.999946
0.999892
0.999831
0.999434
0.99904
0.945454
0.0400653
5.15724e-06
1.17652e-06
1.03083e-06
9.90889e-07
9.69629e-07
9.68483e-07
9.55392e-07
9.5253e-07
9.41034e-07
9.35734e-07
9.26421e-07
9.21968e-07
9.17703e-07
9.16476e-07
9.07679e-07
8.90491e-07
8.76242e-07
8.67361e-07
8.5756e-07
8.47529e-07
8.38247e-07
8.28408e-07
8.20595e-07
8.1735e-07
8.1557e-07
8.11967e-07
8.06799e-07
8.01175e-07
7.87925e-07
7.49994e-07
6.81455e-07
6.0629e-07
5.62315e-07
5.57386e-07
4.9626e-07
0.999993
0.999993
0.999992
0.999992
0.999992
0.999992
0.999992
0.999991
0.999991
0.99999
0.99999
0.99999
0.99999
0.99999
0.99999
0.99999
0.99999
0.99999
0.99999
0.99999
0.99999
0.99999
0.99999
0.99999
0.99999
0.99999
0.99999
0.99999
0.99999
0.99999
0.99999
0.99999
0.99999
0.99999
0.99999
0.99999
0.99999
0.99999
0.99999
0.99999
0.99999
0.99999
0.99999
0.99999
0.99999
0.99999
0.99999
0.99999
0.99999
0.999989
0.999987
0.999983
0.999975
0.999957
0.999931
0.999863
0.999839
0.999514
0.999585
0.940973
0.0373332
2.90238e-06
7.38437e-06
1.82709e-06
1.73949e-06
1.48017e-06
1.45425e-06
1.36372e-06
1.32756e-06
1.29031e-06
1.27934e-06
1.25605e-06
1.23932e-06
1.21177e-06
1.17425e-06
1.12171e-06
1.0624e-06
1.0097e-06
9.69707e-07
9.32732e-07
9.02597e-07
8.79035e-07
8.65773e-07
8.54028e-07
8.41417e-07
8.27821e-07
8.16774e-07
8.06336e-07
7.97123e-07
7.82525e-07
7.50883e-07
6.9454e-07
6.28909e-07
5.84346e-07
5.67531e-07
4.97187e-07
0.999993
0.999993
0.999993
0.999992
0.999992
0.999992
0.999992
0.999991
0.999991
0.99999
0.99999
0.99999
0.99999
0.99999
0.99999
0.99999
0.99999
0.99999
0.99999
0.99999
0.99999
0.99999
0.99999
0.99999
0.99999
0.99999
0.99999
0.99999
0.99999
0.99999
0.99999
0.99999
0.99999
0.99999
0.99999
0.99999
0.99999
0.99999
0.99999
0.99999
0.99999
0.99999
0.99999
0.99999
0.99999
0.99999
0.99999
0.99999
0.99999
0.999989
0.999987
0.999981
0.999968
0.999947
0.999895
0.999824
0.999776
0.999698
0.999837
0.887755
0.0164959
0.000347707
0.000270447
0.00013779
0.000110135
9.58635e-05
9.35902e-05
9.32178e-05
9.32661e-05
9.25915e-05
9.35041e-05
9.21569e-05
9.00352e-05
8.59524e-05
7.93148e-05
6.85424e-05
5.52722e-05
4.09787e-05
2.89404e-05
1.90804e-05
1.19301e-05
7.14874e-06
4.05962e-06
2.33153e-06
1.49017e-06
1.10834e-06
9.45579e-07
8.68994e-07
8.17259e-07
7.74243e-07
7.38638e-07
6.88598e-07
6.42896e-07
6.04368e-07
5.74313e-07
4.94466e-07
0.999994
0.999994
0.999993
0.999992
0.999992
0.999992
0.999992
0.999991
0.999991
0.99999
0.99999
0.99999
0.99999
0.99999
0.99999
0.99999
0.99999
0.99999
0.99999
0.99999
0.99999
0.99999
0.99999
0.99999
0.99999
0.99999
0.99999
0.99999
0.99999
0.99999
0.99999
0.99999
0.99999
0.99999
0.99999
0.99999
0.99999
0.99999
0.99999
0.99999
0.99999
0.99999
0.99999
0.99999
0.99999
0.99999
0.99999
0.99999
0.99999
0.999989
0.999986
0.999979
0.999958
0.999932
0.999867
0.999823
0.999826
0.999843
0.999954
0.764625
0.0161652
0.0061748
0.0057788
0.00474592
0.00442543
0.00411172
0.00390573
0.00387549
0.00386964
0.00395317
0.00404808
0.00411071
0.0040348
0.00387987
0.00371888
0.00349253
0.00330323
0.00285544
0.00239996
0.00198618
0.00154118
0.00118238
0.000861658
0.000586161
0.0003852
0.000239877
0.000141018
8.13354e-05
4.48328e-05
2.27665e-05
9.03715e-06
3.10259e-06
1.09457e-06
7.06718e-07
5.81997e-07
4.64393e-07
0.999994
0.999994
0.999994
0.999993
0.999992
0.999992
0.999992
0.999991
0.999991
0.99999
0.99999
0.99999
0.99999
0.99999
0.99999
0.99999
0.99999
0.99999
0.99999
0.99999
0.99999
0.99999
0.99999
0.99999
0.99999
0.99999
0.99999
0.99999
0.99999
0.99999
0.99999
0.99999
0.99999
0.99999
0.99999
0.99999
0.99999
0.99999
0.99999
0.99999
0.99999
0.99999
0.99999
0.99999
0.99999
0.99999
0.99999
0.99999
0.99999
0.999989
0.999988
0.999982
0.999963
0.999938
0.999888
0.999817
0.999782
0.999822
0.999962
0.594918
0.0324092
0.0257439
0.0264666
0.0258848
0.0256383
0.0255562
0.0255704
0.0258858
0.0261858
0.0265539
0.0271792
0.0277944
0.0282151
0.0285718
0.0286883
0.0288087
0.0287277
0.0282826
0.0276105
0.0266641
0.0253176
0.0236286
0.0217814
0.0195848
0.0169192
0.014449
0.012111
0.00981301
0.00780354
0.00597521
0.00402058
0.00249945
0.00146729
0.000888214
0.000859539
0.00101383
0.999994
0.999994
0.999994
0.999994
0.999993
0.999992
0.999992
0.999991
0.999991
0.99999
0.99999
0.99999
0.99999
0.99999
0.99999
0.99999
0.99999
0.99999
0.99999
0.99999
0.99999
0.99999
0.99999
0.99999
0.99999
0.99999
0.99999
0.99999
0.99999
0.99999
0.99999
0.99999
0.99999
0.99999
0.99999
0.99999
0.99999
0.99999
0.99999
0.99999
0.99999
0.99999
0.99999
0.99999
0.99999
0.99999
0.99999
0.99999
0.99999
0.999989
0.999988
0.999983
0.999969
0.999949
0.999908
0.99983
0.999784
0.9998
0.999858
0.555039
0.0418245
0.0356101
0.0367161
0.0371481
0.0379615
0.0388371
0.0395958
0.0405156
0.0414235
0.0423737
0.0434821
0.0447742
0.046253
0.047896
0.0497733
0.0519063
0.0542872
0.0569229
0.0597694
0.0628569
0.0661883
0.0696646
0.0732565
0.0771436
0.0812467
0.0855449
0.0901879
0.0950137
0.100191
0.106047
0.112868
0.121497
0.133835
0.154634
0.202354
0.395441
0.999995
0.999994
0.999994
0.999994
0.999994
0.999993
0.999992
0.999991
0.999991
0.99999
0.99999
0.99999
0.99999
0.99999
0.99999
0.99999
0.99999
0.99999
0.99999
0.99999
0.99999
0.99999
0.99999
0.99999
0.99999
0.99999
0.99999
0.99999
0.99999
0.99999
0.99999
0.99999
0.99999
0.99999
0.99999
0.99999
0.99999
0.99999
0.99999
0.99999
0.99999
0.99999
0.99999
0.99999
0.99999
0.99999
0.99999
0.99999
0.99999
0.999989
0.999988
0.999983
0.999972
0.999949
0.999917
0.999864
0.999816
0.999778
0.999951
0.712411
0.0214077
0.00894826
0.00808173
0.00722046
0.0068347
0.00655339
0.00636487
0.0061757
0.00595616
0.00568347
0.0054239
0.00517762
0.00494425
0.00479707
0.00480442
0.00495415
0.00532936
0.00579172
0.00627283
0.00687855
0.00762044
0.00842354
0.00925054
0.0100721
0.0109372
0.0117802
0.0124681
0.0131949
0.0140157
0.0148599
0.0156877
0.0164489
0.0169723
0.0171615
0.0166166
0.0148247
0.999995
0.999995
0.999995
0.999995
0.999994
0.999993
0.999993
0.999991
0.999991
0.999991
0.99999
0.99999
0.99999
0.99999
0.99999
0.99999
0.99999
0.99999
0.99999
0.99999
0.99999
0.99999
0.99999
0.99999
0.99999
0.99999
0.99999
0.99999
0.99999
0.99999
0.99999
0.99999
0.99999
0.99999
0.99999
0.99999
0.99999
0.99999
0.99999
0.99999
0.99999
0.99999
0.99999
0.99999
0.99999
0.99999
0.99999
0.99999
0.99999
0.999989
0.999988
0.999982
0.999971
0.999954
0.99992
0.99987
0.999836
0.999768
0.999926
0.830876
0.011415
0.0015495
0.00150498
0.00141025
0.00142255
0.00141959
0.00139185
0.00135134
0.00131461
0.00124334
0.00114818
0.00104831
0.000922739
0.000809865
0.00071251
0.000624563
0.000566038
0.000532915
0.000533548
0.000579545
0.000669814
0.000788342
0.000924423
0.00104688
0.00116147
0.00129824
0.00143915
0.00157633
0.00169789
0.0018249
0.00195487
0.00201705
0.00192091
0.00147542
0.000851896
0.000360756
0.999996
0.999995
0.999995
0.999995
0.999994
0.999993
0.999993
0.999991
0.999991
0.999991
0.99999
0.99999
0.99999
0.99999
0.99999
0.99999
0.99999
0.99999
0.99999
0.99999
0.99999
0.99999
0.99999
0.99999
0.99999
0.99999
0.99999
0.99999
0.99999
0.99999
0.99999
0.99999
0.99999
0.99999
0.99999
0.99999
0.99999
0.99999
0.99999
0.99999
0.99999
0.99999
0.99999
0.99999
0.99999
0.99999
0.99999
0.99999
0.99999
0.999989
0.999988
0.999981
0.999972
0.999958
0.999933
0.999894
0.999832
0.999658
0.999823
0.911121
0.036425
0.000299114
0.000303781
0.000294215
0.000315472
0.000318693
0.00032451
0.000324961
0.000305355
0.000272115
0.000228055
0.000182399
0.000138421
9.86247e-05
6.76435e-05
4.49722e-05
3.1374e-05
2.53627e-05
2.58724e-05
3.15065e-05
4.06944e-05
5.14568e-05
6.28366e-05
7.15663e-05
7.49704e-05
7.4049e-05
7.03289e-05
6.56165e-05
6.13335e-05
5.88632e-05
5.55174e-05
4.75001e-05
3.58979e-05
2.1137e-05
8.1391e-06
3.18115e-06
0.999996
0.999995
0.999995
0.999995
0.999994
0.999994
0.999993
0.999991
0.999991
0.999991
0.99999
0.99999
0.99999
0.99999
0.99999
0.99999
0.99999
0.99999
0.99999
0.99999
0.99999
0.99999
0.99999
0.99999
0.99999
0.99999
0.99999
0.99999
0.99999
0.99999
0.99999
0.99999
0.99999
0.99999
0.99999
0.99999
0.99999
0.99999
0.99999
0.99999
0.99999
0.99999
0.99999
0.99999
0.99999
0.99999
0.99999
0.99999
0.99999
0.99999
0.999988
0.999982
0.999973
0.999959
0.999935
0.999896
0.999861
0.999534
0.999646
0.941284
0.0396097
4.89913e-05
4.45781e-05
3.86527e-05
4.02585e-05
3.95374e-05
3.77454e-05
3.51417e-05
3.00282e-05
2.2689e-05
1.67043e-05
1.15468e-05
7.45512e-06
4.52602e-06
2.74592e-06
1.75412e-06
1.33182e-06
1.24264e-06
1.31883e-06
1.49276e-06
1.74287e-06
2.04596e-06
2.31349e-06
2.41189e-06
2.25015e-06
1.88283e-06
1.52215e-06
1.19441e-06
9.31937e-07
7.50764e-07
6.3024e-07
5.42598e-07
4.786e-07
4.38967e-07
4.23169e-07
4.03065e-07
0.999996
0.999996
0.999995
0.999995
0.999995
0.999994
0.999992
0.999991
0.999991
0.999991
0.99999
0.99999
0.99999
0.99999
0.99999
0.99999
0.99999
0.99999
0.99999
0.99999
0.99999
0.99999
0.99999
0.99999
0.99999
0.99999
0.99999
0.99999
0.99999
0.99999
0.99999
0.99999
0.99999
0.99999
0.99999
0.99999
0.99999
0.99999
0.99999
0.99999
0.99999
0.99999
0.99999
0.99999
0.99999
0.99999
0.99999
0.99999
0.99999
0.99999
0.999988
0.999982
0.999973
0.999959
0.999947
0.999907
0.999841
0.999436
0.999258
0.954676
0.050929
1.22535e-05
4.47366e-06
3.70926e-06
3.73338e-06
3.33424e-06
2.72158e-06
2.0653e-06
1.66481e-06
1.36326e-06
1.15157e-06
9.94838e-07
8.95576e-07
8.32686e-07
7.95962e-07
7.67412e-07
7.41916e-07
7.19374e-07
7.02276e-07
6.87717e-07
6.72725e-07
6.58412e-07
6.46803e-07
6.37523e-07
6.27928e-07
6.13422e-07
5.94716e-07
5.77827e-07
5.50707e-07
5.16885e-07
4.78513e-07
4.32255e-07
3.82926e-07
3.56245e-07
3.48698e-07
3.33485e-07
0.999996
0.999996
0.999996
0.999996
0.999995
0.999994
0.999993
0.999992
0.999991
0.999991
0.99999
0.99999
0.99999
0.99999
0.99999
0.99999
0.99999
0.99999
0.99999
0.99999
0.99999
0.99999
0.99999
0.99999
0.99999
0.99999
0.99999
0.99999
0.99999
0.99999
0.99999
0.99999
0.99999
0.99999
0.99999
0.99999
0.99999
0.99999
0.99999
0.99999
0.99999
0.99999
0.99999
0.99999
0.99999
0.99999
0.99999
0.99999
0.99999
0.99999
0.999988
0.999982
0.999972
0.999958
0.999949
0.999924
0.999793
0.999347
0.998965
0.954245
0.0551344
1.04453e-05
9.80644e-07
8.83921e-07
8.91919e-07
8.75786e-07
8.8138e-07
8.64943e-07
8.58608e-07
8.40368e-07
8.28826e-07
8.08735e-07
7.92091e-07
7.69705e-07
7.49353e-07
7.29047e-07
7.10615e-07
6.94762e-07
6.80661e-07
6.67425e-07
6.52714e-07
6.38746e-07
6.25585e-07
6.13505e-07
6.03375e-07
5.9451e-07
5.83425e-07
5.64304e-07
5.3308e-07
5.02957e-07
4.71431e-07
4.35143e-07
3.9375e-07
3.6582e-07
3.50912e-07
3.30991e-07
0.999997
0.999996
0.999997
0.999996
0.999996
0.999995
0.999993
0.999992
0.999991
0.999991
0.99999
0.99999
0.99999
0.99999
0.99999
0.99999
0.99999
0.99999
0.99999
0.99999
0.99999
0.99999
0.99999
0.99999
0.99999
0.99999
0.99999
0.99999
0.99999
0.99999
0.99999
0.99999
0.99999
0.99999
0.99999
0.99999
0.99999
0.99999
0.99999
0.99999
0.99999
0.99999
0.99999
0.99999
0.99999
0.99999
0.99999
0.99999
0.99999
0.99999
0.999988
0.999982
0.999972
0.999958
0.999947
0.99992
0.999729
0.999204
0.998081
0.947384
0.0614136
0.00018281
8.27474e-07
7.22572e-07
6.99351e-07
6.80561e-07
6.82914e-07
6.80689e-07
6.92897e-07
6.96223e-07
7.01213e-07
6.9626e-07
6.92322e-07
6.83993e-07
6.75449e-07
6.6483e-07
6.53732e-07
6.4384e-07
6.34717e-07
6.25488e-07
6.16498e-07
6.08748e-07
6.02663e-07
5.97506e-07
5.92804e-07
5.88243e-07
5.80126e-07
5.63665e-07
5.34402e-07
4.96117e-07
4.64e-07
4.34355e-07
4.02771e-07
3.8339e-07
3.67888e-07
3.41927e-07
0.999998
0.999997
0.999997
0.999997
0.999996
0.999995
0.999994
0.999992
0.999991
0.999991
0.99999
0.99999
0.99999
0.99999
0.99999
0.99999
0.99999
0.99999
0.99999
0.99999
0.99999
0.99999
0.99999
0.99999
0.99999
0.99999
0.99999
0.99999
0.99999
0.99999
0.99999
0.99999
0.99999
0.99999
0.99999
0.99999
0.99999
0.99999
0.99999
0.99999
0.99999
0.99999
0.99999
0.99999
0.99999
0.99999
0.99999
0.99999
0.99999
0.99999
0.999988
0.999982
0.999971
0.999958
0.999951
0.999902
0.999794
0.999138
0.997226
0.942906
0.0692388
0.000676207
1.98697e-06
6.36678e-07
6.36311e-07
6.23844e-07
6.25189e-07
6.16559e-07
6.16145e-07
6.10748e-07
6.12006e-07
6.09333e-07
6.08454e-07
6.0441e-07
6.01122e-07
5.97898e-07
5.95495e-07
5.92708e-07
5.91346e-07
5.90963e-07
5.89376e-07
5.88306e-07
5.88682e-07
5.88218e-07
5.86834e-07
5.84778e-07
5.78574e-07
5.63713e-07
5.35006e-07
4.97361e-07
4.60033e-07
4.31496e-07