/*--------------------------------*- C++ -*----------------------------------*\
| =========                 |                                                 |
| \\      /  F ield         | OpenFOAM: The Open Source CFD Toolbox           |
|  \\    /   O peration     | Version:  2.3.0                                 |
|   \\  /    A nd           | Web:      www.OpenFOAM.org                      |
|    \\/     M anipulation  |                                                 |
\*---------------------------------------------------------------------------*/
FoamFile
{
    version     2.0;
    format      ascii;
    class       volScalarField;
    location    "31";
    object      alpha.air;
}
// * * * * * * * * * * * * * * * * * * * * * * * * * * * * * * * * * * * * * //

dimensions      [0 0 0 0 0 0 0];

internalField   nonuniform List<scalar> 
6144
(
0.999995
0.999994
0.999994
0.999993
0.999993
0.999992
0.999992
0.999991
0.99999
0.99999
0.99999
0.99999
0.99999
0.99999
0.99999
0.99999
0.99999
0.99999
0.99999
0.99999
0.99999
0.99999
0.99999
0.99999
0.99999
0.99999
0.99999
0.99999
0.99999
0.99999
0.99999
0.99999
0.99999
0.99999
0.99999
0.99999
0.99999
0.99999
0.99999
0.99999
0.99999
0.99999
0.99999
0.99999
0.99999
0.999987
0.999983
0.999974
0.999958
0.999934
0.999911
0.999887
0.999861
0.999842
0.999834
0.99983
0.999828
0.999822
0.998589
0.91518
0.0302272
0.000110233
5.2498e-07
5.30928e-07
5.31411e-07
5.3329e-07
5.36133e-07
5.37883e-07
5.40721e-07
5.43604e-07
5.48165e-07
5.53214e-07
5.55689e-07
5.57623e-07
5.60563e-07
5.632e-07
5.64702e-07
5.58307e-07
5.57945e-07
5.62491e-07
5.66314e-07
5.62115e-07
5.37955e-07
5.13375e-07
5.05284e-07
5.01389e-07
4.94459e-07
4.8025e-07
4.70457e-07
4.62089e-07
4.51955e-07
4.43564e-07
4.40143e-07
4.4015e-07
4.40194e-07
4.40239e-07
0.999996
0.999994
0.999993
0.999993
0.999992
0.999992
0.999991
0.999991
0.99999
0.99999
0.99999
0.99999
0.99999
0.99999
0.99999
0.99999
0.99999
0.99999
0.99999
0.99999
0.99999
0.99999
0.99999
0.99999
0.99999
0.99999
0.99999
0.99999
0.99999
0.99999
0.99999
0.99999
0.99999
0.99999
0.99999
0.99999
0.99999
0.99999
0.99999
0.99999
0.99999
0.99999
0.99999
0.99999
0.999989
0.999987
0.999983
0.999975
0.999961
0.99994
0.999922
0.999885
0.999849
0.999834
0.999839
0.999847
0.999844
0.999825
0.999441
0.909806
0.00505295
3.59193e-06
5.24979e-07
6.30028e-07
6.35069e-07
6.42462e-07
6.20203e-07
5.99775e-07
5.83577e-07
5.75145e-07
5.72316e-07
5.69693e-07
5.67569e-07
5.66945e-07
5.64335e-07
5.64386e-07
5.65339e-07
5.7187e-07
5.84113e-07
5.89269e-07
5.8786e-07
5.79938e-07
5.6466e-07
5.42636e-07
5.21603e-07
5.21901e-07
5.25608e-07
5.11935e-07
5.01805e-07
4.99528e-07
5.00519e-07
4.85199e-07
4.7057e-07
4.57487e-07
4.41063e-07
4.40287e-07
0.999996
0.999995
0.999994
0.999993
0.999992
0.999992
0.999991
0.999991
0.99999
0.99999
0.99999
0.99999
0.99999
0.99999
0.99999
0.99999
0.99999
0.99999
0.99999
0.99999
0.99999
0.99999
0.99999
0.99999
0.99999
0.99999
0.99999
0.99999
0.99999
0.99999
0.99999
0.99999
0.99999
0.99999
0.99999
0.99999
0.99999
0.99999
0.99999
0.99999
0.99999
0.99999
0.99999
0.99999
0.999989
0.999987
0.999983
0.999977
0.999968
0.999946
0.999921
0.999864
0.999842
0.999839
0.99985
0.999855
0.999858
0.999833
0.999494
0.860553
0.00312347
9.64169e-07
7.43751e-07
7.74671e-07
1.00673e-06
9.06217e-07
7.82974e-07
6.57381e-07
5.82808e-07
5.63289e-07
5.62321e-07
5.56972e-07
5.57118e-07
5.69832e-07
5.78711e-07
5.90004e-07
6.09452e-07
6.28071e-07
6.35678e-07
6.35101e-07
6.25484e-07
6.16897e-07
6.04319e-07
5.89667e-07
5.74749e-07
5.70189e-07
5.70809e-07
5.62392e-07
5.22859e-07
5.1614e-07
5.28744e-07
5.3123e-07
5.22248e-07
5.13694e-07
4.77939e-07
4.43419e-07
0.999996
0.999995
0.999994
0.999993
0.999993
0.999992
0.999992
0.999991
0.99999
0.99999
0.99999
0.99999
0.99999
0.99999
0.99999
0.99999
0.99999
0.99999
0.99999
0.99999
0.99999
0.99999
0.99999
0.99999
0.99999
0.99999
0.99999
0.99999
0.99999
0.99999
0.99999
0.99999
0.99999
0.99999
0.99999
0.99999
0.99999
0.99999
0.99999
0.99999
0.99999
0.99999
0.99999
0.99999
0.999989
0.999987
0.999983
0.999978
0.999971
0.99995
0.999907
0.999856
0.999851
0.999849
0.999851
0.999856
0.999859
0.999836
0.999837
0.839752
0.0043804
4.8511e-05
4.15821e-05
3.2895e-05
2.81991e-05
2.15167e-05
1.5563e-05
9.78315e-06
5.59174e-06
3.23109e-06
1.7637e-06
8.39501e-07
5.97033e-07
6.18296e-07
6.38457e-07
6.69207e-07
7.6992e-07
9.30593e-07
9.96603e-07
8.90039e-07
7.39355e-07
6.81817e-07
6.61313e-07
6.56318e-07
7.05661e-07
6.57224e-07
6.36838e-07
5.88757e-07
5.26601e-07
5.17547e-07
5.25272e-07
5.29246e-07
5.24841e-07
5.24282e-07
4.93648e-07
4.41924e-07
0.999996
0.999996
0.999995
0.999994
0.999993
0.999992
0.999992
0.999991
0.999991
0.99999
0.99999
0.99999
0.99999
0.99999
0.99999
0.99999
0.99999
0.99999
0.99999
0.99999
0.99999
0.99999
0.99999
0.99999
0.99999
0.99999
0.99999
0.99999
0.99999
0.99999
0.99999
0.99999
0.99999
0.99999
0.99999
0.99999
0.99999
0.99999
0.99999
0.99999
0.99999
0.99999
0.99999
0.99999
0.999989
0.999987
0.999983
0.999977
0.99997
0.999948
0.999892
0.999856
0.999865
0.999864
0.99985
0.999849
0.999852
0.999852
0.999885
0.779418
0.0025211
0.000619292
0.000620436
0.000566621
0.000534754
0.000480194
0.000367964
0.000256789
0.000167583
0.000117035
7.8124e-05
5.13532e-05
4.30173e-05
4.32849e-05
4.5846e-05
4.80463e-05
5.0122e-05
4.44933e-05
2.98795e-05
1.8328e-05
1.02569e-05
5.25442e-06
2.47929e-06
1.23768e-06
9.12281e-07
9.33476e-07
5.14521e-07
5.0209e-07
5.0209e-07
5.02788e-07
5.05286e-07
5.15968e-07
5.33571e-07
5.10985e-07
4.92298e-07
4.39479e-07
0.999997
0.999996
0.999995
0.999994
0.999993
0.999992
0.999992
0.999991
0.999991
0.99999
0.99999
0.99999
0.99999
0.99999
0.99999
0.99999
0.99999
0.99999
0.99999
0.99999
0.99999
0.99999
0.99999
0.99999
0.99999
0.99999
0.99999
0.99999
0.99999
0.99999
0.99999
0.99999
0.99999
0.99999
0.99999
0.99999
0.99999
0.99999
0.99999
0.99999
0.99999
0.99999
0.99999
0.99999
0.999989
0.999987
0.999982
0.999975
0.999966
0.999944
0.999884
0.999862
0.999876
0.999877
0.999867
0.999859
0.99986
0.999861
0.999885
0.743511
0.0084057
0.00271337
0.00278781
0.00267587
0.00262433
0.00208287
0.00152692
0.000948373
0.000660047
0.000597883
0.000604252
0.000579964
0.000595397
0.000602522
0.000616193
0.000639374
0.000671617
0.000706693
0.000728948
0.000654566
0.000494254
0.000350907
0.000218923
0.000125574
6.5269e-05
3.24036e-05
1.75612e-05
1.18396e-05
8.92792e-06
5.90109e-06
3.20385e-06
1.5742e-06
9.80634e-07
5.91448e-07
4.6046e-07
4.23354e-07
0.999997
0.999996
0.999996
0.999995
0.999993
0.999993
0.999992
0.999991
0.999991
0.999991
0.99999
0.99999
0.99999
0.99999
0.99999
0.99999
0.99999
0.99999
0.99999
0.99999
0.99999
0.99999
0.99999
0.99999
0.99999
0.99999
0.99999
0.99999
0.99999
0.99999
0.99999
0.99999
0.99999
0.99999
0.99999
0.99999
0.99999
0.99999
0.99999
0.99999
0.99999
0.99999
0.99999
0.99999
0.999989
0.999986
0.999981
0.999974
0.999962
0.999935
0.999877
0.999868
0.99988
0.999881
0.99988
0.999878
0.999876
0.999867
0.999885
0.690277
0.0128087
0.00832968
0.00855854
0.00865248
0.00843792
0.00748321
0.00638395
0.00500896
0.00384172
0.00315361
0.00276766
0.00243968
0.00224547
0.00213277
0.00205127
0.00200639
0.00198111
0.0019346
0.00174119
0.00137678
0.00112498
0.000897512
0.000650808
0.000519276
0.000499321
0.000403193
0.000421039
0.000448046
0.000472082
0.00042081
0.000340812
0.000259835
0.000119313
8.11013e-06
2.35364e-07
2.35364e-07
0.999997
0.999997
0.999996
0.999995
0.999994
0.999993
0.999992
0.999991
0.999991
0.999991
0.99999
0.99999
0.99999
0.99999
0.99999
0.99999
0.99999
0.99999
0.99999
0.99999
0.99999
0.99999
0.99999
0.99999
0.99999
0.99999
0.99999
0.99999
0.99999
0.99999
0.99999
0.99999
0.99999
0.99999
0.99999
0.99999
0.99999
0.99999
0.99999
0.99999
0.99999
0.99999
0.99999
0.99999
0.999989
0.999986
0.999981
0.999972
0.999958
0.999932
0.99988
0.999872
0.99988
0.999881
0.999881
0.999881
0.999881
0.999881
0.999885
0.704136
0.0215861
0.0139638
0.0142127
0.0142858
0.0138742
0.0134348
0.0126373
0.0117392
0.0106597
0.00969885
0.00873478
0.00779914
0.00719311
0.00694854
0.00683374
0.00663751
0.00642752
0.00622278
0.00608276
0.00609662
0.00619028
0.00630156
0.00638051
0.00639376
0.00634067
0.00623596
0.00639823
0.00705556
0.00803951
0.00909328
0.0100263
0.0108146
0.0115719
0.0127183
0.0137941
0.0136977
0.999997
0.999997
0.999996
0.999996
0.999994
0.999993
0.999992
0.999992
0.999991
0.999991
0.99999
0.99999
0.99999
0.99999
0.99999
0.99999
0.99999
0.99999
0.99999
0.99999
0.99999
0.99999
0.99999
0.99999
0.99999
0.99999
0.99999
0.99999
0.99999
0.99999
0.99999
0.99999
0.99999
0.99999
0.99999
0.99999
0.99999
0.99999
0.99999
0.99999
0.99999
0.99999
0.99999
0.99999
0.999989
0.999987
0.999981
0.999971
0.999955
0.999931
0.999889
0.999868
0.999877
0.999879
0.99988
0.999881
0.999881
0.999882
0.999885
0.792987
0.0209879
0.00998675
0.00983607
0.00944653
0.00920079
0.00906926
0.00895604
0.00887253
0.00871945
0.00851907
0.00834382
0.00822602
0.00814385
0.00805071
0.007925
0.00773147
0.00752558
0.00734625
0.0072397
0.00723062
0.00744704
0.00774578
0.00800985
0.00820617
0.00829882
0.00812529
0.00794483
0.00806098
0.00843419
0.00887466
0.0091649
0.00933883
0.00905425
0.00746777
0.00562445
0.00317217
0.999997
0.999997
0.999997
0.999996
0.999995
0.999994
0.999992
0.999991
0.999991
0.99999
0.99999
0.99999
0.99999
0.99999
0.99999
0.99999
0.99999
0.99999
0.99999
0.99999
0.99999
0.99999
0.99999
0.99999
0.99999
0.99999
0.99999
0.99999
0.99999
0.99999
0.99999
0.99999
0.99999
0.99999
0.99999
0.99999
0.99999
0.99999
0.99999
0.99999
0.99999
0.99999
0.99999
0.99999
0.999989
0.999987
0.999982
0.99997
0.999952
0.999931
0.999904
0.999869
0.99987
0.999874
0.999876
0.999877
0.999881
0.999881
0.999885
0.884672
0.018627
0.00378921
0.00364229
0.00339688
0.00336931
0.0034394
0.00350875
0.00351685
0.00348922
0.0033518
0.0031474
0.00289516
0.00265588
0.00239811
0.00214953
0.00191166
0.00173535
0.00165608
0.00174616
0.00194045
0.0022805
0.00276252
0.00328538
0.00373099
0.00411341
0.00433256
0.00439655
0.00446084
0.00459788
0.00466875
0.00471134
0.00416095
0.00319452
0.00194125
0.000953212
0.00045287
0.999997
0.999997
0.999997
0.999997
0.999996
0.999994
0.999992
0.999991
0.999991
0.999991
0.99999
0.99999
0.99999
0.99999
0.99999
0.99999
0.99999
0.99999
0.99999
0.99999
0.99999
0.99999
0.99999
0.99999
0.99999
0.99999
0.99999
0.99999
0.99999
0.99999
0.99999
0.99999
0.99999
0.99999
0.99999
0.99999
0.99999
0.99999
0.99999
0.99999
0.99999
0.99999
0.99999
0.99999
0.999989
0.999987
0.999983
0.999971
0.999949
0.999929
0.999911
0.999883
0.99987
0.999866
0.999871
0.99987
0.999881
0.999871
0.999885
0.937445
0.0116373
0.000464657
0.000416342
0.000345678
0.000343557
0.000339609
0.000373171
0.000386472
0.000388518
0.000363387
0.00033702
0.000287029
0.000237052
0.000188368
0.000149864
0.000121364
0.000105881
0.000101908
0.000127417
0.000157193
0.000203574
0.000272459
0.00034592
0.000407613
0.000463571
0.000500442
0.00052928
0.000574288
0.000603118
0.000619174
0.000581989
0.000462926
0.000263841
0.00011615
4.23497e-05
1.95583e-05
0.999998
0.999997
0.999997
0.999997
0.999996
0.999995
0.999993
0.999991
0.999991
0.99999
0.99999
0.99999
0.99999
0.99999
0.99999
0.99999
0.99999
0.99999
0.99999
0.99999
0.99999
0.99999
0.99999
0.99999
0.99999
0.99999
0.99999
0.99999
0.99999
0.99999
0.99999
0.99999
0.99999
0.99999
0.99999
0.99999
0.99999
0.99999
0.99999
0.99999
0.99999
0.99999
0.99999
0.99999
0.999989
0.999987
0.999984
0.999972
0.999948
0.999925
0.999907
0.999891
0.999875
0.999866
0.999868
0.999868
0.999873
0.999825
0.999847
0.96471
0.0114029
9.71713e-06
6.20772e-06
4.0383e-06
4.01842e-06
4.45935e-06
5.19319e-06
5.70722e-06
5.80691e-06
5.13091e-06
4.55476e-06
3.56812e-06
2.61993e-06
1.86873e-06
1.28232e-06
9.42065e-07
7.89279e-07
5.05127e-07
5.32596e-07
1.18164e-06
1.65244e-06
2.33842e-06
4.06442e-06
6.00876e-06
7.59929e-06
8.4759e-06
9.25068e-06
1.03222e-05
1.11215e-05
1.14234e-05
9.94955e-06
7.02751e-06
3.2309e-06
1.4837e-06
1.18386e-06
1.03966e-06
0.999998
0.999998
0.999998
0.999998
0.999997
0.999996
0.999993
0.999992
0.999991
0.99999
0.99999
0.99999
0.99999
0.99999
0.99999
0.99999
0.99999
0.99999
0.99999
0.99999
0.99999
0.99999
0.99999
0.99999
0.99999
0.99999
0.99999
0.99999
0.99999
0.99999
0.99999
0.99999
0.99999
0.99999
0.99999
0.99999
0.99999
0.99999
0.99999
0.99999
0.99999
0.99999
0.99999
0.99999
0.999989
0.999988
0.999985
0.999976
0.999952
0.999925
0.999904
0.999891
0.999882
0.999868
0.99987
0.999865
0.999852
0.999768
0.999752
0.981827
0.0365807
6.47846e-07
6.47845e-07
6.75153e-07
6.49246e-07
6.49246e-07
6.51555e-07
6.6632e-07
7.1004e-07
7.68815e-07
7.83533e-07
7.16747e-07
6.33652e-07
6.28084e-07
6.21991e-07
6.21177e-07
6.31012e-07
6.42564e-07
6.5063e-07
6.50974e-07
6.43284e-07
6.3381e-07
6.15457e-07
6.02725e-07
6.01553e-07
5.95095e-07
5.79763e-07
6.19612e-07
7.13931e-07
7.49015e-07
7.28134e-07
4.83406e-07
3.20525e-07
3.19738e-07
3.47796e-07
2.76121e-07
0.999998
0.999998
0.999998
0.999998
0.999997
0.999996
0.999994
0.999992
0.999991
0.99999
0.99999
0.99999
0.99999
0.99999
0.99999
0.99999
0.99999
0.99999
0.99999
0.99999
0.99999
0.99999
0.99999
0.99999
0.99999
0.99999
0.99999
0.99999
0.99999
0.99999
0.99999
0.99999
0.99999
0.99999
0.99999
0.99999
0.99999
0.99999
0.99999
0.99999
0.99999
0.99999
0.99999
0.99999
0.99999
0.999988
0.999986
0.99998
0.99996
0.999932
0.999906
0.999894
0.999887
0.999878
0.999878
0.999869
0.999842
0.999744
0.999702
0.974016
0.0410991
3.07766e-06
6.47844e-07
6.55335e-07
6.49298e-07
6.60811e-07
6.60736e-07
6.60571e-07
6.58073e-07
6.54262e-07
6.54444e-07
6.56685e-07
6.56932e-07
6.56398e-07
6.56117e-07
6.5484e-07
6.5435e-07
6.55428e-07
6.55258e-07
6.54722e-07
6.53822e-07
6.51662e-07
6.51628e-07
6.51655e-07
6.40269e-07
5.9957e-07
5.92424e-07
5.85287e-07
5.77538e-07
5.66283e-07
5.16215e-07
4.06886e-07
2.84818e-07
2.44057e-07
2.41076e-07
2.34583e-07
0.999998
0.999997
0.999997
0.999997
0.999997
0.999997
0.999995
0.999993
0.999991
0.99999
0.99999
0.99999
0.99999
0.99999
0.99999
0.99999
0.99999
0.99999
0.99999
0.99999
0.99999
0.99999
0.99999
0.99999
0.99999
0.99999
0.99999
0.99999
0.99999
0.99999
0.99999
0.99999
0.99999
0.99999
0.99999
0.99999
0.99999
0.99999
0.99999
0.99999
0.99999
0.99999
0.99999
0.99999
0.99999
0.999989
0.999986
0.999982
0.999969
0.999944
0.999919
0.999896
0.999887
0.999884
0.999887
0.999874
0.999832
0.999777
0.999648
0.974398
0.0495519
0.000126982
6.47845e-07
6.57438e-07
6.49247e-07
6.49251e-07
6.50756e-07
6.50566e-07
6.49633e-07
6.49089e-07
6.49575e-07
6.48713e-07
6.47823e-07
6.47823e-07
6.47823e-07
6.47842e-07
6.48621e-07
6.51039e-07
6.53383e-07
6.55856e-07
6.55437e-07
6.5324e-07
6.53133e-07
6.51855e-07
6.40559e-07
5.92739e-07
5.68981e-07
5.54351e-07
5.49502e-07
5.47856e-07
5.40842e-07
4.63547e-07
3.30785e-07
2.48129e-07
2.34581e-07
2.34584e-07
0.999998
0.999998
0.999998
0.999997
0.999997
0.999997
0.999996
0.999993
0.999991
0.99999
0.99999
0.99999
0.99999
0.99999
0.99999
0.99999
0.99999
0.99999
0.99999
0.99999
0.99999
0.99999
0.99999
0.99999
0.99999
0.99999
0.99999
0.99999
0.99999
0.99999
0.99999
0.99999
0.99999
0.99999
0.99999
0.99999
0.99999
0.99999
0.99999
0.99999
0.99999
0.99999
0.99999
0.99999
0.99999
0.999989
0.999987
0.999984
0.999976
0.999961
0.999942
0.999903
0.999879
0.999872
0.999868
0.999842
0.999838
0.999817
0.999538
0.960453
0.0688985
0.000694572
2.01295e-06
6.47802e-07
6.49657e-07
6.52235e-07
6.52429e-07
6.52445e-07
6.52732e-07
6.52995e-07
6.53575e-07
6.5445e-07
6.55135e-07
6.55008e-07
6.5531e-07
6.55349e-07
6.55231e-07
6.55974e-07
6.5683e-07
6.58276e-07
6.57496e-07
6.55838e-07
6.55796e-07
6.5439e-07
6.37307e-07
5.73091e-07
5.62246e-07
5.61079e-07
5.65096e-07
5.7292e-07
5.75799e-07
5.71242e-07
5.10306e-07
3.83159e-07
2.94484e-07
2.52927e-07
0.999996
0.999994
0.999994
0.999993
0.999993
0.999992
0.999991
0.999991
0.99999
0.99999
0.99999
0.99999
0.99999
0.99999
0.99999
0.99999
0.99999
0.99999
0.99999
0.99999
0.99999
0.99999
0.99999
0.99999
0.99999
0.99999
0.99999
0.99999
0.99999
0.99999
0.99999
0.99999
0.99999
0.99999
0.99999
0.99999
0.99999
0.99999
0.99999
0.99999
0.99999
0.99999
0.99999
0.99999
0.99999
0.999988
0.999984
0.999975
0.99996
0.999934
0.99991
0.999891
0.999868
0.999847
0.999838
0.99983
0.999828
0.999819
0.998744
0.914569
0.0205337
5.60061e-05
5.24981e-07
5.27236e-07
5.2972e-07
5.3236e-07
5.3204e-07
5.32552e-07
5.3338e-07
5.34861e-07
5.379e-07
5.41251e-07
5.46611e-07
5.50016e-07
5.48962e-07
5.48665e-07
5.50513e-07
5.52478e-07
5.55141e-07
5.61273e-07
5.62246e-07
5.54522e-07
5.37819e-07
5.14024e-07
5.0508e-07
5.02813e-07
5.0157e-07
5.01238e-07
5.13032e-07
5.28764e-07
5.36624e-07
5.32516e-07
5.16446e-07
4.92803e-07
4.46341e-07
4.40287e-07
0.999996
0.999995
0.999993
0.999993
0.999992
0.999991
0.999991
0.999991
0.999991
0.99999
0.99999
0.99999
0.99999
0.99999
0.99999
0.99999
0.99999
0.99999
0.99999
0.99999
0.99999
0.99999
0.99999
0.99999
0.99999
0.99999
0.99999
0.99999
0.99999
0.99999
0.99999
0.99999
0.99999
0.99999
0.99999
0.99999
0.99999
0.99999
0.99999
0.99999
0.99999
0.99999
0.99999
0.99999
0.999989
0.999988
0.999985
0.999977
0.999961
0.999937
0.999926
0.999903
0.999861
0.999839
0.999839
0.999835
0.999836
0.999805
0.999387
0.885895
0.00886355
2.30827e-06
5.24979e-07
5.29219e-07
5.26618e-07
6.20066e-07
6.53583e-07
6.11689e-07
5.82994e-07
5.58679e-07
5.48715e-07
5.38206e-07
5.32543e-07
5.32217e-07
5.3861e-07
5.42572e-07
5.50329e-07
5.54641e-07
5.57502e-07
5.62708e-07
5.51202e-07
5.46268e-07
5.43063e-07
5.32087e-07
5.16489e-07
5.11317e-07
5.15326e-07
5.15241e-07
5.19356e-07
5.34645e-07
5.46645e-07
5.46362e-07
5.42548e-07
5.42801e-07
5.18747e-07
4.53865e-07
0.999997
0.999996
0.999994
0.999993
0.999992
0.999992
0.999991
0.999991
0.999991
0.999991
0.99999
0.99999
0.99999
0.99999
0.99999
0.99999
0.99999
0.99999
0.99999
0.99999
0.99999
0.99999
0.99999
0.99999
0.99999
0.99999
0.99999
0.99999
0.99999
0.99999
0.99999
0.99999
0.99999
0.99999
0.99999
0.99999
0.99999
0.99999
0.99999
0.99999
0.99999
0.99999
0.99999
0.99999
0.999989
0.999988
0.999986
0.99998
0.999969
0.999955
0.999931
0.999875
0.999846
0.99984
0.99985
0.999848
0.999852
0.999806
0.999579
0.856271
0.00856752
1.26949e-06
2.71982e-06
1.89277e-06
1.59133e-06
1.31173e-06
1.41833e-06
1.2839e-06
9.78626e-07
8.4158e-07
9.48462e-07
6.40714e-07
5.36796e-07
5.32187e-07
5.3527e-07
6.42157e-07
7.22017e-07
7.35285e-07
7.07648e-07
6.86522e-07
6.29029e-07
5.85632e-07
5.70292e-07
5.55682e-07
5.4519e-07
5.41446e-07
5.41193e-07
5.51958e-07
5.63829e-07
5.59468e-07
5.53655e-07
5.55172e-07
5.53966e-07
5.53424e-07
5.44216e-07
4.89616e-07
0.999997
0.999997
0.999995
0.999994
0.999993
0.999992
0.999992
0.999991
0.999991
0.999991
0.99999
0.99999
0.99999
0.99999
0.99999
0.99999
0.99999
0.99999
0.99999
0.99999
0.99999
0.99999
0.99999
0.99999
0.99999
0.99999
0.99999
0.99999
0.99999
0.99999
0.99999
0.99999
0.99999
0.99999
0.99999
0.99999
0.99999
0.99999
0.99999
0.99999
0.99999
0.99999
0.99999
0.99999
0.99999
0.999988
0.999986
0.999981
0.999977
0.999969
0.999903
0.999854
0.999847
0.999847
0.999857
0.999859
0.999861
0.999793
0.999662
0.84946
0.0019846
0.000301109
0.000287698
0.000253565
0.000264761
0.000240199
0.000187184
0.000128195
8.2191e-05
5.28959e-05
3.55671e-05
2.30425e-05
1.53396e-05
1.12075e-05
1.06303e-05
1.07311e-05
8.81356e-06
6.73383e-06
4.07372e-06
2.15609e-06
1.18259e-06
9.26032e-07
9.20557e-07
8.17504e-07
7.33851e-07
6.81482e-07
6.44449e-07
6.45573e-07
6.12094e-07
5.74305e-07
5.63557e-07
5.66708e-07
5.62018e-07
5.4297e-07
5.38507e-07
4.87464e-07
0.999997
0.999997
0.999995
0.999994
0.999993
0.999992
0.999992
0.999991
0.999991
0.999991
0.99999
0.99999
0.99999
0.99999
0.99999
0.99999
0.99999
0.99999
0.99999
0.99999
0.99999
0.99999
0.99999
0.99999
0.99999
0.99999
0.99999
0.99999
0.99999
0.99999
0.99999
0.99999
0.99999
0.99999
0.99999
0.99999
0.99999
0.99999
0.99999
0.99999
0.99999
0.99999
0.99999
0.99999
0.99999
0.999988
0.999985
0.999978
0.999972
0.999959
0.999866
0.999855
0.999859
0.999859
0.999851
0.999858
0.999838
0.999793
0.999773
0.760598
0.00871229
0.00461927
0.00491685
0.00490416
0.00491879
0.00426548
0.0038205
0.00327704
0.00283827
0.00253046
0.00235012
0.00218544
0.00200029
0.00181294
0.00161191
0.00136783
0.00112625
0.000851604
0.000584057
0.000381675
0.00024041
0.000142106
7.67153e-05
3.50794e-05
1.40139e-05
5.15033e-06
1.74014e-06
7.45857e-07
1.15303e-06
1.67746e-06
9.21699e-07
6.69521e-07
7.6937e-07
4.2436e-07
5.05004e-07
4.7886e-07
0.999997
0.999997
0.999996
0.999994
0.999994
0.999993
0.999992
0.999991
0.999991
0.999991
0.99999
0.99999
0.99999
0.99999
0.99999
0.99999
0.99999
0.99999
0.99999
0.99999
0.99999
0.99999
0.99999
0.99999
0.99999
0.99999
0.99999
0.99999
0.99999
0.99999
0.99999
0.99999
0.99999
0.99999
0.99999
0.99999
0.99999
0.99999
0.99999
0.99999
0.99999
0.99999
0.99999
0.99999
0.99999
0.999988
0.999984
0.999977
0.999966
0.999948
0.999862
0.999861
0.999872
0.999873
0.999863
0.999849
0.999834
0.999812
0.999863
0.741897
0.0214452
0.0143283
0.0162683
0.0167596
0.0168479
0.0167386
0.0170234
0.0171995
0.0172469
0.016631
0.0162411
0.0160227
0.0159602
0.0158012
0.0153335
0.0144735
0.0133268
0.0117282
0.00986355
0.00803845
0.00634305
0.00489565
0.00369342
0.00264631
0.00183278
0.00123495
0.000811165
0.000534354
0.000370874
0.000253227
0.000152246
7.49521e-05
3.07235e-05
3.64136e-06
3.64307e-07
4.192e-07
0.999997
0.999998
0.999996
0.999995
0.999994
0.999993
0.999992
0.999991
0.999991
0.999991
0.99999
0.99999
0.99999
0.99999
0.99999
0.99999
0.99999
0.99999
0.99999
0.99999
0.99999
0.99999
0.99999
0.99999
0.99999
0.99999
0.99999
0.99999
0.99999
0.99999
0.99999
0.99999
0.99999
0.99999
0.99999
0.99999
0.99999
0.99999
0.99999
0.99999
0.99999
0.99999
0.99999
0.99999
0.99999
0.999988
0.999984
0.999976
0.999963
0.99995
0.999888
0.999864
0.999877
0.999879
0.999873
0.999861
0.999854
0.999843
0.999885
0.712013
0.0281494
0.020062
0.0219356
0.0225484
0.0225903
0.0235361
0.0243546
0.0253436
0.0262465
0.0268722
0.0273986
0.0285078
0.0299951
0.0315374
0.0328178
0.0335821
0.0338811
0.0331719
0.0320314
0.0310451
0.0295624
0.0278397
0.0260174
0.0238679
0.0216218
0.0195358
0.0176909
0.015634
0.0133438
0.0113327
0.00912575
0.00684915
0.00476606
0.00192383
0.000151364
0.000140379
0.999998
0.999998
0.999997
0.999996
0.999994
0.999993
0.999992
0.999991
0.999991
0.999991
0.99999
0.99999
0.99999
0.99999
0.99999
0.99999
0.99999
0.99999
0.99999
0.99999
0.99999
0.99999
0.99999
0.99999
0.99999
0.99999
0.99999
0.99999
0.99999
0.99999
0.99999
0.99999
0.99999
0.99999
0.99999
0.99999
0.99999
0.99999
0.99999
0.99999
0.99999
0.99999
0.99999
0.99999
0.99999
0.999988
0.999984
0.999976
0.999961
0.999941
0.999914
0.99987
0.999878
0.99988
0.999879
0.999875
0.999873
0.999866
0.999884
0.775298
0.033151
0.0193197
0.0203346
0.0206463
0.0214912
0.0230011
0.0245157
0.0261287
0.0274224
0.0284558
0.0294904
0.0312416
0.033352
0.0351173
0.0364424
0.0374131
0.0385386
0.0393608
0.0401683
0.0413897
0.0430827
0.0453337
0.0479154
0.0499338
0.0510443
0.0515252
0.0517312
0.0521194
0.0528011
0.0543237
0.0567921
0.0616958
0.0691978
0.08621
0.131652
0.33043
0.999998
0.999998
0.999997
0.999996
0.999995
0.999994
0.999992
0.999992
0.999991
0.999991
0.99999
0.99999
0.99999
0.99999
0.99999
0.99999
0.99999
0.99999
0.99999
0.99999
0.99999
0.99999
0.99999
0.99999
0.99999
0.99999
0.99999
0.99999
0.99999
0.99999
0.99999
0.99999
0.99999
0.99999
0.99999
0.99999
0.99999
0.99999
0.99999
0.99999
0.99999
0.99999
0.99999
0.99999
0.99999
0.999988
0.999984
0.999976
0.999961
0.999939
0.999918
0.999886
0.999876
0.999877
0.999879
0.999874
0.999881
0.999875
0.999885
0.843084
0.0225288
0.00604638
0.0055405
0.00517106
0.00510749
0.00508416
0.00546821
0.00585303
0.00630991
0.006869
0.00760432
0.00833081
0.00914697
0.00984619
0.0104119
0.0112522
0.0123489
0.0139629
0.0159721
0.0184874
0.0217429
0.0266994
0.0336081
0.0418635
0.0494313
0.0544988
0.0563497
0.0576236
0.0601671
0.0638316
0.0692166
0.0759407
0.0839896
0.0893459
0.0918037
0.0868572
0.999998
0.999998
0.999998
0.999997
0.999996
0.999994
0.999993
0.999992
0.999991
0.999991
0.99999
0.99999
0.99999
0.99999
0.99999
0.99999
0.99999
0.99999
0.99999
0.99999
0.99999
0.99999
0.99999
0.99999
0.99999
0.99999
0.99999
0.99999
0.99999
0.99999
0.99999
0.99999
0.99999
0.99999
0.99999
0.99999
0.99999
0.99999
0.99999
0.99999
0.99999
0.99999
0.99999
0.99999
0.99999
0.999988
0.999984
0.999976
0.999963
0.999943
0.999921
0.9999
0.999885
0.999878
0.999879
0.999873
0.999881
0.999869
0.999885
0.911782
0.0149974
0.0016334
0.00155923
0.00143177
0.00144877
0.00138939
0.00132586
0.00124052
0.0011673
0.00115555
0.00128751
0.00141298
0.00158159
0.00174027
0.00186801
0.00199077
0.00212002
0.00230913
0.00254129
0.00287218
0.00344178
0.00437035
0.00578601
0.00744455
0.00897054
0.0101327
0.0120401
0.0139107
0.0153568
0.0173647
0.019788
0.0217608
0.0226519
0.0202246
0.0128786
0.00587503
0.999998
0.999998
0.999998
0.999998
0.999997
0.999995
0.999993
0.999992
0.999991
0.999991
0.99999
0.99999
0.99999
0.99999
0.99999
0.99999
0.99999
0.99999
0.99999
0.99999
0.99999
0.99999
0.99999
0.99999
0.99999
0.99999
0.99999
0.99999
0.99999
0.99999
0.99999
0.99999
0.99999
0.99999
0.99999
0.99999
0.99999
0.99999
0.99999
0.99999
0.99999
0.99999
0.99999
0.99999
0.99999
0.999988
0.999985
0.999978
0.999964
0.999947
0.999928
0.9999
0.999892
0.999876
0.999877
0.999873
0.99988
0.999864
0.999885
0.94206
0.0122095
0.000195398
0.000201905
0.000174504
0.000179007
0.0001738
0.000160872
0.000144275
0.000125124
0.000107043
9.48586e-05
9.10336e-05
9.23596e-05
9.37284e-05
9.35321e-05
9.67455e-05
0.000105115
0.00011204
0.000126048
0.000148854
0.000187765
0.000242623
0.000309189
0.000372361
0.00041047
0.000410721
0.000412076
0.000434312
0.000435007
0.000507994
0.000553291
0.000585304
0.000465059
0.000312903
0.000167589
7.10134e-05
0.999998
0.999998
0.999998
0.999998
0.999998
0.999997
0.999994
0.999992
0.999991
0.999991
0.99999
0.99999
0.99999
0.99999
0.99999
0.99999
0.99999
0.99999
0.99999
0.99999
0.99999
0.99999
0.99999
0.99999
0.99999
0.99999
0.99999
0.99999
0.99999
0.99999
0.99999
0.99999
0.99999
0.99999
0.99999
0.99999
0.99999
0.99999
0.99999
0.99999
0.99999
0.99999
0.99999
0.99999
0.99999
0.999989
0.999986
0.999979
0.999965
0.999942
0.999922
0.999899
0.999888
0.999874
0.99988
0.999875
0.999869
0.999813
0.999792
0.975039
0.0350159
6.47847e-07
9.87853e-06
4.28204e-06
4.76792e-06
4.73198e-06
3.44086e-06
2.56121e-06
2.21423e-06
1.85639e-06
1.56866e-06
1.35538e-06
1.27971e-06
1.27206e-06
1.38564e-06
1.42694e-06
1.53925e-06
1.75021e-06
1.99502e-06
2.33306e-06
2.74413e-06
3.10512e-06
3.39519e-06
3.55218e-06
3.26281e-06
2.27658e-06
1.78664e-06
1.52607e-06
1.10953e-06
8.51651e-07
2.44149e-06
2.25419e-06
8.41195e-07
6.21366e-07
1.08237e-06
1.00672e-06
0.999998
0.999998
0.999998
0.999998
0.999998
0.999998
0.999995
0.999992
0.999991
0.999991
0.99999
0.99999
0.99999
0.99999
0.99999
0.99999
0.99999
0.99999
0.99999
0.99999
0.99999
0.99999
0.99999
0.99999
0.99999
0.99999
0.99999
0.99999
0.99999
0.99999
0.99999
0.99999
0.99999
0.99999
0.99999
0.99999
0.99999
0.99999
0.99999
0.99999
0.99999
0.99999
0.99999
0.99999
0.99999
0.999989
0.999987
0.999981
0.99997
0.999944
0.999919
0.999897
0.999887
0.999877
0.999882
0.999878
0.999831
0.999707
0.999659
0.97544
0.0306178
6.47846e-07
7.55579e-07
7.08476e-07
7.38486e-07
6.83311e-07
6.45341e-07
6.45129e-07
6.58633e-07
6.85723e-07
7.1441e-07
7.11125e-07
7.07481e-07
7.01256e-07
6.93279e-07
6.83782e-07
6.70098e-07
6.31961e-07
6.3102e-07
6.3102e-07
6.3102e-07
6.31239e-07
6.3459e-07
6.4123e-07
6.82811e-07
6.55976e-07
6.25987e-07
6.01204e-07
6.20616e-07
6.00048e-07
5.57763e-07
5.33891e-07
4.54481e-07
2.64281e-07
2.34575e-07
2.34898e-07
0.999998
0.999998
0.999998
0.999998
0.999999
0.999998
0.999997
0.999994
0.999991
0.99999
0.99999
0.99999
0.99999
0.99999
0.99999
0.99999
0.99999
0.99999
0.99999
0.99999
0.99999
0.99999
0.99999
0.99999
0.99999
0.99999
0.99999
0.99999
0.99999
0.99999
0.99999
0.99999
0.99999
0.99999
0.99999
0.99999
0.99999
0.99999
0.99999
0.99999
0.99999
0.99999
0.99999
0.99999
0.99999
0.999989
0.999987
0.999982
0.999973
0.99995
0.99992
0.999899
0.999888
0.999879
0.999882
0.999865
0.999765
0.999633
0.999493
0.976061
0.0499047
6.47847e-07
6.58666e-07
6.93019e-07
6.71507e-07
6.61434e-07
6.59944e-07
6.59392e-07
6.59599e-07
6.5961e-07
6.58094e-07
6.57971e-07
6.58691e-07
6.59241e-07
6.59989e-07
6.618e-07
6.64519e-07
6.65785e-07
6.66533e-07
6.67748e-07
6.67319e-07
6.66955e-07
6.65154e-07
6.61186e-07
6.44528e-07
5.95207e-07
5.77338e-07
5.62573e-07
5.45113e-07
5.23448e-07
4.9997e-07
4.56338e-07
3.40439e-07
2.44063e-07
2.34577e-07
2.34579e-07
0.999998
0.999998
0.999998
0.999998
0.999999
0.999999
0.999998
0.999996
0.999991
0.99999
0.99999
0.99999
0.99999
0.99999
0.99999
0.99999
0.99999
0.99999
0.99999
0.99999
0.99999
0.99999
0.99999
0.99999
0.99999
0.99999
0.99999
0.99999
0.99999
0.99999
0.99999
0.99999
0.99999
0.99999
0.99999
0.99999
0.99999
0.99999
0.99999
0.99999
0.99999
0.99999
0.99999
0.99999
0.99999
0.999989
0.999987
0.999983
0.999974
0.999956
0.999933
0.999907
0.999886
0.999881
0.999877
0.999795
0.999752
0.999752
0.999459
0.979459
0.0752173
0.000328793
6.83965e-07
6.63269e-07
6.53375e-07
6.49897e-07
6.50225e-07
6.4896e-07
6.48667e-07
6.49029e-07
6.50727e-07
6.52013e-07
6.52941e-07
6.54493e-07
6.5732e-07
6.61054e-07
6.65492e-07
6.67752e-07
6.70234e-07
6.69616e-07
6.66502e-07
6.67906e-07
6.66637e-07
6.63689e-07
6.46489e-07
5.8342e-07
5.38996e-07
5.16745e-07
5.03149e-07
4.98781e-07
4.91601e-07
4.77064e-07
3.86947e-07
2.66968e-07
2.34579e-07
2.34582e-07
0.999998
0.999998
0.999998
0.999998
0.999998
0.999998
0.999998
0.999997
0.999992
0.99999
0.99999
0.99999
0.99999
0.99999
0.99999
0.99999
0.99999
0.99999
0.99999
0.99999
0.99999
0.99999
0.99999
0.99999
0.99999
0.99999
0.99999
0.99999
0.99999
0.99999
0.99999
0.99999
0.99999
0.99999
0.99999
0.99999
0.99999
0.99999
0.99999
0.99999
0.99999
0.99999
0.99999
0.99999
0.99999
0.999989
0.999987
0.999984
0.999978
0.999966
0.999949
0.999911
0.999884
0.999866
0.999865
0.999846
0.999831
0.999808
0.999396
0.962804
0.0850473
0.000983831
2.34121e-06
6.47785e-07
6.51181e-07
6.4949e-07
6.4954e-07
6.49815e-07
6.50845e-07
6.52396e-07
6.54127e-07
6.55042e-07
6.55557e-07
6.5643e-07
6.57882e-07
6.60095e-07
6.62658e-07
6.65081e-07
6.68303e-07
6.69329e-07