/*--------------------------------*- C++ -*----------------------------------*\
| =========                 |                                                 |
| \\      /  F ield         | OpenFOAM: The Open Source CFD Toolbox           |
|  \\    /   O peration     | Version:  2.3.0                                 |
|   \\  /    A nd           | Web:      www.OpenFOAM.org                      |
|    \\/     M anipulation  |                                                 |
\*---------------------------------------------------------------------------*/
FoamFile
{
    version     2.0;
    format      ascii;
    class       volScalarField;
    location    "31";
    object      alpha.airMean;
}
// * * * * * * * * * * * * * * * * * * * * * * * * * * * * * * * * * * * * * //

dimensions      [0 0 0 0 0 0 0];

internalField   nonuniform List<scalar> 
6144
(
0.999992
0.999992
0.999992
0.999991
0.999991
0.999991
0.999991
0.99999
0.99999
0.99999
0.99999
0.99999
0.99999
0.99999
0.99999
0.99999
0.99999
0.99999
0.99999
0.99999
0.99999
0.99999
0.99999
0.99999
0.99999
0.99999
0.99999
0.99999
0.99999
0.99999
0.99999
0.99999
0.99999
0.99999
0.99999
0.99999
0.99999
0.99999
0.99999
0.99999
0.99999
0.99999
0.99999
0.99999
0.99999
0.999989
0.999987
0.999982
0.999972
0.999957
0.999943
0.999931
0.999925
0.999919
0.999915
0.999908
0.999906
0.999899
0.998697
0.934928
0.0358519
0.000234581
1.16179e-06
8.62886e-07
8.60408e-07
8.5155e-07
8.51736e-07
8.44652e-07
8.4551e-07
8.40808e-07
8.40069e-07
8.36053e-07
8.32427e-07
8.28118e-07
8.2459e-07
8.18986e-07
8.14964e-07
8.11522e-07
8.07118e-07
7.99894e-07
7.89935e-07
7.7999e-07
7.71854e-07
7.63513e-07
7.50993e-07
7.30126e-07
7.10539e-07
6.94221e-07
6.71835e-07
6.37815e-07
6.00417e-07
5.69189e-07
5.2833e-07
4.8936e-07
4.51315e-07
4.30544e-07
0.999993
0.999992
0.999992
0.999992
0.999991
0.999991
0.99999
0.99999
0.99999
0.99999
0.99999
0.99999
0.99999
0.99999
0.99999
0.99999
0.99999
0.99999
0.99999
0.99999
0.99999
0.99999
0.99999
0.99999
0.99999
0.99999
0.99999
0.99999
0.99999
0.99999
0.99999
0.99999
0.99999
0.99999
0.99999
0.99999
0.99999
0.99999
0.99999
0.99999
0.99999
0.99999
0.99999
0.99999
0.99999
0.999989
0.999987
0.999982
0.999974
0.999964
0.999946
0.99993
0.999922
0.999913
0.999908
0.9999
0.999899
0.999889
0.999375
0.949481
0.0303175
0.000122025
9.15244e-07
9.02905e-07
8.9545e-07
8.90563e-07
8.89269e-07
8.85585e-07
8.84975e-07
8.73322e-07
8.69445e-07
8.60542e-07
8.56678e-07
8.51316e-07
8.45857e-07
8.37479e-07
8.32798e-07
8.28098e-07
8.20009e-07
8.08246e-07
7.9437e-07
7.80867e-07
7.66346e-07
7.52148e-07
7.348e-07
7.15373e-07
6.99798e-07
6.8953e-07
6.78384e-07
6.59454e-07
6.3204e-07
5.93324e-07
5.48545e-07
5.11805e-07
4.76951e-07
4.45164e-07
0.999993
0.999993
0.999992
0.999992
0.999991
0.999991
0.999991
0.99999
0.99999
0.99999
0.99999
0.99999
0.99999
0.99999
0.99999
0.99999
0.99999
0.99999
0.99999
0.99999
0.99999
0.99999
0.99999
0.99999
0.99999
0.99999
0.99999
0.99999
0.99999
0.99999
0.99999
0.99999
0.99999
0.99999
0.99999
0.99999
0.99999
0.99999
0.99999
0.99999
0.99999
0.99999
0.99999
0.99999
0.99999
0.999989
0.999987
0.999982
0.999975
0.999965
0.999942
0.999924
0.999914
0.999905
0.9999
0.999892
0.999894
0.999883
0.99957
0.939312
0.0262638
7.72511e-05
1.88023e-06
1.92579e-06
1.88952e-06
1.82963e-06
1.61773e-06
1.38054e-06
1.15418e-06
9.93664e-07
9.2338e-07
8.91625e-07
8.78117e-07
8.66964e-07
8.611e-07
8.50613e-07
8.45158e-07
8.38234e-07
8.2779e-07
8.14845e-07
8.0136e-07
7.84933e-07
7.67141e-07
7.45936e-07
7.26925e-07
7.12504e-07
7.03254e-07
7.00274e-07
6.94418e-07
6.79155e-07
6.53833e-07
6.17109e-07
5.68609e-07
5.28419e-07
4.99033e-07
4.57389e-07
0.999993
0.999993
0.999992
0.999992
0.999992
0.999991
0.999991
0.99999
0.99999
0.99999
0.99999
0.99999
0.99999
0.99999
0.99999
0.99999
0.99999
0.99999
0.99999
0.99999
0.99999
0.99999
0.99999
0.99999
0.99999
0.99999
0.99999
0.99999
0.99999
0.99999
0.99999
0.99999
0.99999
0.99999
0.99999
0.99999
0.99999
0.99999
0.99999
0.99999
0.99999
0.99999
0.99999
0.99999
0.99999
0.999989
0.999987
0.999982
0.999976
0.999962
0.999936
0.999918
0.999906
0.999897
0.999892
0.999886
0.999888
0.999873
0.999672
0.914344
0.0226391
7.78646e-05
3.5259e-05
3.22931e-05
3.12804e-05
2.94462e-05
2.60801e-05
2.10769e-05
1.53643e-05
1.00362e-05
6.02149e-06
3.43399e-06
2.07579e-06
1.48348e-06
1.25545e-06
1.12674e-06
1.01879e-06
9.2788e-07
8.65263e-07
8.27158e-07
8.15418e-07
8.06024e-07
7.95379e-07
7.76225e-07
7.65287e-07
7.69562e-07
7.69269e-07
7.6665e-07
7.53703e-07
7.2272e-07
6.85289e-07
6.43506e-07
5.93049e-07
5.49873e-07
5.19275e-07
4.70275e-07
0.999993
0.999993
0.999993
0.999992
0.999992
0.999992
0.999991
0.999991
0.99999
0.99999
0.99999
0.99999
0.99999
0.99999
0.99999
0.99999
0.99999
0.99999
0.99999
0.99999
0.99999
0.99999
0.99999
0.99999
0.99999
0.99999
0.99999
0.99999
0.99999
0.99999
0.99999
0.99999
0.99999
0.99999
0.99999
0.99999
0.99999
0.99999
0.99999
0.99999
0.99999
0.99999
0.99999
0.99999
0.99999
0.999989
0.999987
0.999983
0.999975
0.999958
0.999931
0.999911
0.9999
0.999891
0.999886
0.999881
0.999882
0.999867
0.999708
0.884523
0.0250354
0.000548835
0.000500362
0.000443609
0.000425539
0.000394871
0.000355643
0.000305769
0.000255557
0.000206015
0.000162051
0.00012548
9.71398e-05
7.67776e-05
6.32614e-05
5.36681e-05
4.62817e-05
4.03372e-05
3.54892e-05
3.15952e-05
2.88441e-05
2.69661e-05
2.57052e-05
2.38607e-05
2.29327e-05
2.19704e-05
2.03078e-05
1.76479e-05
1.45524e-05
1.0574e-05
6.29776e-06
3.3138e-06
1.6225e-06
8.60254e-07
6.08761e-07
5.2013e-07
0.999994
0.999994
0.999993
0.999993
0.999992
0.999992
0.999991
0.999991
0.99999
0.99999
0.99999
0.99999
0.99999
0.99999
0.99999
0.99999
0.99999
0.99999
0.99999
0.99999
0.99999
0.99999
0.99999
0.99999
0.99999
0.99999
0.99999
0.99999
0.99999
0.99999
0.99999
0.99999
0.99999
0.99999
0.99999
0.99999
0.99999
0.99999
0.99999
0.99999
0.99999
0.99999
0.99999
0.99999
0.99999
0.999989
0.999986
0.999983
0.999974
0.999955
0.999926
0.999906
0.999896
0.999888
0.999886
0.999884
0.999887
0.999871
0.999764
0.843267
0.0241687
0.00278301
0.00288147
0.00275567
0.00273855
0.00262076
0.0024861
0.00232258
0.00216036
0.00199865
0.00183645
0.00168109
0.0015363
0.00140385
0.00128889
0.00119059
0.0011079
0.00103463
0.000964132
0.000891684
0.000811635
0.000731227
0.000653461
0.000588703
0.000546755
0.000526263
0.000511109
0.000486349
0.000442813
0.00037231
0.000284635
0.00019593
0.000118455
5.89963e-05
2.24929e-05
8.70112e-06
0.999994
0.999994
0.999993
0.999993
0.999992
0.999992
0.999992
0.999991
0.999991
0.99999
0.99999
0.99999
0.99999
0.99999
0.99999
0.99999
0.99999
0.99999
0.99999
0.99999
0.99999
0.99999
0.99999
0.99999
0.99999
0.99999
0.99999
0.99999
0.99999
0.99999
0.99999
0.99999
0.99999
0.99999
0.99999
0.99999
0.99999
0.99999
0.99999
0.99999
0.99999
0.99999
0.99999
0.99999
0.99999
0.999988
0.999986
0.999982
0.999972
0.99995
0.999921
0.999903
0.999894
0.99989
0.999889
0.999888
0.999891
0.999883
0.999835
0.798334
0.026671
0.00708902
0.00750017
0.00742873
0.00738898
0.00727014
0.00714107
0.00702055
0.00690044
0.00676081
0.00661877
0.00644422
0.00628223
0.00610815
0.00593938
0.00576095
0.00559873
0.00542365
0.00524033
0.00501981
0.00477599
0.00449513
0.00419025
0.00387789
0.003584
0.00330701
0.00306945
0.00285315
0.0026379
0.00243236
0.00220002
0.00192146
0.00159204
0.00118843
0.000741434
0.000391843
0.999994
0.999994
0.999993
0.999993
0.999993
0.999992
0.999992
0.999991
0.999991
0.99999
0.99999
0.99999
0.99999
0.99999
0.99999
0.99999
0.99999
0.99999
0.99999
0.99999
0.99999
0.99999
0.99999
0.99999
0.99999
0.99999
0.99999
0.99999
0.99999
0.99999
0.99999
0.99999
0.99999
0.99999
0.99999
0.99999
0.99999
0.99999
0.99999
0.99999
0.99999
0.99999
0.99999
0.99999
0.99999
0.999989
0.999986
0.999981
0.999967
0.999946
0.999919
0.999904
0.999896
0.999894
0.999895
0.999896
0.999897
0.999885
0.999808
0.786535
0.0290263
0.0106223
0.0112433
0.0112636
0.011181
0.0111199
0.0110852
0.0111278
0.0111824
0.0112438
0.0113069
0.0113456
0.0113609
0.01135
0.011326
0.0112895
0.0112409
0.0111919
0.0111398
0.0111094
0.0111152
0.0111769
0.0112791
0.0114323
0.0116498
0.0119122
0.0121925
0.0124656
0.0127351
0.0130121
0.0132462
0.0133967
0.0133107
0.012796
0.0113898
0.00922611
0.999994
0.999994
0.999994
0.999993
0.999993
0.999992
0.999992
0.999991
0.999991
0.999991
0.99999
0.99999
0.99999
0.99999
0.99999
0.99999
0.99999
0.99999
0.99999
0.99999
0.99999
0.99999
0.99999
0.99999
0.99999
0.99999
0.99999
0.99999
0.99999
0.99999
0.99999
0.99999
0.99999
0.99999
0.99999
0.99999
0.99999
0.99999
0.99999
0.99999
0.99999
0.99999
0.99999
0.99999
0.99999
0.999988
0.999985
0.999979
0.999966
0.999947
0.999924
0.999908
0.9999
0.999897
0.999898
0.999897
0.999901
0.99989
0.999801
0.851968
0.0274115
0.00560875
0.00538431
0.0047028
0.00434179
0.00408217
0.00394898
0.00386268
0.00383022
0.00381407
0.00382341
0.00382425
0.00382032
0.00380548
0.00379152
0.0037741
0.00375918
0.00374293
0.00372109
0.00368899
0.00365739
0.00362158
0.00359217
0.00355915
0.00352242
0.00349717
0.00348051
0.00348238
0.00347582
0.00342993
0.00333461
0.00311634
0.00272768
0.0021692
0.00136731
0.000673387
0.999995
0.999994
0.999994
0.999993
0.999993
0.999992
0.999992
0.999991
0.999991
0.999991
0.99999
0.99999
0.99999
0.99999
0.99999
0.99999
0.99999
0.99999
0.99999
0.99999
0.99999
0.99999
0.99999
0.99999
0.99999
0.99999
0.99999
0.99999
0.99999
0.99999
0.99999
0.99999
0.99999
0.99999
0.99999
0.99999
0.99999
0.99999
0.99999
0.99999
0.99999
0.99999
0.99999
0.99999
0.999989
0.999987
0.999984
0.999978
0.999967
0.999952
0.999933
0.999916
0.999905
0.999899
0.999898
0.999897
0.999903
0.999894
0.999865
0.910649
0.0221357
0.00122966
0.00101681
0.000740058
0.000640725
0.000565028
0.000530937
0.00050433
0.000493857
0.000485479
0.000482015
0.000475054
0.000469024
0.000462673
0.000458708
0.000456325
0.000455332
0.000456278
0.000466473
0.000484378
0.000511762
0.000550348
0.000601408
0.000659792
0.000720286
0.000778498
0.000824142
0.000848695
0.000848945
0.000807838
0.0007214
0.000579383
0.000407321
0.000229471
9.58542e-05
3.81608e-05
0.999995
0.999994
0.999993
0.999993
0.999993
0.999992
0.999992
0.999991
0.999991
0.99999
0.99999
0.99999
0.99999
0.99999
0.99999
0.99999
0.99999
0.99999
0.99999
0.99999
0.99999
0.99999
0.99999
0.99999
0.99999
0.99999
0.99999
0.99999
0.99999
0.99999
0.99999
0.99999
0.99999
0.99999
0.99999
0.99999
0.99999
0.99999
0.99999
0.99999
0.99999
0.99999
0.99999
0.99999
0.999989
0.999987
0.999985
0.999978
0.999969
0.999955
0.99994
0.999925
0.999914
0.999904
0.999902
0.999899
0.999904
0.999893
0.999869
0.948005
0.024298
0.000137805
6.46029e-05
4.05271e-05
3.23909e-05
2.60679e-05
2.41922e-05
2.26012e-05
2.23856e-05
2.23302e-05
2.24947e-05
2.2467e-05
2.24066e-05
2.22042e-05
2.19635e-05
2.16861e-05
2.13937e-05
2.14501e-05
2.29207e-05
2.53285e-05
2.90324e-05
3.38904e-05
3.94441e-05
4.46732e-05
4.89302e-05
5.20407e-05
5.38028e-05
5.4401e-05
5.2791e-05
4.76351e-05
3.86048e-05
2.5389e-05
1.3776e-05
5.65883e-06
2.08251e-06
1.07308e-06
0.999995
0.999994
0.999994
0.999994
0.999993
0.999992
0.999991
0.999991
0.999991
0.99999
0.99999
0.99999
0.99999
0.99999
0.99999
0.99999
0.99999
0.99999
0.99999
0.99999
0.99999
0.99999
0.99999
0.99999
0.99999
0.99999
0.99999
0.99999
0.99999
0.99999
0.99999
0.99999
0.99999
0.99999
0.99999
0.99999
0.99999
0.99999
0.99999
0.99999
0.99999
0.99999
0.99999
0.99999
0.999989
0.999988
0.999985
0.99998
0.99997
0.999958
0.999945
0.999933
0.999923
0.999912
0.999908
0.999903
0.999907
0.999892
0.999811
0.969016
0.0375309
9.87345e-05
1.7261e-06
1.34527e-06
1.2016e-06
1.10663e-06
1.0767e-06
1.04609e-06
1.03607e-06
1.02734e-06
1.02667e-06
1.00574e-06
9.81935e-07
9.60415e-07
9.39526e-07
9.19073e-07
8.94394e-07
8.71288e-07
8.66364e-07
8.65167e-07
8.79315e-07
9.24538e-07
9.91556e-07
1.04833e-06
1.08701e-06
1.10081e-06
1.07621e-06
1.02496e-06
9.90232e-07
9.39483e-07
8.55965e-07
7.55982e-07
6.56776e-07
5.94797e-07
5.47519e-07
4.72929e-07
0.999996
0.999995
0.999995
0.999994
0.999994
0.999993
0.999992
0.999991
0.999991
0.99999
0.99999
0.99999
0.99999
0.99999
0.99999
0.99999
0.99999
0.99999
0.99999
0.99999
0.99999
0.99999
0.99999
0.99999
0.99999
0.99999
0.99999
0.99999
0.99999
0.99999
0.99999
0.99999
0.99999
0.99999
0.99999
0.99999
0.99999
0.99999
0.99999
0.99999
0.99999
0.99999
0.99999
0.99999
0.99999
0.999989
0.999986
0.999981
0.999971
0.999959
0.999946
0.999936
0.999929
0.999919
0.999914
0.999907
0.99991
0.999889
0.999723
0.974645
0.0515589
0.000192423
1.04418e-06
9.57514e-07
9.51075e-07
9.50971e-07
9.45368e-07
9.39661e-07
9.32173e-07
9.22428e-07
9.15485e-07
9.06888e-07
9.00062e-07
8.91144e-07
8.80681e-07
8.71324e-07
8.6583e-07
8.60568e-07
8.52111e-07
8.43991e-07
8.37788e-07
8.34979e-07
8.29352e-07
8.21476e-07
8.10672e-07
7.94205e-07
7.72972e-07
7.485e-07
7.1867e-07
6.89469e-07
6.66828e-07
6.34837e-07
5.89319e-07
5.59092e-07
5.1677e-07
4.4605e-07
0.999996
0.999996
0.999995
0.999995
0.999995
0.999994
0.999992
0.999991
0.999991
0.99999
0.99999
0.99999
0.99999
0.99999
0.99999
0.99999
0.99999
0.99999
0.99999
0.99999
0.99999
0.99999
0.99999
0.99999
0.99999
0.99999
0.99999
0.99999
0.99999
0.99999
0.99999
0.99999
0.99999
0.99999
0.99999
0.99999
0.99999
0.99999
0.99999
0.99999
0.99999
0.99999
0.99999
0.99999
0.99999
0.999989
0.999987
0.999982
0.999972
0.99996
0.999946
0.999935
0.999929
0.999921
0.999917
0.99991
0.999908
0.999876
0.999656
0.971588
0.0619055
0.000345634
1.29588e-06
9.40141e-07
9.31128e-07
9.29888e-07
9.30155e-07
9.22507e-07
9.18363e-07
9.12138e-07
9.07041e-07
8.98286e-07
8.91412e-07
8.83175e-07
8.75185e-07
8.67414e-07
8.60734e-07
8.56292e-07
8.51138e-07
8.45568e-07
8.39119e-07
8.3528e-07
8.30948e-07
8.24298e-07
8.15555e-07
8.02139e-07
7.80597e-07
7.5372e-07
7.18814e-07
6.78582e-07
6.42824e-07
6.17044e-07
5.84903e-07
5.59458e-07
5.16637e-07
4.42609e-07
0.999997
0.999996
0.999996
0.999995
0.999995
0.999995
0.999994
0.999992
0.999991
0.99999
0.99999
0.99999
0.99999
0.99999
0.99999
0.99999
0.99999
0.99999
0.99999
0.99999
0.99999
0.99999
0.99999
0.99999
0.99999
0.99999
0.99999
0.99999
0.99999
0.99999
0.99999
0.99999
0.99999
0.99999
0.99999
0.99999
0.99999
0.99999
0.99999
0.99999
0.99999
0.99999
0.99999
0.99999
0.99999
0.999989
0.999987
0.999982
0.999974
0.999961
0.999947
0.999935
0.999929
0.999922
0.999918
0.99991
0.999903
0.999873
0.999627
0.965024
0.0595587
0.000298968
1.17897e-06
9.32511e-07
9.23666e-07
9.15312e-07
9.1214e-07
9.05706e-07
9.02441e-07
8.94625e-07
8.91512e-07
8.85601e-07
8.80017e-07
8.73988e-07
8.67552e-07
8.60348e-07
8.53453e-07
8.49983e-07
8.46538e-07
8.42599e-07
8.37664e-07
8.32047e-07
8.27013e-07
8.21673e-07
8.15606e-07
8.0696e-07
7.91208e-07
7.65499e-07
7.28733e-07
6.82278e-07
6.38571e-07
6.04521e-07
5.76416e-07
5.44973e-07
4.9663e-07
4.36526e-07
0.999998
0.999997
0.999996
0.999996
0.999996
0.999995
0.999995
0.999993
0.999991
0.99999
0.99999
0.99999
0.99999
0.99999
0.99999
0.99999
0.99999
0.99999
0.99999
0.99999
0.99999
0.99999
0.99999
0.99999
0.99999
0.99999
0.99999
0.99999
0.99999
0.99999
0.99999
0.99999
0.99999
0.99999
0.99999
0.99999
0.99999
0.99999
0.99999
0.99999
0.99999
0.99999
0.99999
0.99999
0.99999
0.999989
0.999987
0.999982
0.999974
0.999961
0.999947
0.999935
0.999929
0.999924
0.99992
0.999909
0.999906
0.99988
0.99934
0.956464
0.063161
0.000547179
1.83375e-06
9.30586e-07
9.2548e-07
9.15478e-07
9.09753e-07
9.01474e-07
8.99477e-07
8.92603e-07
8.8852e-07
8.82713e-07
8.7743e-07
8.72409e-07
8.67329e-07
8.62068e-07
8.56726e-07
8.51701e-07
8.47041e-07
8.43455e-07
8.38422e-07
8.31357e-07
8.26079e-07
8.21471e-07
8.16109e-07
8.10767e-07
8.008e-07
7.80304e-07
7.47372e-07
7.03508e-07
6.46192e-07
5.93376e-07
5.55569e-07
5.09057e-07
4.69492e-07
4.25008e-07
0.999993
0.999992
0.999992
0.999991
0.999991
0.999991
0.999991
0.99999
0.99999
0.99999
0.99999
0.99999
0.99999
0.99999
0.99999
0.99999
0.99999
0.99999
0.99999
0.99999
0.99999
0.99999
0.99999
0.99999
0.99999
0.99999
0.99999
0.99999
0.99999
0.99999
0.99999
0.99999
0.99999
0.99999
0.99999
0.99999
0.99999
0.99999
0.99999
0.99999
0.99999
0.99999
0.99999
0.99999
0.99999
0.999989
0.999987
0.999982
0.999973
0.999957
0.999944
0.999933
0.999927
0.999921
0.999918
0.999913
0.999911
0.999886
0.99921
0.946546
0.0343947
0.000123692
9.0353e-07
8.65028e-07
8.59466e-07
8.4852e-07
8.47908e-07
8.40082e-07
8.39732e-07
8.34505e-07
8.33757e-07
8.29055e-07
8.26097e-07
8.21352e-07
8.17241e-07
8.12431e-07
8.07999e-07
8.04211e-07
7.99564e-07
7.92062e-07
7.83689e-07
7.74984e-07
7.65794e-07
7.53829e-07
7.41598e-07
7.3026e-07
7.18971e-07
7.06434e-07
6.89475e-07
6.63736e-07
6.31541e-07
5.96296e-07
5.54504e-07
5.15488e-07
4.83315e-07
4.47778e-07
0.999993
0.999992
0.999992
0.999991
0.999991
0.999991
0.999991
0.999991
0.99999
0.99999
0.99999
0.99999
0.99999
0.99999
0.99999
0.99999
0.99999
0.99999
0.99999
0.99999
0.99999
0.99999
0.99999
0.99999
0.99999
0.99999
0.99999
0.99999
0.99999
0.99999
0.99999
0.99999
0.99999
0.99999
0.99999
0.99999
0.99999
0.99999
0.99999
0.99999
0.99999
0.99999
0.99999
0.99999
0.99999
0.999989
0.999987
0.999982
0.999974
0.999962
0.999948
0.999933
0.999923
0.999916
0.999913
0.999908
0.999905
0.999878
0.999585
0.918451
0.0152622
1.27149e-05
8.79081e-07
9.4118e-07
9.14255e-07
9.0704e-07
9.03286e-07
8.89771e-07
8.86653e-07
8.76203e-07
8.71102e-07
8.57844e-07
8.50251e-07
8.42469e-07
8.3651e-07
8.29682e-07
8.24451e-07
8.19301e-07
8.1204e-07
8.03031e-07
7.9123e-07
7.79436e-07
7.6403e-07
7.46708e-07
7.29353e-07
7.13074e-07
6.99504e-07
6.89439e-07
6.7891e-07
6.63437e-07
6.42994e-07
6.12506e-07
5.7182e-07
5.3829e-07
5.12464e-07
4.69029e-07
0.999993
0.999993
0.999992
0.999992
0.999991
0.999991
0.999991
0.999991
0.999991
0.99999
0.99999
0.99999
0.99999
0.99999
0.99999
0.99999
0.99999
0.99999
0.99999
0.99999
0.99999
0.99999
0.99999
0.99999
0.99999
0.99999
0.99999
0.99999
0.99999
0.99999
0.99999
0.99999
0.99999
0.99999
0.99999
0.99999
0.99999
0.99999
0.99999
0.99999
0.99999
0.99999
0.99999
0.99999
0.99999
0.999989
0.999987
0.999982
0.999975
0.999965
0.999946
0.999927
0.999914
0.999906
0.999904
0.999902
0.999902
0.999871
0.999716
0.890917
0.013424
5.73316e-06
5.195e-06
4.68946e-06
4.49597e-06
3.68063e-06
2.97151e-06
2.17557e-06
1.64194e-06
1.26568e-06
1.07423e-06
9.63361e-07
9.12123e-07
8.92142e-07
8.83276e-07
8.69787e-07
8.60263e-07
8.52638e-07
8.45673e-07
8.35902e-07
8.23303e-07
8.08585e-07
7.88902e-07
7.63308e-07
7.40113e-07
7.22057e-07
7.07333e-07
6.94647e-07
6.82339e-07
6.68259e-07
6.53292e-07
6.27268e-07
5.87591e-07
5.55048e-07
5.31231e-07
4.88232e-07
0.999994
0.999993
0.999992
0.999992
0.999992
0.999992
0.999991
0.999991
0.999991
0.999991
0.99999
0.99999
0.99999
0.99999
0.99999
0.99999
0.99999
0.99999
0.99999
0.99999
0.99999
0.99999
0.99999
0.99999
0.99999
0.99999
0.99999
0.99999
0.99999
0.99999
0.99999
0.99999
0.99999
0.99999
0.99999
0.99999
0.99999
0.99999
0.99999
0.99999
0.99999
0.99999
0.99999
0.99999
0.99999
0.999989
0.999987
0.999982
0.999976
0.999965
0.999939
0.999915
0.999901
0.999896
0.999894
0.999886
0.999876
0.999848
0.999771
0.831798
0.00676568
0.000230074
0.000204996
0.000173334
0.000160397
0.000132974
0.000105445
7.801e-05
5.48836e-05
3.65537e-05
2.37817e-05
1.53224e-05
1.02607e-05
7.41938e-06
6.00991e-06
5.29007e-06
4.92949e-06
4.72401e-06
4.55012e-06
4.34304e-06
4.14101e-06
3.94416e-06
3.72467e-06
3.45117e-06
3.16302e-06
2.8387e-06
2.46702e-06
2.09018e-06
1.53926e-06
1.09336e-06
8.33746e-07
7.14048e-07
6.63029e-07
6.25586e-07
5.7656e-07
5.15016e-07
0.999994
0.999994
0.999993
0.999992
0.999992
0.999992
0.999991
0.999991
0.999991
0.999991
0.99999
0.99999
0.99999
0.99999
0.99999
0.99999
0.99999
0.99999
0.99999
0.99999
0.99999
0.99999
0.99999
0.99999
0.99999
0.99999
0.99999
0.99999
0.99999
0.99999
0.99999
0.99999
0.99999
0.99999
0.99999
0.99999
0.99999
0.99999
0.99999
0.99999
0.99999
0.99999
0.99999
0.99999
0.99999
0.999989
0.999987
0.999983
0.999974
0.999958
0.999927
0.999905
0.999892
0.999884
0.999877
0.999864
0.999852
0.999838
0.999836
0.748941
0.0099618
0.00325311
0.00308423
0.00278934
0.0025999
0.00230804
0.00201548
0.00171436
0.00142509
0.00115744
0.000930359
0.000744448
0.000601175
0.000497421
0.000423752
0.000375857
0.000347657
0.000332583
0.000327192
0.000326888
0.000329238
0.000326469
0.000319454
0.000310092
0.000295483
0.000277493
0.000255141
0.000215674
0.000163349
0.000108499
6.17284e-05
2.92725e-05
1.18138e-05
4.34925e-06
1.62273e-06
8.34605e-07
0.999994
0.999994
0.999993
0.999993
0.999992
0.999992
0.999992
0.999991
0.999991
0.999991
0.99999
0.99999
0.99999
0.99999
0.99999
0.99999
0.99999
0.99999
0.99999
0.99999
0.99999
0.99999
0.99999
0.99999
0.99999
0.99999
0.99999
0.99999
0.99999
0.99999
0.99999
0.99999
0.99999
0.99999
0.99999
0.99999
0.99999
0.99999
0.99999
0.99999
0.99999
0.99999
0.99999
0.99999
0.99999
0.999989
0.999986
0.999982
0.999974
0.999954
0.999918
0.999899
0.999886
0.999875
0.999864
0.999856
0.999854
0.999851
0.999817
0.623237
0.019816
0.0138678
0.0142026
0.0140691
0.0138887
0.0135369
0.0131171
0.0126232
0.012008
0.0113268
0.0105818
0.00981661
0.00905954
0.00833959
0.0076752
0.00710328
0.00662032
0.00622475
0.00591116
0.00565703
0.00541852
0.00518034
0.00490752
0.00467367
0.00443135
0.00414839
0.00385511
0.00352349
0.00313483
0.00266374
0.00214949
0.00159798
0.00106219
0.000602907
0.000265895
9.6627e-05
0.999995
0.999994
0.999994
0.999993
0.999992
0.999992
0.999992
0.999991
0.999991
0.999991
0.99999
0.99999
0.99999
0.99999
0.99999
0.99999
0.99999
0.99999
0.99999
0.99999
0.99999
0.99999
0.99999
0.99999
0.99999
0.99999
0.99999
0.99999
0.99999
0.99999
0.99999
0.99999
0.99999
0.99999
0.99999
0.99999
0.99999
0.99999
0.99999
0.99999
0.99999
0.99999
0.99999
0.99999
0.99999
0.999989
0.999986
0.999981
0.999972
0.999949
0.999914
0.999894
0.999883
0.999876
0.99987
0.999866
0.999867
0.999861
0.999475
0.575044
0.0301822
0.024108
0.0252498
0.0258274
0.0262857
0.0267411
0.0271683
0.0275998
0.0279717
0.0283449
0.0286827
0.0289958
0.0292276
0.0293882
0.0294429
0.0294258
0.0293099
0.0291203
0.0288223
0.0283987
0.0277995
0.0270242
0.0261496
0.0252156
0.0241759
0.0231212
0.0220224
0.0209756
0.0200844
0.0192713
0.0183601
0.0172081
0.0157478
0.0138599
0.0115937
0.00944025
0.999995
0.999995
0.999994
0.999994
0.999993
0.999992
0.999992
0.999991
0.999991
0.999991
0.99999
0.99999
0.99999
0.99999
0.99999
0.99999
0.99999
0.99999
0.99999
0.99999
0.99999
0.99999
0.99999
0.99999
0.99999
0.99999
0.99999
0.99999
0.99999
0.99999
0.99999
0.99999
0.99999
0.99999
0.99999
0.99999
0.99999
0.99999
0.99999
0.99999
0.99999
0.99999
0.99999
0.99999
0.99999
0.999989
0.999986
0.99998
0.999966
0.999943
0.999915
0.999896
0.999888
0.999886
0.999885
0.999885
0.999887
0.999884
0.999091
0.699307
0.0316045
0.0197965
0.0206173
0.020852
0.0212627
0.0219742
0.0229231
0.0240676
0.0253492
0.0267407
0.0282132
0.0298065
0.0314923
0.033227
0.0350419
0.0369431
0.0389798
0.04119
0.0435543
0.0460642
0.0487124
0.0515729
0.054765
0.0582796
0.062137
0.0663131
0.0707772
0.0756691
0.081172
0.0874535
0.0949757
0.104282
0.116916
0.137598
0.185926
0.381214
0.999995
0.999995
0.999995
0.999994
0.999994
0.999993
0.999992
0.999991
0.999991
0.999991
0.99999
0.99999
0.99999
0.99999
0.99999
0.99999
0.99999
0.99999
0.99999
0.99999
0.99999
0.99999
0.99999
0.99999
0.99999
0.99999
0.99999
0.99999
0.99999
0.99999
0.99999
0.99999
0.99999
0.99999
0.99999
0.99999
0.99999
0.99999
0.99999
0.99999
0.99999
0.99999
0.99999
0.99999
0.99999
0.999988
0.999985
0.999979
0.999968
0.999947
0.999923
0.999907
0.999896
0.999891
0.999889
0.999887
0.999888
0.999884
0.999822
0.834159
0.0212732
0.00563553
0.0051726
0.00421567
0.00380203
0.00344537
0.00327593
0.00320039
0.00321041
0.00326024
0.00336087
0.00345151
0.00356018
0.00369786
0.00389542
0.00414302
0.00444753
0.00478304
0.00515384
0.00559622
0.00613806
0.00676629
0.0073969
0.00801085
0.00856991
0.00909647
0.00958359
0.0100431
0.0105213
0.0110978
0.0117748
0.012623
0.013581
0.0143851
0.0147018
0.013431
0.999995
0.999995
0.999995
0.999995
0.999994
0.999993
0.999992
0.999991
0.999991
0.999991
0.99999
0.99999
0.99999
0.99999
0.99999
0.99999
0.99999
0.99999
0.99999
0.99999
0.99999
0.99999
0.99999
0.99999
0.99999
0.99999
0.99999
0.99999
0.99999
0.99999
0.99999
0.99999
0.99999
0.99999
0.99999
0.99999
0.99999
0.99999
0.99999
0.99999
0.99999
0.99999
0.99999
0.99999
0.99999
0.999988
0.999985
0.99998
0.999971
0.999955
0.999934
0.999917
0.999906
0.999897
0.999892
0.99989
0.999891
0.999881
0.999893
0.893808
0.0124772
0.00071753
0.000582226
0.000388669
0.000326053
0.00027138
0.00025652
0.000251716
0.000255251
0.000260391
0.000269692
0.000279487
0.000289765
0.000299486
0.00030823
0.000316648
0.000326171
0.000335328
0.000348108
0.000370287
0.000407673
0.000471685
0.000556143
0.000657527
0.000757563
0.000842302
0.000925205
0.00101714
0.00114112
0.00128501
0.00143304
0.00153376
0.00152904
0.00123015
0.000764716
0.000337972
0.999996
0.999995
0.999995
0.999995
0.999994
0.999993
0.999992
0.999991
0.999991
0.999991
0.99999
0.99999
0.99999
0.99999
0.99999
0.99999
0.99999
0.99999
0.99999
0.99999
0.99999
0.99999
0.99999
0.99999
0.99999
0.99999
0.99999
0.99999
0.99999
0.99999
0.99999
0.99999
0.99999
0.99999
0.99999
0.99999
0.99999
0.99999
0.99999
0.99999
0.99999
0.99999
0.99999
0.99999
0.99999
0.999989
0.999986
0.999981
0.999972
0.99996
0.999944
0.999927
0.999917
0.999908
0.999903
0.999898
0.999896
0.999876
0.999878
0.932564
0.0154885
3.69278e-05
3.34934e-05
1.87259e-05
1.61774e-05
1.36098e-05
1.30675e-05
1.25666e-05
1.23854e-05
1.21188e-05
1.20687e-05
1.22057e-05
1.24343e-05
1.25464e-05
1.27312e-05
1.28043e-05
1.24063e-05
1.17844e-05
1.17943e-05
1.25283e-05
1.42362e-05
1.75381e-05
2.17638e-05
2.65524e-05
3.00305e-05
3.04317e-05
2.90611e-05
2.72155e-05
2.58035e-05
2.4903e-05
2.49853e-05
2.41229e-05
1.93111e-05
1.18838e-05
5.67306e-06
2.52837e-06
0.999996
0.999995
0.999995
0.999995
0.999995
0.999994
0.999992
0.999991
0.999991
0.999991
0.99999
0.99999
0.99999
0.99999
0.99999
0.99999
0.99999
0.99999
0.99999
0.99999
0.99999
0.99999
0.99999
0.99999
0.99999
0.99999
0.99999
0.99999
0.99999
0.99999
0.99999
0.99999
0.99999
0.99999
0.99999
0.99999
0.99999
0.99999
0.99999
0.99999
0.99999
0.99999
0.99999
0.99999
0.99999
0.999989
0.999987
0.999982
0.999973
0.999962
0.999948
0.999934
0.999925
0.999915
0.999912
0.999906
0.999898
0.99987
0.999828
0.956269
0.0232841
1.33779e-06
2.14865e-06
1.14579e-06
1.21522e-06
1.1099e-06
1.11394e-06
1.07956e-06
1.06889e-06
1.0511e-06
1.04188e-06
1.03464e-06
1.02468e-06
1.01024e-06
9.95759e-07
9.81979e-07
9.542e-07
9.37023e-07
9.35346e-07
9.37017e-07
9.49008e-07
9.65304e-07
9.85871e-07
9.99238e-07
9.85797e-07
9.32464e-07
8.638e-07
8.0927e-07
7.7715e-07
7.4092e-07
7.04451e-07
6.71336e-07
6.35904e-07
5.96358e-07
5.48999e-07
4.77632e-07
0.999996
0.999996
0.999996
0.999995
0.999995
0.999994
0.999993
0.999991
0.999991
0.999991
0.99999
0.99999
0.99999
0.99999
0.99999
0.99999
0.99999
0.99999
0.99999
0.99999
0.99999
0.99999
0.99999
0.99999
0.99999
0.99999
0.99999
0.99999
0.99999
0.99999
0.99999
0.99999
0.99999
0.99999
0.99999
0.99999
0.99999
0.99999
0.99999
0.99999
0.99999
0.99999
0.99999
0.99999
0.99999
0.999989
0.999987
0.999983
0.999974
0.999963
0.999949
0.999936
0.999927
0.999917
0.999911
0.999902
0.999889
0.999861
0.999752
0.962192
0.033317
1.35737e-05
1.00247e-06
9.6712e-07
9.76392e-07
9.71891e-07
9.61995e-07
9.50097e-07
9.41947e-07
9.27913e-07
9.19431e-07
9.0963e-07
9.02729e-07
8.93953e-07
8.85042e-07
8.76985e-07
8.70659e-07
8.62088e-07
8.53709e-07
8.47263e-07
8.41218e-07
8.35644e-07
8.31185e-07
8.2439e-07
8.14561e-07
7.98805e-07
7.77018e-07
7.50554e-07
7.22502e-07
6.90916e-07
6.57136e-07
6.31242e-07
5.97776e-07
5.66888e-07
5.17093e-07
4.3847e-07
0.999997
0.999996
0.999996
0.999996
0.999995
0.999995
0.999994
0.999992
0.999991
0.999991
0.99999
0.99999
0.99999
0.99999
0.99999
0.99999
0.99999
0.99999
0.99999
0.99999
0.99999
0.99999
0.99999
0.99999
0.99999
0.99999
0.99999
0.99999
0.99999
0.99999
0.99999
0.99999
0.99999
0.99999
0.99999
0.99999
0.99999
0.99999
0.99999
0.99999
0.99999
0.99999
0.99999
0.99999
0.99999
0.999989
0.999987
0.999983
0.999974
0.999962
0.999948
0.999936
0.999927
0.999915
0.999904
0.999893
0.999877
0.999835
0.99965
0.955752
0.0372929
2.9859e-05
9.79998e-07
9.54295e-07
9.34657e-07
9.30158e-07
9.31567e-07
9.23347e-07
9.19366e-07
9.10084e-07
9.04397e-07
8.96059e-07
8.91026e-07
8.8299e-07
8.74806e-07
8.66886e-07
8.60409e-07
8.54236e-07
8.48226e-07
8.43337e-07
8.38406e-07
8.3411e-07
8.31033e-07
8.24987e-07
8.15541e-07
8.00671e-07
7.79034e-07
7.5338e-07
7.23337e-07
6.82417e-07
6.41851e-07
6.12172e-07
5.90539e-07
5.68506e-07
5.26832e-07
4.41144e-07
0.999997
0.999996
0.999996
0.999996
0.999996
0.999995
0.999995
0.999993
0.999991
0.999991
0.99999
0.99999
0.99999
0.99999
0.99999
0.99999
0.99999
0.99999
0.99999
0.99999
0.99999
0.99999
0.99999
0.99999
0.99999
0.99999
0.99999
0.99999
0.99999
0.99999
0.99999
0.99999
0.99999
0.99999
0.99999
0.99999
0.99999
0.99999
0.99999
0.99999
0.99999
0.99999
0.99999
0.99999
0.99999
0.999989
0.999987
0.999983
0.999974
0.999962
0.999948
0.999937
0.999925
0.999913
0.999899
0.999881
0.999863
0.999824
0.999637
0.935549
0.033451
6.20785e-05
1.00174e-06
9.34629e-07
9.22523e-07
9.10119e-07
9.08931e-07
9.01384e-07
8.99097e-07
8.92129e-07
8.88703e-07
8.81532e-07
8.76486e-07
8.69786e-07
8.64444e-07
8.58407e-07
8.52733e-07
8.48409e-07
8.43878e-07
8.39917e-07
8.35979e-07
8.32262e-07
8.29239e-07
8.24055e-07
8.15976e-07
8.04231e-07
7.85588e-07
7.59107e-07
7.23957e-07
6.78284e-07
6.31029e-07
5.94274e-07
5.75986e-07
5.51643e-07
5.06888e-07
4.35202e-07
0.999998
0.999997
0.999997
0.999996
0.999996
0.999996
0.999995
0.999993
0.999991
0.999991
0.99999
0.99999
0.99999
0.99999
0.99999
0.99999
0.99999
0.99999
0.99999
0.99999
0.99999
0.99999
0.99999
0.99999
0.99999
0.99999
0.99999
0.99999
0.99999
0.99999
0.99999
0.99999
0.99999
0.99999
0.99999
0.99999
0.99999
0.99999
0.99999
0.99999
0.99999
0.99999
0.99999
0.99999
0.99999
0.999989
0.999987
0.999982
0.999974
0.999961
0.999947
0.999936
0.999929
0.999921
0.999909
0.999892
0.999879
0.999826
0.999454
0.954076
0.0529164
0.000366722
1.47373e-06
9.28705e-07
9.21847e-07
9.08736e-07
9.06346e-07
8.97893e-07
8.94979e-07
8.87424e-07
8.8362e-07
8.7705e-07
8.72963e-07
8.67416e-07
8.62906e-07
8.58224e-07
8.54258e-07
8.49819e-07
8.45325e-07
8.42183e-07