/*--------------------------------*- C++ -*----------------------------------*\
| =========                 |                                                 |
| \\      /  F ield         | OpenFOAM: The Open Source CFD Toolbox           |
|  \\    /   O peration     | Version:  2.3.0                                 |
|   \\  /    A nd           | Web:      www.OpenFOAM.org                      |
|    \\/     M anipulation  |                                                 |
\*---------------------------------------------------------------------------*/
FoamFile
{
    version     2.0;
    format      ascii;
    class       volScalarField;
    location    "31";
    object      dsauterMean;
}
// * * * * * * * * * * * * * * * * * * * * * * * * * * * * * * * * * * * * * //

dimensions      [0 0 0 0 0 0 0];

internalField   nonuniform List<scalar> 
6144
(
0.00833335
0.00833335
0.00833335
0.00833335
0.00833335
0.00833335
0.00833335
0.00833335
0.00833335
0.00833335
0.00833335
0.00833335
0.00833335
0.00833335
0.00833335
0.00833335
0.00833335
0.00833335
0.00833335
0.00833335
0.00833335
0.00833335
0.00833335
0.00833335
0.00833335
0.00833335
0.00833335
0.00833335
0.00833335
0.00833335
0.00833335
0.00833335
0.00833335
0.00833335
0.00833335
0.00833335
0.00833335
0.00833335
0.00833335
0.00833335
0.00833335
0.00833335
0.00833335
0.00833335
0.00833335
0.00833335
0.00833335
0.00833335
0.00833335
0.00833335
0.00833335
0.00833335
0.00833335
0.00833335
0.00833335
0.00833335
0.00833335
0.00833327
0.0083236
0.00834587
0.00833556
0.0083331
0.00281427
0.000312558
0.000305831
0.000300523
0.00029521
0.000287245
0.000281929
0.000275298
0.00026998
0.000263339
0.000258028
0.000252715
0.000247405
0.000240762
0.000235454
0.000230138
0.000224828
0.000219586
0.000213815
0.000209767
0.000202597
0.000199999
0.000193925
0.0001903
0.000184926
0.000181135
0.000176941
0.000174366
0.000171709
0.000169054
0.000167727
0.000166397
0.000167717
0.00016642
0.00833335
0.00833335
0.00833335
0.00833335
0.00833335
0.00833335
0.00833335
0.00833335
0.00833335
0.00833335
0.00833335
0.00833335
0.00833335
0.00833335
0.00833335
0.00833335
0.00833335
0.00833335
0.00833335
0.00833335
0.00833335
0.00833335
0.00833335
0.00833335
0.00833335
0.00833335
0.00833335
0.00833335
0.00833335
0.00833335
0.00833335
0.00833335
0.00833335
0.00833335
0.00833335
0.00833335
0.00833335
0.00833335
0.00833335
0.00833335
0.00833335
0.00833335
0.00833335
0.00833335
0.00833335
0.00833335
0.00833335
0.00833335
0.00833335
0.00833335
0.00833335
0.00833335
0.00833335
0.00833335
0.00833335
0.00833335
0.00833335
0.0083331
0.00832337
0.00834517
0.0083798
0.0083302
0.000382855
0.000313809
0.000307069
0.000301607
0.000295177
0.00028857
0.000283288
0.000276965
0.000271408
0.000264483
0.000259316
0.000252689
0.000246493
0.000240597
0.000235664
0.000230776
0.000224259
0.000219459
0.000214535
0.00020879
0.000203964
0.000199613
0.000194306
0.000190402
0.000186317
0.000182334
0.000178352
0.000174366
0.000171711
0.000170382
0.0001674
0.000167851
0.000167739
0.000167752
0.00833335
0.00833335
0.00833335
0.00833335
0.00833335
0.00833335
0.00833335
0.00833335
0.00833335
0.00833335
0.00833335
0.00833335
0.00833335
0.00833335
0.00833335
0.00833335
0.00833335
0.00833335
0.00833335
0.00833335
0.00833335
0.00833335
0.00833335
0.00833335
0.00833335
0.00833335
0.00833335
0.00833335
0.00833335
0.00833335
0.00833335
0.00833335
0.00833335
0.00833335
0.00833335
0.00833335
0.00833335
0.00833335
0.00833335
0.00833335
0.00833335
0.00833335
0.00833335
0.00833335
0.00833335
0.00833335
0.00833335
0.00833335
0.00833335
0.00833335
0.00833335
0.00833335
0.00833335
0.00833335
0.00833335
0.00833335
0.00833335
0.00833335
0.00833369
0.00835858
0.00767954
0.00600536
0.000421364
0.000314254
0.00030564
0.000300523
0.00029373
0.000287486
0.000281934
0.000273188
0.000269567
0.000262033
0.000258183
0.000251722
0.00024837
0.000241063
0.000235557
0.000230473
0.000223962
0.000220138
0.000214663
0.000208892
0.00020491
0.000199592
0.000194195
0.000190304
0.000186317
0.000182335
0.00017835
0.000174366
0.000171874
0.00017025
0.00016775
0.000167099
0.000169403
0.000167845
0.00833335
0.00833335
0.00833335
0.00833335
0.00833335
0.00833335
0.00833335
0.00833335
0.00833335
0.00833335
0.00833335
0.00833335
0.00833335
0.00833335
0.00833335
0.00833335
0.00833335
0.00833335
0.00833335
0.00833335
0.00833335
0.00833335
0.00833335
0.00833335
0.00833335
0.00833335
0.00833335
0.00833335
0.00833335
0.00833335
0.00833335
0.00833335
0.00833335
0.00833335
0.00833335
0.00833335
0.00833335
0.00833335
0.00833335
0.00833335
0.00833335
0.00833335
0.00833335
0.00833335
0.00833335
0.00833335
0.00833335
0.00833335
0.00833335
0.00833335
0.00833335
0.00833335
0.00833335
0.00833335
0.00833335
0.00833335
0.00833335
0.00833335
0.00833043
0.00833638
0.00834774
0.00393368
0.00111331
0.000592711
0.000478459
0.000360576
0.000362618
0.000347002
0.000341429
0.000328824
0.000321772
0.000317776
0.000304506
0.000284588
0.000262011
0.00024475
0.00023545
0.000230129
0.000224204
0.000219698
0.000214221
0.000208254
0.000203952
0.00019995
0.000193991
0.000190295
0.000186319
0.000182534
0.000177788
0.000174366
0.000171716
0.000169931
0.000168242
0.000167722
0.000167725
0.000169054
0.00833335
0.00833335
0.00833335
0.00833335
0.00833335
0.00833335
0.00833335
0.00833335
0.00833335
0.00833335
0.00833335
0.00833335
0.00833335
0.00833335
0.00833335
0.00833335
0.00833335
0.00833335
0.00833335
0.00833335
0.00833335
0.00833335
0.00833335
0.00833335
0.00833335
0.00833335
0.00833335
0.00833335
0.00833335
0.00833335
0.00833335
0.00833335
0.00833335
0.00833335
0.00833335
0.00833335
0.00833335
0.00833335
0.00833335
0.00833335
0.00833335
0.00833335
0.00833335
0.00833335
0.00833335
0.00833335
0.00833335
0.00833335
0.00833335
0.00833335
0.00833335
0.00833335
0.00833335
0.00833335
0.00833335
0.00833335
0.00833335
0.00833335
0.00833329
0.00835481
0.00738033
0.00832569
0.00829278
0.00822587
0.00779695
0.00590025
0.00589178
0.00550647
0.00555773
0.00557045
0.00562762
0.00562779
0.00557461
0.00550098
0.00535432
0.00500019
0.0045598
0.00401604
0.00345863
0.0026432
0.00194735
0.0014372
0.000961212
0.000429603
0.000218188
0.000189338
0.00018537
0.000181351
0.000177136
0.000174179
0.00017171
0.000169054
0.000166393
0.000166391
0.000167733
0.000167726
0.00833335
0.00833335
0.00833335
0.00833335
0.00833335
0.00833335
0.00833335
0.00833335
0.00833335
0.00833335
0.00833335
0.00833335
0.00833335
0.00833335
0.00833335
0.00833335
0.00833335
0.00833335
0.00833335
0.00833335
0.00833335
0.00833335
0.00833335
0.00833335
0.00833335
0.00833335
0.00833335
0.00833335
0.00833335
0.00833335
0.00833335
0.00833335
0.00833335
0.00833335
0.00833335
0.00833335
0.00833335
0.00833335
0.00833335
0.00833335
0.00833335
0.00833335
0.00833335
0.00833335
0.00833335
0.00833335
0.00833335
0.00833335
0.00833335
0.00833335
0.00833335
0.00833335
0.00833335
0.00833335
0.00833335
0.00833335
0.00833335
0.00833335
0.00833335
0.00834782
0.00728947
0.00772167
0.00787198
0.00832584
0.00816257
0.00827274
0.0083105
0.00816624
0.00825705
0.00799096
0.0083912
0.00800674
0.00826151
0.00826928
0.00832752
0.00818576
0.00828489
0.00825955
0.00799184
0.00820418
0.00802942
0.00790905
0.00772716
0.00724411
0.00650263
0.00544154
0.00484353
0.00376971
0.00199048
0.0011328
0.000628043
0.000256379
0.000167785
0.000165216
0.000165032
0.00016783
0.00833335
0.00833335
0.00833335
0.00833335
0.00833335
0.00833335
0.00833335
0.00833335
0.00833335
0.00833335
0.00833335
0.00833335
0.00833335
0.00833335
0.00833335
0.00833335
0.00833335
0.00833335
0.00833335
0.00833335
0.00833335
0.00833335
0.00833335
0.00833335
0.00833335
0.00833335
0.00833335
0.00833335
0.00833335
0.00833335
0.00833335
0.00833335
0.00833335
0.00833335
0.00833335
0.00833335
0.00833335
0.00833335
0.00833335
0.00833335
0.00833335
0.00833335
0.00833335
0.00833335
0.00833335
0.00833335
0.00833335
0.00833335
0.00833335
0.00833335
0.00833335
0.00833335
0.00833335
0.00833335
0.00833335
0.00833335
0.00833335
0.00833333
0.00833362
0.00833307
0.00833343
0.00922595
0.00600723
0.0083322
0.00817441
0.00798501
0.00829147
0.00723847
0.00803702
0.00771888
0.00802423
0.00787477
0.00826272
0.00777962
0.00821418
0.00785376
0.00887586
0.00718859
0.00816084
0.0083949
0.00784535
0.00847527
0.00828683
0.00828599
0.00822568
0.00790292
0.00804614
0.00798653
0.00749884
0.00652733
0.0058072
0.00547086
0.00560358
0.00441001
0.0036436
0.00568296
0.00833335
0.00833335
0.00833335
0.00833335
0.00833335
0.00833335
0.00833335
0.00833335
0.00833335
0.00833335
0.00833335
0.00833335
0.00833335
0.00833335
0.00833335
0.00833335
0.00833335
0.00833335
0.00833335
0.00833335
0.00833335
0.00833335
0.00833335
0.00833335
0.00833335
0.00833335
0.00833335
0.00833335
0.00833335
0.00833335
0.00833335
0.00833335
0.00833335
0.00833335
0.00833335
0.00833335
0.00833335
0.00833335
0.00833335
0.00833335
0.00833335
0.00833335
0.00833335
0.00833335
0.00833335
0.00833335
0.00833335
0.00833335
0.00833335
0.00833335
0.00833335
0.00833335
0.00833335
0.00833335
0.00833335
0.00833335
0.00833335
0.00833336
0.0083334
0.00833305
0.00831362
0.00838163
0.00832769
0.0082649
0.00832988
0.00817713
0.00795721
0.00879566
0.00807952
0.00842268
0.0081441
0.00830649
0.00832744
0.00832539
0.00831921
0.0083048
0.00807006
0.0084019
0.00831203
0.00830448
0.00831259
0.00832337
0.0083077
0.00829675
0.00830203
0.00826262
0.00830117
0.00820063
0.00801866
0.00831835
0.00794706
0.00767266
0.00796927
0.00742133
0.00782499
0.00819343
0.00833335
0.00833335
0.00833335
0.00833335
0.00833335
0.00833335
0.00833335
0.00833335
0.00833335
0.00833335
0.00833335
0.00833335
0.00833335
0.00833335
0.00833335
0.00833335
0.00833335
0.00833335
0.00833335
0.00833335
0.00833335
0.00833335
0.00833335
0.00833335
0.00833335
0.00833335
0.00833335
0.00833335
0.00833335
0.00833335
0.00833335
0.00833335
0.00833335
0.00833335
0.00833335
0.00833335
0.00833335
0.00833335
0.00833335
0.00833335
0.00833335
0.00833335
0.00833335
0.00833335
0.00833335
0.00833335
0.00833335
0.00833335
0.00833335
0.00833335
0.00833335
0.00833335
0.00833335
0.00833335
0.00833335
0.00833335
0.00833335
0.00833333
0.00833358
0.00833558
0.00799645
0.00780634
0.00771042
0.00756934
0.00827883
0.0071508
0.00764629
0.0081264
0.00805729
0.00793522
0.00775338
0.00841005
0.0076114
0.00848492
0.00779828
0.00821531
0.00828356
0.0083311
0.00810818
0.00799875
0.00813668
0.00804497
0.0079679
0.00823181
0.00804224
0.00851365
0.00809332
0.00842946
0.00802002
0.0083368
0.0082483
0.00819355
0.00827993
0.00830844
0.00684741
0.00727813
0.00833335
0.00833335
0.00833335
0.00833335
0.00833335
0.00833335
0.00833335
0.00833335
0.00833335
0.00833335
0.00833335
0.00833335
0.00833335
0.00833335
0.00833335
0.00833335
0.00833335
0.00833335
0.00833335
0.00833335
0.00833335
0.00833335
0.00833335
0.00833335
0.00833335
0.00833335
0.00833335
0.00833335
0.00833335
0.00833335
0.00833335
0.00833335
0.00833335
0.00833335
0.00833335
0.00833335
0.00833335
0.00833335
0.00833335
0.00833335
0.00833335
0.00833335
0.00833335
0.00833335
0.00833335
0.00833335
0.00833335
0.00833335
0.00833335
0.00833335
0.00833335
0.00833335
0.00833335
0.00833335
0.00833335
0.00833335
0.00833335
0.00833336
0.0083332
0.00833503
0.00818986
0.00830964
0.00723264
0.00823826
0.00813052
0.00767267
0.00752566
0.00748275
0.00726103
0.0073064
0.00714968
0.00714748
0.00675085
0.006847
0.00656852
0.00634227
0.00607088
0.00571335
0.00542083
0.0050577
0.00461285
0.00453546
0.00408221
0.00443146
0.00443608
0.00451188
0.00467964
0.00445535
0.00462554
0.00475995
0.00445252
0.00434101
0.00450289
0.00438697
0.00402223
0.00360477
0.00833335
0.00833335
0.00833335
0.00833335
0.00833335
0.00833335
0.00833335
0.00833335
0.00833335
0.00833335
0.00833335
0.00833335
0.00833335
0.00833335
0.00833335
0.00833335
0.00833335
0.00833335
0.00833335
0.00833335
0.00833335
0.00833335
0.00833335
0.00833335
0.00833335
0.00833335
0.00833335
0.00833335
0.00833335
0.00833335
0.00833335
0.00833335
0.00833335
0.00833335
0.00833335
0.00833335
0.00833335
0.00833335
0.00833335
0.00833335
0.00833335
0.00833335
0.00833335
0.00833335
0.00833335
0.00833335
0.00833335
0.00833335
0.00833335
0.00833335
0.00833335
0.00833335
0.00833335
0.00833335
0.00833335
0.00833335
0.00833335
0.0083339
0.00831465
0.00833718
0.00833343
0.00792257
0.00730695
0.0065044
0.00636433
0.00584311
0.00589346
0.00535993
0.00500265
0.00460093
0.00417783
0.00390273
0.00356732
0.00335656
0.00302815
0.0029414
0.00288581
0.00286527
0.00284692
0.00279548
0.00276012
0.00277696
0.00274903
0.0027078
0.0026739
0.00268515
0.00271047
0.00263237
0.0026269
0.00249244
0.00245594
0.0022699
0.00183082
0.00167561
0.0015162
0.00134828
0.00833335
0.00833335
0.00833335
0.00833335
0.00833335
0.00833335
0.00833335
0.00833335
0.00833335
0.00833335
0.00833335
0.00833335
0.00833335
0.00833335
0.00833335
0.00833335
0.00833335
0.00833335
0.00833335
0.00833335
0.00833335
0.00833335
0.00833335
0.00833335
0.00833335
0.00833335
0.00833335
0.00833335
0.00833335
0.00833335
0.00833335
0.00833335
0.00833335
0.00833335
0.00833335
0.00833335
0.00833335
0.00833335
0.00833335
0.00833335
0.00833335
0.00833335
0.00833335
0.00833335
0.00833335
0.00833335
0.00833335
0.00833335
0.00833335
0.00833335
0.00833335
0.00833335
0.00833335
0.00833335
0.00833335
0.00833335
0.00833335
0.00833334
0.00833379
0.00835118
0.00830215
0.00387185
0.00233861
0.00186215
0.00173968
0.00172553
0.00168068
0.00155493
0.00153827
0.00135279
0.00139147
0.00135645
0.0013056
0.00125372
0.00124074
0.00125519
0.00128309
0.00128343
0.00115805
0.0011822
0.00111613
0.00107978
0.00108352
0.00113035
0.00112102
0.00115636
0.00115656
0.00115943
0.0011859
0.00116672
0.00110714
0.00106092
0.000855492
0.000611378
0.000235457
0.000320441
0.00833335
0.00833335
0.00833335
0.00833335
0.00833335
0.00833335
0.00833335
0.00833335
0.00833335
0.00833335
0.00833335
0.00833335
0.00833335
0.00833335
0.00833335
0.00833335
0.00833335
0.00833335
0.00833335
0.00833335
0.00833335
0.00833335
0.00833335
0.00833335
0.00833335
0.00833335
0.00833335
0.00833335
0.00833335
0.00833335
0.00833335
0.00833335
0.00833335
0.00833335
0.00833335
0.00833335
0.00833335
0.00833335
0.00833335
0.00833335
0.00833335
0.00833335
0.00833335
0.00833335
0.00833335
0.00833335
0.00833335
0.00833335
0.00833335
0.00833335
0.00833335
0.00833335
0.00833335
0.00833335
0.00833335
0.00833335
0.00833335
0.00833335
0.00833335
0.00833512
0.00833469
0.0038166
0.00174856
0.00136887
0.00136602
0.00129971
0.00129207
0.00120214
0.0011566
0.00105435
0.000963749
0.000836674
0.000716889
0.000632557
0.000535565
0.000454578
0.000360314
0.000229156
0.000224956
0.000219516
0.000214195
0.000208872
0.000204955
0.00019911
0.000194462
0.00019069
0.000212879
0.000237302
0.000228832
0.000231478
0.000218229
0.000198269
0.00017171
0.000167726
0.000169054
0.000169054
0.00833335
0.00833335
0.00833335
0.00833335
0.00833335
0.00833335
0.00833335
0.00833335
0.00833335
0.00833335
0.00833335
0.00833335
0.00833335
0.00833335
0.00833335
0.00833335
0.00833335
0.00833335
0.00833335
0.00833335
0.00833335
0.00833335
0.00833335
0.00833335
0.00833335
0.00833335
0.00833335
0.00833335
0.00833335
0.00833335
0.00833335
0.00833335
0.00833335
0.00833335
0.00833335
0.00833335
0.00833335
0.00833335
0.00833335
0.00833335
0.00833335
0.00833335
0.00833335
0.00833335
0.00833335
0.00833335
0.00833335
0.00833335
0.00833335
0.00833335
0.00833335
0.00833335
0.00833335
0.00833335
0.00833335
0.00833335
0.00833335
0.00833335
0.00833335
0.00833012
0.00833337
0.00671007
0.00110448
0.000933897
0.000963152
0.000910469
0.000913713
0.000806445
0.000750702
0.000629151
0.000543581
0.000402777
0.000299229
0.000252715
0.00024697
0.000242005
0.000235047
0.000229439
0.000224136
0.000219516
0.000214202
0.000209056
0.000204155
0.000200604
0.000194262
0.000190267
0.000186277
0.000182333
0.00017835
0.000174347
0.000171646
0.000170229
0.000168023
0.000167726
0.000169054
0.000169054
0.00833335
0.00833335
0.00833335
0.00833335
0.00833335
0.00833335
0.00833335
0.00833335
0.00833335
0.00833335
0.00833335
0.00833335
0.00833335
0.00833335
0.00833335
0.00833335
0.00833335
0.00833335
0.00833335
0.00833335
0.00833335
0.00833335
0.00833335
0.00833335
0.00833335
0.00833335
0.00833335
0.00833335
0.00833335
0.00833335
0.00833335
0.00833335
0.00833335
0.00833335
0.00833335
0.00833335
0.00833335
0.00833335
0.00833335
0.00833335
0.00833335
0.00833335
0.00833335
0.00833335
0.00833335
0.00833335
0.00833335
0.00833335
0.00833335
0.00833335
0.00833335
0.00833335
0.00833335
0.00833335
0.00833335
0.00833335
0.00833335
0.00833335
0.00833282
0.00830225
0.00913674
0.00764357
0.000412057
0.000343004
0.000360404
0.000354854
0.000345656
0.000332393
0.000313798
0.000290718
0.000271622
0.000264667
0.000259288
0.000252716
0.000247404
0.000242092
0.000237053
0.00023148
0.00022333
0.000220438
0.000214195
0.000208491
0.00020518
0.000199621
0.000194401
0.000188527
0.000186999
0.000181768
0.000177994
0.000174475
0.000171338
0.000170815
0.00016766
0.000167726
0.000169055
0.000169054
0.00833335
0.00833335
0.00833335
0.00833335
0.00833335
0.00833335
0.00833335
0.00833335
0.00833335
0.00833335
0.00833335
0.00833335
0.00833335
0.00833335
0.00833335
0.00833335
0.00833335
0.00833335
0.00833335
0.00833335
0.00833335
0.00833335
0.00833335
0.00833335
0.00833335
0.00833335
0.00833335
0.00833335
0.00833335
0.00833335
0.00833335
0.00833335
0.00833335
0.00833335
0.00833335
0.00833335
0.00833335
0.00833335
0.00833335
0.00833335
0.00833335
0.00833335
0.00833335
0.00833335
0.00833335
0.00833335
0.00833335
0.00833335
0.00833335
0.00833335
0.00833335
0.00833335
0.00833335
0.00833335
0.00833335
0.00833335
0.00833335
0.00833334
0.00832894
0.00833802
0.00833753
0.00806236
0.00405647
0.000312651
0.000306981
0.000300519
0.000295435
0.000287018
0.000281979
0.000276618
0.000269997
0.000264679
0.000260122
0.000252529
0.000247765
0.000242282
0.000235309
0.000230139
0.000224828
0.000220032
0.000213789
0.000208892
0.000204864
0.00019939
0.000194287
0.000190305
0.000185725
0.000182956
0.000178388
0.000174366
0.00017171
0.000170443
0.000167732
0.000167725
0.000169029
0.000169077
0.00833335
0.00833335
0.00833335
0.00833335
0.00833335
0.00833335
0.00833335
0.00833335
0.00833335
0.00833335
0.00833335
0.00833335
0.00833335
0.00833335
0.00833335
0.00833335
0.00833335
0.00833335
0.00833335
0.00833335
0.00833335
0.00833335
0.00833335
0.00833335
0.00833335
0.00833335
0.00833335
0.00833335
0.00833335
0.00833335
0.00833335
0.00833335
0.00833335
0.00833335
0.00833335
0.00833335
0.00833335
0.00833335
0.00833335
0.00833335
0.00833335
0.00833335
0.00833335
0.00833335
0.00833335
0.00833335
0.00833335
0.00833335
0.00833335
0.00833335
0.00833335
0.00833335
0.00833335
0.00833335
0.00833335
0.00833335
0.00833335
0.00833295
0.00833361
0.00833183
0.00833315
0.00833338
0.00634008
0.00031247
0.000305836
0.000300935
0.000293032
0.000287891
0.000281835
0.000275277
0.000269857
0.000263363
0.000258029
0.000252714
0.000247813
0.000240865
0.000235452
0.000230151
0.000224827
0.000219516
0.000214065
0.000209094
0.000204909
0.000199951
0.000193637
0.000190862
0.000186317
0.00018235
0.000178594
0.000174265
0.00017159
0.000170437
0.000167726
0.000167726
0.000167726
0.000167726
0.00833335
0.00833335
0.00833335
0.00833335
0.00833335
0.00833335
0.00833335
0.00833335
0.00833335
0.00833335
0.00833335
0.00833335
0.00833335
0.00833335
0.00833335
0.00833335
0.00833335
0.00833335
0.00833335
0.00833335
0.00833335
0.00833335
0.00833335
0.00833335
0.00833335
0.00833335
0.00833335
0.00833335
0.00833335
0.00833335
0.00833335
0.00833335
0.00833335
0.00833335
0.00833335
0.00833335
0.00833335
0.00833335
0.00833335
0.00833335
0.00833335
0.00833335
0.00833335
0.00833335
0.00833335
0.00833335
0.00833335
0.00833335
0.00833335
0.00833335
0.00833335
0.00833335
0.00833335
0.00833335
0.00833335
0.00833335
0.00833335
0.00833334
0.00833344
0.00833347
0.00842129
0.00827425
0.000528604
0.000313805
0.000306434
0.000300458
0.0002946
0.000287409
0.000283165
0.000275317
0.000270161
0.000264667
0.000258027
0.000252715
0.000248011
0.000241524
0.00023678
0.00023014
0.000224805
0.000219527
0.000214204
0.000210224
0.00020491
0.000200081
0.00019489
0.000190301
0.000186317
0.000182333
0.00017835
0.000174366
0.00017171
0.000170382
0.000167995
0.000167939
0.000169187
0.000167705
0.00833335
0.00833335
0.00833335
0.00833335
0.00833335
0.00833335
0.00833335
0.00833335
0.00833335
0.00833335
0.00833335
0.00833335
0.00833335
0.00833335
0.00833335
0.00833335
0.00833335
0.00833335
0.00833335
0.00833335
0.00833335
0.00833335
0.00833335
0.00833335
0.00833335
0.00833335
0.00833335
0.00833335
0.00833335
0.00833335
0.00833335
0.00833335
0.00833335
0.00833335
0.00833335
0.00833335
0.00833335
0.00833335
0.00833335
0.00833335
0.00833335
0.00833335
0.00833335
0.00833335
0.00833335
0.00833335
0.00833335
0.00833335
0.00833335
0.00833335
0.00833335
0.00833335
0.00833335
0.00833335
0.00833335
0.00833335
0.00833335
0.00833335
0.00833822
0.0083281
0.00826514
0.00104574
0.00185244
0.000329743
0.000316362
0.000305834
0.000301848
0.00028857
0.000282882
0.00027655
0.000271762
0.000264668
0.000259355
0.000252632
0.00024833
0.000241026
0.000236779
0.00023208
0.000224287
0.000220075
0.000214884
0.000209807
0.000204149
0.000200036
0.000195771
0.000190168
0.000186317
0.00018233
0.000178451
0.000174014
0.00017162
0.000170378
0.000167551
0.000167891
0.000169053
0.000169054
0.00833335
0.00833335
0.00833335
0.00833335
0.00833335
0.00833335
0.00833335
0.00833335
0.00833335
0.00833335
0.00833335
0.00833335
0.00833335
0.00833335
0.00833335
0.00833335
0.00833335
0.00833335
0.00833335
0.00833335
0.00833335
0.00833335
0.00833335
0.00833335
0.00833335
0.00833335
0.00833335
0.00833335
0.00833335
0.00833335
0.00833335
0.00833335
0.00833335
0.00833335
0.00833335
0.00833335
0.00833335
0.00833335
0.00833335
0.00833335
0.00833335
0.00833335
0.00833335
0.00833335
0.00833335
0.00833335
0.00833335
0.00833335
0.00833335
0.00833335
0.00833335
0.00833335
0.00833335
0.00833335
0.00833335
0.00833335
0.00833335
0.00833335
0.00833334
0.00834764
0.0078003
0.00219789
0.00810716
0.00276862
0.00326188
0.00202459
0.00211958
0.00208687
0.00208653
0.00205833
0.00204015
0.00199114
0.0019066
0.00182298
0.00170311
0.00153057
0.00135497
0.00108735
0.000789436
0.000583909
0.000451866
0.000311058
0.000230137
0.000199733
0.000193329
0.000190829
0.000186305
0.000183193
0.000177638
0.000174043
0.000171876
0.000169253
0.000166427
0.00016773
0.000167698
0.000169083
0.00833335
0.00833335
0.00833335
0.00833335
0.00833335
0.00833335
0.00833335
0.00833335
0.00833335
0.00833335
0.00833335
0.00833335
0.00833335
0.00833335
0.00833335
0.00833335
0.00833335
0.00833335
0.00833335
0.00833335
0.00833335
0.00833335
0.00833335
0.00833335
0.00833335
0.00833335
0.00833335
0.00833335
0.00833335
0.00833335
0.00833335
0.00833335
0.00833335
0.00833335
0.00833335
0.00833335
0.00833335
0.00833335
0.00833335
0.00833335
0.00833335
0.00833335
0.00833335
0.00833335
0.00833335
0.00833335
0.00833335
0.00833335
0.00833335
0.00833335
0.00833335
0.00833335
0.00833335
0.00833335
0.00833335
0.00833335
0.00833335
0.00833335
0.00833334
0.00834103
0.00731864
0.00778954
0.00828674
0.00827841
0.00825575
0.00829302
0.00835471
0.00808703
0.00793588
0.00772601
0.00772456
0.0077009
0.00774926
0.00783409
0.00763536
0.00749329
0.00754363
0.00742639
0.0071398
0.00667808
0.00603215
0.00526263
0.00454435
0.00370649
0.00292593
0.00207406
0.00128588
0.000628627
0.000453264
0.000333746
0.000188983
0.000170384
0.000167701
0.000166412
0.000167732
0.000167726
0.00833335
0.00833335
0.00833335
0.00833335
0.00833335
0.00833335
0.00833335
0.00833335
0.00833335
0.00833335
0.00833335
0.00833335
0.00833335
0.00833335
0.00833335
0.00833335
0.00833335
0.00833335
0.00833335
0.00833335
0.00833335
0.00833335
0.00833335
0.00833335
0.00833335
0.00833335
0.00833335
0.00833335
0.00833335
0.00833335
0.00833335
0.00833335
0.00833335
0.00833335
0.00833335
0.00833335
0.00833335
0.00833335
0.00833335
0.00833335
0.00833335
0.00833335
0.00833335
0.00833335
0.00833335
0.00833335
0.00833335
0.00833335
0.00833335
0.00833335
0.00833335
0.00833335
0.00833335
0.00833335
0.00833335
0.00833335
0.00833335
0.00833335
0.00833338
0.00832009
0.00960131
0.00828608
0.00833095
0.00881343
0.00710732
0.00832849
0.00791794
0.00845277
0.00836457
0.00826459
0.00830309
0.00777762
0.0085913
0.00834853
0.00832423
0.00922389
0.00678269
0.00906522
0.00730409
0.00856582
0.00892934
0.008331
0.00783143
0.00848141
0.00726436
0.0083005
0.00738258
0.00714566
0.0060709
0.00479787
0.00349184
0.00205714
0.000614402
0.000164639
0.000167637
0.000167801
0.00833335
0.00833335
0.00833335
0.00833335
0.00833335
0.00833335
0.00833335
0.00833335
0.00833335
0.00833335
0.00833335
0.00833335
0.00833335
0.00833335
0.00833335
0.00833335
0.00833335
0.00833335
0.00833335
0.00833335
0.00833335
0.00833335
0.00833335
0.00833335
0.00833335
0.00833335
0.00833335
0.00833335
0.00833335
0.00833335
0.00833335
0.00833335
0.00833335
0.00833335
0.00833335
0.00833335
0.00833335
0.00833335
0.00833335
0.00833335
0.00833335
0.00833335
0.00833335
0.00833335
0.00833335
0.00833335
0.00833335
0.00833335
0.00833335
0.00833335
0.00833335
0.00833335
0.00833335
0.00833335
0.00833335
0.00833335
0.00833335
0.00833336
0.00833334
0.00829314
0.00922475
0.00826627
0.00831291
0.00831348
0.00832041
0.00832376
0.0083237
0.00824645
0.00809353
0.00856494
0.00815155
0.00829381
0.00820219
0.00806633
0.00854206
0.00833057
0.00831304
0.00830993
0.00835121
0.00824624
0.00826757
0.00832339
0.00816497
0.00776455
0.00866862
0.00833117
0.00832173
0.00831764
0.00824354
0.00717288
0.0082819
0.00829025
0.00833312
0.00842682
0.00832808
0.00824786
0.00833335
0.00833335
0.00833335
0.00833335
0.00833335
0.00833335
0.00833335
0.00833335
0.00833335
0.00833335
0.00833335
0.00833335
0.00833335
0.00833335
0.00833335
0.00833335
0.00833335
0.00833335
0.00833335
0.00833335
0.00833335
0.00833335
0.00833335
0.00833335
0.00833335
0.00833335
0.00833335
0.00833335
0.00833335
0.00833335
0.00833335
0.00833335
0.00833335
0.00833335
0.00833335
0.00833335
0.00833335
0.00833335
0.00833335
0.00833335
0.00833335
0.00833335
0.00833335
0.00833335
0.00833335
0.00833335
0.00833335
0.00833335
0.00833335
0.00833335
0.00833335
0.00833335
0.00833335
0.00833335
0.00833335
0.00833335
0.00833335
0.00833316
0.00833351
0.00829712
0.00874066
0.00834061
0.0080431
0.00835205
0.00814628
0.00832779
0.00829614
0.00819877
0.00822928
0.00823646
0.00837531
0.0082483
0.00833745
0.00832846
0.0083281
0.00833376
0.00833122
0.00833065
0.00833054
0.00833207
0.00828036
0.00828458
0.00832428
0.00828801
0.00833228
0.00833243
0.00831139
0.00831078
0.00841167
0.00830799
0.00834269
0.00835314
0.0083994
0.00820688
0.00835811
0.00833332
0.00833335
0.00833335
0.00833335
0.00833335
0.00833335
0.00833335
0.00833335
0.00833335
0.00833335
0.00833335
0.00833335
0.00833335
0.00833335
0.00833335
0.00833335
0.00833335
0.00833335
0.00833335
0.00833335
0.00833335
0.00833335
0.00833335
0.00833335
0.00833335
0.00833335
0.00833335
0.00833335
0.00833335
0.00833335
0.00833335
0.00833335
0.00833335
0.00833335
0.00833335
0.00833335
0.00833335
0.00833335
0.00833335
0.00833335
0.00833335
0.00833335
0.00833335
0.00833335
0.00833335
0.00833335
0.00833335
0.00833335
0.00833335
0.00833335
0.00833335
0.00833335
0.00833335
0.00833335
0.00833335
0.00833335
0.00833335
0.00833335
0.00833334
0.00833322
0.00832938
0.00751291
0.00900579
0.0080228
0.00811002
0.00825567
0.00832664
0.00832653
0.00828363
0.0083013
0.0083577
0.00834138
0.00821024
0.00828934
0.00834552
0.00828208
0.00833115
0.00803616
0.00817812
0.00810274
0.00828363
0.00829535
0.00834035
0.00826315
0.00832355
0.00827773
0.00797412
0.00844954
0.0083315
0.00821014
0.00833741
0.00828798
0.00836956
0.00833223
0.00833367
0.0083307
0.00833164
0.00833335
0.00833335
0.00833335
0.00833335
0.00833335
0.00833335
0.00833335
0.00833335
0.00833335
0.00833335
0.00833335
0.00833335
0.00833335
0.00833335
0.00833335
0.00833335
0.00833335
0.00833335
0.00833335
0.00833335
0.00833335
0.00833335
0.00833335
0.00833335
0.00833335
0.00833335
0.00833335
0.00833335
0.00833335
0.00833335
0.00833335
0.00833335
0.00833335
0.00833335
0.00833335
0.00833335
0.00833335
0.00833335
0.00833335
0.00833335
0.00833335
0.00833335
0.00833335
0.00833335
0.00833335
0.00833335
0.00833335
0.00833335
0.00833335
0.00833335
0.00833335
0.00833335
0.00833335
0.00833335
0.00833335
0.00833335
0.00833335
0.00833335
0.00833335
0.00833047
0.0086216
0.00829698
0.0083653
0.00835939
0.00827665
0.00818952
0.008399
0.00814376
0.00834577
0.00812815
0.00803188
0.00791409
0.00819509
0.00798017
0.00818114
0.00826758
0.00821518
0.00826111
0.00843416
0.00837293
0.0082889
0.00812098
0.00839676
0.00825806
0.00823214
0.00825881
0.00815443
0.00707251
0.00672306
0.00567757
0.00524005
0.00504737
0.00509768
0.00495653
0.00460057
0.00303932
0.00833335
0.00833335
0.00833335
0.00833335
0.00833335
0.00833335
0.00833335
0.00833335
0.00833335
0.00833335
0.00833335
0.00833335
0.00833335
0.00833335
0.00833335
0.00833335
0.00833335
0.00833335
0.00833335
0.00833335
0.00833335
0.00833335
0.00833335
0.00833335
0.00833335
0.00833335
0.00833335
0.00833335
0.00833335
0.00833335
0.00833335
0.00833335
0.00833335
0.00833335
0.00833335
0.00833335
0.00833335
0.00833335
0.00833335
0.00833335
0.00833335
0.00833335
0.00833335
0.00833335
0.00833335
0.00833335
0.00833335
0.00833335
0.00833335
0.00833335
0.00833335
0.00833335
0.00833335
0.00833335
0.00833335
0.00833335
0.00833335
0.00833334
0.00833298
0.00833326
0.00833217
0.00264411
0.0078626
0.00441151
0.00485527
0.00409874
0.00376905
0.00333743
0.00309127
0.00278647
0.00259993
0.00247121
0.0024684
0.00247241
0.00248143
0.00249966
0.00250177
0.00250895
0.0024901
0.00248521
0.00248344
0.00248628
0.00239694
0.00240895
0.00238571
0.00230149
0.00212113
0.00197266
0.00188516
0.00170598
0.00169952
0.00173814
0.00168849
0.00173514
0.00169816
0.00153588
0.00833335
0.00833335
0.00833335
0.00833335
0.00833335
0.00833335
0.00833335
0.00833335
0.00833335
0.00833335
0.00833335
0.00833335
0.00833335
0.00833335
0.00833335
0.00833335
0.00833335
0.00833335
0.00833335
0.00833335
0.00833335
0.00833335
0.00833335
0.00833335
0.00833335
0.00833335
0.00833335
0.00833335
0.00833335
0.00833335