/*--------------------------------*- C++ -*----------------------------------*\
| =========                 |                                                 |
| \\      /  F ield         | OpenFOAM: The Open Source CFD Toolbox           |
|  \\    /   O peration     | Version:  2.3.0                                 |
|   \\  /    A nd           | Web:      www.OpenFOAM.org                      |
|    \\/     M anipulation  |                                                 |
\*---------------------------------------------------------------------------*/
FoamFile
{
    version     2.0;
    format      ascii;
    class       surfaceScalarField;
    location    "31";
    object      phi.water;
}
// * * * * * * * * * * * * * * * * * * * * * * * * * * * * * * * * * * * * * //

dimensions      [0 3 -1 0 0 0 0];

internalField   nonuniform List<scalar> 
16448
(
-8.29193e-07
-2.54901e-06
4.46372e-07
1.12549e-06
-2.57684e-06
6.27427e-07
1.02778e-06
-1.01862e-06
1.12039e-06
9.1886e-07
-1.00172e-06
1.11362e-06
5.15732e-07
-5.91699e-07
9.99259e-07
2.75853e-07
-6.45602e-07
8.90465e-07
8.90844e-08
-5.05128e-07
6.98379e-07
1.22263e-08
-4.83168e-07
5.65713e-07
-9.98567e-08
-3.61846e-07
4.77038e-07
-2.67253e-07
-2.81745e-07
4.49672e-07
-4.20368e-07
-2.35349e-07
3.88712e-07
-4.83884e-07
-2.61281e-07
3.24884e-07
-4.60522e-07
-3.15048e-07
2.91906e-07
-3.50747e-07
-3.70336e-07
2.60705e-07
-2.22475e-07
-4.02116e-07
2.74088e-07
-8.85176e-08
-4.28721e-07
2.94956e-07
1.89137e-08
-4.39831e-07
3.32667e-07
1.01009e-07
-4.51959e-07
3.70104e-07
1.52529e-07
-4.61153e-07
4.09893e-07
1.79718e-07
-4.70216e-07
4.4327e-07
1.88781e-07
-4.76467e-07
4.67664e-07
1.86075e-07
-4.7827e-07
4.81221e-07
1.76398e-07
-4.76104e-07
4.86043e-07
1.63306e-07
-4.70662e-07
4.84006e-07
1.49421e-07
-4.6264e-07
4.76799e-07
1.36654e-07
-4.52738e-07
4.6577e-07
1.26007e-07
-4.41007e-07
4.51944e-07
1.18059e-07
-4.27743e-07
4.35972e-07
1.14965e-07
-4.15844e-07
4.19249e-07
1.19114e-07
-4.05783e-07
4.01931e-07
1.31462e-07
-3.95784e-07
3.83767e-07
1.50169e-07
-3.84341e-07
3.65948e-07
1.73063e-07
-3.70858e-07
3.48315e-07
2.01867e-07
-3.5712e-07
3.28647e-07
2.44479e-07
-3.4687e-07
3.04634e-07
3.10941e-07
-3.43272e-07
2.77162e-07
4.03989e-07
-3.46659e-07
2.54009e-07
5.14001e-07
-3.55392e-07
2.4575e-07
6.24935e-07
-3.66305e-07
2.55805e-07
7.16308e-07
-3.75382e-07
2.84427e-07
7.64169e-07
-3.76811e-07
3.29456e-07
7.43692e-07
-3.69363e-07
3.90335e-07
6.44431e-07
-3.53235e-07
4.52995e-07
5.652e-07
-3.80779e-07
4.62102e-07
6.81813e-07
-5.34224e-07
4.28622e-07
1.08076e-06
-8.51333e-07
4.77972e-07
1.69002e-06
-1.39726e-06
8.3403e-07
2.30219e-06
-2.112e-06
1.56549e-06
2.25757e-06
-1.94019e-06
2.08566e-06
2.37128e-06
-2.01415e-06
2.00691e-06
2.91959e-06
-3.11731e-06
2.66256e-06
5.42969e-06
-6.28098e-06
3.87186e-06
1.34367e-05
-1.38901e-05
5.88231e-06
1.97883e-05
-1.29275e-05
6.50467e-06
2.14111e-05
-7.35837e-06
5.79638e-06
2.34497e-05
-6.96193e-06
4.74763e-06
1.7883e-05
3.91121e-06
1.96533e-06
1.65512e-05
1.89013e-06
-1.21423e-06
6.61625e-06
1.87725e-05
2.64459e-06
3.11771e-05
-4.76867e-06
2.10664e-07
2.06831e-05
-2.49138e-05
6.63425e-06
2.39155e-05
-9.79294e-06
5.28212e-06
2.31296e-05
-3.87646e-06
4.66001e-06
2.39013e-05
-4.0618e-06
3.29018e-06
2.54584e-05
-2.75053e-06
1.19339e-06
2.70342e-05
-2.0538e-06
4.78012e-07
2.8534e-05
-2.10882e-06
6.08999e-07
2.92866e-05
-2.02237e-06
1.26978e-06
2.90637e-05
-1.915e-06
2.13784e-06
2.78496e-05
-1.66441e-06
2.87858e-06
2.62626e-05
-1.45035e-06
3.03734e-06
2.37026e-05
-2.38088e-07
2.79803e-06
2.03509e-05
8.79501e-07
2.47219e-06
1.58206e-05
2.34579e-06
2.18451e-06
9.06458e-06
3.65065e-06
3.10541e-06
1.98059e-06
3.70062e-06
3.38336e-06
-3.51903e-06
2.60646e-06
2.89316e-06
-6.7399e-06
9.12982e-07
2.3079e-06
-7.09372e-06
-1.37865e-06
1.73246e-06
-6.1832e-06
-2.72498e-06
1.81446e-06
-5.84544e-06
-2.77937e-06
2.44162e-06
-6.10984e-06
-2.29286e-06
2.55726e-06
-7.51042e-06
-8.76375e-07
2.27696e-06
-1.11102e-05
1.43641e-06
2.16337e-06
-1.53678e-05
1.65334e-06
2.60429e-06
-1.78274e-05
-1.04832e-06
3.50787e-06
-1.84413e-05
-1.91051e-06
2.52441e-06
-1.869e-05
-1.04012e-06
1.28887e-06
-1.90163e-05
2.67796e-08
2.99455e-07
-1.90679e-05
3.81869e-07
-3.30264e-07
-1.84908e-05
-1.45295e-07
-4.31779e-07
-1.76192e-05
-4.87866e-07
-3.83761e-07
-1.62723e-05
1.93309e-07
-1.54018e-06
-1.3417e-05
1.66999e-06
-4.52523e-06
-8.76845e-06
1.77826e-06
-6.42685e-06
-5.20985e-07
-8.24746e-06
-1.60203e-06
-3.63286e-06
-1.79964e-07
-1.49726e-07
-3.87322e-06
-1.45263e-07
3.64384e-08
-1.84838e-06
6.51103e-07
1.69322e-07
-1.67235e-06
5.42069e-07
1.7899e-07
-9.48863e-07
3.52294e-07
1.79491e-07
-8.42308e-07
2.01085e-07
1.36892e-07
-5.10541e-07
5.34299e-08
-9.16409e-12
-4.16432e-07
7.43932e-08
-2.2537e-07
-2.19646e-07
8.53523e-08
-4.68575e-07
-1.41467e-07
1.02792e-07
-6.3317e-07
-1.15404e-07
4.44551e-08
-6.84279e-07
-1.89998e-07
-2.05148e-08
-6.44911e-07
-2.84381e-07
-7.01645e-08
-5.27515e-07
-3.80796e-07
-1.07091e-07
-3.84301e-07
-4.38083e-07
-1.07314e-07
-2.3181e-07
-4.83952e-07
-9.73608e-08
-1.0226e-07
-4.99052e-07
-7.03682e-08
3.83474e-09
-5.13953e-07
-4.41711e-08
7.79641e-08
-5.19998e-07
-1.53493e-08
1.23031e-07
-5.23244e-07
7.89536e-09
1.47245e-07
-5.22204e-07
2.14783e-08
1.56009e-07
-5.16486e-07
2.94249e-08
1.54296e-07
-5.06625e-07
3.22084e-08
1.46279e-07
-4.93455e-07
3.07919e-08
1.35346e-07
-4.78032e-07
2.63007e-08
1.2407e-07
-4.60988e-07
1.95061e-08
1.14126e-07
-4.42305e-07
1.12053e-08
1.06625e-07
-4.22491e-07
2.20898e-09
1.05698e-07
-4.03397e-07
-1.15541e-08
1.1351e-07
-3.87407e-07
-2.61871e-08
1.30621e-07
-3.72005e-07
-4.08786e-08
1.55287e-07
-3.54147e-07
-5.48161e-08
1.85867e-07
-3.33211e-07
-6.81741e-08
2.23392e-07
-3.12804e-07
-8.17505e-08
2.72318e-07
-3.00282e-07
-9.54076e-08
3.37222e-07
-2.99819e-07
-1.08203e-07
4.16975e-07
-3.10729e-07
-1.15511e-07
5.05238e-07
-3.29687e-07
-1.13741e-07
5.89667e-07
-3.48971e-07
-1.01508e-07
6.58376e-07
-3.65644e-07
-7.81273e-08
6.98627e-07
-3.72874e-07
-4.38495e-08
7.02861e-07
-3.70359e-07
-2.87713e-09
7.17617e-07
-3.77946e-07
1.04635e-08
9.07963e-07
-4.99388e-07
-6.85697e-08
1.4166e-06
-8.00323e-07
-2.30447e-07
2.11496e-06
-1.29017e-06
-2.34392e-07
2.43861e-06
-1.90217e-06
2.23333e-07
1.82347e-06
-2.64162e-06
1.20662e-06
9.59467e-07
-2.49715e-06
1.52726e-06
1.60423e-06
-3.35546e-06
7.92629e-07
4.69348e-06
-5.62155e-06
-4.36121e-07
9.95876e-06
-1.22562e-05
8.15481e-07
1.22983e-05
-2.15305e-05
5.4099e-06
9.83046e-06
-1.61477e-05
5.72808e-06
9.14172e-06
-9.68788e-06
3.14757e-06
1.05295e-05
-8.49948e-06
2.87866e-08
1.36002e-05
7.23385e-06
-5.24909e-06
1.86008e-05
2.98273e-06
-8.40533e-06
1.89689e-05
2.98318e-05
6.29986e-06
2.93097e-05
-5.86463e-06
4.22309e-06
-1.34999e-06
-2.96825e-05
5.52561e-06
-8.56275e-06
-1.02268e-05
7.43235e-06
-1.19556e-05
-7.767e-06
7.2833e-06
-1.58215e-05
-2.13638e-06
1.94045e-06
-1.81874e-05
-1.20853e-06
8.23936e-07
-1.98376e-05
-1.81679e-06
1.41319e-06
-2.00309e-05
-3.78952e-06
1.87406e-06
-1.94608e-05
-4.85662e-06
2.26407e-06
-1.87107e-05
-5.58865e-06
2.92363e-06
-1.76972e-05
-5.52451e-06
2.84658e-06
-1.53583e-05
-5.45928e-06
1.66997e-06
-1.24275e-05
-3.88072e-06
7.11893e-07
-9.16456e-06
-2.38303e-06
-4.32703e-10
-7.51435e-06
5.86944e-07
1.08633e-07
-8.55162e-06
2.80326e-06
1.88467e-06
-1.00495e-05
3.55121e-06
1.64732e-06
-1.07553e-05
1.51243e-06
1.7998e-06
-9.82304e-06
-1.29948e-06
1.28023e-06
-8.99848e-06
-2.91127e-06
7.08056e-07
-8.47518e-06
-3.70575e-06
4.57479e-07
-7.67536e-06
-3.82548e-06
2.46278e-07
-6.0825e-06
-3.57064e-06
-3.15073e-07
-4.14684e-06
-2.36837e-06
-4.43663e-07
-2.65544e-06
-4.89226e-07
4.3424e-07
-2.42198e-06
-1.92131e-07
1.612e-06
-3.76802e-06
-2.97684e-06
3.27457e-06
-7.68578e-06
-3.77671e-06
5.78396e-06
-1.11616e-05
-3.24764e-06
5.68333e-06
-1.16079e-05
-1.75894e-06
2.23203e-06
-1.09143e-05
1.73822e-07
-4.85541e-07
-1.02632e-05
7.76627e-07
-1.57308e-06
-1.01484e-05
1.19577e-06
-1.79842e-06
-1.03866e-05
2.38046e-06
-1.94893e-06
-8.93349e-06
3.06337e-06
-2.84649e-06
-6.47831e-06
3.86141e-06
-4.53832e-06
3.0993e-06
-1.00986e-05
-2.21798e-06
-3.91025e-06
-4.4592e-07
-1.00181e-06
-4.34824e-06
-7.2875e-07
-6.64059e-07
-2.29232e-06
1.14874e-07
-3.89405e-07
-1.94981e-06
7.42158e-09
-2.83378e-07
-9.8358e-07
-6.63299e-08
-8.29276e-08
-8.66894e-07
-1.71546e-07
3.38977e-08
-3.89508e-07
-2.32761e-07
-3.6539e-08
-2.00065e-07
-1.42384e-07
-2.5065e-07
8.34726e-08
-8.68905e-08
-4.61225e-07
1.33339e-07
-6.38157e-08
-6.07833e-07
1.47558e-07
-1.15973e-07
-6.58098e-07
4.30554e-08
-1.82638e-07
-6.43457e-07
-5.63911e-08
-2.42481e-07
-5.77421e-07
-1.65561e-07
-2.81274e-07
-4.76716e-07
-2.37004e-07
-3.01797e-07
-3.59086e-07
-2.91743e-07
-3.09917e-07
-2.4974e-07
-3.06147e-07
-3.0228e-07
-1.5075e-07
-3.19742e-07
-2.93259e-07
-6.72075e-08
-3.21939e-07
-2.81636e-07
-2.76858e-09
-3.16784e-07
-2.70945e-07
4.28069e-08
-3.05557e-07
-2.62224e-07
7.24798e-08
-2.90129e-07
-2.5604e-07
8.93751e-08
-2.71377e-07
-2.52132e-07
9.70059e-08
-2.50515e-07
-2.50559e-07
9.90742e-08
-2.29065e-07
-2.51004e-07
9.91631e-08
-2.07803e-07
-2.53248e-07
1.00264e-07
-1.86574e-07
-2.56785e-07
1.05005e-07
-1.65962e-07
-2.61227e-07
1.14891e-07
-1.46708e-07
-2.66503e-07
1.30168e-07
-1.30329e-07
-2.72282e-07
1.50767e-07
-1.14702e-07
-2.77797e-07
1.75882e-07
-9.67625e-08
-2.8239e-07
2.05338e-07
-7.6666e-08
-2.85851e-07
2.38563e-07
-5.86615e-08
-2.87207e-07
2.73427e-07
-4.88925e-08
-2.86049e-07
3.03916e-07
-4.9487e-08
-2.80609e-07
3.25332e-07
-6.03897e-08
-2.71489e-07
3.38241e-07
-7.98625e-08
-2.62467e-07
3.43901e-07
-9.96991e-08
-2.54604e-07
3.48569e-07
-1.18829e-07
-2.51151e-07
3.61148e-07
-1.33718e-07
-2.51317e-07
4.01331e-07
-1.5218e-07
-2.57877e-07
5.3792e-07
-2.14855e-07
-2.98445e-07
8.97173e-07
-4.22761e-07
-4.31311e-07
1.44064e-06
-7.48488e-07
-5.8284e-07
1.93468e-06
-1.17838e-06
-5.82144e-07
1.95416e-06
-1.74855e-06
-1.36739e-07
1.379e-06
-2.58651e-06
5.65162e-07
7.62175e-07
-2.70369e-06
9.25194e-07
1.11682e-06
-3.27069e-06
-3.34667e-07
4.00041e-06
-7.09083e-06
-1.16037e-06
5.9932e-06
-1.54763e-05
1.27392e-06
1.9452e-06
-2.35401e-05
6.06668e-06
-3.09494e-06
-1.68525e-05
5.70301e-06
-5.73856e-06
-6.24385e-06
-7.59641e-07
-1.01316e-05
-2.58181e-06
-1.92812e-06
9.02898e-06
1.1502e-06
-1.02027e-05
1.6651e-05
3.3784e-06
-9.82663e-06
1.84743e-05
4.83933e-05
-1.5255e-06
2.90401e-05
-4.42803e-06
3.30197e-07
-9.82357e-06
-2.9661e-05
7.00539e-06
-1.57412e-05
-1.1194e-05
6.74436e-06
-2.00491e-05
-1.06912e-05
7.23204e-06
-2.28859e-05
-4.71472e-06
5.41515e-06
-2.4616e-05
-4.5899e-06
5.11148e-06
-2.39998e-05
-5.27229e-06
2.83932e-06
-2.3326e-05
-5.97716e-06
1.51381e-06
-2.25976e-05
-6.24118e-06
6.56186e-07
-2.1796e-05
-6.16766e-06
-2.22573e-07
-2.1333e-05
-5.36606e-06
-6.21442e-07
-2.06309e-05
-4.32965e-06
-1.83173e-06
-1.98116e-05
-2.50944e-06
-2.19056e-06
-1.86062e-05
-1.46164e-06
-2.12684e-06
-1.6633e-05
4.68958e-08
-1.4331e-06
-1.5296e-05
1.87526e-06
-4.08983e-07
-1.3919e-05
2.33168e-06
-1.5751e-07
-1.29593e-05
6.5958e-07
-1.06878e-07
-1.23945e-05
-1.78978e-06
-7.4447e-08
-1.12398e-05
-3.97962e-06
-8.63992e-08
-9.9804e-06
-4.72253e-06
-2.42602e-07
-8.01029e-06
-4.45278e-06
-1.3428e-06
-5.34759e-06
-4.17625e-06
-2.0571e-06
-1.78706e-06
-2.92531e-06
-3.00359e-06
2.05995e-06
-1.25143e-06
-3.08481e-06
5.13126e-06
-3.32171e-07
-2.93127e-06
5.83733e-06
-1.04992e-06
-2.63299e-06
4.82046e-06
-3.81021e-07
-2.37883e-06
2.68616e-06
1.15797e-07
-1.22914e-06
-1.37477e-06
2.32541e-07
2.06945e-06
-2.4258e-06
1.27558e-06
-5.07305e-08
-1.87385e-06
2.39344e-06
-2.16876e-06
-2.10009e-06
4.02292e-06
-2.60091e-06
-1.98962e-06
5.31095e-06
-3.04096e-06
-2.36047e-06
7.33704e-06
-3.90283e-06
-2.95036e-06
1.00841e-05
-5.63278e-06
1.04957e-05
-1.03467e-05
-2.60831e-06
-3.93344e-06
-2.70929e-07
-1.42908e-06
-4.54974e-06
-9.66337e-07
-1.09389e-06
-2.63436e-06
1.69887e-08
-7.30503e-07
-2.2591e-06
-4.79177e-08
-5.8888e-07
-1.00617e-06
-1.13306e-07
-3.20476e-07
-9.02435e-07
-2.28987e-07
-8.79488e-08
-3.03678e-07
-3.13185e-07
-4.9633e-09
-5.4305e-08
-2.24767e-07
-6.08776e-08
3.16365e-07
-1.74324e-07
-2.15205e-07
4.17067e-07
-1.28677e-07
-3.79333e-07
4.76439e-07
-1.64142e-07
-5.07023e-07
3.87369e-07
-2.16311e-07
-5.76436e-07
2.83487e-07
-2.70138e-07
-5.68889e-07
1.44185e-07
-3.17129e-07
-5.07596e-07
5.02169e-08
-3.48331e-07
-4.15519e-07
-1.05517e-08
-3.73119e-07
-3.23752e-07
-1.39029e-08
-3.83813e-07
-2.37661e-07
-1.38101e-08
-3.91821e-07
-1.58272e-07
-4.72123e-09
-3.964e-07
-8.74647e-08
8.77547e-09
-3.96151e-07
-2.94978e-08
2.79999e-08
-3.91311e-07
1.51519e-08
4.99013e-08
-3.84445e-07
4.77009e-08
7.38563e-08
-3.77561e-07
6.95421e-08
9.96005e-08
-3.71709e-07
8.34612e-08
1.25089e-07
-3.67841e-07
9.30428e-08
1.48781e-07
-3.65903e-07
1.00906e-07
1.71038e-07
-3.65233e-07
1.0924e-07
1.91161e-07
-3.65184e-07
1.20026e-07
2.08176e-07
-3.65424e-07
1.3396e-07
2.21807e-07
-3.65793e-07
1.50254e-07
2.34743e-07
-3.65495e-07
1.67855e-07
2.50613e-07
-3.647e-07
1.8594e-07
2.68268e-07
-3.62782e-07
2.03366e-07
2.82774e-07
-3.5858e-07
2.16401e-07
2.89225e-07
-3.50908e-07
2.19716e-07
2.86805e-07
-3.39303e-07
2.14254e-07
2.73221e-07
-3.27879e-07
2.04526e-07
2.50776e-07
-3.20566e-07
1.95444e-07
2.30189e-07
-3.20477e-07
1.87805e-07
2.1559e-07
-3.26349e-07
1.87533e-07
2.05994e-07
-3.39006e-07
2.21827e-07
1.79636e-07
-3.65493e-07
3.56397e-07
8.45554e-08
-4.32374e-07
6.63616e-07
-1.52904e-07
-5.71819e-07
1.06017e-06
-4.32585e-07
-6.99288e-07
1.34419e-06
-7.48386e-07
-6.8993e-07
1.35528e-06
-1.40016e-06
-3.2212e-07
1.4296e-06
-2.83437e-06
2.1321e-07
1.49237e-06
-3.17903e-06
5.02092e-07
1.65422e-06
-2.97036e-06
-3.04365e-07
2.2035e-06
-6.51347e-06
-8.75008e-07
1.66826e-07
-1.59122e-05
2.53356e-06
-4.58235e-06
-2.47192e-05
5.95417e-06
-8.03943e-06
-1.99242e-05
6.50626e-06
-1.05686e-05
-2.42187e-06
-1.29334e-06
-1.55999e-05
6.70813e-06
-4.78118e-06
-5.23886e-06
4.2585e-06
-1.07753e-05
-1.39348e-05
2.061e-05
-9.74261e-06
2.7863e-05
5.28055e-05
-2.03709e-05
3.70891e-05
-1.53943e-06
-3.94e-06
-1.18367e-05
-2.66668e-05
9.66285e-06
-2.12896e-05
-9.6803e-06
7.68146e-06
-2.83803e-05
-1.1149e-05
7.54719e-06
-3.14804e-05
-7.17711e-06
5.56169e-06
-3.20863e-05
-6.94974e-06
2.96517e-06
-3.03565e-05
-7.41244e-06
4.09489e-07
-2.79197e-05
-7.03e-06
-1.38478e-06
-2.56781e-05
-5.76428e-06
-2.71926e-06
-2.40895e-05
-4.8332e-06
-2.92346e-06
-2.26532e-05
-3.80273e-06
-3.00001e-06
-2.10109e-05
-2.45835e-06
-3.51386e-06
-2.00053e-05
-4.2369e-07
-3.09148e-06
-1.96012e-05
1.12998e-06
-2.99574e-06
-1.86319e-05
2.00055e-06
-2.92292e-06
-1.75769e-05
2.72506e-06
-1.90482e-06
-1.70389e-05
3.30133e-06
-1.50771e-06
-1.7353e-05
2.7044e-06
-1.73072e-06
-1.76866e-05
1.41484e-06
-2.871e-06
-1.73965e-05
-2.57378e-07
-4.01238e-06
-1.63848e-05
-1.33422e-06
-4.39997e-06
-1.43776e-05
-1.77e-06
-4.69004e-06
-1.15501e-05
-1.65754e-06
-5.34617e-06
-7.41065e-06
-1.01689e-06
-6.04788e-06
-3.19527e-06
1.96335e-07
-5.66315e-06
5.22847e-07
1.96485e-06
-6.01514e-06
2.68863e-06
3.50677e-06
-6.72248e-06
3.5644e-06
5.38629e-06
-6.64307e-06
2.59263e-06
6.35833e-06
-5.27077e-06
-9.83385e-07
6.47711e-06
-2.66855e-06
-3.20165e-06
4.90983e-06
-1.41599e-06
-3.74681e-06
5.51355e-06
-2.57495e-06
-3.15177e-06
6.2514e-06
-2.82352e-06
-1.77506e-06
7.11566e-06
-3.18142e-06
-1.29713e-06
1.03215e-05
-3.46241e-06
-1.79652e-06
1.59617e-05
-5.37822e-06
1.92031e-05
-1.05039e-05
-2.98589e-06
-3.95518e-06
5.30594e-08
-1.75923e-06
-4.70535e-06
-1.06106e-06
-1.41019e-06
-3.06227e-06
8.95554e-08
-8.63086e-07
-2.78965e-06
-8.27857e-09
-6.72042e-07
-1.14814e-06
-4.20566e-08
-4.98525e-07
-9.12778e-07
-1.5915e-07
-3.28176e-07
-1.80503e-07
-2.88351e-07
-1.14343e-07
1.94513e-08
-2.8354e-07
4.89526e-08
4.20828e-07
-2.64801e-07
8.48089e-09
6.46546e-07
-1.87761e-07
-1.34995e-07
7.88313e-07
-1.6745e-07
-3.37651e-07
7.61368e-07
-1.71025e-07
-4.86383e-07
6.32545e-07
-2.00073e-07
-5.36464e-07
4.39449e-07
-2.45173e-07
-5.03882e-07
2.99456e-07
-2.81782e-07
-4.2449e-07
2.27611e-07
-3.17578e-07
-3.413e-07
2.42722e-07
-3.39788e-07
-2.64926e-07
2.69374e-07
-3.5957e-07
-1.93682e-07
2.99391e-07
-3.75329e-07
-1.24739e-07
3.2756e-07
-3.87741e-07
-6.3058e-08
3.59288e-07
-3.92961e-07
-9.88291e-09
3.90361e-07
-3.93664e-07
3.32416e-08
4.21995e-07
-3.9127e-07
6.60166e-08
4.53173e-07
-3.86387e-07
8.97147e-08
4.818e-07
-3.80421e-07
1.07484e-07
5.05627e-07
-3.74661e-07
1.21421e-07
5.25713e-07
-3.68622e-07
1.33529e-07
5.41522e-07
-3.6251e-07
1.45151e-07
5.52718e-07
-3.56159e-07
1.56013e-07
5.60551e-07
-3.49628e-07
1.662e-07
5.6757e-07
-3.4298e-07
1.74887e-07
5.77579e-07
-3.35642e-07
1.79917e-07
5.90251e-07
-3.26932e-07
1.79062e-07
6.00367e-07
-3.16685e-07
1.69992e-07
6.03098e-07
-3.04676e-07
1.51932e-07
5.97592e-07
-2.92628e-07
1.26942e-07
5.82589e-07
-2.84195e-07
9.56071e-08
5.64767e-07
-2.82503e-07
5.97238e-08
5.54575e-07
-2.8825e-07
2.64862e-08
5.5026e-07
-3.01215e-07
1.61337e-08
5.43877e-07
-3.27166e-07
6.53354e-08
5.0838e-07
-3.77407e-07
2.25005e-07
3.91576e-07
-4.64748e-07
5.20593e-07
1.4014e-07
-5.83264e-07
8.63985e-07
-6.98408e-08
-6.92675e-07
1.1585e-06
-3.61144e-07
-6.56381e-07
1.26705e-06
-1.18751e-06
-2.78909e-07
1.39507e-06
-3.19102e-06
2.73645e-07
1.31161e-06
-3.4896e-06
4.78973e-07
9.74253e-07
-2.28889e-06
-1.46827e-07
-8.19081e-08
-4.38773e-06
-8.21155e-07
-5.11569e-06
-1.40992e-05
3.27472e-06
-1.12904e-05
-2.52228e-05
6.60247e-06
-1.44675e-05
-2.38282e-05
7.14141e-06
-2.0317e-05
-6.79197e-06
1.04781e-05
-2.47939e-05
1.25348e-05
-1.49145e-06
-3.16958e-05
1.87457e-05
-5.98148e-06
-3.32903e-05
3.02168e-05
-9.57697e-06
3.53305e-05
4.30613e-05
-2.97241e-05
3.71073e-05
-1.18981e-06
-1.93352e-06
-1.95201e-05
-1.59239e-05
8.99033e-06
-3.0622e-05
-5.81702e-06
7.11544e-06
-3.97384e-05
-7.8935e-06
5.85401e-06
-4.49304e-05
-6.01363e-06
4.02448e-06
-4.52016e-05
-6.60105e-06
-8.19874e-08
-4.35753e-05
-6.12439e-06
-2.92552e-06
-4.0425e-05
-5.97455e-06
-4.22025e-06
-3.75698e-05
-4.10975e-06
-4.52318e-06
-3.63903e-05
-3.33249e-06
-2.6896e-06
-3.59596e-05
-2.07163e-06
-2.16793e-06
-3.48595e-05
-1.79239e-06
-1.77108e-06
-3.38343e-05
-7.27435e-07
-7.24313e-07
-3.26527e-05
1.26244e-07
-1.79151e-07
-3.16527e-05
8.50466e-07
1.49341e-07
-3.05861e-05
1.3364e-06
3.21709e-07
-3.01297e-05
2.57888e-06
2.66071e-07
-3.05449e-05
3.06866e-06
5.10849e-08
-3.06792e-05
2.68856e-06
-1.14011e-06
-2.98181e-05
1.19236e-06
-2.31203e-06
-2.79735e-05
4.21728e-07
-3.6019e-06
-2.53183e-05
4.45214e-07
-4.87139e-06
-2.18156e-05
8.66435e-07
-6.02749e-06
-1.75723e-05
1.52044e-06
-6.78107e-06
-1.26738e-05
2.76613e-06
-7.46854e-06
-7.35877e-06
4.3248e-06
-7.67503e-06
-3.34146e-06
6.56591e-06
-7.07647e-06
-1.03174e-06
8.39909e-06
-5.32253e-06
-2.39278e-06
9.97232e-06
-2.25296e-06
-5.30384e-06
9.95607e-06
-5.67901e-07
-6.46255e-06
8.03641e-06
-1.96786e-06
-6.46531e-06
8.66924e-06
-3.15293e-06
-4.56868e-06
8.82805e-06
-4.47328e-06
-2.32634e-06
1.02108e-05
-5.33753e-06
-1.27192e-06
1.37838e-05
-4.51672e-06
-1.10358e-06
2.12955e-05
-5.50214e-06
2.79219e-05
-9.82243e-06
-3.40385e-06
-3.86801e-06
3.74746e-07
-2.2936e-06
-4.93411e-06
-8.73582e-07
-1.90641e-06
-3.59363e-06
1.54605e-07
-9.56405e-07
-3.51857e-06
-2.11026e-07
-5.30003e-07
-1.64519e-06
7.94472e-08
-5.05336e-07
-8.52966e-07
-7.98157e-08
-4.75734e-07
-8.54783e-09
-1.9627e-07
-2.57801e-07
7.34895e-08
-2.68068e-07
2.43735e-08
4.28946e-07
-2.86916e-07
1.19161e-07
7.47538e-07
-1.93713e-07
6.21428e-08
1.01575e-06
-1.68975e-07
-1.84053e-07
1.13114e-06
-1.22747e-07
-3.95975e-07
9.85586e-07
-1.40567e-07
-4.69024e-07
6.99814e-07
-1.87026e-07
-4.41364e-07
5.12532e-07
-2.40421e-07
-3.6443e-07
4.38173e-07
-2.872e-07
-2.87446e-07
4.79215e-07
-3.13126e-07
-2.29929e-07
5.45661e-07
-3.33411e-07
-1.84765e-07
6.05245e-07
-3.50595e-07
-1.40277e-07
6.49118e-07
-3.65597e-07
-9.62606e-08
6.88802e-07
-3.73095e-07
-5.38037e-08
7.22795e-07
-3.7443e-07
-1.4448e-08
7.54196e-07
-3.71127e-07
2.02314e-08
7.833e-07
-3.64345e-07
4.78895e-08
8.10132e-07
-3.55558e-07
6.78938e-08
8.31888e-07
-3.4579e-07
8.15184e-08
8.47748e-07
-3.35219e-07
9.03229e-08
8.57599e-07
-3.24394e-07
9.64842e-08
8.60453e-07
-3.13448e-07
1.01778e-07
8.58391e-07
-3.02636e-07
1.05847e-07
8.56361e-07
-2.92404e-07
1.0597e-07
8.60118e-07
-2.8214e-07
9.87964e-08
8.69158e-07
-2.71248e-07
8.24453e-08
8.77144e-07
-2.59868e-07
5.68993e-08
8.77265e-07
-2.48104e-07
2.58359e-08
8.6758e-07
-2.38328e-07
-4.74781e-09
8.47477e-07
-2.33752e-07
-3.62013e-08
8.30639e-07
-2.33773e-07
-7.47437e-08
8.32358e-07
-2.38606e-07
-1.16595e-07
8.4329e-07
-2.50429e-07
-1.30641e-07
8.31345e-07
-2.7265e-07
-4.89858e-08
7.47052e-07
-3.19093e-07
1.8744e-07
5.59428e-07
-4.01746e-07
5.27323e-07
3.21864e-07
-5.15614e-07
8.28508e-07
2.32713e-07
-5.88432e-07
1.09384e-06
-4.65271e-08
-5.49641e-07
1.32933e-06
-1.12154e-06
-2.48499e-07
1.10729e-06
-3.03929e-06
1.24057e-07
9.4651e-07
-3.82283e-06
6.06844e-07
3.48086e-07
-7.95328e-07
-7.16271e-07
-3.36217e-06
-1.79328e-07
-2.32951e-07
-1.1529e-05
-1.06548e-05
4.71729e-06
-2.07401e-05
-2.31486e-05
7.00138e-06
-2.84411e-05
-2.35674e-05
7.44618e-06
-3.35624e-05
-1.45734e-05
1.29764e-05
-3.27629e-05
1.2116e-06
1.03763e-05
-3.19461e-05
1.23069e-05
8.39534e-06
-2.51551e-05
2.64855e-05
-4.71908e-06
3.91545e-05
3.51976e-05
-2.71119e-05
3.96482e-05
-1.42393e-06
-3.52306e-07
-1.92664e-05
-5.16487e-06
9.94397e-06
-3.57103e-05
2.13516e-06
8.10769e-06
-4.61796e-05
-2.33852e-06
4.90379e-06
-5.26729e-05
-2.3009e-06
2.76713e-06
-5.28986e-05
-4.72683e-06
-1.6821e-06
-5.00599e-05
-4.7071e-06
-4.32622e-06
-4.48034e-05
-6.22318e-06
-5.07864e-06
-3.9744e-05
-6.17249e-06
-3.0658e-06
-3.66358e-05
-5.8366e-06
-6.35134e-07
-3.43624e-05
-4.46705e-06
1.10376e-07
-3.2517e-05
-4.47596e-06
8.25763e-07
-3.20263e-05
-3.3304e-06
2.10227e-06
-3.29397e-05
-1.81223e-06
2.84645e-06
-3.47631e-05
-7.18206e-07
3.38604e-06
-3.64342e-05
-4.10093e-07
3.41444e-06
-3.711e-05
3.32007e-07
2.92188e-06
-3.64852e-05
3.68544e-07
2.07759e-06
-3.50006e-05
2.58772e-07
9.49264e-07
-3.28977e-05
-5.3652e-07
-3.75951e-07
-3.05326e-05
-3.52437e-07
-1.60321e-06
-2.74799e-05
2.0016e-07
-2.8234e-06
-2.36445e-05
1.0689e-06
-4.05388e-06
-2.02331e-05
2.64497e-06
-4.55012e-06
-1.72878e-05
4.3654e-06
-4.55471e-06
-1.33794e-05
4.77335e-06
-4.36375e-06
-1.00874e-05
6.78184e-06
-3.51161e-06
-8.43713e-06
9.19097e-06
-2.44365e-06
-7.22318e-06
1.04143e-05
-1.65642e-06
-6.43265e-06
1.05553e-05
-1.38998e-06
-6.91544e-06
1.06041e-05
-2.08529e-06
-6.77129e-06
1.16204e-05
-3.09573e-06
-4.94493e-06
1.17031e-05
-4.70186e-06
-1.92955e-06
1.38486e-05
-6.65334e-06
-2.54435e-07
1.87151e-05
-6.6064e-06
-1.51134e-06
2.82088e-05
-5.65638e-06
3.58341e-05
-9.42354e-06
-3.87807e-06
-3.67351e-06
8.0272e-07
-2.94249e-06
-5.09245e-06
-7.71576e-07
-2.51659e-06
-3.89819e-06
-1.11848e-07
-1.10184e-06
-4.05401e-06
-8.6856e-07
-2.40453e-07
-2.40565e-06
-9.15014e-08
-2.53273e-07
-7.50588e-07
-8.35023e-08
-4.12962e-07
2.99967e-07
-1.43412e-07
-3.70881e-07
2.51828e-07
-2.16409e-07
-1.22869e-07
4.79425e-07
-2.95392e-07
5.00256e-08
8.16783e-07
-2.40462e-07
8.67364e-08
1.17927e-06
-1.98855e-07
-1.01333e-07
1.4197e-06
-9.97972e-08
-2.87804e-07
1.28153e-06
-1.09308e-07
-3.53718e-07
9.36368e-07
-1.70915e-07
-3.3791e-07
7.36802e-07
-2.40233e-07
-2.76199e-07
6.68031e-07
-2.91807e-07
-2.12949e-07
7.28978e-07
-3.13197e-07
-1.7273e-07
8.26905e-07
-3.21715e-07
-1.52048e-07
9.11033e-07
-3.26687e-07
-1.38894e-07
9.67789e-07
-3.32079e-07
-1.28106e-07
1.01226e-06
-3.34448e-07
-1.15422e-07
1.04314e-06
-3.33257e-07
-9.94414e-08
1.0664e-06
-3.28362e-07
-8.20906e-08
1.08586e-06
-3.20122e-07
-6.75663e-08
1.10312e-06
-3.07681e-07
-5.5836e-08
1.11459e-06
-2.94607e-07
-4.84138e-08
1.12205e-06
-2.81835e-07
-4.61403e-08
1.12469e-06
-2.69491e-07
-4.70927e-08
1.12004e-06
-2.58691e-07
-4.73178e-08
1.10832e-06
-2.49795e-07
-4.86164e-08
1.099e-06
-2.41365e-07
-5.79227e-08
1.10123e-06
-2.31862e-07
-7.9857e-08
1.1126e-06
-2.21486e-07
-1.13393e-07
1.12183e-06
-2.11139e-07
-1.54515e-07
1.12092e-06
-2.02411e-07
-1.9483e-07
1.10587e-06
-1.97851e-07
-2.23237e-07
1.07538e-06
-1.99255e-07
-2.35988e-07
1.04749e-06
-2.03847e-07
-2.45826e-07
1.04866e-06
-2.06096e-07
-2.63192e-07
1.06964e-06
-2.08585e-07
-2.6014e-07
1.04729e-06
-2.18429e-07
-1.59533e-07
8.97612e-07
-2.50195e-07
9.46525e-08
6.26712e-07
-3.19049e-07
4.12785e-07
4.14754e-07
-4.04854e-07
6.76162e-07
4.28806e-07
-4.41605e-07
8.42345e-07
2.31453e-07
-4.09885e-07
7.85621e-07
-7.33194e-07
-2.76493e-07
1.94424e-07
-2.17564e-06
-2.07506e-07
-7.79287e-07
-3.14563e-06
4.18714e-07
-1.97721e-06
4.68256e-07
1.48485e-07
-8.69547e-06
5.81754e-06
8.72161e-07
-2.21764e-05
-3.83093e-06
6.57768e-06
-3.46157e-05
-1.94946e-05
8.56383e-06
-4.50179e-05
-2.0399e-05
7.30835e-06
-4.93367e-05
-1.8408e-05
8.17064e-06
-4.05559e-05
-1.66857e-05
8.6715e-06
-2.21584e-05
-1.45925e-05
1.26921e-05
-1.21979e-05
8.14133e-06
7.253e-06
4.24302e-05
2.69803e-05
-1.47796e-05
3.65011e-05
1.17286e-06
3.75398e-07
-2.7389e-05
1.00313e-05
1.15398e-05
-4.26783e-05
9.48338e-06
7.63832e-06
-5.25463e-05
2.85382e-06
4.67405e-06
-5.78367e-05
9.85144e-07
1.99898e-06
-5.77585e-05
-1.79694e-06
-3.07019e-06
-5.4872e-05
-2.02888e-06
-5.68018e-06
-5.06905e-05
-3.71537e-06
-6.83925e-06
-4.58279e-05
-5.43897e-06
-5.77646e-06
-4.2436e-05
-7.19192e-06
-2.18818e-06
-3.97842e-05
-7.52133e-06
3.01263e-07
-3.85189e-05
-7.76447e-06
1.94408e-06
-3.85871e-05
-6.74795e-06
3.41973e-06
-4.03368e-05
-4.31826e-06
4.21013e-06
-4.31393e-05
-2.17634e-06
4.227e-06
-4.60918e-05
-1.22803e-06
3.74748e-06
-4.75897e-05
-7.34161e-07
2.54787e-06
-4.75959e-05
-7.18339e-07
1.07976e-06
-4.59536e-05
-1.13534e-06
-2.71531e-07
-4.31179e-05
-2.28838e-06
-1.12756e-06
-3.90631e-05
-3.37213e-06
-1.08287e-06
-3.40697e-05
-4.04302e-06
-7.86888e-07
-2.77356e-05
-4.34645e-06
-9.5968e-07
-2.13729e-05
-3.06385e-06
-6.92781e-07
-1.70899e-05
5.24742e-07
-4.60578e-07
-1.34363e-05
1.85985e-06
-7.60297e-07
-1.06999e-05
4.2866e-06
-2.60523e-07
-8.63361e-06
6.53097e-06
5.91118e-07
-6.4849e-06
7.13175e-06
1.13365e-06
-5.19953e-06
7.726e-06
1.53963e-06
-4.78421e-06
9.04465e-06
1.13272e-06
-4.36364e-06
1.13536e-05
-1.72015e-07
-3.78314e-06
1.32702e-05
-2.18109e-06
-1.54296e-06
1.64052e-05
-4.84783e-06
6.46013e-07
2.33207e-05
-6.84731e-06
8.83981e-07
3.36695e-05
-5.71809e-06
4.48804e-05
-8.17063e-06
-4.03103e-06
-3.42608e-06
1.44816e-06
-3.46142e-06
-4.94205e-06
-7.16989e-07
-3.30479e-06
-3.97683e-06
-6.85444e-08
-1.69959e-06
-4.22425e-06
-1.42322e-06
-4.37513e-07
-3.22158e-06
-4.34466e-07
-3.40764e-08
-1.14145e-06
-5.39503e-09
-1.33139e-07
4.53271e-07
-4.9098e-08
-2.63474e-07
4.59276e-07
-7.22104e-08
-2.12945e-07
7.15615e-07
-2.82933e-07
-1.13383e-07
9.77711e-07
-2.58491e-07
2.59433e-09
1.31921e-06
-2.53955e-07
1.46646e-08
1.57466e-06
-1.66269e-07
1.48789e-08
1.48667e-06
-2.049e-07
-1.77675e-09
1.22556e-06
-2.72542e-07
-3.53292e-08
1.11342e-06
-3.42859e-07
-8.06432e-08
1.11162e-06
-3.98158e-07
-1.21557e-07
1.20553e-06
-4.35476e-07
-1.59077e-07
1.32255e-06
-4.57951e-07
-1.97173e-07
1.42241e-06
-4.73088e-07
-2.23312e-07
1.47668e-06
-4.8256e-07
-2.36746e-07
1.5131e-06
-4.8728e-07
-2.40854e-07
1.53663e-06
-4.89279e-07
-2.3777e-07
1.55214e-06
-4.88794e-07
-2.30359e-07
1.56454e-06
-4.86067e-07
-2.21534e-07
1.57554e-06
-4.81301e-07
-2.13619e-07
1.58297e-06
-4.76385e-07
-2.08707e-07
1.58773e-06
-4.7075e-07
-2.06953e-07
1.58806e-06
-4.65272e-07
-2.07938e-07
1.58162e-06
-4.60782e-07
-2.08812e-07
1.56725e-06
-4.58209e-07
-2.14018e-07
1.55918e-06
-4.55158e-07
-2.33919e-07
1.56969e-06
-4.48671e-07
-2.6969e-07
1.58963e-06
-4.41387e-07
-3.146e-07
1.60326e-06
-4.36588e-07
-3.58997e-07
1.60059e-06
-4.35353e-07
-3.90701e-07
1.57779e-06
-4.40237e-07
-4.01932e-07
1.53795e-06
-4.51354e-07
-3.94517e-07
1.50476e-06
-4.64625e-07
-3.79109e-07
1.50681e-06
-4.7347e-07
-3.71913e-07
1.54291e-06
-4.80291e-07
-3.53988e-07
1.52777e-06
-4.98122e-07
-2.64708e-07
1.35391e-06
-5.44954e-07
-5.34186e-08
1.04649e-06
-6.29096e-07
2.17192e-07
8.7392e-07
-7.23814e-07
3.78964e-07
1.04691e-06
-7.61315e-07
3.24183e-07
1.07672e-06
-7.51785e-07
-1.05877e-07
4.60975e-07
-6.99152e-07
-1.24743e-06
-4.52756e-07
-4.95442e-07
-2.96657e-06
-1.08506e-06
-2.02048e-07
-3.84805e-06
1.45697e-06
1.4283e-07
-1.14462e-05
1.203e-05
1.49165e-06
-3.43217e-05
1.10538e-05
7.9543e-06
-6.19103e-05
-2.74046e-06
1.06477e-05
-8.04321e-05
-1.0863e-05
8.75539e-06
-8.74433e-05
-1.71719e-05
5.66978e-06
-8.52028e-05
-2.27486e-05
4.08237e-06
-8.42749e-05
-2.18003e-05
7.18241e-06
-5.77197e-05
-2.17883e-05
-7.26824e-07
5.18073e-05
-1.6848e-05
-2.39016e-05
4.25503e-05
3.57934e-06
-2.21133e-06
-3.55415e-05
2.90454e-05
1.71532e-05
-4.70108e-05
1.28414e-05
7.52611e-06
-5.69099e-05
7.35533e-06
5.39347e-06
-6.03276e-05
2.22528e-06
2.18123e-06
-5.92277e-05
1.17078e-06
-4.10679e-06
-5.49458e-05
1.51853e-06
-7.89916e-06
-5.18085e-05
1.73523e-06
-8.71137e-06
-4.95671e-05
8.48534e-07
-8.67529e-06
-4.98878e-05
7.61426e-07
-7.81962e-06
-4.98657e-05
-4.26748e-07
-7.30028e-06
-4.93014e-05
-7.75753e-07
-7.76172e-06
-4.95435e-05
-1.46872e-06
-5.2494e-06
-5.07734e-05
-1.83888e-06
-1.37293e-06
-5.17889e-05
-1.34997e-06
1.23571e-07
-5.29293e-05
-6.26704e-07
4.81123e-07
-5.40309e-05
-3.40718e-07
6.52816e-07
-5.50792e-05
-5.17279e-07
7.97192e-07
-5.5535e-05
-1.98383e-06
1.25987e-06
-5.52127e-05
-4.92864e-06
2.29414e-06
-5.33312e-05
-8.33714e-06
3.07662e-06
-4.98846e-05
-1.13724e-05
3.87792e-06
-4.57462e-05
-1.28824e-05
4.39604e-06
-3.94873e-05
-1.24999e-05
3.15867e-06
-3.25301e-05
-7.84636e-06
1.35826e-06
-2.59119e-05
-5.46511e-06
6.28555e-07
-1.98938e-05
-2.74078e-06
9.49683e-07
-1.49885e-05
-3.82494e-07
2.03041e-06
-1.12753e-05
3.31224e-07
3.1624e-06
-1.00736e-05
1.55389e-06
5.07212e-06
-1.05012e-05
3.15944e-06
6.45413e-06
-1.20746e-05
6.22448e-06
6.87317e-06
-1.25212e-05
9.69017e-06
4.22456e-06
-1.09166e-05
1.59472e-05
-9.97763e-07
-8.8967e-06
2.54876e-05
-4.17402e-06
-5.651e-06
3.6853e-05
-6.66468e-06
4.50967e-05
-8.52785e-06
-3.74783e-06
-2.10886e-06
2.56532e-06
-3.81679e-06
-4.6518e-06
-2.24749e-07
-4.19767e-06
-3.82202e-06
2.34304e-07
-2.70671e-06
-4.3737e-06
-1.32905e-06
-1.28648e-06
-3.92477e-06
-7.03069e-07
-5.62896e-08
-2.27817e-06
-8.40914e-08
2.01488e-07
-8.87581e-08
2.8958e-07
-1.1337e-07
2.5158e-07
5.28059e-07
-1.82471e-07
6.45052e-07
1.44521e-07
-1.52279e-07
8.5171e-07
9.79361e-08
1.05733e-08
1.17431e-06
-1.57829e-08
1.49787e-07