/*--------------------------------*- C++ -*----------------------------------*\
| =========                 |                                                 |
| \\      /  F ield         | OpenFOAM: The Open Source CFD Toolbox           |
|  \\    /   O peration     | Version:  2.3.0                                 |
|   \\  /    A nd           | Web:      www.OpenFOAM.org                      |
|    \\/     M anipulation  |                                                 |
\*---------------------------------------------------------------------------*/
FoamFile
{
    version     2.0;
    format      ascii;
    class       volScalarField;
    location    "31";
    object      rho;
}
// * * * * * * * * * * * * * * * * * * * * * * * * * * * * * * * * * * * * * //

dimensions      [1 -3 0 0 0 0 0];

internalField   nonuniform List<scalar> 
6144
(
1.16368
1.16453
1.16508
1.16557
1.16602
1.16663
1.1673
1.16812
1.16867
1.16885
1.16887
1.16888
1.16889
1.16889
1.16889
1.1689
1.1689
1.1689
1.1689
1.1689
1.1689
1.16891
1.16891
1.16891
1.16891
1.16891
1.16891
1.16891
1.16892
1.16892
1.16892
1.16892
1.16892
1.16892
1.16892
1.16892
1.16893
1.16893
1.16893
1.16893
1.16893
1.16893
1.16893
1.16894
1.16944
1.17159
1.17625
1.18502
1.20136
1.22605
1.24955
1.27481
1.30116
1.32092
1.32906
1.33306
1.33544
1.34148
2.6068
88.1782
996.084
1026.98
1027.09
1027.1
1027.1
1027.1
1027.1
1027.1
1027.1
1027.1
1027.1
1027.1
1027.1
1027.1
1027.1
1027.1
1027.1
1027.1
1027.1
1027.1
1027.1
1027.1
1027.1
1027.1
1027.1
1027.1
1027.1
1027.1
1027.1
1027.1
1027.1
1027.1
1027.1
1027.1
1027.1
1027.1
1.16315
1.16437
1.16544
1.16591
1.16642
1.16691
1.16754
1.16823
1.16871
1.16885
1.16887
1.16888
1.16889
1.1689
1.1689
1.16891
1.16891
1.16891
1.16891
1.16891
1.16891
1.16891
1.16891
1.16892
1.16892
1.16892
1.16892
1.16892
1.16892
1.16893
1.16893
1.16893
1.16893
1.16893
1.16893
1.16893
1.16894
1.16894
1.16894
1.16894
1.16894
1.16894
1.16894
1.16897
1.16957
1.17158
1.17594
1.18392
1.19896
1.22051
1.23906
1.27622
1.31355
1.32875
1.32397
1.31542
1.31912
1.33787
1.73224
93.6924
1021.91
1027.09
1027.09
1027.1
1027.1
1027.1
1027.1
1027.1
1027.1
1027.1
1027.1
1027.1
1027.1
1027.1
1027.1
1027.1
1027.1
1027.1
1027.1
1027.1
1027.1
1027.1
1027.1
1027.1
1027.1
1027.1
1027.1
1027.1
1027.1
1027.1
1027.1
1027.1
1027.1
1027.1
1027.1
1027.1
1.1628
1.16387
1.16525
1.16583
1.16646
1.16695
1.16757
1.16816
1.16856
1.16872
1.16879
1.16885
1.16888
1.1689
1.1689
1.16891
1.16891
1.16891
1.16891
1.16891
1.16891
1.16891
1.16892
1.16892
1.16892
1.16892
1.16892
1.16892
1.16892
1.16893
1.16893
1.16893
1.16893
1.16893
1.16893
1.16893
1.16893
1.16893
1.16893
1.16894
1.16894
1.16894
1.16895
1.16911
1.16987
1.17182
1.17598
1.18189
1.19178
1.21407
1.23937
1.29823
1.32082
1.32343
1.31303
1.30718
1.30392
1.32967
1.6779
144.222
1023.89
1027.09
1027.09
1027.09
1027.09
1027.09
1027.1
1027.1
1027.1
1027.1
1027.1
1027.1
1027.1
1027.1
1027.1
1027.1
1027.1
1027.1
1027.1
1027.1
1027.1
1027.1
1027.1
1027.1
1027.1
1027.1
1027.1
1027.1
1027.1
1027.1
1027.1
1027.1
1027.1
1027.1
1027.1
1027.1
1.16254
1.16335
1.16476
1.16548
1.16628
1.16674
1.16735
1.16796
1.16843
1.16864
1.16875
1.16883
1.16887
1.16889
1.1689
1.1689
1.1689
1.1689
1.16891
1.16891
1.16891
1.16891
1.16891
1.16891
1.16891
1.16891
1.16892
1.16892
1.16892
1.16892
1.16892
1.16892
1.16893
1.16893
1.16893
1.16893
1.16893
1.16893
1.16893
1.16893
1.16894
1.16894
1.16896
1.16918
1.17
1.17202
1.17596
1.18124
1.18828
1.2099
1.25382
1.30646
1.31131
1.31325
1.31142
1.30636
1.30355
1.32725
1.32591
165.563
1022.6
1027.05
1027.05
1027.06
1027.07
1027.07
1027.08
1027.09
1027.09
1027.09
1027.09
1027.1
1027.1
1027.1
1027.1
1027.1
1027.1
1027.1
1027.1
1027.1
1027.1
1027.1
1027.1
1027.1
1027.1
1027.1
1027.1
1027.1
1027.1
1027.1
1027.1
1027.1
1027.1
1027.1
1027.1
1027.1
1.16232
1.16291
1.1642
1.16502
1.1661
1.16659
1.16721
1.16777
1.16827
1.16855
1.16871
1.16882
1.16887
1.16889
1.1689
1.16891
1.16891
1.16891
1.16891
1.16891
1.16891
1.16891
1.16892
1.16892
1.16892
1.16892
1.16892
1.16892
1.16892
1.16892
1.16893
1.16893
1.16893
1.16893
1.16893
1.16893
1.16893
1.16893
1.16893
1.16893
1.16894
1.16894
1.169
1.16928
1.17011
1.17216
1.17628
1.18242
1.18969
1.21249
1.26934
1.3064
1.29678
1.29819
1.31308
1.31409
1.31094
1.3106
1.27623
227.462
1024.51
1026.46
1026.46
1026.51
1026.55
1026.6
1026.72
1026.83
1026.92
1026.98
1027.02
1027.04
1027.05
1027.05
1027.05
1027.05
1027.05
1027.05
1027.07
1027.08
1027.09
1027.09
1027.1
1027.1
1027.1
1027.1
1027.1
1027.1
1027.1
1027.1
1027.1
1027.1
1027.1
1027.1
1027.1
1027.1
1.16212
1.16258
1.16367
1.1645
1.1658
1.16642
1.16708
1.16763
1.16811
1.16844
1.16865
1.1688
1.16887
1.16889
1.16889
1.1689
1.1689
1.1689
1.1689
1.1689
1.16891
1.16891
1.16891
1.16891
1.16891
1.16891
1.16892
1.16892
1.16892
1.16892
1.16892
1.16892
1.16892
1.16892
1.16893
1.16893
1.16893
1.16893
1.16893
1.16893
1.16893
1.16894
1.16902
1.16929
1.17013
1.17239
1.1771
1.18426
1.19381
1.21584
1.27803
1.30015
1.286
1.28505
1.29562
1.30383
1.30263
1.30156
1.27623
264.3
1018.47
1024.31
1024.24
1024.35
1024.4
1024.96
1025.53
1026.12
1026.42
1026.48
1026.48
1026.5
1026.49
1026.48
1026.46
1026.44
1026.41
1026.37
1026.35
1026.43
1026.59
1026.74
1026.87
1026.97
1027.03
1027.07
1027.08
1027.09
1027.09
1027.09
1027.1
1027.1
1027.1
1027.1
1027.1
1027.1
1.16191
1.16228
1.16319
1.164
1.16537
1.16624
1.16693
1.16754
1.16802
1.16836
1.1686
1.16879
1.16887
1.16889
1.1689
1.1689
1.16891
1.16891
1.16891
1.16891
1.16891
1.16891
1.16891
1.16891
1.16892
1.16892
1.16892
1.16892
1.16892
1.16892
1.16892
1.16892
1.16892
1.16893
1.16893
1.16893
1.16893
1.16893
1.16893
1.16893
1.16893
1.16894
1.16902
1.1693
1.1702
1.17283
1.17791
1.18566
1.19788
1.2256
1.28457
1.29405
1.28227
1.28096
1.28167
1.28354
1.28563
1.29486
1.27623
318.915
1013.95
1018.55
1018.32
1018.22
1018.44
1019.42
1020.55
1021.96
1023.15
1023.86
1024.26
1024.59
1024.79
1024.91
1024.99
1025.04
1025.06
1025.11
1025.31
1025.69
1025.94
1026.18
1026.43
1026.57
1026.59
1026.68
1026.67
1026.64
1026.61
1026.67
1026.75
1026.83
1026.98
1027.09
1027.1
1027.1
1.16171
1.16201
1.16272
1.16352
1.16496
1.16613
1.16669
1.16742
1.16796
1.16834
1.16856
1.16877
1.16886
1.16889
1.1689
1.1689
1.16891
1.16891
1.16891
1.16891
1.16891
1.16891
1.16891
1.16892
1.16892
1.16892
1.16892
1.16892
1.16892
1.16893
1.16893
1.16893
1.16893
1.16893
1.16893
1.16893
1.16893
1.16894
1.16894
1.16894
1.16894
1.16895
1.16901
1.16923
1.17007
1.17263
1.17787
1.18698
1.20129
1.22891
1.2815
1.28994
1.2818
1.2811
1.28078
1.28055
1.2805
1.28118
1.27623
304.697
1004.95
1012.77
1012.51
1012.44
1012.86
1013.31
1014.13
1015.05
1016.16
1017.15
1018.14
1019.1
1019.72
1019.97
1020.09
1020.29
1020.5
1020.71
1020.86
1020.84
1020.75
1020.63
1020.55
1020.54
1020.59
1020.7
1020.53
1019.86
1018.85
1017.77
1016.81
1016
1015.23
1014.05
1012.95
1013.05
1.1615
1.16178
1.16224
1.163
1.16442
1.16579
1.16655
1.16727
1.16796
1.16836
1.16857
1.16876
1.16885
1.16889
1.16889
1.1689
1.1689
1.1689
1.1689
1.1689
1.16891
1.16891
1.16891
1.16891
1.16891
1.16892
1.16892
1.16892
1.16892
1.16892
1.16892
1.16892
1.16893
1.16893
1.16893
1.16893
1.16893
1.16893
1.16893
1.16894
1.16894
1.16894
1.16899
1.16918
1.17001
1.17251
1.17771
1.18812
1.20495
1.22908
1.27237
1.29397
1.28444
1.28273
1.28181
1.28098
1.28031
1.28026
1.27623
213.541
1005.56
1016.85
1017
1017.4
1017.66
1017.79
1017.91
1017.99
1018.15
1018.36
1018.54
1018.66
1018.74
1018.84
1018.97
1019.17
1019.38
1019.56
1019.67
1019.68
1019.46
1019.15
1018.88
1018.68
1018.58
1018.76
1018.95
1018.83
1018.45
1017.99
1017.7
1017.52
1017.81
1019.44
1021.33
1023.85
1.16135
1.16154
1.16181
1.16242
1.16368
1.1651
1.16678
1.16738
1.16796
1.16839
1.16859
1.16875
1.16884
1.16888
1.16889
1.1689
1.1689
1.16891
1.16891
1.16891
1.16891
1.16891
1.16891
1.16892
1.16892
1.16892
1.16892
1.16892
1.16892
1.16892
1.16892
1.16893
1.16893
1.16893
1.16893
1.16893
1.16893
1.16893
1.16893
1.16894
1.16894
1.16894
1.16897
1.16914
1.16998
1.17233
1.17737
1.18921
1.2084
1.2293
1.25688
1.29342
1.29198
1.28762
1.28567
1.28476
1.28032
1.28032
1.27623
119.477
1007.99
1023.21
1023.36
1023.61
1023.64
1023.57
1023.5
1023.49
1023.52
1023.66
1023.87
1024.13
1024.37
1024.64
1024.89
1025.14
1025.32
1025.4
1025.31
1025.11
1024.76
1024.26
1023.73
1023.27
1022.88
1022.65
1022.59
1022.52
1022.38
1022.31
1022.27
1022.83
1023.82
1025.11
1026.12
1026.63
1.1612
1.16135
1.16146
1.16188
1.16302
1.16445
1.16637
1.16759
1.168
1.16837
1.16858
1.16871
1.16879
1.16884
1.16888
1.16889
1.1689
1.1689
1.1689
1.16891
1.16891
1.16891
1.16891
1.16891
1.16892
1.16892
1.16892
1.16892
1.16892
1.16892
1.16893
1.16893
1.16893
1.16893
1.16893
1.16893
1.16893
1.16893
1.16893
1.16894
1.16894
1.16894
1.16896
1.16909
1.16986
1.17191
1.17648
1.18891
1.2106
1.23143
1.25039
1.27873
1.29178
1.29606
1.29143
1.29184
1.28088
1.29156
1.27623
65.3363
1015.16
1026.62
1026.67
1026.74
1026.74
1026.75
1026.71
1026.7
1026.7
1026.72
1026.75
1026.8
1026.85
1026.9
1026.94
1026.97
1026.99
1026.99
1026.97
1026.94
1026.89
1026.82
1026.74
1026.68
1026.62
1026.58
1026.56
1026.51
1026.48
1026.46
1026.5
1026.62
1026.83
1026.98
1027.06
1027.08
1.16113
1.16123
1.16123
1.16142
1.16246
1.16388
1.16599
1.16765
1.16809
1.1684
1.16854
1.16869
1.16878
1.16886
1.16889
1.1689
1.1689
1.1689
1.1689
1.16891
1.16891
1.16891
1.16891
1.16891
1.16892
1.16892
1.16892
1.16892
1.16892
1.16892
1.16893
1.16893
1.16893
1.16893
1.16893
1.16893
1.16894
1.16894
1.16894
1.16894
1.16894
1.16895
1.16895
1.16904
1.16972
1.1716
1.17554
1.1871
1.2116
1.23609
1.25388
1.27104
1.28708
1.29653
1.29408
1.29421
1.28882
1.33807
1.31535
37.3637
1015.4
1027.09
1027.09
1027.09
1027.09
1027.09
1027.09
1027.09
1027.09
1027.09
1027.09
1027.09
1027.09
1027.09
1027.1
1027.1
1027.1
1027.1
1027.1
1027.1
1027.1
1027.1
1027.09
1027.09
1027.09
1027.09
1027.09
1027.09
1027.09
1027.09
1027.09
1027.09
1027.1
1027.1
1027.1
1027.1
1.16102
1.16118
1.16112
1.16111
1.16188
1.16318
1.16545
1.16726
1.16812
1.16847
1.16861
1.16874
1.16883
1.1689
1.16891
1.16892
1.16891
1.16891
1.16891
1.16891
1.16891
1.16891
1.16892
1.16892
1.16892
1.16892
1.16892
1.16892
1.16893
1.16893
1.16893
1.16893
1.16893
1.16893
1.16893
1.16894
1.16894
1.16894
1.16894
1.16894
1.16895
1.16895
1.16896
1.16901
1.16959
1.17127
1.17447
1.18306
1.2079
1.23576
1.25709
1.27052
1.27987
1.29391
1.29209
1.29707
1.31078
1.39711
1.41321
19.8026
989.566
1027.09
1027.09
1027.09
1027.1
1027.1
1027.1
1027.1
1027.1
1027.1
1027.1
1027.1
1027.1
1027.1
1027.1
1027.1
1027.1
1027.1
1027.1
1027.1
1027.1
1027.1
1027.1
1027.1
1027.1
1027.1
1027.1
1027.1
1027.1
1027.1
1027.1
1027.1
1027.1
1027.1
1027.1
1027.1
1.16095
1.16117
1.16107
1.16105
1.16144
1.16236
1.16447
1.16675
1.16814
1.16847
1.1686
1.16872
1.16881
1.16888
1.16891
1.16892
1.16892
1.16892
1.16892
1.16892
1.16892
1.16892
1.16892
1.16892
1.16892
1.16892
1.16893
1.16893
1.16893
1.16893
1.16893
1.16893
1.16893
1.16893
1.16894
1.16894
1.16894
1.16894
1.16894
1.16894
1.16895
1.16895
1.16896
1.16901
1.16946
1.17091
1.17347
1.17933
1.19981
1.22858
1.25482
1.26784
1.27511
1.28413
1.28437
1.29352
1.32057
1.42088
1.46418
27.8165
984.93
1027.09
1027.09
1027.09
1027.1
1027.1
1027.1
1027.1
1027.1
1027.1
1027.1
1027.1
1027.1
1027.1
1027.1
1027.1
1027.1
1027.1
1027.1
1027.1
1027.1
1027.1
1027.1
1027.1
1027.1
1027.1
1027.1
1027.1
1027.1
1027.1
1027.1
1027.1
1027.1
1027.1
1027.1
1027.1
1.16094
1.16136
1.16139
1.16142
1.16136
1.16193
1.16341
1.16601
1.16803
1.16847
1.1686
1.16869
1.16877
1.16885
1.1689
1.16891
1.16892
1.16892
1.16892
1.16892
1.16892
1.16892
1.16892
1.16892
1.16892
1.16892
1.16892
1.16893
1.16893
1.16893
1.16893
1.16893
1.16893
1.16893
1.16894
1.16894
1.16894
1.16894
1.16894
1.16894
1.16895
1.16895
1.16896
1.16901
1.16931
1.17047
1.17269
1.17745
1.19098
1.21608
1.24184
1.26534
1.2746
1.27759
1.27457
1.2878
1.33148
1.38768
1.52008
27.4249
976.258
1026.97
1027.09
1027.09
1027.1
1027.1
1027.1
1027.1
1027.1
1027.1
1027.1
1027.1
1027.1
1027.1
1027.1
1027.1
1027.1
1027.1
1027.1
1027.1
1027.1
1027.1
1027.1
1027.1
1027.1
1027.1
1027.1
1027.1
1027.1
1027.1
1027.1
1027.1
1027.1
1027.1
1027.1
1027.1
1.16052
1.16082
1.16102
1.16167
1.16201
1.16192
1.16285
1.16541
1.16794
1.16852
1.16865
1.16872
1.16878
1.16886
1.16892
1.16892
1.16892
1.16892
1.16893
1.16893
1.16893
1.16893
1.16893
1.16893
1.16893
1.16893
1.16893
1.16893
1.16893
1.16894
1.16894
1.16894
1.16894
1.16894
1.16894
1.16894
1.16895
1.16895
1.16895
1.16895
1.16895
1.16896
1.16897
1.16903
1.16928
1.17009
1.17197
1.17563
1.18287
1.19844
1.21796
1.2578
1.28236
1.29032
1.29412
1.32066
1.32448
1.3469
1.63245
41.7313
956.41
1026.38
1027.09
1027.09
1027.1
1027.1
1027.1
1027.1
1027.1
1027.1
1027.1
1027.1
1027.1
1027.1
1027.1
1027.1
1027.1
1027.1
1027.1
1027.1
1027.1
1027.1
1027.1
1027.1
1027.1
1027.1
1027.1
1027.1
1027.1
1027.1
1027.1
1027.1
1027.1
1027.1
1027.1
1027.1
1.16309
1.16432
1.16502
1.16552
1.16595
1.16662
1.16757
1.1683
1.16862
1.16872
1.16879
1.16885
1.16889
1.16891
1.16892
1.16892
1.16892
1.16892
1.16892
1.16892
1.16892
1.16893
1.16893
1.16893
1.16893
1.16893
1.16893
1.16894
1.16894
1.16894
1.16894
1.16894
1.16894
1.16895
1.16895
1.16895
1.16895
1.16895
1.16895
1.16895
1.16895
1.16896
1.16897
1.16902
1.16945
1.1714
1.17562
1.18397
1.20014
1.22628
1.2513
1.27065
1.29407
1.3157
1.32472
1.33301
1.33551
1.34483
2.447
88.805
1006.03
1027.04
1027.09
1027.1
1027.1
1027.1
1027.1
1027.1
1027.1
1027.1
1027.1
1027.1
1027.1
1027.1
1027.1
1027.1
1027.1
1027.1
1027.1
1027.1
1027.1
1027.1
1027.1
1027.1
1027.1
1027.1
1027.1
1027.1
1027.1
1027.1
1027.1
1027.1
1027.1
1027.1
1027.1
1027.1
1.16225
1.16387
1.16547
1.16603
1.1667
1.16739
1.16778
1.16802
1.16826
1.16845
1.16862
1.16876
1.16885
1.1689
1.16891
1.16892
1.16892
1.16892
1.16892
1.16892
1.16892
1.16893
1.16893
1.16893
1.16893
1.16893
1.16893
1.16893
1.16894
1.16894
1.16894
1.16894
1.16894
1.16894
1.16894
1.16894
1.16894
1.16894
1.16895
1.16895
1.16895
1.16896
1.16901
1.16921
1.16971
1.17102
1.17405
1.18187
1.19914
1.22324
1.23423
1.25806
1.3017
1.32372
1.32339
1.32776
1.32738
1.35866
1.78801
118.223
1018
1027.09
1027.09
1027.1
1027.1
1027.1
1027.1
1027.1
1027.1
1027.1
1027.1
1027.1
1027.1
1027.1
1027.1
1027.1
1027.1
1027.1
1027.1
1027.1
1027.1
1027.1
1027.1
1027.1
1027.1
1027.1
1027.1
1027.1
1027.1
1027.1
1027.1
1027.1
1027.1
1027.1
1027.1
1027.1
1.16185
1.16297
1.16496
1.16581
1.1665
1.16699
1.16742
1.16775
1.16805
1.16831
1.16853
1.16871
1.16882
1.16889
1.16891
1.16891
1.16892
1.16892
1.16892
1.16892
1.16892
1.16892
1.16892
1.16893
1.16893
1.16893
1.16893
1.16893
1.16893
1.16893
1.16893
1.16894
1.16894
1.16894
1.16894
1.16894
1.16894
1.16894
1.16894
1.16894
1.16895
1.16896
1.16899
1.16913
1.16964
1.17082
1.17339
1.1788
1.19002
1.20522
1.22973
1.28673
1.31641
1.32255
1.31247
1.31425
1.31034
1.35764
1.59103
148.615
1018.31
1027.09
1027.09
1027.09
1027.09
1027.09
1027.09
1027.09
1027.1
1027.1
1027.1
1027.1
1027.1
1027.1
1027.1
1027.1
1027.1
1027.1
1027.1
1027.1
1027.1
1027.1
1027.1
1027.1
1027.1
1027.1
1027.1
1027.1
1027.1
1027.1
1027.1
1027.1
1027.1
1027.1
1027.1
1027.1
1.16168
1.16216
1.16419
1.16514
1.16594
1.16667
1.16724
1.16764
1.16798
1.16827
1.1685
1.16869
1.16881
1.16888
1.1689
1.16891
1.16891
1.16891
1.16892
1.16892
1.16892
1.16892
1.16892
1.16892
1.16892
1.16892
1.16893
1.16893
1.16893
1.16893
1.16893
1.16893
1.16893
1.16893
1.16894
1.16894
1.16894
1.16894
1.16894
1.16894
1.16894
1.16895
1.16898
1.16906
1.16944
1.17064
1.17353
1.17845
1.18259
1.19095
1.2587
1.30817
1.316
1.31555
1.30516
1.30378
1.30176
1.37112
1.50571
155.603
1025.06
1026.79
1026.8
1026.84
1026.82
1026.85
1026.9
1026.96
1027.01
1027.04
1027.06
1027.07
1027.08
1027.09
1027.09
1027.09
1027.09
1027.09
1027.09
1027.1
1027.1
1027.1
1027.1
1027.1
1027.1
1027.1
1027.1
1027.1
1027.1
1027.1
1027.1
1027.1
1027.1
1027.1
1027.1
1027.1
1.16156
1.16166
1.16361
1.16469
1.16552
1.16637
1.16707
1.16757
1.16794
1.16825
1.16849
1.16869
1.16881
1.16888
1.1689
1.16891
1.16891
1.16891
1.16891
1.16892
1.16892
1.16892
1.16892
1.16892
1.16892
1.16892
1.16892
1.16893
1.16893
1.16893
1.16893
1.16893
1.16893
1.16893
1.16893
1.16893
1.16894
1.16894
1.16894
1.16894
1.16894
1.16895
1.16897
1.16905
1.1694
1.17073
1.17436
1.1813
1.18719
1.20088
1.29653
1.3079
1.30303
1.30327
1.31144
1.30449
1.32456
1.37135
1.39192
246.77
1018.16
1022.36
1022.05
1022.06
1022.05
1022.72
1023.18
1023.73
1024.18
1024.5
1024.69
1024.85
1025.04
1025.24
1025.44
1025.69
1025.94
1026.22
1026.5
1026.71
1026.85
1026.95
1027.02
1027.06
1027.08
1027.09
1027.1
1027.1
1027.1
1027.1
1027.1
1027.1
1027.1
1027.1
1027.1
1027.1
1.16139
1.16135
1.16301
1.16429
1.16518
1.16609
1.16688
1.16747
1.1679
1.16824
1.16849
1.16869
1.16881
1.16888
1.1689
1.16891
1.16891
1.16891
1.16891
1.16891
1.16892
1.16892
1.16892
1.16892
1.16892
1.16892
1.16892
1.16892
1.16893
1.16893
1.16893
1.16893
1.16893
1.16893
1.16893
1.16893
1.16894
1.16894
1.16894
1.16894
1.16894
1.16895
1.16897
1.16904
1.1694
1.17096
1.17495
1.18262
1.19322
1.21157
1.30046
1.30183
1.28995
1.28851
1.29956
1.31361
1.32902
1.35173
1.29901
265.956
1005.09
1012.4
1010.41
1009.9
1009.81
1009.92
1009.63
1009.45
1009.4
1010.03
1010.43
1010.66
1010.72
1010.89
1011.37
1012.25
1013.43
1015.07
1016.98
1018.85
1020.59
1022.08
1023.31
1024.38
1025.22
1025.83
1026.27
1026.55
1026.72
1026.84
1026.94
1027.02
1027.07
1027.1
1027.1
1027.1
1.16122
1.16107
1.16237
1.16381
1.1649
1.16587
1.16674
1.16741
1.16787
1.16823
1.16848
1.16869
1.16881
1.16888
1.1689
1.16891
1.16891
1.16891
1.16891
1.16891
1.16891
1.16892
1.16892
1.16892
1.16892
1.16892
1.16892
1.16892
1.16892
1.16893
1.16893
1.16893
1.16893
1.16893
1.16893
1.16893
1.16894
1.16894
1.16894
1.16894
1.16894
1.16895
1.16897
1.16904
1.16941
1.17105
1.17521
1.18313
1.19678
1.20983
1.27347
1.29782
1.28488
1.2827
1.28875
1.30129
1.30892
1.32017
1.27623
296.615
998.216
1006.51
1004.59
1003.96
1003.92
1002.95
1002.11
1001.1
1000.17
999.528
998.988
997.85
996.324
994.742
993.429
992.645
992.338
993.066
994.236
995.248
996.769
998.537
1000.41
1002.61
1004.92
1007.06
1008.95
1011.06
1013.41
1015.47
1017.74
1020.07
1022.21
1025.13
1026.94
1026.96
1.16109
1.16086
1.1618
1.16315
1.16454
1.16565
1.16664
1.16736
1.16786
1.16823
1.16849
1.1687
1.16881
1.16888
1.1689
1.16891
1.16891
1.16891
1.16891
1.16891
1.16892
1.16892
1.16892
1.16892
1.16892
1.16892
1.16892
1.16892
1.16893
1.16893
1.16893
1.16893
1.16893
1.16893
1.16893
1.16893
1.16894
1.16894
1.16894
1.16894
1.16894
1.16895
1.16897
1.16904
1.16941
1.17107
1.17539
1.18351
1.19841
1.21953
1.24695
1.29192
1.28347
1.28153
1.2827
1.28647
1.28944
1.2963
1.27775
231.688
993.084
1007.27
1006.23
1005.91
1005.05
1003.5
1001.94
1000.29
998.963
997.903
996.842
995.045
992.88
991.069
989.71
988.714
987.56
986.717
985.888
984.635
982.899
980.59
977.941
975.871
974.732
974.238
974.027
973.629
972.93
971.368
968.836
963.806
956.11
938.657
892.038
688.115
1.16095
1.1607
1.16128
1.16235
1.1639
1.16529
1.16652
1.16733
1.16786
1.16824
1.1685
1.16871
1.16882
1.16888
1.1689
1.16891
1.16891
1.16891
1.16891
1.16892
1.16892
1.16892
1.16892
1.16892
1.16892
1.16892
1.16892
1.16893
1.16893
1.16893
1.16893
1.16893
1.16893
1.16893
1.16894
1.16894
1.16894
1.16894
1.16894
1.16894
1.16895
1.16896
1.16897
1.16904
1.16941
1.17106
1.1755
1.18373
1.19891
1.2214
1.24297
1.27543
1.28627
1.28484
1.28269
1.28767
1.28032
1.28737
1.27623
162.145
1003.98
1020.89
1021.41
1021.79
1021.86
1021.88
1021.49
1021.09
1020.62
1020.05
1019.3
1018.55
1017.71
1017
1016.42
1015.55
1014.43
1012.77
1010.71
1008.13
1004.79
999.707
992.619
984.15
976.386
971.188
969.289
967.983
965.373
961.614
956.09
949.192
940.935
935.44
932.919
937.994
1.16084
1.16057
1.16085
1.16157
1.16292
1.16462
1.1663
1.1673
1.16786
1.16826
1.16852
1.16872
1.16883
1.16888
1.1689
1.16891
1.16891
1.16891
1.16892
1.16892
1.16892
1.16892
1.16892
1.16892
1.16892
1.16892
1.16893
1.16893
1.16893
1.16893
1.16893
1.16893
1.16893
1.16894
1.16894
1.16894
1.16894
1.16894
1.16894
1.16894
1.16895
1.16896
1.16897
1.16904
1.16941
1.17081
1.17493
1.1833
1.19644
1.2167
1.23969
1.26135
1.27679
1.28386
1.28313
1.28928
1.28063
1.29334
1.27623
91.665
1011.71
1025.42
1025.5
1025.63
1025.61
1025.67
1025.74
1025.82
1025.9
1025.91
1025.78
1025.65
1025.47
1025.31
1025.18
1025.05
1024.92
1024.73
1024.49
1024.15
1023.57
1022.61
1021.16
1019.46
1017.9
1016.7
1014.75
1012.83
1011.34
1009.28
1006.8
1004.77
1003.86
1006.35
1013.89
1021.07
1.16072
1.16046
1.16053
1.16085
1.16173
1.16349
1.16581
1.16714
1.16784
1.16826
1.16854
1.16874
1.16883
1.16888
1.1689
1.16891
1.16891
1.16891
1.16892
1.16892
1.16892
1.16892
1.16892
1.16892
1.16892
1.16893
1.16893
1.16893
1.16893
1.16893
1.16893
1.16893
1.16894
1.16894
1.16894
1.16894
1.16894
1.16894
1.16894
1.16894
1.16895
1.16896
1.16898
1.16905
1.16939
1.17052
1.17395
1.18178
1.19566
1.21326
1.23258
1.26123
1.26975
1.28564
1.28455
1.28864
1.28135
1.29846
1.27623
60.6017
1014.57
1026.89
1026.89
1026.92
1026.91
1026.92
1026.93
1026.95
1026.97
1026.99
1027
1027
1027
1027
1027
1027
1026.99
1026.98
1026.97
1026.94
1026.91
1026.85
1026.78
1026.72
1026.68
1026.68
1026.68
1026.65
1026.65
1026.58
1026.53
1026.5
1026.62
1026.78
1026.93
1027.03
1.16062
1.16034
1.16034
1.16041
1.16084
1.16206
1.16488
1.16692
1.16784
1.16829
1.16857
1.16876
1.16884
1.16888
1.1689
1.16891
1.16891
1.16891
1.16892
1.16892
1.16892
1.16892
1.16892
1.16892
1.16892
1.16893
1.16893
1.16893
1.16893
1.16893
1.16893
1.16893
1.16894
1.16894
1.16894
1.16894
1.16894
1.16894
1.16894
1.16894
1.16895
1.16896
1.16898
1.16905
1.16931
1.17024
1.17307
1.1798
1.19449
1.21849
1.2384
1.26184
1.27352
1.2882
1.28154
1.28677
1.29283
1.35104
1.37232
26.7671
991.171
1027.09
1027.09
1027.09
1027.09
1027.09
1027.09
1027.09
1027.09
1027.09
1027.09
1027.1
1027.1
1027.1
1027.1
1027.1
1027.1
1027.1
1027.1
1027.1
1027.09
1027.09
1027.09
1027.09
1027.09
1027.1
1027.1
1027.1
1027.1
1027.1
1027.1
1027.1
1027.1
1027.1
1027.1
1027.1
1.16056
1.16026
1.16023
1.16022
1.16036
1.16094
1.1633
1.16643
1.1679
1.16834
1.16861
1.16877
1.16883
1.16888
1.1689
1.16891
1.16891
1.16891
1.16892
1.16892
1.16892
1.16892
1.16892
1.16892
1.16892
1.16893
1.16893
1.16893
1.16893
1.16893
1.16893
1.16893
1.16893
1.16894
1.16894
1.16894
1.16894
1.16894
1.16894
1.16894
1.16895
1.16896
1.16898
1.16904
1.16927
1.17006
1.17242
1.17792
1.18918
1.21608
1.24223
1.26413
1.27439
1.28534
1.2798
1.28357
1.33167
1.45932
1.50838
26.3558
995.683
1027.09
1027.09
1027.09
1027.1
1027.1
1027.1
1027.1
1027.1
1027.1
1027.1
1027.1
1027.1
1027.1
1027.1
1027.1
1027.1
1027.1
1027.1
1027.1
1027.1
1027.1
1027.1
1027.1
1027.1
1027.1
1027.1
1027.1
1027.1
1027.1
1027.1
1027.1
1027.1
1027.1
1027.1
1027.1
1.16055
1.1603
1.16018
1.16018
1.16014
1.16028
1.16152
1.1649
1.16796
1.16842
1.16864
1.16876
1.1688
1.16886
1.1689
1.16891
1.16891
1.16891
1.16891
1.16892
1.16892
1.16892
1.16892
1.16892
1.16892
1.16892
1.16892
1.16893
1.16893
1.16893
1.16893
1.16893
1.16893
1.16893
1.16893
1.16893
1.16893
1.16894
1.16894
1.16894
1.16894
1.16895
1.16897
1.16903
1.16924
1.16999
1.17206
1.1769
1.18676
1.20978
1.24078
1.26219
1.27315
1.28299
1.27979
1.29731
1.39934
1.53509
1.67853
25.7191
975.896
1027.09
1027.09
1027.09
1027.1
1027.1
1027.1
1027.1
1027.1
1027.1
1027.1
1027.1
1027.1
1027.1
1027.1
1027.1
1027.1
1027.1
1027.1
1027.1
1027.1
1027.1
1027.1
1027.1
1027.1
1027.1
1027.1
1027.1
1027.1
1027.1
1027.1
1027.1
1027.1
1027.1
1027.1
1027.1
1.16067
1.16069
1.16044
1.16049
1.1601
1.16009
1.16036
1.16296
1.16748
1.16849
1.16864
1.16872
1.16877
1.16884
1.1689
1.16891
1.16891
1.16891
1.16891
1.16892
1.16892
1.16892
1.16892
1.16892
1.16892
1.16892
1.16892
1.16892
1.16892
1.16892
1.16892
1.16893
1.16893
1.16893
1.16893
1.16893
1.16893
1.16893
1.16893
1.16894
1.16894
1.16895
1.16897
1.16903
1.16925
1.17003
1.17194
1.17623
1.18549
1.20373
1.22745
1.25443
1.27518
1.28083
1.28468
1.36892
1.41327
1.41296
1.71372
22.232
949.927
1026.76
1027.09
1027.09
1027.1
1027.1
1027.1
1027.1
1027.1
1027.1
1027.1
1027.1
1027.1
1027.1
1027.1
1027.1
1027.1
1027.1
1027.1
1027.1
1027.1
1027.1
1027.1
1027.1
1027.1
1027.1
1027.1
1027.1
1027.1
1027.1
1027.1
1027.1
1027.1
1027.1
1027.1
1027.1
1.16041
1.16082
1.16065
1.16091
1.16033
1.1602
1.16018
1.16189
1.1669
1.16852
1.16864
1.16871
1.16877
1.16885
1.16891
1.16892
1.16892
1.16892
1.16892
1.16892
1.16892
1.16892
1.16892
1.16892
1.16893
1.16893
1.16893
1.16893
1.16893
1.16893
1.16893
1.16894
1.16894
1.16894
1.16894
1.16894
1.16894
1.16894
1.16895
1.16895
1.16895
1.16896
1.16898
1.16905
1.16927
1.17
1.17177
1.17519
1.18122
1.19337
1.21134
1.25051
1.27734
1.29629
1.29685
1.31676
1.33211
1.35565
1.77803
39.3197
939.842
1026.09
1027.09
1027.09
1027.1
1027.1
1027.1
1027.1
1027.1
1027.1
1027.1
1027.1
1027.1
1027.1
1027.1
1027.1
1027.1
1027.1
1027.1
1027.1
1027.1
1027.1
1027.1
1027.1
1027.1
1027.1
1027.1
1027.1
1027.1
1027.1
1027.1
1027.1
1027.1
1027.1
1027.1
1027.1
1.16254
1.16378
1.16469
1.16533
1.16583
1.16654
1.16758
1.16841
1.16865
1.16874
1.16881
1.16886
1.16889
1.16891
1.16891
1.16891
1.16891
1.16891
1.16892
1.16892
1.16892
1.16892
1.16892
1.16892
1.16892
1.16892
1.16893
1.16893
1.16893
1.16893
1.16893
1.16893
1.16894
1.16894
1.16894
1.16894
1.16894
1.16894
1.16894
1.16894
1.16895
1.16895
1.16896
1.16899
1.16943
1.17134
1.1753
1.18297
1.19932
1.22567
1.2504
1.26712
1.28125
1.29962
1.3111
1.32557
1.32927
1.34935
2.71721
74.8416
999.274
1026.98
1027.09
1027.1
1027.1
1027.1
1027.1
1027.1
1027.1
1027.1
1027.1
1027.1
1027.1
1027.1
1027.1
1027.1
1027.1
1027.1
1027.1
1027.1
1027.1
1027.1
1027.1
1027.1
1027.1
1027.1
1027.1
1027.1
1027.1
1027.1
1027.1
1027.1
1027.1
1027.1
1027.1
1027.1
1.16156
1.16315
1.16531
1.16579
1.16624
1.16704
1.16791
1.1683
1.16848
1.16859
1.16871
1.16881
1.16887
1.1689
1.16891
1.16891
1.16891
1.16891
1.16892
1.16892
1.16892
1.16892
1.16892
1.16892
1.16893
1.16893
1.16893
1.16893
1.16893
1.16893
1.16893
1.16893
1.16894
1.16894
1.16894
1.16894
1.16894
1.16894
1.16894
1.16894
1.16894
1.16895
1.16898
1.16909
1.16954
1.17124
1.17504
1.18254
1.1984
1.2224
1.2404
1.24991
1.27363
1.29756
1.30233
1.31004
1.31646
1.36776
2.18045
84.3159
1011.23
1027.09
1027.09
1027.1
1027.1
1027.1
1027.1
1027.1
1027.1
1027.1
1027.1
1027.1
1027.1
1027.1
1027.1
1027.1
1027.1
1027.1
1027.1
1027.1
1027.1
1027.1
1027.1
1027.1
1027.1
1027.1
1027.1
1027.1
1027.1
1027.1
1027.1
1027.1
1027.1
1027.1
1027.1
1027.1
1.16112
1.16238
1.16529
1.16602
1.16654
1.16727
1.16786
1.16811
1.16829
1.16847
1.16864
1.16877
1.16885
1.16889
1.1689
1.1689
1.1689
1.16891
1.16891
1.16891
1.16891
1.16891
1.16891
1.16892
1.16892
1.16892
1.16892
1.16892
1.16892
1.16892
1.16892
1.16892
1.16893
1.16893
1.16893
1.16893
1.16893
1.16893
1.16893
1.16893
1.16893
1.16895
1.16901
1.16918
1.16968
1.17129
1.17458
1.18064
1.19534
1.21959
1.23705
1.26754
1.29798
1.3089
1.30311
1.30057
1.29788
1.35662
1.78639
98.2814
1020.31
1027.09
1027.09
1027.1
1027.1
1027.1
1027.1
1027.1
1027.1
1027.1
1027.1
1027.1
1027.1
1027.1
1027.1
1027.1
1027.1
1027.1
1027.1
1027.1
1027.1
1027.1
1027.1
1027.1
1027.1
1027.1
1027.1
1027.1
1027.1
1027.1
1027.1
1027.1
1027.1
1027.1
1027.1
1027.1
1.16089
1.16146
1.16476
1.16587
1.1665
1.16723
1.16774
1.16795
1.1682
1.16843
1.16861
1.16876
1.16884
1.16889
1.1689
1.1689
1.1689
1.16891
1.16891
1.16891
1.16891
1.16891
1.16891
1.16891
1.16891
1.16891
1.16892
1.16892
1.16892
1.16892
1.16892
1.16892
1.16892
1.16893
1.16893
1.16893
1.16893
1.16893
1.16893
1.16893
1.16894
1.16894
1.16901
1.16925
1.16988
1.17147
1.17432
1.17941
1.1901
1.20883
1.24846
1.29829
1.30984
1.30874
1.30222
1.30235
1.29501
1.32491
1.47815
128.184
1025.44
1027.01
1027.02
1027.03
1027.04
1027.05
1027.07
1027.08
1027.08
1027.09
1027.09
1027.1
1027.1
1027.1
1027.1
1027.09
1027.1
1027.1
1027.1
1027.1
1027.1
1027.1
1027.1
1027.1
1027.1
1027.1
1027.1
1027.1
1027.1
1027.1
1027.1
1027.1
1027.1
1027.1
1027.1
1027.1
1.16084
1.16104
1.1632
1.16564
1.1664
1.16715
1.1676
1.16786
1.16815
1.1684
1.1686
1.16875
1.16884
1.16888
1.1689
1.1689
1.1689
1.16891
1.16891
1.16891
1.16891
1.16891
1.16891
1.16891
1.16891
1.16892
1.16892
1.16892
1.16892
1.16892
1.16892
1.16892
1.16892
1.16892
1.16893
1.16893
1.16893
1.16893
1.16893
1.16895
1.16897
1.16899
1.16902
1.1693
1.16998
1.17122
1.17353
1.17744
1.18308
1.19674
1.28828
1.30801
1.30447
1.30377
1.30393
1.30283
1.29349
1.30949
1.544
219.466
1022.17
1025.66
1025.79
1025.99
1026.05
1025.99
1026.01
1026.18
1026.39
1026.58
1026.69
1026.77
1026.78
1026.8
1026.85
1026.9
1026.93
1026.94
1026.95
1026.96
1026.98
1027
1027.03
1027.06
1027.08
1027.09
1027.1
1027.1
1027.1
1027.1
1027.1
1027.1
1027.1
1027.1
1027.1
1027.1
1.16095
1.16105
1.16207
1.16514
1.16629
1.16708
1.16746
1.16778
1.1681
1.16839
1.16861
1.16875
1.16883
1.16888
1.16889
1.1689
1.1689
1.1689
1.1689
1.16891
1.16891
1.16891
1.16891
1.16891
1.16891
1.16892
1.16892
1.16892
1.16892
1.16892
1.16892
1.16892
1.16892
1.16892
1.16892
1.16893
1.16893
1.16893
1.16893
1.16896
1.16901
1.16906
1.1691
1.16931
1.16986
1.17079
1.17309
1.17726
1.18187
1.20793
1.2992
1.30475
1.30012
1.29962
1.30393
1.31102
1.30418
1.3233
1.51646
237.852
1012.87
1021.25
1021.58
1022.06
1022.15
1021.07
1020.44
1020.13
1020.35
1020.64
1020.97
1021.42
1021.99
1022.69
1023.37
1023.91
1024.3
1024.52
1024.64
1024.82
1025.04
1025.22
1025.45
1025.77
1026.13
1026.49
1026.79
1026.97
1027.05
1027.08
1027.09
1027.09
1027.09
1027.1
1027.1
1027.1
1.16096
1.16095
1.16195
1.16462
1.16614
1.16709
1.16747
1.16778
1.16812
1.16839
1.16858
1.16873
1.16882
1.16887
1.16889
1.16889
1.1689
1.1689
1.1689
1.1689
1.16891
1.16891
1.16891
1.16892
1.16892
1.16892
1.16892
1.16892
1.16892
1.16892
1.16893
1.16893
1.16893
1.16893
1.16893
1.16893
1.16893
1.16893
1.16894
1.16895
1.16897
1.16905
1.16919
1.16934
1.16971
1.17089
1.17319
1.1787
1.18766
1.19747
1.27687
1.30218
1.29354
1.2903
1.29453
1.30396
1.30086
1.3469
1.53651
246.519
1004.81
1016.67
1017.12
1017.76
1017.83
1015.7
1013.92
1012.73
1012.21
1012.03
1012.57
1013.18
1014.13
1015.22
1016.39
1017.28
1017.66
1017.7
1017.65
1017.88
1018.36
1018.79
1019.29
1019.89
1020.63
1021.47
1022.56
1023.88
1025.08
1026.15
1026.75
1026.96
1026.98
1026.96
1027.08
1027.1
1.16084
1.1608
1.16173
1.16375
1.16571
1.16689
1.16742
1.1677
1.16802
1.16818
1.1685
1.16869
1.1688
1.16887
1.16889
1.16889
1.16889
1.1689
1.1689
1.1689
1.1689
1.1689