/*--------------------------------*- C++ -*----------------------------------*\
| =========                 |                                                 |
| \\      /  F ield         | OpenFOAM: The Open Source CFD Toolbox           |
|  \\    /   O peration     | Version:  2.3.0                                 |
|   \\  /    A nd           | Web:      www.OpenFOAM.org                      |
|    \\/     M anipulation  |                                                 |
\*---------------------------------------------------------------------------*/
FoamFile
{
    version     2.0;
    format      ascii;
    class       volVectorField;
    location    "31";
    object      U.air;
}
// * * * * * * * * * * * * * * * * * * * * * * * * * * * * * * * * * * * * * //

dimensions      [0 1 -1 0 0 0 0];

internalField   nonuniform List<vector> 
6144
(
(0.0106336 0.0191522 -0.000823607)
(0.0104633 -0.00458105 -0.00217864)
(0.00439436 -0.00341816 -0.00285244)
(0.00421285 -0.00483899 -0.00285096)
(0.00293498 -0.00349616 -0.00266536)
(0.00281282 -0.00128138 -0.00243945)
(0.00240217 0.000184073 -0.00160971)
(0.00235255 0.00167122 -0.000717513)
(0.0018304 0.00220191 -0.000152885)
(0.00141176 0.00383895 0.000556788)
(0.00126915 0.00482818 0.000989029)
(0.00140095 0.00515519 0.00135493)
(0.0016326 0.0047497 0.00147436)
(0.00181189 0.00391267 0.00162354)
(0.00191466 0.00285236 0.00144625)
(0.0020062 0.00190284 0.00123894)
(0.00205933 0.00107958 0.000911327)
(0.00212309 0.000521701 0.0006342)
(0.00217833 0.00010526 0.000342669)
(0.00221109 -0.000119509 0.000164595)
(0.00222557 -0.000241912 4.19322e-05)
(0.00222568 -0.000255061 -1.73433e-05)
(0.00221153 -0.000227729 -3.02442e-05)
(0.00218661 -0.000163552 -6.10635e-06)
(0.00215162 -8.8953e-05 4.80895e-05)
(0.00211156 -1.44145e-05 0.000125677)
(0.00206809 4.77734e-05 0.00021952)
(0.00202099 9.14197e-05 0.000335091)
(0.00197069 0.000120375 0.000470517)
(0.00192413 0.000128116 0.000600059)
(0.00188335 0.000124666 0.000715447)
(0.00184116 8.22967e-05 0.000812856)
(0.00179958 7.05479e-05 0.00089224)
(0.00175485 3.23175e-05 0.000953377)
(0.00171447 8.34886e-05 0.00102497)
(0.00166657 4.76702e-05 0.001084)
(0.00162311 0.000177813 0.00118919)
(0.00156874 6.27035e-05 0.0012679)
(0.00152522 0.000285718 0.00142766)
(0.00146391 -7.41614e-05 0.00148278)
(0.00144481 0.000344432 0.00162497)
(0.00137429 -0.000355796 0.00156797)
(0.00139971 0.000566554 0.00165951)
(0.00130562 -0.000521873 0.00151055)
(0.00130588 0.00132094 0.00157335)
(0.00120645 -0.000261186 0.00153651)
(0.000966966 0.00281201 0.00145797)
(0.000874006 0.000612995 0.00152303)
(0.000534198 0.00550881 0.00131709)
(0.000920532 0.00116517 0.00121926)
(0.00587661 0.00839487 -0.000423228)
(0.00946517 -0.0116841 -0.00509983)
(0.00924155 0.00539629 -0.00869445)
(0.00687013 -0.00281834 -0.00962017)
(0.010804 0.0323987 -0.00818526)
(0.0142272 -0.0231757 -0.0147726)
(0.00723135 0.0330378 -0.00550235)
(0.0052238 -0.0312158 -0.0223104)
(-0.044873 0.0346093 -0.117249)
(0.0124566 0.0760176 -0.065306)
(0.0547714 0.351654 0.0233586)
(0.0286979 0.367302 -0.00632448)
(0.026567 -0.12216 -0.00883142)
(0.0329942 -0.15231 -0.00748132)
(0.0356855 -0.16731 -0.00609578)
(0.0336232 -0.191648 -0.0070331)
(0.0313148 -0.216892 -0.00854846)
(0.0289077 -0.238494 -0.00848132)
(0.0248841 -0.253808 -0.00858226)
(0.0216017 -0.264369 -0.00829024)
(0.0161611 -0.266321 -0.00759205)
(0.0117781 -0.262007 -0.00709163)
(0.00771749 -0.251545 -0.00598752)
(0.00260268 -0.232956 -0.00578351)
(-0.000156191 -0.208911 -0.00465974)
(-0.00511984 -0.18137 -0.00546623)
(-0.00814718 -0.147284 -0.00539846)
(-0.0113908 -0.117646 -0.00615633)
(-0.0180517 -0.0791589 -0.0117282)
(-0.0133291 -0.0322153 -0.0070209)
(-0.00489178 -0.00793869 0.00305125)
(0.000860131 -0.00592382 0.00882571)
(0.00394172 -0.0167637 0.0123568)
(0.00447176 -0.0331134 0.0122009)
(0.00287853 -0.0465497 0.0109502)
(-0.000737772 -0.055964 0.0112004)
(-0.00557382 -0.0606752 0.0101824)
(-0.00869192 -0.0601158 0.00852933)
(-0.00847343 -0.0566209 0.00601286)
(-0.00713394 -0.0467094 0.00241308)
(-0.00326297 -0.0399495 0.00105991)
(-0.00124796 -0.0400384 0.000491658)
(-0.00176347 -0.0396048 -0.000383025)
(-0.00323488 -0.0364139 -0.00137195)
(-0.0048323 -0.0281343 -0.00152553)
(-0.0093913 -0.0131729 -0.00708398)
(0.0216532 0.0210814 0.00272241)
(0.0218072 0.00680751 0.00118712)
(0.0121215 0.005239 -0.00190792)
(0.0110731 0.00278949 -0.000899505)
(0.00672104 0.000646606 -0.000338542)
(0.00554135 0.000724163 0.000882815)
(0.00331508 0.000178279 0.00230584)
(0.00278134 0.00170835 0.00263723)
(0.00188907 0.00308323 0.00245732)
(0.001512 0.00547516 0.00281645)
(0.00177922 0.00639732 0.00330005)
(0.00240179 0.00662738 0.00387969)
(0.00293536 0.00598633 0.00409455)
(0.00340302 0.00513733 0.00421888)
(0.00359916 0.00395495 0.00416329)
(0.00374147 0.00291021 0.0041092)
(0.00375649 0.00191971 0.00400661)
(0.00381182 0.00120906 0.00391274)
(0.00387683 0.000651258 0.00375349)
(0.00391408 0.000314774 0.00362707)
(0.00391296 9.95041e-05 0.00354982)
(0.00388225 1.79447e-05 0.00352714)
(0.00382749 -5.81206e-06 0.00354929)
(0.00375099 2.51611e-05 0.00361008)
(0.00365988 7.56619e-05 0.0036975)
(0.00355912 0.000133954 0.0038038)
(0.00345183 0.000185279 0.00392404)
(0.00333937 0.000224767 0.00405259)
(0.00322476 0.000256866 0.00418475)
(0.00311719 0.000268396 0.00429489)
(0.00303577 0.000270954 0.00437455)
(0.00294791 0.000227202 0.00444684)
(0.00286326 0.000222599 0.00450971)
(0.00276042 0.000169071 0.004566)
(0.00268125 0.000228026 0.0046208)
(0.00257148 0.000158148 0.00467265)
(0.00250981 0.000303204 0.00474326)
(0.00238423 0.0001228 0.00479826)
(0.00237742 0.000390155 0.00488937)
(0.00222394 -3.9108e-05 0.00491423)
(0.00229597 0.00051198 0.00501191)
(0.00202798 -0.000233289 0.00498809)
(0.00218183 0.000944539 0.00510511)
(0.00174644 -0.000289563 0.00508874)
(0.00181524 0.00184198 0.00518054)
(0.00140492 -0.000367039 0.00520895)
(0.0011023 0.00296483 0.00489801)
(0.000851043 -0.000740481 0.00465572)
(0.000621659 0.00474634 0.00410654)
(0.00166591 -0.0027023 0.00491348)
(0.0125468 -0.000242908 0.0025859)
(0.017263 -0.0143055 -0.00283235)
(0.0110215 0.00829026 -0.00632851)
(0.0104051 0.00535047 -0.00355486)
(0.0236155 0.0374753 0.00436417)
(0.0402344 -0.0197496 0.0045977)
(-0.00841993 0.0108888 0.0104687)
(0.0135329 -0.0145355 -0.0241392)
(0.0431892 0.0885158 -0.0801232)
(0.104852 0.0623864 -0.0266292)
(0.0712286 0.353115 0.0466509)
(0.0371169 0.390713 0.0050219)
(0.0424253 -0.0910822 -0.0100902)
(0.0576865 -0.0978934 0.00245186)
(0.0575239 -0.11495 0.00377864)
(0.0557793 -0.149268 0.00245258)
(0.0521591 -0.177885 0.000940887)
(0.0444849 -0.200424 -0.000676)
(0.0343814 -0.21616 -0.00230105)
(0.022172 -0.225269 -0.00207131)
(0.0106935 -0.227458 -0.00205426)
(-0.00161488 -0.223101 -0.000771452)
(-0.0134022 -0.214113 0.000391079)
(-0.0214458 -0.197891 6.44653e-05)
(-0.0288326 -0.17883 0.00064368)
(-0.0324904 -0.156469 -0.00315667)
(-0.0313584 -0.126956 -0.00301142)
(-0.0311929 -0.100259 -0.00346152)
(-0.0319642 -0.0685697 -0.00987684)
(-0.0284657 -0.0332221 -0.00476708)
(-0.0145693 -0.0167449 0.00756433)
(-0.00126343 -0.020607 0.0190025)
(0.0032842 -0.0331034 0.0257202)
(-0.000571703 -0.0475597 0.0255264)
(-0.00753573 -0.0566097 0.0216449)
(-0.0137315 -0.0611773 0.0168355)
(-0.0175049 -0.0611443 0.0124489)
(-0.0175107 -0.0587805 0.00910741)
(-0.0149397 -0.053227 0.00503858)
(-0.0109797 -0.0445931 0.000595343)
(-0.00317649 -0.036813 -0.00082355)
(0.00292502 -0.0385481 -0.00315708)
(0.00159438 -0.0392203 -0.00475681)
(-0.00288925 -0.0362027 -0.00626057)
(-0.0145632 -0.0292848 -0.00526632)
(-0.0223464 -0.0115475 -0.00663844)
(0.0255942 0.0229415 0.00437581)
(0.0258694 0.0139086 0.00380997)
(0.01747 0.0114646 0.0013101)
(0.0152973 0.00967755 0.00277846)
(0.00913536 0.00531915 0.00280839)
(0.00616707 0.00380776 0.00330619)
(0.0021298 0.00118647 0.00383895)
(0.000743381 0.00179266 0.00364019)
(-0.000670013 0.00319673 0.00322421)
(-0.000385934 0.00555003 0.00361113)
(0.000467538 0.00617892 0.00406773)
(0.00146442 0.00640935 0.00462623)
(0.00213297 0.00591532 0.00478986)
(0.00274359 0.00534089 0.00486466)
(0.0030485 0.00440414 0.00478165)
(0.00325323 0.00357763 0.00473973)
(0.00324544 0.00270618 0.00469209)
(0.00325116 0.0020274 0.0046738)
(0.0031842 0.00143303 0.004665)
(0.00310302 0.00102706 0.0046729)
(0.00299438 0.000716742 0.00469905)
(0.00288007 0.000528424 0.00473862)
(0.00276227 0.000406983 0.00478846)
(0.00264061 0.000354704 0.0048508)
(0.00251683 0.000339703 0.00491782)
(0.00239198 0.000350587 0.00498599)
(0.0022665 0.000371751 0.00505606)
(0.00213956 0.000394224 0.00512774)
(0.00201421 0.000413536 0.0052007)
(0.00188623 0.000417528 0.00527463)
(0.00176895 0.000422652 0.00535205)
(0.00164131 0.000406314 0.00542405)
(0.00151435 0.000419823 0.00549372)
(0.00135583 0.000379526 0.00555537)
(0.00123038 0.000426026 0.00561691)
(0.00106354 0.000346234 0.00567479)
(0.000970523 0.000443313 0.00574118)
(0.000797163 0.000287249 0.00579604)
(0.000768982 0.000540053 0.00587254)
(0.00053656 0.000294403 0.00588861)
(0.000564073 0.000870893 0.00596041)
(0.000187511 0.00043713 0.0059535)
(0.000293936 0.00149175 0.00603854)
(-0.000164125 0.000432014 0.00606152)
(4.23202e-05 0.00213312 0.00609637)
(-0.000409223 -0.000370643 0.0061179)
(-4.21737e-05 0.00267527 0.00562766)
(-0.00103819 -0.00147744 0.00533176)
(0.00015758 0.00452239 0.00453106)
(0.00286594 -0.00365629 0.00654902)
(0.0159354 -0.000373898 0.00365992)
(0.0181112 -0.00315524 -0.000334198)
(0.0098458 0.0191477 -0.00224773)
(0.0073155 0.00225828 0.00164495)
(0.0254426 0.0372508 0.0139075)
(0.0533538 -0.0378678 0.00835589)
(-0.0249801 0.0265587 0.0188327)
(-0.0374678 -0.0856817 0.0134077)
(0.00215796 0.0904951 -0.10201)
(0.106522 0.0474194 -0.00336903)
(0.103093 0.352794 0.0461105)
(0.0774099 0.417144 0.00133817)
(0.0815035 -0.0747812 -0.00993324)
(0.0907882 -0.0495987 0.00281858)
(0.0851285 -0.0861443 0.00348669)
(0.0869925 -0.117041 0.00126907)
(0.0812227 -0.141061 -0.00295465)
(0.0682125 -0.156041 -0.00718686)
(0.0511407 -0.163821 -0.00873166)
(0.0343088 -0.165608 -0.00721971)
(0.0161225 -0.164563 -0.0043233)
(-0.00218468 -0.161842 -0.000115756)
(-0.0183588 -0.158795 0.00315307)
(-0.0310487 -0.148216 0.00312648)
(-0.0411359 -0.134884 0.00491756)
(-0.0520003 -0.121168 0.0047006)
(-0.0568745 -0.0975532 -5.4573e-05)
(-0.0544695 -0.0743823 -0.00564118)
(-0.0544764 -0.0487842 -0.0076123)
(-0.0458134 -0.024411 -0.000300329)
(-0.0230431 -0.0215337 0.0155664)
(-0.00803398 -0.0312293 0.0305218)
(-0.00862999 -0.0415247 0.0358564)
(-0.016324 -0.0488554 0.0320951)
(-0.0242081 -0.0538809 0.0251538)
(-0.0294644 -0.055207 0.0174685)
(-0.030847 -0.0528126 0.0119863)
(-0.028184 -0.0505022 0.00670225)
(-0.0214743 -0.0433724 0.00277821)
(-0.014744 -0.0346677 -0.00311514)
(-0.000813228 -0.0242496 -0.00620109)
(0.0101157 -0.0303304 -0.00273639)
(0.008325 -0.034023 -0.00423909)
(0.00109265 -0.0322658 -0.00683619)
(-0.0185525 -0.0249008 -0.0088726)
(-0.03843 -0.0117144 -0.00782545)
(0.0275375 0.0232555 0.00440955)
(0.0288254 0.0178312 0.00500536)
(0.0196974 0.0141662 0.00288825)
(0.0180266 0.0134315 0.00290172)
(0.0113358 0.00862005 0.00285068)
(0.00857484 0.00690579 0.00302922)
(0.00260054 0.00203005 0.00368625)
(-0.000163642 0.00102053 0.00333095)
(-0.00262743 0.00111034 0.00303854)
(-0.00198091 0.00382026 0.00355103)
(-0.000771238 0.00461356 0.00423487)
(0.000183341 0.00542437 0.00497817)
(0.000947282 0.00542856 0.00513951)
(0.00161409 0.00521113 0.00519814)
(0.0018907 0.00446758 0.00504567)
(0.00207528 0.00376166 0.00499431)
(0.00201726 0.00299407 0.00496799)
(0.00198054 0.00242852 0.00497906)
(0.00188697 0.00188656 0.00497038)
(0.00177121 0.001457 0.00497637)
(0.00163565 0.00108271 0.00499424)
(0.00149186 0.000812867 0.00502757)
(0.00132935 0.000613736 0.00506538)
(0.00115893 0.000489329 0.00511145)
(0.000994575 0.000414023 0.00516825)
(0.000838564 0.000379173 0.00523104)
(0.000689141 0.000369183 0.00529728)
(0.000545932 0.000373683 0.00536537)
(0.000411413 0.000387978 0.00543312)
(0.000282969 0.000399264 0.00549858)
(0.000169233 0.000418435 0.00556257)
(4.37642e-05 0.000421074 0.00562129)
(-7.26261e-05 0.000453373 0.00568229)
(-0.000220906 0.000436873 0.00573927)
(-0.000329384 0.000495933 0.00579714)
(-0.000483387 0.000438506 0.005847)
(-0.000559475 0.000560212 0.00589802)
(-0.000728861 0.000465394 0.00591481)
(-0.000756225 0.00073911 0.00595133)
(-0.00098589 0.000592624 0.0059228)
(-0.000959344 0.00112839 0.00596273)
(-0.00127039 0.000727948 0.00594222)
(-0.00109798 0.00158151 0.00604692)
(-0.00145511 0.000439016 0.00606528)
(-0.000942754 0.00189044 0.00615258)
(-0.00155299 -0.000315917 0.00602719)
(-0.0008402 0.00254668 0.00535412)
(-0.00229815 0.00055794 0.0049747)
(0.000247884 0.00497246 0.00440551)
(0.00332508 0.000240056 0.00654788)
(0.0125443 0.00944649 0.00344821)
(0.014229 0.0216518 0.00059363)
(0.0140535 0.030847 0.00237906)
(0.00824089 0.00864076 0.00721113)
(0.0329072 0.0245923 0.0224242)
(0.0437666 -0.0444999 0.0129454)
(-0.0165665 0.0441361 0.034591)
(-0.050934 -0.111074 0.0353363)
(0.0368313 0.109227 -0.130513)
(0.12156 0.0287397 0.00276294)
(0.116179 0.409924 0.0432728)
(0.0877082 0.538033 -0.00462877)
(0.0900697 0.40472 -0.00294624)
(0.0898907 0.390038 0.000618869)
(0.0976207 -0.0343014 0.00264917)
(0.102662 -0.0598573 -0.00260806)
(0.0941321 -0.0745105 -0.00957738)
(0.0750665 -0.0752014 -0.0137462)
(0.0523347 -0.0715228 -0.0129314)
(0.0328447 -0.0640529 -0.00842628)
(0.0101811 -0.0652734 -0.00251162)
(-0.0122141 -0.0703647 0.00286183)
(-0.0332831 -0.0754894 0.00400646)
(-0.049971 -0.0740187 0.00166359)
(-0.0611369 -0.0687641 -0.00017402)
(-0.0678499 -0.060696 -0.000469878)
(-0.0692851 -0.050612 0.00251398)
(-0.071099 -0.0379071 0.00175218)
(-0.0684433 -0.0191575 -0.00219818)
(-0.0509213 -0.0126005 0.0054362)
(-0.0288012 -0.0229797 0.0286574)
(-0.027319 -0.0315715 0.0407529)
(-0.0328469 -0.0361102 0.0395045)
(-0.0397906 -0.043186 0.0301555)
(-0.0424836 -0.0453211 0.0209872)
(-0.0420397 -0.0445178 0.0134117)
(-0.038779 -0.0415995 0.00746155)
(-0.0317678 -0.0377416 0.00290513)
(-0.0249247 -0.0281688 -0.00321022)
(-0.0145592 -0.0145264 -0.0116966)
(0.00389136 -0.00706614 -0.00328992)
(0.0144971 -0.0159537 0.011643)
(0.0121423 -0.0243041 0.00880917)
(0.00274964 -0.0242365 0.00321714)
(-0.0210966 -0.0200619 -0.00609093)
(-0.0472854 -0.00977946 -0.00932858)
(0.0282339 0.0226843 0.00499783)
(0.0304426 0.0200343 0.00550641)
(0.021322 0.0151408 0.00309736)
(0.0202988 0.0153943 0.00248926)
(0.0136314 0.0100023 0.00214748)
(0.0118137 0.0092181 0.00177079)
(0.00500378 0.00381509 0.00195804)
(0.00089002 0.00260096 0.00240524)
(-0.00381364 -0.000663155 0.00259721)
(-0.00409532 0.00159717 0.00322613)
(-0.00278408 0.00258021 0.00398568)
(-0.00200286 0.00409422 0.00497115)
(-0.00118514 0.00468632 0.00513478)
(-0.00039912 0.00489249 0.00521172)
(-3.43832e-06 0.00435112 0.00499389)
(9.99048e-05 0.00367866 0.00492606)
(-0.000162812 0.00293802 0.00490099)
(-0.000376365 0.0024497 0.00493805)
(-0.000578383 0.00198453 0.00493894)
(-0.000754329 0.00159657 0.00493683)
(-0.000938376 0.0012269 0.00492683)
(-0.00111349 0.000924091 0.00491946)
(-0.00128917 0.00066922 0.00492446)
(-0.00146071 0.000490181 0.0049441)
(-0.00162239 0.000369663 0.00497358)
(-0.00177156 0.000298642 0.00501326)
(-0.00190747 0.000262455 0.00505987)
(-0.00203108 0.000251722 0.00511054)
(-0.0021402 0.00025997 0.00516179)
(-0.00223787 0.000269714 0.00520554)
(-0.00232408 0.000294694 0.00523334)
(-0.00242151 0.00031132 0.00524913)
(-0.00251775 0.000358898 0.00526967)
(-0.00264902 0.000356158 0.00528914)
(-0.00274152 0.000431267 0.00531718)
(-0.00288012 0.000401765 0.00533105)
(-0.00295194 0.000552268 0.00534265)
(-0.00311613 0.000514533 0.00531973)
(-0.00315896 0.000811634 0.00530623)
(-0.00337388 0.000729528 0.00524175)
(-0.00336325 0.00121958 0.00524125)
(-0.0036165 0.000882314 0.00519295)
(-0.00342995 0.00166335 0.00527821)
(-0.00370752 0.000785703 0.00523908)
(-0.0032491 0.00225264 0.00525024)
(-0.0038027 0.00105152 0.00496)
(-0.00377774 0.00377172 0.00408857)
(-0.00431739 0.00350178 0.00361112)
(-0.00208729 0.00728178 0.00230626)
(-0.000390724 0.00864051 0.00244972)
(0.00335909 0.0219026 -0.00136967)
(0.012322 0.0311141 0.0017191)
(0.0157636 0.0360158 0.00702506)
(0.0127204 0.0109872 0.0165843)
(0.0410908 0.00789734 0.0287847)
(0.0405944 -0.0474018 0.019497)
(-0.00742163 0.00145269 0.0583278)
(-0.0774769 -0.121554 0.0850628)
(0.0323205 0.0730604 -0.138683)
(0.111914 0.0297845 0.0155523)
(0.119807 0.414779 0.0392028)
(0.0892293 0.582634 -0.0118764)
(0.102291 0.470539 0.00570699)
(0.0984188 0.525933 -6.87109e-06)
(0.118764 0.460644 0.00394897)
(0.107029 0.4467 -0.00623901)
(0.0945432 0.341854 -0.0113324)
(0.0868755 0.0196779 -0.00917113)
(0.0640231 -0.00203156 -0.0083151)
(0.0465578 0.00286421 -0.00118317)
(0.0259289 -0.00317411 0.0052381)
(0.00125328 -0.010504 0.00874216)
(-0.0250346 -0.0188712 0.00883831)
(-0.0470335 -0.0231146 0.00708794)
(-0.065038 -0.0223313 0.00565554)
(-0.0795196 -0.0165991 0.00366455)
(-0.0871757 -0.00792884 -0.000114274)
(-0.085935 0.000318687 -0.00485788)
(-0.0724489 0.00283404 0.00197021)
(-0.0530941 -0.00676312 0.0265318)
(-0.0468323 -0.0146157 0.0451687)
(-0.0495362 -0.0202161 0.0456644)
(-0.0529602 -0.0289203 0.0381454)
(-0.0530308 -0.0338725 0.0276432)
(-0.0502833 -0.034014 0.0176995)
(-0.0456742 -0.0323291 0.00919196)
(-0.0388509 -0.0274811 0.00177137)
(-0.0321682 -0.0186262 -0.00544006)
(-0.0249088 -0.00484922 -0.0122647)
(-0.0126516 0.00630372 -0.0058246)
(0.00240769 0.00650018 0.0123765)
(0.0123664 0.00134967 0.0255591)
(0.00945131 -0.0119293 0.026782)
(0.000592688 -0.0147549 0.0186945)
(-0.0222031 -0.0108426 -2.63487e-05)
(-0.0581317 -0.00678308 -0.00857546)
(0.0267373 0.0218466 0.00908313)
(0.0314718 0.0209438 0.00655266)
(0.0219075 0.0152433 0.00277229)
(0.0226099 0.0168128 0.00181556)
(0.0154314 0.0104873 0.000873834)
(0.0142009 0.0102155 0.00053001)
(0.00723473 0.00455452 0.000410172)
(0.00380445 0.00432861 0.00131292)
(-0.00232854 -0.000706004 0.00209117)
(-0.00509197 -9.57718e-05 0.00265448)
(-0.0043222 -5.07708e-05 0.003101)
(-0.00329993 0.002002 0.0044649)
(-0.00209656 0.00336347 0.004894)
(-0.000967333 0.00404531 0.00527043)
(-0.000292233 0.00372642 0.00529393)
(-0.000148346 0.0031791 0.00531797)
(-0.000618399 0.00253126 0.00524203)
(-0.00102735 0.0021628 0.00522374)
(-0.00137494 0.00184196 0.00515798)
(-0.00165273 0.00159109 0.00509155)
(-0.00190268 0.00133738 0.00500841)
(-0.00212199 0.00111319 0.00492166)
(-0.00233693 0.000898693 0.00484113)
(-0.00253409 0.000723281 0.00477501)
(-0.0027043 0.00058774 0.00471896)
(-0.00284434 0.000497087 0.0046777)
(-0.00296544 0.000448175 0.00464679)
(-0.00306529 0.00043151 0.00462427)
(-0.00314272 0.000441162 0.00460401)
(-0.00320744 0.000458733 0.00457625)
(-0.00327091 0.000489596 0.00453991)
(-0.00334871 0.000497345 0.00450122)
(-0.0034157 0.000542318 0.00447985)
(-0.00352195 0.000538902 0.00445857)
(-0.00358085 0.000632602 0.00445379)
(-0.00370999 0.000640938 0.00442754)
(-0.00375689 0.000833325 0.00441063)
(-0.00391451 0.000853836 0.00435315)
(-0.00393302 0.0011518 0.00431761)
(-0.00411174 0.00108418 0.00423011)
(-0.00408132 0.00150389 0.00420171)
(-0.0042592 0.00116848 0.00412139)
(-0.00408841 0.00193281 0.00418222)
(-0.00425393 0.00130773 0.00409548)
(-0.00401795 0.00295381 0.0040853)
(-0.00435074 0.0024836 0.00376698)
(-0.0050446 0.00530834 0.00294049)
(-0.00533843 0.00531465 0.00255695)
(-0.00513852 0.00963874 0.001175)
(-0.00295608 0.0121089 0.00049226)
(-0.00102514 0.0227412 -0.0024302)
(0.0110795 0.0266815 0.000618709)
(0.0186255 0.0364971 0.00959177)
(0.0220069 0.00305421 0.0276023)
(0.0487754 -0.00101172 0.0474078)
(0.0410634 -0.03499 0.0496475)
(-0.0144876 0.01035 0.082985)
(-0.075506 -0.099709 0.0977443)
(0.0312741 0.0545558 -0.157734)
(0.0971802 0.0236236 0.0146794)
(0.0964689 0.442265 0.029797)
(0.070495 0.601895 -0.0130968)
(0.0966623 0.517124 0.00826596)
(0.0949776 0.539289 0.00686817)
(0.118459 0.452683 0.00936727)
(0.115488 0.4261 0.00559159)
(0.104109 0.543206 -0.00304276)
(0.0747086 0.527459 -0.00645043)
(0.0518202 0.526026 -0.00586836)
(0.0222096 0.533178 -0.00222018)
(-0.00221452 0.529447 -0.00106171)
(-0.0257821 0.522513 -0.000667141)
(-0.0470356 0.511866 -0.00236938)
(-0.0636524 0.507591 -0.00339666)
(-0.0742752 0.501613 -0.00298856)
(-0.07981 0.498764 0.0012499)
(-0.0794117 0.492634 0.00953443)
(-0.074959 0.491455 0.0242445)
(-0.0691774 0.484719 0.0397047)
(-0.0696187 0.46918 0.0475152)
(-0.0734666 0.435713 0.0425824)
(-0.0738413 0.320897 0.0337344)
(-0.0705654 0.00927028 0.0280844)
(-0.063593 -0.0166556 0.0156938)
(-0.0554331 -0.0192473 0.00573794)
(-0.04694 -0.0181581 -0.00242154)
(-0.0394859 -0.0132156 -0.00782496)
(-0.0334207 -0.00450381 -0.0105053)
(-0.0256349 0.00719332 -0.00730809)
(-0.016362 0.018683 0.00392349)
(-0.00809089 0.023132 0.0180094)
(-0.000180908 0.0203835 0.0331216)
(-0.000643281 0.00699826 0.0442933)
(-0.0136296 -0.0127536 0.0378038)
(-0.0246054 -0.0125021 0.0122635)
(-0.0581408 -0.00437536 -0.00647243)
(0.0229047 0.0199568 0.0093622)
(0.0310475 0.0231207 0.00773983)
(0.0209472 0.0146199 0.00232057)
(0.023554 0.0183916 0.00171586)
(0.0169839 0.0102951 7.37141e-05)
(0.016113 0.0103294 0.000651828)
(0.0087258 0.00264738 9.78757e-05)
(0.00522333 0.00439909 0.000520063)
(-0.000522494 0.000117182 0.00147848)
(-0.00484215 0.00020113 0.00242666)
(-0.00578081 -0.00140871 0.00246101)
(-0.00663806 0.000485732 0.00370683)
(-0.00537668 0.0022591 0.00454269)
(-0.00341276 0.00304912 0.00558932)
(-0.00256003 0.00294793 0.00602365)
(-0.00244106 0.00258531 0.00626319)
(-0.00320573 0.00204315 0.00614954)
(-0.00390811 0.00176295 0.00602862)
(-0.00441491 0.00156653 0.00582372)
(-0.00475393 0.00147445 0.00562417)
(-0.00500633 0.00139881 0.00542899)
(-0.00518564 0.00134526 0.00525129)
(-0.00532981 0.00127278 0.00509014)
(-0.00546826 0.00120614 0.00496412)
(-0.00558004 0.00114673 0.00486781)
(-0.00568265 0.00110314 0.00480857)
(-0.00574964 0.00107836 0.00475512)
(-0.00579346 0.00106985 0.00469568)
(-0.00580867 0.00108601 0.00464339)
(-0.0057942 0.00110646 0.00460384)
(-0.00576684 0.00112702 0.0045747)
(-0.00576404 0.00112137 0.00455131)
(-0.00578358 0.00114656 0.00454571)
(-0.00584869 0.00115 0.00453714)
(-0.00589537 0.00125154 0.00453977)
(-0.00600156 0.00130525 0.00452665)
(-0.00603906 0.00151092 0.00453576)
(-0.00613618 0.00159454 0.00450412)
(-0.00613267 0.00184875 0.00449593)
(-0.00621733 0.00183216 0.00443692)
(-0.0061923 0.00214392 0.00440049)
(-0.0062854 0.00185096 0.00433517)
(-0.00628353 0.00249648 0.00431928)
(-0.00642983 0.00196971 0.00427429)
(-0.00666009 0.00353424 0.00422489)
(-0.00670666 0.0030573 0.00406628)
(-0.00778662 0.00558875 0.00329161)
(-0.00728791 0.00470122 0.00286183)
(-0.00874112 0.00846436 0.00119758)
(-0.00605652 0.0076536 0.000592946)
(-0.00470961 0.0175499 -0.00114673)
(0.00772422 0.0151826 -0.000522287)
(0.018758 0.0287772 0.00789952)
(0.0282817 -0.00073261 0.0321204)
(0.0320517 0.00545889 0.0606257)
(0.00823198 -0.00900935 0.0511899)
(-0.0211292 0.0144872 0.0904674)
(-0.0565772 -0.0940072 0.10761)
(0.035926 0.00706546 -0.156323)
(0.0616452 0.0274671 0.00862817)
(0.0628089 0.501551 0.0175434)
(0.0524098 0.601253 -0.00817293)
(0.0836767 0.535697 0.00780409)
(0.0935232 0.535948 0.0120847)
(0.113333 0.413322 0.01658)
(0.120538 0.573187 0.0147667)
(0.117612 0.602496 0.00996272)
(0.100842 0.577245 0.00230518)
(0.0747696 0.58735 -0.00287935)
(0.0435083 0.575267 -0.00415883)
(0.0187084 0.568641 -0.00400434)
(-0.0104037 0.565919 -0.00282902)
(-0.0302287 0.556701 -0.00173784)
(-0.0504698 0.520265 0.0029239)
(-0.0671355 0.567411 0.010726)
(-0.0781638 0.521394 0.0204558)
(-0.0854117 0.428211 0.0305988)
(-0.0881759 0.27277 0.0361709)
(-0.0912995 0.321381 0.0453355)
(-0.0910679 0.509591 0.0415122)
(-0.0835082 0.485818 0.0310965)
(-0.0685971 0.493272 0.0169249)
(-0.0538444 0.477312 0.00658015)
(-0.045778 0.464461 0.000693055)
(-0.0361203 0.469546 -0.00599249)
(-0.0356552 0.489211 -0.00556396)
(-0.0347687 0.481081 -0.00482959)
(-0.0329007 0.499975 -0.00233481)
(-0.0292372 0.511358 0.00132196)
(-0.0242462 0.502403 0.00837684)
(-0.0194012 0.50997 0.0228157)
(-0.0175626 0.487705 0.0382927)
(-0.0186185 0.348198 0.0516117)
(-0.0206693 0.0281334 0.0521252)
(-0.044043 -0.0079725 0.0342752)
(-0.0725144 -0.00269518 -0.000260881)
(0.0209913 0.0157474 0.00769797)
(0.0296009 0.0255262 0.00770889)
(0.0188568 0.0134925 0.000778148)
(0.0238736 0.0203038 0.000896103)
(0.0179149 0.00975289 -0.00127684)
(0.0177743 0.0109546 0.000369321)
(0.00868328 0.000553571 -0.000313992)
(0.00447452 0.0028513 -0.000507871)
(-0.000206418 0.000296877 0.00178003)
(-0.00397467 0.00169349 0.00277102)
(-0.00573157 -0.00105335 0.00277192)
(-0.00691943 -0.000659703 0.0041826)
(-0.00538039 -0.000425244 0.00544924)
(-0.00325224 0.000321706 0.00674127)
(-0.00237686 0.00060829 0.00762353)
(-0.00217389 0.00110735 0.00831488)
(-0.00280845 0.00135147 0.00848784)
(-0.00349037 0.0016372 0.00844898)
(-0.00405901 0.00179795 0.00821947)
(-0.0044714 0.00190363 0.00793716)
(-0.0047755 0.00194615 0.00765046)
(-0.00497402 0.00197606 0.00738947)
(-0.00512185 0.00196273 0.00715535)
(-0.00524412 0.00193082 0.0069529)
(-0.00533357 0.00188766 0.00678581)
(-0.00539575 0.00184892 0.00664546)
(-0.00543705 0.0018243 0.00652731)
(-0.00544558 0.00181287 0.0064284)
(-0.0054345 0.0018054 0.00633683)
(-0.00539775 0.00179198 0.00625389)
(-0.00534591 0.00177434 0.00618702)
(-0.00531374 0.00174704 0.00613512)
(-0.0053143 0.00175931 0.00610501)
(-0.0053619 0.00176991 0.00606637)
(-0.00540714 0.0018796 0.00603282)
(-0.00550613 0.00195055 0.00597295)
(-0.0055456 0.00215436 0.00592496)
(-0.00563637 0.00224896 0.00581732)
(-0.00562646 0.00244581 0.00573773)
(-0.00565449 0.00241151 0.00561819)
(-0.00558864 0.00263507 0.00552789)
(-0.00555889 0.00236798 0.00542963)
(-0.00557786 0.00298358 0.00535559)
(-0.00563466 0.00254257 0.00527604)
(-0.00614475 0.00405128 0.00502484)
(-0.00606472 0.00334952 0.00481798)
(-0.00761282 0.00572245 0.00376405)
(-0.00709713 0.00354644 0.00326851)
(-0.00948049 0.00790784 0.00122609)
(-0.00732152 0.00323298 -0.00125265)
(-0.00750782 0.0154332 -0.00299501)
(0.00602318 0.00607669 -0.0014743)
(0.020664 0.0152338 0.00632906)
(0.0300791 -0.00631033 0.0181849)
(0.00996347 -0.00359509 0.0595385)
(-0.0190918 -0.0137911 0.0614818)
(-0.0144754 -0.00666845 0.104004)
(-0.00467628 -0.0992395 0.10211)
(0.0256323 0.00563066 -0.150438)
(0.0179457 0.02848 -0.00911826)
(0.0155706 0.507623 -0.000409864)
(0.0298431 0.620656 -0.0086728)
(0.058887 0.591972 0.00243112)
(0.0813006 0.62678 0.0117072)
(0.107354 0.600475 0.0205231)
(0.109806 0.588218 0.0231541)
(0.109099 0.64206 0.0235214)
(0.0985516 0.667693 0.0208254)
(0.0799502 0.637189 0.017965)
(0.0529289 0.647478 0.0132673)
(0.025799 0.620986 0.0125715)
(-0.00816679 0.628952 0.0143507)
(-0.0317276 0.62146 0.0179774)
(-0.0538917 0.613178 0.0236395)
(-0.0715031 0.600249 0.0302062)
(-0.0834635 0.586271 0.0357978)
(-0.0893662 0.572772 0.0383416)
(-0.0928398 0.572711 0.0381016)
(-0.0923005 0.548491 0.0339035)
(-0.0881919 0.547576 0.0212329)
(-0.0822321 0.546604 0.0111997)
(-0.0746821 0.552988 0.000498547)
(-0.0689136 0.567017 -0.0062461)
(-0.0612471 0.593432 -0.0120735)
(-0.0520164 0.617391 -0.0120941)
(-0.0452153 0.629148 -0.00945759)
(-0.038345 0.635813 -0.00684347)
(-0.0328568 0.652799 -0.00173382)
(-0.0302473 0.66608 0.00264084)
(-0.0259472 0.639041 0.0114928)
(-0.0230911 0.636834 0.0279954)
(-0.0241937 0.619927 0.0388838)
(-0.0285149 0.607848 0.0448281)
(-0.0384956 0.542068 0.0375413)
(-0.0606013 0.512466 0.00731951)
(-0.0773869 0.447381 -0.0299224)
(0.0131116 0.0129872 -0.00218647)
(0.0269246 0.0271093 0.00578651)
(0.0163578 0.0123383 -0.00208)
(0.023347 0.0224569 -0.000107799)
(0.018535 0.009527 -0.00256331)
(0.018712 0.0117024 -0.000500506)
(0.00966771 -0.00012318 -0.00249006)
(0.00290372 0.00138812 -0.0050478)
(-0.00309326 -0.000329767 -0.00258076)
(-0.00524303 0.00233318 -0.0010995)
(-0.00594846 -0.00103061 0.000156106)
(-0.00859295 -0.00117907 0.000922425)
(-0.0084168 -0.00234677 0.00195156)
(-0.00718078 -0.00153738 0.00304582)
(-0.00688706 -0.000856394 0.00402487)
(-0.00715522 0.000126272 0.00490996)
(-0.00785949 0.000817324 0.00550146)
(-0.00851049 0.001417 0.00581469)
(-0.00880835 0.00178672 0.00583831)
(-0.00894311 0.00204141 0.00572829)
(-0.00904031 0.00217651 0.00556954)
(-0.00905224 0.00227383 0.00541236)
(-0.00901402 0.0023092 0.00527528)
(-0.00896808 0.00231245 0.00514721)
(-0.00891039 0.00229519 0.00503045)
(-0.00884657 0.00227141 0.0049239)
(-0.00877729 0.00224762 0.00482822)
(-0.00868904 0.00222909 0.00474089)
(-0.00858378 0.00221673 0.00465077)
(-0.00845149 0.00220285 0.00455872)
(-0.00833568 0.00219145 0.00447171)
(-0.00828287 0.00218246 0.00439728)
(-0.00828594 0.00220616 0.00434195)
(-0.0083262 0.00222434 0.00428237)
(-0.00838091 0.00233317 0.00422801)
(-0.00846992 0.0023995 0.00414259)
(-0.00849647 0.00258377 0.00405662)
(-0.00850384 0.00268162 0.0039095)
(-0.00843229 0.00288255 0.00378889)
(-0.00837567 0.00288347 0.00364484)
(-0.00838089 0.00307772 0.00351377)
(-0.00837257 0.00278347 0.00340866)
(-0.00870108 0.003386 0.00327486)
(-0.00870078 0.00297641 0.00320711)
(-0.00945694 0.00445243 0.00281662)
(-0.0088916 0.00360831 0.00262436)
(-0.0101847 0.00596713 0.00145071)
(-0.00920742 0.00277784 0.00078745)
(-0.011486 0.0075386 -0.000895945)
(-0.010416 0.000636183 -0.00504062)
(-0.0115384 0.0122468 -0.00580331)
(0.0049932 -0.000504094 -0.000665281)
(0.0170494 0.0055256 0.00529978)
(0.0293104 -0.0121192 0.00426169)
(0.00408391 -0.00164271 0.0329406)
(-0.0307976 -0.0458057 0.0500604)
(-0.0277906 -0.039939 0.0731407)
(0.0211225 -0.115712 0.0674494)
(0.00103796 0.0204226 -0.163139)
(-0.00778054 0.0212268 -0.0245927)
(-0.0304968 0.516466 -0.00980537)
(0.00640173 0.582481 -0.00469998)
(0.0325286 0.529273 -0.00190759)
(0.071467 0.482121 0.0150898)
(0.0848949 0.412657 0.0196299)
(0.0952159 0.617789 0.0263716)
(0.101121 0.657704 0.026918)
(0.0940548 0.665971 0.0262098)
(0.0801426 0.673003 0.0254056)
(0.0576726 0.637613 0.0244254)