/*--------------------------------*- C++ -*----------------------------------*\
| =========                 |                                                 |
| \\      /  F ield         | OpenFOAM: The Open Source CFD Toolbox           |
|  \\    /   O peration     | Version:  2.3.0                                 |
|   \\  /    A nd           | Web:      www.OpenFOAM.org                      |
|    \\/     M anipulation  |                                                 |
\*---------------------------------------------------------------------------*/
FoamFile
{
    version     2.0;
    format      ascii;
    class       volVectorField;
    location    "31";
    object      U.airMean;
}
// * * * * * * * * * * * * * * * * * * * * * * * * * * * * * * * * * * * * * //

dimensions      [0 1 -1 0 0 0 0];

internalField   nonuniform List<vector> 
6144
(
(0.00873302 0.0197419 -0.000932902)
(0.00888272 0.00188714 -0.0015864)
(0.00480652 0.000349829 -0.00235063)
(0.00468346 -0.00144754 -0.00229656)
(0.00301151 -0.00239631 -0.00187201)
(0.00293919 -0.00144093 -0.00161214)
(0.00234243 -0.00142243 -0.00125707)
(0.00241375 -0.000259206 -0.00102774)
(0.00228792 0.000261921 -0.00104174)
(0.00226623 0.00142732 -0.000832266)
(0.00221311 0.00217604 -0.000652127)
(0.00233873 0.00272232 -0.000360045)
(0.00247149 0.00262719 -0.000272673)
(0.00260846 0.00229083 -0.000166008)
(0.00267204 0.00173406 -0.000293526)
(0.00273294 0.0012909 -0.000404652)
(0.00276033 0.000873308 -0.000580997)
(0.00279105 0.000618791 -0.00069961)
(0.00281109 0.000403072 -0.000825622)
(0.00282481 0.000290355 -0.000901869)
(0.00282879 0.000202899 -0.000953282)
(0.00282649 0.000171426 -0.000976124)
(0.00281888 0.000153076 -0.000982784)
(0.00280796 0.000157625 -0.000973897)
(0.0027938 0.000167563 -0.000954065)
(0.0027775 0.000183063 -0.000925294)
(0.00275896 0.000200199 -0.000888409)
(0.00273832 0.000216222 -0.000844816)
(0.00271693 0.000238947 -0.000797198)
(0.00269432 0.000245631 -0.000746705)
(0.00267209 0.000274374 -0.000690177)
(0.00264219 0.000234311 -0.000622913)
(0.00261303 0.000274013 -0.000541432)
(0.00257146 0.000131209 -0.000439445)
(0.00253865 0.000172193 -0.000308291)
(0.00249249 -0.000196076 -0.000152398)
(0.00246869 -0.000216416 2.03033e-05)
(0.00243252 -0.000951611 0.000168204)
(0.00243075 -0.00100951 0.000254567)
(0.00242005 -0.00205552 0.000216614)
(0.00243186 -0.00185921 6.13687e-06)
(0.00244324 -0.0027747 -0.000446318)
(0.00246434 -0.00159736 -0.00102156)
(0.00258161 -0.00170025 -0.00157581)
(0.00283079 0.000737321 -0.00199606)
(0.00337724 0.00022994 -0.00224101)
(0.00417997 0.00190307 -0.00280186)
(0.00446461 0.000386171 -0.00380261)
(0.00266591 0.0058095 -0.00505569)
(0.00300658 0.0104411 -0.00709464)
(0.0125031 0.0177779 -0.0101509)
(0.0233504 0.00371499 -0.0113107)
(0.0315174 -0.00259989 -0.0127408)
(0.0342859 -0.0404602 -0.0129709)
(0.0326093 -0.0353898 -0.0157051)
(0.0321257 -0.081241 -0.0114519)
(0.0146352 -0.040345 -0.020207)
(0.0103754 -0.0959132 0.0160483)
(-0.0311776 0.0231353 -0.0536197)
(0.0316567 0.109861 0.0422328)
(0.107753 0.319707 0.0413443)
(0.0457715 0.390941 -0.00403692)
(0.0459507 -0.084738 0.0047638)
(0.0490948 -0.168294 0.00670139)
(0.0401699 -0.175632 0.0062474)
(0.0334139 -0.167943 0.00586153)
(0.0273802 -0.168803 0.00465507)
(0.0228529 -0.162983 0.00382717)
(0.019985 -0.161707 0.00370619)
(0.0180152 -0.155202 0.00395321)
(0.0167693 -0.152683 0.00454271)
(0.0153939 -0.146754 0.00489236)
(0.0136714 -0.141863 0.00539294)
(0.0109741 -0.134062 0.0055203)
(0.00727796 -0.125093 0.00550313)
(0.00428864 -0.112651 0.00496327)
(0.00237812 -0.0998929 0.00353962)
(-0.000348386 -0.0852635 0.00242664)
(-0.00164046 -0.0695852 0.00261917)
(0.000637512 -0.0549668 0.00268104)
(0.00366328 -0.0435012 0.00198611)
(0.00552226 -0.0343088 0.00159797)
(0.00615896 -0.0284764 0.00260825)
(0.00469138 -0.024815 0.00302389)
(0.00336517 -0.0194151 0.00288436)
(0.00332386 -0.0134364 0.0022544)
(0.00319455 -0.0078793 0.00251959)
(0.00234778 -0.00163162 0.00183116)
(0.00095976 0.00541333 0.000245326)
(-0.000395476 0.0149437 -0.00117949)
(0.000434651 0.0243658 -0.000807387)
(0.00126097 0.0315556 0.00117039)
(0.00167499 0.0358155 0.00463854)
(0.00257577 0.0357237 0.00872162)
(0.00445642 0.0312307 0.0120748)
(0.00600837 0.0186579 0.0165073)
(0.0176749 0.0220541 0.00258437)
(0.018488 0.00955823 0.00215067)
(0.0105458 0.00684733 -7.72144e-05)
(0.0107792 0.00500244 0.000724836)
(0.00657908 0.00170483 0.00128709)
(0.00619963 0.00156476 0.00175041)
(0.00427793 8.76303e-05 0.00215346)
(0.00417807 0.00122783 0.00199447)
(0.00378159 0.00163565 0.00181334)
(0.00387034 0.00294822 0.00186326)
(0.0039415 0.00347591 0.00195614)
(0.00439023 0.0038992 0.00230268)
(0.00472478 0.00359053 0.00244146)
(0.00507869 0.00320864 0.00256573)
(0.00518674 0.00253573 0.00250816)
(0.00530064 0.00201142 0.00246355)
(0.00530473 0.00147831 0.0023694)
(0.00534095 0.00114278 0.00231373)
(0.00535178 0.000845812 0.00223401)
(0.00536366 0.000679428 0.00219046)
(0.00535501 0.000545902 0.00216056)
(0.00533678 0.000484536 0.00215923)
(0.00530817 0.000443865 0.00217249)
(0.00527344 0.000435051 0.00220204)
(0.00523386 0.000435995 0.00224078)
(0.00519076 0.000446752 0.00228716)
(0.00514428 0.00046093 0.00233843)
(0.00509384 0.000474738 0.00239408)
(0.00504167 0.000493488 0.00245115)
(0.00499058 0.000494102 0.00250124)
(0.00494507 0.000511702 0.00255066)
(0.0048871 0.00044916 0.00260469)
(0.00484056 0.000468292 0.00266537)
(0.00477413 0.000278066 0.00273232)
(0.00474951 0.000300824 0.00281466)
(0.00470446 -0.000134237 0.00290343)
(0.00473702 -0.00013226 0.00300295)
(0.00472925 -0.000933056 0.00308347)
(0.00480485 -0.000886095 0.00313624)
(0.00479699 -0.00200549 0.00311159)
(0.00480332 -0.00162234 0.00298464)
(0.00472311 -0.00267451 0.00260683)
(0.0046847 -0.00128616 0.00190773)
(0.00464405 -0.00175161 0.00115899)
(0.00508413 0.000721772 0.000667808)
(0.00619154 -0.000327559 0.000384743)
(0.00693312 0.00215438 -0.000587218)
(0.0060797 0.00278276 -0.00191787)
(0.00434451 0.00967657 -0.00240908)
(0.00777929 0.0076752 -0.00288402)
(0.0254488 0.00573111 -0.00435428)
(0.0414981 -0.010293 -0.00433711)
(0.0571729 -0.0116907 -0.00201509)
(0.0609882 -0.0409476 5.70315e-05)
(0.0559139 -0.0275604 0.00442823)
(0.058135 -0.0897758 0.0141577)
(0.0181144 -0.0416883 0.0122107)
(0.00988184 -0.16077 0.0416808)
(-0.0823628 0.0378088 -0.0863532)
(0.0204696 0.0468582 0.0247034)
(0.118627 0.348921 0.0845691)
(0.0244345 0.426318 0.00451654)
(0.0221073 -0.0670227 0.00933637)
(0.0252453 -0.0235291 0.0129558)
(0.0140903 -0.0427588 0.0134859)
(0.00710197 -0.0285158 0.0111909)
(0.00433693 -0.0310858 0.00882255)
(0.00485914 -0.0255116 0.00909535)
(0.00640996 -0.0259542 0.00972721)
(0.00622384 -0.0220159 0.00879726)
(0.00491285 -0.0224429 0.00951842)
(0.00268162 -0.0211754 0.0103659)
(0.000490764 -0.0234846 0.0103194)
(-0.00263662 -0.0248267 0.00890405)
(-0.00531239 -0.0264647 0.00752409)
(-0.00645477 -0.0253877 0.00698396)
(-0.00673436 -0.0229998 0.00579176)
(-0.00785528 -0.0190243 0.00613547)
(-0.00783063 -0.0146634 0.0063226)
(-0.00541539 -0.0105295 0.00642513)
(-0.00255187 -0.00607442 0.00589594)
(0.000126371 -0.00157916 0.00678644)
(0.00167518 -0.0013055 0.00885053)
(0.000434659 -0.00315773 0.00915314)
(-0.00205777 -0.00377867 0.00803431)
(-0.00250587 -0.00334554 0.00784804)
(-0.00240046 -0.00133051 0.00778505)
(-0.0032473 0.001781 0.00706896)
(-0.00387962 0.00551355 0.00556944)
(-0.00400382 0.00967761 0.00283141)
(-0.00326602 0.0145849 0.00208606)
(-0.00201137 0.0198175 0.00181431)
(-0.00128384 0.0257919 0.0045265)
(0.000377516 0.0270557 0.0102761)
(0.00286544 0.024774 0.0156148)
(0.00473173 0.0151745 0.0212212)
(0.0211429 0.0222974 0.00374255)
(0.0226633 0.0134327 0.00351687)
(0.0138688 0.00987327 0.00116961)
(0.0142397 0.009308 0.00203447)
(0.00835122 0.00498212 0.00245213)
(0.00742013 0.00432945 0.00292376)
(0.00401511 0.00163554 0.00342243)
(0.00362306 0.00246204 0.00327801)
(0.0029144 0.00258628 0.00312865)
(0.00327951 0.00369934 0.003236)
(0.00340316 0.0037614 0.0032935)
(0.00413394 0.00407236 0.00356392)
(0.00453312 0.0036805 0.00368179)
(0.00499875 0.00345128 0.00379757)
(0.00513126 0.0028702 0.00376568)
(0.00527076 0.00243944 0.00376019)
(0.00521988 0.00191854 0.00372067)
(0.00522256 0.00157783 0.00371788)
(0.00515477 0.00124363 0.00371299)
(0.00511161 0.00104501 0.00373012)
(0.00504257 0.000873067 0.00374947)
(0.00498143 0.000779456 0.00378095)
(0.0049146 0.000710646 0.00381412)
(0.00485005 0.000680434 0.00385282)
(0.00478542 0.000665061 0.00389315)
(0.00472201 0.000663439 0.00393488)
(0.00465822 0.000666302 0.00397689)
(0.00459327 0.00066749 0.00401968)
(0.00452793 0.00066672 0.00406354)
(0.00446007 0.00064358 0.00410978)
(0.00439723 0.000632497 0.00415843)
(0.00432178 0.000546932 0.00420829)
(0.00426168 0.000534894 0.00426061)
(0.00417707 0.000332552 0.00431338)
(0.00415308 0.000349489 0.00437172)
(0.00410579 -3.05984e-05 0.00442692)
(0.00416438 7.12972e-05 0.00448457)
(0.00416613 -0.00052175 0.00452184)
(0.00428547 -0.000202567 0.00454038)
(0.00429075 -0.000948767 0.0045061)
(0.00437642 -0.000181851 0.00440957)
(0.00425513 -0.000985437 0.00421451)
(0.00416052 0.000419551 0.00389843)
(0.00412901 -0.000484159 0.00344931)
(0.0047097 0.00134236 0.00301433)
(0.00582346 3.83372e-05 0.00267777)
(0.0063227 0.00316625 0.00184606)
(0.00582169 0.00259043 0.000699014)
(0.00614302 0.00761439 0.000641262)
(0.015267 -0.00063414 0.000487118)
(0.0380998 -0.00203106 -0.000501189)
(0.0595842 -0.012769 0.00151663)
(0.0733795 -0.00665443 0.00613085)
(0.0803405 -0.0268667 0.00875263)
(0.0807208 -0.00855317 0.0176925)
(0.0839482 -0.0738307 0.0294359)
(0.034235 -0.0134733 0.039109)
(0.0426004 -0.179632 0.0730176)
(-0.0913997 0.080377 -0.0714215)
(0.0476104 0.0217735 -0.00246854)
(0.162368 0.374568 0.102729)
(0.0700852 0.456601 0.0265707)
(0.0636619 0.00845633 0.0220425)
(0.0443837 0.0795198 0.0101896)
(0.0308782 0.0486784 0.010863)
(0.0203955 0.0648939 0.0110097)
(0.018459 0.0552589 0.0123672)
(0.0159749 0.0572422 0.0108337)
(0.0170762 0.0539376 0.00940594)
(0.0167285 0.0483656 0.0100405)
(0.0151907 0.0343781 0.0109945)
(0.0124738 0.0239878 0.011477)
(0.0103731 0.0160193 0.0104661)
(0.00759831 0.014027 0.00892304)
(0.00409793 0.011756 0.00684091)
(0.00026639 0.0119703 0.00559966)
(-0.00223249 0.0124991 0.00643525)
(-0.00352466 0.0129073 0.00821591)
(-0.00394986 0.0122877 0.00884154)
(-0.00317396 0.012017 0.00883768)
(-0.00173547 0.0127024 0.00819794)
(0.000716489 0.0129417 0.0095654)
(0.00225643 0.010966 0.0127711)
(-0.000804434 0.00810246 0.0130167)
(-0.00439828 0.00531787 0.0119321)
(-0.00639 0.00366028 0.0114527)
(-0.007123 0.00500558 0.00951967)
(-0.0075248 0.00718363 0.00718337)
(-0.00736214 0.0106946 0.00566292)
(-0.00638809 0.0143067 0.00365203)
(-0.00477186 0.0178101 0.00317201)
(-0.00447953 0.0208189 0.00483694)
(-0.00343534 0.0231921 0.00803297)
(-0.00159359 0.022563 0.0127451)
(-0.000948471 0.020187 0.0178732)
(-0.00182065 0.0113906 0.0228852)
(0.0225461 0.0224294 0.00402449)
(0.0258173 0.0159722 0.00417703)
(0.0154069 0.0108775 0.00105527)
(0.0171176 0.0118862 0.00148451)
(0.0105484 0.00671587 0.00150891)
(0.00989744 0.00667632 0.00213631)
(0.00436207 0.00216772 0.00295013)
(0.00316374 0.00260868 0.00293252)
(0.00178794 0.00200594 0.00304416)
(0.00246387 0.00340959 0.00328844)
(0.0025981 0.00322674 0.00345707)
(0.00331285 0.00371849 0.0038756)
(0.00363816 0.00346433 0.00404631)
(0.00411231 0.00347333 0.00418953)
(0.00424569 0.00299954 0.00414922)
(0.00439498 0.00268153 0.00415201)
(0.00431996 0.00218175 0.00412263)
(0.00430735 0.00186574 0.00413704)
(0.00420943 0.0015181 0.00414198)
(0.00414408 0.00130204 0.00416726)
(0.00405022 0.00110163 0.00419193)
(0.00396592 0.000983369 0.00422731)
(0.00387395 0.000889665 0.00426275)
(0.003788 0.000838765 0.00430256)
(0.00370533 0.000806882 0.00434344)
(0.00362756 0.00079261 0.0043861)
(0.00355331 0.000784641 0.00442935)
(0.00348198 0.000777208 0.00447301)
(0.00341432 0.000767539 0.00451686)
(0.00335051 0.000738463 0.0045614)
(0.00329625 0.00071722 0.00460671)
(0.00323531 0.00063271 0.00465239)
(0.00319648 0.00061938 0.004698)
(0.00313769 0.000443712 0.00474016)
(0.00314594 0.000490866 0.00477731)
(0.00311587 0.000190763 0.00480064)
(0.00319526 0.000394587 0.00481011)
(0.00318053 -2.38869e-05 0.00479099)
(0.00329223 0.000507965 0.00474772)
(0.003252 3.76966e-05 0.00466858)
(0.00336362 0.00110678 0.00455867)
(0.00334582 0.000513675 0.00441322)
(0.0035504 0.00185545 0.00423307)
(0.0036344 0.000476785 0.00404261)
(0.00394252 0.00183355 0.00393522)
(0.00452343 0.000142979 0.00382375)
(0.00541334 0.00308032 0.0032769)
(0.00584224 0.000989405 0.00245404)
(0.00875351 0.00316861 0.00286551)
(0.0188448 -0.00774015 0.00216026)
(0.0415245 -0.00596425 0.00269392)
(0.063151 -0.00696506 0.00892908)
(0.0779821 0.00852103 0.0154659)
(0.084975 -4.53494e-05 0.0204116)
(0.0845623 0.0286459 0.0356827)
(0.0840548 -0.034994 0.0494824)
(0.0366225 0.0598732 0.091744)
(0.0648619 -0.189055 0.12308)
(-0.110101 0.208296 -0.0449315)
(0.047769 -0.0422202 0.0243026)
(0.142298 0.452743 0.106212)
(0.0450853 0.574862 0.0179657)
(0.0293842 0.409491 0.0148102)
(0.00859504 0.46006 0.00149658)
(0.00682805 0.407393 0.00971115)
(0.00327521 0.384791 0.00849525)
(0.0052856 0.353997 0.00882498)
(0.00520717 0.328345 0.00764766)
(0.00777829 0.297487 0.00706852)
(0.00842103 0.272889 0.00716435)
(0.00821795 0.241147 0.00716546)
(0.0066003 0.213719 0.00563965)
(0.00448551 0.186831 0.00464296)
(0.00189706 0.162687 0.00426081)
(0.000175173 0.14012 0.00470625)
(-0.00261425 0.123246 0.00679594)
(-0.00563325 0.109798 0.00888271)
(-0.00798749 0.0932364 0.0110135)
(-0.00944833 0.072152 0.0120799)
(-0.00911713 0.0544335 0.0116207)
(-0.00804847 0.0454484 0.0119695)
(-0.00772498 0.0420789 0.0117832)
(-0.00776725 0.0394444 0.0132366)
(-0.0085692 0.0362783 0.0132223)
(-0.0116946 0.0365671 0.0124218)
(-0.013939 0.0362172 0.0112983)
(-0.0136817 0.0379546 0.0074)
(-0.0134556 0.0384206 0.00562643)
(-0.0126534 0.0362272 0.00444862)
(-0.0101525 0.0328582 0.00258153)
(-0.00828961 0.0304922 0.00315138)
(-0.00712856 0.0289861 0.00585377)
(-0.00636338 0.0273648 0.00980093)
(-0.00533347 0.0233683 0.015396)
(-0.00718714 0.0196592 0.019514)
(-0.0102131 0.0104984 0.0233154)
(0.0225914 0.0224993 0.00447607)
(0.0279482 0.0185917 0.00517226)
(0.0164163 0.0111938 0.00103489)
(0.0192749 0.0134826 0.00146772)
(0.0123717 0.00686789 0.000625506)
(0.0126974 0.00823964 0.00105052)
(0.00604528 0.00284765 0.00139314)
(0.00383282 0.00329263 0.00197112)
(0.000791045 0.000944978 0.00242528)
(0.00110757 0.00237475 0.00290798)
(0.00107979 0.00200813 0.00318732)
(0.001642 0.00292869 0.00383396)
(0.00180527 0.00293834 0.00405556)
(0.00228608 0.00325623 0.0042461)
(0.00242333 0.00292362 0.00418059)
(0.00254756 0.00270785 0.00419587)
(0.00239563 0.00224115 0.00416203)
(0.00229692 0.00196913 0.00418505)
(0.00211864 0.00163759 0.0041829)
(0.00199503 0.00143443 0.00419753)
(0.00185026 0.00122332 0.00420242)
(0.00173163 0.00108754 0.00421836)
(0.00161603 0.000972783 0.00423454)
(0.00151441 0.000903674 0.00425673)
(0.00142274 0.000855342 0.00428122)
(0.00134128 0.000827367 0.00430951)
(0.001267 0.000808577 0.00433937)
(0.00120044 0.000792917 0.00437095)
(0.00114185 0.00077526 0.00440356)
(0.00109013 0.000743242 0.00443515)
(0.00104783 0.000720342 0.00446448)
(0.00100016 0.000650052 0.0044907)
(0.000970553 0.000651153 0.00451475)
(0.000918992 0.000522349 0.0045316)
(0.000936908 0.000618479 0.0045393)
(0.000916645 0.000417426 0.00452292)
(0.00100977 0.0007203 0.00448386)
(0.000985645 0.000470196 0.00440164)
(0.00108356 0.00117357 0.00428958)
(0.000988388 0.000921777 0.00414669)
(0.00115804 0.0021257 0.00402056)
(0.00131289 0.00156999 0.00392922)
(0.00187874 0.00278145 0.0038629)
(0.00216577 0.00112986 0.00384087)
(0.00243789 0.00218156 0.00395156)
(0.00277472 5.60794e-05 0.00403735)
(0.0039439 0.00249619 0.00398855)
(0.00596742 -0.000232117 0.0041448)
(0.0107739 -7.87932e-06 0.00509687)
(0.0214262 -0.0111544 0.00554627)
(0.0395846 -0.00492474 0.00931264)
(0.0581361 0.00381588 0.0194675)
(0.0704269 0.0301979 0.0257686)
(0.0761123 0.0315248 0.030144)
(0.0723059 0.0651696 0.0501685)
(0.0699045 0.01581 0.062681)
(0.0491152 0.12601 0.106101)
(0.0769724 -0.135045 0.123607)
(-0.0696236 0.32767 -0.00646937)
(0.0382337 -0.0760763 0.0328647)
(0.130527 0.497301 0.11442)
(0.0391819 0.612763 0.0175036)
(0.0299047 0.536831 0.0159765)
(0.00930674 0.589412 0.000272089)
(0.0106301 0.580763 0.00733706)
(0.00471356 0.596714 0.00611439)
(0.00689088 0.599235 0.00738687)
(0.00693041 0.605636 0.00659907)
(0.00941379 0.603446 0.00650818)
(0.0100181 0.602551 0.00608063)
(0.0100549 0.596456 0.00623909)
(0.00866464 0.592546 0.00630707)
(0.00695788 0.588099 0.00695832)
(0.00437876 0.581465 0.00794711)
(0.00198487 0.564193 0.00911868)
(-0.000784937 0.532678 0.00974244)
(-0.00326917 0.509545 0.0101961)
(-0.00562443 0.488026 0.0101513)
(-0.00682121 0.465768 0.0105843)
(-0.00715858 0.445377 0.0109995)
(-0.00785545 0.425678 0.0116983)
(-0.00859442 0.387865 0.0124062)
(-0.00884289 0.332533 0.0124098)
(-0.00962832 0.282407 0.0098037)
(-0.00949548 0.237463 0.00620596)
(-0.00974063 0.217741 0.00255667)
(-0.00896592 0.19506 0.000937063)
(-0.00814864 0.170102 0.000435439)
(-0.00777816 0.151021 0.000418755)
(-0.00715461 0.13319 0.00197353)
(-0.00749535 0.117488 0.0043923)
(-0.00749339 0.096842 0.00726639)
(-0.00793766 0.082907 0.0119913)
(-0.00891575 0.0594469 0.0171893)
(-0.0127895 0.0364338 0.0209474)
(-0.019265 0.0174702 0.0224651)
(0.0210779 0.0222035 0.00561275)
(0.0293609 0.0215223 0.00661387)
(0.0165222 0.0111998 0.00170221)
(0.0206185 0.014939 0.00270666)
(0.0133213 0.00551954 0.00100364)
(0.0143533 0.00845012 0.000969209)
(0.00799018 0.00246355 0.000404974)
(0.00537912 0.00404982 0.000991381)
(0.00113563 0.000381303 0.00172124)
(0.000280737 0.00150984 0.00238543)
(-0.000226123 0.000463958 0.00272073)
(9.13115e-05 0.00169418 0.00356373)
(0.000331445 0.00199216 0.00391774)
(0.000954155 0.0027535 0.00428564)
(0.00123961 0.00254481 0.00433556)
(0.00141012 0.00247404 0.00444418)
(0.00122601 0.00206339 0.0044228)
(0.00107524 0.00188892 0.0044445)
(0.000850057 0.00163001 0.00440871)
(0.000697419 0.00150488 0.0043852)
(0.000535484 0.00134649 0.00434025)
(0.000408457 0.0012509 0.00430358)
(0.000288829 0.00115687 0.00426564)
(0.000188469 0.00109631 0.00423636)
(0.000104938 0.00104827 0.00421227)
(3.81336e-05 0.00101696 0.00419633)
(-1.46682e-05 0.000995639 0.00418743)
(-5.44988e-05 0.000980749 0.00418515)
(-8.31754e-05 0.000968516 0.0041876)
(-0.000102698 0.000949648 0.00419347)
(-0.00011269 0.000942749 0.0042018)
(-0.000123868 0.000904431 0.00421066)
(-0.000117108 0.000938857 0.00422238)
(-0.000127249 0.000879041 0.00422604)
(-7.68047e-05 0.0010468 0.00421625)
(-7.33972e-05 0.000971052 0.00417337)
(6.14429e-06 0.00138093 0.00409231)
(-7.01322e-05 0.001275 0.00394683)
(-4.3342e-05 0.00203111 0.0037573)
(-0.000157472 0.00179998 0.00355564)
(7.72304e-05 0.00285519 0.0034144)
(0.000374293 0.00217349 0.00336829)
(0.00116044 0.00323326 0.00344766)
(0.0015109 0.00142928 0.00363434)
(0.00167382 0.00235995 0.00381355)
(0.00159586 0.000172608 0.00372311)
(0.00278592 0.00270817 0.00379799)
(0.00553206 -0.000677389 0.00517772)
(0.0120919 -0.00132505 0.0065416)
(0.0208751 -0.0119462 0.00887961)
(0.0314807 -0.00113697 0.0159522)
(0.0406166 0.0115522 0.0289455)
(0.0532445 0.0407491 0.037279)
(0.0594789 0.0460386 0.0422066)
(0.0572803 0.0816143 0.0588332)
(0.0546695 0.0287695 0.0624481)
(0.0500288 0.127952 0.0834357)
(0.0663994 -0.111468 0.0805967)
(0.00452269 0.370353 0.0339545)
(0.0268432 -0.0844056 0.0362207)
(0.0739473 0.536745 0.104906)
(0.0111042 0.638126 0.00640606)
(0.00566141 0.59972 0.00850425)
(-0.00833464 0.656786 -0.00016675)
(-0.00502244 0.656193 0.00884085)
(-0.00551141 0.670978 0.00934819)
(2.29399e-05 0.670519 0.0109665)
(0.00379281 0.675333 0.0105646)
(0.00815597 0.674789 0.0108484)
(0.0109513 0.675148 0.0107803)
(0.0127691 0.668711 0.0109508)
(0.0126244 0.663895 0.0112205)
(0.0121351 0.660842 0.0116077)
(0.0101794 0.657653 0.0121526)
(0.00807094 0.651439 0.0127149)
(0.00535918 0.646913 0.0128395)
(0.00303353 0.639815 0.0127213)
(0.000461123 0.632163 0.0122401)
(-0.00172393 0.624171 0.0118842)
(-0.00313315 0.613751 0.011519)
(-0.00446157 0.603511 0.0103787)
(-0.00562828 0.590456 0.00871176)
(-0.0063611 0.575214 0.00552202)
(-0.00723871 0.556519 0.000901025)
(-0.00826385 0.53275 -0.00258322)
(-0.00856465 0.500285 -0.00379127)
(-0.00779568 0.449923 -0.00334775)
(-0.00677252 0.39181 -0.0014439)
(-0.00671815 0.35022 0.00186018)
(-0.00766923 0.322113 0.00526558)
(-0.00889143 0.28667 0.00723096)
(-0.00999569 0.24546 0.00968698)
(-0.0117397 0.219898 0.0139663)
(-0.0145926 0.187098 0.0177189)
(-0.0198238 0.142506 0.0199557)
(-0.0245985 0.107254 0.0188673)
(0.0169773 0.0208126 0.00569561)
(0.0290889 0.0250871 0.00849411)
(0.0145076 0.0106346 0.00326613)
(0.0200531 0.0168074 0.00529101)
(0.0121642 0.00384024 0.00280056)
(0.013545 0.00787237 0.00267372)
(0.00781716 0.000962616 0.00148387)
(0.00588283 0.00395111 0.00112195)
(0.00120559 8.365e-06 0.00154269)
(-0.00051802 0.00140897 0.0023058)
(-0.00192643 -0.000430659 0.0025575)
(-0.0025025 0.000859685 0.00335829)
(-0.00270892 0.00115983 0.003779)
(-0.00192229 0.00213245 0.00445446)
(-0.00155751 0.00197046 0.00473077)
(-0.00140626 0.00208844 0.00496321)
(-0.00170719 0.00177585 0.0049486)
(-0.00200345 0.00174606 0.00493245)
(-0.00234098 0.00158982 0.004835)
(-0.00255224 0.00157501 0.00475544)
(-0.00274268 0.0015024 0.00465571)
(-0.00287221 0.00148469 0.00457439)
(-0.00297671 0.00144706 0.00449763)
(-0.00305269 0.00142783 0.00443948)
(-0.00310732 0.00140642 0.00439388)
(-0.00314569 0.00139144 0.0043633)
(-0.00317163 0.00137886 0.00434219)
(-0.00318148 0.00137136 0.00433138)
(-0.00317642 0.0013691 0.00433038)
(-0.00315855 0.00136664 0.00433822)
(-0.00313404 0.00138126 0.00435448)
(-0.00311305 0.00138125 0.00437547)
(-0.00309202 0.00146095 0.00439978)
(-0.00310156 0.00148169 0.00441046)
(-0.00306315 0.00172311 0.00440532)
(-0.00306353 0.00174968 0.00436803)
(-0.00296471 0.00220675 0.00431003)
(-0.00296679 0.00212465 0.0041996)
(-0.00282939 0.00273756 0.00403757)
(-0.0028285 0.00228332 0.0038118)
(-0.00249858 0.00299141 0.00361137)
(-0.00214561 0.00203362 0.00347102)
(-0.00124113 0.0029407 0.00354952)
(-0.000854586 0.00120369 0.00375326)
(-0.000768816 0.00228729 0.00389284)
(-0.00112977 0.000378249 0.00346552)
(0.000537812 0.0027186 0.00354222)
(0.00424648 -0.00175781 0.00540798)
(0.0116056 -0.00360562 0.0067862)
(0.0178193 -0.00916314 0.0105345)
(0.0163565 0.00697886 0.0197165)
(0.0196939 0.0248865 0.0326971)
(0.0274455 0.0555059 0.0425351)
(0.0351266 0.0675579 0.0502989)
(0.044167 0.100738 0.0632076)
(0.049734 0.0479823 0.0651957)
(0.0643435 0.141164 0.0755826)
(0.0587489 -0.105002 0.0597978)
(0.0265585 0.3512 0.0595689)
(0.00849636 -0.0658665 0.0357762)
(0.0148416 0.562366 0.0902592)
(-0.013711 0.656423 0.00427102)
(-0.0138658 0.632576 0.00550363)
(-0.0182796 0.6857 0.000183719)
(-0.0106993 0.680727 0.0102967)
(-0.00650504 0.692972 0.0102563)
(-7.47083e-05 0.6906 0.0119779)
(0.00505327 0.69452 0.0122869)
(0.00921917 0.693096 0.0135515)
(0.0124289 0.692377 0.0140599)
(0.014957 0.690004 0.0146445)
(0.0161971 0.684428 0.015138)
(0.0166052 0.682493 0.0156103)
(0.0154348 0.678701 0.0155136)
(0.0138713 0.673913 0.0155439)
(0.0114652 0.665758 0.0146444)
(0.00909837 0.655996 0.0138633)
(0.00643372 0.646401 0.0128562)
(0.00460999 0.640928 0.0123223)
(0.00348682 0.635631 0.0116541)
(0.00349924 0.62955 0.00990618)
(0.00359605 0.625373 0.00667263)
(0.0035747 0.627104 0.002365)
(0.00233865 0.622424 -0.00253282)
(0.00092826 0.613125 -0.00611707)
(-0.000556388 0.598034 -0.00806448)
(-0.00196869 0.584203 -0.00779523)
(-0.00325439 0.566077 -0.0061285)
(-0.0041419 0.533228 -0.00308933)
(-0.00553524 0.514367 0.000143476)
(-0.00791666 0.500221 0.00181987)
(-0.0114182 0.479434 0.00408699)
(-0.0143982 0.437611 0.00706528)
(-0.018753 0.380577 0.0110198)
(-0.0257761 0.321123 0.0127317)
(-0.0333265 0.269074 0.0104851)
(0.0127456 0.0155595 0.00431309)
(0.0276797 0.0283835 0.00902927)
(0.010898 0.00962349 0.00403036)
(0.0179947 0.0193244 0.00668777)
(0.010377 0.00310435 0.00406469)
(0.0112152 0.00795742 0.00390476)
(0.00557345 -0.000277573 0.00305599)
(0.00460781 0.00384161 0.00214367)
(0.000424007 -0.000325535 0.0022019)
(-0.00137621 0.00170497 0.0028425)
(-0.00295762 -0.000604408 0.00317384)
(-0.00381322 0.000500727 0.0039402)
(-0.00389983 -1.4038e-05 0.00461299)
(-0.00296404 0.000832482 0.00548473)
(-0.00254214 0.000648579 0.00607821)
(-0.00239526 0.00117951 0.00652399)
(-0.00266226 0.00119365 0.00668795)
(-0.00289295 0.00152317 0.00674848)
(-0.00316976 0.00157763 0.00667884)
(-0.00332513 0.00174204 0.00659558)
(-0.0034683 0.00177246 0.00648275)
(-0.00354942 0.00183202 0.00639031)
(-0.00360803 0.00184152 0.00630434)
(-0.00363577 0.00185295 0.00624073)
(-0.00364225 0.00185028 0.00619229)
(-0.00362915 0.00184799 0.00616134)
(-0.00360475 0.00184436 0.00614275)
(-0.0035682 0.0018447 0.0061356)
(-0.00352302 0.00185042 0.00613654)
(-0.00346954 0.00186167 0.00614553)
(-0.00341556 0.00189214 0.00615989)
(-0.00337186 0.00192255 0.00617571)
(-0.00333929 0.00203751 0.00619102)
(-0.00333583 0.00211807 0.00619573)
(-0.00328124 0.0023949 0.00618836)
(-0.00326094 0.00246446 0.00615318)
(-0.00313085 0.00288576 0.0061016)
(-0.00307854 0.002764 0.0060006)
(-0.00282393 0.00325145 0.00586886)
(-0.00269455 0.00269467 0.00567519)
(-0.00228553 0.00319505 0.00547917)
(-0.00203121 0.00206929 0.00528049)
(-0.00135199 0.00278228 0.00526482)
(-0.00120757 0.0010498 0.00541173)
(-0.00147432 0.00222145 0.00547936)
(-0.00211666 0.000136427 0.00493453)
(-6.88857e-05 0.00116658 0.00468987)
(0.0046832 -0.0040927 0.00566149)
(0.00998886 -0.00316223 0.00737877)
(0.00635929 0.0028549 0.0153603)
(-0.00565818 0.0214482 0.0266844)
(-0.00931938 0.0409988 0.0368249)
(-0.00240908 0.0694462 0.0430066)
(0.0121569 0.0886109 0.0487563)
(0.0312786 0.123904 0.0626609)
(0.0562856 0.102726 0.0704663)
(0.0854478 0.171274 0.0886779)
(0.0793756 -0.0283563 0.0792822)
(0.0720922 0.382465 0.0387847)
(-0.0273514 -0.0789554 0.0283187)
(-0.0663358 0.591076 0.0529613)
(-0.0440631 0.684253 -0.0117678)
(-0.0421548 0.65231 -0.00181635)
(-0.0302617 0.696525 -0.00368959)
(-0.0201496 0.684996 0.00515079)
(-0.00851534 0.692795 0.00417596)
(-0.0028116 0.687857 0.00564768)
(0.00393152 0.68848 0.00581923)
(0.00831815 0.689928 0.00770916)
(0.0127505 0.690013 0.0096696)
(0.0157405 0.688894 0.0111585)
(0.0180628 0.689881 0.0124591)
(0.0198078 0.688269 0.0137885)
(0.0205297 0.684005 0.0148723)
(0.0205709 0.676484 0.0161996)
(0.0197662 0.670769 0.0169217)
(0.0186714 0.66184 0.0173943)
(0.0171542 0.651413 0.017541)
(0.0156285 0.638547 0.0170752)
(0.014785 0.626081 0.016015)
(0.0145163 0.617899 0.0144235)
(0.0146743 0.609358 0.0120371)
(0.0140604 0.60193 0.00895178)
(0.013144 0.594159 0.00559294)
(0.0116402 0.585954 0.00297897)
(0.00888258 0.572116 1.69716e-05)
(0.00666376 0.558993 -0.00208638)
(0.00468626 0.546559 -0.00304678)
(0.00256859 0.5375 -0.00182789)
(0.00108204 0.526834 0.000770722)
(-0.00151058 0.512794 0.00386055)
(-0.0053642 0.50287 0.00697359)
(-0.00929969 0.492869 0.00860595)
(-0.0147612 0.483393 0.00678079)
(-0.0202701 0.472137 -0.00133914)
(-0.0262536 0.453728 -0.0185136)
(0.00211244 0.010829 -0.00470729)
(0.0250689 0.0305717 0.00651611)
(0.00539699 0.00918209 0.00140238)
(0.0147294 0.0226845 0.00440066)
(0.00762876 0.0041737 0.00241964)
(0.00788971 0.00942261 0.001785)
(0.00218552 -3.99508e-05 0.000918889)
(0.00199701 0.00469613 -0.000225596)
(-0.00165733 0.000300379 -0.000693975)
(-0.00334667 0.00238493 -0.000386922)
(-0.00517397 -0.00035474 -1.15814e-05)
(-0.00612043 0.00048853 0.0006562)
(-0.00687027 -0.000805097 0.00133717)
(-0.00644046 -2.15124e-05 0.00211139)
(-0.00658926 -0.000130671 0.00280293)
(-0.00665336 0.000702791 0.00330126)
(-0.00709235 0.000881894 0.00364343)
(-0.00735266 0.00140306 0.00384664)
(-0.00765047 0.00155472 0.00392033)
(-0.00776935 0.00181259 0.00394076)
(-0.00787135 0.00190567 0.00391442)
(-0.00791466 0.0020149 0.00388951)
(-0.0079318 0.00205896 0.00386312)
(-0.00792379 0.0020926 0.00384862)
(-0.00789945 0.00210522 0.00384133)
(-0.00786087 0.00211422 0.00384324)
(-0.00781195 0.00212066 0.0038512)
(-0.00775217 0.00213075 0.00386407)
(-0.00768274 0.00214829 0.00387891)
(-0.0076064 0.00217634 0.00389457)
(-0.00753749 0.00222316 0.00390919)
(-0.00748864 0.00227735 0.00392065)
(-0.00746738 0.00240373 0.00392797)
(-0.00747626 0.00249317 0.00392788)
(-0.0074217 0.00274767 0.00391492)
(-0.00736853 0.00281013 0.00388992)
(-0.00717766 0.00320258 0.00384627)
(-0.00703802 0.00311284 0.00377224)
(-0.00674163 0.00359604 0.00364303)
(-0.00657575 0.00308646 0.00345872)
(-0.00613834 0.00357495 0.00323044)
(-0.00584231 0.00244778 0.00300626)
(-0.0050983 0.00293799 0.0029303)
(-0.00495569 0.00104415 0.0031172)
(-0.00509486 0.00185282 0.00309566)
(-0.00480058 -0.000613796 0.0023122)
(-0.00160255 0.000203652 0.00232002)
(0.00136487 -0.00295961 0.00211505)
(-0.00189411 0.00366745 0.00362835)
(-0.0111578 0.0110812 0.0121532)
(-0.0277384 0.0220246 0.024941)
(-0.0323552 0.0270857 0.0341487)
(-0.0287253 0.0476593 0.0365225)
(-0.0167622 0.0520395 0.0342427)
(-0.0025336 0.101383 0.0452403)
(0.0284768 0.0577439 0.0467452)
(0.0735793 0.167175 0.069405)
(0.0914218 -0.0327449 0.0754485)
(0.158833 0.412318 0.0247838)
(-0.0464531 -0.105213 0.0229847)
(-0.128084 0.555089 0.0385354)
(-0.0599333 0.667323 -0.0093974)
(-0.0536788 0.610718 0.00207643)
(-0.0273662 0.652987 0.00248484)
(-0.0194143 0.624523 0.00883767)
(-0.00611073 0.629236 0.0053352)
(-0.00362465 0.618916 0.00418033)
(0.00143095 0.620588 0.00242549)
(0.0037929 0.619384 0.00220853)
(0.00693748 0.620421 0.00248139)
(0.00805348 0.619034 0.00228521)
(0.00919345 0.62092 0.00267124)
(0.0100394 0.621711 0.00301429)
(0.0119543 0.625807 0.00421961)
(0.0140045 0.628963 0.00560336)
(0.015846 0.630753 0.00746225)
(0.0166608 0.627666 0.00825766)
(0.0169164 0.625077 0.00865985)
(0.0170579 0.618867 0.00887314)