/*--------------------------------*- C++ -*----------------------------------*\
| =========                 |                                                 |
| \\      /  F ield         | OpenFOAM: The Open Source CFD Toolbox           |
|  \\    /   O peration     | Version:  2.3.0                                 |
|   \\  /    A nd           | Web:      www.OpenFOAM.org                      |
|    \\/     M anipulation  |                                                 |
\*---------------------------------------------------------------------------*/
FoamFile
{
    version     2.0;
    format      ascii;
    class       volVectorField;
    location    "31";
    object      U.airMean;
}
// * * * * * * * * * * * * * * * * * * * * * * * * * * * * * * * * * * * * * //

dimensions      [0 1 -1 0 0 0 0];

internalField   nonuniform List<vector> 
6144
(
(0.00846135 0.0195838 -0.00125265)
(0.00856753 0.0026586 -0.00165801)
(0.00463887 0.000986755 -0.00232081)
(0.00456463 -0.00108569 -0.00229255)
(0.00301377 -0.00215434 -0.00185777)
(0.00296093 -0.00147361 -0.00163911)
(0.00237175 -0.00147623 -0.00135818)
(0.00245271 -0.000254447 -0.00121312)
(0.00231949 0.000485109 -0.0012433)
(0.00231192 0.00179954 -0.000959662)
(0.00230805 0.00254726 -0.000748203)
(0.00246967 0.00294924 -0.000466434)
(0.00261048 0.00270533 -0.000387884)
(0.00273796 0.00227053 -0.000329463)
(0.00278579 0.00168456 -0.000487567)
(0.00283907 0.00124557 -0.000608452)
(0.0028613 0.000846008 -0.000782777)
(0.00289066 0.000608971 -0.000898845)
(0.00290837 0.000402297 -0.00101082)
(0.00291775 0.000294254 -0.00107025)
(0.00291974 0.000206808 -0.00111332)
(0.00291713 0.00017084 -0.00113182)
(0.00291016 0.000146732 -0.00113801)
(0.00290132 0.000140595 -0.00113143)
(0.00288974 0.000140755 -0.00111699)
(0.00287719 0.000144898 -0.00109635)
(0.00286392 0.000150664 -0.00107168)
(0.00285058 0.000153134 -0.00104218)
(0.0028368 0.000156894 -0.00100945)
(0.00282248 0.000150956 -0.000978041)
(0.00281003 0.000162965 -0.000945423)
(0.00279507 0.000132301 -0.000920962)
(0.00278622 0.000183103 -0.00088865)
(0.00276519 9.24866e-05 -0.000876323)
(0.00276553 0.000251031 -0.000833355)
(0.00273413 1.11806e-05 -0.000830962)
(0.00274267 0.00038377 -0.000764288)
(0.00270133 -0.000159424 -0.000769203)
(0.00271113 0.000585598 -0.000666999)
(0.00266836 -0.000487761 -0.000672323)
(0.00267538 0.000819514 -0.000541333)
(0.00265556 -0.00108048 -0.000549081)
(0.00264998 0.00102082 -0.000445349)
(0.00271271 -0.00204045 -0.000502638)
(0.00263329 0.0012763 -0.000526917)
(0.00277506 -0.00325891 -0.000664914)
(0.00260388 0.00215797 -0.000942495)
(0.00265336 -0.00406813 -0.000902928)
(0.00262592 0.00439354 -0.00127382)
(0.00257032 -0.00439537 -0.00126519)
(0.00390244 0.0089971 -0.00195356)
(0.00318998 -0.00864157 -0.00231099)
(0.00424918 0.0161667 -0.00405491)
(0.0042845 -0.0100652 -0.00555474)
(0.00711418 0.0398634 -0.00739492)
(0.00517955 -0.0311499 -0.0117643)
(0.0134106 0.0666362 -0.00494854)
(0.00932914 -0.053091 -0.0239665)
(-0.0389197 0.117829 -0.0828081)
(0.0375149 0.0379674 -0.109922)
(0.0837638 0.332154 -0.000296034)
(0.042058 0.375033 -0.00504915)
(0.020837 -0.0556147 -0.000818787)
(0.0325693 -0.126198 -0.00135588)
(0.0275113 -0.139723 2.33354e-05)
(0.0186424 -0.140459 0.00210946)
(0.0127009 -0.148673 0.00303745)
(0.00859645 -0.146657 0.00303186)
(0.00568439 -0.146742 0.00256985)
(0.00328749 -0.140397 0.00194969)
(0.0014253 -0.13599 0.00131798)
(0.000111982 -0.127603 0.00072812)
(-0.000652038 -0.120849 0.000164755)
(-0.00094733 -0.11232 -0.000346844)
(-0.00094161 -0.105335 -0.000769103)
(-0.000691678 -0.098026 -0.00110661)
(-0.000332917 -0.0921619 -0.00134034)
(9.61412e-05 -0.0867242 -0.00153549)
(0.000650571 -0.0823681 -0.00166418)
(0.00125681 -0.0789324 -0.0017672)
(0.00171265 -0.0759881 -0.0019194)
(0.00194358 -0.0730039 -0.00215507)
(0.00193107 -0.06975 -0.00240541)
(0.00174754 -0.0657153 -0.00262047)
(0.00141156 -0.0611428 -0.00278853)
(0.00102948 -0.0558416 -0.00285803)
(0.000536923 -0.0498496 -0.00301994)
(-3.59475e-05 -0.0427307 -0.00316386)
(-0.000808414 -0.0345142 -0.00337638)
(-0.00126766 -0.0246911 -0.00325632)
(-0.000552293 -0.0152243 -0.00338411)
(0.000231093 -0.00619624 -0.00528828)
(-2.13518e-05 0.00419371 -0.0055841)
(-0.00117995 0.0137728 -0.00232083)
(-0.00125041 0.0191759 0.00609073)
(-0.000620059 0.0149435 0.0135742)
(0.0174012 0.0228599 0.00239219)
(0.017942 0.0106933 0.00212892)
(0.0106438 0.00778271 0.000153719)
(0.010692 0.00522002 0.00103797)
(0.00661552 0.00186856 0.00144245)
(0.00637155 0.00150133 0.00174028)
(0.00438764 1.49053e-05 0.00206358)
(0.00424749 0.00122251 0.00177826)
(0.00383458 0.00185535 0.00154486)
(0.0040027 0.00332146 0.00165466)
(0.0042141 0.0038401 0.00181025)
(0.00475207 0.00411795 0.00218259)
(0.00507896 0.00365631 0.00230685)
(0.00539031 0.0031808 0.00239988)
(0.00545235 0.00247263 0.00231972)
(0.00554558 0.00195085 0.00226566)
(0.00553916 0.00143826 0.0021656)
(0.00557835 0.00112708 0.00209512)
(0.00558751 0.000845642 0.00201034)
(0.00559343 0.000689581 0.00197011)
(0.00558183 0.000560617 0.00194281)
(0.00556429 0.0004981 0.00194209)
(0.00553906 0.000453625 0.00195348)
(0.00551001 0.000435614 0.00197896)
(0.00547726 0.000427745 0.00201169)
(0.00544316 0.000426875 0.00205094)
(0.0054083 0.000429515 0.00209379)
(0.0053737 0.000429308 0.00213822)
(0.00533944 0.000432729 0.00218367)
(0.00530321 0.000426696 0.00222675)
(0.00527493 0.000438285 0.00226882)
(0.00523468 0.000406913 0.00230165)
(0.00521745 0.000459395 0.00234187)
(0.00515954 0.000363311 0.00236308)
(0.00516846 0.000533088 0.0024114)
(0.0050816 0.000262161 0.00242095)
(0.0051237 0.000679072 0.00248818)
(0.00500091 4.4613e-05 0.00248373)
(0.00508148 0.000904904 0.00257924)
(0.00493471 -0.0003689 0.00256225)
(0.00506116 0.00118927 0.00268419)
(0.00492326 -0.00107465 0.00265487)
(0.00508489 0.00153844 0.00277273)
(0.00500408 -0.00212858 0.00272437)
(0.00511139 0.00208231 0.00276612)
(0.00508102 -0.00348092 0.0026484)
(0.00498738 0.00311031 0.00241563)
(0.00485022 -0.00471596 0.00237928)
(0.00452831 0.00475926 0.00165162)
(0.00435964 -0.0052888 0.00190735)
(0.00643282 0.00804666 0.000600603)
(0.00567646 -0.00672852 2.42153e-05)
(0.0050697 0.0175559 -0.000349481)
(0.00433515 -0.00811029 -0.000530743)
(0.0200735 0.0408883 0.00260125)
(0.031862 -0.0425651 -0.00134754)
(-0.0194819 0.0355146 0.00426848)
(-0.0133102 -0.0132328 -0.0140609)
(0.017334 0.184441 -0.0114311)
(0.157812 0.00253864 -0.0627344)
(0.092031 0.345685 0.00803345)
(0.0082406 0.427113 0.00614025)
(-0.0147511 -0.0859522 0.00518999)
(0.000409216 -0.0566985 0.00819054)
(-0.00366017 -0.0799656 0.00978675)
(-0.0112133 -0.0944501 0.0111122)
(-0.0140277 -0.105178 0.0102307)
(-0.0151486 -0.106916 0.00894623)
(-0.0154262 -0.111033 0.00738767)
(-0.0154759 -0.108422 0.00586764)
(-0.0150742 -0.107157 0.00452814)
(-0.0143122 -0.101374 0.00338334)
(-0.0130132 -0.0968422 0.00233438)
(-0.01138 -0.0901699 0.00141843)
(-0.00957189 -0.08488 0.000635633)
(-0.00767087 -0.0790268 0.000119534)
(-0.0054578 -0.0741089 -0.000112009)
(-0.00329079 -0.0692484 -0.000118257)
(-0.00175474 -0.0649937 1.75295e-05)
(-0.000898796 -0.0611332 0.000213074)
(-0.000576371 -0.0575811 0.000347157)
(-0.00064627 -0.0540648 0.000375268)
(-0.000877552 -0.0504836 0.000327583)
(-0.00113921 -0.0464892 0.000303206)
(-0.00147208 -0.0427353 0.000359601)
(-0.00202031 -0.0389555 0.000490769)
(-0.00284312 -0.0351077 0.000520367)
(-0.00394782 -0.0308707 0.000396355)
(-0.00543857 -0.0261161 -0.000195397)
(-0.00640699 -0.0197906 -0.000443383)
(-0.00587737 -0.012747 -0.00052883)
(-0.00488219 -0.00507704 -0.00212519)
(-0.00494066 0.00420933 -0.00254705)
(-0.00593263 0.0131119 0.00122003)
(-0.00704786 0.0176984 0.0104527)
(-0.00614073 0.0139489 0.0187514)
(0.0209605 0.0235035 0.00350153)
(0.0223788 0.014768 0.00344702)
(0.0140262 0.0112212 0.00118818)
(0.0142709 0.00979962 0.00220102)
(0.00841063 0.00525807 0.00241479)
(0.00770085 0.00438436 0.00289028)
(0.00423943 0.00161778 0.00342)
(0.00374929 0.00245337 0.00320183)
(0.00298041 0.00266116 0.00297052)
(0.00342449 0.00389208 0.00307496)
(0.00377249 0.00399507 0.00318316)
(0.00464599 0.00421855 0.00347686)
(0.00504616 0.00373028 0.00358557)
(0.00546046 0.00342309 0.00367944)
(0.00552655 0.00279405 0.00363599)
(0.00562749 0.0023521 0.00362906)
(0.00555137 0.00183903 0.00359023)
(0.00554128 0.00151663 0.00359084)
(0.00546723 0.00120266 0.00358609)
(0.00542137 0.00102201 0.00360285)
(0.00535373 0.000863562 0.00362048)
(0.00529516 0.000778293 0.00365008)
(0.00523338 0.000713717 0.00368108)
(0.00517663 0.000681417 0.00371773)
(0.00512083 0.000663749 0.00375528)
(0.0050682 0.000657414 0.00379446)
(0.00501786 0.000657783 0.0038338)
(0.0049693 0.000656714 0.0038736)
(0.00492204 0.000659595 0.00391314)
(0.00487427 0.0006565 0.00395237)
(0.00483268 0.000662467 0.00399207)
(0.00477557 0.000640391 0.00402721)
(0.00474374 0.000678175 0.00406632)
(0.004664 0.000595443 0.00409489)
(0.00466617 0.0007313 0.00414179)
(0.00454628 0.000484335 0.00416102)
(0.0046041 0.000847251 0.00421923)
(0.00442495 0.000251568 0.00422682)
(0.00456283 0.00105075 0.00430066)
(0.00432049 -0.000150235 0.00428912)
(0.00456979 0.00138553 0.00437661)
(0.00425999 -0.000743662 0.00432957)
(0.00464913 0.00193875 0.00442633)
(0.00431035 -0.00153231 0.00433609)
(0.00476236 0.00282122 0.00443758)
(0.00444589 -0.00268979 0.00433773)
(0.00464835 0.00394313 0.00433378)
(0.00436624 -0.00432709 0.00435413)
(0.00394402 0.00516558 0.00359902)
(0.00417291 -0.00566144 0.00402437)
(0.00521964 0.00753784 0.0024275)
(0.00474188 -0.00456017 0.00218607)
(0.00398463 0.0203364 0.00300458)
(0.00303027 -0.0189141 0.00468873)
(0.0289625 0.0243304 0.00638866)
(0.0420153 -0.053991 0.00225794)
(-0.0488629 0.0626963 0.0188313)
(-0.0626279 -0.104109 -0.00803114)
(-0.0522416 0.180325 -0.0385173)
(0.167272 -0.0151811 -0.0379465)
(0.157945 0.319094 0.00466277)
(0.0725775 0.357908 0.00239509)
(0.0721756 -0.0828546 0.0110149)
(0.0375527 -0.0235491 0.0153152)
(0.013511 -0.0582316 0.0150638)
(0.00415994 -0.0675587 0.0138497)
(-0.00334155 -0.0754732 0.0112016)
(-0.00931406 -0.0757999 0.00865003)
(-0.0131329 -0.0786789 0.00603996)
(-0.0154454 -0.0750236 0.00380038)
(-0.0164498 -0.0727824 0.00185606)
(-0.0161664 -0.0664978 0.000250437)
(-0.0145804 -0.061443 -0.00126411)
(-0.0124823 -0.0538786 -0.00246017)
(-0.0104608 -0.0475138 -0.00280731)
(-0.00884758 -0.0405018 -0.00271596)
(-0.00737413 -0.0339544 -0.002164)
(-0.00593869 -0.0270573 -0.00128735)
(-0.00434284 -0.0218954 -0.000230862)
(-0.00291868 -0.0185727 0.00108488)
(-0.00208466 -0.0171414 0.00222931)
(-0.0018736 -0.0168362 0.0029618)
(-0.00202382 -0.017169 0.00334253)
(-0.0023562 -0.0175512 0.00353252)
(-0.00285591 -0.0177272 0.0035904)
(-0.00355996 -0.017705 0.00356292)
(-0.00463519 -0.0171747 0.00342675)
(-0.00617437 -0.0160762 0.0029612)
(-0.00835459 -0.0142046 0.00177229)
(-0.0102676 -0.0109164 0.000516932)
(-0.0102737 -0.00633682 -3.21294e-06)
(-0.00961002 -0.000841416 -0.00109958)
(-0.0103775 0.00660194 -0.000813701)
(-0.0128536 0.0136331 0.00343908)
(-0.0151178 0.0174479 0.0126098)
(-0.0160629 0.0127908 0.020493)
(0.0226722 0.0237904 0.00362309)
(0.0257046 0.0173261 0.00397078)
(0.016052 0.0125665 0.000891348)
(0.0176788 0.0128355 0.00144646)
(0.011003 0.00742521 0.00124727)
(0.0103442 0.00689704 0.00206232)
(0.00466658 0.00226441 0.00287935)
(0.0033294 0.00263873 0.00284232)
(0.00191658 0.00207606 0.00287565)
(0.00266755 0.00361713 0.00311704)
(0.00300759 0.00351145 0.00336231)
(0.00389478 0.00393059 0.00381217)
(0.0042438 0.00356766 0.00397149)
(0.0046715 0.00347526 0.00409282)
(0.00472217 0.00293379 0.00404223)
(0.00482361 0.00259048 0.00404548)
(0.00471415 0.00209049 0.00401931)
(0.00468789 0.00178927 0.00403563)
(0.00457989 0.00145654 0.00404162)
(0.00451008 0.0012588 0.00406879)
(0.00441675 0.00107366 0.00409519)
(0.00433963 0.000967862 0.00413296)
(0.00425801 0.000886401 0.00416902)
(0.00418163 0.000843048 0.00420766)
(0.00410911 0.000815515 0.00424677)
(0.00404265 0.000804169 0.0042868)
(0.00398089 0.000801259 0.00432631)
(0.0039227 0.000800213 0.00436561)
(0.00386658 0.000803566 0.00440412)
(0.00381233 0.000803761 0.00444162)
(0.00376312 0.000812113 0.00447871)
(0.0037052 0.000799131 0.00451218)
(0.00366755 0.000830571 0.00455015)
(0.00359191 0.00076228 0.00457622)
(0.00358869 0.000877843 0.00461848)
(0.00347366 0.000655404 0.0046348)
(0.00353751 0.000986635 0.00468683)
(0.00335623 0.000436756 0.00468886)
(0.00352093 0.00120121 0.00475114)
(0.00325409 8.40857e-05 0.00472664)
(0.00355181 0.00158585 0.00479602)
(0.00318607 -0.000393967 0.00472838)
(0.00363544 0.00222366 0.00481088)
(0.00322033 -0.00101568 0.00470094)
(0.00384152 0.00317251 0.00484714)
(0.00336767 -0.00200143 0.00470639)
(0.00401536 0.00431956 0.00484209)
(0.00342209 -0.00352267 0.00470601)
(0.0034204 0.00563221 0.00428815)
(0.00339314 -0.00546552 0.00455764)
(0.00317112 0.00811581 0.00337156)
(0.00213946 -0.00619757 0.00354018)
(0.00773032 0.0167971 0.00538175)
(0.0101871 -0.0255204 0.0052841)
(0.0305655 0.0141619 0.0109591)
(0.0288258 -0.0421611 0.00603227)
(-0.0150304 0.0868864 0.0179495)
(-0.0767353 -0.128119 0.00883624)
(-0.0530992 0.227851 -0.0912744)
(0.189755 -0.0633132 -0.0179901)
(0.18862 0.335508 0.00342407)
(0.0794658 0.301842 -0.00164939)
(0.0863447 0.00668104 0.0100922)
(-0.0011076 0.0688596 0.0155535)
(-0.00441532 -0.0138866 0.0177213)
(-0.00918922 -0.012133 0.0118914)
(-0.014054 -0.0270393 0.00631693)
(-0.0175632 -0.0284667 0.00177615)
(-0.0188844 -0.0298599 -0.00164166)
(-0.01923 -0.0239557 -0.00415808)
(-0.0190283 -0.0188665 -0.00609606)
(-0.0182452 -0.00850003 -0.00727682)
(-0.0165712 0.0017506 -0.00738803)
(-0.0145622 0.0127198 -0.00560908)
(-0.0126254 0.0200705 -0.00358975)
(-0.0107052 0.0256936 -0.00151786)
(-0.00860117 0.0286747 0.000215262)
(-0.00621219 0.0298252 0.00158875)
(-0.00389883 0.0290736 0.00271541)
(-0.00239387 0.0265466 0.00389682)
(-0.00180073 0.0230551 0.00473803)
(-0.00199659 0.0190164 0.00512898)
(-0.00259353 0.014946 0.0051913)
(-0.00345073 0.0110597 0.0051138)
(-0.00451946 0.00753799 0.00490574)
(-0.00585979 0.00455038 0.00459962)
(-0.00759027 0.00224107 0.00402465)
(-0.0097597 0.000613988 0.00291254)
(-0.0119519 -0.000186648 0.00137235)
(-0.0132602 0.000120313 0.000345879)
(-0.0134485 0.00164461 0.000142271)
(-0.0136994 0.00489028 -0.000249084)
(-0.0152588 0.00990654 0.000565728)
(-0.0180096 0.0145333 0.00497302)
(-0.0212824 0.0168379 0.0136849)
(-0.0232389 0.0121786 0.0212069)
(0.0229138 0.0238691 0.00437512)
(0.0279747 0.0198547 0.0050617)
(0.0172637 0.0130042 0.0010826)
(0.0202189 0.0146196 0.00153574)
(0.0134412 0.00798411 0.000219586)
(0.0136267 0.008871 0.000849193)
(0.0066758 0.00333862 0.00101567)
(0.00416085 0.00356098 0.00167279)
(0.000950134 0.00108194 0.00211934)
(0.00125676 0.00261139 0.00266544)
(0.00152984 0.00232531 0.00309761)
(0.00230462 0.00320662 0.00380299)
(0.00251824 0.00309201 0.00401124)
(0.00293225 0.00328107 0.00417362)
(0.00296403 0.00285806 0.00409901)
(0.00302181 0.002614 0.00411618)
(0.00282032 0.0021487 0.00408536)
(0.00270775 0.00189562 0.00410985)
(0.00252284 0.0015779 0.00410922)
(0.00239687 0.00139389 0.00412753)
(0.00225313 0.00120223 0.00413594)
(0.00213878 0.00108744 0.00415438)
(0.00203037 0.000988693 0.00417248)
(0.00193799 0.000930908 0.00419694)
(0.00185493 0.000893612 0.00422213)
(0.00178289 0.000877117 0.00424913)
(0.00172009 0.000869737 0.00427587)
(0.00166365 0.000867591 0.00430173)
(0.00161149 0.000869897 0.00432694)
(0.00156276 0.000870632 0.00435053)
(0.00151808 0.000878681 0.00437133)
(0.0014695 0.000869723 0.00438755)
(0.00143531 0.000898656 0.00440722)
(0.00137115 0.000841523 0.00441373)
(0.00137129 0.000946973 0.00444124)
(0.00127055 0.000743429 0.00443602)
(0.00133696 0.00105863 0.00447596)
(0.00116686 0.000552241 0.0044504)
(0.00133369 0.00129646 0.00449998)
(0.00107118 0.000267885 0.00444503)
(0.0013641 0.00172847 0.00449699)
(0.0010032 -9.96929e-05 0.00440165)
(0.00143906 0.0024118 0.00446418)
(0.00104708 -0.000561078 0.0043441)
(0.00165616 0.00336867 0.004468)
(0.001263 -0.00119413 0.00433145)
(0.00187702 0.00456881 0.00441969)
(0.00146169 -0.00219139 0.00418478)
(0.00190462 0.00619912 0.00377543)
(0.0018303 -0.00429461 0.00378531)
(0.00219761 0.00825823 0.00283196)
(0.00119717 -0.0085119 0.00507599)
(0.0108126 0.0108057 0.00875659)
(0.0132272 -0.0246012 0.0121081)
(0.026381 0.0180201 0.0304197)
(0.0156936 -0.05025 0.0291497)
(-0.00343659 0.0592915 0.0575815)
(-0.106525 -0.1315 0.0422573)
(-0.00831122 0.201436 -0.159257)
(0.146865 -0.0790086 0.00507305)
(0.168628 0.449777 0.00651719)
(0.0660968 0.58824 -0.00174989)
(0.0640548 0.505196 0.00734895)
(0.0195534 0.52384 0.00529999)
(0.017491 0.426281 0.00409353)
(-0.000363491 0.360216 -0.00131904)
(-0.00506289 0.345404 -0.00490641)
(-0.00990858 0.341447 -0.00665371)
(-0.0124719 0.350012 -0.00795055)
(-0.0149328 0.362049 -0.00757046)
(-0.0161502 0.372834 -0.0064563)
(-0.016303 0.381875 -0.00450093)
(-0.0150703 0.383514 -0.00243375)
(-0.0132627 0.380448 -0.000349067)
(-0.0110629 0.368844 0.00139047)
(-0.00890168 0.343097 0.00309529)
(-0.00638573 0.310902 0.00449924)
(-0.00380022 0.271904 0.00550506)
(-0.00163299 0.230471 0.00630838)
(-0.000264068 0.183407 0.00678532)
(0.000169916 0.144359 0.00682044)
(3.59906e-05 0.109096 0.00652746)
(-0.000466231 0.0759832 0.00598859)
(-0.00128512 0.0481333 0.00548663)
(-0.00246359 0.0353967 0.0049474)
(-0.00393337 0.028057 0.00439164)
(-0.00568619 0.0224334 0.00343169)
(-0.00770682 0.017868 0.00218256)
(-0.00998955 0.0147145 0.00117169)
(-0.0121219 0.0129126 0.00105623)
(-0.0139148 0.0122815 0.00123825)
(-0.015742 0.0130175 0.00112654)
(-0.0185818 0.0151935 0.00207471)
(-0.022766 0.0171491 0.00620243)
(-0.0282106 0.0175603 0.0136324)
(-0.0336726 0.0118951 0.0200056)
(0.0211192 0.0236489 0.00670513)
(0.0291007 0.022452 0.00661994)
(0.0172222 0.0130553 0.00200974)
(0.0214795 0.0160845 0.00310743)
(0.0147196 0.00690632 0.00074222)
(0.0156524 0.00937348 0.000699459)
(0.00903887 0.00323841 -0.000306928)
(0.00622538 0.0045465 0.000447364)
(0.00160945 0.000682025 0.00129576)
(0.000602426 0.00168522 0.00207778)
(0.00019167 0.000658043 0.00265195)
(0.000787656 0.00193049 0.00362434)
(0.00110857 0.00210604 0.00396684)
(0.00164065 0.00273086 0.00429121)
(0.0017687 0.00245076 0.00431254)
(0.00183913 0.00236533 0.0044039)
(0.0015923 0.00196582 0.0043777)
(0.00143178 0.00181826 0.00440015)
(0.00120549 0.00157267 0.00436602)
(0.00105509 0.00146377 0.00434687)
(0.000898028 0.00131868 0.00430804)
(0.000779215 0.00123895 0.00427854)
(0.000671515 0.00115957 0.00424796)
(0.000583224 0.00111369 0.00422415)
(0.000509279 0.00108081 0.00420263)
(0.000451624 0.00106676 0.00418682)
(0.000406898 0.00106036 0.00417484)
(0.000369733 0.00106199 0.00416484)
(0.000337695 0.00106777 0.0041565)
(0.00030986 0.00107327 0.00414845)
(0.000285512 0.00108439 0.00414035)
(0.000257098 0.00107906 0.00412988)
(0.000241165 0.00110713 0.00412531)
(0.00019993 0.00105746 0.00410926)
(0.000220876 0.00116076 0.00411979)
(0.000139947 0.000983963 0.00408777)
(0.000227132 0.00129532 0.00412192)
(7.37837e-05 0.000847425 0.0040626)
(0.000262125 0.00156706 0.00412544)
(2.1243e-05 0.0006399 0.00403094)
(0.000316886 0.00202241 0.00410827)
(9.92295e-06 0.000352556 0.00397521)
(0.000373624 0.00268714 0.00405072)
(0.000124619 -1.69169e-05 0.00392951)
(0.000488243 0.00359305 0.00400691)
(0.00040529 -0.000434642 0.00395475)
(0.00073311 0.00485118 0.00398805)
(0.000732991 -0.00129308 0.00385993)
(0.00140483 0.00644649 0.00370157)
(0.0015436 -0.00353008 0.00336723)
(0.00286435 0.00807795 0.00274527)
(0.00285025 -0.00847819 0.00576409)
(0.00974836 0.00835964 0.0113617)
(0.007727 -0.0124589 0.0194338)
(0.0142196 0.0235141 0.0428929)
(-0.00616452 -0.0276984 0.0529891)
(0.0136446 0.0393775 0.0944853)
(-0.0875691 -0.125385 0.078191)
(0.0315409 0.0819828 -0.164339)
(0.0947948 -0.0200447 0.0154919)
(0.162773 0.478244 0.0012103)
(0.0598112 0.590833 -0.00402661)
(0.0605751 0.555692 0.00501382)
(0.0244724 0.598557 0.00267783)
(0.0145594 0.583655 0.000860705)
(0.000506176 0.592331 -0.00263266)
(-0.00483851 0.594681 -0.00371742)
(-0.0105189 0.591405 -0.00386736)
(-0.0139171 0.592106 -0.00280651)
(-0.0167889 0.596234 -0.00115437)
(-0.0179994 0.606584 0.00101317)
(-0.0177505 0.603113 0.0030467)
(-0.0159528 0.608966 0.00507041)
(-0.0135625 0.619169 0.00663777)
(-0.0106512 0.614168 0.00801357)
(-0.00718246 0.605298 0.00892758)
(-0.00367262 0.603748 0.00947905)
(-0.000761001 0.594705 0.0096102)
(0.00135352 0.583139 0.00942605)
(0.00252485 0.574759 0.00884061)
(0.00251901 0.550599 0.00818625)
(0.00200262 0.53184 0.00748738)
(0.00124372 0.50036 0.00676267)
(0.000347955 0.4592 0.00607617)
(-0.000782818 0.396841 0.00547416)
(-0.00268842 0.33503 0.00493547)
(-0.00534512 0.28496 0.00419617)
(-0.00810955 0.199334 0.0036014)
(-0.01091 0.116663 0.00340214)
(-0.0138461 0.0689998 0.00340013)
(-0.0162136 0.0421976 0.00341486)
(-0.0186159 0.0229938 0.00361624)
(-0.0217699 0.0185029 0.00545946)
(-0.0258161 0.0163306 0.00864072)
(-0.0307883 0.0152709 0.0138259)
(-0.035798 0.0107251 0.0180435)
(0.0167458 0.0225235 0.00650861)
(0.0285107 0.0260409 0.00827336)
(0.0146582 0.0126086 0.0035959)
(0.0205282 0.0180641 0.00604902)
(0.0133717 0.00549439 0.00314051)
(0.0151603 0.00888592 0.00285784)
(0.00941149 0.00160437 0.000866756)
(0.00706887 0.00432872 0.000409991)
(0.00198647 0.000321947 0.00102772)
(5.68557e-05 0.00155312 0.00206223)
(-0.00144038 -0.000412629 0.00257276)
(-0.00183023 0.000922802 0.00347734)
(-0.00193762 0.00119067 0.00389698)
(-0.00127547 0.00207787 0.00448919)
(-0.00111171 0.00187561 0.00470274)
(-0.00106048 0.00198711 0.00489892)
(-0.00143524 0.00170086 0.00486278)
(-0.00172219 0.001705 0.00484619)
(-0.00204243 0.00156143 0.00475503)
(-0.00224305 0.00155861 0.00468602)
(-0.00242516 0.00149026 0.00459813)
(-0.00254701 0.00147939 0.00452784)
(-0.00264472 0.00144856 0.00446061)
(-0.00271425 0.00144016 0.00440838)
(-0.00276293 0.00143183 0.00436504)
(-0.00279344 0.00143174 0.00433344)
(-0.00280903 0.0014342 0.00430919)
(-0.00281312 0.00144022 0.00429015)
(-0.00280961 0.00144783 0.00427517)
(-0.00279956 0.00145538 0.00426277)
(-0.00278592 0.00146572 0.00425261)
(-0.00277197 0.00146419 0.00424384)
(-0.00275677 0.00148484 0.00424017)
(-0.00275632 0.00144827 0.00423218)
(-0.00272332 0.00153979 0.00424172)
(-0.00275094 0.00140082 0.00422322)
(-0.00267798 0.00168438 0.00425927)
(-0.00274366 0.00131438 0.00422474)
(-0.0026131 0.001968 0.00429867)
(-0.00271033 0.00116961 0.00424312)
(-0.00254379 0.00241688 0.00432599)
(-0.00263336 0.000922079 0.0042486)
(-0.00249525 0.00303439 0.0042967)
(-0.00245256 0.000505319 0.00424591)
(-0.00247744 0.00387076 0.00421018)
(-0.00214325 -1.00433e-05 0.00423762)
(-0.00220855 0.00506261 0.0041259)
(-0.0016308 -0.000999582 0.00423424)
(-0.00108767 0.00649152 0.00420191)
(-0.000221993 -0.00313199 0.00392637)
(0.000911242 0.00780666 0.00329812)
(0.00263663 -0.0075124 0.0052057)
(0.00150463 0.0072455 0.0103604)
(-0.0056032 -0.0141878 0.0158281)
(-0.00720906 0.0148636 0.0378199)
(-0.0230614 -0.0329012 0.0541745)
(0.00692217 -0.00646301 0.0911368)
(-0.0369537 -0.114205 0.0838081)
(0.0329922 -0.039831 -0.165604)
(0.0542017 0.0602903 0.0179571)
(0.0971352 0.565722 -0.00226274)
(0.0399789 0.641321 -0.00482678)
(0.0408855 0.59641 0.0052004)
(0.0231746 0.669765 0.00707115)
(0.0153151 0.635625 0.00749827)
(0.0044897 0.651346 0.00550546)
(-0.00198481 0.644131 0.00509378)
(-0.00830046 0.634393 0.00509503)
(-0.0130017 0.650228 0.00589519)
(-0.0164277 0.634865 0.00702764)
(-0.0177991 0.654941 0.00817004)
(-0.0179077 0.660201 0.00905011)
(-0.016237 0.661809 0.00995333)
(-0.013893 0.642575 0.0106132)
(-0.0104861 0.629499 0.0114235)
(-0.00612412 0.646383 0.0116912)
(-0.00202713 0.65081 0.0115116)
(0.0019766 0.626474 0.0113403)
(0.00618829 0.646196 0.0110886)
(0.00982122 0.636145 0.0103199)
(0.0112133 0.613765 0.00989793)
(0.0119102 0.618764 0.00949478)
(0.011515 0.612094 0.00897091)
(0.00992656 0.596856 0.00818027)
(0.00782127 0.578905 0.00722142)
(0.00515391 0.548665 0.00668928)
(0.00169534 0.532469 0.00565705)
(-0.00212199 0.505596 0.00480989)
(-0.00676328 0.451189 0.00381755)
(-0.0109223 0.396165 0.00332511)
(-0.0153841 0.344735 0.00356599)
(-0.0199247 0.311945 0.00434032)
(-0.0254322 0.286596 0.00657065)
(-0.0316012 0.237204 0.00962889)
(-0.0403709 0.220019 0.012839)
(-0.0494108 0.287777 0.0141531)
(0.0125994 0.0177064 0.00468466)
(0.0266997 0.0292254 0.00843536)
(0.0103126 0.0116896 0.00439776)
(0.0178025 0.0205479 0.00777488)
(0.0106999 0.00516705 0.00506672)
(0.0128261 0.00929204 0.00486507)
(0.00731468 0.000255081 0.00300529)
(0.0060573 0.00385536 0.00164315)
(0.00131946 -0.000302721 0.00178551)
(-0.000590145 0.0015965 0.00271396)
(-0.00245521 -0.000872236 0.00323526)
(-0.0032163 0.000261327 0.00404483)
(-0.00324493 -0.000162483 0.00474223)
(-0.00242444 0.000741863 0.0055221)
(-0.00221614 0.000577566 0.00604003)
(-0.00218331 0.00114338 0.00642977)
(-0.00252339 0.00116039 0.00655175)
(-0.00273832 0.00150679 0.0066034)
(-0.00299654 0.00155986 0.00653325)
(-0.00313405 0.00172878 0.00646278)
(-0.00326378 0.0017628 0.0063666)
(-0.00333295 0.00183034 0.00629062)
(-0.00338257 0.00184657 0.00621955)
(-0.00340434 0.00186886 0.00616845)
(-0.00340583 0.00187939 0.00612901)
(-0.00338926 0.00188974 0.00610244)
(-0.00336271 0.00189812 0.00608266)
(-0.00332834 0.00190559 0.00606948)
(-0.00329034 0.00191121 0.00606108)
(-0.00324808 0.00191574 0.0060563)
(-0.00320363 0.00192127 0.00605469)
(-0.00315695 0.00191666 0.00605587)
(-0.00311547 0.00192962 0.00606045)
(-0.00308117 0.00190146 0.00606392)
(-0.00303301 0.00198521 0.0060763)
(-0.00302295 0.00187497 0.00606603)
(-0.00295441 0.00214289 0.00608799)
(-0.00297296 0.00182031 0.00605023)
(-0.00286512 0.00243201 0.00609168)
(-0.00289034 0.0016972 0.00602314)
(-0.00275836 0.00286332 0.00607767)
(-0.0027195 0.00144471 0.0059867)
(-0.00264432 0.00345472 0.00602638)
(-0.0024394 0.000960855 0.00595033)
(-0.00265994 0.00425237 0.00587246)
(-0.00207967 0.000196338 0.00589087)
(-0.00245715 0.00533894 0.00569372)
(-0.00155281 -0.00121569 0.00589714)
(-0.0014539 0.00679755 0.0061475)
(-0.000105601 -0.00368119 0.00600572)
(0.000570126 0.00851203 0.00612821)
(0.00444608 -0.00783253 0.00709156)
(0.00214712 0.00844687 0.0116964)
(-0.00555205 -0.0159404 0.0155266)
(-0.0164955 0.0110737 0.0346579)
(-0.0239534 -0.0394837 0.0516024)
(-0.0091692 -0.0222523 0.0886197)
(0.00947779 -0.0957457 0.082609)
(0.00403147 -0.07809 -0.151733)
(-0.00134677 0.102955 0.015141)
(-0.00480417 0.605953 -0.008716)
(0.0023779 0.698748 -0.00432967)
(0.00805724 0.709843 0.00903108)
(0.00891356 0.737255 0.0117383)
(0.00685966 0.737919 0.0130315)
(0.00214346 0.732983 0.0121556)
(-0.00302366 0.740627 0.0117754)
(-0.00683369 0.75231 0.0115753)
(-0.0108595 0.737375 0.0116795)
(-0.0134467 0.740902 0.0120565)
(-0.0145126 0.734252 0.012516)
(-0.0144611 0.734314 0.0129205)
(-0.0128151 0.729242 0.0133859)
(-0.00972941 0.722765 0.0136134)
(-0.00537355 0.714091 0.0140337)
(-0.000909047 0.705749 0.0141285)
(0.00415615 0.700227 0.0141356)
(0.00833064 0.700349 0.014058)
(0.0126241 0.694773 0.0138958)
(0.0163437 0.690608 0.0135881)
(0.0188832 0.686125 0.0135253)
(0.0200916 0.681873 0.013634)
(0.0198695 0.676081 0.0140147)
(0.0186009 0.66935 0.0145804)
(0.0167165 0.660018 0.0150296)
(0.0140633 0.644604 0.0156286)
(0.0110543 0.633474 0.0159849)
(0.00730146 0.621824 0.0164441)
(0.00341226 0.605733 0.0164204)
(-0.00182547 0.595946 0.0161238)
(-0.00758896 0.565917 0.0155622)
(-0.0147303 0.5441 0.0138489)
(-0.0222717 0.522271 0.0111464)
(-0.0309544 0.486668 0.00531643)
(-0.0426285 0.474104 -0.00770748)
(-0.0506658 0.454022 -0.026178)
(0.00162221 0.0140345 -0.0067527)
(0.0242052 0.0314009 0.00551831)
(0.00380399 0.0107907 0.00180087)
(0.0134184 0.0234545 0.00566787)
(0.00642226 0.00605974 0.00350689)
(0.00919711 0.0110683 0.00351918)
(0.00401447 0.000545316 0.00180544)
(0.00332781 0.00445969 9.54228e-05)
(-0.000794298 -4.48103e-05 -0.000696038)
(-0.00255454 0.00202761 -0.000426566)
(-0.00458928 -0.0008694 5.28904e-05)
(-0.00559865 6.59047e-05 0.000619793)
(-0.00648002 -0.00110608 0.00132581)
(-0.00611334 -0.000168659 0.00206996)
(-0.00640477 -0.000193007 0.00272716)
(-0.00651835 0.000679769 0.00319581)
(-0.00698512 0.000857854 0.00349113)
(-0.00722395 0.00138267 0.00366911)
(-0.00748737 0.00152784 0.00373219)
(-0.00760151 0.00179125 0.00375741)
(-0.00770055 0.00188644 0.0037416)
(-0.00773875 0.00199963 0.00373014)
(-0.0077545 0.00204743 0.00371688)
(-0.00774675 0.00208912 0.00371456)
(-0.00772121 0.00211164 0.00371751)
(-0.00767779 0.00213042 0.00372739)
(-0.00761746 0.00214372 0.00374084)
(-0.00754415 0.00215438 0.00375765)
(-0.00746695 0.00216314 0.00377532)
(-0.0073854 0.00217064 0.00379246)
(-0.00730245 0.00217908 0.0038086)
(-0.00721863 0.00218149 0.00382374)
(-0.00715283 0.00219865 0.0038382)
(-0.00709219 0.00218389 0.00385052)
(-0.00704189 0.00226185 0.00386307)
(-0.00698486 0.00217941 0.00386322)
(-0.00694602 0.0024226 0.00386931)
(-0.00686218 0.00215122 0.00385116)
(-0.00684509 0.00272178 0.00384857)
(-0.00669297 0.00206916 0.00381481)
(-0.00675638 0.00317265 0.00380549)
(-0.0064851 0.00182239 0.00376222)
(-0.00668497 0.00374041 0.0037354)
(-0.00619929 0.00131099 0.00369519)
(-0.00662647 0.00454154 0.00357775)
(-0.00582424 0.00047953 0.00356698)
(-0.0062434 0.00567856 0.00334321)
(-0.00525221 -0.00118288 0.00344453)
(-0.00518802 0.00718102 0.00388371)
(-0.00386115 -0.0044311 0.00360021)
(-0.00366162 0.00874645 0.00429839)
(0.00108738 -0.00860438 0.00561006)
(-0.00400315 0.0107859 0.00810559)
(-0.00999875 -0.0169327 0.0104452)
(-0.0235019 0.0169 0.0256004)
(-0.0202672 -0.0523664 0.0405162)
(-0.0288486 -0.0239502 0.0673718)
(0.0461695 -0.125299 0.069991)
(-0.0320834 -0.0230835 -0.167264)
(-0.0511332 0.0479709 0.00542541)
(-0.112814 0.525601 -0.0224914)
(-0.0349256 0.610109 -0.00678736)
(-0.0258635 0.599054 0.00393471)
(-0.00730449 0.633051 0.00812093)
(-0.00436886 0.633523 0.00916483)
(-0.00377065 0.616472 0.00910586)
(-0.0069868 0.636203 0.00904011)
(-0.00950131 0.635756 0.00906344)