/*--------------------------------*- C++ -*----------------------------------*\
| =========                 |                                                 |
| \\      /  F ield         | OpenFOAM: The Open Source CFD Toolbox           |
|  \\    /   O peration     | Version:  2.3.0                                 |
|   \\  /    A nd           | Web:      www.OpenFOAM.org                      |
|    \\/     M anipulation  |                                                 |
\*---------------------------------------------------------------------------*/
FoamFile
{
    version     2.0;
    format      ascii;
    class       volVectorField;
    location    "31";
    object      U.water;
}
// * * * * * * * * * * * * * * * * * * * * * * * * * * * * * * * * * * * * * //

dimensions      [0 1 -1 0 0 0 0];

internalField   nonuniform List<vector> 
6144
(
(0.0109714 0.0185965 0.000996664)
(0.0108057 -0.00700669 -0.000531147)
(0.00429933 -0.00732116 -0.00240164)
(0.00387689 -0.00628323 -0.00234212)
(0.0023298 -0.00489339 -0.00212963)
(0.00284047 -0.00201103 -0.0020319)
(0.00245385 -0.00127577 -0.00145686)
(0.00244074 8.94147e-05 -0.000772116)
(0.00187755 -0.000121403 -0.00024801)
(0.00151628 0.0012858 0.00023787)
(0.00123713 0.00222158 0.000691373)
(0.00126928 0.00302569 0.00113677)
(0.00143482 0.00311694 0.00134925)
(0.00160472 0.00264871 0.00167332)
(0.00172819 0.00181112 0.00161231)
(0.0018423 0.000973355 0.00147112)
(0.00191198 0.000172325 0.00118179)
(0.00198416 -0.000417674 0.000911864)
(0.00204811 -0.00085006 0.000623736)
(0.00210062 -0.00107208 0.000375186)
(0.00213392 -0.00118574 0.000211299)
(0.00214944 -0.00119107 0.000124528)
(0.00214781 -0.00114854 9.21706e-05)
(0.00213228 -0.00107035 0.000103254)
(0.00210494 -0.000982539 0.000148524)
(0.00206965 -0.000895292 0.000220534)
(0.00202583 -0.000820829 0.000328115)
(0.00197473 -0.00076002 0.000463132)
(0.00192666 -0.000720418 0.000603189)
(0.0018798 -0.000719789 0.000742796)
(0.00182967 -0.000772004 0.000887088)
(0.00177263 -0.00087291 0.00102604)
(0.00170588 -0.00100435 0.00116102)
(0.00163324 -0.00115851 0.00131108)
(0.00156501 -0.00136575 0.00149758)
(0.00151335 -0.00169375 0.00172112)
(0.00148559 -0.00219529 0.00192093)
(0.00148925 -0.00284757 0.00201027)
(0.00152004 -0.00355427 0.00193731)
(0.00156397 -0.00422093 0.00170072)
(0.00160448 -0.00468638 0.00131215)
(0.0016251 -0.00482255 0.000760763)
(0.00156895 -0.00443185 0.000190781)
(0.0015439 -0.00362391 -0.00011535)
(0.00196612 -0.00334775 -0.000157168)
(0.00329169 -0.00541367 -0.000394727)
(0.00645558 -0.00832589 -0.00218058)
(0.0102376 -0.0137096 -0.00494592)
(0.0084471 -0.0138205 -0.00644913)
(0.00622881 -0.0133566 -0.00607204)
(0.0134518 -0.0154246 -0.010181)
(0.024038 -0.0207483 -0.0131183)
(0.0663004 -0.0503325 -0.0241289)
(0.0671337 -0.114379 -0.023822)
(0.039361 -0.120333 -0.0191992)
(0.0351201 -0.151438 -0.0142452)
(0.00302397 -0.114071 -0.00375574)
(0.00700665 -0.144061 0.00736741)
(-0.0827259 -0.0388225 -0.0162161)
(0.0228023 -0.078314 0.00285468)
(0.156735 -0.269534 -0.00991717)
(0.101988 -0.0745117 -0.00396691)
(0.062782 -0.155592 -0.00368498)
(0.0593382 -0.148767 0.00907037)
(0.0534443 -0.15474 0.0261245)
(0.0433695 -0.166387 0.0318675)
(0.0319955 -0.167768 0.0327602)
(0.0211513 -0.174762 0.0249025)
(0.012257 -0.176712 0.0160735)
(0.00379708 -0.173241 0.00747249)
(-0.00199268 -0.16427 0.00615455)
(-0.00911414 -0.149839 0.00658894)
(-0.00899345 -0.132792 0.00854745)
(-0.00927417 -0.114517 0.0142795)
(-0.0135851 -0.0828482 0.00847404)
(-0.0135028 -0.0291956 0.00596895)
(-0.0170541 0.00594296 0.0047863)
(-0.0156025 0.0374473 0.00704681)
(0.00418051 0.0458409 0.011219)
(0.0139824 0.0394875 0.00316079)
(0.0120851 0.0357204 -0.00887155)
(0.00963403 0.0352433 -0.0141421)
(0.00100125 0.0367547 -0.0171555)
(-0.0132887 0.0505652 -0.0179178)
(-0.010756 0.086725 -0.0161366)
(0.000760884 0.10146 -0.0119187)
(0.00234452 0.107866 0.00700003)
(0.000136585 0.113711 0.018826)
(-0.000147981 0.113642 0.025482)
(0.0001529 0.112957 0.0287391)
(0.00471927 0.112774 0.0306901)
(0.00651784 0.112095 0.0314257)
(0.00551669 0.102492 0.033529)
(-0.00191243 0.0870178 0.0373987)
(-0.000863612 0.0719663 0.0413738)
(0.0145743 0.0244586 0.0483038)
(0.0214072 0.0182327 0.00400131)
(0.0228067 0.00280214 0.00317959)
(0.00937538 -0.00071531 -0.000547693)
(0.00938051 8.9446e-05 -0.000674723)
(0.00547791 -0.00205318 0.000304671)
(0.00537158 -0.000400039 0.00146562)
(0.00378258 -0.00172973 0.00238169)
(0.00348264 -7.34515e-05 0.00243566)
(0.00252193 0.000208898 0.0025276)
(0.00188424 0.00249604 0.00271565)
(0.00159159 0.00351885 0.00317759)
(0.00188612 0.00432238 0.00373245)
(0.00238727 0.00423263 0.00402434)
(0.00290492 0.00375041 0.00424828)
(0.00317347 0.00282912 0.00426187)
(0.003388 0.00191918 0.00423403)
(0.00345409 0.000987446 0.00414489)
(0.00353036 0.000273589 0.00406431)
(0.00357708 -0.00030687 0.00398018)
(0.00363323 -0.000651166 0.00386874)
(0.00367094 -0.000863291 0.00377481)
(0.00367123 -0.000948541 0.00373534)
(0.0036397 -0.000966125 0.00374314)
(0.00358195 -0.000927015 0.00379083)
(0.00350486 -0.000864417 0.00386856)
(0.00341333 -0.000790674 0.00396958)
(0.00330849 -0.000723794 0.00408819)
(0.00319292 -0.000665922 0.00422038)
(0.0030898 -0.000633733 0.00432392)
(0.00300964 -0.000650857 0.00440945)
(0.00293423 -0.000725832 0.00449472)
(0.00284906 -0.000854378 0.0045742)
(0.00274967 -0.00102173 0.00465149)
(0.00265454 -0.00122153 0.00473262)
(0.00260019 -0.00147094 0.00482264)
(0.00261227 -0.00180828 0.00491778)
(0.00268651 -0.00224261 0.00499091)
(0.0027922 -0.00275569 0.00503296)
(0.00289336 -0.00328263 0.00503061)
(0.00295357 -0.00375633 0.00500588)
(0.00291914 -0.00409486 0.00494636)
(0.00279028 -0.00423765 0.00474804)
(0.00262967 -0.00413082 0.00428921)
(0.00297805 -0.00447159 0.00414245)
(0.00443962 -0.0064439 0.00443387)
(0.00710515 -0.0109867 0.0042459)
(0.0106764 -0.0141268 0.001599)
(0.0152204 -0.014154 -0.00291271)
(0.0144261 -0.00556343 -0.00418677)
(0.017602 -0.0055001 0.000480969)
(0.0257686 -0.0139932 0.0051798)
(0.0552075 -0.0449982 0.0073359)
(0.107332 -0.0706506 -0.0201607)
(0.0943389 -0.0715228 -0.029164)
(0.0566479 -0.0335967 -0.0168488)
(0.0578737 -0.0849008 0.00947952)
(-0.044558 -0.0101212 0.0337298)
(-0.032952 -0.185231 0.0611341)
(-0.16825 0.0813197 -0.00122954)
(0.0335654 -0.201687 -0.0284306)
(0.160526 -0.16641 -0.0052117)
(0.0299683 0.144945 -0.00440018)
(-0.00162106 -0.00342884 -0.00196061)
(-0.00648609 0.108517 0.0376442)
(-0.0155297 0.0876732 0.0356212)
(-0.0135838 0.114279 0.0168035)
(-0.00109665 0.112096 -0.00226044)
(0.00838705 0.115405 -0.00864508)
(0.0153685 0.108419 -0.0125528)
(0.0200516 0.104772 -0.00927983)
(0.0227483 0.0931211 -0.00585758)
(0.0135793 0.0815824 -0.00704845)
(0.00120711 0.0623241 -0.0114105)
(-0.0144992 0.0406457 -0.0175045)
(-0.0256622 0.040449 -0.020491)
(-0.0280032 0.0519032 -0.0111793)
(-0.0140783 0.0619197 0.0036656)
(0.00462101 0.0593023 0.0167203)
(0.0115266 0.0522547 0.0232669)
(0.0171524 0.0495561 0.0195215)
(0.021271 0.0457067 0.00858061)
(0.0183154 0.0385451 0.00446708)
(0.00996052 0.0275871 0.000731104)
(-0.00329547 0.0152134 -0.0128527)
(-0.006844 0.0171272 -0.0172002)
(0.0127437 0.0109195 -0.0198865)
(0.021459 0.0276379 -0.0323237)
(0.0131632 0.0553694 -0.0284876)
(0.000969592 0.0689383 0.000297034)
(-0.00208427 0.0618502 0.0203135)
(-0.00112127 0.0552494 0.0245744)
(0.000237258 0.0549539 0.0264817)
(-0.00634179 0.057592 0.0305364)
(-0.0133296 0.0542923 0.0389962)
(-0.0134972 0.0480031 0.0494362)
(-0.00287697 0.0146306 0.0670882)
(0.0244122 0.01876 0.00509201)
(0.026226 0.0093629 0.00557654)
(0.0135108 0.00356529 0.00275104)
(0.011547 0.00421375 0.00301054)
(0.00625236 0.00117651 0.00382956)
(0.00513053 0.00199532 0.00408779)
(0.00260659 -0.000743931 0.00423325)
(0.00179418 0.000197597 0.00380084)
(0.000322791 0.000412394 0.00363197)
(-3.69325e-06 0.00256534 0.00378165)
(-3.86235e-05 0.0033059 0.00412552)
(0.000592104 0.00412062 0.00457473)
(0.00120904 0.00401075 0.00480735)
(0.0018627 0.00385199 0.00497748)
(0.0022725 0.00322092 0.00494925)
(0.0025977 0.00257821 0.00491221)
(0.00269061 0.0018217 0.00485251)
(0.00277519 0.00121083 0.00481581)
(0.0027835 0.000630047 0.00479197)
(0.00275306 0.000189513 0.00479349)
(0.00269481 -0.000147935 0.00481811)
(0.00261982 -0.000364648 0.00485798)
(0.00252835 -0.000502529 0.00490696)
(0.00242486 -0.000567377 0.00496475)
(0.0023148 -0.00059093 0.00502898)
(0.00220085 -0.000590283 0.00509625)
(0.00208243 -0.000588829 0.00516607)
(0.00196338 -0.000600732 0.00523911)
(0.00184466 -0.000641191 0.00531757)
(0.00174037 -0.000712745 0.00540303)
(0.00163968 -0.000816383 0.00548442)
(0.00152087 -0.000949897 0.00556109)
(0.0013814 -0.0011062 0.00563887)
(0.00124644 -0.0012874 0.00571633)
(0.00116484 -0.00148695 0.00578827)
(0.00116033 -0.00168116 0.0058441)
(0.00122301 -0.00182907 0.00587742)
(0.00133908 -0.00192294 0.00589356)
(0.00145147 -0.00196793 0.005903)
(0.00156866 -0.00198428 0.00593717)
(0.00166992 -0.00201121 0.00598035)
(0.00175005 -0.00212555 0.00601486)
(0.00196861 -0.00245106 0.0060982)
(0.00298576 -0.00377048 0.00645735)
(0.00493515 -0.00657077 0.0071757)
(0.00776122 -0.0102627 0.00758189)
(0.0108194 -0.0109718 0.00571044)
(0.0144837 -0.010789 0.000538448)
(0.0140244 -0.00337989 -0.000131621)
(0.020903 -0.00554542 0.00883448)
(0.0405504 -0.00645214 0.0157462)
(0.0835897 -0.04191 0.00875197)
(0.134046 -0.0224033 -0.0256638)
(0.0844875 0.00289813 -0.0321477)
(0.0477866 0.038832 -0.00717415)
(0.0307575 0.00665144 0.0300377)
(-0.0285622 0.135336 0.0778031)
(0.0141077 -0.22101 0.0696236)
(-0.191757 0.179884 0.00697867)
(0.0311794 -0.223668 0.00026604)
(0.165054 -0.112808 -0.0167314)
(0.0719109 0.160141 -0.0152317)
(0.0711981 0.058755 -0.013942)
(0.0283477 0.127976 -0.0106815)
(0.0277827 0.126901 -0.00899745)
(0.0305045 0.131175 -0.0056855)
(0.0369954 0.125761 -0.00323307)
(0.0389395 0.124466 0.000746162)
(0.0400996 0.118667 0.00383157)
(0.0357148 0.115432 0.0088165)
(0.0325596 0.109469 0.0137062)
(0.0241384 0.105817 0.0139307)
(0.0203442 0.101163 0.00998853)
(0.00570676 0.0917393 0.00526332)
(-0.00854142 0.0818913 0.00640544)
(-0.0110288 0.0740422 0.0178902)
(0.00166865 0.0696111 0.0344658)
(0.0151026 0.0671854 0.0415014)
(0.0277478 0.0619233 0.039041)
(0.0305241 0.055938 0.0314666)
(0.0258879 0.0452807 0.0213628)
(0.0248269 0.0352567 0.020025)
(0.0183873 0.0182045 0.0203189)
(0.00912831 -0.000728028 0.0157669)
(0.00804431 -0.0191763 0.0125235)
(0.0156922 -0.0305395 0.0101633)
(0.0151507 -0.0290464 0.00720325)
(0.0160634 -0.0228205 -0.00888575)
(0.0135606 -0.00323401 -0.0376174)
(0.000404499 0.0189222 -0.0127989)
(-0.00433518 0.00595493 0.0146228)
(-0.0101904 0.0110368 0.0198299)
(-0.0153224 0.0114535 0.0264625)
(-0.0169825 0.00655089 0.0375158)
(-0.0247083 0.0205154 0.0514648)
(-0.0253777 0.00334689 0.0697823)
(0.0252085 0.0185719 0.00521199)
(0.0283464 0.0133433 0.00557852)
(0.0153304 0.00563077 0.00207722)
(0.0129398 0.00717968 0.00246857)
(0.00624771 0.00271318 0.00414321)
(0.00570773 0.00409378 0.00439614)
(0.00226751 0.000207165 0.00495751)
(0.000758228 0.000676135 0.00432411)
(-0.00130196 -0.000497305 0.0041047)
(-0.00158933 0.0011425 0.00404682)
(-0.0016568 0.0016366 0.00440948)
(-0.000958315 0.00292417 0.00497472)
(-0.000316582 0.00331282 0.00517084)
(0.000416279 0.00361217 0.00532787)
(0.00089909 0.00325008 0.00525169)
(0.00124649 0.00281346 0.00521215)
(0.00132336 0.0021791 0.00516928)
(0.00139514 0.00167703 0.0051608)
(0.00140234 0.0011583 0.00514839)
(0.0013573 0.000716488 0.00513728)
(0.00126857 0.000324021 0.0051373)
(0.00115116 2.65202e-05 0.00515181)
(0.0010153 -0.000201223 0.00517881)
(0.000871561 -0.00035486 0.00521874)
(0.000732075 -0.000454066 0.00527011)
(0.000602462 -0.000515629 0.00533104)
(0.000480146 -0.000561243 0.00539847)
(0.000367393 -0.000602362 0.00546949)
(0.000270328 -0.000652556 0.00554224)
(0.000193605 -0.000720308 0.00561337)
(0.000123064 -0.000805421 0.00567647)
(4.34012e-05 -0.000900261 0.0057353)
(-4.03094e-05 -0.000998569 0.00579677)
(-0.000104213 -0.00109714 0.00585045)
(-0.000125226 -0.00118582 0.00587781)
(-0.000104519 -0.00123252 0.00586032)
(-3.43166e-05 -0.00121744 0.00581001)
(7.80836e-05 -0.00116402 0.00576427)
(0.000197047 -0.00110139 0.00577302)
(0.000306035 -0.00105549 0.00587215)
(0.000379154 -0.00100669 0.00603321)
(0.000495553 -0.00105622 0.00624017)
(0.000974174 -0.00137543 0.00660714)
(0.00230449 -0.00259027 0.00732909)
(0.00399288 -0.00471082 0.00828289)
(0.00586194 -0.00708727 0.00847286)
(0.00884174 -0.00680261 0.00595213)
(0.0137465 -0.00802838 -0.000267305)
(0.0157238 -0.00673573 -0.000112147)
(0.0170599 -0.00949553 0.011663)
(0.0393117 -0.0079808 0.0277789)
(0.087446 -0.017597 0.00816909)
(0.122255 0.0174732 -0.0228357)
(0.0953914 0.0347651 -0.0427676)
(0.0148939 0.0588979 -0.0207835)
(-0.00360322 0.0307952 0.0377196)
(0.0253331 0.168287 0.0941215)
(-0.0510514 -0.120524 0.0405002)
(-0.291509 0.487026 0.0102603)
(0.0176695 -0.343468 0.0320673)
(0.143246 -0.0962183 -0.0303875)
(0.048414 0.15997 -0.0222018)
(0.0479764 0.10394 -0.0213647)
(0.0249103 0.158993 -0.0153882)
(0.0242368 0.162352 -0.00655852)
(0.0310276 0.15942 0.00358824)
(0.032413 0.142662 0.00735674)
(0.0324609 0.132586 0.0124148)
(0.0300832 0.126879 0.0136371)
(0.0256029 0.115839 0.0131829)
(0.0182871 0.107822 0.0176856)
(0.00760671 0.100507 0.0215187)
(0.000139196 0.0971964 0.0320525)
(-0.00280804 0.090888 0.0385616)
(-0.00690453 0.0890036 0.041396)
(-0.00801698 0.0847079 0.0430101)
(-0.00238288 0.0836192 0.0504048)
(0.007456 0.0844528 0.045642)
(0.0133705 0.0837721 0.0342375)
(0.01638 0.083783 0.0327316)
(0.0177517 0.0747509 0.0320558)
(0.016838 0.0617367 0.0358936)
(0.0125976 0.0471517 0.0401242)
(0.00602375 0.025184 0.0351061)
(-0.00161789 0.00452645 0.0344982)
(-0.00297976 -0.00910247 0.0408031)
(-0.00884304 -0.0167205 0.0397005)
(-0.0158736 -0.016867 0.0257099)
(-0.0197676 -0.00786509 -0.00950674)
(-0.0163084 0.0167557 -0.00590596)
(-0.0182066 0.0154568 0.017266)
(-0.0253373 0.0168497 0.0210295)
(-0.0305616 0.0134726 0.0236853)
(-0.0442447 0.0014402 0.0311516)
(-0.0607924 0.0130808 0.0471677)
(-0.0588384 -0.000525256 0.0705747)
(0.0252811 0.0189965 0.00426624)
(0.0291726 0.0165349 0.00464103)
(0.0176458 0.00724255 -0.000665646)
(0.0152218 0.00907877 -0.000467768)
(0.0065559 0.00258342 0.00209413)
(0.0058264 0.00513912 0.00286418)
(0.00169175 0.00145654 0.00453651)
(2.8138e-05 0.0022593 0.00427547)
(-0.00247396 -0.000710819 0.00418659)
(-0.00338406 3.84903e-05 0.00399256)
(-0.00400085 -5.88008e-05 0.00423403)
(-0.00357617 0.00163862 0.00487846)
(-0.00289742 0.00251 0.00507632)
(-0.00190737 0.0032365 0.00525865)
(-0.00125355 0.00313131 0.00516186)
(-0.000866643 0.00278793 0.00514635)
(-0.000904019 0.00221636 0.00512073)
(-0.000968718 0.00177528 0.00513952)
(-0.00106857 0.0013241 0.00513333)
(-0.00117537 0.000920447 0.00510686)
(-0.00131079 0.000527754 0.0050757)
(-0.00144367 0.000198611 0.00505165)
(-0.0015768 -8.1918e-05 0.00504017)
(-0.00171752 -0.000295414 0.00504139)
(-0.00185424 -0.000452292 0.00505543)
(-0.00197475 -0.000562986 0.00508472)
(-0.00208101 -0.000647225 0.00512547)
(-0.00216763 -0.000713644 0.00517281)
(-0.00222974 -0.000776047 0.00521801)
(-0.00226859 -0.000835955 0.00525205)
(-0.00230402 -0.000889838 0.00527481)
(-0.00235614 -0.000939612 0.00529407)
(-0.00242457 -0.000976097 0.00531588)
(-0.00248355 -0.000986101 0.00532246)
(-0.00250161 -0.00095743 0.00528529)
(-0.00247136 -0.000879321 0.00519627)
(-0.00237278 -0.000756895 0.00508407)
(-0.00221858 -0.000604201 0.0049933)
(-0.00208864 -0.000416798 0.00498771)
(-0.00200944 -0.000222065 0.00511206)
(-0.00194371 -6.04612e-05 0.00534946)
(-0.00173984 -0.000134766 0.00568822)
(-0.00115574 -0.000564013 0.00622842)
(0.000131194 -0.00185008 0.0071)
(0.00147554 -0.00360411 0.00822666)
(0.00294686 -0.00561975 0.00825692)
(0.00653128 -0.00589836 0.0049875)
(0.0161086 -0.0074269 -0.00154445)
(0.0168045 -0.00636312 -0.000927185)
(0.014964 -0.00640955 0.0162025)
(0.0317538 -0.00413217 0.0378451)
(0.0797591 0.00371869 0.011808)
(0.130026 0.0465801 -0.016195)
(0.107662 0.0710845 -0.0328966)
(0.0111199 0.0838135 -0.0583376)
(-0.050677 0.104941 0.00818591)
(-0.0639613 0.170212 0.0307748)
(-0.146307 0.0794742 0.0206498)
(-0.253758 0.469176 0.0505869)
(0.00217633 -0.375926 0.0273765)
(0.104691 -0.0456479 -0.019238)
(0.047494 0.174712 -0.00935791)
(0.0538859 0.160446 -0.00932296)
(0.0398636 0.207948 -0.00726829)
(0.0401716 0.216684 0.00207243)
(0.0391686 0.207592 0.0202094)
(0.0346007 0.195435 0.0297248)
(0.0239743 0.183549 0.0319429)
(0.0172316 0.173688 0.0248663)
(0.0111519 0.168813 0.0189855)
(0.00654053 0.164913 0.0181626)
(-0.000372618 0.161025 0.0201651)
(-0.00489913 0.153187 0.0265272)
(-0.00819586 0.147211 0.0272546)
(-0.0108621 0.141656 0.0234499)
(-0.016513 0.138084 0.0187152)
(-0.0183309 0.137253 0.014665)
(-0.0150768 0.13951 0.0100331)
(-0.00567624 0.138627 0.0128867)
(0.00378461 0.131318 0.0243198)
(0.00756215 0.118743 0.032823)
(0.0082184 0.105401 0.040008)
(0.00643147 0.0893047 0.0454736)
(0.000201635 0.0677606 0.0491734)
(-0.0072829 0.0436536 0.0499338)
(-0.0172433 0.0242436 0.0460174)
(-0.0289844 0.00648599 0.0288817)
(-0.0379993 0.00116463 -0.00357872)
(-0.0416402 0.0192551 -0.0215932)
(-0.026057 0.028555 0.0053124)
(-0.0266385 0.0302326 0.0238593)
(-0.0267419 0.023169 0.0291563)
(-0.0306682 0.0167093 0.0292274)
(-0.0459896 0.000569594 0.0301689)
(-0.0705011 0.0133571 0.0460955)
(-0.0969349 -0.006908 0.0645759)
(0.0249273 0.0190106 0.0025755)
(0.0305427 0.0208851 0.00408886)
(0.0207058 0.0103038 -0.00134147)
(0.0195074 0.0116906 -0.0014259)
(0.00794238 0.00102671 -0.00155741)
(0.00561489 0.00490327 -8.85639e-05)
(0.00069482 0.0018555 0.00282333)
(-0.000120201 0.00356455 0.00350453)
(-0.00242061 -0.000245537 0.0036221)
(-0.00418061 -0.000157251 0.00333564)
(-0.00522278 -0.00125567 0.00340025)
(-0.00520931 0.000491294 0.00409806)
(-0.00428035 0.00178663 0.0044563)
(-0.00291334 0.00280581 0.00494396)
(-0.00187827 0.00269193 0.00511289)
(-0.0013867 0.00240421 0.00527736)
(-0.00148232 0.00182509 0.00529144)
(-0.00167834 0.00147789 0.00530458)
(-0.00187786 0.00117081 0.0052685)
(-0.00205195 0.000927694 0.00519385)
(-0.00223882 0.00066308 0.00509224)
(-0.00242014 0.000418804 0.00498351)
(-0.00260567 0.00018343 0.0048786)
(-0.00277545 -2.40236e-05 0.00478977)
(-0.00291677 -0.000198781 0.00471977)
(-0.00301697 -0.000328148 0.00466965)
(-0.00308762 -0.000416915 0.00463666)
(-0.00312975 -0.000473194 0.00461407)
(-0.00314617 -0.000508687 0.00459083)
(-0.0031511 -0.000535637 0.00455844)
(-0.00315067 -0.000558863 0.00452683)
(-0.00316553 -0.000570996 0.00450465)
(-0.00319193 -0.000553712 0.0044881)
(-0.00320257 -0.00049079 0.00445199)
(-0.00318139 -0.000377716 0.00437004)
(-0.00312825 -0.000222607 0.00424366)
(-0.00304722 -5.60123e-05 0.00408198)
(-0.00299099 9.72933e-05 0.00391526)
(-0.00297794 0.000273382 0.00382496)
(-0.00295341 0.000489768 0.00388328)
(-0.00287443 0.000702838 0.00407076)
(-0.00262138 0.000584328 0.00436651)
(-0.00189909 -0.000126044 0.00490692)
(-0.000478961 -0.00180722 0.00603559)
(0.000455308 -0.00340984 0.00733099)
(0.00208868 -0.00512089 0.00720183)
(0.00647568 -0.00528636 0.00293654)
(0.0161413 -0.00859057 -0.00134969)
(0.0189659 -0.0009291 -0.00175673)
(0.00993476 -0.00941083 0.0184562)
(0.0178463 0.00625671 0.0333499)
(0.0586281 0.0229967 0.0073542)
(0.113497 0.0854246 -0.0164838)
(0.115474 0.121236 -0.026996)
(0.0342082 0.152985 -0.0784457)
(-0.0849308 0.155423 -0.0737442)
(-0.121328 0.188796 -0.0565838)
(-0.142501 0.0631787 -0.010374)
(-0.161766 0.369452 0.06109)
(0.014872 -0.370374 0.0374181)
(0.0423265 -0.0544935 -0.0258866)
(0.00269251 0.178864 -0.00395205)
(0.0190252 0.186117 -0.000435174)
(0.0159994 0.23068 0.00367628)
(0.0261376 0.239901 0.0193644)
(0.0259167 0.227722 0.038381)
(0.0308303 0.211438 0.0444745)
(0.0240803 0.190423 0.0416039)
(0.0208167 0.167157 0.0339083)
(0.013906 0.157387 0.02938)
(0.0147469 0.145981 0.023107)
(0.0103816 0.140669 0.0159308)
(0.00781414 0.138677 0.0113993)
(0.00347122 0.146121 0.00347664)
(0.0018486 0.155961 -0.00233486)
(-0.00371979 0.159467 -0.00376376)
(-0.00596683 0.158834 -0.00518276)
(-0.00575088 0.153531 -0.00403187)
(-0.00254631 0.14406 -0.000758917)
(-0.00460231 0.133992 0.0012662)
(-0.00650836 0.121931 0.0100651)
(-0.00864288 0.106007 0.0227219)
(-0.00912688 0.0920392 0.0312084)
(-0.0109308 0.0801373 0.0352853)
(-0.0167797 0.0641577 0.028445)
(-0.0295264 0.0470882 0.0138057)
(-0.0406708 0.0359916 -0.000505336)
(-0.0465856 0.0311331 -0.00692404)
(-0.0456053 0.0268326 -0.00727256)
(-0.0397078 0.0272411 0.0117096)
(-0.041421 0.0307287 0.0210348)
(-0.0412784 0.0229541 0.0272023)
(-0.0492265 0.0187509 0.0310345)
(-0.0656198 -0.00630079 0.0323359)
(-0.0974815 0.00970908 0.0483557)
(-0.115403 -0.000634001 0.0655603)
(0.0238641 0.0187472 0.00207668)
(0.0322124 0.0260337 0.00553059)
(0.0239193 0.0139862 0.00151458)
(0.0237832 0.0149771 0.00226621)
(0.0119351 -0.000695853 -0.00326563)
(0.00485599 0.00314465 -0.00272933)
(-0.000506902 0.000456173 0.000888967)
(-0.000600624 0.00414753 0.00246884)
(-0.00272099 0.000588129 0.00259912)
(-0.00481234 0.000676121 0.00266234)
(-0.00690712 -0.0011946 0.00254818)
(-0.00814974 0.000138915 0.00333375)
(-0.00729858 0.00114752 0.00399477)
(-0.00520304 0.00211974 0.00508933)
(-0.00395793 0.00200305 0.00569854)
(-0.00350943 0.00182776 0.00610912)
(-0.00384886 0.00132859 0.0061587)
(-0.00437515 0.00107116 0.00609853)
(-0.00480942 0.000887427 0.00594954)
(-0.00507806 0.000811832 0.00574769)
(-0.00528013 0.000735491 0.0055285)
(-0.00541963 0.000674907 0.00531962)
(-0.00552413 0.000588122 0.00512885)
(-0.00561562 0.000492206 0.00497759)
(-0.00570796 0.000399358 0.00486515)
(-0.00578531 0.000324861 0.00477614)
(-0.00582469 0.000269821 0.00470002)
(-0.00582508 0.000243862 0.0046457)
(-0.00577686 0.000242415 0.00461546)
(-0.00568867 0.000246495 0.00460229)
(-0.005607 0.000244444 0.00460201)
(-0.00557184 0.000261285 0.00461426)
(-0.00557946 0.000336661 0.00462536)
(-0.00559123 0.000478831 0.00460563)
(-0.00555626 0.000671702 0.00455051)
(-0.00545547 0.000883224 0.00445874)
(-0.00528017 0.00106563 0.00434045)
(-0.00512638 0.00115845 0.00419427)
(-0.00512204 0.00118567 0.00401352)
(-0.00520501 0.00124807 0.00387596)
(-0.00508866 0.00133873 0.00385318)
(-0.00439175 0.00116759 0.00395783)
(-0.00308948 0.000350138 0.00432124)
(-0.00193059 -0.00133389 0.00525931)
(-0.00176738 -0.00258675 0.00638262)
(-0.000605451 -0.00414299 0.00578605)
(0.00442665 -0.00343506 0.00268713)
(0.012368 -0.0043859 0.000572745)
(0.0168662 0.00302301 -0.000632313)
(-0.000165594 0.00548583 0.0111183)
(-0.0123597 0.0131322 0.0141878)
(0.0377384 0.063829 -0.0182007)
(0.0976996 0.133538 -0.0193222)
(0.103257 0.192533 -0.0163515)
(0.0893481 0.219236 -0.0272592)
(0.0633222 0.208339 -0.0356522)
(0.0179042 0.211607 -0.0594471)
(-0.0962132 -0.0391685 -0.0625947)
(-0.166841 0.335495 -0.012792)
(0.00569562 -0.368478 0.0387699)
(-0.00806512 -0.00691597 -0.0251925)
(-0.0260787 0.193849 -0.0160241)
(0.00193333 0.209391 0.00717392)
(0.00575706 0.243731 0.0098476)
(0.0207987 0.248036 0.0277196)
(0.0246193 0.236732 0.0406771)
(0.0342453 0.222576 0.0474265)
(0.0394976 0.207093 0.0467468)
(0.0405463 0.185353 0.0366917)
(0.0352071 0.171584 0.0289262)
(0.0327264 0.162768 0.0208601)
(0.0240855 0.159905 0.00989991)
(0.0101815 0.159396 0.00161366)
(0.00201983 0.169987 0.000133993)
(0.000533878 0.184389 0.00103623)
(0.0004983 0.193982 0.00264568)
(0.00300378 0.195794 0.00926961)
(0.00457341 0.189365 0.0155696)
(0.00774629 0.179259 0.0168002)
(0.00847177 0.164182 0.0128556)
(0.00736461 0.144856 0.00948706)
(0.00487146 0.123907 0.00803927)
(-0.00551794 0.0975714 0.00660029)
(-0.0192542 0.0720767 0.0018269)
(-0.0208171 0.0596237 -0.00176407)
(-0.025717 0.0464059 -0.00515065)
(-0.0334345 0.0359299 -0.00541177)
(-0.0362274 0.0289545 -0.00381047)
(-0.0364667 0.0221161 -0.00440386)
(-0.0394567 0.0180901 -0.00239019)
(-0.0440644 0.0187205 -0.00323373)
(-0.0423751 0.0145651 0.00179424)
(-0.0471671 0.016661 0.0156674)
(-0.0671657 -0.00733247 0.0204901)
(-0.108281 0.0039679 0.0250806)
(-0.143229 -0.0121768 0.0553537)
(0.0250983 0.0155196 0.00094563)
(0.0323895 0.0294112 0.0070505)
(0.0251493 0.0180407 0.00325021)
(0.0262396 0.019738 0.00467086)
(0.0174534 0.00188501 -0.00262641)
(0.00442171 0.00260889 -0.00530879)
(-0.00314841 -0.00186083 -0.000956354)
(-0.00230653 0.0031025 0.00124683)
(-0.00272379 0.000374505 0.00255264)
(-0.00451282 0.00183847 0.00291047)
(-0.0066276 -0.000354615 0.00279708)
(-0.00814269 0.000211216 0.00374203)
(-0.00717484 -0.000288943 0.00471762)
(-0.00501276 7.13232e-05 0.0061391)
(-0.00377626 -9.86057e-06 0.00715956)
(-0.00329248 0.000356989 0.00793821)
(-0.00352504 0.000529389 0.00826583)
(-0.00399683 0.000769311 0.00832561)
(-0.0044162 0.000952259 0.008195)
(-0.00471326 0.00113423 0.00794772)
(-0.00495399 0.00121245 0.00765019)
(-0.00511084 0.00125286 0.00736763)
(-0.00521868 0.00123854 0.00711231)
(-0.00529928 0.00119846 0.00689152)
(-0.00535996 0.00114226 0.00671666)
(-0.00538712 0.00108788 0.00658109)
(-0.00539106 0.00104613 0.00647174)
(-0.00536172 0.00102157 0.00638695)
(-0.00529279 0.00101114 0.00632022)
(-0.00518223 0.00101034 0.00627193)
(-0.00508302 0.00100833 0.00623848)
(-0.00505376 0.00104946 0.00621192)
(-0.00507983 0.0011758 0.00617461)
(-0.00509021 0.00136266 0.00611002)
(-0.00505691 0.00156981 0.00600886)
(-0.00495633 0.00174629 0.00588035)
(-0.00477862 0.00183774 0.00573793)
(-0.00461054 0.0018276 0.00557952)
(-0.00459058 0.00174253 0.00538171)
(-0.00467449 0.00166667 0.00521498)
(-0.00451923 0.00164201 0.00516183)
(-0.00368777 0.00144874 0.00526115)
(-0.00223559 0.000833262 0.00565926)
(-0.0011116 -0.000476001 0.00657483)
(-0.00112581 -0.0013883 0.00785681)
(-0.000336981 -0.0019774 0.00800462)
(0.00324327 -0.000647824 0.00635387)
(0.00790952 0.0018713 0.00312971)
(0.0112777 0.0103325 0.0029703)
(-0.00300953 0.0162163 0.00721189)
(-0.0403838 0.0154199 0.0106774)
(-0.0104338 0.0748373 -0.0191914)
(0.0699832 0.196194 -0.0178329)
(0.0669578 0.296646 -0.0112193)
(0.0742714 0.345062 0.00791126)
(0.0921484 0.3562 0.0231833)
(0.083257 0.330914 0.0304228)
(0.0270076 0.23544 0.0363614)
(-0.0431705 0.42006 0.0506186)
(-0.00956966 -0.407953 0.0308628)
(-0.0978448 0.0253206 -0.0329317)
(-0.0518361 0.189051 0.00272174)
(-0.0207653 0.19391 0.0251781)
(-0.0077302 0.222355 0.0312651)
(0.00472853 0.218648 0.0426588)
(0.00450519 0.206367 0.0498986)
(0.00936435 0.190543 0.0510466)
(0.0152535 0.182782 0.0492822)
(0.0230269 0.178889 0.0394893)
(0.0294779 0.177969 0.0322138)
(0.032297 0.175516 0.026332)
(0.0312308 0.172126 0.0142434)
(0.0258941 0.174975 0.00505078)
(0.019611 0.177121 0.00422979)
(0.0133798 0.179984 0.00477063)
(0.00907316 0.183768 0.00612363)
(0.00857883 0.185517 0.0152784)
(0.0135901 0.188903 0.0238761)
(0.0218456 0.187281 0.0262581)
(0.0294038 0.179909 0.02334)
(0.0343957 0.170512 0.0183207)
(0.0363324 0.154831 0.0101196)
(0.0325876 0.138383 0.00668659)
(0.0197468 0.118502 0.00819228)
(0.00845108 0.0945712 0.000401394)
(-0.00958858 0.0718598 -0.010296)
(-0.0202597 0.0526856 -0.0101152)
(-0.0213288 0.0402705 -0.00524263)
(-0.0277006 0.0319067 -0.0159593)
(-0.0361853 0.0301404 -0.0321842)
(-0.0481592 0.0362077 -0.0474138)
(-0.0641661 0.0381331 -0.053793)
(-0.0779343 0.0420998 -0.0418838)
(-0.100455 0.0220953 -0.0182589)
(-0.124474 0.0305895 0.0257799)
(-0.156346 -0.00169598 0.0468607)
(0.0182723 0.0128902 -0.0017386)
(0.0307684 0.0304531 0.00704114)
(0.0247632 0.0225706 0.00214902)
(0.0271341 0.0262145 0.00389978)
(0.0224442 0.0084305 -0.00167398)
(0.0088748 0.00582714 -0.0085452)
(-0.00248946 -0.0047639 -0.00662348)
(-0.00317508 0.00203534 -0.00430552)
(-0.00544761 -0.000302273 -0.00158838)
(-0.0065967 0.00219135 -0.000413055)
(-0.008377 -0.000149252 -0.000163574)
(-0.00951428 -0.000112081 0.000894692)
(-0.0090847 -0.00159601 0.00175165)
(-0.00781886 -0.00131614 0.00280476)
(-0.00739687 -0.00120649 0.00370504)
(-0.00749099 -0.000452561 0.00454525)
(-0.00799654 6.93179e-05 0.00520981)
(-0.00857214 0.000614904 0.00560835)
(-0.00905819 0.000992981 0.00572398)
(-0.00920335 0.00128508 0.00564836)
(-0.00922467 0.00143803 0.00549259)
(-0.00919106 0.00154445 0.00532734)
(-0.00912135 0.00158326 0.0051757)
(-0.00904511 0.00158464 0.00503583)
(-0.00896855 0.00156134 0.0049151)
(-0.00888473 0.0015293 0.00481414)
(-0.00879544 0.00150127 0.00472572)
(-0.0086887 0.00148655 0.00464928)
(-0.00855061 0.00148906 0.00457726)
(-0.00837423 0.00151687 0.00450889)
(-0.00825422 0.00155379 0.00444733)
(-0.00825156 0.00163708 0.00439146)
(-0.00828972 0.00177768 0.00433738)
(-0.00828887 0.00195199 0.0042623)
(-0.00818226 0.00212723 0.00415832)
(-0.007959 0.00226448 0.00403365)
(-0.00766072 0.00232206 0.00389408)
(-0.00742441 0.00229372 0.00375226)
(-0.00740149 0.00216873 0.00358999)
(-0.00758643 0.00196168 0.00345791)
(-0.00746352 0.0017571 0.00344331)
(-0.00645753 0.00141066 0.003588)
(-0.00473054 0.000929739 0.00397189)
(-0.003726 6.58739e-05 0.0047445)
(-0.00453086 -0.000311099 0.00589206)
(-0.00539841 -0.000758938 0.00577126)
(-0.00413712 0.00106451 0.00367202)
(-0.00190077 0.00276581 0.000101607)
(0.000821346 0.0129986 0.00102086)
(-0.00519927 0.0194577 0.00847698)
(-0.0595905 0.0162066 0.0136717)
(-0.0884022 0.0180553 -0.0082569)
(-0.0481104 0.136376 -0.0209442)
(0.0446708 0.283133 0.0182205)
(0.102266 0.33621 0.0383963)
(0.139093 0.341067 0.0638648)
(0.141775 0.348804 0.0754108)
(0.181537 0.289399 0.12806)
(0.240715 0.545098 0.195541)
(-0.00548499 -0.406201 0.0334749)
(-0.157109 -0.00620519 -0.0463863)
(-0.0568432 0.156364 -0.0115791)
(-0.0345217 0.141021 -0.00608613)
(-0.00112007 0.174961 0.00234155)
(0.001555 0.179415 0.00955107)
(0.0073234 0.166329 0.025477)
(0.00423075 0.148134 0.0367135)
(0.0112344 0.135039 0.0461536)
(0.00550427 0.12485 0.051919)
(0.00575171 0.109502 0.0486194)
(0.00465826 0.102632 0.0480891)
(0.00636222 0.0952437 0.0463646)
(0.00743357 0.0934001 0.0413526)
(0.00581729 0.0948976 0.0345678)
(0.00336295 0.0952842 0.026484)
(-0.000670938 0.0933692 0.00850123)