/*--------------------------------*- C++ -*----------------------------------*\
| =========                 |                                                 |
| \\      /  F ield         | OpenFOAM: The Open Source CFD Toolbox           |
|  \\    /   O peration     | Version:  2.3.0                                 |
|   \\  /    A nd           | Web:      www.OpenFOAM.org                      |
|    \\/     M anipulation  |                                                 |
\*---------------------------------------------------------------------------*/
FoamFile
{
    version     2.0;
    format      ascii;
    class       volVectorField;
    location    "31";
    object      Ur;
}
// * * * * * * * * * * * * * * * * * * * * * * * * * * * * * * * * * * * * * //

dimensions      [0 1 -1 0 0 0 0];

internalField   nonuniform List<vector> 
6144
(
(-3.18168e-07 0.000351371 -9.31493e-08)
(-2.3739e-07 0.000378065 -2.11122e-07)
(-1.06474e-07 0.000404195 -1.99445e-07)
(3.99791e-08 0.000424616 -2.09015e-07)
(1.33308e-07 0.000447 -1.48838e-07)
(2.23178e-07 0.000471786 -1.26358e-07)
(2.75096e-07 0.000501624 -1.01551e-07)
(2.86287e-07 0.000533703 -7.9467e-08)
(2.78456e-07 0.000554077 -7.05878e-08)
(2.69081e-07 0.000559516 -7.24406e-08)
(2.56155e-07 0.000559524 -7.14274e-08)
(2.42796e-07 0.000559142 -5.6979e-08)
(2.3443e-07 0.000558797 -5.8166e-08)
(2.33813e-07 0.000558472 -5.97287e-08)
(2.40398e-07 0.000558171 -6.76728e-08)
(2.5042e-07 0.000557914 -7.54894e-08)
(2.60048e-07 0.000557696 -8.76733e-08)
(2.71645e-07 0.000557524 -9.838e-08)
(2.81199e-07 0.000557385 -1.10459e-07)
(2.94327e-07 0.000557278 -1.21568e-07)
(3.05114e-07 0.000557193 -1.30782e-07)
(3.18575e-07 0.000557127 -1.36398e-07)
(3.29566e-07 0.00055708 -1.41818e-07)
(3.43071e-07 0.000557047 -1.44947e-07)
(3.54008e-07 0.000557021 -1.48579e-07)
(3.67335e-07 0.000556996 -1.50352e-07)
(3.78118e-07 0.000556985 -1.53863e-07)
(3.91379e-07 0.000556998 -1.57107e-07)
(4.01748e-07 0.000557031 -1.6087e-07)
(4.1488e-07 0.000557078 -1.63905e-07)
(4.24458e-07 0.000557143 -1.68325e-07)
(4.36129e-07 0.000557224 -1.72035e-07)
(4.44309e-07 0.000557322 -1.78023e-07)
(4.54467e-07 0.000557443 -1.83217e-07)
(4.59584e-07 0.000557588 -1.90742e-07)
(4.65663e-07 0.000557769 -1.95326e-07)
(4.64351e-07 0.000557973 -2.02503e-07)
(4.63219e-07 0.000558218 -2.06629e-07)
(4.51371e-07 0.000558477 -2.15193e-07)
(4.38265e-07 0.000558816 -2.19197e-07)
(4.1348e-07 0.000559227 -2.25216e-07)
(3.68512e-07 0.000559763 -2.38141e-07)
(3.11849e-07 0.000560403 -2.39026e-07)
(2.47624e-07 0.000561256 -2.33396e-07)
(1.33674e-07 0.000562277 -2.30053e-07)
(-7.42125e-10 0.00056363 -2.20658e-07)
(-2.11415e-07 0.00056536 -2.05345e-07)
(-4.74137e-07 0.000567743 -2.17404e-07)
(-8.41844e-07 0.000572523 -1.42602e-07)
(-1.24087e-06 0.000619068 -9.21956e-08)
(-1.51768e-06 0.000850432 -2.09869e-08)
(-2.27999e-06 0.00135254 -1.87704e-07)
(-1.98299e-06 0.00192194 -1.54805e-06)
(-6.36455e-06 0.00223211 -1.30396e-06)
(-8.541e-06 0.00243077 3.53953e-06)
(-1.90563e-05 0.00287409 -7.97839e-07)
(3.26053e-05 0.00408572 3.12384e-05)
(5.33519e-05 0.00733391 0.000167639)
(0.00116157 0.0258518 0.00152238)
(0.0139629 0.178669 0.0221347)
(-0.0143219 0.575545 -0.00357221)
(-0.0208523 0.43117 -0.0159579)
(-0.000282078 0.0215929 -0.000206074)
(-1.10735e-05 0.00673603 9.67714e-06)
(-4.2444e-05 0.00694693 -2.93036e-06)
(-6.57995e-05 0.00690723 -1.99519e-05)
(-6.72654e-05 0.00692765 -1.62312e-05)
(-7.26215e-05 0.00699048 -1.18905e-05)
(-7.68966e-05 0.00708972 -7.6041e-06)
(-7.43368e-05 0.00721265 -1.22258e-06)
(-7.17168e-05 0.00737473 2.74776e-06)
(-6.69748e-05 0.00754463 5.39818e-06)
(-6.62826e-05 0.00771486 5.24721e-06)
(-5.85473e-05 0.00787264 1.68121e-06)
(-4.72595e-05 0.00796581 -3.10313e-06)
(-4.22385e-05 0.00799377 -9.9087e-06)
(-3.43129e-05 0.00797523 -1.27451e-05)
(-2.59094e-05 0.00792642 -1.90072e-05)
(-2.04178e-05 0.00789129 -2.52972e-05)
(-1.19883e-05 0.0078623 -1.5661e-05)
(-3.44929e-06 0.00786281 -2.3914e-06)
(2.26785e-06 0.00788622 -3.92613e-06)
(7.11255e-06 0.00786306 -3.83872e-06)
(6.72446e-06 0.00781115 -4.97379e-06)
(1.86458e-06 0.00774844 -6.36396e-06)
(-2.71238e-06 0.00763302 -6.3188e-06)
(-5.02213e-06 0.00739699 -5.22832e-06)
(-5.53041e-07 0.00713027 -4.32649e-06)
(3.92049e-06 0.00700643 -3.6815e-06)
(4.96144e-06 0.00703003 -6.71594e-06)
(4.15175e-06 0.00710308 -5.27538e-06)
(1.02621e-06 0.007197 -3.84877e-06)
(-2.59333e-06 0.00730713 -3.41532e-06)
(-5.90099e-06 0.00736769 -3.55173e-06)
(-7.41342e-06 0.00700653 -5.29917e-06)
(-6.12507e-06 0.0062887 -3.64377e-06)
(-3.47517e-07 0.000336291 -1.06984e-07)
(7.331e-08 0.000372804 -1.84045e-07)
(3.02826e-07 0.000409918 -1.61567e-07)
(5.95527e-07 0.000436575 -1.8131e-07)
(7.67765e-07 0.000461381 -1.17249e-07)
(8.92676e-07 0.000486511 -6.3818e-08)
(9.60135e-07 0.000514579 1.6204e-08)
(9.47662e-07 0.000540955 5.14638e-08)
(8.87494e-07 0.000555863 4.33149e-08)
(8.20963e-07 0.00055952 5.00045e-08)
(7.82258e-07 0.000559384 5.21509e-08)
(7.58271e-07 0.000559162 7.38486e-08)
(7.65071e-07 0.000558972 7.89541e-08)
(7.85466e-07 0.000558714 7.94249e-08)
(8.23369e-07 0.000558428 6.95512e-08)
(8.65044e-07 0.000558164 5.85971e-08)
(9.10941e-07 0.00055794 4.7456e-08)
(9.57646e-07 0.000557756 3.58529e-08)
(1.00327e-06 0.000557605 2.78945e-08)
(1.04889e-06 0.000557486 1.85487e-08)
(1.09201e-06 0.000557393 1.32424e-08)
(1.13491e-06 0.000557325 7.24252e-09)
(1.17491e-06 0.000557278 4.80383e-09)
(1.21574e-06 0.000557246 1.2211e-09)
(1.25425e-06 0.000557225 6.91065e-10)
(1.29385e-06 0.000557216 -1.65593e-09)
(1.33154e-06 0.000557226 -1.42854e-09)
(1.37036e-06 0.000557256 -3.22188e-09)
(1.40689e-06 0.000557302 -2.84635e-09)
(1.44427e-06 0.000557359 -6.08498e-09)
(1.47844e-06 0.000557429 -6.5288e-09)
(1.51345e-06 0.000557513 -1.02593e-08)
(1.54516e-06 0.000557618 -1.25676e-08)
(1.57655e-06 0.000557747 -1.78221e-08)
(1.60051e-06 0.000557901 -2.13452e-08)
(1.62082e-06 0.000558083 -2.6978e-08)
(1.62698e-06 0.000558292 -2.93925e-08)
(1.62519e-06 0.00055854 -3.46228e-08)
(1.60195e-06 0.00055881 -3.84295e-08)
(1.56595e-06 0.000559159 -4.38865e-08)
(1.49879e-06 0.000559575 -4.73021e-08)
(1.39467e-06 0.000560094 -5.14151e-08)
(1.24303e-06 0.00056073 -5.39957e-08)
(1.05741e-06 0.000561506 -5.06553e-08)
(7.44144e-07 0.000562465 -5.60019e-08)
(3.6628e-07 0.000563701 -4.96831e-08)
(-2.13332e-07 0.000565603 -6.14451e-08)
(-9.38131e-07 0.000569 -7.13388e-08)
(-1.93158e-06 0.000573888 -2.46494e-08)
(-3.00861e-06 0.000646663 1.07018e-07)
(-3.458e-06 0.000925173 2.47216e-07)
(-3.18506e-06 0.00141814 -3.79818e-08)
(-6.42442e-06 0.00190231 -1.97081e-06)
(-1.45807e-05 0.00210363 -1.1309e-06)
(-1.67844e-05 0.00234044 5.07425e-06)
(-2.47933e-05 0.00298037 1.98882e-06)
(2.23463e-05 0.00441894 6.90936e-05)
(-2.5645e-05 0.00853029 0.00023601)
(-0.000887038 0.0320105 0.00227266)
(-0.00148754 0.176637 0.0167124)
(-0.0342352 0.569039 -0.00875686)
(-0.0296527 0.404264 -0.0183055)
(-0.000338925 0.021743 -0.000331977)
(1.69532e-05 0.00694978 9.8512e-05)
(-0.000103476 0.00689073 8.8517e-06)
(-0.000132075 0.00693687 -1.58045e-05)
(-0.000149054 0.00700766 -1.48921e-05)
(-0.000167901 0.00710649 -1.07147e-05)
(-0.00017554 0.00725625 -5.21378e-06)
(-0.000173563 0.00746093 2.3869e-06)
(-0.000166377 0.00773224 6.43122e-06)
(-0.000162742 0.00803075 1.013e-05)
(-0.000149709 0.00825446 9.2206e-06)
(-0.000128626 0.00834684 3.2168e-06)
(-0.000117123 0.00831037 -1.74851e-06)
(-9.70258e-05 0.00818459 -9.45818e-06)
(-7.0809e-05 0.00804214 -6.13317e-06)
(-6.18181e-05 0.0079529 -1.00551e-05)
(-5.52196e-05 0.0079071 -1.60437e-05)
(-3.61462e-05 0.00784977 -4.77836e-06)
(-7.70647e-06 0.00781443 7.1585e-06)
(1.36098e-05 0.00778823 8.76443e-06)
(1.77915e-05 0.00770838 5.26641e-06)
(4.45383e-06 0.00755193 -3.10494e-06)
(-9.72836e-06 0.00737078 -8.42785e-06)
(-1.45604e-05 0.00720359 -9.21847e-06)
(-1.24509e-05 0.00706196 -7.75877e-06)
(-3.72153e-06 0.00699555 -5.20566e-06)
(5.48942e-06 0.00703928 -5.82065e-06)
(1.0281e-05 0.00713203 -7.9617e-06)
(9.47523e-06 0.00720643 -6.85538e-06)
(1.31863e-06 0.0072851 -6.86969e-06)
(-1.084e-05 0.00735512 -6.17254e-06)
(-2.1573e-05 0.00735123 -3.49069e-06)
(-2.64073e-05 0.0069567 -2.2428e-06)
(-2.04061e-05 0.00624316 -3.88585e-06)
(2.45984e-08 0.000318427 -3.5356e-07)
(8.0183e-07 0.000353253 -2.13923e-07)
(1.06313e-06 0.000392389 -1.5611e-07)
(1.43027e-06 0.000424345 -1.03428e-07)
(1.57248e-06 0.000455522 -3.66904e-09)
(1.64732e-06 0.000486511 4.479e-08)
(1.6221e-06 0.000516015 1.21434e-07)
(1.54075e-06 0.000539447 1.23262e-07)
(1.44849e-06 0.000552064 9.4876e-08)
(1.35001e-06 0.000556164 9.37779e-08)
(1.28942e-06 0.000557324 9.03738e-08)
(1.25744e-06 0.000558173 1.06364e-07)
(1.27256e-06 0.00055865 1.06188e-07)
(1.31222e-06 0.000558666 1.02564e-07)
(1.37435e-06 0.000558461 9.07936e-08)
(1.44517e-06 0.000558218 8.23354e-08)
(1.5231e-06 0.000558004 7.5036e-08)
(1.60457e-06 0.000557826 7.00239e-08)
(1.68851e-06 0.00055768 6.61825e-08)
(1.77076e-06 0.000557564 6.39545e-08)
(1.8499e-06 0.000557473 6.23717e-08)
(1.92614e-06 0.000557406 6.09967e-08)
(1.99928e-06 0.000557358 5.96543e-08)
(2.07135e-06 0.000557325 5.84116e-08)
(2.14109e-06 0.000557305 5.71444e-08)
(2.21093e-06 0.000557298 5.54139e-08)
(2.2792e-06 0.000557309 5.36686e-08)
(2.34778e-06 0.000557337 5.1656e-08)
(2.41474e-06 0.000557379 4.9647e-08)
(2.48119e-06 0.000557433 4.72929e-08)
(2.54588e-06 0.000557501 4.48442e-08)
(2.61012e-06 0.000557585 4.13107e-08)
(2.67145e-06 0.000557689 3.75817e-08)
(2.72977e-06 0.000557815 3.31176e-08)
(2.78021e-06 0.000557962 2.86492e-08)
(2.82197e-06 0.000558131 2.41814e-08)
(2.84878e-06 0.000558319 2.08339e-08)
(2.85746e-06 0.00055854 1.56678e-08)
(2.83814e-06 0.000558796 1.09644e-08)
(2.79211e-06 0.000559116 5.41992e-09)
(2.69971e-06 0.000559505 1.22903e-09)
(2.5602e-06 0.000559989 -2.34655e-09)
(2.33834e-06 0.000560559 -3.95304e-09)
(2.03735e-06 0.000561251 -3.70884e-09)
(1.57893e-06 0.000562152 -5.42685e-09)
(9.7989e-07 0.000563194 -8.20384e-09)
(1.25059e-07 0.000565099 -1.34695e-08)
(-9.96019e-07 0.000568972 -3.37692e-08)
(-2.45135e-06 0.000578149 1.5126e-08)
(-3.98397e-06 0.000696508 2.98489e-07)
(-4.23196e-06 0.00102912 1.77859e-07)
(-4.7793e-06 0.00143538 -2.41012e-07)
(-1.19416e-05 0.00177962 -1.96181e-06)
(-1.76538e-05 0.00199982 -2.52856e-06)
(-1.58481e-05 0.00239824 9.5361e-06)
(-3.67049e-06 0.00310154 5.14565e-06)
(-9.66382e-06 0.0041997 5.482e-05)
(-0.000218813 0.00632161 0.000312569)
(-0.00263228 0.0259163 0.00149215)
(0.00217553 0.167796 0.0136485)
(-0.0182685 0.557043 -0.0102745)
(-0.0160008 0.381423 -0.015747)
(-0.000479822 0.0232496 -0.000965638)
(-0.000208224 0.00816848 4.41972e-05)
(-0.000144423 0.00704633 -1.04352e-05)
(-0.000136846 0.00708721 -1.31893e-05)
(-0.000177711 0.00708925 -1.18684e-05)
(-0.000197379 0.00714214 -6.05694e-06)
(-0.000190897 0.00729857 5.06309e-06)
(-0.000177093 0.00755573 1.64711e-05)
(-0.000172083 0.00791306 2.52212e-05)
(-0.00016846 0.00830301 2.96447e-05)
(-0.000156023 0.00857669 1.90728e-05)
(-0.000145609 0.00867126 4.93354e-06)
(-0.000139311 0.00862544 -1.24401e-06)
(-0.000130139 0.00846183 -7.76842e-06)
(-0.000104266 0.0082187 -1.30152e-05)
(-7.93454e-05 0.00800883 -1.32812e-05)
(-6.79062e-05 0.00790843 -6.26444e-06)
(-4.29798e-05 0.00783986 5.72729e-06)
(5.11425e-07 0.00776291 1.78843e-05)
(2.9302e-05 0.0076477 2.22519e-05)
(1.07789e-05 0.00735562 7.81569e-06)
(-1.91307e-05 0.0068987 -6.3209e-06)
(-2.5318e-05 0.00654967 -8.90253e-06)
(-2.22744e-05 0.00647878 -8.94949e-06)
(-1.45557e-05 0.00658973 -7.93454e-06)
(-2.87064e-06 0.00678264 -7.12914e-06)
(7.49341e-06 0.0069842 -1.00369e-05)
(1.23663e-05 0.00715015 -1.13568e-05)
(1.14664e-05 0.00729923 -7.31017e-06)
(1.90149e-06 0.00744052 -7.18346e-06)
(-1.66313e-05 0.00755742 -1.05769e-05)
(-3.38694e-05 0.00755875 -8.59541e-06)
(-4.39908e-05 0.00706605 -3.88703e-06)
(-3.47784e-05 0.00622733 -3.0834e-06)
(3.88941e-07 0.000304645 -5.76587e-08)
(1.51665e-06 0.0003347 -1.43613e-09)
(1.7633e-06 0.000372587 -2.94039e-08)
(2.23306e-06 0.000405078 3.61516e-08)
(2.28933e-06 0.0004357 1.01906e-07)
(2.32424e-06 0.000467619 1.09633e-07)
(2.23313e-06 0.00050252 1.73099e-07)
(2.10434e-06 0.000533313 1.64354e-07)
(1.99056e-06 0.000549764 1.3242e-07)
(1.89512e-06 0.000554695 1.14112e-07)
(1.83363e-06 0.00055629 1.01987e-07)
(1.79986e-06 0.000557647 1.22084e-07)
(1.81171e-06 0.000558427 1.19825e-07)
(1.85446e-06 0.00055856 1.1444e-07)
(1.9288e-06 0.000558401 1.00784e-07)
(2.01434e-06 0.000558177 8.90252e-08)
(2.10707e-06 0.000557973 8.34514e-08)
(2.20427e-06 0.000557804 7.87965e-08)
(2.30726e-06 0.000557666 7.68259e-08)
(2.41237e-06 0.000557552 7.36207e-08)
(2.51761e-06 0.000557459 7.33115e-08)
(2.62072e-06 0.000557387 7.14305e-08)
(2.72236e-06 0.000557332 7.08948e-08)
(2.82301e-06 0.000557291 6.81158e-08)
(2.92325e-06 0.000557263 6.72557e-08)
(3.02284e-06 0.00055725 6.4111e-08)
(3.12195e-06 0.000557256 6.27008e-08)
(3.2205e-06 0.000557279 5.91906e-08)
(3.31831e-06 0.000557316 5.71503e-08)
(3.41527e-06 0.000557366 5.31238e-08)
(3.51031e-06 0.000557432 5.01398e-08)
(3.60366e-06 0.000557513 4.53101e-08)
(3.69307e-06 0.000557614 4.19077e-08)
(3.77762e-06 0.000557736 3.73565e-08)
(3.85224e-06 0.000557878 3.35169e-08)
(3.91524e-06 0.00055804 2.8655e-08)
(3.95951e-06 0.00055822 2.35448e-08)
(3.98108e-06 0.000558421 1.72275e-08)
(3.96803e-06 0.000558656 1.16289e-08)
(3.9157e-06 0.000558948 4.84927e-09)
(3.80534e-06 0.000559285 1.77996e-09)
(3.62867e-06 0.000559693 -6.46913e-10)
(3.35669e-06 0.00056019 2.14573e-09)
(2.97242e-06 0.000560748 2.92669e-09)
(2.42513e-06 0.000561489 9.50749e-09)
(1.67082e-06 0.000562343 1.10571e-08)
(6.27931e-07 0.000564011 2.23314e-08)
(-8.16556e-07 0.000567176 5.01704e-08)
(-2.51179e-06 0.000612203 2.38626e-07)
(-4.30513e-06 0.000803514 3.19614e-07)
(-5.28307e-06 0.00111339 -4.08767e-07)
(-9.1306e-06 0.00140077 7.83061e-08)
(-1.49429e-05 0.00172241 -9.73489e-07)
(-2.20301e-05 0.0020471 -3.99049e-06)
(-1.96991e-05 0.00253897 1.09686e-05)
(-3.35517e-05 0.00320721 -1.02118e-06)
(-3.54372e-05 0.00417045 5.97144e-05)
(-0.000324709 0.0051941 0.000364753)
(-0.00241901 0.026269 0.000913523)
(0.00334526 0.17501 0.0145625)
(-0.0168647 0.616373 -0.0140661)
(-0.0075564 0.472222 -0.00988971)
(-0.00557942 0.489205 -0.00241853)
(0.000114104 0.389523 0.00105692)
(-0.000336238 0.0286555 -0.000256078)
(-0.000353009 0.00956467 -0.000239905)
(-0.000502339 0.00761416 -4.6639e-05)
(-0.000164327 0.00687952 -1.64028e-05)
(-0.00013595 0.00692285 -6.05134e-06)
(-0.000106582 0.00710719 5.23299e-06)
(-9.18374e-05 0.00746519 1.56018e-05)
(-8.52263e-05 0.00800687 1.9896e-05)
(-9.30351e-05 0.00845508 1.04405e-05)
(-0.000102616 0.00861792 -3.33248e-07)
(-0.000104962 0.00857754 -5.56749e-06)
(-0.000101036 0.00842517 -7.66125e-06)
(-9.11243e-05 0.00821952 -5.00867e-06)
(-7.85167e-05 0.00805189 -2.27397e-06)
(-6.57623e-05 0.00792512 1.28446e-06)
(-2.57688e-05 0.00778623 1.77363e-05)
(1.70527e-05 0.00759501 3.74986e-05)
(4.42406e-06 0.00718761 2.25687e-05)
(-3.29105e-05 0.00652133 4.31397e-07)
(-3.64035e-05 0.0059849 -7.87957e-06)
(-2.62412e-05 0.00587177 -8.34428e-06)
(-1.43556e-05 0.00607118 -8.55167e-06)
(-2.03816e-06 0.00641687 -9.25007e-06)
(7.48004e-06 0.00678006 -1.17523e-05)
(9.29044e-06 0.00709184 -1.53556e-05)
(6.46058e-06 0.00734743 -1.09158e-05)
(4.91516e-06 0.0074366 -5.67244e-06)
(-1.82186e-06 0.0073839 -7.89163e-06)
(-1.65028e-05 0.00741273 -2.15638e-05)
(-3.55388e-05 0.00746556 -1.78852e-05)
(-4.60985e-05 0.00700094 -8.48483e-06)
(-3.78568e-05 0.00613971 -3.46994e-06)
(5.98135e-07 0.000294612 -1.11751e-07)
(2.25078e-06 0.000318182 1.18032e-07)
(2.51891e-06 0.000353425 2.99532e-08)
(3.08118e-06 0.000385846 7.61451e-08)
(3.02813e-06 0.000416662 1.16582e-07)
(3.03532e-06 0.000448819 9.96923e-08)
(2.86807e-06 0.000483102 1.41399e-07)
(2.65237e-06 0.000517618 1.5497e-07)
(2.49452e-06 0.000543208 1.51925e-07)
(2.41122e-06 0.000553519 1.34389e-07)
(2.364e-06 0.000555863 1.01577e-07)
(2.34057e-06 0.000557537 1.1989e-07)
(2.35804e-06 0.00055851 1.16298e-07)
(2.41049e-06 0.000558686 1.18383e-07)
(2.48464e-06 0.000558555 1.04286e-07)
(2.5732e-06 0.000558361 9.53346e-08)
(2.67126e-06 0.00055818 8.87125e-08)
(2.77447e-06 0.000558033 8.68246e-08)
(2.88456e-06 0.000557913 8.19281e-08)
(2.99942e-06 0.000557814 7.86246e-08)
(3.11845e-06 0.000557734 7.45182e-08)
(3.24137e-06 0.00055767 7.15876e-08)
(3.36781e-06 0.000557621 6.79264e-08)
(3.49569e-06 0.000557586 6.55892e-08)
(3.62566e-06 0.000557562 6.20978e-08)
(3.75539e-06 0.000557549 5.977e-08)
(3.8866e-06 0.000557552 5.66257e-08)
(4.01671e-06 0.000557569 5.4167e-08)
(4.14711e-06 0.000557599 5.07886e-08)
(4.27461e-06 0.00055764 4.70012e-08)
(4.40048e-06 0.000557693 4.19061e-08)
(4.52121e-06 0.000557758 3.66459e-08)
(4.63811e-06 0.00055784 3.22121e-08)
(4.74549e-06 0.000557939 2.80196e-08)
(4.843e-06 0.000558057 2.52674e-08)
(4.92305e-06 0.000558192 2.10931e-08)
(4.98342e-06 0.000558338 1.84328e-08)
(5.01184e-06 0.0005585 1.37826e-08)
(5.00521e-06 0.000558683 1.19719e-08)
(4.94349e-06 0.000558912 7.07953e-09)
(4.82022e-06 0.000559182 9.04901e-09)
(4.6174e-06 0.000559503 8.30011e-09)
(4.31841e-06 0.000559893 1.91808e-08)
(3.88873e-06 0.000560321 2.33089e-08)
(3.2944e-06 0.000560876 4.29334e-08)
(2.45067e-06 0.000561466 6.98428e-08)
(1.30892e-06 0.000562511 1.51003e-07)
(-2.49199e-07 0.00058113 3.67025e-07)
(-2.10085e-06 0.000678326 7.7217e-07)
(-4.43112e-06 0.000871868 6.94048e-07)
(-7.55501e-06 0.00108561 -3.56569e-08)
(-1.15432e-05 0.00130498 -2.54529e-07)
(-1.63826e-05 0.00159476 -1.11149e-06)
(-2.36327e-05 0.00195808 5.43759e-07)
(-1.8642e-05 0.00253767 9.9013e-06)
(7.8336e-06 0.00340167 -2.3802e-05)
(-6.34803e-05 0.00455285 0.000136616)
(-0.000366514 0.00419623 0.000685366)
(-0.0025332 0.0231119 0.000860332)
(0.00559848 0.180822 0.0147274)
(-0.0088332 0.599484 -0.0163348)
(0.00775986 0.464695 0.00446031)
(-0.00356308 0.510363 -0.00578104)
(0.00757368 0.472775 -0.000750958)
(-0.00601683 0.466156 -0.0063929)
(-0.0133096 0.442794 -0.00851686)
(-0.0153107 0.349807 -0.00540901)
(-0.000125866 0.0278152 -0.000273979)
(-1.79159e-05 0.00759644 -0.000325164)
(0.00011847 0.00752229 -3.97277e-06)
(0.000230014 0.00709876 6.6123e-06)
(0.000261781 0.00702185 1.41098e-05)
(0.000176588 0.00732374 3.05893e-06)
(7.44363e-05 0.00768509 -1.14162e-05)
(-1.95045e-05 0.00786748 -2.49026e-05)
(-0.00011957 0.00791024 -0.000227727)
(-0.000181675 0.00768564 -0.000158613)
(-0.000205202 0.00731603 1.23454e-05)
(-0.000149855 0.00709844 5.27552e-05)
(-0.000108636 0.00697398 6.76214e-05)
(-0.00019229 0.00689817 3.70975e-05)
(-0.000308856 0.00674868 -5.21252e-06)
(-6.8588e-05 0.00645292 -1.52554e-05)
(-3.20623e-05 0.00613846 -1.41634e-05)
(-1.43879e-05 0.00603721 -1.54255e-05)
(-2.85094e-06 0.00618952 -1.71676e-05)
(4.22285e-06 0.00653272 -2.01265e-05)
(5.21964e-06 0.00697202 -1.90307e-05)
(1.47242e-06 0.00735239 -1.29451e-05)
(-4.35979e-06 0.0075129 -1.15935e-05)
(-7.19342e-06 0.00738516 -1.39501e-05)
(-3.6154e-06 0.00714715 -1.01172e-05)
(-1.07421e-06 0.00710413 -1.47063e-05)
(-1.79598e-05 0.0072025 -1.38282e-05)
(-3.80522e-05 0.00680907 -8.41734e-06)
(-3.2428e-05 0.0059726 -3.02605e-06)
(9.4268e-07 0.000289814 2.06211e-07)
(3.17236e-06 0.000306514 2.86969e-07)
(3.43717e-06 0.000337096 6.53755e-08)
(4.03635e-06 0.000367414 -2.56239e-08)
(3.83109e-06 0.000397322 3.5465e-08)
(3.75839e-06 0.000429797 -3.87075e-08)
(3.46613e-06 0.000463062 -1.09627e-08)
(3.15067e-06 0.000498524 4.09801e-08)
(2.93552e-06 0.000531703 9.42996e-08)
(2.83728e-06 0.000549932 1.07501e-07)
(2.79452e-06 0.000554776 7.43863e-08)
(2.79411e-06 0.00055692 8.42285e-08)
(2.82631e-06 0.000558216 9.23812e-08)
(2.88619e-06 0.000558476 1.08124e-07)
(2.97231e-06 0.000558376 1.07846e-07)
(3.06722e-06 0.000558199 1.06871e-07)
(3.16422e-06 0.000558026 1.05639e-07)
(3.26541e-06 0.000557885 1.07339e-07)
(3.37079e-06 0.00055778 1.06249e-07)
(3.48609e-06 0.0005577 1.02985e-07)
(3.61166e-06 0.000557638 9.79143e-08)
(3.74873e-06 0.000557592 9.18267e-08)
(3.89326e-06 0.000557559 8.52715e-08)
(4.04408e-06 0.000557536 7.95938e-08)
(4.1972e-06 0.000557521 7.39424e-08)
(4.35341e-06 0.000557517 6.96776e-08)
(4.50896e-06 0.000557527 6.48873e-08)
(4.66556e-06 0.00055755 6.14056e-08)
(4.81852e-06 0.000557585 5.65273e-08)
(4.96964e-06 0.000557629 5.27647e-08)
(5.11427e-06 0.000557684 4.72664e-08)
(5.25429e-06 0.000557749 4.51314e-08)
(5.38343e-06 0.000557827 4.18038e-08)
(5.50381e-06 0.000557921 4.27604e-08)
(5.60591e-06 0.000558027 4.15016e-08)
(5.69132e-06 0.000558151 4.47669e-08)
(5.74752e-06 0.000558274 4.47388e-08)
(5.77018e-06 0.000558404 4.96652e-08)
(5.74455e-06 0.000558544 5.14175e-08)
(5.66658e-06 0.000558714 5.84449e-08)
(5.51499e-06 0.00055892 6.30166e-08)
(5.28793e-06 0.000559161 7.53792e-08)
(4.94795e-06 0.000559444 8.74256e-08)
(4.48102e-06 0.000559735 1.07863e-07)
(3.81215e-06 0.000560097 1.2457e-07)
(2.90332e-06 0.000560408 1.75238e-07)
(1.69505e-06 0.000561875 2.55335e-07)
(1.53386e-07 0.000579097 5.42092e-07)
(-1.92869e-06 0.000653407 1.00906e-06)
(-5.05148e-06 0.000805545 1.27127e-06)
(-9.57177e-06 0.00100685 6.28153e-07)
(-1.33448e-05 0.00122998 -4.37115e-07)
(-1.7898e-05 0.00146277 3.71918e-08)
(-2.11655e-05 0.00184845 7.66175e-06)
(-1.03556e-06 0.00272889 5.35916e-05)
(7.84917e-05 0.00346143 7.37944e-05)
(-6.35989e-05 0.00417927 0.000198173)
(-0.000237976 0.00335124 0.000480395)
(-0.00157865 0.0222434 0.00150493)
(0.00608587 0.200822 0.019778)
(-0.00529994 0.595009 -0.0119548)
(0.0149389 0.46882 0.00617903)
(0.0041019 0.481254 -0.00028581)
(0.00535114 0.458261 -0.0025873)
(0.0022323 0.385884 -0.00335099)
(-0.00604863 0.366443 -0.00578528)
(-0.0152735 0.488218 -0.0065061)
(-0.0246279 0.481541 -0.0035466)
(-0.0169967 0.486909 0.000247897)
(-0.0199555 0.492195 0.000991439)
(-0.0180382 0.492433 8.57379e-05)
(-0.0158046 0.486403 -0.000721915)
(-0.0120665 0.478425 -0.00129275)
(-0.00812179 0.474679 -0.000287903)
(-0.0028487 0.468923 0.00218007)
(-0.00017401 0.465726 0.00684303)
(0.0022121 0.462759 0.0116518)
(0.00232135 0.468123 0.0150986)
(-9.48943e-06 0.471704 0.00985309)
(-0.00322682 0.465898 0.000847944)
(-0.00355608 0.441353 -0.00605793)
(-0.000804538 0.335127 -0.00747319)
(-0.000148972 0.0293946 -0.000155533)
(-8.4534e-05 0.0067131 -0.000270418)
(-3.04534e-05 0.00600648 -0.000298362)
(-1.39463e-05 0.00603078 -0.0002914)
(-2.8176e-05 0.00602832 -0.000273848)
(-5.77503e-05 0.00602566 -0.000231439)
(-0.000100535 0.00600207 -0.000231119)
(-0.000129444 0.00695779 -0.000302588)
(-0.000166518 0.00871826 -0.000375656)
(-0.000176314 0.00839242 -0.00033333)
(-0.000139363 0.00632461 -0.000338307)
(-5.8213e-06 0.0056104 5.09337e-06)
(-1.98211e-05 0.00583645 -1.96655e-06)
(-2.49502e-05 0.00555803 -6.62562e-07)
(1.32358e-06 0.000289116 5.24369e-07)
(4.29091e-06 0.000299992 6.70259e-07)
(4.49243e-06 0.000323748 1.82519e-07)
(5.0169e-06 0.000349589 9.11074e-09)
(4.55726e-06 0.000377563 -8.28955e-08)
(4.29729e-06 0.000410961 -1.99008e-07)
(3.83069e-06 0.000447228 -1.88177e-07)
(3.46441e-06 0.000482649 -1.05865e-07)
(3.16474e-06 0.000515772 -4.64527e-08)
(3.04918e-06 0.000541175 1.77563e-08)
(3.01487e-06 0.00055226 7.24245e-09)
(3.05429e-06 0.000556249 4.42648e-08)
(3.10227e-06 0.000558268 5.91047e-08)
(3.161e-06 0.000558732 9.17295e-08)
(3.22389e-06 0.000558688 1.18396e-07)
(3.29916e-06 0.000558536 1.38538e-07)
(3.39507e-06 0.00055837 1.38934e-07)
(3.50043e-06 0.000558224 1.37564e-07)
(3.61985e-06 0.000558106 1.32359e-07)
(3.74856e-06 0.000558005 1.24513e-07)
(3.88844e-06 0.00055792 1.17522e-07)
(4.03439e-06 0.000557857 1.09334e-07)
(4.19022e-06 0.000557816 1.02644e-07)
(4.35043e-06 0.000557788 9.50451e-08)
(4.51716e-06 0.000557769 9.03272e-08)
(4.68383e-06 0.000557761 8.4913e-08)
(4.85334e-06 0.000557767 8.24541e-08)
(5.01771e-06 0.000557784 7.84311e-08)
(5.17912e-06 0.000557815 7.81233e-08)
(5.33074e-06 0.000557853 7.62266e-08)
(5.47673e-06 0.000557899 7.88461e-08)
(5.60985e-06 0.000557952 7.89377e-08)
(5.73405e-06 0.000558018 8.40984e-08)
(5.83867e-06 0.000558099 8.57264e-08)
(5.92628e-06 0.000558186 9.43288e-08)
(5.98533e-06 0.000558284 1.01083e-07)
(6.01675e-06 0.000558372 1.14232e-07)
(6.00049e-06 0.000558457 1.22867e-07)
(5.94081e-06 0.000558542 1.39673e-07)
(5.81238e-06 0.000558645 1.49631e-07)
(5.61553e-06 0.000558788 1.68402e-07)
(5.32903e-06 0.000558936 1.83561e-07)
(4.93914e-06 0.000559107 2.0718e-07)
(4.40785e-06 0.000559232 2.29612e-07)
(3.66748e-06 0.000559382 2.54149e-07)
(2.68931e-06 0.000559412 3.02229e-07)
(1.34815e-06 0.000560748 3.59526e-07)
(-2.85256e-07 0.000570927 5.85843e-07)
(-2.58661e-06 0.000609516 8.78798e-07)
(-5.71625e-06 0.000710034 1.24108e-06)
(-1.0889e-05 0.000912064 1.27841e-06)
(-1.60772e-05 0.00120471 -2.52497e-08)
(-2.15285e-05 0.00150948 7.51025e-08)
(-2.55162e-05 0.00195504 1.63203e-05)
(6.25562e-06 0.00284628 6.1708e-05)
(9.62057e-06 0.00346556 -2.76159e-05)
(-1.2362e-05 0.00383193 0.000138563)
(-0.000103534 0.00274658 0.000354656)
(-0.000232565 0.023309 0.00249827)
(0.00373042 0.241166 0.0188638)
(0.00227798 0.597514 -0.00161517)
(0.0141614 0.460629 0.00383142)
(0.00694421 0.461019 0.000974329)
(0.0052628 0.412586 -0.000875489)
(-0.000313894 0.296608 -0.00235618)
(-0.000155053 0.451123 -0.00581012)
(-0.00340012 0.484885 -0.00660308)
(-0.00711192 0.467649 -0.00623041)
(-0.00891117 0.493512 -0.00458053)
(-0.0144055 0.4919 -0.00161745)
(-0.0110121 0.494239 1.82286e-05)
(-0.01421 0.495116 0.000774416)
(-0.00981595 0.492567 0.00208991)
(-0.00835586 0.460269 0.00528307)
(-0.00696875 0.511956 0.00884764)
(-0.0047124 0.471418 0.0104851)
(-0.00319897 0.385452 0.0090025)
(-0.000475623 0.23752 0.000976262)
(-0.00123901 0.293917 -0.000225631)
(-0.000655696 0.491106 -0.00558763)
(0.00421993 0.477228 -0.00897304)
(0.01068 0.493604 -0.0111533)
(0.0114506 0.48282 -0.00828081)
(0.00541389 0.471034 -0.00310623)
(0.00544312 0.474494 -0.00236546)
(0.00143097 0.489759 0.000918651)
(0.000769717 0.474587 0.00176484)
(0.00158824 0.483978 0.00320007)
(0.0028042 0.484792 0.00513999)
(0.00257668 0.466683 0.00792235)
(0.000476368 0.47074 0.0104908)
(-0.0036174 0.453344 0.00707626)
(-0.00751469 0.324714 0.00307115)
(-0.000356988 0.0276345 -0.000270614)
(-0.000325101 0.00543203 -0.000252769)
(-3.85045e-05 0.00511722 -0.00037997)
(2.21036e-06 0.000284449 1.08756e-06)
(5.77521e-06 0.000295183 1.25964e-06)
(5.67673e-06 0.000312889 4.84124e-07)
(5.90363e-06 0.000332515 2.28937e-07)
(5.23684e-06 0.000358337 -1.24546e-07)
(4.74926e-06 0.000391781 -2.15941e-07)
(4.08273e-06 0.000432912 -2.21176e-07)
(3.638e-06 0.000472956 -1.78728e-07)
(3.26278e-06 0.00050523 -9.81775e-08)
(3.14319e-06 0.000533022 -2.34127e-08)
(3.02733e-06 0.000548915 1.2183e-08)
(3.09993e-06 0.000555134 7.38709e-08)
(3.11949e-06 0.000557938 1.18538e-07)
(3.16099e-06 0.000558671 1.68089e-07)
(3.20778e-06 0.000558701 2.05766e-07)
(3.25705e-06 0.000558596 2.45634e-07)
(3.32519e-06 0.000558473 2.70041e-07)
(3.41396e-06 0.000558359 2.89554e-07)
(3.52234e-06 0.000558273 2.94958e-07)
(3.64401e-06 0.000558212 2.92109e-07)
(3.77659e-06 0.000558167 2.83907e-07)
(3.91797e-06 0.000558134 2.76622e-07)
(4.06512e-06 0.000558111 2.68146e-07)
(4.21748e-06 0.000558097 2.62205e-07)
(4.37233e-06 0.000558091 2.5548e-07)
(4.52779e-06 0.000558096 2.52235e-07)
(4.68099e-06 0.000558112 2.47241e-07)
(4.82823e-06 0.000558138 2.45381e-07)
(4.96886e-06 0.000558169 2.41861e-07)
(5.10177e-06 0.000558203 2.42517e-07)
(5.22268e-06 0.000558242 2.42205e-07)
(5.33059e-06 0.000558287 2.47471e-07)
(5.42449e-06 0.000558338 2.51126e-07)
(5.49637e-06 0.000558398 2.5978e-07)
(5.53937e-06 0.000558464 2.65779e-07)
(5.55126e-06 0.000558531 2.79481e-07)
(5.52519e-06 0.00055858 2.89236e-07)
(5.44937e-06 0.00055862 3.066e-07)
(5.31848e-06 0.000558656 3.19615e-07)
(5.12332e-06 0.000558693 3.42004e-07)
(4.85276e-06 0.00055876 3.58435e-07)
(4.49568e-06 0.000558812 3.91048e-07)
(4.0126e-06 0.000558873 4.05346e-07)
(3.4208e-06 0.000558832 4.48249e-07)
(2.60048e-06 0.000558781 4.44422e-07)
(1.61007e-06 0.000558501 5.12522e-07)
(2.07068e-07 0.000559473 5.04555e-07)
(-1.36662e-06 0.000565972 6.61214e-07)
(-3.81576e-06 0.000591411 7.30399e-07)
(-6.64993e-06 0.000661084 7.77566e-07)
(-1.18029e-05 0.000819915 7.81387e-07)
(-1.75295e-05 0.00111207 -2.22231e-07)
(-2.57047e-05 0.00150755 5.50942e-07)
(-2.08993e-05 0.00202786 5.55748e-06)
(-1.90483e-05 0.00292347 7.09373e-05)
(-7.02074e-05 0.00365 -4.664e-07)
(-3.9318e-06 0.00389074 0.000145207)
(6.62023e-05 0.00275998 0.000124334)
(0.000716746 0.0245126 0.00207324)
(-0.000263651 0.246499 0.0182191)
(0.00676516 0.595215 0.00330179)
(0.0129517 0.475423 0.00268918)
(0.0114349 0.498993 0.00276892)
(0.00452576 0.480192 1.56436e-05)
(0.00605536 0.456992 0.001894)
(-0.00046997 0.431513 -0.000578309)
(-0.00330515 0.482908 -0.0016294)
(-0.00251022 0.505649 -0.00240224)
(-0.00144881 0.479403 -0.00292486)
(-0.00365826 0.495371 -0.00223878)
(-0.00241305 0.479935 0.000180109)
(-0.00972546 0.494533 0.00203255)
(-0.00749885 0.495585 0.0035306)
(-0.00698378 0.493774 0.00512181)
(-0.00580441 0.489274 0.00566117)
(-0.00360486 0.483566 0.004231)
(-0.000158445 0.481191 8.63332e-05)
(-0.000362815 0.494639 -0.00448983)
(-0.000350625 0.485844 -0.00786905)
(0.0015961 0.496933 -0.0116234)
(0.00340466 0.501173 -0.0100827)
(0.00428786 0.505692 -0.00933738)
(0.00344985 0.510295 -0.00643825)
(0.00405496 0.51216 -0.0040573)
(0.00366741 0.507944 -0.00112638)
(0.00314132 0.501199 0.000527791)
(0.00273447 0.494099 0.00201354)
(0.00157305 0.501882 0.00423527)
(-0.00101355 0.51191 0.00240488)
(-0.00269885 0.484549 0.00248271)
(-0.00425506 0.486966 0.00576332)
(-0.00792192 0.481189 0.00122645)
(-0.0119124 0.487418 -0.00412984)
(-0.0142065 0.451539 -0.0137593)
(-0.0133979 0.466368 -0.0233951)
(-0.00663282 0.438519 -0.0254818)
(3.46937e-06 0.000155199 1.18712e-06)
(7.67684e-06 0.000296123 2.09968e-06)
(6.8012e-06 0.000300423 7.07606e-07)
(6.61168e-06 0.000316461 3.5919e-07)
(5.71905e-06 0.000341072 -2.21451e-07)
(5.07531e-06 0.000374524 -3.10554e-07)
(4.33964e-06 0.000420904 -3.85166e-07)
(3.84272e-06 0.000471694 -3.73592e-07)
(3.49206e-06 0.000506427 -2.62096e-07)
(3.34083e-06 0.000531218 -2.5696e-07)
(3.1121e-06 0.000547079 -1.92397e-07)
(3.21206e-06 0.000554211 -2.01628e-07)