/*--------------------------------*- C++ -*----------------------------------*\
| =========                 |                                                 |
| \\      /  F ield         | OpenFOAM: The Open Source CFD Toolbox           |
|  \\    /   O peration     | Version:  2.3.0                                 |
|   \\  /    A nd           | Web:      www.OpenFOAM.org                      |
|    \\/     M anipulation  |                                                 |
\*---------------------------------------------------------------------------*/
FoamFile
{
    version     2.0;
    format      ascii;
    class       volScalarField;
    location    "9";
    object      alpha.air;
}
// * * * * * * * * * * * * * * * * * * * * * * * * * * * * * * * * * * * * * //

dimensions      [0 0 0 0 0 0 0];

internalField   nonuniform List<scalar> 
6144
(
0.999991
0.99999
0.99999
0.99999
0.99999
0.99999
0.99999
0.99999
0.99999
0.99999
0.99999
0.99999
0.99999
0.99999
0.99999
0.99999
0.99999
0.99999
0.99999
0.99999
0.99999
0.99999
0.99999
0.99999
0.99999
0.99999
0.99999
0.99999
0.99999
0.99999
0.99999
0.99999
0.99999
0.99999
0.99999
0.99999
0.99999
0.99999
0.99999
0.99999
0.99999
0.99999
0.99999
0.99999
0.99999
0.99999
0.99999
0.999987
0.999982
0.999978
0.999972
0.999966
0.99996
0.999956
0.999956
0.999955
0.999953
0.999949
0.999017
0.950438
0.0428313
0.000278838
9.94688e-07
6.74651e-07
6.75686e-07
6.77564e-07
6.79095e-07
6.88236e-07
7.12529e-07
7.29124e-07
7.40346e-07
7.51077e-07
7.66691e-07
7.78162e-07
7.81565e-07
7.87325e-07
8.02523e-07
8.10763e-07
8.17591e-07
8.2588e-07
7.94169e-07
7.67699e-07
7.59324e-07
7.63613e-07
7.77449e-07
7.96378e-07
8.20504e-07
8.33522e-07
8.28407e-07
7.64139e-07
5.63764e-07
5.38086e-07
5.77033e-07
5.82301e-07
5.90283e-07
5.58245e-07
0.999991
0.999991
0.99999
0.99999
0.99999
0.99999
0.99999
0.99999
0.99999
0.99999
0.99999
0.99999
0.99999
0.99999
0.99999
0.99999
0.99999
0.99999
0.99999
0.99999
0.99999
0.99999
0.99999
0.99999
0.99999
0.99999
0.99999
0.99999
0.99999
0.99999
0.99999
0.99999
0.99999
0.99999
0.99999
0.99999
0.99999
0.99999
0.99999
0.99999
0.99999
0.99999
0.99999
0.99999
0.99999
0.99999
0.99999
0.999989
0.999986
0.999982
0.999978
0.999969
0.999958
0.999948
0.999945
0.99994
0.999938
0.999933
0.999601
0.95637
0.0314297
7.88471e-05
6.63776e-07
6.82598e-07
6.75629e-07
6.77558e-07
6.82031e-07
7.64328e-07
9.00747e-07
8.94599e-07
8.80251e-07
8.75795e-07
8.69676e-07
8.63275e-07
8.56589e-07
8.54554e-07
8.55702e-07
8.40767e-07
8.22035e-07
7.83535e-07
7.42072e-07
7.23246e-07
7.14755e-07
7.19386e-07
7.37743e-07
7.71588e-07
7.97871e-07
8.0515e-07
8.04842e-07
7.98843e-07
7.16499e-07
5.49326e-07
5.7881e-07
5.87264e-07
5.93835e-07
5.65644e-07
0.999991
0.999991
0.999991
0.999991
0.99999
0.99999
0.99999
0.99999
0.99999
0.99999
0.99999
0.99999
0.99999
0.99999
0.99999
0.99999
0.99999
0.99999
0.99999
0.99999
0.99999
0.99999
0.99999
0.99999
0.99999
0.99999
0.99999
0.99999
0.99999
0.99999
0.99999
0.99999
0.99999
0.99999
0.99999
0.99999
0.99999
0.99999
0.99999
0.99999
0.99999
0.99999
0.99999
0.99999
0.99999
0.99999
0.99999
0.999989
0.999984
0.999978
0.999973
0.999961
0.99995
0.999942
0.999938
0.999928
0.999928
0.999922
0.999729
0.942149
0.0291918
4.43482e-05
6.63776e-07
8.05435e-07
6.75629e-07
6.75628e-07
6.75628e-07
7.7038e-07
9.00423e-07
8.65053e-07
8.5827e-07
8.59417e-07
8.69113e-07
8.8811e-07
8.97773e-07
8.9622e-07
8.71939e-07
8.46543e-07
8.15049e-07
7.74309e-07
7.43025e-07
7.28537e-07
7.14864e-07
7.15797e-07
7.31694e-07
7.77167e-07
8.07842e-07
8.08908e-07
8.08691e-07
8.02017e-07
7.17638e-07
5.4965e-07
5.7304e-07
5.82754e-07
5.89217e-07
5.62045e-07
0.999991
0.999991
0.999991
0.999991
0.99999
0.99999
0.99999
0.99999
0.99999
0.99999
0.99999
0.99999
0.99999
0.99999
0.99999
0.99999
0.99999
0.99999
0.99999
0.99999
0.99999
0.99999
0.99999
0.99999
0.99999
0.99999
0.99999
0.99999
0.99999
0.99999
0.99999
0.99999
0.99999
0.99999
0.99999
0.99999
0.99999
0.99999
0.99999
0.99999
0.99999
0.99999
0.99999
0.99999
0.99999
0.99999
0.99999
0.999989
0.999985
0.999977
0.999967
0.99995
0.99994
0.999934
0.999929
0.999918
0.99992
0.999913
0.999718
0.927657
0.0278934
0.000106455
4.50341e-05
3.01086e-05
2.00438e-05
1.54989e-05
1.35846e-05
1.03221e-05
8.18342e-06
6.07987e-06
4.79275e-06
3.76284e-06
3.08651e-06
2.55355e-06
1.82507e-06
1.12062e-06
9.17462e-07
9.84758e-07
1.04988e-06
9.66344e-07
9.15162e-07
7.32026e-07
7.1004e-07
7.1004e-07
7.12033e-07
7.38473e-07
7.79346e-07
7.9756e-07
8.06451e-07
7.95645e-07
6.82851e-07
5.4024e-07
5.77725e-07
5.8765e-07
5.90567e-07
5.52578e-07
0.999991
0.999991
0.999991
0.999991
0.99999
0.99999
0.99999
0.99999
0.99999
0.99999
0.99999
0.99999
0.99999
0.99999
0.99999
0.99999
0.99999
0.99999
0.99999
0.99999
0.99999
0.99999
0.99999
0.99999
0.99999
0.99999
0.99999
0.99999
0.99999
0.99999
0.99999
0.99999
0.99999
0.99999
0.99999
0.99999
0.99999
0.99999
0.99999
0.99999
0.99999
0.99999
0.99999
0.99999
0.99999
0.99999
0.99999
0.999989
0.999985
0.999975
0.999959
0.999942
0.999933
0.999927
0.999921
0.999914
0.999907
0.999905
0.999557
0.913787
0.0332023
0.00151038
0.00124608
0.000972629
0.000843129
0.000749346
0.000712893
0.000637655
0.000579388
0.000539352
0.000515684
0.000473497
0.000425087
0.000376022
0.000324623
0.000269474
0.000213085
0.000155645
0.000100565
5.71753e-05
2.68952e-05
9.72022e-06
2.89082e-06
1.01204e-06
7.09181e-07
7.09076e-07
7.49406e-07
7.92471e-07
7.92277e-07
7.35389e-07
5.85303e-07
5.62835e-07
5.9096e-07
5.97607e-07
5.92004e-07
5.42576e-07
0.999991
0.999991
0.999991
0.999991
0.999991
0.999991
0.99999
0.99999
0.99999
0.99999
0.99999
0.99999
0.99999
0.99999
0.99999
0.99999
0.99999
0.99999
0.99999
0.99999
0.99999
0.99999
0.99999
0.99999
0.99999
0.99999
0.99999
0.99999
0.99999
0.99999
0.99999
0.99999
0.99999
0.99999
0.99999
0.99999
0.99999
0.99999
0.99999
0.99999
0.99999
0.99999
0.99999
0.99999
0.99999
0.99999
0.99999
0.999988
0.999984
0.999971
0.999952
0.999935
0.999927
0.99992
0.999917
0.999914
0.999914
0.999914
0.999957
0.883738
0.0247914
0.00685829
0.0068154
0.00604136
0.00603072
0.00603965
0.00613972
0.00614494
0.00613996
0.00609491
0.00601745
0.00587258
0.0056776
0.00543659
0.00514923
0.00476132
0.00430119
0.00376932
0.00308244
0.00234889
0.00159783
0.000931633
0.00045737
0.000181116
4.71785e-05
5.15551e-06
3.66568e-07
3.67798e-07
6.32732e-07
5.53929e-07
5.28715e-07
5.70964e-07
5.81481e-07
5.81926e-07
5.60514e-07
5.14335e-07
0.999991
0.999991
0.999991
0.999991
0.999991
0.999991
0.999991
0.99999
0.99999
0.99999
0.99999
0.99999
0.99999
0.99999
0.99999
0.99999
0.99999
0.99999
0.99999
0.99999
0.99999
0.99999
0.99999
0.99999
0.99999
0.99999
0.99999
0.99999
0.99999
0.99999
0.99999
0.99999
0.99999
0.99999
0.99999
0.99999
0.99999
0.99999
0.99999
0.99999
0.99999
0.99999
0.99999
0.99999
0.99999
0.99999
0.99999
0.999988
0.999982
0.999964
0.999944
0.99993
0.999922
0.999916
0.999916
0.99991
0.99991
0.999907
0.999957
0.846735
0.0325006
0.0129712
0.0141251
0.01426
0.0143318
0.0146004
0.0147904
0.0148907
0.0149211
0.0149094
0.0147494
0.0147115
0.0146185
0.01438
0.0141856
0.013984
0.0138091
0.0135707
0.0130328
0.0121546
0.0108801
0.00923905
0.00735558
0.00546827
0.00355739
0.00176093
0.000535896
4.34954e-05
3.25357e-07
3.25356e-07
3.25356e-07
3.25355e-07
3.25355e-07
3.25355e-07
3.25355e-07
3.25355e-07
0.999991
0.999991
0.999991
0.999991
0.999991
0.999991
0.999991
0.999991
0.99999
0.99999
0.99999
0.99999
0.99999
0.99999
0.99999
0.99999
0.99999
0.99999
0.99999
0.99999
0.99999
0.99999
0.99999
0.99999
0.99999
0.99999
0.99999
0.99999
0.99999
0.99999
0.99999
0.99999
0.99999
0.99999
0.99999
0.99999
0.99999
0.99999
0.99999
0.99999
0.99999
0.99999
0.99999
0.99999
0.99999
0.99999
0.99999
0.999987
0.99998
0.999955
0.999933
0.999923
0.99992
0.999926
0.99992
0.999906
0.999896
0.999903
0.999957
0.791731
0.0319008
0.0162583
0.0175182
0.0177806
0.0177978
0.0177272
0.0175856
0.0175189
0.0173865
0.0172819
0.0171293
0.0169568
0.0167866
0.0166153
0.0165422
0.0166517
0.0169122
0.0173654
0.0177954
0.0181338
0.0184627
0.0188487
0.0192495
0.0196953
0.0201566
0.0206162
0.0209504
0.0211169
0.0213266
0.0218583
0.022406
0.0228884
0.0231399
0.023265
0.0215679
0.0186039
0.999992
0.999992
0.999991
0.999991
0.999991
0.999991
0.999991
0.999991
0.999991
0.99999
0.99999
0.99999
0.99999
0.99999
0.99999
0.99999
0.99999
0.99999
0.99999
0.99999
0.99999
0.99999
0.99999
0.99999
0.99999
0.99999
0.99999
0.99999
0.99999
0.99999
0.99999
0.99999
0.99999
0.99999
0.99999
0.99999
0.99999
0.99999
0.99999
0.99999
0.99999
0.99999
0.99999
0.99999
0.99999
0.99999
0.99999
0.999988
0.999981
0.999965
0.999937
0.999925
0.999916
0.999927
0.999929
0.999916
0.999899
0.999841
0.999538
0.800247
0.0269734
0.0121498
0.0121845
0.0110205
0.0100866
0.00934665
0.00852944
0.00774484
0.0070464
0.00643154
0.0059725
0.00565233
0.0055185
0.00551882
0.00582121
0.0061954
0.00680683
0.00757735
0.00853193
0.00965898
0.0109549
0.0122573
0.0135665
0.0149909
0.0165479
0.0176979
0.0183481
0.0188024
0.0190044
0.0188733
0.0182056
0.0174997
0.0155397
0.0123761
0.00804929
0.00433021
0.999992
0.999992
0.999992
0.999992
0.999991
0.999991
0.999991
0.999991
0.999991
0.999991
0.99999
0.99999
0.99999
0.99999
0.99999
0.99999
0.99999
0.99999
0.99999
0.99999
0.99999
0.99999
0.99999
0.99999
0.99999
0.99999
0.99999
0.99999
0.99999
0.99999
0.99999
0.99999
0.99999
0.99999
0.99999
0.99999
0.99999
0.99999
0.99999
0.99999
0.99999
0.99999
0.99999
0.99999
0.99999
0.99999
0.99999
0.999989
0.999985
0.999976
0.999948
0.999933
0.99992
0.999922
0.999929
0.999928
0.999927
0.999906
0.999663
0.834052
0.0176744
0.00448632
0.00393979
0.00297806
0.00235226
0.00194079
0.00163314
0.00137738
0.0012168
0.00110515
0.00104781
0.000998776
0.000948698
0.000890684
0.000856298
0.000847126
0.000978653
0.00112033
0.00135555
0.0016648
0.00209211
0.00259899
0.00318156
0.00378775
0.00438188
0.00494672
0.0055296
0.00595608
0.00610711
0.00594711
0.0051649
0.00428485
0.00299077
0.00168133
0.000739679
0.000305624
0.999994
0.999992
0.999992
0.999992
0.999992
0.999992
0.999991
0.999992
0.999992
0.999991
0.99999
0.99999
0.99999
0.99999
0.99999
0.99999
0.99999
0.99999
0.99999
0.99999
0.99999
0.99999
0.99999
0.99999
0.99999
0.99999
0.99999
0.99999
0.99999
0.99999
0.99999
0.99999
0.99999
0.99999
0.99999
0.99999
0.99999
0.99999
0.99999
0.99999
0.99999
0.99999
0.99999
0.99999
0.99999
0.99999
0.99999
0.999989
0.999987
0.99998
0.999962
0.999943
0.999931
0.999922
0.999924
0.999925
0.99993
0.999927
0.999944
0.888419
0.00853313
0.000528829
0.00037423
0.000209526
0.000135456
9.5193e-05
7.46479e-05
5.98951e-05
5.35524e-05
5.05635e-05
5.11343e-05
4.85995e-05
4.40499e-05
3.645e-05
3.01179e-05
2.56858e-05
2.43363e-05
2.98857e-05
4.10341e-05
5.68704e-05
8.08269e-05
0.000111229
0.000147215
0.000186892
0.000216932
0.000228325
0.000231706
0.000246294
0.000251641
0.000226929
0.000195349
0.000136994
7.50761e-05
2.90307e-05
9.15279e-06
3.46978e-06
0.999995
0.999993
0.999993
0.999993
0.999993
0.999992
0.999992
0.999992
0.999992
0.999992
0.999991
0.99999
0.99999
0.99999
0.99999
0.99999
0.99999
0.99999
0.99999
0.99999
0.99999
0.99999
0.99999
0.99999
0.99999
0.99999
0.99999
0.99999
0.99999
0.99999
0.99999
0.99999
0.99999
0.99999
0.99999
0.99999
0.99999
0.99999
0.99999
0.99999
0.99999
0.99999
0.99999
0.99999
0.99999
0.99999
0.99999
0.999989
0.999988
0.999983
0.999972
0.999955
0.999947
0.999933
0.999926
0.999922
0.99993
0.999929
0.999844
0.941958
0.0203948
2.84576e-05
5.53986e-06
2.05805e-06
1.08208e-06
8.33546e-07
1.01925e-06
9.04855e-07
9.0139e-07
1.21341e-06
1.14119e-06
7.82854e-07
8.44623e-07
9.08695e-07
7.85118e-07
6.26882e-07
5.80795e-07
5.63208e-07
4.98699e-07
4.09085e-07
3.49492e-07
3.49492e-07
3.49492e-07
3.49492e-07
3.49492e-07
3.49492e-07
3.49492e-07
3.49492e-07
4.61562e-07
7.93461e-07
1.01056e-06
1.0321e-06
7.81701e-07
4.42464e-07
3.19422e-07
2.82187e-07
0.999995
0.999994
0.999994
0.999994
0.999994
0.999993
0.999993
0.999993
0.999993
0.999992
0.999991
0.99999
0.99999
0.99999
0.99999
0.99999
0.99999
0.99999
0.99999
0.99999
0.99999
0.99999
0.99999
0.99999
0.99999
0.99999
0.99999
0.99999
0.99999
0.99999
0.99999
0.99999
0.99999
0.99999
0.99999
0.99999
0.99999
0.99999
0.99999
0.99999
0.99999
0.99999
0.99999
0.99999
0.99999
0.99999
0.999989
0.999989
0.999988
0.999985
0.999976
0.999964
0.99995
0.999942
0.999934
0.999924
0.99993
0.999928
0.99964
0.965764
0.0368991
8.23003e-05
7.42487e-07
9.89773e-07
9.49076e-07
7.85135e-07
8.00145e-07
7.72799e-07
7.43089e-07
7.42619e-07
7.4262e-07
7.54028e-07
7.69112e-07
7.42244e-07
7.10656e-07
6.86444e-07
7.47758e-07
7.79142e-07
7.7925e-07
7.77801e-07
7.73258e-07
7.6556e-07
7.66246e-07
7.71207e-07
7.65404e-07
7.63034e-07
7.24717e-07
4.94158e-07
3.44806e-07
3.24756e-07
3.0433e-07
2.88009e-07
2.81969e-07
2.82015e-07
2.82063e-07
2.82127e-07
0.999996
0.999995
0.999995
0.999995
0.999994
0.999994
0.999994
0.999994
0.999994
0.999993
0.999991
0.99999
0.99999
0.99999
0.99999
0.99999
0.99999
0.99999
0.99999
0.99999
0.99999
0.99999
0.99999
0.99999
0.99999
0.99999
0.99999
0.99999
0.99999
0.99999
0.99999
0.99999
0.99999
0.99999
0.99999
0.99999
0.99999
0.99999
0.99999
0.99999
0.99999
0.99999
0.99999
0.99999
0.99999
0.99999
0.999989
0.999989
0.999988
0.999984
0.999974
0.999961
0.999947
0.99995
0.999946
0.99993
0.999939
0.999925
0.999688
0.970039
0.0585191
0.000301997
7.42487e-07
7.63031e-07
8.12217e-07
7.99536e-07
7.84048e-07
7.72636e-07
7.7114e-07
7.70295e-07
7.71337e-07
7.72438e-07
7.68245e-07
7.71227e-07
7.78323e-07
7.70405e-07
7.64872e-07
7.78665e-07
7.82033e-07
7.82033e-07
7.77821e-07
7.6539e-07
7.64973e-07
7.73913e-07
7.71718e-07
7.69043e-07
7.51022e-07
5.87999e-07
3.54842e-07
3.2653e-07
3.12049e-07
2.94962e-07
2.8191e-07
2.81969e-07
2.82019e-07
2.82063e-07
0.999996
0.999996
0.999996
0.999995
0.999995
0.999995
0.999995
0.999995
0.999995
0.999993
0.999991
0.99999
0.99999
0.99999
0.99999
0.99999
0.99999
0.99999
0.99999
0.99999
0.99999
0.99999
0.99999
0.99999
0.99999
0.99999
0.99999
0.99999
0.99999
0.99999
0.99999
0.99999
0.99999
0.99999
0.99999
0.99999
0.99999
0.99999
0.99999
0.99999
0.99999
0.99999
0.99999
0.99999
0.99999
0.99999
0.99999
0.999989
0.999987
0.999981
0.999969
0.999956
0.999948
0.999953
0.999953
0.999941
0.99994
0.999936
0.999709
0.958728
0.0520162
0.000269851
7.42488e-07
7.56732e-07
7.56746e-07
7.55853e-07
7.51896e-07
7.50534e-07
7.50849e-07
7.502e-07
7.50337e-07
7.5095e-07
7.52505e-07
7.54108e-07
7.59388e-07
7.66084e-07
7.71766e-07
7.81458e-07
7.82033e-07
7.73647e-07
7.76224e-07
7.7578e-07
7.67831e-07
7.74026e-07
7.75842e-07
7.71832e-07
7.6784e-07
7.07805e-07
4.83215e-07
3.16961e-07
3.0336e-07
2.90492e-07
2.81912e-07
2.81971e-07
2.82027e-07
2.82078e-07
0.999997
0.999996
0.999996
0.999996
0.999996
0.999996
0.999996
0.999996
0.999994
0.999992
0.999991
0.99999
0.99999
0.99999
0.99999
0.99999
0.99999
0.99999
0.99999
0.99999
0.99999
0.99999
0.99999
0.99999
0.99999
0.99999
0.99999
0.99999
0.99999
0.99999
0.99999
0.99999
0.99999
0.99999
0.99999
0.99999
0.99999
0.99999
0.99999
0.99999
0.99999
0.99999
0.99999
0.99999
0.99999
0.99999
0.99999
0.999989
0.999987
0.999979
0.999966
0.999957
0.999952
0.999953
0.999951
0.999947
0.999947
0.999936
0.999382
0.951527
0.0479645
0.000281871
8.32179e-07
7.62953e-07
7.62387e-07
7.60843e-07
7.58687e-07
7.58518e-07
7.58256e-07
7.57901e-07
7.57873e-07
7.57866e-07
7.57715e-07
7.57643e-07
7.60135e-07
7.64767e-07
7.70204e-07
7.74847e-07
7.78756e-07
7.85953e-07
7.90504e-07
7.90504e-07
7.76332e-07
7.77734e-07
7.75838e-07
7.72128e-07
7.75752e-07
7.67594e-07
6.83009e-07
4.6306e-07
3.11453e-07
2.92297e-07
2.81941e-07
2.81979e-07
2.8205e-07
2.82094e-07
0.999991
0.999991
0.99999
0.99999
0.99999
0.99999
0.99999
0.99999
0.99999
0.99999
0.99999
0.99999
0.99999
0.99999
0.99999
0.99999
0.99999
0.99999
0.99999
0.99999
0.99999
0.99999
0.99999
0.99999
0.99999
0.99999
0.99999
0.99999
0.99999
0.99999
0.99999
0.99999
0.99999
0.99999
0.99999
0.99999
0.99999
0.99999
0.99999
0.99999
0.99999
0.99999
0.99999
0.99999
0.99999
0.99999
0.99999
0.999987
0.999982
0.999978
0.999971
0.999963
0.999956
0.999947
0.999947
0.99995
0.999954
0.999924
0.999356
0.947633
0.0276634
5.80448e-05
6.63776e-07
6.76902e-07
6.71844e-07
6.71844e-07
6.71844e-07
6.73553e-07
6.79447e-07
6.88083e-07
6.95527e-07
7.0293e-07
7.162e-07
7.33905e-07
7.50993e-07
7.582e-07
7.64867e-07
7.70733e-07
7.7804e-07
8.02869e-07
8.23857e-07
8.06762e-07
7.97715e-07
7.94851e-07
8.00352e-07
8.05058e-07
8.12179e-07
8.1908e-07
8.19841e-07
8.03778e-07
7.09821e-07
5.89682e-07
5.48061e-07
5.64883e-07
6.63301e-07
6.25571e-07
0.999991
0.999991
0.999991
0.999991
0.999991
0.999991
0.999991
0.99999
0.99999
0.99999
0.99999
0.99999
0.99999
0.99999
0.99999
0.99999
0.99999
0.99999
0.99999
0.99999
0.99999
0.99999
0.99999
0.99999
0.99999
0.99999
0.99999
0.99999
0.99999
0.99999
0.99999
0.99999
0.99999
0.99999
0.99999
0.99999
0.99999
0.99999
0.99999
0.99999
0.99999
0.99999
0.99999
0.99999
0.99999
0.99999
0.99999
0.999988
0.999984
0.99998
0.999974
0.999965
0.999951
0.99994
0.999934
0.999934
0.999936
0.999927
0.999707
0.916341
0.0127689
6.91878e-06
6.63774e-07
6.86741e-07
6.86504e-07
6.87513e-07
6.89021e-07
7.01262e-07
7.50407e-07
7.98043e-07
8.05336e-07
8.15275e-07
8.53278e-07
8.49518e-07
8.39457e-07
8.40925e-07
8.40913e-07
8.30306e-07
8.21206e-07
8.16823e-07
7.98921e-07
7.8101e-07
7.71591e-07
7.65587e-07
7.77513e-07
7.79124e-07
7.80534e-07
7.82104e-07
7.87485e-07
7.94072e-07
7.8635e-07
7.25193e-07
6.60586e-07
6.11718e-07
6.67005e-07
6.41573e-07
0.999991
0.999991
0.999991
0.999991
0.999992
0.999992
0.999991
0.999991
0.999991
0.99999
0.99999
0.99999
0.99999
0.99999
0.99999
0.99999
0.99999
0.99999
0.99999
0.99999
0.99999
0.99999
0.99999
0.99999
0.99999
0.99999
0.99999
0.99999
0.99999
0.99999
0.99999
0.99999
0.99999
0.99999
0.99999
0.99999
0.99999
0.99999
0.99999
0.99999
0.99999
0.99999
0.99999
0.99999
0.99999
0.99999
0.99999
0.999989
0.999986
0.99998
0.999969
0.999948
0.999934
0.999933
0.999934
0.999935
0.999945
0.999932
0.999834
0.908941
0.0166455
7.05106e-07
7.03689e-07
6.85544e-07
6.85332e-07
7.90983e-07
8.39529e-07
7.7406e-07
7.83826e-07
7.8175e-07
7.96463e-07
8.43543e-07
8.67075e-07
8.77293e-07
8.8573e-07
8.96542e-07
9.05167e-07
9.03185e-07
8.54131e-07
8.13268e-07
7.98904e-07
7.97382e-07
7.81181e-07
7.71171e-07
7.84219e-07
7.77727e-07
7.8233e-07
7.83534e-07
7.8535e-07
7.87678e-07
7.85038e-07
7.25552e-07
6.54173e-07
6.03427e-07
6.59644e-07
6.38498e-07
0.999991
0.999991
0.999991
0.999991
0.999991
0.999991
0.999991
0.999991
0.999991
0.99999
0.99999
0.99999
0.99999
0.99999
0.99999
0.99999
0.99999
0.99999
0.99999
0.99999
0.99999
0.99999
0.99999
0.99999
0.99999
0.99999
0.99999
0.99999
0.99999
0.99999
0.99999
0.99999
0.99999
0.99999
0.99999
0.99999
0.99999
0.99999
0.99999
0.99999
0.99999
0.99999
0.99999
0.99999
0.99999
0.99999
0.99999
0.99999
0.999988
0.999978
0.999954
0.999926
0.999927
0.999934
0.999932
0.999928
0.999923
0.999907
0.99982
0.860184
0.00260555
8.93171e-06
6.10364e-06
2.67246e-06
1.47822e-06
9.99388e-07
1.96735e-06
2.34495e-06
9.97046e-07
7.58002e-07
1.36592e-06
2.67207e-06
1.95434e-06
7.83747e-07
7.75945e-07
1.31178e-06
1.81784e-06
1.12247e-06
8.55028e-07
9.00953e-07
9.92903e-07
9.52548e-07
7.98924e-07
7.55974e-07
7.60474e-07
7.24998e-07
7.27949e-07
7.30979e-07
7.48033e-07
7.79087e-07
7.44309e-07
6.39862e-07
5.95643e-07
6.14811e-07
6.70754e-07
6.27774e-07
0.999991
0.999991
0.999991
0.999991
0.999991
0.999991
0.999991
0.999991
0.999991
0.999991
0.99999
0.99999
0.99999
0.99999
0.99999
0.99999
0.99999
0.99999
0.99999
0.99999
0.99999
0.99999
0.99999
0.99999
0.99999
0.99999
0.99999
0.99999
0.99999
0.99999
0.99999
0.99999
0.99999
0.99999
0.99999
0.99999
0.99999
0.99999
0.99999
0.99999
0.99999
0.99999
0.99999
0.99999
0.99999
0.99999
0.99999
0.999989
0.999986
0.999971
0.999937
0.999912
0.999905
0.9999
0.999891
0.999879
0.999865
0.999847
0.999793
0.822064
0.00502119
0.000616174
0.000502327
0.000391982
0.000319965
0.000261535
0.000220077
0.000195834
0.000184629
0.000181553
0.000177824
0.000177814
0.000167729
0.000160706
0.000150991
0.000140525
0.000127296
0.000107537
8.08774e-05
5.50335e-05
3.26706e-05
1.72057e-05
7.66405e-06
2.88447e-06
1.0818e-06
7.08969e-07
7.08857e-07
7.06575e-07
7.61357e-07
7.26752e-07
6.292e-07
6.10265e-07
6.19347e-07
6.4091e-07
6.74206e-07
6.11764e-07
0.999991
0.999991
0.999991
0.999991
0.999991
0.999991
0.999991
0.999991
0.999991
0.999991
0.99999
0.99999
0.99999
0.99999
0.99999
0.99999
0.99999
0.99999
0.99999
0.99999
0.99999
0.99999
0.99999
0.99999
0.99999
0.99999
0.99999
0.99999
0.99999
0.99999
0.99999
0.99999
0.99999
0.99999
0.99999
0.99999
0.99999
0.99999
0.99999
0.99999
0.99999
0.99999
0.99999
0.99999
0.99999
0.99999
0.999989
0.999987
0.999982
0.99996
0.99993
0.999904
0.999895
0.999891
0.999889
0.999889
0.999903
0.999924
0.999949
0.704428
0.0116283
0.00632044
0.00602885
0.00591306
0.00583955
0.00585476
0.00581341
0.00586285
0.0058561
0.00582053
0.00570324
0.00559117
0.00547366
0.00531581
0.0051344
0.00489949
0.00456338
0.0041076
0.00348487
0.00279595
0.00208059
0.00143921
0.00091718
0.000526627
0.000247021
8.40611e-05
1.76363e-05
1.52647e-06
6.31667e-07
1.21718e-06
1.55531e-06
8.86005e-07
6.94285e-07
5.79626e-07
5.79566e-07
5.5468e-07
0.999992
0.999991
0.999991
0.999991
0.999991
0.999991
0.999991
0.999991
0.999991
0.999991
0.999991
0.99999
0.99999
0.99999
0.99999
0.99999
0.99999
0.99999
0.99999
0.99999
0.99999
0.99999
0.99999
0.99999
0.99999
0.99999
0.99999
0.99999
0.99999
0.99999
0.99999
0.99999
0.99999
0.99999
0.99999
0.99999
0.99999
0.99999
0.99999
0.99999
0.99999
0.99999
0.99999
0.99999
0.99999
0.99999
0.999989
0.999985
0.999978
0.999947
0.999929
0.999907
0.999897
0.999894
0.999893
0.999899
0.999917
0.999922
0.999957
0.609776
0.0252638
0.0184962
0.0194514
0.0196766
0.0197579
0.020039
0.0201326
0.0203647
0.0207249
0.0209748
0.0211114
0.0211924
0.02114
0.0209259
0.0207892
0.0205276
0.0201169
0.0195459
0.0187313
0.0176286
0.0162423
0.0145193
0.012715
0.010748
0.00865343
0.00632944
0.00402337
0.00215165
0.00105926
0.000670794
0.00078299
0.000832622
0.000437406
0.000305916
0.000121433
0.000913528
0.999992
0.999992
0.999992
0.999991
0.999991
0.999991
0.999991
0.999991
0.999991
0.999991
0.999991
0.99999
0.99999
0.99999
0.99999
0.99999
0.99999
0.99999
0.99999
0.99999
0.99999
0.99999
0.99999
0.99999
0.99999
0.99999
0.99999
0.99999
0.99999
0.99999
0.99999
0.99999
0.99999
0.99999
0.99999
0.99999
0.99999
0.99999
0.99999
0.99999
0.99999
0.99999
0.99999
0.99999
0.99999
0.99999
0.999989
0.999984
0.999976
0.999933
0.999917
0.999915
0.999919
0.999923
0.999925
0.999925
0.999921
0.999917
0.999936
0.721689
0.0289969
0.0172664
0.0176595
0.0176491
0.0178288
0.0192746
0.0200432
0.0205561
0.020918
0.0214124
0.0221804
0.0229622
0.0236575
0.0241862
0.0246365
0.0251302
0.0257495
0.0266034
0.0277483
0.028896
0.0300195
0.0310505
0.0320843
0.0332227
0.0341458
0.0349516
0.0358814
0.037839
0.040291
0.0442135
0.0497387
0.0573567
0.070128
0.0929595
0.144621
0.34212
0.999993
0.999993
0.999992
0.999992
0.999991
0.999991
0.999991
0.999991
0.999991
0.999991
0.999991
0.99999
0.99999
0.99999
0.99999
0.99999
0.99999
0.99999
0.99999
0.99999
0.99999
0.99999
0.99999
0.99999
0.99999
0.99999
0.99999
0.99999
0.99999
0.99999
0.99999
0.99999
0.99999
0.99999
0.99999
0.99999
0.99999
0.99999
0.99999
0.99999
0.99999
0.99999
0.99999
0.99999
0.99999
0.99999
0.999989
0.999986
0.99998
0.999952
0.999921
0.999925
0.999929
0.999931
0.999932
0.999932
0.999929
0.999917
0.999894
0.807079
0.0240164
0.00913228
0.00819835
0.00667464
0.00585614
0.00541934
0.00531057
0.00511984
0.00488008
0.00475198
0.00498836
0.00531437
0.00552412
0.00574797
0.00587902
0.00617601
0.00659803
0.00729055
0.00842931
0.0100761
0.0124471
0.0154622
0.0189845
0.0229146
0.026738
0.0307464
0.0345558
0.0390847
0.0438098
0.0475676
0.0504093
0.0530064
0.057203
0.060942
0.0629859
0.0581032
0.999993
0.999993
0.999993
0.999993
0.999992
0.999991
0.999991
0.999991
0.999992
0.999992
0.999991
0.99999
0.99999
0.99999
0.99999
0.99999
0.99999
0.99999
0.99999
0.99999
0.99999
0.99999
0.99999
0.99999
0.99999
0.99999
0.99999
0.99999
0.99999
0.99999
0.99999
0.99999
0.99999
0.99999
0.99999
0.99999
0.99999
0.99999
0.99999
0.99999
0.99999
0.99999
0.99999
0.99999
0.99999
0.99999
0.999989
0.999986
0.999982
0.999977
0.999937
0.999926
0.999929
0.999925
0.999927
0.999933
0.999934
0.999924
0.999899
0.866654
0.0129612
0.00184864
0.00124624
0.000737589
0.00055527
0.000482139
0.000476164
0.000485908
0.000489651
0.000514334
0.000553516
0.000593043
0.000628513
0.000661197
0.000689537
0.000716953
0.000782062
0.000868162
0.00101704
0.00126188
0.00167219
0.00228065
0.00307028
0.00386171
0.00443134
0.00494398
0.00610834
0.00714072
0.00808574
0.00890708
0.00969083
0.0100855
0.00920792
0.00721186
0.00401325
0.00177192
0.999994
0.999992
0.999993
0.999993
0.999993
0.999992
0.999991
0.999991
0.999992
0.999992
0.999991
0.99999
0.99999
0.99999
0.99999
0.99999
0.99999
0.99999
0.99999
0.99999
0.99999
0.99999
0.99999
0.99999
0.99999
0.99999
0.99999
0.99999
0.99999
0.99999
0.99999
0.99999
0.99999
0.99999
0.99999
0.99999
0.99999
0.99999
0.99999
0.99999
0.99999
0.99999
0.99999
0.99999
0.99999
0.99999
0.999988
0.999986
0.999984
0.999981
0.999965
0.999934
0.999935
0.999935
0.999939
0.999939
0.999935
0.999926
0.999928
0.883414
0.00334869
0.000131533
6.25743e-05
3.00137e-05
2.21893e-05
2.12815e-05
2.30414e-05
2.43074e-05
2.5365e-05
2.6579e-05
2.86105e-05
3.21046e-05
3.49665e-05
3.56384e-05
3.52651e-05
3.47208e-05
3.40543e-05
3.34052e-05
3.92941e-05
4.57881e-05
6.08251e-05
8.48954e-05
0.000113062
0.000135108
0.000140605
0.000117573
0.00011027
0.000111371
9.3393e-05
8.59341e-05
8.24386e-05
7.8736e-05
5.95644e-05
3.60995e-05
1.99126e-05
8.04145e-06
0.999995
0.999994
0.999994
0.999994
0.999994
0.999993
0.999991
0.999991
0.999992
0.999993
0.999991
0.99999
0.99999
0.99999
0.99999
0.99999
0.99999
0.99999
0.99999
0.99999
0.99999
0.99999
0.99999
0.99999
0.99999
0.99999
0.99999
0.99999
0.99999
0.99999
0.99999
0.99999
0.99999
0.99999
0.99999
0.99999
0.99999
0.99999
0.99999
0.99999
0.99999
0.99999
0.99999
0.99999
0.99999
0.99999
0.999988
0.999987
0.999986
0.999983
0.999976
0.999958
0.999946
0.99994
0.999941
0.999937
0.999936
0.999922
0.999839
0.905085
0.00324818
1.70297e-06
1.12318e-06
8.10862e-07
1.10057e-06
1.43754e-06
1.06614e-06
7.3052e-07
9.42609e-07
1.46472e-06
9.18791e-07
7.56702e-07
8.15868e-07
8.78771e-07
8.08502e-07
1.0997e-06
1.07623e-06
7.79297e-07
8.55906e-07
9.52192e-07
7.75448e-07
6.76082e-07
6.71712e-07
9.09519e-07
1.09342e-06
7.77849e-07
4.65503e-07
4.77038e-07
5.58804e-07
4.61024e-07
4.43869e-07
4.42937e-07
4.01573e-07
2.95171e-07
2.86592e-07
3.06593e-07
0.999996
0.999995
0.999995
0.999995
0.999994
0.999994
0.999992
0.999991
0.999992
0.999993
0.999991
0.99999
0.99999
0.99999
0.99999
0.99999
0.99999
0.99999
0.99999
0.99999
0.99999
0.99999
0.99999
0.99999
0.99999
0.99999
0.99999
0.99999
0.99999
0.99999
0.99999
0.99999
0.99999
0.99999
0.99999
0.99999
0.99999
0.99999
0.99999
0.99999
0.99999
0.99999
0.99999
0.99999
0.99999
0.99999
0.999989
0.999988
0.999987
0.999983
0.999975
0.999956
0.999922
0.99992
0.999925
0.999928
0.999933
0.999928
0.99981
0.899976
0.00495356
3.67825e-06
7.42486e-07
8.51167e-07
8.32457e-07
8.24524e-07
8.05442e-07
7.87882e-07
7.84483e-07
7.81772e-07
7.63403e-07
7.56766e-07
7.61322e-07
7.64407e-07
7.67208e-07
7.67348e-07
7.75926e-07
7.7026e-07
7.70121e-07
7.69038e-07
7.66103e-07
7.64295e-07
7.57836e-07
7.47873e-07
6.97319e-07
6.96042e-07
6.80426e-07
4.48038e-07
3.5564e-07
3.37996e-07
3.3577e-07
3.26731e-07
2.99929e-07
2.82222e-07
2.82124e-07
2.82183e-07
0.999996
0.999996
0.999996
0.999996
0.999996
0.999995
0.999993
0.999992
0.999993
0.999994
0.999991
0.99999
0.99999
0.99999
0.99999
0.99999
0.99999
0.99999
0.99999
0.99999
0.99999
0.99999
0.99999
0.99999
0.99999
0.99999
0.99999
0.99999
0.99999
0.99999
0.99999
0.99999
0.99999
0.99999
0.99999
0.99999
0.99999
0.99999
0.99999
0.99999
0.99999
0.99999
0.99999
0.99999
0.99999
0.99999
0.999989
0.999989
0.999987
0.999984
0.999975
0.999943
0.999915
0.999918
0.999922
0.999925
0.999924
0.999903
0.999802
0.923234
0.0124582
1.04368e-05
7.42486e-07
7.74501e-07
7.56862e-07
7.57591e-07
7.5749e-07
7.54741e-07
7.54486e-07
7.55997e-07
7.6062e-07
7.69456e-07
7.7159e-07
7.72157e-07
7.76163e-07
7.75396e-07
7.7166e-07
7.72423e-07
7.75557e-07
7.78143e-07
7.78057e-07
7.72421e-07
7.60872e-07
7.54643e-07
7.27227e-07
7.16909e-07
7.14598e-07
5.57757e-07
3.69204e-07
3.31426e-07
3.22338e-07
3.31268e-07
3.05286e-07
2.8201e-07
2.82056e-07
2.82124e-07
0.999997
0.999997
0.999997
0.999996
0.999996
0.999995
0.999994
0.999994
0.999994
0.999994
0.999991
0.99999
0.99999
0.99999
0.99999
0.99999
0.99999
0.99999
0.99999
0.99999
0.99999
0.99999
0.99999
0.99999
0.99999
0.99999
0.99999
0.99999
0.99999
0.99999
0.99999
0.99999
0.99999
0.99999
0.99999
0.99999
0.99999
0.99999
0.99999
0.99999
0.99999
0.99999
0.99999
0.99999
0.99999
0.99999
0.99999
0.999989
0.999988
0.999983
0.999973
0.999958
0.999922
0.999936
0.999919
0.9999
0.999874
0.999849
0.99976
0.927548
0.0181436
2.0333e-05
7.42486e-07
7.65279e-07
7.53683e-07
7.44228e-07
7.44281e-07
7.44131e-07
7.4432e-07
7.44184e-07
7.4433e-07
7.44334e-07
7.4438e-07
7.44679e-07
7.4589e-07
7.4738e-07
7.49897e-07
7.54434e-07
7.60227e-07
7.64974e-07
7.69737e-07
7.66254e-07
7.58817e-07
7.55839e-07
7.38725e-07
7.33582e-07
7.33855e-07
6.71478e-07
5.01533e-07
3.52331e-07
3.06874e-07
3.01561e-07
3.0418e-07
2.82025e-07
2.82079e-07
2.82123e-07
0.999997
0.999997
0.999997
0.999997
0.999997
0.999996
0.999996
0.999996
0.999994
0.999992
0.99999
0.99999
0.99999
0.99999
0.99999
0.99999
0.99999
0.99999
0.99999
0.99999
0.99999
0.99999
0.99999
0.99999
0.99999
0.99999
0.99999
0.99999
0.99999
0.99999
0.99999
0.99999
0.99999
0.99999
0.99999
0.99999
0.99999
0.99999
0.99999
0.99999
0.99999
0.99999
0.99999
0.99999
0.99999
0.99999
0.99999
0.999989
0.999987
0.999981
0.999969
0.99996
0.999954
0.999951
0.999934
0.999902
0.999893
0.999826
0.999466
0.952579
0.0370402
9.43227e-05
7.42488e-07
7.56618e-07
7.53331e-07
7.48226e-07
7.48057e-07
7.48497e-07
7.48859e-07
7.48962e-07
7.48175e-07
7.47324e-07
7.47392e-07
7.47155e-07
7.47828e-07
7.50463e-07
7.55234e-07
7.62017e-07
7.71814e-07
7.82417e-07
7.896e-07
7.86423e-07
7.75809e-07
7.63925e-07
7.44449e-07
7.53897e-07
7.6174e-07
7.43942e-07