/*--------------------------------*- C++ -*----------------------------------*\
| =========                 |                                                 |
| \\      /  F ield         | OpenFOAM: The Open Source CFD Toolbox           |
|  \\    /   O peration     | Version:  2.3.0                                 |
|   \\  /    A nd           | Web:      www.OpenFOAM.org                      |
|    \\/     M anipulation  |                                                 |
\*---------------------------------------------------------------------------*/
FoamFile
{
    version     2.0;
    format      ascii;
    class       volScalarField;
    location    "9";
    object      alpha.airMean;
}
// * * * * * * * * * * * * * * * * * * * * * * * * * * * * * * * * * * * * * //

dimensions      [0 0 0 0 0 0 0];

internalField   nonuniform List<scalar> 
6144
(
0.99999
0.99999
0.99999
0.99999
0.99999
0.99999
0.99999
0.99999
0.99999
0.99999
0.99999
0.99999
0.99999
0.99999
0.99999
0.99999
0.99999
0.99999
0.99999
0.99999
0.99999
0.99999
0.99999
0.99999
0.99999
0.99999
0.99999
0.99999
0.99999
0.99999
0.99999
0.99999
0.99999
0.99999
0.99999
0.99999
0.99999
0.99999
0.99999
0.99999
0.99999
0.99999
0.99999
0.99999
0.99999
0.99999
0.99999
0.99999
0.99999
0.999989
0.999986
0.999985
0.999983
0.999978
0.999973
0.999963
0.999954
0.99994
0.998708
0.930754
0.0302073
0.00018919
1.7082e-06
1.52937e-06
1.51453e-06
1.47471e-06
1.46699e-06
1.43277e-06
1.42355e-06
1.39541e-06
1.38222e-06
1.3601e-06
1.34127e-06
1.32044e-06
1.30229e-06
1.28277e-06
1.26384e-06
1.24407e-06
1.2253e-06
1.20773e-06
1.18815e-06
1.16798e-06
1.14865e-06
1.13129e-06
1.11352e-06
1.09299e-06
1.06987e-06
1.04217e-06
1.00069e-06
9.34964e-07
8.47719e-07
7.57501e-07
6.54241e-07
6.056e-07
6.06115e-07
6.00401e-07
0.99999
0.99999
0.99999
0.99999
0.99999
0.99999
0.99999
0.99999
0.99999
0.99999
0.99999
0.99999
0.99999
0.99999
0.99999
0.99999
0.99999
0.99999
0.99999
0.99999
0.99999
0.99999
0.99999
0.99999
0.99999
0.99999
0.99999
0.99999
0.99999
0.99999
0.99999
0.99999
0.99999
0.99999
0.99999
0.99999
0.99999
0.99999
0.99999
0.99999
0.99999
0.99999
0.99999
0.99999
0.99999
0.99999
0.99999
0.99999
0.99999
0.99999
0.999989
0.999987
0.999981
0.999973
0.999967
0.999957
0.999949
0.999933
0.999396
0.948642
0.0279266
0.000125751
1.615e-06
1.53203e-06
1.51166e-06
1.47001e-06
1.46398e-06
1.43524e-06
1.43272e-06
1.41044e-06
1.40501e-06
1.38479e-06
1.36874e-06
1.34906e-06
1.32952e-06
1.30732e-06
1.28548e-06
1.26257e-06
1.24015e-06
1.21695e-06
1.19263e-06
1.16955e-06
1.14811e-06
1.12962e-06
1.11121e-06
1.09024e-06
1.06709e-06
1.03959e-06
1.00129e-06
9.44039e-07
8.66071e-07
7.71789e-07
6.62876e-07
6.10024e-07
6.08734e-07
6.02674e-07
0.99999
0.99999
0.99999
0.99999
0.99999
0.99999
0.99999
0.99999
0.99999
0.99999
0.99999
0.99999
0.99999
0.99999
0.99999
0.99999
0.99999
0.99999
0.99999
0.99999
0.99999
0.99999
0.99999
0.99999
0.99999
0.99999
0.99999
0.99999
0.99999
0.99999
0.99999
0.99999
0.99999
0.99999
0.99999
0.99999
0.99999
0.99999
0.99999
0.99999
0.99999
0.99999
0.99999
0.99999
0.99999
0.99999
0.99999
0.99999
0.99999
0.999989
0.999988
0.999983
0.999974
0.999964
0.999955
0.999944
0.99994
0.999929
0.999598
0.932313
0.0231848
6.6669e-05
1.59658e-06
1.57088e-06
1.52605e-06
1.48739e-06
1.48054e-06
1.46171e-06
1.45765e-06
1.4362e-06
1.43672e-06
1.42198e-06
1.40498e-06
1.37744e-06
1.34978e-06
1.32225e-06
1.30043e-06
1.27583e-06
1.25108e-06
1.22453e-06
1.19787e-06
1.17141e-06
1.15048e-06
1.13005e-06
1.11019e-06
1.09126e-06
1.0682e-06
1.03972e-06
1.0027e-06
9.5092e-07
8.78591e-07
7.8794e-07
6.78279e-07
6.17857e-07
6.12276e-07
6.05097e-07
0.99999
0.99999
0.99999
0.99999
0.99999
0.99999
0.99999
0.99999
0.99999
0.99999
0.99999
0.99999
0.99999
0.99999
0.99999
0.99999
0.99999
0.99999
0.99999
0.99999
0.99999
0.99999
0.99999
0.99999
0.99999
0.99999
0.99999
0.99999
0.99999
0.99999
0.99999
0.99999
0.99999
0.99999
0.99999
0.99999
0.99999
0.99999
0.99999
0.99999
0.99999
0.99999
0.99999
0.99999
0.99999
0.99999
0.99999
0.99999
0.999989
0.999988
0.999984
0.999975
0.999966
0.999954
0.999944
0.999933
0.999929
0.999922
0.999645
0.904079
0.0263451
7.04162e-05
1.26528e-05
8.12785e-06
6.4401e-06
5.10364e-06
5.03875e-06
4.87951e-06
4.65216e-06
4.22403e-06
3.82719e-06
3.4286e-06
3.03129e-06
2.65261e-06
2.29525e-06
1.95557e-06
1.66565e-06
1.44686e-06
1.30837e-06
1.24072e-06
1.20946e-06
1.18059e-06
1.15413e-06
1.1254e-06
1.10027e-06
1.08154e-06
1.06069e-06
1.03038e-06
9.91674e-07
9.42828e-07
8.79101e-07
7.96146e-07
6.88763e-07
6.24606e-07
6.14127e-07
6.04794e-07
0.99999
0.99999
0.99999
0.99999
0.99999
0.99999
0.99999
0.99999
0.99999
0.99999
0.99999
0.99999
0.99999
0.99999
0.99999
0.99999
0.99999
0.99999
0.99999
0.99999
0.99999
0.99999
0.99999
0.99999
0.99999
0.99999
0.99999
0.99999
0.99999
0.99999
0.99999
0.99999
0.99999
0.99999
0.99999
0.99999
0.99999
0.99999
0.99999
0.99999
0.99999
0.99999
0.99999
0.99999
0.99999
0.99999
0.99999
0.99999
0.999988
0.999985
0.999978
0.999968
0.999959
0.999948
0.999935
0.999924
0.999922
0.999922
0.999791
0.88146
0.030906
0.000361912
0.000289662
0.000228098
0.00020549
0.000170221
0.000151247
0.000134003
0.000121992
0.000112345
0.000103331
9.49662e-05
8.65437e-05
7.7647e-05
6.80275e-05
5.70962e-05
4.54237e-05
3.36189e-05
2.24208e-05
1.31685e-05
6.85022e-06
3.33888e-06
1.76417e-06
1.22451e-06
1.11091e-06
1.07723e-06
1.0465e-06
1.007e-06
9.64594e-07
9.18843e-07
8.65217e-07
7.89208e-07
6.85373e-07
6.25828e-07
6.14133e-07
6.03382e-07
0.99999
0.99999
0.99999
0.99999
0.99999
0.99999
0.99999
0.99999
0.99999
0.99999
0.99999
0.99999
0.99999
0.99999
0.99999
0.99999
0.99999
0.99999
0.99999
0.99999
0.99999
0.99999
0.99999
0.99999
0.99999
0.99999
0.99999
0.99999
0.99999
0.99999
0.99999
0.99999
0.99999
0.99999
0.99999
0.99999
0.99999
0.99999
0.99999
0.99999
0.99999
0.99999
0.99999
0.99999
0.99999
0.99999
0.99999
0.999989
0.999987
0.999982
0.999972
0.999962
0.999955
0.999945
0.999933
0.999924
0.999925
0.999932
0.999884
0.862193
0.0234636
0.00141823
0.00147281
0.00135387
0.00135013
0.00124454
0.00117922
0.0010905
0.0010324
0.000975638
0.000933066
0.000891986
0.000852982
0.00080684
0.000753237
0.000687545
0.000608024
0.000520319
0.000426471
0.000328719
0.000232978
0.000148632
8.37289e-05
3.91637e-05
1.4426e-05
4.70035e-06
1.95122e-06
1.26635e-06
1.00213e-06
8.73591e-07
7.68327e-07
7.02703e-07
6.34906e-07
6.21217e-07
6.01974e-07
5.97035e-07
0.99999
0.99999
0.99999
0.99999
0.99999
0.99999
0.99999
0.99999
0.99999
0.99999
0.99999
0.99999
0.99999
0.99999
0.99999
0.99999
0.99999
0.99999
0.99999
0.99999
0.99999
0.99999
0.99999
0.99999
0.99999
0.99999
0.99999
0.99999
0.99999
0.99999
0.99999
0.99999
0.99999
0.99999
0.99999
0.99999
0.99999
0.99999
0.99999
0.99999
0.99999
0.99999
0.99999
0.99999
0.99999
0.99999
0.99999
0.999989
0.999986
0.99998
0.999967
0.999958
0.999953
0.999948
0.999939
0.999929
0.999927
0.999926
0.999858
0.857005
0.0299546
0.00307947
0.00328081
0.00315629
0.00318385
0.00304543
0.00299486
0.00289257
0.00285756
0.00277243
0.00273662
0.0026287
0.00256329
0.00243496
0.00231844
0.00216218
0.00203819
0.00190629
0.00180079
0.00169152
0.00157889
0.00142635
0.00123626
0.00100471
0.000765078
0.000537821
0.000359369
0.00023121
0.000153361
0.000111044
7.84622e-05
5.2037e-05
3.15197e-05
2.23245e-05
1.47992e-05
9.9193e-06
0.99999
0.999991
0.99999
0.99999
0.99999
0.99999
0.99999
0.99999
0.99999
0.99999
0.99999
0.99999
0.99999
0.99999
0.99999
0.99999
0.99999
0.99999
0.99999
0.99999
0.99999
0.99999
0.99999
0.99999
0.99999
0.99999
0.99999
0.99999
0.99999
0.99999
0.99999
0.99999
0.99999
0.99999
0.99999
0.99999
0.99999
0.99999
0.99999
0.99999
0.99999
0.99999
0.99999
0.99999
0.99999
0.99999
0.999989
0.999987
0.999984
0.999978
0.999964
0.999956
0.999953
0.999952
0.999949
0.999945
0.999941
0.999922
0.999759
0.807174
0.0330814
0.0076461
0.00825261
0.00830327
0.00832766
0.00822378
0.00819935
0.00822127
0.00827105
0.00826239
0.00823796
0.00814191
0.0080038
0.00779011
0.00757569
0.00734372
0.00715196
0.00702413
0.00695152
0.00693222
0.006983
0.0070708
0.00714492
0.00718849
0.00719999
0.00717971
0.00713464
0.00703894
0.00692174
0.0067892
0.00663061
0.0064033
0.0060531
0.00552962
0.0047127
0.00375349
0.999991
0.999991
0.99999
0.99999
0.99999
0.99999
0.99999
0.99999
0.99999
0.99999
0.99999
0.99999
0.99999
0.99999
0.99999
0.99999
0.99999
0.99999
0.99999
0.99999
0.99999
0.99999
0.99999
0.99999
0.99999
0.99999
0.99999
0.99999
0.99999
0.99999
0.99999
0.99999
0.99999
0.99999
0.99999
0.99999
0.99999
0.99999
0.99999
0.99999
0.99999
0.99999
0.99999
0.99999
0.99999
0.999989
0.999987
0.999984
0.999981
0.999978
0.999967
0.999958
0.999955
0.999954
0.999952
0.999951
0.999954
0.999945
0.999857
0.866546
0.0268341
0.00402627
0.00401641
0.00370918
0.00350347
0.0033108
0.00310444
0.00288707
0.00267459
0.00245611
0.00227344
0.00208766
0.0019307
0.00178756
0.00169161
0.00161692
0.00156884
0.0015309
0.00151331
0.00150818
0.00152572
0.00156857
0.00163355
0.00170812
0.00178197
0.00182267
0.001835
0.00183739
0.00182207
0.00178816
0.00170662
0.00156772
0.00137016
0.00107387
0.000682624
0.000350837
0.999991
0.999991
0.99999
0.999991
0.99999
0.99999
0.99999
0.99999
0.99999
0.99999
0.99999
0.99999
0.99999
0.99999
0.99999
0.99999
0.99999
0.99999
0.99999
0.99999
0.99999
0.99999
0.99999
0.99999
0.99999
0.99999
0.99999
0.99999
0.99999
0.99999
0.99999
0.99999
0.99999
0.99999
0.99999
0.99999
0.99999
0.99999
0.99999
0.99999
0.99999
0.99999
0.99999
0.99999
0.999988
0.999985
0.999984
0.999982
0.99998
0.999978
0.999973
0.999965
0.99996
0.999958
0.999955
0.999953
0.999955
0.999951
0.999911
0.925071
0.026536
0.000982257
0.000827147
0.000630085
0.000529998
0.000429898
0.000340463
0.0002675
0.00021777
0.000180711
0.000156754
0.00013609
0.000119978
0.000105022
9.29449e-05
8.22552e-05
7.67386e-05
7.56364e-05
7.92999e-05
8.80325e-05
0.000104151
0.000127831
0.000157501
0.000187907
0.000213758
0.000236824
0.000264459
0.000287131
0.000298173
0.000298296
0.000271906
0.000218012
0.000153482
8.57558e-05
3.72254e-05
1.52707e-05
0.999992
0.999991
0.999991
0.999991
0.99999
0.99999
0.99999
0.99999
0.99999
0.99999
0.99999
0.99999
0.99999
0.99999
0.99999
0.99999
0.99999
0.99999
0.99999
0.99999
0.99999
0.99999
0.99999
0.99999
0.99999
0.99999
0.99999
0.99999
0.99999
0.99999
0.99999
0.99999
0.99999
0.99999
0.99999
0.99999
0.99999
0.99999
0.99999
0.99999
0.99999
0.99999
0.99999
0.99999
0.999988
0.999985
0.999983
0.999982
0.999981
0.99998
0.999978
0.999973
0.99997
0.999966
0.999961
0.999958
0.999958
0.999946
0.999889
0.957382
0.0317583
0.000175526
5.31815e-05
3.03668e-05
1.91549e-05
1.13949e-05
7.38834e-06
5.22242e-06
4.29248e-06
3.68633e-06
3.33592e-06
3.01302e-06
2.71636e-06
2.37962e-06
2.09692e-06
1.85532e-06
1.70636e-06
1.71229e-06
1.92708e-06
2.25951e-06
2.85336e-06
3.70686e-06
4.84811e-06
6.13e-06
7.05407e-06
7.34075e-06
7.54902e-06
8.13725e-06
8.23368e-06
7.56437e-06
6.50929e-06
4.55703e-06
2.73097e-06
1.38824e-06
8.16552e-07
6.58459e-07
0.999993
0.999992
0.999992
0.999992
0.999991
0.999991
0.99999
0.99999
0.99999
0.99999
0.99999
0.99999
0.99999
0.99999
0.99999
0.99999
0.99999
0.99999
0.99999
0.99999
0.99999
0.99999
0.99999
0.99999
0.99999
0.99999
0.99999
0.99999
0.99999
0.99999
0.99999
0.99999
0.99999
0.99999
0.99999
0.99999
0.99999
0.99999
0.99999
0.99999
0.99999
0.99999
0.99999
0.99999
0.999989
0.999986
0.999984
0.999983
0.999982
0.999982
0.999981
0.999979
0.999975
0.999971
0.999968
0.999962
0.99996
0.999943
0.999834
0.973095
0.041946
0.000182124
2.06667e-06
1.68164e-06
1.56736e-06
1.51565e-06
1.49396e-06
1.46173e-06
1.43957e-06
1.41749e-06
1.41062e-06
1.39024e-06
1.36411e-06
1.33209e-06
1.30487e-06
1.2801e-06
1.25627e-06
1.23504e-06
1.21244e-06
1.19006e-06
1.16811e-06
1.14629e-06
1.12309e-06
1.10108e-06
1.07426e-06
1.0279e-06
9.70989e-07
9.24088e-07
8.74755e-07
8.2371e-07
7.63288e-07
6.86177e-07
6.12213e-07
5.78716e-07
5.79067e-07
5.77518e-07
0.999994
0.999993
0.999993
0.999993
0.999992
0.999992
0.999991
0.999991
0.999991
0.99999
0.99999
0.99999
0.99999
0.99999
0.99999
0.99999
0.99999
0.99999
0.99999
0.99999
0.99999
0.99999
0.99999
0.99999
0.99999
0.99999
0.99999
0.99999
0.99999
0.99999
0.99999
0.99999
0.99999
0.99999
0.99999
0.99999
0.99999
0.99999
0.99999
0.99999
0.99999
0.99999
0.99999
0.99999
0.999989
0.999988
0.999986
0.999984
0.999983
0.999983
0.999982
0.99998
0.999978
0.999973
0.99997
0.999967
0.999964
0.999938
0.999759
0.975892
0.0586913
0.000323042
1.82394e-06
1.5334e-06
1.51226e-06
1.47633e-06
1.46409e-06
1.43909e-06
1.41856e-06
1.39317e-06
1.37884e-06
1.36104e-06
1.34196e-06
1.31858e-06
1.29489e-06
1.27181e-06
1.25283e-06
1.23469e-06
1.2135e-06
1.19376e-06
1.1755e-06
1.1564e-06
1.13887e-06
1.12097e-06
1.09784e-06
1.05782e-06
9.97623e-07
9.34669e-07
8.81771e-07
8.25166e-07
7.59465e-07
6.81984e-07
6.0671e-07
5.74833e-07
5.77799e-07
5.77685e-07
0.999995
0.999994
0.999994
0.999993
0.999993
0.999992
0.999992
0.999992
0.999991
0.99999
0.99999
0.99999
0.99999
0.99999
0.99999
0.99999
0.99999
0.99999
0.99999
0.99999
0.99999
0.99999
0.99999
0.99999
0.99999
0.99999
0.99999
0.99999
0.99999
0.99999
0.99999
0.99999
0.99999
0.99999
0.99999
0.99999
0.99999
0.99999
0.99999
0.99999
0.99999
0.99999
0.99999
0.99999
0.99999
0.999989
0.999987
0.999986
0.999985
0.999984
0.999983
0.999981
0.999978
0.999974
0.99997
0.999967
0.99996
0.999923
0.999755
0.971859
0.0682667
0.000458619
2.07961e-06
1.52367e-06
1.49737e-06
1.46583e-06
1.45721e-06
1.43225e-06
1.41492e-06
1.38825e-06
1.37424e-06
1.35026e-06
1.33311e-06
1.31167e-06
1.29055e-06
1.26952e-06
1.24941e-06
1.23108e-06
1.21225e-06
1.19352e-06
1.17273e-06
1.15498e-06
1.1372e-06
1.11894e-06
1.09929e-06
1.06548e-06
1.00726e-06
9.39067e-07
8.8103e-07
8.25251e-07
7.60401e-07
6.81691e-07
6.03995e-07
5.73423e-07
5.77449e-07
5.77625e-07
0.999996
0.999995
0.999995
0.999994
0.999993
0.999993
0.999993
0.999992
0.999992
0.999991
0.99999
0.99999
0.99999
0.99999
0.99999
0.99999
0.99999
0.99999
0.99999
0.99999
0.99999
0.99999
0.99999
0.99999
0.99999
0.99999
0.99999
0.99999
0.99999
0.99999
0.99999
0.99999
0.99999
0.99999
0.99999
0.99999
0.99999
0.99999
0.99999
0.99999
0.99999
0.99999
0.99999
0.99999
0.99999
0.99999
0.999989
0.999988
0.999986
0.999985
0.999984
0.999981
0.999978
0.999975
0.99997
0.999966
0.999952
0.999922
0.999808
0.967792
0.0607366
0.00024783
1.6714e-06
1.51747e-06
1.497e-06
1.46341e-06
1.44557e-06
1.41874e-06
1.40422e-06
1.37626e-06
1.3652e-06
1.34416e-06
1.32443e-06
1.30385e-06
1.28343e-06
1.26285e-06
1.24181e-06
1.22531e-06
1.20759e-06
1.19032e-06
1.17359e-06
1.15531e-06
1.13635e-06
1.11942e-06
1.10121e-06
1.07519e-06
1.03032e-06
9.59433e-07
8.84394e-07
8.24088e-07
7.58983e-07
6.79402e-07
6.02937e-07
5.74072e-07
5.77633e-07
5.77813e-07
0.999997
0.999995
0.999995
0.999995
0.999994
0.999994
0.999993
0.999992
0.999992
0.999991
0.99999
0.99999
0.99999
0.99999
0.99999
0.99999
0.99999
0.99999
0.99999
0.99999
0.99999
0.99999
0.99999
0.99999
0.99999
0.99999
0.99999
0.99999
0.99999
0.99999
0.99999
0.99999
0.99999
0.99999
0.99999
0.99999
0.99999
0.99999
0.99999
0.99999
0.99999
0.99999
0.99999
0.99999
0.99999
0.99999
0.999989
0.999989
0.999988
0.999987
0.999985
0.999983
0.999981
0.999979
0.99997
0.999955
0.999949
0.999942
0.999692
0.967576
0.0687791
0.000563397
2.32879e-06
1.52199e-06
1.50095e-06
1.4659e-06
1.44494e-06
1.41376e-06
1.4037e-06
1.37735e-06
1.36125e-06
1.33946e-06
1.31935e-06
1.29983e-06
1.2798e-06
1.25971e-06
1.24108e-06
1.22248e-06
1.20291e-06
1.18538e-06
1.16774e-06
1.14907e-06
1.13231e-06
1.11576e-06
1.09833e-06
1.08259e-06
1.05581e-06
9.99878e-07
9.17166e-07
8.37153e-07
7.6275e-07
6.81832e-07
6.04869e-07
5.73912e-07
5.7785e-07
5.77919e-07
0.99999
0.99999
0.99999
0.99999
0.99999
0.99999
0.99999
0.99999
0.99999
0.99999
0.99999
0.99999
0.99999
0.99999
0.99999
0.99999
0.99999
0.99999
0.99999
0.99999
0.99999
0.99999
0.99999
0.99999
0.99999
0.99999
0.99999
0.99999
0.99999
0.99999
0.99999
0.99999
0.99999
0.99999
0.99999
0.99999
0.99999
0.99999
0.99999
0.99999
0.99999
0.99999
0.99999
0.99999
0.99999
0.99999
0.99999
0.99999
0.999989
0.999988
0.999986
0.999985
0.999983
0.99998
0.999976
0.999968
0.999962
0.999932
0.999209
0.947681
0.0329824
0.000136698
1.56353e-06
1.52725e-06
1.5095e-06
1.47001e-06
1.46318e-06
1.42992e-06
1.41963e-06
1.39101e-06
1.37728e-06
1.35279e-06
1.33556e-06
1.31416e-06
1.29379e-06
1.27253e-06
1.25456e-06
1.23443e-06
1.21349e-06
1.19638e-06
1.17883e-06
1.15877e-06
1.1402e-06
1.12102e-06
1.10138e-06
1.08307e-06
1.06247e-06
1.03881e-06
1.01302e-06
9.74649e-07
9.09043e-07
8.07213e-07
6.89871e-07
6.33933e-07
6.30475e-07
6.13697e-07
0.99999
0.99999
0.99999
0.99999
0.99999
0.99999
0.99999
0.99999
0.99999
0.99999
0.99999
0.99999
0.99999
0.99999
0.99999
0.99999
0.99999
0.99999
0.99999
0.99999
0.99999
0.99999
0.99999
0.99999
0.99999
0.99999
0.99999
0.99999
0.99999
0.99999
0.99999
0.99999
0.99999
0.99999
0.99999
0.99999
0.99999
0.99999
0.99999
0.99999
0.99999
0.99999
0.99999
0.99999
0.99999
0.99999
0.99999
0.99999
0.99999
0.999989
0.999988
0.999985
0.99998
0.999975
0.99997
0.999963
0.99995
0.99991
0.999592
0.919487
0.0160852
1.70708e-05
1.5507e-06
1.54378e-06
1.53775e-06
1.49189e-06
1.48055e-06
1.44443e-06
1.43031e-06
1.40159e-06
1.38779e-06
1.36521e-06
1.34899e-06
1.32872e-06
1.30559e-06
1.28375e-06
1.26618e-06
1.24736e-06
1.22679e-06
1.20836e-06
1.18555e-06
1.16222e-06
1.14093e-06
1.1198e-06
1.09941e-06
1.08048e-06
1.05971e-06
1.03605e-06
1.01066e-06
9.76075e-07
9.19421e-07
8.27717e-07
7.10538e-07
6.4693e-07
6.36333e-07
6.18691e-07
0.99999
0.99999
0.99999
0.99999
0.99999
0.99999
0.99999
0.99999
0.99999
0.99999
0.99999
0.99999
0.99999
0.99999
0.99999
0.99999
0.99999
0.99999
0.99999
0.99999
0.99999
0.99999
0.99999
0.99999
0.99999
0.99999
0.99999
0.99999
0.99999
0.99999
0.99999
0.99999
0.99999
0.99999
0.99999
0.99999
0.99999
0.99999
0.99999
0.99999
0.99999
0.99999
0.99999
0.99999
0.99999
0.99999
0.99999
0.99999
0.99999
0.999989
0.999986
0.999979
0.99997
0.999962
0.999956
0.999952
0.999941
0.999905
0.999741
0.876628
0.0124028
2.65147e-06
1.90065e-06
1.62359e-06
1.63094e-06
1.51578e-06
1.53873e-06
1.49737e-06
1.47995e-06
1.44319e-06
1.43501e-06
1.40926e-06
1.39035e-06
1.36648e-06
1.3444e-06
1.32459e-06
1.3046e-06
1.28148e-06
1.25598e-06
1.22496e-06
1.19454e-06
1.1687e-06
1.14674e-06
1.12503e-06
1.10494e-06
1.08506e-06
1.06339e-06
1.03898e-06
1.0125e-06
9.77795e-07
9.23483e-07
8.3761e-07
7.26264e-07
6.60222e-07
6.44318e-07
6.22567e-07
0.99999
0.99999
0.99999
0.99999
0.99999
0.99999
0.99999
0.99999
0.99999
0.99999
0.99999
0.99999
0.99999
0.99999
0.99999
0.99999
0.99999
0.99999
0.99999
0.99999
0.99999
0.99999
0.99999
0.99999
0.99999
0.99999
0.99999
0.99999
0.99999
0.99999
0.99999
0.99999
0.99999
0.99999
0.99999
0.99999
0.99999
0.99999
0.99999
0.99999
0.99999
0.99999
0.99999
0.99999
0.99999
0.99999
0.99999
0.99999
0.999989
0.999986
0.99998
0.999968
0.999956
0.999945
0.999934
0.999916
0.999892
0.999868
0.999761
0.794029
0.00895329
0.000146712
0.000107266
7.11435e-05
5.15949e-05
3.52455e-05
2.44056e-05
1.69307e-05
1.23123e-05
8.99447e-06
6.65692e-06
4.84344e-06
3.52459e-06
2.59669e-06
1.99256e-06
1.65186e-06
1.44921e-06
1.35248e-06
1.30228e-06
1.26214e-06
1.22661e-06
1.19043e-06
1.1583e-06
1.13013e-06
1.10735e-06
1.0828e-06
1.06048e-06
1.0345e-06
1.00435e-06
9.67645e-07
9.17855e-07
8.43638e-07
7.44228e-07
6.74363e-07
6.49384e-07
6.21783e-07
0.999991
0.99999
0.999991
0.999991
0.999991
0.99999
0.99999
0.99999
0.99999
0.99999
0.99999
0.99999
0.99999
0.99999
0.99999
0.99999
0.99999
0.99999
0.99999
0.99999
0.99999
0.99999
0.99999
0.99999
0.99999
0.99999
0.99999
0.99999
0.99999
0.99999
0.99999
0.99999
0.99999
0.99999
0.99999
0.99999
0.99999
0.99999
0.99999
0.99999
0.99999
0.99999
0.99999
0.99999
0.99999
0.99999
0.99999
0.999989
0.999986
0.999981
0.999973
0.999961
0.999946
0.999926
0.999905
0.999883
0.999868
0.999861
0.999849
0.667461
0.0108677
0.00376756
0.00339508
0.00292728
0.00257136
0.00219285
0.0018476
0.00152542
0.00123881
0.000982892
0.000765499
0.000583248
0.000433206
0.000312783
0.000218398
0.000147028
9.49863e-05
5.80804e-05
3.38703e-05
1.85011e-05
9.74484e-06
4.94888e-06
2.6668e-06
1.66935e-06
1.30661e-06
1.17501e-06
1.09542e-06
1.02596e-06
9.65962e-07
8.98426e-07
8.53619e-07
8.0522e-07
7.38091e-07
6.76651e-07
6.5024e-07
6.20995e-07
0.999991
0.999991
0.999991
0.999991
0.999991
0.999991
0.99999
0.99999
0.99999
0.99999
0.99999
0.99999
0.99999
0.99999
0.99999
0.99999
0.99999
0.99999
0.99999
0.99999
0.99999
0.99999
0.99999
0.99999
0.99999
0.99999
0.99999
0.99999
0.99999
0.99999
0.99999
0.99999
0.99999
0.99999
0.99999
0.99999
0.99999
0.99999
0.99999
0.99999
0.99999
0.99999
0.99999
0.99999
0.99999
0.99999
0.999989
0.999987
0.999982
0.999977
0.999969
0.999958
0.999943
0.999923
0.999901
0.999886
0.999881
0.99988
0.9997
0.516582
0.0216537
0.0183074
0.0183777
0.0180328
0.0176499
0.0169822
0.0162188
0.0153498
0.0143416
0.0132317
0.0120628
0.0108483
0.00963052
0.00842299
0.00725428
0.00613446
0.00509364
0.00412753
0.00326154
0.00250402
0.00186709
0.00134274
0.000932292
0.000624234
0.000403596
0.000249097
0.000147024
8.17471e-05
4.18302e-05
1.96867e-05
8.30229e-06
3.37457e-06
1.64215e-06
1.01608e-06
7.32444e-07
6.32669e-07
0.999991
0.999991
0.999991
0.999991
0.999991
0.999991
0.999991
0.99999
0.99999
0.99999
0.99999
0.99999
0.99999
0.99999
0.99999
0.99999
0.99999
0.99999
0.99999
0.99999
0.99999
0.99999
0.99999
0.99999
0.99999
0.99999
0.99999
0.99999
0.99999
0.99999
0.99999
0.99999
0.99999
0.99999
0.99999
0.99999
0.99999
0.99999
0.99999
0.99999
0.99999
0.99999
0.99999
0.99999
0.99999
0.99999
0.999988
0.999984
0.99998
0.999975
0.999968
0.99996
0.999948
0.999938
0.999925
0.999913
0.999909
0.999906
0.998557
0.554117
0.0360363
0.029994
0.0313686
0.0322275
0.0330008
0.0335699
0.0339322
0.0342374
0.0344824
0.0347254
0.0349531
0.0351752
0.0352818
0.0352811
0.0350547
0.0346482
0.0339706
0.0330418
0.0317458
0.0301434
0.0282113
0.0260593
0.0237234
0.0212904
0.0187808
0.0162701
0.0137953
0.011478
0.00934687
0.00744945
0.00574694
0.00416158
0.00270974
0.00157529
0.00103732
0.00123376
0.999991
0.999991
0.999991
0.999991
0.999991
0.999991
0.999991
0.999991
0.99999
0.99999
0.99999
0.99999
0.99999
0.99999
0.99999
0.99999
0.99999
0.99999
0.99999
0.99999
0.99999
0.99999
0.99999
0.99999
0.99999
0.99999
0.99999
0.99999
0.99999
0.99999
0.99999
0.99999
0.99999
0.99999
0.99999
0.99999
0.99999
0.99999
0.99999
0.99999
0.99999
0.99999
0.99999
0.99999
0.99999
0.999989
0.999987
0.999983
0.999979
0.999973
0.999967
0.999959
0.999953
0.999952
0.999945
0.999936
0.999929
0.999922
0.997181
0.722391
0.0363037
0.0218771
0.0231487
0.0239609
0.0251321
0.0266001
0.0284139
0.0303992
0.0326671
0.0349855
0.0373712
0.0398857
0.0425292
0.045291
0.0483016
0.0515324
0.0550312
0.0587951
0.0627636
0.06687
0.0710545
0.0753499
0.0797883
0.0843493
0.0890738
0.0939586
0.0990682
0.104462
0.110217
0.116514
0.123861
0.132801
0.144645
0.163617
0.208721
0.400331
0.999992
0.999991
0.999991
0.999991
0.999991
0.999991
0.999991
0.999991
0.99999
0.99999
0.99999
0.99999
0.99999
0.99999
0.99999
0.99999
0.99999
0.99999
0.99999
0.99999
0.99999
0.99999
0.99999
0.99999
0.99999
0.99999
0.99999
0.99999
0.99999
0.99999
0.99999
0.99999
0.99999
0.99999
0.99999
0.99999
0.99999
0.99999
0.99999
0.99999
0.99999
0.99999
0.99999
0.99999
0.99999
0.999988
0.999987
0.999984
0.999982
0.999977
0.99997
0.999964
0.999957
0.999952
0.999941
0.999932
0.999927
0.99992
0.999689
0.847355
0.019432
0.00394178
0.00374813
0.00313373
0.00292808
0.00268623
0.0026259
0.00263426
0.00263716
0.00265822
0.00270867
0.00275872
0.0027963
0.00283797
0.00293405
0.00307341
0.00327062
0.00350727
0.00379434
0.00416369
0.00457806
0.00504768
0.00563335
0.00627623
0.00693104
0.00755294
0.00812043
0.00857557
0.00885911
0.00902471
0.00895961
0.00875599
0.00844609
0.00786137
0.00725534
0.00612735
0.999992
0.999992
0.999991
0.999991
0.999991
0.999991
0.999991
0.999991
0.999991
0.99999
0.99999
0.99999
0.99999
0.99999
0.99999
0.99999
0.99999
0.99999
0.99999
0.99999
0.99999
0.99999
0.99999
0.99999
0.99999
0.99999
0.99999
0.99999
0.99999
0.99999
0.99999
0.99999
0.99999
0.99999
0.99999
0.99999
0.99999
0.99999
0.99999
0.99999
0.99999
0.99999
0.99999
0.99999
0.999989
0.999988
0.999986
0.999985
0.999984
0.999983
0.99998
0.999974
0.999968
0.99996
0.999943
0.999936
0.999934
0.999921
0.999912
0.904671
0.0136729
0.000381821
0.000326104
0.000226758
0.000178616
0.000139082
0.000120503
0.000107015
0.000102035
9.95249e-05
0.000100186
9.88996e-05
9.62847e-05
9.30514e-05
8.91828e-05
8.60187e-05
8.45907e-05
8.8499e-05
9.67705e-05
0.000111804
0.000136554
0.00017254
0.000215032
0.00025188
0.000279849
0.000323538
0.000370661
0.00040457
0.000439238
0.000473602
0.000501557
0.000516924
0.000490083
0.000393356
0.000227763
0.000102301
0.999992
0.999992
0.999992
0.999992
0.999992
0.999991
0.999991
0.999991
0.999991
0.999991
0.99999
0.99999
0.99999
0.99999
0.99999
0.99999
0.99999
0.99999
0.99999
0.99999
0.99999
0.99999
0.99999
0.99999
0.99999
0.99999
0.99999
0.99999
0.99999
0.99999
0.99999
0.99999
0.99999
0.99999
0.99999
0.99999
0.99999
0.99999
0.99999
0.99999
0.99999
0.99999
0.99999
0.99999
0.99999
0.999989
0.999987
0.999985
0.999984
0.999984
0.999985
0.999982
0.999979
0.999975
0.999964
0.999951
0.999943
0.999917
0.999889
0.942946
0.0223917
1.80253e-05
1.39598e-05
7.32527e-06
5.28081e-06
4.03641e-06
3.60315e-06
3.40347e-06
3.36955e-06
3.30123e-06
3.32192e-06
3.28892e-06
3.2487e-06
3.1372e-06
2.99928e-06
2.82239e-06
2.63951e-06
2.52991e-06
2.84372e-06
3.22499e-06
3.8314e-06
4.62359e-06
5.42166e-06
5.80598e-06
5.36279e-06
4.74025e-06
4.77816e-06
4.42815e-06
3.55339e-06
2.89982e-06
2.57608e-06
2.39528e-06
2.18516e-06
1.60301e-06
1.18471e-06
8.37156e-07
0.999993
0.999993
0.999992
0.999992
0.999992
0.999992
0.999991
0.999991
0.999991
0.999991
0.99999
0.99999
0.99999
0.99999
0.99999
0.99999
0.99999
0.99999
0.99999
0.99999
0.99999
0.99999
0.99999
0.99999
0.99999
0.99999
0.99999
0.99999
0.99999
0.99999
0.99999
0.99999
0.99999
0.99999
0.99999
0.99999
0.99999
0.99999
0.99999
0.99999
0.99999
0.99999
0.99999
0.99999
0.99999
0.99999
0.999988
0.999987
0.999986
0.999986
0.999986
0.999984
0.999979
0.999974
0.999968
0.999959
0.999948
0.999919
0.999847
0.956858
0.028139
1.84152e-06
1.73638e-06
1.54988e-06
1.56508e-06
1.49763e-06
1.49549e-06
1.45758e-06
1.44031e-06
1.40699e-06
1.38999e-06
1.3648e-06
1.34578e-06
1.32148e-06
1.29951e-06
1.27649e-06
1.25198e-06
1.22873e-06
1.20615e-06
1.18946e-06
1.17536e-06
1.15651e-06
1.13752e-06
1.12404e-06
1.09715e-06
1.04005e-06
9.86559e-07
9.52549e-07
9.12732e-07
8.55488e-07
7.79957e-07
6.89603e-07
6.05846e-07
5.7614e-07
5.77777e-07
5.78323e-07
0.999994
0.999993
0.999993
0.999993
0.999992
0.999992
0.999992
0.999991
0.999991
0.999991
0.99999
0.99999
0.99999
0.99999
0.99999
0.99999
0.99999
0.99999
0.99999
0.99999
0.99999
0.99999
0.99999
0.99999
0.99999
0.99999
0.99999
0.99999
0.99999
0.99999
0.99999
0.99999
0.99999
0.99999
0.99999
0.99999
0.99999
0.99999
0.99999
0.99999
0.99999
0.99999
0.99999
0.99999
0.99999
0.99999
0.999989
0.999988
0.999987
0.999987
0.999986
0.999983
0.999976
0.99997
0.999962
0.999958
0.999948
0.999929
0.999812
0.964781
0.0457929
4.13951e-05
1.55778e-06
1.52644e-06
1.50767e-06
1.47998e-06
1.46916e-06
1.43645e-06
1.42143e-06
1.39134e-06
1.37451e-06
1.34697e-06
1.32938e-06
1.30608e-06
1.28384e-06
1.26031e-06
1.24104e-06
1.22264e-06
1.20396e-06
1.18838e-06
1.17082e-06
1.15139e-06
1.13477e-06
1.11592e-06
1.09179e-06
1.05641e-06
1.00287e-06
9.46624e-07
9.00289e-07
8.4756e-07
7.7607e-07
6.8892e-07
6.06267e-07
5.75796e-07
5.77341e-07
5.77769e-07
0.999995
0.999994
0.999994
0.999993
0.999993
0.999992
0.999992
0.999992
0.999992
0.999991
0.99999
0.99999
0.99999
0.99999
0.99999
0.99999
0.99999
0.99999
0.99999
0.99999
0.99999
0.99999
0.99999
0.99999
0.99999
0.99999
0.99999
0.99999
0.99999
0.99999
0.99999
0.99999
0.99999
0.99999
0.99999
0.99999
0.99999
0.99999
0.99999
0.99999
0.99999
0.99999
0.99999
0.99999
0.99999
0.99999
0.99999
0.999989
0.999988
0.999987
0.999986
0.999981
0.999972
0.999964
0.999953
0.999949
0.999941
0.999919
0.999788
0.958565
0.0414861
5.19899e-05
1.58823e-06
1.52585e-06
1.49309e-06
1.46204e-06
1.45441e-06
1.42194e-06
1.40936e-06
1.38016e-06
1.36474e-06
1.33938e-06
1.32322e-06
1.30114e-06
1.28087e-06
1.25979e-06
1.24104e-06
1.2221e-06
1.20283e-06
1.1864e-06
1.16775e-06
1.14809e-06
1.13175e-06
1.11395e-06
1.0929e-06
1.06407e-06
1.01301e-06
9.48293e-07
8.90125e-07
8.30937e-07
7.62165e-07
6.82201e-07
6.05215e-07
5.75171e-07
5.7736e-07
5.77758e-07
0.999996
0.999995
0.999995
0.999994
0.999993
0.999993
0.999992
0.999992
0.999992
0.999991
0.99999
0.99999
0.99999
0.99999
0.99999
0.99999
0.99999
0.99999
0.99999
0.99999
0.99999
0.99999
0.99999
0.99999
0.99999
0.99999
0.99999
0.99999
0.99999
0.99999
0.99999
0.99999
0.99999
0.99999
0.99999
0.99999
0.99999
0.99999
0.99999
0.99999
0.99999
0.99999
0.99999
0.99999
0.99999
0.99999
0.99999
0.999989
0.999988
0.999987
0.999986
0.999982
0.999969
0.999963
0.999945
0.999932
0.999926
0.999916
0.999814
0.942239
0.0347598
9.44305e-05
1.61418e-06
1.50733e-06
1.48378e-06
1.44779e-06
1.43944e-06
1.40825e-06
1.39576e-06
1.36806e-06
1.35414e-06
1.32912e-06
1.31218e-06
1.28994e-06
1.27246e-06
1.2533e-06
1.23447e-06
1.21784e-06
1.19998e-06
1.18349e-06
1.165e-06
1.14575e-06
1.12909e-06
1.1113e-06
1.09174e-06
1.06935e-06
1.03004e-06
9.65207e-07
8.90506e-07
8.23486e-07
7.52235e-07
6.71966e-07
5.9981e-07
5.74251e-07
5.77556e-07
5.77779e-07
0.999997
0.999996
0.999996
0.999995
0.999994
0.999994
0.999993
0.999993
0.999992
0.999991
0.99999
0.99999
0.99999
0.99999
0.99999
0.99999
0.99999
0.99999
0.99999
0.99999
0.99999
0.99999
0.99999
0.99999
0.99999
0.99999
0.99999
0.99999
0.99999
0.99999
0.99999
0.99999
0.99999
0.99999
0.99999
0.99999
0.99999
0.99999
0.99999
0.99999
0.99999
0.99999
0.99999
0.99999
0.99999
0.99999
0.99999
0.999989
0.999988
0.999988
0.999986
0.999984
0.99998
0.999972
0.999949
0.99993
0.999927
0.999918
0.999762
0.964438
0.0554679
0.00040483
2.14526e-06
1.50527e-06
1.4854e-06
1.44686e-06
1.43825e-06
1.40708e-06
1.39482e-06
1.36703e-06
1.35239e-06
1.32797e-06
1.31171e-06
1.29028e-06
1.27197e-06
1.2529e-06
1.23638e-06
1.21871e-06
1.19979e-06
1.18346e-06
1.16486e-06
1.14508e-06
1.12869e-06
1.11135e-06
1.09446e-06
1.07854e-06
1.05098e-06