/*--------------------------------*- C++ -*----------------------------------*\
| =========                 |                                                 |
| \\      /  F ield         | OpenFOAM: The Open Source CFD Toolbox           |
|  \\    /   O peration     | Version:  2.3.0                                 |
|   \\  /    A nd           | Web:      www.OpenFOAM.org                      |
|    \\/     M anipulation  |                                                 |
\*---------------------------------------------------------------------------*/
FoamFile
{
    version     2.0;
    format      ascii;
    class       volScalarField;
    location    "9";
    object      alpha.air;
}
// * * * * * * * * * * * * * * * * * * * * * * * * * * * * * * * * * * * * * //

dimensions      [0 0 0 0 0 0 0];

internalField   nonuniform List<scalar> 
6144
(
0.999991
0.99999
0.99999
0.99999
0.99999
0.99999
0.99999
0.99999
0.99999
0.99999
0.99999
0.99999
0.99999
0.99999
0.99999
0.99999
0.99999
0.99999
0.99999
0.99999
0.99999
0.99999
0.99999
0.99999
0.99999
0.99999
0.99999
0.99999
0.99999
0.99999
0.99999
0.99999
0.99999
0.99999
0.99999
0.99999
0.99999
0.99999
0.99999
0.99999
0.99999
0.99999
0.99999
0.99999
0.99999
0.99999
0.99999
0.99999
0.99999
0.99999
0.99999
0.999989
0.999984
0.999965
0.999944
0.999885
0.999767
0.9993
0.998817
0.952075
0.0470535
0.000279652
1.00245e-06
7.96323e-07
7.82745e-07
7.79358e-07
7.80415e-07
7.85173e-07
7.93389e-07
7.96597e-07
7.9572e-07
7.91398e-07
7.85597e-07
7.83173e-07
7.8277e-07
7.82826e-07
7.82925e-07
7.83177e-07
7.83529e-07
7.84174e-07
7.85517e-07
7.87117e-07
7.89655e-07
7.90262e-07
7.89604e-07
7.893e-07
7.97051e-07
8.01022e-07
6.86049e-07
5.6792e-07
4.73978e-07
3.84473e-07
3.06716e-07
2.76881e-07
2.76789e-07
2.76779e-07
0.999991
0.999991
0.99999
0.99999
0.99999
0.99999
0.99999
0.99999
0.99999
0.99999
0.99999
0.99999
0.99999
0.99999
0.99999
0.99999
0.99999
0.99999
0.99999
0.99999
0.99999
0.99999
0.99999
0.99999
0.99999
0.99999
0.99999
0.99999
0.99999
0.99999
0.99999
0.99999
0.99999
0.99999
0.99999
0.99999
0.99999
0.99999
0.99999
0.99999
0.99999
0.99999
0.99999
0.99999
0.99999
0.99999
0.99999
0.99999
0.99999
0.99999
0.99999
0.999989
0.999987
0.999972
0.999949
0.999886
0.999743
0.999181
0.99852
0.949872
0.0475068
6.31478e-05
7.69464e-07
7.90445e-07
7.78725e-07
7.75212e-07
7.76904e-07
7.78104e-07
7.78447e-07
7.78562e-07
7.78515e-07
7.79087e-07
7.80368e-07
7.80022e-07
7.78976e-07
7.77814e-07
7.77777e-07
7.77992e-07
7.78545e-07
7.79335e-07
7.80219e-07
7.81194e-07
7.82818e-07
7.85616e-07
7.86607e-07
7.88167e-07
7.98072e-07
8.08285e-07
7.31483e-07
6.2554e-07
5.40377e-07
4.3886e-07
3.30183e-07
2.76788e-07
2.7678e-07
2.76685e-07
0.999991
0.999991
0.999991
0.999991
0.99999
0.99999
0.99999
0.99999
0.99999
0.99999
0.99999
0.99999
0.99999
0.99999
0.99999
0.99999
0.99999
0.99999
0.99999
0.99999
0.99999
0.99999
0.99999
0.99999
0.99999
0.99999
0.99999
0.99999
0.99999
0.99999
0.99999
0.99999
0.99999
0.99999
0.99999
0.99999
0.99999
0.99999
0.99999
0.99999
0.99999
0.99999
0.99999
0.99999
0.99999
0.99999
0.99999
0.99999
0.99999
0.99999
0.99999
0.999989
0.999987
0.999976
0.999924
0.999858
0.999808
0.999354
0.999143
0.951751
0.0618309
9.2714e-07
7.69463e-07
8.4487e-07
8.32547e-07
8.31789e-07
8.26807e-07
8.19386e-07
8.11887e-07
8.04391e-07
7.94803e-07
7.84799e-07
7.80271e-07
7.79983e-07
7.80201e-07
7.82408e-07
7.87369e-07
7.93038e-07
7.96081e-07
7.94801e-07
7.89892e-07
7.81927e-07
7.75895e-07
7.76503e-07
7.78276e-07
7.84019e-07
8.06208e-07
8.26256e-07
7.5771e-07
6.83169e-07
6.1567e-07
5.28416e-07
3.96582e-07
2.78653e-07
2.76685e-07
2.76668e-07
0.999991
0.999991
0.999991
0.999991
0.99999
0.99999
0.99999
0.99999
0.99999
0.99999
0.99999
0.99999
0.99999
0.99999
0.99999
0.99999
0.99999
0.99999
0.99999
0.99999
0.99999
0.99999
0.99999
0.99999
0.99999
0.99999
0.99999
0.99999
0.99999
0.99999
0.99999
0.99999
0.99999
0.99999
0.99999
0.99999
0.99999
0.99999
0.99999
0.99999
0.99999
0.99999
0.99999
0.99999
0.99999
0.99999
0.99999
0.99999
0.99999
0.99999
0.99999
0.999989
0.999986
0.999968
0.999893
0.999848
0.999865
0.999467
0.999615
0.953486
0.0639091
7.70679e-07
8.12407e-07
9.42438e-07
8.04034e-07
8.40819e-07
9.94298e-07
8.87872e-07
7.79453e-07
7.80848e-07
7.81973e-07
7.93313e-07
8.72779e-07
9.33521e-07
9.05106e-07
8.74896e-07
8.56402e-07
8.3981e-07
8.25835e-07
8.15466e-07
8.03419e-07
7.9763e-07
7.91885e-07
7.89185e-07
7.9665e-07
8.2111e-07
8.38259e-07
8.10672e-07
7.54656e-07
7.08892e-07
6.5848e-07
5.78914e-07
4.51874e-07
3.08288e-07
2.76669e-07
2.76577e-07
0.999991
0.999991
0.999991
0.999991
0.999991
0.99999
0.99999
0.99999
0.99999
0.99999
0.99999
0.99999
0.99999
0.99999
0.99999
0.99999
0.99999
0.99999
0.99999
0.99999
0.99999
0.99999
0.99999
0.99999
0.99999
0.99999
0.99999
0.99999
0.99999
0.99999
0.99999
0.99999
0.99999
0.99999
0.99999
0.99999
0.99999
0.99999
0.99999
0.99999
0.99999
0.99999
0.99999
0.99999
0.99999
0.99999
0.99999
0.99999
0.99999
0.99999
0.99999
0.999989
0.999985
0.999968
0.999932
0.999813
0.999789
0.999592
0.999827
0.872635
0.0125248
2.3843e-05
7.96472e-06
2.90563e-06
2.09877e-06
1.93491e-06
2.99294e-06
4.261e-06
5.03959e-06
5.35531e-06
5.44758e-06
4.98378e-06
4.77095e-06
4.75348e-06
4.06772e-06
2.58402e-06
1.72299e-06
1.35608e-06
1.20886e-06
1.00553e-06
8.38301e-07
9.58346e-07
8.98302e-07
8.95375e-07
8.60809e-07
8.32518e-07
8.26076e-07
7.88822e-07
7.60894e-07
7.25737e-07
6.80258e-07
6.0362e-07
4.81185e-07
3.32266e-07
2.76577e-07
2.76571e-07
0.999991
0.999991
0.999991
0.999991
0.999991
0.99999
0.99999
0.99999
0.99999
0.99999
0.99999
0.99999
0.99999
0.99999
0.99999
0.99999
0.99999
0.99999
0.99999
0.99999
0.99999
0.99999
0.99999
0.99999
0.99999
0.99999
0.99999
0.99999
0.99999
0.99999
0.99999
0.99999
0.99999
0.99999
0.99999
0.99999
0.99999
0.99999
0.99999
0.99999
0.99999
0.99999
0.99999
0.99999
0.99999
0.99999
0.99999
0.99999
0.99999
0.99999
0.99999
0.999988
0.999984
0.999965
0.999878
0.999824
0.999827
0.999731
0.999981
0.743779
0.0123911
0.000887273
0.000714427
0.000596111
0.000556575
0.000534196
0.000533271
0.000617081
0.000752671
0.000829538
0.000881336
0.000914941
0.00085755
0.000716212
0.000677397
0.000574985
0.000408536
0.000309436
0.000235118
0.000152338
8.06923e-05
3.70565e-05
1.48356e-05
4.25695e-06
1.09012e-06
6.22077e-07
6.68444e-07
5.30893e-07
5.36832e-07
5.26185e-07
5.05618e-07
4.62479e-07
3.44458e-07
2.76683e-07
2.76668e-07
2.76577e-07
0.999991
0.999991
0.999991
0.999991
0.999991
0.999991
0.999991
0.99999
0.99999
0.99999
0.99999
0.99999
0.99999
0.99999
0.99999
0.99999
0.99999
0.99999
0.99999
0.99999
0.99999
0.99999
0.99999
0.99999
0.99999
0.99999
0.99999
0.99999
0.99999
0.99999
0.99999
0.99999
0.99999
0.99999
0.99999
0.99999
0.99999
0.99999
0.99999
0.99999
0.99999
0.99999
0.99999
0.99999
0.99999
0.99999
0.99999
0.99999
0.99999
0.99999
0.999989
0.999987
0.999982
0.999968
0.999924
0.999851
0.999767
0.999769
0.99999
0.579103
0.00916556
0.00654426
0.00711612
0.00765775
0.00801084
0.00772795
0.00647562
0.00659637
0.00932344
0.0105678
0.00989382
0.00810577
0.00732515
0.00760283
0.00860021
0.00782457
0.00565009
0.0050899
0.00478943
0.00414806
0.00332431
0.00249842
0.00171453
0.00105161
0.000563397
0.000254138
0.000102391
4.5824e-05
2.70706e-05
1.87916e-05
1.60257e-05
1.76358e-05
1.79272e-05
8.20926e-06
1.05387e-06
2.76668e-07
0.999991
0.999991
0.999991
0.999991
0.999991
0.999991
0.999991
0.999991
0.99999
0.99999
0.99999
0.99999
0.99999
0.99999
0.99999
0.99999
0.99999
0.99999
0.99999
0.99999
0.99999
0.99999
0.99999
0.99999
0.99999
0.99999
0.99999
0.99999
0.99999
0.99999
0.99999
0.99999
0.99999
0.99999
0.99999
0.99999
0.99999
0.99999
0.99999
0.99999
0.99999
0.99999
0.99999
0.99999
0.99999
0.99999
0.99999
0.99999
0.99999
0.99999
0.999989
0.999984
0.999975
0.999962
0.999942
0.999867
0.999781
0.999771
0.99999
0.529122
0.0192035
0.0177014
0.0226139
0.024377
0.0245862
0.0228724
0.0195773
0.0185112
0.0187865
0.0194712
0.0195762
0.0194637
0.0194227
0.0179418
0.0157748
0.0143373
0.0134914
0.0129962
0.0128986
0.0130017
0.0127543
0.0117467
0.0102085
0.00907836
0.00795032
0.00587974
0.00376735
0.00228524
0.00102801
0.000138027
2.86944e-07
2.86944e-07
2.86944e-07
2.86944e-07
0.000486682
0.00250999
0.999992
0.999991
0.999991
0.999991
0.999991
0.999991
0.999991
0.999991
0.999991
0.99999
0.99999
0.99999
0.99999
0.99999
0.99999
0.99999
0.99999
0.99999
0.99999
0.99999
0.99999
0.99999
0.99999
0.99999
0.99999
0.99999
0.99999
0.99999
0.99999
0.99999
0.99999
0.99999
0.99999
0.99999
0.99999
0.99999
0.99999
0.99999
0.99999
0.99999
0.99999
0.99999
0.99999
0.99999
0.99999
0.99999
0.99999
0.99999
0.99999
0.99999
0.999988
0.999979
0.999963
0.999948
0.999932
0.999887
0.99983
0.999782
0.99999
0.623818
0.0139583
0.00958425
0.00971983
0.00983439
0.00946303
0.00777181
0.00578769
0.00442105
0.00368189
0.0032135
0.00262351
0.00201154
0.00147804
0.00110474
0.00092086
0.000842882
0.000782425
0.000761247
0.000794387
0.000879381
0.000934016
0.000923778
0.000920512
0.00102762
0.00103019
0.000815811
0.000680227
0.000569358
0.000460048
0.000371169
0.000281254
0.000161687
7.6625e-05
3.56397e-05
1.33306e-05
3.58905e-07
0.999992
0.999991
0.999991
0.999991
0.999991
0.999991
0.999991
0.999991
0.999991
0.99999
0.99999
0.99999
0.99999
0.99999
0.99999
0.99999
0.99999
0.99999
0.99999
0.99999
0.99999
0.99999
0.99999
0.99999
0.99999
0.99999
0.99999
0.99999
0.99999
0.99999
0.99999
0.99999
0.99999
0.99999
0.99999
0.99999
0.99999
0.99999
0.99999
0.99999
0.99999
0.99999
0.99999
0.99999
0.99999
0.99999
0.99999
0.99999
0.99999
0.99999
0.999988
0.999981
0.999966
0.999947
0.999923
0.999874
0.999852
0.999705
0.999933
0.735194
0.00551989
0.00152904
0.00114797
0.00070712
0.000486572
0.000295626
0.000178569
0.000113462
5.80402e-05
2.8301e-05
1.41285e-05
5.87435e-06
2.20955e-06
1.00495e-06
5.7103e-07
3.00969e-07
3.00969e-07
3.00969e-07
3.0097e-07
3.00969e-07
3.00969e-07
3.00969e-07
3.00969e-07
3.00969e-07
3.00969e-07
3.00969e-07
3.0097e-07
3.0097e-07
3.41765e-07
3.77214e-07
5.07169e-07
6.05918e-07
5.57125e-07
3.98382e-07
2.94347e-07
2.76011e-07
0.999993
0.999991
0.999991
0.999992
0.999992
0.999991
0.999991
0.999991
0.999992
0.999991
0.99999
0.99999
0.99999
0.99999
0.99999
0.99999
0.99999
0.99999
0.99999
0.99999
0.99999
0.99999
0.99999
0.99999
0.99999
0.99999
0.99999
0.99999
0.99999
0.99999
0.99999
0.99999
0.99999
0.99999
0.99999
0.99999
0.99999
0.99999
0.99999
0.99999
0.99999
0.99999
0.99999
0.99999
0.99999
0.99999
0.99999
0.99999
0.99999
0.99999
0.999989
0.999984
0.999975
0.999954
0.999894
0.999864
0.999873
0.999586
0.999798
0.873582
0.00896294
3.97933e-05
1.6938e-05
3.685e-06
1.86866e-06
1.03325e-06
1.00131e-06
8.65273e-07
9.16953e-07
7.99695e-07
7.92678e-07
8.05074e-07
7.77551e-07
7.53077e-07
7.44878e-07
7.54931e-07
7.40629e-07
7.28242e-07
7.15631e-07
7.07443e-07
7.0212e-07
7.08335e-07
7.31394e-07
7.55822e-07
7.58998e-07
7.04811e-07
6.42432e-07
6.02221e-07
5.30825e-07
4.40277e-07
3.63707e-07
3.20618e-07
3.02818e-07
2.85372e-07
2.75904e-07
2.75987e-07
0.999995
0.999993
0.999993
0.999993
0.999993
0.999992
0.999992
0.999992
0.999992
0.999991
0.99999
0.99999
0.99999
0.99999
0.99999
0.99999
0.99999
0.99999
0.99999
0.99999
0.99999
0.99999
0.99999
0.99999
0.99999
0.99999
0.99999
0.99999
0.99999
0.99999
0.99999
0.99999
0.99999
0.99999
0.99999
0.99999
0.99999
0.99999
0.99999
0.99999
0.99999
0.99999
0.99999
0.99999
0.99999
0.99999
0.99999
0.99999
0.99999
0.99999
0.999989
0.999987
0.999979
0.999964
0.999914
0.999869
0.999877
0.999483
0.999654
0.949249
0.0194308
4.51473e-07
7.19351e-07
5.27906e-07
7.24146e-07
7.70582e-07
7.63382e-07
7.4582e-07
7.28637e-07
7.17017e-07
7.12875e-07
7.13063e-07
7.15352e-07
7.23048e-07
7.41682e-07
7.62353e-07
7.61905e-07
7.45462e-07
7.10553e-07
6.76216e-07
6.48466e-07
6.25988e-07
6.2643e-07
6.58278e-07
7.28294e-07
7.36369e-07
6.366e-07
5.6033e-07
4.96541e-07
4.14251e-07
3.41912e-07
2.96947e-07
2.77108e-07
2.75799e-07
2.75882e-07
2.75904e-07
0.999995
0.999994
0.999994
0.999994
0.999994
0.999994
0.999994
0.999993
0.999993
0.999992
0.99999
0.99999
0.99999
0.99999
0.99999
0.99999
0.99999
0.99999
0.99999
0.99999
0.99999
0.99999
0.99999
0.99999
0.99999
0.99999
0.99999
0.99999
0.99999
0.99999
0.99999
0.99999
0.99999
0.99999
0.99999
0.99999
0.99999
0.99999
0.99999
0.99999
0.99999
0.99999
0.99999
0.99999
0.99999
0.99999
0.99999
0.99999
0.99999
0.99999
0.999989
0.999987
0.99998
0.999969
0.99994
0.999891
0.999858
0.999349
0.99941
0.957591
0.0477302
4.51472e-07
5.68995e-07
5.76445e-07
5.38665e-07
5.6781e-07
5.79501e-07
5.86598e-07
5.92094e-07
5.94978e-07
5.96521e-07
5.98088e-07
6.00582e-07
6.039e-07
6.09391e-07
6.1696e-07
6.25429e-07
6.28644e-07
6.25102e-07
6.15374e-07
5.97666e-07
5.75081e-07
5.71424e-07
5.88852e-07
6.53101e-07
7.38985e-07
6.98257e-07
5.55543e-07
4.79404e-07
3.97459e-07
3.3155e-07
2.9351e-07
2.7778e-07
2.75778e-07
2.758e-07
2.75882e-07
0.999996
0.999995
0.999995
0.999995
0.999994
0.999994
0.999994
0.999995
0.999994
0.999992
0.99999
0.99999
0.99999
0.99999
0.99999
0.99999
0.99999
0.99999
0.99999
0.99999
0.99999
0.99999
0.99999
0.99999
0.99999
0.99999
0.99999
0.99999
0.99999
0.99999
0.99999
0.99999
0.99999
0.99999
0.99999
0.99999
0.99999
0.99999
0.99999
0.99999
0.99999
0.99999
0.99999
0.99999
0.99999
0.99999
0.99999
0.99999
0.99999
0.99999
0.999988
0.999985
0.999976
0.999962
0.99995
0.999924
0.999784
0.999198
0.999186
0.950096
0.0504213
1.1696e-06
4.25837e-07
4.6654e-07
4.79623e-07
4.91772e-07
5.0227e-07
5.07594e-07
5.06975e-07
5.04926e-07
5.01732e-07
4.98068e-07
4.94298e-07
4.90178e-07
4.85503e-07
4.82168e-07
4.79681e-07
4.76768e-07
4.73229e-07
4.6809e-07
4.61741e-07
4.61959e-07
4.71112e-07
5.09718e-07
5.97363e-07
7.08432e-07
7.22689e-07
5.9735e-07
4.59469e-07
3.75491e-07
3.17589e-07
2.89379e-07
2.77961e-07
2.75701e-07
2.75781e-07
2.75806e-07
0.999996
0.999996
0.999996
0.999995
0.999995
0.999995
0.999995
0.999995
0.999995
0.999993
0.999991
0.99999
0.99999
0.99999
0.99999
0.99999
0.99999
0.99999
0.99999
0.99999
0.99999
0.99999
0.99999
0.99999
0.99999
0.99999
0.99999
0.99999
0.99999
0.99999
0.99999
0.99999
0.99999
0.99999
0.99999
0.99999
0.99999
0.99999
0.99999
0.99999
0.99999
0.99999
0.99999
0.99999
0.99999
0.99999
0.99999
0.99999
0.99999
0.99999
0.999988
0.999982
0.999969
0.999957
0.99995
0.999926
0.999676
0.999081
0.998513
0.95026
0.0438126
7.44233e-05
4.2582e-07
4.50127e-07
4.43816e-07
4.35563e-07
4.28832e-07
4.20451e-07
4.10935e-07
4.02283e-07
3.95587e-07
3.91098e-07
3.88942e-07
3.88284e-07
3.87562e-07
3.86377e-07
3.8593e-07
3.85956e-07
3.86527e-07
3.88537e-07
3.9279e-07
4.01244e-07
4.19801e-07
4.6596e-07
5.61916e-07
6.88407e-07
7.31704e-07
6.29984e-07
4.69258e-07
3.75212e-07
3.14268e-07
2.86905e-07
2.75616e-07
2.75685e-07
2.75715e-07
2.7579e-07
0.999997
0.999997
0.999997
0.999997
0.999996
0.999996
0.999996
0.999996
0.999995
0.999992
0.99999
0.99999
0.99999
0.99999
0.99999
0.99999
0.99999
0.99999
0.99999
0.99999
0.99999
0.99999
0.99999
0.99999
0.99999
0.99999
0.99999
0.99999
0.99999
0.99999
0.99999
0.99999
0.99999
0.99999
0.99999
0.99999
0.99999
0.99999
0.99999
0.99999
0.99999
0.99999
0.99999
0.99999
0.99999
0.99999
0.99999
0.99999
0.99999
0.99999
0.999988
0.999981
0.999969
0.999959
0.999954
0.999876
0.99975
0.999143
0.998774
0.954638
0.0480233
0.000309892
1.00629e-06
3.15843e-07
3.16543e-07
3.16928e-07
3.18385e-07
3.20344e-07
3.21414e-07
3.21805e-07
3.22247e-07
3.23301e-07
3.26013e-07
3.31344e-07
3.38761e-07
3.45501e-07
3.49672e-07
3.52358e-07
3.55265e-07
3.60004e-07
3.67338e-07
3.78709e-07
3.9955e-07
4.46781e-07
5.49267e-07
6.91217e-07
7.51075e-07
6.56532e-07
4.78468e-07
3.79917e-07
3.21146e-07
2.93305e-07
2.79439e-07
2.75688e-07
2.75747e-07
2.75794e-07
0.999991
0.999991
0.99999
0.99999
0.99999
0.99999
0.99999
0.99999
0.99999
0.99999
0.99999
0.99999
0.99999
0.99999
0.99999
0.99999
0.99999
0.99999
0.99999
0.99999
0.99999
0.99999
0.99999
0.99999
0.99999
0.99999
0.99999
0.99999
0.99999
0.99999
0.99999
0.99999
0.99999
0.99999
0.99999
0.99999
0.99999
0.99999
0.99999
0.99999
0.99999
0.99999
0.99999
0.99999
0.99999
0.99999
0.99999
0.99999
0.99999
0.99999
0.99999
0.999988
0.999984
0.999964
0.99994
0.999885
0.999784
0.999024
0.997053
0.945757
0.0585654
0.000464606
1.21431e-06
7.68329e-07
7.7222e-07
7.74264e-07
7.74307e-07
7.74128e-07
7.74173e-07
7.74346e-07
7.7455e-07
7.74639e-07
7.74724e-07
7.74848e-07
7.74999e-07
7.75203e-07
7.75468e-07
7.75665e-07
7.75918e-07
7.75987e-07
7.7616e-07
7.7653e-07
7.76285e-07
7.76561e-07
7.76075e-07
7.76124e-07
7.80507e-07
7.93774e-07
7.8982e-07
7.26864e-07
5.63563e-07
4.41434e-07
3.05575e-07
2.76788e-07
2.7678e-07
2.76686e-07
0.999991
0.999991
0.999991
0.999991
0.999991
0.999991
0.99999
0.99999
0.99999
0.99999
0.99999
0.99999
0.99999
0.99999
0.99999
0.99999
0.99999
0.99999
0.99999
0.99999
0.99999
0.99999
0.99999
0.99999
0.99999
0.99999
0.99999
0.99999
0.99999
0.99999
0.99999
0.99999
0.99999
0.99999
0.99999
0.99999
0.99999
0.99999
0.99999
0.99999
0.99999
0.99999
0.99999
0.99999
0.99999
0.99999
0.99999
0.99999
0.99999
0.99999
0.99999
0.999989
0.999985
0.999967
0.999944
0.999884
0.999754
0.999125
0.998187
0.951318
0.0496902
9.58544e-05
7.69465e-07
7.89102e-07
7.75667e-07
7.71277e-07
7.7227e-07
7.72401e-07
7.72428e-07
7.7285e-07
7.73887e-07
7.75539e-07
7.77234e-07
7.77014e-07
7.76379e-07
7.75368e-07
7.75367e-07
7.75401e-07
7.75536e-07
7.75733e-07
7.75809e-07
7.75952e-07
7.75486e-07
7.75745e-07
7.76012e-07
7.77058e-07
7.83095e-07
7.9707e-07
7.96828e-07
7.68419e-07
6.89356e-07
6.01231e-07
4.30257e-07
2.76781e-07
2.76687e-07
2.76669e-07
0.999991
0.999991
0.999992
0.999992
0.999992
0.999991
0.999991
0.999991
0.99999
0.99999
0.99999
0.99999
0.99999
0.99999
0.99999
0.99999
0.99999
0.99999
0.99999
0.99999
0.99999
0.99999
0.99999
0.99999
0.99999
0.99999
0.99999
0.99999
0.99999
0.99999
0.99999
0.99999
0.99999
0.99999
0.99999
0.99999
0.99999
0.99999
0.99999
0.99999
0.99999
0.99999
0.99999
0.99999
0.99999
0.99999
0.99999
0.99999
0.99999
0.99999
0.99999
0.999989
0.999984
0.999966
0.999946
0.999848
0.999812
0.999343
0.998989
0.956859
0.0517579
7.70678e-07
9.42532e-07
9.06842e-07
8.43301e-07
8.14036e-07
8.02597e-07
7.98285e-07
7.94681e-07
7.8917e-07
7.82112e-07
7.75736e-07
7.7564e-07
7.76282e-07
7.79398e-07
7.83181e-07
7.86327e-07
7.89312e-07
7.89708e-07
7.87232e-07
7.7736e-07
7.75034e-07
7.7492e-07
7.75034e-07
7.74957e-07
7.75034e-07
7.84447e-07
8.05703e-07
8.10904e-07
8.01753e-07
7.74589e-07
7.21543e-07
5.74641e-07
3.48863e-07
2.76669e-07
2.76578e-07
0.999991
0.999991
0.999991
0.999991
0.999992
0.999992
0.999992
0.999991
0.999991
0.99999
0.99999
0.99999
0.99999
0.99999
0.99999
0.99999
0.99999
0.99999
0.99999
0.99999
0.99999
0.99999
0.99999
0.99999
0.99999
0.99999
0.99999
0.99999
0.99999
0.99999
0.99999
0.99999
0.99999
0.99999
0.99999
0.99999
0.99999
0.99999
0.99999
0.99999
0.99999
0.99999
0.99999
0.99999
0.99999
0.99999
0.99999
0.99999
0.99999
0.99999
0.999989
0.999988
0.999983
0.999965
0.999932
0.999814
0.999865
0.999428
0.999558
0.956744
0.0467958
7.70678e-07
3.26492e-06
9.06465e-07
9.99163e-07
7.68008e-07
7.6736e-07
7.68007e-07
9.31531e-07
1.44576e-06
1.09323e-06
7.75698e-07
7.81397e-07
7.91737e-07
8.12382e-07
8.51489e-07
9.02114e-07
8.89801e-07
8.29136e-07
8.07914e-07
8.02229e-07
7.97568e-07
7.92926e-07
7.88454e-07
7.90384e-07
8.03174e-07
8.20987e-07
8.22757e-07
8.14239e-07
8.12617e-07
8.10066e-07
7.74738e-07
6.61493e-07
4.46587e-07
2.77416e-07
2.7657e-07
0.999991
0.999991
0.999991
0.999991
0.999991
0.999992
0.999992
0.999992
0.999991
0.999991
0.99999
0.99999
0.99999
0.99999
0.99999
0.99999
0.99999
0.99999
0.99999
0.99999
0.99999
0.99999
0.99999
0.99999
0.99999
0.99999
0.99999
0.99999
0.99999
0.99999
0.99999
0.99999
0.99999
0.99999
0.99999
0.99999
0.99999
0.99999
0.99999
0.99999
0.99999
0.99999
0.99999
0.99999
0.99999
0.99999
0.99999
0.99999
0.99999
0.99999
0.999988
0.999986
0.999985
0.999972
0.999912
0.999768
0.999706
0.999692
0.999854
0.892494
0.0109967
0.000179053
0.000135404
6.21422e-05
5.13209e-05
4.94718e-05
5.67013e-05
5.99616e-05
6.20727e-05
6.28441e-05
5.92691e-05
5.98981e-05
6.44496e-05
6.70945e-05
5.54052e-05
3.44123e-05
2.21773e-05
1.34124e-05
7.60187e-06
3.59409e-06
1.6326e-06
9.76627e-07
7.97445e-07
7.82847e-07
8.55537e-07
8.45309e-07
8.45426e-07
8.33447e-07
8.21657e-07
8.25544e-07
8.26528e-07
7.89585e-07
6.84119e-07
4.85324e-07
2.89128e-07
2.7657e-07
0.999991
0.999991
0.999991
0.999991
0.999991
0.999991
0.999992
0.999991
0.999991
0.999991
0.99999
0.99999
0.99999
0.99999
0.99999
0.99999
0.99999
0.99999
0.99999
0.99999
0.99999
0.99999
0.99999
0.99999
0.99999
0.99999
0.99999
0.99999
0.99999
0.99999
0.99999
0.99999
0.99999
0.99999
0.99999
0.99999
0.99999
0.99999
0.99999
0.99999
0.99999
0.99999
0.99999
0.99999
0.99999
0.99999
0.99999
0.99999
0.99999
0.999989
0.999988
0.999986
0.999985
0.999937
0.999825
0.999821
0.999825
0.999881
0.99999
0.765942
0.012901
0.0054126
0.00513503
0.00434798
0.00379846
0.00377272
0.00482845
0.00511566
0.00517659
0.00535219
0.00562389
0.00582161
0.00586839
0.00583801
0.00496108
0.00401899
0.00363379
0.00315758
0.00253766
0.00179965
0.0010682
0.000599251
0.000276194
9.2757e-05
2.28923e-05
2.91312e-06
6.67092e-07
9.14152e-07
9.85462e-07
1.103e-06
1.04656e-06
8.53769e-07
6.37689e-07
4.48422e-07
2.76686e-07
2.86426e-07
0.999992
0.999991
0.999991
0.999991
0.999991
0.999991
0.999991
0.999991
0.999992
0.999991
0.99999
0.99999
0.99999
0.99999
0.99999
0.99999
0.99999
0.99999
0.99999
0.99999
0.99999
0.99999
0.99999
0.99999
0.99999
0.99999
0.99999
0.99999
0.99999
0.99999
0.99999
0.99999
0.99999
0.99999
0.99999
0.99999
0.99999
0.99999
0.99999
0.99999
0.99999
0.99999
0.99999
0.99999
0.99999
0.99999
0.99999
0.99999
0.99999
0.999989
0.999988
0.999985
0.999982
0.999968
0.999918
0.999763
0.999709
0.999807
0.99999
0.573481
0.03555
0.0306178
0.034033
0.0347863
0.0350484
0.0351043
0.034927
0.0352377
0.0358067
0.0372147
0.0396833
0.0409893
0.041274
0.0408168
0.0381175
0.0370766
0.0375862
0.0384348
0.0386283
0.0366365
0.03259
0.028725
0.0245945
0.0197492
0.0147635
0.010792
0.00735655
0.00444317
0.00227822
0.000984415
0.000755701
0.00103066
0.00112826
0.000804689
0.000222859
9.65007e-06
0.999992
0.999992
0.999991
0.999991
0.999991
0.999991
0.999991
0.999991
0.999992
0.999991
0.99999
0.99999
0.99999
0.99999
0.99999
0.99999
0.99999
0.99999
0.99999
0.99999
0.99999
0.99999
0.99999
0.99999
0.99999
0.99999
0.99999
0.99999
0.99999
0.99999
0.99999
0.99999
0.99999
0.99999
0.99999
0.99999
0.99999
0.99999
0.99999
0.99999
0.99999
0.99999
0.99999
0.99999
0.99999
0.99999
0.99999
0.99999
0.99999
0.999989
0.999988
0.999985
0.99998
0.999968
0.999948
0.999786
0.999721
0.999762
0.99999
0.539234
0.0482561
0.0433779
0.048648
0.0514315
0.0525105
0.0526987
0.0525912
0.0525448
0.0524869
0.0535521
0.0574921
0.0598706
0.0609245
0.0616081
0.0620507
0.0633335
0.0673713
0.0733143
0.0803254
0.0878409
0.0951892
0.102509
0.109199
0.114726
0.118459
0.121735
0.126601
0.132867
0.140483
0.148916
0.157047
0.164725
0.174361
0.191541
0.236933
0.422194
0.999992
0.999992
0.999992
0.999991
0.999991
0.999991
0.999991
0.999991
0.999992
0.999991
0.999991
0.99999
0.99999
0.99999
0.99999
0.99999
0.99999
0.99999
0.99999
0.99999
0.99999
0.99999
0.99999
0.99999
0.99999
0.99999
0.99999
0.99999
0.99999
0.99999
0.99999
0.99999
0.99999
0.99999
0.99999
0.99999
0.99999
0.99999
0.99999
0.99999
0.99999
0.99999
0.99999
0.99999
0.99999
0.99999
0.99999
0.99999
0.99999
0.999989
0.999988
0.999985
0.99998
0.999967
0.999933
0.999832
0.999761
0.999806
0.99999
0.687161
0.0227282
0.0108549
0.00952589
0.00717919
0.00569139
0.00450209
0.0036944
0.00305252
0.0026093
0.00227686
0.00204724
0.00198346
0.00206489
0.00238868
0.00257685
0.0026674
0.00288194
0.00327121
0.00399164
0.00441649
0.00494195
0.00650477
0.00712949
0.00671338
0.00671965
0.00648353
0.00638039
0.00686885
0.00757116
0.00805801
0.0081968
0.00771991
0.00628501
0.00472013
0.00242118
0.000280551
0.999993
0.999993
0.999993
0.999992
0.999992
0.999991
0.999991
0.999991
0.999992
0.999992
0.999991
0.99999
0.99999
0.99999
0.99999
0.99999
0.99999
0.99999
0.99999
0.99999
0.99999
0.99999
0.99999
0.99999
0.99999
0.99999
0.99999
0.99999
0.99999
0.99999
0.99999
0.99999
0.99999
0.99999
0.99999
0.99999
0.99999
0.99999
0.99999
0.99999
0.99999
0.99999
0.99999
0.99999
0.99999
0.99999
0.99999
0.99999
0.99999
0.999989
0.999988
0.999985
0.99998
0.999971
0.999935
0.999837
0.999779
0.999773
0.999969
0.826276
0.00628003
0.000439075
0.000268025
0.000103294
5.80664e-05
3.20074e-05
2.19595e-05
1.77621e-05
1.63963e-05
1.75399e-05
1.91004e-05
1.87356e-05
1.78912e-05
1.71004e-05
1.66278e-05
1.65992e-05
1.77631e-05
1.93937e-05
2.32081e-05
2.85321e-05
3.50132e-05
4.01567e-05
4.13048e-05
3.79863e-05
3.25042e-05
2.60851e-05
2.1867e-05
1.95111e-05
1.75437e-05
1.57719e-05
1.41586e-05
1.10576e-05
7.02237e-06
3.77081e-06
1.28233e-06
2.76044e-07
0.999994
0.999992
0.999992
0.999993
0.999992
0.999991
0.999991
0.999992
0.999992
0.999992
0.999991
0.99999
0.99999
0.99999
0.99999
0.99999
0.99999
0.99999
0.99999
0.99999
0.99999
0.99999
0.99999
0.99999
0.99999
0.99999
0.99999
0.99999
0.99999
0.99999
0.99999
0.99999
0.99999
0.99999
0.99999
0.99999
0.99999
0.99999
0.99999
0.99999
0.99999
0.99999
0.99999
0.99999
0.99999
0.99999
0.99999
0.99999
0.99999
0.999989
0.999988
0.999985
0.999979
0.99997
0.999937
0.999892
0.99982
0.999538
0.999789
0.927037
0.0347364
4.51474e-07
6.35015e-06
9.38977e-07
1.01246e-06
7.17144e-07
7.62513e-07
7.01839e-07
7.13569e-07
7.11792e-07
7.1812e-07
7.24992e-07
7.12035e-07
6.94052e-07
6.78025e-07
6.72879e-07
6.67136e-07
6.54892e-07
6.38867e-07
6.17855e-07
6.02829e-07
5.94379e-07
6.10779e-07
6.3483e-07
6.97416e-07
7.38018e-07
7.68351e-07
7.69583e-07
6.70436e-07
5.2635e-07
4.16861e-07
3.63784e-07
3.56101e-07
3.5363e-07
3.26029e-07
2.75947e-07
0.999995
0.999993
0.999993
0.999993
0.999993
0.999992
0.999991
0.999991
0.999993
0.999993
0.999991
0.99999
0.99999
0.99999
0.99999
0.99999
0.99999
0.99999
0.99999
0.99999
0.99999
0.99999
0.99999
0.99999
0.99999
0.99999
0.99999
0.99999
0.99999
0.99999
0.99999
0.99999
0.99999
0.99999
0.99999
0.99999
0.99999
0.99999
0.99999
0.99999
0.99999
0.99999
0.99999
0.99999
0.99999
0.99999
0.99999
0.99999
0.99999
0.999989
0.999988
0.999985
0.999979
0.999964
0.99994
0.999882
0.999864
0.999423
0.999532
0.953164
0.0332708
4.51472e-07
7.87729e-07
4.3418e-07
6.15201e-07
7.47672e-07
7.68969e-07
7.84485e-07
7.84396e-07
7.78837e-07
7.67437e-07
7.5348e-07
7.43355e-07
7.42592e-07
7.45154e-07
7.47794e-07
7.42463e-07
7.22702e-07
6.8614e-07
6.39246e-07
5.72482e-07
5.07654e-07
4.87913e-07
4.94933e-07
5.43326e-07
6.31295e-07
6.96846e-07
7.04205e-07
6.33447e-07
4.83688e-07
3.69132e-07
3.05095e-07
2.87491e-07
2.79689e-07
2.75828e-07
2.7594e-07
0.999995
0.999994
0.999995
0.999994
0.999994
0.999993
0.999991
0.999991
0.999993
0.999994
0.999991
0.99999
0.99999
0.99999
0.99999
0.99999
0.99999
0.99999
0.99999
0.99999
0.99999
0.99999
0.99999
0.99999
0.99999
0.99999
0.99999
0.99999
0.99999
0.99999
0.99999
0.99999
0.99999
0.99999
0.99999
0.99999
0.99999
0.99999
0.99999
0.99999
0.99999
0.99999
0.99999
0.99999
0.99999
0.99999
0.99999
0.99999
0.99999
0.999989
0.999988
0.999984
0.999977
0.99996
0.999958
0.99991
0.999816
0.999321
0.998982
0.95736
0.0430266
4.51472e-07
6.75212e-07
5.37304e-07
4.77272e-07
5.66267e-07
6.42637e-07
6.97029e-07
7.02474e-07
6.93293e-07
6.7595e-07
6.56591e-07
6.38743e-07
6.23181e-07
6.08584e-07
5.96764e-07
5.85416e-07
5.70185e-07
5.47685e-07
5.16175e-07
4.82208e-07
4.52653e-07
4.47184e-07
4.55135e-07
4.92137e-07
5.86625e-07
6.84779e-07
6.93994e-07
6.3535e-07
4.69398e-07
3.50925e-07
2.92828e-07
2.76272e-07
2.75724e-07
2.75852e-07
2.75828e-07
0.999996
0.999996
0.999996
0.999996
0.999995
0.999994
0.999992
0.999992
0.999993
0.999994
0.999991
0.99999
0.99999
0.99999
0.99999
0.99999
0.99999
0.99999
0.99999
0.99999
0.99999
0.99999
0.99999
0.99999
0.99999
0.99999
0.99999
0.99999
0.99999
0.99999
0.99999
0.99999
0.99999
0.99999
0.99999
0.99999
0.99999
0.99999
0.99999
0.99999
0.99999
0.99999
0.99999
0.99999
0.99999
0.99999
0.99999
0.99999
0.99999
0.99999
0.999988
0.999984
0.999973
0.999958
0.99995
0.999936
0.99976
0.999193
0.998671
0.954161
0.0516965
4.51473e-07
5.88069e-07
5.88243e-07
5.70945e-07
5.51226e-07
5.48011e-07
5.43713e-07
5.37392e-07
5.29226e-07
5.19816e-07
5.08404e-07
4.95956e-07
4.83823e-07
4.71493e-07
4.58998e-07
4.47225e-07
4.35618e-07
4.24032e-07
4.12564e-07
4.01417e-07
3.9685e-07
4.00923e-07
4.15202e-07
4.54286e-07
5.47898e-07
6.70323e-07
6.87271e-07
6.23113e-07
4.48111e-07
3.29065e-07
2.85828e-07
2.75644e-07
2.75741e-07
2.75723e-07
2.75827e-07
0.999997
0.999997
0.999997
0.999996
0.999996
0.999995
0.999994
0.999994
0.999995
0.999994
0.999991
0.99999
0.99999
0.99999
0.99999
0.99999
0.99999
0.99999
0.99999
0.99999
0.99999
0.99999
0.99999
0.99999
0.99999
0.99999
0.99999
0.99999
0.99999
0.99999
0.99999
0.99999
0.99999
0.99999
0.99999
0.99999
0.99999
0.99999
0.99999
0.99999
0.99999
0.99999
0.99999
0.99999
0.99999
0.99999
0.99999
0.99999
0.99999
0.99999
0.999988
0.999982
0.99997
0.999957
0.999948
0.999927
0.999688
0.999023
0.997716
0.948749
0.0674067
0.000215044
4.25812e-07
4.25812e-07
4.02978e-07
3.78729e-07
3.70463e-07
3.67515e-07
3.63508e-07
3.59123e-07
3.58073e-07
3.5839e-07
3.60123e-07
3.63527e-07
3.66839e-07
3.67377e-07
3.67003e-07
3.65491e-07
3.64381e-07
3.64797e-07
3.66884e-07
3.72585e-07
3.83727e-07
4.03749e-07
4.44132e-07
5.3919e-07
6.70036e-07
6.86275e-07
5.77916e-07
4.06535e-07
3.17762e-07
2.81289e-07
2.75628e-07
2.75628e-07
2.75746e-07
2.75729e-07
0.999997
0.999997
0.999997
0.999997
0.999997
0.999997
0.999996
0.999996
0.999995
0.999992
0.99999
0.99999
0.99999
0.99999
0.99999
0.99999
0.99999
0.99999
0.99999
0.99999
0.99999
0.99999
0.99999
0.99999
0.99999
0.99999
0.99999
0.99999
0.99999
0.99999
0.99999
0.99999
0.99999
0.99999
0.99999
0.99999
0.99999
0.99999
0.99999
0.99999
0.99999
0.99999
0.99999
0.99999
0.99999
0.99999
0.99999
0.99999
0.99999
0.99999
0.999989
0.999982
0.999969
0.999957
0.999953
0.999909
0.999758
0.998927
0.996337
0.943555
0.075989
0.000758162
1.55332e-06
3.14848e-07
3.15151e-07
3.15155e-07
3.1516e-07
3.15203e-07
3.15619e-07
3.1642e-07
3.1732e-07
3.18304e-07
3.19841e-07
3.22743e-07
3.28069e-07
3.35726e-07
3.43304e-07
3.48214e-07
3.51129e-07
3.54171e-07
3.58378e-07
3.65393e-07
3.77074e-07
3.98366e-07