/*--------------------------------*- C++ -*----------------------------------*\
| =========                 |                                                 |
| \\      /  F ield         | OpenFOAM: The Open Source CFD Toolbox           |
|  \\    /   O peration     | Version:  2.3.0                                 |
|   \\  /    A nd           | Web:      www.OpenFOAM.org                      |
|    \\/     M anipulation  |                                                 |
\*---------------------------------------------------------------------------*/
FoamFile
{
    version     2.0;
    format      ascii;
    class       surfaceScalarField;
    location    "9";
    object      phi;
}
// * * * * * * * * * * * * * * * * * * * * * * * * * * * * * * * * * * * * * //

dimensions      [0 3 -1 0 0 0 0];

internalField   nonuniform List<scalar> 
16448
(
-1.72156e-06
-1.91098e-06
4.6408e-07
-2.23336e-07
-2.01128e-06
5.13057e-07
4.47001e-08
-9.80771e-07
7.12735e-07
2.62245e-07
-9.90443e-07
7.72898e-07
2.12052e-07
-7.23615e-07
7.73809e-07
1.77936e-07
-7.4475e-07
7.78864e-07
9.23517e-08
-7.16426e-07
8.0201e-07
1.52516e-08
-7.33636e-07
8.10736e-07
-4.64795e-08
-7.63884e-07
8.25616e-07
-8.03886e-08
-8.00492e-07
8.34403e-07
-1.00466e-07
-8.34566e-07
8.54645e-07
-8.84099e-08
-8.76506e-07
8.64453e-07
-7.74205e-08
-8.98908e-07
8.87921e-07
-5.17843e-08
-9.2654e-07
9.00906e-07
-3.53381e-08
-9.38718e-07
9.22274e-07
-1.52218e-08
-9.54031e-07
9.33917e-07
-3.67122e-09
-9.61901e-07
9.50356e-07
6.66522e-09
-9.69875e-07
9.59544e-07
1.21278e-08
-9.7606e-07
9.70604e-07
1.62007e-08
-9.81571e-07
9.77504e-07
1.76654e-08
-9.8628e-07
9.84823e-07
1.8655e-08
-9.90751e-07
9.89769e-07
1.87725e-08
-9.94701e-07
9.94591e-07
1.89118e-08
-9.98423e-07
9.98292e-07
1.9154e-08
-1.00189e-06
1.00165e-06
1.98327e-08
-1.00511e-06
1.00444e-06
2.11826e-08
-1.0084e-06
1.00706e-06
2.32873e-08
-1.0113e-06
1.00921e-06
2.70705e-08
-1.01504e-06
1.01126e-06
3.17411e-08
-1.01763e-06
1.01297e-06
3.90727e-08
-1.02192e-06
1.0146e-06
4.77558e-08
-1.02462e-06
1.01594e-06
6.06452e-08
-1.02967e-06
1.01679e-06
7.57477e-08
-1.03312e-06
1.01802e-06
9.74689e-08
-1.03934e-06
1.01763e-06
1.22095e-07
-1.04309e-06
1.01848e-06
1.55134e-07
-1.04975e-06
1.01672e-06
1.90202e-07
-1.05203e-06
1.01697e-06
2.31048e-07
-1.05494e-06
1.01411e-06
2.62444e-07
-1.04799e-06
1.01661e-06
2.77478e-07
-1.03394e-06
1.01891e-06
2.42329e-07
-9.98272e-07
1.03343e-06
1.29843e-07
-9.4172e-07
1.05422e-06
-1.11705e-07
-8.49793e-07
1.09135e-06
-5.09275e-07
-7.44e-07
1.14158e-06
-1.10402e-06
-6.29644e-07
1.2244e-06
-1.95311e-06
-5.30299e-07
1.3794e-06
-3.5324e-06
-1.77739e-09
1.58109e-06
-5.96539e-06
7.16671e-07
1.71634e-06
-8.22419e-06
8.25456e-07
1.43337e-06
-9.42441e-06
2.42087e-07
9.58155e-07
-7.27042e-06
-2.61223e-06
4.58276e-07
-1.20802e-06
-6.87894e-06
8.16552e-07
2.83729e-06
-5.05999e-06
1.01469e-06
5.1701e-06
-4.60205e-06
2.26923e-06
7.39202e-06
-4.15082e-06
1.92889e-06
5.89484e-06
-3.96091e-06
5.45806e-06
1.01108e-05
-5.36924e-06
1.15323e-06
-9.63086e-06
7.37893e-06
1.23624e-05
2.27618e-07
-5.06492e-06
-4.79369e-06
2.40036e-05
-2.21696e-05
-1.60641e-06
3.04526e-05
-1.1748e-05
5.29897e-06
2.68728e-05
-2.70788e-06
6.28774e-06
2.76982e-05
-5.79685e-06
4.97145e-06
2.70503e-05
-4.28715e-06
4.93499e-06
2.62092e-05
-3.63589e-06
4.47699e-06
2.51482e-05
-3.16983e-06
4.23081e-06
2.40854e-05
-3.75722e-06
4.82005e-06
2.26775e-05
-3.39608e-06
4.80403e-06
2.06746e-05
-2.21757e-06
4.2204e-06
1.85282e-05
-1.90952e-06
4.05596e-06
1.63639e-05
-1.48434e-06
3.64861e-06
1.45171e-05
-1.18647e-06
3.0333e-06
1.282e-05
-5.29749e-07
2.22684e-06
1.09906e-05
3.11795e-07
1.51765e-06
7.48659e-06
1.928e-06
1.57595e-06
3.12017e-06
2.58702e-06
1.77941e-06
-1.94191e-07
1.36584e-06
1.94852e-06
-3.00428e-06
1.59791e-06
1.21218e-06
-3.59368e-06
-8.02879e-07
1.39228e-06
-1.43966e-06
-4.79341e-06
2.63939e-06
1.31613e-06
-6.65388e-06
3.89809e-06
4.87457e-06
-7.70308e-06
4.14464e-06
8.34266e-06
-7.85376e-06
4.38567e-06
1.0659e-05
-6.35274e-06
4.03641e-06
1.15392e-05
-4.43213e-06
3.55193e-06
1.12936e-05
-2.99521e-06
3.24082e-06
9.73689e-06
-1.01785e-06
2.57454e-06
6.52823e-06
3.10047e-07
2.89861e-06
2.98891e-06
-7.74335e-10
3.54009e-06
-1.34368e-06
-4.7246e-07
4.80505e-06
-6.8133e-06
-4.78726e-07
5.94834e-06
-1.08728e-05
7.6439e-07
3.29514e-06
-1.13805e-05
2.2955e-06
-1.78787e-06
-8.3492e-06
4.24932e-06
-7.28058e-06
4.60035e-06
-1.29495e-05
-2.4644e-06
-2.67423e-06
-2.65433e-07
-1.10217e-06
-3.06042e-06
-3.13082e-07
-6.33917e-07
-1.50829e-06
5.92687e-08
-2.23938e-07
-1.6243e-06
2.23878e-07
-1.45002e-07
-1.02145e-06
2.189e-07
-1.20827e-07
-1.02687e-06
2.57944e-07
-1.66612e-07
-9.21151e-07
2.50509e-07
-2.15726e-07
-9.39784e-07
2.55262e-07
-2.67951e-07
-9.60683e-07
2.49026e-07
-2.81748e-07
-1.03117e-06
2.44475e-07
-2.84254e-07
-1.08561e-06
2.53556e-07
-2.4983e-07
-1.16589e-06
2.54966e-07
-2.1915e-07
-1.20244e-06
2.72859e-07
-1.7424e-07
-1.25358e-06
2.82135e-07
-1.44011e-07
-1.27096e-06
3.02019e-07
-1.10496e-07
-1.29973e-06
3.12186e-07
-9.15301e-08
-1.30918e-06
3.28321e-07
-7.20825e-08
-1.32591e-06
3.36599e-07
-6.26563e-08
-1.33324e-06
3.47763e-07
-5.35085e-08
-1.34441e-06
3.53706e-07
-4.9623e-08
-1.351e-06
3.60845e-07
-4.59258e-08
-1.35944e-06
3.64999e-07
-4.42987e-08
-1.36567e-06
3.69355e-07
-4.27646e-08
-1.37229e-06
3.72349e-07
-4.1606e-08
-1.37809e-06
3.75056e-07
-4.00639e-08
-1.38377e-06
3.77137e-07
-3.8116e-08
-1.38927e-06
3.78944e-07
-3.5207e-08
-1.39453e-06
3.80329e-07
-3.11534e-08
-1.40061e-06
3.81537e-07
-2.58042e-08
-1.40557e-06
3.82605e-07
-1.75861e-08
-1.41323e-06
3.83106e-07
-8.33602e-09
-1.41765e-06
3.83803e-07
7.28159e-09
-1.42836e-06
3.83097e-07
2.35017e-08
-1.43297e-06
3.83654e-07
4.97613e-08
-1.44683e-06
3.81248e-07
7.84625e-08
-1.45246e-06
3.80683e-07
1.20146e-07
-1.46786e-06
3.76439e-07
1.64914e-07
-1.47173e-06
3.74947e-07
2.21737e-07
-1.48118e-06
3.69424e-07
2.7264e-07
-1.46969e-06
3.70809e-07
3.1204e-07
-1.44634e-06
3.73012e-07
2.96567e-07
-1.3778e-06
3.95014e-07
1.80055e-07
-1.25934e-06
4.34151e-07
-1.31381e-07
-1.05659e-06
5.18249e-07
-7.43552e-07
-7.61275e-07
6.29461e-07
-1.83618e-06
-3.61241e-07
8.24241e-07
-3.68218e-06
1.31427e-07
1.18429e-06
-5.8721e-06
7.14126e-07
1.47404e-06
-7.30229e-06
7.55043e-07
1.39185e-06
-6.25317e-06
-1.14929e-06
9.25642e-07
-2.93395e-06
-2.91048e-06
-1.66622e-07
3.51699e-06
-7.57396e-06
-1.4892e-06
9.11189e-06
-1.07722e-05
-1.70162e-06
1.33622e-05
-8.00256e-06
-1.30776e-06
1.48415e-05
-6.47538e-06
3.93995e-07
1.83716e-05
-8.55154e-06
8.70669e-07
1.72068e-05
-5.20001e-06
2.40383e-06
2.01347e-05
-8.59072e-06
2.93453e-07
-3.80172e-06
1.22284e-05
1.90866e-05
6.88573e-08
-7.4037e-06
-1.53202e-06
1.03802e-05
-2.68261e-05
-5.65477e-06
7.64355e-06
-1.47044e-05
5.69301e-06
8.16648e-06
-6.65187e-06
3.42106e-06
6.89657e-06
-8.09312e-06
3.56617e-06
7.94741e-06
-5.5385e-06
2.00519e-07
8.03227e-06
-2.78113e-06
-9.39619e-07
4.57255e-06
-3.75487e-07
6.65376e-07
-2.66462e-06
-3.75747e-08
3.51753e-06
-1.0065e-05
-6.40463e-07
4.64477e-06
-1.42644e-05
-1.7494e-06
3.73124e-06
-1.65095e-05
-2.46954e-06
2.80506e-06
-1.76998e-05
-2.34703e-06
2.05308e-06
-1.75147e-05
-2.50497e-06
1.13338e-06
-1.61544e-05
-2.40334e-06
5.13242e-07
-1.45261e-05
-2.15242e-06
8.35918e-07
-1.32068e-05
-1.74437e-06
2.35314e-06
-1.18701e-05
-2.2682e-06
3.51849e-06
-1.01519e-05
-3.53639e-06
3.18407e-06
-7.51459e-06
-3.71662e-06
2.67718e-06
-4.90543e-06
-5.1697e-06
1.75766e-06
-3.18408e-06
-8.15641e-06
1.64165e-06
-1.12858e-06
-1.07587e-05
2.04936e-06
1.6978e-06
-1.2467e-05
1.93756e-06
3.935e-06
-1.24e-05
2.30907e-06
6.09805e-06
-9.30682e-06
7.9103e-07
8.19998e-06
-5.33469e-06
-1.19937e-06
1.01801e-05
-3.54101e-06
-1.43431e-06
1.24938e-05
-7.35235e-07
-2.59631e-06
1.38859e-05
3.17465e-06
-4.25669e-06
1.17772e-05
5.41216e-06
-3.30427e-06
5.74011e-06
5.30353e-06
2.61099e-07
-2.75143e-06
3.68258e-06
4.33024e-06
-8.51578e-06
3.6045e-06
2.92424e-06
-1.00619e-05
4.93418e-06
-1.09253e-06
-7.37897e-06
8.25664e-06
-6.69028e-06
1.02376e-05
-1.30162e-05
-2.76102e-06
-2.6885e-06
-4.13765e-07
-1.62516e-06
-3.53283e-06
-6.63459e-07
-1.28186e-06
-1.56539e-06
-2.86196e-07
-7.78183e-07
-1.93516e-06
-1.92815e-07
-5.20269e-07
-1.10373e-06
-1.75637e-07
-3.60755e-07
-1.13245e-06
-5.39331e-08
-3.27665e-07
-8.97372e-07
-5.68715e-08
-3.29396e-07
-9.09839e-07
-2.82144e-08
-3.57304e-07
-8.80609e-07
-5.21649e-08
-3.63901e-07
-9.46607e-07
-7.79611e-08
-3.56748e-07
-9.99169e-07
-9.35909e-08
-3.13598e-07
-1.10072e-06
-1.08316e-07
-2.68775e-07
-1.14375e-06
-1.03512e-07
-2.1584e-07
-1.20711e-06
-9.94028e-08
-1.76645e-07
-1.22469e-06
-8.54577e-08
-1.39184e-07
-1.25969e-06
-7.74859e-08
-1.15941e-07
-1.26733e-06
-6.50869e-08
-9.50106e-08
-1.28773e-06
-5.91066e-08
-8.37962e-08
-1.29354e-06
-5.08986e-08
-7.39039e-08
-1.30681e-06
-4.74813e-08
-6.93751e-08
-1.3127e-06
-4.28136e-08
-6.53548e-08
-1.3223e-06
-4.1145e-08
-6.36099e-08
-1.32847e-06
-3.8929e-08
-6.20705e-08
-1.33564e-06
-3.81782e-08
-6.09954e-08
-1.34159e-06
-3.75525e-08
-5.96389e-08
-1.34759e-06
-3.75213e-08
-5.78758e-08
-1.35335e-06
-3.76721e-08
-5.52594e-08
-1.35896e-06
-3.81694e-08
-5.16434e-08
-1.36533e-06
-3.88801e-08
-4.64242e-08
-1.37118e-06
-3.95875e-08
-3.92566e-08
-1.37991e-06
-4.04639e-08
-2.98712e-08
-1.38541e-06
-4.16136e-08
-1.56706e-08
-1.3987e-06
-4.38474e-08
6.06823e-10
-1.40399e-06
-4.5245e-08
2.7097e-08
-1.42364e-06
-4.96599e-08
5.78487e-08
-1.43061e-06
-5.25848e-08
1.02752e-07
-1.45387e-06
-5.88807e-08
1.56629e-07
-1.4607e-06
-6.48897e-08
2.26697e-07
-1.47926e-06
-7.19724e-08
3.02662e-07
-1.47014e-06
-7.54999e-08
3.78039e-07
-1.45148e-06
-7.02166e-08
4.20699e-07
-1.37355e-06
-4.68935e-08
3.93596e-07
-1.23523e-06
3.00534e-09
2.17713e-07
-9.51485e-07
7.07901e-08
-1.68715e-07
-5.47855e-07
1.73021e-07
-7.91928e-07
-4.57951e-08
3.07783e-07
-1.81049e-06
5.87914e-07
5.62087e-07
-2.76303e-06
8.26723e-07
8.39966e-07
-2.18064e-06
-8.41636e-07
1.0143e-06
9.71939e-07
-4.40214e-06
1.00298e-07
6.32596e-06
-7.8825e-06
-3.81993e-07
1.21464e-05
-1.18409e-05
-1.55346e-06
1.35565e-05
-1.11696e-05
-1.0128e-06
1.52277e-05
-9.7127e-06
3.89076e-08
1.66441e-05
-8.91067e-06
1.01893e-06
2.05542e-05
-1.27025e-05
2.40828e-07
2.10179e-05
-4.91042e-06
-7.53205e-07
2.26657e-05
-1.1604e-05
1.36534e-06
-3.3017e-06
1.44723e-05
2.37227e-05
7.71601e-08
-7.85815e-06
-2.9246e-06
5.57565e-06
-2.39824e-05
-8.34209e-06
2.64073e-06
-1.29386e-05
1.16916e-06
8.69455e-06
-9.81242e-06
-2.89328e-06
6.12616e-06
-7.76725e-06
2.24253e-06
7.80905e-06
-3.44077e-06
-3.78062e-06
8.09466e-06
4.06987e-07
-3.47373e-06
4.09505e-06
3.76e-06
-1.35871e-07
-3.38876e-06
3.28156e-06
4.16467e-06
-9.50698e-06
-3.6188e-07
5.83964e-06
-1.3272e-05
-2.45007e-06
4.46572e-06
-1.63748e-05
-3.12407e-06
3.75735e-06
-1.81428e-05
-3.00831e-06
2.42922e-06
-1.89474e-05
-2.9803e-06
1.27998e-06
-1.89772e-05
-2.99351e-06
6.19949e-07
-1.87678e-05
-3.15744e-06
7.9563e-07
-1.77428e-05
-3.65382e-06
8.84437e-07
-1.57247e-05
-4.55849e-06
2.72184e-07
-1.3226e-05
-5.33819e-06
-6.96887e-07
-9.97984e-06
-5.74447e-06
-1.21831e-06
-7.21526e-06
-6.75688e-06
-1.17741e-06
-5.54701e-06
-9.12264e-06
-7.02011e-07
-3.4374e-06
-1.20193e-05
-8.49015e-07
-1.28722e-06
-1.39467e-05
-6.70469e-07
1.10697e-06
-1.40157e-05
-7.78534e-07
4.14382e-06
-9.86979e-06
-2.47389e-06
6.93969e-06
-3.23616e-06
-4.8944e-06
9.69706e-06
-5.00618e-08
-6.24832e-06
1.21631e-05
3.77501e-06
-6.9763e-06
1.37831e-05
8.54766e-06
-6.99302e-06
1.28917e-05
1.10296e-05
-4.72603e-06
6.75308e-06
1.13251e-05
1.17014e-07
-1.91968e-06
8.28685e-06
4.06849e-06
-7.65716e-06
6.96426e-06
2.37771e-06
-8.67786e-06
6.82601e-06
-8.71134e-07
-6.08939e-06
1.16915e-05
-6.02335e-06
1.58243e-05
-1.16761e-05
-2.65538e-06
-2.35313e-06
-2.98762e-07
-1.60846e-06
-3.84047e-06
-7.39269e-07
-1.55439e-06
-1.34676e-06
-2.72708e-07
-1.09916e-06
-2.22431e-06
-1.66085e-07
-8.72527e-07
-1.14048e-06
-1.89896e-07
-6.55035e-07
-1.30769e-06
-4.22606e-08
-5.56893e-07
-8.86228e-07
-1.09291e-07
-5.08103e-07
-8.78145e-07
-8.04845e-08
-5.1505e-07
-7.38255e-07
-1.35406e-07
-5.1636e-07
-7.64175e-07
-1.81118e-07
-5.00618e-07
-7.79091e-07
-2.35816e-07
-4.48642e-07
-8.76146e-07
-2.7655e-07
-3.83831e-07
-9.13417e-07
-2.9514e-07
-3.18832e-07
-9.69886e-07
-3.02218e-07
-2.64525e-07
-9.78769e-07
-3.00225e-07
-2.20261e-07
-1.00721e-06
-2.96742e-07
-1.89092e-07
-1.00797e-06
-2.90522e-07
-1.64881e-07
-1.02507e-06
-2.86856e-07
-1.49651e-07
-1.02642e-06
-2.82346e-07
-1.381e-07
-1.03768e-06
-2.80671e-07
-1.3145e-07
-1.04085e-06
-2.7849e-07
-1.26444e-07
-1.04909e-06
-2.78196e-07
-1.23777e-07
-1.05357e-06
-2.77557e-07
-1.21808e-07
-1.05965e-06
-2.7795e-07
-1.20424e-07
-1.0645e-06
-2.78462e-07
-1.19093e-07
-1.06956e-06
-2.79344e-07
-1.17579e-07
-1.07463e-06
-2.80222e-07
-1.15379e-07
-1.07992e-06
-2.81219e-07
-1.12319e-07
-1.08607e-06
-2.82309e-07
-1.07754e-07
-1.09224e-06
-2.83498e-07
-1.01984e-07
-1.10123e-06
-2.84438e-07
-9.31638e-08
-1.10818e-06
-2.86035e-07
-8.13545e-08
-1.12241e-06
-2.88079e-07
-6.4551e-08
-1.13037e-06
-2.90408e-07
-4.07719e-08
-1.15333e-06
-2.94071e-07
-9.31425e-09
-1.16429e-06
-2.97759e-07
3.85719e-08
-1.19766e-06
-3.04071e-07
9.9719e-08
-1.21174e-06
-3.10085e-07
1.81662e-07
-1.24699e-06
-3.14187e-07
2.81248e-07
-1.25364e-06
-3.16063e-07
3.91151e-07
-1.26113e-06
-3.00235e-07
4.97768e-07
-1.20914e-06
-2.7102e-07
5.81432e-07
-1.10742e-06
-2.11461e-07
6.13255e-07
-8.50447e-07
-1.32851e-07
5.46183e-07
-4.33453e-07
-4.73122e-08
4.1273e-07
6.41068e-08
2.35608e-08
2.64246e-07
5.92902e-07
1.43515e-07
5.42381e-07
3.20109e-07
2.28489e-07
2.56691e-06
-2.66031e-06
-2.05842e-07
6.13328e-06
-7.05354e-06
-9.14967e-07
1.09207e-05
-1.09599e-05
-1.71e-06
1.39519e-05
-1.06922e-05
-4.17987e-06
1.33925e-05
-8.58562e-06
-2.02454e-06
1.2968e-05
-9.47503e-06
1.86766e-07
1.45483e-05
-8.98551e-06
-1.50546e-06
1.30181e-05
-1.10047e-05
-1.67565e-07
1.54771e-05
-2.82876e-06
-4.54048e-06
1.13802e-05
-1.0126e-05
2.61876e-06
-2.15885e-06
2.91311e-07
2.7719e-05
9.87936e-07
-5.71649e-06
-5.28857e-06
7.00173e-06
-2.11957e-05
-8.80039e-06
4.26276e-06
-1.23576e-05
2.15793e-06
5.51748e-06
-8.9301e-06
-2.13703e-06
3.4106e-06
-8.22336e-06
2.563e-06
5.12009e-06
-5.01375e-06
-1.36504e-07
-1.81017e-06
1.23427e-06
6.10297e-06
-8.30824e-06
2.5637e-06
7.69438e-06
-1.10984e-05
-1.73313e-06
7.80489e-06
-1.28008e-05
-3.90184e-06
5.24229e-06
-1.65082e-05
-2.16762e-06
3.425e-06
-2.02919e-05
-1.83581e-06
2.49542e-06
-2.21464e-05
-2.40804e-06
1.25423e-06
-2.3293e-05
-2.46409e-06
6.30467e-07
-2.3974e-05
-2.67853e-06
3.66013e-07
-2.36553e-05
-3.27441e-06
-2.0178e-07
-2.21871e-05
-4.00974e-06
-1.11227e-06
-2.00318e-05
-4.61823e-06
-2.09554e-06
-1.69146e-05
-5.60127e-06
-2.85405e-06
-1.30094e-05
-6.57942e-06
-3.07029e-06
-9.93944e-06
-7.79621e-06
-2.03062e-06
-8.26489e-06
-1.03453e-05
-4.51893e-07
-7.32113e-06
-1.35992e-05
6.36167e-07
-6.1432e-06
-1.60387e-05
9.13997e-07
-4.39961e-06
-1.61451e-05
3.85781e-07
-4.30146e-07
-1.15744e-05
-2.26483e-06
3.94706e-06
-2.71958e-06
-4.89379e-06
7.66793e-06
2.04509e-06
-5.81602e-06
1.08773e-05
5.81963e-06
-5.25395e-06
1.29849e-05
1.00496e-05
-3.60952e-06
1.02695e-05
1.2997e-05
7.48001e-07
2.58004e-06
1.29493e-05
6.06529e-06
-4.57216e-06
9.97777e-06
5.46128e-06
-8.67614e-06
8.49743e-06
2.57082e-06
-8.25195e-06
8.00861e-06
-1.60679e-06
-5.40123e-06
1.48215e-05
-5.98072e-06
2.08396e-05
-1.04165e-05
-2.45363e-06
-2.04732e-06
1.53025e-07
-1.36008e-06
-4.0808e-06
-8.53217e-07
-1.50485e-06
-1.22207e-06
2.00753e-08
-1.09075e-06
-2.63961e-06
1.19743e-09
-8.57647e-07
-1.4065e-06
3.29046e-08
-6.25328e-07
-1.70451e-06
1.64491e-07
-5.03377e-07
-1.05324e-06
4.50569e-08
-4.46961e-07
-9.94314e-07
5.97513e-08
-4.79897e-07
-6.6744e-07
-3.78737e-08
-5.27529e-07
-6.08434e-07
-1.08107e-07
-5.47248e-07
-5.41286e-07
-2.1808e-07
-5.12042e-07
-6.11876e-07
-2.99471e-07
-4.5282e-07
-6.14816e-07
-3.57816e-07
-3.91423e-07
-6.40534e-07
-3.90745e-07
-3.32726e-07
-6.28182e-07
-4.09274e-07
-2.88599e-07
-6.34691e-07
-4.16636e-07
-2.53009e-07
-6.23319e-07
-4.20227e-07
-2.28624e-07
-6.28727e-07
-4.2072e-07
-2.10398e-07
-6.23664e-07
-4.20968e-07
-1.98583e-07
-6.28898e-07
-4.20589e-07
-1.89988e-07
-6.28963e-07
-4.20469e-07
-1.84573e-07
-6.34194e-07
-4.20302e-07
-1.80821e-07
-6.37086e-07
-4.20222e-07
-1.78162e-07
-6.41864e-07
-4.20426e-07
-1.76331e-07
-6.46118e-07
-4.20199e-07
-1.75093e-07
-6.50931e-07
-4.19854e-07
-1.73931e-07
-6.56099e-07
-4.19673e-07
-1.72279e-07
-6.61986e-07
-4.19573e-07
-1.70036e-07
-6.68802e-07
-4.19492e-07
-1.66327e-07
-6.76568e-07
-4.19358e-07
-1.61542e-07
-6.87183e-07
-4.18813e-07
-1.53177e-07
-6.97728e-07
-4.18796e-07
-1.4326e-07
-7.14476e-07
-4.17836e-07
-1.27214e-07
-7.28831e-07
-4.17563e-07
-1.06537e-07
-7.56886e-07
-4.17105e-07
-7.48024e-08
-7.78607e-07
-4.17397e-07
-3.16763e-08
-8.23343e-07
-4.17429e-07
2.4297e-08
-8.52342e-07
-4.15355e-07
9.48164e-08
-9.09506e-07
-4.07992e-07
1.77138e-07
-9.42461e-07
-3.93485e-07
2.64842e-07
-9.88297e-07
-3.60529e-07
3.74937e-07
-9.95625e-07
-3.23588e-07
5.4363e-07
-9.99604e-07
-2.765e-07
7.94624e-07
-8.75741e-07
-2.25683e-07
1.10176e-06
-5.60749e-07
-1.79835e-07
1.46151e-06
-1.26344e-07
-1.69279e-07
1.91817e-06
2.23963e-07
-8.77161e-08
3.06779e-06
-7.60828e-07
-6.86646e-08
5.03708e-06
-3.71729e-06
-9.12304e-07
7.65707e-06
-7.93181e-06
-1.7417e-06
1.11779e-05
-1.0137e-05
-4.34378e-06
1.22688e-05
-7.50875e-06
-4.27432e-06
1.17793e-05
-6.64137e-06
-1.45481e-06
1.06164e-05
-8.73031e-06
4.18248e-07
1.13902e-05
-7.82007e-06
-1.93927e-06
1.31513e-06
-1.55789e-06
6.28247e-07
7.76822e-06
-4.45951e-07
-8.83565e-06
4.5523e-06
-5.5963e-06
-1.3139e-06
-3.53025e-06
-1.47764e-05
2.31491e-05
1.22125e-06
-5.35832e-06
-5.10975e-06
5.63788e-06
-1.64341e-05
-9.178e-06
4.37881e-06
-1.44333e-05
3.33499e-06
6.97278e-06
-1.09459e-05
-5.77981e-07
-3.50909e-07
-5.92316e-06
5.02363e-06
-2.54653e-06
-5.60766e-06
2.78965e-06
-6.51374e-06
8.22185e-07
4.37942e-06
-1.05076e-05
8.44803e-07
5.71291e-06
-1.61922e-05
-1.78029e-06
5.7318e-06
-2.24351e-05
-1.25127e-06
3.59246e-06
-2.72137e-05
4.72319e-08
2.56384e-06
-3.02346e-05
-1.94488e-07
1.37972e-06
-3.18988e-05
-1.15818e-06
4.14343e-07
-3.22762e-05
-1.67598e-06
-4.10554e-07
-3.18995e-05
-2.0201e-06
-1.03509e-06
-3.07324e-05
-2.77251e-06
-1.66894e-06
-2.87305e-05
-3.70048e-06
-2.31113e-06
-2.59087e-05
-4.72391e-06
-2.71605e-06
-2.24771e-05
-6.8124e-06
-2.22041e-06
-1.88106e-05
-8.62144e-06
-1.62448e-06
-1.55652e-05
-9.81702e-06
-1.22454e-06
-1.29324e-05
-1.19116e-05
-1.06657e-06
-1.16549e-05
-1.39325e-05
-9.44239e-07
-1.13569e-05
-1.61763e-05
-1.60389e-07
-9.8269e-06
-1.67529e-05
-9.22121e-07
-6.0059e-06
-1.32371e-05
-2.15835e-06
-3.92471e-07
-4.77062e-06
-3.56239e-06
4.11711e-06
1.3162e-06
-3.78069e-06
6.23429e-06
4.22323e-06
-5.20777e-07
5.2897e-06
7.81872e-06
3.17545e-06
6.46305e-07
1.15345e-05
6.10582e-06
-4.08824e-06
1.15718e-05
6.11205e-06
-7.51512e-06
9.77634e-06
3.62831e-06
-9.18376e-06
8.99698e-06
1.16909e-06
-7.93982e-06
9.45246e-06
-2.68779e-06
-5.05344e-06
1.82342e-05
-6.29905e-06
2.5391e-05
-9.60493e-06
-2.51824e-06
-1.62766e-06
6.47209e-07
-1.41895e-06
-4.1009e-06
-1.07918e-06
-1.69748e-06
-1.40034e-06
4.56793e-07
-1.21643e-06
-3.16855e-06
4.78906e-08
-8.84873e-07
-2.11365e-06
3.75579e-07
-5.28811e-07
-2.41609e-06
3.5552e-07
-2.01098e-07
-1.65472e-06
2.73763e-07
-1.1959e-07
-1.38002e-06
3.04205e-07
-1.38823e-07
-8.36139e-07
1.87932e-07
-2.83257e-07
-5.78475e-07
1.14481e-07
-4.00819e-07
-3.7859e-07
-4.5132e-08
-4.35964e-07
-4.09195e-07
-1.67527e-07
-4.2504e-07
-3.55919e-07
-2.69818e-07
-3.90436e-07
-3.4316e-07
-3.31968e-07
-3.52369e-07
-2.9089e-07
-3.75354e-07
-3.19307e-07
-2.67204e-07
-4.00539e-07
-2.91242e-07
-2.30931e-07
-4.20446e-07
-2.70708e-07
-2.17759e-07
-4.3149e-07
-2.5523e-07
-1.98579e-07
-4.40554e-07
-2.45904e-07
-1.94017e-07
-4.44194e-07
-2.3858e-07
-1.88995e-07
-4.47281e-07
-2.34412e-07
-1.90852e-07
-4.47495e-07
-2.31415e-07
-1.9301e-07
-4.4706e-07
-2.29909e-07
-1.9828e-07
-4.45074e-07
-2.29267e-07
-2.04109e-07
-4.42637e-07
-2.29087e-07
-2.11484e-07
-4.39611e-07
-2.29104e-07
-2.20101e-07
-4.35964e-07
-2.28996e-07
-2.30244e-07
-4.31833e-07
-2.28765e-07
-2.42004e-07
-4.27012e-07
-2.27108e-07
-2.56022e-07
-4.22186e-07
-2.24942e-07
-2.72696e-07
-4.16633e-07
-2.19629e-07
-2.91641e-07
-4.11384e-07
-2.14e-07
-3.15418e-07
-4.04667e-07
-2.03267e-07
-3.40442e-07
-3.99105e-07
-1.91134e-07
-3.77718e-07
-3.9128e-07
-1.69606e-07
-4.13724e-07
-3.86395e-07
-1.45577e-07
-4.70909e-07
-3.7644e-07
-1.15472e-07
-5.18231e-07
-3.64201e-07
-9.02839e-08
-5.93067e-07
-3.41605e-07
-6.88636e-08
-6.4735e-07
-3.16518e-07
-4.41048e-08
-7.32762e-07
-2.80272e-07
2.53308e-08
-8.09812e-07
-2.5524e-07
2.57718e-07
-9.692e-07
-2.62772e-07
7.09427e-07
-1.03267e-06
-2.94775e-07
1.34197e-06
-8.84182e-07
-3.09093e-07
2.03182e-06
-5.29839e-07
-2.86351e-07
3.03205e-06
-6.97764e-07
-7.84832e-08
4.76894e-06
-2.03175e-06
-4.65965e-07
5.97857e-06
-3.777e-06
-1.14991e-06
7.79129e-06
-6.62246e-06
-3.12208e-06
1.0494e-05
-7.11791e-06
-5.72186e-06
1.21302e-05
-4.03168e-06
-5.11325e-06
1.3175e-05
-5.15338e-06
-2.53277e-06
1.44521e-05
-9.67365e-06
-3.33756e-07
1.72605e-05
-9.01866e-06
-1.60986e-06
2.06684e-05
-4.2973e-06
-6.6854e-07
2.54654e-05
-3.17331e-06
-2.06954e-06
3.07232e-05
-7.33387e-06
-3.52063e-06
4.98125e-09
-4.48267e-07
1.63889e-05
-5.67505e-07
-2.00152e-06
-2.78442e-06
4.63383e-06
-1.23345e-05
-9.30008e-06
-2.88768e-07
-1.49205e-05
5.41095e-06
9.90163e-07
-1.24514e-05
2.2747e-07
-1.10541e-05
5.57581e-07
5.56451e-06
-2.09754e-05
5.42665e-07
3.77208e-06
-3.09028e-05
5.01351e-06
5.7372e-06
-3.81028e-05
4.0343e-06
4.01178e-06
-4.26096e-05
1.87374e-06
8.53974e-07
-4.45122e-05
7.11515e-07
-5.88713e-08
-4.41984e-05
-6.47293e-08
-2.00603e-07
-4.28026e-05
-8.67197e-07
-7.21805e-07
-4.15878e-05
-1.38265e-06
-9.89165e-07
-4.02632e-05
-2.20576e-06
-7.93609e-07
-3.90353e-05
-2.72813e-06
-5.18813e-07
-3.73854e-05
-3.78201e-06
-6.39293e-07
-3.48741e-05
-5.478e-06
-7.32825e-07
-3.23112e-05
-6.56975e-06
-7.16238e-07
-2.90824e-05
-9.42988e-06
-6.10579e-07
-2.50652e-05
-1.22277e-05
-4.10399e-07
-2.04993e-05
-1.41485e-05
-2.34036e-07
-1.67751e-05
-1.59664e-05
3.30969e-07
-1.56315e-05
-1.7014e-05
1.93808e-06
-1.82045e-05
-1.66965e-05
3.09325e-06
-1.98439e-05
-1.69342e-05
1.82072e-06
-1.68122e-05
-1.51701e-05
-1.09867e-06
-1.21027e-05
-7.51101e-06
-1.96918e-06
-8.51051e-06
-6.29605e-07
-1.64634e-06
-7.65125e-06
2.91893e-06
4.45038e-07
-8.14757e-06
6.06145e-06
2.2536e-06
-8.2778e-06
8.48491e-06
3.17986e-06
-8.37337e-06
8.82092e-06
2.84644e-06
-9.39028e-06
9.07417e-06
1.71909e-06
-9.1881e-06
9.59853e-06
-8.03722e-07
-8.19145e-06
1.18864e-05
-3.43057e-06
-4.92863e-06
2.19197e-05
-6.94834e-06
2.98593e-05
-9.39687e-06
-2.97146e-06
-9.04932e-07
1.0761e-06
-1.88252e-06
-3.68445e-06
-1.5054e-06
-2.19275e-06
-1.55299e-06
4.62884e-07
-1.60486e-06
-3.25251e-06
-5.03943e-07
-1.28086e-06
-2.67875e-06
2.41101e-07
-7.76034e-07
-2.90702e-06
-1.39133e-08
-2.6066e-07
-2.28961e-06
1.19524e-07
5.65299e-08
-1.82835e-06
1.31135e-07
2.39893e-07
-1.14215e-06
1.22656e-07
8.76951e-08
-5.51293e-07
1.25018e-07
-8.28932e-08
-2.45775e-07
3.77794e-08
-2.04132e-07
-2.2262e-07
-6.53339e-08
-2.63286e-07
-1.36932e-07
-1.59825e-07
-2.82046e-07
-9.79074e-08
-2.26489e-07
-2.89453e-07
-1.06955e-08
-2.72778e-07
-2.88341e-07
3.55262e-08
-3.03836e-07
-2.88142e-07
9.39977e-08
-3.25117e-07
-2.84685e-07
1.19727e-07
-3.40936e-07
-2.83752e-07
1.50399e-07
-3.499e-07
-2.83632e-07
1.59977e-07
-3.54105e-07
-2.8426e-07
1.68116e-07
-3.5647e-07
-2.85605e-07
1.66801e-07
-3.56298e-07
-2.87078e-07
1.63994e-07
-3.55517e-07
-2.88707e-07
1.56775e-07
-3.53414e-07
-2.90407e-07
1.48183e-07
-3.50577e-07
-2.91891e-07
1.37146e-07
-3.47132e-07
-2.93482e-07
1.24498e-07
-3.42993e-07
-2.95135e-07
1.09811e-07
-3.38387e-07
-2.96802e-07
9.3777e-08
-3.34098e-07
-2.97677e-07
7.55525e-08
-3.30683e-07
-2.99709e-07
5.58614e-08
-3.26509e-07
-3.0091e-07
3.34464e-08
-3.23868e-07
-3.05341e-07
8.53297e-09
-3.19504e-07
-3.06149e-07
-2.35667e-08
-3.16047e-07
-3.06713e-07
-6.73248e-08
-3.09813e-07
-3.0336e-07
-1.12889e-07
-3.04166e-07
-3.03101e-07
-1.78499e-07
-2.92655e-07
-3.052e-07
-2.37427e-07
-2.78682e-07
-3.16449e-07
-3.2499e-07
-2.56815e-07
-3.30006e-07
-4.01158e-07
-2.32613e-07
-3.19248e-07
-5.35526e-07
-2.07987e-07
-2.3462e-07
-6.94716e-07
-1.99705e-07
4.04221e-08
-9.8074e-07
-2.63501e-07
5.57065e-07
-1.18157e-06
-3.67724e-07
1.28172e-06
-1.20473e-06
-4.04115e-07
2.07269e-06
-1.03238e-06
-2.88414e-07
3.34432e-06
-1.6899e-06
-2.79492e-07
4.9491e-06
-2.87572e-06
-7.60797e-07
5.70618e-06
-2.94794e-06
-1.58613e-06
7.90982e-06
-4.86411e-06
-3.96199e-06
1.00843e-05
-3.72498e-06
-5.56744e-06
1.11487e-05
-3.41626e-07
-4.75439e-06
9.77054e-06
-7.49026e-07
-3.02624e-06
6.94407e-06
-5.12164e-06
-1.72553e-06
9.14911e-06
-7.92043e-06
-3.30328e-06
1.44002e-05
-4.23964e-06
-5.30874e-06
1.87886e-05
-9.09432e-06
1.53263e-06
2.32773e-05
-6.71078e-06
-5.11215e-06
5.20413e-07
1.6286e-05
6.02146e-06
-2.47477e-06
2.57776e-06
-1.58386e-06
-3.03064e-06
-5.02267e-06
-6.75404e-06
-2.91692e-05
-8.74586e-08
1.13082e-05
-4.82495e-05
4.21617e-06
2.41548e-06
-5.6328e-05
7.90195e-06
7.37221e-07
-5.95939e-05
5.5226e-06
-1.71071e-06
-5.89893e-05
5.62808e-06
-1.21574e-06
-5.74479e-05
3.78173e-06
-1.28543e-06
-5.53895e-05
1.4629e-06
-1.64417e-06
-5.36897e-05
5.16069e-07
-1.50108e-06
-5.14015e-05
-1.32533e-06
-1.02433e-06
-4.87512e-05
-3.15262e-06
-3.6154e-07
-4.60411e-05
-4.17631e-06
8.67153e-08
-4.35593e-05
-4.93768e-06
2.53254e-07
-4.19426e-05
-5.27905e-06
9.37286e-07
-4.07373e-05
-6.00705e-06
1.02283e-06
-3.90416e-05
-8.00682e-06
8.36063e-07
-3.67399e-05
-9.33276e-06
4.64194e-07
-3.3853e-05
-1.1897e-05
-4.16954e-07
-3.08287e-05
-1.4781e-05
-4.68323e-07
-2.71133e-05
-1.75708e-05
-2.90554e-07
-2.42088e-05
-1.95371e-05
6.68346e-07
-2.29864e-05
-2.05214e-05
2.28679e-06
-2.44412e-05
-1.93915e-05
4.15133e-06
-2.80236e-05
-1.81284e-05
4.77781e-06
-2.88064e-05
-1.76405e-05
3.25394e-06
-2.49232e-05
-1.31804e-05
1.78653e-06
-1.91998e-05
-5.53851e-06
-8.14362e-07
-1.38531e-05
-2.40377e-07
-2.18746e-06
-9.89618e-06
4.08245e-06
-1.97787e-06
-7.305e-06
7.08336e-06
-1.18964e-06
-5.99278e-06
9.21051e-06
-1.7018e-06
-5.23168e-06
1.03322e-05
-2.0191e-06
-4.58581e-06
1.27708e-05
-3.81811e-06
-4.89324e-06
1.71446e-05
-4.95082e-06
-2.88112e-06
2.70481e-05
-7.1405e-06
3.63977e-05
-9.41958e-06
-3.40177e-06
2.73282e-07
1.5112e-06
-2.24972e-06
-2.86094e-06
-1.97556e-06
-2.36136e-06
-1.20357e-06
-2.37781e-07
-1.73256e-06
-2.41238e-06
-1.46894e-06
-1.3186e-06
-2.63691e-06
-4.55808e-07
-9.21437e-07
-2.81618e-06
-4.88004e-07
-4.9267e-07
-2.52275e-06
-1.95635e-07
2.30077e-08
-2.10494e-06
-2.39087e-07
5.03167e-07
-1.51132e-06
-1.10997e-07
4.66775e-07
-5.14754e-07
-1.42354e-10
2.7546e-07
-3.31332e-08
-2.13247e-08
1.02698e-07
6.88432e-08
-1.18694e-07
-1.79447e-08
1.98968e-07
-2.15256e-07
-1.09536e-07
2.89326e-07
-2.95635e-07
-1.7863e-07
4.05415e-07
-3.47011e-07
-2.24781e-07
4.64284e-07
-3.82599e-07
-2.6334e-07
5.25516e-07
-3.92954e-07
-2.96957e-07
5.52647e-07
-3.99294e-07
-3.2242e-07
5.8683e-07
-4.10961e-07
-3.42242e-07
6.00968e-07
-4.21158e-07
-3.58996e-07
6.14584e-07
-4.29705e-07
-3.73176e-07
6.18778e-07
-4.37784e-07
-3.85001e-07
6.21071e-07
-4.45241e-07
-3.95539e-07
6.1951e-07
-4.52184e-07
-4.05093e-07
6.1644e-07
-4.58692e-07
-4.14239e-07
6.11261e-07
-4.64956e-07
-4.23837e-07
6.0521e-07
-4.711e-07
-4.31719e-07
5.99054e-07
-4.81347e-07
-4.38192e-07
5.92663e-07
-4.92397e-07
-4.4318e-07
5.83604e-07
-5.03049e-07
-4.49131e-07
5.73446e-07
-5.11616e-07
-4.54599e-07
5.59193e-07
-5.20264e-07
-4.61673e-07
5.43244e-07
-5.27616e-07
-4.69362e-07
5.21776e-07
-5.37638e-07
-4.83753e-07
4.93858e-07
-5.46771e-07
-5.04165e-07
4.64009e-07
-5.5647e-07
-5.40925e-07
4.18148e-07
-5.59865e-07
-5.90272e-07
3.68534e-07
-5.56601e-07
-6.52745e-07
2.83459e-07
-5.45953e-07
-7.04578e-07
1.79368e-07
-5.28683e-07
-6.86483e-07
-4.13926e-08
-5.1221e-07
-5.50739e-07
-3.33747e-07
-4.96711e-07
-2.13282e-07
-7.90186e-07
-5.28001e-07
3.43239e-07
-1.15358e-06
-5.84521e-07
1.08635e-06
-1.333e-06
-6.14829e-07
1.86399e-06
-1.26153e-06
-5.48487e-07
2.31016e-06
-1.5936e-06
-5.42455e-07
2.75129e-06
-2.05565e-06
-1.2612e-06
3.8864e-06
-9.60207e-07
-3.12283e-06
5.43406e-06
1.02075e-06
-7.43252e-06
4.87856e-06
4.54965e-06
-7.71912e-06
1.37743e-06
6.81685e-06
-3.65735e-06
-8.08825e-06
9.30258e-06
-5.85908e-07
-2.0327e-05
8.93137e-06
-1.81427e-06
-2.90812e-05
7.83148e-06
-6.99759e-06
-2.84326e-05
5.15834e-06
-1.00466e-05
-3.20946e-05
5.27074e-06
-1.0703e-05
-2.91359e-05
2.23685e-06
-1.19065e-05
-3.35669e-07
-4.85766e-07
-1.20297e-05
-3.78182e-06
6.42324e-06
-3.98679e-07
-2.3112e-05
1.19458e-05
2.3645e-06
-4.75241e-05
9.29868e-06
1.50301e-05
-6.10613e-05
1.27455e-05
5.01191e-06
-6.55625e-05
1.30137e-05
-6.06055e-07
-6.54368e-05
1.11211e-05
-5.71951e-06
-6.44004e-05
1.01495e-05
-5.55319e-06
-6.43817e-05
9.92488e-06
-6.1572e-06
-6.35259e-05
8.3843e-06
-7.77265e-06
-6.24033e-05
8.10752e-06
-8.70947e-06
-6.02942e-05
6.38631e-06
-9.81621e-06
-5.71237e-05
4.55687e-06
-1.08756e-05
-5.39484e-05
2.57743e-06
-9.92472e-06
-5.05215e-05
6.3894e-07
-8.9993e-06
-4.71749e-05
-1.40289e-06
-7.21865e-06
-4.40908e-05
-3.61461e-06
-5.47249e-06
-4.0336e-05
-6.88073e-06
-4.87681e-06
-3.64202e-05
-8.86849e-06
-4.37598e-06
-3.36958e-05
-1.04511e-05
-4.16613e-06
-3.18604e-05
-1.34184e-05
-3.19371e-06
-3.06691e-05
-1.63936e-05
-2.3642e-06
-2.96046e-05
-1.91818e-05
-1.41536e-06
-2.98972e-05
-2.06213e-05
3.9707e-07
-3.2152e-05
-2.0994e-05
3.86213e-06
-3.86802e-05
-1.82681e-05
6.67274e-06
-4.74302e-05
-1.61227e-05
7.23752e-06
-5.28556e-05
-1.42716e-05
6.52202e-06
-5.22195e-05
-1.09766e-05
4.80762e-06
-4.77799e-05
-5.86816e-06
1.19366e-06
-4.28865e-05
8.88409e-07
-1.6939e-06
-3.68883e-05
5.28345e-06
-4.19289e-06
-3.10453e-05
8.97975e-06
-5.60685e-06
-2.74875e-05
1.31592e-05
-6.37954e-06
-2.48373e-05
1.76739e-05
-7.54807e-06
-2.13703e-05
2.30949e-05
-9.41213e-06
-1.3779e-05
3.00988e-05
-1.06377e-05
3.33999e-05
-1.07794e-05
-3.9234e-06
1.44983e-06
2.93e-06
-2.41456e-06
-2.4983e-06
-1.87148e-06
-2.27006e-06
-2.7765e-07
-1.07043e-06
-1.7042e-06
-1.14579e-06
-1.83246e-06
-1.19617e-06
-1.88131e-06
-1.26364e-06
-9.5262e-07
-2.21421e-06
-8.45523e-07
-6.82419e-07
-2.30854e-06
-4.84408e-07
-1.55613e-07
-2.19672e-06