/*--------------------------------*- C++ -*----------------------------------*\
| =========                 |                                                 |
| \\      /  F ield         | OpenFOAM: The Open Source CFD Toolbox           |
|  \\    /   O peration     | Version:  2.3.0                                 |
|   \\  /    A nd           | Web:      www.OpenFOAM.org                      |
|    \\/     M anipulation  |                                                 |
\*---------------------------------------------------------------------------*/
FoamFile
{
    version     2.0;
    format      ascii;
    class       surfaceScalarField;
    location    "9";
    object      phi;
}
// * * * * * * * * * * * * * * * * * * * * * * * * * * * * * * * * * * * * * //

dimensions      [0 3 -1 0 0 0 0];

internalField   nonuniform List<scalar> 
16448
(
-1.76749e-06
-2.01487e-06
5.28137e-07
-3.07065e-07
-2.05888e-06
5.98455e-07
-7.89136e-08
-1.07062e-06
8.42473e-07
1.09857e-07
-1.08252e-06
8.93747e-07
6.20281e-08
-8.46096e-07
8.93926e-07
1.85698e-08
-8.67717e-07
9.11176e-07
-3.7333e-08
-8.50342e-07
9.06245e-07
-8.77072e-08
-8.68639e-07
9.19014e-07
-1.2646e-07
-8.88807e-07
9.27559e-07
-1.33657e-07
-9.25555e-07
9.32752e-07
-1.39857e-07
-9.44638e-07
9.50836e-07
-1.17064e-07
-9.81443e-07
9.58649e-07
-1.04341e-07
-9.91528e-07
9.78804e-07
-7.71142e-08
-1.01581e-06
9.88578e-07
-6.29717e-08
-1.02001e-06
1.00586e-06
-4.32016e-08
-1.03415e-06
1.01437e-06
-3.40789e-08
-1.03626e-06
1.02713e-06
-2.34997e-08
-1.0443e-06
1.03372e-06
-1.92608e-08
-1.04628e-06
1.04204e-06
-1.504e-08
-1.05123e-06
1.04701e-06
-1.40488e-08
-1.05348e-06
1.05248e-06
-1.33591e-08
-1.05692e-06
1.05623e-06
-1.40572e-08
-1.0592e-06
1.05989e-06
-1.51323e-08
-1.06172e-06
1.06279e-06
-1.6723e-08
-1.06379e-06
1.06537e-06
-1.85374e-08
-1.06576e-06
1.06757e-06
-2.05593e-08
-1.06749e-06
1.06951e-06
-2.27358e-08
-1.06904e-06
1.07121e-06
-2.50467e-08
-1.07042e-06
1.07272e-06
-2.75871e-08
-1.07155e-06
1.07408e-06
-3.0191e-08
-1.07284e-06
1.07544e-06
-3.29821e-08
-1.0737e-06
1.07648e-06
-3.54375e-08
-1.07503e-06
1.07749e-06
-3.87072e-08
-1.07494e-06
1.0782e-06
-4.0968e-08
-1.07683e-06
1.07909e-06
-4.4208e-08
-1.07619e-06
1.07942e-06
-4.54863e-08
-1.07893e-06
1.0802e-06
-4.76315e-08
-1.07796e-06
1.0801e-06
-4.63576e-08
-1.0826e-06
1.08132e-06
-4.56561e-08
-1.08042e-06
1.07972e-06
-3.69595e-08
-1.09078e-06
1.08209e-06
-2.81941e-08
-1.08665e-06
1.07788e-06
-1.45133e-09
-1.10587e-06
1.07912e-06
2.82665e-08
-1.10527e-06
1.07555e-06
7.59695e-08
-1.11946e-06
1.07176e-06
1.68908e-07
-1.14582e-06
1.05288e-06
2.60349e-07
-1.15559e-06
1.06415e-06
4.69005e-07
-1.19925e-06
9.90594e-07
6.35404e-07
-1.21524e-06
1.04885e-06
1.03966e-06
-1.24935e-06
8.45093e-07
1.33455e-06
-1.28516e-06
9.90279e-07
1.22639e-06
-4.7638e-07
5.84544e-07
6.76522e-07
-7.28615e-07
1.2785e-06
-1.36264e-06
-4.78479e-08
2.08702e-06
-1.54164e-06
-2.37175e-06
2.55077e-06
-1.20937e-06
-3.06298e-06
2.73074e-06
-2.35591e-06
1.25894e-06
-1.12391e-07
-4.50135e-06
2.27638e-06
-1.30903e-07
-6.57013e-06
3.1329e-07
1.75557e-06
-4.55462e-07
-1.8955e-05
1.28404e-05
1.73743e-05
-2.32126e-05
5.38281e-06
2.31168e-05
-8.39494e-06
2.65248e-06
2.13969e-05
1.74433e-06
-2.44971e-08
2.32152e-05
-1.02463e-06
-7.93676e-07
2.44593e-05
-4.06506e-08
-1.2034e-06
2.50598e-05
1.1507e-06
-1.75118e-06
2.5402e-05
1.63191e-06
-1.97415e-06
2.54727e-05
1.82456e-06
-1.89527e-06
2.51969e-05
1.96199e-06
-1.68616e-06
2.4548e-05
2.01324e-06
-1.36432e-06
2.37246e-05
1.83643e-06
-1.0131e-06
2.30007e-05
1.41086e-06
-6.86926e-07
2.24404e-05
9.86589e-07
-4.26265e-07
2.20301e-05
6.41787e-07
-2.31516e-07
2.16779e-05
4.06824e-07
-5.46499e-08
2.14633e-05
1.31732e-07
8.29164e-08
2.1324e-05
-7.3756e-08
2.13063e-07
2.12664e-05
-2.37254e-07
2.94765e-07
2.11878e-05
-2.59965e-07
3.38576e-07
2.09949e-05
-1.76448e-07
3.69373e-07
2.06908e-05
3.33798e-08
2.70741e-07
1.99681e-05
4.17629e-07
3.05082e-07
1.8997e-05
8.0776e-07
1.63279e-07
1.72596e-05
1.45477e-06
2.82633e-07
1.49409e-05
1.84296e-06
4.7573e-07
1.19489e-05
2.34346e-06
6.48591e-07
7.06251e-06
2.95329e-06
1.93307e-06
1.90524e-06
2.50575e-06
2.65151e-06
-1.45007e-06
1.2819e-06
2.0734e-06
-3.12481e-06
5.68172e-07
1.10657e-06
-3.19959e-06
-7.3815e-08
1.48591e-07
-2.19251e-06
-7.83725e-07
-2.23356e-07
-1.18705e-06
-1.45953e-06
4.54066e-07
-5.26085e-07
-1.66321e-06
1.00225e-06
-1.90803e-07
-1.61386e-06
1.27858e-06
-1.60236e-06
1.41155e-06
-2.41987e-06
-2.8225e-06
-3.00917e-07
-1.04726e-06
-3.14318e-06
-2.88304e-07
-6.34057e-07
-1.6618e-06
1.7798e-07
-2.96139e-07
-1.728e-06
3.07573e-07
-2.66494e-07
-1.20136e-06
3.25624e-07
-2.57901e-07
-1.21983e-06
3.43522e-07
-3.03518e-07
-1.12912e-06
3.24395e-07
-3.30344e-07
-1.16514e-06
3.23333e-07
-3.56526e-07
-1.18491e-06
3.22287e-07
-3.43007e-07
-1.25562e-06
3.16551e-07
-3.27738e-07
-1.29037e-06
3.30461e-07
-2.8303e-07
-1.35811e-06
3.31959e-07
-2.51252e-07
-1.37553e-06
3.52228e-07
-2.05969e-07
-1.41974e-06
3.58654e-07
-1.78583e-07
-1.42553e-06
3.78133e-07
-1.46089e-07
-1.45172e-06
3.85073e-07
-1.28639e-07
-1.45383e-06
4.00123e-07
-1.09639e-07
-1.46927e-06
4.0597e-07
-1.00402e-07
-1.4716e-06
4.16083e-07
-9.11609e-08
-1.48137e-06
4.2089e-07
-8.69601e-08
-1.48519e-06
4.27508e-07
-8.3321e-08
-1.49191e-06
4.31348e-07
-8.19048e-08
-1.49607e-06
4.35456e-07
-8.12529e-08
-1.50076e-06
4.38389e-07
-8.15103e-08
-1.50452e-06
4.4099e-07
-8.22281e-08
-1.50808e-06
4.4303e-07
-8.33428e-08
-1.51113e-06
4.44747e-07
-8.47404e-08
-1.5138e-06
4.46159e-07
-8.63258e-08
-1.51615e-06
4.47319e-07
-8.79821e-08
-1.51813e-06
4.48241e-07
-8.99307e-08
-1.51995e-06
4.4905e-07
-9.20962e-08
-1.52112e-06
4.49591e-07
-9.38478e-08
-1.52311e-06
4.49824e-07
-9.62832e-08
-1.52269e-06
4.50189e-07
-9.70766e-08
-1.52586e-06
4.4982e-07
-9.93534e-08
-1.52394e-06
4.50029e-07
-9.81071e-08
-1.52904e-06
4.48868e-07
-9.89184e-08
-1.52588e-06
4.4874e-07
-9.42178e-08
-1.53424e-06
4.46941e-07
-9.0922e-08
-1.52881e-06
4.45106e-07
-7.792e-08
-1.54629e-06
4.42515e-07
-6.5096e-08
-1.53635e-06
4.36883e-07
-3.17218e-08
-1.57165e-06
4.32415e-07
-2.36956e-10
-1.55888e-06
4.22137e-07
7.26653e-08
-1.60757e-06
4.15216e-07
1.83745e-07
-1.63457e-06
3.77683e-07
2.96516e-07
-1.66518e-06
3.96842e-07
5.79935e-07
-1.77963e-06
2.96984e-07
7.48033e-07
-1.77007e-06
3.86743e-07
1.41323e-06
-2.08435e-06
1.6983e-07
1.80588e-06
-2.05577e-06
3.77985e-07
2.73483e-06
-1.37467e-06
-3.0636e-08
1.9057e-06
-4.11402e-07
5.11957e-07
-9.2688e-07
1.45439e-06
1.33037e-06
-1.49435e-06
-3.26967e-06
1.46543e-06
5.32939e-07
-6.21772e-06
1.12747e-06
-3.36148e-06
7.91038e-06
-2.75699e-06
-1.03454e-05
1.00542e-05
-7.93938e-07
-7.21611e-06
2.63225e-06
-5.44807e-06
-5.69473e-07
-3.13426e-05
5.74111e-06
2.69276e-06
-3.25551e-05
6.08028e-06
4.03956e-06
-1.04671e-05
7.25381e-07
1.36386e-05
-3.51421e-06
-4.34048e-06
1.64724e-05
-4.50446e-07
-3.40798e-06
1.78163e-05
2.06874e-06
-3.45329e-06
1.98599e-05
2.78535e-06
-3.67822e-06
2.15356e-05
3.38924e-06
-3.43309e-06
2.2394e-05
3.87994e-06
-2.91374e-06
2.25004e-05
4.1301e-06
-2.27452e-06
2.21079e-05
4.05737e-06
-1.65165e-06
2.13777e-05
3.7655e-06
-1.19884e-06
2.08072e-05
2.74779e-06
-7.66418e-07
2.05841e-05
1.48605e-06
-2.76408e-07
2.03776e-05
6.30792e-07
2.17506e-07
2.00116e-05
2.151e-07
5.57757e-07
1.95814e-05
-2.08714e-07
7.70632e-07
1.91826e-05
-5.99006e-07
9.24042e-07
1.88924e-05
-9.06754e-07
9.59664e-07
1.86625e-05
-9.51746e-07
9.21738e-07
1.84787e-05
-7.65971e-07
7.7326e-07
1.83954e-05
-3.64141e-07
4.80814e-07
1.80709e-05
3.60471e-07
3.81707e-07
1.7416e-05
1.39781e-06
6.483e-08
1.61577e-05
2.58257e-06
1.30538e-07
1.41979e-05
3.48242e-06
3.20335e-07
1.17582e-05
4.24203e-06
5.41054e-07
7.76943e-06
5.14998e-06
1.79211e-06
3.03758e-06
4.81488e-06
2.42272e-06
-4.8772e-07
2.85882e-06
1.94838e-06
-2.53907e-06
1.54369e-06
1.07582e-06
-2.92983e-06
8.69656e-07
-5.52714e-07
-2.17976e-06
4.60951e-08
-1.57989e-06
-1.03349e-06
-1.15075e-06
-1.45505e-06
-2.80632e-07
-1.90328e-06
-5.12786e-07
-7.34743e-09
-2.0299e-06
1.4275e-07
-2.06763e-06
4.57926e-07
-2.78177e-06
-2.90365e-06
-4.99003e-07
-1.62335e-06
-3.56456e-06
-7.37027e-07
-1.21849e-06
-1.7761e-06
-2.90567e-07
-7.34283e-07
-2.04004e-06
-1.72164e-07
-5.27689e-07
-1.30656e-06
-1.01392e-07
-4.16708e-07
-1.32232e-06
-8.48162e-09
-3.99897e-07
-1.13362e-06
-1.2306e-08
-4.04718e-07
-1.16111e-06
7.85164e-10
-4.1865e-07
-1.1481e-06
-2.28761e-08
-4.00952e-07
-1.22698e-06
-4.63379e-08
-3.76564e-07
-1.26377e-06
-5.09835e-08
-3.25346e-07
-1.34937e-06
-5.99551e-08
-2.82718e-07
-1.36898e-06
-4.91833e-08
-2.32388e-07
-1.42368e-06
-4.63892e-08
-1.98787e-07
-1.42788e-06
-3.12495e-08
-1.64143e-07
-1.46016e-06
-2.62063e-08
-1.43865e-07
-1.46053e-06
-1.35836e-08
-1.23979e-07
-1.47959e-06
-9.57028e-09
-1.14e-07
-1.48083e-06
-7.59249e-10
-1.04631e-07
-1.49207e-06
1.32686e-09
-1.00111e-07
-1.49427e-06
4.56251e-09
-9.62792e-08
-1.50126e-06
5.51258e-09
-9.48023e-08
-1.50451e-06
6.95302e-09
-9.4086e-08
-1.50889e-06
7.40983e-09
-9.43403e-08
-1.51201e-06
7.73899e-09
-9.5051e-08
-1.51501e-06
7.64345e-09
-9.61909e-08
-1.51736e-06
7.36794e-09
-9.76459e-08
-1.51924e-06
6.89093e-09
-9.93706e-08
-1.52069e-06
6.26361e-09
-1.01256e-07
-1.52175e-06
5.49595e-09
-1.03299e-07
-1.52254e-06
4.63918e-09
-1.05407e-07
-1.52271e-06
3.68899e-09
-1.07815e-07
-1.52352e-06
2.81336e-09
-1.10263e-07
-1.5219e-06
1.65589e-09
-1.12012e-07
-1.52393e-06
-1.78613e-10
-1.14717e-07
-1.51969e-06
-1.54109e-09
-1.14911e-07
-1.52401e-06
-4.83521e-09
-1.16542e-07
-1.51739e-06
-6.86111e-09
-1.14113e-07
-1.52533e-06
-1.13266e-08
-1.13289e-07
-1.51547e-06
-1.41626e-08
-1.03867e-07
-1.53512e-06
-2.05864e-08
-9.68495e-08
-1.5175e-06
-2.58612e-08
-6.756e-08
-1.56369e-06
-3.72364e-08
-4.53518e-08
-1.53442e-06
-4.66613e-08
2.87926e-08
-1.61697e-06
-6.47303e-08
8.69982e-08
-1.59674e-06
-9.60233e-08
2.07154e-07
-1.69907e-06
-8.62513e-08
3.58454e-07
-1.75447e-06
-1.76444e-07
4.90338e-07
-1.82956e-06
-7.23708e-08
6.73771e-07
-2.07037e-06
-1.97397e-07
8.84608e-07
-2.28421e-06
1.76355e-08
1.87586e-06
-1.84997e-06
-5.15921e-07
1.66727e-06
8.90012e-08
-2.91785e-07
1.89757e-07
2.28462e-06
6.47319e-07
-2.17637e-06
-3.4382e-06
2.53468e-06
-3.17979e-06
-7.14451e-06
1.93024e-06
4.3287e-06
4.8735e-06
-4.47161e-06
3.05712e-06
1.39111e-05
-2.58523e-06
-3.33171e-06
1.06924e-05
-1.67109e-06
-1.02176e-06
-3.58104e-05
2.15818e-06
-3.56056e-06
-3.68061e-05
6.78978e-06
-8.06448e-07
-1.44028e-05
1.18155e-06
1.06544e-05
-1.26938e-05
-2.28129e-06
1.13116e-05
1.28596e-06
-2.39362e-06
1.35574e-05
2.64342e-06
-2.82044e-06
1.60261e-05
3.17971e-06
-2.86307e-06
1.75986e-05
4.28766e-06
-2.47098e-06
1.82501e-05
5.04595e-06
-1.81746e-06
1.80831e-05
5.23501e-06
-9.37931e-07
1.73487e-05
4.86158e-06
-6.97563e-08
1.64446e-05
3.85954e-06
8.10075e-07
1.53965e-05
2.16368e-06
1.63221e-06
1.39644e-05
5.72074e-07
2.34601e-06
1.20607e-05
-1.98565e-07
2.73304e-06
9.97556e-06
-5.6062e-07
2.86089e-06
8.08032e-06
-1.07293e-06
2.75946e-06
6.59238e-06
-1.53958e-06
2.4285e-06
5.78518e-06
-2.05021e-06
1.95066e-06
5.7994e-06
-2.29345e-06
1.32748e-06
6.54532e-06
-2.2172e-06
7.05306e-07
7.73548e-06
-1.67898e-06
1.24674e-07
9.15453e-06
-6.15599e-07
-4.42981e-07
1.05518e-05
8.66972e-07
-8.66443e-07
1.11354e-05
2.69506e-06
-6.96112e-07
1.06003e-05
4.43913e-06
-4.21569e-07
8.92141e-06
5.75137e-06
1.69543e-07
5.27911e-06
6.98584e-06
1.80645e-06
1.45334e-06
5.94466e-06
2.69598e-06
-1.01178e-06
3.18131e-06
2.14263e-06
-2.51405e-06
1.75278e-06
1.29319e-06
-2.63859e-06
1.33392e-06
-3.3973e-07
-1.69933e-06
1.03947e-06
-1.93264e-06
-5.33007e-07
2.42123e-08
-2.34128e-06
6.52138e-08
-1.13024e-06
-1.37126e-06
1.77449e-07
-1.59485e-06
-5.47286e-07
-1.76643e-06
-1.23745e-07
-2.84248e-06
-2.52962e-06
-4.52009e-07
-1.78378e-06
-3.77787e-06
-8.45395e-07
-1.65231e-06
-1.55866e-06
-3.489e-07
-1.19918e-06
-2.2212e-06
-2.71967e-07
-9.45803e-07
-1.31499e-06
-2.44935e-07
-7.37757e-07
-1.40569e-06
-1.24679e-07
-6.33057e-07
-1.08594e-06
-1.52375e-07
-5.84998e-07
-1.08027e-06
-1.28888e-07
-5.6967e-07
-9.90862e-07
-1.72567e-07
-5.40521e-07
-1.04444e-06
-2.1169e-07
-4.99435e-07
-1.05962e-06
-2.45241e-07
-4.35974e-07
-1.1423e-06
-2.70536e-07
-3.73436e-07
-1.1538e-06
-2.77718e-07
-3.13209e-07
-1.20254e-06
-2.81376e-07
-2.6714e-07
-1.19832e-06
-2.75633e-07
-2.27342e-07
-1.22688e-06
-2.73073e-07
-2.00711e-07
-1.22088e-06
-2.66288e-07
-1.78558e-07
-1.23756e-06
-2.64182e-07
-1.65174e-07
-1.23433e-06
-2.59885e-07
-1.54259e-07
-1.24382e-06
-2.59168e-07
-1.4837e-07
-1.24312e-06
-2.57044e-07
-1.43761e-07
-1.24867e-06
-2.57209e-07
-1.41751e-07
-1.24978e-06
-2.56746e-07
-1.40667e-07
-1.25259e-06
-2.5739e-07
-1.40619e-07
-1.25396e-06
-2.58107e-07
-1.41155e-07
-1.25525e-06
-2.59235e-07
-1.42201e-07
-1.25582e-06
-2.605e-07
-1.43609e-07
-1.25587e-06
-2.61968e-07
-1.45311e-07
-1.25546e-06
-2.63533e-07
-1.4722e-07
-1.25468e-06
-2.65167e-07
-1.49347e-07
-1.25355e-06
-2.66872e-07
-1.51687e-07
-1.25179e-06
-2.6858e-07
-1.54543e-07
-1.25049e-06
-2.70178e-07
-1.56868e-07
-1.24741e-06
-2.7217e-07
-1.59522e-07
-1.24741e-06
-2.73876e-07
-1.625e-07
-1.24102e-06
-2.75697e-07
-1.64225e-07
-1.24379e-06
-2.78492e-07
-1.66689e-07
-1.23462e-06
-2.80295e-07
-1.67076e-07
-1.24106e-06
-2.83887e-07
-1.68126e-07
-1.2285e-06
-2.85922e-07
-1.64734e-07
-1.24671e-06
-2.91803e-07
-1.60364e-07
-1.22679e-06
-2.95069e-07
-1.41054e-07
-1.27639e-06
-3.06607e-07
-1.27653e-07
-1.23712e-06
-3.1069e-07
-6.5414e-08
-1.34783e-06
-3.3137e-07
-5.50921e-08
-1.27261e-06
-3.3444e-07
7.25715e-08
-1.48734e-06
-3.39389e-07
3.09698e-10
-1.33833e-06
-3.43869e-07
1.61405e-07
-1.74202e-06
-2.48621e-07
-1.9314e-07
-1.48795e-06
-2.27849e-07
-1.09041e-07
-2.35389e-06
-1.43988e-08
3.29066e-07
-1.69566e-06
-5.92383e-07
6.19835e-07
6.72077e-07
-8.73808e-07
-9.20479e-07
3.65048e-06
1.74484e-07
-5.05808e-06
-1.64471e-06
2.34415e-06
-8.77434e-06
-3.89445e-06
4.6621e-07
3.52479e-06
-2.78695e-06
-4.6387e-06
6.42105e-06
1.81244e-05
-7.10956e-06
5.63618e-06
1.0838e-05
6.39273e-07
1.41168e-06
-3.30985e-05
1.51301e-06
-2.59205e-06
-4.011e-05
7.30794e-06
-6.93319e-06
-1.32545e-05
3.19287e-06
-5.85857e-06
-1.48403e-05
1.07184e-06
-1.90189e-06
8.17178e-07
-3.4879e-06
4.85677e-06
1.92812e-07
-4.30807e-06
7.7615e-06
2.67242e-06
-2.39745e-06
9.48802e-06
3.19036e-06
-6.2922e-07
9.89766e-06
3.93623e-06
7.00084e-07
9.02482e-06
4.21451e-06
1.89335e-06
6.53483e-06
4.34811e-06
3.00347e-06
1.63976e-06
4.37229e-06
4.38232e-06
-5.04826e-06
3.18206e-06
5.66965e-06
-1.02792e-05
9.24199e-07
4.87879e-06
-1.30345e-05
-4.13616e-07
2.97039e-06
-1.40778e-05
-1.47474e-06
1.95739e-06
-1.37398e-05
-2.56131e-06
1.15041e-06
-1.26137e-05
-3.25821e-06
5.92521e-07
-1.09281e-05
-3.83203e-06
9.62673e-08
-8.89117e-06
-4.06076e-06
-2.69663e-07
-6.67909e-06
-3.86913e-06
-5.60153e-07
-4.333e-06
-3.23554e-06
-7.89519e-07
-1.94993e-06
-2.09255e-06
-9.06122e-07
1.57921e-07
-3.9178e-07
-8.49094e-07
1.65199e-06
1.65878e-06
-4.57788e-07
2.02128e-06
3.79354e-06
2.76309e-07
7.41572e-07
5.38653e-06
1.64454e-06
-1.09345e-06
5.88785e-06
2.93301e-06
-1.90821e-06
3.87252e-06
2.88691e-06
-2.73947e-06
1.80932e-06
2.20325e-06
-3.3018e-06
1.11783e-06
1.19728e-06
-2.78007e-06
1.31615e-06
-5.03961e-07
-1.39569e-06
1.63345e-06
-1.97835e-06
5.65221e-09
1.13581e-06
-2.51294e-06
7.21352e-07
6.63071e-08
-1.91225e-06
7.22223e-07
-5.20688e-07
-1.07503e-06
-4.57527e-07
-5.86682e-07
-2.75072e-06
-2.08557e-06
-1.26724e-07
-1.63759e-06
-3.88088e-06
-1.01011e-06
-1.75864e-06
-1.25116e-06
-1.86445e-07
-1.34122e-06
-2.42696e-06
-2.11653e-07
-1.11016e-06
-1.39093e-06
-1.55107e-07
-8.5552e-07
-1.63129e-06
-2.90312e-08
-7.20961e-07
-1.12513e-06
-9.53679e-08
-6.31497e-07
-1.08627e-06
-8.3468e-08
-6.11957e-07
-8.51895e-07
-1.58507e-07
-5.94484e-07
-8.42731e-07
-2.19183e-07
-5.63372e-07
-7.95902e-07
-2.94828e-07
-5.06509e-07
-8.4649e-07
-3.5267e-07
-4.39771e-07
-8.30291e-07
-3.9025e-07
-3.80784e-07
-8.50604e-07
-4.10921e-07
-3.27097e-07
-8.30193e-07
-4.21816e-07
-2.87225e-07
-8.40603e-07
-4.26154e-07
-2.55443e-07
-8.24964e-07
-4.27697e-07
-2.33094e-07
-8.31553e-07
-4.28365e-07
-2.16779e-07
-8.22254e-07
-4.28397e-07
-2.05669e-07
-8.26039e-07
-4.28894e-07
-1.97974e-07
-8.21767e-07
-4.29058e-07
-1.92948e-07
-8.24009e-07
-4.29691e-07
-1.90056e-07
-8.22618e-07
-4.30058e-07
-1.88431e-07
-8.23289e-07
-4.30932e-07
-1.8783e-07
-8.22599e-07
-4.31967e-07
-1.88034e-07
-8.22037e-07
-4.33015e-07
-1.8883e-07
-8.214e-07
-4.33627e-07
-1.90128e-07
-8.20598e-07
-4.33984e-07
-1.9184e-07
-8.19472e-07
-4.34286e-07
-1.93852e-07
-8.18006e-07
-4.34665e-07
-1.96158e-07
-8.16207e-07
-4.35041e-07
-1.98569e-07
-8.13964e-07
-4.35424e-07
-2.01614e-07
-8.11688e-07
-4.35756e-07
-2.03961e-07
-8.08886e-07
-4.36181e-07
-2.06702e-07
-8.08529e-07
-4.36139e-07
-2.09086e-07
-8.03108e-07
-4.35529e-07
-2.11549e-07
-8.0641e-07
-4.3492e-07
-2.13403e-07
-7.99498e-07
-4.33278e-07
-2.15172e-07
-8.07181e-07
-4.32108e-07
-2.16356e-07
-7.97925e-07
-4.29391e-07
-2.16965e-07
-8.17251e-07
-4.28846e-07
-2.14064e-07
-8.04225e-07
-4.25465e-07
-2.07537e-07
-8.56739e-07
-4.26169e-07
-2.00331e-07
-8.2516e-07
-4.19164e-07
-1.82418e-07
-9.49149e-07
-4.16585e-07
-1.98648e-07
-8.60385e-07
-3.95993e-07
-2.22717e-07
-1.11183e-06
-3.51428e-07
-3.58835e-07
-9.00974e-07
-3.01228e-07
-6.4905e-07
-1.33278e-06
-1.19006e-07
-1.03055e-06
-9.87544e-07
-1.18889e-07
-1.73593e-06
-1.77127e-06
1.22795e-07
-1.88305e-06
-1.1198e-06
-4.2871e-07
-6.59346e-07
2.85174e-07
-8.36755e-07
-1.611e-06
4.92605e-06
-3.23883e-07
3.04861e-07
-2.50216e-06
-1.05839e-06
3.95804e-07
-8.69895e-07
-3.11551e-06
8.37196e-06
-2.67147e-06
-8.09171e-06
1.2899e-05
2.28544e-05
-9.25726e-06
1.52861e-05
-3.80152e-06
1.2252e-05
1.20631e-06
-2.15073e-05
2.48992e-06
-7.36464e-06
-3.89875e-05
7.44907e-06
-1.3148e-05
-1.194e-05
4.46881e-06
-1.57916e-05
-1.39535e-05
1.7568e-06
-1.15158e-05
-3.20696e-06
-2.5164e-07
-9.54312e-06
-1.48553e-06
-2.94344e-07
-9.86328e-06
1.7138e-06
1.27877e-06
-1.20879e-05
2.75395e-06
2.66107e-06
-1.5506e-05
3.88537e-06
3.46888e-06
-1.96649e-05
4.47441e-06
3.89902e-06
-2.33804e-05
4.27613e-06
3.78748e-06
-2.60288e-05
3.64433e-06
3.37636e-06
-2.74282e-05
2.11163e-06
2.46986e-06
-2.82273e-05
4.56118e-07
1.26719e-06
-2.82293e-05
-7.72624e-07
3.61006e-07
-2.75835e-05
-1.86763e-06
-2.52947e-07
-2.64923e-05
-2.96951e-06
-6.82932e-07
-2.50297e-05
-3.79463e-06
-9.26192e-07
-2.32565e-05
-4.63128e-06
-9.73955e-07
-2.11928e-05
-5.25862e-06
-8.65834e-07
-1.89164e-05
-5.49331e-06
-6.52202e-07
-1.65246e-05
-5.28652e-06
-3.40811e-07
-1.41061e-05
-4.5893e-06
7.82962e-08
-1.17787e-05
-3.33312e-06
6.13938e-07
-9.76801e-06
-1.58438e-06
1.23243e-06
-8.2955e-06
3.73542e-07
1.94748e-06
-7.05011e-06
1.56738e-06
2.57377e-06
-5.63834e-06
1.7742e-06
2.70189e-06
-4.85185e-06
8.43552e-07
2.24248e-06
-4.6203e-06
1.12285e-07
1.46549e-06
-4.12958e-06
2.30928e-07
3.96179e-07
-3.00692e-06
1.04603e-06
-8.52534e-07
-1.26289e-06
1.91272e-06
-2.0233e-06
3.82574e-07
1.90406e-06
-2.41371e-06
1.11195e-06
1.17162e-06
-1.83468e-06
8.51402e-07
5.58772e-07
-8.18914e-07
6.92534e-07
-2.98656e-07
-2.68454e-06
-1.52154e-06
2.59431e-07
-1.54821e-06
-3.93023e-06
-1.08697e-06
-1.8385e-06
-1.11212e-06
1.5126e-07
-1.3924e-06
-2.7821e-06
-9.09575e-08
-1.10883e-06
-1.78944e-06
1.14938e-07
-7.71895e-07
-2.13659e-06
1.68365e-07
-5.38962e-07
-1.47954e-06
1.21481e-07
-4.2716e-07
-1.32339e-06
1.25323e-07
-4.27344e-07
-8.87787e-07
3.60771e-08
-4.75409e-07
-7.54683e-07
-3.99846e-08
-5.05901e-07
-5.97948e-07
-1.67462e-07
-4.83036e-07
-6.06618e-07
-2.62739e-07
-4.44427e-07
-5.28198e-07
-3.40703e-07
-3.9936e-07
-5.06181e-07
-3.89494e-07
-3.56013e-07
-4.47397e-07
-4.26146e-07
-3.22002e-07
-4.27006e-07
-4.47613e-07
-2.92279e-07
-3.88792e-07
-4.659e-07
-2.72356e-07
-3.76297e-07
-4.75184e-07
-2.57001e-07
-3.5342e-07
-4.84195e-07
-2.47873e-07
-3.4674e-07
-4.88433e-07
-2.40695e-07
-3.36225e-07
-4.92728e-07
-2.36682e-07
-3.33735e-07
-4.94295e-07
-2.33908e-07
-3.30068e-07
-4.95331e-07
-2.32335e-07
-3.29846e-07
-4.95024e-07
-2.3208e-07
-3.29277e-07
-4.93588e-07
-2.33051e-07
-3.29635e-07
-4.9144e-07
-2.34699e-07
-3.30481e-07
-4.89281e-07
-2.36687e-07
-3.31864e-07
-4.86755e-07
-2.38803e-07
-3.336e-07
-4.83767e-07
-2.4101e-07
-3.35497e-07
-4.8031e-07
-2.43487e-07
-3.37414e-07
-4.76328e-07
-2.46292e-07
-3.39279e-07
-4.71888e-07
-2.499e-07
-3.41439e-07
-4.66653e-07
-2.52746e-07
-3.44487e-07
-4.61559e-07
-2.56696e-07
-3.48979e-07
-4.55613e-07
-2.60724e-07
-3.49912e-07
-4.49174e-07
-2.65873e-07
-3.59104e-07
-4.42168e-07
-2.70111e-07
-3.60754e-07
-4.34509e-07
-2.75153e-07
-3.76369e-07
-4.25781e-07
-2.79865e-07
-3.76665e-07
-4.16551e-07
-2.86437e-07
-4.03344e-07
-4.07344e-07
-2.90832e-07
-4.03576e-07
-3.96254e-07
-3.03355e-07
-4.5991e-07
-3.84314e-07
-3.11431e-07
-4.47821e-07
-3.6926e-07
-3.57225e-07
-5.65244e-07
-3.38117e-07
-4.08526e-07
-5.0039e-07
-3.0869e-07
-6.11175e-07
-6.99961e-07
-2.09222e-07
-8.04455e-07
-5.13666e-07
-1.9402e-07
-1.4024e-06
-7.82708e-07
4.78791e-08
-1.8192e-06
-5.22559e-07
-4.81729e-08
-2.67994e-06
-1.05554e-06
1.4503e-07
-2.60448e-06
-7.94936e-07
-4.00285e-07
-3.50021e-07
-1.01089e-06
-9.58367e-07
1.7948e-06
4.06575e-06
-1.28449e-06
-1.59319e-06
3.64002e-06
-2.75419e-06
-3.858e-06
6.80234e-06
-5.40746e-06
7.90855e-06
-4.63609e-06
-9.802e-06
2.76283e-05
1.18178e-05
-8.68358e-06
1.88825e-05
-1.39184e-05
1.88611e-05
7.19316e-06
-1.20546e-05
2.23099e-06
-1.69489e-05
-2.46542e-05
9.80878e-06
-2.56167e-05
-7.9729e-06
4.70095e-06
-3.3285e-05
-8.1574e-06
1.87237e-06
-3.39412e-05
-2.25699e-06
-2.93641e-07
-3.53931e-05
-2.78905e-08
-5.70304e-09
-3.66691e-05
1.81306e-06
1.17684e-06
-3.83903e-05
2.88395e-06
1.59131e-06
-3.98993e-05
3.51472e-06
1.87985e-06
-4.14717e-05
4.34023e-06
1.70674e-06
-4.22206e-05
3.70814e-06
1.31699e-06
-4.28275e-05
3.6883e-06
5.63187e-07
-4.30632e-05
2.51241e-06
-1.6497e-07
-4.30206e-05
1.35725e-06
-9.43473e-07
-4.25491e-05
1.16452e-07
-1.36048e-06
-4.18692e-05
-1.00407e-06
-1.54333e-06
-4.08645e-05
-2.32783e-06
-1.64622e-06
-3.93598e-05
-3.63097e-06
-1.66829e-06
-3.74389e-05
-5.01662e-06
-1.53543e-06
-3.51002e-05
-6.21427e-06
-1.38301e-06
-3.22776e-05
-7.11785e-06
-1.19807e-06
-2.90768e-05
-7.50555e-06
-9.81799e-07
-2.568e-05
-7.2721e-06
-7.13951e-07
-2.21693e-05
-6.49054e-06
-3.53312e-07
-1.85835e-05
-5.17153e-06
1.41163e-09
-1.50685e-05
-3.59331e-06
4.51823e-07
-1.18443e-05
-2.34528e-06
6.88541e-07
-9.04036e-06
-1.656e-06
6.26215e-07
-7.10142e-06
-1.28625e-06
1.90863e-07
-5.81791e-06
-8.09263e-07
-3.61957e-07
-4.66928e-06
5.12271e-08
-9.68921e-07
-3.0675e-06
1.08166e-06
-1.6374e-06
-9.36352e-07
2.05714e-06
-2.27557e-06
9.87112e-07
2.41073e-06
-2.43014e-06
1.81798e-06
2.35831e-06
-2.01755e-06
1.43179e-06
2.19998e-06
-1.25502e-06
2.934e-06
-8.09672e-07
-2.89479e-06
-8.09646e-07
8.93878e-07
-1.86307e-06
-3.599e-06
-1.36295e-06
-2.28362e-06
-1.05203e-06
3.60467e-07
-1.74752e-06
-2.92245e-06
-3.95742e-07
-1.41812e-06
-2.25332e-06
1.34486e-07
-9.28333e-07
-2.59138e-06
-3.49948e-08
-4.91084e-07
-1.97215e-06
5.53576e-08
-2.31419e-07
-1.6313e-06
4.824e-08
-1.20187e-07
-1.05037e-06
5.13529e-08
-2.00809e-07
-6.97795e-07
2.37324e-08
-2.89332e-07
-4.38836e-07
-7.05926e-08
-3.25844e-07
-4.1238e-07
-1.57728e-07
-3.40344e-07
-2.82361e-07
-2.31342e-07
-3.29627e-07
-2.32285e-07
-2.84617e-07
-3.21596e-07
-1.33183e-07
-3.2225e-07
-3.08842e-07
-8.59274e-08
-3.53838e-07
-2.9834e-07
-2.39885e-08
-3.75312e-07
-2.89973e-07
2.79229e-09
-3.87464e-07
-2.85171e-07
3.70103e-08
-3.95241e-07
-2.82345e-07
4.93688e-08
-3.98944e-07
-2.80898e-07
6.39274e-08
-4.0161e-07
-2.80857e-07
6.78462e-08
-4.01631e-07
-2.81342e-07
7.15478e-08
-4.01143e-07
-2.82466e-07
7.05871e-08
-3.99321e-07
-2.84003e-07
6.90244e-08
-3.96775e-07
-2.85592e-07
6.56458e-08
-3.93704e-07
-2.87611e-07
6.1528e-08
-3.90002e-07
-2.89916e-07
5.64202e-08
-3.85994e-07
-2.92491e-07
5.06766e-08
-3.81714e-07
-2.95325e-07
4.44877e-08
-3.77166e-07
-2.98578e-07
3.80792e-08
-3.72252e-07
-3.02187e-07
3.1404e-08
-3.67092e-07
-3.07064e-07
2.46148e-08
-3.61189e-07
-3.11967e-07
1.68797e-08
-3.56482e-07
-3.19182e-07
9.42496e-09
-3.51201e-07
-3.26765e-07
4.78141e-09
-3.47129e-07
-3.36159e-07
-7.38181e-09
-3.42339e-07
-3.46195e-07
-1.24463e-08
-3.38292e-07
-3.58022e-07
-3.19326e-08
-3.3262e-07
-3.71863e-07
-3.58981e-08
-3.26945e-07
-3.89672e-07
-6.57739e-08
-3.19769e-07
-4.09733e-07
-7.15372e-08
-3.11995e-07
-4.47881e-07
-1.24406e-07
-2.9736e-07
-4.84087e-07
-1.23857e-07
-2.87773e-07
-5.88433e-07
-2.12946e-07
-2.47957e-07
-6.75734e-07
-1.7274e-07
-2.40367e-07
-9.52661e-07
-2.82059e-07
-1.40981e-07
-1.16352e-06
-1.45624e-07
-1.57204e-07
-1.77574e-06
-2.07387e-07
3.69057e-08
-2.18948e-06
-2.32644e-08
-8.55666e-08
-2.95832e-06
-3.14716e-07
2.80334e-08
-2.82506e-06
-5.34105e-07
-3.94079e-07
-1.03675e-06
-2.12636e-06
-6.72817e-07
3.50838e-06
5.65831e-07
-1.0452e-06
3.56435e-06
5.11918e-06
-1.53514e-06
8.70214e-06
7.96104e-06
-6.29654e-06
1.47259e-05
1.29721e-06
-1.19572e-05
3.41205e-05
2.43024e-06
-1.00074e-05
7.12782e-06
-8.46601e-06
2.15399e-05
-5.39509e-06
-2.89852e-06
3.36754e-06
-3.29951e-05
-6.39826e-06
9.34552e-06
-4.50256e-05
-9.33e-07
4.9921e-06
-5.34106e-05
-5.32354e-07
7.61408e-07
-5.62546e-05
1.14419e-06
-5.55621e-07
-5.77149e-05
2.09245e-06
-6.5837e-07
-5.89055e-05
3.18654e-06
-1.81342e-07
-5.99214e-05
3.97167e-06
-7.03737e-08
-6.11292e-05
4.63082e-06
9.32169e-08
-6.0873e-05
4.45134e-06
-3.65356e-07
-6.13863e-05
4.76967e-06
-5.45898e-07
-6.01544e-05
3.67739e-06
-1.21881e-06
-5.91373e-05
2.95452e-06
-1.45727e-06
-5.82895e-05
2.14487e-06
-1.63377e-06
-5.73181e-05
8.23479e-07
-1.67684e-06
-5.58553e-05
-6.38373e-07
-1.82667e-06
-5.42836e-05
-2.08105e-06
-1.81694e-06
-5.23873e-05
-3.67483e-06
-1.85114e-06
-5.04798e-05
-5.20691e-06
-1.71608e-06
-4.84107e-05
-6.68632e-06
-1.596e-06
-4.61185e-05
-7.91399e-06
-1.4951e-06
-4.3422e-05
-8.74197e-06
-1.45945e-06
-4.02249e-05
-9.03368e-06
-1.43492e-06
-3.64633e-05
-8.87766e-06
-1.37418e-06
-3.21214e-05
-8.2557e-06
-1.25753e-06
-2.7421e-05
-7.25333e-06
-1.04024e-06
-2.27231e-05
-6.17853e-06
-8.6457e-07
-1.82598e-05
-5.3321e-06
-7.872e-07
-1.4203e-05
-4.48675e-06
-8.56218e-07
-1.06893e-05
-3.37823e-06
-9.44745e-07
-7.61953e-06
-1.97596e-06
-1.04259e-06
-4.7864e-06
-5.4044e-07
-1.21102e-06
-2.06797e-06
8.1552e-07
-1.4768e-06
9.37889e-08
1.75325e-06
-1.50427e-06
1.3379e-06
2.25168e-06
-1.13747e-06
1.40149e-06
2.70855e-06
-5.72158e-07
4.85377e-06
-5.18276e-07
-3.14937e-06
4.19081e-07
1.33989e-06
-2.25948e-06
-2.67939e-06
-1.80949e-06
-2.68513e-06
-8.24602e-07
1.98221e-07
-2.0754e-06
-2.42719e-06
-1.10498e-06
-1.64302e-06
-2.41571e-06
-2.69985e-07
-1.11833e-06
-2.6239e-06
-4.92172e-07
-6.1961e-07
-2.24237e-06
-2.28496e-07
-1.59757e-07
-1.82675e-06
-2.64407e-07
1.60064e-07
-1.24903e-06
-1.21169e-07
1.06922e-07
-5.51286e-07
-9.3371e-08
-5.67191e-09
-1.87936e-07
-1.3831e-07
-1.03222e-07
-9.25805e-08
-2.22255e-07
-1.60059e-07
7.31631e-08
-2.98692e-07
-1.95619e-07
1.65963e-07
-3.62696e-07
-2.24322e-07
2.93027e-07
-3.97514e-07
-2.54927e-07
3.55573e-07
-4.10903e-07
-2.80572e-07
4.3158e-07
-4.29933e-07
-2.99239e-07
4.67284e-07
-4.45835e-07
-3.16448e-07
5.10869e-07
-4.5666e-07
-3.30391e-07
5.29821e-07
-4.66521e-07
-3.43182e-07
5.5107e-07
-4.74364e-07
-3.55018e-07
5.6109e-07
-4.8142e-07
-3.65147e-07
5.6976e-07
-4.88098e-07
-3.7395e-07
5.73765e-07
-4.94389e-07
-3.82372e-07
5.77515e-07
-5.00085e-07
-3.90399e-07
5.79383e-07
-5.05725e-07
-3.98004e-07
5.80266e-07
-5.11151e-07
-4.0531e-07
5.80224e-07
-5.16515e-07
-4.12581e-07
5.79703e-07
-5.21775e-07
-4.20023e-07
5.78824e-07
-5.26912e-07
-4.28119e-07
5.77924e-07
-5.31772e-07
-4.37286e-07
5.77104e-07
-5.36551e-07
-4.46299e-07
5.78173e-07
-5.4457e-07
-4.52378e-07
5.7852e-07
-5.55581e-07
-4.59323e-07
5.80235e-07
-5.63891e-07
-4.65517e-07
5.82777e-07
-5.71821e-07
-4.77285e-07
5.83093e-07
-5.78733e-07
-4.8972e-07
5.87127e-07
-5.87157e-07
-5.08757e-07
5.79284e-07
-5.92208e-07
-5.29819e-07
5.81445e-07
-5.963e-07
-5.61643e-07
5.6563e-07
-5.99606e-07
-5.98576e-07
5.67347e-07
-6.01965e-07
-6.62858e-07
5.39432e-07
-5.99578e-07
-7.34406e-07
5.46418e-07
-5.98742e-07
-8.92667e-07
5.1015e-07
-5.64862e-07
-1.04198e-06
5.46593e-07
-5.70044e-07
-1.38969e-06
5.3889e-07
-4.73262e-07
-1.62964e-06
6.18187e-07
-5.23883e-07
-2.26637e-06
7.76771e-07
-3.47453e-07
-2.69666e-06
9.14278e-07
-5.07266e-07
-4.00566e-06
1.39976e-06
-4.05491e-07
-4.25984e-06
8.37353e-07
-1.11727e-06
-5.64722e-06
4.88215e-07
-1.22719e-06
-3.248e-06
7.751e-08
-1.91089e-06
5.2732e-08
3.68589e-06
-1.86746e-06
9.55386e-06
4.87255e-06
-6.41268e-06
1.38268e-05
1.01486e-05
-1.31244e-05
3.30499e-05
-3.3641e-06
-1.3429e-05
7.1888e-06
-6.65958e-06
2.40546e-05
-8.8637e-06
8.99304e-06
4.1618e-06
-4.57904e-05
1.92069e-05
1.13242e-05
-6.24954e-05
9.54058e-06
6.23583e-06
-7.23159e-05
8.72852e-06
5.6523e-07
-7.639e-05
6.37065e-06
-1.14606e-06
-7.82599e-05
5.67302e-06
-1.70417e-06
-7.88308e-05
5.28338e-06
-1.51965e-06
-7.88472e-05
5.63581e-06
-1.64233e-06
-7.8481e-05
5.88148e-06
-1.61178e-06
-7.78506e-05
5.80725e-06
-1.98109e-06
-7.64803e-05
5.58809e-06
-2.18338e-06
-7.53656e-05
5.07525e-06
-2.5073e-06
-7.40584e-05
4.42201e-06
-2.76931e-06
-7.22401e-05
3.44071e-06
-3.10892e-06
-7.01852e-05
1.91405e-06
-3.1406e-06
-6.80511e-05
4.83098e-07
-3.25126e-06
-6.60576e-05
-7.85642e-07
-3.28502e-06
-6.3946e-05
-2.44626e-06
-3.33654e-06
-6.1817e-05
-4.12218e-06
-3.21027e-06
-5.9813e-05
-5.63402e-06
-3.05294e-06
-5.78892e-05
-7.00372e-06
-2.83062e-06
-5.58474e-05
-7.94091e-06
-2.83949e-06
-5.35536e-05
-8.33126e-06
-2.99307e-06
-5.08203e-05
-8.43148e-06
-3.17681e-06
-4.73016e-05
-8.33396e-06
-3.43816e-06
-4.28979e-05
-8.22636e-06
-3.42869e-06
-3.75476e-05
-8.30941e-06
-3.21797e-06
-3.16527e-05
-8.3596e-06
-2.86641e-06
-2.5466e-05
-8.21668e-06
-2.45622e-06
-1.93456e-05
-7.79331e-06
-1.70506e-06
-1.38915e-05
-6.87679e-06
-5.53287e-07
-9.03313e-06
-5.36349e-06
-3.52588e-08
-4.66157e-06
-3.92034e-06
3.64307e-07
-8.9745e-07
-3.06448e-06
1.05362e-06
1.90691e-06
-2.81776e-06
2.26509e-06
2.40432e-06
-2.80247e-06
5.01383e-06
-3.05463e-06
1.0313e-05
-3.8917e-06
1.76455e-06
2.7066e-06
-2.70102e-06
-2.22478e-06
-1.64528e-06
-2.93939e-06
-2.49129e-07
-3.37102e-07
-2.18371e-06
-1.44796e-06
-1.7349e-06
-1.6701e-06
-2.00296e-06
-9.2636e-07
-1.19334e-06
-2.25778e-06
-8.42881e-07
-7.3964e-07
-2.16287e-06
-5.33197e-07
-1.72688e-07
-1.93053e-06