/*--------------------------------*- C++ -*----------------------------------*\
| =========                 |                                                 |
| \\      /  F ield         | OpenFOAM: The Open Source CFD Toolbox           |
|  \\    /   O peration     | Version:  2.3.0                                 |
|   \\  /    A nd           | Web:      www.OpenFOAM.org                      |
|    \\/     M anipulation  |                                                 |
\*---------------------------------------------------------------------------*/
FoamFile
{
    version     2.0;
    format      ascii;
    class       surfaceScalarField;
    location    "9";
    object      phi.air;
}
// * * * * * * * * * * * * * * * * * * * * * * * * * * * * * * * * * * * * * //

dimensions      [0 3 -1 0 0 0 0];

internalField   nonuniform List<scalar> 
16448
(
-1.76749e-06
-2.01487e-06
5.28137e-07
-3.07065e-07
-2.05888e-06
5.98455e-07
-7.89145e-08
-1.07062e-06
8.42473e-07
1.09857e-07
-1.08252e-06
8.93747e-07
6.20272e-08
-8.46096e-07
8.93926e-07
1.85689e-08
-8.67717e-07
9.11176e-07
-3.73338e-08
-8.50342e-07
9.06245e-07
-8.77081e-08
-8.68639e-07
9.19014e-07
-1.2646e-07
-8.88807e-07
9.27559e-07
-1.33658e-07
-9.25555e-07
9.32752e-07
-1.39858e-07
-9.44638e-07
9.50836e-07
-1.17065e-07
-9.81443e-07
9.58649e-07
-1.04342e-07
-9.91528e-07
9.78804e-07
-7.71151e-08
-1.01581e-06
9.88578e-07
-6.29726e-08
-1.02001e-06
1.00586e-06
-4.32025e-08
-1.03415e-06
1.01437e-06
-3.40798e-08
-1.03626e-06
1.02713e-06
-2.35006e-08
-1.0443e-06
1.03372e-06
-1.92617e-08
-1.04628e-06
1.04204e-06
-1.50409e-08
-1.05123e-06
1.04701e-06
-1.40497e-08
-1.05348e-06
1.05248e-06
-1.336e-08
-1.05692e-06
1.05623e-06
-1.40581e-08
-1.0592e-06
1.05989e-06
-1.51332e-08
-1.06172e-06
1.06279e-06
-1.67239e-08
-1.06379e-06
1.06537e-06
-1.85383e-08
-1.06576e-06
1.06757e-06
-2.05602e-08
-1.06749e-06
1.06951e-06
-2.27367e-08
-1.06904e-06
1.07121e-06
-2.50476e-08
-1.07042e-06
1.07272e-06
-2.7588e-08
-1.07155e-06
1.07408e-06
-3.01919e-08
-1.07284e-06
1.07544e-06
-3.2983e-08
-1.0737e-06
1.07648e-06
-3.54384e-08
-1.07503e-06
1.07749e-06
-3.87081e-08
-1.07494e-06
1.0782e-06
-4.09689e-08
-1.07683e-06
1.07909e-06
-4.42089e-08
-1.07619e-06
1.07942e-06
-4.54872e-08
-1.07893e-06
1.0802e-06
-4.76324e-08
-1.07796e-06
1.0801e-06
-4.63585e-08
-1.0826e-06
1.08132e-06
-4.5657e-08
-1.08042e-06
1.07972e-06
-3.69604e-08
-1.09078e-06
1.08209e-06
-2.8195e-08
-1.08665e-06
1.07788e-06
-1.45223e-09
-1.10587e-06
1.07912e-06
2.82656e-08
-1.10527e-06
1.07555e-06
7.59686e-08
-1.11946e-06
1.07176e-06
1.68907e-07
-1.14582e-06
1.05288e-06
2.60348e-07
-1.15559e-06
1.06415e-06
4.69004e-07
-1.19925e-06
9.90594e-07
6.35403e-07
-1.21524e-06
1.04885e-06
1.03966e-06
-1.24935e-06
8.45093e-07
1.33455e-06
-1.28516e-06
9.90279e-07
1.22639e-06
-4.7638e-07
5.84544e-07
6.76517e-07
-7.28615e-07
1.2785e-06
-1.36265e-06
-4.78478e-08
2.08702e-06
-1.54169e-06
-2.37175e-06
2.55077e-06
-1.20944e-06
-3.06298e-06
2.73074e-06
-2.35676e-06
1.25894e-06
-1.12394e-07
-4.5026e-06
2.27636e-06
-1.30857e-07
-6.82822e-06
3.13424e-07
1.75529e-06
-2.82903e-05
-1.8979e-05
1.27353e-05
-6.01944e-05
-1.43121e-05
2.43903e-06
-1.69129e-05
-1.51921e-06
4.84732e-08
1.99372e-05
1.86093e-06
-4.12725e-06
2.16885e-05
-1.02131e-06
-7.96305e-07
2.2899e-05
-2.80547e-08
-1.21274e-06
2.3539e-05
1.1447e-06
-1.75901e-06
2.38909e-05
1.62002e-06
-1.98321e-06
2.39438e-05
1.8131e-06
-1.90442e-06
2.36521e-05
1.95046e-06
-1.69374e-06
2.30019e-05
2.00164e-06
-1.36953e-06
2.21817e-05
1.82713e-06
-1.01587e-06
2.14557e-05
1.41487e-06
-6.87631e-07
2.08932e-05
9.91033e-07
-4.25716e-07
2.04809e-05
6.43261e-07
-2.30295e-07
2.01331e-05
4.01156e-07
-5.23863e-08
1.99188e-05
1.27544e-07
8.44666e-08
1.97783e-05
-7.66263e-08
2.13453e-07
1.97164e-05
-2.3994e-07
2.94569e-07
1.96354e-05
-2.60761e-07
3.38116e-07
1.94418e-05
-1.76345e-07
3.68845e-07
1.91305e-05
3.47262e-08
2.70243e-07
1.841e-05
4.1891e-07
3.04837e-07
1.74338e-05
8.0831e-07
1.62927e-07
1.57011e-05
1.45638e-06
2.81827e-07
1.3386e-05
1.84436e-06
4.74269e-07
1.03972e-05
2.34684e-06
6.46379e-07
5.48049e-06
2.94932e-06
1.92711e-06
4.03403e-07
2.498e-06
2.64769e-06
-2.73747e-06
1.28271e-06
2.08802e-06
-4.21222e-06
5.64591e-07
1.11665e-06
-4.1018e-06
-7.51878e-08
1.47925e-07
-2.9439e-06
-7.89827e-07
-2.27665e-07
-1.83562e-06
-1.46589e-06
4.47641e-07
-1.14535e-06
-1.66785e-06
9.95216e-07
-8.08296e-07
-1.61798e-06
1.27274e-06
-1.60642e-06
1.40632e-06
-2.41987e-06
-2.8225e-06
-3.00917e-07
-1.04726e-06
-3.14318e-06
-2.88304e-07
-6.34058e-07
-1.6618e-06
1.7798e-07
-2.9614e-07
-1.728e-06
3.07573e-07
-2.66495e-07
-1.20136e-06
3.25624e-07
-2.57902e-07
-1.21983e-06
3.43522e-07
-3.03518e-07
-1.12912e-06
3.24395e-07
-3.30345e-07
-1.16514e-06
3.23333e-07
-3.56527e-07
-1.18491e-06
3.22287e-07
-3.43008e-07
-1.25562e-06
3.16551e-07
-3.27739e-07
-1.29037e-06
3.30461e-07
-2.8303e-07
-1.35811e-06
3.31959e-07
-2.51253e-07
-1.37553e-06
3.52228e-07
-2.0597e-07
-1.41974e-06
3.58654e-07
-1.78584e-07
-1.42553e-06
3.78133e-07
-1.4609e-07
-1.45172e-06
3.85073e-07
-1.2864e-07
-1.45383e-06
4.00123e-07
-1.0964e-07
-1.46927e-06
4.0597e-07
-1.00403e-07
-1.4716e-06
4.16083e-07
-9.11618e-08
-1.48137e-06
4.2089e-07
-8.6961e-08
-1.48519e-06
4.27508e-07
-8.33219e-08
-1.49191e-06
4.31348e-07
-8.19057e-08
-1.49607e-06
4.35456e-07
-8.12538e-08
-1.50076e-06
4.38389e-07
-8.15113e-08
-1.50452e-06
4.4099e-07
-8.2229e-08
-1.50808e-06
4.4303e-07
-8.33438e-08
-1.51113e-06
4.44747e-07
-8.47413e-08
-1.5138e-06
4.46159e-07
-8.63268e-08
-1.51615e-06
4.47319e-07
-8.7983e-08
-1.51813e-06
4.48241e-07
-8.99316e-08
-1.51995e-06
4.4905e-07
-9.20971e-08
-1.52112e-06
4.49591e-07
-9.38487e-08
-1.52311e-06
4.49824e-07
-9.62842e-08
-1.52269e-06
4.50189e-07
-9.70775e-08
-1.52586e-06
4.4982e-07
-9.93543e-08
-1.52394e-06
4.50029e-07
-9.81081e-08
-1.52904e-06
4.48868e-07
-9.89193e-08
-1.52588e-06
4.4874e-07
-9.42188e-08
-1.53424e-06
4.46941e-07
-9.0923e-08
-1.52881e-06
4.45106e-07
-7.79209e-08
-1.54629e-06
4.42515e-07
-6.5097e-08
-1.53635e-06
4.36883e-07
-3.17227e-08
-1.57165e-06
4.32415e-07
-2.37904e-10
-1.55888e-06
4.22137e-07
7.26643e-08
-1.60757e-06
4.15216e-07
1.83744e-07
-1.63457e-06
3.77683e-07
2.96515e-07
-1.66518e-06
3.96842e-07
5.79934e-07
-1.77963e-06
2.96984e-07
7.48032e-07
-1.77007e-06
3.86743e-07
1.41323e-06
-2.08435e-06
1.6983e-07
1.80588e-06
-2.05577e-06
3.77985e-07
2.73483e-06
-1.37467e-06
-3.0636e-08
1.90569e-06
-4.11402e-07
5.11957e-07
-9.26887e-07
1.45439e-06
1.33037e-06
-1.4944e-06
-3.26967e-06
1.46543e-06
5.32852e-07
-6.21772e-06
1.12747e-06
-3.36245e-06
7.91039e-06
-2.757e-06
-1.0347e-05
1.00544e-05
-7.93924e-07
-7.52332e-06
2.6331e-06
-5.44873e-06
-2.88961e-05
-3.13208e-05
5.68138e-06
-7.48712e-05
-2.24519e-05
3.3278e-06
-3.3954e-05
-4.49323e-06
-1.95831e-06
1.21933e-05
-3.43116e-06
-4.39629e-06
1.4645e-05
-4.29592e-07
-3.39629e-06
1.62454e-05
2.11749e-06
-3.46114e-06
1.82977e-05
2.82681e-06
-3.69262e-06
1.99041e-05
3.43183e-06
-3.44539e-06
2.07467e-05
3.91438e-06
-2.92237e-06
2.08636e-05
4.15587e-06
-2.28092e-06
2.04768e-05
4.07205e-06
-1.65517e-06
1.97493e-05
3.75039e-06
-1.19898e-06
1.916e-05
2.7187e-06
-7.63096e-07
1.89116e-05
1.46567e-06
-2.70204e-07
1.8704e-05
6.29353e-07
2.23962e-07
1.83533e-05
2.15881e-07
5.64965e-07
1.79309e-05
-2.07375e-07
7.76726e-07
1.75241e-05
-5.92407e-07
9.28691e-07
1.72225e-05
-8.99316e-07
9.63341e-07
1.69859e-05
-9.4851e-07
9.2567e-07
1.68004e-05
-7.69289e-07
7.77249e-07
1.67118e-05
-3.65936e-07
4.84009e-07
1.63839e-05
3.58686e-07
3.8422e-07
1.57293e-05
1.39047e-06
6.60818e-08
1.44641e-05
2.57156e-06
1.31694e-07
1.25064e-05
3.46979e-06
3.21041e-07
1.00608e-05
4.22703e-06
5.40781e-07
6.02732e-06
5.13909e-06
1.78883e-06
1.34772e-06
4.82367e-06
2.41951e-06
-1.99482e-06
2.85622e-06
1.95275e-06
-3.85229e-06
1.54725e-06
1.07798e-06
-4.04759e-06
8.6778e-07
-5.57913e-07
-3.0825e-06
4.55441e-08
-1.59376e-06
-1.77304e-06
-1.14648e-06
-1.46505e-06
-9.61539e-07
-1.89801e-06
-5.17128e-07
-6.86483e-07
-2.02608e-06
1.4112e-07
-2.06338e-06
4.54933e-07
-2.78177e-06
-2.90365e-06
-4.99003e-07
-1.62336e-06
-3.56456e-06
-7.37027e-07
-1.21849e-06
-1.7761e-06
-2.90567e-07
-7.34284e-07
-2.04004e-06
-1.72164e-07
-5.2769e-07
-1.30656e-06
-1.01392e-07
-4.16709e-07
-1.32232e-06
-8.48161e-09
-3.99898e-07
-1.13362e-06
-1.2306e-08
-4.04718e-07
-1.16111e-06
7.85168e-10
-4.18651e-07
-1.1481e-06
-2.28761e-08
-4.00953e-07
-1.22698e-06
-4.63379e-08
-3.76565e-07
-1.26377e-06
-5.09835e-08
-3.25347e-07
-1.34937e-06
-5.99551e-08
-2.82719e-07
-1.36898e-06
-4.91833e-08
-2.32389e-07
-1.42368e-06
-4.63892e-08
-1.98788e-07
-1.42788e-06
-3.12495e-08
-1.64143e-07
-1.46016e-06
-2.62063e-08
-1.43866e-07
-1.46053e-06
-1.35836e-08
-1.2398e-07
-1.47959e-06
-9.57028e-09
-1.14001e-07
-1.48083e-06
-7.59247e-10
-1.04632e-07
-1.49207e-06
1.32686e-09
-1.00112e-07
-1.49427e-06
4.56251e-09
-9.62801e-08
-1.50126e-06
5.51258e-09
-9.48033e-08
-1.50451e-06
6.95302e-09
-9.40869e-08
-1.50889e-06
7.40983e-09
-9.43412e-08
-1.51201e-06
7.739e-09
-9.50519e-08
-1.51501e-06
7.64345e-09
-9.61919e-08
-1.51736e-06
7.36794e-09
-9.76469e-08
-1.51924e-06
6.89093e-09
-9.93715e-08
-1.52069e-06
6.26361e-09
-1.01256e-07
-1.52175e-06
5.49595e-09
-1.033e-07
-1.52254e-06
4.63919e-09
-1.05408e-07
-1.52271e-06
3.689e-09
-1.07816e-07
-1.52352e-06
2.81336e-09
-1.10264e-07
-1.5219e-06
1.65589e-09
-1.12013e-07
-1.52393e-06
-1.78611e-10
-1.14718e-07
-1.51969e-06
-1.54109e-09
-1.14912e-07
-1.52401e-06
-4.83521e-09
-1.16543e-07
-1.51739e-06
-6.86111e-09
-1.14114e-07
-1.52533e-06
-1.13266e-08
-1.1329e-07
-1.51547e-06
-1.41626e-08
-1.03868e-07
-1.53512e-06
-2.05864e-08
-9.68504e-08
-1.5175e-06
-2.58612e-08
-6.7561e-08
-1.56369e-06
-3.72364e-08
-4.53528e-08
-1.53442e-06
-4.66613e-08
2.87916e-08
-1.61697e-06
-6.47303e-08
8.69972e-08
-1.59674e-06
-9.60233e-08
2.07153e-07
-1.69907e-06
-8.62513e-08
3.58453e-07
-1.75447e-06
-1.76444e-07
4.90337e-07
-1.82956e-06
-7.23708e-08
6.7377e-07
-2.07037e-06
-1.97397e-07
8.84607e-07
-2.28421e-06
1.76355e-08
1.87585e-06
-1.84997e-06
-5.15921e-07
1.66727e-06
8.90012e-08
-2.91785e-07
1.89748e-07
2.28462e-06
6.47319e-07
-2.17644e-06
-3.4382e-06
2.53468e-06
-3.17988e-06
-7.14452e-06
1.93024e-06
4.32775e-06
4.87348e-06
-4.47161e-06
3.05636e-06
1.39111e-05
-2.58526e-06
-3.6143e-06
1.06925e-05
-1.67125e-06
-2.67324e-05
-3.58634e-05
2.1283e-06
-3.63154e-05
-3.49102e-05
7.12769e-06
-2.20279e-06
-1.44121e-05
1.27163e-06
8.96101e-06
-1.27497e-05
-2.26088e-06
9.30608e-06
1.29744e-06
-2.36712e-06
1.18099e-05
2.62315e-06
-2.80946e-06
1.42296e-05
3.15393e-06
-2.86551e-06
1.57615e-05
4.37884e-06
-2.4777e-06
1.64229e-05
5.01425e-06
-1.82148e-06
1.62814e-05
5.20379e-06
-9.34974e-07
1.55671e-05
4.85158e-06
-5.66171e-08
1.46711e-05
3.88706e-06
8.16759e-07
1.36176e-05
2.19125e-06
1.63717e-06
1.21726e-05
5.80993e-07
2.35231e-06
1.02743e-05
-1.92838e-07
2.73973e-06
8.1941e-06
-5.62604e-07
2.87023e-06
6.2839e-06
-1.08149e-06
2.76777e-06
4.77704e-06
-1.55145e-06
2.436e-06
3.95762e-06
-2.06205e-06
1.95657e-06
3.9684e-06
-2.30049e-06
1.33279e-06
4.71088e-06
-2.21388e-06
7.10713e-07
5.90892e-06
-1.67134e-06
1.28441e-07
7.34077e-06
-6.10186e-07
-4.37621e-07
8.7463e-06
8.74303e-07
-8.60306e-07
9.32189e-06
2.70045e-06
-6.93534e-07
8.77368e-06
4.43694e-06
-4.20567e-07
7.0753e-06
5.75764e-06
1.73152e-07
3.37187e-06
6.98302e-06
1.80322e-06
-4.21395e-07
5.93389e-06
2.69014e-06
-2.73817e-06
3.1733e-06
2.1438e-06
-4.09072e-06
1.74746e-06
1.2914e-06
-4.03908e-06
1.32942e-06
-3.42189e-07
-2.86011e-06
1.03591e-06
-1.94547e-06
-1.42004e-06
2.2787e-08
-2.3495e-06
-6.79403e-07
-1.13506e-06
-1.37605e-06
-5.62289e-07
-1.5959e-06
-5.48897e-07
-1.76778e-06
-1.23557e-07
-2.84249e-06
-2.52962e-06
-4.52009e-07
-1.78378e-06
-3.77787e-06
-8.45395e-07
-1.65231e-06
-1.55866e-06
-3.489e-07
-1.19918e-06
-2.2212e-06
-2.71967e-07
-9.45804e-07
-1.31499e-06
-2.44935e-07
-7.37758e-07
-1.40569e-06
-1.24679e-07
-6.33058e-07
-1.08594e-06
-1.52375e-07
-5.84999e-07
-1.08027e-06
-1.28888e-07
-5.69671e-07
-9.90862e-07
-1.72567e-07
-5.40522e-07
-1.04444e-06
-2.1169e-07
-4.99435e-07
-1.05962e-06
-2.45241e-07
-4.35975e-07
-1.1423e-06
-2.70536e-07
-3.73437e-07
-1.1538e-06
-2.77718e-07
-3.1321e-07
-1.20254e-06
-2.81376e-07
-2.67141e-07
-1.19832e-06
-2.75633e-07
-2.27343e-07
-1.22688e-06
-2.73073e-07
-2.00712e-07
-1.22088e-06
-2.66288e-07
-1.78559e-07
-1.23756e-06
-2.64182e-07
-1.65175e-07
-1.23433e-06
-2.59885e-07
-1.5426e-07
-1.24382e-06
-2.59168e-07
-1.48371e-07
-1.24312e-06
-2.57044e-07
-1.43762e-07
-1.24867e-06
-2.57209e-07
-1.41752e-07
-1.24978e-06
-2.56746e-07
-1.40668e-07
-1.25259e-06
-2.5739e-07
-1.4062e-07
-1.25396e-06
-2.58107e-07
-1.41156e-07
-1.25525e-06
-2.59235e-07
-1.42202e-07
-1.25582e-06
-2.605e-07
-1.4361e-07
-1.25587e-06
-2.61968e-07
-1.45312e-07
-1.25546e-06
-2.63533e-07
-1.47221e-07
-1.25468e-06
-2.65167e-07
-1.49348e-07
-1.25355e-06
-2.66872e-07
-1.51688e-07
-1.25179e-06
-2.6858e-07
-1.54544e-07
-1.25049e-06
-2.70178e-07
-1.56869e-07
-1.24741e-06
-2.7217e-07
-1.59523e-07
-1.24741e-06
-2.73876e-07
-1.62501e-07
-1.24102e-06
-2.75697e-07
-1.64226e-07
-1.24379e-06
-2.78492e-07
-1.6669e-07
-1.23462e-06
-2.80295e-07
-1.67077e-07
-1.24106e-06
-2.83887e-07
-1.68127e-07
-1.2285e-06
-2.85922e-07
-1.64735e-07
-1.24671e-06
-2.91803e-07
-1.60365e-07
-1.22679e-06
-2.95069e-07
-1.41055e-07
-1.27639e-06
-3.06607e-07
-1.27654e-07
-1.23712e-06
-3.1069e-07
-6.5415e-08
-1.34783e-06
-3.3137e-07
-5.50932e-08
-1.27261e-06
-3.3444e-07
7.25705e-08
-1.48734e-06
-3.39389e-07
3.08654e-10
-1.33833e-06
-3.43869e-07
1.61404e-07
-1.74202e-06
-2.48621e-07
-1.93141e-07
-1.48795e-06
-2.27849e-07
-1.09042e-07
-2.35389e-06
-1.43988e-08
3.29065e-07
-1.69566e-06
-5.92383e-07
6.1983e-07
6.72077e-07
-8.73808e-07
-9.20496e-07
3.65048e-06
1.74484e-07
-5.05818e-06
-1.64471e-06
2.34415e-06
-8.77443e-06
-3.89445e-06
4.66211e-07
3.52382e-06
-2.78695e-06
-4.6387e-06
6.42033e-06
1.81244e-05
-7.10958e-06
5.3123e-06
1.08381e-05
6.39252e-07
-2.55628e-05
-3.33477e-05
1.49602e-06
-3.92135e-05
-3.91451e-05
8.38139e-06
-8.84835e-06
-1.28932e-05
3.2766e-06
-7.87428e-06
-1.30956e-05
1.39009e-06
-3.9693e-06
-3.42497e-07
-3.48128e-06
2.97058e-06
7.88588e-08
-4.49019e-06
-1.20959e-05
2.77148e-06
-2.40401e-06
-1.12104e-05
3.85425e-06
-7.46738e-07
7.95434e-06
4.06161e-06
7.13539e-07
7.1414e-06
4.20568e-06
1.89021e-06
4.65551e-06
4.19347e-06
3.99963e-06
-2.54069e-07
3.81505e-06
5.44266e-06
-7.07079e-06
2.58965e-06
5.66552e-06
-1.24673e-05
5.25318e-07
4.88384e-06
-1.52406e-05
-7.94024e-07
2.96974e-06
-1.62329e-05
-1.87753e-06
1.9572e-06
-1.58501e-05
-2.78857e-06
1.15161e-06
-1.46985e-05
-3.40226e-06
5.9558e-07
-1.29985e-05
-3.93817e-06
1.02363e-07
-1.09371e-05
-4.14935e-06
-2.65772e-07
-8.69274e-06
-4.02398e-06
-5.56955e-07
-6.32273e-06
-3.21783e-06
-7.8344e-07
-3.93503e-06
-2.08769e-06
-8.98645e-07
-1.82161e-06
-3.91761e-07
-8.41385e-07
-3.40093e-07
1.66272e-06
-4.50738e-07
-9.35563e-09
3.80254e-06
2.84528e-07
-1.34368e-06
5.3986e-06
1.65019e-06
-3.17328e-06
5.88851e-06
2.93165e-06
-3.91054e-06
3.87096e-06
2.88299e-06
-4.63094e-06
1.81005e-06
2.1995e-06
-5.08122e-06
1.12099e-06
1.19236e-06
-4.40381e-06
1.31953e-06
-5.06209e-07
-2.78228e-06
1.63786e-06
-1.98607e-06
-1.05897e-06
1.14061e-06
-2.51449e-06
-1.26499e-07
6.69808e-08
-1.91079e-06
-8.14087e-08
-5.1713e-07
-1.07382e-06
-4.54431e-07
-5.84901e-07
-2.75072e-06
-2.08557e-06
-1.26724e-07
-1.63759e-06
-3.88088e-06
-1.01011e-06
-1.75864e-06
-1.25116e-06
-1.86445e-07
-1.34122e-06
-2.42696e-06
-2.11653e-07
-1.11016e-06
-1.39093e-06
-1.55107e-07
-8.55521e-07
-1.63129e-06
-2.90312e-08
-7.20962e-07
-1.12513e-06
-9.53679e-08
-6.31498e-07
-1.08627e-06
-8.3468e-08
-6.11957e-07
-8.51895e-07
-1.58507e-07
-5.94485e-07
-8.42731e-07
-2.19183e-07
-5.63373e-07
-7.95902e-07
-2.94828e-07
-5.0651e-07
-8.4649e-07
-3.5267e-07
-4.39772e-07
-8.30291e-07
-3.90249e-07
-3.80785e-07
-8.50604e-07
-4.10921e-07
-3.27098e-07
-8.30193e-07
-4.21816e-07
-2.87226e-07
-8.40603e-07
-4.26154e-07
-2.55444e-07
-8.24964e-07
-4.27697e-07
-2.33095e-07
-8.31553e-07
-4.28365e-07
-2.1678e-07
-8.22254e-07
-4.28397e-07
-2.05669e-07
-8.26039e-07
-4.28894e-07
-1.97975e-07
-8.21767e-07
-4.29058e-07
-1.92949e-07
-8.24009e-07
-4.29691e-07
-1.90057e-07
-8.22618e-07
-4.30058e-07
-1.88432e-07
-8.23289e-07
-4.30932e-07
-1.87831e-07
-8.22599e-07
-4.31967e-07
-1.88035e-07
-8.22037e-07
-4.33015e-07
-1.88831e-07
-8.214e-07
-4.33627e-07
-1.90129e-07
-8.20598e-07
-4.33984e-07
-1.91841e-07
-8.19472e-07
-4.34286e-07
-1.93853e-07
-8.18006e-07
-4.34665e-07
-1.96159e-07
-8.16207e-07
-4.35041e-07
-1.9857e-07
-8.13964e-07
-4.35424e-07
-2.01615e-07
-8.11688e-07
-4.35756e-07
-2.03962e-07
-8.08886e-07
-4.36181e-07
-2.06703e-07
-8.08529e-07
-4.36139e-07
-2.09087e-07
-8.03108e-07
-4.35529e-07
-2.1155e-07
-8.0641e-07
-4.3492e-07
-2.13404e-07
-7.99498e-07
-4.33278e-07
-2.15174e-07
-8.07181e-07
-4.32108e-07
-2.16357e-07
-7.97925e-07
-4.29391e-07
-2.16966e-07
-8.17251e-07
-4.28846e-07
-2.14066e-07
-8.04225e-07
-4.25465e-07
-2.07538e-07
-8.56739e-07
-4.26169e-07
-2.00332e-07
-8.2516e-07
-4.19164e-07
-1.82419e-07
-9.49149e-07
-4.16585e-07
-1.98649e-07
-8.60385e-07
-3.95993e-07
-2.22719e-07
-1.11183e-06
-3.51428e-07
-3.58836e-07
-9.00974e-07
-3.01228e-07
-6.49051e-07
-1.33278e-06
-1.19006e-07
-1.03055e-06
-9.87544e-07
-1.18889e-07
-1.73593e-06
-1.77127e-06
1.22795e-07
-1.88305e-06
-1.1198e-06
-4.2871e-07
-6.59352e-07
2.85174e-07
-8.36755e-07
-1.61101e-06
4.92605e-06
-3.23883e-07
3.04727e-07
-2.50217e-06
-1.05839e-06
3.95649e-07
-8.69895e-07
-3.11552e-06
8.3713e-06
-2.67145e-06
-8.09174e-06
1.28985e-05
2.28544e-05
-9.25727e-06
1.38883e-05
-3.80148e-06
1.2252e-05
-3.97927e-05
-2.20492e-05
2.44106e-06
-0.000114056
-3.55587e-05
8.18305e-06
-0.000115923
-1.12189e-05
4.26402e-06
-0.000116495
-1.12224e-05
2.11831e-06
-0.000114718
-2.08718e-06
6.99549e-07
-0.000112712
-1.6832e-07
1.01508e-06
-0.000114235
2.24196e-06
2.56329e-06
-0.000117594
3.10086e-06
3.69612e-06
-0.000121662
4.0336e-06
4.10164e-06
-0.000125772
4.23815e-06
4.243e-06
-0.000129987
3.9339e-06
3.92893e-06
-0.000133682
3.24122e-06
3.28755e-06
-0.000134815
1.96056e-06
2.29864e-06
-0.00013535
1.86467e-07
1.13893e-06
-0.000135318
-9.2952e-07
5.44387e-07
-0.000130821
-1.89809e-06
-2.84092e-08
-0.000119023
-2.99903e-06
-3.43169e-07
-0.000113564
-3.69247e-06
-5.53511e-07
-0.000108184
-4.59505e-06
-5.08869e-07
-9.38863e-05
-4.96544e-06
-4.17086e-07
-5.43961e-05
-5.14699e-06
-1.45018e-07
-1.88729e-05
-5.32575e-06
-1.15683e-07
-1.65671e-05
-4.52545e-06
1.85545e-07
-1.41703e-05
-3.52732e-06
6.24269e-07
-1.21021e-05
-1.95375e-06
1.24251e-06
-1.0545e-05
-1.27614e-07
1.95469e-06
-9.27141e-06
1.59414e-06
2.57619e-06
-7.83615e-06
1.76941e-06
2.69988e-06
-6.98562e-06
8.37923e-07
2.23817e-06
-6.67793e-06
1.08663e-07
1.46126e-06
-6.08613e-06
2.2421e-07
3.98366e-07
-4.81112e-06
1.03442e-06
-8.54922e-07
-2.8258e-06
1.89923e-06
-2.02529e-06
-8.35874e-07
1.89099e-06
-2.40876e-06
1.63837e-07
1.15984e-06
-1.82953e-06
-1.33299e-08
5.5041e-07
-8.17613e-07
6.84005e-07
-2.97247e-07
-2.68454e-06
-1.52154e-06
2.59431e-07
-1.54821e-06
-3.93023e-06
-1.08697e-06
-1.8385e-06
-1.11212e-06
1.5126e-07
-1.3924e-06
-2.7821e-06
-9.09575e-08
-1.10883e-06
-1.78944e-06
1.14938e-07
-7.71896e-07
-2.13659e-06
1.68365e-07
-5.38963e-07
-1.47954e-06
1.21481e-07
-4.27161e-07
-1.32339e-06
1.25323e-07
-4.27345e-07
-8.87787e-07
3.60771e-08
-4.7541e-07
-7.54683e-07
-3.99846e-08
-5.05902e-07
-5.97948e-07
-1.67462e-07
-4.83037e-07
-6.06618e-07
-2.62739e-07
-4.44428e-07
-5.28198e-07
-3.40703e-07
-3.99361e-07
-5.06181e-07
-3.89494e-07
-3.56014e-07
-4.47397e-07
-4.26146e-07
-3.22003e-07
-4.27006e-07
-4.47613e-07
-2.9228e-07
-3.88792e-07
-4.659e-07
-2.72357e-07
-3.76297e-07
-4.75184e-07
-2.57002e-07
-3.5342e-07
-4.84195e-07
-2.47874e-07
-3.4674e-07
-4.88433e-07
-2.40696e-07
-3.36225e-07
-4.92728e-07
-2.36683e-07
-3.33735e-07
-4.94295e-07
-2.33909e-07
-3.30068e-07
-4.95331e-07
-2.32336e-07
-3.29846e-07
-4.95024e-07
-2.32081e-07
-3.29277e-07
-4.93588e-07
-2.33052e-07
-3.29635e-07
-4.9144e-07
-2.347e-07
-3.30481e-07
-4.89281e-07
-2.36688e-07
-3.31864e-07
-4.86755e-07
-2.38804e-07
-3.336e-07
-4.83767e-07
-2.41011e-07
-3.35497e-07
-4.8031e-07
-2.43488e-07
-3.37414e-07
-4.76328e-07
-2.46293e-07
-3.39279e-07
-4.71888e-07
-2.49901e-07
-3.41439e-07
-4.66653e-07
-2.52747e-07
-3.44487e-07
-4.61559e-07
-2.56697e-07
-3.48979e-07
-4.55613e-07
-2.60725e-07
-3.49912e-07
-4.49174e-07
-2.65874e-07
-3.59104e-07
-4.42168e-07
-2.70113e-07
-3.60754e-07
-4.34509e-07
-2.75155e-07
-3.76369e-07
-4.25781e-07
-2.79866e-07
-3.76665e-07
-4.16551e-07
-2.86438e-07
-4.03344e-07
-4.07344e-07
-2.90833e-07
-4.03576e-07
-3.96254e-07
-3.03356e-07
-4.5991e-07
-3.84314e-07
-3.11432e-07
-4.47821e-07
-3.6926e-07
-3.57226e-07
-5.65244e-07
-3.38117e-07
-4.08527e-07
-5.0039e-07
-3.0869e-07
-6.11176e-07
-6.99961e-07
-2.09222e-07
-8.04456e-07
-5.13666e-07
-1.9402e-07
-1.4024e-06
-7.82708e-07
4.78791e-08
-1.8192e-06
-5.22559e-07
-4.81729e-08
-2.67994e-06
-1.05554e-06
1.4503e-07
-2.60449e-06
-7.94936e-07
-4.00285e-07
-3.50028e-07
-1.01089e-06
-9.58367e-07
1.79477e-06
4.06575e-06
-1.28449e-06
-1.59332e-06
3.64003e-06
-2.7542e-06
-3.85812e-06
6.80235e-06
-5.40746e-06
7.90806e-06
-4.63614e-06
-9.80202e-06
2.76281e-05
1.18177e-05
-8.68353e-06
1.56402e-05
-1.39184e-05
1.88611e-05
-3.24246e-05
-1.27987e-05
2.05693e-06
-0.000105506
-2.63676e-05
1.18617e-05
-0.000133043
-7.90357e-06
5.43232e-06
-0.000139301
-7.62185e-06
2.18223e-06
-0.000143342
-1.62307e-06
5.79885e-07
-0.000145492
2.63494e-07
8.87915e-07
-0.000146596
2.35525e-06
1.66476e-06
-0.000147924
3.21222e-06
2.01953e-06
-0.000149244
4.09815e-06
2.31624e-06
-0.000149799
4.35447e-06
2.10943e-06
-0.000153234
4.06001e-06
1.56867e-06
-0.000154067
3.77322e-06
7.9469e-07
-0.000154957
2.85013e-06
5.86851e-08
-0.00015771
1.45349e-06
-3.65978e-07
-0.000156596
4.03982e-07
-7.38263e-07
-0.000156222
-5.16666e-07
-1.07203e-06
-0.000156255
-2.34689e-06
-1.12365e-06
-0.000154622
-3.43083e-06
-1.15559e-06
-0.000152231
-4.95678e-06
-9.58574e-07
-0.000150477
-5.89749e-06
-8.21955e-07
-0.000146374
-6.79358e-06
-5.75864e-07
-0.00011297
-6.82314e-06
-2.20528e-07
-0.000105906
-6.88354e-06
-1.09938e-07
-0.000130714
-5.5423e-06
2.96456e-07
-0.000112458
-4.20011e-06
7.27743e-07
-5.55851e-05
-2.51884e-06
9.69312e-07
-1.37635e-05
-2.33784e-06
1.04911e-06
-1.08748e-05
-1.4701e-06
6.20268e-07
-8.75605e-06
-1.00617e-06
1.8879e-07
-7.46026e-06
-2.55196e-07
-3.59548e-07
-6.26823e-06
7.67581e-07
-9.2664e-07
-4.57827e-06
1.82738e-06
-1.52387e-06
-2.22021e-06
2.65808e-06
-2.26762e-06
-3.96202e-08
3.05337e-06
-2.42157e-06
8.90384e-07
3.18134e-06
-2.01529e-06
5.0421e-07
3.3492e-06
-1.25947e-06
2.91212e-06
-8.13104e-07
-2.89479e-06
-8.09646e-07
8.93878e-07
-1.86307e-06
-3.599e-06
-1.36295e-06
-2.28362e-06
-1.05203e-06
3.60467e-07
-1.74752e-06
-2.92245e-06
-3.95742e-07
-1.41812e-06
-2.25332e-06
1.34486e-07
-9.28334e-07
-2.59138e-06
-3.49948e-08
-4.91085e-07
-1.97215e-06
5.53576e-08
-2.3142e-07
-1.6313e-06
4.824e-08
-1.20188e-07
-1.05037e-06
5.13529e-08
-2.0081e-07
-6.97795e-07
2.37324e-08
-2.89333e-07
-4.38836e-07
-7.05926e-08
-3.25845e-07
-4.1238e-07
-1.57728e-07
-3.40345e-07
-2.82361e-07
-2.31342e-07
-3.29628e-07
-2.32285e-07
-2.84617e-07
-3.21597e-07
-1.33183e-07
-3.2225e-07
-3.08843e-07
-8.59274e-08
-3.53838e-07
-2.98341e-07
-2.39885e-08
-3.75312e-07
-2.89974e-07
2.7923e-09
-3.87464e-07
-2.85172e-07
3.70103e-08
-3.95241e-07
-2.82346e-07
4.93688e-08
-3.98944e-07
-2.80899e-07
6.39274e-08
-4.0161e-07
-2.80859e-07
6.78462e-08
-4.01631e-07
-2.81343e-07
7.15478e-08
-4.01143e-07
-2.82467e-07
7.05871e-08
-3.99321e-07
-2.84004e-07
6.90244e-08
-3.96775e-07
-2.85593e-07
6.56458e-08
-3.93704e-07
-2.87612e-07
6.1528e-08
-3.90002e-07
-2.89917e-07
5.64202e-08
-3.85994e-07
-2.92492e-07
5.06766e-08
-3.81714e-07
-2.95326e-07
4.44877e-08
-3.77166e-07
-2.98579e-07
3.80792e-08
-3.72252e-07
-3.02188e-07
3.1404e-08
-3.67092e-07
-3.07065e-07
2.46148e-08
-3.61189e-07
-3.11968e-07
1.68797e-08
-3.56482e-07
-3.19183e-07
9.42497e-09
-3.51201e-07
-3.26766e-07
4.78141e-09
-3.47129e-07
-3.3616e-07
-7.3818e-09
-3.42339e-07
-3.46196e-07
-1.24463e-08
-3.38292e-07
-3.58023e-07
-3.19326e-08
-3.3262e-07
-3.71864e-07
-3.58981e-08
-3.26945e-07
-3.89674e-07
-6.57739e-08
-3.19769e-07
-4.09734e-07
-7.15372e-08
-3.11995e-07
-4.47883e-07
-1.24406e-07
-2.9736e-07
-4.84088e-07
-1.23857e-07
-2.87773e-07
-5.88434e-07
-2.12946e-07
-2.47957e-07
-6.75735e-07
-1.7274e-07
-2.40367e-07
-9.52663e-07
-2.82059e-07
-1.40981e-07
-1.16352e-06
-1.45624e-07
-1.57204e-07
-1.77574e-06
-2.07387e-07
3.69057e-08
-2.18948e-06
-2.32644e-08
-8.55666e-08
-2.95832e-06
-3.14716e-07
2.80334e-08
-2.82506e-06
-5.34105e-07
-3.94079e-07
-1.03676e-06
-2.12636e-06
-6.72817e-07
3.50836e-06
5.65831e-07
-1.0452e-06
3.56426e-06
5.11918e-06
-1.53514e-06
8.70197e-06
7.96104e-06
-6.29655e-06
1.47256e-05
1.29721e-06
-1.19572e-05
3.41204e-05
2.43027e-06
-1.00074e-05
-7.33702e-08
-8.46601e-06
2.15399e-05
-7.79641e-05
-2.91635e-06
3.10507e-06
-0.000144117
-5.07251e-06
1.17472e-05
-0.000144316
-9.43485e-07
5.34786e-06
-0.000150717
-2.44708e-07
1.67119e-06
-0.000161379
1.13273e-06
2.0723e-07
-0.000162904
2.17823e-06
-9.12244e-08
-0.000165059
3.81993e-06
3.38276e-07
-0.000166984
4.21067e-06
5.7306e-07
-0.000163283
4.98352e-06
6.80095e-07
-0.000166587
4.90381e-06
1.43671e-07
-0.000178211
4.91358e-06
-2.64655e-08
-0.000177611
4.24851e-06
-4.94403e-07
-0.000172253
3.48395e-06
-9.21469e-07
-0.000167881
2.44229e-06
-1.06169e-06
-0.000165594
1.18507e-06
-1.14621e-06
-0.000169367
-2.24788e-07
-1.33927e-06
-0.000175685
-2.21878e-06
-1.41553e-06
-0.000172697
-3.67085e-06
-1.41828e-06
-0.000169306
-5.40515e-06
-1.21196e-06
-0.000170741
-6.71417e-06
-1.11462e-06
-0.000170704
-8.02698e-06
-1.0904e-06
-0.000169182
-8.55457e-06
-1.0351e-06
-0.000165603
-8.71984e-06
-9.61494e-07
-0.000161253
-8.33819e-06
-8.12718e-07
-0.000156001
-7.51477e-06
-5.88455e-07
-0.000149912
-6.54775e-06
-3.2012e-07
-0.000142215
-5.62772e-06
-2.60348e-07
-0.000126776
-4.64696e-06
-2.62432e-07
-0.000127983
-4.16057e-06
-4.32914e-07
-0.000139258
-2.55851e-06
-4.95949e-07
-0.000135814
-1.11166e-06
-6.21834e-07
-0.000133546
1.10808e-06
-7.12525e-07
-0.000131001
2.12431e-06
-8.592e-07
-0.000126847
2.87256e-06
-7.43066e-07
-0.000110874
3.38198e-06
-3.44738e-07
-4.89607e-05
3.53771e-06
-1.6472e-08
4.2508e-06
-3.86981e-07
-3.14937e-06
4.19081e-07
1.33989e-06
-2.25948e-06
-2.67939e-06
-1.80949e-06
-2.68513e-06
-8.24602e-07
1.98221e-07
-2.0754e-06
-2.42719e-06
-1.10498e-06
-1.64303e-06
-2.41571e-06
-2.69985e-07
-1.11833e-06
-2.6239e-06
-4.92172e-07
-6.19611e-07
-2.24237e-06
-2.28496e-07
-1.59758e-07
-1.82675e-06
-2.64407e-07
1.60063e-07
-1.24903e-06
-1.21169e-07
1.06921e-07
-5.51286e-07
-9.3371e-08
-5.67289e-09
-1.87936e-07
-1.3831e-07
-1.03223e-07
-9.25805e-08
-2.22255e-07
-1.6006e-07
7.31631e-08
-2.98692e-07
-1.9562e-07
1.65963e-07
-3.62696e-07
-2.24323e-07
2.93027e-07
-3.97514e-07
-2.54928e-07
3.55573e-07
-4.10903e-07
-2.80573e-07
4.3158e-07
-4.29933e-07
-2.9924e-07
4.67284e-07
-4.45835e-07
-3.16449e-07
5.10869e-07
-4.5666e-07
-3.30392e-07
5.29821e-07
-4.66521e-07
-3.43183e-07
5.5107e-07
-4.74364e-07
-3.5502e-07
5.6109e-07
-4.8142e-07
-3.65148e-07
5.6976e-07
-4.88098e-07
-3.73951e-07
5.73765e-07
-4.94389e-07
-3.82373e-07
5.77515e-07
-5.00085e-07
-3.904e-07
5.79383e-07
-5.05725e-07
-3.98005e-07
5.80266e-07
-5.11151e-07
-4.05311e-07
5.80224e-07
-5.16515e-07
-4.12582e-07
5.79703e-07
-5.21775e-07
-4.20025e-07
5.78824e-07
-5.26912e-07
-4.2812e-07
5.77924e-07
-5.31772e-07
-4.37287e-07
5.77104e-07
-5.36551e-07
-4.463e-07
5.78173e-07
-5.4457e-07
-4.52379e-07
5.7852e-07
-5.55581e-07
-4.59324e-07
5.80235e-07
-5.63891e-07
-4.65518e-07
5.82777e-07
-5.71821e-07
-4.77286e-07
5.83093e-07
-5.78733e-07
-4.89722e-07
5.87127e-07
-5.87157e-07
-5.08758e-07
5.79284e-07
-5.92208e-07
-5.2982e-07
5.81445e-07
-5.963e-07
-5.61644e-07
5.6563e-07
-5.99606e-07
-5.98577e-07
5.67347e-07
-6.01965e-07
-6.62859e-07
5.39432e-07
-5.99578e-07
-7.34408e-07
5.46418e-07
-5.98742e-07
-8.92668e-07
5.1015e-07
-5.64862e-07
-1.04198e-06
5.46593e-07
-5.70044e-07
-1.3897e-06
5.3889e-07
-4.73262e-07
-1.62964e-06
6.18187e-07
-5.23883e-07
-2.26637e-06
7.76771e-07
-3.47453e-07
-2.69666e-06
9.14278e-07
-5.07266e-07
-4.00566e-06
1.39976e-06
-4.05491e-07
-4.25985e-06
8.37353e-07
-1.11727e-06
-5.64723e-06
4.88214e-07
-1.22719e-06
-3.24802e-06
7.75095e-08
-1.91089e-06
5.26492e-08
3.68589e-06
-1.86746e-06
9.55369e-06
4.87254e-06
-6.41268e-06
1.38264e-05
1.01487e-05
-1.31245e-05
3.30498e-05
-3.36408e-06
-1.3429e-05
-2.54107e-06
-6.65957e-06
2.40546e-05
-9.83036e-05
1.10529e-05
4.271e-06
-0.000178739
2.05201e-05
1.48285e-05
-0.000193734
9.3446e-06
6.72776e-06
-0.000201212
9.44976e-06
1.46673e-06
-0.00020552
6.44824e-06
-2.82853e-08
-0.000209058
5.93798e-06
-9.18371e-07
-0.000212329
5.81433e-06
-8.9843e-07
-0.00021291
6.0596e-06
-8.44568e-07
-0.000212355
6.30409e-06
-8.07094e-07
-0.000212556
6.15934e-06
-1.16835e-06
-0.000212678
5.9758e-06
-1.33278e-06
-0.000212532
5.29482e-06
-1.68675e-06
-0.000212199
4.57263e-06
-2.08309e-06
-0.000211311
3.50064e-06
-2.41397e-06
-0.000210382
1.89968e-06
-2.44408e-06
-0.000209336
5.11755e-07
-2.58933e-06
-0.0002088
-8.37935e-07
-2.62971e-06
-0.000209717
-2.4653e-06
-2.67332e-06
-0.000209
-4.21255e-06
-2.50549e-06
-0.000207561
-5.47418e-06
-2.45928e-06
-0.000208527
-6.83739e-06
-2.36484e-06
-0.000208999
-7.50467e-06
-2.26553e-06
-0.00020624
-7.94821e-06
-2.47653e-06
-0.00020124
-8.00702e-06
-2.57208e-06
-0.000198095
-7.85261e-06
-2.69607e-06
-0.00019889
-7.72437e-06
-2.60302e-06
-0.000193964
-7.67013e-06
-2.51124e-06
-0.000184863
-7.49232e-06
-2.09771e-06
-0.000178353
-7.12104e-06
-1.61072e-06
-0.000151016
-6.43225e-06
-8.15293e-07
-7.24817e-05
-5.26126e-06
3.88465e-07
-1.27768e-05
-5.40763e-06
1.35507e-06
-8.62519e-06
-4.2188e-06
1.704e-06
-5.05793e-06
-3.35837e-06
2.37853e-06
-6.1376e-05
-3.15808e-06
3.36979e-06
-0.000136272
-2.40744e-06
5.87582e-06
-2.61548e-06
8.91773e-06
-3.8917e-06
1.76455e-06
2.7066e-06
-2.70102e-06
-2.22478e-06
-1.64528e-06
-2.93939e-06
-2.49129e-07
-3.37102e-07
-2.18371e-06
-1.44796e-06
-1.7349e-06
-1.6701e-06
-2.00296e-06
-9.2636e-07
-1.19334e-06
-2.25778e-06
-8.42881e-07
-7.39641e-07
-2.16287e-06
-5.33197e-07