/*--------------------------------*- C++ -*----------------------------------*\
| =========                 |                                                 |
| \\      /  F ield         | OpenFOAM: The Open Source CFD Toolbox           |
|  \\    /   O peration     | Version:  2.3.0                                 |
|   \\  /    A nd           | Web:      www.OpenFOAM.org                      |
|    \\/     M anipulation  |                                                 |
\*---------------------------------------------------------------------------*/
FoamFile
{
    version     2.0;
    format      ascii;
    class       volScalarField;
    location    "9";
    object      rho;
}
// * * * * * * * * * * * * * * * * * * * * * * * * * * * * * * * * * * * * * //

dimensions      [1 -3 0 0 0 0 0];

internalField   nonuniform List<scalar> 
6144
(
1.16826
1.1685
1.16882
1.16886
1.16888
1.16889
1.16889
1.16889
1.16889
1.1689
1.1689
1.1689
1.1689
1.1689
1.1689
1.16891
1.16891
1.16891
1.16891
1.16891
1.16892
1.16892
1.16892
1.16892
1.16892
1.16892
1.16893
1.16893
1.16893
1.16893
1.16893
1.16893
1.16894
1.16894
1.16894
1.16894
1.16894
1.16895
1.16895
1.16895
1.16895
1.16895
1.16895
1.16896
1.16896
1.16896
1.16914
1.17173
1.17686
1.18157
1.18771
1.19391
1.19941
1.20353
1.20412
1.20524
1.20655
1.21113
2.16683
52.006
983.153
1026.81
1027.09
1027.09
1027.1
1027.1
1027.1
1027.1
1027.1
1027.1
1027.1
1027.1
1027.1
1027.1
1027.1
1027.1
1027.1
1027.1
1027.1
1027.1
1027.1
1027.1
1027.1
1027.1
1027.1
1027.1
1027.1
1027.1
1027.1
1027.1
1027.1
1027.1
1027.1
1027.1
1027.1
1027.1
1.16784
1.16809
1.1685
1.16864
1.16881
1.16886
1.16887
1.16889
1.16889
1.16889
1.16889
1.1689
1.1689
1.1689
1.1689
1.1689
1.16891
1.16891
1.16891
1.16891
1.16891
1.16891
1.16892
1.16892
1.16892
1.16892
1.16892
1.16892
1.16893
1.16893
1.16893
1.16893
1.16893
1.16894
1.16893
1.16894
1.16894
1.16894
1.16894
1.16895
1.16895
1.16895
1.16895
1.16895
1.16896
1.16896
1.16909
1.17029
1.17318
1.17681
1.18138
1.19007
1.20207
1.21175
1.21499
1.22031
1.22204
1.22713
1.56834
45.9201
994.85
1027.01
1027.09
1027.09
1027.1
1027.1
1027.1
1027.1
1027.1
1027.1
1027.1
1027.1
1027.1
1027.1
1027.1
1027.1
1027.1
1027.1
1027.1
1027.1
1027.1
1027.1
1027.1
1027.1
1027.1
1027.1
1027.1
1027.1
1027.1
1027.1
1027.1
1027.1
1027.1
1027.1
1027.1
1027.1
1.16781
1.16798
1.16817
1.16835
1.16859
1.16875
1.16879
1.16885
1.16887
1.16889
1.1689
1.1689
1.1689
1.1689
1.1689
1.16891
1.16891
1.16891
1.16891
1.16891
1.16891
1.16892
1.16892
1.16892
1.16892
1.16892
1.16892
1.16893
1.16893
1.16893
1.16893
1.16893
1.16893
1.16894
1.16894
1.16894
1.16894
1.16894
1.16894
1.16895
1.16895
1.16895
1.16895
1.16895
1.16897
1.16899
1.16909
1.17037
1.17524
1.18172
1.18669
1.19857
1.21026
1.2184
1.22252
1.2328
1.23301
1.23825
1.43677
60.5101
997.146
1027.05
1027.09
1027.09
1027.1
1027.1
1027.1
1027.1
1027.1
1027.1
1027.1
1027.1
1027.1
1027.1
1027.1
1027.1
1027.1
1027.1
1027.1
1027.1
1027.1
1027.1
1027.1
1027.1
1027.1
1027.1
1027.1
1027.1
1027.1
1027.1
1027.1
1027.1
1027.1
1027.1
1027.1
1027.1
1.16784
1.16798
1.1681
1.16826
1.16846
1.16863
1.16867
1.16877
1.16881
1.16886
1.16889
1.1689
1.1689
1.1689
1.1689
1.16891
1.16891
1.16891
1.16891
1.16891
1.16891
1.16892
1.16892
1.16892
1.16892
1.16892
1.16892
1.16893
1.16893
1.16893
1.16893
1.16893
1.16893
1.16894
1.16894
1.16894
1.16894
1.16894
1.16894
1.16895
1.16895
1.16895
1.16895
1.16895
1.16897
1.16902
1.16913
1.1696
1.17388
1.18205
1.19286
1.20978
1.21991
1.2269
1.23185
1.24237
1.24081
1.24827
1.44813
75.3781
998.478
1026.99
1027.05
1027.06
1027.08
1027.08
1027.08
1027.09
1027.09
1027.09
1027.09
1027.09
1027.09
1027.09
1027.1
1027.1
1027.1
1027.1
1027.1
1027.1
1027.1
1027.1
1027.1
1027.1
1027.1
1027.1
1027.1
1027.1
1027.1
1027.1
1027.1
1027.1
1027.1
1027.1
1027.1
1027.1
1.16785
1.16797
1.16809
1.16823
1.16844
1.16859
1.16869
1.16879
1.1688
1.16885
1.16888
1.1689
1.1689
1.1689
1.1689
1.16891
1.16891
1.16891
1.16891
1.16891
1.16891
1.16892
1.16892
1.16892
1.16892
1.16892
1.16892
1.16893
1.16893
1.16893
1.16893
1.16893
1.16893
1.16894
1.16894
1.16894
1.16894
1.16894
1.16894
1.16895
1.16895
1.16895
1.16895
1.16895
1.16897
1.16903
1.16915
1.16974
1.17427
1.18388
1.20075
1.21862
1.22695
1.23358
1.23962
1.24662
1.25368
1.25634
1.6131
89.6082
993.032
1025.55
1025.82
1026.1
1026.23
1026.33
1026.36
1026.44
1026.5
1026.54
1026.57
1026.61
1026.66
1026.71
1026.76
1026.82
1026.88
1026.94
1026.99
1027.04
1027.07
1027.09
1027.09
1027.1
1027.1
1027.1
1027.1
1027.1
1027.1
1027.1
1027.1
1027.1
1027.1
1027.1
1027.1
1027.1
1.16779
1.16783
1.16804
1.1681
1.16823
1.16832
1.16861
1.16876
1.16883
1.16887
1.16888
1.16889
1.1689
1.1689
1.1689
1.1689
1.16891
1.16891
1.16891
1.16891
1.16891
1.16891
1.16892
1.16892
1.16892
1.16892
1.16892
1.16892
1.16893
1.16893
1.16893
1.16893
1.16893
1.16893
1.16893
1.16894
1.16894
1.16894
1.16894
1.16894
1.16895
1.16895
1.16895
1.16895
1.16898
1.16905
1.16917
1.17062
1.1755
1.18858
1.20828
1.22567
1.23358
1.24057
1.24347
1.24742
1.24658
1.2465
1.20246
120.436
1001.66
1020.06
1020.1
1020.9
1020.91
1020.9
1020.8
1020.79
1020.8
1020.84
1020.92
1021.07
1021.27
1021.52
1021.81
1022.21
1022.68
1023.23
1023.94
1024.69
1025.46
1026.14
1026.63
1026.91
1027.05
1027.09
1027.1
1027.1
1027.1
1027.1
1027.1
1027.1
1027.1
1027.1
1027.1
1027.1
1.16768
1.16761
1.16794
1.16795
1.16795
1.16799
1.16823
1.16847
1.16874
1.16885
1.16888
1.1689
1.1689
1.1689
1.1689
1.16891
1.16891
1.16891
1.16891
1.16891
1.16891
1.16892
1.16892
1.16892
1.16892
1.16892
1.16892
1.16893
1.16893
1.16893
1.16893
1.16893
1.16894
1.16894
1.16894
1.16894
1.16894
1.16895
1.16895
1.16895
1.16895
1.16895
1.16895
1.16896
1.16899
1.16907
1.16931
1.17124
1.17698
1.19537
1.21598
1.23041
1.23915
1.24538
1.2454
1.25095
1.25125
1.25363
1.20246
158.398
993.752
1013.79
1012.6
1012.47
1012.39
1012.12
1011.92
1011.82
1011.79
1011.8
1011.96
1012
1012.1
1012.34
1012.54
1012.75
1012.93
1013.17
1013.73
1014.63
1015.94
1017.62
1019.55
1021.49
1023.45
1025.29
1026.55
1027.05
1027.1
1027.1
1027.1
1027.1
1027.1
1027.1
1027.1
1027.1
1.1675
1.16736
1.16778
1.16781
1.16785
1.16785
1.1679
1.16804
1.16841
1.16874
1.16885
1.16889
1.1689
1.1689
1.1689
1.16891
1.16891
1.16891
1.16891
1.16891
1.16892
1.16892
1.16892
1.16892
1.16892
1.16893
1.16893
1.16893
1.16893
1.16893
1.16893
1.16894
1.16894
1.16894
1.16894
1.16894
1.16894
1.16895
1.16895
1.16895
1.16895
1.16895
1.16895
1.16896
1.16899
1.16907
1.16935
1.17182
1.17906
1.20471
1.22703
1.2382
1.24112
1.23506
1.2407
1.25486
1.2653
1.25803
1.20246
214.829
994.367
1010.42
1009.12
1008.85
1008.84
1008.91
1009.05
1009.12
1009.26
1009.37
1009.52
1009.7
1009.88
1010.05
1010.13
1010.01
1009.75
1009.28
1008.84
1008.49
1008.16
1007.76
1007.35
1006.89
1006.42
1005.95
1005.61
1005.43
1005.22
1004.67
1004.11
1003.62
1003.36
1003.23
1004.97
1008.01
1.16676
1.16724
1.16745
1.16754
1.16776
1.1678
1.16774
1.16774
1.16792
1.16854
1.16884
1.16889
1.16889
1.1689
1.1689
1.1689
1.1689
1.16891
1.16891
1.16891
1.16891
1.16891
1.16891
1.16892
1.16892
1.16892
1.16892
1.16892
1.16893
1.16893
1.16893
1.16893
1.16893
1.16893
1.16894
1.16894
1.16894
1.16894
1.16894
1.16894
1.16895
1.16895
1.16895
1.16896
1.16898
1.16902
1.16913
1.17058
1.17824
1.1944
1.22363
1.23515
1.24441
1.23377
1.23199
1.24539
1.26186
1.32232
1.63221
206.092
999.422
1014.63
1014.6
1015.79
1016.75
1017.51
1018.35
1019.15
1019.87
1020.5
1020.97
1021.3
1021.44
1021.43
1021.12
1020.74
1020.11
1019.32
1018.34
1017.19
1015.86
1014.52
1013.18
1011.72
1010.12
1008.94
1008.28
1007.81
1007.6
1007.74
1008.42
1009.15
1011.16
1014.4
1018.84
1022.66
1.16656
1.16725
1.16725
1.16723
1.16742
1.16768
1.16765
1.16753
1.16742
1.16819
1.1688
1.1689
1.1689
1.1689
1.1689
1.1689
1.1689
1.16891
1.16891
1.16891
1.16891
1.16891
1.16891
1.16892
1.16892
1.16892
1.16892
1.16892
1.16893
1.16893
1.16893
1.16893
1.16893
1.16893
1.16894
1.16894
1.16894
1.16894
1.16894
1.16895
1.16895
1.16895
1.16896
1.16896
1.16897
1.169
1.16912
1.17011
1.1746
1.18327
1.21212
1.22744
1.24109
1.2392
1.23193
1.23252
1.23322
1.25471
1.50485
171.41
1008.96
1022.49
1023.05
1024.04
1024.68
1025.1
1025.42
1025.68
1025.85
1025.96
1026.02
1026.07
1026.12
1026.18
1026.22
1026.23
1026.09
1025.95
1025.71
1025.39
1024.95
1024.43
1023.83
1023.21
1022.6
1022.02
1021.43
1020.99
1020.83
1021
1021.8
1022.7
1024.03
1025.37
1026.34
1026.79
1.16493
1.16722
1.16726
1.16714
1.16699
1.16735
1.16747
1.16734
1.16706
1.16765
1.16861
1.16888
1.1689
1.16891
1.16891
1.16891
1.16891
1.16891
1.16891
1.16891
1.16892
1.16892
1.16892
1.16892
1.16892
1.16892
1.16893
1.16893
1.16893
1.16893
1.16893
1.16893
1.16894
1.16894
1.16894
1.16894
1.16894
1.16895
1.16895
1.16895
1.16895
1.16896
1.16896
1.16896
1.16897
1.16902
1.16914
1.16961
1.17198
1.1797
1.1973
1.21694
1.2295
1.2387
1.23708
1.23521
1.23088
1.23386
1.216
115.633
1018.34
1026.55
1026.71
1026.88
1026.96
1027
1027.02
1027.03
1027.04
1027.04
1027.04
1027.05
1027.05
1027.06
1027.07
1027.07
1027.07
1027.07
1027.06
1027.04
1027.01
1026.98
1026.95
1026.91
1026.88
1026.86
1026.86
1026.85
1026.84
1026.87
1026.9
1026.96
1027.02
1027.07
1027.09
1027.1
1.16388
1.16565
1.16588
1.16608
1.16618
1.16643
1.16671
1.16686
1.16666
1.1671
1.16828
1.16884
1.16891
1.16891
1.16891
1.16891
1.16891
1.16892
1.16892
1.16892
1.16892
1.16892
1.16892
1.16893
1.16893
1.16893
1.16893
1.16893
1.16893
1.16894
1.16894
1.16894
1.16894
1.16894
1.16894
1.16895
1.16895
1.16895
1.16895
1.16895
1.16896
1.16896
1.16896
1.16897
1.16898
1.16906
1.16928
1.16971
1.17083
1.17582
1.18696
1.20458
1.21259
1.22751
1.23466
1.23841
1.23037
1.23124
1.31827
60.7059
1006.17
1027.07
1027.09
1027.09
1027.09
1027.1
1027.09
1027.1
1027.1
1027.1
1027.1
1027.1
1027.1
1027.1
1027.1
1027.1
1027.1
1027.1
1027.1
1027.1
1027.1
1027.1
1027.1
1027.1
1027.1
1027.1
1027.1
1027.1
1027.1
1027.1
1027.1
1027.1
1027.1
1027.1
1027.1
1027.1
1.16346
1.16467
1.16478
1.16501
1.16521
1.1654
1.16559
1.16554
1.16586
1.1667
1.16818
1.16883
1.1689
1.16891
1.16891
1.16891
1.16891
1.16892
1.16892
1.16892
1.16892
1.16892
1.16892
1.16893
1.16893
1.16893
1.16893
1.16893
1.16893
1.16894
1.16894
1.16894
1.16894
1.16894
1.16894
1.16895
1.16895
1.16895
1.16895
1.16895
1.16895
1.16896
1.16896
1.16897
1.16899
1.16911
1.16953
1.1701
1.17079
1.17409
1.1829
1.19539
1.20996
1.21782
1.22625
1.23628
1.2307
1.23265
1.52779
36.2829
989.239
1027.01
1027.09
1027.09
1027.09
1027.1
1027.1
1027.1
1027.1
1027.1
1027.1
1027.1
1027.1
1027.1
1027.1
1027.1
1027.1
1027.1
1027.1
1027.1
1027.1
1027.1
1027.1
1027.1
1027.1
1027.1
1027.1
1027.1
1027.1
1027.1
1027.1
1027.1
1027.1
1027.1
1027.1
1027.1
1.16285
1.16383
1.16386
1.16405
1.16441
1.16474
1.16498
1.16457
1.16495
1.1662
1.1682
1.16884
1.1689
1.1689
1.16891
1.16891
1.16891
1.16891
1.16891
1.16892
1.16892
1.16892
1.16892
1.16892
1.16892
1.16892
1.16893
1.16893
1.16893
1.16893
1.16893
1.16893
1.16894
1.16894
1.16894
1.16894
1.16894
1.16895
1.16895
1.16895
1.16895
1.16895
1.16896
1.16897
1.169
1.16913
1.16952
1.17021
1.17136
1.17541
1.18526
1.19874
1.21279
1.20952
1.21463
1.23063
1.2213
1.23533
1.47916
31.8963
967.058
1026.79
1027.09
1027.09
1027.09
1027.1
1027.1
1027.1
1027.1
1027.1
1027.1
1027.1
1027.1
1027.1
1027.1
1027.1
1027.1
1027.1
1027.1
1027.1
1027.1
1027.1
1027.1
1027.1
1027.1
1027.1
1027.1
1027.1
1027.1
1027.1
1027.1
1027.1
1027.1
1027.1
1027.1
1027.1
1.16238
1.16308
1.16314
1.16342
1.16369
1.164
1.16412
1.16376
1.16401
1.16568
1.16816
1.16885
1.1689
1.1689
1.1689
1.16891
1.16891
1.16891
1.16891
1.16891
1.16891
1.16892
1.16892
1.16892
1.16892
1.16892
1.16892
1.16893
1.16893
1.16893
1.16893
1.16893
1.16894
1.16894
1.16894
1.16894
1.16894
1.16894
1.16895
1.16895
1.16895
1.16895
1.16895
1.16896
1.169
1.1691
1.16938
1.17003
1.17188
1.17843
1.19059
1.20349
1.21209
1.20668
1.20722
1.21893
1.21999
1.22462
1.45773
43.5012
973.73
1026.82
1027.09
1027.09
1027.09
1027.1
1027.1
1027.1
1027.1
1027.1
1027.1
1027.1
1027.1
1027.1
1027.1
1027.1
1027.1
1027.1
1027.1
1027.1
1027.1
1027.1
1027.1
1027.1
1027.1
1027.1
1027.1
1027.1
1027.1
1027.1
1027.1
1027.1
1027.1
1027.1
1027.1
1027.1
1.16191
1.16222
1.1623
1.16244
1.16262
1.16277
1.16287
1.16318
1.16437
1.16649
1.16834
1.16888
1.16891
1.16891
1.16891
1.16892
1.16892
1.16892
1.16892
1.16892
1.16892
1.16892
1.16893
1.16893
1.16893
1.16893
1.16893
1.16893
1.16894
1.16894
1.16894
1.16894
1.16894
1.16894
1.16895
1.16895
1.16895
1.16895
1.16895
1.16896
1.16896
1.16896
1.16896
1.16897
1.169
1.16907
1.16926
1.16975
1.17199
1.18055
1.19365
1.20321
1.2075
1.20665
1.20856
1.21326
1.2136
1.22459
1.79253
50.8889
977.887
1026.81
1027.09
1027.09
1027.09
1027.1
1027.1
1027.1
1027.1
1027.1
1027.1
1027.1
1027.1
1027.1
1027.1
1027.1
1027.1
1027.1
1027.1
1027.1
1027.1
1027.1
1027.1
1027.1
1027.1
1027.1
1027.1
1027.1
1027.1
1027.1
1027.1
1027.1
1027.1
1027.1
1027.1
1027.1
1.16785
1.16802
1.16839
1.16853
1.16871
1.16879
1.16886
1.1689
1.1689
1.1689
1.16891
1.16891
1.16891
1.16891
1.16891
1.16891
1.16892
1.16892
1.16892
1.16892
1.16892
1.16892
1.16893
1.16893
1.16893
1.16893
1.16893
1.16893
1.16894
1.16894
1.16894
1.16894
1.16894
1.16894
1.16895
1.16895
1.16895
1.16895
1.16895
1.16895
1.16896
1.16896
1.16896
1.16896
1.16896
1.16896
1.16915
1.17183
1.17703
1.1817
1.18845
1.19628
1.20408
1.21311
1.21299
1.20994
1.20552
1.23703
1.81916
54.8839
998.714
1027.04
1027.09
1027.09
1027.1
1027.1
1027.1
1027.1
1027.1
1027.1
1027.1
1027.1
1027.1
1027.1
1027.1
1027.1
1027.1
1027.1
1027.1
1027.1
1027.1
1027.1
1027.1
1027.1
1027.1
1027.1
1027.1
1027.1
1027.1
1027.1
1027.1
1027.1
1027.1
1027.1
1027.1
1027.1
1.16747
1.16749
1.16749
1.16759
1.16775
1.16791
1.16829
1.16863
1.16882
1.16889
1.1689
1.16891
1.16891
1.16891
1.16891
1.16891
1.16891
1.16892
1.16892
1.16892
1.16892
1.16892
1.16892
1.16893
1.16893
1.16893
1.16893
1.16893
1.16893
1.16894
1.16894
1.16894
1.16894
1.16894
1.16894
1.16895
1.16895
1.16895
1.16895
1.16895
1.16895
1.16895
1.16896
1.16896
1.16896
1.16897
1.16919
1.17115
1.17509
1.17955
1.18536
1.19413
1.20947
1.21979
1.2261
1.22613
1.22394
1.23312
1.4595
86.9875
1014
1027.09
1027.09
1027.09
1027.1
1027.1
1027.1
1027.1
1027.1
1027.1
1027.1
1027.1
1027.1
1027.1
1027.1
1027.1
1027.1
1027.1
1027.1
1027.1
1027.1
1027.1
1027.1
1027.1
1027.1
1027.1
1027.1
1027.1
1027.1
1027.1
1027.1
1027.1
1027.1
1027.1
1027.1
1027.1
1.16758
1.16759
1.1674
1.16736
1.16733
1.16734
1.16752
1.16787
1.16837
1.16873
1.16888
1.16891
1.16891
1.16891
1.16891
1.16891
1.16892
1.16892
1.16892
1.16892
1.16892
1.16892
1.16893
1.16893
1.16893
1.16893
1.16893
1.16893
1.16893
1.16894
1.16894
1.16894
1.16894
1.16894
1.16894
1.16895
1.16895
1.16895
1.16895
1.16895
1.16895
1.16895
1.16896
1.16896
1.16898
1.16903
1.16909
1.16988
1.17317
1.17905
1.19005
1.21175
1.22626
1.22695
1.22631
1.22543
1.21474
1.22844
1.32908
94.5795
1010.02
1027.09
1027.09
1027.09
1027.1
1027.1
1027.1
1027.1
1027.1
1027.1
1027.1
1027.1
1027.1
1027.1
1027.1
1027.1
1027.1
1027.1
1027.1
1027.1
1027.1
1027.1
1027.1
1027.1
1027.1
1027.1
1027.1
1027.1
1027.1
1027.1
1027.1
1027.1
1027.1
1027.1
1027.1
1027.1
1.16768
1.16792
1.16775
1.16769
1.16743
1.16737
1.16737
1.16745
1.1678
1.16842
1.16877
1.16888
1.1689
1.16891
1.16891
1.16891
1.16891
1.16891
1.16891
1.16892
1.16892
1.16892
1.16892
1.16892
1.16892
1.16893
1.16893
1.16893
1.16893
1.16893
1.16893
1.16893
1.16894
1.16894
1.16894
1.16894
1.16894
1.16894
1.16895
1.16895
1.16895
1.16895
1.16895
1.16897
1.16898
1.16904
1.16915
1.16928
1.17129
1.18081
1.20543
1.23452
1.23337
1.2269
1.2286
1.23235
1.23746
1.2546
1.34301
144.601
1024.42
1027.09
1027.09
1027.09
1027.09
1027.09
1027.09
1027.09
1027.1
1027.1
1027.1
1027.09
1027.09
1027.1
1027.1
1027.1
1027.1
1027.1
1027.1
1027.1
1027.1
1027.1
1027.1
1027.1
1027.1
1027.1
1027.1
1027.1
1027.1
1027.1
1027.1
1027.1
1027.1
1027.1
1027.1
1027.1
1.16746
1.16803
1.16798
1.16809
1.16785
1.16764
1.16744
1.16744
1.1675
1.16809
1.16861
1.16885
1.1689
1.16891
1.16891
1.16891
1.16891
1.16891
1.16891
1.16891
1.16892
1.16892
1.16892
1.16892
1.16892
1.16892
1.16892
1.16893
1.16893
1.16893
1.16893
1.16893
1.16893
1.16894
1.16894
1.16894
1.16894
1.16894
1.16894
1.16895
1.16895
1.16895
1.16895
1.16897
1.16902
1.16915
1.16929
1.16985
1.17333
1.1889
1.22329
1.24855
1.25566
1.26145
1.27095
1.28275
1.29733
1.31606
1.3708
183.71
1021.94
1026.46
1026.58
1026.69
1026.77
1026.83
1026.87
1026.9
1026.91
1026.91
1026.91
1026.91
1026.92
1026.93
1026.94
1026.95
1026.97
1026.99
1027.01
1027.04
1027.06
1027.08
1027.09
1027.1
1027.1
1027.1
1027.1
1027.1
1027.1
1027.1
1027.1
1027.1
1027.1
1027.1
1027.1
1027.1
1.16736
1.168
1.168
1.1682
1.16816
1.16799
1.16767
1.1675
1.16746
1.16782
1.16846
1.16882
1.1689
1.1689
1.1689
1.16891
1.16891
1.16891
1.16891
1.16891
1.16891
1.16891
1.16892
1.16892
1.16892
1.16892
1.16892
1.16892
1.16893
1.16893
1.16893
1.16893
1.16893
1.16893
1.16894
1.16894
1.16894
1.16894
1.16894
1.16894
1.16895
1.16895
1.16895
1.16898
1.16906
1.16936
1.16995
1.17179
1.17744
1.19935
1.23023
1.25734
1.26635
1.27036
1.27236
1.27267
1.25865
1.23639
1.21093
304.397
1015.17
1020.61
1020.91
1021.03
1021.1
1021.09
1021.13
1021.08
1021.09
1021.12
1021.25
1021.36
1021.48
1021.64
1021.83
1022.07
1022.42
1022.88
1023.52
1024.23
1024.96
1025.62
1026.16
1026.56
1026.84
1027.01
1027.08
1027.1
1027.1
1027.1
1027.1
1027.1
1027.1
1027.1
1027.1
1027.1
1.16713
1.16747
1.16769
1.16821
1.16828
1.16824
1.16791
1.16759
1.16746
1.16766
1.16836
1.1688
1.16889
1.1689
1.1689
1.16891
1.16891
1.16891
1.16891
1.16891
1.16891
1.16891
1.16892
1.16892
1.16892
1.16892
1.16892
1.16892
1.16892
1.16893
1.16893
1.16893
1.16893
1.16893
1.16893
1.16894
1.16894
1.16894
1.16894
1.16894
1.16895
1.16895
1.16895
1.16897
1.16907
1.16938
1.17018
1.17376
1.18165
1.21257
1.23138
1.25457
1.26411
1.26764
1.26845
1.26208
1.24393
1.23907
1.20246
401.504
1001.18
1008.12
1007.14
1006.91
1006.83
1006.54
1006.44
1006.2
1005.83
1005.58
1005.44
1005.35
1005.41
1005.63
1005.77
1006.04
1006.46
1007.04
1007.88
1009.01
1010.43
1012.2
1014.05
1016.07
1018.22
1020.6
1022.97
1024.89
1026.01
1026.41
1026.3
1026.24
1026.65
1026.79
1026.97
1026.16
1.16679
1.16675
1.16699
1.1678
1.16832
1.16834
1.16817
1.16776
1.16751
1.16757
1.16829
1.16878
1.16889
1.1689
1.1689
1.16891
1.16891
1.16891
1.16891
1.16891
1.16891
1.16892
1.16892
1.16892
1.16892
1.16892
1.16892
1.16893
1.16893
1.16893
1.16893
1.16893
1.16893
1.16894
1.16894
1.16894
1.16894
1.16894
1.16894
1.16895
1.16895
1.16895
1.16895
1.16897
1.16905
1.16931
1.17033
1.17486
1.18374
1.22721
1.24353
1.24574
1.24192
1.23738
1.23572
1.23554
1.23962
1.24397
1.22454
286.688
997.346
1009.38
1008.98
1008.99
1008.8
1007.32
1006.53
1006.01
1005.64
1005.13
1004.34
1003.54
1002.83
1002.28
1001.82
1001.32
1000.68
999.805
998.63
997.453
996.3
995.243
994.182
993.015
992.068
991.241
990.288
988.28
985.764
981.74
976.072
968.257
955.155
931.733
878.734
676.123
1.16626
1.16612
1.16635
1.16701
1.16788
1.16833
1.16828
1.16788
1.16755
1.16746
1.16824
1.16878
1.1689
1.16891
1.16891
1.16891
1.16891
1.16891
1.16891
1.16891
1.16892
1.16892
1.16892
1.16892
1.16892
1.16892
1.16893
1.16893
1.16893
1.16893
1.16893
1.16893
1.16894
1.16894
1.16894
1.16894
1.16894
1.16894
1.16895
1.16895
1.16895
1.16895
1.16895
1.16897
1.16902
1.16928
1.17034
1.17333
1.17943
1.20794
1.23949
1.2358
1.23131
1.22923
1.22882
1.22809
1.23162
1.24417
1.26733
199.083
1002.46
1017.73
1018.68
1020.25
1021.09
1021.54
1021.65
1021.84
1022.09
1022.22
1021.98
1021.64
1021.43
1021.2
1021.07
1020.76
1020.33
1019.62
1018.45
1016.76
1014.33
1011.24
1007.62
1003.59
999.668
995.555
991.648
987.002
982.154
978.299
975.384
972.72
968.415
964.579
962.483
967.492
1.16595
1.16611
1.16592
1.16608
1.16664
1.16774
1.16828
1.16795
1.16734
1.1672
1.16816
1.16877
1.1689
1.16891
1.16891
1.16891
1.16891
1.16891
1.16891
1.16891
1.16892
1.16892
1.16892
1.16892
1.16892
1.16892
1.16893
1.16893
1.16893
1.16893
1.16893
1.16893
1.16894
1.16894
1.16894
1.16894
1.16894
1.16895
1.16895
1.16895
1.16895
1.16895
1.16895
1.16896
1.16898
1.16921
1.17038
1.17288
1.17676
1.18195
1.22356
1.23504
1.23158
1.23542
1.23383
1.22712
1.22676
1.23672
1.26238
137.963
1013.8
1025.2
1025.82
1026.34
1026.53
1026.6
1026.61
1026.6
1026.59
1026.57
1026.53
1026.49
1026.45
1026.42
1026.39
1026.36
1026.29
1026.21
1026.05
1025.8
1025.38
1024.76
1023.95
1023.14
1022.55
1022.03
1020.83
1019.77
1018.8
1017.96
1017.16
1016.75
1017.65
1019.7
1022.98
1025.28
1.16454
1.16635
1.16631
1.16591
1.16578
1.16696
1.16799
1.168
1.16715
1.1668
1.16804
1.16876
1.1689
1.16891
1.16891
1.16891
1.16891
1.16891
1.16891
1.16892
1.16892
1.16892
1.16892
1.16892
1.16892
1.16893
1.16893
1.16893
1.16893
1.16893
1.16893
1.16893
1.16894
1.16894
1.16894
1.16894
1.16894
1.16895
1.16895
1.16895
1.16895
1.16895
1.16895
1.16895
1.16897
1.16925
1.17073
1.17271
1.17487
1.17821
1.19457
1.22607
1.22539
1.22556
1.22108
1.22157
1.22575
1.23478
1.23273
120.768
1023.66
1026.96
1027.03
1027.06
1027.07
1027.07
1027.07
1027.07
1027.07
1027.07
1027.07
1027.06
1027.06
1027.06
1027.06
1027.06
1027.06
1027.06
1027.06
1027.05
1027.04
1027.01
1026.98
1026.96
1026.95
1026.98
1026.99
1026.98
1027
1027.01
1027.01
1027.02
1027.04
1027.06
1027.08
1027.09
1.16372
1.16495
1.16509
1.16529
1.16523
1.16625
1.16767
1.16802
1.16696
1.16623
1.16788
1.16875
1.1689
1.1689
1.16891
1.16891
1.16891
1.16891
1.16891
1.16891
1.16892
1.16892
1.16892
1.16892
1.16892
1.16892
1.16893
1.16893
1.16893
1.16893
1.16893
1.16893
1.16894
1.16894
1.16894
1.16894
1.16894
1.16894
1.16895
1.16895
1.16895
1.16895
1.16895
1.16895
1.16897
1.16928
1.17083
1.17244
1.1733
1.17596
1.18361
1.2013
1.21372
1.22012
1.21881
1.22289
1.22406
1.23896
1.32351
98.535
1023.76
1027.09
1027.09
1027.09
1027.09
1027.09
1027.09
1027.1
1027.1
1027.09
1027.1
1027.1
1027.1
1027.1
1027.1
1027.1
1027.1
1027.1
1027.1
1027.1
1027.1
1027.1
1027.1
1027.1
1027.1
1027.1
1027.1
1027.1
1027.1
1027.1
1027.1
1027.1
1027.1
1027.1
1027.1
1027.1
1.16316
1.16382
1.16359
1.16395
1.16434
1.16513
1.16685
1.16782
1.16676
1.1656
1.16769
1.16875
1.1689
1.1689
1.1689
1.16891
1.16891
1.16891
1.16891
1.16891
1.16892
1.16892
1.16892
1.16892
1.16892
1.16892
1.16892
1.16893
1.16893
1.16893
1.16893
1.16893
1.16893
1.16894
1.16894
1.16894
1.16894
1.16894
1.16894
1.16895
1.16895
1.16895
1.16895
1.16895
1.16897
1.16928
1.17037
1.17119
1.17227
1.17614
1.18477
1.20383
1.23855
1.24097
1.23517
1.23255
1.22709
1.23304
1.35318
103.777
1022.01
1027.09
1027.09
1027.09
1027.09
1027.1
1027.1
1027.1
1027.1
1027.1
1027.1
1027.1
1027.1
1027.1
1027.1
1027.1
1027.1
1027.1
1027.1
1027.1
1027.1
1027.1
1027.1
1027.1
1027.1
1027.1
1027.1
1027.1
1027.1
1027.1
1027.1
1027.1
1027.1
1027.1
1027.1
1027.1
1.16246
1.16284
1.16257
1.16293
1.16318
1.16383
1.16574
1.16688
1.16608
1.16526
1.16755
1.16875
1.16889
1.1689
1.1689
1.1689
1.1689
1.16891
1.16891
1.16891
1.16891
1.16891
1.16891
1.16891
1.16892
1.16892
1.16892
1.16892
1.16892
1.16892
1.16893
1.16893
1.16893
1.16893
1.16893
1.16893
1.16893
1.16894
1.16894
1.16894
1.16894
1.16894
1.16895
1.16895
1.16897
1.16912
1.16961
1.17038
1.17166
1.17518
1.18467
1.21769
1.24627
1.24248
1.23833
1.23556
1.23696
1.25783
1.36136
79.9154
1014.31
1027.08
1027.09
1027.09
1027.09
1027.1
1027.1
1027.1
1027.1
1027.1
1027.1
1027.1
1027.1
1027.1
1027.1
1027.1
1027.1
1027.1
1027.1
1027.1
1027.1
1027.1
1027.1
1027.1
1027.1
1027.1
1027.1
1027.1
1027.1
1027.1
1027.1
1027.1
1027.1
1027.1
1027.1
1027.1
1.162
1.16203
1.16196
1.16224
1.16247
1.16334
1.16477
1.16516
1.16463
1.16527
1.16796
1.16884
1.1689
1.1689
1.1689
1.1689
1.1689
1.1689
1.16891
1.16891
1.16891
1.16891
1.16891
1.16891
1.16891
1.16892
1.16892
1.16892
1.16892
1.16892
1.16892
1.16893
1.16893
1.16893
1.16893
1.16893
1.16893
1.16894
1.16894
1.16894
1.16894
1.16894
1.16894
1.16895
1.16896
1.16905
1.1693
1.16985
1.17126
1.17613
1.18616
1.20186
1.23893
1.22438
1.24163
1.26164
1.28828
1.31338
1.40462
75.4901
1008.48
1027.07
1027.09
1027.09
1027.09
1027.1
1027.1
1027.1
1027.1
1027.1
1027.1
1027.1
1027.1
1027.1
1027.1
1027.1
1027.1
1027.1
1027.1
1027.1
1027.1
1027.1
1027.1
1027.1
1027.1
1027.1
1027.1
1027.1
1027.1
1027.1
1027.1
1027.1
1027.1
1027.1
1027.1
1027.1
1.16175
1.16173
1.16151
1.16149
1.16205
1.16256
1.16285
1.16304
1.16435
1.16688
1.16848
1.16888
1.16891
1.16891
1.16891
1.16891
1.16891
1.16892
1.16892
1.16892
1.16892
1.16892
1.16892
1.16892
1.16893
1.16893
1.16893
1.16893
1.16893
1.16893
1.16894
1.16894
1.16894
1.16894
1.16894
1.16895
1.16895
1.16895
1.16895
1.16895
1.16895
1.16896
1.16896
1.16896
1.16898
1.16905
1.16925
1.16972
1.17161
1.17865
1.19048
1.19995
1.20616
1.20861
1.22644
1.2597
1.26868
1.33753
1.70671
49.8094
989.094
1027
1027.09
1027.09
1027.09
1027.1
1027.1
1027.1
1027.1
1027.1
1027.1
1027.1
1027.1
1027.1
1027.1
1027.1
1027.1
1027.1
1027.1
1027.1
1027.1
1027.1
1027.1
1027.1
1027.1
1027.1
1027.1
1027.1
1027.1
1027.1
1027.1
1027.1
1027.1
1027.1
1027.1
1027.1
1.16821
1.16835
1.16863
1.16872
1.16882
1.16886
1.16888
1.1689
1.1689
1.1689
1.1689
1.1689
1.1689
1.16891
1.16891
1.16891
1.16891
1.16891
1.16891
1.16892
1.16892
1.16892
1.16892
1.16892
1.16892
1.16893
1.16893
1.16893
1.16893
1.16893
1.16893
1.16894
1.16894
1.16894
1.16894
1.16894
1.16894
1.16895
1.16895
1.16895
1.16895
1.16895
1.16895
1.16896
1.16896
1.16896
1.16905
1.17108
1.17677
1.18142
1.18524
1.19067
1.19644
1.20251
1.20738
1.20535
1.20162
1.23177
1.92252
47.1002
988.383
1026.9
1027.09
1027.09
1027.1
1027.1
1027.1
1027.1
1027.1
1027.1
1027.1
1027.1
1027.1
1027.1
1027.1
1027.1
1027.1
1027.1
1027.1
1027.1
1027.1
1027.1
1027.1
1027.1
1027.1
1027.1
1027.1
1027.1
1027.1
1027.1
1027.1
1027.1
1027.1
1027.1
1027.1
1027.1
1.16797
1.16803
1.16803
1.1682
1.16842
1.16856
1.16873
1.16884
1.16888
1.1689
1.1689
1.1689
1.1689
1.1689
1.16891
1.16891
1.16891
1.16891
1.16891
1.16891
1.16892
1.16892
1.16892
1.16892
1.16892
1.16892
1.16893
1.16893
1.16893
1.16893
1.16893
1.16893
1.16893
1.16894
1.16894
1.16894
1.16894
1.16894
1.16894
1.16895
1.16895
1.16895
1.16895
1.16895
1.16896
1.16896
1.16909
1.17109
1.17649
1.18108
1.18458
1.19021
1.20269
1.20604
1.21036
1.20975
1.21088
1.22292
1.50019
62.9237
1013.55
1027.08
1027.09
1027.09
1027.1
1027.1
1027.1
1027.1
1027.1
1027.1
1027.1
1027.1
1027.1
1027.1
1027.1
1027.1
1027.1
1027.1
1027.1
1027.1
1027.1
1027.1
1027.1
1027.1
1027.1
1027.1
1027.1
1027.1
1027.1
1027.1
1027.1
1027.1
1027.1
1027.1
1027.1
1027.1
1.16799
1.16811
1.16781
1.16789
1.168
1.16815
1.1684
1.16863
1.16879
1.16887
1.16889
1.1689
1.1689
1.1689
1.1689
1.16891
1.16891
1.16891
1.16891
1.16891
1.16891
1.16892
1.16892
1.16892
1.16892
1.16892
1.16892
1.16893
1.16893
1.16893
1.16893
1.16893
1.16893
1.16894
1.16894
1.16894
1.16894
1.16894
1.16894
1.16894
1.16895
1.16895
1.16895
1.16895
1.16896
1.16898
1.16908
1.17059
1.17543
1.18139
1.18746
1.20135
1.21635
1.21565
1.21396
1.21032
1.20345
1.23197
1.38786
93.8073
1018.52
1027.09
1027.09
1027.09
1027.1
1027.1
1027.1
1027.1
1027.1
1027.1
1027.1
1027.1
1027.1
1027.1
1027.1
1027.1
1027.1
1027.1
1027.1
1027.1
1027.1
1027.1
1027.1
1027.1
1027.1
1027.1
1027.1
1027.1
1027.1
1027.1
1027.1
1027.1
1027.1
1027.1
1027.1
1027.1
1.16777
1.16837
1.16784
1.16783
1.16781
1.16796
1.16814
1.16838
1.16862
1.1688
1.16887
1.16889
1.1689
1.1689
1.1689
1.1689
1.1689
1.16891
1.16891
1.16891
1.16891
1.16891
1.16891
1.16892
1.16892
1.16892
1.16892
1.16892
1.16892
1.16892
1.16893
1.16893
1.16893
1.16893
1.16893
1.16894
1.16893
1.16894
1.16894
1.16894
1.16894
1.16894
1.16895
1.16895
1.16896
1.16899
1.16907
1.1699
1.17336
1.18524
1.19658
1.2185
1.22607
1.21828
1.22001
1.2261
1.23882
1.26546
1.32941
131.242
1019.19
1027.09
1027.09
1027.09
1027.09
1027.1
1027.1
1027.09
1027.1
1027.1
1027.1
1027.1
1027.1
1027.1
1027.1
1027.1
1027.1
1027.1
1027.1
1027.1
1027.1
1027.1
1027.1
1027.1
1027.1
1027.1
1027.1
1027.1
1027.1
1027.1
1027.1
1027.1
1027.1
1027.1
1027.1
1027.1
1.16743
1.16857
1.16793
1.16793
1.16784
1.16794
1.16803
1.16825
1.16848
1.16872
1.16884
1.16889
1.1689
1.1689
1.1689
1.1689
1.1689
1.1689
1.16891
1.16891
1.16891
1.16891
1.16891
1.16891
1.16892
1.16892
1.16892
1.16892
1.16892
1.16892
1.16893
1.16893
1.16893
1.16893
1.16893
1.16893
1.16893
1.16894
1.16894
1.16894
1.16894
1.16894
1.16894
1.16895
1.16896
1.169
1.16905
1.16939
1.17512
1.19031
1.20655
1.23292
1.24082
1.24822
1.26195
1.28023
1.29704
1.3062
1.30657
183.844
1025.75
1027.04
1027.04
1027.05
1027.06
1027.07
1027.07
1027.08
1027.08
1027.08
1027.08
1027.09
1027.09
1027.08
1027.08
1027.08
1027.08
1027.08
1027.09
1027.09
1027.09
1027.1
1027.1
1027.1
1027.1
1027.1
1027.1
1027.1
1027.1
1027.1
1027.1
1027.1
1027.1
1027.1
1027.1
1027.1
1.16667
1.16867
1.16802
1.16809
1.16801
1.16809
1.16808
1.1683
1.16847
1.16869
1.16883
1.16888
1.16889
1.1689
1.1689
1.1689
1.1689
1.1689
1.1689
1.16891
1.16891
1.16891
1.16891
1.16891
1.16891
1.16892
1.16892
1.16892
1.16892
1.16892
1.16892
1.16893
1.16893
1.16893
1.16893
1.16893
1.16893
1.16894
1.16894
1.16894
1.16894
1.16894
1.16894
1.16895
1.16895
1.16897
1.16901
1.17023
1.17825
1.19674
1.21592
1.25061
1.27053
1.28506
1.29465
1.30219
1.31058
1.31724
1.31473
237.589
1023.47
1025.63
1025.69
1025.71
1025.8
1025.91
1026.1
1026.22
1026.27
1026.28
1026.26
1026.21
1026.18
1026.14
1026.09
1026.04
1026.03
1026.05
1026.21
1026.41
1026.62
1026.81
1026.96
1027.05
1027.09
1027.1
1027.1
1027.1
1027.1
1027.1
1027.1
1027.1
1027.1
1027.1
1027.1
1027.1
1.16562
1.16857
1.16803
1.16855
1.16841
1.16878
1.16885
1.16888
1.16888
1.16887
1.16888
1.1689
1.1689
1.16891
1.16891
1.16892
1.16892
1.16892
1.16892
1.16892
1.16892
1.16893
1.16893
1.16893
1.16893
1.16893
1.16893
1.16894
1.16894
1.16894
1.16894
1.16894
1.16894
1.16895
1.16895
1.16895
1.16895
1.16895
1.16895
1.16895
1.16896
1.16896
1.16896
1.16895
1.16895
1.16898
1.16921
1.173
1.18095
1.20524
1.22858
1.24338
1.26691
1.28347
1.29356
1.29777
1.28545
1.31328
1.36204
265.39
1014.48
1021.36
1021.87
1021.93
1021.35
1020.78
1020.49
1020.25
1020.08
1019.9
1019.8
1019.63
1019.45
1019.35
1019.33
1019.33
1019.49
1019.73
1020.08
1020.57
1021.28
1022.34
1023.66
1025.09
1026.17
1026.78
1027.03
1027.09
1027.1
1027.1
1027.1
1027.1
1027.1
1027.1
1027.1
1027.1
1.16517
1.16811
1.16827
1.16853
1.1687
1.16885
1.16886
1.16888
1.16888
1.16889
1.16889
1.16889
1.16889
1.1689
1.1689
1.1689
1.1689
1.1689
1.1689
1.16891
1.16891
1.16891
1.16891
1.16892
1.16892
1.16892
1.16892
1.16892
1.16892
1.16893