/*--------------------------------*- C++ -*----------------------------------*\
| =========                 |                                                 |
| \\      /  F ield         | OpenFOAM: The Open Source CFD Toolbox           |
|  \\    /   O peration     | Version:  2.3.0                                 |
|   \\  /    A nd           | Web:      www.OpenFOAM.org                      |
|    \\/     M anipulation  |                                                 |
\*---------------------------------------------------------------------------*/
FoamFile
{
    version     2.0;
    format      ascii;
    class       volVectorField;
    location    "9";
    object      U;
}
// * * * * * * * * * * * * * * * * * * * * * * * * * * * * * * * * * * * * * //

dimensions      [0 1 -1 0 0 0 0];

internalField   nonuniform List<vector> 
6144
(
(0.00863627 0.0207113 0.000124366)
(0.00793111 0.00299756 1.40617e-05)
(0.00417969 0.00120012 -0.00123341)
(0.00432882 -0.000357955 -0.0015903)
(0.00361779 -0.00086426 -0.0016997)
(0.003735 -4.06426e-05 -0.00174246)
(0.00370859 -0.000146887 -0.00178558)
(0.00379051 0.000551484 -0.00183239)
(0.00385395 0.000642249 -0.00191552)
(0.00398461 0.000891467 -0.00193927)
(0.00404242 0.000859903 -0.00206607)
(0.0041746 0.000854362 -0.00211081)
(0.00420716 0.000676809 -0.00224316)
(0.00429469 0.000599712 -0.00229699)
(0.00431049 0.000412355 -0.00240406)
(0.00436055 0.000353304 -0.00244903)
(0.00436975 0.000217706 -0.00252403)
(0.00439663 0.000193474 -0.00255853)
(0.00440442 0.000118196 -0.00260732)
(0.00441961 0.000113813 -0.00263358)
(0.00442643 8.39108e-05 -0.00266431)
(0.0044358 8.76513e-05 -0.00268364)
(0.00444116 8.39781e-05 -0.00270227)
(0.00444674 9.1507e-05 -0.00271584)
(0.00445058 9.9596e-05 -0.00272735)
(0.00445378 0.000110564 -0.00273628)
(0.00445604 0.000122557 -0.00274349)
(0.00445755 0.00013569 -0.00274915)
(0.00445831 0.000149795 -0.00275346)
(0.00445845 0.000163415 -0.00275638)
(0.004458 0.000184602 -0.00275843)
(0.00445502 0.000188883 -0.00275872)
(0.00445593 0.000229307 -0.00275985)
(0.00445075 0.000205795 -0.00275771)
(0.00445359 0.000286735 -0.00275685)
(0.00444739 0.000212592 -0.0027522)
(0.00445179 0.000353532 -0.00274863)
(0.00444707 0.000190611 -0.00274121)
(0.00445488 0.000436065 -0.0027351)
(0.0044501 9.09649e-05 -0.00272043)
(0.00447372 0.00054324 -0.00271449)
(0.00446859 -0.000166558 -0.00268504)
(0.00451042 0.000612353 -0.00267606)
(0.00454737 -0.000641295 -0.00263098)
(0.00453629 0.000448844 -0.0026226)
(0.00467053 -0.00168987 -0.00249621)
(0.00463818 0.000125171 -0.00256251)
(0.00474601 -0.0041011 -0.00223358)
(0.00477161 -0.000472212 -0.00259796)
(0.00424905 -0.00905931 -0.00192114)
(0.00487971 -0.00109308 -0.00304664)
(0.000832046 -0.0192137 -0.00100242)
(0.0048875 0.0095279 -0.00477017)
(0.00531157 -0.0227048 -0.00799643)
(0.0101735 0.048821 -0.0102316)
(0.00653087 -0.0406484 -0.0111167)
(0.00844659 0.068581 -0.011068)
(-0.00401013 -0.0437421 -0.0324712)
(-0.0369577 0.140807 -0.0813111)
(0.0414876 0.0233565 -0.128399)
(0.118534 -0.223714 -0.0233224)
(0.0716948 -0.0724143 -0.00703607)
(0.0234575 -0.146921 0.0030105)
(0.0264194 -0.141398 0.00562746)
(0.0219022 -0.142819 0.00642796)
(0.0133664 -0.149636 0.0081081)
(0.00715791 -0.154654 0.00906393)
(0.0032147 -0.156074 0.00869565)
(0.000191642 -0.155219 0.00751054)
(-0.00207428 -0.152313 0.00573513)
(-0.00320471 -0.147575 0.00404561)
(-0.00293283 -0.142142 0.00266458)
(-0.00162598 -0.137362 0.00167768)
(-0.000446754 -0.134052 0.000919885)
(0.000166754 -0.131674 0.0001107)
(0.000477027 -0.130077 -0.00040463)
(0.000582234 -0.12897 -0.000932222)
(0.00102794 -0.128148 -0.00118135)
(0.00104618 -0.127723 -0.0013883)
(0.000789217 -0.126945 -0.00160079)
(0.00019888 -0.125564 -0.00088379)
(-0.00113758 -0.122888 -0.00178429)
(-0.00157197 -0.117747 -9.55444e-05)
(-0.00448264 -0.111226 -0.00183297)
(-0.00532941 -0.097675 -0.00248609)
(-0.00778109 -0.0838826 -0.00187915)
(-0.0116323 -0.0628707 -0.0134557)
(-0.00770378 -0.0225726 -0.00912579)
(-0.00292537 0.00134817 -0.00191359)
(0.000348745 0.0168952 -0.00536484)
(0.00311135 0.0205161 -0.00691237)
(0.00636043 0.016225 -0.00359078)
(0.00812514 0.00964564 -0.00348566)
(0.00811486 0.00458675 -0.00435561)
(0.0078414 0.00185699 -0.00507748)
(0.00785097 0.000421602 -0.00533649)
(0.0168895 0.0225045 0.00460755)
(0.0180945 0.00907532 0.00459918)
(0.00951944 0.00475689 0.00237817)
(0.00966707 0.00285708 0.00173413)
(0.00719277 0.00120402 0.00134113)
(0.00737688 0.00193822 0.0012571)
(0.00705042 0.00152546 0.0011406)
(0.00724286 0.00215808 0.00110447)
(0.00739087 0.00211359 0.00099986)
(0.00774885 0.00228884 0.00104444)
(0.00792597 0.00207338 0.00088915)
(0.00826994 0.00196491 0.000886215)
(0.00835014 0.00162796 0.000694914)
(0.00856914 0.00145663 0.00064988)
(0.00858871 0.00115496 0.000471874)
(0.0087116 0.00102918 0.000422382)
(0.00871095 0.000818141 0.000288455)
(0.0087768 0.000751018 0.000247615)
(0.00877702 0.000627806 0.000161788)
(0.00881362 0.000596856 0.000130835)
(0.0088206 0.000538495 8.19817e-05)
(0.00884252 0.000524669 6.14602e-05)
(0.00885175 0.000503501 3.85548e-05)
(0.00886419 0.000499211 2.74001e-05)
(0.00887214 0.000496606 1.91776e-05)
(0.00887938 0.000499396 1.62478e-05)
(0.00888437 0.000504093 1.62395e-05)
(0.00888777 0.000510996 1.8965e-05)
(0.00888972 0.000519673 2.39469e-05)
(0.00889011 0.000526824 3.11169e-05)
(0.00889013 0.00054101 4.02344e-05)
(0.00888605 0.000541708 5.20975e-05)
(0.00888722 0.000577721 6.44058e-05)
(0.00887579 0.00054284 7.81382e-05)
(0.00888347 0.000627971 9.69214e-05)
(0.00886627 0.000521969 0.000113504)
(0.0088835 0.000687934 0.000141851)
(0.00886217 0.000460106 0.000163517)
(0.0088975 0.000759661 0.000204)
(0.0088661 0.000304708 0.000239982)
(0.00895108 0.000860559 0.000300432)
(0.00890111 -4.34093e-05 0.000365431)
(0.00906977 0.000947555 0.00046611)
(0.00903109 -0.000695182 0.000564114)
(0.00921001 0.000763712 0.000680952)
(0.00939463 -0.00190252 0.000973096)
(0.00950284 0.000266012 0.000923699)
(0.0100031 -0.00452948 0.00150852)
(0.00998253 -0.000974358 0.000965942)
(0.0111373 -0.00952148 0.00184711)
(0.0103949 -0.004065 4.32868e-05)
(0.00494306 -0.021071 0.000837478)
(0.00317093 -0.00399283 -0.0012782)
(-0.00486234 -0.0253053 -0.00367374)
(0.0167855 0.0434953 -0.00392584)
(0.03343 -0.0363281 -0.00201767)
(-0.0261949 0.0400118 0.00730156)
(-0.0274823 -0.0111668 -0.0109279)
(0.0269693 0.193492 -0.00127111)
(0.174017 -0.0147227 -0.0729006)
(0.173547 -0.18181 -0.0198606)
(0.0425357 0.110869 0.00695318)
(-0.0350135 -0.125647 0.012812)
(-0.0168314 -0.0701581 0.0114987)
(-0.0209378 -0.0937664 0.0119584)
(-0.0238408 -0.11252 0.0139208)
(-0.0235601 -0.119536 0.0137141)
(-0.0224034 -0.124774 0.012408)
(-0.0212514 -0.127944 0.0101178)
(-0.0199275 -0.127398 0.00731906)
(-0.0173892 -0.124326 0.00549756)
(-0.0145214 -0.11944 0.0039316)
(-0.0110636 -0.115643 0.00222576)
(-0.00778153 -0.113846 0.000378884)
(-0.0046945 -0.112749 -0.00107138)
(-0.00183634 -0.111025 -0.00196467)
(0.000339105 -0.108539 -0.00278068)
(0.00182181 -0.105598 -0.00304368)
(0.00193729 -0.104014 -0.00326287)
(0.00120968 -0.102385 -0.00286748)
(-0.000637467 -0.101984 -0.00152033)
(-0.00378559 -0.101235 -0.00215626)
(-0.00764934 -0.0985231 0.000133772)
(-0.0125083 -0.0947882 -0.00168316)
(-0.0162602 -0.0846138 -0.00223247)
(-0.019856 -0.0738719 -0.0024167)
(-0.0230328 -0.0582986 -0.0130378)
(-0.0211654 -0.0269909 -0.00985773)
(-0.0122406 -0.00490651 -0.00127933)
(-0.00675118 0.0110755 0.000942958)
(-0.00227153 0.0164003 0.0032632)
(0.00342643 0.0143268 0.00589773)
(0.00949872 0.00856332 0.00512392)
(0.0115846 0.00285375 0.00275027)
(0.0110945 0.00037159 0.000168574)
(0.0108627 -0.000293961 -0.00121916)
(0.018846 0.0214838 0.00561653)
(0.0217976 0.0136904 0.00687101)
(0.0112772 0.0078692 0.00478175)
(0.0120695 0.00679246 0.0042847)
(0.00792779 0.00301009 0.00435197)
(0.00798581 0.00329598 0.00390185)
(0.00711759 0.00218938 0.00369316)
(0.00736202 0.00268086 0.0035355)
(0.00740543 0.00247487 0.00356895)
(0.00788716 0.00266663 0.00364868)
(0.00811066 0.00234907 0.0036748)
(0.00858277 0.00224985 0.0037203)
(0.00869402 0.00180761 0.00365834)
(0.00899397 0.00162712 0.00363135)
(0.0090193 0.00126332 0.00353762)
(0.00918764 0.00113701 0.00350379)
(0.00918498 0.000895654 0.00342732)
(0.00927529 0.000831597 0.00340838)
(0.00927224 0.000694826 0.00336013)
(0.0093184 0.000668992 0.00335351)
(0.00931973 0.000604132 0.00332789)
(0.00934155 0.000591967 0.00333162)
(0.00934486 0.000567729 0.00332908)
(0.00935205 0.00056315 0.00334054)
(0.00935229 0.000559316 0.00335337)
(0.00935116 0.000561614 0.00337187)
(0.00934638 0.00056535 0.00339253)
(0.00933902 0.00057167 0.00341587)
(0.00932927 0.000579615 0.0034412)
(0.00931709 0.000588159 0.0034683)
(0.00930372 0.000600851 0.00349686)
(0.00928663 0.000601867 0.0035268)
(0.00927411 0.000636055 0.00355699)
(0.00924635 0.000607237 0.00358934)
(0.0092402 0.00068589 0.00362589)
(0.00920014 0.00059363 0.00366109)
(0.00920669 0.00074923 0.00370526)
(0.00915631 0.000547783 0.00374326)
(0.0091833 0.000826052 0.00379979)
(0.00911799 0.000424999 0.00384157)
(0.00920575 0.000949769 0.00393134)
(0.00910388 0.000124067 0.00397343)
(0.00932403 0.00111676 0.00413704)
(0.0091772 -0.000510874 0.0041539)
(0.00953369 0.00119141 0.00443602)
(0.00957406 -0.00168711 0.00444295)
(0.00985988 0.00106888 0.00464871)
(0.0105031 -0.00404222 0.00477754)
(0.0105258 0.00107687 0.00448884)
(0.0126627 -0.00796969 0.00418363)
(0.0131143 0.00255112 0.00288484)
(0.0105255 -0.0152201 0.00406183)
(0.00212719 -0.000113414 0.00249123)
(-0.0109125 -0.0254372 0.000540638)
(0.0237671 0.0284633 -0.00673422)
(0.039103 -0.0147027 0.00186333)
(-0.0590221 0.0693178 0.0237799)
(-0.0797124 -0.103435 -0.00162363)
(-0.0602391 0.137545 -0.0382386)
(0.178838 -0.0169349 -0.0504213)
(0.187899 -0.130944 -0.0200493)
(0.0711146 0.148208 0.00717804)
(0.0684384 -0.117485 0.0159213)
(0.0218471 -0.031711 0.0169874)
(-0.0046752 -0.0684345 0.0162226)
(-0.0099369 -0.0835994 0.0160479)
(-0.0167308 -0.0904269 0.0142936)
(-0.0228187 -0.0955206 0.0113539)
(-0.0262211 -0.0975255 0.00745982)
(-0.0260811 -0.0953998 0.00352469)
(-0.0227796 -0.0904866 2.61858e-05)
(-0.0131946 -0.0846778 -0.00352779)
(-0.00383972 -0.0771698 -0.00769206)
(6.54534e-05 -0.0676488 -0.0107942)
(0.000922721 -0.0577281 -0.0131087)
(0.00258261 -0.0465772 -0.0122103)
(0.00431016 -0.0372446 -0.010566)
(0.00645147 -0.0303394 -0.00841756)
(0.00763859 -0.0286865 -0.00542872)
(0.00732392 -0.0306249 -0.00276829)
(0.00502469 -0.0358021 -0.000416238)
(0.000583819 -0.0428225 0.00200797)
(-0.00583329 -0.0507484 0.00389845)
(-0.0135051 -0.0579757 0.00187689)
(-0.0192743 -0.0567286 0.00161025)
(-0.0237974 -0.0523939 -0.00289937)
(-0.0322104 -0.0407863 -0.015297)
(-0.0322355 -0.0135927 -0.0115938)
(-0.0180344 1.22222e-05 -0.00208714)
(-0.00982392 0.011173 0.000915927)
(-0.00634369 0.0144228 0.00408374)
(-0.00304192 0.0109559 0.00934446)
(0.00306269 0.00510662 0.00993028)
(0.00859456 0.000454718 0.00706643)
(0.0102423 -0.000966577 0.00456307)
(0.010568 -0.00088954 0.0023332)
(0.0178698 0.0187444 0.00587038)
(0.0233899 0.0154769 0.00727312)
(0.0110256 0.00886799 0.00482456)
(0.0136146 0.0106783 0.00421929)
(0.00840724 0.00529228 0.00478688)
(0.00861576 0.00597426 0.00399112)
(0.00704447 0.00361465 0.00405674)
(0.00710312 0.00402857 0.00382188)
(0.00682699 0.00337283 0.00393948)
(0.0072672 0.00357858 0.00409166)
(0.00742185 0.00306968 0.00431599)
(0.00794043 0.00297795 0.00446705)
(0.00800492 0.00235385 0.00453466)
(0.00832044 0.00214622 0.00455292)
(0.00829027 0.00166655 0.00453494)
(0.00846424 0.0015294 0.00452455)
(0.00841921 0.00122104 0.00450045)
(0.00850923 0.00115954 0.00450209)
(0.00847554 0.000984203 0.00449263)
(0.00851621 0.000960078 0.00450823)
(0.00849537 0.000873716 0.00451161)
(0.00850999 0.000862526 0.00453534)
(0.00849949 0.000827111 0.00455086)
(0.00849857 0.000822937 0.00457699)
(0.00848955 0.000813327 0.00460203)
(0.00848044 0.000813482 0.00463054)
(0.00846721 0.000814529 0.00465926)
(0.00845129 0.000818892 0.00468949)
(0.00843294 0.000824854 0.00472014)
(0.00841267 0.000831815 0.00475078)
(0.00839097 0.000842501 0.00478146)
(0.00836593 0.00084421 0.00481159)
(0.00834462 0.000874244 0.00484223)
(0.00831252 0.000852837 0.00487257)
(0.00830091 0.000920408 0.00490457)
(0.008251 0.000842768 0.00493782)
(0.00825349 0.000985808 0.00497764)
(0.00818813 0.00080957 0.00501232)
(0.00821075 0.00106514 0.00505846)
(0.00812599 0.000724332 0.00508723)
(0.00821525 0.001198 0.00516023)
(0.00808581 0.000488574 0.00516908)
(0.0083388 0.00141466 0.00532455)
(0.00811727 -7.83188e-05 0.00526294)
(0.00865446 0.00169733 0.00557844)
(0.00835818 -0.00121566 0.00536959)
(0.00922323 0.00206609 0.0057299)
(0.00901429 -0.00321588 0.00531645)
(0.0102239 0.00348064 0.00508391)
(0.0100982 -0.00600861 0.00428446)
(0.0129718 0.00911011 0.0031442)
(0.0108573 -0.00893246 0.00546929)
(-0.00263081 0.00774547 0.00598205)
(-0.0148879 -0.0186124 1.65828e-05)
(0.00718719 0.0347767 -0.00310734)
(0.0309109 0.00403756 0.00958022)
(0.0150422 0.124657 0.0267829)
(-0.0744306 -0.1388 0.0260172)
(-0.0795294 0.200757 -0.0788747)
(0.198178 -0.0840058 -0.0282503)
(0.213683 -0.117944 -0.0194553)
(0.0722212 0.124211 -0.00227948)
(0.0691274 -0.0167439 0.00685938)
(-0.0285407 0.0540165 0.0195117)
(-0.0145877 -0.0275088 0.0224256)
(-0.0178649 -0.0281477 0.015106)
(-0.0219624 -0.044673 0.00680711)
(-0.0242373 -0.0509724 -0.000110451)
(-0.0244931 -0.0489299 -0.0060429)
(-0.0239403 -0.0410456 -0.0117064)
(-0.0219391 -0.0255283 -0.0203116)
(-0.0152798 0.00725941 -0.0232264)
(-0.00630429 0.0448355 -0.0232806)
(-0.000301232 0.0598226 -0.0105707)
(0.00409636 0.0676234 -0.00592998)
(0.00887045 0.0684678 -0.00177963)
(0.0123633 0.0640904 0.000292457)
(0.0154079 0.057623 0.00210442)
(0.0162532 0.0483903 0.00320626)
(0.0148557 0.0380401 0.00369796)
(0.0113944 0.0267724 0.00369126)
(0.00547749 0.0152838 0.00331495)
(-0.00299189 0.00386263 0.0022763)
(-0.0136377 -0.00541603 -0.00048726)
(-0.0247824 -0.0105812 -0.00498858)
(-0.0350602 -0.00946407 -0.0132872)
(-0.0390956 0.00174978 -0.0168974)
(-0.0267188 0.00840212 -0.00927855)
(-0.0126273 0.0107979 -0.00356924)
(-0.00654896 0.0158288 0.000967868)
(-0.00540877 0.0149984 0.00600246)
(-0.00515396 0.0097403 0.010555)
(-0.00149154 0.00245328 0.0109362)
(0.00400242 -0.00244532 0.00806651)
(0.00607814 -0.00385523 0.00530285)
(0.00702937 -0.00270921 0.00321954)
(0.014766 0.0157776 0.00529691)
(0.0245233 0.0157538 0.00705577)
(0.00896813 0.00748973 0.0034923)
(0.0146204 0.0125652 0.00245931)
(0.00843979 0.0056315 0.00325908)
(0.00930435 0.00725425 0.00194742)
(0.00677934 0.00394881 0.00274625)
(0.00660026 0.00456396 0.00257544)
(0.00568294 0.00345088 0.00304593)
(0.00582026 0.00389552 0.00346552)
(0.00569886 0.00335217 0.00402364)
(0.00607516 0.00338886 0.00444868)
(0.00604306 0.00269446 0.00471107)
(0.00623851 0.00254635 0.00485441)
(0.00614159 0.00199645 0.00490731)
(0.0062457 0.00187518 0.00493561)
(0.0061556 0.00152365 0.00493739)
(0.0062072 0.00146855 0.00495302)
(0.0061455 0.00126493 0.00495869)
(0.00616293 0.00124652 0.00498175)
(0.00612208 0.00114137 0.00499346)
(0.00612149 0.00113053 0.00502062)
(0.00609533 0.00108444 0.00503816)
(0.00608144 0.00107771 0.00506647)
(0.00605976 0.00106133 0.00509496)
(0.0060387 0.00105775 0.00512576)
(0.00601452 0.00105496 0.00515145)
(0.00598823 0.00105637 0.0051748)
(0.00595984 0.00105991 0.00519632)
(0.00592982 0.00106519 0.00521769)
(0.00589834 0.00107391 0.00523929)
(0.00586427 0.00107678 0.00526104)
(0.00583164 0.00110029 0.00528327)
(0.00579345 0.00108378 0.00530187)
(0.00577059 0.00114109 0.00532122)
(0.00571485 0.00107208 0.0053326)
(0.00571015 0.0011955 0.00534476)
(0.00564298 0.0010423 0.00533904)
(0.00566208 0.00126136 0.00533718)
(0.00557924 0.000978611 0.00531073)
(0.00566435 0.00137078 0.00531478)
(0.00554969 0.000809362 0.00525652)
(0.00581915 0.00157838 0.00530984)
(0.00559252 0.000385936 0.00516032)
(0.0062575 0.00195096 0.00532479)
(0.00573662 -0.00037831 0.00493425)
(0.00713622 0.00283355 0.00508313)
(0.00594895 -0.00107912 0.00417442)
(0.00846504 0.00556206 0.00347908)
(0.0063146 -0.000271732 0.00248226)
(0.0110934 0.0127684 0.00204496)
(0.00693569 0.00129886 0.00551118)
(-0.00405972 0.0228254 0.00712137)
(-0.0223432 -0.0207455 -0.00161858)
(0.0162896 0.0474292 0.0214424)
(0.0182793 -0.0551163 0.0296282)
(0.0154307 0.0643998 0.0810859)
(-0.105703 -0.128093 0.0555601)
(-0.0165183 0.187464 -0.16998)
(0.137012 -0.111008 -0.00162674)
(0.192683 -0.0936122 -0.0163117)
(0.0655859 0.120556 -0.00843776)
(0.0763594 0.0477582 0.00072451)
(0.0202865 0.0768171 0.0037352)
(0.0136861 0.0438597 0.000733564)
(-0.00874482 0.0437553 -0.00575239)
(-0.0128497 0.0498978 -0.0125403)
(-0.0194674 0.0629125 -0.0157355)
(-0.0220791 0.0829097 -0.017516)
(-0.0229053 0.10005 -0.0171213)
(-0.0208618 0.115102 -0.0126163)
(-0.013556 0.125738 -0.00624022)
(-0.00223571 0.131547 -0.000339815)
(0.00488904 0.130204 0.0039112)
(0.01079 0.129059 0.00618091)
(0.0148579 0.123627 0.00745481)
(0.017713 0.117764 0.00762774)
(0.0200749 0.109826 0.00680715)
(0.0213841 0.101199 0.00532931)
(0.0208916 0.090838 0.00339644)
(0.018395 0.0801338 0.00107499)
(0.0136433 0.0689005 -0.0015617)
(0.00623359 0.0571579 -0.00471801)
(-0.00318416 0.0472906 -0.00808625)
(-0.0129975 0.0381759 -0.011586)
(-0.0183806 0.0332476 -0.0134786)
(-0.0177036 0.0274081 -0.0112701)
(-0.00980826 0.0227168 -0.00612514)
(-0.0042372 0.0212308 -0.00162778)
(-0.00339518 0.0198611 0.00298061)
(-0.00545803 0.0158097 0.00748264)
(-0.00787042 0.00918782 0.0104289)
(-0.00702618 0.00115861 0.00999357)
(-0.00324691 -0.00427758 0.00641846)
(-0.000917089 -0.00473478 0.00298422)
(-0.0028813 -0.00253036 0.00102584)
(0.0116232 0.0123036 0.00519596)
(0.0251771 0.017137 0.0057914)
(0.00711047 0.00560469 0.000320702)
(0.0161485 0.0146545 -0.000891606)
(0.00927678 0.00460655 -0.000577643)
(0.011143 0.0078432 -0.00177588)
(0.00746259 0.00245786 -0.000550802)
(0.0070407 0.00364975 -0.000979296)
(0.00506212 0.00188243 0.000203379)
(0.0048026 0.00309531 0.0012366)
(0.00434673 0.00274482 0.00250701)
(0.0045686 0.00318191 0.0034561)
(0.00437166 0.00257866 0.00410663)
(0.0043793 0.00261669 0.00452416)
(0.00418268 0.00208627 0.00473972)
(0.00415352 0.00205234 0.00487696)
(0.0040114 0.00169328 0.00494168)
(0.00399583 0.00167207 0.00499227)
(0.00391147 0.00146099 0.00501615)
(0.00390667 0.0014633 0.0050428)
(0.00386791 0.00135442 0.00505467)
(0.00386875 0.00135289 0.00506934)
(0.00385321 0.00130428 0.00506845)
(0.00385136 0.00129789 0.00507028)
(0.00384278 0.00127904 0.00506024)
(0.00383566 0.00127701 0.00504986)
(0.00383031 0.00127669 0.00504033)
(0.00382508 0.00128033 0.00503051)
(0.00381855 0.00128455 0.00501859)
(0.00381015 0.001289 0.00500378)
(0.00379961 0.00129578 0.00498563)
(0.00378656 0.00129798 0.00496469)
(0.00377198 0.00131964 0.00493867)
(0.00375595 0.00130847 0.00490848)
(0.00375139 0.00135903 0.00487699)
(0.00372515 0.00130604 0.00483547)
(0.00374183 0.00142331 0.00479305)
(0.0037099 0.00130073 0.00473909)
(0.00375072 0.00150493 0.00469151)
(0.0037108 0.00127629 0.00463194)
(0.00381024 0.00162156 0.00458841)
(0.00376261 0.00120144 0.00451627)
(0.00402471 0.00185244 0.00449743)
(0.00388887 0.00100783 0.00437746)
(0.00449027 0.00235271 0.00436585)
(0.00402266 0.000847028 0.00404019)
(0.00512252 0.00366306 0.00368942)
(0.00394241 0.00164345 0.00282502)
(0.00546945 0.00721942 0.00106814)
(0.00395974 0.00483411 0.00115508)
(0.00693692 0.0152319 0.0014252)
(0.00540036 0.0066309 0.00815917)
(0.00328967 0.0239608 0.0110925)
(-0.0229325 -0.0243803 0.0195841)
(0.00811303 0.0140623 0.0461843)
(-0.00662105 -0.00684299 0.0498896)
(0.0356836 0.0611676 0.107504)
(-0.0868263 -0.117344 0.081382)
(0.0408856 0.0248507 -0.168181)
(0.0745578 -0.0931453 0.0129584)
(0.146615 -0.032321 -0.0222154)
(0.0483367 0.13796 -0.00840635)
(0.04877 0.130385 -0.00104528)
(0.0137244 0.154226 0.00247499)
(0.00248141 0.154507 -0.00115774)
(-0.00736098 0.161751 -0.00341345)
(-0.0127528 0.167289 -0.00482961)
(-0.0156617 0.174876 -0.00437053)
(-0.0190257 0.179699 -0.00244242)
(-0.0155543 0.184777 0.000745693)
(-0.013232 0.186909 0.00474014)
(-0.00694339 0.188201 0.0076075)
(-0.00141693 0.187912 0.0107968)
(0.00343433 0.185553 0.0126818)
(0.00737764 0.183215 0.0136887)
(0.0130808 0.178475 0.0143912)
(0.0174956 0.172502 0.0146925)
(0.0222766 0.164568 0.0140671)
(0.0261783 0.154884 0.0134112)
(0.0284498 0.143352 0.0122416)
(0.0286439 0.13001 0.0105216)
(0.0264592 0.115277 0.00829901)
(0.022038 0.0998354 0.0055216)
(0.0155443 0.0842592 0.00283115)
(0.00814871 0.0686724 0.000524366)
(0.00268256 0.0548657 -0.000389469)
(0.00133584 0.0425438 0.000297577)
(0.00258658 0.0327028 0.00224514)
(0.00396196 0.0264657 0.00505034)
(0.00321088 0.0215053 0.00809306)
(-0.000434568 0.0159001 0.0105475)
(-0.00461915 0.0080392 0.0116881)
(-0.00541632 -0.000818727 0.0110258)
(-0.00382284 -0.00671071 0.0088413)
(-0.00233027 -0.00749759 0.00424747)
(-0.00237335 -0.00377448 -0.00119225)
(0.00771716 0.00890168 0.00134583)
(0.0246059 0.0216719 0.00504884)
(0.00673726 0.00609736 -0.00350089)
(0.0181162 0.0186402 -0.00221506)
(0.0125566 0.00564766 -0.00414928)
(0.0146623 0.0101284 -0.00319823)
(0.0102423 0.00219688 -0.00279799)
(0.00861617 0.00320671 -0.00320329)
(0.00537039 -0.000114058 -0.00239211)
(0.00402338 0.0014096 -0.00124552)
(0.002714 0.00113603 0.000378968)
(0.00267706 0.00214067 0.00185878)
(0.0020469 0.00175911 0.00280585)
(0.00183005 0.00212035 0.00346831)
(0.00137789 0.00174146 0.00381728)
(0.00117492 0.00191304 0.00407453)
(0.000878988 0.00163624 0.00418558)
(0.000751996 0.00172659 0.0042809)
(0.00057126 0.00155692 0.00431802)
(0.000497621 0.00162005 0.00435506)
(0.000413513 0.00153086 0.00436229)
(0.000381762 0.00156227 0.00437017)
(0.000349257 0.00152649 0.00435544)
(0.000340907 0.00153564 0.00434374)
(0.000334723 0.0015264 0.00432027)
(0.000337219 0.00152808 0.00429517)
(0.000342049 0.0015271 0.00426452)
(0.000352053 0.00152984 0.0042319)
(0.000365795 0.00153302 0.00419735)
(0.000382091 0.00153745 0.00416075)
(0.000399979 0.00154427 0.00412122)
(0.000420087 0.00154986 0.00407895)
(0.000444126 0.00157102 0.00403088)
(0.000472931 0.0015667 0.00397714)
(0.000501807 0.00162377 0.0039198)
(0.000509373 0.00159185 0.0038594)
(0.00054647 0.00171519 0.00380597)
(0.000545432 0.00162589 0.00376679)
(0.000615427 0.00184123 0.00375947)
(0.00061616 0.00167009 0.00375302)
(0.000747189 0.0020211 0.00376086)
(0.00075874 0.00172981 0.00375166)
(0.0010192 0.00234564 0.0037665)
(0.000992857 0.00183017 0.0037261)
(0.00148772 0.00304692 0.00367696)
(0.00125802 0.00224386 0.003461)
(0.00196121 0.00463276 0.00296348)
(0.00123948 0.00368704 0.00227855)
(0.00194413 0.00820299 0.000332628)
(0.00103566 0.00687449 0.000839526)
(0.00317128 0.0159284 0.000543312)
(0.00308061 0.00739415 0.0076115)
(0.008536 0.0241913 0.00970633)
(-0.0137715 -0.0198945 0.0145598)
(-0.0297565 -0.00397088 0.022854)
(-0.0400851 -0.037003 0.0469285)
(0.0197999 -0.0299901 0.0991378)
(-0.010433 -0.11079 0.0905278)
(0.0310029 -0.0931494 -0.159603)
(0.0388906 -0.0724751 0.0139394)
(0.0654539 0.041656 -0.0115019)
(0.0211187 0.197409 -0.00817759)
(0.0210716 0.217953 0.00603886)
(0.00376185 0.234802 0.00714133)
(-0.00165787 0.242442 0.00883839)
(-0.0101652 0.248428 0.00651083)
(-0.0138699 0.252277 0.0075134)
(-0.0167721 0.253117 0.00709085)
(-0.0177028 0.254191 0.00879877)
(-0.0171529 0.250993 0.00970635)
(-0.0146381 0.249109 0.012485)
(-0.0104279 0.248375 0.0137461)
(-0.00644558 0.24113 0.0155643)
(-0.000911606 0.235653 0.0170268)
(0.00465447 0.22876 0.0182165)
(0.0111054 0.223213 0.0186705)
(0.0177046 0.21591 0.0199599)
(0.0242926 0.207212 0.020188)
(0.0303108 0.198519 0.0206671)
(0.0347991 0.188636 0.0210538)
(0.0372659 0.178508 0.021046)
(0.0371811 0.165677 0.0203794)
(0.0350131 0.151932 0.0191799)
(0.0305194 0.134688 0.0171146)
(0.0242391 0.116117 0.0138599)
(0.0177706 0.0972171 0.0106544)
(0.0126038 0.0790028 0.00772172)
(0.00814711 0.0626954 0.00591723)
(0.00317496 0.0473581 0.00511209)
(-0.00199298 0.0339043 0.00576606)
(-0.00697582 0.0234984 0.00715284)
(-0.0105976 0.0124694 0.00775758)
(-0.0128472 0.00299423 0.00678287)
(-0.0147564 -0.00360132 0.00334476)
(-0.01662 -0.00617243 -0.00481912)
(-0.0240439 -0.00406032 -0.00940168)
(0.00296005 0.00469936 -0.00171757)
(0.019874 0.0273638 0.00493108)
(0.00645915 0.00649338 -0.00580816)
(0.0178195 0.0220887 0.000395404)
(0.0148871 0.00650575 -0.00459798)
(0.0167595 0.0115369 -0.00161885)
(0.013296 0.00305452 -0.00265573)
(0.0107749 0.00369973 -0.00280162)
(0.00697949 -0.00158796 -0.00264664)
(0.00404693 -0.000430639 -0.00134555)
(0.00234554 -0.000689937 0.000212773)
(0.00211442 0.000723417 0.00182345)
(0.0013202 0.000525621 0.00284481)
(0.00100805 0.00120124 0.00358321)
(0.000360065 0.00101222 0.0039241)
(8.15681e-05 0.00144454 0.00421186)
(-0.000282074 0.0013695 0.00433559)
(-0.000413419 0.00164496 0.00445922)
(-0.000606742 0.00159317 0.00450812)
(-0.000649879 0.00176071 0.00456761)
(-0.000710791 0.00174154 0.00459278)
(-0.000702046 0.00183881 0.00462869)
(-0.000691496 0.00185039 0.0046416)
(-0.000651136 0.00189852 0.00466232)
(-0.000607946 0.00191737 0.00467631)
(-0.000553568 0.00194492 0.00469319)
(-0.000494487 0.00196593 0.00470782)
(-0.000430297 0.00198592 0.00472268)
(-0.000363418 0.00200438 0.0047373)
(-0.000294842 0.00202287 0.00475182)
(-0.000226322 0.00204339 0.00476548)
(-0.000158202 0.00206511 0.00477899)
(-9.49056e-05 0.00209782 0.00478887)
(-2.3167e-05 0.00210076 0.00480286)
(4.75889e-05 0.00214241 0.00481686)
(0.000109412 0.00210471 0.00483758)
(0.000199432 0.00220219 0.00486666)
(0.000258534 0.00213244 0.00490116)
(0.000380153 0.00232668 0.00494808)
(0.000434706 0.00221288 0.0049879)
(0.000597563 0.00253879 0.00503239)
(0.000655686 0.00237941 0.00506034)
(0.000901402 0.00293352 0.00508165)
(0.000930666 0.00271978 0.00507077)
(0.00125259 0.0037938 0.00498413)
(0.00107734 0.00357192 0.00480209)
(0.00124102 0.00567854 0.00424631)
(0.000571883 0.00540462 0.00362526)
(-5.01579e-05 0.00909473 0.00204464)
(-0.00065002 0.00829745 0.00224369)
(-0.00061122 0.0162484 0.00199795)
(0.00418545 0.0127967 0.0109832)
(0.0128987 0.0277957 0.0155518)
(0.0129914 0.00935954 0.0191081)
(-0.0113657 0.0246715 0.0240556)
(-0.024739 -0.0293748 0.0389392)
(-0.0104041 -0.0346242 0.0943348)
(0.0142737 -0.0833477 0.0896378)
(0.00315799 -0.111885 -0.152017)
(-0.0124973 -0.0770975 0.0160887)
(-0.0268394 0.0738286 -0.00300551)
(-0.020321 0.227744 -0.00816747)
(-0.0181456 0.256762 0.00802466)
(-0.013196 0.277276 0.00993217)
(-0.0138548 0.284915 0.0129255)
(-0.0147115 0.288356 0.0116542)
(-0.0169328 0.28669 0.0126432)
(-0.0181823 0.28371 0.0122915)
(-0.0166433 0.279861 0.0136595)
(-0.0168322 0.274688 0.0143121)
(-0.0126194 0.267845 0.0161588)
(-0.00960712 0.262263 0.0172934)
(-0.00474132 0.255273 0.019111)
(0.00138029 0.246475 0.0195528)
(0.00769219 0.238088 0.01996)
(0.0135144 0.22874 0.0204309)
(0.0205789 0.219892 0.0216517)
(0.0264481 0.211404 0.0222039)
(0.0320912 0.203169 0.0233275)
(0.0369212 0.194699 0.0249783)
(0.0404941 0.187844 0.0270803)
(0.04244 0.179196 0.029503)
(0.043181 0.170511 0.0320209)
(0.0428675 0.159288 0.0339709)
(0.0417767 0.145242 0.0345879)
(0.0403936 0.128686 0.0334549)
(0.0386013 0.108966 0.0311551)
(0.0359542 0.0905849 0.0285839)
(0.0320403 0.0694904 0.02607)
(0.0260246 0.0507676 0.0236288)
(0.0189821 0.0349515 0.0219537)
(0.0121546 0.0202411 0.0191081)
(0.00702929 0.00805626 0.0148598)
(0.00390765 -0.0023422 0.00820402)
(-0.00221352 -0.00973577 -0.0121897)
(-0.0175214 -0.00460918 -0.0573321)
(-0.00720212 0.00954558 -0.0107592)
(0.0153916 0.0329215 0.000780846)
(0.00378771 0.00780709 -0.00646248)
(0.0128778 0.0237689 0.00363337)
(0.0144611 0.00662742 -0.00292143)
(0.0156266 0.0120433 -0.000408225)
(0.0138777 0.0038381 -0.00284841)
(0.0112145 0.00450944 -0.00381966)
(0.00765522 -0.00227529 -0.00514812)
(0.00236882 -0.00260084 -0.0050584)
(-0.000186791 -0.00260474 -0.00394899)
(-0.000848509 -0.000687152 -0.00214186)
(-0.00181699 -0.000387895 -0.000903861)
(-0.00231378 0.000745969 1.99491e-05)
(-0.00293471 0.000857956 0.000473409)
(-0.00323392 0.00142551 0.000802527)
(-0.00361367 0.00143228 0.000972045)
(-0.0037672 0.00176691 0.00113392)
(-0.00395969 0.00176213 0.00122236)
(-0.00402335 0.00196198 0.00131116)
(-0.00410052 0.00196716 0.00136818)
(-0.00412123 0.00208082 0.00142796)
(-0.00413675 0.00210346 0.00146552)
(-0.00413148 0.00215816 0.00150736)
(-0.0041278 0.00218289 0.00154143)
(-0.00411437 0.00221365 0.00157742)
(-0.00409683 0.00223593 0.00161088)
(-0.00407536 0.00225585 0.00164382)
(-0.00405208 0.00227232 0.00167587)
(-0.00402708 0.00228661 0.00170772)
(-0.00400178 0.0022997 0.00173903)
(-0.00397491 0.00230533 0.00177157)
(-0.00395564 0.00231336 0.00180413)
(-0.00393872 0.00230213 0.00184211)
(-0.00393848 0.00233874 0.00187534)
(-0.00393702 0.00230956 0.00191406)
(-0.00394081 0.00240488 0.00194487)
(-0.00395111 0.00235796 0.00198056)
(-0.00391155 0.00255245 0.00200635)
(-0.00390585 0.00246849 0.00203339)
(-0.00383712 0.00278227 0.00204663)
(-0.00383785 0.00268638 0.00205937)
(-0.00375034 0.00322227 0.00203962)
(-0.00379591 0.00317922 0.00200281)
(-0.00376653 0.00419111 0.00185011)
(-0.00396607 0.00424203 0.0016451)
(-0.00423244 0.0061126 0.00108295)
(-0.00450351 0.00578096 0.000704598)
(-0.00585854 0.00871253 -0.000447977)
(-0.00613733 0.00640771 0.000510545)
(-0.0102275 0.0126463 0.000834883)
(-0.00585713 0.00692856 0.0102005)
(-0.0089582 0.022908 0.0131312)
(-0.00339006 0.0154591 0.0147439)
(-0.0120298 0.0427381 0.018995)
(-0.00308627 -0.0312051 0.0300963)
(-0.0275402 -0.0127686 0.0682841)
(0.0595281 -0.109811 0.0672854)
(-0.0280397 -0.0440455 -0.166082)
(-0.0575782 -0.0573923 0.00435972)
(-0.126607 0.0306087 -0.0254294)
(-0.0554086 0.190462 -0.00987375)
(-0.0441784 0.198821 0.00775854)
(-0.0279336 0.210217 0.0082232)
(-0.021983 0.209368 0.0102972)
(-0.0193477 0.204774 0.00903547)
(-0.0198539 0.198752 0.010925)
(-0.020558 0.189709 0.0108345)
(-0.0193826 0.178222 0.0122861)
(-0.0178402 0.165329 0.0116839)
(-0.0155649 0.151393 0.0123172)