/*--------------------------------*- C++ -*----------------------------------*\
| =========                 |                                                 |
| \\      /  F ield         | OpenFOAM: The Open Source CFD Toolbox           |
|  \\    /   O peration     | Version:  2.3.0                                 |
|   \\  /    A nd           | Web:      www.OpenFOAM.org                      |
|    \\/     M anipulation  |                                                 |
\*---------------------------------------------------------------------------*/
FoamFile
{
    version     2.0;
    format      ascii;
    class       volVectorField;
    location    "9";
    object      U.water;
}
// * * * * * * * * * * * * * * * * * * * * * * * * * * * * * * * * * * * * * //

dimensions      [0 1 -1 0 0 0 0];

internalField   nonuniform List<vector> 
6144
(
(0.00863652 0.0201674 0.000124229)
(0.00793131 0.00244587 1.38074e-05)
(0.00417987 0.000639155 -0.00123364)
(0.00432906 -0.000922472 -0.00159043)
(0.00361802 -0.00142926 -0.00169976)
(0.00373523 -0.000606054 -0.00174249)
(0.0037088 -0.000712528 -0.00178556)
(0.00379071 -1.43847e-05 -0.00183235)
(0.00385412 7.62266e-05 -0.00191549)
(0.00398478 0.000325327 -0.00193922)
(0.00404258 0.000293693 -0.00206602)
(0.00417475 0.000288099 -0.00211075)
(0.0042073 0.000110503 -0.00224311)
(0.00429482 3.33599e-05 -0.00229694)
(0.00431062 -0.00015403 -0.002404)
(0.00436067 -0.000213097 -0.00244897)
(0.00436988 -0.000348669 -0.00252397)
(0.00439676 -0.000372848 -0.00255847)
(0.00440455 -0.000448056 -0.00260726)
(0.00441974 -0.000452357 -0.00263352)
(0.00442656 -0.000482168 -0.00266425)
(0.00443593 -0.000478325 -0.00268358)
(0.0044413 -0.000481886 -0.00270222)
(0.00444687 -0.000474234 -0.00271578)
(0.00445071 -0.000466012 -0.00272729)
(0.00445391 -0.0004549 -0.00273623)
(0.00445617 -0.000442753 -0.00274344)
(0.00445768 -0.000429455 -0.0027491)
(0.00445844 -0.000415175 -0.00275341)
(0.00445857 -0.000401366 -0.00275634)
(0.00445813 -0.000379979 -0.00275838)
(0.00445514 -0.000375481 -0.00275868)
(0.00445605 -0.000334826 -0.0027598)
(0.00445086 -0.000358089 -0.00275767)
(0.0044537 -0.000276881 -0.00275681)
(0.00444748 -0.000350744 -0.00275216)
(0.00445189 -0.000209494 -0.00274859)
(0.00444715 -0.000372094 -0.00274118)
(0.00445496 -0.000126286 -0.00273506)
(0.00445017 -0.00047101 -0.00272039)
(0.00447378 -1.83417e-05 -0.00271445)
(0.00446865 -0.000727692 -0.00268501)
(0.00451045 5.16068e-05 -0.00267603)
(0.00454742 -0.00120147 -0.00263094)
(0.0045363 -0.00011096 -0.00262258)
(0.00467056 -0.002249 -0.00249618)
(0.0046382 -0.000433603 -0.00256249)
(0.00474604 -0.00465893 -0.00223355)
(0.00477164 -0.00102972 -0.00259794)
(0.00424912 -0.00961598 -0.00192112)
(0.00487981 -0.00166207 -0.00304658)
(0.000832295 -0.0198388 -0.00100248)
(0.00488776 0.00866056 -0.00477012)
(0.00531476 -0.0240521 -0.00799664)
(0.0101765 0.04677 -0.010234)
(0.00655242 -0.043782 -0.0111179)
(0.00844405 0.0630467 -0.0110912)
(-0.00400646 -0.0527778 -0.032476)
(-0.0372249 0.120041 -0.0830908)
(0.0340383 -0.097615 -0.143569)
(0.120091 -0.25054 -0.0243309)
(0.0717045 -0.0725336 -0.00703809)
(0.0234575 -0.146921 0.0030105)
(0.0264194 -0.141398 0.00562746)
(0.0219022 -0.142819 0.00642796)
(0.0133664 -0.149636 0.0081081)
(0.00715791 -0.154654 0.00906393)
(0.0032147 -0.156074 0.00869565)
(0.000191642 -0.155219 0.00751054)
(-0.00207428 -0.152313 0.00573513)
(-0.00320471 -0.147575 0.00404561)
(-0.00293283 -0.142142 0.00266458)
(-0.00162598 -0.137362 0.00167768)
(-0.000446754 -0.134052 0.000919885)
(0.000166754 -0.131674 0.0001107)
(0.000477027 -0.130077 -0.00040463)
(0.000582234 -0.12897 -0.000932222)
(0.00102794 -0.128148 -0.00118135)
(0.00104618 -0.127723 -0.0013883)
(0.000789217 -0.126945 -0.00160079)
(0.00019888 -0.125564 -0.00088379)
(-0.00113758 -0.122888 -0.00178429)
(-0.00157197 -0.117747 -9.55444e-05)
(-0.00448264 -0.111226 -0.00183297)
(-0.00532941 -0.097675 -0.00248609)
(-0.00778109 -0.0838826 -0.00187915)
(-0.0116323 -0.0628707 -0.0134557)
(-0.00770378 -0.0225726 -0.00912579)
(-0.00292537 0.00134817 -0.00191359)
(0.000348745 0.0168952 -0.00536484)
(0.00311135 0.0205161 -0.00691237)
(0.00636043 0.016225 -0.00359078)
(0.00812514 0.00964564 -0.00348566)
(0.00811486 0.00458675 -0.00435561)
(0.0078414 0.00185699 -0.00507748)
(0.00785097 0.000421601 -0.00533649)
(0.0168897 0.0219823 0.00460702)
(0.0180947 0.00854269 0.00459866)
(0.00951971 0.00420913 0.00237778)
(0.00966746 0.00229999 0.00173388)
(0.00719319 0.000641954 0.00134094)
(0.00737728 0.00137365 0.00125699)
(0.00705078 0.000960213 0.00114054)
(0.00724319 0.00159241 0.00110444)
(0.00739115 0.00154768 0.000999845)
(0.00774912 0.00172279 0.00104444)
(0.0079262 0.00150725 0.00088915)
(0.00827015 0.00139873 0.00088622)
(0.00835032 0.00106174 0.000694919)
(0.00856931 0.000890361 0.000649891)
(0.00858887 0.000588671 0.000471881)
(0.00871176 0.000462883 0.000422397)
(0.00871111 0.000251877 0.000288467)
(0.00877697 0.000184809 0.000247633)
(0.0087772 6.16663e-05 0.000161801)
(0.0088138 3.07969e-05 0.000130853)
(0.00882078 -2.74738e-05 8.19961e-05)
(0.0088427 -4.11958e-05 6.14777e-05)
(0.00885194 -6.22532e-05 3.85685e-05)
(0.00886437 -6.64228e-05 2.74175e-05)
(0.00887233 -6.88943e-05 1.91909e-05)
(0.00887957 -6.59618e-05 1.62645e-05)
(0.00888455 -6.11115e-05 1.62518e-05)
(0.00888795 -5.40441e-05 1.89804e-05)
(0.0088899 -4.5193e-05 2.39576e-05)
(0.00889028 -3.78544e-05 3.11308e-05)
(0.0088903 -2.34698e-05 4.02434e-05)
(0.00888621 -2.25592e-05 5.21087e-05)
(0.00888737 1.36832e-05 6.44133e-05)
(0.00887594 -2.09444e-05 7.81477e-05)
(0.00888361 6.4447e-05 9.69229e-05)
(0.0088664 -4.12788e-05 0.000113512)
(0.00888361 0.000124996 0.000141852)
(0.00886226 -0.000102516 0.000163527)
(0.00889757 0.0001974 0.000204)
(0.00886616 -0.000257192 0.000239985)
(0.00895111 0.000299061 0.000300431)
(0.00890112 -0.000604475 0.000365427)
(0.00906973 0.000386892 0.000466102)
(0.00903106 -0.00125528 0.000564121)
(0.0092099 0.000203974 0.000680937)
(0.00939454 -0.00246156 0.000973096)
(0.00950271 -0.000292697 0.000923684)
(0.010003 -0.00508718 0.00150852)
(0.00998248 -0.00153183 0.000965932)
(0.0111374 -0.0100775 0.00184713)
(0.0103953 -0.00462837 4.32768e-05)
(0.00494401 -0.0216647 0.000837494)
(0.00317285 -0.00475985 -0.00127846)
(-0.00485631 -0.0264944 -0.00367526)
(0.016796 0.04156 -0.00393027)
(0.0334232 -0.0394438 -0.00202192)
(-0.0261178 0.0341792 0.00725314)
(-0.0271089 -0.0206087 -0.010851)
(0.0289 0.169573 -0.00307725)
(0.177179 -0.128091 -0.08187)
(0.177748 -0.208451 -0.0207747)
(0.0425391 0.110848 0.00695291)
(-0.0350135 -0.125647 0.012812)
(-0.0168314 -0.0701581 0.0114987)
(-0.0209378 -0.0937665 0.0119584)
(-0.0238408 -0.11252 0.0139208)
(-0.0235601 -0.119536 0.0137141)
(-0.0224034 -0.124774 0.012408)
(-0.0212514 -0.127944 0.0101178)
(-0.0199275 -0.127398 0.00731906)
(-0.0173892 -0.124326 0.00549756)
(-0.0145214 -0.11944 0.0039316)
(-0.0110636 -0.115643 0.00222576)
(-0.00778153 -0.113846 0.000378884)
(-0.0046945 -0.112749 -0.00107138)
(-0.00183634 -0.111025 -0.00196467)
(0.000339105 -0.108539 -0.00278068)
(0.00182181 -0.105598 -0.00304368)
(0.00193729 -0.104014 -0.00326287)
(0.00120968 -0.102385 -0.00286748)
(-0.000637467 -0.101984 -0.00152033)
(-0.00378559 -0.101235 -0.00215626)
(-0.00764934 -0.0985231 0.000133772)
(-0.0125083 -0.0947882 -0.00168316)
(-0.0162602 -0.0846138 -0.00223247)
(-0.019856 -0.0738719 -0.0024167)
(-0.0230328 -0.0582987 -0.0130378)
(-0.0211654 -0.0269909 -0.00985773)
(-0.0122406 -0.00490652 -0.00127933)
(-0.00675118 0.0110755 0.000942958)
(-0.00227153 0.0164003 0.0032632)
(0.00342643 0.0143268 0.00589773)
(0.00949872 0.00856332 0.00512392)
(0.0115846 0.00285375 0.00275027)
(0.0110945 0.000371589 0.000168574)
(0.0108627 -0.000293962 -0.00121916)
(0.0188465 0.0209658 0.00561519)
(0.0217979 0.0131669 0.00687015)
(0.0112777 0.00733572 0.00478117)
(0.01207 0.00624886 0.00428432)
(0.00792836 0.00245657 0.00435165)
(0.0079863 0.00273591 0.00390162)
(0.00711802 0.00162639 0.003693)
(0.0073624 0.00211614 0.0035354)
(0.00740577 0.0019092 0.00356889)
(0.00788746 0.00210058 0.00364864)
(0.00811093 0.00178287 0.00367475)
(0.00858299 0.00168359 0.00372025)
(0.00869421 0.00124131 0.00365829)
(0.00899413 0.00106079 0.00363131)
(0.00901945 0.000696984 0.00353757)
(0.0091878 0.000570681 0.00350375)
(0.00918516 0.000329368 0.00342729)
(0.00927547 0.000265368 0.00340835)
(0.00927243 0.000128667 0.0033601)
(0.00931859 0.000102913 0.00335347)
(0.00931994 3.81435e-05 0.00332786)
(0.00934176 2.6081e-05 0.00333158)
(0.00934507 1.95519e-06 0.00332905)
(0.00935227 -2.5008e-06 0.0033405)
(0.00935251 -6.20156e-06 0.00335334)
(0.00935138 -3.76033e-06 0.00337184)
(0.0093466 1.29511e-07 0.00339249)
(0.00933923 6.61276e-06 0.00341583)
(0.00932949 1.47314e-05 0.00344116)
(0.0093173 2.34611e-05 0.00346826)
(0.00930393 3.63512e-05 0.00349682)
(0.00928683 3.75789e-05 0.00352676)
(0.00927431 7.19939e-05 0.00355694)
(0.00924653 4.34226e-05 0.00358929)
(0.00924038 0.000122339 0.00362585)
(0.00920029 3.0354e-05 0.00366104)
(0.00920683 0.00018626 0.00370522)
(0.00915643 -1.48724e-05 0.00374322)
(0.00918339 0.000263746 0.00379974)
(0.00911806 -0.000136945 0.00384153)
(0.00920578 0.000388215 0.00393129)
(0.00910388 -0.000437075 0.00397338)
(0.00932396 0.00055604 0.00413698)
(0.00917711 -0.00107106 0.00415385)
(0.0095335 0.000631608 0.00443595)
(0.0095739 -0.0022462 0.0044429)
(0.0098596 0.000510098 0.00464865)
(0.0105029 -0.00459993 0.00477746)
(0.0105256 0.000519274 0.00448879)
(0.0126629 -0.00852567 0.00418354)
(0.013115 0.00199103 0.00288472)
(0.0105271 -0.0158054 0.00406162)
(0.00213047 -0.000828919 0.00249029)
(-0.010905 -0.0266608 0.000537516)
(0.0237589 0.026121 -0.00673509)
(0.0390194 -0.0180449 0.0018775)
(-0.0590015 0.0641453 0.0236876)
(-0.0793273 -0.110333 -0.00172777)
(-0.057981 0.119071 -0.0392765)
(0.177176 -0.124017 -0.05823)
(0.189536 -0.158423 -0.0205402)
(0.0711146 0.148208 0.00717804)
(0.0684384 -0.117485 0.0159213)
(0.0218471 -0.031711 0.0169874)
(-0.0046752 -0.0684345 0.0162226)
(-0.0099369 -0.0835994 0.0160479)
(-0.0167308 -0.0904269 0.0142936)
(-0.0228187 -0.0955206 0.0113539)
(-0.0262211 -0.0975255 0.00745982)
(-0.0260811 -0.0953998 0.00352469)
(-0.0227796 -0.0904866 2.61858e-05)
(-0.0131946 -0.0846778 -0.00352779)
(-0.00383972 -0.0771698 -0.00769206)
(6.54534e-05 -0.0676488 -0.0107942)
(0.000922721 -0.0577281 -0.0131087)
(0.00258261 -0.0465773 -0.0122103)
(0.00431016 -0.0372446 -0.010566)
(0.00645147 -0.0303394 -0.00841756)
(0.00763859 -0.0286865 -0.00542872)
(0.00732392 -0.030625 -0.00276829)
(0.00502469 -0.0358021 -0.000416238)
(0.000583819 -0.0428225 0.00200797)
(-0.00583329 -0.0507484 0.00389845)
(-0.0135051 -0.0579757 0.00187689)
(-0.0192743 -0.0567286 0.00161025)
(-0.0237974 -0.0523939 -0.00289937)
(-0.0322104 -0.0407863 -0.015297)
(-0.0322355 -0.0135927 -0.0115938)
(-0.0180344 1.22154e-05 -0.00208714)
(-0.00982392 0.011173 0.000915927)
(-0.00634369 0.0144228 0.00408374)
(-0.00304192 0.0109559 0.00934446)
(0.00306269 0.00510661 0.00993028)
(0.00859456 0.000454716 0.00706643)
(0.0102423 -0.000966578 0.00456307)
(0.010568 -0.000889541 0.0023332)
(0.0178709 0.0182263 0.00586991)
(0.0233903 0.0149549 0.00727254)
(0.0110267 0.00833975 0.00482419)
(0.0136152 0.0101422 0.00421905)
(0.008408 0.0047473 0.0047866)
(0.00861627 0.00542203 0.00399093)
(0.00704495 0.00305779 0.00405653)
(0.00710353 0.00346776 0.00382174)
(0.00682739 0.00280918 0.0039394)
(0.0072676 0.0030133 0.00409162)
(0.00742222 0.0025036 0.00431594)
(0.00794077 0.00241165 0.00446699)
(0.00800521 0.0017875 0.00453458)
(0.00832071 0.00157986 0.00455285)
(0.00829053 0.00110019 0.00453487)
(0.00846451 0.000963067 0.00452448)
(0.00841948 0.000654741 0.00450037)
(0.00850952 0.000593302 0.00450202)
(0.00847583 0.000418029 0.00449256)
(0.00851651 0.000393985 0.00450816)
(0.00849568 0.000307713 0.00451154)
(0.0085103 0.000296626 0.00453527)
(0.00849981 0.000261324 0.00455078)
(0.00849889 0.000257273 0.00457692)
(0.00848988 0.000247796 0.00460195)
(0.00848077 0.000248093 0.00463047)
(0.00846754 0.000249293 0.00465918)
(0.00845163 0.000253819 0.00468941)
(0.00843328 0.000259953 0.00472005)
(0.008413 0.000267097 0.0047507)
(0.0083913 0.000277979 0.00478138)
(0.00836625 0.000279899 0.00481151)
(0.00834493 0.000310161 0.00484214)
(0.00831282 0.000288999 0.00487249)
(0.0083012 0.000356832 0.00490448)
(0.00825127 0.000279468 0.00493774)
(0.00825374 0.000422809 0.00497754)
(0.00818837 0.00024688 0.00501223)
(0.00821095 0.0005028 0.00505836)
(0.00812617 0.000162339 0.00508714)
(0.00821538 0.000636389 0.00516013)
(0.0080859 -7.26398e-05 0.00516899)
(0.00833881 0.000853854 0.00532446)
(0.00811725 -0.000638603 0.00526286)
(0.0086543 0.00113748 0.00557834)
(0.00835803 -0.00177485 0.00536953)
(0.00922288 0.00150725 0.0057298)
(0.00901409 -0.00377363 0.00531642)
(0.0102235 0.00292302 0.00508381)
(0.0100983 -0.00656455 0.00428436)
(0.0129718 0.00855025 0.00314387)
(0.0108587 -0.00952691 0.00546847)
(-0.002628 0.00695849 0.0059796)
(-0.0148793 -0.0201082 1.33239e-05)
(0.00721963 0.0319334 -0.00310319)
(0.0308939 0.000569776 0.00960912)
(0.0149111 0.119904 0.0267818)
(-0.0744401 -0.144788 0.0259398)
(-0.0775705 0.184163 -0.0796827)
(0.187457 -0.193278 -0.0328228)
(0.213897 -0.146563 -0.0197853)
(0.0722212 0.124211 -0.00227948)
(0.0691274 -0.0167439 0.00685938)
(-0.0285407 0.0540165 0.0195117)
(-0.0145877 -0.0275088 0.0224256)
(-0.0178649 -0.0281478 0.015106)
(-0.0219624 -0.0446732 0.00680711)
(-0.0242373 -0.0509724 -0.000110451)
(-0.0244931 -0.0489299 -0.0060429)
(-0.0239403 -0.0410456 -0.0117064)
(-0.0219391 -0.0255283 -0.0203116)
(-0.0152798 0.00725941 -0.0232264)
(-0.00630429 0.0448354 -0.0232806)
(-0.000301232 0.0598226 -0.0105707)
(0.00409636 0.0676234 -0.00592998)
(0.00887045 0.0684678 -0.00177963)
(0.0123633 0.0640904 0.000292457)
(0.0154079 0.057623 0.00210442)
(0.0162532 0.0483903 0.00320626)
(0.0148557 0.0380401 0.00369796)
(0.0113944 0.0267724 0.00369126)
(0.00547749 0.0152838 0.00331495)
(-0.00299189 0.00386263 0.0022763)
(-0.0136377 -0.00541604 -0.00048726)
(-0.0247824 -0.0105812 -0.00498858)
(-0.0350602 -0.00946408 -0.0132872)
(-0.0390956 0.00174977 -0.0168974)
(-0.0267188 0.00840211 -0.00927855)
(-0.0126273 0.0107979 -0.00356924)
(-0.00654896 0.0158288 0.000967868)
(-0.00540877 0.0149984 0.00600246)
(-0.00515396 0.00974029 0.010555)
(-0.00149154 0.00245328 0.0109362)
(0.00400242 -0.00244532 0.00806651)
(0.00607814 -0.00385523 0.00530285)
(0.00702937 -0.00270921 0.00321954)
(0.0147672 0.0152592 0.00529696)
(0.0245237 0.0152314 0.00705561)
(0.0089694 0.00696223 0.00349229)
(0.014621 0.0120306 0.00245935)
(0.00844054 0.00508908 0.00325903)
(0.00930473 0.00670461 0.00194736)
(0.00677977 0.00339409 0.00274613)
(0.00660059 0.00400489 0.00257535)
(0.00568333 0.0028888 0.00304589)
(0.00582068 0.00333122 0.00346552)
(0.00569933 0.00278644 0.00402365)
(0.00607563 0.00282262 0.00444864)
(0.00604353 0.0021281 0.00471101)
(0.00623897 0.00197998 0.00485433)
(0.00614205 0.00143009 0.00490723)
(0.00624617 0.00130885 0.00493552)
(0.00615608 0.00095736 0.00493731)
(0.0062077 0.000902312 0.00495294)
(0.00614601 0.000698756 0.00495862)
(0.00616345 0.000680427 0.00498167)
(0.00612261 0.000575364 0.00499339)
(0.00612203 0.000564624 0.00502054)
(0.00609588 0.00051865 0.00503809)
(0.00608199 0.000512042 0.00506639)
(0.00606033 0.000495794 0.00509489)
(0.00603928 0.000492354 0.00512567)
(0.0060151 0.000489717 0.00515137)
(0.00598881 0.000491283 0.00517472)
(0.00596042 0.000494995 0.00519625)
(0.0059304 0.000500447 0.00521761)
(0.00589892 0.000509372 0.00523922)
(0.00586484 0.000512445 0.00526096)
(0.0058322 0.000536182 0.00528319)
(0.005794 0.000519922 0.00530179)
(0.00577113 0.000577486 0.00532114)
(0.00571536 0.000508754 0.00533252)
(0.00571064 0.000632474 0.00534469)
(0.00564345 0.000479574 0.00533896)
(0.00566253 0.000698976 0.00533712)
(0.00557964 0.00041657 0.00531067)
(0.0056647 0.000809111 0.00531473)
(0.00554998 0.000248092 0.00525646)
(0.00581935 0.00101752 0.00530979)
(0.00559268 -0.000174437 0.00516028)
(0.00625748 0.00139101 0.00532474)
(0.00573656 -0.000937625 0.00493423)
(0.00713588 0.00227471 0.00508309)
(0.00594867 -0.00163708 0.00417441)
(0.00846436 0.00500443 0.00347905)
(0.00631432 -0.000828172 0.00248204)
(0.0110927 0.0122009 0.00204439)
(0.00693569 0.000678039 0.00550952)
(-0.00405907 0.0219848 0.00711677)
(-0.0223344 -0.0220652 -0.00162054)
(0.0162931 0.044915 0.021419)
(0.0183201 -0.0589202 0.0296255)
(0.0155794 0.0588483 0.0809017)
(-0.105112 -0.133158 0.0552834)
(-0.0140837 0.165383 -0.17105)
(0.122366 -0.261481 -0.0130166)
(0.192847 -0.100668 -0.0163374)
(0.065586 0.120544 -0.00843781)
(0.0763595 0.0477542 0.000724512)
(0.0202865 0.0768157 0.00373521)
(0.0136861 0.0438586 0.000733573)
(-0.00874482 0.0437543 -0.00575238)
(-0.0128496 0.0498963 -0.0125403)
(-0.0194674 0.0629103 -0.0157355)
(-0.0220791 0.0829072 -0.017516)
(-0.0229053 0.100047 -0.0171213)
(-0.0208618 0.1151 -0.0126163)
(-0.013556 0.125736 -0.00624023)
(-0.00223572 0.131545 -0.000339823)
(0.00488903 0.130202 0.0039112)
(0.01079 0.129057 0.00618091)
(0.0148579 0.123626 0.00745481)
(0.017713 0.117763 0.00762774)
(0.0200749 0.109825 0.00680715)
(0.0213841 0.101198 0.00532931)
(0.0208916 0.0908377 0.00339644)
(0.018395 0.0801338 0.00107499)
(0.0136433 0.0689005 -0.0015617)
(0.00623359 0.0571579 -0.00471801)
(-0.00318416 0.0472906 -0.00808625)
(-0.0129975 0.0381759 -0.011586)
(-0.0183806 0.0332476 -0.0134786)
(-0.0177036 0.0274081 -0.0112701)
(-0.00980826 0.0227168 -0.00612514)
(-0.0042372 0.0212308 -0.00162778)
(-0.00339518 0.0198611 0.00298061)
(-0.00545803 0.0158097 0.00748264)
(-0.00787042 0.00918781 0.0104289)
(-0.00702618 0.0011586 0.00999357)
(-0.00324691 -0.00427758 0.00641846)
(-0.000917089 -0.00473478 0.00298422)
(-0.0028813 -0.00253036 0.00102584)
(0.0116243 0.0117863 0.00519626)
(0.0251771 0.0166156 0.00579158)
(0.0071115 0.00507821 0.000321045)
(0.0161487 0.0141212 -0.000891272)
(0.00927718 0.0040675 -0.000577412)
(0.0111431 0.00729712 -0.00177577)
(0.00746275 0.0019044 -0.000550802)
(0.00704083 0.00309035 -0.000979256)
(0.00506236 0.0013201 0.000203432)
(0.00480291 0.00253109 0.00123671)
(0.00434715 0.00217937 0.00250711)
(0.00456909 0.00261584 0.00345615)
(0.0043722 0.0020124 0.00410662)
(0.00437988 0.00205042 0.00452413)
(0.00418329 0.00151999 0.00473967)
(0.00415417 0.00148609 0.00487691)
(0.00401208 0.00112706 0.00494162)
(0.00399653 0.00110591 0.00499222)
(0.00391219 0.000894888 0.0050161)
(0.0039074 0.000897272 0.00504276)
(0.00386867 0.000788485 0.00505462)
(0.00386951 0.000787059 0.0050693)
(0.00385398 0.00073856 0.0050684)
(0.00385215 0.000732287 0.00507024)
(0.00384357 0.000713563 0.00506019)
(0.00383646 0.000711674 0.00504983)
(0.0038311 0.000711507 0.00504029)
(0.00382588 0.000715306 0.00503048)
(0.00381934 0.000719702 0.00501856)
(0.00381094 0.000724337 0.00500376)
(0.0038004 0.000731306 0.0049856)
(0.00378734 0.000733714 0.00496468)
(0.00377274 0.000755597 0.00493864)
(0.00375669 0.000744669 0.00490847)
(0.00375211 0.000795485 0.00487698)
(0.00372585 0.000742775 0.00483547)
(0.0037425 0.000860349 0.00479304)
(0.00371054 0.000738075 0.00473909)
(0.00375131 0.000942609 0.00469151)
(0.00371135 0.000714299 0.00463194)
(0.00381071 0.00105994 0.00458841)
(0.00376301 0.000640206 0.00451628)
(0.00402499 0.00129161 0.00449743)
(0.00388907 0.000447452 0.00437747)
(0.00449026 0.00179274 0.00436585)
(0.00402254 0.000287611 0.0040402)
(0.00512205 0.0031041 0.00368943)
(0.00394189 0.0010853 0.00282503)
(0.00546847 0.00666164 0.00106816)
(0.00395885 0.0042754 0.00115474)
(0.00693517 0.0146542 0.00142466)
(0.0053979 0.00599145 0.00815712)
(0.00328391 0.0231068 0.0110876)
(-0.0229385 -0.0259927 0.0195691)
(0.00805733 0.0110356 0.0461005)
(-0.00658943 -0.0104612 0.0498559)
(0.0354962 0.0559194 0.107129)
(-0.0865866 -0.123244 0.0813727)
(0.0416804 -0.000699174 -0.170583)
(0.0649323 -0.259001 -0.00104933)
(0.146496 -0.0368256 -0.0221065)
(0.048338 0.137534 -0.00840502)
(0.0487717 0.130037 -0.00104605)
(0.0137281 0.153933 0.00247573)
(0.00248331 0.154229 -0.00115729)
(-0.00736068 0.161485 -0.00341381)
(-0.0127523 0.167027 -0.00483022)
(-0.0156612 0.174572 -0.00437153)
(-0.0190265 0.179336 -0.00244327)
(-0.0155546 0.18438 0.000743791)
(-0.0132322 0.186465 0.0047396)
(-0.00694247 0.187762 0.00760694)
(-0.0014177 0.187484 0.0107962)
(0.00343411 0.185196 0.012682)
(0.00737777 0.18288 0.013689)
(0.0130804 0.17819 0.0143914)
(0.0174956 0.172299 0.0146929)
(0.0222763 0.164416 0.0140674)
(0.0261785 0.154769 0.0134115)
(0.02845 0.143277 0.012242)
(0.0286442 0.129973 0.0105219)
(0.0264593 0.115268 0.00829906)
(0.0220381 0.0998289 0.00552162)
(0.0155444 0.0842573 0.00283116)
(0.00814871 0.0686721 0.000524367)
(0.00268256 0.0548656 -0.000389469)
(0.00133584 0.0425438 0.000297577)
(0.00258658 0.0327027 0.00224514)
(0.00396196 0.0264657 0.00505034)
(0.00321088 0.0215053 0.00809306)
(-0.000434568 0.0159001 0.0105475)
(-0.00461915 0.00803919 0.0116881)
(-0.00541632 -0.000818728 0.0110258)
(-0.00382284 -0.00671071 0.0088413)
(-0.00233027 -0.00749759 0.00424747)
(-0.00237335 -0.00377448 -0.00119225)
(0.0077185 0.00838741 0.00134656)
(0.0246056 0.0211539 0.00504917)
(0.00673805 0.00557475 -0.00350031)
(0.0181162 0.0181125 -0.00221469)
(0.0125567 0.00511907 -0.00414884)
(0.0146622 0.00959482 -0.003198)
(0.0102423 0.00165409 -0.00279785)
(0.0086162 0.00265436 -0.00320318)
(0.00537051 -0.000673205 -0.002392)
(0.00402362 0.000846241 -0.00124534)
(0.00271435 0.000570828 0.000379175)
(0.00267749 0.00157468 0.00185893)
(0.00204743 0.00119289 0.00280594)
(0.00183064 0.00155411 0.00346835)
(0.00137854 0.00117522 0.0038173)
(0.00117562 0.00134682 0.00407452)
(0.000879728 0.00107004 0.00418558)
(0.000752769 0.00116044 0.00428089)
(0.000572057 0.000990814 0.00431802)
(0.000498437 0.00105402 0.00435506)
(0.000414344 0.000964901 0.0043623)
(0.000382603 0.000996408 0.00437017)
(0.000350106 0.000960734 0.00435546)
(0.00034176 0.000969992 0.00434375)
(0.000335581 0.000960883 0.00432029)
(0.000338078 0.000962693 0.00429519)
(0.000342907 0.000961861 0.00426455)
(0.000352907 0.000964752 0.00423192)
(0.000366644 0.000968095 0.00419738)
(0.00038293 0.000972701 0.00416078)
(0.000400807 0.000979704 0.00412126)
(0.000420898 0.000985499 0.00407899)
(0.000444916 0.00100687 0.00403093)
(0.000473697 0.00100278 0.00397719)
(0.000502547 0.00106011 0.00391985)
(0.000510081 0.00102846 0.00385944)
(0.000547147 0.00115209 0.00380602)
(0.000546071 0.00106309 0.00376684)
(0.000616023 0.00127875 0.00375952)
(0.0006167 0.00110793 0.00375306)
(0.000747656 0.00145929 0.00376092)
(0.000759121 0.00116835 0.00375171)
(0.00101947 0.00178456 0.00376655)
(0.00099301 0.0012695 0.00372615)
(0.00148766 0.00248663 0.00367701)
(0.00125781 0.00168408 0.00346105)
(0.00196065 0.00407342 0.00296352)
(0.00123878 0.00312851 0.00227854)
(0.00194298 0.00764434 0.000332618)
(0.00103434 0.00631081 0.000839103)
(0.00316886 0.0153327 0.000542778)
(0.00307705 0.00670549 0.00760977)
(0.0085254 0.0232843 0.00970285)
(-0.0137964 -0.0213009 0.0145527)
(-0.0297765 -0.00639558 0.0228469)
(-0.0400568 -0.0407136 0.0468871)
(0.0193689 -0.0351271 0.098882)
(-0.010254 -0.114779 0.090619)
(0.0302986 -0.11619 -0.162644)
(0.0323535 -0.28226 0.00385327)
(0.0654376 0.0366077 -0.0114519)
(0.0211132 0.194389 -0.00817975)
(0.0210686 0.215151 0.00606092)
(0.00373546 0.231221 0.00714428)
(-0.00166744 0.238804 0.00884099)
(-0.0101499 0.244892 0.00650427)
(-0.0138706 0.249335 0.00751335)
(-0.016761 0.250063 0.00709097)
(-0.0176976 0.250306 0.00879829)
(-0.0171468 0.245832 0.00968879)
(-0.0146243 0.244032 0.0124836)
(-0.0104109 0.244505 0.0137446)
(-0.00643608 0.237721 0.0155658)
(-0.000896011 0.232224 0.0170324)
(0.00467883 0.224886 0.0182217)
(0.0111029 0.219414 0.018664)
(0.01771 0.213029 0.0199579)
(0.0242957 0.20481 0.0201858)
(0.0303165 0.196157 0.0206669)
(0.0348004 0.186606 0.0210559)
(0.0372727 0.176829 0.0210505)
(0.0371883 0.16443 0.0203844)
(0.0350203 0.151078 0.0191851)
(0.0305254 0.134179 0.0171189)
(0.0242424 0.115844 0.0138623)
(0.017772 0.097098 0.0106554)
(0.0126043 0.0789563 0.00772203)
(0.00814726 0.0626776 0.00591729)
(0.00317506 0.0473447 0.00511211)
(-0.00199291 0.0338952 0.00576606)
(-0.00697577 0.0234906 0.00715285)
(-0.0105975 0.0124608 0.00775762)
(-0.0128471 0.00298552 0.00678294)
(-0.0147564 -0.00360517 0.00334481)
(-0.01662 -0.0061728 -0.00481912)
(-0.0240439 -0.00406033 -0.00940168)
(0.0029616 0.00419101 -0.00171661)
(0.0198738 0.0268512 0.00493125)
(0.00646003 0.00597606 -0.00580755)
(0.0178199 0.0215662 0.000395544)
(0.0148873 0.00598448 -0.0045974)
(0.0167597 0.0110133 -0.00161865)
(0.0132961 0.00252517 -0.00265556)
(0.0107751 0.00316061 -0.00280159)
(0.00697964 -0.00213833 -0.0026466)
(0.00404729 -0.000989982 -0.00134542)
(0.00234599 -0.0012539 0.000212964)
(0.00211497 0.000157695 0.00182361)
(0.00132081 -4.05242e-05 0.00284488)
(0.00100873 0.000635013 0.00358324)
(0.000360798 0.000445985 0.0039241)
(8.23442e-05 0.000878319 0.00421186)
(-0.00028126 0.000803281 0.00433558)
(-0.000412572 0.00107878 0.00445922)
(-0.000605867 0.00102703 0.00450812)
(-0.000648983 0.00119463 0.00456761)
(-0.000709873 0.00117553 0.00459278)
(-0.000701114 0.00127289 0.00462869)
(-0.000690548 0.00128457 0.00464159)
(-0.000650181 0.00133281 0.00466233)
(-0.000606982 0.00135178 0.00467631)
(-0.000552602 0.00137947 0.0046932)
(-0.000493517 0.00140062 0.00470782)
(-0.000429331 0.00142076 0.00472268)
(-0.000362452 0.00143939 0.00473729)
(-0.000293884 0.00145805 0.00475182)
(-0.000225369 0.00147875 0.00476547)
(-0.000157263 0.00150067 0.00477899)
(-9.39766e-05 0.00153359 0.00478886)
(-2.22598e-05 0.00153677 0.00480285)
(4.84732e-05 0.00157867 0.00481684)
(0.000110263 0.00154124 0.00483757)
(0.000200253 0.00163901 0.00486664)
(0.000259318 0.00156955 0.00490115)
(0.000380897 0.0017641 0.00494807)
(0.000435391 0.00165061 0.00498789)
(0.000598178 0.00197686 0.00503238)
(0.00065621 0.00181785 0.00506034)
(0.000901816 0.00237233 0.00508165)
(0.000930956 0.00215896 0.00507077)
(0.00125269 0.00323336 0.00498413)
(0.00107725 0.0030119 0.00480208)
(0.0012406 0.00511892 0.0042463)
(0.00057123 0.00484562 0.00362517)
(-5.11418e-05 0.00853406 0.0020445)
(-0.00065143 0.00772271 0.00224301)
(-0.000613274 0.0156083 0.00199692)
(0.0041821 0.011987 0.0109806)
(0.0128882 0.0266861 0.0155466)
(0.0129684 0.00788609 0.0191022)
(-0.0113954 0.0224797 0.0240429)
(-0.0247589 -0.0328032 0.0389195)
(-0.0103165 -0.0392729 0.0941199)
(0.0147559 -0.0870698 0.0895578)
(0.00392812 -0.134511 -0.154553)
(-0.00841007 -0.28255 0.0064439)
(-0.0266765 0.0630761 -0.00285518)
(-0.0203156 0.218924 -0.00816203)
(-0.0181121 0.245549 0.00800015)
(-0.0131386 0.2652 0.00992759)
(-0.013824 0.272928 0.0129239)
(-0.0146702 0.276993 0.0116243)
(-0.0169128 0.276889 0.0126362)
(-0.0181614 0.274582 0.0122812)
(-0.0166116 0.270607 0.0136552)
(-0.0168146 0.265092 0.014298)
(-0.012598 0.258229 0.0161443)
(-0.0095929 0.252659 0.0172768)
(-0.00472765 0.245696 0.0191016)
(0.00139156 0.237649 0.0195432)
(0.00769088 0.230339 0.0199395)
(0.0135023 0.221693 0.0204009)
(0.0205713 0.213222 0.0216169)
(0.026427 0.204866 0.0221562)
(0.0320817 0.196737 0.0232761)
(0.0369117 0.188147 0.024922)
(0.0404858 0.181336 0.0270216)
(0.0424275 0.173243 0.0294397)
(0.0431749 0.165426 0.0319718)
(0.0428667 0.154853 0.0339416)
(0.0417767 0.141299 0.0345725)
(0.0403946 0.125673 0.0334464)
(0.0386064 0.107133 0.0311523)
(0.0359587 0.0894768 0.0285808)
(0.0320437 0.0690001 0.0260686)
(0.0260252 0.050723 0.0236287)
(0.0189821 0.0349515 0.0219537)
(0.0121546 0.0202411 0.0191081)
(0.00702929 0.00805625 0.0148598)
(0.00390765 -0.00234221 0.00820402)
(-0.00220993 -0.0099084 -0.0121791)
(-0.0175119 -0.00576264 -0.0572997)
(-0.00719809 0.00928074 -0.0107562)
(0.0153915 0.032401 0.000780878)
(0.00378884 0.00729762 -0.00646181)
(0.0128786 0.0232526 0.0036333)
(0.0144617 0.00611064 -0.00292072)
(0.0156271 0.0115251 -0.000408074)
(0.0138781 0.00331868 -0.00284814)
(0.0112147 0.00398343 -0.00381959)
(0.00765541 -0.00281487 -0.00514805)
(0.00236918 -0.00315572 -0.00505829)
(-0.000186401 -0.0031681 -0.00394875)
(-0.000848074 -0.00125275 -0.00214161)
(-0.00181658 -0.000953841 -0.000903645)
(-0.00231333 0.000179998 2.0127e-05)
(-0.00293422 0.000291951 0.000473568)
(-0.00323339 0.000859498 0.000802677)
(-0.00361311 0.000866271 0.000972197)
(-0.0037666 0.00120092 0.00113407)
(-0.00395907 0.00119618 0.0012225)
(-0.0040227 0.00139608 0.0013113)
(-0.00409985 0.00140133 0.00136832)
(-0.00412054 0.00151507 0.0014281)
(-0.00413605 0.0015378 0.00146565)
(-0.00413075 0.00159261 0.0015075)
(-0.00412708 0.00161746 0.00154157)
(-0.00411362 0.00164835 0.00157755)
(-0.00409608 0.00167078 0.00161102)
(-0.0040746 0.00169084 0.00164395)
(-0.00405132 0.00170747 0.001676)
(-0.00402632 0.00172194 0.00170784)
(-0.00400102 0.00173521 0.00173916)
(-0.00397415 0.00174104 0.0017717)
(-0.00395489 0.00174928 0.00180425)
(-0.00393798 0.00173828 0.00184222)
(-0.00393778 0.00177514 0.00187544)
(-0.00393633 0.00174622 0.00191416)
(-0.00394016 0.00184184 0.00194497)
(-0.0039505 0.00179522 0.00198066)
(-0.00391099 0.00199002 0.00200646)
(-0.00390535 0.00190636 0.00203351)
(-0.00383671 0.00222047 0.00204675)
(-0.00383753 0.00212491 0.00205949)
(-0.00375014 0.00266116 0.00203974)
(-0.00379584 0.00261846 0.00200294)
(-0.00376665 0.00363069 0.00185024)
(-0.0039664 0.00368199 0.0016452)
(-0.00423306 0.00555285 0.00108305)
(-0.00450446 0.00522178 0.000704582)
(-0.00585975 0.0081512 -0.00044808)
(-0.00613945 0.00582537 0.000509834)
(-0.0102301 0.0119491 0.000833569)
(-0.00586345 0.00593591 0.0101975)
(-0.0089636 0.0214857 0.0131263)
(-0.00340054 0.0136579 0.0147444)
(-0.0120351 0.0404228 0.0189909)
(-0.00308472 -0.0342347 0.030088)
(-0.0273726 -0.0167344 0.068143)
(0.059497 -0.112605 0.0669681)
(-0.0281051 -0.0663065 -0.169484)
(-0.0448369 -0.254405 -0.00671274)
(-0.126413 0.0236972 -0.0254049)
(-0.0553752 0.18719 -0.00988901)
(-0.0441148 0.19491 0.00779554)
(-0.0279322 0.206376 0.00822665)
(-0.021969 0.205547 0.0103061)
(-0.0193361 0.200855 0.00903257)
(-0.0198471 0.195944 0.010927)
(-0.0205543 0.187621 0.0108344)