/*--------------------------------*- C++ -*----------------------------------*\
| =========                 |                                                 |
| \\      /  F ield         | OpenFOAM: The Open Source CFD Toolbox           |
|  \\    /   O peration     | Version:  2.3.0                                 |
|   \\  /    A nd           | Web:      www.OpenFOAM.org                      |
|    \\/     M anipulation  |                                                 |
\*---------------------------------------------------------------------------*/
FoamFile
{
    version     2.0;
    format      ascii;
    class       volVectorField;
    location    "9";
    object      Ur;
}
// * * * * * * * * * * * * * * * * * * * * * * * * * * * * * * * * * * * * * //

dimensions      [0 1 -1 0 0 0 0];

internalField   nonuniform List<vector> 
6144
(
(-2.44126e-07 0.000543925 1.36879e-07)
(-2.05772e-07 0.000551699 2.54327e-07)
(-1.77691e-07 0.00056097 2.36847e-07)
(-2.39367e-07 0.000564522 1.26056e-07)
(-2.31376e-07 0.000565002 6.01846e-08)
(-2.2299e-07 0.000565417 2.6355e-08)
(-2.05929e-07 0.000565647 -1.80089e-08)
(-1.95082e-07 0.000565874 -3.43912e-08)
(-1.69373e-07 0.000566028 -3.78585e-08)
(-1.65349e-07 0.000566145 -4.63306e-08)
(-1.51819e-07 0.000566216 -4.96859e-08)
(-1.52649e-07 0.000566269 -5.68662e-08)
(-1.42328e-07 0.000566311 -5.83002e-08)
(-1.39247e-07 0.000566358 -5.91926e-08)
(-1.31366e-07 0.000566391 -6.2457e-08)
(-1.27764e-07 0.000566406 -5.94143e-08)
(-1.30177e-07 0.00056638 -6.04385e-08)
(-1.29154e-07 0.000566328 -5.88251e-08)
(-1.33103e-07 0.000566258 -5.98629e-08)
(-1.3101e-07 0.000566176 -5.75089e-08)
(-1.33118e-07 0.000566084 -5.89365e-08)
(-1.29965e-07 0.000565982 -5.63744e-08)
(-1.33373e-07 0.000565869 -5.741e-08)
(-1.28868e-07 0.000565747 -5.48205e-08)
(-1.31974e-07 0.000565613 -5.57576e-08)
(-1.2704e-07 0.00056547 -5.30442e-08)
(-1.29824e-07 0.000565316 -5.37986e-08)
(-1.24278e-07 0.000565151 -5.08577e-08)
(-1.265e-07 0.000564975 -5.14677e-08)
(-1.20258e-07 0.000564787 -4.83037e-08)
(-1.21622e-07 0.000564586 -4.8862e-08)
(-1.14625e-07 0.00056437 -4.55403e-08)
(-1.13782e-07 0.000564139 -4.59823e-08)
(-1.06102e-07 0.00056389 -4.2336e-08)
(-1.09008e-07 0.000563622 -4.19081e-08)
(-9.48204e-08 0.000563341 -3.92595e-08)
(-9.65156e-08 0.000563031 -3.91914e-08)
(-8.02216e-08 0.00056271 -3.6688e-08)
(-8.19335e-08 0.000562356 -3.62431e-08)
(-6.9883e-08 0.000561981 -3.30194e-08)
(-6.26585e-08 0.000561588 -3.29245e-08)
(-5.65301e-08 0.000561139 -2.77052e-08)
(-3.72493e-08 0.000560752 -2.89002e-08)
(-4.32547e-08 0.000560185 -3.37333e-08)
(-1.74934e-08 0.00055981 -2.41839e-08)
(-2.69608e-08 0.000559135 -3.21035e-08)
(-1.26572e-08 0.000558779 -2.11662e-08)
(-2.46213e-08 0.00055783 -2.61272e-08)
(-3.11487e-08 0.000557517 -2.80669e-08)
(-7.01725e-08 0.000556675 -2.25224e-08)
(-9.96013e-08 0.000568995 -6.55132e-08)
(-2.48166e-07 0.000625151 5.04511e-08)
(-2.56338e-07 0.000867354 -5.09449e-08)
(-3.19093e-06 0.00134735 2.16542e-07)
(-2.97949e-06 0.00205113 2.42142e-06)
(-2.15558e-05 0.00313396 1.26743e-06)
(2.53295e-06 0.00553561 2.31357e-05)
(-3.67033e-06 0.00904206 4.81599e-06)
(0.000267512 0.0207911 0.00178174)
(0.0078242 0.127061 0.0159335)
(-0.033086 0.570129 0.0214325)
(-0.0345072 0.426778 0.00722584)
(-0.000843888 0.0245222 0.000789571)
(7.45964e-05 0.00958248 2.10518e-05)
(-6.26686e-05 0.00927144 2.64376e-06)
(-7.75637e-05 0.00919195 4.78684e-06)
(-4.61156e-05 0.00924454 -8.29988e-06)
(-3.00915e-05 0.00933059 -2.03594e-05)
(-2.27351e-05 0.00942 -2.55662e-05)
(-1.44178e-05 0.00947289 -2.54862e-05)
(-2.4982e-06 0.00947371 -2.28885e-05)
(1.0124e-05 0.00943114 -1.91428e-05)
(1.54555e-05 0.00937373 -1.51067e-05)
(1.22254e-05 0.00933536 -1.2016e-05)
(6.63515e-06 0.00932038 -9.67947e-06)
(3.78923e-06 0.00931475 -7.54624e-06)
(3.46303e-06 0.00931146 -5.6991e-06)
(3.08297e-06 0.00930877 -4.26378e-06)
(7.20456e-07 0.00931062 -2.93791e-06)
(-2.21611e-06 0.00932265 -1.54267e-06)
(-5.72981e-06 0.00934312 -3.72581e-07)
(-8.29774e-06 0.00937465 -4.68316e-07)
(-1.08129e-05 0.00941024 -1.65219e-06)
(-1.20716e-05 0.00943537 -6.05657e-06)
(-1.08361e-05 0.00944884 -8.89774e-06)
(-1.116e-05 0.00947001 -1.64925e-05)
(-1.06249e-05 0.00951861 -2.26715e-05)
(-7.47234e-06 0.00922855 -1.27641e-05)
(-1.95088e-06 0.00828234 2.64461e-06)
(-3.13615e-06 0.00707408 1.72957e-06)
(-2.15072e-06 0.0059922 -7.39997e-06)
(-1.41919e-06 0.00499211 -5.17944e-06)
(9.82044e-08 0.00418037 -1.36231e-06)
(4.1467e-07 0.00376871 -9.60874e-07)
(3.59367e-07 0.00368068 -9.91635e-07)
(4.14252e-07 0.0036793 -1.02463e-06)
(-1.45685e-07 0.000522236 5.28321e-07)
(-1.60437e-07 0.000532634 5.18273e-07)
(-2.72368e-07 0.000547763 3.93652e-07)
(-3.85144e-07 0.000557101 2.43759e-07)
(-4.17178e-07 0.000562072 1.89916e-07)
(-4.05168e-07 0.000564577 1.14488e-07)
(-3.56062e-07 0.000565257 6.2093e-08)
(-3.28725e-07 0.000565682 2.32307e-08)
(-2.804e-07 0.000565916 1.54449e-08)
(-2.62495e-07 0.000566055 4.53316e-09)
(-2.26517e-07 0.000566134 -1.93773e-10)
(-2.09825e-07 0.000566184 -5.11973e-09)
(-1.81146e-07 0.000566227 -4.38152e-09)
(-1.70901e-07 0.00056627 -1.03361e-08)
(-1.56352e-07 0.000566299 -7.084e-09)
(-1.59382e-07 0.000566301 -1.47705e-08)
(-1.63619e-07 0.00056627 -1.18543e-08)
(-1.70184e-07 0.000566215 -1.79435e-08)
(-1.76435e-07 0.000566145 -1.32378e-08)
(-1.79225e-07 0.000566065 -1.70648e-08)
(-1.84108e-07 0.000565974 -1.43528e-08)
(-1.83397e-07 0.00056587 -1.75813e-08)
(-1.86767e-07 0.00056576 -1.37313e-08)
(-1.84772e-07 0.000565639 -1.73438e-08)
(-1.86784e-07 0.000565506 -1.32922e-08)
(-1.83873e-07 0.000565363 -1.67046e-08)
(-1.85054e-07 0.00056521 -1.22573e-08)
(-1.80575e-07 0.000565046 -1.54713e-08)
(-1.8009e-07 0.000564871 -1.07721e-08)
(-1.74009e-07 0.000564684 -1.38374e-08)
(-1.71578e-07 0.000564486 -8.99385e-09)
(-1.63375e-07 0.000564273 -1.11864e-08)
(-1.5888e-07 0.000564044 -7.53191e-09)
(-1.45739e-07 0.00056379 -9.49703e-09)
(-1.37536e-07 0.000563529 -1.45719e-09)
(-1.22357e-07 0.000563253 -8.56e-09)
(-1.09693e-07 0.000562944 -1.29424e-09)
(-9.22514e-08 0.000562628 -9.36584e-09)
(-7.51817e-08 0.000562267 6.33767e-10)
(-5.40745e-08 0.000561906 -2.997e-09)
(-3.04418e-08 0.000561504 1.2043e-09)
(-1.12392e-08 0.000561071 3.33297e-09)
(3.84549e-08 0.000560668 7.47944e-09)
(3.26925e-08 0.000560108 -6.72048e-09)
(1.09379e-07 0.000559743 1.50782e-08)
(8.9276e-08 0.000559043 5.63431e-10)
(1.36786e-07 0.000558715 1.41302e-08)
(1.07947e-07 0.000557704 -3.7148e-10)
(5.5322e-08 0.00055748 1.07544e-08)
(-1.48613e-07 0.000556032 -2.2945e-08)
(-4.06315e-07 0.000563377 9.94955e-09)
(-9.55079e-07 0.000593663 -1.57271e-08)
(-1.91858e-06 0.000767028 2.58512e-07)
(-6.02633e-06 0.00118912 1.52146e-06)
(-1.05021e-05 0.00193532 4.42575e-06)
(6.82161e-06 0.00311603 4.25353e-06)
(-7.70477e-05 0.00583411 4.84279e-05)
(-0.00037378 0.00944963 -7.69806e-05)
(-0.00193352 0.0239549 0.00180882)
(-0.00332953 0.119351 0.00944276)
(-0.0884378 0.560775 0.01924)
(-0.0545824 0.324371 0.00423804)
(-0.000517334 0.0229982 2.31414e-05)
(7.04141e-05 0.00938786 -3.02524e-05)
(-7.58052e-05 0.00907522 -2.50316e-06)
(-6.30674e-05 0.00916829 -8.22349e-06)
(-4.08604e-05 0.00923663 -2.13368e-05)
(-3.16675e-05 0.0092644 -2.76156e-05)
(-2.40829e-05 0.00928887 -3.01607e-05)
(-1.0798e-05 0.00931184 -2.80628e-05)
(6.7721e-06 0.00932554 -2.26098e-05)
(1.91986e-05 0.00932379 -1.90454e-05)
(2.44054e-05 0.0093084 -1.63363e-05)
(2.47864e-05 0.00928837 -1.29497e-05)
(2.59855e-05 0.00927282 -8.37905e-06)
(2.52381e-05 0.00926389 -5.30126e-06)
(2.03879e-05 0.00925903 -3.58548e-06)
(1.17257e-05 0.00925589 -1.97283e-06)
(2.03341e-06 0.00925659 -4.36304e-07)
(-5.28592e-06 0.00926648 1.9651e-06)
(-1.36403e-05 0.00928288 3.32552e-06)
(-2.09268e-05 0.00930729 2.54234e-06)
(-2.8015e-05 0.00934351 1.61573e-06)
(-3.15002e-05 0.00938449 -3.79341e-06)
(-3.10518e-05 0.00941761 -7.13172e-06)
(-3.09495e-05 0.00945717 -1.45917e-05)
(-2.68469e-05 0.00953332 -1.94084e-05)
(-1.68448e-05 0.00938685 -1.06527e-05)
(-8.57245e-06 0.00869309 -5.43105e-06)
(-5.52192e-06 0.00769269 2.2824e-07)
(-2.28895e-06 0.00668017 -6.80426e-06)
(-1.58249e-07 0.00556816 -7.75038e-06)
(2.79682e-06 0.00447899 -2.45224e-06)
(2.16766e-06 0.00383581 -7.9398e-07)
(1.57613e-06 0.00367886 -9.63737e-07)
(1.65998e-06 0.0036786 -8.72502e-07)
(-5.05769e-07 0.000518047 1.33911e-06)
(-2.6611e-07 0.000523577 8.67055e-07)
(-5.889e-07 0.000533494 5.8198e-07)
(-5.00846e-07 0.000543604 3.70838e-07)
(-5.65059e-07 0.00055353 3.24044e-07)
(-4.88531e-07 0.000560072 2.29284e-07)
(-4.33078e-07 0.000562999 1.62141e-07)
(-3.7225e-07 0.000564727 9.60659e-08)
(-3.3908e-07 0.000565671 5.87497e-08)
(-3.08011e-07 0.000566053 4.15898e-08)
(-2.6719e-07 0.000566203 4.31574e-08)
(-2.27103e-07 0.000566265 4.58569e-08)
(-1.86737e-07 0.000566304 4.71422e-08)
(-1.6579e-07 0.000566334 4.57071e-08)
(-1.5731e-07 0.000566345 4.22392e-08)
(-1.64263e-07 0.000566331 3.87583e-08)
(-1.74597e-07 0.000566292 3.52979e-08)
(-1.83816e-07 0.000566235 3.40749e-08)
(-1.93721e-07 0.000566165 3.60092e-08)
(-1.97841e-07 0.000566085 3.71755e-08)
(-2.08318e-07 0.000565994 3.7882e-08)
(-2.0885e-07 0.000565892 3.83259e-08)
(-2.16353e-07 0.00056578 3.73185e-08)
(-2.15391e-07 0.000565656 3.79549e-08)
(-2.21476e-07 0.000565523 3.69164e-08)
(-2.19083e-07 0.00056538 3.84213e-08)
(-2.23316e-07 0.000565227 3.81593e-08)
(-2.18725e-07 0.000565063 3.99811e-08)
(-2.20757e-07 0.000564889 3.98868e-08)
(-2.1354e-07 0.000564703 4.20918e-08)
(-2.12716e-07 0.000564506 4.22862e-08)
(-2.02054e-07 0.000564293 4.49211e-08)
(-1.99867e-07 0.000564066 4.50757e-08)
(-1.83855e-07 0.00056382 4.5579e-08)
(-1.7158e-07 0.000563557 4.57865e-08)
(-1.57092e-07 0.000563282 4.66714e-08)
(-1.40333e-07 0.000562976 4.34917e-08)
(-1.22655e-07 0.000562661 4.46441e-08)
(-9.31058e-08 0.000562312 4.6846e-08)
(-6.63357e-08 0.000561949 4.68358e-08)
(-2.66177e-08 0.000561559 5.17656e-08)
(6.00791e-09 0.000561147 5.22361e-08)
(7.04039e-08 0.00056073 5.44983e-08)
(8.8451e-08 0.000560189 4.87102e-08)
(1.9092e-07 0.000559808 6.82987e-08)
(1.66064e-07 0.000559094 5.03391e-08)
(2.81209e-07 0.00055879 5.84223e-08)
(2.14102e-07 0.000557714 8.04059e-08)
(1.80065e-07 0.000557603 5.07537e-08)
(-1.49091e-07 0.000555985 9.14466e-08)
(-6.7023e-07 0.000560089 1.20155e-07)
(-1.65599e-06 0.000585268 2.00822e-07)
(-3.27907e-06 0.000715514 9.44834e-07)
(-7.52104e-06 0.00122364 3.12208e-06)
(8.24531e-06 0.00234251 8.70863e-07)
(8.36824e-05 0.00334267 -1.4176e-05)
(-2.06421e-05 0.00517354 9.23914e-05)
(-0.000385361 0.00690309 0.000104208)
(-0.00226006 0.0184898 0.00103881)
(0.00174638 0.112511 0.00820463)
(-0.0264809 0.444416 0.00793994)
(0.000374451 0.0371483 -0.000988605)
(8.94366e-05 0.0088737 3.53785e-05)
(-0.000203444 0.00977085 1.68898e-05)
(-0.000153857 0.00962788 7.89619e-07)
(-3.37704e-05 0.00973846 -7.81582e-06)
(-0.000316208 0.00972091 -3.19993e-05)
(-4.58867e-05 0.00968494 -3.59452e-05)
(-2.47338e-05 0.00963962 -3.86602e-05)
(2.54522e-06 0.00958494 -3.76329e-05)
(3.61354e-05 0.00949882 -3.41349e-05)
(6.88511e-05 0.0093966 -2.7693e-05)
(5.53911e-05 0.0093266 -2.1696e-05)
(2.3942e-05 0.00930189 -1.69509e-05)
(8.5244e-06 0.00930235 -1.19819e-05)
(3.43713e-06 0.00931639 -8.03085e-06)
(2.06943e-06 0.00935191 -5.00248e-06)
(1.7918e-06 0.00939258 -2.06356e-06)
(1.22566e-06 0.00941701 9.37899e-07)
(1.55077e-07 0.00940814 3.91849e-06)
(-2.46942e-06 0.009365 7.33876e-06)
(-7.1967e-06 0.00930812 9.53435e-06)
(-1.37617e-05 0.00927687 7.94895e-06)
(-2.0549e-05 0.00929134 2.36232e-06)
(-2.43789e-05 0.00933442 -4.80633e-06)
(-2.55012e-05 0.00943403 -1.60939e-05)
(-2.75567e-05 0.00961658 -2.39526e-05)
(-2.01363e-05 0.00956946 -1.87014e-05)
(-1.32878e-05 0.00902727 -8.20933e-06)
(-4.20718e-06 0.0082757 -3.22046e-06)
(6.71347e-07 0.00750138 -1.08725e-05)
(4.30533e-06 0.00648363 -8.24665e-06)
(5.93111e-06 0.00513417 -2.8036e-06)
(4.21212e-06 0.00403807 -7.08566e-07)
(3.44697e-06 0.00368025 -4.57005e-07)
(3.24354e-06 0.00367823 -4.81054e-07)
(-1.06275e-06 0.000518053 4.75691e-07)
(-4.44075e-07 0.000522018 5.74905e-07)
(-1.09597e-06 0.000528251 3.71002e-07)
(-6.64543e-07 0.00053604 2.36842e-07)
(-7.55274e-07 0.000544983 2.80871e-07)
(-5.18571e-07 0.000552236 1.83617e-07)
(-4.85907e-07 0.000556867 2.12648e-07)
(-4.03433e-07 0.000560809 1.46404e-07)
(-4.01454e-07 0.000563659 8.04049e-08)
(-3.99278e-07 0.000565282 3.85937e-08)
(-3.64412e-07 0.000566086 4.83037e-08)
(-3.38307e-07 0.000566308 5.70325e-08)
(-2.87149e-07 0.000566353 7.55271e-08)
(-2.73861e-07 0.000566366 7.11445e-08)
(-2.56482e-07 0.000566368 7.87621e-08)
(-2.69539e-07 0.000566343 6.99493e-08)
(-2.70861e-07 0.000566304 7.573e-08)
(-2.87052e-07 0.000566246 6.78534e-08)
(-2.8912e-07 0.00056618 7.52593e-08)
(-3.0175e-07 0.000566098 6.87236e-08)
(-3.04534e-07 0.000566008 7.65819e-08)
(-3.14482e-07 0.000565905 7.00277e-08)
(-3.16838e-07 0.000565793 7.79099e-08)
(-3.25659e-07 0.00056567 7.16479e-08)
(-3.26946e-07 0.000565537 7.97418e-08)
(-3.33852e-07 0.000565394 7.34566e-08)
(-3.32658e-07 0.000565242 8.22399e-08)
(-3.3753e-07 0.000565079 7.62941e-08)
(-3.33607e-07 0.000564907 8.52808e-08)
(-3.3516e-07 0.000564724 7.90721e-08)
(-3.27274e-07 0.000564528 8.81592e-08)
(-3.24745e-07 0.000564316 8.16962e-08)
(-3.12828e-07 0.000564089 9.06335e-08)
(-3.06714e-07 0.000563843 8.42591e-08)
(-2.89394e-07 0.000563582 9.30179e-08)
(-2.77935e-07 0.000563306 8.70006e-08)
(-2.57681e-07 0.000563004 9.49326e-08)
(-2.39604e-07 0.000562696 8.84805e-08)
(-2.06321e-07 0.00056235 9.58799e-08)
(-1.80755e-07 0.000561999 8.84885e-08)
(-1.23546e-07 0.000561618 9.61871e-08)
(-9.14107e-08 0.000561219 8.59698e-08)
(-7.03356e-09 0.000560812 9.40643e-08)
(1.96958e-08 0.00056029 7.12857e-08)
(1.56119e-07 0.000559855 9.56455e-08)
(1.42102e-07 0.000559196 5.87405e-08)
(3.50673e-07 0.000558841 9.16934e-08)
(2.00918e-07 0.00055775 3.21128e-08)
(4.43928e-07 0.000557632 1.0291e-07)
(-8.14626e-08 0.00055595 9.60124e-08)
(-4.03624e-08 0.000559864 3.25802e-07)
(-1.33912e-06 0.000594457 8.17705e-07)
(-2.81146e-06 0.000786994 2.44432e-06)
(-8.5764e-06 0.00149588 3.25896e-06)
(-3.24467e-05 0.00284358 -4.15278e-06)
(1.70825e-05 0.00346831 -2.89067e-05)
(0.000131078 0.00475368 1.16943e-06)
(9.56359e-06 0.00599164 7.74582e-05)
(-0.00195962 0.0166002 0.000808284)
(0.0112439 0.114603 0.00479562)
(-0.00334233 0.447818 0.00516358)
(-0.000259751 0.0358701 -0.000674795)
(0.000798214 0.0100609 -2.88995e-05)
(-0.000105402 0.0104719 1.22309e-05)
(0.000150646 0.00950421 -2.54163e-06)
(-6.83322e-05 0.0313922 8.00734e-06)
(-0.000484396 0.15215 -0.000922865)
(7.78332e-05 0.0313773 4.66471e-06)
(6.69467e-05 0.00915014 -4.35298e-05)
(-1.18323e-06 0.00938988 -0.000311569)
(-0.000119281 0.0094537 -0.000284291)
(-0.000296458 0.00963122 -3.39687e-05)
(-0.000314034 0.0101748 -4.02236e-05)
(-0.000210031 0.0106751 -3.27286e-05)
(-0.000128151 0.0107042 -2.21778e-05)
(-7.41602e-05 0.0104711 -1.58825e-05)
(-4.03444e-05 0.0101825 -1.38854e-05)
(-1.349e-05 0.0100835 -9.44058e-06)
(1.39129e-05 0.00988504 -3.5955e-06)
(3.81547e-05 0.00973967 1.18361e-06)
(1.33963e-05 0.00953025 4.18286e-06)
(1.65812e-05 0.00946204 6.7817e-06)
(1.51016e-05 0.00942682 7.03074e-06)
(1.04254e-05 0.00943588 4.49573e-06)
(4.89225e-06 0.00955095 -2.78352e-07)
(-1.14781e-07 0.00976295 -8.05896e-06)
(-6.2534e-06 0.0098282 -1.34549e-05)
(-1.38318e-05 0.00954214 -1.64943e-05)
(-7.68829e-06 0.00904071 -8.2319e-06)
(-6.64262e-08 0.00852711 -1.03001e-05)
(6.01238e-06 0.00794344 -1.12299e-05)
(8.49072e-06 0.00703943 -7.21104e-06)
(7.46766e-06 0.00568448 -3.68812e-06)
(5.95072e-06 0.00437687 -1.618e-06)
(5.00212e-06 0.00376649 -2.59882e-07)
(4.73667e-06 0.00367577 -2.7617e-07)
(-1.12723e-06 0.00051843 -4.19754e-08)
(-3.74693e-07 0.00052243 1.63119e-07)
(-1.27257e-06 0.000527507 4.64371e-09)
(-5.6628e-07 0.000534624 -4.24111e-08)
(-7.47746e-07 0.000542424 5.61752e-08)
(-3.82593e-07 0.000549648 5.35294e-08)
(-4.28723e-07 0.000554724 1.18796e-07)
(-3.34988e-07 0.000559068 8.98125e-08)
(-3.92452e-07 0.000562088 3.28826e-08)
(-4.21738e-07 0.000564302 2.80755e-09)
(-4.65079e-07 0.000565733 -2.48753e-09)
(-4.70363e-07 0.000566249 3.62491e-08)
(-4.62297e-07 0.000566363 5.70948e-08)
(-4.59333e-07 0.00056637 7.88735e-08)
(-4.62803e-07 0.000566367 7.65759e-08)
(-4.74797e-07 0.000566336 8.49656e-08)
(-4.86643e-07 0.000566298 7.67089e-08)
(-4.99046e-07 0.00056624 8.32811e-08)
(-5.1257e-07 0.000566177 7.48501e-08)
(-5.22103e-07 0.000566097 8.20697e-08)
(-5.35365e-07 0.000566009 7.38468e-08)
(-5.41762e-07 0.000565907 8.15493e-08)
(-5.54294e-07 0.000565797 7.31608e-08)
(-5.59011e-07 0.000565675 8.1782e-08)
(-5.70177e-07 0.000565544 7.36815e-08)
(-5.72486e-07 0.000565403 8.25178e-08)
(-5.81036e-07 0.000565252 7.35909e-08)
(-5.80241e-07 0.000565092 8.20559e-08)
(-5.8566e-07 0.000564923 7.31351e-08)
(-5.80829e-07 0.000564744 8.23024e-08)
(-5.81688e-07 0.000564549 7.36441e-08)
(-5.71255e-07 0.000564338 8.30861e-08)
(-5.65462e-07 0.000564111 7.45218e-08)
(-5.49091e-07 0.000563868 8.3738e-08)
(-5.38036e-07 0.000563611 7.48299e-08)
(-5.14389e-07 0.000563335 8.15947e-08)
(-4.98015e-07 0.000563035 6.92873e-08)
(-4.6861e-07 0.000562729 7.41824e-08)
(-4.42796e-07 0.00056239 6.34695e-08)
(-4.02112e-07 0.000562046 6.73782e-08)
(-3.49113e-07 0.000561671 5.87375e-08)
(-2.9801e-07 0.000561276 5.69797e-08)
(-2.03696e-07 0.000560868 5.39532e-08)
(-1.56382e-07 0.000560378 3.85778e-08)
(1.59896e-08 0.000559952 5.02403e-08)
(5.73843e-08 0.00055932 1.55917e-08)
(3.34993e-07 0.000558851 3.71266e-08)
(2.72755e-07 0.000557962 7.37228e-09)
(6.84998e-07 0.000557635 3.17634e-08)
(2.83267e-07 0.000556446 2.13797e-07)
(7.81189e-07 0.000567484 5.63357e-07)
(8.16825e-09 0.000620823 1.66849e-06)
(-6.50636e-07 0.000840529 4.60139e-06)
(-8.79996e-06 0.00131971 1.95317e-06)
(-3.54342e-06 0.00251429 2.34418e-05)
(-4.07681e-05 0.00380464 2.70369e-06)
(-0.00014874 0.00555264 0.000184255)
(-0.000592123 0.00506664 0.000276783)
(-0.00243506 0.0220856 0.00107081)
(0.0167839 0.172435 0.0130523)
(-0.0130988 0.563315 0.00205148)
(-0.00361741 0.479579 0.00195371)
(-0.0186576 0.495212 -0.00018502)
(-0.00601594 0.487259 -0.00351148)
(-0.010075 0.492422 -0.00446283)
(-0.00435409 0.49243 -0.00378788)
(-0.00299823 0.496261 -0.00296564)
(-0.0018208 0.500777 -0.000585674)
(0.000550953 0.49824 0.000962349)
(0.00232389 0.497393 0.00326421)
(0.00493555 0.500743 0.00422023)
(0.00478565 0.501397 0.00275538)
(0.00319337 0.491147 0.00172294)
(0.00250585 0.497001 0.000777579)
(0.00199495 0.486475 0.000140754)
(0.00115009 0.458372 -0.000393306)
(0.000528348 0.388942 -0.000765311)
(0.000345715 0.419069 -0.000958702)
(-0.000200334 0.348649 -0.000339778)
(-0.00021797 0.283913 -0.000655027)
(3.22833e-05 0.0307219 -5.5051e-05)
(3.74617e-05 0.0103729 -0.000100485)
(8.76244e-05 0.0108379 1.33389e-05)
(0.000113481 0.0105416 1.07757e-05)
(0.00011946 0.0101765 5.44803e-06)
(1.92231e-05 0.00992821 -3.94797e-06)
(5.84292e-06 0.00971687 -9.82975e-06)
(-3.72297e-06 0.00940944 -1.3648e-05)
(-8.29212e-07 0.00906493 -1.45614e-05)
(4.80274e-06 0.00869671 -1.38139e-05)
(9.79594e-06 0.00817466 -1.13647e-05)
(9.54232e-06 0.00731474 -7.03023e-06)
(6.68026e-06 0.00599052 -5.02445e-06)
(5.0052e-06 0.00460403 -3.36746e-06)
(4.89163e-06 0.00383569 -1.13013e-06)
(5.13992e-06 0.00367464 -1.70601e-06)
(-1.14659e-06 0.000517309 -3.06091e-07)
(-1.79007e-08 0.000521449 -1.7969e-07)
(-1.0352e-06 0.000526485 -3.42735e-07)
(-2.14578e-07 0.000533266 -3.34257e-07)
(-3.96932e-07 0.000539059 -2.31266e-07)
(-7.19538e-08 0.000546079 -1.06638e-07)
(-1.59672e-07 0.000553465 2.9338e-10)
(-1.21899e-07 0.000559405 -3.97092e-08)
(-2.39738e-07 0.00056234 -5.2952e-08)
(-3.07835e-07 0.000564224 -1.07216e-07)
(-4.17032e-07 0.000565459 -9.79987e-08)
(-4.83358e-07 0.000566078 -5.57601e-08)
(-5.37295e-07 0.000566262 6.83467e-09)
(-5.76945e-07 0.000566284 2.95042e-08)
(-6.12392e-07 0.000566286 5.23141e-08)
(-6.49607e-07 0.000566258 5.09981e-08)
(-6.7576e-07 0.000566227 6.13025e-08)
(-7.02082e-07 0.000566167 5.0502e-08)
(-7.19893e-07 0.000566107 5.79088e-08)
(-7.39369e-07 0.000566029 4.57149e-08)
(-7.51848e-07 0.000565942 5.30031e-08)
(-7.65751e-07 0.00056584 4.07041e-08)
(-7.74029e-07 0.00056573 4.81848e-08)
(-7.84289e-07 0.000565609 3.54921e-08)
(-7.88621e-07 0.000565478 4.32666e-08)
(-7.95185e-07 0.000565337 3.06646e-08)
(-7.96073e-07 0.000565186 3.90523e-08)
(-7.99265e-07 0.000565025 2.62609e-08)
(-7.9605e-07 0.000564853 3.47092e-08)
(-7.94687e-07 0.000564671 2.15677e-08)
(-7.85792e-07 0.000564477 3.01781e-08)
(-7.77851e-07 0.00056427 1.69421e-08)
(-7.60356e-07 0.000564047 2.51484e-08)
(-7.44551e-07 0.000563808 1.09075e-08)
(-7.21084e-07 0.000563548 1.84689e-08)
(-6.98784e-07 0.000563271 4.5623e-09)
(-6.70616e-07 0.00056297 1.07978e-08)
(-6.39403e-07 0.000562664 -3.27089e-09)
(-5.96841e-07 0.000562328 2.67023e-09)
(-5.46884e-07 0.000561995 -8.54981e-09)
(-4.74875e-07 0.000561625 -9.69927e-10)
(-4.03303e-07 0.000561243 -1.02985e-08)
(-2.83399e-07 0.000560837 -5.44703e-10)
(-1.965e-07 0.000560383 -1.29245e-08)
(1.17354e-08 0.000559969 1.2696e-09)
(1.16856e-07 0.000559422 -1.66702e-08)
(4.64933e-07 0.000558969 -1.21921e-08)
(5.20074e-07 0.000558155 -9.38289e-09)
(9.78273e-07 0.000557784 -2.01474e-08)
(8.88168e-07 0.000558715 3.4422e-07)
(1.74641e-06 0.000577719 5.46086e-07)
(2.45081e-06 0.000639456 2.05497e-06)
(5.76012e-06 0.000853953 4.96138e-06)
(6.0185e-06 0.00161248 1.50199e-05)
(5.57102e-05 0.00302705 8.3769e-05)
(-3.16275e-05 0.00361885 3.37473e-05)
(0.000187396 0.00524913 0.0003758)
(-0.000239795 0.00590155 9.3258e-06)
(-0.00079477 0.0255503 0.00240211)
(0.0129413 0.222991 0.0188332)
(0.00962829 0.36354 -0.00878299)
(-0.00142981 0.480234 -0.00149849)
(-0.00229928 0.487031 0.00108693)
(-0.00621716 0.491385 -0.00124756)
(-0.00342308 0.49858 -0.000801835)
(-0.000558552 0.499053 0.000668886)
(-0.000786561 0.491482 0.00115864)
(-0.00075098 0.49244 0.00161136)
(0.00107068 0.482015 0.00112406)
(0.000404531 0.478788 0.00229282)
(0.000163496 0.503664 0.000617245)
(-0.00100557 0.479667 0.000616197)
(0.000894865 0.499551 0.000697241)
(0.0003114 0.499084 -0.000278308)
(-0.000182327 0.49419 -0.000484707)
(0.000724466 0.494271 -0.000336129)
(0.000105327 0.496566 -0.000828025)
(0.000920656 0.490292 -0.00124839)
(-0.000790974 0.488729 -0.00158557)
(-0.00147514 0.491342 -0.00240561)
(-0.00284923 0.460867 -0.00277928)
(-0.00216525 0.249513 -0.00143499)
(-0.0035117 0.439922 -0.00184134)
(-0.00288499 0.461077 -0.00142665)
(-0.00338981 0.298377 -0.00150412)
(3.09331e-05 0.0291565 -0.000166231)
(1.23049e-05 0.00738936 -2.3709e-05)
(8.14908e-06 0.00708783 -3.28789e-05)
(2.70659e-05 0.00666184 -1.72231e-05)
(4.35251e-05 0.0065655 -0.000248504)
(5.72238e-05 0.00637484 -0.00023475)
(6.73705e-05 0.00566143 -4.06979e-06)
(4.32616e-05 0.00463 -5.06986e-06)
(3.20277e-05 0.0038718 -3.85306e-06)
(2.36492e-05 0.00367547 -3.39665e-06)
(1.09108e-05 0.00367884 -5.53469e-06)
(-1.34423e-06 0.000514273 -7.37036e-07)
(3.68209e-07 0.000517929 -3.2564e-07)
(-7.90686e-07 0.000522609 -5.75542e-07)
(-3.51003e-08 0.00052765 -3.69069e-07)
(-1.0091e-07 0.000528591 -4.43953e-07)
(6.00406e-08 0.00053363 -2.30283e-07)
(1.79081e-08 0.000542796 -1.36907e-07)
(-3.13153e-08 0.000552356 -1.10454e-07)
(-1.22949e-07 0.000559153 -1.14737e-07)
(-2.38427e-07 0.000563365 -1.74256e-07)
(-3.49867e-07 0.000565211 -2.06876e-07)
(-4.29357e-07 0.000565997 -1.45462e-07)
(-5.27226e-07 0.00056622 -8.26992e-08)
(-5.92715e-07 0.00056625 -3.28615e-08)
(-6.47327e-07 0.00056625 -2.13014e-08)
(-7.00184e-07 0.000566229 4.52288e-09)
(-7.40173e-07 0.000566206 1.47291e-09)
(-7.72927e-07 0.000566161 9.88806e-09)
(-7.9748e-07 0.000566109 -2.78802e-11)
(-8.16104e-07 0.000566039 5.77469e-09)
(-8.30824e-07 0.00056596 -6.0513e-09)
(-8.41113e-07 0.000565868 -6.31566e-10)
(-8.49113e-07 0.000565765 -1.32891e-08)
(-8.5346e-07 0.00056565 -8.11569e-09)
(-8.58094e-07 0.000565527 -2.22391e-08)
(-8.59307e-07 0.000565393 -1.74092e-08)
(-8.58439e-07 0.000565248 -3.02209e-08)
(-8.54108e-07 0.000565094 -2.39382e-08)
(-8.48853e-07 0.000564929 -3.67042e-08)
(-8.39361e-07 0.000564754 -3.01185e-08)
(-8.2788e-07 0.000564567 -4.26273e-08)
(-8.10681e-07 0.000564368 -3.64368e-08)
(-7.89828e-07 0.000564154 -5.1987e-08)
(-7.65433e-07 0.00056392 -4.52528e-08)
(-7.39619e-07 0.000563665 -5.53022e-08)
(-7.08266e-07 0.000563392 -4.51208e-08)
(-6.76153e-07 0.0005631 -5.31192e-08)
(-6.39088e-07 0.000562803 -4.47192e-08)
(-5.96429e-07 0.000562482 -5.50069e-08)
(-5.39708e-07 0.000562169 -4.91357e-08)
(-4.67202e-07 0.000561821 -5.61539e-08)
(-3.81926e-07 0.000561463 -4.95356e-08)
(-2.62083e-07 0.00056108 -5.31589e-08)
(-1.52983e-07 0.000560676 -4.91048e-08)
(5.90403e-08 0.000560295 -4.76734e-08)
(2.08053e-07 0.000559787 -4.04442e-08)
(5.62647e-07 0.000559345 -4.19358e-08)
(7.03138e-07 0.00055854 1.06843e-08)
(1.15849e-06 0.000558661 1.06252e-08)
(1.32233e-06 0.000563683 4.22795e-07)
(2.42407e-06 0.000595736 5.33916e-07)
(3.55193e-06 0.000688662 1.72857e-06)
(1.05972e-05 0.000907058 3.48403e-06)
(2.492e-05 0.00140646 7.09643e-06)
(1.99078e-05 0.00242488 7.06674e-06)
(-2.82323e-05 0.0037111 4.14373e-05)
(0.000431052 0.00513815 0.000255796)
(-0.000179058 0.00399003 -9.12181e-05)
(0.000704376 0.0230412 0.00304173)
(0.0112883 0.362258 0.0174168)
(0.00178403 0.550794 -0.00545638)
(0.000840435 0.461487 0.000330827)
(0.00041054 0.393731 -0.00310011)
(0.00344543 0.467644 -0.000385267)
(0.00119424 0.454165 -0.000324528)
(-0.00197995 0.457614 0.000848307)
(9.98249e-05 0.454444 6.66645e-06)
(-0.0016781 0.463037 -1.8386e-05)
(-0.000558095 0.416713 5.06501e-05)
(-0.000572495 0.488371 0.00166148)
(-0.00140053 0.513147 0.000138044)
(-0.00209149 0.477396 0.000188126)
(-0.00129706 0.465251 -0.00019872)
(-0.00205125 0.451047 -0.000729231)
(-0.00283318 0.450494 -0.000597876)
(0.000325994 0.485503 0.000830339)
(-0.000961548 0.510056 0.000356799)
(-0.000605934 0.47191 0.000434314)
(-0.00118245 0.493195 6.12486e-05)
(-0.000319229 0.489389 -0.000500005)
(-0.00205794 0.505156 -0.00136587)
(-0.00288045 0.498851 -0.00201909)
(-0.00419856 0.497733 -0.00301278)
(-0.00568823 0.483963 -0.00414588)
(-0.00593304 0.484986 -0.00437354)
(-0.00533625 0.468571 -0.00387898)
(-0.00510405 0.453953 -0.00303303)
(-0.0033827 0.38802 -0.00141785)
(-0.00365463 0.493579 -0.000672252)
(-0.0037412 0.487023 -5.95736e-05)
(-0.00310774 0.488333 -0.000557413)
(-0.00218306 0.487743 -0.00215051)
(-0.00217294 0.486041 -0.00403799)
(-0.00260336 0.468914 -0.00573542)
(-0.00395211 0.349172 -0.00448431)
(-9.07205e-05 0.0255029 -0.000218058)
(-1.55447e-06 0.000508353 -9.63954e-07)
(1.69919e-07 0.000512675 -1.76629e-07)
(-8.83109e-07 0.000517326 -6.08739e-07)
(-3.82247e-07 0.000522498 -1.40062e-07)
(-2.18427e-07 0.000521271 -5.80139e-07)
(-1.35697e-07 0.00052361 -2.0417e-07)
(-1.12483e-07 0.000529353 -1.7715e-07)
(-1.3107e-07 0.000539127 -2.74951e-08)
(-1.46663e-07 0.000550381 -3.94293e-08)
(-3.60752e-07 0.000559349 -1.25466e-07)
(-4.54527e-07 0.000563967 -1.91337e-07)
(-5.45898e-07 0.000565727 -1.60739e-07)
(-6.08888e-07 0.000566151 -7.52836e-08)
(-6.78294e-07 0.000566231 -3.20667e-08)
(-7.32945e-07 0.000566244 -3.22353e-09)
(-7.76101e-07 0.000566228 3.89431e-10)
(-8.14102e-07 0.00056622 8.83513e-09)
(-8.46963e-07 0.000566185 4.283e-09)
(-8.74793e-07 0.000566145 8.71249e-09)
(-8.96398e-07 0.000566082 1.64478e-09)
(-9.18191e-07 0.00056601 6.07779e-09)
(-9.32186e-07 0.00056592 -7.21936e-10)
(-9.48465e-07 0.000565821 4.28306e-09)
(-9.55749e-07 0.000565711 -3.22863e-09)
(-9.64518e-07 0.000565588 2.47604e-09)
(-9.65371e-07 0.000565455 -4.07104e-09)
(-9.6988e-07 0.000565313 2.2525e-09)
(-9.66477e-07 0.00056516 -3.91346e-09)
(-9.66615e-07 0.000564997 2.91782e-09)
(-9.58362e-07 0.000564824 -2.77987e-09)
(-9.52997e-07 0.00056464 4.60877e-09)
(-9.39082e-07 0.000564446 -7.25506e-10)
(-9.29075e-07 0.000564235 8.75155e-09)
(-9.07182e-07 0.000564002 7.29016e-09)
(-8.84313e-07 0.000563749 1.86547e-08)
(-8.50938e-07 0.000563482 1.66468e-08)
(-8.2098e-07 0.000563191 2.24866e-08)
(-7.83763e-07 0.000562894 1.47702e-08)
(-7.44826e-07 0.000562579 1.5648e-08)
(-6.84928e-07 0.000562269 7.08567e-09)
(-6.15157e-07 0.000561928 8.0979e-09)
(-5.23702e-07 0.000561571 3.10984e-09)
(-4.13296e-07 0.000561195 1.63772e-09)
(-2.90082e-07 0.00056082 2.12786e-09)
(-9.5087e-08 0.000560454 -3.15069e-09)
(9.17511e-08 0.000560022 1.38627e-08)
(4.21016e-07 0.000559625 4.406e-09)
(6.52875e-07 0.000559 9.00686e-08)
(9.8389e-07 0.000560675 1.31804e-07)
(1.41013e-06 0.000574748 6.86629e-07)
(2.05336e-06 0.00064003 1.02943e-06)
(3.35113e-06 0.000809701 2.54639e-06)
(1.04709e-05 0.00110957 5.15505e-06)
(2.30146e-05 0.0014735 5.93831e-06)
(2.96855e-05 0.00219196 1.26818e-05)
(1.99224e-05 0.00342884 1.96277e-05)
(-8.76524e-05 0.00464969 0.000214939)
(-0.000482243 0.003723 8.00283e-05)
(-0.000770137 0.0226255 0.00253557)
(-0.0077246 0.388289 0.0182279)
(-0.00848527 0.559919 -0.00782844)
(-0.000304999 0.498276 -0.000307579)
(-0.00148031 0.495838 0.00108403)
(-0.00235541 0.495357 0.000187769)
(-0.00125286 0.487534 6.42382e-05)
(-0.0018064 0.496802 0.00130438)
(-0.00102096 0.500652 0.000358843)
(-0.00112602 0.493119 0.000555882)
(-0.00168684 0.492579 0.000232445)
(-0.000903579 0.492831 0.000726893)
(-0.00108915 0.491216 0.00074132)
(-0.000730317 0.493402 0.000853017)
(-0.000703802 0.493083 0.000485206)
(-0.000628117 0.491963 0.000536764)
(8.32396e-05 0.491247 0.00129829)
(0.00084562 0.491529 0.00209804)
(0.000564076 0.494375 0.00257995)
(0.0016237 0.503096 0.00367504)
(0.000735424 0.498637 0.00398661)
(0.00073489 0.503912 0.00433438)
(0.000647091 0.510263 0.00460258)
(0.00107055 0.506741 0.00539097)
(0.000598316 0.498098 0.00481029)
(8.77128e-05 0.488527 0.00322349)
(2.14985e-07 0.496013 0.00194043)
(-0.000157445 0.512395 0.00145418)
(-0.00134844 0.486601 0.000737261)
(-0.00195729 0.484923 0.00134281)
(-0.00329922 0.476917 0.00141333)
(-0.00414187 0.322624 0.000319344)
(-4.21895e-05 0.0329856 -0.000109605)
(-0.000216182 0.0119236 -0.000339273)
(-0.000243493 0.0120763 -0.000245859)
(-0.000233661 0.0322928 -8.73558e-05)
(-0.00739483 0.354722 -0.0216948)
(-0.00379427 0.459548 -0.0128992)
(-4.03597e-06 0.000264839 -2.97527e-06)
(8.12196e-08 0.00052057 -3.18069e-08)
(-1.12466e-06 0.000509474 -6.75956e-07)