/*--------------------------------*- C++ -*----------------------------------*\
| =========                 |                                                 |
| \\      /  F ield         | OpenFOAM: The Open Source CFD Toolbox           |
|  \\    /   O peration     | Version:  2.3.0                                 |
|   \\  /    A nd           | Web:      www.OpenFOAM.org                      |
|    \\/     M anipulation  |                                                 |
\*---------------------------------------------------------------------------*/
FoamFile
{
    version     2.0;
    format      ascii;
    class       volVectorField;
    location    "9";
    object      Ur;
}
// * * * * * * * * * * * * * * * * * * * * * * * * * * * * * * * * * * * * * //

dimensions      [0 1 -1 0 0 0 0];

internalField   nonuniform List<vector> 
6144
(
(-4.13978e-07 0.000670447 -1.89092e-07)
(-3.64334e-07 0.000680601 -1.64262e-07)
(-2.04573e-07 0.000692832 -2.10809e-08)
(-2.20604e-07 0.000697983 1.00027e-08)
(-2.00062e-07 0.000698842 3.74823e-08)
(-1.95289e-07 0.000699301 4.21128e-08)
(-2.01716e-07 0.000699391 -1.9228e-08)
(-1.96093e-07 0.000699554 -1.94656e-08)
(-1.94924e-07 0.000699675 -4.07939e-08)
(-1.96359e-07 0.000699805 -4.61158e-08)
(-1.85204e-07 0.000699901 -4.76418e-08)
(-1.82585e-07 0.000699975 -4.62837e-08)
(-1.75509e-07 0.000699981 -4.72147e-08)
(-1.75492e-07 0.00069994 -5.20714e-08)
(-1.7049e-07 0.000699875 -5.76128e-08)
(-1.72852e-07 0.000699791 -6.17961e-08)
(-1.64302e-07 0.000699682 -6.66927e-08)
(-1.66207e-07 0.000699548 -7.04522e-08)
(-1.62558e-07 0.000699397 -7.2132e-08)
(-1.62831e-07 0.000699229 -7.54079e-08)
(-1.594e-07 0.000699049 -7.70685e-08)
(-1.6017e-07 0.000698857 -8.05709e-08)
(-1.55707e-07 0.000698662 -8.2178e-08)
(-1.57075e-07 0.000698465 -8.67567e-08)
(-1.51263e-07 0.000698275 -8.90503e-08)
(-1.53127e-07 0.000698093 -9.55037e-08)
(-1.45821e-07 0.000697931 -9.92146e-08)
(-1.47855e-07 0.000697793 -1.08468e-07)
(-1.39068e-07 0.000697694 -1.14343e-07)
(-1.41138e-07 0.000697635 -1.27271e-07)
(-1.30773e-07 0.000697637 -1.36038e-07)
(-1.32493e-07 0.000697712 -1.53227e-07)
(-1.20113e-07 0.000697873 -1.65644e-07)
(-1.21815e-07 0.000698141 -1.8842e-07)
(-1.05615e-07 0.000698524 -2.05665e-07)
(-1.06236e-07 0.000699085 -2.34685e-07)
(-8.37226e-08 0.000699771 -2.5702e-07)
(-7.92391e-08 0.000700663 -2.93397e-07)
(-4.42771e-08 0.000701712 -3.21763e-07)
(-2.65158e-08 0.000703001 -3.65769e-07)
(3.04268e-08 0.000704473 -4.02661e-07)
(7.63581e-08 0.000706176 -4.60486e-07)
(1.76435e-07 0.00070808 -5.12381e-07)
(2.83564e-07 0.000710205 -5.83926e-07)
(4.63738e-07 0.00071247 -6.44209e-07)
(6.83379e-07 0.000715273 -7.44456e-07)
(8.65782e-07 0.000749268 -8.34639e-07)
(3.02075e-07 0.000874501 -8.58924e-07)
(-9.51592e-07 0.00107597 -1.49761e-06)
(-3.29693e-07 0.00128858 -2.38217e-06)
(-1.47133e-06 0.00151718 -2.10758e-06)
(-5.35427e-07 0.00175283 -3.84384e-06)
(-1.0174e-05 0.0019745 -1.22905e-05)
(-6.45678e-06 0.00211636 -1.68296e-05)
(2.80364e-07 0.00223737 -1.52339e-05)
(-1.55227e-05 0.00233005 -1.46968e-05)
(-3.27011e-05 0.0025503 -6.87906e-05)
(5.57927e-05 0.00433065 2.23e-05)
(1.99784e-05 0.0169548 -0.000479824)
(0.00726735 0.12842 0.00504551)
(-0.0204815 0.613202 -0.0247741)
(-0.0439954 0.501194 -0.0383705)
(-0.000805632 0.0241068 -0.000554954)
(-7.88309e-05 0.0085372 -0.000102084)
(-7.03156e-05 0.00806805 -3.69025e-05)
(-3.77734e-05 0.0081493 -5.22189e-05)
(-8.7651e-06 0.00821444 -4.87343e-05)
(1.76975e-05 0.00831354 -4.26079e-05)
(2.99571e-05 0.00847607 -1.8239e-05)
(6.12013e-06 0.00866221 -4.47995e-06)
(-1.88887e-05 0.00882508 -1.35361e-05)
(-3.71775e-05 0.00897727 -2.01601e-05)
(-4.08198e-05 0.00914379 -8.95373e-06)
(-4.36071e-05 0.00929141 5.70598e-06)
(-5.70526e-05 0.00939561 9.4209e-06)
(-5.95888e-05 0.00949155 -1.98914e-06)
(-3.46272e-05 0.00958563 -7.31403e-06)
(-2.43527e-05 0.00965629 -1.21213e-06)
(-8.70658e-06 0.00972515 6.06752e-06)
(-4.46613e-06 0.00969403 5.92114e-06)
(-1.95231e-05 0.00944738 -3.59771e-07)
(-3.10388e-05 0.00917786 -1.91484e-05)
(-4.17573e-05 0.00904869 -2.56324e-05)
(-4.7274e-05 0.00904896 -2.44654e-05)
(-4.84974e-05 0.00917434 -1.35824e-05)
(-3.24742e-05 0.00940457 -1.43653e-05)
(-3.39279e-05 0.00966383 -2.51317e-05)
(-4.75103e-05 0.00981958 -3.2551e-05)
(-2.78017e-05 0.00969388 -3.26197e-05)
(-8.80834e-06 0.00880404 -3.48865e-05)
(2.03061e-05 0.00742474 -3.56726e-05)
(2.34054e-05 0.00682082 -4.12921e-05)
(2.80991e-05 0.00696684 -9.12828e-05)
(8.90068e-06 0.00722286 -7.56686e-05)
(-1.67707e-05 0.00734626 -4.41259e-05)
(-2.43759e-05 0.00711769 9.61563e-06)
(-4.83278e-07 0.00064869 -1.94852e-07)
(-4.002e-07 0.000660535 -2.04538e-07)
(-3.06012e-07 0.000676772 -6.404e-08)
(-3.17365e-07 0.000687541 -1.83002e-08)
(-3.51917e-07 0.00069424 1.046e-07)
(-3.66024e-07 0.00069774 8.74672e-08)
(-3.61918e-07 0.000698631 6.57707e-08)
(-3.65371e-07 0.000699153 3.18227e-08)
(-3.61748e-07 0.000699466 1.6488e-08)
(-3.61216e-07 0.000699679 2.56998e-10)
(-3.31302e-07 0.000699819 6.59771e-09)
(-3.16321e-07 0.000699894 6.98418e-09)
(-2.93648e-07 0.000699894 9.10091e-09)
(-2.87136e-07 0.000699842 3.46745e-09)
(-2.72572e-07 0.000699765 -4.71104e-11)
(-2.70284e-07 0.000699676 -4.06081e-09)
(-2.59617e-07 0.000699559 -1.22044e-08)
(-2.57615e-07 0.000699409 -1.47192e-08)
(-2.50566e-07 0.000699255 -1.63727e-08)
(-2.47505e-07 0.000699088 -1.83804e-08)
(-2.40628e-07 0.000698905 -2.32335e-08)
(-2.36076e-07 0.000698712 -2.29091e-08)
(-2.26988e-07 0.000698515 -2.87807e-08)
(-2.2005e-07 0.00069832 -2.78582e-08)
(-2.07083e-07 0.000698128 -3.54238e-08)
(-1.96958e-07 0.000697947 -3.46639e-08)
(-1.78724e-07 0.000697784 -4.47174e-08)
(-1.63281e-07 0.000697647 -4.48569e-08)
(-1.3835e-07 0.000697547 -5.82206e-08)
(-1.16172e-07 0.000697491 -5.98014e-08)
(-8.30581e-08 0.000697492 -7.71762e-08)
(-5.18831e-08 0.000697566 -8.03842e-08)
(-8.21411e-09 0.000697725 -1.0251e-07)
(3.54179e-08 0.000697996 -1.07788e-07)
(9.37779e-08 0.000698378 -1.36304e-07)
(1.54424e-07 0.000698943 -1.43892e-07)
(2.36861e-07 0.000699629 -1.78083e-07)
(3.25213e-07 0.000700533 -1.88697e-07)
(4.47221e-07 0.000701592 -2.28769e-07)
(5.8294e-07 0.0007029 -2.43999e-07)
(7.66696e-07 0.000704389 -2.93836e-07)
(9.83299e-07 0.00070612 -3.17722e-07)
(1.26878e-06 0.000708043 -3.86451e-07)
(1.62889e-06 0.000710269 -4.16045e-07)
(2.08106e-06 0.000712681 -4.88268e-07)
(2.55979e-06 0.000716056 -5.96493e-07)
(2.87979e-06 0.000734411 -7.53163e-07)
(2.63768e-06 0.000800575 -7.56278e-07)
(1.82166e-06 0.000930206 -1.24504e-06)
(4.61444e-06 0.00109677 -1.34657e-06)
(6.70305e-06 0.00131818 -9.00161e-07)
(4.42726e-06 0.0016459 -3.27328e-06)
(-1.64793e-05 0.00204832 -1.67855e-05)
(-1.01725e-05 0.00232598 -2.3197e-05)
(1.75467e-05 0.00249814 -1.88495e-05)
(-9.83251e-06 0.00262254 -1.97312e-05)
(-0.000128907 0.00314595 -9.50849e-05)
(0.000116218 0.00440184 5.21122e-05)
(0.000159273 0.0128681 -1.92727e-06)
(0.0144214 0.117504 0.0164435)
(-0.0464114 0.624971 -0.0283278)
(-0.0575635 0.390086 -0.0331871)
(-0.000555524 0.0226774 -9.95204e-05)
(-1.88258e-05 0.00814629 9.52842e-06)
(-6.08403e-05 0.00810344 -4.77958e-05)
(-2.353e-05 0.00822428 -5.66079e-05)
(-1.83924e-05 0.00845764 -4.79861e-05)
(8.80901e-06 0.00923858 -2.61964e-05)
(2.62565e-05 0.0100817 -1.58337e-05)
(2.23074e-05 0.0103141 -1.57765e-05)
(1.23268e-05 0.0102333 -1.94711e-05)
(-6.45994e-08 0.0102061 -1.0107e-05)
(-2.88275e-06 0.0101922 1.41789e-05)
(-3.7897e-06 0.0101606 1.76429e-05)
(-1.49812e-05 0.0101542 8.85919e-06)
(-3.98091e-05 0.0101789 -2.13787e-05)
(-5.25791e-05 0.0101266 -4.71297e-05)
(-4.33147e-05 0.00996852 -3.80608e-05)
(-2.92991e-05 0.00970915 -1.96855e-05)
(-3.19929e-05 0.00932175 5.08171e-06)
(-3.38184e-05 0.00893176 -2.44999e-06)
(-3.68169e-05 0.00868713 -2.53111e-05)
(-5.18755e-05 0.00857774 -2.99436e-05)
(-6.36111e-05 0.00860254 -2.93845e-05)
(-6.76148e-05 0.00880852 -2.41679e-05)
(-4.35469e-05 0.00913682 -4.10068e-05)
(-1.35687e-05 0.00940715 -5.54322e-05)
(-2.88224e-05 0.00953797 -5.23174e-05)
(-4.97898e-05 0.0095774 -4.26308e-05)
(-4.85633e-05 0.00936673 -5.34477e-05)
(-1.33713e-05 0.0084373 -9.01749e-05)
(2.25854e-07 0.00729203 -7.51053e-05)
(1.40449e-05 0.00699622 -8.9116e-05)
(8.10156e-06 0.00722788 -6.19129e-05)
(-3.73525e-05 0.00737767 -1.44179e-05)
(-5.12335e-05 0.00718934 2.43694e-05)
(-5.9215e-07 0.000645905 -3.70901e-07)
(-5.93254e-08 0.000652806 -2.51278e-07)
(-3.72732e-07 0.00066269 -5.10328e-08)
(-2.69487e-07 0.00067292 -9.41448e-10)
(-4.26857e-07 0.000683474 1.84015e-07)
(-4.03368e-07 0.000691065 1.59443e-07)
(-4.60773e-07 0.000694593 1.86835e-07)
(-4.6873e-07 0.00069693 1.42271e-07)
(-4.82929e-07 0.000698548 7.11769e-08)
(-4.83915e-07 0.000699414 3.75688e-08)
(-4.60356e-07 0.00069986 3.82515e-08)
(-4.37489e-07 0.000699998 4.55892e-08)
(-3.99562e-07 0.000700002 5.10306e-08)
(-3.82323e-07 0.00069995 4.93064e-08)
(-3.57154e-07 0.000699865 4.66834e-08)
(-3.47628e-07 0.000699759 4.1927e-08)
(-3.36569e-07 0.000699631 3.76521e-08)
(-3.30903e-07 0.000699489 3.35869e-08)
(-3.20795e-07 0.00069933 3.1391e-08)
(-3.15835e-07 0.000699158 2.83375e-08)
(-3.0479e-07 0.000698974 2.64037e-08)
(-2.96365e-07 0.000698781 2.38478e-08)
(-2.80931e-07 0.000698584 2.19042e-08)
(-2.66627e-07 0.000698388 1.91174e-08)
(-2.4278e-07 0.000698198 1.65926e-08)
(-2.21663e-07 0.00069802 1.29919e-08)
(-1.86425e-07 0.000697862 9.24023e-09)
(-1.5222e-07 0.000697728 3.67899e-09)
(-1.01999e-07 0.000697634 -1.94554e-09)
(-5.20953e-08 0.000697582 -1.03191e-08)
(1.71747e-08 0.000697591 -1.8195e-08)
(8.73332e-08 0.000697678 -2.89839e-08)
(1.81287e-07 0.000697849 -3.95673e-08)
(2.79423e-07 0.000698139 -5.46092e-08)
(4.06181e-07 0.000698543 -6.94473e-08)
(5.43366e-07 0.000699113 -8.80464e-08)
(7.1455e-07 0.000699825 -1.07381e-07)
(9.06422e-07 0.000700765 -1.28776e-07)
(1.14742e-06 0.000701872 -1.52288e-07)
(1.41845e-06 0.000703236 -1.80694e-07)
(1.76038e-06 0.000704783 -2.1055e-07)
(2.15333e-06 0.000706588 -2.48915e-07)
(2.63906e-06 0.000708564 -2.9241e-07)
(3.22222e-06 0.000710907 -3.29979e-07)
(3.91915e-06 0.000713765 -3.42297e-07)
(4.70407e-06 0.000717354 -3.42353e-07)
(5.64928e-06 0.000734645 -3.36623e-07)
(6.68729e-06 0.00082098 -7.48725e-08)
(7.32221e-06 0.00102325 -4.40378e-07)
(8.37225e-06 0.00126861 -2.08212e-06)
(1.93233e-05 0.00152585 -1.58486e-06)
(9.12466e-06 0.00189148 -1.21809e-05)
(-1.15587e-06 0.00225883 -3.81642e-05)
(1.78841e-05 0.00250528 -5.98796e-05)
(6.29185e-05 0.00266978 -4.04325e-05)
(6.88204e-05 0.00273561 -9.54572e-06)
(-0.000291729 0.0036285 -9.72981e-05)
(0.000230234 0.00535753 -8.03205e-05)
(-0.000237386 0.0124734 -0.000312525)
(0.0160402 0.139336 0.0173135)
(-0.0139717 0.631601 -0.0226356)
(-0.0111357 0.362192 -0.0135028)
(-9.28161e-06 0.0241995 -5.54408e-05)
(-0.000291511 0.00943668 -0.000141497)
(-0.000452472 0.00853474 -5.32443e-05)
(-0.000381705 0.00814437 -6.15006e-05)
(-0.000111867 0.00842413 -8.60861e-05)
(-0.000153434 0.00927254 -5.86857e-05)
(-0.000224648 0.010166 3.1616e-06)
(-0.000168243 0.0103622 7.1056e-06)
(-8.87446e-05 0.0103073 -2.97443e-05)
(-4.65205e-05 0.0103705 -4.02118e-05)
(-6.00285e-05 0.0105216 -1.52399e-05)
(-0.000106133 0.0107003 -3.33274e-06)
(-0.000119008 0.0108248 -1.02941e-05)
(-0.000112815 0.0106406 -2.67248e-05)
(-3.72401e-05 0.0103078 -4.07124e-05)
(-3.49426e-05 0.010039 -3.47603e-05)
(-0.000105346 0.00970553 -2.42457e-05)
(-3.28094e-05 0.00927875 -1.49874e-05)
(-2.34469e-05 0.00893699 -1.91046e-05)
(-1.94727e-05 0.00871986 -2.59775e-05)
(-2.39675e-05 0.00857828 -2.5136e-05)
(-3.19319e-05 0.00856281 -1.79227e-05)
(-4.10113e-05 0.00878767 -6.38338e-06)
(-4.88426e-05 0.00920511 -1.69837e-05)
(-4.77441e-05 0.00949917 -3.97164e-05)
(-7.10956e-05 0.00956689 -4.33047e-05)
(-0.000102409 0.00957913 -5.09414e-05)
(-9.059e-05 0.00936981 -8.54345e-05)
(-7.12738e-05 0.00844652 -0.000110661)
(-3.37706e-05 0.00730561 -6.67754e-05)
(-2.35694e-05 0.00697191 -5.14901e-05)
(9.21943e-06 0.00717168 -2.64455e-05)
(-2.58625e-05 0.00729072 -6.47646e-06)
(-7.03214e-05 0.00712623 2.00775e-05)
(-7.40556e-07 0.000647255 -4.34966e-07)
(1.50981e-07 0.000652423 -2.74402e-07)
(-5.33769e-07 0.000659248 -1.96401e-07)
(-1.90549e-07 0.000667782 -1.39242e-07)
(-5.21809e-07 0.000677362 2.52579e-08)
(-3.73879e-07 0.000685094 4.20425e-08)
(-5.43963e-07 0.000689409 1.54339e-07)
(-5.23098e-07 0.00069304 1.54084e-07)
(-5.98015e-07 0.00069582 8.89671e-08)
(-6.31689e-07 0.000697922 4.1089e-08)
(-6.56107e-07 0.000699406 3.36819e-08)
(-6.47094e-07 0.000699957 5.17027e-08)
(-6.10935e-07 0.000700046 6.76712e-08)
(-5.9171e-07 0.000699998 7.56509e-08)
(-5.6343e-07 0.000699917 7.65562e-08)
(-5.52373e-07 0.000699805 7.71061e-08)
(-5.36597e-07 0.000699678 7.42098e-08)
(-5.30375e-07 0.000699531 7.4339e-08)
(-5.20371e-07 0.000699373 7.11294e-08)
(-5.12774e-07 0.000699201 7.26235e-08)
(-5.03259e-07 0.000699018 6.87051e-08)
(-4.9049e-07 0.000698828 7.12394e-08)
(-4.76723e-07 0.000698635 6.57704e-08)
(-4.55663e-07 0.000698445 6.89524e-08)
(-4.33224e-07 0.00069826 6.11586e-08)
(-3.99445e-07 0.00069809 6.60259e-08)
(-3.62728e-07 0.000697941 5.47709e-08)
(-3.10447e-07 0.000697821 5.76443e-08)
(-2.53699e-07 0.000697739 4.26859e-08)
(-1.77235e-07 0.000697702 4.46354e-08)
(-9.5489e-08 0.000697725 2.5508e-08)
(1.13196e-08 0.00069783 2.70322e-08)
(1.25218e-07 0.00069802 3.16637e-09)
(2.71105e-07 0.000698331 1.83115e-09)
(4.33412e-07 0.000698757 -3.01437e-08)
(6.36174e-07 0.000699353 -3.51826e-08)
(8.53841e-07 0.000700103 -7.30795e-08)
(1.13596e-06 0.000701088 -7.82532e-08)
(1.44218e-06 0.000702245 -1.23253e-07)
(1.83143e-06 0.000703686 -1.31084e-07)
(2.27083e-06 0.00070532 -1.85009e-07)
(2.81962e-06 0.000707246 -2.03156e-07)
(3.44751e-06 0.000709326 -2.47479e-07)
(4.2283e-06 0.000711813 -2.26322e-07)
(5.13469e-06 0.000715196 -2.1501e-07)
(6.23239e-06 0.000720528 -1.01894e-07)
(7.57318e-06 0.000729468 -1.62146e-08)
(9.15261e-06 0.000789112 3.25039e-07)
(1.10621e-05 0.000982236 7.48805e-07)
(1.158e-05 0.00130954 4.05685e-07)
(2.10379e-05 0.00171517 5.49365e-06)
(4.66137e-06 0.00216871 8.24099e-06)
(4.06998e-06 0.00252166 -1.66423e-05)
(4.82096e-05 0.00274371 -8.00559e-05)
(0.000102676 0.0028763 -7.26858e-05)
(0.000210364 0.00272782 -1.47249e-05)
(-0.000178054 0.00416105 0.00043022)
(0.000221125 0.00693206 0.000132479)
(-0.000375421 0.0128711 -0.000811564)
(0.0178716 0.156927 0.0191382)
(-0.0157761 0.677574 -0.0350624)
(-0.0251501 0.508948 -0.0302618)
(-0.0176899 0.569731 -0.0349473)
(-0.0218612 0.529429 -0.00498472)
(-0.016589 0.551864 -0.0149073)
(-0.0109287 0.557546 -0.00725305)
(0.0125234 0.552522 0.00103145)
(0.0177461 0.551227 0.0100975)
(0.00466236 0.548897 0.00946652)
(0.000743694 0.552433 0.00519445)
(0.00118973 0.553799 0.00274235)
(0.000889696 0.553667 -0.0025434)
(0.00140012 0.54743 -0.00424156)
(0.00275868 0.537416 -0.00250194)
(0.00425183 0.512052 0.00190838)
(0.0026321 0.369055 0.00423694)
(-8.51241e-05 0.0311783 -0.000308409)
(-0.000158773 0.0335207 -0.000215799)
(-0.000530846 0.0719599 -0.000133726)
(-0.000159701 0.033476 2.94644e-05)
(-0.000139453 0.0113564 -7.38591e-06)
(-0.000122933 0.010341 -6.93561e-06)
(-7.17078e-05 0.0091337 1.0699e-05)
(-5.93268e-05 0.0086258 1.95794e-05)
(-4.19205e-05 0.00858192 2.50789e-05)
(-7.7591e-05 0.00884534 1.79584e-05)
(-0.000105694 0.00919064 -4.5859e-06)
(-0.000122294 0.00941797 -2.92741e-05)
(-0.000119576 0.00953225 -8.93687e-05)
(-7.82712e-05 0.00926446 -0.000123796)
(-4.86748e-05 0.00825212 -9.76648e-05)
(-2.91863e-05 0.00718723 -4.81312e-05)
(-2.49589e-05 0.00700379 -3.59432e-05)
(8.59564e-06 0.00723301 -4.06049e-05)
(-1.19955e-05 0.00724336 -2.80915e-05)
(-6.16092e-05 0.00701905 1.34422e-06)
(-8.48427e-07 0.000647231 -1.77665e-07)
(3.1966e-07 0.000652221 -3.68929e-07)
(-4.90588e-07 0.000658254 -4.41985e-07)
(7.27304e-10 0.000666527 -3.7128e-07)
(-4.06305e-07 0.000675676 -2.77481e-07)
(-2.10315e-07 0.000683866 -8.49927e-08)
(-4.63061e-07 0.000689398 4.61178e-08)
(-4.32467e-07 0.000693457 5.36229e-08)
(-5.85991e-07 0.000695427 3.38051e-08)
(-6.35933e-07 0.000697215 -1.51571e-08)
(-7.56845e-07 0.000698868 -3.34525e-08)
(-8.11712e-07 0.000699751 4.62761e-10)
(-8.28141e-07 0.000700015 3.97445e-08)
(-8.36085e-07 0.000700001 6.06628e-08)
(-8.33356e-07 0.000699931 7.08815e-08)
(-8.35514e-07 0.000699818 7.28495e-08)
(-8.31714e-07 0.000699695 7.49579e-08)
(-8.34644e-07 0.000699546 7.11775e-08)
(-8.30303e-07 0.000699393 7.25319e-08)
(-8.28968e-07 0.000699222 6.7225e-08)
(-8.20798e-07 0.000699046 6.93957e-08)
(-8.12974e-07 0.000698859 6.2947e-08)
(-7.97453e-07 0.000698674 6.59556e-08)
(-7.80624e-07 0.00069849 5.78837e-08)
(-7.52975e-07 0.000698316 5.98481e-08)
(-7.19392e-07 0.000698156 4.82044e-08)
(-6.72318e-07 0.000698021 5.06216e-08)
(-6.177e-07 0.000697914 3.59023e-08)
(-5.43132e-07 0.000697849 3.78968e-08)
(-4.5883e-07 0.000697828 1.86573e-08)
(-3.50348e-07 0.000697873 1.88581e-08)
(-2.28485e-07 0.000697997 -7.59406e-09)
(-7.58841e-08 0.000698213 -1.21462e-08)
(9.49674e-08 0.000698554 -4.60983e-08)
(3.04119e-07 0.000699016 -5.7119e-08)
(5.42255e-07 0.000699646 -9.78369e-08)
(8.30158e-07 0.000700448 -1.06408e-07)
(1.16395e-06 0.000701481 -1.52994e-07)
(1.5576e-06 0.000702707 -1.63555e-07)
(2.02269e-06 0.000704223 -2.13886e-07)
(2.56706e-06 0.000705953 -2.22759e-07)
(3.20365e-06 0.000707997 -2.61031e-07)
(3.95729e-06 0.000710235 -2.30997e-07)
(4.82691e-06 0.000712897 -2.04113e-07)
(5.84902e-06 0.000716606 -8.94648e-08)
(7.03538e-06 0.00072234 4.79085e-08)
(8.48928e-06 0.000732746 3.79515e-07)
(1.00366e-05 0.000797296 7.45256e-07)
(1.03083e-05 0.0010075 8.1861e-07)
(1.42556e-05 0.00140463 3.1563e-06)
(1.4082e-05 0.00191843 2.97637e-05)
(3.36969e-05 0.00235988 4.82341e-05)
(3.2616e-05 0.00271075 3.82702e-05)
(3.07404e-05 0.00293952 -1.20811e-05)
(4.00836e-05 0.0030953 -1.22436e-05)
(2.04191e-05 0.00286795 -3.05427e-05)
(0.000454986 0.00429545 0.000858321)
(0.000552039 0.00742035 0.0007579)
(-0.000260128 0.015342 -0.000954766)
(0.00583084 0.173377 0.0158597)
(-0.000937286 0.674118 -0.0218503)
(-0.019057 0.500721 -0.0231678)
(-0.0148573 0.574642 -0.0396273)
(-0.0110968 0.546429 -0.00314362)
(-0.0105016 0.553002 -0.00566411)
(0.00927079 0.551788 -0.00433356)
(0.0153494 0.558398 0.000254645)
(-0.00754533 0.562383 0.00777199)
(-0.0155535 0.556793 0.00311274)
(-0.00306067 0.552555 -0.000346186)
(0.00444571 0.54979 0.00253853)
(0.00197768 0.546289 0.000915629)
(0.00127527 0.543844 -1.9491e-05)
(0.00211041 0.543697 -0.00112614)
(0.00136989 0.542267 -0.0018869)
(0.00167082 0.541525 -0.000854999)
(0.00341881 0.540144 -0.00290697)
(0.00352762 0.53768 -0.00520946)
(0.00375412 0.537377 -0.00663202)
(0.00768538 0.536633 -0.00872219)
(0.00848672 0.532049 -0.00860348)
(0.00632472 0.505292 -0.00736468)
(0.00245522 0.388163 -0.0022228)
(-0.000560259 0.11177 0.00076404)
(-2.88343e-05 0.0309133 0.000269441)
(-2.72122e-05 0.00857479 4.41773e-05)
(-3.87416e-05 0.00893466 1.4649e-05)
(-2.45995e-05 0.00930077 -2.29115e-05)
(-4.49407e-06 0.00934049 -6.16179e-05)
(-1.03988e-06 0.00868674 -5.09217e-05)
(-1.11453e-05 0.00761103 -1.95158e-05)
(-2.83557e-05 0.00708199 -2.63863e-05)
(-1.0271e-05 0.00719525 -1.98252e-05)
(-3.8824e-07 0.00733588 -3.08839e-05)
(-1.56851e-05 0.00722447 -2.75958e-05)
(-5.7649e-05 0.00691319 -8.302e-06)
(-1.03207e-06 0.000642962 -4.52567e-07)
(5.60044e-07 0.000647174 -3.52135e-07)
(-2.47565e-07 0.000653379 -5.73674e-07)
(2.21533e-07 0.000660006 -3.7703e-07)
(-2.13659e-08 0.000664801 -4.0128e-07)
(2.59686e-10 0.000672793 -8.84871e-08)
(-2.22686e-07 0.000683825 -2.4804e-08)
(-2.69009e-07 0.000692545 6.0298e-08)
(-3.96921e-07 0.000696337 1.49906e-08)
(-5.16383e-07 0.000698162 -7.77488e-08)
(-6.747e-07 0.000698948 -1.27667e-07)
(-7.77647e-07 0.000699546 -8.5238e-08)
(-8.65914e-07 0.000699834 -2.37996e-08)
(-9.27307e-07 0.000699857 1.63269e-08)
(-9.73971e-07 0.000699808 3.09625e-08)
(-1.0104e-06 0.000699698 3.75378e-08)
(-1.03722e-06 0.000699578 3.70813e-08)
(-1.05829e-06 0.000699432 3.87547e-08)
(-1.06987e-06 0.000699279 3.2921e-08)
(-1.07502e-06 0.000699108 3.16759e-08)
(-1.07511e-06 0.000698939 2.27884e-08)
(-1.06748e-06 0.000698765 2.19077e-08)
(-1.0543e-06 0.000698586 1.05671e-08)
(-1.03231e-06 0.000698411 9.68257e-09)
(-1.00268e-06 0.000698244 -3.8902e-09)
(-9.60291e-07 0.000698096 -4.10471e-09)
(-9.07857e-07 0.000697971 -2.16235e-08)
(-8.37889e-07 0.000697881 -2.31306e-08)
(-7.53757e-07 0.000697832 -4.51789e-08)
(-6.47088e-07 0.000697837 -4.79787e-08)
(-5.20642e-07 0.000697904 -7.52813e-08)
(-3.65299e-07 0.000698054 -8.05155e-08)
(-1.84259e-07 0.000698298 -1.15001e-07)
(3.44831e-08 0.000698669 -1.22861e-07)
(2.8336e-07 0.000699169 -1.64253e-07)
(5.87073e-07 0.000699848 -1.74892e-07)
(9.37785e-07 0.000700705 -2.19578e-07)
(1.35096e-06 0.000701805 -2.33848e-07)
(1.82366e-06 0.000703116 -2.8115e-07)
(2.3709e-06 0.000704718 -2.92714e-07)
(2.9821e-06 0.000706557 -3.30002e-07)
(3.67863e-06 0.000708732 -3.06317e-07)
(4.45333e-06 0.000711141 -2.73963e-07)
(5.33916e-06 0.000714052 -1.76716e-07)
(6.35309e-06 0.000718367 -8.28147e-08)
(7.56888e-06 0.000723968 8.46354e-08)
(8.78051e-06 0.000744538 3.23028e-07)
(1.00267e-05 0.000832156 5.47305e-07)
(9.47606e-06 0.00108389 4.52511e-07)
(8.18982e-06 0.00155605 2.44017e-06)
(1.36886e-05 0.00211673 3.42826e-05)
(6.30962e-05 0.00254155 7.17854e-05)
(8.99104e-05 0.00283732 7.58064e-05)
(6.63334e-05 0.00304442 4.56722e-05)
(1.04914e-05 0.00311681 5.32536e-05)
(-7.55642e-05 0.00312061 6.59144e-05)
(0.000335286 0.00530226 0.00036405)
(0.000520306 0.00799802 0.000239886)
(-0.000113766 0.0104464 -0.000214623)
(0.00718381 0.197649 0.0168379)
(0.0198125 0.667263 -0.034606)
(-0.00376034 0.501341 -0.0172104)
(-0.0284557 0.584295 -0.0324699)
(-0.0152153 0.557818 -0.002624)
(-0.020249 0.563429 -0.00242814)
(-0.00598228 0.573037 0.00777781)
(0.00413942 0.561732 0.0208763)
(0.00229658 0.543847 0.0029896)
(0.00399089 0.542056 -0.000389423)
(0.00193744 0.543412 0.00110169)
(0.00262812 0.53877 0.000868866)
(0.002792 0.540094 -0.00146309)
(0.00135421 0.540916 -0.00229261)
(0.00138426 0.541074 -0.00106211)
(0.00235385 0.540769 -0.000419391)
(0.00210444 0.53936 -0.000409365)
(0.00241164 0.538451 -0.00186621)
(0.000556525 0.536694 -0.00424722)
(-0.00298904 0.533041 -0.00835299)
(-0.0037511 0.535316 -0.0141345)
(-0.00525181 0.540317 -0.0171763)
(-0.00595903 0.553424 -0.0143123)
(-0.00899841 0.551399 0.00409202)
(-0.0184099 0.524454 0.0147128)
(-0.0265536 0.477614 0.0177172)
(-0.0230111 0.309951 0.00525749)
(-5.35202e-05 0.0272311 -6.14811e-05)
(5.86997e-05 0.00523246 -8.71792e-05)
(5.17636e-05 0.00685158 2.17452e-05)
(2.8712e-05 0.00708727 -1.02718e-05)
(-2.21508e-05 0.00674567 -0.000147822)
(-2.04168e-05 0.0069668 -3.70312e-05)
(-3.03776e-06 0.00714456 -2.21299e-05)
(-5.27215e-06 0.00713601 -1.20773e-05)
(-2.54095e-05 0.00689897 -4.60148e-06)
(-6.39303e-05 0.00655633 -1.83628e-05)
(-1.33222e-06 0.00063536 -6.07067e-07)
(6.28059e-07 0.000638497 -2.81993e-07)
(-3.42939e-07 0.000645514 -5.11538e-07)
(5.9513e-09 0.000651497 -2.60912e-07)
(5.2369e-08 0.000650978 -4.16129e-07)
(-1.15977e-07 0.000655513 -1.90484e-07)
(-1.71134e-07 0.000665691 -9.24139e-08)
(-2.35524e-07 0.00067875 1.17568e-07)
(-3.327e-07 0.000690121 5.58683e-08)
(-5.10052e-07 0.000696771 -1.41189e-08)
(-5.73271e-07 0.000698904 -1.46995e-07)
(-7.00694e-07 0.000699633 -1.52313e-07)
(-7.99437e-07 0.000699875 -9.7602e-08)
(-8.93588e-07 0.000699887 -4.76389e-08)
(-9.74505e-07 0.000699829 -2.56557e-08)
(-1.0284e-06 0.000699726 -1.86574e-08)
(-1.0612e-06 0.00069962 -1.42381e-08)
(-1.09085e-06 0.000699492 -1.08146e-08)
(-1.10609e-06 0.000699361 -1.03442e-08)
(-1.11115e-06 0.000699208 -1.85617e-08)
(-1.10954e-06 0.000699053 -2.2666e-08)
(-1.09875e-06 0.000698886 -3.39506e-08)
(-1.07974e-06 0.000698723 -3.68013e-08)
(-1.04978e-06 0.000698563 -4.88459e-08)
(-1.01086e-06 0.000698419 -5.12417e-08)
(-9.57322e-07 0.000698292 -6.55695e-08)
(-8.9126e-07 0.000698196 -7.04935e-08)
(-8.06439e-07 0.000698131 -9.17399e-08)
(-7.07963e-07 0.000698114 -9.68771e-08)
(-5.85099e-07 0.000698152 -1.18947e-07)
(-4.39123e-07 0.000698261 -1.24966e-07)
(-2.59707e-07 0.000698454 -1.51006e-07)
(-4.88786e-08 0.000698747 -1.58767e-07)
(2.07739e-07 0.000699169 -1.91821e-07)
(5.01909e-07 0.000699735 -2.05756e-07)
(8.56465e-07 0.000700485 -2.4625e-07)
(1.26509e-06 0.000701426 -2.6282e-07)
(1.74931e-06 0.00070261 -3.06441e-07)
(2.29235e-06 0.000704007 -3.23679e-07)
(2.91333e-06 0.000705685 -3.67138e-07)
(3.57895e-06 0.000707596 -3.80446e-07)
(4.31565e-06 0.000709821 -3.91177e-07)
(5.06828e-06 0.000712346 -3.61666e-07)
(5.9408e-06 0.00071556 -3.24421e-07)
(6.90805e-06 0.00072022 -3.13084e-07)
(8.04721e-06 0.000727258 -3.72626e-07)
(8.88003e-06 0.000756181 -5.6004e-07)
(9.17107e-06 0.000862296 -9.05676e-07)
(9.57787e-06 0.0011735 -2.98348e-06)
(8.58808e-06 0.00174072 -6.03616e-06)
(8.20441e-06 0.0023132 1.20102e-05)
(3.75223e-05 0.00271288 4.534e-05)
(0.00010882 0.00298456 5.38242e-05)
(0.000119517 0.0031185 3.66637e-05)
(9.95245e-05 0.0031848 5.76638e-05)
(8.17891e-05 0.00309902 0.000115029)
(0.000192209 0.00508051 -0.000110959)
(-0.000139814 0.00754977 -0.00033552)
(-0.000236254 0.010688 0.000137718)
(0.0129447 0.221735 0.0142451)
(0.008435 0.719076 -0.0724417)
(-0.0184942 0.554707 0.00688755)
(-0.010598 0.563137 0.0137977)
(0.000545701 0.548959 0.00740886)
(0.00202392 0.54183 0.00254806)
(0.00387978 0.538523 0.00384177)
(0.00594037 0.540196 0.00252522)
(0.00157207 0.537096 0.000127004)
(0.000647095 0.536997 -0.00151617)
(0.00196438 0.534708 -0.00315349)
(0.000326633 0.536424 -0.00397818)
(0.000345754 0.538887 -0.00339196)
(0.00102323 0.538985 -0.00389018)
(0.00216562 0.540051 -0.00310931)
(0.00410046 0.54091 -0.000641788)
(0.0018599 0.540037 0.000769399)
(0.00412118 0.539421 0.000460829)
(0.0056632 0.539586 -0.0018074)
(0.00139706 0.539303 -0.00397113)
(-0.00123704 0.53975 -0.00890455)
(-0.00605441 0.540406 -0.0165225)
(-0.0113125 0.545465 -0.023197)
(-0.00455794 0.561364 -0.0103883)
(-0.0047011 0.550117 0.00456575)
(-0.0153041 0.531077 0.00777851)
(-0.0196526 0.513763 0.0122617)
(-0.0124544 0.470444 0.00794886)
(-0.00865977 0.31085 -0.00287859)
(8.94441e-06 0.0279814 -5.29753e-05)
(-8.46293e-05 0.00509204 3.42399e-05)
(-0.000119199 0.00548443 2.37305e-05)
(-0.000154014 0.00556285 -0.000134382)
(-0.000247231 0.00565001 -0.000434865)
(-0.000293325 0.00571384 -0.000438685)
(-0.000362258 0.00554188 -0.000272019)
(3.64622e-05 0.00488841 -0.000202688)
(-1.84248e-06 0.000623841 -8.75027e-07)
(2.29473e-07 0.000627429 -1.3155e-08)
(-9.36465e-07 0.000636031 -1.6493e-07)
(-8.53767e-07 0.000644808 -3.32841e-08)
(-4.41023e-07 0.000644758 -3.75685e-07)
(-5.22242e-07 0.000646603 -2.4039e-07)
(-3.88779e-07 0.000649583 -1.8197e-07)
(-4.40016e-07 0.000658774 1.22361e-07)
(-4.43128e-07 0.000674804 1.25883e-07)
(-5.72422e-07 0.000689851 8.56591e-08)
(-7.0609e-07 0.000697022 -1.53547e-07)
(-7.96071e-07 0.000699176 -1.71544e-07)
(-8.56361e-07 0.000699774 -1.15919e-07)
(-9.45668e-07 0.000699851 -5.15041e-08)
(-1.0098e-06 0.000699837 -9.58419e-09)
(-1.06088e-06 0.00069977 2.74652e-09)
(-1.08933e-06 0.000699682 -1.77523e-09)
(-1.11148e-06 0.000699573 -8.97591e-09)
(-1.12254e-06 0.000699464 -1.62763e-08)
(-1.13407e-06 0.000699329 -2.02961e-08)
(-1.13468e-06 0.000699187 -2.81272e-08)
(-1.13173e-06 0.000699038 -3.18365e-08)
(-1.11598e-06 0.000698889 -3.9734e-08)
(-1.09363e-06 0.000698747 -4.17809e-08)
(-1.05613e-06 0.000698617 -5.03736e-08)
(-1.00976e-06 0.000698512 -5.28336e-08)
(-9.45286e-07 0.000698437 -6.396e-08)
(-8.69083e-07 0.000698392 -6.62533e-08)
(-7.64243e-07 0.00069839 -7.83364e-08)
(-6.38626e-07 0.000698454 -8.19491e-08)
(-4.74992e-07 0.000698589 -9.86607e-08)
(-2.82834e-07 0.000698819 -1.07356e-07)
(-4.30601e-08 0.000699158 -1.32031e-07)
(2.34665e-07 0.000699642 -1.49419e-07)
(5.71921e-07 0.000700277 -1.842e-07)
(9.62861e-07 0.000701094 -2.09309e-07)
(1.43226e-06 0.000702104 -2.51072e-07)
(1.97005e-06 0.000703348 -2.79894e-07)
(2.59104e-06 0.000704817 -3.25398e-07)
(3.27976e-06 0.000706553 -3.61749e-07)
(4.04844e-06 0.000708549 -4.14822e-07)
(4.8811e-06 0.000710851 -4.57689e-07)
(5.79284e-06 0.00071348 -5.07341e-07)
(6.74924e-06 0.000716835 -5.85669e-07)
(7.77107e-06 0.000721592 -6.70603e-07)
(8.86898e-06 0.000728839 -8.24214e-07)
(9.76243e-06 0.000764344 -1.17496e-06)
(1.03113e-05 0.000894029 -1.80685e-06)
(1.1297e-05 0.00128953 -2.31762e-06)
(9.82909e-06 0.00197958 -2.63096e-06)
(1.35656e-05 0.00256738 1.28522e-05)
(1.33108e-05 0.00292678 3.65339e-05)
(5.46503e-05 0.00304105 1.60424e-06)
(1.26409e-05 0.00298711 -4.50199e-05)
(-5.38404e-06 0.00305001 -2.15479e-05)
(-3.44617e-05 0.00333986 2.92843e-05)
(5.78195e-05 0.00517049 0.000118646)
(-0.00030655 0.00664033 0.000149648)
(-0.000163905 0.0106587 4.27951e-05)
(0.011728 0.247371 0.0175982)
(-0.017036 0.711711 -0.0489367)
(-0.000857244 0.543405 0.014822)
(0.00603376 0.550075 0.00776017)
(0.00725581 0.542538 0.00934356)
(0.00401523 0.539197 0.00688191)
(0.00301559 0.539857 0.00763966)
(0.0062777 0.54264 0.00269241)
(0.00711975 0.541374 -0.00186798)
(0.0100066 0.539795 -0.00476141)
(0.0112426 0.537579 -0.00591447)
(0.00896201 0.536507 -0.0095772)
(0.00759069 0.536154 -0.0114118)
(0.00344401 0.534532 -0.00850148)
(0.00119764 0.534596 -0.00906405)
(0.00210583 0.536151 -0.00869018)
(0.00516922 0.537368 -0.00455467)
(0.00686089 0.539016 0.00146689)
(0.00560426 0.542269 0.000489581)
(0.00558469 0.543796 0.000182873)
(-0.00148968 0.551061 -0.00392761)
(-0.00541769 0.548342 -0.00795336)
(-0.0108567 0.544302 -0.0160183)
(-0.0142328 0.55668 -0.0188646)
(-0.00390089 0.562469 -0.00877716)
(-0.00535768 0.557027 -0.00278808)
(-0.0120572 0.5446 0.00168922)
(-0.00772125 0.536161 0.0139759)
(-0.00520424 0.52852 0.0142608)
(-0.00797208 0.521899 0.007207)
(-0.0118375 0.516704 0.00564646)
(-0.0122046 0.513233 0.00664901)
(-0.0153664 0.511175 0.00779078)
(-0.0199707 0.503087 0.00952487)
(-0.0217477 0.491967 0.00471139)
(-0.0161968 0.474027 -0.0034871)
(-0.00584273 0.448706 -0.010756)
(-4.2606e-06 0.00032211 -3.29779e-06)
(-2.57067e-07 0.000636456 -6.11977e-08)
(-1.67054e-06 0.000620204 -4.57626e-07)
(-1.31407e-06 0.000632151 -5.21695e-09)
(-1.14355e-06 0.000638725 -4.56575e-07)
(-9.67685e-07 0.000642418 -4.23526e-07)