/*--------------------------------*- C++ -*----------------------------------*\
| =========                 |                                                 |
| \\      /  F ield         | OpenFOAM: The Open Source CFD Toolbox           |
|  \\    /   O peration     | Version:  2.3.0                                 |
|   \\  /    A nd           | Web:      www.OpenFOAM.org                      |
|    \\/     M anipulation  |                                                 |
\*---------------------------------------------------------------------------*/
FoamFile
{
    version     2.0;
    format      ascii;
    class       volScalarField;
    location    "22";
    object      alpha.water;
}
// * * * * * * * * * * * * * * * * * * * * * * * * * * * * * * * * * * * * * //

dimensions      [0 0 0 0 0 0 0];

internalField   nonuniform List<scalar> 
6144
(
6.75146e-06
7.26402e-06
7.63654e-06
7.93132e-06
8.23703e-06
8.59455e-06
9.03879e-06
9.54635e-06
9.85792e-06
9.96033e-06
9.97991e-06
9.98609e-06
9.98779e-06
9.99051e-06
9.9892e-06
9.98944e-06
9.98892e-06
9.98919e-06
9.98907e-06
9.98915e-06
9.98911e-06
9.98917e-06
9.98907e-06
9.98908e-06
9.98897e-06
9.98893e-06
9.98879e-06
9.98873e-06
9.98855e-06
9.98845e-06
9.98815e-06
9.98795e-06
9.98757e-06
9.98738e-06
9.98704e-06
9.98691e-06
9.98681e-06
9.9868e-06
9.9868e-06
9.9868e-06
9.98677e-06
9.98677e-06
9.98677e-06
9.98678e-06
1.00363e-05
1.13427e-05
1.53278e-05
2.26088e-05
3.38128e-05
6.74132e-05
9.58607e-05
0.00011656
0.000130883
0.000139794
0.000139549
0.000141072
0.000139034
0.000138134
0.00193962
0.0838552
0.978181
0.999921
0.999999
0.999999
0.999999
0.999999
0.999999
0.999999
0.999999
0.999999
0.999999
0.999999
0.999999
0.999999
0.999999
0.999999
0.999999
0.999999
0.999999
0.999999
0.999999
0.999999
0.999999
0.999999
0.999999
1
1
1
1
1
1
1
1
1
1
1
5.71603e-06
6.56498e-06
7.1305e-06
7.58923e-06
8.23822e-06
8.70345e-06
9.2771e-06
9.73077e-06
9.89848e-06
9.96718e-06
9.98181e-06
9.98544e-06
9.99241e-06
9.99667e-06
9.99584e-06
9.99725e-06
9.99571e-06
9.99682e-06
9.99561e-06
9.99611e-06
9.99561e-06
9.99579e-06
9.99564e-06
9.9957e-06
9.9957e-06
9.99572e-06
9.99574e-06
9.99577e-06
9.9958e-06
9.9958e-06
9.99565e-06
9.99556e-06
9.99539e-06
9.99532e-06
9.99506e-06
9.99496e-06
9.99477e-06
9.99458e-06
9.9943e-06
9.99373e-06
9.99292e-06
9.99153e-06
9.98967e-06
9.9925e-06
1.01617e-05
1.14136e-05
1.62032e-05
2.76023e-05
4.5383e-05
6.89328e-05
9.35224e-05
0.000130784
0.0001424
0.000144132
0.000142712
0.000143734
0.000140284
0.000144899
0.00102255
0.0674041
0.971985
0.999937
0.999999
0.999999
0.999999
0.999999
0.999999
0.999999
0.999999
0.999999
0.999999
0.999999
0.999999
0.999999
0.999999
0.999999
0.999999
0.999999
0.999999
0.999999
0.999999
0.999999
0.999999
0.999999
0.999999
1
1
1
1
0.999999
0.999999
0.999999
0.999999
0.999999
0.999999
1
5.01622e-06
6.00289e-06
6.65656e-06
7.08261e-06
7.69544e-06
8.35372e-06
9.10801e-06
9.58352e-06
9.73739e-06
9.83866e-06
9.90157e-06
9.95205e-06
9.98224e-06
9.99418e-06
9.99625e-06
9.99762e-06
9.99633e-06
9.99724e-06
9.99631e-06
9.99685e-06
9.99634e-06
9.99656e-06
9.99633e-06
9.99635e-06
9.99628e-06
9.99626e-06
9.99621e-06
9.99619e-06
9.99615e-06
9.99614e-06
9.99604e-06
9.99601e-06
9.99582e-06
9.99566e-06
9.99523e-06
9.99485e-06
9.99419e-06
9.99353e-06
9.99273e-06
9.99201e-06
9.99122e-06
9.9901e-06
9.9894e-06
1.00141e-05
1.03093e-05
1.16671e-05
1.84211e-05
3.82847e-05
6.19757e-05
7.9238e-05
0.000117016
0.000143321
0.000143879
0.00014207
0.000138733
0.000139913
0.000133306
0.000141653
0.000510474
0.0882123
0.980909
0.999985
0.999999
0.999999
0.999999
0.999999
0.999999
0.999999
0.999999
0.999999
0.999999
0.999999
0.999999
0.999999
0.999999
0.999999
0.999999
0.999999
0.999999
0.999999
0.999999
0.999999
0.999999
0.999999
0.999999
1
1
1
0.999999
0.999999
0.999999
0.999999
0.999999
0.999999
0.999999
1
4.43584e-06
5.39261e-06
6.36439e-06
6.74962e-06
7.22296e-06
7.93622e-06
8.90367e-06
9.57193e-06
9.73837e-06
9.80118e-06
9.85633e-06
9.93392e-06
9.97586e-06
9.99086e-06
9.99319e-06
9.99411e-06
9.99327e-06
9.99364e-06
9.9931e-06
9.99319e-06
9.99273e-06
9.99272e-06
9.99227e-06
9.99207e-06
9.99186e-06
9.99164e-06
9.99149e-06
9.99129e-06
9.99119e-06
9.99104e-06
9.99099e-06
9.99089e-06
9.99083e-06
9.99066e-06
9.99049e-06
9.99017e-06
9.98994e-06
9.98968e-06
9.98947e-06
9.9894e-06
9.9894e-06
9.9894e-06
9.9894e-06
1.00423e-05
1.03755e-05
1.20176e-05
2.00699e-05
3.9323e-05
6.15308e-05
7.97036e-05
0.000134786
0.000145126
0.000140087
0.000137605
0.000136286
0.000136421
0.000131523
0.000136846
0.0001187
0.148372
0.997464
0.999956
0.999961
0.999975
0.999981
0.999992
0.999997
0.999999
0.999999
0.999999
0.999999
0.999999
0.999999
0.999999
0.999999
0.999999
0.999999
0.999999
1
1
1
1
0.999999
0.999999
1
1
0.999999
0.999999
0.999999
0.999999
0.999999
0.999999
0.999999
0.999999
0.999999
1
4.07063e-06
4.77229e-06
6.06659e-06
6.5048e-06
6.87675e-06
7.41355e-06
8.29552e-06
9.11806e-06
9.74362e-06
9.83391e-06
9.84209e-06
9.9262e-06
9.97681e-06
9.9934e-06
9.99637e-06
9.99719e-06
9.99684e-06
9.99774e-06
9.99721e-06
9.9979e-06
9.99743e-06
9.99764e-06
9.99735e-06
9.99729e-06
9.997e-06
9.99683e-06
9.99656e-06
9.99638e-06
9.99608e-06
9.99589e-06
9.99555e-06
9.99535e-06
9.99495e-06
9.99467e-06
9.99413e-06
9.9938e-06
9.99325e-06
9.9928e-06
9.99198e-06
9.9912e-06
9.99049e-06
9.99059e-06
9.99783e-06
1.00574e-05
1.03653e-05
1.19655e-05
1.82356e-05
3.25678e-05
5.39112e-05
9.24312e-05
0.000144655
0.000142805
0.000138396
0.000136553
0.000134612
0.000133967
0.000133715
0.000131843
0.0001187
0.228752
0.995222
0.999342
0.99938
0.999478
0.999493
0.999519
0.99958
0.999685
0.999768
0.999845
0.999894
0.99992
0.999944
0.999966
0.999982
0.999992
0.999997
0.999999
1
1
1
1
1
0.999999
1
1
1
0.999999
0.999998
0.999998
0.999999
0.999999
0.999999
0.999999
0.999999
1
3.92339e-06
4.29176e-06
5.61146e-06
6.17407e-06
6.63441e-06
7.01501e-06
7.67637e-06
8.57354e-06
9.50346e-06
9.82403e-06
9.82462e-06
9.91263e-06
9.97145e-06
9.98766e-06
9.99028e-06
9.99068e-06
9.99032e-06
9.9906e-06
9.99027e-06
9.99073e-06
9.99055e-06
9.9908e-06
9.99073e-06
9.99074e-06
9.99068e-06
9.99059e-06
9.99053e-06
9.99041e-06
9.99031e-06
9.99015e-06
9.99e-06
9.98981e-06
9.98956e-06
9.98926e-06
9.98886e-06
9.98853e-06
9.98829e-06
9.98818e-06
9.98813e-06
9.98813e-06
9.98813e-06
9.98813e-06
9.99831e-06
1.00723e-05
1.03517e-05
1.159e-05
1.56523e-05
2.49138e-05
4.20826e-05
0.000105887
0.000147717
0.000142016
0.000138381
0.000136479
0.000134144
0.000132198
0.000130328
0.000130301
0.0001187
0.324369
0.988768
0.993451
0.993093
0.993013
0.99289
0.992966
0.993206
0.993764
0.994345
0.995049
0.995672
0.99621
0.996697
0.997215
0.997758
0.998226
0.998628
0.998952
0.999191
0.999329
0.999384
0.999389
0.999385
0.999377
0.999386
0.999407
0.999423
0.999461
0.999516
0.999584
0.999687
0.999802
0.999895
0.999957
0.999988
0.999996
3.90285e-06
3.96228e-06
4.97362e-06
5.56979e-06
6.29291e-06
6.72862e-06
7.40017e-06
8.2582e-06
8.88956e-06
9.59977e-06
9.75402e-06
9.88947e-06
9.96666e-06
9.98912e-06
9.99475e-06
9.9954e-06
9.99569e-06
9.99573e-06
9.99538e-06
9.99565e-06
9.99525e-06
9.99524e-06
9.99472e-06
9.99444e-06
9.99408e-06
9.99386e-06
9.99363e-06
9.99346e-06
9.99325e-06
9.99305e-06
9.99277e-06
9.99249e-06
9.992e-06
9.99145e-06
9.9907e-06
9.99009e-06
9.98964e-06
9.98945e-06
9.98937e-06
9.98961e-06
9.99012e-06
9.99147e-06
1.00035e-05
1.00869e-05
1.03865e-05
1.14928e-05
1.48559e-05
2.23361e-05
3.59082e-05
0.000107802
0.000150062
0.000146383
0.000144268
0.000141259
0.000138639
0.000135762
0.000130826
0.000132596
0.0001187
0.430441
0.9781
0.982295
0.981523
0.981364
0.98137
0.981407
0.981596
0.98175
0.981954
0.982152
0.982431
0.98269
0.982975
0.983364
0.983937
0.984611
0.985374
0.986181
0.98696
0.987633
0.988165
0.988581
0.98887
0.988996
0.989018
0.988986
0.988938
0.989145
0.989512
0.99016
0.991124
0.992424
0.993838
0.995552
0.997553
0.99878
3.94779e-06
3.85867e-06
4.44494e-06
4.84669e-06
5.78934e-06
6.37912e-06
7.23715e-06
8.15176e-06
8.72038e-06
9.20689e-06
9.56166e-06
9.83806e-06
9.95738e-06
9.9916e-06
9.99444e-06
9.99671e-06
9.99528e-06
9.99573e-06
9.99514e-06
9.99552e-06
9.9954e-06
9.99585e-06
9.99599e-06
9.99623e-06
9.99633e-06
9.9964e-06
9.99645e-06
9.99648e-06
9.99651e-06
9.99648e-06
9.99643e-06
9.99638e-06
9.99621e-06
9.99603e-06
9.99595e-06
9.99602e-06
9.99613e-06
9.99641e-06
9.99676e-06
9.99728e-06
9.99804e-06
9.99942e-06
1.00059e-05
1.00859e-05
1.04304e-05
1.15982e-05
1.48782e-05
2.17083e-05
3.16271e-05
7.91078e-05
0.000148891
0.000152751
0.000150978
0.000150714
0.000147945
0.000146928
0.000134291
0.000130262
0.0001187
0.34248
0.973815
0.981347
0.981143
0.981141
0.981141
0.981186
0.981223
0.980922
0.980613
0.980036
0.979367
0.97869
0.978069
0.977374
0.976603
0.975739
0.974812
0.973915
0.973084
0.972339
0.97171
0.971158
0.970686
0.970291
0.969967
0.969726
0.969669
0.96973
0.970325
0.971185
0.971847
0.972227
0.972725
0.974001
0.976876
0.98106
3.9619e-06
3.9446e-06
4.21696e-06
4.33325e-06
5.35291e-06
6.11165e-06
7.11167e-06
8.15518e-06
8.75937e-06
9.12885e-06
9.46125e-06
9.77033e-06
9.92882e-06
9.98612e-06
9.98835e-06
9.99133e-06
9.98924e-06
9.98982e-06
9.98924e-06
9.98924e-06
9.98941e-06
9.98997e-06
9.99032e-06
9.99073e-06
9.99096e-06
9.99118e-06
9.99135e-06
9.99149e-06
9.9916e-06
9.99165e-06
9.99169e-06
9.99178e-06
9.99183e-06
9.99195e-06
9.99218e-06
9.99243e-06
9.99251e-06
9.99255e-06
9.99268e-06
9.99313e-06
9.99369e-06
9.99483e-06
1.00032e-05
1.00941e-05
1.05098e-05
1.19003e-05
1.57183e-05
2.50296e-05
3.56894e-05
6.15925e-05
0.000136618
0.000157836
0.000155217
0.000166936
0.000155348
0.000159246
0.000141145
0.000142387
0.0001187
0.190741
0.978165
0.995277
0.996821
0.998187
0.998656
0.999012
0.998953
0.998969
0.998837
0.998834
0.998738
0.998659
0.998511
0.998323
0.99809
0.997831
0.997594
0.997323
0.99711
0.996994
0.996884
0.99682
0.996789
0.996868
0.997106
0.997489
0.997933
0.998488
0.999002
0.999407
0.999507
0.999429
0.999398
0.999353
0.999333
0.999638
3.94735e-06
4.06634e-06
4.17282e-06
4.2074e-06
5.04836e-06
5.85711e-06
7.0131e-06
8.17418e-06
8.90666e-06
9.23713e-06
9.53511e-06
9.79246e-06
9.92723e-06
9.98761e-06
9.99319e-06
9.99735e-06
9.99584e-06
9.99658e-06
9.99575e-06
9.99596e-06
9.99556e-06
9.99574e-06
9.99578e-06
9.99588e-06
9.99586e-06
9.99588e-06
9.99585e-06
9.99582e-06
9.99575e-06
9.99562e-06
9.99542e-06
9.99521e-06
9.99496e-06
9.99466e-06
9.99445e-06
9.99418e-06
9.99374e-06
9.99335e-06
9.9932e-06
9.99334e-06
9.9936e-06
9.99391e-06
1.00064e-05
1.01293e-05
1.06898e-05
1.21356e-05
1.63615e-05
2.43083e-05
3.70363e-05
4.88404e-05
0.000105275
0.000150608
0.000155306
0.000163422
0.000171861
0.000169691
0.000141912
0.000169228
0.0001187
0.0856434
0.983558
0.99986
0.999955
0.999992
0.999994
0.999999
0.999999
0.999999
0.999999
0.999999
0.999999
0.999999
0.999999
0.999994
0.999992
0.999989
0.999985
0.999981
0.999974
0.999964
0.99995
0.999936
0.999925
0.99992
0.999928
0.999939
0.999955
0.999977
0.999992
0.999999
1
1
1
1
1
1
3.94539e-06
4.26876e-06
4.34997e-06
4.5115e-06
5.07044e-06
5.8203e-06
6.84168e-06
8.02255e-06
8.96211e-06
9.48646e-06
9.76936e-06
9.92926e-06
9.95607e-06
9.98602e-06
9.98975e-06
9.99227e-06
9.99061e-06
9.99214e-06
9.99165e-06
9.99274e-06
9.99271e-06
9.99333e-06
9.99359e-06
9.99394e-06
9.99415e-06
9.99435e-06
9.99453e-06
9.99467e-06
9.99482e-06
9.99491e-06
9.99498e-06
9.99503e-06
9.99509e-06
9.99527e-06
9.99538e-06
9.99547e-06
9.99529e-06
9.99505e-06
9.99476e-06
9.99453e-06
9.99439e-06
9.99499e-06
1.00173e-05
1.0195e-05
1.07468e-05
1.19848e-05
1.57111e-05
2.21384e-05
3.67968e-05
5.627e-05
8.09404e-05
0.000125833
0.000146117
0.000159431
0.000159302
0.000154413
0.000143168
0.000181163
0.000134361
0.0599691
0.979044
0.999998
0.999999
0.999999
0.999999
0.999999
0.999999
0.999999
0.999999
0.999999
0.999999
0.999999
0.999999
0.999999
0.999998
0.999999
0.999999
0.999999
0.999998
0.999999
0.999999
0.999999
0.999999
0.999999
0.999999
0.999999
0.999999
0.999999
0.999999
0.999999
0.999999
0.999999
1
1
1
1
3.94029e-06
4.41565e-06
4.58837e-06
4.69295e-06
5.42221e-06
6.35306e-06
7.38918e-06
8.26593e-06
9.16638e-06
9.78955e-06
9.94676e-06
1.00026e-05
1.0003e-05
1.00086e-05
9.99955e-06
1.00022e-05
9.99514e-06
9.9955e-06
9.99341e-06
9.99425e-06
9.99386e-06
9.99442e-06
9.99449e-06
9.99482e-06
9.99499e-06
9.99519e-06
9.99535e-06
9.99554e-06
9.99571e-06
9.99585e-06
9.99595e-06
9.99607e-06
9.99639e-06
9.99717e-06
9.99779e-06
9.99857e-06
9.99912e-06
9.9993e-06
9.99922e-06
9.99878e-06
9.99843e-06
1.00001e-05
1.00337e-05
1.02255e-05
1.07163e-05
1.16675e-05
1.48607e-05
2.11755e-05
3.82373e-05
6.45525e-05
7.6741e-05
0.000100242
0.000123982
0.000145587
0.000144041
0.000141568
0.00014138
0.000196885
0.000205327
0.0214629
0.964167
0.999999
0.999999
0.999999
0.999999
0.999999
0.999999
0.999999
0.999999
0.999999
0.999999
0.999999
0.999999
0.999999
0.999999
0.999999
0.999999
0.999999
0.999999
0.999999
0.999999
0.999999
0.999999
0.999999
0.999999
0.999999
0.999999
0.999999
0.999999
0.999999
0.999999
0.999999
1
1
1
1
3.79432e-06
4.2618e-06
4.32596e-06
4.21169e-06
5.19892e-06
6.37804e-06
8.01259e-06
8.85959e-06
9.57007e-06
9.89741e-06
9.94012e-06
9.99257e-06
1.00113e-05
1.00113e-05
1.00113e-05
1.00113e-05
1.00105e-05
1.00104e-05
1.00079e-05
1.00074e-05
1.0005e-05
1.0004e-05
1.00023e-05
1.00013e-05
1.00005e-05
1e-05
9.99963e-06
9.99937e-06
9.9992e-06
9.99903e-06
9.99885e-06
9.99873e-06
9.9988e-06
9.99906e-06
9.99917e-06
9.99951e-06
9.99962e-06
9.99964e-06
9.99955e-06
9.99952e-06
9.99977e-06
1.00038e-05
1.00349e-05
1.01966e-05
1.05534e-05
1.13277e-05
1.44389e-05
2.06333e-05
3.75241e-05
6.66597e-05
8.63691e-05
9.65013e-05
0.00010843
0.000129939
0.00012939
0.000133964
0.000141672
0.000205968
0.000327495
0.0193866
0.947037
0.999999
0.999999
0.999999
0.999999
0.999999
0.999999
0.999999
0.999999
0.999999
0.999999
0.999999
0.999999
0.999999
0.999999
0.999999
0.999999
0.999999
0.999999
0.999999
0.999999
0.999999
0.999999
0.999999
0.999999
0.999999
0.999999
0.999999
0.999999
0.999999
0.999999
0.999999
1
1
1
1
3.59159e-06
4.05964e-06
3.59234e-06
3.10383e-06
3.08477e-06
4.15719e-06
7.03886e-06
9.32394e-06
9.74683e-06
9.86421e-06
9.88798e-06
9.95899e-06
1.00015e-05
1.00112e-05
1.00109e-05
1.00113e-05
1.00106e-05
1.00106e-05
1.00102e-05
1.00102e-05
1.00096e-05
1.00095e-05
1.00086e-05
1.00079e-05
1.0007e-05
1.00062e-05
1.00055e-05
1.00048e-05
1.00042e-05
1.00035e-05
1.00029e-05
1.00023e-05
1.00019e-05
1.00013e-05
1.00007e-05
1.00005e-05
1.00003e-05
1.00002e-05
1.00005e-05
1.00013e-05
1.00026e-05
1.00074e-05
1.00297e-05
1.01259e-05
1.03449e-05
1.10386e-05
1.42136e-05
2.10678e-05
3.80135e-05
6.98668e-05
9.28941e-05
0.000105764
0.000114795
0.000122882
0.000123251
0.000130771
0.000137727
0.000196276
0.000486856
0.0287984
0.949638
0.999999
0.999999
0.999999
0.999999
0.999999
0.999999
0.999999
0.999999
0.999999
0.999999
0.999999
0.999999
0.999999
0.999999
0.999999
0.999999
0.999999
0.999999
0.999999
0.999999
0.999999
0.999999
0.999999
0.999999
0.999999
0.999999
0.999999
0.999999
0.999999
0.999999
0.999999
0.999999
1
1
1
3.15359e-06
3.89102e-06
3.60087e-06
3.04946e-06
2.38734e-06
2.51551e-06
4.15948e-06
8.95737e-06
9.76061e-06
9.86828e-06
9.89223e-06
9.95783e-06
9.98982e-06
1.00058e-05
1.00051e-05
1.00074e-05
1.00053e-05
1.0007e-05
1.00064e-05
1.00068e-05
1.00064e-05
1.00066e-05
1.00061e-05
1.00058e-05
1.00052e-05
1.00047e-05
1.00042e-05
1.00036e-05
1.00031e-05
1.00026e-05
1.0002e-05
1.00015e-05
1.00009e-05
1.00003e-05
9.99987e-06
9.99953e-06
9.99935e-06
9.99948e-06
1.00003e-05
1.00014e-05
1.00028e-05
1.00059e-05
1.00127e-05
1.00415e-05
1.0135e-05
1.08179e-05
1.4352e-05
2.23221e-05
3.92275e-05
6.77159e-05
9.23883e-05
0.000106894
0.000114883
0.000119431
0.000120379
0.000122485
0.000117392
0.000161399
0.000593597
0.0308648
0.942249
0.999912
0.999999
0.999999
0.999999
0.999999
0.999999
0.999999
0.999999
0.999999
0.999999
0.999999
0.999999
0.999999
0.999999
0.999999
0.999999
0.999999
0.999999
0.999999
0.999999
0.999999
0.999999
0.999999
0.999999
0.999999
0.999999
0.999999
0.999999
0.999999
0.999999
0.999999
0.999999
1
1
1
1.87663e-06
2.72939e-06
2.65222e-06
2.60821e-06
2.55543e-06
2.49723e-06
2.33572e-06
5.5606e-06
9.62925e-06
9.93248e-06
9.94768e-06
9.98735e-06
1.00009e-05
1.00123e-05
1.00123e-05
1.00123e-05
1.00123e-05
1.00123e-05
1.00123e-05
1.00123e-05
1.00123e-05
1.00123e-05
1.00123e-05
1.00122e-05
1.0012e-05
1.00118e-05
1.00115e-05
1.00111e-05
1.00108e-05
1.00104e-05
1.00099e-05
1.00095e-05
1.00089e-05
1.00083e-05
1.00078e-05
1.00073e-05
1.00072e-05
1.00074e-05
1.00084e-05
1.00095e-05
1.00105e-05
1.00117e-05
1.00131e-05
1.00226e-05
1.01117e-05
1.13007e-05
1.67988e-05
2.80869e-05
4.46394e-05
6.49776e-05
8.55935e-05
0.000103201
0.00011223
0.0001153
0.000115407
0.000124249
0.000121569
0.000138646
0.00103171
0.0377347
0.908351
0.998662
0.999996
0.999999
0.999999
0.999999
0.999999
0.999999
0.999999
0.999999
0.999999
0.999999
0.999999
0.999999
0.999999
0.999999
0.999999
0.999999
0.999999
0.999999
0.999999
0.999999
0.999999
0.999999
0.999999
0.999999
0.999999
0.999999
0.999999
0.999999
0.999999
0.999999
0.999999
1
1
1
6.6988e-06
7.41784e-06
7.74189e-06
8.00746e-06
8.29531e-06
8.71178e-06
9.1993e-06
9.54645e-06
9.68306e-06
9.76457e-06
9.87477e-06
9.95222e-06
9.9954e-06
1.00093e-05
1.00093e-05
1.00093e-05
1.00093e-05
1.00093e-05
1.00088e-05
1.00088e-05
1.00083e-05
1.00082e-05
1.0008e-05
1.00081e-05
1.00081e-05
1.00082e-05
1.00082e-05
1.00082e-05
1.00082e-05
1.00083e-05
1.00087e-05
1.00092e-05
1.00092e-05
1.00092e-05
1.00092e-05
1.00092e-05
1.00092e-05
1.00092e-05
1.0009e-05
1.00084e-05
1.00075e-05
1.00056e-05
1.00054e-05
1.001e-05
1.00469e-05
1.1254e-05
1.4756e-05
2.15972e-05
3.09195e-05
6.14824e-05
9.13293e-05
0.000104336
0.000113579
0.000128025
0.000131957
0.000135465
0.00013386
0.000143752
0.000926012
0.0633194
0.983742
0.999974
0.999999
0.999999
0.999999
0.999999
0.999999
0.999999
0.999999
0.999999
0.999999
0.999999
0.999999
0.999999
0.999999
0.999999
0.999999
0.999999
0.999999
0.999999
0.999999
0.999999
0.999999
0.999999
0.999999
0.999999
0.999999
0.999999
1
1
1
1
1
1
1
1
5.21035e-06
6.74171e-06
7.37294e-06
7.73631e-06
8.1696e-06
8.51216e-06
8.81224e-06
9.03788e-06
9.27233e-06
9.47652e-06
9.68774e-06
9.87095e-06
9.96553e-06
1.00027e-05
1.00081e-05
1.00093e-05
1.00077e-05
1.00093e-05
1.00083e-05
1.00088e-05
1.00086e-05
1.00086e-05
1.00084e-05
1.00083e-05
1.0008e-05
1.00077e-05
1.00075e-05
1.00073e-05
1.00071e-05
1.0007e-05
1.00069e-05
1.00068e-05
1.00066e-05
1.00063e-05
1.00058e-05
1.00052e-05
1.00046e-05
1.0004e-05
1.00032e-05
1.00025e-05
1.00018e-05
1.00018e-05
1.00092e-05
1.00603e-05
1.02441e-05
1.1013e-05
1.39452e-05
2.48655e-05
3.92606e-05
6.10964e-05
8.4847e-05
9.42639e-05
0.000113586
0.000132257
0.000135912
0.000137294
0.000132829
0.000145027
0.000496462
0.0938778
0.996771
0.999995
0.999999
0.999999
0.999999
0.999999
0.999999
0.999999
0.999999
0.999999
0.999999
0.999999
0.999999
0.999999
0.999999
0.999999
0.999999
0.999999
0.999999
0.999999
0.999999
0.999999
0.999999
0.999999
0.999999
0.999999
0.999999
0.999999
1
1
1
0.999999
0.999999
0.999999
0.999999
1
4.07699e-06
5.80417e-06
6.97536e-06
7.34728e-06
7.58286e-06
7.94099e-06
8.29866e-06
8.66674e-06
9.05428e-06
9.3478e-06
9.5931e-06
9.83023e-06
9.95148e-06
9.9997e-06
1.00045e-05
1.00071e-05
1.0005e-05
1.00062e-05
1.00051e-05
1.00057e-05
1.0005e-05
1.00051e-05
1.00047e-05
1.00046e-05
1.00043e-05
1.00042e-05
1.00041e-05
1.0004e-05
1.00039e-05
1.00037e-05
1.00036e-05
1.00035e-05
1.00033e-05
1.00029e-05
1.00024e-05
1.00019e-05
1.00014e-05
1.00009e-05
1.00004e-05
9.99976e-06
9.99906e-06
9.99928e-06
1.00071e-05
1.00628e-05
1.02985e-05
1.10669e-05
1.61989e-05
3.37168e-05
5.48228e-05
7.00823e-05
8.67867e-05
0.000109157
0.000133026
0.000140335
0.000137414
0.000136192
0.000123737
0.000136719
0.000330051
0.151663
0.999934
0.999992
0.999994
0.999996
0.999997
0.999998
0.999999
0.999999
0.999999
0.999999
0.999999
0.999999
0.999999
0.999999
0.999999
0.999999
0.999999
0.999999
0.999999
0.999999
0.999999
0.999999
0.999999
0.999999
0.999999
0.999999
0.999999
0.999999
1
1
0.999999
0.999999
0.999999
0.999999
0.999999
1
3.39436e-06
4.52429e-06
6.65238e-06
7.34315e-06
7.4942e-06
7.7932e-06
8.05593e-06
8.40188e-06
8.87206e-06
9.27182e-06
9.54608e-06
9.80976e-06
9.94397e-06
9.9979e-06
1.00019e-05
1.00043e-05
1.00022e-05
1.00032e-05
1.00022e-05
1.00025e-05
1.00019e-05
1.00018e-05
1.00014e-05
1.00013e-05
1.00011e-05
1.0001e-05
1.00008e-05
1.00007e-05
1.00006e-05
1.00004e-05
1.00003e-05
1.00002e-05
1e-05
9.99976e-06
9.9994e-06
9.99907e-06
9.99879e-06
9.99852e-06
9.99819e-06
9.9973e-06
9.99599e-06
9.99546e-06
1e-05
1.00604e-05
1.03707e-05
1.19074e-05
1.95889e-05
3.97676e-05
5.89059e-05
6.89805e-05
8.97695e-05
0.00013212
0.000140818
0.000139155
0.000131208
0.000122845
0.00013173
0.000169101
0.000200549
0.22021
0.998777
0.999613
0.999642
0.999705
0.999745
0.999799
0.999853
0.999907
0.999946
0.99997
0.999985
0.999992
0.999996
0.999998
0.999999
0.999999
0.999999
0.999999
0.999999
0.999999
0.999999
0.999999
0.999999
1
1
1
0.999999
0.999999
0.999999
0.999999
0.999999
0.999999
0.999999
0.999999
0.999999
0.999999
3.10761e-06
3.46736e-06
5.8269e-06
7.42967e-06
7.59073e-06
7.75759e-06
7.98404e-06
8.27005e-06
8.75207e-06
9.21899e-06
9.51654e-06
9.79818e-06
9.94024e-06
9.99714e-06
1.00006e-05
1.00031e-05
1.0001e-05
1.00018e-05
1.00009e-05
1.00011e-05
1.00005e-05
1.00004e-05
9.99997e-06
9.99986e-06
9.99968e-06
9.99954e-06
9.99938e-06
9.99923e-06
9.99909e-06
9.99898e-06
9.99886e-06
9.99873e-06
9.99859e-06
9.99833e-06
9.99802e-06
9.99776e-06
9.99756e-06
9.99737e-06
9.99702e-06
9.996e-06
9.99451e-06
9.99383e-06
9.99821e-06
1.00762e-05
1.05613e-05
1.23792e-05
1.69517e-05
2.55649e-05
3.93342e-05
5.86767e-05
0.000118259
0.000140788
0.000143678
0.000150966
0.000165233
0.000172862
0.000176269
0.000172381
0.000119553
0.250883
0.992379
0.996065
0.995946
0.996139
0.996271
0.996652
0.997063
0.997573
0.998062
0.998523
0.998916
0.999227
0.999467
0.999657
0.999793
0.999876
0.999923
0.999948
0.999961
0.999969
0.999973
0.999975
0.999976
0.999976
0.999977
0.999976
0.999974
0.999973
0.999972
0.999978
0.999986
0.999992
0.999996
0.999998
0.999999
0.999999
2.96903e-06
2.96527e-06
4.81811e-06
6.99917e-06
7.682e-06
7.79631e-06
7.94915e-06
8.20317e-06
8.71728e-06
9.20024e-06
9.50558e-06
9.794e-06
9.93909e-06
9.9965e-06
9.99966e-06
1.0002e-05
1.00001e-05
1.00007e-05
9.99971e-06
9.99978e-06
9.99913e-06
9.99899e-06
9.99859e-06
9.99851e-06
9.99832e-06
9.9982e-06
9.99805e-06
9.99792e-06
9.9978e-06
9.99771e-06
9.99762e-06
9.99755e-06
9.99744e-06
9.99724e-06
9.99698e-06
9.99678e-06
9.99666e-06
9.99656e-06
9.99612e-06
9.99508e-06
9.99344e-06
9.9923e-06
9.99669e-06
1.008e-05
1.06255e-05
1.24117e-05
1.56398e-05
1.99943e-05
2.66817e-05
4.75908e-05
0.000123276
0.000142766
0.000157178
0.000170053
0.000191856
0.000202986
0.000203644
0.000176015
0.0001187
0.294674
0.981905
0.987712
0.98659
0.986293
0.986103
0.986232
0.98668
0.987429
0.988193
0.989151
0.990153
0.991122
0.99212
0.993215
0.994378
0.99553
0.996539
0.997398
0.998041
0.998442
0.998616
0.998679
0.998681
0.998576
0.998417
0.998189
0.997925
0.997651
0.997421
0.997316
0.997729
0.998072
0.998567
0.999231
0.999661
0.999894
2.89428e-06
2.72789e-06
3.99148e-06
5.8189e-06
7.11164e-06
7.53809e-06
7.97234e-06
8.18475e-06
8.72221e-06
9.20728e-06
9.50997e-06
9.79563e-06
9.9403e-06
9.9962e-06
9.99922e-06
1.00014e-05
9.99972e-06
1.00001e-05
9.99924e-06
9.99916e-06
9.9986e-06
9.99848e-06
9.9981e-06
9.99804e-06
9.99787e-06
9.99776e-06
9.99764e-06
9.99753e-06
9.99744e-06
9.99737e-06
9.99731e-06
9.99726e-06
9.99718e-06
9.99701e-06
9.99677e-06
9.99661e-06
9.99651e-06
9.99644e-06
9.99597e-06
9.99502e-06
9.99338e-06
9.99205e-06
9.99659e-06
1.00817e-05
1.06291e-05
1.24176e-05
1.55008e-05
1.88276e-05
2.30658e-05
4.79594e-05
0.000125667
0.000148096
0.000177821
0.00019219
0.000213941
0.000221547
0.000211833
0.000227569
0.0001187
0.379081
0.974499
0.980339
0.979828
0.979559
0.979368
0.9793
0.979248
0.979194
0.979193
0.97919
0.979188
0.979128
0.979103
0.979095
0.979018
0.979294
0.979831
0.980452
0.981085
0.981589
0.981926
0.982086
0.98203
0.98087
0.979508
0.977732
0.975815
0.973994
0.971966
0.969851
0.967464
0.966294
0.966092
0.969829
0.97362
0.979909
2.94286e-06
2.565e-06
3.23316e-06
4.41179e-06
5.87334e-06
6.69047e-06
7.64924e-06
8.20791e-06
8.85036e-06
9.26275e-06
9.53392e-06
9.80221e-06
9.94441e-06
9.99608e-06
9.99882e-06
1.00006e-05
9.99925e-06
9.99965e-06
9.99905e-06
9.999e-06
9.99861e-06
9.99864e-06
9.99861e-06
9.99867e-06
9.99856e-06
9.99852e-06
9.99845e-06
9.99838e-06
9.99832e-06
9.99827e-06
9.9982e-06
9.99812e-06
9.99796e-06
9.99774e-06
9.99746e-06
9.99733e-06
9.99725e-06
9.99721e-06
9.99674e-06
9.99595e-06
9.99477e-06
9.99397e-06
1.00001e-05
1.00764e-05
1.05499e-05
1.21116e-05
1.49886e-05
1.81813e-05
2.46673e-05
3.97199e-05
0.000111128
0.000139967
0.000173198
0.000207239
0.000214361
0.000201627
0.000166445
0.000148623
0.0001187
0.262172
0.973658
0.98502
0.985627
0.986083
0.986265
0.986267
0.986606
0.986491
0.986031
0.985224
0.984073
0.982691
0.981018
0.979187
0.977302
0.975468
0.973774
0.972112
0.970489
0.968997
0.967687
0.966434
0.965092
0.963554
0.961556
0.959274
0.956632
0.953036
0.949412
0.943917
0.935133
0.924388
0.911067
0.890582
0.841511
0.64269
3.08587e-06
2.52477e-06
2.79657e-06
3.28508e-06
4.62583e-06
5.89546e-06
7.26858e-06
8.2158e-06
8.95058e-06
9.32058e-06
9.56446e-06
9.81651e-06
9.9524e-06
9.99941e-06
1.00016e-05
1.00025e-05
1.00015e-05
1.00017e-05
1.00012e-05
1.0001e-05
1.00008e-05
1.00007e-05
1.00004e-05
1.00003e-05
1.00002e-05
1.00001e-05
1e-05
9.99993e-06
9.99984e-06
9.99977e-06
9.99968e-06
9.99958e-06
9.99941e-06
9.9992e-06
9.99897e-06
9.99887e-06
9.9987e-06
9.99852e-06
9.99806e-06
9.99751e-06
9.99675e-06
9.9965e-06
1.00001e-05
1.00494e-05
1.04128e-05
1.1696e-05
1.42928e-05
1.78289e-05
2.75309e-05
4.54273e-05
8.76339e-05
0.00011895
0.000153384
0.000201057
0.000214511
0.000196994
0.000173275
0.000172629
0.0001187
0.135681
0.979315
0.995834
0.996661
0.997959
0.998716
0.99903
0.999076
0.999001
0.998903
0.998761
0.998553
0.998303
0.997979
0.997554
0.997043
0.99649
0.995931
0.995306
0.994541
0.993546
0.992263
0.990745
0.989186
0.987897
0.98713
0.986912
0.987962
0.989247
0.992167
0.995353
0.997593
0.996413
0.995613
0.994295
0.99288
0.992063
3.06933e-06
2.5445e-06
2.67759e-06
2.80878e-06
3.72894e-06
5.09798e-06
6.85177e-06
8.11883e-06
8.99618e-06
9.36576e-06
9.60461e-06
9.84725e-06
9.96606e-06
1.00016e-05
1.0003e-05
1.00037e-05
1.00032e-05
1.00035e-05
1.00032e-05
1.0003e-05
1.00028e-05
1.00027e-05
1.00025e-05
1.00025e-05
1.00023e-05
1.00023e-05
1.00022e-05
1.00021e-05
1.00019e-05
1.00019e-05
1.00017e-05
1.00016e-05
1.00013e-05
1.0001e-05
1.00007e-05
1.00004e-05
1.00001e-05
9.99956e-06
9.99898e-06
9.99848e-06
9.99773e-06
9.99757e-06
9.99852e-06
1.00276e-05
1.02924e-05
1.13049e-05
1.38128e-05
1.85631e-05
3.01085e-05
5.26588e-05
6.92046e-05
9.63775e-05
0.000118505
0.00017298
0.000208407
0.000205781
0.000194981
0.000203398
0.000122099
0.0813049
0.986272
0.999697
0.999779
0.999919
0.999948
0.999955
0.999951
0.999943
0.999929
0.999912
0.999893
0.999872
0.99985
0.999826
0.999796
0.99976
0.999715
0.999661
0.999592
0.999507
0.99938
0.999218
0.999042
0.99892
0.998893
0.999128
0.999316
0.999534
0.99979
0.99995
0.999999
1
1
1
0.999999
1
2.96773e-06
2.58767e-06
2.67589e-06
2.77394e-06
3.38169e-06
4.54307e-06
6.52116e-06
8.05734e-06
9.00136e-06
9.40582e-06
9.64174e-06
9.87363e-06
9.97595e-06
1.00021e-05
1.00033e-05
1.00039e-05
1.00036e-05
1.00039e-05
1.00038e-05
1.00038e-05
1.00036e-05
1.00036e-05
1.00035e-05
1.00034e-05
1.00033e-05
1.00032e-05
1.00031e-05
1.0003e-05
1.00028e-05
1.00027e-05
1.00026e-05
1.00024e-05
1.00021e-05
1.00018e-05
1.00015e-05
1.00014e-05
1.00012e-05
1.0001e-05
1.00006e-05
1e-05
9.99943e-06
9.99957e-06
1.00003e-05
1.00193e-05
1.02115e-05
1.10963e-05
1.36545e-05
1.94341e-05
3.29686e-05
5.6502e-05
7.45289e-05
9.14632e-05
0.000105293
0.000137944
0.000177353
0.000194244
0.000188615
0.000212878
0.000197571
0.0301678
0.964757
0.999999
0.999985
0.999997
0.999997
0.999998
0.999998
0.999997
0.999997
0.999996
0.999996
0.999996
0.999995
0.999995
0.999994
0.999994
0.999992
0.999991
0.99999
0.999987
0.999984
0.99998
0.999977
0.999976
0.999981
0.999988
0.999992
0.999995
0.999998
0.999999
0.999999
0.999999
0.999999
1
1
1
2.79127e-06
2.58655e-06
2.67141e-06
2.80475e-06
3.36308e-06
4.48401e-06
6.46904e-06
8.09688e-06
9.06721e-06
9.47058e-06
9.69597e-06
9.90583e-06
9.98475e-06
1.00028e-05
1.00026e-05
1.00039e-05
1.00031e-05
1.00039e-05
1.00033e-05
1.00037e-05
1.00033e-05
1.00034e-05
1.00033e-05
1.00033e-05
1.00032e-05
1.00031e-05
1.00031e-05
1.0003e-05
1.00028e-05
1.00027e-05
1.00026e-05
1.00024e-05
1.0002e-05
1.00017e-05
1.00014e-05
1.00012e-05
1.00012e-05
1.00011e-05
1.00008e-05
1.00003e-05
1.00002e-05
1.00005e-05
1.00012e-05
1.00169e-05
1.01601e-05
1.10346e-05
1.36468e-05
2.00516e-05
3.57711e-05
6.21634e-05
8.07873e-05
9.41525e-05
0.000104767
0.000121419
0.000142307
0.000160985
0.000166079
0.00026058
0.000283199
0.0236151
0.960227
0.999999
0.999999
0.999999
0.999999
0.999999
0.999999
0.999999
0.999999
0.999999
0.999999
0.999999
0.999999
0.999999
0.999999
0.999999
0.999999
0.999999
0.999999
0.999999
0.999999
0.999999
0.999999
0.999999
0.999999
0.999999
0.999999
0.999999
0.999999
0.999999
0.999999
0.999999
0.999999
1
1
1
2.68668e-06
2.52941e-06
2.47671e-06
2.47135e-06
3.0512e-06
4.21797e-06
6.58224e-06
8.28129e-06
9.1675e-06
9.57116e-06
9.76715e-06
9.93438e-06
9.98891e-06
1.0003e-05
1.0003e-05
1.00039e-05
1.00035e-05
1.0004e-05
1.00037e-05
1.00041e-05
1.00038e-05
1.0004e-05
1.00038e-05
1.00038e-05
1.00037e-05
1.00037e-05
1.00036e-05
1.00034e-05
1.00032e-05
1.00031e-05
1.00029e-05
1.00027e-05
1.00023e-05
1.00018e-05
1.00012e-05
1.00003e-05
9.99962e-06
9.99923e-06
9.9991e-06
9.99939e-06
1.00004e-05
1.00009e-05
1.00018e-05
1.00181e-05
1.01464e-05
1.10211e-05
1.40512e-05
2.08248e-05
3.76313e-05
6.58982e-05
8.52376e-05
9.69118e-05
0.000106239
0.000122666
0.000132434
0.000146447
0.000169777
0.000325285
0.000395821
0.0267809
0.95872
0.999999
0.999999
0.999999
0.999999
0.999999
0.999999
0.999999
0.999999
0.999999
0.999999
0.999999
0.999999
0.999999
0.999999
0.999999
0.999999
0.999999