/*--------------------------------*- C++ -*----------------------------------*\
| =========                 |                                                 |
| \\      /  F ield         | OpenFOAM: The Open Source CFD Toolbox           |
|  \\    /   O peration     | Version:  2.3.0                                 |
|   \\  /    A nd           | Web:      www.OpenFOAM.org                      |
|    \\/     M anipulation  |                                                 |
\*---------------------------------------------------------------------------*/
FoamFile
{
    version     2.0;
    format      ascii;
    class       volScalarField;
    location    "22";
    object      k.water;
}
// * * * * * * * * * * * * * * * * * * * * * * * * * * * * * * * * * * * * * //

dimensions      [0 2 -2 0 0 0 0];

internalField   nonuniform List<scalar> 
6144
(
6.39567e-05
4.86541e-05
4.1122e-05
3.82428e-05
3.16557e-05
2.97004e-05
2.27763e-05
1.95026e-05
1.94775e-05
2.30782e-05
2.61993e-05
2.85856e-05
2.90228e-05
2.89693e-05
2.70944e-05
2.62597e-05
2.50815e-05
2.47668e-05
2.4562e-05
2.45248e-05
2.45499e-05
2.46182e-05
2.47011e-05
2.47973e-05
2.48987e-05
2.49911e-05
2.50645e-05
2.51292e-05
2.51923e-05
2.52476e-05
2.53275e-05
2.53402e-05
2.54505e-05
2.53611e-05
2.56871e-05
2.54101e-05
2.60414e-05
2.55226e-05
2.65687e-05
2.59017e-05
2.76543e-05
2.70786e-05
2.91391e-05
2.92861e-05
2.92603e-05
2.92295e-05
2.66038e-05
2.63474e-05
2.69867e-05
3.95087e-05
5.99504e-05
8.52058e-05
0.00012133
0.00021093
0.000418999
0.00054495
0.000710971
0.00152315
0.00365808
0.00531719
0.0123628
0.00848972
0.00596373
0.00444453
0.00350202
0.00292989
0.00253233
0.00223395
0.00200828
0.00182808
0.00167149
0.00152801
0.00139304
0.00126674
0.0011448
0.00102549
0.000905974
0.000789383
0.000677474
0.000572558
0.000482771
0.000406108
0.000337982
0.000287292
0.000253048
0.000233272
0.000232195
0.000237825
0.000239997
0.000236008
0.000226688
0.00020752
0.000189113
0.000162418
0.000112268
0.000108466
0.000115196
8.72658e-05
7.057e-05
6.50513e-05
5.64971e-05
5.55559e-05
4.89305e-05
4.44113e-05
4.36693e-05
4.73321e-05
5.00225e-05
5.33157e-05
5.38694e-05
5.37923e-05
5.15489e-05
5.04605e-05
4.91211e-05
4.92086e-05
4.95321e-05
5.00943e-05
5.06693e-05
5.12698e-05
5.17922e-05
5.22436e-05
5.2634e-05
5.29833e-05
5.32955e-05
5.35715e-05
5.38198e-05
5.40425e-05
5.42757e-05
5.44226e-05
5.46734e-05
5.46911e-05
5.53549e-05
5.50096e-05
5.60389e-05
5.5214e-05
5.67449e-05
5.54613e-05
5.78101e-05
5.62265e-05
5.88623e-05
5.80032e-05
5.90855e-05
5.92732e-05
5.87513e-05
5.94368e-05
6.06179e-05
8.03354e-05
0.000103278
0.00015222
0.000218142
0.000311019
0.000615848
0.000956143
0.00154061
0.00247123
0.00376567
0.00493779
0.00925589
0.00470844
0.00266819
0.00200244
0.00172653
0.00160096
0.00151261
0.00144043
0.00137162
0.00131095
0.00125693
0.00120488
0.00114926
0.00108982
0.00101807
0.000940221
0.000850123
0.000752747
0.000650829
0.000547605
0.000458399
0.000370932
0.000302519
0.000297563
0.000325404
0.000341593
0.000341213
0.000336549
0.000323484
0.000298215
0.000278368
0.000240787
0.000207816
0.000166522
0.000121447
0.000113288
0.000156158
0.000123799
9.09029e-05
8.11287e-05
6.79327e-05
6.50748e-05
6.07502e-05
5.50613e-05
5.33239e-05
5.51353e-05
5.73727e-05
5.88681e-05
5.92804e-05
5.89885e-05
5.8363e-05
5.82143e-05
5.86727e-05
5.97754e-05
6.08216e-05
6.20113e-05
6.31097e-05
6.41591e-05
6.50313e-05
6.57513e-05
6.6351e-05
6.68937e-05
6.74008e-05
6.78608e-05
6.82713e-05
6.86403e-05
6.89891e-05
6.92766e-05
6.9631e-05
6.98267e-05
7.02424e-05
7.0148e-05
7.05589e-05
7.00204e-05
7.03734e-05
6.93023e-05
6.97012e-05
6.84419e-05
6.93923e-05
6.96749e-05
7.28627e-05
7.6074e-05
7.95538e-05
8.53072e-05
8.47784e-05
0.000103001
0.00012286
0.000192222
0.000303392
0.000435281
0.000669929
0.0011912
0.00162772
0.0023622
0.00294729
0.00381761
0.00779468
0.00290679
0.00143664
0.00130355
0.00122993
0.00121438
0.00118341
0.00116774
0.00112997
0.00109711
0.00106997
0.00103285
0.000998545
0.000965166
0.00091236
0.000843627
0.000772764
0.000687045
0.000556834
0.000432686
0.000392414
0.000411112
0.000440619
0.000463495
0.000459494
0.000436492
0.000403217
0.000368205
0.000332721
0.000298311
0.000274392
0.000235671
0.000209096
0.000171608
0.000144247
0.0001263
0.000214432
0.000174701
0.000123117
0.000106744
7.7847e-05
6.73792e-05
5.36418e-05
5.00259e-05
5.24416e-05
5.52378e-05
5.88176e-05
5.9711e-05
6.04486e-05
6.0169e-05
6.01155e-05
6.00972e-05
6.06659e-05
6.18647e-05
6.30898e-05
6.44382e-05
6.56714e-05
6.68091e-05
6.77404e-05
6.84919e-05
6.91167e-05
6.9683e-05
7.02091e-05
7.06868e-05
7.11118e-05
7.1489e-05
7.183e-05
7.21332e-05
7.24775e-05
7.27209e-05
7.30704e-05
7.3045e-05
7.33131e-05
7.28659e-05
7.29605e-05
7.20635e-05
7.2018e-05
7.12974e-05
7.15842e-05
7.36155e-05
7.67738e-05
8.30019e-05
8.74797e-05
9.49575e-05
9.75027e-05
0.000111626
0.000140021
0.000213826
0.000344443
0.000558079
0.00106906
0.00169914
0.0021186
0.00269972
0.00243401
0.00287982
0.00677828
0.00207285
0.00112931
0.00104019
0.00098398
0.000944243
0.000945565
0.000956052
0.00095505
0.000942016
0.000909273
0.00086928
0.000834509
0.000810989
0.000763871
0.000682191
0.000608234
0.000563792
0.000560223
0.000573893
0.000636043
0.000661205
0.000615894
0.000556167
0.00049252
0.000425822
0.000373397
0.000326854
0.000275309
0.000223651
0.000200133
0.000187007
0.000187592
0.000173871
0.000168479
0.000139718
0.000283494
0.000235178
0.000171158
0.000152655
0.000104676
8.6654e-05
5.715e-05
5.04284e-05
5.12416e-05
5.44481e-05
5.88149e-05
5.83809e-05
5.92213e-05
5.8626e-05
5.88419e-05
5.89635e-05
6.00083e-05
6.15492e-05
6.32896e-05
6.50307e-05
6.6504e-05
6.77031e-05
6.86288e-05
6.93836e-05
7.00062e-05
7.054e-05
7.10118e-05
7.14294e-05
7.17938e-05
7.21037e-05
7.23721e-05
7.263e-05
7.28955e-05
7.3082e-05
7.3298e-05
7.32073e-05
7.32604e-05
7.27231e-05
7.24363e-05
7.15534e-05
7.09993e-05
7.07825e-05
7.09481e-05
7.43796e-05
7.8409e-05
8.63152e-05
9.19815e-05
9.95894e-05
0.000104126
0.000119593
0.000145585
0.000212312
0.000374708
0.00074521
0.00192379
0.00309232
0.00530529
0.00430468
0.00217272
0.00214627
0.00540126
0.00150117
0.00110895
0.00107041
0.00107699
0.000926681
0.000878169
0.000849468
0.000792855
0.000754531
0.000723402
0.000683919
0.000668251
0.000673753
0.00068561
0.00069991
0.000718
0.000793982
0.000883012
0.000898751
0.000818349
0.000740823
0.000663657
0.00058987
0.000516488
0.000437349
0.00036962
0.000262731
0.000180941
0.000165729
0.00017118
0.000180343
0.000185031
0.0001779
0.000174555
0.000144506
0.000335668
0.000298532
0.000225747
0.000215221
0.000149488
0.00012723
7.74748e-05
5.83213e-05
5.20105e-05
5.35683e-05
5.79846e-05
5.64288e-05
5.7636e-05
5.66588e-05
5.73254e-05
5.72815e-05
5.91252e-05
6.11439e-05
6.35453e-05
6.55628e-05
6.71808e-05
6.83811e-05
6.92677e-05
6.99324e-05
7.04438e-05
7.08658e-05
7.12331e-05
7.15577e-05
7.18452e-05
7.20944e-05
7.23012e-05
7.24984e-05
7.2664e-05
7.27605e-05
7.28625e-05
7.26565e-05
7.25833e-05
7.1864e-05
7.14749e-05
7.04374e-05
6.98465e-05
6.9767e-05
7.02411e-05
7.42836e-05
7.89163e-05
8.72743e-05
9.47256e-05
0.000102169
0.000107898
0.000128919
0.000153383
0.000210997
0.000431917
0.00108403
0.00284268
0.00482072
0.00543969
0.00468702
0.00200194
0.0019154
0.00427097
0.00130638
0.00115222
0.0011379
0.00112413
0.00101622
0.00088273
0.000796676
0.000758335
0.000747904
0.000757465
0.000783298
0.000821763
0.000872773
0.000912646
0.000960652
0.00100009
0.0010084
0.000921305
0.000820442
0.000684038
0.000596894
0.000527674
0.000477497
0.0004382
0.000397056
0.000342064
0.000275714
0.000213044
0.000186546
0.000181527
0.00018198
0.000180219
0.000173846
0.000169189
0.000143356
0.000349894
0.000348852
0.000265272
0.000259539
0.000192695
0.000164048
0.000110757
7.27015e-05
5.55932e-05
5.40039e-05
5.67411e-05
5.27063e-05
5.28636e-05
5.11415e-05
5.23155e-05
5.21445e-05
5.43301e-05
5.62922e-05
5.90923e-05
6.14532e-05
6.35169e-05
6.50127e-05
6.60842e-05
6.67815e-05
6.72323e-05
6.75027e-05
6.76637e-05
6.77636e-05
6.78097e-05
6.78171e-05
6.77889e-05
6.77832e-05
6.77507e-05
6.77688e-05
6.75336e-05
6.7357e-05
6.66464e-05
6.61777e-05
6.48763e-05
6.44269e-05
6.3244e-05
6.43097e-05
6.53979e-05
7.10734e-05
7.81914e-05
8.61359e-05
9.46903e-05
9.9443e-05
0.000105489
0.00013694
0.000175997
0.00025486
0.0005973
0.00150351
0.00311434
0.00445078
0.00504906
0.00464875
0.00219928
0.002152
0.00368688
0.00128018
0.00117524
0.00115602
0.00112626
0.00108694
0.00105144
0.00101549
0.000977343
0.000963717
0.000957414
0.000961006
0.000964433
0.000955106
0.000937171
0.000914073
0.000870536
0.000785273
0.000673614
0.000589944
0.000544417
0.00052206
0.000495468
0.00047671
0.000459614
0.00043871
0.000416103
0.000388778
0.000347387
0.000293276
0.000243293
0.000222647
0.000208905
0.000197117
0.000167165
0.000135747
0.000342678
0.00036588
0.000276855
0.000272892
0.000206647
0.000176056
0.000130543
8.54945e-05
6.07937e-05
5.4595e-05
5.54967e-05
5.06903e-05
5.09488e-05
4.82324e-05
4.93919e-05
4.85461e-05
5.13539e-05
5.36048e-05
5.68608e-05
5.95028e-05
6.18734e-05
6.36308e-05
6.49149e-05
6.57865e-05
6.63648e-05
6.67442e-05
6.69748e-05
6.71062e-05
6.71635e-05
6.71701e-05
6.7115e-05
6.70437e-05
6.68969e-05
6.68328e-05
6.64775e-05
6.63702e-05
6.54416e-05
6.51872e-05
6.36452e-05
6.34738e-05
6.22122e-05
6.33526e-05
6.45189e-05
6.95e-05
7.68817e-05
8.3656e-05
9.27214e-05
9.43159e-05
0.000102145
0.000132896
0.000195972
0.00033777
0.00104471
0.00255774
0.00391389
0.00416801
0.00444961
0.00411362
0.00224073
0.00222445
0.0035641
0.00133665
0.00123688
0.00120258
0.00117486
0.00114149
0.00111251
0.00108993
0.0010769
0.00107125
0.00106463
0.00106401
0.00105707
0.00104776
0.00103946
0.00101862
0.00096483
0.000886451
0.000795135
0.000716245
0.000642979
0.000591975
0.000537736
0.00047092
0.000422994
0.000394046
0.000365068
0.00035338
0.00034702
0.000338336
0.000314264
0.000287794
0.000266256
0.000237265
0.000207922
0.000184199
0.000293756
0.000325657
0.000252713
0.000246684
0.000202009
0.000167549
0.000129987
8.56284e-05
6.61937e-05
5.19008e-05
4.96685e-05
4.45612e-05
4.39842e-05
3.93277e-05
3.82661e-05
3.67456e-05
3.91336e-05
4.11871e-05
4.41283e-05
4.64521e-05
4.86127e-05
5.02945e-05
5.16433e-05
5.25862e-05
5.3212e-05
5.3619e-05
5.38686e-05
5.40123e-05
5.40834e-05
5.41016e-05
5.40581e-05
5.39862e-05
5.38439e-05
5.37962e-05
5.34789e-05
5.35238e-05
5.27115e-05
5.28616e-05
5.1575e-05
5.204e-05
5.10643e-05
5.24547e-05
5.37007e-05
5.73221e-05
6.4024e-05
6.83314e-05
7.74104e-05
7.52392e-05
8.39542e-05
0.000104976
0.000157928
0.000229133
0.000472965
0.00130753
0.00301303
0.00395246
0.00415728
0.00384966
0.0020397
0.00199876
0.00388111
0.00135232
0.00126364
0.00126102
0.00124419
0.00123681
0.00123535
0.00120465
0.00119206
0.00116234
0.001151
0.00114057
0.00114025
0.00114803
0.0011497
0.00112999
0.0010883
0.00104376
0.000991547
0.000941591
0.00088547
0.000804099
0.000723029
0.000627229
0.000495476
0.000426166
0.000354634
0.000280436
0.000247256
0.000239751
0.000251842
0.000213895
0.000189517
0.000161126
0.000120267
0.000100364
0.000278613
0.000311475
0.000203111
0.000195336
0.000187949
0.000151933
0.000121856
7.73541e-05
5.52981e-05
4.16904e-05
3.93242e-05
3.5644e-05
3.39737e-05
2.90081e-05
2.70206e-05
2.55377e-05
2.7224e-05
2.88275e-05
3.11454e-05
3.29837e-05
3.47151e-05
3.60387e-05
3.71226e-05
3.79791e-05
3.86252e-05
3.90764e-05
3.93719e-05
3.95707e-05
3.97159e-05
3.98254e-05
3.9894e-05
3.99349e-05
3.99518e-05
3.99937e-05
3.99344e-05
4.00246e-05
3.97338e-05
3.98577e-05
3.9427e-05
3.97057e-05
3.96324e-05
4.05474e-05
4.1806e-05
4.41064e-05
4.92436e-05
5.17774e-05
5.9707e-05
5.73963e-05
6.59059e-05
7.91332e-05
0.000111338
0.000155979
0.000250444
0.000594017
0.00154469
0.0032512
0.00411266
0.00393473
0.00208084
0.0020204
0.00467495
0.00134414
0.00104835
0.000939042
0.00094572
0.000952427
0.00104832
0.00108247
0.00109698
0.00108684
0.0010796
0.00107564
0.00106542
0.00104448
0.00100772
0.000947564
0.000864386
0.000783275
0.000695847
0.000607442
0.000532392
0.000496145
0.000475181
0.000465088
0.00044638
0.000402624
0.000375199
0.000314707
0.000222173
0.000160839
0.000140909
0.000132537
0.000115472
0.000102544
8.78018e-05
7.81258e-05
0.000303229
0.000317516
0.000123737
0.000115428
0.000136638
0.000123006
0.000102391
6.80642e-05
4.95104e-05
3.58457e-05
3.31525e-05
2.86118e-05
2.56344e-05
2.02143e-05
1.86357e-05
1.74149e-05
1.85307e-05
1.95966e-05
2.12049e-05
2.25123e-05
2.38016e-05
2.48408e-05
2.57376e-05
2.64814e-05
2.7089e-05
2.75626e-05
2.79263e-05
2.82191e-05
2.84765e-05
2.87077e-05
2.89042e-05
2.90662e-05
2.91965e-05
2.93117e-05
2.94341e-05
2.95925e-05
2.96574e-05
2.98289e-05
2.9895e-05
3.013e-05
3.06189e-05
3.09821e-05
3.26109e-05
3.35917e-05
3.78117e-05
3.89113e-05
4.52061e-05
4.3509e-05
5.08932e-05
6.04556e-05
8.12149e-05
0.000118989
0.000205615
0.000523575
0.00109482
0.00218291
0.00306248
0.0034972
0.00252875
0.00251863
0.00611724
0.00148357
0.000938399
0.000786358
0.000740673
0.000702408
0.000700231
0.000748723
0.000818912
0.000857982
0.000872277
0.000863467
0.00082457
0.000769155
0.00070396
0.00063626
0.000578062
0.000520794
0.000468176
0.0004244
0.000400072
0.000402799
0.000411618
0.00042556
0.00044033
0.00044024
0.00043649
0.000423846
0.000390327
0.00026541
0.000131558
0.000122362
0.000120165
0.000111472
0.000104735
8.97862e-05
0.000447029
0.000302729
0.000108933
7.63461e-05
7.42994e-05
8.02051e-05
7.00654e-05
4.75369e-05
3.61945e-05
2.90313e-05
2.7862e-05
2.37883e-05
1.92365e-05
1.52716e-05
1.4173e-05
1.37125e-05
1.43457e-05
1.48654e-05
1.56989e-05
1.6401e-05
1.7146e-05
1.78037e-05
1.84365e-05
1.90145e-05
1.95431e-05
2.00112e-05
2.04263e-05
2.08043e-05
2.11717e-05
2.15191e-05
2.18296e-05
2.2097e-05
2.23404e-05
2.26573e-05
2.29318e-05
2.32828e-05
2.35084e-05
2.38335e-05
2.4021e-05
2.44269e-05
2.48784e-05
2.5295e-05
2.64432e-05
2.69953e-05
2.99151e-05
3.04935e-05
3.53721e-05
3.42326e-05
3.95179e-05
4.7233e-05
6.5148e-05
0.000101713
0.000179336
0.000406332
0.000887912
0.00169038
0.00224851
0.00334339
0.00354456
0.00367552
0.00747119
0.00208609
0.000977099
0.000940999
0.00103856
0.00095442
0.00085168
0.000765108
0.000698808
0.000646331
0.000610454
0.00059166
0.00056864
0.000534507
0.000492454
0.000451625
0.000417666
0.000394421
0.000389146
0.000394482
0.000404185
0.000420305
0.000443068
0.000462715
0.000489385
0.000494922
0.000490086
0.000474612
0.000446377
0.000399699
0.000262409
0.000124186
0.000117928
0.000123188
0.000116054
0.000101937
0.000590187
0.000449202
0.000254533
7.27559e-05
5.22617e-05
4.89266e-05
4.43353e-05
3.24299e-05
2.61004e-05
2.43665e-05
2.55841e-05
2.25555e-05
1.82607e-05
1.39075e-05
1.30532e-05
1.25088e-05
1.30929e-05
1.34397e-05
1.3865e-05
1.41329e-05
1.44062e-05
1.4616e-05
1.48373e-05
1.50597e-05
1.53046e-05
1.55621e-05
1.5844e-05
1.61517e-05
1.64664e-05
1.67848e-05
1.70962e-05
1.74e-05
1.76919e-05
1.79981e-05
1.82867e-05
1.86363e-05
1.89315e-05
1.92366e-05
1.95476e-05
1.98786e-05
2.04709e-05
2.07487e-05
2.18061e-05
2.20062e-05
2.41314e-05
2.41561e-05
2.74315e-05
2.70767e-05
3.03631e-05
3.67905e-05
5.23234e-05
9.12192e-05
0.000152744
0.000287328
0.000591439
0.00132354
0.00223328
0.00363918
0.0056448
0.00588403
0.00947267
0.00369466
0.0013347
0.00116491
0.00120713
0.00119733
0.00113711
0.00102703
0.000917756
0.000827143
0.000754243
0.000690911
0.000638052
0.000594082
0.000556497
0.000527204
0.000501942
0.000489944
0.000490538
0.000494361
0.000502533
0.00051082
0.00052074
0.000526292
0.000535981
0.000532724
0.000520452
0.000496013
0.000465385
0.000432081
0.000378731
0.000230417
0.000123905
0.000112176
0.000114635
0.000110642
0.000521433
0.000305126
0.000243945
0.000125168
5.78281e-05
4.26686e-05
2.55664e-05
2.11509e-05
2.31682e-05
2.32087e-05
2.45105e-05
2.00735e-05
1.62665e-05
1.29238e-05
1.2063e-05
1.15933e-05
1.20441e-05
1.22808e-05
1.26215e-05
1.28146e-05
1.29984e-05
1.31151e-05
1.32095e-05
1.32902e-05
1.3387e-05
1.34768e-05
1.35695e-05
1.36775e-05
1.38098e-05
1.39632e-05
1.41296e-05
1.43069e-05
1.44877e-05
1.4687e-05
1.49065e-05
1.51966e-05
1.54949e-05
1.57423e-05
1.60832e-05
1.63459e-05
1.69696e-05
1.7201e-05
1.82114e-05
1.82275e-05
1.97906e-05
1.95398e-05
2.15024e-05
2.17484e-05
2.37027e-05
2.75675e-05
4.02246e-05
7.69149e-05
0.000117175
0.00024193
0.00045498
0.000919695
0.00217581
0.00381106
0.00722184
0.00748363
0.0113494
0.00398333
0.00227174
0.00197891
0.0017033
0.00147799
0.00129351
0.00114974
0.00103883
0.000952562
0.00088076
0.00081887
0.000768974
0.000728222
0.000694778
0.000668477
0.000645617
0.00062769
0.000611909
0.000601306
0.000588402
0.000575425
0.000560676
0.000546429
0.000540724
0.000531206
0.00051778
0.000489777
0.000462466
0.000427387
0.000393186
0.000343751
0.000231759
0.000137055
0.000125535
0.000122745
0.000565463
0.000334915
0.000300218
0.000173468
0.000173214
0.000118371
4.22792e-05
1.74308e-05
1.91609e-05
1.85027e-05
1.7731e-05
1.39833e-05
1.16995e-05
1.02808e-05
9.84012e-06
9.60889e-06
9.83587e-06
9.94475e-06
1.01488e-05
1.02593e-05
1.0367e-05
1.04441e-05
1.05439e-05
1.06536e-05
1.07687e-05
1.08913e-05
1.10237e-05
1.11712e-05
1.13368e-05
1.15147e-05
1.16994e-05
1.18905e-05
1.20892e-05
1.23097e-05
1.25578e-05
1.28398e-05
1.31486e-05
1.33789e-05
1.37757e-05
1.40498e-05
1.47431e-05
1.50068e-05
1.59686e-05
1.5932e-05
1.71619e-05
1.66743e-05
1.78812e-05
1.813e-05
1.92622e-05
2.17115e-05
3.05198e-05
5.45158e-05
9.27914e-05
0.000216721
0.000472636
0.000940093
0.00241992
0.00443032
0.00771721
0.00847708
0.0126611
0.00501121
0.00297711
0.00215862
0.00172592
0.00149761
0.00133296
0.00120407
0.00110202
0.00101932
0.000951208
0.000891435
0.000841061
0.00079848
0.000761437
0.00072931
0.000699996
0.000674238
0.000649502
0.000627045
0.00060309
0.000580837
0.000555337
0.000535344
0.000513688
0.000496149
0.000478098
0.000452917
0.000412647
0.000385656
0.000352388
0.000329529
0.00028879
0.000220042
0.000186517
0.000133578
0.000552883
0.000500258
0.000446917
0.000373097
0.000319196
0.000261589
0.000139896
1.85623e-05
1.11702e-05
1.0208e-05
9.36204e-06
8.14827e-06
7.36826e-06
6.90319e-06
6.83369e-06
6.73045e-06
6.81946e-06
6.86637e-06
6.96861e-06
7.03522e-06
7.11222e-06
7.18056e-06
7.25581e-06
7.33482e-06
7.42089e-06
7.51789e-06
7.62245e-06
7.73813e-06
7.8666e-06
8.00339e-06
8.14668e-06
8.29262e-06
8.44401e-06
8.60802e-06
8.78431e-06
8.97164e-06
9.17731e-06
9.34077e-06
9.63479e-06
9.84345e-06
1.03717e-05
1.05865e-05
1.13568e-05
1.12744e-05
1.21215e-05
1.17559e-05
1.23612e-05
1.27665e-05
1.38019e-05
1.66902e-05
2.46065e-05
3.99338e-05
5.70166e-05
0.000113133
0.000295404
0.000559927
0.00131683
0.00220503
0.00514532
0.00792541
0.013522
0.00779374
0.00493101
0.00326393
0.00244414
0.00197643
0.00166255
0.00143725
0.00126908
0.00113914
0.00103636
0.000953387
0.000885815
0.000830325
0.000783342
0.000744029
0.000708128
0.000677715
0.000647553
0.000621495
0.000593638
0.000568704
0.000540399
0.000514375
0.000485081
0.000454839
0.000425263
0.000384563
0.000342523
0.000321335
0.000294833
0.000257903
0.000238131
0.000203091
0.000176761
0.000129349
0.00011023
7.70763e-05
6.02834e-05
5.46051e-05
4.83619e-05
4.8899e-05
4.88419e-05
5.32299e-05
5.74407e-05
7.02915e-05
7.53559e-05
8.22526e-05
8.22017e-05
8.21178e-05
7.63368e-05
7.30475e-05
6.85253e-05
6.61388e-05
6.38131e-05
6.27412e-05
6.21835e-05
6.22007e-05
6.24504e-05
6.28857e-05
6.34418e-05
6.40175e-05
6.4539e-05
6.50172e-05
6.54847e-05
6.59502e-05
6.64642e-05
6.68379e-05
6.7448e-05
6.75075e-05
6.83858e-05
6.80252e-05
6.94957e-05
6.86769e-05
7.12563e-05
7.02239e-05
7.46914e-05
7.33673e-05
7.92942e-05
7.73017e-05
7.74598e-05
7.04679e-05
5.81197e-05
5.19393e-05
5.0097e-05
7.30373e-05
8.85376e-05
0.000124879
0.000163172
0.000291205
0.000655773
0.000878263
0.00130965
0.00197157
0.00293884
0.00406141
0.00547916
0.00457225
0.00411213
0.00359519
0.00312517
0.00275717
0.00246574
0.00223272
0.00204231
0.0018801
0.00173613
0.00160506
0.00148259
0.00136726
0.00125464
0.00114281
0.00103073
0.000919949
0.000811584
0.000705984
0.00061033
0.000525423
0.000448214
0.000385401
0.000333097
0.000291893
0.000280251
0.000282262
0.000281284
0.000274377
0.000262692
0.0002423
0.000226325
0.000196936
0.000170665
0.000141105
0.000260691
0.000185595
0.000149412
0.000142527
0.000140544
0.000145973
0.000144509
0.000145637
0.000143818
0.000151438
0.000152112
0.000156048
0.000155817
0.000155228
0.000151586
0.000148955
0.000145949
0.000145066
0.000144137
0.000144477
0.000145237
0.000146538
0.000147862
0.00014917
0.000150439
0.000151672
0.000152829
0.000153883
0.000154841
0.00015572
0.000156591
0.000157351
0.000158238
0.000158735
0.000159594
0.000159598
0.000160674
0.000160109
0.000161739
0.000160751
0.000163444
0.000162301
0.000165795
0.000165689
0.000168035
0.000163827
0.000158088
0.000154646
0.000161446
0.000191259
0.000212546
0.000297796
0.00039987
0.000650436
0.0014756
0.00247724
0.0034916
0.00494538
0.00846755
0.00929407
0.00104224
0.00196696
0.0044941
0.00382538
0.00307693
0.00258032
0.00226047
0.00205246
0.00189041
0.00177145
0.00168314
0.00161466
0.00154047
0.00145761
0.00135888
0.00124597
0.00112668
0.00100747
0.00088286
0.000773668
0.000702377
0.000634325
0.000582129
0.000578567
0.000588676
0.000624393
0.000624257
0.000588875
0.000515507
0.00044695
0.000403081
0.000365243
0.000341654
0.00028558
0.000225433
0.000151772
0.000361096
0.000256332
0.000213254
0.000196363
0.000190274
0.00018903
0.000175533
0.000171578
0.000168451
0.000170287
0.000169544
0.000167944
0.000167532
0.000165616
0.000164097
0.000162534
0.00016234
0.00016388
0.000165898
0.000168418
0.000171
0.000173509
0.000175602
0.00017735
0.000178844
0.000180214
0.000181496
0.000182658
0.000183669
0.000184537
0.000185303
0.00018602
0.000186747
0.000187373
0.000187967
0.00018812
0.000188415
0.000187891
0.000187813
0.000186847
0.00018685
0.000186844
0.000187882
0.000191912
0.000196319
0.000204829
0.000211303
0.000220673
0.00023772
0.000249951
0.000272508
0.00039391
0.000540485
0.000806382
0.00177306
0.0030135
0.00353335
0.00527526
0.00672361
0.00565326
0.00104235
0.00252515
0.00515326
0.00363917
0.00256476
0.00208541
0.00185483
0.00179378
0.0018276
0.00190512
0.00194789
0.00193005
0.00187572
0.00177762
0.00162452
0.00144808
0.00132913
0.00122156
0.0010565
0.000968197
0.000980755
0.00106285
0.00112688
0.00109943
0.000978592
0.000831196
0.000695594
0.000553116
0.000451361
0.000379732
0.000366801
0.000362646
0.000363614
0.000356959
0.000310281
0.000184011
0.000548791
0.000366087
0.000295611
0.000239768
0.000214732
0.000207091
0.000184639
0.000176924
0.000177605
0.000178826
0.000180651
0.000174265
0.00017337
0.000169854
0.000168692
0.000167074
0.000168431
0.000171168
0.000175006
0.000178991
0.000182846
0.000186079
0.000188639
0.000190699
0.000192408
0.000193919
0.000195298
0.000196534
0.000197602
0.00019849
0.000199225
0.000199901
0.000200575
0.000201214
0.000201699
0.000201853
0.000201732
0.000201097
0.000200108
0.000199111
0.000197973
0.000199049
0.000199726
0.000207978
0.000213896
0.000228578
0.000235062
0.000250149
0.000258777
0.000283973
0.000316805
0.000456162
0.000681158
0.00104747
0.002283
0.00403987
0.00474868
0.00672179
0.00541235
0.00315011
0.00124857
0.00226815
0.0027997
0.00189977
0.00157391
0.00152588
0.00155362
0.00166866
0.00182507
0.00191024
0.00189859
0.00181463
0.00171308
0.00164654
0.00158893
0.00148274
0.00142256
0.00141792
0.00153257
0.00170923
0.0017343
0.00156861
0.00136955
0.00112598
0.000908355
0.000702671
0.000546445
0.000441024
0.000368542
0.000326436
0.000307698
0.00031626
0.000349587
0.000350226
0.00030668
0.000193132
0.000807067
0.000520839
0.0004159
0.00031174
0.00026236
0.000242662
0.000202175
0.000190193
0.00019049
0.00019008
0.00019078
0.000180067
0.000178126
0.000172172
0.000170963
0.00016893
0.000170845
0.000173993
0.000178937
0.000184028
0.000188829
0.000192609
0.000195601
0.000197983
0.000199924
0.000201535
0.000202907
0.000204101
0.000205142
0.000206019
0.000206732
0.000207391
0.000207971
0.000208668
0.000209028
0.000209365
0.000208891
0.00020851
0.000206949
0.000206563
0.000204979
0.000207718
0.000209338
0.000219515
0.00022794
0.000242082
0.000248918
0.000264412
0.000268902
0.000314751
0.000355367
0.000485517
0.000807805
0.00154502
0.00377916
0.00667722
0.00991537
0.0109682
0.00330699
0.00198936
0.00204369
0.00222
0.00260057
0.00202743
0.0020846
0.00172266
0.00173766
0.00173532
0.00177027
0.00174624
0.00167994
0.00162621
0.0016614
0.00174138
0.00182181
0.00196391
0.00226187
0.00241625
0.00244754
0.00223557
0.0019266
0.00161371
0.0013909
0.00117804
0.000999086
0.000827378
0.000743932
0.000617388
0.000427082
0.000289826
0.000270949
0.000290685
0.00032135
0.000320165
0.000283552
0.000190839
0.00113857
0.000669186
0.000535951
0.000396146
0.000337338
0.000317621
0.000253468
0.000218138
0.00020133
0.000195803
0.000193879
0.000181086
0.0001785
0.000168265
0.000166928
0.00016284
0.000166926
0.000171476
0.000178591
0.000184547
0.000189926
0.000194072
0.000197375
0.000199937
0.000201954
0.000203573
0.000204906
0.000206044
0.000207029
0.000207856
0.00020851
0.000209112
0.000209604
0.000210303
0.00021054
0.000210965
0.000210221
0.000210001
0.000207991
0.000207937
0.000205875
0.000209445
0.000211489
0.000222602
0.000233042
0.000246753
0.00025513
0.000269228
0.000272516
0.000330077
0.000395103
0.000545944
0.00107711
0.00240949
0.00583692
0.00991902
0.0108289
0.0103749
0.00165018
0.00155545
0.00325515
0.00279281
0.00303421
0.00289861
0.00309907
0.00308953
0.00309287
0.00275386
0.00255993
0.00247958
0.00246248
0.00263377
0.00287968
0.0030753
0.00317646
0.00322675
0.00307405
0.00282538
0.00253574
0.00227068
0.00207196
0.00194754
0.00183089
0.00173928
0.00167124
0.00156029
0.00140912
0.00116929
0.000851927
0.000528039
0.000388303
0.000349968
0.000347167
0.000303851
0.000248007
0.000180439
0.00120769
0.000739356
0.000638618
0.000464602
0.000382216
0.000356981
0.000302184
0.00025748
0.000218692
0.000199885
0.000192288
0.000171631
0.000166301
0.000150676
0.000147991
0.000141886
0.000146277
0.00015033
0.000158142
0.000165249
0.00017229
0.000177801
0.000182256
0.000185514
0.000187853
0.000189495
0.000190642
0.000191503
0.000192117
0.00019252
0.000192645
0.00019263
0.000192407
0.000192919
0.00019236
0.000193168
0.000190899
0.000191699
0.00018732
0.000188992
0.000184753
0.00019106
0.000194061
0.000207401
0.000224959
0.000235466
0.000246134
0.000251033
0.000247122
0.000328369
0.000414534
0.000694741
0.00169563
0.00337406
0.00590727
0.00868023
0.0101292
0.0100091
0.00191926
0.00191272
0.00391784
0.00306611
0.00314464
0.00307815
0.00331658
0.00340201
0.00344763
0.00345213
0.00339693
0.00333313
0.00322142
0.0031428
0.00304126
0.0029243
0.00272269
0.00253539
0.00228998
0.00211273
0.00194936
0.00185005
0.00175476
0.00170804
0.00168096
0.00168197
0.00182308
0.00188611
0.00201046
0.00206048
0.00201677
0.00175242
0.00139025
0.00108666
0.000914778
0.000629502
0.000309401
0.000180836
0.00112414
0.000860304
0.000712467
0.000547796
0.000410839
0.000364998
0.000316996
0.000274844
0.000229632
0.000201636
0.000184397
0.00015874
0.000149233
0.000127082
0.00012342
0.000114479
0.000121882
0.000127126
0.00013645
0.000143749
0.000150801
0.000155947
0.00015997
0.000162797
0.000164742
0.000166041
0.000166787
0.000167069
0.000167061
0.000166903
0.000166491
0.000165878
0.000164722
0.000163886
0.000162138
0.00016216
0.000158828
0.000159394
0.000154186
0.000155468
0.000150683
0.000154703
0.00015567
0.000165019
0.000179201
0.000188335
0.000201608
0.000193989
0.000182094
0.00024842
0.000396592
0.000825753
0.00250531
0.00527486
0.00785109
0.00864155
0.00940617
0.00967437
0.00228764
0.00228619
0.0041882
0.00312269
0.00297961
0.00267154
0.0025804
0.00245923
0.00239175
0.00236986
0.00236949
0.00241575
0.00244123
0.00249837
0.0025504
0.00261912
0.00267773
0.00270496
0.00271547
0.00268551
0.00257768
0.0024717
0.00233806
0.00221138
0.00205925
0.00193096
0.00184205
0.00175307
0.00170028
0.00166788
0.00161812
0.00150894
0.00135364
0.00121191
0.0010095
0.000831801
0.000697229
0.00063884
0.000859064
0.000996968
0.00072253
0.000573222
0.000417161
0.000327198
0.000273968
0.000250701
0.000230705
0.000200237
0.000174364
0.000138082
0.00012277
9.34236e-05
8.32035e-05
7.53036e-05
7.84276e-05
8.10829e-05
8.69111e-05
9.17414e-05
9.65544e-05
0.000100255
0.000103773
0.000106171
0.000107755
0.000108709
0.000109213
0.000109413
0.000109452
0.000109405
0.000109186
0.000108856
0.000108107
0.000107856
0.000106676
0.000107537
0.000104943
0.000107255
0.000102964
0.000107038
0.000102612
0.000109146
0.000107603
0.000117204
0.000124103
0.000133454
0.00014543
0.000133983
0.000118883
0.000153103
0.000243957
0.000398788
0.00100807
0.00305669
0.00630065
0.00855767
0.00889823
0.00903026
0.00140855
0.0013718
0.00347786
0.00319725
0.00369977
0.0036171
0.00375062
0.0037156
0.00371275
0.0035956
0.00351843
0.00343469
0.0033455
0.00328396
0.00320162
0.00308443
0.00297735
0.00283639
0.00264259
0.00242753
0.00223599
0.00209584
0.00197017
0.00190119
0.00189762
0.00198485
0.00205252
0.00197185
0.00170836
0.00143305
0.00131068
0.0011401
0.000822847
0.000693679
0.000619958
0.000459526
0.000221985
0.000124491
0.000791297
0.00103781
0.000640218
0.000525919
0.000424954
0.00030258
0.000230248
0.000208197
0.00018618
0.000163082
0.000145455
0.000120086
0.000100211
7.61267e-05
6.54041e-05
5.95073e-05
6.06641e-05
6.18496e-05
6.50091e-05
6.77037e-05
7.04825e-05
7.25369e-05
7.43634e-05
7.60509e-05
7.74657e-05
7.85973e-05
7.94321e-05
7.99889e-05
8.0286e-05
8.04638e-05
8.04183e-05
8.01813e-05
7.96466e-05
7.92483e-05
7.85733e-05
7.90461e-05
7.78597e-05
7.91215e-05
7.70587e-05
7.94474e-05
7.66761e-05
7.97512e-05
7.75264e-05
8.10222e-05
8.19034e-05
8.69951e-05
9.80357e-05
8.98327e-05
8.90422e-05
0.000111332
0.000169807
0.000269257
0.000506202
0.00123215
0.00337125
0.00670669
0.00895517
0.00979684
0.00210828
0.00156169
0.00201898
0.0026361
0.00281481
0.00235398
0.00258997
0.00256609
0.00292051
0.00302484
0.00306116
0.00298148
0.00287253
0.00262914
0.00237715
0.00208997
0.00181522
0.00155217
0.00133972
0.00119723
0.00110459
0.00103951
0.000982983
0.000946632
0.000931543
0.000935193
0.000934612
0.000911146
0.000808253
0.000660865
0.000533802
0.000402454
0.000286718
0.00020604
0.000171285
0.000157069
0.000148026
0.000121791
0.00140322
0.00111156
0.000351881
0.000315652