/*--------------------------------*- C++ -*----------------------------------*\
| =========                 |                                                 |
| \\      /  F ield         | OpenFOAM: The Open Source CFD Toolbox           |
|  \\    /   O peration     | Version:  2.3.0                                 |
|   \\  /    A nd           | Web:      www.OpenFOAM.org                      |
|    \\/     M anipulation  |                                                 |
\*---------------------------------------------------------------------------*/
FoamFile
{
    version     2.0;
    format      ascii;
    class       surfaceScalarField;
    location    "22";
    object      phi;
}
// * * * * * * * * * * * * * * * * * * * * * * * * * * * * * * * * * * * * * //

dimensions      [0 3 -1 0 0 0 0];

internalField   nonuniform List<scalar> 
16448
(
-9.35005e-07
-2.19969e-06
6.85476e-07
4.24877e-07
-2.18246e-06
8.22579e-07
7.62956e-07
-1.3556e-06
1.01752e-06
9.80261e-07
-1.19952e-06
9.82209e-07
8.78729e-07
-7.44602e-07
8.46131e-07
7.70092e-07
-6.03567e-07
7.12201e-07
5.48316e-07
-3.15645e-07
5.37417e-07
3.23327e-07
-2.47992e-07
4.72978e-07
5.70415e-08
-1.8578e-07
4.52062e-07
-1.88081e-07
-1.68353e-07
4.13472e-07
-3.67063e-07
-1.97689e-07
3.76667e-07
-4.20377e-07
-2.61468e-07
3.14778e-07
-3.96004e-07
-3.20534e-07
2.96156e-07
-3.02478e-07
-3.73231e-07
2.79701e-07
-2.16625e-07
-4.01983e-07
3.16126e-07
-1.30269e-07
-4.27976e-07
3.41616e-07
-7.77344e-08
-4.38402e-07
3.85865e-07
-3.69667e-08
-4.51808e-07
4.11038e-07
-1.38168e-08
-4.61592e-07
4.38442e-07
8.22178e-10
-4.67087e-07
4.52448e-07
7.74962e-09
-4.68727e-07
4.61801e-07
9.5091e-09
-4.66397e-07
4.6464e-07
7.8504e-09
-4.6226e-07
4.63924e-07
4.25983e-09
-4.5659e-07
4.60185e-07
-2.51102e-10
-4.49916e-07
4.54434e-07
-5.13631e-09
-4.42625e-07
4.47518e-07
-1.04164e-08
-4.34748e-07
4.40038e-07
-1.66241e-08
-4.26121e-07
4.32339e-07
-2.40732e-08
-4.16722e-07
4.24183e-07
-3.17277e-08
-4.07703e-07
4.15371e-07
-3.7785e-08
-3.98731e-07
4.04803e-07
-4.01443e-08
-3.88535e-07
3.9091e-07
-3.47854e-08
-3.77428e-07
3.72086e-07
-1.57285e-08
-3.66192e-07
3.47153e-07
2.43833e-08
-3.55886e-07
3.15793e-07
9.30143e-08
-3.48082e-07
2.79472e-07
1.9497e-07
-3.43857e-07
2.41921e-07
3.25425e-07
-3.4341e-07
2.12976e-07
4.73558e-07
-3.46348e-07
1.98234e-07
6.18154e-07
-3.50878e-07
2.06304e-07
7.19619e-07
-3.51992e-07
2.50544e-07
7.32028e-07
-3.60322e-07
3.47936e-07
6.02747e-07
-3.74378e-07
5.03674e-07
3.74058e-07
-3.89658e-07
6.18368e-07
2.73624e-07
-5.29526e-07
6.29973e-07
6.53061e-07
-9.47505e-07
5.68088e-07
1.42002e-06
-1.20862e-06
4.41671e-07
1.72054e-06
-7.51148e-07
4.50633e-07
7.37344e-07
-6.13761e-09
9.89339e-07
-2.51439e-06
1.08576e-06
2.16598e-06
-4.11545e-06
-1.38055e-06
2.98161e-06
7.80093e-07
-9.23257e-06
4.33702e-06
7.36292e-06
-1.22974e-05
5.71454e-06
1.2617e-05
-1.29961e-05
7.74197e-06
1.52877e-05
-1.10636e-05
8.39279e-06
1.87077e-05
-1.07141e-05
7.29406e-06
1.37116e-05
-3.21601e-06
8.21196e-06
1.26315e-05
-1.37578e-06
2.45565e-06
-1.04181e-05
1.15263e-05
1.15229e-05
5.56429e-07
-6.64334e-06
-4.33145e-06
2.85526e-05
-3.12585e-05
3.26225e-06
3.60639e-05
-1.57595e-05
8.2483e-06
3.33222e-05
-6.86518e-06
9.60688e-06
3.35973e-05
-7.32092e-06
7.04582e-06
3.40578e-05
-6.08844e-06
5.62788e-06
3.45573e-05
-4.94693e-06
4.44742e-06
3.54675e-05
-4.0064e-06
3.09623e-06
3.64022e-05
-3.06388e-06
2.12914e-06
3.78445e-05
-2.59912e-06
1.15682e-06
3.91494e-05
-2.14712e-06
8.42215e-07
4.00558e-05
-1.61072e-06
7.04339e-07
4.03779e-05
-1.267e-06
9.44893e-07
4.00006e-05
-1.1383e-06
1.51563e-06
3.93453e-05
-1.46998e-06
2.12528e-06
3.86299e-05
-2.5406e-06
3.25595e-06
3.70141e-05
-2.90168e-06
4.51746e-06
3.45757e-05
-2.25465e-06
4.69314e-06
3.21209e-05
-2.13538e-06
4.5901e-06
2.95551e-05
-1.54469e-06
4.11051e-06
2.68654e-05
-1.22725e-06
3.91697e-06
2.43439e-05
-1.43034e-06
3.95184e-06
2.12618e-05
-1.93228e-09
3.08402e-06
1.3947e-05
4.73528e-06
2.57955e-06
4.91327e-06
6.95021e-06
2.08347e-06
-2.71674e-06
5.78802e-06
1.84199e-06
-6.10249e-06
4.07026e-06
-6.84503e-07
-7.20279e-06
2.73945e-06
-1.63916e-06
-8.34118e-06
2.38062e-06
-1.24223e-06
-7.969e-06
2.45145e-06
-2.82364e-06
-6.56079e-06
1.43984e-06
-2.84804e-06
-5.27351e-06
-3.78932e-07
-9.08349e-07
-4.9757e-06
-1.31375e-06
1.01594e-06
-4.86718e-06
-1.8725e-06
1.76398e-06
-4.33358e-06
-2.63188e-06
2.09828e-06
-3.13919e-06
-3.49079e-06
2.2964e-06
-4.70867e-06
1.56948e-06
-2.08503e-06
-3.40544e-06
1.38028e-08
-9.72578e-07
-3.35302e-06
5.81119e-08
-4.89768e-07
-2.27849e-06
4.40076e-07
6.4284e-08
-2.0451e-06
2.91529e-07
3.96096e-07
-1.25055e-06
1.74131e-07
5.65206e-07
-8.4685e-07
7.417e-08
4.69039e-07
-2.06253e-07
-1.32292e-08
2.09941e-07
-2.81395e-08
3.92407e-08
-1.24081e-07
7.46589e-08
7.35779e-08
-3.84144e-07
1.96642e-08
7.20397e-08
-5.56723e-07
-6.51966e-08
4.00806e-08
-6.03928e-07
-1.91359e-07
-2.29098e-08
-5.78593e-07
-2.92998e-07
-5.28777e-08
-4.84496e-07
-3.8913e-07
-7.82039e-08
-3.7868e-07
-4.42381e-07
-6.54237e-08
-2.65919e-07
-4.88409e-07
-5.23324e-08
-1.87877e-07
-4.97069e-07
-1.93765e-08
-1.23821e-07
-5.15074e-07
-7.90476e-10
-8.45961e-08
-5.167e-07
1.58839e-08
-5.59946e-08
-5.19357e-07
2.36721e-08
-4.10556e-08
-5.1308e-07
2.94198e-08
-3.29165e-08
-5.0517e-07
3.06412e-08
-3.08603e-08
-4.94154e-07
2.98472e-08
-3.21509e-08
-4.82131e-07
2.68445e-08
-3.56935e-08
-4.69205e-07
2.28467e-08
-4.04027e-08
-4.56086e-07
1.81873e-08
-4.58199e-08
-4.42523e-07
1.32117e-08
-5.19529e-08
-4.28102e-07
8.1358e-09
-5.90058e-08
-4.12704e-07
3.05934e-09
-6.51585e-08
-3.97176e-07
-4.34772e-09
-6.74286e-08
-3.81456e-07
-1.49764e-08
-6.33341e-08
-3.65114e-07
-2.7485e-08
-4.84408e-08
-3.49081e-07
-4.32082e-08
-1.69776e-08
-3.34989e-07
-6.2632e-08
3.66881e-08
-3.24831e-07
-8.46862e-08
1.17185e-07
-3.21218e-07
-1.07326e-07
2.25671e-07
-3.24607e-07
-1.27699e-07
3.56801e-07
-3.33873e-07
-1.4063e-07
4.9942e-07
-3.4831e-07
-1.40621e-07
6.31649e-07
-3.64275e-07
-1.18798e-07
7.13719e-07
-3.72201e-07
-6.18254e-08
6.98205e-07
-3.79396e-07
3.4619e-08
5.92363e-07
-4.15095e-07
1.4659e-07
5.01947e-07
-5.00833e-07
2.01619e-07
7.34576e-07
-8.68645e-07
1.06515e-07
1.5711e-06
-1.622e-06
-1.6201e-07
2.76602e-06
-2.01233e-06
-3.91193e-07
3.39399e-06
-1.03598e-06
-3.43128e-07
1.85222e-06
9.0225e-07
6.33386e-07
-6.36514e-07
1.787e-06
1.78748e-06
2.99611e-06
-6.89306e-06
1.87987e-06
8.23802e-06
-1.62241e-05
1.74958e-06
9.85957e-06
-1.81482e-05
4.22923e-06
1.03444e-05
-2.02611e-05
6.78014e-06
1.27338e-05
-1.90064e-05
5.55332e-06
1.83582e-05
-1.95545e-05
3.21594e-06
1.66988e-05
-4.77899e-06
3.2222e-06
1.89875e-05
-2.90474e-06
-7.59945e-07
-5.26331e-06
1.72834e-05
1.84932e-05
1.47775e-06
-9.73026e-06
-3.65455e-06
1.56271e-05
-4.20825e-05
-3.32544e-06
1.30785e-05
-1.8226e-05
5.01495e-06
1.01073e-05
-8.57959e-06
4.68566e-06
9.53758e-06
-7.14838e-06
3.97154e-07
9.62553e-06
-4.12369e-06
-2.0527e-06
1.30285e-05
-3.59922e-06
-4.75069e-06
1.7489e-05
-2.31929e-06
-6.14759e-06
2.15635e-05
-2.47753e-07
-6.89061e-06
2.5677e-05
7.15391e-08
-6.7842e-06
2.89504e-05
4.97239e-07
-5.91775e-06
3.13881e-05
7.13388e-07
-4.76182e-06
3.27432e-05
8.16406e-07
-3.43852e-06
3.25897e-05
6.14145e-07
-1.59891e-06
2.98209e-05
1.65275e-07
1.1335e-06
2.37879e-05
-1.33662e-06
4.82903e-06
1.68975e-05
-2.03455e-06
6.02325e-06
1.28544e-05
-2.57755e-06
4.366e-06
1.1187e-05
-3.23458e-06
2.76668e-06
1.01114e-05
-2.30181e-06
1.83269e-06
9.41143e-06
-2.5186e-06
1.9913e-06
8.95508e-06
-3.12189e-06
2.1479e-06
7.8428e-06
7.94061e-08
1.03094e-06
5.53948e-06
5.86561e-06
1.17299e-06
7.63261e-07
9.88919e-06
1.83724e-06
-3.94913e-06
8.71245e-06
1.78797e-06
-5.88881e-06
6.4022e-06
-3.92265e-07
-6.69931e-06
5.66262e-06
-2.11267e-06
-7.93741e-06
4.92959e-06
-1.31086e-06
-7.71994e-06
4.63114e-06
-2.39716e-06
-5.78141e-06
2.38935e-06
-2.88805e-06
-4.47587e-06
-3.44654e-07
-1.33981e-06
-4.40254e-06
-2.05397e-06
6.66897e-07
-4.36149e-06
-3.41473e-06
1.50117e-06
-3.97423e-06
-4.73715e-06
1.71801e-06
-3.20708e-06
-5.53654e-06
1.2786e-06
-7.32751e-06
-5.88242e-07
-2.81368e-06
-4.05139e-06
-3.16064e-07
-1.83501e-06
-3.94732e-06
-3.84369e-07
-1.52261e-06
-2.7973e-06
2.06411e-07
-9.57717e-07
-2.68816e-06
7.81684e-08
-4.13059e-07
-1.81411e-06
1.89075e-08
-2.00843e-08
-1.15636e-06
-8.34649e-08
1.13037e-07
-1.02412e-07
-2.36966e-07
-5.05198e-08
2.8888e-07
-1.53467e-07
-3.02249e-07
4.65396e-07
-1.39014e-07
-4.7699e-07
3.20066e-07
-1.25666e-07
-5.86988e-07
1.9059e-07
-1.45795e-07
-6.37394e-07
5.07638e-08
-1.91724e-07
-6.39395e-07
-6.01365e-08
-2.30867e-07
-5.93878e-07
-1.72649e-07
-2.62005e-07
-5.09421e-07
-2.54259e-07
-2.72584e-07
-4.06082e-07
-3.15842e-07
-2.7591e-07
-3.18222e-07
-3.2383e-07
-2.61101e-07
-2.37015e-07
-3.43136e-07
-2.53146e-07
-1.82046e-07
-3.31231e-07
-2.40436e-07
-1.39533e-07
-3.27217e-07
-2.3465e-07
-1.13295e-07
-3.10819e-07
-2.28493e-07
-9.6959e-08
-2.95564e-07
-2.25935e-07
-8.96908e-08
-2.76663e-07
-2.24749e-07
-8.81381e-08
-2.58114e-07
-2.25558e-07
-9.06627e-08
-2.39565e-07
-2.27101e-07
-9.52581e-08
-2.21916e-07
-2.29558e-07
-1.00168e-07
-2.04889e-07
-2.32704e-07
-1.03611e-07
-1.88112e-07
-2.36526e-07
-1.03818e-07
-1.71279e-07
-2.41195e-07
-9.97136e-08
-1.54381e-07
-2.46874e-07
-9.00192e-08
-1.37541e-07
-2.53581e-07
-7.27427e-08
-1.21193e-07
-2.61167e-07
-4.61154e-08
-1.06432e-07
-2.69244e-07
-8.8959e-09
-9.5241e-08
-2.76934e-07
3.88598e-08
-8.92098e-08
-2.83342e-07
9.60086e-08
-9.02197e-08
-2.8811e-07
1.58768e-07
-9.84934e-08
-2.88836e-07
2.20335e-07
-1.11864e-07
-2.83538e-07
2.70152e-07
-1.28719e-07
-2.69371e-07
2.92238e-07
-1.48142e-07
-2.3818e-07
2.79783e-07
-1.74143e-07
-1.85569e-07
2.27507e-07
-2.16016e-07
-1.11067e-07
1.8397e-07
-3.42945e-07
-2.85836e-08
3.23558e-07
-5.92123e-07
-4.82654e-08
8.20675e-07
-1.12724e-06
-2.38497e-07
1.66381e-06
-1.93834e-06
-5.26781e-07
2.39711e-06
-2.17737e-06
-5.6825e-07
1.85697e-06
-3.63339e-07
-1.32489e-07
4.08774e-07
1.62137e-06
7.29076e-07
1.92545e-06
-4.99914e-07
7.70243e-07
6.10978e-06
-1.28331e-05
1.75572e-06
5.67204e-06
-1.96411e-05
3.85475e-06
4.23452e-07
-2.05697e-05
7.67e-06
-3.82564e-06
-2.34944e-05
7.48241e-06
1.64152e-06
-2.70912e-05
2.6175e-06
6.23381e-06
-2.49167e-05
7.69756e-07
1.10687e-05
-7.58619e-06
-2.0278e-06
2.31646e-05
-1.16109e-05
-3.39e-06
-1.64496e-06
1.78556e-05
2.42364e-05
1.61993e-06
-1.1479e-05
-1.51657e-06
3.94495e-06
-3.99056e-05
-4.50195e-06
-3.04771e-06
-9.82185e-06
-1.41146e-06
1.37588e-06
-7.01626e-06
-5.98691e-06
-2.86471e-06
1.03221e-06
-3.94001e-06
7.94655e-07
-9.52489e-08
-7.6878e-06
4.57715e-06
-3.48181e-07
-7.03353e-06
1.0379e-05
-1.8623e-06
-6.25884e-06
1.60648e-05
-1.54154e-06
-4.392e-06
2.08395e-05
-2.78009e-06
-1.92305e-06
2.37138e-05
-2.49686e-06
1.1975e-07
2.47517e-05
-2.19255e-06
1.86804e-06
2.41609e-05
-1.86434e-06
3.27159e-06
2.1368e-05
-1.58356e-06
4.99058e-06
1.58754e-05
-1.50768e-06
7.16551e-06
1.08052e-05
-2.74267e-06
6.47631e-06
9.18323e-06
-4.07989e-06
3.66727e-06
9.56756e-06
-4.83073e-06
1.86886e-06
1.10119e-05
-4.47168e-06
-2.07213e-07
1.18673e-05
-1.84783e-06
-1.30942e-06
1.0377e-05
-2.94491e-07
-7.33826e-07
6.44664e-06
-4.99913e-07
1.3084e-06
3.04694e-06
1.98982e-06
1.48929e-06
8.85475e-09
8.98573e-06
-8.20315e-08
-2.76651e-06
1.24552e-05
2.09395e-07
-5.39578e-06
1.02439e-05
1.09779e-06
-7.21225e-06
8.92783e-06
-7.09166e-07
-8.62003e-06
9.3808e-06
-2.31039e-06
-1.01963e-05
7.22946e-06
-7.23589e-07
-9.57522e-06
5.69656e-06
-1.68651e-06
-7.97149e-06
2.60453e-06
-1.81891e-06
-6.79981e-06
-4.7116e-07
-1.04518e-06
-6.02182e-06
-2.69436e-06
-1.37599e-07
-5.44842e-06
-4.56955e-06
5.81433e-07
-4.21812e-06
-5.80432e-06
-1.63131e-07
-2.908e-06
-6.26941e-06
-5.77251e-07
-8.18689e-06
-2.04862e-06
-3.25382e-06
-4.3801e-06
-4.84695e-07
-1.98907e-06
-4.34954e-06
-8.62521e-07
-1.91431e-06
-2.99837e-06
1.26317e-07
-1.51415e-06
-3.10131e-06
1.29851e-08
-1.04161e-06
-2.44313e-06
1.56482e-07
-4.21415e-07
-1.88193e-06
1.05368e-07
1.68341e-08
-4.66785e-07
-7.38804e-08
4.73127e-08
2.86494e-07
-2.80984e-08
-1.59808e-07
7.93524e-07
-1.21014e-07
-3.55052e-07
6.70414e-07
-1.55112e-07
-4.62757e-07
5.04432e-07
-2.06146e-07
-5.75056e-07
4.03752e-07
-2.40696e-07
-6.30567e-07
2.82693e-07
-2.87327e-07
-6.36616e-07
1.52615e-07
-3.19221e-07
-5.76676e-07
2.81073e-08
-3.42313e-07
-4.87955e-07
-4.78315e-08
-3.56736e-07
-3.9419e-07
-5.93149e-08
-3.58284e-07
-3.05304e-07
-7.06049e-08
-3.61417e-07
-2.36596e-07
-4.43544e-08
-3.55583e-07
-1.81513e-07
-2.91038e-08
-3.53193e-07
-1.453e-07
6.99077e-10
-3.47727e-07
-1.21176e-07
2.3422e-08
-3.43102e-07
-1.08728e-07
4.96998e-08
-3.38802e-07
-1.04711e-07
7.4241e-08
-3.36358e-07
-1.06117e-07
9.72251e-08
-3.35369e-07
-1.1026e-07
1.18107e-07
-3.35861e-07
-1.148e-07
1.37251e-07
-3.3758e-07
-1.1731e-07
1.5488e-07
-3.40457e-07
-1.15733e-07
1.71464e-07
-3.44294e-07
-1.08478e-07
1.87225e-07
-3.48832e-07
-9.47245e-08
2.02498e-07
-3.53761e-07
-7.45551e-08
2.17362e-07
-3.58692e-07
-4.9673e-08
2.30908e-07
-3.62186e-07
-2.24508e-08
2.40868e-07
-3.63295e-07
4.20734e-09
2.45208e-07
-3.61035e-07
2.66356e-08
2.42597e-07
-3.55206e-07
4.04609e-08
2.33579e-07
-3.45854e-07
3.62649e-08
2.23192e-07
-3.30821e-07
-1.38961e-09
2.15378e-07
-3.06398e-07
-8.66874e-08
2.03416e-07
-2.66224e-07
-2.06301e-07
1.54396e-07
-2.0888e-07
-2.97456e-07
1.98085e-08
-1.44637e-07
-2.94552e-07
-2.523e-07
-9.35066e-08
-1.17225e-07
-6.34766e-07
-1.34658e-07
2.19488e-07
-1.1564e-06
-3.07525e-07
3.39154e-07
-1.63456e-06
-4.23429e-07
1.31566e-07
-1.57536e-06
-3.94394e-07
1.26569e-07
-7.06525e-08
-2.87685e-07
3.06611e-07
1.37205e-06
6.92877e-08
3.24611e-06
-3.72771e-06
2.8829e-07
1.8609e-06
-1.41913e-05
2.7434e-06
-8.92307e-06
-1.67477e-05
7.89056e-06
-1.61105e-05
-2.08385e-05
7.45624e-06
-1.60992e-05
-2.6475e-05
2.96922e-06
-1.26266e-05
-2.94774e-05
-1.08633e-06
-8.96907e-06
-2.48364e-05
-3.73788e-06
1.02025e-05
-2.0083e-05
-6.67473e-06
2.86241e-05
-2.92076e-05
-8.25265e-07
9.63461e-07
2.19291e-05
2.35859e-05
-1.70363e-07
-1.13811e-05
1.03584e-06
-3.05808e-06
-3.56611e-05
-1.35679e-06
-9.44543e-06
-4.29744e-06
8.62952e-07
-7.29868e-06
-5.68822e-06
-3.47478e-06
-7.23141e-06
4.1304e-06
-3.16546e-06
-2.31392e-06
3.7771e-07
-5.39044e-06
8.54099e-07
-3.41248e-08
-3.48208e-06
4.89824e-06
-3.77073e-06
-2.13571e-06
8.21791e-06
-4.76961e-06
-9.15896e-08
9.28073e-06
-5.12529e-06
1.28238e-06
9.23373e-06
-4.36002e-06
1.91016e-06
7.19289e-06
-2.71074e-06
2.55902e-06
3.77733e-06
-1.86194e-06
3.41317e-06
2.04654e-07
-2.06758e-06
4.0567e-06
-2.1384e-06
-2.9835e-06
3.81887e-06
-2.88213e-06
-3.63664e-06
1.6377e-06
-1.21811e-06
-3.58013e-06
-2.16379e-06
2.1966e-06
-3.42726e-06
-4.81818e-06
4.85995e-06
-2.45117e-06
-4.68386e-06
3.09601e-06
2.01276e-07
-2.85166e-07
-2.40333e-06
1.54839e-06
3.65647e-06
-6.83925e-06
1.73353e-06
2.20247e-06
-9.19449e-06
3.17105e-06
1.17402e-06
-9.80932e-06
8.74475e-06
8.55808e-07
-9.88469e-06
1.12343e-05
1.29619e-06
-1.1485e-05
1.14839e-05
3.6036e-07
-1.29681e-05
1.14932e-05
-1.08226e-06
-1.27273e-05
9.97991e-06
-8.3989e-07
-1.34968e-05
7.40022e-06
5.98738e-07
-1.28892e-05
4.73632e-06
3.52647e-07
-1.15966e-05
1.35124e-06
-3.9329e-08
-1.01392e-05
-7.91774e-07
-1.13684e-06
-8.08173e-06
-3.30788e-06
-1.44391e-06
-5.67605e-06
-5.18439e-06
-1.79084e-06
-3.88576e-06
-5.74717e-06
-1.84744e-06
-2.65942e-06
-6.48689e-06
-1.00885e-06
-8.53267e-06
-2.31364e-06
-3.5772e-06
-4.52127e-06
-5.07634e-07
-2.15706e-06
-4.64161e-06
-1.12808e-06
-2.1604e-06
-3.03299e-06
3.79598e-08
-1.76248e-06
-3.22109e-06
-2.78142e-07
-1.46817e-06
-2.76868e-06
3.12478e-08
-8.83611e-07
-2.56843e-06
1.01942e-07
-2.6899e-07
-1.32837e-06
2.46958e-07
3.94333e-08
-1.9792e-07
1.75984e-07
7.65777e-08
7.49304e-07
7.06717e-09
-1.017e-07
9.39614e-07
-9.09314e-08
-2.60792e-07
8.2528e-07
-1.61765e-07
-4.66084e-07
7.92284e-07
-1.8325e-07
-5.9468e-07
6.44723e-07
-2.33442e-07
-6.53444e-07
4.80669e-07
-2.69299e-07
-6.12271e-07
2.94586e-07
-3.07656e-07
-5.30016e-07
2.01256e-07
-3.31349e-07
-4.32428e-07
1.89395e-07
-3.463e-07
-3.43966e-07
1.98009e-07
-3.57079e-07
-2.70259e-07
2.43379e-07
-3.61438e-07
-2.0846e-07
2.7433e-07
-3.65231e-07
-1.61229e-07
3.1631e-07
-3.62834e-07
-1.29034e-07
3.51383e-07
-3.60149e-07
-1.09881e-07
3.86431e-07
-3.55872e-07
-1.00644e-07
4.16916e-07
-3.51899e-07
-9.80971e-08
4.43446e-07
-3.4875e-07
-9.91199e-08
4.65918e-07
-3.46769e-07
-1.00974e-07
4.84999e-07
-3.4587e-07
-1.01019e-07
5.0102e-07
-3.46071e-07
-9.70739e-08
5.14652e-07
-3.47104e-07
-8.78845e-08
5.26424e-07
-3.48358e-07
-7.36821e-08
5.37282e-07
-3.48954e-07
-5.6863e-08
5.48129e-07
-3.47549e-07
-4.14492e-08
5.58969e-07
-3.43437e-07
-3.22077e-08
5.67796e-07
-3.36129e-07
-3.32048e-08
5.72037e-07
-3.25793e-07
-4.91954e-08
5.71479e-07
-3.12846e-07
-8.85699e-08
5.68967e-07
-2.95972e-07
-1.65681e-07
5.71965e-07
-2.71612e-07
-2.94362e-07
5.79948e-07
-2.35848e-07
-4.73999e-07
5.7043e-07
-1.87327e-07
-6.64309e-07
4.82028e-07
-1.37286e-07
-7.75271e-07
2.43239e-07
-1.1242e-07
-7.45477e-07
-1.47812e-07
-1.34252e-07
-6.2617e-07
-5.27135e-07
-2.26896e-07
-6.29022e-07
-7.95993e-07
-3.5753e-07
-1.15227e-06
-6.86759e-07
-4.24512e-07
-1.6109e-06
-5.36369e-07
-5.80357e-07
-9.1285e-07
1.08196e-07
-8.76873e-07
9.40753e-07
4.19829e-07
-9.01384e-07
1.71531e-06
-5.32971e-06
8.27443e-07
-8.75841e-06
-9.88283e-06
6.1652e-06
-2.1091e-05
-1.17037e-05
7.28851e-06
-2.46029e-05
-1.94633e-05
2.1367e-06
-2.54224e-05
-2.32668e-05
-2.38866e-06
-2.57125e-05
-2.78428e-05
-1.34459e-06
-2.05239e-05
-3.00665e-05
4.14235e-08
1.36712e-06
-3.71764e-05
-4.79758e-06
7.07647e-06
-3.46113e-05
-3.0616e-07
3.37822e-06
1.30508e-05
1.25751e-05
6.27037e-07
-6.94096e-06
-1.68875e-06
-1.24545e-05
-2.57178e-05
3.13836e-06
-1.59752e-05
-2.15334e-06
1.37667e-06
-1.78818e-05
-3.61136e-06
-1.70164e-07
-1.50203e-05
1.90047e-06
-6.31484e-07
-1.49639e-05
-1.47817e-07
4.69238e-07
-1.60126e-05
-1.08373e-06
2.09844e-06
-1.75915e-05
-3.89473e-06
1.70289e-06
-1.70677e-05
-5.54831e-06
2.55e-07
-1.54621e-05
-6.2587e-06
-4.72129e-07
-1.3378e-05
-5.76747e-06
-6.76645e-07
-1.20642e-05
-4.51526e-06
4.9075e-07
-1.14448e-05
-4.12586e-06
1.64449e-06
-1.10751e-05
-4.76175e-06
2.32452e-06
-1.03787e-05
-5.97628e-06
2.29631e-06
-1.0575e-05
-5.9623e-06
2.52206e-06
-1.22457e-05
-4.70704e-06
2.79759e-06
-1.5341e-05
-3.70034e-06
3.36833e-06
-1.84262e-05
-2.31782e-06
2.95193e-06
-1.8576e-05
-4.00444e-07
7.51467e-07
-1.77704e-05
1.0216e-06
-2.7875e-07
-1.80735e-05
2.94923e-06
-9.12677e-07
-1.95029e-05
5.40733e-06
-8.06873e-07
-1.9542e-05
8.69203e-06
9.19109e-08
-1.89911e-05
9.90342e-06
7.79937e-07
-1.88135e-05
9.73518e-06
1.57113e-06
-1.82618e-05
8.86766e-06
2.07384e-06
-1.75072e-05
6.53088e-06
2.69449e-06
-1.76091e-05
4.90052e-06
2.60163e-06
-1.7244e-05
2.29911e-06
2.07207e-06
-1.61876e-05
1.80161e-07
1.1468e-07
-1.29869e-05
-1.3496e-06
-2.64287e-06
-9.30341e-06
-2.61088e-06
-4.3805e-06
-6.21887e-06
-4.25345e-06
-4.01548e-06
-3.75919e-06
-5.35416e-06
-2.85269e-06
-2.1739e-06
-5.78036e-06
-2.29182e-06
-6.69813e-06
-4.00843e-06
-3.8809e-06
-4.36376e-06
-4.83865e-07
-2.54352e-06
-4.81702e-06
-1.16196e-06
-2.44247e-06
-3.09303e-06
-4.09975e-08
-1.78767e-06
-3.20421e-06
-6.71673e-07
-1.43918e-06
-2.70664e-06
-4.1054e-07
-9.07299e-07
-2.73932e-06
-3.60992e-07
-3.56025e-07
-2.04084e-06
1.61195e-07
-2.23796e-08
-8.4607e-07
3.14496e-07
1.841e-07
3.84985e-07
1.5783e-07
1.52656e-07
9.62726e-07
8.32096e-09
1.24801e-08
1.0581e-06
-9.26589e-08
-2.69523e-07
1.18029e-06
-1.06017e-07
-5.05916e-07
1.04664e-06
-1.65529e-07
-6.25924e-07
8.17656e-07
-2.16987e-07
-5.93861e-07
5.48073e-07
-2.85558e-07
-5.0887e-07
4.4726e-07
-3.30997e-07
-4.11544e-07
4.46604e-07
-3.5454e-07
-3.3546e-07
4.90625e-07
-3.68699e-07
-2.76669e-07
5.5804e-07
-3.73452e-07
-2.32032e-07
6.05608e-07
-3.75909e-07
-1.98873e-07
6.55124e-07
-3.71968e-07
-1.73733e-07
6.92923e-07
-3.6667e-07
-1.56251e-07
7.27945e-07
-3.58986e-07
-1.4582e-07
7.56651e-07
-3.5015e-07
-1.40248e-07
7.79385e-07
-3.41494e-07
-1.37627e-07
7.97153e-07
-3.33835e-07
-1.36099e-07
8.11056e-07
-3.27563e-07
-1.33931e-07
8.21598e-07
-3.2272e-07
-1.30273e-07
8.30051e-07
-3.19028e-07
-1.24715e-07
8.36598e-07
-3.157e-07
-1.18683e-07
8.43105e-07
-3.11821e-07
-1.15616e-07
8.51052e-07
-3.05955e-07
-1.20932e-07
8.62254e-07
-2.97928e-07
-1.40734e-07
8.75004e-07
-2.87367e-07
-1.79824e-07
8.84842e-07
-2.73668e-07
-2.43224e-07
8.90342e-07
-2.55421e-07
-3.36058e-07
8.91762e-07
-2.2991e-07
-4.62152e-07
8.92057e-07
-1.93956e-07
-6.18582e-07
8.85841e-07
-1.4941e-07
-7.88527e-07
8.4569e-07
-1.05276e-07
-9.43717e-07
7.18209e-07
-8.09383e-08
-1.03293e-06
4.47951e-07
-1.15471e-07
-9.75441e-07
4.8363e-08
-2.53617e-07
-8.19751e-07
-2.5648e-07
-4.26325e-07
-9.29436e-07
-1.65167e-07
-5.211e-07
-1.65034e-06
5.6014e-07
-5.2598e-07
-2.083e-06
7.18199e-07
-8.21874e-07
-8.14697e-07
3.63092e-07
-1.5232e-06
2.3286e-06
-9.52528e-07
-1.77092e-06
-9.58594e-07
-3.05774e-06
1.01521e-06
-1.58216e-05
-2.07231e-06
7.05251e-06
-2.79217e-05
-4.16722e-06
4.56367e-06
-3.50933e-05
-1.17024e-05
-5.89317e-07
-3.90605e-05
-1.75661e-05
-1.73353e-06
-3.98937e-05
-2.60384e-05
-9.71082e-07
-3.47088e-05
-3.42243e-05
-1.02715e-06
-2.99296e-05
-3.88886e-05
-3.0671e-06
-2.20102e-05
-3.95871e-05
-2.94395e-06
6.77101e-06
-1.06763e-05
-5.05516e-06
-1.44884e-06
1.41988e-06
-1.40686e-07
-2.84379e-05
-8.96069e-06
1.0233e-05
-4.39157e-05
7.77833e-06
5.54742e-06
-5.45188e-05
4.59458e-06
2.39864e-06
-5.7571e-05
4.11785e-06
8.36321e-07
-5.92249e-05
5.10136e-07
9.97592e-07
-6.00156e-05
-1.80899e-06
1.51747e-06
-5.95205e-05
-5.31394e-06
9.25577e-07
-5.84896e-05
-7.14844e-06
5.70616e-07
-5.5958e-05
-9.17864e-06
3.89614e-07
-5.2976e-05
-9.28627e-06
5.37813e-07
-5.10992e-05
-8.49023e-06
2.09914e-06
-5.05626e-05
-7.67507e-06
3.01346e-06
-5.09449e-05
-7.6631e-06
3.28431e-06
-5.09659e-05
-8.25159e-06
2.29692e-06
-4.89743e-05
-8.73796e-06
7.846e-07
-4.50841e-05
-8.57304e-06
-2.38439e-08
-4.14728e-05
-7.76389e-06
4.52536e-07
-3.80312e-05
-6.76111e-06
1.00185e-06
-3.47931e-05
-4.93691e-06
1.29858e-06
-3.26821e-05
-2.6509e-06
1.56168e-06
-3.16506e-05
-3.52766e-07
2.27054e-06
-3.05514e-05
1.0477e-06
3.2606e-06
-2.87948e-05
2.84737e-06
4.08821e-06
-2.74962e-05
4.36659e-06
4.23828e-06
-2.68684e-05
4.74787e-06
4.35968e-06
-2.66375e-05
4.70688e-06
3.92999e-06
-2.7422e-05
3.50673e-06
3.80871e-06
-2.7782e-05
2.18821e-06
3.07247e-06
-2.75703e-05
5.78557e-07
1.5089e-06
-2.51247e-05
-5.12859e-07
-1.7524e-06
-1.93203e-05
-2.28605e-06
-4.86791e-06
-1.37429e-05
-2.43275e-06
-5.75552e-06
-9.32882e-06
-3.65531e-06
-5.01218e-06
-5.26895e-06
-5.40677e-06
-4.00724e-06
-2.46991e-06
-4.64267e-06
-3.93673e-06
-3.1493e-06
-6.01874e-06
-4.26154e-06
-3.90472e-06
-3.25094e-07
-3.0804e-06
-4.66127e-06
-1.33688e-06
-2.89769e-06
-2.88949e-06
-3.86245e-07
-1.84298e-06
-2.92445e-06
-1.33447e-06
-1.22634e-06
-2.32336e-06
-9.99925e-07
-6.99808e-07
-2.40225e-06
-8.63604e-07
-2.47166e-07
-2.02732e-06
-4.66167e-07
1.05861e-08
-1.20415e-06
1.00315e-07
1.32599e-07
1.18871e-07
1.44091e-07
1.60578e-07
8.93526e-07
4.12093e-08
1.39109e-07
1.10923e-06
-2.96691e-08
-1.13163e-07
1.43938e-06
-6.82467e-09
-3.82702e-07
1.39198e-06
-7.58115e-08
-5.27437e-07
1.13092e-06
-1.68536e-07
-5.04731e-07
8.12113e-07
-2.86751e-07
-4.41838e-07
7.30203e-07
-3.45844e-07
-3.65164e-07
7.4718e-07
-3.77251e-07
-3.18103e-07
8.23913e-07
-3.80352e-07
-2.85895e-07
9.03298e-07
-3.77463e-07
-2.67186e-07
9.5794e-07
-3.7104e-07
-2.54876e-07
1.00624e-06
-3.63415e-07
-2.45223e-07
1.04027e-06
-3.5699e-07
-2.3858e-07
1.07031e-06
-3.48998e-07
-2.34748e-07
1.09242e-06
-3.39588e-07
-2.32085e-07
1.10707e-06
-3.30331e-07
-2.29867e-07
1.11641e-06
-3.21456e-07
-2.28179e-07
1.12255e-06
-3.13158e-07
-2.26802e-07
1.12558e-06
-3.05334e-07
-2.26556e-07
1.12714e-06
-2.97302e-07
-2.28291e-07
1.12779e-06
-2.89429e-07
-2.35164e-07
1.1303e-06
-2.80284e-07
-2.51061e-07
1.13633e-06
-2.69346e-07
-2.81679e-07
1.14913e-06
-2.56221e-07
-3.32595e-07
1.16633e-06
-2.40369e-07
-4.05486e-07
1.17987e-06
-2.22099e-07
-4.99149e-07
1.18543e-06
-2.01378e-07
-6.07909e-07
1.17862e-06
-1.78058e-07
-7.18406e-07
1.15497e-06
-1.52362e-07
-8.16289e-07
1.10907e-06
-1.2531e-07
-8.84817e-07
1.02313e-06
-1.08855e-07
-9.16234e-07
8.65624e-07
-1.15968e-07
-9.04614e-07
6.11391e-07
-1.75017e-07
-8.15952e-07
2.81362e-07
-3.21645e-07
-6.56122e-07
9.39755e-08
-5.1025e-07
-7.64531e-07
5.13375e-07
-5.70127e-07
-1.39438e-06
1.76519e-06
-5.7516e-07
-1.54714e-06
1.87485e-06
-1.00389e-06
4.62118e-07
1.72387e-07
-1.81853e-06
3.5671e-06
-1.96474e-06
-2.09278e-06
-1.73475e-06
8.96639e-07
1.34748e-06
-1.57818e-05
5.49538e-06
6.47934e-06
-2.69233e-05
4.38478e-06
2.58958e-06
-3.4666e-05
-3.6195e-07
-3.59783e-06
-4.06666e-05
-8.88165e-06
-2.68371e-06
-4.44988e-05
-2.11438e-05
-1.06248e-06
-4.24578e-05
-3.49245e-05
-1.3408e-06
-4.05466e-05
-4.13597e-05
5.59828e-07
-2.82157e-05
-4.82688e-05
-3.64946e-06
9.88279e-06
-4.48563e-05
-3.91982e-06
-2.46071e-06
8.93495e-06
4.82925e-06
-4.43174e-05
1.85747e-05
1.4324e-05
-6.13979e-05
1.84296e-05
6.433e-06
-7.01532e-05
1.13791e-05
1.97498e-06
-7.25029e-05
7.01875e-06
-5.46815e-07
-7.53858e-05
2.36961e-06
1.02802e-06
-7.72146e-05
-1.67738e-06
1.70182e-06
-7.87825e-05
-5.44439e-06
1.703e-06
-8.01372e-05
-7.70286e-06
1.91374e-06
-8.13724e-05
-9.65061e-06
1.71189e-06
-8.18812e-05
-9.92218e-06
1.14936e-06
-8.15303e-05
-9.82575e-06
9.89202e-07
-8.01954e-05
-9.80664e-06
8.01269e-07
-7.86875e-05
-1.01687e-05
1.00209e-06
-7.69118e-05
-1.08375e-05
8.14492e-07
-7.51373e-05
-1.1113e-05
6.04666e-07
-7.33427e-05
-1.08561e-05
4.92289e-07
-7.12131e-05
-1.04712e-05
5.81427e-07
-6.8715e-05
-1.01137e-05
8.57904e-07
-6.59561e-05
-9.09788e-06
1.40532e-06
-6.33324e-05
-7.35647e-06
2.08489e-06
-6.0501e-05
-5.71462e-06
2.53335e-06
-5.73186e-05
-4.51928e-06
2.38739e-06
-5.42724e-05
-3.10296e-06
2.90675e-06
-5.13699e-05
-1.49532e-06
2.96204e-06
-4.90411e-05
-6.54152e-07
3.07575e-06
-4.74928e-05
2.67686e-07
2.89345e-06
-4.65206e-05
7.68526e-07
1.76848e-06
-4.5729e-05
5.85634e-07
8.13467e-07
-4.4056e-05
-1.34502e-07
-9.57596e-07
-3.99428e-05
-1.32275e-06
-3.30103e-06
-3.4328e-05
-3.51466e-06
-4.38427e-06
-2.83351e-05
-3.69489e-06
-4.72914e-06
-2.2991e-05
-5.38497e-06
-3.61325e-06
-1.59673e-05
-8.1379e-06
-4.2917e-06
-8.04519e-06
-7.00281e-06
-5.56156e-06
-4.69537e-06
-6.49901e-06
-4.28282e-06
-3.21547e-06
1.04267e-07
-3.36414e-06
-4.17298e-06
-1.40697e-06
-3.3898e-06
-2.3385e-06
-5.25334e-07
-2.15253e-06
-2.47643e-06
-1.68529e-06
-1.32769e-06
-1.7756e-06
-1.37259e-06
-6.31416e-07
-1.88951e-06
-1.20902e-06
-1.68898e-07
-1.53806e-06
-9.51794e-07
8.30996e-08
-1.02077e-06
-4.35384e-07
1.77027e-07
7.90181e-08
-5.40856e-08
1.19869e-07
9.31618e-07
1.9055e-08
1.28712e-07
1.13138e-06
-3.10051e-08
7.46781e-08
1.47942e-06
1.3981e-08
4.78767e-10
1.55825e-06
-9.20836e-08
-7.01159e-08
1.41578e-06
-2.14277e-07
-1.17823e-07
1.22135e-06
-3.61542e-07
-1.72314e-07
1.21869e-06
-4.34004e-07
-2.21195e-07
1.28794e-06
-4.91883e-07
-2.68499e-07
1.37907e-06
-5.07855e-07
-3.06851e-07
1.46482e-06
-5.23167e-07
-3.4291e-07
1.52345e-06
-5.29444e-07
-3.62376e-07
1.56068e-06
-5.3497e-07
-3.71928e-07
1.58523e-06
-5.35403e-07
-3.74889e-07
1.60653e-06
-5.33242e-07
-3.74084e-07
1.62133e-06
-5.29701e-07
-3.7095e-07
1.63095e-06
-5.26995e-07
-3.66737e-07
1.63682e-06
-5.24606e-07
-3.63352e-07
1.64088e-06
-5.21691e-07
-3.62183e-07
1.64303e-06
-5.18594e-07
-3.64732e-07
1.64472e-06
-5.15009e-07
-3.73493e-07
1.6471e-06
-5.10511e-07
-3.92344e-07
1.6533e-06
-5.04115e-07
-4.25795e-07
1.6647e-06
-4.94876e-07
-4.80136e-07
1.68607e-06
-4.8256e-07
-5.58678e-07
1.71306e-06
-4.68148e-07
-6.51877e-07
1.72818e-06
-4.5506e-07
-7.4679e-07
1.72497e-06
-4.44583e-07
-8.32757e-07
1.70175e-06
-4.37113e-07
-8.96218e-07
1.65245e-06
-4.33984e-07
-9.25408e-07
1.57836e-06
-4.40047e-07
-9.07134e-07
1.47173e-06
-4.66847e-07
-8.19114e-07
1.3105e-06
-5.3285e-07
-6.62542e-07
1.09447e-06
-6.39634e-07
-4.55582e-07
8.82587e-07
-8.0816e-07
-3.39681e-07
9.33369e-07
-9.55292e-07
-6.45864e-07
1.7925e-06
-9.72918e-07
-1.15374e-06
3.1513e-06
-8.7823e-07
-7.90555e-07
2.80942e-06
-1.29773e-06
1.42879e-06
4.20231e-08
-2.08899e-06
5.11904e-06
-2.59351e-06
-3.06147e-06
3.28393e-06
2.47743e-06
2.54295e-07
-8.50845e-06
1.15587e-05
5.72903e-06
-1.79701e-05
1.12227e-05
2.62372e-06
-2.48632e-05
1.2359e-05
-5.82786e-06
-3.40823e-05
5.77944e-06
-5.44192e-06
-4.34796e-05
-9.03488e-06
-2.71162e-06
-4.58347e-05
-2.83403e-05
-4.22908e-06
-5.61798e-05
-3.20427e-05
1.02807e-06
-4.70691e-05
-4.07446e-05
-1.66354e-05
1.09928e-05
-6.32336e-05
-3.96858e-05
-1.51958e-06
1.55605e-05
5.88753e-06
-4.61103e-05
4.30215e-05
2.01472e-05
-5.90517e-05
2.29663e-05
8.40905e-06
-6.26805e-05
1.44599e-05
5.52577e-07
-5.7576e-05
4.88379e-06
-2.96492e-06
-5.70295e-05
4.17947e-06
-2.35172e-06
-5.82276e-05
-3.24665e-06
2.77215e-06
-6.24438e-05
-5.32529e-06
4.10214e-06
-6.78703e-05
-7.45769e-06
5.18647e-06
-7.40259e-05
-9.75535e-06
6.26592e-06
-7.93313e-05
-9.77523e-06
5.1642e-06
-8.19051e-05
-1.06447e-05
3.39883e-06
-8.35313e-05
-1.00602e-05
1.88601e-06
-8.43619e-05
-1.04879e-05
1.15643e-06
-8.50889e-05
-1.09357e-05
8.31949e-07
-8.57636e-05
-1.0866e-05
4.34875e-07
-8.63932e-05
-1.07721e-05
5.52953e-07
-8.72451e-05
-1.05408e-05
9.29212e-07
-8.81422e-05
-1.0302e-05
1.09339e-06
-8.88039e-05
-9.03106e-06
6.03096e-07
-8.83891e-05
-7.7383e-06
-2.44813e-08
-8.69207e-05
-6.59899e-06
-5.75356e-07
-8.46006e-05
-5.66058e-06
-1.17001e-06
-8.13487e-05
-4.68472e-06
-1.66126e-06
-7.78455e-05
-3.09412e-06
-1.89546e-06
-7.3889e-05
-2.47205e-06
-2.12984e-06
-7.09887e-05
-6.59245e-07
-1.96467e-06
-6.87889e-05
8.43191e-07
-2.26579e-06
-6.57949e-05
1.03085e-06
-3.43073e-06
-6.16602e-05
1.35732e-06
-5.61819e-06
-5.74358e-05
3.45852e-07
-5.88499e-06
-4.9986e-05
-5.75098e-06
-5.20578e-06
-4.35752e-05
-6.47975e-06
-3.6185e-06
-3.90051e-05
-6.03228e-06
-3.91589e-06
-3.1304e-05
-1.02859e-05
-5.54668e-06
-1.84548e-05
-1.12004e-05
-8.64636e-06
-1.24379e-05
-1.07102e-05
-3.93186e-06
-1.09799e-06
1.82687e-06
-3.34399e-06
-3.71346e-06
-1.04738e-06
-3.95585e-06
-1.56684e-06
-1.59794e-07
-2.90007e-06
-2.11369e-06
-1.41853e-06
-2.04319e-06
-1.56073e-06
-1.07175e-06
-1.01647e-06
-1.7667e-06
-1.14954e-06
-3.11614e-07
-1.15135e-06
-1.09157e-06
-2.85596e-08
-6.16488e-07
-6.87346e-07
8.17694e-08
2.56183e-07
-2.87505e-07
8.98149e-08
9.6209e-07
-3.85291e-08
1.43436e-07
9.86766e-07
9.09833e-08