/*--------------------------------*- C++ -*----------------------------------*\
| =========                 |                                                 |
| \\      /  F ield         | OpenFOAM: The Open Source CFD Toolbox           |
|  \\    /   O peration     | Version:  2.3.0                                 |
|   \\  /    A nd           | Web:      www.OpenFOAM.org                      |
|    \\/     M anipulation  |                                                 |
\*---------------------------------------------------------------------------*/
FoamFile
{
    version     2.0;
    format      ascii;
    class       surfaceScalarField;
    location    "22";
    object      phi.air;
}
// * * * * * * * * * * * * * * * * * * * * * * * * * * * * * * * * * * * * * //

dimensions      [0 3 -1 0 0 0 0];

internalField   nonuniform List<scalar> 
16448
(
-1.34752e-06
-1.9753e-06
7.37942e-07
-1.61221e-07
-2.02415e-06
8.37846e-07
1.7e-07
-1.40611e-06
1.07489e-06
4.4529e-07
-1.30846e-06
1.03317e-06
4.19339e-07
-8.47731e-07
8.73685e-07
4.23564e-07
-7.47727e-07
7.43505e-07
2.88557e-07
-4.1907e-07
5.54079e-07
9.17844e-08
-3.11252e-07
5.08026e-07
-1.82411e-07
-2.11007e-07
4.85201e-07
-4.09741e-07
-1.86667e-07
4.13995e-07
-5.46264e-07
-2.26159e-07
3.62679e-07
-5.27991e-07
-3.06651e-07
2.88374e-07
-4.43841e-07
-3.61345e-07
2.7719e-07
-3.07576e-07
-4.06184e-07
2.69915e-07
-2.07485e-07
-4.19993e-07
3.19896e-07
-1.16634e-07
-4.42561e-07
3.51705e-07
-6.35907e-08
-4.50955e-07
3.97905e-07
-2.2988e-08
-4.6573e-07
4.25121e-07
1.0917e-09
-4.74967e-07
4.50881e-07
1.58334e-08
-4.79722e-07
4.64974e-07
2.29286e-08
-4.81272e-07
4.74171e-07
2.61154e-08
-4.8041e-07
4.77216e-07
2.65618e-08
-4.77761e-07
4.77309e-07
2.58546e-08
-4.74104e-07
4.74805e-07
2.45612e-08
-4.69516e-07
4.70804e-07
2.30231e-08
-4.64388e-07
4.65919e-07
2.14017e-08
-4.59101e-07
4.60716e-07
1.97041e-08
-4.53786e-07
4.55477e-07
1.79994e-08
-4.48482e-07
4.50181e-07
1.546e-08
-4.42513e-07
4.45046e-07
1.40686e-08
-4.37979e-07
4.39365e-07
8.66263e-09
-4.30062e-07
4.35462e-07
8.29816e-09
-4.27715e-07
4.28074e-07
-3.84654e-09
-4.15476e-07
4.27614e-07
7.65699e-10
-4.20398e-07
4.15781e-07
-1.85956e-08
-4.00484e-07
4.19838e-07
-8.407e-09
-4.11805e-07
4.01611e-07
-3.28125e-08
-3.84479e-07
4.08877e-07
-1.11039e-08
-4.016e-07
3.79886e-07
-3.21384e-08
-3.67583e-07
3.8861e-07
1.63865e-08
-3.95171e-07
3.46641e-07
2.66327e-08
-3.6383e-07
3.53576e-07
1.11539e-07
-4.04197e-07
3.19284e-07
1.79553e-07
-4.13625e-07
3.45602e-07
2.35339e-07
-4.1373e-07
3.57938e-07
2.41249e-07
-4.7284e-07
4.66921e-07
1.09694e-07
-4.38033e-07
5.69581e-07
-4.67801e-08
-4.6186e-07
6.18324e-07
-4.20953e-07
-4.59519e-07
8.33684e-07
-4.61955e-07
-5.60938e-07
6.0193e-07
-4.34444e-07
-9.56616e-07
9.29094e-07
-2.94613e-07
-9.0523e-07
7.65385e-07
-8.34105e-07
-6.06032e-07
1.14551e-06
-2.16633e-06
1.16879e-07
1.21533e-06
-7.34786e-07
-2.5014e-06
1.06982e-06
-9.307e-08
-2.62904e-06
1.98729e-06
-1.90824e-06
2.05379e-06
-2.3934e-07
-2.17606e-06
-1.27578e-06
1.5419e-06
-8.61026e-06
9.44837e-07
4.98513e-06
-3.18896e-05
-1.71695e-05
9.50337e-06
-5.95455e-05
-1.57444e-05
3.37205e-06
-1.15945e-05
-6.59945e-06
5.85683e-06
3.01707e-05
-5.7467e-06
4.43536e-06
3.28159e-05
-5.91202e-06
3.25498e-06
3.5034e-05
-4.82778e-06
2.38453e-06
3.5763e-05
-2.51372e-06
1.77189e-06
3.56975e-05
-1.23931e-06
1.33267e-06
3.53192e-05
-6.44158e-07
1.02029e-06
3.4685e-05
-2.35243e-07
8.51165e-07
3.36846e-05
2.32911e-07
7.5212e-07
3.22637e-05
7.41497e-07
6.66273e-07
3.04728e-05
1.15725e-06
6.18609e-07
2.83696e-05
1.48791e-06
6.01385e-07
2.59876e-05
1.78687e-06
5.84895e-07
2.34297e-05
1.94501e-06
6.0089e-07
2.07791e-05
2.02584e-06
6.15382e-07
1.82355e-05
1.89654e-06
6.43622e-07
1.58756e-05
1.63602e-06
7.29285e-07
1.37969e-05
1.22055e-06
8.58897e-07
1.22309e-05
5.42606e-07
1.01255e-06
1.1135e-05
-6.8877e-08
1.16333e-06
1.01882e-05
-4.21725e-07
1.38246e-06
9.20058e-06
-7.45667e-07
1.73203e-06
8.25425e-06
-1.16625e-06
2.08936e-06
7.37721e-06
-1.43959e-06
2.29042e-06
6.95038e-06
-1.88131e-06
2.27956e-06
7.13445e-06
-2.34406e-06
2.12692e-06
7.65753e-06
-2.45934e-06
1.91001e-06
8.21944e-06
-2.1874e-06
1.60227e-06
8.26073e-06
-1.53328e-06
1.48269e-06
7.75012e-06
-8.15489e-07
1.31949e-06
6.46966e-06
-1.08526e-07
1.40183e-06
4.5331e-06
7.97045e-07
1.16813e-06
1.17086e-06
2.13302e-06
1.38707e-06
-1.39188e-06
2.97518e-06
-1.03758e-07
3.11189e-06
-3.5667e-06
-2.10449e-06
-2.93585e-06
1.03838e-07
-1.1398e-06
-3.09085e-06
1.02016e-07
-7.60029e-07
-2.25427e-06
4.68394e-07
-2.78819e-07
-2.0705e-06
2.80844e-07
4.55579e-08
-1.33959e-06
1.67489e-07
2.88129e-07
-1.05331e-06
6.30182e-08
2.254e-07
-3.48771e-07
-7.56324e-09
-5.20622e-08
-1.0841e-07
7.46247e-08
-3.97025e-07
3.42826e-08
9.96743e-08
-6.22718e-07
-2.52629e-08
6.42886e-08
-7.43326e-07
-1.33399e-07
2.78464e-08
-7.09792e-07
-2.91455e-07
-4.87332e-08
-6.24137e-07
-3.77438e-07
-6.95661e-08
-4.88274e-07
-4.54133e-07
-8.79178e-08
-3.69943e-07
-4.76975e-07
-6.13527e-08
-2.53484e-07
-5.14109e-07
-4.49149e-08
-1.77493e-07
-5.17059e-07
-9.8921e-09
-1.15632e-07
-5.34154e-07
6.55722e-09
-7.73955e-08
-5.35535e-07
2.23254e-08
-4.9945e-08
-5.37161e-07
2.99832e-08
-3.43343e-08
-5.32108e-07
3.52184e-08
-2.48509e-08
-5.26216e-07
3.63166e-08
-2.01702e-08
-5.17985e-07
3.55367e-08
-1.80603e-08
-5.09231e-07
3.301e-08
-1.75298e-08
-4.99825e-07
2.97721e-08
-1.77172e-08
-4.90214e-07
2.60072e-08
-1.8285e-08
-4.80596e-07
2.20562e-08
-1.94517e-08
-4.70892e-07
1.82664e-08
-2.11092e-08
-4.61318e-07
1.44878e-08
-2.35806e-08
-4.51143e-07
1.10952e-08
-2.53528e-08
-4.43367e-07
7.15346e-09
-3.08861e-08
-4.29454e-07
4.91873e-09
-3.363e-08
-4.24644e-07
-3.33451e-10
-4.4957e-08
-4.038e-07
-3.56073e-10
-4.43708e-08
-4.08911e-07
-1.20806e-08
-6.06762e-08
-3.76083e-07
-8.10207e-09
-5.24444e-08
-3.94014e-07
-2.60302e-08
-7.408e-08
-3.45236e-07
-1.7614e-08
-4.83079e-08
-3.81738e-07
-4.56421e-08
-7.01008e-08
-3.13799e-07
-3.19982e-08
-2.20112e-09
-3.90853e-07
-7.22261e-08
-2.18554e-08
-2.96808e-07
-4.73761e-08
8.26958e-08
-4.33366e-07
-7.53912e-08
5.76671e-08
-3.46958e-07
-4.16475e-08
1.41323e-07
-4.94871e-07
-2.52554e-09
2.82069e-08
-4.10989e-07
5.12553e-08
-5.10232e-08
-4.92122e-07
1.33308e-07
-1.46793e-07
-4.86486e-07
1.20385e-07
-6.15272e-07
-3.43953e-07
3.529e-07
-5.30661e-07
-6.97715e-07
5.21516e-08
-1.00339e-06
-1.05043e-06
5.6652e-07
-1.11038e-06
-1.08794e-06
2.89681e-07
-9.69362e-07
-1.03968e-06
2.92607e-07
-1.55854e-06
4.05932e-07
3.00108e-07
-5.47518e-07
-3.19858e-06
-3.13904e-07
2.81917e-06
-5.73993e-06
-2.55831e-07
-1.68859e-06
8.38675e-06
-1.82611e-06
-1.03223e-05
5.34493e-06
2.01129e-06
-1.1716e-05
3.36807e-06
-1.41193e-06
-3.11657e-05
-2.93508e-05
1.29778e-06
-7.01709e-05
-2.45406e-05
8.85237e-07
-2.509e-05
-1.20162e-05
3.47316e-06
1.89765e-05
-1.2685e-05
2.96117e-06
2.27396e-05
-1.00593e-05
6.81064e-08
2.53913e-05
-6.5741e-06
-8.27483e-07
2.72982e-05
-3.11616e-06
-1.16199e-06
2.86455e-05
-1.23063e-06
-1.33338e-06
2.92965e-05
-3.72224e-08
-1.27665e-06
2.93867e-05
7.03901e-07
-1.03211e-06
2.89788e-05
1.45001e-06
-7.85561e-07
2.8202e-05
2.13059e-06
-5.80369e-07
2.7069e-05
2.70236e-06
-3.87518e-07
2.55606e-05
3.24881e-06
-2.27632e-07
2.37164e-05
3.73849e-06
-8.46222e-08
2.16257e-05
3.98509e-06
7.3147e-08
1.92754e-05
4.2818e-06
1.22068e-07
1.68198e-05
4.21956e-06
1.2693e-07
1.46548e-05
3.52539e-06
2.41659e-07
1.28124e-05
2.53177e-06
5.21519e-07
1.09873e-05
1.62894e-06
7.6988e-07
9.13501e-06
8.4184e-07
9.59301e-07
6.76641e-06
3.49846e-07
1.54891e-06
4.19497e-06
-2.61572e-07
2.03622e-06
2.59267e-06
-1.32295e-06
1.75898e-06
2.39633e-06
-2.44066e-06
1.22648e-06
3.16503e-06
-3.2454e-06
6.17138e-07
4.54986e-06
-3.60951e-06
-1.13231e-07
6.08249e-06
-3.2819e-06
-7.10457e-07
7.29986e-06
-2.34801e-06
-1.06436e-06
7.65219e-06
-9.9009e-07
-8.88068e-07
7.14781e-06
3.57899e-07
-6.7143e-07
5.59965e-06
1.52546e-06
-6.70988e-08
3.40666e-06
3.11931e-06
-5.73509e-08
1.66697e-07
4.94315e-06
6.02926e-07
-1.93858e-06
6.13309e-06
-7.75081e-07
6.25491e-06
-4.09843e-06
-2.8537e-06
-3.39189e-06
-9.16904e-08
-1.93455e-06
-3.71744e-06
-2.92552e-07
-1.56818e-06
-2.79326e-06
1.7263e-07
-9.80311e-07
-2.71102e-06
5.26588e-08
-5.14351e-07
-1.79045e-06
-1.50835e-08
-1.13983e-07
-1.34237e-06
-1.1129e-07
8.22579e-09
-2.30402e-07
-2.40571e-07
-1.38549e-07
1.76627e-07
-1.3826e-07
-3.96e-07
4.01197e-07
-1.09464e-07
-5.76119e-07
2.56925e-07
-1.02071e-07
-6.74928e-07
9.81551e-08
-1.32749e-07
-6.82829e-07
-8.27202e-08
-2.00838e-07
-6.53688e-07
-1.73344e-07
-2.33239e-07
-5.82532e-07
-2.6258e-07
-2.62713e-07
-4.89889e-07
-3.04479e-07
-2.65144e-07
-3.84243e-07
-3.52085e-07
-2.67677e-07
-3.0113e-07
-3.49024e-07
-2.51155e-07
-2.26431e-07
-3.64738e-07
-2.44121e-07
-1.7665e-07
-3.52959e-07
-2.32364e-07
-1.38656e-07
-3.48056e-07
-2.27107e-07
-1.14996e-07
-3.33727e-07
-2.22047e-07
-9.90912e-08
-3.21652e-07
-2.20477e-07
-8.97403e-08
-3.07291e-07
-2.20052e-07
-8.49133e-08
-2.93027e-07
-2.21038e-07
-8.3287e-08
-2.78993e-07
-2.22465e-07
-8.32063e-08
-2.65819e-07
-2.24483e-07
-8.36568e-08
-2.53252e-07
-2.269e-07
-8.45353e-08
-2.40738e-07
-2.29283e-07
-8.60505e-08
-2.28237e-07
-2.31572e-07
-8.77288e-08
-2.15657e-07
-2.33815e-07
-9.01312e-08
-2.04734e-07
-2.36237e-07
-9.36214e-08
-1.88646e-07
-2.37325e-07
-9.63716e-08
-1.81439e-07
-2.40462e-07
-1.01783e-07
-1.58203e-07
-2.40192e-07
-1.01288e-07
-1.61934e-07
-2.47478e-07
-1.08676e-07
-1.24459e-07
-2.44244e-07
-1.0028e-07
-1.46063e-07
-2.56352e-07
-1.09378e-07
-8.76922e-08
-2.48454e-07
-8.68379e-08
-1.37884e-07
-2.66401e-07
-9.89281e-08
-5.20653e-08
-2.49652e-07
-6.69275e-08
-1.52457e-07
-2.70403e-07
-9.56218e-08
-3.04703e-08
-2.37652e-07
-8.80629e-08
-1.8954e-07
-2.51392e-07
-1.67703e-07
-6.76377e-08
-1.99689e-07
-2.1387e-07
-2.52224e-07
-1.96488e-07
-2.97058e-07
-1.55859e-07
-1.71951e-07
-3.70958e-07
-3.01625e-07
-1.16606e-07
-3.53376e-07
-2.929e-07
-2.11179e-07
-5.40936e-07
-2.06157e-07
4.97531e-08
-4.95264e-07
-5.20719e-07
-2.22681e-07
-1.67485e-06
-3.54758e-07
4.83897e-07
-2.39285e-06
-5.22783e-07
1.52832e-07
-1.77122e-06
-1.32994e-06
-3.31394e-07
9.82463e-07
-1.0307e-06
-1.31707e-06
2.52048e-06
-4.8218e-06
8.51354e-08
2.08871e-06
-5.82407e-06
5.15852e-07
4.87641e-06
8.87741e-06
-3.27929e-06
-3.7298e-06
1.30672e-05
8.83961e-07
-8.67292e-06
7.37012e-06
6.16046e-07
-3.07312e-05
-3.42537e-05
-3.22912e-06
-7.7989e-05
-3.3523e-05
8.36721e-07
-3.4233e-05
-2.08237e-05
3.19955e-06
1.42017e-05
-2.14943e-05
7.06308e-07
1.737e-05
-1.19256e-05
-1.80325e-06
1.90927e-05
-5.91773e-06
-2.22331e-06
2.0958e-05
-2.35433e-06
-2.67643e-06
2.265e-05
-2.78447e-07
-2.75554e-06
2.37849e-05
1.13984e-06
-2.35826e-06
2.41388e-05
2.07308e-06
-1.75536e-06
2.38916e-05
2.73136e-06
-1.07412e-06
2.31775e-05
3.24827e-06
-4.54097e-07
2.21115e-05
3.68405e-06
3.08556e-08
2.05392e-05
4.48784e-06
3.14308e-07
1.84341e-05
5.41265e-06
4.10384e-07
1.61623e-05
5.61535e-06
5.89641e-07
1.39719e-05
5.77295e-06
6.83944e-07
1.20121e-05
5.56714e-06
6.39236e-07
9.83681e-06
4.83956e-06
9.06287e-07
6.39381e-06
4.00678e-06
1.93058e-06
2.02256e-06
3.15481e-06
2.76748e-06
-1.20053e-06
1.89284e-06
2.17444e-06
-2.51368e-06
4.73587e-07
1.24512e-06
-2.34421e-06
-8.53228e-07
4.80242e-07
-1.35719e-06
-1.96404e-06
-2.97071e-07
-5.69101e-08
-2.60353e-06
-1.11153e-06
1.48623e-06
-2.81392e-06
-1.97881e-06
3.50747e-06
-2.69448e-06
-2.98564e-06
5.65592e-06
-1.86627e-06
-3.62847e-06
7.08059e-06
-4.44901e-07
-3.39641e-06
7.36431e-06
1.25142e-06
-2.57812e-06
6.58713e-06
2.70415e-06
-1.6138e-06
4.60989e-06
4.11561e-06
-6.09839e-07
2.02357e-06
6.177e-06
-3.98511e-07
-1.26968e-06
8.53803e-06
-6.73125e-08
-2.57178e-06
9.31303e-06
-1.57139e-06
9.45191e-06
-4.6674e-06
-3.57807e-06
-3.74678e-06
3.02849e-08
-2.50028e-06
-4.23364e-06
-5.6158e-07
-2.18867e-06
-3.28732e-06
1.82459e-07
-1.52164e-06
-3.45641e-06
7.83835e-08
-9.50378e-07
-2.53483e-06
1.73128e-07
-3.80727e-07
-2.01484e-06
1.02828e-07
-6.39425e-08
-4.77559e-07
-6.96206e-08
-2.01162e-08
1.43952e-07
-1.1151e-08
-1.87537e-07
6.54366e-07
-8.57508e-08
-3.66095e-07
5.4993e-07
-1.14452e-07
-4.82552e-07
3.99068e-07
-1.84461e-07
-5.83387e-07
2.51475e-07
-2.33366e-07
-6.22148e-07
1.44591e-07
-2.7918e-07
-6.10601e-07
3.8178e-08
-3.12312e-07
-5.44497e-07
-3.8917e-08
-3.31672e-07
-4.56391e-07
-9.52105e-08
-3.44987e-07
-3.71516e-07
-8.99143e-08
-3.43992e-07
-2.88836e-07
-9.987e-08
-3.47555e-07
-2.26203e-07
-7.52501e-08
-3.4035e-07
-1.76209e-07
-6.09e-08
-3.37156e-07
-1.42894e-07
-3.50211e-08
-3.32029e-07
-1.21276e-07
-1.34759e-08
-3.29801e-07
-1.09515e-07
8.45238e-09
-3.27512e-07
-1.03973e-07
2.72953e-08
-3.25871e-07
-1.03271e-07
4.53874e-08
-3.2509e-07
-1.05071e-07
6.14553e-08
-3.25481e-07
-1.07421e-07
7.57559e-08
-3.26666e-07
-1.09434e-07
8.93312e-08
-3.28062e-07
-1.11158e-07
1.0291e-07
-3.29431e-07
-1.12768e-07
1.16544e-07
-3.30596e-07
-1.15341e-07
1.29436e-07
-3.31606e-07
-1.17963e-07
1.45414e-07
-3.31443e-07
-1.20337e-07
1.54329e-07
-3.33402e-07
-1.23364e-07
1.76946e-07
-3.32129e-07
-1.22318e-07
1.74578e-07
-3.37567e-07
-1.27195e-07
2.13081e-07
-3.32667e-07
-1.19463e-07
1.89439e-07
-3.43243e-07
-1.27539e-07
2.52469e-07
-3.32091e-07
-1.14985e-07
1.96372e-07
-3.46819e-07
-1.32495e-07
2.9193e-07
-3.26491e-07
-1.43048e-07
1.9277e-07
-3.34684e-07
-1.82418e-07
3.17191e-07
-3.08296e-07
-2.79883e-07
1.96712e-07
-2.88796e-07
-3.55021e-07
2.89724e-07
-2.82229e-07
-5.46492e-07
1.73039e-07
-2.338e-07
-5.97122e-07
1.81294e-07
-2.86528e-07
-7.9061e-07
6.70516e-08
-1.75198e-07
-7.68803e-07
-4.74234e-09
-3.0997e-07
-9.83644e-07
-2.87829e-08
3.74571e-08
-1.1694e-06
-1.93029e-07
-1.41942e-07
-2.2435e-06
3.08083e-07
4.11242e-07
-2.62357e-06
-1.50374e-07
7.6558e-09
-2.05452e-06
-1.7687e-06
-1.3031e-07
3.43441e-08
-2.4859e-06
-6.33677e-07
-6.36909e-08
-5.08806e-06
3.64214e-07
-4.39088e-06
-1.98764e-06
4.90756e-07
6.59727e-06
5.62241e-07
-2.67382e-06
1.34504e-06
2.02064e-05
-1.88665e-06
-5.07481e-06
3.89404e-06
9.51063e-06
-3.17278e-05
-3.52162e-05
-4.56248e-06
-8.54913e-05
-3.76174e-05
1.33342e-06
-4.05226e-05
-2.31338e-05
3.21501e-06
5.53148e-06
-2.32906e-05
-1.4642e-06
6.67699e-06
-1.01161e-05
-1.72573e-06
9.92553e-06
-4.56166e-06
-2.73178e-06
1.21868e-05
-1.032e-06
-3.6835e-06
1.37998e-05
1.69759e-06
-3.59645e-06
1.48286e-05
2.80014e-06
-2.63851e-06
1.51256e-05
3.42739e-06
-1.57642e-06
1.46985e-05
3.92454e-06
-6.92884e-07
1.37993e-05
4.14005e-06
4.17717e-08
1.26923e-05
4.09917e-06
6.82469e-07
1.13417e-05
4.96062e-06
8.89615e-07
9.96003e-06
6.01385e-06
8.2606e-07
8.28608e-06
6.47116e-06
9.01637e-07
5.90828e-06
6.83448e-06
1.40414e-06
1.69225e-06
7.34547e-06
2.41593e-06
-3.48209e-06
6.90348e-06
3.03974e-06
-7.19088e-06
5.44716e-06
2.25877e-06
-8.74405e-06
3.7889e-06
9.63672e-07
-8.69987e-06
2.24471e-06
-3.31053e-07
-7.85669e-06
1.07763e-06
-1.38778e-06
-6.63496e-06
2.04379e-07
-2.24105e-06
-5.17223e-06
-4.14173e-07
-2.99759e-06
-3.39085e-06
-6.86251e-07
-3.71571e-06
-1.3227e-06
-5.47349e-07
-4.41503e-06
1.12739e-06
-3.26976e-07
-4.96657e-06
3.61392e-06
-6.34109e-09
-4.47288e-06
5.18246e-06
7.72638e-07
-2.84456e-06
4.99468e-06
2.00379e-06
-5.58702e-07
3.26732e-06
3.88447e-06
5.42339e-07
5.29358e-07
6.1301e-06
7.67125e-07
-1.96771e-06
8.68028e-06
1.70061e-07
-3.75878e-06
1.0767e-05
-1.62533e-07
-3.41537e-06
1.12689e-05
-2.03219e-06
1.19493e-05
-4.77037e-06
-4.15979e-06
-4.01293e-06
1.81529e-07
-2.91545e-06
-4.66224e-06
-8.15723e-07
-2.70295e-06
-3.59655e-06
9.67583e-08
-2.01514e-06
-4.01363e-06
-1.30578e-07
-1.58553e-06
-3.25583e-06
2.91402e-07
-9.13968e-07
-2.96611e-06
2.79721e-07
-3.75686e-07
-1.25877e-06
2.42933e-07
-7.66379e-08
-3.66686e-07
2.11588e-07
-1.39035e-08
5.7027e-07
2.13545e-08
-1.18319e-07
6.9881e-07
-4.4471e-08
-2.45801e-07
6.62591e-07
-1.36049e-07
-4.47314e-07
6.10302e-07
-1.57322e-07
-5.58771e-07
4.73892e-07
-2.17852e-07
-5.98967e-07
3.36151e-07
-2.57784e-07
-5.54604e-07
2.111e-07
-2.94388e-07
-4.8295e-07
1.50291e-07
-3.17163e-07
-4.0236e-07
1.60546e-07
-3.31058e-07
-3.25199e-07
1.67145e-07
-3.44185e-07
-2.6043e-07
2.07479e-07
-3.47506e-07
-2.05399e-07
2.34293e-07
-3.50232e-07
-1.65105e-07
2.71516e-07
-3.46839e-07
-1.37032e-07
3.01372e-07
-3.42929e-07
-1.20182e-07
3.29732e-07
-3.38137e-07
-1.1252e-07
3.54073e-07
-3.34449e-07
-1.11401e-07
3.7563e-07
-3.31369e-07
-1.13635e-07
3.93039e-07
-3.29358e-07
-1.16744e-07
4.06994e-07
-3.28136e-07
-1.19478e-07
4.19356e-07
-3.273e-07
-1.21531e-07
4.3151e-07
-3.26552e-07
-1.231e-07
4.4364e-07
-3.25536e-07
-1.24924e-07
4.55591e-07
-3.24336e-07
-1.26037e-07
4.69235e-07
-3.22717e-07
-1.26756e-07
4.77405e-07
-3.22361e-07
-1.28318e-07
4.96931e-07
-3.18431e-07
-1.25026e-07
4.92033e-07
-3.20752e-07
-1.29281e-07
5.28992e-07
-3.11666e-07
-1.22269e-07
5.00976e-07
-3.18554e-07
-1.34688e-07
5.6614e-07
-3.01261e-07
-1.36052e-07
5.07337e-07
-3.09606e-07
-1.64668e-07
6.05012e-07
-2.84475e-07
-2.13758e-07
5.24596e-07
-2.8274e-07
-2.65248e-07
6.31588e-07
-2.62916e-07
-4.19944e-07
5.87052e-07
-2.35648e-07
-4.9734e-07
6.17183e-07
-2.5007e-07
-7.55297e-07
6.33494e-07
-2.02499e-07
-8.12999e-07
5.20243e-07
-2.81255e-07
-1.04293e-06
4.9537e-07
-1.98384e-07
-1.03948e-06
3.22064e-07
-3.30272e-07
-1.171e-06
1.45604e-07
-4.28698e-08
-1.3491e-06
1.31926e-07
-1.46855e-07
-1.72932e-06
3.14539e-07
3.73756e-07
-1.67338e-06
-2.4207e-07
3.57445e-08
-1.00552e-06
-2.19485e-06
-2.41738e-07
-6.2831e-07
-2.51181e-06
-3.51317e-07
2.26173e-06
-6.74832e-06
-1.22985e-06
3.61439e-06
-7.29973e-07
-2.61036e-06
1.2022e-05
-1.49267e-06
-6.35323e-06
1.38583e-05
2.39624e-05
-5.59231e-06
4.83319e-06
-4.76472e-06
1.68744e-05
-3.64003e-05
-2.8021e-05
-3.38052e-06
-0.000106918
-3.8256e-05
3.81107e-07
-0.000106601
-2.19111e-05
4.72429e-06
-0.000104041
-2.18182e-05
-1.09203e-06
-8.58351e-05
-1.18854e-05
-1.56433e-06
-3.32846e-05
-4.71764e-06
-2.8141e-06
4.81272e-06
-1.04899e-06
-1.97865e-06
7.7392e-06
9.31764e-07
-1.33596e-06
9.74251e-06
2.145e-06
-1.44207e-07
1.02628e-05
3.15942e-06
8.31407e-07
9.41715e-06
3.97919e-06
1.66397e-06
7.66355e-06
4.87837e-06
2.20935e-06
5.2273e-06
5.52924e-06
2.53302e-06
2.33039e-06
6.92865e-06
2.67277e-06
-1.63433e-06
8.41492e-06
2.90966e-06
-7.08437e-06
9.52985e-06
3.04496e-06
-1.2296e-05
9.69019e-06
2.4733e-06
-1.57218e-05
9.25763e-06
1.4512e-06
-1.73642e-05
8.10525e-06
2.88657e-07
-1.79037e-05
7.03952e-06
-1.33602e-06
-1.76673e-05
5.89794e-06
-2.25955e-06
-1.69493e-05
4.55407e-06
-3.05993e-06
-1.58683e-05
3.18102e-06
-3.58003e-06
-1.41534e-05
1.88996e-06
-3.68062e-06
-1.173e-05
6.8991e-07
-3.74565e-06
-8.77262e-06
-2.91086e-08
-3.75954e-06
-5.60187e-06
-1.92125e-07
-3.35301e-06
-2.77459e-06
-8.29455e-08
-2.88238e-06
-1.39417e-06
4.27598e-07
-1.50526e-06
-1.77471e-06
6.94321e-07
3.96158e-07
-3.18565e-06
1.95601e-06
1.50221e-06
-4.74971e-06
4.05679e-06
1.46012e-06
-6.09137e-06
6.61829e-06
9.94509e-07
-6.83618e-06
9.29838e-06
3.42067e-07
-6.56677e-06
1.10953e-05
-3.69692e-07
-4.6613e-06
1.18335e-05
-2.26211e-06
1.31094e-05
-4.60497e-06
-4.5026e-06
-4.0336e-06
1.27411e-07
-3.09291e-06
-5.00931e-06
-1.06261e-06
-2.96894e-06
-3.69287e-06
-2.76293e-08
-2.17268e-06
-4.17814e-06
-6.31736e-07
-1.82041e-06
-3.56933e-06
-3.87429e-08
-1.0774e-06
-3.6564e-06
-5.2721e-08
-4.40463e-07
-2.26972e-06
3.74015e-07
-1.51614e-07
-1.05012e-06
3.94581e-07
1.3291e-08
2.25038e-07
1.8032e-07
5.23542e-08
6.04587e-07
5.51483e-08
7.0855e-09
7.72261e-07
-6.44107e-08
-2.35886e-07
9.16625e-07
-6.33624e-08
-4.35164e-07
8.20968e-07
-1.47807e-07
-5.38457e-07
6.45377e-07
-2.05942e-07
-5.13656e-07
4.62245e-07
-2.75955e-07
-4.49866e-07
4.04095e-07
-3.17603e-07
-3.77915e-07
4.30398e-07
-3.41813e-07
-3.18855e-07
4.66488e-07
-3.58411e-07
-2.68843e-07
5.23362e-07
-3.65906e-07
-2.27291e-07
5.62433e-07
-3.69701e-07
-1.96277e-07
6.06272e-07
-3.6578e-07
-1.74876e-07
6.38442e-07
-3.5848e-07
-1.62139e-07
6.6703e-07
-3.50045e-07
-1.56799e-07
6.90006e-07
-3.4128e-07
-1.56632e-07
7.08437e-07
-3.32984e-07
-1.59605e-07
7.21938e-07
-3.25933e-07
-1.64045e-07
7.31532e-07
-3.20107e-07
-1.68564e-07
7.39212e-07
-3.15344e-07
-1.72656e-07
7.46988e-07
-3.11396e-07
-1.75826e-07
7.5476e-07
-3.07956e-07
-1.78539e-07
7.63071e-07
-3.04777e-07
-1.79608e-07
7.72141e-07
-3.01841e-07
-1.81359e-07
7.78295e-07
-2.99149e-07
-1.8214e-07
7.91307e-07
-2.93599e-07
-1.8259e-07
7.85941e-07
-2.93469e-07
-1.86289e-07
8.14637e-07
-2.8195e-07
-1.91522e-07
7.92052e-07
-2.85853e-07
-2.04983e-07
8.44351e-07
-2.64753e-07
-2.3383e-07
8.059e-07
-2.69725e-07
-2.63016e-07
8.77567e-07
-2.43371e-07
-3.5039e-07
8.50961e-07
-2.38999e-07
-3.92436e-07
9.00228e-07
-2.26595e-07
-5.65643e-07
9.62981e-07
-2.02728e-07
-6.08752e-07
8.92647e-07
-2.32353e-07
-8.34587e-07
1.06903e-06
-2.09709e-07
-8.56403e-07
8.26482e-07
-2.8442e-07
-1.02692e-06
9.43509e-07
-2.77627e-07
-1.01823e-06
7.07874e-07
-3.94495e-07
-1.18913e-06
4.89947e-07
-1.73448e-07
-1.17314e-06
5.02653e-07
-3.86718e-07
-7.83333e-07
2.20396e-08
-9.73097e-08
-6.37535e-07
-3.01248e-07
-8.66231e-08
-1.28403e-06
-1.48889e-06
-5.94802e-08
-9.0187e-07
-1.70416e-06
-1.18982e-06
2.76194e-06
-7.8539e-06
-2.55834e-06
8.40812e-06
-1.02083e-07
-6.27408e-06
1.46723e-05
1.8727e-06
-9.62986e-06
2.24887e-05
2.09142e-05
-4.7681e-06
8.30689e-06
-1.2914e-05
2.01543e-05
-4.40597e-05
-1.81061e-05
-3.02508e-06
-0.000116301
-3.10695e-05
-2.54663e-07
-0.000116474
-1.91201e-05
4.52205e-06
-0.000119304
-2.1731e-05
-1.13289e-07
-0.000120689
-1.5659e-05
-6.56098e-08
-0.000116423
-8.73286e-06
-6.39261e-07
-0.000113034
-4.46044e-06
-1.50447e-07
-0.000108421
-1.52926e-06
1.16648e-06
-0.00010936
3.07388e-07
1.75569e-06
-0.000112674
2.95513e-06
2.40378e-06
-0.000114087
4.70365e-06
2.95448e-06
-0.000117991
6.65838e-06
3.01653e-06
-0.000123335
8.62671e-06
2.51963e-06
-0.000129654
1.01392e-05
2.07448e-06
-0.000135705
1.10607e-05
1.57306e-06
-0.000139025
1.15228e-05
6.31375e-07
-0.000140206
1.12781e-05
1.10732e-07
-0.000140958
1.06704e-05
-6.81148e-07
-0.000141771
9.60531e-06
-1.29709e-06
-0.000140271
8.45689e-06
-1.60224e-06
-0.00012008
6.34101e-06
-1.53396e-06
-0.00012298
4.81106e-06
-1.30773e-06
-0.000143426
2.7479e-06
-6.32288e-07
-0.000139262
8.40065e-07
-2.17319e-07
-0.000134837
-1.11501e-06
1.36318e-07
-0.00013319
-2.26692e-06
3.29081e-07
-0.000129097
-2.70618e-06
4.45402e-07
-0.000107728
-2.72126e-06
6.60645e-07
-5.14257e-05
-1.875e-06
1.01926e-06
-1.04716e-05
-1.72337e-06
1.05005e-06
-1.03962e-05
1.68885e-07
1.11821e-06
-1.1014e-05
2.86925e-06
1.17349e-06
-1.09025e-05
5.5721e-06
1.03965e-06
-9.94433e-06
8.04769e-06
4.99532e-07
-7.9127e-06
9.59577e-06
-3.69941e-07
-5.06244e-06
1.17472e-05
-2.22994e-06
1.31502e-05
-4.19222e-06
-5.00528e-06
-3.59368e-06
2.58412e-08
-3.36099e-06
-5.0363e-06
-1.6173e-06
-3.19915e-06
-3.42155e-06
-4.33151e-07
-2.16755e-06
-3.78037e-06
-1.42935e-06
-1.70764e-06
-3.25463e-06
-7.746e-07
-9.95948e-07
-3.50041e-06
-8.67679e-07
-2.6789e-07
-2.79243e-06
-2.0535e-07
-9.7583e-09
-1.53334e-06
2.25079e-07
2.99083e-08
-2.6717e-08
2.12075e-07
7.57763e-08
4.63819e-07
9.48888e-08
1.30765e-07
7.23133e-07
-5.87464e-09
-7.73225e-08
1.09378e-06
3.09237e-08
-2.89292e-07
1.09605e-06
-6.31193e-08
-4.2127e-07
9.29685e-07
-1.52342e-07
-4.09011e-07
7.22455e-07
-2.72479e-07
-3.73016e-07
6.97044e-07
-3.28956e-07
-3.311e-07
7.49424e-07
-3.60952e-07
-3.06081e-07
8.10391e-07
-3.68934e-07
-2.85472e-07
8.76136e-07
-3.73394e-07
-2.68849e-07
9.18594e-07
-3.72794e-07
-2.57258e-07
9.61761e-07
-3.6709e-07
-2.4899e-07
9.89936e-07
-3.59772e-07
-2.45432e-07
1.01464e-06
-3.51175e-07
-2.46327e-07
1.03259e-06
-3.41701e-07
-2.50245e-07
1.04515e-06
-3.32806e-07
-2.55735e-07
1.05206e-06
-3.24638e-07
-2.61943e-07
1.05478e-06
-3.17043e-07
-2.67945e-07
1.05463e-06
-3.09428e-07
-2.73771e-07
1.05464e-06
-3.01831e-07
-2.78951e-07
1.05506e-06
-2.95128e-07
-2.8409e-07
1.05674e-06
-2.88532e-07
-2.87741e-07
1.05838e-06
-2.82597e-07
-2.92765e-07
1.06004e-06
-2.76724e-07
-2.93323e-07
1.06299e-06
-2.71133e-07
-2.99326e-07
1.05813e-06
-2.66188e-07
-2.99971e-07
1.07262e-06
-2.57349e-07
-3.1881e-07
1.06317e-06
-2.52284e-07
-3.26484e-07
1.09051e-06
-2.38495e-07
-3.78966e-07
1.08968e-06
-2.31299e-07
-3.97273e-07
1.11434e-06
-2.18477e-07
-5.0393e-07
1.16127e-06
-2.03652e-07
-5.21675e-07
1.12548e-06
-2.07513e-07
-6.6797e-07
1.3025e-06
-1.93222e-07
-6.58853e-07
1.10549e-06
-2.21962e-07
-8.17406e-07
1.46055e-06
-2.32954e-07
-7.80099e-07
1.06317e-06
-2.73999e-07
-9.95191e-07
1.4451e-06
-2.86497e-07
-9.58859e-07
1.05738e-06
-3.85838e-07
-1.31695e-06
1.08459e-06
-2.36545e-07
-1.24672e-06
9.63026e-07
-5.30601e-07
-1.3107e-06
5.15583e-07
-4.29555e-07
-1.71078e-06
4.66547e-07
-3.67718e-07
-1.20018e-06
-1.36346e-06
-6.36037e-07
1.02569e-06
-2.07859e-06
-1.85145e-06
3.3985e-06
-6.33003e-06
-3.89678e-06
1.16754e-05
-7.14949e-07
-7.66403e-06
1.76108e-05
6.65592e-06
-1.07187e-05
3.01382e-05
1.49623e-05
-6.57544e-06
8.79753e-07
-7.69902e-06
1.91313e-05
-6.59377e-05
-7.19369e-06
-2.68485e-06
-0.000136928
-1.3266e-05
-8.04399e-07
-0.000130656
-1.27029e-05
3.60316e-06
-0.000136716
-1.53121e-05
1.24919e-06
-0.000152622
-1.53731e-05
9.46528e-07
-0.000153045
-1.17006e-05
7.64597e-07
-0.000146564
-9.28e-06
1.16967e-06
-0.000140061
-5.06111e-06
1.38821e-06
-0.0001453
-2.41255e-06
1.68679e-06
-0.000152429
1.98437e-06
1.86762e-06
-0.000146616
4.7225e-06
1.94626e-06
-0.000146875
7.07911e-06
1.93312e-06
-0.00015793
9.48151e-06
1.76167e-06
-0.000157595
1.06424e-05
1.48876e-06
-0.000159983
1.13961e-05
1.29187e-06
-0.000162372
1.16896e-05
8.99521e-07
-0.000159078
1.12866e-05
2.86624e-07
-0.000148125
1.0404e-05
-2.37544e-08
-0.000146781
9.23006e-06
-2.56236e-07
-0.000157297
7.66547e-06
3.50095e-08
-0.000157521
4.80578e-06
5.39453e-07
-0.000158124
3.07384e-06
9.47344e-07
-0.000158668
7.73946e-07
1.25595e-06
-0.000158615
-1.39585e-06
1.79582e-06
-0.000158482
-3.53648e-06
2.17949e-06
-0.000160148
-5.06137e-06
2.34086e-06
-0.000154242
-5.97136e-06
2.30357e-06
-0.00014589
-6.57077e-06
1.81734e-06
-0.000135119
-5.95059e-06
1.32462e-06
-0.000115217
-4.11971e-06
8.82236e-07
-0.00010559
-2.08327e-06
8.7294e-07
-6.15819e-05
1.32773e-06
1.02533e-06
-1.51997e-05
2.75387e-06
7.14882e-07
-6.89987e-05
5.6358e-06
-1.01444e-07
-0.000122918
8.65893e-06
-1.17467e-06
-0.000124839
1.13846e-05
-2.73405e-06
1.23319e-05
-3.49671e-06
-5.35308e-06
-2.55427e-06
6.48039e-08
-3.61815e-06
-4.51952e-06
-2.25169e-06
-3.51833e-06
-2.68706e-06
-8.343e-07
-2.29297e-06
-3.00837e-06
-1.99736e-06
-1.60617e-06
-2.48632e-06
-1.4551e-06
-9.52161e-07
-2.72997e-06
-1.42445e-06
-1.60087e-07
-2.45903e-06
-1.12549e-06
2.27359e-07
-1.46498e-06
-4.55821e-07
3.01813e-07
-4.32024e-08
-5.79824e-08
1.96321e-07
5.39038e-07
3.02576e-08
1.95326e-07
7.40296e-07
-1.61828e-08
1.21036e-07
1.12765e-06
4.03979e-08
4.74711e-08
1.26031e-06
-9.07093e-08
-3.00366e-08
1.20767e-06
-2.00491e-07
-8.49535e-08
1.13814e-06
-3.60783e-07
-1.49987e-07
1.18458e-06
-4.22521e-07
-2.04563e-07
1.28159e-06
-4.77603e-07
-2.53689e-07
1.35456e-06
-4.95057e-07
-2.92055e-07
1.4278e-06
-5.13315e-07
-3.25799e-07
1.47582e-06
-5.23495e-07
-3.54398e-07
1.52113e-06
-5.30784e-07
-3.72639e-07
1.5436e-06
-5.35438e-07
-3.83668e-07
1.5615e-06
-5.3585e-07
-3.90888e-07
1.57437e-06
-5.34566e-07
-3.96305e-07
1.5833e-06
-5.32744e-07
-4.00689e-07
1.5879e-06
-5.3147e-07
-4.05276e-07
1.5894e-06
-5.30053e-07
-4.10025e-07
1.58828e-06
-5.28906e-07
-4.14747e-07
1.58708e-06
-5.27726e-07
-4.19239e-07
1.58619e-06
-5.26648e-07
-4.23847e-07
1.58652e-06
-5.25189e-07
-4.27915e-07
1.58674e-06
-5.24299e-07
-4.35785e-07
1.58991e-06
-5.22009e-07
-4.4025e-07
1.59036e-06
-5.22914e-07
-4.54728e-07
1.59201e-06
-5.19418e-07
-4.57601e-07
1.59562e-06
-5.20129e-07
-4.90862e-07
1.60619e-06
-5.0976e-07
-4.93237e-07
1.60373e-06
-5.10849e-07
-5.60055e-07
1.64781e-06
-4.91323e-07
-5.60653e-07
1.61357e-06
-4.98626e-07
-6.64172e-07
1.73938e-06
-4.74593e-07
-6.41557e-07
1.60025e-06
-4.97382e-07
-7.25599e-07
1.87377e-06
-4.87224e-07
-6.47925e-07
1.54859e-06
-5.2076e-07
-6.94449e-07
2.05347e-06
-5.46397e-07
-5.85956e-07
1.53315e-06
-5.78457e-07
-7.68811e-07
2.23682e-06
-6.08856e-07
-7.57496e-07
1.70145e-06
-6.55376e-07
-1.3082e-06
2.30096e-06
-6.65654e-07
-1.3278e-06
1.80263e-06
-8.19992e-07
-2.00332e-06
2.37896e-06
-1.18785e-06
-2.41349e-06
2.04431e-06
-1.16758e-06
-2.66912e-06
1.69369e-06
-2.80153e-06
-1.48935e-06
2.7932e-06
-6.05156e-06
-2.15891e-06
2.68575e-06
-8.34625e-06
2.33537e-06
3.11676e-06
-8.32596e-06
8.92734e-06
1.01646e-05
-1.01007e-05
2.93344e-05
-1.89196e-06
-3.55273e-06
-1.62077e-07
-3.37507e-06
1.9082e-05
-8.13487e-05
8.09578e-06
-3.47132e-06
-0.000168394
1.34085e-05
-2.78531e-06
-0.000177531
-2.68288e-06
3.62107e-06
-0.000183508
-3.19129e-06
-2.7655e-07
-0.000191879
-8.48579e-06
1.02899e-06
-0.000197617
-8.67579e-06
2.58527e-07
-0.000200143
-8.85594e-06
7.5165e-07
-0.000200893
-5.64105e-06
1.20522e-06
-0.000202809
-2.97801e-06
1.4408e-06
-0.000204576
3.70461e-07
1.67176e-06
-0.000205297
3.02792e-06
1.91687e-06
-0.000206407
5.92886e-06
1.99543e-06
-0.000207587
7.8698e-06
1.90634e-06
-0.000206579
9.34234e-06
1.66269e-06
-0.000204857
1.01205e-05
1.17091e-06
-0.000203461
1.03274e-05
5.29201e-07
-0.000202917
9.81362e-06
-3.91782e-08
-0.000206142
8.93486e-06
-4.29085e-07
-0.000203881
7.41704e-06
-5.82802e-07
-0.000197475
5.32401e-06
-5.10824e-07
-0.000196488
2.98327e-06
-2.79682e-07
-0.000194496
7.97325e-07
8.82896e-08
-0.000192192
-1.19408e-06
7.73026e-07
-0.000191886
-3.34249e-06
1.70347e-06
-0.00019113
-4.57557e-06
2.71295e-06
-0.000185933
-5.74112e-06
3.70942e-06
-0.000179085
-6.30568e-06
4.0567e-06
-0.000180288
-6.76273e-06
3.76459e-06
-0.000192698
-6.69835e-06
2.89365e-06
-0.000205237
-5.47184e-06
1.43511e-06
-0.000203524
-4.09289e-06
3.55829e-08
-0.000197006
-1.73334e-06
5.21232e-08
-0.000196222
-1.83714e-07
-4.79573e-07
-0.000190397
1.60939e-06
-9.32559e-07
-0.000182419
2.30063e-06
-1.84986e-06
-0.000173732
2.89135e-06
-2.29371e-06
2.05839e-06
-1.95049e-06
-5.14008e-06
-2.96438e-07
2.96371e-06
-3.78697e-06
-4.25689e-06
-1.61573e-06
-3.93251e-06
-1.61409e-06
-9.27416e-07
-2.79288e-06
-2.21331e-06
-1.93468e-06
-2.01399e-06
-1.66869e-06
-1.59652e-06
-1.14145e-06
-2.02386e-06
-1.57866e-06
-1.82912e-07
-1.90218e-06
-1.51539e-06
2.64539e-07
-1.0705e-06
-8.41951e-07
3.88128e-07
2.20746e-07
-3.87554e-07
3.24165e-07
5.87025e-07
1.59579e-08
2.95317e-07
5.78846e-07
1.90283e-07
3.11815e-07
7.61183e-07
3.49957e-07
2.96135e-07
9.92372e-07