/*--------------------------------*- C++ -*----------------------------------*\
| =========                 |                                                 |
| \\      /  F ield         | OpenFOAM: The Open Source CFD Toolbox           |
|  \\    /   O peration     | Version:  2.3.0                                 |
|   \\  /    A nd           | Web:      www.OpenFOAM.org                      |
|    \\/     M anipulation  |                                                 |
\*---------------------------------------------------------------------------*/
FoamFile
{
    version     2.0;
    format      ascii;
    class       surfaceScalarField;
    location    "22";
    object      phi.air;
}
// * * * * * * * * * * * * * * * * * * * * * * * * * * * * * * * * * * * * * //

dimensions      [0 3 -1 0 0 0 0];

internalField   nonuniform List<scalar> 
16448
(
-9.35005e-07
-2.19969e-06
6.85476e-07
4.24877e-07
-2.18246e-06
8.22579e-07
7.62955e-07
-1.3556e-06
1.01752e-06
9.8026e-07
-1.19952e-06
9.82209e-07
8.78728e-07
-7.44602e-07
8.46131e-07
7.70091e-07
-6.03567e-07
7.12201e-07
5.48315e-07
-3.15645e-07
5.37417e-07
3.23326e-07
-2.47992e-07
4.72978e-07
5.70404e-08
-1.8578e-07
4.52062e-07
-1.88082e-07
-1.68353e-07
4.13472e-07
-3.67064e-07
-1.97689e-07
3.76667e-07
-4.20378e-07
-2.61468e-07
3.14778e-07
-3.96005e-07
-3.20534e-07
2.96156e-07
-3.0248e-07
-3.73231e-07
2.79701e-07
-2.16626e-07
-4.01983e-07
3.16126e-07
-1.3027e-07
-4.27976e-07
3.41616e-07
-7.77355e-08
-4.38402e-07
3.85865e-07
-3.69678e-08
-4.51808e-07
4.11038e-07
-1.38179e-08
-4.61592e-07
4.38442e-07
8.21079e-10
-4.67087e-07
4.52448e-07
7.74852e-09
-4.68727e-07
4.61801e-07
9.508e-09
-4.66397e-07
4.6464e-07
7.8493e-09
-4.6226e-07
4.63924e-07
4.25873e-09
-4.5659e-07
4.60185e-07
-2.52204e-10
-4.49916e-07
4.54434e-07
-5.13742e-09
-4.42625e-07
4.47518e-07
-1.04175e-08
-4.34748e-07
4.40038e-07
-1.66252e-08
-4.26121e-07
4.32339e-07
-2.40743e-08
-4.16722e-07
4.24183e-07
-3.17288e-08
-4.07703e-07
4.15371e-07
-3.77861e-08
-3.98731e-07
4.04803e-07
-4.01454e-08
-3.88535e-07
3.9091e-07
-3.47865e-08
-3.77428e-07
3.72086e-07
-1.57296e-08
-3.66192e-07
3.47153e-07
2.43821e-08
-3.55886e-07
3.15793e-07
9.30132e-08
-3.48082e-07
2.79471e-07
1.94968e-07
-3.43857e-07
2.41921e-07
3.25424e-07
-3.4341e-07
2.12976e-07
4.73556e-07
-3.46348e-07
1.98234e-07
6.18153e-07
-3.50878e-07
2.06304e-07
7.19618e-07
-3.51992e-07
2.50544e-07
7.32027e-07
-3.60322e-07
3.47936e-07
6.02746e-07
-3.74378e-07
5.03674e-07
3.74057e-07
-3.89658e-07
6.18368e-07
2.73623e-07
-5.29526e-07
6.29973e-07
6.53059e-07
-9.47505e-07
5.68088e-07
1.42001e-06
-1.20862e-06
4.41671e-07
1.72054e-06
-7.51148e-07
4.50633e-07
7.37327e-07
-6.13767e-09
9.89339e-07
-2.51443e-06
1.08576e-06
2.16598e-06
-4.11552e-06
-1.38055e-06
2.98161e-06
7.80011e-07
-9.23256e-06
4.33702e-06
7.36282e-06
-1.22974e-05
5.71454e-06
1.26169e-05
-1.29961e-05
7.74198e-06
1.52876e-05
-1.10636e-05
8.39279e-06
1.87076e-05
-1.07141e-05
7.29407e-06
1.37115e-05
-3.216e-06
8.21197e-06
1.26306e-05
-1.37578e-06
2.45564e-06
-1.09732e-05
1.15271e-05
1.15238e-05
-3.36156e-05
-6.91141e-06
-4.24719e-06
-5.70734e-05
-2.44356e-05
9.66359e-06
-9.29429e-06
-5.12991e-06
1.3615e-05
3.24261e-05
-6.85821e-06
9.54805e-06
3.26553e-05
-7.39959e-06
6.97578e-06
3.29611e-05
-6.15008e-06
5.56884e-06
3.34099e-05
-4.99883e-06
4.40243e-06
3.43413e-05
-4.02645e-06
3.06172e-06
3.53145e-05
-3.04032e-06
2.09832e-06
3.67173e-05
-2.57083e-06
1.13346e-06
3.79827e-05
-2.12317e-06
8.25298e-07
3.88868e-05
-1.59413e-06
6.92258e-07
3.9227e-05
-1.25955e-06
9.3326e-07
3.88626e-05
-1.15086e-06
1.50439e-06
3.82136e-05
-1.47935e-06
2.11461e-06
3.74416e-05
-2.52444e-06
3.23738e-06
3.58457e-05
-2.87805e-06
4.48915e-06
3.34481e-05
-2.25749e-06
4.66607e-06
3.09912e-05
-2.1543e-06
4.56127e-06
2.84452e-05
-1.56114e-06
4.07505e-06
2.56818e-05
-1.24274e-06
3.88223e-06
2.31385e-05
-1.45124e-06
3.92199e-06
2.01193e-05
7.6497e-09
3.06129e-06
1.28404e-05
4.69282e-06
2.55615e-06
3.69629e-06
6.91889e-06
2.05924e-06
-3.78563e-06
5.75638e-06
1.82057e-06
-6.89599e-06
4.04321e-06
-6.90924e-07
-7.90184e-06
2.73781e-06
-1.63504e-06
-9.02014e-06
2.39218e-06
-1.23355e-06
-8.74958e-06
2.45651e-06
-2.82776e-06
-7.49362e-06
1.44818e-06
-2.86861e-06
-6.27911e-06
-3.73124e-07
-9.19144e-07
-5.94939e-06
-1.30715e-06
1.00204e-06
-5.79448e-06
-1.87422e-06
1.75361e-06
-5.18242e-06
-2.64022e-06
2.08793e-06
-3.94836e-06
-3.50751e-06
2.28282e-06
-4.72606e-06
1.56445e-06
-2.08503e-06
-3.40544e-06
1.38028e-08
-9.72579e-07
-3.35302e-06
5.81119e-08
-4.89768e-07
-2.27849e-06
4.40076e-07
6.42833e-08
-2.0451e-06
2.91529e-07
3.96096e-07
-1.25055e-06
1.74131e-07
5.65205e-07
-8.4685e-07
7.417e-08
4.69038e-07
-2.06253e-07
-1.32292e-08
2.0994e-07
-2.81395e-08
3.92408e-08
-1.24082e-07
7.46589e-08
7.35779e-08
-3.84145e-07
1.96642e-08
7.20397e-08
-5.56724e-07
-6.51966e-08
4.00806e-08
-6.03929e-07
-1.91359e-07
-2.29098e-08
-5.78594e-07
-2.92998e-07
-5.28777e-08
-4.84497e-07
-3.8913e-07
-7.82039e-08
-3.78681e-07
-4.42381e-07
-6.54237e-08
-2.6592e-07
-4.88409e-07
-5.23324e-08
-1.87879e-07
-4.97069e-07
-1.93765e-08
-1.23822e-07
-5.15074e-07
-7.90475e-10
-8.45972e-08
-5.167e-07
1.58839e-08
-5.59957e-08
-5.19357e-07
2.36721e-08
-4.10567e-08
-5.1308e-07
2.94198e-08
-3.29176e-08
-5.0517e-07
3.06412e-08
-3.08615e-08
-4.94154e-07
2.98472e-08
-3.2152e-08
-4.82131e-07
2.68445e-08
-3.56946e-08
-4.69205e-07
2.28467e-08
-4.04038e-08
-4.56086e-07
1.81873e-08
-4.5821e-08
-4.42523e-07
1.32117e-08
-5.1954e-08
-4.28102e-07
8.1358e-09
-5.9007e-08
-4.12704e-07
3.05934e-09
-6.51597e-08
-3.97176e-07
-4.34772e-09
-6.74298e-08
-3.81456e-07
-1.49764e-08
-6.33352e-08
-3.65114e-07
-2.7485e-08
-4.84419e-08
-3.49081e-07
-4.32082e-08
-1.69788e-08
-3.34989e-07
-6.2632e-08
3.6687e-08
-3.24831e-07
-8.46862e-08
1.17184e-07
-3.21218e-07
-1.07326e-07
2.2567e-07
-3.24607e-07
-1.27699e-07
3.568e-07
-3.33873e-07
-1.4063e-07
4.99419e-07
-3.4831e-07
-1.40621e-07
6.31648e-07
-3.64275e-07
-1.18798e-07
7.13718e-07
-3.72201e-07
-6.18254e-08
6.98203e-07
-3.79396e-07
3.4619e-08
5.92362e-07
-4.15095e-07
1.4659e-07
5.01945e-07
-5.00833e-07
2.01619e-07
7.34574e-07
-8.68645e-07
1.06515e-07
1.5711e-06
-1.622e-06
-1.6201e-07
2.76602e-06
-2.01233e-06
-3.91193e-07
3.39398e-06
-1.03598e-06
-3.43128e-07
1.85219e-06
9.0225e-07
6.33386e-07
-6.36555e-07
1.787e-06
1.78748e-06
2.99603e-06
-6.89306e-06
1.87987e-06
8.23792e-06
-1.62241e-05
1.74958e-06
9.85946e-06
-1.81482e-05
4.22923e-06
1.03443e-05
-2.02611e-05
6.78015e-06
1.27337e-05
-1.90064e-05
5.55333e-06
1.83581e-05
-1.95545e-05
3.21594e-06
1.66987e-05
-4.77898e-06
3.22221e-06
1.89876e-05
-2.90475e-06
-7.59954e-07
-5.67905e-06
1.72833e-05
1.84935e-05
-3.27042e-05
-1.01579e-05
-3.72433e-06
-7.11714e-05
-3.05875e-05
1.58173e-06
-2.88998e-05
-8.08124e-06
1.0554e-05
9.0658e-06
-8.42705e-06
4.66211e-06
8.23782e-06
-7.05336e-06
3.96184e-07
8.46982e-06
-4.06144e-06
-2.08374e-06
1.1711e-05
-3.53301e-06
-4.774e-06
1.61102e-05
-2.27367e-06
-6.16998e-06
2.01695e-05
-2.35439e-07
-6.93506e-06
2.41926e-05
8.89306e-08
-6.83655e-06
2.74645e-05
5.02027e-07
-5.96857e-06
2.99423e-05
7.12124e-07
-4.80149e-06
3.13601e-05
8.11401e-07
-3.46359e-06
3.12844e-05
6.18349e-07
-1.59966e-06
2.85579e-05
1.67567e-07
1.14693e-06
2.25138e-05
-1.34914e-06
4.81734e-06
1.56598e-05
-2.06379e-06
5.99475e-06
1.1656e-05
-2.60909e-06
4.33574e-06
9.99204e-06
-3.23705e-06
2.7328e-06
8.92671e-06
-2.27823e-06
1.8113e-06
8.17418e-06
-2.48869e-06
1.98325e-06
7.64469e-06
-3.07757e-06
2.13774e-06
6.61671e-06
8.22036e-08
1.04171e-06
4.3134e-06
5.92324e-06
1.178e-06
-5.48299e-07
9.88466e-06
1.8193e-06
-5.14088e-06
8.69395e-06
1.7657e-06
-6.78762e-06
6.3991e-06
-4.09409e-07
-7.52028e-06
5.66329e-06
-2.12715e-06
-8.85304e-06
4.93115e-06
-1.30094e-06
-8.85958e-06
4.64616e-06
-2.37108e-06
-7.17049e-06
2.40767e-06
-2.89896e-06
-5.93789e-06
-3.3166e-07
-1.35392e-06
-5.83242e-06
-2.04294e-06
6.5322e-07
-5.7591e-06
-3.42318e-06
1.48933e-06
-5.26512e-06
-4.75062e-06
1.7068e-06
-4.3269e-06
-5.542e-06
1.26936e-06
-7.32645e-06
-5.85078e-07
-2.81368e-06
-4.05139e-06
-3.16064e-07
-1.83501e-06
-3.94732e-06
-3.84369e-07
-1.52261e-06
-2.7973e-06
2.06411e-07
-9.57718e-07
-2.68816e-06
7.81684e-08
-4.1306e-07
-1.81411e-06
1.89075e-08
-2.00852e-08
-1.15636e-06
-8.34649e-08
1.13036e-07
-1.02412e-07
-2.36966e-07
-5.05209e-08
2.8888e-07
-1.53467e-07
-3.0225e-07
4.65396e-07
-1.39014e-07
-4.76991e-07
3.20066e-07
-1.25666e-07
-5.86989e-07
1.9059e-07
-1.45795e-07
-6.37395e-07
5.07638e-08
-1.91724e-07
-6.39396e-07
-6.01365e-08
-2.30867e-07
-5.93879e-07
-1.72649e-07
-2.62005e-07
-5.09422e-07
-2.54259e-07
-2.72584e-07
-4.06083e-07
-3.15842e-07
-2.7591e-07
-3.18223e-07
-3.2383e-07
-2.61101e-07
-2.37016e-07
-3.43136e-07
-2.53146e-07
-1.82047e-07
-3.31231e-07
-2.40436e-07
-1.39534e-07
-3.27217e-07
-2.3465e-07
-1.13297e-07
-3.10819e-07
-2.28493e-07
-9.69602e-08
-2.95564e-07
-2.25935e-07
-8.9692e-08
-2.76663e-07
-2.24749e-07
-8.81393e-08
-2.58114e-07
-2.25558e-07
-9.06639e-08
-2.39565e-07
-2.27101e-07
-9.52593e-08
-2.21916e-07
-2.29558e-07
-1.0017e-07
-2.04889e-07
-2.32704e-07
-1.03612e-07
-1.88112e-07
-2.36526e-07
-1.03819e-07
-1.71279e-07
-2.41195e-07
-9.97148e-08
-1.54381e-07
-2.46874e-07
-9.00203e-08
-1.37541e-07
-2.53581e-07
-7.27439e-08
-1.21193e-07
-2.61167e-07
-4.61166e-08
-1.06432e-07
-2.69244e-07
-8.8971e-09
-9.5241e-08
-2.76934e-07
3.88586e-08
-8.92098e-08
-2.83342e-07
9.60074e-08
-9.02197e-08
-2.8811e-07
1.58766e-07
-9.84934e-08
-2.88836e-07
2.20333e-07
-1.11864e-07
-2.83538e-07
2.7015e-07
-1.28719e-07
-2.69371e-07
2.92237e-07
-1.48142e-07
-2.3818e-07
2.79782e-07
-1.74143e-07
-1.85569e-07
2.27506e-07
-2.16016e-07
-1.11067e-07
1.83969e-07
-3.42945e-07
-2.85836e-08
3.23556e-07
-5.92123e-07
-4.82654e-08
8.20674e-07
-1.12724e-06
-2.38497e-07
1.66381e-06
-1.93834e-06
-5.26781e-07
2.39711e-06
-2.17737e-06
-5.6825e-07
1.85695e-06
-3.63339e-07
-1.32489e-07
4.0874e-07
1.62137e-06
7.29076e-07
1.92538e-06
-4.99914e-07
7.70243e-07
6.10968e-06
-1.28331e-05
1.75573e-06
5.67192e-06
-1.96411e-05
3.85476e-06
4.23339e-07
-2.05697e-05
7.67e-06
-3.82574e-06
-2.34944e-05
7.48241e-06
1.6414e-06
-2.70912e-05
2.6175e-06
6.23372e-06
-2.49167e-05
7.69764e-07
1.10685e-05
-7.58617e-06
-2.0278e-06
2.31647e-05
-1.16109e-05
-3.38998e-06
-2.42265e-06
1.78556e-05
2.42366e-05
-3.64845e-05
-1.21533e-05
-1.82968e-06
-8.71232e-05
-3.13127e-05
-4.5666e-06
-4.48508e-05
-5.99691e-06
-2.06718e-06
-7.17423e-07
-3.95077e-06
-5.11871e-06
-5.08506e-06
2.12191e-06
-4.5829e-06
-1.31809e-06
-3.49683e-07
-7.55664e-06
2.51845e-06
-5.17028e-07
-6.16431e-06
8.44395e-06
-2.67097e-06
-5.69951e-06
1.43008e-05
-2.00017e-06
-3.79427e-06
1.91439e-05
-3.22394e-06
-1.34427e-06
2.21783e-05
-2.45443e-06
1.19873e-07
2.33629e-05
-2.19291e-06
1.84846e-06
2.28721e-05
-1.87537e-06
3.24701e-06
2.01393e-05
-1.59672e-06
4.98016e-06
1.45836e-05
-1.57044e-06
7.14436e-06
9.47857e-06
-2.76309e-06
6.4397e-06
7.90378e-06
-4.05477e-06
3.63834e-06
8.25839e-06
-4.79134e-06
1.84513e-06
9.65599e-06
-4.46001e-06
-2.18784e-07
1.05317e-05
-1.85375e-06
-1.33305e-06
9.01142e-06
-2.9239e-07
-7.34909e-07
5.05017e-06
-5.05706e-07
1.33736e-06
1.6372e-06
1.95014e-06
1.51466e-06
-1.39785e-06
8.92165e-06
-7.54301e-08
-4.18629e-06
1.23873e-05
2.13709e-07
-6.64718e-06
1.02173e-05
1.10527e-06
-8.20003e-06
8.94038e-06
-7.04084e-07
-9.69e-06
9.37721e-06
-2.29354e-06
-1.15054e-05
7.24095e-06
-7.09379e-07
-1.11119e-05
5.72493e-06
-1.66607e-06
-9.65927e-06
2.60988e-06
-1.83991e-06
-8.52565e-06
-4.6257e-07
-1.06213e-06
-7.74923e-06
-2.70595e-06
-1.40213e-07
-7.11831e-06
-4.58172e-06
5.74381e-07
-5.75331e-06
-5.79383e-06
-1.61682e-07
-4.20079e-06
-6.27119e-06
-5.81027e-07
-8.20087e-06
-2.0577e-06
-3.25382e-06
-4.3801e-06
-4.84695e-07
-1.98907e-06
-4.34954e-06
-8.62521e-07
-1.91431e-06
-2.99837e-06
1.26317e-07
-1.51415e-06
-3.10131e-06
1.29851e-08
-1.04161e-06
-2.44313e-06
1.56482e-07
-4.21416e-07
-1.88193e-06
1.05368e-07
1.68331e-08
-4.66785e-07
-7.38804e-08
4.73117e-08
2.86494e-07
-2.80984e-08
-1.59809e-07
7.93524e-07
-1.21014e-07
-3.55053e-07
6.70414e-07
-1.55112e-07
-4.62758e-07
5.04432e-07
-2.06146e-07
-5.75057e-07
4.03752e-07
-2.40696e-07
-6.30568e-07
2.82693e-07
-2.87327e-07
-6.36617e-07
1.52615e-07
-3.19221e-07
-5.76677e-07
2.81073e-08
-3.42313e-07
-4.87956e-07
-4.78315e-08
-3.56736e-07
-3.94191e-07
-5.93149e-08
-3.58284e-07
-3.05305e-07
-7.06049e-08
-3.61417e-07
-2.36597e-07
-4.43544e-08
-3.55583e-07
-1.81514e-07
-2.91038e-08
-3.53193e-07
-1.45301e-07
6.99079e-10
-3.47727e-07
-1.21177e-07
2.3422e-08
-3.43102e-07
-1.08729e-07
4.96998e-08
-3.38802e-07
-1.04712e-07
7.4241e-08
-3.36358e-07
-1.06118e-07
9.72251e-08
-3.35369e-07
-1.10261e-07
1.18107e-07
-3.35861e-07
-1.14801e-07
1.37251e-07
-3.3758e-07
-1.17312e-07
1.5488e-07
-3.40457e-07
-1.15735e-07
1.71464e-07
-3.44294e-07
-1.08479e-07
1.87225e-07
-3.48832e-07
-9.47257e-08
2.02498e-07
-3.53761e-07
-7.45564e-08
2.17362e-07
-3.58692e-07
-4.96742e-08
2.30908e-07
-3.62186e-07
-2.24521e-08
2.40868e-07
-3.63295e-07
4.2061e-09
2.45208e-07
-3.61035e-07
2.66344e-08
2.42597e-07
-3.55206e-07
4.04596e-08
2.33579e-07
-3.45854e-07
3.62637e-08
2.23192e-07
-3.30821e-07
-1.39087e-09
2.15378e-07
-3.06398e-07
-8.66887e-08
2.03416e-07
-2.66224e-07
-2.06303e-07
1.54396e-07
-2.0888e-07
-2.97457e-07
1.98085e-08
-1.44637e-07
-2.94553e-07
-2.523e-07
-9.35066e-08
-1.17227e-07
-6.34766e-07
-1.34658e-07
2.19487e-07
-1.1564e-06
-3.07525e-07
3.39151e-07
-1.63456e-06
-4.23429e-07
1.31558e-07
-1.57536e-06
-3.94394e-07
1.26548e-07
-7.06526e-08
-2.87685e-07
3.06575e-07
1.37205e-06
6.92878e-08
3.24603e-06
-3.72771e-06
2.88291e-07
1.86079e-06
-1.41913e-05
2.7434e-06
-8.92319e-06
-1.67477e-05
7.89057e-06
-1.61106e-05
-2.08385e-05
7.45625e-06
-1.60993e-05
-2.6475e-05
2.96923e-06
-1.26268e-05
-2.94774e-05
-1.08632e-06
-8.96914e-06
-2.48364e-05
-3.73787e-06
1.02021e-05
-2.0083e-05
-6.67474e-06
2.86239e-05
-2.92077e-05
-8.25289e-07
-9.91528e-07
2.19291e-05
2.35859e-05
-4.84536e-05
-1.25474e-05
5.4058e-07
-0.000118251
-2.85285e-05
-2.37607e-06
-0.000114921
-2.61054e-06
1.34628e-07
-0.000112912
-2.21658e-06
-3.00213e-06
-0.00011106
2.80965e-06
-3.339e-06
-0.000104692
-5.54223e-07
-4.68129e-06
-9.77639e-05
-1.61507e-06
-2.32764e-06
-8.35531e-05
-3.94053e-06
-1.39211e-06
-6.70238e-05
-3.51365e-06
5.30999e-07
-2.64461e-05
-3.68628e-06
1.97587e-06
7.31797e-06
-3.43735e-06
2.81095e-06
5.59139e-06
-2.39904e-06
3.73635e-06
2.04404e-06
-2.34308e-06
4.87842e-06
-3.35077e-05
-3.08542e-06
5.30341e-06
-3.54142e-05
-3.27773e-06
3.92747e-06
-5.15248e-06
-4.04802e-06
1.53149e-06
-2.8825e-06
-3.42032e-06
-2.271e-06
5.0052e-07
-2.8913e-06
-5.30899e-06
3.49792e-06
-1.48523e-06
-4.68044e-06
2.11074e-06
1.97262e-07
-2.76338e-07
-3.26517e-06
1.54959e-06
3.65419e-06
-7.93564e-06
1.75981e-06
2.21024e-06
-1.04711e-05
3.21513e-06
1.17909e-06
-1.11509e-05
8.79657e-06
8.53618e-07
-1.12698e-05
1.12762e-05
1.28801e-06
-1.27582e-05
1.15053e-05
3.63788e-07
-1.42617e-05
1.14904e-05
-1.09621e-06
-1.44186e-05
9.99189e-06
-8.23348e-07
-1.54601e-05
7.43297e-06
6.22277e-07
-1.494e-05
3.77445e-06
3.70874e-07
-1.36153e-05
1.115e-06
-2.78385e-08
-1.21292e-05
-1.00567e-06
-1.15e-06
-1.00456e-05
-3.30285e-06
-1.45913e-06
-7.52731e-06
-5.18134e-06
-1.80425e-06
-5.56971e-06
-5.76275e-06
-1.85489e-06
-4.08149e-06
-6.4936e-06
-1.0104e-06
-8.52125e-06
-2.31957e-06
-3.5772e-06
-4.52127e-06
-5.07634e-07
-2.15706e-06
-4.64161e-06
-1.12808e-06
-2.1604e-06
-3.03299e-06
3.79598e-08
-1.76248e-06
-3.22109e-06
-2.78142e-07
-1.46817e-06
-2.76868e-06
3.12478e-08
-8.83612e-07
-2.56843e-06
1.01942e-07
-2.68991e-07
-1.32837e-06
2.46958e-07
3.94323e-08
-1.9792e-07
1.75984e-07
7.65765e-08
7.49304e-07
7.06718e-09
-1.01701e-07
9.39614e-07
-9.09314e-08
-2.60793e-07
8.2528e-07
-1.61765e-07
-4.66085e-07
7.92284e-07
-1.8325e-07
-5.94682e-07
6.44723e-07
-2.33442e-07
-6.53445e-07
4.80669e-07
-2.69299e-07
-6.12272e-07
2.94586e-07
-3.07656e-07
-5.30017e-07
2.01256e-07
-3.31349e-07
-4.32429e-07
1.89395e-07
-3.463e-07
-3.43967e-07
1.98009e-07
-3.57079e-07
-2.7026e-07
2.43379e-07
-3.61438e-07
-2.08461e-07
2.7433e-07
-3.65231e-07
-1.61231e-07
3.1631e-07
-3.62834e-07
-1.29035e-07
3.51383e-07
-3.60149e-07
-1.09882e-07
3.86431e-07
-3.55872e-07
-1.00646e-07
4.16916e-07
-3.51899e-07
-9.80983e-08
4.43446e-07
-3.4875e-07
-9.91212e-08
4.65918e-07
-3.46769e-07
-1.00976e-07
4.84999e-07
-3.4587e-07
-1.0102e-07
5.0102e-07
-3.46071e-07
-9.70752e-08
5.14652e-07
-3.47104e-07
-8.78857e-08
5.26424e-07
-3.48358e-07
-7.36833e-08
5.37282e-07
-3.48954e-07
-5.68643e-08
5.48129e-07
-3.47549e-07
-4.14505e-08
5.58969e-07
-3.43437e-07
-3.22089e-08
5.67796e-07
-3.36129e-07
-3.32061e-08
5.72037e-07
-3.25793e-07
-4.91966e-08
5.71479e-07
-3.12846e-07
-8.85712e-08
5.68967e-07
-2.95972e-07
-1.65683e-07
5.71965e-07
-2.71612e-07
-2.94364e-07
5.79948e-07
-2.35848e-07
-4.74001e-07
5.7043e-07
-1.87327e-07
-6.64311e-07
4.82028e-07
-1.37286e-07
-7.75272e-07
2.43239e-07
-1.1242e-07
-7.45479e-07
-1.47812e-07
-1.34252e-07
-6.26171e-07
-5.27135e-07
-2.26896e-07
-6.29023e-07
-7.95993e-07
-3.5753e-07
-1.15227e-06
-6.86759e-07
-4.24512e-07
-1.61091e-06
-5.36369e-07
-5.80357e-07
-9.12866e-07
1.08196e-07
-8.76873e-07
9.40711e-07
4.19828e-07
-9.01384e-07
1.71522e-06
-5.32971e-06
8.27444e-07
-8.75853e-06
-9.88283e-06
6.1652e-06
-2.10911e-05
-1.17037e-05
7.28851e-06
-2.4603e-05
-1.94633e-05
2.13671e-06
-2.54226e-05
-2.32668e-05
-2.38865e-06
-2.57127e-05
-2.78428e-05
-1.34459e-06
-2.0524e-05
-3.00665e-05
4.1407e-08
1.36674e-06
-3.71765e-05
-4.79765e-06
7.07624e-06
-3.46113e-05
-3.06241e-07
-4.71222e-07
1.30508e-05
1.25751e-05
-5.54476e-05
-8.82914e-06
-1.71155e-06
-0.000129916
-2.31645e-05
3.95794e-06
-0.000128222
-5.72071e-07
2.10946e-06
-0.000128635
-1.68322e-06
2.04151e-07
-0.000128482
2.14251e-06
3.96058e-07
-0.000128832
2.71178e-07
7.76379e-07
-0.000130648
-1.10499e-06
1.90859e-06
-0.000131169
-3.32291e-06
1.1161e-06
-0.000130766
-4.28991e-06
2.80442e-07
-0.000130002
-4.91165e-06
2.39479e-09
-0.000129089
-4.70727e-06
5.47394e-07
-0.000128912
-4.5502e-06
1.93102e-06
-0.000129288
-4.80386e-06
2.90917e-06
-0.000129696
-5.54253e-06
3.35941e-06
-0.000129124
-5.69765e-06
3.15856e-06
-0.000128225
-5.253e-06
2.99387e-06
-0.000124591
-3.86277e-06
2.68377e-06
-0.000106642
-2.75469e-06
2.40886e-06
-5.58413e-05
-1.14462e-06
1.19608e-06
-1.95114e-05
-8.19511e-08
1.00655e-06
-1.86644e-05
1.45177e-06
7.32815e-07
-1.89911e-05
3.11587e-06
3.90031e-07
-2.03302e-05
4.87573e-06
8.68158e-07
-2.06475e-05
7.28652e-06
2.08158e-06
-2.03819e-05
8.04562e-06
2.67969e-06
-2.0139e-05
7.69305e-06
3.31787e-06
-1.96072e-05
6.95977e-06
3.49229e-06
-1.94829e-05
4.8954e-06
3.69434e-06
-6.47047e-05
3.52e-06
3.24262e-06
-0.000117671
1.6026e-06
7.05021e-07
-0.000112016
8.98952e-09
-1.28232e-06
-5.64219e-05
-1.77045e-06
-3.69716e-06
-1.14105e-05
-2.56701e-06
-4.17093e-06
-8.21252e-06
-4.05289e-06
-3.35978e-06
-5.56648e-06
-4.9896e-06
-2.35628e-06
-3.81085e-06
-5.43605e-06
-2.5557e-06
-6.35827e-06
-4.00828e-06
-3.8809e-06
-4.36376e-06
-4.83865e-07
-2.54352e-06
-4.81702e-06
-1.16196e-06
-2.44247e-06
-3.09303e-06
-4.09975e-08
-1.78767e-06
-3.20421e-06
-6.71673e-07
-1.43918e-06
-2.70664e-06
-4.1054e-07
-9.07299e-07
-2.73932e-06
-3.60992e-07
-3.56026e-07
-2.04084e-06
1.61195e-07
-2.23806e-08
-8.4607e-07
3.14496e-07
1.84098e-07
3.84985e-07
1.57831e-07
1.52655e-07
9.62726e-07
8.32097e-09
1.2479e-08
1.0581e-06
-9.26589e-08
-2.69524e-07
1.18029e-06
-1.06017e-07
-5.05918e-07
1.04664e-06
-1.65529e-07
-6.25925e-07
8.17656e-07
-2.16987e-07
-5.93862e-07
5.48073e-07
-2.85558e-07
-5.08871e-07
4.4726e-07
-3.30997e-07
-4.11545e-07
4.46604e-07
-3.5454e-07
-3.35461e-07
4.90625e-07
-3.68699e-07
-2.7667e-07
5.5804e-07
-3.73452e-07
-2.32033e-07
6.05608e-07
-3.75909e-07
-1.98874e-07
6.55124e-07
-3.71968e-07
-1.73734e-07
6.92923e-07
-3.6667e-07
-1.56252e-07
7.27945e-07
-3.58986e-07
-1.45821e-07
7.56651e-07
-3.5015e-07
-1.4025e-07
7.79385e-07
-3.41494e-07
-1.37629e-07
7.97153e-07
-3.33835e-07
-1.361e-07
8.11056e-07
-3.27563e-07
-1.33932e-07
8.21598e-07
-3.2272e-07
-1.30274e-07
8.30051e-07
-3.19028e-07
-1.24717e-07
8.36598e-07
-3.157e-07
-1.18684e-07
8.43105e-07
-3.11821e-07
-1.15617e-07
8.51052e-07
-3.05955e-07
-1.20934e-07
8.62254e-07
-2.97928e-07
-1.40736e-07
8.75004e-07
-2.87367e-07
-1.79825e-07
8.84842e-07
-2.73668e-07
-2.43225e-07
8.90342e-07
-2.55421e-07
-3.36059e-07
8.91762e-07
-2.2991e-07
-4.62154e-07
8.92057e-07
-1.93956e-07
-6.18584e-07
8.85841e-07
-1.4941e-07
-7.88529e-07
8.4569e-07
-1.05276e-07
-9.43719e-07
7.18209e-07
-8.09383e-08
-1.03293e-06
4.47951e-07
-1.15471e-07
-9.75442e-07
4.8363e-08
-2.53617e-07
-8.19752e-07
-2.56481e-07
-4.26325e-07
-9.29438e-07
-1.65167e-07
-5.211e-07
-1.65035e-06
5.6014e-07
-5.2598e-07
-2.08301e-06
7.18199e-07
-8.21874e-07
-8.14709e-07
3.63092e-07
-1.5232e-06
2.32855e-06
-9.52528e-07
-1.77092e-06
-9.58691e-07
-3.05774e-06
1.01521e-06
-1.58217e-05
-2.07231e-06
7.05251e-06
-2.79218e-05
-4.16721e-06
4.56368e-06
-3.50934e-05
-1.17024e-05
-5.89314e-07
-3.90606e-05
-1.75661e-05
-1.73353e-06
-3.98939e-05
-2.60384e-05
-9.711e-07
-3.47089e-05
-3.42243e-05
-1.02718e-06
-2.99299e-05
-3.88886e-05
-3.06716e-06
-2.20103e-05
-3.95871e-05
-2.94405e-06
2.95462e-07
-1.06763e-05
-5.05516e-06
-7.02586e-05
1.83914e-06
1.16971e-06
-0.000154255
-5.94354e-06
1.31791e-05
-0.000165198
9.55889e-06
6.00461e-06
-0.000172185
4.95155e-06
2.95749e-06
-0.000175275
5.33494e-06
1.70668e-06
-0.000177561
1.75213e-06
1.3739e-06
-0.000178636
-3.97688e-07
1.74329e-06
-0.000178158
-4.23745e-06
1.19078e-06
-0.000177553
-5.93999e-06
1.18372e-06
-0.000176391
-8.08279e-06
1.2775e-06
-0.000175007
-8.22786e-06
1.88719e-06
-0.000174638
-8.17785e-06
3.03352e-06
-0.00017468
-7.9325e-06
3.53452e-06
-0.00017468
-8.21754e-06
3.24454e-06
-0.000174642
-8.64313e-06
1.91128e-06
-0.000172667
-8.67974e-06
8.90244e-07
-0.00016914
-8.00537e-06
6.74391e-07
-0.000166236
-7.10198e-06
1.26127e-06
-0.000163668
-5.90002e-06
1.69939e-06
-0.000161264
-3.93109e-06
2.19214e-06
-0.00015929
-2.03166e-06
2.74378e-06
-0.000158138
-3.87659e-07
3.56608e-06
-0.000157118
8.31539e-07
4.31353e-06
-0.000155936
2.33374e-06
4.89668e-06
-0.000155351
3.08758e-06
4.96923e-06
-0.000155819
3.21499e-06
4.90096e-06
-0.00015726
3.29149e-06
4.2912e-06
-0.000159151
2.33411e-06
3.47298e-06
-0.000160435
1.45885e-06
1.96082e-06
-0.000159984
3.11346e-07
-2.66867e-07
-0.000156922
-8.07769e-07
-3.32572e-06
-0.000151913
-2.14535e-06
-4.78835e-06
-0.000147102
-2.23992e-06
-4.80916e-06
-0.000143519
-3.26064e-06
-4.11554e-06
-0.000140846
-3.51897e-06
-3.90112e-06
-0.000137299
-2.24306e-06
-4.65808e-06
-1.63352e-06
-5.85159e-06
-4.26154e-06
-3.90472e-06
-3.25094e-07
-3.0804e-06
-4.66127e-06
-1.33688e-06
-2.8977e-06
-2.88949e-06
-3.86245e-07
-1.84298e-06
-2.92445e-06
-1.33447e-06
-1.22634e-06
-2.32336e-06
-9.99925e-07
-6.99809e-07
-2.40225e-06
-8.63604e-07
-2.47167e-07
-2.02732e-06
-4.66167e-07
1.05852e-08
-1.20415e-06
1.00315e-07
1.32598e-07
1.18871e-07
1.44091e-07
1.60577e-07
8.93526e-07
4.12093e-08
1.39108e-07
1.10923e-06
-2.96691e-08
-1.13164e-07
1.43938e-06
-6.82466e-09
-3.82703e-07
1.39198e-06
-7.58115e-08
-5.27438e-07
1.13092e-06
-1.68536e-07
-5.04733e-07
8.12113e-07
-2.86751e-07
-4.41839e-07
7.30203e-07
-3.45844e-07
-3.65165e-07
7.4718e-07
-3.77251e-07
-3.18104e-07
8.23913e-07
-3.80352e-07
-2.85896e-07
9.03298e-07
-3.77463e-07
-2.67187e-07
9.5794e-07
-3.7104e-07
-2.54878e-07
1.00624e-06
-3.63415e-07
-2.45224e-07
1.04027e-06
-3.5699e-07
-2.38581e-07
1.07031e-06
-3.48998e-07
-2.34749e-07
1.09242e-06
-3.39588e-07
-2.32086e-07
1.10707e-06
-3.30331e-07
-2.29869e-07
1.11641e-06
-3.21456e-07
-2.2818e-07
1.12255e-06
-3.13158e-07
-2.26803e-07
1.12558e-06
-3.05334e-07
-2.26557e-07
1.12714e-06
-2.97302e-07
-2.28292e-07
1.12779e-06
-2.89429e-07
-2.35165e-07
1.1303e-06
-2.80284e-07
-2.51063e-07
1.13633e-06
-2.69346e-07
-2.81681e-07
1.14913e-06
-2.56221e-07
-3.32597e-07
1.16633e-06
-2.40369e-07
-4.05488e-07
1.17987e-06
-2.22099e-07
-4.9915e-07
1.18543e-06
-2.01378e-07
-6.0791e-07
1.17862e-06
-1.78058e-07
-7.18408e-07
1.15497e-06
-1.52362e-07
-8.1629e-07
1.10907e-06
-1.2531e-07
-8.84819e-07
1.02313e-06
-1.08855e-07
-9.16236e-07
8.65624e-07
-1.15968e-07
-9.04615e-07
6.11391e-07
-1.75017e-07
-8.15953e-07
2.81362e-07
-3.21645e-07
-6.56124e-07
9.39755e-08
-5.1025e-07
-7.64533e-07
5.13375e-07
-5.70127e-07
-1.39439e-06
1.76519e-06
-5.7516e-07
-1.54715e-06
1.87485e-06
-1.00389e-06
4.62109e-07
1.72387e-07
-1.81853e-06
3.56705e-06
-1.96474e-06
-2.09278e-06
-1.73485e-06
8.96641e-07
1.34748e-06
-1.57819e-05
5.49538e-06
6.47935e-06
-2.69235e-05
4.38478e-06
2.58959e-06
-3.46661e-05
-3.6195e-07
-3.59783e-06
-4.06668e-05
-8.88164e-06
-2.68371e-06
-4.44989e-05
-2.11438e-05
-1.0625e-06
-4.24579e-05
-3.49245e-05
-1.34084e-06
-4.0547e-05
-4.13597e-05
5.59853e-07
-2.82159e-05
-4.82688e-05
-3.64954e-06
-5.3828e-07
-4.48563e-05
-3.91985e-06
-8.18919e-05
1.44644e-05
6.85969e-06
-0.000171309
2.27086e-05
1.70752e-05
-0.000183317
1.76232e-05
6.06286e-06
-0.000191627
1.12311e-05
3.04849e-06
-0.000195968
7.29909e-06
5.93062e-07
-0.000199364
3.00829e-06
1.82369e-06
-0.000202074
-1.18329e-06
2.20665e-06
-0.000204844
-4.57125e-06
2.16419e-06
-0.00020725
-7.07515e-06
2.1569e-06
-0.000208889
-9.05789e-06
1.77533e-06
-0.000209537
-9.82507e-06
1.42961e-06
-0.000209634
-1.00353e-05
1.33036e-06
-0.000208967
-1.01624e-05
1.31159e-06
-0.000207755
-1.06663e-05
1.50356e-06
-0.000206677
-1.13935e-05
1.38549e-06
-0.000205618
-1.17105e-05
1.20948e-06
-0.00020433
-1.14129e-05
1.11977e-06
-0.000202804
-1.09329e-05
1.36558e-06
-0.000201123
-1.01834e-05
1.78445e-06
-0.000199124
-8.81021e-06
2.37179e-06
-0.000196885
-7.26429e-06
2.95517e-06
-0.000194514
-5.85213e-06
3.21028e-06
-0.00019236
-4.61693e-06
3.16386e-06
-0.000190304
-3.13915e-06
3.51196e-06
-0.000188318
-1.89546e-06
3.46454e-06
-0.000187094
-1.1339e-06
3.40762e-06
-0.000186314
-2.22338e-07
2.77964e-06
-0.000185761
1.58086e-08
1.54446e-06
-0.000185003
-2.18159e-07
3.88646e-07
-0.000182934
-7.31517e-07
-1.59146e-06
-0.000178865
-1.73579e-06
-3.44161e-06
-0.000173921
-3.56211e-06
-4.11074e-06
-0.000168766
-3.68716e-06
-4.60047e-06
-0.000163414
-5.38752e-06
-4.11628e-06
-0.000157351
-5.90377e-06
-5.5372e-06
-0.000148511
-3.8435e-06
-6.16769e-06
-2.27926e-06
-6.50128e-06
-4.28282e-06
-3.21547e-06
1.04267e-07
-3.36414e-06
-4.17298e-06
-1.40697e-06
-3.3898e-06
-2.3385e-06
-5.25334e-07
-2.15253e-06
-2.47643e-06
-1.68529e-06
-1.32769e-06
-1.7756e-06
-1.37259e-06
-6.31417e-07
-1.88951e-06
-1.20902e-06
-1.68899e-07
-1.53806e-06
-9.51794e-07
8.30987e-08
-1.02077e-06
-4.35384e-07
1.77026e-07
7.90181e-08
-5.40855e-08
1.19868e-07
9.31618e-07
1.9055e-08
1.28711e-07
1.13138e-06
-3.10051e-08
7.46769e-08
1.47942e-06
1.3981e-08
4.77536e-10
1.55825e-06
-9.20836e-08
-7.01171e-08
1.41578e-06
-2.14277e-07
-1.17825e-07
1.22135e-06
-3.61542e-07
-1.72315e-07
1.21869e-06
-4.34004e-07
-2.21196e-07
1.28794e-06
-4.91883e-07
-2.685e-07
1.37907e-06
-5.07855e-07
-3.06852e-07
1.46482e-06
-5.23167e-07
-3.42911e-07
1.52345e-06
-5.29444e-07
-3.62377e-07
1.56068e-06
-5.3497e-07
-3.7193e-07
1.58523e-06
-5.35403e-07
-3.74891e-07
1.60653e-06
-5.33242e-07
-3.74085e-07
1.62133e-06
-5.29701e-07
-3.70951e-07
1.63095e-06
-5.26995e-07
-3.66738e-07
1.63682e-06
-5.24606e-07
-3.63353e-07
1.64088e-06
-5.21691e-07
-3.62184e-07
1.64303e-06
-5.18594e-07
-3.64734e-07
1.64472e-06
-5.15009e-07
-3.73495e-07
1.6471e-06
-5.10511e-07
-3.92346e-07
1.6533e-06
-5.04115e-07
-4.25797e-07
1.6647e-06
-4.94876e-07
-4.80138e-07
1.68607e-06
-4.8256e-07
-5.58679e-07
1.71306e-06
-4.68148e-07
-6.51879e-07
1.72818e-06
-4.5506e-07
-7.46791e-07
1.72497e-06
-4.44583e-07
-8.32758e-07
1.70175e-06
-4.37113e-07
-8.96219e-07
1.65245e-06
-4.33984e-07
-9.2541e-07
1.57836e-06
-4.40047e-07
-9.07136e-07
1.47173e-06
-4.66847e-07
-8.19116e-07
1.3105e-06
-5.3285e-07
-6.62543e-07
1.09447e-06
-6.39634e-07
-4.55584e-07
8.82587e-07
-8.0816e-07
-3.39683e-07
9.33369e-07
-9.55292e-07
-6.45866e-07
1.7925e-06
-9.72918e-07
-1.15374e-06
3.1513e-06
-8.7823e-07
-7.9056e-07
2.80942e-06
-1.29773e-06
1.42878e-06
4.2023e-08
-2.08899e-06
5.119e-06
-2.59351e-06
-3.06147e-06
3.28384e-06
2.47743e-06
2.54296e-07
-8.50861e-06
1.15587e-05
5.72904e-06
-1.79703e-05
1.12227e-05
2.62373e-06
-2.48633e-05
1.2359e-05
-5.82786e-06
-3.40825e-05
5.77943e-06
-5.44194e-06
-4.34798e-05
-9.03488e-06
-2.71165e-06
-4.58349e-05
-2.83403e-05
-4.22911e-06
-5.61801e-05
-3.20427e-05
1.02808e-06
-4.70691e-05
-4.07445e-05
-1.66354e-05
1.90525e-06
-6.32337e-05
-3.96858e-05
-8.22419e-05
2.05392e-05
9.34852e-06
-0.00018988
4.58595e-05
2.31443e-05
-0.000197801
1.74671e-05
6.39747e-06
-0.000201024
1.21811e-05
1.25871e-06
-0.000200192
3.70076e-06
-1.3915e-06
-0.000202247
2.33303e-06
1.33139e-06
-0.000206963
-3.76614e-06
4.65596e-06
-0.000213658
-4.69423e-06
5.19948e-06
-0.00022052
-7.50087e-06
5.83807e-06
-0.000226889
-8.9479e-06
5.71267e-06
-0.000231312
-9.60961e-06
4.24048e-06
-0.000234644
-1.04292e-05
2.85202e-06
-0.000237186
-1.00653e-05
2.04151e-06
-0.000238327
-1.07959e-05
1.62421e-06
-0.000240552
-1.09477e-05
1.51712e-06
-0.000243003
-1.08742e-05
1.45368e-06
-0.00024408
-1.04748e-05
1.62747e-06
-0.000244876
-1.02247e-05
1.7371e-06
-0.000246511
-9.69472e-06
1.5052e-06
-0.000247799
-7.9998e-06
8.67842e-07
-0.000247717
-6.90932e-06
2.53082e-07
-0.00024688
-5.73312e-06
-3.46012e-07
-0.000245118
-4.92132e-06
-9.02535e-07
-0.00024257
-3.98136e-06
-1.25777e-06
-0.000239808
-2.68807e-06
-1.51693e-06
-0.000237309
-1.89202e-06
-1.76239e-06
-0.000235366
-5.51498e-07
-2.11283e-06
-0.000233738
-4.48074e-07
-2.83582e-06
-0.000232033
-9.31776e-07
-3.48546e-06
-0.000229198
-1.50215e-06
-5.47527e-06
-0.000224567
-3.18597e-06
-5.06367e-06
-0.000219042
-5.7722e-06
-4.72544e-06
-0.000214329
-6.10047e-06
-4.44474e-06
-0.000208807
-7.2326e-06
-5.2581e-06
-0.000200378
-1.05521e-05
-6.98437e-06
-0.000184504
-1.03542e-05
-8.991e-06
-1.1724e-05
-8.67184e-06
-3.93186e-06
-1.09799e-06
1.82687e-06
-3.34399e-06
-3.71346e-06
-1.04738e-06
-3.95585e-06
-1.56684e-06
-1.59794e-07
-2.90007e-06
-2.11369e-06
-1.41853e-06
-2.04319e-06
-1.56073e-06
-1.07175e-06
-1.01647e-06
-1.7667e-06
-1.14954e-06
-3.11615e-07
-1.15135e-06
-1.09157e-06
-2.85605e-08
-6.16488e-07
-6.87346e-07
8.17684e-08
2.56183e-07
-2.87505e-07
8.98138e-08
9.6209e-07
-3.85291e-08