/*--------------------------------*- C++ -*----------------------------------*\
| =========                 |                                                 |
| \\      /  F ield         | OpenFOAM: The Open Source CFD Toolbox           |
|  \\    /   O peration     | Version:  2.3.0                                 |
|   \\  /    A nd           | Web:      www.OpenFOAM.org                      |
|    \\/     M anipulation  |                                                 |
\*---------------------------------------------------------------------------*/
FoamFile
{
    version     2.0;
    format      ascii;
    class       volScalarField;
    location    "22";
    object      rho;
}
// * * * * * * * * * * * * * * * * * * * * * * * * * * * * * * * * * * * * * //

dimensions      [1 -3 0 0 0 0 0];

internalField   nonuniform List<scalar> 
6144
(
1.16555
1.16608
1.16646
1.16677
1.16708
1.16745
1.16791
1.16843
1.16875
1.16886
1.16888
1.16889
1.16889
1.16889
1.16889
1.1689
1.1689
1.1689
1.1689
1.1689
1.1689
1.16891
1.16891
1.16891
1.16891
1.16891
1.16891
1.16892
1.16892
1.16892
1.16892
1.16892
1.16892
1.16892
1.16893
1.16893
1.16893
1.16893
1.16893
1.16893
1.16894
1.16894
1.16894
1.16894
1.16899
1.17034
1.17443
1.1819
1.19339
1.22787
1.25705
1.27829
1.29299
1.30213
1.30188
1.30345
1.30136
1.30044
3.14865
87.1888
1004.71
1027.01
1027.09
1027.1
1027.1
1027.1
1027.1
1027.1
1027.1
1027.1
1027.1
1027.1
1027.1
1027.1
1027.1
1027.1
1027.1
1027.1
1027.1
1027.1
1027.1
1027.1
1027.1
1027.1
1027.1
1027.1
1027.1
1027.1
1027.1
1027.1
1027.1
1027.1
1027.1
1027.1
1027.1
1027.1
1.16449
1.16536
1.16594
1.16641
1.16708
1.16756
1.16815
1.16862
1.16879
1.16886
1.16888
1.16889
1.16889
1.1689
1.1689
1.1689
1.1689
1.16891
1.16891
1.16891
1.16891
1.16891
1.16891
1.16892
1.16892
1.16892
1.16892
1.16892
1.16893
1.16893
1.16893
1.16893
1.16893
1.16893
1.16893
1.16894
1.16894
1.16894
1.16894
1.16894
1.16894
1.16894
1.16894
1.16895
1.16912
1.17041
1.17532
1.18702
1.20526
1.22943
1.25465
1.29288
1.3048
1.30658
1.30513
1.30618
1.30264
1.30738
2.2078
70.3111
998.354
1027.03
1027.09
1027.1
1027.1
1027.1
1027.1
1027.1
1027.1
1027.1
1027.1
1027.1
1027.1
1027.1
1027.1
1027.1
1027.1
1027.1
1027.1
1027.1
1027.1
1027.1
1027.1
1027.1
1027.1
1027.1
1027.1
1027.1
1027.1
1027.1
1027.1
1027.1
1027.1
1027.1
1027.1
1027.1
1.16377
1.16478
1.16546
1.16589
1.16653
1.1672
1.16798
1.16847
1.16863
1.16873
1.1688
1.16885
1.16888
1.1689
1.1689
1.16891
1.16891
1.16891
1.16891
1.16891
1.16891
1.16891
1.16892
1.16892
1.16892
1.16892
1.16892
1.16892
1.16893
1.16893
1.16893
1.16893
1.16893
1.16893
1.16893
1.16894
1.16894
1.16894
1.16894
1.16894
1.16894
1.16894
1.16894
1.16897
1.16927
1.17067
1.1776
1.19798
1.22229
1.24
1.27876
1.30575
1.30632
1.30447
1.30105
1.30226
1.29548
1.30405
1.68243
91.659
1007.51
1027.08
1027.09
1027.09
1027.09
1027.09
1027.1
1027.1
1027.1
1027.1
1027.1
1027.1
1027.1
1027.1
1027.1
1027.1
1027.1
1027.1
1027.1
1027.1
1027.1
1027.1
1027.1
1027.1
1027.1
1027.1
1027.1
1027.1
1027.1
1027.1
1027.1
1027.1
1027.1
1027.1
1027.1
1027.1
1.16317
1.16416
1.16516
1.16555
1.16604
1.16677
1.16777
1.16846
1.16863
1.16869
1.16875
1.16883
1.16888
1.1689
1.1689
1.1689
1.1689
1.1689
1.16891
1.16891
1.16891
1.16891
1.16891
1.16891
1.16891
1.16892
1.16892
1.16892
1.16892
1.16892
1.16892
1.16892
1.16893
1.16893
1.16893
1.16893
1.16893
1.16893
1.16894
1.16894
1.16894
1.16894
1.16894
1.169
1.16934
1.17103
1.17929
1.19904
1.22183
1.24048
1.29699
1.3076
1.30243
1.29989
1.29854
1.29867
1.29365
1.29911
1.2805
153.379
1024.49
1027.05
1027.06
1027.07
1027.08
1027.09
1027.09
1027.09
1027.1
1027.1
1027.1
1027.1
1027.1
1027.1
1027.1
1027.1
1027.1
1027.1
1027.1
1027.1
1027.1
1027.1
1027.1
1027.1
1027.1
1027.1
1027.1
1027.1
1027.1
1027.1
1027.1
1027.1
1027.1
1027.1
1027.1
1027.1
1.1628
1.16352
1.16485
1.1653
1.16569
1.16624
1.16714
1.16799
1.16863
1.16873
1.16874
1.16883
1.16888
1.1689
1.1689
1.1689
1.16891
1.16891
1.16891
1.16891
1.16891
1.16892
1.16892
1.16892
1.16892
1.16892
1.16892
1.16892
1.16893
1.16893
1.16893
1.16893
1.16893
1.16893
1.16893
1.16893
1.16894
1.16894
1.16894
1.16894
1.16894
1.16894
1.16895
1.16901
1.16933
1.17097
1.17741
1.19211
1.21401
1.25353
1.30711
1.30522
1.3007
1.29881
1.29682
1.29616
1.2959
1.29398
1.2805
235.844
1022.19
1026.42
1026.46
1026.56
1026.58
1026.6
1026.67
1026.77
1026.86
1026.94
1026.99
1027.01
1027.04
1027.06
1027.08
1027.09
1027.09
1027.1
1027.1
1027.1
1027.1
1027.1
1027.1
1027.1
1027.1
1027.1
1027.1
1027.1
1027.1
1027.1
1027.1
1027.1
1027.1
1027.1
1027.1
1027.1
1.16265
1.16303
1.16438
1.16496
1.16544
1.16583
1.16651
1.16743
1.16839
1.16872
1.16872
1.16881
1.16887
1.16889
1.1689
1.1689
1.1689
1.1689
1.1689
1.1689
1.16891
1.16891
1.16891
1.16891
1.16891
1.16891
1.16892
1.16892
1.16892
1.16892
1.16892
1.16892
1.16893
1.16893
1.16893
1.16893
1.16893
1.16893
1.16893
1.16894
1.16894
1.16894
1.16895
1.16903
1.16932
1.17059
1.17476
1.18426
1.20188
1.26734
1.31025
1.30441
1.30068
1.29873
1.29634
1.29434
1.29243
1.2924
1.2805
333.941
1015.57
1020.38
1020.01
1019.93
1019.8
1019.88
1020.13
1020.7
1021.29
1022.02
1022.66
1023.21
1023.71
1024.24
1024.8
1025.28
1025.69
1026.02
1026.27
1026.41
1026.47
1026.47
1026.47
1026.46
1026.47
1026.49
1026.51
1026.55
1026.6
1026.67
1026.78
1026.9
1026.99
1027.06
1027.09
1027.1
1.16263
1.16269
1.16373
1.16434
1.16509
1.16553
1.16623
1.16711
1.16776
1.16849
1.16865
1.16879
1.16887
1.16889
1.1689
1.1689
1.1689
1.16891
1.16891
1.16891
1.16891
1.16891
1.16891
1.16892
1.16892
1.16892
1.16892
1.16892
1.16892
1.16892
1.16893
1.16893
1.16893
1.16893
1.16893
1.16893
1.16893
1.16893
1.16894
1.16894
1.16894
1.16894
1.16896
1.16904
1.16935
1.17049
1.17394
1.18162
1.19554
1.2693
1.31266
1.30889
1.30672
1.30363
1.30095
1.298
1.29294
1.29476
1.2805
442.764
1004.63
1008.93
1008.14
1007.98
1007.98
1008.02
1008.21
1008.37
1008.58
1008.79
1009.07
1009.34
1009.63
1010.03
1010.62
1011.31
1012.09
1012.92
1013.72
1014.41
1014.96
1015.38
1015.68
1015.81
1015.83
1015.8
1015.75
1015.96
1016.34
1017
1017.99
1019.33
1020.78
1022.54
1024.59
1025.85
1.16267
1.16258
1.16319
1.1636
1.16457
1.16518
1.16606
1.167
1.16758
1.16808
1.16845
1.16873
1.16886
1.1689
1.1689
1.1689
1.1689
1.16891
1.16891
1.16891
1.16891
1.16891
1.16892
1.16892
1.16892
1.16892
1.16892
1.16892
1.16893
1.16893
1.16893
1.16893
1.16893
1.16893
1.16894
1.16894
1.16894
1.16894
1.16894
1.16894
1.16895
1.16895
1.16896
1.16904
1.1694
1.1706
1.17396
1.18097
1.19115
1.23986
1.31146
1.31542
1.3136
1.31333
1.3105
1.30945
1.29649
1.29236
1.2805
352.521
1000.23
1007.96
1007.75
1007.75
1007.75
1007.79
1007.83
1007.52
1007.21
1006.61
1005.93
1005.23
1004.6
1003.88
1003.09
1002.21
1001.26
1000.34
999.484
998.72
998.074
997.509
997.024
996.62
996.287
996.04
995.982
996.044
996.655
997.538
998.217
998.606
999.118
1000.43
1003.38
1007.67
1.16269
1.16267
1.16295
1.16307
1.16412
1.1649
1.16593
1.167
1.16762
1.168
1.16835
1.16867
1.16883
1.16889
1.16889
1.1689
1.1689
1.1689
1.1689
1.1689
1.16891
1.16891
1.16891
1.16891
1.16891
1.16892
1.16892
1.16892
1.16892
1.16892
1.16892
1.16893
1.16893
1.16893
1.16893
1.16893
1.16893
1.16894
1.16894
1.16894
1.16894
1.16895
1.16896
1.16905
1.16948
1.17091
1.17483
1.18438
1.19532
1.22189
1.29887
1.32064
1.31795
1.32998
1.31809
1.32209
1.30352
1.3048
1.2805
196.846
1004.69
1022.25
1023.83
1025.24
1025.72
1026.08
1026.02
1026.04
1025.9
1025.9
1025.8
1025.72
1025.57
1025.38
1025.14
1024.87
1024.63
1024.35
1024.13
1024.01
1023.9
1023.84
1023.8
1023.88
1024.13
1024.52
1024.98
1025.55
1026.07
1026.49
1026.59
1026.51
1026.48
1026.44
1026.41
1026.73
1.16267
1.1628
1.16291
1.16294
1.16381
1.16464
1.16583
1.16702
1.16777
1.16812
1.16842
1.16869
1.16883
1.16889
1.1689
1.1689
1.16891
1.16891
1.16891
1.16891
1.16891
1.16891
1.16891
1.16892
1.16892
1.16892
1.16892
1.16892
1.16892
1.16893
1.16893
1.16893
1.16893
1.16893
1.16893
1.16893
1.16894
1.16894
1.16894
1.16894
1.16894
1.16894
1.16896
1.16909
1.16966
1.17115
1.17549
1.18364
1.1967
1.20881
1.26671
1.31322
1.31804
1.32637
1.33503
1.33281
1.30431
1.33234
1.2805
89.0234
1010.23
1026.95
1027.05
1027.09
1027.09
1027.1
1027.1
1027.1
1027.1
1027.1
1027.1
1027.1
1027.1
1027.09
1027.09
1027.09
1027.08
1027.08
1027.07
1027.06
1027.05
1027.03
1027.02
1027.02
1027.02
1027.04
1027.05
1027.07
1027.09
1027.1
1027.1
1027.1
1027.1
1027.1
1027.1
1027.1
1.16267
1.163
1.16309
1.16326
1.16383
1.1646
1.16565
1.16687
1.16783
1.16837
1.16866
1.16883
1.16886
1.16889
1.1689
1.1689
1.1689
1.1689
1.1689
1.16891
1.16891
1.16891
1.16891
1.16891
1.16892
1.16892
1.16892
1.16892
1.16892
1.16893
1.16893
1.16893
1.16893
1.16893
1.16893
1.16894
1.16894
1.16894
1.16894
1.16894
1.16894
1.16895
1.16897
1.16915
1.16972
1.17099
1.17482
1.18141
1.19645
1.21643
1.24175
1.28781
1.30862
1.32228
1.32215
1.31713
1.3056
1.34458
1.29656
62.6832
1005.6
1027.09
1027.09
1027.09
1027.09
1027.1
1027.1
1027.09
1027.1
1027.1
1027.1
1027.1
1027.1
1027.1
1027.1
1027.1
1027.1
1027.1
1027.1
1027.1
1027.1
1027.1
1027.1
1027.1
1027.1
1027.1
1027.1
1027.1
1027.1
1027.1
1027.1
1027.1
1027.1
1027.1
1027.1
1027.1
1.16267
1.16316
1.16333
1.16344
1.16419
1.16515
1.16621
1.16712
1.16804
1.16868
1.16884
1.1689
1.16891
1.16891
1.16891
1.16891
1.1689
1.16891
1.16891
1.16891
1.16891
1.16891
1.16891
1.16892
1.16892
1.16892
1.16892
1.16892
1.16892
1.16893
1.16893
1.16893
1.16893
1.16893
1.16894
1.16894
1.16894
1.16894
1.16895
1.16895
1.16895
1.16895
1.16899
1.16919
1.16969
1.17067
1.17395
1.18043
1.19793
1.22493
1.23744
1.26155
1.28591
1.30807
1.30649
1.30396
1.30376
1.36071
1.36937
23.1783
990.333
1027.09
1027.09
1027.09
1027.09
1027.1
1027.1
1027.1
1027.1
1027.1
1027.1
1027.1
1027.1
1027.1
1027.1
1027.1
1027.1
1027.1
1027.1
1027.1
1027.1
1027.1
1027.1
1027.1
1027.1
1027.1
1027.1
1027.1
1027.1
1027.1
1027.1
1027.1
1027.1
1027.1
1027.1
1027.1
1.16252
1.163
1.16306
1.16295
1.16396
1.16518
1.16685
1.16772
1.16845
1.16879
1.16884
1.16889
1.16891
1.16892
1.16892
1.16892
1.16892
1.16892
1.16892
1.16892
1.16892
1.16892
1.16892
1.16892
1.16892
1.16892
1.16893
1.16893
1.16893
1.16893
1.16893
1.16893
1.16893
1.16894
1.16894
1.16894
1.16894
1.16894
1.16895
1.16895
1.16895
1.16895
1.16899
1.16916
1.16952
1.17032
1.17351
1.17987
1.1972
1.22709
1.24732
1.25771
1.26995
1.29202
1.29146
1.29615
1.30406
1.37003
1.49471
21.0481
972.759
1027.09
1027.09
1027.09
1027.1
1027.1
1027.1
1027.1
1027.1
1027.1
1027.1
1027.1
1027.1
1027.1
1027.1
1027.1
1027.1
1027.1
1027.1
1027.1
1027.1
1027.1
1027.1
1027.1
1027.1
1027.1
1027.1
1027.1
1027.1
1027.1
1027.1
1027.1
1027.1
1027.1
1027.1
1027.1
1.16231
1.16279
1.16231
1.16181
1.16179
1.1629
1.16585
1.1682
1.16864
1.16876
1.16878
1.16886
1.1689
1.16892
1.16892
1.16892
1.16892
1.16892
1.16892
1.16892
1.16893
1.16893
1.16893
1.16893
1.16893
1.16893
1.16893
1.16893
1.16893
1.16893
1.16894
1.16894
1.16894
1.16894
1.16894
1.16894
1.16894
1.16894
1.16895
1.16895
1.16895
1.16896
1.16898
1.16908
1.16931
1.17002
1.17328
1.18032
1.1977
1.23038
1.25401
1.26722
1.27648
1.28478
1.28516
1.29288
1.30002
1.36009
1.6582
30.7041
975.427
1027.09
1027.09
1027.09
1027.1
1027.1
1027.1
1027.1
1027.1
1027.1
1027.1
1027.1
1027.1
1027.1
1027.1
1027.1
1027.1
1027.1
1027.1
1027.1
1027.1
1027.1
1027.1
1027.1
1027.1
1027.1
1027.1
1027.1
1027.1
1027.1
1027.1
1027.1
1027.1
1027.1
1027.1
1027.1
1.16186
1.16262
1.16232
1.16176
1.16108
1.16121
1.1629
1.16782
1.16865
1.16876
1.16879
1.16886
1.16889
1.16891
1.16891
1.16892
1.16891
1.16892
1.16892
1.16892
1.16892
1.16892
1.16893
1.16893
1.16893
1.16893
1.16893
1.16893
1.16893
1.16893
1.16893
1.16894
1.16894
1.16894
1.16894
1.16894
1.16894
1.16894
1.16895
1.16895
1.16895
1.16896
1.16897
1.169
1.16909
1.1698
1.17342
1.1816
1.19895
1.22818
1.25349
1.26838
1.27657
1.28124
1.28221
1.28438
1.27915
1.3243
1.76771
32.824
967.846
1027.01
1027.09
1027.09
1027.1
1027.1
1027.1
1027.1
1027.1
1027.1
1027.1
1027.1
1027.1
1027.1
1027.1
1027.1
1027.1
1027.1
1027.1
1027.1
1027.1
1027.1
1027.1
1027.1
1027.1
1027.1
1027.1
1027.1
1027.1
1027.1
1027.1
1027.1
1027.1
1027.1
1027.1
1027.1
1.16055
1.16143
1.16135
1.1613
1.16125
1.16119
1.16103
1.16434
1.16852
1.16883
1.16885
1.16889
1.1689
1.16892
1.16892
1.16892
1.16892
1.16892
1.16893
1.16893
1.16893
1.16893
1.16893
1.16893
1.16893
1.16894
1.16894
1.16894
1.16894
1.16894
1.16894
1.16894
1.16895
1.16895
1.16895
1.16895
1.16895
1.16895
1.16895
1.16896
1.16896
1.16896
1.16897
1.16898
1.16907
1.17029
1.17593
1.18752
1.2045
1.22537
1.24652
1.26459
1.27385
1.277
1.27711
1.28619
1.28344
1.30096
2.21719
39.8721
933.07
1025.72
1027.09
1027.09
1027.1
1027.1
1027.1
1027.1
1027.1
1027.1
1027.1
1027.1
1027.1
1027.1
1027.1
1027.1
1027.1
1027.1
1027.1
1027.1
1027.1
1027.1
1027.1
1027.1
1027.1
1027.1
1027.1
1027.1
1027.1
1027.1
1027.1
1027.1
1027.1
1027.1
1027.1
1027.1
1.1655
1.16624
1.16657
1.16684
1.16714
1.16757
1.16807
1.16843
1.16857
1.16866
1.16877
1.16885
1.1689
1.16891
1.16892
1.16892
1.16892
1.16892
1.16892
1.16892
1.16892
1.16893
1.16893
1.16893
1.16893
1.16893
1.16893
1.16894
1.16894
1.16894
1.16894
1.16894
1.16895
1.16895
1.16895
1.16895
1.16895
1.16895
1.16896
1.16896
1.16896
1.16896
1.16896
1.16896
1.169
1.17024
1.17384
1.18086
1.19042
1.22178
1.2524
1.26575
1.27524
1.29006
1.29409
1.29769
1.29605
1.3062
2.10875
66.1205
1010.42
1027.07
1027.09
1027.1
1027.1
1027.1
1027.1
1027.1
1027.1
1027.1
1027.1
1027.1
1027.1
1027.1
1027.1
1027.1
1027.1
1027.1
1027.1
1027.1
1027.1
1027.1
1027.1
1027.1
1027.1
1027.1
1027.1
1027.1
1027.1
1027.1
1027.1
1027.1
1027.1
1027.1
1027.1
1027.1
1.16397
1.16554
1.16619
1.16657
1.16701
1.16736
1.16767
1.16791
1.16815
1.16836
1.16858
1.16877
1.16887
1.16891
1.16891
1.16892
1.16892
1.16892
1.16892
1.16892
1.16892
1.16893
1.16893
1.16893
1.16893
1.16893
1.16893
1.16894
1.16894
1.16894
1.16894
1.16894
1.16894
1.16894
1.16895
1.16895
1.16895
1.16895
1.16895
1.16895
1.16895
1.16895
1.16896
1.16902
1.16921
1.17
1.17301
1.18421
1.19898
1.22139
1.24575
1.25542
1.27524
1.2944
1.29815
1.29957
1.29499
1.30751
1.66806
97.4714
1023.78
1027.09
1027.09
1027.1
1027.1
1027.1
1027.1
1027.1
1027.1
1027.1
1027.1
1027.1
1027.1
1027.1
1027.1
1027.1
1027.1
1027.1
1027.1
1027.1
1027.1
1027.1
1027.1
1027.1
1027.1
1027.1
1027.1
1027.1
1027.1
1027.1
1027.1
1027.1
1027.1
1027.1
1027.1
1027.1
1.16281
1.16458
1.16578
1.16617
1.16641
1.16678
1.16715
1.16753
1.16793
1.16823
1.16848
1.16873
1.16885
1.1689
1.16891
1.16891
1.16891
1.16892
1.16892
1.16892
1.16892
1.16892
1.16892
1.16893
1.16893
1.16893
1.16893
1.16893
1.16893
1.16893
1.16894
1.16894
1.16894
1.16894
1.16894
1.16894
1.16894
1.16895
1.16895
1.16895
1.16895
1.16895
1.16896
1.16902
1.16926
1.17005
1.17532
1.19329
1.21495
1.2306
1.24774
1.2707
1.29519
1.30269
1.29969
1.29844
1.28566
1.29898
1.49733
156.755
1027.03
1027.09
1027.09
1027.09
1027.09
1027.09
1027.09
1027.09
1027.1
1027.1
1027.1
1027.1
1027.1
1027.1
1027.1
1027.1
1027.1
1027.1
1027.1
1027.1
1027.1
1027.1
1027.1
1027.1
1027.1
1027.1
1027.1
1027.1
1027.1
1027.1
1027.1
1027.1
1027.1
1027.1
1027.1
1027.1
1.16211
1.16327
1.16545
1.16616
1.16632
1.16663
1.1669
1.16725
1.16774
1.16815
1.16843
1.16871
1.16885
1.1689
1.16891
1.16891
1.16891
1.16891
1.16891
1.16892
1.16892
1.16892
1.16892
1.16892
1.16892
1.16893
1.16893
1.16893
1.16893
1.16893
1.16893
1.16893
1.16894
1.16894
1.16894
1.16894
1.16894
1.16894
1.16894
1.16894
1.16895
1.16895
1.16895
1.16902
1.16934
1.17091
1.1788
1.1995
1.21914
1.22947
1.2508
1.29426
1.30318
1.30148
1.29332
1.28475
1.29386
1.33221
1.36447
227.08
1025.84
1026.7
1026.73
1026.79
1026.83
1026.89
1026.95
1027
1027.04
1027.07
1027.08
1027.09
1027.09
1027.09
1027.1
1027.1
1027.1
1027.1
1027.1
1027.1
1027.1
1027.1
1027.1
1027.1
1027.1
1027.1
1027.1
1027.1
1027.1
1027.1
1027.1
1027.1
1027.1
1027.1
1027.1
1027.1
1.16181
1.16218
1.1646
1.16625
1.16642
1.16659
1.16682
1.16712
1.16762
1.1681
1.1684
1.16869
1.16884
1.1689
1.16891
1.16891
1.16891
1.16891
1.16891
1.16892
1.16892
1.16892
1.16892
1.16892
1.16892
1.16892
1.16893
1.16893
1.16893
1.16893
1.16893
1.16893
1.16893
1.16894
1.16894
1.16894
1.16894
1.16894
1.16894
1.16894
1.16894
1.16894
1.16895
1.16903
1.16953
1.1714
1.17609
1.18493
1.19906
1.2189
1.28003
1.30315
1.30612
1.31359
1.32823
1.33606
1.33956
1.33557
1.28137
258.549
1019.28
1023.06
1022.94
1023.13
1023.27
1023.66
1024.08
1024.61
1025.11
1025.58
1025.98
1026.3
1026.55
1026.75
1026.88
1026.97
1027.02
1027.04
1027.06
1027.07
1027.07
1027.07
1027.07
1027.07
1027.07
1027.07
1027.07
1027.07
1027.07
1027.08
1027.08
1027.09
1027.1
1027.1
1027.1
1027.1
1.16167
1.16167
1.16357
1.16581
1.16651
1.16663
1.16679
1.16705
1.16758
1.16808
1.16839
1.16869
1.16884
1.1689
1.16891
1.16891
1.16891
1.16891
1.16891
1.16891
1.16892
1.16892
1.16892
1.16892
1.16892
1.16892
1.16892
1.16893
1.16893
1.16893
1.16893
1.16893
1.16893
1.16893
1.16894
1.16894
1.16894
1.16894
1.16894
1.16894
1.16894
1.16894
1.16895
1.16904
1.1696
1.17143
1.17475
1.17921
1.18608
1.20753
1.28518
1.30518
1.31996
1.33318
1.35555
1.36697
1.36764
1.3393
1.2805
303.476
1008.53
1014.49
1013.34
1013.03
1012.84
1012.97
1013.43
1014.2
1014.98
1015.97
1016.99
1017.99
1019.01
1020.14
1021.33
1022.51
1023.55
1024.43
1025.09
1025.5
1025.68
1025.74
1025.74
1025.64
1025.47
1025.24
1024.97
1024.69
1024.45
1024.35
1024.77
1025.12
1025.63
1026.31
1026.75
1026.99
1.16159
1.16142
1.16272
1.1646
1.16593
1.16637
1.16681
1.16703
1.16759
1.16808
1.1684
1.16869
1.16884
1.1689
1.16891
1.16891
1.16891
1.16891
1.16891
1.16891
1.16891
1.16892
1.16892
1.16892
1.16892
1.16892
1.16892
1.16893
1.16893
1.16893
1.16893
1.16893
1.16893
1.16893
1.16894
1.16894
1.16894
1.16894
1.16894
1.16894
1.16894
1.16894
1.16895
1.16904
1.1696
1.17144
1.1746
1.17802
1.18237
1.20791
1.28763
1.31065
1.34114
1.35589
1.3782
1.38601
1.37604
1.39219
1.2805
390.071
1000.93
1006.92
1006.4
1006.12
1005.93
1005.86
1005.81
1005.75
1005.75
1005.75
1005.75
1005.68
1005.66
1005.65
1005.57
1005.85
1006.41
1007.04
1007.69
1008.21
1008.56
1008.72
1008.66
1007.47
1006.08
1004.25
1002.29
1000.42
998.338
996.169
993.72
992.52
992.313
996.147
1000.04
1006.49
1.16164
1.16126
1.16194
1.16315
1.16466
1.1655
1.16648
1.16706
1.16772
1.16814
1.16842
1.1687
1.16885
1.1689
1.1689
1.16891
1.16891
1.16891
1.16891
1.16891
1.16891
1.16892
1.16892
1.16892
1.16892
1.16892
1.16892
1.16893
1.16893
1.16893
1.16893
1.16893
1.16893
1.16894
1.16894
1.16894
1.16894
1.16894
1.16894
1.16894
1.16894
1.16894
1.16895
1.16903
1.16952
1.17112
1.17408
1.17735
1.18401
1.19945
1.27272
1.30231
1.3364
1.37133
1.37863
1.36557
1.32948
1.3112
1.2805
270.13
1000.07
1011.73
1012.35
1012.82
1013
1013.01
1013.35
1013.24
1012.77
1011.94
1010.76
1009.34
1007.62
1005.74
1003.81
1001.93
1000.19
998.487
996.822
995.291
993.947
992.662
991.286
989.708
987.659
985.317
982.607
978.918
975.2
969.564
960.552
949.529
935.863
914.848
864.507
660.54
1.16179
1.16122
1.1615
1.162
1.16338
1.16468
1.16609
1.16706
1.16782
1.1682
1.16845
1.16871
1.16885
1.1689
1.16891
1.16891
1.16891
1.16891
1.16891
1.16892
1.16892
1.16892
1.16892
1.16892
1.16892
1.16892
1.16893
1.16893
1.16893
1.16893
1.16893
1.16893
1.16894
1.16894
1.16894
1.16894
1.16894
1.16894
1.16894
1.16894
1.16895
1.16895
1.16895
1.169
1.16938
1.1707
1.17336
1.17699
1.18695
1.20531
1.24861
1.28074
1.31607
1.36498
1.37879
1.36082
1.33649
1.33583
1.2805
140.359
1005.87
1022.82
1023.67
1025
1025.78
1026.1
1026.15
1026.07
1025.97
1025.83
1025.61
1025.36
1025.02
1024.59
1024.06
1023.5
1022.92
1022.28
1021.5
1020.48
1019.16
1017.6
1016
1014.68
1013.89
1013.67
1014.75
1016.07
1019.06
1022.33
1024.63
1023.42
1022.6
1021.25
1019.8
1018.96
1.16177
1.16124
1.16137
1.16151
1.16246
1.16386
1.16566
1.16696
1.16787
1.16825
1.16849
1.16874
1.16887
1.16891
1.16891
1.16891
1.16891
1.16891
1.16892
1.16892
1.16892
1.16892
1.16892
1.16892
1.16893
1.16893
1.16893
1.16893
1.16893
1.16893
1.16893
1.16894
1.16894
1.16894
1.16894
1.16894
1.16894
1.16894
1.16894
1.16895
1.16895
1.16895
1.16895
1.16898
1.16926
1.1703
1.17287
1.17775
1.18959
1.21273
1.22971
1.25759
1.28029
1.33618
1.37253
1.36983
1.35876
1.36739
1.28398
84.5724
1013.01
1026.78
1026.87
1027.01
1027.04
1027.05
1027.05
1027.04
1027.02
1027.01
1026.99
1026.97
1026.94
1026.92
1026.89
1026.85
1026.81
1026.75
1026.68
1026.59
1026.46
1026.3
1026.11
1025.99
1025.96
1026.2
1026.4
1026.62
1026.88
1027.05
1027.1
1027.1
1027.1
1027.1
1027.1
1027.1
1.16167
1.16128
1.16137
1.16147
1.1621
1.16329
1.16532
1.1669
1.16787
1.16829
1.16853
1.16877
1.16888
1.16891
1.16891
1.16891
1.16891
1.16892
1.16892
1.16892
1.16892
1.16892
1.16892
1.16892
1.16893
1.16893
1.16893
1.16893
1.16893
1.16893
1.16894
1.16894
1.16894
1.16894
1.16894
1.16894
1.16894
1.16895
1.16895
1.16895
1.16895
1.16895
1.16895
1.16897
1.16917
1.17008
1.17271
1.17864
1.19253
1.21667
1.23517
1.25254
1.26673
1.30023
1.34067
1.358
1.35223
1.37712
1.36141
32.109
990.938
1027.09
1027.08
1027.09
1027.09
1027.09
1027.09
1027.09
1027.09
1027.09
1027.09
1027.09
1027.09
1027.09
1027.09
1027.09
1027.09
1027.09
1027.09
1027.08
1027.08
1027.08
1027.07
1027.07
1027.08
1027.09
1027.09
1027.09
1027.1
1027.1
1027.1
1027.1
1027.1
1027.1
1027.1
1027.1
1.16149
1.16128
1.16137
1.16151
1.16208
1.16323
1.16527
1.16694
1.16794
1.16835
1.16859
1.1688
1.16889
1.16891
1.16891
1.16891
1.16891
1.16892
1.16892
1.16892
1.16892
1.16892
1.16892
1.16892
1.16893
1.16893
1.16893
1.16893
1.16893
1.16893
1.16894
1.16894
1.16894
1.16894
1.16894
1.16894
1.16894
1.16895
1.16895
1.16895
1.16895
1.16895
1.16895
1.16897
1.16912
1.17002
1.1727
1.17927
1.1954
1.22248
1.24159
1.2553
1.26619
1.28328
1.30471
1.32388
1.3291
1.42606
1.44926
25.3863
986.291
1027.09
1027.09
1027.09
1027.09
1027.1
1027.1
1027.1
1027.1
1027.1
1027.1
1027.1
1027.1
1027.1
1027.1
1027.1
1027.1
1027.1
1027.1
1027.1
1027.1
1027.1
1027.1
1027.1
1027.1
1027.1
1027.1
1027.1
1027.1
1027.1
1027.1
1027.1
1027.1
1027.1
1027.1
1027.1
1.16138
1.16122
1.16117
1.16116
1.16176
1.16296
1.16539
1.16713
1.16804
1.16846
1.16866
1.16883
1.16889
1.16891
1.16891
1.16891
1.16891
1.16892
1.16892
1.16892
1.16892
1.16892
1.16892
1.16892
1.16893
1.16893
1.16893
1.16893
1.16893
1.16893
1.16894
1.16894
1.16894
1.16894
1.16894
1.16894
1.16894
1.16894
1.16894
1.16895
1.16895
1.16895
1.16895
1.16897
1.16911
1.17001
1.17312
1.18007
1.19731
1.22631
1.24616
1.25813
1.2677
1.28456
1.29458
1.30896
1.3329
1.49244
1.56481
28.6342
984.745
1027.09
1027.09
1027.09
1027.1
1027.1
1027.1
1027.1
1027.1
1027.1
1027.1
1027.1
1027.1
1027.1
1027.1
1027.1
1027.1
1027.1
1027.1
1027.1
1027.1
1027.1
1027.1
1027.1
1027.1
1027.1
1027.1
1027.1
1027.1
1027.1
1027.1
1027.1
1027.1
1027.1
1027.1
1027.1
1.16109
1.16146
1.1611
1.16085
1.16084
1.16126
1.16386
1.1672
1.16814
1.16854
1.16872
1.16884
1.16889
1.16891
1.16891
1.16891
1.16891
1.16891
1.16892
1.16892
1.16892
1.16892
1.16892
1.16892
1.16892
1.16893
1.16893
1.16893
1.16893
1.16893
1.16893
1.16893
1.16893
1.16893
1.16894
1.16894
1.16894
1.16894
1.16894
1.16894
1.16895
1.16895
1.16895
1.16897
1.1691
1.17021
1.17429
1.1825
1.19982
1.2286
1.2492
1.26089
1.26955
1.27785
1.28559
1.31002
1.35321
1.47121
1.80272
25.2045
945.524
1027.09
1027.09
1027.09
1027.1
1027.1
1027.1
1027.1
1027.1
1027.1
1027.1
1027.1
1027.1
1027.1
1027.1
1027.1
1027.1
1027.1
1027.1
1027.1
1027.1
1027.1
1027.1
1027.1
1027.1
1027.1
1027.1
1027.1
1027.1
1027.1
1027.1
1027.1
1027.1
1027.1
1027.1
1027.1
1.16073
1.16188
1.16139
1.16076
1.16061
1.16067
1.16157
1.16669
1.16827
1.16864
1.16875
1.16884
1.16889
1.16891
1.16891
1.16891
1.16891
1.16891
1.16891
1.16892
1.16892
1.16892
1.16892
1.16892
1.16892
1.16892
1.16893
1.16893
1.16893
1.16893
1.16893
1.16893
1.16893
1.16893
1.16893
1.16893
1.16894
1.16894
1.16894
1.16894
1.16894
1.16895
1.16895
1.16897
1.16909
1.17041
1.17586
1.18669
1.20282
1.22815
1.25025
1.26264
1.26936
1.27386
1.27828
1.29507
1.30315
1.46911
2.14299
24.7219
939.599
1026.78
1027.09
1027.09
1027.1
1027.1
1027.1
1027.1
1027.1
1027.1
1027.1
1027.1
1027.1
1027.1
1027.1
1027.1
1027.1
1027.1
1027.1
1027.1
1027.1
1027.1
1027.1
1027.1
1027.1
1027.1
1027.1
1027.1
1027.1
1027.1
1027.1
1027.1
1027.1
1027.1
1027.1
1027.1
1.15998
1.16033
1.1605
1.16058
1.16063
1.16071
1.16074
1.16516
1.16837
1.16871
1.16877
1.16886
1.16889
1.16891
1.16891
1.16891
1.16891
1.16892
1.16892
1.16892
1.16892
1.16892
1.16893
1.16893
1.16893
1.16893
1.16893
1.16893
1.16894
1.16894
1.16894
1.16894
1.16894
1.16894
1.16894
1.16895
1.16895
1.16895
1.16895
1.16895
1.16896
1.16896
1.16896
1.16897
1.16909
1.17067
1.17729
1.19001
1.20678
1.22576
1.24458
1.26123
1.27016
1.27345
1.2705
1.27836
1.27523
1.35406
2.27228
39.3529
921.616
1025.35
1027.09
1027.09
1027.1
1027.1
1027.1
1027.1
1027.1
1027.1
1027.1
1027.1
1027.1
1027.1
1027.1
1027.1
1027.1
1027.1
1027.1
1027.1
1027.1
1027.1
1027.1
1027.1
1027.1
1027.1
1027.1
1027.1
1027.1
1027.1
1027.1
1027.1
1027.1
1027.1
1027.1
1027.1
1.16584
1.16633
1.16659
1.16684
1.16711
1.16755
1.16816
1.16851
1.16863
1.1687
1.1688
1.16886
1.1689
1.16891
1.16891
1.16891
1.16891
1.16891
1.16891
1.16892
1.16892
1.16892
1.16892
1.16892
1.16892
1.16893
1.16893
1.16893
1.16893
1.16893
1.16893
1.16894
1.16894
1.16894
1.16894
1.16894
1.16894
1.16895
1.16895
1.16895
1.16895
1.16895
1.16895
1.16896
1.16898
1.17011
1.17362
1.17939
1.18755
1.20941
1.24337
1.25792
1.2621
1.2691
1.27584
1.28283
1.28274
1.3022
1.9312
50.5813
997.391
1027.01
1027.09
1027.1
1027.1
1027.1
1027.1
1027.1
1027.1
1027.1
1027.1
1027.1
1027.1
1027.1
1027.1
1027.1
1027.1
1027.1
1027.1
1027.1
1027.1
1027.1
1027.1
1027.1
1027.1
1027.1
1027.1
1027.1
1027.1
1027.1
1027.1
1027.1
1027.1
1027.1
1027.1
1027.1
1.16484
1.16623
1.16663
1.16694
1.16731
1.16775
1.16809
1.16822
1.16836
1.16851
1.16868
1.16881
1.16888
1.1689
1.16891
1.16891
1.16891
1.16891
1.16892
1.16892
1.16892
1.16892
1.16892
1.16892
1.16893
1.16893
1.16893
1.16893
1.16893
1.16893
1.16893
1.16894
1.16894
1.16894
1.16894
1.16894
1.16894
1.16894
1.16894
1.16894
1.16894
1.16895
1.16895
1.16898
1.16909
1.17007
1.17294
1.17859
1.18816
1.20812
1.23573
1.25513
1.25576
1.26288
1.27037
1.27207
1.27
1.2901
1.55603
61.217
1012.72
1027.08
1027.09
1027.1
1027.1
1027.1
1027.1
1027.1
1027.1
1027.1
1027.1
1027.1
1027.1
1027.1
1027.1
1027.1
1027.1
1027.1
1027.1
1027.1
1027.1
1027.1
1027.1
1027.1
1027.1
1027.1
1027.1
1027.1
1027.1
1027.1
1027.1
1027.1
1027.1
1027.1
1027.1
1027.1
1.16377
1.16606
1.16654
1.16689
1.16726
1.16764
1.16781
1.16793
1.16816
1.16839
1.1686
1.16878
1.16886
1.16889
1.1689
1.1689
1.1689
1.16891
1.16891
1.16891
1.16891
1.16891
1.16891
1.16892
1.16892
1.16892
1.16892
1.16892
1.16892
1.16892
1.16893
1.16893
1.16893
1.16893
1.16893
1.16893
1.16893
1.16893
1.16893
1.16893
1.16894
1.16894
1.16895
1.16902
1.16922
1.17039
1.17344
1.18153
1.19339
1.21095
1.23129
1.25092
1.26294
1.2773
1.28306
1.27906
1.26841
1.29182
1.43162
102.243
1023.05
1027.09
1027.09
1027.09
1027.09
1027.09
1027.1
1027.1
1027.1
1027.1
1027.1
1027.1
1027.1
1027.1
1027.1
1027.1
1027.1
1027.1
1027.1
1027.1
1027.1
1027.1
1027.1
1027.1
1027.1
1027.1
1027.1
1027.1
1027.1
1027.1
1027.1
1027.1
1027.1
1027.1
1027.1
1027.1
1.16159
1.16456
1.16641
1.1669
1.16716
1.1674
1.16753
1.16775
1.16808
1.16834
1.16858
1.16876
1.16886
1.1689
1.1689
1.1689
1.1689
1.16891
1.16891
1.16891
1.16891
1.16891
1.16891
1.16891
1.16891
1.16891
1.16892
1.16892
1.16892
1.16892
1.16892
1.16892
1.16893
1.16893
1.16893
1.16893
1.16893
1.16893
1.16893
1.16893
1.16894
1.16894
1.16895
1.16904
1.16942
1.1709
1.17512
1.1872
1.20218
1.21511
1.23054
1.24725
1.27626
1.29065
1.2878
1.27954
1.28192
1.32201
1.47143
150.938
1024.69
1026.97
1026.98
1026.98
1026.98
1026.99
1027.02
1027.04
1027.06
1027.08
1027.09
1027.09
1027.1
1027.1
1027.1
1027.1
1027.1
1027.1
1027.1
1027.1
1027.1
1027.1
1027.1
1027.1
1027.1
1027.1
1027.1
1027.1
1027.1
1027.1
1027.1
1027.1
1027.1
1027.1
1027.1
1027.1
1.16073
1.16221
1.16559
1.16692
1.1671
1.16723
1.16737
1.16766
1.16798
1.16827
1.16853
1.16874
1.16885
1.16889
1.1689
1.1689
1.1689
1.16891
1.16891
1.16891
1.16891
1.16891
1.16891
1.16891
1.16892
1.16892
1.16892
1.16892
1.16892
1.16892
1.16892
1.16893
1.16893
1.16893
1.16893
1.16893
1.16893
1.16893
1.16893
1.16893
1.16894
1.16894
1.16895
1.16908
1.16966
1.17116
1.17508
1.18661
1.20315
1.21492
1.23093
1.26381
1.29545
1.29856
1.2931
1.2978
1.3245
1.37711
1.47725
192.068
1021.99
1025.51
1025.52
1025.48
1025.42
1025.4
1025.58
1025.81
1026.09
1026.36
1026.61
1026.79
1026.92
1026.99
1027.03
1027.05
1027.06
1027.08
1027.08
1027.09
1027.09
1027.09
1027.09
1027.09
1027.1
1027.1
1027.1
1027.1
1027.1
1027.1
1027.1
1027.1
1027.1
1027.1
1027.1
1027.1
1.16127
1.1619
1.16431
1.16659
1.16712
1.16727
1.16737
1.16754
1.16787
1.16818
1.16846
1.1687
1.16882
1.16888
1.16889
1.1689
1.1689
1.1689
1.1689
1.16891
1.16891
1.16891
1.16891
1.16891
1.16892
1.16892
1.16892
1.16892
1.16892
1.16892
1.16892
1.16893
1.16893
1.16893
1.16893
1.16893
1.16893
1.16893
1.16893
1.16893
1.16894
1.16894
1.16896
1.16913
1.16979
1.17106
1.17355
1.18183
1.19757
1.21147
1.23662
1.28274
1.31426
1.30868
1.31647
1.35304
1.41262
1.50292
1.62063
233.29
1014.28
1021.59
1021.68
1021.49
1021.15
1021.02
1021.19
1021.46
1021.9
1022.39
1022.98
1023.63
1024.26
1024.78
1025.14
1025.4
1025.63
1025.86
1026.11
1026.33
1026.49
1026.59
1026.66
1026.69
1026.72
1026.76
1026.81
1026.91
1027.02
1027.09
1027.09
1027.08
1027.08
1027.09
1027.09
1027.1
1.16152
1.16154
1.16361
1.16599
1.16699
1.16734
1.16754
1.16759
1.16782
1.16809
1.16831
1.16861
1.16877
1.16886
1.16889
1.1689
1.1689
1.1689
1.1689
1.16891
1.16891
1.16891
1.16891
1.16892
1.16892
1.16892
1.16892
1.16892
1.16893
1.16893
1.16893
1.16893
1.16893
1.16893
1.16893
1.16893
1.16893
1.16893
1.16894
1.16894
1.16894
1.16895
1.169
1.16918
1.16966
1.17029
1.17215
1.17652
1.184
1.19634
1.24641
1.2905
1.33514
1.33159
1.37389
1.42987
1.46906
1.49572
1.48206
241.558
1008.47
1019.3
1019.65
1019.49
1018.9
1018.65
1018.64
1018.88
1019.07
1019.17
1019.34
1019.57
1019.9
1020.27
1020.6
1020.86
1021.11
1021.39
1021.73
1022.12
1022.6
1023.07
1023.53
1024.03
1024.61
1025.32
1026.08
1026.68
1027.09
1027.1
1027.1
1027.08
1027.01
1027.01
1026.93
1026.81
1.16153
1.16111
1.16278
1.16474
1.16638
1.16715
1.16761
1.16786
1.16798
1.16805
1.16821
1.1685
1.1687
1.16884
1.16888
1.16889
1.16889
1.1689
1.1689
1.1689
1.1689
1.1689
1.16891
1.16891
1.16891
1.16891
1.16891
1.16892
1.16892
1.16892
1.16892
1.16892
1.16892
1.16892