/*--------------------------------*- C++ -*----------------------------------*\
| =========                 |                                                 |
| \\      /  F ield         | OpenFOAM: The Open Source CFD Toolbox           |
|  \\    /   O peration     | Version:  2.3.0                                 |
|   \\  /    A nd           | Web:      www.OpenFOAM.org                      |
|    \\/     M anipulation  |                                                 |
\*---------------------------------------------------------------------------*/
FoamFile
{
    version     2.0;
    format      ascii;
    class       volScalarField;
    location    "22";
    object      rho;
}
// * * * * * * * * * * * * * * * * * * * * * * * * * * * * * * * * * * * * * //

dimensions      [1 -3 0 0 0 0 0];

internalField   nonuniform List<scalar> 
6144
(
1.16607
1.16642
1.16661
1.16689
1.16715
1.16753
1.16804
1.16867
1.16888
1.1689
1.1689
1.1689
1.1689
1.1689
1.1689
1.16891
1.16891
1.16891
1.16891
1.16891
1.16892
1.16892
1.16892
1.16892
1.16892
1.16892
1.16892
1.16892
1.16892
1.16893
1.16893
1.16893
1.16893
1.16893
1.16893
1.16894
1.16894
1.16894
1.16894
1.16894
1.16894
1.16894
1.16894
1.16895
1.16894
1.16896
1.16894
1.16897
1.169
1.16992
1.17276
1.17975
1.19212
1.20548
1.20786
1.27178
1.35801
1.86414
3.40696
80.2243
992.193
1026.9
1027.09
1027.09
1027.1
1027.1
1027.1
1027.1
1027.1
1027.1
1027.1
1027.1
1027.1
1027.1
1027.1
1027.1
1027.1
1027.1
1027.1
1027.1
1027.1
1027.1
1027.1
1027.1
1027.1
1027.1
1027.1
1027.1
1027.1
1027.1
1027.1
1027.1
1027.1
1027.1
1027.1
1027.1
1.16542
1.16606
1.16655
1.16693
1.16739
1.16781
1.16842
1.16884
1.1689
1.1689
1.1689
1.1689
1.1689
1.16891
1.16891
1.16891
1.16891
1.16891
1.16892
1.16892
1.16892
1.16892
1.16892
1.16892
1.16893
1.16893
1.16893
1.16893
1.16893
1.16893
1.16893
1.16894
1.16894
1.16894
1.16894
1.16894
1.16894
1.16895
1.16894
1.16895
1.16894
1.16895
1.16894
1.16896
1.16894
1.16897
1.16894
1.16899
1.169
1.17003
1.17376
1.18088
1.18944
1.20284
1.20394
1.26197
1.36265
2.06716
3.63933
60.3809
985.853
1026.94
1027.09
1027.09
1027.1
1027.1
1027.1
1027.1
1027.1
1027.1
1027.1
1027.1
1027.1
1027.1
1027.1
1027.1
1027.1
1027.1
1027.1
1027.1
1027.1
1027.1
1027.1
1027.1
1027.1
1027.1
1027.1
1027.1
1027.1
1027.1
1027.1
1027.1
1027.1
1027.1
1027.1
1027.1
1.1646
1.1653
1.16584
1.16633
1.16699
1.16754
1.1683
1.16873
1.16882
1.16883
1.16885
1.16888
1.1689
1.16891
1.16891
1.16891
1.16891
1.16891
1.16892
1.16892
1.16892
1.16892
1.16892
1.16892
1.16893
1.16893
1.16893
1.16893
1.16893
1.16893
1.16893
1.16894
1.16894
1.16894
1.16894
1.16895
1.16894
1.16895
1.16894
1.16896
1.16894
1.16896
1.16894
1.16897
1.16894
1.16897
1.16894
1.169
1.16898
1.16987
1.17364
1.17912
1.18397
1.19351
1.20189
1.28742
1.32715
1.85182
2.60476
52.0596
980.7
1026.99
1027.09
1027.09
1027.1
1027.1
1027.1
1027.1
1027.1
1027.1
1027.1
1027.1
1027.1
1027.1
1027.1
1027.1
1027.1
1027.1
1027.1
1027.1
1027.1
1027.1
1027.1
1027.1
1027.1
1027.1
1027.1
1027.1
1027.1
1027.1
1027.1
1027.1
1027.1
1027.1
1027.1
1027.1
1.16402
1.16475
1.1653
1.16577
1.16639
1.16711
1.16809
1.16873
1.16883
1.16883
1.16883
1.16888
1.1689
1.1689
1.16891
1.16891
1.16891
1.16891
1.16891
1.16892
1.16892
1.16892
1.16892
1.16892
1.16892
1.16892
1.16892
1.16893
1.16893
1.16893
1.16893
1.16893
1.16893
1.16894
1.16894
1.16894
1.16894
1.16895
1.16894
1.16895
1.16894
1.16896
1.16894
1.16896
1.16894
1.16897
1.16895
1.16901
1.16903
1.16983
1.17196
1.17668
1.18269
1.19443
1.21172
1.31286
1.30297
1.6865
1.95163
55.1943
978.601
1027.01
1027.09
1027.09
1027.1
1027.1
1027.1
1027.1
1027.1
1027.1
1027.1
1027.1
1027.1
1027.1
1027.1
1027.1
1027.1
1027.1
1027.1
1027.1
1027.1
1027.1
1027.1
1027.1
1027.1
1027.1
1027.1
1027.1
1027.1
1027.1
1027.1
1027.1
1027.1
1027.1
1027.1
1027.1
1.16347
1.16419
1.16485
1.1653
1.16579
1.16652
1.16765
1.16833
1.16883
1.16885
1.16883
1.16888
1.1689
1.16891
1.16891
1.16891
1.16891
1.16891
1.16892
1.16892
1.16892
1.16892
1.16892
1.16892
1.16893
1.16893
1.16893
1.16893
1.16893
1.16893
1.16893
1.16894
1.16894
1.16894
1.16894
1.16894
1.16894
1.16895
1.16894
1.16895
1.16894
1.16896
1.16894
1.16896
1.16895
1.16897
1.16896
1.16902
1.16908
1.16976
1.17093
1.17564
1.1834
1.20195
1.21665
1.29817
1.34264
1.56856
1.38317
89.3981
984.36
1026.98
1027.06
1027.09
1027.09
1027.1
1027.1
1027.1
1027.1
1027.1
1027.1
1027.1
1027.1
1027.1
1027.1
1027.1
1027.1
1027.1
1027.1
1027.1
1027.1
1027.1
1027.1
1027.1
1027.1
1027.1
1027.1
1027.1
1027.1
1027.1
1027.1
1027.1
1027.1
1027.1
1027.1
1027.1
1.16298
1.16352
1.16435
1.16487
1.16529
1.16581
1.16697
1.16779
1.16859
1.1688
1.16881
1.16887
1.16889
1.1689
1.1689
1.16891
1.16891
1.16891
1.16891
1.16891
1.16891
1.16892
1.16892
1.16892
1.16892
1.16892
1.16892
1.16893
1.16893
1.16893
1.16893
1.16893
1.16893
1.16894
1.16894
1.16894
1.16894
1.16894
1.16894
1.16895
1.16894
1.16896
1.16894
1.16896
1.16895
1.16897
1.16895
1.16903
1.16914
1.16995
1.17129
1.1775
1.18592
1.20473
1.23351
1.33009
1.32873
1.44718
1.24992
174.729
1000.21
1026
1026.26
1026.68
1026.88
1026.96
1026.99
1027
1027
1027
1026.99
1026.99
1026.98
1026.98
1026.97
1026.94
1026.93
1026.93
1026.96
1026.99
1027.01
1027.03
1027.05
1027.06
1027.07
1027.08
1027.09
1027.1
1027.1
1027.1
1027.1
1027.1
1027.1
1027.1
1027.1
1027.1
1.16269
1.16295
1.16371
1.16432
1.16493
1.16529
1.16631
1.16745
1.16797
1.16847
1.16871
1.16887
1.1689
1.16891
1.16891
1.16891
1.16891
1.16891
1.16892
1.16892
1.16892
1.16892
1.16892
1.16892
1.16893
1.16893
1.16893
1.16893
1.16893
1.16893
1.16893
1.16893
1.16894
1.16894
1.16894
1.16894
1.16894
1.16895
1.16894
1.16895
1.16894
1.16896
1.16894
1.16896
1.16895
1.16897
1.16895
1.16906
1.16928
1.17046
1.17306
1.17827
1.18408
1.2037
1.24748
1.33547
1.32331
1.358
1.16898
308.661
1019.4
1022.96
1022.52
1023.1
1024.1
1024.6
1025.17
1025.64
1025.83
1025.82
1025.6
1025.23
1024.99
1024.85
1024.96
1025.22
1025.22
1025.14
1024.95
1024.51
1024.04
1023.84
1023.91
1024.24
1024.69
1025.15
1025.69
1026.08
1026.44
1026.83
1027.09
1027.1
1027.1
1027.1
1027.09
1027.09
1.16255
1.16268
1.16311
1.16358
1.16434
1.16483
1.16581
1.16719
1.1677
1.16814
1.16859
1.16885
1.1689
1.16891
1.16891
1.16891
1.16891
1.16891
1.16892
1.16892
1.16892
1.16892
1.16892
1.16892
1.16893
1.16893
1.16893
1.16893
1.16893
1.16894
1.16894
1.16894
1.16894
1.16894
1.16894
1.16895
1.16895
1.16895
1.16895
1.16895
1.16895
1.16896
1.16895
1.16897
1.16895
1.16897
1.16895
1.16906
1.16927
1.17044
1.17294
1.1783
1.18803
1.22364
1.26288
1.27783
1.26954
1.29272
1.16898
335.792
1015.15
1019.68
1018.15
1017.66
1017.43
1017.58
1018.04
1018.3
1018.26
1018.17
1018.07
1018.04
1018.07
1018
1018.15
1019.24
1019.96
1020.16
1019.59
1017.75
1016.71
1016.48
1016.54
1016.94
1017.98
1018.59
1017.92
1014.33
1012.53
1013.15
1013.95
1013.81
1014.88
1015.3
1017.72
1020.38
1.1625
1.16267
1.1628
1.16295
1.16366
1.16434
1.16535
1.16697
1.16768
1.16814
1.1686
1.16885
1.16889
1.1689
1.1689
1.16891
1.16891
1.16891
1.16891
1.16891
1.16891
1.16892
1.16892
1.16892
1.16892
1.16892
1.16893
1.16893
1.16893
1.16893
1.16893
1.16893
1.16894
1.16894
1.16894
1.16894
1.16894
1.16895
1.16895
1.16895
1.16895
1.16896
1.16895
1.16897
1.16895
1.16897
1.16894
1.16904
1.16925
1.17036
1.17239
1.17743
1.18372
1.20969
1.25343
1.30388
1.28226
1.3291
1.16898
238.591
1018.52
1023.53
1023.2
1022.64
1022.17
1022.04
1021.99
1021.75
1021.59
1021.66
1021.91
1022.2
1022.48
1023.12
1024.06
1024.9
1025.46
1025.88
1026.17
1026.36
1026.54
1026.62
1026.63
1026.64
1026.62
1026.54
1026.49
1026.44
1026.42
1026.45
1026.53
1026.69
1026.8
1026.91
1027.03
1027.09
1.16254
1.16279
1.16283
1.16282
1.16316
1.1639
1.16495
1.16668
1.1678
1.16846
1.16878
1.16889
1.1689
1.16891
1.16891
1.16891
1.16891
1.16892
1.16892
1.16892
1.16892
1.16892
1.16892
1.16892
1.16893
1.16893
1.16893
1.16893
1.16893
1.16893
1.16894
1.16894
1.16894
1.16894
1.16894
1.16895
1.16895
1.16895
1.16895
1.16895
1.16895
1.16896
1.16895
1.16897
1.16895
1.16897
1.16894
1.16903
1.16919
1.17024
1.17191
1.17648
1.18179
1.19867
1.22549
1.30192
1.30591
1.41848
1.27355
125.576
1006.07
1026.41
1026.49
1026.57
1026.52
1026.49
1026.49
1026.52
1026.51
1026.48
1026.5
1026.64
1026.75
1026.87
1026.97
1027.04
1027.07
1027.09
1027.09
1027.1
1027.1
1027.1
1027.1
1027.1
1027.1
1027.1
1027.1
1027.1
1027.1
1027.1
1027.1
1027.1
1027.1
1027.1
1027.1
1027.1
1.16237
1.16283
1.16333
1.16338
1.16318
1.16371
1.16462
1.16638
1.16791
1.16874
1.16889
1.16891
1.1689
1.16891
1.16891
1.16891
1.16891
1.16891
1.16891
1.16891
1.16892
1.16892
1.16892
1.16892
1.16892
1.16893
1.16893
1.16893
1.16893
1.16893
1.16894
1.16894
1.16894
1.16894
1.16894
1.16895
1.16895
1.16895
1.16895
1.16895
1.16895
1.16896
1.16895
1.16897
1.16895
1.16897
1.16894
1.16904
1.16913
1.17005
1.17154
1.1756
1.18123
1.20509
1.22101
1.28668
1.28711
1.51734
1.36805
66.0268
987.054
1027.07
1027.08
1027.09
1027.09
1027.09
1027.09
1027.09
1027.09
1027.09
1027.09
1027.09
1027.09
1027.1
1027.1
1027.1
1027.1
1027.1
1027.1
1027.1
1027.1
1027.1
1027.1
1027.1
1027.1
1027.1
1027.1
1027.1
1027.1
1027.1
1027.1
1027.1
1027.1
1027.1
1027.1
1027.1
1.16186
1.16193
1.16321
1.16375
1.16395
1.16427
1.16511
1.1669
1.16835
1.16887
1.1689
1.16891
1.16891
1.16891
1.16891
1.16892
1.16891
1.16891
1.16891
1.16892
1.16892
1.16892
1.16892
1.16892
1.16893
1.16893
1.16893
1.16893
1.16893
1.16894
1.16894
1.16894
1.16894
1.16894
1.16894
1.16895
1.16895
1.16895
1.16895
1.16896
1.16895
1.16897
1.16896
1.16897
1.16896
1.16897
1.16894
1.16904
1.16904
1.16979
1.17106
1.17488
1.18029
1.19987
1.24941
1.29159
1.28695
1.62828
1.45421
40.4694
976.744
1027.05
1027.1
1027.1
1027.1
1027.1
1027.1
1027.1
1027.1
1027.1
1027.1
1027.1
1027.1
1027.1
1027.1
1027.1
1027.1
1027.1
1027.1
1027.1
1027.1
1027.1
1027.1
1027.1
1027.1
1027.1
1027.1
1027.1
1027.1
1027.1
1027.1
1027.1
1027.1
1027.1
1027.1
1027.1
1.16112
1.16147
1.16148
1.16325
1.16403
1.16451
1.16596
1.16764
1.1687
1.16887
1.1689
1.16891
1.16891
1.16892
1.16892
1.16892
1.16892
1.16892
1.16892
1.16892
1.16893
1.16893
1.16893
1.16893
1.16893
1.16893
1.16893
1.16894
1.16894
1.16894
1.16894
1.16894
1.16894
1.16894
1.16895
1.16895
1.16895
1.16895
1.16895
1.16896
1.16895
1.16897
1.16896
1.16897
1.16896
1.16897
1.16894
1.16903
1.16897
1.16949
1.17045
1.17478
1.18258
1.19239
1.23016
1.28924
1.30204
1.72279
1.56115
28.1943
982.053
1027.02
1027.1
1027.1
1027.1
1027.1
1027.1
1027.1
1027.1
1027.1
1027.1
1027.1
1027.1
1027.1
1027.1
1027.1
1027.1
1027.1
1027.1
1027.1
1027.1
1027.1
1027.1
1027.1
1027.1
1027.1
1027.1
1027.1
1027.1
1027.1
1027.1
1027.1
1027.1
1027.1
1027.1
1027.1
1.16098
1.16159
1.16147
1.16192
1.1627
1.16277
1.16611
1.16827
1.16875
1.16885
1.16888
1.16891
1.16891
1.16892
1.16892
1.16892
1.16892
1.16892
1.16892
1.16892
1.16893
1.16893
1.16893
1.16893
1.16893
1.16893
1.16894
1.16894
1.16894
1.16894
1.16894
1.16894
1.16895
1.16895
1.16895
1.16895
1.16895
1.16895
1.16896
1.16896
1.16896
1.16897
1.16896
1.16897
1.16896
1.16897
1.16894
1.16902
1.16896
1.16925
1.16988
1.17409
1.18136
1.19845
1.21325
1.26346
1.3476
1.81389
1.59877
28.6144
989.089
1027.04
1027.1
1027.1
1027.1
1027.1
1027.1
1027.1
1027.1
1027.1
1027.1
1027.1
1027.1
1027.1
1027.1
1027.1
1027.1
1027.1
1027.1
1027.1
1027.1
1027.1
1027.1
1027.1
1027.1
1027.1
1027.1
1027.1
1027.1
1027.1
1027.1
1027.1
1027.1
1027.1
1027.1
1027.1
1.16078
1.16151
1.16076
1.16117
1.16084
1.16096
1.16317
1.16826
1.16877
1.16887
1.16889
1.16891
1.16891
1.16891
1.16891
1.16892
1.16891
1.16892
1.16892
1.16892
1.16892
1.16892
1.16893
1.16893
1.16893
1.16893
1.16893
1.16894
1.16894
1.16894
1.16894
1.16894
1.16894
1.16895
1.16895
1.16895
1.16895
1.16895
1.16895
1.16896
1.16896
1.16897
1.16896
1.16897
1.16896
1.16897
1.16894
1.16901
1.16896
1.16907
1.16938
1.17235
1.18057
1.20831
1.21508
1.24206
1.4391
1.96904
2.13097
32.5084
981.622
1026.99
1027.1
1027.1
1027.1
1027.1
1027.1
1027.1
1027.1
1027.1
1027.1
1027.1
1027.1
1027.1
1027.1
1027.1
1027.1
1027.1
1027.1
1027.1
1027.1
1027.1
1027.1
1027.1
1027.1
1027.1
1027.1
1027.1
1027.1
1027.1
1027.1
1027.1
1027.1
1027.1
1027.1
1027.1
1.1601
1.1605
1.16054
1.16055
1.16054
1.16049
1.16047
1.16592
1.16868
1.16889
1.1689
1.16891
1.16891
1.16892
1.16892
1.16892
1.16892
1.16892
1.16892
1.16893
1.16893
1.16893
1.16893
1.16893
1.16894
1.16894
1.16894
1.16894
1.16894
1.16894
1.16895
1.16895
1.16895
1.16895
1.16895
1.16895
1.16896
1.16896
1.16896
1.16897
1.16897
1.16897
1.16897
1.16897
1.16897
1.16897
1.16895
1.16901
1.16896
1.16906
1.1694
1.17235
1.18095
1.20413
1.21343
1.31142
1.32406
1.88576
1.88652
34.8704
977.55
1026.88
1027.1
1027.1
1027.1
1027.1
1027.1
1027.1
1027.1
1027.1
1027.1
1027.1
1027.1
1027.1
1027.1
1027.1
1027.1
1027.1
1027.1
1027.1
1027.1
1027.1
1027.1
1027.1
1027.1
1027.1
1027.1
1027.1
1027.1
1027.1
1027.1
1027.1
1027.1
1027.1
1027.1
1027.1
1.16607
1.16647
1.16666
1.16695
1.16722
1.16768
1.16831
1.16866
1.16873
1.16874
1.16884
1.16889
1.16891
1.16892
1.16892
1.16892
1.16892
1.16892
1.16893
1.16893
1.16893
1.16893
1.16893
1.16893
1.16894
1.16894
1.16894
1.16894
1.16894
1.16894
1.16894
1.16895
1.16895
1.16895
1.16895
1.16895
1.16895
1.16896
1.16896
1.16896
1.16896
1.16897
1.16897
1.16897
1.16897
1.16897
1.16895
1.169
1.16906
1.17008
1.17259
1.17935
1.19102
1.20549
1.21106
1.26553
1.35393
2.00668
4.8888
83.9458
984.848
1026.85
1027.09
1027.09
1027.1
1027.1
1027.1
1027.1
1027.1
1027.1
1027.1
1027.1
1027.1
1027.1
1027.1
1027.1
1027.1
1027.1
1027.1
1027.1
1027.1
1027.1
1027.1
1027.1
1027.1
1027.1
1027.1
1027.1
1027.1
1027.1
1027.1
1027.1
1027.1
1027.1
1027.1
1027.1
1.16549
1.1662
1.16661
1.16695
1.16734
1.16764
1.16789
1.16805
1.16825
1.16844
1.16867
1.16883
1.16889
1.16891
1.16892
1.16892
1.16892
1.16892
1.16892
1.16893
1.16893
1.16893
1.16893
1.16893
1.16894
1.16894
1.16894
1.16894
1.16894
1.16894
1.16894
1.16895
1.16895
1.16895
1.16895
1.16895
1.16895
1.16896
1.16896
1.16896
1.16896
1.16897
1.16896
1.16897
1.16896
1.16897
1.16896
1.16908
1.1692
1.17015
1.1723
1.17838
1.18927
1.20441
1.20904
1.25886
1.39421
1.95228
3.29856
77.8092
1001.63
1027.07
1027.09
1027.09
1027.1
1027.1
1027.1
1027.1
1027.1
1027.1
1027.1
1027.1
1027.1
1027.1
1027.1
1027.1
1027.1
1027.1
1027.1
1027.1
1027.1
1027.1
1027.1
1027.1
1027.1
1027.1
1027.1
1027.1
1027.1
1027.1
1027.1
1027.1
1027.1
1027.1
1027.1
1027.1
1.16477
1.16554
1.16583
1.16602
1.16621
1.16661
1.16722
1.16768
1.16806
1.16835
1.16859
1.16881
1.16888
1.16891
1.16892
1.16892
1.16892
1.16892
1.16892
1.16892
1.16893
1.16893
1.16893
1.16893
1.16893
1.16893
1.16893
1.16894
1.16894
1.16894
1.16894
1.16894
1.16894
1.16895
1.16895
1.16895
1.16895
1.16895
1.16895
1.16896
1.16895
1.16897
1.16896
1.16897
1.16896
1.16897
1.16896
1.16908
1.16922
1.17017
1.17217
1.17801
1.18618
1.20242
1.20478
1.2716
1.34404
1.75351
2.10265
69.1708
1006.8
1027.09
1027.09
1027.09
1027.09
1027.1
1027.1
1027.1
1027.1
1027.1
1027.1
1027.1
1027.1
1027.1
1027.1
1027.1
1027.1
1027.1
1027.1
1027.1
1027.1
1027.1
1027.1
1027.1
1027.1
1027.1
1027.1
1027.1
1027.1
1027.1
1027.1
1027.1
1027.1
1027.1
1027.1
1027.1
1.16407
1.16511
1.16559
1.16592
1.166
1.16629
1.16681
1.16737
1.16795
1.16833
1.16857
1.1688
1.16888
1.16891
1.16891
1.16892
1.16892
1.16892
1.16892
1.16892
1.16892
1.16892
1.16893
1.16893
1.16893
1.16893
1.16893
1.16893
1.16893
1.16894
1.16894
1.16894
1.16894
1.16894
1.16894
1.16895
1.16895
1.16895
1.16895
1.16895
1.16895
1.16896
1.16895
1.16897
1.16895
1.16897
1.16895
1.16904
1.16919
1.17022
1.17205
1.1775
1.18395
1.19636
1.22163
1.31494
1.30288
1.68375
1.70219
75.3897
1003.94
1027.09
1027.09
1027.09
1027.09
1027.1
1027.1
1027.1
1027.1
1027.1
1027.1
1027.1
1027.1
1027.1
1027.1
1027.1
1027.1
1027.1
1027.1
1027.1
1027.1
1027.1
1027.1
1027.1
1027.1
1027.1
1027.1
1027.1
1027.1
1027.1
1027.1
1027.1
1027.1
1027.1
1027.1
1027.1
1.16322
1.16425
1.16523
1.16609
1.16615
1.16628
1.16667
1.1671
1.16779
1.1683
1.16856
1.1688
1.16888
1.16891
1.16891
1.16892
1.16892
1.16892
1.16892
1.16892
1.16892
1.16892
1.16892
1.16893
1.16893
1.16893
1.16893
1.16893
1.16893
1.16894
1.16894
1.16894
1.16894
1.16894
1.16894
1.16895
1.16894
1.16895
1.16895
1.16895
1.16895
1.16896
1.16895
1.16897
1.16895
1.16897
1.16895
1.16903
1.16915
1.17024
1.17207
1.17701
1.18268
1.19422
1.25568
1.34844
1.47783
1.50952
1.3779
113
1005.37
1026.61
1026.83
1027.04
1027.07
1027.08
1027.08
1027.08
1027.08
1027.08
1027.08
1027.08
1027.08
1027.08
1027.08
1027.09
1027.09
1027.09
1027.09
1027.09
1027.09
1027.09
1027.09
1027.1
1027.1
1027.1
1027.1
1027.1
1027.1
1027.1
1027.1
1027.1
1027.1
1027.1
1027.1
1027.1
1.16257
1.16319
1.16421
1.16615
1.16643
1.16641
1.16663
1.16693
1.16765
1.16826
1.16855
1.1688
1.16887
1.16891
1.16891
1.16891
1.16891
1.16892
1.16892
1.16892
1.16892
1.16892
1.16892
1.16892
1.16893
1.16893
1.16893
1.16893
1.16893
1.16893
1.16894
1.16894
1.16894
1.16894
1.16894
1.16894
1.16894
1.16895
1.16894
1.16895
1.16895
1.16896
1.16895
1.16897
1.16895
1.16897
1.16895
1.16901
1.16907
1.1701
1.1723
1.1772
1.18344
1.20282
1.30034
1.35603
1.34873
1.27617
1.18936
276.965
1009.33
1019.99
1021.47
1023.63
1024.56
1025.09
1025.49
1025.71
1025.73
1025.62
1025.53
1025.44
1025.36
1025.24
1025.12
1025.02
1024.86
1024.76
1024.7
1024.63
1024.92
1025.32
1025.71
1026.12
1026.5
1026.79
1026.96
1027.05
1027.09
1027.1
1027.1
1027.1
1027.1
1027.1
1027.1
1027.1
1.16221
1.16254
1.16328
1.16518
1.16649
1.16651
1.16674
1.16688
1.16759
1.16824
1.16854
1.16879
1.16887
1.16891
1.16891
1.16891
1.16891
1.16892
1.16892
1.16892
1.16892
1.16892
1.16892
1.16892
1.16893
1.16893
1.16893
1.16893
1.16893
1.16893
1.16893
1.16894
1.16894
1.16894
1.16894
1.16894
1.16894
1.16895
1.16894
1.16895
1.16895
1.16896
1.16895
1.16897
1.16895
1.16897
1.16894
1.16901
1.16902
1.16995
1.17223
1.17722
1.19017
1.22184
1.28453
1.35128
1.28755
1.21602
1.16898
505.208
988.854
994.91
995.024
998.325
1001.1
1003.14
1004.56
1005.06
1005.14
1004.12
1002.8
1001.23
999.732
997.863
995.446
993.364
991.905
990.6
989.933
989.784
991.349
992.874
994.722
997.32
1000.64
1004.55
1008.72
1013.15
1017.61
1021.56
1025.03
1026.33
1026.27
1026.21
1026.11
1025.9
1.16204
1.162
1.16257
1.16357
1.16519
1.16579
1.16678
1.16695
1.16761
1.16823
1.16855
1.16879
1.16888
1.16891
1.16891
1.16891
1.16891
1.16892
1.16892
1.16892
1.16892
1.16892
1.16892
1.16892
1.16893
1.16893
1.16893
1.16893
1.16893
1.16893
1.16893
1.16894
1.16894
1.16894
1.16894
1.16894
1.16894
1.16895
1.16894
1.16895
1.16895
1.16896
1.16895
1.16897
1.16894
1.16897
1.16894
1.169
1.16898
1.16973
1.17197
1.17739
1.20192
1.25388
1.25729
1.23941
1.212
1.18711
1.16898
526.278
971.922
976.173
972.113
971.048
970.522
969.763
968.605
967.209
965.724
964.223
963.083
962.452
962.043
961.409
960.31
958.01
955.291
953.418
951.807
949.67
946.692
943.167
939.115
934.148
929.532
924.535
916.401
906.679
898.474
891.109
884.216
877.501
868.048
850.427
805.243
609.557
1.16211
1.16183
1.16199
1.16222
1.16337
1.16463
1.16613
1.16696
1.1677
1.16828
1.16857
1.16881
1.16888
1.16891
1.16891
1.16891
1.16892
1.16892
1.16892
1.16892
1.16892
1.16892
1.16892
1.16893
1.16893
1.16893
1.16893
1.16893
1.16893
1.16894
1.16894
1.16894
1.16894
1.16894
1.16894
1.16895
1.16894
1.16895
1.16895
1.16895
1.16895
1.16896
1.16895
1.16897
1.16895
1.16897
1.16894
1.16899
1.16897
1.16952
1.17144
1.17539
1.18048
1.20023
1.29945
1.31648
1.27715
1.22614
1.16898
276.853
1006.25
1018.38
1017.84
1017.36
1016.91
1016.62
1016.25
1015.8
1015.34
1015.12
1015.31
1016.84
1018.6
1020.46
1022.19
1023.64
1024.57
1024.95
1024.75
1024.59
1024.33
1023.93
1023.42
1022.86
1022.62
1022.67
1022.96
1023.06
1023.34
1024.06
1024.92
1025.87
1026.65
1027.07
1027.05
1027
1.16218
1.16195
1.16192
1.16182
1.16209
1.16335
1.16517
1.16655
1.1677
1.16832
1.16861
1.16883
1.16889
1.16891
1.16891
1.16892
1.16892
1.16892
1.16892
1.16892
1.16892
1.16892
1.16893
1.16893
1.16893
1.16893
1.16893
1.16893
1.16894
1.16894
1.16894
1.16894
1.16894
1.16894
1.16894
1.16895
1.16895
1.16895
1.16895
1.16896
1.16895
1.16896
1.16895
1.16897
1.16895
1.16897
1.16894
1.16899
1.16896
1.16942
1.17104
1.1746
1.17919
1.19407
1.24526
1.343
1.38305
1.38725
1.25281
136.041
1022.14
1026.82
1026.85
1026.92
1026.93
1026.94
1026.97
1026.99
1027
1027.01
1027.02
1027.05
1027.07
1027.08
1027.09
1027.09
1027.09
1027.09
1027.09
1027.09
1027.09
1027.09
1027.09
1027.09
1027.09
1027.09
1027.09
1027.1
1027.1
1027.1
1027.1
1027.1
1027.1
1027.1
1027.1
1027.1
1.16109
1.16201
1.16209
1.162
1.1618
1.16264
1.1642
1.16613
1.16761
1.16833
1.16865
1.16885
1.1689
1.16891
1.16891
1.16892
1.16892
1.16892
1.16892
1.16892
1.16892
1.16892
1.16893
1.16893
1.16893
1.16893
1.16893
1.16893
1.16894
1.16894
1.16894
1.16894
1.16894
1.16894
1.16894
1.16895
1.16895
1.16895
1.16895
1.16896
1.16895
1.16896
1.16895
1.16897
1.16895
1.16897
1.16894
1.169
1.16896
1.16933
1.17077
1.17411
1.17909
1.20308
1.21711
1.29579
1.28552
1.55803
1.44583
59.9025
1005.16
1027.1
1027.09
1027.09
1027.09
1027.09
1027.09
1027.09
1027.1
1027.1
1027.1
1027.1
1027.1
1027.1
1027.1
1027.1
1027.1
1027.1
1027.1
1027.1
1027.1
1027.1
1027.1
1027.1
1027.1
1027.1
1027.1
1027.1
1027.1
1027.1
1027.1
1027.1
1027.1
1027.1
1027.1
1027.1
1.16102
1.16206
1.1621
1.16216
1.16181
1.1625
1.16392
1.16599
1.16765
1.16844
1.16871
1.16887
1.1689
1.16891
1.16891
1.16892
1.16892
1.16892
1.16892
1.16892
1.16892
1.16892
1.16893
1.16893
1.16893
1.16893
1.16893
1.16893
1.16894
1.16894
1.16894
1.16894
1.16894
1.16894
1.16894
1.16895
1.16895
1.16895
1.16895
1.16896
1.16895
1.16896
1.16895
1.16897
1.16895
1.16897
1.16894
1.16899
1.16896
1.16924
1.17042
1.17349
1.17943
1.20429
1.23343
1.28808
1.28687
1.63789
1.6908
41.0427
1001.42
1027.1
1027.09
1027.1
1027.09
1027.1
1027.1
1027.1
1027.1
1027.1
1027.1
1027.1
1027.1
1027.1
1027.1
1027.1
1027.1
1027.1
1027.1
1027.1
1027.1
1027.1
1027.1
1027.1
1027.1
1027.1
1027.1
1027.1
1027.1
1027.1
1027.1
1027.1
1027.1
1027.1
1027.1
1027.1
1.16143
1.16172
1.16172
1.1619
1.16184
1.16272
1.16429
1.16636
1.16789
1.16856
1.16877
1.16889
1.16891
1.16891
1.16891
1.16891
1.16891
1.16892
1.16892
1.16892
1.16892
1.16892
1.16893
1.16893
1.16893
1.16893
1.16893
1.16893
1.16894
1.16894
1.16894
1.16894
1.16894
1.16894
1.16894
1.16895
1.16895
1.16895
1.16895
1.16896
1.16895
1.16896
1.16895
1.16897
1.16895
1.16897
1.16894
1.16899
1.16896
1.16914
1.16984
1.17259
1.17979
1.20422
1.21501
1.27061
1.31506
1.76748
2.15415
32.2856
959.756
1027.1
1027.1
1027.1
1027.1
1027.1
1027.1
1027.1
1027.1
1027.1
1027.1
1027.1
1027.1
1027.1
1027.1
1027.1
1027.1
1027.1
1027.1
1027.1
1027.1
1027.1
1027.1
1027.1
1027.1
1027.1
1027.1
1027.1
1027.1
1027.1
1027.1
1027.1
1027.1
1027.1
1027.1
1027.1
1.16112
1.1612
1.16111
1.16137
1.16119
1.16209
1.16468
1.16681
1.16805
1.16865
1.16882
1.1689
1.16891
1.16891
1.16891
1.16891
1.16891
1.16891
1.16892
1.16892
1.16892
1.16892
1.16892
1.16893
1.16893
1.16893
1.16893
1.16893
1.16893
1.16893
1.16894
1.16894
1.16894
1.16894
1.16894
1.16894
1.16894
1.16895
1.16895
1.16896
1.16895
1.16896
1.16895
1.16897
1.16895
1.16897
1.16894
1.16899
1.16896
1.16909
1.16958
1.17241
1.18044
1.2062
1.21443
1.24828
1.35924
1.88186
2.42024
34.874
957.283
1027.1
1027.1
1027.1
1027.1
1027.1
1027.1
1027.1
1027.1
1027.1
1027.1
1027.1
1027.1
1027.1
1027.1
1027.1
1027.1
1027.1
1027.1
1027.1
1027.1
1027.1
1027.1
1027.1
1027.1
1027.1
1027.1
1027.1
1027.1
1027.1
1027.1
1027.1
1027.1
1027.1
1027.1
1027.1
1.16083
1.16073
1.16059
1.1608
1.16054
1.16069
1.16268
1.1671
1.16831
1.16874
1.16885
1.1689
1.16891
1.16891
1.16891
1.16891
1.16891
1.16891
1.16891
1.16892
1.16892
1.16892
1.16892
1.16892
1.16893
1.16893
1.16893
1.16893
1.16893
1.16893
1.16893
1.16894
1.16894
1.16894
1.16894
1.16894
1.16894
1.16895
1.16895
1.16895
1.16895
1.16896
1.16895
1.16897
1.16895
1.16897
1.16894
1.16898
1.16896
1.16904
1.16943
1.17231
1.18066
1.20561
1.2161
1.24559
1.43203
2.01457
3.14243
45.0678
942.832
1026.93
1027.1
1027.1
1027.1
1027.1
1027.1
1027.1
1027.1
1027.1
1027.1
1027.1
1027.1
1027.1
1027.1
1027.1
1027.1
1027.1
1027.1
1027.1
1027.1
1027.1
1027.1
1027.1
1027.1
1027.1
1027.1
1027.1
1027.1
1027.1
1027.1
1027.1
1027.1
1027.1
1027.1
1027.1
1.16035
1.16041
1.16042
1.16043
1.16045
1.16044
1.16105
1.16651
1.16859
1.16885
1.16888
1.16891
1.16891
1.16891
1.16891
1.16891
1.16891
1.16892
1.16892
1.16892
1.16892
1.16892
1.16893
1.16893
1.16893
1.16893
1.16893
1.16894
1.16894
1.16894
1.16894
1.16894
1.16894
1.16895
1.16895
1.16895
1.16895
1.16896
1.16896
1.16896
1.16896
1.16897
1.16897
1.16897
1.16896
1.16897
1.16894
1.169
1.16896
1.16907
1.16958
1.1725
1.18177
1.20661
1.20799
1.26754
1.37866
2.07265
3.3162
41.1209
947.605
1026.51
1027.09
1027.1
1027.1
1027.1
1027.1
1027.1
1027.1
1027.1
1027.1
1027.1
1027.1
1027.1
1027.1
1027.1
1027.1
1027.1
1027.1
1027.1
1027.1
1027.1
1027.1
1027.1
1027.1
1027.1
1027.1
1027.1
1027.1
1027.1
1027.1
1027.1
1027.1
1027.1
1027.1
1027.1
1.16605
1.16641
1.16657
1.16683
1.16711
1.16761
1.16832
1.16873
1.1688
1.16881
1.16887
1.1689
1.16891
1.16891
1.16891
1.16892
1.16892
1.16892
1.16892
1.16892
1.16892
1.16892
1.16893
1.16893
1.16893
1.16893
1.16893
1.16893
1.16893
1.16894
1.16894
1.16894
1.16894
1.16894
1.16894
1.16895
1.16895
1.16895
1.16895
1.16896
1.16895
1.16896
1.16896
1.16897
1.16896
1.16897
1.16895
1.16899
1.16903
1.16995
1.1723
1.17915
1.19031
1.20553
1.21365
1.26775
1.34586
2.01925
4.98289
80.4541
977.048
1026.73
1027.09
1027.09
1027.1
1027.1
1027.1
1027.1
1027.1
1027.1
1027.1
1027.1
1027.1
1027.1
1027.1
1027.1
1027.1
1027.1
1027.1
1027.1
1027.1
1027.1
1027.1
1027.1
1027.1
1027.1
1027.1
1027.1
1027.1
1027.1
1027.1
1027.1
1027.1
1027.1
1027.1
1027.1
1.16576
1.16649
1.1668
1.16715
1.16761
1.16805
1.16832
1.16843
1.16852
1.16862
1.16877
1.16886
1.1689
1.16891
1.16891
1.16892
1.16892
1.16892
1.16892
1.16892
1.16892
1.16893
1.16893
1.16893
1.16893
1.16893
1.16893
1.16894
1.16894
1.16894
1.16894
1.16894
1.16894
1.16895
1.16895
1.16895
1.16895
1.16896
1.16895
1.16896
1.16896
1.16897
1.16896
1.16897
1.16896
1.16897
1.16895
1.16903
1.16913
1.17016
1.17218
1.17871
1.18852
1.20453
1.21704
1.25716
1.39254
1.97029
3.62043
68.3907
991.491
1027.02
1027.09
1027.09
1027.1
1027.1
1027.1
1027.1
1027.1
1027.1
1027.1
1027.1
1027.1
1027.1
1027.1
1027.1
1027.1
1027.1
1027.1
1027.1
1027.1
1027.1
1027.1
1027.1
1027.1
1027.1
1027.1
1027.1
1027.1
1027.1
1027.1
1027.1
1027.1
1027.1
1027.1
1027.1
1.16534
1.16641
1.16667
1.16711
1.16753
1.16788
1.16804
1.1681
1.16831
1.16851
1.16871
1.16884
1.16889
1.16891
1.16891
1.16891
1.16891
1.16891
1.16891
1.16892
1.16892
1.16892
1.16892
1.16892
1.16892
1.16893
1.16893
1.16893
1.16893
1.16893
1.16893
1.16894
1.16894
1.16894
1.16894
1.16894
1.16894
1.16895
1.16894
1.16895
1.16894
1.16896
1.16895
1.16896
1.16895
1.16897
1.16895
1.16907
1.16919
1.17011
1.17166
1.17716
1.18994
1.20507
1.20495
1.26398
1.33969
1.82011
1.89464
76.1226
1010.72
1027.09
1027.09
1027.09
1027.1
1027.1
1027.1
1027.1
1027.1
1027.1
1027.1
1027.1
1027.1
1027.1
1027.1
1027.1
1027.1
1027.1
1027.1
1027.1
1027.1
1027.1
1027.1
1027.1
1027.1
1027.1
1027.1
1027.1
1027.1
1027.1
1027.1
1027.1
1027.1
1027.1
1027.1
1027.1
1.16453
1.1664
1.16658
1.16705
1.16733
1.16754
1.16768
1.16792
1.16823
1.16848
1.16869
1.16883
1.16889
1.16891
1.16891
1.16891
1.16891
1.16891
1.16891
1.16891
1.16891
1.16892
1.16892
1.16892
1.16892
1.16892
1.16892
1.16893
1.16893
1.16893
1.16893
1.16893
1.16893
1.16894
1.16894
1.16894
1.16894
1.16894
1.16894
1.16895
1.16894
1.16896
1.16895
1.16896
1.16895
1.16897
1.16895
1.16906
1.16916
1.16992
1.17175
1.17838
1.18801
1.20158
1.21628
1.30478
1.3028
1.67569
1.5846
73.2706
1014.18
1027.09
1027.09
1027.09
1027.09
1027.1
1027.1
1027.1
1027.1
1027.1
1027.1
1027.1
1027.1
1027.1
1027.1
1027.1
1027.1
1027.1
1027.1
1027.1
1027.1
1027.1
1027.1
1027.1
1027.1
1027.1
1027.1
1027.1
1027.1
1027.1
1027.1
1027.1
1027.1
1027.1
1027.1
1027.1
1.1628
1.16532
1.16649
1.16707
1.16712
1.16725
1.16749
1.16782
1.16815
1.1684
1.16863
1.1688
1.16888
1.1689
1.16891
1.16891
1.16891
1.16892
1.16892
1.16892
1.16892
1.16892
1.16892
1.16892
1.16892
1.16892
1.16893
1.16893
1.16893
1.16893
1.16893
1.16893
1.16893
1.16894
1.16894
1.16894
1.16894
1.16895
1.16894
1.16895
1.16895
1.16896
1.16895
1.16896
1.16895
1.16897
1.16895
1.16905
1.16911
1.16985
1.17166
1.17832
1.18565
1.199
1.23696
1.32867
1.42065
1.60907
1.48986
119.105
1014.4
1026.9
1027
1027.07
1027.08
1027.09
1027.09
1027.09
1027.09
1027.09
1027.09
1027.09
1027.09
1027.09
1027.09
1027.1
1027.1
1027.1
1027.1
1027.09
1027.1
1027.1
1027.1
1027.1
1027.1
1027.1
1027.1
1027.1
1027.1
1027.1
1027.1
1027.1
1027.1
1027.1
1027.1
1027.1
1.16144
1.1641
1.16613
1.1671
1.16728
1.16736
1.16741
1.1677
1.16796
1.16818
1.1685
1.16873
1.16885
1.16889
1.1689
1.16891
1.16891
1.16891
1.16892
1.16892
1.16892
1.16892
1.16892
1.16892
1.16892
1.16893
1.16893
1.16893
1.16893
1.16893
1.16893
1.16894
1.16894
1.16894
1.16894
1.16894
1.16894
1.16895
1.16895
1.16895
1.16895
1.16896
1.16895
1.16896
1.16895
1.16897
1.16896
1.16905
1.16917
1.16991
1.17083
1.17502
1.18427
1.20851
1.26102
1.32213
1.44698
1.45645
1.33603
209.537
1008.16
1023.81
1024.66
1025.5
1025.92
1026.2
1026.39
1026.46
1026.52
1026.55
1026.52
1026.47
1026.52
1026.59
1026.63
1026.71
1026.74
1026.72
1026.63
1026.53
1026.43
1026.71
1026.9
1026.97
1027.04
1027.08
1027.09
1027.1
1027.1
1027.1
1027.1
1027.1
1027.1
1027.1
1027.1
1027.1
1.16155
1.16377
1.16589
1.16693
1.16724
1.16759
1.16767
1.16768
1.16782
1.16801
1.16827
1.16863
1.16881
1.16888
1.1689
1.1689
1.16891
1.16891
1.16891
1.16892
1.16892
1.16892
1.16893
1.16893
1.16893
1.16893
1.16893
1.16893
1.16893
1.16894
1.16894
1.16894
1.16894
1.16894
1.16894
1.16895
1.16894
1.16895
1.16894
1.16895
1.16895
1.16896
1.16895
1.16896
1.16896
1.16899
1.169
1.16916
1.1694
1.17035
1.17111
1.17484
1.18263
1.21114
1.28619
1.37619
1.37378
1.2895
1.21051
389.289
1005.58
1013.56
1014.24
1015.01
1015.8
1016.39
1017.11
1017.68
1018.04
1018.23
1018.37
1018.14
1018.9
1020.04
1020.89
1021.51
1021.35
1018.22
1015.59
1015.19
1017
1018.97
1020.38
1021.85
1023.55
1025.03
1026.13
1026.75
1026.99
1027.08
1027.09
1027.1
1027.1
1027.1
1027.1
1027.1
1.16189
1.16238
1.16512
1.16625
1.16695
1.16745
1.1679
1.1681
1.16799
1.16799
1.16811
1.16852
1.16874
1.16887
1.1689
1.1689
1.1689
1.1689
1.16891
1.16891
1.16891
1.16891
1.16892
1.16892
1.16892
1.16892
1.16892
1.16892
1.16892
1.16893
1.16893
1.16893
1.16893
1.16893
1.16893
1.16894
1.16893
1.16894