/*--------------------------------*- C++ -*----------------------------------*\
| =========                 |                                                 |
| \\      /  F ield         | OpenFOAM: The Open Source CFD Toolbox           |
|  \\    /   O peration     | Version:  2.3.0                                 |
|   \\  /    A nd           | Web:      www.OpenFOAM.org                      |
|    \\/     M anipulation  |                                                 |
\*---------------------------------------------------------------------------*/
FoamFile
{
    version     2.0;
    format      ascii;
    class       volVectorField;
    location    "22";
    object      U.airMean;
}
// * * * * * * * * * * * * * * * * * * * * * * * * * * * * * * * * * * * * * //

dimensions      [0 1 -1 0 0 0 0];

internalField   nonuniform List<vector> 
6144
(
(0.00804641 0.0206853 -0.00108144)
(0.00811321 0.00504782 -0.00123355)
(0.00451767 0.00275459 -0.00198221)
(0.00453465 0.000450619 -0.00195461)
(0.00304922 -0.00116274 -0.00153859)
(0.00303792 -0.000810695 -0.00138368)
(0.00254605 -0.00119779 -0.00133041)
(0.00266399 -0.000247351 -0.00137061)
(0.0025805 0.000361104 -0.00159315)
(0.00267809 0.00150333 -0.00145276)
(0.00271356 0.00208425 -0.00131954)
(0.00288425 0.0024417 -0.00111044)
(0.00299736 0.00221941 -0.00107851)
(0.00311083 0.00190305 -0.00105949)
(0.00313882 0.00145241 -0.00119183)
(0.00317757 0.00114614 -0.00128209)
(0.00318774 0.000850002 -0.00139896)
(0.00320329 0.000675831 -0.00146969)
(0.00320926 0.000517723 -0.00153436)
(0.00321372 0.000430309 -0.00157099)
(0.00321375 0.000355163 -0.00159906)
(0.00321259 0.000314052 -0.00161287)
(0.00320945 0.000281908 -0.00162091)
(0.00320569 0.000261557 -0.00162193)
(0.00320065 0.00024769 -0.0016199)
(0.00319512 0.000238469 -0.00161499)
(0.00318898 0.000234261 -0.00160875)
(0.00318341 0.000231214 -0.00160128)
(0.00317782 0.000230874 -0.00159283)
(0.00317132 0.00022789 -0.00158428)
(0.00316636 0.000238406 -0.00157426)
(0.00315782 0.000220232 -0.00156708)
(0.00315712 0.000266165 -0.00155259)
(0.00314138 0.000191037 -0.00155156)
(0.00315125 0.000336123 -0.00152614)
(0.00312388 0.000109732 -0.00153525)
(0.00314555 0.000473527 -0.00149158)
(0.00310761 -7.24109e-05 -0.00151441)
(0.00313378 0.000706017 -0.00144101)
(0.00309215 -0.000406916 -0.00147346)
(0.00311505 0.00103721 -0.00135662)
(0.00308704 -0.000981564 -0.0013845)
(0.00309111 0.00137946 -0.00124477)
(0.0031272 -0.00194289 -0.00127998)
(0.00304418 0.00171494 -0.0012027)
(0.00314978 -0.00334603 -0.00129686)
(0.00293627 0.00255008 -0.00150631)
(0.00298383 -0.00442536 -0.00147704)
(0.00285635 0.00492795 -0.00196102)
(0.00294272 -0.00460641 -0.00187935)
(0.00409753 0.00971446 -0.00238427)
(0.00294717 -0.0089102 -0.00227742)
(0.00442297 0.0174688 -0.00287685)
(0.00417402 -0.0142513 -0.00449818)
(0.00623748 0.0397858 -0.00631751)
(0.00361279 -0.0341395 -0.0111128)
(0.0128749 0.0684341 -0.00532112)
(0.00866373 -0.0565962 -0.0235703)
(-0.039126 0.126174 -0.0768053)
(0.0422679 0.0327912 -0.111755)
(0.0845833 0.332304 -0.00170973)
(0.0410543 0.382988 -0.00138668)
(0.0148539 -0.0253596 0.0034963)
(0.0307025 -0.105949 0.00180287)
(0.0252695 -0.123363 0.0026959)
(0.0158916 -0.121181 0.00495668)
(0.0101344 -0.130492 0.00593195)
(0.00614743 -0.127662 0.00579772)
(0.00342489 -0.129805 0.00508952)
(0.00127039 -0.124323 0.00416583)
(-0.000266377 -0.122532 0.00322084)
(-0.00121593 -0.115745 0.0023283)
(-0.00160044 -0.111628 0.00145906)
(-0.00162167 -0.10498 0.000638981)
(-0.00142136 -0.100121 -0.000119339)
(-0.00111892 -0.0940777 -0.000806862)
(-0.00072455 -0.0892494 -0.00142669)
(-0.000234922 -0.0841493 -0.00199693)
(0.000346992 -0.0797595 -0.00250931)
(0.000955868 -0.0758736 -0.00296503)
(0.0015015 -0.0720214 -0.00332325)
(0.00190106 -0.0679099 -0.00363182)
(0.00205373 -0.0634831 -0.00383467)
(0.00197541 -0.0583591 -0.0039215)
(0.00174272 -0.0528681 -0.00397191)
(0.00145389 -0.04677 -0.0039196)
(0.000935269 -0.0400237 -0.00403214)
(0.000277093 -0.032164 -0.0041165)
(-0.000622425 -0.0232592 -0.00425138)
(-0.00106709 -0.0131077 -0.00388712)
(0.000121879 -0.00391638 -0.00385647)
(0.00171206 0.00337102 -0.00586991)
(0.00183315 0.0110377 -0.00654091)
(0.00141416 0.0179628 -0.00447005)
(0.00204247 0.0208696 0.00220047)
(0.00325943 0.0160876 0.00765671)
(0.0161713 0.0234386 0.00252628)
(0.0169957 0.0116738 0.00254574)
(0.0100947 0.00840493 0.000778854)
(0.0105337 0.00579625 0.00131957)
(0.00659749 0.00254767 0.00152239)
(0.00666979 0.00228375 0.00163733)
(0.00504164 0.000746877 0.00172316)
(0.00512893 0.00180538 0.00138281)
(0.00479867 0.00205789 0.00115499)
(0.00506661 0.00312254 0.00120501)
(0.00521 0.00339206 0.00126569)
(0.00571685 0.0035821 0.00156271)
(0.00594152 0.00311248 0.00163823)
(0.0062008 0.00271506 0.00170453)
(0.00621994 0.00213935 0.00160741)
(0.00629736 0.00176097 0.00154979)
(0.00628562 0.00137771 0.00144707)
(0.00630864 0.00115389 0.00139026)
(0.0062996 0.000944469 0.00132815)
(0.00629859 0.000827398 0.00130082)
(0.00628628 0.000725134 0.00127996)
(0.00627558 0.000667771 0.00127776)
(0.00626128 0.000621652 0.00128121)
(0.00624685 0.000593145 0.00129334)
(0.00623062 0.000573415 0.00130853)
(0.0062139 0.000560439 0.00132749)
(0.00619638 0.000554215 0.0013479)
(0.00617983 0.000548611 0.00136928)
(0.00616323 0.000548066 0.00139133)
(0.00614543 0.000545721 0.00141312)
(0.00613147 0.000554047 0.0014363)
(0.0061089 0.000538219 0.00145677)
(0.00610442 0.000581814 0.00148355)
(0.00606548 0.000510185 0.00149677)
(0.00608579 0.000658504 0.00153589)
(0.0060163 0.000417093 0.00153628)
(0.00607376 0.000813718 0.00159539)
(0.00596257 0.00020066 0.001576)
(0.00605857 0.00108079 0.00166771)
(0.0059107 -0.000205274 0.00162949)
(0.0060449 0.00146932 0.00176909)
(0.00589222 -0.000911966 0.00171942)
(0.00605482 0.00192488 0.00188672)
(0.0059574 -0.00206364 0.00182899)
(0.00603897 0.00243072 0.00193001)
(0.00599856 -0.00370825 0.00181394)
(0.00577616 0.00333584 0.00159772)
(0.0056232 -0.00517602 0.00153278)
(0.00500849 0.00531635 0.000663032)
(0.00516327 -0.0053083 0.00103263)
(0.00644417 0.00943948 -0.000125077)
(0.00539558 -0.00612412 0.000232024)
(0.00572029 0.0172613 0.000520816)
(0.00283817 -0.0120898 -0.000388397)
(0.0157175 0.041713 0.00196447)
(0.0281964 -0.0434471 -0.00152992)
(-0.0207824 0.0391631 0.00484054)
(-0.0174049 -0.0151831 -0.0107107)
(0.0124501 0.190381 -0.00503671)
(0.1564 -0.00663467 -0.0631871)
(0.0884673 0.348483 0.00247323)
(-0.00112971 0.434341 0.00877743)
(-0.0274013 -0.0781853 0.0111189)
(-0.010854 -0.0397707 0.0108778)
(-0.0144173 -0.066183 0.0115913)
(-0.0197272 -0.078113 0.013194)
(-0.0202813 -0.0898105 0.012446)
(-0.0197857 -0.0914323 0.0110455)
(-0.0186293 -0.098057 0.00922065)
(-0.0174843 -0.0965689 0.00740281)
(-0.0160637 -0.0979714 0.00576519)
(-0.0145379 -0.0937165 0.00431491)
(-0.0128016 -0.0916984 0.00290818)
(-0.0110192 -0.0867827 0.00158883)
(-0.00914484 -0.0834744 0.000392151)
(-0.00714661 -0.0787409 -0.00057164)
(-0.00486539 -0.0745048 -0.00134328)
(-0.00250004 -0.0695028 -0.00193364)
(-0.00077711 -0.0645571 -0.00238885)
(0.000156317 -0.0593846 -0.00265901)
(0.000475831 -0.0541356 -0.00271734)
(0.000466335 -0.0489462 -0.00252814)
(0.00044631 -0.0440497 -0.00207291)
(0.000357522 -0.0391498 -0.00159602)
(1.44468e-05 -0.034824 -0.00122834)
(-0.000765676 -0.0305041 -0.000935116)
(-0.00191424 -0.0259927 -0.000885838)
(-0.00336243 -0.0210424 -0.000987503)
(-0.00503159 -0.0155951 -0.0015108)
(-0.00582025 -0.00886433 -0.00125151)
(-0.00460693 -0.00213456 -0.000599389)
(-0.00258087 0.00408118 -0.00172843)
(-0.00148119 0.0106375 -0.0023322)
(-0.001392 0.0168806 0.000198308)
(-0.00130714 0.0192077 0.00726032)
(0.000221007 0.0149499 0.0133876)
(0.0192912 0.0230162 0.00365952)
(0.0212316 0.0145564 0.00378386)
(0.0129054 0.010596 0.00163471)
(0.0139294 0.00933482 0.00223295)
(0.00817984 0.00503345 0.00234195)
(0.00815509 0.00462157 0.00268507)
(0.00520762 0.0021397 0.00308378)
(0.00518412 0.0029604 0.00291056)
(0.00458507 0.00279172 0.0027345)
(0.00504197 0.0036881 0.00279867)
(0.005196 0.00360268 0.00283137)
(0.00598791 0.0037606 0.00308135)
(0.00624856 0.00321408 0.00315973)
(0.0065709 0.00291919 0.00325096)
(0.00653692 0.00236027 0.00321446)
(0.00659642 0.00202448 0.00321986)
(0.00650624 0.00162888 0.00318439)
(0.00648728 0.00140596 0.00318731)
(0.00641833 0.00118124 0.00317981)
(0.00638022 0.00105859 0.00319403)
(0.00632904 0.000946382 0.00320671)
(0.00628985 0.000883705 0.00323003)
(0.00624883 0.000832233 0.00325312)
(0.00621291 0.000800545 0.00328005)
(0.00617715 0.000778013 0.00330723)
(0.00614318 0.000763293 0.00333579)
(0.00611039 0.000756446 0.00336393)
(0.00607984 0.000749188 0.00339259)
(0.00604983 0.0007485 0.00342088)
(0.00602089 0.000747512 0.0034492)
(0.00599492 0.000752649 0.00347713)
(0.00596118 0.000744442 0.0035022)
(0.00594435 0.000776283 0.00352925)
(0.00589485 0.000721622 0.00355037)
(0.00590874 0.00084082 0.00358538)
(0.00582069 0.000633133 0.00359765)
(0.00588886 0.000979041 0.00364361)
(0.0057352 0.000416084 0.00364154)
(0.00588095 0.00122775 0.00370613)
(0.00565017 1.559e-06 0.0036818)
(0.00590912 0.00161708 0.00378029)
(0.00560846 -0.000696642 0.00371876)
(0.00600806 0.00215723 0.00385701)
(0.00568237 -0.00175669 0.00374283)
(0.0060924 0.00295175 0.00389452)
(0.0057602 -0.0032574 0.00372211)
(0.00570532 0.00412395 0.00373427)
(0.0053783 -0.00494059 0.00370038)
(0.00438985 0.00592005 0.00285718)
(0.00505133 -0.00584268 0.00326025)
(0.00522818 0.00956982 0.00174959)
(0.00591912 -0.00564355 0.00230855)
(0.00597584 0.0184589 0.00329451)
(0.000696224 -0.0195557 0.0031295)
(0.0236843 0.0295774 0.00448602)
(0.0378477 -0.0515854 0.00107483)
(-0.0528817 0.068732 0.0202449)
(-0.0649456 -0.105458 -0.00641738)
(-0.0558944 0.175999 -0.0320364)
(0.16521 -0.0179203 -0.040147)
(0.1602 0.307962 -0.00295445)
(0.0673246 0.324477 0.00270567)
(0.065097 -0.074657 0.0150525)
(0.0243725 -0.00922192 0.0167701)
(0.00142605 -0.0463929 0.0158379)
(-0.00536217 -0.0536561 0.0149646)
(-0.0108094 -0.0634655 0.0123747)
(-0.0150224 -0.0640075 0.0097422)
(-0.0171605 -0.0695127 0.00683388)
(-0.0179458 -0.0671418 0.00428857)
(-0.0174978 -0.0677078 0.00202712)
(-0.0158121 -0.0631611 6.97516e-05)
(-0.0128579 -0.0606386 -0.001728)
(-0.0100225 -0.0549575 -0.00344532)
(-0.00782371 -0.0500022 -0.00478082)
(-0.00629985 -0.0427269 -0.00589327)
(-0.00490389 -0.0346991 -0.00647862)
(-0.00346611 -0.0252307 -0.00607269)
(-0.00167365 -0.0177073 -0.00489283)
(0.000109318 -0.0124755 -0.00301904)
(0.001314 -0.0101075 -0.00118402)
(0.00179456 -0.0095558 0.000264067)
(0.00161943 -0.0100687 0.00129779)
(0.0009134 -0.0106853 0.00192541)
(-0.000172811 -0.0108573 0.00214265)
(-0.0015388 -0.0105196 0.00205498)
(-0.00330286 -0.00921133 0.00174962)
(-0.00540588 -0.00714206 0.00115755)
(-0.00793366 -0.00436503 5.63392e-05)
(-0.00972617 -0.000535648 -0.000428813)
(-0.00887802 0.00377763 4.41744e-05)
(-0.00686992 0.0081599 -0.000324519)
(-0.00614545 0.013088 8.55187e-06)
(-0.00653801 0.0174935 0.00325818)
(-0.00664753 0.0189615 0.0102377)
(-0.00622574 0.0139199 0.0156422)
(0.0203352 0.0225474 0.00391565)
(0.0241777 0.0163979 0.0042889)
(0.0143364 0.011269 0.00126457)
(0.0169719 0.0118755 0.00159092)
(0.0103013 0.00664628 0.00136775)
(0.0105334 0.00681104 0.00190722)
(0.00566506 0.00284817 0.00259003)
(0.00511548 0.00354524 0.00270658)
(0.00390773 0.00262341 0.00276184)
(0.00458667 0.0037555 0.0029109)
(0.00465143 0.00339391 0.00301192)
(0.00550525 0.00365525 0.00341236)
(0.00566973 0.00312913 0.00358252)
(0.00598626 0.00301135 0.00373987)
(0.0058916 0.00250139 0.00373014)
(0.00594018 0.00225128 0.00375658)
(0.00580797 0.00185047 0.00373622)
(0.00577428 0.00164132 0.00375417)
(0.00567221 0.00139521 0.00376062)
(0.00561524 0.00126596 0.00378808)
(0.00554239 0.00113872 0.00381313)
(0.00548873 0.00107032 0.00384733)
(0.00543346 0.00101298 0.00387808)
(0.00538643 0.000980142 0.00391083)
(0.00534083 0.00095648 0.00394236)
(0.00529763 0.000943415 0.00397347)
(0.00525604 0.000936713 0.00400298)
(0.00521645 0.000930772 0.00403187)
(0.00517701 0.000930131 0.00405951)
(0.0051394 0.000929857 0.00408649)
(0.00510403 0.00093488 0.0041128)
(0.00506588 0.000931302 0.00413787)
(0.0050395 0.00095532 0.00416516)
(0.00499183 0.000913371 0.00418555)
(0.0049928 0.00101118 0.00421579)
(0.00491129 0.000829367 0.00422765)
(0.00497235 0.00113769 0.00426823)
(0.00482472 0.000617924 0.00426595)
(0.00498142 0.0013738 0.00432199)
(0.00473838 0.000211593 0.00429466)
(0.00504596 0.00176499 0.00438115)
(0.00468632 -0.000445636 0.00430272)
(0.00518156 0.00237853 0.00444297)
(0.00470833 -0.00137247 0.00427176)
(0.00536183 0.00334035 0.00450432)
(0.00472302 -0.00264129 0.00423593)
(0.00518177 0.00468915 0.00446057)
(0.00443274 -0.00437071 0.00423172)
(0.00394206 0.00647061 0.00384363)
(0.00416578 -0.00685783 0.00386816)
(0.00410744 0.00957045 0.0027031)
(0.00487718 -0.0100008 0.00341712)
(0.00720498 0.0151071 0.00506455)
(0.00307474 -0.0236742 0.00158761)
(0.0224629 0.0227653 0.0077835)
(0.0229396 -0.0302959 0.00336876)
(-0.012234 0.100413 0.0207019)
(-0.0753244 -0.133816 0.0157134)
(-0.0672817 0.216917 -0.0837965)
(0.187657 -0.0715068 -0.0203391)
(0.194745 0.320588 -0.00316516)
(0.068502 0.245382 -0.000212271)
(0.0725822 0.0178149 0.0119883)
(-0.0189043 0.0798704 0.0180797)
(-0.0155916 -0.000973437 0.0206197)
(-0.0183628 -0.000167402 0.0143365)
(-0.0207338 -0.0181392 0.00803074)
(-0.0214065 -0.0209132 0.00291308)
(-0.0199992 -0.0258971 -0.00100125)
(-0.0180357 -0.0220043 -0.00426029)
(-0.0160602 -0.0196541 -0.00734976)
(-0.0141275 -0.00976147 -0.00971011)
(-0.011656 0.000773572 -0.0110136)
(-0.00924031 0.013824 -0.0100748)
(-0.00735104 0.0230787 -0.00870502)
(-0.00552645 0.0310078 -0.00688321)
(-0.00311007 0.0360231 -0.00483386)
(-0.000180058 0.0385472 -0.00249983)
(0.00250974 0.0380458 -0.000385876)
(0.00411511 0.035533 0.00132077)
(0.00460712 0.0318033 0.00248167)
(0.00403877 0.0273333 0.00321398)
(0.00270154 0.0227073 0.00355494)
(0.000860241 0.0183256 0.00354162)
(-0.00131146 0.0145126 0.00318238)
(-0.00367965 0.0116979 0.00260892)
(-0.0062804 0.0099513 0.00177286)
(-0.0091138 0.00908079 0.00057469)
(-0.0114441 0.00890288 -0.000497596)
(-0.0122337 0.00948164 -0.000524284)
(-0.0113308 0.0105465 0.000116039)
(-0.0101059 0.0126859 0.000385242)
(-0.00985693 0.0154045 0.00117287)
(-0.0101872 0.0176894 0.00471196)
(-0.010977 0.0178503 0.0114948)
(-0.0116638 0.013105 0.0163665)
(0.0199518 0.0222145 0.0044552)
(0.0261455 0.0184633 0.00521574)
(0.0149769 0.011216 0.00111426)
(0.0193487 0.0135977 0.00157717)
(0.0122766 0.00681301 0.000256911)
(0.0133139 0.00834868 0.000659571)
(0.00705406 0.00355594 0.00107617)
(0.00580878 0.00439224 0.00174691)
(0.00316543 0.00205319 0.00211259)
(0.00353783 0.00320999 0.00247328)
(0.00345169 0.00249602 0.0026848)
(0.00421222 0.00305817 0.00334084)
(0.00415194 0.00265689 0.00360068)
(0.00439304 0.0027925 0.00384176)
(0.00420729 0.00238723 0.00384955)
(0.00420728 0.00227183 0.00391026)
(0.00399153 0.00191393 0.00389111)
(0.00389979 0.00175614 0.00391276)
(0.003736 0.00151276 0.00391137)
(0.00363456 0.00139628 0.00393191)
(0.003519 0.00126395 0.00394507)
(0.00343244 0.00119728 0.00396777)
(0.0033517 0.00113664 0.00398797)
(0.00328562 0.0011027 0.00401152)
(0.00322488 0.00107751 0.00403275)
(0.0031714 0.00106561 0.00405348)
(0.00312424 0.00105769 0.00407228)
(0.00308146 0.00105247 0.00408887)
(0.00304104 0.00105081 0.00410388)
(0.00300333 0.00105005 0.00411743)
(0.00296702 0.00105385 0.00412915)
(0.00293105 0.0010521 0.0041403)
(0.00290108 0.00107102 0.00415186)
(0.00285992 0.00103935 0.0041587)
(0.00285708 0.00112252 0.00417777)
(0.00278791 0.000961323 0.00417666)
(0.0028416 0.00124302 0.00420825)
(0.00270868 0.000763041 0.00418849)
(0.00286289 0.0014814 0.00423679)
(0.00263009 0.000383871 0.00418666)
(0.0029467 0.00189009 0.0042666)
(0.00257933 -0.000212077 0.0041583)
(0.00310146 0.00254144 0.00429328)
(0.00260477 -0.000981323 0.00409766)
(0.00330302 0.00352604 0.00431826)
(0.00268256 -0.00184381 0.00406373)
(0.00324892 0.00492039 0.00425993)
(0.00259268 -0.00315014 0.00398757)
(0.0029321 0.00678284 0.00381838)
(0.00281736 -0.00659105 0.00375924)
(0.00393849 0.00849237 0.00311189)
(0.00426245 -0.0115821 0.0058996)
(0.00742579 0.0139562 0.00796847)
(0.00262818 -0.0209319 0.0067021)
(0.014651 0.0265181 0.0270056)
(0.00961402 -0.0427902 0.027317)
(0.00759783 0.068889 0.0621183)
(-0.102768 -0.129616 0.0459125)
(-0.0120403 0.19456 -0.165026)
(0.139276 -0.0864822 0.00054939)
(0.166616 0.460031 0.000509878)
(0.0556796 0.589958 -0.000124496)
(0.0522103 0.517668 0.00703532)
(0.00864027 0.535996 0.00603085)
(0.0076845 0.452333 0.00346333)
(-0.00817426 0.393877 -0.00177241)
(-0.00976811 0.38504 -0.00600787)
(-0.0114823 0.383769 -0.00824061)
(-0.0114735 0.391439 -0.0102908)
(-0.0116286 0.404092 -0.0106217)
(-0.0111189 0.415177 -0.010004)
(-0.0101227 0.425154 -0.00818658)
(-0.00791205 0.426301 -0.00622075)
(-0.00534408 0.424953 -0.00385445)
(-0.00257363 0.416429 -0.00157926)
(-0.000157158 0.396907 0.000461534)
(0.00228157 0.364224 0.00227309)
(0.00448404 0.320552 0.00365632)
(0.00615336 0.278239 0.00449233)
(0.00704429 0.23569 0.00486799)
(0.00713593 0.190136 0.00482093)
(0.00649729 0.143974 0.00445302)
(0.00521247 0.0995223 0.00378549)
(0.0034273 0.0622385 0.00303573)
(0.00118365 0.0460137 0.00227727)
(-0.00127319 0.0375135 0.00162502)
(-0.00378792 0.0313727 0.000881874)
(-0.00623921 0.0264574 0.000200738)
(-0.00847618 0.0229041 -0.000286256)
(-0.0101072 0.0204932 -0.00017654)
(-0.0109324 0.019109 0.000329627)
(-0.0115504 0.0185608 0.000700811)
(-0.0126083 0.0188768 0.00158202)
(-0.0144872 0.0191981 0.00519404)
(-0.0170928 0.0181642 0.0111508)
(-0.0201396 0.0131133 0.014985)
(0.0179657 0.0216704 0.00583395)
(0.0272872 0.0211821 0.00641451)
(0.0145455 0.0109507 0.00167364)
(0.0205022 0.0151339 0.00290335)
(0.0134484 0.00568326 0.000561771)
(0.0152432 0.00886108 0.000367226)
(0.00881997 0.00303911 -0.00017723)
(0.00721463 0.00499971 0.000616991)
(0.00349254 0.00167215 0.00132126)
(0.00302677 0.00272215 0.00198028)
(0.00232759 0.00118919 0.00231088)
(0.00283479 0.00198258 0.00317333)
(0.00272311 0.00169618 0.00355942)
(0.00298305 0.00224182 0.00394653)
(0.00278172 0.00197806 0.00402507)
(0.00276278 0.00206796 0.00415183)
(0.00251872 0.00178673 0.00415525)
(0.00241197 0.00173968 0.00418603)
(0.0022308 0.00154467 0.00416611)
(0.00212415 0.00148163 0.00416211)
(0.00200833 0.00137306 0.00414437)
(0.00192826 0.00132968 0.00413678)
(0.00185792 0.00128227 0.00412601)
(0.00180349 0.00126231 0.00411854)
(0.00175693 0.00124779 0.00410965)
(0.00171904 0.00124639 0.00410218)
(0.00168868 0.00124599 0.00409485)
(0.00166152 0.00124929 0.00408603)
(0.00163583 0.00125273 0.00407654)
(0.00161264 0.00125624 0.00406693)
(0.00159135 0.00126157 0.0040577)
(0.00157173 0.00126231 0.00404931)
(0.00155508 0.00127782 0.0040414)
(0.00153494 0.00125087 0.00403121)
(0.00154245 0.00132403 0.00403337)
(0.00149812 0.00118328 0.00401537)
(0.0015621 0.00144877 0.00404081)
(0.00146068 0.00101298 0.00400286)
(0.00163536 0.00170018 0.00406873)
(0.0014352 0.000687206 0.00399367)
(0.00177663 0.00213079 0.0041137)
(0.00144624 0.000204139 0.00397669)
(0.00193579 0.00280939 0.00413869)
(0.00152763 -0.000333832 0.00394413)
(0.00198209 0.00381947 0.00407112)
(0.00161015 -0.000853966 0.00389839)
(0.00190658 0.00530032 0.00389268)
(0.00167774 -0.00204521 0.00375216)
(0.00260052 0.00700936 0.00377626)
(0.00253146 -0.00561758 0.003686)
(0.00385966 0.00806842 0.00345719)
(0.00296247 -0.0101412 0.00620337)
(0.0048899 0.0135386 0.0078031)
(-0.0005562 -0.0161029 0.01222)
(0.00691106 0.0228643 0.0387632)
(-0.0127072 -0.0337559 0.0476065)
(0.0216495 0.040836 0.0954174)
(-0.0807485 -0.118925 0.0797573)
(0.03251 0.0625464 -0.17043)
(0.0849216 -0.0141694 0.0124406)
(0.162505 0.486974 -0.00633002)
(0.0501586 0.592248 -0.00359629)
(0.0480311 0.57324 0.00412912)
(0.015103 0.610731 0.00179096)
(0.00638187 0.598947 -0.000718168)
(-0.00302218 0.605322 -0.00379065)
(-0.00551946 0.604906 -0.00486668)
(-0.00835735 0.599102 -0.0052979)
(-0.00929186 0.600047 -0.00458786)
(-0.0101132 0.605026 -0.0031271)
(-0.00964277 0.616778 -0.000897262)
(-0.00833282 0.611604 0.00115991)
(-0.00593928 0.617838 0.00340813)
(-0.00361493 0.632413 0.00529737)
(-0.00124114 0.62798 0.00705813)
(0.00149641 0.618676 0.00827595)
(0.00422065 0.617167 0.00913068)
(0.00652353 0.607119 0.00952788)
(0.00839694 0.595819 0.00958735)
(0.00982976 0.585853 0.0091366)
(0.010169 0.559711 0.00851216)
(0.00990061 0.541636 0.0076835)
(0.0089622 0.515686 0.00667129)
(0.00735971 0.484032 0.00557199)
(0.00498208 0.426858 0.00459389)
(0.00198032 0.361831 0.00365859)
(-0.00167385 0.309252 0.00261953)
(-0.00481271 0.209431 0.00196412)
(-0.00717862 0.108436 0.00183082)
(-0.00925711 0.0508062 0.00211744)
(-0.0106378 0.0270929 0.00272671)
(-0.0121661 0.0211465 0.00318281)
(-0.0137672 0.0182912 0.00399928)
(-0.0155376 0.0164106 0.00644983)
(-0.0181506 0.0147435 0.0103751)
(-0.0212369 0.0111631 0.0123071)
(0.0137317 0.0203442 0.00535358)
(0.0268815 0.0248274 0.00802487)
(0.0118751 0.0102007 0.0029554)
(0.0195762 0.0171709 0.00554547)
(0.0121778 0.00438377 0.00263971)
(0.0148015 0.00871478 0.00233933)
(0.00888897 0.00147937 0.000713813)
(0.00758555 0.00474323 0.000567709)
(0.00318277 0.00107549 0.00113837)
(0.0022105 0.00259112 0.00204571)
(0.000779371 0.000286122 0.00237534)
(0.00045654 0.00114197 0.00312572)
(-0.000226308 0.000771101 0.00349048)
(-5.71134e-05 0.00161142 0.00400608)
(-0.000319962 0.00141579 0.0041956)
(-0.000344158 0.00172105 0.00440015)
(-0.000674198 0.00155369 0.00441242)
(-0.000833797 0.0016716 0.00444001)
(-0.00108179 0.00156551 0.00439838)
(-0.00122746 0.00159645 0.00437626)
(-0.00137674 0.00153908 0.00433382)
(-0.00147493 0.00154232 0.00430399)
(-0.00155447 0.00152209 0.00427069)
(-0.00160799 0.00152386 0.0042446)
(-0.001647 0.00152335 0.00421979)
(-0.00167156 0.00152964 0.00419954)
(-0.00168359 0.00153659 0.00417983)
(-0.00168583 0.00154516 0.00416274)
(-0.00168353 0.00155124 0.00414906)
(-0.001678 0.00155699 0.00413797)
(-0.00167141 0.00156304 0.00412868)
(-0.00166243 0.0015666 0.00412141)
(-0.00165391 0.00157847 0.00411507)
(-0.00164241 0.00155803 0.00411)
(-0.00162044 0.00161843 0.00411158)
(-0.00162411 0.00149699 0.00410582)
(-0.00156503 0.00173209 0.00413287)
(-0.00160113 0.00134789 0.0041203)
(-0.00146804 0.00197763 0.00420073)
(-0.00155698 0.00108408 0.00417288)
(-0.00133863 0.00241582 0.00430119)
(-0.00148181 0.000730694 0.00424227)
(-0.00124921 0.00312174 0.00436111)
(-0.00134808 0.000338512 0.00429586)
(-0.00128237 0.00416915 0.00426319)
(-0.0011804 -0.000169659 0.00423445)
(-0.00117805 0.00565465 0.00398004)
(-0.000784987 -0.00146339 0.00405835)
(0.0001772 0.00739441 0.00410709)
(0.000720133 -0.00448802 0.0041775)
(0.00104023 0.00885255 0.0039784)
(0.00121177 -0.00913499 0.00551706)
(0.00114468 0.0116137 0.00615025)
(-0.0034934 -0.0172101 0.00550539)
(-0.0086221 0.0107165 0.0262656)
(-0.0294816 -0.0425037 0.047136)
(0.00359878 -0.0182109 0.0851133)
(-0.0276723 -0.112076 0.0839466)
(0.0326605 -0.0690794 -0.169474)
(0.0471694 0.0771147 0.0149177)
(0.0896851 0.583771 -0.0108729)
(0.0322627 0.653286 -0.00582514)
(0.0292696 0.617907 0.00348569)
(0.0140374 0.688492 0.00595216)
(0.00793053 0.652719 0.00679243)
(0.000892429 0.667795 0.00500526)
(-0.0024309 0.660987 0.00482298)
(-0.00554731 0.647086 0.00468624)
(-0.00733429 0.664468 0.00541555)
(-0.00833679 0.648481 0.00654635)
(-0.00802441 0.669316 0.00787109)
(-0.00717332 0.674687 0.00896139)
(-0.00532094 0.678051 0.010237)
(-0.00331354 0.659161 0.011287)
(-0.00072991 0.644632 0.0126537)
(0.00217762 0.662773 0.0133939)
(0.00476979 0.667825 0.0139127)
(0.0075063 0.640624 0.0142643)
(0.010875 0.662574 0.0145456)
(0.0136404 0.650247 0.0143393)
(0.0150801 0.627531 0.0141539)
(0.0163582 0.636011 0.013661)
(0.0169664 0.627685 0.0127657)
(0.0161239 0.612462 0.0114371)
(0.0142307 0.592798 0.0100346)
(0.0118179 0.557815 0.00899141)
(0.00837203 0.550625 0.00759963)
(0.00414491 0.545327 0.00619747)
(-0.000353506 0.502132 0.00484872)
(-0.00439387 0.467586 0.00395059)
(-0.00865866 0.415953 0.00346308)
(-0.0128301 0.36435 0.00320151)
(-0.0172398 0.305964 0.00362281)
(-0.0217631 0.236133 0.00488668)
(-0.0281382 0.219386 0.00667048)
(-0.0346942 0.292923 0.0070379)
(0.00883822 0.0157398 0.00428486)
(0.0251197 0.0283685 0.00849755)
(0.00749968 0.00906494 0.00383108)
(0.0165719 0.019675 0.00763141)
(0.00942661 0.0037961 0.00480403)
(0.0124969 0.00930125 0.0046487)
(0.00689792 0.000333536 0.0029138)
(0.00645348 0.00438874 0.00194463)
(0.00216058 0.000103052 0.00213539)
(0.00119992 0.00224995 0.00289472)
(-0.000520318 -0.000455161 0.00330003)
(-0.00102775 0.000672674 0.00391848)
(-0.00178318 -3.74143e-05 0.00440694)
(-0.00156348 0.000876374 0.00500956)
(-0.00183477 0.000598992 0.00538536)
(-0.00187347 0.00119157 0.00566958)
(-0.00221426 0.0011397 0.00576259)
(-0.00230294 0.00149043 0.00584194)
(-0.00248772 0.00150477 0.00583342)
(-0.00255156 0.00167067 0.00583679)
(-0.00263121 0.00169446 0.0058159)
(-0.00265943 0.00176889 0.00580865)
(-0.00267761 0.00179463 0.00579674)
(-0.00267286 0.00183197 0.00579557)
(-0.00265716 0.00185828 0.00579715)
(-0.00263052 0.00188392 0.00580445)
(-0.00259813 0.00190503 0.00581311)
(-0.00256203 0.00192062 0.00582371)
(-0.00252544 0.00193018 0.00583684)
(-0.00248801 0.00193711 0.00585215)
(-0.00245092 0.00194316 0.00586889)
(-0.00241105 0.00194544 0.00588753)
(-0.00237368 0.00195449 0.00590575)
(-0.00232933 0.00193718 0.00592646)
(-0.00228358 0.00198733 0.00594956)
(-0.00224894 0.0018801 0.00597014)
(-0.00217769 0.00209698 0.00600857)
(-0.00216483 0.00175049 0.00601886)
(-0.0020403 0.00234877 0.00609187)
(-0.00206751 0.00154471 0.00608061)
(-0.00189978 0.00281403 0.00618294)
(-0.00194888 0.00129123 0.0061407)
(-0.0018198 0.0035573 0.00620881)
(-0.00178021 0.000963681 0.00614862)
(-0.00191184 0.0046237 0.00601218)
(-0.00159774 0.000257448 0.005995)
(-0.00187291 0.00603927 0.00564239)
(-0.00125108 -0.00151965 0.00579585)
(-0.000703985 0.00793986 0.00610438)
(0.000163758 -0.00459823 0.00634629)
(0.000299606 0.0105289 0.00718498)
(0.00201373 -0.00877048 0.00841023)
(0.000904648 0.0131337 0.00968833)
(0.00374741 -0.0134219 0.00897733)
(-0.0075462 0.0170895 0.0279339)
(-0.0203887 -0.041111 0.0454629)
(-0.0161558 -0.0270029 0.0795121)
(0.0109476 -0.0938942 0.0778843)
(-0.00212383 -0.100639 -0.156022)
(-0.0110902 0.120577 0.0109146)
(-0.0216693 0.626366 -0.0188783)
(-0.00689579 0.720004 -0.00549252)
(-0.00278436 0.73784 0.00727462)
(0.000745638 0.763598 0.0106619)
(0.000886035 0.763445 0.0123225)
(-0.000847481 0.760491 0.0117537)
(-0.00246007 0.765209 0.0118403)
(-0.00357292 0.775855 0.0118462)
(-0.00475003 0.758905 0.0122507)
(-0.0051761 0.761078 0.0129049)
(-0.0048162 0.754854 0.0137072)
(-0.00402546 0.753728 0.01443)
(-0.00241681 0.747947 0.0152732)
(-4.67722e-05 0.741992 0.0159769)
(0.00310407 0.734126 0.0168676)
(0.00609414 0.725882 0.0174414)
(0.00929352 0.717137 0.0181482)
(0.0123605 0.71529 0.0186857)
(0.0153884 0.710373 0.0193317)
(0.0181685 0.703743 0.0199944)
(0.0205755 0.697341 0.0206968)
(0.022023 0.690732 0.0213474)
(0.0228816 0.68343 0.021901)
(0.0228721 0.676044 0.0223)
(0.0223413 0.666059 0.0223911)
(0.0210661 0.649437 0.0223332)
(0.0190442 0.638308 0.0220195)
(0.0161588 0.62558 0.0214033)
(0.0130014 0.607371 0.0203518)
(0.00837605 0.595128 0.0184587)
(0.00312663 0.560845 0.0155251)
(-0.00319121 0.533406 0.0113008)
(-0.00995699 0.505133 0.00573466)
(-0.0173841 0.466562 -0.00301132)
(-0.0273228 0.458158 -0.0194869)
(-0.0348395 0.449497 -0.0394283)
(-0.00277495 0.0124669 -0.00676978)
(0.0224667 0.0315852 0.00517466)
(0.00107542 0.00876729 0.00104341)
(0.0118609 0.0228227 0.00571546)
(0.00461866 0.0042838 0.00346097)
(0.00811746 0.0110248 0.00337162)
(0.00324971 0.000659725 0.0019309)
(0.00366038 0.0051525 0.000510047)
(-0.000166489 0.000176616 -7.73405e-05)
(-0.0011634 0.00238381 -2.12441e-05)
(-0.00329486 -0.000634772 0.000195723)
(-0.00413896 0.00067742 0.000584355)
(-0.00544113 -0.000512248 0.00113712)
(-0.00534166 0.000470695 0.00170304)
(-0.00595281 0.000181531 0.00217333)
(-0.00603206 0.000972218 0.00247954)
(-0.00646164 0.000974935 0.0026732)
(-0.00658482 0.00144772 0.00281362)
(-0.00682082 0.00151244 0.0028862)
(-0.00692451 0.00174548 0.00294998)
(-0.00704251 0.00180762 0.00298301)
(-0.00710361 0.0019115 0.00301998)
(-0.00714528 0.00195715 0.00304839)
(-0.00716093 0.00200761 0.00308344)
(-0.00715955 0.00204182 0.00311958)
(-0.00713939 0.00207349 0.00316)
(-0.00709922 0.00209782 0.00320217)
(-0.00704463 0.00211636 0.00324659)
(-0.00698842 0.0021296 0.00329165)
(-0.00693209 0.00213961 0.00333598)
(-0.00687574 0.00214782 0.00337912)
(-0.00681585 0.00215211 0.0034214)
(-0.00675945 0.00216211 0.00346082)
(-0.0066927 0.0021509 0.00350008)
(-0.00663415 0.00219634 0.00353632)
(-0.00656845 0.00211013 0.00357435)
(-0.00651728 0.00230533 0.00361177)
(-0.00644201 0.00200536 0.00365036)
(-0.00641584 0.00255516 0.00368785)
(-0.00630191 0.00184137 0.00372592)
(-0.00635788 0.00302903 0.00375425)
(-0.00613507 0.00164808 0.00379124)
(-0.00637931 0.00381664 0.00375571)
(-0.00592473 0.00138179 0.00377841)
(-0.00636241 0.00495959 0.00356367)
(-0.00565729 0.000624359 0.00356136)
(-0.00596443 0.00638892 0.00323127)
(-0.00525913 -0.00152566 0.00332827)
(-0.00475229 0.00816358 0.00388337)
(-0.00439337 -0.00543647 0.00412571)
(-0.00491131 0.0104917 0.0052214)
(-0.00270327 -0.00870298 0.00644794)
(-0.0074044 0.0142853 0.00631017)
(-0.00458087 -0.0120924 0.00692816)
(-0.0145845 0.0321722 0.0199757)
(-0.00993537 -0.0466541 0.0341041)
(-0.0314874 -0.0151309 0.0610737)
(0.0500463 -0.122046 0.0651783)
(-0.0400666 -0.037454 -0.172705)
(-0.0634556 0.0532055 0.00242481)
(-0.13743 0.536698 -0.0292105)
(-0.0440492 0.620908 -0.00748749)
(-0.0340443 0.612164 0.00297376)
(-0.0144366 0.639931 0.00709917)
(-0.00965196 0.637801 0.00805309)
(-0.00663849 0.620231 0.00798967)
(-0.00647826 0.637517 0.0081306)
(-0.00652453 0.634691 0.0083685)
(-0.00710144 0.632451 0.00902831)
(-0.00701668 0.621377 0.00944774)
(-0.00687501 0.603384 0.0102573)