/*--------------------------------*- C++ -*----------------------------------*\
| =========                 |                                                 |
| \\      /  F ield         | OpenFOAM: The Open Source CFD Toolbox           |
|  \\    /   O peration     | Version:  2.3.0                                 |
|   \\  /    A nd           | Web:      www.OpenFOAM.org                      |
|    \\/     M anipulation  |                                                 |
\*---------------------------------------------------------------------------*/
FoamFile
{
    version     2.0;
    format      ascii;
    class       volVectorField;
    location    "22";
    object      U.air;
}
// * * * * * * * * * * * * * * * * * * * * * * * * * * * * * * * * * * * * * //

dimensions      [0 1 -1 0 0 0 0];

internalField   nonuniform List<vector> 
6144
(
(0.00855571 0.0164389 -0.00215197)
(0.00861551 0.00190038 -0.0027766)
(0.00586415 4.9249e-05 -0.00325972)
(0.00560597 -0.00232413 -0.00330853)
(0.00358146 -0.00310345 -0.00254353)
(0.00323803 -0.0024985 -0.0018114)
(0.00216609 -0.002666 -0.000733613)
(0.0018989 -0.00116694 -0.000324326)
(0.00145379 9.24167e-05 -6.25552e-05)
(0.0011412 0.00212873 0.000685464)
(0.0011511 0.00318793 0.000976066)
(0.00138357 0.00362407 0.00148732)
(0.00159028 0.00312175 0.00159014)
(0.00175525 0.00240691 0.00168063)
(0.00183946 0.00155985 0.00127403)
(0.00194584 0.0010102 0.00104712)
(0.00200822 0.000508487 0.000708717)
(0.00207653 0.000267956 0.000511519)
(0.00212261 3.82411e-05 0.000320221)
(0.00214377 -5.44881e-05 0.000230113)
(0.0021537 -0.000137228 0.000174597)
(0.00215203 -0.000156738 0.000157483)
(0.00214346 -0.000169028 0.000159976)
(0.00213122 -0.000165999 0.000179188)
(0.00211477 -0.000159019 0.00020908)
(0.00209591 -0.000150009 0.000244621)
(0.00207624 -0.000138867 0.000283071)
(0.00205657 -0.000130821 0.000326147)
(0.00203662 -0.000113735 0.000371615)
(0.00201398 -0.000116136 0.000415637)
(0.00199568 -7.015e-05 0.000467702)
(0.00196755 -0.000116174 0.000501767)
(0.00195837 2.0154e-05 0.000570281)
(0.00191487 -0.000139387 0.00057403)
(0.00193247 0.000201599 0.000679673)
(0.00186194 -0.000218129 0.000644468)
(0.00189655 0.000496381 0.000805146)
(0.00180491 -0.000431006 0.000732903)
(0.00184219 0.000932308 0.000990059)
(0.00173979 -0.000863726 0.00088914)
(0.00176208 0.00140437 0.00125905)
(0.00172853 -0.00172885 0.00115865)
(0.00170957 0.00158131 0.00144637)
(0.00193764 -0.00339812 0.00124922)
(0.00165803 0.00181741 0.00110922)
(0.00219905 -0.00557368 0.000490628)
(0.00184964 0.00357441 -0.000405066)
(0.00210562 -0.00567939 -0.000402986)
(0.00247922 0.00682894 -0.00124717)
(0.00262374 -0.00356534 -0.000425221)
(0.00419599 0.0117233 -0.00173912)
(0.0038434 -0.00930381 -0.000867341)
(0.00188459 0.0157766 -0.00287575)
(0.0022081 -0.010538 -0.00402498)
(0.0114767 0.0484046 -0.00324979)
(0.00355771 -0.0470401 -0.0106864)
(0.00153803 0.0605257 -0.00865891)
(0.0211396 -0.0416459 -0.0268239)
(-0.031223 0.0861132 -0.091961)
(0.0412573 0.0756062 -0.091235)
(0.0863013 0.324664 0.00486899)
(0.0474831 0.337028 -0.0163648)
(0.0484461 -0.1605 -0.0111491)
(0.0419734 -0.209464 -0.0107256)
(0.036204 -0.209116 -0.00788301)
(0.0276402 -0.214202 -0.0055582)
(0.0209591 -0.217877 -0.00417798)
(0.016594 -0.217716 -0.00310288)
(0.0136225 -0.214521 -0.00233147)
(0.0107701 -0.209037 -0.00184806)
(0.0078806 -0.20131 -0.00151154)
(0.0050641 -0.191409 -0.001406)
(0.00262689 -0.179292 -0.0013808)
(0.000222581 -0.165696 -0.00142059)
(-0.0017492 -0.150387 -0.00161812)
(-0.0035539 -0.134373 -0.00187357)
(-0.00474681 -0.117909 -0.00221828)
(-0.00498707 -0.102785 -0.00271304)
(-0.00355663 -0.0889959 -0.00326044)
(-0.00136629 -0.0772059 -0.0039798)
(2.89596e-05 -0.0690426 -0.00465121)
(0.00279862 -0.0639389 -0.00543144)
(0.00723606 -0.0587592 -0.00674176)
(0.00840454 -0.0521844 -0.00791078)
(0.00674364 -0.0462236 -0.0080808)
(0.00718014 -0.0416702 -0.00605518)
(0.00968535 -0.041211 -0.00345939)
(0.01131 -0.0434253 -0.00200974)
(0.0120988 -0.047392 -0.000760431)
(0.00962268 -0.0499641 -0.00143119)
(0.00732833 -0.0486699 -0.00167846)
(0.00469933 -0.044211 -0.00321589)
(0.00228867 -0.0348263 -0.00281449)
(-0.00793036 -0.0215263 -0.00661274)
(-0.011951 0.00886003 0.00383679)
(-0.0127205 0.0073705 0.0223536)
(0.0166643 0.0188814 0.00250752)
(0.0173859 0.00882286 0.00222174)
(0.0124069 0.00585858 0.000224066)
(0.0113703 0.00343551 0.00172173)
(0.00742236 0.000328509 0.00249914)
(0.00621245 -0.00100752 0.00329546)
(0.00293698 -0.00244703 0.00394559)
(0.00181384 -0.000546093 0.0034084)
(0.00104209 0.00128676 0.00293247)
(0.0010749 0.00354854 0.00319587)
(0.00156937 0.00440784 0.0033862)
(0.00234311 0.00477218 0.00395428)
(0.0028182 0.00414933 0.00411234)
(0.00320928 0.00354757 0.00426843)
(0.00329028 0.00260397 0.00415616)
(0.00346182 0.00194059 0.00410415)
(0.00350016 0.00126174 0.00398338)
(0.00361264 0.000903522 0.003898)
(0.00367524 0.000554925 0.00377519)
(0.00370934 0.000385427 0.00373202)
(0.00371318 0.000241189 0.0037098)
(0.00369948 0.000176072 0.00372618)
(0.00367038 0.000131969 0.00375933)
(0.0036323 0.000113744 0.00380961)
(0.00358708 0.000106866 0.00386815)
(0.00353803 0.000106095 0.0039325)
(0.00348803 0.000109084 0.00399876)
(0.00343792 0.000111871 0.00406352)
(0.00338854 0.000126254 0.00412771)
(0.00333382 0.000124913 0.00418732)
(0.00329337 0.000168318 0.00425523)
(0.00322042 0.000125962 0.00430659)
(0.0031973 0.000265951 0.00438462)
(0.00308705 0.000111737 0.00440824)
(0.00312435 0.00047062 0.0044865)
(0.00295031 7.35554e-06 0.00448944)
(0.00305041 0.000799585 0.00458918)
(0.00280281 -0.000266502 0.00456525)
(0.00297677 0.00128702 0.00471498)
(0.00265593 -0.000850232 0.00465296)
(0.00298554 0.00188517 0.00486782)
(0.00262256 -0.00193406 0.00472053)
(0.0031563 0.0023584 0.0049097)
(0.002989 -0.00370411 0.00466466)
(0.00337257 0.0033822 0.00466351)
(0.00338297 -0.0056906 0.00395803)
(0.00341125 0.00568776 0.0035956)
(0.00343803 -0.00559153 0.0032541)
(0.00291845 0.0082555 0.00202506)
(0.00429075 -0.00326982 0.00380581)
(0.00749807 0.0119954 0.00152592)
(0.00706509 -0.00423618 0.00220257)
(0.00546847 0.0223095 0.00236353)
(-0.00334874 -0.0162791 0.000359543)
(0.0174916 0.0434246 0.00501558)
(0.0284274 -0.0433578 0.00387751)
(-0.029602 0.0283063 0.00341127)
(-0.00690954 -0.0150435 -0.020091)
(0.011859 0.170844 -0.0235324)
(0.164522 0.0372039 -0.0355761)
(0.110417 0.33594 0.0316838)
(0.0384795 0.398555 -0.000315802)
(0.0330117 -0.111664 -0.0114431)
(0.0320644 -0.12091 -0.000555785)
(0.0239705 -0.13075 0.00376573)
(0.0060209 -0.151792 0.0045494)
(-0.00354653 -0.162256 0.00499909)
(-0.00734346 -0.166467 0.0051001)
(-0.0101226 -0.166946 0.00478564)
(-0.0128855 -0.16563 0.00402784)
(-0.0155076 -0.162368 0.00302115)
(-0.0175003 -0.156932 0.00206756)
(-0.0190767 -0.148891 0.00136092)
(-0.0203786 -0.139531 0.000668416)
(-0.0203881 -0.127681 -4.16552e-05)
(-0.0197305 -0.115224 -0.00037062)
(-0.0179617 -0.101554 -0.000614634)
(-0.0153918 -0.0875385 -0.000750101)
(-0.0119884 -0.0756655 -0.00211893)
(-0.00574375 -0.0652651 -0.00326952)
(0.000277576 -0.0563698 -0.00303856)
(0.000882996 -0.0458006 -0.00609449)
(-0.000228105 -0.0290772 -0.00683952)
(0.00425564 -0.0158461 -0.000800116)
(0.0109031 -0.012259 0.00404389)
(0.0162145 -0.0144571 0.00651655)
(0.0193734 -0.0206314 0.00834683)
(0.0190187 -0.0287826 0.00970769)
(0.0147556 -0.0370229 0.0103665)
(0.00922326 -0.0416882 0.00716043)
(0.00272614 -0.0420416 0.00489545)
(-0.00349946 -0.036114 0.000671182)
(-0.0113206 -0.0256059 5.56048e-05)
(-0.0174164 -0.0136907 -0.00514182)
(-0.023207 0.0127874 0.00590686)
(-0.0226115 0.00762254 0.0248038)
(0.020215 0.0217322 0.00364743)
(0.0215519 0.0144177 0.00365419)
(0.0157384 0.0105868 0.00179086)
(0.0145613 0.00870266 0.00286683)
(0.00934172 0.00397415 0.0035255)
(0.00708267 0.00211646 0.00402117)
(0.00160466 -0.000547076 0.00501534)
(-0.000302915 0.000416063 0.00471393)
(-0.00138639 0.00143331 0.00411801)
(-0.000667147 0.00335749 0.00405133)
(0.000206375 0.00390329 0.00404923)
(0.00138393 0.00435579 0.00446641)
(0.00191327 0.00405842 0.00464301)
(0.00245342 0.00392802 0.00481116)
(0.00262235 0.00324268 0.00473336)
(0.00288695 0.00270988 0.00471141)
(0.00286188 0.00202469 0.00463943)
(0.00294405 0.00160723 0.00464484)
(0.0028863 0.00117333 0.00463968)
(0.00286139 0.00094618 0.00467638)
(0.00278676 0.000741315 0.00471083)
(0.00272088 0.000635775 0.00476245)
(0.00264356 0.000556326 0.00481204)
(0.00257081 0.000515853 0.00486487)
(0.00249834 0.000496674 0.00491782)
(0.00242802 0.000492046 0.00497158)
(0.00235926 0.000492879 0.00502588)
(0.00229035 0.00049414 0.00507867)
(0.00222272 0.000502227 0.00512869)
(0.00215434 0.000504552 0.00517652)
(0.00209977 0.000531974 0.00522421)
(0.00200763 0.000506165 0.00526158)
(0.00197409 0.000610681 0.00531352)
(0.00183776 0.000473618 0.00534151)
(0.00186532 0.000761185 0.00541474)
(0.00165072 0.00033725 0.00542694)
(0.00176948 0.00101706 0.00551873)
(0.0014426 1.39297e-05 0.00551007)
(0.00170977 0.00140073 0.00562908)
(0.00123477 -0.000582272 0.00558388)
(0.00181129 0.00193587 0.00572534)
(0.00109855 -0.00139688 0.00561032)
(0.00213478 0.00279194 0.00570626)
(0.00133442 -0.00214133 0.00550539)
(0.00255661 0.00458663 0.00554663)
(0.00170868 -0.00289389 0.00540656)
(0.00244476 0.00719573 0.00550349)
(0.00234516 -0.00425423 0.0058327)
(0.0013275 0.00954927 0.00516783)
(0.00396126 -0.00546084 0.00588726)
(0.00421157 0.0132376 0.00266368)
(0.00521709 0.000896038 0.00357693)
(0.00640875 0.0326596 0.00392346)
(-0.00135274 -0.0204278 0.00747803)
(0.0220259 0.0165289 0.00356146)
(0.0408524 -0.0550238 0.00536326)
(-0.0604853 0.0507418 0.0169068)
(-0.0535381 -0.0978945 -0.0167955)
(-0.0550063 0.194044 -0.0513116)
(0.168491 -0.000298056 -0.00728795)
(0.169172 0.33897 0.0352108)
(0.0964328 0.431696 -0.00124104)
(0.101664 -0.0960545 -0.00281178)
(0.0761808 -0.0743768 0.0115791)
(0.0489759 -0.0950444 0.0137584)
(0.0272797 -0.112032 0.0160535)
(0.0157361 -0.117823 0.0168079)
(0.00813207 -0.123333 0.0150832)
(0.0013921 -0.127168 0.0122304)
(-0.00467005 -0.127855 0.00869997)
(-0.00967542 -0.125501 0.00549611)
(-0.0138351 -0.120066 0.00274295)
(-0.0178865 -0.112523 0.000703939)
(-0.0217133 -0.10384 -0.00029123)
(-0.024769 -0.0907042 -0.00175916)
(-0.0284982 -0.0783889 -0.00312024)
(-0.0280633 -0.0681376 -0.00196247)
(-0.022372 -0.0572768 -0.00273616)
(-0.0171649 -0.0458814 -0.00860426)
(-0.0143091 -0.0208305 -0.0106943)
(-0.0107322 0.00114157 -0.005523)
(-0.00449151 0.0115171 -0.000100941)
(0.00369691 0.0139121 0.00500644)
(0.0117101 0.0100297 0.00976209)
(0.0168501 0.00396261 0.0140429)
(0.0194865 -0.00348078 0.0178035)
(0.0200567 -0.0121198 0.0212872)
(0.0166302 -0.0228203 0.0223879)
(0.0108601 -0.0331181 0.0197349)
(0.00162608 -0.0372505 0.0136275)
(-0.00632965 -0.0370651 0.00755331)
(-0.0130618 -0.0291475 0.00125361)
(-0.0218772 -0.0180093 -0.000409064)
(-0.0344305 -0.00390485 -0.00400701)
(-0.0388331 0.0167486 0.00894588)
(-0.0383491 0.00792735 0.0258266)
(0.022634 0.0249929 0.0033733)
(0.0251346 0.0188888 0.00307401)
(0.019107 0.013988 0.000774672)
(0.0192277 0.0127255 0.00101805)
(0.0128146 0.00670594 0.00102214)
(0.00979093 0.00461941 0.00190667)
(0.00151584 0.000369317 0.00406568)
(-0.00175161 0.000288431 0.00392309)
(-0.00343191 2.82277e-05 0.00397998)
(-0.00237421 0.00214796 0.00399211)
(-0.00128089 0.00244233 0.00410045)
(-0.000188847 0.00341871 0.00466454)
(0.000434224 0.00363383 0.00480356)
(0.0010136 0.00389368 0.00491804)
(0.00135882 0.00344919 0.00477427)
(0.00167411 0.00307781 0.0047314)
(0.00164933 0.00242376 0.00462987)
(0.00174704 0.00198803 0.00462086)
(0.00165072 0.0014799 0.00459884)
(0.00161125 0.00118639 0.00463428)
(0.00151158 0.000911907 0.00467282)
(0.00143359 0.000765363 0.0047373)
(0.0013402 0.000662169 0.0047941)
(0.00124429 0.00061462 0.00484704)
(0.0011524 0.000595377 0.00489875)
(0.00106999 0.00059952 0.00495282)
(0.000994439 0.000611249 0.00500793)
(0.00092062 0.00062139 0.00506123)
(0.000846719 0.00063055 0.00511169)
(0.000773478 0.000633743 0.00515807)
(0.000707078 0.000654274 0.00519969)
(0.000617231 0.000637532 0.00523052)
(0.000574669 0.000718733 0.00527773)
(0.000446926 0.000596796 0.00530246)
(0.000472189 0.000841815 0.00537108)
(0.000258652 0.000447993 0.00538194)
(0.000402218 0.00107067 0.00546757)
(6.04799e-05 0.000126746 0.00546602)
(0.000388808 0.00144775 0.00556353)
(-0.000124757 -0.00037179 0.0055358)
(0.000476737 0.00207155 0.00560115)
(-0.000226013 -0.000808242 0.00553772)
(0.000574706 0.00319278 0.00543633)
(-3.44563e-05 -0.000719274 0.00541338)
(0.000832742 0.00529295 0.00516168)
(0.000567749 -0.000439071 0.00545073)
(0.00138024 0.00809349 0.00519818)
(0.00151564 -0.00122789 0.00564007)
(0.00133997 0.0112158 0.00513199)
(0.00246568 -0.00302873 0.00478565)
(3.54503e-05 0.0185156 0.0019532)
(0.0013864 0.000244884 0.00452546)
(0.00814404 0.0346588 0.00313515)
(0.0132062 -0.0211139 0.00485093)
(0.0283671 0.026054 0.000849398)
(0.0162775 -0.0304147 0.00776344)
(-0.0282285 0.105391 0.0167328)
(-0.0913822 -0.152976 -0.0114919)
(-0.0341534 0.252726 -0.11478)
(0.196427 -0.0385559 0.00899536)
(0.19359 0.363531 0.0360889)
(0.124241 0.439008 -0.00778742)
(0.135208 -0.0652303 0.00191105)
(0.0561326 -0.00113957 0.00725579)
(0.0191822 -0.0522014 0.010844)
(0.00166941 -0.0562725 0.0171471)
(-0.00953723 -0.0643779 0.0190051)
(-0.0155445 -0.0719677 0.0162113)
(-0.0182797 -0.0758088 0.0120239)
(-0.0195422 -0.0754873 0.00805882)
(-0.0208473 -0.0720455 0.00402864)
(-0.0222743 -0.0652688 8.4722e-06)
(-0.0272558 -0.0589121 -0.00242938)
(-0.0325302 -0.0527925 -0.00246786)
(-0.0305743 -0.0454565 -0.00221892)
(-0.0291777 -0.0359181 -0.00576547)
(-0.0311579 -0.023234 -0.013121)
(-0.0305589 0.00554701 -0.0147193)
(-0.0250406 0.028983 -0.00937282)
(-0.0165283 0.0414811 0.00120178)
(-0.00687156 0.0431396 0.00857522)
(0.00052568 0.0401322 0.0136631)
(0.00584269 0.0348822 0.0175363)
(0.00915028 0.02828 0.0205166)
(0.010599 0.0206222 0.0231889)
(0.0102083 0.0111716 0.025923)
(0.00862635 0.00104382 0.0274107)
(0.00421796 -0.0107604 0.022853)
(-0.00381569 -0.0217793 0.0109429)
(-0.0119094 -0.0256615 -0.000251072)
(-0.0186054 -0.0217835 -0.00541646)
(-0.0260745 -0.00905558 -0.00608252)
(-0.0367843 0.0037431 -0.00365476)
(-0.0471988 0.0138051 -0.00290215)
(-0.0485188 0.0216458 0.0124023)
(-0.0478502 0.00851494 0.0270903)
(0.0249639 0.0272541 0.0032065)
(0.0282215 0.0226912 0.00305332)
(0.0221061 0.0162838 0.000422591)
(0.0239291 0.016216 6.09761e-05)
(0.0186381 0.00989357 -0.00216049)
(0.0150413 0.00897763 -0.00138928)
(0.0043105 0.00252326 0.000424684)
(8.44361e-05 0.00177021 0.00167778)
(-0.00437028 -0.000703129 0.00290956)
(-0.0041607 0.000828541 0.00351194)
(-0.00340382 0.000685876 0.00387859)
(-0.00264082 0.00227189 0.00466628)
(-0.00198339 0.00303997 0.0046997)
(-0.00127372 0.00364359 0.00476045)
(-0.000695583 0.00342337 0.00448216)
(-0.000344644 0.00314169 0.00442916)
(-0.000390163 0.0025535 0.00430646)
(-0.00037135 0.00215727 0.00430366)
(-0.000562483 0.00166278 0.00424719)
(-0.000682551 0.00135196 0.004252)
(-0.000867946 0.00104065 0.00424556)
(-0.00101496 0.000858165 0.00426739)
(-0.00115701 0.00072046 0.0042879)
(-0.00127746 0.00065247 0.00431877)
(-0.00138522 0.000626737 0.00435051)
(-0.00147411 0.000631048 0.0043853)
(-0.00154621 0.000645335 0.0044209)
(-0.00160958 0.000659158 0.00445588)
(-0.00167149 0.000669987 0.00448931)
(-0.00173352 0.00067393 0.00451879)
(-0.00179273 0.000688686 0.00454439)
(-0.00186269 0.00067017 0.00456206)
(-0.00189609 0.000731227 0.00459041)
(-0.00199979 0.000613213 0.00458627)
(-0.00196792 0.000832121 0.00463867)
(-0.00215925 0.00044381 0.00461475)
(-0.00200332 0.00104598 0.00470526)
(-0.00232948 0.000138737 0.00466222)
(-0.00200157 0.00145996 0.0047719)
(-0.00249575 -0.000215329 0.00470387)
(-0.0020042 0.00221638 0.00474527)
(-0.00259824 -0.000314681 0.00467083)
(-0.00215207 0.00353785 0.00444958)
(-0.00246372 0.000203176 0.00452296)
(-0.00218724 0.00575371 0.00400541)
(-0.00188845 0.000943127 0.00450046)
(-0.00157774 0.0087497 0.003853)
(-0.0008583 0.000239324 0.00418448)
(-0.000468763 0.0123294 0.00383127)
(-0.000138947 -0.00277792 0.00266202)
(-0.00286265 0.0196251 0.000253764)
(0.000638075 -0.00670759 0.00440833)
(0.0115459 0.0294064 0.0019137)
(0.0139171 -0.0246204 -0.000228158)
(0.0266489 0.0364031 0.0104705)
(0.0087445 -0.068029 0.00970553)
(0.0259028 0.0523812 0.0767872)
(-0.111726 -0.147007 0.0349957)
(-0.0110243 0.195228 -0.171761)
(0.163761 -0.0586529 0.0361407)
(0.192396 0.410839 0.040914)
(0.104572 0.574606 -0.0130461)
(0.0973807 0.485556 0.00629164)
(0.0471771 0.503431 0.00881203)
(0.0197804 0.299991 0.0220523)
(0.00915485 0.0104372 0.0147178)
(-0.00726887 -0.0325544 0.0135106)
(-0.0132641 -0.0427046 0.0109741)
(-0.0176136 -0.0487225 0.00635639)
(-0.0215477 -0.0475606 0.00106979)
(-0.0218195 -0.041657 -0.00310476)
(-0.0187828 -0.0297446 -0.00747759)
(-0.021031 -0.0174809 -0.0105563)
(-0.0278787 -0.00439158 -0.0129083)
(-0.036021 0.0192596 -0.0135895)
(-0.0406674 0.0461431 -0.0114179)
(-0.040165 0.0652476 -0.00546027)
(-0.0340042 0.0770834 0.00274681)
(-0.025845 0.0813977 0.0110677)
(-0.0188629 0.0809324 0.016719)
(-0.0128061 0.0786049 0.0194632)
(-0.00832244 0.0736891 0.0198005)
(-0.00472224 0.0672184 0.018484)
(-0.00226033 0.0576527 0.0168169)
(-0.000825122 0.0458768 0.0152926)
(-0.000666054 0.0317562 0.0136229)
(-0.00117702 0.0180618 0.00876678)
(-0.00153277 0.00714229 -0.000796071)
(-0.00182552 0.0050625 -0.00849933)
(-0.00609306 0.010313 -0.00937851)
(-0.0169168 0.0168855 -0.00805467)
(-0.029396 0.0239391 -0.00610625)
(-0.041656 0.0276594 -0.00405644)
(-0.0496552 0.0299143 2.93981e-05)
(-0.0491817 0.026285 0.0147405)
(-0.0526127 0.0122664 0.0236853)
(0.0259938 0.028308 0.00576483)
(0.0307736 0.0248912 0.00408602)
(0.0234782 0.0170694 0.00109455)
(0.0263186 0.017843 0.00124027)
(0.0216743 0.010658 -0.00259428)
(0.0211407 0.0107981 -0.00161656)
(0.0107504 0.00243296 -0.00387338)
(0.00431108 0.00259294 -0.00161814)
(-0.00251552 -0.000583337 0.00104827)
(-0.0040947 0.000386934 0.00255419)
(-0.0043287 -0.000949385 0.00326606)
(-0.0043724 0.000847315 0.00429612)
(-0.00332267 0.00197314 0.00439595)
(-0.00234944 0.00313892 0.00466567)
(-0.00144228 0.00309802 0.00449522)
(-0.00106262 0.00289157 0.00456469)
(-0.00111324 0.00232194 0.00445205)
(-0.00117702 0.0020363 0.00448045)
(-0.00141731 0.00163863 0.00437555)
(-0.00156873 0.00141826 0.0043264)
(-0.00177285 0.00117268 0.00423419)
(-0.00192946 0.00103666 0.00416155)
(-0.0020743 0.000928547 0.00408692)
(-0.00219279 0.000878957 0.00402726)
(-0.00229042 0.00085986 0.00397707)
(-0.00235801 0.000865951 0.00394202)
(-0.00240243 0.000883105 0.00391909)
(-0.00243686 0.000903857 0.00390517)
(-0.00246912 0.00092284 0.0038987)
(-0.00250025 0.000935827 0.00389581)
(-0.00253177 0.000952044 0.00389289)
(-0.00257129 0.000938723 0.00388472)
(-0.00258712 0.000991719 0.00388329)
(-0.00265768 0.000881969 0.00385103)
(-0.00259564 0.00109361 0.00389185)
(-0.00276636 0.000725526 0.00382257)
(-0.00257906 0.00133036 0.00393216)
(-0.00291505 0.000495716 0.00380371)
(-0.00257671 0.00181152 0.00396963)
(-0.00308627 0.000327125 0.00378358)
(-0.00270026 0.00267116 0.00388646)
(-0.00320007 0.000451707 0.00369418)
(-0.00318671 0.00402407 0.00345125)
(-0.00314382 0.000938388 0.00349046)
(-0.00362717 0.00597875 0.00286007)
(-0.00266589 0.00118897 0.0035035)
(-0.00273332 0.00857362 0.00305772)
(-0.00166506 -9.20054e-05 0.00361301)
(-0.00025846 0.0119256 0.00373773)
(-0.000789202 -0.00269565 0.00233438)
(0.000255147 0.0170126 0.00128662)
(0.00284244 -0.0125125 0.00406633)
(0.00893022 0.0220192 -8.58216e-05)
(0.00985913 -0.0149155 0.00214253)
(0.0410995 0.0289533 0.0326192)
(0.00237278 -0.0624685 0.0545833)
(0.00877911 0.00566507 0.097062)
(-0.102804 -0.136345 0.0628636)
(0.0381775 0.115461 -0.160232)
(0.114463 -0.036348 0.0485049)
(0.178077 0.448658 0.0426624)
(0.100705 0.580102 -0.0131171)
(0.108198 0.511095 0.00194505)
(0.0674869 0.569131 0.0019857)
(0.0288546 0.527248 0.00565679)
(0.00386103 0.519916 0.0021917)
(-0.00201319 0.493776 -0.00236975)
(-0.00696391 0.478209 -0.00491224)
(-0.012248 0.498853 -0.00847349)
(-0.0168209 0.499024 -0.0108352)
(-0.0243235 0.506299 -0.0108997)
(-0.0308802 0.530563 -0.00763367)
(-0.0384583 0.548571 -0.00309094)
(-0.043154 0.579232 0.000816534)
(-0.0445673 0.595935 0.00615057)
(-0.0428544 0.607677 0.00912268)
(-0.0402351 0.601145 0.0123954)
(-0.0346828 0.604323 0.0146627)
(-0.0305424 0.602658 0.0135788)
(-0.0260261 0.580863 0.0105682)
(-0.0212716 0.440773 0.00753357)
(-0.0137409 0.602725 0.00178623)
(-0.00802423 0.590354 -0.00143988)
(-0.00230667 0.57027 -0.00448661)
(0.000600259 0.553781 -0.00630766)
(0.000873659 0.552273 -0.00746287)
(-0.00036558 0.511284 -0.00960921)
(-0.00452338 0.35101 -0.0109103)
(-0.00765611 0.0653687 -0.00964849)
(-0.0145083 0.041329 -0.00770328)
(-0.0213465 0.0435303 -0.00696859)
(-0.02978 0.0443429 -0.00601464)
(-0.0388727 0.0422179 -0.00289855)
(-0.0436964 0.0369638 0.00292371)
(-0.0453848 0.0258674 0.0148223)
(-0.0506828 0.0133336 0.0214089)
(0.0246459 0.0293513 0.00685494)
(0.0321665 0.0288543 0.00739739)
(0.0229139 0.0172784 0.0037543)
(0.0252721 0.0195537 0.00633386)
(0.0220835 0.00911545 0.00165282)
(0.0232108 0.0107077 0.00285115)
(0.016263 0.00143666 -0.00285846)
(0.00792397 0.00147554 -0.00356239)
(-0.000304524 -0.0013025 -0.00129796)
(-0.00320784 0.000867502 0.00124017)
(-0.0047611 -0.00167225 0.00234786)
(-0.0063323 3.17669e-05 0.00353071)
(-0.0062379 0.000931003 0.00390368)
(-0.00506705 0.00240145 0.00480859)
(-0.00381167 0.00238704 0.00510646)
(-0.00346245 0.00232643 0.00544559)
(-0.00369628 0.00192385 0.00534056)
(-0.0040074 0.0018391 0.00533042)
(-0.00438907 0.00162315 0.00515981)
(-0.00464119 0.00156137 0.00505021)
(-0.00489299 0.0014382 0.00489211)
(-0.00505141 0.0013927 0.00475418)
(-0.00517636 0.00134258 0.00462125)
(-0.00525998 0.00133178 0.00452081)
(-0.00531127 0.00133596 0.0044472)
(-0.00533323 0.00135328 0.00440086)
(-0.0053325 0.00137969 0.0043747)
(-0.0053204 0.00140437 0.00436675)
(-0.00531037 0.00142572 0.00436788)
(-0.00530115 0.00144527 0.00436913)
(-0.00529781 0.00146579 0.00436754)
(-0.00529617 0.00146919 0.00436448)
(-0.00528732 0.00151757 0.0043647)
(-0.00529715 0.0014371 0.00434967)
(-0.00523717 0.00162058 0.00438109)
(-0.0053126 0.00130395 0.00433074)
(-0.00518918 0.00185769 0.00442846)
(-0.00534567 0.00114146 0.00431456)
(-0.00520355 0.00234499 0.00448432)
(-0.00537893 0.00109038 0.00432655)
(-0.00542791 0.00319471 0.00441851)
(-0.0053675 0.00123009 0.00428964)
(-0.00600187 0.00443203 0.00402088)
(-0.00524452 0.00124953 0.00409971)
(-0.00658049 0.00596397 0.00338333)
(-0.00495251 0.000733804 0.0039872)
(-0.00611767 0.00790981 0.00346023)
(-0.00458614 -4.5181e-05 0.00452756)
(-0.00396593 0.0107867 0.00450954)
(-0.00358974 -0.000837045 0.0042844)
(-0.000136112 0.0152771 0.00318339)
(6.67524e-05 -0.00664206 0.00269901)
(0.00675159 0.027613 0.00593688)
(0.00839117 -0.0221434 0.00655537)
(0.041383 0.0180902 0.0353786)
(0.0101917 -0.0560422 0.057269)
(-0.0118505 -0.0337613 0.0888649)
(-0.0787204 -0.123909 0.0657003)
(0.0333079 0.0235535 -0.142107)
(0.0631396 0.0398921 0.0525703)
(0.105552 0.539565 0.0425636)
(0.0716004 0.6262 -0.00704171)
(0.0840378 0.529863 0.0015069)
(0.0722865 0.654919 0.00290894)
(0.0497471 0.659833 0.00293809)
(0.0363081 0.648171 0.00168566)
(0.0168557 0.602098 0.00031137)
(0.00555105 0.591079 -0.000381705)
(-0.0131511 0.635899 -0.000780336)
(-0.0239418 0.645309 -0.000470613)
(-0.0330493 0.583104 0.000196769)
(-0.0424876 0.639876 0.00260439)
(-0.0467869 0.66787 0.00439457)
(-0.0496082 0.632878 0.00582736)
(-0.050708 0.68054 0.00748198)
(-0.0493687 0.64554 0.00836574)
(-0.0457092 0.645679 0.008552)
(-0.0420038 0.554597 0.00799371)
(-0.0363726 0.631549 0.00615674)
(-0.0239062 0.624938 0.00292028)
(-0.0174599 0.628942 0.0016109)
(-0.0079166 0.627132 -0.000374212)
(0.00160259 0.628812 -0.00251753)
(0.0112521 0.618071 -0.00573523)
(0.017109 0.622392 -0.00833147)
(0.0198983 0.626216 -0.0103014)
(0.0216675 0.570535 -0.0119437)
(0.0185638 0.555506 -0.0121969)
(0.0113468 0.481071 -0.011526)
(0.00370702 0.402178 -0.0112151)
(-0.00824868 0.382924 -0.00962292)
(-0.0135087 0.0795606 -0.00567426)
(-0.0241347 0.0723599 -0.00204326)
(-0.0347219 0.449353 0.00754575)
(-0.0440337 0.453678 0.016933)
(-0.0471233 0.477339 0.0179619)
(0.0230949 0.0277681 0.00597354)
(0.0310894 0.032561 0.00950367)
(0.0200596 0.01765 0.00498754)
(0.0221502 0.0222163 0.00952329)
(0.0183213 0.00777969 0.00561144)
(0.0199053 0.0105771 0.00679633)
(0.0172128 0.000684454 0.00275421)
(0.0101114 0.000967221 -0.00198794)
(0.000487062 -0.00346209 -0.0015988)
(-0.00235148 -0.000231773 0.000775712)
(-0.00371653 -0.00191258 0.00201545)
(-0.00636757 -0.000466426 0.00324362)
(-0.0062733 -0.000822361 0.00424293)
(-0.00522419 0.000249697 0.00566727)
(-0.00382258 0.000110967 0.00673119)
(-0.00370891 0.000794711 0.00753358)
(-0.00394607 0.000866835 0.00779289)
(-0.0042098 0.00132441 0.00792101)
(-0.00447003 0.00142154 0.00782219)
(-0.00459934 0.00167351 0.00772134)
(-0.00474866 0.00177632 0.00754495)
(-0.00483473 0.00190815 0.00736631)
(-0.00491836 0.00195022 0.00718946)
(-0.00496873 0.00198178 0.00704767)
(-0.0049902 0.00199544 0.00693771)
(-0.00497672 0.00200243 0.0068591)
(-0.00493997 0.00200596 0.00680016)
(-0.00488601 0.00201218 0.00675986)
(-0.0048341 0.00201816 0.00673105)
(-0.00478813 0.00202296 0.00671)
(-0.00475176 0.00202956 0.00669402)
(-0.00471662 0.00202613 0.00667928)
(-0.00468778 0.00206157 0.00666475)
(-0.00465552 0.00200708 0.00663943)
(-0.00460264 0.00218519 0.00663225)
(-0.00463038 0.00191576 0.00655917)
(-0.00457413 0.00246056 0.0065748)
(-0.00467297 0.00179365 0.0064193)
(-0.00469744 0.00295594 0.00647313)
(-0.00476972 0.00170058 0.00625048)
(-0.00505767 0.00374047 0.00633505)
(-0.0047629 0.00155011 0.00603733)
(-0.00576117 0.0047404 0.00605711)
(-0.00456122 0.000738841 0.00578152)
(-0.00658694 0.00575826 0.00574754)
(-0.00427317 -0.000876538 0.00588363)
(-0.00663515 0.00694287 0.00632659)
(-0.00412342 -0.00181173 0.00733594)
(-0.00488708 0.00963832 0.00883575)
(-0.00357133 -0.00094764 0.00915611)
(-0.0036475 0.0145255 0.00955116)
(-0.00278358 -0.0018017 0.00854794)
(0.00635965 0.0271319 0.0161921)
(0.0115387 -0.0130362 0.0313706)
(0.0214419 0.0307705 0.0646627)
(0.00937041 -0.0206673 0.0721039)
(-0.0202406 0.0127241 0.0996434)
(-0.0376998 -0.0926404 0.0471916)
(-0.0065793 -0.00295907 -0.134469)
(0.00976777 0.051957 0.0565751)
(0.0144436 0.564265 0.0557607)
(0.0352696 0.683405 -0.00294362)
(0.0469525 0.665149 0.00992117)
(0.0582605 0.700698 0.00670264)
(0.0504772 0.719892 0.00984262)
(0.0426761 0.732261 0.00715658)
(0.0263436 0.727697 0.00603736)
(0.0155313 0.728213 0.00514989)
(-0.0014952 0.730748 0.00480988)
(-0.0128716 0.729814 0.00402472)
(-0.0234152 0.726868 0.00403676)
(-0.0326811 0.728127 0.00427672)
(-0.0365406 0.724557 0.00472019)
(-0.0391014 0.710907 0.0057184)
(-0.0389926 0.700649 0.00753198)
(-0.0364822 0.693466 0.00829427)
(-0.0321797 0.690894 0.00937529)
(-0.0271549 0.705114 0.0100144)
(-0.0190791 0.663217 0.0106646)
(-0.00900393 0.651931 0.0112365)
(-0.00122205 0.648229 0.0119017)
(0.00694593 0.630855 0.0121109)
(0.0133663 0.625177 0.0109563)
(0.0189979 0.620153 0.00856837)
(0.0235367 0.610237 0.00540382)
(0.0261273 0.580188 0.00216075)
(0.0271401 0.560654 0.000608448)
(0.0248426 0.575534 0.000128809)
(0.0187983 0.634591 0.00214008)
(0.0114129 0.64906 0.0028168)
(-0.00208377 0.6111 0.000929578)
(-0.0105623 0.599763 -0.00110051)
(-0.020804 0.599535 -0.00305583)
(-0.0266289 0.558451 -0.00681571)
(-0.0379348 0.54444 -0.0201739)
(-0.0433339 0.496007 -0.0358861)
(0.0107491 0.0241301 -0.0115749)
(0.0276893 0.0343621 0.00649782)
(0.0138345 0.0191451 0.00474303)
(0.0168314 0.0257498 0.0086803)
(0.0135913 0.0110939 0.00542795)
(0.0149733 0.0123312 0.00699862)
(0.0136985 0.00124846 0.00537861)
(0.0079272 0.000694904 -0.000202985)
(-0.000225641 -0.00371527 -0.00335774)
(-0.00408667 -0.00117989 -0.00297811)
(-0.00483533 -0.00248759 -0.00189635)
(-0.00639995 -0.00121921 -0.000756717)
(-0.00758069 -0.00229728 0.000761871)
(-0.00754934 -0.0012929 0.00212902)
(-0.00769333 -0.0011836 0.00343173)
(-0.0079691 3.0393e-05 0.00421276)
(-0.00851799 0.000353434 0.00474133)
(-0.00882081 0.00106754 0.00501102)
(-0.00916677 0.00129252 0.00512138)
(-0.00937229 0.00167443 0.00516732)
(-0.0095438 0.00184486 0.00513805)
(-0.00953014 0.00203417 0.00510261)
(-0.00947865 0.00214483 0.00505213)
(-0.00940761 0.00222383 0.00501423)
(-0.00932499 0.00226899 0.0049871)
(-0.00922636 0.00229884 0.00497234)
(-0.00911438 0.00231764 0.00496317)
(-0.00899091 0.00233166 0.0049611)
(-0.00886519 0.00234372 0.00496344)
(-0.00873887 0.00235418 0.00496642)
(-0.00861847 0.00236437 0.00496588)
(-0.00849942 0.00236707 0.00496295)
(-0.00840763 0.00239454 0.00495436)
(-0.0082977 0.00236033 0.00493792)
(-0.00821715 0.00251803 0.00492056)
(-0.00810065 0.00230699 0.00487631)
(-0.00811345 0.00281002 0.00484082)
(-0.00790329 0.00221076 0.00475081)
(-0.00815061 0.00330866 0.00471768)
(-0.00770463 0.0020459 0.00457293)
(-0.00843206 0.00410275 0.00457883)
(-0.00745609 0.00159292 0.00432755)
(-0.00880145 0.00503106 0.0044449)
(-0.0070932 0.000165841 0.00406733)
(-0.00942791 0.00563402 0.00435087)
(-0.00690012 -0.002371 0.0042333)
(-0.010327 0.00639411 0.00501569)
(-0.00742818 -0.00425448 0.00596294)
(-0.0106078 0.00885302 0.00817928)
(-0.00764004 -0.00408244 0.00807914)
(-0.0111233 0.0145771 0.00924916)
(-0.0104343 -0.0112646 0.00695858)
(-0.0103505 0.0247617 0.01143)
(-0.0201035 -0.0244468 0.0083771)
(-0.0122769 0.0333936 0.0378845)
(0.000249545 -0.0451525 0.060378)
(-0.0108365 0.00438406 0.106122)
(0.0797249 -0.141483 0.0734606)
(-0.0364046 0.0701287 -0.152174)
(-0.0505269 0.000604668 0.0345057)
(-0.0890338 0.533982 0.0222458)
(-0.0112639 0.621956 -0.0151531)
(-0.00722217 0.621644 0.00460884)
(0.0251248 0.680593 0.00161828)
(0.0312271 0.557421 0.00155559)
(0.0351811 0.296111 0.00135927)
(0.0268389 0.618881 0.00209649)
(0.0142234 0.654061 0.00224403)
(0.00280299 0.695091 0.00220229)
(-0.00823353 0.700217 0.00260158)