/*--------------------------------*- C++ -*----------------------------------*\
| =========                 |                                                 |
| \\      /  F ield         | OpenFOAM: The Open Source CFD Toolbox           |
|  \\    /   O peration     | Version:  2.3.0                                 |
|   \\  /    A nd           | Web:      www.OpenFOAM.org                      |
|    \\/     M anipulation  |                                                 |
\*---------------------------------------------------------------------------*/
FoamFile
{
    version     2.0;
    format      ascii;
    class       volVectorField;
    location    "22";
    object      Ur;
}
// * * * * * * * * * * * * * * * * * * * * * * * * * * * * * * * * * * * * * //

dimensions      [0 1 -1 0 0 0 0];

internalField   nonuniform List<vector> 
6144
(
(-2.43896e-07 0.000449346 -4.6353e-07)
(-4.6451e-08 0.000460628 -4.99535e-07)
(1.21541e-07 0.000472367 -2.67661e-07)
(1.68617e-07 0.000482835 -1.29168e-07)
(1.88754e-07 0.00049478 -4.78968e-08)
(1.66644e-07 0.000510387 -5.78063e-08)
(1.82961e-07 0.000531799 -4.43205e-08)
(1.91147e-07 0.000552917 -3.34285e-08)
(1.80307e-07 0.000563481 -4.43408e-08)
(1.73497e-07 0.000565071 -5.92031e-08)
(1.59583e-07 0.000564739 -7.37952e-08)
(1.43845e-07 0.000564524 -6.79639e-08)
(1.35936e-07 0.000564385 -6.41772e-08)
(1.30741e-07 0.000564269 -5.95471e-08)
(1.34924e-07 0.000564177 -6.07331e-08)
(1.33178e-07 0.000564102 -6.2595e-08)
(1.34925e-07 0.000564045 -6.73642e-08)
(1.32207e-07 0.000564007 -6.94934e-08)
(1.32662e-07 0.000563989 -7.1655e-08)
(1.28628e-07 0.000563972 -7.19981e-08)
(1.27679e-07 0.00056393 -7.08171e-08)
(1.22505e-07 0.000563875 -6.94035e-08)
(1.20167e-07 0.000563824 -6.6122e-08)
(1.13922e-07 0.000563773 -6.38665e-08)
(1.10781e-07 0.000563701 -5.97336e-08)
(1.04302e-07 0.000563604 -5.77724e-08)
(1.00931e-07 0.000563515 -5.42229e-08)
(9.44969e-08 0.000563451 -5.1661e-08)
(9.08307e-08 0.000563391 -4.79602e-08)
(8.48998e-08 0.000563332 -4.56456e-08)
(8.11692e-08 0.000563283 -4.26503e-08)
(7.57822e-08 0.000563235 -4.07804e-08)
(7.26394e-08 0.000563185 -3.76204e-08)
(6.8255e-08 0.000563131 -3.63009e-08)
(6.47621e-08 0.000563083 -3.34257e-08)
(6.08647e-08 0.000563027 -3.31223e-08)
(5.52858e-08 0.000562968 -3.21217e-08)
(5.68738e-08 0.00056288 -2.60234e-08)
(4.86376e-08 0.000562778 -2.91146e-08)
(4.99511e-08 0.000562625 -2.20776e-08)
(4.46048e-08 0.000562552 -2.27782e-08)
(4.03556e-08 0.000562378 -3.05631e-08)
(4.47058e-08 0.000562477 -2.13434e-08)
(3.4763e-08 0.000562334 -4.57595e-08)
(5.02713e-08 0.000562513 -4.38348e-08)
(4.57391e-08 0.00056229 -7.94731e-08)
(9.41457e-08 0.000562603 -8.00069e-08)
(3.38321e-08 0.000562437 -6.01399e-08)
(1.70847e-07 0.000571273 -6.16927e-08)
(4.2892e-08 0.000614335 1.34922e-08)
(4.74996e-07 0.000737514 -1.12779e-07)
(1.84472e-07 0.000978904 -4.80766e-07)
(4.28422e-07 0.00133188 -1.03153e-06)
(-1.54696e-06 0.00159651 -1.70244e-06)
(1.3957e-06 0.00200055 3.69059e-06)
(-1.2969e-05 0.00295555 -1.07552e-06)
(1.40407e-05 0.0050726 2.80788e-05)
(3.1483e-05 0.00968276 -1.07775e-05)
(0.000423977 0.0261857 0.00161885)
(0.0100552 0.156123 0.0175119)
(-0.0320663 0.570586 -0.00332407)
(-0.0365336 0.448975 -0.0140987)
(-0.00065839 0.0221175 -0.000155712)
(-4.87061e-05 0.00794314 -4.93546e-06)
(-7.0105e-05 0.00801 5.57724e-06)
(-9.27337e-05 0.00804365 9.35573e-06)
(-7.15753e-05 0.00811981 4.22569e-06)
(-4.62069e-05 0.00822059 -1.9554e-06)
(-3.25191e-05 0.00831327 -5.82106e-06)
(-2.90716e-05 0.00837995 -6.67829e-06)
(-2.70833e-05 0.00842536 -6.10243e-06)
(-2.35236e-05 0.00846178 -6.66655e-06)
(-1.94726e-05 0.00849054 -6.85327e-06)
(-1.54991e-05 0.00850666 -6.69295e-06)
(-1.17669e-05 0.00850984 -6.75051e-06)
(-8.18014e-06 0.00849926 -6.75773e-06)
(-2.7443e-06 0.00847514 -6.7901e-06)
(4.84339e-06 0.00844816 -7.0961e-06)
(1.05497e-05 0.00843161 -6.76698e-06)
(1.01246e-05 0.00842424 -5.91303e-06)
(9.23857e-06 0.00841671 -5.00802e-06)
(1.21588e-05 0.00841485 -5.19742e-06)
(1.21477e-05 0.00843877 -6.57568e-06)
(1.33211e-06 0.00848993 -8.50275e-06)
(-6.58163e-06 0.00854908 -8.43009e-06)
(-6.92681e-06 0.00860252 -7.64678e-06)
(-4.93325e-06 0.00864105 -7.44804e-06)
(-4.23591e-06 0.00866423 -7.53414e-06)
(-5.38738e-06 0.00868121 -8.29566e-06)
(-7.77488e-06 0.00870053 -7.53251e-06)
(-9.09898e-06 0.00871388 -6.35734e-06)
(-9.32817e-06 0.00870732 -4.91019e-06)
(-1.22758e-05 0.00859671 -5.86344e-06)
(-1.03532e-05 0.0078909 -3.03828e-06)
(-5.09298e-06 0.00644923 8.93228e-06)
(-3.16862e-06 0.00526276 4.48838e-06)
(1.39976e-07 0.000422582 -7.9921e-07)
(6.03595e-07 0.000444629 -6.47269e-07)
(7.27203e-07 0.000467802 -2.66752e-07)
(7.41175e-07 0.000485606 -1.10256e-07)
(6.5957e-07 0.000503327 7.32941e-09)
(5.75482e-07 0.000523042 4.77091e-08)
(5.36431e-07 0.000544824 7.48451e-08)
(5.22088e-07 0.000560549 5.86185e-08)
(5.13089e-07 0.000565236 4.8115e-08)
(4.8791e-07 0.000565123 4.11494e-08)
(4.73337e-07 0.000564763 3.66949e-08)
(4.43317e-07 0.000564576 5.68634e-08)
(4.4514e-07 0.000564526 6.75425e-08)
(4.41086e-07 0.000564468 7.59385e-08)
(4.61662e-07 0.000564379 7.11196e-08)
(4.66825e-07 0.000564301 6.84858e-08)
(4.7844e-07 0.000564241 6.03772e-08)
(4.77379e-07 0.000564199 5.97624e-08)
(4.76259e-07 0.000564161 5.57229e-08)
(4.66847e-07 0.000564119 5.80047e-08)
(4.56624e-07 0.00056407 5.782e-08)
(4.40441e-07 0.000564022 6.24331e-08)
(4.24009e-07 0.000563979 6.39196e-08)
(4.03595e-07 0.000563932 6.88731e-08)
(3.84168e-07 0.000563864 7.09616e-08)
(3.62281e-07 0.000563781 7.60432e-08)
(3.42408e-07 0.000563714 7.86052e-08)
(3.20819e-07 0.000563661 8.3488e-08)
(3.01422e-07 0.000563606 8.60813e-08)
(2.80839e-07 0.00056355 9.01141e-08)
(2.62636e-07 0.00056351 9.25798e-08)
(2.43237e-07 0.000563464 9.57057e-08)
(2.27609e-07 0.00056342 9.79382e-08)
(2.10222e-07 0.000563361 9.95514e-08)
(1.9383e-07 0.000563322 1.02271e-07)
(1.78967e-07 0.000563266 1.02782e-07)
(1.60676e-07 0.00056322 1.06051e-07)
(1.53999e-07 0.000563124 1.07848e-07)
(1.32477e-07 0.000563024 1.0988e-07)
(1.25724e-07 0.000562897 1.116e-07)
(1.1443e-07 0.000562851 1.17628e-07)
(8.9487e-08 0.000562674 1.07862e-07)
(1.15044e-07 0.000562781 1.1853e-07)
(6.94486e-08 0.000562572 9.77743e-08)
(1.65285e-07 0.000562788 1.01419e-07)
(9.25517e-08 0.000562469 6.61249e-08)
(3.10149e-07 0.000562888 6.30003e-08)
(1.89965e-07 0.000562799 1.03686e-07)
(5.91227e-07 0.000571966 1.14414e-07)
(3.72733e-07 0.000625001 1.95485e-07)
(1.67593e-06 0.00076925 8.88797e-08)
(1.13606e-06 0.000990387 -5.51442e-07)
(1.20816e-06 0.00128392 -7.32176e-07)
(1.37806e-07 0.00152372 -2.08687e-06)
(1.99359e-06 0.0018979 4.37939e-06)
(-5.9024e-06 0.00282374 3.40198e-06)
(-3.90591e-05 0.00533343 3.93676e-05)
(-5.85546e-05 0.0105096 -9.28416e-05)
(-0.00150294 0.0281814 0.00136145)
(-0.00320941 0.1362 0.0112859)
(-0.0737441 0.575883 -0.0102461)
(-0.0626978 0.391758 -0.0159551)
(-0.00076685 0.0213487 -0.000282185)
(-5.7929e-05 0.00790072 8.1375e-05)
(-0.000167049 0.00801398 3.38857e-05)
(-0.0001315 0.00809517 -4.6008e-06)
(-7.15157e-05 0.0081989 -5.46515e-06)
(-3.41767e-05 0.00827543 -8.33784e-06)
(-2.50384e-05 0.00832931 -1.10521e-05)
(-2.61418e-05 0.0083709 -1.04742e-05)
(-2.69946e-05 0.00840346 -9.03861e-06)
(-2.62041e-05 0.00842837 -7.73716e-06)
(-2.64079e-05 0.00844519 -6.56938e-06)
(-2.3968e-05 0.00845168 -6.07363e-06)
(-1.65635e-05 0.00844746 -5.52059e-06)
(-1.02217e-05 0.00843766 -3.87451e-06)
(-2.5664e-06 0.00843674 -2.51074e-06)
(6.06799e-06 0.008438 -3.23853e-06)
(1.54452e-05 0.00842347 -4.37773e-06)
(2.09624e-05 0.00840411 -1.79319e-06)
(1.36894e-05 0.00841606 -1.7625e-06)
(4.79629e-07 0.00850923 -5.72099e-06)
(-4.73101e-06 0.00862561 -7.18226e-06)
(-5.24372e-06 0.00862683 -4.23483e-06)
(-6.32583e-06 0.00851472 -5.53936e-06)
(-3.82042e-06 0.00841726 -6.83573e-06)
(-4.88333e-07 0.00840223 -8.93506e-06)
(-1.78331e-06 0.0084584 -9.68766e-06)
(-7.26533e-06 0.00855102 -1.06868e-05)
(-1.28599e-05 0.00864917 -9.87196e-06)
(-1.77838e-05 0.00872383 -8.55508e-06)
(-2.21224e-05 0.00873212 -6.26196e-06)
(-2.57216e-05 0.00857991 -5.27126e-06)
(-2.41793e-05 0.00782082 -2.34466e-06)
(-1.60446e-05 0.00639353 9.26705e-06)
(-1.13329e-05 0.00526468 5.6492e-06)
(5.77721e-07 0.000385065 -1.18049e-07)
(1.33418e-06 0.000409389 -1.93099e-07)
(1.34029e-06 0.000436032 -8.35941e-08)
(1.30327e-06 0.000459754 6.26173e-08)
(1.12934e-06 0.000485084 1.05802e-07)
(9.56245e-07 0.00051163 1.23334e-07)
(8.44306e-07 0.000538439 1.57841e-07)
(8.27142e-07 0.000556278 1.22843e-07)
(7.98058e-07 0.000561798 1.03563e-07)
(7.78899e-07 0.000562512 8.95579e-08)
(7.61488e-07 0.000563021 8.58626e-08)
(7.18779e-07 0.000563789 9.00194e-08)
(7.20317e-07 0.000564293 9.66579e-08)
(7.13303e-07 0.000564412 9.99828e-08)
(7.34228e-07 0.000564378 9.70955e-08)
(7.38894e-07 0.000564308 9.35434e-08)
(7.52395e-07 0.000564245 9.15967e-08)
(7.48054e-07 0.000564194 9.22032e-08)
(7.41661e-07 0.000564149 9.39927e-08)
(7.22087e-07 0.000564104 9.72299e-08)
(6.98242e-07 0.000564055 1.01011e-07)
(6.65129e-07 0.000564009 1.05037e-07)
(6.30606e-07 0.000563966 1.09029e-07)
(5.90476e-07 0.000563918 1.12711e-07)
(5.51024e-07 0.000563855 1.16594e-07)
(5.08436e-07 0.000563784 1.19976e-07)
(4.68285e-07 0.000563726 1.23874e-07)
(4.26482e-07 0.000563677 1.27162e-07)
(3.877e-07 0.000563627 1.3074e-07)
(3.47989e-07 0.000563576 1.33484e-07)
(3.11945e-07 0.000563533 1.36403e-07)
(2.75067e-07 0.00056348 1.38457e-07)
(2.42245e-07 0.000563434 1.40601e-07)
(2.08918e-07 0.000563379 1.41562e-07)
(1.78426e-07 0.000563345 1.45445e-07)
(1.49628e-07 0.000563292 1.45229e-07)
(1.19915e-07 0.000563249 1.48593e-07)
(9.88314e-08 0.000563162 1.48928e-07)
(6.89594e-08 0.00056309 1.49482e-07)
(5.09452e-08 0.00056299 1.51044e-07)
(3.52687e-08 0.000562947 1.48649e-07)
(6.20478e-09 0.000562831 1.49891e-07)
(4.20434e-08 0.000562861 1.43703e-07)
(-1.68087e-08 0.000562738 1.41616e-07)
(1.29059e-07 0.000562821 1.40522e-07)
(1.1848e-08 0.000562606 1.49225e-07)
(3.28705e-07 0.00056311 1.44022e-07)
(1.87905e-07 0.000563093 1.9798e-07)
(7.48822e-07 0.000570082 1.62933e-07)
(5.22169e-07 0.000621452 2.45487e-07)
(2.00622e-06 0.000754737 -3.16372e-08)
(1.09904e-06 0.000924122 -4.55781e-07)
(2.31992e-06 0.00112598 -9.3956e-07)
(2.34658e-06 0.00133015 -4.07377e-06)
(6.69833e-06 0.00192863 4.9718e-06)
(5.84236e-05 0.00295063 7.83042e-07)
(-5.87194e-05 0.00503318 7.68923e-05)
(-0.000256626 0.00813096 -4.70294e-05)
(-0.0025353 0.0228837 0.000575346)
(0.000846789 0.12359 0.00723447)
(-0.0459485 0.560576 -0.0131617)
(-0.0286923 0.356141 -0.00632458)
(-0.000274212 0.0218498 -0.000664729)
(-9.53023e-05 0.00804591 5.92316e-05)
(-0.000213373 0.00803186 2.20544e-05)
(-9.09755e-05 0.00826735 6.13681e-06)
(-5.31327e-05 0.00839598 -2.49139e-06)
(-4.30404e-05 0.00841921 -1.38424e-05)
(-3.91876e-05 0.00842913 -1.99557e-05)
(-3.09333e-05 0.0084626 -2.04978e-05)
(-2.14708e-05 0.00851074 -1.78528e-05)
(-1.72343e-05 0.0085491 -1.46004e-05)
(-1.94491e-05 0.00856471 -9.98272e-06)
(-2.17335e-05 0.00856638 -7.24093e-06)
(-2.112e-05 0.00855219 -8.00552e-06)
(-1.67028e-05 0.00851028 -6.96044e-06)
(-5.36948e-06 0.00845572 -6.40147e-06)
(4.30665e-06 0.00842705 -1.039e-05)
(-6.56542e-07 0.00848928 -1.42768e-05)
(-7.76834e-06 0.00863003 -1.00425e-05)
(-1.35221e-05 0.00869975 -4.76889e-06)
(-1.34763e-05 0.0085995 -1.03891e-06)
(-1.18671e-05 0.00835918 -5.34373e-06)
(-3.0727e-06 0.00814518 -6.57649e-06)
(6.02065e-06 0.00803363 -5.09999e-06)
(1.17146e-05 0.00802581 -4.1467e-06)
(1.28871e-05 0.00812371 -4.75206e-06)
(2.23234e-06 0.00829221 -6.3358e-06)
(-1.47764e-05 0.00848858 -1.09654e-05)
(-2.60365e-05 0.00868201 -1.26155e-05)
(-2.95856e-05 0.00882076 -1.16462e-05)
(-3.14511e-05 0.00882148 -8.61564e-06)
(-3.41993e-05 0.00854769 -7.31228e-06)
(-3.42415e-05 0.00764315 -2.43774e-06)
(-1.99963e-05 0.00622498 4.19694e-06)
(-1.46956e-05 0.00523318 5.26341e-06)
(7.19961e-07 0.000358471 2.00083e-07)
(1.8812e-06 0.000383751 2.15252e-08)
(1.83825e-06 0.000410719 -3.62084e-08)
(1.93766e-06 0.000433843 5.42032e-08)
(1.70127e-06 0.00046035 8.35966e-08)
(1.53065e-06 0.000493244 1.5068e-07)
(1.40207e-06 0.000529382 1.78782e-07)
(1.32371e-06 0.000554294 8.738e-08)
(1.22511e-06 0.00056197 1.02186e-07)
(1.17851e-06 0.000562254 8.63738e-08)
(1.12297e-06 0.000562359 1.01984e-07)
(1.0663e-06 0.000563311 1.04981e-07)
(1.05025e-06 0.000564089 1.06828e-07)
(1.03371e-06 0.000564273 1.04534e-07)
(1.04179e-06 0.000564257 9.44169e-08)
(1.03814e-06 0.000564185 8.94445e-08)
(1.03616e-06 0.000564118 8.56279e-08)
(1.01905e-06 0.000564058 8.83163e-08)
(9.96349e-07 0.000564004 8.83576e-08)
(9.6327e-07 0.000563949 9.46952e-08)
(9.2034e-07 0.000563891 9.64159e-08)
(8.7132e-07 0.000563835 1.03619e-07)
(8.15059e-07 0.000563784 1.04436e-07)
(7.57482e-07 0.000563728 1.09965e-07)
(6.96302e-07 0.000563659 1.10447e-07)
(6.36081e-07 0.000563589 1.15645e-07)
(5.74341e-07 0.000563532 1.16552e-07)
(5.15096e-07 0.000563482 1.21538e-07)
(4.56091e-07 0.000563435 1.22686e-07)
(4.00269e-07 0.000563387 1.26906e-07)
(3.45894e-07 0.00056334 1.27618e-07)
(2.94389e-07 0.000563285 1.30109e-07)
(2.44537e-07 0.000563239 1.30641e-07)
(1.97307e-07 0.000563189 1.31777e-07)
(1.53918e-07 0.00056316 1.33096e-07)
(1.11749e-07 0.00056311 1.33411e-07)
(7.17012e-08 0.000563077 1.35079e-07)
(3.71436e-08 0.000562986 1.34746e-07)
(1.33843e-09 0.000562933 1.34754e-07)
(-2.71212e-08 0.000562845 1.35966e-07)
(-4.56262e-08 0.000562812 1.31142e-07)
(-7.69236e-08 0.000562746 1.34311e-07)
(-4.79727e-08 0.000562768 1.17597e-07)
(-1.11761e-07 0.000562656 1.33699e-07)
(7.21566e-09 0.000562777 1.09766e-07)
(-1.09749e-07 0.000562696 1.50245e-07)
(1.54627e-07 0.000563363 1.18792e-07)
(2.5473e-08 0.000563938 1.71714e-07)
(4.76536e-07 0.000571931 9.32694e-08)
(4.65323e-07 0.000607417 2.26801e-07)
(1.18765e-06 0.000701266 -1.5822e-07)
(8.722e-07 0.000854627 -5.00415e-08)
(2.6591e-06 0.00108892 -9.0675e-07)
(1.56411e-06 0.00138383 -7.33552e-06)
(2.06626e-05 0.00218692 1.68864e-06)
(2.95558e-05 0.00316716 -6.76303e-07)
(8.71651e-05 0.0047373 2.91844e-05)
(-0.000316482 0.00642056 3.52428e-05)
(-0.00245214 0.0207874 0.000316943)
(0.00631387 0.124482 0.00873638)
(-0.0352896 0.571014 -0.020508)
(-0.00926914 0.348046 -0.0012798)
(0.000141934 0.024368 -0.000268007)
(-0.000436039 0.00890422 -1.83684e-06)
(-0.000276116 0.00802862 -1.92174e-05)
(-4.32485e-05 0.00811933 -1.41176e-06)
(-4.38391e-05 0.00822118 -1.24339e-05)
(-3.95465e-05 0.00831734 -2.07942e-05)
(-2.86795e-05 0.00835849 -2.1081e-05)
(-1.72354e-05 0.00837032 -1.74362e-05)
(-1.01787e-05 0.00840268 -1.67991e-05)
(-1.02791e-05 0.00845071 -1.3108e-05)
(-1.42055e-05 0.00848556 -6.55426e-06)
(-1.29074e-05 0.00848365 -2.263e-06)
(-4.56212e-06 0.00842555 -2.96554e-06)
(-8.14812e-06 0.00836487 -5.00776e-06)
(-1.58698e-05 0.00839114 -4.90364e-06)
(-2.14247e-05 0.00846573 -5.25709e-06)
(-3.12845e-05 0.00851457 -9.57667e-06)
(-3.84467e-05 0.00852742 -9.48728e-06)
(-3.12133e-05 0.00846522 -7.26239e-06)
(-1.85296e-05 0.00826747 -4.76493e-06)
(-9.59034e-06 0.00801265 -3.58677e-06)
(-2.28643e-06 0.00782177 -2.3384e-06)
(1.45715e-06 0.007732 -2.08207e-06)
(-9.26561e-07 0.00779479 -1.90227e-06)
(-1.07574e-05 0.00806177 -2.44064e-06)
(-2.50695e-05 0.00843867 -6.10899e-06)
(-3.23551e-05 0.00870956 -1.38155e-05)
(-3.20732e-05 0.00881667 -1.65645e-05)
(-2.86368e-05 0.00883105 -1.35569e-05)
(-2.8293e-05 0.00870339 -9.1516e-06)
(-2.8021e-05 0.00820427 -8.08948e-06)
(-2.28846e-05 0.00717903 -6.70376e-06)
(-1.16185e-05 0.00596847 -1.03913e-07)
(-9.49144e-06 0.00518371 1.65888e-06)
(8.82531e-07 0.000331739 2.13457e-07)
(2.46331e-06 0.000358312 2.95666e-08)
(2.4235e-06 0.000388016 -1.01563e-07)
(2.74392e-06 0.000410886 -1.09714e-07)
(2.4881e-06 0.000434305 -2.25508e-08)
(2.34767e-06 0.000468364 1.15425e-07)
(2.16238e-06 0.000509123 9.58728e-08)
(1.93557e-06 0.000541087 6.60072e-08)
(1.77497e-06 0.000558491 4.60068e-08)
(1.66204e-06 0.000563041 6.42801e-08)
(1.55727e-06 0.000562584 1.04392e-07)
(1.4999e-06 0.000563334 1.14721e-07)
(1.45235e-06 0.000564153 1.1736e-07)
(1.42236e-06 0.000564357 1.1203e-07)
(1.41197e-06 0.000564349 9.50514e-08)
(1.38684e-06 0.000564271 8.29065e-08)
(1.3614e-06 0.000564202 7.80998e-08)
(1.31687e-06 0.000564137 7.51907e-08)
(1.26935e-06 0.000564082 7.73141e-08)
(1.20918e-06 0.00056403 7.68441e-08)
(1.14608e-06 0.000563976 8.1294e-08)
(1.07652e-06 0.000563919 8.04331e-08)
(1.00471e-06 0.000563866 8.42213e-08)
(9.28602e-07 0.00056381 8.30647e-08)
(8.5228e-07 0.000563742 8.6778e-08)
(7.74073e-07 0.000563673 8.61124e-08)
(6.97215e-07 0.000563617 8.97702e-08)
(6.20447e-07 0.000563569 8.95382e-08)
(5.46651e-07 0.000563525 9.30324e-08)
(4.74724e-07 0.000563485 9.31694e-08)
(4.0683e-07 0.000563438 9.60779e-08)
(3.41001e-07 0.000563377 9.57831e-08)
(2.79251e-07 0.000563327 9.79365e-08)
(2.20225e-07 0.000563278 9.59774e-08)
(1.6465e-07 0.000563252 9.82437e-08)
(1.13944e-07 0.000563207 9.55503e-08)
(6.379e-08 0.000563173 9.8867e-08)
(2.12351e-08 0.000563068 9.54683e-08)
(-2.13248e-08 0.000563001 9.86011e-08)
(-5.68944e-08 0.000562904 9.6628e-08)
(-8.4964e-08 0.000562871 9.35733e-08)
(-1.27619e-07 0.000562839 9.72028e-08)
(-1.30227e-07 0.000562869 7.94373e-08)
(-2.03383e-07 0.000562802 1.03026e-07)
(-1.66484e-07 0.000562944 6.56658e-08)
(-2.85439e-07 0.000562912 1.16084e-07)
(-1.67357e-07 0.000563669 6.95718e-08)
(-3.0524e-07 0.000564796 8.19678e-08)
(-1.11457e-07 0.00057337 3.50015e-09)
(-2.79348e-08 0.000597689 6.35952e-08)
(6.73926e-08 0.000670222 -1.57431e-07)
(1.44665e-07 0.000827768 -4.83631e-08)
(3.37333e-06 0.00113684 4.11079e-08)
(1.30383e-06 0.00153259 -8.74411e-06)
(2.63918e-05 0.0022405 5.70607e-06)
(8.23719e-06 0.00317851 -3.06767e-05)
(0.000188379 0.00485798 0.000241496)
(-0.000608936 0.0046531 0.000506094)
(-0.00246682 0.0204038 -6.39591e-05)
(0.017299 0.146955 0.0141785)
(-0.0240056 0.582111 -0.0241658)
(-0.00987768 0.475777 0.00685702)
(-0.0305693 0.48429 0.00251476)
(-0.0129901 0.456527 0.00435922)
(-0.0211199 0.32102 0.00504504)
(-0.000186697 0.0302639 -6.49226e-05)
(-0.000212574 0.00976311 -0.000165488)
(-0.000165848 0.00929573 -0.000216496)
(-0.000164041 0.00801555 -0.000260386)
(-0.000115382 0.00762229 -0.000275429)
(-3.2222e-05 0.00765436 -0.000242958)
(1.27249e-05 0.007663 -0.000176661)
(8.88281e-06 0.0076772 -0.000129623)
(-2.44735e-05 0.00770495 -7.23305e-05)
(-8.15356e-05 0.00769072 -9.76589e-05)
(-0.000111913 0.00759665 -0.000119694)
(-0.000167824 0.00755213 -0.000126577)
(-0.000243848 0.0077852 -0.000141157)
(-0.000275855 0.00860678 -0.000146902)
(-0.000279975 0.00924964 -0.00013992)
(-0.000191826 0.00948014 -0.000122075)
(-0.000233871 0.00998993 -0.000107488)
(-0.000206177 0.0104763 -9.89731e-05)
(-0.000163576 0.0101768 -0.000107374)
(-0.000127587 0.00932276 -0.000118754)
(-9.38184e-05 0.00851125 1.29787e-06)
(-5.57547e-05 0.00819994 -2.27972e-06)
(1.39476e-05 0.00821581 -1.93203e-06)
(-4.88932e-06 0.00847763 -6.96701e-06)
(-8.75583e-07 0.00859473 -6.20979e-06)
(-8.65384e-08 0.008485 -6.36911e-06)
(-9.46889e-07 0.00818806 -7.24295e-06)
(-1.09092e-06 0.00757224 -9.5145e-06)
(-1.30044e-06 0.00666236 -1.01088e-05)
(5.59849e-07 0.00570992 -7.8095e-06)
(-1.38287e-08 0.0050527 -1.66514e-06)
(1.30389e-06 0.000306228 4.72897e-07)
(3.52594e-06 0.000330093 1.36564e-08)
(3.37505e-06 0.000362988 -7.5961e-08)
(3.87731e-06 0.000389674 -3.24758e-07)
(3.49457e-06 0.000409626 -3.61762e-07)
(3.22121e-06 0.000438576 -7.83586e-08)
(2.94754e-06 0.000480063 9.2244e-09)
(2.65018e-06 0.000519358 4.50303e-08)
(2.38929e-06 0.000547201 -1.00464e-08)
(2.1804e-06 0.000559242 6.15805e-09)
(2.01492e-06 0.000561436 7.07863e-08)
(1.96129e-06 0.000562947 8.7182e-08)
(1.87909e-06 0.000563939 1.03979e-07)
(1.83783e-06 0.000564132 1.15925e-07)
(1.7949e-06 0.000564128 1.03606e-07)
(1.7485e-06 0.000564041 1.02182e-07)
(1.6866e-06 0.000563959 9.28409e-08)
(1.61258e-06 0.000563879 9.72453e-08)
(1.53286e-06 0.000563809 9.33113e-08)
(1.44934e-06 0.000563743 9.5681e-08)
(1.36509e-06 0.000563681 8.98575e-08)
(1.27959e-06 0.000563626 8.79233e-08)
(1.19251e-06 0.000563576 8.10053e-08)
(1.10423e-06 0.000563517 7.96429e-08)
(1.01533e-06 0.000563449 7.47011e-08)
(9.26381e-07 0.000563387 7.48109e-08)
(8.37895e-07 0.000563338 7.16656e-08)
(7.50489e-07 0.000563297 7.24308e-08)
(6.65263e-07 0.000563258 7.06617e-08)
(5.8285e-07 0.00056322 7.19532e-08)
(5.04114e-07 0.00056318 7.13392e-08)
(4.28004e-07 0.000563132 7.2516e-08)
(3.56449e-07 0.000563093 7.26056e-08)
(2.88474e-07 0.000563051 7.14127e-08)
(2.23556e-07 0.000563029 7.2531e-08)
(1.64745e-07 0.000562992 6.94645e-08)
(1.04682e-07 0.00056297 7.2691e-08)
(5.41602e-08 0.000562871 6.80045e-08)
(-1.37978e-09 0.000562819 7.17949e-08)
(-4.71706e-08 0.000562693 6.81405e-08)
(-1.00252e-07 0.000562686 6.49942e-08)
(-1.51934e-07 0.000562689 6.85801e-08)
(-2.11275e-07 0.000562736 4.716e-08)
(-2.79718e-07 0.000562677 7.54646e-08)
(-3.59638e-07 0.000562821 3.24059e-08)
(-4.53795e-07 0.000562762 9.22178e-08)
(-5.23908e-07 0.000563593 6.54035e-08)
(-7.06854e-07 0.000565536 7.76679e-08)
(-6.97077e-07 0.000576696 5.6344e-08)
(-8.65387e-07 0.000604821 -3.31889e-08)
(-6.3473e-07 0.000693664 7.57219e-08)
(-4.95283e-07 0.000884937 -3.89556e-08)
(1.3723e-06 0.00120488 -3.66028e-07)
(7.99562e-07 0.00166371 -4.12776e-06)
(3.82362e-05 0.00258391 4.44009e-05)
(4.32658e-05 0.00343557 8.47225e-05)
(0.000103732 0.00438289 0.000305243)
(-0.000418475 0.00378788 0.000279988)
(-0.00129826 0.0238493 0.00102077)
(0.0157566 0.203617 0.0188785)
(0.00938891 0.565643 -0.0166539)
(0.00664527 0.464441 0.00238818)
(-0.00949056 0.45294 0.000201925)
(-0.0157702 0.479028 0.000337627)
(-0.0184962 0.469852 -0.00052326)
(-0.00914452 0.484286 -0.0032075)
(-0.00494465 0.481012 -0.00416234)
(-0.00231923 0.476585 -0.00243123)
(-0.00339436 0.501494 -0.00263004)
(-0.00446004 0.494985 -0.000703314)
(-0.0067128 0.491745 0.00224577)
(-0.00548644 0.488582 0.0038962)
(-0.00363577 0.481426 0.00407312)
(-0.000905418 0.490044 0.00419327)
(0.000973164 0.489902 0.00488965)
(0.000977326 0.490815 0.00284141)
(0.000254521 0.47925 0.00112196)
(0.00122786 0.48132 0.000152519)
(0.00116356 0.482012 -0.00158122)
(0.00149885 0.464472 -0.00240202)
(0.00143088 0.329509 -0.00147967)
(0.00288214 0.497869 -0.00251879)
(0.00168487 0.491571 -0.00162107)
(0.000646969 0.478152 -0.00148295)
(-0.00146105 0.470455 -0.00119315)
(-0.00272634 0.481095 -0.00101846)
(-0.0032135 0.453806 -0.00106944)
(-0.00399605 0.307004 -0.000921682)
(-6.03841e-05 0.028679 -0.000156543)
(-3.70228e-05 0.00638534 -1.3135e-05)
(8.00291e-06 0.00663972 -4.55812e-06)
(1.60935e-05 0.00665576 -9.12014e-06)
(1.56905e-05 0.00590762 -1.13452e-05)
(9.16654e-05 0.00509323 -1.15563e-05)
(7.95365e-05 0.00459821 -1.13192e-05)
(5.43944e-05 0.00441747 -4.72022e-06)
(1.63172e-06 0.000289909 6.40761e-07)
(4.83769e-06 0.000304904 3.12217e-07)
(4.63995e-06 0.000333207 6.79018e-08)
(5.00817e-06 0.000364285 -2.17511e-07)
(4.4953e-06 0.000388503 -4.95716e-07)
(3.99188e-06 0.000414295 -2.88483e-07)
(3.52999e-06 0.000454877 -2.33563e-07)
(3.22315e-06 0.000498099 -6.27945e-08)
(2.96574e-06 0.000526285 -1.51401e-08)
(2.66589e-06 0.000544561 -3.57318e-08)
(2.45582e-06 0.000556221 2.54657e-08)
(2.40979e-06 0.00056191 5.18994e-08)
(2.3216e-06 0.000563896 8.82101e-08)
(2.24363e-06 0.000564199 1.26517e-07)
(2.11543e-06 0.000564231 1.41107e-07)
(2.01766e-06 0.00056416 1.52515e-07)
(1.91374e-06 0.000564075 1.48379e-07)
(1.81491e-06 0.00056399 1.44753e-07)
(1.71144e-06 0.000563921 1.36013e-07)
(1.60899e-06 0.000563856 1.24569e-07)
(1.50666e-06 0.000563793 1.13258e-07)
(1.40762e-06 0.000563732 9.90668e-08)
(1.30783e-06 0.000563674 9.02628e-08)
(1.21075e-06 0.000563612 8.09442e-08)
(1.11308e-06 0.000563541 7.66036e-08)
(1.01766e-06 0.000563471 7.06772e-08)
(9.22503e-07 0.000563405 6.88578e-08)
(8.30927e-07 0.000563346 6.5786e-08)
(7.40872e-07 0.000563302 6.55835e-08)
(6.54687e-07 0.000563264 6.37919e-08)
(5.70773e-07 0.00056322 6.38276e-08)
(4.90265e-07 0.000563167 6.20761e-08)
(4.12875e-07 0.000563123 6.21334e-08)
(3.37481e-07 0.000563076 6.04202e-08)
(2.67397e-07 0.00056305 6.33857e-08)
(1.99229e-07 0.000563005 6.08802e-08)
(1.34819e-07 0.00056298 6.57833e-08)
(7.32018e-08 0.000562888 5.99789e-08)
(9.78655e-09 0.000562832 6.46382e-08)
(-4.98966e-08 0.000562717 5.93002e-08)
(-1.26902e-07 0.000562719 5.80382e-08)
(-1.93343e-07 0.000562688 5.78202e-08)
(-3.1727e-07 0.000562745 4.73518e-08)
(-3.85542e-07 0.00056266 6.07103e-08)
(-6.11151e-07 0.000562803 4.3032e-08)
(-6.70209e-07 0.000562702 7.30125e-08)
(-9.48067e-07 0.000563607 8.50778e-08)
(-1.09616e-06 0.000567124 1.30952e-07)
(-1.32561e-06 0.000583676 1.85571e-07)
(-1.7946e-06 0.000632835 1.2547e-07)
(-1.67782e-06 0.000742593 -1.09774e-07)
(-2.70568e-06 0.000902157 -1.41887e-06)
(-1.95649e-06 0.00116884 -1.2259e-06)
(-5.2387e-07 0.00169407 -5.4637e-06)
(2.69702e-05 0.00273481 1.89165e-05)
(3.29138e-05 0.00359872 6.01134e-05)
(-4.38899e-06 0.00407711 0.000166764)
(-0.000127919 0.00319006 3.21117e-05)
(-0.000659607 0.0268313 0.00146012)
(0.013387 0.290587 0.0222712)
(0.0140795 0.576516 -0.0112185)
(0.00861546 0.479412 -0.000256394)
(0.00364858 0.389969 -0.000636158)
(0.00190714 0.480008 -0.00107683)
(-0.00629561 0.483945 -0.000799024)
(-0.00370836 0.486422 -0.00051351)
(-0.00510028 0.455377 -9.25774e-05)
(-0.00263189 0.453051 0.000735324)
(-0.00439692 0.502641 0.00139657)
(-0.00229423 0.506116 0.00194572)
(-0.000520774 0.435928 0.00179225)
(-0.00197886 0.482919 0.00234735)
(-0.000532829 0.503075 0.00211354)
(0.000250616 0.462068 0.00161784)
(0.000238679 0.507227 0.00132677)
(0.00013753 0.471795 0.000268152)
(0.000770183 0.475064 -0.000292396)
(0.00015164 0.38963 -0.000772562)
(0.000158897 0.473847 -0.00112962)
(0.00515291 0.475019 -0.00225828)
(0.00200532 0.48537 -0.00113613)
(0.00146738 0.489667 -0.00112133)
(0.000957661 0.495817 -0.00136066)
(0.00183537 0.489399 -0.00168207)
(-0.000306408 0.495472 -0.00229126)
(-0.00249517 0.501868 -0.00215145)
(-0.00265145 0.45075 -0.00145672)
(-0.00409705 0.446694 -0.00149642)
(-0.0041217 0.38838 -0.000877879)
(-0.00250293 0.326797 0.000163095)
(-0.00358722 0.322691 0.00117713)
(0.000140409 0.0257462 -0.000270972)
(1.71699e-05 0.0287556 -0.000209774)
(-0.00331435 0.414278 0.00288466)
(-0.00435935 0.432186 0.00395258)
(0.00139709 0.467353 0.000919707)
(2.94731e-06 0.000284599 1.2205e-06)
(6.39197e-06 0.000290358 1.08115e-06)
(5.84792e-06 0.000304498 3.09875e-07)
(5.84073e-06 0.000329788 1.98244e-07)
(5.16962e-06 0.000358784 -3.45653e-07)
(4.55649e-06 0.0003901 -2.53259e-07)
(3.91783e-06 0.00043458 -4.2626e-07)
(3.4493e-06 0.000483811 -2.26274e-07)
(3.27741e-06 0.000514074 -1.32427e-07)
(3.01517e-06 0.000532841 -4.37655e-08)
(2.79142e-06 0.000549935 -2.68197e-09)
(2.7231e-06 0.000560462 5.52232e-08)
(2.5901e-06 0.000563709 1.06017e-07)
(2.48699e-06 0.000564087 1.69773e-07)
(2.30231e-06 0.000564085 2.22404e-07)
(2.17729e-06 0.000564014 2.54622e-07)
(2.02992e-06 0.000563942 2.7327e-07)
(1.90087e-06 0.000563862 2.82597e-07)
(1.76937e-06 0.000563796 2.84641e-07)
(1.64246e-06 0.000563733 2.85462e-07)
(1.51754e-06 0.000563676 2.7763e-07)
(1.39467e-06 0.000563619 2.698e-07)
(1.27717e-06 0.000563566 2.6065e-07)
(1.16138e-06 0.000563509 2.55071e-07)
(1.04907e-06 0.000563452 2.48971e-07)
(9.37879e-07 0.000563407 2.45498e-07)
(8.31421e-07 0.000563379 2.41185e-07)
(7.27342e-07 0.000563355 2.38468e-07)
(6.27796e-07 0.000563326 2.3507e-07)
(5.3083e-07 0.000563296 2.32797e-07)
(4.38597e-07 0.000563264 2.2971e-07)
(3.49061e-07 0.000563226 2.27332e-07)
(2.64902e-07 0.000563199 2.24958e-07)
(1.79894e-07 0.000563172 2.2237e-07)
(1.02225e-07 0.000563168 2.21303e-07)
(1.87024e-08 0.000563139 2.16339e-07)
(-5.19504e-08 0.000563128 2.14994e-07)
(-1.36649e-07 0.000563045 2.04237e-07)
(-2.0682e-07 0.00056302 2.01182e-07)
(-2.92336e-07 0.000562938 1.87581e-07)
(-3.88193e-07 0.00056297 1.80953e-07)
(-4.6148e-07 0.000562859 1.70553e-07)
(-6.35802e-07 0.000562942 1.70592e-07)
(-6.72869e-07 0.000562773 1.69584e-07)
(-1.00009e-06 0.000562887 1.79876e-07)
(-1.0025e-06 0.000562604 1.98939e-07)
(-1.4752e-06 0.000563332 2.22878e-07)
(-1.47976e-06 0.000566822 3.03297e-07)
(-2.06478e-06 0.000583164 4.21586e-07)
(-2.31004e-06 0.000631292 4.71528e-07)
(-3.61409e-06 0.000738286 3.96189e-07)
(-5.32077e-06 0.000921789 -2.74573e-08)
(-9.88462e-06 0.00133967 6.17101e-06)
(-1.05014e-05 0.00205589 2.11577e-05)
(-4.41076e-06 0.00280534 6.0669e-05)
(-2.66471e-06 0.00300533 1.83223e-05)
(-5.92173e-05 0.00325556 0.000102303)
(9.53955e-06 0.00261434 -0.000192066)
(-0.00100226 0.0264077 0.000747946)
(0.00331683 0.300686 0.0240977)
(0.00709897 0.588146 -0.00956832)
(0.0100535 0.521876 0.00138549)
(0.00224949 0.499021 -0.000231828)
(0.00227332 0.493672 0.000988421)
(0.00249048 0.495608 0.00127128)
(0.000462822 0.500553 0.000534608)
(-0.000509367 0.492162 0.000964827)
(0.000500837 0.493279 0.00127907)
(-0.000220823 0.495615 0.000920069)
(0.000537913 0.498013 0.000870835)
(0.00143637 0.49595 0.000861481)
(-0.00026974 0.498538 0.000584583)
(0.00160372 0.497444 0.000466923)
(0.00101294 0.487647 0.000129595)
(0.000950321 0.482784 0.000554673)
(0.00052435 0.483615 -0.000475565)
(0.000226363 0.491277 -0.000963278)
(-0.000830195 0.517536 -0.00122547)
(9.28965e-05 0.48792 -0.000739821)
(0.0026254 0.489967 -6.70184e-05)
(0.00201147 0.499125 0.000503209)
(0.00197809 0.4937 0.000348969)
(0.00108141 0.49556 -0.000223258)
(0.00129869 0.494981 -0.000760757)
(0.000689637 0.483388 -0.000763917)
(-0.000671509 0.44662 -0.000113368)
(-0.00171111 0.417745 0.000473925)
(-0.00299172 0.427213 0.000699407)
(-0.00437121 0.483759 9.14561e-05)
(-0.00368035 0.506283 -0.000619207)
(-0.00661982 0.476073 -0.00132448)
(-0.00498956 0.480596 -0.00204503)
(-0.0062526 0.495763 -0.00486579)
(-0.00427551 0.476645 -0.00800392)
(-0.00592203 0.494418 -0.0157197)
(-0.00337501 0.473837 -0.019442)
(4.48411e-06 0.000165817 6.50293e-07)
(8.59668e-06 0.000296138 1.72373e-06)
(6.90038e-06 0.000287747 5.43743e-07)
(6.68378e-06 0.000299925 4.20171e-07)
(5.64747e-06 0.000326592 -1.9723e-07)
(4.99145e-06 0.000363643 -2.45399e-07)
(4.24849e-06 0.000414812 -5.45738e-07)
(3.6749e-06 0.00047318 -3.10884e-07)
(3.39688e-06 0.000511371 -2.37545e-07)
(3.29288e-06 0.000532776 -1.5309e-07)