/*--------------------------------*- C++ -*----------------------------------*\
| =========                 |                                                 |
| \\      /  F ield         | OpenFOAM: The Open Source CFD Toolbox           |
|  \\    /   O peration     | Version:  2.3.0                                 |
|   \\  /    A nd           | Web:      www.OpenFOAM.org                      |
|    \\/     M anipulation  |                                                 |
\*---------------------------------------------------------------------------*/
FoamFile
{
    version     2.0;
    format      ascii;
    class       volScalarField;
    location    "22";
    object      w1;
}
// * * * * * * * * * * * * * * * * * * * * * * * * * * * * * * * * * * * * * //

dimensions      [0 0 0 0 0 0 0];

internalField   nonuniform List<scalar> 
6144
(
0.518788
0.518788
0.518788
0.518788
0.518788
0.518788
0.518788
0.518788
0.518788
0.518788
0.518788
0.518788
0.518788
0.518788
0.518788
0.518788
0.518788
0.518788
0.518788
0.518788
0.518788
0.518788
0.518788
0.518788
0.518788
0.518788
0.518788
0.518788
0.518788
0.518788
0.518788
0.518788
0.518788
0.518788
0.518788
0.518788
0.518788
0.518788
0.518788
0.518788
0.518788
0.518788
0.518788
0.518788
0.518788
0.518788
0.518788
0.518788
0.518788
0.518788
0.518788
0.518788
0.518788
0.518788
0.518788
0.518788
0.518785
0.518563
0.468183
0.499508
0.81901
0.998872
0.999994
0.983477
0.999113
0.984787
0.993328
0.907725
0.988961
0.986944
0.984617
0.986566
0.985513
0.980331
0.983181
0.978273
0.944518
0.959905
0.434493
0.983035
0.867083
0.985016
0.863367
0.991443
0.991964
0.993575
0.993519
0.991705
0.990724
0.977382
0.968491
0.982656
0.992366
0.9987
0.999511
0.999876
0.518788
0.518788
0.518788
0.518788
0.518788
0.518788
0.518788
0.518788
0.518788
0.518788
0.518788
0.518788
0.518788
0.518788
0.518788
0.518788
0.518788
0.518788
0.518788
0.518788
0.518788
0.518788
0.518788
0.518788
0.518788
0.518788
0.518788
0.518788
0.518788
0.518788
0.518788
0.518788
0.518788
0.518788
0.518788
0.518788
0.518788
0.518788
0.518788
0.518788
0.518788
0.518788
0.518788
0.518788
0.518788
0.518788
0.518788
0.518788
0.518788
0.518788
0.518788
0.518788
0.518788
0.518788
0.518788
0.518788
0.51878
0.517154
0.452617
0.495072
0.805338
0.999135
0.999995
0.99932
0.997208
0.998474
0.990491
0.988193
0.926719
0.990561
0.993055
0.990861
0.991049
0.990119
0.990058
0.992027
0.962107
0.99339
0.978138
0.992612
0.987072
0.995288
0.994658
0.412972
0.992317
0.989308
0.960994
0.689674
0.970476
0.966734
0.913027
0.986987
0.996686
0.998716
0.99941
0.99987
0.518788
0.518788
0.518788
0.518788
0.518788
0.518788
0.518788
0.518788
0.518788
0.518788
0.518788
0.518788
0.518788
0.518788
0.518788
0.518788
0.518788
0.518788
0.518788
0.518788
0.518788
0.518788
0.518788
0.518788
0.518788
0.518788
0.518788
0.518788
0.518788
0.518788
0.518788
0.518788
0.518788
0.518788
0.518788
0.518788
0.518788
0.518788
0.518788
0.518788
0.518788
0.518788
0.518788
0.518788
0.518788
0.518788
0.518788
0.518788
0.518788
0.518788
0.518788
0.518788
0.518788
0.518788
0.518788
0.518788
0.518788
0.518585
0.493053
0.585022
0.180688
0.999366
0.999994
0.999538
0.998521
0.995254
0.997876
0.994905
0.99271
0.994092
0.995294
0.995519
0.987482
0.988433
0.995368
0.984607
0.991035
0.994627
0.993613
0.996776
0.876249
0.995435
0.995795
0.995144
0.990866
0.948373
0.995211
0.996141
0.996345
0.995134
0.994101
0.903147
0.996372
0.999004
0.999439
0.999872
0.518788
0.518788
0.518788
0.518788
0.518788
0.518788
0.518788
0.518788
0.518788
0.518788
0.518788
0.518788
0.518788
0.518788
0.518788
0.518788
0.518788
0.518788
0.518788
0.518788
0.518788
0.518788
0.518788
0.518788
0.518788
0.518788
0.518788
0.518788
0.518788
0.518788
0.518788
0.518788
0.518788
0.518788
0.518788
0.518788
0.518788
0.518788
0.518788
0.518788
0.518788
0.518788
0.518788
0.518788
0.518788
0.518788
0.518788
0.518788
0.518788
0.518788
0.518788
0.518788
0.518788
0.518788
0.518788
0.518788
0.518787
0.518794
0.515285
0.479968
0.097862
0.986121
0.999994
0.999806
0.999873
0.997586
0.967858
0.995114
0.996647
0.996581
0.992606
0.974478
0.977379
0.994334
0.996949
0.997137
0.98857
0.996365
0.973642
0.994078
0.995867
0.995639
0.993458
0.983387
0.986273
0.997016
0.998302
0.997856
0.995209
0.948318
0.944284
0.993502
0.998474
0.999169
0.999326
0.999867
0.518788
0.518788
0.518788
0.518788
0.518788
0.518788
0.518788
0.518788
0.518788
0.518788
0.518788
0.518788
0.518788
0.518788
0.518788
0.518788
0.518788
0.518788
0.518788
0.518788
0.518788
0.518788
0.518788
0.518788
0.518788
0.518788
0.518788
0.518788
0.518788
0.518788
0.518788
0.518788
0.518788
0.518788
0.518788
0.518788
0.518788
0.518788
0.518788
0.518788
0.518788
0.518788
0.518788
0.518788
0.518788
0.518788
0.518788
0.518788
0.518788
0.518788
0.518788
0.518788
0.518788
0.518788
0.518788
0.518788
0.518786
0.518795
0.518765
0.517409
0.791148
0.990736
0.996028
0.999876
0.999991
0.999992
0.999574
0.999754
0.999781
0.999726
0.999794
0.999847
0.99986
0.999818
0.999628
0.997919
0.996447
0.998409
0.998993
0.996256
0.990963
0.999172
0.998715
0.998416
0.997893
0.998344
0.998521
0.999113
0.995289
0.993104
0.995671
0.997982
0.998785
0.999018
0.999098
0.999869
0.518788
0.518788
0.518788
0.518788
0.518788
0.518788
0.518788
0.518788
0.518788
0.518788
0.518788
0.518788
0.518788
0.518788
0.518788
0.518788
0.518788
0.518788
0.518788
0.518788
0.518788
0.518788
0.518788
0.518788
0.518788
0.518788
0.518788
0.518788
0.518788
0.518788
0.518788
0.518788
0.518788
0.518788
0.518788
0.518788
0.518788
0.518788
0.518788
0.518788
0.518788
0.518788
0.518788
0.518788
0.518788
0.518788
0.518788
0.518788
0.518788
0.518788
0.518788
0.518788
0.518788
0.518788
0.518788
0.518788
0.518788
0.518787
0.518773
0.491049
0.764106
0.95087
0.869185
0.974721
0.828624
0.814167
0.987692
0.963244
0.000268807
0.986551
0.932546
0.839919
0.964683
0.974319
0.953948
0.553374
6.13411e-06
0.438627
0.958317
0.997916
0.990836
0.998638
0.991743
0.993452
0.904663
0.996374
0.999849
0.999986
0.999992
0.999664
0.999604
0.997651
0.998995
0.998911
0.999709
0.999831
0.518788
0.518788
0.518788
0.518788
0.518788
0.518788
0.518788
0.518788
0.518788
0.518788
0.518788
0.518788
0.518788
0.518788
0.518788
0.518788
0.518788
0.518788
0.518788
0.518788
0.518788
0.518788
0.518788
0.518788
0.518788
0.518788
0.518788
0.518788
0.518788
0.518788
0.518788
0.518788
0.518788
0.518788
0.518788
0.518788
0.518788
0.518788
0.518788
0.518788
0.518788
0.518788
0.518788
0.518788
0.518788
0.518788
0.518788
0.518788
0.518788
0.518788
0.518788
0.518788
0.518788
0.518788
0.518788
0.518788
0.518788
0.518787
0.520611
0.426735
0.94567
0.00130367
0.104746
0.935237
2.21821e-07
0.153907
0.00526741
0.357795
0.929876
5.84722e-05
0.101497
0.601052
0.0759399
0.102112
0.000290947
0.122134
0.00116987
0.145069
0.888997
0.621045
0.556866
0.587028
0.452707
0.406856
0.703037
0.917463
0.915723
0.965102
0.982059
1.45421e-08
0.999926
0.999995
0.999996
5.32131e-09
0.98541
0.999969
0.518788
0.518788
0.518788
0.518788
0.518788
0.518788
0.518788
0.518788
0.518788
0.518788
0.518788
0.518788
0.518788
0.518788
0.518788
0.518788
0.518788
0.518788
0.518788
0.518788
0.518788
0.518788
0.518788
0.518788
0.518788
0.518788
0.518788
0.518788
0.518788
0.518788
0.518788
0.518788
0.518788
0.518788
0.518788
0.518788
0.518788
0.518788
0.518788
0.518788
0.518788
0.518788
0.518788
0.518788
0.518788
0.518788
0.518788
0.518788
0.518788
0.518788
0.518788
0.518788
0.518788
0.518788
0.518788
0.518788
0.518787
0.518792
0.518676
0.448141
0.918998
0.146427
0.14625
0.144506
0.0329503
0.0406039
1.84985e-06
0.239854
0.595808
0.608969
0.524328
0.707923
0.00580752
0.293423
0.023106
0.476723
0.0924133
0.0171888
0.129415
4.38542e-06
0.0014268
0.0156837
0.219515
0.0869183
0.14521
6.83177e-05
0.114955
0.632528
0.401516
0.00152541
0.00449229
0.199867
0.000832329
0.0137208
1.58329e-06
0.0863667
0.518788
0.518788
0.518788
0.518788
0.518788
0.518788
0.518788
0.518788
0.518788
0.518788
0.518788
0.518788
0.518788
0.518788
0.518788
0.518788
0.518788
0.518788
0.518788
0.518788
0.518788
0.518788
0.518788
0.518788
0.518788
0.518788
0.518788
0.518788
0.518788
0.518788
0.518788
0.518788
0.518788
0.518788
0.518788
0.518788
0.518788
0.518788
0.518788
0.518788
0.518788
0.518788
0.518788
0.518788
0.518788
0.518788
0.518788
0.518788
0.518788
0.518788
0.518788
0.518788
0.518788
0.518788
0.518788
0.518788
0.518811
0.519603
0.516912
0.449582
0.973175
2.55838e-06
0.300069
0.936532
1.3887e-07
0.39708
0.925421
0.756318
0.100837
0.00253164
0.597012
0.667638
0.81314
0.229179
3.89661e-06
0.170974
0.937089
0.00168845
0.169052
0.56079
0.940726
7.18862e-06
0.00885015
1.86463e-09
0.885575
0.733256
0.803057
0.894875
0.851807
0.851334
0.853735
0.843273
0.851048
0.977257
0.0142096
0.999968
0.518788
0.518788
0.518788
0.518788
0.518788
0.518788
0.518788
0.518788
0.518788
0.518788
0.518788
0.518788
0.518788
0.518788
0.518788
0.518788
0.518788
0.518788
0.518788
0.518788
0.518788
0.518788
0.518788
0.518788
0.518788
0.518788
0.518788
0.518788
0.518788
0.518788
0.518788
0.518788
0.518788
0.518788
0.518788
0.518788
0.518788
0.518788
0.518788
0.518788
0.518788
0.518788
0.518788
0.518788
0.518788
0.518788
0.518788
0.518788
0.518788
0.518788
0.518788
0.518788
0.518788
0.518788
0.518788
0.518788
0.518787
0.518805
0.517589
0.423358
0.936856
0.978934
0.649594
0.969385
3.95666e-05
0.022963
0.872724
0.838699
0.0211594
0.781718
0.739772
0.933804
0.909981
0.963314
0.978623
0.973447
0.987418
0.0865596
0.999935
0.999989
0.999996
8.13533e-09
0.999899
0.999886
1.03472e-10
2.77522e-09
0.999953
0.99984
0.999443
0.999669
0.999461
0.999577
0.999374
0.999719
0.99982
0.999889
0.518788
0.518788
0.518788
0.518788
0.518788
0.518788
0.518788
0.518788
0.518788
0.518788
0.518788
0.518788
0.518788
0.518788
0.518788
0.518788
0.518788
0.518788
0.518788
0.518788
0.518788
0.518788
0.518788
0.518788
0.518788
0.518788
0.518788
0.518788
0.518788
0.518788
0.518788
0.518788
0.518788
0.518788
0.518788
0.518788
0.518788
0.518788
0.518788
0.518788
0.518788
0.518788
0.518788
0.518788
0.518788
0.518788
0.518788
0.518788
0.518788
0.518788
0.518788
0.518788
0.518788
0.518788
0.518788
0.518788
0.518787
0.520056
0.461545
0.439249
0.854268
0.999008
0.996853
0.996542
0.998985
0.993926
0.996047
0.995586
0.989545
0.993019
0.999311
0.999797
0.999954
0.99999
0.999989
0.999612
0.999616
0.999467
0.999262
0.998703
0.993744
0.996203
0.997682
0.998274
0.99825
0.998245
0.997825
0.992792
0.996661
0.992031
0.996969
0.98353
0.993219
0.930798
0.990186
0.999853
0.518788
0.518788
0.518788
0.518788
0.518788
0.518788
0.518788
0.518788
0.518788
0.518788
0.518788
0.518788
0.518788
0.518788
0.518788
0.518788
0.518788
0.518788
0.518788
0.518788
0.518788
0.518788
0.518788
0.518788
0.518788
0.518788
0.518788
0.518788
0.518788
0.518788
0.518788
0.518788
0.518788
0.518788
0.518788
0.518788
0.518788
0.518788
0.518788
0.518788
0.518788
0.518788
0.518788
0.518788
0.518788
0.518788
0.518788
0.518788
0.518788
0.518788
0.518788
0.518788
0.518788
0.518788
0.518788
0.518788
0.518788
0.518764
0.520337
0.492206
0.820274
0.999811
0.999997
0.9998
0.999044
0.999829
0.999849
0.999764
0.999766
0.999725
0.999774
0.999777
0.999545
0.998454
0.99917
0.998941
0.996674
0.983384
0.991804
0.99496
0.997194
0.998132
0.997993
0.996219
0.995638
0.996874
0.998198
0.998001
0.995773
0.997094
0.991428
0.998124
0.99869
0.988685
0.998867
0.999874
0.518788
0.518788
0.518788
0.518788
0.518788
0.518788
0.518788
0.518788
0.518788
0.518788
0.518788
0.518788
0.518788
0.518788
0.518788
0.518788
0.518788
0.518788
0.518788
0.518788
0.518788
0.518788
0.518788
0.518788
0.518788
0.518788
0.518788
0.518788
0.518788
0.518788
0.518788
0.518788
0.518788
0.518788
0.518788
0.518788
0.518788
0.518788
0.518788
0.518788
0.518788
0.518788
0.518788
0.518788
0.518788
0.518788
0.518788
0.518788
0.518788
0.518788
0.518788
0.518788
0.518788
0.518788
0.518788
0.518788
0.518787
0.518786
0.518744
0.391173
0.880017
0.999426
0.999997
0.999706
0.999265
0.999043
0.989412
0.996623
0.995664
0.9941
0.99223
0.967906
0.995722
0.994191
0.980129
0.928466
0.987196
0.996061
0.997175
0.997476
0.997766
0.997483
0.996452
0.994412
0.990787
0.995492
0.99719
0.997767
0.997503
0.995365
0.997471
0.997439
0.994763
0.994652
0.998209
0.999871
0.518788
0.518788
0.518788
0.518788
0.518788
0.518788
0.518788
0.518788
0.518788
0.518788
0.518788
0.518788
0.518788
0.518788
0.518788
0.518788
0.518788
0.518788
0.518788
0.518788
0.518788
0.518788
0.518788
0.518788
0.518788
0.518788
0.518788
0.518788
0.518788
0.518788
0.518788
0.518788
0.518788
0.518788
0.518788
0.518788
0.518788
0.518788
0.518788
0.518788
0.518788
0.518788
0.518788
0.518788
0.518788
0.518788
0.518788
0.518788
0.518788
0.518788
0.518788
0.518788
0.518788
0.518788
0.518788
0.518788
0.518786
0.518785
0.518723
0.445182
0.846998
0.999578
0.999997
0.999814
0.999532
0.999128
0.999158
0.99776
0.992964
0.98929
0.957345
0.990243
0.986373
0.986118
0.983261
0.928288
0.957795
0.981435
0.989303
0.991637
0.995493
0.99424
0.991146
0.95452
0.992627
0.996284
0.996827
0.998137
0.996728
0.996179
0.996515
0.996486
0.993049
0.96558
0.99927
0.999881
0.518788
0.518788
0.518788
0.518788
0.518788
0.518788
0.518788
0.518788
0.518788
0.518788
0.518788
0.518788
0.518788
0.518788
0.518788
0.518788
0.518788
0.518788
0.518788
0.518788
0.518788
0.518788
0.518788
0.518788
0.518788
0.518788
0.518788
0.518788
0.518788
0.518788
0.518788
0.518788
0.518788
0.518788
0.518788
0.518788
0.518788
0.518788
0.518788
0.518788
0.518788
0.518788
0.518788
0.518788
0.518788
0.518788
0.518788
0.518788
0.518788
0.518788
0.518788
0.518788
0.518788
0.518788
0.518788
0.518788
0.518785
0.518785
0.515866
0.401096
0.892923
0.999145
0.999997
0.999751
0.999642
0.998791
0.997802
0.723501
0.988414
0.992926
0.996494
0.996028
0.994955
0.987837
0.968084
0.915766
0.97499
0.931316
0.986504
0.990241
0.994828
0.868481
0.995614
0.998471
0.998092
0.99668
0.964963
0.973789
0.995765
0.983487
0.997006
0.998184
0.99479
0.996973
0.999044
0.999858
0.518788
0.518788
0.518788
0.518788
0.518788
0.518788
0.518788
0.518788
0.518788
0.518788
0.518788
0.518788
0.518788
0.518788
0.518788
0.518788
0.518788
0.518788
0.518788
0.518788
0.518788
0.518788
0.518788
0.518788
0.518788
0.518788
0.518788
0.518788
0.518788
0.518788
0.518788
0.518788
0.518788
0.518788
0.518788
0.518788
0.518788
0.518788
0.518788
0.518788
0.518788
0.518788
0.518788
0.518788
0.518788
0.518788
0.518788
0.518788
0.518788
0.518788
0.518788
0.518788
0.518788
0.518788
0.518788
0.518788
0.518786
0.518782
0.522668
0.446851
0.821368
0.0391229
0.999997
0.99947
0.995766
0.999099
0.998061
0.998901
0.99829
0.997159
0.997096
0.996973
0.996893
0.99587
0.995631
0.994494
0.994827
0.995496
0.994172
0.990392
0.938512
0.988537
0.995354
0.997849
0.995637
0.98776
0.998072
0.994301
0.989249
0.997282
0.998456
0.998478
0.992192
0.990919
0.999208
0.999875
0.518788
0.518788
0.518788
0.518788
0.518788
0.518788
0.518788
0.518788
0.518788
0.518788
0.518788
0.518788
0.518788
0.518788
0.518788
0.518788
0.518788
0.518788
0.518788
0.518788
0.518788
0.518788
0.518788
0.518788
0.518788
0.518788
0.518788
0.518788
0.518788
0.518788
0.518788
0.518788
0.518788
0.518788
0.518788
0.518788
0.518788
0.518788
0.518788
0.518788
0.518788
0.518788
0.518788
0.518788
0.518788
0.518788
0.518788
0.518788
0.518788
0.518788
0.518788
0.518788
0.518788
0.518788
0.518788
0.518788
0.518787
0.516878
0.464541
0.478196
0.819989
0.998252
0.999993
0.995701
0.998941
0.978256
0.987825
0.982088
0.992652
0.99253
0.989779
0.985414
0.980052
0.967142
0.953454
2.85656e-05
0.98627
0.987017
0.984374
0.93317
0.962906
0.985561
0.983636
0.00748909
0.802284
0.0785773
0.0334772
0.920831
0.982525
0.986945
0.987542
0.970278
0.991377
0.994181
0.999212
0.999877
0.518788
0.518788
0.518788
0.518788
0.518788
0.518788
0.518788
0.518788
0.518788
0.518788
0.518788
0.518788
0.518788
0.518788
0.518788
0.518788
0.518788
0.518788
0.518788
0.518788
0.518788
0.518788
0.518788
0.518788
0.518788
0.518788
0.518788
0.518788
0.518788
0.518788
0.518788
0.518788
0.518788
0.518788
0.518788
0.518788
0.518788
0.518788
0.518788
0.518788
0.518788
0.518788
0.518788
0.518788
0.518788
0.518788
0.518788
0.518788
0.518788
0.518788
0.518788
0.518788
0.518788
0.518788
0.518788
0.518788
0.518786
0.51874
0.519368
0.460736
0.876722
0.99979
0.999994
0.999401
0.998371
0.998232
0.91235
0.981924
0.99444
0.994773
0.993608
0.991845
0.990875
0.988346
0.983527
0.788783
0.99343
0.994555
0.992206
0.977647
0.952062
0.993245
0.992639
0.142032
0.987838
0.993356
0.994144
0.992213
0.988409
0.953749
0.931685
0.963024
0.992431
0.985111
0.999167
0.999874
0.518788
0.518788
0.518788
0.518788
0.518788
0.518788
0.518788
0.518788
0.518788
0.518788
0.518788
0.518788
0.518788
0.518788
0.518788
0.518788
0.518788
0.518788
0.518788
0.518788
0.518788
0.518788
0.518788
0.518788
0.518788
0.518788
0.518788
0.518788
0.518788
0.518788
0.518788
0.518788
0.518788
0.518788
0.518788
0.518788
0.518788
0.518788
0.518788
0.518788
0.518788
0.518788
0.518788
0.518788
0.518788
0.518788
0.518788
0.518788
0.518788
0.518788
0.518788
0.518788
0.518788
0.518788
0.518788
0.518788
0.518787
0.518783
0.530251
0.440778
0.869608
0.999991
0.999984
0.999973
0.999042
0.985552
0.997236
0.986584
0.98245
0.994026
0.994534
0.994129
0.989812
0.989546
0.989987
0.856877
0.99322
0.996115
0.970721
0.997177
0.996575
0.980781
0.995882
0.996113
0.998089
0.997691
0.995073
0.984492
0.994093
0.987276
0.995792
0.992189
0.979762
0.993626
0.999278
0.999876
0.518788
0.518788
0.518788
0.518788
0.518788
0.518788
0.518788
0.518788
0.518788
0.518788
0.518788
0.518788
0.518788
0.518788
0.518788
0.518788
0.518788
0.518788
0.518788
0.518788
0.518788
0.518788
0.518788
0.518788
0.518788
0.518788
0.518788
0.518788
0.518788
0.518788
0.518788
0.518788
0.518788
0.518788
0.518788
0.518788
0.518788
0.518788
0.518788
0.518788
0.518788
0.518788
0.518788
0.518788
0.518788
0.518788
0.518788
0.518788
0.518788
0.518788
0.518788
0.518788
0.518788
0.518788
0.518788
0.518788
0.518787
0.518787
0.517141
0.506935
0.421116
0.999983
0.999953
0.999991
0.999588
0.999468
0.997711
0.998892
0.999204
0.999037
0.998214
0.998393
0.998958
0.999358
0.999335
0.996511
0.999633
0.999661
0.99971
0.999619
0.999449
0.999109
0.995773
0.995234
0.998485
0.998528
0.973862
0.998597
0.997567
0.972722
0.976675
0.982023
0.993605
0.996689
0.999332
0.99988
0.518788
0.518788
0.518788
0.518788
0.518788
0.518788
0.518788
0.518788
0.518788
0.518788
0.518788
0.518788
0.518788
0.518788
0.518788
0.518788
0.518788
0.518788
0.518788
0.518788
0.518788
0.518788
0.518788
0.518788
0.518788
0.518788
0.518788
0.518788
0.518788
0.518788
0.518788
0.518788
0.518788
0.518788
0.518788
0.518788
0.518788
0.518788
0.518788
0.518788
0.518788
0.518788
0.518788
0.518788
0.518788
0.518788
0.518788
0.518788
0.518788
0.518788
0.518788
0.518788
0.518788
0.518788
0.518788
0.518788
0.518787
0.518773
0.518617
0.451398
0.802734
7.07096e-05
0.000892021
0.959332
0.996079
0.992672
0.997252
0.995728
0.996866
0.994491
0.993999
0.99758
0.973537
0.996086
0.996979
0.998286
0.998382
0.99656
0.976895
0.985515
0.997159
0.999443
1.16658e-08
0.999952
0.999992
0.999991
0.999728
0.999831
0.999758
0.995625
0.981708
0.993933
0.99379
0.997588
0.99938
0.999883
0.518788
0.518788
0.518788
0.518788
0.518788
0.518788
0.518788
0.518788
0.518788
0.518788
0.518788
0.518788
0.518788
0.518788
0.518788
0.518788
0.518788
0.518788
0.518788
0.518788
0.518788
0.518788
0.518788
0.518788
0.518788
0.518788
0.518788
0.518788
0.518788
0.518788
0.518788
0.518788
0.518788
0.518788
0.518788
0.518788
0.518788
0.518788
0.518788
0.518788
0.518788
0.518788
0.518788
0.518788
0.518788
0.518788
0.518788
0.518788
0.518788
0.518788
0.518788
0.518788
0.518788
0.518788
0.518789
0.518788
0.51879
0.518807
0.518964
0.418619
6.49303e-11
7.19082e-07
0.0199567
0.0174494
0.557236
0.750641
0.486707
0.138894
0.146427
0.143755
0.607847
0.201367
0.000981212
0.813909
0.717097
0.650707
3.22652e-05
3.84364e-05
0.0559661
7.51644e-05
3.58565e-06
0.736136
0.146056
0.816005
0.0411546
0.000108573
0.000317558
0.999068
1.16343e-11
0.999851
0.998895
0.995429
0.999723
0.999722
0.999855
0.999945
0.518788
0.518788
0.518788
0.518788
0.518788
0.518788
0.518788
0.518788
0.518788
0.518788
0.518788
0.518788
0.518788
0.518788
0.518788
0.518788
0.518788
0.518788
0.518788
0.518788
0.518788
0.518788
0.518788
0.518788
0.518788
0.518788
0.518788
0.518788
0.518788
0.518788
0.518788
0.518788
0.518788
0.518788
0.518788
0.518788
0.518788
0.518788
0.518788
0.518788
0.518788
0.518788
0.518788
0.518788
0.518788
0.518788
0.518788
0.518788
0.518788
0.518788
0.518788
0.518788
0.518788
0.518788
0.518788
0.518787
0.518787
0.518692
0.494733
0.390401
0.867232
0.48105
6.63855e-05
0.477332
0.349686
0.530999
0.626049
0.16199
0.597261
0.00543457
0.488188
0.647014
0.0173234
0.000297324
0.0429397
0.459093
0.37343
0.648016
0.41882
0.460209
0.329825
0.37089
0.298505
0.589534
0.669114
0.489082
0.584132
0.599944
0.0475593
0.337766
5.58441e-05
0.392322
0.504383
0.929297
0.851345
0.995317
0.518788
0.518788
0.518788
0.518788
0.518788
0.518788
0.518788
0.518788
0.518788
0.518788
0.518788
0.518788
0.518788
0.518788
0.518788
0.518788
0.518788
0.518788
0.518788
0.518788
0.518788
0.518788
0.518788
0.518788
0.518788
0.518788
0.518788
0.518788
0.518788
0.518788
0.518788
0.518788
0.518788
0.518788
0.518788
0.518788
0.518788
0.518788
0.518788
0.518788
0.518788
0.518788
0.518788
0.518788
0.518788
0.518788
0.518788
0.518788
0.518788
0.518788
0.518788
0.518788
0.518788
0.518788
0.518788
0.518788
0.518788
0.518708
0.513415
0.409082
1.72614e-05
1.29668e-05
0.0983605
0.492384
0.122936
0.807636
0.678715
0.16065
0.50356
0.710272
0.37525
0.593349
0.48103
0.473791
0.523721
0.501168
0.516235
3.35147e-16
4.42607e-07
8.84146e-06
0.319003
0.750004
0.544581
0.702689
2.03264e-07
0.000360009
0.171143
0.119208
0.000613016
0.536292
0.556257
0.59516
0.71652
0.000714743
1.29207e-06
1.19834e-05
0.518788
0.518788
0.518788
0.518788
0.518788
0.518788
0.518788
0.518788
0.518788
0.518788
0.518788
0.518788
0.518788
0.518788
0.518788
0.518788
0.518788
0.518788
0.518788
0.518788
0.518788
0.518788
0.518788
0.518788
0.518788
0.518788
0.518788
0.518788
0.518788
0.518788
0.518788
0.518788
0.518788
0.518788
0.518788
0.518788
0.518788
0.518788
0.518788
0.518788
0.518788
0.518788
0.518788
0.518788
0.518788
0.518788
0.518788
0.518788
0.518788
0.518788
0.518788
0.518788
0.518788
0.518788
0.518788
0.518788
0.518788
0.51864
0.515758
0.442173
0.618786
0.0518274
0.144919
0.00121772
0.0198822
6.04401e-05
0.618048
0.347538
0.466389
0.265997
0.635611
0.362097
0.443093
0.475886
0.444246
0.209908
0.761893
0.744069
0.000781332
0.114949
0.567197
0.513019
0.0366493
0.0328248
0.000343654
0.0969088
0.0749599
0.368928
3.22725e-05
0.479046
0.671064
0.860631
0.873921
0.933368
0.965565
0.999554
0.518788
0.518788
0.518788
0.518788
0.518788
0.518788
0.518788
0.518788
0.518788
0.518788
0.518788
0.518788
0.518788
0.518788
0.518788
0.518788
0.518788
0.518788
0.518788
0.518788
0.518788
0.518788
0.518788
0.518788
0.518788
0.518788
0.518788
0.518788
0.518788
0.518788
0.518788
0.518788
0.518788
0.518788
0.518788
0.518788
0.518788
0.518788
0.518788
0.518788
0.518788
0.518788
0.518788
0.518788
0.518788
0.518788
0.518788
0.518788
0.518788
0.518788
0.518788
0.518788
0.518788
0.518788
0.518788
0.518788
0.518788
0.518825
0.519281
0.447665
0.981808
0.149717
0.53731
0.940348
0.0758944
0.952137
0.980657
0.96961
0.138044
1.50669e-08
0.312052
0.0687228
0.996389
0.998802
0.853078
0.998992
0.999035
0.992447
0.996326
0.85661
0.998817
0.994695
0.998586
0.998679
0.998958
0.999808
0.999961
0.999995
0.999893
0.9999
0.999876
0.999891
0.999918
0.999931
0.999952
0.999957
0.518788
0.518788
0.518788
0.518788
0.518788
0.518788
0.518788
0.518788
0.518788
0.518788
0.518788
0.518788
0.518788
0.518788
0.518788
0.518788
0.518788
0.518788
0.518788
0.518788
0.518788
0.518788
0.518788
0.518788
0.518788
0.518788
0.518788
0.518788
0.518788
0.518788
0.518788
0.518788
0.518788
0.518788
0.518788
0.518788
0.518788
0.518788
0.518788
0.518788
0.518788
0.518788
0.518788
0.518788
0.518788
0.518788
0.518788
0.518788
0.518788
0.518788
0.518788
0.518788
0.518788
0.518788
0.518788
0.518788
0.518788
0.518788
0.529925
0.422893
0.777922
0.999989
0.999956
0.999535
0.99892
0.999571
0.999924
0.999988
0.999991
0.999365
0.999009
0.99931
0.999577
0.999336
0.999529
0.999641
0.999626
0.999617
0.99955
0.999565
0.999688
0.999702
0.999643
0.998889
0.999441
0.999765
0.999833
0.998331
0.993186
0.859804
0.998526
0.99835
0.998248
0.991135
0.997748
0.999851
0.518788
0.518788
0.518788
0.518788
0.518788
0.518788
0.518788
0.518788
0.518788
0.518788
0.518788
0.518788
0.518788
0.518788
0.518788
0.518788
0.518788
0.518788
0.518788
0.518788
0.518788
0.518788
0.518788
0.518788
0.518788
0.518788
0.518788
0.518788
0.518788
0.518788
0.518788
0.518788
0.518788
0.518788
0.518788
0.518788
0.518788
0.518788
0.518788
0.518788
0.518788
0.518788
0.518788
0.518788
0.518788
0.518788
0.518788
0.518788
0.518788
0.518788
0.518788
0.518788
0.518788
0.518788
0.518788
0.518788
0.518787
0.518786
0.522981
0.46274
0.155308
8.30567e-08
0.999608
0.999982
0.998502
0.999552
0.999488
0.996612
0.997434
0.99566
0.994476
0.998386
0.996442
0.997237
0.998664
0.998958
0.998685
0.997694
0.991838
0.978375
0.985108
0.98737
0.990876
0.99634
0.998123
0.998385
0.995649
0.98082
0.998311
0.998384
0.995416
0.999298
0.998903
0.997392
0.998654
0.999878
0.518788
0.518788
0.518788
0.518788
0.518788
0.518788
0.518788
0.518788
0.518788
0.518788
0.518788
0.518788
0.518788
0.518788
0.518788
0.518788
0.518788
0.518788
0.518788
0.518788
0.518788
0.518788
0.518788
0.518788
0.518788
0.518788
0.518788
0.518788
0.518788
0.518788
0.518788
0.518788
0.518788
0.518788
0.518788
0.518788
0.518788
0.518788
0.518788
0.518788
0.518788
0.518788
0.518788
0.518788
0.518788
0.518788
0.518788
0.518788
0.518788
0.518788
0.518788
0.518788
0.518788
0.518788
0.518788
0.518788
0.518787
0.51879
0.518511
0.440005
0.662135
0.99654
0.997886
0.999641
0.998243
0.996051
0.997568
0.994333
0.995909
0.997358
0.997683
0.996749
0.993119
0.988215
0.958087
0.985605
0.964408
0.897624
0.98289
0.981187
0.975007
0.990905
0.994578
0.996827
0.99865
0.998454
0.991251
0.994872
0.996181
0.996085
0.995888
0.985893
0.999349
0.998754
0.997919
0.999874
0.518788
0.518788
0.518788
0.518788
0.518788
0.518788
0.518788
0.518788
0.518788
0.518788
0.518788
0.518788
0.518788
0.518788
0.518788
0.518788
0.518788
0.518788
0.518788
0.518788
0.518788
0.518788
0.518788
0.518788
0.518788
0.518788
0.518788
0.518788
0.518788
0.518788
0.518788
0.518788
0.518788
0.518788
0.518788
0.518788
0.518788
0.518788
0.518788
0.518788
0.518788
0.518788
0.518788
0.518788
0.518788
0.518788
0.518788
0.518788
0.518788
0.518788
0.518788
0.518788
0.518788
0.518788
0.518788
0.518788
0.518786
0.518825
0.516338
0.464341
0.352673
0.999948
0.999494
0.99979
0.999299
0.998266
0.997498
0.992721
0.978298
0.977894
0.969532
0.964578
0.992282
0.994184
0.994538
0.994009
0.994969
0.990038
0.946332
0.979228
0.996104
0.99795
0.998313
0.998701
0.999245
0.999105
0.996336
0.998703
0.999367
0.998954
0.945992
0.996735
0.996637
0.998856
0.999193
0.999871
0.518788
0.518788
0.518788
0.518788
0.518788
0.518788
0.518788
0.518788
0.518788
0.518788
0.518788
0.518788
0.518788
0.518788
0.518788
0.518788
0.518788
0.518788
0.518788
0.518788
0.518788
0.518788
0.518788
0.518788
0.518788
0.518788
0.518788
0.518788
0.518788
0.518788
0.518788
0.518788
0.518788
0.518788
0.518788
0.518788
0.518788
0.518788
0.518788
0.518788
0.518788
0.518788
0.518788
0.518788
0.518788
0.518788
0.518788
0.518788
0.518788
0.518788
0.518788
0.518788
0.518788
0.518788
0.518788
0.518788
0.518785
0.51821
0.481861
0.634976
0.397237
0.998463
0.999997
0.999807
0.999545
0.998855
0.993761
0.997048
0.996978
0.987437
0.979452
0.981324
0.977785
0.992322
0.993995
0.993858
0.994408
0.993335
0.994834
0.996764
0.997712
0.996759
0.962375
0.984636
0.998913
0.992112
0.998651
0.996363
0.998823
0.999275
0.999003
0.996447
0.996781
0.997706
0.997666
0.999847
0.518788
0.518788
0.518788
0.518788
0.518788
0.518788
0.518788
0.518788
0.518788
0.518788
0.518788
0.518788
0.518788
0.518788
0.518788
0.518788
0.518788
0.518788
0.518788
0.518788
0.518788
0.518788
0.518788
0.518788
0.518788
0.518788
0.518788
0.518788
0.518788
0.518788
0.518788
0.518788
0.518788
0.518788
0.518788
0.518788
0.518788
0.518788
0.518788
0.518788
0.518788
0.518788
0.518788
0.518788
0.518788
0.518788
0.518788
0.518788
0.518788
0.518788
0.518788
0.518788
0.518788
0.518788
0.518788
0.518788
0.518786
0.518625
0.512207
0.401278
0.809639
0.968742
0.999993
0.999862
0.998878
0.99921
0.997389
0.917156
0.988938
0.99476
0.993385
0.984849
0.956768
0.986058
0.992719
0.99426
0.995969
0.995935
0.996007
0.980176
0.98476
0.993032
0.986397
0.996892
0.999278
0.98432
0.998198
0.992615
0.998051
0.998204
0.996384
0.997333
0.9628
0.994869
0.998715
0.999867
0.518788
0.518788
0.518788
0.518788
0.518788
0.518788
0.518788
0.518788
0.518788
0.518788
0.518788
0.518788
0.518788
0.518788
0.518788
0.518788
0.518788
0.518788
0.518788
0.518788
0.518788
0.518788
0.518788
0.518788
0.518788
0.518788
0.518788
0.518788
0.518788
0.518788
0.518788
0.518788
0.518788
0.518788
0.518788
0.518788
0.518788
0.518788
0.518788
0.518788
0.518788
0.518788
0.518788
0.518788
0.518788
0.518788
0.518788
0.518788
0.518788
0.518788
0.518788
0.518788
0.518788
0.518788
0.518788
0.518788
0.518785
0.518775
0.518739
0.386817
0.855123
0.998302
0.999993
0.999978
0.99857
0.992699
0.922363
0.972243
0.992235
0.993775
0.992768
0.99034
0.988023
0.979404
0.964139
0.933206
0.984056
0.990945
0.99076
0.984315
0.989222
0.992566
0.991551
0.986548
0.983406
0.960216
0.964431
0.985837
0.984531
0.934329
0.972077
0.946537
0.916785
0.9933
0.998958
0.999871
0.518788
0.518788
0.518788
0.518788
0.518788
0.518788
0.518788
0.518788
0.518788
0.518788
0.518788
0.518788
0.518788
0.518788
0.518788
0.518788
0.518788
0.518788
0.518788
0.518788
0.518788
0.518788
0.518788
0.518788
0.518788
0.518788
0.518788
0.518788
0.518788
0.518788
0.518788
0.518788
0.518788
0.518788
0.518788
0.518788
0.518788
0.518788
0.518788
0.518788
0.518788
0.518788
0.518788
0.518788
0.518788
0.518788
0.518788
0.518788
0.518788
0.518788
0.518788
0.518788
0.518788
0.518788
0.518788
0.518788
0.518786
0.518779