/*--------------------------------*- C++ -*----------------------------------*\
| =========                 |                                                 |
| \\      /  F ield         | OpenFOAM: The Open Source CFD Toolbox           |
|  \\    /   O peration     | Version:  2.3.0                                 |
|   \\  /    A nd           | Web:      www.OpenFOAM.org                      |
|    \\/     M anipulation  |                                                 |
\*---------------------------------------------------------------------------*/
FoamFile
{
    version     2.0;
    format      ascii;
    class       volScalarField;
    location    "12";
    object      dsauterMean;
}
// * * * * * * * * * * * * * * * * * * * * * * * * * * * * * * * * * * * * * //

dimensions      [0 0 0 0 0 0 0];

internalField   nonuniform List<scalar> 
6144
(
0.00833335
0.00833335
0.00833335
0.00833335
0.00833335
0.00833335
0.00833335
0.00833335
0.00833335
0.00833335
0.00833335
0.00833335
0.00833335
0.00833335
0.00833335
0.00833335
0.00833335
0.00833335
0.00833335
0.00833335
0.00833335
0.00833335
0.00833335
0.00833335
0.00833335
0.00833335
0.00833335
0.00833335
0.00833335
0.00833335
0.00833335
0.00833335
0.00833335
0.00833335
0.00833335
0.00833335
0.00833335
0.00833335
0.00833335
0.00833335
0.00833335
0.00833335
0.00833335
0.00833335
0.00833335
0.00833335
0.00833335
0.00833335
0.00833335
0.00833335
0.00833335
0.00833335
0.00833335
0.00833335
0.00833335
0.00833335
0.00833335
0.00833328
0.00832495
0.00834451
0.00833779
0.00833296
0.00308782
0.000649107
0.000631731
0.000618017
0.000604293
0.000583715
0.000569983
0.000552852
0.000539116
0.000521959
0.00050824
0.000494515
0.000480798
0.000463637
0.000449922
0.00043619
0.000422473
0.000408931
0.000394022
0.000383564
0.000365042
0.00035833
0.000342638
0.000333277
0.000319391
0.000309598
0.000298763
0.000292111
0.000285248
0.000278389
0.000274962
0.000271527
0.000274935
0.000271585
0.00833335
0.00833335
0.00833335
0.00833335
0.00833335
0.00833335
0.00833335
0.00833335
0.00833335
0.00833335
0.00833335
0.00833335
0.00833335
0.00833335
0.00833335
0.00833335
0.00833335
0.00833335
0.00833335
0.00833335
0.00833335
0.00833335
0.00833335
0.00833335
0.00833335
0.00833335
0.00833335
0.00833335
0.00833335
0.00833335
0.00833335
0.00833335
0.00833335
0.00833335
0.00833335
0.00833335
0.00833335
0.00833335
0.00833335
0.00833335
0.00833335
0.00833335
0.00833335
0.00833335
0.00833335
0.00833335
0.00833335
0.00833335
0.00833335
0.00833335
0.00833335
0.00833335
0.00833335
0.00833335
0.00833335
0.00833335
0.00833335
0.00833314
0.00832497
0.00834338
0.00838591
0.00832992
0.00083071
0.000652339
0.000634928
0.000620819
0.000604207
0.00058714
0.000573495
0.000557158
0.000542804
0.000524913
0.000511566
0.000494446
0.000478441
0.000463208
0.000450467
0.000437838
0.000421002
0.000408602
0.000395882
0.00038104
0.000368574
0.000357334
0.000343623
0.000333539
0.000322987
0.000312695
0.000302409
0.000292111
0.000285252
0.00028182
0.000274117
0.000275281
0.000274991
0.000275025
0.00833335
0.00833335
0.00833335
0.00833335
0.00833335
0.00833335
0.00833335
0.00833335
0.00833335
0.00833335
0.00833335
0.00833335
0.00833335
0.00833335
0.00833335
0.00833335
0.00833335
0.00833335
0.00833335
0.00833335
0.00833335
0.00833335
0.00833335
0.00833335
0.00833335
0.00833335
0.00833335
0.00833335
0.00833335
0.00833335
0.00833335
0.00833335
0.00833335
0.00833335
0.00833335
0.00833335
0.00833335
0.00833335
0.00833335
0.00833335
0.00833335
0.00833335
0.00833335
0.00833335
0.00833335
0.00833335
0.00833335
0.00833335
0.00833335
0.00833335
0.00833335
0.00833335
0.00833335
0.00833335
0.00833335
0.00833335
0.00833335
0.00833335
0.0083337
0.0083598
0.00770581
0.00605525
0.00093019
0.00065349
0.000631237
0.000618019
0.000600469
0.000584339
0.000569995
0.000547401
0.000538047
0.000518586
0.00050864
0.000491949
0.000483289
0.000464413
0.00045019
0.000437056
0.000420237
0.000410356
0.000396212
0.000381305
0.000371016
0.000357278
0.000343337
0.000333286
0.000322987
0.000312697
0.000302405
0.000292112
0.000285674
0.000281478
0.00027502
0.000273339
0.000279292
0.000275266
0.00833335
0.00833335
0.00833335
0.00833335
0.00833335
0.00833335
0.00833335
0.00833335
0.00833335
0.00833335
0.00833335
0.00833335
0.00833335
0.00833335
0.00833335
0.00833335
0.00833335
0.00833335
0.00833335
0.00833335
0.00833335
0.00833335
0.00833335
0.00833335
0.00833335
0.00833335
0.00833335
0.00833335
0.00833335
0.00833335
0.00833335
0.00833335
0.00833335
0.00833335
0.00833335
0.00833335
0.00833335
0.00833335
0.00833335
0.00833335
0.00833335
0.00833335
0.00833335
0.00833335
0.00833335
0.00833335
0.00833335
0.00833335
0.00833335
0.00833335
0.00833335
0.00833335
0.00833335
0.00833335
0.00833335
0.00833335
0.00833335
0.00833335
0.00833061
0.00833622
0.00834902
0.00331125
0.00146537
0.000920003
0.000875285
0.000773155
0.00077843
0.000738088
0.000723692
0.000691128
0.00067291
0.000662589
0.000628306
0.000576853
0.000518527
0.000473939
0.000449914
0.000436168
0.00042086
0.000409218
0.00039507
0.000379655
0.000368544
0.000358204
0.00034281
0.000333262
0.00032299
0.000313214
0.000300951
0.000292111
0.000285266
0.000280656
0.000276292
0.000274949
0.000274957
0.000278389
0.00833335
0.00833335
0.00833335
0.00833335
0.00833335
0.00833335
0.00833335
0.00833335
0.00833335
0.00833335
0.00833335
0.00833335
0.00833335
0.00833335
0.00833335
0.00833335
0.00833335
0.00833335
0.00833335
0.00833335
0.00833335
0.00833335
0.00833335
0.00833335
0.00833335
0.00833335
0.00833335
0.00833335
0.00833335
0.00833335
0.00833335
0.00833335
0.00833335
0.00833335
0.00833335
0.00833335
0.00833335
0.00833335
0.00833335
0.00833335
0.00833335
0.00833335
0.00833335
0.00833335
0.00833335
0.00833335
0.00833335
0.00833335
0.00833335
0.00833335
0.00833335
0.00833335
0.00833335
0.00833335
0.00833335
0.00833335
0.00833335
0.00833335
0.00833331
0.00835391
0.00737792
0.0083248
0.00823034
0.00823948
0.0081666
0.00753002
0.00767919
0.00759265
0.00762836
0.00762872
0.00767451
0.00766985
0.0075501
0.00741874
0.00728316
0.00697243
0.00637715
0.0053232
0.00427005
0.00323726
0.00221398
0.00140622
0.000840254
0.000518526
0.000347
0.00033079
0.000320539
0.000310157
0.000299269
0.00029163
0.00028525
0.000278389
0.000271516
0.000271511
0.000274976
0.000274959
0.00833335
0.00833335
0.00833335
0.00833335
0.00833335
0.00833335
0.00833335
0.00833335
0.00833335
0.00833335
0.00833335
0.00833335
0.00833335
0.00833335
0.00833335
0.00833335
0.00833335
0.00833335
0.00833335
0.00833335
0.00833335
0.00833335
0.00833335
0.00833335
0.00833335
0.00833335
0.00833335
0.00833335
0.00833335
0.00833335
0.00833335
0.00833335
0.00833335
0.00833335
0.00833335
0.00833335
0.00833335
0.00833335
0.00833335
0.00833335
0.00833335
0.00833335
0.00833335
0.00833335
0.00833335
0.00833335
0.00833335
0.00833335
0.00833335
0.00833335
0.00833335
0.00833335
0.00833335
0.00833335
0.00833335
0.00833335
0.00833335
0.00833335
0.00833335
0.00834585
0.00726239
0.00804041
0.00798836
0.00826803
0.00828806
0.00826963
0.00833787
0.00812781
0.00824895
0.0079142
0.00841886
0.00787747
0.0082557
0.00826465
0.00829492
0.0080478
0.00819075
0.0081605
0.00788797
0.00811965
0.00798293
0.0079349
0.0078284
0.00769764
0.0073461
0.00549238
0.00478259
0.00329417
0.00142232
0.000847634
0.000289304
0.000277491
0.00027511
0.000268474
0.000267998
0.000275228
0.00833335
0.00833335
0.00833335
0.00833335
0.00833335
0.00833335
0.00833335
0.00833335
0.00833335
0.00833335
0.00833335
0.00833335
0.00833335
0.00833335
0.00833335
0.00833335
0.00833335
0.00833335
0.00833335
0.00833335
0.00833335
0.00833335
0.00833335
0.00833335
0.00833335
0.00833335
0.00833335
0.00833335
0.00833335
0.00833335
0.00833335
0.00833335
0.00833335
0.00833335
0.00833335
0.00833335
0.00833335
0.00833335
0.00833335
0.00833335
0.00833335
0.00833335
0.00833335
0.00833335
0.00833335
0.00833335
0.00833335
0.00833335
0.00833335
0.00833335
0.00833335
0.00833335
0.00833335
0.00833335
0.00833335
0.00833335
0.00833335
0.00833334
0.00833355
0.00833325
0.00833165
0.00912092
0.00616034
0.00834552
0.00817846
0.00790511
0.00826178
0.00716084
0.00793614
0.00768635
0.00800175
0.00774774
0.00814799
0.00786507
0.00814751
0.00794704
0.00874181
0.00712778
0.00821214
0.00839724
0.00786332
0.00844099
0.00829585
0.00826478
0.0082341
0.00777645
0.00801546
0.00825969
0.00819842
0.00800399
0.00805969
0.00814567
0.00749936
0.00662901
0.00472359
0.00389132
0.00833335
0.00833335
0.00833335
0.00833335
0.00833335
0.00833335
0.00833335
0.00833335
0.00833335
0.00833335
0.00833335
0.00833335
0.00833335
0.00833335
0.00833335
0.00833335
0.00833335
0.00833335
0.00833335
0.00833335
0.00833335
0.00833335
0.00833335
0.00833335
0.00833335
0.00833335
0.00833335
0.00833335
0.00833335
0.00833335
0.00833335
0.00833335
0.00833335
0.00833335
0.00833335
0.00833335
0.00833335
0.00833335
0.00833335
0.00833335
0.00833335
0.00833335
0.00833335
0.00833335
0.00833335
0.00833335
0.00833335
0.00833335
0.00833335
0.00833335
0.00833335
0.00833335
0.00833335
0.00833335
0.00833335
0.00833335
0.00833335
0.00833336
0.00833331
0.00833349
0.00831246
0.00837561
0.00832924
0.00830796
0.00833596
0.008219
0.00801482
0.00885917
0.00816468
0.00840397
0.00817921
0.00831945
0.00832573
0.0083328
0.00841978
0.00843539
0.00794843
0.00831612
0.00832494
0.00829875
0.00831492
0.00830064
0.00827176
0.00824955
0.00827997
0.00817632
0.00825261
0.00802992
0.00798832
0.00800406
0.00752288
0.0068914
0.00699361
0.00616986
0.0066538
0.00805043
0.00833335
0.00833335
0.00833335
0.00833335
0.00833335
0.00833335
0.00833335
0.00833335
0.00833335
0.00833335
0.00833335
0.00833335
0.00833335
0.00833335
0.00833335
0.00833335
0.00833335
0.00833335
0.00833335
0.00833335
0.00833335
0.00833335
0.00833335
0.00833335
0.00833335
0.00833335
0.00833335
0.00833335
0.00833335
0.00833335
0.00833335
0.00833335
0.00833335
0.00833335
0.00833335
0.00833335
0.00833335
0.00833335
0.00833335
0.00833335
0.00833335
0.00833335
0.00833335
0.00833335
0.00833335
0.00833335
0.00833335
0.00833335
0.00833335
0.00833335
0.00833335
0.00833335
0.00833335
0.00833335
0.00833335
0.00833335
0.00833336
0.00833332
0.00833367
0.00833486
0.00809367
0.00767783
0.00770906
0.00784676
0.00817719
0.00731587
0.00774285
0.00808532
0.00812763
0.00795805
0.00788112
0.00827225
0.00774454
0.0085541
0.00773421
0.00832344
0.00833257
0.0083301
0.00810042
0.00801779
0.00856047
0.0079418
0.00806404
0.00822941
0.0081751
0.00827598
0.00817515
0.00841553
0.00795173
0.00832681
0.00813013
0.00803575
0.00821173
0.00828414
0.00682561
0.0053702
0.00833335
0.00833335
0.00833335
0.00833335
0.00833335
0.00833335
0.00833335
0.00833335
0.00833335
0.00833335
0.00833335
0.00833335
0.00833335
0.00833335
0.00833335
0.00833335
0.00833335
0.00833335
0.00833335
0.00833335
0.00833335
0.00833335
0.00833335
0.00833335
0.00833335
0.00833335
0.00833335
0.00833335
0.00833335
0.00833335
0.00833335
0.00833335
0.00833335
0.00833335
0.00833335
0.00833335
0.00833335
0.00833335
0.00833335
0.00833335
0.00833335
0.00833335
0.00833335
0.00833335
0.00833335
0.00833335
0.00833335
0.00833335
0.00833335
0.00833335
0.00833335
0.00833335
0.00833335
0.00833335
0.00833335
0.00833335
0.00833335
0.00833336
0.00833316
0.0083346
0.00830493
0.00827952
0.00764629
0.00817161
0.00818149
0.00692108
0.00651949
0.00617935
0.00583415
0.0056403
0.00536505
0.00512898
0.00472108
0.00446838
0.00394839
0.00318801
0.00270683
0.00231215
0.00198534
0.00180035
0.00174045
0.00157187
0.00146377
0.0013569
0.00135299
0.00168043
0.00163923
0.00156301
0.00148431
0.00143949
0.00118485
0.000941818
0.000917097
0.000913043
0.000954463
0.000898945
0.00833335
0.00833335
0.00833335
0.00833335
0.00833335
0.00833335
0.00833335
0.00833335
0.00833335
0.00833335
0.00833335
0.00833335
0.00833335
0.00833335
0.00833335
0.00833335
0.00833335
0.00833335
0.00833335
0.00833335
0.00833335
0.00833335
0.00833335
0.00833335
0.00833335
0.00833335
0.00833335
0.00833335
0.00833335
0.00833335
0.00833335
0.00833335
0.00833335
0.00833335
0.00833335
0.00833335
0.00833335
0.00833335
0.00833335
0.00833335
0.00833335
0.00833335
0.00833335
0.00833335
0.00833335
0.00833335
0.00833335
0.00833335
0.00833335
0.00833335
0.00833335
0.00833335
0.00833335
0.00833335
0.00833335
0.00833335
0.00833335
0.00833383
0.00831525
0.00833624
0.00833555
0.00745553
0.00603282
0.00445574
0.00442146
0.00396475
0.00391926
0.00339338
0.00251626
0.00215853
0.00180725
0.00170775
0.00163021
0.00156534
0.00143791
0.0013457
0.00122864
0.00113198
0.00100758
0.000875418
0.000718112
0.000614858
0.000509763
0.000432633
0.000352564
0.00033052
0.000322988
0.000308552
0.000299636
0.000291487
0.00028525
0.000278377
0.000272536
0.000271757
0.000273393
0.000274959
0.00833335
0.00833335
0.00833335
0.00833335
0.00833335
0.00833335
0.00833335
0.00833335
0.00833335
0.00833335
0.00833335
0.00833335
0.00833335
0.00833335
0.00833335
0.00833335
0.00833335
0.00833335
0.00833335
0.00833335
0.00833335
0.00833335
0.00833335
0.00833335
0.00833335
0.00833335
0.00833335
0.00833335
0.00833335
0.00833335
0.00833335
0.00833335
0.00833335
0.00833335
0.00833335
0.00833335
0.00833335
0.00833335
0.00833335
0.00833335
0.00833335
0.00833335
0.00833335
0.00833335
0.00833335
0.00833335
0.00833335
0.00833335
0.00833335
0.00833335
0.00833335
0.00833335
0.00833335
0.00833335
0.00833335
0.00833335
0.00833335
0.00833334
0.00833383
0.00834836
0.00833155
0.00194502
0.00147848
0.000896338
0.000867311
0.000803646
0.000751021
0.000693848
0.000660476
0.000607064
0.000566556
0.000528537
0.000514765
0.000497955
0.000480792
0.000467069
0.000453332
0.0004362
0.000422463
0.000408643
0.000395011
0.000379764
0.000372622
0.00035728
0.000343569
0.000333279
0.000322997
0.000309274
0.000302403
0.000293069
0.000284121
0.000278388
0.000271573
0.000274937
0.000274964
0.000278389
0.00833335
0.00833335
0.00833335
0.00833335
0.00833335
0.00833335
0.00833335
0.00833335
0.00833335
0.00833335
0.00833335
0.00833335
0.00833335
0.00833335
0.00833335
0.00833335
0.00833335
0.00833335
0.00833335
0.00833335
0.00833335
0.00833335
0.00833335
0.00833335
0.00833335
0.00833335
0.00833335
0.00833335
0.00833335
0.00833335
0.00833335
0.00833335
0.00833335
0.00833335
0.00833335
0.00833335
0.00833335
0.00833335
0.00833335
0.00833335
0.00833335
0.00833335
0.00833335
0.00833335
0.00833335
0.00833335
0.00833335
0.00833335
0.00833335
0.00833335
0.00833335
0.00833335
0.00833335
0.00833335
0.00833335
0.00833335
0.00833335
0.00833335
0.00833334
0.00833901
0.00833613
0.00293352
0.00133154
0.000652298
0.00063516
0.000618015
0.000604292
0.000587123
0.000573416
0.000551357
0.000544441
0.000521959
0.000511667
0.000494515
0.000480765
0.000463682
0.000450036
0.000433653
0.000422802
0.00040875
0.000395005
0.000381254
0.000371133
0.000356033
0.000344027
0.000334282
0.000322987
0.00031061
0.000302458
0.00029217
0.000285243
0.00028182
0.000274959
0.000274959
0.000278389
0.000278389
0.00833335
0.00833335
0.00833335
0.00833335
0.00833335
0.00833335
0.00833335
0.00833335
0.00833335
0.00833335
0.00833335
0.00833335
0.00833335
0.00833335
0.00833335
0.00833335
0.00833335
0.00833335
0.00833335
0.00833335
0.00833335
0.00833335
0.00833335
0.00833335
0.00833335
0.00833335
0.00833335
0.00833335
0.00833335
0.00833335
0.00833335
0.00833335
0.00833335
0.00833335
0.00833335
0.00833335
0.00833335
0.00833335
0.00833335
0.00833335
0.00833335
0.00833335
0.00833335
0.00833335
0.00833335
0.00833335
0.00833335
0.00833335
0.00833335
0.00833335
0.00833335
0.00833335
0.00833335
0.00833335
0.00833335
0.00833335
0.00833335
0.00833335
0.00833335
0.00832911
0.00833349
0.0066053
0.000892488
0.00065232
0.000635168
0.000617928
0.000604434
0.00058711
0.000569995
0.000552826
0.000539119
0.000521959
0.000508327
0.000494515
0.000479673
0.000466847
0.000448871
0.000434385
0.000420684
0.000408751
0.000395022
0.000381728
0.000369066
0.000359893
0.00034351
0.00033319
0.000322881
0.000312692
0.000302404
0.000292062
0.000285086
0.000281424
0.000275726
0.000274959
0.000278389
0.000278389
0.00833335
0.00833335
0.00833335
0.00833335
0.00833335
0.00833335
0.00833335
0.00833335
0.00833335
0.00833335
0.00833335
0.00833335
0.00833335
0.00833335
0.00833335
0.00833335
0.00833335
0.00833335
0.00833335
0.00833335
0.00833335
0.00833335
0.00833335
0.00833335
0.00833335
0.00833335
0.00833335
0.00833335
0.00833335
0.00833335
0.00833335
0.00833335
0.00833335
0.00833335
0.00833335
0.00833335
0.00833335
0.00833335
0.00833335
0.00833335
0.00833335
0.00833335
0.00833335
0.00833335
0.00833335
0.00833335
0.00833335
0.00833335
0.00833335
0.00833335
0.00833335
0.00833335
0.00833335
0.00833335
0.00833335
0.00833335
0.00833335
0.00833335
0.00833287
0.00830368
0.00914653
0.00762964
0.00082725
0.000648856
0.0006355
0.000617707
0.000604252
0.000587141
0.000569976
0.000551523
0.000543357
0.00052539
0.000511495
0.000494516
0.000480792
0.00046707
0.000454052
0.000439656
0.000418603
0.000411132
0.000395002
0.000380267
0.000371715
0.000357356
0.00034387
0.000328693
0.000324747
0.000311235
0.000301485
0.000292393
0.00028429
0.000282937
0.000274789
0.000274959
0.000278391
0.000278389
0.00833335
0.00833335
0.00833335
0.00833335
0.00833335
0.00833335
0.00833335
0.00833335
0.00833335
0.00833335
0.00833335
0.00833335
0.00833335
0.00833335
0.00833335
0.00833335
0.00833335
0.00833335
0.00833335
0.00833335
0.00833335
0.00833335
0.00833335
0.00833335
0.00833335
0.00833335
0.00833335
0.00833335
0.00833335
0.00833335
0.00833335
0.00833335
0.00833335
0.00833335
0.00833335
0.00833335
0.00833335
0.00833335
0.00833335
0.00833335
0.00833335
0.00833335
0.00833335
0.00833335
0.00833335
0.00833335
0.00833335
0.00833335
0.00833335
0.00833335
0.00833335
0.00833335
0.00833335
0.00833335
0.00833335
0.00833335
0.00833335
0.00833334
0.00832993
0.00833695
0.00833516
0.00763376
0.00413748
0.000649347
0.0006347
0.000618008
0.000604872
0.00058313
0.000570111
0.000556264
0.000539159
0.00052542
0.000513648
0.000494033
0.000481727
0.000467562
0.000449548
0.000436191
0.000422472
0.000410082
0.000393955
0.000381305
0.000370898
0.000356759
0.000343575
0.000333287
0.000321456
0.000314304
0.000302502
0.000292112
0.000285252
0.000281979
0.000274976
0.000274958
0.000278324
0.000278449
0.00833335
0.00833335
0.00833335
0.00833335
0.00833335
0.00833335
0.00833335
0.00833335
0.00833335
0.00833335
0.00833335
0.00833335
0.00833335
0.00833335
0.00833335
0.00833335
0.00833335
0.00833335
0.00833335
0.00833335
0.00833335
0.00833335
0.00833335
0.00833335
0.00833335
0.00833335
0.00833335
0.00833335
0.00833335
0.00833335
0.00833335
0.00833335
0.00833335
0.00833335
0.00833335
0.00833335
0.00833335
0.00833335
0.00833335
0.00833335
0.00833335
0.00833335
0.00833335
0.00833335
0.00833335
0.00833335
0.00833335
0.00833335
0.00833335
0.00833335
0.00833335
0.00833335
0.00833335
0.00833335
0.00833335
0.00833335
0.00833335
0.00833299
0.00833357
0.00833167
0.00833322
0.00833341
0.00691309
0.000648881
0.000631743
0.000619082
0.000598666
0.000585386
0.000569742
0.000552798
0.000538796
0.000522021
0.000508243
0.000494511
0.000481851
0.000463901
0.000449918
0.000436223
0.00042247
0.000408749
0.000394668
0.000381825
0.000371015
0.000358207
0.000341896
0.000334727
0.000322987
0.000312737
0.000303034
0.000291852
0.000284941
0.000281962
0.00027496
0.000274959
0.000274959
0.000274959
0.00833335
0.00833335
0.00833335
0.00833335
0.00833335
0.00833335
0.00833335
0.00833335
0.00833335
0.00833335
0.00833335
0.00833335
0.00833335
0.00833335
0.00833335
0.00833335
0.00833335
0.00833335
0.00833335
0.00833335
0.00833335
0.00833335
0.00833335
0.00833335
0.00833335
0.00833335
0.00833335
0.00833335
0.00833335
0.00833335
0.00833335
0.00833335
0.00833335
0.00833335
0.00833335
0.00833335
0.00833335
0.00833335
0.00833335
0.00833335
0.00833335
0.00833335
0.00833335
0.00833335
0.00833335
0.00833335
0.00833335
0.00833335
0.00833335
0.00833335
0.00833335
0.00833335
0.00833335
0.00833335
0.00833335
0.00833335
0.00833335
0.00833334
0.00833344
0.00833344
0.00840891
0.00832393
0.00120723
0.000652328
0.000633289
0.000617849
0.000602718
0.000584139
0.000573176
0.000552902
0.000539584
0.00052539
0.000508238
0.000494515
0.000482363
0.000465603
0.000453348
0.000436194
0.000422412
0.000408779
0.000395027
0.000384746
0.000371017
0.000358544
0.000345131
0.000333278
0.000322987
0.000312694
0.000302403
0.000292111
0.00028525
0.00028182
0.000275655
0.00027551
0.000278734
0.000274904
0.00833335
0.00833335
0.00833335
0.00833335
0.00833335
0.00833335
0.00833335
0.00833335
0.00833335
0.00833335
0.00833335
0.00833335
0.00833335
0.00833335
0.00833335
0.00833335
0.00833335
0.00833335
0.00833335
0.00833335
0.00833335
0.00833335
0.00833335
0.00833335
0.00833335
0.00833335
0.00833335
0.00833335
0.00833335
0.00833335
0.00833335
0.00833335
0.00833335
0.00833335
0.00833335
0.00833335
0.00833335
0.00833335
0.00833335
0.00833335
0.00833335
0.00833335
0.00833335
0.00833335
0.00833335
0.00833335
0.00833335
0.00833335
0.00833335
0.00833335
0.00833335
0.00833335
0.00833335
0.00833335
0.00833335
0.00833335
0.00833335
0.00833335
0.0083376
0.00832882
0.0082765
0.00183975
0.000992285
0.000693503
0.000658936
0.000631737
0.000621442
0.00058714
0.000572446
0.000556088
0.000543717
0.000525391
0.000511668
0.0004943
0.000483187
0.000464318
0.000453346
0.000441207
0.000421073
0.000410193
0.000396784
0.000383668
0.000369051
0.000358426
0.000347409
0.000332935
0.000322987
0.000312686
0.000302665
0.000291204
0.000285019
0.000281809
0.000274506
0.000275387
0.000278387
0.000278389
0.00833335
0.00833335
0.00833335
0.00833335
0.00833335
0.00833335
0.00833335
0.00833335
0.00833335
0.00833335
0.00833335
0.00833335
0.00833335
0.00833335
0.00833335
0.00833335
0.00833335
0.00833335
0.00833335
0.00833335
0.00833335
0.00833335
0.00833335
0.00833335
0.00833335
0.00833335
0.00833335
0.00833335
0.00833335
0.00833335
0.00833335
0.00833335
0.00833335
0.00833335
0.00833335
0.00833335
0.00833335
0.00833335
0.00833335
0.00833335
0.00833335
0.00833335
0.00833335
0.00833335
0.00833335
0.00833335
0.00833335
0.00833335
0.00833335
0.00833335
0.00833335
0.00833335
0.00833335
0.00833335
0.00833335
0.00833335
0.00833335
0.00833335
0.00833334
0.00834703
0.00774314
0.00233786
0.00777787
0.00217282
0.00284779
0.00204912
0.00207192
0.00198742
0.00190764
0.00180534
0.00166782
0.0015036
0.00129716
0.00116551
0.00102121
0.000797159
0.000638579
0.00056655
0.000487846
0.0004431
0.000412017
0.000387916
0.000374435
0.000357643
0.0003411
0.000334643
0.000322955
0.000314917
0.000300565
0.000291277
0.00028568
0.000278904
0.000271602
0.00027497
0.000274886
0.000278465
0.00833335
0.00833335
0.00833335
0.00833335
0.00833335
0.00833335
0.00833335
0.00833335
0.00833335
0.00833335
0.00833335
0.00833335
0.00833335
0.00833335
0.00833335
0.00833335
0.00833335
0.00833335
0.00833335
0.00833335
0.00833335
0.00833335
0.00833335
0.00833335
0.00833335
0.00833335
0.00833335
0.00833335
0.00833335
0.00833335
0.00833335
0.00833335
0.00833335
0.00833335
0.00833335
0.00833335
0.00833335
0.00833335
0.00833335
0.00833335
0.00833335
0.00833335
0.00833335
0.00833335
0.00833335
0.00833335
0.00833335
0.00833335
0.00833335
0.00833335
0.00833335
0.00833335
0.00833335
0.00833335
0.00833335
0.00833335
0.00833335
0.00833335
0.00833334
0.00834078
0.00731809
0.00801319
0.0083008
0.0082153
0.00823701
0.00828018
0.00835283
0.00826691
0.00841918
0.00823427
0.00827882
0.00823463
0.008297
0.0083806
0.00816174
0.00796758
0.00807721
0.00802126
0.00783602
0.00681397
0.00589973
0.0045668
0.00363618
0.00249947
0.00128715
0.000826205
0.000408777
0.000360856
0.000329949
0.000303331
0.000285275
0.000281825
0.000274893
0.000271563
0.000274975
0.000274959
0.00833335
0.00833335
0.00833335
0.00833335
0.00833335
0.00833335
0.00833335
0.00833335
0.00833335
0.00833335
0.00833335
0.00833335
0.00833335
0.00833335
0.00833335
0.00833335
0.00833335
0.00833335
0.00833335
0.00833335
0.00833335
0.00833335
0.00833335
0.00833335
0.00833335
0.00833335
0.00833335
0.00833335
0.00833335
0.00833335
0.00833335
0.00833335
0.00833335
0.00833335
0.00833335
0.00833335
0.00833335
0.00833335
0.00833335
0.00833335
0.00833335
0.00833335
0.00833335
0.00833335
0.00833335
0.00833335
0.00833335
0.00833335
0.00833335
0.00833335
0.00833335
0.00833335
0.00833335
0.00833335
0.00833335
0.00833335
0.00833335
0.00833335
0.00833335
0.00831899
0.00956488
0.00830351
0.00833306
0.00886614
0.00694468
0.00831491
0.00782392
0.008506
0.0083667
0.00824019
0.008303
0.00774211
0.00862806
0.00833441
0.00833635
0.00933773
0.00668317
0.00922991
0.00718144
0.00860922
0.00918206
0.00833205
0.00770754
0.00849339
0.00700096
0.00805927
0.00727847
0.00696417
0.00548984
0.00433744
0.00318249
0.000936144
0.000279937
0.000266984
0.000274728
0.000275154
0.00833335
0.00833335
0.00833335
0.00833335
0.00833335
0.00833335
0.00833335
0.00833335
0.00833335
0.00833335
0.00833335
0.00833335
0.00833335
0.00833335
0.00833335
0.00833335
0.00833335
0.00833335
0.00833335
0.00833335
0.00833335
0.00833335
0.00833335
0.00833335
0.00833335
0.00833335
0.00833335
0.00833335
0.00833335
0.00833335
0.00833335
0.00833335
0.00833335
0.00833335
0.00833335
0.00833335
0.00833335
0.00833335
0.00833335
0.00833335
0.00833335
0.00833335
0.00833335
0.00833335
0.00833335
0.00833335
0.00833335
0.00833335
0.00833335
0.00833335
0.00833335
0.00833335
0.00833335
0.00833335
0.00833335
0.00833335
0.00833335
0.00833335
0.00833335
0.00828866
0.00906327
0.00826749
0.00830597
0.00831983
0.00831764
0.00832361
0.00832793
0.00829192
0.00821987
0.00852566
0.0082318
0.0083053
0.00830737
0.00821697
0.0084385
0.00834091
0.00831738
0.00831292
0.00835553
0.00828094
0.00825092
0.00830994
0.00820138
0.00784284
0.00868552
0.00833004
0.00832212
0.00832292
0.00816226
0.00723136
0.00825226
0.00837311
0.00833378
0.00836583
0.00831401
0.00811559
0.00833335
0.00833335
0.00833335
0.00833335
0.00833335
0.00833335
0.00833335
0.00833335
0.00833335
0.00833335
0.00833335
0.00833335
0.00833335
0.00833335
0.00833335
0.00833335
0.00833335
0.00833335
0.00833335
0.00833335
0.00833335
0.00833335
0.00833335
0.00833335
0.00833335
0.00833335
0.00833335
0.00833335
0.00833335
0.00833335
0.00833335
0.00833335
0.00833335
0.00833335
0.00833335
0.00833335
0.00833335
0.00833335
0.00833335
0.00833335
0.00833335
0.00833335
0.00833335
0.00833335
0.00833335
0.00833335
0.00833335
0.00833335
0.00833335
0.00833335
0.00833335
0.00833335
0.00833335
0.00833335
0.00833335
0.00833335
0.00833335
0.00833294
0.00833373
0.0082967
0.00875122
0.00842354
0.00811263
0.00838756
0.00822001
0.00835166
0.00834968
0.00829934
0.00829669
0.00831913
0.008318
0.00832638
0.00832745
0.00833433
0.00834095
0.00832818
0.008337
0.00832949
0.0083345
0.0083361
0.00831844
0.00831301
0.00832608
0.00830335
0.00831416
0.00833391
0.00832376
0.00831885
0.00835946
0.00832867
0.00833513
0.00835103
0.00838389
0.00821729
0.00835923
0.00833334
0.00833335
0.00833335
0.00833335
0.00833335
0.00833335
0.00833335
0.00833335
0.00833335
0.00833335
0.00833335
0.00833335
0.00833335
0.00833335
0.00833335
0.00833335
0.00833335
0.00833335
0.00833335
0.00833335
0.00833335
0.00833335
0.00833335
0.00833335
0.00833335
0.00833335
0.00833335
0.00833335
0.00833335
0.00833335
0.00833335
0.00833335
0.00833335
0.00833335
0.00833335
0.00833335
0.00833335
0.00833335
0.00833335
0.00833335
0.00833335
0.00833335
0.00833335
0.00833335
0.00833335
0.00833335
0.00833335
0.00833335
0.00833335
0.00833335
0.00833335
0.00833335
0.00833335
0.00833335
0.00833335
0.00833335
0.00833335
0.00833335
0.00833334
0.00833295
0.00833037
0.00761861
0.00880175
0.00795043
0.00803803
0.00825127
0.0083322
0.00833346
0.00829048
0.00832309
0.00839574
0.00839145
0.00818431
0.00829028
0.00833698
0.00828785
0.00833556
0.00814018
0.00812465
0.00813882
0.00832106
0.00832523
0.0083271
0.00830642
0.00832123
0.008306
0.00795991
0.00823116
0.0085621
0.00770858
0.0084226
0.00825309
0.00845028
0.00832256
0.00833349
0.00833216
0.00833307
0.00833335
0.00833335
0.00833335
0.00833335
0.00833335
0.00833335
0.00833335
0.00833335
0.00833335
0.00833335
0.00833335
0.00833335
0.00833335
0.00833335
0.00833335
0.00833335
0.00833335
0.00833335
0.00833335
0.00833335
0.00833335
0.00833335
0.00833335
0.00833335
0.00833335
0.00833335
0.00833335
0.00833335
0.00833335
0.00833335
0.00833335
0.00833335
0.00833335
0.00833335
0.00833335
0.00833335
0.00833335
0.00833335
0.00833335
0.00833335
0.00833335
0.00833335
0.00833335
0.00833335
0.00833335
0.00833335
0.00833335
0.00833335
0.00833335
0.00833335
0.00833335
0.00833335
0.00833335
0.00833335
0.00833335
0.00833335
0.00833335
0.00833335
0.00833333
0.00833111
0.00862808
0.00865506
0.00830987
0.0084935
0.00829459
0.00832775
0.00838254
0.00813992
0.00840269
0.00826753
0.00823082
0.00821167
0.00829639
0.00829252
0.00829002
0.00829316
0.00826047
0.00829594
0.00845657
0.00840219
0.00828362
0.00812128
0.00837487
0.00816532
0.00807984
0.0080608
0.00790338
0.00750166
0.00667695
0.0041746
0.00359755
0.00327164
0.00328078
0.0031647
0.00253616
0.000274787
0.00833335
0.00833335
0.00833335
0.00833335
0.00833335
0.00833335
0.00833335
0.00833335
0.00833335
0.00833335
0.00833335
0.00833335
0.00833335
0.00833335
0.00833335
0.00833335
0.00833335
0.00833335
0.00833335
0.00833335
0.00833335
0.00833335
0.00833335
0.00833335
0.00833335
0.00833335
0.00833335
0.00833335
0.00833335
0.00833335
0.00833335
0.00833335
0.00833335
0.00833335
0.00833335
0.00833335
0.00833335
0.00833335
0.00833335
0.00833335
0.00833335
0.00833335
0.00833335
0.00833335
0.00833335
0.00833335
0.00833335
0.00833335
0.00833335
0.00833335
0.00833335
0.00833335
0.00833335
0.00833335
0.00833335
0.00833335
0.00833335
0.00833334
0.00833321
0.0083331
0.00825307
0.00131348
0.00729267
0.00195342
0.00262663
0.00154144
0.00165093
0.00122862
0.00110619
0.000817609
0.00071911
0.000670138
0.000645746
0.000607847
0.000587093
0.000566552
0.000545882
0.000525309
0.000508992
0.00048196
0.000464171
0.000440185
0.0004245
0.000398431
0.000377839
0.000359534
0.000337769
0.000317693
0.000306515
0.000297572
0.000285256
0.000282016
0.000274877
0.000274977
0.000274981
0.000278389
0.00833335
0.00833335
0.00833335
0.00833335
0.00833335
0.00833335
0.00833335
0.00833335
0.00833335
0.00833335
0.00833335
0.00833335
0.00833335
0.00833335
0.00833335
0.00833335
0.00833335
0.00833335
0.00833335
0.00833335
0.00833335
0.00833335