/*--------------------------------*- C++ -*----------------------------------*\
| =========                 |                                                 |
| \\      /  F ield         | OpenFOAM: The Open Source CFD Toolbox           |
|  \\    /   O peration     | Version:  2.3.0                                 |
|   \\  /    A nd           | Web:      www.OpenFOAM.org                      |
|    \\/     M anipulation  |                                                 |
\*---------------------------------------------------------------------------*/
FoamFile
{
    version     2.0;
    format      ascii;
    class       surfaceScalarField;
    location    "12";
    object      phi;
}
// * * * * * * * * * * * * * * * * * * * * * * * * * * * * * * * * * * * * * //

dimensions      [0 3 -1 0 0 0 0];

internalField   nonuniform List<scalar> 
16448
(
-1.61893e-06
-1.62499e-06
3.82438e-07
-1.31404e-07
-1.86582e-06
3.78296e-07
1.97097e-07
-8.06278e-07
4.77778e-07
5.82763e-07
-9.5323e-07
5.67565e-07
6.01932e-07
-5.00021e-07
4.80853e-07
6.26581e-07
-5.53557e-07
5.28909e-07
5.19069e-07
-4.58671e-07
5.66183e-07
4.16169e-07
-4.90294e-07
5.93195e-07
2.42116e-07
-4.79022e-07
6.53075e-07
8.25223e-08
-5.13246e-07
6.72841e-07
-4.04975e-08
-5.60174e-07
6.83195e-07
-8.96776e-08
-6.27178e-07
6.7636e-07
-9.73118e-08
-6.82467e-07
6.90103e-07
-7.17573e-08
-7.25988e-07
7.00435e-07
-4.47923e-08
-7.52311e-07
7.25348e-07
-1.48926e-08
-7.71741e-07
7.41844e-07
5.92518e-09
-7.83936e-07
7.63121e-07
2.23443e-08
-7.9322e-07
7.76803e-07
3.12378e-08
-7.9972e-07
7.90829e-07
3.7122e-08
-8.0572e-07
7.99839e-07
3.83479e-08
-8.09736e-07
8.08512e-07
3.83941e-08
-8.14109e-07
8.14065e-07
3.63872e-08
-8.17128e-07
8.19138e-07
3.39676e-08
-8.20193e-07
8.22616e-07
3.09295e-08
-8.22545e-07
8.25586e-07
2.78321e-08
-8.24685e-07
8.27786e-07
2.46364e-08
-8.26401e-07
8.296e-07
2.14642e-08
-8.27838e-07
8.31015e-07
1.83311e-08
-8.29006e-07
8.32142e-07
1.5219e-08
-8.29859e-07
8.32976e-07
1.22516e-08
-8.30675e-07
8.33647e-07
8.7765e-09
-8.30517e-07
8.33997e-07
6.99829e-09
-8.3229e-07
8.34073e-07
8.72139e-10
-8.28244e-07
8.34376e-07
3.64327e-09
-8.35351e-07
8.32584e-07
-7.0213e-09
-8.22479e-07
8.33149e-07
3.25169e-09
-8.39583e-07
8.29315e-07
-1.55023e-08
-8.11855e-07
8.30615e-07
5.52226e-09
-8.4432e-07
8.23301e-07
-2.41643e-08
-7.96418e-07
8.26112e-07
1.2233e-08
-8.48041e-07
8.1165e-07
-2.60531e-08
-7.77876e-07
8.1617e-07
2.9901e-08
-8.48783e-07
7.92835e-07
-1.05912e-08
-7.54913e-07
7.95413e-07
6.62197e-08
-8.45064e-07
7.6826e-07
1.76573e-08
-7.17905e-07
7.66476e-07
6.90429e-08
-8.1689e-07
7.65511e-07
-7.44982e-08
-6.3221e-07
7.75761e-07
-1.4239e-07
-8.20604e-07
8.88503e-07
-4.02306e-07
-5.85894e-07
8.45821e-07
-1.31715e-07
-1.22986e-06
9.59279e-07
1.58827e-07
-1.12847e-06
8.37937e-07
-4.75723e-07
-5.29562e-07
1.16412e-06
-2.07871e-06
3.50778e-07
1.25222e-06
9.97434e-09
-3.8647e-06
1.77602e-06
-1.52349e-07
-3.00282e-06
3.16515e-06
-2.2041e-06
1.75534e-06
2.96408e-07
-4.644e-06
1.43719e-06
1.00272e-06
-8.78147e-06
2.34709e-06
1.79044e-06
-4.29071e-07
-2.09502e-05
1.2598e-05
1.99903e-05
-2.57967e-05
5.37727e-06
2.76982e-05
-1.09125e-05
3.20463e-06
2.67604e-05
-5.2012e-08
9.89788e-07
2.90445e-05
-2.18205e-06
-1.02036e-07
3.11294e-05
-1.24336e-06
-8.41528e-07
3.22667e-05
7.34456e-08
-1.21082e-06
3.25782e-05
1.0369e-06
-1.34839e-06
3.24763e-05
1.3937e-06
-1.29177e-06
3.20163e-05
1.55038e-06
-1.09039e-06
3.11862e-05
1.67972e-06
-8.49637e-07
3.00199e-05
1.77411e-06
-6.07779e-07
2.85028e-05
1.85101e-06
-3.33956e-07
2.66733e-05
1.88472e-06
-5.51998e-08
2.46274e-05
1.80149e-06
2.44425e-07
2.26078e-05
1.51583e-06
5.03721e-07
2.0535e-05
1.28609e-06
7.86736e-07
1.85671e-05
9.65576e-07
1.00234e-06
1.70652e-05
2.75864e-07
1.22602e-06
1.58582e-05
-1.47625e-07
1.35463e-06
1.48482e-05
-4.45071e-07
1.45507e-06
1.38989e-05
-6.05724e-07
1.55505e-06
1.3018e-05
-7.14202e-07
1.59505e-06
1.21768e-05
-7.65038e-07
1.60627e-06
1.14444e-05
-7.67876e-07
1.50022e-06
1.06938e-05
-6.48162e-07
1.39882e-06
9.95633e-06
-4.59039e-07
1.19646e-06
8.87988e-06
-9.83359e-09
1.08629e-06
7.38628e-06
5.79781e-07
9.13807e-07
4.92021e-06
1.54172e-06
9.24348e-07
1.64416e-06
2.3428e-06
9.33246e-07
-9.6877e-07
1.73583e-06
8.77105e-07
-2.30191e-06
3.35392e-07
9.97749e-07
-3.06174e-06
-6.22605e-07
1.38243e-06
-3.46429e-06
-1.02823e-06
1.43078e-06
-2.51728e-06
-1.48046e-06
5.33453e-07
-1.8578e-06
-6.59486e-07
-2.17452e-06
-2.22037e-06
-1.19788e-07
-9.83724e-07
-2.87682e-06
-1.79793e-07
-7.29117e-07
-1.10748e-06
4.66004e-08
-2.87742e-07
-1.49475e-06
1.00149e-07
-1.29539e-07
-6.6949e-07
1.12689e-08
-1.68226e-08
-7.68393e-07
1.02122e-07
5.35652e-08
-5.81621e-07
5.2565e-08
4.18394e-08
-5.93179e-07
1.14614e-07
-2.60713e-08
-5.60555e-07
1.49446e-07
-1.44073e-07
-5.73067e-07
1.77824e-07
-2.39209e-07
-6.30641e-07
1.65606e-07
-2.57959e-07
-7.47661e-07
1.39236e-07
-2.37678e-07
-8.3798e-07
1.35236e-07
-1.85669e-07
-9.14607e-07
1.36614e-07
-1.38752e-07
-9.51385e-07
1.5216e-07
-9.30555e-08
-9.81847e-07
1.64413e-07
-6.24523e-08
-9.94972e-07
1.80436e-07
-3.80506e-08
-1.00837e-06
1.90753e-07
-2.44735e-08
-1.01495e-06
2.01657e-07
-1.56172e-08
-1.02272e-06
2.08149e-07
-1.24139e-08
-1.0274e-06
2.14463e-07
-1.15182e-08
-1.03302e-06
2.18022e-07
-1.31323e-08
-1.0369e-06
2.21388e-07
-1.56518e-08
-1.04097e-06
2.23305e-07
-1.90169e-08
-1.04409e-06
2.24913e-07
-2.26133e-08
-1.04695e-06
2.25862e-07
-2.64135e-08
-1.04915e-06
2.26553e-07
-3.02498e-08
-1.05093e-06
2.26935e-07
-3.408e-08
-1.05229e-06
2.27119e-07
-3.7819e-08
-1.05321e-06
2.27099e-07
-4.15529e-08
-1.05384e-06
2.26902e-07
-4.51659e-08
-1.05352e-06
2.26617e-07
-4.93674e-08
-1.05432e-06
2.26235e-07
-5.2393e-08
-1.05074e-06
2.25525e-07
-5.58349e-08
-1.05587e-06
2.23971e-07
-5.99474e-08
-1.04196e-06
2.23604e-07
-5.82491e-08
-1.06126e-06
2.1999e-07
-6.69898e-08
-1.02442e-06
2.21318e-07
-5.45429e-08
-1.07004e-06
2.13282e-07
-7.31921e-08
-9.96674e-07
2.18914e-07
-3.81429e-08
-1.08324e-06
2.00158e-07
-7.04497e-08
-9.6006e-07
2.145e-07
5.74451e-09
-1.10312e-06
1.78153e-07
-4.06322e-08
-9.12081e-07
2.03556e-07
6.79371e-08
-1.11553e-06
1.61905e-07
1.84507e-08
-8.44534e-07
1.76127e-07
9.06303e-08
-1.0758e-06
1.86747e-07
-5.26439e-08
-6.77109e-07
1.88185e-07
-3.8849e-07
-9.08898e-07
4.24153e-07
-6.87181e-07
-5.85969e-07
2.98778e-07
-1.24259e-06
-1.31067e-06
6.36228e-07
-1.32466e-06
-1.42953e-06
3.83146e-07
-2.31099e-07
-1.58908e-06
-3.40353e-08
-1.14532e-07
3.37792e-07
-1.03576e-07
6.99225e-07
-5.23209e-06
5.53636e-07
3.02726e-06
-6.51989e-06
1.18902e-06
-2.60435e-06
9.46512e-06
-2.07817e-06
-1.02044e-05
9.06257e-06
-2.53629e-08
-7.51453e-06
5.41674e-06
-5.75944e-06
1.19244e-07
-3.36972e-05
5.11325e-06
6.07915e-06
-3.75537e-05
5.79711e-06
7.18976e-06
-1.31742e-05
1.15112e-06
1.53916e-05
-4.49289e-06
-3.761e-06
1.95464e-05
-2.40729e-06
-3.9295e-06
2.20459e-05
6.16848e-08
-3.80453e-06
2.4184e-05
1.72501e-06
-3.78976e-06
2.61574e-05
2.56489e-06
-3.50136e-06
2.73589e-05
3.0794e-06
-2.88724e-06
2.78522e-05
3.27205e-06
-2.21496e-06
2.77292e-05
3.39207e-06
-1.58935e-06
2.71654e-05
3.38998e-06
-1.05202e-06
2.61143e-05
3.47388e-06
-5.71763e-07
2.44578e-05
3.75351e-06
-2.12333e-07
2.25588e-05
3.60839e-06
9.21204e-08
2.06978e-05
2.93343e-06
4.43356e-07
1.8878e-05
2.30026e-06
8.05659e-07
1.70456e-05
1.75595e-06
1.04199e-06
1.50005e-05
1.13956e-06
1.18142e-06
1.29969e-05
6.18544e-07
1.23744e-06
1.10285e-05
9.88079e-08
1.42451e-06
9.04992e-06
-2.4819e-07
1.62103e-06
7.21468e-06
-5.18701e-07
1.63974e-06
5.78373e-06
-7.90863e-07
1.45677e-06
4.91221e-06
-9.95449e-07
1.0991e-06
4.57715e-06
-1.04604e-06
7.32927e-07
4.50807e-06
-7.40154e-07
3.50194e-07
4.4484e-06
-7.63669e-08
1.26196e-07
4.21103e-06
9.01218e-07
-8.40696e-08
3.27992e-06
2.3653e-06
1.07526e-07
1.45533e-06
3.72087e-06
4.46507e-07
-4.94262e-07
3.27555e-06
4.09867e-07
-1.99397e-06
1.30861e-06
5.26491e-07
-3.14562e-06
-2.57973e-08
5.54833e-07
-3.69894e-06
-5.21268e-07
4.63575e-08
-3.01374e-06
-5.09478e-07
-1.65619e-06
-7.43571e-07
-4.12798e-06
-1.95052e-06
-2.31365e-06
-1.59896e-07
-9.8111e-07
-3.40935e-06
-4.36876e-07
-9.80547e-07
-1.10424e-06
-3.80432e-09
-6.45864e-07
-1.9374e-06
1.07965e-07
-5.79376e-07
-7.0911e-07
-2.68655e-08
-4.5971e-07
-9.20218e-07
3.21625e-08
-3.86001e-07
-5.23664e-07
-1.31663e-07
-3.03285e-07
-5.67506e-07
-1.08387e-07
-2.95084e-07
-4.50578e-07
-1.18175e-07
-3.35903e-07
-4.36443e-07
-9.58027e-08
-3.98199e-07
-4.59847e-07
-1.08495e-07
-3.91732e-07
-5.97581e-07
-1.56544e-07
-3.43516e-07
-7.05256e-07
-1.80938e-07
-2.71148e-07
-7.9635e-07
-1.90621e-07
-2.0727e-07
-8.32778e-07
-1.82482e-07
-1.52269e-07
-8.63733e-07
-1.73111e-07
-1.14375e-07
-8.71773e-07
-1.61091e-07
-8.60157e-08
-8.83682e-07
-1.53044e-07
-6.94533e-08
-8.86288e-07
-1.45222e-07
-5.86609e-08
-8.92615e-07
-1.40896e-07
-5.41195e-08
-8.94981e-07
-1.36955e-07
-5.21499e-08
-8.99679e-07
-1.35308e-07
-5.31793e-08
-9.02218e-07
-1.33647e-07
-5.52295e-08
-9.05608e-07
-1.33312e-07
-5.82626e-08
-9.0789e-07
-1.3316e-07
-6.16742e-08
-9.09989e-07
-1.3354e-07
-6.53625e-08
-9.11446e-07
-1.34009e-07
-6.91335e-08
-9.1246e-07
-1.34696e-07
-7.29073e-08
-9.12999e-07
-1.35511e-07
-7.66096e-08
-9.13071e-07
-1.36434e-07
-8.0299e-08
-9.12734e-07
-1.37408e-07
-8.38062e-08
-9.11654e-07
-1.38347e-07
-8.80077e-08
-9.10956e-07
-1.39153e-07
-9.05995e-08
-9.07868e-07
-1.40269e-07
-9.52912e-08
-9.10188e-07
-1.40985e-07
-9.74456e-08
-8.98201e-07
-1.41598e-07
-9.91074e-08
-9.15316e-07
-1.44277e-07
-1.03539e-07
-8.77426e-07
-1.42556e-07
-9.72169e-08
-9.27795e-07
-1.48557e-07
-1.0804e-07
-8.44227e-07
-1.41614e-07
-8.24349e-08
-9.51442e-07
-1.57391e-07
-1.02495e-07
-8.01423e-07
-1.38566e-07
-3.71573e-08
-9.93851e-07
-1.74594e-07
-7.32992e-08
-7.42251e-07
-1.33676e-07
3.80345e-08
-1.03911e-06
-1.87743e-07
-2.35665e-08
-6.45047e-07
-1.37873e-07
1.50197e-08
-9.86927e-07
-1.27451e-07
-1.0397e-07
-4.2045e-07
-1.37654e-07
-7.43263e-07
-5.14218e-07
2.44626e-07
-1.0028e-06
-2.79047e-07
-4.73646e-08
-2.04513e-06
-7.06111e-07
4.37787e-07
-2.29633e-06
-1.31437e-06
1.36053e-07
-6.60435e-07
-2.52905e-06
-6.95912e-07
1.6168e-06
-7.96202e-07
-1.14323e-06
2.53933e-06
-6.65705e-06
5.02425e-07
1.08138e-06
-6.69261e-06
1.63068e-06
5.05913e-06
9.44679e-06
-3.95944e-06
-1.47878e-06
1.57508e-05
-1.50386e-07
-3.0268e-06
1.05373e-05
-3.57252e-06
-3.78644e-07
-3.82373e-05
1.89184e-06
-1.82032e-06
-4.26208e-05
6.50882e-06
1.11403e-06
-1.69967e-05
8.88157e-07
1.57641e-05
-1.64976e-05
-2.64532e-06
1.81606e-05
-1.21447e-06
-3.58933e-06
1.95757e-05
2.04508e-06
-3.39853e-06
2.15078e-05
3.03172e-06
-3.23885e-06
2.29433e-05
4.01089e-06
-2.8815e-06
2.35043e-05
4.69155e-06
-2.17314e-06
2.33565e-05
4.69913e-06
-1.27933e-06
2.28823e-05
4.13489e-06
-2.68625e-07
2.21681e-05
3.40914e-06
6.95099e-07
2.08435e-05
3.46977e-06
1.32875e-06
1.91518e-05
4.00235e-06
1.4428e-06
1.71816e-05
4.01434e-06
1.56422e-06
1.45779e-05
3.57859e-06
1.95854e-06
1.12083e-05
3.32058e-06
2.3493e-06
6.30835e-06
3.28242e-06
3.3735e-06
1.17139e-06
2.47045e-06
3.80606e-06
-2.23213e-06
1.16641e-06
2.85565e-06
-4.06442e-06
-6.32187e-08
1.99431e-06
-4.45815e-06
-1.01588e-06
1.16142e-06
-3.95161e-06
-1.54029e-06
5.15044e-07
-2.953e-06
-1.76344e-06
-2.60374e-08
-1.83959e-06
-1.7031e-06
-4.05763e-07
-8.21331e-07
-1.37596e-06
-6.88344e-07
3.55056e-08
-7.35185e-07
-8.6181e-07
6.31739e-07
2.66052e-07
-9.38656e-07
8.76815e-07
1.61471e-06
-9.58569e-07
5.87164e-07
3.22253e-06
-5.67578e-07
-3.45833e-07
4.5441e-06
1.09764e-07
-1.15579e-06
3.6448e-06
4.40711e-07
-2.03565e-06
1.57446e-06
6.13999e-07
-3.22906e-06
5.47756e-07
6.19856e-07
-3.81692e-06
4.70679e-07
-4.0409e-07
-3.07067e-06
1.01157e-06
-2.2673e-06
1.24966e-06
-5.06391e-06
-1.82225e-06
-2.43921e-06
1.00221e-07
-7.83001e-07
-4.10901e-06
-3.39599e-07
-9.07209e-07
-1.41268e-06
4.32654e-07
-6.14553e-07
-2.76395e-06
5.33905e-07
-5.54708e-07
-1.21314e-06
4.44191e-07
-4.70245e-07
-1.44194e-06
4.37265e-07
-4.20616e-07
-6.75483e-07
1.02193e-07
-3.92776e-07
-6.37413e-07
4.20695e-08
-4.04749e-07
-3.35924e-07
-1.02678e-07
-4.57047e-07
-2.85364e-07
-9.87788e-08
-5.26241e-07
-2.42352e-07
-1.48297e-07
-5.28065e-07
-3.70287e-07
-2.25468e-07
-4.73241e-07
-4.74107e-07
-2.85969e-07
-3.94042e-07
-5.57319e-07
-3.18228e-07
-3.17229e-07
-5.81075e-07
-3.28512e-07
-2.54712e-07
-5.98386e-07
-3.27861e-07
-2.08072e-07
-5.94713e-07
-3.23696e-07
-1.75561e-07
-5.97261e-07
-3.1893e-07
-1.54415e-07
-5.92606e-07
-3.14825e-07
-1.41483e-07
-5.9371e-07
-3.11834e-07
-1.34396e-07
-5.92392e-07
-3.09671e-07
-1.31175e-07
-5.94424e-07
-3.08472e-07
-1.30702e-07
-5.94999e-07
-3.07687e-07
-1.31691e-07
-5.97004e-07
-3.0761e-07
-1.33782e-07
-5.9843e-07
-3.07363e-07
-1.36653e-07
-5.99959e-07
-3.07154e-07
-1.39909e-07
-6.01028e-07
-3.07157e-07
-1.43279e-07
-6.01688e-07
-3.07396e-07
-1.46619e-07
-6.01911e-07
-3.07741e-07
-1.49893e-07
-6.01634e-07
-3.08157e-07
-1.53226e-07
-6.0078e-07
-3.08614e-07
-1.56393e-07
-5.99452e-07
-3.09028e-07
-1.59976e-07
-5.97981e-07
-3.09384e-07
-1.6242e-07
-5.95674e-07
-3.09743e-07
-1.67552e-07
-5.95719e-07
-3.09327e-07
-1.67017e-07
-5.88764e-07
-3.09965e-07
-1.73329e-07
-5.997e-07
-3.09293e-07
-1.71134e-07
-5.71574e-07
-3.08038e-07
-1.72944e-07
-6.15798e-07
-3.10176e-07
-1.70906e-07
-5.42298e-07
-3.03957e-07
-1.562e-07
-6.5186e-07
-3.14276e-07
-1.55598e-07
-5.06572e-07
-2.95443e-07
-1.02323e-07
-7.21463e-07
-3.25649e-07
-1.12746e-07
-4.53785e-07
-2.78032e-07
-7.28801e-09
-8.13195e-07
-3.31353e-07
-4.97767e-08
-3.52256e-07
-2.5029e-07
-5.81392e-08
-7.37119e-07
-2.41429e-07
-1.4473e-07
-1.19817e-07
-2.14029e-07
-5.74e-07
-1.76362e-07
9.14334e-08
-6.09553e-07
-6.59991e-10
-2.42819e-07
-8.20682e-07
-5.642e-07
6.92385e-08
-1.11757e-06
-9.06865e-07
-1.106e-07
3.93723e-07
-3.64347e-06
-3.96847e-07
2.27266e-07
-5.51727e-07
-7.80113e-08
-1.83384e-06
-5.82336e-06
1.22744e-06
-5.72187e-06
-4.174e-06
1.36942e-06
6.03764e-06
9.8842e-07
-3.30116e-06
4.92986e-06
2.12045e-05
-4.3459e-06
3.993e-06
1.0384e-05
1.09009e-06
3.62655e-06
-3.76048e-05
-2.6624e-07
-2.36442e-07
-4.60559e-05
7.29797e-06
-3.24892e-06
-1.61106e-05
2.12631e-06
8.2036e-07
-2.00625e-05
-5.04377e-07
3.22017e-06
9.73411e-07
-4.58772e-06
1.07187e-05
3.78807e-07
-5.83227e-06
1.4281e-05
3.57039e-06
-4.10098e-06
1.61271e-05
4.5656e-06
-2.40082e-06
1.70924e-05
4.40079e-06
-6.74569e-07
1.71643e-05
3.80735e-06
8.19884e-07
1.61571e-05
3.16033e-06
1.98174e-06
1.39557e-05
2.90318e-06
2.70737e-06
1.08665e-05
3.62034e-06
2.93861e-06
6.58377e-06
4.99774e-06
3.28735e-06
3.3379e-07
6.00551e-06
4.25882e-06
-6.04973e-06
5.49608e-06
4.46602e-06
-1.08077e-05
4.33813e-06
3.74037e-06
-1.33767e-05
2.8686e-06
2.98291e-06
-1.42083e-05
1.2575e-06
2.0445e-06
-1.38812e-05
-1.47924e-07
9.87206e-07
-1.29269e-05
-1.08806e-06
7.05829e-08
-1.16522e-05
-1.72614e-06
-5.64457e-07
-1.01887e-05
-1.99656e-06
-1.00723e-06
-8.61218e-06
-2.01896e-06
-1.321e-06
-7.05484e-06
-1.77071e-06
-1.48974e-06
-5.6515e-06
-1.27945e-06
-1.49986e-06
-4.51214e-06
-4.82305e-07
-1.39225e-06
-3.67013e-06
5.75925e-07
-1.15189e-06
-3.27517e-06
2.02859e-06
-8.08845e-07
-3.08791e-06
3.29167e-06
-2.56411e-07
-2.63676e-06
3.76988e-06
3.2307e-07
-2.1748e-06
2.5736e-06
6.09233e-07
-2.63696e-06
1.30494e-06
7.31678e-07
-3.50737e-06
9.2985e-07
4.88314e-07
-3.80167e-06
1.44651e-06
-6.81537e-07
-2.9151e-06
2.62644e-06
-2.50145e-06
3.59242e-06
-5.25786e-06
-2.3099e-06
-2.40102e-06
3.07703e-07
-1.03679e-06
-4.53812e-06
-8.43987e-07
-1.20234e-06
-1.9982e-06
7.51076e-07
-7.95642e-07
-3.71033e-06
5.39686e-07
-5.85062e-07
-2.2869e-06
8.63183e-07
-3.98503e-07
-2.46828e-06
8.39781e-07
-1.53818e-07
-1.40561e-06
4.85442e-07
-1.07172e-07
-9.93334e-07
3.09278e-07
-8.13518e-08
-4.22557e-07
6.0815e-08
-2.25934e-07
-1.85073e-07
4.42932e-08
-3.89277e-07
-2.02135e-08
-5.87939e-08
-4.87685e-07
-1.12388e-07
-1.59487e-07
-4.78783e-07
-2.21183e-07
-2.61822e-07
-4.27867e-07
-2.82553e-07
-3.25678e-07
-3.65491e-07
-2.81647e-07
-3.61802e-07
-3.10736e-07
-2.74703e-07
-3.78434e-07
-2.65775e-07
-2.54071e-07
-3.856e-07
-2.34382e-07
-2.41554e-07
-3.87096e-07
-2.11944e-07
-2.27702e-07
-3.87338e-07
-1.98943e-07
-2.21429e-07
-3.85278e-07
-1.90974e-07
-2.16906e-07
-3.83451e-07
-1.87443e-07
-2.16538e-07
-3.81412e-07
-1.8598e-07
-2.16704e-07
-3.79754e-07
-1.86747e-07
-2.18429e-07
-3.77802e-07
-1.8858e-07
-2.20543e-07
-3.76049e-07
-1.91015e-07
-2.23137e-07
-3.74381e-07
-1.93554e-07
-2.25868e-07
-3.72615e-07
-1.95988e-07
-2.2851e-07
-3.70738e-07
-1.98314e-07
-2.30841e-07
-3.68737e-07
-2.00637e-07
-2.32754e-07
-3.66549e-07
-2.03268e-07
-2.3428e-07
-3.63863e-07
-2.05932e-07
-2.35543e-07
-3.61236e-07
-2.09491e-07
-2.35959e-07
-3.58456e-07
-2.1262e-07
-2.36561e-07
-3.55975e-07
-2.17261e-07
-2.37662e-07
-3.53409e-07
-2.18239e-07
-2.36328e-07
-3.51447e-07
-2.25751e-07
-2.43842e-07
-3.48339e-07
-2.22468e-07
-2.29783e-07
-3.45063e-07
-2.27295e-07
-2.66966e-07
-3.43995e-07
-2.19949e-07
-2.14467e-07
-3.35164e-07
-2.12956e-07
-3.18048e-07
-3.40795e-07
-2.02342e-07
-1.97821e-07
-3.19351e-07
-1.71843e-07
-4.12908e-07
-3.39044e-07
-1.62137e-07
-1.71431e-07
-2.92044e-07
-1.42493e-07
-5.1937e-07
-3.13457e-07
-1.38211e-07
-9.77303e-08
-2.5879e-07
-3.2432e-07
-3.77045e-07
-1.73953e-07
-3.27257e-07
1.08256e-07
-2.25115e-07
-5.57506e-07
8.47713e-09
4.54237e-08
-3.34468e-07
5.19259e-08
-2.75601e-07
4.36812e-07
-1.10313e-06
-2.32337e-07
5.89209e-07
-8.34993e-07
-2.24246e-07
1.27144e-06
-4.2956e-06
-3.00898e-08
-1.17697e-07
1.49128e-07
6.88301e-07
1.95831e-06
-6.06935e-06
-1.83002e-06
3.61421e-06
-2.74752e-06
-3.08238e-06
1.11174e-05
-4.18322e-07
-6.09652e-06
1.32945e-05
2.59695e-05
-6.9421e-06
1.63634e-05
-5.32148e-06
1.26364e-05
1.93062e-06
-2.53639e-05
2.19172e-06
-8.23143e-06
-4.32132e-05
7.31933e-06
-1.06173e-05
-1.69446e-05
3.21988e-06
-1.18527e-05
-1.88732e-05
4.61161e-08
-3.8677e-06
-4.66859e-06
-2.34308e-06
2.32463e-06
-4.3049e-06
-1.50866e-06
5.68933e-06
5.30237e-07
-3.24577e-07
6.83187e-06
2.10598e-06
1.31706e-06
5.30231e-06
2.98765e-06
2.9427e-06
1.20016e-06
3.44464e-06
4.46486e-06
-5.81644e-06
4.51553e-06
5.6614e-06
-1.28749e-05
5.07162e-06
4.88998e-06
-1.84485e-05
5.41548e-06
3.77851e-06
-2.23107e-05
5.30986e-06
3.55009e-06
-2.4573e-05
5.07348e-06
3.19431e-06
-2.56976e-05
4.10227e-06
2.51844e-06
-2.60826e-05
3.06328e-06
1.6598e-06
-2.58328e-05
1.87063e-06
7.48227e-07
-2.51923e-05
7.77867e-07
-1.60924e-07
-2.42319e-05
-1.56999e-07
-9.51282e-07
-2.29455e-05
-9.3908e-07
-1.43539e-06
-2.1381e-05
-1.62245e-06
-1.6682e-06
-1.95672e-05
-2.15883e-06
-1.65154e-06
-1.75875e-05
-2.53504e-06
-1.46359e-06
-1.55531e-05
-2.64114e-06
-1.16394e-06
-1.35205e-05
-2.51628e-06
-7.95809e-07
-1.15548e-05
-2.06594e-06
-3.82076e-07
-9.68052e-06
-1.36469e-06
6.63412e-08
-7.84287e-06
-3.26614e-07
5.17547e-07
-5.99634e-06
5.71762e-07
8.73377e-07
-4.36065e-06
1.12225e-06
1.01194e-06
-3.75632e-06
1.04058e-06
9.28677e-07
-4.11192e-06
9.69152e-07
6.91391e-07
-4.50966e-06
1.1521e-06
1.75485e-07
-4.27656e-06
2.12353e-06
-9.10114e-07
-3.12869e-06
4.10836e-06
-2.6298e-06
5.63425e-06
-5.17053e-06
-3.21071e-06
-2.13461e-06
5.11766e-07
-1.44946e-06
-4.68758e-06
-1.61178e-06
-1.41413e-06
-2.41448e-06
3.80952e-07
-7.73354e-07
-3.9892e-06
-3.61901e-07
-4.54356e-07
-3.16414e-06
5.58244e-07
-3.91385e-07
-3.30547e-06
7.74223e-07
-1.60193e-07
-2.29516e-06
6.58359e-07
1.31506e-08
-1.62484e-06
4.58162e-07
3.06872e-07
-8.83472e-07
1.67196e-07
2.36555e-07
-2.34796e-07
1.20042e-07
2.76381e-08
1.51935e-07
3.6771e-08
-1.98372e-07
1.69318e-07
-5.56933e-08
-3.0366e-07
6.34852e-08
-1.79378e-07
-3.34719e-07
1.05031e-08
-2.61994e-07
-3.27739e-07
2.94586e-08
-3.18081e-07
-3.08481e-07
5.57856e-08
-3.49743e-07
-2.86728e-07
9.23963e-08
-3.68216e-07
-2.69569e-07
1.16503e-07
-3.75212e-07
-2.57427e-07
1.37952e-07
-3.77792e-07
-2.50204e-07
1.48294e-07
-3.76942e-07
-2.45994e-07
1.53686e-07
-3.74798e-07
-2.44607e-07
1.53069e-07
-3.70989e-07
-2.44471e-07
1.49901e-07
-3.66735e-07
-2.46245e-07
1.44711e-07
-3.61362e-07
-2.48697e-07
1.38421e-07
-3.56506e-07
-2.51544e-07
1.31317e-07
-3.51602e-07
-2.54543e-07
1.2375e-07
-3.46613e-07
-2.57694e-07
1.15989e-07
-3.41342e-07
-2.61019e-07
1.08484e-07
-3.35992e-07
-2.64486e-07
1.01385e-07
-3.30666e-07
-2.67876e-07
9.48156e-08
-3.25697e-07
-2.70894e-07
8.8625e-08
-3.21144e-07
-2.74808e-07
8.36096e-08
-3.15645e-07
-2.78283e-07
7.78765e-08
-3.10957e-07
-2.83552e-07
7.33852e-08
-3.05768e-07
-2.87385e-07
6.91639e-08
-3.01653e-07
-2.97757e-07
6.26278e-08
-2.96086e-07
-2.97339e-07
6.45307e-08
-2.94724e-07
-3.10824e-07
3.67458e-08
-2.90214e-07
-3.01809e-07
6.62486e-08
-2.89722e-07
-3.16381e-07
-1.60476e-08
-2.87415e-07
-2.99722e-07
6.88828e-08
-2.83355e-07
-3.2189e-07
-1.10183e-07
-2.80542e-07
-2.99737e-07
7.85467e-08
-2.72123e-07
-3.99643e-07
-1.81955e-07
-2.37493e-07
-3.70709e-07
1.36297e-07
-2.62952e-07
-6.40555e-07
-3.36156e-09
-1.03818e-07
-5.32476e-07
2.7645e-07
-2.76262e-07
-5.23761e-07
8.96843e-08
-8.98992e-08
-1.01912e-07
3.05273e-08
-4.00439e-07
8.80072e-07
-1.52839e-06
-5.56701e-07
2.07866e-06
-1.28239e-06
-7.51191e-07
1.18552e-06
-3.31465e-06
-8.77841e-08
1.9036e-06
-7.43461e-07
1.74511e-07
6.63867e-07
-1.85045e-06
-2.97915e-06
-2.14342e-06
5.51317e-06
-5.4534e-06
8.11427e-06
-7.2554e-07
-9.95048e-06
2.55678e-05
1.8182e-05
-9.66605e-06
1.52347e-05
-1.52012e-05
2.02127e-05
1.93576e-06
-1.45004e-05
2.43538e-06
-1.70516e-05
-3.29e-05
8.67448e-06
-2.28846e-05
-1.52996e-05
4.18825e-06
-2.79306e-05
-1.51937e-05
1.36656e-06
-2.46894e-05
-7.61828e-06
-2.91462e-07
-2.52408e-05
-4.94313e-06
1.18966e-06
-2.56363e-05
-1.26164e-06
2.18743e-06
-2.75065e-05
6.76876e-07
3.29935e-06
-3.0339e-05
2.39972e-06
3.42055e-06
-3.34925e-05
3.22619e-06
3.372e-06
-3.59104e-05
3.9186e-06
3.01493e-06
-3.76252e-05
4.25047e-06
2.53596e-06
-3.9081e-05
4.90254e-06
1.96888e-06
-4.00708e-05
4.73363e-06
1.56613e-06
-4.0273e-05
4.34971e-06
9.26036e-07
-4.02868e-05
3.8063e-06
3.09912e-07
-3.99743e-05
3.12579e-06
-3.74914e-07
-3.94554e-05
2.36071e-06
-1.00895e-06
-3.86544e-05
1.51334e-06
-1.53637e-06
-3.7549e-05
5.53744e-07
-1.816e-06
-3.61838e-05
-4.29516e-07
-1.87478e-06
-3.45187e-05
-1.51568e-06
-1.77173e-06
-3.25555e-05
-2.48699e-06
-1.63505e-06
-3.02122e-05
-3.39075e-06
-1.48753e-06
-2.75026e-05
-4.01573e-06
-1.33495e-06
-2.44849e-05
-4.36298e-06
-1.17103e-06
-2.12715e-05
-4.27214e-06
-1.00713e-06
-1.79318e-05
-3.91267e-06
-7.91708e-07
-1.43836e-05
-3.31162e-06
-5.63205e-07
-1.08315e-05
-2.56926e-06
-4.11067e-07
-7.64455e-06
-1.68295e-06
-3.81778e-07
-5.4856e-06
-6.56262e-07
-4.62109e-07
-4.45295e-06
4.35712e-07
-4.99218e-07
-4.16379e-06
1.51849e-06
-6.55554e-07
-3.7474e-06
3.03112e-06
-1.32399e-06
-2.56563e-06
5.62865e-06
-2.70206e-06
7.90883e-06
-4.8402e-06
-4.19572e-06
-1.23912e-06
4.80039e-07
-1.59182e-06
-4.83027e-06
-2.4612e-06
-7.949e-07
-1.8391e-06
-1.3723e-06
-1.33614e-07
-2.99739e-06
-1.65309e-06
3.52541e-07
-2.65883e-06
-9.91465e-07
-3.18166e-08
-2.94855e-06
2.74427e-08
3.89792e-08
-2.58315e-06
2.17201e-07
1.46729e-08
-1.86039e-06
2.59863e-07
4.03934e-07
-1.29234e-06
1.96047e-08
5.10893e-07
-3.07016e-07
-3.47369e-08
3.92902e-07
3.05923e-07
-3.59958e-08
1.50149e-07
4.44489e-07
-3.24166e-08
-3.71834e-08
3.46786e-07
-9.59659e-08
-1.42599e-07
2.72012e-07
-1.5609e-07
-2.018e-07
2.92084e-07
-2.03422e-07
-2.36352e-07
3.26734e-07
-2.36392e-07
-2.56882e-07
3.74181e-07
-2.61251e-07
-2.69029e-07
4.04411e-07
-2.75757e-07
-2.79585e-07
4.31763e-07
-2.8325e-07
-2.88883e-07
4.43593e-07
-2.85996e-07
-2.97884e-07
4.49548e-07
-2.86857e-07
-3.0617e-07
4.46924e-07
-2.85562e-07
-3.1359e-07
4.40744e-07
-2.83419e-07
-3.2013e-07
4.31611e-07
-2.80353e-07
-3.26083e-07
4.20933e-07
-2.76554e-07
-3.31726e-07
4.09194e-07
-2.72227e-07
-3.37076e-07
3.97109e-07
-2.68005e-07
-3.42323e-07
3.85073e-07
-2.6383e-07
-3.47571e-07
3.73384e-07
-2.59646e-07
-3.52664e-07
3.6204e-07
-2.55554e-07
-3.57853e-07
3.51471e-07
-2.51461e-07
-3.62892e-07
3.41224e-07
-2.47551e-07
-3.68138e-07
3.32227e-07
-2.43365e-07
-3.72613e-07
3.2223e-07
-2.39869e-07
-3.78196e-07
3.14582e-07
-2.35608e-07
-3.82649e-07
3.06378e-07
-2.32751e-07
-3.90956e-07
2.98987e-07
-2.28046e-07
-3.91848e-07
2.93298e-07
-2.27865e-07
-4.06125e-07
2.72275e-07
-2.21245e-07
-3.98596e-07
2.85968e-07
-2.27237e-07
-4.27531e-07
2.25177e-07
-2.12284e-07
-4.11342e-07
2.79795e-07
-2.2709e-07
-4.87419e-07
1.58186e-07
-1.92288e-07
-4.63399e-07
2.80841e-07
-2.26303e-07
-6.47105e-07
1.35815e-07
-1.34059e-07
-6.03773e-07
3.24295e-07
-2.31313e-07
-8.35716e-07
2.76616e-07
-4.80289e-08
-6.91094e-07
3.77899e-07
-2.46052e-07
-5.0466e-07
1.51056e-07
-2.47798e-07
-6.22269e-08
9.57293e-09
-4.21458e-07
4.76227e-07
-1.32657e-06
-7.40269e-07
1.52729e-06
-1.43994e-06
-8.93483e-07
2.41893e-07
-1.83553e-06
-1.93726e-07
2.45766e-06
-2.44709e-06
-5.12112e-07
2.69171e-06
3.44516e-06
-5.52967e-06
4.38462e-06
1.28087e-05
-8.98842e-06
1.24714e-05
1.91964e-06
-1.0732e-05
3.29954e-05
6.23645e-06
-8.5785e-06
6.25252e-06
-1.14523e-05
2.29939e-05
-6.17045e-06
-5.51268e-06
3.43551e-06
-3.85872e-05
-1.02923e-05
9.8104e-06
-4.95368e-05
-8.58816e-06
4.24e-06
-5.67828e-05
-8.41094e-06
4.65084e-07
-5.77538e-05
-6.24771e-06
-3.97873e-07
-5.80365e-05
-4.68912e-06
3.0216e-08
-5.80539e-05
-2.02012e-06
7.77378e-07
-5.86189e-05
-4.67913e-08
1.29016e-06
-5.90185e-05
1.43774e-06
1.36298e-06
-5.96844e-05
2.63832e-06
1.25506e-06
-6.03228e-05
3.52433e-06
1.03373e-06
-6.07681e-05
4.01007e-06
6.86785e-07
-6.03858e-05
4.2744e-06
2.47295e-07
-6.00562e-05
4.5377e-06
-1.31854e-07
-5.95472e-05
4.47687e-06
-6.34278e-07
-5.87776e-05
4.1117e-06
-1.07317e-06
-5.7783e-05
3.60956e-06
-1.4766e-06
-5.66e-05
2.9594e-06
-1.77995e-06
-5.52601e-05
2.0803e-06
-1.90518e-06
-5.3812e-05
9.72559e-07
-1.86524e-06
-5.2183e-05
-2.92091e-07
-1.76473e-06
-5.05667e-05
-1.4791e-06
-1.65121e-06
-4.88067e-05
-2.69539e-06
-1.54994e-06
-4.68057e-05
-3.90021e-06
-1.49007e-06
-4.45041e-05
-4.87701e-06
-1.43903e-06
-4.18525e-05
-5.60443e-06
-1.40903e-06
-3.85261e-05
-6.13802e-06
-1.45957e-06
-3.46208e-05
-6.30435e-06
-1.5129e-06
-3.01808e-05
-6.22949e-06
-1.52161e-06
-2.51845e-05
-5.87856e-06
-1.68659e-06
-1.984e-05
-5.22138e-06
-1.8059e-06
-1.43927e-05
-4.12314e-06
-1.9803e-06
-9.65907e-06
-2.15196e-06
-2.14594e-06
-6.29416e-06
4.06141e-07
-2.25256e-06
-4.17622e-06
3.35976e-06
-2.44659e-06
-2.29277e-06
6.89846e-06
-3.15327e-06
1.02509e-05
-4.63482e-06
-4.34767e-06
-8.69663e-08
1.27494e-06
-1.7585e-06
-4.79437e-06
-2.62507e-06
-6.22597e-07
-6.58676e-07
-2.31633e-06
1.22588e-08
-1.09221e-06
-2.54003e-06
8.7969e-07
-1.28967e-06
-2.23658e-06
6.75663e-07
-1.62137e-06
-1.12315e-06
4.60968e-07
-1.83621e-06
-5.32248e-07
1.13829e-07
-1.6523e-06
1.39045e-07
3.33782e-07
-1.39469e-06
-1.17596e-07
5.62441e-07
-3.59763e-07
-1.75911e-07
6.24375e-07
4.26301e-07
-1.82311e-07
4.8043e-07
6.94458e-07
-1.06023e-07
2.90708e-07
6.69224e-07
-1.32713e-07
1.23885e-07
6.43953e-07
-2.05115e-07
-1.41474e-08
6.91652e-07
-2.61533e-07
-1.25602e-07
7.44538e-07
-3.06346e-07
-2.11194e-07
8.01683e-07
-3.41904e-07
-2.7546e-07
8.38951e-07
-3.70271e-07
-3.24124e-07
8.70223e-07
-3.89791e-07
-3.61571e-07
8.84524e-07
-4.03479e-07
-3.90792e-07
8.90215e-07
-4.1144e-07
-4.12019e-07
8.85149e-07
-4.16993e-07
-4.27097e-07
8.77551e-07
-4.21722e-07
-4.3958e-07
8.69852e-07
-4.25753e-07
-4.49388e-07
8.62461e-07
-4.31713e-07
-4.57891e-07
8.5541e-07
-4.37708e-07
-4.65613e-07
8.48745e-07
-4.43906e-07
-4.72853e-07
8.42577e-07
-4.50258e-07
-4.79801e-07
8.37084e-07
-4.56745e-07
-4.86513e-07
8.32165e-07
-4.63408e-07
-4.93142e-07
8.28098e-07
-4.69989e-07
-4.99342e-07
8.24223e-07
-4.76794e-07
-5.05797e-07
8.21772e-07
-4.83081e-07
-5.11489e-07
8.18028e-07
-4.901e-07
-5.17624e-07
8.16814e-07
-4.96087e-07
-5.2276e-07
8.14501e-07
-5.02982e-07
-5.30843e-07
8.15047e-07
-5.07968e-07
-5.36321e-07
8.14101e-07
-5.1532e-07
-5.58326e-07
8.10575e-07
-5.16284e-07
-5.58168e-07
8.16454e-07
-5.30639e-07
-6.15637e-07
8.01106e-07
-5.18452e-07
-6.09216e-07
8.2104e-07
-5.47665e-07
-7.46479e-07
7.97824e-07
-5.0237e-07
-7.39544e-07
8.35396e-07
-5.6149e-07
-9.8821e-07
8.20146e-07
-4.35658e-07
-9.28749e-07
8.35754e-07
-5.70919e-07
-1.05517e-06
7.79095e-07
-3.76046e-07
-7.97455e-07
6.77115e-07
-5.56927e-07
-3.20527e-07
3.83233e-07
-7.09093e-07
2.18462e-07
2.47783e-07
-7.77194e-07
3.07454e-07
-2.07798e-07
-1.20775e-06
1.07193e-06
-9.08586e-07
-1.29583e-06
2.12922e-07
-4.46657e-08
-9.31832e-07
1.14419e-06
-2.59895e-06
-7.79407e-07
3.66382e-06
5.06902e-06
-4.14348e-06
1.09416e-05
1.43283e-05
-8.79748e-06
1.2939e-05
1.22115e-05
-1.22893e-05
3.31015e-05
-9.60762e-07
-1.29654e-05
6.81282e-06
-9.12836e-06
2.39647e-05
-1.0508e-05
7.71102e-06
4.09805e-06
-5.14863e-05
1.89362e-05
1.17526e-05
-6.86427e-05
3.03092e-06
5.54182e-06
-7.84399e-05
1.28653e-06
1.04695e-07
-8.23717e-05
-1.32597e-06
-9.84608e-07
-8.45477e-05
-1.51636e-06
-9.9109e-07
-8.5146e-05
-8.39838e-07
-5.76321e-07
-8.53921e-05
6.00534e-07
-3.95627e-07
-8.54672e-05
1.78427e-06
-2.65659e-07
-8.51966e-05
2.835e-06
-4.61461e-07
-8.4518e-05
3.58829e-06
-7.36699e-07
-8.37494e-05
4.33438e-06
-1.08698e-06
-8.2924e-05
4.86946e-06
-1.41466e-06
-8.15826e-05
5.12586e-06
-1.92363e-06
-7.99746e-05
5.17395e-06
-2.29912e-06
-7.82121e-05
4.99274e-06
-2.63766e-06
-7.63221e-05
4.58451e-06
-2.8592e-06
-7.42307e-05
3.88308e-06
-3.00935e-06
-7.19457e-05
2.88516e-06
-3.08436e-06
-6.9562e-05
1.62731e-06
-3.03317e-06
-6.72178e-05
1.26773e-07
-2.75805e-06
-6.49898e-05
-1.38154e-06
-2.32058e-06
-6.30803e-05
-2.76014e-06
-1.83974e-06
-6.1482e-05
-4.01702e-06
-1.47649e-06
-6.01742e-05
-5.02683e-06
-1.15299e-06
-5.90136e-05
-5.68762e-06
-1.07235e-06
-5.76796e-05
-6.28554e-06
-1.18145e-06
-5.59217e-05
-6.63239e-06
-1.42479e-06
-5.36346e-05
-6.73225e-06
-1.77934e-06
-5.10477e-05
-6.22111e-06
-2.23935e-06
-4.81693e-05
-5.67084e-06
-2.42406e-06
-4.45903e-05
-5.26867e-06
-2.42871e-06
-3.98483e-05
-4.48496e-06
-2.40441e-06
-3.36055e-05
-3.24425e-06
-2.58815e-06
-2.55264e-05
-1.47567e-06
-3.23985e-06
-1.47996e-05
5.78206e-07
-4.40344e-06
1.60389e-06
-6.1514e-06
-3.24188e-06
6.6987e-07
2.70444e-06
-2.20938e-06
-4.33988e-06
-1.48698e-06
-1.84485e-06
1.50543e-07
-1.17374e-06
-1.01955e-06
-1.52601e-07
-1.7649e-06
1.45054e-07
-1.51988e-07
-2.30228e-06
3.2366e-07
-2.4313e-07
-1.55684e-06
3.87991e-07
-9.08516e-07
-9.9202e-07
-8.80635e-10
-1.15538e-06
-1.08042e-07
1.48375e-07
-1.37231e-06
-1.71634e-07
4.11526e-07
-4.76312e-07