/*--------------------------------*- C++ -*----------------------------------*\
| =========                 |                                                 |
| \\      /  F ield         | OpenFOAM: The Open Source CFD Toolbox           |
|  \\    /   O peration     | Version:  2.3.0                                 |
|   \\  /    A nd           | Web:      www.OpenFOAM.org                      |
|    \\/     M anipulation  |                                                 |
\*---------------------------------------------------------------------------*/
FoamFile
{
    version     2.0;
    format      ascii;
    class       surfaceScalarField;
    location    "12";
    object      phi.water;
}
// * * * * * * * * * * * * * * * * * * * * * * * * * * * * * * * * * * * * * //

dimensions      [0 3 -1 0 0 0 0];

internalField   nonuniform List<scalar> 
16448
(
-1.28045e-06
-1.64892e-06
4.27569e-07
2.55042e-07
-1.94946e-06
4.15003e-07
4.92996e-07
-6.56609e-07
4.20553e-07
8.97295e-07
-9.36407e-07
5.3209e-07
8.65819e-07
-3.40675e-07
3.74157e-07
8.88464e-07
-4.80764e-07
4.57883e-07
7.61338e-07
-3.40293e-07
4.68135e-07
6.69388e-07
-3.98909e-07
4.90659e-07
4.79821e-07
-3.87786e-07
5.7776e-07
2.86554e-07
-4.14459e-07
6.07838e-07
1.15168e-07
-4.46913e-07
6.18639e-07
3.04465e-08
-5.15741e-07
6.00762e-07
8.94163e-09
-5.81758e-07
6.03641e-07
3.23996e-08
-6.31421e-07
6.08226e-07
6.3658e-08
-6.62438e-07
6.3151e-07
9.74225e-08
-6.82774e-07
6.49286e-07
1.21697e-07
-6.95657e-07
6.71673e-07
1.39923e-07
-7.0489e-07
6.86923e-07
1.49462e-07
-7.11003e-07
7.01737e-07
1.55074e-07
-7.16587e-07
7.11218e-07
1.55381e-07
-7.1979e-07
7.19737e-07
1.54128e-07
-7.23407e-07
7.24896e-07
1.50417e-07
-7.25261e-07
7.29218e-07
1.46033e-07
-7.27135e-07
7.31753e-07
1.40776e-07
-7.28094e-07
7.33597e-07
1.35183e-07
-7.28704e-07
7.34535e-07
1.29315e-07
-7.28809e-07
7.34928e-07
1.23245e-07
-7.28437e-07
7.34752e-07
1.17217e-07
-7.27734e-07
7.34024e-07
1.1097e-07
-7.26345e-07
7.3285e-07
1.05379e-07
-7.24843e-07
7.30715e-07
9.97557e-08
-7.22362e-07
7.28262e-07
9.63455e-08
-7.20272e-07
7.23991e-07
9.42871e-08
-7.17156e-07
7.19522e-07
9.81316e-08
-7.15237e-07
7.1174e-07
1.07334e-07
-7.12736e-07
7.0389e-07
1.28193e-07
-7.12364e-07
6.91902e-07
1.59036e-07
-7.1266e-07
6.8223e-07
2.03394e-07
-7.15807e-07
6.71903e-07
2.49851e-07
-7.20253e-07
6.7424e-07
2.80466e-07
-7.21485e-07
6.91335e-07
2.65636e-07
-7.22583e-07
7.37809e-07
1.79166e-07
-7.17276e-07
8.04107e-07
3.46238e-08
-7.32209e-07
8.76881e-07
-6.27617e-08
-7.99048e-07
8.96435e-07
4.30197e-08
-9.62529e-07
8.62064e-07
8.28668e-08
-8.68254e-07
8.51459e-07
-9.18804e-07
-1.0059e-07
1.15301e-06
-3.42905e-06
8.06317e-07
1.76539e-06
-4.86698e-06
-8.5861e-07
2.37992e-06
-8.76013e-07
-7.57267e-06
3.59446e-06
3.81664e-06
-9.30546e-06
4.56208e-06
7.37322e-06
-9.32322e-06
5.74015e-06
1.05545e-05
-9.53389e-06
6.3193e-06
1.25657e-05
-8.90621e-06
6.9132e-06
1.58892e-05
-9.03108e-06
5.59916e-06
1.21823e-05
-1.56806e-06
5.30951e-06
9.93248e-06
-9.57316e-07
3.00373e-06
2.00443e-06
9.36199e-06
1.08416e-05
3.07819e-05
-1.77364e-06
-7.79413e-06
2.8482e-05
-2.43328e-05
-2.52035e-06
3.66289e-05
-1.36955e-05
3.93607e-06
3.7268e-05
-5.98872e-06
5.34392e-06
3.93359e-05
-6.43815e-06
4.37017e-06
4.1916e-05
-5.36911e-06
2.78905e-06
4.31622e-05
-3.18938e-06
1.94318e-06
4.36259e-05
-1.77961e-06
1.31586e-06
4.33362e-05
-1.27082e-06
1.56052e-06
4.2875e-05
-1.33185e-06
1.79307e-06
4.17601e-05
-1.22819e-06
2.34313e-06
3.99464e-05
-6.22171e-07
2.43579e-06
3.75444e-05
1.36949e-07
2.26508e-06
3.32129e-05
2.51051e-06
1.821e-06
2.86699e-05
2.64171e-06
1.90127e-06
2.18783e-05
4.07229e-06
2.71932e-06
1.04685e-05
7.81239e-06
3.59739e-06
2.46408e-07
6.509e-06
3.7131e-06
-5.44343e-06
4.19331e-06
1.49653e-06
-7.56408e-06
2.67483e-06
-5.5418e-07
-8.43035e-06
2.56921e-07
6.09355e-07
-9.52119e-06
-1.14625e-06
2.23709e-06
-9.9765e-06
-1.90074e-06
2.35605e-06
-9.49576e-06
-2.69213e-06
2.21139e-06
-8.30945e-06
-2.50317e-06
1.31686e-06
-6.8206e-06
-1.57119e-06
8.23502e-08
-5.40283e-06
-7.22238e-07
-6.95532e-07
-3.40268e-06
-5.24397e-07
-1.47576e-06
-2.62188e-06
3.58685e-08
-8.16662e-07
-3.62668e-06
8.67165e-07
1.3763e-07
-5.06739e-06
1.78407e-06
-3.43359e-07
-6.06195e-06
1.56715e-06
-5.72585e-07
-7.00065e-06
1.4015e-06
-4.628e-07
-6.87254e-06
1.96929e-07
-3.25037e-07
-5.84407e-06
-1.51372e-06
4.85241e-07
-4.39683e-06
-3.08659e-06
1.63935e-06
-5.73151e-06
1.33469e-06
-1.72327e-06
-2.35548e-06
-3.31544e-08
-4.61439e-07
-3.07545e-06
-1.34678e-07
-2.49934e-07
-9.47359e-07
8.20312e-08
1.65647e-07
-1.55873e-06
2.07014e-07
2.58202e-07
-4.38038e-07
6.16024e-09
2.88077e-07
-6.51401e-07
1.40286e-07
2.99587e-07
-3.57468e-07
5.83098e-09
2.67833e-07
-4.42791e-07
7.51488e-08
1.9713e-07
-4.17378e-07
1.00289e-07
5.22735e-08
-4.17422e-07
1.47571e-07
-8.47929e-08
-4.50971e-07
1.41266e-07
-1.37454e-07
-5.69251e-07
1.0616e-07
-1.28867e-07
-6.79203e-07
8.89938e-08
-7.61365e-08
-7.6681e-07
8.26941e-08
-2.27214e-08
-8.10345e-07
9.4617e-08
2.80906e-08
-8.39624e-07
1.0612e-07
6.31288e-08
-8.51883e-07
1.21312e-07
8.90389e-08
-8.62406e-07
1.31708e-07
1.03668e-07
-8.67103e-07
1.41591e-07
1.11609e-07
-8.72079e-07
1.47661e-07
1.14123e-07
-8.74829e-07
1.52638e-07
1.12992e-07
-8.77633e-07
1.55469e-07
1.09612e-07
-8.79237e-07
1.5747e-07
1.0475e-07
-8.80485e-07
1.58325e-07
9.9004e-08
-8.80882e-07
1.58651e-07
9.28247e-08
-8.80741e-07
1.58335e-07
8.64344e-08
-8.79971e-07
1.57674e-07
7.99923e-08
-8.78479e-07
1.56614e-07
7.37592e-08
-8.76545e-07
1.55179e-07
6.7636e-08
-8.73564e-07
1.53486e-07
6.24627e-08
-8.70709e-07
1.51193e-07
5.77643e-08
-8.66125e-07
1.4863e-07
5.6196e-08
-8.63296e-07
1.44777e-07
5.67437e-08
-8.58034e-07
1.40536e-07
6.49994e-08
-8.573e-07
1.34037e-07
8.02101e-08
-8.54707e-07
1.27023e-07
1.10296e-07
-8.59808e-07
1.17646e-07
1.5378e-07
-8.65064e-07
1.09259e-07
2.14158e-07
-8.7902e-07
1.03208e-07
2.81029e-07
-8.93354e-07
1.0666e-07
3.32773e-07
-9.00469e-07
1.27738e-07
3.27931e-07
-8.91929e-07
1.74774e-07
2.24499e-07
-8.57063e-07
2.43987e-07
2.41455e-08
-8.61531e-07
3.30617e-07
-1.47241e-07
-1.02486e-06
3.98578e-07
-1.71914e-07
-1.38042e-06
4.55801e-07
-8.59829e-07
-8.31049e-07
6.90202e-07
-2.74318e-06
6.91268e-07
1.1376e-06
-4.2282e-06
9.68165e-07
1.39557e-06
-9.03406e-07
-5.20679e-06
1.16131e-06
4.0263e-06
-1.40832e-05
1.64548e-06
5.32718e-06
-1.51491e-05
4.5541e-06
4.54498e-06
-1.42915e-05
5.75687e-06
4.29744e-06
-1.53743e-05
6.03636e-06
7.69567e-06
-1.75582e-05
5.2714e-06
1.49849e-05
-1.8981e-05
2.575e-06
1.4891e-05
-3.26898e-06
2.02489e-06
1.70184e-05
-7.39451e-06
3.10935e-06
5.49645e-06
1.32777e-05
2.03901e-05
3.2538e-05
-2.11226e-06
-3.82015e-06
1.78478e-05
-3.22321e-05
-8.21646e-06
1.78346e-05
-1.84145e-05
3.48364e-06
1.85509e-05
-9.01087e-06
2.30373e-06
2.07359e-05
-8.06893e-06
-5.54203e-07
2.23167e-05
-5.2829e-06
-1.66706e-06
2.42125e-05
-2.81855e-06
-2.26658e-06
2.48449e-05
-5.69334e-08
-2.35507e-06
2.46145e-05
4.15897e-07
-1.4564e-06
2.24502e-05
7.81961e-07
5.05498e-08
1.86823e-05
1.18881e-06
1.35091e-06
1.56209e-05
1.22553e-06
1.21371e-06
1.38176e-05
1.17062e-06
7.69547e-07
1.26288e-05
3.36941e-06
3.29914e-07
9.98411e-06
5.01902e-06
2.674e-07
5.38135e-06
7.66988e-06
1.00516e-06
-2.48739e-07
1.05679e-05
2.87456e-06
-5.74123e-06
8.41808e-06
3.58342e-06
-8.74766e-06
6.62722e-06
5.72515e-07
-8.67378e-06
4.19609e-06
-1.59515e-06
-9.34277e-06
1.46041e-06
-5.34486e-07
-1.05373e-05
-7.50761e-07
7.99083e-07
-1.10202e-05
-2.04587e-06
6.28026e-07
-9.87165e-06
-3.57696e-06
-2.63761e-07
-7.34693e-06
-3.07723e-06
-1.95067e-06
-5.67295e-06
-4.0001e-07
-2.84516e-06
-4.851e-06
1.87728e-06
-3.42146e-06
-3.37663e-06
2.27369e-06
-4.27246e-06
-1.42112e-06
2.99243e-06
-4.91208e-06
1.29583e-06
3.0376e-06
-4.88738e-06
3.78975e-06
2.8461e-06
-3.55596e-06
5.27261e-06
3.27507e-06
-3.19078e-06
6.3581e-06
3.41788e-06
-3.10186e-06
6.21132e-06
1.80226e-06
-1.45855e-06
4.00698e-06
-3.32652e-07
1.02328e-06
1.10909e-06
-2.74692e-06
2.55822e-06
-6.44093e-06
1.81851e-06
-1.64833e-06
-2.79297e-06
5.32004e-10
-4.88202e-07
-3.8729e-06
-3.61227e-07
-4.36202e-07
-1.19729e-06
2.02414e-07
-7.75222e-08
-2.29532e-06
3.77869e-07
-1.95162e-08
-6.1864e-07
1.2542e-07
-5.60943e-08
-8.39984e-07
2.24652e-07
-6.17074e-08
-2.85064e-07
-6.57357e-08
-8.90554e-08
-3.66788e-07
-4.89748e-08
-1.02922e-07
-2.64835e-07
-1.3854e-07
-1.65468e-07
-2.52813e-07
-1.02059e-07
-2.62925e-07
-2.48026e-07
-1.05111e-07
-2.90401e-07
-3.8531e-07
-1.56296e-07
-2.54097e-07
-5.17202e-07
-1.98125e-07
-1.79705e-07
-6.2107e-07
-2.20099e-07
-1.0806e-07
-6.64494e-07
-2.17378e-07
-4.6535e-08
-6.91639e-07
-2.0943e-07
-3.01604e-09
-6.97037e-07
-1.98248e-07
2.79018e-08
-7.02931e-07
-1.90315e-07
4.62683e-08
-7.01794e-07
-1.83579e-07
5.71761e-08
-7.03051e-07
-1.79862e-07
6.15043e-08
-7.01961e-07
-1.77114e-07
6.23327e-08
-7.02279e-07
-1.76115e-07
6.00009e-08
-7.01291e-07
-1.75538e-07
5.6157e-08
-7.0064e-07
-1.75933e-07
5.11645e-08
-6.99219e-07
-1.76594e-07
4.56209e-08
-6.97404e-07
-1.7772e-07
3.98385e-08
-6.95078e-07
-1.79027e-07
3.41071e-08
-6.92084e-07
-1.80582e-07
2.84965e-08
-6.88594e-07
-1.82243e-07
2.3169e-08
-6.84184e-07
-1.83959e-07
1.83563e-08
-6.79908e-07
-1.8587e-07
1.42767e-08
-6.74081e-07
-1.87851e-07
1.19151e-08
-6.70351e-07
-1.90434e-07
1.19608e-08
-6.64881e-07
-1.93053e-07
1.72027e-08
-6.65442e-07
-1.96906e-07
2.84371e-08
-6.64758e-07
-2.0099e-07
4.9725e-08
-6.74815e-07
-2.06031e-07
7.86405e-08
-6.84283e-07
-2.09443e-07
1.12556e-07
-7.05429e-07
-2.0719e-07
1.38614e-07
-7.22762e-07
-1.96334e-07
1.35225e-07
-7.28909e-07
-1.67798e-07
5.77335e-08
-6.9533e-07
-1.18741e-07
-1.60303e-07
-5.95015e-07
-4.3622e-08
-6.0627e-07
-4.48451e-07
3.3262e-08
-1.40365e-06
-3.46511e-07
1.20782e-07
-2.77287e-06
-3.28703e-07
3.24033e-07
-4.42598e-06
2.36421e-07
6.14342e-07
-5.12005e-06
8.39387e-07
6.2587e-07
-2.79098e-06
-1.47374e-06
3.00188e-07
1.36346e-06
-1.01153e-05
8.53416e-07
-1.80943e-06
-1.47827e-05
3.86534e-06
-1.00635e-05
-1.44484e-05
7.44366e-06
-1.59245e-05
-1.63027e-05
7.7969e-06
-1.53039e-05
-2.07105e-05
4.66268e-06
-9.62464e-06
-2.50206e-05
1.86261e-06
-3.28911e-06
-2.42564e-05
-1.15409e-06
1.11535e-05
-1.30672e-05
-4.22824e-06
2.27366e-05
-2.10581e-05
1.11647e-06
9.93921e-06
2.16087e-05
2.01879e-05
3.5143e-05
-5.08429e-06
-5.7052e-07
9.72346e-06
-3.01589e-05
-9.67332e-06
5.52798e-06
-1.73998e-05
2.15697e-06
1.00193e-05
-1.2123e-05
-1.37998e-06
7.32242e-06
-5.83239e-06
4.60372e-07
7.59655e-06
-5.36987e-06
-1.8716e-07
8.09491e-06
-2.80743e-06
-5.0948e-07
9.45867e-06
-1.00664e-06
-4.14054e-07
1.05054e-05
-4.76734e-07
-1.54069e-07
1.10747e-05
3.65395e-07
-1.52797e-07
9.39331e-06
2.97664e-06
-1.06413e-07
6.68997e-06
4.059e-06
-1.30133e-07
4.71309e-06
4.84333e-06
-1.69583e-06
2.21625e-06
7.63478e-06
-1.76854e-06
-1.83356e-06
1.02257e-05
-1.15684e-06
-6.7579e-06
1.26572e-05
-6.30171e-08
-9.37506e-06
1.06185e-05
2.56659e-06
-1.17427e-05
7.78325e-06
3.00245e-06
-1.21685e-05
6.46513e-06
5.87944e-07
-1.16292e-05
3.73392e-06
-7.71493e-08
-1.16784e-05
8.90085e-07
6.1951e-07
-1.25433e-05
-1.04374e-06
1.15788e-06
-1.20622e-05
-2.20719e-06
-3.1979e-07
-8.32727e-06
-3.28575e-06
-4.02612e-06
-4.9438e-06
-2.42273e-06
-4.03796e-06
-3.42143e-06
1.13652e-06
-3.05889e-06
-3.15608e-06
5.13013e-06
-3.51819e-06
-3.21663e-06
6.73913e-06
-4.40489e-06
-2.45766e-06
7.03034e-06
-4.79688e-06
-4.38785e-07
6.18029e-06
-5.16156e-06
2.90177e-06
4.27081e-06
-4.76527e-06
6.67074e-06
3.79333e-06
-4.28722e-06
9.04564e-06
5.01009e-06
-3.96711e-06
9.76145e-06
3.92994e-06
-2.8435e-06
1.02964e-05
1.69111e-06
-2.55873e-06
7.28754e-06
3.6842e-07
-1.06462e-07
-1.53237e-06
2.37897e-06
-2.07241e-06
-3.18773e-06
1.75836e-07
-6.70907e-07
-4.68987e-06
-5.80845e-07
-6.57092e-07
-1.88533e-06
6.79438e-07
-2.11168e-07
-3.45039e-06
7.09876e-07
5.12254e-08
-1.52619e-06
6.49571e-07
6.75025e-08
-1.62577e-06
7.70256e-07
1.21986e-07
-5.95151e-07
2.57706e-07
-4.97494e-08
-3.80952e-07
1.85579e-07
-1.09576e-07
-1.24048e-07
-8.04957e-08
-2.14311e-07
-6.13844e-08
-8.66897e-08
-3.30152e-07
-1.38595e-08
-1.17707e-07
-3.84685e-07
-1.44169e-07
-1.86157e-07
-3.56026e-07
-2.8179e-07
-2.63711e-07
-2.87483e-07
-3.76613e-07
-3.12771e-07
-2.10921e-07
-4.08386e-07
-3.32392e-07
-1.45935e-07
-4.19892e-07
-3.36462e-07
-9.62164e-08
-4.1233e-07
-3.34132e-07
-6.15164e-08
-4.07256e-07
-3.30085e-07
-3.86884e-08
-3.97623e-07
-3.26703e-07
-2.51419e-08
-3.92249e-07
-3.2405e-07
-1.79264e-08
-3.86434e-07
-3.22441e-07
-1.52339e-08
-3.83186e-07
-3.2148e-07
-1.55379e-08
-3.7965e-07
-3.21037e-07
-1.7953e-08
-3.76939e-07
-3.20978e-07
-2.15517e-08
-3.74106e-07
-3.21216e-07
-2.58266e-08
-3.71299e-07
-3.21522e-07
-3.03727e-08
-3.68209e-07
-3.22025e-07
-3.48566e-08
-3.64778e-07
-3.2251e-07
-3.93631e-08
-3.61036e-07
-3.22746e-07
-4.34451e-08
-3.56866e-07
-3.22914e-07
-4.7674e-08
-3.52797e-07
-3.22559e-07
-5.07533e-08
-3.48432e-07
-3.22229e-07
-5.35747e-08
-3.45685e-07
-3.21493e-07
-5.35154e-08
-3.43481e-07
-3.21088e-07
-5.14467e-08
-3.46978e-07
-3.20138e-07
-4.55235e-08
-3.51305e-07
-3.18955e-07
-3.97772e-08
-3.64782e-07
-3.15327e-07
-4.07745e-08
-3.74654e-07
-3.0814e-07
-6.01618e-08
-3.91628e-07
-2.93885e-07
-1.10032e-07
-3.98875e-07
-2.73433e-07
-2.02456e-07
-3.92974e-07
-2.42878e-07
-3.45046e-07
-3.41013e-07
-2.11052e-07
-5.56423e-07
-2.11747e-07
-1.71146e-07
-9.4879e-07
7.12217e-08
-1.26368e-07
-1.76862e-06
5.34439e-07
-6.00311e-08
-3.10659e-06
1.03118e-06
-1.89607e-08
-4.04985e-06
1.37371e-06
-1.5645e-07
-3.57632e-06
9.39621e-07
-4.28933e-07
-6.64733e-07
-4.0587e-06
-1.30643e-07
-2.43856e-06
-1.08978e-05
2.60187e-06
-1.2621e-05
-1.14806e-05
6.81865e-06
-2.14084e-05
-1.40039e-05
8.27752e-06
-2.52599e-05
-1.85951e-05
6.12267e-06
-2.33113e-05
-2.31802e-05
5.44671e-07
-2.04403e-05
-2.63166e-05
-1.50182e-06
-1.61387e-05
-2.51708e-05
-3.53448e-06
9.24295e-06
-2.87641e-05
-8.49377e-06
2.08665e-05
-2.97657e-05
-4.14067e-06
2.03789e-05
2.85079e-05
1.69036e-05
3.84653e-05
-3.31662e-06
-2.44336e-06
4.93985e-06
-2.2455e-05
-1.09858e-05
-4.35055e-06
-1.25686e-05
3.56838e-06
-3.33288e-06
-1.09789e-05
-2.16336e-06
-7.40155e-06
-2.26685e-06
5.02999e-07
-7.88058e-06
-4.44302e-06
-4.47833e-07
-9.06326e-06
-2.81567e-06
1.19087e-06
-9.30267e-06
-2.52096e-06
1.75375e-06
-9.79703e-06
-2.51872e-06
2.53631e-06
-1.04786e-05
-1.30623e-06
2.35317e-06
-1.06286e-05
2.56027e-06
5.66406e-07
-1.0816e-05
5.684e-06
-1.43755e-06
-1.23691e-05
7.82531e-06
-1.42893e-06
-1.51544e-05
9.93104e-06
4.89157e-07
-1.69694e-05
1.0201e-05
1.83978e-06
-1.69757e-05
9.38782e-06
3.27588e-06
-1.7389e-05
6.69741e-06
4.3344e-06
-1.81371e-05
4.91178e-06
3.61964e-06
-1.73578e-05
3.2851e-06
2.40073e-06
-1.63087e-05
8.42887e-07
1.84193e-06
-1.56464e-05
-8.56363e-07
1.0842e-06
-1.47364e-05
-1.79323e-06
-1.60548e-07
-1.17581e-05
-1.1614e-06
-4.02408e-06
-6.94298e-06
-9.19493e-07
-7.18143e-06
-4.19537e-06
1.47447e-06
-6.64484e-06
-4.0652e-06
6.14931e-06
-5.14296e-06
-4.78662e-06
1.01526e-05
-4.30106e-06
-5.98e-06
1.17855e-05
-3.85303e-06
-6.31238e-06
1.126e-05
-3.89727e-06
-4.55745e-06
8.82411e-06
-4.39875e-06
-9.59796e-07
5.37983e-06
-4.70667e-06
3.6993e-06
3.52946e-06
-4.39522e-06
7.41817e-06
4.76073e-06
-3.46951e-06
8.57594e-06
5.0354e-06
-2.26323e-06
9.03318e-06
3.5865e-06
-2.35263e-06
6.61568e-06
3.11069e-06
-3.24778e-07
3.93908e-06
1.14423e-06
-3.21335e-06
-3.28277e-06
7.79993e-08
-1.23809e-06
-5.24842e-06
-1.41493e-06
-1.18472e-06
-2.6865e-06
7.52198e-07
-5.0049e-07
-4.34919e-06
2.14925e-07
-5.50976e-08
-2.77356e-06
8.07743e-07
4.60131e-08
-2.72825e-06
1.00285e-06
3.1984e-07
-1.48989e-06
6.23974e-07
2.49533e-07
-7.68262e-07
4.5982e-07
2.7644e-07
-2.1873e-07
6.94104e-08
1.12084e-07
9.56003e-08
7.23034e-09
-8.8128e-08
2.42284e-07
-5.57981e-08
-2.70538e-07
1.61095e-07
-1.22517e-07
-3.15646e-07
-1.07043e-08
-2.25625e-07
-2.90106e-07
-1.0573e-07
-2.96283e-07
-2.39185e-07
-1.2046e-07
-3.38734e-07
-1.88884e-07
-1.10872e-07
-3.59268e-07
-1.44893e-07
-8.74167e-08
-3.68842e-07
-1.123e-07
-6.90479e-08
-3.70766e-07
-8.90474e-08
-5.05468e-08
-3.70282e-07
-7.48059e-08
-3.81537e-08
-3.68307e-07
-6.57402e-08
-2.8772e-08
-3.66689e-07
-6.15824e-08
-2.29685e-08
-3.64351e-07
-6.0285e-08
-1.89486e-08
-3.61963e-07
-6.15441e-08
-1.64342e-08
-3.59223e-07
-6.37853e-08
-1.49107e-08
-3.56915e-07
-6.66735e-08
-1.37372e-08
-3.54648e-07
-7.01559e-08
-1.25648e-08
-3.52113e-07
-7.39369e-08
-1.15873e-08
-3.49376e-07
-7.80075e-08
-1.04906e-08
-3.46411e-07
-8.1766e-08
-9.71053e-09
-3.4335e-07
-8.57878e-08
-9.05978e-09
-3.39626e-07
-8.83616e-08
-9.56869e-09
-3.36224e-07
-9.12013e-08
-1.14936e-08
-3.31223e-07
-9.18192e-08
-1.65819e-08
-3.26183e-07
-9.30182e-08
-2.64187e-08
-3.19191e-07
-9.43152e-08
-3.90366e-08
-3.10837e-07
-1.05619e-07
-5.54282e-08
-2.97832e-07
-1.36458e-07
-6.33755e-08
-2.80241e-07
-2.0289e-07
-6.64816e-08
-2.58419e-07
-3.18743e-07
-4.42357e-08
-2.3849e-07
-4.84548e-07
-9.5876e-10
-2.25802e-07
-6.77688e-07
8.55492e-08
-2.33026e-07
-8.4031e-07
2.08263e-07
-2.56791e-07
-9.90139e-07
4.88457e-07
-2.66636e-07
-1.24361e-06
1.05511e-06
-2.6581e-07
-1.63929e-06
1.7963e-06
-3.67619e-07
-1.7364e-06
2.26726e-06
-7.5886e-07
-6.20687e-07
1.37378e-06
-1.35628e-06
-3.60553e-07
-4.30903e-06
1.6304e-07
-7.58116e-06
-7.91963e-06
4.28043e-06
-1.73026e-05
-8.46141e-06
6.63397e-06
-2.3972e-05
-1.30484e-05
5.65805e-06
-2.91775e-05
-1.67679e-05
3.38827e-06
-2.79631e-05
-2.05789e-05
-3.87604e-06
-2.57545e-05
-2.4717e-05
-3.79649e-06
-2.03136e-05
-2.45476e-05
-6.23007e-06
-1.14605e-05
-3.00347e-05
-7.12098e-06
-1.33776e-05
-2.83387e-05
-7.65998e-07
2.29266e-05
1.2064e-05
6.55235e-06
4.22013e-05
-2.41239e-06
-3.16713e-06
4.74043e-06
-1.2314e-05
-1.19339e-05
-9.06685e-06
-4.05701e-06
3.77727e-06
-1.35644e-05
-5.27485e-06
-1.21749e-06
-1.6512e-05
-1.09425e-06
1.77158e-06
-1.9904e-05
-3.28012e-06
2.22667e-06
-2.1947e-05
-4.08301e-06
3.30689e-06
-2.32607e-05
-5.19826e-06
3.98773e-06
-2.4833e-05
-5.56602e-06
4.61586e-06
-2.67048e-05
-4.44693e-06
5.00901e-06
-2.80143e-05
-1.48854e-06
5.35672e-06
-2.92024e-05
1.26935e-06
5.6031e-06
-2.95076e-05
2.52076e-06
5.61006e-06
-2.91008e-05
3.9106e-06
5.61469e-06
-2.8143e-05
4.07971e-06
5.16458e-06
-2.65505e-05
2.88541e-06
4.91072e-06
-2.59468e-05
1.69901e-06
4.39521e-06
-2.53585e-05
5.36954e-07
3.78686e-06
-2.45282e-05
-2.30206e-07
2.68489e-06
-2.32941e-05
-1.0996e-06
7.07364e-07
-2.11862e-05
-9.92919e-07
-1.97353e-06
-1.81297e-05
3.32789e-08
-4.88616e-06
-1.35936e-05
2.55532e-06
-8.25636e-06
-9.20249e-06
4.82327e-06
-1.01371e-05
-7.88922e-06
8.11532e-06
-7.95627e-06
-8.48172e-06
1.1813e-05
-5.07209e-06
-8.55824e-06
1.3448e-05
-3.21924e-06
-8.81823e-06
1.40024e-05
-1.95696e-06
-9.37133e-06
1.33244e-05
-1.51116e-06
-8.42177e-06
1.0438e-05
-2.56335e-06
-5.93236e-06
6.6602e-06
-3.7698e-06
-2.65607e-06
5.08142e-06
-4.82826e-06
1.67777e-06
4.80583e-06
-4.37895e-06
5.10279e-06
5.8311e-06
-4.22072e-06
6.76985e-06
5.86601e-06
-3.94658e-06
4.71292e-06
6.97966e-06
-1.81203e-06
8.71009e-06
-5.81018e-08
-4.28457e-06
-2.71772e-06
-1.4321e-07
-1.74102e-06
-5.69826e-06
-2.09566e-06
-1.22266e-06
-2.83958e-06
-3.60638e-07
-2.06271e-07
-4.2578e-06
-1.1071e-06
3.80739e-07
-3.10878e-06
-2.45816e-07
2.37697e-07
-3.1454e-06
5.64862e-07
3.56756e-07
-2.25806e-06
6.52363e-07
2.64019e-07
-1.24303e-06
5.69935e-07
5.16298e-07
-6.05894e-07
1.392e-07
5.27052e-07
7.74095e-08
9.4228e-09
3.53942e-07
4.53409e-07
-3.75175e-08
8.99648e-08
5.01021e-07
-7.57738e-08
-7.89059e-08
3.3057e-07
-1.72029e-07
-1.49176e-07
2.12817e-07
-2.47991e-07
-1.66635e-07
1.9962e-07
-3.02298e-07
-1.62561e-07
2.19106e-07
-3.33735e-07
-1.49465e-07
2.52547e-07
-3.52724e-07
-1.35567e-07
2.78639e-07
-3.61255e-07
-1.2498e-07
3.02441e-07
-3.63236e-07
-1.19047e-07
3.17165e-07
-3.60907e-07
-1.16521e-07
3.26128e-07
-3.57079e-07
-1.16637e-07
3.29955e-07
-3.52449e-07
-1.17916e-07
3.30387e-07
-3.47704e-07
-1.20158e-07
3.28264e-07
-3.42087e-07
-1.22924e-07
3.23948e-07
-3.35737e-07
-1.2632e-07
3.18994e-07
-3.28964e-07
-1.30372e-07
3.13864e-07
-3.22021e-07
-1.34949e-07
3.08431e-07
-3.15064e-07
-1.40547e-07
3.03267e-07
-3.07798e-07
-1.46309e-07
2.9733e-07
-3.0089e-07
-1.52939e-07
2.92049e-07
-2.94098e-07
-1.59014e-07
2.85019e-07
-2.881e-07
-1.66967e-07
2.78095e-07
-2.81221e-07
-1.74595e-07
2.67219e-07
-2.75726e-07
-1.86383e-07
2.54182e-07
-2.68349e-07
-2.0311e-07
2.38216e-07
-2.60018e-07
-2.34538e-07
2.24682e-07
-2.48151e-07
-2.86155e-07
2.23065e-07
-2.34241e-07
-3.69417e-07
2.35626e-07
-2.18241e-07
-4.8681e-07
2.81414e-07
-2.07581e-07
-6.31118e-07
3.52474e-07
-2.08433e-07
-7.54844e-07
4.45386e-07
-2.35293e-07
-7.92072e-07
5.41624e-07
-2.95103e-07
-7.17466e-07
7.73478e-07
-3.58426e-07
-6.07735e-07
1.35417e-06
-4.07086e-07
-4.7434e-07
2.22374e-06
-5.58336e-07
-5.6137e-08
2.93466e-06
-1.05431e-06
1.42491e-06
1.82076e-06
-1.71137e-06
-1.40985e-06
-2.35947e-06
1.02158e-06
-9.47046e-06
-3.392e-06
3.56543e-06
-1.64791e-05
-4.7475e-06
3.22892e-06
-2.53466e-05
-6.83789e-06
2.60194e-06
-3.15173e-05
-8.71274e-06
-1.94741e-06
-3.24235e-05
-1.59359e-05
-3.76963e-06
-3.23785e-05
-2.26925e-05
-1.99855e-06
-2.92483e-05
-2.43618e-05
-3.2561e-06
-3.23332e-05
-2.39066e-05
-2.48269e-06
-3.07536e-05
-3.06201e-05
5.92971e-08
3.17529e-05
-2.43428e-05
1.57694e-06
4.49847e-05
-3.41868e-06
-3.21594e-06
-1.48469e-06
2.94678e-06
-9.37182e-06
-1.84227e-05
5.76561e-06
5.23601e-06
-2.67416e-05
2.67996e-06
3.70353e-07
-2.98985e-05
-5.06026e-07
2.56816e-06
-3.32425e-05
-3.15523e-06
3.20245e-06
-3.42528e-05
-7.39218e-06
4.29407e-06
-3.47317e-05
-9.55858e-06
4.80035e-06
-3.49316e-05
-1.04748e-05
5.07604e-06
-3.51089e-05
-9.52666e-06
5.22726e-06
-3.50056e-05
-6.83628e-06
5.22593e-06
-3.46957e-05
-4.21063e-06
5.1622e-06
-3.49747e-05
-2.55448e-06
5.35207e-06
-3.54022e-05
-7.79055e-07
5.11859e-06
-3.56305e-05
-4.10458e-07
4.72059e-06
-3.59898e-05
-8.14894e-07
4.06277e-06
-3.61956e-05
-1.24412e-06
3.15033e-06
-3.53708e-05
-2.01603e-06
1.72666e-06
-3.3761e-05
-1.14955e-06
-6.96483e-07
-3.14125e-05
-3.62605e-07
-3.09958e-06
-2.81843e-05
1.56538e-06
-5.81542e-06
-2.39071e-05
3.89982e-06
-8.1832e-06
-1.90595e-05
7.41406e-06
-9.75365e-06
-1.43414e-05
9.75486e-06
-9.70218e-06
-1.31199e-05
1.16649e-05
-4.80889e-06
-1.27354e-05
1.29086e-05
-1.49517e-06
-1.34334e-05
1.33165e-05
8.28037e-07
-1.44067e-05
1.28388e-05
2.14169e-06
-1.51033e-05
1.19068e-05
2.11788e-06
-1.51218e-05
9.8819e-06
5.75401e-07
-1.39746e-05
7.35557e-06
-1.8447e-06
-1.1567e-05
6.96661e-06
-4.29731e-06
-7.14375e-06
6.36523e-06
-5.98588e-06
-1.04441e-06
6.84184e-06
-7.11198e-06
4.02326e-06
7.87462e-06
-7.0769e-06
4.74116e-06
1.21192e-05
-5.85752e-06
1.54344e-05
-1.98315e-06
-4.90389e-06
-1.77304e-06
3.15161e-07
-1.85812e-06
-6.12139e-06
-2.62893e-06
-5.81677e-07
-1.94647e-06
-2.16692e-06
4.19782e-07
-3.07524e-06
-2.18337e-06
1.23045e-06
-2.12133e-06
-1.79282e-06
1.02093e-06
-2.32342e-06
-6.07095e-07
7.00414e-07
-1.94202e-06
1.04451e-08
3.78423e-07
-1.26928e-06
3.49876e-07
5.1263e-07
-7.57241e-07
2.03397e-08
6.69442e-07
6.70444e-08
-1.42176e-07
6.57757e-07
6.55233e-07
-1.87885e-07
4.2801e-07
8.56195e-07
-1.25303e-07
1.85535e-07
7.13669e-07
-1.40577e-07
4.34886e-08
5.36277e-07
-1.81465e-07
-3.7305e-08
4.96023e-07
-2.15602e-07
-8.63767e-08
5.05605e-07
-2.37508e-07
-1.17414e-07
5.39078e-07
-2.55582e-07
-1.38148e-07
5.65095e-07
-2.659e-07
-1.52871e-07
5.88713e-07
-2.71748e-07
-1.6415e-07
6.01423e-07
-2.73245e-07
-1.73975e-07
6.07455e-07
-2.71786e-07
-1.82548e-07
6.06792e-07
-2.68591e-07
-1.90094e-07
6.02571e-07
-2.64966e-07
-1.97527e-07
5.9571e-07
-2.60369e-07
-2.04836e-07
5.8615e-07
-2.55235e-07
-2.12266e-07
5.7532e-07
-2.49244e-07
-2.19728e-07
5.6402e-07
-2.43007e-07
-2.2689e-07
5.52422e-07
-2.37143e-07
-2.34052e-07
5.41527e-07
-2.31365e-07
-2.40799e-07
5.2972e-07
-2.25911e-07
-2.4851e-07
5.19562e-07
-2.2001e-07
-2.56886e-07
5.08313e-07
-2.15128e-07
-2.67373e-07
4.98226e-07
-2.09784e-07
-2.79537e-07
4.84472e-07
-2.05233e-07
-2.9683e-07
4.70555e-07
-1.99131e-07
-3.19652e-07
4.54958e-07
-1.93976e-07
-3.53123e-07
4.45735e-07
-1.87536e-07
-3.9728e-07
4.49635e-07
-1.82368e-07
-4.49619e-07
4.67818e-07
-1.79715e-07
-4.99092e-07
5.14793e-07
-1.83764e-07
-5.2312e-07
5.77111e-07
-2.00407e-07
-5.13911e-07
6.67731e-07
-2.3137e-07
-4.4144e-07
7.56608e-07
-2.86904e-07
-2.27598e-07
9.25473e-07
-3.65196e-07
1.57243e-07
1.43861e-06
-4.67752e-07
4.7306e-07
2.50317e-06
-5.92121e-07
1.14531e-06
3.46008e-06
-1.18104e-06
2.82597e-06
2.1792e-06
-1.83232e-06
-5.02008e-07
3.68026e-07
7.65068e-07
-8.12661e-06
2.68116e-06
1.61785e-06
-1.54621e-05
1.54329e-06
1.00463e-06
-2.3728e-05
9.08569e-07
5.03843e-07
-2.90576e-05
-1.07504e-06
-2.28799e-06
-3.17036e-05
-9.24879e-06
-3.97634e-06
-3.14859e-05
-1.67215e-05
-6.15213e-06
-2.67746e-05
-1.96073e-05
-9.61261e-06
-2.41521e-05
-1.74515e-05
-7.91352e-06
-2.55828e-05
-2.68977e-05
-4.65659e-06
3.39012e-05
-5.19588e-05
5.3749e-07
4.31331e-05
-1.62758e-06
-3.12923e-06
-1.2124e-05
2.48813e-05
-6.98746e-06
-2.14886e-05
1.01821e-05
3.8955e-06
-2.99888e-05
1.13201e-05
-8.06841e-08
-3.02764e-05
-1.63619e-06
1.43282e-06
-3.35861e-05
-1.12488e-06
1.26405e-06
-3.44536e-05
-1.03522e-05
3.79729e-06
-3.75151e-05
-1.14838e-05
4.92398e-06
-4.14175e-05
-1.26797e-05
6.03625e-06
-4.53524e-05
-1.17925e-05
6.11955e-06
-4.72917e-05
-1.05691e-05
5.60243e-06
-4.74619e-05
-8.89382e-06
4.79337e-06
-4.68134e-05
-7.30808e-06
4.06019e-06
-4.56476e-05
-5.37004e-06
3.38871e-06
-4.49294e-05
-3.72229e-06
2.56749e-06
-4.44473e-05
-3.28672e-06
1.96959e-06
-4.43432e-05
-1.86773e-06
5.05902e-07
-4.28381e-05
-2.19656e-06
-1.35537e-06
-4.04044e-05
-3.58399e-07
-3.27231e-06
-3.65793e-05
1.00523e-06
-5.25995e-06
-3.21659e-05
4.15514e-06
-7.10281e-06
-2.66243e-05
6.28403e-06
-8.04446e-06
-2.01582e-05
7.97009e-06
-7.15164e-06
-1.55879e-05
9.11622e-06
-4.02507e-06
-1.36998e-05
1.02408e-05
-5.01151e-07
-1.33121e-05
1.04796e-05
2.03975e-06
-1.40526e-05
9.89223e-06
4.1721e-06
-1.51289e-05
8.74953e-06
5.17616e-06
-1.61981e-05
7.34389e-06
5.65369e-06
-1.7089e-05
6.21156e-06
4.57934e-06
-1.7743e-05
5.78219e-06
2.23069e-06
-1.54179e-05
5.57081e-06
-9.54809e-07
-1.15834e-05
5.49116e-06
-3.02778e-06
-5.71508e-06
5.83105e-06
-4.9635e-06
1.15137e-08
8.587e-06
-6.55364e-06
3.43464e-06
1.68217e-05
-8.19298e-06
2.32764e-05
-4.4051e-06
-4.12421e-06
-6.63463e-07
1.70784e-06
-1.82092e-06
-5.95915e-06
-2.47875e-06
-8.80063e-07
-7.58303e-07
-2.12553e-06
9.31061e-09
-1.64949e-06
-2.31758e-06
1.20924e-06
-8.92668e-07
-2.42219e-06
1.3265e-06
-9.40302e-07
-1.49152e-06
1.1333e-06
-8.0637e-07
-9.33094e-07
5.9274e-07
-7.36066e-07
1.05841e-08
4.38441e-07
-5.68385e-07
-3.29488e-08
5.8638e-07
1.59504e-07
-2.35648e-07
7.28863e-07
8.42283e-07
-3.25091e-07
6.51042e-07
1.14532e-06
-2.09946e-07
4.78079e-07
1.06127e-06
-1.74355e-07
3.07749e-07
9.26152e-07
-2.19596e-07
1.61697e-07
9.05454e-07
-2.63438e-07
4.20505e-08
9.27248e-07
-3.02138e-07
-5.137e-08
9.63198e-07
-3.30824e-07
-1.2057e-07
9.89852e-07
-3.55686e-07
-1.72379e-07
1.01478e-06
-3.7437e-07
-2.12362e-07
1.02975e-06
-3.88455e-07
-2.43529e-07
1.03893e-06
-4.00417e-07
-2.68709e-07
1.04228e-06
-4.10406e-07
-2.89525e-07
1.0421e-06
-4.188e-07
-3.07457e-07
1.03806e-06
-4.24485e-07
-3.20969e-07
1.02873e-06
-4.29147e-07
-3.31022e-07
1.01911e-06
-4.33818e-07
-3.39434e-07
1.01016e-06
-4.37844e-07
-3.47193e-07
1.00174e-06
-4.4168e-07
-3.55046e-07
9.9518e-07
-4.45942e-07
-3.628e-07
9.88749e-07
-4.5142e-07
-3.71565e-07
9.8482e-07
-4.56654e-07
-3.81827e-07
9.81152e-07
-4.62726e-07
-3.94744e-07
9.79594e-07
-4.68607e-07
-4.12012e-07
9.77505e-07
-4.75893e-07
-4.39835e-07
9.80914e-07
-4.82638e-07
-4.82433e-07
9.87889e-07
-4.90378e-07
-5.39457e-07
1.00082e-06
-4.98058e-07
-6.02721e-07
1.01922e-06
-5.06255e-07
-6.55437e-07
1.03519e-06
-5.14514e-07
-6.64068e-07
1.04897e-06
-5.25335e-07
-5.85188e-07
1.03976e-06
-5.41234e-07
-4.07618e-07
1.03132e-06
-5.40843e-07
-1.0475e-07
1.01187e-06
-5.57591e-07
3.77044e-07
1.0987e-06
-6.54943e-07
1.12265e-06
1.53789e-06
-8.43878e-07
2.20602e-06
2.63936e-06
-1.21788e-06
4.18779e-06
3.61561e-06
-2.11538e-06
4.81206e-06
3.42576e-06
-1.71658e-06
-1.18931e-06
5.68391e-06
9.20594e-07
-8.78292e-06
1.07071e-05
-3.90252e-07
-1.61131e-05
1.10115e-05
-2.16108e-06
-2.25745e-05
1.1056e-05
-3.71236e-06
-2.56794e-05
9.2644e-06
-7.26973e-06
-2.90139e-05
2.54252e-06
-8.50037e-06
-3.2303e-05
-1.48056e-06
-1.19685e-05
-2.70385e-05
-8.16567e-06
-1.69916e-05
-9.05891e-06
-1.0729e-05
-2.23961e-05
-1.0222e-05
-1.82913e-05
-1.26348e-05
2.59095e-05
-6.28694e-05
7.55993e-06
4.98181e-05
-1.29646e-07
-3.94744e-06
-2.10083e-06
4.01113e-05
-1.05407e-05
-1.52799e-05
1.44835e-05
7.10093e-06
-1.39032e-05
1.37726e-05
-3.77104e-06
-6.87274e-06
-8.04046e-06
-5.9539e-07
-5.72148e-06
3.38549e-07
-2.5985e-06
-4.848e-06
-1.25989e-05
1.42277e-06
-6.88676e-06
-1.26763e-05
3.31159e-06
-1.60204e-05
-1.02109e-05
6.72545e-06
-3.09339e-05
-6.98867e-06
1.01658e-05
-4.4879e-05
-6.24063e-06
9.66255e-06
-5.48997e-05
-6.93027e-06
8.09292e-06
-6.04654e-05
-8.47639e-06
6.76688e-06
-6.33782e-05
-8.21049e-06
5.78668e-06
-6.23353e-05
-8.65522e-06
3.92564e-06
-6.18765e-05
-6.62461e-06
2.90383e-06
-6.01646e-05
-4.63927e-06
1.09382e-06
-5.77534e-05
-3.67525e-06
-9.18549e-07
-5.31206e-05
-2.87096e-06
-2.11131e-06
-4.73046e-05
-1.9182e-06
-2.89608e-06
-4.12268e-05
2.8435e-07
-2.18705e-06
-3.63527e-05
2.23381e-06
-7.70874e-07
-3.22363e-05
3.60569e-06
3.31365e-07
-3.09982e-05
4.74462e-06
3.25496e-06
-3.2981e-05
5.13922e-06
7.25869e-06
-3.7576e-05
5.34812e-06
9.9416e-06
-4.30138e-05
4.31146e-06
1.12623e-05
-4.71779e-05
1.87186e-06
1.12812e-05
-4.9328e-05
5.23512e-08
9.64311e-06
-4.96138e-05
-4.51738e-07
7.113e-06
-4.8431e-05
6.4396e-07
4.09974e-06
-4.51041e-05
2.70517e-06
-3.49392e-07
-4.06469e-05
4.53845e-06
-3.52908e-06
-3.17427e-05
3.65178e-06
-6.94693e-06
-2.13254e-05
7.19829e-06
-9.57278e-06
-1.10242e-05
1.49597e-05
-9.33972e-06
1.80801e-05
-9.5185e-06
-2.04804e-06
-8.49741e-08
1.76573e-06
-1.68426e-06
-5.48075e-06
-8.5662e-07
-2.07562e-06
2.34281e-07
-5.94997e-07
-1.03809e-06
-1.27495e-06
-1.42055e-06
1.34731e-07
2.94314e-08
-2.08871e-06
4.46406e-07
2.32844e-07
-1.4727e-06
7.02047e-07
9.67438e-08
-1.14706e-06
2.59782e-07
-1.46106e-07
-1.41686e-07
1.57851e-07
-4.8213e-07
1.73844e-08
2.50224e-07
9.12764e-08
-1.98534e-08
5.2354e-07
7.43548e-07
-1.69244e-07
6.33145e-07
1.02559e-06
1.27744e-08
5.93548e-07
9.54223e-07
1.47655e-07