/*--------------------------------*- C++ -*----------------------------------*\
| =========                 |                                                 |
| \\      /  F ield         | OpenFOAM: The Open Source CFD Toolbox           |
|  \\    /   O peration     | Version:  2.3.0                                 |
|   \\  /    A nd           | Web:      www.OpenFOAM.org                      |
|    \\/     M anipulation  |                                                 |
\*---------------------------------------------------------------------------*/
FoamFile
{
    version     2.0;
    format      ascii;
    class       volVectorField;
    location    "12";
    object      U;
}
// * * * * * * * * * * * * * * * * * * * * * * * * * * * * * * * * * * * * * //

dimensions      [0 1 -1 0 0 0 0];

internalField   nonuniform List<vector> 
6144
(
(0.00770519 0.0182496 0.00107859)
(0.00837364 0.00268995 0.00133399)
(0.00335093 -0.000673959 0.000835025)
(0.00353732 -0.00224092 0.000404744)
(0.00199096 -0.00459303 0.000987692)
(0.00211874 -0.0035842 0.000755979)
(0.00191624 -0.00400825 0.000228393)
(0.0021172 -0.00286494 -3.21344e-05)
(0.00211066 -0.00224388 -0.000512429)
(0.00231954 -0.00092982 -0.000665912)
(0.00254067 -7.19446e-05 -0.000743405)
(0.0027817 0.000544732 -0.000676221)
(0.00298598 0.000616641 -0.000737757)
(0.00314291 0.000578804 -0.000777216)
(0.00324888 0.000353208 -0.000913056)
(0.00332389 0.000195271 -0.00100068)
(0.00337985 3.89796e-06 -0.00112158)
(0.00341582 -8.37431e-05 -0.00119618)
(0.00344589 -0.000189066 -0.00127719)
(0.00346936 -0.000212164 -0.00132568)
(0.00348544 -0.000248199 -0.00137375)
(0.00350144 -0.0002396 -0.00140172)
(0.00351165 -0.00023938 -0.00142735)
(0.00352123 -0.000220426 -0.00144255)
(0.00352776 -0.000204815 -0.00145472)
(0.0035331 -0.000184167 -0.00146217)
(0.00353673 -0.000164578 -0.00146739)
(0.00353919 -0.000144417 -0.00147031)
(0.00354051 -0.000124089 -0.00147165)
(0.00354046 -0.000106037 -0.00147137)
(0.00354051 -8.21805e-05 -0.00147015)
(0.00353593 -7.57039e-05 -0.00146701)
(0.00354006 -2.6365e-05 -0.00146177)
(0.00351844 -7.18347e-05 -0.0014593)
(0.00354751 6.43697e-05 -0.00143988)
(0.00348771 -0.000124215 -0.00144515)
(0.00355868 0.000243493 -0.00140508)
(0.0034408 -0.000306308 -0.0014256)
(0.00356889 0.000572179 -0.00135044)
(0.00338105 -0.000688051 -0.00139602)
(0.00356664 0.00112304 -0.00125278)
(0.00331955 -0.00138178 -0.00133367)
(0.00353709 0.00190261 -0.00109405)
(0.00326024 -0.00250211 -0.00120796)
(0.00349527 0.00282425 -0.000904954)
(0.00315862 -0.0040694 -0.00100586)
(0.00341555 0.00413854 -0.000916983)
(0.00293667 -0.00552984 -0.000952392)
(0.00371888 0.0071053 -0.00188231)
(0.00292791 -0.00638449 -0.00160282)
(0.00551229 0.0133022 -0.00291868)
(0.00458696 -0.0132419 -0.00144928)
(0.00116591 0.0139392 -0.00270714)
(0.00276526 -0.0123515 -0.00345853)
(0.015945 0.0492021 -0.00573348)
(0.00501071 -0.0560868 -0.0143578)
(0.0075053 0.0701488 -0.0127005)
(0.00699059 -0.0449698 -0.0319182)
(-0.0296594 0.126425 -0.0695309)
(0.0592343 0.0476059 -0.116726)
(0.133863 -0.234064 -0.0198442)
(0.0861113 -0.0991214 -0.00730761)
(0.0396807 -0.171234 -0.0021282)
(0.0380694 -0.18253 0.00208544)
(0.0319712 -0.183933 0.00496127)
(0.0227155 -0.191882 0.00638297)
(0.0151768 -0.197281 0.0067143)
(0.0103189 -0.199083 0.00607634)
(0.00712361 -0.19761 0.00490608)
(0.00444976 -0.193368 0.00365131)
(0.00191994 -0.186911 0.00247685)
(-0.000195174 -0.17854 0.00114765)
(-0.00186772 -0.168257 -0.000166785)
(-0.0030123 -0.156297 -0.00129876)
(-0.00282172 -0.143171 -0.00211792)
(-0.0021207 -0.130441 -0.00317156)
(-0.00100772 -0.118224 -0.00388641)
(-0.00010035 -0.107225 -0.00486178)
(0.000420375 -0.0981503 -0.00547235)
(0.00157907 -0.0917097 -0.00559134)
(0.00359193 -0.0859267 -0.00587063)
(0.00540429 -0.080794 -0.00538757)
(0.00586176 -0.0755391 -0.00568445)
(0.00593567 -0.0703551 -0.00458998)
(0.00436356 -0.0664048 -0.00482505)
(0.00391104 -0.0613239 -0.00334603)
(0.00102082 -0.0575722 -0.00367607)
(-0.000460938 -0.04959 -0.00260034)
(-0.00501941 -0.0402617 -0.00361906)
(-0.0100888 -0.0201594 -0.00419374)
(-0.00532903 0.000598496 0.000438824)
(0.00177159 0.0115431 -0.00382705)
(0.00538048 0.0166938 -0.0102145)
(0.00763883 0.0210475 -0.00994267)
(0.0123557 0.0191964 -0.00600862)
(0.0147253 0.00951411 -0.00125949)
(0.013246 0.0184601 0.00335846)
(0.0158867 0.00882243 0.00435563)
(0.00674183 0.00464828 0.0038158)
(0.00843359 0.0038187 0.00394382)
(0.00418802 0.000319924 0.00481823)
(0.00469581 0.00103975 0.00421017)
(0.00372591 -0.000742186 0.00431897)
(0.00389467 -4.93562e-05 0.00382184)
(0.00380463 -0.000398048 0.00312789)
(0.00401362 0.000680423 0.00265438)
(0.00438352 0.00120393 0.00253053)
(0.00498246 0.00170602 0.00270633)
(0.0054708 0.00155221 0.00271302)
(0.00586362 0.0013675 0.00270287)
(0.00608393 0.000975337 0.00254289)
(0.0062507 0.000728033 0.00242749)
(0.00634094 0.0004468 0.00227206)
(0.00641441 0.000314288 0.0021814)
(0.00645829 0.00016832 0.00208216)
(0.00650049 0.000126503 0.00203081)
(0.00652656 7.23874e-05 0.00198027)
(0.00655492 7.59369e-05 0.00195947)
(0.00657333 6.92399e-05 0.00194055)
(0.00659167 8.91026e-05 0.00193733)
(0.00660441 0.000104116 0.00193718)
(0.00661533 0.000127066 0.00194384)
(0.00662255 0.000148875 0.00195289)
(0.00662736 0.000172124 0.00196481)
(0.00662984 0.000195406 0.00197842)
(0.00662975 0.000217195 0.00199379)
(0.0066286 0.000241623 0.00201045)
(0.00662055 0.000256579 0.00202852)
(0.0066232 0.000297851 0.00204827)
(0.00659075 0.000276406 0.00206876)
(0.00662665 0.000388122 0.00210129)
(0.0065292 0.000228346 0.0021125)
(0.00664449 0.000565998 0.00217634)
(0.00642364 3.0203e-05 0.00215693)
(0.00667158 0.000905356 0.00228015)
(0.00626981 -0.000411615 0.0022007)
(0.00670327 0.00149996 0.00245456)
(0.00607655 -0.00124453 0.00226542)
(0.00673459 0.0023876 0.00273263)
(0.00583319 -0.00261 0.00237688)
(0.00671204 0.00340173 0.00298081)
(0.00547601 -0.00462991 0.00255253)
(0.00644275 0.00470775 0.00276679)
(0.00466619 -0.00638011 0.00219858)
(0.00617294 0.00753912 0.000615263)
(0.00422872 -0.00455205 0.00063651)
(0.00895533 0.0149877 -0.00102231)
(0.00834294 -0.00453258 0.00108319)
(0.00556346 0.0261834 0.00464629)
(-0.00618713 -0.027453 0.00410396)
(0.0287984 0.0338052 0.00151452)
(0.0317702 -0.0489509 -6.13067e-05)
(-0.0322217 0.0315215 0.00385776)
(-0.0263388 -0.00969201 -0.0114772)
(-0.00447596 0.17544 0.00228387)
(0.187181 -0.00414467 -0.0666682)
(0.192657 -0.204884 -0.016167)
(0.0605685 0.0829937 0.00641653)
(-0.0345852 -0.124414 0.00964259)
(-0.0150695 -0.0907811 0.0128851)
(-0.0154978 -0.111144 0.0136923)
(-0.0227872 -0.134804 0.0141575)
(-0.0247295 -0.146139 0.013667)
(-0.0243793 -0.153485 0.0119117)
(-0.0234297 -0.157319 0.00945398)
(-0.0223682 -0.157965 0.00678011)
(-0.0209608 -0.155912 0.00450677)
(-0.0199706 -0.150986 0.00245813)
(-0.0191085 -0.143811 0.000853489)
(-0.0180766 -0.133442 -0.000358083)
(-0.0162459 -0.121292 -0.00169107)
(-0.0141527 -0.10994 -0.00307398)
(-0.0100579 -0.100452 -0.00426659)
(-0.00292083 -0.0893182 -0.00493167)
(0.0012691 -0.0782996 -0.004365)
(0.00265244 -0.066693 -0.00453324)
(0.00205924 -0.0549184 -0.00506178)
(0.00149073 -0.0443167 -0.00501866)
(0.00193379 -0.0348391 -0.00381396)
(0.00293205 -0.028413 -0.00173434)
(0.00356331 -0.0256061 -0.000352015)
(0.00192356 -0.0243003 0.00133771)
(-0.00095488 -0.0249106 0.00102184)
(-0.00567963 -0.0241005 0.00180994)
(-0.0121967 -0.0229611 -0.00149467)
(-0.0167745 -0.0143503 -0.00319868)
(-0.0144279 -0.00147144 0.0016095)
(-0.00568097 0.0072474 0.000595954)
(0.00166358 0.0150593 -0.00347593)
(0.00456398 0.0205222 -0.00230078)
(0.00580076 0.0190508 0.00797407)
(0.00798237 0.0116498 0.0187334)
(0.014931 0.0141269 0.00283714)
(0.0201312 0.00921109 0.00334816)
(0.00733395 0.0046257 0.00247188)
(0.0106622 0.00658391 0.00250837)
(0.00442816 0.0024638 0.00423374)
(0.00528848 0.00417002 0.00439757)
(0.0036179 0.0020529 0.00547596)
(0.00372701 0.00247999 0.00542228)
(0.00318771 0.00148807 0.00504375)
(0.00314699 0.00207607 0.0046413)
(0.00346003 0.00220973 0.00437807)
(0.00428119 0.00261797 0.00453109)
(0.00488182 0.00223563 0.00467036)
(0.00541187 0.0019444 0.00472365)
(0.0056235 0.00140913 0.00469511)
(0.00581136 0.0011096 0.00465455)
(0.00585988 0.000768109 0.00460562)
(0.00592944 0.000612706 0.00457595)
(0.00594249 0.000442591 0.00455402)
(0.00597373 0.000390179 0.00455065)
(0.00598098 0.00032486 0.00455278)
(0.00599922 0.000320764 0.00456791)
(0.00600488 0.00030832 0.00458416)
(0.0060141 0.000324155 0.00460874)
(0.00601675 0.00033509 0.00463396)
(0.00601837 0.000355478 0.00466227)
(0.00601597 0.000374804 0.00469001)
(0.00601112 0.000396288 0.00471878)
(0.00600368 0.000417543 0.00474795)
(0.00599383 0.000437795 0.00477715)
(0.00598192 0.000460137 0.0048056)
(0.00596539 0.000475437 0.00483319)
(0.00595276 0.000506807 0.00486046)
(0.00592195 0.000500861 0.00488482)
(0.00593052 0.000580897 0.00491288)
(0.00584127 0.000469723 0.00492525)
(0.00594015 0.000733452 0.00497757)
(0.0057005 0.000295138 0.00495223)
(0.00598317 0.00104338 0.00504636)
(0.00549163 -0.000118346 0.00495538)
(0.00607488 0.00159649 0.00513971)
(0.00522631 -0.000923814 0.00493171)
(0.00624327 0.00243954 0.00527116)
(0.00488361 -0.00227748 0.00486277)
(0.00637893 0.00350551 0.00530886)
(0.00442754 -0.00424774 0.00475899)
(0.00611144 0.00481868 0.00466507)
(0.00328963 -0.0053576 0.00439141)
(0.00409041 0.00724894 0.00161586)
(0.00252438 -0.00103028 0.00252043)
(0.00549479 0.0150222 0.000834272)
(0.00802206 0.00284115 0.00409051)
(0.0121157 0.0297342 0.00720662)
(0.00219375 -0.0279727 0.00695759)
(0.0346725 0.0191847 0.00166106)
(0.0460245 -0.0583993 0.00237808)
(-0.0694547 0.0628333 0.02041)
(-0.0734151 -0.103977 -0.0123276)
(-0.057209 0.196508 -0.0263496)
(0.189969 -0.040369 -0.04345)
(0.220134 -0.155096 -0.0151439)
(0.0824763 0.142703 0.0110245)
(0.077064 -0.13417 0.0170432)
(0.0411422 -0.0749017 0.0216779)
(0.0158786 -0.0970492 0.0208528)
(0.00203155 -0.114614 0.0188078)
(-0.0060687 -0.120324 0.0162873)
(-0.0119425 -0.123828 0.0125343)
(-0.0146024 -0.125092 0.0085991)
(-0.0172197 -0.123971 0.0046971)
(-0.0190093 -0.119173 0.00073567)
(-0.0209044 -0.113166 -0.00318145)
(-0.0236776 -0.106182 -0.00426096)
(-0.0201404 -0.0966942 -0.00586127)
(-0.0144041 -0.0831145 -0.00713644)
(-0.0123135 -0.068175 -0.00915556)
(-0.0126251 -0.0512173 -0.0158749)
(-0.0131239 -0.0156749 -0.0151059)
(-0.0103042 0.00459529 -0.0101118)
(-0.00453489 0.0191152 -0.00574661)
(0.000865867 0.023304 -0.00172312)
(0.00490765 0.0220558 0.00119889)
(0.00761298 0.0180115 0.0034729)
(0.00872457 0.0121932 0.00512312)
(0.00825038 0.00674753 0.00606346)
(0.00615668 0.0017703 0.00627556)
(0.00209987 -0.00204998 0.00566191)
(-0.00360399 -0.00424436 0.00549485)
(-0.0124179 -0.00486497 0.000965352)
(-0.0222951 -0.00160535 -0.00405667)
(-0.0197219 0.00487318 -0.00100762)
(-0.00808585 0.00723647 -0.000510776)
(-0.00176944 0.0138785 -0.00132542)
(0.000614389 0.0195965 0.00377962)
(0.000462067 0.0184576 0.0143234)
(0.0018644 0.0098255 0.0249305)
(0.014944 0.0119191 0.00215973)
(0.0239288 0.0091062 0.000406842)
(0.00688972 0.00236187 -0.00203485)
(0.0139775 0.00761612 -0.00269904)
(0.00478973 0.00119833 -0.000566042)
(0.0064408 0.00490426 0.00066624)
(0.00327469 0.00159394 0.00319062)
(0.00362422 0.00319042 0.00385503)
(0.00267235 0.00195803 0.00447801)
(0.00252574 0.00284899 0.00431513)
(0.00243231 0.00291653 0.00412053)
(0.00326646 0.00342163 0.00445957)
(0.00392121 0.00298991 0.00478863)
(0.00444942 0.00270229 0.00496257)
(0.00462953 0.00207215 0.00501857)
(0.00477916 0.00173835 0.00503255)
(0.00479198 0.00133318 0.00502908)
(0.00483656 0.00115071 0.00502987)
(0.00482552 0.000948647 0.00503608)
(0.00484384 0.000879484 0.00505103)
(0.00483864 0.000796928 0.0050698)
(0.00485193 0.00078094 0.00509542)
(0.00485277 0.000757934 0.00512183)
(0.00486139 0.000764584 0.00515384)
(0.00486457 0.000766651 0.00518218)
(0.00486742 0.000780805 0.00520997)
(0.00486654 0.000794746 0.00523587)
(0.00486283 0.000811534 0.00526274)
(0.00485622 0.000827768 0.00528956)
(0.00484671 0.000843097 0.00531548)
(0.00483455 0.00085986 0.00533956)
(0.00481878 0.000872612 0.00536154)
(0.00480403 0.000893104 0.00538226)
(0.00478181 0.000896684 0.00539732)
(0.00478012 0.000943016 0.005411)
(0.00472046 0.00088289 0.00541617)
(0.00479072 0.00105526 0.0054341)
(0.00459459 0.000743224 0.00540127)
(0.00485397 0.00131733 0.00545897)
(0.00439918 0.000362311 0.00535034)
(0.00499677 0.00179435 0.00549295)
(0.00415858 -0.000420527 0.00524551)
(0.00528493 0.00251783 0.00555757)
(0.0038192 -0.00179796 0.00505035)
(0.00568721 0.00349029 0.00557203)
(0.003207 -0.00365514 0.00475853)
(0.00542171 0.00460795 0.00483044)
(0.00186413 -0.00449115 0.0043031)
(0.0019999 0.00689321 0.00178568)
(0.00088778 -0.00268218 0.0036101)
(0.00281501 0.0114622 0.00329)
(0.00682055 -0.00599698 0.00634291)
(0.0164344 0.022549 0.00758606)
(0.00707351 -0.0306509 -0.000752984)
(0.0326679 0.0337161 0.00150692)
(0.0202354 -0.0241086 0.00797539)
(-0.0258846 0.116141 0.0172203)
(-0.0973644 -0.149545 0.000273198)
(-0.0775867 0.242986 -0.0810792)
(0.216776 -0.0843003 -0.0216708)
(0.248924 -0.134085 -0.0170608)
(0.0882831 0.115176 0.00280152)
(0.110628 -0.0562108 0.0146111)
(-0.0224145 0.0377026 0.0256405)
(-0.0284895 -0.0588091 0.0303566)
(-0.0281353 -0.0612845 0.0227695)
(-0.0301473 -0.0757351 0.0165075)
(-0.0317191 -0.085651 0.00817741)
(-0.0298213 -0.0868221 0.00113829)
(-0.0215576 -0.0845748 -0.004574)
(-0.0131043 -0.0748884 -0.00921287)
(-0.0131001 -0.0607879 -0.0126597)
(-0.0196229 -0.0469398 -0.0158918)
(-0.0266154 -0.0210524 -0.0184149)
(-0.0282679 0.0176581 -0.0213788)
(-0.0254713 0.043685 -0.0170554)
(-0.0201591 0.0610587 -0.0110551)
(-0.010153 0.068538 -0.004209)
(-0.000293462 0.0692708 0.000600809)
(0.00545765 0.0648757 0.00361445)
(0.00930545 0.059626 0.00591985)
(0.0103671 0.0521486 0.00702975)
(0.0100502 0.04505 0.0075125)
(0.0084871 0.0370288 0.00737587)
(0.00577118 0.0302163 0.00670015)
(0.00159642 0.0237884 0.00557581)
(-0.00435192 0.0189435 0.00368096)
(-0.0126462 0.0156574 0.000893218)
(-0.0206194 0.0144664 -0.0032706)
(-0.0240807 0.0135027 -0.00519343)
(-0.0169226 0.0106179 -0.00198279)
(-0.00798567 0.0101496 -0.00150769)
(-0.0038049 0.0150688 0.000610236)
(-0.00404433 0.0184371 0.00645222)
(-0.00705557 0.016497 0.0166357)
(-0.00874559 0.0081949 0.0265417)
(0.0156964 0.012751 0.00330203)
(0.027938 0.0133829 0.000581971)
(0.0106443 0.00197834 -0.00613805)
(0.0207181 0.0110672 -0.00644373)
(0.0102156 0.000370514 -0.0066651)
(0.0113835 0.00592568 -0.00461626)
(0.00519972 -0.000360832 -0.00152716)
(0.00427588 0.00194038 0.000264085)
(0.00164313 -0.000424237 0.00197323)
(0.00107917 0.00127989 0.0023636)
(0.000740515 0.00164968 0.00279002)
(0.00150913 0.00294683 0.00360678)
(0.00207952 0.00286702 0.00429795)
(0.00246007 0.00280441 0.0047169)
(0.00249134 0.00228779 0.00488645)
(0.00250184 0.00203018 0.00497063)
(0.00241108 0.00164728 0.00499666)
(0.00236926 0.00147612 0.00501295)
(0.00230288 0.0012698 0.00502157)
(0.00228006 0.00119696 0.00502973)
(0.0022558 0.00110946 0.00503711)
(0.00225407 0.00108868 0.00504845)
(0.00224893 0.00105955 0.00505929)
(0.00225288 0.00106001 0.00507243)
(0.00225432 0.00105867 0.00507955)
(0.00225682 0.00106873 0.00508605)
(0.0022582 0.00107717 0.00509004)
(0.00225846 0.0010867 0.00509052)
(0.00225732 0.00109482 0.00508652)
(0.00225388 0.00110209 0.00507756)
(0.00224682 0.00111167 0.00506081)
(0.00223804 0.00111862 0.00504156)
(0.00222706 0.00113435 0.0050213)
(0.00221387 0.00114041 0.00500035)
(0.0022078 0.00117364 0.00498006)
(0.0021784 0.00114503 0.00495687)
(0.00221688 0.00126131 0.00493974)
(0.00209046 0.00104417 0.00488785)
(0.00230744 0.00149028 0.0049064)
(0.00193834 0.000691565 0.00477271)
(0.00254444 0.00192384 0.00489588)
(0.00175959 -4.56441e-05 0.00459704)
(0.00301395 0.00259255 0.00493585)
(0.0014972 -0.00127245 0.00432326)
(0.00358972 0.00348874 0.00492884)
(0.000993256 -0.00259124 0.00397178)
(0.00287076 0.00465619 0.00403301)
(-0.000171555 -0.0024234 0.00349662)
(1.52492e-05 0.00700589 0.00141448)
(-0.000435126 -0.00320907 0.00358865)
(0.00359261 0.00827727 0.00340189)
(0.00328727 -0.0148815 0.00575549)
(0.0228515 0.0120219 0.00666174)
(-0.00144576 -0.0309887 -0.000205139)
(0.0337193 0.038124 0.0317002)
(0.029289 -0.066917 0.021073)
(0.0174778 0.0517904 0.065227)
(-0.119238 -0.138105 0.0308605)
(-0.0162674 0.212233 -0.175495)
(0.161768 -0.1288 0.00726568)
(0.214615 -0.071245 -0.014341)
(0.0806727 0.106067 -0.00260242)
(0.0860907 0.0349476 0.0103088)
(0.0167864 0.0528001 0.0134294)
(0.0266572 -0.00753992 0.00983673)
(-0.0052504 -0.0182207 0.00388458)
(-0.0125695 -0.0328324 -0.00280717)
(-0.0133887 -0.0323818 -0.010651)
(-0.0123887 -0.0189814 -0.0195116)
(-0.0163401 0.00642659 -0.0237144)
(-0.0222544 0.0498109 -0.0233986)
(-0.0277142 0.0742885 -0.0187192)
(-0.0303461 0.0942007 -0.0165063)
(-0.0295446 0.10881 -0.0126439)
(-0.0225831 0.116181 -0.00811612)
(-0.0150765 0.119325 -0.00253788)
(-0.00817044 0.119121 0.00201912)
(-0.0023964 0.11631 0.00543825)
(0.00224697 0.112345 0.00741939)
(0.00529726 0.106305 0.00788532)
(0.00753948 0.0999675 0.00758745)
(0.00881218 0.0916295 0.00645677)
(0.00913146 0.0832754 0.00480779)
(0.00831897 0.0736186 0.00279412)
(0.0065602 0.0649159 0.000630998)
(0.0035292 0.0551439 -0.00168818)
(-0.000484592 0.0466226 -0.00387221)
(-0.00562665 0.0375761 -0.00575534)
(-0.00970541 0.0298243 -0.0068547)
(-0.0106391 0.0213574 -0.00583633)
(-0.00593337 0.0168402 -0.00336437)
(-0.00324122 0.0164505 -0.00127657)
(-0.00371577 0.0196656 0.00199939)
(-0.0072932 0.0198116 0.00772643)
(-0.0134684 0.0165635 0.016435)
(-0.0183996 0.00828689 0.0251598)
(0.0147438 0.0159073 0.00363017)
(0.0288313 0.0198838 0.00436535)
(0.0151508 0.00171919 -0.0061759)
(0.0254884 0.0131833 -0.00345863)
(0.0181608 -0.00180814 -0.00816056)
(0.0190476 0.00642344 -0.0071525)
(0.011741 -0.000879226 -0.00537472)
(0.00794276 0.00249543 -0.00296631)
(0.00359607 -0.00259689 -0.00116548)
(0.0012327 -0.00139366 -0.00059941)
(-0.000424118 -0.00124876 0.000334119)
(2.94507e-05 0.00089266 0.00189318)
(0.00088692 0.00149872 0.00318597)
(0.00131375 0.00202399 0.00396887)
(0.00129102 0.00188895 0.00435414)
(0.00120666 0.001906 0.00454329)
(0.00105301 0.00167915 0.00461087)
(0.000948661 0.00162239 0.00463517)
(0.000853517 0.00147938 0.00462818)
(0.000804516 0.00145265 0.00460691)
(0.000777347 0.00138886 0.00457387)
(0.000776906 0.00138327 0.00453779)
(0.000785186 0.0013603 0.00449309)
(0.000802769 0.00136397 0.00444956)
(0.00082746 0.00136527 0.00440694)
(0.000856925 0.00137441 0.00436661)
(0.00088881 0.00138211 0.00432505)
(0.00092013 0.00139176 0.00428172)
(0.000948139 0.00140151 0.00423583)
(0.000972585 0.00141235 0.00418847)
(0.000995188 0.00142424 0.00414233)
(0.0010158 0.0014306 0.00409577)
(0.00102845 0.00144537 0.0040443)
(0.00104462 0.00145031 0.00399437)
(0.00105937 0.00147793 0.00394441)
(0.00107015 0.00147031 0.0038976)
(0.0011109 0.00155359 0.00385843)
(0.00107954 0.0014384 0.00382589)
(0.00126721 0.00177035 0.00383191)
(0.00105386 0.00118212 0.00376319)
(0.0015803 0.00219579 0.00386869)
(0.00103387 0.000611938 0.00368102)
(0.00210598 0.00288252 0.00397384)
(0.000979584 -0.000240558 0.00354699)
(0.00261213 0.00389414 0.00400371)
(0.000643336 -0.00080094 0.00327302)
(0.00168118 0.00542489 0.0031081)
(-0.000347133 -0.000544116 0.0028341)
(0.000126222 0.00723447 0.00142009)
(0.000596491 -0.00384994 0.00389026)
(0.00752409 0.00572249 0.00319124)
(0.00588185 -0.0171615 0.00583968)
(0.0202567 0.00224808 0.004542)
(0.00172861 -0.018693 0.0155664)
(0.0302558 0.00841072 0.0482557)
(-0.000384465 -0.0200267 0.0456896)
(0.00405979 0.0526905 0.102034)
(-0.109031 -0.112286 0.0775396)
(0.0468396 0.0445602 -0.177267)
(0.0873306 -0.0903634 0.0142753)
(0.179704 -0.0258765 -0.0179583)
(0.084127 0.129883 -0.00797767)
(0.0838369 0.115444 -0.000804105)
(0.031667 0.118803 -0.00163408)
(0.0178429 0.113188 -0.00830141)
(0.00105371 0.108934 -0.010507)
(-0.00772864 0.117771 -0.015553)
(-0.0154221 0.12677 -0.01502)
(-0.0196183 0.143251 -0.0150745)
(-0.0232761 0.152244 -0.0111506)
(-0.022264 0.163341 -0.00838174)
(-0.0217635 0.167408 -0.00404048)
(-0.0203196 0.173238 -0.0014761)
(-0.0186698 0.173788 0.00256062)
(-0.0153212 0.174997 0.0051647)
(-0.0112664 0.172709 0.00827642)
(-0.00704482 0.170898 0.0103343)
(-0.00284958 0.166772 0.0120315)
(0.00124866 0.162512 0.0126276)
(0.00467154 0.156247 0.0126922)
(0.00803847 0.149673 0.0121945)
(0.0111446 0.141062 0.0117012)
(0.0138387 0.132158 0.0108567)
(0.0152258 0.120385 0.00972904)
(0.015396 0.108692 0.00833375)
(0.0139166 0.0942324 0.00662309)
(0.0114133 0.0804652 0.00472264)
(0.00767696 0.0657004 0.00269842)
(0.00361735 0.0508509 0.00120439)
(-0.000343555 0.0370738 0.000778691)
(-0.0041927 0.0255611 0.000877197)
(-0.00604412 0.0193845 0.00120686)
(-0.0062799 0.0170627 0.00319496)
(-0.00927304 0.0168175 0.00758581)
(-0.0163675 0.0130644 0.015022)
(-0.0212744 0.00600501 0.0221423)
(0.0121736 0.0186146 0.00450646)
(0.0298271 0.0277671 0.00999673)
(0.0140221 -0.00402852 0.000784854)
(0.0234106 0.0116394 0.00688425)
(0.019863 -0.00920399 -0.000599087)
(0.0206219 0.00393844 -0.00663703)
(0.0158311 -0.00328594 -0.00525195)
(0.0111813 0.00263103 -0.00328214)
(0.00665129 -0.00274302 -0.00174463)
(0.00141025 -0.00246458 -0.00146869)
(-0.00152153 -0.00334581 -0.00115548)
(-0.00210645 -0.00137155 0.000129511)
(-0.0015713 -0.000326261 0.00165079)
(-0.00126243 0.000724272 0.00266497)
(-0.00143384 0.000955309 0.0031815)
(-0.00163585 0.00133548 0.00343989)
(-0.00189449 0.0013693 0.00352469)
(-0.00205432 0.00152434 0.00355415)
(-0.00219213 0.0015168 0.00354041)
(-0.00224356 0.00160341 0.00352065)
(-0.00225745 0.00161436 0.00348285)
(-0.00222808 0.00167311 0.0034406)
(-0.00217963 0.00169138 0.00338867)
(-0.00211848 0.00172514 0.00333842)
(-0.00205405 0.00174377 0.00328295)
(-0.00198713 0.00176542 0.00323167)
(-0.00191986 0.00178253 0.00318215)
(-0.00185138 0.00179991 0.00313811)
(-0.00178324 0.00181635 0.00309844)
(-0.0017167 0.00183206 0.00306276)
(-0.00165476 0.00184808 0.00302895)
(-0.00159563 0.00186187 0.00299745)
(-0.00154287 0.00188028 0.00296634)
(-0.00148629 0.00188751 0.00293877)
(-0.00144273 0.00191174 0.00291079)
(-0.00139821 0.00190854 0.00289297)
(-0.00135776 0.00195995 0.0028801)
(-0.00133513 0.00189618 0.0028955)
(-0.00120406 0.00212066 0.0029337)
(-0.00130022 0.00169015 0.00298898)
(-0.000927407 0.00251703 0.00309271)
(-0.00128111 0.00126457 0.00310645)
(-0.000545583 0.00322144 0.00334306)
(-0.00130462 0.000848236 0.00322037)
(-0.000360718 0.00433741 0.00344877)
(-0.00155786 0.000854131 0.00314602)
(-0.0011643 0.00597675 0.00266929)
(-0.00197428 0.000448036 0.00274694)
(-0.00080774 0.00761373 0.00183205)
(-0.000270204 -0.0045049 0.00405922)
(0.0074306 0.00583343 0.00505876)
(0.00675133 -0.0123155 0.00708708)
(0.0111507 0.00240661 0.00380118)
(0.00682478 -0.00660789 0.00630827)
(-0.00590908 -0.0103033 0.0427227)
(-0.0393232 -0.0215413 0.0711809)
(0.020934 -0.00670563 0.106024)
(-0.0481322 -0.103296 0.080154)
(0.0427455 -0.114316 -0.173232)
(0.0504363 -0.0860891 0.0138521)
(0.0860327 0.0772818 -0.010262)
(0.0472864 0.213908 -0.00607669)
(0.0479999 0.235254 0.00523057)
(0.0302326 0.24527 0.00444111)
(0.0215594 0.245623 0.00481246)
(0.0073196 0.244258 0.000283255)
(-0.000265838 0.248009 -0.000307163)
(-0.00773658 0.246893 -0.000242654)
(-0.0119167 0.248517 0.00121408)
(-0.0147465 0.247206 0.00297885)
(-0.0170867 0.24767 0.00459792)
(-0.0183011 0.248541 0.0063871)
(-0.0182268 0.248827 0.00820608)
(-0.0172803 0.245303 0.00980142)
(-0.0156262 0.241998 0.0113041)
(-0.0131587 0.23698 0.0129664)
(-0.0102558 0.231977 0.0140384)
(-0.00672398 0.225701 0.0149356)
(-0.00244633 0.218898 0.0155903)
(0.00227637 0.211806 0.015734)
(0.00763737 0.204599 0.0157235)
(0.0129024 0.196516 0.0159042)
(0.0177901 0.188726 0.0162646)
(0.0213062 0.179167 0.0161148)
(0.0235629 0.169188 0.0156173)
(0.0247731 0.156354 0.0154439)
(0.024338 0.141844 0.0141918)
(0.0227719 0.124681 0.0117908)
(0.020306 0.106094 0.00985176)
(0.0166822 0.0862507 0.0074003)
(0.0116038 0.0657061 0.0043913)
(0.00429836 0.045366 0.00225229)
(-0.00318396 0.0263073 0.00267646)
(-0.0112068 0.0202211 0.00610303)
(-0.0231902 0.0117797 0.0109236)
(-0.0364296 0.00427408 0.0178563)
(0.0030998 0.0132385 0.00188817)
(0.0320536 0.0331763 0.0117986)
(0.00837199 -0.00692974 0.00656741)
(0.0135948 0.0124355 0.0130351)
(0.0133655 -0.012172 0.00804531)
(0.0151534 -0.000114104 -4.56831e-05)
(0.0145224 -0.00699136 -0.00262593)
(0.0110694 0.00100485 -0.00318721)
(0.00857265 -0.00214351 -0.00109168)
(0.00214278 -0.00213049 -0.00116495)
(-0.00208641 -0.00418783 -0.000803526)
(-0.00302906 -0.00307052 6.31901e-05)
(-0.0023123 -0.0022847 0.00152121)
(-0.00162423 -0.00103138 0.0027791)
(-0.00161139 -0.000332762 0.00346638)
(-0.00173087 0.000480416 0.00386386)
(-0.00193444 0.00090674 0.00402044)
(-0.00203888 0.00137007 0.00410204)
(-0.00214082 0.00159455 0.00411454)
(-0.00216144 0.001847 0.00411736)
(-0.0021623 0.00197116 0.00410129)
(-0.00212266 0.00210634 0.00408561)
(-0.00207639 0.0021657 0.00406936)
(-0.00201401 0.00222229 0.00407017)
(-0.00194656 0.0022551 0.00407335)
(-0.00187477 0.00228284 0.00408551)
(-0.00180184 0.00230233 0.0041033)
(-0.00172674 0.00231941 0.00412756)
(-0.00165076 0.0023339 0.00415653)
(-0.00157496 0.00234698 0.00418959)
(-0.00150205 0.00235971 0.00422512)
(-0.0014292 0.00236916 0.00426372)
(-0.00136225 0.00238189 0.00430327)
(-0.00128849 0.00238561 0.00434701)
(-0.00122586 0.00240204 0.00439026)
(-0.00115738 0.00239345 0.00443889)
(-0.0010911 0.00242411 0.00448896)
(-0.001021 0.00239227 0.00455607)
(-0.000903496 0.00254661 0.00462404)
(-0.000896865 0.00229075 0.00472252)
(-0.000618339 0.00295659 0.00481194)
(-0.000762405 0.00208568 0.00491083)
(-0.000252831 0.00375843 0.00501706)
(-0.000658275 0.00205807 0.00504529)
(-0.000170697 0.0051168 0.004911)
(-0.000793045 0.00228079 0.00482202)
(-0.000825696 0.00679903 0.00392213)
(-0.000960538 0.00060156 0.00398506)
(-0.000124829 0.00759121 0.00342529)
(0.00125469 -0.00610153 0.00516546)
(0.00576665 0.00544022 0.00742804)
(0.00891787 -0.00945415 0.0098807)
(0.00683833 0.00405193 0.0085869)
(0.0163914 -0.00743387 0.00489395)
(-0.0140796 0.00284899 0.0333283)
(-0.0567547 -0.0399083 0.056701)
(-0.0162002 -0.0331143 0.0876081)
(0.0158096 -0.0813799 0.0825455)
(0.0174444 -0.13448 -0.157297)
(-0.00191779 -0.0837369 0.0143216)
(-0.0131122 0.103316 -0.00409547)
(0.0141535 0.246811 -0.00746389)
(0.0187428 0.279397 0.0100688)
(0.0204782 0.299468 0.00928933)
(0.0175168 0.307301 0.0116695)
(0.00950159 0.310324 0.00824814)
(0.00207178 0.309836 0.00939318)
(-0.00399173 0.308856 0.00778198)
(-0.00788734 0.305787 0.00904178)
(-0.0109962 0.30228 0.00973762)
(-0.0134384 0.29798 0.0109427)
(-0.0152908 0.292712 0.01139)
(-0.0156834 0.286754 0.0129843)
(-0.0148759 0.27966 0.0137571)
(-0.0131048 0.272006 0.0148634)
(-0.0108273 0.263841 0.0155773)
(-0.00769502 0.25549 0.0162865)
(-0.00354979 0.24638 0.0167581)
(0.00123536 0.237023 0.0171434)
(0.00621212 0.227596 0.0166323)
(0.0110385 0.217601 0.0157331)
(0.0154952 0.209373 0.0151673)
(0.0200253 0.202119 0.0155989)
(0.0238092 0.196563 0.0156788)
(0.0267123 0.191499 0.0158941)
(0.029253 0.18608 0.0175426)
(0.0302105 0.18057 0.0188388)
(0.0298966 0.172488 0.0193499)
(0.0280832 0.16399 0.0198034)
(0.0250671 0.154398 0.0174134)
(0.0198619 0.143395 0.0112887)
(0.011313 0.130956 0.0033667)
(-0.000274327 0.113774 -0.00501975)
(-0.0131212 0.0913549 -0.0117651)
(-0.0258215 0.0610663 -0.0177868)
(-0.0338839 0.0225767 -0.0236343)
(-0.00143126 -0.0014727 -0.00280993)
(0.0321843 0.0362795 0.00804085)
(0.00108483 -0.00225962 0.00206964)
(0.00203082 0.0210085 0.00865085)
(0.00398416 -0.00593693 0.00791218)
(0.00556817 0.00341287 0.00204962)
(0.00857998 -0.0065636 -0.000211222)
(0.00863505 0.00125207 -0.00384211)
(0.00830505 -0.00117789 -0.00209665)
(0.00206118 -0.000875508 -0.00335623)
(-0.0030463 -0.00392017 -0.004064)
(-0.00506849 -0.00366458 -0.00380131)
(-0.00523362 -0.00328083 -0.00269741)
(-0.0053117 -0.00197733 -0.00150925)
(-0.00560649 -0.000991127 -0.000714832)
(-0.00587323 9.0552e-05 -0.000206917)
(-0.00615299 0.000758965 6.5938e-05)
(-0.006328 0.00138175 0.000227638)
(-0.00645831 0.00171043 0.000317754)
(-0.0064911 0.00200123 0.000371251)
(-0.00645879 0.00213359 0.000412851)
(-0.00635371 0.00224689 0.000462655)
(-0.00621944 0.00229858 0.000527066)
(-0.00609482 0.00235378 0.000605068)
(-0.00597559 0.00238836 0.000689617)
(-0.00586268 0.00242083 0.000781153)
(-0.00575596 0.00244571 0.000874076)
(-0.00565689 0.00246755 0.000967312)
(-0.00556567 0.00248711 0.00105939)
(-0.00548027 0.00250622 0.00114972)
(-0.00540126 0.00252597 0.00123695)
(-0.00532462 0.00254306 0.00132138)
(-0.00525739 0.00256393 0.00140169)
(-0.00518415 0.00257706 0.00147956)
(-0.00512576 0.00260432 0.00155333)
(-0.00506281 0.00260884 0.00162253)
(-0.0050249 0.00264892 0.00168722)
(-0.00497429 0.00264221 0.00175615)
(-0.0049439 0.00277142 0.00180455)
(-0.00489036 0.0026071 0.00189691)
(-0.00490533 0.00319127 0.00188802)
(-0.00483095 0.00254607 0.00203626)
(-0.00500709 0.00407405 0.00191611)
(-0.00486862 0.00280854 0.0020886)
(-0.00523372 0.00559079 0.00169418)
(-0.00473534 0.00329156 0.00182519)
(-0.00463307 0.00744368 0.000937647)
(-0.00349833 0.00104971 0.00123394)
(-0.00169239 0.00855431 0.00163364)
(-0.00140608 -0.00758346 0.00210591)
(0.000263802 0.00772641 0.00540694)
(0.00406013 -0.00805551 0.00699993)
(-0.00167897 0.0136051 0.0066223)
(0.0105549 -0.00851405 0.0097892)
(-0.0157899 0.0380131 0.0229307)
(-0.0444899 -0.0435373 0.049562)
(-0.0439843 -0.0339368 0.0686629)
(0.0404641 -0.121508 0.0710297)
(-0.0284637 -0.0594147 -0.165639)
(-0.0585473 -0.04549 -0.00062145)
(-0.130571 0.0331981 -0.0281611)
(-0.033552 0.187873 -0.00864327)
(-0.017138 0.195455 0.00739272)
(0.00167894 0.214307 0.00833154)
(0.00552014 0.220408 0.0101182)
(0.00381294 0.225626 0.00822186)
(-0.000494969 0.228426 0.00899094)
(-0.00503268 0.228599 0.00980445)
(-0.00901754 0.225094 0.0107925)
(-0.0113818 0.220148 0.0115292)