/*--------------------------------*- C++ -*----------------------------------*\
| =========                 |                                                 |
| \\      /  F ield         | OpenFOAM: The Open Source CFD Toolbox           |
|  \\    /   O peration     | Version:  2.3.0                                 |
|   \\  /    A nd           | Web:      www.OpenFOAM.org                      |
|    \\/     M anipulation  |                                                 |
\*---------------------------------------------------------------------------*/
FoamFile
{
    version     2.0;
    format      ascii;
    class       volVectorField;
    location    "12";
    object      U;
}
// * * * * * * * * * * * * * * * * * * * * * * * * * * * * * * * * * * * * * //

dimensions      [0 1 -1 0 0 0 0];

internalField   nonuniform List<vector> 
6144
(
(0.00725725 0.0166189 0.000618953)
(0.00840526 0.000835948 0.000840139)
(0.00274337 -0.00232891 0.00109826)
(0.00344538 -0.00326692 0.000620571)
(0.00150151 -0.00595232 0.00158995)
(0.00189657 -0.00438671 0.00121778)
(0.00153921 -0.00499619 0.00099403)
(0.00178998 -0.00367128 0.000712138)
(0.00177143 -0.00318841 -0.000151823)
(0.00194292 -0.0016537 -0.000405375)
(0.00209898 -0.000503788 -0.000488424)
(0.0023532 0.000428552 -0.000348458)
(0.00259647 0.000615215 -0.000334697)
(0.00277324 0.000630248 -0.000330969)
(0.00289548 0.000383023 -0.000449776)
(0.00297401 0.000196161 -0.000542089)
(0.00303237 -1.82477e-05 -0.000666094)
(0.00307092 -0.000124685 -0.000748088)
(0.00309807 -0.000232111 -0.00083043)
(0.00312293 -0.000259914 -0.000880855)
(0.0031349 -0.000288268 -0.000925584)
(0.00315042 -0.000274157 -0.000950299)
(0.00315577 -0.00026305 -0.000969726)
(0.00316222 -0.000232592 -0.000978432)
(0.00316399 -0.000203186 -0.000982826)
(0.00316454 -0.000167938 -0.000981781)
(0.00316281 -0.000130632 -0.000977455)
(0.00315933 -9.48177e-05 -0.000969676)
(0.00315455 -5.25552e-05 -0.000958543)
(0.00314727 -2.00485e-05 -0.000944355)
(0.00313921 2.69532e-05 -0.00092395)
(0.00312831 5.04325e-05 -0.000900999)
(0.00311717 9.87394e-05 -0.000865338)
(0.00310452 9.41646e-05 -0.00082732)
(0.00309273 0.000124155 -0.000765779)
(0.00308161 4.84172e-05 -0.000702385)
(0.00307355 8.23229e-06 -0.000608338)
(0.00307047 -0.000205441 -0.000525877)
(0.00307341 -0.000374792 -0.000436284)
(0.00308282 -0.000743754 -0.000420065)
(0.00308418 -0.000936299 -0.000506115)
(0.00311712 -0.00110849 -0.00078241)
(0.00318265 -0.000724722 -0.00125846)
(0.00333463 -6.03251e-05 -0.0018286)
(0.00344292 0.00106589 -0.00226041)
(0.00371462 0.00110525 -0.00245696)
(0.00381819 -4.16769e-05 -0.00294961)
(0.00360014 0.000905008 -0.00423325)
(-0.00106335 0.0145979 -0.00729311)
(-0.00100503 0.0347903 -0.0100155)
(0.0233745 0.0267775 -0.0135338)
(0.0426359 -0.0134721 -0.0139443)
(0.0453105 -0.0271605 -0.0203082)
(0.0452344 -0.0591354 -0.0243707)
(0.0354349 -0.0604866 -0.0272602)
(0.0314417 -0.0966546 -0.0198397)
(0.00303137 -0.0720243 -0.0176887)
(0.00176055 -0.107833 0.00558135)
(-0.0466459 -0.00231501 -0.0681423)
(0.03363 0.126485 0.0562771)
(0.140872 -0.274792 0.0693332)
(0.0956896 -0.161602 0.0330569)
(0.060313 -0.209618 0.0135738)
(0.0556345 -0.253324 0.00439057)
(0.0488884 -0.253184 0.00465128)
(0.0386051 -0.259142 0.00490303)
(0.0297263 -0.267004 0.00538846)
(0.0221839 -0.267223 0.000642409)
(0.0201415 -0.263332 -0.00210925)
(0.0192869 -0.254789 -0.00508692)
(0.0187026 -0.2442 -0.00399903)
(0.0184956 -0.235371 -0.000935333)
(0.00813931 -0.221296 -0.000699508)
(0.0115486 -0.190062 0.00729865)
(-0.00136395 -0.164026 0.000830371)
(-0.0330917 -0.105511 -0.00390546)
(-0.0279329 -0.0195261 0.011225)
(-0.0131733 0.0176503 -0.000706722)
(-0.00780467 0.0433518 -0.00910627)
(0.0053099 0.0497925 -0.00583832)
(0.00961531 0.055143 -0.00504285)
(0.0128408 0.0601254 -0.00453322)
(0.0179079 0.0589651 -0.00164669)
(0.0191364 0.0533231 0.00178633)
(0.0163402 0.0452196 0.00411991)
(0.0128542 0.0374258 0.00777835)
(0.0104128 0.0258446 0.010428)
(0.00825218 0.0154634 0.00525498)
(-0.00262556 0.0150975 0.00239116)
(-0.00815961 0.0276453 0.00399802)
(0.000209985 0.0340327 0.00640842)
(0.000950184 0.0408898 0.00522677)
(0.00495991 0.044129 0.00552568)
(0.0121363 0.037651 0.00566458)
(0.0186568 0.029668 0.00128162)
(0.028474 0.0200259 0.00601819)
(0.0137204 0.0163844 0.00264415)
(0.0165855 0.00612978 0.00366861)
(0.00553085 0.00195719 0.00323679)
(0.00835624 0.0018506 0.0030272)
(0.00271172 -0.00233631 0.00475236)
(0.00402248 8.28047e-05 0.00394475)
(0.00260588 -0.00203065 0.00478079)
(0.00306966 -0.00061444 0.00422287)
(0.00296446 -0.00120466 0.00367547)
(0.00312861 3.68138e-05 0.00306084)
(0.00338684 0.000767499 0.00284196)
(0.00398827 0.00160342 0.00304791)
(0.00456988 0.0015534 0.00317349)
(0.00501886 0.00140183 0.003234)
(0.0052846 0.000975495 0.00310902)
(0.0054597 0.000687997 0.00299485)
(0.0055578 0.000381311 0.00284329)
(0.00562902 0.000226963 0.00274582)
(0.00567158 7.99028e-05 0.00265309)
(0.00570787 3.49483e-05 0.00260231)
(0.00572883 -9.30999e-06 0.0025635)
(0.00574836 2.96287e-06 0.00254926)
(0.00575818 8.69702e-06 0.00254384)
(0.00576554 4.3233e-05 0.00255151)
(0.00576677 7.35001e-05 0.00256482)
(0.00576454 0.000112711 0.00258528)
(0.00575837 0.000152544 0.00260925)
(0.00574792 0.0001904 0.00263769)
(0.00573471 0.000234521 0.00267006)
(0.00571547 0.000264805 0.00270632)
(0.00569579 0.000313374 0.00274963)
(0.00566682 0.000325154 0.0027978)
(0.00564355 0.000375031 0.00286141)
(0.00560902 0.000342335 0.00293269)
(0.00558965 0.000371956 0.00303267)
(0.00556219 0.000241674 0.00314344)
(0.00556036 0.000192688 0.00328831)
(0.00556203 -0.000117695 0.00342556)
(0.0055967 -0.000317511 0.00354208)
(0.00564483 -0.000832166 0.00353388)
(0.00566895 -0.00108421 0.00330186)
(0.00567104 -0.00143509 0.00272745)
(0.00560819 -0.000991727 0.0018156)
(0.00577256 -0.00028871 0.000820252)
(0.00664696 0.00136588 5.52375e-05)
(0.00871537 0.00163824 -0.000363244)
(0.00759702 0.0022147 -0.00206754)
(-0.00256412 0.0113618 -0.00525566)
(-0.00933824 0.0262259 -0.00512083)
(0.0127364 0.026512 -0.000547425)
(0.0742175 -0.0130663 -0.0032085)
(0.0766625 -0.0298707 -0.0131239)
(0.0714004 -0.0251876 -0.0200504)
(0.0700189 -0.0247637 -0.0193739)
(0.0734241 -0.0155265 -0.00917737)
(0.084673 -0.0776834 0.0114966)
(0.0203249 -0.0631333 0.0172584)
(0.00700211 -0.153046 0.0557138)
(-0.0706676 0.00755958 -0.0940226)
(0.0201649 0.0685387 0.0306388)
(0.172609 -0.255228 0.106128)
(0.0943873 -0.0167699 0.0404303)
(0.0288821 -0.130772 0.00461559)
(0.0299522 -0.110099 0.0164956)
(0.0230333 -0.115834 0.0248661)
(0.00702123 -0.134256 0.0311176)
(-0.00319906 -0.144472 0.0321881)
(-0.00424452 -0.143215 0.0308422)
(-0.00470767 -0.135301 0.0314514)
(-0.0057875 -0.114876 0.0310362)
(-0.0104085 -0.091385 0.0385488)
(-0.018636 -0.0795493 0.0397078)
(-0.0331321 -0.0807714 0.0329612)
(-0.0362898 -0.0613999 0.036338)
(-0.0377191 -0.0469987 0.017254)
(-0.0527571 -0.020453 0.00286068)
(-0.043275 0.0243901 0.00909319)
(-0.0332387 0.0437708 0.0033948)
(-0.022638 0.0484338 0.00271304)
(-0.00801706 0.0503761 0.011455)
(0.00370116 0.0569157 0.0157014)
(0.0110203 0.0620721 0.0164678)
(0.0167543 0.059713 0.0161964)
(0.0125472 0.0454885 0.0157228)
(0.0033817 0.034915 0.0208271)
(-0.00429925 0.0291263 0.0250738)
(-0.0039667 0.0234416 0.0303467)
(-0.00792605 0.0140985 0.0311886)
(-0.00806192 0.000275105 0.0296354)
(-0.0133204 -0.0135777 0.0190193)
(-0.0179016 -0.0272853 0.0178791)
(-0.0153758 -0.0282726 0.0181772)
(-0.00599328 -0.0382426 0.0129462)
(0.00786924 -0.031585 0.000606936)
(0.0202986 -0.0107928 -0.00890319)
(0.042338 -0.00298326 0.00298095)
(0.0164144 0.0139927 0.00197958)
(0.0221913 0.00686349 0.00216734)
(0.00666221 0.00172048 0.000565655)
(0.0114036 0.00410195 0.000206895)
(0.00304998 -0.00120611 0.00274161)
(0.00449018 0.00240676 0.00297242)
(0.00204835 4.32123e-05 0.00481401)
(0.00270496 0.00182714 0.00491197)
(0.00227845 0.000865456 0.00514748)
(0.00212208 0.00166242 0.00481827)
(0.00223545 0.00191462 0.00442087)
(0.00308866 0.00263369 0.00453224)
(0.0038395 0.00236892 0.00474774)
(0.00444547 0.00210169 0.00487431)
(0.00469154 0.00152779 0.00488378)
(0.00485467 0.00117966 0.00486464)
(0.00488501 0.000806856 0.00483213)
(0.00492283 0.00062396 0.00481483)
(0.00491642 0.000447687 0.00480805)
(0.00492246 0.000387084 0.0048157)
(0.00491451 0.000327752 0.00483142)
(0.00491221 0.000327255 0.00485602)
(0.00490311 0.000325763 0.00488433)
(0.00489425 0.00035164 0.00491749)
(0.00488093 0.000376067 0.00495141)
(0.00486529 0.000410075 0.00498814)
(0.00484627 0.000444475 0.00502508)
(0.00482337 0.000478035 0.00506294)
(0.00479847 0.000515315 0.00510064)
(0.00476773 0.000541811 0.00513805)
(0.00473976 0.000582852 0.00517568)
(0.00470139 0.000593392 0.00521393)
(0.00467932 0.000637604 0.00525417)
(0.00464123 0.000613574 0.00529796)
(0.00464292 0.000646369 0.00534606)
(0.00463151 0.000544728 0.00540221)
(0.0046875 0.00052604 0.0054586)
(0.004742 0.000292862 0.00551183)
(0.00486622 0.000209692 0.00552193)
(0.00497161 -0.00010215 0.00546813)
(0.0050094 -6.68911e-05 0.00525077)
(0.00484796 -5.85545e-05 0.00481798)
(0.0043954 0.000836698 0.00414601)
(0.00412374 0.00237745 0.00354578)
(0.00490809 0.00579265 0.00286102)
(0.00653533 0.0111715 0.00157747)
(0.00157392 0.02318 -0.00121909)
(-0.00540743 0.0309057 -0.00146161)
(-0.000501542 0.0306121 0.00159848)
(0.0498042 0.000613622 -0.00211689)
(0.0856878 -0.0114061 -0.0120119)
(0.0887346 0.0358288 -0.031704)
(0.0843938 0.0797386 -0.0270635)
(0.105375 0.100611 0.00372596)
(0.135738 0.0805139 0.0278076)
(0.137063 0.01371 0.0477134)
(0.0207902 0.0435067 0.0664848)
(0.0860838 -0.202108 0.159536)
(-0.100991 0.0426396 -0.0513395)
(0.0500016 0.0370508 0.00491549)
(0.185725 -0.237858 0.11116)
(0.103586 0.0871527 0.0226374)
(0.0626877 -0.115598 0.0142585)
(0.0538193 -0.0179231 0.00932557)
(0.0342523 -0.0476194 0.0182298)
(0.0211156 -0.0398635 0.0125466)
(0.0050088 -0.0496716 0.0130931)
(0.00109885 -0.052191 0.0229721)
(0.000343654 -0.0569145 0.0328862)
(-0.00200742 -0.0567546 0.0320804)
(0.00206353 -0.041914 0.0183945)
(0.00731448 -0.0283495 0.0173779)
(-0.00512286 -0.0206533 0.017852)
(-0.0237832 -0.00548848 0.0110009)
(-0.0553486 0.0235899 0.0121161)
(-0.0621756 0.0453913 0.00773236)
(-0.0465155 0.0571552 0.0020083)
(-0.040125 0.0626074 -0.00282794)
(-0.0230003 0.0597065 0.00490507)
(-0.00668914 0.0622953 0.0139058)
(0.00775601 0.063131 0.0217595)
(0.0159514 0.0674911 0.0245002)
(0.0242107 0.0505294 0.0300852)
(0.0216146 0.0315726 0.0303013)
(0.00290379 0.0211945 0.0237601)
(-0.0135483 0.0150305 0.022878)
(-0.0169503 0.0167103 0.0258056)
(-0.0189999 0.0155357 0.0302701)
(-0.0183993 0.00911652 0.0326274)
(-0.0149653 -0.0052315 0.027204)
(-0.0154595 -0.0224056 0.0295529)
(-0.0204501 -0.0423289 0.0252057)
(-0.0134233 -0.047589 0.0214426)
(-0.00440614 -0.0515819 0.0187965)
(0.00527013 -0.0482107 0.00449878)
(0.0208255 -0.0285434 -0.00399937)
(0.0189587 0.0153228 0.00220059)
(0.0274421 0.0101182 0.001202)
(0.00841705 0.00107754 -0.00437455)
(0.0175596 0.00712529 -0.00480447)
(0.00493179 -0.00234929 -0.002958)
(0.005847 0.00271905 -0.00176435)
(0.00179245 -0.00196291 0.0014829)
(0.00200086 0.0017444 0.00260856)
(0.00126533 0.000512004 0.00412977)
(0.00124564 0.00201103 0.00420826)
(0.00105258 0.00218383 0.00396381)
(0.00189795 0.0031445 0.00423348)
(0.00274914 0.00292946 0.00463991)
(0.00338164 0.00273365 0.00490831)
(0.00360477 0.00214325 0.00501254)
(0.00372955 0.0017882 0.00505584)
(0.00373332 0.00137825 0.00507478)
(0.00374538 0.00117181 0.00509364)
(0.00371942 0.000969422 0.00511855)
(0.00371311 0.000888227 0.00514767)
(0.00369431 0.000811586 0.00518042)
(0.0036864 0.000795568 0.00521501)
(0.00367031 0.000781738 0.0052495)
(0.00365768 0.000795141 0.00528581)
(0.00364057 0.000809563 0.00531975)
(0.00362171 0.000834059 0.00535282)
(0.00360127 0.000858603 0.00538532)
(0.00357793 0.000883438 0.00541572)
(0.00355196 0.000910437 0.00544218)
(0.00352209 0.000929674 0.00546458)
(0.00349257 0.000960285 0.00548148)
(0.0034573 0.000967918 0.00549402)
(0.00343273 0.001004 0.00550128)
(0.00340354 0.000985366 0.00550587)
(0.00340721 0.00101602 0.00550531)
(0.00341105 0.000944519 0.00550323)
(0.00347494 0.000967369 0.00548956)
(0.0035338 0.000867893 0.00546214)
(0.00364835 0.000998646 0.0053899)
(0.00373055 0.00106792 0.00527179)
(0.00372715 0.00156994 0.00503993)
(0.00345382 0.00206449 0.00476276)
(0.00272579 0.00315366 0.00446093)
(0.0013347 0.0043018 0.0044178)
(-0.000606889 0.00721951 0.00459338)
(-0.00218476 0.0129598 0.00532748)
(-0.00380619 0.0228811 0.006204)
(-0.0031646 0.0244194 0.00689379)
(0.0184226 0.0147557 0.00414435)
(0.0607814 -0.00475478 -0.0119605)
(0.0704472 0.0354508 -0.0288618)
(0.0698662 0.0991685 -0.0236894)
(0.097861 0.133849 -0.0060671)
(0.128386 0.139618 0.0272095)
(0.138328 0.112604 0.0479901)
(0.127888 0.0823107 0.0562723)
(0.135019 0.122401 0.0752739)
(0.153691 -0.227982 0.167315)
(-0.1201 0.184211 0.029805)
(0.0502015 -0.0496627 0.0272828)
(0.139654 -0.190919 0.123989)
(0.0737212 0.110861 -0.00369997)
(0.0643992 -0.039687 0.0354265)
(0.0127905 0.0581109 0.0123509)
(0.027147 0.0299199 0.0240181)
(0.0148075 0.0437375 0.0227453)
(0.00998334 0.0422767 0.0159954)
(0.0076074 0.048121 0.00980757)
(-0.000727408 0.0538573 -0.000399557)
(-0.023353 0.0558985 0.00570312)
(-0.0404045 0.0481192 0.00332266)
(-0.0532658 0.0550543 0.00281528)
(-0.0671466 0.0684059 0.00583474)
(-0.0717253 0.0768961 0.00593058)
(-0.0654653 0.0823582 0.00226164)
(-0.0465008 0.0872504 -0.00470281)
(-0.0359352 0.0864445 -0.00727074)
(-0.0260249 0.0886759 0.000941606)
(-0.0119998 0.0790938 0.00965992)
(0.00172329 0.0821398 0.0196657)
(0.00855143 0.0735356 0.0288255)
(0.0103306 0.063136 0.0361219)
(0.0136052 0.0435857 0.0480962)
(0.00731824 0.0234361 0.0460557)
(-0.00948166 0.0189374 0.0413905)
(-0.0319205 0.0204961 0.0329876)
(-0.0429971 0.0253571 0.0267604)
(-0.0429642 0.0303662 0.0267158)
(-0.0356515 0.0272047 0.0276858)
(-0.0202684 0.0134168 0.0290123)
(-0.0153324 -0.00393766 0.0274047)
(-0.0231368 -0.0298437 0.0211826)
(-0.0201584 -0.0386167 0.0176405)
(-0.00937157 -0.04201 0.0149025)
(-0.00898234 -0.0389543 0.00235623)
(-0.00682302 -0.0248964 0.000782252)
(0.0213164 0.0213826 0.00440324)
(0.0311845 0.0170033 0.00466194)
(0.0148924 0.00224251 -0.0060226)
(0.025254 0.0117351 -0.0043646)
(0.0134919 -0.00306337 -0.00752267)
(0.0141062 0.00450968 -0.00672343)
(0.00534535 -0.0035061 -0.00290154)
(0.00285151 0.000536239 -0.000920714)
(0.000298237 -0.00201166 0.00143989)
(-0.000452043 -0.000163528 0.00213167)
(-0.000764672 0.000221854 0.00253067)
(4.75102e-05 0.00215329 0.00330458)
(0.000898446 0.00249173 0.00405672)
(0.00138783 0.00261985 0.0045312)
(0.00147002 0.00222287 0.00474423)
(0.0014394 0.00199449 0.00483515)
(0.00131514 0.00164305 0.00486485)
(0.00122126 0.00145997 0.00488389)
(0.00111881 0.00126099 0.00489948)
(0.00105069 0.00117647 0.00491518)
(0.000992513 0.00109143 0.00493207)
(0.000956322 0.00106411 0.00494979)
(0.000927659 0.00104041 0.00496139)
(0.000907649 0.00104445 0.00497079)
(0.000892323 0.00105072 0.00497665)
(0.000880036 0.00106474 0.00497915)
(0.000866548 0.00108035 0.00497536)
(0.000852522 0.0010986 0.00496722)
(0.000837536 0.00111992 0.00495544)
(0.000821835 0.00113672 0.00493705)
(0.00080678 0.00116173 0.00491109)
(0.000795912 0.00116914 0.0048789)
(0.000793164 0.00119754 0.00483848)
(0.000801505 0.00118266 0.00479005)
(0.000839972 0.00121665 0.00473638)
(0.000887113 0.00117541 0.00467192)
(0.000972096 0.00124915 0.00459282)
(0.0010207 0.0012807 0.00447856)
(0.00108098 0.00159678 0.00432934)
(0.00104613 0.00196962 0.00417108)
(0.000930394 0.00281341 0.00403128)
(0.000622493 0.00369832 0.00404282)
(-3.62672e-05 0.00481423 0.00415611)
(-0.00159332 0.00528242 0.00429634)
(-0.00442722 0.00628277 0.00446334)
(-0.00795009 0.00760527 0.00524644)
(-0.00982906 0.0108417 0.00680681)
(-0.00570271 0.0103062 0.00897611)
(0.0249842 -0.00200586 -0.00434864)
(0.0501255 0.00973835 -0.0156875)
(0.0490894 0.0723106 -0.0123109)
(0.0755209 0.107714 -0.00944261)
(0.0964727 0.145106 -0.00164509)
(0.107962 0.149893 0.0432454)
(0.132082 0.136012 0.0561447)
(0.130704 0.10847 0.0636895)
(0.155313 0.127599 0.0751539)
(0.152305 -0.0565128 0.140262)
(-0.148382 0.340919 0.0869418)
(0.0240359 -0.0984156 0.0245964)
(0.0950468 -0.167865 0.125923)
(0.0445941 0.102591 -0.00778776)
(0.042167 0.0203465 0.0227138)
(0.00916165 0.0849683 0.00062335)
(0.0136185 0.085921 -0.00144306)
(0.0105755 0.0995279 -0.000710064)
(0.0125842 0.10488 -0.00360956)
(0.0147149 0.110704 -0.00265995)
(0.0106593 0.126049 -0.00442352)
(-0.00508055 0.130602 -0.00737719)
(-0.0187301 0.133565 -0.0122365)
(-0.0242836 0.137046 -0.0148572)
(-0.030986 0.134702 -0.0101655)
(-0.0304674 0.128475 -0.00847469)
(-0.0232531 0.125318 -0.00837392)
(-0.0164219 0.122061 -0.00508128)
(-0.00862756 0.11822 0.00101122)
(-0.000545502 0.115883 0.0102887)
(0.00925852 0.109497 0.022111)
(0.0137602 0.100811 0.0354562)
(0.0153687 0.0902959 0.0472632)
(0.0084575 0.0662223 0.0587435)
(0.00544634 0.0503387 0.0707356)
(-0.00956137 0.036163 0.0618509)
(-0.0346785 0.0368856 0.049325)
(-0.050302 0.036352 0.0318765)
(-0.0563444 0.0376894 0.0210434)
(-0.0529456 0.0395604 0.0140018)
(-0.0393929 0.0402318 0.0121155)
(-0.0249147 0.0309033 0.0176101)
(-0.0125798 0.0222543 0.0225961)
(-0.0172831 0.000180506 0.0174248)
(-0.0237511 -0.0155816 0.0143073)
(-0.0199125 -0.0288397 0.0130239)
(-0.015898 -0.0257445 0.00738541)
(-0.0288202 -0.0175004 0.00441605)
(0.0195751 0.025516 0.00691986)
(0.0342796 0.0248585 0.00889968)
(0.0192788 0.00149537 -0.00156099)
(0.0288064 0.0123341 0.00443696)
(0.0204575 -0.00769375 -0.00399457)
(0.019368 0.00346264 -0.00734436)
(0.0125434 -0.00474182 -0.005549)
(0.00633494 0.00129288 -0.00330528)
(0.00241644 -0.00298419 -0.000818251)
(-0.000656374 -0.00221416 -0.000222367)
(-0.00219631 -0.00250756 0.000336515)
(-0.00190869 -0.00037775 0.00162358)
(-0.000580105 0.000740414 0.00299293)
(0.000170409 0.0015318 0.00380262)
(0.000309665 0.00160782 0.00419956)
(0.000249979 0.00171107 0.00437701)
(0.00010548 0.00157602 0.00443028)
(-1.05504e-05 0.00153739 0.00443843)
(-0.000122018 0.00142383 0.00442097)
(-0.000193448 0.00139929 0.00439605)
(-0.000238276 0.0013542 0.00436611)
(-0.000261053 0.00135624 0.00433324)
(-0.000270099 0.00134981 0.00429331)
(-0.00026935 0.00136065 0.00425154)
(-0.00026125 0.00136822 0.00420488)
(-0.000252342 0.00138209 0.00415747)
(-0.000242915 0.0013982 0.00410633)
(-0.000231084 0.00141708 0.00405354)
(-0.000220325 0.00144185 0.00399816)
(-0.000205424 0.00146628 0.00394295)
(-0.00018997 0.00149966 0.00389007)
(-0.000164352 0.00152227 0.00383768)
(-0.000129485 0.00156602 0.00378868)
(-6.81687e-05 0.0015836 0.00373676)
(1.70553e-05 0.00165424 0.00368052)
(0.000120136 0.00168309 0.00361874)
(0.000221891 0.00183842 0.0035421)
(0.000254331 0.00198323 0.00342548)
(0.000213852 0.00237775 0.00326227)
(-1.79316e-05 0.00280781 0.00306211)
(-0.000427877 0.0035662 0.00286468)
(-0.000931979 0.00422437 0.00284181)
(-0.0014631 0.00479113 0.00294022)
(-0.00269868 0.00442069 0.0029393)
(-0.00557914 0.0040284 0.00257591)
(-0.00933744 0.00309735 0.00277782)
(-0.0119726 0.00269042 0.00407959)
(-0.00765877 -9.73959e-05 0.0041806)
(0.0160572 -0.0115359 -0.0103539)
(0.0280063 0.0327432 0.0045514)
(0.0371258 0.0660167 0.0271802)
(0.0526579 0.102072 0.0119362)
(0.0640744 0.148672 0.0341193)
(0.099532 0.155666 0.0611019)
(0.122861 0.155513 0.0579238)
(0.127365 0.150061 0.0644268)
(0.135405 0.15958 0.0589309)
(0.131423 0.0784828 0.106589)
(0.0369927 0.431071 0.149288)
(0.0216856 -0.139472 0.0226076)
(0.0384505 -0.127992 0.0974862)
(-0.011878 0.136852 -0.0267519)
(0.00434281 0.0790119 0.0031017)
(-4.00358e-05 0.141038 -0.00683224)
(0.0136053 0.144939 -0.00989878)
(0.0247452 0.153406 -0.0117293)
(0.0332147 0.15379 -0.0163717)
(0.0366432 0.157454 -0.0170423)
(0.0307421 0.160266 -0.0203675)
(0.017406 0.155861 -0.0178368)
(0.00310269 0.153139 -0.0153472)
(-0.00428404 0.151913 -0.0155705)
(-0.00986806 0.154019 -0.0152293)
(-0.0111243 0.154248 -0.0144653)
(-0.00575 0.157464 -0.0110846)
(0.00113835 0.159824 -0.00725285)
(0.00528605 0.156311 0.00182911)
(0.00547013 0.150753 0.0132834)
(0.00514294 0.138303 0.0299029)
(0.00231881 0.12726 0.0445166)
(-0.00404699 0.109827 0.0578224)
(-0.0177871 0.0898586 0.0679836)
(-0.0299102 0.0705804 0.0662756)
(-0.0448099 0.0556319 0.0433095)
(-0.0573404 0.0510346 0.0220713)
(-0.0620876 0.0531235 0.00705948)
(-0.0601125 0.0578616 -0.000539052)
(-0.0565371 0.060669 -0.00355727)
(-0.0438655 0.0623708 -0.00115189)
(-0.02432 0.0618578 0.0118276)
(-0.0214636 0.0518993 0.0283521)
(-0.0176344 0.0385038 0.0344011)
(-0.0206465 0.0182606 0.0378299)
(-0.0257307 -0.00975903 0.0367806)
(-0.0433372 -0.0214753 0.0179216)
(-0.0405266 -0.0157537 0.00830834)
(0.0144973 0.024399 0.00449441)
(0.0385417 0.0317584 0.0137995)
(0.0150754 -0.00382193 0.00789044)
(0.0236015 0.0100763 0.0127911)
(0.017304 -0.0130855 0.00726472)
(0.0184067 -0.00265624 -0.00218546)
(0.0142493 -0.0074685 -0.00475228)
(0.00829532 -0.000313844 -0.00358416)
(0.00457865 -0.00269197 -0.000599003)
(-0.00035862 -0.00248639 -9.9617e-05)
(-0.00337239 -0.003923 -0.000193988)
(-0.00416414 -0.00247878 0.000550058)
(-0.00332778 -0.00103506 0.00192815)
(-0.00257638 0.000241187 0.00286229)
(-0.00249473 0.000671711 0.00332329)
(-0.00262011 0.00113295 0.00352059)
(-0.00283164 0.00125968 0.00356407)
(-0.00299489 0.0014568 0.00352615)
(-0.00313882 0.00150426 0.00345138)
(-0.00321771 0.00159756 0.00337811)
(-0.0032563 0.00162953 0.00330428)
(-0.00325415 0.00168875 0.00324458)
(-0.00322673 0.00171665 0.00318649)
(-0.00318106 0.00175433 0.00313176)
(-0.00311693 0.00178447 0.00307468)
(-0.00304452 0.0018181 0.00302359)
(-0.00297153 0.00185013 0.0029754)
(-0.00289892 0.00188125 0.00293092)
(-0.0028303 0.0019122 0.00288979)
(-0.00275837 0.00193875 0.0028534)
(-0.00269504 0.00197164 0.00282311)
(-0.00262238 0.00199902 0.0028022)
(-0.00255914 0.00204833 0.00279181)
(-0.00247923 0.00208411 0.00279653)
(-0.00240165 0.00216776 0.00281658)
(-0.00231226 0.00222964 0.00285369)
(-0.00224963 0.00239268 0.00289532)
(-0.00224741 0.00253109 0.00292175)
(-0.00232704 0.00282307 0.00290777)
(-0.00257054 0.00301176 0.00278063)
(-0.00289577 0.00328287 0.00254307)
(-0.00330496 0.00322176 0.00226833)
(-0.00367931 0.00321461 0.00201685)
(-0.00467549 0.00230979 0.00167012)
(-0.00742634 0.00134727 0.000850948)
(-0.0124104 -0.00143789 -8.12063e-05)
(-0.0161734 -0.00184463 0.00123991)
(-0.00975938 -0.0081962 0.00329305)
(0.00662265 -0.0170491 -0.00476381)
(0.00900797 0.0289674 0.0307097)
(0.0159031 0.0539282 0.0542236)
(0.0177089 0.097837 0.0355099)
(0.029447 0.128663 0.0446597)
(0.0653051 0.14438 0.0653672)
(0.0981956 0.143411 0.0662723)
(0.10809 0.135743 0.0685905)
(0.10355 0.148978 0.0648818)
(0.157056 0.00801572 0.0451015)
(0.213457 0.427634 0.0430342)
(-0.0119714 -0.151925 0.0355919)
(-0.0557909 -0.0696704 0.0697056)
(-0.0383447 0.144808 -0.0102444)
(-0.0287848 0.0952904 0.010402)
(0.00565645 0.146395 0.00440661)
(0.0185058 0.143225 0.012552)
(0.0457065 0.144117 0.00543501)
(0.0517564 0.152145 -0.00835049)
(0.0557999 0.171607 -0.013464)
(0.0521446 0.19156 -0.0202829)
(0.0403193 0.199404 -0.0195996)
(0.0298588 0.202776 -0.0143635)
(0.0243369 0.198546 -0.00847667)
(0.0158355 0.194974 -0.00468127)
(0.0147393 0.188961 0.00143348)
(0.0139917 0.187762 0.00522141)
(0.0113717 0.18404 0.00978158)
(0.0153872 0.182 0.0201558)
(0.00988161 0.169554 0.036144)
(0.00753336 0.157432 0.0498315)
(-0.00178938 0.139108 0.0604381)
(-0.00936364 0.121395 0.0669083)
(-0.0203468 0.0951112 0.0662495)
(-0.0268939 0.0707539 0.0559685)
(-0.0353013 0.0536645 0.0317875)
(-0.0380266 0.0526494 0.0124051)
(-0.0390648 0.0536183 0.000718591)
(-0.0398709 0.0572783 -0.0117843)
(-0.0391494 0.0610999 -0.0243039)
(-0.0365663 0.0653744 -0.0281809)
(-0.03241 0.0706308 -0.0211331)
(-0.0264505 0.0634582 0.00333944)
(-0.0215461 0.0532297 0.0178868)
(-0.019603 0.0345203 0.027599)
(-0.0222786 0.0097932 0.0319715)
(-0.0447877 -0.00990228 0.0334987)
(-0.0776977 -0.0160699 0.0146332)
(0.00994863 0.0100619 0.00251236)
(0.0398658 0.0337558 0.0152789)
(0.0095011 -0.0052316 0.00895443)
(0.0147324 0.0142174 0.0140128)
(0.00975238 -0.0128067 0.0119328)
(0.0105931 -0.00292342 0.00485815)
(0.0089065 -0.010446 0.000603079)
(0.00658476 -0.00261761 -0.00293139)
(0.00429432 -0.00262386 -0.000300525)
(-0.000430502 -0.00155119 0.000486623)
(-0.00422252 -0.003823 0.000423419)
(-0.00565238 -0.00325206 0.000866529)
(-0.00474927 -0.00263201 0.0019301)
(-0.00336076 -0.00139446 0.00306648)
(-0.00292256 -0.000611408 0.00371816)
(-0.00284674 0.000212639 0.00407652)
(-0.00292724 0.00073743 0.00419398)
(-0.00296015 0.00121166 0.0042496)
(-0.00299141 0.00148404 0.00424817)
(-0.00296851 0.00174223 0.00423601)
(-0.00292006 0.00189596 0.0042139)
(-0.00284436 0.00204535 0.004202)
(-0.00276032 0.00214173 0.00419102)
(-0.00267101 0.00223159 0.00418668)
(-0.00258206 0.00229395 0.00417552)
(-0.00250308 0.00233897 0.00416891)
(-0.00242553 0.00236955 0.00417197)
(-0.00234634 0.00239413 0.00418752)
(-0.00227408 0.00241832 0.0042102)
(-0.00220032 0.00243981 0.00423955)
(-0.00213517 0.00246924 0.00427886)
(-0.00206201 0.00248981 0.00433141)
(-0.00198565 0.00253836 0.0044039)
(-0.00188593 0.00257531 0.00449681)
(-0.00177551 0.00268097 0.00461451)
(-0.00165375 0.00279447 0.00475086)
(-0.0015684 0.00304581 0.00488154)
(-0.00155796 0.00326489 0.00496767)
(-0.00160881 0.00358828 0.00496177)
(-0.00179986 0.00367546 0.00477396)
(-0.00206969 0.00363101 0.00436757)
(-0.00253958 0.0029262 0.00375701)
(-0.00308561 0.00213114 0.00312994)
(-0.00388739 7.71664e-05 0.00283966)
(-0.0061952 -0.00185232 0.00272299)
(-0.0114596 -0.00674043 0.00292297)
(-0.0164395 -0.011581 0.003962)
(-0.0101543 -0.0242713 8.06915e-05)
(-0.0125821 -0.00982111 -0.00293088)
(-0.0302917 0.0274414 0.0393981)
(-0.0218577 0.0519921 0.0543778)
(-0.0212502 0.0874133 0.0413977)
(-0.0138781 0.10443 0.0508816)
(0.0229035 0.110014 0.0613763)
(0.0588739 0.124579 0.0770781)
(0.0839765 0.113925 0.106536)
(0.0817556 0.147709 0.13418)
(0.112971 -0.105764 0.089944)
(0.256809 0.334712 -0.0165006)
(-0.0243944 -0.104444 0.0325194)
(-0.123735 -0.130592 0.0943322)
(-0.0579271 0.141434 -0.027867)
(-0.054889 0.0280103 0.0143962)
(0.010936 0.0595705 -0.00341011)
(-0.00309352 0.0191288 0.023097)
(0.0507912 0.0272056 0.0172386)
(0.047483 0.0241952 0.0162343)
(0.0404599 0.0367628 0.0126202)
(0.0302682 0.0914779 -0.00196374)
(0.0313692 0.149703 -0.0250653)
(0.0347016 0.193198 -0.0233301)
(0.0379058 0.2131 -0.0138814)
(0.0315452 0.226758 -0.0146533)
(0.0165093 0.225509 -0.00406761)
(0.010613 0.223205 0.00296733)
(0.00307142 0.219246 0.00613089)
(0.00427324 0.209548 0.0142864)
(0.000221604 0.196907 0.0221369)
(-0.00317696 0.176258 0.0326102)
(-0.0143214 0.156292 0.0392629)
(-0.0230015 0.136391 0.0359322)
(-0.0317638 0.121847 0.0251066)
(-0.0409233 0.109403 0.0112604)
(-0.0479794 0.10992 -0.00677952)
(-0.0523479 0.122113 -0.0224653)
(-0.049658 0.139524 -0.0324831)
(-0.0407449 0.157504 -0.0364277)
(-0.0290421 0.168097 -0.0313845)
(-0.0195955 0.170312 -0.0207839)
(-0.016592 0.167528 -0.00788919)
(-0.0132865 0.159597 0.00880221)
(-0.0111541 0.145571 0.030234)
(-0.010593 0.125757 0.0413322)
(-0.0239672 0.0937985 0.044532)
(-0.0593543 0.0620036 0.0286376)
(-0.0788664 0.0128737 0.0115527)
(-0.000478561 -0.00767666 0.000894483)
(0.0390516 0.0290814 0.00989036)
(0.0012795 -0.00084317 0.00312771)
(0.00831221 0.0226749 0.0103606)
(0.00276888 -0.00599804 0.00850609)
(0.00200411 0.00472826 0.00317979)
(0.00171186 -0.0081885 0.00156386)
(0.00240366 -4.82943e-05 -0.00395846)
(0.00277206 -0.00146428 -0.00218172)
(-0.00141256 0.00067016 -0.00261537)
(-0.00546497 -0.00232294 -0.00242475)
(-0.00749885 -0.00275563 -0.00258833)
(-0.0072143 -0.00318009 -0.00203033)
(-0.00670979 -0.00232544 -0.00104017)
(-0.006638 -0.00134903 -0.000270517)
(-0.00673261 -0.000263381 0.00021153)
(-0.00688853 0.000494649 0.000463667)
(-0.00700495 0.00116822 0.000605804)
(-0.00712196 0.00158031 0.000680544)
(-0.00719157 0.00191639 0.000718317)
(-0.00722945 0.00210802 0.000742253)
(-0.00723269 0.00226828 0.000764699)
(-0.0072074 0.00235817 0.000786468)
(-0.00714735 0.00242185 0.00081993)
(-0.00703393 0.0024506 0.000867086)
(-0.00689549 0.00247399 0.000937004)
(-0.00676037 0.0024966 0.00101345)
(-0.00663249 0.00251537 0.00109577)
(-0.00651666 0.00253248 0.00118526)
(-0.00640145 0.00254627 0.00128371)
(-0.00630114 0.00256682 0.00138883)
(-0.00620524 0.00257951 0.00149875)
(-0.00612645 0.00261586 0.00162242)
(-0.00606024 0.00265193 0.00175655)
(-0.00604647 0.00276764 0.001907)
(-0.0060694 0.0029152 0.00206631)
(-0.00611499 0.00322757 0.00221)
(-0.00615808 0.00354311 0.00230872)
(-0.00617238 0.00399495 0.00227585)
(-0.00613351 0.0042057 0.00201828)
(-0.0059472 0.0042249 0.00145007)
(-0.00572745 0.00323111 0.000650874)
(-0.00532473 0.00154764 -5.85791e-06)
(-0.00535029 -0.00201031 9.56398e-05)
(-0.00694596 -0.00608028 0.000884412)
(-0.0111497 -0.0139615 0.00405015)
(-0.0142246 -0.0289671 0.00747592)
(-0.0219846 -0.0447452 -0.00416395)
(-0.0403227 -0.0193881 -0.00726487)
(-0.0473976 -0.000763283 0.0379786)
(-0.0467365 0.00498174 0.0555105)
(-0.0538175 0.0329928 0.0360812)
(-0.0453426 0.0311556 0.0100583)
(-0.0184733 0.04162 0.0106786)
(-0.0108902 0.0668588 0.0176402)
(0.0295641 0.0362568 0.0549773)
(0.0919282 0.159267 0.115872)
(0.111898 -0.246498 0.0997721)
(0.273092 0.265681 -0.00307122)
(-0.0222256 -0.0590924 0.016965)
(-0.160619 -0.204267 0.100391)
(-0.0781047 0.135633 -0.0192729)
(-0.0606082 -0.0574614 0.0181125)
(0.050427 0.0698521 0.00827593)
(0.0170028 -0.0653369 0.036431)
(0.0587495 -0.023204 0.0169818)
(0.0650038 -0.0323376 0.0104892)
(0.0566062 -0.0358859 0.00764841)
(0.0357279 -0.0387606 0.00157723)
(0.0188066 -0.0421229 -0.00748118)
(0.0130056 -0.0308435 -0.0217355)
(0.0140315 -0.00718031 -0.0190703)
(0.00973824 0.0529252 -0.0296196)
(0.0272587 0.117624 -0.0367482)
(0.03096 0.151366 -0.0148641)
(0.0279511 0.17161 -0.0151347)
(0.0254972 0.179638 -0.0123968)
(0.0220899 0.187016 -0.0160418)
(0.0206758 0.191487 -0.0115962)