/*--------------------------------*- C++ -*----------------------------------*\
| =========                 |                                                 |
| \\      /  F ield         | OpenFOAM: The Open Source CFD Toolbox           |
|  \\    /   O peration     | Version:  2.3.0                                 |
|   \\  /    A nd           | Web:      www.OpenFOAM.org                      |
|    \\/     M anipulation  |                                                 |
\*---------------------------------------------------------------------------*/
FoamFile
{
    version     2.0;
    format      ascii;
    class       volVectorField;
    location    "12";
    object      U.air;
}
// * * * * * * * * * * * * * * * * * * * * * * * * * * * * * * * * * * * * * //

dimensions      [0 1 -1 0 0 0 0];

internalField   nonuniform List<vector> 
6144
(
(0.00770519 0.0182497 0.00107859)
(0.00837364 0.00268996 0.00133399)
(0.00335093 -0.000673954 0.000835025)
(0.00353732 -0.00224092 0.000404744)
(0.00199096 -0.00459302 0.000987692)
(0.00211874 -0.0035842 0.000755979)
(0.00191624 -0.00400824 0.000228393)
(0.0021172 -0.00286494 -3.21344e-05)
(0.00211066 -0.00224387 -0.000512429)
(0.00231954 -0.000929814 -0.000665912)
(0.00254067 -7.1939e-05 -0.000743405)
(0.0027817 0.000544738 -0.000676221)
(0.00298598 0.000616646 -0.000737757)
(0.00314291 0.000578809 -0.000777216)
(0.00324888 0.000353214 -0.000913056)
(0.00332389 0.000195277 -0.00100068)
(0.00337985 3.90361e-06 -0.00112158)
(0.00341582 -8.37374e-05 -0.00119618)
(0.00344589 -0.00018906 -0.00127719)
(0.00346936 -0.000212158 -0.00132568)
(0.00348544 -0.000248193 -0.00137375)
(0.00350144 -0.000239594 -0.00140172)
(0.00351165 -0.000239374 -0.00142735)
(0.00352123 -0.000220421 -0.00144255)
(0.00352776 -0.000204809 -0.00145472)
(0.0035331 -0.000184161 -0.00146217)
(0.00353673 -0.000164573 -0.00146739)
(0.00353919 -0.000144412 -0.00147031)
(0.00354051 -0.000124084 -0.00147165)
(0.00354046 -0.000106032 -0.00147137)
(0.00354051 -8.21748e-05 -0.00147015)
(0.00353593 -7.56983e-05 -0.00146701)
(0.00354006 -2.63594e-05 -0.00146177)
(0.00351844 -7.1829e-05 -0.0014593)
(0.00354751 6.43753e-05 -0.00143988)
(0.00348771 -0.000124209 -0.00144515)
(0.00355868 0.000243499 -0.00140508)
(0.0034408 -0.000306303 -0.0014256)
(0.00356889 0.000572184 -0.00135044)
(0.00338105 -0.000688045 -0.00139602)
(0.00356664 0.00112305 -0.00125278)
(0.00331955 -0.00138177 -0.00133367)
(0.00353709 0.00190261 -0.00109405)
(0.00326024 -0.0025021 -0.00120796)
(0.00349527 0.00282425 -0.000904954)
(0.00315862 -0.0040694 -0.00100586)
(0.00341555 0.00413854 -0.000916983)
(0.00293667 -0.00552983 -0.000952392)
(0.00371888 0.00710531 -0.00188231)
(0.00292791 -0.00638448 -0.00160282)
(0.00551229 0.0133022 -0.00291868)
(0.00458696 -0.0132419 -0.00144928)
(0.00116591 0.0139392 -0.00270714)
(0.00276526 -0.0123514 -0.00345853)
(0.015945 0.0492022 -0.00573348)
(0.0050107 -0.0560865 -0.0143578)
(0.0075053 0.07015 -0.0127005)
(0.00699062 -0.044962 -0.0319182)
(-0.0296587 0.126476 -0.0695273)
(0.059623 0.0562213 -0.115693)
(0.0978008 0.318584 -0.00135679)
(0.0473394 0.355823 -0.00321583)
(0.0387067 -0.147579 -0.00153046)
(0.0380977 -0.173633 0.00210546)
(0.03193 -0.175109 0.0049719)
(0.0226257 -0.18303 0.00638697)
(0.0151086 -0.188408 0.00670529)
(0.0102768 -0.190162 0.00605514)
(0.00709634 -0.188644 0.00487904)
(0.00442752 -0.184364 0.00362506)
(0.00189897 -0.177878 0.0024543)
(-0.00021364 -0.169487 0.00112833)
(-0.00188142 -0.159191 -0.000183381)
(-0.00301693 -0.147225 -0.00131268)
(-0.00281778 -0.1341 -0.00213053)
(-0.00211341 -0.121374 -0.00318338)
(-0.00100088 -0.109153 -0.003897)
(-9.65233e-05 -0.0981431 -0.00487118)
(0.000423554 -0.0890609 -0.00547905)
(0.00158639 -0.0826129 -0.00559595)
(0.00360212 -0.0768135 -0.0058742)
(0.0054123 -0.0716541 -0.00539061)
(0.00586508 -0.0663678 -0.00568671)
(0.00593397 -0.0611528 -0.00459154)
(0.00435911 -0.0571701 -0.00482562)
(0.0039047 -0.0520522 -0.00334622)
(0.00101304 -0.0482587 -0.00367636)
(-0.000470081 -0.0402643 -0.00260187)
(-0.00502889 -0.0312788 -0.00362198)
(-0.0100935 -0.0127858 -0.00419458)
(-0.00532914 0.00545654 0.00044212)
(0.00177168 0.0148986 -0.00382474)
(0.00538006 0.0197832 -0.0102146)
(0.00763794 0.0241378 -0.00994513)
(0.012355 0.0222894 -0.00601243)
(0.0147265 0.012605 -0.001263)
(0.013246 0.0184601 0.00335846)
(0.0158867 0.00882244 0.00435563)
(0.00674183 0.00464828 0.0038158)
(0.00843359 0.00381871 0.00394382)
(0.00418802 0.000319929 0.00481823)
(0.00469581 0.00103976 0.00421017)
(0.00372591 -0.000742181 0.00431897)
(0.00389467 -4.93507e-05 0.00382184)
(0.00380463 -0.000398042 0.00312789)
(0.00401362 0.000680428 0.00265438)
(0.00438352 0.00120394 0.00253053)
(0.00498246 0.00170602 0.00270633)
(0.0054708 0.00155222 0.00271302)
(0.00586362 0.0013675 0.00270287)
(0.00608393 0.000975343 0.00254289)
(0.0062507 0.000728039 0.00242749)
(0.00634094 0.000446806 0.00227206)
(0.00641441 0.000314294 0.0021814)
(0.00645829 0.000168325 0.00208216)
(0.00650049 0.000126508 0.00203081)
(0.00652656 7.2393e-05 0.00198027)
(0.00655492 7.59425e-05 0.00195947)
(0.00657333 6.92455e-05 0.00194055)
(0.00659167 8.91083e-05 0.00193733)
(0.00660441 0.000104122 0.00193718)
(0.00661533 0.000127072 0.00194384)
(0.00662255 0.00014888 0.00195289)
(0.00662736 0.000172129 0.00196481)
(0.00662984 0.000195411 0.00197842)
(0.00662975 0.000217201 0.00199379)
(0.0066286 0.000241629 0.00201045)
(0.00662055 0.000256584 0.00202852)
(0.0066232 0.000297857 0.00204827)
(0.00659075 0.000276412 0.00206876)
(0.00662665 0.000388128 0.00210129)
(0.0065292 0.000228352 0.0021125)
(0.00664449 0.000566004 0.00217634)
(0.00642364 3.02087e-05 0.00215693)
(0.00667158 0.000905362 0.00228015)
(0.00626981 -0.00041161 0.0022007)
(0.00670327 0.00149996 0.00245456)
(0.00607655 -0.00124453 0.00226542)
(0.00673459 0.0023876 0.00273263)
(0.00583319 -0.00260999 0.00237688)
(0.00671204 0.00340173 0.00298081)
(0.00547601 -0.0046299 0.00255253)
(0.00644275 0.00470776 0.00276679)
(0.00466619 -0.0063801 0.00219858)
(0.00617294 0.00753913 0.000615263)
(0.00422872 -0.00455204 0.00063651)
(0.00895533 0.0149877 -0.00102231)
(0.00834294 -0.00453257 0.00108319)
(0.00556346 0.0261834 0.00464629)
(-0.00618713 -0.0274529 0.00410396)
(0.0287984 0.0338053 0.00151452)
(0.0317702 -0.0489506 -6.1307e-05)
(-0.0322217 0.0315228 0.00385777)
(-0.0263389 -0.00968278 -0.0114773)
(-0.00447967 0.175488 0.00228718)
(0.187001 0.00277892 -0.0661155)
(0.0994955 0.344863 -0.00113631)
(-0.00450455 0.425237 0.00689233)
(-0.0352819 -0.101989 0.00963278)
(-0.0150459 -0.0815445 0.0128732)
(-0.0155724 -0.102084 0.0136818)
(-0.0228782 -0.1257 0.0141396)
(-0.0247887 -0.136986 0.0136415)
(-0.0244164 -0.144346 0.0118803)
(-0.0234552 -0.148202 0.00942097)
(-0.0223858 -0.148862 0.00675004)
(-0.020974 -0.146816 0.0044818)
(-0.0199851 -0.1419 0.00243827)
(-0.0191228 -0.134726 0.000838046)
(-0.0180831 -0.124347 -0.000371664)
(-0.0162445 -0.11219 -0.00170507)
(-0.0141426 -0.10085 -0.00308691)
(-0.0100311 -0.091381 -0.00427523)
(-0.00288751 -0.0802613 -0.00493436)
(0.00128665 -0.0692383 -0.00436505)
(0.00265522 -0.0576002 -0.00453561)
(0.00205352 -0.0457694 -0.0050658)
(0.00148376 -0.0350967 -0.00502128)
(0.00192846 -0.0255624 -0.00381453)
(0.00292822 -0.0191136 -0.00173298)
(0.00356005 -0.0163043 -0.000349888)
(0.00191976 -0.0150001 0.00134004)
(-0.000961225 -0.0156113 0.0010241)
(-0.00568913 -0.0148451 0.00181149)
(-0.0122085 -0.0141386 -0.00149494)
(-0.0167829 -0.00713554 -0.00319962)
(-0.0144296 0.00339262 0.00161046)
(-0.00568102 0.010734 0.000597345)
(0.00166332 0.0182945 -0.00347574)
(0.00456343 0.0237501 -0.00230394)
(0.00580124 0.02226 0.00796704)
(0.00798556 0.0148166 0.0187287)
(0.014931 0.0141269 0.00283714)
(0.0201312 0.00921109 0.00334816)
(0.00733395 0.00462571 0.00247188)
(0.0106622 0.00658391 0.00250837)
(0.00442816 0.00246381 0.00423374)
(0.00528848 0.00417002 0.00439757)
(0.0036179 0.0020529 0.00547596)
(0.00372701 0.00247999 0.00542228)
(0.00318771 0.00148807 0.00504375)
(0.00314699 0.00207607 0.0046413)
(0.00346003 0.00220974 0.00437807)
(0.00428119 0.00261797 0.00453109)
(0.00488182 0.00223563 0.00467036)
(0.00541187 0.0019444 0.00472365)
(0.0056235 0.00140914 0.00469511)
(0.00581136 0.00110961 0.00465455)
(0.00585988 0.000768115 0.00460562)
(0.00592944 0.000612711 0.00457595)
(0.00594249 0.000442597 0.00455402)
(0.00597373 0.000390184 0.00455065)
(0.00598098 0.000324865 0.00455278)
(0.00599922 0.000320769 0.00456791)
(0.00600488 0.000308326 0.00458416)
(0.0060141 0.000324161 0.00460874)
(0.00601675 0.000335095 0.00463396)
(0.00601837 0.000355484 0.00466227)
(0.00601597 0.00037481 0.00469001)
(0.00601112 0.000396294 0.00471878)
(0.00600368 0.000417549 0.00474795)
(0.00599383 0.0004378 0.00477715)
(0.00598192 0.000460143 0.0048056)
(0.00596539 0.000475443 0.00483319)
(0.00595276 0.000506813 0.00486046)
(0.00592195 0.000500866 0.00488482)
(0.00593052 0.000580902 0.00491288)
(0.00584127 0.000469729 0.00492525)
(0.00594015 0.000733458 0.00497757)
(0.0057005 0.000295144 0.00495223)
(0.00598317 0.00104338 0.00504636)
(0.00549163 -0.00011834 0.00495538)
(0.00607488 0.0015965 0.00513971)
(0.00522631 -0.000923808 0.00493171)
(0.00624327 0.00243955 0.00527116)
(0.00488361 -0.00227748 0.00486277)
(0.00637893 0.00350551 0.00530886)
(0.00442754 -0.00424774 0.00475899)
(0.00611144 0.00481869 0.00466507)
(0.00328963 -0.00535759 0.00439141)
(0.00409041 0.00724895 0.00161586)
(0.00252438 -0.00103028 0.00252043)
(0.00549479 0.0150222 0.000834272)
(0.00802206 0.00284116 0.00409051)
(0.0121157 0.0297342 0.00720662)
(0.00219375 -0.0279727 0.00695759)
(0.0346725 0.0191849 0.00166106)
(0.0460245 -0.0583989 0.00237807)
(-0.0694547 0.0628342 0.0204101)
(-0.0734155 -0.103971 -0.0123276)
(-0.0572121 0.196531 -0.0263485)
(0.190133 -0.0336943 -0.043155)
(0.176593 0.350353 -0.0109329)
(0.0857502 0.418781 -0.00765461)
(0.0769791 -0.111308 0.0170681)
(0.0409913 -0.065701 0.0217114)
(0.0156404 -0.0880191 0.0208357)
(0.00196231 -0.105398 0.0187873)
(-0.00611804 -0.110957 0.0162578)
(-0.0119823 -0.114414 0.0124968)
(-0.0146265 -0.11567 0.00856004)
(-0.0172342 -0.114541 0.00465945)
(-0.0190229 -0.109746 0.000700784)
(-0.0209227 -0.103765 -0.00320781)
(-0.0236886 -0.0968384 -0.0042788)
(-0.0201253 -0.0874299 -0.00587799)
(-0.014385 -0.073927 -0.00715594)
(-0.012312 -0.0590038 -0.00918019)
(-0.012635 -0.041997 -0.0159024)
(-0.0131393 -0.00643187 -0.0151223)
(-0.0103226 0.0138057 -0.0101163)
(-0.00455436 0.0283125 -0.00575074)
(0.000848332 0.0325 -0.00172827)
(0.00489582 0.0312569 0.00119463)
(0.00760811 0.0272163 0.00347037)
(0.00872613 0.0213964 0.00512307)
(0.00825572 0.0159571 0.00606465)
(0.00616332 0.0109942 0.00627746)
(0.0021061 0.00715948 0.00566413)
(-0.00360095 0.00479953 0.00549551)
(-0.0124212 0.00342474 0.000962961)
(-0.0222984 0.00485877 -0.00406048)
(-0.0197221 0.00934882 -0.00100972)
(-0.00808527 0.0109144 -0.000510698)
(-0.00176939 0.0175498 -0.00132584)
(0.000615077 0.0233025 0.00377696)
(0.000463621 0.0221655 0.0143171)
(0.00186662 0.0134763 0.0249265)
(0.014944 0.0119191 0.00215973)
(0.0239288 0.00910621 0.000406842)
(0.00688972 0.00236187 -0.00203485)
(0.0139775 0.00761613 -0.00269904)
(0.00478973 0.00119834 -0.000566042)
(0.0064408 0.00490426 0.00066624)
(0.00327469 0.00159394 0.00319062)
(0.00362422 0.00319042 0.00385503)
(0.00267235 0.00195803 0.00447801)
(0.00252574 0.002849 0.00431513)
(0.00243231 0.00291654 0.00412053)
(0.00326646 0.00342164 0.00445957)
(0.00392121 0.00298992 0.00478863)
(0.00444942 0.0027023 0.00496257)
(0.00462953 0.00207216 0.00501857)
(0.00477916 0.00173836 0.00503255)
(0.00479198 0.00133319 0.00502908)
(0.00483656 0.00115072 0.00502987)
(0.00482552 0.000948653 0.00503608)
(0.00484384 0.00087949 0.00505103)
(0.00483864 0.000796934 0.0050698)
(0.00485193 0.000780946 0.00509542)
(0.00485277 0.00075794 0.00512183)
(0.00486139 0.000764589 0.00515384)
(0.00486457 0.000766657 0.00518218)
(0.00486742 0.000780811 0.00520997)
(0.00486654 0.000794752 0.00523587)
(0.00486283 0.00081154 0.00526274)
(0.00485622 0.000827774 0.00528956)
(0.00484671 0.000843102 0.00531548)
(0.00483455 0.000859865 0.00533956)
(0.00481878 0.000872617 0.00536154)
(0.00480403 0.00089311 0.00538226)
(0.00478181 0.00089669 0.00539732)
(0.00478011 0.000943021 0.005411)
(0.00472046 0.000882896 0.00541617)
(0.00479072 0.00105527 0.0054341)
(0.00459459 0.00074323 0.00540127)
(0.00485397 0.00131733 0.00545897)
(0.00439918 0.000362317 0.00535034)
(0.00499677 0.00179436 0.00549295)
(0.00415858 -0.000420522 0.00524551)
(0.00528493 0.00251784 0.00555757)
(0.0038192 -0.00179795 0.00505035)
(0.00568721 0.00349029 0.00557203)
(0.003207 -0.00365513 0.00475853)
(0.00542171 0.00460795 0.00483044)
(0.00186413 -0.00449115 0.0043031)
(0.0019999 0.00689322 0.00178568)
(0.00088778 -0.00268217 0.0036101)
(0.00281501 0.0114622 0.00329)
(0.00682055 -0.00599696 0.00634291)
(0.0164344 0.022549 0.00758606)
(0.00707351 -0.0306508 -0.000752984)
(0.0326679 0.0337164 0.00150692)
(0.0202354 -0.0241081 0.00797539)
(-0.0258846 0.116142 0.0172203)
(-0.0973647 -0.149542 0.000273217)
(-0.0775878 0.242994 -0.0810789)
(0.217386 -0.078389 -0.0213362)
(0.233745 0.289298 -0.0128753)
(0.0876164 0.150831 0.00223142)
(0.111122 -0.046676 0.0147407)
(-0.0229201 0.0470678 0.0256486)
(-0.0285301 -0.0494977 0.0303475)
(-0.0282079 -0.051904 0.0227372)
(-0.0302116 -0.0663709 0.0164555)
(-0.031754 -0.0760355 0.0081225)
(-0.0298138 -0.0770796 0.00108953)
(-0.0215123 -0.0749006 -0.00461101)
(-0.0130729 -0.0654784 -0.00923768)
(-0.0130492 -0.0516744 -0.0126741)
(-0.0196766 -0.0377415 -0.0159055)
(-0.0266383 -0.0115637 -0.0184352)
(-0.0282969 0.0272598 -0.0214057)
(-0.0255075 0.0532137 -0.0170794)
(-0.0202107 0.0704642 -0.0110817)
(-0.0102116 0.0778248 -0.00423073)
(-0.000423374 0.0785031 0.000582694)
(0.0053738 0.0741559 0.003602)
(0.00925827 0.06888 0.00591225)
(0.0103665 0.0613523 0.00702772)
(0.010054 0.0542234 0.00751363)
(0.00849304 0.0461215 0.00737884)
(0.00577769 0.0391861 0.00670361)
(0.00160312 0.0326037 0.00557864)
(-0.00434487 0.0274673 0.00368219)
(-0.0126397 0.0234952 0.000892215)
(-0.0206151 0.0210708 -0.00327433)
(-0.0240779 0.0186958 -0.0051976)
(-0.0169219 0.014959 -0.00198562)
(-0.00798657 0.0143162 -0.00150813)
(-0.00380546 0.0192292 0.000609815)
(-0.00404359 0.0225841 0.00644984)
(-0.00705475 0.0206033 0.0166312)
(-0.00874582 0.012181 0.0265392)
(0.0156964 0.012751 0.00330203)
(0.027938 0.0133829 0.000581971)
(0.0106443 0.00197835 -0.00613805)
(0.0207181 0.0110672 -0.00644373)
(0.0102156 0.000370518 -0.0066651)
(0.0113835 0.00592568 -0.00461626)
(0.00519972 -0.000360827 -0.00152716)
(0.00427588 0.00194039 0.000264085)
(0.00164313 -0.000424232 0.00197323)
(0.00107917 0.00127989 0.0023636)
(0.000740515 0.00164969 0.00279002)
(0.00150913 0.00294684 0.00360678)
(0.00207952 0.00286703 0.00429795)
(0.00246007 0.00280441 0.0047169)
(0.00249134 0.0022878 0.00488645)
(0.00250184 0.00203018 0.00497063)
(0.00241108 0.00164728 0.00499666)
(0.00236926 0.00147612 0.00501295)
(0.00230288 0.00126981 0.00502157)
(0.00228006 0.00119696 0.00502973)
(0.0022558 0.00110946 0.00503711)
(0.00225407 0.00108869 0.00504845)
(0.00224893 0.00105956 0.00505929)
(0.00225288 0.00106002 0.00507243)
(0.00225432 0.00105868 0.00507955)
(0.00225682 0.00106874 0.00508605)
(0.0022582 0.00107718 0.00509004)
(0.00225846 0.00108671 0.00509052)
(0.00225732 0.00109483 0.00508652)
(0.00225388 0.0011021 0.00507756)
(0.00224682 0.00111167 0.00506081)
(0.00223804 0.00111862 0.00504156)
(0.00222706 0.00113435 0.0050213)
(0.00221387 0.00114042 0.00500035)
(0.0022078 0.00117365 0.00498006)
(0.0021784 0.00114504 0.00495687)
(0.00221688 0.00126132 0.00493974)
(0.00209046 0.00104418 0.00488785)
(0.00230744 0.00149028 0.0049064)
(0.00193834 0.00069157 0.00477271)
(0.00254444 0.00192385 0.00489588)
(0.00175959 -4.56385e-05 0.00459704)
(0.00301395 0.00259256 0.00493585)
(0.0014972 -0.00127244 0.00432326)
(0.00358972 0.00348874 0.00492884)
(0.000993256 -0.00259124 0.00397178)
(0.00287076 0.0046562 0.00403301)
(-0.000171555 -0.0024234 0.00349662)
(1.52491e-05 0.00700589 0.00141448)
(-0.000435126 -0.00320906 0.00358865)
(0.00359261 0.00827728 0.00340189)
(0.00328727 -0.0148815 0.00575549)
(0.0228515 0.0120219 0.00666174)
(-0.00144576 -0.0309887 -0.000205139)
(0.0337193 0.0381242 0.0317002)
(0.029289 -0.0669164 0.021073)
(0.0174779 0.0517913 0.0652271)
(-0.119238 -0.138103 0.0308606)
(-0.0162679 0.212237 -0.175495)
(0.164734 -0.106753 0.00883337)
(0.194145 0.469825 -0.00911287)
(0.0708739 0.578828 0.00243286)
(0.0628128 0.509799 0.0132329)
(0.0126678 0.505817 0.0116731)
(0.0307888 0.295172 0.0064045)
(-0.00530022 0.0113706 0.00365167)
(-0.0125421 -0.0245211 -0.00314653)
(-0.0133494 -0.0236079 -0.0109758)
(-0.012416 -0.0101745 -0.0197879)
(-0.0164665 0.0153538 -0.0240471)
(-0.0223964 0.0800128 -0.0236255)
(-0.0282585 0.477963 -0.0172193)
(-0.0293087 0.482492 -0.0150878)
(-0.0296337 0.135597 -0.0128266)
(-0.022796 0.124883 -0.00840432)
(-0.0152972 0.128567 -0.00285264)
(-0.00839239 0.128517 0.0017241)
(-0.00254605 0.146595 0.00525161)
(0.00278917 0.491145 0.00714617)
(0.0052742 0.560619 0.00748331)
(0.00772471 0.420949 0.0070508)
(0.00876939 0.121305 0.00642194)
(0.00907806 0.0940131 0.00473014)
(0.00827361 0.0845859 0.00271251)
(0.00653133 0.0742207 0.000540646)
(0.00353335 0.0626612 -0.00168349)
(-0.000456734 0.0532114 -0.00386975)
(-0.00558391 0.0436393 -0.00575366)
(-0.00966605 0.0352782 -0.00685438)
(-0.0106315 0.0262526 -0.00583706)
(-0.00593086 0.0213974 -0.00336454)
(-0.00324056 0.0208932 -0.00127655)
(-0.00371441 0.0241144 0.00199731)
(-0.0072912 0.0242566 0.00772209)
(-0.0134688 0.0208477 0.0164295)
(-0.0184008 0.012335 0.0251574)
(0.0147438 0.0159073 0.00363017)
(0.0288313 0.0198838 0.00436535)
(0.0151508 0.00171919 -0.0061759)
(0.0254884 0.0131833 -0.00345863)
(0.0181608 -0.00180813 -0.00816056)
(0.0190476 0.00642344 -0.0071525)
(0.011741 -0.000879221 -0.00537472)
(0.00794276 0.00249543 -0.00296631)
(0.00359607 -0.00259689 -0.00116548)
(0.0012327 -0.00139366 -0.00059941)
(-0.000424119 -0.00124876 0.000334119)
(2.94506e-05 0.000892666 0.00189318)
(0.00088692 0.00149872 0.00318597)
(0.00131375 0.00202399 0.00396887)
(0.00129102 0.00188896 0.00435414)
(0.00120666 0.001906 0.00454329)
(0.00105301 0.00167916 0.00461087)
(0.000948661 0.0016224 0.00463517)
(0.000853517 0.00147939 0.00462818)
(0.000804516 0.00145265 0.00460691)
(0.000777347 0.00138886 0.00457387)
(0.000776906 0.00138327 0.00453779)
(0.000785186 0.0013603 0.00449309)
(0.000802769 0.00136398 0.00444956)
(0.00082746 0.00136527 0.00440694)
(0.000856925 0.00137441 0.00436661)
(0.00088881 0.00138212 0.00432505)
(0.00092013 0.00139176 0.00428172)
(0.000948139 0.00140152 0.00423583)
(0.000972585 0.00141236 0.00418847)
(0.000995188 0.00142425 0.00414233)
(0.0010158 0.00143061 0.00409577)
(0.00102845 0.00144537 0.0040443)
(0.00104462 0.00145031 0.00399437)
(0.00105937 0.00147794 0.00394441)
(0.00107015 0.00147032 0.0038976)
(0.0011109 0.00155359 0.00385843)
(0.00107954 0.0014384 0.00382589)
(0.00126721 0.00177035 0.00383191)
(0.00105386 0.00118213 0.00376319)
(0.0015803 0.0021958 0.00386869)
(0.00103387 0.000611943 0.00368102)
(0.00210598 0.00288253 0.00397384)
(0.000979584 -0.000240552 0.00354699)
(0.00261213 0.00389415 0.00400371)
(0.000643336 -0.000800935 0.00327302)
(0.00168118 0.00542489 0.0031081)
(-0.000347133 -0.000544111 0.0028341)
(0.000126222 0.00723448 0.00142009)
(0.000596491 -0.00384993 0.00389026)
(0.00752409 0.0057225 0.00319124)
(0.00588185 -0.0171615 0.00583968)
(0.0202567 0.0022481 0.004542)
(0.00172861 -0.0186929 0.0155664)
(0.0302558 0.008411 0.0482557)
(-0.000384465 -0.020026 0.0456896)
(0.00405981 0.0526913 0.102034)
(-0.109031 -0.112285 0.0775397)
(0.0468396 0.0445608 -0.177267)
(0.0929998 -0.0215623 0.0191072)
(0.20058 0.480265 -0.0186824)
(0.0741216 0.551171 -0.00751326)
(0.071332 0.595223 -0.000880319)
(0.0266893 0.617569 -0.0045245)
(0.0125399 0.618161 -0.00923877)
(-0.00372084 0.611453 -0.0125845)
(-0.00897586 0.610644 -0.0150124)
(-0.0163778 0.596058 -0.0140408)
(-0.0191057 0.610851 -0.0127213)
(-0.0214479 0.662037 -0.00945195)
(-0.021328 0.669212 -0.00530809)
(-0.0210643 0.647095 -0.00245496)
(-0.0192032 0.678321 0.000653478)
(-0.0173681 0.667665 0.00366112)
(-0.0133838 0.669769 0.00682476)
(-0.0102799 0.673845 0.0088854)
(-0.00575361 0.667811 0.0110503)
(-0.0017898 0.662053 0.0122863)
(0.00215533 0.654222 0.0125004)
(0.00551943 0.64504 0.012066)
(0.00884553 0.642066 0.0113361)
(0.0106216 0.640484 0.0108591)
(0.0124593 0.607358 0.0100255)
(0.0135577 0.586336 0.00859714)
(0.0130176 0.588026 0.00715088)
(0.0108282 0.582847 0.00516131)
(0.00770579 0.568638 0.00321874)
(0.00439812 0.543283 0.00170291)
(0.00100044 0.454743 0.000734119)
(-0.000472032 0.0701396 0.000679372)
(-0.00428098 0.0309682 0.000866937)
(-0.00616774 0.0227255 0.0010188)
(-0.00628093 0.0205399 0.00319134)
(-0.00927345 0.0204915 0.00757897)
(-0.0163738 0.016687 0.0150124)
(-0.0213093 0.00934959 0.0221371)
(0.0121736 0.0186146 0.00450646)
(0.0298271 0.0277671 0.00999673)
(0.0140221 -0.00402852 0.000784854)
(0.0234106 0.0116395 0.00688425)
(0.019863 -0.00920398 -0.000599087)
(0.0206219 0.00393845 -0.00663703)
(0.0158311 -0.00328593 -0.00525195)
(0.0111813 0.00263103 -0.00328214)
(0.00665129 -0.00274301 -0.00174463)
(0.00141025 -0.00246458 -0.00146869)
(-0.00152153 -0.0033458 -0.00115548)
(-0.00210645 -0.00137154 0.000129511)
(-0.0015713 -0.000326255 0.00165079)
(-0.00126243 0.000724277 0.00266497)
(-0.00143384 0.000955315 0.0031815)
(-0.00163585 0.00133549 0.00343989)
(-0.00189449 0.0013693 0.00352469)
(-0.00205432 0.00152435 0.00355415)
(-0.00219213 0.00151681 0.00354041)
(-0.00224356 0.00160342 0.00352065)
(-0.00225745 0.00161437 0.00348285)
(-0.00222808 0.00167311 0.0034406)
(-0.00217963 0.00169139 0.00338867)
(-0.00211848 0.00172515 0.00333842)
(-0.00205405 0.00174377 0.00328295)
(-0.00198713 0.00176542 0.00323167)
(-0.00191986 0.00178254 0.00318215)
(-0.00185138 0.00179992 0.00313811)
(-0.00178324 0.00181636 0.00309844)
(-0.0017167 0.00183206 0.00306276)
(-0.00165476 0.00184809 0.00302895)
(-0.00159563 0.00186187 0.00299745)
(-0.00154287 0.00188029 0.00296634)
(-0.00148629 0.00188751 0.00293877)
(-0.00144273 0.00191175 0.00291079)
(-0.00139821 0.00190855 0.00289297)
(-0.00135776 0.00195995 0.0028801)
(-0.00133513 0.00189619 0.0028955)
(-0.00120406 0.00212066 0.0029337)
(-0.00130022 0.00169016 0.00298898)
(-0.000927407 0.00251703 0.00309271)
(-0.00128111 0.00126458 0.00310645)
(-0.000545584 0.00322144 0.00334306)
(-0.00130462 0.000848242 0.00322037)
(-0.000360718 0.00433741 0.00344877)
(-0.00155786 0.000854137 0.00314602)
(-0.0011643 0.00597676 0.00266929)
(-0.00197428 0.000448042 0.00274694)
(-0.00080774 0.00761373 0.00183205)
(-0.000270204 -0.00450489 0.00405922)
(0.0074306 0.00583344 0.00505876)
(0.00675133 -0.0123155 0.00708708)
(0.0111507 0.00240663 0.00380118)
(0.00682478 -0.00660786 0.00630827)
(-0.00590908 -0.010303 0.0427227)
(-0.0393232 -0.0215405 0.0711809)
(0.020934 -0.00670479 0.106024)
(-0.0481322 -0.103295 0.080154)
(0.0427455 -0.114316 -0.173232)
(0.0576782 0.105416 0.0233468)
(0.101925 0.620873 -0.0151622)
(0.0554497 0.689453 -0.00600924)
(0.0513505 0.647978 0.00257742)
(0.034409 0.731035 0.0044182)
(0.020204 0.73642 0.00383335)
(0.00896386 0.70481 0.00100778)
(0.00110987 0.725907 0.000938548)
(-0.00529731 0.73992 0.00112308)
(-0.0111661 0.599971 0.00187547)
(-0.0141424 0.536674 0.00273354)
(-0.0166634 0.486458 0.00444448)
(-0.0179441 0.730171 0.00709326)
(-0.0183133 0.729227 0.00849045)
(-0.0175308 0.733017 0.0103074)
(-0.0160311 0.71837 0.0116225)
(-0.0141039 0.710414 0.0127654)
(-0.0115607 0.74112 0.0138397)
(-0.00823374 0.709264 0.0147423)
(-0.00360161 0.706108 0.0154507)
(0.00257369 0.696714 0.0157025)
(0.00619717 0.690625 0.0159755)
(0.0111773 0.69832 0.0164311)
(0.0167692 0.674563 0.016654)
(0.0196964 0.665655 0.0158446)
(0.0217937 0.658899 0.0144407)
(0.0221648 0.644791 0.0139394)
(0.0213168 0.636834 0.0115486)
(0.0193819 0.619627 0.00931996)
(0.0158249 0.606985 0.00704649)
(0.0121096 0.555808 0.00494395)
(0.00665977 0.517454 0.00231541)
(-7.48702e-05 0.351929 0.00136587)
(-0.00311273 0.0529442 0.00247156)
(-0.0112019 0.0239982 0.00578813)
(-0.0233184 0.0407518 0.0107457)
(-0.0358991 0.421082 0.0182132)
(0.0030998 0.0132385 0.00188817)
(0.0320536 0.0331763 0.0117986)
(0.00837199 -0.00692974 0.00656741)
(0.0135948 0.0124355 0.0130351)
(0.0133655 -0.012172 0.00804531)
(0.0151534 -0.0001141 -4.56831e-05)
(0.0145224 -0.00699135 -0.00262593)
(0.0110694 0.00100486 -0.00318721)
(0.00857265 -0.00214351 -0.00109168)
(0.00214278 -0.00213048 -0.00116495)
(-0.00208641 -0.00418782 -0.000803526)
(-0.00302906 -0.00307052 6.31901e-05)
(-0.0023123 -0.00228469 0.00152121)
(-0.00162423 -0.00103137 0.0027791)
(-0.00161139 -0.000332757 0.00346638)
(-0.00173087 0.000480422 0.00386386)
(-0.00193444 0.000906745 0.00402044)
(-0.00203888 0.00137008 0.00410204)
(-0.00214082 0.00159455 0.00411454)
(-0.00216144 0.001847 0.00411736)
(-0.0021623 0.00197117 0.00410129)
(-0.00212266 0.00210634 0.00408561)
(-0.00207639 0.00216571 0.00406936)
(-0.00201401 0.00222229 0.00407017)
(-0.00194656 0.00225511 0.00407335)
(-0.00187477 0.00228285 0.00408551)
(-0.00180184 0.00230234 0.0041033)
(-0.00172674 0.00231942 0.00412756)
(-0.00165076 0.00233391 0.00415653)
(-0.00157496 0.00234698 0.00418959)
(-0.00150205 0.00235972 0.00422512)
(-0.0014292 0.00236916 0.00426372)
(-0.00136225 0.00238189 0.00430327)
(-0.00128849 0.00238561 0.00434701)
(-0.00122586 0.00240205 0.00439026)
(-0.00115738 0.00239345 0.00443889)
(-0.0010911 0.00242412 0.00448896)
(-0.001021 0.00239228 0.00455607)
(-0.000903496 0.00254662 0.00462404)
(-0.000896865 0.00229075 0.00472252)
(-0.000618339 0.00295659 0.00481194)
(-0.000762405 0.00208569 0.00491083)
(-0.000252831 0.00375843 0.00501706)
(-0.000658275 0.00205808 0.00504529)
(-0.000170697 0.0051168 0.004911)
(-0.000793045 0.0022808 0.00482202)
(-0.000825696 0.00679904 0.00392213)
(-0.000960538 0.000601566 0.00398506)
(-0.000124829 0.00759121 0.00342529)
(0.00125469 -0.00610153 0.00516546)
(0.00576665 0.00544023 0.00742804)
(0.00891787 -0.00945414 0.0098807)
(0.00683833 0.00405195 0.0085869)
(0.0163914 -0.00743383 0.00489395)
(-0.0140797 0.00284914 0.0333283)
(-0.0567547 -0.0399077 0.0567011)
(-0.0162002 -0.0331134 0.0876081)
(0.0158096 -0.0813792 0.0825455)
(0.0174444 -0.13448 -0.157297)
(-0.00620514 0.128878 0.0242622)
(-0.0169555 0.643108 -0.0114655)
(0.0189658 0.734859 -0.00689105)
(0.0180635 0.760915 0.0104152)
(0.0226328 0.783904 0.0094319)
(0.0187555 0.79103 0.0114367)
(0.0123226 0.784189 0.00969076)
(0.00121367 0.793802 0.00938841)
(-0.00151517 0.810055 0.0089675)
(-0.00665432 0.781654 0.00930227)
(-0.0117379 0.784121 0.0101046)
(-0.0135319 0.780999 0.0108731)
(-0.0150822 0.776492 0.0118057)
(-0.0161298 0.771244 0.0128882)
(-0.0152394 0.763174 0.0137697)
(-0.013796 0.756297 0.0149319)
(-0.0117003 0.747146 0.0157654)
(-0.00830255 0.740304 0.016782)
(-0.00436348 0.727807 0.0174543)
(0.000621312 0.720005 0.0178904)
(0.00582674 0.711972 0.0174882)
(0.0105907 0.703069 0.0171075)
(0.0155908 0.694998 0.0170299)
(0.0197374 0.690299 0.0175771)
(0.0235913 0.684091 0.0177308)
(0.0263951 0.677295 0.0179752)
(0.0285126 0.672949 0.0190504)
(0.0283546 0.665652 0.0193134)
(0.0273326 0.656528 0.0189981)
(0.0244734 0.644966 0.0176775)
(0.0192512 0.631405 0.0125418)
(0.0117563 0.61621 0.00444919)
(0.00245422 0.60639 -0.00334045)
(-0.00702478 0.610165 -0.010304)
(-0.0174598 0.547985 -0.0172987)
(-0.032073 0.542307 -0.0296071)
(-0.0350875 0.482622 -0.0387047)
(-0.00143126 -0.0014727 -0.00280993)
(0.0321843 0.0362795 0.00804085)
(0.00108483 -0.00225962 0.00206964)
(0.00203082 0.0210085 0.00865085)
(0.00398416 -0.00593693 0.00791218)
(0.00556817 0.00341287 0.00204962)
(0.00857998 -0.00656359 -0.000211222)
(0.00863505 0.00125207 -0.00384211)
(0.00830505 -0.00117789 -0.00209665)
(0.00206118 -0.000875504 -0.00335623)
(-0.0030463 -0.00392016 -0.004064)
(-0.00506849 -0.00366458 -0.00380131)
(-0.00523362 -0.00328083 -0.00269741)
(-0.0053117 -0.00197732 -0.00150925)
(-0.00560649 -0.000991122 -0.000714832)
(-0.00587323 9.05576e-05 -0.000206917)
(-0.00615299 0.000758971 6.5938e-05)
(-0.006328 0.00138176 0.000227638)
(-0.00645831 0.00171044 0.000317754)
(-0.0064911 0.00200123 0.000371251)
(-0.00645879 0.00213359 0.000412851)
(-0.00635371 0.0022469 0.000462655)
(-0.00621944 0.00229858 0.000527066)
(-0.00609482 0.00235378 0.000605068)
(-0.00597559 0.00238837 0.000689617)
(-0.00586268 0.00242084 0.000781153)
(-0.00575596 0.00244571 0.000874076)
(-0.00565689 0.00246755 0.000967312)
(-0.00556567 0.00248711 0.00105939)
(-0.00548027 0.00250622 0.00114972)
(-0.00540126 0.00252598 0.00123695)
(-0.00532462 0.00254307 0.00132138)
(-0.00525739 0.00256393 0.00140169)
(-0.00518415 0.00257707 0.00147956)
(-0.00512576 0.00260433 0.00155333)
(-0.00506281 0.00260885 0.00162253)
(-0.0050249 0.00264893 0.00168722)
(-0.00497429 0.00264222 0.00175615)
(-0.0049439 0.00277142 0.00180455)
(-0.00489036 0.0026071 0.00189691)
(-0.00490533 0.00319128 0.00188802)
(-0.00483095 0.00254608 0.00203626)
(-0.00500709 0.00407406 0.00191611)
(-0.00486862 0.00280854 0.0020886)
(-0.00523372 0.0055908 0.00169418)
(-0.00473534 0.00329157 0.00182519)
(-0.00463307 0.00744369 0.000937647)
(-0.00349833 0.00104971 0.00123394)
(-0.00169239 0.00855432 0.00163364)
(-0.00140608 -0.00758345 0.00210591)
(0.000263802 0.00772642 0.00540694)
(0.00406013 -0.0080555 0.00699993)
(-0.00167897 0.0136051 0.0066223)
(0.0105549 -0.00851398 0.0097892)
(-0.0157899 0.0380132 0.0229307)
(-0.0444899 -0.0435368 0.049562)
(-0.0439844 -0.033936 0.068663)
(0.0404642 -0.121508 0.0710298)
(-0.0284637 -0.0594144 -0.165639)
(-0.0676522 0.0849619 0.0057696)
(-0.140834 0.51532 -0.0286647)
(-0.0312553 0.479856 -0.00631071)
(-0.0187664 0.59429 0.00582789)
(-0.00135 0.707397 0.00794728)
(0.00557904 0.655421 0.00927736)
(0.0037564 0.644251 0.00847325)
(-0.00140735 0.702188 0.00930193)
(-0.00504209 0.731484 0.00993775)
(-0.00891819 0.69333 0.010692)
(-0.0117795 0.698952 0.0114183)
(-0.0147091 0.713621 0.0126362)