/*--------------------------------*- C++ -*----------------------------------*\
| =========                 |                                                 |
| \\      /  F ield         | OpenFOAM: The Open Source CFD Toolbox           |
|  \\    /   O peration     | Version:  2.3.0                                 |
|   \\  /    A nd           | Web:      www.OpenFOAM.org                      |
|    \\/     M anipulation  |                                                 |
\*---------------------------------------------------------------------------*/
FoamFile
{
    version     2.0;
    format      ascii;
    class       volVectorField;
    location    "12";
    object      U.water;
}
// * * * * * * * * * * * * * * * * * * * * * * * * * * * * * * * * * * * * * //

dimensions      [0 1 -1 0 0 0 0];

internalField   nonuniform List<vector> 
6144
(
(0.00725729 0.015955 0.000619165)
(0.00840531 0.000166178 0.000840332)
(0.00274338 -0.00300704 0.0010984)
(0.00344543 -0.00395161 0.000620714)
(0.00150161 -0.00664332 0.00159)
(0.00189664 -0.00508313 0.00121784)
(0.00153933 -0.00569478 0.000994014)
(0.00179008 -0.00437076 0.000712118)
(0.00177153 -0.00388837 -0.000151822)
(0.00194301 -0.002354 -0.000405362)
(0.00209908 -0.00120429 -0.000488391)
(0.0023533 -0.000272092 -0.000348431)
(0.00259656 -8.54735e-05 -0.000334675)
(0.00277334 -7.03964e-05 -0.00033095)
(0.00289558 -0.000317536 -0.000449754)
(0.0029741 -0.000504278 -0.000542064)
(0.00303246 -0.000718543 -0.000666066)
(0.00307102 -0.000824813 -0.000748057)
(0.00309816 -0.000932066 -0.000830398)
(0.00312303 -0.000959676 -0.000880821)
(0.00313499 -0.000987811 -0.00092555)
(0.00315051 -0.00097346 -0.000950264)
(0.00315586 -0.000962104 -0.000969691)
(0.00316232 -0.000931387 -0.000978395)
(0.00316408 -0.000901722 -0.000982789)
(0.00316463 -0.000866216 -0.00098174)
(0.00316289 -0.000828663 -0.000977413)
(0.00315942 -0.000792612 -0.000969627)
(0.00315463 -0.000750137 -0.000958491)
(0.00314735 -0.000717447 -0.000944292)
(0.00313927 -0.000670303 -0.000923882)
(0.00312837 -0.00064673 -0.000900916)
(0.00311722 -0.000598397 -0.000865246)
(0.00310457 -0.000603022 -0.000827207)
(0.00309276 -0.000573175 -0.000765653)
(0.00308163 -0.000649182 -0.000702232)
(0.00307354 -0.000689752 -0.000608165)
(0.00307045 -0.00090396 -0.000525666)
(0.00307335 -0.00107401 -0.000436039)
(0.00308274 -0.00144385 -0.000419759)
(0.00308403 -0.00163745 -0.000505746)
(0.00311694 -0.00181092 -0.00078195)
(0.0031824 -0.00142869 -0.00125793)
(0.00333437 -0.000766144 -0.00182803)
(0.00344268 0.000358214 -0.00225986)
(0.00371467 0.000378997 -0.00245648)
(0.00381875 -0.000861172 -0.00294934)
(0.00360161 -0.000174932 -0.00423317)
(-0.00106176 0.0131267 -0.00729399)
(-0.00100945 0.0329219 -0.0100157)
(0.0233753 0.0244852 -0.0135155)
(0.0426497 -0.0160403 -0.013916)
(0.0453243 -0.0297902 -0.0202798)
(0.0452459 -0.0617853 -0.0243393)
(0.035453 -0.0631915 -0.0272268)
(0.0314772 -0.0994017 -0.0198084)
(0.00313015 -0.074826 -0.0176305)
(0.00176113 -0.113087 0.00561991)
(-0.0458285 -0.026994 -0.0673185)
(0.0230001 -0.026924 0.05432)
(0.141763 -0.296742 0.0703975)
(0.0957024 -0.161727 0.0330659)
(0.060313 -0.209618 0.0135738)
(0.0556345 -0.253324 0.00439057)
(0.0488884 -0.253184 0.00465128)
(0.0386051 -0.259142 0.00490303)
(0.0297263 -0.267004 0.00538846)
(0.0221839 -0.267223 0.000642409)
(0.0201415 -0.263332 -0.00210925)
(0.0192869 -0.254789 -0.00508692)
(0.0187026 -0.2442 -0.00399903)
(0.0184956 -0.235371 -0.000935333)
(0.00813931 -0.221296 -0.000699508)
(0.0115486 -0.190062 0.00729865)
(-0.00136395 -0.164026 0.000830371)
(-0.0330917 -0.105511 -0.00390546)
(-0.0279329 -0.0195261 0.011225)
(-0.0131733 0.0176503 -0.000706722)
(-0.00780467 0.0433518 -0.00910627)
(0.0053099 0.0497925 -0.00583832)
(0.00961531 0.055143 -0.00504285)
(0.0128408 0.0601254 -0.00453322)
(0.0179079 0.0589651 -0.00164669)
(0.0191364 0.0533231 0.00178633)
(0.0163402 0.0452196 0.00411991)
(0.0128542 0.0374258 0.00777835)
(0.0104128 0.0258446 0.010428)
(0.00825218 0.0154634 0.00525498)
(-0.00262556 0.0150975 0.00239116)
(-0.00815961 0.0276453 0.00399802)
(0.000209985 0.0340327 0.00640842)
(0.000950184 0.0408898 0.00522677)
(0.00495991 0.044129 0.00552568)
(0.0121363 0.037651 0.00566458)
(0.0186568 0.029668 0.00128162)
(0.028474 0.0200259 0.00601819)
(0.0137199 0.015733 0.00264385)
(0.0165851 0.00547464 0.00366833)
(0.00553072 0.00129099 0.00323681)
(0.00835627 0.00117485 0.00302734)
(0.002712 -0.00302024 0.00475246)
(0.00402267 -0.000607601 0.00394487)
(0.00260621 -0.00272375 0.0047808)
(0.00306992 -0.00130978 0.00422292)
(0.00296471 -0.00190183 0.00367546)
(0.00312884 -0.000661916 0.00306083)
(0.00338707 6.75608e-05 0.00284197)
(0.00398848 0.000902842 0.00304792)
(0.00457007 0.000852625 0.00317348)
(0.00501904 0.000701065 0.00323399)
(0.00528476 0.000274822 0.003109)
(0.00545987 -1.25498e-05 0.00299483)
(0.00555796 -0.000319083 0.00284327)
(0.00562918 -0.000473254 0.00274581)
(0.00567174 -0.000620119 0.00265308)
(0.00570803 -0.000664862 0.0026023)
(0.00572899 -0.00070889 0.00256349)
(0.00574851 -0.000696372 0.00254925)
(0.00575833 -0.000690384 0.00254384)
(0.00576569 -0.000655587 0.0025515)
(0.00576691 -0.000625058 0.00256481)
(0.00576467 -0.00058559 0.00258527)
(0.00575849 -0.000545507 0.00260925)
(0.00574803 -0.000507417 0.00263768)
(0.0057348 -0.000463085 0.00267006)
(0.00571554 -0.000432621 0.00270633)
(0.00569582 -0.000383912 0.00274965)
(0.00566682 -0.000372044 0.00279783)
(0.00564349 -0.000322146 0.00286145)
(0.00560891 -0.000354905 0.00293273)
(0.00558947 -0.000325436 0.00303275)
(0.00556193 -0.000456001 0.00314352)
(0.00556 -0.000505381 0.00328843)
(0.00556154 -0.000816327 0.0034257)
(0.00559606 -0.00101686 0.00354226)
(0.00564401 -0.00153241 0.00353409)
(0.00566791 -0.00178554 0.00330215)
(0.00566975 -0.00213772 0.0027278)
(0.00560661 -0.00169586 0.00181603)
(0.00577069 -0.000994566 0.000820677)
(0.00664485 0.000658045 5.56091e-05)
(0.0087135 0.000894868 -0.000363091)
(0.00759652 0.00130905 -0.00206787)
(-0.00256211 0.0101786 -0.00525703)
(-0.00933788 0.0247072 -0.00512321)
(0.0127214 0.02444 -0.000543786)
(0.0742007 -0.0157151 -0.00318924)
(0.0766592 -0.0326638 -0.013093)
(0.071414 -0.0278873 -0.0200176)
(0.0700399 -0.0273748 -0.0193439)
(0.0734345 -0.0181228 -0.00915463)
(0.0846966 -0.0802924 0.0115101)
(0.0205115 -0.066026 0.0173056)
(0.00707171 -0.157716 0.0557109)
(-0.0699373 -0.0113076 -0.0933893)
(0.000105019 -0.0736461 0.0172475)
(0.17389 -0.272413 0.106826)
(0.094394 -0.0168108 0.0404339)
(0.0288821 -0.130772 0.00461559)
(0.0299522 -0.110099 0.0164956)
(0.0230333 -0.115834 0.0248661)
(0.00702123 -0.134256 0.0311176)
(-0.00319906 -0.144472 0.0321881)
(-0.00424452 -0.143215 0.0308422)
(-0.00470767 -0.135301 0.0314514)
(-0.0057875 -0.114876 0.0310362)
(-0.0104085 -0.091385 0.0385488)
(-0.018636 -0.0795493 0.0397078)
(-0.0331321 -0.0807714 0.0329612)
(-0.0362898 -0.0613999 0.036338)
(-0.0377191 -0.0469987 0.017254)
(-0.0527571 -0.020453 0.00286068)
(-0.043275 0.02439 0.00909319)
(-0.0332387 0.0437708 0.0033948)
(-0.022638 0.0484338 0.00271304)
(-0.00801706 0.0503761 0.011455)
(0.00370116 0.0569157 0.0157014)
(0.0110203 0.0620721 0.0164678)
(0.0167543 0.059713 0.0161964)
(0.0125472 0.0454885 0.0157228)
(0.0033817 0.034915 0.0208271)
(-0.00429925 0.0291263 0.0250738)
(-0.0039667 0.0234416 0.0303467)
(-0.00792605 0.0140984 0.0311886)
(-0.00806192 0.0002751 0.0296354)
(-0.0133204 -0.0135777 0.0190193)
(-0.0179016 -0.0272853 0.0178791)
(-0.0153758 -0.0282726 0.0181772)
(-0.00599328 -0.0382426 0.0129462)
(0.00786924 -0.031585 0.000606936)
(0.0202986 -0.0107928 -0.00890319)
(0.042338 -0.00298327 0.00298095)
(0.0164143 0.0133618 0.00197728)
(0.0221913 0.00622931 0.00216591)
(0.00666233 0.00106738 0.000565477)
(0.0114038 0.00343533 0.00020687)
(0.00305037 -0.00188229 0.00274178)
(0.0044905 0.00172288 0.00297261)
(0.0020489 -0.000644513 0.00481411)
(0.00270544 0.00113618 0.00491207)
(0.00227893 0.00017312 0.00514745)
(0.00212248 0.000967901 0.00481821)
(0.00223583 0.00121716 0.00442082)
(0.00308904 0.00193403 0.00453221)
(0.00383986 0.00166826 0.00474771)
(0.00444582 0.00140084 0.00487426)
(0.00469187 0.000827023 0.00488372)
(0.00485499 0.000479031 0.00486458)
(0.00488533 0.000106381 0.00483207)
(0.00492314 -7.63379e-05 0.00481478)
(0.00491673 -0.000252414 0.00480799)
(0.00492277 -0.000312802 0.00481564)
(0.00491482 -0.000371904 0.00483137)
(0.00491253 -0.000372157 0.00485597)
(0.00490342 -0.000373396 0.00488427)
(0.00489456 -0.000347261 0.00491744)
(0.00488122 -0.000322576 0.00495135)
(0.00486557 -0.000288315 0.00498808)
(0.00484652 -0.000253672 0.00502502)
(0.0048236 -0.000219885 0.00506289)
(0.00479866 -0.000182405 0.00510059)
(0.00476787 -0.000155738 0.00513801)
(0.00473984 -0.000114571 0.00517565)
(0.00470139 -0.000103961 0.00521391)
(0.00467922 -5.97463e-05 0.00525415)
(0.00464102 -8.38608e-05 0.00529795)
(0.00464257 -5.12475e-05 0.00534607)
(0.004631 -0.000153196 0.00540224)
(0.00468678 -0.00017232 0.00545865)
(0.00474103 -0.000406111 0.00551192)
(0.00486494 -0.000490052 0.00552205)
(0.00496998 -0.000802877 0.0054683)
(0.00500731 -0.000768789 0.005251)
(0.00484536 -0.000761858 0.00481827)
(0.0043922 0.000131783 0.00414636)
(0.0041199 0.00167079 0.00354615)
(0.00490362 0.00508036 0.00286132)
(0.00653081 0.0104267 0.00157742)
(0.00157022 0.0223241 -0.00122046)
(-0.0054092 0.0297618 -0.00146424)
(-0.000504382 0.0288659 0.00159502)
(0.0497775 -0.00186784 -0.002105)
(0.085662 -0.0142017 -0.011982)
(0.088739 0.0331828 -0.0316866)
(0.0843944 0.0772492 -0.0270491)
(0.10537 0.0981704 0.00374357)
(0.135727 0.0780226 0.0278377)
(0.137042 0.0112789 0.0477047)
(0.0209498 0.0406274 0.0664022)
(0.0860767 -0.20711 0.159189)
(-0.100064 0.0243107 -0.0512451)
(0.0226801 -0.116443 -0.0133635)
(0.186218 -0.251686 0.1117)
(0.103587 0.0871403 0.0226379)
(0.0626877 -0.115598 0.0142585)
(0.0538193 -0.0179231 0.00932557)
(0.0342523 -0.0476194 0.0182298)
(0.0211156 -0.0398635 0.0125466)
(0.0050088 -0.0496716 0.0130931)
(0.00109885 -0.052191 0.0229721)
(0.000343654 -0.0569145 0.0328862)
(-0.00200742 -0.0567546 0.0320804)
(0.00206353 -0.041914 0.0183945)
(0.00731448 -0.0283495 0.0173779)
(-0.00512286 -0.0206533 0.017852)
(-0.0237832 -0.00548848 0.0110009)
(-0.0553486 0.0235899 0.0121161)
(-0.0621756 0.0453913 0.00773236)
(-0.0465155 0.0571552 0.0020083)
(-0.040125 0.0626074 -0.00282794)
(-0.0230003 0.0597065 0.00490507)
(-0.00668914 0.0622953 0.0139058)
(0.00775601 0.063131 0.0217595)
(0.0159514 0.0674911 0.0245002)
(0.0242107 0.0505294 0.0300852)
(0.0216146 0.0315726 0.0303013)
(0.00290379 0.0211945 0.0237601)
(-0.0135483 0.0150305 0.022878)
(-0.0169503 0.0167103 0.0258056)
(-0.0189999 0.0155357 0.0302701)
(-0.0183993 0.00911652 0.0326274)
(-0.0149653 -0.00523151 0.027204)
(-0.0154595 -0.0224056 0.0295529)
(-0.0204501 -0.0423289 0.0252057)
(-0.0134233 -0.047589 0.0214426)
(-0.00440614 -0.0515819 0.0187965)
(0.00527013 -0.0482107 0.00449878)
(0.0208255 -0.0285434 -0.00399937)
(0.0189591 0.0147281 0.00219948)
(0.0274425 0.00951634 0.00120107)
(0.00841747 0.000450504 -0.00437476)
(0.01756 0.00648329 -0.00480486)
(0.00493208 -0.00300675 -0.00295795)
(0.00584734 0.00204655 -0.00176418)
(0.00179302 -0.00264644 0.00148304)
(0.00200148 0.00105302 0.00260871)
(0.00126597 -0.000180688 0.00412983)
(0.00124619 0.001317 0.00420825)
(0.00105311 0.00148735 0.00396378)
(0.0018985 0.0024455 0.00423346)
(0.00274971 0.00222901 0.00463988)
(0.00338222 0.00203286 0.00490825)
(0.00360535 0.00144253 0.00501248)
(0.00373013 0.00108761 0.00505577)
(0.00373389 0.000677811 0.00507471)
(0.00374595 0.00047155 0.00509356)
(0.00372 0.000269355 0.00511848)
(0.00371368 0.000188376 0.00514758)
(0.00369489 0.000111964 0.00518034)
(0.00368698 9.61874e-05 0.00521493)
(0.00367089 8.26057e-05 0.00524941)
(0.00365826 9.62605e-05 0.00528572)
(0.00364115 0.000110934 0.00531967)
(0.00362226 0.000135674 0.00535273)
(0.0036018 0.000160451 0.00538524)
(0.00357843 0.000185497 0.00541564)
(0.00355241 0.000212683 0.00544211)
(0.00352247 0.000232069 0.00546451)
(0.00349288 0.000262786 0.00548143)
(0.00345751 0.000270464 0.00549396)
(0.00343281 0.000306516 0.00550125)
(0.00340346 0.000287767 0.00550584)
(0.00340694 0.000318195 0.00550532)
(0.00341054 0.000246341 0.00550324)
(0.00347416 0.000268694 0.00548962)
(0.00353265 0.000168534 0.00546222)
(0.0036468 0.000298433 0.00539003)
(0.00372849 0.000366625 0.00527194)
(0.00372448 0.000867365 0.00504013)
(0.00345045 0.00136039 0.00476297)
(0.00272164 0.00244781 0.00446117)
(0.00132964 0.00359385 0.00441799)
(-0.000612903 0.00650872 0.00459344)
(-0.0021917 0.0122393 0.00532688)
(-0.00381346 0.0220558 0.00620252)
(-0.00316882 0.0231667 0.00689064)
(0.0184133 0.0126988 0.00414699)
(0.0607672 -0.00748442 -0.0119435)
(0.0704495 0.0326965 -0.0288456)
(0.0698607 0.0966467 -0.0236729)
(0.0978533 0.131384 -0.00602435)
(0.128362 0.137146 0.0272544)
(0.138251 0.110122 0.0480159)
(0.127736 0.0800548 0.0562196)
(0.134776 0.119186 0.0751997)
(0.153131 -0.233607 0.166434)
(-0.11932 0.169222 0.0295097)
(0.0312497 -0.228102 0.0182748)
(0.139826 -0.201426 0.124396)
(0.0737215 0.110851 -0.00370015)
(0.0643993 -0.0396888 0.0354266)
(0.0127905 0.0581108 0.0123509)
(0.027147 0.0299195 0.0240181)
(0.0148075 0.0437374 0.0227453)
(0.00998334 0.0422764 0.0159954)
(0.0076074 0.0481209 0.00980757)
(-0.000727408 0.0538573 -0.000399557)
(-0.023353 0.0558985 0.00570312)
(-0.0404045 0.0481192 0.00332266)
(-0.0532658 0.0550543 0.00281528)
(-0.0671466 0.0684059 0.00583474)
(-0.0717253 0.0768961 0.00593058)
(-0.0654653 0.0823582 0.00226164)
(-0.0465008 0.0872502 -0.00470281)
(-0.0359352 0.0864444 -0.00727074)
(-0.0260249 0.0886758 0.000941606)
(-0.0119998 0.0790938 0.00965992)
(0.00172329 0.0821398 0.0196657)
(0.00855143 0.0735356 0.0288255)
(0.0103306 0.063136 0.0361219)
(0.0136052 0.0435857 0.0480962)
(0.00731824 0.0234361 0.0460557)
(-0.00948166 0.0189374 0.0413905)
(-0.0319205 0.0204961 0.0329876)
(-0.0429971 0.0253571 0.0267604)
(-0.0429642 0.0303662 0.0267158)
(-0.0356515 0.0272047 0.0276858)
(-0.0202684 0.0134167 0.0290123)
(-0.0153324 -0.00393766 0.0274047)
(-0.0231368 -0.0298437 0.0211826)
(-0.0201584 -0.0386167 0.0176405)
(-0.00937157 -0.04201 0.0149025)
(-0.00898234 -0.0389543 0.00235623)
(-0.00682302 -0.0248964 0.000782252)
(0.0213167 0.0208289 0.00440267)
(0.0311843 0.0164428 0.0046616)
(0.0148931 0.00165847 -0.00602295)
(0.0252545 0.0111352 -0.00436506)
(0.0134924 -0.00368718 -0.00752295)
(0.0141069 0.00386267 -0.00672358)
(0.00534587 -0.00416882 -0.00290157)
(0.00285221 -0.000143171 -0.000920704)
(0.000298908 -0.0027037 0.0014399)
(-0.000451421 -0.000860933 0.00213167)
(-0.000764093 -0.000476251 0.00253065)
(4.81376e-05 0.00145415 0.00330459)
(0.000899144 0.00179138 0.00405671)
(0.00138858 0.0019191 0.00453117)
(0.00147081 0.00152214 0.00474419)
(0.00144022 0.00129388 0.00483511)
(0.00131598 0.000942578 0.0048648)
(0.00122211 0.000759666 0.00488385)
(0.00111968 0.000560879 0.00489943)
(0.00105157 0.000476576 0.00491514)
(0.000993408 0.000391757 0.00493202)
(0.000957229 0.000364679 0.00494975)
(0.000928571 0.000341226 0.00496134)
(0.000908563 0.000345504 0.00497074)
(0.000893229 0.000352018 0.00497661)
(0.00088093 0.00036628 0.00497912)
(0.000867414 0.000382105 0.00497532)
(0.000853352 0.000400552 0.0049672)
(0.000838308 0.000422036 0.00495541)
(0.000822536 0.000438965 0.00493704)
(0.000807379 0.000464056 0.00491108)
(0.00079639 0.000471478 0.00487891)
(0.00079348 0.000499809 0.00483849)
(0.000801629 0.000484771 0.00479009)
(0.000839849 0.000518486 0.00473642)
(0.000886699 0.000476829 0.004672)
(0.000971315 0.000550002 0.00459291)
(0.00101948 0.000580803 0.00447871)
(0.00107924 0.000895932 0.0043295)
(0.00104378 0.00126758 0.0041713)
(0.000927327 0.00210998 0.00403151)
(0.000618601 0.00299323 0.00404308)
(-4.11114e-05 0.00410716 0.00415634)
(-0.00159925 0.00457274 0.00429659)
(-0.00443443 0.00556928 0.00446348)
(-0.0079589 0.00688548 0.00524619)
(-0.00983925 0.0100261 0.00680557)
(-0.00571176 0.00899297 0.00897195)
(0.0249781 -0.0042301 -0.00434592)
(0.0501239 0.00693177 -0.0156674)
(0.0490847 0.0695749 -0.012279)
(0.075516 0.105131 -0.00939994)
(0.096453 0.142558 -0.00158202)
(0.107905 0.147334 0.0433039)
(0.132009 0.13342 0.0561655)
(0.13055 0.105916 0.0636351)
(0.154775 0.124302 0.0752403)
(0.151609 -0.0599025 0.139599)
(-0.147798 0.328857 0.0863501)
(0.00579411 -0.275968 0.0197908)
(0.0950913 -0.184745 0.12657)
(0.0445962 0.102437 -0.00778952)
(0.0421696 0.020214 0.0227155)
(0.00916131 0.0848692 0.000623525)
(0.0136183 0.0858248 -0.00144306)
(0.0105753 0.0994491 -0.000709769)
(0.0125839 0.104813 -0.0036093)
(0.0147152 0.110651 -0.00265963)
(0.0106599 0.126005 -0.00442315)
(-0.00508018 0.130564 -0.0073769)
(-0.0187303 0.133528 -0.0122364)
(-0.0242837 0.137007 -0.0148573)
(-0.0309865 0.134659 -0.0101655)
(-0.030468 0.12843 -0.00847478)
(-0.0232535 0.125271 -0.00837418)
(-0.0164223 0.122012 -0.00508179)
(-0.00862797 0.11817 0.00101056)
(-0.000545927 0.115832 0.0102879)
(0.00925841 0.10945 0.0221103)
(0.0137604 0.10077 0.0354557)
(0.0153691 0.0902651 0.0472629)
(0.00845797 0.0661998 0.0587435)
(0.00544686 0.0503246 0.0707359)
(-0.00956103 0.0361558 0.0618511)
(-0.0346784 0.0368822 0.0493251)
(-0.050302 0.0363501 0.0318766)
(-0.0563444 0.0376883 0.0210434)
(-0.0529456 0.0395597 0.0140018)
(-0.0393929 0.0402315 0.0121155)
(-0.0249147 0.0309033 0.0176101)
(-0.0125798 0.0222543 0.0225961)
(-0.0172831 0.0001805 0.0174248)
(-0.0237511 -0.0155816 0.0143073)
(-0.0199125 -0.0288397 0.0130239)
(-0.015898 -0.0257445 0.00738541)
(-0.0288202 -0.0175004 0.00441605)
(0.0195757 0.0249965 0.00691934)
(0.0342792 0.0243402 0.00889969)
(0.0192795 0.000961635 -0.00156124)
(0.0288069 0.0117848 0.00443709)
(0.0204585 -0.00827409 -0.00399482)
(0.0193688 0.0028468 -0.00734456)
(0.0125442 -0.00537958 -0.00554912)
(0.00633574 0.000639099 -0.00330536)
(0.00241725 -0.00365744 -0.000818369)
(-0.000655608 -0.00290578 -0.000222456)
(-0.00219562 -0.00320644 0.000336451)
(-0.00190799 -0.0010776 0.00162355)
(-0.00057932 4.01415e-05 0.00299291)
(0.000171271 0.000831299 0.00380259)
(0.00031059 0.000907343 0.00419953)
(0.000250956 0.00101072 0.00437698)
(0.000106497 0.000875817 0.00443026)
(-9.50311e-06 0.000837367 0.00443841)
(-0.000120947 0.000723996 0.00442096)
(-0.000192359 0.000699676 0.00439604)
(-0.000237173 0.000654809 0.0043661)
(-0.000259942 0.000657079 0.00433322)
(-0.000268983 0.00065089 0.0042933)
(-0.000268237 0.000661962 0.00425153)
(-0.000260146 0.000669761 0.00420488)
(-0.00025126 0.000683848 0.00415747)
(-0.000241865 0.000700168 0.00410633)
(-0.000230085 0.00071922 0.00405354)
(-0.000219391 0.000744133 0.00399818)
(-0.000204581 0.000768654 0.00394297)
(-0.000189243 0.000802078 0.0038901)
(-0.000163776 0.000824654 0.00383771)
(-0.000129096 0.000868296 0.00378875)
(-6.80142e-05 0.000885651 0.00373682)
(1.69251e-05 0.000955952 0.00368062)
(0.000119653 0.000984302 0.00361885)
(0.000220985 0.00113896 0.00354226)
(0.00025291 0.0012829 0.00342566)
(0.00021183 0.00167635 0.00326251)
(-2.06581e-05 0.0021051 0.00306236)
(-0.000431408 0.00286191 0.00286499)
(-0.000936442 0.00351821 0.00284214)
(-0.00146862 0.00408275 0.00294061)
(-0.00270547 0.00370928 0.0029397)
(-0.00558742 0.00331236 0.00257634)
(-0.00934763 0.00237424 0.00277802)
(-0.0119848 0.00189334 0.00407904)
(-0.00767144 -0.00140099 0.00417747)
(0.0160549 -0.0138207 -0.0103557)
(0.0280104 0.0298986 0.00457717)
(0.0371328 0.0632198 0.0272333)
(0.0526558 0.0993919 0.0119909)
(0.0640356 0.146048 0.0341784)
(0.0995198 0.153054 0.0611301)
(0.122856 0.15292 0.0578983)
(0.127382 0.14743 0.0643507)
(0.135391 0.155846 0.0590914)
(0.131121 0.0748569 0.106179)
(0.0368242 0.422201 0.149054)
(0.0215316 -0.314819 0.0283284)
(0.0388637 -0.149528 0.0983653)
(-0.0118952 0.13529 -0.0267781)
(0.00434089 0.0772841 0.00311002)
(-5.49441e-05 0.139331 -0.00682247)
(0.0135851 0.143323 -0.00988874)
(0.024738 0.15186 -0.0117208)
(0.0332154 0.152426 -0.01637)
(0.0366504 0.156254 -0.0170412)
(0.0307575 0.159205 -0.0203717)
(0.0174088 0.154865 -0.0178397)
(0.00309559 0.152192 -0.0153472)
(-0.00428504 0.150959 -0.0155721)
(-0.00987662 0.153038 -0.0152317)
(-0.0111328 0.153256 -0.0144693)
(-0.00575659 0.156461 -0.0110928)
(0.00113848 0.158805 -0.00726196)
(0.00528949 0.155297 0.00181467)
(0.00547619 0.149772 0.0132704)
(0.00515135 0.137357 0.0298911)
(0.00233317 0.126431 0.0445102)
(-0.00402744 0.109144 0.0578217)
(-0.0177694 0.0893442 0.067991)
(-0.0298988 0.0702546 0.0662856)
(-0.0448059 0.0554752 0.0433147)
(-0.0573396 0.0509479 0.0220733)
(-0.0620878 0.0530475 0.00706032)
(-0.0601133 0.0577758 -0.000538888)
(-0.0565387 0.0605796 -0.00355776)
(-0.0438667 0.0623067 -0.00115282)
(-0.02432 0.0618132 0.0118268)
(-0.0214635 0.051879 0.0283519)
(-0.0176343 0.0384974 0.0344011)
(-0.0206464 0.0182593 0.0378299)
(-0.0257307 -0.00975914 0.0367806)
(-0.0433372 -0.0214753 0.0179216)
(-0.0405266 -0.0157537 0.00830834)
(0.0144992 0.0238955 0.00449521)
(0.0385414 0.0312658 0.0137997)
(0.0150761 -0.00431383 0.00789083)
(0.0236017 0.00957596 0.0127915)
(0.0173052 -0.0136147 0.00726514)
(0.0184077 -0.00323047 -0.00218547)
(0.0142505 -0.00808189 -0.00475252)
(0.00829635 -0.000949265 -0.00358427)
(0.0045797 -0.00334142 -0.000599148)
(-0.000357641 -0.00315839 -9.97811e-05)
(-0.00337146 -0.00461505 -0.000194161)
(-0.00416327 -0.00317837 0.000549913)
(-0.00332692 -0.00173574 0.00192806)
(-0.0025755 -0.000459578 0.00286222)
(-0.00249381 -2.90014e-05 0.00332323)
(-0.00261916 0.000432347 0.00352054)
(-0.00283064 0.000559215 0.00356402)
(-0.00299386 0.0007565 0.00352612)
(-0.00313776 0.00080414 0.00345135)
(-0.00321663 0.000897636 0.0033781)
(-0.0032552 0.000929826 0.00330427)
(-0.00325305 0.000989276 0.00324458)
(-0.00322562 0.0010174 0.0031865)
(-0.00317995 0.0010553 0.00313177)
(-0.00311583 0.00108567 0.00307469)
(-0.00304345 0.0011195 0.00302361)
(-0.0029705 0.0011517 0.00297542)
(-0.00289795 0.00118298 0.00293095)
(-0.00282941 0.00121404 0.00288982)
(-0.00275759 0.00124064 0.00285344)
(-0.00269439 0.00127352 0.00282315)
(-0.0026219 0.00130082 0.00280227)
(-0.00255887 0.00134994 0.00279188)
(-0.00247923 0.00138542 0.00279664)
(-0.00240197 0.00146862 0.0028167)
(-0.00231299 0.00152989 0.00285385)
(-0.00225084 0.00169212 0.0028955)
(-0.0022492 0.00182951 0.00292198)
(-0.00232952 0.00212028 0.00290803)
(-0.00257382 0.00230754 0.00278095)
(-0.00289995 0.00257696 0.00254342)
(-0.0033102 0.00251389 0.00226874)
(-0.00368577 0.00250435 0.00201731)
(-0.00468345 0.00159632 0.00167066)
(-0.00743604 0.000628904 0.000851539)
(-0.0124223 -0.00216549 -8.07919e-05)
(-0.0161877 -0.00260931 0.00123981)
(-0.00977374 -0.00939723 0.00329003)
(0.00661387 -0.0192432 -0.00477091)
(0.00900742 0.0261348 0.030724)
(0.0159071 0.051086 0.054264)
(0.0176989 0.0950972 0.0355482)
(0.0294279 0.125939 0.0446825)
(0.0653146 0.141632 0.0653721)
(0.0982614 0.140695 0.0662344)
(0.108236 0.13311 0.0684951)
(0.104078 0.14497 0.0647762)
(0.157441 0.0039912 0.04497)
(0.214028 0.415684 0.0424037)
(0.0157473 -0.343365 0.0336912)
(-0.0556208 -0.0857034 0.0700925)
(-0.038404 0.140286 -0.0102949)
(-0.0288861 0.0902022 0.0104107)
(0.0055806 0.141354 0.00441865)
(0.0184377 0.138293 0.0125976)
(0.0456704 0.139081 0.00552121)
(0.0517564 0.147314 -0.00829575)
(0.0557853 0.166976 -0.0134408)
(0.0521676 0.187272 -0.0202918)
(0.0403401 0.195404 -0.0196432)
(0.0298743 0.199029 -0.0144025)
(0.0243539 0.194998 -0.00850965)
(0.0158349 0.191568 -0.00471118)
(0.0147333 0.185658 0.00141475)
(0.0139953 0.184534 0.00520078)
(0.0113679 0.180865 0.00975176)
(0.0154045 0.178899 0.0201162)
(0.00990869 0.166666 0.0361122)
(0.00756908 0.154765 0.0498108)
(-0.00174814 0.136815 0.060426)
(-0.00932953 0.119544 0.0669132)
(-0.0203243 0.0937319 0.0662707)
(-0.026884 0.0697392 0.056)
(-0.0353015 0.0527826 0.0318148)
(-0.0380324 0.0517137 0.0124265)
(-0.0390722 0.052626 0.000739186)
(-0.0398798 0.0562451 -0.0117683)
(-0.0391568 0.0600513 -0.0243036)
(-0.0365712 0.0643302 -0.0281923)
(-0.0324124 0.0697068 -0.0211577)
(-0.0264461 0.0626542 0.00332615)
(-0.0215343 0.0525798 0.0178821)
(-0.0195903 0.0341474 0.0275984)
(-0.0222706 0.00965832 0.0319728)
(-0.0447865 -0.00991436 0.0334992)
(-0.0776977 -0.0160699 0.0146332)
(0.00995036 0.00955653 0.00251311)
(0.0398653 0.0332667 0.0152787)
(0.00950283 -0.00570441 0.00895534)
(0.014733 0.01375 0.0140129)
(0.00975375 -0.0132907 0.0119332)
(0.0105942 -0.00345277 0.00485846)
(0.00890817 -0.011029 0.000602981)
(0.00658614 -0.00323803 -0.0029316)
(0.00429569 -0.00325835 -0.000300695)
(-0.000429294 -0.00220398 0.000486453)
(-0.00422137 -0.00450276 0.000423198)
(-0.00565135 -0.00394833 0.000866306)
(-0.0047483 -0.00333249 0.00192993)
(-0.00335975 -0.00209528 0.00306635)
(-0.00292152 -0.00131218 0.00371804)
(-0.00284566 -0.000488008 0.00407641)
(-0.00292613 3.69155e-05 0.00419386)
(-0.00295901 0.000511291 0.00424949)
(-0.00299024 0.000783842 0.00424806)
(-0.00296731 0.00104222 0.00423591)
(-0.00291884 0.00119614 0.0042138)
(-0.00284312 0.00134574 0.00420191)
(-0.00275908 0.00144233 0.00419093)
(-0.00266978 0.00153238 0.0041866)
(-0.00258084 0.00159491 0.00417544)
(-0.00250189 0.0016401 0.00416884)
(-0.00242438 0.00167084 0.00417191)
(-0.00234525 0.00169553 0.00418747)
(-0.00227308 0.00171981 0.00421017)
(-0.00219943 0.00174132 0.00423952)
(-0.00213443 0.00177071 0.00427886)
(-0.00206145 0.00179115 0.00433142)
(-0.00198533 0.00183947 0.00440394)
(-0.0018859 0.00187605 0.00449688)
(-0.00177585 0.0019812 0.00461462)
(-0.00165454 0.00209401 0.004751)
(-0.00156975 0.00234445 0.00488172)
(-0.00155996 0.00256242 0.00496789)
(-0.00161158 0.00288447 0.00496204)
(-0.00180354 0.00297006 0.00477428)
(-0.00207442 0.00292373 0.00436797)
(-0.00254556 0.0022167 0.0037575)
(-0.00309305 0.00141894 0.00313057)
(-0.00389647 -0.000638526 0.00284045)
(-0.00620624 -0.00257332 0.00272398)
(-0.011473 -0.00746929 0.00292393)
(-0.0164559 -0.0123486 0.00396277)
(-0.0101706 -0.0254839 7.65194e-05)
(-0.0125947 -0.012011 -0.00293565)
(-0.0302961 0.0246117 0.0394114)
(-0.0218517 0.049099 0.0543938)
(-0.0212473 0.0845852 0.0414056)
(-0.0138608 0.101605 0.0508768)
(0.0229596 0.10718 0.061357)
(0.0589651 0.121845 0.0770501)
(0.0840476 0.111484 0.106428)
(0.0821692 0.143798 0.133599)
(0.113481 -0.111891 0.0893295)
(0.255629 0.317455 -0.0159489)
(0.0032708 -0.278837 0.0266527)
(-0.123726 -0.152644 0.0952802)
(-0.0580796 0.136025 -0.0280487)
(-0.0551979 0.0217911 0.0144175)
(0.0108917 0.0534113 -0.00348717)
(-0.00333403 0.0126111 0.0231736)
(0.0508608 0.0205997 0.0173139)
(0.0476181 0.01703 0.0163724)
(0.0405577 0.0289206 0.0128259)
(0.0302675 0.0832682 -0.00174271)
(0.0313221 0.141403 -0.0250522)
(0.0346717 0.184846 -0.023433)
(0.0379198 0.204678 -0.0139212)
(0.03162 0.218213 -0.0147387)
(0.0165448 0.216889 -0.00414623)
(0.0106573 0.2145 0.00293228)
(0.00309306 0.210464 0.00605653)
(0.00431126 0.200768 0.0141958)
(0.000300922 0.188147 0.022041)
(-0.00305897 0.167563 0.0325583)
(-0.0142005 0.147594 0.0393429)
(-0.0229075 0.127503 0.0361304)
(-0.0316906 0.112651 0.025379)
(-0.0409162 0.0997347 0.0115614)
(-0.0480398 0.0996229 -0.00650346)
(-0.0525121 0.111123 -0.0222846)
(-0.0499182 0.127784 -0.0324051)
(-0.0410117 0.145082 -0.0364838)
(-0.0292363 0.155116 -0.0315429)
(-0.0196664 0.156928 -0.0209794)
(-0.0165866 0.153924 -0.00809852)
(-0.0131515 0.145942 0.00862426)
(-0.0108493 0.131964 0.0301465)
(-0.0100849 0.11294 0.041415)
(-0.0233239 0.0820689 0.0448131)
(-0.058991 0.052192 0.028999)
(-0.0788491 0.00548966 0.0118203)
(-0.000475391 -0.00793463 0.00089581)
(0.039049 0.0285741 0.00988953)
(0.00128099 -0.00132352 0.00312833)
(0.00831244 0.0222105 0.0103601)
(0.00277016 -0.00645887 0.00850636)
(0.00200528 0.00422747 0.00317989)
(0.00171346 -0.0087496 0.00156378)
(0.00240506 -0.000656994 -0.00395851)
(0.0027734 -0.00209031 -0.00218171)
(-0.00141147 2.84965e-05 -0.00261539)
(-0.005464 -0.00299215 -0.00242483)
(-0.00749808 -0.0034467 -0.00258842)
(-0.00721359 -0.00387937 -0.00203039)
(-0.00670913 -0.00302595 -0.00104017)
(-0.00663737 -0.00204947 -0.000270479)
(-0.00673199 -0.000963675 0.000211588)
(-0.00688791 -0.000205511 0.000463735)
(-0.00700433 0.000468198 0.000605882)
(-0.00712133 0.000880443 0.000680628)
(-0.00719093 0.0012167 0.000718408)
(-0.00722881 0.00140851 0.000742347)
(-0.00723204 0.00156896 0.000764801)
(-0.00720675 0.00165905 0.000786574)
(-0.0071467 0.00172291 0.000820047)
(-0.00703329 0.00175183 0.000867215)
(-0.00689487 0.00177538 0.000937145)
(-0.00675978 0.00179812 0.0010136)
(-0.00663197 0.001817 0.00109593)
(-0.00651621 0.00183416 0.00118543)
(-0.00640112 0.00184794 0.0012839)
(-0.00630097 0.0018684 0.00138903)
(-0.00620528 0.00188091 0.00149896)
(-0.00612674 0.00191696 0.00162265)
(-0.00606086 0.00195259 0.0017568)
(-0.0060475 0.00206768 0.00190727)
(-0.00607095 0.00221444 0.0020666)
(-0.00611716 0.00252578 0.00221032)
(-0.00616099 0.00284007 0.00230905)
(-0.00617614 0.00329041 0.00227619)
(-0.00613829 0.00349937 0.00201864)
(-0.00595314 0.00351645 0.00145045)
(-0.00573478 0.00252017 0.000651301)
(-0.00533359 0.000833738 -5.32859e-06)
(-0.00536086 -0.00272782 9.63045e-05)
(-0.00695849 -0.0068028 0.000885293)
(-0.0111644 -0.0146918 0.00405144)
(-0.014242 -0.0297435 0.0074781)
(-0.0220046 -0.0459213 -0.00416795)
(-0.0403349 -0.0214524 -0.00726917)
(-0.0473795 -0.00353086 0.0379861)
(-0.0467034 0.00206476 0.05552)
(-0.0537762 0.0301499 0.0360956)
(-0.0452883 0.0283389 0.010054)
(-0.0183798 0.0387617 0.0106697)
(-0.0107669 0.063973 0.0176345)
(0.0296449 0.0336494 0.0549858)
(0.0919698 0.155274 0.115566)
(0.111795 -0.253243 0.0997653)
(0.271128 0.252409 -0.0028606)
(0.00734913 -0.19788 0.00830713)
(-0.161525 -0.227333 0.10155)
(-0.0783 0.133215 -0.0193402)
(-0.0608465 -0.0600456 0.0181225)
(0.0504437 0.0678275 0.00826361)
(0.0169007 -0.0679583 0.0365019)
(0.0587447 -0.0259756 0.0170348)
(0.0651116 -0.0355068 0.0105454)
(0.0568131 -0.0394818 0.00772925)
(0.0359133 -0.042715 0.00168029)
(0.0189147 -0.0465234 -0.00736827)
(0.0130275 -0.0357409 -0.0216753)
(0.0140286 -0.0125663 -0.0189958)
(0.00966311 0.0472515 -0.029563)
(0.027223 0.111921 -0.0368489)
(0.0309937 0.145597 -0.0149066)