/*--------------------------------*- C++ -*----------------------------------*\
| =========                 |                                                 |
| \\      /  F ield         | OpenFOAM: The Open Source CFD Toolbox           |
|  \\    /   O peration     | Version:  2.3.0                                 |
|   \\  /    A nd           | Web:      www.OpenFOAM.org                      |
|    \\/     M anipulation  |                                                 |
\*---------------------------------------------------------------------------*/
FoamFile
{
    version     2.0;
    format      ascii;
    class       volVectorField;
    location    "12";
    object      U.water;
}
// * * * * * * * * * * * * * * * * * * * * * * * * * * * * * * * * * * * * * //

dimensions      [0 1 -1 0 0 0 0];

internalField   nonuniform List<vector> 
6144
(
(0.00770532 0.0177157 0.00107847)
(0.00837379 0.00215066 0.00133379)
(0.00335101 -0.00122017 0.000834781)
(0.00353742 -0.00279278 0.000404578)
(0.00199109 -0.00515059 0.000987507)
(0.00211885 -0.00414608 0.000755848)
(0.00191638 -0.00457171 0.000228261)
(0.00211732 -0.00342901 -3.22373e-05)
(0.0021108 -0.00280823 -0.000512471)
(0.00231969 -0.00149435 -0.000665925)
(0.00254083 -0.000636588 -0.000743405)
(0.00278187 -2.00068e-05 -0.000676227)
(0.00298615 5.18618e-05 -0.000737765)
(0.00314308 1.40122e-05 -0.000777224)
(0.00324906 -0.000211604 -0.00091306)
(0.00332408 -0.000369567 -0.00100069)
(0.00338005 -0.000560976 -0.00112158)
(0.00341602 -0.000648661 -0.00119617)
(0.0034461 -0.000754029 -0.00127719)
(0.00346957 -0.000777172 -0.00132567)
(0.00348566 -0.000813254 -0.00137375)
(0.00350167 -0.000804701 -0.00140172)
(0.00351189 -0.000804529 -0.00142735)
(0.00352148 -0.000785621 -0.00144255)
(0.00352802 -0.000770055 -0.00145473)
(0.00353336 -0.000749451 -0.00146218)
(0.003537 -0.000729906 -0.0014674)
(0.00353947 -0.000709787 -0.00147033)
(0.0035408 -0.000689501 -0.00147167)
(0.00354077 -0.00067149 -0.0014714)
(0.00354082 -0.000647676 -0.00147018)
(0.00353626 -0.000641238 -0.00146704)
(0.0035404 -0.000591944 -0.00146181)
(0.00351879 -0.000637444 -0.00145934)
(0.00354787 -0.000501291 -0.00143993)
(0.00348809 -0.000689902 -0.00144521)
(0.00355907 -0.000322263 -0.00140515)
(0.00344121 -0.000872084 -0.00142567)
(0.00356931 6.30883e-06 -0.00135052)
(0.00338149 -0.00125393 -0.0013961)
(0.00356709 0.000557031 -0.00125287)
(0.00332001 -0.00194779 -0.00133377)
(0.00353758 0.00133643 -0.00109415)
(0.00326074 -0.0030683 -0.00120808)
(0.00349581 0.00225784 -0.000905072)
(0.00315917 -0.00463586 -0.00100598)
(0.00341619 0.00357172 -0.000917099)
(0.00293732 -0.00609693 -0.000952471)
(0.00371961 0.00653752 -0.00188241)
(0.00292877 -0.00695287 -0.00160289)
(0.00551288 0.0127347 -0.0029188)
(0.00458743 -0.0139076 -0.0014494)
(0.00116592 0.012811 -0.00270759)
(0.0027696 -0.0141553 -0.00345772)
(0.0159447 0.0468014 -0.00573556)
(0.00502448 -0.0592825 -0.0143533)
(0.00748189 0.0646772 -0.012728)
(0.0069426 -0.0550676 -0.0319272)
(-0.0299751 0.101502 -0.0713151)
(0.0532408 -0.0852372 -0.132658)
(0.135389 -0.257453 -0.0206266)
(0.0861211 -0.0992357 -0.00730864)
(0.0396807 -0.171234 -0.0021282)
(0.0380694 -0.18253 0.00208544)
(0.0319712 -0.183933 0.00496127)
(0.0227155 -0.191882 0.00638297)
(0.0151768 -0.197281 0.0067143)
(0.0103189 -0.199083 0.00607634)
(0.00712361 -0.19761 0.00490608)
(0.00444976 -0.193368 0.00365131)
(0.00191994 -0.186911 0.00247685)
(-0.000195174 -0.17854 0.00114765)
(-0.00186772 -0.168257 -0.000166785)
(-0.0030123 -0.156297 -0.00129876)
(-0.00282172 -0.143171 -0.00211792)
(-0.0021207 -0.130441 -0.00317156)
(-0.00100772 -0.118224 -0.00388641)
(-0.00010035 -0.107225 -0.00486178)
(0.000420375 -0.0981503 -0.00547235)
(0.00157907 -0.0917097 -0.00559134)
(0.00359193 -0.0859267 -0.00587063)
(0.00540429 -0.080794 -0.00538757)
(0.00586176 -0.0755391 -0.00568445)
(0.00593567 -0.0703551 -0.00458998)
(0.00436356 -0.0664048 -0.00482505)
(0.00391104 -0.0613239 -0.00334603)
(0.00102082 -0.0575722 -0.00367607)
(-0.000460938 -0.04959 -0.00260034)
(-0.00501941 -0.0402617 -0.00361906)
(-0.0100888 -0.0201594 -0.00419374)
(-0.00532903 0.000598495 0.000438824)
(0.00177159 0.0115431 -0.00382705)
(0.00538048 0.0166938 -0.0102145)
(0.00763883 0.0210475 -0.00994267)
(0.0123557 0.0191964 -0.00600862)
(0.0147253 0.00951411 -0.00125949)
(0.0132459 0.0179307 0.00335787)
(0.0158866 0.00829 0.00435507)
(0.00674204 0.00411021 0.00381542)
(0.00843383 0.00327464 0.00394362)
(0.00418842 -0.000230597 0.00481802)
(0.00469619 0.000484355 0.00421002)
(0.00372634 -0.00130022 0.00431878)
(0.00389508 -0.000609784 0.00382168)
(0.00380504 -0.000960306 0.00312776)
(0.00401403 0.000116926 0.00265429)
(0.00438394 0.000639649 0.00253046)
(0.00498289 0.00114135 0.00270626)
(0.00547124 0.000987421 0.00271294)
(0.00586406 0.000802673 0.00270279)
(0.00608439 0.000410507 0.00254282)
(0.00625117 0.000163186 0.00242742)
(0.00634143 -0.000118071 0.002272)
(0.00641492 -0.000250616 0.00218134)
(0.00645882 -0.000396622 0.00208211)
(0.00650103 -0.000438479 0.00203075)
(0.00652713 -0.000492637 0.00198021)
(0.00655552 -0.00048913 0.00195941)
(0.00657395 -0.00049587 0.00194049)
(0.00659233 -0.000476051 0.00193727)
(0.00660509 -0.000461081 0.00193712)
(0.00661605 -0.000438173 0.00194377)
(0.0066233 -0.000416406 0.00195283)
(0.00662815 -0.000393199 0.00196473)
(0.00663066 -0.000369958 0.00197834)
(0.0066306 -0.00034821 0.00199371)
(0.00662949 -0.000323823 0.00201036)
(0.00662149 -0.000308907 0.00202843)
(0.00662418 -0.000267677 0.00204818)
(0.00659178 -0.000289153 0.00206866)
(0.00662771 -0.00017749 0.00210119)
(0.00653032 -0.000337291 0.0021124)
(0.00664564 2.88594e-07 0.00217624)
(0.00642485 -0.000535525 0.00215681)
(0.00667284 0.000339524 0.00228003)
(0.00627113 -0.000977451 0.00220058)
(0.00670464 0.000933968 0.00245443)
(0.00607799 -0.00181051 0.00226528)
(0.00673609 0.00182143 0.00273248)
(0.00583476 -0.00317613 0.00237673)
(0.00671371 0.00283536 0.00298066)
(0.00547774 -0.0051962 0.00255234)
(0.00644469 0.00414099 0.00276663)
(0.00466821 -0.006947 0.0021984)
(0.00617519 0.00697124 0.000615154)
(0.00423128 -0.00512172 0.000636373)
(0.00895758 0.0144049 -0.00102237)
(0.00834476 -0.00518009 0.00108311)
(0.00556407 0.0251945 0.00464496)
(-0.00618078 -0.0290706 0.00410387)
(0.0288047 0.031537 0.00151265)
(0.0317748 -0.0520508 -5.89296e-05)
(-0.0321657 0.0258047 0.00381629)
(-0.0261766 -0.0200435 -0.0113582)
(-0.00249294 0.149766 0.00051422)
(0.1903 -0.124173 -0.0762498)
(0.196194 -0.225762 -0.0167378)
(0.0605731 0.0829693 0.0064165)
(-0.0345852 -0.124414 0.00964259)
(-0.0150695 -0.0907811 0.0128851)
(-0.0154978 -0.111144 0.0136923)
(-0.0227872 -0.134804 0.0141575)
(-0.0247295 -0.146139 0.013667)
(-0.0243793 -0.153485 0.0119117)
(-0.0234297 -0.157319 0.00945398)
(-0.0223682 -0.157966 0.00678011)
(-0.0209608 -0.155912 0.00450677)
(-0.0199706 -0.150986 0.00245813)
(-0.0191085 -0.143811 0.000853489)
(-0.0180766 -0.133442 -0.000358083)
(-0.0162459 -0.121292 -0.00169107)
(-0.0141527 -0.10994 -0.00307398)
(-0.0100579 -0.100452 -0.00426659)
(-0.00292083 -0.0893182 -0.00493167)
(0.0012691 -0.0782996 -0.004365)
(0.00265244 -0.066693 -0.00453324)
(0.00205924 -0.0549184 -0.00506178)
(0.00149073 -0.0443167 -0.00501866)
(0.00193379 -0.0348391 -0.00381396)
(0.00293205 -0.028413 -0.00173434)
(0.00356331 -0.0256061 -0.000352015)
(0.00192356 -0.0243003 0.00133771)
(-0.00095488 -0.0249106 0.00102184)
(-0.00567963 -0.0241005 0.00180994)
(-0.0121967 -0.0229611 -0.00149467)
(-0.0167745 -0.0143503 -0.00319868)
(-0.0144279 -0.00147144 0.0016095)
(-0.00568097 0.0072474 0.000595954)
(0.00166358 0.0150593 -0.00347593)
(0.00456398 0.0205222 -0.00230078)
(0.00580076 0.0190508 0.00797407)
(0.00798237 0.0116498 0.0187334)
(0.0149308 0.0136029 0.00283555)
(0.0201311 0.00868493 0.00334732)
(0.00733453 0.00409222 0.00247156)
(0.0106626 0.00604406 0.00250824)
(0.0044289 0.0019186 0.00423367)
(0.00528917 0.00362016 0.00439754)
(0.00361874 0.00149995 0.00547583)
(0.00372778 0.00192412 0.00542212)
(0.00318847 0.000930007 0.00504355)
(0.00314773 0.00151565 0.00464113)
(0.00346079 0.00164698 0.00437794)
(0.00428198 0.00205376 0.00453098)
(0.00488262 0.00167087 0.00467024)
(0.00541269 0.00137953 0.00472352)
(0.00562433 0.000844259 0.00469499)
(0.00581221 0.000544723 0.00465443)
(0.00586075 0.000203207 0.0046055)
(0.00593035 4.77773e-05 0.00457584)
(0.00594343 -0.00012237 0.0045539)
(0.0059747 -0.000174818 0.00455054)
(0.005982 -0.000240175 0.00455266)
(0.00600029 -0.000244311 0.00456779)
(0.00600599 -0.000256795 0.00458404)
(0.00601526 -0.000241 0.00460862)
(0.00601797 -0.000230106 0.00463383)
(0.00601965 -0.000209757 0.00466214)
(0.00601731 -0.000190471 0.00468988)
(0.00601252 -0.000169026 0.00471865)
(0.00600514 -0.000147811 0.00474781)
(0.00599536 -0.000127599 0.004777)
(0.00598352 -0.000105294 0.00480545)
(0.00596706 -9.00307e-05 0.00483304)
(0.00595451 -5.86982e-05 0.0048603)
(0.00592379 -6.4675e-05 0.00488466)
(0.00593243 1.53107e-05 0.00491272)
(0.00584328 -9.58876e-05 0.00492508)
(0.00594223 0.000167772 0.00497739)
(0.00570269 -0.000270556 0.00495205)
(0.00598543 0.000477587 0.00504618)
(0.00549401 -0.000684141 0.0049552)
(0.00607734 0.00103055 0.00513951)
(0.00522889 -0.00148974 0.00493152)
(0.00624595 0.0018734 0.00527095)
(0.00488644 -0.00284357 0.00486257)
(0.0063819 0.00293918 0.00530865)
(0.00443066 -0.0048139 0.00475876)
(0.00611485 0.00425201 0.00466486)
(0.0032932 -0.0059243 0.00439114)
(0.00409442 0.00668027 0.00161572)
(0.00252868 -0.00161218 0.00252017)
(0.00549936 0.0143933 0.000834091)
(0.00802617 0.00211971 0.0040903)
(0.0121177 0.0287862 0.00720541)
(0.00220046 -0.0294195 0.00695825)
(0.0346758 0.0168296 0.00165701)
(0.0459653 -0.061595 0.00238904)
(-0.0693673 0.0575009 0.0203161)
(-0.0729283 -0.112051 -0.0122305)
(-0.0542345 0.175025 -0.0273734)
(0.187112 -0.156505 -0.048583)
(0.222132 -0.178283 -0.0153371)
(0.0824763 0.142702 0.0110245)
(0.077064 -0.13417 0.0170432)
(0.0411422 -0.0749017 0.0216779)
(0.0158786 -0.0970492 0.0208528)
(0.00203155 -0.114614 0.0188078)
(-0.0060687 -0.120324 0.0162873)
(-0.0119425 -0.123828 0.0125343)
(-0.0146024 -0.125092 0.0085991)
(-0.0172197 -0.123971 0.0046971)
(-0.0190093 -0.119173 0.00073567)
(-0.0209044 -0.113166 -0.00318145)
(-0.0236776 -0.106182 -0.00426096)
(-0.0201404 -0.0966942 -0.00586127)
(-0.0144041 -0.0831145 -0.00713644)
(-0.0123135 -0.068175 -0.00915556)
(-0.0126251 -0.0512173 -0.0158749)
(-0.0131239 -0.0156749 -0.0151059)
(-0.0103042 0.00459528 -0.0101118)
(-0.00453489 0.0191152 -0.00574661)
(0.000865867 0.023304 -0.00172312)
(0.00490765 0.0220558 0.00119889)
(0.00761298 0.0180114 0.0034729)
(0.00872457 0.0121931 0.00512312)
(0.00825038 0.00674753 0.00606346)
(0.00615668 0.00177029 0.00627556)
(0.00209987 -0.00204998 0.00566191)
(-0.00360399 -0.00424436 0.00549485)
(-0.0124179 -0.00486497 0.000965352)
(-0.0222951 -0.00160535 -0.00405667)
(-0.0197219 0.00487317 -0.00100762)
(-0.00808585 0.00723647 -0.000510776)
(-0.00176944 0.0138785 -0.00132542)
(0.000614389 0.0195965 0.00377962)
(0.000462067 0.0184576 0.0143234)
(0.0018644 0.0098255 0.0249305)
(0.0149444 0.0114084 0.00215737)
(0.023929 0.00859404 0.000406298)
(0.00689059 0.00183844 -0.00203497)
(0.0139781 0.00708478 -0.0026991)
(0.00479058 0.000660995 -0.000565894)
(0.0064416 0.00435963 0.000666368)
(0.00327573 0.00104265 0.00319069)
(0.00362524 0.00263464 0.003855)
(0.00267344 0.00140078 0.00447786)
(0.00252679 0.00228974 0.00431497)
(0.00243341 0.00235482 0.00412042)
(0.00326761 0.00285795 0.00445946)
(0.0039224 0.00242529 0.00478852)
(0.00445064 0.00213747 0.00496244)
(0.00463078 0.00150731 0.00501845)
(0.00478043 0.00117351 0.00503242)
(0.0047933 0.000768316 0.00502896)
(0.00483792 0.000585823 0.00502974)
(0.00482692 0.000383731 0.00503595)
(0.0048453 0.000314536 0.00505089)
(0.00484016 0.000231946 0.00506966)
(0.00485352 0.000215922 0.00509528)
(0.00485442 0.000192878 0.00512169)
(0.00486312 0.00019949 0.00515369)
(0.00486637 0.00020152 0.00518203)
(0.0048693 0.000215637 0.00520982)
(0.00486851 0.00022954 0.00523572)
(0.00486488 0.000246292 0.00526258)
(0.00485836 0.000262489 0.0052894)
(0.00484895 0.000277781 0.00531532)
(0.00483689 0.000294509 0.0053394)
(0.00482122 0.000307228 0.00536137)
(0.00480657 0.000327688 0.00538209)
(0.00478446 0.000331236 0.00539715)
(0.00478287 0.000377526 0.00541082)
(0.00472334 0.000317375 0.00541599)
(0.00479371 0.000489683 0.00543392)
(0.00459772 0.000177639 0.00540109)
(0.0048572 0.000751645 0.00545879)
(0.00440256 -0.00020335 0.00535015)
(0.00500027 0.00122854 0.00549275)
(0.00416226 -0.000986317 0.00524532)
(0.00528873 0.00195184 0.00555736)
(0.00382321 -0.00236388 0.00505016)
(0.00569139 0.00292412 0.00557181)
(0.00321139 -0.00422105 0.00475833)
(0.00542636 0.00404153 0.00483019)
(0.00186907 -0.00505732 0.00430283)
(0.00200533 0.00632253 0.00178543)
(0.000893388 -0.00328128 0.00360974)
(0.00282127 0.0107834 0.0032895)
(0.00682714 -0.00679925 0.00634258)
(0.016439 0.0215318 0.00758455)
(0.00708392 -0.0322006 -0.000750824)
(0.032669 0.031068 0.00151259)
(0.0202159 -0.0274281 0.00799286)
(-0.0259688 0.111289 0.0171972)
(-0.0969744 -0.155875 0.000239337)
(-0.0748147 0.224552 -0.0818194)
(0.205419 -0.194212 -0.0278921)
(0.249872 -0.160537 -0.0173223)
(0.0882831 0.115176 0.00280152)
(0.110628 -0.0562108 0.0146111)
(-0.0224145 0.0377026 0.0256405)
(-0.0284895 -0.0588091 0.0303566)
(-0.0281353 -0.0612845 0.0227695)
(-0.0301473 -0.0757351 0.0165075)
(-0.0317191 -0.0856511 0.00817741)
(-0.0298213 -0.0868221 0.00113829)
(-0.0215576 -0.0845748 -0.004574)
(-0.0131043 -0.0748884 -0.00921287)
(-0.0131001 -0.0607879 -0.0126597)
(-0.0196229 -0.0469398 -0.0158918)
(-0.0266154 -0.0210524 -0.0184149)
(-0.0282679 0.0176581 -0.0213788)
(-0.0254713 0.043685 -0.0170554)
(-0.0201591 0.0610587 -0.0110551)
(-0.010153 0.068538 -0.004209)
(-0.000293461 0.0692708 0.000600809)
(0.00545765 0.0648757 0.00361445)
(0.00930545 0.059626 0.00591985)
(0.0103671 0.0521486 0.00702975)
(0.0100502 0.04505 0.0075125)
(0.0084871 0.0370288 0.00737587)
(0.00577118 0.0302163 0.00670015)
(0.00159642 0.0237884 0.00557581)
(-0.00435192 0.0189435 0.00368096)
(-0.0126462 0.0156574 0.000893218)
(-0.0206194 0.0144664 -0.0032706)
(-0.0240807 0.0135027 -0.00519343)
(-0.0169226 0.0106178 -0.00198279)
(-0.00798567 0.0101496 -0.00150769)
(-0.0038049 0.0150688 0.000610236)
(-0.00404433 0.0184371 0.00645222)
(-0.00705557 0.016497 0.0166357)
(-0.00874559 0.0081949 0.0265417)
(0.0156972 0.0122611 0.00330083)
(0.0279381 0.0128908 0.000581684)
(0.0106453 0.00147186 -0.00613821)
(0.0207185 0.0105515 -0.00644384)
(0.0102165 -0.000151123 -0.00666506)
(0.0113843 0.00539544 -0.00461615)
(0.00520075 -0.000901099 -0.00152708)
(0.00427704 0.00138923 0.000264107)
(0.0016444 -0.000982411 0.00197317)
(0.00108042 0.000718606 0.00236349)
(0.000741838 0.00108736 0.00278994)
(0.00151054 0.00238326 0.00360671)
(0.00208102 0.00230252 0.00429787)
(0.00246166 0.00223965 0.0047168)
(0.00249298 0.001723 0.00488635)
(0.00250355 0.00146537 0.00497053)
(0.00241285 0.00108245 0.00499655)
(0.0023711 0.00091127 0.00501285)
(0.00230479 0.00070493 0.00502146)
(0.00228204 0.00063206 0.00502963)
(0.00225786 0.000544529 0.005037)
(0.00225621 0.000523726 0.00504834)
(0.00225115 0.00049456 0.00505918)
(0.00225519 0.000494985 0.00507232)
(0.00225673 0.000493611 0.00507943)
(0.00225932 0.000503639 0.00508593)
(0.0022608 0.000512043 0.00508992)
(0.00226117 0.000521539 0.0050904)
(0.00226013 0.000529624 0.0050864)
(0.00225681 0.000536864 0.00507745)
(0.00224986 0.000546408 0.00506069)
(0.00224121 0.000553327 0.00504144)
(0.00223035 0.000569031 0.00502118)
(0.00221729 0.000575066 0.00500023)
(0.00221136 0.00060826 0.00497994)
(0.0021821 0.000579627 0.00495676)
(0.0022207 0.000695851 0.00493962)
(0.00209445 0.000478707 0.00488773)
(0.00231155 0.000924725 0.00490628)
(0.00194264 0.000126037 0.0047726)
(0.00254887 0.00135818 0.00489575)
(0.00176422 -0.00061125 0.00459693)
(0.00301872 0.00202675 0.0049357)
(0.00150221 -0.00183818 0.00432315)
(0.00359487 0.00292278 0.00492867)
(0.000998702 -0.00315697 0.00397166)
(0.00287637 0.00409008 0.00403283)
(-0.000165507 -0.00298944 0.00349641)
(2.15884e-05 0.0064307 0.00141426)
(-0.000428427 -0.00382376 0.0035884)
(0.00359955 0.0075696 0.00340156)
(0.00329563 -0.0157162 0.00575511)
(0.022859 0.0110189 0.0066606)
(-0.00142831 -0.0324202 -0.000200982)
(0.033726 0.0355782 0.0316854)
(0.0292678 -0.0703663 0.0210938)
(0.0173204 0.0468772 0.0650476)
(-0.118578 -0.142941 0.0304806)
(-0.0135582 0.188317 -0.176459)
(0.141319 -0.280799 -0.00354258)
(0.215111 -0.0843519 -0.0144677)
(0.0806732 0.106044 -0.00260267)
(0.086091 0.0349412 0.0103087)
(0.0167864 0.0527992 0.0134294)
(0.0266572 -0.00754024 0.00983674)
(-0.0052504 -0.0182207 0.00388458)
(-0.0125695 -0.0328324 -0.00280717)
(-0.0133887 -0.0323818 -0.010651)
(-0.0123887 -0.0189814 -0.0195116)
(-0.0163401 0.00642659 -0.0237144)
(-0.0222544 0.0498108 -0.0233986)
(-0.0277142 0.0742877 -0.0187192)
(-0.0303461 0.0942002 -0.0165063)
(-0.0295446 0.10881 -0.0126439)
(-0.0225831 0.116181 -0.00811612)
(-0.0150765 0.119325 -0.00253788)
(-0.00817044 0.119121 0.00201912)
(-0.0023964 0.11631 0.00543825)
(0.00224697 0.112344 0.00741939)
(0.00529726 0.106305 0.00788532)
(0.00753948 0.0999672 0.00758745)
(0.00881218 0.0916295 0.00645677)
(0.00913146 0.0832754 0.00480779)
(0.00831897 0.0736186 0.00279412)
(0.0065602 0.0649159 0.000630998)
(0.0035292 0.0551439 -0.00168818)
(-0.000484592 0.0466226 -0.00387221)
(-0.00562665 0.0375761 -0.00575534)
(-0.00970541 0.0298243 -0.0068547)
(-0.0106391 0.0213574 -0.00583633)
(-0.00593337 0.0168402 -0.00336437)
(-0.00324122 0.0164505 -0.00127657)
(-0.00371577 0.0196656 0.00199939)
(-0.0072932 0.0198116 0.00772643)
(-0.0134684 0.0165635 0.016435)
(-0.0183996 0.00828688 0.0251598)
(0.0147447 0.0154429 0.0036292)
(0.028831 0.0194182 0.00436525)
(0.0151516 0.00123804 -0.00617593)
(0.0254889 0.0126892 -0.00345874)
(0.0181617 -0.00231374 -0.00816058)
(0.0190484 0.00590699 -0.00715231)
(0.0117421 -0.00140077 -0.00537467)
(0.00794401 0.00196376 -0.00296631)
(0.00359747 -0.0031441 -0.00116558)
(0.00123416 -0.00195284 -0.000599524)
(-0.000422632 -0.00181183 0.000334044)
(3.10106e-05 0.000328771 0.00189314)
(0.000888596 0.00093438 0.00318592)
(0.00131553 0.00145945 0.0039688)
(0.0012929 0.00132437 0.00435406)
(0.00120863 0.0013414 0.00454322)
(0.00105508 0.00111453 0.00461079)
(0.000950812 0.00105776 0.0046351)
(0.000855752 0.00091473 0.00462811)
(0.000806835 0.00088797 0.00460685)
(0.000779754 0.000824157 0.00457381)
(0.000779406 0.000818537 0.00453772)
(0.000787781 0.000795537 0.00449303)
(0.000805463 0.000799187 0.00444951)
(0.000830255 0.000800453 0.00440688)
(0.000859827 0.000809564 0.00436656)
(0.000891822 0.000817236 0.004325)
(0.000923255 0.000826852 0.00428167)
(0.000951381 0.000836578 0.00423578)
(0.000975948 0.000847387 0.00418842)
(0.000998674 0.00085925 0.00414229)
(0.00101941 0.000865584 0.00409572)
(0.0010322 0.000880323 0.00404426)
(0.00104851 0.000885236 0.00399433)
(0.00106339 0.000912836 0.00394438)
(0.00107433 0.00090519 0.00389756)
(0.00111521 0.000988424 0.00385839)
(0.00108402 0.000873224 0.00382586)
(0.00127182 0.00120509 0.00383187)
(0.00105865 0.000616879 0.00376316)
(0.00158522 0.00163042 0.00386864)
(0.00103901 4.66442e-05 0.003681)
(0.00211125 0.00231705 0.00397379)
(0.000985122 -0.000805927 0.00354698)
(0.00261776 0.00332854 0.00400365)
(0.000649324 -0.00136631 0.003273)
(0.00168723 0.00485914 0.00310802)
(-0.00034056 -0.00111026 0.00283403)
(0.000132958 0.00665723 0.00142001)
(0.000603776 -0.00446361 0.00389011)
(0.0075317 0.00503537 0.00319129)
(0.00589069 -0.0179524 0.00583975)
(0.0202665 0.00134771 0.00454239)
(0.0017469 -0.0200753 0.0155677)
(0.0302403 0.00561661 0.0482052)
(-0.000383797 -0.0238331 0.0456565)
(0.00398025 0.0481794 0.101864)
(-0.108639 -0.116169 0.0771857)
(0.0477723 0.0181975 -0.17989)
(0.0713496 -0.284306 0.000654856)
(0.179403 -0.0331789 -0.0179478)
(0.0841434 0.129195 -0.00797843)
(0.0838518 0.114869 -0.000804013)
(0.0316701 0.118496 -0.0016323)
(0.0178452 0.112972 -0.00830101)
(0.00105543 0.108754 -0.0105062)
(-0.00772821 0.1176 -0.0155531)
(-0.0154217 0.126592 -0.0150204)
(-0.0196186 0.143051 -0.0150755)
(-0.0232769 0.152026 -0.0111513)
(-0.0222643 0.163131 -0.00838302)
(-0.0217638 0.167182 -0.00404122)
(-0.0203201 0.172994 -0.00147713)
(-0.0186704 0.173553 0.00256009)
(-0.0153221 0.174762 0.00516391)
(-0.0112669 0.172473 0.00827614)
(-0.00704544 0.17066 0.0103339)
(-0.0028501 0.166531 0.0120314)
(0.00124825 0.162288 0.0126276)
(0.0046712 0.156048 0.0126925)
(0.00803816 0.149479 0.0121948)
(0.0111448 0.140872 0.0117015)
(0.0138391 0.132016 0.010857)
(0.0152261 0.120297 0.00972925)
(0.0153963 0.108641 0.00833388)
(0.0139168 0.0942056 0.00662317)
(0.0114134 0.0804527 0.00472267)
(0.00767699 0.0656955 0.00269843)
(0.00361736 0.0508495 0.00120439)
(-0.000343554 0.0370737 0.000778691)
(-0.0041927 0.0255611 0.000877197)
(-0.00604412 0.0193845 0.00120686)
(-0.0062799 0.0170627 0.00319496)
(-0.00927304 0.0168175 0.00758581)
(-0.0163675 0.0130644 0.015022)
(-0.0212744 0.00600501 0.0221423)
(0.0121748 0.0181713 0.00450609)
(0.0298265 0.0273268 0.00999673)
(0.014023 -0.00447706 0.00078518)
(0.0234113 0.0111769 0.00688436)
(0.0198643 -0.00968654 -0.000598927)
(0.0206229 0.00343551 -0.00663672)
(0.0158323 -0.00379691 -0.00525181)
(0.0111828 0.00211562 -0.00328203)
(0.00665288 -0.00326934 -0.00174471)
(0.00141188 -0.00301006 -0.00146883)
(-0.00151985 -0.00390526 -0.00115562)
(-0.00210475 -0.00193542 0.000129431)
(-0.00156954 -0.000890766 0.00165073)
(-0.00126058 0.000159636 0.00266492)
(-0.00143189 0.000390644 0.00318145)
(-0.00163379 0.000770802 0.00343985)
(-0.00189232 0.00080459 0.00352466)
(-0.00205205 0.000959615 0.00355413)
(-0.00218975 0.000952049 0.0035404)
(-0.00224108 0.00103864 0.00352065)
(-0.00225487 0.00104957 0.00348285)
(-0.00222541 0.00110828 0.00344061)
(-0.00217686 0.00112653 0.00338868)
(-0.00211561 0.00116027 0.00333843)
(-0.00205108 0.00117886 0.00328297)
(-0.00198406 0.00120048 0.00323169)
(-0.00191667 0.00121756 0.00318217)
(-0.00184807 0.00123492 0.00313814)
(-0.00177982 0.00125132 0.00309847)
(-0.00171316 0.001267 0.00306279)
(-0.00165109 0.00128299 0.00302898)
(-0.00159183 0.00129674 0.00299749)
(-0.00153894 0.00131512 0.00296638)
(-0.00148223 0.00132232 0.00293881)
(-0.00143853 0.00134652 0.00291083)
(-0.00139388 0.00134329 0.00289301)
(-0.00135328 0.00139465 0.00288015)
(-0.0013305 0.00133086 0.00289556)
(-0.00119931 0.00155525 0.00293375)
(-0.0012953 0.00112471 0.00298904)
(-0.000922373 0.00195147 0.00309277)
(-0.00127587 0.000699107 0.00310652)
(-0.00054025 0.00265584 0.00334311)
(-0.00129903 0.000282797 0.00322045)
(-0.000355093 0.00377179 0.00344883)
(-0.00155189 0.000288815 0.00314611)
(-0.00115832 0.00541108 0.00266936)
(-0.00196782 -0.000118118 0.00274702)
(-0.000801123 0.00703776 0.00183209)
(-0.000262888 -0.00511162 0.0040593)
(0.00743841 0.00516714 0.00505892)
(0.00676076 -0.0130676 0.00708763)
(0.011162 0.00155782 0.0038017)
(0.00683624 -0.00797809 0.00631149)
(-0.00590204 -0.0131448 0.0426939)
(-0.0392055 -0.0255749 0.0710843)
(0.0208299 -0.0111522 0.105832)
(-0.0480829 -0.10669 0.0801747)
(0.0429425 -0.137774 -0.176487)
(0.0427052 -0.29053 0.00371611)
(0.0858227 0.0700973 -0.0101972)
(0.0471956 0.208617 -0.00607744)
(0.0479623 0.230626 0.00526032)
(0.0301938 0.240766 0.00444132)
(0.0215698 0.241872 0.00481995)
(0.00730731 0.240817 0.000277842)
(-0.000276406 0.244337 -0.000316732)
(-0.00775365 0.243443 -0.000252213)
(-0.0119218 0.24616 0.00120965)
(-0.014751 0.245054 0.00298068)
(-0.0170902 0.245659 0.00459921)
(-0.0183042 0.244256 0.00638082)
(-0.018226 0.244603 0.00820358)
(-0.0172781 0.240967 0.00979693)
(-0.0156228 0.237965 0.0113014)
(-0.0131508 0.23302 0.0129681)
(-0.0102451 0.227773 0.01404)
(-0.00671155 0.221723 0.0149372)
(-0.00243695 0.214942 0.0155915)
(0.00227397 0.207906 0.0157343)
(0.00764914 0.200628 0.0157215)
(0.0129163 0.192498 0.0159)
(0.0177976 0.185157 0.0162617)
(0.0213167 0.175988 0.0161166)
(0.0235728 0.166467 0.0156238)
(0.0247851 0.154108 0.0154508)
(0.0243492 0.140023 0.0142016)
(0.0227816 0.123268 0.0117978)
(0.0203152 0.105069 0.0098575)
(0.0166882 0.0856341 0.00740352)
(0.0116072 0.0653977 0.00439272)
(0.00429934 0.045297 0.00225249)
(-0.00318396 0.0263073 0.00267646)
(-0.0112068 0.0202211 0.00610303)
(-0.0231902 0.0117797 0.0109236)
(-0.0364296 0.00427153 0.0178563)
(0.003102 0.0128031 0.00188892)
(0.0320531 0.0327482 0.0117982)
(0.00837344 -0.00735019 0.00656785)
(0.0135958 0.0120087 0.013035)
(0.0133671 -0.0126211 0.00804559)
(0.0151548 -0.000594225 -4.54281e-05)
(0.0145241 -0.00749072 -0.00262581)
(0.0110711 0.000499268 -0.00318705)
(0.00857446 -0.00265385 -0.00109169)
(0.00214457 -0.00265835 -0.00116507)
(-0.00208458 -0.0047374 -0.000803664)
(-0.00302722 -0.00363185 6.30775e-05)
(-0.00231045 -0.00284889 0.00152112)
(-0.00162231 -0.00159593 0.00277902)
(-0.00160938 -0.00089736 0.00346629)
(-0.00172875 -8.41919e-05 0.00386377)
(-0.00193222 0.0003421 0.00402035)
(-0.00203654 0.000805397 0.00410196)
(-0.00213837 0.00102983 0.00411446)
(-0.00215889 0.00128224 0.00411727)
(-0.00215966 0.00140637 0.0041012)
(-0.00211992 0.0015415 0.00408553)
(-0.00207354 0.00160083 0.00406928)
(-0.00201105 0.00165738 0.0040701)
(-0.0019435 0.00169016 0.00407328)
(-0.0018716 0.00171787 0.00408545)
(-0.00179855 0.00173733 0.00410324)
(-0.00172333 0.00175438 0.0041275)
(-0.00164723 0.00176884 0.00415647)
(-0.0015713 0.00178189 0.00418954)
(-0.00149827 0.00179459 0.00422507)
(-0.00142529 0.00180401 0.00426368)
(-0.00135822 0.00181672 0.00430322)
(-0.00128433 0.00182041 0.00434697)
(-0.00122158 0.00183682 0.00439023)
(-0.00115297 0.0018282 0.00443886)
(-0.00108658 0.00185883 0.00448894)
(-0.00101636 0.00182695 0.00455606)
(-0.000898755 0.00198123 0.00462403)
(-0.000891994 0.0017254 0.00472252)
(-0.000613391 0.00239117 0.00481195)
(-0.000757304 0.00152035 0.00491085)
(-0.000247693 0.00319298 0.00501709)
(-0.000652947 0.00149278 0.00504534)
(-0.00016539 0.00455137 0.00491108)
(-0.000787492 0.00171563 0.00482212)
(-0.000820156 0.00623341 0.00392228)
(-0.000954706 3.56598e-05 0.0039852)
(-0.00011879 0.00701863 0.00342536)
(0.00126119 -0.00669616 0.00516558)
(0.00577363 0.00479762 0.00742792)
(0.00892628 -0.010172 0.00988077)
(0.00684813 0.0031574 0.00858587)
(0.0163974 -0.00873428 0.0048961)
(-0.014068 0.000504649 0.0333078)
(-0.0566868 -0.043663 0.0566442)
(-0.0161244 -0.0376466 0.0874104)
(0.0159769 -0.0847354 0.0824572)
(0.0186077 -0.154769 -0.160084)
(0.00204697 -0.280354 0.00512899)
(-0.0130176 0.090029 -0.00391405)
(0.0140483 0.236147 -0.0074764)
(0.018758 0.268606 0.010061)
(0.0204295 0.288522 0.00928611)
(0.017489 0.296436 0.0116747)
(0.00943877 0.299772 0.00821602)
(0.00209049 0.299282 0.00939328)
(-0.00404512 0.298052 0.00775642)
(-0.0079143 0.295385 0.00903609)
(-0.0109796 0.291534 0.00972943)
(-0.0134362 0.287112 0.0109443)
(-0.0152955 0.281724 0.0113806)
(-0.0156732 0.275694 0.0129864)
(-0.0148675 0.268597 0.0137568)
(-0.0130891 0.261035 0.0148618)
(-0.0108076 0.25299 0.0155731)
(-0.00768152 0.244715 0.0162755)
(-0.00353216 0.235949 0.016743)
(0.00124818 0.226946 0.0171278)
(0.00621989 0.217837 0.0166151)
(0.0110473 0.207972 0.0157058)
(0.0154933 0.199698 0.0151302)
(0.0200311 0.192281 0.0155591)
(0.0238136 0.186675 0.0156372)
(0.0267187 0.181606 0.0158517)
(0.0292681 0.176133 0.0175118)
(0.0302487 0.170585 0.018829)
(0.0299499 0.162424 0.0193573)
(0.0281589 0.153914 0.019848)
(0.0251878 0.144504 0.0175145)
(0.0200301 0.133585 0.0114306)
(0.0114921 0.121345 0.00350229)
(-0.000145806 0.104324 -0.00491915)
(-0.0130412 0.0829407 -0.0116631)
(-0.0257221 0.0534142 -0.0175988)
(-0.0338689 0.0168413 -0.0234464)
(-0.00142794 -0.00170261 -0.00280865)
(0.0321821 0.035834 0.00803965)
(0.00108644 -0.00267535 0.00207029)
(0.00203198 0.0206003 0.00865057)
(0.00398558 -0.00635496 0.00791254)
(0.00556982 0.00296184 0.00205002)
(0.00858192 -0.00704544 -0.000211002)
(0.00863681 0.000755584 -0.00384174)
(0.00830682 -0.00167948 -0.00209644)
(0.00206287 -0.00139269 -0.00335611)
(-0.00304464 -0.0044615 -0.00406401)
(-0.00506689 -0.00422272 -0.00380133)
(-0.00523204 -0.00384444 -0.0026974)
(-0.00531011 -0.00254158 -0.00150921)
(-0.00560486 -0.0015554 -0.000714778)
(-0.00587154 -0.000473738 -0.000206851)
(-0.00615122 0.000194633 6.60109e-05)
(-0.00632614 0.000817373 0.000227716)
(-0.00645636 0.001146 0.000317836)
(-0.00648905 0.00143675 0.00037134)
(-0.00645664 0.00156906 0.000412947)
(-0.00635145 0.00168233 0.000462763)
(-0.00621707 0.00173398 0.000527178)
(-0.00609234 0.00178915 0.000605185)
(-0.00597299 0.00182371 0.000689737)
(-0.00585996 0.00185615 0.000781274)
(-0.00575313 0.001881 0.000874196)
(-0.00565394 0.00190281 0.000967431)
(-0.0055626 0.00192235 0.00105951)
(-0.00547707 0.00194144 0.00114984)
(-0.00539795 0.00196117 0.00123706)
(-0.00532119 0.00197824 0.0013215)
(-0.00525385 0.00199909 0.00140181)
(-0.0051805 0.0020122 0.00147968)
(-0.005122 0.00203943 0.00155345)
(-0.00505896 0.00204392 0.00162264)
(-0.00502096 0.00208396 0.00168734)
(-0.00497027 0.00207722 0.00175627)
(-0.00493982 0.00220638 0.00180467)
(-0.00488619 0.00204207 0.00189703)
(-0.00490115 0.00262618 0.00188815)
(-0.00482667 0.00198102 0.00203638)
(-0.00500284 0.0035089 0.00191626)
(-0.00486425 0.00224346 0.00208875)
(-0.00522941 0.0050256 0.00169437)
(-0.0047309 0.0027266 0.00182537)
(-0.0046286 0.00687822 0.000937874)
(-0.00349378 0.000484302 0.00123417)
(-0.00168766 0.00798407 0.00163381)
(-0.00140134 -0.00817022 0.00210613)
(0.000268526 0.00709587 0.00540676)
(0.0040654 -0.00877173 0.00699968)
(-0.00167462 0.0125995 0.00662109)
(0.0105483 -0.0100263 0.00978654)
(-0.015797 0.0356983 0.0229198)
(-0.0445058 -0.0469252 0.049508)
(-0.0438601 -0.0381327 0.0685121)
(0.0401718 -0.124054 0.070685)
(-0.0285963 -0.0810578 -0.169257)
(-0.0444638 -0.247276 -0.0105073)
(-0.130422 0.0262228 -0.0281538)
(-0.0335712 0.18543 -0.00866278)
(-0.0171247 0.192182 0.00740556)
(0.00170278 0.210426 0.00833456)
(0.00551967 0.216894 0.010125)
(0.00381345 0.221883 0.00821962)