/*--------------------------------*- C++ -*----------------------------------*\
| =========                 |                                                 |
| \\      /  F ield         | OpenFOAM: The Open Source CFD Toolbox           |
|  \\    /   O peration     | Version:  2.3.0                                 |
|   \\  /    A nd           | Web:      www.OpenFOAM.org                      |
|    \\/     M anipulation  |                                                 |
\*---------------------------------------------------------------------------*/
FoamFile
{
    version     2.0;
    format      ascii;
    class       volVectorField;
    location    "12";
    object      Ur;
}
// * * * * * * * * * * * * * * * * * * * * * * * * * * * * * * * * * * * * * //

dimensions      [0 1 -1 0 0 0 0];

internalField   nonuniform List<vector> 
6144
(
(-3.94564e-08 0.000663867 -2.11964e-07)
(-4.99442e-08 0.000669777 -1.93062e-07)
(-9.42518e-09 0.000678132 -1.39723e-07)
(-4.88576e-08 0.000684703 -1.4306e-07)
(-1.0911e-07 0.000691003 -5.35695e-08)
(-7.12822e-08 0.000696428 -5.96347e-08)
(-1.24772e-07 0.000698594 1.64547e-08)
(-1.03293e-07 0.000699487 1.93029e-08)
(-1.00829e-07 0.00069997 -1.61266e-09)
(-9.52655e-08 0.000700315 -1.28205e-08)
(-1.00556e-07 0.00070051 -3.28067e-08)
(-9.82816e-08 0.000700651 -2.77018e-08)
(-9.56505e-08 0.000700695 -2.23922e-08)
(-9.47506e-08 0.000700651 -1.80672e-08)
(-9.44861e-08 0.000700566 -2.13456e-08)
(-9.55898e-08 0.000700447 -2.48454e-08)
(-9.40811e-08 0.000700302 -2.83413e-08)
(-9.48166e-08 0.000700135 -3.12503e-08)
(-9.26653e-08 0.000699961 -3.22656e-08)
(-9.41084e-08 0.000699769 -3.39546e-08)
(-9.15119e-08 0.000699549 -3.36505e-08)
(-9.33998e-08 0.00069931 -3.51713e-08)
(-8.99252e-08 0.000699061 -3.46244e-08)
(-9.23901e-08 0.000698802 -3.69802e-08)
(-8.74314e-08 0.000698543 -3.69283e-08)
(-9.01117e-08 0.000698286 -4.09749e-08)
(-8.31998e-08 0.000698037 -4.21942e-08)
(-8.57975e-08 0.000697801 -4.886e-08)
(-7.62393e-08 0.000697589 -5.20719e-08)
(-7.83458e-08 0.000697405 -6.22269e-08)
(-6.54722e-08 0.000697264 -6.83461e-08)
(-6.67323e-08 0.000697169 -8.29586e-08)
(-4.95452e-08 0.000697144 -9.27461e-08)
(-4.92018e-08 0.000697194 -1.12573e-07)
(-2.60672e-08 0.000697338 -1.26861e-07)
(-2.22709e-08 0.000697606 -1.53155e-07)
(9.5487e-09 0.000697991 -1.73879e-07)
(2.02101e-08 0.000698526 -2.11038e-07)
(6.49583e-08 0.000699228 -2.44743e-07)
(8.68094e-08 0.000700101 -3.05884e-07)
(1.49476e-07 0.000701159 -3.68638e-07)
(1.81832e-07 0.000702442 -4.59959e-07)
(2.50373e-07 0.00070398 -5.27993e-07)
(2.57225e-07 0.000705826 -5.73731e-07)
(2.38873e-07 0.000707686 -5.52579e-07)
(-5.43101e-08 0.000726257 -4.81674e-07)
(-5.65641e-07 0.000819504 -2.68318e-07)
(-1.46754e-06 0.00107996 -7.96568e-08)
(-1.5845e-06 0.00147123 8.86789e-07)
(4.41729e-06 0.00186851 2.43342e-07)
(-7.59845e-07 0.00229241 -1.83428e-05)
(-1.38757e-05 0.00256837 -2.82936e-05)
(-1.37452e-05 0.0026299 -2.84261e-05)
(-1.15008e-05 0.00265009 -3.14295e-05)
(-1.80996e-05 0.00270506 -3.33612e-05)
(-3.54862e-05 0.00274726 -3.12989e-05)
(-9.87883e-05 0.00280195 -5.82317e-05)
(-5.80496e-07 0.00525392 -3.85616e-05)
(-0.00081911 0.0247307 -0.000825526)
(0.011591 0.167278 0.00213402)
(-0.0242611 0.597559 -0.0289756)
(-0.0519521 0.508137 -0.0364157)
(-0.000797949 0.0235147 -0.000452357)
(-7.24056e-05 0.00782237 -5.48982e-05)
(-7.25368e-05 0.00765307 -2.99836e-06)
(-9.2755e-05 0.00769335 1.48355e-05)
(-7.85045e-05 0.00773092 6.8997e-06)
(-5.17171e-05 0.00778434 -1.75278e-05)
(-3.29297e-05 0.0078331 -3.13997e-05)
(-2.13058e-05 0.00786131 -3.33072e-05)
(-1.12958e-05 0.00788611 -7.51013e-07)
(-3.88535e-05 0.00793425 1.37313e-05)
(-6.95077e-05 0.00804999 1.41597e-05)
(-7.41537e-05 0.00816944 -5.65489e-06)
(-0.000120244 0.00823358 -4.62476e-05)
(-0.000103466 0.00842974 -5.40993e-05)
(-7.07256e-05 0.00866948 -3.55819e-05)
(-4.35801e-05 0.00889968 1.45491e-05)
(-2.9508e-05 0.00896192 1.0212e-05)
(-2.31809e-05 0.00887598 2.51155e-06)
(-2.0742e-05 0.00882948 1.52907e-06)
(-2.72887e-05 0.00879849 3.69852e-07)
(-2.49881e-05 0.00874361 -1.73291e-06)
(-1.30552e-05 0.00866404 -2.7975e-06)
(-1.16921e-05 0.0085446 1.53539e-06)
(-1.12393e-05 0.00832181 1.84453e-06)
(-9.66324e-06 0.00785141 4.32228e-07)
(-7.00973e-06 0.00714167 1.25265e-06)
(5.12377e-07 0.00656049 6.96338e-06)
(8.26042e-07 0.00634503 7.37444e-06)
(-8.33636e-07 0.00630931 8.42468e-07)
(-3.97548e-06 0.00628769 2.10098e-06)
(-9.58712e-06 0.00625641 3.41597e-06)
(-9.10289e-06 0.00618541 4.57346e-06)
(-1.10635e-05 0.00610463 -4.03103e-06)
(-6.04657e-06 0.00605464 -6.35332e-06)
(4.8545e-07 0.000651479 2.97981e-07)
(4.11708e-07 0.000655147 2.8139e-07)
(1.24667e-07 0.000666213 -1.61893e-08)
(-2.92913e-08 0.000675756 -1.41653e-07)
(-2.79668e-07 0.000683942 -1.04975e-07)
(-1.96799e-07 0.000690413 -1.20337e-07)
(-3.25828e-07 0.000693111 -4.49509e-09)
(-2.56749e-07 0.000695344 -4.25687e-08)
(-2.541e-07 0.000697173 8.44198e-09)
(-2.29563e-07 0.000698737 5.46023e-09)
(-2.20689e-07 0.000699945 -9.50121e-09)
(-2.08424e-07 0.000700585 -1.16133e-08)
(-1.87938e-07 0.000700777 3.8226e-09)
(-1.7563e-07 0.000700772 1.42607e-08)
(-1.66809e-07 0.000700679 1.63426e-08)
(-1.63816e-07 0.000700554 1.62343e-08)
(-1.59505e-07 0.000700401 1.32193e-08)
(-1.58444e-07 0.000700224 1.28468e-08)
(-1.56016e-07 0.000700029 1.04031e-08)
(-1.56576e-07 0.000699817 1.18069e-08)
(-1.53885e-07 0.000699587 9.42431e-09)
(-1.53896e-07 0.000699342 1.18318e-08)
(-1.49484e-07 0.000699088 8.4004e-09)
(-1.47593e-07 0.000698827 1.14859e-08)
(-1.39435e-07 0.000698565 6.24719e-09)
(-1.33724e-07 0.000698307 9.31843e-09)
(-1.19622e-07 0.000698058 1.37751e-09)
(-1.07895e-07 0.000697824 3.78017e-09)
(-8.50628e-08 0.000697613 -7.68907e-09)
(-6.4443e-08 0.000697433 -6.60085e-09)
(-2.97479e-08 0.000697293 -2.2709e-08)
(3.20367e-09 0.000697206 -2.36264e-08)
(5.40849e-08 0.000697184 -4.52908e-08)
(1.04624e-07 0.000697246 -4.8459e-08)
(1.78898e-07 0.000697399 -7.66706e-08)
(2.55693e-07 0.000697682 -8.30812e-08)
(3.64631e-07 0.000698076 -1.19755e-07)
(4.81411e-07 0.000698639 -1.33032e-07)
(6.40999e-07 0.000699353 -1.84181e-07)
(8.15808e-07 0.000700249 -2.16645e-07)
(1.04388e-06 0.000701332 -2.94277e-07)
(1.28573e-06 0.000702639 -3.4548e-07)
(1.58715e-06 0.00070414 -4.2597e-07)
(1.87685e-06 0.000705863 -4.25216e-07)
(2.11239e-06 0.000707843 -3.71618e-07)
(1.8763e-06 0.000743381 -1.53388e-07)
(5.02143e-07 0.000905666 3.29432e-07)
(-2.01147e-06 0.00118318 1.37145e-06)
(-3.62099e-07 0.0015188 2.37994e-06)
(1.49508e-05 0.00207216 -3.63881e-06)
(1.68287e-05 0.00264901 -1.9267e-05)
(3.27506e-06 0.00279332 -3.08774e-05)
(-1.36482e-05 0.00269994 -3.28466e-05)
(-2.10617e-05 0.00261119 -3.00061e-05)
(-1.04287e-05 0.00259643 -2.27381e-05)
(-2.36295e-05 0.00260908 -1.34495e-05)
(-0.000186614 0.00289291 -4.72336e-05)
(-6.96113e-05 0.00466955 2.84652e-06)
(-0.000731103 0.0188877 -0.000633942)
(0.0215815 0.15297 0.014407)
(-0.0456431 0.612108 -0.024888)
(-0.0687423 0.424039 -0.0372816)
(-0.000787998 0.0225893 -0.000363537)
(-2.36838e-05 0.007485 1.80191e-05)
(-0.000104146 0.00757624 6.06935e-05)
(-7.23787e-05 0.00762118 2.08494e-05)
(-3.1836e-05 0.00772168 9.49662e-06)
(-1.72306e-05 0.00779057 -2.0357e-05)
(-3.94936e-05 0.00779991 -2.96243e-05)
(-7.03881e-05 0.00789073 -3.25545e-05)
(-6.8278e-05 0.00806234 -2.7903e-05)
(-4.48393e-05 0.0082998 -1.2525e-05)
(-4.01986e-05 0.00844639 -3.76429e-06)
(-4.24762e-05 0.00839354 1.99231e-05)
(-8.39992e-05 0.00843513 3.49134e-05)
(-0.000132007 0.0086783 -1.1274e-05)
(-0.000137181 0.00884472 -1.93702e-05)
(-8.7373e-05 0.00893019 -9.49567e-06)
(-7.08478e-05 0.0089588 -2.19664e-05)
(-6.52471e-05 0.00891836 -1.8186e-05)
(-6.91269e-05 0.00888235 -1.17826e-05)
(-7.02077e-05 0.00881263 -1.71531e-05)
(-3.92046e-05 0.00868897 -2.6721e-05)
(-2.60843e-05 0.00848832 -1.95245e-05)
(-3.2035e-05 0.00820184 -6.75423e-06)
(-3.7377e-05 0.00789657 -6.34053e-06)
(-3.8834e-05 0.00768043 -7.50644e-06)
(-3.68224e-05 0.00764547 -5.53728e-06)
(-3.03856e-05 0.0076674 -4.91171e-06)
(-1.92276e-05 0.00752476 4.28722e-06)
(-1.02479e-05 0.00730499 1.21406e-05)
(1.89447e-06 0.00730145 1.27321e-05)
(1.94815e-05 0.00756773 4.45616e-06)
(2.5407e-05 0.00767718 -5.01688e-06)
(1.65373e-05 0.00714104 -5.60583e-06)
(1.45608e-05 0.00635259 -6.7221e-06)
(1.34527e-07 0.000630947 2.29665e-06)
(2.23065e-08 0.000634185 1.43814e-06)
(-1.2659e-07 0.000653107 1.77831e-07)
(-1.76001e-07 0.000666628 2.44711e-08)
(-3.88478e-07 0.00067618 -1.75784e-07)
(-3.18348e-07 0.000683886 -1.97202e-07)
(-5.52862e-07 0.000687732 -1.00945e-07)
(-4.78153e-07 0.000690964 -9.74403e-08)
(-4.81207e-07 0.000692344 3.02125e-08)
(-4.00909e-07 0.000694526 5.98344e-08)
(-3.79971e-07 0.000697468 4.30797e-08)
(-3.81017e-07 0.000699658 2.39591e-08)
(-3.62115e-07 0.000700671 3.84404e-08)
(-3.50043e-07 0.000700859 5.13267e-08)
(-3.3193e-07 0.00070077 5.57411e-08)
(-3.25312e-07 0.000700635 5.5563e-08)
(-3.16881e-07 0.000700482 5.47778e-08)
(-3.16421e-07 0.000700305 5.38137e-08)
(-3.13304e-07 0.000700108 5.42461e-08)
(-3.1537e-07 0.000699893 5.47114e-08)
(-3.12711e-07 0.000699663 5.57019e-08)
(-3.13476e-07 0.000699418 5.62337e-08)
(-3.07611e-07 0.000699166 5.7137e-08)
(-3.04056e-07 0.000698908 5.71201e-08)
(-2.91045e-07 0.000698651 5.74505e-08)
(-2.79129e-07 0.000698397 5.63028e-08)
(-2.54225e-07 0.000698154 5.49226e-08)
(-2.29295e-07 0.000697928 5.16392e-08)
(-1.86865e-07 0.000697727 4.82137e-08)
(-1.42861e-07 0.000697556 4.21666e-08)
(-7.61295e-08 0.00069743 3.58104e-08)
(-5.52824e-09 0.00069736 2.61872e-08)
(9.41815e-08 0.000697357 1.61265e-08)
(2.02102e-07 0.000697442 2.09381e-09)
(3.48745e-07 0.000697623 -1.30884e-08)
(5.11784e-07 0.00069793 -3.34022e-08)
(7.26299e-07 0.000698367 -5.54122e-08)
(9.6809e-07 0.00069898 -8.57526e-08)
(1.2811e-06 0.000699751 -1.21865e-07)
(1.63727e-06 0.000700733 -1.71327e-07)
(2.08919e-06 0.000701905 -2.29398e-07)
(2.59251e-06 0.000703311 -2.94389e-07)
(3.20289e-06 0.000704923 -3.5204e-07)
(3.84787e-06 0.000706668 -3.71132e-07)
(4.47405e-06 0.000712298 -2.94539e-07)
(4.51282e-06 0.000744859 5.29291e-08)
(3.70388e-06 0.000855926 1.36668e-06)
(1.76996e-06 0.00114395 2.63808e-06)
(2.84034e-06 0.00174623 3.46356e-06)
(2.67183e-05 0.00248163 -1.18918e-05)
(2.57668e-05 0.00279575 -2.98744e-05)
(-4.41457e-06 0.0026462 -1.74176e-05)
(-5.67924e-07 0.00248954 -1.43648e-05)
(4.51961e-06 0.00244041 -1.76061e-05)
(1.11285e-05 0.00249141 -3.01137e-05)
(2.13445e-05 0.00243127 8.76367e-06)
(-0.000159667 0.0028795 8.26202e-05)
(7.12113e-06 0.00500291 0.00034708)
(-0.000926876 0.0183437 -9.44604e-05)
(0.0299165 0.168073 0.0200151)
(-0.0223046 0.626673 -0.0244913)
(-0.0302668 0.369744 -0.0135638)
(-0.000261527 0.023712 -0.000190486)
(6.98237e-06 0.00748135 -0.000400067)
(-9.91848e-05 0.00781096 -3.68399e-05)
(6.05847e-06 0.00778156 -2.25397e-05)
(-1.46707e-05 0.0078651 -4.06629e-05)
(-9.24279e-06 0.00782379 -4.17288e-05)
(-4.78524e-05 0.00790146 -1.45893e-05)
(-7.31739e-05 0.00805385 2.18286e-05)
(-4.00329e-05 0.00822123 2.49898e-05)
(4.02348e-06 0.00836428 1.92059e-06)
(3.61226e-06 0.00851787 -3.04088e-05)
(-7.25385e-06 0.00866788 -3.8234e-05)
(3.86774e-06 0.00879101 -1.79185e-05)
(-0.000291759 0.00880554 -1.54218e-05)
(-0.000104549 0.00899544 -2.17619e-05)
(-8.90431e-05 0.00908223 -3.33187e-05)
(-9.6705e-05 0.00909143 -3.39923e-05)
(-0.0001076 0.0090687 -2.72176e-05)
(-0.000103604 0.00909651 -2.58958e-05)
(-6.45056e-05 0.00916488 -2.87765e-05)
(-3.57276e-05 0.00909615 -0.000343681)
(-4.49621e-05 0.00869423 -3.2713e-05)
(-6.45586e-05 0.00821627 -2.34278e-05)
(-7.04546e-05 0.00774703 -2.0438e-05)
(-8.02191e-05 0.00734031 -1.81982e-05)
(-8.03045e-05 0.00723294 -1.41826e-05)
(-7.46656e-05 0.00744034 -9.30764e-06)
(-5.08814e-05 0.00774715 -6.46542e-06)
(-3.18059e-05 0.00792575 -5.36904e-06)
(-1.82406e-06 0.007983 -7.67514e-06)
(3.22178e-05 0.0081064 -9.30914e-06)
(4.33452e-05 0.00826675 -1.05481e-05)
(4.03547e-05 0.00797721 -2.22941e-05)
(2.44259e-05 0.00723572 -1.90242e-05)
(-4.52287e-07 0.000594763 1.11643e-06)
(-3.69736e-07 0.000601906 9.33172e-07)
(-4.25253e-07 0.000627037 2.07126e-07)
(-4.10152e-07 0.000642001 3.83636e-07)
(-2.89504e-07 0.000657466 -4.95606e-08)
(-3.47757e-07 0.000672498 -1.64769e-07)
(-5.73933e-07 0.000683535 -1.37529e-07)
(-6.21731e-07 0.000691381 -1.49854e-07)
(-6.32746e-07 0.000692699 -5.87073e-08)
(-5.50807e-07 0.000694042 1.76438e-08)
(-5.31594e-07 0.000696484 2.84552e-08)
(-5.53519e-07 0.000699006 1.63272e-08)
(-5.69995e-07 0.000700461 3.33012e-08)
(-5.79556e-07 0.000700793 5.41374e-08)
(-5.75989e-07 0.000700732 6.37484e-08)
(-5.7493e-07 0.000700601 6.96806e-08)
(-5.71912e-07 0.00070045 7.16986e-08)
(-5.73315e-07 0.00070027 7.6157e-08)
(-5.75107e-07 0.000700074 7.6805e-08)
(-5.77913e-07 0.000699858 8.19785e-08)
(-5.8138e-07 0.000699629 8.1291e-08)
(-5.8209e-07 0.000699388 8.69025e-08)
(-5.83041e-07 0.000699139 8.39053e-08)
(-5.77682e-07 0.000698887 8.94935e-08)
(-5.7124e-07 0.000698636 8.40637e-08)
(-5.53316e-07 0.000698392 8.93574e-08)
(-5.32127e-07 0.00069816 7.98258e-08)
(-4.9433e-07 0.000697948 8.43732e-08)
(-4.50518e-07 0.000697761 7.07633e-08)
(-3.83774e-07 0.000697612 7.45224e-08)
(-3.07465e-07 0.000697507 5.51991e-08)
(-2.00486e-07 0.00069746 5.70089e-08)
(-8.02449e-08 0.000697486 3.12106e-08)
(8.12638e-08 0.000697606 2.98881e-08)
(2.6527e-07 0.000697827 -5.04608e-09)
(5.07206e-07 0.000698185 -1.14218e-08)
(7.84073e-07 0.000698682 -5.7413e-08)
(1.14055e-06 0.000699366 -7.11897e-08)
(1.55277e-06 0.00070022 -1.29217e-07)
(2.06674e-06 0.000701302 -1.48587e-07)
(2.66175e-06 0.000702579 -2.08575e-07)
(3.36754e-06 0.000704105 -2.12428e-07)
(4.15615e-06 0.00070586 -2.43656e-07)
(5.05789e-06 0.000707956 -1.91605e-07)
(6.01437e-06 0.000710796 -6.56312e-08)
(6.946e-06 0.000720492 5.99231e-07)
(7.27117e-06 0.000825323 1.47847e-06)
(4.21512e-06 0.00125266 3.15266e-06)
(9.2708e-06 0.00205703 -2.64387e-06)
(1.42132e-05 0.00272985 -1.70115e-05)
(-2.29293e-06 0.00275443 -1.61929e-05)
(5.55741e-06 0.00252191 -1.64766e-05)
(7.68078e-06 0.0024649 -4.27522e-05)
(2.40502e-05 0.00247232 -4.49731e-05)
(7.72643e-05 0.00248215 -2.57908e-05)
(0.000152301 0.00225602 5.26816e-05)
(0.000242624 0.00321597 7.41844e-05)
(0.00056013 0.00562568 0.000881415)
(-0.000780193 0.0149952 0.000295412)
(0.0214238 0.201714 0.0101829)
(-0.0111931 0.684062 -0.0264717)
(-0.0161933 0.501779 0.00917942)
(-0.0221943 0.418658 -0.00501462)
(9.93056e-05 0.0509978 -0.000137598)
(0.00293756 0.330061 0.00435092)
(0.00034011 0.049298 -7.48214e-05)
(0.00245326 0.241634 -0.00240852)
(0.000303661 0.0290407 -0.000245249)
(0.000368807 0.00832625 -0.000180957)
(0.000390394 0.00821268 -0.000101153)
(0.000293757 0.00816778 -0.000305269)
(0.000194015 0.00813369 -0.000592704)
(0.00019166 0.00806278 -0.000562906)
(0.000125978 0.00801327 -0.000244576)
(8.65007e-05 0.0310345 -0.000156894)
(0.00209137 0.230942 -0.000684769)
(-0.00027003 0.0290464 -0.000269945)
(-0.000399975 0.00850143 -0.000421668)
(-0.000482109 0.00936077 -0.000460923)
(-0.00040264 0.0101015 -0.000484608)
(-0.000177724 0.0109249 -0.000447024)
(2.87707e-05 0.0110293 -0.000465667)
(-2.40775e-05 0.00982168 -0.000505805)
(-0.000330707 0.00828759 -0.000297739)
(-0.000458464 0.00748735 -2.35883e-05)
(-0.000466998 0.00748539 -3.59933e-05)
(-0.000442084 0.00758973 -0.000306963)
(-0.000408256 0.00763123 -0.000326895)
(-0.000367371 0.0077141 -5.46002e-05)
(-7.49838e-05 0.00788219 -1.88317e-05)
(-5.87525e-05 0.00810097 -1.59909e-05)
(-1.99605e-05 0.00837222 -1.64893e-05)
(1.24123e-05 0.00860276 -1.26413e-05)
(1.84168e-05 0.00869805 4.92639e-07)
(3.32823e-06 0.00821912 -1.54436e-05)
(-2.22879e-06 0.00727974 -1.34115e-05)
(-3.35519e-07 0.000553738 5.72266e-07)
(1.40497e-07 0.000560502 3.37273e-07)
(-6.93024e-07 0.000584037 3.53328e-07)
(-5.17063e-07 0.000599897 4.60911e-07)
(-4.77728e-07 0.00062382 2.76237e-07)
(-6.8121e-07 0.00064701 1.509e-07)
(-5.19799e-07 0.00066273 3.5808e-08)
(-7.0068e-07 0.000679417 -9.31335e-09)
(-6.71359e-07 0.00069205 -1.8619e-08)
(-6.2249e-07 0.000697412 -3.65341e-09)
(-5.79e-07 0.000698111 1.54878e-08)
(-6.2739e-07 0.00069915 -6.05434e-09)
(-6.9843e-07 0.000700357 1.22882e-08)
(-7.50959e-07 0.000700753 3.12399e-08)
(-7.87098e-07 0.000700735 4.19758e-08)
(-8.1685e-07 0.000700625 4.39363e-08)
(-8.37022e-07 0.000700483 4.64835e-08)
(-8.55097e-07 0.000700309 4.47963e-08)
(-8.68882e-07 0.000700117 4.69335e-08)
(-8.8363e-07 0.000699904 4.41729e-08)
(-8.94978e-07 0.000699679 4.83677e-08)
(-9.06978e-07 0.00069944 4.53062e-08)
(-9.11966e-07 0.000699196 4.96001e-08)
(-9.1437e-07 0.000698948 4.22518e-08)
(-9.06233e-07 0.000698706 4.5579e-08)
(-8.93735e-07 0.000698471 3.59998e-08)
(-8.65669e-07 0.000698253 4.04441e-08)
(-8.29557e-07 0.000698055 2.68366e-08)
(-7.71442e-07 0.00069789 3.02521e-08)
(-7.00545e-07 0.00069776 1.21245e-08)
(-5.98937e-07 0.000697684 1.50481e-08)
(-4.78067e-07 0.000697668 -8.58339e-09)
(-3.15266e-07 0.000697734 -7.86555e-09)
(-1.23792e-07 0.000697895 -3.92097e-08)
(1.22837e-07 0.00069817 -4.26406e-08)
(4.14019e-07 0.000698586 -8.47297e-08)
(7.81099e-07 0.000699154 -9.48768e-08)
(1.21251e-06 0.000699907 -1.48198e-07)
(1.74001e-06 0.000700858 -1.63997e-07)
(2.34747e-06 0.000702042 -2.23641e-07)
(3.06669e-06 0.000703445 -2.3101e-07)
(3.89163e-06 0.000705099 -2.61726e-07)
(4.8443e-06 0.000707075 -2.35433e-07)
(5.93438e-06 0.000709685 -2.44237e-07)
(7.20563e-06 0.000713496 -1.38804e-07)
(8.81558e-06 0.000719795 2.44714e-07)
(1.01804e-05 0.000815622 1.24234e-06)
(9.05354e-06 0.00131329 4.16358e-06)
(6.0138e-06 0.00222437 -2.72597e-06)
(1.53525e-06 0.0028068 -2.01875e-05)
(4.7363e-06 0.00273585 -3.19318e-05)
(4.86292e-06 0.00258229 -4.26761e-05)
(1.96411e-05 0.00254862 -6.30779e-05)
(5.62996e-05 0.00255934 -5.85389e-05)
(7.27747e-05 0.00259177 -2.07854e-05)
(0.000153579 0.00255414 5.4408e-05)
(0.00053794 0.00329804 -8.63386e-05)
(0.000696007 0.00338992 0.000663043)
(-0.000584482 0.012065 0.000591838)
(0.0208587 0.203023 0.00549493)
(-0.00182877 0.693223 -0.0265707)
(-0.0072653 0.528359 0.00604691)
(-0.0109818 0.556263 -0.00684542)
(0.00188632 0.547658 -0.000968706)
(0.000991005 0.543899 6.57958e-06)
(0.00136915 0.542182 -0.00203191)
(0.00265076 0.547385 -0.00212931)
(-0.003842 0.547076 -0.0033029)
(-0.00755625 0.54282 -0.00464353)
(-0.00517657 0.536725 -0.00401531)
(0.00169738 0.532046 -0.001806)
(0.0020863 0.527464 0.00126884)
(0.00586396 0.531523 0.000178142)
(0.00690903 0.531535 0.00108935)
(0.00432609 0.530342 0.00292076)
(0.00456999 0.539687 0.00564632)
(0.00443162 0.539569 0.0070503)
(0.00452798 0.538301 0.00843304)
(0.00122739 0.540724 0.00813645)
(-0.00265123 0.538648 0.00656924)
(-0.0069566 0.53555 0.00438194)
(-0.0111426 0.533481 -2.41883e-05)
(-0.0192014 0.528732 -0.0090701)
(-0.0248484 0.521388 -0.0142058)
(-0.0150179 0.517028 -0.0143435)
(-0.00608752 0.509774 -0.0113305)
(0.00099912 0.500301 -0.0069951)
(0.00509323 0.468004 -0.00394207)
(0.00352565 0.324611 -0.000323812)
(-0.000370524 0.0297616 -0.000379195)
(-0.000359214 0.00856656 -0.000250749)
(-0.00023969 0.00853004 -0.000149313)
(-0.000153163 0.00823669 1.10251e-05)
(-0.000110965 0.00835351 1.44253e-06)
(-1.20172e-05 0.00796891 -2.73261e-06)
(-3.16845e-05 0.00708404 -7.08743e-06)
(-6.05947e-07 0.000519478 5.20106e-07)
(3.88498e-07 0.000518281 -1.49014e-08)
(-7.07555e-07 0.000533743 2.50277e-07)
(-5.03594e-07 0.000549302 -1.25892e-07)
(-1.00298e-06 0.000580341 2.47045e-07)
(-7.07535e-07 0.000615836 2.04708e-07)
(-8.2885e-07 0.000637764 1.17452e-07)
(-7.93835e-07 0.000653785 7.93611e-08)
(-8.08536e-07 0.00067326 1.17664e-07)
(-7.66006e-07 0.000691621 8.88926e-08)
(-6.90737e-07 0.000698885 6.42103e-08)
(-6.94338e-07 0.000699858 2.44614e-08)
(-7.8583e-07 0.000700279 1.6913e-08)
(-8.62654e-07 0.000700512 2.09293e-08)
(-9.25416e-07 0.000700482 2.37747e-08)
(-9.76354e-07 0.000700357 2.51725e-08)
(-1.0165e-06 0.00070021 2.2486e-08)
(-1.04732e-06 0.000700034 2.17477e-08)
(-1.07116e-06 0.000699837 1.56704e-08)
(-1.08895e-06 0.000699623 1.67367e-08)
(-1.10297e-06 0.000699397 1.18609e-08)
(-1.11131e-06 0.000699164 1.52354e-08)
(-1.11577e-06 0.000698927 9.68509e-09)
(-1.11324e-06 0.000698693 1.39362e-08)
(-1.10431e-06 0.000698462 3.97407e-09)
(-1.08207e-06 0.000698245 8.09975e-09)
(-1.04962e-06 0.000698043 -3.88133e-09)
(-9.99782e-07 0.000697869 8.81413e-10)
(-9.34102e-07 0.000697726 -1.62046e-08)
(-8.42783e-07 0.000697631 -1.24519e-08)
(-7.27473e-07 0.000697588 -3.36521e-08)
(-5.76344e-07 0.00069762 -3.1075e-08)
(-3.89615e-07 0.000697733 -6.08057e-08)
(-1.54453e-07 0.000697955 -6.31719e-08)
(1.30177e-07 0.000698298 -1.0323e-07)
(4.8307e-07 0.000698799 -1.12338e-07)
(9.06219e-07 0.000699466 -1.64178e-07)
(1.42079e-06 0.000700334 -1.78486e-07)
(2.02198e-06 0.000701404 -2.37973e-07)
(2.72659e-06 0.000702717 -2.55049e-07)
(3.5312e-06 0.0007043 -3.12633e-07)
(4.46308e-06 0.00070616 -3.30083e-07)
(5.52305e-06 0.000708388 -3.88844e-07)
(6.79023e-06 0.000711413 -3.99017e-07)
(8.2804e-06 0.000716056 -4.20966e-07)
(1.01808e-05 0.000723115 -1.98933e-07)
(1.22024e-05 0.000797088 5.5246e-07)
(1.26719e-05 0.00130362 3.12436e-06)
(2.23777e-06 0.00228496 1.82879e-06)
(-4.08119e-06 0.00284481 -2.57756e-05)
(-6.94527e-06 0.00279709 -5.30928e-05)
(2.09722e-06 0.00268075 -5.47598e-05)
(3.87478e-05 0.00262433 -5.91036e-05)
(1.21927e-05 0.00261205 -2.82213e-05)
(5.50199e-06 0.00259267 2.54818e-05)
(-1.67834e-05 0.00263141 7.61105e-05)
(1.47146e-05 0.00373432 -0.000160523)
(0.000301932 0.00362616 0.000410611)
(0.000168503 0.00887076 0.000234613)
(0.000181139 0.20623 -0.00672834)
(-0.0134496 0.700939 -0.0286126)
(0.00586277 0.533795 0.00893801)
(0.000612626 0.552994 -0.00266214)
(0.00472453 0.54082 -0.0030958)
(0.00676398 0.540017 -0.00335674)
(0.00257602 0.549092 -0.00300995)
(-0.000309788 0.549584 -0.000667579)
(-0.00326919 0.540326 -0.000519906)
(-0.00782603 0.539782 0.00211673)
(-0.00154196 0.55009 0.0016035)
(0.00406583 0.541808 2.5054e-05)
(0.000578202 0.548615 0.000963956)
(0.00484062 0.554934 0.00132785)
(0.00463232 0.546041 0.00221506)
(0.00356407 0.542766 0.00438894)
(-6.70541e-05 0.54577 0.00488096)
(-0.0018293 0.539469 0.00768386)
(-0.00333598 0.540787 0.00716053)
(-0.00478389 0.538591 0.00674016)
(-0.0093168 0.537522 0.00413807)
(-0.0153076 0.534551 0.000533713)
(-0.0184211 0.534595 -0.00765497)
(-0.0187786 0.534457 -0.0163074)
(-0.0135105 0.539317 -0.0178252)
(-0.00494432 0.544855 -0.0122071)
(0.00129305 0.545799 -0.00604983)
(0.00490952 0.543695 -0.00103964)
(0.0100251 0.542371 0.00297362)
(0.0101171 0.536587 0.00781359)
(0.000590247 0.523486 0.00942724)
(-0.00389658 0.515082 0.00465152)
(-0.00698969 0.486035 0.00138106)
(-0.00941252 0.368754 0.000150376)
(-0.0014971 0.100503 -8.63308e-05)
(-0.000313977 0.0287275 7.25995e-05)
(-5.1338e-05 0.0059389 3.20601e-06)
(-1.94127e-06 0.000503546 -8.02122e-07)
(2.81896e-07 0.00049262 -1.74026e-07)
(-7.74754e-07 0.000491902 -3.87279e-07)
(-2.76905e-07 0.000500322 -4.36539e-07)
(-1.24903e-06 0.0005292 -4.24224e-07)
(-9.54083e-07 0.000574237 1.24747e-08)
(-1.22307e-06 0.000613394 2.44584e-07)
(-1.03036e-06 0.000635427 1.15285e-07)
(-1.04809e-06 0.00064946 1.44893e-07)
(-9.79171e-07 0.000672001 1.64112e-07)
(-9.28114e-07 0.000692054 1.72588e-07)
(-8.74326e-07 0.000699594 1.45742e-07)
(-8.62276e-07 0.000700685 9.49157e-08)
(-8.87772e-07 0.000700772 7.08768e-08)
(-9.19547e-07 0.000700719 5.9612e-08)
(-9.56051e-07 0.000700606 5.1088e-08)
(-9.9576e-07 0.000700477 4.345e-08)
(-1.03008e-06 0.000700309 3.27396e-08)
(-1.05957e-06 0.000700128 2.67776e-08)
(-1.08162e-06 0.000699926 1.5811e-08)
(-1.09851e-06 0.000699711 1.01315e-08)
(-1.10899e-06 0.000699485 -1.23215e-09)
(-1.11538e-06 0.000699259 -2.61812e-09)
(-1.11111e-06 0.00069903 -1.05484e-08)
(-1.09927e-06 0.000698811 -8.49359e-09)
(-1.07096e-06 0.000698607 -1.98958e-08)
(-1.03026e-06 0.00069843 -1.9099e-08)
(-9.70053e-07 0.000698281 -3.152e-08)
(-8.92216e-07 0.000698175 -2.92286e-08)
(-7.85728e-07 0.000698119 -4.67378e-08)
(-6.52858e-07 0.000698128 -4.80887e-08)
(-4.80719e-07 0.000698213 -7.21652e-08)
(-2.69482e-07 0.000698396 -7.67371e-08)
(-2.00873e-09 0.000698697 -1.08636e-07)
(3.23057e-07 0.000699142 -1.19419e-07)
(7.27197e-07 0.000699758 -1.61861e-07)
(1.2096e-06 0.000700566 -1.80199e-07)
(1.79586e-06 0.000701583 -2.32924e-07)
(2.47555e-06 0.000702797 -2.58728e-07)
(3.27615e-06 0.000704235 -3.17058e-07)
(4.18133e-06 0.000705922 -3.49527e-07)
(5.24066e-06 0.000707884 -4.0844e-07)
(6.45659e-06 0.000710269 -4.6717e-07)
(7.95449e-06 0.000713477 -5.42645e-07)
(9.69668e-06 0.000718377 -5.90851e-07)
(1.18795e-05 0.000727601 -4.14397e-07)
(1.4269e-05 0.000764693 1.02937e-07)
(1.43579e-05 0.00120104 3.02049e-06)
(8.78475e-06 0.00219422 7.10796e-06)
(5.49475e-07 0.0028329 -1.42738e-05)
(-3.9991e-06 0.00284243 -4.04139e-05)
(9.99443e-06 0.00273998 -3.82633e-05)
(1.91244e-05 0.00272382 -2.2795e-05)
(-9.54463e-06 0.00274849 -4.89546e-06)
(-6.57328e-05 0.00271597 3.79053e-05)
(-0.000145964 0.00263278 9.53538e-05)
(-0.000527437 0.00400826 0.00010556)
(-0.000385203 0.00402483 0.000131508)
(-0.000571099 0.011952 0.000630585)
(-0.0338144 0.233539 0.00231868)
(-0.00713866 0.672594 -0.0162293)
(0.00697882 0.532597 0.00595056)
(0.0109325 0.548934 -0.000935279)
(0.00809236 0.537913 -0.0012842)
(0.00742249 0.537731 -0.0049619)
(0.00395818 0.551792 -0.00944628)
(6.94024e-06 0.554413 -0.00628104)
(0.00174574 0.556783 -0.00278124)
(-0.00295374 0.550367 0.00113154)
(-0.00284077 0.546046 0.00596133)
(-0.00225009 0.543783 0.00565585)
(-0.00259239 0.542792 0.00504511)
(9.75949e-05 0.545538 0.00479218)
(0.000984308 0.544355 0.00308639)
(-0.000600015 0.541635 0.00346118)
(0.000655898 0.544131 0.00511144)
(-0.00301196 0.54043 0.00689433)
(-0.00504991 0.538701 0.00592924)
(-0.00718798 0.536615 0.0041712)
(-0.00960673 0.534219 0.00281845)
(-0.00978176 0.530726 -0.00138488)
(-0.00863991 0.529423 -0.00815049)
(-0.00522025 0.533765 -0.0165679)
(0.000150316 0.540802 -0.0167787)
(0.0033714 0.542286 -0.0124195)
(0.00403359 0.544954 -0.0113104)
(0.00477057 0.551845 -0.00853397)
(0.00388624 0.54921 -0.000119838)
(0.00253703 0.541325 0.00592489)
(0.00136151 0.53981 0.0144132)
(-0.00295814 0.536718 0.00887103)
(-0.00965075 0.528772 0.00386635)
(-0.0174232 0.51216 0.000780542)
(-0.0278498 0.466324 -0.00439)
(-0.0311459 0.315393 -0.011537)
(-9.87786e-05 0.0271965 -0.000437359)
(-1.72725e-06 0.000505419 -7.59105e-07)
(5.11097e-07 0.000489115 2.78754e-07)
(-1.72406e-06 0.000472815 -9.06624e-07)
(-5.93031e-07 0.000467431 -1.25172e-07)
(-1.36384e-06 0.000484006 -3.57383e-07)
(-1.12756e-06 0.00052936 -3.12014e-07)
(-1.66759e-06 0.000583009 9.80289e-08)
(-1.3802e-06 0.000620418 2.08498e-07)
(-1.37338e-06 0.000634502 1.70549e-07)
(-1.20796e-06 0.000652794 1.70453e-07)
(-1.15554e-06 0.000679763 2.21025e-07)
(-1.02405e-06 0.000696279 2.23367e-07)
(-9.72202e-07 0.000700487 1.7588e-07)
(-1.0085e-06 0.000700832 1.25681e-07)
(-1.03485e-06 0.000700784 1.16526e-07)
(-1.07212e-06 0.000700654 1.13354e-07)
(-1.10955e-06 0.000700521 1.1216e-07)
(-1.14685e-06 0.000700373 1.09674e-07)
(-1.17499e-06 0.000700208 1.04474e-07)
(-1.20165e-06 0.000700022 1.00526e-07)
(-1.22095e-06 0.000699824 9.37292e-08)
(-1.23618e-06 0.000699618 9.1392e-08)
(-1.24034e-06 0.000699411 8.54269e-08)
(-1.23664e-06 0.000699218 8.55218e-08)
(-1.21657e-06 0.000699044 7.81085e-08)
(-1.19176e-06 0.000698879 7.26194e-08)
(-1.14846e-06 0.000698725 5.68419e-08)
(-1.09022e-06 0.000698604 4.92425e-08)
(-1.00238e-06 0.000698523 3.23045e-08)
(-8.9365e-07 0.000698497 2.3299e-08)
(-7.4407e-07 0.000698538 3.95102e-11)
(-5.59757e-07 0.000698668 -1.47837e-08)
(-3.16866e-07 0.000698899 -4.60431e-08)
(-2.50031e-08 0.000699263 -6.82187e-08)
(3.46995e-07 0.000699776 -1.09701e-07)
(7.9212e-07 0.000700472 -1.39526e-07)
(1.34604e-06 0.000701368 -1.86265e-07)
(1.99697e-06 0.000702482 -2.1889e-07)
(2.77838e-06 0.000703817 -2.72494e-07)
(3.67708e-06 0.000705407 -3.1838e-07)
(4.73943e-06 0.000707287 -3.99573e-07)
(5.98272e-06 0.000709502 -4.89911e-07)
(7.43925e-06 0.00071221 -6.25541e-07)
(9.08685e-06 0.0007157 -7.9449e-07)
(1.10433e-05 0.000721008 -9.92039e-07)
(1.33536e-05 0.000728867 -9.59829e-07)
(1.63503e-05 0.000767617 -7.7294e-07)
(1.62817e-05 0.00121263 4.17219e-06)
(1.2618e-05 0.00219002 4.77058e-06)
(4.46474e-06 0.00282993 -1.33486e-05)
(-5.94156e-06 0.00289328 -1.60546e-05)
(-2.93407e-06 0.00282837 -7.94357e-06)
(-1.73233e-05 0.00282524 4.8004e-06)
(-5.60807e-05 0.0028343 1.92439e-05)
(-9.12586e-05 0.00273489 2.80215e-05)
(-7.11667e-05 0.00244074 0.000107064)
(-0.000413667 0.00391087 0.000581095)
(-0.000509544 0.00612766 0.000614452)
(0.0011805 0.0172662 -0.000551917)
(-0.0313209 0.197437 0.00664198)
(-0.000278905 0.676891 -0.0290996)
(0.0142599 0.505691 0.0169891)
(0.0266002 0.535705 -0.00183801)
(0.00379879 0.528361 0.00661018)
(0.0202224 0.548007 -0.00643459)
(-0.00580806 0.551013 -0.00627679)
(-0.0104559 0.554443 -0.0106793)
(-0.0071961 0.57698 -0.0151299)
(5.10819e-05 0.579616 -0.0156053)
(0.00322802 0.568418 -0.000894249)
(0.00200056 0.558486 0.00688117)
(-0.000916159 0.551378 0.00260729)
(-0.00479769 0.548199 0.00548231)
(-0.00224276 0.543984 0.00496187)
(-0.00275549 0.54196 0.00218199)
(-0.00133182 0.540464 0.00457607)
(-0.00232938 0.537949 0.00555588)
(-0.00484567 0.535188 0.00586159)
(-0.00723609 0.533216 0.00318201)
(-0.00742825 0.534175 -0.00491524)
(-0.00566533 0.535941 -0.0119517)
(-0.0042955 0.539477 -0.0159813)
(-0.000399541 0.545993 -0.0169968)
(0.0032445 0.553526 -0.0148399)
(0.00830976 0.556453 -0.00914954)
(0.0123131 0.555665 -0.00369521)
(0.011834 0.551001 0.00248641)
(0.00816082 0.545399 0.00665423)
(0.00286991 0.542007 0.00791814)
(-0.000211221 0.539588 0.00830291)
(-0.00530357 0.536137 0.00698748)
(-0.0119043 0.531485 0.00341695)
(-0.0207972 0.524628 -0.00338665)
(-0.0283679 0.517282 -0.0123955)
(-0.0187287 0.505774 -0.018632)
(-0.00109491 0.468642 -0.0169829)
(-3.16994e-06 0.000257978 -1.32633e-06)
(2.57705e-06 0.000507302 8.33123e-07)
(-1.4894e-06 0.000480358 -6.19358e-07)
(-2.30484e-07 0.00046441 4.86779e-07)
(-1.28316e-06 0.000460837 -2.73168e-07)
(-1.16818e-06 0.000500791 -1.0369e-07)
(-1.59808e-06 0.000561104 7.48301e-08)
(-1.40097e-06 0.000608705 5.48983e-08)
(-1.33725e-06 0.000626037 -1.44001e-08)