/*--------------------------------*- C++ -*----------------------------------*\
| =========                 |                                                 |
| \\      /  F ield         | OpenFOAM: The Open Source CFD Toolbox           |
|  \\    /   O peration     | Version:  2.3.0                                 |
|   \\  /    A nd           | Web:      www.OpenFOAM.org                      |
|    \\/     M anipulation  |                                                 |
\*---------------------------------------------------------------------------*/
FoamFile
{
    version     2.0;
    format      ascii;
    class       volScalarField;
    location    "11";
    object      alpha.airMean;
}
// * * * * * * * * * * * * * * * * * * * * * * * * * * * * * * * * * * * * * //

dimensions      [0 0 0 0 0 0 0];

internalField   nonuniform List<scalar> 
6144
(
0.99999
0.99999
0.99999
0.99999
0.99999
0.99999
0.99999
0.99999
0.99999
0.99999
0.99999
0.99999
0.99999
0.99999
0.99999
0.99999
0.99999
0.99999
0.99999
0.99999
0.99999
0.99999
0.99999
0.99999
0.99999
0.99999
0.99999
0.99999
0.99999
0.99999
0.99999
0.99999
0.99999
0.99999
0.99999
0.99999
0.99999
0.99999
0.99999
0.99999
0.99999
0.99999
0.99999
0.99999
0.99999
0.99999
0.99999
0.999988
0.999986
0.999985
0.999983
0.999981
0.999979
0.999974
0.999969
0.99996
0.999952
0.99994
0.998751
0.933168
0.0322828
0.000205902
1.57793e-06
1.37217e-06
1.36026e-06
1.32796e-06
1.32224e-06
1.2962e-06
1.29177e-06
1.27206e-06
1.26402e-06
1.24781e-06
1.23403e-06
1.21852e-06
1.20523e-06
1.18731e-06
1.17067e-06
1.15415e-06
1.13795e-06
1.12253e-06
1.10512e-06
1.08841e-06
1.07304e-06
1.05974e-06
1.04627e-06
1.03163e-06
1.01567e-06
9.95503e-07
9.60408e-07
8.89975e-07
7.97955e-07
7.22011e-07
6.36389e-07
5.96002e-07
5.96124e-07
5.89977e-07
0.99999
0.99999
0.99999
0.99999
0.99999
0.99999
0.99999
0.99999
0.99999
0.99999
0.99999
0.99999
0.99999
0.99999
0.99999
0.99999
0.99999
0.99999
0.99999
0.99999
0.99999
0.99999
0.99999
0.99999
0.99999
0.99999
0.99999
0.99999
0.99999
0.99999
0.99999
0.99999
0.99999
0.99999
0.99999
0.99999
0.99999
0.99999
0.99999
0.99999
0.99999
0.99999
0.99999
0.99999
0.99999
0.99999
0.999989
0.999988
0.999988
0.999987
0.999986
0.999983
0.999977
0.999968
0.999962
0.999953
0.999946
0.999932
0.999425
0.95085
0.0296193
0.000131248
1.44541e-06
1.37409e-06
1.35686e-06
1.32365e-06
1.32557e-06
1.31805e-06
1.3232e-06
1.30269e-06
1.29779e-06
1.27836e-06
1.26271e-06
1.24584e-06
1.22879e-06
1.20768e-06
1.18889e-06
1.16918e-06
1.14951e-06
1.12912e-06
1.10832e-06
1.08907e-06
1.07155e-06
1.05695e-06
1.04307e-06
1.02795e-06
1.01126e-06
9.89841e-07
9.59651e-07
9.13736e-07
8.45594e-07
7.54972e-07
6.53699e-07
6.06571e-07
6.00683e-07
5.92121e-07
0.99999
0.99999
0.99999
0.99999
0.99999
0.99999
0.99999
0.99999
0.99999
0.99999
0.99999
0.99999
0.99999
0.99999
0.99999
0.99999
0.99999
0.99999
0.99999
0.99999
0.99999
0.99999
0.99999
0.99999
0.99999
0.99999
0.99999
0.99999
0.99999
0.99999
0.99999
0.99999
0.99999
0.99999
0.99999
0.99999
0.99999
0.99999
0.99999
0.99999
0.99999
0.99999
0.99999
0.99999
0.99999
0.99999
0.99999
0.999989
0.999989
0.999988
0.999985
0.999978
0.999969
0.999959
0.999951
0.99994
0.999937
0.999927
0.999621
0.937783
0.0254928
7.81801e-05
1.43129e-06
1.407e-06
1.36888e-06
1.33717e-06
1.33446e-06
1.33851e-06
1.33999e-06
1.32054e-06
1.32202e-06
1.30985e-06
1.29528e-06
1.27238e-06
1.24885e-06
1.22485e-06
1.2059e-06
1.18378e-06
1.16156e-06
1.13804e-06
1.11456e-06
1.09223e-06
1.07581e-06
1.05844e-06
1.04338e-06
1.02847e-06
1.0109e-06
9.88382e-07
9.58896e-07
9.17849e-07
8.58403e-07
7.77218e-07
6.79659e-07
6.25153e-07
6.14234e-07
5.94678e-07
0.99999
0.99999
0.99999
0.99999
0.99999
0.99999
0.99999
0.99999
0.99999
0.99999
0.99999
0.99999
0.99999
0.99999
0.99999
0.99999
0.99999
0.99999
0.99999
0.99999
0.99999
0.99999
0.99999
0.99999
0.99999
0.99999
0.99999
0.99999
0.99999
0.99999
0.99999
0.99999
0.99999
0.99999
0.99999
0.99999
0.99999
0.99999
0.99999
0.99999
0.99999
0.99999
0.99999
0.99999
0.99999
0.99999
0.99999
0.99999
0.999989
0.999987
0.99998
0.999969
0.99996
0.999949
0.99994
0.99993
0.999928
0.999921
0.999679
0.912619
0.0265182
6.82854e-05
1.12606e-05
7.27892e-06
5.77586e-06
4.61704e-06
4.54955e-06
4.37807e-06
4.16036e-06
3.78255e-06
3.43062e-06
3.08065e-06
2.73553e-06
2.41175e-06
2.10659e-06
1.81364e-06
1.56101e-06
1.36572e-06
1.23756e-06
1.16737e-06
1.13027e-06
1.09809e-06
1.08006e-06
1.05276e-06
1.03219e-06
1.01665e-06
1.00089e-06
9.77173e-07
9.46495e-07
9.08095e-07
8.55945e-07
7.81901e-07
6.87537e-07
6.30332e-07
6.16255e-07
5.93715e-07
0.999991
0.99999
0.99999
0.99999
0.99999
0.99999
0.99999
0.99999
0.99999
0.99999
0.99999
0.99999
0.99999
0.99999
0.99999
0.99999
0.99999
0.99999
0.99999
0.99999
0.99999
0.99999
0.99999
0.99999
0.99999
0.99999
0.99999
0.99999
0.99999
0.99999
0.99999
0.99999
0.99999
0.99999
0.99999
0.99999
0.99999
0.99999
0.99999
0.99999
0.99999
0.99999
0.99999
0.99999
0.99999
0.99999
0.99999
0.99999
0.999988
0.999984
0.999973
0.999962
0.999954
0.999944
0.999932
0.999923
0.99992
0.99992
0.999788
0.888111
0.0298948
0.00036188
0.000284609
0.000223941
0.000204063
0.000174165
0.000158747
0.000143872
0.000133135
0.000123595
0.000114284
0.000104838
9.51984e-05
8.51035e-05
7.43957e-05
6.23327e-05
4.95402e-05
3.66977e-05
2.41421e-05
1.38022e-05
6.93474e-06
3.24494e-06
1.66327e-06
1.15417e-06
1.04132e-06
1.01124e-06
9.86703e-07
9.56189e-07
9.2332e-07
8.87208e-07
8.4064e-07
7.71962e-07
6.81647e-07
6.29198e-07
6.14244e-07
5.90219e-07
0.999991
0.999991
0.99999
0.99999
0.99999
0.99999
0.99999
0.99999
0.99999
0.99999
0.99999
0.99999
0.99999
0.99999
0.99999
0.99999
0.99999
0.99999
0.99999
0.99999
0.99999
0.99999
0.99999
0.99999
0.99999
0.99999
0.99999
0.99999
0.99999
0.99999
0.99999
0.99999
0.99999
0.99999
0.99999
0.99999
0.99999
0.99999
0.99999
0.99999
0.99999
0.99999
0.99999
0.99999
0.99999
0.99999
0.99999
0.999989
0.999987
0.99998
0.999967
0.999956
0.99995
0.999941
0.999931
0.999923
0.999925
0.99993
0.999867
0.858438
0.0238939
0.00176979
0.00179001
0.00165627
0.00167343
0.00160983
0.00157905
0.00151706
0.00146953
0.00141013
0.00134633
0.00127633
0.00120357
0.00112133
0.0010303
0.000925595
0.000807389
0.000676603
0.000538556
0.00040046
0.000271202
0.000163859
8.68371e-05
3.81726e-05
1.32433e-05
4.33243e-06
1.93139e-06
1.2926e-06
1.01785e-06
8.64854e-07
7.55275e-07
6.90174e-07
6.31954e-07
6.1805e-07
5.95943e-07
5.7829e-07
0.999991
0.999991
0.999991
0.999991
0.99999
0.99999
0.99999
0.99999
0.99999
0.99999
0.99999
0.99999
0.99999
0.99999
0.99999
0.99999
0.99999
0.99999
0.99999
0.99999
0.99999
0.99999
0.99999
0.99999
0.99999
0.99999
0.99999
0.99999
0.99999
0.99999
0.99999
0.99999
0.99999
0.99999
0.99999
0.99999
0.99999
0.99999
0.99999
0.99999
0.99999
0.99999
0.99999
0.99999
0.99999
0.99999
0.99999
0.999989
0.999985
0.999977
0.999963
0.999953
0.999948
0.999943
0.999936
0.999927
0.999926
0.999925
0.99986
0.832302
0.0283243
0.00459057
0.004838
0.00476555
0.00483435
0.00477122
0.00476565
0.00469942
0.0046609
0.00456088
0.00447729
0.004328
0.0041987
0.00401033
0.00382062
0.00358228
0.00335154
0.00309775
0.00284494
0.0025701
0.00228054
0.00194725
0.0015806
0.00119547
0.000835324
0.000533777
0.000334434
0.000213421
0.000147483
0.000109305
7.54898e-05
4.8749e-05
2.79964e-05
1.84038e-05
1.21676e-05
8.23799e-06
0.999991
0.999991
0.999991
0.999991
0.999991
0.99999
0.99999
0.99999
0.99999
0.99999
0.99999
0.99999
0.99999
0.99999
0.99999
0.99999
0.99999
0.99999
0.99999
0.99999
0.99999
0.99999
0.99999
0.99999
0.99999
0.99999
0.99999
0.99999
0.99999
0.99999
0.99999
0.99999
0.99999
0.99999
0.99999
0.99999
0.99999
0.99999
0.99999
0.99999
0.99999
0.99999
0.99999
0.99999
0.99999
0.99999
0.999989
0.999987
0.999983
0.999974
0.999958
0.999951
0.999948
0.999948
0.999945
0.999942
0.999941
0.999925
0.999795
0.785106
0.0317132
0.0092833
0.00988022
0.00995095
0.00996942
0.00989047
0.00986208
0.00988311
0.00992031
0.00992073
0.00990566
0.00983134
0.00971576
0.00953436
0.00935082
0.00915226
0.00898525
0.00886897
0.00880145
0.00878406
0.00883493
0.00893271
0.00902527
0.00910247
0.00916597
0.0092187
0.00925618
0.00926983
0.00930147
0.00933733
0.00933567
0.0092459
0.00900263
0.00854211
0.0074145
0.00595026
0.999991
0.999991
0.999991
0.999991
0.999991
0.999991
0.99999
0.99999
0.99999
0.99999
0.99999
0.99999
0.99999
0.99999
0.99999
0.99999
0.99999
0.99999
0.99999
0.99999
0.99999
0.99999
0.99999
0.99999
0.99999
0.99999
0.99999
0.99999
0.99999
0.99999
0.99999
0.99999
0.99999
0.99999
0.99999
0.99999
0.99999
0.99999
0.99999
0.99999
0.99999
0.99999
0.99999
0.99999
0.99999
0.999989
0.999987
0.999983
0.999979
0.999973
0.999961
0.999953
0.99995
0.99995
0.999948
0.999947
0.999949
0.999942
0.999869
0.848442
0.0266255
0.00536969
0.00534676
0.00494931
0.00468878
0.00447529
0.00427466
0.00409045
0.00393963
0.00379986
0.00370895
0.00362363
0.0035699
0.00353142
0.00353119
0.0035439
0.00358749
0.00364959
0.00373179
0.00382784
0.00396441
0.00413028
0.00432255
0.00451493
0.00469878
0.00484102
0.00494196
0.00501372
0.00502793
0.00494808
0.00477925
0.00443886
0.00388986
0.00303378
0.00188507
0.000929425
0.999992
0.999991
0.999991
0.999991
0.999991
0.999991
0.999991
0.99999
0.99999
0.99999
0.99999
0.99999
0.99999
0.99999
0.99999
0.99999
0.99999
0.99999
0.99999
0.99999
0.99999
0.99999
0.99999
0.99999
0.99999
0.99999
0.99999
0.99999
0.99999
0.99999
0.99999
0.99999
0.99999
0.99999
0.99999
0.99999
0.99999
0.99999
0.99999
0.99999
0.99999
0.99999
0.99999
0.99999
0.999988
0.999986
0.999984
0.999982
0.999978
0.999975
0.999967
0.999959
0.999955
0.999953
0.99995
0.999949
0.99995
0.999945
0.999913
0.911757
0.0254544
0.00142189
0.00122094
0.000925632
0.000795554
0.000688076
0.000620401
0.000563692
0.000536042
0.000520205
0.000518859
0.000518021
0.000523806
0.000532277
0.000548495
0.000569122
0.00059303
0.000618322
0.000663402
0.000727264
0.000819657
0.000936166
0.00107761
0.0012309
0.00138283
0.00152579
0.00164003
0.00169707
0.00169627
0.00159486
0.0013871
0.00107828
0.000733441
0.000404946
0.000169025
6.75e-05
0.999992
0.999991
0.999991
0.999991
0.999991
0.999991
0.999991
0.999991
0.999991
0.99999
0.99999
0.99999
0.99999
0.99999
0.99999
0.99999
0.99999
0.99999
0.99999
0.99999
0.99999
0.99999
0.99999
0.99999
0.99999
0.99999
0.99999
0.99999
0.99999
0.99999
0.99999
0.99999
0.99999
0.99999
0.99999
0.99999
0.99999
0.99999
0.99999
0.99999
0.99999
0.99999
0.99999
0.99999
0.999988
0.999986
0.999984
0.999982
0.999979
0.999977
0.999971
0.999966
0.999963
0.999959
0.999956
0.999953
0.999953
0.999941
0.999896
0.94678
0.028083
0.000198977
8.49692e-05
5.15468e-05
3.89724e-05
3.08668e-05
2.90053e-05
2.86268e-05
3.01183e-05
3.21482e-05
3.43196e-05
3.58893e-05
3.72871e-05
3.85677e-05
4.00751e-05
4.1462e-05
4.22984e-05
4.32568e-05
4.67997e-05
5.2473e-05
6.09332e-05
7.1584e-05
8.36647e-05
9.58203e-05
0.000106203
0.000114171
0.000119187
0.000120879
0.000116011
0.000101523
7.92291e-05
4.90244e-05
2.4885e-05
9.8082e-06
3.3666e-06
1.6262e-06
0.999993
0.999992
0.999992
0.999992
0.999991
0.999991
0.999991
0.999991
0.999991
0.99999
0.99999
0.99999
0.99999
0.99999
0.99999
0.99999
0.99999
0.99999
0.99999
0.99999
0.99999
0.99999
0.99999
0.99999
0.99999
0.99999
0.99999
0.99999
0.99999
0.99999
0.99999
0.99999
0.99999
0.99999
0.99999
0.99999
0.99999
0.99999
0.99999
0.99999
0.99999
0.99999
0.99999
0.99999
0.999989
0.999987
0.999985
0.999984
0.999981
0.999979
0.999975
0.999971
0.999968
0.999964
0.999961
0.999956
0.999954
0.999939
0.999846
0.965581
0.0361661
0.000150343
2.23608e-06
1.67226e-06
1.52078e-06
1.45065e-06
1.4326e-06
1.40619e-06
1.40805e-06
1.40844e-06
1.41521e-06
1.39759e-06
1.3825e-06
1.36382e-06
1.34308e-06
1.30427e-06
1.24312e-06
1.16558e-06
1.13928e-06
1.14185e-06
1.17757e-06
1.2667e-06
1.38921e-06
1.5094e-06
1.599e-06
1.63057e-06
1.57592e-06
1.45946e-06
1.38046e-06
1.26428e-06
1.06151e-06
8.47381e-07
6.89061e-07
6.22813e-07
6.07315e-07
5.85685e-07
0.999994
0.999993
0.999993
0.999993
0.999992
0.999992
0.999992
0.999991
0.999991
0.999991
0.99999
0.99999
0.99999
0.99999
0.99999
0.99999
0.99999
0.99999
0.99999
0.99999
0.99999
0.99999
0.99999
0.99999
0.99999
0.99999
0.99999
0.99999
0.99999
0.99999
0.99999
0.99999
0.99999
0.99999
0.99999
0.99999
0.99999
0.99999
0.99999
0.99999
0.99999
0.99999
0.99999
0.99999
0.999989
0.999988
0.999986
0.999985
0.999983
0.99998
0.999977
0.999974
0.999971
0.999966
0.999963
0.999959
0.999957
0.999935
0.999762
0.972643
0.0530157
0.000266431
1.62691e-06
1.4046e-06
1.38155e-06
1.35326e-06
1.33818e-06
1.31583e-06
1.29811e-06
1.27658e-06
1.26491e-06
1.25223e-06
1.24217e-06
1.22553e-06
1.20296e-06
1.18145e-06
1.16718e-06
1.15255e-06
1.13249e-06
1.11369e-06
1.0979e-06
1.0822e-06
1.0686e-06
1.0545e-06
1.03527e-06
1.00089e-06
9.5246e-07
8.91753e-07
8.2155e-07
7.56227e-07
7.09868e-07
6.41213e-07
5.70736e-07
5.44883e-07
5.47683e-07
5.41172e-07
0.999995
0.999994
0.999994
0.999994
0.999993
0.999993
0.999992
0.999992
0.999992
0.999991
0.99999
0.99999
0.99999
0.99999
0.99999
0.99999
0.99999
0.99999
0.99999
0.99999
0.99999
0.99999
0.99999
0.99999
0.99999
0.99999
0.99999
0.99999
0.99999
0.99999
0.99999
0.99999
0.99999
0.99999
0.99999
0.99999
0.99999
0.99999
0.99999
0.99999
0.99999
0.99999
0.99999
0.99999
0.99999
0.999989
0.999988
0.999986
0.999984
0.999982
0.999979
0.999975
0.999971
0.999967
0.999964
0.99996
0.999954
0.999922
0.999737
0.970846
0.0630714
0.000388857
1.83715e-06
1.38694e-06
1.36336e-06
1.33993e-06
1.33175e-06
1.31046e-06
1.29596e-06
1.27392e-06
1.2624e-06
1.24286e-06
1.22864e-06
1.2109e-06
1.19369e-06
1.17578e-06
1.15893e-06
1.14454e-06
1.13002e-06
1.11523e-06
1.09852e-06
1.08388e-06
1.06965e-06
1.05486e-06
1.03742e-06
1.00663e-06
9.55877e-07
8.90335e-07
8.12373e-07
7.3542e-07
6.74213e-07
6.12027e-07
5.54358e-07
5.32508e-07
5.35446e-07
5.30669e-07
0.999996
0.999995
0.999995
0.999994
0.999994
0.999993
0.999993
0.999993
0.999992
0.999991
0.99999
0.99999
0.99999
0.99999
0.99999
0.99999
0.99999
0.99999
0.99999
0.99999
0.99999
0.99999
0.99999
0.99999
0.99999
0.99999
0.99999
0.99999
0.99999
0.99999
0.99999
0.99999
0.99999
0.99999
0.99999
0.99999
0.99999
0.99999
0.99999
0.99999
0.99999
0.99999
0.99999
0.99999
0.99999
0.99999
0.999989
0.999987
0.999985
0.999983
0.99998
0.999976
0.999972
0.999969
0.999964
0.99996
0.999948
0.999923
0.999758
0.966961
0.0574868
0.000233206
1.50902e-06
1.38005e-06
1.36158e-06
1.33436e-06
1.31944e-06
1.29706e-06
1.28504e-06
1.26201e-06
1.25289e-06
1.23567e-06
1.2196e-06
1.20286e-06
1.18634e-06
1.16962e-06
1.15248e-06
1.1392e-06
1.12506e-06
1.11118e-06
1.09765e-06
1.08323e-06
1.06829e-06
1.05505e-06
1.04015e-06
1.01715e-06
9.7806e-07
9.15649e-07
8.33013e-07
7.4429e-07
6.72445e-07
6.05516e-07
5.45452e-07
5.2439e-07
5.27106e-07
5.23938e-07
0.999997
0.999996
0.999995
0.999995
0.999994
0.999994
0.999993
0.999993
0.999992
0.999991
0.99999
0.99999
0.99999
0.99999
0.99999
0.99999
0.99999
0.99999
0.99999
0.99999
0.99999
0.99999
0.99999
0.99999
0.99999
0.99999
0.99999
0.99999
0.99999
0.99999
0.99999
0.99999
0.99999
0.99999
0.99999
0.99999
0.99999
0.99999
0.99999
0.99999
0.99999
0.99999
0.99999
0.99999
0.99999
0.99999
0.999989
0.999988
0.999986
0.999984
0.99998
0.999977
0.999975
0.999973
0.999965
0.999951
0.999947
0.99994
0.999576
0.963947
0.0651192
0.00053004
2.1285e-06
1.38268e-06
1.36533e-06
1.33694e-06
1.31994e-06
1.29444e-06
1.28624e-06
1.26473e-06
1.25161e-06
1.2338e-06
1.21737e-06
1.20143e-06
1.18514e-06
1.16891e-06
1.15384e-06
1.13874e-06
1.12283e-06
1.10859e-06
1.09444e-06
1.07972e-06
1.06652e-06
1.05345e-06
1.03888e-06
1.02465e-06
1.00132e-06
9.54479e-07
8.80308e-07
7.90974e-07
6.95459e-07
6.08379e-07
5.43113e-07
5.1836e-07
5.21538e-07
5.20724e-07
0.99999
0.99999
0.99999
0.99999
0.99999
0.99999
0.99999
0.99999
0.99999
0.99999
0.99999
0.99999
0.99999
0.99999
0.99999
0.99999
0.99999
0.99999
0.99999
0.99999
0.99999
0.99999
0.99999
0.99999
0.99999
0.99999
0.99999
0.99999
0.99999
0.99999
0.99999
0.99999
0.99999
0.99999
0.99999
0.99999
0.99999
0.99999
0.99999
0.99999
0.99999
0.99999
0.99999
0.99999
0.99999
0.99999
0.99999
0.999988
0.999986
0.999985
0.999983
0.999981
0.999979
0.999975
0.999971
0.999965
0.99996
0.999931
0.999251
0.949584
0.0344939
0.000138327
1.40809e-06
1.37061e-06
1.35604e-06
1.32371e-06
1.31825e-06
1.29145e-06
1.28431e-06
1.26396e-06
1.25532e-06
1.23676e-06
1.22399e-06
1.20792e-06
1.19401e-06
1.17795e-06
1.16194e-06
1.14593e-06
1.13009e-06
1.11704e-06
1.10197e-06
1.08404e-06
1.06909e-06
1.05381e-06
1.03858e-06
1.02509e-06
1.01007e-06
9.92554e-07
9.71e-07
9.29945e-07
8.59277e-07
7.67565e-07
6.72862e-07
6.30434e-07
6.28221e-07
6.04602e-07
0.99999
0.99999
0.99999
0.99999
0.99999
0.99999
0.99999
0.99999
0.99999
0.99999
0.99999
0.99999
0.99999
0.99999
0.99999
0.99999
0.99999
0.99999
0.99999
0.99999
0.99999
0.99999
0.99999
0.99999
0.99999
0.99999
0.99999
0.99999
0.99999
0.99999
0.99999
0.99999
0.99999
0.99999
0.99999
0.99999
0.99999
0.99999
0.99999
0.99999
0.99999
0.99999
0.99999
0.99999
0.99999
0.99999
0.999989
0.999988
0.999987
0.999986
0.999984
0.999981
0.999975
0.99997
0.999965
0.999959
0.999948
0.999912
0.999611
0.921781
0.0170994
1.64651e-05
1.38836e-06
1.38496e-06
1.37888e-06
1.34228e-06
1.33509e-06
1.30995e-06
1.30896e-06
1.29571e-06
1.28389e-06
1.25982e-06
1.24454e-06
1.22767e-06
1.21024e-06
1.19315e-06
1.17886e-06
1.16414e-06
1.14755e-06
1.13162e-06
1.11042e-06
1.08974e-06
1.07135e-06
1.05348e-06
1.03676e-06
1.02058e-06
1.00344e-06
9.84828e-07
9.6479e-07
9.37048e-07
8.87327e-07
8.07808e-07
7.03325e-07
6.4992e-07
6.47044e-07
6.18329e-07
0.999991
0.99999
0.99999
0.99999
0.99999
0.99999
0.99999
0.99999
0.99999
0.99999
0.99999
0.99999
0.99999
0.99999
0.99999
0.99999
0.99999
0.99999
0.99999
0.99999
0.99999
0.99999
0.99999
0.99999
0.99999
0.99999
0.99999
0.99999
0.99999
0.99999
0.99999
0.99999
0.99999
0.99999
0.99999
0.99999
0.99999
0.99999
0.99999
0.99999
0.99999
0.99999
0.99999
0.99999
0.99999
0.99999
0.99999
0.999989
0.999988
0.999987
0.999981
0.999971
0.999964
0.999957
0.999952
0.99995
0.999941
0.999909
0.999745
0.886872
0.0147364
2.34924e-06
1.70037e-06
1.4755e-06
1.48835e-06
1.40361e-06
1.42714e-06
1.39724e-06
1.38845e-06
1.35199e-06
1.34501e-06
1.32794e-06
1.31438e-06
1.29437e-06
1.27448e-06
1.25471e-06
1.23465e-06
1.21196e-06
1.18644e-06
1.15568e-06
1.12521e-06
1.10087e-06
1.08094e-06
1.05897e-06
1.04143e-06
1.02287e-06
1.0047e-06
9.8516e-07
9.64224e-07
9.37106e-07
8.94089e-07
8.2346e-07
7.29954e-07
6.73875e-07
6.59876e-07
6.27229e-07
0.999991
0.999991
0.999991
0.999991
0.99999
0.99999
0.99999
0.99999
0.99999
0.99999
0.99999
0.99999
0.99999
0.99999
0.99999
0.99999
0.99999
0.99999
0.99999
0.99999
0.99999
0.99999
0.99999
0.99999
0.99999
0.99999
0.99999
0.99999
0.99999
0.99999
0.99999
0.99999
0.99999
0.99999
0.99999
0.99999
0.99999
0.99999
0.99999
0.99999
0.99999
0.99999
0.99999
0.99999
0.99999
0.99999
0.99999
0.99999
0.999989
0.999984
0.999972
0.99996
0.999952
0.999942
0.999935
0.99992
0.999899
0.999877
0.999775
0.816953
0.00979147
0.000123305
9.15439e-05
6.11212e-05
4.59537e-05
3.30981e-05
2.45876e-05
1.86273e-05
1.48312e-05
1.20251e-05
1.01025e-05
8.75379e-06
7.76319e-06
6.84924e-06
5.88322e-06
4.65946e-06
3.47168e-06
2.4859e-06
1.82418e-06
1.41778e-06
1.22147e-06
1.13854e-06
1.11017e-06
1.06479e-06
1.04128e-06
1.01569e-06
9.96714e-07
9.76573e-07
9.51892e-07
9.23711e-07
8.85474e-07
8.24822e-07
7.41576e-07
6.83073e-07
6.61973e-07
6.24363e-07
0.999991
0.999991
0.999991
0.999991
0.999991
0.99999
0.99999
0.99999
0.99999
0.99999
0.99999
0.99999
0.99999
0.99999
0.99999
0.99999
0.99999
0.99999
0.99999
0.99999
0.99999
0.99999
0.99999
0.99999
0.99999
0.99999
0.99999
0.99999
0.99999
0.99999
0.99999
0.99999
0.99999
0.99999
0.99999
0.99999
0.99999
0.99999
0.99999
0.99999
0.99999
0.99999
0.99999
0.99999
0.99999
0.99999
0.99999
0.999989
0.999987
0.999978
0.999964
0.999953
0.999941
0.999925
0.999907
0.999888
0.999875
0.999868
0.999854
0.703798
0.0103695
0.00320249
0.00289544
0.00250535
0.00223302
0.00193663
0.0016699
0.00141847
0.00119605
0.000995111
0.000824083
0.00067842
0.000555433
0.000449139
0.000352206
0.000267197
0.000193359
0.000131641
8.47681e-05
5.01568e-05
2.69765e-05
1.2728e-05
5.48176e-06
2.49884e-06
1.47298e-06
1.15534e-06
1.0456e-06
9.77313e-07
9.25822e-07
8.70761e-07
8.28263e-07
7.84167e-07
7.2949e-07
6.81172e-07
6.59756e-07
6.19252e-07
0.999991
0.999991
0.999991
0.999991
0.999991
0.999991
0.999991
0.99999
0.99999
0.99999
0.99999
0.99999
0.99999
0.99999
0.99999
0.99999
0.99999
0.99999
0.99999
0.99999
0.99999
0.99999
0.99999
0.99999
0.99999
0.99999
0.99999
0.99999
0.99999
0.99999
0.99999
0.99999
0.99999
0.99999
0.99999
0.99999
0.99999
0.99999
0.99999
0.99999
0.99999
0.99999
0.99999
0.99999
0.99999
0.99999
0.999989
0.999987
0.999983
0.999974
0.999958
0.999948
0.999936
0.99992
0.999901
0.999889
0.999886
0.999886
0.999738
0.555167
0.0201351
0.0160629
0.0161418
0.015876
0.0156358
0.0151711
0.0146348
0.0139991
0.0132313
0.0123584
0.0114158
0.0104232
0.00941537
0.00839814
0.00737526
0.00636558
0.00539188
0.00446239
0.00359644
0.00280447
0.00210426
0.00150273
0.0010205
0.000658974
0.000407256
0.000242151
0.000139756
7.73823e-05
4.01099e-05
1.95921e-05
8.56923e-06
3.379e-06
1.55637e-06
9.3402e-07
6.98492e-07
6.12332e-07
0.999991
0.999991
0.999991
0.999991
0.999991
0.999991
0.999991
0.99999
0.99999
0.99999
0.99999
0.99999
0.99999
0.99999
0.99999
0.99999
0.99999
0.99999
0.99999
0.99999
0.99999
0.99999
0.99999
0.99999
0.99999
0.99999
0.99999
0.99999
0.99999
0.99999
0.99999
0.99999
0.99999
0.99999
0.99999
0.99999
0.99999
0.99999
0.99999
0.99999
0.99999
0.99999
0.99999
0.99999
0.99999
0.99999
0.999989
0.999985
0.99998
0.999973
0.999958
0.999948
0.999939
0.999931
0.99992
0.99991
0.999907
0.999903
0.99881
0.552821
0.0332342
0.0276356
0.0288258
0.0295915
0.0302915
0.0308479
0.0312111
0.0315178
0.0317611
0.0319926
0.0322037
0.0324025
0.0324957
0.032493
0.0322988
0.0319643
0.031397
0.0306063
0.0294753
0.0280427
0.026269
0.0242279
0.021983
0.019614
0.017158
0.0147245
0.0123619
0.0101997
0.00826701
0.00659648
0.00512787
0.00374228
0.00244216
0.00137309
0.000901212
0.00108994
0.999991
0.999991
0.999991
0.999991
0.999991
0.999991
0.999991
0.999991
0.99999
0.99999
0.99999
0.99999
0.99999
0.99999
0.99999
0.99999
0.99999
0.99999
0.99999
0.99999
0.99999
0.99999
0.99999
0.99999
0.99999
0.99999
0.99999
0.99999
0.99999
0.99999
0.99999
0.99999
0.99999
0.99999
0.99999
0.99999
0.99999
0.99999
0.99999
0.99999
0.99999
0.99999
0.99999
0.99999
0.99999
0.999989
0.999988
0.999984
0.999979
0.999968
0.999958
0.999952
0.999947
0.999946
0.99994
0.999932
0.999927
0.999921
0.997684
0.706015
0.0345235
0.0214283
0.0225059
0.0231972
0.0241916
0.0254661
0.0269888
0.0286556
0.0305695
0.0325419
0.0345795
0.0367188
0.0389664
0.0413156
0.0438792
0.046648
0.0496588
0.0529076
0.0563315
0.059863
0.0634559
0.0671465
0.0709833
0.074966
0.0791101
0.0834092
0.0879155
0.0926794
0.0977854
0.103545
0.110556
0.119437
0.131511
0.151192
0.197898
0.392147
0.999992
0.999992
0.999991
0.999991
0.999991
0.999991
0.999991
0.999991
0.999991
0.99999
0.99999
0.99999
0.99999
0.99999
0.99999
0.99999
0.99999
0.99999
0.99999
0.99999
0.99999
0.99999
0.99999
0.99999
0.99999
0.99999
0.99999
0.99999
0.99999
0.99999
0.99999
0.99999
0.99999
0.99999
0.99999
0.99999
0.99999
0.99999
0.99999
0.99999
0.99999
0.99999
0.99999
0.99999
0.99999
0.999989
0.999987
0.999984
0.99998
0.999971
0.999961
0.999957
0.999952
0.999948
0.999938
0.99993
0.999925
0.999918
0.999731
0.839345
0.020062
0.00487723
0.00460788
0.00385974
0.00356737
0.00328602
0.00324951
0.00330422
0.00336904
0.00345107
0.00356175
0.00366436
0.00375064
0.00383543
0.00394971
0.00411359
0.00436486
0.00466638
0.00502986
0.00550293
0.00608615
0.00684479
0.00780973
0.00889953
0.0100551
0.0111914
0.0123199
0.0134283
0.014414
0.0152383
0.0158105
0.0164131
0.0172704
0.0180162
0.0183511
0.0166328
0.999992
0.999992
0.999992
0.999992
0.999992
0.999991
0.999991
0.999991
0.999991
0.999991
0.99999
0.99999
0.99999
0.99999
0.99999
0.99999
0.99999
0.99999
0.99999
0.99999
0.99999
0.99999
0.99999
0.99999
0.99999
0.99999
0.99999
0.99999
0.99999
0.99999
0.99999
0.99999
0.99999
0.99999
0.99999
0.99999
0.99999
0.99999
0.99999
0.99999
0.99999
0.99999
0.99999
0.99999
0.99999
0.999988
0.999986
0.999985
0.999982
0.999979
0.99997
0.999965
0.99996
0.999954
0.999941
0.999934
0.999931
0.999918
0.999915
0.899995
0.0138604
0.000634384
0.000537844
0.000378178
0.000318484
0.0002679
0.00025497
0.000252139
0.000260102
0.000270871
0.000288652
0.000308553
0.000327318
0.000342589
0.000353775
0.000359786
0.000364695
0.0003689
0.00038338
0.000416388
0.000478697
0.000597318
0.000754844
0.000942541
0.00113752
0.00134779
0.00158039
0.00180195
0.00203631
0.0022865
0.00251254
0.00263413
0.00255654
0.00199846
0.00120888
0.000530973
0.999993
0.999992
0.999992
0.999992
0.999992
0.999992
0.999991
0.999991
0.999991
0.999991
0.99999
0.99999
0.99999
0.99999
0.99999
0.99999
0.99999
0.99999
0.99999
0.99999
0.99999
0.99999
0.99999
0.99999
0.99999
0.99999
0.99999
0.99999
0.99999
0.99999
0.99999
0.99999
0.99999
0.99999
0.99999
0.99999
0.99999
0.99999
0.99999
0.99999
0.99999
0.99999
0.99999
0.99999
0.99999
0.999989
0.999987
0.999986
0.999983
0.999982
0.999976
0.999972
0.99997
0.999966
0.999958
0.999946
0.999938
0.999913
0.999891
0.938927
0.0198019
4.12944e-05
3.44058e-05
2.10365e-05
1.82644e-05
1.56891e-05
1.56795e-05
1.58621e-05
1.63723e-05
1.65572e-05
1.69561e-05
1.7625e-05
1.8586e-05
1.94932e-05
2.07344e-05
2.15751e-05
2.0993e-05
1.9465e-05
1.9189e-05
2.02192e-05
2.30959e-05
2.93985e-05
3.73894e-05
4.68927e-05
5.52221e-05
5.96577e-05
6.02991e-05
5.80144e-05
5.50425e-05
5.2131e-05
5.1262e-05
4.91359e-05
3.84887e-05
2.17108e-05
9.79974e-06
4.04476e-06
0.999994
0.999993
0.999993
0.999993
0.999992
0.999992
0.999992
0.999991
0.999991
0.999991
0.99999
0.99999
0.99999
0.99999
0.99999
0.99999
0.99999
0.99999
0.99999
0.99999
0.99999
0.99999
0.99999
0.99999
0.99999
0.99999
0.99999
0.99999
0.99999
0.99999
0.99999
0.99999
0.99999
0.99999
0.99999
0.99999
0.99999
0.99999
0.99999
0.99999
0.99999
0.99999
0.99999
0.99999
0.99999
0.99999
0.999988
0.999987
0.999986
0.999984
0.999979
0.999975
0.999971
0.999966
0.99996
0.999952
0.999942
0.999914
0.999845
0.954587
0.0252753
1.88431e-06
2.48568e-06
1.6769e-06
1.69105e-06
1.54604e-06
1.54457e-06
1.50767e-06
1.49222e-06
1.46307e-06
1.453e-06
1.44215e-06
1.43302e-06
1.41338e-06
1.39438e-06
1.37124e-06
1.31012e-06
1.25505e-06
1.23769e-06
1.23275e-06
1.25248e-06
1.27552e-06
1.30496e-06
1.34559e-06
1.35983e-06
1.28913e-06
1.13035e-06
1.00176e-06
9.37872e-07
8.83712e-07
8.07989e-07
7.19115e-07
6.46387e-07
6.17332e-07
6.05822e-07
6.04845e-07
0.999994
0.999994
0.999994
0.999993
0.999993
0.999992
0.999992
0.999991
0.999991
0.999991
0.99999
0.99999
0.99999
0.99999
0.99999
0.99999
0.99999
0.99999
0.99999
0.99999
0.99999
0.99999
0.99999
0.99999
0.99999
0.99999
0.99999
0.99999
0.99999
0.99999
0.99999
0.99999
0.99999
0.99999
0.99999
0.99999
0.99999
0.99999
0.99999
0.99999
0.99999
0.99999
0.99999
0.99999
0.99999
0.99999
0.999989
0.999988
0.999986
0.999985
0.999982
0.999976
0.999968
0.99996
0.999953
0.999949
0.999941
0.999922
0.999798
0.963549
0.0419855
3.41108e-05
1.44552e-06
1.40111e-06
1.40096e-06
1.36534e-06
1.35479e-06
1.32768e-06
1.31374e-06
1.28301e-06
1.26489e-06
1.24027e-06
1.22592e-06
1.20838e-06
1.19109e-06
1.17396e-06
1.16184e-06
1.14456e-06
1.12361e-06
1.10817e-06
1.09254e-06
1.07603e-06
1.06231e-06
1.04737e-06
1.02814e-06
9.98147e-07
9.52612e-07
8.92235e-07
8.23168e-07
7.60283e-07
7.0228e-07
6.32476e-07
5.57494e-07
5.27711e-07
5.22561e-07
5.20458e-07
0.999995
0.999994
0.999995
0.999994
0.999993
0.999993
0.999992
0.999992
0.999992
0.999991
0.99999
0.99999
0.99999
0.99999
0.99999
0.99999
0.99999
0.99999
0.99999
0.99999
0.99999
0.99999
0.99999
0.99999
0.99999
0.99999
0.99999
0.99999
0.99999
0.99999
0.99999
0.99999
0.99999
0.99999
0.99999
0.99999
0.99999
0.99999
0.99999
0.99999
0.99999
0.99999
0.99999
0.99999
0.99999
0.99999
0.999989
0.999988
0.999987
0.999985
0.999983
0.999976
0.999965
0.999956
0.999945
0.999942
0.999936
0.999908
0.999743
0.958123
0.0391455
4.35752e-05
1.43979e-06
1.38987e-06
1.36021e-06
1.33457e-06
1.32798e-06
1.30098e-06
1.2904e-06
1.26636e-06
1.25317e-06
1.23196e-06
1.21874e-06
1.20076e-06
1.18449e-06
1.16738e-06
1.15219e-06
1.13681e-06
1.12121e-06
1.10787e-06
1.09273e-06
1.07685e-06
1.0635e-06
1.04872e-06
1.03013e-06
1.00278e-06
9.56663e-07
8.94138e-07
8.20228e-07
7.41745e-07
6.76677e-07
6.11881e-07
5.50877e-07
5.25665e-07
5.25438e-07
5.21915e-07
0.999996
0.999995
0.999995
0.999995
0.999994
0.999993
0.999992
0.999992
0.999992
0.999991
0.99999
0.99999
0.99999
0.99999
0.99999
0.99999
0.99999
0.99999
0.99999
0.99999
0.99999
0.99999
0.99999
0.99999
0.99999
0.99999
0.99999
0.99999
0.99999
0.99999
0.99999
0.99999
0.99999
0.99999
0.99999
0.99999
0.99999
0.99999
0.99999
0.99999
0.99999
0.99999
0.99999
0.99999
0.99999
0.99999
0.999989
0.999988
0.999987
0.999984
0.999982
0.999978
0.999964
0.999959
0.999941
0.999927
0.99992
0.999907
0.999769
0.941933
0.0334919
7.87304e-05
1.45805e-06
1.37121e-06
1.34997e-06
1.3195e-06
1.31271e-06
1.28722e-06
1.27701e-06
1.25434e-06
1.24298e-06
1.2225e-06
1.20865e-06
1.19047e-06
1.17626e-06
1.16067e-06
1.14528e-06
1.13176e-06
1.11726e-06
1.10387e-06
1.08899e-06
1.07358e-06
1.0602e-06
1.04588e-06
1.02928e-06
1.00829e-06
9.72742e-07
9.14571e-07
8.37281e-07
7.51972e-07
6.72071e-07
6.00535e-07
5.41526e-07
5.20642e-07
5.22747e-07
5.20916e-07
0.999997
0.999996
0.999996
0.999995
0.999995
0.999994
0.999994
0.999993
0.999992
0.999991
0.99999
0.99999
0.99999
0.99999
0.99999
0.99999
0.99999
0.99999
0.99999
0.99999
0.99999
0.99999
0.99999
0.99999
0.99999
0.99999
0.99999
0.99999
0.99999
0.99999
0.99999
0.99999
0.99999
0.99999
0.99999
0.99999
0.99999
0.99999
0.99999
0.99999
0.99999
0.99999
0.99999
0.99999
0.99999
0.99999
0.99999
0.999989
0.999987
0.999984
0.999981
0.999978
0.999974
0.999967
0.999947
0.999928
0.999924
0.999913
0.999688
0.962016
0.0529295
0.000370816
1.90816e-06
1.36803e-06
1.35164e-06
1.31963e-06
1.31242e-06
1.28691e-06
1.27692e-06
1.25421e-06
1.24221e-06
1.22225e-06
1.20904e-06
1.19165e-06
1.17684e-06
1.16142e-06
1.1481e-06
1.13382e-06
1.11855e-06
1.10547e-06
1.09068e-06
1.07501e-06
1.06201e-06
1.04799e-06
1.03301e-06
1.01783e-06
9.93568e-07