/*--------------------------------*- C++ -*----------------------------------*\
| =========                 |                                                 |
| \\      /  F ield         | OpenFOAM: The Open Source CFD Toolbox           |
|  \\    /   O peration     | Version:  2.3.0                                 |
|   \\  /    A nd           | Web:      www.OpenFOAM.org                      |
|    \\/     M anipulation  |                                                 |
\*---------------------------------------------------------------------------*/
FoamFile
{
    version     2.0;
    format      ascii;
    class       volScalarField;
    location    "11";
    object      alpha.air;
}
// * * * * * * * * * * * * * * * * * * * * * * * * * * * * * * * * * * * * * //

dimensions      [0 0 0 0 0 0 0];

internalField   nonuniform List<scalar> 
6144
(
0.999991
0.999991
0.99999
0.99999
0.99999
0.99999
0.99999
0.99999
0.99999
0.99999
0.99999
0.99999
0.99999
0.99999
0.99999
0.99999
0.99999
0.99999
0.99999
0.99999
0.99999
0.99999
0.99999
0.99999
0.99999
0.99999
0.99999
0.99999
0.99999
0.99999
0.99999
0.99999
0.99999
0.99999
0.99999
0.99999
0.99999
0.99999
0.99999
0.99999
0.99999
0.99999
0.99999
0.99999
0.99999
0.99999
0.999988
0.999982
0.99997
0.999967
0.999967
0.999962
0.999958
0.99995
0.999944
0.999939
0.999936
0.999931
0.999239
0.94337
0.039982
0.000223601
8.23277e-07
6.54718e-07
6.55424e-07
6.55367e-07
6.58729e-07
6.67897e-07
6.80549e-07
6.94688e-07
6.93792e-07
6.95873e-07
7.04844e-07
7.19754e-07
7.22373e-07
7.1242e-07
7.08026e-07
7.29403e-07
7.45022e-07
7.52941e-07
7.55731e-07
7.51742e-07
7.47211e-07
7.43602e-07
7.42606e-07
7.45764e-07
7.46306e-07
7.40328e-07
6.64573e-07
5.37355e-07
5.22587e-07
5.14962e-07
5.11025e-07
5.11066e-07
5.11124e-07
5.11183e-07
0.999991
0.999991
0.999991
0.99999
0.99999
0.99999
0.99999
0.99999
0.99999
0.99999
0.99999
0.99999
0.99999
0.99999
0.99999
0.99999
0.99999
0.99999
0.99999
0.99999
0.99999
0.99999
0.99999
0.99999
0.99999
0.99999
0.99999
0.99999
0.99999
0.99999
0.99999
0.99999
0.99999
0.99999
0.99999
0.99999
0.99999
0.99999
0.99999
0.99999
0.99999
0.99999
0.99999
0.99999
0.99999
0.99999
0.999986
0.999979
0.999975
0.999977
0.999971
0.999962
0.999951
0.999941
0.999937
0.999932
0.99993
0.999926
0.999675
0.954881
0.0441465
0.000227079
7.40561e-07
6.47685e-07
6.41439e-07
6.46513e-07
6.82861e-07
7.18014e-07
7.43446e-07
7.5763e-07
7.62408e-07
7.14571e-07
7.03726e-07
7.07632e-07
7.23582e-07
7.21809e-07
7.49987e-07
7.67718e-07
7.70177e-07
7.7146e-07
7.59385e-07
7.43743e-07
7.36915e-07
7.308e-07
7.26541e-07
7.26567e-07
7.27402e-07
7.33198e-07
7.4124e-07
7.35576e-07
7.24428e-07
7.13341e-07
6.65298e-07
5.92166e-07
5.18121e-07
5.11242e-07
0.999991
0.999991
0.999991
0.999991
0.99999
0.99999
0.99999
0.99999
0.99999
0.99999
0.99999
0.99999
0.99999
0.99999
0.99999
0.99999
0.99999
0.99999
0.99999
0.99999
0.99999
0.99999
0.99999
0.99999
0.99999
0.99999
0.99999
0.99999
0.99999
0.99999
0.99999
0.99999
0.99999
0.99999
0.99999
0.99999
0.99999
0.99999
0.99999
0.99999
0.99999
0.99999
0.99999
0.99999
0.99999
0.99999
0.999989
0.999986
0.999985
0.999983
0.999971
0.999952
0.99994
0.999936
0.999933
0.999928
0.999928
0.999925
0.999658
0.968622
0.0526102
0.000335409
9.76983e-07
6.38284e-07
6.38344e-07
6.38405e-07
6.38465e-07
7.14388e-07
7.38779e-07
7.39511e-07
7.42153e-07
7.65413e-07
7.41269e-07
7.36151e-07
7.65857e-07
7.80683e-07
7.90863e-07
7.89604e-07
7.83159e-07
7.75084e-07
7.66664e-07
7.48717e-07
7.44651e-07
7.38297e-07
7.29649e-07
7.27598e-07
7.26792e-07
7.31949e-07
7.34076e-07
7.35859e-07
7.42743e-07
7.47618e-07
7.52008e-07
7.48246e-07
6.67668e-07
5.13056e-07
0.999991
0.999991
0.999991
0.999991
0.99999
0.99999
0.99999
0.99999
0.99999
0.99999
0.99999
0.99999
0.99999
0.99999
0.99999
0.99999
0.99999
0.99999
0.99999
0.99999
0.99999
0.99999
0.99999
0.99999
0.99999
0.99999
0.99999
0.99999
0.99999
0.99999
0.99999
0.99999
0.99999
0.99999
0.99999
0.99999
0.99999
0.99999
0.99999
0.99999
0.99999
0.99999
0.99999
0.99999
0.99999
0.99999
0.99999
0.99999
0.999989
0.999983
0.999959
0.999941
0.999936
0.999933
0.99993
0.999926
0.999931
0.999928
0.999754
0.955798
0.020024
4.91063e-05
8.64157e-07
8.89608e-07
2.13382e-06
1.86833e-06
8.18205e-07
1.08709e-06
2.11193e-06
1.19669e-06
7.39193e-07
7.80424e-07
1.55646e-06
2.38599e-06
1.63478e-06
7.80967e-07
8.22309e-07
1.45832e-06
1.54988e-06
8.72444e-07
7.25784e-07
7.26148e-07
7.22056e-07
7.2201e-07
7.21969e-07
7.22844e-07
7.22231e-07
7.35558e-07
7.28578e-07
7.27909e-07
7.35134e-07
7.45337e-07
7.5769e-07
7.57137e-07
7.15081e-07
5.57921e-07
0.999992
0.999992
0.999991
0.999991
0.999991
0.999991
0.99999
0.99999
0.99999
0.99999
0.99999
0.99999
0.99999
0.99999
0.99999
0.99999
0.99999
0.99999
0.99999
0.99999
0.99999
0.99999
0.99999
0.99999
0.99999
0.99999
0.99999
0.99999
0.99999
0.99999
0.99999
0.99999
0.99999
0.99999
0.99999
0.99999
0.99999
0.99999
0.99999
0.99999
0.99999
0.99999
0.99999
0.99999
0.99999
0.99999
0.99999
0.99999
0.999989
0.999971
0.999943
0.999935
0.999932
0.999928
0.999927
0.999928
0.999932
0.999937
0.999846
0.929363
0.0131829
0.000151255
0.000113051
9.89529e-05
0.00010417
0.000107587
0.000102885
9.45549e-05
8.68123e-05
7.67061e-05
7.23563e-05
7.43146e-05
7.99377e-05
8.51906e-05
8.96931e-05
9.30277e-05
8.49621e-05
7.29756e-05
5.29875e-05
2.98372e-05
1.42231e-05
6.02876e-06
2.53312e-06
1.08033e-06
7.55616e-07
8.54486e-07
7.28998e-07
7.21229e-07
7.22478e-07
7.22056e-07
7.21966e-07
7.30524e-07
7.45933e-07
7.53618e-07
7.06365e-07
5.51014e-07
0.999992
0.999992
0.999991
0.999992
0.999991
0.999991
0.999991
0.999991
0.99999
0.99999
0.99999
0.99999
0.99999
0.99999
0.99999
0.99999
0.99999
0.99999
0.99999
0.99999
0.99999
0.99999
0.99999
0.99999
0.99999
0.99999
0.99999
0.99999
0.99999
0.99999
0.99999
0.99999
0.99999
0.99999
0.99999
0.99999
0.99999
0.99999
0.99999
0.99999
0.99999
0.99999
0.99999
0.99999
0.99999
0.99999
0.99999
0.999989
0.999981
0.999949
0.999935
0.99993
0.999925
0.999925
0.999928
0.999933
0.999939
0.999947
0.999601
0.891482
0.0193656
0.00224112
0.00224432
0.00214446
0.00226569
0.00230807
0.00223076
0.00206877
0.00182788
0.00158962
0.00138121
0.00121791
0.00111113
0.00104223
0.000999701
0.000968028
0.000928134
0.000770252
0.000583148
0.000377735
0.000199827
0.000105589
5.0334e-05
2.13204e-05
1.17557e-05
1.22577e-05
9.83326e-06
8.31583e-06
5.33979e-06
2.81731e-06
1.18432e-06
6.32759e-07
6.32759e-07
6.44384e-07
6.22905e-07
4.94178e-07
0.999992
0.999993
0.999992
0.999992
0.999992
0.999991
0.999991
0.999991
0.999991
0.99999
0.99999
0.99999
0.99999
0.99999
0.99999
0.99999
0.99999
0.99999
0.99999
0.99999
0.99999
0.99999
0.99999
0.99999
0.99999
0.99999
0.99999
0.99999
0.99999
0.99999
0.99999
0.99999
0.99999
0.99999
0.99999
0.99999
0.99999
0.99999
0.99999
0.99999
0.99999
0.99999
0.99999
0.99999
0.99999
0.99999
0.99999
0.999987
0.999962
0.999936
0.999929
0.999923
0.999922
0.999922
0.999925
0.999931
0.999938
0.999948
0.999957
0.81428
0.0225667
0.00922917
0.00997877
0.0101956
0.0104271
0.0105728
0.0105961
0.0100977
0.00956119
0.00895165
0.00824807
0.00752461
0.00682821
0.00609881
0.0053326
0.00455724
0.00375418
0.00297826
0.0022489
0.00157631
0.0010205
0.000615975
0.000492472
0.000541112
0.000584908
0.000638941
0.000692163
0.000700342
0.00065911
0.000673239
0.000500565
0.000310697
0.000124834
1.26841e-05
3.25407e-07
3.25408e-07
0.999993
0.999993
0.999993
0.999993
0.999992
0.999992
0.999991
0.999991
0.999991
0.999991
0.99999
0.99999
0.99999
0.99999
0.99999
0.99999
0.99999
0.99999
0.99999
0.99999
0.99999
0.99999
0.99999
0.99999
0.99999
0.99999
0.99999
0.99999
0.99999
0.99999
0.99999
0.99999
0.99999
0.99999
0.99999
0.99999
0.99999
0.99999
0.99999
0.99999
0.99999
0.99999
0.99999
0.99999
0.99999
0.99999
0.999989
0.999972
0.999941
0.999927
0.999922
0.999921
0.999922
0.999922
0.999921
0.999922
0.999922
0.99992
0.999957
0.739106
0.0271628
0.0156124
0.016317
0.0164328
0.0161353
0.0160826
0.0159412
0.0159197
0.0160017
0.0161272
0.016187
0.016226
0.0162424
0.0161429
0.0160934
0.0160878
0.0159723
0.0158906
0.0158819
0.0158947
0.0161262
0.0164332
0.0167675
0.0170732
0.0175958
0.0182496
0.0189352
0.0196953
0.0204342
0.0211538
0.0217743
0.0220444
0.0213374
0.0204269
0.017925
0.0137034
0.999993
0.999993
0.999993
0.999993
0.999993
0.999992
0.999992
0.999991
0.999991
0.999991
0.99999
0.99999
0.99999
0.99999
0.99999
0.99999
0.99999
0.99999
0.99999
0.99999
0.99999
0.99999
0.99999
0.99999
0.99999
0.99999
0.99999
0.99999
0.99999
0.99999
0.99999
0.99999
0.99999
0.99999
0.99999
0.99999
0.99999
0.99999
0.99999
0.99999
0.99999
0.99999
0.99999
0.99999
0.99999
0.999989
0.999969
0.999933
0.999928
0.999925
0.999923
0.999923
0.999926
0.999928
0.999925
0.999921
0.999917
0.999886
0.999718
0.79481
0.0251001
0.0112915
0.0109198
0.00939637
0.00845303
0.00811401
0.00835961
0.0088956
0.00953867
0.0102247
0.0107823
0.0112569
0.011739
0.0121541
0.012515
0.0128145
0.0130451
0.0131889
0.013343
0.0136403
0.0140454
0.0145473
0.0151288
0.0156974
0.0161512
0.016528
0.0168937
0.0172004
0.017371
0.0171775
0.0163164
0.0148869
0.0126439
0.00960735
0.00560672
0.002591
0.999995
0.999993
0.999992
0.999993
0.999993
0.999993
0.999992
0.999991
0.999992
0.999991
0.99999
0.99999
0.99999
0.99999
0.99999
0.99999
0.99999
0.99999
0.99999
0.99999
0.99999
0.99999
0.99999
0.99999
0.99999
0.99999
0.99999
0.99999
0.99999
0.99999
0.99999
0.99999
0.99999
0.99999
0.99999
0.99999
0.99999
0.99999
0.99999
0.99999
0.99999
0.99999
0.99999
0.99999
0.99999
0.999989
0.999967
0.999932
0.999926
0.999926
0.999924
0.999923
0.999927
0.99993
0.999932
0.999929
0.999924
0.99991
0.999892
0.882109
0.0204554
0.00323253
0.0026153
0.00146992
0.00118079
0.00109637
0.00137246
0.00162127
0.00189262
0.0021248
0.002306
0.00243735
0.00257964
0.00274184
0.00286746
0.00292339
0.00292209
0.00293954
0.00303223
0.00316398
0.00338286
0.00367638
0.0040135
0.00437233
0.00470332
0.00492103
0.00500417
0.00502876
0.00483828
0.00453928
0.00387213
0.00296926
0.00203732
0.00110337
0.000430628
0.00017291
0.999997
0.999994
0.999992
0.999993
0.999993
0.999993
0.999992
0.999992
0.999992
0.999991
0.99999
0.99999
0.99999
0.99999
0.99999
0.99999
0.99999
0.99999
0.99999
0.99999
0.99999
0.99999
0.99999
0.99999
0.99999
0.99999
0.99999
0.99999
0.99999
0.99999
0.99999
0.99999
0.99999
0.99999
0.99999
0.99999
0.99999
0.99999
0.99999
0.99999
0.99999
0.99999
0.99999
0.99999
0.99999
0.99999
0.999978
0.999939
0.999926
0.999926
0.999926
0.999924
0.999925
0.999928
0.999932
0.999934
0.999936
0.999921
0.999929
0.922142
0.0134858
0.000228829
0.00013443
4.12821e-05
3.659e-05
3.50712e-05
5.2832e-05
7.38693e-05
9.87727e-05
0.000125003
0.000150206
0.000168932
0.000175627
0.000175457
0.000176283
0.000170046
0.000157323
0.000148297
0.000144054
0.000156206
0.000174444
0.000190834
0.000205832
0.00021618
0.000221724
0.000233681
0.000240631
0.00023968
0.000212328
0.000183169
0.000141444
9.02702e-05
4.71703e-05
1.7898e-05
5.25797e-06
2.07995e-06
0.999995
0.999993
0.999993
0.999993
0.999993
0.999993
0.999992
0.999992
0.999992
0.999991
0.99999
0.99999
0.99999
0.99999
0.99999
0.99999
0.99999
0.99999
0.99999
0.99999
0.99999
0.99999
0.99999
0.99999
0.99999
0.99999
0.99999
0.99999
0.99999
0.99999
0.99999
0.99999
0.99999
0.99999
0.99999
0.99999
0.99999
0.99999
0.99999
0.99999
0.99999
0.99999
0.99999
0.99999
0.99999
0.99999
0.999987
0.999964
0.999934
0.999927
0.999927
0.999927
0.999927
0.99993
0.999937
0.999939
0.99994
0.99993
0.999904
0.948987
0.027201
2.14867e-05
1.1603e-06
7.34985e-07
7.34989e-07
7.34996e-07
7.35004e-07
7.35013e-07
7.35024e-07
7.35035e-07
7.35046e-07
8.55204e-07
1.51643e-06
1.16509e-06
7.80976e-07
7.94421e-07
1.04526e-06
1.09238e-06
7.23693e-07
6.94447e-07
6.71557e-07
6.68005e-07
6.68004e-07
6.68005e-07
6.68006e-07
6.68006e-07
7.31878e-07
1.71327e-06
1.61615e-06
6.64447e-07
7.50735e-07
9.45625e-07
9.93912e-07
8.72232e-07
8.30963e-07
7.52228e-07
0.999996
0.999994
0.999994
0.999994
0.999993
0.999993
0.999993
0.999992
0.999992
0.999991
0.99999
0.99999
0.99999
0.99999
0.99999
0.99999
0.99999
0.99999
0.99999
0.99999
0.99999
0.99999
0.99999
0.99999
0.99999
0.99999
0.99999
0.99999
0.99999
0.99999
0.99999
0.99999
0.99999
0.99999
0.99999
0.99999
0.99999
0.99999
0.99999
0.99999
0.99999
0.99999
0.99999
0.99999
0.99999
0.99999
0.999989
0.999983
0.99996
0.999942
0.999933
0.999932
0.999933
0.999938
0.999944
0.999943
0.999941
0.999932
0.999693
0.959932
0.0383922
7.46796e-07
7.3767e-07
7.84703e-07
7.74e-07
7.80069e-07
7.76508e-07
7.71393e-07
7.7752e-07
7.86498e-07
7.87748e-07
7.83404e-07
7.74729e-07
7.77646e-07
7.80534e-07
7.85428e-07
8.0577e-07
8.84124e-07
8.9534e-07
8.48066e-07
7.56493e-07
7.32404e-07
7.35586e-07
7.49898e-07
7.70666e-07
7.50794e-07
7.32675e-07
7.25836e-07
6.75593e-07
6.50724e-07
7.10342e-07
7.10513e-07
7.07007e-07
7.03682e-07
6.49314e-07
5.82323e-07
0.999996
0.999995
0.999994
0.999994
0.999994
0.999993
0.999993
0.999993
0.999992
0.999991
0.99999
0.99999
0.99999
0.99999
0.99999
0.99999
0.99999
0.99999
0.99999
0.99999
0.99999
0.99999
0.99999
0.99999
0.99999
0.99999
0.99999
0.99999
0.99999
0.99999
0.99999
0.99999
0.99999
0.99999
0.99999
0.99999
0.99999
0.99999
0.99999
0.99999
0.99999
0.99999
0.99999
0.99999
0.99999
0.99999
0.999989
0.999986
0.99998
0.999968
0.999953
0.999945
0.999947
0.999949
0.999949
0.999944
0.999939
0.999927
0.999388
0.947541
0.0317433
7.08481e-06
7.3767e-07
7.59261e-07
7.51502e-07
7.53168e-07
7.56003e-07
7.54342e-07
7.49992e-07
7.49001e-07
7.49652e-07
7.48901e-07
7.47763e-07
7.46823e-07
7.47267e-07
7.47294e-07
7.46618e-07
7.47119e-07
7.51536e-07
7.53033e-07
7.51431e-07
7.51523e-07
7.51809e-07
7.56026e-07
7.5602e-07
7.44407e-07
7.04865e-07
6.58817e-07
5.46537e-07
3.59633e-07
2.88751e-07
4.61879e-07
6.3696e-07
6.6428e-07
6.2167e-07
5.39989e-07
0.999996
0.999995
0.999995
0.999994
0.999994
0.999994
0.999993
0.999993
0.999992
0.999991
0.99999
0.99999
0.99999
0.99999
0.99999
0.99999
0.99999
0.99999
0.99999
0.99999
0.99999
0.99999
0.99999
0.99999
0.99999
0.99999
0.99999
0.99999
0.99999
0.99999
0.99999
0.99999
0.99999
0.99999
0.99999
0.99999
0.99999
0.99999
0.99999
0.99999
0.99999
0.99999
0.99999
0.99999
0.99999
0.99999
0.999989
0.999986
0.999981
0.999975
0.999967
0.999961
0.999957
0.999952
0.999948
0.999942
0.999938
0.999931
0.999199
0.950298
0.0356822
0.000109893
7.37671e-07
7.57861e-07
7.53371e-07
7.4757e-07
7.4621e-07
7.45517e-07
7.43304e-07
7.4079e-07
7.40604e-07
7.41238e-07
7.42524e-07
7.44516e-07
7.48048e-07
7.51336e-07
7.51e-07
7.50994e-07
7.50356e-07
7.44288e-07
7.40966e-07
7.40966e-07
7.4133e-07
7.42929e-07
7.49972e-07
7.61048e-07
7.39639e-07
7.02802e-07
6.16931e-07
4.15524e-07
2.75317e-07
3.05292e-07
4.85421e-07
5.61044e-07
5.4019e-07
4.4149e-07
0.999996
0.999996
0.999995
0.999995
0.999995
0.999994
0.999993
0.999993
0.999992
0.999991
0.99999
0.99999
0.99999
0.99999
0.99999
0.99999
0.99999
0.99999
0.99999
0.99999
0.99999
0.99999
0.99999
0.99999
0.99999
0.99999
0.99999
0.99999
0.99999
0.99999
0.99999
0.99999
0.99999
0.99999
0.99999
0.99999
0.99999
0.99999
0.99999
0.99999
0.99999
0.99999
0.99999
0.99999
0.99999
0.99999
0.999989
0.999986
0.99998
0.999973
0.999966
0.999958
0.999952
0.999944
0.999941
0.999934
0.999931
0.999929
0.998754
0.936592
0.0418917
0.000299068
1.13721e-06
7.38351e-07
7.42588e-07
7.42001e-07
7.42374e-07
7.44009e-07
7.4571e-07
7.4608e-07
7.46055e-07
7.45593e-07
7.44387e-07
7.44276e-07
7.44811e-07
7.46008e-07
7.4839e-07
7.527e-07
7.58792e-07
7.59867e-07
7.57828e-07
7.56199e-07
7.56356e-07
7.58757e-07
7.6568e-07
7.67847e-07
7.49345e-07
7.2318e-07
6.86824e-07
5.8505e-07
4.40585e-07
2.77577e-07
2.81753e-07
3.35e-07
3.37283e-07
2.72178e-07
0.999991
0.999991
0.999991
0.999991
0.999991
0.999991
0.999991
0.99999
0.99999
0.99999
0.99999
0.99999
0.99999
0.99999
0.99999
0.99999
0.99999
0.99999
0.99999
0.99999
0.99999
0.99999
0.99999
0.99999
0.99999
0.99999
0.99999
0.99999
0.99999
0.99999
0.99999
0.99999
0.99999
0.99999
0.99999
0.99999
0.99999
0.99999
0.99999
0.99999
0.99999
0.99999
0.99999
0.99999
0.99999
0.99999
0.999989
0.999983
0.999971
0.999967
0.999966
0.999961
0.999958
0.999953
0.999948
0.999944
0.999939
0.99991
0.999476
0.948684
0.0409198
6.64448e-05
6.42399e-07
6.55218e-07
6.54049e-07
6.54165e-07
6.56693e-07
6.61729e-07
6.67488e-07
6.75736e-07
6.7848e-07
6.79919e-07
6.83177e-07
6.88723e-07
6.98261e-07
7.10236e-07
7.1469e-07
7.28978e-07
7.43268e-07
7.52032e-07
7.55021e-07
7.52943e-07
7.5024e-07
7.49408e-07
7.48135e-07
7.5038e-07
7.50987e-07
7.4517e-07
6.7311e-07
5.58045e-07
5.60235e-07
5.70677e-07
5.57047e-07
5.35e-07
5.17521e-07
5.11242e-07
0.999991
0.999991
0.999991
0.999991
0.999991
0.999991
0.999991
0.999991
0.999991
0.999991
0.99999
0.99999
0.99999
0.99999
0.99999
0.99999
0.99999
0.99999
0.99999
0.99999
0.99999
0.99999
0.99999
0.99999
0.99999
0.99999
0.99999
0.99999
0.99999
0.99999
0.99999
0.99999
0.99999
0.99999
0.99999
0.99999
0.99999
0.99999
0.99999
0.99999
0.99999
0.99999
0.99999
0.99999
0.99999
0.99999
0.999987
0.99998
0.999973
0.99997
0.999968
0.99996
0.99995
0.999943
0.999938
0.999937
0.999934
0.999911
0.999725
0.900542
0.0163616
1.70425e-05
6.42397e-07
6.56571e-07
6.50191e-07
6.67161e-07
7.03007e-07
7.2914e-07
7.6838e-07
7.68905e-07
7.64578e-07
7.05209e-07
6.76925e-07
6.76696e-07
6.91627e-07
7.39817e-07
7.63669e-07
7.77251e-07
7.81512e-07
7.80246e-07
7.72282e-07
7.56084e-07
7.44199e-07
7.33702e-07
7.26411e-07
7.21608e-07
7.19505e-07
7.24911e-07
7.3335e-07
7.07008e-07
6.69388e-07
6.68768e-07
6.42441e-07
6.21538e-07
6.52503e-07
5.57368e-07
0.999991
0.999991
0.999991
0.999991
0.999991
0.999991
0.999991
0.999991
0.999991
0.999991
0.99999
0.99999
0.99999
0.99999
0.99999
0.99999
0.99999
0.99999
0.99999
0.99999
0.99999
0.99999
0.99999
0.99999
0.99999
0.99999
0.99999
0.99999
0.99999
0.99999
0.99999
0.99999
0.99999
0.99999
0.99999
0.99999
0.99999
0.99999
0.99999
0.99999
0.99999
0.99999
0.99999
0.99999
0.99999
0.99999
0.999989
0.999985
0.999979
0.999977
0.99997
0.999951
0.999939
0.999934
0.999931
0.999932
0.999933
0.999917
0.999695
0.939216
0.0241501
1.33812e-06
1.06094e-06
6.87785e-07
1.18003e-06
1.75951e-06
8.57817e-07
7.13793e-07
7.64377e-07
7.47752e-07
1.04226e-06
1.37139e-06
7.10839e-07
6.64686e-07
7.47158e-07
8.35968e-07
8.88202e-07
1.10962e-06
1.13636e-06
8.65953e-07
7.9211e-07
8.31052e-07
7.79943e-07
7.59225e-07
7.2151e-07
7.15723e-07
7.06686e-07
7.10812e-07
7.18117e-07
7.23504e-07
7.25992e-07
7.21783e-07
7.11812e-07
7.27739e-07
7.26009e-07
6.44978e-07
0.999992
0.999991
0.999991
0.999991
0.999991
0.999991
0.999991
0.999991
0.999991
0.999991
0.999991
0.99999
0.99999
0.99999
0.99999
0.99999
0.99999
0.99999
0.99999
0.99999
0.99999
0.99999
0.99999
0.99999
0.99999
0.99999
0.99999
0.99999
0.99999
0.99999
0.99999
0.99999
0.99999
0.99999
0.99999
0.99999
0.99999
0.99999
0.99999
0.99999
0.99999
0.99999
0.99999
0.99999
0.99999
0.99999
0.99999
0.999989
0.999988
0.999985
0.999966
0.999938
0.999931
0.999931
0.99993
0.99993
0.999937
0.999929
0.999817
0.913287
0.00668785
5.61576e-05
5.2199e-05
4.2508e-05
4.92494e-05
5.00857e-05
4.5714e-05
4.62558e-05
3.85923e-05
2.99754e-05
2.49751e-05
2.51077e-05
2.75762e-05
3.03973e-05
3.18298e-05
3.24306e-05
2.67538e-05
1.95016e-05
1.1382e-05
5.63015e-06
2.60524e-06
1.23761e-06
9.32311e-07
9.25734e-07
7.0528e-07
7.04698e-07
6.85605e-07
6.79482e-07
7.05923e-07
7.19388e-07
7.23688e-07
7.40319e-07
7.49665e-07
7.58722e-07
7.47474e-07
6.454e-07
0.999992
0.999992
0.999991
0.999991
0.999991
0.999991
0.999991
0.99999
0.999991
0.999991
0.999991
0.99999
0.99999
0.99999
0.99999
0.99999
0.99999
0.99999
0.99999
0.99999
0.99999
0.99999
0.99999
0.99999
0.99999
0.99999
0.99999
0.99999
0.99999
0.99999
0.99999
0.99999
0.99999
0.99999
0.99999
0.99999
0.99999
0.99999
0.99999
0.99999
0.99999
0.99999
0.99999
0.99999
0.99999
0.99999
0.999989
0.999989
0.999989
0.999983
0.99995
0.999927
0.999927
0.99993
0.999926
0.999929
0.999932
0.999924
0.9999
0.870298
0.00675955
0.00120981
0.0012393
0.00123423
0.00145015
0.00157783
0.0016929
0.00173873
0.00174015
0.00166816
0.00162269
0.00161102
0.00164481
0.00166438
0.00159085
0.00145498
0.00122914
0.000965684
0.000694149
0.000464227
0.00028033
0.000149877
7.53371e-05
3.38514e-05
1.30405e-05
4.30628e-06
1.83349e-06
1.23922e-06
1.20599e-06
1.09841e-06
7.61107e-07
6.65029e-07
7.10072e-07
7.58528e-07
7.38683e-07
6.21521e-07
0.999992
0.999992
0.999992
0.999992
0.999991
0.999991
0.999991
0.999991
0.999991
0.999991
0.999991
0.99999
0.99999
0.99999
0.99999
0.99999
0.99999
0.99999
0.99999
0.99999
0.99999
0.99999
0.99999
0.99999
0.99999
0.99999
0.99999
0.99999
0.99999
0.99999
0.99999
0.99999
0.99999
0.99999
0.99999
0.99999
0.99999
0.99999
0.99999
0.99999
0.99999
0.99999
0.99999
0.99999
0.99999
0.99999
0.999989
0.999988
0.999984
0.999969
0.999935
0.999918
0.999914
0.999917
0.99992
0.99992
0.999912
0.999892
0.999836
0.804072
0.0152804
0.00665212
0.00743261
0.0079756
0.00890651
0.00977604
0.0103947
0.0106776
0.0107854
0.0108405
0.0109003
0.0110115
0.0111224
0.01117
0.0108033
0.0101108
0.00910325
0.00815507
0.0072914
0.00648775
0.00565165
0.00465469
0.00366604
0.0027229
0.00186004
0.00119042
0.000733215
0.000438813
0.00026364
0.000170968
9.71034e-05
3.38797e-05
8.11941e-06
1.03916e-06
5.00682e-07
5.0073e-07
0.999993
0.999994
0.999992
0.999992
0.999992
0.999992
0.999991
0.999991
0.999991
0.999991
0.999991
0.99999
0.99999
0.99999
0.99999
0.99999
0.99999
0.99999
0.99999
0.99999
0.99999
0.99999
0.99999
0.99999
0.99999
0.99999
0.99999
0.99999
0.99999
0.99999
0.99999
0.99999
0.99999
0.99999
0.99999
0.99999
0.99999
0.99999
0.99999
0.99999
0.99999
0.99999
0.99999
0.99999
0.99999
0.99999
0.999989
0.999984
0.99997
0.999953
0.99993
0.999911
0.999906
0.999907
0.99991
0.99991
0.999905
0.999894
0.999957
0.624688
0.0225855
0.0169443
0.018081
0.0188146
0.019432
0.019966
0.0202836
0.0205104
0.0207073
0.0209904
0.021347
0.0217591
0.0221363
0.0223875
0.0224652
0.0220526
0.0216718
0.0215189
0.0216524
0.0221019
0.0223609
0.0221487
0.0215203
0.0207778
0.0195306
0.017901
0.0161315
0.014417
0.0128509
0.0112066
0.00976153
0.00780116
0.00509142
0.00233251
0.000211506
0.000817406
0.999993
0.999994
0.999994
0.999994
0.999993
0.999992
0.999992
0.999991
0.999991
0.999991
0.99999
0.99999
0.99999
0.99999
0.99999
0.99999
0.99999
0.99999
0.99999
0.99999
0.99999
0.99999
0.99999
0.99999
0.99999
0.99999
0.99999
0.99999
0.99999
0.99999
0.99999
0.99999
0.99999
0.99999
0.99999
0.99999
0.99999
0.99999
0.99999
0.99999
0.99999
0.99999
0.99999
0.99999
0.99999
0.99999
0.999987
0.99997
0.99995
0.99994
0.999926
0.999908
0.999904
0.999904
0.999907
0.999911
0.999918
0.999927
0.999957
0.630153
0.0265046
0.0198826
0.020573
0.0208542
0.0208639
0.0209637
0.0210789
0.0216909
0.0224544
0.0231671
0.0239393
0.0248051
0.0255796
0.0262432
0.0267786
0.027161
0.0275188
0.0279144
0.0285692
0.0296066
0.0310782
0.0327414
0.0348948
0.0374149
0.0401444
0.0430036
0.0461624
0.0491896
0.0523462
0.0563042
0.0609214
0.0703827
0.0845002
0.108246
0.162324
0.358207
0.999994
0.999994
0.999994
0.999994
0.999994
0.999993
0.999992
0.999991
0.999991
0.999991
0.99999
0.99999
0.99999
0.99999
0.99999
0.99999
0.99999
0.99999
0.99999
0.99999
0.99999
0.99999
0.99999
0.99999
0.99999
0.99999
0.99999
0.99999
0.99999
0.99999
0.99999
0.99999
0.99999
0.99999
0.99999
0.99999
0.99999
0.99999
0.99999
0.99999
0.99999
0.99999
0.99999
0.99999
0.99999
0.999989
0.999983
0.999949
0.999931
0.999933
0.999922
0.999909
0.999906
0.999908
0.99991
0.999911
0.999913
0.999929
0.999957
0.792941
0.0259158
0.0089645
0.00823972
0.00647653
0.00587912
0.00565395
0.00624214
0.00670747
0.0071755
0.00748997
0.00763494
0.00776275
0.00795397
0.00821476
0.00848868
0.00870615
0.0088096
0.00887138
0.00885802
0.00886964
0.00910299
0.00989147
0.0111393
0.0126426
0.014583
0.01695
0.0199599
0.0236752
0.0280235
0.0328291
0.0379492
0.042826
0.0489967
0.0553217
0.0592014
0.0522991
0.999996
0.999994
0.999994
0.999995
0.999995
0.999994
0.999993
0.999992
0.999991
0.999991
0.99999
0.99999
0.99999
0.99999
0.99999
0.99999
0.99999
0.99999
0.99999
0.99999
0.99999
0.99999
0.99999
0.99999
0.99999
0.99999
0.99999
0.99999
0.99999
0.99999
0.99999
0.99999
0.99999
0.99999
0.99999
0.99999
0.99999
0.99999
0.99999
0.99999
0.99999
0.99999
0.99999
0.99999
0.99999
0.999989
0.999984
0.99995
0.999929
0.999928
0.999923
0.999912
0.999912
0.999915
0.999919
0.99992
0.999904
0.999894
0.999938
0.831703
0.0112965
0.00188154
0.00157412
0.00110275
0.00106952
0.0010384
0.00120128
0.00131696
0.00142306
0.00146093
0.00146848
0.00146851
0.00147626
0.00147537
0.00141768
0.00134527
0.00123956
0.00118927
0.00117642
0.00118479
0.00117251
0.00132661
0.00150374
0.00174582
0.00201574
0.00231265
0.00267783
0.00312612
0.0036505
0.00426377
0.00491258
0.00551226
0.0056999
0.0044292
0.00245
0.00116338
0.999996
0.999995
0.999995
0.999996
0.999996
0.999995
0.999994
0.999992
0.999991
0.999991
0.99999
0.99999
0.99999
0.99999
0.99999
0.99999
0.99999
0.99999
0.99999
0.99999
0.99999
0.99999
0.99999
0.99999
0.99999
0.99999
0.99999
0.99999
0.99999
0.99999
0.99999
0.99999
0.99999
0.99999
0.99999
0.99999
0.99999
0.99999
0.99999
0.99999
0.99999
0.99999
0.99999
0.99999
0.99999
0.99999
0.999988
0.999976
0.99994
0.999929
0.999924
0.999915
0.999916
0.999919
0.99992
0.999923
0.999925
0.999892
0.999893
0.922248
0.0122769
0.000193734
0.000176043
0.000106153
0.000101047
9.49611e-05
0.000106386
0.000117853
0.000129537
0.000133015
0.000132966
0.000122384
0.000109311
9.48807e-05
8.45088e-05
7.57934e-05
6.73712e-05
6.11042e-05
5.68112e-05
5.27477e-05
5.07055e-05
5.2396e-05
6.11242e-05
7.14293e-05
7.94292e-05
8.62093e-05
9.16036e-05
9.41943e-05
8.37004e-05
6.76842e-05
5.95721e-05
5.54631e-05
5.51519e-05
2.44638e-05
7.96709e-06
3.2822e-06
0.999996
0.999995
0.999995
0.999996
0.999996
0.999995
0.999994
0.999992
0.999991
0.999991
0.99999
0.99999
0.99999
0.99999
0.99999
0.99999
0.99999
0.99999
0.99999
0.99999
0.99999
0.99999
0.99999
0.99999
0.99999
0.99999
0.99999
0.99999
0.99999
0.99999
0.99999
0.99999
0.99999
0.99999
0.99999
0.99999
0.99999
0.99999
0.99999
0.99999
0.99999
0.99999
0.99999
0.99999
0.99999
0.99999
0.999988
0.999986
0.999978
0.999952
0.999936
0.999923
0.99992
0.99992
0.999925
0.999932
0.999936
0.999907
0.999846
0.946121
0.0101072
2.64267e-06
8.25727e-06
1.95362e-06
1.76577e-06
2.7059e-06
3.19373e-06
2.77923e-06
2.67343e-06
2.3105e-06
1.41132e-06
8.11213e-07
8.18264e-07
8.12322e-07
8.06711e-07
8.91155e-07
9.72281e-07
9.15944e-07
1.10153e-06
1.46712e-06
1.09167e-06
6.70524e-07
6.973e-07
7.19826e-07
7.61189e-07
7.87236e-07
8.15068e-07
8.52009e-07
8.48126e-07
7.637e-07
8.01566e-07
7.44557e-07
7.36815e-07
6.85735e-07
4.14105e-07
3.53386e-07
0.999996
0.999996
0.999996
0.999996
0.999996
0.999995
0.999994
0.999992
0.999991
0.99999
0.99999
0.99999
0.99999
0.99999
0.99999
0.99999
0.99999
0.99999
0.99999
0.99999
0.99999
0.99999
0.99999
0.99999
0.99999
0.99999
0.99999
0.99999
0.99999
0.99999
0.99999
0.99999
0.99999
0.99999
0.99999
0.99999
0.99999
0.99999
0.99999
0.99999
0.99999
0.99999
0.99999
0.99999
0.99999
0.99999
0.999988
0.999985
0.999982
0.999978
0.999966
0.999953
0.999944
0.999944
0.999946
0.999944
0.999941
0.999906
0.999709
0.965944
0.032223
7.40275e-07
1.28802e-06
8.00211e-07
8.93141e-07
8.88111e-07
8.41286e-07
8.83976e-07
9.30396e-07
9.32371e-07
9.03035e-07
8.59135e-07
8.23202e-07
7.98317e-07
7.98666e-07
7.98036e-07
8.0351e-07
8.40207e-07
8.57839e-07
8.4114e-07
7.94578e-07
7.48537e-07
7.35355e-07
7.35254e-07
7.39122e-07
7.38528e-07
7.3802e-07
7.33891e-07
6.56215e-07
4.68269e-07
4.84199e-07
6.01423e-07
5.86989e-07
4.46298e-07
2.61182e-07
2.47057e-07
0.999996
0.999996
0.999996
0.999996
0.999995
0.999994
0.999993
0.999992
0.999991
0.99999
0.99999
0.99999
0.99999
0.99999
0.99999
0.99999
0.99999
0.99999
0.99999
0.99999
0.99999
0.99999
0.99999
0.99999
0.99999
0.99999
0.99999
0.99999
0.99999
0.99999
0.99999
0.99999
0.99999
0.99999
0.99999
0.99999
0.99999
0.99999
0.99999
0.99999
0.99999
0.99999
0.99999
0.99999
0.99999
0.99999
0.999988
0.999985
0.99998
0.999974
0.999969
0.999964
0.999959
0.999952
0.999948
0.999943
0.999935
0.999901
0.99944
0.96113
0.0310594
5.72023e-05
7.37671e-07
7.56748e-07
7.51929e-07
7.72803e-07
7.80856e-07
7.77499e-07
7.75433e-07
7.78454e-07
7.7493e-07
7.68298e-07
7.6128e-07
7.53326e-07
7.49157e-07
7.46458e-07
7.46455e-07
7.47016e-07
7.48685e-07
7.48878e-07
7.47884e-07
7.47823e-07
7.48283e-07
7.46642e-07
7.50028e-07
7.47844e-07
7.39477e-07
7.32366e-07
6.65341e-07
4.27092e-07
2.88589e-07
3.59919e-07
5.07322e-07
5.15073e-07
4.50357e-07
3.16051e-07
0.999996
0.999996
0.999995
0.999995
0.999994
0.999993
0.999993
0.999992
0.999991
0.99999
0.99999
0.99999
0.99999
0.99999
0.99999
0.99999
0.99999
0.99999
0.99999
0.99999
0.99999
0.99999
0.99999
0.99999
0.99999
0.99999
0.99999
0.99999
0.99999
0.99999
0.99999
0.99999
0.99999
0.99999
0.99999
0.99999
0.99999
0.99999
0.99999
0.99999
0.99999
0.99999
0.99999
0.99999
0.99999
0.99999
0.999989
0.999986
0.999981
0.999975
0.999967
0.999958
0.999952
0.999945
0.999944
0.999937
0.999933
0.999904
0.999459
0.942344
0.0415789
7.38e-07
7.37963e-07
7.57833e-07
7.51199e-07
7.48155e-07
7.52284e-07
7.58255e-07
7.59048e-07
7.57096e-07
7.52867e-07
7.51937e-07
7.5189e-07
7.5068e-07
7.50725e-07
7.48599e-07
7.47112e-07
7.48104e-07
7.50334e-07
7.50678e-07
7.49087e-07
7.44522e-07
7.41396e-07
7.41362e-07
7.42597e-07
7.48718e-07
7.4445e-07
7.37921e-07
6.91822e-07
5.39146e-07
3.2149e-07
2.9671e-07
3.66528e-07
4.28376e-07
4.00126e-07
2.92152e-07
0.999996
0.999996
0.999995
0.999995
0.999994
0.999993
0.999992
0.999992
0.999991
0.99999
0.99999
0.99999
0.99999
0.99999
0.99999
0.99999
0.99999
0.99999
0.99999
0.99999
0.99999
0.99999
0.99999
0.99999
0.99999
0.99999
0.99999
0.99999
0.99999
0.99999
0.99999
0.99999
0.99999
0.99999
0.99999
0.99999
0.99999
0.99999
0.99999
0.99999
0.99999
0.99999
0.99999
0.99999
0.99999
0.99999
0.999989
0.999986
0.99998
0.999973
0.999964
0.999955
0.999948
0.999941
0.999939
0.99993
0.999932
0.999895
0.999301
0.937234
0.025159
3.66017e-05
7.37682e-07
7.50735e-07
7.48186e-07
7.47127e-07
7.47987e-07
7.4903e-07
7.49745e-07
7.49681e-07
7.4727e-07
7.41088e-07
7.39121e-07
7.39121e-07
7.40026e-07
7.42214e-07
7.44936e-07
7.48219e-07
7.50688e-07
7.51006e-07
7.51391e-07
7.51503e-07
7.52296e-07
7.51318e-07
7.54125e-07
7.57292e-07
7.50434e-07
7.36301e-07
6.96086e-07
6.23323e-07
4.84653e-07
2.98561e-07
2.57373e-07