/*--------------------------------*- C++ -*----------------------------------*\
| =========                 |                                                 |
| \\      /  F ield         | OpenFOAM: The Open Source CFD Toolbox           |
|  \\    /   O peration     | Version:  2.3.0                                 |
|   \\  /    A nd           | Web:      www.OpenFOAM.org                      |
|    \\/     M anipulation  |                                                 |
\*---------------------------------------------------------------------------*/
FoamFile
{
    version     2.0;
    format      ascii;
    class       volScalarField;
    location    "11";
    object      dsauterMean;
}
// * * * * * * * * * * * * * * * * * * * * * * * * * * * * * * * * * * * * * //

dimensions      [0 0 0 0 0 0 0];

internalField   nonuniform List<scalar> 
6144
(
0.00833335
0.00833335
0.00833335
0.00833335
0.00833335
0.00833335
0.00833335
0.00833335
0.00833335
0.00833335
0.00833335
0.00833335
0.00833335
0.00833335
0.00833335
0.00833335
0.00833335
0.00833335
0.00833335
0.00833335
0.00833335
0.00833335
0.00833335
0.00833335
0.00833335
0.00833335
0.00833335
0.00833335
0.00833335
0.00833335
0.00833335
0.00833335
0.00833335
0.00833335
0.00833335
0.00833335
0.00833335
0.00833335
0.00833335
0.00833335
0.00833335
0.00833335
0.00833335
0.00833335
0.00833335
0.00833335
0.00833335
0.00833335
0.00833335
0.00833335
0.00833335
0.00833335
0.00833335
0.00833335
0.00833335
0.00833335
0.00833335
0.00833328
0.00832526
0.00834417
0.00833856
0.00833291
0.00281305
0.000699026
0.000680071
0.000665109
0.000650137
0.000627689
0.000612709
0.000594021
0.000579036
0.000560319
0.000545353
0.00053038
0.000515416
0.000496695
0.000481733
0.000466753
0.000451789
0.000437016
0.000420752
0.000409343
0.000389137
0.000381815
0.000364696
0.000354483
0.000339336
0.000328653
0.000316833
0.000309576
0.000302089
0.000294606
0.000290868
0.00028712
0.000290838
0.000287184
0.00833335
0.00833335
0.00833335
0.00833335
0.00833335
0.00833335
0.00833335
0.00833335
0.00833335
0.00833335
0.00833335
0.00833335
0.00833335
0.00833335
0.00833335
0.00833335
0.00833335
0.00833335
0.00833335
0.00833335
0.00833335
0.00833335
0.00833335
0.00833335
0.00833335
0.00833335
0.00833335
0.00833335
0.00833335
0.00833335
0.00833335
0.00833335
0.00833335
0.00833335
0.00833335
0.00833335
0.00833335
0.00833335
0.00833335
0.00833335
0.00833335
0.00833335
0.00833335
0.00833335
0.00833335
0.00833335
0.00833335
0.00833335
0.00833335
0.00833335
0.00833335
0.00833335
0.00833335
0.00833335
0.00833335
0.00833335
0.00833335
0.00833315
0.0083251
0.00834319
0.00839054
0.00832962
0.000897138
0.000702551
0.000683557
0.000668166
0.000650044
0.000631425
0.00061654
0.000598718
0.000583059
0.000563542
0.000548981
0.000530305
0.000512845
0.000496227
0.000482327
0.000468551
0.000450184
0.000436657
0.00042278
0.00040659
0.000392989
0.000380728
0.000365771
0.00035477
0.000343258
0.000332031
0.00032081
0.000309576
0.000302093
0.000298349
0.000289945
0.000291215
0.0002909
0.000290937
0.00833335
0.00833335
0.00833335
0.00833335
0.00833335
0.00833335
0.00833335
0.00833335
0.00833335
0.00833335
0.00833335
0.00833335
0.00833335
0.00833335
0.00833335
0.00833335
0.00833335
0.00833335
0.00833335
0.00833335
0.00833335
0.00833335
0.00833335
0.00833335
0.00833335
0.00833335
0.00833335
0.00833335
0.00833335
0.00833335
0.00833335
0.00833335
0.00833335
0.00833335
0.00833335
0.00833335
0.00833335
0.00833335
0.00833335
0.00833335
0.00833335
0.00833335
0.00833335
0.00833335
0.00833335
0.00833335
0.00833335
0.00833335
0.00833335
0.00833335
0.00833335
0.00833335
0.00833335
0.00833335
0.00833335
0.00833335
0.00833335
0.00833335
0.00833371
0.00835931
0.00771255
0.00584815
0.00100566
0.000703808
0.000679531
0.000665112
0.000645966
0.00062837
0.000612722
0.000588074
0.00057787
0.000556639
0.000545789
0.00052758
0.000518134
0.000497542
0.000482026
0.000467698
0.000449349
0.00043857
0.00042314
0.000406878
0.000395654
0.000380667
0.000365459
0.000354494
0.000343258
0.000332034
0.000320805
0.000309576
0.000302553
0.000297976
0.000290931
0.000289097
0.000295591
0.000291199
0.00833335
0.00833335
0.00833335
0.00833335
0.00833335
0.00833335
0.00833335
0.00833335
0.00833335
0.00833335
0.00833335
0.00833335
0.00833335
0.00833335
0.00833335
0.00833335
0.00833335
0.00833335
0.00833335
0.00833335
0.00833335
0.00833335
0.00833335
0.00833335
0.00833335
0.00833335
0.00833335
0.00833335
0.00833335
0.00833335
0.00833335
0.00833335
0.00833335
0.00833335
0.00833335
0.00833335
0.00833335
0.00833335
0.00833335
0.00833335
0.00833335
0.00833335
0.00833335
0.00833335
0.00833335
0.00833335
0.00833335
0.00833335
0.00833335
0.00833335
0.00833335
0.00833335
0.00833335
0.00833335
0.00833335
0.00833335
0.00833335
0.00833335
0.00833047
0.00833638
0.00834928
0.00337526
0.00155955
0.000964609
0.000919573
0.00083435
0.000840105
0.000796095
0.000780392
0.000744867
0.000724993
0.000713734
0.000676334
0.000620203
0.000556575
0.000507933
0.000481725
0.000466729
0.000450029
0.000437329
0.000421895
0.000405078
0.000392957
0.000381677
0.000364884
0.000354468
0.000343262
0.000332597
0.00031922
0.000309576
0.000302108
0.000297079
0.000292318
0.000290853
0.000290862
0.000294606
0.00833335
0.00833335
0.00833335
0.00833335
0.00833335
0.00833335
0.00833335
0.00833335
0.00833335
0.00833335
0.00833335
0.00833335
0.00833335
0.00833335
0.00833335
0.00833335
0.00833335
0.00833335
0.00833335
0.00833335
0.00833335
0.00833335
0.00833335
0.00833335
0.00833335
0.00833335
0.00833335
0.00833335
0.00833335
0.00833335
0.00833335
0.00833335
0.00833335
0.00833335
0.00833335
0.00833335
0.00833335
0.00833335
0.00833335
0.00833335
0.00833335
0.00833335
0.00833335
0.00833335
0.00833335
0.00833335
0.00833335
0.00833335
0.00833335
0.00833335
0.00833335
0.00833335
0.00833335
0.00833335
0.00833335
0.00833335
0.00833335
0.00833335
0.00833331
0.00835355
0.00737365
0.00832395
0.00822095
0.00823328
0.0081984
0.00802585
0.00805014
0.00792087
0.00790021
0.00783457
0.0078051
0.00772543
0.00756126
0.0074113
0.00725283
0.00690468
0.0062559
0.00511047
0.00394605
0.00281869
0.00170703
0.000976603
0.000615786
0.00042559
0.000369455
0.000351771
0.000340588
0.000329262
0.000317385
0.00030905
0.000302091
0.000294606
0.000287108
0.000287103
0.000290883
0.000290864
0.00833335
0.00833335
0.00833335
0.00833335
0.00833335
0.00833335
0.00833335
0.00833335
0.00833335
0.00833335
0.00833335
0.00833335
0.00833335
0.00833335
0.00833335
0.00833335
0.00833335
0.00833335
0.00833335
0.00833335
0.00833335
0.00833335
0.00833335
0.00833335
0.00833335
0.00833335
0.00833335
0.00833335
0.00833335
0.00833335
0.00833335
0.00833335
0.00833335
0.00833335
0.00833335
0.00833335
0.00833335
0.00833335
0.00833335
0.00833335
0.00833335
0.00833335
0.00833335
0.00833335
0.00833335
0.00833335
0.00833335
0.00833335
0.00833335
0.00833335
0.00833335
0.00833335
0.00833335
0.00833335
0.00833335
0.00833335
0.00833335
0.00833335
0.00833335
0.00834541
0.00726766
0.00809134
0.00801369
0.00825796
0.0082992
0.00826269
0.00833688
0.00812695
0.00825373
0.00792737
0.00841978
0.00787838
0.0082612
0.00825596
0.0082899
0.00803758
0.00817452
0.00814827
0.00785592
0.00809885
0.00795451
0.00790249
0.00776218
0.00764765
0.00731171
0.00525698
0.00445757
0.00285115
0.000816061
0.000328567
0.000306513
0.000293626
0.000291029
0.00028379
0.000283271
0.000291158
0.00833335
0.00833335
0.00833335
0.00833335
0.00833335
0.00833335
0.00833335
0.00833335
0.00833335
0.00833335
0.00833335
0.00833335
0.00833335
0.00833335
0.00833335
0.00833335
0.00833335
0.00833335
0.00833335
0.00833335
0.00833335
0.00833335
0.00833335
0.00833335
0.00833335
0.00833335
0.00833335
0.00833335
0.00833335
0.00833335
0.00833335
0.00833335
0.00833335
0.00833335
0.00833335
0.00833335
0.00833335
0.00833335
0.00833335
0.00833335
0.00833335
0.00833335
0.00833335
0.00833335
0.00833335
0.00833335
0.00833335
0.00833335
0.00833335
0.00833335
0.00833335
0.00833335
0.00833335
0.00833335
0.00833335
0.00833335
0.00833335
0.00833334
0.00833356
0.00833326
0.00833169
0.00910038
0.00620079
0.00834644
0.0081806
0.00792411
0.00824997
0.00717448
0.00791521
0.00769566
0.0079857
0.00773405
0.00814718
0.00785197
0.0081464
0.00796869
0.00868802
0.00712336
0.00819978
0.00839971
0.00789236
0.00840398
0.00829313
0.00826707
0.00823708
0.00777814
0.00802496
0.00821959
0.00813609
0.00807006
0.00804212
0.00808722
0.00757292
0.00673022
0.0046694
0.0034875
0.00833335
0.00833335
0.00833335
0.00833335
0.00833335
0.00833335
0.00833335
0.00833335
0.00833335
0.00833335
0.00833335
0.00833335
0.00833335
0.00833335
0.00833335
0.00833335
0.00833335
0.00833335
0.00833335
0.00833335
0.00833335
0.00833335
0.00833335
0.00833335
0.00833335
0.00833335
0.00833335
0.00833335
0.00833335
0.00833335
0.00833335
0.00833335
0.00833335
0.00833335
0.00833335
0.00833335
0.00833335
0.00833335
0.00833335
0.00833335
0.00833335
0.00833335
0.00833335
0.00833335
0.00833335
0.00833335
0.00833335
0.00833335
0.00833335
0.00833335
0.00833335
0.00833335
0.00833335
0.00833335
0.00833335
0.00833335
0.00833335
0.00833336
0.00833332
0.00833348
0.00831288
0.00836918
0.0083258
0.0083135
0.00833616
0.00822198
0.00802852
0.00882305
0.0081761
0.00840341
0.00817418
0.00831896
0.00832848
0.00833265
0.00842649
0.00844356
0.00790942
0.00831974
0.00832478
0.00829698
0.00831247
0.00829609
0.0082642
0.00824388
0.00827967
0.00817456
0.00825334
0.00801766
0.00797824
0.00799143
0.00746601
0.00681783
0.00678294
0.00604215
0.00644933
0.0080342
0.00833335
0.00833335
0.00833335
0.00833335
0.00833335
0.00833335
0.00833335
0.00833335
0.00833335
0.00833335
0.00833335
0.00833335
0.00833335
0.00833335
0.00833335
0.00833335
0.00833335
0.00833335
0.00833335
0.00833335
0.00833335
0.00833335
0.00833335
0.00833335
0.00833335
0.00833335
0.00833335
0.00833335
0.00833335
0.00833335
0.00833335
0.00833335
0.00833335
0.00833335
0.00833335
0.00833335
0.00833335
0.00833335
0.00833335
0.00833335
0.00833335
0.00833335
0.00833335
0.00833335
0.00833335
0.00833335
0.00833335
0.00833335
0.00833335
0.00833335
0.00833335
0.00833335
0.00833335
0.00833335
0.00833335
0.00833335
0.00833336
0.00833332
0.00833365
0.00833487
0.00812666
0.00765864
0.00767331
0.00789503
0.00815407
0.00738724
0.00776881
0.00810709
0.00815905
0.00796054
0.00787792
0.00828563
0.00777024
0.00856417
0.00774079
0.00833111
0.00831981
0.00832948
0.00812011
0.00803588
0.00849094
0.00794609
0.00805561
0.00823703
0.00818055
0.00826727
0.00817953
0.00839321
0.00796438
0.00831657
0.00812217
0.00802171
0.00820207
0.00827944
0.00671123
0.00508544
0.00833335
0.00833335
0.00833335
0.00833335
0.00833335
0.00833335
0.00833335
0.00833335
0.00833335
0.00833335
0.00833335
0.00833335
0.00833335
0.00833335
0.00833335
0.00833335
0.00833335
0.00833335
0.00833335
0.00833335
0.00833335
0.00833335
0.00833335
0.00833335
0.00833335
0.00833335
0.00833335
0.00833335
0.00833335
0.00833335
0.00833335
0.00833335
0.00833335
0.00833335
0.00833335
0.00833335
0.00833335
0.00833335
0.00833335
0.00833335
0.00833335
0.00833335
0.00833335
0.00833335
0.00833335
0.00833335
0.00833335
0.00833335
0.00833335
0.00833335
0.00833335
0.00833335
0.00833335
0.00833335
0.00833335
0.00833335
0.00833335
0.00833336
0.00833316
0.00833456
0.00830385
0.00826465
0.00770563
0.00815971
0.00816808
0.00680616
0.00636924
0.00599339
0.00562931
0.00538772
0.00510536
0.00484049
0.00440273
0.00411705
0.00357434
0.00272015
0.00227349
0.00213543
0.00203967
0.00195493
0.00188958
0.00170568
0.00158775
0.00147117
0.0014669
0.00159171
0.00148621
0.00138171
0.00128056
0.00119127
0.000993293
0.000781871
0.000774146
0.000788607
0.00081503
0.000806994
0.00833335
0.00833335
0.00833335
0.00833335
0.00833335
0.00833335
0.00833335
0.00833335
0.00833335
0.00833335
0.00833335
0.00833335
0.00833335
0.00833335
0.00833335
0.00833335
0.00833335
0.00833335
0.00833335
0.00833335
0.00833335
0.00833335
0.00833335
0.00833335
0.00833335
0.00833335
0.00833335
0.00833335
0.00833335
0.00833335
0.00833335
0.00833335
0.00833335
0.00833335
0.00833335
0.00833335
0.00833335
0.00833335
0.00833335
0.00833335
0.00833335
0.00833335
0.00833335
0.00833335
0.00833335
0.00833335
0.00833335
0.00833335
0.00833335
0.00833335
0.00833335
0.00833335
0.00833335
0.00833335
0.00833335
0.00833335
0.00833335
0.00833381
0.00831588
0.00833616
0.00833564
0.00737868
0.00585037
0.00410271
0.00407022
0.00356471
0.00351989
0.0029608
0.00233407
0.00206431
0.00191747
0.00185391
0.00176932
0.00169855
0.00155954
0.00145895
0.00133124
0.00122579
0.00109008
0.000945911
0.000774304
0.000661663
0.000547014
0.000462873
0.000375525
0.000351476
0.000343259
0.000327512
0.000317785
0.000308895
0.000302091
0.000294593
0.000288221
0.000287371
0.000289156
0.000290864
0.00833335
0.00833335
0.00833335
0.00833335
0.00833335
0.00833335
0.00833335
0.00833335
0.00833335
0.00833335
0.00833335
0.00833335
0.00833335
0.00833335
0.00833335
0.00833335
0.00833335
0.00833335
0.00833335
0.00833335
0.00833335
0.00833335
0.00833335
0.00833335
0.00833335
0.00833335
0.00833335
0.00833335
0.00833335
0.00833335
0.00833335
0.00833335
0.00833335
0.00833335
0.00833335
0.00833335
0.00833335
0.00833335
0.00833335
0.00833335
0.00833335
0.00833335
0.00833335
0.00833335
0.00833335
0.00833335
0.00833335
0.00833335
0.00833335
0.00833335
0.00833335
0.00833335
0.00833335
0.00833335
0.00833335
0.00833335
0.00833335
0.00833334
0.00833381
0.00834758
0.00833168
0.00208517
0.0015514
0.000938796
0.000903387
0.000841417
0.000795231
0.000747834
0.000711428
0.000653161
0.00060897
0.000567495
0.000552471
0.000534133
0.000515409
0.000500439
0.000485453
0.000466763
0.000451778
0.000436702
0.00042183
0.000405198
0.000397405
0.000380669
0.000365712
0.000354486
0.000343269
0.000328299
0.000320803
0.000310621
0.00030086
0.000294606
0.00028717
0.00029084
0.00029087
0.000294606
0.00833335
0.00833335
0.00833335
0.00833335
0.00833335
0.00833335
0.00833335
0.00833335
0.00833335
0.00833335
0.00833335
0.00833335
0.00833335
0.00833335
0.00833335
0.00833335
0.00833335
0.00833335
0.00833335
0.00833335
0.00833335
0.00833335
0.00833335
0.00833335
0.00833335
0.00833335
0.00833335
0.00833335
0.00833335
0.00833335
0.00833335
0.00833335
0.00833335
0.00833335
0.00833335
0.00833335
0.00833335
0.00833335
0.00833335
0.00833335
0.00833335
0.00833335
0.00833335
0.00833335
0.00833335
0.00833335
0.00833335
0.00833335
0.00833335
0.00833335
0.00833335
0.00833335
0.00833335
0.00833335
0.00833335
0.00833335
0.00833335
0.00833335
0.00833334
0.00833915
0.00833638
0.00319112
0.0014435
0.000702507
0.00068381
0.000665107
0.000650137
0.000631407
0.000616453
0.00059239
0.000584845
0.000560319
0.000549092
0.00053038
0.00051538
0.000496744
0.000481857
0.000463985
0.000452148
0.000436818
0.000421823
0.000406822
0.000395782
0.000379309
0.000366211
0.000355581
0.000343259
0.000329756
0.000320864
0.00030964
0.000302083
0.000298349
0.000290864
0.000290864
0.000294606
0.000294606
0.00833335
0.00833335
0.00833335
0.00833335
0.00833335
0.00833335
0.00833335
0.00833335
0.00833335
0.00833335
0.00833335
0.00833335
0.00833335
0.00833335
0.00833335
0.00833335
0.00833335
0.00833335
0.00833335
0.00833335
0.00833335
0.00833335
0.00833335
0.00833335
0.00833335
0.00833335
0.00833335
0.00833335
0.00833335
0.00833335
0.00833335
0.00833335
0.00833335
0.00833335
0.00833335
0.00833335
0.00833335
0.00833335
0.00833335
0.00833335
0.00833335
0.00833335
0.00833335
0.00833335
0.00833335
0.00833335
0.00833335
0.00833335
0.00833335
0.00833335
0.00833335
0.00833335
0.00833335
0.00833335
0.00833335
0.00833335
0.00833335
0.00833335
0.00833335
0.00832912
0.0083335
0.00683368
0.000964532
0.000702531
0.000683819
0.000665012
0.000650292
0.000631393
0.000612721
0.000593992
0.000579039
0.000560319
0.000545448
0.00053038
0.000514188
0.000500197
0.000480586
0.000464783
0.000449837
0.000436819
0.000421842
0.00040734
0.000393526
0.000383519
0.000365647
0.000354389
0.000343143
0.000332028
0.000320804
0.000309522
0.000301912
0.000297917
0.000291701
0.000290864
0.000294606
0.000294606
0.00833335
0.00833335
0.00833335
0.00833335
0.00833335
0.00833335
0.00833335
0.00833335
0.00833335
0.00833335
0.00833335
0.00833335
0.00833335
0.00833335
0.00833335
0.00833335
0.00833335
0.00833335
0.00833335
0.00833335
0.00833335
0.00833335
0.00833335
0.00833335
0.00833335
0.00833335
0.00833335
0.00833335
0.00833335
0.00833335
0.00833335
0.00833335
0.00833335
0.00833335
0.00833335
0.00833335
0.00833335
0.00833335
0.00833335
0.00833335
0.00833335
0.00833335
0.00833335
0.00833335
0.00833335
0.00833335
0.00833335
0.00833335
0.00833335
0.00833335
0.00833335
0.00833335
0.00833335
0.00833335
0.00833335
0.00833335
0.00833335
0.00833335
0.00833287
0.00830389
0.00914897
0.00762803
0.000893364
0.000698752
0.000684182
0.000664772
0.000650093
0.000631427
0.000612702
0.00059257
0.000583662
0.000564062
0.000548904
0.000530381
0.000515409
0.00050044
0.000486239
0.000470534
0.000447567
0.000439416
0.000421821
0.000405746
0.000396416
0.000380752
0.00036604
0.000349483
0.000345178
0.000330438
0.000319802
0.000309883
0.000301044
0.000299568
0.000290678
0.000290864
0.000294608
0.000294606
0.00833335
0.00833335
0.00833335
0.00833335
0.00833335
0.00833335
0.00833335
0.00833335
0.00833335
0.00833335
0.00833335
0.00833335
0.00833335
0.00833335
0.00833335
0.00833335
0.00833335
0.00833335
0.00833335
0.00833335
0.00833335
0.00833335
0.00833335
0.00833335
0.00833335
0.00833335
0.00833335
0.00833335
0.00833335
0.00833335
0.00833335
0.00833335
0.00833335
0.00833335
0.00833335
0.00833335
0.00833335
0.00833335
0.00833335
0.00833335
0.00833335
0.00833335
0.00833335
0.00833335
0.00833335
0.00833335
0.00833335
0.00833335
0.00833335
0.00833335
0.00833335
0.00833335
0.00833335
0.00833335
0.00833335
0.00833335
0.00833335
0.00833333
0.00832995
0.00833693
0.0083348
0.00757019
0.00436238
0.000699288
0.000683309
0.000665099
0.00065077
0.000627051
0.000612848
0.000597742
0.000579083
0.000564095
0.000551252
0.000529854
0.000516429
0.000500977
0.000481325
0.000466754
0.000451788
0.000438272
0.000420678
0.000406878
0.000395525
0.0003801
0.000365718
0.000354495
0.000341588
0.000333786
0.000320912
0.000309577
0.000302093
0.000298523
0.000290882
0.000290863
0.000294535
0.000294672
0.00833335
0.00833335
0.00833335
0.00833335
0.00833335
0.00833335
0.00833335
0.00833335
0.00833335
0.00833335
0.00833335
0.00833335
0.00833335
0.00833335
0.00833335
0.00833335
0.00833335
0.00833335
0.00833335
0.00833335
0.00833335
0.00833335
0.00833335
0.00833335
0.00833335
0.00833335
0.00833335
0.00833335
0.00833335
0.00833335
0.00833335
0.00833335
0.00833335
0.00833335
0.00833335
0.00833335
0.00833335
0.00833335
0.00833335
0.00833335
0.00833335
0.00833335
0.00833335
0.00833335
0.00833335
0.00833335
0.00833335
0.00833335
0.00833335
0.00833335
0.00833335
0.00833335
0.00833335
0.00833335
0.00833335
0.00833335
0.00833335
0.008333
0.00833356
0.00833167
0.00833317
0.00833342
0.00678398
0.000698779
0.000680083
0.000666271
0.000643999
0.000629512
0.000612446
0.000593962
0.000578687
0.000560386
0.000545356
0.000530376
0.000516565
0.000496983
0.000481728
0.000466789
0.000451786
0.000436817
0.000421456
0.000407445
0.000395653
0.00038168
0.000363886
0.000356066
0.000343258
0.000332077
0.000321492
0.000309293
0.000301754
0.000298504
0.000290865
0.000290864
0.000290864
0.000290864
0.00833335
0.00833335
0.00833335
0.00833335
0.00833335
0.00833335
0.00833335
0.00833335
0.00833335
0.00833335
0.00833335
0.00833335
0.00833335
0.00833335
0.00833335
0.00833335
0.00833335
0.00833335
0.00833335
0.00833335
0.00833335
0.00833335
0.00833335
0.00833335
0.00833335
0.00833335
0.00833335
0.00833335
0.00833335
0.00833335
0.00833335
0.00833335
0.00833335
0.00833335
0.00833335
0.00833335
0.00833335
0.00833335
0.00833335
0.00833335
0.00833335
0.00833335
0.00833335
0.00833335
0.00833335
0.00833335
0.00833335
0.00833335
0.00833335
0.00833335
0.00833335
0.00833335
0.00833335
0.00833335
0.00833335
0.00833335
0.00833335
0.00833334
0.00833344
0.00833343
0.00840582
0.00832434
0.00130789
0.00070254
0.00068177
0.000664926
0.000648419
0.000628152
0.000616192
0.000594075
0.000579546
0.000564062
0.00054535
0.00053038
0.000517123
0.00049884
0.00048547
0.000466757
0.000451722
0.000436849
0.000421848
0.000410632
0.000395654
0.000382048
0.000367415
0.000354485
0.000343258
0.00033203
0.000320803
0.000309576
0.000302091
0.000298349
0.000291624
0.000291465
0.000294982
0.000290805
0.00833335
0.00833335
0.00833335
0.00833335
0.00833335
0.00833335
0.00833335
0.00833335
0.00833335
0.00833335
0.00833335
0.00833335
0.00833335
0.00833335
0.00833335
0.00833335
0.00833335
0.00833335
0.00833335
0.00833335
0.00833335
0.00833335
0.00833335
0.00833335
0.00833335
0.00833335
0.00833335
0.00833335
0.00833335
0.00833335
0.00833335
0.00833335
0.00833335
0.00833335
0.00833335
0.00833335
0.00833335
0.00833335
0.00833335
0.00833335
0.00833335
0.00833335
0.00833335
0.00833335
0.00833335
0.00833335
0.00833335
0.00833335
0.00833335
0.00833335
0.00833335
0.00833335
0.00833335
0.00833335
0.00833335
0.00833335
0.00833335
0.00833335
0.00833737
0.00832906
0.00827929
0.00199791
0.00101352
0.000747457
0.000709749
0.000680077
0.000668845
0.000631425
0.000615396
0.000597551
0.000584055
0.000564063
0.000549092
0.000530145
0.000518022
0.000497437
0.000485468
0.000472226
0.000450262
0.000438393
0.000423764
0.000409456
0.00039351
0.000381919
0.0003699
0.000354111
0.000343258
0.000332021
0.000321089
0.000308586
0.000301839
0.000298337
0.000290371
0.000291331
0.000294604
0.000294606
0.00833335
0.00833335
0.00833335
0.00833335
0.00833335
0.00833335
0.00833335
0.00833335
0.00833335
0.00833335
0.00833335
0.00833335
0.00833335
0.00833335
0.00833335
0.00833335
0.00833335
0.00833335
0.00833335
0.00833335
0.00833335
0.00833335
0.00833335
0.00833335
0.00833335
0.00833335
0.00833335
0.00833335
0.00833335
0.00833335
0.00833335
0.00833335
0.00833335
0.00833335
0.00833335
0.00833335
0.00833335
0.00833335
0.00833335
0.00833335
0.00833335
0.00833335
0.00833335
0.00833335
0.00833335
0.00833335
0.00833335
0.00833335
0.00833335
0.00833335
0.00833335
0.00833335
0.00833335
0.00833335
0.00833335
0.00833335
0.00833335
0.00833335
0.00833334
0.00834695
0.00772006
0.0025413
0.00772743
0.00236126
0.00309759
0.00222631
0.00225119
0.002159
0.00207197
0.00196037
0.00181035
0.0016312
0.00140599
0.00126238
0.00110495
0.000860537
0.00068754
0.000608964
0.000523105
0.000474291
0.000440382
0.00041409
0.000399384
0.000381065
0.000363018
0.000355974
0.000343224
0.000334454
0.000318799
0.000308666
0.00030256
0.000295168
0.000287202
0.000290877
0.000290784
0.000294689
0.00833335
0.00833335
0.00833335
0.00833335
0.00833335
0.00833335
0.00833335
0.00833335
0.00833335
0.00833335
0.00833335
0.00833335
0.00833335
0.00833335
0.00833335
0.00833335
0.00833335
0.00833335
0.00833335
0.00833335
0.00833335
0.00833335
0.00833335
0.00833335
0.00833335
0.00833335
0.00833335
0.00833335
0.00833335
0.00833335
0.00833335
0.00833335
0.00833335
0.00833335
0.00833335
0.00833335
0.00833335
0.00833335
0.00833335
0.00833335
0.00833335
0.00833335
0.00833335
0.00833335
0.00833335
0.00833335
0.00833335
0.00833335
0.00833335
0.00833335
0.00833335
0.00833335
0.00833335
0.00833335
0.00833335
0.00833335
0.00833335
0.00833335
0.00833334
0.00834068
0.00731773
0.00786564
0.00829786
0.00825128
0.00822825
0.00827548
0.00835446
0.00825761
0.0084274
0.0082391
0.00827695
0.00822751
0.00829726
0.00839099
0.00814234
0.00793683
0.00805066
0.00799497
0.00779871
0.00666132
0.00568183
0.00422449
0.00321034
0.00207089
0.00122399
0.000858575
0.000436847
0.000384571
0.000350853
0.000321815
0.000302118
0.000298355
0.000290793
0.00028716
0.000290882
0.000290864
0.00833335
0.00833335
0.00833335
0.00833335
0.00833335
0.00833335
0.00833335
0.00833335
0.00833335
0.00833335
0.00833335
0.00833335
0.00833335
0.00833335
0.00833335
0.00833335
0.00833335
0.00833335
0.00833335
0.00833335
0.00833335
0.00833335
0.00833335
0.00833335
0.00833335
0.00833335
0.00833335
0.00833335
0.00833335
0.00833335
0.00833335
0.00833335
0.00833335
0.00833335
0.00833335
0.00833335
0.00833335
0.00833335
0.00833335
0.00833335
0.00833335
0.00833335
0.00833335
0.00833335
0.00833335
0.00833335
0.00833335
0.00833335
0.00833335
0.00833335
0.00833335
0.00833335
0.00833335
0.00833335
0.00833335
0.00833335
0.00833335
0.00833335
0.00833335
0.00831905
0.009557
0.00829122
0.0083331
0.0088193
0.00696901
0.00832485
0.00781898
0.00851163
0.00835913
0.00823537
0.00830059
0.0077493
0.00860936
0.00833151
0.00833681
0.00929025
0.00672457
0.00924239
0.00717525
0.00860657
0.00916541
0.00833297
0.00769354
0.00847324
0.00700536
0.00799473
0.00720777
0.00672698
0.00516502
0.00414949
0.0030535
0.000985816
0.000296295
0.000282164
0.000290613
0.000291077
0.00833335
0.00833335
0.00833335
0.00833335
0.00833335
0.00833335
0.00833335
0.00833335
0.00833335
0.00833335
0.00833335
0.00833335
0.00833335
0.00833335
0.00833335
0.00833335
0.00833335
0.00833335
0.00833335
0.00833335
0.00833335
0.00833335
0.00833335
0.00833335
0.00833335
0.00833335
0.00833335
0.00833335
0.00833335
0.00833335
0.00833335
0.00833335
0.00833335
0.00833335
0.00833335
0.00833335
0.00833335
0.00833335
0.00833335
0.00833335
0.00833335
0.00833335
0.00833335
0.00833335
0.00833335
0.00833335
0.00833335
0.00833335
0.00833335
0.00833335
0.00833335
0.00833335
0.00833335
0.00833335
0.00833335
0.00833335
0.00833335
0.00833335
0.00833335
0.00828884
0.00904521
0.00826918
0.00830606
0.00831756
0.00831902
0.00832339
0.00833381
0.00829157
0.00821641
0.00853624
0.00822644
0.0083069
0.00830142
0.00822614
0.00842869
0.00834289
0.00831528
0.00830966
0.00835602
0.00828071
0.00825187
0.00830827
0.00819289
0.00779808
0.00871146
0.00832976
0.00832202
0.00832487
0.00804028
0.00744125
0.00812032
0.00847029
0.00833385
0.00836128
0.00831201
0.00809577
0.00833335
0.00833335
0.00833335
0.00833335
0.00833335
0.00833335
0.00833335
0.00833335
0.00833335
0.00833335
0.00833335
0.00833335
0.00833335
0.00833335
0.00833335
0.00833335
0.00833335
0.00833335
0.00833335
0.00833335
0.00833335
0.00833335
0.00833335
0.00833335
0.00833335
0.00833335
0.00833335
0.00833335
0.00833335
0.00833335
0.00833335
0.00833335
0.00833335
0.00833335
0.00833335
0.00833335
0.00833335
0.00833335
0.00833335
0.00833335
0.00833335
0.00833335
0.00833335
0.00833335
0.00833335
0.00833335
0.00833335
0.00833335
0.00833335
0.00833335
0.00833335
0.00833335
0.00833335
0.00833335
0.00833335
0.00833335
0.00833335
0.00833291
0.00833376
0.00829713
0.0087667
0.00842316
0.00811372
0.00838978
0.00821442
0.00835163
0.00835067
0.00829627
0.0082921
0.00832925
0.0083143
0.00832952
0.00832913
0.00833807
0.00834305
0.00833124
0.00833814
0.00833296
0.00833576
0.00833627
0.00831412
0.0083157
0.00832732
0.00830177
0.00830965
0.00833424
0.00832399
0.00832133
0.0083351
0.00832903
0.00833498
0.0083519
0.00838267
0.00821722
0.00835978
0.00833334
0.00833335
0.00833335
0.00833335
0.00833335
0.00833335
0.00833335
0.00833335
0.00833335
0.00833335
0.00833335
0.00833335
0.00833335
0.00833335
0.00833335
0.00833335
0.00833335
0.00833335
0.00833335
0.00833335
0.00833335
0.00833335
0.00833335
0.00833335
0.00833335
0.00833335
0.00833335
0.00833335
0.00833335
0.00833335
0.00833335
0.00833335
0.00833335
0.00833335
0.00833335
0.00833335
0.00833335
0.00833335
0.00833335
0.00833335
0.00833335
0.00833335
0.00833335
0.00833335
0.00833335
0.00833335
0.00833335
0.00833335
0.00833335
0.00833335
0.00833335
0.00833335
0.00833335
0.00833335
0.00833335
0.00833335
0.00833335
0.00833335
0.00833334
0.00833296
0.00833034
0.00762971
0.00878015
0.00793016
0.00802924
0.00824086
0.00833196
0.00833462
0.00828745
0.00832945
0.00838289
0.0083671
0.00818826
0.00829467
0.00833752
0.00828655
0.00833654
0.00816256
0.0081087
0.0081275
0.00831819
0.00832337
0.00832571
0.00830549
0.00831875
0.00831124
0.0079377
0.00822536
0.00858215
0.00765215
0.00842981
0.00824327
0.00846144
0.00832143
0.00833351
0.00833206
0.00833304
0.00833335
0.00833335
0.00833335
0.00833335
0.00833335
0.00833335
0.00833335
0.00833335
0.00833335
0.00833335
0.00833335
0.00833335
0.00833335
0.00833335
0.00833335
0.00833335
0.00833335
0.00833335
0.00833335
0.00833335
0.00833335
0.00833335
0.00833335
0.00833335
0.00833335
0.00833335
0.00833335
0.00833335
0.00833335
0.00833335
0.00833335
0.00833335
0.00833335
0.00833335
0.00833335
0.00833335
0.00833335
0.00833335
0.00833335
0.00833335
0.00833335
0.00833335
0.00833335
0.00833335
0.00833335
0.00833335
0.00833335
0.00833335
0.00833335
0.00833335
0.00833335
0.00833335
0.00833335
0.00833335
0.00833335
0.00833335
0.00833335
0.00833335
0.00833333
0.0083312
0.00862191
0.00865419
0.00832152
0.00848948
0.00829591
0.00832496
0.00836907
0.00815458
0.00837023
0.00826623
0.00823057
0.00819895
0.00829378
0.00828723
0.00828692
0.00829222
0.00825648
0.00829789
0.00844695
0.00840095
0.00827911
0.00811523
0.00837477
0.00815004
0.00805649
0.00802188
0.00786217
0.00742024
0.00653254
0.00378206
0.00315436
0.002822
0.00282146
0.00269484
0.00201084
0.000290677
0.00833335
0.00833335
0.00833335
0.00833335
0.00833335
0.00833335
0.00833335
0.00833335
0.00833335
0.00833335
0.00833335
0.00833335
0.00833335
0.00833335
0.00833335
0.00833335
0.00833335
0.00833335
0.00833335
0.00833335
0.00833335
0.00833335
0.00833335
0.00833335
0.00833335
0.00833335
0.00833335
0.00833335
0.00833335
0.00833335
0.00833335
0.00833335
0.00833335
0.00833335
0.00833335
0.00833335
0.00833335
0.00833335
0.00833335
0.00833335
0.00833335
0.00833335
0.00833335
0.00833335
0.00833335
0.00833335
0.00833335
0.00833335
0.00833335
0.00833335
0.00833335
0.00833335
0.00833335
0.00833335
0.00833335
0.00833335
0.00833335
0.00833334
0.00833323
0.00833308
0.00825237
0.0014238
0.00720264
0.00205854
0.00253407
0.00164628
0.00163854
0.00133122
0.00119767
0.000882846
0.000775392
0.000721968
0.000695359
0.000654015
0.000631374
0.000608966
0.000586417
0.000563974
0.000546173
0.000516684
0.000497278
0.000471111
0.000454
0.000425561
0.000403097
0.000383128
0.000359384
0.000337483
0.000325289
0.000315533
0.000302097
0.000298563
0.000290775
0.000290883
0.000290889
0.000294606
0.00833335
0.00833335
0.00833335
0.00833335
0.00833335
0.00833335
0.00833335
0.00833335
0.00833335
0.00833335
0.00833335
0.00833335
0.00833335
0.00833335
0.00833335
0.00833335
0.00833335
0.00833335
0.00833335
0.00833335