/*--------------------------------*- C++ -*----------------------------------*\
| =========                 |                                                 |
| \\      /  F ield         | OpenFOAM: The Open Source CFD Toolbox           |
|  \\    /   O peration     | Version:  2.3.0                                 |
|   \\  /    A nd           | Web:      www.OpenFOAM.org                      |
|    \\/     M anipulation  |                                                 |
\*---------------------------------------------------------------------------*/
FoamFile
{
    version     2.0;
    format      ascii;
    class       volScalarField;
    location    "11";
    object      nut.water;
}
// * * * * * * * * * * * * * * * * * * * * * * * * * * * * * * * * * * * * * //

dimensions      [0 2 -1 0 0 0 0];

internalField   nonuniform List<scalar> 
6144
(
7.54597e-06
6.26535e-06
4.85296e-06
4.74774e-06
3.89636e-06
3.54759e-06
3.1741e-06
2.93609e-06
2.82522e-06
2.8385e-06
2.84138e-06
2.89746e-06
2.8579e-06
2.86488e-06
2.80765e-06
2.8039e-06
2.76103e-06
2.75756e-06
2.73419e-06
2.7324e-06
2.72254e-06
2.7234e-06
2.72286e-06
2.72619e-06
2.73064e-06
2.7369e-06
2.74405e-06
2.75195e-06
2.76048e-06
2.76948e-06
2.77908e-06
2.78878e-06
2.79977e-06
2.80975e-06
2.82446e-06
2.83346e-06
2.85507e-06
2.86246e-06
2.89593e-06
2.90098e-06
2.96111e-06
2.96627e-06
3.07648e-06
3.08653e-06
3.26111e-06
3.31183e-06
3.57352e-06
3.94676e-06
4.88728e-06
6.31132e-06
8.23962e-06
9.60967e-06
1.45683e-05
2.03862e-05
2.87516e-05
3.45122e-05
4.28412e-05
6.14104e-05
8.24087e-05
9.72829e-05
0.00015914
0.000124032
0.000112711
0.000100175
9.07154e-05
8.40158e-05
7.86278e-05
7.424e-05
7.04405e-05
6.69364e-05
6.35469e-05
6.01863e-05
5.67929e-05
5.34125e-05
5.0165e-05
4.70846e-05
4.42709e-05
4.17822e-05
3.97036e-05
3.78806e-05
3.63127e-05
3.49587e-05
3.37047e-05
3.2705e-05
3.15688e-05
3.06068e-05
2.92892e-05
2.76168e-05
2.54921e-05
1.97711e-05
8.27749e-06
6.21748e-06
6.40512e-06
5.84686e-06
4.75767e-06
3.91912e-06
1.06306e-05
9.39015e-06
7.55438e-06
7.37156e-06
6.51528e-06
6.14635e-06
5.5992e-06
4.97292e-06
4.58174e-06
4.51233e-06
4.54278e-06
4.6929e-06
4.64893e-06
4.64867e-06
4.51384e-06
4.48007e-06
4.36916e-06
4.35e-06
4.29436e-06
4.29034e-06
4.26797e-06
4.27234e-06
4.27252e-06
4.2838e-06
4.29725e-06
4.31553e-06
4.33606e-06
4.35857e-06
4.38264e-06
4.40801e-06
4.43482e-06
4.46206e-06
4.49202e-06
4.52121e-06
4.55927e-06
4.58674e-06
4.63904e-06
4.66204e-06
4.73859e-06
4.7551e-06
4.90866e-06
4.91404e-06
5.19924e-06
5.1588e-06
5.60285e-06
5.57931e-06
6.30946e-06
7.03416e-06
8.75839e-06
1.06997e-05
1.36657e-05
1.54574e-05
2.26318e-05
3.01705e-05
4.23142e-05
5.20888e-05
7.12967e-05
9.24858e-05
0.000106962
0.000102531
0.000144725
8.56391e-05
8.07377e-05
7.34733e-05
7.18301e-05
7.08861e-05
6.9759e-05
6.83272e-05
6.67091e-05
6.4821e-05
6.26106e-05
6.02442e-05
5.74419e-05
5.44121e-05
5.14427e-05
4.86308e-05
4.57945e-05
4.3068e-05
4.04805e-05
3.83909e-05
3.67353e-05
3.5343e-05
3.44117e-05
3.37226e-05
3.28396e-05
3.19531e-05
3.08561e-05
2.95284e-05
2.78807e-05
2.32206e-05
1.31053e-05
1.06257e-05
1.10912e-05
1.08864e-05
8.44802e-06
5.62574e-06
1.19821e-05
1.09626e-05
8.35703e-06
8.15848e-06
7.4201e-06
7.04899e-06
6.9206e-06
6.4094e-06
6.14245e-06
5.9154e-06
5.98438e-06
6.1624e-06
6.26586e-06
6.31138e-06
6.28893e-06
6.27671e-06
6.24049e-06
6.23701e-06
6.21231e-06
6.22109e-06
6.21977e-06
6.24183e-06
6.26084e-06
6.29242e-06
6.32652e-06
6.36594e-06
6.40727e-06
6.45066e-06
6.49541e-06
6.54149e-06
6.58908e-06
6.63765e-06
6.68845e-06
6.74142e-06
6.79879e-06
6.85064e-06
6.91673e-06
6.96022e-06
7.03866e-06
7.06473e-06
7.17922e-06
7.16509e-06
7.34315e-06
7.2544e-06
7.54438e-06
7.52866e-06
8.25957e-06
9.64492e-06
1.18231e-05
1.46229e-05
1.86934e-05
2.19865e-05
2.97353e-05
3.98289e-05
5.2903e-05
6.26119e-05
7.55484e-05
9.37926e-05
9.76927e-05
8.8963e-05
0.000138494
7.49082e-05
7.65209e-05
7.38964e-05
7.32199e-05
7.07723e-05
6.80369e-05
6.58562e-05
6.36715e-05
6.1222e-05
5.89318e-05
5.68024e-05
5.43546e-05
5.15328e-05
4.84392e-05
4.48355e-05
3.98953e-05
3.80885e-05
3.92597e-05
3.98422e-05
3.91793e-05
3.829e-05
3.80507e-05
3.74558e-05
3.68158e-05
3.55086e-05
3.3659e-05
3.1656e-05
2.9455e-05
2.46675e-05
1.57045e-05
1.49704e-05
1.60331e-05
1.65818e-05
1.41165e-05
7.84663e-06
1.32966e-05
1.32715e-05
8.6908e-06
8.68994e-06
7.34667e-06
7.18483e-06
6.8857e-06
6.6071e-06
6.55504e-06
6.33663e-06
6.43953e-06
6.59261e-06
6.79315e-06
6.89914e-06
6.98089e-06
7.02454e-06
7.07966e-06
7.12709e-06
7.18415e-06
7.23813e-06
7.29556e-06
7.3523e-06
7.41083e-06
7.4707e-06
7.53116e-06
7.59145e-06
7.65118e-06
7.71073e-06
7.77022e-06
7.82969e-06
7.88912e-06
7.94949e-06
8.0106e-06
8.07387e-06
8.13547e-06
8.19534e-06
8.24952e-06
8.29486e-06
8.33567e-06
8.35595e-06
8.39261e-06
8.38462e-06
8.44906e-06
8.40684e-06
8.51068e-06
8.62935e-06
9.21639e-06
1.11053e-05
1.38479e-05
1.78332e-05
2.28567e-05
2.80229e-05
3.58065e-05
4.73824e-05
6.93447e-05
7.81888e-05
8.62615e-05
0.000101434
8.53893e-05
8.23887e-05
0.00013478
7.29384e-05
6.47307e-05
6.4137e-05
6.5772e-05
6.4172e-05
6.3534e-05
6.18052e-05
5.97174e-05
5.64538e-05
5.30038e-05
5.00069e-05
4.8513e-05
5.06126e-05
5.19533e-05
5.21706e-05
5.23222e-05
5.15315e-05
5.03299e-05
4.89826e-05
4.67402e-05
4.42564e-05
4.14567e-05
3.89601e-05
3.70927e-05
3.5417e-05
3.38356e-05
3.20899e-05
2.91904e-05
2.21142e-05
1.77464e-05
1.84706e-05
1.95229e-05
2.0247e-05
1.76989e-05
8.43234e-06
1.52436e-05
1.63102e-05
1.06309e-05
1.12661e-05
8.59221e-06
8.31401e-06
6.99326e-06
6.64911e-06
6.32246e-06
6.13466e-06
6.37918e-06
6.71507e-06
6.99896e-06
7.1548e-06
7.25772e-06
7.34138e-06
7.41841e-06
7.49083e-06
7.56617e-06
7.63878e-06
7.71359e-06
7.78492e-06
7.85858e-06
7.92982e-06
8.00034e-06
8.06918e-06
8.13783e-06
8.2065e-06
8.27546e-06
8.3447e-06
8.41405e-06
8.48424e-06
8.55464e-06
8.62721e-06
8.69733e-06
8.76557e-06
8.82559e-06
8.87845e-06
8.91712e-06
8.93923e-06
8.96058e-06
8.96062e-06
8.99052e-06
8.97179e-06
8.98201e-06
9.17347e-06
9.69138e-06
1.23398e-05
1.61706e-05
2.10936e-05
2.63924e-05
3.28573e-05
4.26884e-05
6.30896e-05
9.40814e-05
0.000101973
0.000124013
0.000119266
7.88842e-05
7.71338e-05
0.000120394
7.24235e-05
6.45321e-05
6.25547e-05
6.04756e-05
5.56496e-05
5.52092e-05
5.38243e-05
5.40572e-05
5.76932e-05
6.00168e-05
6.16599e-05
6.35083e-05
6.44362e-05
6.49976e-05
6.48472e-05
6.44264e-05
6.26357e-05
6.04084e-05
5.72047e-05
5.36913e-05
4.94344e-05
4.50732e-05
4.03227e-05
3.67347e-05
3.33e-05
3.07512e-05
2.80687e-05
2.47627e-05
2.17418e-05
2.07567e-05
2.11889e-05
2.16675e-05
2.19788e-05
1.91383e-05
7.82922e-06
1.74347e-05
1.99528e-05
1.42327e-05
1.50971e-05
1.14842e-05
1.06991e-05
8.55204e-06
7.76184e-06
6.84055e-06
6.30345e-06
6.18043e-06
6.54395e-06
6.99679e-06
7.26541e-06
7.45175e-06
7.59443e-06
7.7189e-06
7.82899e-06
7.93082e-06
8.02228e-06
8.10935e-06
8.18984e-06
8.26969e-06
8.34382e-06
8.4171e-06
8.48899e-06
8.56094e-06
8.63288e-06
8.70472e-06
8.77649e-06
8.84796e-06
8.92074e-06
8.9934e-06
9.07033e-06
9.14453e-06
9.21901e-06
9.28629e-06
9.35113e-06
9.3966e-06
9.43569e-06
9.44239e-06
9.47967e-06
9.43264e-06
9.50504e-06
9.3051e-06
9.7357e-06
1.02001e-05
1.39411e-05
1.82002e-05
2.34198e-05
2.80405e-05
3.38679e-05
4.4273e-05
7.44691e-05
0.000114389
0.00012135
0.000133262
0.000127575
8.13391e-05
8.3e-05
0.0001123
7.67365e-05
7.14557e-05
6.74102e-05
6.60375e-05
6.61947e-05
6.83009e-05
7.02128e-05
7.32089e-05
7.51182e-05
7.66571e-05
7.77183e-05
7.84161e-05
7.86776e-05
7.85828e-05
7.78408e-05
7.67802e-05
7.54615e-05
7.39615e-05
7.21356e-05
7.01953e-05
6.78952e-05
6.52507e-05
6.16146e-05
5.70128e-05
5.23257e-05
4.7848e-05
4.30736e-05
3.87336e-05
3.48774e-05
3.03557e-05
2.65634e-05
2.49709e-05
2.42744e-05
2.13429e-05
7.98588e-06
1.96783e-05
2.32722e-05
1.91109e-05
1.98111e-05
1.48038e-05
1.30367e-05
1.0477e-05
9.21049e-06
8.00486e-06
6.95501e-06
6.42479e-06
6.37764e-06
6.78323e-06
7.10131e-06
7.33401e-06
7.52982e-06
7.69511e-06
7.84223e-06
7.97159e-06
8.08654e-06
8.18973e-06
8.28323e-06
8.3733e-06
8.45703e-06
8.53872e-06
8.61792e-06
8.6961e-06
8.7735e-06
8.84963e-06
8.92606e-06
9.00368e-06
9.08459e-06
9.1663e-06
9.25365e-06
9.33641e-06
9.42078e-06
9.49534e-06
9.56783e-06
9.62174e-06
9.67438e-06
9.67384e-06
9.74062e-06
9.64121e-06
9.77802e-06
9.47029e-06
1.01539e-05
1.08846e-05
1.51501e-05
1.94172e-05
2.44905e-05
2.88968e-05
3.32179e-05
4.05013e-05
7.01389e-05
0.000118682
0.000128212
0.000128422
0.000128145
9.02407e-05
9.68448e-05
0.000105681
8.76033e-05
8.70568e-05
8.53123e-05
8.51293e-05
8.53193e-05
8.63625e-05
8.69035e-05
8.77636e-05
8.8131e-05
8.84318e-05
8.8596e-05
8.82263e-05
8.74831e-05
8.66499e-05
8.58311e-05
8.46152e-05
8.33079e-05
8.19268e-05
8.03453e-05
7.9041e-05
7.79053e-05
7.68865e-05
7.57643e-05
7.40623e-05
7.19497e-05
6.90399e-05
6.52175e-05
6.08629e-05
5.58013e-05
5.06853e-05
4.39667e-05
3.77097e-05
3.39325e-05
2.95661e-05
9.58681e-06
2.04082e-05
2.43086e-05
2.36385e-05
2.3337e-05
1.90782e-05
1.59154e-05
1.23467e-05
1.04083e-05
9.34218e-06
7.8644e-06
6.95876e-06
6.76509e-06
7.00804e-06
7.3179e-06
7.56974e-06
7.79948e-06
8.01407e-06
8.19975e-06
8.36063e-06
8.51003e-06
8.64932e-06
8.78528e-06
8.91812e-06
9.0466e-06
9.17382e-06
9.29921e-06
9.42418e-06
9.5484e-06
9.67115e-06
9.79453e-06
9.91988e-06
1.00493e-05
1.01809e-05
1.03177e-05
1.04495e-05
1.05806e-05
1.06961e-05
1.07935e-05
1.08449e-05
1.08655e-05
1.08327e-05
1.08542e-05
1.07188e-05
1.07995e-05
1.04802e-05
1.11507e-05
1.22259e-05
1.64692e-05
2.09422e-05
2.55165e-05
3.0596e-05
3.4974e-05
3.89457e-05
5.56716e-05
9.8818e-05
0.0001229
0.000128116
0.0001293
9.74266e-05
0.000105445
0.000108746
9.95711e-05
0.000101487
0.000102098
0.000101958
0.000101428
0.000101416
0.000101742
0.000101602
0.000101299
0.000100991
0.000100089
9.91306e-05
9.74636e-05
9.55664e-05
9.28995e-05
9.00976e-05
8.67721e-05
8.3664e-05
8.02201e-05
7.75681e-05
7.52261e-05
7.39567e-05
7.3651e-05
7.36511e-05
7.3817e-05
7.37414e-05
7.19604e-05
6.84184e-05
6.28201e-05
5.66413e-05
4.98886e-05
4.40818e-05
3.67747e-05
2.96772e-05
1.51797e-05
1.93053e-05
2.2749e-05
2.38732e-05
2.40609e-05
2.08425e-05
1.7841e-05
1.42224e-05
1.10151e-05
9.56853e-06
7.9372e-06
6.56241e-06
5.84831e-06
5.8176e-06
5.96503e-06
6.19543e-06
6.41778e-06
6.65886e-06
6.86406e-06
7.06352e-06
7.23236e-06
7.38226e-06
7.51274e-06
7.63366e-06
7.74196e-06
7.84433e-06
7.93999e-06
8.0313e-06
8.11782e-06
8.19943e-06
8.27862e-06
8.35659e-06
8.4354e-06
8.51334e-06
8.59229e-06
8.66553e-06
8.73927e-06
8.79901e-06
8.84707e-06
8.84647e-06
8.82267e-06
8.75424e-06
8.76161e-06
8.65373e-06
8.73041e-06
8.6025e-06
9.20928e-06
1.06315e-05
1.41876e-05
1.85774e-05
2.15981e-05
2.56891e-05
2.89258e-05
3.32508e-05
4.71123e-05
7.29698e-05
9.44934e-05
0.000116511
0.000123407
8.74069e-05
9.2803e-05
0.000107234
9.19521e-05
9.30787e-05
9.45522e-05
9.39461e-05
9.34933e-05
9.25718e-05
9.1798e-05
9.08392e-05
8.95288e-05
8.78499e-05
8.55365e-05
8.30925e-05
8.00671e-05
7.66908e-05
7.289e-05
6.9288e-05
6.56888e-05
6.22892e-05
5.87218e-05
5.53122e-05
5.20114e-05
4.8009e-05
4.46767e-05
4.1979e-05
3.87041e-05
3.65292e-05
3.64274e-05
3.75739e-05
3.79709e-05
3.64753e-05
3.6179e-05
3.62978e-05
3.60106e-05
3.20817e-05
1.18125e-05
1.63319e-05
1.7284e-05
1.99929e-05
2.135e-05
2.16537e-05
1.88937e-05
1.49566e-05
1.19224e-05
9.80259e-06
7.99456e-06
6.14274e-06
4.94213e-06
4.70143e-06
4.7109e-06
4.82825e-06
4.96259e-06
5.13546e-06
5.27717e-06
5.41966e-06
5.53144e-06
5.6343e-06
5.72098e-06
5.80041e-06
5.87135e-06
5.93813e-06
6.00039e-06
6.05962e-06
6.11835e-06
6.18272e-06
6.24975e-06
6.3201e-06
6.39482e-06
6.47259e-06
6.5528e-06
6.63344e-06
6.71608e-06
6.78764e-06
6.84485e-06
6.85877e-06
6.81808e-06
6.76866e-06
6.8024e-06
6.78134e-06
6.87958e-06
6.89893e-06
7.49156e-06
8.97595e-06
1.19286e-05
1.57685e-05
1.81474e-05
2.08798e-05
2.39298e-05
2.94214e-05
4.30012e-05
6.5894e-05
9.17675e-05
0.000114124
0.000119859
8.39554e-05
8.73756e-05
0.000111256
8.31997e-05
8.14308e-05
8.17577e-05
8.06068e-05
7.88972e-05
7.79812e-05
7.62618e-05
7.45603e-05
7.17698e-05
6.88676e-05
6.54094e-05
6.20486e-05
5.85975e-05
5.52797e-05
5.2358e-05
4.99506e-05
4.80512e-05
4.67731e-05
4.59061e-05
4.54556e-05
4.4847e-05
4.35415e-05
4.13461e-05
3.96173e-05
3.64882e-05
3.04431e-05
2.51638e-05
2.33139e-05
2.40884e-05
2.09799e-05
1.69472e-05
1.64249e-05
1.92235e-05
2.0542e-05
1.05663e-05
1.64481e-05
1.5813e-05
1.66253e-05
1.87587e-05
1.96336e-05
1.84005e-05
1.46737e-05
1.18943e-05
9.72777e-06
7.97289e-06
6.2119e-06
4.96507e-06
4.51525e-06
4.32086e-06
4.29892e-06
4.32613e-06
4.3999e-06
4.47174e-06
4.55605e-06
4.62837e-06
4.70332e-06
4.77058e-06
4.83789e-06
4.90153e-06
4.96557e-06
5.02911e-06
5.09329e-06
5.15756e-06
5.21972e-06
5.28162e-06
5.34288e-06
5.40342e-06
5.46217e-06
5.52393e-06
5.59403e-06
5.6728e-06
5.74751e-06
5.81153e-06
5.85921e-06
5.9128e-06
5.9892e-06
6.05159e-06
6.08411e-06
6.182e-06
6.22208e-06
6.63276e-06
7.71775e-06
1.0029e-05
1.32189e-05
1.55766e-05
1.80024e-05
2.18094e-05
2.91027e-05
4.13625e-05
5.94313e-05
8.12279e-05
0.00010785
0.000116449
7.99746e-05
8.09106e-05
0.000124741
7.55858e-05
6.80885e-05
6.65896e-05
6.47099e-05
6.07459e-05
5.9337e-05
5.64975e-05
5.43977e-05
5.10175e-05
4.82104e-05
4.50624e-05
4.30059e-05
4.13889e-05
4.02027e-05
3.92958e-05
3.92136e-05
4.01119e-05
4.09909e-05
4.18034e-05
4.2578e-05
4.32522e-05
4.42655e-05
4.46017e-05
4.42828e-05
4.23657e-05
3.8366e-05
2.86576e-05
2.00159e-05
1.86737e-05
1.75099e-05
1.31925e-05
1.18515e-05
1.38781e-05
1.52457e-05
9.37014e-06
1.54882e-05
1.62985e-05
1.73325e-05
1.8366e-05
1.84762e-05
1.66222e-05
1.39596e-05
1.14517e-05
9.35384e-06
7.64858e-06
6.10634e-06
5.14524e-06
4.69863e-06
4.47571e-06
4.38721e-06
4.36217e-06
4.39046e-06
4.43225e-06
4.4906e-06
4.54414e-06
4.60355e-06
4.65749e-06
4.7138e-06
4.76718e-06
4.82107e-06
4.87416e-06
4.92722e-06
4.98022e-06
5.0331e-06
5.08587e-06
5.1376e-06
5.19069e-06
5.25035e-06
5.32887e-06
5.41483e-06
5.47932e-06
5.52708e-06
5.57382e-06
5.61181e-06
5.62968e-06
5.63618e-06
5.6887e-06
5.72972e-06
5.80798e-06
5.87279e-06
6.13068e-06
6.94913e-06
8.87069e-06
1.167e-05
1.41751e-05
1.72642e-05
2.20377e-05
2.94298e-05
3.90437e-05
5.62e-05
7.60812e-05
9.21043e-05
0.000103719
8.2081e-05
8.00109e-05
0.000129043
6.94877e-05
5.81522e-05
5.63858e-05
5.46779e-05
4.59199e-05
4.55751e-05
4.48556e-05
4.38936e-05
4.21032e-05
4.01613e-05
3.85437e-05
3.84932e-05
3.92661e-05
4.04379e-05
4.18344e-05
4.31857e-05
4.44606e-05
4.53823e-05
4.62584e-05
4.67737e-05
4.68988e-05
4.67376e-05
4.61858e-05
4.5153e-05
4.2836e-05
4.05772e-05
3.56594e-05
2.19155e-05
1.54585e-05
1.49175e-05
1.16822e-05
1.03343e-05
1.22228e-05
1.35774e-05
8.77074e-06
1.52863e-05
1.6944e-05
1.74678e-05
1.8247e-05
1.73743e-05
1.60638e-05
1.32279e-05
1.07156e-05
9.04257e-06
7.19249e-06
5.72896e-06
4.90137e-06
4.5622e-06
4.4051e-06
4.3646e-06
4.36441e-06
4.38373e-06
4.41535e-06
4.45344e-06
4.49251e-06
4.53582e-06
4.57829e-06
4.62179e-06
4.66453e-06
4.70774e-06
4.7511e-06
4.79494e-06
4.83898e-06
4.88264e-06
4.9261e-06
4.9692e-06
5.01153e-06
5.05555e-06
5.11178e-06
5.17613e-06
5.23069e-06
5.27482e-06
5.31924e-06
5.35827e-06
5.3778e-06
5.39569e-06
5.44012e-06
5.489e-06
5.55799e-06
5.64048e-06
5.85123e-06
6.55586e-06
8.17554e-06
1.08321e-05
1.3443e-05
1.66737e-05
2.11974e-05
2.73484e-05
3.39767e-05
4.72786e-05
6.47278e-05
8.02943e-05
9.57229e-05
9.2397e-05
8.96865e-05
0.000138292
6.78184e-05
5.4428e-05
5.89841e-05
5.87133e-05
5.68139e-05
5.48615e-05
5.32829e-05
5.22054e-05
5.14532e-05
5.08868e-05
5.07141e-05
5.08664e-05
5.11612e-05
5.1426e-05
5.16566e-05
5.17714e-05
5.17628e-05
5.15103e-05
5.12029e-05
5.04761e-05
4.9602e-05
4.84603e-05
4.70587e-05
4.58152e-05
4.34215e-05
4.08266e-05
3.65137e-05
2.53692e-05
1.36235e-05
1.16704e-05
9.87035e-06
9.5026e-06
1.1166e-05
1.1944e-05
8.34759e-06
1.40027e-05
1.55253e-05
1.57064e-05
1.62245e-05
1.51478e-05
1.46187e-05
1.17885e-05
9.99508e-06
8.67883e-06
6.76854e-06
5.20108e-06
4.38085e-06
4.23655e-06
4.21994e-06
4.20431e-06
4.21235e-06
4.23295e-06
4.26272e-06
4.29754e-06
4.33324e-06
4.37292e-06
4.41222e-06
4.45264e-06
4.49272e-06
4.5328e-06
4.57254e-06
4.61187e-06
4.65106e-06
4.69015e-06
4.72865e-06
4.7669e-06
4.80423e-06
4.84218e-06
4.88524e-06
4.93194e-06
4.97599e-06
5.01463e-06
5.05373e-06
5.09099e-06
5.11503e-06
5.13437e-06
5.16899e-06
5.21164e-06
5.26698e-06
5.34173e-06
5.52466e-06
6.20355e-06
7.81809e-06
1.03239e-05
1.27276e-05
1.56533e-05
1.91076e-05
2.22653e-05
2.653e-05
3.64038e-05
5.13545e-05
7.4784e-05
9.09472e-05
9.77876e-05
9.52166e-05
0.000138275
7.00124e-05
6.65028e-05
6.23088e-05
6.42121e-05
6.43231e-05
6.31663e-05
6.21153e-05
6.12307e-05
6.04087e-05
5.9645e-05
5.88914e-05
5.82395e-05
5.75781e-05
5.68825e-05
5.62033e-05
5.53792e-05
5.46106e-05
5.35941e-05
5.25439e-05
5.11897e-05
4.96895e-05
4.79905e-05
4.616e-05
4.44884e-05
4.20306e-05
3.94982e-05
3.52707e-05
2.50716e-05
1.22723e-05
9.301e-06
8.88709e-06
9.31054e-06
1.04859e-05
1.06126e-05
8.19113e-06
1.20911e-05
1.32713e-05
1.32445e-05
1.3618e-05
1.30975e-05
1.2646e-05
1.03465e-05
9.16005e-06
7.98606e-06
6.30584e-06
4.81863e-06
4.06721e-06
3.95356e-06
3.9763e-06
3.97735e-06
3.99512e-06
4.01732e-06
4.04587e-06
4.07755e-06
4.10964e-06
4.14502e-06
4.17967e-06
4.21479e-06
4.24948e-06
4.28438e-06
4.31938e-06
4.35453e-06
4.38993e-06
4.4254e-06
4.46057e-06
4.49536e-06
4.52914e-06
4.56373e-06
4.59942e-06
4.63321e-06
4.66785e-06
4.69971e-06
4.73218e-06
4.76379e-06
4.79009e-06
4.81116e-06
4.84191e-06
4.88118e-06
4.92526e-06
4.998e-06
5.16029e-06
5.83848e-06
7.41035e-06
9.69739e-06
1.176e-05
1.40219e-05
1.57936e-05
1.62238e-05
2.17102e-05
3.52611e-05
4.94871e-05
7.23463e-05
8.90579e-05
0.000106525
0.000104651
0.000145132
8.33367e-05
8.17927e-05
7.02049e-05
6.72001e-05
6.64347e-05
6.54041e-05
6.45286e-05
6.37618e-05
6.29212e-05
6.20014e-05
6.09872e-05
5.99893e-05
5.8913e-05
5.78173e-05
5.67257e-05
5.55026e-05
5.43231e-05
5.29361e-05
5.15563e-05
4.98882e-05
4.81382e-05
4.62284e-05
4.41526e-05
4.2358e-05
3.98712e-05
3.7409e-05
3.3076e-05
2.30986e-05
9.95005e-06
7.45438e-06
8.02522e-06
8.81062e-06
9.44887e-06
9.12592e-06
7.799e-06
1.06886e-05
1.09507e-05
1.05019e-05
1.03264e-05
9.52562e-06
9.02018e-06
7.79839e-06
7.30238e-06
6.36641e-06
5.30993e-06
4.01089e-06
3.44783e-06
3.32706e-06
3.36599e-06
3.38219e-06
3.40206e-06
3.42287e-06
3.44229e-06
3.46556e-06
3.4871e-06
3.51223e-06
3.53631e-06
3.56143e-06
3.58658e-06
3.61229e-06
3.63855e-06
3.66521e-06
3.69221e-06
3.71955e-06
3.74718e-06
3.77472e-06
3.80181e-06
3.82908e-06
3.85583e-06
3.88005e-06
3.90486e-06
3.9286e-06
3.95359e-06
3.97839e-06
4.00697e-06
4.03715e-06
4.06625e-06
4.10336e-06
4.13368e-06
4.20361e-06
4.30863e-06
4.84683e-06
6.04136e-06
7.86077e-06
9.3606e-06
1.07569e-05
1.18233e-05
1.19332e-05
1.63599e-05
2.66875e-05
3.43851e-05
4.75602e-05
5.87466e-05
8.43627e-05
9.92638e-05
0.000155923
0.000119579
0.000104563
8.90181e-05
7.92089e-05
7.28409e-05
6.88021e-05
6.59691e-05
6.38505e-05
6.20807e-05
6.04766e-05
5.89575e-05
5.74922e-05
5.60833e-05
5.46858e-05
5.33322e-05
5.18968e-05
5.05022e-05
4.89402e-05
4.74072e-05
4.56261e-05
4.38342e-05
4.18344e-05
3.97922e-05
3.78367e-05
3.54388e-05
3.3001e-05
2.7586e-05
1.60884e-05
6.63972e-06
5.92252e-06
6.21315e-06
6.71557e-06
6.89963e-06
6.65352e-06
6.57839e-06
1.02275e-05
9.72158e-06
9.23591e-06
9.37661e-06
8.71196e-06
8.45719e-06
6.97067e-06
5.75277e-06
5.02005e-06
4.74239e-06
4.63558e-06
4.73394e-06
4.60234e-06
4.55614e-06
4.35696e-06
4.27929e-06
4.12021e-06
4.05958e-06
3.9591e-06
3.91903e-06
3.86343e-06
3.8408e-06
3.81648e-06
3.80588e-06
3.79901e-06
3.79821e-06
3.80041e-06
3.80529e-06
3.81236e-06
3.82131e-06
3.83236e-06
3.84421e-06
3.8598e-06
3.87452e-06
3.89994e-06
3.91523e-06
3.95657e-06
3.96836e-06
4.03813e-06
4.04016e-06
4.18191e-06
4.17256e-06
4.44052e-06
4.40429e-06
4.8525e-06
4.84431e-06
5.64409e-06
6.16501e-06
7.71882e-06
8.67768e-06
1.03528e-05
1.0974e-05
1.782e-05
2.53116e-05
3.62004e-05
4.68308e-05
6.07025e-05
7.54864e-05
8.73747e-05
0.000100691
0.000132001
0.000108421
0.000101331
9.44258e-05
8.81611e-05
8.33316e-05
7.94614e-05
7.60302e-05
7.28478e-05
6.97692e-05
6.6751e-05
6.37645e-05
6.0769e-05
5.78099e-05
5.49035e-05
5.2105e-05
4.94094e-05
4.69193e-05
4.47821e-05
4.28525e-05
4.12532e-05
3.97134e-05
3.8483e-05
3.71903e-05
3.61301e-05
3.48194e-05
3.35909e-05
3.1805e-05
2.9787e-05
2.70758e-05
1.85806e-05
9.01476e-06
7.3025e-06
6.97369e-06
4.55476e-06
3.29714e-06
2.98578e-05
2.61701e-05
2.51464e-05
2.50874e-05
2.44012e-05
2.37603e-05
2.17623e-05
1.98577e-05
1.67721e-05
1.46616e-05
1.39855e-05
1.42541e-05
1.40607e-05
1.38692e-05
1.31949e-05
1.28115e-05
1.22245e-05
1.19236e-05
1.15026e-05
1.12871e-05
1.10257e-05
1.08958e-05
1.07637e-05
1.06967e-05
1.06491e-05
1.06309e-05
1.06282e-05
1.064e-05
1.06636e-05
1.06999e-05
1.07518e-05
1.08093e-05
1.0882e-05
1.09586e-05
1.10712e-05
1.11578e-05
1.1324e-05
1.13989e-05
1.16437e-05
1.16952e-05
1.22418e-05
1.2279e-05
1.3208e-05
1.31052e-05
1.47824e-05
1.50234e-05
1.98065e-05
2.37127e-05
3.24001e-05
3.4593e-05
3.8637e-05
4.31281e-05
6.95402e-05
9.83858e-05
0.000147784
0.000199566
0.000321373
0.00041581
0.000731266
0.000714783
2.91241e-05
3.42473e-05
8.58701e-05
9.03035e-05
9.58171e-05
9.63543e-05
9.41336e-05
9.16741e-05
8.97059e-05
8.75678e-05
8.5906e-05
8.33794e-05
8.13643e-05
7.91446e-05
7.6694e-05
7.35529e-05
7.11411e-05
7.01127e-05
7.05232e-05
7.1049e-05
7.21598e-05
7.27873e-05
7.3851e-05
7.3363e-05
7.16365e-05
6.85101e-05
6.21604e-05
5.5259e-05
4.45913e-05
3.83474e-05
2.88418e-05
1.72182e-05
1.29924e-05
1.35869e-05
1.02286e-05
7.30489e-06
3.56519e-05
2.94059e-05
2.70737e-05
2.64462e-05
2.55133e-05
2.50331e-05
2.43838e-05
2.35115e-05
2.22384e-05
1.99624e-05
1.87577e-05
1.82896e-05
1.82772e-05
1.82599e-05
1.8007e-05
1.78432e-05
1.76618e-05
1.75744e-05
1.74999e-05
1.74786e-05
1.74704e-05
1.74958e-05
1.75348e-05
1.75956e-05
1.76698e-05
1.77567e-05
1.78526e-05
1.79554e-05
1.80634e-05
1.81731e-05
1.82825e-05
1.83998e-05
1.853e-05
1.86714e-05
1.88282e-05
1.89776e-05
1.91404e-05
1.92468e-05
1.93821e-05
1.94066e-05
1.94854e-05
1.93877e-05
1.96473e-05
1.95848e-05
2.04158e-05
2.17784e-05
2.65789e-05
3.4216e-05
4.21703e-05
4.7982e-05
5.17071e-05
6.06656e-05
8.53271e-05
0.000112633
0.000157753
0.000190701
0.000333545
0.000406587
0.000635013
0.000538097
2.66276e-05
9.75638e-05
0.000171853
0.000138115
0.000118285
0.00010782
0.000102165
0.0001026
0.000106338
0.000107516
0.000106016
0.000102472
0.000102542
0.000102394
0.000100345
9.41405e-05
9.11031e-05
9.50041e-05
0.000105412
0.000111254
0.000114745
0.000117354
0.000113756
0.000107424
0.000100316
9.21087e-05
8.33466e-05
7.48138e-05
6.60677e-05
5.25489e-05
3.72565e-05
2.47818e-05
2.38512e-05
2.63876e-05
2.27871e-05
1.26786e-05
4.791e-05
3.52656e-05
2.96e-05
2.87039e-05
2.59454e-05
2.47433e-05
2.40103e-05
2.35967e-05
2.3591e-05
2.17785e-05
2.03634e-05
1.9735e-05
1.98009e-05
1.97027e-05
1.9557e-05
1.94256e-05
1.93213e-05
1.92437e-05
1.9206e-05
1.92169e-05
1.92529e-05
1.9314e-05
1.93869e-05
1.94754e-05
1.95747e-05
1.96848e-05
1.98045e-05
1.99335e-05
2.007e-05
2.02149e-05
2.03706e-05
2.05382e-05
2.07188e-05
2.09111e-05
2.11123e-05
2.13039e-05
2.1476e-05
2.15931e-05
2.16312e-05
2.1588e-05
2.15808e-05
2.15114e-05
2.17083e-05
2.17479e-05
2.23733e-05
2.40877e-05
2.92824e-05
3.77572e-05
4.63832e-05
5.48443e-05
5.97877e-05
7.15418e-05
9.40437e-05
0.000115199
0.000154383
0.000201722
0.000312719
0.000317125
0.000384186
0.000257325
2.56473e-05
0.000106168
0.000158118
0.000117767
0.000109196
0.000109078
0.000113324
0.000118978
0.000115647
0.000112666
0.000107881
0.000105087
0.000105241
0.000113894
0.000125193
0.000131179
0.000135527
0.000138667
0.000137012
0.000127762
0.000118097
0.000107802
9.89807e-05
9.21881e-05
8.78679e-05
8.31249e-05
7.73708e-05
7.0728e-05
6.11718e-05
4.83812e-05
3.49329e-05
2.8544e-05
3.18721e-05
3.31318e-05
2.89057e-05
1.45822e-05
5.53901e-05
4.41827e-05
3.53166e-05
3.60816e-05
3.04555e-05
2.87507e-05
2.46548e-05
2.32537e-05
2.34165e-05
2.31986e-05
2.19775e-05
2.07724e-05
2.08293e-05
2.07112e-05
2.0911e-05
2.10319e-05
2.12486e-05
2.12678e-05
2.127e-05
2.13108e-05
2.14043e-05
2.15152e-05
2.1637e-05
2.17548e-05
2.18756e-05
2.19995e-05
2.21321e-05
2.22753e-05
2.24266e-05
2.2587e-05
2.2755e-05
2.29352e-05
2.31278e-05
2.33351e-05
2.35452e-05
2.37454e-05
2.39285e-05
2.40536e-05
2.40714e-05
2.40078e-05
2.39768e-05
2.39695e-05
2.39677e-05
2.42153e-05
2.41415e-05
2.63006e-05
2.93303e-05
3.9955e-05
4.84374e-05
6.0388e-05
6.70001e-05
7.77895e-05
0.000101198
0.000135908
0.000197631
0.000238039
0.000298547
0.00030222
0.000122674
7.97966e-05
2.2352e-05
0.000113225
0.000161762
0.000128664
0.000133404
0.000125268
0.000117914
0.000114727
0.000110988
0.000119201
0.000127599
0.000137997
0.000144699
0.000151211
0.000153514
0.000152637
0.000145101
0.000133448
0.000120365
0.000106369
9.58667e-05
8.58575e-05
7.65367e-05
6.81069e-05
6.17589e-05
5.65677e-05
5.24755e-05
4.87084e-05
4.17466e-05
3.48516e-05
2.97122e-05
3.09351e-05
3.52875e-05
3.49497e-05
3.00179e-05
1.45484e-05
5.85078e-05
5.66194e-05
4.48051e-05
4.47337e-05
3.85365e-05
3.73901e-05
3.11491e-05
2.80328e-05
2.538e-05
2.41888e-05
2.34984e-05
2.16799e-05
2.09546e-05
2.07768e-05
2.07696e-05
2.08153e-05
2.10279e-05
2.13255e-05
2.15919e-05
2.17772e-05
2.18927e-05
2.19879e-05
2.21023e-05
2.22198e-05
2.23494e-05
2.24864e-05
2.26346e-05
2.27904e-05
2.29378e-05
2.30842e-05
2.32357e-05
2.34004e-05
2.35739e-05
2.37636e-05
2.39308e-05
2.41039e-05
2.42388e-05
2.43134e-05
2.42415e-05
2.41093e-05
2.38292e-05
2.39069e-05
2.35978e-05
2.40208e-05
2.34119e-05
2.549e-05
2.74423e-05
3.84859e-05
4.90649e-05
6.24946e-05
7.31436e-05
8.26897e-05
0.000102867
0.000170896
0.000239976
0.000235965
0.000232942
0.000229601
4.02084e-05
4.26947e-05
3.03925e-05
0.000141822
0.000179759
0.00015544
0.000149139
0.000142652
0.000143302
0.000146539
0.000152928
0.000160493
0.000164309
0.000166288
0.000164161
0.000158494
0.000149716
0.00014005
0.000130257
0.000121508
0.000115053
0.00010867
0.000103146
9.68656e-05
9.03066e-05
8.12067e-05
7.07207e-05
6.00054e-05
4.97358e-05
4.16346e-05
3.50027e-05
3.08915e-05
2.82995e-05
3.00847e-05
3.32182e-05
3.36569e-05
3.01244e-05
1.46496e-05
5.78098e-05
7.09317e-05
6.03222e-05
5.13996e-05
4.58132e-05
4.25416e-05
3.64347e-05
2.97952e-05
2.60857e-05
2.50473e-05
2.38701e-05
2.17052e-05
2.08641e-05
2.07701e-05
2.07524e-05
2.08027e-05
2.0836e-05
2.09277e-05
2.10528e-05
2.11832e-05
2.13348e-05
2.1465e-05
2.15869e-05
2.16867e-05
2.17845e-05
2.18733e-05
2.1959e-05
2.20324e-05
2.20893e-05
2.21605e-05
2.22568e-05
2.23854e-05
2.25367e-05
2.27087e-05
2.28705e-05
2.30439e-05
2.32003e-05
2.33662e-05
2.34589e-05
2.3597e-05
2.3487e-05
2.37187e-05
2.32225e-05
2.36911e-05
2.27259e-05
2.47692e-05
2.58584e-05
3.73515e-05
4.84073e-05
6.20744e-05
7.42686e-05
8.61101e-05
9.46753e-05
0.000152091
0.000208153
0.000199426
0.000172754
0.000154198
2.84883e-05
3.58867e-05
4.6706e-05
0.000176781
0.000205667
0.000185889
0.000178903
0.000174746
0.000173868
0.000174403
0.000174834
0.000174809
0.000170016
0.000163937
0.000156399
0.00014811
0.000141601
0.000137116
0.000133628
0.000130082
0.000127372
0.00012428
0.000120085
0.000115402
0.000110729
0.000107659
0.000104238
0.000101161
9.79876e-05
9.0706e-05
8.3286e-05
7.35792e-05
6.59195e-05
6.21185e-05
4.89148e-05
4.49552e-05
4.53093e-05
1.53917e-05
5.16034e-05
7.32801e-05
6.93265e-05
5.86671e-05
4.69196e-05
4.32927e-05
3.79141e-05
2.98321e-05
2.57086e-05
2.46491e-05
2.35741e-05
2.12761e-05
1.94458e-05
1.85418e-05
1.83256e-05
1.84609e-05
1.90131e-05
1.94659e-05
1.98688e-05
2.01275e-05
2.03383e-05
2.04849e-05
2.06053e-05
2.06832e-05
2.07469e-05
2.0788e-05
2.08156e-05
2.08191e-05
2.08055e-05
2.07962e-05
2.07942e-05
2.08122e-05
2.08325e-05
2.08661e-05
2.08802e-05
2.09317e-05
2.092e-05
2.08082e-05
2.04153e-05
1.98287e-05
1.91804e-05
1.88674e-05
1.80656e-05
1.81992e-05
1.67631e-05
1.7976e-05
1.89155e-05
2.84025e-05
4.17717e-05
5.49489e-05
7.15765e-05
8.43336e-05
9.06697e-05
0.00010714
0.000160171
0.000167704
0.000180249
0.000151388
4.01071e-05
4.78084e-05
5.60556e-05
0.000188648
0.000212493
0.000203133
0.00020164
0.000191062
0.000185676
0.000182652
0.000176459
0.000171208
0.000166335
0.000160433
0.000156135
0.000151481
0.000149174
0.000146053
0.00014399
0.000142155
0.000140006
0.00013724
0.00013319
0.000127743
0.000120803
0.000114171
0.000108683
0.000103303
0.000101141
9.83084e-05
9.49973e-05
8.85342e-05
8.05817e-05
6.93731e-05
5.61938e-05
4.34509e-05
2.89975e-05
5.61524e-06
4.26037e-05
7.01168e-05
7.39646e-05
6.48779e-05
5.01732e-05
4.38183e-05
3.70018e-05
2.92614e-05
2.19423e-05
2.01081e-05
1.99641e-05
1.79263e-05
1.61895e-05
1.52465e-05
1.48121e-05
1.46796e-05
1.48339e-05
1.50366e-05
1.52752e-05
1.53951e-05
1.54961e-05
1.55239e-05
1.55349e-05
1.55008e-05
1.54569e-05
1.53972e-05
1.53251e-05
1.52285e-05
1.51529e-05
1.50884e-05
1.50273e-05
1.49768e-05
1.49178e-05
1.48443e-05
1.479e-05
1.47789e-05
1.46992e-05
1.45865e-05
1.4296e-05
1.37974e-05
1.3378e-05
1.33088e-05
1.29556e-05
1.30954e-05
1.26385e-05
1.31184e-05
1.46439e-05
2.0661e-05
3.21952e-05
4.13586e-05
5.62407e-05
7.09436e-05
8.72195e-05
0.000105327
0.000149451
0.000178206
0.000227022
0.000215225
2.81724e-05
3.26213e-05
4.03217e-05
0.000158021
0.000193307
0.00019095
0.000189786
0.000180719
0.000173213
0.000164639
0.000156755
0.000150246
0.000144531
0.000140148
0.000137271
0.000135701
0.000133883
0.000130093
0.000127584
0.000127647
0.000130433
0.000132155
0.000133184
0.000132419
0.00012553
9.68498e-05
7.652e-05
6.036e-05
4.66068e-05
3.83857e-05
3.43539e-05
3.27352e-05
2.89749e-05
2.90459e-05
3.18464e-05
3.44761e-05
2.52992e-05
1.45032e-05
3.93608e-05
5.35874e-05
6.09127e-05
6.64387e-05
5.58293e-05
4.82075e-05
3.76324e-05
2.75275e-05
2.02174e-05
1.75716e-05
1.7053e-05
1.56359e-05
1.37162e-05
1.24287e-05
1.20097e-05
1.18512e-05
1.18707e-05
1.19092e-05
1.19998e-05
1.20473e-05
1.21054e-05
1.21283e-05
1.21476e-05
1.21444e-05
1.21359e-05
1.21074e-05
1.20568e-05
1.2069e-05
1.22643e-05
1.24533e-05
1.26093e-05
1.27434e-05
1.28199e-05
1.28154e-05
1.28673e-05
1.28827e-05
1.28106e-05
1.26976e-05
1.24642e-05
1.16198e-05
1.11905e-05
1.09956e-05
1.09216e-05
1.08998e-05
1.08535e-05
1.05801e-05
1.12294e-05
1.60369e-05
2.51162e-05
3.14852e-05
4.18467e-05
6.08731e-05
8.43201e-05