/*--------------------------------*- C++ -*----------------------------------*\
| =========                 |                                                 |
| \\      /  F ield         | OpenFOAM: The Open Source CFD Toolbox           |
|  \\    /   O peration     | Version:  2.3.0                                 |
|   \\  /    A nd           | Web:      www.OpenFOAM.org                      |
|    \\/     M anipulation  |                                                 |
\*---------------------------------------------------------------------------*/
FoamFile
{
    version     2.0;
    format      ascii;
    class       surfaceScalarField;
    location    "11";
    object      phi.water;
}
// * * * * * * * * * * * * * * * * * * * * * * * * * * * * * * * * * * * * * //

dimensions      [0 3 -1 0 0 0 0];

internalField   nonuniform List<scalar> 
16448
(
-1.50727e-06
-1.62439e-06
3.8054e-07
1.44793e-08
-1.88179e-06
3.6107e-07
3.45699e-07
-7.66329e-07
4.37279e-07
7.14654e-07
-9.18576e-07
5.49851e-07
7.02969e-07
-4.49706e-07
4.62951e-07
7.14669e-07
-5.2456e-07
5.12601e-07
5.99079e-07
-4.39844e-07
5.55993e-07
4.97526e-07
-4.78954e-07
5.80477e-07
3.35843e-07
-4.71325e-07
6.33425e-07
1.92388e-07
-5.10059e-07
6.53725e-07
8.10009e-08
-5.54709e-07
6.66446e-07
3.66073e-08
-6.18526e-07
6.63191e-07
2.90957e-08
-6.72038e-07
6.79888e-07
5.25515e-08
-7.14648e-07
6.91442e-07
7.76359e-08
-7.41836e-07
7.17052e-07
1.05344e-07
-7.61585e-07
7.34124e-07
1.2482e-07
-7.7464e-07
7.55423e-07
1.40182e-07
-7.84656e-07
7.69519e-07
1.48087e-07
-7.91408e-07
7.8374e-07
1.534e-07
-7.98018e-07
7.92911e-07
1.54102e-07
-8.02157e-07
8.01672e-07
1.53911e-07
-8.06896e-07
8.07284e-07
1.51773e-07
-8.09977e-07
8.12322e-07
1.4944e-07
-8.1322e-07
8.15747e-07
1.46704e-07
-8.15659e-07
8.18599e-07
1.4416e-07
-8.17907e-07
8.20647e-07
1.41966e-07
-8.19825e-07
8.22227e-07
1.40365e-07
-8.21496e-07
8.23297e-07
1.39827e-07
-8.23148e-07
8.23904e-07
1.40326e-07
-8.24499e-07
8.2421e-07
1.43057e-07
-8.26288e-07
8.23794e-07
1.47747e-07
-8.27712e-07
8.23251e-07
1.57177e-07
-8.30475e-07
8.21308e-07
1.70792e-07
-8.33094e-07
8.19739e-07
1.94069e-07
-8.38431e-07
8.15455e-07
2.26472e-07
-8.44298e-07
8.12204e-07
2.76004e-07
-8.54389e-07
8.05207e-07
3.4182e-07
-8.66371e-07
8.00926e-07
4.31923e-07
-8.83944e-07
7.94249e-07
5.3961e-07
-9.04355e-07
7.9709e-07
6.59925e-07
-9.26571e-07
8.06693e-07
7.74796e-07
-9.51476e-07
8.37012e-07
8.71888e-07
-9.78568e-07
8.81844e-07
9.49671e-07
-1.01583e-06
9.38236e-07
1.08046e-06
-1.0793e-06
9.48735e-07
1.39907e-06
-1.25013e-06
9.38364e-07
1.85782e-06
-1.42191e-06
9.93139e-07
1.63118e-06
-1.06522e-06
1.34977e-06
-4.31931e-07
2.83625e-07
1.82618e-06
-2.54491e-06
2.80621e-07
1.83643e-06
-2.48092e-06
-2.02255e-06
1.98701e-06
-5.25964e-07
-3.73999e-06
1.79618e-06
2.70209e-06
-5.50985e-06
2.31929e-06
7.03606e-06
-7.47612e-06
3.12296e-06
9.8015e-06
-7.56339e-06
4.83964e-06
1.24928e-05
-6.47075e-06
3.69241e-06
1.12664e-05
-4.35068e-06
5.70541e-06
1.11588e-05
-2.32963e-06
1.5633e-06
3.36674e-06
3.1905e-06
1.47438e-05
3.01547e-05
3.85518e-07
-4.99461e-06
2.2002e-05
-1.8692e-05
-2.01699e-06
2.84136e-05
-1.40146e-05
5.81648e-06
2.91067e-05
-8.8552e-06
8.15697e-06
3.19216e-05
-8.13171e-06
5.31683e-06
3.28626e-05
-5.73222e-06
4.79122e-06
3.25579e-05
-4.45833e-06
4.76305e-06
3.2004e-05
-4.05227e-06
4.6061e-06
3.17691e-05
-4.20846e-06
4.44335e-06
3.1661e-05
-4.02655e-06
4.13469e-06
3.13094e-05
-2.89145e-06
3.24301e-06
2.89883e-05
-1.9919e-07
2.52027e-06
2.33879e-05
3.72188e-06
1.87858e-06
1.58654e-05
5.53937e-06
1.9831e-06
9.94579e-06
4.42422e-06
1.49539e-06
4.8682e-06
4.66357e-06
4.14013e-07
8.96931e-07
3.63541e-06
3.35859e-07
-7.34894e-07
3.56354e-07
1.27547e-06
-2.92738e-06
-8.48916e-07
3.0414e-06
-5.04452e-06
-2.32922e-06
4.44637e-06
-7.13963e-06
-3.22263e-06
5.31774e-06
-8.18811e-06
-4.36703e-06
5.41551e-06
-8.10829e-06
-5.33594e-06
5.25613e-06
-6.86396e-06
-6.29742e-06
5.05308e-06
-5.89972e-06
-5.96271e-06
4.99848e-06
-5.20108e-06
-5.50653e-06
4.80789e-06
-3.57518e-06
-5.43292e-06
3.80701e-06
-1.77781e-06
-4.75945e-06
2.96208e-06
-3.69223e-07
-4.08779e-06
2.6792e-06
-1.97964e-06
-1.67344e-06
3.28385e-06
-6.40249e-06
9.97492e-07
3.42536e-06
-9.14495e-06
1.02428e-06
1.71817e-06
-1.01729e-05
-6.94629e-08
1.09746e-06
-9.77165e-06
-1.66915e-06
1.26786e-06
-8.01863e-06
-2.48269e-06
7.29671e-07
-5.14221e-06
-2.48466e-06
-3.91764e-07
-4.03624e-06
-1.10597e-06
-2.11459e-06
-2.21568e-06
-1.09491e-07
-8.84683e-07
-2.92632e-06
-1.84412e-07
-5.92814e-07
-1.06502e-06
8.92092e-09
-1.24596e-07
-1.476e-06
8.92589e-08
5.01847e-08
-6.12474e-07
-1.06312e-08
1.48101e-07
-7.33138e-07
1.10246e-07
1.95118e-07
-5.4701e-07
6.00465e-08
1.69816e-07
-5.72195e-07
1.18059e-07
9.91156e-08
-5.43097e-07
1.42343e-07
-1.3996e-08
-5.6298e-07
1.65829e-07
-1.04095e-07
-6.15959e-07
1.5156e-07
-1.22351e-07
-7.29431e-07
1.29182e-07
-1.04701e-07
-8.17484e-07
1.27963e-07
-5.61972e-08
-8.93559e-07
1.30484e-07
-1.19849e-08
-9.32073e-07
1.46188e-07
3.15171e-08
-9.63492e-07
1.58512e-07
6.05876e-08
-9.78024e-07
1.74466e-07
8.36392e-08
-9.9239e-07
1.84804e-07
9.65475e-08
-9.99761e-07
1.95588e-07
1.04726e-07
-1.00816e-06
2.02091e-07
1.07734e-07
-1.01333e-06
2.08306e-07
1.08389e-07
-1.01927e-06
2.11844e-07
1.06982e-07
-1.02347e-06
2.15035e-07
1.0478e-07
-1.02772e-06
2.1684e-07
1.02105e-07
-1.03107e-06
2.18223e-07
9.95427e-08
-1.03413e-06
2.18927e-07
9.73657e-08
-1.03679e-06
2.19288e-07
9.58529e-08
-1.03908e-06
2.19241e-07
9.55765e-08
-1.04152e-06
2.18799e-07
9.65098e-08
-1.0434e-06
2.18124e-07
1.00144e-07
-1.04655e-06
2.16792e-07
1.0585e-07
-1.04855e-06
2.15313e-07
1.17611e-07
-1.0545e-06
2.12464e-07
1.33503e-07
-1.05863e-06
2.09859e-07
1.61111e-07
-1.07044e-06
2.04638e-07
1.98907e-07
-1.08159e-06
1.99757e-07
2.57027e-07
-1.10379e-06
1.91568e-07
3.34623e-07
-1.12792e-06
1.84292e-07
4.40295e-07
-1.16566e-06
1.76406e-07
5.6723e-07
-1.20668e-06
1.75809e-07
7.07335e-07
-1.25209e-06
1.85877e-07
8.31279e-07
-1.29291e-06
2.18037e-07
9.0475e-07
-1.32448e-06
2.73127e-07
9.06694e-07
-1.37938e-06
3.62379e-07
8.86687e-07
-1.54091e-06
4.83088e-07
9.54472e-07
-1.96333e-06
6.6225e-07
5.62589e-07
-2.04179e-06
1.05591e-06
-6.76317e-07
-1.24642e-06
1.4615e-06
-2.1895e-06
2.18719e-07
1.5884e-06
-1.91258e-06
-9.3994e-07
9.69972e-07
1.67616e-06
-5.08502e-06
-4.69024e-07
6.05428e-06
-8.02725e-06
-5.33848e-08
1.073e-05
-1.0724e-05
6.07089e-07
1.56285e-05
-1.32096e-05
8.43744e-07
1.82207e-05
-1.24447e-05
2.37206e-06
2.21373e-05
-1.19421e-05
1.51382e-06
2.08734e-05
-4.88521e-06
2.04369e-06
1.78495e-05
-4.44131e-06
4.31779e-06
6.36346e-06
2.99256e-06
2.25872e-05
3.0577e-05
-4.44555e-08
-2.2723e-06
1.9229e-05
-2.78501e-05
-8.46759e-06
2.39026e-05
-2.05748e-05
-1.44768e-07
2.17447e-05
-1.32171e-05
6.51457e-06
2.18319e-05
-9.5356e-06
1.31668e-06
1.89413e-05
-3.82678e-06
9.85133e-07
1.09131e-05
-9.81874e-07
4.55177e-06
4.18203e-06
-2.77524e-06
5.45405e-06
3.17552e-06
-5.11238e-06
1.91044e-06
3.02775e-06
-5.76983e-06
1.89105e-06
2.40851e-06
-3.74427e-06
1.47206e-06
2.53801e-06
5.25835e-07
-8.54523e-07
4.60065e-06
5.18023e-06
-3.52099e-06
5.95419e-06
8.3671e-06
-4.18126e-06
4.81129e-06
1.01141e-05
-4.54702e-06
8.64768e-07
1.03462e-05
-1.73611e-06
-3.83406e-06
6.55115e-06
1.78309e-06
-7.74186e-06
2.28598e-06
1.97818e-06
-1.00506e-05
-1.01033e-06
2.47012e-06
-1.14619e-05
-3.91898e-06
3.00113e-06
-1.15172e-05
-5.83878e-06
2.67137e-06
-1.06723e-05
-6.88873e-06
1.67682e-06
-9.70747e-06
-7.49753e-06
1.1968e-06
-7.72016e-06
-8.2061e-06
-7.86259e-08
-5.47745e-06
-7.54627e-06
-6.59151e-07
-3.95167e-06
-6.28548e-06
-7.4683e-07
-1.55991e-06
-5.36993e-06
-2.45474e-06
1.6083e-06
-3.73304e-06
-4.19463e-06
4.19706e-06
-2.1379e-06
-4.53864e-06
7.13633e-06
-3.84207e-07
-4.2285e-06
8.99343e-06
1.22241e-06
-2.08201e-06
8.20305e-06
2.15361e-06
-3.38945e-07
4.12264e-06
1.03979e-06
2.97115e-06
-1.08212e-06
-1.25901e-06
4.79463e-06
-4.01806e-06
-3.37705e-06
3.8303e-06
-3.88089e-06
-4.66088e-06
2.03905e-06
-6.15451e-06
-1.76262e-06
-1.89341e-06
-2.28269e-06
-1.49846e-07
-9.06695e-07
-3.47313e-06
-4.41049e-07
-8.83368e-07
-1.04724e-06
-3.81006e-08
-5.10369e-07
-1.9412e-06
9.19502e-08
-4.08591e-07
-6.54117e-07
-5.81277e-08
-2.78275e-07
-8.97064e-07
3.32881e-08
-2.04565e-07
-4.85747e-07
-1.34311e-07
-1.32232e-07
-5.51262e-07
-9.34843e-08
-1.35538e-07
-4.28594e-07
-1.11156e-07
-1.85444e-07
-4.20611e-07
-9.26489e-08
-2.54636e-07
-4.34497e-07
-1.11969e-07
-2.53361e-07
-5.68687e-07
-1.61928e-07
-2.10467e-07
-6.74587e-07
-1.8562e-07
-1.42069e-07
-7.66677e-07
-1.95204e-07
-8.08982e-08
-8.0577e-07
-1.87316e-07
-2.7735e-08
-8.38442e-07
-1.78104e-07
9.16061e-09
-8.48456e-07
-1.66311e-07
3.67829e-08
-8.61595e-07
-1.58305e-07
5.29731e-08
-8.65231e-07
-1.50583e-07
6.35066e-08
-8.72307e-07
-1.46274e-07
6.79945e-08
-8.75288e-07
-1.42407e-07
7.00175e-08
-8.80387e-07
-1.4079e-07
6.9317e-08
-8.83354e-07
-1.39293e-07
6.77651e-08
-8.87004e-07
-1.39055e-07
6.55199e-08
-8.8972e-07
-1.38984e-07
6.322e-08
-8.92305e-07
-1.39411e-07
6.11907e-08
-8.94609e-07
-1.40029e-07
5.98425e-08
-8.96606e-07
-1.41e-07
5.94655e-08
-8.988e-07
-1.42201e-07
6.03954e-08
-9.00664e-07
-1.4353e-07
6.32734e-08
-9.04123e-07
-1.45138e-07
6.85329e-08
-9.0681e-07
-1.46848e-07
7.81315e-08
-9.14538e-07
-1.49373e-07
9.2249e-08
-9.20851e-07
-1.51713e-07
1.16e-07
-9.3798e-07
-1.55979e-07
1.48898e-07
-9.54182e-07
-1.60061e-07
1.99654e-07
-9.87699e-07
-1.66547e-07
2.6838e-07
-1.02323e-06
-1.73115e-07
3.59388e-07
-1.07898e-06
-1.77316e-07
4.69287e-07
-1.13983e-06
-1.76388e-07
5.83697e-07
-1.20734e-06
-1.58729e-07
6.76486e-07
-1.26176e-06
-1.23547e-07
6.95817e-07
-1.2836e-06
-5.97869e-08
5.92619e-07
-1.29078e-06
1.49343e-08
2.68412e-07
-1.32208e-06
1.057e-07
-3.97034e-07
-1.60979e-06
3.15814e-07
-1.43105e-06
-1.77076e-06
7.77932e-07
-2.37644e-06
-1.51633e-06
1.23524e-06
-2.01367e-06
-1.29243e-06
1.16938e-06
2.12628e-07
-3.30217e-06
1.85443e-07
4.15766e-06
-8.44499e-06
-4.6435e-07
9.11462e-06
-1.32334e-05
2.95575e-07
1.30586e-05
-1.60173e-05
1.38659e-06
1.51002e-05
-1.7185e-05
1.93814e-06
1.63715e-05
-1.55192e-05
1.83953e-06
2.12388e-05
-1.59573e-05
-9.89492e-07
1.92047e-05
-1.97417e-06
-6.19567e-07
1.86842e-05
-4.5624e-06
-1.7348e-07
-2.33037e-06
1.09906e-05
2.13063e-05
3.301e-05
-6.95232e-06
-3.09248e-06
2.41545e-05
-3.90946e-05
-9.74356e-06
2.34571e-05
-2.37856e-05
1.33548e-06
1.74911e-05
-9.42179e-06
2.16251e-06
1.46626e-05
-5.17228e-06
-1.53485e-06
6.79667e-06
2.91846e-06
1.12072e-06
-2.58687e-06
3.54546e-06
4.85621e-06
-5.96022e-06
-1.03785e-06
1.63596e-06
-7.9674e-06
-3.67346e-06
5.68268e-07
-1.03229e-05
-3.88764e-06
4.73355e-07
-1.22564e-05
-1.57119e-06
-2.39595e-07
-1.23743e-05
2.91246e-06
-2.2688e-06
-1.22851e-05
9.07312e-06
-3.98204e-06
-1.14549e-05
1.10611e-05
-3.52418e-06
-1.15019e-05
1.14786e-05
-1.3175e-06
-1.23881e-05
9.88213e-06
1.35028e-06
-1.3018e-05
5.00614e-06
2.17492e-06
-1.42376e-05
1.3449e-06
2.16071e-06
-1.53444e-05
-2.57048e-06
2.66689e-06
-1.57383e-05
-5.29668e-06
1.77161e-06
-1.43297e-05
-7.04078e-06
-2.06554e-07
-1.19211e-05
-7.21436e-06
-2.083e-06
-9.67377e-06
-6.23394e-06
-3.51091e-06
-6.93546e-06
-5.81626e-06
-5.12815e-06
-3.67454e-06
-4.26688e-06
-6.54031e-06
-8.83271e-07
-2.08497e-06
-6.99178e-06
1.73489e-06
-6.62479e-07
-7.32562e-06
4.65538e-06
9.57057e-07
-7.61059e-06
7.62491e-06
2.3462e-06
-7.45363e-06
1.13224e-05
2.93383e-06
-7.01557e-06
1.39785e-05
4.97622e-06
-6.40981e-06
1.50701e-05
5.97546e-06
-4.91349e-06
1.44994e-05
4.71131e-06
-3.10082e-06
1.19801e-05
2.90756e-06
-1.6473e-06
6.20094e-06
1.03313e-06
1.36898e-06
1.65386e-06
-1.42863e-06
1.31482e-06
-1.98719e-06
-2.51345e-06
-1.67408e-06
-2.38441e-06
1.42601e-07
-6.50533e-07
-4.17539e-06
-3.21264e-07
-7.66049e-07
-1.32466e-06
3.97208e-07
-4.43203e-07
-2.78582e-06
5.21094e-07
-3.59189e-07
-1.12366e-06
3.88213e-07
-2.86192e-07
-1.39219e-06
4.22131e-07
-2.25628e-07
-6.21059e-07
7.65932e-08
-2.03441e-07
-6.28987e-07
5.52509e-08
-2.26593e-07
-3.17267e-07
-8.79679e-08
-2.93738e-07
-2.69817e-07
-8.36343e-08
-3.77888e-07
-2.10903e-07
-1.38931e-07
-3.90466e-07
-3.33535e-07
-2.22259e-07
-3.42443e-07
-4.36599e-07
-2.85745e-07
-2.67223e-07
-5.22081e-07
-3.19625e-07
-1.92902e-07
-5.49059e-07
-3.30774e-07
-1.31577e-07
-5.68758e-07
-3.30762e-07
-8.54834e-08
-5.67338e-07
-3.26942e-07
-5.311e-08
-5.71382e-07
-3.22326e-07
-3.1879e-08
-5.67873e-07
-3.18321e-07
-1.87408e-08
-5.69851e-07
-3.15334e-07
-1.13491e-08
-5.69257e-07
-3.13162e-07
-7.68001e-09
-5.71859e-07
-3.1194e-07
-6.68815e-09
-5.73021e-07
-3.11074e-07
-7.18314e-09
-5.75335e-07
-3.10919e-07
-8.53439e-09
-5.77326e-07
-3.10795e-07
-1.03139e-08
-5.7953e-07
-3.10739e-07
-1.19552e-08
-5.81578e-07
-3.11141e-07
-1.29359e-08
-5.83682e-07
-3.11682e-07
-1.32358e-08
-5.86187e-07
-3.12058e-07
-1.22475e-08
-5.889e-07
-3.12487e-07
-1.02935e-08
-5.93156e-07
-3.1265e-07
-5.86745e-09
-5.98001e-07
-3.12958e-07
7.38083e-10
-6.07687e-07
-3.13157e-07
1.22472e-08
-6.18414e-07
-3.13653e-07
2.94009e-08
-6.40173e-07
-3.14641e-07
5.54683e-08
-6.63944e-07
-3.15988e-07
9.16309e-08
-7.0624e-07
-3.17287e-07
1.35426e-07
-7.49764e-07
-3.16915e-07
1.84299e-07
-8.16297e-07
-3.11197e-07
2.31424e-07
-8.86785e-07
-2.99796e-07
2.66925e-07
-9.68346e-07
-2.74083e-07
2.91611e-07
-1.04131e-06
-2.44708e-07
2.94698e-07
-1.09007e-06
-1.96044e-07
2.30237e-07
-1.08505e-06
-1.40733e-07
-1.73099e-08
-1.01247e-06
-6.11177e-08
-6.73385e-07
-1.03453e-06
8.20267e-08
-1.63468e-06
-1.14408e-06
3.38232e-07
-2.24504e-06
-1.48776e-06
5.84245e-07
-1.03437e-06
-2.75704e-06
2.82391e-07
1.43715e-06
-5.6747e-06
7.80715e-09
4.82485e-06
-1.18179e-05
1.39716e-07
6.8146e-06
-1.77826e-05
2.6153e-06
4.36077e-06
-1.84535e-05
4.91047e-06
-1.55741e-07
-1.80558e-05
5.33264e-06
2.83497e-06
-2.00025e-05
1.65571e-06
6.77172e-06
-1.74105e-05
-2.53084e-06
1.22012e-05
-1.13027e-07
-6.40097e-06
2.11393e-05
-9.24273e-06
-5.98345e-06
9.47221e-06
1.53061e-05
2.14065e-05
3.62071e-05
-6.53459e-06
-2.72098e-06
1.22997e-05
-4.09717e-05
-8.79208e-06
4.42316e-06
-1.98811e-05
2.83435e-06
1.85325e-06
-9.11648e-06
2.26306e-06
-9.41034e-06
1.9923e-06
4.09908e-06
-1.4681e-05
4.4802e-06
3.7091e-06
-1.55963e-05
3.62966e-06
8.31044e-07
-1.70255e-05
-7.06949e-07
1.09826e-06
-2.11843e-05
-1.7709e-06
2.25628e-06
-2.38552e-05
-2.76738e-06
1.55068e-06
-2.54504e-05
-1.03949e-06
1.06333e-06
-2.74792e-05
2.48258e-06
2.45861e-06
-2.66282e-05
5.80939e-06
2.41275e-06
-2.53994e-05
7.23375e-06
2.59867e-06
-2.41521e-05
7.21079e-06
3.0206e-06
-2.29479e-05
5.0326e-06
3.64522e-06
-2.2923e-05
1.34631e-06
3.63487e-06
-2.32478e-05
-1.54323e-06
3.21305e-06
-2.36406e-05
-4.08825e-06
1.91058e-06
-2.2418e-05
-5.93321e-06
-5.86095e-07
-1.94577e-05
-6.37038e-06
-3.63073e-06
-1.53829e-05
-4.87888e-06
-6.41029e-06
-1.23526e-05
-1.55124e-06
-7.71299e-06
-9.11388e-06
-9.10554e-08
-8.96398e-06
-6.25852e-06
2.94313e-06
-1.00654e-05
-4.29783e-06
6.20398e-06
-1.02496e-05
-2.36169e-06
7.43388e-06
-1.00325e-05
-9.377e-07
7.36006e-06
-7.82699e-06
2.00319e-06
6.12874e-06
-6.72343e-06
6.45699e-06
4.50744e-06
-6.02742e-06
9.66619e-06
4.76566e-06
-2.99865e-06
1.18259e-05
6.04628e-06
-2.23048e-06
1.25238e-05
6.45297e-06
-2.43958e-06
1.21074e-05
5.79791e-06
-2.47401e-06
9.52408e-06
5.57696e-06
-1.96048e-06
4.87847e-06
5.21958e-06
-2.0026e-06
7.00037e-06
-4.1091e-06
-2.12723e-06
-2.38596e-06
4.62572e-07
-8.84912e-07
-4.58309e-06
-8.35694e-07
-1.05559e-06
-1.91519e-06
7.65876e-07
-6.30659e-07
-3.75691e-06
5.44415e-07
-3.79782e-07
-2.20146e-06
8.29811e-07
-1.90592e-07
-2.3938e-06
8.12701e-07
1.0012e-07
-1.34315e-06
4.34392e-07
1.0201e-07
-9.4012e-07
3.10611e-07
1.31027e-07
-4.16338e-07
7.07874e-08
-4.43232e-08
-1.60373e-07
6.55519e-08
-2.27759e-07
1.00544e-08
-3.72122e-08
-3.51466e-07
-6.08976e-08
-1.48593e-07
-3.52565e-07
-1.78007e-07
-2.57236e-07
-3.038e-07
-2.46642e-07
-3.24126e-07
-2.42573e-07
-2.49072e-07
-3.61137e-07
-1.88066e-07
-2.44725e-07
-3.7852e-07
-1.43054e-07
-2.26229e-07
-3.86086e-07
-1.11197e-07
-2.15454e-07
-3.87777e-07
-8.81347e-08
-2.0288e-07
-3.88042e-07
-7.44847e-08
-1.976e-07
-3.85905e-07
-6.59062e-08
-1.93842e-07
-3.83984e-07
-6.18065e-08
-1.94113e-07
-3.81852e-07
-5.97012e-08
-1.9508e-07
-3.8004e-07
-5.96892e-08
-1.97539e-07
-3.77815e-07
-6.035e-08
-2.00692e-07
-3.75965e-07
-6.10618e-08
-2.0452e-07
-3.74307e-07
-6.16592e-08
-2.08673e-07
-3.72298e-07
-6.1832e-08
-2.13363e-07
-3.70155e-07
-6.17383e-08
-2.18468e-07
-3.67795e-07
-6.06279e-08
-2.2466e-07
-3.65357e-07
-5.9326e-08
-2.3226e-07
-3.62166e-07
-5.59304e-08
-2.4203e-07
-3.59368e-07
-5.20674e-08
-2.55977e-07
-3.55521e-07
-4.3959e-08
-2.74175e-07
-3.52345e-07
-3.4433e-08
-3.01767e-07
-3.4785e-07
-1.91666e-08
-3.36747e-07
-3.42418e-07
-5.4936e-09
-3.86596e-07
-3.33164e-07
1.94372e-09
-4.3655e-07
-3.20536e-07
-8.09395e-09
-5.02586e-07
-3.03422e-07
-4.80202e-08
-5.62068e-07
-2.8457e-07
-1.24733e-07
-6.25575e-07
-2.65746e-07
-2.15266e-07
-6.90398e-07
-2.6012e-07
-2.64933e-07
-7.77258e-07
-2.62732e-07
-2.7094e-07
-8.20978e-07
-2.57788e-07
-3.19857e-07
-7.43467e-07
-2.19288e-07
-6.23316e-07
-6.01957e-07
-1.28671e-07
-1.15484e-06
-6.3114e-07
2.04626e-08
-1.59776e-06
-1.26326e-06
2.20027e-07
-7.76733e-07
-3.74742e-06
2.58794e-07
1.13193e-06
-7.99193e-06
5.78332e-07
7.92242e-07
-1.31362e-05
1.74474e-06
-7.41187e-06
-1.52574e-05
5.68418e-06
-1.82077e-05
-1.61041e-05
8.44224e-06
-2.19218e-05
-2.00957e-05
5.76413e-06
-1.9881e-05
-2.12869e-05
-6.504e-07
-1.48818e-05
-1.58901e-05
-6.9093e-06
1.04727e-05
-1.18826e-05
-1.23902e-05
2.88875e-05
-2.74305e-05
-1.28474e-06
1.82153e-05
2.27865e-05
2.2112e-05
3.92272e-05
-4.18738e-06
-1.16933e-06
7.1563e-06
-3.87421e-05
-8.38097e-06
-7.97822e-06
-1.17317e-05
6.14892e-06
-1.40274e-05
-7.22605e-06
4.1518e-06
-1.8758e-05
3.15788e-06
3.56415e-06
-2.09336e-05
3.80939e-06
2.84709e-06
-2.31878e-05
2.9796e-06
2.90438e-06
-2.77086e-05
-9.44652e-07
4.75792e-06
-3.213e-05
-2.26253e-06
4.91196e-06
-3.47476e-05
-4.30486e-06
4.1526e-06
-3.62783e-05
-4.15992e-06
4.64879e-06
-3.60421e-05
-2.55904e-06
4.80357e-06
-3.46564e-05
-5.90209e-07
5.01307e-06
-3.25537e-05
3.02719e-07
4.82814e-06
-3.0178e-05
2.34822e-07
4.60024e-06
-2.82924e-05
-9.61331e-07
4.10865e-06
-2.82557e-05
-1.76982e-06
3.07931e-06
-2.81964e-05
-3.11521e-06
1.51169e-06
-2.77834e-05
-3.5077e-06
-9.95433e-07
-2.65946e-05
-3.39576e-06
-3.72895e-06
-2.45785e-05
-1.74425e-06
-6.64474e-06
-2.16352e-05
4.12394e-07
-8.23608e-06
-1.86554e-05
4.17719e-06
-8.70897e-06
-1.54506e-05
5.81208e-06
-9.10829e-06
-1.2292e-05
7.411e-06
-7.62658e-06
-1.10154e-05
1.01324e-05
-5.20516e-06
-9.9374e-06
1.06826e-05
-4.32668e-06
-8.63936e-06
9.84371e-06
-3.78169e-06
-6.1261e-06
8.16594e-06
-4.55046e-06
-2.81522e-06
6.15763e-06
-4.96107e-06
5.02692e-07
5.68149e-06
-4.23374e-06
3.7399e-06
6.29109e-06
-3.48203e-06
6.56649e-06
7.33414e-06
-3.70775e-06
7.8193e-06
8.3419e-06
-3.79681e-06
7.20143e-06
9.02295e-06
-2.82811e-06
4.48183e-06
1.06191e-05
-2.67988e-06
1.56377e-05
-4.15549e-06
-3.03594e-06
-2.13286e-06
6.53899e-07
-1.30514e-06
-4.7183e-06
-1.59808e-06
-1.30046e-06
-2.41991e-06
5.07185e-07
-6.75617e-07
-4.0823e-06
-3.01219e-07
-3.1755e-07
-3.15888e-06
6.04145e-07
-2.12372e-07
-3.25715e-06
7.58121e-07
1.06898e-07
-2.25152e-06
5.91002e-07
2.76879e-07
-1.53863e-06
4.31752e-07
5.46601e-07
-8.52775e-07
1.70262e-07
4.44385e-07
-1.96243e-07
1.39004e-07
1.99905e-07
1.89871e-07
6.49953e-08
-5.43081e-08
2.27624e-07
-3.41295e-08
-1.75947e-07
1.12513e-07
-1.68515e-07
-2.10545e-07
4.60982e-08
-2.57832e-07
-2.04904e-07
6.10643e-08
-3.15411e-07
-1.85787e-07
8.45143e-08
-3.47998e-07
-1.63695e-07
1.19016e-07
-3.66947e-07
-1.45718e-07
1.41249e-07
-3.74291e-07
-1.3282e-07
1.61385e-07
-3.76756e-07
-1.24948e-07
1.70696e-07
-3.75761e-07
-1.19988e-07
1.75039e-07
-3.73435e-07
-1.17929e-07
1.73503e-07
-3.69263e-07
-1.17091e-07
1.69118e-07
-3.64637e-07
-1.17661e-07
1.62525e-07
-3.59085e-07
-1.18587e-07
1.54363e-07
-3.53736e-07
-1.19762e-07
1.45106e-07
-3.4804e-07
-1.21245e-07
1.34984e-07
-3.41779e-07
-1.22843e-07
1.23986e-07
-3.35332e-07
-1.24965e-07
1.12575e-07
-3.28514e-07
-1.26575e-07
9.93154e-08
-3.21936e-07
-1.28981e-07
8.52259e-08
-3.14656e-07
-1.30276e-07
6.78702e-08
-3.08162e-07
-1.33394e-07
4.84423e-08
-3.00852e-07
-1.35897e-07
2.38327e-08
-2.9504e-07
-1.42468e-07
-7.56965e-09
-2.8712e-07
-1.46913e-07
-5.28182e-08
-2.78931e-07
-1.61895e-07
-1.04125e-07
-2.66883e-07
-1.93421e-07
-1.52599e-07
-2.51774e-07
-2.54378e-07
-2.07194e-07
-2.33745e-07
-3.52538e-07
-2.46314e-07
-2.16848e-07
-4.80164e-07
-2.91464e-07
-2.05727e-07
-6.04909e-07
-3.50614e-07
-2.14205e-07
-6.42242e-07
-4.77425e-07
-2.61609e-07
-5.84296e-07
-5.54955e-07
-3.23081e-07
-5.35586e-07
-4.63389e-07
-3.27342e-07
-7.89782e-07
-1.04699e-07
-2.41598e-07
-1.31015e-06
4.3848e-10
-1.09354e-07
-1.66003e-06
-1.02657e-06
1.48724e-07
-1.34537e-06
-4.46668e-06
5.7328e-07
-2.68773e-06
-8.1222e-06
1.63073e-06
-1.31173e-05
-6.39552e-06
3.68789e-06
-2.84574e-05
-5.30042e-06
5.42291e-06
-3.35221e-05
-1.3492e-05
2.42995e-06
-3.28153e-05
-1.96942e-05
-1.14428e-06
-3.21278e-05
-2.10391e-05
-8.67562e-07
-2.55822e-05
-2.03555e-05
-2.51718e-06
1.85979e-06
-3.28614e-05
-5.27851e-06
3.86428e-06
-3.64787e-05
4.72465e-06
2.16256e-05
1.37569e-05
1.81837e-05
4.28369e-05
-3.9741e-06
-2.65807e-06
2.02699e-06
-2.97678e-05
-9.18793e-06
-1.21327e-05
-3.83667e-06
5.08919e-06
-1.7977e-05
-3.36742e-06
1.95515e-06
-2.6797e-05
7.0686e-06
4.90554e-06
-3.67771e-05
7.87495e-06
5.92814e-06
-4.43023e-05
4.63037e-06
5.88399e-06
-4.8129e-05
-1.5501e-06
4.42108e-06
-4.9814e-05
-4.69977e-06
4.09804e-06
-5.1136e-05
-7.21149e-06
4.19323e-06
-5.14383e-05
-8.0947e-06
4.20188e-06
-5.03848e-05
-8.30045e-06
4.65736e-06
-4.81946e-05
-7.63546e-06
4.83115e-06
-4.5484e-05
-7.14731e-06
4.72153e-06
-4.23404e-05
-6.90574e-06
3.98266e-06
-3.89247e-05
-7.10021e-06
2.71216e-06
-3.56755e-05
-5.96171e-06
9.34321e-07
-3.26932e-05
-4.75953e-06
-1.35281e-06
-2.95875e-05
-3.0899e-06
-3.5472e-06
-2.61256e-05
-1.84697e-06
-5.03742e-06
-2.2401e-05
2.97262e-07
-5.79305e-06
-1.99912e-05
1.768e-06
-3.7838e-06
-1.83031e-05
4.64768e-06
-2.16694e-06
-1.74212e-05
6.45709e-06
-1.53159e-06
-1.5741e-05
6.81874e-06
-1.09093e-06
-1.4164e-05
8.88463e-06
-3.29925e-07
-1.32886e-05
9.41369e-06
3.93895e-07
-1.21375e-05
8.79707e-06
-1.042e-07
-1.11953e-05
8.26697e-06
-1.04298e-06
-9.043e-06
7.42791e-06
-3.42307e-06
-5.85163e-06
7.59323e-06
-5.10388e-06
-2.81951e-06
8.11491e-06
-4.85653e-06
1.67424e-08
9.02138e-06
-4.52376e-06
1.94186e-06
1.07011e-05
-4.28447e-06
2.51037e-06
1.2288e-05
-3.83355e-06
1.15612e-06
1.58781e-05
-3.90481e-06
2.11194e-05
-4.3256e-06
-4.08943e-06
-1.19815e-06
5.75751e-07
-1.49601e-06
-4.8514e-06
-2.46591e-06
-7.41919e-07
-1.92291e-06
-1.24667e-06
-8.36717e-08
-3.16484e-06
-1.57638e-06
4.29215e-07
-2.77505e-06
-8.92702e-07
7.72064e-08
-2.98431e-06
8.03155e-08
1.94865e-07
-2.56983e-06
2.01853e-07
2.55087e-07
-1.81721e-06
2.188e-07
6.99719e-07
-1.30072e-06
7.02154e-09
7.77173e-07
-2.53059e-07
-1.74083e-08
5.80836e-07
3.90001e-07
-2.42939e-09
2.94684e-07
5.21992e-07
-8.28272e-09
8.79144e-08
4.02645e-07
-8.32983e-08
-2.17619e-08
3.08615e-07
-1.52908e-07
-8.05932e-08
3.22352e-07
-2.02465e-07
-1.14353e-07
3.53604e-07
-2.35439e-07
-1.33935e-07
3.98445e-07
-2.5996e-07
-1.44946e-07
4.26473e-07
-2.74416e-07
-1.54302e-07
4.52352e-07
-2.81816e-07
-1.62607e-07
4.63055e-07
-2.84316e-07
-1.70683e-07
4.67446e-07
-2.84583e-07
-1.78013e-07
4.63794e-07
-2.83239e-07
-1.84562e-07
4.55941e-07
-2.80524e-07
-1.90532e-07
4.44865e-07
-2.7663e-07
-1.9607e-07
4.31925e-07
-2.72253e-07
-2.01485e-07
4.17428e-07
-2.67133e-07
-2.06688e-07
4.01698e-07
-2.61697e-07
-2.11619e-07
3.84876e-07
-2.56146e-07
-2.16917e-07
3.68106e-07
-2.50376e-07
-2.22113e-07
3.49439e-07
-2.45078e-07
-2.28521e-07
3.30809e-07
-2.39272e-07
-2.35219e-07
3.0877e-07
-2.3431e-07
-2.4478e-07
2.85862e-07
-2.27896e-07
-2.54637e-07
2.5686e-07
-2.2322e-07
-2.67619e-07
2.22154e-07
-2.16733e-07
-2.88026e-07
1.79168e-07
-2.11613e-07
-3.20944e-07
1.32523e-07
-2.03693e-07
-3.68746e-07
9.05386e-08
-1.95331e-07
-4.35423e-07
4.57214e-08
-1.86151e-07
-5.16085e-07
1.32201e-08
-1.78791e-07
-5.90625e-07
-3.79533e-08
-1.78784e-07
-6.58968e-07
-9.22539e-08
-1.89795e-07
-6.84193e-07
-2.14845e-07
-2.36962e-07
-6.62614e-07
-2.81245e-07
-2.94927e-07
-6.43121e-07
-1.57499e-07
-3.24727e-07
-9.05617e-07
3.73157e-07
-2.15193e-07
-1.37185e-06
5.09342e-07
-3.42398e-08
-1.15008e-06
-1.47875e-06
3.34627e-07
-2.24803e-06
-4.55049e-06
1.34661e-06
-1.1224e-05
-1.90328e-06
2.88799e-06
-2.64857e-05
5.89557e-06
2.94031e-06
-3.72915e-05
2.72139e-06
2.75893e-06
-3.99713e-05
-1.15862e-05
7.77748e-07
-4.01971e-05
-1.76951e-05
-1.73413e-06
-3.79487e-05
-2.0276e-05
-2.95044e-06
-2.99504e-05
-2.31789e-05
-5.19152e-06
-2.99948e-05
-2.91766e-05
-3.51016e-06
-3.04732e-05
-3.40004e-05
-2.10812e-06
3.46695e-05
-1.89201e-05
-9.07895e-07
4.20541e-05
-7.71091e-07
-4.01411e-06
-8.77839e-06
-1.23888e-05
-7.08294e-06
-2.18156e-05
4.00256e-06
4.23253e-06
-3.59982e-05
7.89209e-06
2.95037e-06
-4.67975e-05
1.33132e-05
4.61059e-06
-5.27243e-05
9.63045e-06
4.21652e-06
-5.38494e-05
2.60466e-06
3.17924e-06
-5.53456e-05
-2.78982e-06
2.71289e-06
-5.63164e-05
-6.31113e-06
2.53252e-06
-5.72573e-05
-9.03326e-06
2.67988e-06
-5.76795e-05
-1.04945e-05
2.72926e-06
-5.8015e-05
-1.07253e-05
2.65885e-06
-5.77111e-05
-1.07189e-05
2.66658e-06
-5.68797e-05
-1.06306e-05
2.53703e-06
-5.53439e-05
-1.02418e-05
1.68829e-06
-5.32449e-05
-9.78929e-06
4.74019e-07
-4.98688e-05
-8.85617e-06
-5.97956e-07
-4.59451e-05
-7.2732e-06
-1.52598e-06
-4.12072e-05
-5.68666e-06
-2.25447e-06
-3.60299e-05
-4.65281e-06
-2.48368e-06
-2.98567e-05
-4.24404e-06
-1.73606e-06
-2.32003e-05
-4.1464e-06
-8.37596e-07
-1.72462e-05
-2.26069e-06
8.82872e-07
-1.36135e-05
3.63257e-07
2.43733e-06
-1.17489e-05
1.49225e-06
3.44994e-06
-1.10901e-05
4.47347e-06
3.75463e-06
-1.03211e-05
4.63821e-06
4.01301e-06
-1.05136e-05
4.97696e-06
4.01933e-06
-1.11171e-05
5.73442e-06
3.13866e-06
-1.13674e-05
6.69781e-06
9.7512e-07
-9.63455e-06
7.65422e-06
-1.81982e-06
-6.99993e-06
9.59246e-06
-4.15884e-06
-3.58855e-06
1.06747e-05
-5.11954e-06
1.06293e-07
1.25356e-05
-5.58837e-06
3.33761e-06
1.56697e-05
-6.66335e-06
3.74545e-06
2.21924e-05
-6.74423e-06
3.03227e-05
-5.46582e-06
-4.30583e-06
-5.71304e-08
1.38061e-06
-1.60253e-06
-4.84747e-06
-2.71857e-06
-4.16848e-07
-7.58299e-07
-2.34609e-06
1.48812e-07
-1.19302e-06
-2.53599e-06
1.00377e-06
-1.44551e-06
-2.17943e-06
7.59221e-07
-1.72641e-06
-1.00986e-06
5.64047e-07
-1.9004e-06
-4.72493e-07
2.90565e-07
-1.67553e-06
1.30911e-07
6.14644e-07
-1.46317e-06
-1.59556e-07
8.64692e-07
-3.31016e-07
-1.67554e-07
8.46003e-07
5.56371e-07
-1.44014e-07
6.51562e-07
7.69966e-07
-5.29735e-08
4.37443e-07
7.16121e-07
-9.9286e-08
2.62062e-07
6.7256e-07
-1.88628e-07
1.20539e-07
7.14546e-07
-2.50728e-07
7.12147e-09
7.647e-07
-2.97772e-07
-7.91858e-08
8.19017e-07
-3.34328e-07
-1.43235e-07
8.54178e-07
-3.63737e-07
-1.91253e-07
8.84454e-07
-3.84149e-07
-2.28035e-07
8.98644e-07
-3.98878e-07
-2.56221e-07
9.04411e-07
-4.08842e-07
-2.77765e-07
9.00156e-07
-4.14871e-07
-2.92372e-07
8.90624e-07
-4.20157e-07
-3.04049e-07
8.80674e-07
-4.24217e-07
-3.13324e-07
8.70633e-07
-4.29553e-07
-3.21576e-07
8.60857e-07
-4.35315e-07
-3.29334e-07
8.5116e-07
-4.41876e-07
-3.37018e-07
8.41259e-07
-4.48873e-07
-3.45256e-07
8.31835e-07
-4.55686e-07
-3.53625e-07
8.21003e-07
-4.63379e-07
-3.63654e-07
8.11452e-07
-4.70803e-07
-3.75551e-07
8.00023e-07
-4.79523e-07
-3.90927e-07
7.89058e-07
-4.87972e-07
-4.10217e-07
7.7463e-07
-4.98596e-07
-4.41125e-07
7.61119e-07
-5.08125e-07
-4.91676e-07
7.46392e-07
-5.16684e-07
-5.65091e-07
7.27897e-07
-5.21909e-07
-6.58741e-07
7.09295e-07
-5.24993e-07
-7.65126e-07
6.76848e-07
-5.24528e-07
-8.58066e-07
6.27898e-07
-5.2147e-07
-8.97894e-07
5.21689e-07
-5.19415e-07
-8.56034e-07
3.77765e-07
-5.11413e-07
-6.98308e-07
1.4723e-07
-5.1918e-07
-4.47475e-07
2.92322e-08
-5.60668e-07
-2.09697e-07
2.04698e-07
-5.9872e-07
-2.47969e-07
8.82627e-07
-4.73764e-07
-8.51324e-08
4.88331e-07
-4.65823e-08
-1.11734e-06
-1.51765e-06
1.29348e-06
-1.34158e-05
4.31498e-06
3.551e-06
-3.27088e-05
1.2613e-05
4.79055e-06
-4.06777e-05
1.31548e-05
6.89366e-07
-4.03761e-05
5.75864e-06
-3.33648e-06
-4.27126e-05
-7.00072e-06
-2.18119e-06
-4.47474e-05
-1.38838e-05
-1.73766e-06
-4.40798e-05
-1.658e-05
-4.31264e-06
-3.89411e-05
-2.00823e-05
-8.30816e-06
-3.90521e-05
-2.12581e-05
-6.16253e-06
-3.37874e-05
-3.19954e-05
-8.61995e-06
4.54459e-05
-5.10603e-05
-8.84685e-06
4.47359e-05
3.15774e-06
-3.81543e-06
-2.31296e-05
1.56488e-05
-3.37023e-06
-3.43522e-05
1.07506e-05
3.52944e-06
-4.80254e-05
1.84795e-05
3.1087e-06
-5.47114e-05
1.66847e-05
3.36881e-06
-5.64994e-05
9.76557e-06
1.64468e-06
-5.41988e-05
-3.99786e-08
3.47824e-07
-5.40183e-05
-3.99537e-06
1.01588e-06
-5.37516e-05
-8.0061e-06
1.43664e-06
-5.53857e-05
-9.29915e-06
1.90869e-06
-5.81045e-05
-9.80033e-06
2.03624e-06
-6.06598e-05
-9.51794e-06
1.35122e-06
-6.28085e-05
-8.71583e-06
1.43782e-07
-6.44551e-05
-8.0942e-06
-9.04641e-07
-6.56319e-05
-8.14319e-06
-9.42833e-07
-6.61547e-05
-8.47422e-06
-8.16106e-07
-6.55906e-05
-8.37154e-06
-1.07749e-06
-6.46654e-05
-7.13183e-06
-1.09214e-06
-6.37802e-05
-6.52908e-06
-6.12032e-08
-6.18788e-05
-7.49568e-06
9.35693e-07
-6.04827e-05
-8.2602e-06
2.62683e-06
-5.83387e-05
-9.92443e-06
3.64929e-06
-5.41569e-05
-1.09483e-05
4.51623e-06
-4.83686e-05
-1.05743e-05
5.16462e-06
-4.33332e-05
-9.22717e-06
5.69742e-06
-3.87356e-05
-6.33043e-06
6.25829e-06
-3.60104e-05
-4.59628e-06
6.58573e-06
-3.50613e-05
-2.41916e-06
6.54607e-06
-3.53646e-05
2.57711e-07
5.92278e-06
-3.67205e-05
3.80775e-06
4.40128e-06
-3.56271e-05
6.74776e-06
-5.86599e-08
-3.347e-05
1.06485e-05
-3.12325e-06
-2.80548e-05
1.14088e-05
-6.18129e-06
-2.08441e-05
1.3354e-05
-8.26153e-06
-1.26738e-05
1.69766e-05
-9.97414e-06
-5.96853e-06
2.50292e-05
-1.04347e-05
2.94134e-05
-8.39391e-06
-3.2212e-06
7.01309e-07
2.80339e-06
-1.96999e-06
-4.42861e-06
-1.6878e-06
-1.44736e-06
1.38808e-07
-1.41277e-06
-7.59749e-07
-6.93762e-08
-1.81432e-06
3.69055e-07
-2.69272e-07
-2.29771e-06
4.65518e-07
-3.68867e-07
-1.4452e-06
5.03538e-07
-1.03855e-06
-8.94282e-07
1.45007e-07
-1.24367e-06
-7.36307e-08
3.56444e-07
-1.48582e-06
-1.87632e-07
6.63963e-07
-4.78838e-07
-1.55023e-07
8.42181e-07
4.93833e-07
-1.10486e-07