/*--------------------------------*- C++ -*----------------------------------*\
| =========                 |                                                 |
| \\      /  F ield         | OpenFOAM: The Open Source CFD Toolbox           |
|  \\    /   O peration     | Version:  2.3.0                                 |
|   \\  /    A nd           | Web:      www.OpenFOAM.org                      |
|    \\/     M anipulation  |                                                 |
\*---------------------------------------------------------------------------*/
FoamFile
{
    version     2.0;
    format      ascii;
    class       surfaceScalarField;
    location    "11";
    object      phi.air;
}
// * * * * * * * * * * * * * * * * * * * * * * * * * * * * * * * * * * * * * //

dimensions      [0 3 -1 0 0 0 0];

internalField   nonuniform List<scalar> 
16448
(
-1.61163e-06
-1.62436e-06
3.80731e-07
-9.12626e-08
-1.88166e-06
3.61304e-07
2.37796e-07
-7.66509e-07
4.37453e-07
6.06488e-07
-9.1873e-07
5.50041e-07
5.93194e-07
-4.49785e-07
4.63081e-07
6.05093e-07
-5.2466e-07
5.12765e-07
4.88973e-07
-4.39914e-07
5.56037e-07
3.8757e-07
-4.79033e-07
5.8044e-07
2.25609e-07
-4.71368e-07
6.33333e-07
8.21371e-08
-5.10109e-07
6.53585e-07
-2.94045e-08
-5.54752e-07
6.66299e-07
-7.38585e-08
-6.18571e-07
6.63031e-07
-8.14958e-08
-6.72081e-07
6.79725e-07
-5.80821e-08
-7.14684e-07
6.91277e-07
-3.31015e-08
-7.41868e-07
7.16895e-07
-5.45764e-09
-7.6161e-07
7.33975e-07
1.39286e-08
-7.74662e-07
7.55285e-07
2.92235e-08
-7.84674e-07
7.69389e-07
3.70395e-08
-7.91422e-07
7.83617e-07
4.22859e-08
-7.98029e-07
7.92794e-07
4.29022e-08
-8.02164e-07
8.0156e-07
4.2641e-08
-8.069e-07
8.07175e-07
4.04183e-08
-8.09978e-07
8.12214e-07
3.80102e-08
-8.13218e-07
8.15641e-07
3.51869e-08
-8.15654e-07
8.18493e-07
3.25602e-08
-8.17898e-07
8.20541e-07
3.02704e-08
-8.19814e-07
8.22121e-07
2.85782e-08
-8.2148e-07
8.23191e-07
2.79315e-08
-8.23132e-07
8.23797e-07
2.8326e-08
-8.24477e-07
8.24102e-07
3.09287e-08
-8.26266e-07
8.23683e-07
3.54949e-08
-8.27684e-07
8.2314e-07
4.47701e-08
-8.30447e-07
8.21193e-07
5.82319e-08
-8.33062e-07
8.19624e-07
8.13199e-08
-8.38398e-07
8.15334e-07
1.13526e-07
-8.44262e-07
8.12082e-07
1.6283e-07
-8.54356e-07
8.05077e-07
2.28397e-07
-8.66335e-07
8.00796e-07
3.1822e-07
-8.83914e-07
7.94118e-07
4.25603e-07
-9.04325e-07
7.96972e-07
5.45576e-07
-9.26547e-07
8.06602e-07
6.60072e-07
-9.51449e-07
8.36985e-07
7.56721e-07
-9.78541e-07
8.81922e-07
8.34028e-07
-1.01576e-06
9.38486e-07
9.64135e-07
-1.0791e-06
9.49024e-07
1.2752e-06
-1.24973e-06
9.38703e-07
1.70255e-06
-1.42106e-06
9.93736e-07
1.41764e-06
-1.06621e-06
1.35115e-06
-6.94721e-07
2.83696e-07
1.8287e-06
-2.81405e-06
2.80808e-07
1.83856e-06
-2.78021e-06
-2.02461e-06
1.9908e-06
-8.44298e-07
-3.73665e-06
1.80076e-06
2.3286e-06
-5.49679e-06
2.32392e-06
6.6493e-06
-7.45456e-06
3.13388e-06
9.34181e-06
-7.54377e-06
4.85127e-06
1.2089e-05
-6.44239e-06
3.69517e-06
1.07247e-05
-4.33374e-06
5.69807e-06
1.15576e-05
-2.30429e-06
1.47147e-06
-6.90052e-06
3.16941e-06
1.4994e-05
-3.1485e-05
-1.53906e-06
-5.01028e-06
-6.70233e-05
-1.61598e-05
3.78862e-06
-1.66969e-05
-8.966e-06
9.89494e-06
2.79878e-05
-8.83665e-06
8.12883e-06
3.07648e-05
-8.14795e-06
5.34325e-06
3.15909e-05
-5.75705e-06
4.83199e-06
3.12933e-05
-4.48775e-06
4.79724e-06
3.07071e-05
-4.08943e-06
4.63304e-06
3.039e-05
-4.25179e-06
4.46304e-06
3.02156e-05
-4.07228e-06
4.14355e-06
2.98711e-05
-2.92507e-06
3.25411e-06
2.76426e-05
-1.68017e-07
2.50309e-06
2.20448e-05
3.68028e-06
1.85468e-06
1.44418e-05
5.50107e-06
1.96354e-06
8.51039e-06
4.41739e-06
1.48481e-06
3.42421e-06
4.7044e-06
4.19672e-07
-5.27396e-07
3.67436e-06
3.41662e-07
-2.16979e-06
3.6684e-07
1.28866e-06
-4.39665e-06
-8.31058e-07
3.05053e-06
-6.54016e-06
-2.33237e-06
4.44076e-06
-8.62632e-06
-3.23649e-06
5.32314e-06
-9.68039e-06
-4.39229e-06
5.40611e-06
-9.58183e-06
-5.36973e-06
5.23693e-06
-8.34757e-06
-6.33739e-06
5.0293e-06
-7.39093e-06
-6.00105e-06
4.97611e-06
-6.67964e-06
-5.54165e-06
4.7844e-06
-5.06242e-06
-5.46174e-06
3.78733e-06
-3.26235e-06
-4.76827e-06
2.94628e-06
-1.77965e-06
-4.06552e-06
2.66436e-06
-3.22245e-06
-1.65482e-06
3.26398e-06
-7.52893e-06
1.01093e-06
3.40552e-06
-1.02493e-05
1.01568e-06
1.6986e-06
-1.12319e-05
-6.79181e-08
1.08438e-06
-1.08445e-05
-1.68711e-06
1.25567e-06
-9.10771e-06
-2.50328e-06
7.20636e-07
-6.18675e-06
-2.50746e-06
-3.96285e-07
-4.06993e-06
-1.11478e-06
-2.21819e-06
-2.21585e-06
-1.09425e-07
-9.88633e-07
-2.92682e-06
-1.84397e-07
-6.99276e-07
-1.06501e-06
9.14719e-09
-2.31705e-07
-1.47592e-06
8.96224e-08
-5.89691e-08
-6.12344e-07
-1.01692e-08
3.84337e-08
-7.32917e-07
1.10861e-07
8.48128e-08
-5.46904e-07
6.06183e-08
5.91381e-08
-5.72011e-07
1.18661e-07
-1.20189e-08
-5.43025e-07
1.42822e-07
-1.25369e-07
-5.62892e-07
1.66141e-07
-2.1589e-07
-6.1589e-07
1.51668e-07
-2.34301e-07
-7.29378e-07
1.29229e-07
-2.16915e-07
-8.17446e-07
1.2799e-07
-1.68567e-07
-8.93528e-07
1.30509e-07
-1.24589e-07
-9.32043e-07
1.46211e-07
-8.12604e-08
-9.6346e-07
1.58536e-07
-5.24085e-08
-9.77989e-07
1.74491e-07
-2.95437e-08
-9.92351e-07
1.8483e-07
-1.68448e-08
-9.99718e-07
1.95615e-07
-8.86e-09
-1.00811e-06
2.02119e-07
-6.05556e-09
-1.01328e-06
2.08335e-07
-5.5967e-09
-1.01921e-06
2.11872e-07
-7.20753e-09
-1.02341e-06
2.15064e-07
-9.61095e-09
-1.02766e-06
2.16867e-07
-1.2494e-08
-1.031e-06
2.18252e-07
-1.5265e-08
-1.03405e-06
2.18954e-07
-1.76579e-08
-1.03671e-06
2.19316e-07
-1.93891e-08
-1.03898e-06
2.19267e-07
-1.98952e-08
-1.04142e-06
2.18827e-07
-1.91945e-08
-1.04329e-06
2.1815e-07
-1.58091e-08
-1.04644e-06
2.16821e-07
-1.03569e-08
-1.04844e-06
2.1534e-07
1.12861e-09
-1.05439e-06
2.12493e-07
1.67354e-08
-1.05851e-06
2.09886e-07
4.40302e-08
-1.07032e-06
2.04669e-07
8.14955e-08
-1.08147e-06
1.99786e-07
1.39259e-07
-1.10368e-06
1.91601e-07
2.16471e-07
-1.12782e-06
1.84324e-07
3.2173e-07
-1.16557e-06
1.76446e-07
4.48225e-07
-1.20662e-06
1.75854e-07
5.87851e-07
-1.25206e-06
1.85941e-07
7.11274e-07
-1.29294e-06
2.18124e-07
7.84125e-07
-1.3246e-06
2.73265e-07
7.85499e-07
-1.37965e-06
3.62576e-07
7.64611e-07
-1.5415e-06
4.83344e-07
8.16785e-07
-1.96438e-06
6.62534e-07
3.82408e-07
-2.04334e-06
1.05671e-06
-8.97849e-07
-1.24886e-06
1.46297e-06
-2.41906e-06
2.15609e-07
1.58935e-06
-2.16307e-06
-9.46061e-07
9.70947e-07
1.36296e-06
-5.08526e-06
-4.6532e-07
5.69068e-06
-8.01373e-06
-5.05903e-08
1.02932e-05
-1.07107e-05
6.1137e-07
1.51893e-05
-1.3202e-05
8.51375e-07
1.77096e-05
-1.24414e-05
2.37742e-06
2.16849e-05
-1.1929e-05
1.51138e-06
2.01986e-05
-4.85842e-06
2.01087e-06
1.82068e-05
-4.44451e-06
4.13211e-06
-4.7138e-06
2.92881e-06
2.29094e-05
-3.10031e-05
-2.20913e-06
-3.69168e-06
-7.2437e-05
-2.39284e-05
-3.08306e-06
-2.18117e-05
-1.24624e-05
9.82113e-06
2.0558e-05
-1.30265e-05
6.51925e-06
2.04878e-05
-9.56378e-06
1.32972e-06
1.76214e-05
-3.77471e-06
1.01956e-06
9.53803e-06
-9.59377e-07
4.59715e-06
2.70451e-06
-2.73185e-06
5.45123e-06
1.65047e-06
-5.05556e-06
1.917e-06
1.46787e-06
-5.70626e-06
1.91349e-06
7.91404e-07
-3.6959e-06
1.48339e-06
9.73247e-07
5.17518e-07
-8.82799e-07
3.08415e-06
5.24852e-06
-3.56963e-06
4.36833e-06
8.40743e-06
-4.21499e-06
3.26354e-06
1.00734e-05
-4.56442e-06
-6.99583e-07
1.03117e-05
-1.73756e-06
-5.44498e-06
6.5347e-06
1.80645e-06
-9.36524e-06
2.29e-06
1.99878e-06
-1.1717e-05
-9.96025e-07
2.46284e-06
-1.30994e-05
-3.91999e-06
2.98656e-06
-1.31509e-05
-5.84875e-06
2.65912e-06
-1.22872e-05
-6.89235e-06
1.66914e-06
-1.12889e-05
-7.47099e-06
1.19233e-06
-9.30027e-06
-8.1709e-06
-6.30206e-08
-7.0861e-06
-7.50281e-06
-6.53947e-07
-5.53158e-06
-6.23994e-06
-7.4465e-07
-3.14664e-06
-5.32646e-06
-2.46731e-06
1.52419e-08
-3.6962e-06
-4.21831e-06
2.60271e-06
-2.11328e-06
-4.56322e-06
5.51038e-06
-3.69701e-07
-4.24614e-06
7.3624e-06
1.23702e-06
-2.0917e-06
6.60375e-06
2.17619e-06
-3.45928e-07
2.60392e-06
1.0508e-06
2.95142e-06
-2.49199e-06
-1.24855e-06
4.77108e-06
-5.31762e-06
-3.3607e-06
3.79815e-06
-5.04122e-06
-4.6557e-06
2.01187e-06
-6.12274e-06
-1.76929e-06
-1.99679e-06
-2.28236e-06
-1.502e-07
-1.00954e-06
-3.47273e-06
-4.41349e-07
-9.89731e-07
-1.04695e-06
-3.78544e-08
-6.16824e-07
-1.94108e-06
9.22586e-08
-5.1759e-07
-6.53815e-07
-5.77573e-08
-3.87382e-07
-8.96871e-07
3.37534e-08
-3.14957e-07
-4.85425e-07
-1.33896e-07
-2.4308e-07
-5.50998e-07
-9.2884e-08
-2.47179e-07
-4.28336e-07
-1.10582e-07
-2.97683e-07
-4.2034e-07
-9.20386e-08
-3.67666e-07
-4.34241e-07
-1.11657e-07
-3.66793e-07
-5.68449e-07
-1.61791e-07
-3.24304e-07
-6.7438e-07
-1.85544e-07
-2.56188e-07
-7.66491e-07
-1.9514e-07
-1.95367e-07
-8.05602e-07
-1.87248e-07
-1.42504e-07
-8.3828e-07
-1.78029e-07
-1.0595e-07
-8.48298e-07
-1.66228e-07
-7.86362e-08
-8.61433e-07
-1.58216e-07
-6.27798e-08
-8.65067e-07
-1.50489e-07
-5.25595e-08
-8.72137e-07
-1.46177e-07
-4.84015e-08
-8.75112e-07
-1.42308e-07
-4.66958e-08
-8.80202e-07
-1.4069e-07
-4.77254e-08
-8.83162e-07
-1.39193e-07
-4.96008e-08
-8.86801e-07
-1.38956e-07
-5.21784e-08
-8.89508e-07
-1.38885e-07
-5.48096e-08
-8.92081e-07
-1.39313e-07
-5.71801e-08
-8.94377e-07
-1.39932e-07
-5.88693e-08
-8.96362e-07
-1.40904e-07
-5.96032e-08
-8.98549e-07
-1.42107e-07
-5.90273e-08
-9.004e-07
-1.43436e-07
-5.65289e-08
-9.03854e-07
-1.45046e-07
-5.1645e-08
-9.06531e-07
-1.46756e-07
-4.2456e-08
-9.14257e-07
-1.49282e-07
-2.87455e-08
-9.20564e-07
-1.51622e-07
-5.43991e-09
-9.37696e-07
-1.55889e-07
2.70031e-08
-9.53899e-07
-1.59972e-07
7.7258e-08
-9.87427e-07
-1.6646e-07
1.45474e-07
-1.02297e-06
-1.73027e-07
2.35918e-07
-1.07874e-06
-1.77226e-07
3.45248e-07
-1.13962e-06
-1.76285e-07
4.59021e-07
-1.20719e-06
-1.58596e-07
5.5117e-07
-1.26168e-06
-1.23361e-07
5.69749e-07
-1.28361e-06
-5.95208e-08
4.65795e-07
-1.29091e-06
1.52651e-08
1.40644e-07
-1.3223e-06
1.06007e-07
-5.29583e-07
-1.61019e-06
3.161e-07
-1.57993e-06
-1.77129e-06
7.78361e-07
-2.54611e-06
-1.51802e-06
1.23541e-06
-2.20173e-06
-1.29873e-06
1.17002e-06
-3.06809e-08
-3.30369e-06
1.86637e-07
3.77798e-06
-8.43348e-06
-4.60396e-07
8.67788e-06
-1.32144e-05
3.00851e-07
1.2586e-05
-1.60127e-05
1.39396e-06
1.4627e-05
-1.71848e-05
1.94177e-06
1.58146e-05
-1.54725e-05
1.84351e-06
2.07785e-05
-1.59009e-05
-9.9196e-07
1.83997e-05
-1.8553e-06
-6.24257e-07
1.88936e-05
-4.6322e-06
-3.06231e-07
-1.1186e-05
1.12203e-05
2.16476e-05
-3.00092e-05
-9.92135e-06
-4.23656e-06
-7.32959e-05
-3.18767e-05
-5.36463e-06
-2.52292e-05
-1.41142e-05
3.67408e-06
1.59567e-05
-9.41641e-06
3.19378e-06
1.31732e-05
-5.2606e-06
-1.54461e-06
5.38274e-06
4.2683e-06
2.3593e-06
-4.01918e-06
3.24405e-06
6.50053e-06
-7.52679e-06
-1.13328e-06
1.34495e-06
-9.59928e-06
-3.74723e-06
5.38025e-07
-1.20388e-05
-2.51483e-06
4.89818e-07
-1.39686e-05
-4.29863e-07
-2.35845e-07
-1.40727e-05
2.82138e-06
-2.28589e-06
-1.39767e-05
8.99795e-06
-3.65564e-06
-1.31299e-05
1.0361e-05
-3.50419e-06
-1.31642e-05
1.01791e-05
-1.28887e-06
-1.41855e-05
8.56746e-06
1.37999e-06
-1.48745e-05
5.05823e-06
2.2024e-06
-1.6072e-05
1.38842e-06
2.16679e-06
-1.71971e-05
-2.95915e-06
3.36363e-06
-1.75269e-05
-5.30207e-06
2.41149e-06
-1.60976e-05
-7.03416e-06
-2.02475e-07
-1.36855e-05
-7.18843e-06
-2.07898e-06
-1.13983e-05
-6.18884e-06
-3.52096e-06
-8.66372e-06
-5.75817e-06
-5.15317e-06
-5.42139e-06
-4.2074e-06
-6.58072e-06
-2.60245e-06
-2.04505e-06
-7.03872e-06
1.27506e-08
-6.34538e-07
-7.37991e-06
2.93731e-06
9.67112e-07
-7.66851e-06
5.88138e-06
2.34606e-06
-7.50442e-06
9.54762e-06
2.9274e-06
-7.05674e-06
1.222e-05
4.95619e-06
-6.44235e-06
1.32743e-05
5.95319e-06
-4.94371e-06
1.27208e-05
4.69556e-06
-3.12095e-06
1.02112e-05
2.91154e-06
-1.65444e-06
4.43687e-06
1.03607e-06
1.36865e-06
2.07394e-07
-1.41625e-06
1.33021e-06
-1.97187e-06
-2.49273e-06
-1.7757e-06
-2.38448e-06
1.42839e-07
-7.51835e-07
-4.17554e-06
-3.21046e-07
-8.71938e-07
-1.32467e-06
3.97828e-07
-5.48789e-07
-2.78587e-06
5.21647e-07
-4.67901e-07
-1.12365e-06
3.88957e-07
-3.95347e-07
-1.39222e-06
4.22803e-07
-3.37126e-07
-6.20838e-07
7.71987e-08
-3.15141e-07
-6.28831e-07
5.58547e-08
-3.39161e-07
-3.16984e-07
-8.73248e-08
-4.06925e-07
-2.69626e-07
-8.29407e-08
-4.92106e-07
-2.10604e-07
-1.38448e-07
-5.05354e-07
-3.33201e-07
-2.21989e-07
-4.57882e-07
-4.36275e-07
-2.85566e-07
-3.83079e-07
-5.21803e-07
-3.19479e-07
-3.09217e-07
-5.48813e-07
-3.30637e-07
-2.48325e-07
-5.68527e-07
-3.3063e-07
-2.02686e-07
-5.67111e-07
-3.26809e-07
-1.70752e-07
-5.71156e-07
-3.22194e-07
-1.49973e-07
-5.6764e-07
-3.18188e-07
-1.37276e-07
-5.69612e-07
-3.15202e-07
-1.30333e-07
-5.69004e-07
-3.13029e-07
-1.27109e-07
-5.71595e-07
-3.11809e-07
-1.26566e-07
-5.72739e-07
-3.10942e-07
-1.27512e-07
-5.7504e-07
-3.1079e-07
-1.29315e-07
-5.77013e-07
-3.10665e-07
-1.31554e-07
-5.79204e-07
-3.10611e-07
-1.33657e-07
-5.81233e-07
-3.11012e-07
-1.35108e-07
-5.83324e-07
-3.11557e-07
-1.35885e-07
-5.85809e-07
-3.1193e-07
-1.35381e-07
-5.8851e-07
-3.12362e-07
-1.33931e-07
-5.92749e-07
-3.12521e-07
-1.3001e-07
-5.97586e-07
-3.12831e-07
-1.23947e-07
-6.07258e-07
-3.13023e-07
-1.1297e-07
-6.17983e-07
-3.1352e-07
-9.6398e-08
-6.39728e-07
-3.145e-07
-7.09151e-08
-6.63495e-07
-3.15846e-07
-3.53855e-08
-7.0578e-07
-3.17133e-07
7.75545e-09
-7.49309e-07
-3.16756e-07
5.59279e-08
-8.15849e-07
-3.1102e-07
1.0233e-07
-8.86374e-07
-2.99602e-07
1.37036e-07
-9.67992e-07
-2.73855e-07
1.60924e-07
-1.04107e-06
-2.44453e-07
1.63065e-07
-1.08995e-06
-1.95747e-07
9.7694e-08
-1.08507e-06
-1.40414e-07
-1.51144e-07
-1.01264e-06
-6.07614e-08
-8.08755e-07
-1.03485e-06
8.23269e-08
-1.77405e-06
-1.14442e-06
3.3848e-07
-2.38822e-06
-1.48829e-06
5.84509e-07
-1.21242e-06
-2.75732e-06
2.82845e-07
1.13999e-06
-5.66481e-06
8.7715e-09
4.36915e-06
-1.18149e-05
1.52339e-07
6.32533e-06
-1.77934e-05
2.6228e-06
3.84539e-06
-1.84543e-05
4.92152e-06
-6.52243e-07
-1.80357e-05
5.34857e-06
2.24365e-06
-2.00348e-05
1.6664e-06
6.34729e-06
-1.7489e-05
-2.51547e-06
1.09857e-05
-1.03355e-07
-6.39024e-06
2.14446e-05
-9.14957e-06
-5.94151e-06
-4.75314e-06
1.53782e-05
2.17232e-05
-3.70806e-05
-1.0733e-05
-4.29344e-06
-0.000101213
-3.25334e-05
-3.64672e-06
-5.09919e-05
-1.09447e-05
4.64722e-06
-9.30382e-07
-7.01674e-06
3.36306e-06
-5.08954e-05
1.4261e-06
5.01222e-06
-9.90994e-05
3.40701e-06
3.1294e-06
-6.25795e-05
1.93422e-06
1.19269e-06
-1.98472e-05
-1.14649e-06
2.50182e-06
-6.58827e-05
-1.64933e-06
3.05763e-06
-0.000106186
-1.48056e-06
1.94704e-06
-6.59862e-05
3.17572e-07
1.65974e-06
-2.92725e-05
2.64546e-06
3.85235e-06
-5.33462e-05
5.1817e-06
3.94073e-06
-9.95838e-05
7.26557e-06
3.49478e-06
-0.00011927
6.16435e-06
3.93977e-06
-7.15493e-05
4.04545e-06
4.18913e-06
-2.5297e-05
2.42768e-07
4.40895e-06
-4.98481e-05
-2.2966e-06
3.62174e-06
-8.71816e-05
-3.96688e-06
1.06888e-06
-6.25928e-05
-5.03547e-06
-1.19223e-06
-2.17606e-05
-4.49256e-06
-4.25073e-06
-1.73489e-05
-2.22236e-06
-7.36957e-06
-1.42148e-05
1.07679e-06
-8.55621e-06
-1.09569e-05
2.67734e-06
-9.01969e-06
-8.11076e-06
5.83399e-06
-1.01489e-05
-6.11375e-06
6.11966e-06
-1.03405e-05
-4.22017e-06
7.39412e-06
-1.01208e-05
-2.78856e-06
7.33492e-06
-7.89663e-06
1.21854e-07
6.12907e-06
-6.77967e-06
4.5618e-06
4.55203e-06
-6.07577e-06
7.8081e-06
4.81334e-06
-3.02474e-06
9.9143e-06
6.07535e-06
-2.2435e-06
1.05863e-05
6.44124e-06
-2.44768e-06
1.01278e-05
5.78181e-06
-2.47814e-06
7.56565e-06
5.56904e-06
-1.95929e-06
3.21534e-06
5.20121e-06
-1.99841e-06
6.99572e-06
-4.08933e-06
-2.22603e-06
-2.3859e-06
4.62501e-07
-9.83321e-07
-4.58346e-06
-8.34779e-07
-1.15977e-06
-1.91475e-06
7.66537e-07
-7.33501e-07
-3.75708e-06
5.44947e-07
-4.86248e-07
-2.2015e-06
8.30599e-07
-2.98093e-07
-2.39374e-06
8.13375e-07
-1.08057e-08
-1.34329e-06
4.35166e-07
-1.08456e-08
-9.39926e-07
3.1114e-07
1.68859e-08
-4.16093e-07
7.13847e-08
-1.5897e-07
-1.6007e-07
6.63083e-08
-3.4333e-07
1.03232e-08
-3.65576e-08
-4.67824e-07
-6.05711e-08
-1.48126e-07
-4.69603e-07
-1.77607e-07
-2.56878e-07
-4.21388e-07
-2.4619e-07
-3.23817e-07
-3.60744e-07
-2.48595e-07
-3.6085e-07
-3.0679e-07
-2.44226e-07
-3.78241e-07
-2.62354e-07
-2.25718e-07
-3.85813e-07
-2.31062e-07
-2.14926e-07
-3.87506e-07
-2.08572e-07
-2.0234e-07
-3.87773e-07
-1.95486e-07
-1.97042e-07
-3.85636e-07
-1.87482e-07
-1.93271e-07
-3.83718e-07
-1.83949e-07
-1.93522e-07
-3.81585e-07
-1.82417e-07
-1.94474e-07
-3.79775e-07
-1.82976e-07
-1.96912e-07
-3.77546e-07
-1.84218e-07
-2.00049e-07
-3.75697e-07
-1.85507e-07
-2.03853e-07
-3.74036e-07
-1.86696e-07
-2.0799e-07
-3.72027e-07
-1.87458e-07
-2.12654e-07
-3.69879e-07
-1.87974e-07
-2.17745e-07
-3.67519e-07
-1.87467e-07
-2.23912e-07
-3.65074e-07
-1.86803e-07
-2.31501e-07
-3.61881e-07
-1.84033e-07
-2.4125e-07
-3.59073e-07
-1.80848e-07
-2.55188e-07
-3.55221e-07
-1.73394e-07
-2.73369e-07
-3.52031e-07
-1.64597e-07
-3.00957e-07
-3.47532e-07
-1.50034e-07
-3.35936e-07
-3.42083e-07
-1.37148e-07
-3.85808e-07
-3.32819e-07
-1.30468e-07
-4.35781e-07
-3.20167e-07
-1.41377e-07
-5.01862e-07
-3.03038e-07
-1.82162e-07
-5.61387e-07
-2.84159e-07
-2.59823e-07
-6.24964e-07
-2.65324e-07
-3.51307e-07
-6.89845e-07
-2.59692e-07
-4.02101e-07
-7.76788e-07
-2.62324e-07
-4.09181e-07
-8.20562e-07
-2.57384e-07
-4.598e-07
-7.43091e-07
-2.18886e-07
-7.64836e-07
-6.01488e-07
-1.28277e-07
-1.29933e-06
-6.30652e-07
2.07833e-08
-1.74489e-06
-1.26282e-06
2.20141e-07
-1.01743e-06
-3.74419e-06
2.5945e-07
7.19335e-07
-7.98523e-06
5.83694e-07
2.88987e-07
-1.31526e-05
1.76805e-06
-7.93254e-06
-1.52747e-05
5.7029e-06
-1.87293e-05
-1.613e-05
8.47258e-06
-2.24503e-05
-2.01294e-05
5.81488e-06
-2.0544e-05
-2.13281e-05
-6.1288e-07
-1.52367e-05
-1.5934e-05
-6.86223e-06
9.03938e-06
-1.19035e-05
-1.24758e-05
2.89464e-05
-2.73856e-05
-1.67108e-06
-1.89673e-06
2.29322e-05
2.2577e-05
-4.35794e-05
-9.0586e-06
-3.47956e-06
-0.000119815
-3.19617e-05
-3.00715e-06
-0.000123738
-7.26861e-06
6.21527e-06
-0.000128569
-4.07641e-06
4.40911e-06
-0.000133722
3.01474e-06
4.23337e-06
-0.000135541
2.49041e-06
4.24143e-06
-0.000140712
1.45547e-06
4.77501e-06
-0.000146004
-1.88905e-06
5.64177e-06
-0.000148835
-2.58402e-06
5.1511e-06
-0.000150286
-3.66635e-06
4.9396e-06
-0.000151308
-3.07322e-06
5.20691e-06
-0.000150536
-1.18597e-06
5.44078e-06
-0.000149262
4.04849e-07
5.59895e-06
-0.000148587
9.17782e-07
5.40633e-06
-0.000148007
5.97295e-07
5.03507e-06
-0.000147436
-5.40463e-07
4.15711e-06
-0.000147624
-1.30532e-06
2.67684e-06
-0.000147859
-2.37047e-06
7.97208e-07
-0.00014729
-2.08474e-06
-1.88858e-06
-0.000145979
-1.24836e-06
-4.86641e-06
-0.000143518
1.1947e-06
-7.86166e-06
-0.000138577
3.89456e-06
-9.65827e-06
-0.000129303
6.83042e-06
-9.65089e-06
-0.000105715
8.02144e-06
-9.50879e-06
-5.11985e-05
1.00014e-05
-7.66486e-06
-1.32183e-05
1.05319e-05
-5.21639e-06
-1.21418e-05
1.07175e-05
-4.67363e-06
-1.06732e-05
9.70804e-06
-4.11071e-06
-8.19282e-06
8.25522e-06
-4.79714e-06
-4.87335e-06
6.68266e-06
-5.32641e-06
-1.52608e-06
6.57661e-06
-4.58865e-06
1.72555e-06
7.04275e-06
-3.49588e-06
4.5038e-06
7.35672e-06
-3.72531e-06
5.73751e-06
8.37588e-06
-3.8063e-06
5.11009e-06
9.04218e-06
-2.8313e-06
2.70756e-06
1.06194e-05
-2.68248e-06
1.55762e-05
-4.16444e-06
-3.13134e-06
-2.1326e-06
6.53856e-07
-1.39901e-06
-4.7187e-06
-1.59709e-06
-1.4014e-06
-2.42031e-06
5.07943e-07
-7.75399e-07
-4.08259e-06
-3.00478e-07
-4.22279e-07
-3.15936e-06
6.04742e-07
-3.17399e-07
-3.25747e-06
7.58845e-07
-6.45601e-10
-2.25157e-06
5.91532e-07
1.65913e-07
-1.53871e-06
4.32235e-07
4.31882e-07
-8.52783e-07
1.70726e-07
3.28295e-07
-1.95997e-07
1.39519e-07
8.28646e-08
1.90146e-07
6.56145e-08
-1.72099e-07
2.27885e-07
-3.34836e-08
-2.94549e-07
1.12816e-07
-1.67965e-07
-3.29826e-07
4.64366e-08
-2.57339e-07
-3.24891e-07
6.14227e-08
-3.14942e-07
-3.06447e-07
8.4886e-08
-3.47544e-07
-2.85054e-07
1.19399e-07
-3.66499e-07
-2.6776e-07
1.4164e-07
-3.73847e-07
-2.55559e-07
1.61787e-07
-3.76313e-07
-2.48374e-07
1.71108e-07
-3.75319e-07
-2.44106e-07
1.75467e-07
-3.7299e-07
-2.42741e-07
1.73946e-07
-3.68817e-07
-2.42596e-07
1.69583e-07
-3.64184e-07
-2.43866e-07
1.63007e-07
-3.5863e-07
-2.45489e-07
1.54868e-07
-3.53274e-07
-2.47373e-07
1.45627e-07
-3.47576e-07
-2.49564e-07
1.35528e-07
-3.41305e-07
-2.51885e-07
1.24543e-07
-3.34855e-07
-2.54734e-07
1.13155e-07
-3.28027e-07
-2.57085e-07
9.99074e-08
-3.21445e-07
-2.60245e-07
8.58392e-08
-3.14154e-07
-2.62307e-07
6.84921e-08
-3.07655e-07
-2.66219e-07
4.90829e-08
-3.00332e-07
-2.69524e-07
2.44789e-08
-2.94516e-07
-2.76953e-07
-6.91767e-09
-2.86581e-07
-2.82254e-07
-5.22309e-08
-2.78378e-07
-2.98146e-07
-1.03582e-07
-2.66303e-07
-3.30604e-07
-1.52121e-07
-2.51173e-07
-3.92548e-07
-2.06773e-07
-2.33114e-07
-4.91741e-07
-2.45966e-07
-2.16199e-07
-6.20439e-07
-2.91173e-07
-2.05061e-07
-7.46322e-07
-3.50381e-07
-2.13551e-07
-7.84903e-07
-4.77201e-07
-2.60975e-07
-7.28245e-07
-5.54736e-07
-3.22455e-07
-6.81447e-07
-4.63186e-07
-3.26672e-07
-9.37705e-07
-1.04366e-07
-2.40835e-07
-1.46089e-06
1.0501e-09
-1.08481e-07
-1.84699e-06
-1.02643e-06
1.4973e-07
-1.69867e-06
-4.46762e-06
5.75132e-07
-3.20147e-06
-8.12685e-06
1.64444e-06
-1.36488e-05
-6.4158e-06
3.71053e-06
-2.90229e-05
-5.32956e-06
5.42908e-06
-3.40917e-05
-1.35002e-05
2.43891e-06
-3.339e-05
-1.97021e-05
-1.12884e-06
-3.28117e-05
-2.1048e-05
-8.58282e-07
-2.59051e-05
-2.03365e-05
-2.5039e-06
8.79062e-07
-3.31442e-05
-5.54332e-06
6.64631e-06
-3.66393e-05
3.48701e-06
-3.72881e-06
1.30859e-05
1.88401e-05
-5.0174e-05
-7.23065e-06
-5.06186e-06
-0.000131057
-2.48141e-05
-4.5383e-06
-0.000133477
-1.5299e-06
5.38738e-06
-0.000140661
2.12767e-07
3.71829e-06
-0.000152373
7.88066e-06
6.02301e-06
-0.000160528
5.80773e-06
6.59783e-06
-0.000166969
2.2399e-06
5.85979e-06
-0.000170535
-2.78547e-06
4.82376e-06
-0.000173065
-5.49514e-06
4.88953e-06
-0.000173673
-7.12627e-06
4.85285e-06
-0.000173502
-7.8653e-06
5.12726e-06
-0.000172822
-7.72954e-06
5.54721e-06
-0.000171122
-6.74321e-06
5.47044e-06
-0.000168642
-6.03726e-06
5.17774e-06
-0.000165867
-5.27233e-06
4.28447e-06
-0.000163105
-4.85376e-06
2.78058e-06
-0.000160534
-3.66982e-06
7.5398e-07
-0.000158206
-2.47228e-06
-1.6137e-06
-0.000155602
-7.54477e-07
-3.76542e-06
-0.000152627
8.40326e-07
-5.18033e-06
-0.00014987
3.13769e-06
-5.60475e-06
-0.000148059
4.78612e-06
-3.83678e-06
-0.000146719
7.04114e-06
-2.74407e-06
-0.000144951
7.55365e-06
-1.91412e-06
-0.000142007
8.09167e-06
-1.01441e-06
-0.000139726
8.79947e-06
-1.70428e-07
-0.000139272
8.58985e-06
1.07532e-07
-0.000139235
8.00289e-06
-6.44027e-07
-0.000137618
7.7894e-06
-1.96547e-06
-0.000129955
8.03e-06
-4.00003e-06
-0.000106977
8.90201e-06
-4.7398e-06
-4.7313e-05
9.71499e-06
-4.3665e-06
-1.97322e-06
1.04957e-05
-4.47186e-06
-4.08113e-08
1.24998e-05
-4.21358e-06
5.35388e-07
1.44238e-05
-4.04749e-06
-5.75242e-07
1.59219e-05
-3.8865e-06
2.12169e-05
-4.33543e-06
-4.1822e-06
-1.19794e-06
5.76272e-07
-1.58463e-06
-4.85099e-06
-2.46527e-06
-8.36722e-07
-1.92269e-06
-1.24552e-06
-1.79556e-07
-3.16439e-06
-1.57537e-06
3.27132e-07
-2.77428e-06
-8.91761e-07
-2.72665e-08
-2.98407e-06
8.10001e-08
8.87484e-08
-2.57e-06
2.02423e-07
1.47393e-07
-1.81691e-06
2.19558e-07
5.87368e-07
-1.30055e-06
7.7959e-09
6.60911e-07
-2.52739e-07
-1.67986e-08
4.62381e-07
3.90434e-07
-1.75379e-09
1.7537e-07
5.22413e-07
-7.51354e-09
-3.23039e-08
4.03045e-07
-8.25489e-08
-1.42771e-07
3.09059e-07
-1.5215e-07
-2.02464e-07
3.22812e-07
-2.0169e-07
-2.37019e-07
3.54094e-07
-2.34646e-07
-2.57436e-07
3.98973e-07
-2.59148e-07
-2.69244e-07
4.27041e-07
-2.73585e-07
-2.79428e-07
4.52952e-07
-2.80972e-07
-2.88536e-07
4.63686e-07
-2.8346e-07
-2.97433e-07
4.68098e-07
-2.83724e-07
-3.05572e-07
4.64469e-07
-2.82374e-07
-3.12945e-07
4.56623e-07
-2.79656e-07
-3.19731e-07
4.45558e-07
-2.75754e-07
-3.26099e-07
4.3262e-07
-2.71373e-07
-3.32341e-07
4.18128e-07
-2.66246e-07
-3.38388e-07
4.02395e-07
-2.60807e-07
-3.4416e-07
3.85578e-07
-2.55249e-07
-3.50322e-07
3.68808e-07
-2.49477e-07
-3.5638e-07
3.50152e-07
-2.44172e-07
-3.63685e-07
3.31523e-07
-2.38365e-07
-3.71274e-07
3.09492e-07
-2.33395e-07
-3.81778e-07
2.8658e-07
-2.26979e-07
-3.92573e-07
2.57582e-07
-2.22292e-07
-4.06546e-07
2.22867e-07
-2.15799e-07
-4.27952e-07
1.7986e-07
-2.10669e-07
-4.61947e-07
1.33172e-07
-2.02746e-07
-5.10824e-07
9.11441e-08
-1.94374e-07
-5.78653e-07
4.62609e-08
-1.85194e-07
-6.60469e-07
1.36884e-08
-1.77826e-07
-7.3622e-07
-3.75993e-08
-1.77813e-07
-8.05787e-07
-9.19963e-08
-1.88808e-07
-8.32384e-07
-2.1467e-07
-2.35927e-07
-8.12276e-07
-2.81019e-07
-2.93819e-07
-7.94917e-07
-1.57046e-07
-3.23496e-07
-1.05925e-06
3.73869e-07
-2.13901e-07
-1.5358e-06
5.10616e-07
-3.30168e-08
-1.43412e-06
-1.46524e-06
3.37135e-07
-2.69388e-06
-4.55719e-06
1.34932e-06
-1.17867e-05
-1.93362e-06
2.89957e-06
-2.70682e-05
5.90213e-06
2.96357e-06
-3.78985e-05
2.73941e-06
2.76141e-06
-4.05927e-05
-1.15565e-05
7.50648e-07
-4.08479e-05
-1.76739e-05
-1.77293e-06
-3.86235e-05
-2.02692e-05
-3.00323e-06
-3.05252e-05
-2.31803e-05
-5.25438e-06
-3.09707e-05
-2.91582e-05
-3.54033e-06
-3.08432e-05
-3.41675e-05
-2.59945e-06
-1.41797e-06
-1.87513e-05
-9.3744e-07
-5.97727e-05
3.68148e-07
-4.50249e-06
-0.000146693
-7.69923e-06
-3.67265e-06
-0.000152398
6.49846e-06
4.97621e-06
-0.000163429
9.32386e-06
3.54574e-06
-0.000174723
1.20229e-05
4.7245e-06
-0.000179594
6.34717e-06
4.21571e-06
-0.000181406
4.1629e-07
3.49616e-06
-0.000183644
-3.99157e-06
3.32848e-06
-0.000186259
-7.55227e-06
3.27191e-06
-0.000186994
-9.37943e-06
3.46082e-06
-0.000188113
-1.02909e-05
3.55704e-06
-0.000189393
-1.04879e-05
3.67827e-06
-0.000188868
-1.03155e-05
3.76118e-06
-0.000187744
-9.90862e-06
3.52166e-06
-0.000186733
-9.22353e-06
2.45897e-06
-0.000184701
-8.71847e-06
1.18314e-06
-0.000181696
-7.65312e-06
-3.49012e-08
-0.000177975
-6.01115e-06
-1.10578e-06
-0.000173302
-4.3188e-06
-1.82124e-06
-0.000167957
-3.12936e-06
-1.82798e-06
-0.000162347
-2.27814e-06
-1.06775e-06
-0.000156952
-1.48048e-06
1.26584e-08
-0.000152793
4.90123e-07
1.89586e-06
-0.00015078
1.70859e-06
3.02534e-06
-0.000150096
3.03804e-06
3.9036e-06
-0.000150304
4.49204e-06
4.0997e-06
-0.000151139
4.60132e-06
4.1717e-06
-0.00015162
5.4686e-06
3.46852e-06
-0.000151794
6.49372e-06
2.00491e-06
-0.000151647
8.29526e-06
-2.52191e-07
-0.000148744
9.98464e-06
-2.79383e-06
-0.000141892
1.2157e-05
-4.91674e-06
-0.000131935
1.37332e-05
-5.54705e-06
-0.000107969
1.67813e-05
-6.20839e-06
-4.38031e-05
2.04002e-05
-6.82841e-06
2.23013e-06
2.49023e-05
-6.86784e-06
3.15832e-05
-5.00886e-06
-4.39888e-06
-5.6155e-08
1.3825e-06
-1.68589e-06
-4.84573e-06
-2.71825e-06
-5.05725e-07
-7.5714e-07
-2.34571e-06
5.75061e-08
-1.19168e-06
-2.53594e-06
9.05675e-07
-1.44397e-06
-2.17849e-06
6.5588e-07
-1.7251e-06
-1.00918e-06
4.57026e-07
-1.89919e-06
-4.71959e-07
1.83284e-07
-1.67488e-06
1.31712e-07
5.03812e-07
-1.46235e-06
-1.58731e-07
7.48218e-07
-3.30271e-07
-1.66874e-07
7.24806e-07
5.57203e-07
-1.43356e-07
5.28572e-07
7.70815e-07
-5.21662e-08
3.13131e-07
7.16968e-07
-9.84818e-08
1.36606e-07
6.73433e-07
-1.87846e-07
-6.09886e-09
7.15466e-07
-2.49947e-07
-1.20674e-07
7.65664e-07
-2.96992e-07
-2.08176e-07
8.20019e-07
-3.33542e-07
-2.73395e-07
8.55211e-07
-3.62947e-07
-3.22603e-07
8.85514e-07
-3.83351e-07
-3.60563e-07
8.99724e-07
-3.98074e-07
-3.8994e-07
9.05511e-07
-4.08032e-07
-4.12679e-07
9.0127e-07
-4.14058e-07
-4.28483e-07
8.9176e-07
-4.1933e-07
-4.41372e-07
8.81832e-07
-4.23381e-07
-4.5186e-07
8.71818e-07
-4.28705e-07
-4.61338e-07
8.62066e-07
-4.34457e-07
-4.70326e-07
8.52397e-07
-4.41009e-07
-4.79261e-07
8.42517e-07
-4.48001e-07
-4.8876e-07
8.33117e-07
-4.54805e-07
-4.98414e-07
8.22301e-07
-4.62492e-07
-5.09747e-07
8.12766e-07
-4.69907e-07
-5.22975e-07
8.01344e-07
-4.78621e-07
-5.39715e-07
7.90383e-07
-4.87061e-07
-5.60392e-07
7.75942e-07
-4.97682e-07
-5.92733e-07
7.62413e-07
-5.07204e-07
-6.44759e-07
7.47646e-07
-5.15761e-07
-7.19708e-07
7.29099e-07
-5.2098e-07
-8.14923e-07
7.10419e-07
-5.24064e-07
-9.22949e-07
6.77877e-07
-5.23596e-07
-1.01754e-06
6.288e-07
-5.20533e-07
-1.05911e-06
5.22433e-07
-5.18464e-07
-1.01902e-06
3.78322e-07
-5.10426e-07
-8.63173e-07
1.47564e-07
-5.18101e-07
-6.142e-07
2.9404e-08
-5.59419e-07
-3.79107e-07
2.05206e-07
-5.97373e-07
-4.17244e-07
8.84256e-07
-4.7228e-07
-3.50705e-07
4.89038e-07
-4.49946e-08
-1.56221e-06
-1.55405e-06
1.30027e-06
-1.39665e-05
4.28076e-06
3.56627e-06
-3.33622e-05
1.26453e-05
4.81685e-06
-4.13639e-05
1.31857e-05
7.18135e-07
-4.10744e-05
5.79876e-06
-3.34887e-06
-4.34498e-05
-6.95103e-06
-2.23002e-06
-4.54932e-05
-1.38336e-05
-1.7968e-06
-4.48489e-05
-1.65296e-05
-4.38382e-06
-3.95908e-05
-2.00223e-05
-8.41604e-06
-4.15696e-05
-2.10071e-05
-6.17219e-06
-3.54417e-05
-3.16563e-05
-8.63904e-06
-9.75153e-07
-5.03646e-05
-8.90337e-06
-7.63922e-05
1.18365e-05
-2.46325e-06
-0.000177494
1.87793e-05
-5.46626e-07
-0.000182885
1.38435e-05
3.89246e-06
-0.000192753
1.8058e-05
3.29559e-06
-0.000200582
1.24904e-05
2.91844e-06
-0.000202425
5.05622e-06
1.69329e-06
-0.000202766
-2.23739e-06
1.65952e-06
-0.000204166
-5.30279e-06
2.35244e-06
-0.000206351
-7.9749e-06
2.60356e-06
-0.000209458
-8.64772e-06
3.00359e-06
-0.000213162
-8.88761e-06
2.6844e-06
-0.000216447
-8.62588e-06
1.8855e-06
-0.000219388
-8.28904e-06
1.14727e-06
-0.000222107
-8.13396e-06
7.91033e-07
-0.000224245
-8.24531e-06
8.40524e-07
-0.00022503
-8.28322e-06
7.20541e-07
-0.000225102
-7.81518e-06
4.92059e-07
-0.000225345
-6.79984e-06
5.49804e-07
-0.000225286
-6.60216e-06
1.64501e-06
-0.000224483
-7.35302e-06
2.48308e-06
-0.000223496
-7.96469e-06
4.00262e-06
-0.000221228
-9.12947e-06
5.13204e-06
-0.000217697
-8.98236e-06
6.21807e-06
-0.000213874
-8.28822e-06
6.79168e-06
-0.000210177
-6.69522e-06
7.37561e-06
-0.000207522
-4.39508e-06
7.80485e-06
-0.000206771
-2.78847e-06
7.84814e-06
-0.000207408
-4.73735e-07
7.2983e-06
-0.000209317
2.27521e-06
5.7762e-06
-0.000210768
5.70075e-06
3.472e-06
-0.00020923
9.27168e-06
-9.04905e-07
-0.000206167
1.33077e-05
-4.10804e-06
-0.000200235
1.54059e-05
-7.07483e-06
-0.000190274
1.96772e-05
-8.58152e-06
-0.000176559
2.40882e-05
-9.43396e-06
-0.000162322
2.91288e-05
-8.8648e-06
3.04299e-05
-5.31404e-06
-3.32337e-06
7.03342e-07
2.80794e-06
-2.05116e-06
-4.43054e-06
-1.6874e-06
-1.53495e-06
1.39166e-07
-1.41252e-06
-8.42992e-07
-6.8832e-08
-1.81481e-06
2.79262e-07
-2.68502e-07
-2.29772e-06
3.6774e-07
-3.67814e-07
-1.44576e-06
4.00568e-07
-1.03787e-06
-8.94152e-07
4.17258e-08
-1.24329e-06
-7.275e-08
2.51375e-07
-1.48547e-06
-1.86525e-07
5.53525e-07