/*--------------------------------*- C++ -*----------------------------------*\
| =========                 |                                                 |
| \\      /  F ield         | OpenFOAM: The Open Source CFD Toolbox           |
|  \\    /   O peration     | Version:  2.3.0                                 |
|   \\  /    A nd           | Web:      www.OpenFOAM.org                      |
|    \\/     M anipulation  |                                                 |
\*---------------------------------------------------------------------------*/
FoamFile
{
    version     2.0;
    format      ascii;
    class       volScalarField;
    location    "11";
    object      rho;
}
// * * * * * * * * * * * * * * * * * * * * * * * * * * * * * * * * * * * * * //

dimensions      [1 -3 0 0 0 0 0];

internalField   nonuniform List<scalar> 
6144
(
1.168
1.16826
1.16855
1.16866
1.16881
1.16887
1.16888
1.16889
1.16889
1.16889
1.16889
1.1689
1.1689
1.1689
1.1689
1.16891
1.16891
1.16891
1.16891
1.16891
1.16891
1.16892
1.16892
1.16892
1.16892
1.16892
1.16892
1.16893
1.16893
1.16893
1.16893
1.16893
1.16893
1.16894
1.16894
1.16894
1.16894
1.16895
1.16894
1.16895
1.16895
1.16896
1.16895
1.16896
1.16895
1.16896
1.16895
1.16898
1.16896
1.16898
1.16897
1.16931
1.17606
1.20853
1.2326
1.28299
1.39721
1.92589
2.92164
60.668
976.786
1026.75
1027.09
1027.09
1027.09
1027.1
1027.1
1027.1
1027.1
1027.1
1027.1
1027.1
1027.1
1027.1
1027.1
1027.1
1027.1
1027.1
1027.1
1027.1
1027.1
1027.1
1027.1
1027.1
1027.1
1027.1
1027.1
1027.1
1027.1
1027.1
1027.1
1027.1
1027.1
1027.1
1027.1
1027.1
1.1679
1.16807
1.16822
1.16838
1.16861
1.16874
1.16879
1.16885
1.16887
1.16889
1.16889
1.1689
1.1689
1.1689
1.1689
1.1689
1.16891
1.16891
1.16891
1.16891
1.16891
1.16891
1.16892
1.16892
1.16892
1.16892
1.16892
1.16892
1.16893
1.16893
1.16893
1.16893
1.16893
1.16894
1.16894
1.16894
1.16894
1.16894
1.16894
1.16895
1.16894
1.16895
1.16895
1.16896
1.16895
1.16896
1.16895
1.16897
1.16896
1.16899
1.16897
1.16928
1.17407
1.20621
1.23836
1.27442
1.4206
2.0996
2.89542
48.8857
983.307
1027
1027.09
1027.09
1027.09
1027.1
1027.1
1027.1
1027.1
1027.1
1027.1
1027.1
1027.1
1027.1
1027.1
1027.1
1027.1
1027.1
1027.1
1027.1
1027.1
1027.1
1027.1
1027.1
1027.1
1027.1
1027.1
1027.1
1027.1
1027.1
1027.1
1027.1
1027.1
1027.1
1027.1
1027.1
1.16789
1.16803
1.16815
1.16829
1.16844
1.16858
1.16863
1.16873
1.16878
1.16884
1.16888
1.1689
1.1689
1.1689
1.1689
1.16891
1.16891
1.16891
1.16891
1.16891
1.16891
1.16892
1.16892
1.16892
1.16892
1.16892
1.16892
1.16893
1.16893
1.16893
1.16893
1.16893
1.16893
1.16894
1.16894
1.16894
1.16894
1.16894
1.16894
1.16895
1.16895
1.16896
1.16895
1.16896
1.16895
1.16896
1.16895
1.16898
1.16896
1.16905
1.16925
1.17016
1.17254
1.19176
1.24955
1.29718
1.35857
1.91328
2.10053
44.8945
979.61
1027.09
1027.09
1027.09
1027.09
1027.1
1027.1
1027.1
1027.1
1027.1
1027.1
1027.1
1027.1
1027.1
1027.1
1027.1
1027.1
1027.1
1027.1
1027.1
1027.1
1027.1
1027.1
1027.1
1027.1
1027.1
1027.1
1027.1
1027.1
1027.1
1027.1
1027.1
1027.1
1027.1
1027.1
1027.1
1.16783
1.16793
1.16813
1.16822
1.16838
1.16849
1.1686
1.1687
1.16873
1.16879
1.16885
1.16889
1.1689
1.1689
1.1689
1.16891
1.16891
1.16891
1.16891
1.16891
1.16891
1.16892
1.16892
1.16892
1.16892
1.16892
1.16892
1.16893
1.16893
1.16893
1.16893
1.16893
1.16893
1.16894
1.16894
1.16894
1.16894
1.16894
1.16894
1.16895
1.16895
1.16896
1.16895
1.16896
1.16895
1.16897
1.16895
1.16898
1.16896
1.16921
1.1703
1.17249
1.17643
1.20261
1.26622
1.30588
1.30108
1.75891
1.61317
41.516
974.728
1027.09
1027.09
1027.09
1027.09
1027.1
1027.1
1027.1
1027.1
1027.1
1027.1
1027.1
1027.1
1027.1
1027.1
1027.1
1027.1
1027.1
1027.1
1027.1
1027.1
1027.1
1027.1
1027.1
1027.1
1027.1
1027.1
1027.1
1027.1
1027.1
1027.1
1027.1
1027.1
1027.1
1027.1
1027.1
1.16768
1.16764
1.168
1.16799
1.16815
1.16824
1.16856
1.16871
1.16877
1.16882
1.16884
1.16888
1.1689
1.1689
1.1689
1.16891
1.16891
1.16891
1.16891
1.16891
1.16891
1.16892
1.16892
1.16892
1.16892
1.16892
1.16892
1.16893
1.16893
1.16893
1.16893
1.16893
1.16893
1.16894
1.16894
1.16894
1.16894
1.16894
1.16894
1.16895
1.16895
1.16895
1.16895
1.16896
1.16895
1.16897
1.16895
1.16898
1.16897
1.16958
1.17188
1.17561
1.18119
1.19486
1.25547
1.309
1.33636
1.60147
1.37241
91.8513
1000.16
1027.04
1027.08
1027.09
1027.09
1027.09
1027.09
1027.09
1027.09
1027.09
1027.09
1027.09
1027.09
1027.09
1027.09
1027.09
1027.09
1027.09
1027.09
1027.1
1027.1
1027.1
1027.1
1027.1
1027.1
1027.1
1027.1
1027.1
1027.1
1027.1
1027.1
1027.1
1027.1
1027.1
1027.1
1027.1
1.16741
1.16725
1.16779
1.16774
1.16789
1.16794
1.16813
1.16839
1.16872
1.16884
1.16887
1.16889
1.1689
1.1689
1.1689
1.1689
1.1689
1.16891
1.16891
1.16891
1.16891
1.16891
1.16891
1.16892
1.16892
1.16892
1.16892
1.16892
1.16893
1.16893
1.16893
1.16893
1.16893
1.16893
1.16894
1.16894
1.16894
1.16894
1.16894
1.16894
1.16895
1.16895
1.16895
1.16895
1.16895
1.16896
1.16895
1.16898
1.16901
1.16989
1.17257
1.1778
1.1848
1.19019
1.2707
1.34653
1.33239
1.46044
1.22497
216.139
1013.09
1025.73
1025.94
1026.4
1026.56
1026.63
1026.65
1026.67
1026.58
1026.35
1026.3
1026.33
1026.24
1026.19
1026.17
1026.2
1026.27
1026.33
1026.44
1026.54
1026.66
1026.79
1026.9
1026.97
1027.01
1027.04
1027.08
1027.09
1027.1
1027.1
1027.1
1027.1
1027.1
1027.1
1027.1
1027.1
1.16707
1.16677
1.16743
1.16744
1.16774
1.16781
1.16782
1.16793
1.1683
1.16871
1.16886
1.16889
1.1689
1.1689
1.1689
1.16891
1.16891
1.16891
1.16891
1.16891
1.16891
1.16892
1.16892
1.16892
1.16892
1.16892
1.16893
1.16893
1.16893
1.16893
1.16893
1.16893
1.16894
1.16894
1.16894
1.16894
1.16894
1.16895
1.16895
1.16895
1.16895
1.16896
1.16896
1.16896
1.16896
1.16896
1.16896
1.16898
1.16903
1.16993
1.17242
1.17726
1.18419
1.19099
1.27293
1.36286
1.35145
1.37355
1.169
417.356
1016.05
1017.66
1017.43
1019
1019.27
1019.08
1019.35
1021.33
1021.57
1019.26
1017.92
1017.93
1017.94
1015.66
1015.21
1017.59
1018.57
1018.77
1019.12
1019.9
1020.73
1021.67
1022.27
1022.58
1022.9
1023.17
1024.23
1025.54
1026.28
1026.73
1026.95
1027.05
1027.08
1027.09
1027.09
1027.1
1.16677
1.16645
1.1668
1.16691
1.16746
1.16768
1.16771
1.16767
1.16775
1.16832
1.16875
1.16888
1.1689
1.1689
1.1689
1.16891
1.16891
1.16891
1.16891
1.16892
1.16892
1.16892
1.16892
1.16892
1.16892
1.16893
1.16893
1.16893
1.16893
1.16893
1.16894
1.16894
1.16894
1.16894
1.16894
1.16894
1.16895
1.16895
1.16895
1.16895
1.16895
1.16896
1.16896
1.16896
1.16896
1.16896
1.16895
1.16899
1.16905
1.16979
1.17161
1.17476
1.18036
1.19571
1.23274
1.3309
1.36588
1.3988
1.169
495.305
1003.16
1005.43
1004.61
1007.02
1008.35
1008.23
1007.9
1007.78
1007.4
1006.89
1006.71
1006.79
1007.75
1008.95
1009.91
1010.25
1010.34
1010.49
1010.66
1011.55
1013.05
1013.49
1013.1
1012.04
1011.37
1011.08
1011.54
1014.12
1016.11
1017.93
1019.59
1020.58
1021.85
1025.07
1026.88
1027.1
1.16628
1.16659
1.16635
1.16635
1.16681
1.16736
1.16759
1.16751
1.16736
1.16793
1.16861
1.16887
1.16889
1.1689
1.1689
1.1689
1.1689
1.16891
1.16891
1.16891
1.16891
1.16892
1.16892
1.16892
1.16892
1.16892
1.16892
1.16893
1.16893
1.16893
1.16893
1.16893
1.16893
1.16894
1.16894
1.16894
1.16894
1.16894
1.16894
1.16895
1.16895
1.16895
1.16895
1.16896
1.16895
1.16896
1.16895
1.16898
1.16901
1.16953
1.17077
1.17305
1.17856
1.20185
1.22617
1.29407
1.3408
1.37772
1.169
378.097
1013.23
1018.81
1018.63
1017.21
1016.93
1018.55
1019.87
1020.13
1020.68
1022.1
1022.73
1023.45
1024.47
1025.19
1025.65
1025.94
1026.06
1026.13
1026.2
1026.22
1026.2
1026.14
1026.08
1026.01
1025.93
1025.87
1025.83
1025.81
1025.88
1026.13
1026.35
1026.54
1026.7
1026.8
1026.87
1026.96
1.16587
1.16677
1.16655
1.16628
1.16618
1.16683
1.16729
1.16734
1.16714
1.1677
1.16855
1.16887
1.1689
1.1689
1.1689
1.1689
1.16891
1.16891
1.16891
1.16891
1.16891
1.16891
1.16892
1.16892
1.16892
1.16892
1.16892
1.16892
1.16893
1.16893
1.16893
1.16893
1.16893
1.16894
1.16894
1.16894
1.16894
1.16894
1.16894
1.16895
1.16895
1.16895
1.16895
1.16896
1.16895
1.16896
1.16895
1.16898
1.16899
1.16937
1.17035
1.17283
1.17873
1.20094
1.22243
1.28259
1.31243
1.42481
1.1812
286.122
1022.19
1025.87
1026.09
1026.18
1026.23
1026.46
1026.69
1026.8
1026.86
1026.93
1027.02
1027.06
1027.08
1027.09
1027.09
1027.1
1027.1
1027.1
1027.1
1027.1
1027.1
1027.1
1027.1
1027.1
1027.1
1027.1
1027.1
1027.09
1027.09
1027.09
1027.09
1027.09
1027.09
1027.09
1027.09
1027.1
1.16255
1.16602
1.16667
1.16634
1.16609
1.16643
1.16688
1.16709
1.16693
1.1675
1.1685
1.16886
1.1689
1.16891
1.16891
1.16891
1.16891
1.16891
1.16891
1.16891
1.16892
1.16892
1.16892
1.16892
1.16892
1.16892
1.16893
1.16893
1.16893
1.16893
1.16893
1.16893
1.16894
1.16894
1.16894
1.16894
1.16894
1.16895
1.16895
1.16895
1.16895
1.16895
1.16895
1.16896
1.16896
1.16897
1.16896
1.16899
1.16898
1.16933
1.17031
1.17389
1.18269
1.20174
1.22511
1.27593
1.29475
1.54601
1.35056
149.422
1017.74
1027.06
1027.08
1027.09
1027.09
1027.09
1027.09
1027.1
1027.1
1027.1
1027.1
1027.1
1027.1
1027.1
1027.1
1027.1
1027.1
1027.1
1027.1
1027.1
1027.1
1027.1
1027.1
1027.1
1027.1
1027.1
1027.1
1027.1
1027.1
1027.1
1027.1
1027.1
1027.1
1027.1
1027.1
1027.1
1.16373
1.16543
1.16554
1.16559
1.16559
1.16605
1.16649
1.16679
1.16662
1.16737
1.16846
1.16885
1.16891
1.16891
1.16891
1.16891
1.16891
1.16892
1.16892
1.16892
1.16892
1.16892
1.16892
1.16893
1.16893
1.16893
1.16893
1.16893
1.16893
1.16894
1.16894
1.16894
1.16894
1.16894
1.16894
1.16895
1.16895
1.16895
1.16895
1.16895
1.16896
1.16896
1.16896
1.16896
1.16896
1.16897
1.16896
1.16899
1.16898
1.16937
1.17071
1.17531
1.1833
1.20305
1.26069
1.28376
1.28376
1.64085
1.48013
61.6562
976.279
1027.09
1027.09
1027.09
1027.1
1027.1
1027.1
1027.1
1027.1
1027.1
1027.1
1027.1
1027.1
1027.1
1027.1
1027.1
1027.1
1027.1
1027.1
1027.1
1027.1
1027.1
1027.1
1027.1
1027.1
1027.1
1027.1
1027.1
1027.1
1027.1
1027.1
1027.1
1027.1
1027.1
1027.1
1027.1
1.16313
1.16429
1.16439
1.16466
1.16492
1.16535
1.16592
1.16625
1.16618
1.16721
1.16841
1.16885
1.16891
1.16891
1.16891
1.16891
1.16891
1.16892
1.16892
1.16892
1.16892
1.16892
1.16892
1.16893
1.16893
1.16893
1.16893
1.16893
1.16893
1.16894
1.16894
1.16894
1.16894
1.16894
1.16894
1.16895
1.16895
1.16895
1.16895
1.16895
1.16896
1.16896
1.16896
1.16896
1.16896
1.16897
1.16896
1.16899
1.16899
1.16945
1.1713
1.17667
1.18363
1.19413
1.24115
1.28302
1.30034
1.7421
1.64474
34.4557
962.125
1027.1
1027.09
1027.1
1027.1
1027.1
1027.1
1027.1
1027.1
1027.1
1027.1
1027.1
1027.1
1027.1
1027.1
1027.1
1027.1
1027.1
1027.1
1027.1
1027.1
1027.1
1027.1
1027.1
1027.1
1027.1
1027.1
1027.1
1027.1
1027.1
1027.1
1027.1
1027.1
1027.1
1027.1
1027.1
1.16279
1.16375
1.16389
1.16414
1.16447
1.16489
1.16543
1.16572
1.16576
1.16716
1.16842
1.16885
1.1689
1.16891
1.16891
1.16891
1.16891
1.16891
1.16892
1.16892
1.16892
1.16892
1.16892
1.16892
1.16893
1.16893
1.16893
1.16893
1.16893
1.16893
1.16894
1.16894
1.16894
1.16894
1.16894
1.16894
1.16895
1.16895
1.16895
1.16895
1.16895
1.16896
1.16895
1.16896
1.16896
1.16896
1.16895
1.16899
1.16902
1.16961
1.17183
1.17752
1.18388
1.19561
1.21523
1.2592
1.35304
1.86115
1.8496
33.3788
968.778
1027.09
1027.1
1027.1
1027.1
1027.1
1027.1
1027.1
1027.1
1027.1
1027.1
1027.1
1027.1
1027.1
1027.1
1027.1
1027.1
1027.1
1027.1
1027.1
1027.1
1027.1
1027.1
1027.1
1027.1
1027.1
1027.1
1027.1
1027.1
1027.1
1027.1
1027.1
1027.1
1027.1
1027.1
1027.1
1.16259
1.16356
1.16381
1.16412
1.16431
1.16452
1.16469
1.16493
1.16589
1.16731
1.16845
1.16885
1.1689
1.1689
1.16891
1.16891
1.16891
1.16891
1.16891
1.16891
1.16892
1.16892
1.16892
1.16892
1.16892
1.16892
1.16893
1.16893
1.16893
1.16893
1.16893
1.16894
1.16894
1.16894
1.16894
1.16894
1.16894
1.16895
1.16895
1.16895
1.16895
1.16896
1.16895
1.16896
1.16896
1.16897
1.16895
1.16899
1.16904
1.1697
1.17165
1.1766
1.18413
1.20064
1.20589
1.23734
1.44871
2.02679
2.49999
42.1499
983.391
1027.03
1027.1
1027.1
1027.1
1027.1
1027.1
1027.1
1027.1
1027.1
1027.1
1027.1
1027.1
1027.1
1027.1
1027.1
1027.1
1027.1
1027.1
1027.1
1027.1
1027.1
1027.1
1027.1
1027.1
1027.1
1027.1
1027.1
1027.1
1027.1
1027.1
1027.1
1027.1
1027.1
1027.1
1027.1
1.16221
1.16277
1.163
1.16325
1.16351
1.16388
1.16446
1.16538
1.16651
1.16779
1.16862
1.16888
1.16891
1.16891
1.16891
1.16891
1.16891
1.16892
1.16892
1.16892
1.16892
1.16892
1.16893
1.16893
1.16893
1.16893
1.16893
1.16893
1.16894
1.16894
1.16894
1.16894
1.16894
1.16894
1.16895
1.16895
1.16895
1.16895
1.16895
1.16896
1.16896
1.16896
1.16896
1.16896
1.16897
1.16897
1.16896
1.16899
1.16901
1.16946
1.17085
1.17469
1.18305
1.19962
1.20735
1.28361
1.3868
1.94685
2.17689
45.4049
978.041
1026.8
1027.09
1027.1
1027.1
1027.1
1027.1
1027.1
1027.1
1027.1
1027.1
1027.1
1027.1
1027.1
1027.1
1027.1
1027.1
1027.1
1027.1
1027.1
1027.1
1027.1
1027.1
1027.1
1027.1
1027.1
1027.1
1027.1
1027.1
1027.1
1027.1
1027.1
1027.1
1027.1
1027.1
1027.1
1.16778
1.16793
1.16806
1.16814
1.16827
1.16835
1.16853
1.1687
1.16883
1.16889
1.1689
1.16891
1.16891
1.16891
1.16891
1.16891
1.16891
1.16892
1.16892
1.16892
1.16892
1.16892
1.16892
1.16893
1.16893
1.16893
1.16893
1.16893
1.16893
1.16894
1.16894
1.16894
1.16894
1.16894
1.16895
1.16895
1.16895
1.16895
1.16895
1.16895
1.16896
1.16896
1.16896
1.16896
1.16896
1.16897
1.16896
1.16898
1.16896
1.16901
1.16904
1.16943
1.17627
1.20745
1.23194
1.28045
1.39166
2.18936
4.92979
67.754
966.451
1026.55
1027.09
1027.09
1027.09
1027.1
1027.1
1027.1
1027.1
1027.1
1027.1
1027.1
1027.1
1027.1
1027.1
1027.1
1027.1
1027.1
1027.1
1027.1
1027.1
1027.1
1027.1
1027.1
1027.1
1027.1
1027.1
1027.1
1027.1
1027.1
1027.1
1027.1
1027.1
1027.1
1027.1
1027.1
1.16775
1.16782
1.16779
1.1678
1.16777
1.16777
1.1678
1.16795
1.16824
1.16864
1.16884
1.1689
1.16891
1.16891
1.16891
1.16891
1.16891
1.16892
1.16892
1.16892
1.16892
1.16892
1.16892
1.16893
1.16893
1.16893
1.16893
1.16893
1.16893
1.16894
1.16894
1.16894
1.16894
1.16894
1.16894
1.16895
1.16895
1.16895
1.16895
1.16895
1.16895
1.16896
1.16896
1.16896
1.16896
1.16897
1.16895
1.16899
1.16901
1.16938
1.17001
1.16962
1.17757
1.20972
1.22806
1.27141
1.42609
2.08925
3.2688
55.8558
976.713
1026.98
1027.09
1027.09
1027.09
1027.1
1027.1
1027.1
1027.1
1027.1
1027.1
1027.1
1027.1
1027.1
1027.1
1027.1
1027.1
1027.1
1027.1
1027.1
1027.1
1027.1
1027.1
1027.1
1027.1
1027.1
1027.1
1027.1
1027.1
1027.1
1027.1
1027.1
1027.1
1027.1
1027.1
1027.1
1.16781
1.168
1.16807
1.16813
1.16807
1.16796
1.16778
1.16777
1.16778
1.16815
1.16865
1.16886
1.16891
1.16891
1.16891
1.16891
1.16891
1.16892
1.16892
1.16892
1.16892
1.16892
1.16892
1.16893
1.16893
1.16893
1.16893
1.16893
1.16893
1.16894
1.16894
1.16894
1.16894
1.16894
1.16894
1.16895
1.16895
1.16895
1.16895
1.16895
1.16895
1.16896
1.16896
1.16896
1.16896
1.16897
1.16895
1.169
1.16908
1.1699
1.17126
1.17246
1.17456
1.20459
1.22351
1.28565
1.35798
1.85819
2.18959
39.972
975.894
1027.09
1027.09
1027.09
1027.09
1027.1
1027.1
1027.1
1027.1
1027.1
1027.1
1027.1
1027.1
1027.1
1027.1
1027.1
1027.1
1027.1
1027.1
1027.1
1027.1
1027.1
1027.1
1027.1
1027.1
1027.1
1027.1
1027.1
1027.1
1027.1
1027.1
1027.1
1027.1
1027.1
1027.1
1027.1
1.16748
1.16798
1.16809
1.1682
1.16827
1.1683
1.16816
1.16789
1.1678
1.16792
1.16847
1.16881
1.1689
1.16891
1.16891
1.16891
1.16891
1.16891
1.16891
1.16892
1.16892
1.16892
1.16892
1.16892
1.16892
1.16893
1.16893
1.16893
1.16893
1.16893
1.16893
1.16894
1.16894
1.16894
1.16894
1.16894
1.16894
1.16895
1.16895
1.16895
1.16895
1.16895
1.16895
1.16896
1.16895
1.16897
1.16895
1.169
1.16909
1.17001
1.17172
1.17523
1.17435
1.19673
1.24056
1.31267
1.30108
1.76051
1.64859
34.421
973.412
1027.09
1027.09
1027.09
1027.09
1027.1
1027.1
1027.1
1027.1
1027.1
1027.1
1027.1
1027.1
1027.1
1027.1
1027.1
1027.1
1027.1
1027.1
1027.1
1027.1
1027.1
1027.1
1027.1
1027.1
1027.1
1027.1
1027.1
1027.1
1027.1
1027.1
1027.1
1027.1
1027.1
1027.1
1027.1
1.16716
1.16767
1.16783
1.16801
1.16825
1.16833
1.16835
1.1682
1.16787
1.16789
1.16836
1.16878
1.16889
1.16891
1.16891
1.16891
1.16891
1.16891
1.16891
1.16891
1.16892
1.16892
1.16892
1.16892
1.16892
1.16892
1.16893
1.16893
1.16893
1.16893
1.16893
1.16893
1.16894
1.16894
1.16894
1.16894
1.16894
1.16894
1.16895
1.16895
1.16895
1.16895
1.16895
1.16896
1.16895
1.16896
1.16895
1.16899
1.16902
1.1698
1.17182
1.17599
1.17888
1.18709
1.27111
1.33385
1.46469
1.51285
1.34159
85.6647
1006.49
1026.94
1026.98
1027.06
1027.07
1027.08
1027.08
1027.08
1027.08
1027.07
1027.07
1027.07
1027.07
1027.07
1027.08
1027.08
1027.08
1027.08
1027.08
1027.09
1027.09
1027.09
1027.1
1027.1
1027.1
1027.1
1027.1
1027.1
1027.1
1027.1
1027.1
1027.1
1027.1
1027.1
1027.1
1027.1
1.16695
1.16712
1.16739
1.16767
1.16804
1.1683
1.16834
1.16837
1.16808
1.1679
1.16833
1.16877
1.16889
1.1689
1.16891
1.16891
1.16891
1.16891
1.16891
1.16891
1.16891
1.16892
1.16892
1.16892
1.16892
1.16892
1.16892
1.16893
1.16893
1.16893
1.16893
1.16893
1.16893
1.16894
1.16894
1.16894
1.16894
1.16894
1.16894
1.16895
1.16895
1.16895
1.16895
1.16896
1.16895
1.16896
1.16895
1.16899
1.16899
1.16963
1.17174
1.17585
1.18093
1.19832
1.3546
1.37068
1.37169
1.2919
1.17446
212.507
1008.05
1022.04
1023.02
1024.54
1024.8
1024.79
1024.53
1024.41
1024.28
1023.96
1023.66
1023.45
1023.33
1023.22
1023.16
1023.21
1023.07
1023.42
1023.76
1024.23
1024.91
1025.53
1026.08
1026.49
1026.76
1026.94
1027.04
1027.08
1027.1
1027.1
1027.1
1027.1
1027.1
1027.1
1027.1
1027.1
1.16659
1.16624
1.16688
1.16728
1.16776
1.16805
1.16831
1.16842
1.16822
1.16793
1.16837
1.16877
1.16889
1.1689
1.1689
1.16891
1.16891
1.16891
1.16891
1.16891
1.16891
1.16892
1.16892
1.16892
1.16892
1.16892
1.16892
1.16893
1.16893
1.16893
1.16893
1.16893
1.16893
1.16894
1.16894
1.16894
1.16894
1.16894
1.16894
1.16895
1.16895
1.16895
1.16895
1.16896
1.16895
1.16896
1.16895
1.16898
1.16898
1.16957
1.17186
1.17582
1.18249
1.192
1.36122
1.40014
1.36633
1.30995
1.169
444.477
989.489
996.517
997.041
999.34
999.658
999.253
997.631
996.144
994.56
992.78
991.129
990.149
989.662
989.051
988.452
987.588
986.859
986.363
986.018
986.404
988.518
992.298
995.951
999.305
1002.64
1006.04
1009.85
1014.2
1018.62
1022.45
1025.52
1026.67
1026.63
1026.61
1026.62
1026.69
1.16612
1.16552
1.16604
1.16652
1.16728
1.16763
1.16803
1.16842
1.16832
1.16804
1.16844
1.16879
1.16889
1.1689
1.16891
1.16891
1.16891
1.16891
1.16891
1.16891
1.16892
1.16892
1.16892
1.16892
1.16892
1.16892
1.16892
1.16893
1.16893
1.16893
1.16893
1.16893
1.16894
1.16894
1.16894
1.16894
1.16894
1.16894
1.16895
1.16895
1.16895
1.16895
1.16895
1.16896
1.16895
1.16896
1.16895
1.16898
1.16897
1.16946
1.17139
1.17509
1.18288
1.1971
1.2496
1.3613
1.42553
1.42196
1.169
489.078
970.951
973.646
973.598
973.651
974.238
975.212
974.764
971.908
969.992
968.833
968.244
968.085
967.527
965.798
962.976
959.555
955.61
951.261
946.566
942.018
938.583
935.793
932.204
926.932
920.746
914.442
907.784
901.092
893.474
884.883
876.779
867.804
854.948
834.096
787.703
593.906
1.16573
1.16534
1.1651
1.16518
1.16605
1.16693
1.16757
1.16829
1.16835
1.16809
1.1685
1.16882
1.1689
1.16891
1.16891
1.16891
1.16891
1.16891
1.16891
1.16892
1.16892
1.16892
1.16892
1.16892
1.16892
1.16892
1.16893
1.16893
1.16893
1.16893
1.16893
1.16893
1.16894
1.16894
1.16894
1.16894
1.16894
1.16895
1.16895
1.16895
1.16895
1.16895
1.16895
1.16896
1.16896
1.16897
1.16895
1.16898
1.16896
1.16932
1.17054
1.17394
1.1832
1.20179
1.23535
1.32013
1.38852
1.38213
1.169
336.512
1005.42
1016.03
1016.58
1017.44
1018.19
1018.6
1019
1020.52
1021.47
1021.86
1022.54
1024.04
1024.84
1024.92
1024.5
1024.42
1024.57
1024.17
1023.63
1023.23
1022.14
1021.23
1020.54
1020.11
1019.51
1018.66
1017.57
1016.68
1016.02
1015.37
1015.28
1016.26
1017.1
1019.03
1020.86
1021.19
1.16474
1.16551
1.16513
1.16465
1.16493
1.1657
1.16683
1.16794
1.16826
1.16806
1.16855
1.16883
1.1689
1.16891
1.16891
1.16891
1.16891
1.16891
1.16891
1.16892
1.16892
1.16892
1.16892
1.16892
1.16892
1.16893
1.16893
1.16893
1.16893
1.16893
1.16893
1.16894
1.16894
1.16894
1.16894
1.16894
1.16894
1.16895
1.16895
1.16895
1.16895
1.16895
1.16895
1.16896
1.16896
1.16897
1.16895
1.16898
1.16896
1.16922
1.16997
1.17344
1.18258
1.20004
1.24233
1.33191
1.36463
1.36667
1.18155
196.157
1022.67
1026.64
1026.76
1026.91
1026.96
1026.99
1027.02
1027.05
1027.06
1027.07
1027.08
1027.08
1027.08
1027.08
1027.08
1027.07
1027.07
1027.07
1027.07
1027.07
1027.07
1027.06
1027.05
1027.05
1027.05
1027.05
1027.04
1027.04
1027.03
1027.04
1027.05
1027.07
1027.08
1027.09
1027.1
1027.1
1.16291
1.16481
1.16488
1.16421
1.16412
1.1648
1.16597
1.16748
1.16798
1.168
1.16859
1.16884
1.1689
1.16891
1.16891
1.16891
1.16891
1.16891
1.16891
1.16892
1.16892
1.16892
1.16892
1.16892
1.16892
1.16893
1.16893
1.16893
1.16893
1.16893
1.16893
1.16894
1.16894
1.16894
1.16894
1.16894
1.16894
1.16895
1.16895
1.16895
1.16895
1.16895
1.16895
1.16896
1.16896
1.16897
1.16895
1.16898
1.16896
1.16918
1.16989
1.17377
1.18267
1.19976
1.22497
1.2624
1.37606
1.59544
1.35211
86.6606
983.661
1027.1
1027.09
1027.09
1027.09
1027.1
1027.09
1027.1
1027.1
1027.1
1027.1
1027.1
1027.1
1027.1
1027.1
1027.1
1027.1
1027.1
1027.1
1027.1
1027.1
1027.1
1027.1
1027.1
1027.1
1027.1
1027.1
1027.1
1027.1
1027.1
1027.1
1027.1
1027.1
1027.1
1027.1
1027.1
1.16319
1.16364
1.16348
1.16315
1.1634
1.16395
1.16518
1.16708
1.16759
1.16792
1.16864
1.16886
1.1689
1.16891
1.16891
1.16891
1.16891
1.16891
1.16891
1.16892
1.16892
1.16892
1.16892
1.16892
1.16892
1.16893
1.16893
1.16893
1.16893
1.16893
1.16893
1.16894
1.16894
1.16894
1.16894
1.16894
1.16894
1.16895
1.16895
1.16895
1.16895
1.16895
1.16895
1.16896
1.16896
1.16896
1.16895
1.16898
1.16896
1.16919
1.17004
1.17435
1.18312
1.19999
1.24443
1.27781
1.28378
1.71743
1.57787
50.7593
981.21
1027.1
1027.09
1027.1
1027.1
1027.1
1027.1
1027.1
1027.1
1027.1
1027.1
1027.1
1027.1
1027.1
1027.1
1027.1
1027.1
1027.1
1027.1
1027.1
1027.1
1027.1
1027.1
1027.1
1027.1
1027.1
1027.1
1027.1
1027.1
1027.1
1027.1
1027.1
1027.1
1027.1
1027.1
1027.1
1.1626
1.16285
1.1628
1.16248
1.16283
1.16329
1.16454
1.16676
1.16715
1.16786
1.16866
1.16888
1.1689
1.16891
1.16891
1.16891
1.16891
1.16891
1.16891
1.16892
1.16892
1.16892
1.16892
1.16892
1.16892
1.16892
1.16893
1.16893
1.16893
1.16893
1.16893
1.16893
1.16894
1.16894
1.16894
1.16894
1.16894
1.16894
1.16895
1.16895
1.16895
1.16895
1.16895
1.16896
1.16895
1.16896
1.16895
1.16897
1.16896
1.16926
1.1703
1.17504
1.18353
1.19843
1.21634
1.26769
1.32866
1.78008
2.04554
41.4194
958.653
1027.1
1027.09
1027.1
1027.1
1027.1
1027.1
1027.1
1027.1
1027.1
1027.1
1027.1
1027.1
1027.1
1027.1
1027.1
1027.1
1027.1
1027.1
1027.1
1027.1
1027.1
1027.1
1027.1
1027.1
1027.1
1027.1
1027.1
1027.1
1027.1
1027.1
1027.1
1027.1
1027.1
1027.1
1027.1
1.16239
1.16255
1.16255
1.16226
1.16258
1.16323
1.16499
1.16664
1.16666
1.16788
1.1687
1.16888
1.1689
1.1689
1.1689
1.1689
1.16891
1.16891
1.16891
1.16891
1.16891
1.16891
1.16891
1.16892
1.16892
1.16892
1.16892
1.16892
1.16892
1.16893
1.16893
1.16893
1.16893
1.16893
1.16893
1.16894
1.16894
1.16894
1.16894
1.16894
1.16894
1.16895
1.16895
1.16895
1.16895
1.16896
1.16895
1.16897
1.16898
1.16941
1.1708
1.17553
1.18274
1.19806
1.20653
1.24259
1.38084
1.88638
2.3216
43.0176
963.89
1027.1
1027.09
1027.1
1027.1
1027.1
1027.1
1027.1
1027.1
1027.1
1027.1
1027.1
1027.1
1027.1
1027.1
1027.1
1027.1
1027.1
1027.1
1027.1
1027.1
1027.1
1027.1
1027.1
1027.1
1027.1
1027.1
1027.1
1027.1
1027.1
1027.1
1027.1
1027.1
1027.1
1027.1
1027.1
1.16226
1.16256
1.16259
1.16262
1.16353
1.16456
1.16563
1.16621
1.16644
1.16803
1.16871
1.16888
1.1689
1.1689
1.1689
1.1689
1.1689
1.16891
1.16891
1.16891
1.16891
1.16891
1.16891
1.16891
1.16892
1.16892
1.16892
1.16892
1.16892
1.16892
1.16893
1.16893
1.16893
1.16893
1.16893
1.16893
1.16894
1.16894
1.16894
1.16894
1.16894
1.16895
1.16895
1.16895
1.16895
1.16896
1.16895
1.16897
1.169
1.16951
1.17102
1.17487
1.18217
1.19834
1.20473
1.23687
1.45748
2.05481
3.23224
52.5048
966.293
1026.98
1027.1
1027.1
1027.1
1027.1
1027.1
1027.1
1027.1
1027.1
1027.1
1027.1
1027.1
1027.1
1027.1
1027.1
1027.1
1027.1
1027.1
1027.1
1027.1
1027.1
1027.1
1027.1
1027.1
1027.1
1027.1
1027.1
1027.1
1027.1
1027.1
1027.1
1027.1
1027.1
1027.1
1027.1
1.16206
1.16246
1.16276
1.16318
1.1637
1.1644
1.16537
1.16645
1.1674
1.16818
1.16873
1.16889
1.1689
1.16891
1.16891
1.16891
1.16891
1.16891
1.16892
1.16892
1.16892
1.16892
1.16892
1.16892
1.16893
1.16893
1.16893
1.16893
1.16893
1.16893
1.16894
1.16894
1.16894
1.16894
1.16894
1.16894
1.16895
1.16895
1.16895
1.16895
1.16895
1.16896
1.16896
1.16896
1.16896
1.16897
1.16896
1.16898
1.16899
1.16927
1.17032
1.17376
1.18204
1.19868
1.20075
1.26314
1.38173
2.15067
4.40333
57.3029
959.529
1026.5
1027.09
1027.1
1027.1
1027.1
1027.1
1027.1
1027.1
1027.1
1027.1
1027.1
1027.1
1027.1
1027.1
1027.1
1027.1
1027.1
1027.1
1027.1
1027.1
1027.1
1027.1
1027.1
1027.1
1027.1
1027.1
1027.1
1027.1
1027.1
1027.1
1027.1
1027.1
1027.1
1027.1
1027.1
1.16782
1.168
1.16818
1.1683
1.16846
1.16856
1.1687
1.16881
1.16887
1.1689
1.1689
1.1689
1.1689
1.16891
1.16891
1.16891
1.16891
1.16891
1.16891
1.16892
1.16892
1.16892
1.16892
1.16892
1.16892
1.16893
1.16893
1.16893
1.16893
1.16893
1.16893
1.16894
1.16894
1.16894
1.16894
1.16894
1.16894
1.16895
1.16895
1.16895
1.16895
1.16896
1.16896
1.16896
1.16896
1.16897
1.16895
1.16898
1.16896
1.16898
1.16898
1.16987
1.17646
1.20366
1.22862
1.2854
1.38877
2.15876
4.56959
66.4131
949.728
1026.28
1027.09
1027.09
1027.09
1027.1
1027.1
1027.1
1027.1
1027.1
1027.1
1027.1
1027.1
1027.1
1027.1
1027.1
1027.1
1027.1
1027.1
1027.1
1027.1
1027.1
1027.1
1027.1
1027.1
1027.1
1027.1
1027.1
1027.1
1027.1
1027.1
1027.1
1027.1
1027.1
1027.1
1027.1
1.16774
1.16776
1.16777
1.16782
1.16793
1.16804
1.16824
1.16844
1.16866
1.16882
1.16888
1.1689
1.1689
1.1689
1.16891
1.16891
1.16891
1.16891
1.16891
1.16891
1.16892
1.16892
1.16892
1.16892
1.16892
1.16892
1.16893
1.16893
1.16893
1.16893
1.16893
1.16893
1.16894
1.16894
1.16894
1.16894
1.16894
1.16895
1.16894
1.16895
1.16895
1.16896
1.16895
1.16896
1.16895
1.16896
1.16895
1.16898
1.16896
1.16908
1.1693
1.16965
1.17654
1.20461
1.22938
1.27338
1.46379
2.12582
3.43426
46.0395
957.437
1026.69
1027.09
1027.09
1027.09
1027.1
1027.1
1027.1
1027.1
1027.1
1027.1
1027.1
1027.1
1027.1
1027.1
1027.1
1027.1
1027.1
1027.1
1027.1
1027.1
1027.1
1027.1
1027.1
1027.1
1027.1
1027.1
1027.1
1027.1
1027.1
1027.1
1027.1
1027.1
1027.1
1027.1
1027.1
1.16782
1.16788
1.16778
1.16779
1.16781
1.16789
1.16796
1.16813
1.16838
1.16865
1.16883
1.16889
1.1689
1.1689
1.1689
1.16891
1.16891
1.16891
1.16891
1.16891
1.16891
1.16892
1.16892
1.16892
1.16892
1.16892
1.16892
1.16893
1.16893
1.16893
1.16893
1.16893
1.16893
1.16894
1.16894
1.16894
1.16894
1.16894
1.16894
1.16895
1.16895
1.16895
1.16895
1.16896
1.16895
1.16897
1.16895
1.16897
1.16898
1.16928
1.16999
1.17009
1.17595
1.20577
1.22423
1.26948
1.37882
1.95638
2.11209
41.2924
984.417
1027.08
1027.09
1027.09
1027.09
1027.1
1027.1
1027.1
1027.1
1027.1
1027.1
1027.1
1027.1
1027.1
1027.1
1027.1
1027.1
1027.1
1027.1
1027.1
1027.1
1027.1
1027.1
1027.1
1027.1
1027.1
1027.1
1027.1
1027.1
1027.1
1027.1
1027.1
1027.1
1027.1
1027.1
1027.1
1.16762
1.16811
1.16788
1.1679
1.16791
1.16794
1.16796
1.16804
1.16824
1.16851
1.16876
1.16887
1.16889
1.1689
1.1689
1.1689
1.1689
1.16891
1.16891
1.16891
1.16891
1.16891
1.16891
1.16892
1.16892
1.16892
1.16892
1.16892
1.16892
1.16893
1.16893
1.16893
1.16893
1.16893
1.16893
1.16894
1.16894
1.16894
1.16894
1.16894
1.16894
1.16895
1.16894
1.16895
1.16895
1.16896
1.16895
1.16897
1.169
1.16947
1.17057
1.17112
1.17357
1.20419
1.23301
1.30235
1.31075
1.84098
1.57706
37.5825
995.062
1027.09
1027.09
1027.09
1027.09
1027.1
1027.1
1027.1
1027.1
1027.1
1027.1
1027.1
1027.1
1027.1
1027.1
1027.1
1027.1
1027.1
1027.1
1027.1
1027.1
1027.1
1027.1
1027.1
1027.1
1027.1
1027.1
1027.1
1027.1
1027.1
1027.1
1027.1
1027.1
1027.1
1027.1
1027.1
1.16734
1.16843
1.16792
1.16796
1.16802
1.16805
1.16803
1.16809
1.16818
1.16844
1.16872
1.16886
1.16889
1.1689
1.1689
1.1689
1.1689
1.16891
1.16891
1.16891
1.16891
1.16891
1.16891
1.16892
1.16892
1.16892
1.16892
1.16892
1.16892
1.16893
1.16893
1.16893
1.16893
1.16893
1.16893
1.16894
1.16894
1.16894
1.16894
1.16894
1.16894
1.16895
1.16894
1.16895
1.16895
1.16896
1.16895
1.16897
1.16899
1.16954
1.17098
1.17263
1.17376
1.19977
1.24524
1.31225
1.35343
1.69364
1.57731
68.202
1001.72
1026.99
1027.03
1027.07
1027.09
1027.09
1027.09
1027.09
1027.09
1027.09
1027.09
1027.1
1027.1
1027.1
1027.1
1027.1
1027.1
1027.1
1027.1
1027.1
1027.1
1027.1
1027.1
1027.1
1027.1
1027.1
1027.1
1027.1
1027.1
1027.1
1027.1
1027.1
1027.1
1027.1
1027.1
1027.1
1.1668
1.16865
1.1679
1.16805
1.16807
1.16818
1.16824
1.1683
1.16829
1.1685
1.16874
1.16887
1.1689
1.1689
1.1689
1.1689
1.1689
1.1689
1.16891
1.16891
1.16891
1.16891
1.16891
1.16891
1.16892
1.16892
1.16892
1.16892
1.16892
1.16892
1.16893
1.16893
1.16893
1.16893
1.16893
1.16893
1.16893
1.16894
1.16894
1.16894
1.16894
1.16894
1.16894
1.16895
1.16895
1.16895
1.16895
1.16895
1.16896
1.16938
1.17117
1.17382
1.17453
1.18823
1.26843
1.36198
1.50801
1.57077
1.49192
136.114
1000.39
1025.67
1025.99
1026.29
1026.4
1026.42
1026.39
1026.49
1026.67
1026.76
1026.84
1026.93
1027
1027.05
1027.07
1027.07
1027.07
1027.07
1027.07
1027.08
1027.08
1027.09
1027.09
1027.1
1027.1
1027.1
1027.1
1027.1
1027.1
1027.1
1027.1
1027.1
1027.1
1027.1
1027.1
1027.1
1.16554
1.16816
1.16817
1.16834
1.16831
1.16867
1.16883
1.16885
1.16883
1.16881
1.16886
1.1689
1.16891
1.16891
1.16891
1.16891
1.16892
1.16892
1.16892
1.16892
1.16892
1.16892
1.16893
1.16893
1.16893
1.16893
1.16893
1.16893
1.16894
1.16894
1.16894
1.16894
1.16894
1.16894
1.16895
1.16895
1.16895
1.16895
1.16895
1.16895
1.16896
1.16896
1.16896
1.16896
1.16896
1.16897
1.16895
1.16898
1.16909
1.17011
1.17239
1.1752
1.17879
1.1855
1.35187
1.42136
1.41895
1.39928
1.37212
278.252
1012.41
1022.64
1023.45
1023.45
1023.43
1023.72
1024.07
1024.57
1025.32
1025.91
1026.35
1026.57
1026.6
1026.64
1026.64
1026.62
1026.62
1026.74
1026.86
1026.93
1026.98
1027.01
1027.04
1027.06
1027.08
1027.08
1027.09
1027.09
1027.09
1027.09
1027.1
1027.1
1027.1
1027.1
1027.1
1027.1
1.16432
1.16601
1.16751
1.16839
1.16853
1.16864
1.16875
1.16885
1.16888
1.16889
1.16889
1.16889
1.16889
1.1689
1.1689
1.1689
1.1689
1.1689
1.16891
1.16891
1.16891
1.16891
1.16891
1.16892
1.16892
1.16892
1.16892
1.16892
1.16893
1.16893
1.16893
1.16893
1.16893
1.16893
1.16894
1.16894
1.16894
1.16894
1.16894