/*--------------------------------*- C++ -*----------------------------------*\
| =========                 |                                                 |
| \\      /  F ield         | OpenFOAM: The Open Source CFD Toolbox           |
|  \\    /   O peration     | Version:  2.3.0                                 |
|   \\  /    A nd           | Web:      www.OpenFOAM.org                      |
|    \\/     M anipulation  |                                                 |
\*---------------------------------------------------------------------------*/
FoamFile
{
    version     2.0;
    format      ascii;
    class       volScalarField;
    location    "11";
    object      rho;
}
// * * * * * * * * * * * * * * * * * * * * * * * * * * * * * * * * * * * * * //

dimensions      [1 -3 0 0 0 0 0];

internalField   nonuniform List<scalar> 
6144
(
1.16808
1.16831
1.16856
1.16866
1.1688
1.16887
1.16888
1.16889
1.16889
1.16889
1.16889
1.1689
1.1689
1.1689
1.1689
1.1689
1.1689
1.16891
1.16891
1.16891
1.16891
1.16891
1.16892
1.16892
1.16892
1.16892
1.16892
1.16892
1.16893
1.16893
1.16893
1.16893
1.16893
1.16893
1.16893
1.16894
1.16894
1.16894
1.16894
1.16894
1.16895
1.16895
1.16895
1.16895
1.16896
1.16907
1.17092
1.17761
1.18988
1.19251
1.19257
1.19812
1.20212
1.21018
1.21589
1.22111
1.22417
1.22914
1.93938
59.2579
986.076
1026.87
1027.09
1027.09
1027.1
1027.1
1027.1
1027.1
1027.1
1027.1
1027.1
1027.1
1027.1
1027.1
1027.1
1027.1
1027.1
1027.1
1027.1
1027.1
1027.1
1027.1
1027.1
1027.1
1027.1
1027.1
1027.1
1027.1
1027.1
1027.1
1027.1
1027.1
1027.1
1027.1
1027.1
1027.1
1.16797
1.16812
1.16829
1.16844
1.16863
1.16876
1.16878
1.16883
1.16886
1.16888
1.16889
1.1689
1.1689
1.1689
1.1689
1.1689
1.1689
1.16891
1.16891
1.16891
1.16891
1.16891
1.16892
1.16892
1.16892
1.16892
1.16892
1.16892
1.16893
1.16893
1.16893
1.16893
1.16893
1.16893
1.16893
1.16894
1.16894
1.16894
1.16894
1.16894
1.16895
1.16895
1.16895
1.16895
1.16895
1.1692
1.17302
1.18066
1.18388
1.1826
1.18876
1.1978
1.20929
1.21884
1.22335
1.22838
1.23048
1.23422
1.49224
47.4479
981.804
1026.86
1027.09
1027.09
1027.1
1027.1
1027.1
1027.1
1027.1
1027.1
1027.1
1027.1
1027.1
1027.1
1027.1
1027.1
1027.1
1027.1
1027.1
1027.1
1027.1
1027.1
1027.1
1027.1
1027.1
1027.1
1027.1
1027.1
1027.1
1027.1
1027.1
1027.1
1027.1
1027.1
1027.1
1027.1
1.1679
1.16798
1.16821
1.16834
1.16851
1.16863
1.16865
1.16874
1.16876
1.16881
1.16886
1.16889
1.1689
1.1689
1.1689
1.16891
1.16891
1.16891
1.16891
1.16891
1.16891
1.16891
1.16892
1.16892
1.16892
1.16892
1.16892
1.16892
1.16893
1.16893
1.16893
1.16893
1.16893
1.16894
1.16894
1.16894
1.16894
1.16894
1.16894
1.16895
1.16895
1.16895
1.16895
1.16895
1.16896
1.16902
1.17013
1.17264
1.17457
1.17653
1.18855
1.20777
1.21976
1.22427
1.22702
1.23239
1.23265
1.23556
1.50981
33.3506
973.121
1026.75
1027.09
1027.09
1027.1
1027.1
1027.1
1027.1
1027.1
1027.1
1027.1
1027.1
1027.1
1027.1
1027.1
1027.1
1027.1
1027.1
1027.1
1027.1
1027.1
1027.1
1027.1
1027.1
1027.1
1027.1
1027.1
1027.1
1027.1
1027.1
1027.1
1027.1
1027.1
1027.1
1027.1
1027.1
1.1677
1.16763
1.16812
1.16815
1.1684
1.16848
1.16866
1.16875
1.16874
1.16878
1.16883
1.16888
1.1689
1.1689
1.1689
1.16891
1.16891
1.16891
1.16891
1.16891
1.16891
1.16891
1.16892
1.16892
1.16892
1.16892
1.16892
1.16892
1.16893
1.16893
1.16893
1.16893
1.16893
1.16893
1.16894
1.16894
1.16894
1.16894
1.16894
1.16895
1.16895
1.16895
1.16895
1.16895
1.16896
1.169
1.16913
1.16947
1.16988
1.17603
1.20046
1.21948
1.2247
1.22711
1.23082
1.23451
1.22979
1.23257
1.4116
46.5067
1006.55
1027.05
1027.09
1027.09
1027.09
1027.09
1027.1
1027.1
1027.09
1027.1
1027.1
1027.1
1027.1
1027.09
1027.1
1027.1
1027.1
1027.1
1027.1
1027.1
1027.1
1027.1
1027.1
1027.1
1027.1
1027.1
1027.1
1027.1
1027.1
1027.1
1027.1
1027.1
1027.1
1027.1
1027.1
1027.1
1.16732
1.16715
1.16786
1.16775
1.16806
1.16812
1.16845
1.16869
1.1688
1.16884
1.16884
1.16888
1.1689
1.1689
1.1689
1.16891
1.16891
1.16891
1.16891
1.16891
1.16891
1.16892
1.16892
1.16892
1.16892
1.16892
1.16892
1.16892
1.16893
1.16893
1.16893
1.16893
1.16893
1.16894
1.16894
1.16894
1.16894
1.16894
1.16894
1.16894
1.16895
1.16895
1.16895
1.16896
1.16898
1.16903
1.16909
1.16928
1.17013
1.18893
1.21698
1.22558
1.22858
1.23233
1.23318
1.23263
1.22842
1.22339
1.31717
73.6273
1013.57
1026.94
1026.98
1026.99
1026.99
1026.99
1026.99
1027
1027.01
1027.02
1027.02
1027.02
1027.01
1027.01
1027
1027
1027.01
1027.02
1027.04
1027.07
1027.08
1027.09
1027.1
1027.1
1027.1
1027.1
1027.1
1027.1
1027.1
1027.1
1027.1
1027.1
1027.1
1027.1
1027.1
1027.1
1.16683
1.16656
1.16737
1.16724
1.16773
1.16786
1.16798
1.16819
1.16862
1.16884
1.16887
1.16888
1.16889
1.1689
1.1689
1.1689
1.1689
1.1689
1.16891
1.16891
1.16891
1.16891
1.16891
1.16891
1.16892
1.16892
1.16892
1.16892
1.16892
1.16892
1.16893
1.16893
1.16893
1.16893
1.16893
1.16893
1.16894
1.16894
1.16894
1.16894
1.16894
1.16895
1.16895
1.16896
1.16899
1.16906
1.16917
1.16967
1.17817
1.21127
1.22587
1.23102
1.23546
1.23603
1.23237
1.22758
1.22138
1.2136
1.56811
112.491
1007.23
1024.8
1024.79
1024.9
1024.77
1024.73
1024.81
1024.97
1025.22
1025.47
1025.68
1025.85
1025.96
1026.03
1026.07
1026.1
1026.15
1026.31
1026.5
1026.71
1026.89
1026.99
1027.05
1027.08
1027.09
1027.09
1027.09
1027.09
1027.09
1027.1
1027.1
1027.1
1027.1
1027.1
1027.1
1027.1
1.16642
1.16605
1.16661
1.16657
1.16726
1.16766
1.16778
1.16781
1.16805
1.1686
1.16885
1.16889
1.1689
1.1689
1.1689
1.16891
1.16891
1.16891
1.16891
1.16891
1.16891
1.16892
1.16892
1.16892
1.16892
1.16892
1.16892
1.16893
1.16893
1.16893
1.16893
1.16893
1.16894
1.16894
1.16894
1.16894
1.16894
1.16895
1.16895
1.16895
1.16895
1.16895
1.16895
1.16897
1.169
1.16908
1.16924
1.17176
1.19751
1.22451
1.23174
1.23721
1.23865
1.2387
1.23587
1.22921
1.22186
1.2121
1.20246
191.696
1003.94
1017.63
1016.86
1016.64
1016.4
1016.25
1016.23
1016.74
1017.29
1017.91
1018.63
1019.38
1020.09
1020.84
1021.63
1022.42
1023.25
1024.04
1024.79
1025.48
1026.05
1026.47
1026.59
1026.54
1026.5
1026.44
1026.39
1026.38
1026.42
1026.41
1026.59
1026.78
1026.97
1027.09
1027.1
1027.1
1.16624
1.16594
1.16588
1.16589
1.16649
1.16721
1.16764
1.16765
1.16763
1.16811
1.16869
1.16887
1.1689
1.1689
1.1689
1.16891
1.16891
1.16891
1.16891
1.16891
1.16892
1.16892
1.16892
1.16892
1.16893
1.16893
1.16893
1.16893
1.16893
1.16893
1.16894
1.16894
1.16894
1.16894
1.16894
1.16894
1.16895
1.16895
1.16895
1.16895
1.16895
1.16895
1.16895
1.16897
1.169
1.1691
1.1696
1.18792
1.21949
1.23396
1.23839
1.23974
1.23922
1.23885
1.23929
1.23875
1.23859
1.24121
1.20246
268.82
999.228
1011.08
1010.36
1010.24
1010.54
1010.6
1010.74
1010.76
1010.68
1010.55
1010.49
1010.45
1010.43
1010.54
1010.59
1010.59
1010.71
1010.79
1010.8
1010.79
1010.55
1010.24
1009.9
1009.58
1009.05
1008.38
1007.67
1006.89
1006.14
1005.4
1004.76
1004.48
1005.21
1006.14
1008.71
1013.04
1.16585
1.16611
1.16579
1.16557
1.16572
1.1666
1.16733
1.16755
1.16741
1.16777
1.16846
1.16883
1.16889
1.1689
1.1689
1.1689
1.1689
1.1689
1.16891
1.16891
1.16891
1.16891
1.16891
1.16892
1.16892
1.16892
1.16892
1.16892
1.16893
1.16893
1.16893
1.16893
1.16893
1.16893
1.16893
1.16894
1.16894
1.16894
1.16894
1.16894
1.16894
1.16895
1.16895
1.16896
1.16898
1.16969
1.19027
1.22716
1.23264
1.23543
1.2372
1.23768
1.23415
1.23255
1.23532
1.24022
1.24367
1.2755
1.44795
211.671
1001.34
1015.51
1015.89
1017.46
1018.42
1018.77
1018.52
1017.97
1017.31
1016.61
1016.03
1015.55
1015.05
1014.63
1014.26
1013.95
1013.71
1013.57
1013.41
1013.1
1012.69
1012.17
1011.58
1010.99
1010.53
1010.14
1009.77
1009.45
1009.28
1009.48
1010.36
1011.83
1014.13
1017.24
1021.35
1024.44
1.16385
1.16593
1.16633
1.16573
1.16545
1.16607
1.16689
1.1674
1.1673
1.16762
1.16842
1.16884
1.1689
1.1689
1.1689
1.1689
1.1689
1.16891
1.16891
1.16891
1.16891
1.16891
1.16892
1.16892
1.16892
1.16892
1.16892
1.16892
1.16893
1.16893
1.16893
1.16893
1.16893
1.16893
1.16893
1.16894
1.16894
1.16894
1.16894
1.16894
1.16895
1.16895
1.16896
1.16897
1.16898
1.16992
1.19222
1.22882
1.23452
1.235
1.23618
1.23758
1.23389
1.23019
1.22815
1.23123
1.23701
1.25055
1.26977
122.108
1006.11
1023.78
1024.41
1025.59
1025.88
1025.97
1025.69
1025.43
1025.15
1024.92
1024.73
1024.6
1024.45
1024.28
1024.16
1024.1
1024.1
1024.08
1023.99
1023.85
1023.63
1023.33
1022.98
1022.61
1022.27
1022.05
1021.96
1021.94
1022.14
1022.44
1023.13
1024.05
1025.01
1025.97
1026.66
1026.92
1.1621
1.16506
1.16657
1.16601
1.16557
1.16605
1.16668
1.16719
1.16715
1.16758
1.16846
1.16884
1.1689
1.1689
1.1689
1.16891
1.16891
1.16891
1.16891
1.16891
1.16891
1.16892
1.16892
1.16892
1.16892
1.16892
1.16892
1.16893
1.16893
1.16893
1.16893
1.16893
1.16893
1.16894
1.16894
1.16894
1.16894
1.16894
1.16895
1.16895
1.16895
1.16896
1.16896
1.16897
1.16899
1.16926
1.18136
1.22163
1.23435
1.23463
1.23498
1.23709
1.2358
1.23264
1.22818
1.22606
1.22416
1.23935
1.2313
81.0358
1013.26
1026.86
1026.96
1027.05
1027.06
1027.06
1027.04
1027.02
1026.99
1026.97
1026.94
1026.92
1026.92
1026.92
1026.92
1026.92
1026.94
1026.95
1026.95
1026.94
1026.92
1026.9
1026.89
1026.88
1026.87
1026.86
1026.85
1026.85
1026.88
1026.91
1026.95
1027.01
1027.05
1027.08
1027.09
1027.1
1.1634
1.16548
1.1655
1.16548
1.16546
1.16601
1.16657
1.16695
1.16696
1.16767
1.16853
1.16885
1.16891
1.16891
1.16891
1.16891
1.16892
1.16892
1.16892
1.16892
1.16892
1.16892
1.16893
1.16893
1.16893
1.16893
1.16893
1.16893
1.16894
1.16894
1.16894
1.16894
1.16894
1.16894
1.16895
1.16895
1.16895
1.16895
1.16895
1.16895
1.16896
1.16896
1.16896
1.16897
1.169
1.16912
1.17164
1.19537
1.22677
1.23346
1.2336
1.23408
1.23359
1.23089
1.22313
1.22133
1.22031
1.23056
1.25771
53.4948
999.189
1027.07
1027.09
1027.09
1027.1
1027.1
1027.1
1027.1
1027.1
1027.1
1027.1
1027.1
1027.1
1027.1
1027.1
1027.1
1027.1
1027.1
1027.1
1027.1
1027.1
1027.1
1027.1
1027.1
1027.1
1027.1
1027.1
1027.1
1027.1
1027.1
1027.1
1027.1
1027.1
1027.1
1027.1
1027.1
1.16296
1.1645
1.16473
1.16512
1.16534
1.16579
1.16631
1.16658
1.16674
1.16774
1.16858
1.16886
1.16891
1.16891
1.16891
1.16891
1.16892
1.16892
1.16892
1.16892
1.16892
1.16892
1.16893
1.16893
1.16893
1.16893
1.16893
1.16893
1.16894
1.16894
1.16894
1.16894
1.16894
1.16894
1.16895
1.16895
1.16895
1.16895
1.16895
1.16895
1.16896
1.16896
1.16896
1.16897
1.16902
1.16918
1.17
1.17575
1.19926
1.21809
1.2271
1.22861
1.22709
1.22182
1.21603
1.21684
1.21875
1.22837
1.47376
42.2656
987.707
1027.09
1027.09
1027.09
1027.09
1027.1
1027.1
1027.1
1027.1
1027.1
1027.1
1027.1
1027.1
1027.1
1027.1
1027.1
1027.1
1027.1
1027.1
1027.1
1027.1
1027.1
1027.1
1027.1
1027.1
1027.1
1027.1
1027.1
1027.1
1027.1
1027.1
1027.1
1027.1
1027.1
1027.1
1027.1
1.16278
1.16405
1.16438
1.16482
1.16519
1.16563
1.166
1.16624
1.16659
1.16784
1.16861
1.16886
1.16891
1.16891
1.16891
1.16891
1.16891
1.16892
1.16892
1.16892
1.16892
1.16892
1.16892
1.16893
1.16893
1.16893
1.16893
1.16893
1.16893
1.16894
1.16894
1.16894
1.16894
1.16894
1.16894
1.16895
1.16895
1.16895
1.16895
1.16895
1.16895
1.16896
1.16896
1.16897
1.16904
1.16929
1.17002
1.17294
1.17964
1.19168
1.20705
1.21478
1.21343
1.21068
1.21154
1.21637
1.2211
1.23369
1.78635
54.9779
994.529
1027.09
1027.09
1027.09
1027.09
1027.1
1027.1
1027.1
1027.1
1027.1
1027.1
1027.1
1027.1
1027.1
1027.1
1027.1
1027.1
1027.1
1027.1
1027.1
1027.1
1027.1
1027.1
1027.1
1027.1
1027.1
1027.1
1027.1
1027.1
1027.1
1027.1
1027.1
1027.1
1027.1
1027.1
1027.1
1.16273
1.16394
1.16424
1.16459
1.16482
1.16507
1.16535
1.16593
1.16686
1.16793
1.16861
1.16886
1.1689
1.1689
1.16891
1.16891
1.16891
1.16891
1.16891
1.16891
1.16892
1.16892
1.16892
1.16892
1.16892
1.16892
1.16893
1.16893
1.16893
1.16893
1.16893
1.16894
1.16894
1.16894
1.16894
1.16894
1.16894
1.16895
1.16895
1.16895
1.16895
1.16895
1.16895
1.16897
1.16904
1.16933
1.17024
1.17319
1.17847
1.1844
1.19221
1.19913
1.203
1.20747
1.21231
1.21847
1.22227
1.2297
1.98072
52.1494
990.488
1026.98
1027.09
1027.09
1027.09
1027.1
1027.1
1027.1
1027.1
1027.1
1027.1
1027.1
1027.1
1027.1
1027.1
1027.1
1027.1
1027.1
1027.1
1027.1
1027.1
1027.1
1027.1
1027.1
1027.1
1027.1
1027.1
1027.1
1027.1
1027.1
1027.1
1027.1
1027.1
1027.1
1027.1
1027.1
1.16233
1.16312
1.16345
1.16386
1.16424
1.16477
1.16545
1.1663
1.16731
1.16818
1.16869
1.16888
1.16891
1.16891
1.16891
1.16891
1.16892
1.16892
1.16892
1.16892
1.16892
1.16892
1.16893
1.16893
1.16893
1.16893
1.16893
1.16894
1.16894
1.16894
1.16894
1.16894
1.16894
1.16895
1.16895
1.16895
1.16895
1.16895
1.16895
1.16896
1.16896
1.16896
1.16896
1.16897
1.16903
1.16923
1.17012
1.17333
1.17939
1.18688
1.19406
1.20163
1.2079
1.21572
1.21912
1.22615
1.22937
1.23143
2.43755
66.211
984.117
1026.79
1027.09
1027.09
1027.1
1027.1
1027.1
1027.1
1027.1
1027.1
1027.1
1027.1
1027.1
1027.1
1027.1
1027.1
1027.1
1027.1
1027.1
1027.1
1027.1
1027.1
1027.1
1027.1
1027.1
1027.1
1027.1
1027.1
1027.1
1027.1
1027.1
1027.1
1027.1
1027.1
1027.1
1027.1
1.16787
1.168
1.16809
1.16815
1.1682
1.16824
1.16837
1.16852
1.16872
1.16885
1.1689
1.16891
1.16891
1.16891
1.16891
1.16891
1.16892
1.16892
1.16892
1.16892
1.16892
1.16892
1.16893
1.16893
1.16893
1.16893
1.16893
1.16893
1.16894
1.16894
1.16894
1.16894
1.16894
1.16894
1.16895
1.16895
1.16895
1.16895
1.16895
1.16895
1.16896
1.16896
1.16896
1.16896
1.16896
1.16904
1.17032
1.17591
1.18799
1.19286
1.19356
1.19836
1.20204
1.20674
1.2121
1.21665
1.22159
1.25103
1.69674
53.8055
985.114
1027.03
1027.09
1027.09
1027.1
1027.1
1027.1
1027.1
1027.1
1027.1
1027.1
1027.1
1027.1
1027.1
1027.1
1027.1
1027.1
1027.1
1027.1
1027.1
1027.1
1027.1
1027.1
1027.1
1027.1
1027.1
1027.1
1027.1
1027.1
1027.1
1027.1
1027.1
1027.1
1027.1
1027.1
1027.1
1.16784
1.16797
1.168
1.16803
1.168
1.16798
1.16791
1.16791
1.16807
1.16837
1.16875
1.16887
1.16891
1.16891
1.16891
1.16891
1.16892
1.16892
1.16892
1.16892
1.16892
1.16892
1.16892
1.16893
1.16893
1.16893
1.16893
1.16893
1.16893
1.16894
1.16894
1.16894
1.16894
1.16894
1.16894
1.16895
1.16895
1.16895
1.16895
1.16895
1.16895
1.16896
1.16896
1.16896
1.16896
1.16919
1.17244
1.17957
1.18686
1.18947
1.19143
1.20001
1.21019
1.21747
1.2219
1.22342
1.22676
1.25025
1.44036
103.197
1010.31
1027.08
1027.09
1027.09
1027.1
1027.1
1027.1
1027.1
1027.1
1027.1
1027.1
1027.1
1027.1
1027.1
1027.1
1027.1
1027.1
1027.1
1027.1
1027.1
1027.1
1027.1
1027.1
1027.1
1027.1
1027.1
1027.1
1027.1
1027.1
1027.1
1027.1
1027.1
1027.1
1027.1
1027.1
1027.1
1.16773
1.16804
1.16813
1.16819
1.16826
1.16827
1.16813
1.16799
1.16792
1.16793
1.16848
1.1688
1.1689
1.16891
1.16891
1.16891
1.16892
1.16892
1.16892
1.16892
1.16892
1.16892
1.16893
1.16893
1.16893
1.16893
1.16893
1.16893
1.16893
1.16894
1.16894
1.16894
1.16894
1.16894
1.16894
1.16895
1.16895
1.16895
1.16895
1.16895
1.16895
1.16896
1.16896
1.16897
1.169
1.16906
1.17011
1.17389
1.18029
1.18246
1.18912
1.20884
1.22155
1.22693
1.22937
1.22858
1.2271
1.24356
1.47176
63.5196
1002.32
1027.09
1027.09
1027.09
1027.09
1027.09
1027.1
1027.1
1027.1
1027.1
1027.1
1027.1
1027.1
1027.1
1027.1
1027.1
1027.1
1027.1
1027.1
1027.1
1027.1
1027.1
1027.1
1027.1
1027.1
1027.1
1027.1
1027.1
1027.1
1027.1
1027.1
1027.1
1027.1
1027.1
1027.1
1027.1
1.16724
1.16779
1.16795
1.1679
1.16822
1.16832
1.16835
1.16829
1.16797
1.16792
1.16831
1.16875
1.16889
1.16891
1.16891
1.16891
1.16891
1.16891
1.16891
1.16892
1.16892
1.16892
1.16892
1.16892
1.16892
1.16893
1.16893
1.16893
1.16893
1.16893
1.16893
1.16893
1.16894
1.16894
1.16894
1.16894
1.16894
1.16894
1.16895
1.16895
1.16895
1.16895
1.16896
1.16898
1.16904
1.16918
1.16928
1.16968
1.17068
1.17365
1.19404
1.22273
1.22911
1.22934
1.23084
1.23072
1.22346
1.23136
1.34641
90.1206
1020.23
1027.04
1027.04
1027.05
1027.05
1027.04
1027.05
1027.05
1027.06
1027.07
1027.07
1027.07
1027.07
1027.07
1027.06
1027.06
1027.07
1027.08
1027.09
1027.09
1027.1
1027.1
1027.1
1027.1
1027.1
1027.1
1027.1
1027.1
1027.1
1027.1
1027.1
1027.1
1027.1
1027.1
1027.1
1027.1
1.16683
1.16732
1.16757
1.16746
1.16783
1.16804
1.16827
1.16839
1.16824
1.16792
1.16826
1.16872
1.16888
1.1689
1.16891
1.16891
1.16891
1.16891
1.16891
1.16891
1.16892
1.16892
1.16892
1.16892
1.16892
1.16892
1.16892
1.16893
1.16893
1.16893
1.16893
1.16893
1.16893
1.16894
1.16894
1.16894
1.16894
1.16894
1.16894
1.16895
1.16895
1.16895
1.16896
1.16898
1.16905
1.1693
1.16967
1.17018
1.1705
1.1765
1.21029
1.23329
1.23335
1.23082
1.23418
1.23157
1.22889
1.2372
1.26157
134.225
1020.16
1025.85
1025.82
1025.83
1025.61
1025.48
1025.36
1025.31
1025.31
1025.38
1025.43
1025.44
1025.41
1025.39
1025.46
1025.6
1025.84
1026.11
1026.39
1026.62
1026.81
1026.94
1027.02
1027.06
1027.08
1027.09
1027.1
1027.1
1027.1
1027.1
1027.1
1027.1
1027.1
1027.1
1027.1
1027.1
1.16639
1.16639
1.16707
1.16711
1.16744
1.1677
1.16791
1.16828
1.16834
1.16801
1.16829
1.16872
1.16888
1.1689
1.1689
1.16891
1.16891
1.16891
1.16891
1.16891
1.16891
1.16892
1.16892
1.16892
1.16892
1.16892
1.16892
1.16892
1.16893
1.16893
1.16893
1.16893
1.16893
1.16893
1.16894
1.16894
1.16894
1.16894
1.16894
1.16895
1.16895
1.16895
1.16895
1.16897
1.16905
1.16936
1.16983
1.1711
1.17535
1.19071
1.22577
1.24333
1.24741
1.24406
1.24087
1.24046
1.2485
1.26907
1.32695
202.168
1011.42
1020.27
1019.47
1018.91
1017.96
1017.07
1016.43
1016.14
1016.03
1015.97
1015.91
1015.8
1015.69
1015.64
1016.01
1016.72
1017.76
1018.73
1019.62
1020.44
1021.3
1022.32
1023.34
1024.3
1025.19
1025.88
1026.35
1026.65
1026.83
1026.92
1027
1027.06
1027.09
1027.1
1027.1
1027.1
1.1658
1.16516
1.16633
1.16652
1.16704
1.16733
1.16756
1.16804
1.16835
1.16813
1.16837
1.16875
1.16889
1.1689
1.1689
1.16891
1.16891
1.16891
1.16891
1.16891
1.16891
1.16891
1.16892
1.16892
1.16892
1.16892
1.16892
1.16892
1.16893
1.16893
1.16893
1.16893
1.16893
1.16893
1.16894
1.16894
1.16894
1.16894
1.16894
1.16895
1.16895
1.16895
1.16895
1.16897
1.16906
1.16939
1.17006
1.1748
1.18906
1.20725
1.23047
1.25034
1.25556
1.25406
1.25105
1.25088
1.25602
1.2677
1.20246
386.205
1003.92
1009.71
1008.55
1007.79
1007.16
1006.61
1006.29
1006.05
1005.85
1005.56
1005.2
1004.77
1004.39
1004.13
1004.05
1004.47
1004.86
1005.02
1004.88
1004.42
1004.16
1004.38
1005.02
1005.78
1007.06
1008.73
1010.55
1012.31
1013.91
1015.6
1017.08
1019.1
1021.88
1024.71
1026.88
1026.26
1.16548
1.16466
1.16488
1.16517
1.16609
1.16674
1.16717
1.16776
1.16834
1.16821
1.16846
1.16879
1.16889
1.1689
1.1689
1.16891
1.16891
1.16891
1.16891
1.16891
1.16891
1.16892
1.16892
1.16892
1.16892
1.16892
1.16892
1.16893
1.16893
1.16893
1.16893
1.16893
1.16893
1.16894
1.16894
1.16894
1.16894
1.16894
1.16894
1.16895
1.16895
1.16895
1.16895
1.16897
1.16907
1.16943
1.1718
1.18977
1.2095
1.22038
1.23513
1.25317
1.25703
1.257
1.25426
1.2505
1.24316
1.23369
1.20246
380.598
999.903
1006.7
1005.99
1005.7
1005.69
1005.59
1005.47
1004.84
1004.06
1003.33
1002.54
1001.65
1000.85
1000.17
999.624
999.232
998.865
998.46
997.788
996.724
995.214
993.508
991.299
988.714
985.914
982.981
979.74
976.635
973.397
969.336
964.6
954.894
940.411
916.051
860.573
659.619
1.16487
1.16464
1.16455
1.16429
1.16458
1.16541
1.1665
1.16752
1.16832
1.16826
1.16855
1.16882
1.1689
1.16891
1.16891
1.16891
1.16891
1.16891
1.16891
1.16891
1.16892
1.16892
1.16892
1.16892
1.16892
1.16892
1.16893
1.16893
1.16893
1.16893
1.16893
1.16893
1.16894
1.16894
1.16894
1.16894
1.16894
1.16895
1.16895
1.16895
1.16895
1.16895
1.16896
1.16897
1.16907
1.1695
1.17569
1.21084
1.22903
1.22699
1.23921
1.25204
1.25521
1.25318
1.25088
1.24971
1.24796
1.23178
1.20246
213.588
1000.51
1017.9
1018.64
1020.45
1021.06
1021.3
1020.69
1020.21
1019.73
1019.41
1019.26
1019.13
1018.94
1018.67
1018.39
1018.17
1018.06
1018
1018.01
1018
1017.76
1016.95
1015.67
1014.13
1012.14
1009.71
1006.62
1002.81
998.349
993.42
988.167
983.164
976.834
970.345
966.365
973.446
1.16296
1.16474
1.16486
1.16376
1.1638
1.16441
1.16569
1.16716
1.16813
1.16826
1.16862
1.16885
1.1689
1.16891
1.16891
1.16891
1.16891
1.16891
1.16891
1.16892
1.16892
1.16892
1.16892
1.16892
1.16892
1.16893
1.16893
1.16893
1.16893
1.16893
1.16893
1.16894
1.16894
1.16894
1.16894
1.16894
1.16894
1.16895
1.16895
1.16895
1.16895
1.16895
1.16895
1.16896
1.16905
1.16951
1.17547
1.20969
1.23176
1.23241
1.2382
1.2492
1.24947
1.24557
1.24201
1.24051
1.25674
1.26794
1.22259
173.821
1015.51
1025.17
1025.48
1025.96
1026
1026.03
1025.86
1025.75
1025.64
1025.6
1025.59
1025.59
1025.58
1025.58
1025.64
1025.72
1025.83
1025.88
1025.89
1025.88
1025.89
1025.74
1025.56
1025.31
1025.03
1024.73
1024.35
1023.89
1023.35
1022.72
1022.06
1021.44
1021.25
1022.56
1024.59
1025.91
1.16259
1.16391
1.16419
1.16315
1.16313
1.16373
1.16511
1.1669
1.16787
1.16826
1.1687
1.16886
1.1689
1.1689
1.16891
1.16891
1.16891
1.16891
1.16891
1.16892
1.16892
1.16892
1.16892
1.16892
1.16892
1.16893
1.16893
1.16893
1.16893
1.16893
1.16893
1.16894
1.16894
1.16894
1.16894
1.16894
1.16894
1.16895
1.16895
1.16895
1.16895
1.16895
1.16895
1.16896
1.16904
1.16946
1.17104
1.18373
1.21986
1.23203
1.23655
1.24625
1.24516
1.24203
1.24051
1.23727
1.23545
1.26933
1.26803
80.9273
1014.5
1026.9
1026.91
1026.99
1026.99
1027
1026.99
1026.98
1026.96
1026.96
1026.96
1026.97
1026.98
1027
1027.01
1027.02
1027.03
1027.03
1027.04
1027.04
1027.05
1027.04
1027.04
1027.02
1027.02
1027.01
1027
1027
1027.01
1027.03
1027.04
1027.04
1027.04
1027.07
1027.09
1027.1
1.16285
1.16334
1.16326
1.16253
1.16279
1.16338
1.16471
1.16681
1.16766
1.16831
1.16876
1.16888
1.1689
1.16891
1.16891
1.16891
1.16891
1.16891
1.16891
1.16892
1.16892
1.16892
1.16892
1.16892
1.16892
1.16893
1.16893
1.16893
1.16893
1.16893
1.16893
1.16894
1.16894
1.16894
1.16894
1.16894
1.16894
1.16895
1.16895
1.16895
1.16895
1.16895
1.16895
1.16896
1.16904
1.16946
1.17058
1.17325
1.18164
1.20805
1.22439
1.23763
1.24113
1.24029
1.23559
1.22885
1.22393
1.25452
1.31629
56.4355
1016.73
1027.09
1027.09
1027.09
1027.09
1027.09
1027.09
1027.09
1027.09
1027.09
1027.1
1027.1
1027.1
1027.1
1027.1
1027.1
1027.1
1027.1
1027.1
1027.1
1027.1
1027.1
1027.1
1027.1
1027.1
1027.1
1027.1
1027.1
1027.1
1027.1
1027.1
1027.1
1027.1
1027.1
1027.1
1027.1
1.16258
1.16305
1.16312
1.1625
1.16275
1.16329
1.16483
1.16675
1.16764
1.16843
1.1688
1.16889
1.1689
1.16891
1.16891
1.16891
1.16891
1.16891
1.16891
1.16892
1.16892
1.16892
1.16892
1.16892
1.16892
1.16892
1.16893
1.16893
1.16893
1.16893
1.16893
1.16893
1.16894
1.16894
1.16894
1.16894
1.16894
1.16894
1.16895
1.16895
1.16895
1.16895
1.16895
1.16896
1.16903
1.16944
1.17081
1.17387
1.17686
1.18133
1.1936
1.20725
1.21619
1.21599
1.21456
1.21576
1.21946
1.25511
1.45692
36.0978
994.036
1027.09
1027.09
1027.09
1027.09
1027.09
1027.1
1027.1
1027.1
1027.1
1027.1
1027.1
1027.1
1027.1
1027.1
1027.1
1027.1
1027.1
1027.1
1027.1
1027.1
1027.1
1027.1
1027.1
1027.1
1027.1
1027.1
1027.1
1027.1
1027.1
1027.1
1027.1
1027.1
1027.1
1027.1
1027.1
1.16254
1.16309
1.16316
1.16307
1.16346
1.16437
1.16589
1.16696
1.16775
1.16853
1.16883
1.16889
1.1689
1.1689
1.1689
1.1689
1.1689
1.16891
1.16891
1.16891
1.16891
1.16891
1.16891
1.16892
1.16892
1.16892
1.16892
1.16892
1.16892
1.16892
1.16893
1.16893
1.16893
1.16893
1.16893
1.16893
1.16894
1.16894
1.16894
1.16894
1.16894
1.16894
1.16895
1.16895
1.16901
1.16937
1.17084
1.1744
1.17904
1.18564
1.1903
1.19544
1.2009
1.20754
1.2117
1.21724
1.2251
1.25982
1.73339
41.037
995.23
1027.04
1027.09
1027.09
1027.09
1027.1
1027.1
1027.1
1027.1
1027.1
1027.1
1027.1
1027.1
1027.1
1027.1
1027.1
1027.1
1027.1
1027.1
1027.1
1027.1
1027.1
1027.1
1027.1
1027.1
1027.1
1027.1
1027.1
1027.1
1027.1
1027.1
1027.1
1027.1
1027.1
1027.1
1027.1
1.16247
1.1632
1.16354
1.16415
1.16492
1.16558
1.16628
1.16699
1.16783
1.16857
1.16881
1.16888
1.1689
1.1689
1.1689
1.1689
1.1689
1.1689
1.16891
1.16891
1.16891
1.16891
1.16891
1.16891
1.16891
1.16892
1.16892
1.16892
1.16892
1.16892
1.16892
1.16893
1.16893
1.16893
1.16893
1.16893
1.16893
1.16893
1.16894
1.16894
1.16894
1.16894
1.16894
1.16895
1.169
1.16923
1.1703
1.17339
1.17824
1.18468
1.19233
1.20156
1.20825
1.21563
1.21566
1.22321
1.22696
1.25707
1.7139
60.31
984.438
1027.09
1027.09
1027.09
1027.1
1027.1
1027.1
1027.1
1027.1
1027.1
1027.1
1027.1
1027.1
1027.1
1027.1
1027.1
1027.1
1027.1
1027.1
1027.1
1027.1
1027.1
1027.1
1027.1
1027.1
1027.1
1027.1
1027.1
1027.1
1027.1
1027.1
1027.1
1027.1
1027.1
1027.1
1027.1
1.16229
1.16305
1.16352
1.16416
1.16491
1.16577
1.16657
1.16728
1.1679
1.16844
1.16878
1.16889
1.1689
1.16891
1.16891
1.16891
1.16891
1.16891
1.16892
1.16892
1.16892
1.16892
1.16892
1.16892
1.16893
1.16893
1.16893
1.16893
1.16893
1.16893
1.16894
1.16894
1.16894
1.16894
1.16894
1.16894
1.16895
1.16895
1.16895
1.16895
1.16895
1.16895
1.16895
1.16897
1.16901
1.16917
1.17004
1.17312
1.1788
1.18663
1.1954
1.20535
1.2123
1.21948
1.22152
1.23032
1.2286
1.26616
1.87537
65.5522
1001.28
1027.06
1027.09
1027.09
1027.1
1027.1
1027.1
1027.1
1027.1
1027.1
1027.1
1027.1
1027.1
1027.1
1027.1
1027.1
1027.1
1027.1
1027.1
1027.1
1027.1
1027.1
1027.1
1027.1
1027.1
1027.1
1027.1
1027.1
1027.1
1027.1
1027.1
1027.1
1027.1
1027.1
1027.1
1027.1
1.16787
1.168
1.16812
1.1682
1.16832
1.16839
1.16854
1.16869
1.16882
1.16888
1.1689
1.1689
1.1689
1.16891
1.16891
1.16891
1.16891
1.16891
1.16891
1.16892
1.16892
1.16892
1.16892
1.16892
1.16892
1.16893
1.16893
1.16893
1.16893
1.16893
1.16893
1.16894
1.16894
1.16894
1.16894
1.16894
1.16894
1.16895
1.16895
1.16895
1.16895
1.16895
1.16895
1.16895
1.16896
1.16897
1.1696
1.17437
1.18592
1.19338
1.19636
1.19945
1.20202
1.20351
1.20579
1.20905
1.21456
1.24892
1.91526
45.8605
989.81
1026.95
1027.09
1027.09
1027.1
1027.1
1027.1
1027.1
1027.1
1027.1
1027.1
1027.1
1027.1
1027.1
1027.1
1027.1
1027.1
1027.1
1027.1
1027.1
1027.1
1027.1
1027.1
1027.1
1027.1
1027.1
1027.1
1027.1
1027.1
1027.1
1027.1
1027.1
1027.1
1027.1
1027.1
1027.1
1.16776
1.16779
1.1678
1.16786
1.16792
1.16799
1.16811
1.16826
1.1685
1.16872
1.16885
1.16889
1.1689
1.16891
1.16891
1.16891
1.16891
1.16891
1.16891
1.16891
1.16892
1.16892
1.16892
1.16892
1.16892
1.16892
1.16893
1.16893
1.16893
1.16893
1.16893
1.16893
1.16894
1.16894
1.16894
1.16894
1.16894
1.16894
1.16894
1.16895
1.16895
1.16895
1.16895
1.16895
1.16895
1.16909
1.17119
1.17705
1.18597
1.19283
1.19701
1.2033
1.20893
1.20803
1.21003
1.20997
1.2146
1.24687
1.55882
49.0438
1011.57
1027.08
1027.09
1027.09
1027.1
1027.1
1027.1
1027.1
1027.1
1027.1
1027.1
1027.1
1027.1
1027.1
1027.1
1027.1
1027.1
1027.1
1027.1
1027.1
1027.1
1027.1
1027.1
1027.1
1027.1
1027.1
1027.1
1027.1
1027.1
1027.1
1027.1
1027.1
1027.1
1027.1
1027.1
1027.1
1.16779
1.16787
1.16785
1.16788
1.16791
1.16795
1.16798
1.16806
1.16823
1.16848
1.16875
1.16887
1.1689
1.1689
1.1689
1.16891
1.16891
1.16891
1.16891
1.16891
1.16891
1.16892
1.16892
1.16892
1.16892
1.16892
1.16892
1.16893
1.16893
1.16893
1.16893
1.16893
1.16893
1.16893
1.16894
1.16894
1.16894
1.16894
1.16894
1.16894
1.16894
1.16895
1.16895
1.16895
1.16896
1.16906
1.17073
1.17583
1.18431
1.18979
1.19343
1.20659
1.21701
1.21621
1.21517
1.21154
1.21264
1.24197
1.38437
58.4012
1021.89
1027.09
1027.09
1027.09
1027.1
1027.1
1027.1
1027.1
1027.1
1027.1
1027.1
1027.1
1027.1
1027.1
1027.1
1027.1
1027.1
1027.1
1027.1
1027.1
1027.1
1027.1
1027.1
1027.1
1027.1
1027.1
1027.1
1027.1
1027.1
1027.1
1027.1
1027.1
1027.1
1027.1
1027.1
1027.1
1.16747
1.16805
1.1679
1.16795
1.168
1.16803
1.16803
1.16808
1.16814
1.16836
1.16867
1.16884
1.16889
1.1689
1.1689
1.1689
1.1689
1.1689
1.1689
1.16891
1.16891
1.16891
1.16891
1.16891
1.16891
1.16892
1.16892
1.16892
1.16892
1.16892
1.16892
1.16893
1.16893
1.16893
1.16893
1.16893
1.16893
1.16894
1.16894
1.16894
1.16894
1.16894
1.16894
1.16895
1.16897
1.16905
1.1698
1.17298
1.18065
1.18335
1.19484
1.21843
1.22958
1.23025
1.22979
1.22368
1.21376
1.24731
1.30858
85.8298
1023.5
1027.06
1027.06
1027.07
1027.07
1027.08
1027.08
1027.09
1027.09
1027.09
1027.09
1027.09
1027.09
1027.09
1027.09
1027.09
1027.09
1027.09
1027.09
1027.09
1027.09
1027.1
1027.1
1027.1
1027.1
1027.1
1027.1
1027.1
1027.1
1027.1
1027.1
1027.1
1027.1
1027.1
1027.1
1027.1
1.16712
1.16846
1.16789
1.16797
1.16805
1.16811
1.16813
1.16817
1.16816
1.16833
1.16864
1.16883
1.16889
1.1689
1.1689
1.1689
1.1689
1.1689
1.16891
1.16891
1.16891
1.16891
1.16891
1.16891
1.16891
1.16892
1.16892
1.16892
1.16892
1.16892
1.16892
1.16893
1.16893
1.16893
1.16893
1.16893
1.16893
1.16894
1.16894
1.16894
1.16894
1.16894
1.16894
1.16895
1.16899
1.1691
1.16952
1.17163
1.17428
1.17829
1.20552
1.23318
1.23358
1.23167
1.22963
1.22799
1.23602
1.24648
1.24636
133.511
1020.43
1026.25
1026.29
1026.37
1026.37
1026.39
1026.41
1026.46
1026.51
1026.55
1026.6
1026.66
1026.7
1026.76
1026.8
1026.83
1026.84
1026.82
1026.8
1026.79
1026.87
1026.94
1027
1027.05
1027.08
1027.09
1027.1
1027.1
1027.1
1027.1
1027.1
1027.1
1027.1
1027.1
1027.1
1027.1
1.16646
1.16871
1.1679
1.16812
1.16807
1.16823
1.16836
1.16843
1.16835
1.16843
1.16868
1.16884
1.16889
1.1689
1.1689
1.1689
1.1689
1.1689
1.1689
1.16891
1.16891
1.16891
1.16891
1.16891
1.16891
1.16892
1.16892
1.16892
1.16892
1.16892
1.16892
1.16893
1.16893
1.16893
1.16893
1.16893
1.16893
1.16894
1.16894
1.16894
1.16894
1.16894
1.16894
1.16895
1.16895
1.16912
1.16965
1.1706
1.17066
1.17761
1.22452
1.24245
1.24126
1.24103
1.2419
1.24443
1.24907
1.25402
1.2703
196.822
1014.12
1022.48
1022.37
1022.36
1022.41
1022.51
1022.67
1022.86
1023.09
1023.35
1023.66
1023.99
1024.34
1024.67
1024.9
1024.98
1024.71
1024.47
1024.18
1023.99
1023.93
1024.26
1024.78
1025.41
1026.06
1026.58
1026.9
1027.05
1027.09
1027.1
1027.1
1027.1
1027.1
1027.1
1027.1
1027.1
1.16513
1.16697
1.16802
1.16838
1.16836
1.16857
1.16879
1.1688
1.16879
1.16877
1.16884
1.16888
1.1689
1.1689
1.16891
1.16891
1.16892
1.16892
1.16892
1.16892
1.16892
1.16892
1.16893
1.16893
1.16893
1.16893
1.16893
1.16893
1.16894
1.16894
1.16894
1.16894
1.16894
1.16894
1.16895
1.16895
1.16895
1.16895
1.16895
1.16895
1.16895
1.16895
1.16896
1.16895
1.16896
1.16906
1.16928
1.1698
1.17095
1.18341
1.24193
1.25036
1.24748
1.24592
1.24509
1.24385
1.24044
1.22819
1.20246
357.223
1011.92
1016.62
1016.55
1016.71
1016.99
1017.29
1017.7
1018.07
1018.49
1018.92
1019.36
1019.72
1020.02
1020.17
1019.89
1019.46
1018.8
1018.05
1017.23
1016.45
1015.97
1015.83
1016.73
1017.98
1019.86
1021.87
1023.95
1025.72
1026.82
1027.1
1027.1
1027.1
1027.09
1027.09
1027.1
1027.1
1.16428
1.16413
1.16514
1.16678
1.16807
1.16851
1.16867
1.16879
1.16886
1.16888
1.16888
1.16889
1.16889
1.16889
1.1689
1.1689
1.1689
1.1689
1.1689
1.16891
1.16891
1.16891
1.16891
1.16891
1.16892
1.16892
1.16892