/*--------------------------------*- C++ -*----------------------------------*\
| =========                 |                                                 |
| \\      /  F ield         | OpenFOAM: The Open Source CFD Toolbox           |
|  \\    /   O peration     | Version:  2.3.0                                 |
|   \\  /    A nd           | Web:      www.OpenFOAM.org                      |
|    \\/     M anipulation  |                                                 |
\*---------------------------------------------------------------------------*/
FoamFile
{
    version     2.0;
    format      ascii;
    class       volVectorField;
    location    "11";
    object      U;
}
// * * * * * * * * * * * * * * * * * * * * * * * * * * * * * * * * * * * * * //

dimensions      [0 1 -1 0 0 0 0];

internalField   nonuniform List<vector> 
6144
(
(0.00765909 0.0182127 0.00120799)
(0.00829864 0.00246479 0.00147381)
(0.00309138 -0.00100623 0.00120063)
(0.00329147 -0.002482 0.00061801)
(0.00180234 -0.00462138 0.00118219)
(0.00202762 -0.00345947 0.000907632)
(0.00187609 -0.00385148 0.000273147)
(0.00209948 -0.0026459 2.13232e-05)
(0.00211317 -0.00209564 -0.000411283)
(0.00232944 -0.00087285 -0.000572557)
(0.00253295 -0.000118643 -0.000661463)
(0.00275577 0.000454631 -0.000611986)
(0.0029511 0.00051108 -0.000687179)
(0.00310251 0.000483869 -0.000732554)
(0.0032112 0.000273507 -0.000869666)
(0.00328593 0.000129045 -0.000959055)
(0.00334509 -5.32566e-05 -0.00107942)
(0.00338437 -0.000130457 -0.00115519)
(0.00341419 -0.000228002 -0.0012364)
(0.00344074 -0.000246933 -0.0012853)
(0.00345655 -0.000278111 -0.00133303)
(0.00347436 -0.000267267 -0.00136073)
(0.0034843 -0.000264898 -0.00138527)
(0.00349463 -0.000245681 -0.00139943)
(0.00350129 -0.000230167 -0.00141)
(0.00350697 -0.000212419 -0.00141552)
(0.00351121 -0.000195237 -0.00141814)
(0.00351431 -0.000185294 -0.00141744)
(0.00351753 -0.000171775 -0.00141364)
(0.00351909 -0.000179213 -0.00140707)
(0.00352145 -0.000173883 -0.00139557)
(0.00352318 -0.000214774 -0.00138295)
(0.00352719 -0.000228543 -0.00135949)
(0.00353357 -0.000333113 -0.00133808)
(0.00354454 -0.000396655 -0.00129619)
(0.00356075 -0.000621941 -0.00125952)
(0.00358597 -0.000801742 -0.00119556)
(0.00362084 -0.00123453 -0.00114643)
(0.00367086 -0.00162489 -0.00108156)
(0.00373527 -0.00234434 -0.00106985)
(0.00381446 -0.0029632 -0.00111232)
(0.00392935 -0.00381351 -0.00128909)
(0.00410064 -0.004386 -0.00161354)
(0.00433464 -0.00502899 -0.00207411)
(0.00462813 -0.0053736 -0.00246111)
(0.0051261 -0.00683182 -0.00284083)
(0.00691862 -0.00940346 -0.00360606)
(0.00634198 -0.0118426 -0.00545287)
(-0.000532447 -0.00447097 -0.00789673)
(-0.00183837 0.0141165 -0.00807898)
(0.00465251 0.022619 -0.00751123)
(0.0144877 0.0085707 -0.0051795)
(0.0225606 0.00300767 -0.00613716)
(0.0306199 -0.0346905 -0.00756311)
(0.0342694 -0.0425338 -0.0157192)
(0.0258983 -0.0810967 -0.00969837)
(0.0187308 -0.0490171 -0.0161154)
(0.0058107 -0.118976 0.0301963)
(-0.0253294 0.0320503 -0.0882442)
(0.0254698 0.0659289 0.0518914)
(0.104641 -0.248482 0.0724694)
(0.0819725 -0.0999991 0.0223903)
(0.0608158 -0.171504 -0.0161325)
(0.0514454 -0.203175 -0.0134723)
(0.0489167 -0.201031 -0.0110582)
(0.0456443 -0.202265 -0.011428)
(0.0418812 -0.198079 -0.0133733)
(0.0408131 -0.192259 -0.00995806)
(0.0346902 -0.187221 -0.00135977)
(0.0287052 -0.185738 0.00457589)
(0.0122048 -0.186686 0.0116484)
(-0.0115207 -0.171259 0.00770114)
(-0.0285322 -0.12279 0.0090126)
(-0.017589 -0.0727806 0.0127473)
(-0.0155332 -0.0501332 0.0130899)
(-0.0135325 -0.00819643 0.00746664)
(0.00415587 -0.00197086 -0.00812216)
(0.00576763 0.0116731 -0.0169246)
(0.0101102 0.0249835 -0.015415)
(0.0117187 0.0378774 -0.0206854)
(0.0180178 0.0476946 -0.0177858)
(0.0253552 0.0507243 -0.0146645)
(0.0306434 0.0448957 -0.0127169)
(0.0288023 0.03736 -0.0156506)
(0.0281951 0.0343058 -0.0159847)
(0.0315764 0.0270869 -0.0108546)
(0.0312063 0.015271 -0.00766301)
(0.0277316 0.0056504 -0.00801859)
(0.0103428 -0.0018476 -0.00630552)
(-0.0152967 0.0265492 -0.0146229)
(-0.00815714 0.0527514 -0.00123735)
(-0.00171156 0.0590406 0.00605288)
(0.00462202 0.0607932 0.00527866)
(0.0089991 0.0555931 0.0087807)
(0.00819394 0.0412797 0.0137953)
(0.0173323 0.0163382 0.019171)
(0.0132418 0.0186542 0.00336033)
(0.0161551 0.00903119 0.00450311)
(0.00647243 0.00454184 0.00418861)
(0.00823732 0.0035275 0.00410251)
(0.00376237 -0.000134799 0.00504594)
(0.00444468 0.000681603 0.00422727)
(0.00353135 -0.0010427 0.00424113)
(0.0037783 -0.000173883 0.00377751)
(0.00370678 -0.000474466 0.00315517)
(0.00396107 0.00059027 0.00272503)
(0.00431912 0.00106166 0.00263347)
(0.00489542 0.00155506 0.00278611)
(0.00537044 0.0014113 0.00277334)
(0.00575782 0.00124873 0.00275628)
(0.00598671 0.000879973 0.00259692)
(0.00615784 0.00064817 0.00248224)
(0.00625567 0.000380226 0.00232879)
(0.00633518 0.000257042 0.0022383)
(0.00638285 0.000119223 0.00214067)
(0.00642938 8.21693e-05 0.00208968)
(0.00645772 3.23078e-05 0.00204095)
(0.00648851 3.86274e-05 0.00202124)
(0.00650839 3.31551e-05 0.00200509)
(0.00652809 5.2898e-05 0.00200407)
(0.00654195 6.63871e-05 0.00200738)
(0.00655385 8.49817e-05 0.00201797)
(0.00656316 0.000101941 0.00203189)
(0.00657018 0.000111489 0.00205035)
(0.00657774 0.000125499 0.00207297)
(0.00658206 0.000113424 0.0020998)
(0.00659152 0.000121295 0.00213428)
(0.00659575 6.68909e-05 0.00217208)
(0.00661614 6.02944e-05 0.00222641)
(0.00663043 -7.51627e-05 0.00228121)
(0.00667542 -0.000125803 0.00236722)
(0.00672142 -0.000408683 0.00245316)
(0.00681084 -0.000573011 0.00257936)
(0.00691314 -0.001105 0.00269535)
(0.00707065 -0.00149237 0.00281717)
(0.00724774 -0.00236011 0.00285174)
(0.00743759 -0.00298537 0.00274736)
(0.00762739 -0.00400097 0.00235102)
(0.00780116 -0.00443554 0.00165863)
(0.00810056 -0.00494343 0.000706802)
(0.00885393 -0.00438609 -0.000371402)
(0.0108074 -0.00493406 -0.00143278)
(0.0109367 -0.0044521 -0.00354929)
(0.00588928 0.000749305 -0.0061434)
(-0.00344053 0.0106192 -0.00662138)
(-0.00156615 0.0182003 -0.00376258)
(0.0201874 0.00609478 0.00365846)
(0.0333313 -0.0252359 0.00790571)
(0.0474557 -0.0418894 0.00671627)
(0.064339 -0.0825403 0.0066854)
(0.0600845 -0.0886814 0.000391923)
(0.0558883 -0.124243 0.00630376)
(0.0326269 -0.107199 0.011836)
(0.0250497 -0.161414 0.0481459)
(-0.00824925 0.0571197 -0.0823753)
(-0.00778881 0.0299332 0.027308)
(0.130779 -0.225453 0.110098)
(0.101765 -0.0609387 0.0415538)
(0.0590813 -0.145437 -0.00760881)
(0.0506821 -0.130891 0.00936269)
(0.0226639 -0.122008 0.0139341)
(0.0095532 -0.0994301 -0.0102975)
(0.00937722 -0.027859 -0.0105008)
(0.0151462 -0.0178344 0.0318492)
(0.0209975 -0.0162047 0.0342134)
(0.0131639 -0.0160464 0.0154132)
(-0.00675096 -0.00591927 0.00693665)
(-0.0219546 -0.0262003 0.0124344)
(-0.028877 -0.0330683 0.0231536)
(-0.0317744 -0.0317925 0.0245094)
(-0.0435107 -0.0247699 0.0146119)
(-0.0344217 0.0146429 -0.00386295)
(-0.0103028 0.0317208 -0.0120885)
(0.0021771 0.0556017 -0.00641855)
(0.0185538 0.0600769 -0.00378926)
(0.0290202 0.067244 0.00312482)
(0.0377766 0.0603392 0.0112487)
(0.0425941 0.0575283 0.0147758)
(0.0491193 0.0473548 0.0209408)
(0.0462217 0.0360609 0.0184771)
(0.0406482 0.0261374 0.016552)
(0.0355978 0.0162459 0.0214012)
(0.0258289 0.000141913 0.0284541)
(0.017866 -0.0186601 0.0281338)
(0.00762414 -0.0292704 0.0240279)
(0.00299584 -0.0470181 0.0141055)
(-0.002061 -0.0470626 0.0026898)
(0.00291023 -0.0402162 -0.0128909)
(0.0170178 -0.00619984 -0.017109)
(0.0223649 0.0164874 -0.00861218)
(0.0244932 0.0296506 0.0128122)
(0.0350517 0.00901035 0.0282395)
(0.0148677 0.014201 0.00260884)
(0.0204648 0.00957432 0.00341691)
(0.00705011 0.00471278 0.00287221)
(0.0106171 0.0065506 0.00276359)
(0.00408846 0.00213923 0.00461957)
(0.00507922 0.00372534 0.00450515)
(0.00338656 0.00157403 0.00555227)
(0.00359251 0.00207801 0.0053853)
(0.00308415 0.00114016 0.00497339)
(0.00308662 0.00181819 0.00458949)
(0.00334519 0.00200182 0.00437673)
(0.00414622 0.00244473 0.00454859)
(0.00472984 0.00210181 0.00469032)
(0.0052573 0.00184015 0.00475188)
(0.00548115 0.00132898 0.0047287)
(0.00567633 0.00104387 0.00469301)
(0.00573495 0.000713727 0.00464755)
(0.00581066 0.000565031 0.00462026)
(0.00582968 0.000400644 0.00460041)
(0.00586492 0.000351621 0.00459862)
(0.00587602 0.000289514 0.00460247)
(0.00589639 0.000287483 0.00461921)
(0.00590457 0.00027606 0.0046381)
(0.00591511 0.000291292 0.00466481)
(0.00592002 0.000300782 0.00469172)
(0.00592399 0.000317334 0.00472168)
(0.00592585 0.000331922 0.00475224)
(0.00592581 0.000341428 0.00478512)
(0.00592734 0.000353094 0.00481972)
(0.00592599 0.000343759 0.00485565)
(0.00593497 0.000350588 0.00489391)
(0.00593653 0.000304955 0.00493384)
(0.00596884 0.000300907 0.00497821)
(0.00598664 0.000186319 0.00502644)
(0.00606541 0.000151009 0.00508205)
(0.00613313 -8.97467e-05 0.00514537)
(0.00629036 -0.000220755 0.00521617)
(0.00645496 -0.000681042 0.00529561)
(0.00672364 -0.000989886 0.0053437)
(0.00700567 -0.00172811 0.00536142)
(0.0073153 -0.00219754 0.00520943)
(0.00754402 -0.00302016 0.0048907)
(0.00762668 -0.00316907 0.00431632)
(0.00778393 -0.00325148 0.0037309)
(0.00854854 -0.00188622 0.00295669)
(0.0110228 0.000245176 0.00187107)
(0.0115891 0.0062105 -0.000729841)
(0.00735748 0.0122349 -0.00411366)
(0.000239184 0.0170868 -0.00527682)
(0.0113864 0.00587411 0.000126242)
(0.0401848 -0.00595554 0.00938653)
(0.0618788 -0.0418323 0.0167657)
(0.0779561 -0.0558915 0.00992628)
(0.087471 -0.0821584 0.00356865)
(0.0787788 -0.0731464 0.00794019)
(0.078721 -0.111326 0.0224183)
(0.0187583 -0.0900518 0.0218513)
(0.0297822 -0.149122 0.0610844)
(-0.0408858 0.0382935 -0.053251)
(0.03721 0.0793904 0.0161257)
(0.199743 -0.267573 0.112339)
(0.139521 -0.0584077 0.0596097)
(0.0797003 -0.131055 0.00567783)
(0.0638281 -0.0824848 0.01745)
(0.0174368 -0.0724877 0.00392221)
(-0.00192633 -0.00530998 -0.0117424)
(0.0176915 0.0306196 0.041444)
(0.0374334 0.0379624 0.022731)
(0.0364528 0.0480979 -0.0041553)
(0.0221521 0.0686042 0.00226009)
(-0.00164499 0.0654529 0.0131277)
(-0.0435494 0.0599007 0.022001)
(-0.064638 0.0632596 0.0208663)
(-0.0717449 0.0549604 0.0111947)
(-0.0638899 0.0582929 -0.00450768)
(-0.0336261 0.072771 -0.00647977)
(-0.0138498 0.0686866 -0.00487513)
(0.00974524 0.082341 -0.00240236)
(0.0267393 0.0809001 0.00448615)
(0.0382584 0.0803329 0.0151493)
(0.0400592 0.0657899 0.0220144)
(0.0384998 0.0565468 0.0274574)
(0.039163 0.0399222 0.0399074)
(0.0339896 0.0292406 0.0470001)
(0.025608 0.00961499 0.0478411)
(0.0214549 -0.00119667 0.0488504)
(0.0150426 -0.0165638 0.0458831)
(0.00739164 -0.0317022 0.0434742)
(1.44833e-05 -0.0447802 0.041893)
(-0.0134639 -0.0659446 0.0381438)
(-0.0214942 -0.074142 0.0246887)
(-0.0158711 -0.0750542 0.0151053)
(-0.00669101 -0.0714705 0.00574102)
(0.00930544 -0.0514341 -0.0160759)
(0.0247665 -0.00634956 0.000117495)
(0.0302332 -0.0128235 0.0339563)
(0.0146256 0.0112139 0.00170787)
(0.0244578 0.00908796 0.000400423)
(0.00649185 0.00203026 -0.00170778)
(0.0140632 0.00745477 -0.00241526)
(0.00445622 0.000526642 2.75588e-06)
(0.00635731 0.00451117 0.00088377)
(0.00300717 0.00103545 0.00348223)
(0.00353845 0.00272176 0.00379869)
(0.00247631 0.00146665 0.0043875)
(0.00238201 0.00252517 0.00420734)
(0.00224095 0.0026453 0.00404977)
(0.00304941 0.00325829 0.00442157)
(0.00370417 0.00287916 0.00477354)
(0.00424835 0.0026238 0.00496658)
(0.00444929 0.00201725 0.00503371)
(0.00461309 0.00169547 0.00505583)
(0.00464059 0.00129908 0.00505758)
(0.00469475 0.0011202 0.00506184)
(0.00469143 0.000921798 0.00507081)
(0.00471566 0.000853641 0.00508765)
(0.00471514 0.000772938 0.00510787)
(0.00473208 0.000757025 0.00513473)
(0.00473718 0.000734394 0.0051624)
(0.00474881 0.000740305 0.00519556)
(0.00475527 0.000742013 0.00522441)
(0.00476144 0.000753544 0.0052529)
(0.00476618 0.000763184 0.00528295)
(0.00476935 0.00077027 0.00531333)
(0.00477359 0.000777025 0.00534209)
(0.00477709 0.00076879 0.00536874)
(0.00478914 0.00077311 0.00539315)
(0.0047994 0.000736459 0.00541514)
(0.00483771 0.000736454 0.00543491)
(0.00487302 0.000646952 0.00545407)
(0.00497127 0.000627148 0.00547227)
(0.0050713 0.000435975 0.0054953)
(0.00528032 0.000361289 0.00551733)
(0.00550417 2.34027e-05 0.00554357)
(0.00585122 -0.000101535 0.00553446)
(0.00622997 -0.000521606 0.00550065)
(0.00663184 -0.000572494 0.00532042)
(0.00693332 -0.000926842 0.00507217)
(0.00700854 -0.000756402 0.00464681)
(0.00683414 -0.0010233 0.00448955)
(0.00644951 9.32801e-05 0.00449222)
(0.00712189 0.00155627 0.00453583)
(0.0079752 0.00756275 0.00349791)
(0.00859469 0.0114299 0.00173105)
(0.01244 0.0143473 0.00144793)
(0.0255932 -0.00356714 0.00102113)
(0.0568578 -0.0110319 0.0159624)
(0.0890714 -0.0393582 0.0179617)
(0.0982518 -0.0281053 0.000457757)
(0.0977105 -0.0157084 -0.00522748)
(0.103349 0.0256794 0.0184075)
(0.112836 -0.0591289 0.0453026)
(0.0144743 0.0202905 0.0509492)
(0.0181976 -0.173005 0.07964)
(-0.076134 0.104281 -0.0311186)
(0.066329 -0.00832139 0.0274127)
(0.224037 -0.259863 0.118038)
(0.121615 0.0776581 0.0208168)
(0.0338393 -0.0921372 -0.019269)
(-0.0140214 0.0606331 -0.0274372)
(-0.0424223 0.049968 -0.00397208)
(-0.0295034 0.0843051 0.0202033)
(9.24237e-05 0.0795077 0.010983)
(0.00746478 0.0952269 -0.00842916)
(0.00909984 0.117918 0.00294873)
(-0.0022074 0.128115 0.00466058)
(-0.0217673 0.132039 0.00342787)
(-0.041414 0.129881 0.00241084)
(-0.0505377 0.125965 -0.000395976)
(-0.0510465 0.116658 -0.00459316)
(-0.0391129 0.113673 -0.0124535)
(-0.0154492 0.114948 -0.013496)
(0.00126179 0.113135 -0.00609884)
(0.0193745 0.116794 0.00493195)
(0.0312175 0.112148 0.0160522)
(0.0353889 0.101695 0.0321779)
(0.0346143 0.083403 0.0445539)
(0.0257633 0.0646122 0.0489075)
(0.0216369 0.0497502 0.0590214)
(0.0130626 0.0379737 0.0653161)
(0.0016843 0.0233974 0.0667001)
(-0.00672997 0.0154053 0.0656839)
(-0.0152052 0.00860186 0.0548723)
(-0.0212171 -0.000805389 0.0452158)
(-0.0194186 -0.0170533 0.0397111)
(-0.026916 -0.0406874 0.0215691)
(-0.0314277 -0.0517089 0.0104838)
(-0.026865 -0.0583132 0.00988393)
(-0.0212084 -0.0583623 0.0103621)
(-0.0208993 -0.0523334 0.0104529)
(-0.0125399 -0.0328565 0.0102931)
(-0.00783944 -0.0158205 0.0296143)
(0.0153987 0.0115115 0.0026496)
(0.028351 0.0134024 0.000553376)
(0.00993303 0.00131605 -0.00616102)
(0.0210121 0.0111466 -0.00629868)
(0.00951031 -0.000494771 -0.00628114)
(0.010846 0.00559049 -0.00427184)
(0.00481763 -0.00129806 -0.00111255)
(0.00421744 0.00132636 0.000189886)
(0.00161647 -0.00111377 0.00185879)
(0.000977473 0.000843309 0.00216917)
(0.000541345 0.00126155 0.00265672)
(0.00127482 0.00277146 0.0035159)
(0.00184748 0.00279611 0.0042471)
(0.00224668 0.00275938 0.00469614)
(0.00229255 0.00225639 0.0048816)
(0.00231709 0.00200392 0.00497503)
(0.00223838 0.00162691 0.00500547)
(0.00220503 0.00145576 0.00502415)
(0.00214483 0.00125114 0.00503456)
(0.00212706 0.00117645 0.00504407)
(0.00210717 0.00108995 0.00505193)
(0.00210932 0.00106749 0.00506297)
(0.00210895 0.00103996 0.005072)
(0.00211586 0.00103954 0.00508188)
(0.00212212 0.00103674 0.00508802)
(0.00213108 0.0010412 0.00509492)
(0.00214035 0.00104321 0.00509655)
(0.00215224 0.0010435 0.00509355)
(0.00216746 0.00104437 0.00508611)
(0.00218563 0.00103544 0.00507189)
(0.00221205 0.00103657 0.00505101)
(0.00224585 0.00100859 0.00502448)
(0.0023038 0.00101114 0.00499039)
(0.00237851 0.000944945 0.00495011)
(0.00251885 0.000946935 0.00491049)
(0.00268664 0.000814935 0.00486503)
(0.00295228 0.000811055 0.00481824)
(0.0032179 0.000648141 0.00475314)
(0.00359881 0.00076002 0.00466536)
(0.00397288 0.000742616 0.00456718)
(0.00439543 0.00120872 0.00442958)
(0.00478459 0.00153834 0.00437283)
(0.00509889 0.00219834 0.00438513)
(0.00513572 0.00197936 0.00462772)
(0.00468798 0.00243512 0.00500102)
(0.00424299 0.00232518 0.00537758)
(0.004615 0.00590096 0.0050745)
(0.00737818 0.00766838 0.00388001)
(0.0178471 0.00995431 0.00263086)
(0.0369787 -0.000936386 0.00103273)
(0.0689663 -0.00865604 0.0112698)
(0.0948534 0.00570358 -0.00316669)
(0.0923403 0.0734353 -0.0207735)
(0.0948778 0.119171 0.00157129)
(0.0990991 0.116512 0.039216)
(0.0555196 0.0579821 0.0678577)
(-0.00301471 0.13017 0.124749)
(0.106262 -0.237624 0.183872)
(-0.080908 0.163708 0.0320526)
(0.044879 -0.0502546 0.016791)
(0.204763 -0.222394 0.122062)
(0.0698288 0.112156 -0.00420618)
(0.0401208 0.000978082 -0.00699909)
(-0.0106052 0.107054 -0.000749301)
(-0.00844023 0.0863856 0.00940267)
(-0.00848444 0.103874 0.00593017)
(0.00384483 0.114847 -0.0180312)
(0.00351362 0.148928 -0.0175818)
(0.0125918 0.160636 -0.0132172)
(0.00833681 0.170398 -0.0179144)
(-0.00796324 0.169977 -0.016754)
(-0.0217307 0.16133 -0.0189144)
(-0.026014 0.15305 -0.0188996)
(-0.0234836 0.141429 -0.0212147)
(-0.0109166 0.135026 -0.0214424)
(0.00165075 0.130138 -0.0155907)
(0.0146676 0.130473 -0.00573477)
(0.0236294 0.127533 0.0116526)
(0.030749 0.122305 0.0301766)
(0.0316579 0.113916 0.0493495)
(0.0218137 0.106028 0.0591866)
(0.00102633 0.0894309 0.0596774)
(-0.00798813 0.0778874 0.0639095)
(-0.0230774 0.0623172 0.0597014)
(-0.0400677 0.0483923 0.0504377)
(-0.044364 0.0464912 0.0359472)
(-0.0394145 0.0394712 0.0254208)
(-0.0249593 0.0345245 0.0271997)
(-0.0167118 0.0202499 0.0259156)
(-0.0147933 0.00467894 0.0213638)
(-0.0220477 -0.00874179 0.0180523)
(-0.0268481 -0.024072 0.021793)
(-0.0259311 -0.0322516 0.0233518)
(-0.025939 -0.0360954 0.0125733)
(-0.0305008 -0.0228763 0.00766803)
(-0.0482266 -0.0186875 0.0240099)
(0.0147409 0.0146184 0.0029403)
(0.0290401 0.019962 0.00416682)
(0.0148267 0.00107606 -0.00655287)
(0.0257815 0.0135831 -0.00376086)
(0.0177304 -0.00214004 -0.00832139)
(0.0186895 0.00635671 -0.00680302)
(0.0114322 -0.00177378 -0.00480859)
(0.00736863 0.00170576 -0.00279099)
(0.00347657 -0.00347844 -0.00132284)
(0.00103722 -0.00206601 -0.0008108)
(-0.000625015 -0.00165971 3.76172e-05)
(-0.000389698 0.000637328 0.00170807)
(0.000572527 0.00141791 0.00306804)
(0.00107146 0.00198886 0.00391491)
(0.00108262 0.00186967 0.00432452)
(0.00102065 0.00189137 0.00452736)
(0.000883815 0.00167019 0.00459859)
(0.000794214 0.00161117 0.00462372)
(0.000710046 0.00146959 0.00461668)
(0.000669589 0.00144086 0.0045945)
(0.00064895 0.00137975 0.00456074)
(0.000653631 0.00137212 0.00452198)
(0.000667535 0.00135028 0.00447477)
(0.000691534 0.00135237 0.00442905)
(0.000724661 0.00135021 0.0043827)
(0.000762869 0.00135415 0.00433638)
(0.000803799 0.0013573 0.0042851)
(0.000847285 0.00136171 0.00423089)
(0.00089113 0.00137 0.00417288)
(0.000942911 0.00137362 0.0041129)
(0.001001 0.00138742 0.00405069)
(0.00107461 0.00138283 0.00398699)
(0.00116988 0.00140917 0.00392784)
(0.00129432 0.00139302 0.00386375)
(0.00145786 0.00145252 0.00379703)
(0.00165739 0.00142238 0.00372551)
(0.00191429 0.00152553 0.00365238)
(0.00216144 0.00155269 0.0035518)
(0.00245362 0.00187107 0.00341729)
(0.00266722 0.00215559 0.00324431)
(0.00286089 0.00287689 0.0030398)
(0.00310959 0.00344017 0.002997)
(0.00366822 0.00411798 0.00319512)
(0.00409591 0.00374064 0.00356256)
(0.00376732 0.00368889 0.0036203)
(0.00288712 0.003132 0.00353112)
(0.00270683 0.00655698 0.00237479)
(0.0060565 0.0079861 0.000447131)
(0.0215645 0.0100752 -0.00316908)
(0.043825 0.00711958 -0.00266179)
(0.0593738 0.0213154 0.000404309)
(0.0544572 0.11264 0.00398253)
(0.0643868 0.163475 0.0205172)
(0.0990336 0.169241 0.0441611)
(0.109277 0.154435 0.0554903)
(0.105182 0.123654 0.0639177)
(0.143186 0.167098 0.109421)
(0.202862 -0.199482 0.154922)
(-0.110602 0.311779 0.0108167)
(0.0411798 -0.0930799 0.0320486)
(0.176464 -0.171402 0.115574)
(0.0355037 0.13579 -0.00610137)
(0.0366742 0.0169057 0.015924)
(-0.0165346 0.123279 0.000812283)
(-0.0297213 0.131793 -0.00726033)
(-0.0241779 0.193628 -0.0175452)
(0.00331346 0.2146 -0.0113467)
(0.01757 0.221274 -0.0112244)
(0.0272747 0.227402 -0.0148558)
(0.0301641 0.229202 -0.0144075)
(0.0312374 0.22585 -0.0167469)
(0.0253949 0.216811 -0.0162672)
(0.0206453 0.20504 -0.0180216)
(0.0182611 0.19172 -0.0184662)
(0.01808 0.17522 -0.0130592)
(0.0135249 0.161067 -0.00610051)
(0.0131397 0.145704 0.00795125)
(0.0098311 0.134015 0.0242756)
(0.0062934 0.118273 0.0361999)
(-0.00431008 0.103229 0.0461676)
(-0.013209 0.0878884 0.040234)
(-0.023905 0.0801627 0.0335753)
(-0.0314043 0.0750842 0.0257852)
(-0.0351487 0.0703781 0.0172314)
(-0.045241 0.0597291 0.00990032)
(-0.0472886 0.0569074 0.00331314)
(-0.044024 0.0521616 0.000692339)
(-0.0383373 0.0486299 0.00738529)
(-0.0286409 0.043047 0.0151197)
(-0.0263389 0.0294597 0.0218836)
(-0.0269795 0.0184866 0.0212591)
(-0.0313371 0.00351952 0.0206296)
(-0.0412563 -0.00349956 0.013176)
(-0.0475491 -0.0133235 0.0092097)
(-0.0549481 -0.00509486 0.00887932)
(-0.069152 -0.00498542 0.0259347)
(0.0122923 0.0177189 0.00369674)
(0.0299629 0.0281699 0.0096009)
(0.0144072 -0.00434941 -0.000273023)
(0.024248 0.0123324 0.00621288)
(0.0202048 -0.00918092 -0.00145878)
(0.020428 0.00423226 -0.00659004)
(0.0155786 -0.00365134 -0.00481419)
(0.0107754 0.00227945 -0.00291572)
(0.00643806 -0.00384669 -0.00166661)
(0.00114441 -0.00360782 -0.00159842)
(-0.00177665 -0.0039345 -0.00146084)
(-0.00239416 -0.00162439 -4.22121e-05)
(-0.00185915 -0.000373326 0.00153459)
(-0.00147328 0.00071737 0.00261688)
(-0.00161567 0.000959067 0.003156)
(-0.00179794 0.00133853 0.0034239)
(-0.00204389 0.00137431 0.00350923)
(-0.00219516 0.00152562 0.00353372)
(-0.00232794 0.00151756 0.00351448)
(-0.00237598 0.00160067 0.00348795)
(-0.00238493 0.00161309 0.00344525)
(-0.0023508 0.00166992 0.00340038)
(-0.00229373 0.00168809 0.00334357)
(-0.0022228 0.00172203 0.00328785)
(-0.00214607 0.00174283 0.0032264)
(-0.00206428 0.00176712 0.00316754)
(-0.00197828 0.00178804 0.0031103)
(-0.00188694 0.00180797 0.00305806)
(-0.00179294 0.00182925 0.00300958)
(-0.00168721 0.00184696 0.00296503)
(-0.00157957 0.00187532 0.00292557)
(-0.00145146 0.00189287 0.00289115)
(-0.00132165 0.00194115 0.00286283)
(-0.00115956 0.00196215 0.0028465)
(-0.000974567 0.00204015 0.00284745)
(-0.000761124 0.0020732 0.00287388)
(-0.000524263 0.00224591 0.00291185)
(-0.000304515 0.00236907 0.00293529)
(-7.44556e-05 0.0027254 0.00292106)
(7.63451e-05 0.0029902 0.0027953)
(0.000298256 0.00351259 0.00256994)
(0.000623114 0.00370689 0.00231175)
(0.00136112 0.00417681 0.00219092)
(0.00174109 0.00388907 0.00211223)
(0.00103719 0.00402746 0.00162954)
(-0.00172432 0.00351649 0.000306308)
(-0.00279431 0.00708829 -0.00200031)
(0.00321492 0.00669263 -0.00436466)
(0.0201681 0.00590855 -0.00961598)
(0.0321462 0.0230104 -0.0139474)
(-0.00299931 0.0883384 -0.00498098)
(-0.00521463 0.160761 0.0212359)
(0.0676124 0.189661 0.0538153)
(0.0950313 0.185939 0.0666112)
(0.101441 0.182826 0.0748182)
(0.109309 0.15507 0.0709018)
(0.153693 0.150148 0.0731154)
(0.144882 0.0522768 0.099294)
(0.021198 0.428656 0.0945833)
(0.0297938 -0.135694 0.036969)
(0.100709 -0.0773411 0.0837026)
(0.00138258 0.133032 -0.00419115)
(-0.0114746 0.105476 -0.00188978)
(-0.0526036 0.19663 -0.0127091)
(-0.0428266 0.222649 -0.0118851)
(-0.0146563 0.23924 -0.00886001)
(0.0102565 0.235579 -0.00701436)
(0.0250699 0.245256 -0.00474506)
(0.0372376 0.243828 -0.00485727)
(0.0418121 0.246673 -0.00489424)
(0.0430682 0.246157 -0.0055016)
(0.0429897 0.245732 -0.00612896)
(0.0420352 0.2402 -0.00742736)
(0.0393915 0.234683 -0.00689194)
(0.0373907 0.224068 -0.00470692)
(0.0336362 0.212852 -0.00156525)
(0.0270688 0.197888 0.00304854)
(0.0196555 0.178943 0.00895459)
(0.0144429 0.156375 0.0126718)
(0.00946578 0.131486 0.0155215)
(0.00414635 0.108577 0.0145454)
(-0.0100366 0.0798503 0.0155767)
(-0.0197166 0.0568906 0.00972757)
(-0.0212901 0.0485906 0.000849559)
(-0.0265926 0.0442572 -0.00126252)
(-0.0271839 0.0421999 -0.00717107)
(-0.0251401 0.0401246 -0.015836)
(-0.0255036 0.0422233 -0.0200291)
(-0.0268633 0.0445664 -0.0191856)
(-0.027989 0.0411606 -0.00299588)
(-0.0312707 0.03367 0.011619)
(-0.0351081 0.018351 0.0165081)
(-0.0411281 0.00917235 0.0164747)
(-0.0478639 -0.0102794 0.0197317)
(-0.0671399 -0.0121199 0.0251091)
(-0.0937311 -0.0181313 0.0281397)
(0.00225335 0.0129971 0.000851749)
(0.0321684 0.0337731 0.0120907)
(0.0089807 -0.008371 0.00606899)
(0.0148145 0.0125774 0.0126979)
(0.0142807 -0.0127642 0.00743286)
(0.0156306 0.000116387 -0.000810682)
(0.0146602 -0.00697605 -0.00263988)
(0.0109912 0.00101851 -0.00276342)
(0.00887835 -0.00293967 -0.000792536)
(0.00173464 -0.00340091 -0.00122182)
(-0.00286814 -0.00497986 -0.00120719)
(-0.00371519 -0.00347102 -0.00036221)
(-0.00275252 -0.00244072 0.00123084)
(-0.00187623 -0.00112441 0.00261956)
(-0.00180498 -0.000384155 0.00336864)
(-0.00189633 0.000444749 0.00379846)
(-0.00207583 0.000888263 0.00397046)
(-0.00215939 0.00135592 0.00406071)
(-0.00224652 0.00158608 0.00407798)
(-0.00225517 0.00183881 0.00408392)
(-0.0022415 0.00196779 0.00407059)
(-0.00218939 0.00210526 0.00405923)
(-0.0021296 0.00217124 0.00404149)
(-0.00205435 0.00223024 0.00404052)
(-0.0019717 0.00226586 0.00404284)
(-0.00188334 0.00229722 0.0040536)
(-0.00179044 0.00232236 0.00407152)
(-0.0016914 0.00234591 0.00409792)
(-0.00159006 0.00237212 0.00413057)
(-0.0014776 0.00239586 0.0041716)
(-0.00136506 0.00243019 0.00422085)
(-0.00123636 0.0024572 0.00428179)
(-0.00109779 0.00252084 0.00435566)
(-0.000923563 0.00256215 0.00444603)
(-0.000709035 0.00268792 0.00455866)
(-0.000452572 0.00281313 0.00468765)
(-0.00018389 0.00313059 0.00480814)
(4.80033e-05 0.00343071 0.00487596)
(0.000286843 0.00395531 0.00484373)
(0.000449998 0.00431466 0.00461201)
(0.000654817 0.00476365 0.00414495)
(0.000756137 0.00456719 0.00343894)
(0.00108671 0.00432831 0.00273575)
(0.00136361 0.00308535 0.00233405)
(0.000981841 0.00223877 0.0022145)
(-0.00155566 0.00116807 0.00154303)
(-0.00198265 0.00250098 -0.00188558)
(0.0117555 -0.000125429 -0.00888286)
(0.0165823 0.0145172 -0.0221786)
(-0.0250687 0.107535 -0.0220815)
(-0.0466805 0.168788 0.0211802)
(-0.00573825 0.170782 0.0779895)
(0.0536688 0.166739 0.0731044)
(0.0796729 0.181398 0.0619064)
(0.0991309 0.180137 0.0726743)
(0.113615 0.167503 0.0743254)
(0.124699 0.182159 0.0664531)
(0.160252 0.0650785 0.0826081)
(0.160532 0.437917 0.0978342)
(-0.0255543 -0.157358 0.0245737)
(-0.00331248 -0.00821862 0.0387689)
(-0.0399485 0.156246 -0.00834872)
(-0.0631504 0.153132 -0.00533837)
(-0.062587 0.208439 -0.00828389)
(-0.0362136 0.218501 -0.000699582)
(-0.00266878 0.212579 0.0106071)
(0.0180797 0.202225 0.0149658)
(0.0324437 0.201713 0.0143342)
(0.0401047 0.201581 0.0156641)
(0.0444593 0.210212 0.0148157)
(0.0431229 0.218518 0.0154699)
(0.042606 0.226713 0.0189213)
(0.04173 0.231033 0.0155102)
(0.0414778 0.235219 0.00868953)
(0.0410036 0.23533 0.00218296)
(0.0396419 0.232211 4.79262e-05)
(0.0350396 0.230437 -0.000824224)
(0.0307187 0.226629 -0.00290513)
(0.0273029 0.220076 -0.00581707)
(0.0292579 0.213235 -0.00836601)
(0.0330141 0.205155 -0.00873769)
(0.0309148 0.191491 -0.0064992)
(0.0214458 0.176884 -0.00473204)
(0.0129485 0.159514 -0.00938806)
(-0.00783102 0.138021 -0.0159616)
(-0.0134528 0.127393 -0.0230845)
(-0.0219798 0.121979 -0.0294444)
(-0.0289957 0.119755 -0.0296856)
(-0.0345128 0.126246 -0.0262208)
(-0.0322616 0.128269 -0.010995)
(-0.034271 0.117183 0.0134786)
(-0.0348065 0.107584 0.0243544)
(-0.0389125 0.0880721 0.0339235)
(-0.052383 0.0595789 0.0369224)
(-0.0780291 0.039709 0.0396392)
(-0.108936 0.00556291 0.0247324)
(-0.0010555 -0.00166414 -0.00295832)
(0.0326438 0.0371885 0.00906216)
(0.00164728 -0.00519766 0.0018775)
(0.00186714 0.0203255 0.00825416)
(0.00487798 -0.00756137 0.00803473)
(0.00625432 0.00308918 0.00151896)
(0.00912127 -0.0067286 -0.000552342)
(0.00896083 0.00127013 -0.00365543)
(0.0088374 -0.0016191 -0.00188992)
(0.00208045 -0.00173439 -0.00352729)
(-0.00385531 -0.00470998 -0.00452146)
(-0.00536507 -0.00415019 -0.00426015)
(-0.00540579 -0.00353597 -0.00298694)
(-0.00543211 -0.00213178 -0.0016456)
(-0.0057063 -0.0010811 -0.000792042)
(-0.00596057 3.01622e-05 -0.000256038)
(-0.00622839 0.000723336 2.9509e-05)
(-0.00639697 0.00136128 0.000198902)
(-0.00652793 0.00170343 0.000294517)
(-0.00656832 0.00200041 0.000351647)
(-0.00654789 0.00214598 0.000394464)
(-0.00646202 0.00226648 0.00043851)
(-0.00632305 0.00231907 0.00049786)
(-0.00618724 0.00237237 0.000575187)
(-0.00605597 0.00240722 0.000660507)
(-0.00593051 0.00244049 0.000752546)
(-0.00581059 0.00246844 0.000846632)
(-0.00569474 0.00249466 0.000942862)
(-0.00558633 0.0025227 0.00103923)
(-0.00547354 0.00254889 0.00113644)
(-0.00537181 0.00258551 0.00123547)
(-0.00526494 0.00261419 0.00133615)
(-0.00516911 0.00267785 0.00144601)
(-0.00507098 0.0027367 0.00156095)
(-0.00501312 0.00290215 0.00168564)
(-0.00497981 0.00310768 0.0018037)
(-0.00493216 0.0035374 0.00188351)
(-0.00487675 0.00400043 0.00189739)
(-0.00475993 0.00475654 0.0017495)
(-0.00453143 0.00537122 0.00135238)
(-0.00397998 0.00602105 0.000601371)
(-0.00314098 0.00580019 -0.00038263)
(-0.00176407 0.00515434 -0.001146)
(-0.00117162 0.00371579 -0.00122763)
(-0.00217182 0.0031635 -0.00111214)
(-0.00563495 0.00342572 -0.000831858)
(-0.00403444 0.00895734 -0.00530897)
(-0.00594448 0.0276334 -0.0179069)
(-0.0585281 0.0990515 -0.0148005)
(-0.081459 0.132322 0.0061469)
(-0.048087 0.150173 0.0460294)
(0.00543329 0.11942 0.0851148)
(0.0551051 0.101105 0.0647234)
(0.0813282 0.113448 0.0365306)
(0.0871904 0.123275 0.0305964)
(0.105954 0.103689 0.0475656)
(0.103882 0.165111 0.0749549)
(0.171509 0.012058 0.0557532)
(0.309392 0.482514 0.0433435)
(-0.0461405 -0.151723 0.0254553)
(-0.0912868 -0.043616 0.0279878)
(-0.0583139 0.157334 -0.00625641)
(-0.0894396 0.124304 0.00487629)
(-0.0652975 0.159572 0.0141124)
(-0.0266556 0.119941 0.0334486)
(0.015895 0.0806819 0.0286411)
(0.0267982 0.0573238 0.0216934)
(0.0409534 0.0347384 0.01181)
(0.0421863 0.0299685 0.00730307)
(0.0389391 0.0313377 0.000846291)
(0.0350597 0.0506165 -0.00681998)
(0.0311878 0.0716519 -0.00504517)
(0.0304964 0.0898595 0.0057715)
(0.0303644 0.0995744 0.00856819)
(0.0292947 0.107697 0.00375031)
(0.0283069 0.113896 0.00441925)
(0.0206369 0.123571 0.00437663)
(0.0184859 0.132496 0.00457333)
(0.0277651 0.150702 0.00136584)
(0.0319543 0.158172 -0.00569735)
(0.0412071 0.163837 -0.00730469)
(0.048458 0.166206 -0.00662675)