/*--------------------------------*- C++ -*----------------------------------*\
| =========                 |                                                 |
| \\      /  F ield         | OpenFOAM: The Open Source CFD Toolbox           |
|  \\    /   O peration     | Version:  2.3.0                                 |
|   \\  /    A nd           | Web:      www.OpenFOAM.org                      |
|    \\/     M anipulation  |                                                 |
\*---------------------------------------------------------------------------*/
FoamFile
{
    version     2.0;
    format      ascii;
    class       volVectorField;
    location    "11";
    object      U.air;
}
// * * * * * * * * * * * * * * * * * * * * * * * * * * * * * * * * * * * * * //

dimensions      [0 1 -1 0 0 0 0];

internalField   nonuniform List<vector> 
6144
(
(0.00824143 0.0198865 0.00116947)
(0.00855283 0.00329034 0.00138347)
(0.00360764 -0.000310783 0.000426182)
(0.00344489 -0.00205174 -0.000130135)
(0.00233153 -0.00376809 1.48379e-05)
(0.00245474 -0.00280083 -7.32301e-05)
(0.0023653 -0.00295954 -0.000558975)
(0.00253417 -0.0018195 -0.000663593)
(0.00263313 -0.00121526 -0.000907467)
(0.00281907 -0.000256913 -0.000979516)
(0.00303361 0.000239518 -0.00107291)
(0.00322517 0.000601539 -0.00107378)
(0.00337561 0.000574288 -0.00118633)
(0.00350623 0.000521754 -0.00124677)
(0.00358895 0.000322124 -0.00138556)
(0.00365705 0.000203183 -0.00146174)
(0.00370545 4.09059e-05 -0.00157678)
(0.00373733 -2.15736e-05 -0.00164004)
(0.00376718 -0.00011634 -0.00171515)
(0.00378732 -0.00012845 -0.00175846)
(0.00380516 -0.000163902 -0.00180427)
(0.00381951 -0.000153451 -0.00183122)
(0.00383129 -0.000155266 -0.00185711)
(0.00384062 -0.000138318 -0.00187359)
(0.00384819 -0.000125023 -0.00188737)
(0.00385402 -0.000106606 -0.00189677)
(0.00385837 -8.88382e-05 -0.001904)
(0.00386141 -7.00818e-05 -0.00190901)
(0.00386332 -5.04567e-05 -0.00191236)
(0.00386373 -3.26227e-05 -0.00191409)
(0.00386419 -8.8558e-06 -0.00191416)
(0.00386086 4.06725e-06 -0.0019129)
(0.00385996 3.77749e-05 -0.00190995)
(0.00385243 3.41146e-05 -0.00190517)
(0.00385359 0.000101984 -0.00189687)
(0.0038344 3.54713e-05 -0.00188835)
(0.00385215 0.00021947 -0.0018725)
(0.00379994 -5.33249e-05 -0.00186232)
(0.00385839 0.000462123 -0.00182887)
(0.00374564 -0.000319706 -0.00182406)
(0.00387383 0.000924234 -0.00174652)
(0.00367441 -0.000883184 -0.00176256)
(0.00388167 0.00166236 -0.00160683)
(0.00360498 -0.0018995 -0.00165352)
(0.00386641 0.00264364 -0.00144058)
(0.00355645 -0.00350058 -0.00145292)
(0.00385909 0.00395695 -0.0013538)
(0.00351585 -0.00565157 -0.0013291)
(0.00403419 0.00626681 -0.00173734)
(0.00370296 -0.00776407 -0.0016722)
(0.0047886 0.00975304 -0.0027112)
(0.00245784 -0.0117302 -0.00206369)
(0.00292583 0.0173688 -0.00304106)
(0.00170569 -0.0108267 -0.00328636)
(0.0144502 0.0496429 -0.00505998)
(0.00359558 -0.0584375 -0.014561)
(0.00802723 0.0730044 -0.0146559)
(0.004789 -0.0450606 -0.0351248)
(-0.0316109 0.137975 -0.0745162)
(0.057465 0.0388239 -0.118731)
(0.0917534 0.327603 0.000987021)
(0.037174 0.403008 -0.000548852)
(-0.0399767 0.15127 0.0112086)
(0.0365593 -0.148142 0.00163726)
(0.0298458 -0.168994 0.00362322)
(0.0205853 -0.172993 0.00468991)
(0.0134669 -0.175657 0.00498892)
(0.00895874 -0.175311 0.00452888)
(0.00576684 -0.171523 0.00349203)
(0.00300601 -0.165204 0.00233257)
(0.00053894 -0.15706 0.00118774)
(-0.00148961 -0.147541 0.00027034)
(-0.00253512 -0.137016 -0.000545099)
(-0.00203789 -0.12634 -0.00121773)
(-0.00137902 -0.116576 -0.00199346)
(-0.000538447 -0.107612 -0.00263955)
(-0.000175173 -0.0998461 -0.00326361)
(0.000105821 -0.0939539 -0.00391845)
(0.00131123 -0.0902177 -0.00399887)
(0.00266204 -0.0875138 -0.00482795)
(0.00396379 -0.0851949 -0.00446767)
(0.00414104 -0.0829372 -0.00507705)
(0.00450164 -0.0799695 -0.00417424)
(0.00314565 -0.0777562 -0.00422567)
(0.00250966 -0.0735536 -0.00366796)
(0.000341264 -0.0697984 -0.00283238)
(-0.00261248 -0.0623162 -0.00393967)
(-0.00439573 -0.0506171 -0.00193947)
(-0.0109197 -0.0365363 -0.00690112)
(-0.00900736 -0.00900997 -0.00328869)
(-0.00199348 0.00763929 -0.0016991)
(0.00293324 0.0172399 -0.0090707)
(0.00537307 0.0223476 -0.0100765)
(0.00893517 0.0232519 -0.00642928)
(0.0128125 0.0171719 -0.00512884)
(0.0143405 0.0085947 -0.00472623)
(0.0142783 0.0210398 0.00394591)
(0.0167867 0.0109379 0.00504739)
(0.0080146 0.00622698 0.00420025)
(0.00893744 0.00431379 0.00396151)
(0.0052105 0.000900168 0.00426817)
(0.00533552 0.000822129 0.00363475)
(0.00470287 -0.000409081 0.00328782)
(0.00477036 0.00030186 0.00284976)
(0.00477007 0.000298199 0.00242478)
(0.005055 0.00114773 0.00221366)
(0.00547074 0.00144274 0.00213965)
(0.00599314 0.00169956 0.00223589)
(0.00636205 0.00148553 0.00214931)
(0.0066929 0.00131186 0.00210028)
(0.00686218 0.000966921 0.00192718)
(0.00701684 0.000771929 0.00182848)
(0.00709198 0.000524726 0.00168007)
(0.0071646 0.000420916 0.00160258)
(0.00720571 0.000285367 0.00150474)
(0.00724945 0.000252248 0.00145793)
(0.00727636 0.000196913 0.00140336)
(0.00730671 0.000198025 0.00138068)
(0.00732714 0.000186673 0.00135645)
(0.00734728 0.00020007 0.00134822)
(0.0073621 0.000210004 0.00134245)
(0.00737484 0.000227171 0.00134342)
(0.00738396 0.000244207 0.00134706)
(0.0073904 0.000263101 0.00135378)
(0.0073943 0.00028296 0.00136261)
(0.00739528 0.000301793 0.00137358)
(0.00739538 0.000324455 0.00138648)
(0.00738966 0.000338293 0.00140161)
(0.0073876 0.000374267 0.00141842)
(0.00737317 0.000370138 0.00143885)
(0.00737314 0.000435886 0.00146314)
(0.00733693 0.000371855 0.00148685)
(0.00736575 0.000543665 0.00152615)
(0.00726134 0.000273369 0.00154479)
(0.00737878 0.000774534 0.00161831)
(0.00712663 -2.84961e-05 0.00161244)
(0.00742614 0.00123496 0.00177736)
(0.0069316 -0.000697458 0.00170594)
(0.00750511 0.00201502 0.00205595)
(0.00667805 -0.00192457 0.00183366)
(0.00756621 0.00308337 0.00238758)
(0.00636498 -0.00389779 0.00203715)
(0.00754269 0.0044167 0.00245731)
(0.00590979 -0.00637135 0.00197256)
(0.00765214 0.00706315 0.00137562)
(0.00550858 -0.00762909 0.000734475)
(0.0092673 0.0129769 -0.00023466)
(0.00545691 -0.00987752 -0.000180369)
(0.00215661 0.0206683 0.00115232)
(-0.00304191 -0.0172442 0.00372641)
(0.0298923 0.0325179 0.00155766)
(0.0343634 -0.0523423 0.000231905)
(-0.0324436 0.0278281 -0.000643)
(-0.019982 -0.0047026 -0.0140646)
(0.0117961 0.184924 0.00189119)
(0.184729 -0.00586493 -0.0705318)
(0.093155 0.343227 0.00213246)
(-0.00133962 0.429309 0.00723088)
(-0.0402537 -0.100116 0.0104219)
(-0.0147007 -0.0734292 0.0123258)
(-0.0159086 -0.09642 0.0127586)
(-0.0230583 -0.118765 0.0131733)
(-0.0251013 -0.128388 0.0122882)
(-0.0247167 -0.132916 0.0102049)
(-0.0234814 -0.133916 0.00752209)
(-0.0215041 -0.132301 0.00515105)
(-0.0198701 -0.127834 0.00309694)
(-0.0180775 -0.121841 0.00189734)
(-0.0164157 -0.112944 0.000853071)
(-0.0142421 -0.104012 -0.000447401)
(-0.0116589 -0.0965064 -0.00196548)
(-0.00763561 -0.0900831 -0.00333076)
(-0.000873954 -0.082347 -0.00411417)
(0.00385878 -0.0744058 -0.00422125)
(0.00507325 -0.0646973 -0.00500322)
(0.00507875 -0.0562478 -0.00547752)
(0.00483618 -0.0493323 -0.00495701)
(0.00483019 -0.0432996 -0.00430065)
(0.0046412 -0.0393786 -0.00242612)
(0.00379513 -0.0380578 -0.00170918)
(0.00176288 -0.0363719 -5.07517e-05)
(-0.00185346 -0.037033 0.000422076)
(-0.00679665 -0.0362755 -0.000266873)
(-0.012192 -0.0322554 -1.61454e-06)
(-0.01921 -0.026193 -0.00611781)
(-0.0206901 -0.0107291 -0.004086)
(-0.0111392 0.00329978 0.00027115)
(-0.00349397 0.0143626 -0.00191832)
(0.00199192 0.0212058 -0.00403588)
(0.00680611 0.0232085 0.00127317)
(0.014083 0.0174776 0.00444903)
(0.0169382 0.0103545 0.0064417)
(0.0155502 0.0171847 0.00416084)
(0.0198696 0.0126394 0.00527918)
(0.00876495 0.00748107 0.00414116)
(0.0110837 0.00839899 0.00425564)
(0.00592163 0.00414127 0.00535981)
(0.006248 0.00448867 0.00511095)
(0.00471986 0.00223428 0.00539401)
(0.00457642 0.0023246 0.00507817)
(0.00420471 0.00162226 0.00453423)
(0.00441898 0.00215041 0.00424261)
(0.00479375 0.00219715 0.00420967)
(0.0055209 0.0024033 0.00436191)
(0.00596914 0.00200427 0.00445038)
(0.00642534 0.00175567 0.00446766)
(0.00659576 0.00129228 0.00442483)
(0.00679226 0.00105799 0.00437843)
(0.00684352 0.000758735 0.00432341)
(0.00693102 0.00063838 0.00429205)
(0.00695197 0.000482575 0.0042633)
(0.00699697 0.0004428 0.00425712)
(0.00701055 0.000377937 0.00425171)
(0.00703738 0.000374434 0.0042632)
(0.00704813 0.000357993 0.00427296)
(0.00706228 0.000369238 0.00429286)
(0.00706857 0.00037567 0.00431309)
(0.0070733 0.000391023 0.00433735)
(0.00707306 0.000405983 0.00436194)
(0.00706949 0.000423454 0.00438771)
(0.00706265 0.000441649 0.00441373)
(0.00705275 0.000459768 0.00444054)
(0.00704057 0.000481141 0.00446848)
(0.0070235 0.00049436 0.00449661)
(0.00700878 0.000526178 0.00452526)
(0.00698259 0.000526238 0.00455411)
(0.00696902 0.000580804 0.004583)
(0.00692278 0.000537044 0.00461186)
(0.0069335 0.000667993 0.0046477)
(0.00681678 0.000464626 0.0046624)
(0.00693108 0.000867003 0.00472265)
(0.00662842 0.000202606 0.00469471)
(0.00699423 0.00129042 0.00483145)
(0.00635564 -0.000417143 0.00470613)
(0.00714834 0.00203214 0.00500033)
(0.00597216 -0.00161645 0.00466936)
(0.00735201 0.00316448 0.00515923)
(0.00544459 -0.00352324 0.0045621)
(0.00743278 0.00468148 0.00476278)
(0.00452538 -0.00547231 0.00424934)
(0.00704251 0.00769023 0.00232928)
(0.00357658 -0.00402954 0.0030368)
(0.00760304 0.015332 0.000411295)
(0.00472207 -0.00160023 0.00290496)
(0.00342163 0.0287651 0.00438749)
(-0.000858378 -0.0221596 0.00804826)
(0.0415641 0.0184399 0.00110818)
(0.0515267 -0.0579907 0.0028131)
(-0.0729003 0.0602858 0.0172673)
(-0.0723269 -0.101824 -0.0146792)
(-0.0509795 0.212536 -0.0225671)
(0.187153 -0.0393252 -0.0511862)
(0.150594 0.353045 -0.002041)
(0.0719315 0.449052 0.00117226)
(0.0710599 -0.114267 0.0174115)
(0.038691 -0.0645694 0.0214292)
(0.0125495 -0.086864 0.0204412)
(-0.000899442 -0.101337 0.0175884)
(-0.00956573 -0.10354 0.0140429)
(-0.014844 -0.103462 0.00975255)
(-0.0178237 -0.101693 0.00595916)
(-0.0197568 -0.0967775 0.00164262)
(-0.0216635 -0.0910827 -0.00179491)
(-0.0216815 -0.0847824 -0.00370781)
(-0.015094 -0.0762779 -0.00503616)
(-0.0101321 -0.0658593 -0.0083203)
(-0.0081763 -0.0520948 -0.0102455)
(-0.00814138 -0.0366129 -0.015006)
(-0.00767454 -0.00567029 -0.0157924)
(-0.00498996 0.0141513 -0.012106)
(0.00106717 0.0263345 -0.00711411)
(0.00624471 0.0306192 -0.00319762)
(0.00972413 0.0290633 8.68515e-05)
(0.0112149 0.0240367 0.00272722)
(0.0109015 0.0168613 0.00466423)
(0.00893973 0.00980179 0.00578727)
(0.00582346 0.00336831 0.0065127)
(0.000892681 -0.00250439 0.00550874)
(-0.0061267 -0.00629548 0.00465424)
(-0.0131594 -0.0078037 0.003639)
(-0.0228902 -0.00715287 -0.00513512)
(-0.0272227 0.00122634 -0.00670913)
(-0.016269 0.00775829 -0.00119976)
(-0.00687242 0.0139148 -0.00184344)
(-0.00141813 0.0201642 -0.000524835)
(0.00188164 0.0206729 0.00637672)
(0.00764931 0.0164626 0.0122869)
(0.01267 0.00938521 0.0139598)
(0.0139527 0.0126271 0.00275528)
(0.022708 0.0112865 0.00299531)
(0.00769778 0.00503149 0.00115958)
(0.0130086 0.00932854 0.000790347)
(0.00613019 0.00395164 0.00257295)
(0.0074759 0.00615157 0.00276419)
(0.0048926 0.0031183 0.00443656)
(0.00484982 0.00361717 0.00439011)
(0.00391163 0.00250814 0.00427186)
(0.00381592 0.00316662 0.0041189)
(0.00384303 0.00309686 0.00416353)
(0.0046107 0.00335399 0.00450821)
(0.00507933 0.00281839 0.00477927)
(0.00553364 0.00253019 0.00490204)
(0.0056673 0.00193065 0.00493675)
(0.00583663 0.00165002 0.00493804)
(0.00584967 0.00127642 0.00492605)
(0.00592153 0.00113245 0.00492144)
(0.00591871 0.00094133 0.00492059)
(0.00595682 0.000889468 0.00493342)
(0.00595846 0.000805937 0.00494719)
(0.00598302 0.000793286 0.00497129)
(0.00598862 0.000765699 0.00499249)
(0.00600152 0.000770779 0.00502128)
(0.00600565 0.000768977 0.00504954)
(0.00600859 0.000778948 0.00507993)
(0.00600703 0.000788525 0.00510754)
(0.00600232 0.000801759 0.00513427)
(0.00599413 0.000815808 0.00516009)
(0.00598236 0.000830261 0.00518659)
(0.00596718 0.000847338 0.00521336)
(0.00594679 0.000859499 0.00523879)
(0.00592692 0.000883642 0.00526336)
(0.00590067 0.0008856 0.00528458)
(0.00588345 0.000927298 0.00530421)
(0.00584325 0.000899845 0.00532072)
(0.00584263 0.000987056 0.00533473)
(0.00574918 0.000857205 0.00533489)
(0.00583496 0.0011343 0.00535886)
(0.00556759 0.00064575 0.00531019)
(0.00592264 0.00147935 0.00539866)
(0.00529961 8.00222e-05 0.00523116)
(0.00615424 0.00209952 0.0054721)
(0.0049007 -0.00106614 0.00504938)
(0.00656344 0.00304271 0.00551483)
(0.00419138 -0.00277662 0.00470301)
(0.00679246 0.00442839 0.00487448)
(0.00275715 -0.00394318 0.00401276)
(0.00526028 0.00737348 0.0016659)
(0.00132098 -0.00164762 0.00331446)
(0.00522163 0.0140994 0.00156278)
(0.00489264 -0.00143616 0.00652653)
(0.00458531 0.0225381 0.0052465)
(0.00637385 -0.0226626 0.0014065)
(0.0347545 0.0285282 -0.000905463)
(0.0205858 -0.00901096 0.00818711)
(-0.0274675 0.126548 0.0199444)
(-0.093363 -0.148695 -0.00661717)
(-0.0735979 0.290036 -0.080081)
(0.223539 -0.0806054 -0.0328927)
(0.18127 0.377726 -0.000870959)
(0.0823881 0.447504 0.00383978)
(0.105435 -0.0422205 0.0137674)
(-0.0253717 0.0531681 0.0265022)
(-0.0316491 -0.0506647 0.0301098)
(-0.0316174 -0.0494078 0.0219932)
(-0.0334983 -0.0619056 0.0146265)
(-0.0348964 -0.0662535 0.00446747)
(-0.0277345 -0.0639546 -0.00171506)
(-0.0161663 -0.054263 -0.00830597)
(-0.014347 -0.0394599 -0.0135124)
(-0.0190251 -0.0233749 -0.0194639)
(-0.0216661 0.0141558 -0.0206309)
(-0.0207446 0.0484092 -0.021293)
(-0.0171828 0.070297 -0.0134712)
(-0.0119763 0.0817045 -0.0084051)
(-0.00299961 0.0877619 -0.00291073)
(0.00590001 0.0858727 0.000774512)
(0.0118811 0.0815218 0.00341155)
(0.0150909 0.0739957 0.00539868)
(0.0157497 0.0663708 0.00627767)
(0.0147289 0.0570885 0.00689938)
(0.0124107 0.0480117 0.00685104)
(0.00878229 0.0389132 0.00656865)
(0.00419788 0.0309097 0.00589621)
(-0.0019298 0.0241161 0.00445213)
(-0.0101398 0.0188496 0.00215022)
(-0.021381 0.0161574 -0.00316938)
(-0.0296808 0.0150623 -0.00908902)
(-0.0249926 0.0161496 -0.00637818)
(-0.0123203 0.013063 -0.0022789)
(-0.00541 0.0174136 -0.00177478)
(-0.00249757 0.0213448 0.00165734)
(-0.0023558 0.0205785 0.00826311)
(-0.000520502 0.0161052 0.0137111)
(0.00344726 0.00819378 0.0146084)
(0.0128864 0.0100717 0.00286332)
(0.0256505 0.0132531 0.000834113)
(0.00796032 0.00285796 -0.00355464)
(0.01715 0.0114184 -0.00430901)
(0.00792968 0.00244206 -0.00312867)
(0.00977287 0.00643363 -0.00182519)
(0.00544939 0.00117092 0.000651206)
(0.00522575 0.00264173 0.00121032)
(0.0029476 0.000896201 0.00215037)
(0.00259627 0.00230573 0.00247231)
(0.00232401 0.00256855 0.00303291)
(0.00293317 0.0033479 0.00382216)
(0.00325763 0.00296406 0.00445174)
(0.00355949 0.00280742 0.00481397)
(0.00355369 0.00223963 0.00495795)
(0.00359248 0.00199898 0.00503572)
(0.00351472 0.0016188 0.00505593)
(0.00351236 0.00147962 0.00506651)
(0.0034635 0.00127782 0.0050677)
(0.00346497 0.00122399 0.00507521)
(0.00344568 0.00113218 0.00508222)
(0.00345214 0.00111423 0.00509533)
(0.0034469 0.00107821 0.00510689)
(0.00345304 0.00107383 0.00512487)
(0.00345352 0.0010636 0.005135)
(0.00345366 0.00106859 0.00514342)
(0.00345157 0.00107438 0.00515048)
(0.00344773 0.00108315 0.00515724)
(0.00344112 0.00109145 0.00516231)
(0.003431 0.00109875 0.00516374)
(0.00341807 0.00110787 0.00515863)
(0.00340253 0.00111331 0.00514945)
(0.00338541 0.00112935 0.00513712)
(0.00336492 0.00112964 0.0051215)
(0.00334839 0.00116329 0.00510489)
(0.00331795 0.00114301 0.00508272)
(0.0033121 0.00120871 0.00505896)
(0.00325421 0.00112411 0.00502142)
(0.00330819 0.0013148 0.00499557)
(0.00312668 0.000956192 0.00491715)
(0.00343888 0.00158881 0.00494728)
(0.00292869 0.000444737 0.00474762)
(0.00378656 0.0021221 0.00493492)
(0.00261854 -0.000568404 0.0044598)
(0.00431421 0.00295295 0.00484906)
(0.00198172 -0.00179235 0.00397114)
(0.00412829 0.00428504 0.00384346)
(0.000532505 -0.00144388 0.00303038)
(0.00172714 0.00769101 0.000476319)
(-0.00067084 0.0016967 0.00323806)
(0.00209159 0.0133543 0.00232186)
(0.00327153 -0.000760144 0.0068805)
(0.0107965 0.0239613 0.00699184)
(-0.0028866 -0.0316124 0.00147689)
(0.0353953 0.0398925 0.0290763)
(0.0253741 -0.0717781 0.01442)
(0.017973 0.0642701 0.0633728)
(-0.120093 -0.144798 0.0291387)
(-0.0364214 0.235432 -0.163795)
(0.17586 -0.115436 0.005316)
(0.193003 0.457887 -0.00272989)
(0.0652395 0.580302 0.00226438)
(0.0556659 0.503099 0.0119137)
(0.00442721 0.521578 0.0107702)
(0.00666218 0.468293 0.00610424)
(-0.0164154 0.462233 -0.0042518)
(-0.0196078 0.4637 -0.0138971)
(-0.0198843 0.483401 -0.0200518)
(-0.0241543 0.517124 -0.0256346)
(-0.0267819 0.563432 -0.0229366)
(-0.0276395 0.581959 -0.0162101)
(-0.0244636 0.607118 -0.0112842)
(-0.0193691 0.620017 -0.00706248)
(-0.0105435 0.614422 -0.00210675)
(-0.00383381 0.620567 0.00215958)
(0.00163764 0.630316 0.00464131)
(0.00540459 0.633233 0.00617558)
(0.00928885 0.628961 0.00703753)
(0.0125174 0.604213 0.00664834)
(0.0138396 0.594099 0.00564143)
(0.0148486 0.566691 0.00410756)
(0.0145356 0.474164 0.00246344)
(0.0141273 0.115697 0.00092947)
(0.0112007 0.0794033 -0.00128011)
(0.00687741 0.0691931 -0.00384168)
(0.00130937 0.0595275 -0.00629563)
(-0.00508684 0.0506931 -0.00847988)
(-0.0116221 0.0419382 -0.0106343)
(-0.014854 0.033078 -0.0109553)
(-0.0093493 0.025696 -0.00717295)
(-0.00505585 0.0221311 -0.00452234)
(-0.00331559 0.0229182 -0.00186097)
(-0.00422291 0.0236827 0.00246544)
(-0.00678957 0.0211861 0.00782027)
(-0.00735003 0.016455 0.0114962)
(-0.00362625 0.00797816 0.01002)
(0.0118883 0.00948824 0.000603409)
(0.0269616 0.0188192 0.00110698)
(0.0120119 0.00324161 -0.00705285)
(0.0216996 0.0142576 -0.00573463)
(0.0151449 0.00229688 -0.00812433)
(0.0166335 0.00811693 -0.00517126)
(0.0103185 0.000373895 -0.00396271)
(0.00787586 0.0019763 -0.00262797)
(0.00429153 -0.00211578 -0.00148784)
(0.00253647 -0.000324085 -0.000778836)
(0.00111029 0.000123039 0.000527134)
(0.00168357 0.00189122 0.0021222)
(0.00204485 0.00205371 0.00333162)
(0.00224803 0.00234979 0.00406866)
(0.00212448 0.00202934 0.00442854)
(0.00203473 0.00199395 0.00463231)
(0.00188572 0.00171243 0.00471774)
(0.00181133 0.00165624 0.00475694)
(0.00173672 0.00148939 0.00475978)
(0.00171364 0.00146564 0.00475022)
(0.0017011 0.00138964 0.00473123)
(0.00171291 0.00138385 0.00470829)
(0.0017247 0.00135319 0.00467384)
(0.00174256 0.00135404 0.00463818)
(0.0017603 0.00134965 0.0045993)
(0.00178087 0.00135593 0.00456182)
(0.00180213 0.00136083 0.00452233)
(0.0018234 0.00136789 0.00448158)
(0.00184428 0.0013741 0.00443875)
(0.00186381 0.00137983 0.00439273)
(0.00187927 0.0013867 0.00434279)
(0.00189125 0.00139017 0.00428987)
(0.00189883 0.0014057 0.00423328)
(0.00190731 0.00140751 0.00417483)
(0.00191566 0.00143986 0.00411681)
(0.00191869 0.00142961 0.0040591)
(0.0019373 0.00149622 0.00400711)
(0.00193657 0.00145677 0.00396286)
(0.00199852 0.00159995 0.00392646)
(0.00193642 0.00137759 0.00388626)
(0.00219727 0.00184261 0.00389735)
(0.00189614 0.00101061 0.00379347)
(0.00260739 0.00236494 0.00393064)
(0.00179539 0.000316793 0.00364387)
(0.00307481 0.00327168 0.00385824)
(0.00134673 -0.000218012 0.00328181)
(0.00234741 0.00492851 0.00271355)
(-0.000127714 0.000614924 0.00230448)
(-0.000108103 0.00790037 0.000161583)
(-0.000878809 0.000929405 0.00361876)
(0.00249817 0.0100075 0.00282092)
(0.00347668 -0.0100263 0.00712848)
(0.0229435 0.0107555 0.00712074)
(0.000498126 -0.0282156 0.021882)
(0.0331659 0.0144838 0.0501794)
(0.000151568 -0.0221473 0.0412294)
(0.00297451 0.0708586 0.104339)
(-0.118504 -0.119238 0.0808942)
(0.0384993 0.0864218 -0.167843)
(0.10238 -0.0448375 0.0184553)
(0.205548 0.470892 -0.0105499)
(0.0783737 0.576991 -0.00607593)
(0.0713457 0.573772 0.000290474)
(0.0162479 0.600115 -0.00368215)
(0.000907968 0.59046 -0.010766)
(-0.0185547 0.608776 -0.0133769)
(-0.0204646 0.623847 -0.0149672)
(-0.0294939 0.616681 -0.0137067)
(-0.0301661 0.6137 -0.0104221)
(-0.0277037 0.608692 -0.00628469)
(-0.0240011 0.633127 -0.00190091)
(-0.0189744 0.709023 0.00352321)
(-0.0140455 0.703792 0.00672334)
(-0.0109274 0.686536 0.00856869)
(-0.00604371 0.68193 0.0110709)
(-0.00200926 0.68109 0.01244)
(0.0036778 0.663294 0.013316)
(0.00802533 0.583881 0.0136946)
(0.0133984 0.585832 0.0135204)
(0.0167168 0.659758 0.0125933)
(0.0206982 0.642766 0.0111613)
(0.0223056 0.625635 0.0100267)
(0.0233079 0.640992 0.00802125)
(0.022427 0.590416 0.00555644)
(0.019889 0.537254 0.00289688)
(0.0173696 0.421032 0.00151691)
(0.011522 0.568509 -0.00110922)
(0.00696974 0.505328 -0.00249184)
(0.00479436 0.356892 -0.00248983)
(0.00441159 0.0597283 -0.00195512)
(0.00346466 0.0288378 -0.000910853)
(0.00170771 0.0230609 0.000978522)
(-0.00162771 0.0207449 0.00443229)
(-0.00657032 0.0178746 0.00796649)
(-0.00978583 0.0119663 0.0104612)
(-0.00565051 0.00482616 0.00701887)
(0.0104531 0.0110607 -0.000162696)
(0.0252827 0.0255838 0.00370738)
(0.0139592 0.00240243 -0.00583782)
(0.0235572 0.0158107 2.482e-05)
(0.0194793 0.000259145 -0.00687236)
(0.0202011 0.00779382 -0.00509772)
(0.0154652 0.000413318 -0.00479858)
(0.0120419 0.00322274 -0.00305669)
(0.00695265 -0.00334388 -0.00306657)
(0.00275862 -0.00246334 -0.0024961)
(0.000270607 -0.00242562 -0.00175597)
(-0.000207614 -0.000284424 9.3874e-05)
(-0.000169012 0.000353192 0.0016493)
(-0.000168734 0.00120838 0.002703)
(-0.000523039 0.00123328 0.0032192)
(-0.000739486 0.00152295 0.00352096)
(-0.00101123 0.00144961 0.00365458)
(-0.00114088 0.00158356 0.00374153)
(-0.00126687 0.00153322 0.00376327)
(-0.00130608 0.00161729 0.00376317)
(-0.00132976 0.00160055 0.00373432)
(-0.00131693 0.00165155 0.00370042)
(-0.00129216 0.00165109 0.00365338)
(-0.00124996 0.0016732 0.00360942)
(-0.0012035 0.0016798 0.00355946)
(-0.00115123 0.00169328 0.00351159)
(-0.00109795 0.00170422 0.00346162)
(-0.00104379 0.00171831 0.00341172)
(-0.00099061 0.00173351 0.00336245)
(-0.000938783 0.00175 0.00331577)
(-0.000889561 0.00176803 0.00327035)
(-0.000841276 0.00178345 0.00322575)
(-0.000797488 0.0018057 0.00317913)
(-0.00074928 0.00181368 0.00313469)
(-0.000711403 0.00184732 0.00308807)
(-0.000676398 0.00184275 0.00304854)
(-0.000642209 0.0019027 0.00301599)
(-0.000613245 0.00187746 0.00301516)
(-0.000549514 0.00198816 0.0030347)
(-0.000545273 0.00185179 0.00307746)
(-0.000366839 0.00220692 0.00312317)
(-0.000511997 0.00163683 0.00316762)
(-3.8397e-05 0.00275695 0.00326481)
(-0.000531085 0.00127811 0.00323863)
(0.000168955 0.00380451 0.00329631)
(-0.000845775 0.00118485 0.00307709)
(-0.000758754 0.00546059 0.0023608)
(-0.0019071 0.00120419 0.00239759)
(-0.00256714 0.00729968 0.000935755)
(-0.00144802 -0.00167809 0.0040034)
(0.0033979 0.00531794 0.0048801)
(0.0024585 -0.0160541 0.00905682)
(0.0159593 -0.00241698 0.00738743)
(0.00690294 -0.0171019 0.00942583)
(-0.0133844 -0.00899529 0.0426832)
(-0.046816 -0.0288921 0.0675473)
(0.017371 0.00239468 0.101649)
(-0.0571702 -0.110652 0.0824229)
(0.042696 -0.0926151 -0.162745)
(0.0634763 0.0556292 0.0241609)
(0.127022 0.520871 -0.0150551)
(0.0483623 0.601072 -0.00739518)
(0.0471151 0.69005 0.00436275)
(0.0231108 0.694483 0.00451146)
(0.00490617 0.692972 0.00277103)
(-0.00879174 0.661203 0.000104215)
(-0.0157629 0.646812 0.000738669)
(-0.0215999 0.702484 0.00127726)
(-0.025442 0.700569 0.00291189)
(-0.0259143 0.629735 0.0043436)
(-0.0244654 0.681443 0.00780194)
(-0.0229996 0.698973 0.00924242)
(-0.0192055 0.706877 0.0111683)
(-0.0160651 0.646847 0.0125221)
(-0.0109449 0.724464 0.0143735)
(-0.00602363 0.716221 0.015747)
(-0.00159877 0.715229 0.0163323)
(0.00360645 0.607688 0.0169732)
(0.00977353 0.622989 0.0172975)
(0.0169669 0.618284 0.0173263)
(0.0218051 0.658544 0.0171292)
(0.0268347 0.66536 0.0168381)
(0.0296733 0.66341 0.016506)
(0.0318141 0.629033 0.0160482)
(0.0313968 0.601107 0.014944)
(0.0296493 0.55138 0.013787)
(0.0253672 0.603292 0.011031)
(0.0209463 0.605135 0.00823761)
(0.0167642 0.58102 0.0056964)
(0.0120708 0.586423 0.00326768)
(0.00550968 0.527712 0.00148977)
(-0.00177031 0.529299 0.00161021)
(-0.0107163 0.515398 0.00138886)
(-0.0159834 0.502713 0.00218692)
(-0.0179038 0.496493 0.00108662)
(-0.0170188 0.481811 -0.00165667)
(0.00181595 0.0105134 -0.000902266)
(0.0237489 0.0306787 0.00844401)
(0.0101211 -0.00378321 0.000619322)
(0.0171008 0.0141012 0.0086201)
(0.0179067 -0.00559376 0.00108755)
(0.0191208 0.00525873 -0.00282548)
(0.0164169 -0.00138059 -0.0035128)
(0.0136809 0.00321112 -0.00223881)
(0.0102076 -0.00268546 -0.00228206)
(0.00309938 -0.00340139 -0.00236107)
(-0.000636992 -0.00427172 -0.00170189)
(-0.000912947 -0.00246491 -0.000180477)
(-0.000588766 -0.00166183 0.00149136)
(-0.000391191 -0.00043714 0.00279424)
(-0.000692482 9.14828e-05 0.00347199)
(-0.000938898 0.000838991 0.00385911)
(-0.00125002 0.00111529 0.00400229)
(-0.00140916 0.00152104 0.00408095)
(-0.00157142 0.00165556 0.00408449)
(-0.00162615 0.0018661 0.00408891)
(-0.00166167 0.00193101 0.00407879)
(-0.00164077 0.0020465 0.00408324)
(-0.00160848 0.00209324 0.00408284)
(-0.00155484 0.00215171 0.00409611)
(-0.00149579 0.00218597 0.0041089)
(-0.00142821 0.00221811 0.00412839)
(-0.00135763 0.00223942 0.00415042)
(-0.00128293 0.00225591 0.00417675)
(-0.00120522 0.00226797 0.00420575)
(-0.00112562 0.00227823 0.00423719)
(-0.00104687 0.00228875 0.00427037)
(-0.00096626 0.0022967 0.00430632)
(-0.000888814 0.00231044 0.00434219)
(-0.000803029 0.0023135 0.00438191)
(-0.000726851 0.00233706 0.00441963)
(-0.000646568 0.00232576 0.00446076)
(-0.000563331 0.00236995 0.00450429)
(-0.000475767 0.00235293 0.00456114)
(-0.000367337 0.00245095 0.00462542)
(-0.0002948 0.00240326 0.00470391)
(-0.000139768 0.00268637 0.00477223)
(-0.000140986 0.00238781 0.00487447)
(0.000132382 0.0033213 0.00491067)
(-4.80593e-05 0.00235255 0.00500067)
(0.000151393 0.00456621 0.0048311)
(-0.000268574 0.00241937 0.00482337)
(-0.000727452 0.00628637 0.00397287)
(-0.000885958 0.00115169 0.00408644)
(-0.00166653 0.00681411 0.00305237)
(0.000409678 -0.00506137 0.00545246)
(0.00586192 0.00279489 0.00838869)
(0.00817259 -0.0161764 0.0129091)
(0.0126976 -0.00660123 0.0112711)
(0.0183035 -0.0185277 0.00813539)
(-0.0192256 -0.000910291 0.028573)
(-0.058916 -0.048265 0.0463234)
(-0.0240655 -0.0391809 0.0780402)
(0.0121923 -0.0852881 0.0806886)
(0.0158094 -0.123379 -0.148603)
(0.00704044 0.110982 0.0236652)
(0.00195477 0.617164 -0.00701189)
(0.0131444 0.710779 -0.00758254)
(0.0136763 0.73961 0.00789045)
(0.00887667 0.768698 0.0102374)
(0.00125069 0.775498 0.0120039)
(-0.00582993 0.771113 0.0109683)
(-0.0159809 0.776911 0.0103836)
(-0.0183199 0.792058 0.0107596)
(-0.0221539 0.772469 0.0111849)
(-0.023186 0.768057 0.0119497)
(-0.0213501 0.755158 0.0134472)
(-0.018373 0.747552 0.014854)
(-0.0153626 0.739789 0.0158877)
(-0.0113511 0.742347 0.0165758)
(-0.00550675 0.724515 0.0174342)
(0.000191396 0.71574 0.0175249)
(0.0050918 0.706834 0.0175134)
(0.0107069 0.706248 0.0173699)
(0.0145476 0.698708 0.0174862)
(0.0206588 0.691823 0.0176354)
(0.0248535 0.668328 0.0179167)
(0.0292158 0.669017 0.0185748)
(0.0324127 0.666539 0.0201986)
(0.0353739 0.664182 0.0231244)
(0.0367318 0.658438 0.0253823)
(0.0374772 0.653121 0.0283722)
(0.0368936 0.638866 0.0299163)
(0.0345892 0.630535 0.0299377)
(0.0329437 0.604466 0.0279991)
(0.0290445 0.615648 0.0238794)
(0.020852 0.574116 0.0149623)
(0.0146931 0.519103 0.00900075)
(0.00659658 0.402835 0.00201868)
(-0.00978873 0.539898 -0.0189594)
(-0.0286387 0.528198 -0.0465644)
(-0.0414507 0.462458 -0.0323535)
(-0.00125634 0.00357524 -0.00764583)
(0.0217267 0.0364284 0.00463708)
(0.00326422 -0.00284472 0.000859063)
(0.00438452 0.0188286 0.00692003)
(0.009539 -0.00414465 0.0054291)
(0.0117748 0.00513734 0.000363641)
(0.0138027 -0.00192729 -0.00176638)
(0.0129482 0.00348014 -0.00248244)
(0.0112244 -0.00126381 -0.00262465)
(0.00345701 -0.00304323 -0.00439525)
(-0.00214657 -0.00527657 -0.00538293)
(-0.00351044 -0.00389745 -0.00439825)
(-0.00394748 -0.00287985 -0.00289797)
(-0.00435858 -0.00134856 -0.00156682)
(-0.00486816 -0.000450217 -0.000750308)
(-0.00519653 0.000569185 -0.000249904)
(-0.00549213 0.00107735 -6.0463e-06)
(-0.00559684 0.00158314 0.00013426)
(-0.00561888 0.00176888 0.000218882)
(-0.00555177 0.00198906 0.000306438)
(-0.00548891 0.00207104 0.000391958)
(-0.00540776 0.00218916 0.000482191)
(-0.00532133 0.00224144 0.000566599)
(-0.00523991 0.00230247 0.000656712)
(-0.00516256 0.00233888 0.000745901)
(-0.00508793 0.00237418 0.000836509)
(-0.00501667 0.00240095 0.000924802)
(-0.00494892 0.00242478 0.00101062)
(-0.00488651 0.00244634 0.00109314)
(-0.0048275 0.00246774 0.00117246)
(-0.00477288 0.00249039 0.00124751)
(-0.00472016 0.00250886 0.00131824)
(-0.00467646 0.00253397 0.0013831)
(-0.00462799 0.00254721 0.00144204)
(-0.00459541 0.00258252 0.00149366)
(-0.00456112 0.00258009 0.00153719)
(-0.00455497 0.00263222 0.00157405)
(-0.00453937 0.00262292 0.00161211)
(-0.00452918 0.00271136 0.00164344)
(-0.00450364 0.0026798 0.00169255)
(-0.00450783 0.00292405 0.00171524)
(-0.00447322 0.00271691 0.00180857)
(-0.00459126 0.00358899 0.00175206)
(-0.00448575 0.00286293 0.00190114)
(-0.00489149 0.00496641 0.00159312)
(-0.00444611 0.00310356 0.00176162)
(-0.00497282 0.00682914 0.00105626)
(-0.00358 0.00135617 0.00147081)
(-0.00318521 0.00743418 0.00153221)
(-0.0011938 -0.00639357 0.0029061)
(0.00164059 0.00429749 0.00663629)
(0.00632781 -0.0133729 0.0102659)
(0.00117765 0.00243451 0.0091553)
(0.00453744 -0.0137514 0.00615409)
(-0.0181869 0.0393027 0.017274)
(-0.0385319 -0.0434146 0.0408171)
(-0.041022 -0.0309462 0.0612979)
(0.0199797 -0.112664 0.0705137)
(-0.030316 -0.0615865 -0.16849)
(-0.0481504 0.0604731 0.00841041)
(-0.117048 0.573908 -0.0241943)
(-0.0355142 0.614879 -0.00752389)
(-0.0296378 0.650319 0.00260463)
(-0.00926776 0.635449 0.00913511)
(-0.0106185 0.726686 0.0105239)
(-0.0126014 0.700363 0.0119193)
(-0.0162226 0.71363 0.0119945)
(-0.0197675 0.703514 0.0124553)
(-0.0225214 0.676545 0.0139768)
(-0.0227159 0.54833 0.0152407)
(-0.0210428 0.524714 0.0165074)
(-0.0176651 0.641215 0.0177755)
(-0.0143433 0.646229 0.0186432)