/*--------------------------------*- C++ -*----------------------------------*\
| =========                 |                                                 |
| \\      /  F ield         | OpenFOAM: The Open Source CFD Toolbox           |
|  \\    /   O peration     | Version:  2.3.0                                 |
|   \\  /    A nd           | Web:      www.OpenFOAM.org                      |
|    \\/     M anipulation  |                                                 |
\*---------------------------------------------------------------------------*/
FoamFile
{
    version     2.0;
    format      ascii;
    class       volVectorField;
    location    "11";
    object      U.airMean;
}
// * * * * * * * * * * * * * * * * * * * * * * * * * * * * * * * * * * * * * //

dimensions      [0 1 -1 0 0 0 0];

internalField   nonuniform List<vector> 
6144
(
(0.0066815 0.0208456 -0.000572541)
(0.00651847 0.00773076 -0.000785634)
(0.00426517 0.00586751 -0.00168657)
(0.00431093 0.00380822 -0.00190005)
(0.00358527 0.00282418 -0.00198768)
(0.00370969 0.0026737 -0.00203778)
(0.00348069 0.00224993 -0.00215308)
(0.00360944 0.00231515 -0.00219647)
(0.00352557 0.00210513 -0.00227572)
(0.00363683 0.00211603 -0.0023103)
(0.00360905 0.00191652 -0.00237841)
(0.00369293 0.00182388 -0.00240051)
(0.00367922 0.00157871 -0.00246479)
(0.00372541 0.00143791 -0.00249399)
(0.00371557 0.00122298 -0.00255035)
(0.00373386 0.00110106 -0.00257744)
(0.00372848 0.000948316 -0.00261828)
(0.00373271 0.000864314 -0.00263937)
(0.00372954 0.000768167 -0.00266532)
(0.00372945 0.00071431 -0.00268)
(0.00372714 0.000658454 -0.0026956)
(0.00372594 0.000624468 -0.00270532)
(0.00372413 0.000592711 -0.00271437)
(0.00372265 0.000570845 -0.00272068)
(0.00372111 0.000552359 -0.00272596)
(0.00371962 0.00053711 -0.00272986)
(0.00371817 0.000525986 -0.00273303)
(0.0037166 0.000510914 -0.00273501)
(0.00371658 0.000510427 -0.00273674)
(0.00371319 0.000472781 -0.00273679)
(0.00371638 0.000512797 -0.00273786)
(0.00370976 0.000398168 -0.00273611)
(0.00371952 0.000542399 -0.00273589)
(0.00370698 0.000259272 -0.00273256)
(0.00372648 0.000602062 -0.0027293)
(0.00370591 2.52406e-05 -0.00272434)
(0.00373625 0.00068162 -0.00271658)
(0.00370739 -0.000326307 -0.00271129)
(0.00374087 0.000759813 -0.00269984)
(0.00371234 -0.000785403 -0.00270276)
(0.00372137 0.000854326 -0.00270443)
(0.00369823 -0.00124059 -0.00273678)
(0.00366667 0.00119742 -0.00279082)
(0.00364742 -0.00139042 -0.00286249)
(0.00362032 0.00226158 -0.00294249)
(0.00368804 -0.000913733 -0.00299979)
(0.00377034 0.00420872 -0.00322302)
(0.00324095 0.000540865 -0.0036551)
(0.00168468 0.00989558 -0.00399517)
(0.00119746 0.00715443 -0.00360267)
(0.000923895 0.0184846 -0.00316687)
(0.00550947 0.00927747 -0.00327592)
(0.0138318 0.0140118 -0.00431243)
(0.0170013 -0.0239225 -0.00453899)
(0.0190207 -0.00997749 -0.00835919)
(0.0187709 -0.0570789 -0.00575389)
(0.0135114 -0.00658755 -0.0193428)
(0.0186753 -0.0696784 0.0183659)
(-0.0202955 0.0529513 -0.0424428)
(0.0274548 0.0933107 0.0385388)
(0.104113 0.330507 0.0396009)
(0.0483822 0.404359 0.000428633)
(0.0498073 -0.0588309 0.0100507)
(0.045476 -0.12613 0.00697451)
(0.0361846 -0.13991 0.00477207)
(0.0288073 -0.121602 0.00428162)
(0.0221508 -0.126023 0.00308411)
(0.0176347 -0.110608 0.00324748)
(0.0149874 -0.111461 0.00403266)
(0.0127534 -0.0985329 0.00501849)
(0.0106593 -0.0983458 0.00568974)
(0.00816446 -0.0885447 0.00603233)
(0.0057377 -0.0836659 0.00629356)
(0.00211883 -0.0725283 0.00606112)
(-0.00252387 -0.0619848 0.00589707)
(-0.00462879 -0.0482515 0.00496217)
(-0.00343609 -0.0385619 0.00263487)
(-0.00221362 -0.0311329 0.00213207)
(-0.00206163 -0.0261187 0.00215319)
(0.00116485 -0.0214151 0.000846204)
(0.00483799 -0.0195882 -0.000473293)
(0.00624747 -0.0181419 -0.00113211)
(0.00690534 -0.01612 -0.000697243)
(0.00711041 -0.0146699 -0.0010448)
(0.0066568 -0.0117678 -0.00253361)
(0.00613895 -0.00820133 -0.00284202)
(0.00568847 -0.0040382 -0.00340684)
(0.00482919 0.00105498 -0.00342666)
(0.00288334 0.00674878 -0.004155)
(0.000941088 0.0168903 -0.00420967)
(0.00248117 0.0259893 -0.0044481)
(0.00368376 0.0327229 -0.00371323)
(0.00296444 0.0377653 0.00118775)
(0.00239791 0.0373369 0.00739962)
(0.00220701 0.0325723 0.0112073)
(0.00277789 0.0241871 0.0142026)
(0.0137922 0.0220991 0.00305711)
(0.0145174 0.0104356 0.00278684)
(0.00915922 0.00791057 0.00103608)
(0.00958302 0.0059735 0.000760618)
(0.00744252 0.00454862 0.000517099)
(0.00784816 0.00441229 0.000416494)
(0.00717058 0.00366277 0.000257266)
(0.00750648 0.0037039 0.000220247)
(0.00723974 0.00326077 7.6258e-05)
(0.00754249 0.00322463 7.47475e-05)
(0.00743581 0.00286681 -2.48531e-05)
(0.00768623 0.00270392 -2.8207e-06)
(0.00762083 0.00233543 -9.55928e-05)
(0.00775485 0.00212818 -0.000108446)
(0.00769886 0.0018237 -0.000196817)
(0.00774857 0.00165562 -0.000221683)
(0.00770908 0.00144517 -0.000286003)
(0.00771793 0.00133112 -0.000307847)
(0.00769326 0.0012004 -0.000346407)
(0.00768829 0.00112681 -0.000361231)
(0.00767267 0.0010506 -0.00038117)
(0.00766468 0.00100355 -0.000389114)
(0.00765411 0.000959494 -0.000397204)
(0.00764617 0.000928859 -0.000400034)
(0.00763827 0.000902694 -0.00040142)
(0.00763139 0.000881487 -0.000400327)
(0.00762513 0.00086506 -0.000398015)
(0.00761922 0.000846273 -0.000393855)
(0.00761625 0.000840599 -0.000388533)
(0.00760808 0.000801047 -0.000381615)
(0.00761373 0.000838462 -0.000373786)
(0.00759697 0.000713797 -0.000364617)
(0.0076208 0.000868979 -0.000352067)
(0.00758768 0.00055042 -0.000341489)
(0.00764021 0.000936348 -0.000320663)
(0.00758396 0.000272682 -0.000307962)
(0.00767009 0.00103151 -0.00027817)
(0.00758583 -0.000156181 -0.000265122)
(0.00769385 0.00113494 -0.000232666)
(0.0075799 -0.000747649 -0.000240893)
(0.00764005 0.00125098 -0.000251657)
(0.00747758 -0.00137036 -0.000340854)
(0.00738433 0.0016221 -0.000491218)
(0.00711171 -0.00156805 -0.000738867)
(0.00685162 0.00302753 -0.00104738)
(0.00653263 -0.000443354 -0.00135625)
(0.00598983 0.00655932 -0.00176217)
(0.00452036 0.00358408 -0.00209194)
(0.00335656 0.0127475 -0.00181271)
(0.00360418 0.00507645 -0.00108303)
(0.00598714 0.0118312 0.000865644)
(0.0125138 -0.0132287 0.0018034)
(0.031219 -0.0116784 0.00412833)
(0.0403026 -0.0553309 0.00735444)
(0.0362392 -0.0408334 0.00650143)
(0.0410747 -0.0988558 0.00934288)
(0.0187145 -0.0526164 0.00414838)
(0.0124109 -0.160963 0.0339913)
(-0.0717388 0.04916 -0.0914693)
(0.0193023 0.0423721 0.0220502)
(0.11355 0.349019 0.0826564)
(0.0230833 0.434454 0.000771272)
(0.020923 -0.0325016 0.0053761)
(0.0202911 0.00540935 0.00897858)
(0.0103837 -0.0196866 0.00896372)
(0.00348034 0.00324271 0.00603794)
(-0.00140694 -0.00315482 0.00515327)
(-0.000517856 0.0132755 0.00687262)
(0.00146395 0.0129259 0.00963242)
(0.0017239 0.0244087 0.00681374)
(0.000972113 0.0216233 0.00700491)
(-0.00103651 0.0269776 0.00828241)
(-0.00309421 0.0236592 0.00663368)
(-0.00459733 0.0259325 0.00340214)
(-0.00419424 0.0234989 0.0015769)
(0.000409572 0.0234258 0.000812083)
(0.00555225 0.0192736 -0.000342963)
(0.00882993 0.0171918 0.000941823)
(0.0107753 0.012843 0.00191168)
(0.0129103 0.0101739 0.00248623)
(0.0136633 0.0076486 0.00147497)
(0.014312 0.00793953 0.00139928)
(0.0141153 0.00669637 0.00234921)
(0.0122612 0.00450321 0.00233709)
(0.00930175 0.00314263 0.00181005)
(0.00658064 0.00194082 0.00230197)
(0.00481168 0.00183442 0.00240106)
(0.00261 0.00242294 0.00218429)
(0.00087927 0.00395563 0.00174986)
(-0.000745016 0.00658101 0.000845211)
(-0.000242949 0.0109815 -0.00111124)
(0.00242902 0.0177131 -0.0047292)
(0.00370328 0.0285418 -0.00135648)
(0.00233588 0.0316422 0.00870476)
(0.000253458 0.0288073 0.015193)
(9.89898e-05 0.0229344 0.0190253)
(0.016093 0.0205348 0.00463265)
(0.0179466 0.0109905 0.00460235)
(0.0105354 0.00776391 0.00252332)
(0.0117388 0.00707824 0.00240313)
(0.00847924 0.00491811 0.00229393)
(0.00921712 0.00507869 0.00225198)
(0.00802451 0.00397831 0.00215769)
(0.008558 0.00406603 0.00219191)
(0.00804032 0.00341896 0.00202837)
(0.00847486 0.00342626 0.00207645)
(0.00825197 0.00295583 0.00198803)
(0.00861028 0.00284633 0.00205492)
(0.00848945 0.00239187 0.00198599)
(0.00867686 0.00220608 0.00200127)
(0.00857321 0.00185342 0.00193311)
(0.0086378 0.00169617 0.00192784)
(0.00856263 0.00146647 0.00188094)
(0.00856898 0.00136008 0.00187595)
(0.00852021 0.00122331 0.001853)
(0.00850546 0.00115544 0.00185375)
(0.00847278 0.00107875 0.00184811)
(0.00845309 0.00103539 0.00185465)
(0.00842895 0.000992786 0.00185993)
(0.00840917 0.000964857 0.00187065)
(0.00838927 0.000940431 0.00188227)
(0.00837113 0.000921665 0.00189618)
(0.00835383 0.000906452 0.00191094)
(0.00833746 0.000889473 0.00192696)
(0.00832358 0.00088419 0.00194393)
(0.00830662 0.000849874 0.00196163)
(0.00830343 0.000882926 0.00198039)
(0.00827591 0.000770417 0.00199928)
(0.00829682 0.00091467 0.00202165)
(0.00824805 0.000616551 0.00204044)
(0.00830934 0.000984127 0.00206979)
(0.0082295 0.000348666 0.0020879)
(0.00834071 0.00108055 0.00212587)
(0.0082216 -8.00643e-05 0.00214269)
(0.00837683 0.00117679 0.00218184)
(0.00820591 -0.000699543 0.00217648)
(0.00832871 0.00126731 0.00216565)
(0.00807335 -0.00142833 0.00206004)
(0.00798531 0.00154421 0.00188373)
(0.00753686 -0.0018758 0.0015919)
(0.00715753 0.0026481 0.00120321)
(0.00661343 -0.00115585 0.000809357)
(0.00610143 0.00537648 0.000412532)
(0.00536115 0.000890446 -0.000135443)
(0.00559616 0.00848584 -0.000253545)
(0.0089124 -0.00439911 0.000848628)
(0.0173978 -0.00140143 0.00388779)
(0.0305747 -0.0317686 0.00318954)
(0.0471195 -0.0272434 0.00816227)
(0.054062 -0.0653614 0.0114149)
(0.0518454 -0.0410435 0.0158915)
(0.0629133 -0.104753 0.0190188)
(0.0315222 -0.0392828 0.0247803)
(0.0445666 -0.185528 0.0651238)
(-0.0759538 0.0870595 -0.0784374)
(0.0462793 0.0186134 -0.000388061)
(0.157217 0.376531 0.106768)
(0.0673236 0.459675 0.0247441)
(0.0581396 -0.0127573 0.0221846)
(0.0414214 0.0638323 0.00579115)
(0.0243795 0.0148874 0.0127286)
(0.0150893 0.0402162 0.0145144)
(0.00718082 0.0246471 0.0156019)
(0.000233568 0.0387614 0.0124495)
(0.0011027 0.0418491 0.0109689)
(0.00339343 0.0561684 0.00862493)
(0.0028994 0.0548284 0.00593679)
(0.000224356 0.0616936 0.0038245)
(-0.000475045 0.0580653 0.00263133)
(8.77175e-05 0.0584797 0.00238075)
(0.00284629 0.0531948 0.00232704)
(0.00713416 0.0491478 0.00314133)
(0.0101795 0.0426396 0.00371319)
(0.0114486 0.0368527 0.00494202)
(0.0107824 0.0299801 0.00523075)
(0.00996245 0.0239384 0.00466301)
(0.0100637 0.0202689 0.00349051)
(0.0103053 0.0186273 0.00311965)
(0.0107415 0.0171435 0.00517803)
(0.00945579 0.0141975 0.00729541)
(0.00572909 0.0101014 0.00821602)
(0.00203836 0.00655078 0.00895035)
(-0.00019338 0.00501573 0.00834195)
(-0.00251594 0.00429845 0.00731464)
(-0.00491291 0.00410119 0.00648574)
(-0.00666209 0.00539843 0.00509566)
(-0.00658805 0.0077259 0.00380918)
(-0.00499307 0.011937 0.00180332)
(-0.00362352 0.0180298 0.00278866)
(-0.00324715 0.0227291 0.00780437)
(-0.00523936 0.0232485 0.0152225)
(-0.00755252 0.0194209 0.0200645)
(0.0161396 0.0187715 0.00512231)
(0.020101 0.0112386 0.00529338)
(0.0100769 0.00702562 0.00270004)
(0.0128915 0.0080963 0.00241023)
(0.00842527 0.00495961 0.00254978)
(0.00979672 0.00597664 0.00249141)
(0.0079485 0.00424771 0.00267876)
(0.00874971 0.00465923 0.00276292)
(0.0078799 0.00367818 0.00269941)
(0.0084178 0.0038603 0.00280591)
(0.00799226 0.00319498 0.00277494)
(0.00844352 0.00318337 0.00290087)
(0.0082249 0.00258948 0.00289034)
(0.00844456 0.00245138 0.00293707)
(0.00826974 0.00200852 0.00289998)
(0.00833592 0.00187829 0.00291198)
(0.00821078 0.00160303 0.00288622)
(0.00820748 0.00151079 0.00289454)
(0.00812662 0.00135483 0.00288592)
(0.0080987 0.00129411 0.0028976)
(0.00804506 0.00121065 0.00290225)
(0.00801234 0.00117031 0.00291748)
(0.00797342 0.00112608 0.00293027)
(0.00794172 0.00109979 0.00294783)
(0.00791013 0.00107526 0.00296521)
(0.00788131 0.00105774 0.00298411)
(0.00785399 0.00104295 0.0030033)
(0.00782802 0.00102845 0.00302306)
(0.00780475 0.00102211 0.00304323)
(0.00778053 0.000993593 0.00306362)
(0.0077701 0.00102116 0.00308441)
(0.00773557 0.000922783 0.00310561)
(0.00775471 0.00105413 0.00312896)
(0.00769654 0.000779772 0.00315034)
(0.00776829 0.00112801 0.00317846)
(0.00767326 0.000522924 0.00319957)
(0.00781523 0.00123206 0.00323497)
(0.00767257 9.87603e-05 0.00325518)
(0.00788231 0.00133789 0.00328961)
(0.00767722 -0.000530456 0.00329034)
(0.00788594 0.00144221 0.00326828)
(0.0075535 -0.00132797 0.00316012)
(0.00754389 0.00164268 0.00295455)
(0.00691308 -0.00209594 0.00266993)
(0.00641751 0.00227508 0.00237519)
(0.00572682 -0.00218681 0.00205654)
(0.00542984 0.00389069 0.00171934)
(0.00523848 -0.00202831 0.00127365)
(0.00873439 0.00376055 0.00233108)
(0.0146863 -0.0123885 0.00471038)
(0.0263492 -0.0127041 0.00824457)
(0.0422477 -0.0395418 0.0103388)
(0.0541465 -0.0265584 0.0213902)
(0.0578468 -0.0567608 0.02977)
(0.0518926 -0.012767 0.044945)
(0.0613575 -0.086418 0.0485733)
(0.0289849 0.0367488 0.0875826)
(0.0648947 -0.209116 0.119183)
(-0.102456 0.225087 -0.0642652)
(0.0438345 -0.0447845 0.0317403)
(0.131941 0.449736 0.115809)
(0.0421651 0.563902 0.0184902)
(0.0260769 0.368296 0.0141482)
(0.00249617 0.418514 0.00110754)
(-0.00125189 0.360831 0.0120768)
(-0.0132085 0.351895 0.00579347)
(-0.0142155 0.311249 0.00666292)
(-0.0153651 0.289195 0.00511725)
(-0.0118744 0.270379 0.00396104)
(-0.00770797 0.268024 0.00324056)
(-0.00411692 0.25429 0.00361716)
(-0.00119817 0.247549 0.00336799)
(0.00175599 0.229011 0.0030618)
(0.00435194 0.215112 0.0022506)
(0.00791102 0.200532 0.00211514)
(0.0105465 0.185249 0.00208608)
(0.0131347 0.167597 0.00222585)
(0.0134116 0.140668 0.00308028)
(0.0127645 0.103871 0.00318587)
(0.0111664 0.0658006 0.00233754)
(0.00902744 0.0472224 0.000905551)
(0.00826314 0.0406765 0.000546926)
(0.00899301 0.0373402 0.00281169)
(0.00795958 0.0332641 0.00451328)
(0.00309884 0.0282258 0.00588618)
(-0.00327701 0.0208288 0.00813242)
(-0.00670162 0.0170518 0.00812913)
(-0.0092198 0.0140204 0.00713323)
(-0.0117473 0.0118972 0.00562269)
(-0.0133055 0.0116661 0.0042423)
(-0.0132373 0.012599 0.00307602)
(-0.0121581 0.0152631 0.00227857)
(-0.0112123 0.0189108 0.00467137)
(-0.0110796 0.0205255 0.0093605)
(-0.0138962 0.0206142 0.0143076)
(-0.017027 0.0181043 0.018389)
(0.0146338 0.0170948 0.00553385)
(0.0215646 0.0119953 0.00577522)
(0.00850534 0.00606934 0.00216275)
(0.0136054 0.0094102 0.00175382)
(0.00777963 0.00459715 0.00176437)
(0.0099195 0.00663955 0.00176864)
(0.00721991 0.00386083 0.00219632)
(0.00828132 0.00479705 0.00240911)
(0.00684331 0.00333284 0.00257342)
(0.0074645 0.00388663 0.00287263)
(0.00676912 0.00308174 0.00298892)
(0.00725352 0.00330988 0.00326626)
(0.00688234 0.00262013 0.00334409)
(0.00709404 0.00259096 0.00346891)
(0.00681327 0.00208114 0.00345988)
(0.00685453 0.0020081 0.0035018)
(0.00666579 0.00169579 0.00348627)
(0.00663771 0.00163367 0.00350724)
(0.00651781 0.0014607 0.00350509)
(0.00646836 0.00141373 0.00352357)
(0.00639033 0.00132474 0.003532)
(0.00633996 0.00128993 0.00355124)
(0.00628358 0.0012449 0.00356674)
(0.00623694 0.00122058 0.00358699)
(0.00619154 0.00119662 0.00360626)
(0.00615011 0.00118033 0.00362708)
(0.00611113 0.00116645 0.00364749)
(0.00607495 0.00115398 0.00366794)
(0.00604166 0.00114645 0.00368823)
(0.00600927 0.00112295 0.00370711)
(0.00599048 0.00114505 0.00372499)
(0.00595172 0.00106051 0.00374182)
(0.0059649 0.00117701 0.00376044)
(0.00590333 0.000930174 0.00377419)
(0.00597747 0.00125394 0.00379518)
(0.00587981 0.000691705 0.00380535)
(0.00604374 0.00136946 0.00383081)
(0.00589554 0.000298203 0.00383316)
(0.00616023 0.00151805 0.00385304)
(0.00594981 -0.000260318 0.00382466)
(0.00627248 0.00173319 0.00377849)
(0.00595432 -0.000946543 0.00364191)
(0.00616109 0.0020095 0.00342345)
(0.00553245 -0.00195988 0.00313492)
(0.00512263 0.00208852 0.00290502)
(0.00427245 -0.00304697 0.00278107)
(0.00405615 0.00232096 0.00271451)
(0.00505459 -0.0045998 0.00277696)
(0.0103515 -0.000865223 0.0048809)
(0.0188862 -0.0167552 0.0079794)
(0.032567 -0.0151089 0.0118154)
(0.0467874 -0.0326529 0.0167352)
(0.0528722 -0.0126621 0.0275589)
(0.0499085 -0.0384582 0.0357296)
(0.0395151 0.0101255 0.060129)
(0.0376646 -0.0551475 0.0653865)
(0.0309856 0.0930395 0.105985)
(0.048693 -0.142069 0.114793)
(-0.0431654 0.366914 -0.0190639)
(0.0389685 -0.0847993 0.0410059)
(0.111746 0.489031 0.133004)
(0.0325678 0.598684 0.0242876)
(0.0229815 0.517848 0.0192056)
(0.00720184 0.577818 0.00368524)
(0.0068303 0.561083 0.0106611)
(-0.00415704 0.579341 0.00934418)
(-0.00492873 0.569971 0.00910906)
(-0.00656907 0.57535 0.00667125)
(-0.00387605 0.562164 0.00508614)
(-0.00054741 0.553896 0.00425176)
(0.00355741 0.533792 0.00415333)
(0.00605856 0.521134 0.00343435)
(0.00961474 0.505344 0.0030234)
(0.0120293 0.487502 0.00234088)
(0.0152109 0.461946 0.00200965)
(0.0162691 0.422961 0.0014836)
(0.0176436 0.389673 0.00134892)
(0.0169187 0.353735 0.00126628)
(0.0158213 0.314428 0.0016984)
(0.0141468 0.280815 0.00125335)
(0.0124924 0.259643 0.000695258)
(0.0113375 0.220644 0.00140426)
(0.011701 0.153183 0.00175038)
(0.00925837 0.0912092 0.00227561)
(0.00528036 0.0464973 0.00241377)
(-0.00193344 0.038377 0.00145207)
(-0.00632708 0.0318305 0.00157458)
(-0.00889802 0.0272396 0.000558066)
(-0.011731 0.0227023 -0.000478635)
(-0.0143192 0.0204137 -0.000805857)
(-0.0158646 0.0196727 -0.000796416)
(-0.0163622 0.0203432 7.57498e-05)
(-0.0164238 0.0223038 0.00324061)
(-0.016345 0.0220904 0.00753712)
(-0.020939 0.0216755 0.0124939)
(-0.0272688 0.0174712 0.0159459)
(0.0120936 0.0154566 0.00535422)
(0.0222108 0.0138292 0.00643159)
(0.00678315 0.00535103 0.00144615)
(0.0140227 0.0113267 0.0013619)
(0.0076782 0.00422884 0.00067465)
(0.0104985 0.00761183 0.000916942)
(0.00691295 0.00324749 0.00125896)
(0.00782877 0.00477326 0.00158665)
(0.00578576 0.00242337 0.00192583)
(0.00619964 0.00343065 0.00247022)
(0.00513653 0.00244393 0.00285937)
(0.00562209 0.00307018 0.00340964)
(0.00515365 0.00234091 0.003672)
(0.00534044 0.00253105 0.00393422)
(0.00497808 0.00198898 0.00400465)
(0.00498795 0.00203083 0.00410423)
(0.00475421 0.00170128 0.00412227)
(0.00470951 0.00169479 0.00416591)
(0.00457116 0.00151444 0.00417773)
(0.00451537 0.00149635 0.00420324)
(0.00443401 0.00140904 0.00421405)
(0.0043849 0.00138686 0.00423198)
(0.00433203 0.00134561 0.00424217)
(0.00428982 0.0013273 0.00425484)
(0.00425027 0.00130726 0.00426479)
(0.00421511 0.00129481 0.0042749)
(0.00418316 0.00128432 0.00428404)
(0.00415467 0.00127565 0.00429287)
(0.00412874 0.00127102 0.00430035)
(0.00410452 0.00125525 0.00430708)
(0.00409256 0.00127583 0.00431337)
(0.00406644 0.00120884 0.00431568)
(0.00408672 0.00131478 0.00432276)
(0.00404287 0.00110318 0.00432143)
(0.00412634 0.00140735 0.00432883)
(0.00405384 0.00090643 0.00432433)
(0.00423182 0.00156158 0.00433364)
(0.00410995 0.000595814 0.00431762)
(0.00439339 0.00181308 0.00430735)
(0.00419842 0.000202704 0.0042388)
(0.00454956 0.00223577 0.00413724)
(0.00426071 -0.000263038 0.0039358)
(0.0046754 0.00265292 0.00372326)
(0.00417265 -0.00152071 0.0034974)
(0.00393107 0.00201288 0.00341038)
(0.00298202 -0.00385911 0.00347233)
(0.00324624 0.00109379 0.00371987)
(0.00497326 -0.00747424 0.00448077)
(0.0115839 -0.00291559 0.00741827)
(0.0195624 -0.0160979 0.0109115)
(0.0327674 -0.00851002 0.0156854)
(0.0413445 -0.0157373 0.0211388)
(0.0478714 0.00844718 0.0312229)
(0.0470571 -0.0157562 0.0417891)
(0.029567 0.0190796 0.0626812)
(0.0202151 -0.0584673 0.0660003)
(0.0223598 0.0584216 0.0877002)
(0.0255289 -0.146546 0.07359)
(0.0363964 0.343215 0.0509704)
(0.0259734 -0.0750886 0.0401141)
(0.055723 0.511121 0.133581)
(0.00841393 0.616718 0.0178435)
(0.00410308 0.567761 0.0149247)
(-0.00882584 0.628136 0.00240117)
(-0.0102716 0.622139 0.00980016)
(-0.0143449 0.641177 0.00833003)
(-0.0118566 0.635555 0.00912482)
(-0.00902336 0.642674 0.00790055)
(-0.00383187 0.635529 0.00724862)
(0.00135455 0.632889 0.00651852)
(0.00667588 0.612584 0.00620365)
(0.0105029 0.600824 0.00561793)
(0.0145561 0.595158 0.0054243)
(0.0167474 0.591891 0.00537584)
(0.0191296 0.583492 0.00584009)
(0.0200613 0.582283 0.0057833)
(0.0210487 0.575118 0.00545776)
(0.0210216 0.567987 0.00509038)
(0.0202664 0.557338 0.00483594)
(0.0188544 0.542027 0.00323244)
(0.0167932 0.530996 0.000280945)
(0.0140109 0.513123 -0.00221107)
(0.0112131 0.489963 -0.00351497)
(0.00734355 0.456203 -0.00423265)
(0.00249469 0.406968 -0.00386169)
(-0.00187981 0.34797 -0.00329677)
(-0.00405708 0.273199 -0.00210288)
(-0.0059454 0.184917 -0.00176042)
(-0.00895725 0.114527 -0.00177805)
(-0.0125763 0.0716304 -0.00196562)
(-0.0150985 0.0383678 -0.000990837)
(-0.0174286 0.0284676 0.00141286)
(-0.0195985 0.0252117 0.00572309)
(-0.0211194 0.0220005 0.00925452)
(-0.0258706 0.0204783 0.0115614)
(-0.0317593 0.0170263 0.0113098)
(0.00744968 0.0136632 0.00576225)
(0.0216272 0.016949 0.00726446)
(0.00378685 0.00474189 0.00131299)
(0.013341 0.0136664 0.00244278)
(0.00673277 0.00381263 0.000655906)
(0.0102684 0.00872239 0.00106716)
(0.00628294 0.00292552 0.00114634)
(0.00705288 0.00511641 0.00154624)
(0.00425258 0.00155808 0.00172346)
(0.00424173 0.00282392 0.0022933)
(0.00261478 0.00155292 0.00269793)
(0.00292394 0.00254598 0.00342233)
(0.00215078 0.00178807 0.00380531)
(0.00225635 0.00225188 0.00418582)
(0.00169913 0.00171993 0.00430673)
(0.00163712 0.00192546 0.00445284)
(0.00128673 0.00161275 0.00448631)
(0.00119157 0.00169793 0.0045503)
(0.000983532 0.0015313 0.00456441)
(0.000891903 0.00156256 0.00459561)
(0.000778759 0.0014872 0.00460462)
(0.000710006 0.00148916 0.00462032)
(0.000643767 0.0014578 0.00462506)
(0.000595277 0.00145044 0.00463284)
(0.00055328 0.00143731 0.00463646)
(0.000519586 0.00143054 0.00463984)
(0.000491781 0.00142417 0.0046415)
(0.000470216 0.00141937 0.00464289)
(0.000453846 0.00141825 0.00464396)
(0.000442646 0.00140879 0.00464538)
(0.000440876 0.00143033 0.004648)
(0.00043335 0.00138154 0.00464819)
(0.000462428 0.00148192 0.00465391)
(0.000436254 0.00130913 0.00465096)
(0.000528207 0.00160106 0.00466295)
(0.000473436 0.00116675 0.00465836)
(0.000663574 0.00180793 0.00467929)
(0.000559713 0.000944209 0.004662)
(0.000868876 0.00214941 0.00466126)
(0.000700583 0.00066397 0.00456469)
(0.00116741 0.00266047 0.00446215)
(0.00103277 0.000209217 0.00420171)
(0.00187311 0.00297627 0.00409192)
(0.00172819 -0.00132084 0.00395314)
(0.00185566 0.00177822 0.00414212)
(0.000918451 -0.00409291 0.00438071)
(0.00139963 0.000753029 0.00468648)
(0.00283209 -0.00796099 0.00568904)
(0.00596568 -0.00234309 0.00870899)
(0.0137724 -0.0121411 0.0108521)
(0.0212906 0.00421903 0.0156282)
(0.0267595 0.00631342 0.020499)
(0.0341456 0.0353824 0.0304874)
(0.0334974 0.0197969 0.042105)
(0.0292979 0.0580753 0.0589482)
(0.0168731 -0.0352621 0.0589004)
(0.0141826 0.0696659 0.0635659)
(0.00608876 -0.137895 0.0430874)
(-0.00555295 0.319079 0.0632942)
(0.0131986 -0.0643712 0.0439673)
(0.0151137 0.525795 0.115799)
(-0.0136176 0.623477 0.0135018)
(-0.0143277 0.58752 0.00601122)
(-0.0193411 0.649562 -0.00168042)
(-0.0159133 0.634327 0.00868833)
(-0.013769 0.652222 0.00982381)
(-0.00922034 0.644558 0.0125772)
(-0.00472443 0.6461 0.0115564)
(0.000908264 0.634138 0.0115447)
(0.00559312 0.626395 0.0105485)
(0.0105498 0.615562 0.0105131)
(0.0138929 0.596371 0.00986376)
(0.0176744 0.593959 0.0105676)
(0.0200615 0.590239 0.0103294)
(0.0224819 0.586623 0.0110298)
(0.0236781 0.574624 0.0104387)
(0.0244541 0.559799 0.00981919)
(0.0244079 0.546391 0.00792757)
(0.0244078 0.546372 0.00616121)
(0.0238671 0.549247 0.00412239)
(0.0229808 0.551611 0.00106928)
(0.020431 0.559397 -0.00257443)
(0.017228 0.583537 -0.0063257)
(0.0126383 0.587291 -0.00965861)
(0.00697467 0.582217 -0.0123883)
(0.00110673 0.574769 -0.0139386)
(-0.00347195 0.562088 -0.0126929)
(-0.00748093 0.528107 -0.0104266)
(-0.010659 0.471115 -0.00778871)
(-0.0149947 0.447057 -0.00569936)
(-0.018821 0.433326 -0.00438066)
(-0.0212133 0.418126 -0.00131118)
(-0.0229797 0.390542 0.00210435)
(-0.0257042 0.3367 0.00627604)
(-0.03237 0.234816 0.00881174)
(-0.0408818 0.159498 0.00669894)
(4.13211e-06 0.00865103 0.00433913)
(0.0196677 0.0210828 0.00751464)
(-0.000175033 0.00331991 0.00185168)
(0.0111338 0.016132 0.00419897)
(0.00482093 0.00296981 0.00210841)
(0.0090815 0.00948399 0.00214237)
(0.0050395 0.00250535 0.00202949)
(0.00604037 0.00550644 0.00235605)
(0.00299408 0.000956204 0.00250294)
(0.00227483 0.00229374 0.00298828)
(0.000216337 0.000549191 0.00340554)
(0.000560321 0.00181775 0.0041393)
(-0.000288676 0.000934746 0.00461098)
(-0.000140673 0.00168907 0.00508902)
(-0.00076965 0.00119365 0.00528145)
(-0.000826329 0.00163616 0.0054825)
(-0.0012111 0.00138206 0.00554895)
(-0.00128333 0.00161463 0.00564793)
(-0.00148885 0.00149913 0.00568771)
(-0.00154963 0.00161117 0.00575088)
(-0.00163946 0.00157246 0.00578724)
(-0.00167433 0.0016192 0.00583417)
(-0.00170764 0.00161585 0.00586861)
(-0.00171874 0.00163402 0.00590882)
(-0.00172193 0.00164098 0.00594545)
(-0.0017141 0.00165112 0.0059835)
(-0.00169919 0.00165874 0.00602084)
(-0.00167835 0.00166559 0.00605826)
(-0.00165363 0.00167367 0.0060951)
(-0.00162327 0.00167524 0.00613318)
(-0.00158522 0.0017001 0.00617119)
(-0.00154976 0.00167035 0.00620906)
(-0.00148013 0.00176429 0.00625293)
(-0.00145783 0.00162961 0.00629116)
(-0.00131713 0.00190619 0.00634531)
(-0.00131893 0.00154859 0.00638068)
(-0.00107063 0.00218345 0.0064346)
(-0.00112571 0.00145447 0.0064354)
(-0.000749038 0.00266125 0.00643683)
(-0.000862696 0.00134228 0.00631626)
(-0.000290091 0.00327524 0.00615973)
(-0.000354097 0.000881482 0.00581563)
(0.000621179 0.00337894 0.00562012)
(0.000556031 -0.000920032 0.00546839)
(0.000289583 0.00188297 0.00564973)
(-0.00132373 -0.0045651 0.00590139)
(-0.000526781 -0.00110322 0.00602108)
(0.0012223 -0.0100298 0.00787448)
(0.00487042 -0.00543481 0.0106376)
(0.00618722 -0.0119538 0.0137092)
(0.00613844 0.0165972 0.017766)
(0.00962029 0.0295207 0.0215753)
(0.0189725 0.0661796 0.0305362)
(0.0262747 0.0662182 0.0412322)
(0.03535 0.0982555 0.0591806)
(0.0344364 0.0530235 0.067325)
(0.0473129 0.124143 0.0890724)
(0.0158481 -0.0884534 0.070312)
(0.00781161 0.325412 0.0295737)
(-0.0127284 -0.0551852 0.0306203)
(-0.0514738 0.572361 0.0676004)
(-0.0392229 0.667567 -0.00585707)
(-0.0373793 0.61701 0.000624258)
(-0.0306364 0.668379 -0.00371028)
(-0.0219453 0.65181 0.00659359)
(-0.0135919 0.664798 0.00853436)
(-0.00756896 0.652492 0.0130694)
(0.000172149 0.64589 0.0152616)
(0.00625038 0.637995 0.0182182)
(0.0120276 0.62986 0.0192801)
(0.0162021 0.619252 0.0195644)
(0.0199865 0.614307 0.0188614)
(0.0237588 0.605409 0.0186218)
(0.0277185 0.590019 0.0185222)
(0.031453 0.572593 0.0189167)
(0.0343024 0.564104 0.0187642)
(0.0359741 0.550356 0.0190188)
(0.0364112 0.534266 0.0185149)
(0.0358191 0.516281 0.0177154)
(0.0348824 0.501688 0.0165606)
(0.0331709 0.499312 0.0143373)
(0.0304884 0.497077 0.0113794)
(0.0274098 0.495399 0.00905865)
(0.0239069 0.493166 0.00709682)
(0.0190545 0.491588 0.00548307)
(0.0118193 0.488324 0.00327116)
(0.00485827 0.484175 0.00180111)
(-0.00164454 0.476899 0.00156739)
(-0.0070758 0.463291 0.00293728)
(-0.0112429 0.446475 0.00476459)
(-0.0159148 0.421972 0.00553104)
(-0.0200427 0.412623 0.00499956)
(-0.0263465 0.417543 0.00117941)
(-0.0346216 0.432938 -0.00727551)
(-0.0443114 0.431002 -0.0216102)
(-0.050797 0.414849 -0.0416677)
(-0.0087349 0.0068661 -0.00527385)
(0.0172396 0.0262023 0.00494718)
(-0.0055448 0.00259394 -0.00137172)
(0.00696481 0.0191164 0.00213386)
(0.00136329 0.00255709 0.00103257)
(0.00616478 0.0103002 0.000832943)
(0.00247462 0.00208782 0.000420408)
(0.00394244 0.00588801 0.000336552)
(0.000853357 0.000686228 0.000250774)
(-0.000322446 0.00197979 0.000305173)
(-0.00315238 -0.000239583 0.000463236)
(-0.00303181 0.00130719 0.00114145)
(-0.00421409 0.000424784 0.00165901)
(-0.00425771 0.00143694 0.00216537)
(-0.00501834 0.000999704 0.00242039)
(-0.00512207 0.0015895 0.00264678)
(-0.00555474 0.0013722 0.00274972)
(-0.00564618 0.00167722 0.00286795)
(-0.00586933 0.00157856 0.00293184)
(-0.00593839 0.00172189 0.00301107)
(-0.00603676 0.00169474 0.00306762)
(-0.00608036 0.00175617 0.00313265)
(-0.00612071 0.00176333 0.00318632)
(-0.00614329 0.00178971 0.00324365)
(-0.00615874 0.00180342 0.0032971)
(-0.00616546 0.00181931 0.00335046)
(-0.00616619 0.00183276 0.00340205)
(-0.00616108 0.00184522 0.00345262)
(-0.00615257 0.00185919 0.00350161)
(-0.00613845 0.00186692 0.00355)
(-0.00612196 0.00189193 0.00359601)
(-0.00610263 0.00187378 0.00364328)
(-0.00606254 0.00196103 0.00368908)
(-0.00606266 0.00185538 0.00373553)
(-0.00597317 0.00211789 0.0037806)
(-0.00602683 0.00182631 0.00382346)
(-0.00585493 0.00246098 0.00384965)
(-0.00595414 0.00185725 0.00385587)
(-0.00563432 0.00308315 0.00380782)
(-0.00572508 0.00194644 0.00369239)
(-0.0050499 0.00386025 0.00348827)
(-0.00480166 0.00163968 0.00324211)
(-0.00346523 0.00382369 0.00317823)
(-0.00323086 -0.000582865 0.00338059)
(-0.00268623 0.00131633 0.00334196)
(-0.00275955 -0.00530903 0.00265718)
(-0.000999393 -0.000631333 0.00273544)
(-0.000119047 -0.00460829 0.00284642)
(-0.00348931 0.00948939 0.00448382)
(-0.0136187 0.0110385 0.00988784)
(-0.0235992 0.0330288 0.0175593)
(-0.0207082 0.03842 0.0253565)
(-0.0112779 0.0702602 0.0298708)
(0.00169264 0.0658595 0.0316141)
(0.00916266 0.114361 0.045083)
(0.0211232 0.066513 0.046346)
(0.0543295 0.148539 0.068947)
(0.037298 -0.025264 0.0839303)
(0.0588565 0.354982 0.0358456)
(-0.0388243 -0.0879887 0.0204555)
(-0.10693 0.543315 0.0496512)
(-0.0503182 0.660029 -0.00145384)
(-0.0475676 0.600735 0.00402251)
(-0.0302965 0.651383 0.00221557)
(-0.0232741 0.618635 0.0108901)
(-0.0134142 0.629987 0.0114974)
(-0.00911183 0.614736 0.0151947)
(-0.000693693 0.618303 0.0162433)
(0.00246753 0.610252 0.0168012)
(0.00664526 0.608609 0.0163148)
(0.00836171 0.599436 0.0158913)
(0.0110767 0.597504 0.0149594)
(0.0136315 0.590879 0.0146644)
(0.0186553 0.592709 0.0131753)
(0.0235629 0.590619 0.0119266)
(0.0283925 0.589302 0.0105263)
(0.0310278 0.5827 0.00862066)
(0.0325548 0.581338 0.00784871)
(0.0337471 0.57505 0.00817805)
(0.0343615 0.56868 0.0078797)