/*--------------------------------*- C++ -*----------------------------------*\
| =========                 |                                                 |
| \\      /  F ield         | OpenFOAM: The Open Source CFD Toolbox           |
|  \\    /   O peration     | Version:  2.3.0                                 |
|   \\  /    A nd           | Web:      www.OpenFOAM.org                      |
|    \\/     M anipulation  |                                                 |
\*---------------------------------------------------------------------------*/
FoamFile
{
    version     2.0;
    format      ascii;
    class       volVectorField;
    location    "11";
    object      U.water;
}
// * * * * * * * * * * * * * * * * * * * * * * * * * * * * * * * * * * * * * //

dimensions      [0 1 -1 0 0 0 0];

internalField   nonuniform List<vector> 
6144
(
(0.0082416 0.0193555 0.00116959)
(0.00855293 0.00275128 0.00138357)
(0.00360763 -0.000859927 0.000426166)
(0.00344492 -0.00260752 -0.000130184)
(0.00233159 -0.00432858 1.46939e-05)
(0.00245482 -0.00336409 -7.3363e-05)
(0.00236539 -0.0035234 -0.000559049)
(0.00253426 -0.00238353 -0.000663651)
(0.00263323 -0.00177935 -0.000907473)
(0.00281918 -0.000821069 -0.000979501)
(0.00303372 -0.000324689 -0.00107289)
(0.00322528 3.72883e-05 -0.00107376)
(0.00337572 1.00243e-05 -0.0011863)
(0.00350634 -4.2513e-05 -0.00124675)
(0.00358906 -0.000242147 -0.00138553)
(0.00365716 -0.000361103 -0.0014617)
(0.00370556 -0.000523401 -0.00157674)
(0.00373743 -0.000585909 -0.00163999)
(0.00376729 -0.000680708 -0.0017151)
(0.00378743 -0.00069285 -0.00175841)
(0.00380526 -0.000728338 -0.00180421)
(0.00381961 -0.000717925 -0.00183116)
(0.00383139 -0.00071978 -0.00185706)
(0.00384073 -0.000702874 -0.00187353)
(0.0038483 -0.000689621 -0.00188731)
(0.00385413 -0.000671247 -0.00189671)
(0.00385848 -0.000653524 -0.00190394)
(0.00386151 -0.000634815 -0.00190895)
(0.00386341 -0.00061524 -0.0019123)
(0.00386383 -0.000597458 -0.00191403)
(0.00386429 -0.000573747 -0.0019141)
(0.00386096 -0.000560881 -0.00191284)
(0.00386006 -0.000527236 -0.00190988)
(0.00385253 -0.000530957 -0.00190511)
(0.00385368 -0.000463159 -0.00189681)
(0.00383449 -0.000529735 -0.00188828)
(0.00385224 -0.000345829 -0.00187243)
(0.00380004 -0.00061868 -0.00186226)
(0.00385848 -0.000103361 -0.00182881)
(0.00374574 -0.000885217 -0.001824)
(0.00387392 0.000358534 -0.00174647)
(0.00367451 -0.00144886 -0.0017625)
(0.00388177 0.00109639 -0.00160678)
(0.00360509 -0.00246533 -0.00165346)
(0.00386651 0.00207737 -0.00144053)
(0.00355658 -0.00406659 -0.00145287)
(0.0038592 0.00339039 -0.00135375)
(0.00351602 -0.00621811 -0.00132902)
(0.00403435 0.00569973 -0.00173725)
(0.00370321 -0.00833149 -0.00167209)
(0.00478883 0.00918463 -0.00271113)
(0.00245807 -0.0123527 -0.00206357)
(0.0029265 0.0163868 -0.00304127)
(0.00170863 -0.0124849 -0.00328496)
(0.014449 0.0472367 -0.0050597)
(0.003608 -0.0617236 -0.0145504)
(0.0080002 0.0673495 -0.0146812)
(0.00467917 -0.0547296 -0.0351116)
(-0.0321862 0.114478 -0.0764703)
(0.0511303 -0.0971153 -0.13506)
(0.132514 -0.253217 -0.0201147)
(0.0867883 -0.0961897 -0.00668827)
(0.038921 -0.169637 -0.00241121)
(0.0365228 -0.177405 0.00160604)
(0.0298981 -0.177518 0.00361276)
(0.0206756 -0.181895 0.00469096)
(0.0135323 -0.184602 0.00500326)
(0.00899659 -0.184308 0.00455174)
(0.00579112 -0.180565 0.0035174)
(0.00302526 -0.174277 0.00235623)
(0.000554282 -0.166156 0.00120786)
(-0.00148081 -0.156659 0.000286646)
(-0.00253655 -0.146158 -0.000531769)
(-0.00204654 -0.135504 -0.00120579)
(-0.00138826 -0.125754 -0.00198222)
(-0.000545208 -0.116798 -0.00262936)
(-0.000178158 -0.109035 -0.00325447)
(0.000102541 -0.103142 -0.0039115)
(0.00130364 -0.099405 -0.00399362)
(0.00265385 -0.0967084 -0.00482397)
(0.00395802 -0.0944105 -0.00446457)
(0.00413873 -0.0921884 -0.00507509)
(0.00450327 -0.0892672 -0.00417344)
(0.00315032 -0.0871016 -0.00422538)
(0.00251692 -0.0829324 -0.00366816)
(0.000351922 -0.0791918 -0.00283156)
(-0.00260105 -0.0717137 -0.00393786)
(-0.00438343 -0.0599485 -0.00193454)
(-0.0109106 -0.0452304 -0.00689549)
(-0.00900378 -0.0157339 -0.0032889)
(-0.00199363 0.00326173 -0.00170262)
(0.00293386 0.0138863 -0.00907223)
(0.00537393 0.0190828 -0.0100745)
(0.00893606 0.019999 -0.00642656)
(0.0128126 0.0139173 -0.00512661)
(0.0143398 0.0053425 -0.00472438)
(0.0142782 0.0205136 0.00394562)
(0.0167864 0.0104076 0.00504712)
(0.00801458 0.00569026 0.00420008)
(0.00893748 0.00376978 0.0039614)
(0.00521067 0.000348249 0.00426799)
(0.00533569 0.000264628 0.0036346)
(0.00470306 -0.00096929 0.00328765)
(0.00477054 -0.000260169 0.00284962)
(0.00477026 -0.000264937 0.00242469)
(0.0050552 0.000583993 0.00221361)
(0.00547094 0.000878666 0.00213961)
(0.00599333 0.00113534 0.00223585)
(0.00636222 0.000921271 0.00214927)
(0.00669306 0.000747606 0.00210024)
(0.00686234 0.000402669 0.00192714)
(0.00701699 0.000207672 0.00182845)
(0.00709212 -3.95445e-05 0.00168005)
(0.00716473 -0.000143377 0.00160257)
(0.00720583 -0.000278953 0.00150474)
(0.00724957 -0.000312101 0.00145793)
(0.00727647 -0.000367469 0.00140336)
(0.00730683 -0.000366392 0.00138068)
(0.00732725 -0.000377782 0.00135646)
(0.00734739 -0.000364424 0.00134822)
(0.0073622 -0.00035453 0.00134246)
(0.00737494 -0.000337406 0.00134342)
(0.00738406 -0.000320415 0.00134707)
(0.0073905 -0.000301567 0.00135378)
(0.00739439 -0.000281758 0.00136261)
(0.00739537 -0.000262978 0.00137359)
(0.00739547 -0.000240372 0.00138649)
(0.00738975 -0.000226593 0.00140161)
(0.00738768 -0.00019068 0.00141843)
(0.00737326 -0.00019487 0.00143886)
(0.00737322 -0.000129194 0.00146314)
(0.00733702 -0.000193291 0.00148686)
(0.00736583 -2.15741e-05 0.00152616)
(0.00726143 -0.000291929 0.0015448)
(0.00737886 0.000209104 0.00161832)
(0.00712672 -0.00059396 0.00161245)
(0.00742621 0.000669298 0.00177736)
(0.0069317 -0.00126309 0.00170595)
(0.00750518 0.00144908 0.00205594)
(0.00667817 -0.00249034 0.00183366)
(0.0075663 0.00251714 0.00238758)
(0.00636516 -0.00446366 0.00203714)
(0.00754283 0.00385021 0.00245733)
(0.0059101 -0.00693768 0.00197255)
(0.00765238 0.006496 0.00137571)
(0.00550906 -0.00819661 0.000734539)
(0.00926761 0.0124076 -0.00023455)
(0.00545696 -0.0104831 -0.000180377)
(0.00215708 0.0197412 0.00115128)
(-0.00303726 -0.0188824 0.00372608)
(0.0298979 0.0300905 0.00155804)
(0.0343651 -0.05561 0.000238662)
(-0.032378 0.0218139 -0.00067866)
(-0.0199239 -0.0150659 -0.0138783)
(0.0133711 0.160407 0.000227284)
(0.1881 -0.124387 -0.081013)
(0.187177 -0.228117 -0.0131565)
(0.0624927 0.0880264 0.00707837)
(-0.0369935 -0.122747 0.0105276)
(-0.0147356 -0.0827503 0.0123396)
(-0.0158384 -0.105493 0.0127714)
(-0.0229715 -0.127889 0.0131933)
(-0.0250459 -0.137553 0.0123166)
(-0.0246844 -0.14207 0.0102369)
(-0.0234637 -0.143053 0.00755225)
(-0.0214961 -0.141422 0.00517611)
(-0.0198657 -0.13695 0.00311576)
(-0.0180763 -0.130973 0.00191099)
(-0.01642 -0.122105 0.000865236)
(-0.0142517 -0.113194 -0.000434753)
(-0.0116761 -0.105688 -0.00195356)
(-0.00766939 -0.0992523 -0.00332295)
(-0.00091552 -0.0915066 -0.00411187)
(0.00383251 -0.0835725 -0.00422057)
(0.00506705 -0.073887 -0.00500008)
(0.00508152 -0.0654763 -0.00547471)
(0.00484169 -0.0586092 -0.00495593)
(0.00483579 -0.0526085 -0.00430119)
(0.00464628 -0.0486954 -0.00242814)
(0.00380017 -0.0473721 -0.00171176)
(0.0017699 -0.0456814 -5.36927e-05)
(-0.00184289 -0.0463478 0.000419433)
(-0.00678181 -0.0456057 -0.000268493)
(-0.0121717 -0.0415336 -4.29574e-07)
(-0.0191904 -0.0348847 -0.00611326)
(-0.0206819 -0.0176221 -0.0040863)
(-0.0111373 -0.00138193 0.000269798)
(-0.00349301 0.0107847 -0.00191981)
(0.00199296 0.0178483 -0.00403354)
(0.0068063 0.0199242 0.00127837)
(0.0140822 0.0142156 0.00445476)
(0.0169345 0.00710265 0.00644429)
(0.0155505 0.0166583 0.00415905)
(0.0198694 0.012111 0.0052782)
(0.00876534 0.00694769 0.0041409)
(0.0110838 0.00785965 0.00425559)
(0.00592203 0.00359586 0.00535972)
(0.0062483 0.00393821 0.00511083)
(0.00472022 0.00168039 0.00539377)
(0.00457673 0.00176746 0.00507794)
(0.00420502 0.00106256 0.00453404)
(0.0044193 0.00158868 0.00424248)
(0.00479406 0.00163383 0.00420959)
(0.00552121 0.0018392 0.00436182)
(0.00596941 0.00143996 0.00445029)
(0.00642559 0.00119133 0.00446757)
(0.00659598 0.000727949 0.00442474)
(0.00679247 0.000493662 0.00437835)
(0.00684369 0.000194396 0.00432334)
(0.00693119 7.40244e-05 0.00429198)
(0.00695212 -8.18025e-05 0.00426324)
(0.00699711 -0.000121605 0.00425706)
(0.00701068 -0.000186498 0.00425164)
(0.00703751 -0.000190034 0.00426314)
(0.00704825 -0.00020651 0.0042729)
(0.00706239 -0.000195302 0.00429281)
(0.00706867 -0.000188911 0.00431303)
(0.0070734 -0.000173599 0.0043373)
(0.00707315 -0.000158682 0.00436188)
(0.00706958 -0.000141258 0.00438766)
(0.00706274 -0.000123113 0.00441367)
(0.00705284 -0.000105047 0.00444048)
(0.00704065 -8.37286e-05 0.00446842)
(0.00702358 -7.05662e-05 0.00449656)
(0.00700886 -3.88081e-05 0.00452521)
(0.00698266 -3.88093e-05 0.00455405)
(0.0069691 1.56868e-05 0.00458294)
(0.00692285 -2.81406e-05 0.0046118)
(0.00693357 0.000102718 0.00464764)
(0.00681686 -0.000100707 0.00466235)
(0.00693114 0.000301541 0.00472259)
(0.00662851 -0.000362881 0.00469466)
(0.00699429 0.000724736 0.00483139)
(0.00635573 -0.000982816 0.00470608)
(0.0071484 0.00146617 0.00500027)
(0.0059723 -0.00218227 0.00466931)
(0.00735209 0.00259825 0.00515917)
(0.0054448 -0.0040891 0.00456205)
(0.00743295 0.00411507 0.00476275)
(0.00452578 -0.00603858 0.00424927)
(0.00704291 0.00712294 0.00232942)
(0.00357724 -0.00460008 0.00303676)
(0.00760361 0.0147468 0.000411494)
(0.0047219 -0.00221985 0.00290493)
(0.00342086 0.0279544 0.00438624)
(-0.000856043 -0.0236101 0.00804746)
(0.0415502 0.0158785 0.00110516)
(0.0514485 -0.0613237 0.00282509)
(-0.0727819 0.0547216 0.0171675)
(-0.0719075 -0.109903 -0.0145333)
(-0.0483601 0.192149 -0.0235478)
(0.186067 -0.149748 -0.0570713)
(0.209603 -0.195534 -0.0102377)
(0.0806939 0.14675 0.0100931)
(0.0711245 -0.137089 0.0173867)
(0.038853 -0.074038 0.0214064)
(0.0128038 -0.0961005 0.0204649)
(-0.000835151 -0.110685 0.0176165)
(-0.00951885 -0.112952 0.0140802)
(-0.0148097 -0.112897 0.00979328)
(-0.0178073 -0.111152 0.00599927)
(-0.0197508 -0.106245 0.0016806)
(-0.0216643 -0.100529 -0.00176508)
(-0.0216991 -0.0941798 -0.00368752)
(-0.0151336 -0.0856026 -0.00501885)
(-0.0101598 -0.0751104 -0.00830341)
(-0.00818275 -0.0613267 -0.0102241)
(-0.00813653 -0.0459091 -0.0149816)
(-0.00766334 -0.0150293 -0.0157747)
(-0.0049736 0.00481452 -0.0120957)
(0.00108394 0.0170489 -0.00710885)
(0.00625935 0.0213781 -0.00319149)
(0.00973312 0.0198431 9.20166e-05)
(0.0112176 0.0148183 0.00273019)
(0.0108987 0.00763893 0.00466437)
(0.00893417 0.000574539 0.00578598)
(0.00581703 -0.00586612 0.006511)
(0.000886969 -0.0117501 0.00550704)
(-0.00612779 -0.0155427 0.00465343)
(-0.0131543 -0.0169322 0.00364102)
(-0.0228795 -0.0155325 -0.0051278)
(-0.0272164 -0.0053737 -0.00670235)
(-0.0162672 0.00296969 -0.00119901)
(-0.00687215 0.00989268 -0.00184368)
(-0.00141835 0.0163244 -0.00052149)
(0.00187979 0.0170275 0.00638329)
(0.00764531 0.0130378 0.0122922)
(0.0126656 0.00610109 0.0139611)
(0.0139536 0.0121042 0.0027547)
(0.0227082 0.0107608 0.00299501)
(0.00769851 0.00450017 0.00115967)
(0.0130088 0.00879143 0.000790517)
(0.00613067 0.00340923 0.00257314)
(0.00747622 0.00560385 0.00276427)
(0.0048931 0.00256627 0.00443649)
(0.00485022 0.00306162 0.00438997)
(0.00391207 0.00195057 0.00427167)
(0.00381634 0.00260683 0.00411876)
(0.00384348 0.00253473 0.00416345)
(0.00461117 0.00279032 0.00450813)
(0.00507977 0.00225412 0.00477918)
(0.00553405 0.00196582 0.00490194)
(0.00566768 0.00136628 0.00493665)
(0.00583698 0.00108566 0.00493794)
(0.00584998 0.000712045 0.00492596)
(0.00592182 0.000568062 0.00492135)
(0.00591898 0.000376925 0.0049205)
(0.00595708 0.000325039 0.00493333)
(0.0059587 0.000241478 0.0049471)
(0.00598326 0.000228795 0.0049712)
(0.00598884 0.000201174 0.0049924)
(0.00600174 0.000206217 0.00502119)
(0.00600586 0.000204376 0.00504946)
(0.00600879 0.000214306 0.00507984)
(0.00600722 0.00022384 0.00510746)
(0.00600251 0.000237028 0.00513419)
(0.00599431 0.000251027 0.00516001)
(0.00598253 0.000265427 0.0051865)
(0.00596735 0.00028245 0.00521327)
(0.00594695 0.000294555 0.0052387)
(0.00592708 0.00031864 0.00526328)
(0.00590082 0.000320536 0.00528449)
(0.00588361 0.000362166 0.00530413)
(0.0058434 0.000334644 0.00532064)
(0.00584278 0.000421773 0.00533465)
(0.00574933 0.000291857 0.00533481)
(0.00583509 0.000568837 0.00535878)
(0.00556775 8.02568e-05 0.00531011)
(0.00592275 0.000913675 0.00539858)
(0.00529978 -0.000485622 0.0052311)
(0.00615435 0.00153358 0.00547202)
(0.00490089 -0.00163193 0.00504932)
(0.00656356 0.00247654 0.00551475)
(0.00419163 -0.00334243 0.00470296)
(0.00679266 0.00386214 0.00487444)
(0.00275755 -0.00450915 0.00401266)
(0.00526069 0.00680545 0.001666)
(0.00132163 -0.00223007 0.00331428)
(0.00522228 0.01347 0.00156283)
(0.0048924 -0.00214349 0.00652632)
(0.00458297 0.0215693 0.00524449)
(0.00637203 -0.0243675 0.00140942)
(0.0347391 0.0256557 -0.000888605)
(0.0205404 -0.012347 0.00820461)
(-0.0275401 0.12161 0.0198989)
(-0.0929058 -0.155119 -0.00655203)
(-0.0710516 0.271685 -0.0807801)
(0.217265 -0.184132 -0.0403935)
(0.240703 -0.173715 -0.00871945)
(0.0873488 0.121338 0.00298694)
(0.10502 -0.0664103 0.0136601)
(-0.0248328 0.0433381 0.026491)
(-0.0315422 -0.0607002 0.0301092)
(-0.031432 -0.059479 0.0220528)
(-0.0333784 -0.0717195 0.0147003)
(-0.0349097 -0.075966 0.00452914)
(-0.0279958 -0.0733893 -0.00166836)
(-0.016438 -0.0633225 -0.00827549)
(-0.0144385 -0.048402 -0.0134879)
(-0.0189455 -0.0325599 -0.0194415)
(-0.0214382 0.00469166 -0.0206023)
(-0.0204946 0.0388395 -0.0212633)
(-0.0169909 0.0607464 -0.0134387)
(-0.011804 0.0722259 -0.00837627)
(-0.00284337 0.0783624 -0.00288829)
(0.00602059 0.0764586 0.000791142)
(0.0119574 0.072076 0.00342416)
(0.0151284 0.0645217 0.00540658)
(0.0157562 0.0568697 0.00628144)
(0.0147172 0.047586 0.00689978)
(0.0124018 0.0386689 0.00684834)
(0.00877274 0.0295898 0.00656527)
(0.00418648 0.0216104 0.00589326)
(-0.00194166 0.0148645 0.00445096)
(-0.0101504 0.00976745 0.00215142)
(-0.0213885 0.00759506 -0.00316521)
(-0.0296884 0.00764246 -0.00908535)
(-0.0249943 0.0101599 -0.0063733)
(-0.0123194 0.00800089 -0.00227635)
(-0.00541065 0.0127423 -0.00177349)
(-0.00249901 0.0169358 0.00166254)
(-0.00235832 0.0164678 0.00827127)
(-0.00052346 0.0123976 0.0137172)
(0.00344371 0.00483533 0.014609)
(0.0128872 0.00955751 0.00286304)
(0.0256504 0.0127367 0.000834122)
(0.00796094 0.00233459 -0.00355441)
(0.01715 0.0108897 -0.00430882)
(0.00792993 0.00190986 -0.00312835)
(0.00977308 0.00589427 -0.001825)
(0.00544979 0.000622164 0.000651309)
(0.00522615 0.00208574 0.00121028)
(0.00294806 0.00033716 0.00215024)
(0.00259672 0.00174486 0.00247222)
(0.00232452 0.00200635 0.00303288)
(0.00293372 0.00278443 0.00382213)
(0.0032582 0.00239985 0.00445167)
(0.00356006 0.00224305 0.00481389)
(0.00355425 0.00167524 0.00495786)
(0.00359302 0.00143459 0.00503563)
(0.00351523 0.0010544 0.00505584)
(0.00351285 0.00091521 0.00506642)
(0.00346398 0.000713394 0.00506761)
(0.00346544 0.000659539 0.00507513)
(0.00344613 0.000567703 0.00508213)
(0.00345257 0.000549721 0.00509525)
(0.00344732 0.000513662 0.0051068)
(0.00345345 0.000509251 0.00512479)
(0.00345391 0.000498976 0.00513492)
(0.00345404 0.000503925 0.00514334)
(0.00345194 0.00050968 0.00515041)
(0.00344808 0.000518399 0.00515717)
(0.00344147 0.000526648 0.00516223)
(0.00343133 0.000533897 0.00516367)
(0.00341839 0.000542961 0.00515857)
(0.00340285 0.000548349 0.00514939)
(0.00338572 0.000564333 0.00513706)
(0.00336523 0.000564561 0.00512145)
(0.00334869 0.000598144 0.00510484)
(0.00331825 0.000577798 0.00508267)
(0.00331239 0.000643412 0.00505891)
(0.0032545 0.000558751 0.00502137)
(0.00330845 0.000749338 0.00499551)
(0.00312696 0.000390692 0.00491711)
(0.00343911 0.00102314 0.00494722)
(0.00292897 -0.000120882 0.00474759)
(0.00378675 0.00155622 0.00493485)
(0.00261881 -0.00113413 0.00445977)
(0.00431436 0.00238686 0.00484898)
(0.001982 -0.00235808 0.00397111)
(0.00412843 0.0037189 0.00384339)
(0.000532853 -0.00200959 0.00303027)
(0.00172741 0.00712013 0.000476339)
(-0.000670441 0.00109325 0.00323782)
(0.00209205 0.0126638 0.00232189)
(0.00327095 -0.00158375 0.00688034)
(0.0107917 0.0229231 0.00699029)
(-0.00288345 -0.0331857 0.00148444)
(0.0353773 0.0371517 0.0290731)
(0.0253392 -0.0751814 0.0144695)
(0.0177954 0.0593136 0.063181)
(-0.119306 -0.149701 0.0287519)
(-0.0336769 0.214759 -0.164492)
(0.156911 -0.261507 -0.00431672)
(0.224714 -0.107399 -0.0068231)
(0.0781935 0.112083 -0.00272624)
(0.0801343 0.0192036 0.011395)
(0.00369848 0.0518419 0.0150711)
(0.0196656 -0.0170708 0.0138489)
(-0.0096042 -0.0198851 0.00407017)
(-0.0180556 -0.0270802 -0.00574163)
(-0.0180483 -0.0180821 -0.0132615)
(-0.0205805 0.00397478 -0.0231976)
(-0.0250473 0.0557186 -0.025623)
(-0.028682 0.0856522 -0.0206205)
(-0.0283871 0.108662 -0.0150966)
(-0.0231791 0.124174 -0.0097488)
(-0.01449 0.129241 -0.0047075)
(-0.00737607 0.132565 0.00020191)
(-0.000912912 0.130899 0.00378878)
(0.00422659 0.128519 0.00620545)
(0.00830448 0.123021 0.00748561)
(0.0115424 0.117674 0.00748036)
(0.0137885 0.109581 0.00677272)
(0.0152275 0.101545 0.00520685)
(0.0153336 0.0912419 0.00329547)
(0.014197 0.0815973 0.00103505)
(0.0111985 0.0706217 -0.00128682)
(0.00684379 0.0603381 -0.00384415)
(0.00126171 0.0506856 -0.00629929)
(-0.00514722 0.0422954 -0.00848279)
(-0.011686 0.0343349 -0.0106349)
(-0.0148848 0.0263363 -0.0109532)
(-0.00935268 0.0197139 -0.00716966)
(-0.00505711 0.0166631 -0.00451914)
(-0.00331761 0.0178726 -0.00185577)
(-0.00422468 0.0190423 0.00247513)
(-0.00679145 0.0169699 0.00783048)
(-0.00735158 0.0127348 0.0115035)
(-0.00362742 0.00462472 0.010021)
(0.0118892 0.00898712 0.000603082)
(0.0269611 0.0183164 0.00110697)
(0.0120124 0.00272971 -0.00705263)
(0.0216994 0.0137389 -0.00573442)
(0.015145 0.00177621 -0.00812406)
(0.0166336 0.00759142 -0.00517095)
(0.0103188 -0.000158763 -0.00396257)
(0.0078762 0.00143227 -0.00262802)
(0.00429196 -0.002671 -0.00148795)
(0.00253691 -0.000885433 -0.000778946)
(0.00111076 -0.000439917 0.000527149)
(0.00168409 0.00132756 0.0021222)
(0.00204542 0.00148961 0.0033316)
(0.00224863 0.00178552 0.0040686)
(0.00212509 0.00146505 0.00442848)
(0.00203534 0.00142965 0.00463223)
(0.00188632 0.00114812 0.00471767)
(0.00181192 0.00109192 0.00475687)
(0.0017373 0.000925053 0.00475972)
(0.0017142 0.000901283 0.00475016)
(0.00170164 0.000825255 0.00473117)
(0.00171343 0.000819437 0.00470824)
(0.00172521 0.000788742 0.00467379)
(0.00174305 0.000789557 0.00463814)
(0.00176078 0.000785129 0.00459926)
(0.00178133 0.000791368 0.00456178)
(0.00180258 0.00079622 0.0045223)
(0.00182383 0.000803238 0.00448155)
(0.0018447 0.000809403 0.00443873)
(0.0018642 0.000815086 0.00439271)
(0.00187965 0.000821903 0.00434277)
(0.00189162 0.000825312 0.00428985)
(0.00189918 0.000840793 0.00423327)
(0.00190765 0.000842541 0.00417481)
(0.00191598 0.00087482 0.0041168)
(0.001919 0.000864507 0.00405908)
(0.0019376 0.000931044 0.0040071)
(0.00193686 0.00089153 0.00396285)
(0.00199878 0.00103461 0.00392644)
(0.00193668 0.000812197 0.00388625)
(0.00219747 0.00127705 0.00389732)
(0.00189638 0.000445091 0.00379346)
(0.00260753 0.00179917 0.0039306)
(0.0017956 -0.000248812 0.00364386)
(0.00307485 0.00270574 0.00385819)
(0.00134691 -0.000783591 0.00328179)
(0.00234736 0.0043625 0.00271348)
(-0.000127549 4.9188e-05 0.00230436)
(-0.00010818 0.00732601 0.000161503)
(-0.000878859 0.000313932 0.00361854)
(0.00249743 0.00928408 0.00282059)
(0.00347681 -0.0109276 0.00712862)
(0.0229367 0.00967209 0.00712108)
(0.000498521 -0.0298042 0.0218834)
(0.0331111 0.0115234 0.0501175)
(0.000135494 -0.0259194 0.0412361)
(0.00281808 0.0662984 0.104144)
(-0.118064 -0.123203 0.0805161)
(0.0395766 0.0617931 -0.169959)
(0.0810166 -0.272276 0.0020218)
(0.189388 -0.052865 -0.0112321)
(0.0805565 0.122557 -0.00725635)
(0.0822946 0.0901208 0.00186919)
(0.0222847 0.0997904 -0.000658317)
(0.00955429 0.095787 -0.00803684)
(-0.0127374 0.0992966 -0.0117812)
(-0.0188317 0.11984 -0.0158151)
(-0.0287779 0.135235 -0.0153886)
(-0.031109 0.157498 -0.0141772)
(-0.0283561 0.168824 -0.0079025)
(-0.0246322 0.178616 -0.00359792)
(-0.0205517 0.184029 0.00129505)
(-0.0159068 0.187355 0.00471271)
(-0.0115822 0.186915 0.00784225)
(-0.00667567 0.186491 0.0102056)
(-0.00253761 0.183011 0.0119754)
(0.00300938 0.180244 0.0130579)
(0.00742945 0.174537 0.0137996)
(0.0126337 0.169418 0.0140328)
(0.0169685 0.161084 0.0137806)
(0.0210865 0.152974 0.0129608)
(0.0239963 0.141933 0.0119004)
(0.0255897 0.130823 0.0103152)
(0.0249001 0.11703 0.00804804)
(0.0229345 0.102196 0.00521445)
(0.0192827 0.0863869 0.00244579)
(0.0145948 0.0720438 0.000194715)
(0.00949243 0.0569869 -0.00183279)
(0.0059618 0.043434 -0.00228196)
(0.00442911 0.0319166 -0.0017804)
(0.00347728 0.0244246 -0.00089379)
(0.00171597 0.019622 0.000995924)
(-0.00164325 0.0174954 0.00444657)
(-0.00659805 0.01462 0.0079784)
(-0.0098075 0.00871092 0.0104684)
(-0.00568414 0.00157555 0.00701956)
(0.0104542 0.0105764 -0.000163062)
(0.0252821 0.025099 0.00370735)
(0.0139599 0.00190704 -0.00583761)
(0.0235571 0.015304 2.48828e-05)
(0.0194796 -0.000253812 -0.00687215)
(0.0202011 0.00727564 -0.00509721)
(0.0154655 -0.000106184 -0.00479837)
(0.0120424 0.00269682 -0.00305659)
(0.00695313 -0.00388352 -0.00306671)
(0.00275914 -0.00301765 -0.00249624)
(0.000271131 -0.00298743 -0.001756)
(-0.000207104 -0.000848244 9.38901e-05)
(-0.00016849 -0.000211074 0.0016493)
(-0.000168178 0.000643983 0.00270299)
(-0.000522457 0.000668864 0.00321918)
(-0.000738881 0.000958523 0.00352095)
(-0.00101062 0.000885166 0.00365456)
(-0.00114027 0.0010191 0.00374153)
(-0.00126627 0.000968729 0.00376327)
(-0.00130549 0.00105278 0.00376318)
(-0.0013292 0.00103601 0.00373433)
(-0.00131638 0.00108698 0.00370044)
(-0.00129164 0.00108648 0.0036534)
(-0.00124946 0.00110856 0.00360944)
(-0.00120302 0.00111511 0.00355949)
(-0.00115077 0.00112855 0.00351163)
(-0.00109751 0.00113944 0.00346165)
(-0.00104336 0.00115348 0.00341176)
(-0.000990202 0.00116862 0.00336248)
(-0.000938393 0.00118506 0.00331581)
(-0.00088919 0.00120303 0.00327038)
(-0.000840921 0.00121839 0.00322579)
(-0.000797148 0.00124057 0.00317916)
(-0.000748954 0.00124849 0.00313472)
(-0.00071109 0.00128205 0.0030881)
(-0.000676097 0.00127741 0.00304857)
(-0.000641923 0.00133728 0.00301603)
(-0.000612972 0.00131195 0.0030152)
(-0.00054926 0.00142255 0.00303472)
(-0.000545023 0.0012861 0.00307749)
(-0.000366633 0.00164107 0.00312319)
(-0.000511764 0.001071 0.00316764)
(-3.82602e-05 0.00219091 0.00326481)
(-0.000530889 0.00071225 0.00323863)
(0.000168975 0.00323835 0.00329628)
(-0.000845641 0.000619079 0.00307708)
(-0.000758879 0.00489441 0.00236077)
(-0.00190706 0.00063807 0.00239752)
(-0.00256746 0.00672432 0.000935695)
(-0.00144815 -0.00229397 0.00400326)
(0.00339631 0.00460127 0.00488026)
(0.00245849 -0.0169402 0.00905679)
(0.0159566 -0.00349016 0.00738964)
(0.00689788 -0.0187155 0.00943113)
(-0.013397 -0.0119959 0.0426579)
(-0.0466806 -0.0329159 0.0674734)
(0.0171851 -0.00213033 0.101533)
(-0.0572142 -0.114091 0.0824404)
(0.0425241 -0.116677 -0.165467)
(0.0455475 -0.289608 0.00660083)
(0.102435 0.0403989 -0.0104046)
(0.048267 0.189112 -0.00778084)
(0.0426759 0.207746 0.00758837)
(0.0161728 0.218195 0.00362677)
(0.00618268 0.227133 0.00283053)
(-0.010753 0.230449 -0.00130709)
(-0.0171842 0.240189 -0.000461499)
(-0.0238333 0.240927 -1.7798e-05)
(-0.0252796 0.247031 0.00191542)
(-0.0259101 0.247459 0.00473321)
(-0.0239679 0.248979 0.00716159)
(-0.021686 0.246649 0.00953607)
(-0.0181043 0.243682 0.0111349)
(-0.0147509 0.237819 0.0128281)
(-0.0102512 0.232588 0.0140361)
(-0.005866 0.226415 0.0154334)
(-0.000308265 0.219178 0.0160684)
(0.00523666 0.210019 0.0168861)
(0.011314 0.203258 0.0169334)
(0.017137 0.194562 0.0169922)
(0.0228605 0.187209 0.0169187)
(0.0276558 0.178951 0.0169895)
(0.0309224 0.171109 0.0168316)
(0.0326593 0.162074 0.0169348)
(0.0335709 0.150955 0.0167172)
(0.0325237 0.137757 0.0161896)
(0.0297283 0.121278 0.0147118)
(0.0259814 0.104147 0.0123163)
(0.0218697 0.086362 0.00947376)
(0.0175327 0.0676455 0.00632582)
(0.0114167 0.0510487 0.00335731)
(0.00530952 0.0359427 0.0026083)
(-0.00529301 0.0226993 0.00155693)
(-0.0125033 0.0158913 0.00276202)
(-0.0177226 0.00725497 0.00297512)
(-0.0186148 -0.000188974 0.00112913)
(0.00181811 0.0100436 -0.000902058)
(0.0237485 0.0302111 0.00844382)
(0.0101222 -0.00425503 0.000619692)
(0.0171013 0.0136159 0.00862003)
(0.0179076 -0.00609389 0.00108778)
(0.0191213 0.00474697 -0.00282495)
(0.0164175 -0.00189381 -0.00351259)
(0.0136815 0.00269777 -0.00223859)
(0.0102082 -0.00320593 -0.00228211)
(0.00310003 -0.00394035 -0.0023612)
(-0.000636339 -0.00482743 -0.00170197)
(-0.000912309 -0.00302757 -0.000180487)
(-0.000588164 -0.00222597 0.00149136)
(-0.000390574 -0.00100152 0.00279421)
(-0.000691851 -0.000472945 0.00347194)
(-0.000938243 0.000274539 0.00385904)
(-0.00124935 0.000550791 0.00400222)
(-0.00140848 0.000956501 0.00408088)
(-0.00157075 0.00109097 0.00408442)
(-0.00162548 0.00130146 0.00408884)
(-0.00166101 0.00136633 0.00407873)
(-0.00164013 0.00148178 0.00408319)
(-0.00160785 0.00152849 0.00408279)
(-0.00155422 0.00158691 0.00409606)
(-0.00149518 0.00162112 0.00410886)
(-0.00142762 0.00165322 0.00412834)
(-0.00135704 0.00167448 0.00415037)
(-0.00128235 0.00169092 0.0041767)
(-0.00120465 0.00170292 0.0042057)
(-0.00112506 0.00171314 0.00423714)
(-0.00104632 0.0017236 0.00427033)
(-0.000965714 0.0017315 0.00430627)
(-0.000888275 0.00174518 0.00434214)
(-0.000802492 0.00174817 0.00438186)
(-0.00072632 0.00177167 0.00441957)
(-0.00064604 0.0017603 0.0044607)
(-0.000562811 0.00180442 0.00450423)
(-0.000475255 0.00178732 0.00456107)
(-0.000366841 0.00188526 0.00462536)
(-0.000294315 0.0018375 0.00470383)
(-0.000139322 0.0021205 0.00477215)
(-0.00014053 0.00182195 0.00487438)
(0.000132744 0.00275526 0.00491058)
(-4.7657e-05 0.00178666 0.00500056)
(0.000151618 0.00400006 0.00483101)
(-0.000268267 0.00185358 0.00482326)
(-0.000727411 0.00572009 0.00397281)
(-0.000885799 0.000585127 0.00408634)
(-0.00166667 0.0062393 0.00305226)
(0.000409712 -0.00566832 0.0054523)
(0.00586147 0.00211493 0.00838871)
(0.0081725 -0.016976 0.012909)
(0.0126983 -0.00762861 0.0112723)
(0.0182985 -0.0200201 0.00813877)
(-0.0192199 -0.0033991 0.0285675)
(-0.0588417 -0.051988 0.0463499)
(-0.0240728 -0.043862 0.0779454)
(0.0121787 -0.0890763 0.080705)
(0.0159089 -0.144518 -0.151017)
(0.00768498 -0.277731 0.00588207)
(0.00547467 0.0642033 0.000512423)
(0.0106594 0.22356 -0.00803693)
(0.013579 0.253784 0.00873454)
(0.00851511 0.274551 0.0090234)
(-4.27088e-05 0.280659 0.0120352)
(-0.0103667 0.282646 0.00972982)
(-0.0150944 0.283541 0.00943954)
(-0.0199766 0.282469 0.00975807)
(-0.0227041 0.279323 0.011119)
(-0.0225536 0.275051 0.0119629)
(-0.0208688 0.270548 0.0137261)
(-0.0181464 0.263311 0.0147911)
(-0.0146427 0.255581 0.016067)
(-0.0103066 0.245696 0.0165754)
(-0.00532715 0.23541 0.0170869)
(-6.52734e-05 0.22473 0.0170256)
(0.00518371 0.214142 0.0168029)
(0.0102492 0.203408 0.016282)
(0.0150783 0.194867 0.0159154)
(0.0201116 0.186246 0.0155103)
(0.0246758 0.180329 0.0156155)
(0.0290477 0.174704 0.0159816)
(0.032438 0.169902 0.01695)
(0.0350133 0.165601 0.0189623)
(0.0369249 0.16094 0.0215637)
(0.0377258 0.155744 0.0247371)
(0.0378625 0.147282 0.0278831)
(0.0365137 0.137207 0.0292993)
(0.0347534 0.124772 0.0284999)
(0.0323652 0.108707 0.0257731)
(0.0275237 0.0954639 0.0210278)
(0.0204081 0.0783055 0.0150642)
(0.0120056 0.0628903 0.00975069)
(0.00118145 0.0419152 -0.00131772)
(-0.0130775 0.0173308 -0.0349333)
(-0.033241 0.0049941 -0.0871271)
(-0.00125324 0.00332996 -0.00764434)
(0.0217261 0.0359491 0.00463672)
(0.00326578 -0.00330058 0.00086005)
(0.00438603 0.0183683 0.00692009)
(0.00954011 -0.00462032 0.00542947)
(0.0117759 0.0046408 0.000364172)
(0.0138036 -0.00243333 -0.00176607)
(0.0129489 0.0029755 -0.00248201)
(0.0112251 -0.00176952 -0.00262448)
(0.00345766 -0.00356775 -0.00439522)
(-0.00214602 -0.00582538 -0.00538294)
(-0.00350999 -0.00445884 -0.00439821)
(-0.00394711 -0.00344387 -0.0028979)
(-0.00435826 -0.00191272 -0.00156673)
(-0.00486787 -0.00101441 -0.000750216)
(-0.00519625 4.9583e-06 -0.00024981)
(-0.00549185 0.000513057 -5.95178e-06)
(-0.00559655 0.00101878 0.00013436)
(-0.00561858 0.00120446 0.000218997)
(-0.00555146 0.00142459 0.000306558)
(-0.00548859 0.00150653 0.000392079)
(-0.00540743 0.0016246 0.000482313)
(-0.005321 0.00167683 0.000566719)
(-0.00523958 0.00173782 0.000656831)
(-0.00516222 0.00177419 0.000746015)
(-0.00508759 0.00180945 0.000836621)
(-0.00501633 0.00183618 0.00092491)
(-0.00494858 0.00185996 0.00101072)
(-0.00488616 0.00188148 0.00109324)
(-0.00482715 0.00190283 0.00117255)
(-0.00477253 0.00192544 0.00124761)
(-0.00471981 0.00194386 0.00131833)
(-0.0046761 0.00196892 0.00138319)
(-0.00462763 0.0019821 0.00144212)
(-0.00459505 0.00201735 0.00149374)
(-0.00456076 0.00201486 0.00153727)
(-0.00455461 0.00206691 0.00157412)
(-0.00453902 0.00205752 0.00161218)
(-0.00452884 0.0021459 0.0016435)
(-0.00450331 0.00211427 0.00169261)
(-0.00450752 0.00235841 0.0017153)
(-0.0044729 0.00215126 0.00180862)
(-0.004591 0.00302315 0.00175211)
(-0.00448546 0.00229717 0.00190118)
(-0.00489132 0.00440041 0.00159318)
(-0.00444588 0.00253782 0.00176166)
(-0.00497274 0.00626291 0.00105634)
(-0.00357984 0.000789808 0.00147088)
(-0.00318514 0.00686207 0.00153231)
(-0.00119368 -0.00698766 0.00290626)
(0.00164088 0.00365132 0.00663646)
(0.00632779 -0.0141141 0.0102663)
(0.00117927 0.00141069 0.00915585)
(0.0045326 -0.0152979 0.00615609)
(-0.0181804 0.0369611 0.017273)
(-0.0385151 -0.0467292 0.0408037)
(-0.0408879 -0.0352357 0.0612463)
(0.019989 -0.116163 0.0704267)
(-0.0298268 -0.0845967 -0.171437)
(-0.0320103 -0.269147 -0.00804776)
(-0.103543 0.0226829 -0.0242744)
(-0.0334391 0.194111 -0.00971268)
(-0.0227159 0.209586 0.00717243)
(-0.0115833 0.226908 0.00780237)
(-0.00974487 0.230572 0.0100689)
(-0.0120371 0.230318 0.0119946)
(-0.0175207 0.226847 0.0119025)