/*--------------------------------*- C++ -*----------------------------------*\
| =========                 |                                                 |
| \\      /  F ield         | OpenFOAM: The Open Source CFD Toolbox           |
|  \\    /   O peration     | Version:  2.3.0                                 |
|   \\  /    A nd           | Web:      www.OpenFOAM.org                      |
|    \\/     M anipulation  |                                                 |
\*---------------------------------------------------------------------------*/
FoamFile
{
    version     2.0;
    format      ascii;
    class       volVectorField;
    location    "11";
    object      U.water;
}
// * * * * * * * * * * * * * * * * * * * * * * * * * * * * * * * * * * * * * //

dimensions      [0 1 -1 0 0 0 0];

internalField   nonuniform List<vector> 
6144
(
(0.00765922 0.0175489 0.00120816)
(0.00829873 0.00179259 0.00147398)
(0.00309136 -0.00168896 0.00120067)
(0.00329151 -0.00317182 0.000618025)
(0.00180245 -0.00531656 0.00118209)
(0.00202771 -0.00415825 0.000907548)
(0.00187623 -0.00455116 0.000273035)
(0.0020996 -0.00334588 2.12356e-05)
(0.00211331 -0.00279578 -0.000411306)
(0.00232959 -0.00157315 -0.000572547)
(0.00253311 -0.000819071 -0.000661441)
(0.00275593 -0.000245911 -0.00061197)
(0.00295127 -0.0001895 -0.000687166)
(0.00310268 -0.000216689 -0.00073254)
(0.00321138 -0.000427025 -0.000869647)
(0.00328611 -0.000571455 -0.000959032)
(0.00334527 -0.000753725 -0.00107939)
(0.00338456 -0.000830889 -0.00115516)
(0.00341438 -0.000928391 -0.00123637)
(0.00344094 -0.000947276 -0.00128527)
(0.00345676 -0.000978406 -0.001333)
(0.00347458 -0.000967513 -0.0013607)
(0.00348452 -0.000965102 -0.00138524)
(0.00349487 -0.000945851 -0.00139939)
(0.00350154 -0.000930319 -0.00140997)
(0.00350723 -0.000912571 -0.00141549)
(0.00351147 -0.000895415 -0.00141811)
(0.00351459 -0.000885527 -0.00141741)
(0.00351782 -0.000872104 -0.00141361)
(0.00351939 -0.000879682 -0.00140703)
(0.00352175 -0.000874547 -0.00139553)
(0.0035235 -0.000915696 -0.00138291)
(0.00352752 -0.000929803 -0.00135944)
(0.00353391 -0.0010348 -0.00133802)
(0.00354489 -0.00109887 -0.00129613)
(0.00356111 -0.00132482 -0.00125944)
(0.00358633 -0.00150541 -0.00119548)
(0.00362121 -0.00193913 -0.00114632)
(0.00367121 -0.00233059 -0.00108144)
(0.00373562 -0.00305132 -0.00106968)
(0.00381478 -0.00367167 -0.00111211)
(0.00392964 -0.00452368 -0.00128881)
(0.00410085 -0.00509812 -0.00161319)
(0.00433477 -0.00574331 -0.00207368)
(0.00462813 -0.00609051 -0.00246063)
(0.00512594 -0.00757146 -0.00284028)
(0.0069183 -0.0102584 -0.00360543)
(0.00634069 -0.0129924 -0.00545193)
(-0.000534763 -0.00597287 -0.00789483)
(-0.00183866 0.0124578 -0.00807634)
(0.00465298 0.0208878 -0.00750597)
(0.0144892 0.00668918 -0.00517267)
(0.0225633 0.000935082 -0.00613027)
(0.0306308 -0.036993 -0.00755139)
(0.0342911 -0.0450687 -0.0157091)
(0.0259341 -0.0837951 -0.009703)
(0.0187766 -0.0518888 -0.0161216)
(0.00585328 -0.123147 0.0301447)
(-0.0253151 0.0162251 -0.0876626)
(0.0163614 -0.0610788 0.0490687)
(0.1052 -0.273307 0.0741365)
(0.0819781 -0.100109 0.0224012)
(0.0608158 -0.171504 -0.0161325)
(0.0514454 -0.203175 -0.0134723)
(0.0489167 -0.201031 -0.0110582)
(0.0456443 -0.202265 -0.011428)
(0.0418812 -0.198079 -0.0133733)
(0.0408131 -0.192259 -0.00995806)
(0.0346902 -0.187221 -0.00135977)
(0.0287052 -0.185738 0.00457589)
(0.0122048 -0.186686 0.0116484)
(-0.0115207 -0.171259 0.00770114)
(-0.0285322 -0.12279 0.0090126)
(-0.017589 -0.0727806 0.0127473)
(-0.0155332 -0.0501332 0.0130899)
(-0.0135325 -0.00819643 0.00746664)
(0.00415587 -0.00197086 -0.00812216)
(0.00576763 0.0116731 -0.0169246)
(0.0101102 0.0249834 -0.015415)
(0.0117187 0.0378774 -0.0206854)
(0.0180178 0.0476946 -0.0177858)
(0.0253552 0.0507243 -0.0146645)
(0.0306434 0.0448957 -0.0127169)
(0.0288023 0.03736 -0.0156506)
(0.0281951 0.0343058 -0.0159847)
(0.0315764 0.0270869 -0.0108546)
(0.0312063 0.015271 -0.00766301)
(0.0277316 0.00565039 -0.00801859)
(0.0103428 -0.0018476 -0.00630552)
(-0.0152967 0.0265492 -0.0146229)
(-0.00815714 0.0527514 -0.00123735)
(-0.00171156 0.0590406 0.00605288)
(0.00462202 0.0607932 0.00527866)
(0.0089991 0.0555931 0.0087807)
(0.00819394 0.0412797 0.0137953)
(0.0173323 0.0163382 0.019171)
(0.0132415 0.0179964 0.00336005)
(0.0161546 0.00836874 0.0045029)
(0.00647235 0.00387165 0.00418857)
(0.00823739 0.00284931 0.00410258)
(0.00376261 -0.000821477 0.00504589)
(0.00444493 -1.11604e-05 0.00422726)
(0.0035317 -0.00173792 0.00424102)
(0.00377863 -0.000871007 0.00377741)
(0.00370712 -0.00117306 0.0031551)
(0.00396142 -0.000109298 0.002725)
(0.00431949 0.000361457 0.00263346)
(0.00489579 0.000854534 0.0027861)
(0.0053708 0.000710696 0.00277331)
(0.0057582 0.000548122 0.00275626)
(0.00598709 0.000179411 0.00259689)
(0.00615824 -5.23477e-05 0.00248222)
(0.00625608 -0.000320242 0.00232877)
(0.0063356 -0.000443373 0.00223828)
(0.0063833 -0.000581139 0.00214066)
(0.00642984 -0.000618139 0.00208967)
(0.00645821 -0.000667945 0.00204094)
(0.00648902 -0.00066157 0.00202122)
(0.00650893 -0.000666995 0.00200508)
(0.00652865 -0.000647215 0.00200405)
(0.00654254 -0.000633704 0.00200737)
(0.00655447 -0.000615107 0.00201795)
(0.0065638 -0.000598171 0.00203187)
(0.00657086 -0.000588678 0.00205033)
(0.00657844 -0.000574762 0.00207296)
(0.00658279 -0.000586976 0.00209979)
(0.00659227 -0.0005793 0.00213428)
(0.00659653 -0.000633963 0.00217208)
(0.00661693 -0.000640897 0.00222642)
(0.00663124 -0.000776786 0.00228121)
(0.00667624 -0.000827955 0.00236724)
(0.00672224 -0.00111151 0.00245318)
(0.00681164 -0.00127662 0.0025794)
(0.00691392 -0.00180956 0.00269539)
(0.00707137 -0.00219804 0.00281725)
(0.00724838 -0.00306707 0.00285183)
(0.0074381 -0.00369383 0.0027475)
(0.00762773 -0.00471116 0.00235121)
(0.00780124 -0.00514769 0.00165889)
(0.00810027 -0.00565778 0.000707107)
(0.00885306 -0.005103 -0.000371046)
(0.0108056 -0.00569794 -0.00143244)
(0.0109336 -0.00539445 -0.00354883)
(0.00588424 -0.000447226 -0.00614213)
(-0.00344488 0.00928862 -0.00661898)
(-0.00156855 0.016816 -0.00375991)
(0.0201834 0.00451504 0.003664)
(0.0333263 -0.0271308 0.00791526)
(0.0474486 -0.0441194 0.00672585)
(0.06435 -0.0850418 0.00669966)
(0.0601263 -0.0913825 0.000398395)
(0.0559707 -0.12709 0.0062869)
(0.0327837 -0.110332 0.0117402)
(0.0250802 -0.16521 0.0479795)
(-0.00833054 0.0446581 -0.0821325)
(-0.0209185 -0.0875155 0.0174074)
(0.131845 -0.252194 0.111577)
(0.101776 -0.0610433 0.0415679)
(0.0590813 -0.145437 -0.00760881)
(0.0506821 -0.130891 0.00936269)
(0.0226639 -0.122008 0.0139341)
(0.0095532 -0.0994301 -0.0102975)
(0.00937722 -0.027859 -0.0105008)
(0.0151462 -0.0178344 0.0318492)
(0.0209975 -0.0162047 0.0342134)
(0.0131639 -0.0160464 0.0154132)
(-0.00675096 -0.00591927 0.00693665)
(-0.0219546 -0.0262003 0.0124344)
(-0.028877 -0.0330683 0.0231536)
(-0.0317744 -0.0317925 0.0245094)
(-0.0435107 -0.0247699 0.0146119)
(-0.0344217 0.0146429 -0.00386295)
(-0.0103028 0.0317208 -0.0120885)
(0.0021771 0.0556017 -0.00641855)
(0.0185538 0.0600769 -0.00378926)
(0.0290202 0.067244 0.00312482)
(0.0377766 0.0603392 0.0112487)
(0.0425941 0.0575283 0.0147758)
(0.0491193 0.0473548 0.0209408)
(0.0462217 0.0360609 0.0184771)
(0.0406482 0.0261374 0.016552)
(0.0355978 0.0162458 0.0214012)
(0.0258289 0.000141907 0.0284541)
(0.017866 -0.0186601 0.0281338)
(0.00762414 -0.0292704 0.0240279)
(0.00299584 -0.0470181 0.0141055)
(-0.002061 -0.0470626 0.0026898)
(0.00291023 -0.0402162 -0.0128909)
(0.0170178 -0.00619985 -0.017109)
(0.0223649 0.0164874 -0.00861218)
(0.0244932 0.0296506 0.0128122)
(0.0350517 0.00901035 0.0282395)
(0.0148677 0.0135469 0.00260671)
(0.0204647 0.00891812 0.00341576)
(0.00705041 0.00404824 0.00287207)
(0.0106172 0.00587757 0.00276369)
(0.00408895 0.00145875 0.00461969)
(0.00507965 0.00303924 0.00450526)
(0.00338719 0.000884988 0.00555221)
(0.00359305 0.00138598 0.00538521)
(0.00308471 0.000445993 0.00497324)
(0.0030872 0.00112187 0.00458937)
(0.0033458 0.0013032 0.00437667)
(0.00414685 0.00174467 0.00454854)
(0.00473048 0.0014012 0.00469026)
(0.00525795 0.00113946 0.00475182)
(0.00548181 0.00062834 0.00472864)
(0.00567701 0.00034328 0.00469295)
(0.00573565 1.31952e-05 0.00464749)
(0.00581139 -0.000135443 0.0046202)
(0.00583044 -0.000299771 0.00460036)
(0.00586571 -0.000348732 0.00459856)
(0.00587685 -0.000410779 0.00460241)
(0.00589726 -0.000412752 0.00461915)
(0.00590548 -0.000424125 0.00463804)
(0.00591606 -0.000408853 0.00466475)
(0.00592102 -0.00039934 0.00469166)
(0.00592505 -0.000382784 0.00472162)
(0.00592694 -0.00036822 0.00475218)
(0.00592695 -0.000358769 0.00478506)
(0.00592853 -0.0003472 0.00481966)
(0.00592722 -0.000356675 0.00485559)
(0.00593623 -0.000350044 0.00489385)
(0.00593782 -0.000395947 0.00493379)
(0.00597015 -0.000400341 0.00497816)
(0.00598797 -0.000515373 0.0050264)
(0.00606672 -0.000551228 0.00508202)
(0.00613443 -0.000792663 0.00514536)
(0.0062916 -0.000924477 0.00521617)
(0.00645613 -0.00138575 0.00529562)
(0.00672469 -0.00169574 0.00534372)
(0.00700655 -0.00243533 0.00536147)
(0.00731595 -0.00290632 0.00520953)
(0.00754436 -0.00373076 0.00489086)
(0.0076266 -0.00388172 0.00431653)
(0.00778327 -0.00396659 0.00373116)
(0.00854705 -0.00260403 0.002957)
(0.01102 -0.000488507 0.00187143)
(0.0115847 0.00541527 -0.00072921)
(0.00735158 0.0113354 -0.00411237)
(0.000232892 0.0160922 -0.005275)
(0.0113803 0.00470731 0.000127908)
(0.0401715 -0.00754411 0.00939406)
(0.0618615 -0.0439549 0.0167844)
(0.07794 -0.0583624 0.00994413)
(0.0874795 -0.0847927 0.0035796)
(0.078844 -0.0759148 0.00794577)
(0.0788168 -0.114181 0.0223969)
(0.0191375 -0.0933839 0.0218297)
(0.0296661 -0.153412 0.0608768)
(-0.0405222 0.0259316 -0.0529665)
(0.0244228 -0.0183828 0.00764538)
(0.201209 -0.299512 0.113127)
(0.139539 -0.0585637 0.0596214)
(0.0797003 -0.131055 0.00567783)
(0.0638281 -0.0824848 0.01745)
(0.0174368 -0.0724877 0.00392221)
(-0.00192633 -0.00530998 -0.0117424)
(0.0176915 0.0306196 0.041444)
(0.0374334 0.0379624 0.022731)
(0.0364528 0.0480979 -0.0041553)
(0.0221521 0.0686042 0.00226009)
(-0.00164499 0.0654529 0.0131277)
(-0.0435494 0.0599007 0.022001)
(-0.064638 0.0632596 0.0208663)
(-0.0717449 0.0549604 0.0111947)
(-0.0638899 0.0582929 -0.00450768)
(-0.0336261 0.072771 -0.00647977)
(-0.0138498 0.0686866 -0.00487513)
(0.00974524 0.082341 -0.00240236)
(0.0267393 0.0809001 0.00448615)
(0.0382584 0.0803329 0.0151493)
(0.0400592 0.0657899 0.0220144)
(0.0384998 0.0565468 0.0274574)
(0.039163 0.0399222 0.0399074)
(0.0339896 0.0292406 0.0470001)
(0.025608 0.00961498 0.0478411)
(0.0214549 -0.00119668 0.0488504)
(0.0150426 -0.0165638 0.0458831)
(0.00739164 -0.0317022 0.0434742)
(1.44834e-05 -0.0447802 0.041893)
(-0.0134639 -0.0659446 0.0381438)
(-0.0214942 -0.074142 0.0246887)
(-0.0158711 -0.0750542 0.0151053)
(-0.00669101 -0.0714705 0.00574102)
(0.00930544 -0.0514341 -0.0160759)
(0.0247665 -0.00634956 0.000117495)
(0.0302332 -0.0128235 0.0339563)
(0.0146262 0.0105724 0.0017068)
(0.0244583 0.00844468 0.00039988)
(0.00649246 0.00137461 -0.00170773)
(0.0140635 0.00678907 -0.00241519)
(0.00445674 -0.000146689 3.09458e-06)
(0.00635778 0.00383019 0.000884025)
(0.00300792 0.000347716 0.0034824)
(0.00353913 0.00202941 0.00379874)
(0.0024771 0.000773355 0.00438739)
(0.00238278 0.00183031 0.00420723)
(0.00224179 0.00194801 0.00404971)
(0.00305033 0.00255892 0.00442153)
(0.00370514 0.00217874 0.00477348)
(0.00424934 0.00192317 0.00496651)
(0.0044503 0.00131664 0.00503363)
(0.00461414 0.000994917 0.00505575)
(0.00464167 0.000598587 0.0050575)
(0.00469587 0.000419762 0.00506175)
(0.00469259 0.000221425 0.00507072)
(0.00471687 0.000153335 0.00508756)
(0.0047164 7.26943e-05 0.00510779)
(0.00473341 5.68413e-05 0.00513464)
(0.00473857 3.42626e-05 0.00516231)
(0.00475026 4.02138e-05 0.00519546)
(0.00475679 4.19456e-05 0.00522433)
(0.00476302 5.34784e-05 0.00525281)
(0.00476783 6.30933e-05 0.00528286)
(0.00477107 7.01197e-05 0.00531324)
(0.00477537 7.67749e-05 0.00534201)
(0.00477892 6.83909e-05 0.00536865)
(0.00479103 7.25031e-05 0.00539307)
(0.00480133 3.55707e-05 0.00541507)
(0.00483967 3.52091e-05 0.00543485)
(0.00487499 -5.47555e-05 0.00545401)
(0.00497324 -7.51282e-05 0.00547224)
(0.00507323 -0.000267007 0.00549527)
(0.0052822 -0.000342537 0.00551734)
(0.00550593 -0.000681455 0.00554358)
(0.00585283 -0.000807585 0.00553451)
(0.00623137 -0.00122909 0.00550072)
(0.00663295 -0.00128161 0.00532054)
(0.00693407 -0.00163787 0.0050723)
(0.00700884 -0.00146963 0.00464697)
(0.00683386 -0.00173913 0.00448971)
(0.00644851 -0.000625998 0.00449242)
(0.00711993 0.000831197 0.00453613)
(0.00797205 0.00682533 0.00349842)
(0.00859041 0.0106738 0.00173188)
(0.0124344 0.0135177 0.00144893)
(0.0255832 -0.00475799 0.00102154)
(0.056829 -0.0129019 0.0159806)
(0.0890354 -0.0417738 0.0179975)
(0.0982406 -0.0307345 0.000489687)
(0.0977297 -0.0183789 -0.00521222)
(0.103349 0.0229056 0.0184043)
(0.112793 -0.061801 0.0453007)
(0.0147986 0.0166286 0.0509551)
(0.0182496 -0.178013 0.0797456)
(-0.0754877 0.0919783 -0.0308604)
(0.0485829 -0.12313 0.0189314)
(0.225033 -0.27353 0.118917)
(0.121618 0.0776349 0.0208184)
(0.0338393 -0.0921372 -0.019269)
(-0.0140214 0.0606331 -0.0274372)
(-0.0424223 0.0499672 -0.0039721)
(-0.0295034 0.0843043 0.0202033)
(9.24233e-05 0.0795077 0.010983)
(0.00746478 0.0952269 -0.00842916)
(0.00909985 0.117918 0.00294873)
(-0.00220739 0.128114 0.00466058)
(-0.0217673 0.132039 0.00342787)
(-0.041414 0.129881 0.00241084)
(-0.0505377 0.125965 -0.000395974)
(-0.0510465 0.116657 -0.00459316)
(-0.0391129 0.113672 -0.0124535)
(-0.0154492 0.114948 -0.013496)
(0.00126179 0.113135 -0.00609883)
(0.0193745 0.116794 0.00493195)
(0.0312175 0.112148 0.0160522)
(0.0353889 0.101695 0.0321779)
(0.0346143 0.0834029 0.0445539)
(0.0257633 0.0646122 0.0489075)
(0.0216369 0.0497502 0.0590214)
(0.0130626 0.0379737 0.0653161)
(0.0016843 0.0233974 0.0667001)
(-0.00672997 0.0154053 0.0656839)
(-0.0152052 0.00860185 0.0548723)
(-0.0212171 -0.000805396 0.0452158)
(-0.0194186 -0.0170533 0.0397111)
(-0.026916 -0.0406874 0.0215691)
(-0.0314277 -0.0517089 0.0104838)
(-0.026865 -0.0583132 0.00988393)
(-0.0212084 -0.0583623 0.0103621)
(-0.0208993 -0.0523334 0.0104529)
(-0.0125399 -0.0328565 0.0102931)
(-0.00783944 -0.0158205 0.0296143)
(0.0153993 0.0108919 0.00264869)
(0.0283511 0.0127805 0.000553006)
(0.00993379 0.000678188 -0.00616118)
(0.0210124 0.0104988 -0.00629884)
(0.00951073 -0.00114912 -0.00628109)
(0.0108465 0.00492641 -0.0042717)
(0.00481826 -0.00197473 -0.00111233)
(0.00421821 0.00063749 0.000189915)
(0.00161734 -0.00180881 0.00185871)
(0.000978351 0.000145861 0.00216908)
(0.000542299 0.000563458 0.00265669)
(0.00127591 0.00207224 0.0035159)
(0.00184867 0.00209585 0.00424708)
(0.00224796 0.00205883 0.0046961)
(0.00229389 0.00155583 0.00488155)
(0.0023185 0.0013034 0.00497498)
(0.00223985 0.00092644 0.00500541)
(0.00220656 0.000755359 0.0050241)
(0.00214643 0.000550797 0.0050345)
(0.00212873 0.000476186 0.00504402)
(0.0021089 0.000389748 0.00505187)
(0.00211113 0.000367356 0.00506291)
(0.00211084 0.000339879 0.00507194)
(0.00211783 0.000339501 0.00508183)
(0.00212417 0.000336723 0.00508796)
(0.00213322 0.00034118 0.00509487)
(0.00214257 0.000343164 0.0050965)
(0.00215455 0.000343396 0.00509351)
(0.00216983 0.000344157 0.00508606)
(0.00218808 0.000335067 0.00507186)
(0.00221456 0.000335977 0.00505098)
(0.00224841 0.000307709 0.00502447)
(0.00230639 0.000309882 0.00499038)
(0.00238112 0.000243205 0.00495013)
(0.00252145 0.000244602 0.00491051)
(0.00268919 0.000111867 0.00486509)
(0.00295473 0.000107108 0.00481831)
(0.00322022 -5.68665e-05 0.00475326)
(0.00360093 5.37685e-05 0.00466549)
(0.00397475 3.48882e-05 0.00456736)
(0.00439699 0.000499303 0.00442976)
(0.00478581 0.000826958 0.00437304)
(0.00509971 0.00148467 0.00438532)
(0.00513614 0.00126285 0.00462795)
(0.00468797 0.00171449 0.00500129)
(0.00424263 0.00159879 0.00537803)
(0.00461426 0.00516555 0.00507507)
(0.00737685 0.00692254 0.00388089)
(0.0178424 0.00901425 0.00263124)
(0.0369623 -0.00250752 0.00103648)
(0.068926 -0.010949 0.0113085)
(0.0948357 0.00308096 -0.00311662)
(0.0923226 0.0707399 -0.0207443)
(0.094852 0.116431 0.0016171)
(0.099027 0.113684 0.0393117)
(0.0553759 0.0553835 0.0679071)
(-0.00305669 0.1265 0.124499)
(0.106631 -0.243325 0.18373)
(-0.0806468 0.152462 0.0322583)
(0.0206941 -0.192055 0.0069637)
(0.205302 -0.231557 0.122644)
(0.0698329 0.112075 -0.00420488)
(0.0401226 0.000913326 -0.00699929)
(-0.0106059 0.107 -0.000749351)
(-0.00844102 0.0863285 0.00940336)
(-0.00848512 0.103815 0.00593163)
(0.00384464 0.114789 -0.018031)
(0.00351347 0.148876 -0.0175821)
(0.0125921 0.160589 -0.0132171)
(0.00833744 0.170357 -0.0179143)
(-0.00796276 0.169938 -0.016754)
(-0.0217307 0.161291 -0.0189144)
(-0.0260143 0.153007 -0.0188997)
(-0.0234841 0.141383 -0.0212149)
(-0.0109171 0.134977 -0.0214429)
(0.00165032 0.130087 -0.0155914)
(0.0146674 0.130427 -0.00573555)
(0.0236295 0.127494 0.011652)
(0.0307494 0.122276 0.0301763)
(0.0316584 0.1139 0.0493493)
(0.021814 0.10602 0.0591865)
(0.00102642 0.0894277 0.0596774)
(-0.0079881 0.0778862 0.0639095)
(-0.0230774 0.0623169 0.0597014)
(-0.0400677 0.0483922 0.0504377)
(-0.044364 0.0464912 0.0359472)
(-0.0394145 0.0394712 0.0254208)
(-0.0249593 0.0345245 0.0271997)
(-0.0167118 0.0202499 0.0259156)
(-0.0147933 0.00467893 0.0213638)
(-0.0220477 -0.0087418 0.0180523)
(-0.0268481 -0.024072 0.021793)
(-0.0259311 -0.0322516 0.0233518)
(-0.025939 -0.0360954 0.0125733)
(-0.0305008 -0.0228763 0.00766803)
(-0.0482266 -0.0186875 0.0240099)
(0.014742 0.0140268 0.00293951)
(0.0290398 0.0193692 0.00416669)
(0.0148274 0.000466048 -0.0065531)
(0.0257818 0.0129597 -0.00376108)
(0.0177309 -0.00277587 -0.00832161)
(0.01869 0.00570906 -0.00680283)
(0.0114328 -0.00242817 -0.00480854)
(0.00736949 0.00103862 -0.00279099)
(0.00347751 -0.00416278 -0.00132302)
(0.00103826 -0.00276205 -0.000810984)
(-0.000623965 -0.00235888 3.75425e-05)
(-0.000388552 -6.23473e-05 0.00170808)
(0.000573825 0.00071783 0.00306805)
(0.00107288 0.00128859 0.0039149)
(0.00108416 0.00116939 0.00432449)
(0.00102228 0.00119113 0.00452733)
(0.000885535 0.000970012 0.00459857)
(0.000796017 0.000911052 0.0046237)
(0.000711931 0.000769544 0.00461666)
(0.000671554 0.000740884 0.00459448)
(0.000650999 0.000679849 0.00456073)
(0.000655765 0.000672281 0.00452197)
(0.000669758 0.000650496 0.00447477)
(0.000693846 0.000652624 0.00442904)
(0.000727065 0.000650495 0.00438271)
(0.000765362 0.000654429 0.00433638)
(0.000806382 0.000657554 0.00428512)
(0.000849952 0.000661885 0.00423091)
(0.000893878 0.000670061 0.00417291)
(0.000945728 0.000673514 0.00411293)
(0.00100388 0.000687077 0.00405074)
(0.00107752 0.000682178 0.00398705)
(0.00117282 0.000708117 0.00392792)
(0.00129725 0.000691457 0.00386383)
(0.00146074 0.000750314 0.00379714)
(0.00166019 0.000719387 0.00372563)
(0.00191696 0.000821601 0.00365254)
(0.00216393 0.000847641 0.00355198)
(0.00245587 0.00116471 0.00341753)
(0.00266918 0.00144769 0.00324456)
(0.00286252 0.00216722 0.0030401)
(0.00311091 0.00272849 0.0029973)
(0.00366927 0.00340399 0.00319545)
(0.00409675 0.00302367 0.00356293)
(0.00376816 0.00296746 0.00362077)
(0.00288826 0.00240375 0.00353171)
(0.00270857 0.00582008 0.00237549)
(0.00605776 0.00715836 0.00044766)
(0.0215621 0.00878216 -0.00316789)
(0.043817 0.00502133 -0.00264739)
(0.0593788 0.0187039 0.000443044)
(0.0544511 0.109899 0.00399498)
(0.0643317 0.160714 0.0205107)
(0.0989866 0.166423 0.0442029)
(0.109195 0.151607 0.0555611)
(0.105057 0.121173 0.0639418)
(0.142622 0.163814 0.109018)
(0.202682 -0.204753 0.154462)
(-0.10962 0.296781 0.010901)
(0.0217475 -0.265329 0.0251422)
(0.176896 -0.184889 0.116164)
(0.0355282 0.134616 -0.00610247)
(0.0367172 0.0156171 0.0159467)
(-0.0165189 0.12208 0.000833098)
(-0.0297347 0.130501 -0.00724089)
(-0.024201 0.192346 -0.0175449)
(0.00329833 0.213397 -0.011344)
(0.0175695 0.220133 -0.0112157)
(0.0272804 0.226401 -0.0148538)
(0.0301693 0.228347 -0.0144047)
(0.0312477 0.225107 -0.0167447)
(0.0254058 0.216154 -0.0162652)
(0.0206544 0.204443 -0.0180206)
(0.0182696 0.191161 -0.0184686)
(0.0180888 0.174683 -0.0130632)
(0.0135319 0.160548 -0.00610645)
(0.0131461 0.145205 0.00794474)
(0.00983749 0.133601 0.0242722)
(0.00629958 0.11796 0.0361982)
(-0.00430576 0.103026 0.0461685)
(-0.0132068 0.0877807 0.0402351)
(-0.023904 0.0801057 0.033576)
(-0.0314041 0.0750573 0.0257856)
(-0.0351486 0.0703668 0.0172315)
(-0.045241 0.059723 0.00990037)
(-0.0472887 0.0569011 0.00331315)
(-0.044024 0.0521565 0.000692319)
(-0.0383374 0.0486256 0.00738527)
(-0.0286409 0.0430443 0.0151197)
(-0.0263389 0.0294583 0.0218836)
(-0.0269795 0.0184862 0.0212591)
(-0.0313371 0.0035195 0.0206296)
(-0.0412563 -0.00349956 0.013176)
(-0.0475491 -0.0133235 0.0092097)
(-0.0549481 -0.00509487 0.00887932)
(-0.069152 -0.00498542 0.0259347)
(0.0122939 0.0171521 0.00369668)
(0.0299626 0.0276066 0.00960101)
(0.014408 -0.00492281 -0.000273059)
(0.0242487 0.0117437 0.0062131)
(0.0202059 -0.00979304 -0.00145884)
(0.0204288 0.00359806 -0.00658987)
(0.0155794 -0.00429342 -0.00481411)
(0.0107764 0.00163236 -0.00291561)
(0.00643922 -0.00450768 -0.00166678)
(0.00114558 -0.00429035 -0.00159868)
(-0.00177541 -0.00463081 -0.00146106)
(-0.00239292 -0.00232434 -4.23013e-05)
(-0.00185784 -0.00107369 0.00153455)
(-0.00147187 1.69416e-05 0.00261685)
(-0.00161415 0.000258642 0.00315597)
(-0.00179631 0.000638142 0.00342387)
(-0.00204215 0.000673965 0.00350922)
(-0.00219332 0.000825336 0.00353372)
(-0.002326 0.000817335 0.00351449)
(-0.00237395 0.000900523 0.00348797)
(-0.0023828 0.00091301 0.00344527)
(-0.00234858 0.000969908 0.00340041)
(-0.00229142 0.000988132 0.00334361)
(-0.0022204 0.00102211 0.00328789)
(-0.00214358 0.00104293 0.00322644)
(-0.0020617 0.00106721 0.00316759)
(-0.00197561 0.00108809 0.00311036)
(-0.00188419 0.00110793 0.00305813)
(-0.00179012 0.00112908 0.00300965)
(-0.00168432 0.00114659 0.00296512)
(-0.00157663 0.00117469 0.00292566)
(-0.00144849 0.00119189 0.00289126)
(-0.00131868 0.00123972 0.00286295)
(-0.00115662 0.00126015 0.00284665)
(-0.000971707 0.00133746 0.00284762)
(-0.000758386 0.00136966 0.00287408)
(-0.000521698 0.00154133 0.00291207)
(-0.000302198 0.00166328 0.00293555)
(-7.24416e-05 0.00201822 0.00292134)
(7.79888e-05 0.00228146 0.00279561)
(0.000299513 0.00280211 0.00257026)
(0.000623993 0.00299448 0.00231211)
(0.00136176 0.0034622 0.0021913)
(0.00174164 0.00317157 0.00211266)
(0.00103811 0.00330557 0.00163003)
(-0.00172225 0.00278828 0.000306917)
(-0.00279091 0.00633762 -0.0019997)
(0.00321686 0.00565642 -0.00436462)
(0.0201655 0.00413926 -0.00961329)
(0.0321601 0.020531 -0.013937)
(-0.00296878 0.0855742 -0.0049647)
(-0.00522993 0.157958 0.0212222)
(0.0676646 0.186817 0.053831)
(0.0950748 0.183014 0.066627)
(0.101411 0.179906 0.0747986)
(0.109276 0.152187 0.0708387)
(0.153257 0.146667 0.0730484)
(0.144231 0.0500619 0.098981)
(0.0214432 0.419308 0.0942029)
(0.0221447 -0.325357 0.038341)
(0.101113 -0.0925838 0.084235)
(0.0014927 0.127954 -0.00415194)
(-0.0113729 0.0997967 -0.00184315)
(-0.052638 0.190992 -0.0127008)
(-0.0429662 0.216964 -0.0118965)
(-0.0147513 0.233489 -0.00886629)
(0.0102136 0.229843 -0.00701786)
(0.0250166 0.239732 -0.00474104)
(0.0372308 0.238552 -0.00484907)
(0.0418172 0.241817 -0.00488315)
(0.043071 0.24165 -0.00548093)
(0.0430045 0.241594 -0.00610888)
(0.0420612 0.236515 -0.00741027)
(0.0394265 0.231399 -0.00688282)
(0.0374252 0.221188 -0.00470408)
(0.0336732 0.210407 -0.00157257)
(0.0271018 0.195882 0.00303498)
(0.0196809 0.177358 0.00894247)
(0.0144636 0.155182 0.0126638)
(0.00948346 0.130652 0.0155186)
(0.00415942 0.10804 0.0145459)
(-0.010031 0.0795224 0.0155797)
(-0.0197157 0.0566252 0.00973047)
(-0.0212889 0.0482973 0.000852128)
(-0.0265938 0.0439408 -0.00125952)
(-0.0271856 0.0418527 -0.00716642)
(-0.0251405 0.0397441 -0.0158349)
(-0.0255028 0.0418437 -0.0200301)
(-0.0268599 0.0442123 -0.0191906)
(-0.0279839 0.0407996 -0.00300085)
(-0.0312661 0.0334083 0.0116174)
(-0.0351051 0.0181952 0.0165078)
(-0.0411266 0.00911391 0.0164745)
(-0.0478637 -0.0102835 0.0197317)
(-0.0671399 -0.01212 0.0251091)
(-0.0937311 -0.0181313 0.0281397)
(0.00225621 0.0124411 0.000853026)
(0.0321685 0.0332246 0.0120904)
(0.00898214 -0.00891268 0.00606925)
(0.0148156 0.0120286 0.012698)
(0.0142823 -0.0133396 0.0074331)
(0.015632 -0.000494213 -0.000810599)
(0.0146616 -0.00760723 -0.00263988)
(0.0109925 0.000382575 -0.00276329)
(0.00887983 -0.00358065 -0.00079259)
(0.001736 -0.00406252 -0.00122204)
(-0.00286678 -0.00566582 -0.0012074)
(-0.00371383 -0.00416886 -0.000362329)
(-0.00275111 -0.00314088 0.00123078)
(-0.00187471 -0.00182477 0.00261951)
(-0.00180336 -0.00108452 0.00336859)
(-0.00189461 -0.00025557 0.00379841)
(-0.00207399 0.00018798 0.00397041)
(-0.00215744 0.000655671 0.00406065)
(-0.00224448 0.000885871 0.00407793)
(-0.00225303 0.00113866 0.00408387)
(-0.00223927 0.00126768 0.00407055)
(-0.00218706 0.0014052 0.00405919)
(-0.00212718 0.00147122 0.00404146)
(-0.00205184 0.00153023 0.00404049)
(-0.0019691 0.00156584 0.00404283)
(-0.00188064 0.00159718 0.00405359)
(-0.00178765 0.00162228 0.00407152)
(-0.00168853 0.00164574 0.00409794)
(-0.00158713 0.00167181 0.0041306)
(-0.0014746 0.00169535 0.00417164)
(-0.00136202 0.00172941 0.00422091)
(-0.0012333 0.00175605 0.00428186)
(-0.00109476 0.00181922 0.00435576)
(-0.000920578 0.00185993 0.00444614)
(-0.000706156 0.00198497 0.00455881)
(-0.00044986 0.00210927 0.00468783)
(-0.000181428 0.00242565 0.00480835)
(5.01453e-05 0.00272451 0.0048762)
(0.000288571 0.00324767 0.00484401)
(0.000451243 0.0036054 0.00461231)
(0.000655505 0.00405261 0.00414528)
(0.00075625 0.00385421 0.00343928)
(0.00108631 0.0036132 0.00273606)
(0.00136302 0.00236774 0.00233426)
(0.000981928 0.00151667 0.0022145)
(-0.001553 0.000446112 0.00154283)
(-0.00197874 0.00160046 -0.00188633)
(0.0117585 -0.00165663 -0.00887908)
(0.0166049 0.0121935 -0.0221649)
(-0.0250249 0.104811 -0.0221016)
(-0.0466316 0.166013 0.0211765)
(-0.00566283 0.167921 0.0780245)
(0.0537872 0.163807 0.0731266)
(0.0797558 0.178445 0.0618964)
(0.0991881 0.177204 0.0726327)
(0.11369 0.164518 0.0741679)
(0.12524 0.177555 0.066272)
(0.160011 0.0587252 0.0823152)
(0.161302 0.427681 0.0973841)
(-0.00839823 -0.362576 0.0323668)
(-0.00289072 -0.0260116 0.0391188)
(-0.0398029 0.147692 -0.00833266)
(-0.0631718 0.144154 -0.00534599)
(-0.0627255 0.199536 -0.0083403)
(-0.0364422 0.209879 -0.000794208)
(-0.00281078 0.203909 0.0105854)
(0.0179946 0.19355 0.0149816)
(0.0323807 0.192979 0.014344)
(0.0400632 0.192766 0.0156792)
(0.0444388 0.201311 0.0148351)
(0.0430958 0.209618 0.0154804)
(0.0425716 0.217819 0.0189841)
(0.041708 0.222159 0.01561)
(0.0414727 0.226358 0.00878158)
(0.0410103 0.226528 0.00223268)
(0.0396637 0.22345 8.29738e-05)
(0.035065 0.221772 -0.000788103)
(0.0307626 0.218027 -0.00286926)
(0.0273466 0.211479 -0.0057935)
(0.0293233 0.204651 -0.00835008)
(0.0331374 0.196463 -0.00872419)
(0.0310957 0.182684 -0.00646873)
(0.0216086 0.167916 -0.00464477)
(0.013153 0.15037 -0.00927462)
(-0.00776921 0.128506 -0.01587)
(-0.0134217 0.117495 -0.0230294)
(-0.0219529 0.11168 -0.0294747)
(-0.0289908 0.10901 -0.0297868)
(-0.0344981 0.115117 -0.0263963)
(-0.0321354 0.116874 -0.0112302)
(-0.0340601 0.105519 0.0133131)
(-0.0344983 0.095876 0.0242253)
(-0.038443 0.0769529 0.033852)
(-0.0518394 0.0491872 0.036972)
(-0.0776553 0.0311097 0.0398619)
(-0.108776 -0.000756665 0.0250228)
(-0.00105111 -0.00195559 -0.00295612)
(0.032642 0.0366171 0.00906103)
(0.00164899 -0.00573352 0.00187806)
(0.00186836 0.0197973 0.00825391)
(0.00487951 -0.00810159 0.00803502)
(0.00625591 0.00251053 0.00151925)
(0.00912306 -0.00734261 -0.0005522)
(0.00896232 0.000643106 -0.00365516)
(0.00883891 -0.00224822 -0.00188973)
(0.00208184 -0.0023805 -0.00352729)
(-0.00385405 -0.00538499 -0.00452158)
(-0.00536388 -0.00484439 -0.00426023)
(-0.00540463 -0.00423554 -0.00298694)
(-0.00543096 -0.00283176 -0.00164555)
(-0.00570512 -0.00178106 -0.000791963)
(-0.00595933 -0.000669737 -0.000255938)
(-0.00622709 2.34642e-05 2.96206e-05)
(-0.0063956 0.000661432 0.000199023)
(-0.00652648 0.00100361 0.000294643)
(-0.00656679 0.00130064 0.000351783)
(-0.00654626 0.00144624 0.000394606)
(-0.00646029 0.00156678 0.000438664)
(-0.00632121 0.00161941 0.000498028)
(-0.0061853 0.00167274 0.000575368)
(-0.00605393 0.00170759 0.000660695)
(-0.00592838 0.00174084 0.000752743)
(-0.00580837 0.00176874 0.000846831)
(-0.00569245 0.00179486 0.000943069)
(-0.00558397 0.00182276 0.00103944)
(-0.00547114 0.00184874 0.00113666)
(-0.00536938 0.00188505 0.00123569)
(-0.00526253 0.00191334 0.0013364)
(-0.00516675 0.00197649 0.00144626)
(-0.00506873 0.00203469 0.00156122)
(-0.00501104 0.00219934 0.00168593)
(-0.00497798 0.00240389 0.001804)
(-0.00493066 0.00283244 0.00188383)
(-0.00487568 0.00329412 0.00189771)
(-0.00475939 0.00404868 0.00174981)
(-0.00453152 0.00466164 0.00135267)
(-0.00398081 0.0053096 0.000601627)
(-0.00314267 0.0050867 -0.000382448)
(-0.0017666 0.00443878 -0.00114594)
(-0.00117494 0.00299786 -0.00122786)
(-0.00217536 0.00244877 -0.00111307)
(-0.005638 0.00251663 -0.000834922)
(-0.00403367 0.00735099 -0.00531243)
(-0.00594249 0.0252267 -0.017904)
(-0.0585316 0.0963559 -0.01479)
(-0.0814536 0.129569 0.00616838)
(-0.0480784 0.147417 0.0459968)
(0.00544053 0.116637 0.0850959)
(0.0551804 0.0982944 0.064729)
(0.081413 0.110654 0.036561)
(0.0872624 0.120519 0.0306576)
(0.10604 0.101058 0.0475283)
(0.105011 0.160022 0.0745728)
(0.172093 0.00272159 0.0554998)
(0.307409 0.46538 0.0435632)
(-0.00401027 -0.35301 0.0291418)
(-0.0906908 -0.0603608 0.0282204)
(-0.0582125 0.151336 -0.00636163)
(-0.0895049 0.118508 0.00478167)
(-0.0655472 0.154708 0.0140038)
(-0.0268517 0.115617 0.0334675)
(0.0158154 0.0763564 0.0287093)
(0.0267546 0.0528343 0.0217692)
(0.0409726 0.0298335 0.0118648)
(0.0422349 0.0247132 0.00736044)
(0.0389979 0.0256891 0.000913767)
(0.0350936 0.0445721 -0.00683126)
(0.0311823 0.0654009 -0.00511234)
(0.0304699 0.083373 0.00574459)
(0.0303457 0.092876 0.00859851)
(0.0292807 0.100788 0.00376498)
(0.0283034 0.106819 0.00442493)
(0.0206006 0.11638 0.00440309)
(0.0184001 0.125224 0.00461656)