/*--------------------------------*- C++ -*----------------------------------*\
| =========                 |                                                 |
| \\      /  F ield         | OpenFOAM: The Open Source CFD Toolbox           |
|  \\    /   O peration     | Version:  2.3.0                                 |
|   \\  /    A nd           | Web:      www.OpenFOAM.org                      |
|    \\/     M anipulation  |                                                 |
\*---------------------------------------------------------------------------*/
FoamFile
{
    version     2.0;
    format      ascii;
    class       volVectorField;
    location    "11";
    object      Ur;
}
// * * * * * * * * * * * * * * * * * * * * * * * * * * * * * * * * * * * * * //

dimensions      [0 1 -1 0 0 0 0];

internalField   nonuniform List<vector> 
6144
(
(-1.31624e-07 0.000663801 -1.72056e-07)
(-9.18014e-08 0.000672206 -1.74341e-07)
(1.48858e-08 0.000682741 -4.07499e-08)
(-3.85263e-08 0.000689822 -1.50965e-08)
(-1.07728e-07 0.000695186 1.07319e-07)
(-9.2624e-08 0.000698786 8.41471e-08)
(-1.37378e-07 0.000699688 1.11749e-07)
(-1.27105e-07 0.000699985 8.76545e-08)
(-1.44785e-07 0.000700151 2.34444e-08)
(-1.44202e-07 0.000700311 -1.00744e-08)
(-1.58892e-07 0.000700435 -2.18082e-08)
(-1.60334e-07 0.000700549 -1.6525e-08)
(-1.62697e-07 0.000700587 -1.36791e-08)
(-1.69037e-07 0.000700565 -1.33387e-08)
(-1.74299e-07 0.000700539 -1.84489e-08)
(-1.82129e-07 0.000700507 -2.32158e-08)
(-1.85022e-07 0.000700475 -2.63256e-08)
(-1.92433e-07 0.000700439 -2.96047e-08)
(-1.9581e-07 0.000700396 -2.99972e-08)
(-2.04986e-07 0.00070035 -3.18525e-08)
(-2.09326e-07 0.000700302 -3.06923e-08)
(-2.20289e-07 0.000700253 -3.18893e-08)
(-2.25146e-07 0.000700211 -2.99981e-08)
(-2.37943e-07 0.000700177 -3.13484e-08)
(-2.4298e-07 0.000700159 -2.93192e-08)
(-2.575e-07 0.000700159 -3.14787e-08)
(-2.6258e-07 0.000700185 -2.98082e-08)
(-2.78723e-07 0.000700239 -3.33918e-08)
(-2.83675e-07 0.000700336 -3.26555e-08)
(-3.01154e-07 0.000700475 -3.80892e-08)
(-3.05138e-07 0.000700671 -3.85578e-08)
(-3.23486e-07 0.000700929 -4.64812e-08)
(-3.26127e-07 0.000701267 -4.90865e-08)
(-3.44486e-07 0.000701696 -6.02403e-08)
(-3.44225e-07 0.000702221 -6.52115e-08)
(-3.61567e-07 0.00070289 -8.02221e-08)
(-3.55457e-07 0.00070367 -8.87241e-08)
(-3.67478e-07 0.000704615 -1.10474e-07)
(-3.5088e-07 0.000705711 -1.2805e-07)
(-3.51112e-07 0.000706993 -1.67225e-07)
(-3.14649e-07 0.000708476 -2.0923e-07)
(-2.90258e-07 0.000710184 -2.82686e-07)
(-2.15984e-07 0.000712125 -3.52343e-07)
(-1.31903e-07 0.000714332 -4.23767e-07)
(2.95085e-10 0.000716912 -4.77693e-07)
(1.61347e-07 0.000739651 -5.43315e-07)
(3.24602e-07 0.000854965 -6.3887e-07)
(1.28617e-06 0.00114978 -9.40003e-07)
(2.3158e-06 0.00150194 -1.90714e-06)
(2.88471e-07 0.00165877 -2.63964e-06)
(-4.74446e-07 0.00173124 -5.26097e-06)
(-1.54455e-06 0.0018816 -6.83319e-06)
(-2.6548e-06 0.00207268 -6.88274e-06)
(-1.08819e-05 0.00230265 -1.17285e-05)
(-2.16919e-05 0.0025351 -1.01034e-05)
(-3.57643e-05 0.00269858 4.63924e-06)
(-4.57335e-05 0.00287193 6.23735e-06)
(-4.25873e-05 0.00417055 5.15485e-05)
(-1.4301e-05 0.0158372 -0.000582039)
(0.00965514 0.134632 0.00299215)
(-0.0139845 0.620909 -0.0416966)
(-0.02507 0.491369 -0.0486623)
(-0.000452818 0.0227308 -0.000690109)
(-8.91763e-05 0.00784606 -5.35653e-06)
(-3.58927e-05 0.00790514 -3.16685e-07)
(-6.55218e-06 0.00791354 -2.03001e-05)
(-1.66997e-05 0.00793528 -1.57721e-05)
(-3.62795e-05 0.00797094 -3.20729e-06)
(-6.46719e-05 0.0080667 2.95051e-06)
(-0.000107064 0.00821914 2.52232e-05)
(-0.000196647 0.00840299 2.77426e-05)
(-0.000195209 0.0086116 -9.02647e-06)
(-0.000110828 0.00878481 -2.44945e-05)
(-3.30941e-05 0.00882473 -1.44379e-05)
(1.17246e-05 0.00876771 2.40686e-06)
(3.3585e-05 0.00863193 1.66698e-05)
(3.49567e-06 0.00859317 1.60565e-05)
(-1.65455e-05 0.00870947 1.19049e-05)
(-3.91007e-05 0.00885456 -5.12543e-06)
(-4.73555e-05 0.0089496 -1.12213e-05)
(-4.81297e-05 0.00899452 -2.31611e-05)
(-4.15587e-05 0.00898858 -3.49174e-05)
(-3.30788e-05 0.00895669 -4.50078e-05)
(-2.21098e-05 0.00892794 -3.87692e-05)
(-1.33078e-05 0.00892779 -3.19309e-05)
(-4.96735e-06 0.00894618 -2.77896e-05)
(3.30753e-06 0.00894392 -1.95887e-05)
(5.41523e-06 0.00871772 -1.51057e-05)
(-3.04676e-06 0.00793211 -1.23097e-05)
(-4.28354e-06 0.00696487 -8.21824e-06)
(-1.38395e-05 0.0065136 -1.05507e-05)
(-1.81695e-05 0.00644338 -6.66612e-06)
(-1.40249e-05 0.00642376 -9.22287e-06)
(-6.5486e-06 0.00642389 -1.32388e-05)
(-1.46568e-05 0.00643514 -1.62242e-05)
(-9.84029e-06 0.00641231 -1.18669e-05)
(3.05745e-07 0.000657806 2.81355e-07)
(4.68618e-07 0.000662453 2.06128e-07)
(8.15644e-08 0.000670199 4.82034e-08)
(-7.16669e-08 0.000678203 -6.08565e-08)
(-2.4057e-07 0.000686684 4.68163e-08)
(-2.52536e-07 0.00069277 1.52882e-08)
(-3.49852e-07 0.000695232 1.11763e-07)
(-3.29667e-07 0.000697131 9.51596e-08)
(-3.40296e-07 0.0006986 6.61468e-08)
(-3.48592e-07 0.000699574 2.19911e-08)
(-3.65934e-07 0.000700209 8.78562e-09)
(-3.71076e-07 0.000700529 1.40804e-08)
(-3.68444e-07 0.000700614 2.38234e-08)
(-3.76505e-07 0.000700611 2.79395e-08)
(-3.84681e-07 0.000700569 2.46688e-08)
(-3.98828e-07 0.000700525 2.34902e-08)
(-4.09171e-07 0.000700475 1.75219e-08)
(-4.26747e-07 0.000700421 1.75084e-08)
(-4.42619e-07 0.000700369 1.38068e-08)
(-4.65067e-07 0.000700315 1.55709e-08)
(-4.85275e-07 0.00070026 1.24458e-08)
(-5.11394e-07 0.000700205 1.57639e-08)
(-5.34422e-07 0.000700157 1.22986e-08)
(-5.63437e-07 0.00070012 1.67366e-08)
(-5.88307e-07 0.000700098 1.21633e-08)
(-6.19353e-07 0.000700096 1.70638e-08)
(-6.4486e-07 0.000700119 1.10816e-08)
(-6.76769e-07 0.000700174 1.61142e-08)
(-7.01419e-07 0.000700267 7.99745e-09)
(-7.32287e-07 0.000700407 1.26065e-08)
(-7.53616e-07 0.000700602 1.76766e-09)
(-7.80565e-07 0.00070086 5.67851e-09)
(-7.95304e-07 0.000701199 -8.60886e-09)
(-8.14532e-07 0.000701631 -5.95727e-09)
(-8.17072e-07 0.000702159 -2.40975e-08)
(-8.20499e-07 0.000702833 -2.19513e-08)
(-8.00322e-07 0.000703614 -4.4609e-08)
(-7.75111e-07 0.000704571 -4.57985e-08)
(-7.16219e-07 0.000705678 -7.64256e-08)
(-6.41418e-07 0.000706972 -9.01251e-08)
(-5.11833e-07 0.000708464 -1.44791e-07)
(-3.4232e-07 0.000710201 -1.86393e-07)
(-8.14855e-08 0.000712153 -2.6513e-07)
(2.91242e-07 0.000714351 -3.05788e-07)
(8.68529e-07 0.000716918 -3.55403e-07)
(1.73011e-06 0.000763883 -3.34535e-07)
(3.12161e-06 0.000942358 -4.62465e-07)
(5.03403e-06 0.00119656 -1.2637e-06)
(4.34713e-06 0.00133063 -2.40467e-06)
(2.40031e-06 0.00138431 -2.67222e-06)
(4.04046e-06 0.00157979 -5.54524e-06)
(5.01976e-06 0.001895 -9.54876e-06)
(7.13263e-06 0.00223013 -9.57961e-06)
(-1.10428e-05 0.00250164 -1.42602e-05)
(-4.18047e-05 0.00270122 -6.4719e-06)
(-8.23914e-05 0.00284739 1.68648e-05)
(-0.000156834 0.003134 9.58079e-05)
(-3.05537e-05 0.00379684 0.000166401)
(8.13173e-05 0.0124657 -0.000242927)
(0.0137501 0.122998 0.0103684)
(-0.0241267 0.605736 -0.0335209)
(-0.0468176 0.460636 -0.0621311)
(-0.000717068 0.0224751 -0.00075431)
(-0.00023471 0.00785815 0.000203503)
(-6.79007e-05 0.00783081 -3.82407e-07)
(-6.25908e-06 0.007925 -7.17125e-05)
(1.88187e-05 0.00814441 -7.12873e-05)
(6.25648e-06 0.0084143 -8.7033e-06)
(-9.07386e-06 0.00862555 2.62666e-05)
(-4.04615e-05 0.00878128 3.692e-05)
(-3.66214e-05 0.0089334 5.32833e-05)
(-6.00579e-05 0.00897801 2.76319e-05)
(-9.26651e-05 0.00887506 -4.19695e-07)
(-8.96853e-05 0.0088084 -2.5261e-06)
(-6.03641e-05 0.00880579 -1.72471e-05)
(-4.40815e-05 0.00880667 -5.15891e-06)
(-5.48715e-05 0.00891245 1.70149e-05)
(-7.73876e-05 0.00905167 -2.85355e-06)
(-9.54696e-05 0.00910393 -3.04615e-05)
(-8.74339e-05 0.00910866 -4.76852e-05)
(-6.88744e-05 0.00903581 -4.6868e-05)
(-4.60885e-05 0.00893726 -5.60437e-05)
(-2.44151e-05 0.0088647 -6.68276e-05)
(-7.17678e-06 0.00880654 -6.34572e-05)
(3.18338e-07 0.00877233 -5.19335e-05)
(1.96679e-06 0.00876603 -4.75495e-05)
(-3.1901e-06 0.0087808 -3.76027e-05)
(-1.0568e-05 0.00882008 -2.90269e-05)
(-2.38183e-05 0.00882267 -1.4907e-05)
(-2.81021e-05 0.00873923 1.03636e-05)
(-1.24543e-05 0.00864151 -1.45099e-06)
(4.136e-06 0.00848262 -3.48995e-08)
(1.25109e-05 0.00805205 -7.33078e-06)
(8.68978e-06 0.00732285 -2.4496e-05)
(-3.5397e-06 0.00668182 -4.03295e-05)
(3.9235e-06 0.00643494 -1.08852e-05)
(-4.83139e-08 0.000654076 2.138e-06)
(1.21187e-07 0.00065621 1.15004e-06)
(-3.01737e-07 0.000664553 1.38687e-07)
(-1.64027e-07 0.000673035 -1.04692e-07)
(-4.86894e-07 0.000680485 -1.21334e-07)
(-4.27236e-07 0.000686108 -1.09566e-07)
(-6.26617e-07 0.000689045 5.49885e-08)
(-5.40047e-07 0.000692033 9.28898e-08)
(-5.61655e-07 0.000694176 1.50887e-07)
(-5.76046e-07 0.000696334 1.21637e-07)
(-6.06736e-07 0.00069863 6.02393e-08)
(-6.37061e-07 0.000700073 4.856e-08)
(-6.40941e-07 0.000700612 5.79557e-08)
(-6.55435e-07 0.00070069 6.38667e-08)
(-6.61249e-07 0.000700649 6.44922e-08)
(-6.80489e-07 0.000700594 6.24899e-08)
(-6.96417e-07 0.000700539 6.05253e-08)
(-7.25639e-07 0.000700481 5.88951e-08)
(-7.52782e-07 0.000700422 5.85754e-08)
(-7.90806e-07 0.000700361 5.80192e-08)
(-8.25628e-07 0.0007003 5.88275e-08)
(-8.69432e-07 0.000700242 5.88489e-08)
(-9.09264e-07 0.000700192 6.01163e-08)
(-9.57465e-07 0.000700152 6.01682e-08)
(-1.00015e-06 0.000700129 6.10473e-08)
(-1.05052e-06 0.000700125 6.07616e-08)
(-1.09313e-06 0.000700149 6.13577e-08)
(-1.143e-06 0.000700204 6.01913e-08)
(-1.18219e-06 0.0007003 5.96729e-08)
(-1.22755e-06 0.000700441 5.69062e-08)
(-1.25849e-06 0.00070064 5.46647e-08)
(-1.29319e-06 0.000700909 4.96224e-08)
(-1.30852e-06 0.000701255 4.50466e-08)
(-1.32595e-06 0.000701699 3.75357e-08)
(-1.31568e-06 0.000702244 3.02954e-08)
(-1.29786e-06 0.000702923 1.9942e-08)
(-1.24441e-06 0.000703728 9.19435e-09)
(-1.17243e-06 0.000704719 -6.63977e-09)
(-1.04887e-06 0.000705861 -2.50243e-08)
(-8.88032e-07 0.000707226 -5.53463e-08)
(-6.47739e-07 0.000708785 -9.61006e-08)
(-3.40353e-07 0.000710606 -1.5362e-07)
(8.48897e-08 0.000712664 -2.13304e-07)
(6.568e-07 0.000715118 -2.5704e-07)
(1.49594e-06 0.000717818 -3.08012e-07)
(2.75939e-06 0.00073369 -3.69338e-07)
(4.40448e-06 0.000795236 -6.31019e-07)
(5.90264e-06 0.000899492 -1.28799e-06)
(6.29262e-06 0.000994613 -1.82629e-06)
(6.07686e-06 0.00116683 -1.66629e-06)
(1.32918e-05 0.00158861 -7.52692e-06)
(1.73218e-05 0.00212274 -1.86875e-05)
(1.6106e-05 0.00247108 -1.78521e-05)
(-8.48839e-06 0.00263447 -1.09534e-05)
(-6.51772e-05 0.00276855 -5.58013e-06)
(-9.58078e-05 0.00285573 2.14216e-05)
(-0.000379237 0.00333233 2.15683e-05)
(0.000116106 0.00428987 0.000207615)
(-0.000363753 0.0123661 -0.000284578)
(0.0132014 0.100941 0.00875507)
(-0.0278698 0.607088 -0.0149617)
(-0.0521969 0.464954 -0.0349536)
(-0.000787122 0.0239182 -0.00338557)
(-6.93927e-05 0.00839034 8.9926e-05)
(-0.000573721 0.00781 -0.000174001)
(-0.00029796 0.0077957 -0.000245359)
(-2.80163e-05 0.00791555 5.76409e-05)
(6.0707e-06 0.0082852 6.92287e-05)
(-1.87055e-05 0.00868624 2.09923e-06)
(0.000171215 0.00870041 -4.14267e-05)
(0.000149921 0.00893509 -8.77304e-05)
(0.000105802 0.00939698 -0.000276989)
(4.31562e-05 0.00889854 1.07811e-05)
(-0.000114819 0.00897602 1.08641e-05)
(-0.000379253 0.00915171 6.75211e-07)
(-0.000152937 0.00933536 5.90214e-06)
(-0.000141025 0.00931643 -9.76819e-06)
(-0.000573858 0.00932551 -0.000251831)
(-0.000384678 0.00938061 -0.000414765)
(-7.097e-05 0.00922493 -6.53025e-05)
(-2.97514e-05 0.00911768 -8.15506e-05)
(-1.19592e-06 0.00902786 -9.2327e-05)
(1.53321e-05 0.00895737 -8.66498e-05)
(8.0003e-06 0.00888154 -7.092e-05)
(-1.02565e-05 0.00880407 -5.31398e-05)
(-2.87764e-05 0.00876166 -4.77313e-05)
(-6.35085e-05 0.00875428 -4.25792e-05)
(-7.77703e-05 0.00876926 -3.52553e-05)
(-8.92651e-05 0.00876639 -2.23855e-05)
(-7.66117e-05 0.00878247 -1.9447e-05)
(-2.3561e-05 0.00885849 -3.63374e-05)
(2.19545e-05 0.00893782 -3.77179e-05)
(3.62632e-05 0.00899721 -3.889e-05)
(3.12437e-05 0.00879961 -3.27423e-05)
(3.89878e-05 0.00795822 3.30602e-06)
(3.59293e-05 0.00684944 1.39545e-05)
(-6.23343e-07 0.000641516 1.06884e-06)
(-4.39237e-07 0.000643287 5.43823e-07)
(-6.09928e-07 0.000655656 -4.90744e-08)
(-2.65e-07 0.000665716 -7.39892e-08)
(-5.11974e-07 0.000673337 -3.38703e-07)
(-4.73072e-07 0.000680992 -2.5529e-07)
(-7.42823e-07 0.000687743 -1.77803e-07)
(-6.78058e-07 0.000692351 -4.79621e-08)
(-7.86223e-07 0.000693301 1.1009e-07)
(-7.66808e-07 0.000694868 1.13933e-07)
(-8.46079e-07 0.000697296 6.28789e-08)
(-9.21264e-07 0.000699373 4.16325e-08)
(-9.61984e-07 0.000700425 5.39196e-08)
(-9.93932e-07 0.000700642 7.276e-08)
(-1.01719e-06 0.000700614 7.69545e-08)
(-1.04536e-06 0.00070056 8.25165e-08)
(-1.07632e-06 0.000700505 8.09747e-08)
(-1.11529e-06 0.000700442 8.57261e-08)
(-1.15979e-06 0.000700379 8.36152e-08)
(-1.20945e-06 0.000700314 8.92555e-08)
(-1.26537e-06 0.00070025 8.61088e-08)
(-1.32274e-06 0.000700191 9.20929e-08)
(-1.38671e-06 0.000700138 8.75072e-08)
(-1.44914e-06 0.000700099 9.41327e-08)
(-1.51793e-06 0.000700075 8.74923e-08)
(-1.58226e-06 0.000700073 9.44936e-08)
(-1.65241e-06 0.000700098 8.64057e-08)
(-1.71446e-06 0.000700157 9.3492e-08)
(-1.78057e-06 0.000700257 8.16597e-08)
(-1.83426e-06 0.000700406 8.75775e-08)
(-1.88944e-06 0.000700614 7.18478e-08)
(-1.92619e-06 0.000700895 7.60317e-08)
(-1.96104e-06 0.000701252 5.47284e-08)
(-1.96907e-06 0.000701714 5.76307e-08)
(-1.97036e-06 0.000702283 3.0718e-08)
(-1.93095e-06 0.00070299 2.92919e-08)
(-1.87365e-06 0.000703833 -4.23131e-09)
(-1.76011e-06 0.000704864 -1.14049e-08)
(-1.61376e-06 0.000706058 -5.29326e-08)
(-1.39183e-06 0.000707491 -7.05384e-08)
(-1.11479e-06 0.000709126 -1.20951e-07)
(-7.47288e-07 0.000711036 -1.33949e-07)
(-2.98005e-07 0.000713234 -1.64189e-07)
(2.76591e-07 0.000715828 -1.6124e-07)
(9.96805e-07 0.000719285 -1.97804e-07)
(1.96497e-06 0.000725076 -3.02186e-07)
(3.14832e-06 0.00073743 -5.09863e-07)
(4.28001e-06 0.000756092 -8.37341e-07)
(5.62128e-06 0.000829633 -1.00467e-06)
(1.00375e-05 0.00119087 -4.09191e-07)
(2.88822e-05 0.00187011 -1.82812e-05)
(3.6017e-05 0.00241572 -3.58735e-05)
(1.12315e-05 0.00262939 -3.19325e-05)
(-1.91068e-05 0.00267067 -1.52636e-05)
(-2.46262e-07 0.00277393 3.20423e-06)
(4.35772e-05 0.00267227 1.90529e-06)
(-0.000324363 0.00366215 -5.88733e-06)
(-5.20295e-05 0.00500898 -0.000105594)
(-0.000646423 0.0123055 -0.000258269)
(0.0185668 0.120118 0.0088735)
(-0.049719 0.682525 -0.0439248)
(-0.0575597 0.472442 -0.0317202)
(-0.000776469 0.0290747 -0.000936008)
(0.000149799 0.0282673 -0.000277466)
(0.00956109 0.388602 0.00837507)
(0.0131184 0.435773 -0.00259743)
(0.000457718 0.0325857 -0.000131514)
(0.000189295 0.029836 0.000116075)
(-0.00498206 0.405739 0.00150469)
(-0.00307323 0.371566 0.000239643)
(0.000716902 0.026246 2.06964e-05)
(0.000472021 0.0298269 -0.000197276)
(0.00248882 0.234958 -0.00131648)
(0.00795902 0.480257 -0.00193418)
(0.00502318 0.440041 0.00183772)
(-0.000270368 0.0319201 -9.81249e-06)
(-0.000580865 0.0292086 -0.000353296)
(-0.000425717 0.222962 -0.000196075)
(-0.00214021 0.351149 -0.00219873)
(-0.000208801 0.0335112 -0.0012408)
(-0.000147101 0.00909426 -0.00112558)
(-0.00024487 0.00902163 -0.000841601)
(-0.00044927 0.00874845 -9.57368e-05)
(-0.000688018 0.00867512 -9.33939e-05)
(-0.000142283 0.00867344 -4.98064e-05)
(-0.000162653 0.00867273 -4.81918e-05)
(-0.000144938 0.008703 -4.38454e-05)
(-0.000127101 0.00875708 -4.6814e-05)
(-0.000104498 0.00873326 -3.36237e-05)
(-6.91179e-05 0.00874026 -4.44291e-05)
(-3.43716e-05 0.00883419 -5.02229e-05)
(-3.3435e-06 0.00894505 -2.44997e-05)
(5.99553e-06 0.00904544 -1.05893e-05)
(4.51563e-06 0.00899061 -3.12714e-06)
(1.47455e-05 0.00836678 -2.3993e-07)
(3.47277e-06 0.00734982 5.43145e-06)
(-6.64636e-07 0.000619608 9.06976e-07)
(-5.85243e-08 0.000621905 3.69909e-07)
(-7.58299e-07 0.000637864 1.65707e-07)
(-2.75022e-07 0.000647771 1.65415e-07)
(-4.14378e-07 0.00065435 -5.44724e-08)
(-4.7017e-07 0.000664083 -1.46544e-07)
(-6.27823e-07 0.00067668 -2.2458e-07)
(-7.78149e-07 0.000688881 -2.91832e-08)
(-8.68726e-07 0.000695045 7.97958e-08)
(-8.78487e-07 0.000697454 9.1149e-08)
(-9.54045e-07 0.000698098 3.22551e-08)
(-1.08632e-06 0.000699233 4.16089e-09)
(-1.19123e-06 0.000700261 2.14617e-08)
(-1.2793e-06 0.000700559 4.01396e-08)
(-1.34485e-06 0.000700569 5.32217e-08)
(-1.4103e-06 0.000700527 5.27951e-08)
(-1.46803e-06 0.000700476 5.73874e-08)
(-1.53199e-06 0.000700411 5.41669e-08)
(-1.5951e-06 0.000700346 5.99598e-08)
(-1.66557e-06 0.000700274 5.59312e-08)
(-1.73544e-06 0.000700208 6.18149e-08)
(-1.81288e-06 0.000700144 5.60244e-08)
(-1.88959e-06 0.000700091 6.16295e-08)
(-1.97354e-06 0.000700049 5.32655e-08)
(-2.054e-06 0.000700026 5.88857e-08)
(-2.14034e-06 0.000700023 4.86657e-08)
(-2.22072e-06 0.000700052 5.3163e-08)
(-2.30509e-06 0.000700114 3.93203e-08)
(-2.37912e-06 0.000700222 4.35909e-08)
(-2.45333e-06 0.000700378 2.63188e-08)
(-2.51134e-06 0.000700597 2.89983e-08)
(-2.5642e-06 0.000700889 6.62184e-09)
(-2.59318e-06 0.000701267 6.37605e-09)
(-2.60876e-06 0.000701747 -2.20715e-08)
(-2.59829e-06 0.00070234 -2.54173e-08)
(-2.55001e-06 0.000703075 -6.09947e-08)
(-2.45342e-06 0.000703954 -7.0341e-08)
(-2.31538e-06 0.000705015 -1.15682e-07)
(-2.11537e-06 0.000706258 -1.30114e-07)
(-1.86771e-06 0.000707735 -1.79073e-07)
(-1.55884e-06 0.00070942 -1.85625e-07)
(-1.21964e-06 0.000711389 -2.10608e-07)
(-8.28678e-07 0.000713671 -1.87068e-07)
(-4.12431e-07 0.000716522 -2.23594e-07)
(1.00885e-08 0.000720637 -2.66309e-07)
(3.64674e-07 0.000726399 -4.53713e-07)
(7.33717e-07 0.000735423 -5.70271e-07)
(1.32501e-06 0.000745856 -8.81687e-07)
(4.65634e-06 0.000940076 -3.78653e-07)
(1.64045e-05 0.00157118 -3.75223e-06)
(4.02743e-05 0.00229311 -3.86273e-05)
(1.76764e-05 0.00262278 -5.00813e-05)
(1.77607e-05 0.00269557 -2.92602e-05)
(2.58921e-05 0.00274048 -4.58144e-05)
(7.21216e-05 0.00282798 -9.57252e-05)
(0.000143697 0.00259881 -4.93684e-05)
(4.19775e-05 0.00367007 0.000249902)
(-0.000369115 0.00570093 0.000141974)
(-0.000261287 0.0112482 -0.000205721)
(0.0260231 0.152578 0.0105742)
(-0.040924 0.695055 -0.0440988)
(-0.0272422 0.535501 -0.00860858)
(-0.0162624 0.5728 0.00181503)
(0.00641289 0.542832 0.000499973)
(0.00751162 0.547793 -0.00662771)
(0.00632453 0.54713 -0.0134786)
(0.00177295 0.564883 -0.00188505)
(0.00149623 0.553859 0.00226821)
(-0.0040126 0.542617 -0.00150965)
(-0.00820022 0.533916 -0.00024448)
(-0.00664501 0.536371 4.3202e-05)
(-0.000317236 0.533622 0.000112632)
(0.00328328 0.534729 0.000468872)
(0.00603748 0.540387 0.00167154)
(0.00567722 0.543452 0.00547805)
(0.00457572 0.543135 0.00752738)
(0.00336331 0.543973 0.00915916)
(-0.000882151 0.542706 0.00838304)
(-0.00627508 0.541334 0.00677527)
(-0.0142502 0.539049 0.00500609)
(-0.0195156 0.531331 0.00194877)
(-0.0152789 0.515095 0.00220446)
(-0.0139006 0.472204 -0.000374328)
(-0.0140583 0.307178 -0.00404866)
(-0.000208643 0.0303453 -0.000163083)
(-0.000308749 0.00949088 -0.000569003)
(-0.000329725 0.00938107 -0.000716728)
(-0.000388119 0.00894978 -0.000700282)
(-0.000345523 0.00896339 -0.000512007)
(-0.000255805 0.00889492 -0.000339178)
(-0.000167766 0.00868217 -1.54213e-05)
(-2.21617e-05 0.00879252 -7.60721e-06)
(-2.41093e-05 0.00893852 -1.11354e-06)
(-2.08564e-05 0.00890875 -4.09291e-06)
(-4.54834e-05 0.00827838 -5.04346e-06)
(-6.72872e-05 0.00726379 2.58404e-06)
(-1.04862e-06 0.000591593 7.96903e-07)
(3.00212e-07 0.000592764 1.31475e-07)
(-6.09833e-07 0.000610018 2.34453e-07)
(-2.64212e-07 0.000623458 2.21149e-07)
(-4.86093e-07 0.00063584 2.19542e-07)
(-5.30641e-07 0.000647656 -1.95082e-07)
(-6.58548e-07 0.000654401 -5.95268e-08)
(-8.67392e-07 0.000667147 -1.21356e-09)
(-9.42006e-07 0.000684345 1.73013e-07)
(-1.03023e-06 0.000696044 1.83933e-07)
(-1.05003e-06 0.000699179 7.47118e-08)
(-1.14601e-06 0.000699682 -3.08361e-09)
(-1.29731e-06 0.000700084 -5.57244e-09)
(-1.42052e-06 0.000700279 1.56841e-08)
(-1.5308e-06 0.000700293 2.3282e-08)
(-1.63085e-06 0.000700243 2.82133e-08)
(-1.72068e-06 0.000700189 2.25201e-08)
(-1.80321e-06 0.000700121 2.34095e-08)
(-1.88484e-06 0.000700052 1.53815e-08)
(-1.9649e-06 0.000699979 1.824e-08)
(-2.04905e-06 0.00069991 1.03398e-08)
(-2.13454e-06 0.000699846 1.32763e-08)
(-2.22311e-06 0.00069979 3.01103e-09)
(-2.31166e-06 0.000699748 6.47632e-09)
(-2.40371e-06 0.000699724 -6.12012e-09)
(-2.4933e-06 0.000699726 -2.99829e-09)
(-2.58357e-06 0.000699757 -1.83945e-08)
(-2.66739e-06 0.000699828 -1.53663e-08)
(-2.74782e-06 0.000699943 -3.31386e-08)
(-2.8172e-06 0.000700115 -3.07133e-08)
(-2.87704e-06 0.000700349 -5.27193e-08)
(-2.91785e-06 0.000700663 -5.17714e-08)
(-2.93973e-06 0.000701064 -7.78389e-08)
(-2.93021e-06 0.00070157 -7.87319e-08)
(-2.88246e-06 0.000702209 -1.05227e-07)
(-2.80335e-06 0.000703001 -1.17673e-07)
(-2.67647e-06 0.000703937 -1.62847e-07)
(-2.49062e-06 0.00070506 -1.81546e-07)
(-2.24907e-06 0.000706369 -2.31036e-07)
(-1.95866e-06 0.000707913 -2.50845e-07)
(-1.63514e-06 0.000709681 -2.918e-07)
(-1.31932e-06 0.000711689 -2.93879e-07)
(-1.05065e-06 0.000713998 -3.28468e-07)
(-8.44357e-07 0.000716984 -3.71819e-07)
(-8.39156e-07 0.000721436 -4.66699e-07)
(-1.14079e-06 0.000728264 -5.89142e-07)
(-1.7456e-06 0.000736915 -7.06605e-07)
(-1.26004e-06 0.000827752 -5.29631e-07)
(2.3643e-06 0.00129305 -1.19844e-06)
(8.00432e-06 0.00209836 -1.43976e-05)
(-4.9763e-06 0.00261163 -3.87376e-05)
(6.05773e-06 0.00274047 -1.24501e-05)
(5.51079e-05 0.00276107 6.55096e-06)
(4.69273e-05 0.0028185 -4.18145e-05)
(8.16925e-05 0.00282811 -7.07596e-05)
(0.000124741 0.00248127 -2.41423e-05)
(0.000563689 0.0032841 0.000403452)
(0.000180335 0.00527087 0.000460319)
(-0.000982732 0.015004 -8.42858e-05)
(0.0217977 0.193216 0.00774709)
(-0.0223207 0.696412 -0.0304424)
(-0.0109375 0.52385 0.000492915)
(-0.019169 0.574187 -0.010099)
(-0.00733377 0.559416 -0.00970668)
(0.00589416 0.570118 -0.00858051)
(0.00999982 0.555234 -0.000106805)
(0.00678507 0.539546 -0.00120158)
(0.000245315 0.551477 -0.00420126)
(-0.00314963 0.548038 -0.0010871)
(-0.00327889 0.538342 -0.00172817)
(-0.00743646 0.537469 -0.00160164)
(-0.00895176 0.539353 -0.00156597)
(-0.00821453 0.537108 -0.000897969)
(-0.00821792 0.536261 0.00227297)
(-0.00882958 0.536382 0.00404731)
(-0.00721773 0.536811 0.00613474)
(-0.00691476 0.537698 0.00701901)
(-0.00829005 0.537886 0.00443223)
(-0.0105979 0.536911 0.00286521)
(-0.0114199 0.537492 -0.00247378)
(-0.0109774 0.538916 -0.00552993)
(-0.00959526 0.539458 -0.00655197)
(-0.0058621 0.534527 -0.00739996)
(-0.00646395 0.529116 -0.00668858)
(-0.00066452 0.522556 -0.00365111)
(0.00213662 0.518973 -0.00122233)
(0.00391133 0.519297 0.00200868)
(0.0034286 0.522328 0.00233544)
(-0.000700982 0.51139 0.000656937)
(-0.00374819 0.474808 -0.00117009)
(-0.00391229 0.323309 -0.00185269)
(-0.000200646 0.0294071 -7.8428e-05)
(-0.000220805 0.00768902 -7.58774e-05)
(-0.000241945 0.00790695 -6.7444e-05)
(-6.33385e-05 0.00733104 1.03468e-05)
(-7.20754e-05 0.00655387 8.84795e-06)
(-1.62275e-06 0.000566775 5.87202e-08)
(3.09767e-07 0.000563307 -1.11584e-07)
(-8.30095e-07 0.000573396 3.56517e-08)
(-6.33852e-07 0.000588625 -2.15713e-07)
(-1.10551e-06 0.000612125 6.15745e-08)
(-7.46104e-07 0.00063421 -1.7529e-07)
(-7.79696e-07 0.000642079 -7.5629e-08)
(-1.07632e-06 0.00064709 -1.08598e-07)
(-1.16154e-06 0.000660995 1.71391e-07)
(-1.17279e-06 0.000682537 2.56847e-07)
(-1.23197e-06 0.000696322 2.15471e-07)
(-1.24491e-06 0.000699952 8.92125e-08)
(-1.31035e-06 0.00070037 4.24153e-08)
(-1.41327e-06 0.000700436 2.85526e-08)
(-1.51957e-06 0.000700433 3.06371e-08)
(-1.62972e-06 0.000700397 2.19255e-08)
(-1.73739e-06 0.000700354 1.55746e-08)
(-1.83961e-06 0.000700291 3.09657e-14)
(-1.93604e-06 0.000700229 -7.84074e-09)
(-2.03036e-06 0.000700157 -2.17063e-08)
(-2.1254e-06 0.000700089 -2.40785e-08)
(-2.21937e-06 0.000700022 -3.31196e-08)
(-2.3112e-06 0.000699966 -3.28665e-08)
(-2.40119e-06 0.000699924 -4.36075e-08)
(-2.49314e-06 0.000699905 -4.18346e-08)
(-2.58099e-06 0.000699913 -5.47573e-08)
(-2.66887e-06 0.000699958 -5.46795e-08)
(-2.74973e-06 0.000700042 -7.06492e-08)
(-2.82637e-06 0.000700178 -7.16384e-08)
(-2.88912e-06 0.000700372 -9.01549e-08)
(-2.94024e-06 0.000700638 -9.25096e-08)
(-2.96788e-06 0.000700987 -1.15333e-07)
(-2.97232e-06 0.000701436 -1.21561e-07)
(-2.93719e-06 0.000702006 -1.51476e-07)
(-2.85951e-06 0.0007027 -1.6964e-07)
(-2.73792e-06 0.000703551 -2.03046e-07)
(-2.56481e-06 0.00070458 -2.19833e-07)
(-2.31668e-06 0.000705801 -2.58815e-07)
(-2.01401e-06 0.000707185 -2.76565e-07)
(-1.64371e-06 0.000708748 -3.12287e-07)
(-1.25729e-06 0.00071049 -3.28706e-07)
(-8.79482e-07 0.000712423 -3.56529e-07)
(-6.43923e-07 0.000714614 -3.85438e-07)
(-5.59238e-07 0.000717509 -4.29109e-07)
(-9.18051e-07 0.000721895 -4.97461e-07)
(-2.07105e-06 0.000728215 -6.09117e-07)
(-3.40075e-06 0.000750675 -6.10242e-07)
(-1.93821e-06 0.00103622 -4.5545e-08)
(2.551e-06 0.00176935 -2.69889e-06)
(-1.38767e-05 0.00247955 -1.04426e-05)
(-3.05329e-05 0.00276444 -1.62771e-05)
(1.52956e-05 0.00280342 1.3663e-05)
(-5.22022e-05 0.00284483 -1.56936e-05)
(-4.35875e-05 0.00292524 -1.58029e-05)
(3.0574e-05 0.00291953 1.95374e-05)
(3.25956e-05 0.00288322 6.30995e-05)
(0.000436004 0.00348085 6.70259e-05)
(0.000650605 0.00221498 0.000313031)
(-0.000245152 0.00934791 0.000380371)
(0.00939369 0.232921 -0.00168493)
(-0.0179074 0.67545 -0.0235924)
(-0.0119322 0.550297 -0.00424847)
(-0.010191 0.569168 -0.00467342)
(0.00337032 0.552951 -0.00081953)
(0.0133882 0.545253 0.00109752)
(0.00898206 0.543932 0.000594378)
(0.00404873 0.541337 0.000330007)
(0.00527467 0.547104 -0.000397813)
(0.000712126 0.551905 -0.000856694)
(-0.000564442 0.542556 -0.00123904)
(-0.000346201 0.546471 -0.00250656)
(-0.00195762 0.55002 -0.00266856)
(-0.00380289 0.539782 -0.00250361)
(-0.00573665 0.538433 -0.00149551)
(-0.00647108 0.540124 -0.000533841)
(-0.00813247 0.536506 0.00160794)
(-0.00878654 0.534509 0.00361301)
(-0.00854233 0.532387 0.00407142)
(-0.00923161 0.530485 0.00355879)
(-0.011216 0.529212 0.00181585)
(-0.0128116 0.526366 -0.000560637)
(-0.00910698 0.532415 -0.0048782)
(-0.00183726 0.538836 -0.0058883)
(-0.00209518 0.542147 -0.00474818)
(0.0019958 0.540939 -0.00512573)
(0.00272964 0.543419 -0.00728094)
(0.000639862 0.549755 -0.00161265)
(-0.00112878 0.542004 0.001304)
(-0.00507572 0.537267 0.00752094)
(-0.00745602 0.536247 0.00738847)
(-0.0090491 0.522763 0.00316505)
(-0.00965973 0.501591 0.000820246)
(-0.0123494 0.468145 0.00188787)
(-0.0140893 0.322671 0.00209795)
(-0.000460711 0.0273373 -0.000156972)
(-0.000277665 0.00559288 -0.0004135)
(-2.86309e-06 0.000555961 -1.277e-06)
(-6.67389e-08 0.000548532 2.79397e-07)
(-1.43983e-06 0.000541688 -2.56866e-07)
(-1.09577e-06 0.000548877 -8.58188e-08)
(-1.58503e-06 0.000575492 -2.3605e-07)
(-1.37319e-06 0.000610604 -8.35346e-08)
(-1.43939e-06 0.000631193 1.65397e-09)
(-1.31804e-06 0.000635937 -1.28388e-07)
(-1.47572e-06 0.000640993 5.37637e-08)
(-1.36593e-06 0.000661617 2.16701e-07)
(-1.36053e-06 0.000685967 2.08335e-07)
(-1.35837e-06 0.00069785 1.19567e-07)
(-1.40875e-06 0.000700166 6.41286e-08)
(-1.51395e-06 0.000700371 5.00086e-08)
(-1.61286e-06 0.000700376 5.04842e-08)
(-1.72531e-06 0.000700326 5.34484e-08)
(-1.8329e-06 0.00070029 5.25602e-08)
(-1.94217e-06 0.000700254 5.34809e-08)
(-2.04041e-06 0.000700213 4.75296e-08)
(-2.13956e-06 0.000700161 4.61392e-08)
(-2.2319e-06 0.000700112 4.03094e-08)
(-2.32616e-06 0.000700067 4.08935e-08)
(-2.41482e-06 0.000700031 2.99209e-08)
(-2.50929e-06 0.000700015 2.51024e-08)
(-2.59915e-06 0.000700025 1.3584e-08)
(-2.69398e-06 0.000700046 8.55628e-09)
(-2.78085e-06 0.000700089 -5.73492e-09)
(-2.86744e-06 0.000700175 -1.18759e-08)
(-2.93832e-06 0.000700313 -2.87015e-08)
(-3.00171e-06 0.000700516 -3.7387e-08)
(-3.03842e-06 0.000700792 -5.79212e-08)
(-3.05729e-06 0.000701159 -7.07023e-08)
(-3.03592e-06 0.000701629 -9.68566e-08)
(-2.9842e-06 0.000702226 -1.16065e-07)
(-2.87861e-06 0.000702963 -1.51042e-07)
(-2.71127e-06 0.000703865 -1.77368e-07)
(-2.46245e-06 0.000704942 -2.15479e-07)
(-2.14194e-06 0.000706205 -2.42351e-07)
(-1.72859e-06 0.000707645 -2.76642e-07)
(-1.24549e-06 0.000709266 -3.01373e-07)
(-6.88214e-07 0.000711049 -3.27398e-07)
(-1.12912e-07 0.000712992 -3.38261e-07)
(4.01828e-07 0.000715111 -3.13185e-07)
(5.84819e-07 0.000717623 -2.10962e-07)
(-8.65625e-08 0.000722102 -4.50988e-09)
(-2.6602e-06 0.000721964 2.02227e-07)
(-3.9139e-06 0.00090053 7.53803e-07)
(-2.97613e-06 0.00153124 -3.77736e-06)
(-2.26458e-05 0.00232387 -1.37206e-05)
(-4.38657e-05 0.00272369 2.00774e-05)
(-4.88665e-05 0.00277517 3.6709e-06)
(-7.54263e-05 0.00286091 -3.49381e-05)
(-0.000118465 0.00293226 -2.22512e-05)
(-8.29025e-05 0.0029535 9.9856e-06)
(-5.72512e-05 0.00293329 4.15952e-05)
(-7.55142e-05 0.00298538 0.000157474)
(-0.000540777 0.00460376 0.000181103)
(0.000240956 0.00635373 0.000293005)
(-0.000769449 0.0102368 0.00045009)
(-0.0232119 0.277657 -0.010544)
(-0.0155271 0.655049 -0.0128815)
(-0.00932418 0.547884 -0.00102851)
(0.00131488 0.55023 0.000467126)
(0.00842928 0.541783 0.00343288)
(0.0141728 0.534361 0.00586458)
(0.00882962 0.539092 0.001351)
(0.00533606 0.544192 -0.000993128)
(0.00396119 0.548589 -0.000618141)
(0.00259644 0.550827 -0.000944169)
(0.00126855 0.55191 -0.00119923)
(0.00167098 0.549869 -0.000649902)
(0.00212362 0.54816 -0.00386748)
(0.00135144 0.546299 -0.00614236)
(0.000316057 0.548875 -0.00570186)
(-0.000419598 0.546919 -0.00308963)
(-0.00135277 0.544595 -0.00217852)
(-0.00158928 0.542514 -0.00226147)
(-0.00276078 0.541353 -0.00225755)
(-0.00275091 0.541319 -0.00148437)
(-0.00411105 0.540065 -0.00100199)
(-0.0076505 0.539057 -0.000837024)
(-0.0110114 0.535953 -0.00185424)
(-0.00970829 0.534823 -0.00520513)
(-0.0119778 0.535584 -0.00664453)
(-0.00351235 0.540794 -0.0052077)
(-0.00170462 0.542362 -0.00301817)
(-0.00142116 0.543918 0.00160212)
(-0.000250867 0.545569 0.0051363)
(-0.000723881 0.544633 0.00858693)
(-0.00596791 0.538685 0.0111186)
(-0.00968471 0.5357 0.00760189)
(-0.0139787 0.531108 0.00585412)
(-0.022001 0.521111 0.00335044)
(-0.0266134 0.508726 -0.00242781)
(-0.0208582 0.479744 -0.0124251)
(-0.0117107 0.461168 -0.0211946)
(-4.38709e-06 0.000291449 -2.19225e-06)
(1.73619e-06 0.000571333 1.13499e-06)
(-1.70579e-06 0.000535867 -5.6465e-07)
(-1.21197e-06 0.000528296 2.58065e-07)