/*--------------------------------*- C++ -*----------------------------------*\
| =========                 |                                                 |
| \\      /  F ield         | OpenFOAM: The Open Source CFD Toolbox           |
|  \\    /   O peration     | Version:  2.3.0                                 |
|   \\  /    A nd           | Web:      www.OpenFOAM.org                      |
|    \\/     M anipulation  |                                                 |
\*---------------------------------------------------------------------------*/
FoamFile
{
    version     2.0;
    format      ascii;
    class       volVectorField;
    location    "11";
    object      Ur;
}
// * * * * * * * * * * * * * * * * * * * * * * * * * * * * * * * * * * * * * //

dimensions      [0 1 -1 0 0 0 0];

internalField   nonuniform List<vector> 
6144
(
(-1.71089e-07 0.000531025 -1.2162e-07)
(-9.75646e-08 0.000539058 -1.03447e-07)
(1.12565e-08 0.000549144 1.62089e-08)
(-2.76486e-08 0.000555777 4.90312e-08)
(-6.05648e-08 0.000560493 1.43972e-07)
(-7.61321e-08 0.000563261 1.32893e-07)
(-8.80329e-08 0.000563862 7.43972e-08)
(-8.55897e-08 0.000564033 5.78767e-08)
(-1.04566e-07 0.000564095 5.83297e-09)
(-1.07258e-07 0.000564156 -1.51155e-08)
(-1.09872e-07 0.000564207 -2.25881e-08)
(-1.10399e-07 0.000564251 -2.06272e-08)
(-1.07174e-07 0.000564264 -2.26009e-08)
(-1.0874e-07 0.000564267 -2.61642e-08)
(-1.07456e-07 0.000564271 -3.2892e-08)
(-1.09473e-07 0.000564286 -3.88307e-08)
(-1.06613e-07 0.000564307 -4.36128e-08)
(-1.07129e-07 0.000564336 -4.8129e-08)
(-1.04999e-07 0.000564367 -5.09047e-08)
(-1.05422e-07 0.0005644 -5.39779e-08)
(-1.03763e-07 0.000564437 -5.55363e-08)
(-1.04364e-07 0.000564474 -5.76011e-08)
(-1.02669e-07 0.000564514 -5.83254e-08)
(-1.03422e-07 0.000564556 -5.97971e-08)
(-1.01634e-07 0.000564598 -5.99858e-08)
(-1.02527e-07 0.000564641 -6.12099e-08)
(-1.00705e-07 0.000564686 -6.11357e-08)
(-1.01692e-07 0.000564733 -6.22357e-08)
(-9.9862e-08 0.000564783 -6.20313e-08)
(-1.00907e-07 0.000564835 -6.30233e-08)
(-9.90568e-08 0.000564891 -6.26966e-08)
(-1.00123e-07 0.000564949 -6.36891e-08)
(-9.80535e-08 0.000565011 -6.31287e-08)
(-9.95681e-08 0.000565072 -6.39556e-08)
(-9.67585e-08 0.000565143 -6.32833e-08)
(-9.97671e-08 0.000565206 -6.37807e-08)
(-9.46227e-08 0.000565299 -6.27342e-08)
(-9.96301e-08 0.000565355 -6.32921e-08)
(-9.31531e-08 0.000565484 -6.10551e-08)
(-9.95252e-08 0.000565511 -6.20516e-08)
(-9.20449e-08 0.000565701 -5.65185e-08)
(-1.02533e-07 0.000565678 -6.02675e-08)
(-9.55861e-08 0.000565964 -5.32494e-08)
(-1.06196e-07 0.000565835 -5.34863e-08)
(-9.95385e-08 0.00056627 -4.90474e-08)
(-1.24836e-07 0.000566013 -5.08391e-08)
(-1.14767e-07 0.000566564 -5.31044e-08)
(-1.73859e-07 0.00056654 -8.4686e-08)
(-1.63093e-07 0.000567081 -9.52986e-08)
(-2.53157e-07 0.000567421 -1.15172e-07)
(-2.21175e-07 0.000568404 -7.19809e-08)
(-2.28635e-07 0.000622449 -1.15566e-07)
(-6.71633e-07 0.000981955 2.10364e-07)
(-2.93079e-06 0.00165819 -1.39748e-06)
(1.2903e-06 0.00240612 -2.76727e-07)
(-1.24202e-05 0.00328614 -1.0614e-05)
(2.70342e-05 0.00565489 2.53023e-05)
(0.00010983 0.00966902 -1.3209e-05)
(0.000575288 0.023497 0.00195408)
(0.00633476 0.135939 0.0163294)
(-0.0407603 0.58082 0.0211017)
(-0.0496143 0.499198 0.00613941)
(-0.0788977 0.320907 0.0136198)
(3.65468e-05 0.0292636 3.12213e-05)
(-5.22638e-05 0.0085238 1.04653e-05)
(-9.03042e-05 0.00890128 -1.05373e-06)
(-6.53883e-05 0.00894496 -1.43393e-05)
(-3.78504e-05 0.00899756 -2.28603e-05)
(-2.42772e-05 0.00904216 -2.53749e-05)
(-1.9247e-05 0.00907369 -2.36599e-05)
(-1.5342e-05 0.00909682 -2.01202e-05)
(-8.80441e-06 0.0091186 -1.63057e-05)
(1.43535e-06 0.00914205 -1.33296e-05)
(8.64914e-06 0.00916404 -1.19382e-05)
(9.23661e-06 0.00917834 -1.12398e-05)
(6.76097e-06 0.0091862 -1.01904e-05)
(2.9853e-06 0.00918933 -9.14639e-06)
(3.28036e-06 0.0091884 -6.94918e-06)
(7.58847e-06 0.00918732 -5.2444e-06)
(8.19237e-06 0.00919463 -3.98827e-06)
(5.7633e-06 0.00921561 -3.10863e-06)
(2.30796e-06 0.00925124 -1.96055e-06)
(-1.62661e-06 0.00929772 -7.96286e-07)
(-4.66922e-06 0.00934534 -2.87128e-07)
(-7.26133e-06 0.00937884 1.95261e-07)
(-1.06579e-05 0.00939338 -8.26617e-07)
(-1.1433e-05 0.00939755 -1.81445e-06)
(-1.22993e-05 0.00933135 -4.92613e-06)
(-9.11746e-06 0.00869402 -5.62467e-06)
(-3.58202e-06 0.00672391 2.11415e-07)
(1.48187e-07 0.00437756 3.51858e-06)
(-6.157e-07 0.00335358 1.53359e-06)
(-8.51807e-07 0.00326473 -1.9722e-06)
(-8.87405e-07 0.00325286 -2.72214e-06)
(-9.6036e-08 0.00325461 -2.23021e-06)
(6.40023e-07 0.0032522 -1.84902e-06)
(1.09785e-07 0.000526123 2.93772e-07)
(3.63398e-07 0.000530262 2.69388e-07)
(2.02625e-08 0.000536723 1.70502e-07)
(-3.95655e-08 0.000544009 1.15341e-07)
(-1.65773e-07 0.00055192 1.71982e-07)
(-1.64514e-07 0.000557501 1.49055e-07)
(-1.89457e-07 0.000560209 1.70026e-07)
(-1.82048e-07 0.000562029 1.41149e-07)
(-1.88491e-07 0.000563136 8.90909e-08)
(-1.98699e-07 0.000563738 4.5264e-08)
(-1.97805e-07 0.000564076 3.53787e-08)
(-1.89599e-07 0.000564221 4.06327e-08)
(-1.71411e-07 0.000564255 4.20547e-08)
(-1.63452e-07 0.000564257 3.94888e-08)
(-1.51289e-07 0.000564251 3.1286e-08)
(-1.45466e-07 0.000564257 2.48211e-08)
(-1.34602e-07 0.000564271 1.69557e-08)
(-1.29759e-07 0.000564294 1.27834e-08)
(-1.22742e-07 0.00056432 7.20406e-09)
(-1.19436e-07 0.000564349 5.12253e-09)
(-1.1466e-07 0.000564382 1.29496e-09)
(-1.1214e-07 0.000564417 4.84054e-10)
(-1.08272e-07 0.000564455 -2.4107e-09)
(-1.06305e-07 0.000564494 -2.17794e-09)
(-1.02971e-07 0.000564535 -4.52852e-09)
(-1.01453e-07 0.000564577 -3.98412e-09)
(-9.85046e-08 0.000564621 -6.05567e-09)
(-9.73525e-08 0.000564668 -5.29194e-09)
(-9.46904e-08 0.000564718 -7.29093e-09)
(-9.3806e-08 0.00056477 -6.35642e-09)
(-9.1391e-08 0.000564827 -8.24823e-09)
(-9.10172e-08 0.000564886 -7.1456e-09)
(-8.8779e-08 0.000564947 -8.92572e-09)
(-8.9081e-08 0.000565009 -7.4814e-09)
(-8.61016e-08 0.00056508 -9.10194e-09)
(-8.90551e-08 0.000565145 -8.00875e-09)
(-8.08769e-08 0.000565239 -8.51349e-09)
(-9.04798e-08 0.000565299 -8.73824e-09)
(-7.68804e-08 0.000565429 -7.77809e-09)
(-9.37103e-08 0.000565464 -8.4202e-09)
(-7.50293e-08 0.00056566 -4.78308e-09)
(-1.03726e-07 0.000565636 -6.94544e-09)
(-7.74935e-08 0.00056594 8.46001e-10)
(-1.2682e-07 0.000565774 -3.2e-09)
(-9.3837e-08 0.000566226 -3.87881e-10)
(-1.76579e-07 0.000565866 8.37499e-09)
(-1.4181e-07 0.000566495 -2.01217e-08)
(-3.09589e-07 0.000566331 5.2222e-09)
(-2.41575e-07 0.000567153 -8.26997e-08)
(-4.80479e-07 0.000567514 -6.40545e-08)
(-3.12693e-07 0.000569307 -1.10021e-07)
(-4.94485e-08 0.000605605 7.44569e-09)
(-4.74789e-07 0.000927127 1.03649e-06)
(-4.64965e-06 0.00163817 3.24791e-07)
(-5.61953e-06 0.00242731 -3.77959e-07)
(-1.7092e-06 0.00326767 -6.75726e-06)
(-6.55777e-05 0.00601428 3.56601e-05)
(-5.80923e-05 0.0103633 -0.000186277)
(-0.00157498 0.024517 0.0016639)
(-0.00337093 0.118522 0.0104813)
(-0.0940216 0.571344 0.015289)
(-0.0638323 0.341283 0.00015251)
(-0.00326019 0.0226309 -0.000105636)
(3.48556e-05 0.00932111 -1.38838e-05)
(-7.01862e-05 0.0090731 -1.28202e-05)
(-8.68097e-05 0.00912475 -1.99882e-05)
(-5.53518e-05 0.0091649 -2.84496e-05)
(-3.22885e-05 0.00915438 -3.19825e-05)
(-1.77285e-05 0.00913611 -3.01584e-05)
(-7.95983e-06 0.00912077 -2.50597e-05)
(-4.41399e-06 0.00911663 -1.88183e-05)
(-1.2225e-06 0.00913227 -1.36537e-05)
(4.32941e-06 0.00916146 -1.2165e-05)
(9.57065e-06 0.00918215 -1.26474e-05)
(1.72103e-05 0.00918193 -1.19187e-05)
(3.37842e-05 0.00916921 -7.81625e-06)
(4.1566e-05 0.00915963 -2.30092e-06)
(2.62788e-05 0.00916666 -6.73871e-07)
(6.20396e-06 0.0091897 -3.14e-06)
(-2.77772e-06 0.00922849 -2.81441e-06)
(-5.50524e-06 0.00927684 -1.07907e-06)
(-5.59977e-06 0.00930889 5.3732e-07)
(-5.08337e-06 0.00931681 2.02248e-06)
(-5.03975e-06 0.00931424 2.57329e-06)
(-7.01931e-06 0.00930956 2.94108e-06)
(-1.05768e-05 0.0093148 2.64284e-06)
(-1.4842e-05 0.00933015 1.62006e-06)
(-2.0247e-05 0.00927821 -1.18497e-06)
(-1.95806e-05 0.00869172 -4.55463e-06)
(-8.20791e-06 0.006893 2.98612e-07)
(-1.95671e-06 0.00468171 1.35246e-06)
(-9.57369e-07 0.00357793 1.48737e-06)
(-1.03294e-06 0.00335749 -2.33805e-06)
(-1.90997e-07 0.00328428 -5.2024e-06)
(8.89384e-07 0.00326204 -5.72583e-06)
(3.72426e-06 0.00325186 -2.58989e-06)
(-3.38882e-07 0.00052637 1.78924e-06)
(1.59566e-07 0.00052842 9.80669e-07)
(-3.93415e-07 0.000533385 2.6346e-07)
(-1.35077e-07 0.000539336 4.98345e-08)
(-4.0255e-07 0.000545407 9.52255e-08)
(-3.0156e-07 0.000550456 1.16291e-07)
(-3.58896e-07 0.000553892 2.35507e-07)
(-3.10596e-07 0.00055714 2.31761e-07)
(-3.07076e-07 0.000559699 1.97592e-07)
(-3.15148e-07 0.000561732 1.36088e-07)
(-3.12163e-07 0.000563321 8.42101e-08)
(-3.06278e-07 0.0005641 8.34307e-08)
(-2.75181e-07 0.000564313 8.92612e-08)
(-2.52984e-07 0.000564337 8.90986e-08)
(-2.22079e-07 0.000564331 8.49804e-08)
(-2.0308e-07 0.00056433 7.91852e-08)
(-1.79659e-07 0.000564339 7.39773e-08)
(-1.67019e-07 0.000564355 6.93515e-08)
(-1.51519e-07 0.000564377 6.62145e-08)
(-1.43488e-07 0.000564405 6.32487e-08)
(-1.32769e-07 0.000564435 6.16246e-08)
(-1.26507e-07 0.000564468 5.9742e-08)
(-1.1805e-07 0.000564504 5.89347e-08)
(-1.13287e-07 0.000564541 5.78361e-08)
(-1.06331e-07 0.00056458 5.75244e-08)
(-1.02655e-07 0.000564621 5.66754e-08)
(-9.67642e-08 0.000564665 5.67344e-08)
(-9.40213e-08 0.000564712 5.61897e-08)
(-8.87666e-08 0.000564762 5.63593e-08)
(-8.65991e-08 0.000564815 5.59848e-08)
(-8.18786e-08 0.00056487 5.62477e-08)
(-8.04463e-08 0.000564927 5.56253e-08)
(-7.63256e-08 0.000564986 5.57151e-08)
(-7.61054e-08 0.000565047 5.53574e-08)
(-7.26016e-08 0.000565117 5.60059e-08)
(-7.42471e-08 0.000565185 5.5175e-08)
(-6.53207e-08 0.000565275 5.70931e-08)
(-7.70905e-08 0.000565333 5.32427e-08)
(-5.66836e-08 0.000565462 5.93255e-08)
(-8.30656e-08 0.000565487 5.18013e-08)
(-5.39969e-08 0.000565684 6.15755e-08)
(-9.64564e-08 0.000565673 4.90958e-08)
(-5.64497e-08 0.000565964 6.57288e-08)
(-1.34056e-07 0.000565819 4.52862e-08)
(-7.95242e-08 0.000566236 6.4087e-08)
(-2.10137e-07 0.000565859 4.56321e-08)
(-1.62629e-07 0.000566415 2.89076e-08)
(-3.95265e-07 0.000566271 7.2449e-08)
(-3.955e-07 0.000567282 -1.39894e-07)
(-6.62873e-07 0.000570535 3.52251e-08)
(-5.76887e-07 0.000585215 -1.98832e-07)
(1.72543e-07 0.00061962 2.88669e-08)
(7.75306e-07 0.000810679 1.25325e-06)
(-2.33435e-06 0.00145048 8.00179e-07)
(1.38976e-05 0.00256143 3.02533e-06)
(7.81853e-05 0.00333297 -1.19909e-05)
(-0.000118429 0.00556421 9.98445e-05)
(-0.000419427 0.00807928 -0.000145963)
(-0.00261933 0.0203877 0.000980723)
(0.00108589 0.110423 0.00588506)
(-0.0590086 0.54858 0.00819665)
(-0.00876235 0.302302 -0.00892087)
(-6.46499e-05 0.0228221 2.47876e-05)
(-0.000162046 0.00946854 2.28221e-05)
(-0.00025429 0.00923649 -2.37553e-05)
(-6.42909e-05 0.00934788 -2.80892e-05)
(-4.68752e-05 0.00941208 -3.73693e-05)
(-3.43133e-05 0.00943498 -4.07307e-05)
(-1.64573e-05 0.00945906 -4.01102e-05)
(-5.96792e-06 0.00946787 -3.79784e-05)
(8.41654e-07 0.00944625 -2.98302e-05)
(1.75679e-05 0.00939736 -2.02908e-05)
(3.96132e-05 0.00932476 -1.73083e-05)
(2.76156e-05 0.0092511 -1.68869e-05)
(6.45386e-06 0.0092319 -2.13042e-05)
(-4.84394e-06 0.0092962 -2.43802e-05)
(-1.12002e-05 0.009359 -1.76674e-05)
(-1.63578e-05 0.00933677 -1.02613e-05)
(-1.67674e-05 0.00928556 -5.25853e-06)
(-1.4636e-05 0.00924113 -6.13231e-06)
(-8.99183e-06 0.00922029 -5.16507e-06)
(-2.69111e-06 0.00921837 -2.96731e-06)
(2.77808e-06 0.0092224 -1.43507e-07)
(5.56183e-06 0.00922725 1.29267e-06)
(6.4366e-06 0.00923444 1.69192e-06)
(5.71214e-06 0.00924573 1.7018e-06)
(1.09725e-06 0.00924721 8.07531e-07)
(-5.13779e-06 0.00912847 -2.02025e-06)
(-1.06569e-05 0.00837966 -7.32717e-06)
(-6.37514e-06 0.00660004 -6.78185e-06)
(-1.77444e-06 0.0047886 -7.52807e-07)
(-2.70995e-07 0.00402214 2.36917e-07)
(2.20957e-07 0.00383983 -3.34493e-06)
(1.8482e-06 0.00364541 -6.57445e-06)
(4.00363e-06 0.00342472 -5.28659e-06)
(4.43371e-06 0.00328413 -1.37146e-06)
(-9.1811e-07 0.000522896 5.8699e-07)
(-2.62476e-07 0.000525727 3.00811e-07)
(-7.32576e-07 0.000531322 -9.12156e-08)
(-1.6955e-07 0.000537112 -1.69732e-07)
(-4.79034e-07 0.00054241 -1.84099e-07)
(-3.17945e-07 0.00054772 -7.89991e-08)
(-4.93786e-07 0.000552037 6.89075e-08)
(-4.05608e-07 0.000555547 1.45025e-07)
(-4.43023e-07 0.000557562 1.8639e-07)
(-4.25315e-07 0.00055979 1.45986e-07)
(-4.49281e-07 0.000562134 7.54794e-08)
(-4.61786e-07 0.000563667 7.94303e-08)
(-4.39355e-07 0.000564269 9.0889e-08)
(-4.09641e-07 0.00056437 1.00271e-07)
(-3.73896e-07 0.000564368 9.85277e-08)
(-3.44359e-07 0.000564365 9.8621e-08)
(-3.15234e-07 0.000564372 9.40883e-08)
(-2.93724e-07 0.000564384 9.43043e-08)
(-2.74394e-07 0.000564405 9.06428e-08)
(-2.5934e-07 0.000564429 9.1735e-08)
(-2.46728e-07 0.000564459 8.88242e-08)
(-2.33978e-07 0.000564491 9.04138e-08)
(-2.24083e-07 0.000564525 8.75011e-08)
(-2.13694e-07 0.000564562 8.96984e-08)
(-2.06426e-07 0.000564601 8.70318e-08)
(-1.9754e-07 0.000564642 8.93457e-08)
(-1.91697e-07 0.000564685 8.60787e-08)
(-1.83887e-07 0.000564732 8.80423e-08)
(-1.79216e-07 0.000564782 8.48534e-08)
(-1.72538e-07 0.000564834 8.75713e-08)
(-1.68971e-07 0.000564888 8.43606e-08)
(-1.63049e-07 0.000564944 8.66422e-08)
(-1.60285e-07 0.000565002 8.3497e-08)
(-1.5553e-07 0.000565064 8.56407e-08)
(-1.5396e-07 0.000565132 8.15104e-08)
(-1.50438e-07 0.000565201 8.32713e-08)
(-1.43953e-07 0.000565283 7.92866e-08)
(-1.49166e-07 0.000565348 7.92244e-08)
(-1.26952e-07 0.000565466 8.0301e-08)
(-1.5274e-07 0.000565493 7.36275e-08)
(-1.14299e-07 0.00056568 8.06388e-08)
(-1.6195e-07 0.000565644 6.53332e-08)
(-1.11011e-07 0.000565933 8.22641e-08)
(-1.86097e-07 0.000565788 5.56661e-08)
(-1.19739e-07 0.000566164 7.96799e-08)
(-2.45087e-07 0.000565814 5.08631e-08)
(-1.95974e-07 0.000566252 4.36625e-08)
(-3.94853e-07 0.000565964 9.49394e-08)
(-4.12985e-07 0.000568029 -9.80919e-08)
(-6.44966e-07 0.000582456 1.78838e-07)
(-6.49117e-07 0.000629414 -4.95931e-08)
(2.46427e-07 0.000707323 2.05694e-07)
(2.3357e-06 0.000968812 2.01199e-06)
(1.81913e-06 0.00170491 -2.92501e-06)
(1.53912e-05 0.00287256 -1.68578e-05)
(4.5408e-05 0.00333606 -1.74956e-05)
(7.25971e-05 0.00493775 4.5501e-05)
(-0.000457201 0.00642363 -6.51389e-05)
(-0.00254636 0.0183519 0.000699134)
(0.00627477 0.103526 0.00750077)
(-0.0594326 0.551441 0.00784849)
(-0.0049607 0.326166 0.000852836)
(0.000414978 0.0241898 0.000107297)
(-0.00053884 0.00983007 1.11301e-05)
(-0.000106861 0.0100355 5.96219e-07)
(-0.000185365 0.0100711 -5.9633e-05)
(-0.000119846 0.00981394 -7.37684e-05)
(1.3236e-05 0.00971245 -6.16692e-05)
(0.000261311 0.00943471 -4.66965e-05)
(0.000271736 0.00905955 -3.04852e-05)
(9.1469e-05 0.00894211 -2.45169e-05)
(-7.9544e-05 0.00918499 -2.24041e-05)
(-0.000227901 0.00946411 -2.86566e-05)
(-0.000250008 0.00956974 -2.97663e-05)
(-0.000191914 0.00955064 -3.24609e-05)
(-0.000172347 0.00947852 -2.88241e-05)
(-0.000156235 0.0093995 -2.2443e-05)
(-0.000120583 0.00941409 -1.66296e-05)
(-7.63716e-05 0.00944579 -1.26105e-05)
(-3.75225e-05 0.00947395 -7.90331e-06)
(-6.52707e-06 0.00950109 -3.7681e-06)
(1.17195e-05 0.00950252 -3.97016e-07)
(8.89186e-06 0.00934286 2.69746e-06)
(9.5457e-06 0.00932339 3.37812e-06)
(1.14025e-05 0.00929936 2.94677e-06)
(1.1857e-05 0.00925154 1.168e-06)
(1.05104e-05 0.00908213 -1.1994e-06)
(7.50815e-06 0.0085623 -4.17138e-06)
(7.55553e-06 0.00741985 -3.6699e-06)
(1.67968e-06 0.00598965 -4.87734e-06)
(-9.20825e-07 0.00506206 -2.5498e-06)
(6.48174e-07 0.00467128 -1.29267e-06)
(1.44433e-06 0.00440897 -5.19977e-06)
(2.51799e-06 0.00411073 -8.16461e-06)
(2.95861e-06 0.00370761 -6.08437e-06)
(3.55492e-06 0.00335846 -6.08575e-07)
(-7.82867e-07 0.000514161 2.80465e-07)
(1.2206e-07 0.000516434 -9.16052e-09)
(-6.25431e-07 0.000523373 -2.21657e-07)
(4.781e-08 0.000528672 -1.93923e-07)
(-2.56083e-07 0.000532207 -3.19541e-07)
(-2.0667e-07 0.000539365 -1.88895e-07)
(-4.00916e-07 0.000548753 -1.03366e-07)
(-3.92204e-07 0.000555992 4.25226e-08)
(-4.60311e-07 0.000559041 1.25681e-07)
(-4.49008e-07 0.00056087 9.12075e-08)
(-5.09818e-07 0.000562199 3.0782e-08)
(-5.57803e-07 0.000563472 3.64268e-08)
(-5.74588e-07 0.00056421 6.25339e-08)
(-5.73163e-07 0.00056437 7.93606e-08)
(-5.56522e-07 0.000564389 8.75536e-08)
(-5.38744e-07 0.00056439 8.60382e-08)
(-5.15593e-07 0.000564399 8.79158e-08)
(-4.9766e-07 0.000564409 8.49358e-08)
(-4.76873e-07 0.000564428 8.63413e-08)
(-4.62334e-07 0.00056445 8.23114e-08)
(-4.46815e-07 0.000564479 8.45277e-08)
(-4.31894e-07 0.000564511 8.05428e-08)
(-4.15144e-07 0.000564546 8.26531e-08)
(-4.02704e-07 0.000564582 7.87489e-08)
(-3.88607e-07 0.00056462 7.99682e-08)
(-3.78121e-07 0.000564661 7.52392e-08)
(-3.65491e-07 0.000564704 7.71268e-08)
(-3.5644e-07 0.00056475 7.27323e-08)
(-3.4525e-07 0.0005648 7.43526e-08)
(-3.37439e-07 0.000564851 6.83819e-08)
(-3.27476e-07 0.000564905 6.83822e-08)
(-3.21312e-07 0.00056496 6.18848e-08)
(-3.12841e-07 0.000565018 6.28343e-08)
(-3.08255e-07 0.000565079 5.7276e-08)
(-3.00905e-07 0.000565146 5.88074e-08)
(-2.96467e-07 0.000565216 5.35839e-08)
(-2.85924e-07 0.000565293 5.57581e-08)
(-2.84483e-07 0.000565361 5.04657e-08)
(-2.58713e-07 0.000565467 5.59964e-08)
(-2.77786e-07 0.000565499 4.3035e-08)
(-2.24979e-07 0.000565669 5.9106e-08)
(-2.73117e-07 0.000565619 3.31095e-08)
(-1.89952e-07 0.000565886 6.71805e-08)
(-2.69131e-07 0.000565729 2.38581e-08)
(-1.45157e-07 0.000566085 7.77164e-08)
(-2.78817e-07 0.000565736 2.83935e-08)
(-1.33724e-07 0.00056614 6.68596e-08)
(-3.48348e-07 0.000565706 1.08045e-07)
(-2.68184e-07 0.000570873 -1.97442e-08)
(-3.98515e-07 0.000603452 2.38874e-07)
(-4.57829e-07 0.000690508 -3.81167e-08)
(5.76066e-07 0.000823607 1.56577e-07)
(4.80187e-06 0.00103822 1.55162e-06)
(-3.14852e-06 0.00157326 -7.55136e-06)
(1.79718e-05 0.00274074 3.25333e-06)
(3.49263e-05 0.0034033 -4.94461e-05)
(0.000177663 0.00495655 0.000191723)
(-0.000786664 0.00490256 0.000386744)
(-0.00274449 0.0206731 0.000697082)
(0.0189493 0.14607 0.00963273)
(-0.0317107 0.565286 0.00409321)
(-0.012954 0.468219 0.00499062)
(-0.0244684 0.483895 0.000518631)
(0.000728733 0.469736 -0.00430086)
(-0.0130035 0.485364 -0.00774465)
(-0.0068112 0.482118 -0.00832197)
(-0.00155217 0.49078 -0.00815549)
(-0.00183597 0.501483 -0.00679034)
(-0.00357382 0.51315 -0.002437)
(-0.00173462 0.507713 0.00268636)
(0.00104243 0.496306 0.00441036)
(0.00392346 0.498457 0.0038124)
(0.00381007 0.495843 0.00268632)
(0.00394647 0.485181 0.00260075)
(0.00354226 0.488002 0.00195767)
(0.00255055 0.499417 0.000852527)
(0.001178 0.504714 -2.98694e-05)
(0.000984373 0.505941 -0.000448087)
(0.000975022 0.486539 -0.00083202)
(5.10359e-05 0.484518 -0.00113129)
(-0.000378901 0.465147 -0.00109928)
(-0.000798003 0.382922 -0.000832025)
(-6.96594e-05 0.0340997 -0.000105577)
(2.18807e-06 0.00878155 6.70404e-06)
(3.36217e-05 0.00885504 2.46274e-06)
(4.76517e-05 0.00884193 3.65577e-06)
(6.03847e-05 0.00839764 2.90865e-06)
(6.39048e-05 0.00760325 6.80664e-07)
(3.07318e-05 0.00674171 -2.11541e-06)
(3.38471e-06 0.00598213 -3.29309e-06)
(1.2624e-06 0.00546801 -3.20238e-06)
(2.01834e-06 0.00504558 -5.2046e-06)
(1.77381e-06 0.00464043 -9.68511e-06)
(1.88028e-06 0.00421617 -1.02168e-05)
(1.54216e-06 0.00372019 -7.30003e-06)
(1.16616e-06 0.00335344 -9.99623e-07)
(-9.08136e-07 0.000501116 3.27271e-07)
(5.56145e-07 0.000502729 1.68233e-08)
(-5.00221e-07 0.000511899 -2.15289e-07)
(2.14478e-07 0.000518686 -2.05176e-07)
(-7.74799e-08 0.000520669 -2.78919e-07)
(-7.33789e-08 0.000525504 -3.05562e-07)
(-2.72288e-07 0.000532658 -1.38773e-07)
(-3.39084e-07 0.000544032 5.40901e-08)
(-4.32251e-07 0.00055522 1.12982e-07)
(-4.38536e-07 0.000561347 1.092e-07)
(-4.69105e-07 0.000562957 -1.47429e-08)
(-5.16692e-07 0.00056366 -5.11878e-09)
(-5.69689e-07 0.000564102 2.10638e-08)
(-5.93282e-07 0.000564263 5.72572e-08)
(-6.06465e-07 0.000564297 6.60729e-08)
(-6.07924e-07 0.0005643 7.23042e-08)
(-6.0141e-07 0.00056431 6.85304e-08)
(-5.89815e-07 0.000564319 6.94165e-08)
(-5.76011e-07 0.000564336 6.30146e-08)
(-5.59148e-07 0.000564353 6.28512e-08)
(-5.41086e-07 0.000564382 5.67991e-08)
(-5.25262e-07 0.000564413 5.52009e-08)
(-5.10483e-07 0.000564447 4.62169e-08)
(-4.9356e-07 0.000564485 4.49296e-08)
(-4.77607e-07 0.000564526 3.72849e-08)
(-4.60287e-07 0.000564566 3.74853e-08)
(-4.44625e-07 0.000564608 3.05604e-08)
(-4.27545e-07 0.000564652 3.17556e-08)
(-4.12313e-07 0.000564699 2.52619e-08)
(-3.96271e-07 0.000564748 2.62742e-08)
(-3.81693e-07 0.0005648 1.99589e-08)
(-3.65627e-07 0.000564854 2.20947e-08)
(-3.52184e-07 0.000564911 1.57475e-08)
(-3.38226e-07 0.000564972 1.78475e-08)
(-3.26301e-07 0.000565036 1.17052e-08)
(-3.12493e-07 0.000565103 1.46367e-08)
(-2.99466e-07 0.000565173 1.05386e-08)
(-2.85158e-07 0.000565242 1.53299e-08)
(-2.59995e-07 0.000565338 1.37177e-08)
(-2.614e-07 0.000565396 1.52032e-08)
(-2.06214e-07 0.000565553 2.24783e-08)
(-2.4079e-07 0.000565518 1.15529e-08)
(-1.41347e-07 0.000565769 3.82935e-08)
(-2.11897e-07 0.000565605 9.99446e-09)
(-4.5498e-08 0.000565943 5.85354e-08)
(-1.78643e-07 0.00056558 2.2395e-08)
(4.97956e-08 0.000566007 7.02303e-08)
(-1.64838e-07 0.000565736 1.17745e-07)
(7.68729e-08 0.000574363 8.01103e-08)
(5.07601e-08 0.000615473 2.2614e-07)
(7.36997e-07 0.00072344 3.27575e-07)
(-1.31446e-07 0.000901242 -1.40217e-07)
(6.77032e-06 0.00108337 -3.34562e-07)
(-3.95564e-07 0.00158862 -1.41485e-06)
(5.47598e-05 0.00296035 6.19056e-05)
(1.60739e-05 0.00377208 -6.77678e-06)
(0.000156433 0.00456021 0.00019513)
(-0.00043987 0.0039653 0.000378151)
(-0.0010773 0.0246287 0.00211648)
(0.021363 0.227438 0.0164335)
(0.0161605 0.523757 0.000682211)
(-0.00218278 0.454434 0.00118042)
(-0.0109489 0.483651 -0.00157872)
(-0.00603684 0.500325 -0.00302384)
(-0.00864633 0.494673 -0.00272921)
(-0.00581738 0.50948 -0.00159577)
(-0.00163291 0.504007 0.000847928)
(-0.000716007 0.481446 0.00168189)
(0.000942923 0.456202 0.00375511)
(0.000652472 0.439868 0.00161781)
(0.000631098 0.454511 0.00169702)
(0.00157732 0.524994 0.00222816)
(0.00186132 0.516438 0.00201063)
(0.000654856 0.499621 0.000726442)
(0.000631965 0.49544 0.000865253)
(0.000528351 0.498079 0.000464657)
(0.000668416 0.48305 0.000258068)
(0.00059588 0.409344 -0.000105027)
(0.000764722 0.416414 -0.000512403)
(-0.000251773 0.498674 -0.0011873)
(-0.00038832 0.489791 -0.00179949)
(-0.00169073 0.483702 -0.00187365)
(-0.00228175 0.510169 -0.00229397)
(-0.00247305 0.473385 -0.0024916)
(-0.00304549 0.435058 -0.00231758)
(-0.00191313 0.334645 -0.000928881)
(-0.00307283 0.496465 -0.00130394)
(-0.00252269 0.448341 -0.000659052)
(-0.00116744 0.313458 -0.000207874)
(-1.75179e-05 0.0278117 -0.000174715)
(-1.26189e-05 0.00441325 -1.70634e-05)
(-8.25745e-06 0.00343898 -1.7402e-05)
(1.55429e-05 0.00324953 -1.42831e-05)
(2.77313e-05 0.00325462 -1.19004e-05)
(2.16642e-05 0.00325536 -7.20309e-06)
(3.36317e-05 0.00325061 -6.88738e-07)
(-1.05218e-06 0.000484313 3.6637e-07)
(6.5855e-07 0.000484767 2.67426e-08)
(-6.31349e-07 0.00049539 -2.09151e-07)
(4.2526e-08 0.000506701 -6.27683e-08)
(-3.05991e-07 0.000512957 -2.11373e-07)
(-2.398e-08 0.000518183 -5.06173e-07)
(-3.56473e-07 0.000519502 -2.10814e-07)
(-4.48425e-07 0.000525919 -9.32218e-08)
(-4.81809e-07 0.000539644 1.3742e-07)
(-5.15822e-07 0.000554309 1.38733e-07)
(-5.24075e-07 0.000561811 3.0735e-08)
(-5.09258e-07 0.00056382 -1.60469e-08)
(-5.21183e-07 0.000564267 -2.62508e-09)
(-5.56066e-07 0.000564393 9.40207e-09)
(-5.82324e-07 0.000564418 2.21503e-08)
(-6.05647e-07 0.000564428 1.87189e-08)
(-6.13983e-07 0.000564446 1.45228e-08)
(-6.13367e-07 0.000564462 4.33028e-09)
(-6.01916e-07 0.000564487 2.21479e-09)
(-5.84086e-07 0.000564513 -6.24936e-09)
(-5.61425e-07 0.000564542 -1.10466e-08)
(-5.42894e-07 0.000564571 -1.87845e-08)
(-5.23428e-07 0.000564607 -1.91974e-08)
(-5.04523e-07 0.000564647 -2.58656e-08)
(-4.8478e-07 0.00056469 -2.56114e-08)
(-4.65619e-07 0.000564735 -3.15068e-08)
(-4.4599e-07 0.000564783 -3.03453e-08)
(-4.27104e-07 0.000564833 -3.57182e-08)
(-4.07687e-07 0.000564886 -3.3619e-08)
(-3.8914e-07 0.000564942 -3.75261e-08)
(-3.71029e-07 0.000565001 -3.42567e-08)
(-3.54993e-07 0.000565062 -3.82039e-08)
(-3.3948e-07 0.000565128 -3.4913e-08)
(-3.26194e-07 0.000565197 -3.90218e-08)
(-3.12846e-07 0.000565268 -3.57704e-08)
(-3.00425e-07 0.000565346 -3.91514e-08)
(-2.865e-07 0.000565427 -3.468e-08)
(-2.72687e-07 0.00056551 -3.59856e-08)
(-2.53754e-07 0.000565603 -2.96238e-08)
(-2.49936e-07 0.000565696 -2.68003e-08)
(-2.06044e-07 0.000565858 -1.69422e-08)
(-2.33068e-07 0.00056583 -1.76715e-08)
(-1.36783e-07 0.000566038 3.8567e-09)
(-1.96524e-07 0.000565861 -5.77634e-09)
(-1.9975e-08 0.000566154 2.51508e-08)
(-1.33646e-07 0.000565772 1.3384e-08)
(1.251e-07 0.000566179 2.94663e-08)
(-3.8489e-08 0.000566124 6.90101e-08)
(3.12574e-07 0.000575363 6.01433e-08)
(1.26501e-07 0.000615887 1.46021e-07)
(1.58755e-06 0.000716674 -1.59932e-07)
(1.76305e-08 0.000886128 2.40908e-08)
(2.73205e-06 0.00107318 -2.20712e-06)
(5.06135e-06 0.00161366 -5.30007e-06)
(1.26039e-05 0.00300064 2.52857e-05)
(-0.000135398 0.00402376 7.38553e-05)
(0.000185864 0.00452501 0.000115803)
(4.39608e-05 0.00343925 -1.75018e-05)
(0.000171942 0.0240623 0.00272134)
(0.0179288 0.345237 0.0175601)
(0.024587 0.480472 -0.0046505)
(9.53458e-05 0.41196 0.000385654)
(0.00443915 0.482305 -0.00322562)
(0.00693802 0.476288 0.000884695)
(-0.00127651 0.465839 -5.95008e-05)
(0.00196129 0.430754 0.0014113)
(0.00142129 0.406623 0.00120017)
(0.00223331 0.461556 0.00129506)
(-0.000162432 0.453539 0.000996465)
(-4.19416e-06 0.382276 -0.000389607)
(-0.000497439 0.432464 0.000640355)
(-0.00131352 0.452324 -0.000293653)
(-0.00110125 0.463195 3.34415e-05)
(-0.00131422 0.409028 -0.000305933)
(-0.000693671 0.491877 0.000337417)
(-0.000157629 0.489806 0.000313618)
(-0.0012905 0.496051 0.000263842)
(-0.00163021 0.397668 8.71202e-05)
(-0.00154044 0.41973 0.000364128)
(-0.000170105 0.423722 0.00033412)
(-0.00105538 0.471335 0.000210496)
(-0.000821134 0.486409 -0.000151468)
(-0.00124916 0.492302 -0.000325571)
(-0.000845189 0.466958 -0.000886609)
(-0.00217411 0.450153 -0.00177326)
(-0.00287435 0.413623 -0.00240262)
(-0.00436108 0.482014 -0.00368086)
(-0.00503517 0.500988 -0.00407866)
(-0.00510557 0.494658 -0.00377736)
(-0.00546189 0.518777 -0.00305814)
(-0.00590701 0.476663 -0.00186754)
(-0.00707983 0.493356 -0.000998087)
(-0.00542327 0.492699 -0.000168069)
(-0.00348014 0.486822 -0.000575097)
(-0.000181134 0.489238 -0.0018885)
(0.00159595 0.482 -0.00278581)
(-2.15826e-06 0.000469842 -2.08008e-07)
(4.45422e-07 0.000467557 1.98098e-07)
(-1.17047e-06 0.000471828 -3.70342e-07)
(-5.18122e-07 0.000485285 7.15127e-08)
(-8.94222e-07 0.000500129 -2.24982e-07)
(-5.29129e-07 0.000511757 -5.2315e-07)
(-6.41044e-07 0.00051322 -2.09338e-07)
(-5.9799e-07 0.000513346 -2.16419e-07)
(-6.59334e-07 0.000520477 5.18963e-08)
(-6.4531e-07 0.000538961 1.26711e-07)
(-6.53297e-07 0.000555709 7.44084e-08)
(-6.37725e-07 0.000562661 1.01971e-08)
(-6.01272e-07 0.000564137 2.16187e-09)
(-6.1644e-07 0.000564383 3.3744e-08)
(-6.31013e-07 0.000564428 5.03998e-08)
(-6.55436e-07 0.000564452 6.56744e-08)
(-6.7071e-07 0.000564496 6.94368e-08)
(-6.78989e-07 0.00056454 7.4051e-08)
(-6.70259e-07 0.00056459 7.02784e-08)
(-6.63671e-07 0.000564635 6.60522e-08)
(-6.54042e-07 0.000564678 5.63695e-08)
(-6.43157e-07 0.000564718 5.3177e-08)
(-6.29499e-07 0.00056476 4.77141e-08)
(-6.1825e-07 0.000564802 4.8541e-08)
(-6.05671e-07 0.000564847 4.56788e-08)
(-5.95888e-07 0.000564894 4.80732e-08)
(-5.84734e-07 0.000564942 4.62305e-08)
(-5.76563e-07 0.000564991 4.90935e-08)
(-5.66869e-07 0.000565042 4.71942e-08)
(-5.59908e-07 0.000565094 5.02031e-08)
(-5.51376e-07 0.000565148 4.88951e-08)
(-5.46082e-07 0.000565204 5.25352e-08)
(-5.39564e-07 0.000565262 5.13704e-08)
(-5.36499e-07 0.000565322 5.50235e-08)
(-5.31382e-07 0.000565386 5.40498e-08)
(-5.2817e-07 0.000565458 5.85292e-08)
(-5.20525e-07 0.000565532 5.91896e-08)
(-5.12412e-07 0.000565607 6.59498e-08)
(-4.95825e-07 0.000565686 6.74993e-08)
(-4.84721e-07 0.000565757 7.70925e-08)
(-4.46238e-07 0.00056587 7.74008e-08)
(-4.55194e-07 0.000565855 9.19391e-08)
(-3.62336e-07 0.000566048 9.26051e-08)
(-4.02276e-07 0.000565887 1.06792e-07)
(-2.24189e-07 0.000566151 9.10495e-08)
(-3.07364e-07 0.000565786 1.12416e-07)
(-4.11194e-08 0.000566278 6.28908e-08)
(-1.58705e-07 0.000566566 1.05477e-07)
(1.42335e-07 0.000574818 1.06754e-07)
(-3.44469e-08 0.00060695 1.58582e-07)
(4.49065e-07 0.000679961 -1.23095e-08)
(9.18757e-08 0.000799605 8.75152e-08)
(-7.28169e-07 0.00102739 -1.17879e-06)
(4.99313e-06 0.00149242 -3.38132e-06)
(-5.68817e-06 0.00248881 5.52962e-06)
(-7.43656e-05 0.00372305 -2.65492e-05)
(7.30675e-06 0.0046811 9.47598e-05)
(1.35738e-05 0.00378821 -1.63177e-05)
(-9.95712e-05 0.0211391 0.00241378)
(-0.00064454 0.388713 0.0177831)
(-0.0035199 0.552961 -0.00752431)
(0.00248501 0.487219 0.000454392)
(9.72897e-05 0.485825 -0.000844089)
(0.000361565 0.494147 0.00121401)
(0.0012934 0.494839 -3.12833e-05)
(0.0045368 0.488467 0.00123851)
(-0.000886507 0.493371 0.000944016)
(0.00165671 0.509589 0.00100153)
(0.0005502 0.493147 6.58576e-05)
(-0.000632375 0.493006 -1.32742e-05)
(-0.0004813 0.48461 -0.000278923)
(-0.000226595 0.484241 6.29333e-05)
(-0.000719911 0.484208 -0.000179284)
(-0.00104455 0.496651 3.70125e-07)
(-0.000179605 0.489104 0.000347266)
(0.000256669 0.49101 0.000499356)
(-9.19056e-05 0.492692 0.00071053)
(0.000457774 0.502841 0.00108784)
(-0.00053077 0.503841 0.00157082)
(0.000547194 0.505577 0.00212507)
(0.000177652 0.487999 0.0023012)
(0.000168049 0.494313 0.00259326)
(-2.53596e-05 0.496637 0.00324863)
(0.000360594 0.498581 0.00416216)
(-0.000193118 0.497498 0.00381863)
(-0.000248657 0.497377 0.00363508)
(-0.000968886 0.491585 0.00203316)
(-0.00192447 0.493328 0.000638404)
(-0.0018097 0.479694 -0.000500757)
(-0.00332066 0.506941 -0.00189375)
(-0.00667172 0.478652 -0.0060655)
(-0.00571498 0.440797 -0.00606348)
(-0.00540907 0.339944 -0.00773201)
(-0.0109702 0.497982 -0.0176417)
(-0.0155612 0.510867 -0.0116311)
(-0.00820968 0.457464 0.0547736)
(-3.10661e-06 0.000245275 -1.48424e-06)
(6.41475e-07 0.000479294 3.60605e-07)
(-1.56356e-06 0.000455862 -9.86943e-07)
(-1.50319e-06 0.000460336 -5.50836e-08)