/*--------------------------------*- C++ -*----------------------------------*\
| =========                 |                                                 |
| \\      /  F ield         | OpenFOAM: The Open Source CFD Toolbox           |
|  \\    /   O peration     | Version:  2.3.0                                 |
|   \\  /    A nd           | Web:      www.OpenFOAM.org                      |
|    \\/     M anipulation  |                                                 |
\*---------------------------------------------------------------------------*/
FoamFile
{
    version     2.0;
    format      ascii;
    class       volScalarField;
    location    "58";
    object      alpha.water;
}
// * * * * * * * * * * * * * * * * * * * * * * * * * * * * * * * * * * * * * //

dimensions      [0 0 0 0 0 0 0];

internalField   nonuniform List<scalar> 
6144
(
3.7353e-06
4.42233e-06
4.82675e-06
5.24501e-06
5.71706e-06
6.64565e-06
7.73401e-06
8.74406e-06
9.51111e-06
9.88539e-06
9.96236e-06
9.97358e-06
9.97711e-06
9.98196e-06
9.98451e-06
9.98664e-06
9.98702e-06
9.98763e-06
9.98721e-06
9.98721e-06
9.98721e-06
9.98719e-06
9.98686e-06
9.98639e-06
9.98575e-06
9.98524e-06
9.98489e-06
9.98435e-06
9.98358e-06
9.98291e-06
9.98223e-06
9.98161e-06
9.98084e-06
9.98008e-06
9.97925e-06
9.97854e-06
9.9777e-06
9.97702e-06
9.97584e-06
9.9748e-06
9.97471e-06
1.00031e-05
1.06774e-05
1.2907e-05
1.6648e-05
2.15806e-05
2.77962e-05
3.72552e-05
6.32037e-05
9.67399e-05
0.000111068
0.000116281
0.000120182
0.000126726
0.000130343
0.000164209
0.000160622
0.000162606
0.000880402
0.0549968
0.967978
0.999852
1
1
1
1
1
1
1
1
1
1
1
1
1
1
1
1
1
0.999999
0.999999
0.999999
0.999999
0.999999
0.999999
0.999999
0.999999
0.999999
0.999999
0.999999
0.999999
1
1
1
1
1
3.43353e-06
4.32219e-06
5.02666e-06
5.51077e-06
6.20373e-06
6.92413e-06
7.88587e-06
8.81039e-06
9.53972e-06
9.87163e-06
9.95237e-06
9.97053e-06
9.97757e-06
9.98498e-06
9.99e-06
9.99349e-06
9.99455e-06
9.99495e-06
9.99431e-06
9.99399e-06
9.99408e-06
9.99377e-06
9.99331e-06
9.99287e-06
9.99242e-06
9.99215e-06
9.99232e-06
9.99198e-06
9.99151e-06
9.99116e-06
9.9909e-06
9.99051e-06
9.98992e-06
9.9891e-06
9.98815e-06
9.98712e-06
9.98608e-06
9.98489e-06
9.98351e-06
9.98181e-06
9.98055e-06
1.00376e-05
1.06563e-05
1.24977e-05
1.5772e-05
2.06754e-05
2.76332e-05
3.71022e-05
5.31439e-05
7.99925e-05
9.38053e-05
0.00010807
0.000113617
0.000123424
0.000144441
0.000188433
0.000185397
0.000189236
0.00050119
0.047619
0.969609
0.999894
1
1
1
1
1
1
1
1
1
0.999999
0.999999
0.999999
0.999999
0.999999
0.999999
0.999999
0.999999
0.999999
0.999999
0.999999
0.999999
0.999999
0.999999
0.999999
0.999999
0.999999
0.999999
0.999999
0.999999
0.999999
1
1
1
1
3.21813e-06
3.98522e-06
4.85659e-06
5.52551e-06
6.35817e-06
7.08706e-06
8.01763e-06
8.81839e-06
9.37218e-06
9.71888e-06
9.86941e-06
9.92782e-06
9.95796e-06
9.97509e-06
9.98394e-06
9.99016e-06
9.99281e-06
9.99364e-06
9.9938e-06
9.99406e-06
9.99375e-06
9.99377e-06
9.99355e-06
9.99316e-06
9.99268e-06
9.99228e-06
9.99156e-06
9.99103e-06
9.99071e-06
9.99042e-06
9.98984e-06
9.98898e-06
9.98774e-06
9.98637e-06
9.98483e-06
9.98336e-06
9.982e-06
9.98073e-06
9.97948e-06
9.97957e-06
9.98992e-06
1.0154e-05
1.07513e-05
1.21897e-05
1.52683e-05
2.11545e-05
3.03726e-05
4.28145e-05
5.79834e-05
7.45268e-05
8.31969e-05
0.000104336
0.000114322
0.000129912
0.000165524
0.000200438
0.00018961
0.000205491
0.000504733
0.0441449
0.96401
0.99986
1
1
1
1
1
1
0.999999
0.999999
0.999999
0.999999
0.999999
0.999999
0.999999
0.999999
0.999999
0.999999
0.999999
0.999999
0.999999
0.999999
0.999999
0.999999
0.999999
0.999999
0.999999
0.999999
0.999999
0.999999
0.999999
0.999999
0.999999
1
1
1
3.09571e-06
3.67129e-06
4.54575e-06
5.17257e-06
6.14989e-06
7.08663e-06
8.02363e-06
8.68248e-06
9.23548e-06
9.61303e-06
9.8079e-06
9.90261e-06
9.94783e-06
9.9697e-06
9.97927e-06
9.98634e-06
9.98915e-06
9.98973e-06
9.98955e-06
9.98952e-06
9.98934e-06
9.98915e-06
9.98891e-06
9.98838e-06
9.98776e-06
9.98704e-06
9.98648e-06
9.98598e-06
9.98571e-06
9.98546e-06
9.98534e-06
9.98489e-06
9.98415e-06
9.98302e-06
9.98186e-06
9.98054e-06
9.97924e-06
9.97878e-06
9.97878e-06
9.97878e-06
1.00299e-05
1.02854e-05
1.08814e-05
1.22514e-05
1.55697e-05
2.25846e-05
3.38124e-05
4.68393e-05
5.8136e-05
6.64065e-05
7.95775e-05
0.000101966
0.00011438
0.000137419
0.000179363
0.000202739
0.000189006
0.000258947
0.000343675
0.064349
0.975895
0.999956
0.999998
0.999999
0.999999
0.999998
0.999999
0.999999
0.999997
0.999997
0.999999
0.999999
0.999999
0.999998
0.999998
0.999999
0.999999
0.999999
0.999999
0.999999
0.999999
0.999999
0.999999
0.999999
0.999999
0.999999
0.999999
0.999999
0.999999
0.999999
0.999999
0.999999
0.999999
1
1
1
2.98824e-06
3.41207e-06
4.23091e-06
4.81085e-06
5.72783e-06
6.55891e-06
7.81228e-06
8.5818e-06
9.12217e-06
9.5229e-06
9.75834e-06
9.88677e-06
9.94591e-06
9.97208e-06
9.98265e-06
9.99011e-06
9.99289e-06
9.99352e-06
9.99346e-06
9.99358e-06
9.99351e-06
9.99348e-06
9.9932e-06
9.99275e-06
9.99204e-06
9.99133e-06
9.99056e-06
9.98992e-06
9.9892e-06
9.9886e-06
9.98787e-06
9.98703e-06
9.98589e-06
9.98467e-06
9.98332e-06
9.98194e-06
9.98065e-06
9.98006e-06
9.98007e-06
9.997e-06
1.00938e-05
1.03568e-05
1.09975e-05
1.24669e-05
1.60346e-05
2.35949e-05
3.49757e-05
4.44012e-05
5.15099e-05
6.00712e-05
7.44412e-05
9.70098e-05
0.000113367
0.000145295
0.000183391
0.000195959
0.000204959
0.000328812
0.00036276
0.0879185
0.978024
0.999678
0.999768
0.999809
0.999798
0.999787
0.999768
0.999745
0.999732
0.999732
0.999758
0.99978
0.999806
0.99984
0.999874
0.999906
0.999934
0.999958
0.999974
0.999985
0.999992
0.999997
0.999998
0.999999
0.999999
0.999999
0.999999
0.999999
0.999999
0.999999
0.999999
0.999999
0.999999
1
1
1
2.88084e-06
3.21739e-06
3.89839e-06
4.42236e-06
5.37773e-06
6.10694e-06
7.2794e-06
8.43323e-06
9.0053e-06
9.4374e-06
9.70723e-06
9.86531e-06
9.93699e-06
9.96664e-06
9.97648e-06
9.98349e-06
9.98651e-06
9.98708e-06
9.98709e-06
9.98717e-06
9.98732e-06
9.98739e-06
9.98741e-06
9.9872e-06
9.98679e-06
9.98622e-06
9.98575e-06
9.98522e-06
9.98473e-06
9.98419e-06
9.98363e-06
9.98282e-06
9.98181e-06
9.98062e-06
9.9794e-06
9.97827e-06
9.97789e-06
9.97789e-06
9.97789e-06
9.99195e-06
1.00869e-05
1.03504e-05
1.1041e-05
1.26304e-05
1.62891e-05
2.35963e-05
3.28114e-05
4.0265e-05
4.62012e-05
5.89434e-05
8.30497e-05
0.000108233
0.000124423
0.00015415
0.000180498
0.000183991
0.000213294
0.000352117
0.000641122
0.105907
0.967508
0.997211
0.99741
0.997579
0.997243
0.996996
0.99674
0.996528
0.996386
0.996326
0.996332
0.996547
0.996807
0.997135
0.997509
0.997913
0.998307
0.998667
0.998986
0.999266
0.9995
0.999691
0.999832
0.999922
0.99997
0.999991
0.999998
0.999999
1
1
1
0.999999
0.999999
0.999999
1
1
2.76562e-06
3.06561e-06
3.60171e-06
4.0593e-06
5.07877e-06
5.83287e-06
6.77979e-06
8.16879e-06
8.88856e-06
9.36999e-06
9.66592e-06
9.85276e-06
9.93696e-06
9.96957e-06
9.97987e-06
9.98816e-06
9.99126e-06
9.99185e-06
9.99165e-06
9.99171e-06
9.99162e-06
9.99099e-06
9.99042e-06
9.98991e-06
9.98922e-06
9.98843e-06
9.98765e-06
9.98702e-06
9.98645e-06
9.98589e-06
9.9852e-06
9.98427e-06
9.98308e-06
9.98174e-06
9.98033e-06
9.97914e-06
9.97844e-06
9.97819e-06
9.97817e-06
9.99001e-06
1.00698e-05
1.03403e-05
1.11368e-05
1.29167e-05
1.66829e-05
2.35654e-05
3.1718e-05
3.89405e-05
4.63882e-05
6.82677e-05
0.000105663
0.00013319
0.000140326
0.000157937
0.000173628
0.000175322
0.000200512
0.000287887
0.000448476
0.126718
0.963151
0.991394
0.99089
0.9909
0.990179
0.989749
0.989391
0.989131
0.988966
0.988884
0.988984
0.989285
0.989622
0.990118
0.990716
0.991578
0.992476
0.993322
0.994139
0.99498
0.995834
0.996673
0.997492
0.99824
0.998854
0.999307
0.99962
0.999827
0.999954
1
1
1
1
1
1
1
2.59921e-06
2.92919e-06
3.36369e-06
3.75638e-06
4.80521e-06
5.6712e-06
6.66973e-06
7.71995e-06
8.69868e-06
9.30365e-06
9.64681e-06
9.84472e-06
9.93378e-06
9.96901e-06
9.97805e-06
9.98756e-06
9.99113e-06
9.99182e-06
9.99161e-06
9.99161e-06
9.99161e-06
9.99182e-06
9.99193e-06
9.99193e-06
9.99181e-06
9.99161e-06
9.99133e-06
9.99102e-06
9.99071e-06
9.99025e-06
9.98949e-06
9.98845e-06
9.98717e-06
9.98582e-06
9.98462e-06
9.98374e-06
9.9832e-06
9.98299e-06
9.98351e-06
9.98977e-06
1.00376e-05
1.02602e-05
1.10977e-05
1.29897e-05
1.66901e-05
2.31604e-05
3.05538e-05
3.79643e-05
4.89264e-05
7.71533e-05
0.000127536
0.000152216
0.000155981
0.0001617
0.000168956
0.000169392
0.00018106
0.000255118
0.000221701
0.151451
0.966534
0.987071
0.985792
0.985687
0.98573
0.98542
0.985243
0.98508
0.985027
0.984962
0.985042
0.985152
0.98524
0.98545
0.985834
0.986342
0.986936
0.98755
0.987907
0.988386
0.98908
0.98998
0.990963
0.992057
0.993248
0.99422
0.994872
0.995256
0.99549
0.995297
0.993927
0.992402
0.990661
0.988207
0.986027
0.984945
2.35871e-06
2.77201e-06
3.10263e-06
3.47917e-06
4.51449e-06
5.52441e-06
6.72962e-06
7.23921e-06
8.41324e-06
9.22631e-06
9.61678e-06
9.82702e-06
9.92269e-06
9.96045e-06
9.96931e-06
9.98026e-06
9.98463e-06
9.98594e-06
9.98573e-06
9.98577e-06
9.98599e-06
9.98649e-06
9.98679e-06
9.98693e-06
9.98694e-06
9.98686e-06
9.98668e-06
9.98642e-06
9.98613e-06
9.98579e-06
9.9852e-06
9.98432e-06
9.98319e-06
9.98206e-06
9.98135e-06
9.98134e-06
9.98133e-06
9.98133e-06
9.98133e-06
9.9818e-06
1.0012e-05
1.02379e-05
1.12215e-05
1.32816e-05
1.67759e-05
2.25542e-05
2.94161e-05
3.68665e-05
5.0211e-05
6.99796e-05
0.000123143
0.000150403
0.000156885
0.000160344
0.000164877
0.000166403
0.00015637
0.00026385
0.000618836
0.116072
0.96324
0.988413
0.987583
0.987877
0.988252
0.988409
0.988513
0.988412
0.98835
0.9883
0.988266
0.988209
0.988074
0.987927
0.987785
0.987588
0.987379
0.987114
0.98675
0.986469
0.986355
0.986889
0.987502
0.988295
0.989273
0.990271
0.991032
0.991609
0.991745
0.991545
0.991308
0.991045
0.990897
0.990846
0.993438
0.995576
2.12801e-06
2.44049e-06
2.7375e-06
3.09247e-06
4.13339e-06
5.30044e-06
6.73849e-06
7.30306e-06
8.29451e-06
9.2049e-06
9.62396e-06
9.82617e-06
9.9183e-06
9.96161e-06
9.97309e-06
9.98502e-06
9.99032e-06
9.99186e-06
9.99136e-06
9.99124e-06
9.9912e-06
9.99136e-06
9.99138e-06
9.99116e-06
9.99081e-06
9.99035e-06
9.98981e-06
9.98925e-06
9.98866e-06
9.988e-06
9.98712e-06
9.98595e-06
9.98447e-06
9.98307e-06
9.98223e-06
9.982e-06
9.9817e-06
9.98143e-06
9.98141e-06
9.9821e-06
9.9976e-06
1.02173e-05
1.12591e-05
1.33647e-05
1.67619e-05
2.19983e-05
2.83164e-05
3.50499e-05
4.81577e-05
7.6944e-05
0.000104936
0.000137619
0.000151199
0.000156638
0.000160598
0.000166424
0.000154848
0.000198602
0.000669277
0.0910266
0.967713
0.994052
0.994286
0.995399
0.996112
0.996541
0.996605
0.996526
0.996469
0.996426
0.99634
0.996243
0.996137
0.995986
0.99577
0.995414
0.994895
0.994169
0.993295
0.992356
0.991523
0.990902
0.990481
0.990313
0.9909
0.991631
0.992271
0.992962
0.993201
0.99312
0.99354
0.994031
0.995106
0.996633
0.998477
0.999203
1.92226e-06
2.15538e-06
2.34471e-06
2.66077e-06
3.68606e-06
4.948e-06
6.67623e-06
7.81636e-06
8.3212e-06
9.21591e-06
9.6467e-06
9.82545e-06
9.90535e-06
9.95174e-06
9.96581e-06
9.979e-06
9.98514e-06
9.98747e-06
9.98757e-06
9.988e-06
9.98841e-06
9.9889e-06
9.98923e-06
9.98933e-06
9.98936e-06
9.98925e-06
9.98903e-06
9.98869e-06
9.98826e-06
9.98772e-06
9.98703e-06
9.98598e-06
9.9848e-06
9.98367e-06
9.98304e-06
9.98276e-06
9.98248e-06
9.98233e-06
9.98238e-06
9.98289e-06
9.99372e-06
1.01696e-05
1.1078e-05
1.30091e-05
1.63052e-05
2.15158e-05
2.74287e-05
3.3851e-05
4.72339e-05
7.72653e-05
9.1958e-05
0.000108445
0.000126418
0.000140142
0.000148702
0.000162406
0.000154802
0.000172895
0.000457196
0.0723808
0.977559
0.998551
0.998794
0.999111
0.999238
0.999295
0.999303
0.999303
0.9993
0.999304
0.999288
0.999275
0.999263
0.999243
0.999191
0.999092
0.998934
0.998678
0.998325
0.99791
0.997455
0.996994
0.996532
0.996124
0.995825
0.995754
0.9958
0.996199
0.99658
0.996902
0.997555
0.998378
0.999119
0.99964
0.999877
0.999941
1.82491e-06
1.95669e-06
1.99366e-06
2.14491e-06
2.99346e-06
4.22451e-06
6.1717e-06
7.82633e-06
8.41527e-06
9.25883e-06
9.69811e-06
9.83946e-06
9.89669e-06
9.93446e-06
9.95209e-06
9.9717e-06
9.98437e-06
9.98828e-06
9.98841e-06
9.98879e-06
9.98913e-06
9.98956e-06
9.98981e-06
9.98991e-06
9.98994e-06
9.98988e-06
9.98969e-06
9.98942e-06
9.98897e-06
9.98853e-06
9.98824e-06
9.98755e-06
9.98684e-06
9.98628e-06
9.98608e-06
9.98588e-06
9.98571e-06
9.98547e-06
9.98543e-06
9.98535e-06
9.99407e-06
1.01071e-05
1.07138e-05
1.22705e-05
1.53897e-05
2.05725e-05
2.64761e-05
3.26256e-05
4.30166e-05
6.89625e-05
8.84187e-05
9.97277e-05
0.000106506
0.000117394
0.000130405
0.000152354
0.000151797
0.00015866
0.00029884
0.0491462
0.983791
0.999818
0.99988
0.99991
0.999924
0.999933
0.999936
0.999937
0.999936
0.999936
0.999934
0.999934
0.999933
0.999932
0.999928
0.99992
0.999906
0.999875
0.999824
0.999756
0.999684
0.999613
0.999541
0.99947
0.999413
0.999396
0.999428
0.999494
0.999569
0.999683
0.9998
0.999908
0.999969
0.999992
0.999997
0.999999
1.71683e-06
1.89017e-06
1.8608e-06
1.85358e-06
2.28781e-06
3.22604e-06
4.92608e-06
6.95513e-06
8.62846e-06
9.29118e-06
9.737e-06
9.86678e-06
9.91588e-06
9.941e-06
9.95515e-06
9.97708e-06
9.98971e-06
9.99396e-06
9.99349e-06
9.99328e-06
9.99329e-06
9.99336e-06
9.99339e-06
9.99332e-06
9.99317e-06
9.9929e-06
9.99251e-06
9.99206e-06
9.99147e-06
9.99092e-06
9.99035e-06
9.9894e-06
9.98851e-06
9.98789e-06
9.98765e-06
9.98749e-06
9.98749e-06
9.98764e-06
9.9882e-06
9.98871e-06
9.99735e-06
1.00827e-05
1.04993e-05
1.17566e-05
1.44235e-05
1.9127e-05
2.50884e-05
3.13181e-05
4.13813e-05
6.47281e-05
8.59866e-05
0.000104536
0.000104885
0.000110275
0.000118661
0.000149141
0.00014793
0.000171314
0.000348995
0.0407208
0.974146
0.999928
0.999995
0.999996
0.999997
0.999997
0.999998
0.999998
0.999998
0.999998
0.999998
0.999998
0.999998
0.999998
0.999998
0.999998
0.999998
0.999998
0.999996
0.999993
0.99999
0.999987
0.999986
0.999984
0.999984
0.999987
0.99999
0.999992
0.999994
0.999996
0.999998
0.999999
0.999999
0.999999
0.999999
0.999999
1.74139e-06
2.00628e-06
1.9111e-06
1.89484e-06
1.88486e-06
2.584e-06
3.77355e-06
5.71947e-06
8.18474e-06
9.34595e-06
9.74088e-06
9.8583e-06
9.90447e-06
9.93394e-06
9.95013e-06
9.97489e-06
9.99728e-06
9.99735e-06
9.99735e-06
9.99735e-06
9.99734e-06
9.99734e-06
9.99734e-06
9.99734e-06
9.99702e-06
9.99648e-06
9.9958e-06
9.99511e-06
9.9944e-06
9.99374e-06
9.99287e-06
9.99172e-06
9.99055e-06
9.98964e-06
9.98919e-06
9.98906e-06
9.98917e-06
9.98932e-06
9.98987e-06
9.99056e-06
1.00003e-05
1.00683e-05
1.0379e-05
1.14784e-05
1.38626e-05
1.78647e-05
2.36154e-05
3.08527e-05
4.15143e-05
6.49474e-05
9.06297e-05
0.000104795
0.000103622
0.000110903
0.000118181
0.000148127
0.000166593
0.000202266
0.000453438
0.0421538
0.960315
0.999855
1
0.999999
0.999999
0.999999
0.999999
0.999999
0.999999
0.999999
0.999999
0.999999
0.999999
0.999999
0.999999
1
1
1
1
1
1
1
0.999999
0.999999
0.999999
0.999999
0.999999
0.999999
0.999999
0.999999
0.999999
0.999999
0.999999
0.999999
0.999999
0.999999
1.86075e-06
2.35109e-06
2.34966e-06
2.32806e-06
2.11805e-06
2.41247e-06
3.09669e-06
4.46116e-06
7.31393e-06
9.35733e-06
9.73327e-06
9.83142e-06
9.87821e-06
9.91582e-06
9.93884e-06
9.96595e-06
9.99322e-06
9.99561e-06
9.99573e-06
9.99582e-06
9.99586e-06
9.99583e-06
9.99574e-06
9.99565e-06
9.99525e-06
9.9947e-06
9.99405e-06
9.9934e-06
9.99279e-06
9.99218e-06
9.99136e-06
9.99028e-06
9.98918e-06
9.98837e-06
9.98795e-06
9.98783e-06
9.98787e-06
9.98783e-06
9.9882e-06
9.98879e-06
9.99868e-06
1.00566e-05
1.03197e-05
1.1302e-05
1.35247e-05
1.72127e-05
2.27992e-05
3.1449e-05
4.29054e-05
6.63286e-05
9.44226e-05
0.000106178
0.000105237
0.000114138
0.000119733
0.000150892
0.000158696
0.000170913
0.000445651
0.053163
0.964162
0.999896
1
0.999999
0.999999
0.999999
0.999999
0.999999
0.999999
0.999999
0.999999
0.999999
0.999999
0.999999
0.999999
0.999999
0.999999
0.999999
0.999999
0.999999
1
0.999999
0.999999
0.999999
0.999999
0.999999
0.999999
0.999999
0.999999
0.999999
0.999999
0.999999
0.999999
0.999999
0.999999
0.999999
1.59988e-06
1.64515e-06
2.21931e-06
2.95308e-06
2.83413e-06
2.78502e-06
3.17562e-06
4.08745e-06
6.68838e-06
9.32915e-06
9.72175e-06
9.8132e-06
9.8595e-06
9.89912e-06
9.92976e-06
9.96781e-06
1.00012e-05
1.00025e-05
1.00025e-05
1.00025e-05
1.00025e-05
1.00025e-05
1.00025e-05
1.00025e-05
1.00022e-05
1.00016e-05
1.0001e-05
1.00004e-05
9.99992e-06
9.99936e-06
9.99859e-06
9.99762e-06
9.99658e-06
9.99574e-06
9.99522e-06
9.99504e-06
9.99503e-06
9.99502e-06
9.99532e-06
9.99586e-06
1.00064e-05
1.00677e-05
1.03451e-05
1.13122e-05
1.34807e-05
1.69539e-05
2.16687e-05
2.9117e-05
3.99192e-05
6.64027e-05
0.000102566
0.00011701
0.000120104
0.000126025
0.000126958
0.000156939
0.000151874
0.000159222
0.000904811
0.0565363
0.960946
0.999812
0.999999
0.999999
0.999999
0.999999
0.999999
0.999999
0.999999
0.999999
0.999999
0.999999
0.999999
0.999999
0.999999
0.999999
0.999999
0.999999
0.999999
0.999999
1
0.999999
0.999999
0.999999
0.999999
0.999999
0.999999
0.999999
0.999999
0.999999
0.999999
0.999999
0.999999
0.999999
0.999999
0.999999
3.27165e-06
4.31519e-06
4.85989e-06
5.29405e-06
5.78451e-06
6.8205e-06
7.94516e-06
8.93066e-06
9.60828e-06
9.85642e-06
9.90951e-06
9.94215e-06
9.9712e-06
9.98912e-06
9.99941e-06
1.00074e-05
1.00074e-05
1.00074e-05
1.00074e-05
1.00074e-05
1.00068e-05
1.00061e-05
1.00055e-05
1.00049e-05
1.00043e-05
1.0004e-05
1.00039e-05
1.00038e-05
1.00038e-05
1.00036e-05
1.00032e-05
1.00026e-05
1.00018e-05
1.00008e-05
9.99981e-06
9.99884e-06
9.99788e-06
9.99689e-06
9.99552e-06
9.9963e-06
1.00072e-05
1.00431e-05
1.06957e-05
1.30954e-05
1.70967e-05
2.21441e-05
2.83694e-05
3.8739e-05
6.62762e-05
9.8586e-05
0.000112048
0.000117245
0.000120716
0.00012492
0.000126885
0.000150877
0.000148512
0.000198499
0.000683825
0.0593531
0.953126
0.999927
1
1
1
1
1
1
1
1
1
1
1
1
1
1
1
1
1
0.999999
0.999999
0.999999
0.999999
0.999999
0.999999
0.999999
0.999999
0.999999
0.999999
0.999999
0.999999
1
1
1
1
1
2.55952e-06
3.94353e-06
5.28801e-06
5.84081e-06
6.50416e-06
7.28325e-06
8.22931e-06
8.94641e-06
9.36493e-06
9.57782e-06
9.74254e-06
9.86163e-06
9.9355e-06
9.97065e-06
9.98473e-06
9.99711e-06
1.00028e-05
1.00039e-05
1.00037e-05
1.00038e-05
1.00037e-05
1.00039e-05
1.0004e-05
1.00039e-05
1.00033e-05
1.00027e-05
1.00019e-05
1.00014e-05
1.00009e-05
1.00004e-05
9.99964e-06
9.99854e-06
9.99711e-06
9.99563e-06
9.99418e-06
9.99302e-06
9.9922e-06
9.99167e-06
9.99146e-06
1.00001e-05
1.00528e-05
1.02396e-05
1.07774e-05
1.24497e-05
1.61216e-05
2.21545e-05
3.00909e-05
3.7838e-05
5.19651e-05
8.52951e-05
0.000104658
0.000115188
0.00011983
0.000126378
0.000139648
0.000176193
0.000177487
0.000198771
0.000395205
0.10716
0.986311
0.99999
1
1
1
1
1
1
1
1
1
0.999999
0.999999
0.999999
0.999999
0.999999
0.999999
0.999999
0.999999
0.999999
0.999999
0.999999
0.999999
0.999999
0.999999
0.999999
0.999999
0.999999
0.999999
0.999999
0.999999
0.999999
1
1
1
1
2.232e-06
3.16726e-06
4.97364e-06
5.78955e-06
6.50951e-06
7.11104e-06
7.81543e-06
8.49235e-06
9.01324e-06
9.37087e-06
9.63863e-06
9.82214e-06
9.9196e-06
9.96435e-06
9.97886e-06
9.9927e-06
9.99982e-06
1.00009e-05
1.00008e-05
1.00009e-05
1.00009e-05
1.00008e-05
1.00007e-05
1.00004e-05
9.9998e-06
9.99922e-06
9.99865e-06
9.99808e-06
9.99753e-06
9.99701e-06
9.99631e-06
9.99523e-06
9.99388e-06
9.99246e-06
9.99111e-06
9.99007e-06
9.98939e-06
9.989e-06
9.98904e-06
9.99955e-06
1.00596e-05
1.03131e-05
1.09682e-05
1.2268e-05
1.55743e-05
2.23359e-05
3.08812e-05
4.14228e-05
5.46239e-05
7.50061e-05
8.59347e-05
0.000121689
0.000128656
0.000137933
0.000160606
0.000190029
0.000181493
0.000192878
0.000323484
0.0789926
0.97578
0.999999
0.999999
0.999999
0.999999
0.999999
0.999999
0.999999
0.999999
1
0.999999
0.999999
0.999999
0.999999
0.999999
0.999999
0.999999
0.999999
0.999999
0.999999
0.999999
0.999999
0.999999
0.999999
0.999999
0.999999
0.999999
0.999999
0.999999
0.999999
0.999999
0.999999
0.999999
1
1
1
2.10299e-06
2.49749e-06
4.20302e-06
5.06514e-06
5.85496e-06
6.58204e-06
7.36013e-06
8.1343e-06
8.797e-06
9.27979e-06
9.60019e-06
9.80884e-06
9.91307e-06
9.96113e-06
9.97526e-06
9.98935e-06
9.99724e-06
9.99814e-06
9.9979e-06
9.9978e-06
9.99764e-06
9.99748e-06
9.99729e-06
9.99692e-06
9.99634e-06
9.99576e-06
9.99523e-06
9.99473e-06
9.99427e-06
9.99382e-06
9.99322e-06
9.99221e-06
9.99093e-06
9.98959e-06
9.98837e-06
9.98738e-06
9.98671e-06
9.98621e-06
9.98587e-06
9.99145e-06
1.00255e-05
1.02549e-05
1.10226e-05
1.26532e-05
1.59674e-05
2.24741e-05
3.1161e-05
4.20473e-05
5.53785e-05
6.48477e-05
9.34578e-05
0.0001264
0.000135084
0.000151335
0.000180441
0.000193936
0.00016964
0.000175347
0.000231238
0.130735
0.995938
0.999982
0.999985
0.999988
0.999986
0.999984
0.999983
0.999983
0.999982
0.999982
0.999984
0.999985
0.999986
0.999988
0.99999
0.999992
0.999994
0.999995
0.999997
0.999998
0.999999
0.999999
0.999999
0.999999
0.999999
0.999999
0.999999
0.999999
0.999999
0.999999
0.999999
0.999999
0.999999
1
1
1
2.02013e-06
2.07116e-06
3.5287e-06
4.51105e-06
5.38938e-06
6.20439e-06
7.04927e-06
7.89981e-06
8.66143e-06
9.23098e-06
9.58159e-06
9.80312e-06
9.90991e-06
9.95951e-06
9.97355e-06
9.98751e-06
9.99601e-06
9.9968e-06
9.99654e-06
9.99638e-06
9.99618e-06
9.99595e-06
9.99572e-06
9.99533e-06
9.99475e-06
9.99416e-06
9.99365e-06
9.99318e-06
9.99277e-06
9.99235e-06
9.99178e-06
9.99078e-06
9.98952e-06
9.98823e-06
9.98706e-06
9.9861e-06
9.98544e-06
9.98505e-06
9.98482e-06
9.98941e-06
1.00101e-05
1.01419e-05
1.07806e-05
1.25037e-05
1.60173e-05
2.10324e-05
2.71606e-05
3.61481e-05
4.586e-05
5.6079e-05
8.40535e-05
0.000123389
0.000139863
0.000165147
0.000186714
0.000186849
0.000172157
0.000176361
0.000160676
0.185799
0.99615
0.999353
0.999438
0.999519
0.999528
0.999499
0.999469
0.999435
0.999405
0.999387
0.999376
0.999363
0.999356
0.999433
0.999513
0.999623
0.999725
0.999809
0.99987
0.999917
0.999952
0.999975
0.999987
0.999993
0.999997
0.999999
0.999999
0.999999
0.999999
0.999999
0.999999
0.999999
0.999999
0.999999
1
1
1.93586e-06
1.79692e-06
2.90362e-06
3.96825e-06
4.98679e-06
5.92431e-06
6.85399e-06
7.75962e-06
8.58238e-06
9.20646e-06
9.57416e-06
9.80129e-06
9.9085e-06
9.95845e-06
9.97237e-06
9.98611e-06
9.99501e-06
9.99565e-06
9.99536e-06
9.99516e-06
9.99494e-06
9.99466e-06
9.99439e-06
9.994e-06
9.99341e-06
9.99284e-06
9.99235e-06
9.99191e-06
9.99154e-06
9.99119e-06
9.99066e-06
9.98969e-06
9.98845e-06
9.98715e-06
9.98595e-06
9.98497e-06
9.98421e-06
9.98396e-06
9.98381e-06
9.98791e-06
1.00055e-05
1.01107e-05
1.06307e-05
1.20814e-05
1.50935e-05
1.98961e-05
2.5443e-05
3.3245e-05
4.09952e-05
5.83647e-05
9.15285e-05
0.000127912
0.000145364
0.00017101
0.000183426
0.000183479
0.000189029
0.000228663
0.000184689
0.23552
0.98737
0.994242
0.994444
0.994691
0.994746
0.994662
0.994535
0.994339
0.994114
0.993774
0.993422
0.993132
0.992981
0.993112
0.99369
0.994592
0.995729
0.996897
0.997916
0.99865
0.999137
0.999447
0.999624
0.999745
0.999837
0.999921
0.999973
0.999993
0.999999
1
1
1
0.999999
0.999999
1
1
1.87167e-06
1.59868e-06
2.39495e-06
3.40137e-06
4.6128e-06
5.68307e-06
6.71741e-06
7.6759e-06
8.54027e-06
9.19631e-06
9.57175e-06
9.80068e-06
9.90795e-06
9.95795e-06
9.97188e-06
9.9855e-06
9.99463e-06
9.99514e-06
9.99487e-06
9.99467e-06
9.99449e-06
9.99421e-06
9.99394e-06
9.99356e-06
9.99298e-06
9.99244e-06
9.99198e-06
9.99156e-06
9.99121e-06
9.99089e-06
9.99039e-06
9.98943e-06
9.98819e-06
9.98688e-06
9.98569e-06
9.9847e-06
9.98391e-06
9.9834e-06
9.98326e-06
9.98796e-06
1.00063e-05
1.01046e-05
1.05973e-05
1.19855e-05
1.47687e-05
1.95074e-05
2.60835e-05
3.50959e-05
4.64807e-05
7.90409e-05
0.000128918
0.000160807
0.000157268
0.000172687
0.000173651
0.000172379
0.000158818
0.000207981
0.000147262
0.315173
0.977961
0.985313
0.984733
0.9844
0.984037
0.983412
0.98279
0.982086
0.981346
0.980508
0.979753
0.979162
0.978667
0.978386
0.978394
0.978823
0.979494
0.981149
0.983531
0.986308
0.988906
0.991295
0.993364
0.995177
0.996786
0.998038
0.998886
0.999395
0.999731
0.999959
0.999969
0.999966
0.999965
0.999952
0.999821
0.999689
1.81534e-06
1.47074e-06
1.98916e-06
2.79177e-06
4.08292e-06
5.3629e-06
6.59608e-06
7.61555e-06
8.51669e-06
9.19306e-06
9.57407e-06
9.80262e-06
9.909e-06
9.95798e-06
9.97171e-06
9.98522e-06
9.99442e-06
9.99491e-06
9.99474e-06
9.99462e-06
9.99456e-06
9.99462e-06
9.99453e-06
9.99432e-06
9.99384e-06
9.99338e-06
9.99292e-06
9.99249e-06
9.99213e-06
9.99177e-06
9.99122e-06
9.99017e-06
9.98886e-06
9.98753e-06
9.98643e-06
9.98557e-06
9.9849e-06
9.98439e-06
9.98507e-06
9.99058e-06
1.00077e-05
1.00984e-05
1.05761e-05
1.19296e-05
1.45722e-05
1.91831e-05
2.69523e-05
3.8665e-05
5.42294e-05
0.000102494
0.000156018
0.000166358
0.000168839
0.00017287
0.000168603
0.000168915
0.000154591
0.000158539
0.000147262
0.308883
0.971278
0.980837
0.979551
0.978998
0.978534
0.977776
0.977172
0.97656
0.975908
0.975207
0.974414
0.973642
0.972931
0.971943
0.97055
0.968787
0.966634
0.964706
0.964028
0.963771
0.964066
0.965388
0.967507
0.969965
0.972628
0.974996
0.977061
0.978215
0.97691
0.969281
0.961409
0.949988
0.935992
0.914497
0.866143
0.674255
1.72443e-06
1.39636e-06
1.67327e-06
2.19173e-06
3.37005e-06
4.84649e-06
6.40799e-06
7.5609e-06
8.50364e-06
9.20124e-06
9.58439e-06
9.8088e-06
9.91364e-06
9.96093e-06
9.9733e-06
9.98688e-06
9.9963e-06
9.99642e-06
9.99619e-06
9.996e-06
9.99588e-06
9.99576e-06
9.9957e-06
9.99556e-06
9.99514e-06
9.9947e-06
9.99429e-06
9.99391e-06
9.99359e-06
9.99328e-06
9.99277e-06
9.9918e-06
9.9906e-06
9.98936e-06
9.98834e-06
9.98756e-06
9.987e-06
9.98657e-06
9.98738e-06
9.99301e-06
1.00097e-05
1.0099e-05
1.05517e-05
1.18095e-05
1.42654e-05
1.85936e-05
2.7134e-05
3.98087e-05
5.77204e-05
9.14963e-05
0.000157602
0.000165701
0.000166158
0.000167332
0.000164985
0.000167337
0.000154192
0.000150874
0.000147262
0.224828
0.971147
0.984783
0.984435
0.984406
0.984548
0.984331
0.984055
0.983324
0.982489
0.981523
0.980583
0.979553
0.9785
0.977548
0.976334
0.974534
0.971664
0.967778
0.963958
0.960474
0.957098
0.955115
0.953578
0.951798
0.95007
0.947911
0.945136
0.941347
0.937201
0.933693
0.929945
0.925347
0.922141
0.917624
0.910203
0.911333
1.61603e-06
1.34481e-06
1.43513e-06
1.70964e-06
2.55431e-06
4.14899e-06
6.10739e-06
7.51002e-06
8.50212e-06
9.21711e-06
9.59645e-06
9.81812e-06
9.92024e-06
9.96318e-06
9.9744e-06
9.98828e-06
9.99796e-06
9.99803e-06
9.99792e-06
9.9978e-06
9.99772e-06
9.99768e-06
9.99764e-06
9.9975e-06
9.99707e-06
9.99662e-06
9.99619e-06
9.99576e-06
9.99536e-06
9.99498e-06
9.99442e-06
9.99335e-06
9.99208e-06
9.99073e-06
9.98961e-06
9.98873e-06
9.98802e-06
9.98762e-06
9.98875e-06
9.99421e-06
1.00113e-05
1.01011e-05
1.05228e-05
1.16582e-05
1.38881e-05
1.77446e-05
2.49878e-05
3.68006e-05
5.29583e-05
8.05037e-05
0.000126434
0.00015688
0.00016271
0.000163517
0.000162055
0.00016687
0.000157961
0.000153174
0.000147262
0.159734
0.979911
0.993897
0.994188
0.994861
0.995194
0.9954
0.995204
0.994953
0.994612
0.994305
0.994005
0.993671
0.993319
0.992965
0.992564
0.991987
0.991104
0.989514
0.987016
0.983398
0.978733
0.972793
0.966997
0.960887
0.954563
0.948903
0.944948
0.942236
0.940963
0.941943
0.945895
0.951142
0.959772
0.971119
0.983432
0.991998
1.52976e-06
1.30068e-06
1.2993e-06
1.37354e-06
1.87552e-06
3.26507e-06
5.49354e-06
7.27605e-06
8.4907e-06
9.23322e-06
9.60914e-06
9.83019e-06
9.92595e-06
9.96375e-06
9.97359e-06
9.98831e-06
9.99826e-06
9.99824e-06
9.99826e-06
9.99825e-06
9.99826e-06
9.99825e-06
9.99825e-06
9.99813e-06
9.99775e-06
9.99734e-06
9.99693e-06
9.99655e-06
9.99621e-06
9.99585e-06
9.99537e-06
9.99437e-06
9.99317e-06
9.99189e-06
9.99085e-06
9.99012e-06
9.98954e-06
9.98929e-06
9.99039e-06
9.99553e-06
1.00126e-05
1.00928e-05
1.0475e-05
1.152e-05
1.35898e-05
1.70446e-05
2.3333e-05
3.35287e-05
4.78858e-05
7.03925e-05
9.5041e-05
0.000116251
0.000137524
0.000150708
0.000151648
0.000160683
0.000162454
0.000165838
0.000147262
0.116611
0.990139
0.998758
0.998858
0.999006
0.999038
0.999065
0.998969
0.998904
0.998843
0.998788
0.99875
0.998708
0.998663
0.998607
0.998529
0.998423
0.998228
0.997828
0.997151
0.996067
0.994635
0.992718
0.990427
0.987137
0.982829
0.978694
0.976232
0.975432
0.975431
0.980394
0.985215
0.990439
0.994911
0.997854
0.999339
0.999743
1.48606e-06
1.26081e-06
1.24077e-06
1.23148e-06
1.4859e-06
2.54516e-06
4.59672e-06
6.85143e-06
8.50617e-06
9.28093e-06
9.64171e-06
9.8493e-06
9.9311e-06
9.96364e-06
9.97113e-06
9.98478e-06
9.99636e-06
9.99825e-06
9.99825e-06
9.99825e-06
9.99825e-06
9.99825e-06
9.99824e-06
9.99799e-06
9.99765e-06
9.99728e-06
9.99692e-06
9.9966e-06
9.99631e-06
9.99593e-06
9.99543e-06
9.99444e-06
9.99323e-06
9.99194e-06
9.99088e-06
9.99015e-06
9.98955e-06
9.98941e-06
9.99074e-06
9.9955e-06
1.0013e-05
1.00871e-05
1.04311e-05
1.13959e-05
1.33385e-05
1.65884e-05
2.1798e-05
2.95431e-05
4.10052e-05
6.52642e-05
9.46556e-05
0.000114165
0.000114677
0.000122877
0.000130497
0.000143909
0.000162404
0.000216312
0.000161798
0.082766
0.995098
0.999819
0.999829
0.999849
0.999852
0.999857
0.99985
0.999845
0.999843
0.999843
0.999842
0.999842
0.999839
0.999833
0.999825
0.999817
0.999807
0.999762
0.999681
0.99954
0.999334
0.999089
0.998786
0.99835
0.997746
0.997256
0.997084
0.997386
0.997899
0.998596
0.999196
0.999652
0.999881
0.999967
0.999993
0.999996
1.48606e-06
1.325e-06
1.23405e-06
1.21044e-06
1.20648e-06
1.67413e-06
3.05539e-06
5.431e-06
8.06076e-06
9.32064e-06
9.67538e-06
9.86317e-06
9.93209e-06
9.9557e-06
9.96433e-06
9.98235e-06
9.99518e-06
9.99728e-06
9.99759e-06
9.99803e-06
9.99825e-06
9.99815e-06
9.99798e-06
9.99801e-06
9.99773e-06
9.9974e-06
9.99705e-06
9.9967e-06
9.99636e-06
9.99593e-06
9.99501e-06
9.9936e-06
9.99215e-06
9.99066e-06
9.98937e-06
9.98882e-06
9.98857e-06
9.98882e-06
9.9892e-06
9.99199e-06
1.00071e-05
1.00771e-05
1.03875e-05
1.12956e-05
1.31708e-05
1.62491e-05
2.06463e-05
2.65423e-05
3.66217e-05
6.40507e-05
9.84098e-05
0.000114191
0.000115366
0.000119905
0.000119381
0.000146698
0.000175102
0.00029297
0.00022591
0.0660421
0.993323
0.999986
0.999985
0.999988
0.999989
0.999989
0.999989
0.999989
0.999989
0.999989
0.999989
0.999989
0.999989
0.99999
0.99999
0.99999
0.999989
0.999987
0.999984
0.999976
0.999963
0.999954
0.999948
0.999936
0.999917
0.999911
0.999936
0.999956
0.99997
0.999983
0.999992
0.999997
0.999999
0.999999
0.999999
0.999999
1.62168e-06
1.76904e-06
1.55148e-06
1.54367e-06
1.16662e-06
1.17779e-06