/*--------------------------------*- C++ -*----------------------------------*\
| =========                 |                                                 |
| \\      /  F ield         | OpenFOAM: The Open Source CFD Toolbox           |
|  \\    /   O peration     | Version:  2.3.0                                 |
|   \\  /    A nd           | Web:      www.OpenFOAM.org                      |
|    \\/     M anipulation  |                                                 |
\*---------------------------------------------------------------------------*/
FoamFile
{
    version     2.0;
    format      ascii;
    class       surfaceScalarField;
    location    "58";
    object      phi.air;
}
// * * * * * * * * * * * * * * * * * * * * * * * * * * * * * * * * * * * * * //

dimensions      [0 3 -1 0 0 0 0];

internalField   nonuniform List<scalar> 
16448
(
-1.28389e-06
-2.41136e-06
6.21834e-07
4.21162e-07
-2.50313e-06
7.98076e-07
4.5187e-07
-1.20467e-06
1.17395e-06
3.92187e-07
-1.01021e-06
1.06988e-06
6.21709e-08
-5.551e-07
8.85105e-07
-5.62252e-08
-6.76164e-07
7.94548e-07
-5.74362e-08
-7.03289e-07
7.04488e-07
-5.52679e-08
-6.64857e-07
6.62677e-07
-1.41921e-07
-5.0541e-07
5.92054e-07
-3.25555e-07
-3.47278e-07
5.30902e-07
-5.31969e-07
-2.53148e-07
4.59553e-07
-6.33909e-07
-2.62356e-07
3.64288e-07
-6.21587e-07
-3.02255e-07
2.89923e-07
-5.17281e-07
-3.46364e-07
2.42047e-07
-3.93904e-07
-3.6267e-07
2.39282e-07
-2.60591e-07
-3.82999e-07
2.49674e-07
-1.39148e-07
-3.97752e-07
2.76298e-07
-3.4469e-08
-4.12799e-07
3.08108e-07
4.61876e-08
-4.25859e-07
3.45191e-07
1.01643e-07
-4.35957e-07
3.80489e-07
1.29867e-07
-4.41567e-07
4.13331e-07
1.36002e-07
-4.46572e-07
4.40423e-07
1.28348e-07
-4.49471e-07
4.57112e-07
1.1362e-07
-4.47487e-07
4.62202e-07
9.61252e-08
-4.403e-07
4.57781e-07
8.04144e-08
-4.29513e-07
4.4521e-07
7.10372e-08
-4.17791e-07
4.27155e-07
7.21837e-08
-4.09139e-07
4.07979e-07
8.38359e-08
-4.00291e-07
3.88625e-07
1.02883e-07
-3.90521e-07
3.71459e-07
1.27968e-07
-3.80877e-07
3.55778e-07
1.60346e-07
-3.72955e-07
3.40562e-07
2.02876e-07
-3.67848e-07
3.25304e-07
2.60407e-07
-3.67528e-07
3.09981e-07
3.37372e-07
-3.73253e-07
2.96274e-07
4.32591e-07
-3.84037e-07
2.88802e-07
5.39252e-07
-3.97486e-07
2.90809e-07
6.39783e-07
-4.0831e-07
3.07761e-07
7.05637e-07
-4.12511e-07
3.46641e-07
7.10264e-07
-4.28648e-07
4.24004e-07
6.31282e-07
-4.57339e-07
5.36304e-07
5.57024e-07
-5.52882e-07
6.27123e-07
5.87471e-07
-6.89702e-07
6.59237e-07
6.76588e-07
-7.12847e-07
6.23712e-07
6.13873e-07
-5.07971e-07
5.70668e-07
3.7545e-07
-3.79101e-07
6.17506e-07
3.84595e-08
-5.67771e-07
9.04744e-07
-2.55104e-07
-1.14808e-06
1.44162e-06
-1.11175e-06
-1.33311e-06
2.18972e-06
-3.20604e-06
-4.33637e-07
2.5279e-06
-5.46714e-06
-2.60785e-07
2.52187e-06
-5.54728e-06
-2.35713e-06
2.43727e-06
-4.6735e-06
-3.07029e-06
2.1965e-06
-3.02066e-06
-3.91196e-06
2.25912e-06
8.06465e-07
-8.0209e-06
4.19372e-06
8.24677e-06
-9.95128e-06
2.51099e-06
8.62882e-06
-7.25268e-06
6.87054e-06
1.19572e-05
-4.08812e-06
7.59579e-07
-8.93492e-06
2.34058e-06
1.82601e-05
-3.1651e-05
-4.24666e-06
-4.29295e-06
-6.53285e-05
-1.65719e-05
2.96042e-06
-1.59915e-05
-8.62353e-06
1.10754e-05
2.68078e-05
-7.9277e-06
9.10331e-06
2.86341e-05
-7.62325e-06
5.65172e-06
2.95301e-05
-6.35212e-06
5.302e-06
2.832e-05
-4.04429e-06
5.33256e-06
2.72337e-05
-3.89948e-06
4.9508e-06
2.516e-05
-2.57694e-06
4.71019e-06
2.231e-05
-1.37331e-06
4.20235e-06
1.98329e-05
-1.05863e-06
3.48044e-06
1.80191e-05
-6.36177e-07
2.46684e-06
1.67049e-05
-5.35415e-07
1.80689e-06
1.59063e-05
-6.80472e-07
1.45364e-06
1.58075e-05
-4.83379e-07
5.81288e-07
1.57542e-05
6.33927e-07
-6.02266e-07
1.495e-05
1.69497e-06
-9.12471e-07
1.36688e-05
2.09189e-06
-8.11742e-07
1.07399e-05
2.52222e-06
3.55166e-07
4.33855e-06
4.3857e-06
1.87832e-06
5.63293e-08
4.26002e-07
3.717e-06
-9.53729e-08
-4.0466e-06
4.21388e-06
8.08861e-07
-5.06827e-06
4.16847e-06
2.09269e-06
-5.9528e-06
4.59896e-06
3.77749e-06
-6.30745e-06
4.56403e-06
6.06834e-06
-6.30152e-06
3.97673e-06
8.16811e-06
-5.61717e-06
3.54694e-06
9.02214e-06
-3.71155e-06
2.93781e-06
8.78013e-06
-1.97501e-06
2.28346e-06
7.59759e-06
-7.98758e-07
2.02153e-06
5.15188e-06
2.1925e-07
2.25437e-06
1.95775e-06
3.05848e-07
2.9793e-06
-2.43839e-06
1.13664e-07
4.36802e-06
-7.74825e-06
9.81791e-07
4.3248e-06
-1.05361e-05
1.40699e-06
1.38579e-06
-8.87385e-06
2.621e-06
-4.23984e-06
1.66646e-06
-9.86593e-06
-2.00716e-06
-3.45891e-06
-1.15359e-07
-6.24243e-07
-3.76177e-06
-1.24283e-07
-2.66603e-07
-2.26741e-06
7.05095e-07
1.37486e-07
-1.85814e-06
4.43824e-07
1.91349e-07
-9.16472e-07
3.07491e-07
7.42793e-08
-8.14767e-07
2.55654e-07
-2.92217e-08
-7.39766e-07
1.3996e-07
-1.25753e-07
-6.55594e-07
8.72517e-08
-2.85283e-07
-4.22339e-07
7.64433e-08
-5.1312e-07
-2.27378e-07
1.07924e-07
-7.22533e-07
-1.38999e-07
9.52502e-08
-8.02623e-07
-1.99233e-07
1.69515e-08
-7.81045e-07
-2.72067e-07
-5.17817e-08
-6.78278e-07
-3.46178e-07
-1.0297e-07
-5.48213e-07
-3.7638e-07
-1.16373e-07
-4.06448e-07
-4.07872e-07
-1.16909e-07
-2.7321e-07
-4.28505e-07
-1.02503e-07
-1.54056e-07
-4.48716e-07
-8.32575e-08
-5.63239e-08
-4.64283e-07
-5.93284e-08
1.74346e-08
-4.74706e-07
-3.50308e-08
6.454e-08
-4.77441e-07
-1.12529e-08
8.78932e-08
-4.76441e-07
6.49354e-09
9.56468e-08
-4.71836e-07
1.45894e-08
9.35223e-08
-4.62223e-07
1.68377e-08
8.59219e-08
-4.47186e-07
1.44633e-08
7.69021e-08
-4.28933e-07
8.41622e-09
7.01982e-08
-4.10633e-07
-4.78469e-10
7.11935e-08
-3.95438e-07
-1.47217e-08
8.14227e-08
-3.81395e-07
-2.91505e-08
9.96938e-08
-3.66445e-07
-4.23739e-08
1.25371e-07
-3.52116e-07
-5.4465e-08
1.59209e-07
-3.41455e-07
-6.53656e-08
2.02178e-07
-3.36682e-07
-7.41626e-08
2.56685e-07
-3.41328e-07
-8.07363e-08
3.26165e-07
-3.57998e-07
-8.47647e-08
4.11825e-07
-3.85335e-07
-8.43929e-08
5.07732e-07
-4.17375e-07
-7.60493e-08
5.91858e-07
-4.40241e-07
-5.22264e-08
6.2536e-07
-4.44642e-07
-1.40512e-09
5.94518e-07
-4.54572e-07
5.67327e-08
5.33681e-07
-5.17581e-07
1.21045e-07
5.74635e-07
-7.10212e-07
1.1634e-07
7.99023e-07
-9.45918e-07
3.17922e-08
1.246e-06
-1.04943e-06
-1.10437e-07
1.90455e-06
-9.01024e-07
-2.65534e-07
2.65538e-06
-8.6486e-07
-2.65103e-07
3.03507e-06
-1.01726e-06
6.97633e-08
2.20518e-06
-1.26008e-06
9.41845e-07
-2.49282e-07
-1.11703e-06
2.23835e-06
-2.81008e-06
-3.50963e-07
2.47808e-06
-2.23625e-06
-2.4466e-06
1.61194e-06
8.10407e-07
-4.46427e-06
-9.39536e-07
3.3356e-06
-6.21382e-06
6.18297e-07
7.06989e-06
-8.90556e-06
1.25928e-06
9.14143e-06
-1.40802e-05
3.98769e-06
1.65291e-05
-2.10598e-05
3.72078e-06
1.72489e-05
-1.22302e-05
4.25759e-06
1.84652e-05
-1.07887e-05
5.48419e-06
-6.53208e-06
2.80551e-06
2.42684e-05
-3.20177e-05
-8.12937e-06
-2.33831e-06
-7.35605e-05
-2.31181e-05
-3.02684e-06
-2.47157e-05
-1.15685e-05
1.24447e-05
1.68468e-05
-1.15697e-05
6.00832e-06
1.78225e-05
-1.00454e-05
1.13962e-06
1.64656e-05
-5.77056e-06
7.81299e-07
1.1558e-05
-1.56092e-06
2.42512e-06
3.13072e-06
9.55005e-07
3.52744e-06
-5.551e-06
2.60629e-06
3.37193e-06
-1.0385e-05
2.14327e-06
1.35462e-06
-1.13188e-05
1.13365e-06
-1.18419e-06
-1.07268e-05
1.26509e-06
-2.43278e-06
-8.25468e-06
1.08057e-06
-4.07475e-06
-6.07854e-06
5.0041e-07
-3.37792e-06
-3.62374e-06
3.69782e-07
-3.35047e-06
-1.33902e-06
1.27867e-06
-2.96297e-06
-1.57762e-06
2.6728e-06
-7.64283e-07
-4.2037e-06
2.67397e-06
2.02989e-06
-7.22257e-06
1.17698e-06
4.47502e-06
-8.04854e-06
6.04261e-08
5.15427e-06
-6.96973e-06
-3.56208e-06
2.88216e-06
-4.69801e-06
-6.69617e-06
4.59878e-07
-2.24595e-06
-7.40673e-06
-1.17218e-07
-1.72081e-07
-8.54098e-06
4.64167e-07
1.99073e-06
-8.85807e-06
3.42462e-07
4.49507e-06
-8.43506e-06
-3.3516e-07
6.71267e-06
-7.4701e-06
-2.61826e-07
8.56612e-06
-5.42691e-06
-6.35067e-08
1.00775e-05
-3.27962e-06
-1.29616e-07
1.1035e-05
-1.7579e-06
5.09121e-08
1.05171e-05
6.07352e-07
2.04221e-07
8.70879e-06
2.07318e-06
1.9484e-07
2.59906e-06
3.70912e-06
2.71963e-06
-5.8154e-06
3.90116e-06
5.57303e-06
-1.01309e-05
3.5945e-06
2.15808e-06
-9.15808e-06
5.8875e-06
-4.17349e-06
4.58864e-06
-1.13746e-05
-2.52957e-06
-3.73701e-06
-3.85582e-07
-1.41031e-06
-4.25405e-06
-6.26988e-07
-9.81423e-07
-2.91771e-06
2.21404e-07
-3.78186e-07
-2.52485e-06
6.34613e-08
-6.91578e-08
-1.23078e-06
5.26078e-09
-8.42529e-08
-8.00829e-07
1.13825e-09
-1.89406e-07
-4.82875e-07
-1.51755e-07
-2.75657e-07
-3.91476e-07
-1.77883e-07
-3.75405e-07
-1.43603e-07
-1.79002e-07
-4.80293e-07
1.7452e-08
-1.39956e-07
-6.03515e-07
9.85557e-08
-1.14347e-07
-6.68906e-07
2.22514e-08
-1.56108e-07
-6.84661e-07
-4.4709e-08
-2.11618e-07
-6.4737e-07
-1.24472e-07
-2.59014e-07
-5.78401e-07
-1.63775e-07
-2.8159e-07
-4.89769e-07
-2.00032e-07
-2.9649e-07
-3.97824e-07
-2.21747e-07
-2.98721e-07
-3.08341e-07
-2.41518e-07
-2.967e-07
-2.27976e-07
-2.54518e-07
-2.90149e-07
-1.58251e-07
-2.6211e-07
-2.82341e-07
-1.00295e-07
-2.61364e-07
-2.74053e-07
-5.44467e-08
-2.54224e-07
-2.68087e-07
-2.07973e-08
-2.41922e-07
-2.63585e-07
2.8522e-09
-2.25616e-07
-2.60278e-07
1.93167e-08
-2.0571e-07
-2.57964e-07
3.15524e-08
-1.84328e-07
-2.56865e-07
4.20493e-08
-1.64034e-07
-2.57119e-07
5.20089e-08
-1.46435e-07
-2.58987e-07
6.40134e-08
-1.31293e-07
-2.62131e-07
8.01077e-08
-1.16617e-07
-2.65948e-07
1.00677e-07
-1.03685e-07
-2.69026e-07
1.25134e-07
-9.57168e-08
-2.70222e-07
1.51456e-07
-9.4352e-08
-2.68679e-07
1.77546e-07
-1.03257e-07
-2.64188e-07
2.03018e-07
-1.2643e-07
-2.57068e-07
2.30264e-07
-1.64382e-07
-2.48228e-07
2.56397e-07
-2.08047e-07
-2.35492e-07
2.67389e-07
-2.37546e-07
-2.13718e-07
2.49744e-07
-2.46539e-07
-1.80488e-07
2.29477e-07
-2.86098e-07
-1.4824e-07
3.25551e-07
-4.65684e-07
-1.48003e-07
6.42911e-07
-8.0527e-07
-2.22335e-07
1.14276e-06
-1.07123e-06
-3.74569e-07
1.88354e-06
-1.17244e-06
-6.178e-07
2.97023e-06
-1.15744e-06
-8.30311e-07
4.1654e-06
-1.29465e-06
-7.65423e-07
4.84263e-06
-1.41775e-06
-2.76788e-07
4.06841e-06
-1.2932e-06
8.07297e-07
1.792e-06
-7.31153e-07
1.89048e-06
-6.52575e-07
2.86644e-07
1.80693e-06
1.4189e-06
-3.1737e-06
-1.34442e-06
6.09072e-06
-5.4918e-06
-3.64433e-06
7.73641e-06
-6.11959e-06
-1.73997e-06
8.90884e-06
-1.03256e-05
2.4752e-07
9.88947e-06
-1.8197e-05
3.13598e-06
1.2308e-05
-2.75346e-05
4.05627e-06
1.31612e-05
-1.71627e-05
4.07928e-06
2.24841e-05
-1.97952e-05
-3.16468e-07
-8.10592e-06
1.19293e-05
2.12267e-05
-3.346e-05
-1.34128e-05
-2.9669e-06
-7.83906e-05
-2.83701e-05
-7.54178e-06
-3.09478e-05
-1.35428e-05
4.09202e-07
1.15359e-05
-1.04683e-05
4.31124e-06
1.09335e-05
-9.81888e-06
1.66077e-06
7.20447e-06
-8.46293e-07
1.42071e-06
9.16773e-07
3.84492e-06
2.75522e-06
-8.43091e-06
7.26648e-06
2.84992e-06
-1.51483e-05
7.49233e-06
4.20249e-06
-1.82829e-05
5.52865e-06
-2.33551e-07
-1.87961e-05
3.966e-06
-2.07193e-06
-1.85412e-05
3.37049e-06
-2.33633e-06
-1.84604e-05
2.29638e-06
-1.41008e-06
-1.82186e-05
1.54059e-06
-1.22404e-06
-1.79683e-05
8.30413e-07
-1.26866e-07
-1.81545e-05
2.77253e-07
1.18436e-06
-1.81964e-05
3.88849e-07
2.38444e-06
-1.75493e-05
-1.23958e-06
3.27944e-06
-1.6289e-05
-3.35718e-06
3.29491e-06
-1.35969e-05
-4.63903e-06
2.021e-06
-1.08257e-05
-6.03494e-06
-2.68302e-07
-7.69877e-06
-8.13739e-06
-1.65788e-06
-4.24848e-06
-8.97243e-06
-1.87584e-06
-1.13432e-06
-1.00028e-05
-1.76923e-06
1.80436e-06
-9.84753e-06
-2.04391e-06
4.78159e-06
-8.81692e-06
-2.59552e-06
7.83108e-06
-7.34906e-06
-3.19885e-06
9.99634e-06
-4.91709e-06
-2.6094e-06
1.18889e-05
-2.42125e-06
-2.68618e-06
1.28193e-05
-2.69072e-07
-2.31498e-06
1.31153e-05
2.36032e-06
-1.98249e-06
1.1039e-05
5.19983e-06
-9.33876e-07
6.86613e-06
8.15507e-06
-4.40564e-08
-1.05387e-06
8.31488e-06
3.73807e-06
-7.888e-06
7.41198e-06
2.97902e-06
-8.51205e-06
9.42219e-06
-2.72842e-06
9.30227e-06
-1.2427e-05
-2.98962e-06
-3.78486e-06
-2.1201e-07
-1.90518e-06
-4.46663e-06
-8.71854e-07
-1.58987e-06
-3.31587e-06
8.28345e-08
-9.59555e-07
-3.19535e-06
4.01661e-08
-4.8401e-07
-1.84228e-06
1.35936e-07
-2.59315e-07
-1.0827e-06
5.71594e-08
-2.75114e-07
-3.14953e-07
-1.52141e-07
-3.15917e-07
-1.44673e-07
-2.06014e-07
-3.19762e-07
8.49617e-08
-2.24734e-07
-3.49483e-07
2.40218e-07
-1.93059e-07
-4.0623e-07
3.50576e-07
-1.95287e-07
-4.79442e-07
3.15276e-07
-2.19828e-07
-5.53399e-07
2.81483e-07
-2.52252e-07
-5.75975e-07
1.92033e-07
-2.93946e-07
-5.58582e-07
1.39508e-07
-3.20694e-07
-5.09719e-07
9.67734e-08
-3.45686e-07
-4.44911e-07
7.4484e-08
-3.61058e-07
-3.75785e-07
6.26333e-08
-3.73296e-07
-3.09145e-07
5.94705e-08
-3.80649e-07
-2.47033e-07
6.06937e-08
-3.84935e-07
-1.89359e-07
6.75061e-08
-3.86566e-07
-1.37033e-07
7.89195e-08
-3.85491e-07
-9.16039e-08
9.42566e-08
-3.8163e-07
-5.40292e-08
1.12897e-07
-3.7611e-07
-2.43238e-08
1.34575e-07
-3.70014e-07
-1.94965e-09
1.57407e-07
-3.64132e-07
1.49997e-08
1.77677e-07
-3.58686e-07
2.89634e-08
1.93742e-07
-3.54165e-07
4.13166e-08
2.07164e-07
-3.50836e-07
5.26535e-08
2.20118e-07
-3.48097e-07
6.22908e-08
2.31746e-07
-3.45095e-07
6.947e-08
2.37487e-07
-3.4041e-07
7.37517e-08
2.34465e-07
-3.33126e-07
7.37774e-08
2.20218e-07
-3.23529e-07
6.80832e-08
1.91822e-07
-3.12586e-07
5.57979e-08
1.49707e-07
-3.01832e-07
3.21323e-08
1.07157e-07
-2.91568e-07
-1.59473e-08
8.8853e-08
-2.7835e-07
-8.26637e-08
8.1924e-08
-2.61778e-07
-8.86481e-08
-2.03526e-08
-2.59792e-07
1.27699e-07
-3.70273e-07
-3.11791e-07
6.33701e-07
-8.52941e-07
-4.58365e-07
1.36053e-06
-1.15744e-06
-6.40654e-07
2.28493e-06
-1.25377e-06
-8.43107e-07
3.36367e-06
-1.26948e-06
-9.66738e-07
4.29492e-06
-1.38019e-06
-8.45746e-07
4.67902e-06
-1.33397e-06
-4.67935e-07
4.2839e-06
-1.26303e-06
3.64912e-07
3.05311e-06
-6.41501e-07
1.1411e-06
2.25517e-06
-1.01574e-06
2.10028e-06
5.39386e-06
-3.2589e-06
-3.05353e-06
9.47247e-06
-4.71408e-06
-4.85638e-06
1.02289e-05
-5.14214e-06
-1.73396e-06
7.10159e-06
-9.20486e-06
2.00658e-06
5.4501e-06
-2.03779e-05
3.83232e-06
1.4572e-06
-2.82082e-05
4.66659e-06
1.11565e-05
-2.62935e-05
-5.68846e-07
2.37282e-05
-2.83497e-05
-4.01703e-06
-2.20866e-06
1.5204e-05
2.20998e-05
-3.94444e-05
-1.0877e-05
-5.00205e-06
-0.000104693
-2.81234e-05
-3.76113e-06
-8.81269e-05
-1.38173e-05
5.49161e-06
-7.27194e-05
-8.53258e-06
5.26438e-06
-6.87268e-05
-4.25632e-06
7.71435e-06
-8.18643e-05
2.48616e-06
3.5847e-06
-6.06035e-05
6.30692e-06
6.62602e-07
-2.47474e-05
8.01135e-06
1.70512e-06
-6.68832e-05
8.08368e-06
-3.92354e-08
-0.00011561
5.70148e-06
-1.39565e-06
-0.000111892
3.8407e-06
-6.36869e-07
-6.29646e-05
2.46394e-06
9.73679e-08
-2.49127e-05
2.96412e-08
1.37875e-06
-6.46285e-05
-1.35136e-06
1.90034e-06
-0.000109466
-1.27654e-06
2.56767e-06
-6.89973e-05
-2.28815e-06
3.45046e-06
-2.3709e-05
-4.55023e-06
4.34968e-06
-2.31936e-05
-5.94339e-06
3.44914e-06
-2.24821e-05
-6.77099e-06
1.39754e-06
-1.99679e-05
-7.6712e-06
-9.82006e-07
-3.27121e-05
-7.95387e-06
-3.05669e-06
-3.06603e-05
-9.28965e-06
-2.43793e-06
-9.30344e-06
-1.09883e-05
-3.74692e-06
-5.23473e-06
-1.22148e-05
-3.54799e-06
-1.13859e-06
-1.11334e-05
-2.73355e-06
2.79711e-06
-1.00127e-05
-2.96523e-06
6.93581e-06
-7.93688e-06
-3.51911e-06
9.60006e-06
-4.82644e-06
-2.73044e-06
1.23234e-05
-1.85067e-06
-3.23959e-06
1.42638e-05
9.59769e-07
-3.12394e-06
1.42854e-05
4.47265e-06
-2.07346e-06
1.29205e-05
8.16943e-06
-1.49924e-06
8.94314e-06
1.24718e-05
-1.38578e-07
5.93298e-07
1.41202e-05
2.90482e-06
-6.76935e-06
1.2503e-05
2.45534e-06
-7.82349e-06
1.37911e-05
-3.20171e-06
1.60678e-05
-1.36589e-05
-3.40984e-06
-3.68712e-06
1.82974e-08
-2.35963e-06
-4.59103e-06
-9.25816e-07
-2.09519e-06
-3.52557e-06
-5.47416e-08
-1.44373e-06
-3.71902e-06
-1.27807e-07
-9.38735e-07
-2.64074e-06
2.93456e-07
-4.32703e-07
-1.78284e-06
1.94096e-07
-2.75952e-07
-3.53539e-07
-1.1818e-07
-3.11925e-07
6.4959e-08
-1.73673e-07
-2.65267e-07
2.65187e-07
-2.26896e-07
-2.43072e-07
4.27929e-07
-2.0992e-07
-2.5017e-07
5.70246e-07
-2.12585e-07
-3.23e-07
5.95006e-07
-2.06915e-07
-4.32076e-07
6.04609e-07
-2.14066e-07
-4.99031e-07
5.00958e-07
-2.41987e-07
-5.13503e-07
4.20946e-07
-2.66981e-07
-4.88189e-07
3.65857e-07
-2.94416e-07
-4.4127e-07
3.43802e-07
-3.16254e-07
-3.89055e-07
3.4637e-07
-3.3597e-07
-3.36558e-07
3.5893e-07
-3.51974e-07
-2.84878e-07
3.73801e-07
-3.64807e-07
-2.32352e-07
3.89922e-07
-3.7496e-07
-1.79784e-07
4.07933e-07
-3.81602e-07
-1.30117e-07
4.28693e-07
-3.84123e-07
-8.56379e-08
4.51055e-07
-3.82659e-07
-4.75892e-08
4.73987e-07
-3.77482e-07
-1.67584e-08
4.95985e-07
-3.69432e-07
7.59072e-09
5.13431e-07
-3.60124e-07
2.61873e-08
5.25848e-07
-3.50726e-07
3.81414e-08
5.36391e-07
-3.41204e-07
4.23617e-08
5.47248e-07
-3.31373e-07
3.80272e-08
5.57306e-07
-3.2125e-07
2.54312e-08
5.61323e-07
-3.11264e-07
4.92781e-09
5.57348e-07
-3.02403e-07
-2.51012e-08
5.44811e-07
-2.94589e-07
-6.8157e-08
5.22976e-07
-2.88124e-07
-1.30161e-07
4.95918e-07
-2.84233e-07
-2.1338e-07
4.73448e-07
-2.83097e-07
-3.08459e-07
4.66084e-07
-2.82178e-07
-3.84982e-07
4.37789e-07
-2.79369e-07
-3.34775e-07
2.28413e-07
-2.99e-07
-5.15787e-08
-2.59844e-07
-3.93653e-07
4.81873e-07
-7.93687e-07
-5.92733e-07
1.23311e-06
-1.11344e-06
-7.95266e-07
2.07884e-06
-1.16518e-06
-9.34355e-07
2.87376e-06
-1.06459e-06
-9.99844e-07
3.2948e-06
-9.6282e-07
-8.38446e-07
3.19365e-06
-7.28134e-07
-5.04722e-07
3.11045e-06
-9.89533e-07
-1.9032e-07
3.45358e-06
-9.59812e-07
-2.48515e-08
4.91125e-06
-3.07842e-06
6.04983e-07
8.63863e-06
-4.56999e-06
-2.41633e-06
1.1943e-05
-3.46951e-06
-4.54898e-06
1.13078e-05
-3.22658e-06
-1.28047e-06
5.78636e-06
-6.88394e-06
3.20054e-06
1.47297e-06
-2.06068e-05
4.5422e-06
-5.08029e-07
-2.92489e-05
3.02187e-06
1.25194e-05
-3.41875e-05
-5.13423e-06
1.49775e-05
-3.29072e-05
2.09951e-06
-2.28496e-06
9.65656e-06
2.186e-05
-4.44037e-05
-7.82274e-06
-5.38875e-06
-0.000115705
-2.41712e-05
-6.33536e-06
-0.000112971
-1.26019e-05
3.72979e-06
-0.000119919
-5.56368e-06
2.17383e-06
-0.000130687
3.55379e-06
5.81495e-06
-0.000135047
4.83759e-06
3.78264e-06
-0.000138732
7.1544e-06
2.51858e-06
-0.000138804
7.93047e-06
1.24273e-06
-0.000140007
6.93841e-06
1.20084e-06
-0.000142394
4.83221e-06
1.51202e-06
-0.000144059
2.30495e-06
2.19736e-06
-0.000144756
-1.41262e-07
2.79666e-06
-0.00014527
-2.60968e-06
3.23527e-06
-0.000146168
-3.90594e-06
4.09667e-06
-0.000147205
-5.38292e-06
4.79363e-06
-0.000147822
-6.98039e-06
5.36996e-06
-0.000147362
-8.18461e-06
4.68925e-06
-0.000145847
-9.32329e-06
3.21408e-06
-0.000143617
-9.62886e-06
1.7332e-06
-0.000139894
-1.06232e-05
3.66955e-07
-0.000134596
-1.13473e-05
1.99392e-07
-0.000126256
-1.29846e-05
4.40794e-07
-0.000106154
-1.44143e-05
1.50932e-06
-5.005e-05
-1.50799e-05
1.40768e-06
-2.25172e-05
-1.53262e-05
-3.60021e-07
-1.9976e-05
-1.14403e-05
2.42339e-07
4.57015e-06
-9.72353e-06
-2.26666e-06
8.90212e-06
-5.73413e-06
-9.00575e-07
1.20261e-05
-3.3209e-06
-1.50754e-06
1.55625e-05
6.10608e-07
-3.161e-06
1.55763e-05
6.5572e-06
-2.14431e-06
1.41264e-05
1.11621e-05
-1.61305e-06
1.14714e-05
1.59035e-05
-7.46287e-07
4.79061e-06
1.88499e-05
2.21959e-06
-3.42592e-06
1.79533e-05
2.96098e-06
-5.94465e-06
1.88348e-05
-2.36857e-06
2.39509e-05
-1.28895e-05
-3.8271e-06
-3.47646e-06
3.90145e-07
-2.85513e-06
-4.74183e-06
-8.2118e-07
-2.55869e-06
-3.66686e-06
-1.55161e-07
-1.7027e-06
-3.98487e-06
-5.90162e-07
-1.17007e-06
-3.2934e-06
1.20016e-07
-4.93998e-07
-2.61975e-06
1.60821e-07
-1.95884e-07
-6.25274e-07
-2.6391e-08
-2.44311e-07
1.93925e-07
-8.05511e-08
-1.88126e-07
4.10649e-07
-2.01658e-07
-1.56709e-07
5.82689e-07
-1.86188e-07
-1.35298e-07
7.44199e-07
-1.95377e-07
-2.12016e-07
8.4842e-07
-1.76707e-07
-3.45683e-07
9.04191e-07
-1.65928e-07
-4.36247e-07
7.78161e-07
-1.86651e-07
-4.55244e-07
6.58853e-07
-2.18924e-07
-4.29886e-07
5.94208e-07
-2.53721e-07
-3.87192e-07
5.84334e-07
-2.83241e-07
-3.47967e-07
6.13375e-07
-3.06244e-07
-3.14684e-07
6.50354e-07
-3.24722e-07
-2.84489e-07
6.82738e-07
-3.39145e-07
-2.5248e-07
7.08323e-07
-3.50426e-07
-2.17211e-07
7.30153e-07
-3.57503e-07
-1.80759e-07
7.51651e-07
-3.59426e-07
-1.4522e-07
7.72571e-07
-3.5707e-07
-1.13652e-07
7.93313e-07
-3.5091e-07
-8.84483e-08
8.12365e-07
-3.41599e-07
-6.71776e-08
8.21762e-07
-3.29618e-07
-4.97351e-08
8.24929e-07
-3.16539e-07
-3.85932e-08
8.27901e-07
-3.02668e-07
-3.70615e-08
8.3417e-07
-2.8847e-07
-4.84866e-08
8.43939e-07
-2.75224e-07
-7.38944e-08
8.51326e-07
-2.64611e-07
-1.13643e-07
8.54298e-07
-2.57218e-07
-1.67921e-07
8.51528e-07
-2.52454e-07
-2.38299e-07
8.43531e-07
-2.50193e-07
-3.24369e-07
8.33069e-07
-2.51096e-07
-4.13339e-07
8.20374e-07
-2.5797e-07
-4.70184e-07
7.97512e-07
-2.74599e-07
-4.55381e-07
7.16825e-07
-2.93854e-07
-3.21566e-07
4.35834e-07
-3.41251e-07
-5.32844e-08
-7.14295e-08
-4.56712e-07
3.73185e-07
-5.7018e-07
-6.49992e-07
9.68601e-07
-8.62806e-07
-8.46067e-07
1.62609e-06
-8.54786e-07
-9.67893e-07
2.16331e-06
-6.02391e-07
-9.99436e-07
2.39654e-06
-3.91587e-07
-8.04483e-07
2.58665e-06
-4.47289e-07
-4.70967e-07
3.45297e-06
-1.45185e-06
-4.04022e-07
5.28296e-06
-2.91408e-06
1.24252e-07
8.41485e-06
-5.19136e-06
-1.01899e-06
1.22278e-05
-4.64672e-06
-3.73623e-06
1.48281e-05
-2.73285e-06
-3.33703e-06
1.21468e-05
-1.15184e-06
6.06487e-07
4.87791e-06
-2.40679e-06
2.79174e-06
-2.47023e-06
-1.8005e-05
4.74631e-06
-4.58625e-06
-3.12167e-05
4.08406e-06
-2.44644e-06
-3.67372e-05
4.09209e-07
-8.60375e-06
-3.19163e-05
5.16707e-06
-3.6955e-06
-9.67253e-06
1.31628e-05
-4.83627e-05
-5.04429e-06
-6.42553e-06
-0.000123387
-1.59652e-05
-8.06999e-06
-0.000122974
-8.47936e-06
2.71391e-06
-0.000130172
-1.29284e-06
2.05955e-07
-0.000138505
8.02437e-06
4.10282e-06
-0.000143589
8.22229e-06
3.34981e-06
-0.000148574
8.7696e-06
3.5686e-06
-0.000151084
7.26451e-06
3.67634e-06
-0.000153148
5.62056e-06
3.66257e-06
-0.000154984
3.42352e-06
3.67714e-06
-0.000157093
7.91595e-07
3.85479e-06
-0.00015864
-2.06738e-06
3.68118e-06
-0.000160141
-4.44276e-06
3.30916e-06
-0.000161269
-6.51868e-06
3.84711e-06
-0.000162075
-8.73756e-06
4.59486e-06
-0.000162344
-1.06538e-05
4.52538e-06
-0.000160968
-1.23877e-05
3.15596e-06
-0.000158615
-1.33812e-05
1.95643e-06
-0.000155635
-1.40904e-05
1.39696e-06
-0.000152177
-1.5522e-05
1.69774e-06
-0.000148603
-1.66513e-05
2.10431e-06
-0.000145444
-1.81778e-05
2.4496e-06
-0.000143141
-1.88776e-05
2.30696e-06
-0.000140232
-1.89191e-05
1.59027e-06
-0.00013467
-1.73138e-05
5.45214e-07
-0.000124634
-1.39684e-05
-1.16679e-06
-0.000101595
-9.60419e-06
-1.88309e-06
-3.83914e-05
-4.39101e-06
-1.74648e-06
1.25841e-05
-2.19934e-06
-3.08899e-06
1.69144e-05
4.60866e-06
-4.18472e-06
1.71397e-05
9.28353e-06
-2.97745e-06
1.47397e-05
1.65628e-05
-3.24649e-06
1.23278e-05
2.12411e-05
-3.21459e-06
6.60127e-06
2.41977e-05
3.76552e-07
-2.70046e-06
2.41461e-05
3.26506e-06
-6.63955e-06
2.45821e-05
-1.52786e-06
3.04739e-05
-1.19488e-05
-4.1774e-06
-3.13117e-06
8.43064e-07
-3.37053e-06
-4.78062e-06
-7.68075e-07
-3.07649e-06
-3.6239e-06
-3.37013e-07
-1.89983e-06
-3.97861e-06
-1.18293e-06
-1.18831e-06
-3.57679e-06
-4.2814e-07
-3.80542e-07
-3.08853e-06
-3.39007e-07
-4.57691e-08
-8.72442e-07
-8.76132e-08
-1.69878e-07
3.63132e-07
-4.51058e-08
-1.18972e-07
5.77039e-07
-2.17304e-07
-1.22037e-07
7.72707e-07
-1.86962e-07
-1.01604e-07
9.27638e-07
-2.03881e-07
-1.62833e-07
1.06002e-06
-1.50381e-07
-2.63531e-07
1.13241e-06
-1.27531e-07
-3.23714e-07
9.89193e-07
-1.50858e-07
-3.28816e-07
8.67418e-07
-2.0347e-07
-3.05479e-07
8.14949e-07
-2.44086e-07
-2.78756e-07
8.31952e-07
-2.74348e-07
-2.65135e-07
8.91225e-07
-2.91479e-07
-2.63164e-07
9.51409e-07
-3.03032e-07
-2.66775e-07
9.97849e-07
-3.11507e-07
-2.70294e-07
1.02973e-06
-3.179e-07
-2.70259e-07
1.05158e-06
-3.21472e-07
-2.65585e-07
1.06781e-06
-3.20837e-07
-2.5725e-07
1.08011e-06
-3.15883e-07
-2.49486e-07
1.09197e-06
-3.06426e-07
-2.44163e-07
1.10036e-06
-2.93327e-07
-2.36049e-07
1.09534e-06
-2.81697e-07
-2.25182e-07
1.08451e-06
-2.70455e-07
-2.15773e-07
1.07719e-06
-2.58701e-07
-2.13729e-07
1.07939e-06
-2.47267e-07
-2.26482e-07
1.09314e-06
-2.3645e-07
-2.55644e-07
1.107e-06
-2.26512e-07
-2.99234e-07
1.11705e-06
-2.1917e-07
-3.52803e-07
1.12038e-06
-2.15287e-07
-4.09419e-07
1.11542e-06
-2.1527e-07
-4.57665e-07
1.10087e-06
-2.19555e-07
-4.80433e-07
1.07033e-06
-2.27188e-07
-4.54773e-07
1.01037e-06
-2.38518e-07
-3.55267e-07
8.73444e-07
-2.56123e-07
-1.84479e-07
5.67529e-07
-3.02481e-07
3.20887e-08
9.60385e-08
-3.84032e-07
3.13941e-07
-3.35494e-07
-5.16534e-07
7.12855e-07
-6.01089e-07
-6.60626e-07
1.19265e-06
-5.5844e-07
-7.76136e-07
1.64283e-06
-2.61802e-07
-7.90766e-07
2.00598e-06
-1.21071e-07
-6.33657e-07
2.65124e-06
-7.22899e-07
-3.69641e-07
4.04471e-06
-2.60555e-06
-2.39756e-07
6.40633e-06
-5.25812e-06
-1.75798e-08
1.00293e-05
-6.0297e-06
-2.78468e-06
1.41535e-05
-2.40544e-06
-6.36548e-06
1.82692e-05
-2.20177e-06
-4.64685e-06
1.57057e-05
-2.22588e-07
1.63427e-06
6.32035e-06
2.65613e-06
4.32245e-06
-3.79844e-06
-1.18938e-05
4.00755e-06
-6.51473e-06
-3.14473e-05
2.94706e-06
-1.26806e-05
-3.55857e-05
5.01404e-06
-1.74197e-05
-3.31561e-05
5.97927e-06
-3.24227e-06
-2.75088e-05
1.99373e-06
-5.35989e-05
-1.48225e-06
-5.85414e-06
-0.000133052
-4.7517e-06
-7.66818e-06
-0.000133275
-3.27087e-06
3.3074e-06
-0.000140299
3.04382e-06
4.08675e-07
-0.000150624
1.17431e-05
4.70503e-06
-0.000158689
1.13463e-05
4.93962e-06
-0.000165692
9.63182e-06
5.46557e-06
-0.000168948
5.54537e-06
4.96414e-06
-0.000170259
3.32389e-06
3.72126e-06
-0.00017037
7.63787e-07
3.12573e-06
-0.000170339
-1.22845e-06
2.01453e-06
-0.00017036
-3.22422e-06
1.30821e-06
-0.000171216
-5.2612e-06
1.27915e-06
-0.000171475
-7.85208e-06
1.28351e-06
-0.000171735
-9.38853e-06
9.22132e-07
-0.000171973
-1.17393e-05
5.49418e-07
-0.000171251
-1.4609e-05
9.12091e-07
-0.000169733
-1.65365e-05
9.29172e-07
-0.000167765
-1.80677e-05
9.94584e-07
-0.000165855
-1.9552e-05
1.36822e-06
-0.000163598
-2.11439e-05
1.45585e-06
-0.000161037
-2.28945e-05
1.81637e-06
-0.000157987
-2.41512e-05
1.72873e-06
-0.000154379
-2.4613e-05
1.33292e-06
-0.000148684
-2.33206e-05
1.20807e-07
-0.000142118
-1.95992e-05
-3.12311e-07
-0.000136486
-1.45197e-05
5.53695e-07
-0.000126864
-8.32089e-06
7.80868e-07
-0.000101601
-1.23736e-06
3.6729e-07
-3.44535e-05
8.0899e-06
-1.09861e-06
1.59661e-05
1.24204e-05
2.44571e-07
1.32422e-05
2.31e-05
-4.01438e-07
1.21828e-05
2.7302e-05
-1.73877e-06
8.89597e-06
3.04603e-05
-4.38763e-07
1.54563e-06
3.08509e-05
1.24672e-06
-2.31233e-06
3.05124e-05
-2.98926e-06
3.98739e-05
-1.10125e-05
-4.10067e-06
-2.67862e-06
1.50721e-06
-3.69569e-06
-4.45677e-06
-7.28833e-07
-3.68236e-06
-3.40942e-06
-2.27811e-07
-2.39845e-06
-3.85479e-06
-1.40774e-06
-1.39279e-06
-3.70683e-06
-8.75614e-07
-2.89014e-07
-3.32994e-06
-8.62371e-07
1.13546e-07
-1.18326e-06
-9.17458e-08
-1.28289e-08
4.43243e-07
4.62586e-08
-2.77355e-09
8.41532e-07
-2.74553e-07
-1.21007e-07
1.10201e-06
-2.11078e-07
-1.16525e-07
1.1698e-06
-2.46647e-07
-1.30932e-07
1.28184e-06
-2.07416e-07
-1.242e-07
1.34539e-06
-2.19709e-07
-1.1848e-07
1.25357e-06
-2.70099e-07
-1.19625e-07
1.19912e-06
-3.30558e-07
-1.34946e-07
1.20789e-06
-3.77619e-07
-1.6413e-07
1.27165e-06
-4.10518e-07
-2.04449e-07
1.36081e-06
-4.29263e-07
-2.51235e-07
1.4423e-06
-4.44109e-07
-3.02696e-07
1.50579e-06
-4.56484e-07
-3.49135e-07
1.54238e-06
-4.66206e-07
-3.83553e-07
1.55928e-06
-4.73281e-07
-4.07147e-07
1.56865e-06
-4.77243e-07
-4.20837e-07
1.57242e-06
-4.78611e-07
-4.26092e-07
1.57465e-06
-4.77419e-07
-4.24013e-07
1.5728e-06
-4.74514e-07
-4.19432e-07
1.56237e-06
-4.71603e-07
-4.11443e-07
1.54593e-06
-4.69402e-07
-4.02889e-07
1.53436e-06
-4.65721e-07
-4.02124e-07
1.53866e-06
-4.60033e-07
-4.2005e-07
1.56329e-06
-4.52221e-07
-4.53568e-07
1.58693e-06
-4.46407e-07
-4.96556e-07
1.60279e-06
-4.4274e-07
-5.39816e-07
1.60515e-06
-4.41495e-07
-5.70085e-07
1.58916e-06
-4.43462e-07
-5.77126e-07
1.55473e-06
-4.46801e-07
-5.42967e-07
1.48953e-06
-4.53343e-07
-4.41767e-07
1.37551e-06
-4.66322e-07
-2.64974e-07
1.19128e-06
-4.94606e-07
-4.3081e-08
9.00347e-07
-5.54688e-07
1.40252e-07
5.61476e-07
-6.48745e-07
2.24197e-07
3.39521e-07
-7.58933e-07
3.54847e-07
1.4222e-07
-8.73928e-07
5.97892e-07
1.22674e-07
-9.24126e-07
9.18236e-07
3.22574e-07
-9.04686e-07
1.19893e-06
3.90343e-07
-7.92073e-07
1.86815e-06
-6.51048e-07
-7.4104e-07
3.30721e-06
-2.78101e-06
-1.26358e-06
4.09046e-06
-5.70737e-06
-3.33978e-07
7.11958e-06
-5.07517e-06
-3.98366e-06
1.27883e-05
2.50037e-06
-1.05745e-05
1.91374e-05
2.78231e-06
-1.13332e-05
2.10835e-05
2.6322e-06
-4.80091e-06
1.56272e-05
4.50341e-06
3.60909e-06
2.44405e-06
-3.0118e-06
4.30116e-06
-9.7381e-06
-2.18992e-05
2.6342e-06
-1.86157e-05
-3.28883e-05
6.17955e-06
-2.24927e-05
-2.7284e-05
-1.99487e-06
-3.02183e-06
-3.14898e-05
-1.81503e-05
-6.62577e-05
3.09809e-06
-3.54854e-06
-0.000165717
1.40127e-05
-6.74439e-06
-0.000168008
4.02764e-06
6.67713e-06
-0.000177747
9.53643e-06
3.42777e-06
-0.000189143
1.26063e-05
6.61208e-06
-0.000195375
1.04335e-05
6.94921e-06
-0.000197927
5.8476e-06
6.70971e-06
-0.000199168
2.5671e-06
5.69495e-06
-0.000200414
-2.61853e-07
4.71424e-06
-0.000200858
-2.04619e-06
3.94448e-06
-0.000201847
-3.32806e-06
2.7332e-06
-0.000202079
-5.02148e-06
1.17515e-06
-0.00020163
-5.9776e-06
-9.74946e-08
-0.000200557
-7.15963e-06
-1.58624e-06
-0.000199303
-8.05353e-06
-2.3269e-06
-0.000197909
-1.01375e-05
-3.01994e-06
-0.00019711
-1.23974e-05
-2.88065e-06
-0.000197322
-1.52171e-05
-1.43859e-06
-0.000198033
-1.78883e-05
5.26401e-07
-0.000199225
-1.98329e-05
1.03634e-06
-0.000199848
-2.16646e-05
7.23449e-07
-0.000199623
-2.40304e-05
4.13667e-07
-0.000198568
-2.64361e-05
3.68263e-07
-0.000195243
-2.82453e-05
4.2066e-08
-0.00019099
-2.81182e-05
-5.72241e-07
-0.000186161
-2.53065e-05
-2.07448e-07
-0.000181922
-2.03733e-05
6.49527e-07
-0.000176442
-1.43554e-05
5.4833e-07
-0.000167542
-6.98775e-06
-7.63176e-07
-0.000157079
1.83039e-06
2.51755e-06
-0.000151608
1.43205e-05
5.69316e-06
-0.000153188
2.62283e-05
4.48967e-06
-0.000154398
3.16408e-05
6.75918e-07
-0.000158571
3.38562e-05
3.3423e-06
-0.000164752
3.42138e-05
4.44118e-06
-0.000157892
3.53929e-05
-1.59588e-06
4.42176e-05
-8.69569e-06
-3.48446e-06
-1.59784e-06
2.51067e-06
-3.83392e-06
-4.04911e-06
-5.8214e-08
-4.31907e-06
-3.15064e-06
2.26376e-07
-3.15794e-06
-3.8925e-06
-1.12342e-06
-1.9547e-06
-3.94528e-06
-9.64802e-07
-4.77871e-07
-3.70621e-06
-1.10056e-06
1.34358e-07
-1.7211e-06
-7.43894e-08
6.5945e-09
2.02087e-07
3.68915e-07
-3.63048e-08
8.24654e-07
5.97743e-08
-1.45851e-07
1.11672e-06
9.48368e-08
-1.01706e-07
1.12049e-06
5.16596e-09
-5.25359e-08
1.18266e-06
5.00137e-08
2.17411e-08