/*--------------------------------*- C++ -*----------------------------------*\
| =========                 |                                                 |
| \\      /  F ield         | OpenFOAM: The Open Source CFD Toolbox           |
|  \\    /   O peration     | Version:  2.3.0                                 |
|   \\  /    A nd           | Web:      www.OpenFOAM.org                      |
|    \\/     M anipulation  |                                                 |
\*---------------------------------------------------------------------------*/
FoamFile
{
    version     2.0;
    format      ascii;
    class       surfaceScalarField;
    location    "58";
    object      phi.water;
}
// * * * * * * * * * * * * * * * * * * * * * * * * * * * * * * * * * * * * * //

dimensions      [0 3 -1 0 0 0 0];

internalField   nonuniform List<scalar> 
16448
(
-1.22419e-06
-2.4112e-06
6.21549e-07
4.85885e-07
-2.50324e-06
7.97826e-07
5.20788e-07
-1.20496e-06
1.17379e-06
4.64993e-07
-1.01041e-06
1.06976e-06
1.41571e-07
-5.55124e-07
8.8514e-07
3.25024e-08
-6.75965e-07
7.94688e-07
4.04131e-08
-7.03026e-07
7.04679e-07
4.98438e-08
-6.64567e-07
6.62832e-07
-3.23014e-08
-5.05128e-07
5.92184e-07
-2.14569e-07
-3.47026e-07
5.30985e-07
-4.20813e-07
-2.52942e-07
4.59632e-07
-5.2297e-07
-2.62176e-07
3.64414e-07
-5.10736e-07
-3.02094e-07
2.90076e-07
-4.06576e-07
-3.46221e-07
2.42212e-07
-2.83247e-07
-3.62543e-07
2.39454e-07
-1.50013e-07
-3.82887e-07
2.49849e-07
-2.85828e-08
-3.97651e-07
2.76475e-07
7.60788e-08
-4.1271e-07
3.08283e-07
1.56752e-07
-4.25777e-07
3.45364e-07
2.12229e-07
-4.35885e-07
3.80657e-07
2.40502e-07
-4.415e-07
4.13494e-07
2.46688e-07
-4.46513e-07
4.40578e-07
2.39103e-07
-4.49413e-07
4.57263e-07
2.24441e-07
-4.47436e-07
4.62349e-07
2.07033e-07
-4.4025e-07
4.57929e-07
1.91405e-07
-4.29469e-07
4.45358e-07
1.8213e-07
-4.17747e-07
4.27308e-07
1.83372e-07
-4.09101e-07
4.08133e-07
1.95139e-07
-4.00251e-07
3.88784e-07
2.14296e-07
-3.90488e-07
3.71618e-07
2.39516e-07
-3.80842e-07
3.55939e-07
2.72023e-07
-3.72927e-07
3.40719e-07
3.1471e-07
-3.67817e-07
3.25459e-07
3.72393e-07
-3.67503e-07
3.10128e-07
4.49543e-07
-3.73222e-07
2.96416e-07
5.44938e-07
-3.84009e-07
2.88934e-07
6.51812e-07
-3.97447e-07
2.90934e-07
7.52536e-07
-4.08269e-07
3.07872e-07
8.1864e-07
-4.12446e-07
3.46742e-07
8.23476e-07
-4.28556e-07
4.24082e-07
7.44693e-07
-4.57193e-07
5.36356e-07
6.73091e-07
-5.52675e-07
6.27114e-07
7.15253e-07
-6.89368e-07
6.59143e-07
8.27045e-07
-7.12281e-07
6.23573e-07
7.94172e-07
-5.07168e-07
5.70357e-07
5.91241e-07
-3.78204e-07
6.16912e-07
2.96667e-07
-5.66472e-07
9.03966e-07
9.01526e-08
-1.14522e-06
1.44139e-06
-6.43786e-07
-1.3294e-06
2.18941e-06
-2.64942e-06
-4.32083e-07
2.5276e-06
-4.85057e-06
-2.62447e-07
2.52026e-06
-4.94281e-06
-2.35535e-06
2.43182e-06
-3.98612e-06
-3.07327e-06
2.19702e-06
-2.40798e-06
-3.92152e-06
2.26074e-06
1.68644e-06
-8.03571e-06
4.19215e-06
8.94655e-06
-1.00189e-05
2.50701e-06
9.77498e-06
-7.29099e-06
6.80391e-06
1.22619e-05
-4.14193e-06
8.66132e-07
1.49588e-06
2.27342e-06
1.80021e-05
2.98433e-05
-2.63839e-06
-4.04492e-06
2.32327e-05
-1.89583e-05
-3.37633e-06
2.87785e-05
-1.30441e-05
6.0759e-06
2.74926e-05
-7.90701e-06
9.18957e-06
2.94575e-05
-7.58848e-06
5.6236e-06
3.05191e-05
-6.37192e-06
5.31023e-06
2.92324e-05
-4.074e-06
5.36076e-06
2.81833e-05
-3.91603e-06
4.96514e-06
2.60795e-05
-2.59653e-06
4.70025e-06
2.32293e-05
-1.35364e-06
4.20385e-06
2.07861e-05
-1.03994e-06
3.48319e-06
1.89568e-05
-6.24606e-07
2.45392e-06
1.76924e-05
-5.27556e-07
1.79188e-06
1.69226e-05
-6.72541e-07
1.44235e-06
1.68123e-05
-4.75593e-07
5.85945e-07
1.67555e-05
6.45959e-07
-5.89201e-07
1.59404e-05
1.71668e-06
-9.0154e-07
1.46416e-05
2.11016e-06
-8.11386e-07
1.17387e-05
2.54793e-06
3.54936e-07
5.46749e-06
4.39633e-06
1.8749e-06
1.35877e-06
4.16951e-07
3.69177e-06
1.20506e-06
-4.02846e-06
4.18218e-06
2.09273e-06
-5.04326e-06
4.15559e-06
3.41253e-06
-5.91932e-06
4.59953e-06
5.12729e-06
-6.27352e-06
4.55875e-06
7.4395e-06
-6.27021e-06
3.958e-06
9.50536e-06
-5.59108e-06
3.52522e-06
1.02841e-05
-3.69773e-06
2.919e-06
9.98404e-06
-1.9702e-06
2.27024e-06
8.76493e-06
-7.99698e-07
2.0188e-06
6.28474e-06
2.15459e-07
2.26473e-06
2.98152e-06
3.04527e-07
2.99869e-06
-1.52388e-06
1.10243e-07
4.39516e-06
-6.8503e-06
9.6808e-07
4.35834e-06
-9.67003e-06
1.40913e-06
1.4106e-06
-8.11565e-06
2.62729e-06
-4.18167e-06
1.66018e-06
-9.77583e-06
-1.94964e-06
-3.45872e-06
-1.15814e-07
-5.58633e-07
-3.76147e-06
-1.24535e-07
-1.94975e-07
-2.26703e-06
7.04969e-07
2.14658e-07
-1.85791e-06
4.43825e-07
2.7505e-07
-9.16203e-07
3.076e-07
1.65482e-07
-8.1442e-07
2.55815e-07
7.02331e-08
-7.3935e-07
1.401e-07
-1.94201e-08
-6.55241e-07
8.72553e-08
-1.74537e-07
-4.22083e-07
7.62979e-08
-4.01052e-07
-2.27224e-07
1.07727e-07
-6.10081e-07
-1.38881e-07
9.50873e-08
-6.90227e-07
-1.99144e-07
1.68055e-08
-6.68589e-07
-2.72012e-07
-5.18513e-08
-5.65815e-07
-3.46155e-07
-1.02979e-07
-4.35666e-07
-3.76381e-07
-1.16368e-07
-2.93846e-07
-4.0789e-07
-1.169e-07
-1.60499e-07
-4.28535e-07
-1.02504e-07
-4.1241e-08
-4.48753e-07
-8.32735e-08
5.6627e-08
-4.64327e-07
-5.93669e-08
1.30536e-07
-4.74755e-07
-3.50917e-08
1.77808e-07
-4.77498e-07
-1.13488e-08
2.01337e-07
-4.76506e-07
6.3899e-09
2.09277e-07
-4.71913e-07
1.44956e-08
2.07349e-07
-4.62309e-07
1.67489e-08
1.99955e-07
-4.47284e-07
1.43701e-08
1.9115e-07
-4.29041e-07
8.31713e-09
1.8467e-07
-4.10753e-07
-5.94126e-10
1.85892e-07
-3.95568e-07
-1.48084e-08
1.96356e-07
-3.81537e-07
-2.92209e-08
2.14872e-07
-3.66595e-07
-4.24264e-08
2.40805e-07
-3.52277e-07
-5.45111e-08
2.74906e-07
-3.41621e-07
-6.53996e-08
3.18149e-07
-3.36853e-07
-7.41966e-08
3.72944e-07
-3.41497e-07
-8.07636e-08
4.42726e-07
-3.58165e-07
-8.47989e-08
5.28701e-07
-3.85487e-07
-8.44276e-08
6.24936e-07
-4.17505e-07
-7.6101e-08
7.09398e-07
-4.40328e-07
-5.22989e-08
7.43283e-07
-4.44672e-07
-1.56375e-09
7.12784e-07
-4.54532e-07
5.66323e-08
6.52422e-07
-5.17444e-07
1.2098e-07
6.96376e-07
-7.09923e-07
1.16304e-07
9.31669e-07
-9.45423e-07
3.15789e-08
1.40006e-06
-1.04867e-06
-1.10763e-07
2.09018e-06
-9.00183e-07
-2.66109e-07
2.88192e-06
-8.64195e-07
-2.66143e-07
3.3078e-06
-1.01697e-06
6.87577e-08
2.54014e-06
-1.25863e-06
9.41183e-07
1.81409e-07
-1.11295e-06
2.23558e-06
-2.28894e-06
-3.46781e-07
2.47718e-06
-1.61082e-06
-2.43793e-06
1.60872e-06
1.43539e-06
-4.47091e-06
-9.45551e-07
4.04223e-06
-6.21017e-06
6.13968e-07
7.73003e-06
-8.90347e-06
1.25827e-06
1.01434e-05
-1.40813e-05
3.98548e-06
1.73164e-05
-2.10749e-05
3.72432e-06
1.8694e-05
-1.23556e-05
4.27692e-06
1.88151e-05
-1.08107e-05
5.71289e-06
4.42876e-06
2.76022e-06
2.38677e-05
3.05831e-05
-6.05088e-06
-7.61014e-07
1.77884e-05
-2.72718e-05
-8.44701e-06
1.99043e-05
-1.88255e-05
2.27372e-06
1.76196e-05
-1.16843e-05
6.05964e-06
1.89233e-05
-1.00083e-05
1.11602e-06
1.74936e-05
-5.71312e-06
7.70877e-07
1.25245e-05
-1.54801e-06
2.44315e-06
4.12757e-06
9.3884e-07
3.54205e-06
-4.44019e-06
2.58297e-06
3.38826e-06
-9.27379e-06
2.10762e-06
1.37234e-06
-1.02514e-05
1.10522e-06
-1.16753e-06
-9.64423e-06
1.23752e-06
-2.46931e-06
-7.10172e-06
1.061e-06
-4.13106e-06
-4.9025e-06
4.88123e-07
-3.35988e-06
-2.41999e-06
3.58045e-07
-3.31615e-06
-8.30794e-08
1.25386e-06
-2.94481e-06
-2.38899e-07
2.63783e-06
-7.65329e-07
-2.78972e-06
2.64077e-06
2.02021e-06
-5.86316e-06
1.14838e-06
4.47299e-06
-6.62592e-06
4.26676e-08
5.11642e-06
-5.50722e-06
-3.54843e-06
2.84668e-06
-3.30912e-06
-6.68406e-06
4.57496e-07
-8.25065e-07
-7.40163e-06
-1.25684e-07
1.35974e-06
-8.56585e-06
4.61719e-07
3.63473e-06
-8.88529e-06
3.36781e-07
6.1726e-06
-8.46475e-06
-3.43324e-07
8.36386e-06
-7.50469e-06
-2.77654e-07
1.01904e-05
-5.45024e-06
-7.40293e-08
1.16598e-05
-3.30038e-06
-1.39215e-07
1.25869e-05
-1.77163e-06
4.47973e-08
1.20173e-05
5.90019e-07
1.95027e-07
1.00859e-05
2.04965e-06
1.86272e-07
3.75429e-06
3.71034e-06
2.73156e-06
-4.80058e-06
3.91366e-06
5.60929e-06
-9.15224e-06
3.57136e-06
2.18943e-06
-8.3287e-06
5.91275e-06
-4.10899e-06
4.59777e-06
-1.12663e-05
-2.47528e-06
-3.73689e-06
-3.85992e-07
-1.34707e-06
-4.25363e-06
-6.27094e-07
-9.10092e-07
-2.91723e-06
2.21247e-07
-2.99617e-07
-2.52426e-06
6.34236e-08
1.67204e-08
-1.23038e-06
5.19573e-09
8.81646e-09
-8.00451e-07
9.90842e-10
-8.84808e-08
-4.82463e-07
-1.51926e-07
-1.691e-07
-3.9108e-07
-1.7812e-07
-2.64994e-07
-1.43306e-07
-1.79255e-07
-3.68007e-07
1.76822e-08
-1.40232e-07
-4.90272e-07
9.87213e-08
-1.14582e-07
-5.55343e-07
2.23258e-08
-1.56255e-07
-5.70762e-07
-4.47173e-08
-2.11698e-07
-5.33276e-07
-1.24561e-07
-2.59051e-07
-4.64067e-07
-1.63922e-07
-2.81613e-07
-3.75233e-07
-2.00228e-07
-2.96505e-07
-2.83046e-07
-2.21977e-07
-2.98735e-07
-1.93332e-07
-2.41779e-07
-2.96718e-07
-1.12701e-07
-2.54799e-07
-2.90172e-07
-4.2705e-08
-2.6241e-07
-2.82368e-07
1.55431e-08
-2.61676e-07
-2.74083e-07
6.16915e-08
-2.54549e-07
-2.68118e-07
9.56551e-08
-2.42254e-07
-2.63616e-07
1.19622e-07
-2.25961e-07
-2.6031e-07
1.36417e-07
-2.06062e-07
-2.57994e-07
1.48986e-07
-1.84695e-07
-2.56895e-07
1.59827e-07
-1.64409e-07
-2.57147e-07
1.70137e-07
-1.46822e-07
-2.59012e-07
1.82506e-07
-1.31685e-07
-2.62153e-07
1.98966e-07
-1.17019e-07
-2.65967e-07
2.19916e-07
-1.04087e-07
-2.69043e-07
2.44756e-07
-9.61253e-08
-2.70239e-07
2.71479e-07
-9.47533e-08
-2.68698e-07
2.97975e-07
-1.03658e-07
-2.64213e-07
3.2388e-07
-1.26812e-07
-2.57101e-07
3.51568e-07
-1.64747e-07
-2.4827e-07
3.78171e-07
-2.08371e-07
-2.35544e-07
3.89643e-07
-2.37824e-07
-2.13789e-07
3.72516e-07
-2.46738e-07
-1.80585e-07
3.52792e-07
-2.86191e-07
-1.48357e-07
4.50123e-07
-4.65608e-07
-1.48104e-07
7.71406e-07
-8.05002e-07
-2.22383e-07
1.28093e-06
-1.07078e-06
-3.74597e-07
2.04196e-06
-1.17186e-06
-6.17924e-07
3.16602e-06
-1.15665e-06
-8.30535e-07
4.41465e-06
-1.29376e-06
-7.66003e-07
5.15449e-06
-1.41593e-06
-2.77957e-07
4.44883e-06
-1.29034e-06
8.05242e-07
2.25803e-06
-7.27736e-07
1.88564e-06
-1.38788e-07
2.87504e-07
1.80198e-06
2.0589e-06
-3.17044e-06
-1.35273e-06
6.74152e-06
-5.48654e-06
-3.66264e-06
8.49753e-06
-6.11529e-06
-1.74425e-06
9.62599e-06
-1.03169e-05
2.50209e-07
1.09621e-05
-1.81901e-05
3.12988e-06
1.30584e-05
-2.74952e-05
4.02852e-06
1.50829e-05
-1.73933e-05
4.03536e-06
2.30255e-05
-1.99175e-05
-2.39644e-07
2.61357e-06
1.15629e-05
2.07906e-05
3.33619e-05
-1.02903e-05
-1.41177e-06
1.83637e-05
-3.34308e-05
-1.03426e-05
1.58876e-05
-2.05834e-05
2.48895e-06
1.24994e-05
-1.2588e-05
4.28852e-06
1.21856e-05
-1.13469e-05
1.6525e-06
8.1879e-06
-3.11604e-06
1.40059e-06
1.95817e-06
1.92687e-06
2.75485e-06
-7.33067e-06
7.36345e-06
2.86422e-06
-1.38689e-05
7.57396e-06
1.54722e-06
-1.68791e-05
5.24901e-06
-1.3118e-07
-1.7167e-05
3.51032e-06
-2.11715e-06
-1.67877e-05
3.21969e-06
-2.36153e-06
-1.66442e-05
2.32053e-06
-1.40303e-06
-1.63749e-05
1.55331e-06
-1.33442e-06
-1.6185e-05
8.45127e-07
-6.76991e-07
-1.64743e-05
3.26858e-07
1.21624e-06
-1.65652e-05
3.62125e-07
2.36665e-06
-1.59182e-05
-1.25639e-06
3.25021e-06
-1.46893e-05
-3.34014e-06
3.25958e-06
-1.19975e-05
-4.64166e-06
1.99258e-06
-9.18698e-06
-6.07382e-06
-2.85168e-07
-6.03162e-06
-8.18792e-06
-1.6515e-06
-2.576e-06
-8.98978e-06
-1.86747e-06
6.56171e-07
-1.00344e-05
-1.76366e-06
3.69659e-06
-9.88596e-06
-2.03974e-06
6.66826e-06
-8.85157e-06
-2.58486e-06
9.72688e-06
-7.37283e-06
-3.19048e-06
1.18409e-05
-4.94355e-06
-2.62066e-06
1.36973e-05
-2.44973e-06
-2.70713e-06
1.45586e-05
-2.92379e-07
-2.34049e-06
1.48251e-05
2.33045e-06
-2.00701e-06
1.26382e-05
5.18587e-06
-9.49226e-07
8.25301e-06
8.14921e-06
-5.37168e-08
9.25164e-08
8.3335e-06
3.74065e-06
-6.78889e-06
7.44329e-06
3.00949e-06
-7.6081e-06
9.402e-06
-2.67004e-06
9.29914e-06
-1.23095e-05
-2.93755e-06
-3.78477e-06
-2.12713e-07
-1.84518e-06
-4.46621e-06
-8.71703e-07
-1.52156e-06
-3.31532e-06
8.25646e-08
-8.83231e-07
-3.19463e-06
3.99423e-08
-3.98426e-07
-1.84143e-06
1.35688e-07
-1.65341e-07
-1.08197e-06
5.67445e-08
-1.73961e-07
-3.1452e-07
-1.5263e-07
-2.0968e-07
-1.44285e-07
-2.06441e-07
-2.09375e-07
8.52844e-08
-2.25106e-07
-2.36728e-07
2.40437e-07
-1.9341e-07
-2.92089e-07
3.50694e-07
-1.95583e-07
-3.64633e-07
3.15314e-07
-2.20059e-07
-4.38022e-07
2.81455e-07
-2.52439e-07
-4.60248e-07
1.91938e-07
-2.94096e-07
-4.42478e-07
1.39346e-07
-3.20835e-07
-3.93268e-07
9.65652e-08
-3.45814e-07
-3.28098e-07
7.42338e-08
-3.61184e-07
-2.58613e-07
6.23509e-08
-3.73418e-07
-1.91589e-07
5.91554e-08
-3.80773e-07
-1.29078e-07
6.03571e-08
-3.85054e-07
-7.09936e-08
6.71444e-08
-3.86687e-07
-1.82398e-08
7.85429e-08
-3.85607e-07
2.76189e-08
9.38586e-08
-3.81749e-07
6.56392e-08
1.12487e-07
-3.76225e-07
9.57898e-08
1.34145e-07
-3.70132e-07
1.18626e-07
1.56966e-07
-3.64247e-07
1.36038e-07
1.77215e-07
-3.58806e-07
1.50483e-07
1.93267e-07
-3.54282e-07
1.63318e-07
2.06664e-07
-3.50959e-07
1.75159e-07
2.19606e-07
-3.48217e-07
1.85298e-07
2.31208e-07
-3.45221e-07
1.93002e-07
2.36944e-07
-3.40535e-07
1.97807e-07
2.33913e-07
-3.33266e-07
1.98384e-07
2.19684e-07
-3.23671e-07
1.93246e-07
1.91298e-07
-3.12744e-07
1.81551e-07
1.49223e-07
-3.01991e-07
1.58489e-07
1.06709e-07
-2.91742e-07
1.11063e-07
8.8478e-08
-2.78524e-07
4.50017e-08
8.16251e-08
-2.6197e-07
3.99233e-08
-2.0562e-08
-2.59975e-07
2.58383e-07
-3.70298e-07
-3.11973e-07
7.69175e-07
-8.52716e-07
-4.58515e-07
1.50586e-06
-1.15693e-06
-6.40721e-07
2.45218e-06
-1.25286e-06
-8.43112e-07
3.57408e-06
-1.26806e-06
-9.66743e-07
4.56977e-06
-1.37789e-06
-8.45853e-07
5.02819e-06
-1.33022e-06
-4.69557e-07
4.70275e-06
-1.25807e-06
3.6106e-07
3.52092e-06
-6.36298e-07
1.13437e-06
2.7853e-06
-1.00591e-06
2.09232e-06
6.05096e-06
-3.25095e-06
-3.06474e-06
1.01519e-05
-4.71515e-06
-4.88315e-06
1.10481e-05
-5.13956e-06
-1.74124e-06
7.84615e-06
-9.19582e-06
2.02156e-06
6.56655e-06
-2.03775e-05
3.84392e-06
2.18656e-06
-2.82066e-05
4.62676e-06
1.4346e-05
-2.64637e-05
-6.4571e-07
2.49726e-05
-2.86784e-05
-4.17e-06
1.51651e-05
1.49635e-05
2.17524e-05
3.73982e-05
-7.32185e-06
-2.93494e-06
9.07145e-06
-3.11589e-05
-9.4524e-06
4.97245e-06
-2.13196e-05
3.46223e-06
5.38554e-06
-1.52384e-05
2.23449e-06
-7.58396e-06
-6.67344e-06
8.29579e-06
-1.62651e-05
1.27222e-06
4.29283e-06
-2.1038e-05
5.50144e-06
1.19816e-06
-2.28597e-05
8.63825e-06
5.46938e-07
-2.35251e-05
8.98732e-06
-7.47769e-07
-2.35287e-05
7.40135e-06
-2.14835e-06
-2.36203e-05
5.05858e-06
-1.45666e-06
-2.3346e-05
3.60652e-06
-6.61038e-07
-2.26259e-05
1.24134e-06
3.59175e-07
-2.15306e-05
-4.37742e-07
8.95898e-07
-2.12542e-05
-1.61016e-06
2.17892e-06
-2.1383e-05
-2.75094e-06
3.20652e-06
-2.15148e-05
-3.71461e-06
4.20849e-06
-2.12514e-05
-5.5737e-06
4.05394e-06
-2.03536e-05
-6.76377e-06
2.52581e-06
-1.75441e-05
-7.70175e-06
2.50619e-07
-1.42118e-05
-7.75819e-06
-1.64798e-06
-1.07056e-05
-9.00211e-06
-2.69193e-06
-7.06649e-06
-1.04906e-05
-2.13832e-06
-3.02224e-06
-1.20375e-05
-2.04117e-06
1.00827e-06
-1.11612e-05
-2.75528e-06
4.85498e-06
-9.75905e-06
-2.93924e-06
8.94746e-06
-7.96705e-06
-3.49826e-06
1.15747e-05
-4.85096e-06
-2.71987e-06
1.42393e-05
-1.86813e-06
-3.24619e-06
1.61572e-05
9.34711e-07
-3.14501e-06
1.61548e-05
4.42606e-06
-2.09318e-06
1.47288e-05
8.11654e-06
-1.50463e-06
1.05952e-05
1.24312e-05
-1.48387e-07
1.941e-06
1.40781e-05
2.90958e-06
-5.56649e-06
1.24666e-05
2.48423e-06
-6.82403e-06
1.37922e-05
-3.13264e-06
1.60206e-05
-1.35455e-05
-3.35944e-06
-3.68705e-06
1.7342e-08
-2.30263e-06
-4.59068e-06
-9.25644e-07
-2.02995e-06
-3.52509e-06
-5.5083e-08
-1.37092e-06
-3.71831e-06
-1.28083e-07
-8.57103e-07
-2.6398e-06
2.93209e-07
-3.41309e-07
-1.7818e-06
1.93771e-07
-1.75371e-07
-3.52929e-07
-1.18708e-07
-2.05744e-07
6.54229e-08
-1.74236e-07
-1.54791e-07
2.65507e-07
-2.2737e-07
-1.29799e-07
4.28127e-07
-2.1036e-07
-1.35053e-07
5.70313e-07
-2.12985e-07
-2.06884e-07
5.94954e-07
-2.0728e-07
-3.15173e-07
6.04451e-07
-2.14405e-07
-3.81623e-07
5.00708e-07
-2.42302e-07
-3.95576e-07
4.20628e-07
-2.67286e-07
-3.69779e-07
3.65473e-07
-2.94713e-07
-3.22366e-07
3.43366e-07
-3.16542e-07
-2.69669e-07
3.45877e-07
-3.36256e-07
-2.16654e-07
3.58394e-07
-3.52255e-07
-1.64454e-07
3.73217e-07
-3.65089e-07
-1.11384e-07
3.89305e-07
-3.75238e-07
-5.82729e-08
4.07276e-07
-3.81882e-07
-8.04355e-09
4.2801e-07
-3.844e-07
3.69959e-08
4.50339e-07
-3.8294e-07
7.56228e-08
4.73252e-07
-3.7776e-07
1.07029e-07
4.95221e-07
-3.69717e-07
1.31974e-07
5.12653e-07
-3.60407e-07
1.51163e-07
5.25045e-07
-3.51017e-07
1.63733e-07
5.35582e-07
-3.41494e-07
1.68565e-07
5.46418e-07
-3.31674e-07
1.6487e-07
5.56478e-07
-3.21551e-07
1.52909e-07
5.60481e-07
-3.11581e-07
1.33073e-07
5.56516e-07
-3.0272e-07
1.03715e-07
5.43978e-07
-2.94919e-07
6.13692e-08
5.22172e-07
-2.88455e-07
9.47452e-11
4.95134e-07
-2.84579e-07
-8.23614e-08
4.72719e-07
-2.83441e-07
-1.7667e-07
4.65405e-07
-2.8253e-07
-2.52296e-07
4.37204e-07
-2.79713e-07
-2.00716e-07
2.27944e-07
-2.99349e-07
8.51188e-08
-2.60146e-07
-3.93995e-07
6.23895e-07
-7.93894e-07
-5.93082e-07
1.38624e-06
-1.1134e-06
-7.95553e-07
2.2558e-06
-1.16472e-06
-9.34515e-07
3.09713e-06
-1.06345e-06
-9.99755e-07
3.58751e-06
-9.60819e-07
-8.39272e-07
3.55643e-06
-7.2605e-07
-5.0833e-07
3.52743e-06
-9.87225e-07
-1.936e-07
3.91441e-06
-9.56726e-07
-2.83941e-08
5.45217e-06
-3.079e-06
5.97971e-07
9.29392e-06
-4.57365e-06
-2.42797e-06
1.26448e-05
-3.45896e-06
-4.57707e-06
1.21683e-05
-3.2134e-06
-1.28657e-06
6.58796e-06
-6.86344e-06
3.23189e-06
2.54364e-06
-2.05892e-05
4.57892e-06
6.19307e-08
-2.92188e-05
3.0414e-06
1.6745e-05
-3.4127e-05
-4.96308e-06
1.71541e-05
-3.25656e-05
1.77949e-06
1.92391e-05
9.44701e-06
2.1093e-05
4.00831e-05
-5.02235e-06
-2.70803e-06
6.38386e-06
-2.45537e-05
-1.10176e-05
1.7023e-06
-2.08577e-05
2.87752e-06
1.17872e-06
-1.42178e-05
-5.15638e-07
-1.38425e-05
2.13672e-06
6.20702e-06
-2.02927e-05
3.82584e-06
3.89617e-06
-2.47282e-05
7.62904e-06
2.31026e-06
-2.63625e-05
9.55898e-06
7.18121e-07
-2.6326e-05
8.90941e-06
4.67261e-08
-2.60867e-05
7.11595e-06
5.11039e-08
-2.6963e-05
4.84051e-06
1.09738e-06
-2.77339e-05
2.13255e-06
2.24603e-06
-2.75439e-05
-1.51436e-06
2.56472e-06
-2.76949e-05
-3.57429e-06
3.2842e-06
-2.82648e-05
-5.03222e-06
3.98835e-06
-2.89665e-05
-6.92113e-06
4.8679e-06
-2.87214e-05
-8.37657e-06
4.41291e-06
-2.71564e-05
-9.94022e-06
2.79785e-06
-2.50887e-05
-1.03648e-05
1.53047e-06
-2.14839e-05
-1.12006e-05
-1.0792e-07
-1.70865e-05
-1.15872e-05
-5.69596e-07
-1.25515e-05
-1.2751e-05
-7.8677e-07
-8.88e-06
-1.47315e-05
5.68875e-07
-5.96155e-06
-1.69904e-05
2.03418e-06
-2.44697e-06
-1.63833e-05
1.70752e-06
1.53144e-06
-1.47996e-05
1.06209e-06
6.46135e-06
-1.2146e-05
-7.50956e-07
1.07604e-05
-8.21311e-06
-9.36933e-07
1.37848e-05
-3.37888e-06
-1.51359e-06
1.73259e-05
5.67943e-07
-3.17437e-06
1.73775e-05
6.5355e-06
-2.16102e-06
1.60006e-05
1.11255e-05
-1.63202e-06
1.33328e-05
1.58613e-05
-7.62394e-07
6.36032e-06
1.88274e-05
2.2232e-06
-2.0923e-06
1.79338e-05
2.98534e-06
-4.82877e-06
1.88444e-05
-2.31577e-06
2.39946e-05
-1.28028e-05
-3.77787e-06
-3.47625e-06
3.88776e-07
-2.80095e-06
-4.74133e-06
-8.21515e-07
-2.4968e-06
-3.66616e-06
-1.55683e-07
-1.63321e-06
-3.98387e-06
-5.90442e-07
-1.09176e-06
-3.29238e-06
1.19704e-07
-4.06642e-07
-2.61867e-06
1.60447e-07
-9.78602e-08
-6.24393e-07
-2.68437e-08
-1.38379e-07
1.94458e-07
-8.11581e-08
-7.75948e-08
4.11117e-07
-2.02205e-07
-4.29533e-08
5.83018e-07
-1.86726e-07
-1.92515e-08
7.44428e-07
-1.95894e-07
-9.4662e-08
8.48525e-07
-1.77211e-07
-2.27333e-07
9.04213e-07
-1.66432e-07
-3.17242e-07
7.78115e-07
-1.87129e-07
-3.35594e-07
6.58737e-07
-2.19391e-07
-3.09617e-07
5.94034e-07
-2.54166e-07
-2.66309e-07
5.84098e-07
-2.83677e-07
-2.26462e-07
6.13096e-07
-3.0667e-07
-1.92543e-07
6.50028e-07
-3.25149e-07
-1.6169e-07
6.8238e-07
-3.39569e-07
-1.29019e-07
7.07923e-07
-3.50857e-07
-9.30695e-08
7.29724e-07
-3.57936e-07
-5.59392e-08
7.51184e-07
-3.59871e-07
-1.9703e-08
7.72081e-07
-3.57518e-07
1.25542e-08
7.92788e-07
-3.5137e-07
3.84761e-08
8.11822e-07
-3.4206e-07
6.04548e-08
8.21191e-07
-3.30093e-07
7.86301e-08
8.24348e-07
-3.17017e-07
9.04985e-08
8.27297e-07
-3.03161e-07
9.27871e-08
8.33565e-07
-2.88966e-07
8.21135e-08
8.43317e-07
-2.75735e-07
5.74917e-08
8.50709e-07
-2.65123e-07
1.8526e-08
8.5367e-07
-2.57746e-07
-3.49268e-08
8.50915e-07
-2.52986e-07
-1.04477e-07
8.42919e-07
-2.50744e-07
-1.89663e-07
8.32487e-07
-2.51651e-07
-2.77722e-07
8.1981e-07
-2.58541e-07
-3.33611e-07
7.97008e-07
-2.75164e-07
-3.17789e-07
7.16395e-07
-2.94425e-07
-1.82428e-07
4.35541e-07
-3.41814e-07
8.86744e-08
-7.16416e-08
-4.57312e-07
5.21021e-07
-5.70188e-07
-6.50664e-07
1.12887e-06
-8.62537e-07
-8.46761e-07
1.81181e-06
-8.54085e-07
-9.68511e-07
2.39688e-06
-6.01236e-07
-1.00014e-06
2.69553e-06
-3.90017e-07
-8.0657e-07
2.94918e-06
-4.45192e-07
-4.75116e-07
3.86138e-06
-1.4494e-06
-4.07647e-07
5.75449e-06
-2.91476e-06
1.21207e-07
9.01185e-06
-5.20005e-06
-1.02921e-06
1.29574e-05
-4.64364e-06
-3.75154e-06
1.56011e-05
-2.73456e-06
-3.35383e-06
1.30763e-05
-1.13806e-06
6.09412e-07
5.75732e-06
-2.39977e-06
2.805e-06
-1.29347e-06
-1.80102e-05
4.76904e-06
-4.07297e-06
-3.12182e-05
4.11117e-06
1.44153e-06
-3.66313e-05
5.71965e-07
-7.75759e-06
-3.18238e-05
5.15605e-06
1.9915e-05
-9.30942e-06
1.24617e-05
4.35754e-05
-4.46465e-06
-3.98552e-06
6.72319e-06
-1.56701e-05
-1.24244e-05
-2.79602e-06
-1.55628e-05
2.22162e-06
-6.54565e-06
-8.40668e-06
-2.11433e-06
-1.49465e-05
6.72001e-06
3.82127e-06
-2.16126e-05
7.726e-06
2.79384e-06
-2.6445e-05
9.72153e-06
2.77348e-06
-2.87377e-05
9.22421e-06
2.66334e-06
-3.00835e-05
7.4529e-06
2.83258e-06
-3.14928e-05
5.60667e-06
2.94103e-06
-3.32532e-05
3.16585e-06
3.4508e-06
-3.42935e-05
-4.77952e-07
3.64668e-06
-3.52907e-05
-3.45414e-06
2.9124e-06
-3.59127e-05
-5.7416e-06
2.75324e-06
-3.63733e-05
-8.12295e-06
3.50616e-06
-3.70595e-05
-1.02862e-05
4.00135e-06
-3.57369e-05
-1.22654e-05
2.51461e-06
-3.32306e-05
-1.34733e-05
9.76844e-07
-2.98059e-05
-1.39971e-05
1.63502e-07
-2.60022e-05
-1.56048e-05
5.61283e-07
-2.18652e-05
-1.70388e-05
1.28063e-06
-1.78307e-05
-1.90093e-05
2.19522e-06
-1.46066e-05
-2.05522e-05
2.57285e-06
-1.20098e-05
-2.19019e-05
2.29621e-06
-8.19162e-06
-2.21714e-05
1.95683e-06
-2.64886e-06
-2.04782e-05
1.27817e-07
3.93876e-06
-1.72054e-05
-1.53268e-06
9.79791e-06
-1.22266e-05
-1.84765e-06
1.40075e-05
-6.22202e-06
-1.36689e-06
1.81546e-05
-4.63602e-07
-3.11562e-06
1.84234e-05
9.29642e-06
-3.02976e-06
1.62498e-05
1.65656e-05
-3.26658e-06
1.40884e-05
2.12624e-05
-3.23963e-06
8.33327e-06
2.42097e-05
3.72859e-07
-1.19743e-06
2.41792e-05
3.28537e-06
-5.46699e-06
2.46081e-05
-1.49413e-06
3.04283e-05
-1.19007e-05
-4.12906e-06
-3.13131e-06
8.41122e-07
-3.31884e-06
-4.77987e-06
-7.69111e-07
-3.01771e-06
-3.62313e-06
-3.378e-07
-1.83331e-06
-3.97764e-06
-1.18286e-06
-1.1123e-06
-3.57585e-06
-4.28395e-07
-2.96481e-07
-3.08776e-06
-3.39553e-07
4.89679e-08
-8.71828e-07
-8.81223e-08
-6.47883e-08
3.63681e-07
-4.57788e-08
-8.23198e-09
5.77312e-07
-2.18048e-07
-7.76818e-09
7.72864e-07
-1.87714e-07
1.54276e-08
9.27607e-07
-2.04621e-07
-4.41821e-08
1.05992e-06
-1.51094e-07
-1.43657e-07
1.13222e-06
-1.28237e-07
-2.03062e-07
9.88884e-07
-1.51533e-07
-2.0735e-07
8.66976e-07
-2.04106e-07
-1.8328e-07
8.144e-07
-2.4469e-07
-1.5579e-07
8.31326e-07
-2.74929e-07
-1.41427e-07
8.9053e-07
-2.92057e-07
-1.38679e-07
9.50666e-07
-3.03612e-07
-1.41518e-07
9.97057e-07
-3.12103e-07
-1.44243e-07
1.02892e-06
-3.18511e-07
-1.43419e-07
1.05074e-06
-3.2211e-07
-1.37933e-07
1.06697e-06
-3.21497e-07
-1.28793e-07
1.07927e-06
-3.16578e-07
-1.20203e-07
1.09114e-06
-3.07159e-07
-1.14053e-07
1.09955e-06
-2.94112e-07
-1.05094e-07
1.09457e-06
-2.82496e-07
-9.3387e-08
1.08375e-06
-2.71269e-07
-8.3106e-08
1.07645e-06
-2.59521e-07
-8.01982e-08
1.07864e-06
-2.48098e-07
-9.20527e-08
1.0924e-06
-2.37282e-07
-1.20318e-07
1.10627e-06
-2.27354e-07
-1.62973e-07
1.11636e-06
-2.20017e-07
-2.15601e-07
1.11972e-06
-2.16153e-07
-2.71225e-07
1.11482e-06
-2.16149e-07
-3.18473e-07
1.10034e-06
-2.2046e-07
-3.40166e-07
1.0699e-06
-2.28115e-07
-3.13403e-07
1.01006e-06
-2.39481e-07
-2.12674e-07
8.73281e-07
-2.5711e-07
-4.02982e-08
5.67496e-07
-3.03481e-07
1.79234e-07
9.61233e-08
-3.85074e-07
4.67795e-07
-3.35186e-07
-5.17689e-07
8.81164e-07
-6.00511e-07
-6.61923e-07
1.3888e-06
-5.57626e-07
-7.77453e-07
1.88879e-06
-2.60608e-07
-7.92575e-07
2.31412e-06
-1.19385e-07
-6.36993e-07
3.02342e-06
-7.20885e-07
-3.74173e-07
4.4641e-06
-2.60327e-06
-2.44017e-07
6.93531e-06
-5.25856e-06
-2.2287e-08
1.07324e-05
-6.02124e-06
-2.80445e-06
1.50204e-05
-2.37842e-06
-6.38872e-06
1.91661e-05
-2.18896e-06
-4.68633e-06
1.67117e-05
-2.21813e-07
1.60158e-06
7.25206e-06
2.64386e-06
4.3379e-06
-2.60671e-06
-1.18879e-05
4.01766e-06
-5.92659e-06
-3.14569e-05
3.00859e-06
-9.0164e-06
-3.56891e-05
4.87943e-06
-1.5968e-05
-3.31071e-05
5.79029e-06
2.29555e-05
-2.7451e-05
1.81319e-06
4.61577e-05
-3.30831e-06
-4.63167e-06
4.6402e-06
-4.36705e-06
-1.22042e-05
-7.30092e-06
-8.91553e-06
3.25983e-06
-1.14718e-05
-2.46957e-06
-1.75829e-06
-1.93452e-05
1.10082e-05
3.64055e-06
-2.86843e-05
1.31367e-05
4.00435e-06
-3.6117e-05
1.24612e-05
4.75995e-06
-4.00757e-05
8.18334e-06
5.05529e-06
-4.17907e-05
5.25422e-06
3.95411e-06
-4.18382e-05
2.26906e-06
3.41223e-06
-4.08473e-05
-3.24572e-07
2.51405e-06
-3.99518e-05
-2.56098e-06
1.16834e-06
-4.01045e-05
-4.08314e-06
7.48191e-07
-3.97189e-05
-6.88758e-06
7.10889e-07
-3.95637e-05
-8.3655e-06
1.33978e-08
-3.92985e-05
-9.54821e-06
-1.0998e-06
-3.8296e-05
-1.24599e-05
-9.30264e-07
-3.64369e-05
-1.51165e-05
-3.34265e-07
-3.36198e-05
-1.68687e-05
-5.49942e-08
-3.12868e-05
-1.84845e-05
4.36119e-07
-2.86605e-05
-2.0419e-05
6.40242e-07
-2.59102e-05
-2.29314e-05
1.05382e-06
-2.27767e-05
-2.50874e-05
1.28439e-06
-1.94107e-05
-2.67699e-05
1.38856e-06
-1.39671e-05
-2.78485e-05
1.25333e-07
-7.3169e-06
-2.62408e-05
-9.81707e-07
-1.6129e-06
-2.25693e-05
-4.14644e-07
3.44386e-06
-1.79873e-05
6.44554e-07
8.56904e-06
-1.28105e-05
1.41426e-06
1.52407e-05
-5.19239e-06
-1.98127e-06
1.73672e-05
7.39433e-06
-2.36159e-07
1.44778e-05
1.99211e-05
-4.74797e-07
1.34582e-05
2.53815e-05
-3.10627e-06
1.01615e-05
2.95469e-05
-2.04427e-06
2.95197e-06
2.94908e-05
1.8907e-06
-7.86007e-07
2.83511e-05
-1.81363e-08
3.8406e-05
-8.77312e-06
-4.05339e-06
-2.6782e-06
1.5049e-06
-3.64605e-06
-4.45591e-06
-7.30227e-07
-3.62602e-06
-3.40857e-06
-2.28972e-07
-2.33417e-06
-3.85409e-06
-1.40729e-06
-1.3179e-06
-3.70614e-06
-8.75505e-07
-2.0476e-07
-3.32942e-06
-8.62831e-07
2.07329e-07
-1.18279e-06
-9.22678e-08
9.13879e-08
4.43575e-07
4.55398e-08
1.09088e-07
8.41469e-07
-2.7529e-07
-4.35053e-09
1.1018e-06
-2.11856e-07
3.75027e-09
1.16944e-06
-2.47408e-07
-8.78571e-09
1.28133e-06
-2.08138e-07
-3.15338e-10
1.34472e-06
-2.20408e-07
6.44718e-09
1.25277e-06
-2.70741e-07
6.52447e-09
1.19822e-06
-3.3117e-07
-7.6992e-09
1.2069e-06
-3.78193e-07
-3.57449e-08
1.27058e-06
-4.11071e-07
-7.49537e-08
1.35968e-06
-4.29803e-07
-1.20611e-07
1.44112e-06
-4.44647e-07
-1.70917e-07
1.50457e-06
-4.57021e-07
-2.16193e-07
1.54111e-06
-4.66756e-07
-2.4943e-07
1.55798e-06
-4.73846e-07
-2.71841e-07
1.5673e-06
-4.77833e-07
-2.84324e-07
1.57104e-06
-4.79223e-07
-2.88369e-07
1.57323e-06
-4.78059e-07
-2.85066e-07
1.57136e-06
-4.75175e-07
-2.79252e-07
1.5609e-06
-4.72288e-07
-2.7e-07
1.54445e-06
-4.70103e-07
-2.60181e-07
1.53286e-06
-4.66441e-07
-2.58124e-07
1.53716e-06
-4.60765e-07
-2.74744e-07
1.56179e-06
-4.52971e-07
-3.06921e-07
1.58544e-06
-4.47169e-07
-3.48554e-07
1.60132e-06
-4.43523e-07
-3.90406e-07
1.60372e-06
-4.423e-07
-4.19241e-07
1.58778e-06
-4.443e-07
-4.24784e-07
1.55342e-06
-4.47673e-07
-3.89075e-07
1.48832e-06
-4.5426e-07
-2.86252e-07
1.37444e-06
-4.67281e-07
-1.07789e-07
1.19038e-06
-4.95606e-07
1.16115e-07
8.99662e-07
-5.5568e-07
3.02552e-07
5.6105e-07
-6.49703e-07
3.94122e-07
3.39432e-07
-7.59881e-07
5.41984e-07
1.42542e-07
-8.75108e-07
8.16875e-07
1.23344e-07
-9.25689e-07
1.19133e-06
3.23413e-07
-9.07151e-07
1.53732e-06
3.91406e-07
-7.96488e-07
2.27637e-06
-6.495e-07
-7.46131e-07
3.78008e-06
-2.78008e-06
-1.26915e-06
4.69942e-06
-5.70218e-06
-3.42359e-07
8.0245e-06
-5.07248e-06
-4.00073e-06
1.38551e-05
2.51595e-06
-1.05638e-05
2.02124e-05
2.81623e-06
-1.13515e-05
2.22639e-05
2.66582e-06
-4.86471e-06
1.67296e-05
4.51039e-06
3.58771e-06
3.69844e-06
-2.99303e-06
4.31362e-06
-9.18163e-06
-2.18802e-05
2.70878e-06
-1.33374e-05
-3.27739e-05
6.00212e-06
-1.87735e-05
-2.73137e-05
-1.84023e-06
3.20925e-05
-3.18069e-05
-1.80696e-05
5.14941e-05
-4.84285e-07
-6.17175e-06
-3.57018e-06
1.5201e-05
-1.2885e-05
-1.98417e-05
-8.63822e-07
6.46634e-06
-3.03809e-05
6.95241e-06
1.19933e-06
-3.83328e-05
1.33475e-05
5.67025e-06
-4.63843e-05
1.47375e-05
6.47328e-06
-4.89566e-05
8.59888e-06
6.47045e-06
-4.97735e-05
3.49237e-06
5.5186e-06
-4.96798e-05
4.83173e-07
4.70217e-06
-4.93213e-05
-2.08771e-06
4.00439e-06
-4.93657e-05
-3.46994e-06
3.20327e-06
-4.85915e-05
-5.08634e-06
1.75921e-06
-4.71083e-05
-5.98978e-06
4.2429e-07
-4.53342e-05
-7.11099e-06
-1.57057e-06
-4.30639e-05
-7.37947e-06
-3.31142e-06
-4.00883e-05
-8.47662e-06
-4.12252e-06
-3.7751e-05
-1.02152e-05
-4.68746e-06
-3.5677e-05
-1.28683e-05
-4.45378e-06
-3.54254e-05
-1.63144e-05
-9.02179e-07
-3.57345e-05
-1.85446e-05
3.00082e-07
-3.57179e-05
-2.0355e-05
-1.82372e-07
-3.50213e-05
-2.30966e-05
-6.74629e-07
-3.36257e-05
-2.61424e-05
-5.04984e-07
-3.04766e-05
-2.9338e-05
-7.73119e-07
-2.58875e-05
-3.08025e-05
-1.85637e-06
-2.03524e-05
-3.02597e-05
-1.7426e-06
-1.53096e-05
-2.71908e-05
-6.05807e-07
-1.07746e-05
-2.27769e-05
1.20127e-07
-3.49523e-06
-1.73864e-05
-2.8421e-06
5.76718e-06
-1.18335e-05
-2.79045e-06
1.13e-05
-1.68675e-06
3.5257e-06
9.72481e-06
1.64321e-05
5.25975e-06
9.19849e-06
2.75618e-05
-1.49493e-06
6.00687e-06
3.23701e-05
5.72001e-07
-1.5789e-06
3.23449e-05
5.13255e-06
-5.28355e-06
3.08508e-05
1.63314e-06
3.94565e-05
-8.54173e-06
-3.43656e-06
-1.5972e-06
2.50864e-06
-3.78736e-06
-4.04798e-06
-6.03398e-08
-4.26637e-06
-3.14951e-06
2.25065e-07
-3.09752e-06
-3.89138e-06
-1.1226e-06
-1.88315e-06
-3.94417e-06
-9.64177e-07
-3.95104e-07
-3.70529e-06
-1.10069e-06
2.24257e-07
-1.72039e-06
-7.47499e-08
1.04317e-07
2.02595e-07
3.67941e-07
7.06868e-08
8.25157e-07
5.89375e-08
-3.33225e-08
1.11707e-06
9.39642e-08
1.40895e-08
1.12071e-06
4.31477e-09
6.49119e-08
1.18277e-06
4.91102e-08
1.40396e-07
1.19605e-06
7.41826e-08
1.56806e-07
1.12985e-06
1.07166e-07