/*--------------------------------*- C++ -*----------------------------------*\
| =========                 |                                                 |
| \\      /  F ield         | OpenFOAM: The Open Source CFD Toolbox           |
|  \\    /   O peration     | Version:  2.3.0                                 |
|   \\  /    A nd           | Web:      www.OpenFOAM.org                      |
|    \\/     M anipulation  |                                                 |
\*---------------------------------------------------------------------------*/
FoamFile
{
    version     2.0;
    format      ascii;
    class       volVectorField;
    location    "58";
    object      U;
}
// * * * * * * * * * * * * * * * * * * * * * * * * * * * * * * * * * * * * * //

dimensions      [0 1 -1 0 0 0 0];

internalField   nonuniform List<vector> 
6144
(
(0.0106961 0.0195101 -0.00100408)
(0.0108071 -0.00211425 -0.00212421)
(0.00439866 -0.00314452 -0.00296518)
(0.00360732 -0.00296246 -0.00269691)
(0.00222457 -0.00166398 -0.0019536)
(0.00314124 0.000761797 -0.00157817)
(0.00336546 5.60343e-05 -0.00120071)
(0.00323211 0.000581479 -0.00113072)
(0.00253214 0.000200813 -0.000889447)
(0.00185007 0.00152067 -0.000332989)
(0.00131029 0.00272798 0.00025345)
(0.00123823 0.00392424 0.000971272)
(0.00135297 0.00412167 0.00141167)
(0.00147881 0.00368874 0.00182581)
(0.00153071 0.00287727 0.00187145)
(0.00161854 0.00207839 0.00179354)
(0.00169713 0.00123345 0.00158309)
(0.00178273 0.000520704 0.00133448)
(0.00186197 -7.61912e-05 0.0010696)
(0.00192962 -0.000502587 0.000822687)
(0.00197754 -0.000768038 0.000594758)
(0.00201804 -0.000862243 0.000401441)
(0.00204265 -0.000846634 0.000277463)
(0.00204365 -0.000768268 0.000239601)
(0.00202088 -0.000660905 0.000275224)
(0.00198015 -0.000550035 0.000375963)
(0.00193214 -0.000463717 0.000518984)
(0.00188969 -0.000433305 0.000667231)
(0.00184298 -0.00047761 0.000818906)
(0.00179266 -0.000577776 0.000954446)
(0.00174196 -0.000715446 0.00107646)
(0.00169574 -0.000891746 0.00119359)
(0.00165651 -0.0011202 0.00131049)
(0.00163099 -0.00142422 0.00142873)
(0.00162444 -0.00184027 0.00153603)
(0.00163736 -0.00238388 0.00159222)
(0.00166432 -0.00302369 0.0015667)
(0.00169794 -0.0037039 0.00142448)
(0.00174068 -0.0042507 0.00111665)
(0.00183422 -0.00453592 0.000489638)
(0.00196889 -0.00426792 -0.000238755)
(0.0023655 -0.00352526 -0.000855948)
(0.00282061 -0.00329274 -0.00103562)
(0.00265813 -0.00392302 -0.000982073)
(0.00145765 -0.00424265 -0.00100397)
(0.000760813 -0.0029285 -0.00154711)
(0.00165018 -0.00145609 -0.00272302)
(0.00511384 0.00109012 -0.004128)
(0.0074019 0.00222993 -0.00600954)
(0.00100614 0.0122138 -0.0077344)
(-0.00182897 0.0304467 -0.0107704)
(0.00489437 0.0337165 -0.0102809)
(0.00348816 0.0400396 -0.00927643)
(0.00559608 0.00932589 -0.00862157)
(0.0322754 0.0381623 -0.0155849)
(0.0239381 -0.0550597 -0.00393824)
(0.0258295 -0.0232472 -0.0226423)
(0.00358761 -0.115186 0.0314084)
(-0.019788 0.0222647 -0.0900819)
(0.0273767 0.0885789 0.0433562)
(0.10303 -0.264473 0.0832826)
(0.078557 -0.10605 0.0314647)
(0.0568606 -0.170288 -0.0099676)
(0.0477281 -0.187072 -0.00583786)
(0.0436847 -0.183516 -0.00407269)
(0.0382838 -0.182743 -0.00778817)
(0.0361136 -0.17664 -0.00770079)
(0.0355621 -0.166382 -0.0113878)
(0.0325095 -0.154703 -0.00734667)
(0.0277241 -0.132461 -0.00337767)
(0.0197515 -0.121495 0.00130862)
(0.0141537 -0.111903 0.00341132)
(0.0112255 -0.100971 0.00572288)
(0.00931223 -0.0995833 0.0113017)
(0.00797502 -0.10156 0.0118642)
(0.0067638 -0.100161 0.0108753)
(0.0064527 -0.093259 0.0107047)
(-0.0023926 -0.0867135 0.00355931)
(-0.0327525 -0.0579838 -0.000176444)
(-0.0211428 -0.0104935 -0.00150801)
(0.0165762 -0.00383513 -0.0141694)
(0.0248703 -0.0109296 -0.0167816)
(0.0312296 -0.0150955 -0.0161908)
(0.0331754 -0.0253609 -0.0131901)
(0.0346426 -0.0368076 -0.0107081)
(0.0312241 -0.0514279 -0.0102245)
(0.0184009 -0.0610055 -0.00573852)
(0.0062839 -0.0618406 -0.00106296)
(-0.00032859 -0.0576914 -0.000404316)
(-0.0019088 -0.0479618 0.00025164)
(0.00322166 -0.0283875 -0.00324599)
(0.00870648 -0.00992415 -0.00714543)
(0.00128285 0.0286179 -0.0109772)
(-0.00222864 0.0597214 0.0119376)
(-0.00424387 0.0584297 0.0333619)
(-0.00262401 0.0287094 0.0532456)
(0.0203652 0.0201801 0.00297722)
(0.0217728 0.00592502 0.00206912)
(0.0115655 0.0021971 -0.00202805)
(0.00973085 0.000828386 -0.000491732)
(0.00500912 -0.00238923 0.00077082)
(0.00531606 -0.000246542 0.00139364)
(0.00537251 -0.000563053 0.00220644)
(0.00498425 0.000873481 0.00245813)
(0.00365995 0.000831646 0.00256543)
(0.0023575 0.00265521 0.00263511)
(0.00174149 0.00393381 0.00284488)
(0.00193576 0.00500897 0.00356721)
(0.00231739 0.00503611 0.00406747)
(0.00273932 0.00464952 0.00435837)
(0.00288517 0.00380648 0.00441651)
(0.00304578 0.00298518 0.00439807)
(0.00314612 0.0020782 0.00432358)
(0.0032435 0.00130415 0.00424138)
(0.00332225 0.000615182 0.00415888)
(0.00337581 8.42458e-05 0.00409452)
(0.00339276 -0.000294399 0.0040479)
(0.00340804 -0.000496855 0.00399185)
(0.00341227 -0.000581474 0.00395)
(0.00338089 -0.000591006 0.00396281)
(0.00331024 -0.000555988 0.00402356)
(0.00321422 -0.000498665 0.00412218)
(0.00311506 -0.000443584 0.0042382)
(0.00304735 -0.000417855 0.00431432)
(0.00298241 -0.000453349 0.00439704)
(0.00291017 -0.000540919 0.00447738)
(0.0028406 -0.000673113 0.00454973)
(0.0027887 -0.000850648 0.00461345)
(0.00276593 -0.00107913 0.00466653)
(0.00278888 -0.00136704 0.00470834)
(0.00286688 -0.00173383 0.00473713)
(0.00298673 -0.00219955 0.00475246)
(0.00312527 -0.00275338 0.00475239)
(0.00322401 -0.00333118 0.00472425)
(0.00322572 -0.00372891 0.00464435)
(0.00330099 -0.00375589 0.00420042)
(0.00348139 -0.00331368 0.00344644)
(0.00421429 -0.00301307 0.00297187)
(0.00540449 -0.00378202 0.00310626)
(0.00582959 -0.00592163 0.00308904)
(0.00456216 -0.00930648 0.00276528)
(0.00373003 -0.0139737 0.00165308)
(0.00492058 -0.0181077 6.15898e-05)
(0.00779217 -0.0167174 -0.00319008)
(0.00777914 -0.00759923 -0.00686531)
(0.00436303 0.0109822 -0.00771419)
(0.00564083 0.0258035 -0.00470832)
(0.02401 -0.00403355 0.00687048)
(0.0360239 -0.00235693 -0.00200201)
(0.0447106 -0.0430234 -0.00619344)
(0.0649597 -0.0273517 -0.014368)
(0.098283 -0.0935142 -0.00888052)
(0.0581693 -0.0725724 -0.0108626)
(0.0434528 -0.158885 0.0418061)
(-0.0058838 0.0432837 -0.0733835)
(0.0236606 0.048041 0.00465144)
(0.139943 -0.240354 0.119492)
(0.0938559 -0.0353565 0.0469997)
(0.0509693 -0.128005 -0.00281271)
(0.0478007 -0.102212 0.013638)
(0.0318384 -0.103684 0.0142996)
(0.00733141 -0.0925398 0.00422647)
(0.00823946 -0.0540323 0.00102463)
(-0.00777053 0.00330931 0.00313953)
(-0.0135324 0.0513472 0.0302753)
(-0.0111946 0.0558577 0.0484992)
(-0.00890696 0.0565151 0.0537948)
(-0.00583216 0.0477215 0.0342245)
(-0.00136651 0.034029 0.0219996)
(-0.00141236 0.0240104 0.0263694)
(-0.0131792 0.00521422 0.0251177)
(-0.0247475 -0.00466058 0.0136369)
(-0.0299305 0.00647585 0.00104341)
(-0.0246651 0.0277848 -0.00924138)
(-0.01674 0.0326967 -0.0147526)
(0.0164319 0.0403033 -0.0148808)
(0.0330876 0.025126 -0.0121435)
(0.0372986 0.0102293 -0.00714211)
(0.0421819 -0.000584055 -0.00634385)
(0.0446451 -0.0141188 -0.00415951)
(0.0429967 -0.0267323 0.00345668)
(0.0376838 -0.0407096 0.00399272)
(0.027085 -0.051267 0.00336359)
(0.01823 -0.0593781 0.00416224)
(0.0106942 -0.0673478 0.00651275)
(8.95349e-05 -0.0690164 0.0118669)
(-0.00633014 -0.0626867 0.0116373)
(-0.0110012 -0.0518564 -0.00442881)
(-0.0154863 0.00832356 -0.0189825)
(-0.0131443 0.0496456 0.0151465)
(-0.0228026 0.0550942 0.0403154)
(-0.0128894 0.0249028 0.0639106)
(0.023316 0.020371 0.00426997)
(0.025848 0.0116635 0.00412785)
(0.0167918 0.00650874 0.000513899)
(0.0137987 0.00517854 0.00205374)
(0.00657945 -0.000134018 0.00325655)
(0.00493695 0.000850556 0.00335784)
(0.00381306 0.000349477 0.00425596)
(0.00318809 0.0018886 0.00435234)
(0.0016299 0.00171531 0.00425666)
(0.000583862 0.0028278 0.00418376)
(8.39738e-05 0.00325682 0.00423065)
(0.000620314 0.0041187 0.00453229)
(0.00113182 0.00417325 0.00485434)
(0.00161629 0.00419453 0.00508477)
(0.0018258 0.00374791 0.00512489)
(0.00203271 0.00329764 0.00510253)
(0.00216387 0.00268694 0.0050429)
(0.00229249 0.00214421 0.0049903)
(0.00238377 0.00160648 0.00494141)
(0.00244023 0.00115431 0.00491496)
(0.00244347 0.000761788 0.0049101)
(0.00240772 0.000448254 0.00493508)
(0.00234316 0.000208202 0.00498139)
(0.00225645 4.06759e-05 0.00503373)
(0.00214635 -7.53509e-05 0.00508992)
(0.00202535 -0.000156494 0.00514848)
(0.00190892 -0.000221746 0.00520865)
(0.0018012 -0.000279429 0.00527694)
(0.00170547 -0.000339119 0.00535051)
(0.00160751 -0.000419569 0.00542664)
(0.00151513 -0.000526124 0.00549803)
(0.00144903 -0.000658653 0.00555897)
(0.00142266 -0.000809338 0.00560141)
(0.00146182 -0.000962571 0.00562105)
(0.00158766 -0.00110737 0.00562408)
(0.00179415 -0.0012548 0.00562588)
(0.00202768 -0.0014171 0.00563048)
(0.00218446 -0.001547 0.00562912)
(0.00221112 -0.00153177 0.00559794)
(0.00222859 -0.00133702 0.00546236)
(0.00274427 -0.00129967 0.00520474)
(0.00420918 -0.00245549 0.00494712)
(0.00572295 -0.00496791 0.00530814)
(0.00650816 -0.00841229 0.00592438)
(0.00631623 -0.0138263 0.00608275)
(0.00691559 -0.0212638 0.00486671)
(0.00759162 -0.0267902 0.00217489)
(0.00711279 -0.0266695 -0.00232407)
(0.00452485 -0.0166718 -0.0045739)
(-0.00149544 -0.0036448 -0.00244804)
(0.0221333 0.0127675 0.0120332)
(0.0300948 -0.0315569 0.0206548)
(0.0351137 -0.0312186 0.01416)
(0.0565329 -0.0616248 0.00162114)
(0.0945439 -0.0246145 -0.00278119)
(0.143368 -0.100099 0.000367776)
(0.0810366 -0.00694531 -0.00342154)
(0.0803431 -0.167507 0.0491645)
(-0.0381223 0.0274368 -0.0435217)
(0.0690543 0.0608767 -0.00639755)
(0.179291 -0.25957 0.124276)
(0.124495 -0.00299788 0.0679589)
(0.0761041 -0.112035 0.0202708)
(0.0700703 -0.0514595 0.0138556)
(0.0417669 -0.0613698 0.0124951)
(0.0140151 -0.0331213 0.00540057)
(-0.0194617 0.00864249 0.00529535)
(-0.0208031 0.068776 0.0394458)
(-0.00961548 0.0828787 0.052261)
(-0.000668472 0.0918506 0.0312232)
(-0.0046617 0.0900366 0.0140624)
(-0.00558913 0.0873219 0.0101085)
(-0.00337198 0.086696 0.0112258)
(-0.00153147 0.0871636 0.0137791)
(-0.000883734 0.0853452 0.00979119)
(-0.00607953 0.0845482 0.000439578)
(-0.00140803 0.0843304 -0.00870029)
(0.00919516 0.081744 -0.0142838)
(0.0153745 0.0701512 -0.0113307)
(0.0244975 0.0527134 -0.0064497)
(0.0415207 0.0412558 0.000875391)
(0.044041 0.0212642 0.00254664)
(0.0482066 0.00562401 -0.000394796)
(0.0488427 -0.0119724 0.000936359)
(0.0463652 -0.0258946 0.00848715)
(0.0408563 -0.0426603 0.0111082)
(0.0304255 -0.0540424 0.00835551)
(0.0167286 -0.0650541 0.0110138)
(0.00881892 -0.0710765 0.0090681)
(-0.00560206 -0.075848 0.0106398)
(-0.015585 -0.0728109 0.00846397)
(-0.0272778 -0.0576642 0.00923328)
(-0.0264939 -0.0285302 -0.0119264)
(-0.0255549 0.0279595 0.00534691)
(-0.0318268 0.0476082 0.0335859)
(-0.0257965 0.0172406 0.0664469)
(0.0241218 0.0207899 0.0043618)
(0.0276678 0.015882 0.00455762)
(0.0197677 0.00930855 0.000422544)
(0.0177366 0.00968196 0.000804325)
(0.00905993 0.00277731 0.00141942)
(0.00529682 0.00279189 0.00240086)
(0.00233001 0.000709175 0.00413509)
(0.00173333 0.00250591 0.00442339)
(0.000264441 0.00156543 0.00447048)
(-0.000693705 0.00225087 0.00436112)
(-0.00119946 0.00211735 0.00442663)
(-0.000748812 0.00278663 0.00475369)
(-0.000397915 0.00312196 0.00505312)
(0.000139508 0.00353303 0.00527342)
(0.000432206 0.00342986 0.0053091)
(0.000681039 0.00326082 0.00531861)
(0.000818139 0.0028476 0.00529171)
(0.00092985 0.00245308 0.00527887)
(0.000992828 0.00202253 0.00525713)
(0.00102346 0.00164114 0.00524195)
(0.00100561 0.00127886 0.00523251)
(0.000950419 0.000949657 0.00523695)
(0.000863907 0.000657297 0.00525371)
(0.000755606 0.000412407 0.00527877)
(0.000632347 0.000215082 0.00531199)
(0.000505892 6.51214e-05 0.00534929)
(0.000389889 -4.43229e-05 0.00538769)
(0.000297401 -0.000130582 0.00542766)
(0.000223798 -0.000204066 0.00547434)
(0.000159082 -0.000271425 0.00552994)
(0.00010978 -0.000331698 0.00558363)
(9.21817e-05 -0.000378804 0.00561705)
(0.000110702 -0.000411198 0.00561741)
(0.000180707 -0.000424533 0.00558586)
(0.000324939 -0.000408011 0.00553461)
(0.000554375 -0.000359012 0.00548723)
(0.000819191 -0.000266805 0.00546415)
(0.000991071 -9.54129e-05 0.00546024)
(0.00105911 0.00026496 0.00544567)
(0.00145329 0.000631336 0.00532773)
(0.002893 0.000301088 0.00514792)
(0.00517851 -0.00175357 0.00525112)
(0.006746 -0.00536162 0.00593799)
(0.00735077 -0.00997698 0.00703433)
(0.00748629 -0.0159274 0.00763603)
(0.00838596 -0.0216985 0.00709817)
(0.00849439 -0.0246638 0.00520777)
(0.00719609 -0.024393 0.00117608)
(0.00345249 -0.0205076 -0.000734392)
(-0.0011528 -0.0103313 -0.00202545)
(0.0139038 -0.013783 0.0200882)
(0.0310529 -0.0472464 0.0247803)
(0.0328357 -0.0477893 0.0132228)
(0.0550737 -0.0682292 0.00184838)
(0.104154 0.00764669 0.00514067)
(0.15123 -0.0834654 0.012189)
(0.114453 0.0823002 0.0216349)
(0.130801 -0.210565 0.0685357)
(-0.0954205 0.139944 -0.0327221)
(0.0714191 -0.0333822 0.0312722)
(0.182521 -0.231127 0.131884)
(0.107981 0.0968438 0.0350994)
(0.0680991 -0.116872 0.0340241)
(0.0455523 0.0407471 -0.0258004)
(-0.00943248 0.0520911 0.00368232)
(-0.0297686 0.103359 0.0283031)
(-0.0477776 0.106377 0.0290226)
(-0.0470887 0.117262 0.0288169)
(-0.0352401 0.117576 0.0201819)
(-0.0280603 0.117511 0.0082698)
(-0.0230529 0.116111 0.00381997)
(-0.0141133 0.114422 0.00826227)
(-0.00915295 0.108669 0.00974933)
(-0.00454613 0.105173 0.00525931)
(-0.00128529 0.105685 -0.000385709)
(0.001616 0.105495 -0.018875)
(0.0135167 0.10301 -0.0246628)
(0.0255466 0.102903 -0.0208523)
(0.0320277 0.0909612 -0.0106886)
(0.0348531 0.0759418 -0.0047449)
(0.0415349 0.0594504 -0.00305476)
(0.0447769 0.042674 -0.0110443)
(0.0488779 0.0244825 -0.0121726)
(0.0459486 0.00393057 -0.00750728)
(0.0396178 -0.012898 -0.00198707)
(0.0321012 -0.0335845 0.00278677)
(0.0176686 -0.0489453 -0.00137)
(0.00774337 -0.0581996 0.00739347)
(-0.00542911 -0.0740008 0.00625453)
(-0.0168889 -0.0745429 0.00617295)
(-0.0333569 -0.0755061 0.00780801)
(-0.0500631 -0.0650938 0.00637968)
(-0.0544366 -0.0363443 -0.0114416)
(-0.0434041 0.0188581 0.000127519)
(-0.0535919 0.0397306 0.0441684)
(-0.0507709 0.0132337 0.0788334)
(0.024053 0.0211589 0.00413386)
(0.0287343 0.01971 0.00484542)
(0.0217651 0.0119084 0.00078692)
(0.0221321 0.0130187 0.000442572)
(0.0135997 0.00568999 -0.00103396)
(0.00808989 0.00518344 -0.000203478)
(0.00180684 0.000491156 0.00282128)
(0.000251506 0.00269166 0.00353455)
(-0.0011521 0.00129765 0.00378094)
(-0.00206322 0.00181116 0.00398148)
(-0.00287524 0.00121124 0.00414816)
(-0.00287094 0.00175154 0.00456076)
(-0.00280865 0.00220783 0.00482198)
(-0.00223786 0.00290659 0.00506351)
(-0.00187147 0.00303499 0.00508846)
(-0.00159475 0.00301994 0.00513104)
(-0.00145727 0.00272378 0.00515406)
(-0.0014144 0.00243804 0.00518884)
(-0.00142802 0.00210575 0.00519243)
(-0.00146172 0.00180271 0.00517704)
(-0.00151315 0.00149189 0.00514369)
(-0.00158022 0.00118101 0.00510803)
(-0.0016594 0.000878974 0.00507977)
(-0.00175244 0.000604896 0.00506004)
(-0.00186281 0.000366787 0.00504605)
(-0.00197953 0.000170198 0.00503681)
(-0.00207177 1.70358e-05 0.0050366)
(-0.00213392 -0.000103273 0.0050453)
(-0.00217978 -0.000189777 0.00505919)
(-0.00222428 -0.000235022 0.00507338)
(-0.0022652 -0.000234288 0.00508215)
(-0.0022754 -0.00018584 0.00507335)
(-0.00223855 -9.41077e-05 0.00504122)
(-0.00213918 3.89228e-05 0.00497695)
(-0.00196199 0.000226447 0.00489267)
(-0.00172186 0.000499055 0.00482322)
(-0.00151456 0.000887779 0.00479101)
(-0.00148023 0.00136656 0.00478982)
(-0.00146829 0.00189679 0.00478144)
(-0.000700066 0.0021591 0.00470436)
(0.00157151 0.00133429 0.00470687)
(0.00444924 -0.000866037 0.0051997)
(0.00615737 -0.00438374 0.00611268)
(0.00663346 -0.0090343 0.00744184)
(0.00670126 -0.0134686 0.00906043)
(0.00682197 -0.0165875 0.00926464)
(0.005809 -0.0166633 0.00717832)
(0.0056483 -0.015189 0.00257705)
(0.0026733 -0.0167387 0.000177655)
(0.0102146 -0.01768 -0.00226351)
(0.02179 -0.0344724 0.0155491)
(0.0218478 -0.0565732 0.0224137)
(0.0226753 -0.0590468 0.0147136)
(0.0399493 -0.0629235 0.00749246)
(0.105438 0.0187803 0.00434335)
(0.138955 -0.0456045 0.0218628)
(0.162491 0.0675599 0.0519085)
(0.175287 -0.189456 0.08854)
(-0.0462732 0.210669 0.010795)
(0.0413819 -0.0608012 0.0248483)
(0.143545 -0.198719 0.141137)
(0.105927 0.106482 0.025926)
(0.0857199 -0.104742 0.059188)
(0.0110447 0.0835641 -0.00609732)
(-0.00597261 0.0688332 0.00808249)
(-0.0279303 0.116962 0.0201165)
(-0.0394111 0.121404 0.0228803)
(-0.040884 0.124906 0.0202397)
(-0.0338625 0.121017 0.00984859)
(-0.0218269 0.12131 0.00319395)
(-0.0150157 0.127322 0.000675589)
(0.0007433 0.127959 0.000875446)
(0.0135726 0.128321 0.00372936)
(0.0185895 0.13083 0.0026988)
(0.025346 0.134231 -0.00388217)
(0.0299575 0.133319 -0.00743083)
(0.0360525 0.127489 -0.00405932)
(0.0352706 0.117222 -0.00393037)
(0.0378267 0.106635 -0.00576535)
(0.0367531 0.0865815 -0.00699285)
(0.0389487 0.0651527 -0.0135646)
(0.0472691 0.0459506 -0.0247045)
(0.0581534 0.0338494 -0.026333)
(0.055008 0.0196746 -0.0281219)
(0.0483111 0.00224492 -0.0227363)
(0.0401893 -0.0158368 -0.0187217)
(0.025063 -0.0399955 -0.0176251)
(0.00961546 -0.0512775 -0.0106552)
(-0.00252427 -0.0685676 -0.00170655)
(-0.024711 -0.0790927 -0.00454722)
(-0.0409002 -0.0721773 0.00353227)
(-0.0622619 -0.0694874 0.00546319)
(-0.0769105 -0.0489861 -0.0085226)
(-0.0727212 -0.00851946 -0.0126216)
(-0.0605524 0.0308748 0.0352383)
(-0.0783792 0.00288515 0.0730584)
(0.023063 0.0208454 0.00378002)
(0.0298445 0.0240638 0.00596449)
(0.022878 0.0145519 0.00219602)
(0.0244618 0.0154876 0.00206345)
(0.0189019 0.00672718 -0.00114121)
(0.0135404 0.00671554 -0.00182624)
(0.00264792 -0.000299648 0.000494025)
(-0.000912301 0.00248207 0.0017866)
(-0.00187538 0.000676017 0.00250424)
(-0.00289018 0.00145801 0.00312937)
(-0.00372388 0.000503197 0.00335461)
(-0.00394249 0.00105114 0.00388702)
(-0.00403622 0.00154635 0.00413052)
(-0.00330414 0.0024736 0.0045136)
(-0.00267526 0.00264594 0.00470637)
(-0.00225685 0.0026309 0.00492047)
(-0.00209082 0.00234299 0.005077)
(-0.00211472 0.00211049 0.00519276)
(-0.00219838 0.00188215 0.00522763)
(-0.00228945 0.00170388 0.00520309)
(-0.00237943 0.00152081 0.00512403)
(-0.00247692 0.00132247 0.00501256)
(-0.00259384 0.00111049 0.00489233)
(-0.0027145 0.000901504 0.00477461)
(-0.00282269 0.00070712 0.00466684)
(-0.00291243 0.000547442 0.00456819)
(-0.00297599 0.000418827 0.00447455)
(-0.00301371 0.000309813 0.0043939)
(-0.0030467 0.000227566 0.00433122)
(-0.00308367 0.000187264 0.00428642)
(-0.00311521 0.000209542 0.00425473)
(-0.0031129 0.000305173 0.0042181)
(-0.00307473 0.000474602 0.00415206)
(-0.00301248 0.000717389 0.00404238)
(-0.0029365 0.00103524 0.00389585)
(-0.00287075 0.00144074 0.00374397)
(-0.00281671 0.00191486 0.00364417)
(-0.00273546 0.00232303 0.0036715)
(-0.00239576 0.00247891 0.00386464)
(-0.000932825 0.00214358 0.00433658)
(0.00194738 0.00109799 0.00522951)
(0.00482752 -0.000621726 0.00640942)
(0.00654275 -0.00328731 0.00749943)
(0.00661211 -0.00686542 0.00860092)
(0.00548237 -0.00987937 0.0102579)
(0.00422245 -0.0115659 0.0104791)
(0.0027665 -0.0116483 0.00735116)
(0.00523098 -0.0141726 0.00409663)
(0.00726728 -0.0205167 -0.00275809)
(0.0217388 -0.0323935 0.00151878)
(0.0282598 -0.0525588 0.0239051)
(0.0151029 -0.0692539 0.0236652)
(0.0106992 -0.0676215 0.0154453)
(0.0264638 -0.0573803 0.00372641)
(0.0930857 0.0235885 -0.0120365)
(0.149257 -0.0154519 0.0172115)
(0.172434 0.0877553 0.029589)
(0.139533 -0.0782372 0.0377905)
(-0.0426881 0.297506 0.000604504)
(0.0369569 -0.0924161 0.0423699)
(0.109788 -0.170772 0.15453)
(0.0918752 0.088681 0.0248982)
(0.0527894 -0.0399493 0.0534669)
(-0.0280611 0.0820166 -0.0020774)
(-0.0222891 0.0729816 0.0116098)
(-0.0328802 0.11847 0.0142194)
(-0.0423116 0.12532 0.0105566)
(-0.0400316 0.133396 0.00146857)
(-0.0345295 0.13614 -0.0031157)
(-0.0257547 0.143256 -0.00754213)
(-0.00579763 0.150806 -0.0113188)
(0.0152889 0.15516 -0.00068621)
(0.0243195 0.159978 0.0102549)
(0.0340012 0.161503 0.0111642)
(0.0438713 0.161194 0.0125136)
(0.0513004 0.159204 0.0174244)
(0.0587049 0.147906 0.0274716)
(0.0588923 0.135389 0.031319)
(0.0613803 0.119311 0.0234733)
(0.0636107 0.10169 0.0158236)
(0.0698631 0.082583 0.00438651)
(0.0761415 0.0660029 -0.00335281)
(0.0843427 0.0565215 -0.005784)
(0.0834503 0.0449867 -0.0091487)
(0.0786445 0.0244819 -0.00540194)
(0.062028 -0.00351253 -0.0110443)
(0.0411447 -0.0278706 -0.0128383)
(0.0142625 -0.0496465 -0.0208105)
(-0.00416599 -0.0642042 -0.0103469)
(-0.0315758 -0.0791189 -0.0107057)
(-0.0524311 -0.0715715 0.00185819)
(-0.0698435 -0.063257 0.0118523)
(-0.08224 -0.0540639 -0.00156627)
(-0.081689 -0.0161235 -0.0176964)
(-0.0864973 0.0285196 0.033989)
(-0.0979959 0.00897405 0.0699116)
(0.0209226 0.0194875 0.0040983)
(0.0305994 0.0284992 0.0082569)
(0.0231406 0.0174377 0.00471493)
(0.024664 0.0181737 0.00481751)
(0.0214268 0.00673587 0.00137001)
(0.0181288 0.006712 7.69693e-05)
(0.00472078 -0.00173605 -0.00116125)
(-0.00138983 0.00218794 0.000249958)
(-0.00315748 2.9798e-05 0.00135821)
(-0.00410946 0.00127711 0.00230295)
(-0.00519878 0.000253165 0.0024073)
(-0.00608815 0.000880384 0.00311581)
(-0.0065927 0.00110577 0.00348508)
(-0.00576125 0.00189576 0.00425823)
(-0.00492466 0.00187092 0.00485109)
(-0.00451593 0.00186793 0.00533652)
(-0.00449568 0.00162823 0.00563687)
(-0.00473679 0.00152529 0.00580339)
(-0.00501191 0.00146557 0.00583477)
(-0.00522715 0.00147513 0.00577798)
(-0.00536624 0.00149029 0.00563712)
(-0.00545475 0.00149296 0.00544144)
(-0.00551932 0.00147055 0.00522598)
(-0.0055721 0.00142186 0.00501394)
(-0.00563349 0.00136417 0.0048304)
(-0.00569338 0.00132207 0.00468158)
(-0.0056745 0.00128203 0.00455104)
(-0.00561356 0.00122197 0.00446245)
(-0.00555515 0.00115394 0.00441775)
(-0.00552746 0.00110594 0.00441318)
(-0.00553839 0.00112338 0.00443086)
(-0.00555682 0.00122259 0.00441371)
(-0.00556639 0.00140608 0.00435023)
(-0.00554293 0.00165081 0.00423643)
(-0.00548069 0.00192744 0.00407664)
(-0.00537677 0.00219701 0.00390305)
(-0.00522728 0.00239684 0.00373446)
(-0.00498507 0.00239069 0.00363931)
(-0.00439545 0.00209993 0.00383742)
(-0.00286751 0.00135236 0.00463546)
(-0.000350814 0.000437759 0.00607783)
(0.00200406 -0.000779722 0.00794446)
(0.00335213 -0.00235551 0.00909742)
(0.00323049 -0.00481945 0.00937689)
(0.00207719 -0.00690223 0.00997078)
(0.00138301 -0.00918553 0.00978042)
(0.00290202 -0.00973779 0.00664801)
(0.00973169 -0.0165845 0.00411479)
(0.021544 -0.0221825 -0.00232553)
(0.0310616 -0.0403557 0.0115356)
(0.0233404 -0.0554497 0.0419682)
(0.0177996 -0.077327 0.0356517)
(0.00134634 -0.0864066 0.00487141)
(-0.00479713 -0.0660995 -0.00939618)
(0.0752143 0.0216798 -0.0151782)
(0.146888 -0.00477314 0.0199794)
(0.166492 0.0953226 -0.0113121)
(0.163952 -0.0227014 0.00262317)
(0.140335 0.320115 0.0434733)
(0.0188659 -0.0931155 0.0498482)
(0.0597271 -0.159409 0.150751)
(0.0495689 0.113606 0.00899076)
(0.035259 -0.00997533 0.049716)
(-0.0350691 0.0958 0.00532776)
(-0.0497976 0.0967256 0.00674135)
(-0.0588041 0.152863 -0.00336803)
(-0.0453042 0.170962 -0.0140006)
(-0.0308184 0.183164 -0.0118789)
(-0.018235 0.181587 -0.00802926)
(-0.00406757 0.178308 -0.00607154)
(0.0107207 0.173581 0.0113374)
(0.0183375 0.173595 0.0185077)
(0.0308784 0.173386 0.0201724)
(0.039287 0.167858 0.0199895)
(0.0452164 0.166772 0.019373)
(0.0580767 0.163537 0.0242841)
(0.0649571 0.155163 0.0323051)
(0.070339 0.144569 0.0419107)
(0.0777588 0.133244 0.0367913)
(0.0854672 0.122693 0.0328359)
(0.093217 0.110071 0.0259694)
(0.0987857 0.0988247 0.0233768)
(0.0981418 0.0826425 0.00879465)
(0.0986423 0.0712836 -0.000465439)
(0.0892078 0.0417318 -0.00355527)
(0.074703 0.0143428 -0.0227922)
(0.0558567 -0.000425549 -0.0323641)
(0.0339812 -0.0239328 -0.0264348)
(0.00575745 -0.0419626 -0.0147044)
(-0.0453814 -0.0706628 -0.0291846)
(-0.077815 -0.0592646 -0.01793)
(-0.0907504 -0.0551639 0.00719336)
(-0.104161 -0.0500498 0.00331026)
(-0.10836 -0.0297664 -0.0165259)
(-0.0954897 0.0112564 0.0137466)
(-0.121985 -0.00699934 0.0595967)
(0.020756 0.014317 0.00392658)
(0.0300621 0.0310862 0.00992429)
(0.022597 0.0198039 0.00557396)
(0.0247863 0.0223643 0.00581988)
(0.0226514 0.0085745 0.00245801)
(0.019901 0.00694741 0.00225475)
(0.00603641 -0.00312905 -0.00246632)
(-0.00306464 0.00154247 -0.00100844)
(-0.00348168 -0.00132354 0.00169072)
(-0.00480625 0.0013311 0.00261047)
(-0.00538791 0.000203766 0.00269774)
(-0.00599419 0.00102366 0.00352861)
(-0.00621949 0.000540877 0.00423303)
(-0.00519745 0.000801978 0.00537538)
(-0.0044125 0.000567226 0.00622707)
(-0.00404322 0.000722821 0.00703987)
(-0.00410905 0.000768999 0.00754183)
(-0.00440763 0.000993635 0.00781611)
(-0.00469087 0.00120404 0.00790098)
(-0.00488853 0.00146968 0.00786442)
(-0.00501824 0.00172256 0.0077163)
(-0.00510754 0.0019203 0.00748791)
(-0.00517173 0.00205082 0.00722712)
(-0.00521577 0.00212668 0.0069646)
(-0.00525644 0.00215272 0.00672028)
(-0.00527576 0.00213838 0.00650663)
(-0.00523777 0.00210459 0.00634692)
(-0.00514856 0.00205495 0.00623923)
(-0.00507439 0.00198867 0.00617491)
(-0.00505456 0.001936 0.00614704)
(-0.00510789 0.00195528 0.00613357)
(-0.00515898 0.00206876 0.00610972)
(-0.0051885 0.00223964 0.0060353)
(-0.00519604 0.00243637 0.00589462)
(-0.00517288 0.00259978 0.00567694)
(-0.00510524 0.00267503 0.00539327)
(-0.00493179 0.00262237 0.00509388)
(-0.00454573 0.00230907 0.00489739)
(-0.00368421 0.00165481 0.00502395)
(-0.00197684 0.000709646 0.00585362)
(0.000524187 -0.000369012 0.00754283)
(0.00270334 -0.00087421 0.00974737)
(0.00412858 -0.00105911 0.0109568)
(0.00395383 -0.00206521 0.0108137)
(0.00233933 -0.0031787 0.0102997)
(0.00166039 -0.00498751 0.0095831)
(0.00544498 -0.00507271 0.00712386)
(0.0158764 -0.0119068 0.00667852)
(0.027527 -0.0153847 -0.00101098)
(0.0253889 -0.019172 0.0184056)
(0.00714571 -0.0430845 0.0615146)
(0.0130854 -0.0626943 0.063584)
(0.00577827 -0.0869617 0.0356745)
(-0.0207668 -0.0887393 -0.0194137)
(0.0236932 -0.0228957 -0.0329381)
(0.135298 -0.00892105 0.0157338)
(0.148826 0.120993 -0.00697573)
(0.125527 -0.0126233 -0.0195727)
(0.111453 0.379196 0.0101424)
(0.00663032 -0.116908 0.0444611)
(0.00403176 -0.116863 0.131754)
(0.0256924 0.145268 -0.0123305)
(-0.0125736 0.0619478 0.0150382)
(-0.0595873 0.151255 -0.0125824)
(-0.0651571 0.161668 -0.0182369)
(-0.0456849 0.190439 -0.0187938)
(-0.0210084 0.18679 -0.0141533)
(-0.00948873 0.190726 -0.00672032)
(0.00288106 0.183477 -0.00191337)
(0.00874047 0.182511 0.00403298)
(0.0161577 0.181382 0.0127261)
(0.0219086 0.178301 0.0171435)
(0.0322162 0.17103 0.0256733)
(0.0338776 0.160516 0.0310111)
(0.037941 0.151314 0.0319318)
(0.0499397 0.138468 0.0351971)
(0.0666907 0.129203 0.0389958)
(0.0807892 0.127576 0.0405044)
(0.0852809 0.124838 0.0369812)
(0.0903907 0.127277 0.0312734)
(0.0992928 0.121199 0.0224194)
(0.109623 0.118596 0.0213403)
(0.121825 0.109932 0.0242928)
(0.127412 0.0956495 0.0235902)
(0.121551 0.0794103 0.0164368)
(0.101502 0.0572244 -0.0013318)
(0.0792102 0.0474288 -0.0105704)
(0.0600227 0.0262967 -0.00244649)
(0.0338287 0.00167094 -0.00646263)
(-0.010113 -0.0291327 -0.015351)
(-0.0713962 -0.0341243 -0.0231004)
(-0.0942067 -0.0242741 0.00115431)
(-0.108425 -0.0222673 0.0128156)
(-0.115753 -0.00730297 -0.00939544)
(-0.10961 0.0312126 0.0065267)
(-0.134629 0.00959007 0.0445703)
(0.0140887 0.00789242 0.000443901)
(0.0268531 0.0315688 0.00953015)
(0.0205752 0.02224 0.00339111)
(0.0243022 0.0278337 0.00354024)
(0.0237406 0.0129162 0.00174406)
(0.0215715 0.00946911 0.00223309)
(0.00806849 -0.00321099 -0.00530008)
(-0.00241172 0.00128814 -0.00547646)
(-0.00621832 -0.0013195 -0.00201533)
(-0.00769872 0.00166282 -0.000315451)
(-0.00782182 0.000238172 -0.000216948)
(-0.00824836 0.000853707 0.000607554)
(-0.00844853 -0.000171962 0.00135948)
(-0.00802016 -0.000110502 0.00239454)
(-0.00784563 -0.000292465 0.00318077)
(-0.00796366 8.77151e-05 0.00394863)
(-0.00830009 0.000368087 0.00457845)
(-0.00872015 0.000792638 0.00503008)
(-0.00910361 0.00113701 0.00529322)
(-0.00939827 0.0015014 0.00541176)
(-0.00949442 0.00182726 0.00539519)
(-0.00943872 0.00209631 0.00528794)
(-0.00933991 0.00230579 0.00513513)
(-0.00920821 0.00244687 0.00497416)
(-0.00906808 0.00252381 0.00481764)
(-0.00891114 0.00254717 0.0046732)
(-0.00871852 0.00254103 0.00455658)
(-0.00850319 0.00252747 0.00447909)
(-0.00831663 0.00251127 0.00443504)
(-0.00823099 0.00250727 0.00442012)
(-0.00827668 0.00256069 0.00441819)
(-0.00831925 0.00267762 0.00439419)
(-0.00832179 0.00284179 0.00432551)
(-0.00823912 0.00302063 0.00419238)
(-0.00804281 0.00314533 0.00398442)
(-0.00774643 0.00315931 0.00371373)
(-0.00727631 0.00301934 0.00341725)
(-0.00651959 0.00258973 0.00323178)
(-0.00545145 0.00176541 0.0032759)
(-0.00393637 0.000807132 0.00384527)
(-0.00237637 0.000164242 0.00522884)
(-0.0014069 0.000470877 0.00714602)
(-0.000471221 0.00105085 0.00794759)
(-0.000249978 0.000976404 0.00740668)
(-0.00074226 0.000340089 0.00669111)
(-0.000927081 -0.000630648 0.00647128)
(0.0040418 -0.00217558 0.0057081)
(0.0136176 -0.00490998 0.00599499)
(0.0240049 -0.00801158 0.000640299)
(0.0288103 0.00751413 0.00867316)
(-0.00140372 -0.028233 0.0485941)
(-0.0023483 -0.0517142 0.075941)
(-0.00138632 -0.0784422 0.0707729)
(-0.0187169 -0.108952 0.0208517)
(-0.0101032 -0.0785077 -0.0159841)
(0.0760453 -0.0245741 0.0247601)
(0.150255 0.13123 0.0397863)
(0.0970124 -0.0392584 -0.0135297)
(0.132673 0.285766 -0.0451346)
(-0.0027278 -0.0941148 0.0452345)
(-0.039746 -0.16021 0.144254)
(-0.0195692 0.124099 -0.000650924)
(-0.0474779 0.0515769 -0.0101614)
(-0.0674398 0.140045 -0.0204534)
(-0.0689786 0.13735 -0.018985)
(-0.0296045 0.13702 -0.0108897)
(-0.00987449 0.106137 -0.00484237)
(0.00243022 0.101036 -0.00457536)
(0.012357 0.103928 -0.00164879)
(0.0180882 0.115902 -8.08843e-05)
(0.0279072 0.136395 0.00221086)
(0.0326445 0.150389 0.0029691)
(0.038522 0.153796 0.0144415)
(0.0443958 0.145977 0.02752)
(0.0484088 0.129125 0.0291097)
(0.0502324 0.114985 0.0274953)