/*--------------------------------*- C++ -*----------------------------------*\
| =========                 |                                                 |
| \\      /  F ield         | OpenFOAM: The Open Source CFD Toolbox           |
|  \\    /   O peration     | Version:  2.3.0                                 |
|   \\  /    A nd           | Web:      www.OpenFOAM.org                      |
|    \\/     M anipulation  |                                                 |
\*---------------------------------------------------------------------------*/
FoamFile
{
    version     2.0;
    format      ascii;
    class       volVectorField;
    location    "58";
    object      U.airMean;
}
// * * * * * * * * * * * * * * * * * * * * * * * * * * * * * * * * * * * * * //

dimensions      [0 1 -1 0 0 0 0];

internalField   nonuniform List<vector> 
6144
(
(0.00995922 0.0202307 -0.000576272)
(0.0102504 -0.00075503 -0.0015612)
(0.00456171 -0.00226679 -0.00255288)
(0.00409 -0.0027734 -0.00243664)
(0.0025566 -0.00246393 -0.00192188)
(0.00299729 -0.000631447 -0.00165996)
(0.00273257 -0.000753398 -0.00131171)
(0.00268407 0.000270783 -0.00104164)
(0.00230793 0.000371047 -0.000895212)
(0.00203139 0.00159789 -0.000547233)
(0.00180394 0.00251399 -0.000212356)
(0.00185083 0.00331019 0.000245452)
(0.00197563 0.00333603 0.000470062)
(0.00211034 0.00294736 0.000719745)
(0.0021757 0.00225564 0.000669243)
(0.00225294 0.00162539 0.000570664)
(0.00230221 0.00099835 0.000365692)
(0.00235544 0.000537733 0.000181425)
(0.00239888 0.000162267 -1.31027e-05)
(0.00243196 -6.25291e-05 -0.000168424)
(0.00245202 -0.000197828 -0.000294601)
(0.00246492 -0.00023053 -0.000381802)
(0.00246511 -0.000215054 -0.000421602)
(0.00245366 -0.000163082 -0.000418445)
(0.00243098 -9.83775e-05 -0.000379891)
(0.00240012 -2.99832e-05 -0.000311718)
(0.00236547 3.01882e-05 -0.000224827)
(0.00233037 7.1442e-05 -0.000131375)
(0.00229354 9.33003e-05 -3.57459e-05)
(0.00225468 8.96469e-05 5.56272e-05)
(0.00221506 8.89349e-05 0.000145515)
(0.00217089 4.54623e-05 0.000240935)
(0.00212657 3.66942e-05 0.000348599)
(0.00207552 -8.4131e-05 0.000475738)
(0.00203074 -0.000132632 0.000627245)
(0.00198293 -0.000438345 0.000793217)
(0.00195316 -0.00060025 0.00095175)
(0.0019249 -0.0011721 0.00105587)
(0.00192333 -0.00136779 0.0010584)
(0.00192653 -0.00201754 0.000891346)
(0.00194336 -0.00183253 0.000520658)
(0.00196914 -0.00196466 -5.92715e-05)
(0.00207069 -0.000709167 -0.00063863)
(0.00244611 -0.000209221 -0.00106827)
(0.0031188 0.00104102 -0.00147901)
(0.00386941 0.000507093 -0.00204017)
(0.00430318 0.00141586 -0.00276313)
(0.0036974 0.00190167 -0.00386899)
(0.00296942 0.00788295 -0.00559705)
(0.00610842 0.0125162 -0.00754676)
(0.01772 0.0138441 -0.0100528)
(0.0266108 -0.0066972 -0.010298)
(0.0307536 -0.0184322 -0.0107403)
(0.0288124 -0.0548964 -0.00975518)
(0.024144 -0.0503936 -0.0103376)
(0.0200115 -0.0899934 -0.00678163)
(0.0017755 -0.0424061 -0.0123757)
(0.00479731 -0.0939866 0.0240545)
(-0.0370152 0.0122874 -0.0462713)
(0.0332181 0.114215 0.0396785)
(0.111503 0.316927 0.0328915)
(0.0465253 0.387972 -0.00879549)
(0.0452416 -0.0883802 -0.00100928)
(0.0509825 -0.181015 0.00425254)
(0.042745 -0.186653 0.00487942)
(0.0355866 -0.18102 0.00487344)
(0.0294218 -0.179872 0.00419513)
(0.0247922 -0.174872 0.00384572)
(0.0216123 -0.171562 0.00396902)
(0.0189123 -0.1649 0.00428735)
(0.0164169 -0.159768 0.00466284)
(0.0138771 -0.1516 0.0051299)
(0.0115989 -0.143479 0.00567111)
(0.00885591 -0.134007 0.0061543)
(0.00555838 -0.12376 0.0062469)
(0.00307508 -0.110826 0.00491422)
(0.00206053 -0.0975691 0.00259671)
(0.00113083 -0.0845999 0.00131902)
(0.000519893 -0.0717645 0.00135431)
(0.00207645 -0.0598879 0.00195789)
(0.00387532 -0.0505847 0.00251805)
(0.00444705 -0.0433803 0.0032497)
(0.00444351 -0.0387037 0.00413629)
(0.00328074 -0.0352415 0.00431259)
(0.00262312 -0.0310948 0.00383618)
(0.00277555 -0.0260297 0.00319027)
(0.00312808 -0.0208001 0.00297447)
(0.00300212 -0.0151669 0.00229556)
(0.00224958 -0.00956338 0.00135922)
(0.000939092 -0.00189816 0.000759708)
(0.000998731 0.00560834 0.00137709)
(0.00142752 0.0123067 0.00235928)
(0.00116237 0.0177063 0.00340085)
(0.000651964 0.0219134 0.00633399)
(0.00139763 0.0235147 0.0106339)
(0.00439597 0.0158296 0.0171601)
(0.0193482 0.0212256 0.00302421)
(0.0205952 0.0072915 0.00243461)
(0.0105718 0.00378152 -0.00071148)
(0.00996071 0.00253541 8.24192e-05)
(0.00565591 -0.000439917 0.00100302)
(0.00572458 0.000621429 0.00151808)
(0.00456406 -0.000252964 0.00209427)
(0.00434775 0.00117453 0.00216686)
(0.0035916 0.00137843 0.00216473)
(0.00314608 0.00294447 0.00222535)
(0.00294301 0.00376364 0.00239562)
(0.00327722 0.0044476 0.00289222)
(0.00364507 0.00428186 0.00316337)
(0.00404059 0.003884 0.00336585)
(0.0041787 0.00311304 0.0033616)
(0.00432149 0.00242866 0.00333307)
(0.00436117 0.00170196 0.00324688)
(0.00441735 0.00116053 0.00317904)
(0.00444828 0.000690125 0.00309946)
(0.00446757 0.000380393 0.00304818)
(0.00446618 0.000165068 0.00300824)
(0.00445935 6.8214e-05 0.00297779)
(0.00443296 2.88001e-05 0.00297905)
(0.00438745 3.92855e-05 0.00301288)
(0.00432345 7.29108e-05 0.0030718)
(0.00424751 0.000121301 0.00314938)
(0.00416962 0.000170692 0.00323028)
(0.00409803 0.000208332 0.00330207)
(0.00402688 0.000229101 0.00337451)
(0.00395322 0.000224789 0.00344184)
(0.00388034 0.000218487 0.00350727)
(0.00380122 0.000158758 0.003575)
(0.00373112 0.000129044 0.00364756)
(0.00365748 -3.14025e-05 0.00372544)
(0.00361841 -0.000102729 0.00381253)
(0.00358346 -0.000447313 0.0039005)
(0.00360188 -0.000582202 0.0039852)
(0.00360228 -0.00115512 0.00404302)
(0.00363414 -0.001248 0.00405599)
(0.00360236 -0.00187892 0.00395846)
(0.00355074 -0.00154795 0.00369003)
(0.00349468 -0.0018164 0.0032017)
(0.00365869 -0.000738773 0.00257477)
(0.00426734 -0.000871178 0.00203996)
(0.0054211 0.000397796 0.00148363)
(0.00647441 0.000323099 0.000679502)
(0.00631989 0.00288494 -0.000499869)
(0.00530485 0.00482745 -0.00198969)
(0.00656192 0.00997456 -0.00348643)
(0.0157472 0.0080679 -0.00440044)
(0.0376468 0.00248243 -0.00572674)
(0.0517625 -0.0144592 -0.00560132)
(0.0585122 -0.0194269 -0.00358639)
(0.0538412 -0.0479825 -0.000868665)
(0.0415642 -0.0376214 0.00419521)
(0.0394583 -0.0939053 0.0114984)
(-0.000812675 -0.0429435 0.0113609)
(-0.00164128 -0.156027 0.0442548)
(-0.0937783 0.0392356 -0.0732544)
(0.0222398 0.0452122 0.0225598)
(0.123535 0.350372 0.0768415)
(0.025135 0.427809 0.00370738)
(0.0214303 -0.0698322 0.00568931)
(0.0265856 -0.0407202 0.0156736)
(0.0137546 -0.0567948 0.0167716)
(0.00607238 -0.047437 0.0147856)
(0.0025997 -0.0477974 0.0122261)
(0.0017845 -0.0424037 0.0116676)
(0.00245443 -0.0401403 0.0113576)
(0.0017138 -0.0347112 0.0102333)
(-0.000384712 -0.0337806 0.0110112)
(-0.00224616 -0.0330822 0.0122422)
(-0.00305112 -0.0349641 0.0129107)
(-0.00498882 -0.0365206 0.0124375)
(-0.00782735 -0.0379759 0.0110719)
(-0.00896889 -0.036289 0.00945732)
(-0.00852959 -0.0343953 0.00793584)
(-0.00840846 -0.031899 0.007093)
(-0.00786541 -0.0290011 0.00678845)
(-0.00590858 -0.0265059 0.00716498)
(-0.00388611 -0.0236401 0.00734236)
(-0.00244472 -0.0209658 0.00779355)
(-0.00145826 -0.0205705 0.00860022)
(-0.00154003 -0.0217404 0.00853193)
(-0.00192312 -0.0222278 0.0073223)
(-0.0016286 -0.0217487 0.00619199)
(-0.00140938 -0.0193837 0.00482556)
(-0.00184843 -0.0155244 0.0034709)
(-0.00270497 -0.0111231 0.00231837)
(-0.00373815 -0.00568386 0.00153743)
(-0.00386498 -0.000187017 0.00234616)
(-0.00320594 0.00502052 0.00327324)
(-0.00408871 0.0113225 0.00467453)
(-0.00497653 0.0147406 0.00881943)
(-0.00465943 0.0173417 0.0146001)
(-0.00169241 0.0106541 0.0220708)
(0.0226287 0.0211651 0.00414021)
(0.0246712 0.0121117 0.00403646)
(0.0148005 0.00741655 0.00119431)
(0.0135625 0.00677883 0.00216591)
(0.00697504 0.00214056 0.00293185)
(0.00603899 0.00272153 0.00313759)
(0.00358596 0.000928127 0.00374238)
(0.00316916 0.00225649 0.00365379)
(0.00220101 0.0022482 0.0035812)
(0.00203198 0.00346978 0.00364484)
(0.00191083 0.00369573 0.00371449)
(0.00255115 0.00422629 0.004012)
(0.00299992 0.00399996 0.00420726)
(0.00350109 0.0038597 0.00437121)
(0.00368553 0.00331763 0.0043642)
(0.00387473 0.00285679 0.00435299)
(0.00389923 0.00226813 0.00430483)
(0.00394648 0.00181753 0.00428115)
(0.00393288 0.00137775 0.00425968)
(0.00391312 0.00105935 0.00426298)
(0.00385747 0.000789899 0.00427842)
(0.003787 0.000610991 0.00431308)
(0.00370561 0.000485523 0.00435527)
(0.00361718 0.000416255 0.00440354)
(0.00351995 0.000379376 0.0044548)
(0.00341953 0.000366099 0.00450775)
(0.00331852 0.00036242 0.00456232)
(0.00321797 0.000361491 0.0046203)
(0.00311896 0.000359396 0.00468074)
(0.00301512 0.000340827 0.00474295)
(0.00291184 0.000321596 0.00480628)
(0.00280563 0.000252921 0.00487036)
(0.00271518 0.00021383 0.0049354)
(0.00262307 6.44778e-05 0.00499871)
(0.00257919 2.80164e-05 0.00506066)
(0.00254006 -0.000216988 0.00511335)
(0.00257332 -0.000189334 0.00515585)
(0.00258632 -0.000505254 0.0051712)
(0.00265615 -0.000285286 0.00515067)
(0.00264399 -0.000566138 0.00505592)
(0.00268852 2.67923e-05 0.00484991)
(0.00271965 -0.000276472 0.00456634)
(0.00298003 0.000476436 0.00431185)
(0.00362427 -0.00014468 0.00409619)
(0.00464651 0.00116628 0.00356377)
(0.00560107 0.00131265 0.0029374)
(0.00568559 0.00399844 0.00200376)
(0.00626378 0.00392133 0.000734316)
(0.0110043 0.00699757 -0.000477741)
(0.0262715 0.000518032 -0.000211729)
(0.0522014 -0.00212949 -0.00130397)
(0.0695804 -0.0108359 -0.000276576)
(0.0739679 -0.00596183 0.00277801)
(0.0683999 -0.0245105 0.00590314)
(0.0590294 -0.0112604 0.0145085)
(0.0538612 -0.0757886 0.022512)
(-0.000323287 -0.0127441 0.0321625)
(0.0127244 -0.179275 0.0619052)
(-0.113505 0.0818985 -0.0605865)
(0.0523422 0.0214068 -0.00407271)
(0.171107 0.369701 0.0913875)
(0.0767637 0.442742 0.0255792)
(0.0712633 -0.0114366 0.020576)
(0.047338 0.0478574 0.0153525)
(0.0316153 0.0129502 0.0115911)
(0.0217931 0.0257325 0.0121903)
(0.0185794 0.019621 0.0125837)
(0.0140451 0.0227571 0.0103829)
(0.0120945 0.0236473 0.00918652)
(0.0117516 0.0241482 0.0102329)
(0.0102902 0.0182376 0.0130229)
(0.00692681 0.0121682 0.0153752)
(0.00412394 0.00617541 0.0160909)
(0.00105375 0.00388258 0.015077)
(-0.00204611 0.00113866 0.012918)
(-0.00351331 0.000707082 0.0104445)
(-0.0036713 0.00134718 0.00913375)
(-0.00412146 0.00233633 0.00840202)
(-0.00496275 0.00208885 0.00898321)
(-0.00428526 0.00092678 0.00949273)
(-0.00263878 0.000329586 0.00972606)
(-0.000835637 -0.000714397 0.0104834)
(0.000263735 -0.00300142 0.01155)
(-0.00104865 -0.00531133 0.0108071)
(-0.00218865 -0.00730545 0.00992095)
(-0.00277929 -0.00857408 0.00858014)
(-0.00291691 -0.00828216 0.00653004)
(-0.00324177 -0.00737091 0.00419774)
(-0.00367826 -0.00572431 0.0016516)
(-0.00459653 -0.00157416 0.000255485)
(-0.00535523 0.00231765 0.00282245)
(-0.00637243 0.00577436 0.00555731)
(-0.00734726 0.00958095 0.00776981)
(-0.00879881 0.0109641 0.0110477)
(-0.0106939 0.0136745 0.0166108)
(-0.0106771 0.00783961 0.0236118)
(0.0237779 0.0212268 0.00436704)
(0.027264 0.0154453 0.00452977)
(0.0169097 0.00921507 0.000952664)
(0.0165899 0.0100067 0.00137069)
(0.00884837 0.00408392 0.00199046)
(0.00723161 0.00476325 0.00250185)
(0.00311735 0.00147165 0.00353793)
(0.00221338 0.00252895 0.00355378)
(0.000881177 0.00179268 0.0036504)
(0.000933418 0.00296814 0.00376499)
(0.000832083 0.00283726 0.0039135)
(0.0014538 0.00345385 0.00431005)
(0.00182041 0.00344103 0.00451961)
(0.00234427 0.00360496 0.00468489)
(0.00256251 0.00326727 0.0046636)
(0.00277339 0.00299391 0.00466792)
(0.00278782 0.00250495 0.00464118)
(0.00281992 0.00213472 0.00464734)
(0.00277752 0.00173237 0.00464349)
(0.00273533 0.00142833 0.00465403)
(0.0026517 0.00114577 0.00466669)
(0.00255718 0.000933393 0.00469148)
(0.00244623 0.000758201 0.00472228)
(0.00233024 0.00063606 0.00475948)
(0.00221213 0.000552201 0.00480064)
(0.00209703 0.000502322 0.00484551)
(0.00198854 0.00047379 0.00489177)
(0.00188831 0.000456297 0.00493915)
(0.00179431 0.000442435 0.00498876)
(0.00170209 0.000419005 0.00504093)
(0.00161658 0.000399531 0.00509516)
(0.0015337 0.000345763 0.00514855)
(0.00147052 0.000330138 0.00519752)
(0.00140799 0.000230894 0.00523661)
(0.00139491 0.000259764 0.00526169)
(0.00137554 0.000120969 0.005266)
(0.00142734 0.000280465 0.00524812)
(0.00143178 0.000147609 0.0051974)
(0.00149505 0.000577942 0.00511074)
(0.00148645 0.000514422 0.00496651)
(0.00164906 0.0012395 0.00475453)
(0.00186518 0.000912164 0.00452917)
(0.00226935 0.00145514 0.00434178)
(0.00266871 0.0006313 0.00418732)
(0.0033542 0.00151353 0.00394901)
(0.00416525 0.00105092 0.00380666)
(0.00496441 0.00297891 0.00347311)
(0.00676919 0.000838494 0.00254827)
(0.0142682 0.00172691 0.00179416)
(0.0304237 -0.00586392 0.0020247)
(0.0556075 -0.00291551 0.00178152)
(0.0722186 0.000138926 0.00424655)
(0.0784421 0.0145651 0.00816151)
(0.075029 0.00759559 0.0118267)
(0.0658984 0.0280843 0.0235422)
(0.0596123 -0.0300471 0.0388187)
(0.0161114 0.0552872 0.0716393)
(0.0313841 -0.189967 0.0986193)
(-0.148079 0.204449 -0.0427605)
(0.0567881 -0.0434876 0.0215904)
(0.154078 0.452649 0.090856)
(0.0524921 0.571028 0.0170609)
(0.0377886 0.38035 0.0156075)
(0.0137509 0.420809 0.00279713)
(0.00993284 0.373562 0.00760672)
(0.00232409 0.354757 0.00794699)
(0.00191821 0.330415 0.00947895)
(0.000976485 0.309918 0.00952571)
(0.00174055 0.286765 0.00909933)
(0.00171205 0.265716 0.00922836)
(0.00105301 0.236897 0.0102717)
(-0.000866338 0.211392 0.0102922)
(-0.00330953 0.183895 0.0103779)
(-0.00550337 0.15655 0.00981324)
(-0.00673446 0.131075 0.00856381)
(-0.00742376 0.115209 0.00791943)
(-0.00762944 0.102151 0.00788253)
(-0.00749541 0.0899884 0.00776232)
(-0.0073009 0.0743788 0.00911341)
(-0.00668131 0.0604728 0.0104053)
(-0.0058488 0.0523872 0.0121975)
(-0.00599813 0.0469004 0.0119878)
(-0.00614093 0.0410871 0.0124159)
(-0.00661442 0.0333192 0.0117081)
(-0.00781426 0.0279666 0.010886)
(-0.00846347 0.0238119 0.00964001)
(-0.0079337 0.0203455 0.00626049)
(-0.00700595 0.0184042 0.00382656)
(-0.00781092 0.0157108 0.00151411)
(-0.00857821 0.0150388 6.00131e-05)
(-0.00938967 0.0144761 0.00374972)
(-0.0106574 0.0133548 0.00675983)
(-0.0122022 0.0135274 0.00913816)
(-0.0150695 0.0118273 0.0127447)
(-0.0196779 0.0130527 0.0176253)
(-0.0218292 0.00696756 0.0242083)
(0.0237908 0.0213748 0.00447961)
(0.0290903 0.0185332 0.00514879)
(0.0185844 0.0105764 0.000876495)
(0.0197496 0.0123792 0.000940959)
(0.0112107 0.00499274 0.000225522)
(0.00921375 0.00636924 0.000832223)
(0.00355549 0.00169481 0.00221785)
(0.00195948 0.00299329 0.00273488)
(-0.000287644 0.00101664 0.00310528)
(-0.000450105 0.00210211 0.00346173)
(-0.000822747 0.00168905 0.00369892)
(-0.000467451 0.00255534 0.00424252)
(-0.000281656 0.00277798 0.0044562)
(0.000284563 0.00324287 0.00464953)
(0.000544695 0.00307636 0.00460163)
(0.000757803 0.0029172 0.00462575)
(0.000718818 0.00249126 0.00461449)
(0.000660056 0.00219188 0.0046456)
(0.000531211 0.00184297 0.00464701)
(0.000424856 0.00157934 0.00464832)
(0.000296753 0.00130824 0.0046355)
(0.000176479 0.00108493 0.00462882)
(5.38656e-05 0.00088498 0.0046261)
(-6.74963e-05 0.000732479 0.00463132)
(-0.000189788 0.000615705 0.00464197)
(-0.00030337 0.000534631 0.00465852)
(-0.000403838 0.00047871 0.0046797)
(-0.000489583 0.000438934 0.00470408)
(-0.000565717 0.000410463 0.00472907)
(-0.000640089 0.000385365 0.00475505)
(-0.000710821 0.000373999 0.00478127)
(-0.000780304 0.00034566 0.00480423)
(-0.000832634 0.000366351 0.00482049)
(-0.000885151 0.000334106 0.00482189)
(-0.000886797 0.000445973 0.00480381)
(-0.000897547 0.000434018 0.00475656)
(-0.000840758 0.00073688 0.00467841)
(-0.000844902 0.000793329 0.00455934)
(-0.000770221 0.00140586 0.00441295)
(-0.000718914 0.00150272 0.00425012)
(-0.000362549 0.00226301 0.0041162)
(5.31181e-05 0.00184873 0.0040099)
(0.000644648 0.00222119 0.00385786)
(0.00117669 0.00108993 0.00365624)
(0.00196547 0.00152809 0.00363865)
(0.0026635 0.000408542 0.00379748)
(0.00392083 0.00135317 0.00424883)
(0.00720758 -0.0021388 0.00400721)
(0.0166553 -0.00351655 0.00410786)
(0.0315276 -0.00775262 0.00563624)
(0.0500741 0.00227928 0.00725131)
(0.0647993 0.0158805 0.0118919)
(0.0704322 0.0417913 0.0149597)
(0.0680949 0.0484082 0.0181545)
(0.0608175 0.0779018 0.0332595)
(0.0514049 0.0369929 0.0494522)
(0.0195408 0.126271 0.0829346)
(0.0277375 -0.111285 0.102606)
(-0.119864 0.310082 -0.0141404)
(0.0450842 -0.0742565 0.0275819)
(0.143867 0.502096 0.0974069)
(0.0469388 0.619628 0.0167345)
(0.0379279 0.546359 0.0167982)
(0.0134543 0.600421 0.00210457)
(0.0110072 0.590923 0.00729096)
(0.00337831 0.603062 0.00670863)
(0.00379695 0.598819 0.00812041)
(0.00150109 0.59738 0.00824255)
(0.00159942 0.591255 0.00870709)
(0.00135575 0.586726 0.00962487)
(0.00126082 0.580394 0.0106411)
(0.000294595 0.572255 0.0107772)
(0.000103608 0.562488 0.0104768)
(-0.000127633 0.550367 0.00993867)
(5.39767e-05 0.534189 0.00959972)
(-0.000158985 0.51063 0.00894053)
(-0.00061031 0.490716 0.00887099)
(-0.00203389 0.471101 0.00930503)
(-0.00313444 0.452373 0.0111595)
(-0.00406428 0.434205 0.0124021)
(-0.00505564 0.413993 0.0128472)
(-0.00573321 0.38248 0.0136113)
(-0.00560172 0.340206 0.0127718)
(-0.00532565 0.29037 0.0102347)
(-0.00401298 0.244841 0.00692872)
(-0.00237452 0.211951 0.00305488)
(-0.00161539 0.174415 0.00135764)
(-0.00142777 0.14458 0.000936731)
(-0.00316503 0.12121 0.000531748)
(-0.00459627 0.103376 0.00325448)
(-0.00784827 0.0879112 0.00670022)
(-0.0105611 0.0671311 0.00878098)
(-0.013288 0.0523656 0.01211)
(-0.018371 0.0346096 0.0151406)
(-0.0260395 0.0235442 0.0178911)
(-0.0329917 0.0108504 0.022882)
(0.0224468 0.0209807 0.0049662)
(0.0303986 0.02198 0.00644212)
(0.0193139 0.0117307 0.00182116)
(0.0219666 0.0144566 0.002303)
(0.0138735 0.00462294 -0.000232807)
(0.0115879 0.00697368 -0.000308308)
(0.00461967 0.00100475 0.000769754)
(0.00218294 0.00331836 0.00155143)
(-0.000509254 0.00037931 0.00221979)
(-0.00142855 0.00139398 0.00282055)
(-0.00207435 0.000441263 0.00310461)
(-0.00191541 0.00152921 0.0038064)
(-0.0016746 0.00198792 0.004106)
(-0.000919919 0.00280012 0.00448646)
(-0.000445922 0.00269558 0.00459084)
(-0.000153274 0.00260286 0.0047478)
(-0.000209267 0.00219747 0.00478844)
(-0.000337868 0.0019777 0.00483487)
(-0.000526226 0.00172573 0.00481505)
(-0.000671478 0.00157358 0.00477859)
(-0.000824222 0.00139723 0.00470786)
(-0.000961444 0.00124783 0.00463069)
(-0.00110386 0.00109487 0.00455215)
(-0.00123523 0.000966257 0.00448265)
(-0.00135066 0.000859755 0.00442224)
(-0.00144565 0.000783397 0.00437093)
(-0.00151892 0.000727465 0.00432855)
(-0.0015753 0.000685308 0.00429554)
(-0.00162523 0.000653111 0.00427181)
(-0.00167088 0.000628679 0.00425958)
(-0.00171094 0.000627404 0.00425683)
(-0.00174726 0.000630123 0.00425551)
(-0.00176989 0.000696428 0.00424877)
(-0.00179654 0.000741462 0.00422258)
(-0.00178933 0.0009396 0.00416908)
(-0.00180863 0.00104288 0.0040772)
(-0.00178227 0.00143988 0.00394849)
(-0.00182438 0.00158453 0.00378302)
(-0.00176582 0.00218741 0.00361921)
(-0.00165528 0.00220724 0.00351793)
(-0.00117454 0.00281705 0.00355301)
(-0.000616986 0.00235931 0.00366774)
(0.000115984 0.00267563 0.00367179)
(0.000706488 0.00145471 0.00362212)
(0.00146253 0.00175074 0.00391675)
(0.00202429 0.000268653 0.00436979)
(0.00380905 -0.000147736 0.00478082)
(0.00875113 -0.00417756 0.00463903)
(0.0163198 -0.00573957 0.00582916)
(0.0257032 -0.00678463 0.0102367)
(0.0361577 0.00725183 0.0145828)
(0.0439571 0.0294868 0.0198422)
(0.0517916 0.0625683 0.0249622)
(0.0534963 0.0779271 0.0317578)
(0.0507765 0.107642 0.0482423)
(0.0453034 0.071064 0.0579821)
(0.0303457 0.148541 0.0800282)
(0.047411 -0.0859399 0.0828793)
(-0.0347705 0.352854 0.0175352)
(0.0349982 -0.0797221 0.0323836)
(0.094332 0.540593 0.0944306)
(0.0198002 0.639893 0.0113855)
(0.0153258 0.598766 0.0147193)
(-0.00356379 0.652395 0.00383908)
(-0.00231037 0.651175 0.0109596)
(-0.0053637 0.665225 0.0109423)
(-0.00211206 0.665839 0.0129839)
(-0.00101033 0.670486 0.0133152)
(0.00119993 0.670028 0.0142524)
(0.00253826 0.669802 0.0145244)
(0.00391595 0.664493 0.0141431)
(0.00433404 0.661141 0.0136059)
(0.00506132 0.658601 0.0128913)
(0.0047985 0.656881 0.0124745)
(0.00387027 0.653998 0.0125274)
(0.00240171 0.652161 0.0125788)
(0.00098495 0.649099 0.0130985)
(-0.000879416 0.644227 0.0139616)
(-0.00290507 0.637072 0.0143963)
(-0.00430019 0.626189 0.0143625)
(-0.00533245 0.613964 0.01365)
(-0.00561455 0.599101 0.0117884)
(-0.00438836 0.583281 0.00878523)
(-0.00304281 0.564311 0.00507786)
(-0.00222657 0.54473 0.00145009)
(-0.00174032 0.520733 -0.000980262)
(-0.0021684 0.480485 -0.00100778)
(-0.00272787 0.422154 0.00102087)
(-0.00493572 0.36956 0.00441135)
(-0.00768564 0.322756 0.00754973)
(-0.0109325 0.273779 0.00863994)
(-0.0146057 0.220896 0.0104279)
(-0.018394 0.18771 0.0138297)
(-0.0242506 0.147248 0.0165603)
(-0.0320834 0.101543 0.0192519)
(-0.0389207 0.0708491 0.0207775)
(0.01905 0.0194355 0.00516281)
(0.030489 0.0257491 0.008553)
(0.0183084 0.0123612 0.00381854)
(0.0219721 0.0166631 0.00504012)
(0.0147627 0.00372125 0.00149541)
(0.0126725 0.00666195 0.000645155)
(0.00484045 -0.000432371 0.000727104)
(0.00207713 0.00321199 0.00106761)
(-0.00100609 -1.0294e-05 0.00164198)
(-0.00239205 0.00129455 0.00242266)
(-0.00373789 -0.000184635 0.00261296)
(-0.00442223 0.000939599 0.00337819)
(-0.00457316 0.00130071 0.00379885)
(-0.00358514 0.00219662 0.00456744)
(-0.0029727 0.00205963 0.0049805)
(-0.00269188 0.00208597 0.00532999)
(-0.00288945 0.00176491 0.00542091)
(-0.00321988 0.00167686 0.00543988)
(-0.00357052 0.00154988 0.0053554)
(-0.003805 0.00154006 0.00525049)
(-0.0039876 0.00150052 0.00510622)
(-0.0041117 0.00148482 0.00495919)
(-0.00421306 0.00144412 0.00481413)
(-0.00429795 0.00140339 0.00468812)
(-0.00438228 0.00136345 0.00458753)
(-0.00443956 0.00133647 0.00450506)
(-0.00446506 0.00131114 0.00443845)
(-0.00446372 0.00128487 0.00439606)
(-0.00445224 0.00125802 0.00437689)
(-0.00444736 0.00123683 0.00437804)
(-0.0044539 0.00124546 0.00439391)
(-0.00446681 0.00127672 0.00441159)
(-0.00448071 0.00138543 0.00441922)
(-0.00450284 0.00149468 0.00440008)
(-0.00448825 0.0017439 0.00435132)
(-0.0044848 0.00188933 0.00426614)
(-0.00441479 0.00226226 0.00415546)
(-0.00437972 0.00231701 0.00402115)
(-0.00421945 0.00270051 0.00390209)
(-0.00403383 0.00244074 0.00384055)
(-0.00357185 0.00277034 0.00389594)
(-0.00307804 0.00221642 0.00397462)
(-0.00223861 0.00266209 0.00398813)
(-0.00150384 0.00169872 0.00412829)
(-0.00073397 0.00193356 0.00454652)
(0.000274736 0.000200996 0.00496153)
(0.00334684 -0.000837775 0.00509571)
(0.00838852 -0.00380751 0.00506832)
(0.014092 -0.00370723 0.00683947)
(0.0165072 -6.91157e-05 0.0134723)
(0.014066 0.0186221 0.0214174)
(0.0172781 0.0424025 0.026473)
(0.0240921 0.0785283 0.0326362)
(0.0294898 0.100826 0.0408087)
(0.0366853 0.127257 0.0536694)
(0.0424393 0.0934462 0.0600016)
(0.0480822 0.165368 0.0741559)
(0.045624 -0.0724694 0.0645992)
(0.0087415 0.350438 0.0464609)
(0.0127612 -0.0658122 0.0331496)
(0.0372802 0.572421 0.0825103)
(-0.00240604 0.658829 0.01105)
(-0.00252922 0.637358 0.0134435)
(-0.0118581 0.6855 0.00612148)
(-0.00703652 0.683104 0.0141717)
(-0.00621267 0.69597 0.0131502)
(-0.00262615 0.696167 0.0147653)
(-0.000771342 0.701324 0.0149636)
(0.00188212 0.702183 0.0158901)
(0.00417964 0.702392 0.0160939)
(0.00612877 0.701133 0.0158288)
(0.00690022 0.699072 0.0156855)
(0.00738762 0.69869 0.0157709)
(0.00687998 0.697298 0.0158343)
(0.00617997 0.695092 0.016227)
(0.00486509 0.689931 0.0163513)
(0.00381131 0.682897 0.016469)
(0.00267294 0.674916 0.016413)
(0.00205269 0.668003 0.016121)
(0.00154815 0.659799 0.0158771)
(0.00178461 0.650615 0.0142205)
(0.00259592 0.642206 0.0112855)
(0.00437056 0.637099 0.00725594)
(0.00551821 0.632403 0.00253107)
(0.00617071 0.624175 -0.00134165)
(0.00539356 0.612397 -0.00379998)
(0.00324116 0.601171 -0.00300875)
(0.000953667 0.586016 -0.000451211)
(-0.00177318 0.557744 0.0020717)
(-0.00582661 0.530285 0.00398378)
(-0.0113677 0.503028 0.00517783)
(-0.0183136 0.472265 0.007309)
(-0.0254189 0.432933 0.00980771)
(-0.0331866 0.377082 0.0114163)
(-0.0407295 0.310272 0.0139285)
(-0.0491984 0.275152 0.0142097)
(0.016134 0.0141731 0.00431828)
(0.0293627 0.0288032 0.00952932)
(0.0159272 0.0125824 0.00454306)
(0.020897 0.0197672 0.00595832)
(0.0145967 0.00405821 0.00261121)
(0.0122186 0.00676048 0.00168363)
(0.00354565 -0.00172574 0.00131628)
(0.000448151 0.00289047 0.0011493)
(-0.00169416 -0.00069708 0.00211674)
(-0.00322513 0.0015436 0.00280897)
(-0.00444428 -0.000267255 0.00307247)
(-0.00517681 0.000731014 0.00392792)
(-0.00514627 0.000213578 0.00461385)
(-0.0039895 0.000821402 0.00564756)
(-0.00334525 0.000597319 0.00637808)
(-0.00309038 0.000988959 0.00699255)
(-0.00328323 0.00104416 0.00728202)
(-0.00357244 0.00134554 0.00738974)
(-0.00387616 0.00147251 0.00733467)
(-0.00406608 0.00168007 0.00722301)
(-0.00421878 0.00180001 0.00705358)
(-0.00431512 0.00190605 0.00687534)
(-0.00438785 0.00195178 0.00670079)
(-0.00443737 0.00197622 0.00654736)
(-0.00447539 0.00197151 0.00641515)
(-0.00448768 0.00195411 0.00630951)
(-0.00446973 0.00193125 0.00623207)
(-0.00442678 0.00190489 0.00618119)
(-0.00437883 0.00187545 0.00615277)
(-0.00434549 0.00185559 0.00614365)
(-0.00433512 0.00187464 0.00614436)
(-0.00434139 0.00193136 0.00614035)
(-0.00435895 0.00207094 0.00612124)
(-0.0043812 0.00221669 0.00607701)
(-0.00436418 0.00246916 0.00600629)
(-0.00435391 0.00259146 0.00590657)
(-0.00425676 0.00285953 0.00579694)
(-0.00416228 0.00277264 0.00568361)
(-0.00390529 0.00294256 0.00560362)
(-0.00365015 0.00251441 0.00557803)
(-0.00323524 0.0026615 0.0056426)
(-0.00289705 0.00208432 0.005724)
(-0.00222084 0.00257579 0.0057566)
(-0.00146064 0.0016857 0.00593268)
(-0.000724385 0.00200328 0.00626157)
(0.000470456 -0.000111145 0.00620296)
(0.00311703 0.000140572 0.00535031)
(0.00637261 0.000223014 0.00549414)
(0.00802618 0.00394544 0.00794146)
(0.00217707 0.0124848 0.017706)
(-0.00740883 0.0298582 0.028132)
(-0.0120578 0.0499814 0.0322315)
(-0.00778137 0.0821972 0.0341744)
(0.0063273 0.108801 0.0383723)
(0.0245724 0.14033 0.0500845)
(0.0513214 0.124703 0.0579175)
(0.0760308 0.184857 0.0744028)
(0.0841312 -0.0166897 0.0697424)
(0.0902443 0.384794 0.0353106)
(-0.0234343 -0.0747018 0.0273455)
(-0.0494762 0.605894 0.0465067)
(-0.0343553 0.689553 -0.00636031)
(-0.0309813 0.669662 0.00311696)
(-0.0235522 0.711031 0.000146801)
(-0.0167098 0.705405 0.00711097)
(-0.009288 0.714816 0.00600998)
(-0.00541251 0.713178 0.00724235)
(3.1863e-05 0.714926 0.00741353)
(0.00380555 0.71658 0.00898527)
(0.0073816 0.716165 0.00997168)
(0.00926064 0.71604 0.0106279)
(0.010334 0.71689 0.0115443)
(0.0115679 0.715799 0.0129632)
(0.0126295 0.713216 0.0145502)
(0.0134376 0.708582 0.0161708)
(0.0140792 0.703643 0.0176038)
(0.0147955 0.69615 0.0187947)
(0.015233 0.68702 0.0197097)
(0.0153769 0.676309 0.0200057)
(0.0155098 0.664518 0.0195239)
(0.0157804 0.654196 0.0182899)
(0.0160849 0.640712 0.0159004)
(0.0159835 0.627543 0.0126053)
(0.015228 0.62025 0.0085842)
(0.0138105 0.615509 0.00546827)
(0.0117859 0.608657 0.00333973)
(0.00987104 0.601236 0.00283261)
(0.00789648 0.59357 0.00304725)
(0.00575539 0.585908 0.00515636)
(0.00208927 0.575194 0.00799629)
(-0.00398527 0.556689 0.0111519)
(-0.0115534 0.53285 0.0139538)
(-0.0193776 0.509522 0.014736)
(-0.0287934 0.487755 0.0115029)
(-0.037229 0.46392 0.00319403)
(-0.0441835 0.44666 -0.0128591)
(0.00701236 0.0084757 -0.00200353)
(0.0267151 0.0304444 0.00788844)
(0.0120991 0.0130958 0.00229372)
(0.0189674 0.0238246 0.00368505)
(0.0140193 0.00644774 0.0014107)
(0.0116883 0.00835865 0.000536781)
(0.00194257 -0.00213081 -0.00208069)
(-0.000903999 0.00311108 -0.00234092)
(-0.00407417 -0.000634071 -0.00119689)
(-0.0054115 0.00204185 -0.000403397)
(-0.00666209 -0.000174273 -3.42859e-05)
(-0.00737325 0.000585416 0.000817165)
(-0.00777921 -0.000641604 0.00153237)
(-0.00721713 -0.000134828 0.00240714)
(-0.00716625 -0.000268844 0.00313002)
(-0.00724096 0.000406066 0.00375585)
(-0.00764392 0.000670784 0.00422774)
(-0.00799511 0.0011777 0.00452599)
(-0.00834786 0.00142976 0.00465101)
(-0.008551 0.00173911 0.00467457)
(-0.00864434 0.00192904 0.00461531)
(-0.00864153 0.00209627 0.00452859)
(-0.0086115 0.0021937 0.00443548)
(-0.00856186 0.00225602 0.00435241)
(-0.00850313 0.00227921 0.0042785)
(-0.00842866 0.00228009 0.00421684)
(-0.00833637 0.00226999 0.00416891)
(-0.0082314 0.0022596 0.00413519)
(-0.00813243 0.00225314 0.00411388)
(-0.00807663 0.00225852 0.00410221)
(-0.00807071 0.0022964 0.00409428)
(-0.00808401 0.00236628 0.00407903)
(-0.00810473 0.00250072 0.00404955)
(-0.00810644 0.00262844 0.00399935)
(-0.00803302 0.00283771 0.00392699)
(-0.00792335 0.00292141 0.00383973)
(-0.00770666 0.00313912 0.00374471)
(-0.00750644 0.00303463 0.0036516)
(-0.00722945 0.00316523 0.00356557)
(-0.0070396 0.00272899 0.00350775)
(-0.00673729 0.00284009 0.00348551)
(-0.00651085 0.00219913 0.00346678)
(-0.00579314 0.00249377 0.00336814)
(-0.00498365 0.00142208 0.00344814)
(-0.00409357 0.00156416 0.0035446)
(-0.00327866 -0.000641728 0.00284113)
(-0.0016058 0.00165614 0.00216048)
(0.00027542 0.00208851 0.00246251)
(-0.00180438 0.00829648 0.00515962)
(-0.0122106 0.0143302 0.0144829)
(-0.0280091 0.0247623 0.0272374)
(-0.0343478 0.0327592 0.0318105)
(-0.0341874 0.0547055 0.0296731)
(-0.0207607 0.0672318 0.0252249)
(-0.000576299 0.113374 0.0342899)
(0.0381056 0.0832096 0.0412752)
(0.0769189 0.183193 0.0608281)
(0.0983345 -0.0353094 0.0681631)
(0.169642 0.406195 0.0329624)
(-0.0474569 -0.0990012 0.0189972)
(-0.120192 0.574801 0.0263122)
(-0.0511412 0.674314 -0.00688504)
(-0.046106 0.63062 0.00279553)
(-0.0231617 0.670757 0.00317624)
(-0.0179573 0.649102 0.00767143)
(-0.00668026 0.652162 0.00433811)
(-0.00558512 0.642537 0.00311708)
(-0.00142885 0.641922 0.00145833)
(0.0010129 0.640529 0.00129629)
(0.00435247 0.640782 0.000754294)
(0.00575873 0.640818 -0.000245135)
(0.00696314 0.642782 -0.00017539)
(0.007849 0.643092 0.000672007)
(0.00960844 0.644413 0.00248193)
(0.0117297 0.645087 0.00446119)
(0.013835 0.644612 0.00661031)