/*--------------------------------*- C++ -*----------------------------------*\
| =========                 |                                                 |
| \\      /  F ield         | OpenFOAM: The Open Source CFD Toolbox           |
|  \\    /   O peration     | Version:  2.3.0                                 |
|   \\  /    A nd           | Web:      www.OpenFOAM.org                      |
|    \\/     M anipulation  |                                                 |
\*---------------------------------------------------------------------------*/
FoamFile
{
    version     2.0;
    format      ascii;
    class       volVectorField;
    location    "58";
    object      U.air;
}
// * * * * * * * * * * * * * * * * * * * * * * * * * * * * * * * * * * * * * //

dimensions      [0 1 -1 0 0 0 0];

internalField   nonuniform List<vector> 
6144
(
(0.0106961 0.0195101 -0.00100408)
(0.0108071 -0.00211425 -0.00212421)
(0.00439866 -0.00314452 -0.00296518)
(0.00360732 -0.00296246 -0.00269691)
(0.00222457 -0.00166398 -0.0019536)
(0.00314124 0.0007618 -0.00157817)
(0.00336546 5.60389e-05 -0.00120071)
(0.00323211 0.000581485 -0.00113072)
(0.00253214 0.00020082 -0.000889447)
(0.00185007 0.00152068 -0.000332989)
(0.00131029 0.00272799 0.00025345)
(0.00123823 0.00392425 0.000971272)
(0.00135297 0.00412168 0.00141167)
(0.00147881 0.00368875 0.00182581)
(0.00153071 0.00287727 0.00187145)
(0.00161854 0.0020784 0.00179354)
(0.00169713 0.00123346 0.00158309)
(0.00178273 0.000520711 0.00133448)
(0.00186197 -7.61842e-05 0.0010696)
(0.00192962 -0.00050258 0.000822687)
(0.00197754 -0.000768031 0.000594758)
(0.00201804 -0.000862237 0.000401441)
(0.00204265 -0.000846627 0.000277463)
(0.00204365 -0.000768261 0.000239601)
(0.00202088 -0.000660899 0.000275224)
(0.00198015 -0.000550028 0.000375963)
(0.00193214 -0.00046371 0.000518984)
(0.00188969 -0.000433298 0.000667231)
(0.00184298 -0.000477603 0.000818906)
(0.00179266 -0.000577769 0.000954446)
(0.00174196 -0.000715439 0.00107646)
(0.00169574 -0.000891739 0.00119359)
(0.00165651 -0.00112019 0.00131049)
(0.00163099 -0.00142421 0.00142873)
(0.00162444 -0.00184027 0.00153603)
(0.00163736 -0.00238388 0.00159222)
(0.00166432 -0.00302368 0.0015667)
(0.00169794 -0.00370389 0.00142448)
(0.00174068 -0.0042507 0.00111665)
(0.00183422 -0.00453591 0.000489638)
(0.00196889 -0.00426791 -0.000238755)
(0.0023655 -0.00352525 -0.000855948)
(0.00282061 -0.00329273 -0.00103562)
(0.00265813 -0.00392301 -0.000982073)
(0.00145765 -0.00424263 -0.00100397)
(0.000760813 -0.00292848 -0.00154711)
(0.00165018 -0.00145605 -0.00272302)
(0.00511384 0.00109019 -0.004128)
(0.0074019 0.00223009 -0.00600954)
(0.00100614 0.0122141 -0.0077344)
(-0.00182897 0.0304471 -0.0107704)
(0.00489437 0.0337169 -0.0102809)
(0.00348816 0.0400401 -0.00927643)
(0.00559608 0.0093264 -0.00862157)
(0.0322754 0.0381628 -0.0155849)
(0.0239381 -0.0550589 -0.00393824)
(0.0258295 -0.0232463 -0.0226423)
(0.0035876 -0.115185 0.0314084)
(-0.0197882 0.0222806 -0.0900823)
(0.0278071 0.0960003 0.0436432)
(0.0917223 0.333415 0.0513303)
(0.0554436 0.385255 -0.0150088)
(0.056534 -0.149232 -0.0105279)
(0.0476864 -0.181682 -0.00583553)
(0.0436412 -0.177822 -0.00408515)
(0.0382619 -0.177024 -0.00781282)
(0.036114 -0.170867 -0.00771859)
(0.0355734 -0.160584 -0.0113869)
(0.0324835 -0.148862 -0.00734209)
(0.0276799 -0.126585 -0.00337505)
(0.0197172 -0.115616 0.00131883)
(0.0141343 -0.106017 0.0034204)
(0.0112081 -0.095073 0.00572995)
(0.00929169 -0.0936632 0.0113112)
(0.00795532 -0.0955869 0.0118683)
(0.00675396 -0.094143 0.0108721)
(0.00644393 -0.0872173 0.0106993)
(-0.00243051 -0.0805926 0.00354535)
(-0.0327937 -0.0513938 -0.000191378)
(-0.0211686 -0.00312528 -0.00152601)
(0.0165527 0.00396529 -0.0141751)
(0.0248437 -0.00312168 -0.0167959)
(0.0311992 -0.00726103 -0.0162085)
(0.0331402 -0.0173378 -0.0132098)
(0.0346107 -0.0286436 -0.0107262)
(0.0311962 -0.0433681 -0.0102383)
(0.0183754 -0.0532681 -0.00574177)
(0.00626056 -0.0544701 -0.00106448)
(-0.000350817 -0.0505761 -0.000407441)
(-0.00192613 -0.0410231 0.000242517)
(0.00320915 -0.0218245 -0.00326344)
(0.00870116 -0.00409022 -0.00717429)
(0.00129043 0.033808 -0.0109958)
(-0.00222467 0.0647055 0.0119139)
(-0.00425151 0.0634755 0.0333146)
(-0.00262972 0.033748 0.0532073)
(0.0203652 0.0201801 0.00297722)
(0.0217728 0.00592502 0.00206912)
(0.0115655 0.0021971 -0.00202805)
(0.00973085 0.000828389 -0.000491732)
(0.00500912 -0.00238923 0.00077082)
(0.00531606 -0.000246538 0.00139364)
(0.00537251 -0.000563048 0.00220644)
(0.00498425 0.000873487 0.00245813)
(0.00365995 0.000831653 0.00256543)
(0.0023575 0.00265522 0.00263511)
(0.00174149 0.00393382 0.00284488)
(0.00193576 0.00500898 0.00356721)
(0.00231739 0.00503612 0.00406747)
(0.00273932 0.00464952 0.00435837)
(0.00288517 0.00380648 0.00441651)
(0.00304578 0.00298519 0.00439807)
(0.00314612 0.00207821 0.00432358)
(0.0032435 0.00130415 0.00424138)
(0.00332225 0.000615189 0.00415888)
(0.00337581 8.42527e-05 0.00409452)
(0.00339276 -0.000294393 0.0040479)
(0.00340804 -0.000496848 0.00399185)
(0.00341227 -0.000581467 0.00395)
(0.00338089 -0.000590999 0.00396281)
(0.00331024 -0.000555981 0.00402356)
(0.00321422 -0.000498658 0.00412218)
(0.00311506 -0.000443577 0.0042382)
(0.00304735 -0.000417848 0.00431432)
(0.00298241 -0.000453342 0.00439704)
(0.00291017 -0.000540912 0.00447738)
(0.0028406 -0.000673106 0.00454973)
(0.0027887 -0.000850641 0.00461345)
(0.00276593 -0.00107912 0.00466653)
(0.00278888 -0.00136704 0.00470834)
(0.00286688 -0.00173382 0.00473713)
(0.00298673 -0.00219954 0.00475246)
(0.00312527 -0.00275337 0.00475239)
(0.00322401 -0.00333117 0.00472425)
(0.00322572 -0.00372891 0.00464435)
(0.00330099 -0.00375589 0.00420042)
(0.00348139 -0.00331367 0.00344644)
(0.00421429 -0.00301306 0.00297187)
(0.00540449 -0.00378201 0.00310626)
(0.00582959 -0.00592162 0.00308904)
(0.00456216 -0.00930646 0.00276528)
(0.00373003 -0.0139736 0.00165308)
(0.00492058 -0.0181077 6.15898e-05)
(0.00779217 -0.0167174 -0.00319008)
(0.00777914 -0.00759911 -0.00686531)
(0.00436303 0.0109824 -0.00771419)
(0.00564083 0.0258038 -0.00470832)
(0.02401 -0.00403316 0.00687048)
(0.0360239 -0.0023565 -0.00200201)
(0.0447106 -0.0430229 -0.00619344)
(0.0649597 -0.0273511 -0.014368)
(0.098283 -0.0935133 -0.00888052)
(0.0581692 -0.0725712 -0.0108626)
(0.0434528 -0.158884 0.0418061)
(-0.00588402 0.0432915 -0.0733837)
(0.0242351 0.054017 0.00531633)
(0.114357 0.353545 0.0952127)
(0.052848 0.411404 -0.00703666)
(0.0504844 -0.106861 -0.00331981)
(0.0477385 -0.0966654 0.0137092)
(0.0316895 -0.0980166 0.0142822)
(0.00724276 -0.0868328 0.0041764)
(0.00821715 -0.0482212 0.00098945)
(-0.0077707 0.00927672 0.00311938)
(-0.0135288 0.0574454 0.0302686)
(-0.0111851 0.0620475 0.0485057)
(-0.00890065 0.0628087 0.0538571)
(-0.00583677 0.0540915 0.0342762)
(-0.0013805 0.0404417 0.0219934)
(-0.00142239 0.030539 0.026355)
(-0.013194 0.0120523 0.0251302)
(-0.0247638 0.00263329 0.0136671)
(-0.0299529 0.0141118 0.00105606)
(-0.0247078 0.0355669 -0.00925178)
(-0.0168116 0.0406003 -0.0147797)
(0.0163489 0.0482261 -0.0148977)
(0.0330203 0.0329525 -0.0121776)
(0.0372447 0.0180252 -0.00718792)
(0.0421331 0.00754761 -0.00638748)
(0.0445961 -0.00533112 -0.00419992)
(0.0429513 -0.0175636 0.00342117)
(0.0376448 -0.0315612 0.00396534)
(0.0270448 -0.0423011 0.0033521)
(0.0181898 -0.050647 0.00415852)
(0.0106476 -0.0588358 0.00651257)
(3.95746e-05 -0.0606976 0.0118692)
(-0.00637396 -0.0546842 0.011633)
(-0.0110342 -0.0447672 -0.00445292)
(-0.0154934 0.0140952 -0.0190179)
(-0.0131397 0.0547103 0.0151202)
(-0.022835 0.0601375 0.0402625)
(-0.0129122 0.0299479 0.0638725)
(0.023316 0.020371 0.00426997)
(0.025848 0.0116635 0.00412785)
(0.0167918 0.00650874 0.000513899)
(0.0137987 0.00517854 0.00205374)
(0.00657945 -0.000134015 0.00325655)
(0.00493695 0.00085056 0.00335784)
(0.00381306 0.000349482 0.00425596)
(0.00318809 0.00188861 0.00435234)
(0.0016299 0.00171532 0.00425666)
(0.000583862 0.00282781 0.00418376)
(8.39738e-05 0.00325683 0.00423065)
(0.000620314 0.00411871 0.00453229)
(0.00113182 0.00417326 0.00485434)
(0.00161629 0.00419454 0.00508477)
(0.0018258 0.00374792 0.00512489)
(0.00203271 0.00329765 0.00510253)
(0.00216387 0.00268695 0.0050429)
(0.00229249 0.00214422 0.0049903)
(0.00238377 0.00160649 0.00494141)
(0.00244023 0.00115432 0.00491496)
(0.00244347 0.000761795 0.0049101)
(0.00240772 0.000448261 0.00493508)
(0.00234316 0.000208209 0.00498139)
(0.00225645 4.06829e-05 0.00503373)
(0.00214635 -7.53439e-05 0.00508992)
(0.00202535 -0.000156487 0.00514848)
(0.00190892 -0.000221739 0.00520865)
(0.0018012 -0.000279422 0.00527694)
(0.00170547 -0.000339112 0.00535051)
(0.00160751 -0.000419562 0.00542664)
(0.00151513 -0.000526117 0.00549803)
(0.00144903 -0.000658647 0.00555897)
(0.00142266 -0.000809331 0.00560141)
(0.00146182 -0.000962564 0.00562105)
(0.00158766 -0.00110737 0.00562408)
(0.00179415 -0.00125479 0.00562588)
(0.00202768 -0.0014171 0.00563048)
(0.00218446 -0.00154699 0.00562912)
(0.00221112 -0.00153176 0.00559794)
(0.00222859 -0.00133701 0.00546236)
(0.00274427 -0.00129966 0.00520474)
(0.00420918 -0.00245548 0.00494712)
(0.00572295 -0.0049679 0.00530814)
(0.00650816 -0.00841228 0.00592438)
(0.00631623 -0.0138263 0.00608275)
(0.00691559 -0.0212638 0.00486671)
(0.00759162 -0.0267901 0.00217489)
(0.00711279 -0.0266694 -0.00232407)
(0.00452486 -0.0166716 -0.0045739)
(-0.00149544 -0.0036446 -0.00244804)
(0.0221333 0.0127678 0.0120332)
(0.0300948 -0.0315566 0.0206548)
(0.0351137 -0.0312182 0.01416)
(0.0565329 -0.0616243 0.00162114)
(0.0945439 -0.0246137 -0.00278119)
(0.143368 -0.100098 0.00036777)
(0.0810364 -0.00694406 -0.00342156)
(0.080343 -0.167505 0.0491646)
(-0.0381228 0.0274447 -0.0435219)
(0.0696376 0.066178 -0.00578547)
(0.156577 0.339867 0.116722)
(0.0791511 0.432245 0.0395161)
(0.0751484 -0.0904988 0.0197916)
(0.0701953 -0.0456075 0.0139211)
(0.0417291 -0.0558214 0.0125025)
(0.0137754 -0.0274121 0.00537669)
(-0.0195414 0.0144847 0.00526368)
(-0.0208637 0.0749401 0.0395006)
(-0.00978453 0.089971 0.0523313)
(-0.000840414 0.099967 0.0312639)
(-0.00486157 0.0989269 0.0140674)
(-0.00561231 0.0967163 0.0100979)
(-0.00340486 0.0962837 0.011148)
(-0.00166212 0.096493 0.0139655)
(-0.000987942 0.0943351 0.00983319)
(-0.00611251 0.0933159 0.000473599)
(-0.00145985 0.0928683 -0.00868616)
(0.00913273 0.0900889 -0.0142937)
(0.0152786 0.0784411 -0.0113733)
(0.024393 0.0610845 -0.00652809)
(0.0412766 0.0498078 0.000783167)
(0.0439953 0.0297784 0.00249818)
(0.0481758 0.0144476 -0.000429189)
(0.0488222 -0.00256758 0.000912657)
(0.0463395 -0.0162407 0.00846991)
(0.0408193 -0.0330846 0.0110915)
(0.0303763 -0.0446367 0.00834472)
(0.0166676 -0.0559012 0.0110104)
(0.00875102 -0.0621838 0.00906773)
(-0.00568249 -0.0671731 0.0106383)
(-0.015668 -0.0644049 0.00845442)
(-0.0273577 -0.0499756 0.00921519)
(-0.0265438 -0.0221421 -0.0119452)
(-0.025569 0.0332733 0.00533098)
(-0.0318674 0.0526573 0.0335469)
(-0.0258363 0.0222961 0.0664317)
(0.0241218 0.0207899 0.0043618)
(0.0276678 0.015882 0.00455762)
(0.0197677 0.00930856 0.000422544)
(0.0177366 0.00968196 0.000804325)
(0.00905993 0.00277731 0.00141942)
(0.00529682 0.00279189 0.00240086)
(0.00233001 0.000709179 0.00413509)
(0.00173333 0.00250591 0.00442339)
(0.000264441 0.00156543 0.00447048)
(-0.000693705 0.00225087 0.00436112)
(-0.00119946 0.00211735 0.00442663)
(-0.000748812 0.00278664 0.00475369)
(-0.000397915 0.00312196 0.00505312)
(0.000139508 0.00353303 0.00527342)
(0.000432206 0.00342987 0.0053091)
(0.000681039 0.00326082 0.00531861)
(0.000818139 0.00284761 0.00529171)
(0.00092985 0.00245309 0.00527887)
(0.000992828 0.00202254 0.00525713)
(0.00102346 0.00164115 0.00524195)
(0.00100561 0.00127887 0.00523251)
(0.000950419 0.000949664 0.00523695)
(0.000863907 0.000657304 0.00525371)
(0.000755606 0.000412414 0.00527877)
(0.000632347 0.000215089 0.00531199)
(0.000505892 6.51283e-05 0.00534929)
(0.000389889 -4.4316e-05 0.00538769)
(0.000297401 -0.000130575 0.00542766)
(0.000223798 -0.000204059 0.00547434)
(0.000159082 -0.000271418 0.00552994)
(0.00010978 -0.000331691 0.00558363)
(9.21817e-05 -0.000378797 0.00561705)
(0.000110702 -0.000411191 0.00561741)
(0.000180707 -0.000424526 0.00558586)
(0.000324939 -0.000408004 0.00553461)
(0.000554375 -0.000359005 0.00548723)
(0.000819191 -0.000266798 0.00546415)
(0.000991071 -9.54059e-05 0.00546024)
(0.00105911 0.000264967 0.00544567)
(0.00145329 0.000631343 0.00532773)
(0.002893 0.000301096 0.00514792)
(0.00517851 -0.00175356 0.00525112)
(0.006746 -0.00536162 0.00593799)
(0.00735077 -0.00997697 0.00703433)
(0.00748629 -0.0159274 0.00763603)
(0.00838596 -0.0216985 0.00709817)
(0.00849439 -0.0246637 0.00520777)
(0.00719609 -0.0243929 0.00117608)
(0.00345249 -0.0205074 -0.000734392)
(-0.0011528 -0.0103311 -0.00202545)
(0.0139038 -0.0137828 0.0200882)
(0.0310529 -0.0472461 0.0247803)
(0.0328357 -0.0477889 0.0132228)
(0.0550737 -0.0682286 0.00184838)
(0.104154 0.00764757 0.00514067)
(0.15123 -0.0834645 0.012189)
(0.114453 0.0823015 0.0216348)
(0.130801 -0.210562 0.0685357)
(-0.0954209 0.13995 -0.0327222)
(0.0727706 -0.0239143 0.0321619)
(0.156414 0.432666 0.0959242)
(0.0697782 0.585781 0.00973495)
(0.0453884 0.345639 -0.000233453)
(0.0398547 0.369608 -0.03112)
(-0.0103994 0.329882 0.00528315)
(-0.0319028 0.476614 0.0276028)
(-0.0476005 0.132929 0.0291289)
(-0.0470378 0.145956 0.0288952)
(-0.0310133 0.520607 0.0133876)
(-0.024729 0.613654 0.00604913)
(-0.0189954 0.475478 0.00447981)
(-0.0141603 0.143785 0.00817062)
(-0.00922886 0.138711 0.00971946)
(-0.00400418 0.498204 0.000153686)
(-0.00144262 0.536973 -0.00757825)
(0.00149975 0.137733 -0.0191332)
(0.0131735 0.11157 -0.0249537)
(0.0252391 0.112432 -0.0213821)
(0.0317142 0.101622 -0.0114613)
(0.0346397 0.10968 -0.00539781)
(0.0407147 0.190027 -0.0052729)
(0.0446763 0.0750632 -0.0112757)
(0.0487291 0.034871 -0.0124415)
(0.045914 0.0141361 -0.00752678)
(0.0394177 -0.00289699 -0.00198822)
(0.0320439 -0.024041 0.002803)
(0.0175958 -0.0396625 -0.0013625)
(0.00764889 -0.0491501 0.00739891)
(-0.00552992 -0.0651928 0.00625827)
(-0.0170045 -0.0658464 0.00617137)
(-0.033486 -0.0668552 0.00779934)
(-0.0501816 -0.0568634 0.00636435)
(-0.0545168 -0.029355 -0.0114643)
(-0.043439 0.0244591 0.000108875)
(-0.0536322 0.0448314 0.0441394)
(-0.0508255 0.0183017 0.0788398)
(0.024053 0.0211589 0.00413386)
(0.0287343 0.01971 0.00484542)
(0.0217651 0.0119084 0.00078692)
(0.0221321 0.0130187 0.000442572)
(0.0135997 0.00569 -0.00103396)
(0.00808989 0.00518344 -0.000203478)
(0.00180684 0.000491161 0.00282128)
(0.000251506 0.00269167 0.00353455)
(-0.0011521 0.00129766 0.00378094)
(-0.00206322 0.00181117 0.00398148)
(-0.00287524 0.00121125 0.00414816)
(-0.00287094 0.00175155 0.00456076)
(-0.00280865 0.00220784 0.00482198)
(-0.00223786 0.0029066 0.00506351)
(-0.00187147 0.003035 0.00508846)
(-0.00159475 0.00301995 0.00513104)
(-0.00145727 0.00272379 0.00515406)
(-0.0014144 0.00243805 0.00518884)
(-0.00142802 0.00210575 0.00519243)
(-0.00146172 0.00180272 0.00517704)
(-0.00151315 0.0014919 0.00514369)
(-0.00158022 0.00118101 0.00510803)
(-0.0016594 0.000878981 0.00507977)
(-0.00175244 0.000604903 0.00506004)
(-0.00186281 0.000366794 0.00504605)
(-0.00197953 0.000170205 0.00503681)
(-0.00207177 1.70428e-05 0.0050366)
(-0.00213392 -0.000103266 0.0050453)
(-0.00217978 -0.00018977 0.00505919)
(-0.00222428 -0.000235015 0.00507338)
(-0.0022652 -0.000234281 0.00508215)
(-0.0022754 -0.000185833 0.00507335)
(-0.00223855 -9.41007e-05 0.00504122)
(-0.00213918 3.89298e-05 0.00497695)
(-0.00196199 0.000226454 0.00489267)
(-0.00172186 0.000499062 0.00482322)
(-0.00151456 0.000887786 0.00479101)
(-0.00148023 0.00136657 0.00478982)
(-0.00146829 0.00189679 0.00478144)
(-0.000700066 0.00215911 0.00470436)
(0.00157151 0.0013343 0.00470687)
(0.00444924 -0.00086603 0.0051997)
(0.00615737 -0.00438374 0.00611268)
(0.00663346 -0.00903429 0.00744184)
(0.00670126 -0.0134686 0.00906043)
(0.00682197 -0.0165874 0.00926464)
(0.005809 -0.0166633 0.00717832)
(0.0056483 -0.0151889 0.00257705)
(0.00267331 -0.0167386 0.000177655)
(0.0102146 -0.0176798 -0.00226351)
(0.0217901 -0.0344722 0.0155491)
(0.0218478 -0.0565728 0.0224137)
(0.0226753 -0.0590463 0.0147136)
(0.0399493 -0.0629229 0.00749246)
(0.105438 0.0187812 0.00434336)
(0.138955 -0.0456037 0.0218628)
(0.162491 0.0675614 0.0519087)
(0.175287 -0.189451 0.0885402)
(-0.0462735 0.210675 0.0107948)
(0.0428949 -0.0455325 0.0259301)
(0.141703 0.464926 0.115334)
(0.070541 0.611336 0.0192896)
(0.041866 0.503567 0.027288)
(-0.00321421 0.632366 -0.00446277)
(-0.0147908 0.624045 0.00889621)
(-0.0285422 0.659727 0.0166799)
(-0.0339667 0.658466 0.0167051)
(-0.0329115 0.654298 0.0123581)
(-0.0222117 0.661104 0.0023579)
(-0.0115611 0.671269 -0.000532777)
(-0.0045702 0.673302 -0.000694698)
(0.00758896 0.672636 0.000240697)
(0.0136921 0.673599 7.07541e-05)
(0.0167122 0.676204 -0.00456801)
(0.0225466 0.6783 -0.0104401)
(0.0273354 0.67598 -0.0123682)
(0.0322203 0.668636 -0.0106379)
(0.0326828 0.657029 -0.0126584)
(0.0360269 0.643173 -0.0141551)
(0.0374919 0.61912 -0.016899)
(0.0436447 0.590829 -0.0240514)
(0.0514536 0.540417 -0.0290119)
(0.0564238 0.386652 -0.026711)
(0.0547501 0.0735203 -0.0281007)
(0.0460947 0.13202 -0.0226161)
(0.0398597 0.0150598 -0.0186258)
(0.0246072 -0.0322694 -0.0176287)
(0.00950752 -0.0435128 -0.010637)
(-0.00264351 -0.0610032 -0.00169435)
(-0.0248543 -0.0714295 -0.00454729)
(-0.0410553 -0.0641075 0.00352884)
(-0.0624065 -0.0612189 0.00545455)
(-0.0770181 -0.0414282 -0.00854091)
(-0.0727698 -0.00239075 -0.0126363)
(-0.0605965 0.0361493 0.0352174)
(-0.0784546 0.00797528 0.0730682)
(0.023063 0.0208454 0.00378002)
(0.0298445 0.0240638 0.00596449)
(0.022878 0.0145519 0.00219602)
(0.0244618 0.0154876 0.00206345)
(0.0189019 0.00672719 -0.00114121)
(0.0135404 0.00671555 -0.00182624)
(0.00264792 -0.000299644 0.000494025)
(-0.000912301 0.00248207 0.0017866)
(-0.00187538 0.000676022 0.00250424)
(-0.00289018 0.00145802 0.00312937)
(-0.00372388 0.000503204 0.00335461)
(-0.00394249 0.00105114 0.00388702)
(-0.00403622 0.00154636 0.00413052)
(-0.00330414 0.00247361 0.0045136)
(-0.00267526 0.00264595 0.00470637)
(-0.00225685 0.00263091 0.00492047)
(-0.00209082 0.00234299 0.005077)
(-0.00211472 0.00211049 0.00519276)
(-0.00219838 0.00188216 0.00522763)
(-0.00228945 0.00170389 0.00520309)
(-0.00237943 0.00152082 0.00512403)
(-0.00247692 0.00132248 0.00501256)
(-0.00259384 0.0011105 0.00489233)
(-0.0027145 0.000901511 0.00477461)
(-0.00282269 0.000707127 0.00466684)
(-0.00291243 0.000547449 0.00456819)
(-0.00297599 0.000418834 0.00447455)
(-0.00301371 0.00030982 0.0043939)
(-0.0030467 0.000227573 0.00433122)
(-0.00308367 0.000187271 0.00428642)
(-0.00311521 0.000209549 0.00425473)
(-0.0031129 0.00030518 0.0042181)
(-0.00307473 0.000474609 0.00415206)
(-0.00301248 0.000717396 0.00404238)
(-0.0029365 0.00103524 0.00389585)
(-0.00287075 0.00144075 0.00374397)
(-0.00281671 0.00191487 0.00364417)
(-0.00273546 0.00232304 0.0036715)
(-0.00239576 0.00247891 0.00386464)
(-0.000932825 0.00214358 0.00433658)
(0.00194738 0.00109799 0.00522951)
(0.00482752 -0.000621718 0.00640942)
(0.00654275 -0.0032873 0.00749943)
(0.00661211 -0.00686541 0.00860092)
(0.00548237 -0.00987936 0.0102579)
(0.00422245 -0.0115658 0.0104791)
(0.0027665 -0.0116483 0.00735116)
(0.00523098 -0.0141726 0.00409663)
(0.00726728 -0.0205166 -0.00275809)
(0.0217388 -0.0323933 0.00151878)
(0.0282598 -0.0525586 0.0239051)
(0.0151029 -0.0692535 0.0236652)
(0.0106992 -0.067621 0.0154453)
(0.0264638 -0.0573796 0.00372641)
(0.0930857 0.0235893 -0.0120365)
(0.149257 -0.0154511 0.0172115)
(0.172434 0.087757 0.0295891)
(0.139534 -0.0782326 0.0377907)
(-0.0426884 0.297517 0.000604159)
(0.0382266 -0.0720897 0.0436593)
(0.110161 0.488355 0.127687)
(0.0525425 0.61015 0.0194584)
(0.0155071 0.540729 0.0299148)
(-0.0279221 0.632491 0.000721029)
(-0.0256612 0.631046 0.00812622)
(-0.0327557 0.66437 0.00719819)
(-0.0364985 0.669465 8.06742e-05)
(-0.0298472 0.680803 -0.0055523)
(-0.0227494 0.682835 -0.00698723)
(-0.0100994 0.690536 -0.00770983)
(0.00658166 0.695697 -0.00395243)
(0.0188682 0.698809 0.00658744)
(0.0253256 0.702921 0.0102983)
(0.0355416 0.703095 0.00987142)
(0.0433562 0.70325 0.0121104)
(0.0491696 0.698388 0.0169799)
(0.0543757 0.685396 0.0218729)
(0.0547811 0.672081 0.019063)
(0.0585366 0.654688 0.0102824)
(0.0616579 0.636883 0.00284393)
(0.0677183 0.618951 -0.00585802)
(0.0711832 0.604826 -0.00841416)
(0.0721468 0.595041 -0.0091417)
(0.0642922 0.575814 -0.0100862)
(0.0519554 0.544135 -0.00806893)
(0.0324521 0.488341 -0.0149298)
(0.0140567 0.328115 -0.0160763)
(0.0136243 -0.0217802 -0.0208876)
(-0.00497255 -0.0592679 -0.0105594)
(-0.0317244 -0.0741386 -0.0107241)
(-0.0525848 -0.0657834 0.00185546)
(-0.0699867 -0.0564321 0.0118496)
(-0.0823557 -0.0468198 -0.00158002)
(-0.0817589 -0.0096564 -0.0177095)
(-0.0865435 0.0339069 0.0339649)
(-0.0980886 0.0138589 0.0699102)
(0.0209226 0.0194875 0.0040983)
(0.0305994 0.0284993 0.0082569)
(0.0231406 0.0174377 0.00471493)
(0.024664 0.0181737 0.00481751)
(0.0214268 0.00673587 0.00137001)
(0.0181288 0.00671201 7.69693e-05)
(0.00472078 -0.00173605 -0.00116125)
(-0.00138983 0.00218794 0.000249958)
(-0.00315748 2.98038e-05 0.00135821)
(-0.00410946 0.00127712 0.00230295)
(-0.00519878 0.000253172 0.0024073)
(-0.00608815 0.000880391 0.00311581)
(-0.0065927 0.00110577 0.00348508)
(-0.00576125 0.00189577 0.00425823)
(-0.00492466 0.00187093 0.00485109)
(-0.00451593 0.00186793 0.00533652)
(-0.00449568 0.00162824 0.00563687)
(-0.00473679 0.0015253 0.00580339)
(-0.00501191 0.00146558 0.00583477)
(-0.00522715 0.00147513 0.00577798)
(-0.00536624 0.0014903 0.00563712)
(-0.00545475 0.00149297 0.00544144)
(-0.00551932 0.00147056 0.00522598)
(-0.0055721 0.00142187 0.00501394)
(-0.00563349 0.00136417 0.0048304)
(-0.00569338 0.00132207 0.00468158)
(-0.0056745 0.00128204 0.00455104)
(-0.00561356 0.00122197 0.00446245)
(-0.00555515 0.00115395 0.00441775)
(-0.00552746 0.00110595 0.00441318)
(-0.00553839 0.00112339 0.00443086)
(-0.00555682 0.0012226 0.00441371)
(-0.00556639 0.00140608 0.00435023)
(-0.00554293 0.00165081 0.00423643)
(-0.00548069 0.00192745 0.00407664)
(-0.00537677 0.00219701 0.00390305)
(-0.00522728 0.00239685 0.00373446)
(-0.00498507 0.0023907 0.00363931)
(-0.00439545 0.00209994 0.00383742)
(-0.00286751 0.00135237 0.00463546)
(-0.000350814 0.000437766 0.00607783)
(0.00200406 -0.000779714 0.00794446)
(0.00335213 -0.0023555 0.00909742)
(0.00323049 -0.00481944 0.00937689)
(0.00207719 -0.00690222 0.00997078)
(0.00138301 -0.0091855 0.00978042)
(0.00290202 -0.00973774 0.00664801)
(0.00973169 -0.0165844 0.00411479)
(0.021544 -0.0221824 -0.00232553)
(0.0310616 -0.0403555 0.0115356)
(0.0233404 -0.0554493 0.0419682)
(0.0177996 -0.0773264 0.0356517)
(0.00134634 -0.086406 0.0048714)
(-0.00479713 -0.0660988 -0.00939617)
(0.0752144 0.0216807 -0.0151782)
(0.146888 -0.00477238 0.0199794)
(0.166492 0.095324 -0.0113122)
(0.163952 -0.0226979 0.00262308)
(0.140336 0.320122 0.0434733)
(0.0183546 -0.0673522 0.0511445)
(0.0605248 0.504624 0.120786)
(0.0283764 0.628978 0.0134)
(0.00389597 0.559269 0.0295516)
(-0.0440603 0.645226 -0.00329392)
(-0.0480978 0.657225 -0.00476272)
(-0.046702 0.703553 -0.0128861)
(-0.0298584 0.712178 -0.014842)
(-0.0210244 0.722939 -0.00741635)
(-0.00767706 0.715695 -0.00220139)
(0.00389954 0.716452 0.00524295)
(0.0141835 0.710258 0.0166909)
(0.0239399 0.709164 0.0181665)
(0.0357177 0.710044 0.0181516)
(0.0435548 0.704782 0.0180435)
(0.0519699 0.704747 0.020277)
(0.0626111 0.700121 0.0272202)
(0.0670822 0.691721 0.0339181)
(0.0722628 0.681163 0.0373332)
(0.0776247 0.669891 0.0287698)
(0.0818612 0.658975 0.0239735)
(0.0856236 0.645679 0.0151477)
(0.086084 0.632625 0.00765151)
(0.082465 0.615496 -0.00727356)
(0.0757492 0.598491 -0.012402)
(0.0595222 0.565884 -0.0187594)
(0.0406841 0.54129 -0.0321884)
(0.0177153 0.518151 -0.0285448)
(-0.00662005 0.462857 -0.0214961)
(-0.0392178 0.296369 -0.0196956)
(-0.046071 -0.0435525 -0.0295071)
(-0.0784963 -0.0546767 -0.0182522)
(-0.0912756 -0.0500881 0.00695754)
(-0.104635 -0.0450706 0.00306083)
(-0.108669 -0.0248528 -0.017021)
(-0.0957597 0.0164594 0.0128786)
(-0.122247 -0.000674218 0.0589891)
(0.020756 0.014317 0.00392658)
(0.0300621 0.0310862 0.00992429)
(0.022597 0.0198039 0.00557396)
(0.0247863 0.0223643 0.00581988)
(0.0226514 0.0085745 0.00245801)
(0.019901 0.00694741 0.00225475)
(0.00603641 -0.00312905 -0.00246632)
(-0.00306464 0.00154248 -0.00100844)
(-0.00348168 -0.00132353 0.00169072)
(-0.00480625 0.0013311 0.00261047)
(-0.00538791 0.000203773 0.00269774)
(-0.00599419 0.00102367 0.00352861)
(-0.00621949 0.000540884 0.00423303)
(-0.00519745 0.000801985 0.00537538)
(-0.0044125 0.000567233 0.00622707)
(-0.00404322 0.000722828 0.00703987)
(-0.00410905 0.000769006 0.00754183)
(-0.00440763 0.000993642 0.00781611)
(-0.00469087 0.00120405 0.00790098)
(-0.00488853 0.00146969 0.00786442)
(-0.00501824 0.00172256 0.0077163)
(-0.00510754 0.00192031 0.00748791)
(-0.00517173 0.00205083 0.00722712)
(-0.00521577 0.00212668 0.0069646)
(-0.00525644 0.00215273 0.00672028)
(-0.00527576 0.00213839 0.00650663)
(-0.00523777 0.0021046 0.00634692)
(-0.00514856 0.00205496 0.00623923)
(-0.00507439 0.00198868 0.00617491)
(-0.00505456 0.00193601 0.00614704)
(-0.00510789 0.00195529 0.00613357)
(-0.00515898 0.00206876 0.00610972)
(-0.0051885 0.00223965 0.0060353)
(-0.00519604 0.00243637 0.00589462)
(-0.00517288 0.00259979 0.00567694)
(-0.00510524 0.00267504 0.00539327)
(-0.00493179 0.00262237 0.00509388)
(-0.00454573 0.00230908 0.00489739)
(-0.00368421 0.00165482 0.00502395)
(-0.00197684 0.000709653 0.00585362)
(0.000524187 -0.000369005 0.00754283)
(0.00270334 -0.000874203 0.00974737)
(0.00412858 -0.0010591 0.0109568)
(0.00395383 -0.0020652 0.0108137)
(0.00233933 -0.00317868 0.0102997)
(0.00166039 -0.00498748 0.0095831)
(0.00544498 -0.00507266 0.00712386)
(0.0158764 -0.0119067 0.00667852)
(0.027527 -0.0153846 -0.00101098)
(0.0253889 -0.0191718 0.0184056)
(0.00714571 -0.043084 0.0615146)
(0.0130854 -0.0626937 0.063584)
(0.00577827 -0.0869609 0.0356745)
(-0.0207668 -0.0887386 -0.0194137)
(0.0236932 -0.0228949 -0.0329381)
(0.135298 -0.00892037 0.0157339)
(0.148826 0.120994 -0.00697579)
(0.125527 -0.0126194 -0.0195727)
(0.111453 0.379199 0.0101424)
(0.00520659 -0.083921 0.0461366)
(0.00188574 0.554925 0.0935719)
(-0.000661749 0.668873 -0.011419)
(-0.0279278 0.620939 0.00244256)
(-0.0579388 0.69458 -0.018568)
(-0.0499167 0.707933 -0.0183501)
(-0.0355288 0.729377 -0.0157644)
(-0.0163535 0.718127 -0.00834459)
(-0.00392924 0.724469 -0.000575157)
(0.00499125 0.717817 0.00442604)
(0.0111431 0.717346 0.0118639)
(0.0192814 0.714617 0.0188474)
(0.026289 0.709768 0.0229568)
(0.0357552 0.701928 0.0294583)
(0.0395799 0.691852 0.0306202)
(0.050548 0.683453 0.031123)
(0.0642007 0.672769 0.0343338)
(0.0767993 0.66813 0.0369694)
(0.0848425 0.666402 0.0370393)
(0.0885541 0.663188 0.0308195)
(0.0949243 0.665156 0.0253398)
(0.102124 0.658373 0.0190028)
(0.110019 0.654085 0.0190656)
(0.114299 0.643037 0.0165817)
(0.108379 0.624076 0.00838019)
(0.092576 0.607059 -0.0020752)
(0.0674034 0.585221 -0.0148431)
(0.0421898 0.572389 -0.0158491)
(0.0137393 0.542709 -0.0116079)
(-0.0239801 0.50885 -0.017909)
(-0.0657851 0.471194 -0.016086)
(-0.0991206 0.467921 -0.00823037)
(-0.107692 0.475182 0.00890156)
(-0.114604 0.470385 0.0103742)
(-0.119935 0.491998 0.000653752)
(-0.120063 0.50719 0.0155395)
(-0.145072 0.437477 0.0455397)
(0.0140887 0.00789242 0.000443901)
(0.0268531 0.0315688 0.00953015)
(0.0205752 0.02224 0.00339111)
(0.0243022 0.0278337 0.00354024)
(0.0237406 0.0129162 0.00174406)
(0.0215715 0.00946911 0.00223309)
(0.00806849 -0.00321098 -0.00530008)
(-0.00241172 0.00128814 -0.00547646)
(-0.00621832 -0.00131949 -0.00201533)
(-0.00769872 0.00166282 -0.000315451)
(-0.00782182 0.000238178 -0.000216948)
(-0.00824836 0.000853714 0.000607554)
(-0.00844853 -0.000171955 0.00135948)
(-0.00802016 -0.000110495 0.00239454)
(-0.00784563 -0.000292458 0.00318077)
(-0.00796366 8.77221e-05 0.00394863)
(-0.00830009 0.000368094 0.00457845)
(-0.00872015 0.000792645 0.00503008)
(-0.00910361 0.00113702 0.00529322)
(-0.00939827 0.00150141 0.00541176)
(-0.00949442 0.00182726 0.00539519)
(-0.00943872 0.00209632 0.00528794)
(-0.00933991 0.0023058 0.00513513)
(-0.00920821 0.00244688 0.00497416)
(-0.00906808 0.00252382 0.00481764)
(-0.00891114 0.00254717 0.0046732)
(-0.00871852 0.00254104 0.00455658)
(-0.00850319 0.00252748 0.00447909)
(-0.00831663 0.00251127 0.00443504)
(-0.00823099 0.00250728 0.00442012)
(-0.00827668 0.0025607 0.00441819)
(-0.00831925 0.00267763 0.00439419)
(-0.00832179 0.0028418 0.00432551)
(-0.00823912 0.00302064 0.00419238)
(-0.00804281 0.00314533 0.00398442)
(-0.00774643 0.00315931 0.00371373)
(-0.00727631 0.00301934 0.00341725)
(-0.00651959 0.00258974 0.00323178)
(-0.00545145 0.00176541 0.0032759)
(-0.00393637 0.000807139 0.00384527)
(-0.00237637 0.000164249 0.00522884)
(-0.0014069 0.000470884 0.00714602)
(-0.000471221 0.00105086 0.00794759)
(-0.000249978 0.000976416 0.00740668)
(-0.00074226 0.000340106 0.00669111)
(-0.000927081 -0.000630619 0.00647128)
(0.0040418 -0.00217553 0.0057081)
(0.0136176 -0.00490991 0.00599499)
(0.0240049 -0.00801147 0.000640299)
(0.0288103 0.00751433 0.00867316)
(-0.00140371 -0.0282325 0.0485941)
(-0.00234829 -0.0517135 0.075941)
(-0.0013863 -0.0784415 0.0707729)
(-0.0187169 -0.108951 0.0208517)
(-0.0101032 -0.0785069 -0.0159841)
(0.0760454 -0.0245734 0.0247601)
(0.150255 0.131231 0.0397864)
(0.0970123 -0.0392555 -0.0135297)
(0.132672 0.285777 -0.0451349)
(-0.00430818 -0.0709704 0.0465882)
(-0.0549749 0.519109 0.0971978)
(-0.037578 0.659397 -0.018438)
(-0.0537623 0.610353 -0.0141553)
(-0.0589626 0.671601 -0.0191058)
(-0.044586 0.660418 -0.0122351)
(-0.017093 0.665769 -0.0078505)
(-0.00521693 0.641741 -0.00487328)
(0.00748146 0.639177 -0.00346755)
(0.0155274 0.649261 0.000469641)
(0.0224463 0.663654 0.00307017)
(0.0324819 0.681278 0.00808074)
(0.0369647 0.689559 0.0131135)
(0.0434813 0.687413 0.02459)
(0.0487265 0.676295 0.0299178)
(0.0538746 0.659369 0.0282316)
(0.0596316 0.646075 0.0286889)
(0.0713107 0.631941 0.031399)