/*--------------------------------*- C++ -*----------------------------------*\
| =========                 |                                                 |
| \\      /  F ield         | OpenFOAM: The Open Source CFD Toolbox           |
|  \\    /   O peration     | Version:  2.3.0                                 |
|   \\  /    A nd           | Web:      www.OpenFOAM.org                      |
|    \\/     M anipulation  |                                                 |
\*---------------------------------------------------------------------------*/
FoamFile
{
    version     2.0;
    format      ascii;
    class       volVectorField;
    location    "58";
    object      U.waterMean;
}
// * * * * * * * * * * * * * * * * * * * * * * * * * * * * * * * * * * * * * //

dimensions      [0 1 -1 0 0 0 0];

internalField   nonuniform List<vector> 
6144
(
(0.0099595 0.0197496 -0.000576251)
(0.0102508 -0.00125989 -0.00156111)
(0.00456189 -0.0027985 -0.00255278)
(0.00409012 -0.00332735 -0.00243654)
(0.00255667 -0.00304287 -0.0019218)
(0.00299734 -0.00124147 -0.00165988)
(0.0027326 -0.00139614 -0.00131163)
(0.00268409 -0.000401289 -0.00104157)
(0.00230794 -0.000322153 -0.000895157)
(0.00203141 0.00089454 -0.000547178)
(0.00180395 0.00180788 -0.000212294)
(0.00185085 0.00260362 0.00024551)
(0.00197566 0.0026293 0.000470116)
(0.00211037 0.00224051 0.000719799)
(0.00217574 0.00154871 0.000669297)
(0.00225298 0.000918414 0.000570721)
(0.00230225 0.00029134 0.000365752)
(0.00235548 -0.000169317 0.00018149)
(0.00239891 -0.000544827 -1.30338e-05)
(0.002432 -0.000769673 -0.000168351)
(0.00245206 -0.000905028 -0.000294526)
(0.00246496 -0.000937788 -0.000381725)
(0.00246515 -0.000922373 -0.000421524)
(0.0024537 -0.000870466 -0.000418367)
(0.00243102 -0.000805833 -0.000379813)
(0.00240016 -0.00073752 -0.00031164)
(0.00236551 -0.000677438 -0.000224749)
(0.00233041 -0.000636282 -0.000131296)
(0.00229358 -0.00061453 -3.56666e-05)
(0.00225472 -0.000618299 5.57078e-05)
(0.0022151 -0.000619139 0.000145596)
(0.00217093 -0.000662751 0.000241018)
(0.00212661 -0.000671676 0.000348684)
(0.00207556 -0.000792672 0.000475827)
(0.00203078 -0.000841363 0.000627336)
(0.00198297 -0.00114729 0.000793314)
(0.0019532 -0.00130944 0.000951854)
(0.00192494 -0.00188156 0.00105599)
(0.00192335 -0.00207754 0.00105852)
(0.00192654 -0.00272761 0.000891494)
(0.00194334 -0.00254294 0.000520829)
(0.00196909 -0.00267592 -5.90744e-05)
(0.00207059 -0.00142576 -0.000638405)
(0.00244595 -0.000946935 -0.001068)
(0.00311858 0.000249436 -0.0014787)
(0.00386905 -0.000393172 -0.00203979)
(0.00430254 0.000315154 -0.00276265)
(0.00369636 0.000472387 -0.00386837)
(0.00296905 0.00601012 -0.00559587)
(0.00611262 0.010186 -0.00754447)
(0.0177331 0.011151 -0.0100479)
(0.0266315 -0.00963453 -0.0102899)
(0.0307766 -0.0215044 -0.0107288)
(0.0288297 -0.0580526 -0.0097395)
(0.024155 -0.0536425 -0.0103215)
(0.0199898 -0.0932462 -0.00677355)
(0.0017791 -0.0457 -0.0123751)
(0.00486183 -0.0988705 0.0239889)
(-0.0360795 -0.00694772 -0.0454099)
(0.0239316 -0.0315384 0.0380088)
(0.1355 -0.29411 0.0622212)
(0.092288 -0.120362 0.0275755)
(0.0604635 -0.188453 0.00730117)
(0.0510597 -0.200327 0.00430057)
(0.0428348 -0.200587 0.0048938)
(0.03564 -0.193921 0.00488869)
(0.0294739 -0.193334 0.00421125)
(0.0248329 -0.187717 0.00386222)
(0.0216469 -0.18456 0.003986)
(0.0189451 -0.177573 0.00430447)
(0.0164511 -0.172422 0.0046793)
(0.0139112 -0.163998 0.00514666)
(0.0116328 -0.155803 0.00568848)
(0.00888897 -0.146185 0.00617192)
(0.00558914 -0.135731 0.00626366)
(0.00310186 -0.122655 0.00492845)
(0.00208443 -0.109267 0.00260817)
(0.00115263 -0.0961207 0.00132894)
(0.000540406 -0.083162 0.00136367)
(0.00209561 -0.0711386 0.00196915)
(0.00389321 -0.0616264 0.00253091)
(0.00446388 -0.0542378 0.0032636)
(0.00445898 -0.0493937 0.00415202)
(0.00329363 -0.0457049 0.00432979)
(0.00263339 -0.0413109 0.00385373)
(0.00278399 -0.0359952 0.00320732)
(0.00313636 -0.0305128 0.00299138)
(0.00301095 -0.0245971 0.00231087)
(0.00225855 -0.018735 0.00137366)
(0.000947002 -0.0107918 0.000773992)
(0.00100537 -0.00292683 0.00139151)
(0.00143317 0.00404492 0.00237361)
(0.00116769 0.00974586 0.00341576)
(0.0006582 0.0142947 0.00634687)
(0.00140577 0.0162075 0.0106466)
(0.00440084 0.00884523 0.0171659)
(0.0193485 0.0207656 0.00302414)
(0.0205954 0.00679804 0.00243463)
(0.010572 0.0032493 -0.000711429)
(0.00996085 0.00197395 8.24966e-05)
(0.00565597 -0.00103036 0.00100307)
(0.0057246 1.07706e-06 0.00151813)
(0.00456406 -0.000901987 0.00209431)
(0.00434774 0.000499369 0.00216689)
(0.0035916 0.000684508 0.00216476)
(0.00314608 0.00224144 0.00222537)
(0.00294302 0.00305784 0.00239564)
(0.00327723 0.00374108 0.00289224)
(0.00364509 0.00357503 0.00316338)
(0.00404062 0.00317695 0.00336585)
(0.00417873 0.00240585 0.0033616)
(0.00432152 0.0017214 0.00333308)
(0.00436119 0.000994667 0.00324689)
(0.00441736 0.000453202 0.00317905)
(0.00444829 -1.72366e-05 0.00309949)
(0.00446758 -0.00032701 0.00304821)
(0.00446619 -0.000542383 0.00300828)
(0.00445936 -0.000639288 0.00297782)
(0.00443297 -0.00067876 0.00297909)
(0.00438747 -0.00066834 0.00301291)
(0.00432346 -0.00063479 0.00307184)
(0.00424753 -0.000586487 0.00314942)
(0.00416964 -0.000537194 0.00323032)
(0.00409805 -0.000499659 0.00330211)
(0.0040269 -0.000479003 0.00337455)
(0.00395325 -0.000483441 0.00344187)
(0.00388037 -0.000489881 0.00350731)
(0.00380125 -0.000549761 0.00357504)
(0.00373115 -0.000579641 0.0036476)
(0.0036575 -0.000740268 0.00372548)
(0.00361843 -0.000811792 0.00381257)
(0.00358347 -0.0011566 0.00390054)
(0.00360186 -0.00129173 0.00398524)
(0.00360223 -0.00186491 0.00404307)
(0.00363405 -0.00195807 0.00405606)
(0.0036022 -0.0025893 0.00395855)
(0.00355047 -0.00225867 0.00369014)
(0.00349428 -0.00252814 0.00320184)
(0.00365812 -0.00145744 0.00257493)
(0.0042665 -0.00161559 0.00204014)
(0.00541991 -0.00040672 0.00148386)
(0.00647273 -0.000596995 0.000679797)
(0.00631746 0.00176674 -0.000499513)
(0.00530139 0.0034213 -0.00198909)
(0.0065585 0.00821089 -0.00348527)
(0.0157465 0.00589114 -0.00439801)
(0.0376544 -0.000141673 -0.00572159)
(0.0517761 -0.0174213 -0.00559159)
(0.0585256 -0.0225832 -0.00357288)
(0.0538419 -0.0512562 -0.000849074)
(0.0415346 -0.0410192 0.00421521)
(0.039347 -0.0972829 0.0115072)
(-0.000876218 -0.0464334 0.0113433)
(-0.00152015 -0.160319 0.0441478)
(-0.0924984 0.0243511 -0.072756)
(0.00550084 -0.0837314 0.0119862)
(0.174004 -0.261975 0.101653)
(0.0874318 0.00465072 0.0436302)
(0.0267412 -0.114784 0.00949112)
(0.0266421 -0.0587232 0.0157108)
(0.0138291 -0.0742612 0.0168272)
(0.00607135 -0.0633165 0.0148395)
(0.00261177 -0.0634778 0.0122638)
(0.00182135 -0.0565833 0.0116861)
(0.00249078 -0.0538784 0.0113757)
(0.00174397 -0.0478005 0.0102512)
(-0.000360591 -0.046744 0.0110278)
(-0.00222884 -0.0457443 0.012258)
(-0.0030343 -0.0475237 0.0129257)
(-0.00496986 -0.0489161 0.0124518)
(-0.00780461 -0.0501436 0.0110859)
(-0.00894249 -0.04832 0.00946871)
(-0.00849905 -0.0463083 0.00794352)
(-0.008375 -0.0436229 0.0070999)
(-0.00783261 -0.0406023 0.00679607)
(-0.00587811 -0.037921 0.00717566)
(-0.00385958 -0.0348043 0.00735595)
(-0.00242356 -0.0319398 0.00780903)
(-0.00144288 -0.0313316 0.00861653)
(-0.00152792 -0.0322353 0.00854859)
(-0.00191208 -0.0324789 0.00733889)
(-0.0016174 -0.0317656 0.00620923)
(-0.00139592 -0.0291562 0.00484344)
(-0.00183266 -0.0250656 0.00348815)
(-0.00268818 -0.0204687 0.002335)
(-0.00372288 -0.0148248 0.00155281)
(-0.0038524 -0.00903003 0.00236176)
(-0.00319513 -0.00352637 0.00328897)
(-0.0040791 0.00309843 0.00469037)
(-0.00496677 0.00683609 0.00883261)
(-0.00464642 0.0097619 0.0146105)
(-0.00168228 0.00346869 0.0220728)
(0.0226289 0.020722 0.00414)
(0.0246712 0.0116364 0.00403629)
(0.0148007 0.0068988 0.00119431)
(0.0135626 0.00622511 0.00216592)
(0.00697507 0.00155258 0.00293183)
(0.006039 0.00210162 0.00313757)
(0.00358597 0.00027929 0.00374234)
(0.00316916 0.00158342 0.00365376)
(0.00220103 0.00155931 0.00358117)
(0.00203201 0.00277186 0.00364482)
(0.00191088 0.00299318 0.00371446)
(0.00255123 0.0035214 0.00401198)
(0.00300003 0.0032938 0.00420722)
(0.00350122 0.0031529 0.00437117)
(0.00368565 0.00261054 0.00436416)
(0.00387485 0.00214956 0.00435295)
(0.00389934 0.00156084 0.00430479)
(0.00394658 0.00111019 0.00428112)
(0.00393297 0.000670367 0.00425965)
(0.0039132 0.000351925 0.00426295)
(0.00385754 8.24284e-05 0.00427839)
(0.00378708 -9.65318e-05 0.00431306)
(0.00370568 -0.000222058 0.00435524)
(0.00361726 -0.000291391 0.00440352)
(0.00352003 -0.000328344 0.00445477)
(0.00341961 -0.000341703 0.00450773)
(0.0033186 -0.000345475 0.0045623)
(0.00321806 -0.000346505 0.00462028)
(0.00311906 -0.000348714 0.00468072)
(0.00301522 -0.000367407 0.00474293)
(0.00291193 -0.000386775 0.00480626)
(0.00280572 -0.000455597 0.00487034)
(0.00271527 -0.000494846 0.00493538)
(0.00262315 -0.00064437 0.00499869)
(0.00257925 -0.000681021 0.00506064)
(0.00254008 -0.000926239 0.00511335)
(0.00257329 -0.000898817 0.00515585)
(0.00258623 -0.001215 0.00517121)
(0.00265596 -0.00099533 0.00515069)
(0.00264367 -0.00127654 0.00505596)
(0.00268802 -0.000684108 0.00484997)
(0.00271891 -0.00098922 0.00456641)
(0.00297897 -0.000245245 0.00431194)
(0.00362277 -0.000894202 0.00409631)
(0.00464441 0.000355412 0.00356393)
(0.00559822 0.000387763 0.00293764)
(0.00568163 0.00288587 0.00200406)
(0.00625817 0.00253984 0.000735033)
(0.0109972 0.00526208 -0.000476217)
(0.0262613 -0.00167993 -0.000209025)
(0.0521862 -0.00485167 -0.00129692)
(0.0695612 -0.0139363 -0.000261144)
(0.0739409 -0.00927485 0.00280101)
(0.068355 -0.0279522 0.00593175)
(0.0589369 -0.0148495 0.0145451)
(0.0536499 -0.0793468 0.0225395)
(-0.000467972 -0.0164371 0.0321482)
(0.0127967 -0.183624 0.0618026)
(-0.112018 0.0683299 -0.0601528)
(0.0297922 -0.114222 -0.019025)
(0.198332 -0.238833 0.104925)
(0.108154 0.0528943 0.0486598)
(0.0747725 -0.089316 0.0243944)
(0.047779 -0.00701132 0.0164837)
(0.0311784 -0.0346144 0.0119226)
(0.0209275 -0.0169281 0.0122646)
(0.018248 -0.0202073 0.0126798)
(0.013846 -0.0136034 0.0105291)
(0.0119392 -0.00994111 0.00930469)
(0.0117584 -0.00400054 0.0103266)
(0.0102965 -0.00414097 0.013099)
(0.00696202 -0.00483115 0.0154207)
(0.0041585 -0.0084876 0.0161081)
(0.00109658 -0.0100277 0.0150918)
(-0.00200863 -0.0122338 0.0129315)
(-0.00347623 -0.0122525 0.0104585)
(-0.00362851 -0.0111334 0.00914782)
(-0.00408032 -0.00977329 0.00841561)
(-0.00493073 -0.00977602 0.00899732)
(-0.00426332 -0.0106252 0.00950866)
(-0.00262331 -0.0110052 0.00974477)
(-0.000822806 -0.0118434 0.0105044)
(0.000274888 -0.0138109 0.0115717)
(-0.00103776 -0.0158456 0.0108274)
(-0.00217649 -0.0176047 0.0099399)
(-0.00276606 -0.0186228 0.00859952)
(-0.00290209 -0.018152 0.00655026)
(-0.00322497 -0.0171052 0.00421797)
(-0.00365982 -0.0153138 0.00167149)
(-0.00457868 -0.0109729 0.000272617)
(-0.00533744 -0.00685463 0.00283878)
(-0.00635645 -0.00309679 0.00557376)
(-0.00733249 0.00114578 0.00778617)
(-0.00878492 0.00285085 0.0110602)
(-0.0106796 0.00593874 0.0166182)
(-0.0106622 0.000550676 0.0236128)
(0.0237781 0.0207966 0.00436684)
(0.0272639 0.0149882 0.00452953)
(0.0169099 0.00871726 0.000952627)
(0.0165899 0.00947065 0.00137063)
(0.00884842 0.00350974 0.00199039)
(0.00723163 0.00415307 0.00250178)
(0.00311739 0.000829291 0.00353786)
(0.00221342 0.00186027 0.00355372)
(0.000881248 0.00110726 0.00365035)
(0.000933501 0.00227305 0.00376494)
(0.000832201 0.00213662 0.00391346)
(0.00145396 0.00274991 0.00431001)
(0.0018206 0.00273525 0.00451955)
(0.00234449 0.00289835 0.00468483)
(0.00256274 0.00256033 0.00466354)
(0.00277361 0.00228682 0.00466786)
(0.00278804 0.00179778 0.00464112)
(0.00282014 0.00142752 0.00464728)
(0.00277773 0.00102513 0.00464344)
(0.00273554 0.000721054 0.00465398)
(0.00265191 0.000438451 0.00466664)
(0.00255739 0.000226027 0.00469142)
(0.00244643 5.07828e-05 0.00472223)
(0.00233044 -7.1415e-05 0.00475943)
(0.00221234 -0.00015534 0.00480059)
(0.00209724 -0.000205292 0.00484547)
(0.00198876 -0.00023391 0.00489172)
(0.00188853 -0.000251501 0.0049391)
(0.00179454 -0.000265477 0.00498872)
(0.00170232 -0.000289033 0.00504089)
(0.0016168 -0.000308651 0.00509512)
(0.00153392 -0.000362577 0.00514851)
(0.00147072 -0.000378374 0.00519749)
(0.00140817 -0.000477806 0.00523658)
(0.00139506 -0.000449143 0.00526167)
(0.00137564 -0.000588171 0.00526599)
(0.00142737 -0.000428935 0.00524812)
(0.00143171 -0.00056209 0.0051974)
(0.00149485 -0.000132099 0.00511075)
(0.00148608 -0.00019604 0.00496654)
(0.00164848 0.000528279 0.00475458)
(0.0018643 0.000198354 0.00452922)
(0.00226809 0.000731611 0.00434184)
(0.00266693 -0.000120174 0.00418738)
(0.00335172 0.000699652 0.00394911)
(0.00416183 0.000124162 0.00380682)
(0.00495958 0.0018731 0.00347337)
(0.00676256 -0.000533021 0.00254887)
(0.0142596 -3.34211e-05 0.00179534)
(0.0304079 -0.00816523 0.00202754)
(0.0555796 -0.00579384 0.00179185)
(0.0721802 -0.00312882 0.00426844)
(0.0783856 0.0110943 0.00819646)
(0.0749418 0.00400786 0.0118742)
(0.0657503 0.0243279 0.0236103)
(0.0593545 -0.0337843 0.0388989)
(0.015876 0.0512924 0.0715767)
(0.0312361 -0.194667 0.0985031)
(-0.146679 0.191537 -0.0424127)
(0.0307437 -0.206707 0.00800614)
(0.183409 -0.202659 0.113609)
(0.0807627 0.0811878 0.0358474)
(0.0529323 -0.0455345 0.0243946)
(0.017014 0.0417782 0.00417145)
(0.0122844 0.0205967 0.00685905)
(0.00234164 0.0408087 0.00782298)
(0.00089274 0.0391483 0.00954326)
(-0.000177611 0.0456201 0.0101439)
(0.00097002 0.0439831 0.00968777)
(0.00131551 0.0467268 0.0093011)
(0.000744895 0.044834 0.0102395)
(-0.000743056 0.0426431 0.0103596)
(-0.00292655 0.0385714 0.0106231)
(-0.00539267 0.0358037 0.0102819)
(-0.00712754 0.0318921 0.008986)
(-0.0077966 0.0297238 0.00841127)
(-0.00791243 0.0267374 0.00823562)
(-0.00763397 0.0251867 0.00804055)
(-0.00737518 0.0221995 0.0093794)
(-0.00676679 0.0204667 0.010624)
(-0.00602032 0.0184913 0.0122971)
(-0.00609109 0.0168908 0.0120129)
(-0.00612847 0.0151844 0.0124546)
(-0.00654533 0.0115905 0.0117972)
(-0.00778151 0.00822573 0.0109922)
(-0.00849447 0.00500477 0.00973479)
(-0.00800012 0.00255052 0.0063534)
(-0.00705285 0.00196163 0.00389236)
(-0.00782788 0.000711289 0.00156548)
(-0.00855258 0.00250899 8.90948e-05)
(-0.00935813 0.00411025 0.0037736)
(-0.0106263 0.00399843 0.00678377)
(-0.0121739 0.0047477 0.00915733)
(-0.0150444 0.00348643 0.0127597)
(-0.0196552 0.00512207 0.0176335)
(-0.0218078 -0.000423484 0.0242102)
(0.0237911 0.0209556 0.00447952)
(0.02909 0.0180924 0.00514856)
(0.0185846 0.0100984 0.000876496)
(0.0197495 0.0118634 0.000940961)
(0.0112107 0.00443859 0.000225473)
(0.00921375 0.00577679 0.000832161)
(0.00355555 0.00106584 0.00221777)
(0.00195955 0.00233315 0.00273482)
(-0.000287535 0.000335483 0.00310522)
(-0.000449981 0.00140903 0.00346169)
(-0.000822582 0.000989645 0.00369888)
(-0.000467255 0.00185194 0.00424247)
(-0.000281428 0.00207227 0.00445616)
(0.000284817 0.00253619 0.00464947)
(0.000544965 0.0023693 0.00460157)
(0.000758089 0.00220998 0.00462569)
(0.000719113 0.00178396 0.00461443)
(0.000660362 0.00148452 0.00464555)
(0.000531525 0.00113557 0.00464695)
(0.000425177 0.000871894 0.00464827)
(0.000297078 0.000600746 0.00463545)
(0.000176808 0.000377389 0.00462877)
(5.41963e-05 0.000177381 0.00462606)
(-6.71633e-05 2.48215e-05 0.00463128)
(-0.000189455 -9.20166e-05 0.00464193)
(-0.000303036 -0.000173162 0.00465848)
(-0.000403505 -0.000229165 0.00467966)
(-0.000489252 -0.000269033 0.00470405)
(-0.000565391 -0.000297609 0.00472904)
(-0.000639769 -0.000322824 0.00475503)
(-0.000710511 -0.000334322 0.00478125)
(-0.00078001 -0.000362807 0.00480421)
(-0.000832365 -0.000342281 0.00482048)
(-0.000884916 -0.00037471 0.00482188)
(-0.000886609 -0.000263051 0.00480381)
(-0.000897423 -0.000275244 0.00475657)
(-0.000840719 2.73477e-05 0.00467843)
(-0.000844972 8.34856e-05 0.00455938)
(-0.000770433 0.000695656 0.00441299)
(-0.000719305 0.000792011 0.00425018)
(-0.00036316 0.00155129 0.00411626)
(5.22258e-05 0.00113396 0.00400997)
(0.000643382 0.00149605 0.00385793)
(0.00117491 0.000334902 0.00365629)
(0.00196299 0.000706364 0.0036387)
(0.00266004 -0.000528133 0.00379757)
(0.00391584 0.000237482 0.00424906)
(0.00720064 -0.00353538 0.00400744)
(0.0166453 -0.00535014 0.00410885)
(0.0315103 -0.0101908 0.00563934)
(0.0500435 -0.00076099 0.00726324)
(0.0647523 0.0124624 0.0119188)
(0.0703622 0.0381894 0.0150058)
(0.067987 0.0446964 0.0182167)
(0.0606492 0.0740163 0.0333512)
(0.0511748 0.0331074 0.0495735)
(0.0192953 0.122062 0.0828653)
(0.0274181 -0.115904 0.102453)
(-0.119127 0.297667 -0.0139972)
(0.0176343 -0.266168 0.0145428)
(0.159554 -0.166035 0.116808)
(0.0630464 0.0942751 0.0301235)
(0.0535528 -0.00503523 0.0287337)
(0.0187304 0.0734591 0.00382465)
(0.0171606 0.0615117 0.00838231)
(0.00708789 0.0791586 0.00828136)
(0.00614651 0.0791135 0.00932944)
(0.003659 0.0858438 0.00895503)
(0.00334926 0.0856573 0.00911435)
(0.0027449 0.0883586 0.00977393)
(0.00286702 0.0861097 0.0113795)
(0.00186459 0.0849228 0.0116818)
(0.00116683 0.0821837 0.0116545)
(0.000686533 0.0790027 0.0111914)
(0.00065711 0.0750441 0.0110928)
(6.8099e-05 0.0713181 0.0103431)
(-0.00016062 0.0686378 0.00952963)
(-0.00141188 0.0664693 0.00903759)
(-0.00280644 0.064555 0.0108279)
(-0.00384399 0.0623962 0.0125701)
(-0.00485153 0.0592533 0.0131379)
(-0.00600401 0.0538864 0.0144038)
(-0.00617255 0.0470889 0.0148112)
(-0.00640557 0.0399307 0.0127982)
(-0.00650722 0.0331419 0.00951441)
(-0.00525021 0.0280642 0.00537275)
(-0.00378037 0.0245581 0.00234897)
(-0.00286629 0.0226492 0.00115575)
(-0.00395429 0.0210899 0.000443845)
(-0.00491991 0.0198371 0.00309293)
(-0.00804715 0.0171113 0.00668094)
(-0.0106886 0.0137628 0.00879318)
(-0.0132607 0.012103 0.0121004)
(-0.0182789 0.00692091 0.0151648)
(-0.0258636 0.00690101 0.0179916)
(-0.0329429 -0.000687627 0.0229072)
(0.0224472 0.0205707 0.00496615)
(0.0303982 0.0215532 0.00644192)
(0.019314 0.0112719 0.00182124)
(0.0219665 0.0139616 0.00230312)
(0.0138736 0.00408865 -0.000232736)
(0.0115879 0.00639989 -0.000308289)
(0.00461973 0.000392305 0.000769731)
(0.00218301 0.00267063 0.00155139)
(-0.000509107 -0.000294168 0.00221975)
(-0.0014284 0.000704674 0.00282051)
(-0.00207415 -0.00025649 0.00310458)
(-0.0019152 0.000826526 0.00380637)
(-0.00167434 0.00128254 0.00410598)
(-0.000919638 0.00209368 0.00448642)
(-0.000445608 0.00198878 0.00459079)
(-0.000152931 0.00189591 0.00474775)
(-0.0002089 0.00149044 0.00478838)
(-0.00033748 0.00127063 0.00483481)
(-0.000525821 0.00101862 0.004815)
(-0.00067106 0.000866418 0.00477853)
(-0.000823794 0.00069002 0.00470781)
(-0.00096101 0.000540557 0.00463065)
(-0.00110342 0.000387535 0.00455212)
(-0.00123479 0.000258849 0.00448262)
(-0.00135023 0.000152275 0.00442222)
(-0.00144523 7.58371e-05 0.0043709)
(-0.0015185 1.98158e-05 0.00432853)
(-0.0015749 -2.24409e-05 0.00429553)
(-0.00162484 -5.47491e-05 0.0042718)
(-0.0016705 -7.93051e-05 0.00425957)
(-0.00171058 -8.07188e-05 0.00425683)
(-0.00174693 -7.81543e-05 0.00425551)
(-0.0017696 -1.20232e-05 0.00424878)
(-0.00179628 3.28155e-05 0.0042226)
(-0.00178914 0.000230731 0.0041691)
(-0.0018085 0.000333759 0.00407723)
(-0.00178223 0.000730457 0.00394853)
(-0.00182445 0.000874759 0.00378307)
(-0.00176604 0.00147724 0.00361927)
(-0.00165566 0.00149654 0.00351799)
(-0.00117511 0.0021053 0.00355308)
(-0.000617801 0.00164407 0.00366781)
(0.000114846 0.00194835 0.00367184)
(0.000704914 0.000694503 0.00362214)
(0.00146035 0.000920841 0.00391674)
(0.00202124 -0.000681304 0.00436986)
(0.00380471 -0.00128794 0.00478108)
(0.0087451 -0.00561858 0.00463913)
(0.0163106 -0.00765072 0.00582973)
(0.0256881 -0.00932947 0.0102402)
(0.0361337 0.00409749 0.0145944)
(0.0439194 0.0259662 0.0198663)
(0.0517326 0.0588819 0.0250017)
(0.0534136 0.0741393 0.0318133)
(0.0506566 0.103699 0.0483078)
(0.0451617 0.0671677 0.0580863)
(0.0302254 0.144291 0.0799795)
(0.0472029 -0.0904952 0.0828054)
(-0.0345143 0.340602 0.0174432)
(0.0198222 -0.304687 0.0225656)
(0.103196 -0.125882 0.111658)
(0.0283322 0.110209 0.0189895)
(0.0247249 0.0416759 0.0227799)
(-0.000125618 0.108409 0.00418248)
(0.000304841 0.106108 0.0113213)
(-0.0040926 0.12117 0.0118543)
(-0.00219455 0.121681 0.0133962)
(-0.0011768 0.127883 0.0135886)
(0.00113479 0.126988 0.0141843)
(0.00275886 0.128862 0.0149452)
(0.00443806 0.126274 0.0152239)
(0.0049843 0.12543 0.0148664)
(0.00564803 0.122385 0.0143035)
(0.00580222 0.121107 0.0137287)
(0.00544524 0.118927 0.0137664)
(0.00413181 0.116497 0.0135868)
(0.00303116 0.114157 0.0136515)
(0.00175455 0.111322 0.0146018)
(2.97502e-05 0.106786 0.0155685)
(-0.0016438 0.100083 0.0161303)
(-0.00311133 0.092341 0.0166392)
(-0.00445204 0.0826586 0.0162712)
(-0.00399078 0.0732711 0.0140198)
(-0.00293555 0.0643979 0.00991561)
(-0.00212996 0.0576808 0.00502028)
(-0.00103739 0.0532826 0.00100502)
(-0.000777156 0.0498924 -0.00114372)
(-0.00163619 0.0471627 -0.000936679)
(-0.00358667 0.0432893 0.00183717)
(-0.00639511 0.0377093 0.00636465)
(-0.010214 0.0310491 0.00816923)
(-0.014155 0.0253554 0.0106074)
(-0.0175965 0.0210388 0.0145426)
(-0.0232795 0.014097 0.0175886)
(-0.031625 0.0114591 0.0199225)
(-0.0386548 0.000450472 0.0209695)
(0.0190506 0.0190322 0.00516293)
(0.0304886 0.0253327 0.00855276)
(0.0183086 0.0119192 0.00381862)
(0.021972 0.0161875 0.00504021)
(0.0147628 0.0032047 0.00149555)
(0.0126725 0.00610435 0.000645268)
(0.00484061 -0.00102939 0.000727152)
(0.00207727 0.0025765 0.00106762)
(-0.00100583 -0.000674439 0.00164196)
(-0.00239181 0.000611306 0.00242263)
(-0.00373761 -0.000879822 0.00261294)
(-0.00442199 0.00023762 0.00337817)
(-0.00457291 0.000595359 0.00379883)
(-0.00358484 0.00149002 0.0045674)
(-0.00297233 0.00135263 0.00498044)
(-0.00269146 0.0013788 0.00532991)
(-0.002889 0.00105767 0.00542082)
(-0.00321941 0.000969574 0.00543979)
(-0.00357004 0.000842554 0.00535532)
(-0.00380451 0.000832701 0.00525042)
(-0.00398711 0.000793118 0.00510616)
(-0.00411121 0.000777366 0.00495914)
(-0.00421257 0.000736619 0.00481409)
(-0.00429746 0.000695829 0.00468808)
(-0.00438181 0.000655824 0.0045875)
(-0.0044391 0.000628773 0.00450504)
(-0.00446461 0.000603354 0.00443843)
(-0.00446329 0.000576984 0.00439604)
(-0.00445183 0.000550031 0.00437688)
(-0.00444697 0.00052871 0.00437803)
(-0.00445353 0.000537199 0.0043939)
(-0.00446647 0.0005683 0.00441158)
(-0.00448041 0.000676836 0.00441922)
(-0.00450259 0.000785891 0.00440009)
(-0.00448805 0.00103488 0.00435134)
(-0.00448468 0.00118005 0.00426617)
(-0.00441476 0.00155267 0.0041555)
(-0.00437979 0.00160705 0.00402119)
(-0.00421964 0.00199012 0.00390214)
(-0.00403417 0.0017298 0.0038406)
(-0.00357234 0.00205826 0.003896)
(-0.00307873 0.00150027 0.00397466)
(-0.00223954 0.0019324 0.00398815)
(-0.00150506 0.000934249 0.00412826)
(-0.000735593 0.00109944 0.00454648)
(0.000272516 -0.000761055 0.00496154)
(0.00334343 -0.00201175 0.00509584)
(0.00838262 -0.00530102 0.00506884)
(0.0140842 -0.00568898 0.00684017)
(0.0164961 -0.00269358 0.0134752)
(0.0140505 0.0153975 0.0214253)
(0.0172615 0.0388242 0.0264902)
(0.0240679 0.0747968 0.032664)
(0.0294626 0.09702 0.0408497)
(0.0366641 0.123319 0.0537085)
(0.0424513 0.0895797 0.0600616)
(0.0480897 0.161131 0.0741656)
(0.0455494 -0.0769294 0.0646144)
(0.00871156 0.338948 0.0461505)
(0.00813589 -0.322413 0.0283572)
(0.0423959 -0.0854483 0.0973937)
(0.0018715 0.124834 0.0191878)
(0.0027648 0.0842538 0.0190197)
(-0.0110716 0.143493 0.00531925)
(-0.00639432 0.140965 0.0148126)
(-0.00624394 0.153601 0.0144526)
(-0.00335805 0.152924 0.0149982)
(-0.00186606 0.159182 0.0148988)
(0.000416257 0.160643 0.0157203)
(0.00290657 0.163603 0.0163613)
(0.00570059 0.162302 0.0164869)
(0.00687677 0.1639 0.0161802)
(0.00804505 0.163094 0.0165052)
(0.00781618 0.162747 0.0165788)
(0.00765527 0.16094 0.0171059)
(0.00648639 0.157898 0.0173223)
(0.00554923 0.153385 0.0176002)
(0.00437631 0.147375 0.0178676)
(0.00370697 0.140552 0.0178045)
(0.0031536 0.132017 0.018494)
(0.00287701 0.122079 0.0185467)
(0.00291558 0.111658 0.0166788)
(0.00443344 0.102562 0.0132422)
(0.00590162 0.0953542 0.00841872)
(0.00716617 0.0904686 0.00339831)
(0.00772092 0.086097 -0.00158011)
(0.00638102 0.0823923 -0.00352566)
(0.00454511 0.0772083 -0.00143103)
(0.00277496 0.0689685 0.00139771)
(-0.00026438 0.0595533 0.00385039)
(-0.00509364 0.0481613 0.00517421)
(-0.0119115 0.0381466 0.0069222)
(-0.0183553 0.0298548 0.0101514)
(-0.0259547 0.0200367 0.0125394)
(-0.0350199 0.0140909 0.0156216)
(-0.0467931 0.000177101 0.0149797)
(0.0161345 0.0137752 0.00431853)
(0.0293622 0.0283922 0.00952887)
(0.0159276 0.0121517 0.00454302)
(0.020897 0.0193071 0.00595818)
(0.014597 0.00355609 0.00261128)
(0.0122188 0.00621424 0.00168369)
(0.00354595 -0.00231238 0.00131631)
(0.00044836 0.00226436 0.00114932)
(-0.00169378 -0.00135372 0.00211672)
(-0.00322481 0.000865679 0.00280894)
(-0.00444389 -0.000959676 0.00307244)
(-0.00517647 2.99728e-05 0.00392787)
(-0.00514588 -0.00049152 0.00461378)
(-0.00398904 0.000114897 0.00564746)
(-0.00334469 -0.000109624 0.00637795)
(-0.00308978 0.00028182 0.0069924)
(-0.00328258 0.000336926 0.00728186)
(-0.00357177 0.000638262 0.00738957)
(-0.00387547 0.00076518 0.00733449)
(-0.00406538 0.000972687 0.00722284)
(-0.00421807 0.00109257 0.00705341)
(-0.0043144 0.00119854 0.00687518)
(-0.00438713 0.0012442 0.00670064)
(-0.00443665 0.00126856 0.00654721)
(-0.00447467 0.00126376 0.00641501)
(-0.00448697 0.00124626 0.00630937)
(-0.00446903 0.00122331 0.00623194)
(-0.00442608 0.00119683 0.00618106)
(-0.00437815 0.00116727 0.00615265)
(-0.00434483 0.00114728 0.00614353)
(-0.00433448 0.00116618 0.00614426)
(-0.00434078 0.00122274 0.00614025)
(-0.00435838 0.00136214 0.00612115)
(-0.00438067 0.00150768 0.00607693)
(-0.00436371 0.0017599 0.00600622)
(-0.0043535 0.00188193 0.00590652)
(-0.00425642 0.00214968 0.00579689)
(-0.00416202 0.00206241 0.00568357)
(-0.00390513 0.00223189 0.0056036)
(-0.0036501 0.00180317 0.005578)
(-0.00323533 0.00194897 0.00564257)
(-0.00289727 0.00136732 0.00572395)
(-0.00222121 0.00184497 0.00575652)
(-0.00146113 0.00092172 0.00593255)
(-0.000725014 0.00117067 0.00626142)
(0.000469614 -0.00108113 0.00620286)
(0.00311513 -0.00106305 0.00535029)
(0.0063692 -0.00132992 0.005494)
(0.00802226 0.00188399 0.00794144)
(0.00217456 0.00979753 0.0177071)
(-0.00740602 0.0265963 0.0281329)
(-0.0120467 0.0463901 0.0322401)
(-0.00775407 0.0784747 0.0341942)
(0.00636732 0.105041 0.0384096)
(0.0246619 0.136495 0.0501207)
(0.051422 0.120962 0.0579632)
(0.0760878 0.180754 0.0744134)
(0.0841385 -0.0203764 0.0697016)
(0.0901947 0.373408 0.0350922)
(-0.00391775 -0.34374 0.0281978)
(-0.0419796 -0.0519158 0.0674435)
(-0.0340363 0.15786 -0.00503912)
(-0.0316176 0.123723 0.00618098)
(-0.0244594 0.174621 -0.000520328)
(-0.0188731 0.167641 0.00875247)
(-0.0118119 0.175092 0.00779597)
(-0.00801971 0.173242 0.00789688)
(-0.00316129 0.177224 0.00763296)
(0.000940644 0.178638 0.00877921)
(0.00551113 0.180343 0.00992977)
(0.00825681 0.180592 0.0103427)
(0.00935817 0.182147 0.0108021)
(0.0104536 0.182481 0.0120947)
(0.0116872 0.183351 0.0137206)
(0.0127476 0.182178 0.0154705)
(0.0134712 0.178932 0.0169838)
(0.0143417 0.174085 0.0183372)
(0.0150216 0.167473 0.0194637)
(0.015413 0.160095 0.0204069)
(0.0156619 0.15158 0.0207796)
(0.0159144 0.143379 0.0206147)
(0.0163111 0.134269 0.0193391)
(0.0166366 0.126696 0.0167762)
(0.0165387 0.121542 0.0122938)
(0.0158102 0.118603 0.00819859)
(0.0139407 0.117402 0.00522706)
(0.0118123 0.11573 0.00387353)
(0.0101165 0.113125 0.00297844)
(0.00933229 0.109305 0.00400174)
(0.00768177 0.103441 0.00648377)
(0.00326598 0.0948679 0.00933457)
(-0.00417945 0.0836257 0.0125713)
(-0.0108554 0.0711837 0.0156176)
(-0.0191398 0.0544122 0.0162536)
(-0.029387 0.0354451 0.0122257)
(-0.0391453 0.00752983 -0.000660507)
(0.00701398 0.00824718 -0.00200185)
(0.0267143 0.0300263 0.00788793)
(0.0120996 0.0126725 0.00229375)
(0.0189674 0.0233753 0.00368486)
(0.0140196 0.00595697 0.00141083)
(0.0116885 0.00781841 0.000536895)
(0.00194277 -0.00271481 -0.00208062)
(-0.000903857 0.00248954 -0.00234083)
(-0.00407402 -0.00128565 -0.00119676)
(-0.0054114 0.00136766 -0.000403266)
(-0.00666197 -0.000864156 -3.41319e-05)
(-0.00737317 -0.000114256 0.000817337)
(-0.00777912 -0.00134602 0.00153253)
(-0.00721703 -0.000840942 0.0024073)
(-0.00716611 -0.000975448 0.00313018)
(-0.0072408 -0.00030075 0.00375601)
(-0.00764373 -3.61391e-05 0.0042279)
(-0.0079949 0.000470723 0.00452615)
(-0.00834764 0.000722725 0.00465117)
(-0.00855075 0.00103201 0.00467473)
(-0.00864407 0.00122187 0.00461547)
(-0.00864123 0.00138902 0.00452875)
(-0.00861117 0.00148637 0.00443564)
(-0.00856152 0.0015486 0.00435257)
(-0.00850276 0.00157169 0.00427866)
(-0.00842828 0.00157248 0.004217)
(-0.00833597 0.00156228 0.00416908)
(-0.00823099 0.00155177 0.00413535)
(-0.00813202 0.00154518 0.00411405)
(-0.00807622 0.00155042 0.00410238)
(-0.00807031 0.00158815 0.00409446)
(-0.00808362 0.00165785 0.00407922)
(-0.00810437 0.0017921 0.00404975)
(-0.0081061 0.0019196 0.00399956)
(-0.00803271 0.00212863 0.0039272)
(-0.00792308 0.00221203 0.00383994)
(-0.00770644 0.00242939 0.00374491)
(-0.00750626 0.00232451 0.0036518)
(-0.00722934 0.00245467 0.00356576)
(-0.00703957 0.00201784 0.00350794)
(-0.00673734 0.00212759 0.00348568)
(-0.00651099 0.00148205 0.00346693)
(-0.00579331 0.00176304 0.00336825)
(-0.00498378 0.000659703 0.00344821)
(-0.00409357 0.000729569 0.00354467)
(-0.00327841 -0.00162486 0.00284117)
(-0.00160472 0.000429046 0.00216105)
(0.000277844 0.000507988 0.00246328)
(-0.00179836 0.00623563 0.00516111)
(-0.0121964 0.0116946 0.0144859)
(-0.0279797 0.021584 0.027242)
(-0.0343012 0.0292457 0.0318235)
(-0.0341123 0.051045 0.0297029)
(-0.0206702 0.0635419 0.0252774)
(-0.000434569 0.109587 0.0343612)
(0.0382023 0.0794391 0.0413617)
(0.077022 0.179152 0.0609149)
(0.0984599 -0.0395323 0.0681366)
(0.169325 0.394577 0.0328651)
(-0.0111532 -0.3247 0.0226199)
(-0.112548 -0.0922152 0.048366)
(-0.0564952 0.148367 -0.00894009)
(-0.0542384 0.0814405 0.00408054)
(-0.0272567 0.136825 0.0015352)
(-0.0243305 0.110355 0.0106932)
(-0.0101349 0.113524 0.00842821)
(-0.00743119 0.10174 0.00639514)
(-0.00361228 0.100651 0.00420164)