/*--------------------------------*- C++ -*----------------------------------*\
| =========                 |                                                 |
| \\      /  F ield         | OpenFOAM: The Open Source CFD Toolbox           |
|  \\    /   O peration     | Version:  2.3.0                                 |
|   \\  /    A nd           | Web:      www.OpenFOAM.org                      |
|    \\/     M anipulation  |                                                 |
\*---------------------------------------------------------------------------*/
FoamFile
{
    version     2.0;
    format      ascii;
    class       volScalarField;
    location    "4";
    object      alpha.water;
}
// * * * * * * * * * * * * * * * * * * * * * * * * * * * * * * * * * * * * * //

dimensions      [0 0 0 0 0 0 0];

internalField   nonuniform List<scalar> 
6144
(
1.00008e-05
9.99765e-06
1.00014e-05
1.00014e-05
1.00009e-05
1.00017e-05
1.00011e-05
1.00022e-05
1.00018e-05
1.00018e-05
1.00018e-05
1.00018e-05
1.00018e-05
1.00019e-05
1.00019e-05
1.0002e-05
1.0002e-05
1.0002e-05
1.0002e-05
1.0002e-05
1.0002e-05
1.0002e-05
1.0002e-05
1.0002e-05
1.0002e-05
1.0002e-05
1.0002e-05
1.0002e-05
1.0002e-05
1.0002e-05
1.0002e-05
1.0002e-05
1.0002e-05
1.0002e-05
1.0002e-05
1.00024e-05
1.00024e-05
1.00024e-05
1.00017e-05
1.00036e-05
1.00009e-05
1.00055e-05
1.00016e-05
1.00068e-05
1.00035e-05
1.00068e-05
1.00032e-05
1.00064e-05
1.00044e-05
1.00093e-05
1.00078e-05
1.00249e-05
1.02355e-05
1.34946e-05
2.50841e-05
5.07271e-05
0.000116644
0.00045341
0.00157095
0.0573342
0.959269
0.999779
0.999999
0.999999
0.999999
0.999999
0.999999
0.999999
0.999999
0.999999
0.999999
0.999999
0.999999
0.999999
0.999999
0.999999
0.999999
0.999999
0.999999
0.999999
0.999999
0.999999
0.999999
0.999999
0.999999
0.999999
0.999999
0.999999
0.999999
0.999999
0.999999
0.999999
0.999999
1
1
1
1.00006e-05
9.99625e-06
9.99756e-06
1.00004e-05
9.99713e-06
1.00011e-05
9.99709e-06
1.00019e-05
9.99755e-06
1.00016e-05
9.99824e-06
1.00009e-05
9.999e-06
1.00002e-05
9.99955e-06
1e-05
9.99984e-06
9.99994e-06
9.99994e-06
9.99997e-06
1e-05
1e-05
1.00001e-05
1.00001e-05
1.00001e-05
1.00001e-05
1.00002e-05
1.00002e-05
1.00002e-05
1.00002e-05
1.00002e-05
1.00003e-05
1.00003e-05
1.00004e-05
9.99999e-06
1.00011e-05
9.9993e-06
1.00024e-05
9.99887e-06
1.00036e-05
9.99809e-06
1.00055e-05
9.99859e-06
1.00068e-05
1.00003e-05
1.00068e-05
1.00003e-05
1.00063e-05
1.00007e-05
1.00078e-05
1.00019e-05
1.00418e-05
1.03426e-05
1.21269e-05
1.60998e-05
3.16281e-05
0.000132706
0.000624336
0.00157502
0.0584944
0.961832
0.999947
0.999999
0.999999
0.999999
0.999999
0.999999
0.999999
0.999999
0.999999
0.999999
0.999999
0.999999
0.999999
0.999999
0.999999
0.999999
0.999999
0.999999
0.999999
0.999999
0.999999
0.999999
0.999999
0.999999
0.999999
0.999999
0.999999
0.999999
0.999999
0.999999
0.999999
0.999999
1
1
1
9.99624e-06
9.99624e-06
9.9962e-06
1.00002e-05
9.99557e-06
1.00005e-05
9.99564e-06
1.00013e-05
9.99606e-06
1.00014e-05
9.99689e-06
1.00007e-05
9.99814e-06
9.99945e-06
9.9985e-06
9.99938e-06
9.999e-06
9.99922e-06
9.9992e-06
9.99924e-06
9.99928e-06
9.99932e-06
9.99936e-06
9.99939e-06
9.99942e-06
9.99944e-06
9.99947e-06
9.99949e-06
9.99951e-06
9.99954e-06
9.99956e-06
9.99959e-06
9.99959e-06
9.99977e-06
9.99937e-06
1.00004e-05
9.99887e-06
1.00015e-05
9.99866e-06
1.00024e-05
9.99782e-06
1.00043e-05
9.9981e-06
1.00057e-05
9.99919e-06
1.00066e-05
9.99985e-06
1.00067e-05
1.00013e-05
1.00124e-05
1.006e-05
1.15294e-05
1.80419e-05
2.88548e-05
3.85211e-05
4.19612e-05
6.24623e-05
0.000456018
0.000940899
0.056657
0.960413
0.999999
0.999999
0.999999
0.999999
0.999999
0.999999
0.999999
0.999999
0.999999
0.999999
0.999999
0.999999
0.999999
0.999999
0.999999
0.999999
0.999999
0.999999
0.999999
0.999999
0.999999
0.999999
0.999999
0.999999
0.999999
0.999999
0.999999
0.999999
0.999999
0.999999
0.999999
0.999999
1
1
1
9.96882e-06
9.99489e-06
9.99563e-06
1.00005e-05
9.99503e-06
1.00003e-05
9.99507e-06
1.00009e-05
9.99544e-06
1.00013e-05
9.99636e-06
1.00008e-05
9.99799e-06
9.99902e-06
9.99813e-06
9.99919e-06
9.99871e-06
9.99902e-06
9.999e-06
9.99905e-06
9.99911e-06
9.99917e-06
9.99922e-06
9.99926e-06
9.9993e-06
9.99934e-06
9.99937e-06
9.99939e-06
9.99942e-06
9.99945e-06
9.99948e-06
9.99951e-06
9.99951e-06
9.9997e-06
9.99931e-06
1.00004e-05
9.99886e-06
1.00014e-05
9.99866e-06
1.00022e-05
9.99782e-06
1.00041e-05
9.99807e-06
1.00055e-05
9.99905e-06
1.0006e-05
9.99928e-06
1.00053e-05
9.9987e-06
1.00199e-05
1.07056e-05
1.68528e-05
3.65546e-05
5.44211e-05
6.67117e-05
5.74295e-05
4.75127e-05
0.000340022
0.000350643
0.0629753
0.964818
0.999993
0.999999
0.999999
0.999999
0.999999
0.999999
0.999999
0.999999
0.999999
0.999999
0.999999
0.999999
0.999999
0.999999
0.999999
0.999999
0.999999
0.999999
0.999999
0.999999
0.999999
0.999999
0.999999
0.999999
0.999999
0.999999
0.999999
0.999999
0.999999
0.999999
0.999999
0.999999
1
1
1
9.92258e-06
9.9862e-06
9.99577e-06
1.00009e-05
9.99512e-06
1.00004e-05
9.99519e-06
1.0001e-05
9.99557e-06
1.00015e-05
9.99649e-06
1.00012e-05
9.99799e-06
9.99979e-06
9.99822e-06
9.99995e-06
9.99894e-06
9.99975e-06
9.99945e-06
9.99964e-06
9.99967e-06
9.99979e-06
9.99986e-06
9.99991e-06
9.99997e-06
1e-05
1.00001e-05
1.00001e-05
1.00002e-05
1.00002e-05
1.00003e-05
1.00003e-05
1.00004e-05
1.00006e-05
1.00002e-05
1.00013e-05
9.99956e-06
1.00025e-05
9.99925e-06
1.00035e-05
9.99859e-06
1.00051e-05
9.99882e-06
1.00064e-05
9.99955e-06
1.00069e-05
9.99967e-06
1.00068e-05
1.00027e-05
1.02213e-05
1.84751e-05
3.81983e-05
5.74315e-05
8.17811e-05
9.03678e-05
8.40072e-05
9.09893e-05
0.000246558
8.61954e-05
0.117632
0.983149
0.999969
0.99999
0.999996
0.999997
0.999998
0.999998
0.999998
0.999998
0.999998
0.999998
0.999998
0.999998
0.999998
0.999999
0.999999
0.999998
0.999998
0.999999
0.999999
0.999999
0.999999
0.999999
0.999999
0.999999
0.999999
0.999999
0.999999
0.999999
0.999999
0.999999
0.999999
0.999999
1
1
1
9.86718e-06
9.97329e-06
9.99532e-06
1.00004e-05
9.99534e-06
1.00008e-05
9.99565e-06
1.00015e-05
9.99626e-06
1.00022e-05
9.99688e-06
1.00022e-05
9.99802e-06
1.00012e-05
9.99839e-06
1.00008e-05
9.99913e-06
1.00004e-05
9.99971e-06
1e-05
9.99995e-06
1.00001e-05
1.00001e-05
1.00001e-05
1.00001e-05
1.00002e-05
1.00002e-05
1.00002e-05
1.00002e-05
1.00002e-05
1.00003e-05
1.00003e-05
1.00003e-05
1.00005e-05
1.00001e-05
1.00011e-05
9.99968e-06
1.00022e-05
9.99933e-06
1.0003e-05
9.99873e-06
1.00043e-05
9.99876e-06
1.00053e-05
9.99919e-06
1.00052e-05
9.99917e-06
1.00046e-05
1.00029e-05
1.05127e-05
1.8875e-05
3.95452e-05
7.20506e-05
0.000102419
0.000107067
9.65357e-05
9.53283e-05
0.000147121
1.0022e-05
0.236198
0.99579
0.999033
0.999146
0.999368
0.999472
0.999556
0.999589
0.999604
0.999506
0.999485
0.999564
0.999524
0.999467
0.999523
0.99957
0.999614
0.999691
0.999726
0.999757
0.999808
0.999863
0.999908
0.999943
0.999969
0.999984
0.999992
0.999997
0.999999
0.999999
1
1
1
1
1
1
1
9.7951e-06
9.94412e-06
9.98559e-06
9.98548e-06
9.99648e-06
1.00011e-05
9.99687e-06
1.00015e-05
9.99795e-06
1.00027e-05
9.99875e-06
1.00031e-05
9.99945e-06
1.00031e-05
1.00004e-05
1.00028e-05
1.00016e-05
1.00023e-05
1.00021e-05
1.00024e-05
1.00024e-05
1.00026e-05
1.00026e-05
1.00027e-05
1.00027e-05
1.00028e-05
1.00028e-05
1.00028e-05
1.00029e-05
1.00029e-05
1.00029e-05
1.0003e-05
1.00031e-05
1.00031e-05
1.00031e-05
1.00031e-05
1.00027e-05
1.00041e-05
1.00017e-05
1.00058e-05
1.00019e-05
1.00067e-05
1.00029e-05
1.00068e-05
1.00031e-05
1.00069e-05
1.00016e-05
1.00072e-05
1.00008e-05
1.00059e-05
1.13663e-05
2.1875e-05
4.55964e-05
6.49689e-05
6.99981e-05
9.43412e-05
0.000182116
0.000178811
1.0022e-05
0.374085
0.988232
0.992018
0.991641
0.991666
0.992805
0.993772
0.994132
0.994345
0.994174
0.993603
0.993402
0.993604
0.993549
0.992959
0.992623
0.993022
0.994059
0.994487
0.994914
0.995443
0.995866
0.996254
0.996648
0.997107
0.997431
0.997709
0.998525
0.999004
0.999241
0.999553
0.999761
0.999923
0.999988
0.999998
0.999999
1
9.70319e-06
9.88208e-06
9.94019e-06
9.92777e-06
9.99001e-06
9.99819e-06
9.99187e-06
9.998e-06
9.99324e-06
1.00006e-05
9.99419e-06
1.00015e-05
9.99591e-06
1.00008e-05
9.99727e-06
1.0001e-05
9.99863e-06
1.00008e-05
9.99967e-06
1.00003e-05
1.00002e-05
1.00003e-05
1.00003e-05
1.00004e-05
1.00004e-05
1.00004e-05
1.00004e-05
1.00005e-05
1.00005e-05
1.00005e-05
1.00005e-05
1.00005e-05
1.00005e-05
1.00006e-05
1.00003e-05
1.00011e-05
9.99968e-06
1.0002e-05
9.9983e-06
1.00038e-05
9.99788e-06
1.00051e-05
9.99802e-06
1.0006e-05
9.99859e-06
1.00067e-05
9.99819e-06
1.00066e-05
9.99906e-06
1.00101e-05
1.00573e-05
1.20616e-05
2.51236e-05
3.57133e-05
8.16687e-05
0.000109752
0.000144198
0.000140059
1.0022e-05
0.451873
0.979026
0.982168
0.981437
0.981282
0.982894
0.98458
0.986079
0.987165
0.98739
0.986871
0.985726
0.985363
0.986149
0.986639
0.984684
0.982805
0.983278
0.985853
0.987128
0.98785
0.987723
0.986548
0.985288
0.984868
0.985068
0.986905
0.987925
0.987999
0.987868
0.987843
0.989815
0.990912
0.991311
0.992487
0.994309
0.995887
9.34272e-06
9.84832e-06
9.94794e-06
9.89898e-06
9.982e-06
9.99725e-06
9.98772e-06
9.99589e-06
9.98997e-06
9.99785e-06
9.99383e-06
9.99577e-06
9.99567e-06
9.99567e-06
9.99567e-06
9.99567e-06
9.99567e-06
9.99765e-06
9.99654e-06
9.99773e-06
9.99729e-06
9.99757e-06
9.99767e-06
9.99779e-06
9.99787e-06
9.99795e-06
9.99804e-06
9.99812e-06
9.9982e-06
9.99828e-06
9.99838e-06
9.99847e-06
9.99853e-06
9.99876e-06
9.99828e-06
9.99954e-06
9.99696e-06
1.00009e-05
9.9972e-06
1.00021e-05
9.99744e-06
1.00035e-05
9.99771e-06
1.00047e-05
9.99792e-06
1.00056e-05
9.99819e-06
1.00052e-05
9.99827e-06
1.00048e-05
9.99907e-06
1.0162e-05
1.50684e-05
3.13133e-05
6.67328e-05
7.26188e-05
8.98427e-05
0.000186396
1.0022e-05
0.360006
0.990669
0.995007
0.995749
0.996946
0.99791
0.998454
0.998582
0.998706
0.999005
0.999107
0.99913
0.999149
0.999172
0.999223
0.999231
0.999109
0.999082
0.999232
0.999338
0.999364
0.999374
0.99937
0.999427
0.999521
0.999591
0.999631
0.999652
0.999671
0.999743
0.999807
0.99989
0.99995
0.999979
0.999993
0.999998
1
9.02927e-06
9.85697e-06
9.9174e-06
9.85846e-06
9.9851e-06
9.99819e-06
9.99018e-06
9.99931e-06
9.99112e-06
1.00003e-05
9.99394e-06
9.99757e-06
9.99567e-06
9.99638e-06
9.99567e-06
9.99631e-06
9.99567e-06
9.99735e-06
9.99633e-06
9.99716e-06
9.99684e-06
9.9969e-06
9.9969e-06
9.99691e-06
9.99692e-06
9.99693e-06
9.99694e-06
9.99695e-06
9.99696e-06
9.99697e-06
9.99698e-06
9.997e-06
9.997e-06
9.99712e-06
9.99689e-06
9.99753e-06
9.9969e-06
9.99834e-06
9.9972e-06
9.99909e-06
9.99744e-06
1.00002e-05
9.99771e-06
1.00015e-05
9.99792e-06
1.00026e-05
9.99819e-06
1.00021e-05
9.99827e-06
1.00017e-05
9.99907e-06
1.0029e-05
1.15033e-05
2.50591e-05
4.23537e-05
3.43577e-05
3.89634e-05
0.000274722
3.06961e-05
0.249546
0.997718
0.999795
0.999891
0.999967
0.999989
0.999996
0.999998
0.999999
0.999999
0.999999
0.999999
1
1
1
1
1
1
1
1
1
1
1
1
1
1
1
1
1
1
1
1
1
1
1
1
1
8.80136e-06
9.69789e-06
9.55843e-06
9.38384e-06
9.92818e-06
9.9981e-06
9.99069e-06
1.00004e-05
9.9918e-06
1.00024e-05
9.99439e-06
1.00005e-05
9.99612e-06
9.9983e-06
9.99604e-06
9.99827e-06
9.99621e-06
9.99845e-06
9.99695e-06
9.99808e-06
9.99753e-06
9.99769e-06
9.99762e-06
9.99762e-06
9.9976e-06
9.99759e-06
9.99758e-06
9.99758e-06
9.99757e-06
9.99757e-06
9.99757e-06
9.99757e-06
9.99755e-06
9.99765e-06
9.99741e-06
9.99798e-06
9.99727e-06
9.99889e-06
9.99739e-06
9.99975e-06
9.99753e-06
1.00008e-05
9.99773e-06
1.00022e-05
9.99795e-06
1.00034e-05
9.99824e-06
1.00031e-05
9.99837e-06
1.00028e-05
9.99907e-06
1.00392e-05
1.16124e-05
2.12306e-05
2.76908e-05
2.32415e-05
3.81342e-05
0.000358118
0.000174376
0.115354
0.967618
0.999999
0.999999
0.999999
0.999999
0.999999
0.999999
0.999999
0.999999
0.999999
0.999999
0.999999
0.999999
0.999999
0.999999
0.999999
0.999999
0.999999
0.999999
0.999999
0.999999
0.999999
0.999999
0.999999
0.999999
0.999999
0.999999
0.999999
0.999999
0.999999
0.999999
0.999999
0.999999
1
1
1
8.11697e-06
8.60594e-06
8.33952e-06
8.06465e-06
9.58732e-06
9.9938e-06
9.98937e-06
1.00004e-05
9.99122e-06
1.00026e-05
9.99391e-06
1.00028e-05
9.99592e-06
1.00008e-05
9.99604e-06
1.00008e-05
9.99689e-06
1.00001e-05
9.99795e-06
9.99939e-06
9.99859e-06
9.9989e-06
9.99878e-06
9.99878e-06
9.99876e-06
9.99875e-06
9.99875e-06
9.99874e-06
9.99873e-06
9.99873e-06
9.99872e-06
9.99872e-06
9.9987e-06
9.99878e-06
9.99848e-06
9.99917e-06
9.99803e-06
1.00003e-05
9.99779e-06
1.00014e-05
9.99773e-06
1.00028e-05
9.9979e-06
1.00044e-05
9.99823e-06
1.00057e-05
9.99861e-06
1.00054e-05
9.99883e-06
1.00054e-05
9.9991e-06
1.01158e-05
1.27948e-05
2.10373e-05
2.46304e-05
2.41378e-05
6.40989e-05
0.000429946
0.000294512
0.052525
0.942159
0.999999
0.999999
0.999999
0.999999
0.999999
0.999999
0.999999
0.999999
0.999999
0.999999
0.999999
0.999999
0.999999
0.999999
0.999999
0.999999
0.999999
0.999999
0.999999
0.999999
0.999999
0.999999
0.999999
0.999999
0.999999
0.999999
0.999999
0.999999
0.999999
0.999999
0.999999
0.999999
1
1
1
6.52757e-06
6.38701e-06
6.2558e-06
5.91336e-06
8.21133e-06
9.86809e-06
9.98547e-06
1.00004e-05
9.99391e-06
1.00026e-05
9.99611e-06
1.00038e-05
9.99718e-06
1.0004e-05
9.99648e-06
1.00049e-05
9.99883e-06
1.0003e-05
1.00001e-05
1.00019e-05
1.00008e-05
1.00013e-05
1.00011e-05
1.00011e-05
1.00011e-05
1.00011e-05
1.00011e-05
1.00011e-05
1.00011e-05
1.00011e-05
1.00011e-05
1.00011e-05
1.00011e-05
1.00012e-05
1.00008e-05
1.00017e-05
1e-05
1.0003e-05
9.99918e-06
1.00046e-05
9.99885e-06
1.00068e-05
9.99921e-06
1.0008e-05
9.99993e-06
1.00085e-05
1.00001e-05
1.00082e-05
9.99958e-06
1.00096e-05
9.99907e-06
1.00925e-05
1.21369e-05
1.85493e-05
2.1231e-05
2.4119e-05
0.000105559
0.000542339
0.000513187
0.0360838
0.952744
0.999999
0.999999
0.999999
0.999999
0.999999
0.999999
0.999999
0.999999
0.999999
0.999999
0.999999
0.999999
0.999999
0.999999
0.999999
0.999999
0.999999
0.999999
0.999999
0.999999
0.999999
0.999999
0.999999
0.999999
0.999999
0.999999
0.999999
0.999999
0.999999
0.999999
0.999999
0.999999
1
1
1
4.67971e-06
4.21658e-06
4.30854e-06
4.17382e-06
6.18696e-06
8.98364e-06
9.95421e-06
1.00004e-05
9.9972e-06
1.00026e-05
9.99925e-06
1.00038e-05
9.99918e-06
1.00042e-05
9.99761e-06
1.0006e-05
9.99981e-06
1.00051e-05
1.00016e-05
1.00037e-05
1.00025e-05
1.00031e-05
1.00029e-05
1.00029e-05
1.00029e-05
1.00029e-05
1.00029e-05
1.00029e-05
1.00029e-05
1.00029e-05
1.00029e-05
1.00029e-05
1.00029e-05
1.00029e-05
1.00026e-05
1.00035e-05
1.00017e-05
1.00048e-05
1.00003e-05
1.00073e-05
1.00002e-05
1.00085e-05
1.00012e-05
1.00088e-05
1.00027e-05
1.00088e-05
1.00017e-05
1.0009e-05
1.00018e-05
1.001e-05
9.99907e-06
1.00401e-05
1.05275e-05
1.38796e-05
1.47725e-05
2.14472e-05
0.000191681
0.000677583
0.000671936
0.0448011
0.961264
0.999999
0.999999
0.999999
0.999999
0.999999
0.999999
0.999999
0.999999
0.999999
0.999999
0.999999
0.999999
0.999999
0.999999
0.999999
0.999999
0.999999
0.999999
0.999999
0.999999
0.999999
0.999999
0.999999
0.999999
0.999999
0.999999
0.999999
0.999999
0.999999
0.999999
0.999999
0.999999
1
1
1
3.40649e-06
2.96981e-06
2.89432e-06
3.13839e-06
4.82487e-06
8.03556e-06
9.82296e-06
9.99982e-06
9.99713e-06
1.0002e-05
1.00009e-05
1.00038e-05
1.00014e-05
1.00043e-05
9.99934e-06
1.00061e-05
1.00001e-05
1.0006e-05
1.00022e-05
1.00048e-05
1.00033e-05
1.00041e-05
1.00038e-05
1.00039e-05
1.00039e-05
1.00039e-05
1.00039e-05
1.0004e-05
1.0004e-05
1.0004e-05
1.0004e-05
1.0004e-05
1.0004e-05
1.00041e-05
1.00038e-05
1.00047e-05
1.0003e-05
1.0006e-05
1.00016e-05
1.00086e-05
1.00026e-05
1.00089e-05
1.00044e-05
1.00089e-05
1.00056e-05
1.00089e-05
1.00026e-05
1.00094e-05
1.00045e-05
1.001e-05
9.99968e-06
1.00275e-05
1.00163e-05
1.05924e-05
1.15504e-05
4.27585e-05
0.000301269
0.000790254
0.00124652
0.0414027
0.957858
0.999936
0.999999
0.999999
0.999999
0.999999
0.999999
0.999999
0.999999
0.999999
0.999999
0.999999
0.999999
0.999999
0.999999
0.999999
0.999999
0.999999
0.999999
0.999999
0.999999
0.999999
0.999999
0.999999
0.999999
0.999999
0.999999
0.999999
0.999999
0.999999
0.999999
0.999999
0.999999
1
1
1
1.88384e-06
2.80305e-06
2.46844e-06
2.67907e-06
4.10515e-06
7.30025e-06
9.57857e-06
9.99213e-06
9.99902e-06
1.00038e-05
1.0004e-05
1.0004e-05
1.0004e-05
1.00055e-05
1.00056e-05
1.00063e-05
1.00063e-05
1.00063e-05
1.00063e-05
1.00063e-05
1.00063e-05
1.00063e-05
1.00063e-05
1.00063e-05
1.00063e-05
1.00063e-05
1.00063e-05
1.00063e-05
1.00063e-05
1.00063e-05
1.00063e-05
1.00063e-05
1.00063e-05
1.00062e-05
1.00062e-05
1.00062e-05
1.00059e-05
1.00089e-05
1.00089e-05
1.00089e-05
1.00089e-05
1.00089e-05
1.00089e-05
1.00089e-05
1.00089e-05
1.00089e-05
1.00081e-05
1.001e-05
1.001e-05
1.001e-05
1.00026e-05
1.00259e-05
1.00159e-05
1.05655e-05
1.37039e-05
6.4078e-05
0.000213665
0.000692521
0.00100324
0.0388754
0.939712
0.999565
0.999999
0.999999
0.999999
0.999999
0.999999
0.999999
0.999999
0.999999
0.999999
0.999999
0.999999
0.999999
0.999999
0.999999
0.999999
0.999999
0.999999
0.999999
0.999999
0.999999
0.999999
0.999999
0.999999
0.999999
0.999999
0.999999
0.999999
0.999999
0.999999
0.999999
0.999999
1
1
1
1.00008e-05
9.99965e-06
1.00009e-05
1.00014e-05
9.99975e-06
1.00017e-05
9.99949e-06
1.00022e-05
1e-05
1.00017e-05
1.00004e-05
1.00014e-05
1.00007e-05
1.00012e-05
1.00009e-05
1.00011e-05
1.0001e-05
1.0001e-05
1.0001e-05
1.0001e-05
1.0001e-05
1.0001e-05
1.0001e-05
1.0001e-05
1.0001e-05
1.0001e-05
1.0001e-05
1.0001e-05
1.00009e-05
1.00009e-05
1.00009e-05
1.00009e-05
1.00009e-05
1.0001e-05
1.00007e-05
1.00015e-05
1.00002e-05
1.00024e-05
9.99949e-06
1.00036e-05
9.9987e-06
1.00055e-05
9.9993e-06
1.00067e-05
1.00009e-05
1.00066e-05
1.00007e-05
1.00056e-05
1.00014e-05
1.00088e-05
1.00064e-05
1.00211e-05
1.01195e-05
1.2175e-05
2.01952e-05
3.89046e-05
0.000106665
0.00068662
0.0031758
0.0648537
0.947176
0.999624
0.999999
0.999999
0.999999
0.999999
0.999999
0.999999
0.999999
0.999999
0.999999
0.999999
0.999999
0.999999
0.999999
0.999999
0.999999
0.999999
0.999999
0.999999
0.999999
0.999999
0.999999
0.999999
0.999999
0.999999
0.999999
0.999999
0.999999
0.999999
0.999999
0.999999
0.999999
1
1
1
1.00008e-05
1.00006e-05
9.99978e-06
1.00014e-05
9.99901e-06
1.00017e-05
9.9989e-06
1.00023e-05
9.99919e-06
1.00023e-05
9.99957e-06
1.00018e-05
1.00001e-05
1.00012e-05
1.00004e-05
1.00008e-05
1.00006e-05
1.00006e-05
1.00006e-05
1.00006e-05
1.00006e-05
1.00006e-05
1.00006e-05
1.00006e-05
1.00006e-05
1.00007e-05
1.00007e-05
1.00007e-05
1.00007e-05
1.00007e-05
1.00007e-05
1.00007e-05
1.00007e-05
1.00008e-05
1.00004e-05
1.00014e-05
9.99957e-06
1.00026e-05
9.99866e-06
1.00043e-05
9.99824e-06
1.00059e-05
9.99908e-06
1.00068e-05
1.00007e-05
1.00067e-05
1.00003e-05
1.00058e-05
9.99992e-06
1.00071e-05
1.00062e-05
1.00615e-05
1.01385e-05
1.04708e-05
1.30563e-05
2.76278e-05
0.000150464
0.000602443
0.00165481
0.0633136
0.963526
0.999972
0.999999
0.999999
0.999999
0.999999
0.999999
0.999999
0.999999
0.999999
0.999999
0.999999
0.999999
0.999999
0.999999
0.999999
0.999999
0.999999
0.999999
0.999999
0.999999
0.999999
0.999999
0.999999
0.999999
0.999999
0.999999
0.999999
0.999999
0.999999
0.999999
0.999999
0.999999
1
1
1
9.98783e-06
1.00012e-05
1.00012e-05
1.00023e-05
1.0001e-05
1.00028e-05
1.00012e-05
1.00032e-05
1.00013e-05
1.00035e-05
1.00016e-05
1.00038e-05
1.00021e-05
1.00037e-05
1.00025e-05
1.00034e-05
1.00029e-05
1.00031e-05
1.0003e-05
1.0003e-05
1.0003e-05
1.0003e-05
1.00031e-05
1.00031e-05
1.00031e-05
1.00031e-05
1.00031e-05
1.00031e-05
1.00031e-05
1.00031e-05
1.00031e-05
1.00031e-05
1.00031e-05
1.00033e-05
1.00029e-05
1.00039e-05
1.0002e-05
1.00052e-05
1.00013e-05
1.00068e-05
1.00026e-05
1.00069e-05
1.00043e-05
1.00069e-05
1.00049e-05
1.00069e-05
1.00031e-05
1.00074e-05
1.00015e-05
1.00293e-05
1.06077e-05
1.37604e-05
1.95715e-05
2.07467e-05
2.77583e-05
4.29968e-05
6.2439e-05
0.000434249
0.000741509
0.0588687
0.960857
0.999999
0.999999
0.999999
0.999999
0.999999
0.999999
0.999999
0.999999
0.999999
0.999999
0.999999
0.999999
0.999999
0.999999
0.999999
0.999999
0.999999
0.999999
0.999999
0.999999
0.999999
0.999999
0.999999
0.999999
0.999999
0.999999
0.999999
0.999999
0.999999
0.999999
0.999999
0.999999
1
1
1
9.89401e-06
9.99684e-06
1.00022e-05
1.00023e-05
1.00023e-05
1.00029e-05
1.00029e-05
1.00032e-05
1.00032e-05
1.00036e-05
1.00036e-05
1.0004e-05
1.0004e-05
1.00044e-05
1.00041e-05
1.00049e-05
1.00045e-05
1.0005e-05
1.00049e-05
1.0005e-05
1.0005e-05
1.00051e-05
1.00052e-05
1.00052e-05
1.00053e-05
1.00053e-05
1.00054e-05
1.00054e-05
1.00055e-05
1.00056e-05
1.00056e-05
1.00057e-05
1.00057e-05
1.00059e-05
1.00056e-05
1.00064e-05
1.00055e-05
1.00069e-05
1.00069e-05
1.00069e-05
1.00069e-05
1.00069e-05
1.00069e-05
1.00069e-05
1.00069e-05
1.00069e-05
1.00039e-05
1.00074e-05
1.00044e-05
1.02749e-05
2.36823e-05
4.5569e-05
4.72643e-05
5.18885e-05
6.59814e-05
7.75231e-05
0.000105837
0.000321087
0.000277571
0.067162
0.95558
0.999999
0.999991
0.999999
0.999999
0.999999
0.999999
0.999999
0.999999
0.999999
0.999999
0.999999
0.999999
0.999999
0.999999
0.999999
0.999999
0.999999
0.999999
0.999999
0.999999
0.999999
0.999999
0.999999
0.999999
0.999999
0.999999
0.999999
0.999999
0.999999
0.999999
0.999999
0.999999
1
1
1
9.7378e-06
9.97979e-06
1.00004e-05
1.00023e-05
1.00015e-05
1.00029e-05
1.00019e-05
1.00032e-05
1.00029e-05
1.00036e-05
1.00034e-05
1.00039e-05
1.00039e-05
1.00044e-05
1.00044e-05
1.00049e-05
1.00049e-05
1.00052e-05
1.00052e-05
1.00055e-05
1.00055e-05
1.00057e-05
1.00058e-05
1.00059e-05
1.00059e-05
1.0006e-05
1.0006e-05
1.00066e-05
1.0007e-05
1.00069e-05
1.00069e-05
1.00069e-05
1.00069e-05
1.00069e-05
1.00069e-05
1.00069e-05
1.00069e-05
1.00069e-05
1.00069e-05
1.00069e-05
1.00069e-05
1.00069e-05
1.00069e-05
1.00069e-05
1.00069e-05
1.00069e-05
1.00054e-05
1.0009e-05
1.0016e-05
1.25091e-05
5.08103e-05
0.000104007
0.000120937
0.000128603
0.000131137
0.000132977
0.000127071
0.000130582
8.53947e-05
0.126798
0.986102
0.999387
0.999532
0.999772
0.999843
0.9999
0.999919
0.99992
0.999918
0.999915
0.999914
0.999918
0.999921
0.99992
0.999929
0.999954
0.999969
0.99998
0.999987
0.99999
0.999995
0.999998
0.999999
0.999999
0.999999
0.999999
0.999999
0.999999
0.999999
0.999999
0.999999
0.999999
0.999999
1
1
1
9.60065e-06
9.95871e-06
9.98916e-06
9.98681e-06
9.99813e-06
1.00017e-05
9.99623e-06
1.00019e-05
9.9985e-06
1.00035e-05
9.99966e-06
1.00039e-05
1.00006e-05
1.00039e-05
1.00014e-05
1.00045e-05
1.00024e-05
1.00046e-05
1.00035e-05
1.00042e-05
1.00041e-05
1.00043e-05
1.00043e-05
1.00044e-05
1.00044e-05
1.00045e-05
1.00045e-05
1.00045e-05
1.00045e-05
1.00045e-05
1.00046e-05
1.00046e-05
1.00046e-05
1.00048e-05
1.00046e-05
1.00056e-05
1.00047e-05
1.00064e-05
1.00051e-05
1.00069e-05
1.0006e-05
1.00069e-05
1.00066e-05
1.00069e-05
1.00066e-05
1.00069e-05
1.00049e-05
1.00084e-05
1.00162e-05
1.12959e-05
3.70061e-05
9.82936e-05
0.000131924
0.000143155
0.00014316
0.000139717
9.14161e-05
5.07497e-05
1.0022e-05
0.268705
0.975196
0.988388
0.98872
0.989664
0.990128
0.991485
0.992814
0.993233
0.99279
0.991185
0.990485
0.990395
0.991257
0.992074
0.992911
0.993964
0.994908
0.995789
0.996456
0.996945
0.997418
0.997975
0.998576
0.999138
0.999515
0.999753
0.999883
0.999952
0.999986
0.999998
0.999999
0.999999
1
1
1
1
9.45279e-06
9.85664e-06
9.86629e-06
9.8216e-06
9.99061e-06
9.9982e-06
9.9909e-06
9.99784e-06
9.99338e-06
1.00008e-05
9.99571e-06
1.00012e-05
9.99738e-06
9.99932e-06
9.99769e-06
9.99972e-06
9.99846e-06
1.00002e-05
9.9994e-06
9.99991e-06
9.99983e-06
9.99995e-06
9.99995e-06
9.99996e-06
9.99996e-06
9.99996e-06
9.99997e-06
9.99997e-06
9.99997e-06
9.99998e-06
9.99997e-06
9.99997e-06
9.99996e-06
1e-05
9.99987e-06
1.00002e-05
9.99964e-06
1.00006e-05
9.99946e-06
1.00019e-05
9.99942e-06
1.00034e-05
9.99977e-06
1.00049e-05
1.00002e-05
1.00062e-05
1.00004e-05
1.00047e-05
1.00012e-05
1.00012e-05
1.11518e-05
3.40496e-05
4.59326e-05
4.92854e-05
6.16735e-05
0.000149781
0.00028125
0.000194906
1.0022e-05
0.424704
0.949508
0.956298
0.954226
0.954254
0.954299
0.95582
0.957737
0.957804
0.955729
0.948713
0.943534
0.942444
0.945065
0.949664
0.951642
0.952608
0.954112
0.955769
0.956444
0.956525
0.956647
0.958216
0.962263
0.96717
0.971509
0.975194
0.978631
0.982162
0.985723
0.989168
0.992409
0.995591
0.997983
0.999506
0.999795
0.999992
8.98949e-06
9.58254e-06
9.45104e-06
9.3371e-06
9.94865e-06
9.99367e-06
9.98681e-06
9.99689e-06
9.99097e-06
9.99908e-06
9.99419e-06
9.99943e-06
9.9959e-06
9.99724e-06
9.99617e-06
9.99677e-06
9.99677e-06
9.99726e-06
9.99726e-06
9.99741e-06
9.99748e-06
9.99762e-06
9.99763e-06
9.99764e-06
9.99764e-06
9.99764e-06
9.99764e-06
9.99764e-06
9.99765e-06
9.99765e-06
9.99765e-06
9.99765e-06
9.99765e-06
9.99766e-06
9.99766e-06
9.99766e-06
9.99766e-06
9.99774e-06
9.99773e-06
9.99869e-06
9.99781e-06
9.99979e-06
9.99802e-06
1.00012e-05
9.99839e-06
1.00022e-05
9.99819e-06
1.00019e-05
9.99827e-06
1.00041e-05
1.00009e-05
1.01189e-05
1.39076e-05
5.38161e-05
0.000151511
0.000197842
0.000178096
0.000140764
1.0022e-05
0.436529
0.946423
0.952873
0.950882
0.951011
0.951636
0.952088
0.952425
0.951739
0.949161
0.944188
0.939588
0.937067
0.93581
0.934282
0.931827
0.92911
0.92678
0.924545
0.921415
0.915936
0.910128
0.905145
0.900605
0.896925
0.893799
0.889835
0.884693
0.878758
0.871666
0.863841
0.856143
0.847657
0.836249
0.81714
0.771938
0.58636
8.54949e-06
9.20962e-06
8.85768e-06
8.59188e-06
9.73551e-06
9.97109e-06
9.98514e-06
9.99821e-06
9.99097e-06
9.99931e-06
9.99527e-06
1.00003e-05
9.99636e-06
9.99926e-06
9.99678e-06
9.99787e-06
9.99737e-06
9.99831e-06
9.99761e-06
9.99878e-06
9.99828e-06
9.99859e-06
9.99853e-06
9.99854e-06
9.99853e-06
9.99852e-06
9.99851e-06
9.9985e-06
9.99849e-06
9.99848e-06
9.99847e-06
9.99846e-06
9.99844e-06
9.99851e-06
9.99827e-06
9.99888e-06
9.99802e-06
9.99974e-06
9.99799e-06
1.00005e-05
9.99805e-06
1.00015e-05
9.99839e-06
1.00028e-05
9.99868e-06
1.00037e-05
9.99849e-06
1.00031e-05
9.99827e-06
1.00031e-05
9.99907e-06
1.00172e-05
1.31231e-05
4.87702e-05
9.39096e-05
0.000105026
0.000156743
0.000252172
1.0022e-05
0.253577
0.984154
0.996165
0.997361
0.998562
0.998794
0.99884
0.998789
0.998519
0.998193
0.997996
0.998022
0.998228
0.998322
0.998329
0.998003
0.997759
0.997507
0.997218
0.996922
0.996754
0.996725
0.996724
0.996878
0.996952
0.996907
0.996837
0.996579
0.996328
0.99639
0.996923
0.997496
0.998021
0.998601
0.999242
0.999718
0.999837
8.19798e-06
8.72554e-06
8.19824e-06
7.66601e-06
9.08952e-06
9.81131e-06
9.97882e-06
9.99725e-06
9.99066e-06
9.99654e-06
9.99436e-06
1.00003e-05
9.9961e-06
9.99927e-06
9.99576e-06
9.99783e-06
9.99602e-06
9.99825e-06
9.99644e-06
9.99841e-06
9.99747e-06
9.9979e-06
9.99777e-06
9.99777e-06
9.99774e-06
9.99771e-06
9.99768e-06
9.99765e-06
9.99761e-06
9.99758e-06
9.99755e-06
9.99751e-06
9.99748e-06
9.99751e-06
9.9973e-06
9.99792e-06
9.99721e-06
9.99874e-06
9.99727e-06
9.99924e-06
9.99744e-06
1.00001e-05
9.99782e-06
1.00013e-05
9.99805e-06
1.00022e-05
9.99819e-06
1.00014e-05
9.99827e-06
1.00026e-05
9.99906e-06
1.00191e-05
1.068e-05
2.22626e-05
4.52572e-05
3.72237e-05
5.38394e-05
0.00034816
3.12733e-05
0.159591
0.991634
0.999974
0.999986
0.999997
0.999997
0.999997
0.999997
0.999997
0.999997
0.999996
0.999995
0.999995
0.999995
0.999995
0.999995
0.999994
0.999994
0.999993
0.999993
0.999993
0.999993
0.999994
0.999995
0.999995
0.999996
0.999997
0.999998
0.999998
0.999999
0.999999
0.999999
0.999999
1
1
1
1
8.0848e-06
7.92938e-06
7.27923e-06
6.66202e-06
7.98929e-06
9.36565e-06
9.93966e-06
9.99693e-06
9.99066e-06
9.99574e-06
9.99437e-06
9.99893e-06
9.9966e-06
9.99908e-06
9.99587e-06
9.99783e-06
9.99606e-06
9.99806e-06
9.9964e-06
9.99832e-06
9.9974e-06
9.99789e-06
9.99771e-06
9.99771e-06
9.99768e-06
9.99764e-06
9.99761e-06
9.99757e-06
9.99754e-06
9.9975e-06
9.99746e-06
9.99742e-06
9.99737e-06
9.99739e-06
9.99718e-06
9.99786e-06
9.99711e-06
9.99866e-06
9.99719e-06
9.99913e-06
9.99741e-06
9.99996e-06
9.99776e-06
1.00011e-05
9.99792e-06
1.0002e-05
9.99814e-06
1.0001e-05
9.99827e-06
1.0002e-05
9.99907e-06
1.00215e-05
1.0741e-05
1.56609e-05
2.1727e-05
2.38835e-05
5.7274e-05
0.000410531
0.000106655
0.0765903
0.950053
0.999999
0.999999
0.999999
0.999999
0.999999
0.999999
0.999999
0.999999
0.999999
0.999999
0.999999
0.999999
0.999999
0.999999
0.999999
0.999999
0.999999
0.999999
0.999999
0.999999
0.999999
0.999999
0.999999
0.999999
0.999999
0.999999
0.999999
0.999999
0.999999
0.999999
0.999999
0.999999
1
1
1
7.50902e-06
6.60418e-06
6.16333e-06
5.7532e-06
6.66045e-06
8.46973e-06
9.77352e-06
9.99217e-06
9.98989e-06
9.99452e-06
9.99356e-06
9.998e-06
9.99647e-06
9.99828e-06
9.99618e-06
9.99782e-06
9.99609e-06
9.99775e-06
9.99629e-06
9.99807e-06
9.99726e-06
9.99788e-06
9.99765e-06
9.99767e-06
9.99762e-06
9.99758e-06
9.99755e-06
9.99752e-06
9.99749e-06
9.99746e-06
9.99742e-06
9.99737e-06
9.99732e-06
9.99736e-06
9.99715e-06
9.99787e-06
9.99694e-06
9.99879e-06
9.99712e-06
9.99937e-06
9.99741e-06
1.00001e-05
9.99764e-06
1.00013e-05
9.99785e-06
1.00024e-05
9.99814e-06
1.00009e-05
9.99827e-06
1.00025e-05
9.99907e-06
1.00281e-05
1.04555e-05
1.14708e-05
1.12021e-05
1.81346e-05
8.51747e-05
0.000476087
0.000218998
0.0477867
0.961201
0.999999
0.999999
0.999999
0.999999
0.999999
0.999999
0.999999
0.999999
0.999999
0.999999
0.999999
0.999999
0.999999
0.999999
0.999999
0.999999
0.999999
0.999999
0.999999
0.999999
0.999999
0.999999
0.999999
0.999999
0.999999
0.999999
0.999999
0.999999
0.999999
0.999999
0.999999
0.999999
1
1
1
6.36007e-06
5.45184e-06
5.08573e-06
4.98293e-06
5.51069e-06
7.16454e-06
9.36796e-06
9.97328e-06
9.98936e-06
9.99401e-06
9.9933e-06
9.99706e-06
9.99611e-06
9.99711e-06
9.99591e-06
9.99716e-06
9.99582e-06
9.99652e-06
9.99583e-06
9.99685e-06
9.99642e-06
9.9973e-06
9.99711e-06
9.99715e-06
9.99715e-06
9.99716e-06
9.99716e-06
9.99716e-06
9.99717e-06
9.99717e-06
9.99717e-06
9.99717e-06
9.99716e-06
9.99725e-06
9.99706e-06
9.99783e-06
9.99692e-06
9.99877e-06
9.99712e-06
9.99954e-06
9.99741e-06
1.00005e-05
9.99764e-06
1.00017e-05
9.99785e-06
1.00028e-05
9.99814e-06
1.00012e-05
9.99827e-06
1.0003e-05
9.99907e-06
1.00158e-05
1.01187e-05
1.03444e-05
1.06639e-05
1.58077e-05
0.000137134
0.000574802
0.000722424
0.0381708
0.961336
0.999999
0.999999
0.999999
0.999999
0.999999
0.999999
0.999999
0.999999
0.999999
0.999999
0.999999
0.999999
0.999999
0.999999
0.999999
0.999999
0.999999
0.999999
0.999999
0.999999
0.999999