/*--------------------------------*- C++ -*----------------------------------*\
| =========                 |                                                 |
| \\      /  F ield         | OpenFOAM: The Open Source CFD Toolbox           |
|  \\    /   O peration     | Version:  2.3.0                                 |
|   \\  /    A nd           | Web:      www.OpenFOAM.org                      |
|    \\/     M anipulation  |                                                 |
\*---------------------------------------------------------------------------*/
FoamFile
{
    version     2.0;
    format      ascii;
    class       volScalarField;
    location    "4";
    object      epsilon.water;
}
// * * * * * * * * * * * * * * * * * * * * * * * * * * * * * * * * * * * * * //

dimensions      [0 2 -3 0 0 0 0];

internalField   nonuniform List<scalar> 
6144
(
6.48592e-07
6.29696e-07
6.32818e-07
5.99733e-07
5.89502e-07
5.81789e-07
5.67217e-07
5.64971e-07
5.5372e-07
5.52294e-07
5.44975e-07
5.43229e-07
5.39016e-07
5.37148e-07
5.34826e-07
5.33266e-07
5.31863e-07
5.30757e-07
5.29841e-07
5.29092e-07
5.28475e-07
5.27966e-07
5.27544e-07
5.27191e-07
5.26895e-07
5.26643e-07
5.26426e-07
5.26238e-07
5.26072e-07
5.25924e-07
5.25789e-07
5.25661e-07
5.25535e-07
5.25412e-07
5.253e-07
5.25139e-07
5.25217e-07
5.24836e-07
5.25729e-07
5.24882e-07
5.28077e-07
5.26686e-07
5.34774e-07
5.33299e-07
5.49509e-07
5.48848e-07
5.76503e-07
5.75906e-07
6.42804e-07
9.78996e-07
6.32891e-06
5.89137e-05
0.000278756
0.000659927
0.00100856
0.00143004
0.00192945
0.00313846
0.00804764
0.0151377
0.0553837
0.0271596
0.017041
0.0110343
0.00798882
0.00613624
0.00487694
0.00394406
0.00330009
0.00281296
0.00223467
0.00167113
0.00122406
0.000773912
0.000366018
0.000124269
3.42273e-05
1.0053e-05
4.09465e-06
2.48014e-06
1.93202e-06
1.6728e-06
1.50866e-06
1.38564e-06
1.28355e-06
1.19378e-06
1.1123e-06
1.03882e-06
9.73034e-07
9.05698e-07
8.39099e-07
7.7367e-07
7.10132e-07
6.48217e-07
5.94076e-07
5.55832e-07
3.796e-07
5.28912e-07
5.97929e-07
5.92389e-07
5.98179e-07
5.91222e-07
5.78751e-07
5.77236e-07
5.65155e-07
5.64124e-07
5.55397e-07
5.53583e-07
5.48013e-07
5.45668e-07
5.42289e-07
5.39988e-07
5.37721e-07
5.35812e-07
5.34098e-07
5.32576e-07
5.31204e-07
5.29962e-07
5.28829e-07
5.27785e-07
5.26815e-07
5.25906e-07
5.25046e-07
5.24227e-07
5.23441e-07
5.2268e-07
5.21939e-07
5.21213e-07
5.20493e-07
5.19776e-07
5.1908e-07
5.1832e-07
5.17781e-07
5.16845e-07
5.1691e-07
5.15662e-07
5.17479e-07
5.15952e-07
5.21643e-07
5.20279e-07
5.32837e-07
5.32366e-07
5.55084e-07
5.59855e-07
8.07599e-07
5.36062e-06
7.77412e-05
0.000461433
0.00115623
0.00196793
0.00313247
0.00444103
0.00649802
0.00768936
0.0107381
0.0122621
0.0316551
0.00530733
0.00451535
0.00379432
0.00347079
0.00321412
0.00286584
0.00254161
0.0022147
0.00180058
0.00135224
0.00106929
0.000847235
0.000469448
0.000163848
4.59984e-05
1.52788e-05
7.16911e-06
4.54473e-06
3.24652e-06
2.42912e-06
1.89174e-06
1.53702e-06
1.30187e-06
1.14189e-06
1.02722e-06
9.38091e-07
8.61542e-07
7.98862e-07
7.52142e-07
7.04902e-07
6.56496e-07
6.08359e-07
5.6088e-07
5.17805e-07
5.27739e-07
2.87343e-07
3.51767e-07
4.40162e-07
4.57153e-07
5.24948e-07
5.16769e-07
5.26333e-07
5.19666e-07
5.18606e-07
5.14153e-07
5.11215e-07
5.07822e-07
5.05037e-07
5.02217e-07
4.99887e-07
4.97555e-07
4.95535e-07
4.93565e-07
4.91757e-07
4.9004e-07
4.88416e-07
4.86869e-07
4.8539e-07
4.83968e-07
4.82595e-07
4.81267e-07
4.79975e-07
4.78716e-07
4.77483e-07
4.76272e-07
4.75082e-07
4.73909e-07
4.7275e-07
4.71608e-07
4.7047e-07
4.69378e-07
4.68259e-07
4.67208e-07
4.66533e-07
4.65343e-07
4.66273e-07
4.64848e-07
4.695e-07
4.68099e-07
4.79198e-07
4.78227e-07
4.99563e-07
5.42593e-07
2.63714e-06
7.55448e-05
0.000783368
0.00211394
0.00290987
0.00339467
0.00447856
0.00581666
0.00775515
0.00874374
0.00600404
0.00747074
0.0231913
0.0024009
0.00184956
0.00184527
0.00186408
0.00180147
0.0016558
0.00138245
0.00104085
0.000803601
0.000664625
0.000507324
0.000288447
0.000113583
4.47731e-05
3.20681e-05
3.02714e-05
2.63788e-05
2.03463e-05
1.39201e-05
9.03958e-06
5.71231e-06
3.60347e-06
2.33115e-06
1.57266e-06
1.14136e-06
9.08727e-07
7.80562e-07
6.95386e-07
6.31302e-07
5.86264e-07
5.45315e-07
5.04982e-07
4.7142e-07
4.31324e-07
4.84295e-07
3.2718e-07
3.25559e-07
2.80086e-07
2.90305e-07
3.67949e-07
3.43954e-07
3.87224e-07
3.64575e-07
3.86794e-07
3.7197e-07
3.83835e-07
3.75903e-07
3.81318e-07
3.77456e-07
3.79122e-07
3.77121e-07
3.77011e-07
3.75785e-07
3.74865e-07
3.73712e-07
3.72528e-07
3.71282e-07
3.69999e-07
3.68691e-07
3.67365e-07
3.66029e-07
3.64687e-07
3.63344e-07
3.62006e-07
3.60673e-07
3.59347e-07
3.58032e-07
3.56725e-07
3.55435e-07
3.54131e-07
3.5306e-07
3.51568e-07
3.50837e-07
3.49518e-07
3.48843e-07
3.48937e-07
3.47914e-07
3.51532e-07
3.50214e-07
3.59513e-07
3.58278e-07
3.79615e-07
5.77465e-07
1.56463e-05
0.000495047
0.00285459
0.00485064
0.0048988
0.00535132
0.00713847
0.00863758
0.0129417
0.0126546
0.00440091
0.00455593
0.0184408
0.00200045
0.00111194
0.00108193
0.00105021
0.000703307
0.000578148
0.00047872
0.000408913
0.00035529
0.000297265
0.000233337
0.000201385
0.000203874
0.000253898
0.000266784
0.000248853
0.000199912
0.000149455
0.000102974
6.95076e-05
4.41912e-05
2.60242e-05
1.40718e-05
7.04191e-06
3.31756e-06
1.6555e-06
9.62889e-07
6.6228e-07
5.35104e-07
4.71286e-07
4.30325e-07
3.95055e-07
3.66762e-07
3.37038e-07
4.56788e-07
4.89586e-07
3.87339e-07
2.2723e-07
2.36461e-07
2.44104e-07
2.21755e-07
2.46564e-07
2.20606e-07
2.47436e-07
2.27918e-07
2.48518e-07
2.37294e-07
2.49857e-07
2.44899e-07
2.51133e-07
2.49609e-07
2.51972e-07
2.51878e-07
2.52552e-07
2.52659e-07
2.52704e-07
2.52587e-07
2.52365e-07
2.52056e-07
2.51676e-07
2.51241e-07
2.50759e-07
2.50244e-07
2.49707e-07
2.4915e-07
2.48583e-07
2.48012e-07
2.4744e-07
2.46885e-07
2.46322e-07
2.45891e-07
2.45283e-07
2.44972e-07
2.44769e-07
2.4428e-07
2.45585e-07
2.44658e-07
2.49122e-07
2.477e-07
2.57322e-07
2.55476e-07
2.86506e-07
1.5346e-06
0.000107225
0.001424
0.00482044
0.00751032
0.00673115
0.00828246
0.0112047
0.0110921
0.0115397
0.0111493
0.00304104
0.0028339
0.010692
0.00181371
0.00119691
0.000827862
0.000701511
0.000598948
0.000581296
0.000581154
0.000624577
0.000702397
0.000822174
0.000951543
0.00102031
0.00103746
0.00094463
0.000827405
0.000711419
0.000597984
0.00050121
0.000404659
0.000324584
0.000250404
0.000183368
0.000123766
7.76567e-05
4.16466e-05
2.01098e-05
9.65166e-06
4.03498e-06
1.80038e-06
7.94476e-07
4.60113e-07
3.52984e-07
3.02856e-07
2.80642e-07
4.64006e-07
8.14686e-07
4.68334e-07
2.1666e-07
2.27626e-07
1.86361e-07
1.84574e-07
1.69304e-07
1.64637e-07
1.62218e-07
1.57045e-07
1.60325e-07
1.56427e-07
1.61042e-07
1.58991e-07
1.62519e-07
1.62105e-07
1.63973e-07
1.64431e-07
1.6539e-07
1.66016e-07
1.66634e-07
1.67147e-07
1.67599e-07
1.67997e-07
1.6835e-07
1.68665e-07
1.68952e-07
1.69223e-07
1.6948e-07
1.6972e-07
1.69952e-07
1.70183e-07
1.70415e-07
1.70659e-07
1.70902e-07
1.71212e-07
1.71445e-07
1.7182e-07
1.7232e-07
1.72568e-07
1.7406e-07
1.73983e-07
1.77571e-07
1.77092e-07
1.83996e-07
1.832e-07
2.0846e-07
1.87e-06
0.000117939
0.00123821
0.00385149
0.00612191
0.00651424
0.010012
0.0120347
0.0095034
0.00831754
0.00825601
0.00274745
0.00262615
0.00690185
0.0022114
0.00208476
0.00192754
0.00182563
0.00172213
0.00173006
0.00175875
0.00177179
0.00176374
0.00168076
0.00152533
0.00139424
0.00122478
0.00112383
0.00101694
0.000923756
0.000833543
0.000787039
0.000758374
0.000723221
0.000670893
0.0005958
0.00049907
0.000403964
0.000294077
0.000194187
0.000119732
5.91454e-05
2.8016e-05
8.43529e-06
2.93286e-06
1.07384e-06
4.54666e-07
2.74725e-07
4.54472e-07
1.28974e-06
6.46417e-07
2.57284e-07
2.76403e-07
1.84116e-07
1.89271e-07
1.55834e-07
1.5902e-07
1.41126e-07
1.4414e-07
1.34479e-07
1.36781e-07
1.32339e-07
1.33668e-07
1.32088e-07
1.32921e-07
1.3248e-07
1.33085e-07
1.33249e-07
1.33747e-07
1.34238e-07
1.34789e-07
1.35372e-07
1.35985e-07
1.36623e-07
1.37284e-07
1.37972e-07
1.38687e-07
1.39412e-07
1.40144e-07
1.40887e-07
1.41639e-07
1.42399e-07
1.43164e-07
1.43934e-07
1.44718e-07
1.45524e-07
1.46312e-07
1.47316e-07
1.47995e-07
1.49669e-07
1.50105e-07
1.53198e-07
1.53421e-07
1.58716e-07
1.58956e-07
1.6687e-07
2.12952e-07
7.96563e-06
0.000294801
0.00203224
0.00391509
0.00435089
0.00544855
0.0068099
0.00815627
0.00733066
0.00633585
0.00315364
0.00309362
0.00534607
0.0025095
0.00255007
0.00253998
0.00240674
0.00220787
0.0020871
0.00187532
0.00171091
0.0014986
0.00129891
0.00111503
0.00100893
0.000925745
0.000901259
0.000887148
0.00088493
0.000889941
0.000896665
0.000888957
0.000837155
0.000755499
0.000668034
0.000577357
0.000485307
0.000375585
0.000302451
0.000241552
0.000180878
0.000124243
6.6892e-05
3.77327e-05
1.62669e-05
4.81394e-06
8.23837e-07
5.52651e-07
1.61628e-06
1.48891e-06
3.4835e-07
4.28e-07
2.28361e-07
2.29985e-07
1.80332e-07
1.8005e-07
1.56323e-07
1.58435e-07
1.45461e-07
1.48122e-07
1.41088e-07
1.4285e-07
1.39688e-07
1.40588e-07
1.39569e-07
1.4012e-07
1.40051e-07
1.40505e-07
1.40939e-07
1.41507e-07
1.42122e-07
1.42791e-07
1.43499e-07
1.44243e-07
1.45024e-07
1.45837e-07
1.46676e-07
1.4754e-07
1.48424e-07
1.49322e-07
1.50232e-07
1.51156e-07
1.52084e-07
1.53005e-07
1.53982e-07
1.54866e-07
1.56026e-07
1.56733e-07
1.58458e-07
1.58803e-07
1.61674e-07
1.61628e-07
1.66342e-07
1.66003e-07
1.7307e-07
1.76894e-07
6.92673e-07
3.918e-05
0.000607099
0.00179386
0.00259407
0.00360909
0.00587696
0.00703233
0.00706129
0.00733226
0.00322055
0.00316589
0.00480678
0.00290087
0.0032865
0.00339645
0.00338634
0.00306925
0.00270294
0.0023164
0.00195859
0.00158793
0.00123628
0.000971485
0.000807152
0.000684133
0.000622248
0.000602189
0.000597157
0.000595153
0.000581624
0.000530564
0.000466117
0.000416207
0.000372291
0.000315147
0.000265284
0.000204074
0.000181382
0.000147832
0.00010801
7.5303e-05
4.67277e-05
3.31745e-05
1.85499e-05
7.48681e-06
2.39364e-06
2.19241e-06
1.63277e-06
2.49401e-06
4.4413e-07
6.35554e-07
3.00795e-07
3.15429e-07
2.28014e-07
2.39301e-07
1.90821e-07
1.98251e-07
1.77542e-07
1.80853e-07
1.72212e-07
1.73698e-07
1.70026e-07
1.7073e-07
1.69351e-07
1.69779e-07
1.6946e-07
1.69807e-07
1.7006e-07
1.70493e-07
1.70961e-07
1.71487e-07
1.72062e-07
1.7269e-07
1.7336e-07
1.74065e-07
1.74805e-07
1.75577e-07
1.76379e-07
1.77198e-07
1.78035e-07
1.78901e-07
1.79773e-07
1.80667e-07
1.81559e-07
1.82484e-07
1.83529e-07
1.84336e-07
1.85948e-07
1.86436e-07
1.89213e-07
1.89336e-07
1.9418e-07
1.94037e-07
2.01847e-07
2.03075e-07
3.11219e-07
5.28536e-06
0.000151115
0.000749745
0.00188877
0.00321291
0.00492313
0.00551558
0.00713092
0.0115221
0.0030179
0.0028624
0.00518901
0.00236805
0.00231434
0.0020675
0.0019072
0.00158606
0.00134387
0.00101948
0.000794217
0.000598381
0.000503575
0.000405156
0.000342816
0.000266332
0.000196772
0.00013849
0.000105534
8.38732e-05
6.8092e-05
5.69885e-05
4.87057e-05
4.14051e-05
3.67236e-05
3.24361e-05
2.96532e-05
2.53619e-05
2.18023e-05
1.81906e-05
1.47398e-05
1.15873e-05
8.44529e-06
6.27536e-06
4.29015e-06
2.85611e-06
2.39337e-06
9.74719e-07
1.74949e-06
2.54056e-06
7.25719e-07
1.04794e-06
4.28532e-07
4.39161e-07
3.15372e-07
3.38083e-07
2.59407e-07
2.79371e-07
2.3178e-07
2.42892e-07
2.18929e-07
2.22958e-07
2.12894e-07
2.13817e-07
2.09636e-07
2.09463e-07
2.07722e-07
2.07282e-07
2.06632e-07
2.06314e-07
2.06072e-07
2.05945e-07
2.05906e-07
2.05946e-07
2.06054e-07
2.06218e-07
2.06434e-07
2.06695e-07
2.06998e-07
2.07329e-07
2.07687e-07
2.08079e-07
2.08485e-07
2.08917e-07
2.09382e-07
2.09849e-07
2.10494e-07
2.10874e-07
2.12097e-07
2.12257e-07
2.14688e-07
2.14649e-07
2.1926e-07
2.19179e-07
2.26979e-07
2.27785e-07
2.75404e-07
1.37835e-06
3.87725e-05
0.000325328
0.00124111
0.00244279
0.00381498
0.00440886
0.00748512
0.0126419
0.00298581
0.00266092
0.00535118
0.00117684
0.000941904
0.000730981
0.000645383
0.000479774
0.000399396
0.000259428
0.000189343
0.000145295
0.000125571
0.000102289
8.40674e-05
6.23042e-05
4.22795e-05
2.81964e-05
1.87388e-05
1.32184e-05
9.89029e-06
7.74355e-06
6.29803e-06
5.11483e-06
4.22657e-06
3.515e-06
3.00691e-06
2.56876e-06
2.20537e-06
1.90608e-06
1.64593e-06
1.43659e-06
1.24868e-06
1.11316e-06
1.00305e-06
9.2635e-07
9.16231e-07
8.4152e-07
3.39726e-06
4.85222e-06
2.56039e-06
4.19941e-06
7.56458e-07
5.88691e-07
4.26881e-07
4.62095e-07
3.81436e-07
4.07666e-07
3.59625e-07
3.74784e-07
3.4099e-07
3.48418e-07
3.26528e-07
3.27738e-07
3.15934e-07
3.13744e-07
3.07603e-07
3.04496e-07
3.00909e-07
2.98092e-07
2.95542e-07
2.93304e-07
2.91304e-07
2.895e-07
2.87859e-07
2.86351e-07
2.84956e-07
2.83652e-07
2.82424e-07
2.81264e-07
2.80167e-07
2.79124e-07
2.78125e-07
2.77182e-07
2.76723e-07
2.75706e-07
2.75972e-07
2.74599e-07
2.75797e-07
2.74255e-07
2.76365e-07
2.75258e-07
2.78634e-07
2.78457e-07
2.8386e-07
2.85617e-07
3.0207e-07
7.74038e-07
1.44982e-05
0.000168057
0.000740319
0.00161454
0.00301953
0.00422952
0.00781648
0.0122357
0.00278629
0.00231325
0.00609856
0.000717464
0.000501218
0.000431773
0.000381293
0.000362301
0.000282446
0.00021769
0.000168242
0.000143607
0.000120564
9.09581e-05
6.2399e-05
4.57291e-05
2.77008e-05
1.76958e-05
1.17024e-05
8.06557e-06
5.84624e-06
4.48787e-06
3.64466e-06
3.01501e-06
2.51815e-06
2.09948e-06
1.78681e-06
1.5389e-06
1.33204e-06
1.16951e-06
1.04516e-06
9.46086e-07
8.68287e-07
8.2182e-07
7.99425e-07
7.87056e-07
7.74903e-07
6.85498e-07
1.82628e-05
3.1015e-05
2.14623e-05
2.77767e-05
2.62742e-06
7.33131e-07
5.32799e-07
5.64052e-07
5.26181e-07
5.29029e-07
5.16664e-07
5.19847e-07
5.06911e-07
5.09604e-07
4.98057e-07
4.98337e-07
4.90051e-07
4.88103e-07
4.82613e-07
4.79542e-07
4.75658e-07
4.72415e-07
4.69236e-07
4.66198e-07
4.63277e-07
4.60453e-07
4.57709e-07
4.55033e-07
4.52415e-07
4.49842e-07
4.47305e-07
4.44794e-07
4.42298e-07
4.39811e-07
4.37305e-07
4.34666e-07
4.32489e-07
4.29283e-07
4.27836e-07
4.23805e-07
4.23337e-07
4.18762e-07
4.19389e-07
4.15089e-07
4.17066e-07
4.1402e-07
4.18275e-07
4.17371e-07
4.22742e-07
7.49182e-07
1.01248e-05
0.000123471
0.000566258
0.00120329
0.00216323
0.00351721
0.00751229
0.0123565
0.00359167
0.0026161
0.00740957
0.000749994
0.000599845
0.0010674
0.00110512
0.00107941
0.00100671
0.000830516
0.000608641
0.000489884
0.000436373
0.000355815
0.000235528
0.000134819
5.87895e-05
2.10417e-05
1.24476e-05
8.32754e-06
5.77344e-06
4.35265e-06
3.51575e-06
2.93777e-06
2.49083e-06
2.11396e-06
1.82974e-06
1.60873e-06
1.42759e-06
1.28678e-06
1.18119e-06
1.09749e-06
1.02795e-06
9.82439e-07
9.53537e-07
9.27905e-07
9.07137e-07
7.11389e-07
0.000123391
0.000209479
0.000155317
0.000172886
2.58823e-05
1.40948e-06
7.27992e-07
5.95813e-07
6.13957e-07
5.86422e-07
6.07798e-07
5.98631e-07
6.13175e-07
6.08856e-07
6.1598e-07
6.14436e-07
6.16742e-07
6.16318e-07
6.16485e-07
6.16117e-07
6.15527e-07
6.14843e-07
6.14002e-07
6.13076e-07
6.12066e-07
6.10988e-07
6.09851e-07
6.08661e-07
6.07423e-07
6.06142e-07
6.04819e-07
6.03453e-07
6.02043e-07
6.0059e-07
5.9908e-07
5.97491e-07
5.96055e-07
5.94057e-07
5.93134e-07
5.90453e-07
5.90659e-07
5.87341e-07
5.89466e-07
5.86033e-07
5.9108e-07
5.88435e-07
5.98073e-07
5.97168e-07
6.17673e-07
7.96963e-07
6.00148e-06
7.54162e-05
0.000366627
0.000775652
0.00131234
0.00326199
0.00795939
0.0124396
0.00707093
0.00398585
0.010409
0.00104858
0.000885187
0.00161279
0.00221522
0.00202896
0.00171411
0.00147343
0.00124413
0.0010473
0.000921704
0.000786055
0.000535529
0.000291514
0.000181305
9.92224e-05
3.67937e-05
1.21284e-05
5.42264e-06
3.70874e-06
3.08884e-06
2.66558e-06
2.30696e-06
1.99426e-06
1.74803e-06
1.5434e-06
1.37339e-06
1.23786e-06
1.13411e-06
1.0517e-06
9.83764e-07
9.40727e-07
9.12152e-07
8.85878e-07
8.68888e-07
7.196e-07
0.000334511
0.000480595
0.000441659
0.000372923
0.000125862
7.13226e-06
1.1472e-06
6.65156e-07
6.49318e-07
6.11724e-07
6.33111e-07
6.22893e-07
6.44667e-07
6.39843e-07
6.55274e-07
6.53318e-07
6.62069e-07
6.62806e-07
6.67054e-07
6.68809e-07
6.70957e-07
6.72556e-07
6.73912e-07
6.75062e-07
6.7603e-07
6.76849e-07
6.77546e-07
6.7814e-07
6.78645e-07
6.79078e-07
6.79447e-07
6.79764e-07
6.80038e-07
6.80279e-07
6.80494e-07
6.80687e-07
6.80873e-07
6.80942e-07
6.81537e-07
6.81286e-07
6.83248e-07
6.82585e-07
6.87368e-07
6.86672e-07
6.96451e-07
6.96794e-07
7.14287e-07
7.18646e-07
7.47285e-07
8.1341e-07
2.25453e-06
2.85052e-05
0.00015853
0.000445193
0.000924075
0.00376233
0.00783733
0.013851
0.0116853
0.0070342
0.0137862
0.00218133
0.00428611
0.00395863
0.00327853
0.00271178
0.00219522
0.00185228
0.00161449
0.00140401
0.00126968
0.0011727
0.000957724
0.000487716
0.000233145
0.000142101
7.47994e-05
2.84939e-05
9.36876e-06
3.98022e-06
2.5027e-06
2.04223e-06
1.80518e-06
1.61904e-06
1.46043e-06
1.32655e-06
1.21104e-06
1.11028e-06
1.02458e-06
9.53378e-07
8.92638e-07
8.50137e-07
8.1796e-07
7.88161e-07
7.71514e-07
7.50781e-07
0.000318438
0.000401111
0.000498215
0.00036669
0.000153644
1.20686e-05
1.85398e-06
7.7948e-07
6.7592e-07
6.15021e-07
6.31003e-07
6.19387e-07
6.39606e-07
6.35221e-07
6.51059e-07
6.49486e-07
6.59474e-07
6.60693e-07
6.66078e-07
6.6857e-07
6.71681e-07
6.74129e-07
6.76352e-07
6.78349e-07
6.80157e-07
6.8181e-07
6.83336e-07
6.84756e-07
6.86088e-07
6.87348e-07
6.88547e-07
6.89699e-07
6.90811e-07
6.91896e-07
6.92978e-07
6.94006e-07
6.95137e-07
6.96019e-07
6.977e-07
6.98262e-07
7.01556e-07
7.0174e-07
7.08346e-07
7.08584e-07
7.21016e-07
7.22679e-07
7.43512e-07
7.51143e-07
7.80341e-07
8.22422e-07
1.16326e-06
7.39722e-06
3.79015e-05
0.000154553
0.000637289
0.00265125
0.00829434
0.0159762
0.0233645
0.014934
0.022411
0.00606721
0.0064794
0.00473673
0.00371629
0.00322217
0.00278133
0.0024035
0.00211819
0.00184813
0.00162467
0.00146969
0.00118833
0.000607637
0.000242514
0.000130449
7.28294e-05
3.22479e-05
1.21217e-05
4.75805e-06
2.52598e-06
1.82997e-06
1.57371e-06
1.42975e-06
1.31445e-06
1.21446e-06
1.12374e-06
1.04708e-06
9.79609e-07
9.19583e-07
8.66785e-07
8.2639e-07
7.9612e-07
7.71339e-07
7.56503e-07
7.65064e-07
0.000259683
0.000203313
0.000315148
0.000232197
4.49753e-05
6.96654e-06
2.04765e-06
8.81805e-07
6.93583e-07
6.03382e-07
6.0363e-07
5.83582e-07
5.92384e-07
5.8601e-07
5.94672e-07
5.93085e-07
5.99259e-07
6.00461e-07
6.04276e-07
6.0659e-07
6.0924e-07
6.11591e-07
6.13785e-07
6.15869e-07
6.17841e-07
6.19729e-07
6.21549e-07
6.23315e-07
6.25038e-07
6.26728e-07
6.28394e-07
6.30045e-07
6.31686e-07
6.33325e-07
6.3501e-07
6.36588e-07
6.38539e-07
6.39781e-07
6.42669e-07
6.43379e-07
6.48629e-07
6.48842e-07
6.58714e-07
6.59232e-07
6.76362e-07
6.79639e-07
7.04082e-07
7.16285e-07
7.41938e-07
7.82802e-07
9.86739e-07
3.46555e-06
1.45732e-05
5.18632e-05
0.000182431
0.00103857
0.00336084
0.00700161
0.0134518
0.0202022
0.0506287
0.0287533
0.0163913
0.009701
0.00657179
0.00490249
0.00390291
0.00323004
0.00275704
0.00235301
0.00199875
0.00176272
0.00139423
0.000676966
0.000203918
7.11565e-05
3.74891e-05
1.93937e-05
8.81586e-06
4.13512e-06
2.41449e-06
1.84436e-06
1.61834e-06
1.48559e-06
1.37838e-06
1.27931e-06
1.18776e-06
1.10746e-06
1.0366e-06
9.7473e-07
9.21845e-07
8.79236e-07
8.46468e-07
8.21469e-07
8.05618e-07
7.6644e-07
3.32418e-07
3.6803e-07
4.5243e-07
4.47664e-07
4.80107e-07
4.684e-07
4.80773e-07
4.70301e-07
4.76211e-07
4.69258e-07
4.72361e-07
4.68694e-07
4.70289e-07
4.69071e-07
4.69863e-07
4.69853e-07
4.70344e-07
4.7072e-07
4.71161e-07
4.71582e-07
4.71989e-07
4.72371e-07
4.72727e-07
4.73057e-07
4.73362e-07
4.73646e-07
4.73912e-07
4.74161e-07
4.74397e-07
4.74621e-07
4.74841e-07
4.75067e-07
4.75304e-07
4.75562e-07
4.75795e-07
4.76122e-07
4.76564e-07
4.76686e-07
4.78363e-07
4.77538e-07
4.82709e-07
4.80217e-07
4.92487e-07
4.88306e-07
5.11576e-07
5.07301e-07
5.44378e-07
5.40165e-07
6.18686e-07
1.10001e-06
1.16697e-05
0.000117682
0.000447959
0.000911395
0.00159922
0.00271969
0.00440165
0.00572787
0.00838346
0.0146561
0.0289905
0.0183471
0.0127439
0.00926329
0.00718416
0.00585622
0.00495404
0.00425227
0.0036998
0.00325366
0.00269826
0.00211461
0.00168116
0.00122454
0.0006688
0.000253376
7.15812e-05
1.81592e-05
5.57435e-06
2.69065e-06
1.90946e-06
1.62719e-06
1.48522e-06
1.38605e-06
1.30075e-06
1.22185e-06
1.14567e-06
1.0721e-06
1.00086e-06
9.30983e-07
8.63138e-07
7.97164e-07
7.33416e-07
6.71768e-07
6.18012e-07
5.81862e-07
1.98533e-07
2.16566e-07
1.92442e-07
2.10696e-07
2.35941e-07
2.36726e-07
2.47398e-07
2.44554e-07
2.47958e-07
2.45578e-07
2.46895e-07
2.45647e-07
2.46176e-07
2.45927e-07
2.46033e-07
2.46125e-07
2.46204e-07
2.46317e-07
2.4641e-07
2.46498e-07
2.4657e-07
2.46627e-07
2.46668e-07
2.46696e-07
2.46708e-07
2.46707e-07
2.46688e-07
2.46653e-07
2.46612e-07
2.46573e-07
2.46532e-07
2.46496e-07
2.46458e-07
2.46425e-07
2.46313e-07
2.46489e-07
2.46132e-07
2.46607e-07
2.46268e-07
2.46805e-07
2.47204e-07
2.47505e-07
2.49934e-07
2.50157e-07
2.56345e-07
2.57478e-07
2.69657e-07
3.29259e-07
1.72229e-06
2.89779e-05
0.000249114
0.000772491
0.00133196
0.00217102
0.00369446
0.00514488
0.005226
0.00687392
0.0103427
0.0123746
0.035888
0.00524845
0.00905076
0.00720493
0.00513688
0.00390478
0.0031754
0.00273703
0.00254522
0.00239198
0.00207796
0.00174956
0.0015115
0.00113992
0.000611086
0.000227116
6.58652e-05
1.77348e-05
5.44791e-06
2.31328e-06
1.37135e-06
1.00764e-06
8.42924e-07
7.60815e-07
7.15514e-07
6.85554e-07
6.59583e-07
6.31464e-07
6.06105e-07
5.84718e-07
5.65722e-07
5.4785e-07
5.29493e-07
5.14475e-07
5.00504e-07
4.63852e-07
3.32833e-07
2.60552e-07
9.1499e-08
9.94187e-08
9.97612e-08
1.04799e-07
1.05275e-07
1.06205e-07
1.05741e-07
1.05902e-07
1.05609e-07
1.05733e-07
1.05628e-07
1.05916e-07
1.05901e-07
1.06271e-07
1.06341e-07
1.06584e-07
1.06713e-07
1.06853e-07
1.06959e-07
1.07046e-07
1.07111e-07
1.07157e-07
1.07186e-07
1.07199e-07
1.07201e-07
1.07195e-07
1.07179e-07
1.07155e-07
1.07124e-07
1.07087e-07
1.07042e-07
1.07008e-07
1.06932e-07
1.07041e-07
1.06777e-07
1.07087e-07
1.06735e-07
1.07139e-07
1.0693e-07
1.07317e-07
1.07676e-07
1.08083e-07
1.09657e-07
1.1127e-07
1.39034e-07
1.01108e-06
2.59483e-05
0.000354076
0.00156794
0.00289949
0.00347024
0.00415599
0.00575766
0.00813856
0.00744971
0.00893796
0.00856744
0.00866859
0.0296765
0.00399361
0.00819567
0.00466343
0.00312375
0.00235341
0.0020047
0.00177548
0.00160989
0.00153737
0.00150924
0.00148047
0.00137761
0.000969541
0.000418588
0.000155829
8.22464e-05
6.43495e-05
5.21597e-05
3.52703e-05
2.01333e-05
1.05871e-05
5.17219e-06
2.50549e-06
1.32158e-06
8.10463e-07
5.92603e-07
4.96412e-07
4.47458e-07
4.18242e-07
3.96303e-07
3.77203e-07
3.57416e-07
3.38866e-07
3.24402e-07
3.40538e-07
8.7597e-07
6.3473e-07
1.12847e-07
1.26825e-07
8.40852e-08
9.74398e-08
8.01468e-08
8.91189e-08
7.75363e-08
8.30472e-08
7.57822e-08
7.89345e-08
7.47607e-08
7.63611e-08
7.42335e-08
7.48495e-08
7.39402e-08
7.40184e-08
7.37351e-08
7.36686e-08
7.3593e-08
7.35599e-08
7.35501e-08
7.35607e-08
7.35872e-08
7.36268e-08
7.36779e-08
7.37369e-08
7.38009e-08
7.38696e-08
7.3942e-08
7.4016e-08
7.40883e-08
7.41577e-08
7.42186e-08
7.43039e-08
7.43384e-08
7.44485e-08
7.44226e-08
7.45955e-08
7.44626e-08
7.47896e-08
7.45005e-08
7.51384e-08
7.46542e-08
7.70699e-08
1.47966e-07
5.70464e-06
0.000176078
0.00117251
0.00318838
0.00531863
0.00601223
0.00805234
0.0111231
0.0161402
0.0119672
0.0158225
0.0102268
0.00912191
0.0324539
0.00385087
0.00301413
0.0021381
0.00238818
0.0015633
0.0013208
0.00128961
0.00135957
0.00147717
0.00158898
0.00162896
0.00143362
0.00107006
0.00092187
0.000921115
0.000887855
0.000778352
0.000641412
0.0004778
0.000335783
0.000210542
0.000112961
5.48973e-05
2.52807e-05
1.13375e-05
4.83589e-06
2.09747e-06
9.66429e-07
5.37851e-07
3.73467e-07
2.99066e-07
2.6017e-07
2.37007e-07
2.31819e-07
2.15166e-07
1.83766e-06
1.04806e-06
2.37518e-07
3.22381e-07
1.4173e-07
1.89231e-07
1.17356e-07
1.46811e-07
1.02854e-07
1.21281e-07
9.44598e-08
1.0552e-07
9.03599e-08
9.63874e-08
8.86786e-08
9.13672e-08
8.81324e-08
8.89171e-08
8.80031e-08
8.81277e-08
8.81287e-08
8.83231e-08
8.86033e-08
8.89689e-08
8.94e-08
8.9886e-08
9.04222e-08
9.09984e-08
9.16046e-08
9.22378e-08
9.28908e-08
9.35565e-08
9.42251e-08
9.48808e-08
9.55245e-08
9.61613e-08
9.68012e-08
9.73533e-08
9.78825e-08
9.84428e-08
9.85584e-08
9.94252e-08
9.86048e-08
1.00319e-07
9.78237e-08
1.04203e-07
3.31317e-07
2.57661e-05
0.000484552
0.00211045
0.00464904
0.00970661
0.0120815
0.0149809
0.0184872
0.0209188
0.0179889
0.0192806
0.00998323
0.00982305
0.0411727
0.00377153
0.00299171
0.00248647
0.00257653
0.00218884
0.00216991
0.00223464
0.00250695
0.00281261
0.00317184
0.00341936
0.00362732
0.00375081
0.00380361
0.00369668
0.00347331
0.00315624
0.00278869
0.00236383
0.0019436
0.00151304
0.00111006
0.000739475
0.000470424
0.000275064
0.000139797
7.19952e-05
3.19469e-05
1.25072e-05
4.05926e-06
1.34338e-06
5.70394e-07
3.39355e-07
2.46526e-07
2.40861e-07
4.70236e-06
1.49529e-06
7.06728e-07
9.77123e-07
3.79674e-07
4.81069e-07
2.80585e-07
3.37526e-07
2.23544e-07
2.64522e-07
1.89639e-07
2.19562e-07
1.74593e-07
1.93171e-07
1.69207e-07
1.78637e-07
1.68361e-07
1.72091e-07
1.69448e-07
1.70861e-07
1.716e-07
1.73131e-07
1.7496e-07
1.77121e-07
1.79535e-07
1.8216e-07
1.84994e-07
1.87997e-07
1.91131e-07
1.94396e-07
1.97773e-07
2.01236e-07
2.04761e-07
2.08267e-07
2.11821e-07
2.15158e-07
2.19007e-07
2.21787e-07
2.25697e-07
2.28077e-07
2.31129e-07
2.33937e-07
2.34487e-07
2.39446e-07
2.35312e-07
2.46865e-07
3.69694e-07
1.4407e-05
0.000315733
0.0015837
0.00347897
0.00717804
0.0101604
0.016528
0.019538
0.0184216
0.0170304
0.0165611
0.00775927
0.00778689
0.0469398
0.00553395
0.00520487
0.0053571
0.00556657
0.00562986
0.00583796
0.00607824
0.0064857
0.00679825
0.00700412
0.00708694
0.0070788
0.00684077
0.00658164
0.00637931
0.00614784
0.00598438
0.00589936
0.00578172
0.00558573
0.00525315
0.00480124
0.00424528
0.00363836
0.00292761
0.00219884
0.0014974
0.000862446
0.000410788
0.000150921
5.6881e-05
2.06674e-05
4.79679e-06
1.04391e-06
2.30048e-07
8.41678e-06
3.23366e-06
2.03732e-06
2.78246e-06
1.01631e-06
1.03151e-06
7.02734e-07
6.8952e-07
5.49122e-07
5.64979e-07
4.52086e-07
4.88048e-07
4.1325e-07
4.4389e-07
4.0185e-07
4.21344e-07
4.02965e-07
4.13395e-07
4.1012e-07
4.16221e-07
4.2039e-07
4.26608e-07
4.33459e-07
4.41121e-07
4.49363e-07
4.58052e-07
4.67189e-07
4.76708e-07
4.86573e-07
4.97084e-07
5.08253e-07
5.19925e-07
5.31987e-07
5.44178e-07
5.56645e-07
5.68197e-07
5.82146e-07
5.91977e-07
6.07431e-07
6.1521e-07
6.31113e-07
6.37571e-07
6.5207e-07
6.5976e-07
6.70482e-07
6.83549e-07
6.45684e-07
7.35527e-07
2.13621e-05
0.000398919
0.00240265
0.00493348
0.0053318
0.00612447
0.00878799
0.0107526
0.0105631
0.00822854
0.0107159
0.0108609
0.0364126
0.00595815
0.00591261
0.006344
0.00638894
0.00638906
0.00640122
0.00644203
0.00642644
0.00636628
0.00625246
0.00609356
0.00598862
0.00592332
0.00591422
0.0058893
0.00596303
0.0062511
0.00654819
0.00682337
0.00710893
0.00734913
0.00753751
0.00758454
0.00740473
0.00697004
0.00644433
0.0057389
0.00484699
0.00385167
0.00268357
0.00162443
0.000830637
0.000236921
3.85656e-05
4.90369e-07
1.43814e-05
8.6706e-06
4.70261e-06
6.8009e-06
2.11017e-06
1.61426e-06
1.24067e-06
1.0011e-06
9.75039e-07
8.87026e-07
8.48334e-07
8.44758e-07
7.98678e-07
8.21845e-07
7.90219e-07
8.11792e-07
8.0036e-07
8.16719e-07
8.19499e-07
8.32696e-07
8.43851e-07
8.57697e-07
8.72286e-07
8.88021e-07
9.04502e-07
9.21526e-07
9.39052e-07
9.57019e-07
9.75309e-07
9.93529e-07
1.0115e-06
1.02925e-06
1.04689e-06
1.06457e-06
1.082e-06
1.09905e-06
1.1168e-06
1.13284e-06
1.1518e-06
1.16569e-06
1.1874e-06
1.19803e-06
1.22471e-06
1.23141e-06
1.26647e-06
1.26933e-06
1.31298e-06
1.31273e-06
1.57189e-06
2.83326e-05
0.000420622
0.0017231
0.00291827
0.00382516
0.00672175
0.00949186
0.0116708
0.0122211
0.0106906
0.0107995
0.0356477
0.00629286
0.00698232
0.00792272
0.00834996
0.00852639
0.00841718
0.00817339
0.00790524
0.00756919
0.00714216
0.00673902
0.00637258
0.0060522
0.00588901
0.00580909
0.00577656
0.00583574
0.00591392
0.00591573
0.00605753
0.00615068
0.00622012
0.00620192
0.00612508
0.00593632
0.00574393
0.00538783
0.0048352
0.0042077
0.00350481
0.00280138
0.00191327
0.00111591
0.000528571
0.000265733
1.299e-05
2.23159e-05
9.5831e-06
1.55531e-05
4.25812e-06
2.18861e-06
1.61623e-06
1.12106e-06
1.15191e-06
1.00232e-06
1.03964e-06
9.88241e-07
1.01375e-06
1.0023e-06
1.01667e-06
1.02013e-06
1.03219e-06
1.04141e-06
1.05356e-06
1.06541e-06
1.07781e-06
1.09065e-06
1.10361e-06
1.11684e-06
1.1301e-06
1.14332e-06
1.15644e-06
1.16935e-06
1.18206e-06
1.19465e-06
1.2072e-06
1.21968e-06
1.23211e-06
1.24493e-06
1.25776e-06
1.27142e-06
1.28352e-06
1.29751e-06
1.31036e-06
1.32313e-06
1.33942e-06
1.34886e-06
1.3727e-06
1.37662e-06
1.41454e-06
1.41105e-06
1.47228e-06
1.46302e-06
1.51397e-06
1.89893e-06
2.23241e-05
0.000302842
0.00159553
0.00339049
0.00524396
0.00748373
0.0117022
0.0160161
0.00601573
0.00591741
0.0360696
0.00371615
0.00353169
0.00305618
0.00314759
0.00278712
0.00253776
0.00219473
0.00207104
0.00193969
0.0018805
0.00179718
0.00169529
0.00155752
0.00141551
0.00123686
0.00104698
0.000900996
0.000777688
0.000684849
0.000645257
0.000616025
0.000613324
0.00061116
0.000622736
0.00062221
0.000602729
0.000568714
0.000514495
0.000455383
0.000380524
0.00028859
0.000200194
0.000119752
5.41485e-05
1.2558e-06
1.06441e-05
3.94775e-05
2.14393e-05
3.56329e-05
1.05348e-05
3.41155e-06
1.8084e-06
1.14578e-06
1.17308e-06
1.00694e-06
1.06739e-06
1.00425e-06
1.0532e-06
1.03072e-06
1.06132e-06
1.05762e-06
1.07783e-06
1.08378e-06
1.09856e-06
1.10903e-06
1.12127e-06
1.1331e-06
1.14488e-06
1.15664e-06
1.16814e-06
1.17908e-06
1.18934e-06
1.19909e-06
1.20852e-06
1.21778e-06
1.22701e-06
1.23613e-06
1.24508e-06
1.25423e-06
1.26391e-06
1.2751e-06
1.2836e-06
1.29546e-06
1.30392e-06
1.31477e-06
1.32607e-06
1.33405e-06
1.35257e-06
1.35583e-06
1.38915e-06
1.38619e-06
1.45177e-06
1.44631e-06
1.61398e-06
1.82447e-06
9.22031e-06
0.000136156
0.000877295
0.00234941
0.00382546
0.0063009
0.00969439
0.0134319
0.00500569
0.00475492
0.033087
0.0019693
0.0015077
0.00105981
0.00100423
0.000660386
0.000570109
0.00043597
0.00038905
0.000356047
0.0003477
0.000344601
0.000318127
0.000243004
0.000178986
0.000134412
9.63625e-05
6.85292e-05
4.88663e-05
3.66015e-05
2.97568e-05
2.55516e-05
2.3253e-05
2.13614e-05
2.0155e-05
1.92526e-05
1.8265e-05
1.69291e-05
1.52801e-05
1.35764e-05
1.18152e-05
9.86703e-06
7.88421e-06
6.42324e-06
5.63425e-06
9.92614e-07
4.55142e-05
6.94663e-05
6.12473e-05
8.57697e-05
3.1567e-05
7.46837e-06
2.21395e-06
1.32461e-06