/*--------------------------------*- C++ -*----------------------------------*\
| =========                 |                                                 |
| \\      /  F ield         | OpenFOAM: The Open Source CFD Toolbox           |
|  \\    /   O peration     | Version:  2.3.0                                 |
|   \\  /    A nd           | Web:      www.OpenFOAM.org                      |
|    \\/     M anipulation  |                                                 |
\*---------------------------------------------------------------------------*/
FoamFile
{
    version     2.0;
    format      ascii;
    class       volScalarField;
    location    "4";
    object      nut.water;
}
// * * * * * * * * * * * * * * * * * * * * * * * * * * * * * * * * * * * * * //

dimensions      [0 2 -1 0 0 0 0];

internalField   nonuniform List<scalar> 
6144
(
3.03289e-06
3.00606e-06
3.01264e-06
2.96078e-06
2.94557e-06
2.9341e-06
2.91098e-06
2.90863e-06
2.89067e-06
2.88971e-06
2.87832e-06
2.87677e-06
2.87075e-06
2.86894e-06
2.86626e-06
2.86496e-06
2.86392e-06
2.86342e-06
2.86325e-06
2.86339e-06
2.86376e-06
2.86432e-06
2.86504e-06
2.86589e-06
2.86683e-06
2.86786e-06
2.86895e-06
2.87009e-06
2.87127e-06
2.87249e-06
2.87372e-06
2.87497e-06
2.87622e-06
2.87748e-06
2.87876e-06
2.87994e-06
2.88156e-06
2.88235e-06
2.88545e-06
2.88539e-06
2.89268e-06
2.89164e-06
2.90778e-06
2.90663e-06
2.9372e-06
2.93761e-06
2.98763e-06
2.98842e-06
3.10709e-06
3.63236e-06
6.8983e-06
1.44038e-05
2.39058e-05
3.15788e-05
3.62403e-05
4.06799e-05
4.49777e-05
5.29746e-05
7.28779e-05
9.13748e-05
0.000155192
0.000115828
0.000102865
9.0085e-05
8.19827e-05
7.62833e-05
7.15916e-05
6.71806e-05
6.34017e-05
5.99998e-05
5.53141e-05
4.9703e-05
4.42343e-05
3.78818e-05
3.00219e-05
2.18415e-05
1.52271e-05
1.10407e-05
8.8454e-06
7.82823e-06
7.32368e-06
6.97922e-06
6.67677e-06
6.39189e-06
6.1166e-06
5.84391e-06
5.57487e-06
5.31354e-06
5.0628e-06
4.81019e-06
4.55829e-06
4.30882e-06
4.06651e-06
3.83474e-06
3.63199e-06
3.35167e-06
2.53994e-06
2.84321e-06
2.96822e-06
2.96655e-06
2.98385e-06
2.97896e-06
2.96511e-06
2.96926e-06
2.95538e-06
2.96037e-06
2.95187e-06
2.95546e-06
2.9523e-06
2.95489e-06
2.95554e-06
2.95814e-06
2.96076e-06
2.96403e-06
2.96763e-06
2.97158e-06
2.97579e-06
2.98023e-06
2.98487e-06
2.98967e-06
2.99461e-06
2.99965e-06
3.00479e-06
3.01e-06
3.01526e-06
3.02057e-06
3.02592e-06
3.03129e-06
3.03667e-06
3.04205e-06
3.04747e-06
3.05277e-06
3.05849e-06
3.06343e-06
3.07034e-06
3.07466e-06
3.08505e-06
3.08883e-06
3.10692e-06
3.11106e-06
3.14271e-06
3.14866e-06
3.19989e-06
3.21833e-06
3.68738e-06
7.11441e-06
1.72373e-05
3.07923e-05
4.16457e-05
4.98279e-05
5.8149e-05
6.52711e-05
7.42525e-05
7.85185e-05
8.82481e-05
9.36333e-05
0.000144818
7.82852e-05
7.45679e-05
6.71223e-05
6.69949e-05
6.67902e-05
6.5069e-05
6.29583e-05
6.04769e-05
5.66097e-05
5.10805e-05
4.6456e-05
4.26452e-05
3.5539e-05
2.59324e-05
1.79602e-05
1.33061e-05
1.09783e-05
9.83131e-06
9.06499e-06
8.4209e-06
7.86124e-06
7.37388e-06
6.95225e-06
6.58504e-06
6.25442e-06
5.94865e-06
5.65786e-06
5.38711e-06
5.14173e-06
4.8957e-06
4.64708e-06
4.40448e-06
4.16802e-06
3.95429e-06
3.24708e-06
2.32119e-06
2.48777e-06
2.6859e-06
2.73176e-06
2.87337e-06
2.86902e-06
2.89849e-06
2.89671e-06
2.9063e-06
2.90859e-06
2.91432e-06
2.91864e-06
2.92438e-06
2.92979e-06
2.93623e-06
2.94255e-06
2.94948e-06
2.95645e-06
2.96373e-06
2.97116e-06
2.97875e-06
2.98648e-06
2.99433e-06
3.00227e-06
3.0103e-06
3.0184e-06
3.02657e-06
3.03479e-06
3.04305e-06
3.05135e-06
3.05967e-06
3.06803e-06
3.0764e-06
3.08479e-06
3.09319e-06
3.10167e-06
3.11008e-06
3.11865e-06
3.12803e-06
3.13626e-06
3.14926e-06
3.15697e-06
3.17843e-06
3.18623e-06
3.2223e-06
3.23116e-06
3.29026e-06
3.4074e-06
5.95968e-06
1.81786e-05
3.8923e-05
5.38274e-05
6.00287e-05
6.35998e-05
7.02224e-05
7.69357e-05
8.49191e-05
8.87436e-05
7.93274e-05
8.86071e-05
0.000141399
6.92847e-05
6.28254e-05
5.67625e-05
5.84841e-05
5.89172e-05
5.77875e-05
5.48113e-05
4.95233e-05
4.4452e-05
4.12594e-05
3.78608e-05
3.18547e-05
2.39837e-05
1.81844e-05
1.6698e-05
1.67191e-05
1.63196e-05
1.53199e-05
1.38803e-05
1.23757e-05
1.09415e-05
9.64863e-06
8.5429e-06
7.6211e-06
6.8908e-06
6.34972e-06
5.95109e-06
5.62251e-06
5.32436e-06
5.06051e-06
4.80236e-06
4.54863e-06
4.30807e-06
4.0641e-06
3.06654e-06
2.43285e-06
2.43144e-06
2.31798e-06
2.36048e-06
2.56586e-06
2.52107e-06
2.63809e-06
2.59798e-06
2.66512e-06
2.64363e-06
2.68625e-06
2.68097e-06
2.70828e-06
2.71277e-06
2.73097e-06
2.74e-06
2.75378e-06
2.76471e-06
2.77642e-06
2.78751e-06
2.7985e-06
2.80931e-06
2.81999e-06
2.83059e-06
2.84111e-06
2.85157e-06
2.86199e-06
2.87238e-06
2.88276e-06
2.89312e-06
2.90348e-06
2.91383e-06
2.92419e-06
2.93456e-06
2.94487e-06
2.95582e-06
2.96554e-06
2.97741e-06
2.98759e-06
2.99959e-06
3.01384e-06
3.02483e-06
3.04937e-06
3.05955e-06
3.10072e-06
3.11132e-06
3.18751e-06
3.71619e-06
1.13612e-05
3.54412e-05
6.2979e-05
7.54205e-05
7.62784e-05
7.92082e-05
8.80391e-05
9.43271e-05
0.000107736
0.000107888
7.66355e-05
7.79415e-05
0.000140878
6.89994e-05
5.38082e-05
5.28555e-05
5.02577e-05
4.39866e-05
4.19597e-05
3.97821e-05
3.81615e-05
3.68379e-05
3.49269e-05
3.2216e-05
3.03927e-05
3.00358e-05
3.22538e-05
3.31179e-05
3.27057e-05
3.08177e-05
2.83396e-05
2.54693e-05
2.27497e-05
1.99909e-05
1.71864e-05
1.44264e-05
1.18564e-05
9.58483e-06
7.8563e-06
6.69611e-06
5.94248e-06
5.47454e-06
5.14068e-06
4.85714e-06
4.61027e-06
4.38391e-06
4.1426e-06
2.96775e-06
2.78812e-06
2.58174e-06
2.17373e-06
2.21905e-06
2.25074e-06
2.19735e-06
2.28773e-06
2.22012e-06
2.32115e-06
2.27305e-06
2.35571e-06
2.33441e-06
2.39128e-06
2.39045e-06
2.42677e-06
2.4373e-06
2.46095e-06
2.47633e-06
2.49439e-06
2.51054e-06
2.52652e-06
2.54196e-06
2.55705e-06
2.57185e-06
2.58641e-06
2.60078e-06
2.61499e-06
2.62908e-06
2.64309e-06
2.65702e-06
2.67091e-06
2.68479e-06
2.69865e-06
2.71258e-06
2.72647e-06
2.74086e-06
2.75458e-06
2.76942e-06
2.7847e-06
2.79886e-06
2.82e-06
2.83251e-06
2.86599e-06
2.87667e-06
2.93017e-06
2.93956e-06
3.0744e-06
5.5046e-06
2.25394e-05
5.28153e-05
7.93359e-05
9.31796e-05
9.06255e-05
9.8013e-05
0.000109207
0.00010941
0.000111071
0.000110573
7.25387e-05
7.32812e-05
0.000123688
7.0288e-05
5.9768e-05
5.37405e-05
4.977e-05
4.77891e-05
4.7832e-05
4.83504e-05
4.97277e-05
5.1691e-05
5.41364e-05
5.64262e-05
5.75673e-05
5.7714e-05
5.60531e-05
5.38182e-05
5.13596e-05
4.86082e-05
4.59909e-05
4.28947e-05
3.99427e-05
3.66013e-05
3.29031e-05
2.87378e-05
2.47826e-05
2.05825e-05
1.65429e-05
1.33239e-05
1.03072e-05
8.11377e-06
6.35128e-06
5.30993e-06
4.78383e-06
4.39569e-06
4.18795e-06
2.99867e-06
3.30785e-06
2.75349e-06
2.15153e-06
2.20561e-06
2.07732e-06
2.08817e-06
2.04236e-06
2.04124e-06
2.04443e-06
2.04001e-06
2.06805e-06
2.06832e-06
2.10345e-06
2.11129e-06
2.14267e-06
2.15751e-06
2.18218e-06
2.2009e-06
2.22184e-06
2.24143e-06
2.26106e-06
2.28029e-06
2.29932e-06
2.31816e-06
2.33686e-06
2.35544e-06
2.37394e-06
2.39242e-06
2.41088e-06
2.42931e-06
2.44775e-06
2.46622e-06
2.48475e-06
2.50338e-06
2.52206e-06
2.5411e-06
2.55982e-06
2.57927e-06
2.59944e-06
2.61834e-06
2.64363e-06
2.66101e-06
2.69705e-06
2.71257e-06
2.76542e-06
2.77976e-06
2.92299e-06
6.18028e-06
2.43972e-05
5.31359e-05
7.79225e-05
9.22188e-05
9.51092e-05
0.000110854
0.000118962
0.000110842
0.000106468
0.000106624
7.52842e-05
7.84209e-05
0.00011197
7.95757e-05
7.75123e-05
7.72057e-05
7.6109e-05
7.52771e-05
7.57568e-05
7.64201e-05
7.6858e-05
7.69958e-05
7.60058e-05
7.40788e-05
7.23362e-05
6.97553e-05
6.8252e-05
6.64729e-05
6.48127e-05
6.30337e-05
6.22144e-05
6.14948e-05
6.04764e-05
5.87942e-05
5.63504e-05
5.29194e-05
4.90966e-05
4.3901e-05
3.81328e-05
3.23011e-05
2.53847e-05
1.98015e-05
1.35695e-05
9.80396e-06
7.22215e-06
5.491e-06
4.60017e-06
3.17981e-06
3.85231e-06
3.08844e-06
2.29593e-06
2.37467e-06
2.08726e-06
2.12651e-06
2.01103e-06
2.04344e-06
1.9813e-06
2.01399e-06
1.98476e-06
2.01492e-06
2.00973e-06
2.03523e-06
2.04457e-06
2.06748e-06
2.08312e-06
2.10482e-06
2.12402e-06
2.14523e-06
2.16645e-06
2.1881e-06
2.21003e-06
2.23222e-06
2.25464e-06
2.27727e-06
2.30016e-06
2.32329e-06
2.34658e-06
2.37e-06
2.39358e-06
2.41731e-06
2.44117e-06
2.46515e-06
2.48926e-06
2.51352e-06
2.53804e-06
2.56249e-06
2.58836e-06
2.61234e-06
2.64233e-06
2.66507e-06
2.70357e-06
2.72532e-06
2.77678e-06
2.7991e-06
2.86525e-06
3.14491e-06
1.06648e-05
3.51297e-05
6.6934e-05
8.42228e-05
8.81701e-05
9.61337e-05
0.000104609
0.000111631
0.000108931
0.000104276
8.37535e-05
8.9977e-05
0.000105589
8.98221e-05
9.17e-05
9.30611e-05
9.23345e-05
9.0554e-05
8.95148e-05
8.70994e-05
8.50987e-05
8.21108e-05
7.90313e-05
7.59787e-05
7.40889e-05
7.25678e-05
7.2277e-05
7.22146e-05
7.24996e-05
7.28177e-05
7.30907e-05
7.28635e-05
7.14712e-05
6.92938e-05
6.6798e-05
6.37814e-05
6.02258e-05
5.55566e-05
5.19121e-05
4.80522e-05
4.34731e-05
3.80597e-05
3.07376e-05
2.5296e-05
1.89737e-05
1.2766e-05
7.38908e-06
3.94466e-06
4.15575e-06
4.10464e-06
2.55131e-06
2.77164e-06
2.26308e-06
2.29246e-06
2.13788e-06
2.15882e-06
2.0823e-06
2.11365e-06
2.07623e-06
2.11105e-06
2.09884e-06
2.12997e-06
2.13599e-06
2.16308e-06
2.17998e-06
2.20545e-06
2.22754e-06
2.25265e-06
2.27773e-06
2.30369e-06
2.33005e-06
2.35685e-06
2.38401e-06
2.41153e-06
2.4394e-06
2.4676e-06
2.4961e-06
2.52489e-06
2.55395e-06
2.58324e-06
2.61275e-06
2.6425e-06
2.67243e-06
2.70245e-06
2.73298e-06
2.76307e-06
2.79502e-06
2.82434e-06
2.86002e-06
2.88746e-06
2.93041e-06
2.95583e-06
3.01027e-06
3.03443e-06
3.10309e-06
3.15468e-06
5.06426e-06
1.95394e-05
4.84987e-05
6.98758e-05
7.97073e-05
8.96882e-05
0.000106541
0.000114412
0.000115743
0.000118111
9.10623e-05
9.89807e-05
0.000109244
0.000102431
0.000107971
0.000110542
0.00011118
0.000108161
0.000104587
0.000100322
9.57318e-05
9.00511e-05
8.39364e-05
7.87982e-05
7.51571e-05
7.19731e-05
7.05393e-05
7.01378e-05
7.03339e-05
7.07056e-05
7.02442e-05
6.84449e-05
6.62554e-05
6.4453e-05
6.25131e-05
5.97138e-05
5.69586e-05
5.31693e-05
5.1554e-05
4.83589e-05
4.40823e-05
3.94971e-05
3.43109e-05
3.08368e-05
2.55411e-05
1.9098e-05
1.3507e-05
7.45979e-06
4.16658e-06
4.85577e-06
2.74865e-06
3.13629e-06
2.45715e-06
2.51706e-06
2.2823e-06
2.33834e-06
2.18952e-06
2.23681e-06
2.17612e-06
2.20891e-06
2.19294e-06
2.21873e-06
2.22256e-06
2.24523e-06
2.25877e-06
2.28037e-06
2.29864e-06
2.31999e-06
2.34096e-06
2.36284e-06
2.38495e-06
2.40741e-06
2.43018e-06
2.45328e-06
2.47667e-06
2.50031e-06
2.5242e-06
2.54835e-06
2.57273e-06
2.5973e-06
2.62204e-06
2.64702e-06
2.67211e-06
2.69742e-06
2.7228e-06
2.74845e-06
2.7748e-06
2.80001e-06
2.82945e-06
2.85321e-06
2.88881e-06
2.91087e-06
2.95723e-06
2.97816e-06
3.03957e-06
3.06811e-06
3.58618e-06
9.41288e-06
2.86213e-05
4.86792e-05
6.63453e-05
7.95026e-05
9.22071e-05
9.68222e-05
0.000106232
0.000126083
8.16601e-05
8.72474e-05
0.000106872
8.76497e-05
8.74295e-05
8.54845e-05
8.30795e-05
7.82726e-05
7.40317e-05
6.76621e-05
6.24129e-05
5.69818e-05
5.38451e-05
5.00443e-05
4.72475e-05
4.32393e-05
3.89508e-05
3.46685e-05
3.17801e-05
2.94645e-05
2.76022e-05
2.6167e-05
2.50407e-05
2.39708e-05
2.3275e-05
2.25456e-05
2.20609e-05
2.11825e-05
2.03416e-05
1.93829e-05
1.82626e-05
1.70782e-05
1.56062e-05
1.43422e-05
1.29011e-05
1.15643e-05
1.10528e-05
5.45841e-06
4.25593e-06
4.88372e-06
3.22767e-06
3.68815e-06
2.74527e-06
2.78821e-06
2.51815e-06
2.59573e-06
2.39597e-06
2.47416e-06
2.34364e-06
2.39852e-06
2.33573e-06
2.36793e-06
2.35018e-06
2.37166e-06
2.37429e-06
2.39178e-06
2.40326e-06
2.41974e-06
2.43537e-06
2.45233e-06
2.4696e-06
2.48735e-06
2.50548e-06
2.52396e-06
2.54276e-06
2.56183e-06
2.58116e-06
2.60072e-06
2.62051e-06
2.64047e-06
2.6606e-06
2.68093e-06
2.70139e-06
2.72204e-06
2.74286e-06
2.76379e-06
2.7855e-06
2.80618e-06
2.83059e-06
2.8504e-06
2.88042e-06
2.89942e-06
2.93951e-06
2.95845e-06
3.01296e-06
3.03641e-06
3.26804e-06
5.76055e-06
1.75399e-05
3.53716e-05
5.5205e-05
6.92382e-05
8.06221e-05
8.56026e-05
0.000102456
0.00012323
7.7013e-05
7.92438e-05
0.000105522
6.72658e-05
6.2095e-05
5.81463e-05
5.51813e-05
5.00182e-05
4.69047e-05
4.06678e-05
3.70179e-05
3.39254e-05
3.23298e-05
3.00267e-05
2.80676e-05
2.52728e-05
2.2156e-05
1.94013e-05
1.70308e-05
1.53138e-05
1.40447e-05
1.31041e-05
1.23843e-05
1.16963e-05
1.10969e-05
1.05391e-05
1.01114e-05
9.69887e-06
9.28195e-06
8.88919e-06
8.51619e-06
8.19563e-06
7.87663e-06
7.62073e-06
7.4338e-06
7.31118e-06
7.31384e-06
4.17872e-06
5.28047e-06
5.99991e-06
4.93067e-06
5.86631e-06
3.31234e-06
3.05131e-06
2.76095e-06
2.85302e-06
2.69318e-06
2.77167e-06
2.67481e-06
2.73001e-06
2.66165e-06
2.69866e-06
2.65759e-06
2.67837e-06
2.66274e-06
2.6739e-06
2.67335e-06
2.68152e-06
2.68802e-06
2.69673e-06
2.70612e-06
2.71637e-06
2.72727e-06
2.73873e-06
2.75064e-06
2.76293e-06
2.77554e-06
2.78842e-06
2.8015e-06
2.81478e-06
2.82825e-06
2.84189e-06
2.85573e-06
2.86985e-06
2.88565e-06
2.89949e-06
2.91782e-06
2.93042e-06
2.95214e-06
2.96417e-06
2.98928e-06
3.00295e-06
3.03282e-06
3.04983e-06
3.08724e-06
3.11166e-06
3.19658e-06
4.48986e-06
1.20767e-05
2.70823e-05
4.43002e-05
5.75312e-05
7.10521e-05
8.02043e-05
9.85287e-05
0.000115366
7.12388e-05
6.9515e-05
0.000107116
5.45336e-05
4.63301e-05
4.38199e-05
4.01224e-05
3.90858e-05
3.61765e-05
3.35507e-05
3.13e-05
3.01211e-05
2.88402e-05
2.64336e-05
2.33686e-05
2.09225e-05
1.78209e-05
1.54972e-05
1.36401e-05
1.22218e-05
1.11677e-05
1.03703e-05
9.78446e-06
9.27236e-06
8.78717e-06
8.31311e-06
7.90601e-06
7.54444e-06
7.19076e-06
6.87715e-06
6.61275e-06
6.37575e-06
6.16981e-06
6.04076e-06
5.9855e-06
5.97211e-06
5.96053e-06
3.42018e-06
9.23759e-06
1.11316e-05
1.00445e-05
1.10014e-05
5.06361e-06
3.26866e-06
2.94867e-06
3.02031e-06
2.96649e-06
2.98819e-06
2.97957e-06
3.00241e-06
2.99227e-06
3.01414e-06
3.00641e-06
3.0233e-06
3.02197e-06
3.03407e-06
3.0384e-06
3.04792e-06
3.05556e-06
3.06455e-06
3.07357e-06
3.08283e-06
3.09229e-06
3.10189e-06
3.11161e-06
3.12143e-06
3.13131e-06
3.14125e-06
3.15121e-06
3.16116e-06
3.1711e-06
3.18099e-06
3.1908e-06
3.20022e-06
3.21075e-06
3.21861e-06
3.23089e-06
3.23651e-06
3.25122e-06
3.25526e-06
3.27276e-06
3.27739e-06
3.29846e-06
3.30636e-06
3.33356e-06
3.34723e-06
3.37917e-06
4.18577e-06
1.01483e-05
2.3173e-05
3.83367e-05
4.93462e-05
6.02961e-05
7.12544e-05
9.15134e-05
0.000108788
7.27688e-05
6.68935e-05
0.000107406
5.21325e-05
4.38986e-05
5.44705e-05
5.3612e-05
5.36548e-05
5.34309e-05
5.09733e-05
4.61583e-05
4.23584e-05
4.03731e-05
3.79783e-05
3.33125e-05
2.75615e-05
2.09844e-05
1.49205e-05
1.27981e-05
1.15383e-05
1.04538e-05
9.683e-06
9.13564e-06
8.68516e-06
8.26723e-06
7.86242e-06
7.51097e-06
7.20399e-06
6.92551e-06
6.69019e-06
6.50202e-06
6.34462e-06
6.21476e-06
6.14139e-06
6.10339e-06
6.07554e-06
6.06066e-06
3.81977e-06
1.74765e-05
2.09828e-05
1.92887e-05
2.01038e-05
1.09418e-05
4.10425e-06
3.24817e-06
3.04702e-06
3.0901e-06
3.05663e-06
3.10608e-06
3.10391e-06
3.14162e-06
3.14773e-06
3.17282e-06
3.18361e-06
3.20063e-06
3.21325e-06
3.22674e-06
3.23942e-06
3.25168e-06
3.2638e-06
3.27565e-06
3.28735e-06
3.29891e-06
3.31034e-06
3.32167e-06
3.33289e-06
3.34403e-06
3.35507e-06
3.36603e-06
3.3769e-06
3.38768e-06
3.39837e-06
3.40893e-06
3.41932e-06
3.43e-06
3.43955e-06
3.45122e-06
3.45936e-06
3.47323e-06
3.48005e-06
3.4977e-06
3.50427e-06
3.52772e-06
3.53591e-06
3.56851e-06
3.58021e-06
3.6356e-06
4.01208e-06
8.06694e-06
1.86241e-05
3.13817e-05
4.02496e-05
4.82048e-05
6.51552e-05
8.75866e-05
0.000102328
8.49352e-05
7.16067e-05
0.000113389
5.5115e-05
5.04953e-05
5.53973e-05
6.42528e-05
6.30768e-05
6.05807e-05
5.85248e-05
5.60048e-05
5.32034e-05
5.09626e-05
4.81154e-05
4.23389e-05
3.43999e-05
2.90602e-05
2.3983e-05
1.76811e-05
1.25749e-05
9.85386e-06
8.82042e-06
8.38316e-06
8.05033e-06
7.72417e-06
7.40223e-06
7.11198e-06
6.8407e-06
6.59513e-06
6.38965e-06
6.23008e-06
6.10203e-06
6.00324e-06
5.95315e-06
5.93703e-06
5.91815e-06
5.91687e-06
4.25625e-06
2.43646e-05
2.75426e-05
2.6843e-05
2.56823e-05
1.84171e-05
7.12242e-06
3.78747e-06
3.13499e-06
3.11542e-06
3.06312e-06
3.10771e-06
3.10054e-06
3.14566e-06
3.14741e-06
3.182e-06
3.18841e-06
3.21213e-06
3.22291e-06
3.23937e-06
3.25182e-06
3.26492e-06
3.27714e-06
3.28899e-06
3.30052e-06
3.31177e-06
3.32279e-06
3.33362e-06
3.3443e-06
3.35484e-06
3.36527e-06
3.37561e-06
3.38587e-06
3.39607e-06
3.40622e-06
3.41634e-06
3.42642e-06
3.43651e-06
3.44639e-06
3.4572e-06
3.46654e-06
3.47969e-06
3.48834e-06
3.50631e-06
3.51493e-06
3.54142e-06
3.55185e-06
3.59133e-06
3.60849e-06
3.66659e-06
3.7935e-06
5.46115e-06
1.27301e-05
2.24543e-05
3.15348e-05
4.02495e-05
6.40257e-05
8.17002e-05
9.93024e-05
9.42628e-05
7.86009e-05
0.000114195
6.50798e-05
7.68908e-05
7.07081e-05
6.87769e-05
6.56144e-05
6.2046e-05
5.94678e-05
5.75595e-05
5.55123e-05
5.38153e-05
5.23965e-05
4.88122e-05
3.90997e-05
3.0026e-05
2.52834e-05
2.08178e-05
1.56979e-05
1.13979e-05
8.93468e-06
7.8052e-06
7.3267e-06
7.03097e-06
6.77642e-06
6.54118e-06
6.32262e-06
6.12262e-06
5.94576e-06
5.79884e-06
5.67991e-06
5.58672e-06
5.53373e-06
5.50612e-06
5.47636e-06
5.47424e-06
4.48896e-06
2.39763e-05
2.59202e-05
2.7832e-05
2.53616e-05
1.94726e-05
8.41343e-06
4.42946e-06
3.28201e-06
3.12441e-06
3.03147e-06
3.06267e-06
3.04936e-06
3.08765e-06
3.08612e-06
3.11706e-06
3.12004e-06
3.14146e-06
3.14887e-06
3.16291e-06
3.17235e-06
3.18277e-06
3.19214e-06
3.20116e-06
3.20983e-06
3.21821e-06
3.22635e-06
3.23429e-06
3.24208e-06
3.24973e-06
3.25727e-06
3.26472e-06
3.2721e-06
3.27942e-06
3.28671e-06
3.294e-06
3.30121e-06
3.30859e-06
3.31557e-06
3.32384e-06
3.33032e-06
3.34116e-06
3.34704e-06
3.36314e-06
3.36912e-06
3.39437e-06
3.40258e-06
3.4408e-06
3.45816e-06
3.50874e-06
3.57853e-06
4.04912e-06
7.59101e-06
1.30774e-05
2.08552e-05
3.32807e-05
5.3434e-05
7.79048e-05
9.70362e-05
0.000109911
9.5488e-05
0.00012547
7.80982e-05
8.12633e-05
6.9323e-05
6.62086e-05
6.47568e-05
6.26526e-05
6.06443e-05
5.90477e-05
5.71347e-05
5.49495e-05
5.3147e-05
4.92733e-05
3.94363e-05
2.87327e-05
2.29959e-05
1.91728e-05
1.52238e-05
1.16475e-05
9.07115e-06
7.64545e-06
6.95168e-06
6.58238e-06
6.31357e-06
6.07031e-06
5.84176e-06
5.62728e-06
5.44155e-06
5.28493e-06
5.1544e-06
5.05108e-06
4.98537e-06
4.95209e-06
4.93171e-06
4.93116e-06
4.39994e-06
2.24812e-05
2.07837e-05
2.39926e-05
2.18117e-05
1.27538e-05
6.7876e-06
4.48171e-06
3.36526e-06
3.09479e-06
2.95099e-06
2.94975e-06
2.91567e-06
2.92915e-06
2.91752e-06
2.93081e-06
2.92706e-06
2.93615e-06
2.93695e-06
2.94206e-06
2.94465e-06
2.9478e-06
2.95043e-06
2.95279e-06
2.95496e-06
2.95695e-06
2.95878e-06
2.9605e-06
2.96212e-06
2.96367e-06
2.96515e-06
2.96659e-06
2.968e-06
2.96939e-06
2.97076e-06
2.97221e-06
2.97347e-06
2.97531e-06
2.97605e-06
2.97932e-06
2.97923e-06
2.9861e-06
2.98523e-06
2.99906e-06
2.99864e-06
3.02314e-06
3.02674e-06
3.06143e-06
3.0776e-06
3.11302e-06
3.16742e-06
3.42128e-06
5.20139e-06
8.36307e-06
1.27538e-05
1.94032e-05
3.4852e-05
5.12928e-05
6.55747e-05
8.14171e-05
9.36766e-05
0.000142165
0.000111082
9.51729e-05
8.03576e-05
7.15871e-05
6.63692e-05
6.26825e-05
5.97743e-05
5.74449e-05
5.49775e-05
5.21679e-05
4.98492e-05
4.56858e-05
3.54705e-05
2.35927e-05
1.65991e-05
1.36869e-05
1.15092e-05
9.44216e-06
7.83686e-06
6.83379e-06
6.30306e-06
5.97733e-06
5.71498e-06
5.46823e-06
5.22712e-06
4.99666e-06
4.78736e-06
4.60439e-06
4.44931e-06
4.32379e-06
4.23114e-06
4.16959e-06
4.12995e-06
4.10961e-06
4.04885e-06
2.42672e-06
2.51319e-06
2.69303e-06
2.68498e-06
2.74919e-06
2.72789e-06
2.75256e-06
2.73351e-06
2.74585e-06
2.73343e-06
2.74045e-06
2.73431e-06
2.73845e-06
2.73707e-06
2.73964e-06
2.74062e-06
2.7426e-06
2.74435e-06
2.74623e-06
2.74807e-06
2.74989e-06
2.75166e-06
2.75337e-06
2.75504e-06
2.75666e-06
2.75824e-06
2.75978e-06
2.7613e-06
2.76278e-06
2.76424e-06
2.7657e-06
2.76716e-06
2.76865e-06
2.77017e-06
2.77165e-06
2.77331e-06
2.77519e-06
2.77645e-06
2.78073e-06
2.78016e-06
2.79119e-06
2.78744e-06
2.81199e-06
2.80518e-06
2.85007e-06
2.84354e-06
2.91231e-06
2.90679e-06
3.04878e-06
3.77868e-06
8.44583e-06
1.79481e-05
2.76582e-05
3.48997e-05
4.19579e-05
5.0224e-05
5.87067e-05
6.41108e-05
7.27449e-05
8.80047e-05
0.000127013
0.000102187
9.38163e-05
8.59849e-05
8.00822e-05
7.59328e-05
7.28349e-05
6.98215e-05
6.68526e-05
6.39171e-05
5.97281e-05
5.46368e-05
5.01733e-05
4.50122e-05
3.71551e-05
2.77034e-05
1.92415e-05
1.32481e-05
9.77889e-06
8.10692e-06
7.34117e-06
6.93414e-06
6.64528e-06
6.38843e-06
6.13818e-06
5.88759e-06
5.63802e-06
5.39193e-06
5.1502e-06
4.91108e-06
4.67671e-06
4.44918e-06
4.2321e-06
4.03054e-06
3.86005e-06
3.64722e-06
2.42145e-07
3.68604e-07
6.07294e-07
6.62502e-07
8.47117e-07
8.26113e-07
9.32614e-07
8.90009e-07
9.56578e-07
9.26113e-07
9.68698e-07
9.54614e-07
9.81442e-07
9.79354e-07
9.95082e-07
9.9984e-07
1.00876e-06
1.01522e-06
1.02177e-06
1.02762e-06
1.03306e-06
1.03807e-06
1.04273e-06
1.04709e-06
1.05118e-06
1.05505e-06
1.05868e-06
1.06213e-06
1.06547e-06
1.06877e-06
1.07202e-06
1.07528e-06
1.07852e-06
1.08175e-06
1.08471e-06
1.08877e-06
1.09093e-06
1.09568e-06
1.09936e-06
1.10252e-06
1.1122e-06
1.11133e-06
1.1331e-06
1.12853e-06
1.17069e-06
1.16814e-06
1.23578e-06
1.09985e-06
7.95303e-07
4.74604e-06
3.0176e-05
6.93376e-05
9.86608e-05
0.000125387
0.000169807
0.000237548
0.000321616
0.000371458
0.000590186
0.000557739
2.53215e-05
3.62789e-05
0.000102082
9.91325e-05
9.80088e-05
9.32814e-05
8.68831e-05
8.15817e-05
7.80408e-05
7.36522e-05
6.85703e-05
6.43917e-05
6.18925e-05
5.73739e-05
4.22718e-05
2.46129e-05
1.2717e-05
7.43712e-06
5.48674e-06
4.86261e-06
4.71815e-06
4.74461e-06
4.76371e-06
4.74824e-06
4.6885e-06
4.57152e-06
4.41252e-06
4.20548e-06
3.99472e-06
3.79394e-06
3.6047e-06
3.42468e-06
3.24944e-06
3.08414e-06
2.93585e-06
3.04568e-06
2.27385e-07
2.46468e-07
1.37764e-07
1.66552e-07
2.13674e-07
2.06048e-07
2.47373e-07
2.28992e-07
2.56622e-07
2.42592e-07
2.61428e-07
2.54006e-07
2.66533e-07
2.63869e-07
2.7166e-07
2.72586e-07
2.76743e-07
2.78968e-07
2.81517e-07
2.83597e-07
2.85491e-07
2.8716e-07
2.88645e-07
2.89972e-07
2.91158e-07
2.92222e-07
2.93195e-07
2.94096e-07
2.94936e-07
2.95719e-07
2.96448e-07
2.97136e-07
2.97784e-07
2.98477e-07
2.99014e-07
3.00355e-07
3.00077e-07
3.0219e-07
3.01843e-07
3.03837e-07
3.04805e-07
3.05622e-07
3.10282e-07
3.09558e-07
3.21026e-07
3.20476e-07
3.04183e-07
2.80505e-07
3.68044e-06
3.69505e-05
0.000104775
0.000140976
0.000156031
0.00015493
0.00017901
0.000207371
0.000304554
0.000322561
0.00035891
0.000280074
2.24113e-05
8.44762e-05
0.000147104
0.000117455
0.000108688
9.73463e-05
9.06044e-05
8.18064e-05
7.53948e-05
7.27791e-05
7.24762e-05
7.33134e-05
7.24064e-05
6.58001e-05
3.92914e-05
1.99835e-05
1.30705e-05
1.06263e-05
9.19691e-06
7.44731e-06
5.72475e-06
4.43746e-06
3.53113e-06
2.94513e-06
2.63748e-06
2.48699e-06
2.39334e-06
2.26597e-06
2.11842e-06
1.97793e-06
1.8337e-06
1.69695e-06
1.56898e-06
1.48371e-06
1.47514e-06
2.69762e-06
4.04095e-07
5.35723e-07
1.37988e-07
1.45693e-07
1.26004e-07
1.35167e-07
1.24191e-07
1.30039e-07
1.22948e-07
1.26493e-07
1.22242e-07
1.24449e-07
1.22086e-07
1.23509e-07
1.22384e-07
1.23204e-07
1.22899e-07
1.23313e-07
1.23454e-07
1.23753e-07
1.2404e-07
1.24351e-07
1.24674e-07
1.25007e-07
1.25348e-07
1.25696e-07
1.26049e-07
1.26405e-07
1.26764e-07
1.27124e-07
1.27486e-07
1.27849e-07
1.28209e-07
1.28562e-07
1.2893e-07
1.29263e-07
1.29659e-07
1.29948e-07
1.30413e-07
1.30624e-07
1.31292e-07
1.31431e-07
1.32572e-07
1.32761e-07
1.34717e-07
1.33515e-07
9.26947e-08
9.96048e-07
2.21887e-05
9.45776e-05
0.000157081
0.00018246
0.000193908
0.000200493
0.000220784
0.000230787
0.00026051
0.00027121
0.000151423
0.000104396
2.10712e-05
9.47929e-05
0.000132353
0.000105377
0.000111771
8.68702e-05
7.68645e-05
7.35697e-05
7.52572e-05
7.82688e-05
8.12177e-05
8.42419e-05
8.03246e-05
6.61464e-05
5.71651e-05
5.62346e-05
5.50532e-05
5.03518e-05
4.41905e-05
3.60809e-05
2.83054e-05
2.06706e-05
1.35002e-05
8.16481e-06
5.00068e-06
3.31341e-06
2.457e-06
1.97568e-06
1.69189e-06
1.51288e-06
1.36768e-06
1.21448e-06
1.06562e-06
9.3622e-07
7.90725e-07
2.37126e-06
7.52644e-07
7.51557e-07
2.23917e-07
2.70978e-07
1.67296e-07
2.08003e-07
1.47055e-07
1.74327e-07
1.36337e-07
1.53167e-07
1.30553e-07
1.40393e-07
1.28065e-07
1.33295e-07
1.27359e-07
1.29835e-07
1.27553e-07
1.28508e-07
1.28103e-07
1.28511e-07
1.28854e-07
1.29338e-07
1.29891e-07
1.30513e-07
1.31187e-07
1.31905e-07
1.32662e-07
1.33452e-07
1.34266e-07
1.35102e-07
1.35951e-07
1.36808e-07
1.37664e-07
1.38497e-07
1.39338e-07
1.40126e-07
1.40971e-07
1.41643e-07
1.42447e-07
1.4301e-07
1.43696e-07
1.44349e-07
1.44724e-07
1.45921e-07
1.45669e-07
1.44777e-07
1.10371e-07
4.06265e-06
4.75816e-05
0.000135523
0.000180367
0.000213352
0.000219024
0.000223082
0.000227183
0.000228555
0.000200778
0.000183566
5.46402e-05
4.36649e-05
1.91304e-05
0.000104092
0.000139773
0.000121642
0.000117975
0.000105899
0.000103831
0.00010368
0.000109669
0.000116217
0.000123349
0.000126852
0.000128185
0.000130451
0.000131986
0.000129536
0.000123617
0.000115274
0.000105787
9.41199e-05
8.20795e-05
6.76316e-05
5.03933e-05
3.55938e-05
2.50177e-05
1.66258e-05
9.89598e-06
6.0654e-06
3.63682e-06
2.27986e-06
1.54721e-06
1.14897e-06
9.20685e-07
7.4617e-07
7.05627e-07
2.76638e-06
1.47791e-06
9.07809e-07
5.05587e-07
6.33102e-07
3.62925e-07
4.62253e-07
2.89131e-07
3.51629e-07
2.44412e-07
2.8779e-07
2.17973e-07
2.48391e-07
2.05543e-07
2.23461e-07
2.00964e-07
2.0959e-07
2.00226e-07
2.03432e-07
2.01203e-07
2.02371e-07
2.0318e-07
2.04638e-07
2.06374e-07
2.08398e-07
2.10645e-07
2.13063e-07
2.15643e-07
2.18353e-07
2.21158e-07
2.24043e-07
2.26968e-07
2.29909e-07
2.32831e-07
2.35676e-07
2.38519e-07
2.4117e-07
2.43951e-07
2.46177e-07
2.48644e-07
2.50515e-07
2.52176e-07
2.54273e-07
2.54009e-07
2.5768e-07
2.53946e-07
2.60449e-07
2.00119e-07
2.36665e-06
3.37477e-05
0.000118627
0.000175015
0.00020373
0.000212564
0.000220136
0.000220244
0.000178078
0.00013672
0.000117477
2.30151e-05
2.78714e-05
2.63198e-05
0.000136302
0.000171
0.000170225
0.000172644
0.000171802
0.000171178
0.000172688
0.00017743
0.000181066
0.000182299
0.000182288
0.000179079
0.000174313
0.000169149
0.000162771
0.000154852
0.000145478
0.000139319
0.000132892
0.00012546
0.000117125
0.000106211
9.24402e-05
8.01062e-05
6.66084e-05
5.26659e-05
3.96481e-05
2.69502e-05
1.59339e-05
7.55089e-06
3.69968e-06
2.2441e-06
1.31915e-06
8.67971e-07
2.7918e-06
2.81426e-06
1.43856e-06
1.14698e-06
1.40494e-06
8.36429e-07
9.78183e-07
6.74719e-07
7.01719e-07
5.44201e-07
5.74052e-07
4.72436e-07
5.08815e-07
4.36004e-07
4.66796e-07
4.22629e-07
4.40162e-07
4.2073e-07
4.28627e-07
4.2438e-07
4.28301e-07
4.31184e-07
4.35827e-07
4.41129e-07
4.47187e-07
4.53846e-07
4.60935e-07
4.68421e-07
4.76252e-07
4.84388e-07
4.92426e-07
5.00197e-07
5.07752e-07
5.15097e-07
5.22301e-07
5.29557e-07
5.36366e-07
5.43346e-07
5.49223e-07
5.55941e-07
5.60529e-07
5.67111e-07
5.70674e-07
5.76187e-07
5.80223e-07
5.84934e-07
5.92626e-07
6.26568e-07
5.31414e-07
3.80366e-06
3.91194e-05
0.000138433
0.000181812
0.000186537
0.000188796
0.000194274
0.000175683
0.000118752
6.62831e-05
2.30554e-05
3.0049e-05
3.92152e-05
0.00015266
0.000191871
0.000192001
0.000193199
0.000193424
0.000190755
0.000188301
0.000187366
0.000184431
0.000179997
0.00017527
0.000167573
0.000158769
0.000153882
0.000150438
0.000147513
0.000142629
0.000140997
0.000137716
0.00013402
0.000130348
0.000125583
0.000118995
0.000111058
0.000101088
9.16293e-05
8.05255e-05
6.81341e-05
5.5812e-05
4.18244e-05
2.90425e-05
1.85827e-05
7.34264e-06
2.29949e-06
5.17196e-06
3.87042e-06
2.64082e-06
1.99603e-06
2.45317e-06
1.50824e-06
1.61402e-06
1.39367e-06
1.25036e-06
1.14273e-06
1.09745e-06
1.00876e-06
1.00426e-06
9.45289e-07
9.62811e-07
9.18115e-07
9.36798e-07
9.14151e-07
9.2656e-07
9.23125e-07
9.32033e-07
9.3959e-07
9.50261e-07
9.62151e-07
9.75563e-07
9.90551e-07
1.00676e-06
1.02405e-06
1.04216e-06
1.06101e-06
1.08086e-06
1.10148e-06
1.12268e-06
1.14425e-06
1.16601e-06
1.18806e-06
1.20922e-06
1.2325e-06
1.25185e-06
1.27707e-06
1.29237e-06
1.32057e-06
1.33117e-06
1.36084e-06
1.36794e-06
1.39971e-06
1.40523e-06
1.43981e-06
1.47065e-06
1.16357e-06
4.32579e-06
4.08193e-05
0.000114977
0.000155373
0.000165041
0.00017283
0.000151964
0.000152522
0.000152192
2.46689e-05
3.17755e-05
4.22829e-05
0.000153798
0.000188925
0.000187317
0.000194581
0.000196746
0.000195598
0.000192229
0.000185796
0.000177459
0.000170959
0.000162772
0.000152863
0.00014216
0.000134041
0.000127351
0.000122427
0.000118141
0.000113422
0.000110912
0.000108138
0.000105595
0.000103119
9.84991e-05
9.41498e-05
8.84586e-05
8.42319e-05
7.75777e-05
6.97644e-05
6.23705e-05
5.32836e-05
4.50466e-05
3.48458e-05
2.51413e-05
1.31872e-05
3.22103e-06
3.93951e-06
4.72402e-06
2.84557e-06
3.7061e-06
1.86169e-06
1.746e-06
1.90225e-06
1.60572e-06
1.57407e-06
1.47941e-06
1.47101e-06
1.43668e-06
1.46048e-06
1.44815e-06
1.46663e-06
1.46576e-06
1.48254e-06
1.48918e-06
1.50427e-06
1.51488e-06
1.528e-06
1.54003e-06
1.55223e-06
1.56446e-06
1.57739e-06
1.59136e-06
1.60598e-06
1.62111e-06
1.63669e-06
1.65345e-06
1.67267e-06
1.69202e-06
1.71141e-06
1.73092e-06
1.74902e-06
1.7677e-06
1.78558e-06
1.80414e-06
1.82379e-06
1.83785e-06
1.86373e-06
1.87185e-06
1.90547e-06
1.90703e-06
1.95725e-06
1.94943e-06
2.03588e-06
2.01994e-06
2.2846e-06
1.82117e-06
5.24211e-06
4.18627e-05
0.000118071
0.000156488
0.000173431
0.000181553
0.000223206
0.00022126
3.59946e-05
3.856e-05
2.92956e-05
0.00010406
0.000124335
0.000114156
0.000113004
0.000105376
9.89349e-05
8.85905e-05
8.32951e-05
7.58647e-05
7.18376e-05
6.66304e-05
6.10466e-05
5.47343e-05
4.8356e-05
4.19365e-05
3.52891e-05
2.94429e-05
2.45069e-05
2.09098e-05
1.86237e-05
1.69466e-05
1.59639e-05
1.4985e-05
1.45332e-05
1.39014e-05
1.31418e-05
1.23608e-05
1.13544e-05
1.04407e-05
9.33906e-06
7.98586e-06
6.85025e-06
6.01891e-06
6.06572e-06
7.44307e-06
4.22248e-06
6.12499e-06
4.56538e-06
6.25324e-06
2.46117e-06
1.69193e-06
2.08245e-06
1.82838e-06
1.73607e-06
1.6698e-06
1.6183e-06
1.62056e-06
1.60992e-06
1.61636e-06
1.63276e-06
1.64053e-06
1.66749e-06
1.67855e-06
1.70462e-06
1.72056e-06
1.7422e-06
1.76114e-06
1.78111e-06
1.80069e-06
1.81969e-06
1.83876e-06
1.85802e-06
1.87728e-06
1.89605e-06
1.91414e-06
1.93472e-06
1.9557e-06
1.97707e-06
1.99897e-06
2.01892e-06
2.03887e-06
2.05792e-06
2.07678e-06
2.09809e-06
2.11274e-06
2.14221e-06
2.1508e-06
2.1874e-06
2.18733e-06
2.2426e-06
2.2315e-06
2.33279e-06
2.30955e-06