/*--------------------------------*- C++ -*----------------------------------*\
| =========                 |                                                 |
| \\      /  F ield         | OpenFOAM: The Open Source CFD Toolbox           |
|  \\    /   O peration     | Version:  2.3.0                                 |
|   \\  /    A nd           | Web:      www.OpenFOAM.org                      |
|    \\/     M anipulation  |                                                 |
\*---------------------------------------------------------------------------*/
FoamFile
{
    version     2.0;
    format      ascii;
    class       surfaceScalarField;
    location    "4";
    object      phi;
}
// * * * * * * * * * * * * * * * * * * * * * * * * * * * * * * * * * * * * * //

dimensions      [0 3 -1 0 0 0 0];

internalField   nonuniform List<scalar> 
16448
(
-2.90689e-06
-1.89065e-06
6.74143e-07
-1.85955e-06
-1.84897e-06
8.01641e-07
-1.47848e-06
-1.44469e-06
1.06363e-06
-1.12265e-06
-1.43206e-06
1.07624e-06
-1.00803e-06
-1.21639e-06
1.10176e-06
-8.4378e-07
-1.2721e-06
1.10785e-06
-7.97168e-07
-1.14825e-06
1.10164e-06
-6.80057e-07
-1.2225e-06
1.10539e-06
-6.39557e-07
-1.13862e-06
1.09812e-06
-5.45224e-07
-1.19376e-06
1.09943e-06
-5.05198e-07
-1.13333e-06
1.09331e-06
-4.32143e-07
-1.16523e-06
1.09218e-06
-3.93475e-07
-1.12666e-06
1.088e-06
-3.41169e-07
-1.13848e-06
1.08618e-06
-3.0685e-07
-1.11755e-06
1.08324e-06
-2.7094e-07
-1.11724e-06
1.08133e-06
-2.4309e-07
-1.10713e-06
1.07929e-06
-2.18218e-07
-1.10251e-06
1.07765e-06
-1.97588e-07
-1.09677e-06
1.07616e-06
-1.80099e-07
-1.09235e-06
1.07487e-06
-1.65429e-07
-1.08842e-06
1.07377e-06
-1.53092e-07
-1.08515e-06
1.07282e-06
-1.42691e-07
-1.08242e-06
1.07203e-06
-1.33871e-07
-1.08018e-06
1.07138e-06
-1.26317e-07
-1.07839e-06
1.07085e-06
-1.19754e-07
-1.07698e-06
1.07043e-06
-1.13953e-07
-1.07591e-06
1.07013e-06
-1.08725e-07
-1.07514e-06
1.06992e-06
-1.03541e-07
-1.07496e-06
1.06979e-06
-9.96169e-08
-1.07383e-06
1.06992e-06
-9.25308e-08
-1.07689e-06
1.06982e-06
-9.04109e-08
-1.07204e-06
1.06993e-06
-8.02697e-08
-1.08097e-06
1.07084e-06
-7.92989e-08
-1.07087e-06
1.06991e-06
-6.46594e-08
-1.08757e-06
1.07294e-06
-6.30088e-08
-1.07188e-06
1.07024e-06
-4.28352e-08
-1.09653e-06
1.07637e-06
-3.61949e-08
-1.0781e-06
1.07147e-06
-1.11421e-08
-1.10601e-06
1.08096e-06
8.41213e-09
-1.09229e-06
1.07275e-06
3.30337e-08
-1.11246e-06
1.08785e-06
7.54306e-08
-1.12199e-06
1.07961e-06
1.06353e-07
-1.12324e-06
1.09233e-06
1.61107e-07
-1.14494e-06
1.0902e-06
2.07773e-07
-1.14516e-06
1.0985e-06
2.7479e-07
-1.16939e-06
1.10238e-06
3.47434e-07
-1.1791e-06
1.10646e-06
4.35356e-07
-1.2048e-06
1.1169e-06
5.71673e-07
-1.24926e-06
1.11295e-06
7.11992e-07
-1.27107e-06
1.13076e-06
9.81567e-07
-1.38907e-06
1.1195e-06
1.07255e-06
-1.20703e-06
1.11606e-06
1.48563e-06
-1.56248e-06
1.1494e-06
1.19722e-06
-9.01259e-07
1.18967e-06
2.64066e-06
-3.30658e-06
1.86314e-06
4.54897e-06
-4.48674e-06
2.57842e-06
2.27653e-06
-2.05695e-06
4.32936e-06
6.88728e-06
-2.87343e-06
-1.73737e-06
-1.15284e-05
1.27283e-05
5.68732e-06
6.88948e-07
-6.25743e-06
-5.95997e-06
2.72426e-05
-2.7215e-05
6.61397e-07
3.45425e-05
-1.39123e-05
6.61236e-06
3.45566e-05
-7.09159e-06
7.07744e-06
3.54527e-05
-6.43751e-06
5.54146e-06
3.55068e-05
-4.71175e-06
4.65761e-06
3.48382e-05
-3.41003e-06
4.07864e-06
3.4026e-05
-2.84448e-06
3.65667e-06
3.36599e-05
-2.59859e-06
2.96468e-06
3.36862e-05
-2.3669e-06
2.3406e-06
3.36686e-05
-1.73033e-06
1.74798e-06
3.34703e-05
-1.27848e-06
1.47677e-06
3.26902e-05
-6.79223e-07
1.45931e-06
3.08795e-05
-1.42894e-08
1.82495e-06
2.82594e-05
1.30098e-06
1.31911e-06
2.43007e-05
2.41718e-06
1.54154e-06
2.04393e-05
2.55463e-06
1.30678e-06
1.85467e-05
2.75702e-06
-8.64454e-07
1.68138e-05
3.15753e-06
-1.42466e-06
1.35768e-05
3.08743e-06
1.49637e-07
1.01515e-05
1.78165e-06
1.64358e-06
7.89837e-06
4.78098e-07
1.77508e-06
6.55963e-06
-2.81771e-07
1.6205e-06
5.67334e-06
-6.81097e-07
1.56739e-06
4.99651e-06
-9.042e-07
1.58103e-06
4.43404e-06
-1.05029e-06
1.61276e-06
3.94275e-06
-1.14854e-06
1.63983e-06
3.50092e-06
-1.21683e-06
1.65866e-06
3.09443e-06
-1.26285e-06
1.66933e-06
2.70508e-06
-1.28246e-06
1.67182e-06
2.32133e-06
-1.28808e-06
1.67182e-06
1.93902e-06
-1.2902e-06
1.67251e-06
1.5564e-06
-1.29152e-06
1.67414e-06
1.17646e-06
-1.29114e-06
1.67108e-06
7.89636e-07
-1.27739e-06
1.66422e-06
4.00571e-07
-1.26642e-06
1.65549e-06
-1.24038e-06
1.64095e-06
-3.1176e-06
-2.92659e-06
-2.34099e-07
-2.0096e-06
-2.92695e-06
-3.00189e-08
-1.67203e-06
-2.14968e-06
3.67424e-07
-1.35922e-06
-2.16842e-06
4.23544e-07
-1.26635e-06
-1.81637e-06
5.07107e-07
-1.10255e-06
-1.94559e-06
5.09681e-07
-1.03993e-06
-1.74478e-06
5.33903e-07
-9.05365e-07
-1.88553e-06
5.28463e-07
-8.46975e-07
-1.73779e-06
5.4078e-07
-7.32479e-07
-1.8456e-06
5.37351e-07
-6.7436e-07
-1.73583e-06
5.44393e-07
-5.81303e-07
-1.80181e-06
5.43528e-07
-5.3005e-07
-1.7257e-06
5.47799e-07
-4.61605e-07
-1.75461e-06
5.47689e-07
-4.19026e-07
-1.71011e-06
5.49991e-07
-3.72819e-07
-1.71391e-06
5.50482e-07
-3.3908e-07
-1.69217e-06
5.51321e-07
-3.07993e-07
-1.68541e-06
5.51831e-07
-2.82854e-07
-1.67417e-06
5.52273e-07
-2.61447e-07
-1.6664e-06
5.52663e-07
-2.43602e-07
-1.65925e-06
5.52998e-07
-2.28631e-07
-1.6534e-06
5.53303e-07
-2.1605e-07
-1.64857e-06
5.53592e-07
-2.05413e-07
-1.64468e-06
5.53878e-07
-1.96332e-07
-1.64161e-06
5.54165e-07
-1.88456e-07
-1.63929e-06
5.54452e-07
-1.81458e-07
-1.63764e-06
5.54745e-07
-1.75034e-07
-1.63658e-06
5.55039e-07
-1.69214e-07
-1.63603e-06
5.55275e-07
-1.63408e-07
-1.63531e-06
5.55701e-07
-1.56719e-07
-1.63908e-06
5.5552e-07
-1.51761e-07
-1.63356e-06
5.56585e-07
-1.4142e-07
-1.64748e-06
5.56188e-07
-1.37829e-07
-1.63178e-06
5.57345e-07
-1.21101e-07
-1.66144e-06
5.57163e-07
-1.18506e-07
-1.63208e-06
5.57624e-07
-9.27846e-08
-1.68079e-06
5.58559e-07
-8.91595e-08
-1.63915e-06
5.57451e-07
-5.09483e-08
-1.70379e-06
5.59591e-07
-3.79695e-08
-1.66298e-06
5.57727e-07
1.08538e-08
-1.72261e-06
5.6135e-07
4.37592e-08
-1.71134e-06
5.56461e-07
1.03207e-07
-1.74355e-06
5.6087e-07
1.62906e-07
-1.75979e-06
5.55167e-07
2.39326e-07
-1.77949e-06
5.57932e-07
3.1655e-07
-1.80113e-06
5.54528e-07
4.20011e-07
-1.83471e-06
5.52165e-07
5.02808e-07
-1.84911e-06
5.61515e-07
6.68529e-07
-1.95526e-06
5.4029e-07
8.04216e-07
-1.97911e-06
5.72353e-07
1.17883e-06
-2.26462e-06
5.00947e-07
1.52628e-06
-2.06148e-06
5.07005e-07
2.59455e-06
-3.07853e-06
4.47778e-07
6.04062e-06
-4.52619e-06
1.78842e-07
1.10803e-05
-8.69197e-06
3.45657e-07
1.86905e-05
-1.28621e-05
7.65118e-07
1.79293e-05
-3.34923e-06
2.0535e-06
1.80228e-05
-7.22841e-06
4.26137e-06
-4.41551e-06
1.83926e-05
1.67737e-05
-1.97392e-09
-8.13196e-06
-2.53913e-06
1.33703e-05
-3.57337e-05
-4.85362e-06
1.19811e-05
-1.97143e-05
7.19118e-06
1.2155e-05
-1.47082e-05
7.44269e-06
1.06519e-05
-1.02636e-05
5.32918e-06
8.22002e-06
-6.96217e-06
4.68228e-06
7.41157e-06
-5.71189e-06
3.11032e-06
9.07867e-06
-5.24531e-06
7.33733e-07
1.17802e-05
-4.68548e-06
-6.14662e-07
1.47895e-05
-3.79047e-06
-1.58572e-06
1.75319e-05
-2.1203e-06
-2.3524e-06
1.91392e-05
-5.33561e-07
-2.35227e-06
1.95567e-05
6.54149e-07
-1.75081e-06
1.9039e-05
2.08782e-06
-1.58448e-06
1.80131e-05
3.99147e-06
-1.66454e-06
1.60032e-05
5.52382e-06
-1.09682e-06
1.46382e-05
6.18139e-06
-2.26172e-06
1.45969e-05
6.71642e-06
-3.91809e-06
1.39447e-05
6.61834e-06
-2.80861e-06
1.17849e-05
5.4485e-06
-2.0125e-07
9.31188e-06
3.21909e-06
1.03554e-06
7.69026e-06
1.32255e-06
7.77168e-07
6.6815e-06
2.11695e-07
5.15296e-07
5.93907e-06
-4.04774e-07
4.6611e-07
5.31206e-06
-7.96171e-07
5.18981e-07
4.75295e-06
-1.08327e-06
5.92087e-07
4.24356e-06
-1.29215e-06
6.52991e-07
3.78606e-06
-1.44871e-06
6.89387e-07
3.37078e-06
-1.5536e-06
7.06032e-07
2.96827e-06
-1.59396e-06
7.14008e-07
2.56413e-06
-1.59972e-06
7.15779e-07
2.15487e-06
-1.59478e-06
7.1384e-07
1.7407e-06
-1.59145e-06
7.14103e-07
1.31949e-06
-1.59226e-06
7.22332e-07
8.79979e-07
-1.5761e-06
7.38225e-07
4.40612e-07
-1.57601e-06
7.48952e-07
-1.55982e-06
7.60051e-07
-2.79699e-06
-3.25649e-06
-8.73071e-07
-1.66538e-06
-3.34686e-06
-7.11697e-07
-1.49996e-06
-2.25384e-06
-6.12641e-08
-1.26614e-06
-2.39345e-06
-8.79929e-09
-1.21747e-06
-1.96548e-06
1.00433e-07
-1.07853e-06
-2.17359e-06
8.90544e-08
-1.02972e-06
-1.92108e-06
1.27485e-07
-8.96024e-07
-2.12617e-06
1.06936e-07
-8.39124e-07
-1.92721e-06
1.32525e-07
-7.19717e-07
-2.08325e-06
1.18253e-07
-6.64114e-07
-1.92692e-06
1.35496e-07
-5.70756e-07
-2.02302e-06
1.27866e-07
-5.21672e-07
-1.91275e-06
1.37979e-07
-4.52534e-07
-1.95803e-06
1.34296e-07
-4.1276e-07
-1.88942e-06
1.39555e-07
-3.65167e-07
-1.89971e-06
1.38221e-07
-3.34201e-07
-1.86389e-06
1.40765e-07
-3.0361e-07
-1.85663e-06
1.40648e-07
-2.80282e-07
-1.83884e-06
1.4136e-07
-2.60096e-07
-1.82792e-06
1.41354e-07
-2.43546e-07
-1.8171e-06
1.41325e-07
-2.29738e-07
-1.80828e-06
1.41087e-07
-2.18226e-07
-1.8008e-06
1.40737e-07
-2.08555e-07
-1.79462e-06
1.40285e-07
-2.00344e-07
-1.78956e-06
1.39755e-07
-1.93263e-07
-1.78551e-06
1.39159e-07
-1.87029e-07
-1.78235e-06
1.38506e-07
-1.81377e-07
-1.78003e-06
1.37814e-07
-1.76178e-07
-1.7783e-06
1.37089e-07
-1.7095e-07
-1.77698e-06
1.36453e-07
-1.65148e-07
-1.78004e-06
1.35176e-07
-1.60487e-07
-1.77327e-06
1.35067e-07
-1.51658e-07
-1.78948e-06
1.33187e-07
-1.47954e-07
-1.76899e-06
1.33519e-07
-1.33341e-07
-1.80732e-06
1.31285e-07
-1.305e-07
-1.76675e-06
1.31853e-07
-1.07249e-07
-1.8335e-06
1.29469e-07
-1.03443e-07
-1.77252e-06
1.29583e-07
-6.68007e-08
-1.86701e-06
1.26598e-07
-5.82526e-08
-1.79802e-06
1.26507e-07
-2.59044e-09
-1.90033e-06
1.2207e-07
1.84665e-08
-1.85333e-06
1.20947e-07
8.77016e-08
-1.9284e-06
1.15636e-07
1.41735e-07
-1.9247e-06
1.1089e-07
2.26378e-07
-1.9672e-06
1.03075e-07
3.0151e-07
-1.97416e-06
9.79133e-08
4.03173e-07
-2.01931e-06
8.29458e-08
4.78197e-07
-2.01363e-06
8.95068e-08
6.30385e-07
-2.15795e-06
5.05093e-08
8.34417e-07
-2.26532e-06
8.21898e-08
1.2529e-06
-2.65016e-06
-3.29418e-08
2.24935e-06
-3.14632e-06
8.83868e-08
4.69334e-06
-5.47165e-06
-5.08763e-08
1.06309e-05
-1.12478e-05
7.83983e-07
1.71462e-05
-1.46084e-05
-5.98841e-07
2.58617e-05
-2.06546e-05
-9.23082e-07
2.29495e-05
2.09133e-06
-2.52832e-06
1.98154e-05
-6.09941e-06
2.00498e-06
-3.34414e-06
1.47538e-05
2.67978e-05
1.93629e-07
-9.03307e-06
-2.63684e-06
6.15965e-06
-3.25762e-05
-9.12346e-06
3.03852e-06
-2.16705e-05
5.07739e-06
3.93789e-06
-2.02008e-05
4.59327e-06
-1.6589e-06
-1.06997e-05
6.03287e-06
2.52674e-07
-7.13293e-06
-1.74081e-06
3.13384e-06
-3.9758e-06
-4.61726e-06
5.802e-06
-3.55656e-06
-4.35691e-06
6.43199e-06
-2.8988e-06
-2.41667e-06
6.24934e-06
-2.4238e-06
-1.18401e-06
6.25991e-06
-1.34029e-06
-7.90584e-07
6.39254e-06
-2.25434e-07
-4.40756e-07
5.73778e-06
1.37332e-06
-6.44138e-08
4.52614e-06
3.21955e-06
7.99076e-08
3.08054e-06
5.10169e-06
3.35371e-07
2.16256e-06
6.64324e-06
-2.01438e-07
3.07981e-06
7.73492e-06
-2.47078e-06
4.95254e-06
7.62952e-06
-2.78584e-06
5.95539e-06
6.58508e-06
-9.69588e-07
6.4641e-06
4.72809e-06
2.11707e-07
6.71691e-06
2.88424e-06
8.20356e-08
6.6692e-06
1.55545e-06
-1.85195e-07
6.3658e-06
7.5388e-07
-2.38783e-07
5.92919e-06
1.99115e-07
-1.67283e-07
5.44111e-06
-2.63228e-07
-4.48631e-08
4.93815e-06
-6.44067e-07
6.37568e-08
4.46253e-06
-9.55981e-07
1.39453e-07
4.03161e-06
-1.19964e-06
1.81856e-07
3.6275e-06
-1.35321e-06
2.03717e-07
3.21048e-06
-1.39272e-06
2.15784e-07
2.77673e-06
-1.38185e-06
2.15888e-07
2.31882e-06
-1.34922e-06
2.1234e-07
1.86571e-06
-1.35687e-06
2.18528e-07
1.41254e-06
-1.37402e-06
2.34928e-07
9.44484e-07
-1.39009e-06
2.82042e-07
4.73147e-07
-1.45772e-06
3.53052e-07
-1.50936e-06
4.22685e-07
-2.55557e-06
-3.16736e-06
-1.07253e-06
-1.42288e-06
-3.47382e-06
-1.00573e-06
-1.40763e-06
-1.98747e-06
-2.81624e-07
-1.23057e-06
-2.31816e-06
-2.52361e-07
-1.23314e-06
-1.83586e-06
-1.27063e-07
-1.11122e-06
-2.14018e-06
-1.55334e-07
-1.06878e-06
-1.86311e-06
-1.00428e-07
-9.24437e-07
-2.13342e-06
-1.37085e-07
-8.62597e-07
-1.89442e-06
-9.46292e-08
-7.29785e-07
-2.09555e-06
-1.20501e-07
-6.70378e-07
-1.89541e-06
-9.09057e-08
-5.67384e-07
-2.02134e-06
-1.04659e-07
-5.19574e-07
-1.87267e-06
-8.78853e-08
-4.47542e-07
-1.93637e-06
-9.36775e-08
-4.1032e-07
-1.84048e-06
-8.61563e-08
-3.61549e-07
-1.85981e-06
-8.86497e-08
-3.33492e-07
-1.80625e-06
-8.5683e-08
-3.02728e-07
-1.80071e-06
-8.6669e-08
-2.81668e-07
-1.77373e-06
-8.61481e-08
-2.62665e-07
-1.76004e-06
-8.68609e-08
-2.47649e-07
-1.74456e-06
-8.75364e-08
-2.3518e-07
-1.73215e-06
-8.8579e-08
-2.24913e-07
-1.72127e-06
-8.97814e-08
-2.16368e-07
-1.71199e-06
-9.11427e-08
-2.09187e-07
-1.7041e-06
-9.26199e-08
-2.03057e-07
-1.69742e-06
-9.41938e-08
-1.97716e-07
-1.69182e-06
-9.58543e-08
-1.92912e-07
-1.68722e-06
-9.75882e-08
-1.88452e-07
-1.68331e-06
-9.94249e-08
-1.83956e-07
-1.68016e-06
-1.01286e-07
-1.79346e-07
-1.68106e-06
-1.03568e-07
-1.75142e-07
-1.67241e-06
-1.05034e-07
-1.68243e-07
-1.68846e-06
-1.07888e-07
-1.64749e-07
-1.66349e-06
-1.0897e-07
-1.52917e-07
-1.70654e-06
-1.12581e-07
-1.50069e-07
-1.65632e-06
-1.13266e-07
-1.29984e-07
-1.73566e-06
-1.17891e-07
-1.27509e-07
-1.65682e-06
-1.18155e-07
-9.36578e-08
-1.77586e-06
-1.24977e-07
-9.0206e-08
-1.67714e-06
-1.24312e-07
-3.25075e-08
-1.82159e-06
-1.36417e-07
-2.04516e-08
-1.73195e-06
-1.33421e-07
6.3995e-08
-1.85811e-06
-1.54717e-07
1.09578e-07
-1.81613e-06
-1.54147e-07
2.12868e-07
-1.88896e-06
-1.8151e-07
2.86189e-07
-1.85944e-06
-1.88035e-07
3.85855e-07
-1.89569e-06
-2.23266e-07
4.32775e-07
-1.83488e-06
-2.25656e-07
4.98144e-07
-1.9353e-06
-2.87999e-07
6.41693e-07
-2.15959e-06
-2.49273e-07
9.45713e-07
-2.50746e-06
-4.46707e-07
2.18167e-06
-4.22049e-06
-1.61788e-07
4.65537e-06
-7.89628e-06
-4.90779e-08
6.60615e-06
-1.31009e-05
-9.7696e-08
5.51593e-06
-8.26612e-06
-5.25208e-06
-1.09508e-06
-1.08049e-05
-3.23864e-06
1.09482e-05
-1.7212e-06
-8.23058e-06
9.51624e-06
-4.12188e-06
-5.45718e-07
-1.1362e-06
-1.08161e-06
2.64869e-05
1.22516e-06
-6.47429e-06
-4.92028e-06
2.77089e-06
-2.21501e-05
-1.19718e-05
-5.12198e-06
-1.87835e-05
5.00587e-06
-9.41426e-06
-1.98359e-05
3.92732e-06
-1.20371e-05
-1.13132e-05
3.23633e-06
-1.06191e-05
-7.73632e-06
-8.14654e-07
-9.52365e-06
-5.06698e-06
-4.22385e-09
-9.55477e-06
-3.96308e-06
4.37641e-07
-9.49966e-06
-3.01836e-06
6.44508e-08
-9.49364e-06
-2.79779e-06
3.67963e-07
-9.64882e-06
-2.25728e-06
1.07217e-06
-9.89744e-06
-1.56547e-06
1.58865e-06
-1.00927e-05
-3.10183e-07
1.8788e-06
-9.9584e-06
9.83321e-07
2.1019e-06
-9.06246e-06
2.43876e-06
1.76699e-06
-7.05671e-06
4.01195e-06
6.25551e-07
-3.8759e-06
5.28373e-06
-7.29608e-07
-5.81631e-07
5.39356e-06
-1.05832e-06
2.03629e-06
4.87624e-06
-9.09087e-07
3.96359e-06
3.86524e-06
-1.06445e-06
5.06093e-06
3.05017e-06
-1.26327e-06
5.54423e-06
2.37014e-06
-1.29799e-06
5.60422e-06
1.89822e-06
-1.20433e-06
5.4236e-06
1.40041e-06
-1.02067e-06
5.06927e-06
9.14776e-07
-8.23673e-07
4.67416e-06
3.77639e-07
-6.26597e-07
4.24336e-06
-8.75011e-08
-4.37686e-07
3.88056e-06
-5.3533e-07
-3.01514e-07
3.56073e-06
-8.26115e-07
-2.07257e-07
3.22921e-06
-9.10776e-07
-1.50424e-07
2.85004e-06
-8.86344e-07
-1.16347e-07
2.4374e-06
-8.358e-07
-1.00778e-07
2.05047e-06
-8.82616e-07
-8.73211e-08
1.64639e-06
-8.92581e-07
-7.73571e-08
1.17527e-06
-8.79504e-07
-3.94604e-08
6.56484e-07
-9.5025e-07
1.13128e-08
-9.48911e-07
9.60359e-08
-2.46907e-06
-2.58101e-06
-1.07072e-06
-1.38622e-06
-3.40957e-06
-1.1471e-06
-1.48682e-06
-1.43544e-06
-4.51435e-07
-1.33273e-06
-2.00246e-06
-4.6982e-07
-1.35179e-06
-1.47425e-06
-3.4256e-07
-1.21397e-06
-1.87785e-06
-4.00169e-07
-1.1524e-06
-1.59734e-06
-3.27349e-07
-9.79865e-07
-1.91815e-06
-3.878e-07
-8.99247e-07
-1.65386e-06
-3.2116e-07
-7.46394e-07
-1.88346e-06
-3.64937e-07
-6.77464e-07
-1.65019e-06
-3.14143e-07
-5.64441e-07
-1.79362e-06
-3.40736e-07
-5.14889e-07
-1.61393e-06
-3.08268e-07
-4.38904e-07
-1.69049e-06
-3.21846e-07
-4.04711e-07
-1.56975e-06
-3.04898e-07
-3.55846e-07
-1.59824e-06
-3.10422e-07
-3.31189e-07
-1.52699e-06
-3.03892e-07
-3.00969e-07
-1.52465e-06
-3.06265e-07
-2.82923e-07
-1.48731e-06
-3.04446e-07
-2.65235e-07
-1.47203e-06
-3.05681e-07
-2.52267e-07
-1.45107e-06
-3.06433e-07
-2.41456e-07
-1.43486e-06
-3.08072e-07
-2.32721e-07
-1.42e-06
-3.09973e-07
-2.25535e-07
-1.40696e-06
-3.122e-07
-2.19576e-07
-1.39537e-06
-3.14663e-07
-2.1456e-07
-1.38507e-06
-3.17341e-07
-2.10294e-07
-1.37587e-06
-3.20194e-07
-2.06572e-07
-1.3677e-06
-3.23213e-07
-2.02956e-07
-1.3605e-06
-3.26401e-07
-1.9935e-07
-1.35401e-06
-3.2973e-07
-1.9605e-07
-1.35087e-06
-3.33466e-07
-1.92565e-07
-1.33929e-06
-3.36582e-07
-1.87441e-07
-1.35211e-06
-3.41459e-07
-1.84241e-07
-1.32293e-06
-3.43732e-07
-1.75444e-07
-1.36485e-06
-3.50466e-07
-1.72722e-07
-1.30771e-06
-3.51298e-07
-1.57139e-07
-1.39016e-06
-3.6107e-07
-1.5462e-07
-1.2994e-06
-3.59917e-07
-1.26069e-07
-1.42969e-06
-3.7471e-07
-1.22468e-07
-1.30963e-06
-3.71082e-07
-6.75791e-08
-1.48101e-06
-3.95451e-07
-5.75925e-08
-1.35336e-06
-3.88554e-07
3.82994e-08
-1.52622e-06
-4.27777e-07
7.89763e-08
-1.43159e-06
-4.25195e-07
2.09551e-07
-1.54479e-06
-4.74741e-07
2.78868e-07
-1.44385e-06
-4.84884e-07
3.66458e-07
-1.44115e-06
-5.42126e-07
2.71747e-07
-1.18105e-06
-5.59104e-07
1.66178e-07
-1.2148e-06
-6.14939e-07
-5.72676e-08
-1.41159e-06
-5.24538e-07
2.49584e-07
-1.98609e-06
-8.28222e-07
1.58749e-06
-5.32625e-06
-2.32136e-07
2.77721e-06
-8.97355e-06
-1.12467e-07
-3.25856e-07
-1.0435e-05
4.37168e-07
-6.10246e-06
-3.43737e-06
9.47844e-07
-1.10593e-05
-8.30659e-06
2.4585e-06
1.05906e-05
-2.15762e-05
-1.79468e-06
1.214e-05
-6.63382e-06
9.62505e-07
-4.85753e-07
-6.80913e-06
1.83522e-05
1.40923e-06
-3.78245e-06
-4.58683e-06
2.57061e-06
-8.41039e-06
-1.4901e-05
-9.21121e-06
-1.10747e-05
4.07304e-06
-2.07047e-05
-1.16961e-05
3.35374e-06
-2.58805e-05
-8.44459e-06
2.30724e-06
-2.69153e-05
-6.56203e-06
-1.39402e-07
-2.55073e-05
-5.7933e-06
-6.81679e-07
-2.36905e-05
-5.27626e-06
-5.0363e-07
-2.20248e-05
-4.82453e-06
1.40487e-07
-2.06706e-05
-4.63204e-06
4.8009e-07
-1.96816e-05
-4.43754e-06
1.19125e-06
-1.84564e-05
-4.02805e-06
1.23747e-06
-1.71573e-05
-2.90869e-06
1.29933e-06
-1.59856e-05
-1.57526e-06
1.38697e-06
-1.43674e-05
-2.17825e-08
8.42298e-07
-1.19526e-05
1.66924e-06
-7.20776e-08
-8.90884e-06
3.09521e-06
-8.55248e-07
-5.71356e-06
3.68967e-06
-1.49138e-06
-3.08229e-06
3.9776e-06
-1.73263e-06
-1.03659e-06
3.76002e-06
-1.94047e-06
4.07875e-07
3.61846e-06
-2.01276e-06
1.32063e-06
3.24971e-06
-1.79233e-06
1.88464e-06
2.8605e-06
-1.52629e-06
2.22463e-06
2.20333e-06
-1.14292e-06
2.45575e-06
1.49759e-06
-8.13931e-07
2.67188e-06
6.73274e-07
-5.11764e-07
2.75944e-06
8.6908e-08
-2.6197e-07
2.78359e-06
-4.10974e-07
-1.48506e-07
2.81109e-06
-7.27613e-07
-1.25999e-07
2.83668e-06
-7.69141e-07
-1.67224e-07
2.78295e-06
-6.30613e-07
-2.02003e-07
2.51718e-06
-3.31493e-07
-2.38533e-07
2.06716e-06
-1.87907e-07
-2.44694e-07
1.41452e-06
7.22315e-09
-2.47165e-07
7.02006e-07
4.02893e-09
-1.71016e-07
2.74771e-07
-4.29591e-07
-9.34235e-08
-7.53286e-07
7.9146e-08
-2.61115e-06
-1.54196e-06
-1.0121e-06
-1.50064e-06
-3.12704e-06
-1.39303e-06
-1.73443e-06
-5.51958e-07
-6.49712e-07
-1.5593e-06
-1.46624e-06
-7.11357e-07
-1.5606e-06
-8.47785e-07
-6.25193e-07
-1.37658e-06
-1.37544e-06
-6.86429e-07
-1.26284e-06
-1.07774e-06
-6.3334e-07
-1.05415e-06
-1.43701e-06
-6.8983e-07
-9.32872e-07
-1.13836e-06
-6.36776e-07
-7.6016e-07
-1.37935e-06
-6.76808e-07
-6.71022e-07
-1.10665e-06
-6.32662e-07
-5.51176e-07
-1.25358e-06
-6.59862e-07
-4.95472e-07
-1.04028e-06
-6.29341e-07
-4.1894e-07
-1.12041e-06
-6.46598e-07
-3.86133e-07
-9.72864e-07
-6.2968e-07
-3.39355e-07
-1.00513e-06
-6.39865e-07
-3.1923e-07
-9.14198e-07
-6.32898e-07
-2.91531e-07
-9.1368e-07
-6.38643e-07
-2.77437e-07
-8.63306e-07
-6.38077e-07
-2.6175e-07
-8.45898e-07
-6.41796e-07
-2.51616e-07
-8.17229e-07
-6.43956e-07
-2.4298e-07
-7.95842e-07
-6.47635e-07
-2.36278e-07
-7.75226e-07
-6.51459e-07
-2.30919e-07
-7.56672e-07
-6.55622e-07
-2.26633e-07
-7.39656e-07
-6.59977e-07
-2.23128e-07
-7.23974e-07
-6.64582e-07
-2.20258e-07
-7.09486e-07
-6.69228e-07
-2.17747e-07
-6.96279e-07
-6.73911e-07
-2.15426e-07
-6.84086e-07
-6.78713e-07
-2.13162e-07
-6.72879e-07
-6.83376e-07
-2.11264e-07
-6.64451e-07
-6.88291e-07
-2.08975e-07
-6.49106e-07
-6.92451e-07
-2.05764e-07
-6.56585e-07
-6.98704e-07
-2.03718e-07
-6.23556e-07
-7.01399e-07
-1.98311e-07
-6.60999e-07
-7.09232e-07
-1.96436e-07
-5.99242e-07
-7.10324e-07
-1.86926e-07
-6.79449e-07
-7.20191e-07
-1.84206e-07
-5.81992e-07
-7.20108e-07
-1.64799e-07
-7.15839e-07
-7.33227e-07
-1.58623e-07
-5.83249e-07
-7.32545e-07
-1.13985e-07
-7.73453e-07
-7.5217e-07
-9.67026e-08
-6.20539e-07
-7.50088e-07
8.30765e-09
-8.49042e-07
-7.82161e-07
6.4394e-08
-7.07296e-07
-7.80371e-07
2.25266e-07
-8.92137e-07
-8.13502e-07
3.75512e-07
-7.77667e-07
-8.16422e-07
5.65691e-07
-7.90708e-07
-8.40603e-07
5.52036e-07
-2.63971e-07
-9.03421e-07
2.79011e-07
5.23681e-08
-9.94121e-07
-3.51921e-07
2.27652e-07
-1.00832e-06
2.57476e-07
-1.59122e-06
-1.00425e-06
1.0023e-06
-6.56753e-06
4.96448e-07
2.14025e-06
-1.06552e-05
5.43746e-07
-6.51563e-07
-8.94418e-06
1.30101e-06
6.14796e-06
-1.16819e-05
1.44501e-06
5.33233e-06
-1.45239e-05
7.03289e-06
1.08684e-05
-3.22692e-05
5.15705e-06
2.00741e-05
-1.91227e-05
3.28315e-06
-3.22984e-07
1.27934e-05
7.93539e-07
-1.73623e-07
-1.63883e-06
-2.29294e-06
6.88704e-06
-1.11429e-06
-1.43565e-05
-9.3254e-06
9.05089e-07
4.23283e-06
-2.60844e-05
1.11794e-06
3.9452e-06
-3.39777e-05
-2.2599e-06
1.70875e-06
-3.60248e-05
-4.48585e-06
-2.89039e-08
-3.59355e-05
-5.30245e-06
-5.80019e-07
-3.46577e-05
-6.08511e-06
-4.68858e-07
-3.3502e-05
-6.34617e-06
3.66093e-07
-3.28816e-05
-6.04079e-06
7.88468e-07
-3.27625e-05
-5.48895e-06
9.32386e-07
-3.23415e-05
-4.84821e-06
3.99263e-07
-3.17665e-05
-3.58388e-06
1.00339e-07
-3.11181e-05
-2.05156e-06
-1.72074e-07
-2.95238e-05
-9.31238e-07
-6.84679e-07
-2.71904e-05
2.07069e-07
-8.712e-07
-2.40387e-05
1.07059e-06
-1.12698e-06
-2.08601e-05
1.82385e-06
-1.31275e-06
-1.79768e-05
2.69297e-06
-1.59867e-06
-1.52593e-05
2.72185e-06
-1.67931e-06
-1.26177e-05
2.56352e-06
-1.58662e-06
-1.0272e-05
1.83647e-06
-9.32493e-07
-8.34292e-06
1.48491e-06
-5.53473e-07
-7.12e-06
1.10338e-06
-1.22973e-07
-6.31897e-06
8.85904e-07
-1.89342e-07
-5.87094e-06
4.29473e-07
-2.04227e-07
-5.30286e-06
-1.45856e-07
-3.35319e-07
-4.73249e-06
-6.28213e-07
-3.53128e-07
-3.89596e-06
-1.05165e-06
-5.12494e-07
-2.78233e-06
-1.29734e-06
-5.85433e-07
-1.43585e-06
-1.31357e-06
-6.63517e-07
-9.55931e-08
-8.61873e-07
-8.09876e-07
8.09474e-07
-3.27391e-07
-7.65583e-07
1.22794e-06
2.70849e-07
-6.82087e-07
1.23274e-06
4.68698e-07
-4.69478e-07
1.03783e-06
-6.95897e-08
-1.65085e-07
-3.87365e-07
6.71908e-07
-2.82246e-06
-4.75928e-08
-8.51478e-07
-1.64548e-06
-2.65412e-06
-1.64992e-06
-2.02697e-06
5.78153e-07
-7.48636e-07
-1.77952e-06
-8.62582e-07
-8.51128e-07
-1.7453e-06
-9.66202e-08
-7.85394e-07
-1.52468e-06
-7.79674e-07
-8.16409e-07
-1.33742e-06
-4.28995e-07
-8.35993e-07
-1.12245e-06
-8.10646e-07
-8.41325e-07
-9.38072e-07
-4.62771e-07
-8.5995e-07
-7.76625e-07
-6.8658e-07
-8.54207e-07
-6.54157e-07
-3.67019e-07
-8.6208e-07
-5.47652e-07
-5.01567e-07
-8.58507e-07
-4.78309e-07
-2.50104e-07
-8.59502e-07
-4.11712e-07
-3.25209e-07
-8.6178e-07
-3.74934e-07
-1.49084e-07
-8.60537e-07
-3.34487e-07
-1.79996e-07
-8.65566e-07
-3.14484e-07
-6.96048e-08
-8.64574e-07
-2.89896e-07
-6.86487e-08
-8.69601e-07
-2.75766e-07
-8.03721e-09
-8.69376e-07
-2.60804e-07
1.29858e-08
-8.73825e-07
-2.53393e-07
5.19417e-08
-8.76559e-07
-2.46834e-07
7.76219e-08
-8.80001e-07
-2.42142e-07
1.02538e-07
-8.82433e-07
-2.385e-07
1.24506e-07
-8.84796e-07
-2.35651e-07
1.44451e-07
-8.86933e-07
-2.33438e-07
1.62422e-07
-8.88585e-07
-2.31738e-07
1.78675e-07
-8.89837e-07
-2.30318e-07
1.93628e-07
-8.91303e-07
-2.29273e-07
2.07498e-07
-8.92606e-07
-2.2845e-07
2.20071e-07
-8.93746e-07
-2.27881e-07
2.29952e-07
-8.9495e-07
-2.26882e-07
2.4502e-07
-8.95097e-07
-2.25776e-07
2.3873e-07
-8.96399e-07
-2.25178e-07
2.71509e-07
-8.95634e-07
-2.23656e-07
2.332e-07
-8.95699e-07
-2.226e-07
2.95376e-07
-8.95646e-07
-2.19711e-07
2.10551e-07
-8.92868e-07
-2.15827e-07
3.09297e-07
-8.95144e-07
-2.07816e-07
1.64322e-07
-8.88155e-07
-1.96113e-07
2.98935e-07
-8.93859e-07
-1.63185e-07
7.88051e-08
-8.85174e-07
-1.27288e-07
2.36142e-07
-8.92556e-07
-2.58456e-08
-6.1271e-08
-8.8921e-07
8.3695e-08
8.29944e-08
-8.99812e-07
2.51216e-07
-1.84648e-07
-8.75008e-07
4.52496e-07
-1.26224e-07
-8.52702e-07
4.5189e-07
-1.33908e-07
-6.5619e-07
1.64862e-07
5.27776e-07
-5.04697e-07
3.96079e-07
7.59272e-08
-2.54775e-07
1.12274e-06
-3.02772e-07
-1.96217e-07
1.93631e-06
-2.48735e-06
8.25493e-08
-8.54032e-07
-5.77768e-06
2.00051e-06
-4.20573e-06
-9.64193e-06
2.33838e-06
-1.02537e-05
-6.63295e-06
3.73672e-06
-1.05179e-05
-1.6565e-05
5.14724e-06
-1.41355e-05
-1.86611e-05
7.75488e-06
-1.55456e-05
-3.63632e-05
5.50434e-06
-6.9836e-06
-1.93498e-05
-8.33507e-06
-1.60146e-06
2.10343e-05
-1.36242e-05
1.36979e-06
-2.1509e-06
-2.459e-06
1.08975e-05
4.63186e-07
-1.11048e-05
-7.47762e-06
1.19307e-05
7.3497e-06
-2.40248e-05
1.18567e-05
5.80866e-06
-3.29026e-05
3.53488e-06
3.08316e-06
-3.53842e-05
-2.66729e-06
6.63248e-07
-3.54569e-05
-5.23855e-06
9.01415e-09
-3.50681e-05
-6.71323e-06
2.39573e-07
-3.42311e-05
-7.39189e-06
2.08849e-07
-3.36301e-05
-7.32794e-06
6.86328e-07
-3.31904e-05
-6.8418e-06
9.13436e-07
-3.30765e-05
-5.84118e-06
8.79229e-07
-3.31298e-05
-4.28748e-06
7.57159e-07
-3.27302e-05
-2.95487e-06
5.03919e-07
-3.15917e-05
-2.2387e-06
1.6919e-07
-3.0034e-05
-1.01841e-06
-3.32007e-07
-2.68704e-05
-8.33971e-07
-1.25884e-06
-2.2776e-05
-7.47299e-07
-1.52308e-06
-1.809e-05
-6.9894e-07
-1.29404e-06
-1.40577e-05
-1.29025e-06
-2.025e-08
-1.15129e-05
-1.02919e-06
1.04793e-06
-1.0097e-05
-1.05547e-06
1.47611e-06
-9.50872e-06
-7.92625e-07
1.68923e-06
-9.60275e-06
-6.63343e-07
1.86077e-06
-9.95702e-06
-5.06161e-07
1.74635e-06
-1.05431e-05
-5.67512e-07
1.5831e-06
-1.08253e-05
-1.10049e-06
1.23679e-06
-1.09516e-05
-1.63348e-06
1.13157e-06
-1.08947e-05
-2.03811e-06
9.29574e-07
-1.04736e-05
-2.40142e-06
6.8308e-07
-9.34791e-06
-2.587e-06
1.47703e-07
-7.77222e-06
-2.36906e-06
-6.84971e-08
-5.55676e-06
-2.08671e-06
-4.56135e-07
-3.11157e-06
-1.43866e-06
-7.35671e-07
-9.37189e-07
-7.69218e-07
-9.36468e-07
2.15441e-07
-3.53383e-07
-8.68835e-07
-4.01968e-07
2.30046e-07
-2.67612e-06
1.91096e-06
-4.67947e-07
-1.62629e-06
-2.12838e-06
-1.57558e-06
-2.25204e-06
1.71988e-06
-5.15994e-07
-1.93307e-06
-3.60827e-07
-8.20742e-07
-1.88608e-06
5.82284e-07
-7.25915e-07
-1.59621e-06
-2.52396e-07
-8.17138e-07
-1.3744e-06
2.0062e-07
-8.51431e-07
-1.11559e-06
-1.80116e-07
-8.89319e-07
-9.14601e-07
2.54784e-07
-9.18536e-07
-7.35557e-07
6.37102e-08
-9.29315e-07
-6.07205e-07
4.51572e-07
-9.4693e-07
-5.04779e-07
3.53525e-07
-9.57497e-07
-4.35414e-07
6.49833e-07
-9.69287e-07
-3.77143e-07
5.98864e-07
-9.82323e-07
-3.43675e-07
8.10639e-07
-9.93175e-07
-3.10809e-07
7.95188e-07
-1.00803e-06
-2.96916e-07
9.34288e-07
-1.01777e-06
-2.79006e-07
9.46962e-07
-1.0335e-06
-2.75915e-07
1.032e-06
-1.04311e-06
-2.6938e-07
1.06336e-06
-1.05689e-06
-2.66291e-07
1.1149e-06
-1.06602e-06
-2.63155e-07
1.15173e-06
-1.07722e-06
-2.6186e-07
1.18816e-06
-1.08689e-06
-2.61505e-07
1.22105e-06
-1.09688e-06
-2.62141e-07
1.25139e-06
-1.10628e-06
-2.63314e-07
1.27932e-06
-1.1157e-06
-2.64674e-07
1.30532e-06
-1.12526e-06
-2.66287e-07
1.32966e-06
-1.1344e-06
-2.68079e-07
1.35246e-06
-1.14314e-06
-2.70124e-07
1.37376e-06
-1.15162e-06
-2.72617e-07
1.39256e-06
-1.16008e-06
-2.74756e-07
1.4149e-06
-1.16772e-06
-2.78297e-07
1.41905e-06
-1.17675e-06
-2.81321e-07
1.45742e-06
-1.18287e-06
-2.8677e-07
1.43082e-06
-1.19214e-06
-2.89872e-07
1.49639e-06
-1.19789e-06
-2.98585e-07
1.42571e-06
-1.20642e-06
-3.00532e-07
1.52394e-06
-1.21268e-06
-3.15199e-07
1.39841e-06
-1.21939e-06
-3.14497e-07
1.52483e-06
-1.22658e-06
-3.38286e-07
1.33134e-06
-1.22873e-06
-3.29407e-07
1.45729e-06
-1.23002e-06
-3.63681e-07
1.16718e-06
-1.19416e-06
-3.49018e-07
1.21873e-06
-1.1504e-06
-6.86319e-08
3.96202e-07
-8.6122e-07
1.06551e-06
-9.17103e-07
-3.43261e-07
2.60781e-06
-1.97799e-06
3.01805e-07
4.88677e-06
-1.74985e-06
-1.33004e-09
6.63238e-06
-1.57748e-06
-9.21893e-08
6.45361e-06
5.15958e-07
-6.39961e-07
1.76824e-06
1.96928e-06
2.28756e-07
-1.19616e-05
4.24857e-06
3.70361e-06
-3.40108e-05
5.05493e-06
7.35239e-06
-5.10708e-05
2.33655e-06
8.09056e-06
-6.62335e-05
-9.81521e-06
8.41306e-06
-7.23221e-05
-2.00334e-05
7.46088e-06
-9.16893e-05
-2.43172e-05
7.32148e-06
-7.63554e-05
-1.86465e-05
-1.60374e-05
6.40253e-06
-1.88706e-05
-4.28539e-05
3.06854e-06
1.87307e-06
-6.89577e-07
-1.59345e-05
1.58543e-05
3.6124e-06
-2.91357e-05
1.59436e-05
9.18883e-06
-3.92568e-05
1.48067e-05
7.17162e-06
-4.21649e-05
5.68831e-06
7.55132e-07
-4.14944e-05
-7.45881e-07
-2.59145e-06
-3.97249e-05
-4.33014e-06
-2.67746e-06
-3.90988e-05
-5.32728e-06
-2.01178e-06
-3.79869e-05
-6.53329e-06
-1.97023e-06
-3.70887e-05
-6.69598e-06
-1.52995e-06
-3.59909e-05
-6.75253e-06
-1.18693e-06
-3.4521e-05
-6.35828e-06
-9.52727e-07
-3.17679e-05
-6.29191e-06
-7.48706e-07
-2.81673e-05
-6.35794e-06
-1.97516e-07
-2.442e-05
-6.39596e-06
4.1002e-07
-2.02178e-05
-5.86533e-06
6.44689e-07
-1.63769e-05
-5.86616e-06
1.19127e-06
-1.3134e-05
-5.35202e-06
1.36189e-06
-1.06173e-05
-5.1113e-06
1.89557e-06
-9.51831e-06
-4.7492e-06
2.36001e-06
-9.11758e-06
-3.81688e-06
2.38697e-06
-9.72161e-06
-2.79453e-06
2.34308e-06
-1.06478e-05
-1.86941e-06
2.003e-06
-1.14356e-05
-1.47372e-06
1.59822e-06
-1.17205e-05
-1.58195e-06
1.36067e-06
-1.1274e-05
-2.23246e-06
1.21844e-06
-1.04616e-05
-3.16331e-06
1.25038e-06
-9.83679e-06
-3.64902e-06
1.39075e-06
-9.58568e-06
-3.76784e-06
1.47862e-06
-9.55476e-06
-3.85288e-06
1.42053e-06
-9.64903e-06
-3.86386e-06
1.37113e-06
-9.62482e-06
-3.65867e-06
1.2654e-06
-9.07076e-06
-3.63612e-06
9.95362e-07
-7.98268e-06
-3.42222e-06
8.9551e-07
-6.26606e-06
-3.11389e-06
6.28128e-07
-4.09277e-06
-3.01331e-06
4.86693e-07
-4.46735e-06
-2.73758e-08
-2.94435e-06
3.29428e-06
1.71379e-06
-1.84001e-06
-1.64904e-06
-1.58369e-06
-2.44948e-06
1.9184e-06
4.10943e-07
-2.03747e-06
-2.1591e-07
-5.56948e-07
-1.87586e-06
7.46479e-07
-3.25811e-07
-1.53342e-06
-8.44108e-08
-5.10432e-07
-1.30608e-06
5.10078e-07
-5.36791e-07
-1.03148e-06
1.81651e-07
-6.36354e-07