/*--------------------------------*- C++ -*----------------------------------*\
| =========                 |                                                 |
| \\      /  F ield         | OpenFOAM: The Open Source CFD Toolbox           |
|  \\    /   O peration     | Version:  2.3.0                                 |
|   \\  /    A nd           | Web:      www.OpenFOAM.org                      |
|    \\/     M anipulation  |                                                 |
\*---------------------------------------------------------------------------*/
FoamFile
{
    version     2.0;
    format      ascii;
    class       surfaceScalarField;
    location    "4";
    object      phi.water;
}
// * * * * * * * * * * * * * * * * * * * * * * * * * * * * * * * * * * * * * //

dimensions      [0 3 -1 0 0 0 0];

internalField   nonuniform List<scalar> 
16448
(
-2.80111e-06
-1.89068e-06
6.73972e-07
-1.75251e-06
-1.84907e-06
8.0149e-07
-1.37134e-06
-1.44478e-06
1.06336e-06
-1.0155e-06
-1.43229e-06
1.07593e-06
-9.00189e-07
-1.21658e-06
1.10143e-06
-7.3579e-07
-1.27237e-06
1.10751e-06
-6.88424e-07
-1.14851e-06
1.10129e-06
-5.711e-07
-1.22276e-06
1.10504e-06
-5.29922e-07
-1.13884e-06
1.09777e-06
-4.35395e-07
-1.19396e-06
1.09908e-06
-3.9484e-07
-1.13351e-06
1.09296e-06
-3.21628e-07
-1.16539e-06
1.09184e-06
-2.82599e-07
-1.1268e-06
1.08765e-06
-2.30159e-07
-1.1386e-06
1.08584e-06
-1.95619e-07
-1.11766e-06
1.08289e-06
-1.59591e-07
-1.11733e-06
1.08099e-06
-1.31611e-07
-1.10721e-06
1.07895e-06
-1.06648e-07
-1.10258e-06
1.07731e-06
-8.59379e-08
-1.09684e-06
1.07582e-06
-6.83883e-08
-1.09241e-06
1.07453e-06
-5.36647e-08
-1.08848e-06
1.07343e-06
-4.12889e-08
-1.0852e-06
1.07249e-06
-3.08511e-08
-1.08246e-06
1.07169e-06
-2.2005e-08
-1.08023e-06
1.07104e-06
-1.44217e-08
-1.07843e-06
1.07051e-06
-7.83801e-09
-1.07702e-06
1.07009e-06
-2.00726e-09
-1.07595e-06
1.06978e-06
3.23378e-09
-1.07517e-06
1.06958e-06
8.48472e-09
-1.07498e-06
1.06944e-06
1.23588e-08
-1.07385e-06
1.06957e-06
1.9608e-08
-1.07691e-06
1.06947e-06
2.16105e-08
-1.07205e-06
1.06957e-06
3.19966e-08
-1.08097e-06
1.07048e-06
3.28251e-08
-1.07086e-06
1.06954e-06
4.77518e-08
-1.08755e-06
1.07256e-06
4.93137e-08
-1.07185e-06
1.06986e-06
6.97544e-08
-1.0965e-06
1.07597e-06
7.63857e-08
-1.07802e-06
1.07106e-06
1.01683e-07
-1.10593e-06
1.08054e-06
1.2132e-07
-1.09219e-06
1.07232e-06
1.4623e-07
-1.11231e-06
1.08739e-06
1.88631e-07
-1.12181e-06
1.07913e-06
2.19957e-07
-1.12301e-06
1.09184e-06
2.74758e-07
-1.14466e-06
1.08967e-06
3.21839e-07
-1.14479e-06
1.09796e-06
3.8909e-07
-1.16897e-06
1.10178e-06
4.62287e-07
-1.17858e-06
1.10583e-06
5.50857e-07
-1.20426e-06
1.11618e-06
6.88689e-07
-1.24867e-06
1.11217e-06
8.30163e-07
-1.2706e-06
1.12986e-06
1.10443e-06
-1.3887e-06
1.11857e-06
1.19715e-06
-1.20717e-06
1.11507e-06
1.62167e-06
-1.56285e-06
1.14888e-06
1.33093e-06
-9.04319e-07
1.18968e-06
2.90151e-06
-3.33475e-06
1.86358e-06
4.77649e-06
-4.58767e-06
2.56495e-06
2.4951e-06
-2.05782e-06
4.31836e-06
7.64021e-06
-2.88021e-06
-1.69069e-06
9.03156e-07
1.21208e-05
5.39395e-06
3.09659e-05
-3.83798e-06
-7.12269e-06
2.8473e-05
-2.73637e-05
5.20644e-07
3.45457e-05
-1.39132e-05
6.61186e-06
3.45566e-05
-7.09159e-06
7.07744e-06
3.54527e-05
-6.43751e-06
5.54146e-06
3.55068e-05
-4.71175e-06
4.65761e-06
3.48382e-05
-3.41003e-06
4.07864e-06
3.4026e-05
-2.84448e-06
3.65667e-06
3.36599e-05
-2.59859e-06
2.96468e-06
3.36862e-05
-2.3669e-06
2.3406e-06
3.36686e-05
-1.73033e-06
1.74798e-06
3.34703e-05
-1.27848e-06
1.47677e-06
3.26902e-05
-6.79223e-07
1.45931e-06
3.08795e-05
-1.42895e-08
1.82495e-06
2.82594e-05
1.30098e-06
1.31911e-06
2.43007e-05
2.41718e-06
1.54154e-06
2.04393e-05
2.55463e-06
1.30678e-06
1.85467e-05
2.75702e-06
-8.64454e-07
1.68138e-05
3.15753e-06
-1.42466e-06
1.35768e-05
3.08743e-06
1.49637e-07
1.01515e-05
1.78165e-06
1.64358e-06
7.89837e-06
4.78098e-07
1.77508e-06
6.55964e-06
-2.81771e-07
1.6205e-06
5.67334e-06
-6.81097e-07
1.56739e-06
4.99651e-06
-9.042e-07
1.58103e-06
4.43404e-06
-1.05029e-06
1.61276e-06
3.94275e-06
-1.14854e-06
1.63983e-06
3.50092e-06
-1.21683e-06
1.65866e-06
3.09444e-06
-1.26285e-06
1.66933e-06
2.70508e-06
-1.28246e-06
1.67182e-06
2.32133e-06
-1.28808e-06
1.67182e-06
1.93902e-06
-1.2902e-06
1.67251e-06
1.5564e-06
-1.29152e-06
1.67414e-06
1.17646e-06
-1.29114e-06
1.67108e-06
7.89636e-07
-1.27739e-06
1.66422e-06
4.00572e-07
-1.26642e-06
1.65549e-06
-1.24038e-06
1.64095e-06
-3.0117e-06
-2.92658e-06
-2.34159e-07
-1.90249e-06
-2.92691e-06
-3.00747e-08
-1.56465e-06
-2.14978e-06
3.67337e-07
-1.25162e-06
-2.16869e-06
4.23364e-07
-1.15797e-06
-1.81672e-06
5.06872e-07
-9.93851e-07
-1.94597e-06
5.0942e-07
-9.30329e-07
-1.74515e-06
5.3363e-07
-7.95428e-07
-1.88588e-06
5.28186e-07
-7.36213e-07
-1.73808e-06
5.40497e-07
-6.21413e-07
-1.84585e-06
5.37067e-07
-5.62623e-07
-1.73603e-06
5.44104e-07
-4.69306e-07
-1.80196e-06
5.43238e-07
-4.1755e-07
-1.72582e-06
5.47504e-07
-3.4887e-07
-1.75469e-06
5.47391e-07
-3.05926e-07
-1.71016e-06
5.4969e-07
-2.59496e-07
-1.71395e-06
5.5018e-07
-2.25494e-07
-1.69219e-06
5.51017e-07
-1.94199e-07
-1.68542e-06
5.51527e-07
-1.68855e-07
-1.67416e-06
5.51967e-07
-1.47264e-07
-1.66638e-06
5.52358e-07
-1.29246e-07
-1.65922e-06
5.52691e-07
-1.1411e-07
-1.65337e-06
5.52997e-07
-1.01372e-07
-1.64854e-06
5.53284e-07
-9.0583e-08
-1.64464e-06
5.53571e-07
-8.13533e-08
-1.64157e-06
5.53854e-07
-7.33302e-08
-1.63924e-06
5.54142e-07
-6.6185e-08
-1.63758e-06
5.54431e-07
-5.96168e-08
-1.63651e-06
5.54726e-07
-5.36207e-08
-1.63595e-06
5.54957e-07
-4.77271e-08
-1.63522e-06
5.55382e-07
-4.07493e-08
-1.63898e-06
5.55196e-07
-3.58078e-08
-1.63343e-06
5.56259e-07
-2.50177e-08
-1.64733e-06
5.55853e-07
-2.1589e-08
-1.63161e-06
5.57009e-07
-4.18816e-09
-1.66123e-06
5.56814e-07
-1.90738e-09
-1.63183e-06
5.57273e-07
2.44766e-08
-1.6805e-06
5.58191e-07
2.80558e-08
-1.6388e-06
5.5708e-07
6.67591e-08
-1.70338e-06
5.592e-07
7.98752e-08
-1.66247e-06
5.57328e-07
1.29118e-07
-1.72201e-06
5.60933e-07
1.62231e-07
-1.71062e-06
5.56027e-07
2.22186e-07
-1.7427e-06
5.60419e-07
2.82079e-07
-1.75877e-06
5.54689e-07
3.59008e-07
-1.77829e-06
5.5743e-07
4.36638e-07
-1.79969e-06
5.5399e-07
5.4065e-07
-1.83305e-06
5.51581e-07
6.2433e-07
-1.84717e-06
5.60871e-07
7.91479e-07
-1.95311e-06
5.3958e-07
9.28491e-07
-1.97683e-06
5.71557e-07
1.30762e-06
-2.26227e-06
5.00172e-07
1.65703e-06
-2.05975e-06
5.06214e-07
2.74486e-06
-3.07922e-06
4.47956e-07
6.22541e-06
-4.576e-06
1.79501e-07
1.15685e-05
-8.76515e-06
3.43199e-07
1.90618e-05
-1.29623e-05
7.21901e-07
1.84693e-05
-3.45922e-06
2.01484e-06
1.67735e-05
-7.22425e-06
4.19417e-06
7.58853e-06
1.85504e-05
1.65321e-05
3.06742e-05
-3.75816e-06
-1.66748e-06
1.40147e-05
-3.58542e-05
-4.9231e-06
1.19817e-05
-1.97145e-05
7.19107e-06
1.2155e-05
-1.47082e-05
7.44269e-06
1.06519e-05
-1.02636e-05
5.32918e-06
8.22002e-06
-6.96217e-06
4.68228e-06
7.41157e-06
-5.71189e-06
3.11032e-06
9.07867e-06
-5.24531e-06
7.33733e-07
1.17802e-05
-4.68548e-06
-6.14662e-07
1.47895e-05
-3.79047e-06
-1.58572e-06
1.75319e-05
-2.1203e-06
-2.3524e-06
1.91392e-05
-5.33561e-07
-2.35227e-06
1.95567e-05
6.54149e-07
-1.75081e-06
1.9039e-05
2.08782e-06
-1.58448e-06
1.80131e-05
3.99147e-06
-1.66454e-06
1.60033e-05
5.52382e-06
-1.09682e-06
1.46382e-05
6.18139e-06
-2.26172e-06
1.45969e-05
6.71642e-06
-3.91809e-06
1.39447e-05
6.61834e-06
-2.80861e-06
1.17849e-05
5.4485e-06
-2.0125e-07
9.31188e-06
3.21909e-06
1.03554e-06
7.69027e-06
1.32255e-06
7.77168e-07
6.6815e-06
2.11695e-07
5.15296e-07
5.93907e-06
-4.04774e-07
4.6611e-07
5.31206e-06
-7.96171e-07
5.18981e-07
4.75295e-06
-1.08327e-06
5.92087e-07
4.24356e-06
-1.29215e-06
6.52991e-07
3.78606e-06
-1.44871e-06
6.89387e-07
3.37078e-06
-1.5536e-06
7.06032e-07
2.96827e-06
-1.59396e-06
7.14008e-07
2.56413e-06
-1.59972e-06
7.15779e-07
2.15487e-06
-1.59478e-06
7.1384e-07
1.7407e-06
-1.59145e-06
7.14103e-07
1.31949e-06
-1.59226e-06
7.22332e-07
8.79979e-07
-1.5761e-06
7.38225e-07
4.40613e-07
-1.57601e-06
7.48952e-07
-1.55982e-06
7.60051e-07
-2.69087e-06
-3.25651e-06
-8.72959e-07
-1.55851e-06
-3.34697e-06
-7.11521e-07
-1.39221e-06
-2.25415e-06
-6.14164e-08
-1.15819e-06
-2.39388e-06
-9.03899e-09
-1.10849e-06
-1.96602e-06
1.00189e-07
-9.69115e-07
-2.17417e-06
8.87985e-08
-9.19234e-07
-1.92166e-06
1.27228e-07
-7.85073e-07
-2.12671e-06
1.0668e-07
-7.27186e-07
-1.92769e-06
1.32266e-07
-6.07375e-07
-2.08366e-06
1.17997e-07
-5.50953e-07
-1.92726e-06
1.35234e-07
-4.5724e-07
-2.02329e-06
1.27606e-07
-4.0751e-07
-1.91297e-06
1.37714e-07
-3.38047e-07
-1.9582e-06
1.34032e-07
-2.97759e-07
-1.88956e-06
1.39289e-07
-2.49848e-07
-1.89981e-06
1.37956e-07
-2.18479e-07
-1.86397e-06
1.40498e-07
-1.87572e-07
-1.8567e-06
1.40381e-07
-1.63912e-07
-1.83888e-06
1.41092e-07
-1.43423e-07
-1.82796e-06
1.41086e-07
-1.26576e-07
-1.81713e-06
1.41056e-07
-1.12483e-07
-1.8083e-06
1.40817e-07
-1.00689e-07
-1.80082e-06
1.40467e-07
-9.0745e-08
-1.79462e-06
1.40015e-07
-8.22607e-08
-1.78956e-06
1.39484e-07
-7.49105e-08
-1.78551e-06
1.38888e-07
-6.84037e-08
-1.78234e-06
1.38233e-07
-6.24835e-08
-1.78e-06
1.3754e-07
-5.69862e-08
-1.77826e-06
1.36812e-07
-5.15408e-08
-1.77692e-06
1.36173e-07
-4.53273e-08
-1.77996e-06
1.34894e-07
-4.05531e-08
-1.77316e-06
1.3478e-07
-3.11534e-08
-1.78933e-06
1.32896e-07
-2.74734e-08
-1.76881e-06
1.33221e-07
-1.2035e-08
-1.80708e-06
1.30981e-07
-9.42872e-09
-1.76646e-06
1.31541e-07
1.47394e-08
-1.83312e-06
1.29148e-07
1.84804e-08
-1.77206e-06
1.2925e-07
5.58536e-08
-1.86644e-06
1.26255e-07
6.46297e-08
-1.79731e-06
1.26149e-07
1.20864e-07
-1.89947e-06
1.21703e-07
1.42323e-07
-1.85231e-06
1.20544e-07
2.12183e-07
-1.92715e-06
1.15231e-07
2.66548e-07
-1.92322e-06
1.10448e-07
3.51844e-07
-1.9654e-06
1.02613e-07
4.27503e-07
-1.97203e-06
9.74015e-08
5.2981e-07
-2.01676e-06
8.23895e-08
6.05807e-07
-2.01067e-06
8.88716e-08
7.59358e-07
-2.15455e-06
4.9799e-08
9.64859e-07
-2.26172e-06
8.13779e-08
1.38696e-06
-2.64589e-06
-3.38375e-08
2.38909e-06
-3.1419e-06
8.73718e-08
4.99332e-06
-5.47983e-06
-5.09213e-08
1.10059e-05
-1.12796e-05
7.81324e-07
1.77064e-05
-1.45538e-05
-6.24589e-07
2.62324e-05
-2.05332e-05
-9.75234e-07
2.38614e-05
1.95287e-06
-2.52084e-06
1.84877e-05
-6.0305e-06
1.91326e-06
1.40607e-05
1.45222e-05
2.64267e-05
3.1998e-05
-5.00752e-06
-7.27074e-07
6.94122e-06
-3.25959e-05
-9.1805e-06
3.03898e-06
-2.16707e-05
5.07737e-06
3.93789e-06
-2.02009e-05
4.59327e-06
-1.6589e-06
-1.06997e-05
6.03287e-06
2.52675e-07
-7.13294e-06
-1.74081e-06
3.13384e-06
-3.9758e-06
-4.61726e-06
5.802e-06
-3.55656e-06
-4.35691e-06
6.432e-06
-2.8988e-06
-2.41667e-06
6.24934e-06
-2.4238e-06
-1.18401e-06
6.25991e-06
-1.34029e-06
-7.90584e-07
6.39254e-06
-2.25434e-07
-4.40756e-07
5.73778e-06
1.37332e-06
-6.44139e-08
4.52614e-06
3.21955e-06
7.99076e-08
3.08055e-06
5.10169e-06
3.35371e-07
2.16256e-06
6.64324e-06
-2.01438e-07
3.07981e-06
7.73492e-06
-2.47078e-06
4.95254e-06
7.62952e-06
-2.78584e-06
5.95539e-06
6.58508e-06
-9.69588e-07
6.4641e-06
4.72809e-06
2.11707e-07
6.71691e-06
2.88424e-06
8.20356e-08
6.66921e-06
1.55545e-06
-1.85195e-07
6.3658e-06
7.5388e-07
-2.38783e-07
5.9292e-06
1.99115e-07
-1.67283e-07
5.44112e-06
-2.63228e-07
-4.48631e-08
4.93815e-06
-6.44067e-07
6.37568e-08
4.46253e-06
-9.55981e-07
1.39453e-07
4.03161e-06
-1.19964e-06
1.81856e-07
3.62751e-06
-1.35321e-06
2.03717e-07
3.21048e-06
-1.39272e-06
2.15784e-07
2.77673e-06
-1.38185e-06
2.15888e-07
2.31882e-06
-1.34922e-06
2.1234e-07
1.86571e-06
-1.35687e-06
2.18528e-07
1.41254e-06
-1.37402e-06
2.34928e-07
9.44484e-07
-1.39009e-06
2.82042e-07
4.73147e-07
-1.45772e-06
3.53052e-07
-1.50936e-06
4.22685e-07
-2.44917e-06
-3.16733e-06
-1.07224e-06
-1.31629e-06
-3.47428e-06
-1.00547e-06
-1.29941e-06
-1.98797e-06
-2.81771e-07
-1.12237e-06
-2.31882e-06
-2.52577e-07
-1.12352e-06
-1.83657e-06
-1.27364e-07
-1.0011e-06
-2.14093e-06
-1.55629e-07
-9.57346e-07
-1.86383e-06
-1.00751e-07
-8.12451e-07
-2.13406e-06
-1.37385e-07
-7.49434e-07
-1.89497e-06
-9.4954e-08
-6.16147e-07
-2.09601e-06
-1.2081e-07
-5.5575e-07
-1.89579e-06
-9.12347e-08
-4.52334e-07
-2.02163e-06
-1.04979e-07
-4.03717e-07
-1.87288e-06
-8.82198e-08
-3.3129e-07
-1.93652e-06
-9.40069e-08
-2.93397e-07
-1.84058e-06
-8.64939e-08
-2.44225e-07
-1.85988e-06
-8.89848e-08
-2.15618e-07
-1.80628e-06
-8.60221e-08
-1.8444e-07
-1.80071e-06
-8.70059e-08
-1.62916e-07
-1.77372e-06
-8.64871e-08
-1.43493e-07
-1.76002e-06
-8.71981e-08
-1.28059e-07
-1.74452e-06
-8.78747e-08
-1.1518e-07
-1.7321e-06
-8.89152e-08
-1.04513e-07
-1.72121e-06
-9.01188e-08
-9.55678e-08
-1.71193e-06
-9.14776e-08
-8.79932e-08
-1.70403e-06
-9.29567e-08
-8.14667e-08
-1.69734e-06
-9.45279e-08
-7.57319e-08
-1.69173e-06
-9.61913e-08
-7.05277e-08
-1.68711e-06
-9.79224e-08
-6.56531e-08
-1.68319e-06
-9.97636e-08
-6.07993e-08
-1.68001e-06
-1.01623e-07
-5.56643e-08
-1.68088e-06
-1.03911e-07
-5.11984e-08
-1.6722e-06
-1.05376e-07
-4.36241e-08
-1.68821e-06
-1.08238e-07
-3.9981e-08
-1.66317e-06
-1.0932e-07
-2.72768e-08
-1.70616e-06
-1.12942e-07
-2.44114e-08
-1.65585e-06
-1.1363e-07
-3.23843e-09
-1.73511e-06
-1.18268e-07
-8.5575e-10
-1.65614e-06
-1.18538e-07
3.40269e-08
-1.77505e-06
-1.25376e-07
3.77652e-08
-1.67614e-06
-1.24721e-07
9.62675e-08
-1.82041e-06
-1.36843e-07
1.08856e-07
-1.73052e-06
-1.33862e-07
1.94055e-07
-1.85644e-06
-1.55175e-07
2.4016e-07
-1.81414e-06
-1.5463e-07
3.44226e-07
-1.88662e-06
-1.82022e-07
4.18245e-07
-1.85666e-06
-1.88592e-07
5.18606e-07
-1.89235e-06
-2.23882e-07
5.66602e-07
-1.83081e-06
-2.26354e-07
6.33424e-07
-1.93032e-06
-2.88765e-07
7.7831e-07
-2.15331e-06
-2.50171e-07
1.08292e-06
-2.5008e-06
-4.47613e-07
2.36433e-06
-4.21318e-06
-1.63668e-07
5.15763e-06
-7.89093e-06
-4.83265e-08
7.10435e-06
-1.30825e-05
-1.09071e-07
6.13619e-06
-8.25575e-06
-5.28085e-06
-7.38301e-07
-1.08188e-05
-3.32773e-06
1.25578e-05
-1.57501e-06
-7.90586e-06
8.17251e-06
-4.09131e-06
2.30958e-07
2.27792e-05
-8.60141e-07
2.60543e-05
3.77777e-05
-4.17032e-06
-2.64079e-06
4.01248e-06
-2.21052e-05
-1.20295e-05
-5.11779e-06
-1.87838e-05
5.00537e-06
-9.4127e-06
-1.98365e-05
3.92733e-06
-1.20365e-05
-1.13133e-05
3.23637e-06
-1.06188e-05
-7.73651e-06
-8.14649e-07
-9.52353e-06
-5.06705e-06
-4.24227e-09
-9.55473e-06
-3.96312e-06
4.37643e-07
-9.49966e-06
-3.01834e-06
6.44467e-08
-9.49364e-06
-2.79778e-06
3.67959e-07
-9.64882e-06
-2.25728e-06
1.07217e-06
-9.89743e-06
-1.56547e-06
1.58865e-06
-1.00927e-05
-3.10182e-07
1.8788e-06
-9.9584e-06
9.83321e-07
2.1019e-06
-9.06246e-06
2.43876e-06
1.76699e-06
-7.05671e-06
4.01195e-06
6.25551e-07
-3.8759e-06
5.28373e-06
-7.29609e-07
-5.81629e-07
5.39356e-06
-1.05832e-06
2.0363e-06
4.87624e-06
-9.09087e-07
3.96359e-06
3.86524e-06
-1.06445e-06
5.06093e-06
3.05017e-06
-1.26327e-06
5.54423e-06
2.37014e-06
-1.29799e-06
5.60423e-06
1.89822e-06
-1.20433e-06
5.4236e-06
1.40041e-06
-1.02067e-06
5.06927e-06
9.14776e-07
-8.23673e-07
4.67416e-06
3.77639e-07
-6.26597e-07
4.24337e-06
-8.75011e-08
-4.37686e-07
3.88057e-06
-5.3533e-07
-3.01514e-07
3.56073e-06
-8.26115e-07
-2.07257e-07
3.22921e-06
-9.10776e-07
-1.50424e-07
2.85005e-06
-8.86344e-07
-1.16347e-07
2.43741e-06
-8.358e-07
-1.00778e-07
2.05047e-06
-8.82616e-07
-8.73211e-08
1.64639e-06
-8.92581e-07
-7.73571e-08
1.17527e-06
-8.79504e-07
-3.94604e-08
6.56484e-07
-9.5025e-07
1.13128e-08
-9.48911e-07
9.60359e-08
-2.36187e-06
-2.5812e-06
-1.07073e-06
-1.28002e-06
-3.41016e-06
-1.14692e-06
-1.37807e-06
-1.43619e-06
-4.51689e-07
-1.22434e-06
-2.00332e-06
-4.70109e-07
-1.24148e-06
-1.47519e-06
-3.42902e-07
-1.10312e-06
-1.87877e-06
-4.00493e-07
-1.04e-06
-1.59821e-06
-3.27694e-07
-8.66802e-07
-1.91892e-06
-3.88115e-07
-7.8483e-07
-1.65452e-06
-3.215e-07
-6.31421e-07
-1.88399e-06
-3.65258e-07
-5.61342e-07
-1.65062e-06
-3.14488e-07
-4.4783e-07
-1.79395e-06
-3.4107e-07
-3.97314e-07
-1.6142e-06
-3.0862e-07
-3.20864e-07
-1.69069e-06
-3.22192e-07
-2.85849e-07
-1.56991e-06
-3.05256e-07
-2.36505e-07
-1.59835e-06
-3.10777e-07
-2.11146e-07
-1.52709e-06
-3.04251e-07
-1.80423e-07
-1.52472e-06
-3.06622e-07
-1.61772e-07
-1.48737e-06
-3.04805e-07
-1.43559e-07
-1.47209e-06
-3.0604e-07
-1.30043e-07
-1.45112e-06
-3.06791e-07
-1.18706e-07
-1.43491e-06
-3.0843e-07
-1.09444e-07
-1.42004e-06
-3.10329e-07
-1.0174e-07
-1.40699e-06
-3.12558e-07
-9.52577e-08
-1.3954e-06
-3.15019e-07
-8.97262e-08
-1.3851e-06
-3.17699e-07
-8.49341e-08
-1.37588e-06
-3.20548e-07
-8.06911e-08
-1.36771e-06
-3.23572e-07
-7.65283e-08
-1.36048e-06
-3.26757e-07
-7.24365e-08
-1.35398e-06
-3.30093e-07
-6.84809e-08
-1.3508e-06
-3.33827e-07
-6.46027e-08
-1.33919e-06
-3.36951e-07
-5.86692e-08
-1.35194e-06
-3.41827e-07
-5.5169e-08
-1.32272e-06
-3.44112e-07
-4.5392e-08
-1.36455e-06
-3.50847e-07
-4.24577e-08
-1.30733e-06
-3.51696e-07
-2.56862e-08
-1.38964e-06
-3.61469e-07
-2.30898e-08
-1.29876e-06
-3.60337e-07
6.84234e-09
-1.42887e-06
-3.75132e-07
1.05118e-08
-1.30862e-06
-3.71532e-07
6.66168e-08
-1.47977e-06
-3.95904e-07
7.71854e-08
-1.35184e-06
-3.89039e-07
1.74054e-07
-1.5244e-06
-4.28272e-07
2.15409e-07
-1.4294e-06
-4.25741e-07
3.46953e-07
-1.54219e-06
-4.75329e-07
4.17084e-07
-1.44073e-06
-4.85572e-07
5.05538e-07
-1.43758e-06
-5.42905e-07
4.11824e-07
-1.17732e-06
-5.60058e-07
3.08217e-07
-1.21071e-06
-6.1598e-07
8.58861e-08
-1.4067e-06
-5.25957e-07
3.99422e-07
-1.97914e-06
-8.28864e-07
1.81479e-06
-5.32083e-06
-2.31734e-07
3.32976e-06
-8.95286e-06
-3.16829e-08
2.45345e-07
-1.04096e-05
4.66178e-07
-5.49037e-06
-3.40387e-06
9.6444e-07
-1.07876e-05
-8.26501e-06
2.78109e-06
1.18919e-05
-2.14994e-05
-8.12355e-07
1.21803e-05
-6.76334e-06
2.8802e-06
2.75112e-05
-6.92411e-06
1.82741e-05
3.98758e-05
-3.30784e-06
-2.15066e-06
3.84714e-06
-8.37987e-06
-1.49767e-05
-9.17258e-06
-1.10742e-05
4.06056e-06
-2.06754e-05
-1.16964e-05
3.34988e-06
-2.58582e-05
-8.44462e-06
2.30538e-06
-2.6898e-05
-6.56215e-06
-1.40022e-07
-2.54945e-05
-5.79335e-06
-6.82695e-07
-2.36814e-05
-5.27634e-06
-5.0487e-07
-2.20179e-05
-4.82453e-06
1.39496e-07
-2.06656e-05
-4.63205e-06
4.79345e-07
-1.96782e-05
-4.43758e-06
1.19085e-06
-1.84545e-05
-4.02817e-06
1.23726e-06
-1.71566e-05
-2.90885e-06
1.29917e-06
-1.59855e-05
-1.57541e-06
1.38691e-06
-1.43673e-05
-2.17171e-08
8.42248e-07
-1.19525e-05
1.66916e-06
-7.2084e-08
-8.90867e-06
3.09518e-06
-8.55254e-07
-5.71343e-06
3.68964e-06
-1.49139e-06
-3.08225e-06
3.97758e-06
-1.73264e-06
-1.03659e-06
3.76002e-06
-1.94047e-06
4.07877e-07
3.61847e-06
-2.01276e-06
1.32063e-06
3.24972e-06
-1.79233e-06
1.88464e-06
2.86051e-06
-1.52629e-06
2.22464e-06
2.20333e-06
-1.14292e-06
2.45576e-06
1.49759e-06
-8.13931e-07
2.67188e-06
6.73274e-07
-5.11763e-07
2.75945e-06
8.69085e-08
-2.6197e-07
2.78359e-06
-4.10974e-07
-1.48506e-07
2.81109e-06
-7.27613e-07
-1.25999e-07
2.83668e-06
-7.69141e-07
-1.67224e-07
2.78295e-06
-6.30613e-07
-2.02003e-07
2.51718e-06
-3.31493e-07
-2.38533e-07
2.06716e-06
-1.87907e-07
-2.44694e-07
1.41452e-06
7.22315e-09
-2.47165e-07
7.02006e-07
4.02893e-09
-1.71016e-07
2.74772e-07
-4.29591e-07
-9.34235e-08
-7.53286e-07
7.9146e-08
-2.50326e-06
-1.54237e-06
-1.01239e-06
-1.39518e-06
-3.1275e-06
-1.39291e-06
-1.625e-06
-5.53014e-07
-6.50079e-07
-1.45085e-06
-1.46738e-06
-7.11755e-07
-1.44954e-06
-8.49014e-07
-6.25613e-07
-1.26498e-06
-1.37672e-06
-6.86833e-07
-1.14947e-06
-1.07885e-06
-6.33745e-07
-9.39942e-07
-1.43808e-06
-6.90215e-07
-8.17192e-07
-1.1392e-06
-6.37157e-07
-6.438e-07
-1.3801e-06
-6.77189e-07
-5.53396e-07
-1.10721e-06
-6.33039e-07
-4.32968e-07
-1.25406e-06
-6.60243e-07
-3.76172e-07
-1.04062e-06
-6.29722e-07
-2.99091e-07
-1.12068e-06
-6.46979e-07
-2.65324e-07
-9.73063e-07
-6.30063e-07
-2.17986e-07
-1.00528e-06
-6.40244e-07
-1.97018e-07
-9.14308e-07
-6.33278e-07
-1.68727e-07
-9.1376e-07
-6.39017e-07
-1.53886e-07
-8.63358e-07
-6.38451e-07
-1.37571e-07
-8.4593e-07
-6.42165e-07
-1.26765e-07
-8.17256e-07
-6.44327e-07
-1.1748e-07
-7.95862e-07
-6.48003e-07
-1.10133e-07
-7.75247e-07
-6.51829e-07
-1.04127e-07
-7.56687e-07
-6.55989e-07
-9.92017e-08
-7.39672e-07
-6.60347e-07
-9.50476e-08
-7.2398e-07
-6.64948e-07
-9.15343e-08
-7.09489e-07
-6.69596e-07
-8.83656e-08
-6.96265e-07
-6.74276e-07
-8.53827e-08
-6.8406e-07
-6.79084e-07
-8.24791e-08
-6.72821e-07
-6.83748e-07
-7.9822e-08
-6.64367e-07
-6.88672e-07
-7.69719e-08
-6.48974e-07
-6.92833e-07
-7.28497e-08
-6.56401e-07
-6.99097e-07
-7.03238e-08
-6.23296e-07
-7.01795e-07
-6.3836e-08
-6.60652e-07
-7.09645e-07
-6.15459e-08
-5.9878e-07
-7.10742e-07
-5.07841e-08
-6.78852e-07
-7.20632e-07
-4.76974e-08
-5.81225e-07
-7.20554e-07
-2.6829e-08
-7.14878e-07
-7.337e-07
-2.04481e-08
-5.82053e-07
-7.33022e-07
2.57682e-08
-7.72016e-07
-7.52687e-07
4.35696e-08
-6.18793e-07
-7.50624e-07
1.49765e-07
-8.47066e-07
-7.82759e-07
2.06762e-07
-7.04962e-07
-7.81026e-07
3.68841e-07
-8.89803e-07
-8.14309e-07
5.19998e-07
-7.74937e-07
-8.17483e-07
7.11229e-07
-7.86995e-07
-8.41843e-07
6.9872e-07
-2.58658e-07
-9.04626e-07
4.28297e-07
5.95423e-08
-9.94915e-07
-2.01151e-07
2.38505e-07
-1.00924e-06
4.67274e-07
-1.57644e-06
-1.00468e-06
1.27921e-06
-6.54474e-06
4.97953e-07
2.70626e-06
-1.06383e-05
6.57119e-07
-1.1072e-07
-8.90545e-06
1.43871e-06
6.65003e-06
-1.15162e-05
1.54012e-06
5.69043e-06
-1.44469e-05
7.20295e-06
1.18343e-05
-3.22963e-05
5.67552e-06
1.94495e-05
-1.90675e-05
4.29617e-06
2.58558e-05
1.27526e-05
7.58428e-07
4.03622e-05
-1.16428e-06
-1.60612e-06
7.68676e-06
-1.16333e-06
-1.44566e-05
-9.20998e-06
9.05356e-07
4.16875e-06
-2.59764e-05
1.1204e-06
3.93257e-06
-3.38753e-05
-2.25913e-06
1.69171e-06
-3.5929e-05
-4.48565e-06
-3.94271e-08
-3.58531e-05
-5.30252e-06
-5.89116e-07
-3.45866e-05
-6.08537e-06
-4.81663e-07
-3.34347e-05
-6.34657e-06
3.54243e-07
-3.28171e-05
-6.04128e-06
7.77503e-07
-3.27001e-05
-5.48951e-06
9.23258e-07
-3.2279e-05
-4.84886e-06
3.93043e-07
-3.17082e-05
-3.58457e-06
9.53248e-08
-3.10666e-05
-2.05201e-06
-1.75653e-07
-2.94805e-05
-9.31563e-07
-6.87925e-07
-2.71551e-05
2.06863e-07
-8.73529e-07
-2.40099e-05
1.07026e-06
-1.12823e-06
-2.08376e-05
1.8236e-06
-1.31326e-06
-1.79606e-05
2.69292e-06
-1.59899e-06
-1.52491e-05
2.72185e-06
-1.67984e-06
-1.26124e-05
2.56354e-06
-1.58781e-06
-1.02696e-05
1.83648e-06
-9.33741e-07
-8.34175e-06
1.48491e-06
-5.54361e-07
-7.11918e-06
1.10339e-06
-1.23621e-07
-6.31829e-06
8.85913e-07
-1.89702e-07
-5.87042e-06
4.29484e-07
-2.04472e-07
-5.30242e-06
-1.45849e-07
-3.35457e-07
-4.73217e-06
-6.28209e-07
-3.53201e-07
-3.89573e-06
-1.05165e-06
-5.12527e-07
-2.78226e-06
-1.29735e-06
-5.85448e-07
-1.43585e-06
-1.31357e-06
-6.63517e-07
-9.55791e-08
-8.61872e-07
-8.09876e-07
8.09486e-07
-3.27399e-07
-7.65583e-07
1.22794e-06
2.7085e-07
-6.82087e-07
1.23275e-06
4.68698e-07
-4.69478e-07
1.03783e-06
-6.95897e-08
-1.65085e-07
-3.87365e-07
6.71908e-07
-2.71402e-06
-4.82038e-08
-8.51879e-07
-1.54127e-06
-2.65501e-06
-1.64991e-06
-1.91683e-06
5.76277e-07
-7.49194e-07
-1.67121e-06
-8.64355e-07
-8.51869e-07
-1.63339e-06
-9.84433e-08
-7.86101e-07
-1.41227e-06
-7.81492e-07
-8.171e-07
-1.22311e-06
-4.30674e-07
-8.36635e-07
-1.00698e-06
-8.12223e-07
-8.41937e-07
-8.21189e-07
-4.64148e-07
-8.60535e-07
-6.58784e-07
-6.87822e-07
-8.54793e-07
-5.35068e-07
-3.68096e-07
-8.62652e-07
-4.27781e-07
-5.0254e-07
-8.5909e-07
-3.57304e-07
-2.50943e-07
-8.60083e-07
-2.90006e-07
-3.25986e-07
-8.62367e-07
-2.52184e-07
-1.4976e-07
-8.6113e-07
-2.11055e-07
-1.80636e-07
-8.66158e-07
-1.90093e-07
-7.01724e-08
-8.65171e-07
-1.64803e-07
-6.91904e-08
-8.70194e-07
-1.49795e-07
-8.51672e-09
-8.69978e-07
-1.3411e-07
1.25033e-08
-8.74426e-07
-1.25884e-07
5.14381e-08
-8.77162e-07
-1.18566e-07
7.71104e-08
-8.80603e-07
-1.13099e-07
1.02024e-07
-8.83035e-07
-1.08693e-07
1.23986e-07
-8.854e-07
-1.05071e-07
1.43934e-07
-8.87537e-07
-1.02092e-07
1.61904e-07
-8.89194e-07
-9.96119e-08
1.78168e-07
-8.90449e-07
-9.7415e-08
1.9313e-07
-8.91921e-07
-9.55681e-08
2.07026e-07
-8.93224e-07
-9.39755e-08
2.19624e-07
-8.94372e-07
-9.2513e-08
2.29552e-07
-8.95577e-07
-9.08127e-08
2.44666e-07
-8.95738e-07
-8.86537e-08
2.38457e-07
-8.97043e-07
-8.74352e-08
2.71311e-07
-8.96296e-07
-8.46788e-08
2.33132e-07
-8.96369e-07
-8.30591e-08
2.95424e-07
-8.96339e-07
-7.87542e-08
2.10799e-07
-8.93574e-07
-7.43249e-08
3.09717e-07
-8.95876e-07
-6.47407e-08
1.65035e-07
-8.88902e-07
-5.2545e-08
2.99888e-07
-8.94636e-07
-1.77223e-08
8.01667e-08
-8.85968e-07
1.83799e-08
2.3781e-07
-8.93396e-07
1.21506e-07
-5.91228e-08
-8.90083e-07
2.31986e-07
8.55684e-08
-9.00784e-07
4.01002e-07
-1.81416e-07
-8.76232e-07
6.03269e-07
-1.22457e-07
-8.54158e-07
6.04848e-07
-1.29052e-07
-6.57608e-07
3.22708e-07
5.30056e-07
-5.06086e-07
5.65163e-07
6.48027e-08
-2.55895e-07
1.31456e-06
-3.28999e-07
-1.98231e-07
2.24904e-06
-2.50077e-06
8.10903e-08
-5.04381e-07
-5.74634e-06
1.99637e-06
-3.68714e-06
-9.58609e-06
2.35173e-06
-9.72496e-06
-6.6143e-06
3.84936e-06
-1.00287e-05
-1.6561e-05
5.20512e-06
-1.3879e-05
-1.86932e-05
7.83219e-06
-1.35305e-05
-3.60826e-05
5.57924e-06
-7.28014e-06
-1.93204e-05
-8.11421e-06
2.28025e-05
2.13729e-05
-1.34409e-05
4.67026e-05
-1.58982e-06
-3.7675e-06
1.37634e-05
2.85388e-07
-1.13379e-05
-7.33119e-06
1.19312e-05
7.29003e-06
-2.38897e-05
1.18632e-05
5.80258e-06
-3.27702e-05
3.53905e-06
3.06017e-06
-3.52545e-05
-2.66552e-06
6.42817e-07
-3.53337e-05
-5.23775e-06
-1.70326e-08
-3.49485e-05
-6.71304e-06
2.15032e-07
-3.41131e-05
-7.39207e-06
1.79347e-07
-3.35115e-05
-7.32845e-06
6.56733e-07
-3.3066e-05
-6.84255e-06
8.83647e-07
-3.29463e-05
-5.8419e-06
8.53188e-07
-3.29929e-05
-4.28785e-06
7.34034e-07
-3.25865e-05
-2.95567e-06
4.85887e-07
-3.14418e-05
-2.2394e-06
1.54485e-07
-2.98926e-05
-1.01903e-06
-3.38453e-07
-2.67634e-05
-8.34519e-07
-1.26145e-06
-2.27157e-05
-7.47681e-07
-1.52944e-06
-1.80714e-05
-6.99095e-07
-1.30868e-06
-1.40544e-05
-1.29025e-06
-4.96566e-08
-1.15068e-05
-1.0292e-06
1.0226e-06
-1.00914e-05
-1.05549e-06
1.44945e-06
-9.50289e-06
-7.92635e-07
1.66104e-06
-9.59597e-06
-6.63354e-07
1.84044e-06
-9.94966e-06
-5.06172e-07
1.73027e-06
-1.05354e-05
-5.67518e-07
1.56897e-06
-1.08177e-05
-1.10049e-06
1.22699e-06
-1.09436e-05
-1.63349e-06
1.12556e-06
-1.08863e-05
-2.03811e-06
9.25129e-07
-1.04668e-05
-2.40143e-06
6.79763e-07
-9.34199e-06
-2.58701e-06
1.43856e-07
-7.76564e-06
-2.36907e-06
-7.17366e-08
-5.55251e-06
-2.08672e-06
-4.58375e-07
-3.11049e-06
-1.43868e-06
-7.3759e-07
-9.37052e-07
-7.69255e-07
-9.37398e-07
2.15442e-07
-3.53429e-07
-8.68875e-07
-4.02045e-07
2.30044e-07
-2.56743e-06
1.90937e-06
-4.68615e-07
-1.52348e-06
-2.13038e-06
-1.57614e-06
-2.14074e-06
1.71721e-06
-5.16972e-07
-1.82459e-06
-3.62963e-07
-8.21673e-07
-1.77223e-06
5.7995e-07
-7.26769e-07
-1.4822e-06
-2.54509e-07
-8.17911e-07
-1.25771e-06
1.98629e-07
-8.52143e-07
-9.97615e-07
-1.81946e-07
-8.89935e-07
-7.94725e-07
2.53097e-07
-9.19159e-07
-6.14523e-07
6.22415e-08
-9.29905e-07
-4.84508e-07
4.50134e-07
-9.47544e-07
-3.81047e-07
3.52211e-07
-9.58095e-07
-3.10184e-07
6.48575e-07
-9.69916e-07
-2.5092e-07
5.97682e-07
-9.82945e-07
-2.16043e-07
8.09494e-07
-9.93816e-07
-1.82185e-07
7.94085e-07
-1.00867e-06
-1.66955e-07
9.33206e-07
-1.01842e-06
-1.48032e-07
9.45902e-07
-1.03415e-06
-1.43674e-07
1.03096e-06
-1.04377e-06
-1.36068e-07
1.06233e-06
-1.05754e-06
-1.31792e-07
1.11386e-06
-1.06668e-06
-1.27528e-07
1.1507e-06
-1.07788e-06
-1.25084e-07
1.18713e-06
-1.08756e-06
-1.23579e-07
1.22003e-06
-1.09755e-06
-1.23063e-07
1.25037e-06
-1.10697e-06
-1.23068e-07
1.27831e-06
-1.11639e-06
-1.23257e-07
1.30432e-06
-1.12596e-06
-1.2368e-07
1.32869e-06
-1.13511e-06
-1.24271e-07
1.3515e-06
-1.14386e-06
-1.25111e-07
1.37284e-06
-1.15234e-06
-1.26305e-07
1.39169e-06
-1.16082e-06
-1.27287e-07
1.41411e-06
-1.16846e-06
-1.29353e-07
1.41834e-06
-1.17751e-06
-1.31277e-07
1.45682e-06
-1.18364e-06
-1.35049e-07
1.43034e-06
-1.19293e-06
-1.37081e-07
1.49607e-06
-1.19869e-06
-1.43917e-07
1.42559e-06
-1.20724e-06
-1.44773e-07
1.52405e-06
-1.21352e-06
-1.57401e-07
1.3988e-06
-1.22024e-06
-1.55586e-07
1.52553e-06
-1.22746e-06
-1.77199e-07
1.3324e-06
-1.22961e-06
-1.67213e-07
1.4587e-06
-1.23095e-06
-1.99228e-07
1.16892e-06
-1.19517e-06
-1.83368e-07
1.22075e-06
-1.15158e-06
9.89339e-08
3.98225e-07
-8.62967e-07
1.24787e-06
-9.22623e-07
-3.44637e-07
2.84335e-06
-2.01641e-06
3.01331e-07
5.17693e-06
-1.77426e-06
-2.51972e-09
6.96417e-06
-1.55047e-06
-9.30086e-08
6.81088e-06
5.72402e-07
-6.40361e-07
2.19291e-06
2.04746e-06
2.23478e-07
-1.14832e-05
4.26583e-06
3.69119e-06
-3.34642e-05
5.04228e-06
7.33251e-06
-5.05559e-05
2.31683e-06
8.15314e-06
-6.57209e-05
-9.85839e-06
8.42874e-06
-7.18357e-05
-2.00862e-05
7.45539e-06
-9.03505e-05
-2.42663e-05
7.06064e-06
-7.59876e-05
-1.84783e-05
-1.56272e-05
4.74284e-05
-1.8792e-05
-4.2715e-05
5.32706e-05
-1.82369e-06
-6.8346e-06
-1.33917e-05
1.5789e-05
3.4557e-06
-2.88135e-05
1.59454e-05
9.18691e-06
-3.89333e-05
1.48101e-05
7.18269e-06
-4.1859e-05
5.69161e-06
7.53632e-07
-4.12351e-05
-7.44578e-07
-2.60568e-06
-3.95119e-05
-4.3296e-06
-2.69708e-06
-3.89286e-05
-5.32698e-06
-2.02716e-06
-3.7856e-05
-6.5333e-06
-1.9888e-06
-3.69954e-05
-6.69609e-06
-1.55308e-06
-3.59308e-05
-6.7527e-06
-1.22217e-06
-3.44921e-05
-6.3584e-06
-9.87799e-07
-3.17639e-05
-6.292e-06
-7.92061e-07
-2.81673e-05
-6.35792e-06
-2.64863e-07
-2.442e-05
-6.39594e-06
3.42064e-07
-2.02178e-05
-5.86529e-06
5.71377e-07
-1.63769e-05
-5.86614e-06
1.11348e-06
-1.3134e-05
-5.35201e-06
1.27193e-06
-1.06173e-05
-5.11129e-06
1.79002e-06
-9.51831e-06
-4.74922e-06
2.25235e-06
-9.11758e-06
-3.81691e-06
2.27982e-06
-9.72161e-06
-2.79453e-06
2.23773e-06
-1.06478e-05
-1.8694e-06
1.89865e-06
-1.14356e-05
-1.47367e-06
1.49999e-06
-1.17205e-05
-1.58188e-06
1.25062e-06
-1.1274e-05
-2.2324e-06
1.10131e-06
-1.04616e-05
-3.16329e-06
1.12775e-06
-9.83679e-06
-3.64901e-06
1.26395e-06
-9.58568e-06
-3.76784e-06
1.34984e-06
-9.55475e-06
-3.85289e-06
1.29576e-06
-9.64903e-06
-3.86387e-06
1.26881e-06
-9.62481e-06
-3.65868e-06
1.20013e-06
-9.06822e-06
-3.63613e-06
9.85833e-07
-7.95484e-06
-3.42223e-06
7.80547e-07
-6.21976e-06
-3.1139e-06
4.97679e-07
-4.05285e-06
-3.01325e-06
2.80946e-07
-4.46714e-06
-1.00346e-06
-2.82667e-06
3.29062e-06
1.70973e-06
-1.73996e-06
-1.65016e-06
-1.58393e-06
-2.33826e-06
1.91647e-06
4.09382e-07
-1.93117e-06
-2.1769e-07
-5.57346e-07
-1.76339e-06
7.44689e-07
-3.26871e-07
-1.42167e-06
-8.61442e-08
-5.11426e-07
-1.19165e-06
5.08573e-07
-5.37796e-07
-9.16361e-07
1.80199e-07
-6.37038e-07
-7.19587e-07
6.88826e-07
-6.31158e-07