/*--------------------------------*- C++ -*----------------------------------*\
| =========                 |                                                 |
| \\      /  F ield         | OpenFOAM: The Open Source CFD Toolbox           |
|  \\    /   O peration     | Version:  2.3.0                                 |
|   \\  /    A nd           | Web:      www.OpenFOAM.org                      |
|    \\/     M anipulation  |                                                 |
\*---------------------------------------------------------------------------*/
FoamFile
{
    version     2.0;
    format      ascii;
    class       volVectorField;
    location    "4";
    object      U;
}
// * * * * * * * * * * * * * * * * * * * * * * * * * * * * * * * * * * * * * //

dimensions      [0 1 -1 0 0 0 0];

internalField   nonuniform List<vector> 
6144
(
(0.00668347 0.0258026 -0.00197074)
(0.00657253 0.0127986 -0.00235135)
(0.00546523 0.0109973 -0.00330948)
(0.00555408 0.00794552 -0.00333578)
(0.0046009 0.00681957 -0.00349119)
(0.00493505 0.00591728 -0.00353057)
(0.00439112 0.00516296 -0.00353452)
(0.00469404 0.00481248 -0.0035546)
(0.00436237 0.00411096 -0.00354713)
(0.00454375 0.00387945 -0.00358802)
(0.00434288 0.00328415 -0.0036023)
(0.00442349 0.00305813 -0.00362569)
(0.00431713 0.00261647 -0.00363498)
(0.00432994 0.00238733 -0.00364599)
(0.00427733 0.00208997 -0.00365029)
(0.00425865 0.00188166 -0.00365487)
(0.00422894 0.00167913 -0.00365634)
(0.0042067 0.00151567 -0.00365751)
(0.00418548 0.001374 -0.0036576)
(0.00416713 0.00125594 -0.00365728)
(0.0041508 0.00115692 -0.00365665)
(0.00413644 0.00107451 -0.00365584)
(0.00412379 0.00100608 -0.00365493)
(0.0041126 0.000949456 -0.00365401)
(0.00410266 0.000902766 -0.00365309)
(0.00409372 0.000864438 -0.0036522)
(0.00408547 0.000833129 -0.00365136)
(0.00407771 0.000807501 -0.00365057)
(0.00407046 0.000786408 -0.00364983)
(0.0040639 0.000770158 -0.00364911)
(0.00405812 0.000757847 -0.00364817)
(0.00405249 0.000748131 -0.00364665)
(0.00404613 0.000745127 -0.00364493)
(0.00403952 0.000720162 -0.00364231)
(0.00403254 0.000804347 -0.00364068)
(0.0040265 0.000626383 -0.00363711)
(0.00401443 0.000968261 -0.0036351)
(0.00401304 0.000483492 -0.00363109)
(0.00398592 0.00123029 -0.00362405)
(0.003994 0.000340179 -0.00362312)
(0.0039377 0.00159764 -0.00360157)
(0.00395439 0.00028134 -0.00360862)
(0.00384799 0.00213424 -0.00355849)
(0.00385312 0.000472516 -0.00358025)
(0.00366053 0.00305479 -0.00348934)
(0.00359551 0.00128904 -0.00352547)
(0.00325511 0.00494044 -0.00339789)
(0.00297976 0.00361168 -0.00344891)
(0.00234202 0.0091932 -0.00341037)
(0.00167736 0.0094806 -0.00353724)
(0.000698816 0.0183687 -0.00372299)
(0.000567143 0.0214673 -0.0041376)
(0.000518454 0.0332283 -0.00548864)
(0.00405638 0.0294931 -0.00717519)
(0.0056944 0.0472405 -0.00895228)
(0.010253 0.000710036 -0.00494336)
(0.0171298 0.0714037 0.00908256)
(0.0188884 -0.0613131 -0.0184442)
(-0.0235839 0.119488 -0.0873427)
(0.0560803 0.0377788 -0.109872)
(0.12751 -0.225547 -0.0153176)
(0.0842509 -0.07336 -0.00673464)
(0.0353911 -0.156385 -0.000348857)
(0.036559 -0.153633 0.00279074)
(0.032009 -0.155681 0.00399563)
(0.0235531 -0.162408 0.00527647)
(0.0158226 -0.165549 0.00462795)
(0.0107433 -0.162362 0.00254077)
(0.00737243 -0.155925 -0.000154491)
(0.00327457 -0.145071 -0.00255279)
(0.000486711 -0.126927 -0.00462072)
(-0.000946396 -0.105574 -0.00503775)
(-0.00317307 -0.0848788 -0.00281897)
(-0.00365202 -0.0679902 -0.000225183)
(-0.00138682 -0.0569921 0.000346832)
(0.00174323 -0.0512682 -0.00074109)
(0.00432201 -0.0488541 -0.00204311)
(0.00595713 -0.0478104 -0.00292687)
(0.00687998 -0.0471626 -0.00332592)
(0.00719417 -0.0462798 -0.00366299)
(0.00678198 -0.044883 -0.00461001)
(0.00627446 -0.042814 -0.00546338)
(0.00599727 -0.0402276 -0.00583715)
(0.00587408 -0.0374008 -0.00594133)
(0.00581638 -0.0344692 -0.00593696)
(0.00579341 -0.0314339 -0.00587788)
(0.00580101 -0.0283622 -0.00578496)
(0.00582683 -0.0253109 -0.00568847)
(0.00584923 -0.0223035 -0.00560797)
(0.00585624 -0.0193177 -0.00554553)
(0.00584834 -0.016344 -0.00550058)
(0.00582967 -0.0133737 -0.0054669)
(0.00579329 -0.0104241 -0.00544802)
(0.00570884 -0.00749589 -0.00542589)
(0.00564179 -0.00447976 -0.00539536)
(0.00551638 -0.00159191 -0.00534786)
(0.0160298 0.028031 0.0025163)
(0.0159251 0.0137489 0.00174019)
(0.01202 0.0120536 -0.000407476)
(0.0123646 0.0092664 -0.000498595)
(0.0100631 0.00813704 -0.00111194)
(0.0108961 0.00749505 -0.00103603)
(0.0095327 0.00643911 -0.00126295)
(0.0103755 0.00618616 -0.00116656)
(0.0094509 0.00521057 -0.00128884)
(0.0100433 0.0050097 -0.00122584)
(0.00942189 0.00419751 -0.00129676)
(0.00975138 0.00396032 -0.00126761)
(0.00936042 0.00335463 -0.00130151)
(0.00947252 0.00310364 -0.00128924)
(0.00926462 0.00269809 -0.00130486)
(0.00924459 0.00246919 -0.00130261)
(0.00914115 0.00221102 -0.00130505)
(0.00908138 0.00202247 -0.001305)
(0.00901502 0.00185151 -0.00130435)
(0.00895901 0.00171273 -0.00130316)
(0.00890809 0.0015959 -0.00130139)
(0.00886288 0.00149923 -0.0012992)
(0.00882253 0.00141919 -0.00129666)
(0.0087864 0.00135316 -0.00129386)
(0.00875387 0.00129894 -0.00129086)
(0.00872437 0.00125435 -0.00128765)
(0.00869723 0.00121798 -0.0012842)
(0.00867206 0.00118911 -0.00128062)
(0.00864841 0.00116648 -0.00127708)
(0.00862611 0.001149 -0.00127369)
(0.00860489 0.00113571 -0.00127026)
(0.00858406 0.00112531 -0.00126646)
(0.00856242 0.00112072 -0.00126246)
(0.00853873 0.00109948 -0.00125732)
(0.00851685 0.00118472 -0.00125314)
(0.00849157 0.000999113 -0.0012459)
(0.00845577 0.00137481 -0.0012442)
(0.0084397 0.000826586 -0.00123132)
(0.00836098 0.00168748 -0.0012371)
(0.00836864 0.000625988 -0.00121559)
(0.00819892 0.0021276 -0.0012296)
(0.00823526 0.00047505 -0.0011976)
(0.00789749 0.00273789 -0.00122081)
(0.0079278 0.000523558 -0.00118003)
(0.00729351 0.00367602 -0.00121683)
(0.00717352 0.00110693 -0.00117928)
(0.00606092 0.00541642 -0.00125533)
(0.00539739 0.00307024 -0.00129386)
(0.00368672 0.00933762 -0.00152558)
(0.00189264 0.00883087 -0.00183128)
(-0.000128306 0.0196708 -0.00204463)
(-0.000295992 0.0229029 -0.00272332)
(0.002897 0.037253 -0.00426729)
(0.0156889 0.0284989 -0.0061281)
(0.0240589 0.0545801 -0.00390095)
(0.0365771 -0.0129733 -1.24688e-05)
(-0.00967928 0.0526801 0.0247114)
(-0.0218526 -0.0316891 -0.00576053)
(0.0168061 0.180329 -0.0178146)
(0.157122 -0.00572635 -0.0498665)
(0.16632 -0.194893 -0.0031976)
(0.0560918 0.10726 0.00552079)
(-0.0316556 -0.126107 0.00578462)
(-0.0154918 -0.0657599 0.00970063)
(-0.0210048 -0.0917806 0.0123922)
(-0.0274884 -0.109652 0.0160862)
(-0.0287351 -0.115738 0.0144157)
(-0.0281025 -0.117401 0.009605)
(-0.0263423 -0.115024 0.0018336)
(-0.0249352 -0.104639 -0.00469305)
(-0.0235369 -0.0856768 -0.00418006)
(-0.0208455 -0.0675619 -0.000153556)
(-0.0183209 -0.0542403 0.00236488)
(-0.0142561 -0.0457173 0.0031666)
(-0.00703862 -0.0428214 0.00370771)
(0.000431739 -0.0431889 0.00367577)
(0.00547199 -0.0442757 0.00311782)
(0.00791427 -0.0452147 0.00227858)
(0.00871385 -0.045588 0.00134924)
(0.00871863 -0.0453347 0.00057306)
(0.00831385 -0.0443782 -0.000237515)
(0.00770321 -0.0428101 -0.00103386)
(0.0072829 -0.0406241 -0.00152868)
(0.00699209 -0.0380143 -0.00177773)
(0.00675516 -0.0351645 -0.00191564)
(0.00658544 -0.0321251 -0.0019788)
(0.00649659 -0.0290123 -0.00199017)
(0.00648188 -0.0259217 -0.00194897)
(0.00647795 -0.022891 -0.00191546)
(0.0064648 -0.0198672 -0.00191713)
(0.0064591 -0.0168467 -0.00194038)
(0.00646072 -0.0138114 -0.00198351)
(0.0064801 -0.0108237 -0.00203813)
(0.00643432 -0.00782083 -0.00213376)
(0.00641002 -0.00468154 -0.00219871)
(0.00628675 -0.00168209 -0.00242381)
(0.0198566 0.0262196 0.00554914)
(0.0200637 0.011814 0.00470382)
(0.0141671 0.0101956 0.00152611)
(0.0148824 0.00865252 0.00151872)
(0.0118668 0.00751141 0.000700802)
(0.0133121 0.00735892 0.000963006)
(0.0113841 0.00618199 0.000568669)
(0.0127398 0.0061892 0.000850529)
(0.0113352 0.00501291 0.000562686)
(0.012296 0.00499271 0.000766282)
(0.0112961 0.00399697 0.000567995)
(0.0118268 0.00391776 0.000690733)
(0.0111815 0.00319859 0.000576366)
(0.0113842 0.00305041 0.000640982)
(0.0110126 0.00258282 0.000584414)
(0.0110124 0.00240507 0.000612171)
(0.0108227 0.00212674 0.000592217)
(0.0107403 0.00196267 0.000601447)
(0.0106298 0.00179504 0.00060152)
(0.0105419 0.00166733 0.000607668)
(0.01046 0.00155805 0.000614096)
(0.0103871 0.00146883 0.000622071)
(0.0103215 0.00139525 0.000631008)
(0.0102621 0.00133482 0.000640743)
(0.0102081 0.00128537 0.000651123)
(0.0101587 0.00124532 0.000661976)
(0.0101132 0.00121286 0.000673143)
(0.0100706 0.00118656 0.000684539)
(0.0100304 0.0011656 0.000696111)
(0.00999181 0.00114924 0.000707861)
(0.00995436 0.00113682 0.000719761)
(0.00991764 0.00112774 0.000731753)
(0.00988045 0.00112421 0.000743654)
(0.00984236 0.00110093 0.00075615)
(0.00980159 0.0011879 0.000767369)
(0.00976502 0.000990788 0.000778336)
(0.00969954 0.00137661 0.000784616)
(0.0096774 0.000796913 0.000800014)
(0.0095542 0.00168184 0.000797574)
(0.00956184 0.000552974 0.000821986)
(0.00932008 0.00209586 0.000808674)
(0.00936307 0.000306682 0.000845484)
(0.00889629 0.00262424 0.000816472)
(0.00893372 0.000139772 0.000865137)
(0.00804054 0.00333539 0.000810756)
(0.00787263 0.000268437 0.000850974)
(0.00618063 0.00453679 0.000725291)
(0.00503827 0.00153043 0.000637498)
(0.00192594 0.00768376 0.000179738)
(-0.00186032 0.00690334 -0.000789896)
(-0.00629621 0.0176402 -0.00125653)
(-0.00568611 0.0170158 -0.000535604)
(0.00285729 0.0288279 -0.000255694)
(0.0214525 0.00154353 -0.00597433)
(0.0318497 0.0483498 -0.0025316)
(0.0388534 -0.0135835 0.00216541)
(-0.0335102 0.104437 0.0391552)
(-0.0601872 -0.124248 0.00467939)
(-0.0504373 0.166432 -0.0564898)
(0.156405 -0.00308048 -0.0342733)
(0.185969 -0.169579 0.00521303)
(0.0824259 0.147673 0.0021209)
(0.078392 -0.123851 0.0133664)
(0.0278301 -0.0336669 0.0128897)
(0.000209865 -0.0695253 0.011901)
(-0.00966981 -0.0838 0.0092576)
(-0.0159449 -0.0856185 0.00195894)
(-0.0182132 -0.0797914 -0.00986669)
(-0.0200832 -0.0596808 -0.0163667)
(-0.0236266 -0.0338403 -0.0109988)
(-0.026248 -0.0179581 -0.00249578)
(-0.0257076 -0.0121764 0.00249597)
(-0.0214057 -0.0129538 0.00475131)
(-0.0113734 -0.0189279 0.00624594)
(-0.00162715 -0.0258443 0.00682033)
(0.00465333 -0.0315943 0.00658479)
(0.00759141 -0.0357309 0.00615619)
(0.00849284 -0.0386173 0.00554067)
(0.00845747 -0.040204 0.00463663)
(0.00791648 -0.0409998 0.00363324)
(0.00723951 -0.0409396 0.00276029)
(0.00657556 -0.0402062 0.00212606)
(0.0060461 -0.0387792 0.00164137)
(0.00569018 -0.0368069 0.0012279)
(0.00548188 -0.0344293 0.000968502)
(0.005409 -0.0316412 0.000892002)
(0.00542751 -0.0286356 0.000871356)
(0.00544069 -0.0256387 0.000903196)
(0.00541075 -0.0227083 0.000924834)
(0.00540243 -0.0197258 0.00089872)
(0.00537457 -0.0167081 0.000823607)
(0.00540825 -0.0136293 0.000711549)
(0.00544577 -0.0105951 0.000603742)
(0.00522752 -0.0075429 0.000381044)
(0.00508914 -0.00447066 8.59959e-05)
(0.00500372 -0.00161349 -0.00051986)
(0.0211003 0.0236371 0.00705025)
(0.0217437 0.0106331 0.00615505)
(0.0136258 0.00849057 0.00250303)
(0.01528 0.0085417 0.00246592)
(0.0117723 0.00702453 0.00187092)
(0.0138678 0.00767771 0.00221964)
(0.011541 0.00606162 0.00179289)
(0.0133849 0.00649414 0.00214981)
(0.0115944 0.00488383 0.00178782)
(0.0128952 0.00516063 0.00205613)
(0.011556 0.00382176 0.00179257)
(0.0123099 0.00396914 0.00196268)
(0.0114029 0.00301446 0.00180023)
(0.0117227 0.00304599 0.00189003)
(0.0111783 0.00244723 0.00181372)
(0.0112181 0.00237345 0.00185742)
(0.0109251 0.0020418 0.00182761)
(0.0108325 0.0019212 0.00184454)
(0.0106723 0.00174758 0.00184295)
(0.0105556 0.00163625 0.00185262)
(0.0104424 0.0015346 0.00186118)
(0.010342 0.00145422 0.0018721)
(0.0102509 0.00138806 0.00188409)
(0.0101681 0.0013342 0.00189708)
(0.0100923 0.00129026 0.0019108)
(0.0100223 0.00125455 0.00192512)
(0.00995728 0.00122567 0.00193992)
(0.00989607 0.00120237 0.00195502)
(0.00983798 0.00118386 0.00197026)
(0.00978242 0.00116942 0.00198563)
(0.00972877 0.00115837 0.00200103)
(0.00967633 0.00115009 0.00201632)
(0.00962347 0.00114697 0.00203126)
(0.00957052 0.00112129 0.00204708)
(0.0095149 0.0012103 0.00206158)
(0.00946577 0.00100066 0.00207811)
(0.00938457 0.0013976 0.00208915)
(0.00935153 0.000780421 0.00210995)
(0.00920655 0.00169612 0.00211313)
(0.00920983 0.000479402 0.00214131)
(0.00893157 0.00208237 0.00213511)
(0.00898721 0.000111077 0.00217307)
(0.00845236 0.0025183 0.00215219)
(0.00853976 -0.000334591 0.00219709)
(0.00751117 0.00293287 0.00214389)
(0.00745088 -0.00089789 0.00216135)
(0.00552034 0.0031173 0.001947)
(0.00428266 -0.001547 0.00161546)
(0.00071065 0.00346433 0.000374739)
(-0.00439935 -0.00136709 -0.00299509)
(-0.00642911 0.00885863 -0.00163707)
(-0.00233322 -0.00713985 -0.00110748)
(0.0185667 0.00587061 0.00620318)
(0.0358167 -0.0302383 -0.00252285)
(0.0497463 0.0284978 0.00518552)
(0.0490434 -0.0415523 -0.00970848)
(0.0266532 0.111153 0.0372641)
(-0.0727281 -0.134608 0.0371254)
(-0.0757493 0.222387 -0.112766)
(0.187438 -0.0477507 -0.0124474)
(0.204776 -0.164677 0.0124019)
(0.0770863 0.123523 -0.00576677)
(0.0743552 -0.0193282 0.0060691)
(-0.0274037 0.0577414 0.00985464)
(-0.0124167 -0.0197995 0.0071771)
(-0.0155564 -0.00928323 -0.00942836)
(-0.0204028 -0.0108889 -0.0168596)
(-0.0226677 0.00750562 -0.0181473)
(-0.0223754 0.0205729 -0.0124265)
(-0.0201288 0.0286911 -0.00568796)
(-0.0165538 0.0290877 0.000392121)
(-0.0123952 0.0235221 0.00431719)
(-0.00667134 0.0152079 0.00667912)
(-0.00109262 0.00588322 0.00792446)
(0.00303976 -0.00129837 0.00810289)
(0.00558418 -0.00669671 0.00752358)
(0.00672398 -0.0106652 0.0065272)
(0.00698151 -0.0146426 0.00549364)
(0.00678366 -0.0177147 0.00438839)
(0.00604681 -0.0210435 0.00333773)
(0.00526792 -0.0236108 0.00250977)
(0.00433763 -0.0259718 0.00193909)
(0.0034355 -0.0276799 0.00152588)
(0.00253628 -0.0286699 0.00128953)
(0.00173493 -0.0287937 0.00119322)
(0.00114856 -0.0281019 0.00108134)
(0.000996397 -0.0264989 0.000951128)
(0.00109944 -0.024448 0.000951453)
(0.00109608 -0.0221175 0.000893238)
(0.00110511 -0.0194928 0.000860247)
(0.00126858 -0.0166944 0.000910357)
(0.00162165 -0.0137448 0.000937724)
(0.00205715 -0.011184 0.000882588)
(0.00254804 -0.00860285 0.000696407)
(0.0032869 -0.00561255 0.00053559)
(0.00394548 -0.00221221 6.9118e-05)
(0.0196506 0.0196288 0.00755544)
(0.021931 0.0107887 0.00698901)
(0.0111747 0.00763344 0.00328787)
(0.0140361 0.0094491 0.00347636)
(0.0101656 0.0072157 0.00272175)
(0.0129908 0.00852041 0.00327092)
(0.0104555 0.00624407 0.00270519)
(0.0127984 0.00703277 0.00325112)
(0.0106695 0.00483517 0.00272424)
(0.0123062 0.00541629 0.00313892)
(0.0106086 0.00363587 0.00274091)
(0.0115838 0.00405457 0.00301072)
(0.0103691 0.0028015 0.00275638)
(0.0108331 0.00305018 0.00291287)
(0.0100696 0.00227131 0.00277737)
(0.0101814 0.00235453 0.0028567)
(0.00975532 0.00193028 0.00280548)
(0.00967225 0.00188948 0.00284284)
(0.00944637 0.00169314 0.00283432)
(0.00930675 0.00160954 0.00285173)
(0.00916026 0.00151433 0.00286325)
(0.00903225 0.00144502 0.00287946)
(0.00891504 0.00138732 0.00289684)
(0.008808 0.00134087 0.00291571)
(0.00870942 0.00130312 0.00293564)
(0.00861805 0.00127248 0.00295645)
(0.00853264 0.00124759 0.00297807)
(0.00845192 0.00122753 0.00300012)
(0.00837498 0.0012116 0.00302226)
(0.00830113 0.00119909 0.00304455)
(0.00822956 0.0011894 0.0030668)
(0.00815944 0.00118207 0.00308876)
(0.00808937 0.00117876 0.00311001)
(0.00801845 0.00114986 0.0031318)
(0.00794602 0.00124121 0.00315109)
(0.0078797 0.00101709 0.00317327)
(0.00778242 0.00142622 0.00319012)
(0.00773318 0.000768797 0.00321543)
(0.0075732 0.00171962 0.0032257)
(0.00756743 0.000410906 0.00325674)
(0.00727473 0.00208567 0.00325809)
(0.00734386 -7.45997e-05 0.00329828)
(0.00679741 0.00245331 0.00328534)
(0.00696089 -0.000774015 0.00333475)
(0.00594061 0.00264019 0.00329346)
(0.00610372 -0.00184233 0.00332035)
(0.00439384 0.00195749 0.00313528)
(0.00360693 -0.00362304 0.00273082)
(0.000678285 -0.000582547 0.00148988)
(-0.00331463 -0.00757643 -0.000672297)
(-0.000314352 -0.00681399 0.0117037)
(0.00636087 -0.0175528 0.0320325)
(0.0197565 0.000910587 0.0333641)
(0.0237239 0.0149231 0.0270749)
(0.0257974 0.0543662 0.0323348)
(-0.0058206 0.0158731 0.0295918)
(-0.016961 0.112365 0.072228)
(-0.11756 -0.11076 0.0711456)
(0.000625854 0.206658 -0.186877)
(0.15001 -0.0977346 0.00736785)
(0.184014 -0.112457 0.0108945)
(0.0568367 0.128031 -0.00922915)
(0.0786867 0.0508888 0.00103361)
(0.029475 0.0877443 -0.00249409)
(0.0202811 0.061155 -0.00498513)
(0.000813455 0.0666718 -0.00856647)
(-0.00380361 0.070693 -0.00928313)
(-0.00734904 0.0754515 -0.00703338)
(-0.00693308 0.0767488 -0.00200137)
(-0.00664364 0.0759571 0.00139678)
(-0.00564017 0.07181 0.00490544)
(-0.00457866 0.0655629 0.00639433)
(-0.00201929 0.0597853 0.00722255)
(0.000412657 0.0526748 0.00681632)
(0.00300206 0.0478564 0.0058114)
(0.00506825 0.0436291 0.0050026)
(0.00640831 0.0397633 0.00423768)
(0.00714084 0.0352503 0.00341326)
(0.0075798 0.0311886 0.00259419)
(0.00743261 0.0256887 0.00204421)
(0.00708344 0.0207046 0.00175459)
(0.00607285 0.0144714 0.00155525)
(0.00466706 0.00854824 0.00132549)
(0.00305373 0.00228106 0.00126459)
(0.00157462 -0.00341957 0.00153802)
(5.5899e-05 -0.0089135 0.00176942)
(-0.000890176 -0.0125459 0.0016338)
(-0.00164615 -0.0149314 0.00140145)
(-0.00209225 -0.0161806 0.00103848)
(-0.00212782 -0.0159744 0.000720575)
(-0.00234702 -0.0148523 0.000128213)
(-0.00190248 -0.0125504 -0.000693551)
(-0.00167915 -0.00989144 -0.00171241)
(-0.00241319 -0.00609876 -0.00220522)
(-0.00313512 -0.00318374 -0.00187396)
(-0.00396171 -0.00131323 -0.0024035)
(0.0152147 0.0166502 0.00780534)
(0.0205276 0.0128003 0.00840518)
(0.00718422 0.00771542 0.004506)
(0.0112583 0.011683 0.00471617)
(0.00746706 0.00806617 0.00408629)
(0.0107358 0.00995068 0.0047754)
(0.00827792 0.00665655 0.00412264)
(0.0108037 0.00777735 0.00480687)
(0.00861321 0.00478744 0.00418651)
(0.010308 0.00569682 0.00470306)
(0.00851793 0.00336429 0.00422732)
(0.0095363 0.00410156 0.00458096)
(0.00822945 0.00248931 0.00426665)
(0.00875622 0.00300841 0.00449012)
(0.00791062 0.00200821 0.00431603)
(0.0080955 0.00229109 0.00444485)
(0.0076119 0.00175074 0.0043723)
(0.0075787 0.00182941 0.00444205)
(0.00730749 0.00158906 0.00443476)
(0.0071795 0.00155329 0.00447306)
(0.00702202 0.00146114 0.00449594)
(0.00689126 0.00140764 0.00452815)
(0.00677034 0.00136045 0.004561)
(0.00666008 0.00132362 0.00459613)
(0.00655829 0.00129399 0.00463276)
(0.00646368 0.00127012 0.0046708)
(0.00637467 0.00125073 0.00471073)
(0.00628984 0.00123512 0.00475125)
(0.00620848 0.00122261 0.00479108)
(0.00613045 0.00121256 0.00483095)
(0.00605505 0.00120453 0.00487083)
(0.00598159 0.00119798 0.00491047)
(0.00590909 0.00119509 0.0049492)
(0.00583629 0.00116328 0.00498644)
(0.00576513 0.0012569 0.00501967)
(0.00569688 0.00101979 0.00505513)
(0.00560937 0.00144186 0.00508936)
(0.00555645 0.000746719 0.00512497)
(0.0054202 0.00173607 0.00515709)
(0.00541252 0.000339811 0.00519408)
(0.00517129 0.00209774 0.00522217)
(0.00525182 -0.000239452 0.00526412)
(0.00481448 0.00244116 0.0052833)
(0.00503876 -0.00112604 0.00533401)
(0.00426672 0.00250705 0.00533663)
(0.00468672 -0.00250075 0.00538446)
(0.00349682 0.0012478 0.00528094)
(0.00393327 -0.00538365 0.00507385)
(0.00242512 -0.00350574 0.00423581)
(0.00227023 -0.0126128 0.00287141)
(-0.00141958 -0.0138173 0.0129412)
(-0.0131282 -0.0210522 0.0283151)
(-0.016167 -0.000138436 0.0233144)
(-0.00471772 0.0216453 0.0391956)
(0.000253453 0.0457123 0.0613465)
(-0.000608051 0.0188529 0.0798275)
(0.0447233 0.0503587 0.130629)
(-0.0665781 -0.124938 0.102928)
(0.0461593 0.0726932 -0.156575)
(0.0800051 -0.0664727 0.017821)
(0.142775 -0.0501411 0.00635218)
(0.0394077 0.14055 -0.00337604)
(0.0504222 0.117212 0.0043228)
(0.0200584 0.145327 0.00620926)
(0.00983204 0.141664 0.00576008)
(0.0039663 0.142923 0.0025664)
(0.000468282 0.143105 0.00268415)
(-0.000909188 0.14324 0.00237837)
(-0.00169775 0.141686 0.00400399)
(-0.00151811 0.13998 0.00456725)
(-0.00113556 0.136752 0.00525265)
(-0.000498815 0.132665 0.00465398)
(0.00183727 0.129286 0.00437419)
(0.00410781 0.123916 0.00415039)
(0.00529427 0.120433 0.00430839)
(0.00734335 0.117717 0.00450425)
(0.00962703 0.115324 0.00432188)
(0.0115108 0.110836 0.00390829)
(0.0131478 0.107033 0.00388838)
(0.0136988 0.100256 0.0044443)
(0.0136851 0.0932384 0.00511687)
(0.0127713 0.0838686 0.00562181)
(0.0111165 0.0741475 0.00576955)
(0.00912034 0.0622939 0.0056421)
(0.00701804 0.0507336 0.00543394)
(0.0035456 0.0384543 0.00451551)
(0.000814709 0.0283382 0.00322128)
(-0.00132196 0.0184076 0.00226687)
(-0.00386724 0.00876994 0.00143834)
(-0.00606115 0.00238444 0.000867259)
(-0.00746907 -0.00335521 0.000728567)
(-0.0072527 -0.00562576 0.000522053)
(-0.00662785 -0.00683506 -0.000187608)
(-0.00521835 -0.00601144 -0.00121979)
(-0.00221077 -0.00465527 -0.0028177)
(-0.000590956 -0.00250862 -0.00771672)
(0.00733604 0.0141571 0.00749592)
(0.017061 0.0163917 0.00963613)
(0.000654988 0.00822569 0.00559416)
(0.00698251 0.0148018 0.00587672)
(0.00263326 0.00891762 0.00556358)
(0.00692607 0.0115883 0.00615401)
(0.00406646 0.00697781 0.0058261)
(0.00708234 0.00855518 0.00632584)
(0.00433175 0.00465503 0.00595219)
(0.00630496 0.00595137 0.00629385)
(0.00399347 0.00309585 0.00594635)
(0.00516081 0.00414869 0.00621523)
(0.0034646 0.00223302 0.00594153)
(0.00408724 0.0029962 0.00614344)
(0.00296262 0.00180939 0.00596425)
(0.00320729 0.00226948 0.00610034)
(0.00253978 0.00161471 0.00601041)
(0.00253331 0.00179608 0.00609203)
(0.00219309 0.00149123 0.00608455)
(0.00206696 0.00152143 0.00613711)
(0.001883 0.00142165 0.00615962)
(0.00173931 0.00138785 0.00619742)
(0.00160384 0.00134977 0.00623252)
(0.00148063 0.00132164 0.00626979)
(0.00136684 0.00129857 0.00630771)
(0.00126156 0.00127925 0.00634565)
(0.00116305 0.00126325 0.00638323)
(0.00107064 0.00125078 0.00642094)
(0.000984788 0.00124102 0.00645977)
(0.000903417 0.00123353 0.00649924)
(0.000825263 0.00122772 0.00653875)
(0.000749528 0.00122292 0.00657799)
(0.000675331 0.00122263 0.00661651)
(0.000601928 0.0011913 0.00665516)
(0.000532558 0.00128675 0.00669195)
(0.000461441 0.00104306 0.00672696)
(0.00038643 0.00147496 0.00676641)
(0.000325776 0.000756036 0.00679604)
(0.000217811 0.00177641 0.00683734)
(0.000201552 0.000319383 0.00686363)
(1.41205e-05 0.0021474 0.00690337)
(9.70482e-05 -0.000303691 0.00693098)
(-0.000223682 0.00251575 0.0069661)
(3.39419e-05 -0.00124303 0.00699997)
(-0.000421732 0.0026805 0.0070325)
(0.000171674 -0.00264024 0.00708343)
(-0.000390669 0.00188908 0.00705292)
(0.00132071 -0.00496793 0.00708613)
(0.00128602 -0.000783695 0.00686555)
(0.0054629 -0.00837563 0.0056798)
(0.00230468 -0.00552078 0.00808168)
(-0.00749739 -0.0197407 0.0128627)
(-0.0275471 -0.0208435 0.00565313)
(-0.0366389 -0.0238876 0.00743533)
(-0.0410295 -0.0191925 0.0233143)
(-0.0456611 -0.0580825 0.0517404)
(-0.00212359 -0.0631575 0.0958528)
(-0.00149689 -0.135933 0.0935414)
(0.0304955 -0.0520705 -0.150856)
(0.0407718 -0.0636181 0.0143973)
(0.0729318 0.0231622 -0.00339324)
(0.0156398 0.185474 -0.00283374)
(0.0221569 0.202234 0.00640749)
(0.00843028 0.2201 0.00966566)
(0.00560733 0.22529 0.0107371)
(0.00130697 0.225453 0.00774185)
(-0.000624647 0.225708 0.00719319)
(-0.00166751 0.222875 0.00625482)
(-0.0017726 0.219118 0.00748281)
(-0.000839793 0.214437 0.00779934)
(0.000938583 0.208601 0.00850988)
(0.00336803 0.202878 0.00834432)
(0.00582401 0.197178 0.00785948)
(0.00783839 0.190942 0.00706452)
(0.00903108 0.186268 0.00788078)
(0.00909967 0.182999 0.0087178)
(0.0113137 0.180433 0.00930312)
(0.0145483 0.17659 0.0107226)
(0.0161732 0.172339 0.0123498)
(0.0173861 0.166724 0.0136015)
(0.01876 0.16031 0.0136786)
(0.0191015 0.152582 0.0131939)
(0.01861 0.144621 0.0121269)
(0.0175449 0.134804 0.0108881)
(0.0158673 0.124231 0.00910404)
(0.0136564 0.112324 0.00707116)
(0.012368 0.10002 0.0052111)
(0.00951165 0.0871222 0.00315339)
(0.00658326 0.0733107 0.00105319)
(0.00231194 0.0576117 -0.00167241)
(-0.00135592 0.0406287 -0.00468057)
(-0.00371944 0.0283039 -0.0065349)
(-0.00760592 0.0144442 -0.00748304)
(-0.0104537 0.00528722 -0.00690261)
(-0.0100954 0.000190465 -0.00613608)
(-0.0130752 -0.000946624 -0.0121001)
(-0.00319859 0.00859927 0.00798316)
(0.0133052 0.0193945 0.00938453)
(-0.00564506 0.00770725 0.00626562)
(0.00379455 0.0180348 0.00592959)
(-0.00125456 0.00908915 0.00641342)
(0.00368286 0.0130681 0.00670539)
(0.000561512 0.0067048 0.00721518)
(0.0034808 0.00903887 0.00752372)
(0.00058366 0.00398079 0.00767442)
(0.00226545 0.00600157 0.00779926)
(-0.000129088 0.00239917 0.0078183)
(0.000938035 0.00401833 0.00796641)
(-0.000843026 0.00168483 0.00793697)
(-0.00019501 0.00283403 0.00810497)
(-0.0013902 0.00140412 0.00808676)
(-0.00107053 0.00213154 0.00824871)
(-0.00177916 0.00133575 0.00825885)
(-0.00170325 0.00172477 0.00839621)
(-0.00205208 0.00136669 0.00842495)
(-0.00211263 0.00148 0.00852956)
(-0.00226504 0.0013714 0.00858994)
(-0.00235818 0.00136466 0.00867054)
(-0.00244484 0.00133892 0.00874248)
(-0.00251679 0.00132467 0.00881652)
(-0.0025772 0.00131426 0.00888983)
(-0.00262676 0.00130793 0.00896246)
(-0.00266785 0.00130371 0.00903432)
(-0.00270386 0.0013003 0.00910402)
(-0.00273984 0.00129753 0.0091697)
(-0.00277156 0.00129529 0.00923381)
(-0.0027995 0.00129363 0.00929663)
(-0.00282443 0.00129203 0.0093581)
(-0.0028471 0.00129405 0.00941771)
(-0.00286878 0.00126503 0.00947623)
(-0.00288413 0.00136425 0.00953044)
(-0.00290965 0.00111745 0.00958579)
(-0.00291705 0.00156411 0.00964313)
(-0.00294024 0.000820596 0.00969406)
(-0.00296192 0.00188429 0.00975184)
(-0.00294663 0.000361163 0.00979918)
(-0.00302465 0.00228692 0.0098548)
(-0.00291028 -0.000282218 0.0099015)
(-0.00307755 0.00271991 0.00995299)
(-0.00278475 -0.00117106 0.0100032)
(-0.00299638 0.00307723 0.0100458)
(-0.0023766 -0.0023273 0.0101142)
(-0.00259402 0.00311685 0.0101046)
(-0.000893867 -0.00351213 0.0102498)
(-0.00112083 0.00314359 0.0101304)
(0.00287067 -0.00305888 0.0103614)
(0.00155204 0.00678648 0.0108678)
(0.00204602 -0.00134476 0.0138796)
(-0.0152975 0.00686687 0.00872738)
(-0.00961148 -0.00638495 0.0062218)
(-0.0144701 -0.00105796 0.0399221)
(-0.0187836 -0.0497975 0.056282)
(-0.0198177 -0.0528298 0.0924874)
(0.0176249 -0.09761 0.0868993)
(-0.0101179 -0.0932092 -0.145189)
(-0.00630391 -0.078384 0.0143)
(-0.0185539 0.0643431 -0.00428126)
(-0.0213278 0.217097 -0.00260995)
(-0.0130964 0.238454 0.0153729)
(-0.00654663 0.254799 0.018603)
(-0.00166319 0.256653 0.0215399)
(0.00159184 0.255262 0.0196473)
(0.00290569 0.249972 0.018489)
(0.00558425 0.243937 0.0173392)
(0.00754821 0.235302 0.0167203)
(0.00956218 0.226355 0.015872)
(0.0106254 0.21699 0.014532)
(0.0110056 0.209437 0.01331)
(0.0108974 0.203422 0.0122793)
(0.0114052 0.197194 0.0111848)
(0.0136456 0.193389 0.0115922)
(0.0150771 0.187244 0.0134944)
(0.016817 0.185416 0.0150557)
(0.0184785 0.185399 0.0162072)
(0.0208995 0.180293 0.018285)
(0.0228302 0.176321 0.0199326)
(0.0240597 0.172467 0.0205881)
(0.0248064 0.169189 0.0207922)
(0.0250911 0.165913 0.0204632)
(0.0248226 0.161919 0.0199238)
(0.0243604 0.157473 0.0190057)
(0.0242946 0.150819 0.0177207)
(0.023794 0.143871 0.0168512)
(0.022937 0.136858 0.0161035)
(0.0217401 0.130315 0.0139126)
(0.0195395 0.119182 0.0108476)
(0.0161308 0.107456 0.00570919)
(0.0127795 0.095363 0.000793006)
(0.00926592 0.0809925 -0.005332)
(0.00380908 0.0610364 -0.0163759)
(-0.00242031 0.0350537 -0.0343084)
(-0.00489479 0.0166297 -0.0461194)
(-0.0143705 0.00482484 -0.00444369)
(0.00924559 0.0245964 0.00755525)
(-0.0127044 0.00637399 9.60564e-05)
(0.000430464 0.0213072 0.000297019)
(-0.00526765 0.00850446 0.00203507)
(0.000568461 0.0136906 0.00315776)
(-0.0036887 0.00573932 0.00415676)
(-0.000549473 0.009093 0.00488321)
(-0.00443189 0.00315647 0.00506525)
(-0.00267888 0.00595577 0.00539037)
(-0.00561585 0.00184869 0.00542053)
(-0.00460727 0.00394075 0.00559549)
(-0.00664515 0.00133086 0.00564495)
(-0.00606294 0.00276638 0.00579234)
(-0.00739152 0.00118925 0.00583967)
(-0.00711325 0.00210478 0.00598611)
(-0.00790093 0.0012247 0.00602938)
(-0.00784263 0.00172318 0.0061649)
(-0.00827668 0.00131743 0.0062151)
(-0.0083613 0.00151186 0.00632625)
(-0.0085676 0.00139846 0.00639248)
(-0.00868895 0.00142559 0.00647888)
(-0.00880311 0.00141508 0.00655448)
(-0.00889714 0.00141545 0.00663149)
(-0.00897569 0.00141673 0.00670697)
(-0.0090415 0.00141996 0.00678062)
(-0.00909714 0.00142448 0.0068526)
(-0.0091424 0.00142989 0.00692333)
(-0.00917604 0.0014351 0.00699318)
(-0.00920355 0.00143938 0.00706134)
(-0.00922592 0.0014432 0.00712809)
(-0.00924387 0.00144654 0.00719363)
(-0.00925811 0.00145224 0.00725812)
(-0.00927247 0.00143004 0.00732293)
(-0.00927497 0.00152568 0.00738289)
(-0.00929827 0.00128967 0.00744808)
(-0.00927549 0.00172878 0.00750872)
(-0.00930802 0.000999101 0.00757571)
(-0.00927342 0.00205119 0.00763628)
(-0.0092829 0.000553665 0.00770268)
(-0.00927101 0.00246572 0.00776652)
(-0.00919805 -5.2468e-05 0.0078294)
(-0.0092304 0.00293597 0.00790216)
(-0.00899366 -0.000842552 0.00795814)
(-0.00903328 0.00341393 0.00803986)
(-0.00850171 -0.00180236 0.00809328)
(-0.00850876 0.0038528 0.00814872)
(-0.00721035 -0.00267621 0.00823545)
(-0.00761395 0.0046861 0.00815762)
(-0.00460399 -0.00220429 0.00840725)
(-0.00655869 0.00848421 0.00859128)
(-0.00569274 0.00206568 0.00973827)
(-0.0168322 0.0158834 0.0100528)
(-0.0160618 -0.00495627 0.0103979)
(-0.0300972 0.0208434 0.0343936)
(-0.0125037 -0.0340839 0.0364029)
(-0.0422093 -0.0156065 0.0533722)
(0.0874873 -0.10616 0.0594706)
(-0.0311846 -0.036689 -0.183252)
(-0.050386 -0.0796906 -0.00401065)
(-0.111403 0.0111372 -0.0242614)
(-0.046307 0.175562 -0.00303948)
(-0.0374235 0.17704 0.0144909)
(-0.0203901 0.187573 0.01997)
(-0.00972296 0.175319 0.0256591)
(-0.00571938 0.165156 0.0237556)
(-0.000648436 0.150014 0.0266936)
(0.00275649 0.135265 0.0249399)
(0.00632172 0.118122 0.02505)
(0.00944605 0.101727 0.0242548)
(0.0117016 0.0880841 0.0237669)
(0.0134466 0.0743261 0.0222526)