/*--------------------------------*- C++ -*----------------------------------*\
| =========                 |                                                 |
| \\      /  F ield         | OpenFOAM: The Open Source CFD Toolbox           |
|  \\    /   O peration     | Version:  2.3.0                                 |
|   \\  /    A nd           | Web:      www.OpenFOAM.org                      |
|    \\/     M anipulation  |                                                 |
\*---------------------------------------------------------------------------*/
FoamFile
{
    version     2.0;
    format      ascii;
    class       volVectorField;
    location    "4";
    object      U;
}
// * * * * * * * * * * * * * * * * * * * * * * * * * * * * * * * * * * * * * //

dimensions      [0 1 -1 0 0 0 0];

internalField   nonuniform List<vector> 
6144
(
(0.00730987 0.0262682 -0.00199286)
(0.00707222 0.0126339 -0.00231275)
(0.0058432 0.0108724 -0.00328276)
(0.00578982 0.00785989 -0.00332035)
(0.00488488 0.00676185 -0.00349919)
(0.00511523 0.00584011 -0.00352382)
(0.00462493 0.00515819 -0.00354348)
(0.0048838 0.00475534 -0.0035557)
(0.00457796 0.00410559 -0.0035718)
(0.00474467 0.00383223 -0.00361226)
(0.00455026 0.00325601 -0.00364252)
(0.00463322 0.00301887 -0.00366605)
(0.00451829 0.00256805 -0.00368649)
(0.00453628 0.00234149 -0.00369914)
(0.00447657 0.00203036 -0.00370923)
(0.00446095 0.00182549 -0.00371589)
(0.00442815 0.0016161 -0.00372018)
(0.0044059 0.00145206 -0.00372332)
(0.00438359 0.00130715 -0.00372521)
(0.00436477 0.00118699 -0.00372643)
(0.00434803 0.00108532 -0.00372716)
(0.00433349 0.00100009 -0.0037276)
(0.00432082 0.000928323 -0.00372791)
(0.00430981 0.00086767 -0.00372818)
(0.00430027 0.000816001 -0.00372847)
(0.00429199 0.000771444 -0.00372881)
(0.00428476 0.00073252 -0.00372923)
(0.00427851 0.000696068 -0.00372971)
(0.00427286 0.000675811 -0.00373053)
(0.00426497 0.000590267 -0.00373067)
(0.00427084 0.000710858 -0.0037337)
(0.00425014 0.000370951 -0.0037303)
(0.00427703 0.00085248 -0.00374024)
(0.00423769 4.54138e-05 -0.00373038)
(0.00429145 0.00105926 -0.00374832)
(0.00423353 -0.000364312 -0.0037302)
(0.00431389 0.00126231 -0.00375728)
(0.00425027 -0.000821388 -0.00372869)
(0.00433154 0.00135602 -0.0037607)
(0.00432386 -0.00126643 -0.00372953)
(0.00432547 0.00122034 -0.00376757)
(0.00443006 -0.00174401 -0.00373017)
(0.00435217 0.000959778 -0.00377855)
(0.0045067 -0.00241772 -0.00371588)
(0.00441895 0.00055097 -0.00380245)
(0.00461454 -0.00321792 -0.00368771)
(0.00453732 -0.00012797 -0.00382859)
(0.00478842 -0.0042109 -0.00371535)
(0.00479613 -0.00113914 -0.00381539)
(0.00510569 -0.00628409 -0.00385685)
(0.00524614 -0.00179377 -0.00381024)
(0.00516367 -0.0115488 -0.00395161)
(0.00569908 0.000271062 -0.00433304)
(0.00145538 -0.0215731 -0.00503636)
(0.00762649 0.0113768 -0.00811888)
(0.00663037 -0.0532991 -0.00423291)
(0.00879302 0.0121389 -0.0239113)
(0.00901958 -0.0635374 0.028895)
(-0.0365645 -0.00345574 -0.030576)
(0.0477658 0.135277 0.0554474)
(0.154837 -0.291943 0.0977013)
(0.0994948 -0.148955 0.0480343)
(0.0657085 -0.199537 0.0257141)
(0.0496714 -0.227597 0.0124056)
(0.0443089 -0.22321 0.0103896)
(0.0329787 -0.214921 0.00811142)
(0.0259427 -0.207067 0.00605788)
(0.0219319 -0.203517 0.00513667)
(0.0214016 -0.203686 0.00609004)
(0.0208506 -0.205495 0.00813967)
(0.0201983 -0.204306 0.0102565)
(0.0165202 -0.201947 0.0111593)
(0.0140399 -0.19476 0.00888338)
(0.0102227 -0.18255 0.0137281)
(0.0028039 -0.164293 0.0148578)
(0.000355754 -0.133518 0.0116568)
(-0.00277455 -0.114766 0.0170007)
(-0.00887308 -0.107431 0.017441)
(-0.0106899 -0.094137 0.00682581)
(-0.00634785 -0.0682741 -0.00596855)
(-0.000948081 -0.052156 -0.00793533)
(0.00241998 -0.0426616 -0.00654045)
(0.0043582 -0.0364442 -0.00542213)
(0.00537078 -0.031915 -0.00522077)
(0.00592233 -0.0282648 -0.00539155)
(0.00626225 -0.0250991 -0.00558951)
(0.00650075 -0.0222815 -0.00574653)
(0.00666474 -0.0197327 -0.00585899)
(0.00675389 -0.0173636 -0.00590632)
(0.00679053 -0.0150537 -0.00591477)
(0.00679708 -0.0127685 -0.00590904)
(0.00677493 -0.0104695 -0.00590129)
(0.00673803 -0.00819927 -0.00587193)
(0.00665774 -0.00589897 -0.00583339)
(0.00659393 -0.00357995 -0.00578439)
(0.00646714 -0.00121172 -0.0057016)
(0.0168988 0.0279687 0.00272218)
(0.0166052 0.0135578 0.00191178)
(0.0125212 0.0119596 -0.000344607)
(0.0125213 0.00923316 -0.000499131)
(0.0105332 0.00827516 -0.00107612)
(0.0110809 0.00756347 -0.00102442)
(0.00997408 0.00662598 -0.00124449)
(0.0106439 0.00626963 -0.00114844)
(0.00986746 0.00536594 -0.00128391)
(0.010379 0.00508562 -0.00121393)
(0.00981295 0.0042934 -0.0013032)
(0.0101292 0.00400466 -0.00126616)
(0.00973676 0.00339475 -0.00131551)
(0.00985986 0.00312713 -0.00129634)
(0.00963399 0.00270033 -0.00132353)
(0.00962738 0.00246816 -0.00131873)
(0.00951229 0.00219248 -0.00132632)
(0.0094575 0.00200034 -0.00132676)
(0.00938805 0.00181954 -0.00132791)
(0.0093328 0.00167506 -0.00132776)
(0.00928191 0.00155148 -0.00132689)
(0.00923751 0.00144862 -0.00132538)
(0.00919841 0.00136205 -0.00132336)
(0.00916416 0.00128902 -0.00132092)
(0.00913422 0.0012269 -0.00131812)
(0.00910813 0.00117339 -0.001315)
(0.00908547 0.0011265 -0.00131159)
(0.00906586 0.0010828 -0.00130787)
(0.00904958 0.00105103 -0.00130381)
(0.00902951 0.000971428 -0.0012991)
(0.00903944 0.001071 -0.00129419)
(0.00899075 0.000731619 -0.00128962)
(0.00905483 0.00121638 -0.00128579)
(0.00895501 0.000353587 -0.00127843)
(0.00909731 0.00145201 -0.00127534)
(0.00893428 -0.000147707 -0.00126272)
(0.00916491 0.00172208 -0.00126227)
(0.00895304 -0.000753569 -0.00124249)
(0.00924424 0.00195569 -0.00124125)
(0.00906091 -0.00145365 -0.00122283)
(0.00929699 0.00200558 -0.00122194)
(0.00929214 -0.0021983 -0.00117864)
(0.00937574 0.00179704 -0.00119486)
(0.00949151 -0.00315387 -0.00113639)
(0.00954551 0.00134837 -0.00114813)
(0.00966426 -0.0042415 -0.00112389)
(0.00982121 0.000521627 -0.00109127)
(0.00990355 -0.00540442 -0.00120591)
(0.010418 -0.00059905 -0.00100926)
(0.0104554 -0.00751609 -0.0013656)
(0.0117314 -0.00136925 -0.000742113)
(0.00986935 -0.0134445 -0.00129105)
(0.0136789 -0.00284671 -0.000659656)
(0.0116093 -0.0311177 -0.00039644)
(0.0384395 -0.0336758 0.00413886)
(0.0569141 -0.110828 0.01304)
(0.0092405 -0.0829083 -0.00198084)
(0.0237351 -0.17413 -0.00232915)
(-0.133932 0.0347886 -0.121551)
(0.0309612 0.0403577 0.0312278)
(0.203718 -0.243275 0.138242)
(0.0958366 0.0165514 0.0465282)
(0.0391861 -0.108249 0.00539997)
(0.0347582 -0.0544963 -0.00195589)
(0.0204126 -0.0564131 0.00262888)
(0.0161771 -0.0420518 0.00960492)
(0.0144627 -0.0449485 0.00893433)
(0.0135148 -0.0576488 0.00871657)
(0.0100623 -0.0729164 0.0097908)
(0.00254546 -0.0913641 0.0104747)
(-0.00238692 -0.105559 0.00843377)
(-0.00622236 -0.108373 0.00687333)
(-0.0129165 -0.10937 0.00997313)
(-0.0216476 -0.107921 0.0126196)
(-0.0266346 -0.097445 0.0139484)
(-0.0260134 -0.0857931 0.0220975)
(-0.026271 -0.0812071 0.0285681)
(-0.0281189 -0.0809793 0.0250421)
(-0.0269973 -0.0730417 0.00906275)
(-0.016005 -0.055828 -0.00214291)
(-0.00527537 -0.045751 -0.00159164)
(0.000791203 -0.0393873 -0.000830372)
(0.00376374 -0.0347516 -0.0010874)
(0.00543268 -0.0310089 -0.00161101)
(0.00659681 -0.0277275 -0.00200887)
(0.00739402 -0.0247297 -0.00225305)
(0.00793741 -0.0220032 -0.00228561)
(0.00828854 -0.0195793 -0.00221718)
(0.0084003 -0.0173568 -0.00217992)
(0.00839572 -0.0151385 -0.00215273)
(0.00838291 -0.0129122 -0.00212794)
(0.00839428 -0.0106368 -0.00213382)
(0.00839853 -0.00838377 -0.00222547)
(0.00828326 -0.00601211 -0.00239723)
(0.00818856 -0.00359673 -0.00251752)
(0.00798939 -0.00121006 -0.00266917)
(0.0204431 0.0255036 0.00579501)
(0.0204964 0.0116045 0.00480812)
(0.0146096 0.0100589 0.00164119)
(0.0148948 0.00866151 0.00154806)
(0.0123813 0.00765966 0.000861819)
(0.0133951 0.00741634 0.0010838)
(0.011909 0.0063988 0.000742571)
(0.0129645 0.00624857 0.0010065)
(0.0118298 0.00518615 0.000722308)
(0.0126259 0.00504096 0.000920955)
(0.0117583 0.0040985 0.000708093)
(0.01222 0.00395199 0.00083317)
(0.0116153 0.00324183 0.000700356)
(0.0118113 0.00306308 0.000769986)
(0.0114324 0.00258461 0.000698011)
(0.0114447 0.0024003 0.000730313)
(0.0112407 0.00210366 0.000699771)
(0.011168 0.00193926 0.000710718)
(0.0110522 0.00176016 0.000706266)
(0.0109672 0.00162891 0.000712113)
(0.0108855 0.00151313 0.000717409)
(0.0108142 0.00141868 0.000725185)
(0.0107505 0.00133935 0.000734201)
(0.0106938 0.00127283 0.000744414)
(0.0106435 0.00121644 0.000755585)
(0.0105987 0.00116798 0.000767568)
(0.0105589 0.00112578 0.000780197)
(0.0105236 0.00108678 0.000793429)
(0.0104923 0.00105694 0.000807309)
(0.0104622 0.000989631 0.000821704)
(0.0104573 0.00107619 0.000837807)
(0.0103973 0.00076631 0.000850987)
(0.0104611 0.00122252 0.000869525)
(0.0103307 0.000406456 0.000881418)
(0.0105051 0.00146318 0.000901635)
(0.0102755 -7.6536e-05 0.000910713)
(0.0105884 0.00174661 0.000935146)
(0.0102637 -0.00066618 0.000944261)
(0.0107055 0.00200537 0.000980114)
(0.0103538 -0.00136313 0.000985623)
(0.0108023 0.00214776 0.00103432)
(0.0106227 -0.00214657 0.00105354)
(0.0108854 0.002015 0.00109557)
(0.0109135 -0.0031367 0.00113041)
(0.0110516 0.0016551 0.00118312)
(0.0111141 -0.00426895 0.00117117)
(0.0113188 0.000892582 0.00127688)
(0.0113049 -0.00534279 0.00107452)
(0.0120447 -0.000131256 0.00140946)
(0.0122979 -0.00709171 0.000978368)
(0.0143209 -0.00187091 0.00193082)
(0.0144891 -0.0130306 0.000460288)
(0.0244003 -0.00981362 0.00185333)
(0.0493855 -0.0519741 -0.000164885)
(0.0742059 -0.0596477 0.0162645)
(0.111148 -0.13937 0.0275757)
(0.0394146 -0.106454 0.032916)
(0.0551522 -0.201952 0.0644829)
(-0.082955 0.131786 -0.165103)
(0.05851 -0.0198481 0.00444041)
(0.20358 -0.18422 0.14967)
(0.118206 0.0696611 0.0399881)
(0.114619 -0.0801953 0.00488893)
(0.0737081 0.0229433 -0.0222582)
(0.0506839 0.000238229 -0.00340772)
(0.0394245 -0.00471536 0.0222995)
(0.0375133 -0.0256212 0.0215224)
(0.0331281 -0.0354329 0.00742618)
(0.0274899 -0.0311013 0.00078705)
(0.0178685 -0.0334031 0.000183379)
(0.00715198 -0.0338768 0.00474341)
(-0.00237222 -0.032226 0.0125164)
(-0.0130652 -0.0272064 0.0202641)
(-0.0258455 -0.0190415 0.0237934)
(-0.0360846 -0.0123369 0.0234016)
(-0.0433246 -0.0126113 0.0210259)
(-0.0455301 -0.0211498 0.0159064)
(-0.0406935 -0.0293196 0.00699226)
(-0.0296551 -0.0312336 0.000893663)
(-0.017428 -0.0334307 0.00137931)
(-0.00837039 -0.0343936 0.00251962)
(-0.00293074 -0.0335743 0.00240863)
(0.000445995 -0.031542 0.00178496)
(0.00277277 -0.0290747 0.00106993)
(0.00458887 -0.0264691 0.000617201)
(0.00597349 -0.0238578 0.000332224)
(0.00706531 -0.0214498 0.000123526)
(0.00779905 -0.0193083 -0.00010657)
(0.0080931 -0.0172681 -0.00035534)
(0.00817166 -0.0150993 -0.000451809)
(0.00817384 -0.012837 -0.000398047)
(0.00817427 -0.0104966 -0.000293908)
(0.00818591 -0.00825585 -0.000165999)
(0.00808047 -0.00590817 -0.000289306)
(0.00808078 -0.00354697 -0.000600349)
(0.00796824 -0.00121636 -0.00101187)
(0.0210824 0.0225823 0.00699437)
(0.0220125 0.0107141 0.00613547)
(0.0138281 0.00832799 0.00263357)
(0.0152201 0.00874314 0.00261553)
(0.012268 0.00727693 0.00212994)
(0.0137999 0.00778681 0.00242664)
(0.0120688 0.00640527 0.00207496)
(0.0134919 0.00658016 0.00239388)
(0.0120877 0.00514699 0.0020536)
(0.0131434 0.00522546 0.00229977)
(0.01201 0.00397814 0.0020331)
(0.0126469 0.00401138 0.0021928)
(0.0118239 0.00308552 0.00202075)
(0.012106 0.00307018 0.00210965)
(0.0115771 0.00246501 0.00201974)
(0.011621 0.00238006 0.00206738)
(0.0113169 0.00202903 0.00202532)
(0.0112366 0.00191052 0.00204524)
(0.0110685 0.0017209 0.00203733)
(0.0109573 0.00160883 0.00204733)
(0.0108438 0.00149949 0.00205427)
(0.0107455 0.00141473 0.00206515)
(0.0106567 0.00134321 0.00207726)
(0.0105771 0.00128381 0.00209087)
(0.0105055 0.00123367 0.0021056)
(0.010441 0.00119083 0.00212127)
(0.0103827 0.00115388 0.00213769)
(0.0103304 0.00111981 0.00215472)
(0.0102828 0.0010924 0.00217258)
(0.0102393 0.0010386 0.00219119)
(0.0102196 0.00110898 0.00221127)
(0.010144 0.000838307 0.00222903)
(0.0102067 0.00125373 0.00225179)
(0.0100456 0.0005031 0.00226886)
(0.0102499 0.00149998 0.00229794)
(0.00996025 4.3261e-05 0.00231138)
(0.0103484 0.00180188 0.00235219)
(0.00992077 -0.000528187 0.00235845)
(0.0104975 0.00210601 0.00241933)
(0.0099925 -0.00122095 0.00241606)
(0.0106584 0.00235098 0.00250396)
(0.0102468 -0.00207404 0.00248947)
(0.0107561 0.00235653 0.00260059)
(0.0106285 -0.00315619 0.00259199)
(0.0108697 0.00208438 0.00270595)
(0.0108067 -0.00442959 0.00263704)
(0.0110025 0.0013647 0.00279592)
(0.0108594 -0.00538357 0.00253835)
(0.0117149 0.000679491 0.00294658)
(0.0129407 -0.00632909 0.00234652)
(0.0147637 7.05237e-05 0.00347685)
(0.0207899 -0.0117872 0.00117082)
(0.0399144 -0.0081032 0.00447207)
(0.0779178 -0.0501168 0.0219297)
(0.0781708 -0.00655102 0.0616603)
(0.0918269 -0.0712222 0.0743996)
(-0.0457375 0.103598 0.145365)
(0.028751 -0.257748 0.214107)
(-0.0621517 0.386147 -0.162072)
(0.0423279 -0.119635 0.0452381)
(0.142906 -0.131338 0.178966)
(0.110365 0.0699501 0.0218979)
(0.100538 0.00661316 -0.019318)
(0.0445307 0.0710027 -0.020335)
(0.0282106 0.0575948 0.00158932)
(0.00963981 0.0471327 -0.000371553)
(0.00561075 0.0476488 -0.00397121)
(0.00159147 0.0488858 0.000176145)
(0.00185363 0.0486645 0.00479903)
(-0.00069839 0.0465639 0.00679237)
(-0.00270114 0.0487058 0.00929735)
(-0.00677914 0.0504485 0.010111)
(-0.0127034 0.0485929 0.00927263)
(-0.018398 0.0478731 0.0106522)
(-0.0257342 0.0390712 0.0123401)
(-0.0308914 0.0264732 0.0133741)
(-0.0299235 0.00990887 0.0128797)
(-0.0249819 -0.0042083 0.0102757)
(-0.0175217 -0.014711 0.00900194)
(-0.0114991 -0.0220849 0.0079839)
(-0.00708663 -0.0255159 0.00712641)
(-0.00437626 -0.0268933 0.00574273)
(-0.00211321 -0.0264514 0.00438751)
(2.66384e-05 -0.0250876 0.00289395)
(0.00188882 -0.0231701 0.00181391)
(0.00346509 -0.0210457 0.00105921)
(0.00481528 -0.0189598 0.000616704)
(0.00554864 -0.0172971 9.53899e-05)
(0.00539138 -0.015893 -0.000453646)
(0.00496815 -0.0142265 -0.000776975)
(0.00452347 -0.0123786 -0.00099184)
(0.00451368 -0.0104012 -0.000909874)
(0.00461761 -0.00865756 -0.000595381)
(0.00480496 -0.00659432 -0.000727696)
(0.00541552 -0.00427209 -0.00107645)
(0.00610821 -0.00170303 -0.00132665)
(0.0189145 0.0188808 0.00727331)
(0.0223143 0.0114732 0.00726532)
(0.0110818 0.00757531 0.00344671)
(0.0138393 0.00994917 0.00362538)
(0.0105473 0.00758369 0.00302982)
(0.0127297 0.00871124 0.0034811)
(0.0109265 0.006731 0.00304376)
(0.0127385 0.00714065 0.00350063)
(0.0111157 0.00519868 0.00304382)
(0.0124203 0.0054848 0.00339739)
(0.0110172 0.00385396 0.00302435)
(0.0118103 0.00409368 0.00326472)
(0.0107379 0.00290934 0.00300972)
(0.0111255 0.0030723 0.00315723)
(0.010409 0.00230862 0.00301147)
(0.0105065 0.00236679 0.0030918)
(0.0100787 0.00192744 0.00302968)
(0.010006 0.00188981 0.00307169)
(0.00977022 0.00167294 0.00305554)
(0.00963988 0.00159241 0.00307585)
(0.00949195 0.00148714 0.00308554)
(0.00936747 0.00141522 0.00310303)
(0.00925303 0.0013526 0.00312127)
(0.0091498 0.00130151 0.00314167)
(0.009056 0.00125852 0.00316349)
(0.00897063 0.00122203 0.00318667)
(0.00889252 0.00119058 0.00321079)
(0.00882119 0.00116248 0.00323559)
(0.00875521 0.00113866 0.00326142)
(0.00869518 0.00109697 0.00328792)
(0.00865683 0.00115191 0.00331594)
(0.00856823 0.000923988 0.00334186)
(0.00861744 0.00129239 0.00337566)
(0.008435 0.000615618 0.00339848)
(0.00864177 0.00153861 0.00344332)
(0.00831222 0.000185327 0.00345747)
(0.00873316 0.00185479 0.00352344)
(0.00823172 -0.000356095 0.00352134)
(0.00889475 0.00219059 0.00362294)
(0.00825613 -0.00102386 0.0035975)
(0.00910691 0.00248429 0.00375352)
(0.0084624 -0.00189582 0.00369855)
(0.0092655 0.00260839 0.00390314)
(0.00886611 -0.00309643 0.00385234)
(0.00932234 0.00238834 0.00402165)
(0.00897676 -0.00460251 0.00389008)
(0.00900756 0.00178652 0.00405434)
(0.00822156 -0.00537612 0.0037563)
(0.00807364 0.00283654 0.00403804)
(0.00849803 -0.00502013 0.00306129)
(0.0110781 0.00589601 0.00540485)
(0.0240132 -0.00971978 0.00319878)
(0.0454961 -0.00291032 0.0243348)
(0.0637041 -0.0314473 0.0609314)
(0.0211492 0.0395141 0.0855234)
(0.0372453 -0.000833445 0.106518)
(0.0752311 0.146544 0.165976)
(0.034838 -0.300572 0.240125)
(0.0560628 0.429978 0.0159218)
(0.0296344 -0.126552 0.0316702)
(0.0948977 -0.114016 0.197241)
(0.0770613 0.0595083 0.0345701)
(0.0805095 0.0568531 -0.0146766)
(0.0554244 0.122995 -0.0132438)
(0.0420331 0.129877 -0.00161444)
(0.0356643 0.124037 0.00773442)
(0.0299526 0.117759 0.0075759)
(0.0255566 0.106886 0.00572658)
(0.0231382 0.102065 0.00331375)
(0.0206646 0.0923664 0.00170635)
(0.0165987 0.0901527 0.00245415)
(0.0102536 0.0821251 0.00492751)
(0.0021151 0.0761086 0.00196594)
(-0.00717423 0.0693743 0.0041883)
(-0.0148566 0.0605978 0.00473385)
(-0.0205129 0.0463315 0.00633474)
(-0.0213153 0.03366 0.0059766)
(-0.0209688 0.0186876 0.00568479)
(-0.0186402 0.00965685 0.00574522)
(-0.0166816 0.000168363 0.00647919)
(-0.0143083 -0.00346597 0.00641208)
(-0.01247 -0.00802035 0.00536649)
(-0.0102298 -0.00900536 0.0041793)
(-0.00800876 -0.0107428 0.00192344)
(-0.00511298 -0.0111921 0.000623047)
(-0.00267587 -0.0122877 -0.0015238)
(0.000112037 -0.0121741 -0.00276034)
(0.00184033 -0.01195 -0.00447761)
(0.0026493 -0.0123436 -0.00505047)
(0.00279429 -0.0122865 -0.00481022)
(0.00275868 -0.0117822 -0.00438974)
(0.00330413 -0.0100982 -0.00421454)
(0.00341564 -0.00775293 -0.0041058)
(0.0031136 -0.00439409 -0.00422063)
(0.00314963 -0.00170398 -0.00358553)
(0.00226173 -0.000677439 -0.00410514)
(0.0136998 0.0166375 0.00752224)
(0.0211219 0.0137877 0.00888225)
(0.00676815 0.00746258 0.00461632)
(0.0111031 0.0123898 0.004848)
(0.00761319 0.00835893 0.00437548)
(0.0103266 0.0101819 0.00489866)
(0.00857441 0.00722956 0.0044559)
(0.0105784 0.00788422 0.00496764)
(0.00888949 0.00523547 0.00450921)
(0.010252 0.00576018 0.00488836)
(0.00876326 0.00364206 0.00451244)
(0.0095828 0.00413192 0.00478503)
(0.00844049 0.00263522 0.00452062)
(0.00886741 0.00302095 0.0047068)
(0.00809409 0.00206631 0.0045498)
(0.00824758 0.00229735 0.00466977)
(0.00778257 0.00175745 0.00459906)
(0.00775574 0.00183514 0.00467194)
(0.00749401 0.00157434 0.00466076)
(0.00737961 0.00154672 0.00470418)
(0.0072184 0.00144098 0.00472475)
(0.00709212 0.00138792 0.00475974)
(0.00697349 0.00133602 0.00479387)
(0.00686689 0.00129581 0.00483104)
(0.00676976 0.00126216 0.00487013)
(0.0066809 0.00123408 0.0049119)
(0.00659877 0.0012101 0.00495438)
(0.00652288 0.00118901 0.00499636)
(0.00645216 0.00117014 0.0050391)
(0.00638594 0.00114045 0.00508203)
(0.00633865 0.00118416 0.00512658)
(0.00625053 0.000999861 0.0051672)
(0.0062879 0.00131924 0.00522192)
(0.00610688 0.000725182 0.00525542)
(0.00629872 0.00156633 0.00532438)
(0.00597189 0.000334759 0.00534503)
(0.00637753 0.00189391 0.00543776)
(0.00587295 -0.000157137 0.00543987)
(0.0065379 0.00225622 0.00556978)
(0.00586404 -0.000769092 0.00554478)
(0.00677064 0.00258187 0.00572637)
(0.00600456 -0.00159991 0.00565875)
(0.0069696 0.00273587 0.0058977)
(0.00626595 -0.00286606 0.00575079)
(0.00690972 0.00234618 0.00590061)
(0.00604648 -0.004714 0.00567609)
(0.00611041 0.00113396 0.00571495)
(0.00492693 -0.00651825 0.00555148)
(0.00616801 0.00156844 0.00597059)
(0.00793822 -0.00486908 0.00573554)
(0.0109934 0.00924276 0.00677982)
(0.0314559 -0.0133262 0.000674006)
(0.0464933 0.00739402 0.0274838)
(0.0488786 -0.0348927 0.067144)
(0.0325556 0.0465013 0.0921895)
(0.0622412 -0.122188 0.0380856)
(0.155409 0.0873016 0.059988)
(0.081864 -0.253487 0.0948448)
(0.010722 0.245151 0.0197343)
(0.0116061 -0.0674197 0.0303564)
(0.0192148 -0.147048 0.19544)
(0.0273118 0.0416848 0.0483635)
(0.0236646 0.0707783 -0.0210061)
(0.0236329 0.150034 -0.00149758)
(0.0235236 0.160387 0.00936808)
(0.0239404 0.162986 0.0142072)
(0.024852 0.158776 0.0168724)
(0.024271 0.151339 0.0109975)
(0.0237526 0.147656 0.00633033)
(0.0232258 0.143607 0.00248039)
(0.0232028 0.144039 0.000282388)
(0.0194006 0.140345 0.00036927)
(0.0144252 0.135958 0.000899179)
(0.00922223 0.132732 0.00626242)
(0.0043231 0.122764 0.00788038)
(-0.00260291 0.108376 0.00839726)
(-0.0077583 0.0978078 0.0100566)
(-0.0113626 0.0818751 0.0117975)
(-0.0123577 0.0726884 0.0133069)
(-0.0124566 0.0584296 0.0141259)
(-0.0115539 0.0492839 0.0112903)
(-0.0106774 0.0372933 0.00695038)
(-0.00815087 0.0324349 0.00247355)
(-0.00527697 0.0266359 -0.000965998)
(-0.00133777 0.0254829 -0.00293402)
(0.00119272 0.0232625 -0.00363662)
(0.00231359 0.0205502 -0.00323987)
(0.00291456 0.0187862 -0.00420565)
(0.00263125 0.0132115 -0.00301612)
(0.00173771 0.0095752 -0.00260869)
(-0.000514963 0.00233139 -0.00135076)
(-0.00249514 -0.00160661 -0.000659909)
(-0.00429374 -0.00492852 -0.00128656)
(-0.00420279 -0.00493641 -0.00284598)
(-0.00130268 -0.00508412 -0.00559363)
(0.00116752 -0.00292661 -0.0123492)
(0.00574621 0.014279 0.00733818)
(0.0182159 0.0169538 0.0101421)
(-7.35385e-05 0.00714281 0.0055575)
(0.00709463 0.0153314 0.00576054)
(0.00272982 0.00868086 0.00553588)
(0.00661955 0.0116988 0.0059856)
(0.0045213 0.0074385 0.00587192)
(0.00691514 0.00857919 0.00624379)
(0.00479044 0.00508704 0.00602821)
(0.00632075 0.00600084 0.00625601)
(0.00437452 0.00339184 0.0060176)
(0.0052725 0.00417639 0.00619837)
(0.00377257 0.00241012 0.0059888)
(0.00424533 0.00301009 0.00614025)
(0.00321264 0.00189863 0.00599188)
(0.00339084 0.00228223 0.00610762)
(0.00274716 0.00164962 0.00602764)
(0.00272631 0.00182633 0.00610488)
(0.00235997 0.00150652 0.00608407)
(0.0022401 0.00152722 0.00613898)
(0.00205131 0.00140719 0.00616097)
(0.0019141 0.0013769 0.00620221)
(0.00178116 0.00133355 0.00623766)
(0.00166225 0.00130372 0.00627617)
(0.00155332 0.00127759 0.00631506)
(0.00145315 0.0012561 0.00635306)
(0.00136187 0.00123818 0.00639101)
(0.00128087 0.001222 0.00643125)
(0.0012083 0.00120848 0.00647298)
(0.0011424 0.00118908 0.00651587)
(0.00109109 0.00122257 0.00656072)
(0.00101099 0.00107833 0.00659746)
(0.00104301 0.00135271 0.00665205)
(0.000874051 0.000838222 0.00667695)
(0.00106184 0.00160174 0.00674774)
(0.000749003 0.000491552 0.00675702)
(0.00115839 0.00193697 0.00684999)
(0.000667804 5.48657e-05 0.00684296)
(0.00135825 0.00230726 0.00696666)
(0.000692899 -0.000480361 0.0069437)
(0.00172044 0.00263694 0.00712567)
(0.000944974 -0.00126454 0.00707967)
(0.00237977 0.00270441 0.00735863)
(0.0016636 -0.00255957 0.00722985)
(0.00333342 0.00191811 0.00739448)
(0.00312324 -0.00444829 0.00696557)
(0.00256581 0.000565805 0.00589889)
(-0.00215278 -0.00475558 0.00463306)
(-0.00635892 0.00318342 0.0026992)
(-0.0108065 -0.00783593 0.000617429)
(0.00301193 -0.000232724 0.000730904)
(0.0267651 -0.0219126 -0.0075673)
(0.0599091 0.033075 0.00211948)
(0.0418356 -0.000313806 0.0250213)
(0.0738493 0.0992975 0.035306)
(0.0687653 -0.0198081 0.00873806)
(0.182031 0.180523 0.0322498)
(0.123561 -0.0942672 0.0884047)
(-0.117166 0.316861 0.045699)
(0.0100895 -0.0851185 0.0325186)
(0.033807 -0.185043 0.151029)
(-0.0271543 0.0345718 0.023116)
(-0.0422079 0.0553418 -0.0310134)
(-0.00822738 0.138537 -0.0119186)
(0.0145466 0.148408 0.00543708)
(0.0230594 0.15311 0.0116347)
(0.0293613 0.149146 0.0146711)
(0.0309255 0.146583 0.0149128)
(0.0285092 0.142549 0.0127206)
(0.0239709 0.139162 0.0106071)
(0.0171716 0.138267 0.00587831)
(0.00915014 0.135584 0.00324546)
(0.0020254 0.136644 0.00591839)
(-0.0012525 0.13285 0.00686552)
(-0.00528945 0.123984 0.00739151)
(-0.00574509 0.119301 0.0128847)
(-0.00548229 0.100927 0.01787)
(-0.00657549 0.0844189 0.0179671)
(-0.00394635 0.0634605 0.0162573)
(-0.00322379 0.0489039 0.0122224)
(0.000474148 0.0431713 0.00787027)
(0.000763288 0.0374529 0.000627127)
(-0.000704302 0.03758 -0.00800918)
(-0.00321303 0.0378637 -0.0138138)
(-0.00428807 0.0399817 -0.0159816)
(-0.00254448 0.0421058 -0.0168878)
(0.00025878 0.0421592 -0.0184919)
(0.00272643 0.0427756 -0.0191608)
(0.00447834 0.0411154 -0.0198099)
(0.00526205 0.0391924 -0.0201262)
(0.0040505 0.0323253 -0.0202279)
(0.00267528 0.0268092 -0.0179842)
(0.000201286 0.0157794 -0.0157811)
(-0.000974197 0.00729105 -0.0126031)
(0.000602944 -0.000535424 -0.00533723)
(-0.00118086 -0.000891531 -0.0132296)
(-0.00521751 0.00827001 0.00802904)
(0.0154956 0.01935 0.00958847)
(-0.00670072 0.00545367 0.00607707)
(0.00417284 0.0184077 0.00564425)
(-0.00119867 0.00808964 0.00608966)
(0.0035038 0.0131161 0.00645853)
(0.00121002 0.0069729 0.00689012)
(0.00348251 0.00898445 0.00730274)
(0.00132434 0.00444063 0.00740075)
(0.00246117 0.00602298 0.00757428)
(0.000552948 0.00272693 0.00758623)
(0.0012505 0.00403963 0.00774111)
(-0.000256675 0.00189137 0.00771219)
(0.000175118 0.0028445 0.00787061)
(-0.000882076 0.00152122 0.00786049)
(-0.000667305 0.00214016 0.00801099)
(-0.00132415 0.00138921 0.00802797)
(-0.001282 0.00172568 0.00815984)
(-0.00164092 0.00136879 0.00819997)
(-0.0017013 0.00150392 0.00830383)
(-0.0018591 0.00138244 0.00835829)
(-0.00194393 0.00138277 0.00843754)
(-0.00202653 0.00135142 0.00850454)
(-0.00209127 0.00133711 0.00857535)
(-0.00214327 0.00132618 0.00864527)
(-0.00218178 0.00131946 0.00871558)
(-0.00221016 0.00131419 0.00878476)
(-0.00223434 0.00131019 0.00885076)
(-0.00225499 0.00130761 0.00891382)
(-0.00226799 0.00130133 0.00897566)
(-0.00226731 0.00133196 0.00903668)
(-0.00228955 0.00123005 0.00909049)
(-0.0022097 0.00146868 0.00915804)
(-0.00231622 0.00104137 0.00919975)
(-0.00207839 0.0017325 0.00927941)
(-0.00232427 0.000760042 0.00930856)
(-0.0018634 0.00209472 0.00939968)
(-0.00227625 0.000421078 0.00941916)
(-0.00153728 0.00251852 0.009523)
(-0.0021038 7.17415e-05 0.00953752)
(-0.00103212 0.00296914 0.00965301)
(-0.00168773 -0.000249156 0.00964668)
(-0.000327089 0.0034025 0.00964643)
(-0.0010639 -0.000511639 0.00939284)
(-0.000622938 0.0038139 0.00809469)
(-0.00135652 -0.00347774 0.00506488)
(-0.00118729 -0.00531867 0.001614)
(-0.00100884 -0.0187684 0.00024171)
(0.00785876 -0.0218458 -0.00211246)
(0.0173236 -0.0321221 -0.00138836)
(0.023484 -0.0187843 -0.00418337)
(0.0162832 0.00368532 -0.0187931)
(0.0101818 0.0981242 -0.0184925)
(0.0109388 0.168447 0.00314817)
(0.073072 0.232324 0.0228931)
(0.0995912 0.285377 0.0428671)
(0.110398 0.30922 0.0634861)
(0.0377777 0.297324 0.145614)
(-0.0157681 0.561352 0.167068)
(0.0118474 -0.212817 -0.00252594)
(-0.0273684 -0.0725242 -0.000366996)
(-0.0710681 0.14502 -0.0176906)
(-0.0600602 0.112928 -0.0139203)
(-0.01855 0.163802 0.00570905)
(0.0137811 0.149478 0.012713)
(0.0284632 0.149575 0.0116975)
(0.0344425 0.142751 0.0135968)
(0.037631 0.138773 0.0120559)
(0.0379761 0.134663 0.0133559)
(0.0377623 0.13068 0.0159599)
(0.0355264 0.125341 0.0175228)
(0.0328848 0.116296 0.0193704)
(0.0298472 0.104542 0.0217247)
(0.0277005 0.0892172 0.0235527)
(0.0221111 0.0786122 0.0250517)
(0.0214209 0.0599927 0.024591)
(0.0202678 0.0511621 0.0237182)
(0.0190533 0.0386277 0.0203796)
(0.0192502 0.0334871 0.0178455)
(0.0151785 0.0297735 0.0141685)
(0.00965611 0.0300736 0.00929573)
(0.00577406 0.0332117 0.00705871)
(0.00526172 0.0365196 0.00694019)
(0.00647828 0.0382395 0.00828573)
(0.00843974 0.0381064 0.00893979)
(0.0113992 0.0348074 0.00893687)
(0.011944 0.0318351 0.00661519)
(0.0117973 0.0297762 0.0043202)
(0.0118861 0.0300504 0.000782281)
(0.0109297 0.0296035 -0.00401979)
(0.0088507 0.0298337 -0.0105555)
(0.00703751 0.029815 -0.0173697)
(0.00346752 0.0261352 -0.0253532)
(-0.00187777 0.0226415 -0.0377996)
(-0.00889736 0.014392 -0.0590144)
(-0.010278 0.00923269 -0.0740616)
(-0.0162179 0.00546801 -0.00514459)
(0.0127196 0.0255799 0.00855453)
(-0.0137966 0.00357813 0.000260433)
(0.000931883 0.021821 0.000750252)
(-0.00523846 0.00710391 0.00184191)
(0.00036047 0.0138346 0.00302121)
(-0.00281142 0.0062004 0.00382171)
(-0.000337948 0.00906285 0.00467982)
(-0.00328028 0.00381259 0.00476496)
(-0.00212359 0.0059695 0.00518632)
(-0.00450271 0.00230784 0.00517347)
(-0.00392321 0.00395287 0.00539255)
(-0.00566097 0.00161257 0.00542741)
(-0.00534054 0.00276469 0.00558238)
(-0.00652577 0.0013503 0.00563218)
(-0.00637914 0.00210875 0.00577561)
(-0.00711334 0.00131018 0.00582382)
(-0.00710207 0.00174224 0.00595597)
(-0.00751467 0.00135453 0.00600947)
(-0.00760373 0.0015454 0.00612063)
(-0.00781863 0.00142167 0.00618643)
(-0.00793584 0.00145799 0.00627466)
(-0.00805099 0.00144261 0.00634864)
(-0.00814157 0.00144441 0.0064253)
(-0.00821548 0.00144588 0.0064998)
(-0.00827478 0.00145025 0.00657249)
(-0.00832179 0.00145668 0.00664268)
(-0.00835489 0.00146444 0.00671111)
(-0.00837493 0.00147242 0.00677776)
(-0.00838651 0.00147768 0.00684189)
(-0.00838687 0.00150646 0.00690388)
(-0.00840139 0.00143842 0.00696217)
(-0.00832687 0.0016413 0.00702176)
(-0.00841846 0.00128661 0.00707735)
(-0.00819316 0.00190224 0.00713145)
(-0.00841441 0.00105307 0.00719205)
(-0.00798068 0.00226468 0.00722965)
(-0.00834945 0.000787972 0.00730228)
(-0.00766451 0.00270575 0.0073137)
(-0.0081357 0.000551426 0.00740387)
(-0.00711872 0.00317941 0.00737931)
(-0.00745755 0.000296406 0.00746131)
(-0.00581931 0.00339014 0.00730901)
(-0.00555487 -0.000436227 0.00685625)
(0.000872523 0.00380785 0.00448179)
(0.0123199 -0.0022281 -0.00221983)
(0.0224351 0.0110748 -0.00473162)
(0.0163849 0.0216636 -0.00722137)
(-0.0013905 0.064438 -0.0119679)
(-0.0236954 0.118302 -0.00455252)
(-0.0382679 0.165571 0.00825165)
(-0.0413722 0.190426 0.0261702)
(-0.0313188 0.202441 0.0541227)
(0.00197574 0.198912 0.078074)
(0.0591714 0.22962 0.0746921)
(0.126644 0.261969 0.0768577)
(0.149352 0.291197 0.0761483)
(0.192758 0.267225 0.142328)
(0.256777 0.564473 0.212241)
(-0.030307 -0.238645 -0.00997884)
(-0.0926179 -0.0398235 -0.00200538)
(-0.0659493 0.150005 0.00376294)
(-0.0617387 0.0908295 0.00670504)
(-0.0144794 0.117933 0.0213116)
(0.00496435 0.0869251 0.0166317)
(0.0191118 0.0847551 0.010756)
(0.0213424 0.0755084 0.00946914)
(0.026808 0.0749535 0.00824788)
(0.0271653 0.0713902 0.0062226)
(0.0280766 0.0707627 0.00570907)
(0.0271183 0.0691867 0.00648914)
(0.0286312 0.0648145 0.00740733)
(0.0301169 0.0580302 0.00637789)
(0.0316598 0.0510927 0.00507191)
(0.0315876 0.0428604 0.00493819)
(0.0315848 0.0341164 0.00427501)
(0.0289417 0.0278277 0.00357028)
(0.0276881 0.021099 0.0034119)