/*--------------------------------*- C++ -*----------------------------------*\
| =========                 |                                                 |
| \\      /  F ield         | OpenFOAM: The Open Source CFD Toolbox           |
|  \\    /   O peration     | Version:  2.3.0                                 |
|   \\  /    A nd           | Web:      www.OpenFOAM.org                      |
|    \\/     M anipulation  |                                                 |
\*---------------------------------------------------------------------------*/
FoamFile
{
    version     2.0;
    format      ascii;
    class       volVectorField;
    location    "4";
    object      U.water;
}
// * * * * * * * * * * * * * * * * * * * * * * * * * * * * * * * * * * * * * //

dimensions      [0 1 -1 0 0 0 0];

internalField   nonuniform List<vector> 
6144
(
(0.00668334 0.02524 -0.0019707)
(0.00657239 0.0122375 -0.00235142)
(0.0054652 0.0104369 -0.00330953)
(0.00555423 0.00738564 -0.00333577)
(0.00460113 0.00625996 -0.00349115)
(0.0049354 0.00535768 -0.00353051)
(0.00439151 0.00460314 -0.00353445)
(0.00469448 0.00425228 -0.00355452)
(0.00436281 0.00355024 -0.00354705)
(0.00454419 0.00331816 -0.00358793)
(0.00434329 0.00272228 -0.00360221)
(0.00442387 0.00249572 -0.00362561)
(0.00431749 0.0020536 -0.0036349)
(0.00433026 0.00182406 -0.00364591)
(0.00427763 0.00152636 -0.00365021)
(0.00425893 0.00131777 -0.00365479)
(0.0042292 0.00111503 -0.00365626)
(0.00420695 0.000951381 -0.00365743)
(0.00418572 0.000809561 -0.00365752)
(0.00416734 0.000691382 -0.00365719)
(0.00415101 0.000592263 -0.00365656)
(0.00413663 0.000509771 -0.00365575)
(0.00412397 0.00044128 -0.00365484)
(0.00411277 0.000384602 -0.00365392)
(0.00410283 0.000337868 -0.003653)
(0.00409388 0.000299505 -0.0036521)
(0.00408561 0.000268169 -0.00365126)
(0.00407785 0.00024252 -0.00365048)
(0.00407059 0.000221411 -0.00364973)
(0.00406402 0.000205149 -0.00364901)
(0.00405823 0.000192829 -0.00364807)
(0.0040526 0.000183107 -0.00364654)
(0.00404623 0.000180098 -0.00364482)
(0.00403961 0.000155134 -0.00364221)
(0.00403263 0.000239309 -0.00364057)
(0.00402658 6.13359e-05 -0.003637)
(0.00401451 0.00040321 -0.00363499)
(0.00401312 -8.15668e-05 -0.00363098)
(0.00398599 0.000665241 -0.00362394)
(0.00399408 -0.000224928 -0.00362301)
(0.00393778 0.00103256 -0.00360146)
(0.00395448 -0.000283895 -0.00360851)
(0.0038481 0.00156901 -0.00355838)
(0.00385326 -9.29806e-05 -0.00358015)
(0.00366075 0.00248922 -0.00348926)
(0.00359582 0.000723025 -0.0035254)
(0.00325559 0.00437413 -0.00339784)
(0.0029805 0.00304443 -0.00344892)
(0.00234317 0.00862496 -0.00341039)
(0.00167917 0.00891018 -0.00353728)
(0.00070131 0.0177956 -0.00372303)
(0.000569825 0.0208895 -0.0041377)
(0.000521014 0.0326139 -0.00548856)
(0.00405762 0.0287209 -0.00717456)
(0.00569472 0.0460488 -0.00894886)
(0.0102635 -0.00116199 -0.00492977)
(0.0171073 0.0677018 0.00909464)
(0.0188794 -0.0688641 -0.0184239)
(-0.0241313 0.0973464 -0.0886483)
(0.0490062 -0.0913518 -0.124442)
(0.128791 -0.248889 -0.0158805)
(0.0842582 -0.0734545 -0.00673482)
(0.0353911 -0.156385 -0.000348858)
(0.036559 -0.153633 0.00279074)
(0.032009 -0.155681 0.00399563)
(0.0235531 -0.162408 0.00527647)
(0.0158226 -0.165549 0.00462795)
(0.0107433 -0.162362 0.00254077)
(0.00737243 -0.155925 -0.000154491)
(0.00327457 -0.145071 -0.00255279)
(0.000486711 -0.126927 -0.00462072)
(-0.000946396 -0.105574 -0.00503775)
(-0.00317307 -0.0848788 -0.00281897)
(-0.00365202 -0.0679902 -0.000225183)
(-0.00138682 -0.0569921 0.000346832)
(0.00174323 -0.0512682 -0.00074109)
(0.00432201 -0.0488541 -0.00204311)
(0.00595713 -0.0478104 -0.00292687)
(0.00687998 -0.0471626 -0.00332592)
(0.00719417 -0.0462799 -0.00366299)
(0.00678198 -0.044883 -0.00461001)
(0.00627446 -0.0428141 -0.00546338)
(0.00599727 -0.0402276 -0.00583715)
(0.00587408 -0.0374008 -0.00594133)
(0.00581638 -0.0344692 -0.00593696)
(0.00579341 -0.0314339 -0.00587788)
(0.00580101 -0.0283623 -0.00578496)
(0.00582683 -0.0253109 -0.00568847)
(0.00584923 -0.0223035 -0.00560797)
(0.00585624 -0.0193177 -0.00554553)
(0.00584834 -0.016344 -0.00550058)
(0.00582967 -0.0133737 -0.0054669)
(0.00579329 -0.0104241 -0.00544802)
(0.00570884 -0.00749589 -0.00542589)
(0.00564179 -0.00447976 -0.00539536)
(0.00551638 -0.00159191 -0.00534786)
(0.0160293 0.0274681 0.0025161)
(0.0159245 0.0131879 0.00173989)
(0.0120198 0.0114936 -0.000407668)
(0.0123649 0.00870688 -0.000498668)
(0.0100637 0.00757774 -0.00111198)
(0.0108971 0.00693572 -0.00103602)
(0.00953379 0.00587948 -0.00126293)
(0.0103767 0.00562609 -0.00116651)
(0.00945211 0.00464994 -0.0012888)
(0.0100445 0.00444845 -0.00122579)
(0.009423 0.00363565 -0.00129672)
(0.00975242 0.00339791 -0.00126756)
(0.00936138 0.00279176 -0.00130147)
(0.0094734 0.00254038 -0.00128919)
(0.00926543 0.00213451 -0.00130481)
(0.00924533 0.00190533 -0.00130256)
(0.00914184 0.00164695 -0.001305)
(0.00908202 0.00145823 -0.00130495)
(0.00901562 0.00128712 -0.0013043)
(0.00895956 0.00114822 -0.0013031)
(0.00890862 0.0010313 -0.00130134)
(0.00886337 0.000934551 -0.00129914)
(0.00882298 0.000854439 -0.0012966)
(0.00878682 0.000788359 -0.0012938)
(0.00875426 0.000734094 -0.0012908)
(0.00872473 0.00068947 -0.00128758)
(0.00869756 0.000653078 -0.00128414)
(0.00867236 0.00062419 -0.00128056)
(0.00864869 0.000601539 -0.00127701)
(0.00862636 0.000584047 -0.00127363)
(0.00860512 0.00057075 -0.00127019)
(0.00858426 0.000560349 -0.00126639)
(0.0085626 0.000555743 -0.00126239)
(0.00853889 0.00053451 -0.00125724)
(0.00851699 0.00061974 -0.00125307)
(0.00849169 0.000434136 -0.00124583)
(0.00845588 0.000809825 -0.00124412)
(0.0084398 0.000261583 -0.00123124)
(0.00836108 0.00112248 -0.00123702)
(0.00836873 6.09457e-05 -0.00121551)
(0.00819903 0.00156258 -0.00122953)
(0.0082354 -9.00988e-05 -0.00119753)
(0.00789769 0.00217277 -0.00122074)
(0.0079281 -4.1803e-05 -0.00117996)
(0.00729399 0.00311064 -0.00121677)
(0.00717426 0.000541154 -0.00117922)
(0.00606214 0.00485047 -0.00125529)
(0.00539935 0.00250352 -0.00129384)
(0.00368991 0.00877007 -0.00152558)
(0.00189778 0.00826141 -0.00183126)
(-0.00012073 0.0190984 -0.00204456)
(-0.000286783 0.0223231 -0.00272325)
(0.00290566 0.0366416 -0.00426756)
(0.0156898 0.027816 -0.00612718)
(0.0240558 0.0536911 -0.00389703)
(0.0365578 -0.0145346 -2.13106e-06)
(-0.00969505 0.0486232 0.0246954)
(-0.0216637 -0.0400041 -0.00567619)
(0.0181355 0.156277 -0.0191868)
(0.159069 -0.128334 -0.0585922)
(0.169226 -0.216799 -0.00345657)
(0.0560947 0.107242 0.00552087)
(-0.0316556 -0.126107 0.00578462)
(-0.0154918 -0.0657599 0.00970063)
(-0.0210048 -0.0917806 0.0123922)
(-0.0274884 -0.109652 0.0160862)
(-0.0287351 -0.115738 0.0144157)
(-0.0281025 -0.117401 0.009605)
(-0.0263423 -0.115024 0.0018336)
(-0.0249352 -0.104639 -0.00469305)
(-0.0235369 -0.0856768 -0.00418006)
(-0.0208455 -0.0675619 -0.000153556)
(-0.0183209 -0.0542403 0.00236488)
(-0.0142561 -0.0457173 0.0031666)
(-0.00703862 -0.0428214 0.00370771)
(0.000431739 -0.0431889 0.00367577)
(0.00547199 -0.0442757 0.00311782)
(0.00791427 -0.0452147 0.00227858)
(0.00871385 -0.045588 0.00134924)
(0.00871863 -0.0453347 0.00057306)
(0.00831385 -0.0443782 -0.000237515)
(0.00770321 -0.0428102 -0.00103386)
(0.0072829 -0.0406241 -0.00152868)
(0.00699209 -0.0380143 -0.00177773)
(0.00675516 -0.0351645 -0.00191564)
(0.00658544 -0.0321251 -0.0019788)
(0.00649659 -0.0290123 -0.00199017)
(0.00648188 -0.0259217 -0.00194897)
(0.00647795 -0.022891 -0.00191546)
(0.0064648 -0.0198672 -0.00191713)
(0.0064591 -0.0168467 -0.00194038)
(0.00646072 -0.0138114 -0.00198351)
(0.0064801 -0.0108237 -0.00203813)
(0.00643432 -0.00782083 -0.00213376)
(0.00641002 -0.00468154 -0.00219871)
(0.00628675 -0.00168209 -0.00242381)
(0.0198555 0.0256563 0.00554836)
(0.0200626 0.0112533 0.00470307)
(0.014167 0.00963626 0.00152567)
(0.0148832 0.00809365 0.00151848)
(0.0118681 0.00695261 0.000700663)
(0.013314 0.00679993 0.000962943)
(0.0113861 0.00562257 0.000568625)
(0.012742 0.00562924 0.000850512)
(0.0113373 0.00445227 0.000562669)
(0.012298 0.0044314 0.00076627)
(0.011298 0.00343502 0.00056798)
(0.0118286 0.00335525 0.000690721)
(0.0111831 0.00263562 0.000576353)
(0.0113857 0.00248707 0.000640971)
(0.0110139 0.00201917 0.000584405)
(0.0110136 0.00184116 0.000612163)
(0.0108239 0.00156263 0.000592213)
(0.0107413 0.00139839 0.000601443)
(0.0106308 0.00123062 0.000601519)
(0.0105429 0.0011028 0.000607668)
(0.0104609 0.000993429 0.000614098)
(0.010388 0.000904129 0.000622074)
(0.0103222 0.000830482 0.000631013)
(0.0102629 0.00077 0.000640749)
(0.0102088 0.000720512 0.00065113)
(0.0101593 0.000680436 0.000661985)
(0.0101137 0.000647945 0.000673153)
(0.0100711 0.000621627 0.000684551)
(0.0100309 0.000600653 0.000696124)
(0.00999223 0.000584283 0.000707875)
(0.00995474 0.000571853 0.000719776)
(0.00991797 0.000562767 0.000731769)
(0.00988075 0.000559236 0.000743671)
(0.00984262 0.000535963 0.000756168)
(0.00980181 0.000622922 0.000767387)
(0.00976521 0.000425817 0.000778355)
(0.00969971 0.000811634 0.000784636)
(0.00967755 0.000231924 0.000800034)
(0.00955434 0.00111687 0.000797594)
(0.00956197 -1.20302e-05 0.000822007)
(0.00932023 0.00153089 0.000808693)
(0.00936325 -0.000258385 0.000845504)
(0.00889655 0.00205923 0.000816487)
(0.0089341 -0.000425406 0.000865152)
(0.0080412 0.00277026 0.000810764)
(0.00787363 -0.000296948 0.000850981)
(0.00618236 0.00397145 0.000725299)
(0.00504106 0.00096464 0.000637528)
(0.00193051 0.00711781 0.000179868)
(-0.00185263 0.00633663 -0.000789447)
(-0.006284 0.0170586 -0.00125582)
(-0.00567137 0.0163434 -0.000535816)
(0.00287156 0.0279167 -0.000257321)
(0.0214529 0.000322043 -0.00597603)
(0.0318438 0.0468381 -0.00251655)
(0.0388108 -0.0151906 0.00217447)
(-0.0335119 0.101269 0.0391072)
(-0.0598556 -0.130327 0.00465353)
(-0.0476921 0.146015 -0.0572144)
(0.155632 -0.122855 -0.0412536)
(0.187316 -0.190719 0.00533296)
(0.0824259 0.147672 0.00212092)
(0.078392 -0.123851 0.0133664)
(0.0278301 -0.0336669 0.0128897)
(0.000209865 -0.0695253 0.011901)
(-0.00966981 -0.0838 0.0092576)
(-0.0159449 -0.0856186 0.00195894)
(-0.0182132 -0.0797914 -0.00986669)
(-0.0200832 -0.0596808 -0.0163667)
(-0.0236266 -0.0338403 -0.0109988)
(-0.026248 -0.0179582 -0.00249578)
(-0.0257076 -0.0121764 0.00249597)
(-0.0214057 -0.0129538 0.00475131)
(-0.0113734 -0.0189279 0.00624594)
(-0.00162715 -0.0258443 0.00682033)
(0.00465333 -0.0315943 0.00658479)
(0.00759141 -0.0357309 0.00615619)
(0.00849284 -0.0386174 0.00554067)
(0.00845747 -0.0402041 0.00463663)
(0.00791648 -0.0409998 0.00363324)
(0.00723951 -0.0409396 0.00276029)
(0.00657556 -0.0402062 0.00212606)
(0.0060461 -0.0387792 0.00164137)
(0.00569018 -0.0368069 0.0012279)
(0.00548188 -0.0344294 0.000968502)
(0.005409 -0.0316412 0.000892002)
(0.00542751 -0.0286356 0.000871356)
(0.00544069 -0.0256387 0.000903196)
(0.00541075 -0.0227083 0.000924834)
(0.00540243 -0.0197258 0.00089872)
(0.00537457 -0.0167081 0.000823607)
(0.00540825 -0.0136293 0.000711549)
(0.00544577 -0.0105951 0.000603742)
(0.00522752 -0.0075429 0.000381044)
(0.00508914 -0.00447067 8.59959e-05)
(0.00500372 -0.00161349 -0.00051986)
(0.0210987 0.0230735 0.00704783)
(0.0217427 0.0100734 0.00615346)
(0.0136265 0.00793241 0.00250226)
(0.0152819 0.00798372 0.00246554)
(0.0117748 0.00646636 0.00187071)
(0.0138708 0.00711911 0.00221952)
(0.0115441 0.00550238 0.0017928)
(0.013388 0.00593421 0.00214974)
(0.0115974 0.00432309 0.00178776)
(0.012898 0.00459916 0.00205606)
(0.0115586 0.00325961 0.00179251)
(0.0123123 0.00340643 0.00196262)
(0.0114051 0.0024513 0.00180017)
(0.0117248 0.00248249 0.00188997)
(0.0111802 0.00188345 0.00181366)
(0.0112199 0.00180943 0.00185737)
(0.0109268 0.00147758 0.00182756)
(0.010834 0.00135683 0.00184449)
(0.0106738 0.00118308 0.00184291)
(0.0105569 0.00107165 0.00185257)
(0.0104437 0.000969901 0.00186114)
(0.0103432 0.000889448 0.00187206)
(0.010252 0.000823231 0.00188404)
(0.0101691 0.000769327 0.00189704)
(0.0100932 0.000725347 0.00191075)
(0.0100232 0.000689603 0.00192508)
(0.00995809 0.000660706 0.00193988)
(0.00989682 0.000637383 0.00195498)
(0.00983866 0.000618866 0.00197023)
(0.00978303 0.000604412 0.00198559)
(0.00972932 0.000593358 0.00200099)
(0.00967682 0.000585081 0.00201629)
(0.00962391 0.000581955 0.00203123)
(0.00957091 0.000556286 0.00204705)
(0.00951523 0.000645294 0.00206154)
(0.00946606 0.000435657 0.00207807)
(0.00938482 0.0008326 0.00208912)
(0.00935175 0.000215417 0.00210991)
(0.00920675 0.00113114 0.0021131)
(0.00921002 -8.5595e-05 0.00214128)
(0.00893177 0.00151743 0.00213508)
(0.00898743 -0.000453931 0.00217304)
(0.00845268 0.00195338 0.00215215)
(0.00854018 -0.000899588 0.00219705)
(0.0075119 0.00236802 0.00214385)
(0.00745193 -0.00146279 0.0021613)
(0.00552216 0.00255277 0.00194698)
(0.00428564 -0.00211148 0.00161549)
(0.000715623 0.00290065 0.000374836)
(-0.00439072 -0.00193446 -0.00299413)
(-0.00641451 0.0082238 -0.0016335)
(-0.00231297 -0.00805466 -0.00110213)
(0.0185788 0.0044457 0.00620008)
(0.0358065 -0.0320869 -0.00252288)
(0.0497071 0.0263512 0.00519547)
(0.0489927 -0.0434397 -0.00967062)
(0.0266188 0.108237 0.0372511)
(-0.0724938 -0.139009 0.0368848)
(-0.0726693 0.204545 -0.11346)
(0.178563 -0.168707 -0.0224133)
(0.205802 -0.183203 0.0124832)
(0.0770864 0.123521 -0.00576674)
(0.0743552 -0.0193282 0.0060691)
(-0.0274037 0.0577413 0.00985464)
(-0.0124167 -0.0197996 0.0071771)
(-0.0155564 -0.00928324 -0.00942836)
(-0.0204028 -0.0108889 -0.0168596)
(-0.0226677 0.00750561 -0.0181473)
(-0.0223754 0.0205728 -0.0124265)
(-0.0201288 0.0286911 -0.00568796)
(-0.0165538 0.0290877 0.000392121)
(-0.0123952 0.0235221 0.00431719)
(-0.00667134 0.0152079 0.00667912)
(-0.00109262 0.00588321 0.00792446)
(0.00303976 -0.00129837 0.00810289)
(0.00558418 -0.00669672 0.00752358)
(0.00672398 -0.0106652 0.0065272)
(0.00698151 -0.0146426 0.00549364)
(0.00678366 -0.0177147 0.00438839)
(0.00604681 -0.0210435 0.00333773)
(0.00526792 -0.0236108 0.00250977)
(0.00433763 -0.0259718 0.00193909)
(0.0034355 -0.0276799 0.00152588)
(0.00253628 -0.0286699 0.00128953)
(0.00173493 -0.0287937 0.00119322)
(0.00114856 -0.0281019 0.00108134)
(0.000996397 -0.0264989 0.000951128)
(0.00109944 -0.024448 0.000951453)
(0.00109608 -0.0221175 0.000893238)
(0.00110511 -0.0194928 0.000860247)
(0.00126858 -0.0166945 0.000910357)
(0.00162165 -0.0137448 0.000937724)
(0.00205715 -0.011184 0.000882588)
(0.00254804 -0.00860286 0.000696407)
(0.0032869 -0.00561255 0.00053559)
(0.00394548 -0.00221221 6.9118e-05)
(0.0196489 0.0190655 0.0075508)
(0.021931 0.0102313 0.00698642)
(0.0111772 0.00707711 0.00328694)
(0.0140396 0.00889215 0.00347598)
(0.0101697 0.00665815 0.00272154)
(0.0129953 0.00796209 0.00327082)
(0.0104598 0.00568486 0.00270509)
(0.0128027 0.00647272 0.00325105)
(0.0106734 0.00427417 0.00272415)
(0.01231 0.00485454 0.00313885)
(0.010612 0.00307342 0.00274083)
(0.011587 0.00349159 0.00301064)
(0.010372 0.00223809 0.0027563)
(0.0108358 0.00248646 0.0029128)
(0.0100721 0.00170733 0.0027773)
(0.0101838 0.00179032 0.00285664)
(0.00975753 0.00136591 0.00280542)
(0.00967432 0.00132496 0.00284277)
(0.00944832 0.00112851 0.00283427)
(0.00930858 0.0010448 0.00285167)
(0.00916198 0.000949509 0.00286319)
(0.00903387 0.000880129 0.0028794)
(0.00891656 0.000822375 0.00289678)
(0.00880941 0.000775878 0.00291566)
(0.00871073 0.000738091 0.00293559)
(0.00861927 0.00070742 0.00295639)
(0.00853377 0.000682511 0.00297802)
(0.00845297 0.000662436 0.00300006)
(0.00837594 0.000646497 0.00302221)
(0.00830201 0.00063398 0.0030445)
(0.00823036 0.000624288 0.00306675)
(0.00816017 0.000616963 0.0030887)
(0.00809003 0.000613651 0.00310996)
(0.00801904 0.000584769 0.00313174)
(0.00794655 0.000676112 0.00315103)
(0.00788017 0.00045201 0.00317322)
(0.00778283 0.000861149 0.00319007)
(0.00773355 0.000203726 0.00321537)
(0.00757354 0.00115459 0.00322565)
(0.00756774 -0.000154136 0.00325668)
(0.00727503 0.0015207 0.00325804)
(0.00734417 -0.000639596 0.00329822)
(0.00679779 0.00188842 0.00328527)
(0.00696134 -0.00133888 0.00333469)
(0.0059413 0.00207555 0.00329339)
(0.00610466 -0.00240686 0.00332027)
(0.00439528 0.00139366 0.0031352)
(0.00360926 -0.0041865 0.00273079)
(0.000682064 -0.00114211 0.00148989)
(-0.00330807 -0.00820527 -0.000670851)
(-0.000300501 -0.00775631 0.0117093)
(0.0063745 -0.0189914 0.032008)
(0.0197573 -0.00105385 0.0333312)
(0.0237176 0.0125323 0.0270688)
(0.0257488 0.051745 0.0323514)
(-0.00584675 0.0134501 0.0296221)
(-0.0170064 0.109109 0.0721412)
(-0.117202 -0.11406 0.0708678)
(0.00283313 0.185918 -0.187418)
(0.135619 -0.246239 -0.00491395)
(0.184532 -0.122345 0.0109408)
(0.0568368 0.128016 -0.00922917)
(0.0786869 0.0508836 0.00103363)
(0.0294751 0.0877424 -0.00249408)
(0.0202812 0.0611535 -0.00498512)
(0.000813462 0.0666706 -0.00856647)
(-0.0038036 0.0706918 -0.00928313)
(-0.00734904 0.0754503 -0.00703339)
(-0.00693308 0.0767476 -0.00200137)
(-0.00664364 0.075956 0.00139678)
(-0.00564017 0.071809 0.00490544)
(-0.00457866 0.0655618 0.00639433)
(-0.0020193 0.0597841 0.00722255)
(0.000412654 0.052674 0.00681632)
(0.00300206 0.047856 0.0058114)
(0.00506825 0.0436289 0.0050026)
(0.0064083 0.0397627 0.00423768)
(0.00714084 0.0352497 0.00341326)
(0.0075798 0.0311885 0.0025942)
(0.00743261 0.0256887 0.00204421)
(0.00708344 0.0207046 0.00175459)
(0.00607285 0.0144713 0.00155525)
(0.00466706 0.00854823 0.00132549)
(0.00305373 0.00228105 0.00126459)
(0.00157462 -0.00341958 0.00153802)
(5.5899e-05 -0.00891351 0.00176942)
(-0.000890176 -0.0125459 0.0016338)
(-0.00164615 -0.0149314 0.00140145)
(-0.00209225 -0.0161806 0.00103848)
(-0.00212782 -0.0159744 0.000720575)
(-0.00234702 -0.0148523 0.000128213)
(-0.00190248 -0.0125504 -0.000693551)
(-0.00167915 -0.00989144 -0.00171241)
(-0.00241319 -0.00609877 -0.00220522)
(-0.00313512 -0.00318374 -0.00187396)
(-0.00396171 -0.00131324 -0.0024035)
(0.0152174 0.0160882 0.00779238)
(0.0205312 0.0122467 0.00840098)
(0.00718974 0.00716129 0.00450511)
(0.0112642 0.0111268 0.0047159)
(0.00747316 0.00750904 0.00408616)
(0.010742 0.00939239 0.00477535)
(0.00828367 0.00609714 0.00412258)
(0.0108092 0.00721698 0.00480683)
(0.00861821 0.00422604 0.00418645)
(0.0103127 0.00513467 0.00470301)
(0.00852217 0.00280143 0.00422725)
(0.00954027 0.00353824 0.00458091)
(0.00823309 0.00192557 0.00426658)
(0.00875963 0.00244441 0.00449006)
(0.00791379 0.00144398 0.00431597)
(0.00809848 0.00172668 0.00444479)
(0.00761471 0.00118618 0.00437224)
(0.00758135 0.00126472 0.00444199)
(0.00731 0.00102426 0.0044347)
(0.00718187 0.000988402 0.004473)
(0.00702425 0.000896184 0.00449588)
(0.00689337 0.000842615 0.00452809)
(0.00677233 0.000795372 0.00456094)
(0.00666195 0.000758508 0.00459607)
(0.00656005 0.000728846 0.0046327)
(0.00646532 0.000704955 0.00467075)
(0.00637621 0.000685555 0.00471067)
(0.00629127 0.000669932 0.00475119)
(0.00620981 0.000657416 0.00479101)
(0.00613169 0.000647373 0.00483089)
(0.0060562 0.000639337 0.00487077)
(0.00598265 0.000632796 0.0049104)
(0.00591007 0.000629915 0.00494913)
(0.00583719 0.000598117 0.00498636)
(0.00576595 0.000691744 0.00501959)
(0.00569763 0.000454657 0.00505505)
(0.00561006 0.000876748 0.00508928)
(0.00555708 0.000181612 0.00512489)
(0.00542078 0.00117101 0.00515701)
(0.00541306 -0.000225242 0.005194)
(0.0051718 0.00153278 0.00522208)
(0.00525232 -0.000804408 0.00526403)
(0.00481498 0.00187635 0.0052832)
(0.00503928 -0.00169077 0.00533391)
(0.00426734 0.00194261 0.0053365)
(0.00468745 -0.00306502 0.00538434)
(0.00349766 0.000684417 0.00528078)
(0.0039343 -0.00594622 0.00507366)
(0.00242637 -0.00406725 0.00423539)
(0.00227119 -0.0132497 0.0028715)
(-0.00141946 -0.0147673 0.0129467)
(-0.0131216 -0.0225811 0.0283039)
(-0.0161351 -0.00237215 0.023294)
(-0.00465686 0.0188886 0.0391701)
(0.000331132 0.0427908 0.0613183)
(-0.00050669 0.0161997 0.0798037)
(0.0446143 0.0473006 0.130436)
(-0.0666952 -0.12739 0.10266)
(0.0465775 0.0490848 -0.159214)
(0.0692401 -0.253507 0.00367445)
(0.142786 -0.0525125 0.00634823)
(0.0394067 0.140064 -0.00337635)
(0.0504244 0.116788 0.00432349)
(0.0200608 0.145015 0.00620994)
(0.00983287 0.1414 0.00576091)
(0.003966 0.142702 0.00256638)
(0.000468152 0.142912 0.00268432)
(-0.000909532 0.143072 0.00237826)
(-0.00169841 0.141496 0.00400405)
(-0.0015188 0.139728 0.00456729)
(-0.0011359 0.136553 0.00525289)
(-0.000499064 0.132466 0.00465417)
(0.001837 0.129056 0.0043744)
(0.0041077 0.123679 0.00415052)
(0.00529411 0.120221 0.00430848)
(0.00734297 0.117527 0.00450437)
(0.00962689 0.11517 0.00432198)
(0.0115107 0.110699 0.0039083)
(0.0131478 0.106911 0.00388832)
(0.0136989 0.100161 0.00444424)
(0.0136853 0.0931713 0.00511684)
(0.0127714 0.0838234 0.00562182)
(0.0111166 0.0741205 0.00576957)
(0.0091204 0.062279 0.00564211)
(0.00701808 0.0507259 0.00543395)
(0.00354562 0.0384506 0.00451552)
(0.000814712 0.028337 0.00322128)
(-0.00132196 0.0184074 0.00226687)
(-0.00386724 0.00876992 0.00143834)
(-0.00606115 0.00238444 0.00086726)
(-0.00746907 -0.00335521 0.000728567)
(-0.0072527 -0.00562577 0.000522053)
(-0.00662785 -0.00683507 -0.000187608)
(-0.00521835 -0.00601144 -0.00121979)
(-0.00221077 -0.00465527 -0.0028177)
(-0.000590956 -0.00250863 -0.00771672)
(0.00734249 0.0136052 0.00749414)
(0.0170677 0.01584 0.00963479)
(0.00066369 0.00767261 0.00559385)
(0.00699072 0.0142461 0.00587668)
(0.00264153 0.00836068 0.00556361)
(0.00693398 0.0110297 0.00615407)
(0.00407366 0.00641794 0.00582613)
(0.00708914 0.00799428 0.00632588)
(0.00433783 0.00409306 0.00595219)
(0.00631067 0.0053887 0.00629387)
(0.00399862 0.00253249 0.00594634)
(0.00516565 0.00358493 0.00621524)
(0.00346904 0.00166888 0.00594152)
(0.00409143 0.00243184 0.00614344)
(0.00296654 0.00124481 0.00596425)
(0.00321099 0.00170476 0.00610034)
(0.00254329 0.00104985 0.00601041)
(0.00253664 0.00123111 0.00609202)
(0.00219626 0.000926178 0.00608455)
(0.00206998 0.000956283 0.00613711)
(0.00188587 0.000856447 0.00615962)
(0.00174204 0.000822578 0.00619742)
(0.00160643 0.000784454 0.00623251)
(0.00148309 0.000756291 0.00626978)
(0.00136917 0.000733194 0.0063077)
(0.00126377 0.000713855 0.00634563)
(0.00116514 0.000697846 0.00638322)
(0.00107261 0.000685374 0.00642092)
(0.000986652 0.000675612 0.00645976)
(0.000905175 0.000668125 0.00649922)
(0.000826918 0.000662322 0.00653873)
(0.000751084 0.00065753 0.00657797)
(0.00067679 0.00065725 0.00661649)
(0.000603296 0.000625943 0.00665513)
(0.000533839 0.000721409 0.00669192)
(0.00046264 0.000477751 0.00672693)
(0.000387553 0.000909674 0.00676639)
(0.000326827 0.000190778 0.00679601)
(0.000218794 0.00121121 0.0068373)
(0.000202473 -0.000245826 0.00686359)
(1.49829e-05 0.00158229 0.00690333)
(9.78618e-05 -0.000868788 0.00693094)
(-0.000222928 0.00195081 0.00696604)
(3.46665e-05 -0.00180787 0.00699991)
(-0.000421091 0.00211598 0.00703241)
(0.000172243 -0.0032046 0.00708335)
(-0.000390197 0.00132556 0.00705279)
(0.00132073 -0.00553094 0.00708593)
(0.00128557 -0.00134468 0.00686523)
(0.00546076 -0.00894323 0.0056796)
(0.00229988 -0.00620028 0.00808189)
(-0.00750337 -0.0207961 0.0128638)
(-0.0275337 -0.0224712 0.005652)
(-0.0365765 -0.0259255 0.00745159)
(-0.0409387 -0.021491 0.0233456)
(-0.0455507 -0.0609595 0.0517489)
(-0.00218073 -0.0671003 0.0957551)
(-0.00154237 -0.139047 0.0934418)
(0.0295048 -0.0758171 -0.153612)
(0.0341238 -0.271791 0.00247569)
(0.0728505 0.0165424 -0.00341523)
(0.0156702 0.18157 -0.00282528)
(0.022136 0.198017 0.00641333)
(0.00844168 0.21586 0.00966854)
(0.00560184 0.221621 0.0107468)
(0.00130884 0.222628 0.00774456)
(-0.0006275 0.222983 0.00719491)
(-0.0016725 0.220498 0.00625135)
(-0.00178069 0.216266 0.0074792)
(-0.000848112 0.211401 0.00779389)
(0.000933326 0.205795 0.00851005)
(0.00336712 0.199788 0.00834916)
(0.00582625 0.194107 0.00786551)
(0.00783929 0.187588 0.00706473)
(0.00903823 0.182763 0.00787849)
(0.00910421 0.179623 0.00870955)
(0.0113159 0.177391 0.00929679)
(0.0145522 0.173979 0.0107179)
(0.0161759 0.169851 0.0123476)
(0.0173853 0.164477 0.0136019)
(0.018762 0.158264 0.0136811)
(0.0191043 0.150651 0.013198)
(0.0186145 0.143012 0.0121321)
(0.0175511 0.133432 0.0108946)
(0.0158737 0.123034 0.00911001)
(0.01366 0.111245 0.00707463)
(0.012371 0.0993097 0.00521344)
(0.00951507 0.0866455 0.0031564)
(0.00658561 0.0729523 0.00105505)
(0.0023131 0.0574155 -0.00167144)
(-0.00135576 0.0405795 -0.00468044)
(-0.00371924 0.0282657 -0.00653482)
(-0.00760591 0.0144385 -0.00748303)
(-0.0104537 0.00528625 -0.00690261)
(-0.0100954 0.000190236 -0.00613607)
(-0.0130752 -0.000946633 -0.0121001)
(-0.00319268 0.00805822 0.00798305)
(0.0133126 0.0188481 0.0093841)
(-0.00563395 0.00715768 0.00626573)
(0.00380479 0.0174807 0.00592967)
(-0.00124433 0.00853274 0.00641356)
(0.00369231 0.0125089 0.00670545)
(0.000570039 0.00614441 0.00721525)
(0.00348866 0.00847745 0.00752371)
(0.000590706 0.00341831 0.00767443)
(0.00227199 0.00543846 0.00779924)
(-0.000123148 0.00183542 0.00781829)
(0.000943609 0.00345425 0.0079664)
(-0.000837876 0.00112042 0.00793696)
(-0.000190134 0.00226947 0.00810496)
(-0.00138562 0.000839373 0.00808676)
(-0.00106617 0.00156668 0.00824871)
(-0.00177502 0.000770769 0.00825884)
(-0.0016993 0.0011597 0.00839621)
(-0.00204829 0.000801547 0.00842495)
(-0.00210902 0.000914781 0.00852955)
(-0.00226157 0.000806128 0.00858993)
(-0.00235487 0.000799334 0.00867053)
(-0.00244167 0.000773562 0.00874247)
(-0.00251376 0.000759279 0.00881651)
(-0.0025743 0.000748847 0.00888981)
(-0.00262399 0.000742506 0.00896245)
(-0.0026652 0.000738286 0.00903431)
(-0.00270134 0.00073487 0.009104)
(-0.00273743 0.000732111 0.00916968)
(-0.00276926 0.000729878 0.00923379)
(-0.00279731 0.000728229 0.0092966)
(-0.00282235 0.000726644 0.00935808)
(-0.00284512 0.000728683 0.00941769)
(-0.00286689 0.000699689 0.00947621)
(-0.00288234 0.000798932 0.00953042)
(-0.00290796 0.000552166 0.00958577)
(-0.00291544 0.000998855 0.00964311)
(-0.00293871 0.00025538 0.00969404)
(-0.00296048 0.00131914 0.00975181)
(-0.00294526 -0.000203986 0.00979916)
(-0.00302337 0.00172188 0.00985478)
(-0.00290908 -0.000847247 0.00990148)
(-0.00307648 0.00215506 0.00995296)
(-0.00278375 -0.00173585 0.0100032)
(-0.00299561 0.00251274 0.0100458)
(-0.002376 -0.00289166 0.0101141)
(-0.00259371 0.00255316 0.0101046)
(-0.000894262 -0.00407537 0.0102496)
(-0.00112194 0.00258109 0.0101303)
(0.00286778 -0.00361988 0.0103613)
(0.00154734 0.00621167 0.0108676)
(0.00203926 -0.00207207 0.0138785)
(-0.0152956 0.00580741 0.00872681)
(-0.00959002 -0.00796645 0.00624187)
(-0.0144186 -0.00344541 0.0399267)
(-0.0187594 -0.0527539 0.0562299)
(-0.0197523 -0.0563506 0.0923835)
(0.0176063 -0.100413 0.0868442)
(-0.0107741 -0.117157 -0.146962)
(-0.00456629 -0.284373 0.00431764)
(-0.0184492 0.0525728 -0.00421654)
(-0.0213595 0.208227 -0.00263481)
(-0.0131288 0.229349 0.0153643)
(-0.00657607 0.245522 0.0186149)
(-0.00169427 0.248183 0.0215588)
(0.00157717 0.247668 0.0196528)
(0.00288765 0.243095 0.0184925)
(0.00558138 0.237401 0.0173364)
(0.00755184 0.229131 0.0167165)
(0.0095638 0.21988 0.0158754)
(0.0106375 0.209959 0.0145335)
(0.0110185 0.202238 0.0133138)
(0.0109087 0.196664 0.0122832)
(0.0114058 0.19081 0.0111799)
(0.0136474 0.186153 0.0115698)
(0.0150801 0.179111 0.0134656)
(0.0167969 0.177121 0.0150046)
(0.0184681 0.178104 0.0161665)
(0.0208957 0.173928 0.0182545)
(0.0228245 0.170296 0.0199041)
(0.0240593 0.166378 0.0205653)
(0.0248081 0.162539 0.020778)
(0.0250965 0.158624 0.0204502)
(0.0248288 0.154395 0.0199124)
(0.0243629 0.150049 0.0189935)
(0.024296 0.14435 0.0177142)
(0.0237996 0.137955 0.0168459)
(0.0229546 0.131186 0.0161185)
(0.0217623 0.124237 0.0139361)
(0.0195691 0.113302 0.0108888)
(0.0161645 0.102342 0.00576836)
(0.0128114 0.0911361 0.000863898)
(0.00929607 0.0770965 -0.00525124)
(0.00384174 0.0575384 -0.0162697)
(-0.0023987 0.0323231 -0.034217)
(-0.00487805 0.0147391 -0.0460401)
(-0.0143618 0.00454775 -0.00444031)
(0.00925414 0.0240373 0.00755467)
(-0.0126915 0.00582768 9.64886e-05)
(0.000442229 0.0207532 0.000297141)
(-0.00525628 0.00794786 0.00203544)
(0.000578723 0.0131304 0.00315795)
(-0.00367965 0.00517801 0.00415697)
(-0.000541275 0.00853079 0.00488328)
(-0.00442467 0.0025933 0.00506537)
(-0.00267222 0.00539208 0.00539043)
(-0.00560986 0.00128444 0.00542063)
(-0.00460168 0.00337631 0.00559557)
(-0.00664001 0.00076614 0.00564506)
(-0.00605809 0.0022016 0.00579243)
(-0.00738698 0.000624334 0.00583978)
(-0.00710894 0.00153982 0.00598622)
(-0.00789685 0.000659637 0.0060295)
(-0.00783875 0.00115803 0.00616502)
(-0.00827298 0.000752217 0.00621522)
(-0.00835777 0.000946584 0.00632637)
(-0.00856423 0.000833141 0.0063926)
(-0.00868573 0.000860217 0.006479)
(-0.00880002 0.000849679 0.0065546)
(-0.00889418 0.000850022 0.0066316)
(-0.00897287 0.000851286 0.00670708)
(-0.0090388 0.000854511 0.00678074)
(-0.00909456 0.000859023 0.00685271)
(-0.00913993 0.000864436 0.00692344)
(-0.00917368 0.000869658 0.0069933)
(-0.0092013 0.000873945 0.00706146)
(-0.00922376 0.000877783 0.0071282)
(-0.00924182 0.000881134 0.00719374)
(-0.00925615 0.000886857 0.00725823)
(-0.00927061 0.000864688 0.00732304)
(-0.0092732 0.000960343 0.007383)
(-0.00929659 0.000724383 0.0074482)
(-0.0092739 0.00116353 0.00750883)
(-0.00930651 0.000433867 0.00757582)
(-0.009272 0.00148601 0.00763639)
(-0.00928156 -1.151e-05 0.00770279)
(-0.00926978 0.00190065 0.00776664)
(-0.00919692 -0.000617544 0.00782952)
(-0.00922942 0.00237107 0.00790227)
(-0.00899281 -0.00140744 0.00795825)
(-0.00903274 0.00284933 0.00803997)
(-0.00850139 -0.00236691 0.00809338)
(-0.00850898 0.00328876 0.00814882)
(-0.00721127 -0.00324007 0.0082355)
(-0.00761604 0.00412295 0.00815768)
(-0.00460757 -0.00276712 0.00840725)
(-0.00656474 0.00792263 0.00859145)
(-0.00570093 0.00146166 0.00973845)
(-0.0168391 0.0150578 0.0100541)
(-0.0160629 -0.00631932 0.010411)
(-0.0300697 0.0187974 0.0344099)
(-0.0124862 -0.0363737 0.0364037)
(-0.0420301 -0.018668 0.0533934)
(0.087437 -0.10917 0.0593604)
(-0.0321135 -0.0628924 -0.186569)
(-0.0390353 -0.296781 -0.0168993)
(-0.11127 0.00591184 -0.0242622)
(-0.046324 0.173425 -0.00306725)
(-0.0374059 0.175067 0.0145049)
(-0.0203863 0.186349 0.0199697)
(-0.00972414 0.17441 0.0256596)
(-0.00572383 0.164437 0.0237536)
(-0.000649619 0.149379 0.0266947)