/*--------------------------------*- C++ -*----------------------------------*\
| =========                 |                                                 |
| \\      /  F ield         | OpenFOAM: The Open Source CFD Toolbox           |
|  \\    /   O peration     | Version:  2.3.0                                 |
|   \\  /    A nd           | Web:      www.OpenFOAM.org                      |
|    \\/     M anipulation  |                                                 |
\*---------------------------------------------------------------------------*/
FoamFile
{
    version     2.0;
    format      ascii;
    class       volScalarField;
    location    "4";
    object      w1;
}
// * * * * * * * * * * * * * * * * * * * * * * * * * * * * * * * * * * * * * //

dimensions      [0 0 0 0 0 0 0];

internalField   nonuniform List<scalar> 
6144
(
0.518788
0.518788
0.518788
0.518788
0.518788
0.518788
0.518788
0.518788
0.518788
0.518788
0.518788
0.518788
0.518788
0.518788
0.518788
0.518788
0.518788
0.518788
0.518788
0.518788
0.518788
0.518788
0.518788
0.518788
0.518788
0.518788
0.518788
0.518788
0.518788
0.518788
0.518788
0.518788
0.518788
0.518788
0.518788
0.518788
0.518788
0.518788
0.518788
0.518788
0.518788
0.518788
0.518788
0.518788
0.518788
0.518788
0.518788
0.518788
0.518788
0.518788
0.518788
0.518788
0.518788
0.518788
0.518788
0.518788
0.518786
0.518554
0.477734
0.499483
0.803981
0.998596
0.999993
0.998748
0.995171
0.977968
0.972042
0.990819
0.993218
0.993642
0.992549
0.992512
0.991148
0.986587
0.97449
0.921127
0.95227
0.969918
0.974881
0.976381
0.971052
0.966552
0.966675
0.963116
0.960131
0.960842
0.960928
0.945226
0.964073
0.99451
0.99806
0.998994
0.999234
0.998587
0.970107
0.999857
0.518788
0.518788
0.518788
0.518788
0.518788
0.518788
0.518788
0.518788
0.518788
0.518788
0.518788
0.518788
0.518788
0.518788
0.518788
0.518788
0.518788
0.518788
0.518788
0.518788
0.518788
0.518788
0.518788
0.518788
0.518788
0.518788
0.518788
0.518788
0.518788
0.518788
0.518788
0.518788
0.518788
0.518788
0.518788
0.518788
0.518788
0.518788
0.518788
0.518788
0.518788
0.518788
0.518788
0.518788
0.518788
0.518788
0.518788
0.518788
0.518788
0.518788
0.518788
0.518788
0.518788
0.518788
0.518788
0.518788
0.518782
0.517932
0.477844
0.478284
0.817934
0.999637
0.999993
0.999294
0.999044
0.982339
0.991048
0.770925
0.993866
0.992686
0.986999
0.871104
0.993688
0.992355
0.869974
0.973595
0.967387
0.959024
0.957406
0.947859
0.871301
0.703772
0.656426
0.811054
0.745452
0.000215216
0.592458
0.932458
0.984756
0.995471
0.998195
0.999034
0.999264
0.998718
0.976336
0.999858
0.518788
0.518788
0.518788
0.518788
0.518788
0.518788
0.518788
0.518788
0.518788
0.518788
0.518788
0.518788
0.518788
0.518788
0.518788
0.518788
0.518788
0.518788
0.518788
0.518788
0.518788
0.518788
0.518788
0.518788
0.518788
0.518788
0.518788
0.518788
0.518788
0.518788
0.518788
0.518788
0.518788
0.518788
0.518788
0.518788
0.518788
0.518788
0.518788
0.518788
0.518788
0.518788
0.518788
0.518788
0.518788
0.518788
0.518788
0.518788
0.518788
0.518788
0.518788
0.518788
0.518788
0.518788
0.518788
0.518788
0.518787
0.518877
0.499262
0.569959
0.183774
0.999993
0.999993
0.999058
0.998491
0.998283
0.997741
0.996418
0.997063
0.995974
0.991845
0.988759
0.944036
0.981811
0.985848
0.98392
0.95457
0.931437
0.973818
0.981616
0.985383
0.983863
0.976486
0.945983
0.751446
0.000671797
0.141701
0.873091
0.980799
0.994908
0.998067
0.998994
0.999247
0.998653
0.956546
0.999857
0.518788
0.518788
0.518788
0.518788
0.518788
0.518788
0.518788
0.518788
0.518788
0.518788
0.518788
0.518788
0.518788
0.518788
0.518788
0.518788
0.518788
0.518788
0.518788
0.518788
0.518788
0.518788
0.518788
0.518788
0.518788
0.518788
0.518788
0.518788
0.518788
0.518788
0.518788
0.518788
0.518788
0.518788
0.518788
0.518788
0.518788
0.518788
0.518788
0.518788
0.518788
0.518788
0.518788
0.518788
0.518788
0.518788
0.518788
0.518788
0.518788
0.518788
0.518788
0.518788
0.518788
0.518788
0.518788
0.518788
0.518788
0.518788
0.518094
0.463061
0.0863751
0.999806
0.999991
0.999813
0.998689
0.998604
0.999195
0.993893
0.992724
0.999392
0.999325
0.999207
0.998974
0.998199
0.996846
0.976013
0.969645
0.96969
0.874689
0.980344
0.985346
0.975021
0.929508
0.871493
0.938481
0.96375
0.971576
0.9497
0.944641
0.99331
0.997918
0.998977
0.999277
0.998858
0.981078
0.999858
0.518788
0.518788
0.518788
0.518788
0.518788
0.518788
0.518788
0.518788
0.518788
0.518788
0.518788
0.518788
0.518788
0.518788
0.518788
0.518788
0.518788
0.518788
0.518788
0.518788
0.518788
0.518788
0.518788
0.518788
0.518788
0.518788
0.518788
0.518788
0.518788
0.518788
0.518788
0.518788
0.518788
0.518788
0.518788
0.518788
0.518788
0.518788
0.518788
0.518788
0.518788
0.518788
0.518788
0.518788
0.518788
0.518788
0.518788
0.518788
0.518788
0.518788
0.518788
0.518788
0.518788
0.518788
0.518788
0.518788
0.518788
0.518791
0.518804
0.489583
0.888155
0.997368
0.998871
0.991911
0.99968
0.982046
0.981171
0.998434
0.996837
0.996448
0.993687
0.997289
0.999667
0.999942
0.999987
0.99957
0.999977
0.999982
0.999992
0.997885
0.992158
0.997193
0.997244
0.996274
0.952744
0.995941
0.996865
0.984281
0.986225
0.987831
0.997542
0.998925
0.99927
0.99876
0.957288
0.999857
0.518788
0.518788
0.518788
0.518788
0.518788
0.518788
0.518788
0.518788
0.518788
0.518788
0.518788
0.518788
0.518788
0.518788
0.518788
0.518788
0.518788
0.518788
0.518788
0.518788
0.518788
0.518788
0.518788
0.518788
0.518788
0.518788
0.518788
0.518788
0.518788
0.518788
0.518788
0.518788
0.518788
0.518788
0.518788
0.518788
0.518788
0.518788
0.518788
0.518788
0.518788
0.518788
0.518788
0.518788
0.518788
0.518788
0.518788
0.518788
0.518788
0.518788
0.518788
0.518788
0.518788
0.518788
0.518788
0.518788
0.518788
0.518788
0.51878
0.455688
0.931959
0.00121533
0.866919
0.896302
0.106925
0.844705
0.977704
0.978392
0.978334
0.975475
0.976776
0.928598
0.973921
0.971463
0.711017
0.0632902
0.831333
0.726095
0.885011
0.95156
0.925932
0.991936
7.19426e-05
0.835846
0.0074
0.999572
0.999962
0.999987
0.999987
0.998985
0.999285
0.997608
0.998954
0.999432
0.999542
0.999857
0.518788
0.518788
0.518788
0.518788
0.518788
0.518788
0.518788
0.518788
0.518788
0.518788
0.518788
0.518788
0.518788
0.518788
0.518788
0.518788
0.518788
0.518788
0.518788
0.518788
0.518788
0.518788
0.518788
0.518788
0.518788
0.518788
0.518788
0.518788
0.518788
0.518788
0.518788
0.518788
0.518788
0.518788
0.518788
0.518788
0.518788
0.518788
0.518788
0.518788
0.518788
0.518788
0.518788
0.518788
0.518788
0.518788
0.518788
0.518788
0.518788
0.518788
0.518788
0.518788
0.518788
0.518788
0.518788
0.518788
0.518789
0.518747
0.520571
0.440031
0.910409
0.0208385
0.000528543
0.39722
0.192899
0.00736687
0.143585
0.292602
0.00188032
0.0221369
0.000680098
0.0230778
4.2966e-05
6.45347e-09
0.0972926
0.0821385
0.0762912
0.123759
0.750953
0.473005
0.647817
0.0122153
0.199958
0.146432
0.00790533
0.851288
0.0144489
0.140069
0.000211378
0.994089
0.813774
0.00120062
0.999034
0.999929
0.999981
0.999995
0.518788
0.518788
0.518788
0.518788
0.518788
0.518788
0.518788
0.518788
0.518788
0.518788
0.518788
0.518788
0.518788
0.518788
0.518788
0.518788
0.518788
0.518788
0.518788
0.518788
0.518788
0.518788
0.518788
0.518788
0.518788
0.518788
0.518788
0.518788
0.518788
0.518788
0.518788
0.518788
0.518788
0.518788
0.518788
0.518788
0.518788
0.518788
0.518788
0.518788
0.518788
0.518788
0.518788
0.518788
0.518788
0.518788
0.518788
0.518788
0.518788
0.518788
0.518788
0.518788
0.518788
0.518788
0.518788
0.518788
0.518787
0.518912
0.516826
0.466728
0.81506
9.43444e-05
1.16086e-05
0.587712
0.00413845
0.177654
0.255277
2.44793e-05
0.000612202
0.804155
0.7799
0.000150651
0.000218622
0.0658427
9.71502e-05
0.61034
0.243083
0.000902006
0.0030064
0.262977
0.000798672
0.279948
0.223544
0.00295616
0.000554118
0.422826
0.01259
0.145911
0.460401
0.747427
0.136675
0.145059
0.000172851
3.63729e-05
0.0734546
0.0050628
0.518788
0.518788
0.518788
0.518788
0.518788
0.518788
0.518788
0.518788
0.518788
0.518788
0.518788
0.518788
0.518788
0.518788
0.518788
0.518788
0.518788
0.518788
0.518788
0.518788
0.518788
0.518788
0.518788
0.518788
0.518788
0.518788
0.518788
0.518788
0.518788
0.518788
0.518788
0.518788
0.518788
0.518788
0.518788
0.518788
0.518788
0.518788
0.518788
0.518788
0.518788
0.518788
0.518788
0.518788
0.518788
0.518788
0.518788
0.518788
0.518788
0.518788
0.518788
0.518788
0.518788
0.518788
0.518788
0.518788
0.518804
0.519463
0.517217
0.457714
0.00038727
0.146407
0.0030637
0.146477
0.000658815
0.595149
1.33782e-05
0.78597
0.359705
2.21847e-06
0.952592
0.0722683
0.0766056
0.00135794
0.0650578
0.856521
0.653749
0.940598
0.918772
0.9393
0.966876
0.849281
0.952274
0.907009
0.967432
0.920426
0.978448
0.977724
0.824991
0.949655
0.988979
2.75836e-16
0.998444
0.999946
0.999987
0.999991
0.518788
0.518788
0.518788
0.518788
0.518788
0.518788
0.518788
0.518788
0.518788
0.518788
0.518788
0.518788
0.518788
0.518788
0.518788
0.518788
0.518788
0.518788
0.518788
0.518788
0.518788
0.518788
0.518788
0.518788
0.518788
0.518788
0.518788
0.518788
0.518788
0.518788
0.518788
0.518788
0.518788
0.518788
0.518788
0.518788
0.518788
0.518788
0.518788
0.518788
0.518788
0.518788
0.518788
0.518788
0.518788
0.518788
0.518788
0.518788
0.518788
0.518788
0.518788
0.518788
0.518788
0.518788
0.518788
0.518788
0.518786
0.518867
0.517552
0.442587
0.990675
2.66735e-06
0.467464
0.705938
0.99657
0.999828
0.999966
0.999989
0.999986
0.99874
0.999532
0.998869
0.97081
0.483531
0.999088
0.999496
0.999534
0.999271
0.999354
0.999288
0.999341
0.9991
0.99944
0.999553
0.999655
0.99964
0.999654
0.999663
0.999686
0.999538
0.999574
0.999648
0.999694
0.999733
0.999762
0.999854
0.518788
0.518788
0.518788
0.518788
0.518788
0.518788
0.518788
0.518788
0.518788
0.518788
0.518788
0.518788
0.518788
0.518788
0.518788
0.518788
0.518788
0.518788
0.518788
0.518788
0.518788
0.518788
0.518788
0.518788
0.518788
0.518788
0.518788
0.518788
0.518788
0.518788
0.518788
0.518788
0.518788
0.518788
0.518788
0.518788
0.518788
0.518788
0.518788
0.518788
0.518788
0.518788
0.518788
0.518788
0.518788
0.518788
0.518788
0.518788
0.518788
0.518788
0.518788
0.518788
0.518788
0.518788
0.518788
0.518788
0.518787
0.522258
0.379661
0.459056
0.84208
0.999992
0.999992
0.999288
0.999352
0.998847
0.999201
0.998861
0.955783
0.977223
0.989027
0.98323
0.78276
0.988773
0.978749
0.976755
0.78258
0.603476
0.116425
0.770276
0.79185
0.139338
0.822509
0.906773
0.872715
0.642705
0.96007
0.98827
0.995092
0.997556
0.998506
0.998809
0.998566
0.994026
0.993037
0.999855
0.518788
0.518788
0.518788
0.518788
0.518788
0.518788
0.518788
0.518788
0.518788
0.518788
0.518788
0.518788
0.518788
0.518788
0.518788
0.518788
0.518788
0.518788
0.518788
0.518788
0.518788
0.518788
0.518788
0.518788
0.518788
0.518788
0.518788
0.518788
0.518788
0.518788
0.518788
0.518788
0.518788
0.518788
0.518788
0.518788
0.518788
0.518788
0.518788
0.518788
0.518788
0.518788
0.518788
0.518788
0.518788
0.518788
0.518788
0.518788
0.518788
0.518788
0.518788
0.518788
0.518788
0.518788
0.518788
0.518788
0.518787
0.518754
0.523151
0.532962
0.510857
0.999995
0.979665
0.996752
0.998025
0.998353
0.996224
0.992198
0.997021
0.996921
0.997255
0.99748
0.997327
0.994511
0.960048
0.978867
0.944752
0.962822
0.971849
0.974765
0.971513
0.97137
0.975889
0.982197
0.974698
0.967725
0.910072
0.976075
0.99405
0.997627
0.998721
0.999041
0.998867
0.996868
0.935924
0.999858
0.518788
0.518788
0.518788
0.518788
0.518788
0.518788
0.518788
0.518788
0.518788
0.518788
0.518788
0.518788
0.518788
0.518788
0.518788
0.518788
0.518788
0.518788
0.518788
0.518788
0.518788
0.518788
0.518788
0.518788
0.518788
0.518788
0.518788
0.518788
0.518788
0.518788
0.518788
0.518788
0.518788
0.518788
0.518788
0.518788
0.518788
0.518788
0.518788
0.518788
0.518788
0.518788
0.518788
0.518788
0.518788
0.518788
0.518788
0.518788
0.518788
0.518788
0.518788
0.518788
0.518788
0.518788
0.518788
0.518788
0.518786
0.518789
0.51861
0.448591
0.686212
0.999991
0.99894
0.997492
0.999101
0.997867
0.990193
0.996977
0.991073
0.952085
0.975239
0.996849
0.997583
0.995654
0.99479
0.990837
0.973416
0.987805
0.985509
0.977225
0.969382
0.968575
0.961439
0.955531
0.940881
0.946012
0.960584
0.983514
0.994304
0.99774
0.99881
0.999114
0.99892
0.996596
0.948234
0.999858
0.518788
0.518788
0.518788
0.518788
0.518788
0.518788
0.518788
0.518788
0.518788
0.518788
0.518788
0.518788
0.518788
0.518788
0.518788
0.518788
0.518788
0.518788
0.518788
0.518788
0.518788
0.518788
0.518788
0.518788
0.518788
0.518788
0.518788
0.518788
0.518788
0.518788
0.518788
0.518788
0.518788
0.518788
0.518788
0.518788
0.518788
0.518788
0.518788
0.518788
0.518788
0.518788
0.518788
0.518788
0.518788
0.518788
0.518788
0.518788
0.518788
0.518788
0.518788
0.518788
0.518788
0.518788
0.518788
0.518788
0.518785
0.518786
0.518703
0.441281
0.800035
0.999988
0.99999
0.999326
0.999049
0.998259
0.997793
0.990719
0.985584
0.993373
0.995417
0.994675
0.994169
0.997102
0.992644
0.991689
0.985799
0.974937
0.935744
0.0395331
0.766896
0.811138
0.532603
0.8799
0.951714
0.959994
0.954064
0.834547
0.991433
0.997435
0.998759
0.999113
0.998946
0.996649
0.978486
0.999857
0.518788
0.518788
0.518788
0.518788
0.518788
0.518788
0.518788
0.518788
0.518788
0.518788
0.518788
0.518788
0.518788
0.518788
0.518788
0.518788
0.518788
0.518788
0.518788
0.518788
0.518788
0.518788
0.518788
0.518788
0.518788
0.518788
0.518788
0.518788
0.518788
0.518788
0.518788
0.518788
0.518788
0.518788
0.518788
0.518788
0.518788
0.518788
0.518788
0.518788
0.518788
0.518788
0.518788
0.518788
0.518788
0.518788
0.518788
0.518788
0.518788
0.518788
0.518788
0.518788
0.518788
0.518788
0.518788
0.518788
0.518784
0.518786
0.514961
0.400451
0.892721
0.999304
0.999993
0.999138
0.99927
0.96404
0.997469
0.993926
0.98619
0.989176
0.971215
0.991374
0.997571
0.995892
0.963488
0.984122
0.981016
0.327715
0.961264
0.88867
0.926847
0.963867
0.964776
0.967678
0.976195
0.979744
0.978328
0.942379
0.989214
0.997195
0.998682
0.999083
0.998958
0.996724
0.985545
0.999856
0.518788
0.518788
0.518788
0.518788
0.518788
0.518788
0.518788
0.518788
0.518788
0.518788
0.518788
0.518788
0.518788
0.518788
0.518788
0.518788
0.518788
0.518788
0.518788
0.518788
0.518788
0.518788
0.518788
0.518788
0.518788
0.518788
0.518788
0.518788
0.518788
0.518788
0.518788
0.518788
0.518788
0.518788
0.518788
0.518788
0.518788
0.518788
0.518788
0.518788
0.518788
0.518788
0.518788
0.518788
0.518788
0.518788
0.518788
0.518788
0.518788
0.518788
0.518788
0.518788
0.518788
0.518788
0.518788
0.518788
0.518783
0.518609
0.500998
0.462214
0.792398
0.0193313
0.999991
0.999989
0.983165
0.992473
0.995475
0.9965
0.992751
0.988173
0.984831
0.962877
0.996014
0.997365
0.986431
0.441459
0.984298
0.983559
0.982169
0.979081
0.976995
0.976891
0.975241
0.974455
0.975818
0.976217
0.975864
0.96349
0.989167
0.997339
0.998686
0.999051
0.99892
0.996522
0.991749
0.999855
0.518788
0.518788
0.518788
0.518788
0.518788
0.518788
0.518788
0.518788
0.518788
0.518788
0.518788
0.518788
0.518788
0.518788
0.518788
0.518788
0.518788
0.518788
0.518788
0.518788
0.518788
0.518788
0.518788
0.518788
0.518788
0.518788
0.518788
0.518788
0.518788
0.518788
0.518788
0.518788
0.518788
0.518788
0.518788
0.518788
0.518788
0.518788
0.518788
0.518788
0.518788
0.518788
0.518788
0.518788
0.518788
0.518788
0.518788
0.518788
0.518788
0.518788
0.518788
0.518788
0.518788
0.518788
0.518788
0.518788
0.518788
0.51682
0.469704
0.478027
0.796085
0.996206
0.999991
0.999982
0.997657
0.986302
0.991049
0.986751
0.995546
0.995796
0.992728
0.986112
0.963213
0.978971
0.98468
0.946962
0.95719
0.96829
0.968938
0.961207
0.876994
0.141793
0.70037
0.824075
0.872078
0.897273
0.865446
0.613686
0.979347
0.995042
0.998143
0.999026
0.999259
0.998675
0.928778
0.999858
0.518788
0.518788
0.518788
0.518788
0.518788
0.518788
0.518788
0.518788
0.518788
0.518788
0.518788
0.518788
0.518788
0.518788
0.518788
0.518788
0.518788
0.518788
0.518788
0.518788
0.518788
0.518788
0.518788
0.518788
0.518788
0.518788
0.518788
0.518788
0.518788
0.518788
0.518788
0.518788
0.518788
0.518788
0.518788
0.518788
0.518788
0.518788
0.518788
0.518788
0.518788
0.518788
0.518788
0.518788
0.518788
0.518788
0.518788
0.518788
0.518788
0.518788
0.518788
0.518788
0.518788
0.518788
0.518788
0.518788
0.518786
0.518752
0.519163
0.468154
0.846824
0.999772
0.999993
0.999417
0.998853
0.997019
0.950937
0.935719
0.98682
0.982857
0.964307
0.957733
0.991796
0.992284
0.982668
0.963133
0.981403
0.974536
0.969097
0.96508
0.966623
0.963489
0.964048
0.965177
0.962436
0.960099
0.963346
0.97544
0.98923
0.996
0.998294
0.999064
0.999274
0.998734
0.988591
0.999859
0.518788
0.518788
0.518788
0.518788
0.518788
0.518788
0.518788
0.518788
0.518788
0.518788
0.518788
0.518788
0.518788
0.518788
0.518788
0.518788
0.518788
0.518788
0.518788
0.518788
0.518788
0.518788
0.518788
0.518788
0.518788
0.518788
0.518788
0.518788
0.518788
0.518788
0.518788
0.518788
0.518788
0.518788
0.518788
0.518788
0.518788
0.518788
0.518788
0.518788
0.518788
0.518788
0.518788
0.518788
0.518788
0.518788
0.518788
0.518788
0.518788
0.518788
0.518788
0.518788
0.518788
0.518788
0.518788
0.518788
0.518788
0.518785
0.529749
0.443497
0.618063
0.999996
0.999818
0.999972
0.999239
0.99654
0.997002
0.998713
0.99751
0.956783
0.0322025
0.989726
0.994043
0.992742
0.98309
0.933609
0.967006
0.986969
0.984614
0.963717
5.95158e-08
0.84765
0.834687
0.77914
0.767904
0.924704
0.933054
0.854863
0.974492
0.994679
0.998112
0.999025
0.999255
0.998641
0.935974
0.999857
0.518788
0.518788
0.518788
0.518788
0.518788
0.518788
0.518788
0.518788
0.518788
0.518788
0.518788
0.518788
0.518788
0.518788
0.518788
0.518788
0.518788
0.518788
0.518788
0.518788
0.518788
0.518788
0.518788
0.518788
0.518788
0.518788
0.518788
0.518788
0.518788
0.518788
0.518788
0.518788
0.518788
0.518788
0.518788
0.518788
0.518788
0.518788
0.518788
0.518788
0.518788
0.518788
0.518788
0.518788
0.518788
0.518788
0.518788
0.518788
0.518788
0.518788
0.518788
0.518788
0.518788
0.518788
0.518788
0.518788
0.518787
0.518789
0.517603
0.497401
0.281351
8.83699e-10
0.999636
0.999948
0.999976
0.999989
0.999988
0.999987
0.999984
0.99999
0.999578
0.999675
0.999662
0.999437
0.99908
0.997968
0.962656
0.992898
0.979705
0.859016
0.995672
0.997161
0.986411
0.745869
0.99727
0.894687
0.63646
0.917379
0.980841
0.994208
0.997885
0.998981
0.999302
0.998932
0.988802
0.999859
0.518788
0.518788
0.518788
0.518788
0.518788
0.518788
0.518788
0.518788
0.518788
0.518788
0.518788
0.518788
0.518788
0.518788
0.518788
0.518788
0.518788
0.518788
0.518788
0.518788
0.518788
0.518788
0.518788
0.518788
0.518788
0.518788
0.518788
0.518788
0.518788
0.518788
0.518788
0.518788
0.518788
0.518788
0.518788
0.518788
0.518788
0.518788
0.518788
0.518788
0.518788
0.518788
0.518788
0.518788
0.518788
0.518788
0.518788
0.518788
0.518788
0.518788
0.518788
0.518788
0.518788
0.518788
0.518788
0.518788
0.518789
0.518752
0.518469
0.450281
0.851418
0.000712009
0.00430662
0.00318739
0.932514
0.983205
0.951102
1.09302e-05
0.000587918
0.122393
2.13212e-05
0.716252
0.929222
0.876698
0.772248
0.98203
0.987703
0.0010207
0.999109
0.999362
0.998516
0.999962
0.999994
0.999984
0.995224
0.999978
0.998254
0.999243
0.999113
0.99923
0.99681
0.998559
0.999147
0.998851
0.927146
0.999856
0.518788
0.518788
0.518788
0.518788
0.518788
0.518788
0.518788
0.518788
0.518788
0.518788
0.518788
0.518788
0.518788
0.518788
0.518788
0.518788
0.518788
0.518788
0.518788
0.518788
0.518788
0.518788
0.518788
0.518788
0.518788
0.518788
0.518788
0.518788
0.518788
0.518788
0.518788
0.518788
0.518788
0.518788
0.518788
0.518788
0.518788
0.518788
0.518788
0.518788
0.518788
0.518788
0.518788
0.518788
0.518788
0.518788
0.518788
0.518788
0.518788
0.518788
0.518788
0.518788
0.518788
0.518788
0.518788
0.518789
0.518788
0.518783
0.518789
0.382777
4.47144e-09
0.146081
0.0983933
0.0136291
0.322802
0.000605723
0.266422
0.000582213
0.0156866
0.384933
0.476889
0.0624763
0.00159806
5.54395e-07
0.54938
0.489651
0.107294
6.92209e-06
3.44533e-05
0.146405
0.146446
0.146447
0.14644
0.893795
0.492715
0.977945
0.909468
0.997256
0.998665
0.999983
0.999993
0.999013
0.999784
0.999785
0.999912
0.999946
0.518788
0.518788
0.518788
0.518788
0.518788
0.518788
0.518788
0.518788
0.518788
0.518788
0.518788
0.518788
0.518788
0.518788
0.518788
0.518788
0.518788
0.518788
0.518788
0.518788
0.518788
0.518788
0.518788
0.518788
0.518788
0.518788
0.518788
0.518788
0.518788
0.518788
0.518788
0.518788
0.518788
0.518788
0.518788
0.518788
0.518788
0.518788
0.518788
0.518788
0.518788
0.518788
0.518788
0.518788
0.518788
0.518788
0.518788
0.518788
0.518788
0.518788
0.518788
0.518788
0.518788
0.518788
0.518788
0.518787
0.518787
0.518711
0.500823
0.3739
0.845597
0.484546
0.000425247
0.447067
0.633879
0.164192
0.598678
0.231608
0.52774
0.808373
0.492013
0.495048
0.471938
0.205284
0.830261
0.44214
0.623252
0.579103
0.609158
0.258675
0.473257
0.11143
0.805549
0.0861297
0.520335
0.478143
0.478427
0.510809
0.685201
0.00782097
0.069184
0.00434601
0.862041
0.00422741
0.00114475
0.999857
0.518788
0.518788
0.518788
0.518788
0.518788
0.518788
0.518788
0.518788
0.518788
0.518788
0.518788
0.518788
0.518788
0.518788
0.518788
0.518788
0.518788
0.518788
0.518788
0.518788
0.518788
0.518788
0.518788
0.518788
0.518788
0.518788
0.518788
0.518788
0.518788
0.518788
0.518788
0.518788
0.518788
0.518788
0.518788
0.518788
0.518788
0.518788
0.518788
0.518788
0.518788
0.518788
0.518788
0.518788
0.518788
0.518788
0.518788
0.518788
0.518788
0.518788
0.518788
0.518788
0.518788
0.518788
0.518788
0.518788
0.518766
0.518745
0.516023
0.358458
0.787276
0.0143007
2.35819e-05
0.32892
0.291233
0.570597
0.778555
0.138847
0.305151
0.00140651
0.14207
0.774614
0.425715
0.495337
0.509701
0.541019
0.581423
0.519226
0.683181
0.547583
0.732634
0.506011
0.488514
0.49124
0.674452
0.441061
0.000429814
0.443324
0.513798
0.601788
0.663484
0.742908
0.673515
0.000150714
0.597129
2.08075e-05
0.518788
0.518788
0.518788
0.518788
0.518788
0.518788
0.518788
0.518788
0.518788
0.518788
0.518788
0.518788
0.518788
0.518788
0.518788
0.518788
0.518788
0.518788
0.518788
0.518788
0.518788
0.518788
0.518788
0.518788
0.518788
0.518788
0.518788
0.518788
0.518788
0.518788
0.518788
0.518788
0.518788
0.518788
0.518788
0.518788
0.518788
0.518788
0.518788
0.518788
0.518788
0.518788
0.518788
0.518788
0.518788
0.518788
0.518788
0.518788
0.518788
0.518788
0.518788
0.518788
0.518788
0.518788
0.518788
0.518788
0.518787
0.518774
0.516622
0.436935
2.22359e-07
0.0114111
0.14542
0.000904712
0.678647
1.14592e-05
0.149578
0.104433
0.00696457
0.0363293
0.818487
0.737273
0.352255
0.14551
0.0681014
0.0407249
0.728816
1.31549e-08
0.143097
0.456033
1.08901e-06
0.0554753
0.203982
0.68046
0.648826
0.863778
0.834406
0.760683
0.104719
0.0135283
0.068392
4.00362e-08
0.144352
0.910112
0.934566
0.0166198
0.518788
0.518788
0.518788
0.518788
0.518788
0.518788
0.518788
0.518788
0.518788
0.518788
0.518788
0.518788
0.518788
0.518788
0.518788
0.518788
0.518788
0.518788
0.518788
0.518788
0.518788
0.518788
0.518788
0.518788
0.518788
0.518788
0.518788
0.518788
0.518788
0.518788
0.518788
0.518788
0.518788
0.518788
0.518788
0.518788
0.518788
0.518788
0.518788
0.518788
0.518788
0.518788
0.518788
0.518788
0.518788
0.518788
0.518788
0.518788
0.518788
0.518788
0.518788
0.518788
0.518788
0.518788
0.518788
0.518788
0.518788
0.518782
0.518751
0.432592
0.975191
0.994948
0.956495
0.999402
0.999535
0.998859
0.999205
0.999016
0.999052
0.998429
0.998092
0.99822
0.996705
0.996261
0.984339
0.992593
0.997425
0.998903
0.993701
0.998648
0.997213
0.678299
0.996045
0.998953
0.999327
0.999547
0.999659
0.999947
0.99999
0.999994
0.99402
0.999307
0.999734
0.999817
0.999891
0.999944
0.518788
0.518788
0.518788
0.518788
0.518788
0.518788
0.518788
0.518788
0.518788
0.518788
0.518788
0.518788
0.518788
0.518788
0.518788
0.518788
0.518788
0.518788
0.518788
0.518788
0.518788
0.518788
0.518788
0.518788
0.518788
0.518788
0.518788
0.518788
0.518788
0.518788
0.518788
0.518788
0.518788
0.518788
0.518788
0.518788
0.518788
0.518788
0.518788
0.518788
0.518788
0.518788
0.518788
0.518788
0.518788
0.518788
0.518788
0.518788
0.518788
0.518788
0.518788
0.518788
0.518788
0.518788
0.518788
0.518788
0.518787
0.518784
0.541309
0.405573
0.613347
0.999992
0.999821
0.998789
0.999805
0.999707
0.999739
0.999706
0.999587
0.999592
0.999357
0.998857
0.994922
0.998233
0.992889
0.994513
0.994852
0.986355
0.92861
0.983563
0.956614
0.984133
0.991884
1.43828e-06
0.99514
0.996826
0.994518
0.995002
0.997397
0.99771
0.998854
0.999172
0.999037
0.997488
0.982283
0.999857
0.518788
0.518788
0.518788
0.518788
0.518788
0.518788
0.518788
0.518788
0.518788
0.518788
0.518788
0.518788
0.518788
0.518788
0.518788
0.518788
0.518788
0.518788
0.518788
0.518788
0.518788
0.518788
0.518788
0.518788
0.518788
0.518788
0.518788
0.518788
0.518788
0.518788
0.518788
0.518788
0.518788
0.518788
0.518788
0.518788
0.518788
0.518788
0.518788
0.518788
0.518788
0.518788
0.518788
0.518788
0.518788
0.518788
0.518788
0.518788
0.518788
0.518788
0.518788
0.518788
0.518788
0.518788
0.518788
0.518788
0.518787
0.518786
0.529155
0.461598
0.223754
1.60718e-07
0.996589
0.998924
0.983866
0.969083
0.997734
0.936913
0.833001
0.967748
0.987398
0.984015
0.983628
0.994835
0.988802
0.990404
0.992136
0.989915
0.983827
0.956131
0.830047
0.116664
0.190744
0.145729
0.57528
0.0759896
0.918762
0.979463
0.994152
0.997777
0.998848
0.9992
0.99912
0.998186
0.995571
0.999862
0.518788
0.518788
0.518788
0.518788
0.518788
0.518788
0.518788
0.518788
0.518788
0.518788
0.518788
0.518788
0.518788
0.518788
0.518788
0.518788
0.518788
0.518788
0.518788
0.518788
0.518788
0.518788
0.518788
0.518788
0.518788
0.518788
0.518788
0.518788
0.518788
0.518788
0.518788
0.518788
0.518788
0.518788
0.518788
0.518788
0.518788
0.518788
0.518788
0.518788
0.518788
0.518788
0.518788
0.518788
0.518788
0.518788
0.518788
0.518788
0.518788
0.518788
0.518788
0.518788
0.518788
0.518788
0.518788
0.518788
0.518786
0.518785
0.518736
0.422354
0.7694
0.999962
0.999278
0.997603
0.966432
0.997376
0.99849
0.994146
0.994646
0.99086
0.0320429
0.991305
0.99273
0.988759
0.995911
0.987907
0.803734
0.954873
0.988363
0.991066
0.990483
0.991354
0.990597
0.992952
0.989885
0.989242
0.990359
0.992816
0.99607
0.998094
0.998945
0.999246
0.99918
0.998172
0.995747
0.999863
0.518788
0.518788
0.518788
0.518788
0.518788
0.518788
0.518788
0.518788
0.518788
0.518788
0.518788
0.518788
0.518788
0.518788
0.518788
0.518788
0.518788
0.518788
0.518788
0.518788
0.518788
0.518788
0.518788
0.518788
0.518788
0.518788
0.518788
0.518788
0.518788
0.518788
0.518788
0.518788
0.518788
0.518788
0.518788
0.518788
0.518788
0.518788
0.518788
0.518788
0.518788
0.518788
0.518788
0.518788
0.518788
0.518788
0.518788
0.518788
0.518788
0.518788
0.518788
0.518788
0.518788
0.518788
0.518788
0.518788
0.518786
0.518756
0.517446
0.470438
0.521945
0.999978
0.999536
0.999076
0.998593
0.997529
0.892247
0.996209
0.994119
0.993211
0.994546
0.989973
0.991944
0.9838
0.996072
0.992241
0.982558
0.924435
0.896552
0.966924
0.975638
0.974632
0.973771
0.971979
0.968801
0.970826
0.976252
0.986177
0.994548
0.997752
0.998828
0.999184
0.999107
0.997973
0.993217
0.99986
0.518788
0.518788
0.518788
0.518788
0.518788
0.518788
0.518788
0.518788
0.518788
0.518788
0.518788
0.518788
0.518788
0.518788
0.518788
0.518788
0.518788
0.518788
0.518788
0.518788
0.518788
0.518788
0.518788
0.518788
0.518788
0.518788
0.518788
0.518788
0.518788
0.518788
0.518788
0.518788
0.518788
0.518788
0.518788
0.518788
0.518788
0.518788
0.518788
0.518788
0.518788
0.518788
0.518788
0.518788
0.518788
0.518788
0.518788
0.518788
0.518788
0.518788
0.518788
0.518788
0.518788
0.518788
0.518788
0.518788
0.518785
0.518235
0.480434
0.617642
0.41765
0.998647
0.999992
0.99923
0.999286
0.996513
0.994173
0.997365
0.995345
0.975594
0.65338
0.96414
0.994534
0.997382
0.996729
0.989506
0.963702
0.97789
0.979057
0.985156
0.987239
0.987885
0.987794
0.987836
0.987166
0.986555
0.987872
0.991428
0.995729
0.998041
0.998924
0.999234
0.99916
0.998187
0.995751
0.999862
0.518788
0.518788
0.518788
0.518788
0.518788
0.518788
0.518788
0.518788
0.518788
0.518788
0.518788
0.518788
0.518788
0.518788
0.518788
0.518788
0.518788
0.518788
0.518788
0.518788
0.518788
0.518788
0.518788
0.518788
0.518788
0.518788
0.518788
0.518788
0.518788
0.518788
0.518788
0.518788
0.518788
0.518788
0.518788
0.518788
0.518788
0.518788
0.518788
0.518788
0.518788
0.518788
0.518788
0.518788
0.518788
0.518788
0.518788
0.518788
0.518788
0.518788
0.518788
0.518788
0.518788
0.518788
0.518788
0.518788
0.518785
0.518573
0.509514
0.403749
0.80037
0.848117
0.999989
0.999992
0.979351
0.99683
0.996479
0.996474
0.996362
0.993506
0.839251
0.987717
0.991524
0.99597
0.997572
0.994382
0.943145
0.936885
0.963299
0.967997
0.967979
0.954443
0.949054
0.943411
0.934649
0.937522
0.94929
0.976636
0.993864
0.997763
0.998817
0.99914
0.999039
0.997597
0.978072
0.999858
0.518788
0.518788
0.518788
0.518788
0.518788
0.518788
0.518788
0.518788
0.518788
0.518788
0.518788
0.518788
0.518788
0.518788
0.518788
0.518788
0.518788
0.518788
0.518788
0.518788
0.518788
0.518788
0.518788
0.518788
0.518788
0.518788
0.518788
0.518788
0.518788
0.518788
0.518788
0.518788
0.518788
0.518788
0.518788
0.518788
0.518788
0.518788
0.518788
0.518788
0.518788
0.518788
0.518788
0.518788
0.518788
0.518788
0.518788
0.518788
0.518788
0.518788
0.518788
0.518788
0.518788
0.518788
0.518788
0.518788
0.518786
0.51878
0.518766
0.375167
0.83025
0.995215
0.999991
0.999992
0.998505
0.993914
0.992917
0.990044
0.98924
0.996272
0.996198
0.981612
0.976276
0.943117
0.968189
0.905429
0.85323
0.841585
0.593709
0.667628
0.948905
0.953718
0.963073
0.967696
0.968085
0.96544
0.966991
0.974607
0.988255
0.995761
0.998264
0.999069
0.99928
0.998718
0.986255
0.999859
0.518788
0.518788
0.518788
0.518788
0.518788
0.518788
0.518788
0.518788
0.518788
0.518788
0.518788
0.518788
0.518788
0.518788
0.518788
0.518788
0.518788
0.518788
0.518788
0.518788
0.518788
0.518788
0.518788
0.518788
0.518788
0.518788
0.518788
0.518788
0.518788
0.518788
0.518788
0.518788
0.518788
0.518788
0.518788
0.518788
0.518788
0.518788
0.518788
0.518788
0.518788
0.518788
0.518788
0.518788
0.518788
0.518788
0.518788
0.518788
0.518788
0.518788
0.518788
0.518788
0.518788
0.518788
0.518788
0.518788
0.518787
0.51879
0.515727
0.452741
0.793965