/*--------------------------------*- C++ -*----------------------------------*\
| =========                 |                                                 |
| \\      /  F ield         | OpenFOAM: The Open Source CFD Toolbox           |
|  \\    /   O peration     | Version:  2.3.0                                 |
|   \\  /    A nd           | Web:      www.OpenFOAM.org                      |
|    \\/     M anipulation  |                                                 |
\*---------------------------------------------------------------------------*/
FoamFile
{
    version     2.0;
    format      ascii;
    class       volScalarField;
    location    "4";
    object      w2;
}
// * * * * * * * * * * * * * * * * * * * * * * * * * * * * * * * * * * * * * //

dimensions      [0 0 0 0 0 0 0];

internalField   nonuniform List<scalar> 
6144
(
0.452838
0.452838
0.452838
0.452838
0.452838
0.452838
0.452838
0.452838
0.452838
0.452838
0.452838
0.452838
0.452838
0.452838
0.452838
0.452838
0.452838
0.452838
0.452838
0.452838
0.452838
0.452838
0.452838
0.452838
0.452838
0.452838
0.452838
0.452838
0.452838
0.452838
0.452838
0.452838
0.452838
0.452838
0.452838
0.452838
0.452838
0.452838
0.452838
0.452838
0.452838
0.452838
0.452838
0.452838
0.452838
0.452838
0.452838
0.452838
0.452838
0.452838
0.452838
0.452838
0.452838
0.452838
0.452838
0.452838
0.452841
0.453053
0.489571
0.470809
0.182444
0.00130674
6.2583e-06
0.00116567
0.00450681
0.0204548
0.0259141
0.0085839
0.00631374
0.00591913
0.0069365
0.00696338
0.00823882
0.0124874
0.023749
0.0734333
0.044437
0.0279992
0.0233782
0.0219523
0.0269539
0.0311351
0.0309517
0.0343317
0.0371596
0.0364808
0.0363751
0.050764
0.0334874
0.00511102
0.00180628
0.000936226
0.000713324
0.00131576
0.0278256
0.000133495
0.452838
0.452838
0.452838
0.452838
0.452838
0.452838
0.452838
0.452838
0.452838
0.452838
0.452838
0.452838
0.452838
0.452838
0.452838
0.452838
0.452838
0.452838
0.452838
0.452838
0.452838
0.452838
0.452838
0.452838
0.452838
0.452838
0.452838
0.452838
0.452838
0.452838
0.452838
0.452838
0.452838
0.452838
0.452838
0.452838
0.452838
0.452838
0.452838
0.452838
0.452838
0.452838
0.452838
0.452838
0.452838
0.452838
0.452838
0.452838
0.452838
0.452838
0.452838
0.452838
0.452838
0.452838
0.452838
0.452838
0.452844
0.453573
0.488168
0.491638
0.169459
0.000355722
6.15082e-06
0.000657433
0.000889809
0.0164409
0.00805471
0.225062
0.00570444
0.00680908
0.0119129
0.121803
0.00592652
0.00706659
0.120885
0.0248041
0.0303666
0.0380943
0.0396431
0.0485263
0.119948
0.277031
0.319056
0.176969
0.234031
0.921707
0.379911
0.0628838
0.0141901
0.00421605
0.00168021
0.000899688
0.000685325
0.00119316
0.0220308
0.00013186
0.452838
0.452838
0.452838
0.452838
0.452838
0.452838
0.452838
0.452838
0.452838
0.452838
0.452838
0.452838
0.452838
0.452838
0.452838
0.452838
0.452838
0.452838
0.452838
0.452838
0.452838
0.452838
0.452838
0.452838
0.452838
0.452838
0.452838
0.452838
0.452838
0.452838
0.452838
0.452838
0.452838
0.452838
0.452838
0.452838
0.452838
0.452838
0.452838
0.452838
0.452838
0.452838
0.452838
0.452838
0.452838
0.452838
0.452838
0.452838
0.452838
0.452838
0.452838
0.452838
0.452838
0.452838
0.452838
0.452838
0.45284
0.452765
0.468874
0.414446
0.760856
6.91213e-06
6.97776e-06
0.000876582
0.00140551
0.00159814
0.00210279
0.00333465
0.00273462
0.00374804
0.00759441
0.0104259
0.0520304
0.016933
0.0131738
0.0149693
0.0422751
0.0640754
0.0243269
0.0171286
0.0135851
0.0149714
0.0218114
0.050425
0.225939
0.974588
0.00317976
0.118138
0.0178787
0.0047403
0.00179919
0.000936364
0.000700856
0.00125391
0.0404546
0.000133354
0.452838
0.452838
0.452838
0.452838
0.452838
0.452838
0.452838
0.452838
0.452838
0.452838
0.452838
0.452838
0.452838
0.452838
0.452838
0.452838
0.452838
0.452838
0.452838
0.452838
0.452838
0.452838
0.452838
0.452838
0.452838
0.452838
0.452838
0.452838
0.452838
0.452838
0.452838
0.452838
0.452838
0.452838
0.452838
0.452838
0.452838
0.452838
0.452838
0.452838
0.452838
0.452838
0.452838
0.452838
0.452838
0.452838
0.452838
0.452838
0.452838
0.452838
0.452838
0.452838
0.452838
0.452838
0.452838
0.452838
0.452839
0.452839
0.453431
0.507429
0.861213
0.000184139
8.25775e-06
0.000173633
0.00122048
0.00130006
0.000749603
0.0056853
0.00677154
0.000566519
0.000628524
0.000738267
0.000954915
0.00167642
0.00293609
0.0223286
0.0282718
0.0282161
0.116818
0.0182814
0.0136437
0.0232529
0.0656343
0.11969
0.057301
0.0338814
0.0264591
0.0468228
0.0515396
0.00622616
0.00193783
0.000952185
0.000672683
0.00106325
0.0176136
0.00013179
0.452838
0.452838
0.452838
0.452838
0.452838
0.452838
0.452838
0.452838
0.452838
0.452838
0.452838
0.452838
0.452838
0.452838
0.452838
0.452838
0.452838
0.452838
0.452838
0.452838
0.452838
0.452838
0.452838
0.452838
0.452838
0.452838
0.452838
0.452838
0.452838
0.452838
0.452838
0.452838
0.452838
0.452838
0.452838
0.452838
0.452838
0.452838
0.452838
0.452838
0.452838
0.452838
0.452838
0.452838
0.452838
0.452838
0.452838
0.452838
0.452838
0.452838
0.452838
0.452838
0.452838
0.452838
0.452838
0.452838
0.452839
0.452836
0.452825
0.480136
0.109483
0.00235897
0.00104991
0.00728464
0.000319992
0.0167206
0.0175148
0.00145701
0.00294592
0.00330723
0.00583105
0.00255065
0.000308646
5.42193e-05
1.1689e-05
0.000388808
2.1431e-05
1.62932e-05
7.85011e-06
0.00196939
0.00730035
0.0026126
0.00256555
0.00346442
0.044002
0.00377884
0.00291876
0.0146339
0.0128244
0.0113293
0.0022878
0.00100119
0.000679979
0.00115451
0.0397637
0.000132831
0.452838
0.452838
0.452838
0.452838
0.452838
0.452838
0.452838
0.452838
0.452838
0.452838
0.452838
0.452838
0.452838
0.452838
0.452838
0.452838
0.452838
0.452838
0.452838
0.452838
0.452838
0.452838
0.452838
0.452838
0.452838
0.452838
0.452838
0.452838
0.452838
0.452838
0.452838
0.452838
0.452838
0.452838
0.452838
0.452838
0.452838
0.452838
0.452838
0.452838
0.452838
0.452838
0.452838
0.452838
0.452838
0.452838
0.452838
0.452838
0.452838
0.452838
0.452838
0.452838
0.452838
0.452838
0.452838
0.452838
0.452839
0.452839
0.452846
0.5103
0.0646607
0.903307
0.133081
0.103698
0.0400972
0.155139
0.0207773
0.0194914
0.0208887
0.0227626
0.0219275
0.0654187
0.0242478
0.0275718
0.288974
0.877559
0.167373
0.25352
0.105913
0.0458698
0.0738936
0.00806352
0.989598
0.163922
0.992069
0.000399675
3.51244e-05
1.30176e-05
1.22082e-05
0.000944839
0.000665191
0.00222634
0.00097396
0.000528575
0.000426548
0.000133401
0.452838
0.452838
0.452838
0.452838
0.452838
0.452838
0.452838
0.452838
0.452838
0.452838
0.452838
0.452838
0.452838
0.452838
0.452838
0.452838
0.452838
0.452838
0.452838
0.452838
0.452838
0.452838
0.452838
0.452838
0.452838
0.452838
0.452838
0.452838
0.452838
0.452838
0.452838
0.452838
0.452838
0.452838
0.452838
0.452838
0.452838
0.452838
0.452838
0.452838
0.452838
0.452838
0.452838
0.452838
0.452838
0.452838
0.452838
0.452838
0.452838
0.452838
0.452838
0.452838
0.452838
0.452838
0.452838
0.452839
0.452837
0.452884
0.451271
0.520889
0.0841108
0.908347
0.994486
0.560831
0.501386
0.555342
9.20537e-05
0.705964
0.985562
0.973872
0.990612
0.855522
0.998574
1
0.785599
0.800407
0.912828
0.0350548
0.246816
0.49496
0.34736
0.897902
0.685408
5.34886e-07
0.990357
0.147537
0.959547
0.859924
0.955953
0.0055505
0.183867
0.998717
0.000887288
6.35886e-05
1.86609e-05
4.67356e-06
0.452838
0.452838
0.452838
0.452838
0.452838
0.452838
0.452838
0.452838
0.452838
0.452838
0.452838
0.452838
0.452838
0.452838
0.452838
0.452838
0.452838
0.452838
0.452838
0.452838
0.452838
0.452838
0.452838
0.452838
0.452838
0.452838
0.452838
0.452838
0.452838
0.452838
0.452838
0.452838
0.452838
0.452838
0.452838
0.452838
0.452838
0.452838
0.452838
0.452838
0.452838
0.452838
0.452838
0.452838
0.452838
0.452838
0.452838
0.452838
0.452838
0.452838
0.452838
0.452838
0.452838
0.452838
0.452838
0.452838
0.452839
0.452728
0.454599
0.498078
0.170951
0.999888
0.999916
0.41176
0.980603
0.74434
0.692563
0.99981
0.996286
0.195844
0.216196
0.946929
0.999742
0.934157
0.999886
0.388383
0.685716
0.948896
0.996362
0.688192
0.952797
0.670383
0.730328
0.996431
0.994571
0.575192
0.983185
0.762333
0.515763
0.252173
0.0206904
0.000413634
0.998696
0.227589
0.777599
0.992037
0.452838
0.452838
0.452838
0.452838
0.452838
0.452838
0.452838
0.452838
0.452838
0.452838
0.452838
0.452838
0.452838
0.452838
0.452838
0.452838
0.452838
0.452838
0.452838
0.452838
0.452838
0.452838
0.452838
0.452838
0.452838
0.452838
0.452838
0.452838
0.452838
0.452838
0.452838
0.452838
0.452838
0.452838
0.452838
0.452838
0.452838
0.452838
0.452838
0.452838
0.452838
0.452838
0.452838
0.452838
0.452838
0.452838
0.452838
0.452838
0.452838
0.452838
0.452838
0.452838
0.452838
0.452838
0.452838
0.452839
0.452824
0.45226
0.453732
0.507334
0.999546
2.94872e-05
0.960116
2.75172e-06
0.995145
0.3672
0.830105
0.204544
0.620994
0.822993
0.0458341
0.773257
0.913503
0.873524
0.85543
0.14127
0.295831
0.0582834
0.0802946
0.0557126
0.0326497
0.136835
0.0434731
0.0852818
0.0309387
0.0729408
0.0200568
0.0209056
0.15995
0.0467853
0.0107605
0.918589
0.00155635
5.40365e-05
1.32298e-05
8.63236e-06
0.452838
0.452838
0.452838
0.452838
0.452838
0.452838
0.452838
0.452838
0.452838
0.452838
0.452838
0.452838
0.452838
0.452838
0.452838
0.452838
0.452838
0.452838
0.452838
0.452838
0.452838
0.452838
0.452838
0.452838
0.452838
0.452838
0.452838
0.452838
0.452838
0.452838
0.452838
0.452838
0.452838
0.452838
0.452838
0.452838
0.452838
0.452838
0.452838
0.452838
0.452838
0.452838
0.452838
0.452838
0.452838
0.452838
0.452838
0.452838
0.452838
0.452838
0.452838
0.452838
0.452838
0.452838
0.452838
0.452838
0.45284
0.45277
0.453916
0.520365
0.0092685
0.999983
0.532524
0.294062
0.00326688
0.000160751
3.13102e-05
1.01409e-05
1.32162e-05
0.00120382
0.000438207
0.00105504
0.0276241
0.474163
0.000868558
0.000469105
0.00043221
0.000693457
0.000601382
0.000664031
0.00062066
0.000819944
0.000515698
0.000416342
0.000325483
0.000332479
0.00032256
0.000315449
0.000289816
0.000428908
0.000396964
0.000327669
0.00028473
0.000248464
0.000221919
0.000135622
0.452838
0.452838
0.452838
0.452838
0.452838
0.452838
0.452838
0.452838
0.452838
0.452838
0.452838
0.452838
0.452838
0.452838
0.452838
0.452838
0.452838
0.452838
0.452838
0.452838
0.452838
0.452838
0.452838
0.452838
0.452838
0.452838
0.452838
0.452838
0.452838
0.452838
0.452838
0.452838
0.452838
0.452838
0.452838
0.452838
0.452838
0.452838
0.452838
0.452838
0.452838
0.452838
0.452838
0.452838
0.452838
0.452838
0.452838
0.452838
0.452838
0.452838
0.452838
0.452838
0.452838
0.452838
0.452838
0.452838
0.452839
0.449818
0.575446
0.506464
0.146988
7.93323e-06
7.35441e-06
0.000663121
0.000602737
0.00107324
0.000743382
0.00106064
0.0411873
0.0211891
0.0102153
0.0153688
0.204463
0.0104502
0.0198029
0.0215987
0.202599
0.366628
0.191167
0.214005
0.194676
0.00600778
0.165324
0.0868957
0.118537
0.332928
0.0371768
0.0109199
0.00456909
0.0022756
0.00139094
0.00110845
0.00133526
0.00556195
0.00648151
0.000134737
0.452838
0.452838
0.452838
0.452838
0.452838
0.452838
0.452838
0.452838
0.452838
0.452838
0.452838
0.452838
0.452838
0.452838
0.452838
0.452838
0.452838
0.452838
0.452838
0.452838
0.452838
0.452838
0.452838
0.452838
0.452838
0.452838
0.452838
0.452838
0.452838
0.452838
0.452838
0.452838
0.452838
0.452838
0.452838
0.452838
0.452838
0.452838
0.452838
0.452838
0.452838
0.452838
0.452838
0.452838
0.452838
0.452838
0.452838
0.452838
0.452838
0.452838
0.452838
0.452838
0.452838
0.452838
0.452838
0.452838
0.452839
0.45287
0.449047
0.44438
0.454134
4.60191e-06
0.0189276
0.0030233
0.00183861
0.00153293
0.00351426
0.00724226
0.00278448
0.00286633
0.0025536
0.0023456
0.00250771
0.00510952
0.0371692
0.0196735
0.0514364
0.034673
0.026208
0.0234945
0.0265141
0.0266512
0.0224362
0.0177064
0.0235199
0.0303855
0.0837299
0.0222715
0.00553865
0.00220888
0.00119098
0.000892861
0.00105509
0.00291567
0.0598056
0.000131984
0.452838
0.452838
0.452838
0.452838
0.452838
0.452838
0.452838
0.452838
0.452838
0.452838
0.452838
0.452838
0.452838
0.452838
0.452838
0.452838
0.452838
0.452838
0.452838
0.452838
0.452838
0.452838
0.452838
0.452838
0.452838
0.452838
0.452838
0.452838
0.452838
0.452838
0.452838
0.452838
0.452838
0.452838
0.452838
0.452838
0.452838
0.452838
0.452838
0.452838
0.452838
0.452838
0.452838
0.452838
0.452838
0.452838
0.452838
0.452838
0.452838
0.452838
0.452838
0.452838
0.452838
0.452838
0.452838
0.452838
0.45284
0.452838
0.452994
0.514709
0.312204
8.61079e-06
0.000988607
0.00233419
0.000836744
0.00198594
0.00913094
0.00281416
0.00826844
0.0449751
0.023243
0.00293817
0.00225068
0.00404535
0.00484836
0.00854006
0.0247313
0.011351
0.0134903
0.0216189
0.0284884
0.0292542
0.0356469
0.0414485
0.0551722
0.0502642
0.0366955
0.0153476
0.00530272
0.00210353
0.00110813
0.000824627
0.00100516
0.00316897
0.0480655
0.000132443
0.452838
0.452838
0.452838
0.452838
0.452838
0.452838
0.452838
0.452838
0.452838
0.452838
0.452838
0.452838
0.452838
0.452838
0.452838
0.452838
0.452838
0.452838
0.452838
0.452838
0.452838
0.452838
0.452838
0.452838
0.452838
0.452838
0.452838
0.452838
0.452838
0.452838
0.452838
0.452838
0.452838
0.452838
0.452838
0.452838
0.452838
0.452838
0.452838
0.452838
0.452838
0.452838
0.452838
0.452838
0.452838
0.452838
0.452838
0.452838
0.452838
0.452838
0.452838
0.452838
0.452838
0.452838
0.452838
0.452838
0.452841
0.45284
0.45291
0.523079
0.18646
1.11065e-05
9.04541e-06
0.00062788
0.000884887
0.00161915
0.00205284
0.00864834
0.0134164
0.0061528
0.0042735
0.0049568
0.00542688
0.00269805
0.00685143
0.00773718
0.0132196
0.0233528
0.0610992
0.94189
0.217746
0.176044
0.440439
0.111306
0.0448108
0.0372565
0.0427794
0.154253
0.00797517
0.00238744
0.00115531
0.000825578
0.000980918
0.00311915
0.0200339
0.00013338
0.452838
0.452838
0.452838
0.452838
0.452838
0.452838
0.452838
0.452838
0.452838
0.452838
0.452838
0.452838
0.452838
0.452838
0.452838
0.452838
0.452838
0.452838
0.452838
0.452838
0.452838
0.452838
0.452838
0.452838
0.452838
0.452838
0.452838
0.452838
0.452838
0.452838
0.452838
0.452838
0.452838
0.452838
0.452838
0.452838
0.452838
0.452838
0.452838
0.452838
0.452838
0.452838
0.452838
0.452838
0.452838
0.452838
0.452838
0.452838
0.452838
0.452838
0.452838
0.452838
0.452838
0.452838
0.452838
0.452838
0.452842
0.45284
0.456332
0.561896
0.0839099
0.000674716
6.43702e-06
0.000802521
0.00067914
0.0336841
0.00234247
0.00566362
0.0128372
0.0100546
0.0267453
0.00806102
0.00226162
0.00382438
0.033979
0.0147801
0.0176711
0.617972
0.036623
0.103592
0.0681075
0.0337206
0.032784
0.0301826
0.0221618
0.0188613
0.0201733
0.053647
0.0100401
0.00261173
0.00122677
0.000853201
0.000970423
0.00304952
0.0134546
0.000133998
0.452838
0.452838
0.452838
0.452838
0.452838
0.452838
0.452838
0.452838
0.452838
0.452838
0.452838
0.452838
0.452838
0.452838
0.452838
0.452838
0.452838
0.452838
0.452838
0.452838
0.452838
0.452838
0.452838
0.452838
0.452838
0.452838
0.452838
0.452838
0.452838
0.452838
0.452838
0.452838
0.452838
0.452838
0.452838
0.452838
0.452838
0.452838
0.452838
0.452838
0.452838
0.452838
0.452838
0.452838
0.452838
0.452838
0.452838
0.452838
0.452838
0.452838
0.452838
0.452838
0.452838
0.452838
0.452838
0.452838
0.452843
0.452992
0.46814
0.5049
0.193611
0.978786
8.56993e-06
1.02468e-05
0.0156457
0.00702957
0.00421185
0.00325834
0.00675511
0.0109973
0.0140472
0.0347323
0.00371102
0.0024513
0.0126381
0.518407
0.0146173
0.0152916
0.0166137
0.0195038
0.0214465
0.0215115
0.0230309
0.0237791
0.0225415
0.0221418
0.0224642
0.0339751
0.0100878
0.00247693
0.00122352
0.00088355
0.00100585
0.00323785
0.00767629
0.000134918
0.452838
0.452838
0.452838
0.452838
0.452838
0.452838
0.452838
0.452838
0.452838
0.452838
0.452838
0.452838
0.452838
0.452838
0.452838
0.452838
0.452838
0.452838
0.452838
0.452838
0.452838
0.452838
0.452838
0.452838
0.452838
0.452838
0.452838
0.452838
0.452838
0.452838
0.452838
0.452838
0.452838
0.452838
0.452838
0.452838
0.452838
0.452838
0.452838
0.452838
0.452838
0.452838
0.452838
0.452838
0.452838
0.452838
0.452838
0.452838
0.452838
0.452838
0.452838
0.452838
0.452838
0.452838
0.452838
0.452838
0.452839
0.454508
0.493479
0.493417
0.189
0.00353238
8.3692e-06
1.70438e-05
0.00217633
0.0127819
0.00838163
0.0122582
0.00413485
0.00391053
0.00677938
0.0129402
0.0341531
0.0195774
0.0142608
0.0496595
0.0396516
0.0295119
0.0290063
0.0364113
0.11426
0.00226483
0.278963
0.163307
0.119003
0.0957527
0.123673
0.367054
0.0192282
0.00461584
0.00172906
0.000906755
0.000689901
0.00123382
0.0662998
0.000132519
0.452838
0.452838
0.452838
0.452838
0.452838
0.452838
0.452838
0.452838
0.452838
0.452838
0.452838
0.452838
0.452838
0.452838
0.452838
0.452838
0.452838
0.452838
0.452838
0.452838
0.452838
0.452838
0.452838
0.452838
0.452838
0.452838
0.452838
0.452838
0.452838
0.452838
0.452838
0.452838
0.452838
0.452838
0.452838
0.452838
0.452838
0.452838
0.452838
0.452838
0.452838
0.452838
0.452838
0.452838
0.452838
0.452838
0.452838
0.452838
0.452838
0.452838
0.452838
0.452838
0.452838
0.452838
0.452838
0.452838
0.45284
0.452869
0.452516
0.498721
0.143797
0.000212151
6.74665e-06
0.000542932
0.00106745
0.00278272
0.045426
0.0606398
0.0121887
0.0160029
0.0330304
0.0394229
0.00764397
0.00718324
0.0161355
0.0343217
0.0173069
0.0237041
0.0287695
0.0325086
0.0310842
0.0339817
0.0334771
0.0323982
0.0349965
0.0371057
0.0341238
0.0228608
0.0100265
0.00372392
0.00158823
0.000870966
0.000676293
0.00117894
0.0106222
0.000131232
0.452838
0.452838
0.452838
0.452838
0.452838
0.452838
0.452838
0.452838
0.452838
0.452838
0.452838
0.452838
0.452838
0.452838
0.452838
0.452838
0.452838
0.452838
0.452838
0.452838
0.452838
0.452838
0.452838
0.452838
0.452838
0.452838
0.452838
0.452838
0.452838
0.452838
0.452838
0.452838
0.452838
0.452838
0.452838
0.452838
0.452838
0.452838
0.452838
0.452838
0.452838
0.452838
0.452838
0.452838
0.452838
0.452838
0.452838
0.452838
0.452838
0.452838
0.452838
0.452838
0.452838
0.452838
0.452838
0.452838
0.452839
0.452841
0.443113
0.521091
0.354543
3.30548e-06
0.000169842
2.6016e-05
0.000708126
0.00322184
0.00279239
0.00119837
0.00231765
0.0401452
0.963933
0.00917787
0.00554814
0.00675355
0.0157508
0.0615963
0.0308315
0.0121301
0.0143381
0.0336245
1
0.139039
0.154295
0.205355
0.216214
0.070076
0.0623179
0.135183
0.0237515
0.00495287
0.00175795
0.000907939
0.000693819
0.00126548
0.0595946
0.000132776
0.452838
0.452838
0.452838
0.452838
0.452838
0.452838
0.452838
0.452838
0.452838
0.452838
0.452838
0.452838
0.452838
0.452838
0.452838
0.452838
0.452838
0.452838
0.452838
0.452838
0.452838
0.452838
0.452838
0.452838
0.452838
0.452838
0.452838
0.452838
0.452838
0.452838
0.452838
0.452838
0.452838
0.452838
0.452838
0.452838
0.452838
0.452838
0.452838
0.452838
0.452838
0.452838
0.452838
0.452838
0.452838
0.452838
0.452838
0.452838
0.452838
0.452838
0.452838
0.452838
0.452838
0.452838
0.452838
0.452838
0.452839
0.452838
0.453321
0.475231
0.655151
0.999937
0.000336279
4.81222e-05
2.24496e-05
1.00969e-05
1.09362e-05
1.1647e-05
1.48144e-05
8.91089e-06
0.000384668
0.000302116
0.000314986
0.00052469
0.000856484
0.00189152
0.0347927
0.00661296
0.0188942
0.131369
0.00402914
0.00264295
0.0125822
0.238249
0.00253611
0.0987366
0.336452
0.0769871
0.0178221
0.00539098
0.0019687
0.000948747
0.000650164
0.000994369
0.010435
0.000131307
0.452838
0.452838
0.452838
0.452838
0.452838
0.452838
0.452838
0.452838
0.452838
0.452838
0.452838
0.452838
0.452838
0.452838
0.452838
0.452838
0.452838
0.452838
0.452838
0.452838
0.452838
0.452838
0.452838
0.452838
0.452838
0.452838
0.452838
0.452838
0.452838
0.452838
0.452838
0.452838
0.452838
0.452838
0.452838
0.452838
0.452838
0.452838
0.452838
0.452838
0.452838
0.452838
0.452838
0.452838
0.452838
0.452838
0.452838
0.452838
0.452838
0.452838
0.452838
0.452838
0.452838
0.452838
0.452838
0.452838
0.452838
0.452864
0.453067
0.51568
0.140731
0.972419
0.882794
0.826832
0.0670747
0.0157085
0.0455079
0.980551
0.992573
0.872451
0.845744
0.274282
0.0656246
0.11965
0.192042
0.0178367
0.0111203
0.998373
0.000880891
0.000636458
0.00147786
3.79381e-05
6.39362e-06
1.46168e-05
0.00445642
2.00678e-05
0.00162892
0.000704123
0.000825477
0.000717202
0.00296932
0.00134134
0.000793734
0.00106935
0.0677902
0.000133854
0.452838
0.452838
0.452838
0.452838
0.452838
0.452838
0.452838
0.452838
0.452838
0.452838
0.452838
0.452838
0.452838
0.452838
0.452838
0.452838
0.452838
0.452838
0.452838
0.452838
0.452838
0.452838
0.452838
0.452838
0.452838
0.452838
0.452838
0.452838
0.452838
0.452838
0.452838
0.452838
0.452838
0.452838
0.452838
0.452838
0.452838
0.452838
0.452838
0.452838
0.452838
0.452838
0.452838
0.452838
0.452838
0.452838
0.452838
0.452838
0.452838
0.452838
0.452838
0.452838
0.452838
0.452838
0.452838
0.452838
0.452838
0.452843
0.452838
0.571522
0.943818
0.000166052
0.053767
0.961751
0.665933
0.987366
0.668943
0.85458
0.980412
0.56937
0.523108
0.877003
0.961631
0.999999
0.425811
0.449411
0.813073
0.000341379
0.999959
0.853595
4.98293e-08
1.16173e-09
7.40057e-06
0.0884419
0.489252
0.0220541
0.0824228
0.00186182
0.00126523
1.59581e-05
6.26201e-06
0.000912555
0.000200979
0.000193509
8.17997e-05
5.02223e-05
0.452838
0.452838
0.452838
0.452838
0.452838
0.452838
0.452838
0.452838
0.452838
0.452838
0.452838
0.452838
0.452838
0.452838
0.452838
0.452838
0.452838
0.452838
0.452838
0.452838
0.452838
0.452838
0.452838
0.452838
0.452838
0.452838
0.452838
0.452838
0.452838
0.452838
0.452838
0.452838
0.452838
0.452838
0.452838
0.452838
0.452838
0.452838
0.452838
0.452838
0.452838
0.452838
0.452838
0.452838
0.452838
0.452838
0.452838
0.452838
0.452838
0.452838
0.452838
0.452838
0.452838
0.452838
0.452838
0.452839
0.45284
0.452917
0.468525
0.577985
0.140565
0.515453
0.976097
0.517221
0.359889
0.753372
0.396666
0.696939
0.46035
0.191396
0.483588
0.475807
0.498264
0.729269
0.169739
0.522658
0.359761
0.397912
0.371526
0.676718
0.484643
0.765159
0.194451
0.809623
0.464776
0.489845
0.48957
0.466006
0.307802
0.956375
0.865201
0.992898
0.137959
0.993766
0.959488
0.000127374
0.452838
0.452838
0.452838
0.452838
0.452838
0.452838
0.452838
0.452838
0.452838
0.452838
0.452838
0.452838
0.452838
0.452838
0.452838
0.452838
0.452838
0.452838
0.452838
0.452838
0.452838
0.452838
0.452838
0.452838
0.452838
0.452838
0.452838
0.452838
0.452838
0.452838
0.452838
0.452838
0.452838
0.452838
0.452838
0.452838
0.452838
0.452838
0.452838
0.452838
0.452838
0.452838
0.452838
0.452838
0.452838
0.452838
0.452838
0.452838
0.452838
0.452838
0.452838
0.452838
0.452838
0.452838
0.452839
0.452839
0.452858
0.452878
0.455358
0.587575
0.21252
0.938309
0.999821
0.625955
0.657434
0.399096
0.221272
0.785779
0.666422
0.946889
0.802157
0.225074
0.546553
0.472582
0.460057
0.426877
0.402507
0.450253
0.305173
0.426517
0.263673
0.466322
0.477107
0.476627
0.31605
0.523688
0.929175
0.510766
0.456104
0.378003
0.32897
0.256384
0.317332
0.924885
0.366189
0.999975
0.452838
0.452838
0.452838
0.452838
0.452838
0.452838
0.452838
0.452838
0.452838
0.452838
0.452838
0.452838
0.452838
0.452838
0.452838
0.452838
0.452838
0.452838
0.452838
0.452838
0.452838
0.452838
0.452838
0.452838
0.452838
0.452838
0.452838
0.452838
0.452838
0.452838
0.452838
0.452838
0.452838
0.452838
0.452838
0.452838
0.452838
0.452838
0.452838
0.452838
0.452838
0.452838
0.452838
0.452838
0.452838
0.452838
0.452838
0.452838
0.452838
0.452838
0.452838
0.452838
0.452838
0.452838
0.452839
0.452838
0.452839
0.452851
0.454699
0.526694
0.977467
0.980313
0.000160327
0.998929
0.321344
0.958086
0.717095
0.763521
0.990499
0.105
0.181498
0.261825
0.582268
0.000315516
0.0639605
0.710898
0.268898
0.828467
0.00189203
0.509579
0.999999
0.917965
0.737518
0.297912
0.330775
0.13145
0.153048
0.199639
0.785297
0.933586
0.823431
0.894154
0.855648
0.0898883
0.0654344
0.983143
0.452838
0.452838
0.452838
0.452838
0.452838
0.452838
0.452838
0.452838
0.452838
0.452838
0.452838
0.452838
0.452838
0.452838
0.452838
0.452838
0.452838
0.452838
0.452838
0.452838
0.452838
0.452838
0.452838
0.452838
0.452838
0.452838
0.452838
0.452838
0.452838
0.452838
0.452838
0.452838
0.452838
0.452838
0.452838
0.452838
0.452838
0.452838
0.452838
0.452838
0.452838
0.452838
0.452838
0.452838
0.452838
0.452838
0.452838
0.452838
0.452838
0.452838
0.452838
0.452838
0.452838
0.452838
0.452838
0.452838
0.452839
0.452844
0.452869
0.531092
0.024752
0.00487997
0.0425829
0.000545977
0.00043284
0.00105395
0.00073955
0.000925485
0.000882061
0.0014879
0.00176561
0.00163591
0.00305239
0.00346282
0.014515
0.00709375
0.00239585
0.00105929
0.00626923
0.00131378
0.00259524
0.293139
0.00361778
0.000974299
0.000626136
0.000421999
0.000315859
4.92388e-05
9.69177e-06
5.67807e-06
0.00573256
0.000642471
0.000247913
0.000170402
0.000101384
5.24132e-05
0.452838
0.452838
0.452838
0.452838
0.452838
0.452838
0.452838
0.452838
0.452838
0.452838
0.452838
0.452838
0.452838
0.452838
0.452838
0.452838
0.452838
0.452838
0.452838
0.452838
0.452838
0.452838
0.452838
0.452838
0.452838
0.452838
0.452838
0.452838
0.452838
0.452838
0.452838
0.452838
0.452838
0.452838
0.452838
0.452838
0.452838
0.452838
0.452838
0.452838
0.452838
0.452838
0.452838
0.452838
0.452838
0.452838
0.452838
0.452838
0.452838
0.452838
0.452838
0.452838
0.452838
0.452838
0.452838
0.452838
0.452839
0.452842
0.432433
0.552048
0.374709
7.11443e-06
0.000166777
0.00112758
0.000181339
0.000272595
0.000242762
0.000274081
0.000385525
0.000379745
0.000598441
0.00106409
0.00472685
0.00164481
0.00663724
0.00511103
0.0048156
0.0127053
0.0665153
0.0152787
0.040178
0.0155201
0.00758491
0.995144
0.0044638
0.00316077
0.00510076
0.00465776
0.00242087
0.00213148
0.00106661
0.000770796
0.000896264
0.00233816
0.0164911
0.000132798
0.452838
0.452838
0.452838
0.452838
0.452838
0.452838
0.452838
0.452838
0.452838
0.452838
0.452838
0.452838
0.452838
0.452838
0.452838
0.452838
0.452838
0.452838
0.452838
0.452838
0.452838
0.452838
0.452838
0.452838
0.452838
0.452838
0.452838
0.452838
0.452838
0.452838
0.452838
0.452838
0.452838
0.452838
0.452838
0.452838
0.452838
0.452838
0.452838
0.452838
0.452838
0.452838
0.452838
0.452838
0.452838
0.452838
0.452838
0.452838
0.452838
0.452838
0.452838
0.452838
0.452838
0.452838
0.452838
0.452838
0.45284
0.452841
0.443329
0.507425
0.685508
0.999998
0.00317489
0.00100139
0.0150297
0.0287875
0.00210662
0.0586451
0.156138
0.0300275
0.0117294
0.014871
0.0152715
0.00480648
0.0104292
0.00892312
0.0073176
0.00939148
0.0150841
0.0406489
0.159497
0.184486
0.756928
0.000327284
0.391986
0.663932
0.0773145
0.019083
0.00544382
0.00206979
0.00107237
0.000745028
0.000819462
0.00168851
0.00412317
0.000128214
0.452838
0.452838
0.452838
0.452838
0.452838
0.452838
0.452838
0.452838
0.452838
0.452838
0.452838
0.452838
0.452838
0.452838
0.452838
0.452838
0.452838
0.452838
0.452838
0.452838
0.452838
0.452838
0.452838
0.452838
0.452838
0.452838
0.452838
0.452838
0.452838
0.452838
0.452838
0.452838
0.452838
0.452838
0.452838
0.452838
0.452838
0.452838
0.452838
0.452838
0.452838
0.452838
0.452838
0.452838
0.452838
0.452838
0.452838
0.452838
0.452838
0.452838
0.452838
0.452838
0.452838
0.452838
0.452838
0.452838
0.45284
0.452841
0.452889
0.540165
0.22824
3.77048e-05
0.00067222
0.0022319
0.0313147
0.00244251
0.00140529
0.00544853
0.00498564
0.00850267
0.869409
0.00819393
0.00676078
0.0104367
0.00380792
0.0112285
0.182651
0.0421512
0.0108398
0.00824711
0.00881638
0.00830077
0.00875318
0.00704805
0.00941719
0.0100006
0.0089692
0.0066876
0.00365835
0.00177457
0.000982351
0.000701577
0.000763156
0.00170145
0.00395746
0.000127965
0.452838
0.452838
0.452838
0.452838
0.452838
0.452838
0.452838
0.452838
0.452838
0.452838
0.452838
0.452838
0.452838
0.452838
0.452838
0.452838
0.452838
0.452838
0.452838
0.452838
0.452838
0.452838
0.452838
0.452838
0.452838
0.452838
0.452838
0.452838
0.452838
0.452838
0.452838
0.452838
0.452838
0.452838
0.452838
0.452838
0.452838
0.452838
0.452838
0.452838
0.452838
0.452838
0.452838
0.452838
0.452838
0.452838
0.452838
0.452838
0.452838
0.452838
0.452838
0.452838
0.452838
0.452838
0.452838
0.452838
0.452841
0.452866
0.454077
0.49709
0.446707
2.07537e-05
0.000431821
0.000860078
0.00131009
0.00230013
0.100046
0.00351802
0.00547399
0.00632161
0.00521638
0.00934777
0.00750244
0.0151181
0.00365562
0.00722977
0.0162361
0.0704593
0.0960534
0.0308215
0.022631
0.0235999
0.0243849
0.0261163
0.0290443
0.027152
0.022104
0.0128444
0.00507544
0.00209231
0.00109069
0.000759976
0.000831346
0.0018874
0.00631456
0.000130266
0.452838
0.452838
0.452838
0.452838
0.452838
0.452838
0.452838
0.452838
0.452838
0.452838
0.452838
0.452838
0.452838
0.452838
0.452838
0.452838
0.452838
0.452838
0.452838
0.452838
0.452838
0.452838
0.452838
0.452838
0.452838
0.452838
0.452838
0.452838
0.452838
0.452838
0.452838
0.452838
0.452838
0.452838
0.452838
0.452838
0.452838
0.452838
0.452838
0.452838
0.452838
0.452838
0.452838
0.452838
0.452838
0.452838
0.452838
0.452838
0.452838
0.452838
0.452838
0.452838
0.452838
0.452838
0.452838
0.452838
0.452841
0.453348
0.488365
0.37028
0.53971
0.00126232
7.438e-06
0.000717314
0.00066451
0.00325013
0.00541856
0.00245353
0.00433986
0.0226914
0.321346
0.0333116
0.00508741
0.00243394
0.00304442
0.00976839
0.0338205
0.0205643
0.0194853
0.0138299
0.0118817
0.0112799
0.0113644
0.0113129
0.0119478
0.0125055
0.0112904
0.00798186
0.00397612
0.00182409
0.0010019
0.000713511
0.000781994
0.00168736
0.00395569
0.000128545
0.452838
0.452838
0.452838
0.452838
0.452838
0.452838
0.452838
0.452838
0.452838
0.452838
0.452838
0.452838
0.452838
0.452838
0.452838
0.452838
0.452838
0.452838
0.452838
0.452838
0.452838
0.452838
0.452838
0.452838
0.452838
0.452838
0.452838
0.452838
0.452838
0.452838
0.452838
0.452838
0.452838
0.452838
0.452838
0.452838
0.452838
0.452838
0.452838
0.452838
0.452838
0.452838
0.452838
0.452838
0.452838
0.452838
0.452838
0.452838
0.452838
0.452838
0.452838
0.452838
0.452838
0.452838
0.452838
0.452838
0.452841
0.452979
0.458984
0.555066
0.196862
0.146158
1.01539e-05
7.65055e-06
0.019272
0.00293582
0.00327685
0.00328009
0.0033863
0.00606556
0.155344
0.0112117
0.00788471
0.0037531
0.00226159
0.00526527
0.0529142
0.0587536
0.0341313
0.029345
0.0298118
0.0423971
0.0474766
0.0526944
0.0607619
0.0581919
0.0471954
0.0217615
0.00571224
0.00208239
0.00110136
0.000801033
0.000894879
0.00223736
0.0204317
0.000131809
0.452838
0.452838
0.452838
0.452838
0.452838