/*--------------------------------*- C++ -*----------------------------------*\
| =========                 |                                                 |
| \\      /  F ield         | OpenFOAM: The Open Source CFD Toolbox           |
|  \\    /   O peration     | Version:  2.3.0                                 |
|   \\  /    A nd           | Web:      www.OpenFOAM.org                      |
|    \\/     M anipulation  |                                                 |
\*---------------------------------------------------------------------------*/
FoamFile
{
    version     2.0;
    format      ascii;
    class       volScalarField;
    location    "10";
    object      alpha.water;
}
// * * * * * * * * * * * * * * * * * * * * * * * * * * * * * * * * * * * * * //

dimensions      [0 0 0 0 0 0 0];

internalField   nonuniform List<scalar> 
6144
(
9.18253e-06
9.48019e-06
9.83377e-06
9.91114e-06
9.97891e-06
9.99704e-06
9.99478e-06
9.99863e-06
9.99613e-06
9.99858e-06
9.99644e-06
9.9988e-06
9.9968e-06
9.99888e-06
9.99724e-06
9.99904e-06
9.99807e-06
9.99917e-06
9.99875e-06
9.99924e-06
9.9992e-06
9.99943e-06
9.99951e-06
9.99966e-06
9.99971e-06
9.99977e-06
9.99982e-06
9.99986e-06
9.9999e-06
9.99998e-06
9.99995e-06
1.00002e-05
9.99984e-06
1.00006e-05
9.9994e-06
1.00013e-05
9.99894e-06
1.00023e-05
9.99856e-06
1.00034e-05
9.99788e-06
1.00046e-05
9.99811e-06
1.00051e-05
9.99832e-06
1.00076e-05
9.99626e-06
1.00117e-05
9.99336e-06
1.00087e-05
1.00168e-05
1.05005e-05
1.3677e-05
3.99202e-05
7.41419e-05
0.000146575
0.000238955
0.000689954
0.00112941
0.0456858
0.951849
0.999696
0.999999
0.999999
0.999999
0.999999
0.999999
0.999999
0.999999
0.999999
0.999999
0.999999
0.999999
0.999999
0.999999
0.999999
0.999999
0.999999
0.999999
0.999999
0.999999
0.999999
0.999999
0.999999
0.999999
0.999999
0.999999
0.999999
0.999999
1
1
1
1
1
1
1
8.93891e-06
9.15647e-06
9.42571e-06
9.589e-06
9.84041e-06
9.93156e-06
9.9614e-06
9.98416e-06
9.99037e-06
9.99505e-06
9.9954e-06
9.99737e-06
9.99592e-06
9.99738e-06
9.99593e-06
9.99743e-06
9.99634e-06
9.99743e-06
9.99683e-06
9.99733e-06
9.99721e-06
9.99742e-06
9.99745e-06
9.99759e-06
9.99761e-06
9.99767e-06
9.9977e-06
9.99773e-06
9.99777e-06
9.99783e-06
9.99785e-06
9.99807e-06
9.99785e-06
9.99841e-06
9.99746e-06
9.99917e-06
9.99701e-06
1.00003e-05
9.99662e-06
1.00016e-05
9.99617e-06
1.00031e-05
9.99664e-06
1.0003e-05
9.99778e-06
1.00043e-05
9.99611e-06
1.00087e-05
9.99336e-06
1.00182e-05
1.00074e-05
1.02471e-05
1.164e-05
3.62e-05
7.8347e-05
0.000131399
0.000264424
0.000830978
0.00142063
0.0391705
0.954043
0.999901
0.999999
0.999999
0.999999
0.999999
0.999999
0.999999
0.999999
0.999999
0.999999
0.999999
0.999999
0.999999
0.999999
0.999999
0.999999
0.999999
0.999999
0.999999
0.999999
0.999999
0.999999
0.999999
0.999999
0.999999
0.999999
0.999999
0.999999
1
1
1
1
1
1
1
8.94257e-06
9.09222e-06
9.21149e-06
9.38554e-06
9.59217e-06
9.75882e-06
9.82515e-06
9.91239e-06
9.94964e-06
9.98003e-06
9.9941e-06
9.99817e-06
9.99751e-06
9.99854e-06
9.99746e-06
9.99843e-06
9.99744e-06
9.99837e-06
9.99764e-06
9.99836e-06
9.99792e-06
9.99833e-06
9.99817e-06
9.9983e-06
9.99828e-06
9.99832e-06
9.99833e-06
9.99836e-06
9.99839e-06
9.99848e-06
9.99852e-06
9.99865e-06
9.99851e-06
9.9988e-06
9.99837e-06
9.99936e-06
9.99816e-06
1.00003e-05
9.99793e-06
1.00017e-05
9.99731e-06
1.00043e-05
9.99712e-06
1.00058e-05
9.99778e-06
1.00055e-05
9.9961e-06
1.00108e-05
9.99336e-06
1.0043e-05
1.00096e-05
1.04798e-05
1.15135e-05
2.11535e-05
8.94203e-05
0.00014438
0.000198185
0.000664588
0.00076806
0.0415722
0.942721
0.999998
0.999999
0.999999
0.999999
0.999999
0.999999
0.999999
0.999999
0.999999
0.999999
0.999999
0.999999
0.999999
0.999999
0.999999
0.999999
0.999999
0.999999
0.999999
0.999999
0.999999
0.999999
0.999999
0.999999
0.999999
0.999999
0.999999
0.999999
0.999999
1
1
1
1
1
1
8.96363e-06
9.10604e-06
9.20398e-06
9.35333e-06
9.50478e-06
9.64823e-06
9.71966e-06
9.82658e-06
9.87149e-06
9.93669e-06
9.97869e-06
9.99584e-06
9.99786e-06
9.99881e-06
9.99811e-06
9.99872e-06
9.99813e-06
9.99866e-06
9.99829e-06
9.99873e-06
9.99846e-06
9.99875e-06
9.99862e-06
9.99875e-06
9.99871e-06
9.99876e-06
9.99877e-06
9.99879e-06
9.99886e-06
9.99897e-06
9.99899e-06
9.99903e-06
9.99898e-06
9.99907e-06
9.99892e-06
9.99953e-06
9.9988e-06
1.00003e-05
9.9988e-06
1.00014e-05
9.99878e-06
1.00033e-05
9.99897e-06
1.00054e-05
9.9999e-06
1.00055e-05
9.99527e-06
1.00118e-05
9.99336e-06
1.00747e-05
1.02473e-05
1.167e-05
1.36529e-05
3.25618e-05
0.000104898
0.000144448
0.000138009
0.000533346
0.000355615
0.0370804
0.928118
0.999999
0.999999
0.999999
0.999999
0.999999
0.999999
0.999999
0.999999
0.999999
0.999999
0.999999
0.999999
0.999999
0.999999
0.999999
0.999999
0.999999
0.999999
0.999999
0.999999
0.999999
0.999999
0.999999
0.999999
0.999999
0.999999
0.999999
0.999999
0.999999
0.999999
1
1
1
1
1
8.94098e-06
9.05027e-06
9.19894e-06
9.30353e-06
9.45259e-06
9.5675e-06
9.7401e-06
9.84252e-06
9.87208e-06
9.92419e-06
9.96517e-06
9.99171e-06
9.99737e-06
9.99858e-06
9.99821e-06
9.99865e-06
9.99832e-06
9.99867e-06
9.99849e-06
9.99884e-06
9.99869e-06
9.99891e-06
9.99884e-06
9.99897e-06
9.99896e-06
9.999e-06
9.99903e-06
9.99906e-06
9.99915e-06
9.99927e-06
9.99928e-06
9.99928e-06
9.99927e-06
9.99927e-06
9.99924e-06
9.99974e-06
9.99913e-06
1.00004e-05
9.99917e-06
1.00014e-05
9.99918e-06
1.00029e-05
9.99925e-06
1.00045e-05
9.99945e-06
1.00055e-05
9.99511e-06
1.001e-05
9.99339e-06
1.01298e-05
1.09924e-05
1.35485e-05
1.69595e-05
3.23267e-05
8.21699e-05
0.000148686
0.000181742
0.000404666
0.000185263
0.0927708
0.974744
0.999962
0.999987
0.999996
0.999997
0.999997
0.999997
0.999997
0.999997
0.999996
0.999995
0.999994
0.999994
0.999994
0.999994
0.999993
0.999993
0.999996
0.999998
0.999999
0.999999
0.999999
0.999999
0.999999
0.999999
0.999999
0.999999
0.999999
0.999999
0.999999
0.999999
1
1
1
1
1
8.85426e-06
8.87803e-06
9.11767e-06
9.12703e-06
9.18949e-06
9.26225e-06
9.58233e-06
9.77209e-06
9.90086e-06
9.95441e-06
9.96969e-06
9.98969e-06
9.99491e-06
9.99658e-06
9.99656e-06
9.99656e-06
9.99656e-06
9.99656e-06
9.99656e-06
9.99671e-06
9.99691e-06
9.99693e-06
9.99693e-06
9.99698e-06
9.99699e-06
9.997e-06
9.997e-06
9.997e-06
9.99701e-06
9.99701e-06
9.99701e-06
9.99701e-06
9.99701e-06
9.99702e-06
9.99702e-06
9.99702e-06
9.99702e-06
9.99721e-06
9.99715e-06
9.99805e-06
9.9974e-06
9.99937e-06
9.99784e-06
1.00007e-05
9.99799e-06
1.00023e-05
9.99538e-06
1.00065e-05
9.99846e-06
1.02837e-05
1.17556e-05
1.50934e-05
2.02493e-05
3.47783e-05
0.000107993
0.000175455
0.000169284
0.000281098
6.08045e-05
0.199643
0.985558
0.998794
0.999028
0.999298
0.9994
0.999465
0.99944
0.999337
0.999307
0.999337
0.999344
0.999136
0.998959
0.999081
0.999138
0.999119
0.999142
0.999304
0.999494
0.999655
0.999773
0.999863
0.999922
0.99996
0.999977
0.999991
0.999998
0.999999
1
1
1
1
1
1
1
1
8.72703e-06
8.6263e-06
8.98175e-06
8.96837e-06
9.00063e-06
9.03506e-06
9.1825e-06
9.39835e-06
9.73313e-06
9.91466e-06
9.97049e-06
9.99303e-06
9.99672e-06
9.99883e-06
9.99745e-06
9.99832e-06
9.99759e-06
9.9984e-06
9.99813e-06
9.99866e-06
9.99852e-06
9.99889e-06
9.99885e-06
9.99909e-06
9.99915e-06
9.99932e-06
9.99943e-06
9.99956e-06
9.99967e-06
9.99981e-06
9.99995e-06
1.00001e-05
1.00002e-05
1.00006e-05
1.00004e-05
1.00011e-05
1.00008e-05
1.00018e-05
1.00013e-05
1.00028e-05
1.00021e-05
1.00044e-05
1.00045e-05
1.00045e-05
1.00045e-05
1.00045e-05
1.00008e-05
1.00113e-05
1.00173e-05
1.04971e-05
1.28253e-05
1.87986e-05
2.69898e-05
3.25772e-05
8.15715e-05
0.000184159
0.000184468
0.000200902
1.00202e-05
0.394328
0.98831
0.991289
0.990555
0.990844
0.992674
0.993224
0.993101
0.992315
0.992271
0.992299
0.992108
0.991909
0.991738
0.991614
0.99129
0.991329
0.992142
0.992728
0.993373
0.99441
0.995355
0.996252
0.996832
0.997247
0.997763
0.998495
0.999214
0.999638
0.999893
0.999976
0.99999
0.999991
0.999991
0.999996
0.999999
1
8.52265e-06
8.36058e-06
8.74836e-06
8.76543e-06
8.93022e-06
8.95583e-06
8.93143e-06
9.0183e-06
9.31761e-06
9.73938e-06
9.92554e-06
9.98659e-06
9.99656e-06
9.99966e-06
9.99866e-06
9.99936e-06
9.99926e-06
1.00001e-05
1.00002e-05
1.00008e-05
1.00008e-05
1.00013e-05
1.00013e-05
1.00016e-05
1.00017e-05
1.00018e-05
1.0002e-05
1.00021e-05
1.00022e-05
1.00023e-05
1.00024e-05
1.00025e-05
1.00026e-05
1.00026e-05
1.00026e-05
1.00029e-05
1.00029e-05
1.00033e-05
1.00033e-05
1.00038e-05
1.00038e-05
1.00042e-05
1.00044e-05
1.00045e-05
1.0004e-05
1.00045e-05
9.99947e-06
1.00166e-05
1.00637e-05
1.07741e-05
1.35326e-05
2.04764e-05
3.16514e-05
4.53783e-05
5.83991e-05
0.00015386
0.000223573
0.000225577
1.00202e-05
0.468332
0.978331
0.981515
0.980364
0.979813
0.979799
0.979751
0.980743
0.981613
0.981592
0.981333
0.981489
0.981768
0.982161
0.982693
0.983406
0.984143
0.984781
0.985283
0.985775
0.986621
0.987689
0.988265
0.987757
0.987158
0.988408
0.989431
0.989839
0.991453
0.994263
0.99659
0.998096
0.999067
0.999755
1
1
0.998687
7.87223e-06
8.24566e-06
8.33483e-06
8.4102e-06
8.74183e-06
8.86688e-06
8.82213e-06
8.75792e-06
8.82368e-06
9.46418e-06
9.89948e-06
9.9882e-06
9.99247e-06
9.99394e-06
9.99323e-06
9.99455e-06
9.99474e-06
9.99598e-06
9.99601e-06
9.99678e-06
9.9968e-06
9.99726e-06
9.9973e-06
9.99759e-06
9.99765e-06
9.99778e-06
9.99785e-06
9.9979e-06
9.99791e-06
9.9979e-06
9.99788e-06
9.99788e-06
9.99782e-06
9.99791e-06
9.99773e-06
9.99808e-06
9.99778e-06
9.99839e-06
9.99796e-06
9.99883e-06
9.99831e-06
9.99937e-06
9.99838e-06
1.00001e-05
9.99789e-06
1.0001e-05
9.99695e-06
1.00112e-05
1.00442e-05
1.06016e-05
1.25911e-05
1.7745e-05
3.07385e-05
5.18481e-05
6.39676e-05
0.000110052
0.000183575
0.000222121
1.00202e-05
0.407221
0.985331
0.990586
0.991033
0.991348
0.990466
0.99051
0.992417
0.993442
0.994274
0.995276
0.996394
0.997393
0.998148
0.998694
0.999021
0.999199
0.999237
0.999252
0.999268
0.999284
0.999322
0.999354
0.999296
0.999155
0.999031
0.998933
0.998906
0.998966
0.999179
0.999411
0.999582
0.999702
0.999791
0.999847
0.999887
0.999931
7.68523e-06
8.2726e-06
8.16015e-06
8.07778e-06
8.25569e-06
8.63222e-06
8.71122e-06
8.5467e-06
8.35517e-06
9.10707e-06
9.83821e-06
9.993e-06
9.99656e-06
9.9972e-06
9.99542e-06
9.99611e-06
9.99536e-06
9.99641e-06
9.99607e-06
9.99675e-06
9.99651e-06
9.99689e-06
9.99678e-06
9.99698e-06
9.99699e-06
9.99708e-06
9.99715e-06
9.99723e-06
9.99733e-06
9.99745e-06
9.99759e-06
9.99775e-06
9.99787e-06
9.99809e-06
9.998e-06
9.99843e-06
9.99821e-06
9.99893e-06
9.99861e-06
9.99959e-06
9.99911e-06
1.00003e-05
9.99934e-06
1.00012e-05
9.99874e-06
1.00026e-05
9.99695e-06
1.00146e-05
1.0035e-05
1.05056e-05
1.21012e-05
1.64264e-05
2.69808e-05
4.49914e-05
5.48304e-05
0.000101833
0.000146737
0.000277143
3.89315e-05
0.301591
0.993399
0.998116
0.998586
0.999001
0.999135
0.999377
0.999616
0.999726
0.999813
0.999894
0.999951
0.999982
0.999993
0.999998
0.999999
0.999999
1
1
1
1
1
1
1
1
1
1
1
1
1
1
1
1
1
1
1
1
5.61807e-06
8.23424e-06
8.22791e-06
8.03679e-06
7.83521e-06
8.21063e-06
8.4385e-06
8.30437e-06
7.99639e-06
8.6552e-06
9.67281e-06
9.9733e-06
1.00008e-05
1.00024e-05
1.00002e-05
1.00005e-05
9.99944e-06
1.00003e-05
9.99965e-06
1.00002e-05
9.9999e-06
1.00003e-05
1.00002e-05
1.00005e-05
1.00005e-05
1.00007e-05
1.00007e-05
1.00009e-05
1.0001e-05
1.0001e-05
1.00011e-05
1.00011e-05
1.00012e-05
1.00014e-05
1.00013e-05
1.00017e-05
1.00014e-05
1.0002e-05
1.00016e-05
1.00027e-05
1.00024e-05
1.00038e-05
1.00031e-05
1.0005e-05
1.00026e-05
1.00065e-05
9.99929e-06
1.00193e-05
1.00271e-05
1.04216e-05
1.17179e-05
1.53971e-05
2.30041e-05
3.45225e-05
5.13725e-05
0.000123723
0.000132488
0.000398839
0.000190598
0.144322
0.988916
0.999926
0.999963
0.999986
0.999992
0.999997
0.999999
0.999999
0.999999
0.999999
0.999999
0.999999
0.999999
0.999999
0.999999
0.999999
0.999999
0.999999
0.999999
0.999999
0.999999
0.999999
0.999999
0.999999
0.999999
0.999999
0.999999
1
1
1
1
1
1
1
1
1
5.12932e-06
6.81517e-06
6.98408e-06
7.14379e-06
7.16983e-06
7.47034e-06
7.74468e-06
7.87091e-06
7.57619e-06
8.17416e-06
9.4501e-06
9.94482e-06
1.00049e-05
1.00049e-05
1.00049e-05
1.00049e-05
1.00049e-05
1.00049e-05
1.00048e-05
1.00048e-05
1.00048e-05
1.00048e-05
1.00048e-05
1.00048e-05
1.00048e-05
1.00048e-05
1.00048e-05
1.00048e-05
1.00048e-05
1.00048e-05
1.00048e-05
1.00049e-05
1.00049e-05
1.00049e-05
1.00049e-05
1.00049e-05
1.00049e-05
1.00057e-05
1.00064e-05
1.00065e-05
1.00065e-05
1.00065e-05
1.00065e-05
1.00065e-05
1.00065e-05
1.00065e-05
1.00006e-05
1.00199e-05
1.0031e-05
1.04426e-05
1.14496e-05
1.44838e-05
2.03446e-05
2.8978e-05
7.20587e-05
0.000123874
0.000122719
0.000512987
0.000318097
0.0599836
0.954755
0.999999
0.999999
0.999999
0.999999
0.999999
0.999999
0.999999
0.999999
0.999999
0.999999
0.999999
0.999999
0.999999
0.999999
0.999999
0.999999
0.999999
0.999999
0.999999
0.999999
0.999999
1
1
1
1
0.999999
1
1
1
1
1
1
1
1
1
4.66647e-06
5.69324e-06
5.76084e-06
5.959e-06
6.20461e-06
6.48785e-06
6.78644e-06
6.9573e-06
6.9684e-06
7.77636e-06
9.3017e-06
9.93425e-06
1.00025e-05
1.00043e-05
1.00042e-05
1.00044e-05
1.00044e-05
1.00045e-05
1.00045e-05
1.00045e-05
1.00045e-05
1.00045e-05
1.00044e-05
1.00044e-05
1.00044e-05
1.00044e-05
1.00043e-05
1.00043e-05
1.00043e-05
1.00043e-05
1.00042e-05
1.00042e-05
1.00042e-05
1.00042e-05
1.00041e-05
1.00042e-05
1.00041e-05
1.00047e-05
1.00052e-05
1.00054e-05
1.00054e-05
1.00056e-05
1.00053e-05
1.0006e-05
1.00049e-05
1.00065e-05
9.9999e-06
1.00187e-05
1.00432e-05
1.04874e-05
1.16337e-05
1.52548e-05
2.21627e-05
3.32155e-05
5.23462e-05
0.000113975
0.000138875
0.000634338
0.00051563
0.032998
0.951487
1
0.999999
0.999999
0.999999
0.999999
0.999999
0.999999
0.999999
0.999999
0.999999
0.999999
0.999999
0.999999
0.999999
1
1
1
1
1
1
1
1
1
1
1
1
0.999999
1
1
1
1
1
1
1
1
4.11369e-06
4.94896e-06
4.98954e-06
5.15539e-06
5.48368e-06
5.83359e-06
6.09133e-06
6.01418e-06
6.29149e-06
7.49438e-06
9.30961e-06
9.93871e-06
9.99736e-06
1.00006e-05
1.00006e-05
1.00011e-05
1.00014e-05
1.00016e-05
1.00017e-05
1.00019e-05
1.00018e-05
1.00019e-05
1.00017e-05
1.00017e-05
1.00016e-05
1.00016e-05
1.00015e-05
1.00014e-05
1.00013e-05
1.00012e-05
1.00011e-05
1.00011e-05
1.0001e-05
1.0001e-05
1.00008e-05
1.0001e-05
1.00008e-05
1.00012e-05
1.00014e-05
1.0002e-05
1.00019e-05
1.00025e-05
1.0002e-05
1.00035e-05
1.00011e-05
1.0005e-05
9.99737e-06
1.00167e-05
1.00742e-05
1.06455e-05
1.23756e-05
1.76758e-05
2.67162e-05
4.13501e-05
4.32677e-05
8.32523e-05
0.000203397
0.000763294
0.000760656
0.0410997
0.947537
0.999999
1
1
1
1
1
1
1
1
1
1
1
1
1
1
1
1
1
1
1
1
1
1
1
1
1
0.999999
1
1
1
1
1
1
1
1
3.68953e-06
4.3841e-06
4.49149e-06
4.77785e-06
5.02826e-06
5.30112e-06
5.37766e-06
5.18381e-06
5.66712e-06
7.48069e-06
9.38474e-06
9.95454e-06
9.9975e-06
9.99985e-06
9.99866e-06
9.99938e-06
9.99898e-06
9.99952e-06
9.99932e-06
9.99971e-06
9.99952e-06
9.99981e-06
9.99969e-06
9.99988e-06
9.99987e-06
9.99997e-06
1e-05
1.00001e-05
1.00002e-05
1.00003e-05
1.00004e-05
1.00005e-05
1.00006e-05
1.00008e-05
1.00008e-05
1.0001e-05
1.0001e-05
1.00014e-05
1.00015e-05
1.00024e-05
1.00024e-05
1.00032e-05
1.00026e-05
1.00043e-05
1.00017e-05
1.00061e-05
9.99795e-06
1.00169e-05
1.00671e-05
1.06694e-05
1.31698e-05
2.08778e-05
3.35788e-05
4.52139e-05
4.58687e-05
6.80301e-05
0.000313567
0.000900622
0.001471
0.0505745
0.958404
0.99994
1
1
1
1
1
1
1
1
1
1
1
1
1
1
1
1
1
1
1
1
1
1
1
1
1
0.999999
1
1
1
1
1
1
1
1
3.22241e-06
3.56556e-06
3.70425e-06
3.88283e-06
4.03803e-06
4.18495e-06
4.34576e-06
4.97442e-06
6.36073e-06
8.13819e-06
9.60306e-06
9.98477e-06
1.00047e-05
1.00059e-05
1.00047e-05
1.00056e-05
1.00051e-05
1.00056e-05
1.00055e-05
1.00057e-05
1.00057e-05
1.00057e-05
1.00057e-05
1.00058e-05
1.00058e-05
1.00059e-05
1.00059e-05
1.0006e-05
1.0006e-05
1.00061e-05
1.00061e-05
1.00062e-05
1.00063e-05
1.00064e-05
1.00064e-05
1.00067e-05
1.00067e-05
1.00072e-05
1.00072e-05
1.0008e-05
1.0008e-05
1.00094e-05
1.00098e-05
1.00098e-05
1.00098e-05
1.00097e-05
1.00046e-05
1.00159e-05
1.00244e-05
1.03501e-05
1.20565e-05
1.86597e-05
3.18421e-05
4.26248e-05
4.43421e-05
0.000121217
0.000241686
0.000825476
0.00125989
0.051602
0.952322
0.999687
0.999999
1
1
1
1
1
1
1
1
1
1
1
1
1
1
1
1
1
1
1
1
1
1
1
1
0.999999
1
1
1
1
1
1
1
1
8.86021e-06
9.05542e-06
9.34333e-06
9.47481e-06
9.67889e-06
9.77442e-06
9.90252e-06
9.97499e-06
9.99938e-06
1.00048e-05
1.00049e-05
1.00049e-05
1.00049e-05
1.00049e-05
1.00048e-05
1.0005e-05
1.0005e-05
1.0005e-05
1.0005e-05
1.0005e-05
1.0005e-05
1.0005e-05
1.0005e-05
1.0005e-05
1.0005e-05
1.0005e-05
1.0005e-05
1.0005e-05
1.0005e-05
1.0005e-05
1.0005e-05
1.0005e-05
1.0005e-05
1.00054e-05
1.00055e-05
1.00057e-05
1.00057e-05
1.00057e-05
1.00057e-05
1.00057e-05
1.00051e-05
1.00081e-05
1.00081e-05
1.00081e-05
1.00081e-05
1.00081e-05
1.00045e-05
1.0015e-05
9.99336e-06
1.00174e-05
1.00271e-05
1.0761e-05
1.53213e-05
4.02979e-05
7.0534e-05
0.000134869
0.000231835
0.00100937
0.00306621
0.0530764
0.937928
0.999458
0.999999
0.999999
0.999999
0.999999
0.999999
0.999999
0.999999
0.999999
0.999999
0.999999
0.999999
0.999999
0.999999
0.999999
0.999999
0.999999
0.999999
0.999999
0.999999
0.999999
0.999999
0.999999
0.999999
0.999999
0.999999
0.999999
0.999999
0.999999
1
1
1
1
1
1
8.68249e-06
8.69786e-06
8.68942e-06
8.68963e-06
8.76275e-06
8.86998e-06
9.14827e-06
9.47959e-06
9.79101e-06
9.94819e-06
9.99552e-06
1.00041e-05
1.00039e-05
1.00044e-05
1.00037e-05
1.00042e-05
1.00036e-05
1.00041e-05
1.00037e-05
1.0004e-05
1.00038e-05
1.00039e-05
1.00038e-05
1.00039e-05
1.00038e-05
1.00038e-05
1.00038e-05
1.00037e-05
1.00037e-05
1.00037e-05
1.00036e-05
1.00037e-05
1.00036e-05
1.00038e-05
1.00035e-05
1.00041e-05
1.00034e-05
1.00045e-05
1.00034e-05
1.00055e-05
1.00033e-05
1.00073e-05
1.00036e-05
1.00081e-05
1.00035e-05
1.00081e-05
9.99946e-06
1.00153e-05
9.99941e-06
1.01248e-05
1.02862e-05
1.04669e-05
1.3684e-05
3.99132e-05
6.97711e-05
0.00012053
0.000248147
0.000907247
0.00192644
0.0452818
0.947765
0.999866
0.999999
0.999999
0.999999
0.999999
0.999999
0.999999
0.999999
0.999999
0.999999
0.999999
0.999999
0.999999
0.999999
0.999999
0.999999
0.999999
0.999999
0.999999
0.999999
0.999999
0.999999
0.999999
0.999999
0.999999
0.999999
0.999999
0.999999
0.999999
0.999999
1
1
1
1
1
8.82708e-06
8.91486e-06
8.7525e-06
8.70185e-06
8.59899e-06
8.59794e-06
8.64002e-06
8.79103e-06
9.19119e-06
9.68107e-06
9.9248e-06
9.99779e-06
1.00046e-05
1.00047e-05
1.00046e-05
1.00047e-05
1.00046e-05
1.00047e-05
1.00046e-05
1.00046e-05
1.00046e-05
1.00046e-05
1.00046e-05
1.00046e-05
1.00046e-05
1.00046e-05
1.00046e-05
1.00046e-05
1.00045e-05
1.00045e-05
1.00044e-05
1.00044e-05
1.00044e-05
1.00044e-05
1.00044e-05
1.00045e-05
1.00045e-05
1.00047e-05
1.00047e-05
1.00055e-05
1.00047e-05
1.00071e-05
1.00047e-05
1.00081e-05
1.00045e-05
1.00081e-05
9.99686e-06
1.00224e-05
1.00565e-05
1.05649e-05
1.15424e-05
1.16562e-05
1.34104e-05
3.64191e-05
6.42061e-05
0.000134036
0.000188078
0.000674802
0.0010086
0.0366257
0.951823
0.999999
0.999999
0.999999
0.999999
0.999999
0.999999
0.999999
0.999999
0.999999
0.999999
0.999999
0.999999
0.999999
0.999999
0.999999
0.999999
0.999999
0.999999
0.999999
0.999999
0.999999
0.999999
0.999999
0.999999
0.999999
0.999999
0.999999
0.999999
0.999999
0.999999
0.999999
0.999999
1
1
1
8.84563e-06
9.10657e-06
9.10527e-06
9.14746e-06
8.95932e-06
8.7933e-06
8.64404e-06
8.64322e-06
8.7907e-06
9.31919e-06
9.77101e-06
9.96277e-06
9.99868e-06
1.00023e-05
1.00017e-05
1.00023e-05
1.00018e-05
1.0002e-05
1.00018e-05
1.00018e-05
1.00017e-05
1.00017e-05
1.00016e-05
1.00016e-05
1.00015e-05
1.00015e-05
1.00014e-05
1.00014e-05
1.00013e-05
1.00012e-05
1.00012e-05
1.00011e-05
1.00011e-05
1.00011e-05
1.0001e-05
1.00013e-05
1.00011e-05
1.00017e-05
1.00014e-05
1.00023e-05
1.00016e-05
1.00031e-05
1.00012e-05
1.00042e-05
9.99992e-06
1.00051e-05
9.99547e-06
1.00246e-05
1.01148e-05
1.08768e-05
1.24992e-05
1.41644e-05
1.51765e-05
3.40511e-05
7.63497e-05
0.000159045
0.000138009
0.000576358
0.000477318
0.034988
0.963008
0.999999
0.999997
0.999999
0.999999
0.999999
0.999999
0.999999
0.999999
0.999999
0.999999
0.999999
0.999999
0.999999
0.999999
0.999999
0.999999
0.999999
0.999999
0.999999
0.999999
0.999999
0.999999
0.999999
0.999999
0.999999
0.999999
0.999999
0.999999
0.999999
0.999999
0.999999
0.999999
0.999999
1
1
8.559e-06
9.13608e-06
9.17902e-06
9.3029e-06
9.29502e-06
9.18946e-06
8.8786e-06
8.72125e-06
8.71332e-06
9.03136e-06
9.61801e-06
9.92953e-06
9.99523e-06
1.00009e-05
1e-05
1.00007e-05
1e-05
1.00003e-05
1e-05
1.00001e-05
9.99989e-06
9.9999e-06
9.99976e-06
9.99977e-06
9.99967e-06
9.99965e-06
9.99959e-06
9.99955e-06
9.9995e-06
9.99945e-06
9.9994e-06
9.99936e-06
9.9993e-06
9.99928e-06
9.9992e-06
9.99944e-06
9.99935e-06
9.99983e-06
9.99968e-06
1.00003e-05
9.99994e-06
1.00009e-05
9.99976e-06
1.00021e-05
9.99913e-06
1.00028e-05
9.9951e-06
1.0025e-05
1.01248e-05
1.09291e-05
1.28967e-05
1.57917e-05
1.61704e-05
2.97891e-05
0.000109637
0.000176815
0.000301427
0.00034525
0.000173463
0.0887496
0.986075
0.999818
0.999861
0.999944
0.999957
0.999963
0.999962
0.999962
0.999962
0.999961
0.99996
0.999959
0.999959
0.999958
0.99996
0.999966
0.999972
0.99998
0.999988
0.999994
0.999997
0.999999
0.999999
0.999999
0.999999
0.999999
0.999999
0.999999
0.999999
0.999999
0.999999
0.999999
0.999999
0.999999
1
1
8.43826e-06
8.89805e-06
9.03029e-06
9.31599e-06
9.38592e-06
9.42336e-06
9.17139e-06
8.86639e-06
8.71388e-06
8.90293e-06
9.50769e-06
9.90374e-06
9.99267e-06
9.99959e-06
9.99867e-06
9.9993e-06
9.99847e-06
9.99884e-06
9.99845e-06
9.99845e-06
9.99825e-06
9.99824e-06
9.9981e-06
9.99809e-06
9.998e-06
9.99797e-06
9.9979e-06
9.99786e-06
9.99781e-06
9.99778e-06
9.99775e-06
9.99774e-06
9.9977e-06
9.99777e-06
9.99773e-06
9.99799e-06
9.99796e-06
9.9985e-06
9.99846e-06
9.99907e-06
9.99896e-06
9.99974e-06
9.9991e-06
1.00012e-05
9.99891e-06
1.00021e-05
9.99562e-06
1.00218e-05
1.01021e-05
1.08277e-05
1.27828e-05
1.67655e-05
2.06042e-05
6.83322e-05
0.000176209
0.000183248
0.000184498
0.000131967
1.92361e-05
0.202744
0.981465
0.994588
0.995153
0.996338
0.996764
0.996972
0.996821
0.996468
0.996168
0.995819
0.995341
0.995062
0.995012
0.994998
0.994983
0.995365
0.995503
0.996132
0.996841
0.997567
0.998369
0.998949
0.999395
0.999707
0.999881
0.999964
0.999993
0.999998
0.999999
0.999999
0.999999
0.999999
0.999999
0.999999
1
1
8.2465e-06
8.34552e-06
8.53152e-06
9.14345e-06
9.40236e-06
9.50532e-06
9.38068e-06
9.03155e-06
8.77289e-06
8.8449e-06
9.45645e-06
9.89209e-06
9.99187e-06
9.99913e-06
9.9982e-06
9.99869e-06
9.99788e-06
9.99819e-06
9.99777e-06
9.99777e-06
9.99757e-06
9.99757e-06
9.99745e-06
9.99746e-06
9.99739e-06
9.99738e-06
9.99735e-06
9.99734e-06
9.99732e-06
9.99731e-06
9.99731e-06
9.99734e-06
9.99734e-06
9.99747e-06
9.99747e-06
9.99774e-06
9.99774e-06
9.99835e-06
9.99835e-06
9.99898e-06
9.99896e-06
9.99969e-06
9.99938e-06
1.00013e-05
9.99937e-06
1.00025e-05
9.99632e-06
1.00187e-05
1.0069e-05
1.07161e-05
1.27344e-05
1.71885e-05
2.3463e-05
3.36611e-05
0.0001555
0.000230379
0.000184143
0.000136877
1.00202e-05
0.421129
0.962227
0.968495
0.967113
0.967783
0.968272
0.969001
0.96907
0.967852
0.966091
0.963957
0.961695
0.960321
0.959734
0.95933
0.959234
0.959285
0.958819
0.957783
0.95723
0.958456
0.963579
0.968082
0.972087
0.975613
0.9803
0.985164
0.989152
0.992756
0.995845
0.99854
0.999665
0.999682
0.999686
0.999833
0.999918
0.999492
7.89276e-06
7.70126e-06
8.00442e-06
8.60827e-06
9.30907e-06
9.51331e-06
9.512e-06
9.2378e-06
8.87643e-06
8.82495e-06
9.44385e-06
9.8894e-06
9.9919e-06
9.99973e-06
9.99911e-06
9.99937e-06
9.99889e-06
9.99899e-06
9.99863e-06
9.99883e-06
9.99859e-06
9.9987e-06
9.99859e-06
9.99869e-06
9.99866e-06
9.99871e-06
9.99873e-06
9.99877e-06
9.99879e-06
9.99881e-06
9.99883e-06
9.99887e-06
9.99884e-06
9.99899e-06
9.99888e-06
9.99916e-06
9.99897e-06
9.9997e-06
9.99939e-06
1.00003e-05
9.99986e-06
1.00009e-05
1e-05
1.00015e-05
9.99925e-06
1.00026e-05
9.99633e-06
1.00165e-05
1.00341e-05
1.05651e-05
1.26367e-05
1.7042e-05
2.43029e-05
3.85669e-05
6.72342e-05
0.000209749
0.000271805
0.000254224
1.00202e-05
0.472482
0.948121
0.951973
0.949057
0.948862
0.94879
0.949568
0.950789
0.950658
0.949323
0.946774
0.944258
0.942493
0.940982
0.939574
0.938474
0.936938
0.931929
0.921157
0.912425
0.908981
0.907537
0.905515
0.899926
0.893869
0.889274
0.883519
0.8749
0.866386
0.858941
0.852336
0.846669
0.840398
0.829866
0.808333
0.76152
0.57738
7.38553e-06
7.12804e-06
7.30603e-06
7.91507e-06
8.6087e-06
9.14568e-06
9.53187e-06
9.34827e-06
8.91607e-06
8.81378e-06
9.44892e-06
9.8954e-06
9.99484e-06
1.00011e-05
1.00005e-05
1.00006e-05
1.00003e-05
1.00004e-05
1.00003e-05
1.00003e-05
1.00002e-05
1.00002e-05
1.00001e-05
1.00002e-05
1.00001e-05
1.00002e-05
1.00002e-05
1.00002e-05
1.00002e-05
1.00003e-05
1.00003e-05
1.00003e-05
1.00003e-05
1.00004e-05
1.00003e-05
1.00006e-05
1.00005e-05
1.00011e-05
1.00009e-05
1.00018e-05
1.00014e-05
1.00025e-05
1.00016e-05
1.00035e-05
1.00008e-05
1.00049e-05
9.99774e-06
1.00165e-05
1.00157e-05
1.0378e-05
1.15915e-05
1.50537e-05
2.07263e-05
3.64457e-05
6.17959e-05
0.000140572
0.000247664
0.000214767
1.00202e-05
0.327858
0.97648
0.987247
0.988199
0.989899
0.991031
0.992214
0.993514
0.994702
0.995708
0.996595
0.99733
0.997834
0.998082
0.997978
0.99791
0.99768
0.997308
0.996872
0.996364
0.995993
0.995797
0.995376
0.994501
0.993106
0.99217
0.991841
0.99168
0.991329
0.991078
0.991115
0.991434
0.992003
0.992796
0.994074
0.995847
0.996733
7.04224e-06
7.24306e-06
6.92398e-06
6.96998e-06
7.38559e-06
8.30009e-06
9.22906e-06
9.36547e-06
8.81071e-06
8.62375e-06
9.44473e-06
9.90205e-06
9.99618e-06
1.00017e-05
1.00012e-05
1.00013e-05
1.00012e-05
1.00013e-05
1.00011e-05
1.00012e-05
1.0001e-05
1.0001e-05
1.00009e-05
1.00009e-05
1.00008e-05
1.00008e-05
1.00008e-05
1.00008e-05
1.00008e-05
1.00008e-05
1.00008e-05
1.00008e-05
1.00008e-05
1.00009e-05
1.00008e-05
1.00011e-05
1.00009e-05
1.00016e-05
1.00012e-05
1.00022e-05
1.00017e-05
1.00029e-05
1.00019e-05
1.00039e-05
1.00008e-05
1.00053e-05
9.99698e-06
1.00165e-05
1.00137e-05
1.03463e-05
1.12018e-05
1.40239e-05
2.01795e-05
3.64527e-05
6.26608e-05
0.000151996
0.00021221
0.000208762
1.60628e-05
0.192566
0.994502
0.999352
0.999563
0.999787
0.999864
0.999916
0.999948
0.999969
0.99998
0.999986
0.999988
0.999989
0.999989
0.999989
0.999987
0.999985
0.999984
0.999984
0.999982
0.999979
0.999976
0.999973
0.99997
0.999968
0.999963
0.999962
0.999962
0.999963
0.999968
0.999978
0.999984
0.999989
0.999992
0.999996
0.999999
1
5.37498e-06
7.3299e-06
7.13685e-06
6.69558e-06
6.50212e-06
7.38878e-06
8.57776e-06
9.25949e-06
8.68833e-06
8.35463e-06
9.40001e-06
9.90164e-06
9.99647e-06
1.00017e-05
1.00015e-05
1.00015e-05
1.00015e-05
1.00015e-05
1.00015e-05
1.00015e-05
1.00014e-05
1.00014e-05
1.00013e-05
1.00013e-05
1.00012e-05
1.00012e-05
1.00012e-05
1.00012e-05
1.00011e-05
1.00011e-05
1.00011e-05
1.00011e-05
1.00011e-05
1.00013e-05
1.00012e-05
1.00014e-05
1.00013e-05
1.00018e-05
1.00015e-05
1.00024e-05
1.0002e-05
1.00032e-05
1.00021e-05
1.00041e-05
1.00011e-05
1.00055e-05
9.99626e-06
1.00154e-05
1.00137e-05
1.03349e-05
1.1083e-05
1.38211e-05
2.05385e-05
3.76696e-05
6.64139e-05
0.000115204
0.000205068
0.000430591
0.00017833
0.0829513
0.954577
1
0.999988
0.999999
0.999999
0.999999
0.999999
0.999999
0.999999
0.999999
0.999999
0.999999
0.999999
0.999999
0.999999
0.999999
0.999999
0.999999
0.999999
0.999999
0.999999
1
1
1
1
1
0.999999
0.999999
0.999999
0.999999
1
1
1
1
1
1
4.85666e-06
5.70677e-06
5.69235e-06
5.72564e-06
5.74416e-06
6.50362e-06
7.94335e-06
9.10627e-06
8.41633e-06
7.97217e-06
9.35381e-06
9.91209e-06
9.99717e-06
1.00008e-05
1.00004e-05
1.0001e-05
1.00008e-05
1.00011e-05
1.0001e-05
1.00012e-05
1.00011e-05
1.00013e-05
1.00012e-05
1.00013e-05
1.00012e-05
1.00011e-05
1.00011e-05
1.0001e-05
1.00009e-05
1.00008e-05
1.00007e-05
1.00007e-05
1.00006e-05
1.00006e-05
1.00005e-05
1.00006e-05
1.00004e-05
1.00005e-05
1.00004e-05
1.00008e-05
1.00007e-05
1.00015e-05
1.00007e-05
1.00023e-05
1e-05
1.00039e-05
9.99556e-06
1.00124e-05
1.00133e-05
1.03787e-05
1.13196e-05
1.43464e-05
2.28003e-05
3.86766e-05
5.42204e-05
0.000118458
0.000127784
0.00055406
0.000416154
0.047192
0.961971
1
0.999999
1
0.999999
0.999999
0.999999
0.999999
0.999999
0.999999
0.999999
0.999999
0.999999
0.999999
0.999999
0.999999
0.999999
0.999999
0.999999
0.999999
0.999999
1
1
1
1
1
1
1
0.999999
0.999999
1
1
1
1
1
1
4.2323e-06
4.65294e-06
4.44334e-06
4.68413e-06
4.93228e-06
5.4997e-06
7.03335e-06
8.73317e-06
7.91321e-06
7.53302e-06
9.28084e-06
9.9255e-06
9.99781e-06
1.00005e-05
1.00001e-05
1.00003e-05
1.00002e-05
1.00003e-05
1.00002e-05
1.00002e-05
1.00001e-05
1.00001e-05
9.99991e-06
9.99988e-06
9.99975e-06
9.99968e-06
9.99957e-06
9.99947e-06
9.99936e-06
9.99925e-06
9.99915e-06
9.99904e-06
9.99891e-06
9.99884e-06
9.99866e-06
9.99868e-06
9.99849e-06
9.99845e-06
9.99831e-06
9.99854e-06
9.99847e-06
9.99867e-06
9.99815e-06
9.99891e-06
9.99726e-06
9.99972e-06
9.99404e-06
1.00065e-05
1.00117e-05
1.04225e-05
1.16132e-05
1.62675e-05
2.44705e-05
3.87201e-05
4.37557e-05
0.000101196
0.000169626
0.000641079
0.000921622
0.0398697
0.950223
1
0.999999
0.999999
0.999999
0.999999
0.999999
0.999999
0.999999
0.999999
0.999999
0.999999
0.999999
0.999999
0.999999
0.999999
1
1
1
1
1
1
1
1
1
1
1
1
0.999999
1
1
1
1
1
1
1
3.66548e-06
3.82892e-06
3.70807e-06
3.9076e-06
4.14781e-06
4.69379e-06
6.41524e-06
8.01687e-06
7.04797e-06
7.32457e-06
9.21843e-06
9.93432e-06
9.99416e-06
9.99699e-06
9.99593e-06
9.99612e-06
9.996e-06
9.9961e-06
9.99594e-06
9.99596e-06
9.99577e-06
9.99576e-06
9.99555e-06
9.99551e-06
9.99535e-06
9.99525e-06
9.99511e-06
9.995e-06
9.99488e-06
9.99477e-06
9.99465e-06
9.99454e-06
9.9944e-06
9.99433e-06
9.99415e-06
9.99418e-06
9.99399e-06
9.99407e-06
9.99399e-06
9.99402e-06
9.99402e-06
9.99416e-06
9.99415e-06
9.99433e-06
9.99433e-06
9.99445e-06
9.99325e-06
9.99925e-06
1.00192e-05
1.04828e-05
1.22937e-05
1.85348e-05
2.57965e-05
3.84421e-05
4.76475e-05
7.36097e-05
0.000225985
0.000771353
0.00124747
0.0439862
0.95023
1
0.999999
0.999999
0.999999
0.999999
0.999999
0.999999
0.999999
0.999999
0.999999
0.999999
0.999999
1
1
1
1
1
1
1
1
1
1
1
1
1
1
1
1
1
1
1
1
1
1
1
3.29998e-06
3.30203e-06
3.2775e-06
3.43608e-06
3.76126e-06
4.79379e-06
6.09221e-06
6.70976e-06
6.21813e-06
7.46231e-06
9.54162e-06
9.97285e-06
9.99523e-06
9.99593e-06
9.99456e-06
9.99455e-06
9.99453e-06
9.99453e-06