/*--------------------------------*- C++ -*----------------------------------*\
| =========                 |                                                 |
| \\      /  F ield         | OpenFOAM: The Open Source CFD Toolbox           |
|  \\    /   O peration     | Version:  2.3.0                                 |
|   \\  /    A nd           | Web:      www.OpenFOAM.org                      |
|    \\/     M anipulation  |                                                 |
\*---------------------------------------------------------------------------*/
FoamFile
{
    version     2.0;
    format      ascii;
    class       volScalarField;
    location    "10";
    object      alpha.airMean;
}
// * * * * * * * * * * * * * * * * * * * * * * * * * * * * * * * * * * * * * //

dimensions      [0 0 0 0 0 0 0];

internalField   nonuniform List<scalar> 
6144
(
0.99999
0.99999
0.99999
0.99999
0.99999
0.99999
0.99999
0.99999
0.99999
0.99999
0.99999
0.99999
0.99999
0.99999
0.99999
0.99999
0.99999
0.99999
0.99999
0.99999
0.99999
0.99999
0.99999
0.99999
0.99999
0.99999
0.99999
0.99999
0.99999
0.99999
0.99999
0.99999
0.99999
0.99999
0.99999
0.99999
0.99999
0.99999
0.99999
0.99999
0.99999
0.99999
0.99999
0.99999
0.99999
0.99999
0.99999
0.99999
0.99999
0.99999
0.99999
0.999987
0.999981
0.99997
0.999959
0.999931
0.999874
0.999582
0.998914
0.93049
0.0348097
0.000200413
1.64559e-06
1.51767e-06
1.51011e-06
1.46597e-06
1.46467e-06
1.42891e-06
1.42116e-06
1.39382e-06
1.37889e-06
1.35553e-06
1.33853e-06
1.31671e-06
1.29916e-06
1.27861e-06
1.26069e-06
1.24262e-06
1.22324e-06
1.20528e-06
1.18748e-06
1.16853e-06
1.15075e-06
1.13424e-06
1.11811e-06
1.10268e-06
1.08619e-06
1.06282e-06
1.01861e-06
9.57589e-07
8.85732e-07
7.81365e-07
6.50829e-07
5.55449e-07
5.53778e-07
5.53632e-07
0.99999
0.99999
0.99999
0.99999
0.99999
0.99999
0.99999
0.99999
0.99999
0.99999
0.99999
0.99999
0.99999
0.99999
0.99999
0.99999
0.99999
0.99999
0.99999
0.99999
0.99999
0.99999
0.99999
0.99999
0.99999
0.99999
0.99999
0.99999
0.99999
0.99999
0.99999
0.99999
0.99999
0.99999
0.99999
0.99999
0.99999
0.99999
0.99999
0.99999
0.99999
0.99999
0.99999
0.99999
0.99999
0.99999
0.99999
0.99999
0.99999
0.99999
0.99999
0.999987
0.999981
0.999973
0.999962
0.999937
0.999864
0.999467
0.998656
0.94658
0.0418929
9.81515e-05
1.54325e-06
1.52235e-06
1.50407e-06
1.46256e-06
1.46e-06
1.42617e-06
1.41588e-06
1.38695e-06
1.37404e-06
1.35216e-06
1.33634e-06
1.31684e-06
1.29871e-06
1.27899e-06
1.25905e-06
1.23993e-06
1.22147e-06
1.20452e-06
1.18755e-06
1.17174e-06
1.1565e-06
1.13925e-06
1.12239e-06
1.10603e-06
1.08699e-06
1.06079e-06
1.0227e-06
9.65255e-07
8.9238e-07
7.84592e-07
6.48434e-07
5.54119e-07
5.53102e-07
5.54032e-07
0.99999
0.99999
0.99999
0.99999
0.99999
0.99999
0.99999
0.99999
0.99999
0.99999
0.99999
0.99999
0.99999
0.99999
0.99999
0.99999
0.99999
0.99999
0.99999
0.99999
0.99999
0.99999
0.99999
0.99999
0.99999
0.99999
0.99999
0.99999
0.99999
0.99999
0.99999
0.99999
0.99999
0.99999
0.99999
0.99999
0.99999
0.99999
0.99999
0.99999
0.99999
0.99999
0.99999
0.99999
0.99999
0.99999
0.99999
0.99999
0.99999
0.99999
0.99999
0.999988
0.999983
0.999974
0.999955
0.999927
0.999908
0.999614
0.999185
0.951257
0.0487322
7.00181e-05
1.56267e-06
1.54506e-06
1.52368e-06
1.48721e-06
1.48299e-06
1.44905e-06
1.44013e-06
1.4122e-06
1.39591e-06
1.3683e-06
1.34877e-06
1.32378e-06
1.30319e-06
1.27953e-06
1.26191e-06
1.24426e-06
1.22603e-06
1.20792e-06
1.18978e-06
1.17111e-06
1.15318e-06
1.13591e-06
1.1183e-06
1.10335e-06
1.08594e-06
1.06229e-06
1.02693e-06
9.76201e-07
9.07388e-07
8.00478e-07
6.60522e-07
5.55703e-07
5.53267e-07
5.53502e-07
0.99999
0.99999
0.99999
0.99999
0.99999
0.99999
0.99999
0.99999
0.99999
0.99999
0.99999
0.99999
0.99999
0.99999
0.99999
0.99999
0.99999
0.99999
0.99999
0.99999
0.99999
0.99999
0.99999
0.99999
0.99999
0.99999
0.99999
0.99999
0.99999
0.99999
0.99999
0.99999
0.99999
0.99999
0.99999
0.99999
0.99999
0.99999
0.99999
0.99999
0.99999
0.99999
0.99999
0.99999
0.99999
0.99999
0.99999
0.99999
0.99999
0.99999
0.99999
0.999989
0.999983
0.99997
0.999945
0.999916
0.999922
0.999701
0.999605
0.939012
0.0513298
5.21377e-05
1.65061e-06
1.61531e-06
1.55506e-06
1.49279e-06
1.49284e-06
1.45489e-06
1.44658e-06
1.41364e-06
1.4087e-06
1.40346e-06
1.39779e-06
1.37952e-06
1.35985e-06
1.33617e-06
1.30302e-06
1.27032e-06
1.24321e-06
1.22055e-06
1.19972e-06
1.17991e-06
1.15947e-06
1.1395e-06
1.12135e-06
1.10414e-06
1.08313e-06
1.05608e-06
1.02092e-06
9.78607e-07
9.15572e-07
8.14767e-07
6.76392e-07
5.62053e-07
5.5296e-07
5.53347e-07
0.99999
0.99999
0.99999
0.99999
0.99999
0.99999
0.99999
0.99999
0.99999
0.99999
0.99999
0.99999
0.99999
0.99999
0.99999
0.99999
0.99999
0.99999
0.99999
0.99999
0.99999
0.99999
0.99999
0.99999
0.99999
0.99999
0.99999
0.99999
0.99999
0.99999
0.99999
0.99999
0.99999
0.99999
0.99999
0.99999
0.99999
0.99999
0.99999
0.99999
0.99999
0.99999
0.99999
0.99999
0.99999
0.99999
0.99999
0.99999
0.99999
0.99999
0.999989
0.999987
0.999982
0.999969
0.999942
0.999896
0.999886
0.999778
0.999805
0.877235
0.0196904
8.02354e-05
2.69768e-05
1.45021e-05
1.0427e-05
7.83102e-06
7.66405e-06
6.71659e-06
6.3015e-06
5.66465e-06
5.26543e-06
4.76363e-06
4.24303e-06
3.59712e-06
2.95855e-06
2.40269e-06
1.951e-06
1.6349e-06
1.44428e-06
1.31749e-06
1.24716e-06
1.20881e-06
1.16507e-06
1.13042e-06
1.10509e-06
1.07897e-06
1.05487e-06
1.02798e-06
1.00154e-06
9.66081e-07
9.09653e-07
8.18744e-07
6.85941e-07
5.66549e-07
5.53689e-07
5.5305e-07
0.99999
0.99999
0.99999
0.99999
0.99999
0.99999
0.99999
0.99999
0.99999
0.99999
0.99999
0.99999
0.99999
0.99999
0.99999
0.99999
0.99999
0.99999
0.99999
0.99999
0.99999
0.99999
0.99999
0.99999
0.99999
0.99999
0.99999
0.99999
0.99999
0.99999
0.99999
0.99999
0.99999
0.99999
0.99999
0.99999
0.99999
0.99999
0.99999
0.99999
0.99999
0.99999
0.99999
0.99999
0.99999
0.99999
0.99999
0.99999
0.99999
0.99999
0.999989
0.999986
0.999981
0.999968
0.999922
0.99989
0.999892
0.99985
0.999945
0.769174
0.0106078
0.00133252
0.00118437
0.000953442
0.000882044
0.000843435
0.000822657
0.000804903
0.000792324
0.000758209
0.000720425
0.000680837
0.000630019
0.000552882
0.000476574
0.000402189
0.000318881
0.000242424
0.000175286
0.000119676
7.78963e-05
4.60249e-05
2.55217e-05
1.36754e-05
6.99708e-06
3.45735e-06
1.76443e-06
1.1013e-06
8.65182e-07
7.26423e-07
6.65385e-07
6.22009e-07
5.64899e-07
5.53038e-07
5.53737e-07
5.56388e-07
0.999991
0.999991
0.99999
0.99999
0.99999
0.99999
0.99999
0.99999
0.99999
0.99999
0.99999
0.99999
0.99999
0.99999
0.99999
0.99999
0.99999
0.99999
0.99999
0.99999
0.99999
0.99999
0.99999
0.99999
0.99999
0.99999
0.99999
0.99999
0.99999
0.99999
0.99999
0.99999
0.99999
0.99999
0.99999
0.99999
0.99999
0.99999
0.99999
0.99999
0.99999
0.99999
0.99999
0.99999
0.99999
0.99999
0.99999
0.99999
0.99999
0.99999
0.99999
0.999988
0.999984
0.999976
0.999941
0.999891
0.999859
0.999852
0.99999
0.645662
0.0126366
0.00778895
0.0082411
0.00798906
0.00781167
0.00788895
0.00782633
0.007884
0.00779039
0.00765718
0.00747861
0.00709493
0.00679393
0.0065488
0.00632307
0.00574522
0.0051475
0.00471464
0.00409458
0.00353211
0.00313312
0.00258514
0.00205986
0.00164703
0.00128621
0.000986132
0.00071112
0.000477277
0.000314661
0.000186648
9.15976e-05
3.73956e-05
1.15547e-05
4.08348e-06
2.05379e-06
1.78843e-06
0.999991
0.999991
0.99999
0.99999
0.99999
0.99999
0.99999
0.99999
0.99999
0.99999
0.99999
0.99999
0.99999
0.99999
0.99999
0.99999
0.99999
0.99999
0.99999
0.99999
0.99999
0.99999
0.99999
0.99999
0.99999
0.99999
0.99999
0.99999
0.99999
0.99999
0.99999
0.99999
0.99999
0.99999
0.99999
0.99999
0.99999
0.99999
0.99999
0.99999
0.99999
0.99999
0.99999
0.99999
0.99999
0.99999
0.99999
0.99999
0.99999
0.99999
0.99999
0.999988
0.999985
0.999979
0.999953
0.999903
0.999872
0.999856
0.999963
0.570539
0.0229764
0.0183945
0.0190122
0.0191527
0.0190118
0.0190012
0.0188342
0.0185668
0.0185215
0.0184456
0.0182105
0.0179442
0.0176202
0.0173273
0.0170391
0.0167894
0.0165588
0.0161074
0.0156199
0.015243
0.0148494
0.0144009
0.0139081
0.0133765
0.0128163
0.0123013
0.0116143
0.010795
0.0099802
0.00898688
0.00807185
0.00714272
0.00608378
0.00506462
0.00384204
0.00294246
0.999991
0.999991
0.99999
0.999991
0.99999
0.99999
0.99999
0.99999
0.99999
0.99999
0.99999
0.99999
0.99999
0.99999
0.99999
0.99999
0.99999
0.99999
0.99999
0.99999
0.99999
0.99999
0.99999
0.99999
0.99999
0.99999
0.99999
0.99999
0.99999
0.99999
0.99999
0.99999
0.99999
0.99999
0.99999
0.99999
0.99999
0.99999
0.99999
0.99999
0.99999
0.99999
0.99999
0.99999
0.99999
0.99999
0.99999
0.99999
0.99999
0.99999
0.99999
0.999988
0.999984
0.999976
0.999957
0.999923
0.999898
0.999849
0.99992
0.685585
0.0163758
0.00712278
0.00657462
0.00555166
0.00491754
0.00458193
0.0041936
0.00381357
0.00349647
0.00318692
0.0029557
0.00266029
0.0024217
0.00221997
0.00207354
0.00195765
0.00184151
0.00174717
0.00169157
0.00162173
0.0014941
0.00138075
0.00124615
0.00110026
0.000969039
0.000816376
0.000663808
0.000524729
0.00039635
0.000279402
0.000177287
0.000103751
5.29844e-05
2.28384e-05
9.34505e-06
4.21195e-06
0.999991
0.999991
0.999991
0.999991
0.99999
0.99999
0.99999
0.99999
0.99999
0.99999
0.99999
0.99999
0.99999
0.99999
0.99999
0.99999
0.99999
0.99999
0.99999
0.99999
0.99999
0.99999
0.99999
0.99999
0.99999
0.99999
0.99999
0.99999
0.99999
0.99999
0.99999
0.99999
0.99999
0.99999
0.99999
0.99999
0.99999
0.99999
0.99999
0.99999
0.99999
0.99999
0.99999
0.99999
0.99999
0.99999
0.99999
0.99999
0.99999
0.99999
0.99999
0.999988
0.999983
0.999973
0.999958
0.999935
0.99992
0.999793
0.999839
0.820017
0.014025
0.000885043
0.000690678
0.000476442
0.000376864
0.000320928
0.000272557
0.00023459
0.000201327
0.00016983
0.000147724
0.000124608
0.000110331
9.47047e-05
7.8812e-05
6.67188e-05
5.69979e-05
4.86182e-05
4.03625e-05
3.18735e-05
2.44851e-05
1.87335e-05
1.35697e-05
9.33191e-06
6.24481e-06
3.74925e-06
2.32876e-06
1.47707e-06
9.80547e-07
7.40977e-07
6.40739e-07
6.12057e-07
5.84983e-07
5.66219e-07
5.54764e-07
5.56316e-07
0.999992
0.999991
0.999991
0.999991
0.999991
0.99999
0.99999
0.99999
0.99999
0.99999
0.99999
0.99999
0.99999
0.99999
0.99999
0.99999
0.99999
0.99999
0.99999
0.99999
0.99999
0.99999
0.99999
0.99999
0.99999
0.99999
0.99999
0.99999
0.99999
0.99999
0.99999
0.99999
0.99999
0.99999
0.99999
0.99999
0.99999
0.99999
0.99999
0.99999
0.99999
0.99999
0.99999
0.99999
0.99999
0.99999
0.99999
0.99999
0.99999
0.99999
0.99999
0.999988
0.999982
0.999966
0.999948
0.999934
0.999928
0.999706
0.999732
0.914268
0.0280525
6.92479e-05
1.89587e-05
1.19764e-05
9.3177e-06
7.63575e-06
6.39245e-06
5.45717e-06
4.68554e-06
3.87502e-06
3.22416e-06
2.69196e-06
2.32857e-06
2.00396e-06
1.77684e-06
1.608e-06
1.47772e-06
1.37455e-06
1.29338e-06
1.23443e-06
1.19908e-06
1.17181e-06
1.14386e-06
1.1211e-06
1.09703e-06
1.06645e-06
1.02141e-06
9.70705e-07
9.07347e-07
8.27512e-07
7.42157e-07
6.57764e-07
5.88237e-07
5.53454e-07
5.53281e-07
5.5291e-07
0.999993
0.999992
0.999992
0.999992
0.999991
0.999991
0.99999
0.99999
0.99999
0.99999
0.99999
0.99999
0.99999
0.99999
0.99999
0.99999
0.99999
0.99999
0.99999
0.99999
0.99999
0.99999
0.99999
0.99999
0.99999
0.99999
0.99999
0.99999
0.99999
0.99999
0.99999
0.99999
0.99999
0.99999
0.99999
0.99999
0.99999
0.99999
0.99999
0.99999
0.99999
0.99999
0.99999
0.99999
0.99999
0.99999
0.99999
0.99999
0.99999
0.99999
0.99999
0.999988
0.999983
0.99997
0.999949
0.999931
0.999918
0.999628
0.999641
0.956288
0.0486823
5.09464e-05
1.69377e-06
1.48979e-06
1.50762e-06
1.47558e-06
1.47125e-06
1.43599e-06
1.41991e-06
1.39115e-06
1.37918e-06
1.3583e-06
1.34477e-06
1.31847e-06
1.29372e-06
1.2695e-06
1.24621e-06
1.22231e-06
1.20037e-06
1.17703e-06
1.15324e-06
1.13347e-06
1.11439e-06
1.10041e-06
1.09157e-06
1.07175e-06
1.03164e-06
9.82073e-07
9.24033e-07
8.47947e-07
7.59482e-07
6.66045e-07
5.8341e-07
5.51136e-07
5.52875e-07
5.53662e-07
0.999994
0.999993
0.999993
0.999993
0.999992
0.999992
0.999991
0.999991
0.999991
0.99999
0.99999
0.99999
0.99999
0.99999
0.99999
0.99999
0.99999
0.99999
0.99999
0.99999
0.99999
0.99999
0.99999
0.99999
0.99999
0.99999
0.99999
0.99999
0.99999
0.99999
0.99999
0.99999
0.99999
0.99999
0.99999
0.99999
0.99999
0.99999
0.99999
0.99999
0.99999
0.99999
0.99999
0.99999
0.99999
0.99999
0.99999
0.99999
0.99999
0.99999
0.99999
0.999988
0.999985
0.999976
0.999959
0.99994
0.999892
0.999542
0.999505
0.965792
0.0527005
7.67507e-05
1.55094e-06
1.45914e-06
1.43241e-06
1.40883e-06
1.40614e-06
1.37183e-06
1.36739e-06
1.33828e-06
1.32683e-06
1.30264e-06
1.29201e-06
1.27483e-06
1.26031e-06
1.24329e-06
1.22444e-06
1.2046e-06
1.18113e-06
1.15801e-06
1.13832e-06
1.11825e-06
1.09908e-06
1.08714e-06
1.0787e-06
1.0691e-06
1.04284e-06
9.8761e-07
9.24774e-07
8.51196e-07
7.62297e-07
6.64799e-07
5.80231e-07
5.48724e-07
5.52898e-07
5.53308e-07
0.999995
0.999994
0.999994
0.999994
0.999993
0.999993
0.999992
0.999992
0.999991
0.99999
0.99999
0.99999
0.99999
0.99999
0.99999
0.99999
0.99999
0.99999
0.99999
0.99999
0.99999
0.99999
0.99999
0.99999
0.99999
0.99999
0.99999
0.99999
0.99999
0.99999
0.99999
0.99999
0.99999
0.99999
0.99999
0.99999
0.99999
0.99999
0.99999
0.99999
0.99999
0.99999
0.99999
0.99999
0.99999
0.99999
0.99999
0.99999
0.99999
0.99999
0.999989
0.999988
0.999985
0.999977
0.999966
0.999954
0.99984
0.999447
0.999469
0.957149
0.0448701
3.91454e-05
1.44119e-06
1.41307e-06
1.40904e-06
1.37886e-06
1.37824e-06
1.3491e-06
1.33958e-06
1.31584e-06
1.30014e-06
1.27925e-06
1.26178e-06
1.24424e-06
1.22821e-06
1.21146e-06
1.19509e-06
1.17732e-06
1.1572e-06
1.13936e-06
1.12117e-06
1.10197e-06
1.08705e-06
1.07522e-06
1.06695e-06
1.06085e-06
1.04369e-06
9.91779e-07
9.17483e-07
8.42833e-07
7.55089e-07
6.60067e-07
5.77021e-07
5.48699e-07
5.52993e-07
5.53365e-07
0.999996
0.999995
0.999995
0.999994
0.999994
0.999993
0.999993
0.999992
0.999992
0.999991
0.99999
0.99999
0.99999
0.99999
0.99999
0.99999
0.99999
0.99999
0.99999
0.99999
0.99999
0.99999
0.99999
0.99999
0.99999
0.99999
0.99999
0.99999
0.99999
0.99999
0.99999
0.99999
0.99999
0.99999
0.99999
0.99999
0.99999
0.99999
0.99999
0.99999
0.99999
0.99999
0.99999
0.99999
0.99999
0.99999
0.99999
0.99999
0.99999
0.99999
0.999989
0.999987
0.999983
0.999976
0.999966
0.999949
0.999756
0.999344
0.998974
0.953931
0.0411901
9.20421e-05
1.43064e-06
1.40427e-06
1.39726e-06
1.3551e-06
1.35247e-06
1.3253e-06
1.30972e-06
1.2882e-06
1.26883e-06
1.24719e-06
1.23176e-06
1.21047e-06
1.19631e-06
1.17989e-06
1.16356e-06
1.15011e-06
1.13607e-06
1.12037e-06
1.1068e-06
1.094e-06
1.08165e-06
1.07164e-06
1.06546e-06
1.06272e-06
1.04611e-06
9.95796e-07
9.19549e-07
8.41612e-07
7.5445e-07
6.6021e-07
5.7758e-07
5.4904e-07
5.53153e-07
5.53543e-07
0.999997
0.999995
0.999995
0.999995
0.999994
0.999994
0.999993
0.999992
0.999992
0.999991
0.99999
0.99999
0.99999
0.99999
0.99999
0.99999
0.99999
0.99999
0.99999
0.99999
0.99999
0.99999
0.99999
0.99999
0.99999
0.99999
0.99999
0.99999
0.99999
0.99999
0.99999
0.99999
0.99999
0.99999
0.99999
0.99999
0.99999
0.99999
0.99999
0.99999
0.99999
0.99999
0.99999
0.99999
0.99999
0.99999
0.99999
0.99999
0.99999
0.99999
0.999989
0.999987
0.999983
0.999978
0.999969
0.999914
0.999828
0.999421
0.999261
0.947468
0.0440513
0.000295267
1.73926e-06
1.35345e-06
1.35289e-06
1.31571e-06
1.31373e-06
1.28953e-06
1.27845e-06
1.25605e-06
1.24587e-06
1.22417e-06
1.21244e-06
1.19433e-06
1.18156e-06
1.16547e-06
1.15082e-06
1.13816e-06
1.12441e-06
1.11041e-06
1.10011e-06
1.08922e-06
1.07842e-06
1.06984e-06
1.06495e-06
1.06566e-06
1.05643e-06
1.0053e-06
9.24468e-07
8.46747e-07
7.58673e-07
6.65153e-07
5.81621e-07
5.49208e-07
5.53424e-07
5.53761e-07
0.99999
0.99999
0.99999
0.99999
0.99999
0.99999
0.99999
0.99999
0.99999
0.99999
0.99999
0.99999
0.99999
0.99999
0.99999
0.99999
0.99999
0.99999
0.99999
0.99999
0.99999
0.99999
0.99999
0.99999
0.99999
0.99999
0.99999
0.99999
0.99999
0.99999
0.99999
0.99999
0.99999
0.99999
0.99999
0.99999
0.99999
0.99999
0.99999
0.99999
0.99999
0.99999
0.99999
0.99999
0.99999
0.99999
0.99999
0.99999
0.99999
0.99999
0.99999
0.999987
0.999981
0.999971
0.99996
0.999936
0.999876
0.9994
0.997617
0.939227
0.052024
0.000361354
1.85376e-06
1.50933e-06
1.50205e-06
1.45722e-06
1.45803e-06
1.42101e-06
1.41509e-06
1.38467e-06
1.37243e-06
1.34709e-06
1.33122e-06
1.30871e-06
1.28989e-06
1.27064e-06
1.25234e-06
1.23302e-06
1.21476e-06
1.1966e-06
1.17755e-06
1.15974e-06
1.1421e-06
1.12475e-06
1.10804e-06
1.09225e-06
1.07683e-06
1.06004e-06
1.03456e-06
9.85284e-07
8.99403e-07
7.83277e-07
6.43297e-07
5.53388e-07
5.53177e-07
5.53897e-07
0.99999
0.99999
0.99999
0.99999
0.99999
0.99999
0.99999
0.99999
0.99999
0.99999
0.99999
0.99999
0.99999
0.99999
0.99999
0.99999
0.99999
0.99999
0.99999
0.99999
0.99999
0.99999
0.99999
0.99999
0.99999
0.99999
0.99999
0.99999
0.99999
0.99999
0.99999
0.99999
0.99999
0.99999
0.99999
0.99999
0.99999
0.99999
0.99999
0.99999
0.99999
0.99999
0.99999
0.99999
0.99999
0.99999
0.99999
0.99999
0.99999
0.99999
0.99999
0.999987
0.999981
0.999972
0.999964
0.999939
0.999858
0.999445
0.998331
0.94433
0.0470138
0.000157641
1.57529e-06
1.52298e-06
1.50646e-06
1.45558e-06
1.45825e-06
1.4229e-06
1.41663e-06
1.3881e-06
1.3744e-06
1.35008e-06
1.33414e-06
1.31133e-06
1.29174e-06
1.27293e-06
1.25403e-06
1.23298e-06
1.21536e-06
1.1966e-06
1.17616e-06
1.15923e-06
1.14087e-06
1.12177e-06
1.10587e-06
1.08923e-06
1.07205e-06
1.05615e-06
1.032e-06
9.91186e-07
9.21421e-07
8.12347e-07
6.67382e-07
5.55767e-07
5.53576e-07
5.53529e-07
0.99999
0.99999
0.99999
0.99999
0.99999
0.99999
0.99999
0.99999
0.99999
0.99999
0.99999
0.99999
0.99999
0.99999
0.99999
0.99999
0.99999
0.99999
0.99999
0.99999
0.99999
0.99999
0.99999
0.99999
0.99999
0.99999
0.99999
0.99999
0.99999
0.99999
0.99999
0.99999
0.99999
0.99999
0.99999
0.99999
0.99999
0.99999
0.99999
0.99999
0.99999
0.99999
0.99999
0.99999
0.99999
0.99999
0.99999
0.99999
0.99999
0.99999
0.99999
0.999988
0.999982
0.999974
0.999962
0.99992
0.999901
0.999614
0.999183
0.940999
0.0361919
1.42518e-05
1.67335e-06
1.59325e-06
1.54287e-06
1.48725e-06
1.48669e-06
1.44947e-06
1.44392e-06
1.41093e-06
1.39628e-06
1.36622e-06
1.34819e-06
1.32385e-06
1.30478e-06
1.28473e-06
1.26521e-06
1.24486e-06
1.2257e-06
1.20572e-06
1.18582e-06
1.16756e-06
1.14828e-06
1.12857e-06
1.10992e-06
1.09253e-06
1.0763e-06
1.05864e-06
1.03479e-06
1.00243e-06
9.46429e-07
8.51194e-07
7.07223e-07
5.76107e-07
5.53185e-07
5.55248e-07
0.999991
0.999991
0.999991
0.999991
0.99999
0.99999
0.99999
0.99999
0.99999
0.99999
0.99999
0.99999
0.99999
0.99999
0.99999
0.99999
0.99999
0.99999
0.99999
0.99999
0.99999
0.99999
0.99999
0.99999
0.99999
0.99999
0.99999
0.99999
0.99999
0.99999
0.99999
0.99999
0.99999
0.99999
0.99999
0.99999
0.99999
0.99999
0.99999
0.99999
0.99999
0.99999
0.99999
0.99999
0.99999
0.99999
0.99999
0.99999
0.99999
0.99999
0.999989
0.999986
0.999981
0.99997
0.999949
0.999891
0.999899
0.999677
0.999648
0.930225
0.0312347
3.84972e-06
6.54473e-06
3.12023e-06
2.92231e-06
2.47209e-06
2.31052e-06
2.01446e-06
1.84886e-06
1.69244e-06
1.62773e-06
1.54374e-06
1.50126e-06
1.45263e-06
1.4243e-06
1.3948e-06
1.36203e-06
1.31631e-06
1.27595e-06
1.24785e-06
1.21765e-06
1.18823e-06
1.16754e-06
1.14741e-06
1.12721e-06
1.1063e-06
1.08609e-06
1.06291e-06
1.03746e-06
1.00579e-06
9.59816e-07
8.74517e-07
7.36842e-07
5.95662e-07
5.54667e-07
5.53658e-07
0.999991
0.999991
0.999991
0.999991
0.999991
0.99999
0.99999
0.99999
0.99999
0.99999
0.99999
0.99999
0.99999
0.99999
0.99999
0.99999
0.99999
0.99999
0.99999
0.99999
0.99999
0.99999
0.99999
0.99999
0.99999
0.99999
0.99999
0.99999
0.99999
0.99999
0.99999
0.99999
0.99999
0.99999
0.99999
0.99999
0.99999
0.99999
0.99999
0.99999
0.99999
0.99999
0.99999
0.99999
0.99999
0.99999
0.99999
0.99999
0.99999
0.99999
0.999985
0.999979
0.999974
0.999961
0.999913
0.999855
0.999831
0.999816
0.999831
0.875694
0.0142045
0.000406636
0.0003413
0.000209908
0.00018146
0.000164405
0.000154552
0.000143599
0.000129378
0.000110574
9.83677e-05
8.39897e-05
7.21312e-05
5.9589e-05
4.89277e-05
3.75068e-05
2.70647e-05
1.76454e-05
1.13776e-05
7.09483e-06
4.49011e-06
2.94899e-06
2.09735e-06
1.63646e-06
1.41392e-06
1.25831e-06
1.14698e-06
1.07663e-06
1.0127e-06
9.71354e-07
9.31407e-07
8.69119e-07
7.4764e-07
6.08468e-07
5.56621e-07
5.55389e-07
0.999991
0.999991
0.999991
0.999991
0.999991
0.999991
0.999991
0.99999
0.99999
0.99999
0.99999
0.99999
0.99999
0.99999
0.99999
0.99999
0.99999
0.99999
0.99999
0.99999
0.99999
0.99999
0.99999
0.99999
0.99999
0.99999
0.99999
0.99999
0.99999
0.99999
0.99999
0.99999
0.99999
0.99999
0.99999
0.99999
0.99999
0.99999
0.99999
0.99999
0.99999
0.99999
0.99999
0.99999
0.99999
0.99999
0.99999
0.99999
0.99999
0.999989
0.999985
0.999979
0.999972
0.999951
0.99988
0.999863
0.999876
0.999914
0.999941
0.735942
0.0163685
0.00825707
0.00818048
0.00736077
0.00723539
0.00693956
0.00660732
0.00644756
0.00626433
0.00617501
0.00605002
0.00585894
0.00548696
0.00501586
0.00457054
0.00406053
0.00362898
0.00293152
0.00231621
0.00178417
0.00129948
0.000947407
0.000663349
0.000441913
0.000291857
0.000183616
0.000106299
6.13941e-05
3.32594e-05
1.73906e-05
7.61224e-06
3.64614e-06
1.81352e-06
1.02451e-06
6.67903e-07
5.70429e-07
0.999991
0.999991
0.999991
0.999991
0.999991
0.999991
0.999991
0.99999
0.99999
0.99999
0.99999
0.99999
0.99999
0.99999
0.99999
0.99999
0.99999
0.99999
0.99999
0.99999
0.99999
0.99999
0.99999
0.99999
0.99999
0.99999
0.99999
0.99999
0.99999
0.99999
0.99999
0.99999
0.99999
0.99999
0.99999
0.99999
0.99999
0.99999
0.99999
0.99999
0.99999
0.99999
0.99999
0.99999
0.99999
0.99999
0.99999
0.99999
0.99999
0.99999
0.999989
0.999986
0.999981
0.999972
0.999917
0.999837
0.999811
0.999839
0.999912
0.574117
0.0386793
0.0328644
0.0348374
0.0353174
0.0357856
0.0362227
0.0364921
0.0369421
0.0372214
0.0374107
0.0378215
0.038136
0.0381378
0.0380703
0.0377409
0.0373601
0.0366736
0.0355608
0.0341146
0.0323584
0.0302144
0.0277266
0.0250788
0.0221127
0.0187447
0.015741
0.0130266
0.0105143
0.00841392
0.00660264
0.00475378
0.00309401
0.00187086
0.00104871
0.00071178
0.000852012
0.999991
0.999991
0.999991
0.999991
0.999991
0.999991
0.999991
0.999991
0.99999
0.99999
0.99999
0.99999
0.99999
0.99999
0.99999
0.99999
0.99999
0.99999
0.99999
0.99999
0.99999
0.99999
0.99999
0.99999
0.99999
0.99999
0.99999
0.99999
0.99999
0.99999
0.99999
0.99999
0.99999
0.99999
0.99999
0.99999
0.99999
0.99999
0.99999
0.99999
0.99999
0.99999
0.99999
0.99999
0.99999
0.99999
0.99999
0.99999
0.99999
0.99999
0.99999
0.999988
0.999986
0.999976
0.999938
0.99986
0.999834
0.999837
0.999588
0.55903
0.0451747
0.0396734
0.0412217
0.0419148
0.0431061
0.0443936
0.0455605
0.0470763
0.048684
0.0504587
0.0525
0.0547867
0.0572575
0.0599483
0.0629469
0.0663053
0.0699146
0.0738097
0.0780112
0.0824673
0.0871695
0.0920573
0.0970602
0.10223
0.107486
0.112709
0.118141
0.12381
0.129743
0.136055
0.14324
0.151995
0.163904
0.183374
0.227928
0.416111
0.999992
0.999991
0.999991
0.999991
0.999991
0.999991
0.999991
0.999991
0.999991
0.99999
0.99999
0.99999
0.99999
0.99999
0.99999
0.99999
0.99999
0.99999
0.99999
0.99999
0.99999
0.99999
0.99999
0.99999
0.99999
0.99999
0.99999
0.99999
0.99999
0.99999
0.99999
0.99999
0.99999
0.99999
0.99999
0.99999
0.99999
0.99999
0.99999
0.99999
0.99999
0.99999
0.99999
0.99999
0.99999
0.99999
0.99999
0.99999
0.99999
0.99999
0.99999
0.999988
0.999986
0.999972
0.999945
0.999901
0.999855
0.999839
0.999877
0.745573
0.0210253
0.00691315
0.00556841
0.00389939
0.00324301
0.00289811
0.00277946
0.00273406
0.00269963
0.00267767
0.00269732
0.00273584
0.00281526
0.0029212
0.00308391
0.00326945
0.00355216
0.00383257
0.00400052
0.0041792
0.00443467
0.00466918
0.00482226
0.00489907
0.00499472
0.00507939
0.00495592
0.00482907
0.00471429
0.00447145
0.00401735
0.00344429
0.00272106
0.00183381
0.00102247
0.000377805
0.999992
0.999992
0.999992
0.999991
0.999991
0.999991
0.999991
0.999991
0.999991
0.99999
0.99999
0.99999
0.99999
0.99999
0.99999
0.99999
0.99999
0.99999
0.99999
0.99999
0.99999
0.99999
0.99999
0.99999
0.99999
0.99999
0.99999
0.99999
0.99999
0.99999
0.99999
0.99999
0.99999
0.99999
0.99999
0.99999
0.99999
0.99999
0.99999
0.99999
0.99999
0.99999
0.99999
0.99999
0.99999
0.99999
0.99999
0.99999
0.99999
0.99999
0.999989
0.999988
0.999985
0.999974
0.999952
0.999913
0.999871
0.999787
0.999865
0.87107
0.0122777
0.000299455
0.000226816
0.000137025
0.000122671
0.00011353
0.000103882
9.61941e-05
9.49912e-05
9.33195e-05
9.59259e-05
9.51206e-05
8.85202e-05
8.81061e-05
8.49442e-05
7.76942e-05
7.44095e-05
7.08607e-05
6.57464e-05
6.29854e-05
6.22579e-05
6.12678e-05
5.63923e-05
4.69799e-05
3.9558e-05
3.42297e-05
2.8107e-05
2.23752e-05
1.68436e-05
1.23861e-05
8.79983e-06
5.72507e-06
3.61658e-06
2.00762e-06
9.68203e-07
6.2529e-07
0.999992
0.999992
0.999992
0.999992
0.999992
0.999991
0.999991
0.999991
0.999991
0.999991
0.99999
0.99999
0.99999
0.99999
0.99999
0.99999
0.99999
0.99999
0.99999
0.99999
0.99999
0.99999
0.99999
0.99999
0.99999
0.99999
0.99999
0.99999
0.99999
0.99999
0.99999
0.99999
0.99999
0.99999
0.99999
0.99999
0.99999
0.99999
0.99999
0.99999
0.99999
0.99999
0.99999
0.99999
0.99999
0.99999
0.99999
0.99999
0.99999
0.99999
0.999989
0.999987
0.999984
0.999973
0.999954
0.999927
0.999895
0.999683
0.999757
0.93598
0.0374229
7.22947e-06
7.72661e-06
4.06128e-06
3.7228e-06
3.39159e-06
3.24349e-06
3.01535e-06
2.88184e-06
2.72974e-06
2.61795e-06
2.48261e-06
2.36125e-06
2.20904e-06
2.05922e-06
1.93361e-06
1.80242e-06
1.69511e-06
1.60118e-06
1.53467e-06
1.48025e-06
1.40708e-06
1.29609e-06
1.23016e-06
1.17776e-06
1.1329e-06
1.09531e-06
1.05277e-06
9.86363e-07
8.94583e-07
7.88228e-07
6.83437e-07
5.9771e-07
5.68172e-07
5.6105e-07
5.55456e-07
0.999993
0.999993
0.999992
0.999992
0.999992
0.999992
0.999991
0.999991
0.999991
0.999991
0.99999
0.99999
0.99999
0.99999
0.99999
0.99999
0.99999
0.99999
0.99999
0.99999
0.99999
0.99999
0.99999
0.99999
0.99999
0.99999
0.99999
0.99999
0.99999
0.99999
0.99999
0.99999
0.99999
0.99999
0.99999
0.99999
0.99999
0.99999
0.99999
0.99999
0.99999
0.99999
0.99999
0.99999
0.99999
0.99999
0.99999
0.99999
0.99999
0.99999
0.999989
0.999987
0.999984
0.999976
0.999961
0.999936
0.999906
0.999608
0.999597
0.955072
0.0383053
6.20757e-06
1.62724e-06
1.40109e-06
1.48322e-06
1.47644e-06
1.46839e-06
1.43856e-06
1.42848e-06
1.39684e-06
1.37889e-06
1.35033e-06
1.33095e-06
1.30552e-06
1.28601e-06
1.26409e-06
1.24431e-06
1.22218e-06
1.1946e-06
1.16432e-06
1.1397e-06
1.11526e-06
1.09504e-06
1.08186e-06
1.07177e-06
1.06263e-06
1.04867e-06
1.02001e-06
9.67528e-07
8.82183e-07
7.75495e-07
6.67031e-07
5.79676e-07
5.5191e-07
5.53293e-07
5.5386e-07
0.999994
0.999994
0.999993
0.999993
0.999992
0.999992
0.999992
0.999991
0.999991
0.999991
0.99999
0.99999
0.99999
0.99999
0.99999
0.99999
0.99999
0.99999
0.99999
0.99999
0.99999
0.99999
0.99999
0.99999
0.99999
0.99999
0.99999
0.99999
0.99999
0.99999
0.99999
0.99999
0.99999
0.99999
0.99999
0.99999
0.99999
0.99999
0.99999
0.99999
0.99999
0.99999
0.99999
0.99999
0.99999
0.99999
0.99999
0.99999
0.99999
0.99999
0.999989
0.999987
0.999984
0.999978
0.999969
0.999948
0.99987
0.999533
0.999238
0.961863
0.0510462
2.78363e-05
1.5266e-06
1.44754e-06
1.43969e-06
1.43613e-06
1.44423e-06
1.41462e-06
1.4046e-06
1.37442e-06
1.34948e-06
1.32155e-06
1.29823e-06
1.27482e-06
1.25441e-06
1.2322e-06
1.21007e-06
1.18655e-06
1.16191e-06
1.13848e-06
1.11604e-06
1.09536e-06
1.0791e-06
1.06558e-06
1.05564e-06
1.049e-06
1.03677e-06
1.00705e-06
9.53668e-07
8.73623e-07
7.70232e-07
6.63287e-07
5.75501e-07
5.48978e-07
5.52763e-07
5.53557e-07
0.999995
0.999994
0.999994
0.999994
0.999993
0.999992
0.999992
0.999992
0.999992
0.999991
0.99999
0.99999
0.99999
0.99999
0.99999
0.99999
0.99999
0.99999
0.99999
0.99999
0.99999
0.99999
0.99999
0.99999
0.99999
0.99999
0.99999
0.99999
0.99999
0.99999
0.99999
0.99999
0.99999
0.99999
0.99999
0.99999
0.99999
0.99999
0.99999
0.99999
0.99999
0.99999
0.99999
0.99999
0.99999
0.99999
0.99999
0.99999
0.99999
0.99999
0.999989
0.999987
0.999983
0.999977
0.999967
0.999954
0.99982
0.999441
0.999062
0.954448
0.0516933
3.02596e-05
1.48516e-06
1.45742e-06
1.43854e-06
1.40464e-06
1.40552e-06
1.36965e-06
1.36144e-06
1.32645e-06
1.31021e-06
1.27975e-06
1.26106e-06
1.23552e-06
1.21483e-06
1.19346e-06
1.17336e-06
1.15408e-06
1.13506e-06
1.1168e-06
1.0997e-06
1.08487e-06
1.07156e-06
1.06014e-06
1.05084e-06
1.04346e-06
1.03288e-06
1.00203e-06
9.42336e-07
8.59026e-07
7.60831e-07
6.60683e-07
5.76434e-07
5.49756e-07
5.5314e-07
5.53902e-07
0.999996
0.999995
0.999995
0.999994
0.999994
0.999993
0.999992
0.999992
0.999992
0.999991
0.99999
0.99999
0.99999
0.99999
0.99999
0.99999
0.99999
0.99999
0.99999
0.99999
0.99999
0.99999
0.99999
0.99999
0.99999
0.99999
0.99999
0.99999
0.99999
0.99999
0.99999
0.99999
0.99999
0.99999
0.99999
0.99999
0.99999
0.99999
0.99999
0.99999
0.99999
0.99999
0.99999
0.99999
0.99999
0.99999
0.99999
0.99999
0.99999
0.99999
0.999989
0.999987
0.999983
0.999976
0.999964
0.999943
0.999759
0.999316
0.998409
0.946371
0.0556356
0.000176341
1.43499e-06
1.39072e-06
1.37525e-06
1.32949e-06
1.32587e-06
1.29204e-06
1.28932e-06
1.26156e-06
1.25238e-06
1.2289e-06
1.21665e-06
1.19666e-06
1.1814e-06
1.1633e-06
1.14593e-06
1.13199e-06
1.11739e-06
1.1016e-06
1.08971e-06
1.07795e-06
1.06663e-06
1.05625e-06
1.04707e-06
1.04215e-06
1.03199e-06
9.99918e-07
9.33246e-07
8.45738e-07
7.53037e-07
6.56462e-07
5.73658e-07
5.49166e-07
5.53056e-07
5.53811e-07
0.999997
0.999996
0.999996
0.999995
0.999995
0.999994
0.999993
0.999993
0.999992
0.999991
0.99999
0.99999
0.99999
0.99999
0.99999
0.99999
0.99999
0.99999
0.99999
0.99999
0.99999
0.99999
0.99999
0.99999
0.99999
0.99999
0.99999
0.99999
0.99999
0.99999
0.99999
0.99999
0.99999
0.99999
0.99999
0.99999
0.99999
0.99999
0.99999
0.99999
0.99999
0.99999
0.99999
0.99999
0.99999
0.99999
0.99999
0.99999
0.99999
0.99999
0.999989
0.999987
0.999983
0.999978
0.999969
0.999934
0.999814
0.999257
0.997715
0.942288
0.0610009
0.000579171
2.27811e-06
1.34107e-06
1.34012e-06
1.30083e-06
1.3043e-06
1.27563e-06
1.27007e-06
1.24478e-06
1.2355e-06
1.21411e-06
1.20274e-06
1.18422e-06
1.16865e-06
1.15339e-06
1.14037e-06
1.12537e-06
1.11168e-06
1.09999e-06
1.08787e-06
1.07555e-06
1.06661e-06
1.0578e-06
1.05025e-06
1.04792e-06
1.0406e-06
1.00632e-06
9.33224e-07
8.45338e-07
7.5786e-07
6.64322e-07
5.78367e-07
5.4956e-07
5.53391e-07