/*--------------------------------*- C++ -*----------------------------------*\
| =========                 |                                                 |
| \\      /  F ield         | OpenFOAM: The Open Source CFD Toolbox           |
|  \\    /   O peration     | Version:  2.3.0                                 |
|   \\  /    A nd           | Web:      www.OpenFOAM.org                      |
|    \\/     M anipulation  |                                                 |
\*---------------------------------------------------------------------------*/
FoamFile
{
    version     2.0;
    format      ascii;
    class       volScalarField;
    location    "10";
    object      alpha.water;
}
// * * * * * * * * * * * * * * * * * * * * * * * * * * * * * * * * * * * * * //

dimensions      [0 0 0 0 0 0 0];

internalField   nonuniform List<scalar> 
6144
(
9.22673e-06
9.48072e-06
9.80805e-06
9.8925e-06
9.96655e-06
9.99426e-06
9.99162e-06
9.99653e-06
9.9943e-06
9.99674e-06
9.99474e-06
9.99719e-06
9.99549e-06
9.99698e-06
9.99589e-06
9.99721e-06
9.99676e-06
9.99733e-06
9.99722e-06
9.99772e-06
9.9977e-06
9.99794e-06
9.99796e-06
9.99812e-06
9.99814e-06
9.99822e-06
9.99819e-06
9.99831e-06
9.9982e-06
9.99849e-06
9.99803e-06
9.99877e-06
9.99772e-06
9.9993e-06
9.99712e-06
1.00001e-05
9.99766e-06
1e-05
9.99839e-06
9.99955e-06
9.99929e-06
9.99959e-06
1.00001e-05
1.00003e-05
1.00031e-05
1.00572e-05
1.20228e-05
2.17776e-05
3.15358e-05
3.3833e-05
3.35776e-05
3.62739e-05
3.96912e-05
4.35324e-05
4.59197e-05
5.00895e-05
5.14772e-05
5.26187e-05
0.00110419
0.0537292
0.951265
0.999604
0.999999
0.999999
0.999999
0.999999
0.999999
0.999999
0.999999
0.999999
0.999999
0.999999
0.999999
0.999999
0.999999
0.999999
0.999999
0.999999
0.999999
0.999999
0.999999
0.999999
0.999999
0.999999
0.999999
0.999999
0.999999
0.999999
0.999999
0.999999
0.999999
0.999999
0.999999
0.999999
0.999999
0.999999
9.04555e-06
9.23386e-06
9.45066e-06
9.60048e-06
9.81309e-06
9.92204e-06
9.9435e-06
9.97489e-06
9.9836e-06
9.99196e-06
9.99397e-06
9.99646e-06
9.99533e-06
9.99638e-06
9.99519e-06
9.99629e-06
9.99557e-06
9.99595e-06
9.99568e-06
9.99614e-06
9.99603e-06
9.99614e-06
9.99614e-06
9.99621e-06
9.99622e-06
9.99623e-06
9.99623e-06
9.99624e-06
9.99624e-06
9.99634e-06
9.99622e-06
9.9964e-06
9.99588e-06
9.99691e-06
9.99531e-06
9.99775e-06
9.99577e-06
9.99766e-06
9.99667e-06
9.99723e-06
9.99731e-06
9.99756e-06
9.99765e-06
9.99765e-06
1.00044e-05
1.0344e-05
1.42745e-05
2.06838e-05
2.37759e-05
2.35919e-05
2.70739e-05
3.40807e-05
4.00705e-05
4.99673e-05
5.60136e-05
6.59248e-05
6.56537e-05
6.92541e-05
0.000493692
0.0357726
0.952357
0.999821
0.999999
0.999999
0.999999
0.999999
0.999999
0.999999
0.999999
0.999999
0.999999
0.999999
0.999999
0.999999
0.999999
0.999999
0.999999
0.999999
0.999999
0.999999
0.999999
0.999999
0.999999
0.999999
0.999999
0.999999
0.999999
0.999999
0.999999
0.999999
0.999999
0.999999
0.999999
0.999999
0.999999
0.999999
9.0451e-06
9.18376e-06
9.30102e-06
9.46139e-06
9.62153e-06
9.7814e-06
9.80795e-06
9.896e-06
9.92325e-06
9.96198e-06
9.98676e-06
9.99669e-06
9.99704e-06
9.9981e-06
9.99698e-06
9.99783e-06
9.99675e-06
9.99762e-06
9.99691e-06
9.99755e-06
9.99711e-06
9.99744e-06
9.99721e-06
9.99732e-06
9.99724e-06
9.99725e-06
9.99719e-06
9.99724e-06
9.99709e-06
9.99734e-06
9.99671e-06
9.99761e-06
9.99645e-06
9.998e-06
9.99623e-06
9.99849e-06
9.99595e-06
9.99899e-06
9.99667e-06
9.99908e-06
9.9976e-06
9.99885e-06
9.99822e-06
9.99766e-06
1.00063e-05
1.00427e-05
1.10866e-05
1.49213e-05
1.66319e-05
1.69729e-05
2.98083e-05
4.48137e-05
5.58179e-05
6.80642e-05
7.27252e-05
8.09761e-05
7.73701e-05
7.87842e-05
0.000230311
0.0431065
0.969419
0.999957
0.999999
0.999999
0.999999
0.999999
0.999999
0.999999
0.999999
0.999999
0.999999
0.999999
0.999999
0.999999
0.999999
0.999999
0.999999
0.999999
0.999999
0.999999
0.999999
0.999999
0.999999
0.999999
0.999999
0.999999
0.999999
0.999999
0.999999
0.999999
0.999999
0.999999
0.999999
0.999999
0.999999
0.999999
9.03605e-06
9.14222e-06
9.28552e-06
9.42321e-06
9.59408e-06
9.71549e-06
9.77206e-06
9.8639e-06
9.87011e-06
9.92071e-06
9.9629e-06
9.99031e-06
9.99705e-06
9.99826e-06
9.99743e-06
9.99799e-06
9.99738e-06
9.9978e-06
9.99742e-06
9.9978e-06
9.99752e-06
9.99775e-06
9.99758e-06
9.99768e-06
9.9976e-06
9.99761e-06
9.99757e-06
9.99759e-06
9.99754e-06
9.99764e-06
9.99728e-06
9.99787e-06
9.99707e-06
9.99819e-06
9.9968e-06
9.9986e-06
9.99656e-06
9.99929e-06
9.99679e-06
9.99957e-06
9.99769e-06
9.9994e-06
9.99867e-06
9.99923e-06
1.00077e-05
1.00437e-05
1.0141e-05
1.07223e-05
1.17936e-05
1.84824e-05
4.42348e-05
6.13435e-05
7.10001e-05
7.91073e-05
8.13676e-05
8.94498e-05
8.01643e-05
7.9999e-05
0.000104884
0.0496601
0.97001
0.999968
0.999999
0.999999
0.999999
0.999998
0.999999
0.999999
0.999999
0.999999
0.999998
0.999999
0.999999
0.999999
0.999999
0.999999
0.999999
0.999999
0.999999
0.999999
0.999999
0.999999
0.999999
0.999999
0.999999
0.999999
0.999999
0.999999
0.999999
0.999999
0.999999
0.999999
0.999999
0.999999
0.999999
0.999999
8.92526e-06
8.91946e-06
9.21656e-06
9.26026e-06
9.42505e-06
9.5086e-06
9.77262e-06
9.8847e-06
9.9124e-06
9.94385e-06
9.9544e-06
9.98531e-06
9.9956e-06
9.9977e-06
9.99745e-06
9.99787e-06
9.99757e-06
9.99785e-06
9.99763e-06
9.9979e-06
9.99773e-06
9.99791e-06
9.99779e-06
9.99788e-06
9.99781e-06
9.99783e-06
9.99778e-06
9.9978e-06
9.99775e-06
9.99781e-06
9.99751e-06
9.99795e-06
9.99729e-06
9.9982e-06
9.99697e-06
9.99846e-06
9.99674e-06
9.99872e-06
9.99668e-06
9.99895e-06
9.99677e-06
9.99827e-06
9.99771e-06
9.99997e-06
1.00133e-05
1.00543e-05
1.01235e-05
1.02955e-05
1.102e-05
2.41049e-05
5.68641e-05
7.27494e-05
7.71163e-05
8.18893e-05
8.37197e-05
9.40859e-05
8.2163e-05
8.05468e-05
0.000110498
0.086063
0.967312
0.999871
0.99991
0.999925
0.999916
0.999913
0.99991
0.999906
0.999905
0.999914
0.999919
0.999925
0.999932
0.999941
0.999952
0.999963
0.999973
0.999982
0.999989
0.999995
0.999998
0.999999
0.999999
0.999999
0.999999
0.999999
0.999999
0.999999
0.999999
0.999999
0.999999
0.999999
0.999999
0.999999
0.999999
0.999999
8.71836e-06
8.60326e-06
9.0546e-06
9.02706e-06
9.11436e-06
9.16136e-06
9.41719e-06
9.67053e-06
9.89806e-06
9.96751e-06
9.97603e-06
9.98596e-06
9.99233e-06
9.99471e-06
9.99457e-06
9.99456e-06
9.99456e-06
9.99456e-06
9.99455e-06
9.99455e-06
9.99455e-06
9.99454e-06
9.99454e-06
9.99454e-06
9.99453e-06
9.99452e-06
9.99452e-06
9.99448e-06
9.99445e-06
9.99445e-06
9.99444e-06
9.99443e-06
9.99443e-06
9.99443e-06
9.99443e-06
9.99442e-06
9.99442e-06
9.99442e-06
9.99442e-06
9.99519e-06
9.99551e-06
9.99619e-06
9.99691e-06
1.00011e-05
1.00221e-05
1.00789e-05
1.01544e-05
1.04754e-05
1.1493e-05
2.53545e-05
6.38857e-05
7.56646e-05
7.75194e-05
8.20909e-05
8.39599e-05
9.52843e-05
7.75465e-05
8.30287e-05
4.26369e-05
0.180501
0.971774
0.99775
0.997858
0.997976
0.997798
0.997622
0.997426
0.99728
0.997199
0.997168
0.997271
0.997413
0.997598
0.997828
0.998098
0.998414
0.99875
0.999082
0.999378
0.999623
0.999814
0.999936
0.999986
0.999998
0.999999
0.999999
0.999999
0.999999
0.999999
0.999999
0.999999
0.999999
0.999999
0.999999
0.999999
1
8.43315e-06
8.17942e-06
8.78196e-06
8.76676e-06
8.97208e-06
9.02036e-06
9.05251e-06
9.2071e-06
9.58396e-06
9.90058e-06
9.9755e-06
9.9941e-06
9.99623e-06
9.99863e-06
9.99722e-06
9.9982e-06
9.99729e-06
9.99805e-06
9.99762e-06
9.99817e-06
9.99791e-06
9.99822e-06
9.99809e-06
9.99832e-06
9.99831e-06
9.99849e-06
9.99859e-06
9.99879e-06
9.99888e-06
9.99923e-06
9.9992e-06
9.99974e-06
9.99954e-06
1.00003e-05
9.99985e-06
1.00009e-05
1.00004e-05
1.00019e-05
1.00016e-05
1.00023e-05
1.0002e-05
1.00019e-05
1.00011e-05
1.00072e-05
1.00308e-05
1.00915e-05
1.02111e-05
1.07495e-05
1.21599e-05
2.10349e-05
5.75823e-05
7.21558e-05
6.82458e-05
7.92946e-05
8.754e-05
9.75908e-05
8.60052e-05
9.04568e-05
4.26369e-05
0.308641
0.982833
0.989374
0.989113
0.988934
0.988634
0.988263
0.987962
0.987774
0.987642
0.987612
0.987851
0.988067
0.988369
0.988729
0.989178
0.989756
0.990467
0.991338
0.992429
0.993635
0.994964
0.996283
0.997535
0.998612
0.999399
0.999794
0.999975
0.999984
1
1
1
1
1
1
1
1
8.15924e-06
7.87317e-06
8.23639e-06
8.33773e-06
8.80299e-06
8.94815e-06
8.92736e-06
8.90644e-06
9.06006e-06
9.6125e-06
9.91717e-06
9.98398e-06
9.99539e-06
9.99863e-06
9.998e-06
9.99846e-06
9.9984e-06
9.99951e-06
9.99965e-06
1.00005e-05
1.00006e-05
1.00012e-05
1.00013e-05
1.00016e-05
1.00018e-05
1.00022e-05
1.00024e-05
1.00024e-05
1.00024e-05
1.00024e-05
1.00024e-05
1.00024e-05
1.00024e-05
1.00024e-05
1.00024e-05
1.00024e-05
1.00024e-05
1.00024e-05
1.00023e-05
1.00023e-05
1.00017e-05
1.00018e-05
1.00012e-05
1.00081e-05
1.00287e-05
1.00981e-05
1.02486e-05
1.10559e-05
1.32148e-05
3.15628e-05
6.42047e-05
6.70893e-05
5.36631e-05
5.37429e-05
5.84974e-05
6.03867e-05
5.93913e-05
6.32182e-05
4.26369e-05
0.348478
0.976862
0.983762
0.98337
0.983145
0.983022
0.982922
0.982809
0.98267
0.982591
0.98242
0.982242
0.982157
0.98215
0.982103
0.982118
0.982326
0.98242
0.982528
0.982643
0.982708
0.982812
0.982862
0.982868
0.982706
0.982482
0.982256
0.981899
0.981242
0.980353
0.979462
0.978659
0.978084
0.977761
0.977677
0.98045
0.984173
7.57941e-06
7.96643e-06
7.81741e-06
7.87539e-06
8.29214e-06
8.74358e-06
8.85996e-06
8.752e-06
8.63588e-06
9.19084e-06
9.80614e-06
9.98e-06
9.99002e-06
9.99195e-06
9.99151e-06
9.99208e-06
9.99248e-06
9.9938e-06
9.99418e-06
9.99518e-06
9.99534e-06
9.9959e-06
9.99602e-06
9.99632e-06
9.99637e-06
9.99648e-06
9.99644e-06
9.99637e-06
9.99616e-06
9.99599e-06
9.99575e-06
9.99571e-06
9.99551e-06
9.99548e-06
9.99538e-06
9.99537e-06
9.99537e-06
9.99537e-06
9.99537e-06
9.99537e-06
9.99537e-06
9.99606e-06
9.99941e-06
1.0007e-05
1.00159e-05
1.00477e-05
1.01132e-05
1.11697e-05
1.4758e-05
3.55153e-05
6.24806e-05
5.91463e-05
5.09123e-05
5.25281e-05
5.4401e-05
5.50261e-05
5.47603e-05
5.16702e-05
4.26369e-05
0.219504
0.968771
0.989218
0.989112
0.989519
0.989619
0.989476
0.989417
0.989316
0.989105
0.988861
0.988475
0.988019
0.987428
0.986856
0.986291
0.98575
0.985349
0.984959
0.984298
0.9837
0.983173
0.982624
0.98211
0.9817
0.981288
0.980816
0.98028
0.979929
0.979838
0.980185
0.980701
0.982051
0.984145
0.987637
0.992542
0.996484
7.33272e-06
8.14818e-06
7.99972e-06
7.7887e-06
7.69881e-06
8.32683e-06
8.70223e-06
8.62807e-06
8.36168e-06
8.87659e-06
9.71309e-06
9.98172e-06
9.99549e-06
9.99647e-06
9.99498e-06
9.99552e-06
9.99473e-06
9.9955e-06
9.99525e-06
9.99595e-06
9.99571e-06
9.99588e-06
9.99561e-06
9.9957e-06
9.99565e-06
9.99567e-06
9.99566e-06
9.99572e-06
9.99581e-06
9.99597e-06
9.99591e-06
9.996e-06
9.99591e-06
9.99617e-06
9.99613e-06
9.99651e-06
9.9965e-06
9.99685e-06
9.99699e-06
9.99803e-06
9.9993e-06
1.00024e-05
1.0004e-05
1.00094e-05
1.00159e-05
1.00366e-05
1.02335e-05
1.21391e-05
1.71746e-05
3.12078e-05
5.8706e-05
6.56263e-05
5.17476e-05
5.27611e-05
5.95178e-05
6.19668e-05
6.20818e-05
5.28428e-05
4.26369e-05
0.127224
0.967902
0.997067
0.997368
0.997882
0.997994
0.998006
0.997899
0.997848
0.997788
0.997715
0.997612
0.997485
0.997318
0.997127
0.996886
0.996633
0.996397
0.996167
0.995859
0.995469
0.99497
0.994388
0.993685
0.992924
0.992108
0.991297
0.990684
0.990463
0.990459
0.991294
0.992601
0.994376
0.996204
0.997946
0.99916
0.999666
3.98937e-06
7.53369e-06
8.07067e-06
7.81313e-06
7.55697e-06
7.96931e-06
8.35004e-06
8.43462e-06
8.14768e-06
8.53445e-06
9.57889e-06
9.95672e-06
9.99937e-06
1.00022e-05
9.99953e-06
9.99973e-06
9.99843e-06
9.99886e-06
9.99842e-06
9.9991e-06
9.99878e-06
9.99901e-06
9.99886e-06
9.99906e-06
9.99909e-06
9.99921e-06
9.99928e-06
9.99934e-06
9.99939e-06
9.99949e-06
9.99945e-06
9.9996e-06
9.99943e-06
9.99981e-06
9.99957e-06
1.00002e-05
9.99995e-06
1.00006e-05
1.00007e-05
1.00022e-05
1.00029e-05
1.00046e-05
1.00048e-05
1.00108e-05
1.00235e-05
1.00752e-05
1.03582e-05
1.22424e-05
1.66911e-05
2.43393e-05
5.3674e-05
7.01085e-05
6.28974e-05
5.58065e-05
5.47009e-05
6.08926e-05
6.9454e-05
6.45285e-05
4.26369e-05
0.0871449
0.978779
0.999734
0.999795
0.99985
0.999857
0.999858
0.999835
0.99982
0.999807
0.999798
0.99979
0.999773
0.99975
0.999729
0.99971
0.999692
0.999674
0.999655
0.999617
0.999571
0.999508
0.999434
0.999357
0.99928
0.999205
0.999135
0.99909
0.999084
0.999127
0.999258
0.999448
0.999677
0.999837
0.999939
0.999981
0.999992
4.92224e-06
6.78925e-06
6.92852e-06
7.0168e-06
6.99355e-06
7.42323e-06
7.83909e-06
8.09031e-06
7.80812e-06
8.24693e-06
9.43848e-06
9.93273e-06
1.00058e-05
1.00058e-05
1.00058e-05
1.00058e-05
1.00058e-05
1.00058e-05
1.00058e-05
1.00058e-05
1.00058e-05
1.00058e-05
1.00058e-05
1.00058e-05
1.00058e-05
1.00058e-05
1.00057e-05
1.00057e-05
1.00057e-05
1.00057e-05
1.00057e-05
1.00057e-05
1.00057e-05
1.00058e-05
1.00058e-05
1.0006e-05
1.0006e-05
1.00065e-05
1.00066e-05
1.00068e-05
1.00068e-05
1.00068e-05
1.00068e-05
1.0012e-05
1.00388e-05
1.01677e-05
1.05926e-05
1.28181e-05
1.86436e-05
2.75658e-05
5.24379e-05
6.70166e-05
7.09915e-05
6.91002e-05
6.54231e-05
6.81479e-05
6.97543e-05
7.79695e-05
7.64797e-05
0.0713614
0.989737
0.999995
0.999998
0.999999
0.999999
0.999999
0.999999
0.999999
0.999998
0.999998
0.999999
0.999999
0.999999
0.999998
0.999997
0.999999
0.999999
0.999999
0.999998
0.999998
0.999998
0.999996
0.999995
0.999993
0.999992
0.999992
0.999992
0.999993
0.999994
0.999995
0.999997
0.999998
0.999999
0.999999
0.999999
0.999999
4.45837e-06
5.69339e-06
5.74243e-06
6.00856e-06
6.2285e-06
6.58182e-06
7.07202e-06
7.3873e-06
7.27831e-06
7.97058e-06
9.32008e-06
9.92337e-06
1.00036e-05
1.00058e-05
1.00056e-05
1.00058e-05
1.00058e-05
1.00058e-05
1.00058e-05
1.00058e-05
1.00058e-05
1.00057e-05
1.00057e-05
1.00056e-05
1.00056e-05
1.00055e-05
1.00055e-05
1.00054e-05
1.00054e-05
1.00054e-05
1.00053e-05
1.00053e-05
1.00052e-05
1.00054e-05
1.00053e-05
1.00056e-05
1.00055e-05
1.00059e-05
1.00057e-05
1.0006e-05
1.00055e-05
1.00055e-05
1.00052e-05
1.00122e-05
1.00575e-05
1.02921e-05
1.09638e-05
1.37566e-05
2.14223e-05
3.3392e-05
5.15669e-05
6.38238e-05
6.95278e-05
7.2954e-05
7.57923e-05
8.16331e-05
7.93247e-05
8.14593e-05
0.000157179
0.0307299
0.962555
0.999999
0.999999
0.999999
0.999999
0.999999
0.999999
0.999999
0.999999
0.999999
0.999999
0.999999
0.999999
0.999999
0.999999
0.999999
0.999999
0.999999
0.999999
0.999999
0.999999
0.999999
0.999999
0.999999
0.999999
0.999999
0.999999
0.999999
0.999999
1
1
1
1
1
1
1
4.0587e-06
5.01274e-06
5.106e-06
5.34999e-06
5.66235e-06
6.03688e-06
6.42555e-06
6.67034e-06
6.72105e-06
7.80186e-06
9.32498e-06
9.92451e-06
9.99824e-06
1.00024e-05
1.00021e-05
1.00026e-05
1.00029e-05
1.00031e-05
1.00032e-05
1.00033e-05
1.00033e-05
1.00033e-05
1.00033e-05
1.00033e-05
1.00032e-05
1.00032e-05
1.00031e-05
1.0003e-05
1.0003e-05
1.00029e-05
1.00028e-05
1.00028e-05
1.00026e-05
1.00027e-05
1.00025e-05
1.00028e-05
1.00027e-05
1.00033e-05
1.00034e-05
1.00041e-05
1.0004e-05
1.00045e-05
1.00045e-05
1.00158e-05
1.00822e-05
1.03737e-05
1.13136e-05
1.49941e-05
2.38671e-05
3.4678e-05
4.70592e-05
5.8937e-05
6.3206e-05
6.96845e-05
7.77116e-05
8.27263e-05
7.8918e-05
8.3611e-05
0.00022629
0.0352617
0.956037
0.999992
0.999999
0.999999
0.999999
0.999999
0.999999
0.999999
0.999999
0.999999
0.999999
0.999999
0.999999
0.999999
0.999999
0.999999
0.999999
0.999999
0.999999
0.999999
0.999999
0.999999
0.999999
0.999999
0.999999
0.999999
0.999999
0.999999
0.999999
1
1
1
1
1
1
1
3.78952e-06
4.64835e-06
4.86809e-06
5.20216e-06
5.40478e-06
5.59408e-06
5.65388e-06
5.63787e-06
6.37645e-06
7.97097e-06
9.40394e-06
9.93681e-06
9.99659e-06
9.99967e-06
9.99841e-06
9.99907e-06
9.99884e-06
9.99918e-06
9.99906e-06
9.99932e-06
9.99917e-06
9.99937e-06
9.99925e-06
9.99939e-06
9.99936e-06
9.99943e-06
9.99945e-06
9.9995e-06
9.99956e-06
9.99966e-06
9.99972e-06
9.99994e-06
9.99996e-06
1.00003e-05
1.00003e-05
1.00007e-05
1.00007e-05
1.0001e-05
1.00007e-05
1.0001e-05
1.00003e-05
1.00004e-05
1.00003e-05
1.00154e-05
1.00786e-05
1.03369e-05
1.13437e-05
1.54326e-05
2.42734e-05
3.43561e-05
4.34697e-05
5.24507e-05
5.7306e-05
6.44764e-05
7.26436e-05
7.86577e-05
7.56517e-05
7.99722e-05
0.000329203
0.0384576
0.960859
0.999958
0.999999
0.999999
0.999999
0.999999
0.999999
0.999999
0.999999
0.999999
0.999999
0.999999
0.999999
0.999999
0.999999
0.999999
0.999999
0.999999
0.999999
0.999999
0.999999
0.999999
0.999999
0.999999
0.999999
0.999999
0.999999
0.999999
0.999999
1
1
1
1
1
1
1
3.41959e-06
3.89417e-06
4.08726e-06
4.27781e-06
4.43757e-06
4.65133e-06
5.01912e-06
5.89933e-06
7.07866e-06
8.53668e-06
9.63605e-06
9.97424e-06
1.00052e-05
1.00071e-05
1.00058e-05
1.00066e-05
1.00063e-05
1.00066e-05
1.00066e-05
1.00067e-05
1.00067e-05
1.00067e-05
1.00067e-05
1.00067e-05
1.00067e-05
1.00067e-05
1.00067e-05
1.00068e-05
1.00068e-05
1.00068e-05
1.00069e-05
1.0007e-05
1.0007e-05
1.00073e-05
1.00077e-05
1.00077e-05
1.00077e-05
1.00077e-05
1.00077e-05
1.00077e-05
1.00074e-05
1.00074e-05
1.0007e-05
1.00192e-05
1.00619e-05
1.02095e-05
1.09962e-05
1.493e-05
2.39633e-05
3.48593e-05
4.48644e-05
5.1999e-05
5.4946e-05
5.77636e-05
6.31987e-05
6.98849e-05
6.45138e-05
6.87826e-05
0.000722339
0.0440178
0.956124
0.999719
0.999999
0.999999
0.999999
0.999999
0.999999
0.999999
0.999999
0.999999
0.999999
0.999999
0.999999
0.999999
0.999999
0.999999
0.999999
0.999999
0.999999
0.999999
0.999999
0.999999
0.999999
0.999999
0.999999
0.999999
0.999999
0.999999
0.999999
0.999999
1
1
1
1
1
1
8.91227e-06
9.05526e-06
9.22779e-06
9.30962e-06
9.46595e-06
9.56696e-06
9.75796e-06
9.90066e-06
9.97774e-06
1.00032e-05
1.00065e-05
1.00065e-05
1.00065e-05
1.00065e-05
1.00065e-05
1.00065e-05
1.00063e-05
1.00063e-05
1.00062e-05
1.00062e-05
1.00061e-05
1.00061e-05
1.00061e-05
1.00061e-05
1.0006e-05
1.0006e-05
1.0006e-05
1.0006e-05
1.00059e-05
1.0006e-05
1.00061e-05
1.00061e-05
1.00061e-05
1.00061e-05
1.00061e-05
1.00061e-05
1.00061e-05
1.00061e-05
1.00061e-05
1.00061e-05
1.00061e-05
1.00056e-05
1.00052e-05
1.00041e-05
1.00056e-05
1.00381e-05
1.16481e-05
2.06765e-05
3.04161e-05
3.36145e-05
3.4404e-05
3.81885e-05
4.21193e-05
4.43016e-05
4.54417e-05
4.85948e-05
4.89452e-05
6.42829e-05
0.000617579
0.0394097
0.956247
0.999787
0.999999
0.999999
0.999999
0.999999
0.999999
0.999999
0.999999
0.999999
0.999999
0.999999
0.999999
0.999999
0.999999
0.999999
0.999999
0.999999
0.999999
0.999999
0.999999
0.999999
0.999999
0.999999
0.999999
0.999999
0.999999
0.999999
0.999999
0.999999
0.999999
0.999999
0.999999
0.999999
0.999999
0.999999
8.80578e-06
8.82822e-06
8.77463e-06
8.77545e-06
8.77463e-06
8.82894e-06
8.95234e-06
9.17083e-06
9.54279e-06
9.85551e-06
9.97233e-06
1.00027e-05
1.00054e-05
1.0006e-05
1.00054e-05
1.00057e-05
1.00051e-05
1.00054e-05
1.00049e-05
1.00051e-05
1.00048e-05
1.00049e-05
1.00047e-05
1.00047e-05
1.00046e-05
1.00045e-05
1.00044e-05
1.00043e-05
1.00042e-05
1.00042e-05
1.0004e-05
1.00041e-05
1.00038e-05
1.00041e-05
1.00036e-05
1.00042e-05
1.00037e-05
1.00041e-05
1.00038e-05
1.00039e-05
1.00035e-05
1.00036e-05
1.00032e-05
1.0002e-05
1.00093e-05
1.02848e-05
1.37493e-05
2.05296e-05
2.54283e-05
2.62581e-05
2.99948e-05
4.18772e-05
5.17131e-05
5.44149e-05
5.44799e-05
5.56218e-05
5.5943e-05
7.61653e-05
0.000363548
0.0598779
0.972957
0.999983
0.999999
0.999999
0.999999
0.999999
0.999999
0.999999
0.999999
0.999999
0.999999
0.999999
0.999999
0.999999
0.999999
0.999999
0.999999
0.999999
0.999999
0.999999
0.999999
0.999999
0.999999
0.999999
0.999999
0.999999
0.999999
0.999999
0.999999
0.999999
0.999999
0.999999
0.999999
0.999999
0.999999
0.999999
8.93329e-06
9.09803e-06
9.06813e-06
9.09409e-06
8.93253e-06
8.83701e-06
8.75294e-06
8.75242e-06
8.94648e-06
9.41186e-06
9.81326e-06
9.97052e-06
1.00041e-05
1.0006e-05
1.0006e-05
1.0006e-05
1.0006e-05
1.0006e-05
1.00059e-05
1.00059e-05
1.00058e-05
1.00058e-05
1.00056e-05
1.00056e-05
1.00054e-05
1.00054e-05
1.00052e-05
1.00051e-05
1.00049e-05
1.00049e-05
1.00048e-05
1.00047e-05
1.00046e-05
1.00046e-05
1.00045e-05
1.00045e-05
1.00044e-05
1.00044e-05
1.00043e-05
1.00043e-05
1.00037e-05
1.00046e-05
1.00053e-05
1.00109e-05
1.00216e-05
1.00877e-05
1.14973e-05
1.57544e-05
1.81087e-05
2.05051e-05
4.598e-05
6.46512e-05
6.4133e-05
6.3622e-05
6.2379e-05
5.83409e-05
5.59026e-05
7.29667e-05
0.000285739
0.0706189
0.975132
0.999999
0.999999
0.999999
0.999999
0.999999
0.999999
0.999999
0.999999
0.999999
0.999999
0.999998
0.999999
0.999999
0.999999
0.999999
0.999999
0.999999
0.999999
0.999999
0.999999
0.999999
0.999999
0.999999
0.999999
0.999999
0.999999
0.999999
0.999999
0.999999
0.999999
0.999999
0.999999
0.999999
0.999999
0.999999
8.78588e-06
9.1728e-06
9.22035e-06
9.31255e-06
9.33477e-06
9.27618e-06
8.97904e-06
8.82038e-06
8.81041e-06
9.0114e-06
9.59892e-06
9.91374e-06
9.99412e-06
1.00024e-05
1.00017e-05
1.00025e-05
1.00019e-05
1.00021e-05
1.00017e-05
1.00018e-05
1.00015e-05
1.00015e-05
1.00013e-05
1.00013e-05
1.00012e-05
1.00011e-05
1.0001e-05
1.00009e-05
1.00007e-05
1.00007e-05
1.00005e-05
1.00005e-05
1.00003e-05
1.00004e-05
1.00001e-05
1.00004e-05
9.99999e-06
1.00007e-05
1e-05
1.00005e-05
9.99975e-06
1.00014e-05
1.00039e-05
1.00196e-05
1.00509e-05
1.01044e-05
1.01668e-05
1.07768e-05
1.14948e-05
4.0524e-05
7.86374e-05
7.49616e-05
6.65245e-05
6.48904e-05
5.97697e-05
5.79053e-05
6.8426e-05
7.02611e-05
0.000133648
0.084462
0.980138
0.999995
0.999985
0.999989
0.999986
0.999983
0.999979
0.999975
0.999972
0.999971
0.999969
0.999968
0.999967
0.999971
0.999975
0.999982
0.999988
0.999993
0.999996
0.999998
0.999999
0.999999
0.999999
0.999999
0.999999
0.999999
0.999999
0.999999
0.999999
0.999999
0.999999
0.999999
0.999999
0.999999
0.999999
0.999999
8.42087e-06
9.08042e-06
9.12135e-06
9.29417e-06
9.39917e-06
9.46472e-06
9.3498e-06
9.04343e-06
8.81111e-06
8.89731e-06
9.43841e-06
9.87158e-06
9.98893e-06
1.00005e-05
9.99962e-06
1.00005e-05
9.99979e-06
1e-05
9.99959e-06
9.99958e-06
9.9993e-06
9.99928e-06
9.99908e-06
9.99906e-06
9.99893e-06
9.99886e-06
9.99876e-06
9.99868e-06
9.99857e-06
9.99849e-06
9.99835e-06
9.99827e-06
9.9981e-06
9.99814e-06
9.99794e-06
9.99813e-06
9.9979e-06
9.99834e-06
9.998e-06
9.99847e-06
9.99811e-06
9.99959e-06
1.00033e-05
1.00241e-05
1.00884e-05
1.02496e-05
1.04398e-05
1.07087e-05
1.12704e-05
6.55981e-05
9.17559e-05
8.04405e-05
7.61023e-05
7.38178e-05
6.88615e-05
6.93913e-05
6.485e-05
5.68944e-05
4.69721e-05
0.125914
0.986957
0.999431
0.999433
0.999471
0.999342
0.999239
0.999113
0.999011
0.998907
0.998839
0.998787
0.998767
0.998795
0.998864
0.998987
0.999162
0.999355
0.999541
0.999704
0.999828
0.999914
0.999966
0.99999
0.999998
0.999999
0.999999
0.999999
0.999999
0.999999
0.999999
0.999999
0.999999
0.999999
0.999999
0.999999
0.999999
8.26583e-06
8.54396e-06
8.7e-06
9.00928e-06
9.33991e-06
9.47195e-06
9.50056e-06
9.29644e-06
8.9443e-06
8.88012e-06
9.36357e-06
9.84978e-06
9.98591e-06
9.99903e-06
9.99805e-06
9.99875e-06
9.99802e-06
9.99815e-06
9.99765e-06
9.99762e-06
9.99729e-06
9.99725e-06
9.99703e-06
9.99699e-06
9.99685e-06
9.9968e-06
9.99672e-06
9.99668e-06
9.99664e-06
9.99662e-06
9.99656e-06
9.99659e-06
9.99651e-06
9.99658e-06
9.99651e-06
9.99679e-06
9.99674e-06
9.99721e-06
9.99702e-06
9.99759e-06
9.99726e-06
9.9981e-06
1.00008e-05
1.00186e-05
1.00835e-05
1.02749e-05
1.06765e-05
1.16879e-05
1.31235e-05
6.61904e-05
0.000106925
8.95976e-05
7.7988e-05
7.28224e-05
7.17201e-05
6.86167e-05
5.87432e-05
4.78334e-05
4.26369e-05
0.271838
0.988031
0.994329
0.9943
0.994321
0.993823
0.993332
0.992781
0.992314
0.991951
0.9917
0.991541
0.991436
0.991386
0.99158
0.99192
0.992503
0.993234
0.994062
0.995029
0.996108
0.997194
0.9982
0.998999
0.999539
0.999841
0.999957
0.999989
0.999996
0.999999
0.999999
0.999999
0.999999
0.999999
0.999999
0.999999
0.999999
7.91054e-06
7.71267e-06
8.14154e-06
8.56146e-06
9.10053e-06
9.43881e-06
9.5334e-06
9.46106e-06
9.07451e-06
8.87972e-06
9.3519e-06
9.84449e-06
9.98519e-06
9.99847e-06
9.99757e-06
9.99806e-06
9.99735e-06
9.9974e-06
9.99692e-06
9.99688e-06
9.99657e-06
9.99653e-06
9.99632e-06
9.9963e-06
9.99619e-06
9.99617e-06
9.99613e-06
9.99613e-06
9.99613e-06
9.99618e-06
9.99618e-06
9.99628e-06
9.99627e-06
9.99639e-06
9.99639e-06
9.99675e-06
9.99674e-06
9.9973e-06
9.99727e-06
9.99795e-06
9.99727e-06
9.99749e-06
9.99908e-06
1.00107e-05
1.00587e-05
1.02894e-05
1.0847e-05
1.22007e-05
1.39843e-05
2.63668e-05
0.000115021
0.000115711
0.000112897
0.000107888
0.000105515
0.000104793
0.000104449
0.000113575
4.26369e-05
0.470997
0.980506
0.983434
0.98326
0.982977
0.982667
0.98224
0.981923
0.98167
0.981472
0.981334
0.981187
0.981038
0.980925
0.980855
0.980801
0.980778
0.981064
0.981343
0.981728
0.982626
0.983825
0.985597
0.987693
0.990095
0.992639
0.994946
0.996713
0.998016
0.998954
0.999338
0.99952
0.99969
0.999659
0.999966
0.999884
0.999084
7.46115e-06
6.94649e-06
7.46359e-06
7.89984e-06
8.61898e-06
9.04892e-06
9.50579e-06
9.54705e-06
9.22603e-06
8.91509e-06
9.425e-06
9.85796e-06
9.98702e-06
9.99831e-06
9.99823e-06
9.99838e-06
9.99814e-06
9.99821e-06
9.99798e-06
9.99798e-06
9.99783e-06
9.99784e-06
9.99773e-06
9.99776e-06
9.99769e-06
9.99769e-06
9.99765e-06
9.99766e-06
9.99764e-06
9.9977e-06
9.99765e-06
9.99777e-06
9.99767e-06
9.99794e-06
9.99782e-06
9.99824e-06
9.99806e-06
9.99849e-06
9.99829e-06
9.99874e-06
9.99814e-06
9.99807e-06
9.99908e-06
1.00099e-05
1.00581e-05
1.03602e-05
1.1006e-05
1.23604e-05
1.40997e-05
4.79372e-05
9.28299e-05
7.18355e-05
6.88535e-05
8.59931e-05
9.64412e-05
9.65677e-05
9.01351e-05
9.08812e-05
7.21997e-05
0.418673
0.973621
0.97897
0.978859
0.978718
0.978711
0.978715
0.978711
0.978932
0.978622
0.978483
0.978459
0.978474
0.978432
0.978138
0.977685
0.976969
0.976103
0.975045
0.973851
0.972847
0.972044
0.971181
0.970387
0.96928
0.967987
0.966608
0.965123
0.963203
0.960852
0.957502
0.952001
0.943688
0.930628
0.908563
0.855313
0.640851
7.03221e-06
6.7149e-06
6.53333e-06
6.74849e-06
7.6496e-06
8.36925e-06
9.14473e-06
9.56168e-06
9.31178e-06
8.96664e-06
9.47449e-06
9.88177e-06
9.99222e-06
1.00006e-05
1.00003e-05
1.00003e-05
9.99994e-06
9.99997e-06
9.9998e-06
9.99982e-06
9.99972e-06
9.99973e-06
9.99969e-06
9.99969e-06
9.99967e-06
9.99965e-06
9.9996e-06
9.99959e-06
9.99954e-06
9.99958e-06
9.99952e-06
9.99966e-06
9.99957e-06
9.99985e-06
9.99984e-06
1.00003e-05
1.00002e-05
1.00006e-05
1.00006e-05
1.00011e-05
1.00006e-05
1.00006e-05
1.00013e-05
1.00126e-05
1.00675e-05
1.04037e-05
1.10729e-05
1.23324e-05
1.43308e-05
4.64075e-05
7.93872e-05
5.8728e-05
5.31023e-05
5.55723e-05
6.16518e-05
6.86227e-05
8.09542e-05
9.9646e-05
0.000103575
0.209403
0.97645
0.990748
0.991421
0.992688
0.993286
0.99343
0.992789
0.992326
0.991861
0.991538
0.991273
0.990965
0.99066
0.990482
0.990458
0.990076
0.989454
0.988719
0.987851
0.986752
0.985206
0.982997
0.98013
0.977029
0.973723
0.970188
0.966472
0.962659
0.95854
0.955138
0.952393
0.94773
0.94085
0.932716
0.926943
0.930757
6.23405e-06
6.94624e-06
6.56344e-06
6.269e-06
6.50541e-06
7.29365e-06
8.48639e-06
9.42049e-06
9.31929e-06
8.83471e-06
9.50146e-06
9.89609e-06
9.99413e-06
1.00013e-05
1.00013e-05
1.00013e-05
1.00011e-05
1.00011e-05
1.0001e-05
1.0001e-05
1.00009e-05
1.00009e-05
1.00009e-05
1.00008e-05
1.00008e-05
1.00008e-05
1.00008e-05
1.00007e-05
1.00007e-05
1.00007e-05
1.00005e-05
1.00007e-05
1.00005e-05
1.00007e-05
1.00007e-05
1.00011e-05
1.0001e-05
1.00013e-05
1.00012e-05
1.00017e-05
1.00011e-05
1.00011e-05
1.00009e-05
1.00031e-05
1.00449e-05
1.03947e-05
1.11288e-05
1.23008e-05
1.47516e-05
2.45705e-05
7.85883e-05
6.64557e-05
5.70007e-05
5.58579e-05
5.72667e-05
6.21404e-05
6.95798e-05
9.64949e-05
9.80385e-05
0.120249
0.982533
0.998202
0.998482
0.9989
0.999032
0.999106
0.999048
0.998973
0.998908
0.998845
0.998732
0.998577
0.998426
0.998283
0.998158
0.998062
0.997951
0.997913
0.997883
0.997748
0.997475
0.996893
0.996045
0.994954
0.993771
0.992525
0.991272
0.990047
0.98864
0.987164
0.985785
0.985052
0.98497
0.988382
0.992554
0.996778
4.28251e-06
6.6522e-06
6.59399e-06
5.94292e-06
5.67329e-06
6.45072e-06
7.76116e-06
9.08624e-06
9.1539e-06
8.70697e-06
9.5044e-06
9.90478e-06
9.99351e-06
1.00013e-05
1.00013e-05
1.00013e-05
1.00013e-05
1.00013e-05
1.00013e-05
1.00013e-05
1.00013e-05
1.00013e-05
1.00013e-05
1.00013e-05
1.00013e-05
1.00013e-05
1.00013e-05
1.00013e-05
1.00013e-05
1.00013e-05
1.00012e-05
1.00014e-05
1.00012e-05
1.00013e-05
1.00012e-05
1.00016e-05
1.00016e-05
1.00017e-05
1.00017e-05
1.00021e-05
1.00015e-05
1.00013e-05
1.00006e-05
1.00015e-05
1.00498e-05
1.04645e-05
1.12331e-05
1.24335e-05
1.52757e-05
1.85864e-05
7.21838e-05
7.48351e-05
7.12801e-05
6.76175e-05
6.94069e-05
7.80493e-05
8.82016e-05
0.000103287
0.000112121
0.0814817
0.990985
0.999858
0.99988
0.99992
0.999928
0.999935
0.999933
0.999931
0.999931
0.999931
0.999929
0.999921
0.999908
0.999892
0.999871
0.999854
0.999848
0.999858
0.999862
0.99986
0.999843
0.999797
0.999737
0.999659
0.999587
0.999537
0.999522
0.999541
0.999547
0.999562
0.999564
0.999547
0.999655
0.999812
0.999918
0.999969
4.54292e-06
5.2443e-06
5.08416e-06
4.88531e-06
4.92629e-06
5.55165e-06
6.98458e-06
8.76285e-06
8.81701e-06
8.5063e-06
9.51953e-06
9.92526e-06
9.99672e-06
1.0001e-05
1.00009e-05
1.00009e-05
1.0001e-05
1.00012e-05
1.0001e-05
1.00012e-05
1.00011e-05
1.00013e-05
1.00012e-05
1.00013e-05
1.00013e-05
1.00013e-05
1.00013e-05
1.00013e-05
1.00013e-05
1.00013e-05
1.00012e-05
1.00014e-05
1.00011e-05
1.00013e-05
1.00007e-05
1.00012e-05
1.00008e-05
1.00017e-05
1.0001e-05
1.00015e-05
1.00015e-05
1.00015e-05
1.00008e-05
1.00023e-05
1.00611e-05
1.0479e-05
1.12715e-05
1.29605e-05
1.6449e-05
2.29039e-05
5.96868e-05
7.69755e-05
7.68759e-05
7.81627e-05
8.75713e-05
0.000106162
0.000110243
0.000120236
0.000199532
0.0453286
0.989358
0.999999
0.999992
0.999998
0.999998
0.999999
0.999999
0.999999
0.999998
0.999998
0.999998
0.999998
0.999998
0.999998
0.999998
0.999998
0.999998
0.999998
0.999998
0.999998
0.999998
0.999997
0.999996
0.999996
0.999995
0.999996
0.999997
0.999998
0.999998
0.999998
0.999999
0.999999
0.999999
0.999999
0.999999
0.999999
3.92181e-06
4.35586e-06
4.23564e-06
4.17821e-06
4.39493e-06
4.87481e-06
6.27154e-06
8.42037e-06
8.24488e-06
8.27096e-06
9.50849e-06
9.93968e-06
9.99874e-06
1.00015e-05
1.0001e-05
1.00013e-05
1.00011e-05
1.0001e-05
1.00009e-05
1.00007e-05
1.00005e-05
1.00003e-05
1e-05
9.99989e-06
9.9997e-06
9.99956e-06
9.9994e-06
9.99927e-06
9.99913e-06
9.99901e-06
9.99889e-06
9.9988e-06
9.99866e-06
9.99868e-06
9.99862e-06
9.99893e-06
9.9988e-06
9.99902e-06
9.99873e-06
9.99905e-06
9.99846e-06