/*--------------------------------*- C++ -*----------------------------------*\
| =========                 |                                                 |
| \\      /  F ield         | OpenFOAM: The Open Source CFD Toolbox           |
|  \\    /   O peration     | Version:  2.3.0                                 |
|   \\  /    A nd           | Web:      www.OpenFOAM.org                      |
|    \\/     M anipulation  |                                                 |
\*---------------------------------------------------------------------------*/
FoamFile
{
    version     2.0;
    format      ascii;
    class       volScalarField;
    location    "10";
    object      alpha.air;
}
// * * * * * * * * * * * * * * * * * * * * * * * * * * * * * * * * * * * * * //

dimensions      [0 0 0 0 0 0 0];

internalField   nonuniform List<scalar> 
6144
(
0.999991
0.999991
0.99999
0.99999
0.99999
0.99999
0.99999
0.99999
0.99999
0.99999
0.99999
0.99999
0.99999
0.99999
0.99999
0.99999
0.99999
0.99999
0.99999
0.99999
0.99999
0.99999
0.99999
0.99999
0.99999
0.99999
0.99999
0.99999
0.99999
0.99999
0.99999
0.99999
0.99999
0.99999
0.99999
0.99999
0.99999
0.99999
0.99999
0.99999
0.99999
0.99999
0.99999
0.99999
0.99999
0.99999
0.99999
0.99999
0.99999
0.99999
0.99999
0.999989
0.999986
0.99996
0.999926
0.999853
0.999761
0.99931
0.998871
0.954314
0.0481506
0.000303541
9.69654e-07
7.62801e-07
7.64569e-07
7.64574e-07
7.6477e-07
7.65829e-07
7.67296e-07
7.68313e-07
7.69239e-07
7.70379e-07
7.71925e-07
7.73726e-07
7.7609e-07
7.7973e-07
7.84998e-07
7.90133e-07
7.9089e-07
7.9037e-07
7.88632e-07
7.86063e-07
7.8363e-07
7.83352e-07
7.83279e-07
7.83759e-07
7.8471e-07
7.80504e-07
7.01471e-07
4.29458e-07
3.10521e-07
2.75239e-07
2.60956e-07
2.57097e-07
2.57019e-07
2.57008e-07
0.999991
0.999991
0.999991
0.99999
0.99999
0.99999
0.99999
0.99999
0.99999
0.99999
0.99999
0.99999
0.99999
0.99999
0.99999
0.99999
0.99999
0.99999
0.99999
0.99999
0.99999
0.99999
0.99999
0.99999
0.99999
0.99999
0.99999
0.99999
0.99999
0.99999
0.99999
0.99999
0.99999
0.99999
0.99999
0.99999
0.99999
0.99999
0.99999
0.99999
0.99999
0.99999
0.99999
0.99999
0.99999
0.99999
0.99999
0.99999
0.99999
0.99999
0.99999
0.99999
0.999988
0.999964
0.999922
0.999869
0.999736
0.999169
0.998579
0.960829
0.0459574
9.94871e-05
7.6966e-07
7.92152e-07
7.82861e-07
7.73052e-07
7.70162e-07
7.68334e-07
7.66648e-07
7.65332e-07
7.65753e-07
7.68134e-07
7.72014e-07
7.74975e-07
7.7717e-07
7.7864e-07
7.80065e-07
7.82013e-07
7.83108e-07
7.83295e-07
7.8321e-07
7.82648e-07
7.81722e-07
7.80484e-07
7.8068e-07
7.82293e-07
7.8543e-07
7.82779e-07
7.18086e-07
4.97123e-07
3.62357e-07
3.0955e-07
2.78617e-07
2.5707e-07
2.57008e-07
2.56926e-07
0.999991
0.999991
0.999991
0.999991
0.99999
0.99999
0.99999
0.99999
0.99999
0.99999
0.99999
0.99999
0.99999
0.99999
0.99999
0.99999
0.99999
0.99999
0.99999
0.99999
0.99999
0.99999
0.99999
0.99999
0.99999
0.99999
0.99999
0.99999
0.99999
0.99999
0.99999
0.99999
0.99999
0.99999
0.99999
0.99999
0.99999
0.99999
0.99999
0.99999
0.99999
0.99999
0.99999
0.99999
0.99999
0.99999
0.99999
0.99999
0.99999
0.99999
0.99999
0.99999
0.999988
0.999979
0.999911
0.999856
0.999802
0.999335
0.999232
0.958428
0.0572792
1.63861e-06
7.69659e-07
8.18626e-07
8.15841e-07
8.14504e-07
8.1256e-07
8.07941e-07
8.01938e-07
7.95473e-07
7.87718e-07
7.78887e-07
7.77728e-07
7.7817e-07
7.8028e-07
7.83099e-07
7.90835e-07
7.98419e-07
7.96444e-07
7.92033e-07
7.8836e-07
7.82804e-07
7.77708e-07
7.74869e-07
7.75058e-07
7.77076e-07
7.79557e-07
7.77259e-07
7.12722e-07
5.34581e-07
4.4445e-07
3.82836e-07
3.32561e-07
2.75382e-07
2.56926e-07
2.56919e-07
0.999991
0.999991
0.999991
0.999991
0.99999
0.99999
0.99999
0.99999
0.99999
0.99999
0.99999
0.99999
0.99999
0.99999
0.99999
0.99999
0.99999
0.99999
0.99999
0.99999
0.99999
0.99999
0.99999
0.99999
0.99999
0.99999
0.99999
0.99999
0.99999
0.99999
0.99999
0.99999
0.99999
0.99999
0.99999
0.99999
0.99999
0.99999
0.99999
0.99999
0.99999
0.99999
0.99999
0.99999
0.99999
0.99999
0.99999
0.99999
0.99999
0.99999
0.99999
0.999988
0.999986
0.999967
0.999895
0.999856
0.999862
0.999467
0.999644
0.96292
0.0718818
7.69661e-07
7.6966e-07
9.26238e-07
8.43302e-07
8.23924e-07
8.11135e-07
7.9006e-07
7.5603e-07
7.55227e-07
7.65935e-07
8.37605e-07
8.7796e-07
8.5503e-07
8.34234e-07
8.04232e-07
7.89406e-07
7.8423e-07
7.83839e-07
7.83794e-07
7.88648e-07
7.88266e-07
7.84515e-07
7.83868e-07
7.83141e-07
7.85687e-07
7.87807e-07
7.60207e-07
6.67115e-07
5.6682e-07
5.14265e-07
4.55175e-07
3.99227e-07
3.15335e-07
2.5692e-07
2.56835e-07
0.999991
0.999991
0.999991
0.999991
0.999991
0.99999
0.99999
0.99999
0.99999
0.99999
0.99999
0.99999
0.99999
0.99999
0.99999
0.99999
0.99999
0.99999
0.99999
0.99999
0.99999
0.99999
0.99999
0.99999
0.99999
0.99999
0.99999
0.99999
0.99999
0.99999
0.99999
0.99999
0.99999
0.99999
0.99999
0.99999
0.99999
0.99999
0.99999
0.99999
0.99999
0.99999
0.99999
0.99999
0.99999
0.99999
0.99999
0.99999
0.99999
0.99999
0.999989
0.999986
0.999983
0.999968
0.999918
0.999851
0.999818
0.999595
0.999815
0.907229
0.025256
3.76212e-05
1.2592e-05
4.19572e-06
3.42149e-06
2.76844e-06
2.87049e-06
2.83545e-06
3.31024e-06
4.43047e-06
5.34972e-06
5.75298e-06
5.94532e-06
5.86377e-06
5.63008e-06
6.69798e-06
6.73158e-06
4.00268e-06
2.24806e-06
1.31853e-06
1.06465e-06
1.01983e-06
9.35186e-07
9.09043e-07
8.49282e-07
8.34702e-07
7.72524e-07
6.95542e-07
6.41421e-07
5.98866e-07
5.54062e-07
4.99661e-07
4.33337e-07
3.33024e-07
2.56835e-07
2.56828e-07
0.999991
0.999991
0.999991
0.999991
0.999991
0.999991
0.99999
0.99999
0.99999
0.99999
0.99999
0.99999
0.99999
0.99999
0.99999
0.99999
0.99999
0.99999
0.99999
0.99999
0.99999
0.99999
0.99999
0.99999
0.99999
0.99999
0.99999
0.99999
0.99999
0.99999
0.99999
0.99999
0.99999
0.99999
0.99999
0.99999
0.99999
0.99999
0.99999
0.99999
0.99999
0.99999
0.99999
0.99999
0.99999
0.99999
0.99999
0.99999
0.99999
0.99999
0.999988
0.999985
0.99998
0.999965
0.999892
0.999825
0.999831
0.999719
0.999939
0.800357
0.0144423
0.00120647
0.000972475
0.000702379
0.000599647
0.00053481
0.000560468
0.000663165
0.000693411
0.000663439
0.000656125
0.000863555
0.00104101
0.000919496
0.00086196
0.000881476
0.000858167
0.000695869
0.000505955
0.000344958
0.000227093
0.000137251
7.80935e-05
3.99459e-05
2.25204e-05
9.0362e-06
1.72359e-06
6.06125e-07
4.44547e-07
3.77655e-07
3.77395e-07
3.71976e-07
3.25873e-07
2.69128e-07
2.56828e-07
2.56827e-07
0.999991
0.999991
0.999991
0.999991
0.999991
0.999991
0.999991
0.999991
0.99999
0.99999
0.99999
0.99999
0.99999
0.99999
0.99999
0.99999
0.99999
0.99999
0.99999
0.99999
0.99999
0.99999
0.99999
0.99999
0.99999
0.99999
0.99999
0.99999
0.99999
0.99999
0.99999
0.99999
0.99999
0.99999
0.99999
0.99999
0.99999
0.99999
0.99999
0.99999
0.99999
0.99999
0.99999
0.99999
0.99999
0.99999
0.99999
0.99999
0.99999
0.99999
0.999987
0.999981
0.999973
0.999967
0.999918
0.999816
0.999816
0.999799
0.99999
0.605672
0.0116903
0.00871117
0.00944539
0.00915586
0.0073257
0.00677637
0.00689874
0.00768484
0.00772876
0.00770095
0.00789202
0.00809051
0.00826234
0.00838608
0.00871026
0.00867077
0.00785764
0.00727213
0.00662694
0.00559004
0.00464535
0.00374784
0.00316755
0.00275343
0.00223723
0.00150524
0.000786406
0.000361971
0.000106933
2.38237e-05
9.85301e-06
9.07456e-06
8.94965e-06
3.55252e-06
7.1624e-07
3.3353e-07
0.999991
0.999992
0.999991
0.999991
0.999991
0.999991
0.999991
0.999991
0.999991
0.99999
0.99999
0.99999
0.99999
0.99999
0.99999
0.99999
0.99999
0.99999
0.99999
0.99999
0.99999
0.99999
0.99999
0.99999
0.99999
0.99999
0.99999
0.99999
0.99999
0.99999
0.99999
0.99999
0.99999
0.99999
0.99999
0.99999
0.99999
0.99999
0.99999
0.99999
0.99999
0.99999
0.99999
0.99999
0.99999
0.99999
0.99999
0.99999
0.99999
0.999989
0.999986
0.99998
0.999968
0.999955
0.999942
0.999846
0.999776
0.999774
0.99999
0.531668
0.0216686
0.0184853
0.0196357
0.020187
0.0202007
0.0202487
0.0192571
0.0183874
0.0184076
0.0186675
0.0185115
0.0182317
0.0178387
0.0173066
0.016594
0.0158567
0.0152185
0.0147169
0.0142245
0.0133787
0.0123113
0.011735
0.012243
0.0128422
0.0115923
0.0105694
0.0101606
0.00854707
0.00573706
0.00340984
0.00190427
0.000933136
0.000245228
2.57101e-07
2.57101e-07
0.00131332
0.999992
0.999992
0.999992
0.999992
0.999991
0.999991
0.999991
0.999991
0.999991
0.999991
0.99999
0.99999
0.99999
0.99999
0.99999
0.99999
0.99999
0.99999
0.99999
0.99999
0.99999
0.99999
0.99999
0.99999
0.99999
0.99999
0.99999
0.99999
0.99999
0.99999
0.99999
0.99999
0.99999
0.99999
0.99999
0.99999
0.99999
0.99999
0.99999
0.99999
0.99999
0.99999
0.99999
0.99999
0.99999
0.99999
0.99999
0.99999
0.99999
0.999989
0.999987
0.999982
0.999969
0.999948
0.999936
0.99989
0.999816
0.999778
0.99999
0.592779
0.0146692
0.00941403
0.00896673
0.0086521
0.00953421
0.00948959
0.00758279
0.0065578
0.00572572
0.00472442
0.00360551
0.00260665
0.00185174
0.00130575
0.000978865
0.000801282
0.00076325
0.000748354
0.00073151
0.000716481
0.000677608
0.00064601
0.000703894
0.000844734
0.000969242
0.00106733
0.0010936
0.00103375
0.000820859
0.000589265
0.000417528
0.000298424
0.000208802
0.000152663
0.000112648
6.93483e-05
0.999992
0.999992
0.999992
0.999992
0.999992
0.999991
0.999991
0.999991
0.999992
0.999991
0.99999
0.99999
0.99999
0.99999
0.99999
0.99999
0.99999
0.99999
0.99999
0.99999
0.99999
0.99999
0.99999
0.99999
0.99999
0.99999
0.99999
0.99999
0.99999
0.99999
0.99999
0.99999
0.99999
0.99999
0.99999
0.99999
0.99999
0.99999
0.99999
0.99999
0.99999
0.99999
0.99999
0.99999
0.99999
0.99999
0.99999
0.99999
0.99999
0.999989
0.999988
0.999984
0.999973
0.999955
0.999945
0.999898
0.999853
0.999723
0.999961
0.698409
0.00660072
0.00188446
0.00141361
0.000998738
0.000864881
0.000623282
0.000383611
0.000274263
0.000186738
0.000105781
4.91308e-05
1.84666e-05
6.67834e-06
2.47617e-06
1.0813e-06
6.16e-07
4.00352e-07
2.6101e-07
2.6101e-07
2.61009e-07
2.61009e-07
2.61009e-07
2.61008e-07
2.61008e-07
2.61008e-07
2.61008e-07
2.61008e-07
2.61009e-07
2.6101e-07
2.6101e-07
2.61011e-07
4.8218e-07
2.56453e-07
2.56386e-07
2.56359e-07
4.63485e-07
0.999994
0.999992
0.999992
0.999992
0.999992
0.999992
0.999992
0.999992
0.999992
0.999991
0.99999
0.99999
0.99999
0.99999
0.99999
0.99999
0.99999
0.99999
0.99999
0.99999
0.99999
0.99999
0.99999
0.99999
0.99999
0.99999
0.99999
0.99999
0.99999
0.99999
0.99999
0.99999
0.99999
0.99999
0.99999
0.99999
0.99999
0.99999
0.99999
0.99999
0.99999
0.99999
0.99999
0.99999
0.99999
0.99999
0.99999
0.99999
0.99999
0.99999
0.999988
0.999985
0.999977
0.999965
0.999949
0.999876
0.999868
0.999601
0.999809
0.855678
0.0110839
7.42018e-05
3.72561e-05
1.37463e-05
8.37511e-06
3.45937e-06
1.43517e-06
1.00995e-06
1.03521e-06
8.91325e-07
8.2897e-07
7.55925e-07
7.60503e-07
7.64371e-07
7.52703e-07
7.22075e-07
7.07984e-07
6.87151e-07
6.67271e-07
6.44209e-07
6.12081e-07
5.71962e-07
5.34194e-07
5.16716e-07
5.39807e-07
5.79012e-07
5.41451e-07
4.78431e-07
4.59176e-07
4.05075e-07
3.41377e-07
3.09428e-07
2.98402e-07
2.68604e-07
2.56296e-07
2.56359e-07
0.999995
0.999993
0.999993
0.999993
0.999993
0.999993
0.999992
0.999992
0.999992
0.999992
0.999991
0.99999
0.99999
0.99999
0.99999
0.99999
0.99999
0.99999
0.99999
0.99999
0.99999
0.99999
0.99999
0.99999
0.99999
0.99999
0.99999
0.99999
0.99999
0.99999
0.99999
0.99999
0.99999
0.99999
0.99999
0.99999
0.99999
0.99999
0.99999
0.99999
0.99999
0.99999
0.99999
0.99999
0.99999
0.99999
0.99999
0.99999
0.99999
0.99999
0.999989
0.999986
0.99998
0.999971
0.999928
0.999876
0.999877
0.999487
0.999682
0.940016
0.0452453
7.91529e-07
8.72974e-07
7.88193e-07
8.87604e-07
8.95986e-07
9.33221e-07
8.99854e-07
8.48488e-07
7.96748e-07
7.48592e-07
7.11413e-07
6.85909e-07
6.68853e-07
6.55093e-07
6.42845e-07
6.30781e-07
6.1843e-07
6.03456e-07
5.83415e-07
5.53771e-07
5.14104e-07
4.6883e-07
4.29369e-07
4.19093e-07
4.54318e-07
5.56148e-07
4.65556e-07
4.02206e-07
3.64976e-07
3.06038e-07
2.74436e-07
2.60832e-07
2.56192e-07
2.56267e-07
2.56276e-07
0.999995
0.999994
0.999994
0.999994
0.999994
0.999994
0.999993
0.999993
0.999993
0.999992
0.999991
0.99999
0.99999
0.99999
0.99999
0.99999
0.99999
0.99999
0.99999
0.99999
0.99999
0.99999
0.99999
0.99999
0.99999
0.99999
0.99999
0.99999
0.99999
0.99999
0.99999
0.99999
0.99999
0.99999
0.99999
0.99999
0.99999
0.99999
0.99999
0.99999
0.99999
0.99999
0.99999
0.99999
0.99999
0.99999
0.99999
0.99999
0.99999
0.99999
0.999988
0.999985
0.999978
0.999967
0.999948
0.999886
0.999861
0.999366
0.999484
0.967002
0.0485128
4.33269e-07
5.76707e-07
5.65038e-07
5.77381e-07
6.04207e-07
5.98383e-07
5.82305e-07
5.63231e-07
5.45914e-07
5.35116e-07
5.27992e-07
5.21889e-07
5.15143e-07
5.06982e-07
4.97403e-07
4.86907e-07
4.75626e-07
4.63111e-07
4.49249e-07
4.33725e-07
4.18626e-07
4.05258e-07
3.94597e-07
3.85773e-07
3.9703e-07
4.87621e-07
5.13893e-07
3.81426e-07
3.46795e-07
2.96113e-07
2.70102e-07
2.58043e-07
2.56178e-07
2.56183e-07
2.56267e-07
0.999996
0.999995
0.999995
0.999995
0.999995
0.999994
0.999994
0.999994
0.999994
0.999993
0.999991
0.99999
0.99999
0.99999
0.99999
0.99999
0.99999
0.99999
0.99999
0.99999
0.99999
0.99999
0.99999
0.99999
0.99999
0.99999
0.99999
0.99999
0.99999
0.99999
0.99999
0.99999
0.99999
0.99999
0.99999
0.99999
0.99999
0.99999
0.99999
0.99999
0.99999
0.99999
0.99999
0.99999
0.99999
0.99999
0.99999
0.99999
0.99999
0.999989
0.999988
0.999982
0.999973
0.999959
0.999957
0.999917
0.999797
0.999237
0.999239
0.9589
0.0524633
9.60883e-07
4.25964e-07
4.65659e-07
4.73826e-07
4.84864e-07
4.92599e-07
4.89336e-07
4.82126e-07
4.72674e-07
4.62424e-07
4.51817e-07
4.41138e-07
4.30481e-07
4.19647e-07
4.08968e-07
3.9902e-07
3.90486e-07
3.83334e-07
3.76865e-07
3.7032e-07
3.64259e-07
3.59007e-07
3.55918e-07
3.56721e-07
3.67065e-07
4.42501e-07
5.30024e-07
3.74209e-07
3.1819e-07
2.83164e-07
2.66492e-07
2.5789e-07
2.56093e-07
2.5618e-07
2.56185e-07
0.999996
0.999996
0.999996
0.999995
0.999995
0.999995
0.999995
0.999995
0.999994
0.999993
0.999991
0.99999
0.99999
0.99999
0.99999
0.99999
0.99999
0.99999
0.99999
0.99999
0.99999
0.99999
0.99999
0.99999
0.99999
0.99999
0.99999
0.99999
0.99999
0.99999
0.99999
0.99999
0.99999
0.99999
0.99999
0.99999
0.99999
0.99999
0.99999
0.99999
0.99999
0.99999
0.99999
0.99999
0.99999
0.99999
0.99999
0.99999
0.99999
0.999989
0.999987
0.999979
0.999966
0.999955
0.999954
0.999932
0.999686
0.999099
0.998529
0.949425
0.0415959
6.03262e-05
4.25965e-07
4.42685e-07
4.34355e-07
4.23068e-07
4.11351e-07
3.99533e-07
3.88106e-07
3.77961e-07
3.69573e-07
3.62907e-07
3.57486e-07
3.52908e-07
3.48676e-07
3.44574e-07
3.4076e-07
3.37492e-07
3.3522e-07
3.3354e-07
3.32247e-07
3.32134e-07
3.32874e-07
3.35454e-07
3.40492e-07
3.55048e-07
4.31276e-07
5.34606e-07
3.89289e-07
3.06064e-07
2.78193e-07
2.63935e-07
2.56159e-07
2.56093e-07
2.56096e-07
2.56186e-07
0.999997
0.999996
0.999996
0.999996
0.999996
0.999996
0.999996
0.999995
0.999994
0.999992
0.99999
0.99999
0.99999
0.99999
0.99999
0.99999
0.99999
0.99999
0.99999
0.99999
0.99999
0.99999
0.99999
0.99999
0.99999
0.99999
0.99999
0.99999
0.99999
0.99999
0.99999
0.99999
0.99999
0.99999
0.99999
0.99999
0.99999
0.99999
0.99999
0.99999
0.99999
0.99999
0.99999
0.99999
0.99999
0.99999
0.99999
0.99999
0.99999
0.99999
0.999988
0.999981
0.999968
0.999957
0.999956
0.999879
0.999758
0.999175
0.99874
0.948398
0.0476776
0.000312659
9.64523e-07
3.15158e-07
3.15673e-07
3.15716e-07
3.15786e-07
3.16003e-07
3.16207e-07
3.16375e-07
3.16521e-07
3.16762e-07
3.17069e-07
3.17503e-07
3.17954e-07
3.1808e-07
3.18094e-07
3.18037e-07
3.18058e-07
3.18209e-07
3.18848e-07
3.20001e-07
3.22125e-07
3.25979e-07
3.32153e-07
3.50812e-07
4.51168e-07
5.42893e-07
3.70878e-07
3.10773e-07
2.83718e-07
2.69043e-07
2.58702e-07
2.56066e-07
2.5612e-07
2.56158e-07
0.999991
0.999991
0.999991
0.999991
0.99999
0.99999
0.99999
0.99999
0.99999
0.99999
0.99999
0.99999
0.99999
0.99999
0.99999
0.99999
0.99999
0.99999
0.99999
0.99999
0.99999
0.99999
0.99999
0.99999
0.99999
0.99999
0.99999
0.99999
0.99999
0.99999
0.99999
0.99999
0.99999
0.99999
0.99999
0.99999
0.99999
0.99999
0.99999
0.99999
0.99999
0.99999
0.99999
0.99999
0.99999
0.99999
0.99999
0.99999
0.99999
0.99999
0.99999
0.999989
0.999985
0.99996
0.999929
0.999865
0.999768
0.998991
0.996934
0.946924
0.0620717
0.000541852
1.46977e-06
7.62801e-07
7.65988e-07
7.65532e-07
7.64857e-07
7.65035e-07
7.65562e-07
7.66124e-07
7.6667e-07
7.67299e-07
7.68165e-07
7.6898e-07
7.69552e-07
7.70427e-07
7.71952e-07
7.7417e-07
7.76454e-07
7.77168e-07
7.77159e-07
7.76756e-07
7.76759e-07
7.76644e-07
7.76554e-07
7.76928e-07
7.76511e-07
7.76171e-07
7.58547e-07
6.3447e-07
4.15758e-07
3.20982e-07
3.05136e-07
2.5705e-07
2.57009e-07
2.56929e-07
0.999991
0.999991
0.999991
0.999991
0.999991
0.999991
0.999991
0.999991
0.99999
0.99999
0.99999
0.99999
0.99999
0.99999
0.99999
0.99999
0.99999
0.99999
0.99999
0.99999
0.99999
0.99999
0.99999
0.99999
0.99999
0.99999
0.99999
0.99999
0.99999
0.99999
0.99999
0.99999
0.99999
0.99999
0.99999
0.99999
0.99999
0.99999
0.99999
0.99999
0.99999
0.99999
0.99999
0.99999
0.99999
0.99999
0.99999
0.99999
0.99999
0.99999
0.99999
0.99999
0.999986
0.99996
0.99993
0.999879
0.999752
0.999093
0.998074
0.954718
0.052235
0.000134427
7.69661e-07
7.92113e-07
7.80792e-07
7.65645e-07
7.6469e-07
7.64705e-07
7.6472e-07
7.64768e-07
7.65582e-07
7.67796e-07
7.70411e-07
7.71666e-07
7.71972e-07
7.72779e-07
7.74199e-07
7.75863e-07
7.77271e-07
7.77852e-07
7.78283e-07
7.78222e-07
7.78135e-07
7.77707e-07
7.76659e-07
7.76807e-07
7.76977e-07
7.78564e-07
7.64814e-07
6.71554e-07
5.01218e-07
4.09209e-07
4.11686e-07
3.20508e-07
2.5693e-07
2.5692e-07
0.999991
0.999991
0.999991
0.999991
0.999991
0.999991
0.999991
0.999991
0.999991
0.99999
0.99999
0.99999
0.99999
0.99999
0.99999
0.99999
0.99999
0.99999
0.99999
0.99999
0.99999
0.99999
0.99999
0.99999
0.99999
0.99999
0.99999
0.99999
0.99999
0.99999
0.99999
0.99999
0.99999
0.99999
0.99999
0.99999
0.99999
0.99999
0.99999
0.99999
0.99999
0.99999
0.99999
0.99999
0.99999
0.99999
0.99999
0.99999
0.99999
0.999989
0.999988
0.999988
0.999987
0.999964
0.999936
0.999866
0.999812
0.999325
0.998991
0.963374
0.0481771
7.69662e-07
9.95159e-07
9.54814e-07
8.8755e-07
8.42658e-07
8.17006e-07
8.02772e-07
7.93938e-07
7.87215e-07
7.79161e-07
7.72494e-07
7.73563e-07
7.76352e-07
7.79265e-07
7.8276e-07
7.88169e-07
7.94412e-07
7.95497e-07
7.92706e-07
7.87583e-07
7.79115e-07
7.75166e-07
7.74866e-07
7.74847e-07
7.74673e-07
7.74181e-07
7.73957e-07
7.58883e-07
6.83107e-07
5.69918e-07
5.22936e-07
5.41492e-07
4.40632e-07
2.64466e-07
2.56837e-07
0.999991
0.999991
0.999991
0.999991
0.999991
0.999991
0.999991
0.999991
0.999991
0.999991
0.99999
0.99999
0.99999
0.99999
0.99999
0.99999
0.99999
0.99999
0.99999
0.99999
0.99999
0.99999
0.99999
0.99999
0.99999
0.99999
0.99999
0.99999
0.99999
0.99999
0.99999
0.99999
0.99999
0.99999
0.99999
0.99999
0.99999
0.99999
0.99999
0.99999
0.99999
0.99999
0.99999
0.99999
0.99999
0.99999
0.99999
0.99999
0.99999
0.999989
0.999988
0.999986
0.999985
0.999966
0.999924
0.999841
0.999862
0.999424
0.999523
0.965012
0.036992
7.69662e-07
3.26095e-06
8.95746e-07
9.59013e-07
7.61882e-07
7.51941e-07
7.51451e-07
7.51941e-07
7.87177e-07
1.11832e-06
1.00928e-06
7.82747e-07
9.17874e-07
9.80454e-07
9.70913e-07
9.16434e-07
8.45141e-07
8.03995e-07
7.83059e-07
7.78832e-07
7.78802e-07
7.81918e-07
7.80417e-07
7.78128e-07
7.79281e-07
7.82349e-07
7.76151e-07
7.34739e-07
6.6312e-07
6.15637e-07
6.40031e-07
6.49211e-07
5.36718e-07
3.00929e-07
2.56828e-07
0.999991
0.999991
0.999991
0.999991
0.999991
0.999991
0.999991
0.999991
0.999991
0.999991
0.99999
0.99999
0.99999
0.99999
0.99999
0.99999
0.99999
0.99999
0.99999
0.99999
0.99999
0.99999
0.99999
0.99999
0.99999
0.99999
0.99999
0.99999
0.99999
0.99999
0.99999
0.99999
0.99999
0.99999
0.99999
0.99999
0.99999
0.99999
0.99999
0.99999
0.99999
0.99999
0.99999
0.99999
0.99999
0.99999
0.99999
0.99999
0.99999
0.999989
0.999987
0.999984
0.999984
0.99997
0.99989
0.999823
0.999699
0.999655
0.999827
0.91125
0.0139251
0.000181576
0.000138945
5.55876e-05
4.34172e-05
3.7072e-05
3.75019e-05
3.76734e-05
3.82225e-05
3.9124e-05
4.01367e-05
4.07936e-05
4.14436e-05
4.22265e-05
3.98389e-05
3.4235e-05
2.79709e-05
1.98981e-05
1.20034e-05
6.28908e-06
2.88702e-06
1.38799e-06
9.86635e-07
1.01315e-06
7.78137e-07
7.78147e-07
7.78527e-07
7.45416e-07
6.98782e-07
6.70983e-07
6.81684e-07
7.20772e-07
6.92436e-07
5.56266e-07
3.124e-07
2.56828e-07
0.999992
0.999991
0.999991
0.999991
0.999991
0.999991
0.999991
0.999991
0.999991
0.999991
0.99999
0.99999
0.99999
0.99999
0.99999
0.99999
0.99999
0.99999
0.99999
0.99999
0.99999
0.99999
0.99999
0.99999
0.99999
0.99999
0.99999
0.99999
0.99999
0.99999
0.99999
0.99999
0.99999
0.99999
0.99999
0.99999
0.99999
0.99999
0.99999
0.99999
0.99999
0.99999
0.99999
0.99999
0.99999
0.99999
0.99999
0.99999
0.99999
0.999989
0.999987
0.999983
0.999979
0.999932
0.999824
0.999817
0.999816
0.999868
0.999981
0.797256
0.0185347
0.00541178
0.00484702
0.00366223
0.00323614
0.00302798
0.00317936
0.00353152
0.00383166
0.00418133
0.00465935
0.00493804
0.00498831
0.00500214
0.00501733
0.0046346
0.00449734
0.00386819
0.003159
0.00243293
0.00163144
0.00105091
0.000604831
0.000292986
0.000118831
3.59121e-05
6.86992e-06
1.88571e-06
1.46501e-06
9.09327e-07
8.70411e-07
8.89825e-07
7.77546e-07
5.8224e-07
2.75174e-07
2.56736e-07
0.999992
0.999992
0.999991
0.999991
0.999991
0.99999
0.999991
0.999991
0.999991
0.999991
0.999991
0.99999
0.99999
0.99999
0.99999
0.99999
0.99999
0.99999
0.99999
0.99999
0.99999
0.99999
0.99999
0.99999
0.99999
0.99999
0.99999
0.99999
0.99999
0.99999
0.99999
0.99999
0.99999
0.99999
0.99999
0.99999
0.99999
0.99999
0.99999
0.99999
0.99999
0.99999
0.99999
0.99999
0.99999
0.99999
0.99999
0.99999
0.99999
0.999989
0.999987
0.999983
0.999977
0.999966
0.999845
0.99977
0.999816
0.999863
0.99999
0.578871
0.0377731
0.0315053
0.0328875
0.0322168
0.0317278
0.0309988
0.03093
0.032148
0.0339088
0.0360435
0.0383055
0.0396791
0.0402659
0.0406699
0.0407658
0.0407146
0.0411805
0.042217
0.0427705
0.0415439
0.0364206
0.0319176
0.0279127
0.0243868
0.0197
0.0148359
0.0108477
0.00724374
0.0041549
0.00145952
0.000335338
0.000318484
0.000313772
0.000167445
8.16385e-05
0.000507518
0.999992
0.999992
0.999992
0.999991
0.999991
0.99999
0.99999
0.999991
0.999991
0.999991
0.999991
0.99999
0.99999
0.99999
0.99999
0.99999
0.99999
0.99999
0.99999
0.99999
0.99999
0.99999
0.99999
0.99999
0.99999
0.99999
0.99999
0.99999
0.99999
0.99999
0.99999
0.99999
0.99999
0.99999
0.99999
0.99999
0.99999
0.99999
0.99999
0.99999
0.99999
0.99999
0.99999
0.99999
0.99999
0.99999
0.99999
0.99999
0.99999
0.999989
0.999987
0.999983
0.999976
0.999961
0.999933
0.99979
0.999728
0.999746
0.99999
0.527518
0.0518787
0.0480273
0.0509434
0.0511382
0.0512097
0.0504315
0.0492112
0.049342
0.050677
0.0532261
0.0557416
0.0575074
0.0590178
0.060426
0.0615263
0.0630618
0.0680715
0.0788431
0.0875747
0.091019
0.0924629
0.0944852
0.100074
0.106131
0.110726
0.116481
0.1251
0.133614
0.141059
0.147664
0.153331
0.159602
0.170134
0.191667
0.23848
0.42262
0.999993
0.999993
0.999993
0.999992
0.999991
0.999991
0.99999
0.999991
0.999991
0.999991
0.999991
0.99999
0.99999
0.99999
0.99999
0.99999
0.99999
0.99999
0.99999
0.99999
0.99999
0.99999
0.99999
0.99999
0.99999
0.99999
0.99999
0.99999
0.99999
0.99999
0.99999
0.99999
0.99999
0.99999
0.99999
0.99999
0.99999
0.99999
0.99999
0.99999
0.99999
0.99999
0.99999
0.99999
0.99999
0.99999
0.99999
0.99999
0.99999
0.99999
0.999988
0.999985
0.999979
0.999964
0.999938
0.999859
0.999752
0.999785
0.99999
0.672142
0.0235203
0.012753
0.0118013
0.0101007
0.00896866
0.00778631
0.00648556
0.00529799
0.0042922
0.00340483
0.00266983
0.00216612
0.00191775
0.00202216
0.00208957
0.00231968
0.0026925
0.00312839
0.00363638
0.00400651
0.00420322
0.00462412
0.00549938
0.00689372
0.00782968
0.00815881
0.00831954
0.00867087
0.0089222
0.00888513
0.00856556
0.00799748
0.00720417
0.00592617
0.0041529
0.00326677
0.999993
0.999993
0.999993
0.999993
0.999993
0.999992
0.999991
0.999991
0.999991
0.999991
0.999991
0.99999
0.99999
0.99999
0.99999
0.99999
0.99999
0.99999
0.99999
0.99999
0.99999
0.99999
0.99999
0.99999
0.99999
0.99999
0.99999
0.99999
0.99999
0.99999
0.99999
0.99999
0.99999
0.99999
0.99999
0.99999
0.99999
0.99999
0.99999
0.99999
0.99999
0.99999
0.99999
0.99999
0.99999
0.99999
0.99999
0.99999
0.99999
0.99999
0.999989
0.999986
0.99998
0.999964
0.999937
0.999848
0.999788
0.999791
0.999984
0.807434
0.00549756
0.000648375
0.000436847
0.000212583
0.000135654
8.35706e-05
5.16573e-05
3.11893e-05
2.00582e-05
1.42993e-05
1.19723e-05
1.09633e-05
1.07212e-05
1.09851e-05
1.34306e-05
1.52229e-05
1.57197e-05
1.59713e-05
1.79056e-05
2.08987e-05
2.38762e-05
2.67319e-05
2.96433e-05
3.17977e-05
3.69171e-05
3.8484e-05
3.81219e-05
3.72677e-05
3.15467e-05
2.23511e-05
1.62853e-05
1.14711e-05
7.56812e-06
3.8061e-06
5.40297e-07
4.35645e-07
0.999995
0.999993
0.999993
0.999993
0.999993
0.999993
0.999991
0.999991
0.999991
0.999992
0.999991
0.99999
0.99999
0.99999
0.99999
0.99999
0.99999
0.99999
0.99999
0.99999
0.99999
0.99999
0.99999
0.99999
0.99999
0.99999
0.99999
0.99999
0.99999
0.99999
0.99999
0.99999
0.99999
0.99999
0.99999
0.99999
0.99999
0.99999
0.99999
0.99999
0.99999
0.99999
0.99999
0.99999
0.99999
0.99999
0.99999
0.99999
0.99999
0.99999
0.999989
0.999986
0.999979
0.999962
0.999934
0.999885
0.999795
0.999569
0.999822
0.917049
0.0454233
4.3327e-07
1.16377e-05
1.03829e-06
1.12348e-06
9.71332e-07
9.84009e-07
6.48127e-07
7.90113e-07
7.17635e-07
7.26193e-07
7.04632e-07
6.96386e-07
6.84579e-07
6.65627e-07
6.4094e-07
6.18455e-07
5.97353e-07
5.71504e-07
5.39733e-07
5.08e-07
4.83701e-07
4.54181e-07
4.24383e-07
4.35478e-07
4.91896e-07
5.43144e-07
5.76393e-07
6.41663e-07
5.76343e-07
4.21927e-07
3.57064e-07
3.53042e-07
3.3732e-07
2.60083e-07
2.56284e-07
0.999995
0.999994
0.999994
0.999994
0.999994
0.999993
0.999992
0.999991
0.999992
0.999992
0.999991
0.99999
0.99999
0.99999
0.99999
0.99999
0.99999
0.99999
0.99999
0.99999
0.99999
0.99999
0.99999
0.99999
0.99999
0.99999
0.99999
0.99999
0.99999
0.99999
0.99999
0.99999
0.99999
0.99999
0.99999
0.99999
0.99999
0.99999
0.99999
0.99999
0.99999
0.99999
0.99999
0.99999
0.99999
0.99999
0.99999
0.99999
0.99999
0.99999
0.999989
0.999986
0.999977
0.999961
0.999946
0.999882
0.999872
0.999446
0.999584
0.952808
0.038029
4.33269e-07
9.68436e-07
4.28052e-07
7.82744e-07
7.5356e-07
8.00473e-07
8.03349e-07
8.02084e-07
7.85179e-07
7.6264e-07
7.36395e-07
7.11153e-07
6.88679e-07
6.67735e-07
6.46017e-07
6.23498e-07
5.9949e-07
5.72471e-07
5.40565e-07
5.01581e-07
4.51386e-07
4.03376e-07
3.73144e-07
3.7163e-07
3.88766e-07
4.50324e-07
4.91657e-07
5.35252e-07
5.15006e-07
3.75957e-07
2.85158e-07
2.76054e-07
2.7587e-07
2.56193e-07
2.5628e-07
0.999996
0.999995
0.999996
0.999995
0.999995
0.999995
0.999993
0.999991
0.999992
0.999992
0.999991
0.99999
0.99999
0.99999
0.99999
0.99999
0.99999
0.99999
0.99999
0.99999
0.99999
0.99999
0.99999
0.99999
0.99999
0.99999
0.99999
0.99999
0.99999
0.99999
0.99999
0.99999
0.99999
0.99999
0.99999
0.99999
0.99999
0.99999
0.99999
0.99999
0.99999
0.99999
0.99999
0.99999
0.99999
0.99999
0.99999
0.99999
0.99999
0.99999
0.999988
0.999984
0.999976
0.999961
0.999956
0.999899
0.99983
0.999359
0.999078
0.96013
0.0497768
4.33269e-07
7.9462e-07
5.88993e-07
6.6527e-07
7.19138e-07
7.26488e-07
7.25546e-07
7.08611e-07
6.75054e-07
6.40203e-07
6.11653e-07
5.87599e-07
5.64202e-07
5.39167e-07
5.12288e-07
4.84892e-07
4.59312e-07
4.35619e-07
4.13989e-07
3.93211e-07
3.73758e-07
3.59856e-07
3.54364e-07
3.5569e-07
3.64466e-07
4.11049e-07
4.82037e-07
5.08174e-07
4.90896e-07
3.56608e-07
2.71038e-07
2.5917e-07
2.56127e-07
2.56197e-07
2.56193e-07
0.999996
0.999996
0.999996
0.999996
0.999996
0.999995
0.999994
0.999992
0.999993
0.999993
0.999991
0.99999
0.99999
0.99999
0.99999
0.99999
0.99999
0.99999
0.99999
0.99999
0.99999
0.99999
0.99999
0.99999
0.99999
0.99999
0.99999
0.99999
0.99999
0.99999
0.99999
0.99999
0.99999
0.99999
0.99999
0.99999
0.99999
0.99999
0.99999
0.99999
0.99999
0.99999
0.99999
0.99999
0.99999
0.99999
0.99999
0.99999
0.99999
0.99999
0.999988
0.999981
0.999974
0.999962
0.999952
0.999926
0.999774
0.999229
0.998753
0.956014
0.0497701
4.33269e-07
6.4526e-07
6.40111e-07
6.05165e-07
6.04694e-07
6.14107e-07
6.1478e-07
6.07895e-07
5.91906e-07
5.69009e-07
5.4176e-07
5.12107e-07
4.82007e-07
4.52737e-07
4.26236e-07
4.03767e-07
3.8629e-07
3.72754e-07
3.61919e-07
3.52103e-07
3.42909e-07
3.38696e-07
3.39955e-07
3.42088e-07
3.50028e-07
3.87731e-07
4.74681e-07
4.87508e-07
4.42161e-07
3.15749e-07
2.63162e-07
2.56022e-07
2.56105e-07
2.56098e-07
2.56192e-07
0.999997
0.999997
0.999997
0.999997
0.999996
0.999995
0.999994
0.999993
0.999994
0.999993
0.99999
0.99999
0.99999
0.99999
0.99999
0.99999
0.99999
0.99999
0.99999
0.99999
0.99999
0.99999
0.99999
0.99999
0.99999
0.99999
0.99999
0.99999
0.99999
0.99999
0.99999
0.99999
0.99999
0.99999
0.99999
0.99999
0.99999
0.99999
0.99999
0.99999
0.99999
0.99999
0.99999
0.99999
0.99999
0.99999
0.99999
0.99999
0.99999
0.99999
0.999988
0.999981
0.999971
0.99996
0.999954
0.999929
0.999691
0.99906
0.997787
0.94656
0.054691
0.000138895
4.25965e-07
4.50781e-07
4.3618e-07
4.15451e-07
4.04326e-07
3.9909e-07
3.96278e-07
3.93473e-07
3.90042e-07
3.85319e-07
3.79066e-07
3.71533e-07
3.62934e-07
3.54279e-07
3.46439e-07
3.39998e-07
3.34916e-07
3.3093e-07
3.27736e-07
3.26538e-07
3.27869e-07
3.32283e-07
3.37554e-07
3.46351e-07
3.84467e-07
4.81203e-07
4.78545e-07
3.77251e-07
2.79937e-07
2.58932e-07
2.56027e-07
2.56003e-07
2.56109e-07
2.56102e-07
0.999997
0.999997
0.999997
0.999997
0.999996
0.999996
0.999996
0.999995
0.999993
0.999991
0.99999
0.99999
0.99999
0.99999
0.99999
0.99999
0.99999
0.99999
0.99999
0.99999
0.99999
0.99999
0.99999
0.99999
0.99999
0.99999
0.99999
0.99999
0.99999
0.99999
0.99999
0.99999
0.99999
0.99999
0.99999
0.99999
0.99999
0.99999
0.99999
0.99999
0.99999
0.99999
0.99999
0.99999
0.99999
0.99999
0.99999
0.99999
0.99999
0.99999
0.999989
0.999983
0.999971
0.999958
0.999958
0.999903
0.999762
0.998962
0.996513
0.940511
0.0662739
0.000641973
1.52172e-06
3.15158e-07
3.15785e-07
3.157e-07
3.15411e-07
3.15292e-07
3.15393e-07
3.15666e-07
3.16032e-07
3.1644e-07
3.16831e-07
3.17275e-07
3.17672e-07
3.18026e-07
3.18206e-07
3.18341e-07
3.18464e-07
3.18614e-07
3.19066e-07
3.19918e-07
3.22151e-07
3.27375e-07
3.33545e-07
3.43082e-07