/*--------------------------------*- C++ -*----------------------------------*\
| =========                 |                                                 |
| \\      /  F ield         | OpenFOAM: The Open Source CFD Toolbox           |
|  \\    /   O peration     | Version:  2.3.0                                 |
|   \\  /    A nd           | Web:      www.OpenFOAM.org                      |
|    \\/     M anipulation  |                                                 |
\*---------------------------------------------------------------------------*/
FoamFile
{
    version     2.0;
    format      ascii;
    class       volScalarField;
    location    "10";
    object      dsauterMean;
}
// * * * * * * * * * * * * * * * * * * * * * * * * * * * * * * * * * * * * * //

dimensions      [0 0 0 0 0 0 0];

internalField   nonuniform List<scalar> 
6144
(
0.00833335
0.00833335
0.00833335
0.00833335
0.00833335
0.00833335
0.00833335
0.00833335
0.00833335
0.00833335
0.00833335
0.00833335
0.00833335
0.00833335
0.00833335
0.00833335
0.00833335
0.00833335
0.00833335
0.00833335
0.00833335
0.00833335
0.00833335
0.00833335
0.00833335
0.00833335
0.00833335
0.00833335
0.00833335
0.00833335
0.00833335
0.00833335
0.00833335
0.00833335
0.00833335
0.00833335
0.00833335
0.00833335
0.00833335
0.00833335
0.00833335
0.00833335
0.00833335
0.00833335
0.00833335
0.00833335
0.00833335
0.00833335
0.00833335
0.00833335
0.00833335
0.00833335
0.00833335
0.00833335
0.00833335
0.00833335
0.00833335
0.00833329
0.00832549
0.0083439
0.00833932
0.00833287
0.00237629
0.000758928
0.000738078
0.00072162
0.000705151
0.000680458
0.00066398
0.000643423
0.00062694
0.000606351
0.000589889
0.000573418
0.000556957
0.000536364
0.000519906
0.000503428
0.000486967
0.000470717
0.000452827
0.000440277
0.000418051
0.000409996
0.000391166
0.000379932
0.000363269
0.000351518
0.000338516
0.000330534
0.000322298
0.000314067
0.000309955
0.000305832
0.000309922
0.000305902
0.00833335
0.00833335
0.00833335
0.00833335
0.00833335
0.00833335
0.00833335
0.00833335
0.00833335
0.00833335
0.00833335
0.00833335
0.00833335
0.00833335
0.00833335
0.00833335
0.00833335
0.00833335
0.00833335
0.00833335
0.00833335
0.00833335
0.00833335
0.00833335
0.00833335
0.00833335
0.00833335
0.00833335
0.00833335
0.00833335
0.00833335
0.00833335
0.00833335
0.00833335
0.00833335
0.00833335
0.00833335
0.00833335
0.00833335
0.00833335
0.00833335
0.00833335
0.00833335
0.00833335
0.00833335
0.00833335
0.00833335
0.00833335
0.00833335
0.00833335
0.00833335
0.00833335
0.00833335
0.00833335
0.00833335
0.00833335
0.00833335
0.00833316
0.00832524
0.00834297
0.00839642
0.00832923
0.000976852
0.000762806
0.000741913
0.000724983
0.000705049
0.000684568
0.000668194
0.00064859
0.000631365
0.000609896
0.000593879
0.000573336
0.000554129
0.00053585
0.00052056
0.000505406
0.000485202
0.000470322
0.000455058
0.000437249
0.000422288
0.000408801
0.000392348
0.000380247
0.000367584
0.000355234
0.000342891
0.000330534
0.000322302
0.000318184
0.00030894
0.000310337
0.00030999
0.00031003
0.00833335
0.00833335
0.00833335
0.00833335
0.00833335
0.00833335
0.00833335
0.00833335
0.00833335
0.00833335
0.00833335
0.00833335
0.00833335
0.00833335
0.00833335
0.00833335
0.00833335
0.00833335
0.00833335
0.00833335
0.00833335
0.00833335
0.00833335
0.00833335
0.00833335
0.00833335
0.00833335
0.00833335
0.00833335
0.00833335
0.00833335
0.00833335
0.00833335
0.00833335
0.00833335
0.00833335
0.00833335
0.00833335
0.00833335
0.00833335
0.00833335
0.00833335
0.00833335
0.00833335
0.00833335
0.00833335
0.00833335
0.00833335
0.00833335
0.00833335
0.00833335
0.00833335
0.00833335
0.00833335
0.00833335
0.00833335
0.00833335
0.00833335
0.00833372
0.00835862
0.00771816
0.00559963
0.00109623
0.000764188
0.000737484
0.000721623
0.000700563
0.000681207
0.000663994
0.000636881
0.000625657
0.000602303
0.000590368
0.000570338
0.000559947
0.000537296
0.000520228
0.000504468
0.000484284
0.000472427
0.000455454
0.000437566
0.00042522
0.000408734
0.000392005
0.000379944
0.000367584
0.000355237
0.000342885
0.000330534
0.000322808
0.000317774
0.000310025
0.000308007
0.00031515
0.000310319
0.00833335
0.00833335
0.00833335
0.00833335
0.00833335
0.00833335
0.00833335
0.00833335
0.00833335
0.00833335
0.00833335
0.00833335
0.00833335
0.00833335
0.00833335
0.00833335
0.00833335
0.00833335
0.00833335
0.00833335
0.00833335
0.00833335
0.00833335
0.00833335
0.00833335
0.00833335
0.00833335
0.00833335
0.00833335
0.00833335
0.00833335
0.00833335
0.00833335
0.00833335
0.00833335
0.00833335
0.00833335
0.00833335
0.00833335
0.00833335
0.00833335
0.00833335
0.00833335
0.00833335
0.00833335
0.00833335
0.00833335
0.00833335
0.00833335
0.00833335
0.00833335
0.00833335
0.00833335
0.00833335
0.00833335
0.00833335
0.00833335
0.00833335
0.00833025
0.00833661
0.00834981
0.00332868
0.0017055
0.00105107
0.00100153
0.000907785
0.000914115
0.000865705
0.000848431
0.000809354
0.000787492
0.000775107
0.000733968
0.000672223
0.000602233
0.000548726
0.000519897
0.000503402
0.000485031
0.000471062
0.000454084
0.000435585
0.000422253
0.000409844
0.000391372
0.000379915
0.000367588
0.000355856
0.000341142
0.000330534
0.000322319
0.000316787
0.00031155
0.000309938
0.000309949
0.000314067
0.00833335
0.00833335
0.00833335
0.00833335
0.00833335
0.00833335
0.00833335
0.00833335
0.00833335
0.00833335
0.00833335
0.00833335
0.00833335
0.00833335
0.00833335
0.00833335
0.00833335
0.00833335
0.00833335
0.00833335
0.00833335
0.00833335
0.00833335
0.00833335
0.00833335
0.00833335
0.00833335
0.00833335
0.00833335
0.00833335
0.00833335
0.00833335
0.00833335
0.00833335
0.00833335
0.00833335
0.00833335
0.00833335
0.00833335
0.00833335
0.00833335
0.00833335
0.00833335
0.00833335
0.00833335
0.00833335
0.00833335
0.00833335
0.00833335
0.00833335
0.00833335
0.00833335
0.00833335
0.00833335
0.00833335
0.00833335
0.00833335
0.00833335
0.00833331
0.00835284
0.00736443
0.00832131
0.00821081
0.00822215
0.00818486
0.00802403
0.00802162
0.00788296
0.00785638
0.0077887
0.00774992
0.00766429
0.0074844
0.00731958
0.0071452
0.00677519
0.00606483
0.00479561
0.0035093
0.00226691
0.00109709
0.000606353
0.000449895
0.000412865
0.000396401
0.000376948
0.000364647
0.000352188
0.000339123
0.000329955
0.0003223
0.000314067
0.000305819
0.000305814
0.000309971
0.00030995
0.00833335
0.00833335
0.00833335
0.00833335
0.00833335
0.00833335
0.00833335
0.00833335
0.00833335
0.00833335
0.00833335
0.00833335
0.00833335
0.00833335
0.00833335
0.00833335
0.00833335
0.00833335
0.00833335
0.00833335
0.00833335
0.00833335
0.00833335
0.00833335
0.00833335
0.00833335
0.00833335
0.00833335
0.00833335
0.00833335
0.00833335
0.00833335
0.00833335
0.00833335
0.00833335
0.00833335
0.00833335
0.00833335
0.00833335
0.00833335
0.00833335
0.00833335
0.00833335
0.00833335
0.00833335
0.00833335
0.00833335
0.00833335
0.00833335
0.00833335
0.00833335
0.00833335
0.00833335
0.00833335
0.00833335
0.00833335
0.00833335
0.00833335
0.00833335
0.00834488
0.00727109
0.00808069
0.00803453
0.00825254
0.00829536
0.00826909
0.00833823
0.00813509
0.00825716
0.0079396
0.0084125
0.00788522
0.00827167
0.00824654
0.00828968
0.00801694
0.00816196
0.00813
0.00783275
0.00807222
0.00792445
0.007864
0.00769449
0.00757541
0.0072015
0.00495296
0.00407273
0.00248385
0.000628782
0.000351424
0.000327165
0.000312989
0.000310132
0.000302169
0.000301598
0.000310274
0.00833335
0.00833335
0.00833335
0.00833335
0.00833335
0.00833335
0.00833335
0.00833335
0.00833335
0.00833335
0.00833335
0.00833335
0.00833335
0.00833335
0.00833335
0.00833335
0.00833335
0.00833335
0.00833335
0.00833335
0.00833335
0.00833335
0.00833335
0.00833335
0.00833335
0.00833335
0.00833335
0.00833335
0.00833335
0.00833335
0.00833335
0.00833335
0.00833335
0.00833335
0.00833335
0.00833335
0.00833335
0.00833335
0.00833335
0.00833335
0.00833335
0.00833335
0.00833335
0.00833335
0.00833335
0.00833335
0.00833335
0.00833335
0.00833335
0.00833335
0.00833335
0.00833335
0.00833335
0.00833335
0.00833335
0.00833335
0.00833335
0.00833334
0.00833356
0.00833328
0.0083309
0.00914227
0.00616843
0.00834752
0.00818596
0.00792845
0.00825545
0.00718486
0.0078946
0.00772995
0.0079859
0.00774335
0.00816333
0.00784454
0.00814552
0.0080104
0.00866324
0.00711077
0.00819987
0.00840431
0.00790112
0.00840121
0.0082919
0.00826397
0.00823199
0.00779862
0.00804866
0.00821956
0.00814102
0.00798842
0.00803975
0.0080664
0.00749573
0.00657333
0.00431622
0.00311407
0.00833335
0.00833335
0.00833335
0.00833335
0.00833335
0.00833335
0.00833335
0.00833335
0.00833335
0.00833335
0.00833335
0.00833335
0.00833335
0.00833335
0.00833335
0.00833335
0.00833335
0.00833335
0.00833335
0.00833335
0.00833335
0.00833335
0.00833335
0.00833335
0.00833335
0.00833335
0.00833335
0.00833335
0.00833335
0.00833335
0.00833335
0.00833335
0.00833335
0.00833335
0.00833335
0.00833335
0.00833335
0.00833335
0.00833335
0.00833335
0.00833335
0.00833335
0.00833335
0.00833335
0.00833335
0.00833335
0.00833335
0.00833335
0.00833335
0.00833335
0.00833335
0.00833335
0.00833335
0.00833335
0.00833335
0.00833335
0.00833335
0.00833336
0.00833335
0.00833347
0.00831271
0.00836371
0.00832133
0.00832091
0.00833655
0.00823299
0.0080515
0.0087895
0.00819192
0.00840374
0.00816505
0.00831964
0.0083253
0.00833381
0.00844524
0.00846606
0.00787847
0.00828975
0.00832245
0.00829885
0.00831
0.00829095
0.00825616
0.0082452
0.00827461
0.00817181
0.00828209
0.0080253
0.00800334
0.00797443
0.00740423
0.00668469
0.00665843
0.00598556
0.00653448
0.00802724
0.00833335
0.00833335
0.00833335
0.00833335
0.00833335
0.00833335
0.00833335
0.00833335
0.00833335
0.00833335
0.00833335
0.00833335
0.00833335
0.00833335
0.00833335
0.00833335
0.00833335
0.00833335
0.00833335
0.00833335
0.00833335
0.00833335
0.00833335
0.00833335
0.00833335
0.00833335
0.00833335
0.00833335
0.00833335
0.00833335
0.00833335
0.00833335
0.00833335
0.00833335
0.00833335
0.00833335
0.00833335
0.00833335
0.00833335
0.00833335
0.00833335
0.00833335
0.00833335
0.00833335
0.00833335
0.00833335
0.00833335
0.00833335
0.00833335
0.00833335
0.00833335
0.00833335
0.00833335
0.00833335
0.00833335
0.00833335
0.00833336
0.00833332
0.00833366
0.00833487
0.00815548
0.00766098
0.00770079
0.00793844
0.00811408
0.0074511
0.00779317
0.00810862
0.00814073
0.00802501
0.0078602
0.00832213
0.00780763
0.00863088
0.00765523
0.00840451
0.00829863
0.00833453
0.0081313
0.00803688
0.00846945
0.00794622
0.008054
0.00824457
0.00818576
0.00825919
0.00818517
0.00837062
0.00798154
0.00829929
0.00812376
0.00800352
0.00819566
0.00827409
0.00655784
0.00474557
0.00833335
0.00833335
0.00833335
0.00833335
0.00833335
0.00833335
0.00833335
0.00833335
0.00833335
0.00833335
0.00833335
0.00833335
0.00833335
0.00833335
0.00833335
0.00833335
0.00833335
0.00833335
0.00833335
0.00833335
0.00833335
0.00833335
0.00833335
0.00833335
0.00833335
0.00833335
0.00833335
0.00833335
0.00833335
0.00833335
0.00833335
0.00833335
0.00833335
0.00833335
0.00833335
0.00833335
0.00833335
0.00833335
0.00833335
0.00833335
0.00833335
0.00833335
0.00833335
0.00833335
0.00833335
0.00833335
0.00833335
0.00833335
0.00833335
0.00833335
0.00833335
0.00833335
0.00833335
0.00833335
0.00833335
0.00833335
0.00833335
0.00833336
0.00833316
0.0083345
0.00830933
0.00825895
0.00773381
0.00817407
0.00818153
0.00664209
0.00619398
0.00577001
0.00535962
0.00508347
0.0047952
0.0044925
0.00400817
0.00369488
0.00312789
0.00255795
0.00246201
0.0023184
0.00223364
0.00214042
0.00206854
0.00186625
0.00173653
0.00160828
0.00150206
0.00141693
0.00124763
0.00110258
0.000955538
0.000831833
0.000606865
0.000355011
0.000318182
0.000305834
0.000306017
0.000309769
0.00833335
0.00833335
0.00833335
0.00833335
0.00833335
0.00833335
0.00833335
0.00833335
0.00833335
0.00833335
0.00833335
0.00833335
0.00833335
0.00833335
0.00833335
0.00833335
0.00833335
0.00833335
0.00833335
0.00833335
0.00833335
0.00833335
0.00833335
0.00833335
0.00833335
0.00833335
0.00833335
0.00833335
0.00833335
0.00833335
0.00833335
0.00833335
0.00833335
0.00833335
0.00833335
0.00833335
0.00833335
0.00833335
0.00833335
0.00833335
0.00833335
0.00833335
0.00833335
0.00833335
0.00833335
0.00833335
0.00833335
0.00833335
0.00833335
0.00833335
0.00833335
0.00833335
0.00833335
0.00833335
0.00833335
0.00833335
0.00833335
0.00833378
0.00831668
0.00833601
0.00833578
0.00729409
0.00562276
0.0036796
0.00364515
0.00310186
0.00304181
0.00254852
0.00235365
0.00216623
0.00209921
0.00202931
0.00193625
0.0018584
0.0017055
0.00159485
0.00145436
0.00133837
0.00118909
0.0010305
0.000841734
0.00071783
0.000591715
0.00049916
0.000403077
0.000376624
0.000367585
0.000350263
0.000339564
0.000329784
0.0003223
0.000314052
0.000307044
0.000306109
0.000308072
0.00030995
0.00833335
0.00833335
0.00833335
0.00833335
0.00833335
0.00833335
0.00833335
0.00833335
0.00833335
0.00833335
0.00833335
0.00833335
0.00833335
0.00833335
0.00833335
0.00833335
0.00833335
0.00833335
0.00833335
0.00833335
0.00833335
0.00833335
0.00833335
0.00833335
0.00833335
0.00833335
0.00833335
0.00833335
0.00833335
0.00833335
0.00833335
0.00833335
0.00833335
0.00833335
0.00833335
0.00833335
0.00833335
0.00833335
0.00833335
0.00833335
0.00833335
0.00833335
0.00833335
0.00833335
0.00833335
0.00833335
0.00833335
0.00833335
0.00833335
0.00833335
0.00833335
0.00833335
0.00833335
0.00833335
0.00833335
0.00833335
0.00833335
0.00833334
0.00833379
0.00834648
0.00833189
0.00218795
0.00159774
0.000985619
0.000946677
0.000890859
0.000848288
0.000812618
0.000772571
0.000708477
0.000659868
0.000614245
0.000597719
0.000577546
0.00055695
0.000540483
0.000523999
0.00050344
0.000486956
0.000470372
0.000454013
0.000435717
0.000427146
0.000408736
0.000392283
0.000379935
0.000367596
0.000351129
0.000342884
0.000331683
0.000320946
0.000314066
0.000305887
0.000309924
0.000309957
0.000314067
0.00833335
0.00833335
0.00833335
0.00833335
0.00833335
0.00833335
0.00833335
0.00833335
0.00833335
0.00833335
0.00833335
0.00833335
0.00833335
0.00833335
0.00833335
0.00833335
0.00833335
0.00833335
0.00833335
0.00833335
0.00833335
0.00833335
0.00833335
0.00833335
0.00833335
0.00833335
0.00833335
0.00833335
0.00833335
0.00833335
0.00833335
0.00833335
0.00833335
0.00833335
0.00833335
0.00833335
0.00833335
0.00833335
0.00833335
0.00833335
0.00833335
0.00833335
0.00833335
0.00833335
0.00833335
0.00833335
0.00833335
0.00833335
0.00833335
0.00833335
0.00833335
0.00833335
0.00833335
0.00833335
0.00833335
0.00833335
0.00833335
0.00833335
0.00833334
0.00833952
0.00833668
0.00350023
0.00157785
0.000762757
0.000742192
0.000721618
0.000705151
0.000684547
0.000668099
0.000641629
0.000633329
0.000606351
0.000594001
0.000573418
0.000556918
0.000536418
0.000520043
0.000500384
0.000487363
0.0004705
0.000454006
0.000437504
0.00042536
0.00040724
0.000392833
0.000381139
0.000367585
0.000352732
0.00034295
0.000330603
0.000322291
0.000318184
0.000309951
0.00030995
0.000314067
0.000314067
0.00833335
0.00833335
0.00833335
0.00833335
0.00833335
0.00833335
0.00833335
0.00833335
0.00833335
0.00833335
0.00833335
0.00833335
0.00833335
0.00833335
0.00833335
0.00833335
0.00833335
0.00833335
0.00833335
0.00833335
0.00833335
0.00833335
0.00833335
0.00833335
0.00833335
0.00833335
0.00833335
0.00833335
0.00833335
0.00833335
0.00833335
0.00833335
0.00833335
0.00833335
0.00833335
0.00833335
0.00833335
0.00833335
0.00833335
0.00833335
0.00833335
0.00833335
0.00833335
0.00833335
0.00833335
0.00833335
0.00833335
0.00833335
0.00833335
0.00833335
0.00833335
0.00833335
0.00833335
0.00833335
0.00833335
0.00833335
0.00833335
0.00833335
0.00833335
0.00832906
0.00833352
0.0071489
0.00105099
0.000762784
0.000742201
0.000721513
0.000705321
0.000684533
0.000663994
0.000643391
0.000626942
0.000606351
0.000589993
0.000573418
0.000555607
0.000540216
0.000518645
0.000501261
0.00048482
0.000470501
0.000454027
0.000438074
0.000422879
0.000411871
0.000392212
0.000379828
0.000367458
0.000355231
0.000342885
0.000330475
0.000322103
0.000317709
0.000310871
0.00030995
0.000314067
0.000314067
0.00833335
0.00833335
0.00833335
0.00833335
0.00833335
0.00833335
0.00833335
0.00833335
0.00833335
0.00833335
0.00833335
0.00833335
0.00833335
0.00833335
0.00833335
0.00833335
0.00833335
0.00833335
0.00833335
0.00833335
0.00833335
0.00833335
0.00833335
0.00833335
0.00833335
0.00833335
0.00833335
0.00833335
0.00833335
0.00833335
0.00833335
0.00833335
0.00833335
0.00833335
0.00833335
0.00833335
0.00833335
0.00833335
0.00833335
0.00833335
0.00833335
0.00833335
0.00833335
0.00833335
0.00833335
0.00833335
0.00833335
0.00833335
0.00833335
0.00833335
0.00833335
0.00833335
0.00833335
0.00833335
0.00833335
0.00833335
0.00833335
0.00833335
0.00833288
0.00830406
0.00914936
0.00762299
0.0009727
0.000758627
0.0007426
0.000721249
0.000705102
0.000684569
0.000663972
0.000641827
0.000632028
0.000610468
0.000593795
0.00057342
0.00055695
0.000540484
0.000524863
0.000507588
0.000482324
0.000473358
0.000454003
0.00043632
0.000426057
0.000408827
0.000392644
0.000374432
0.000369696
0.000353482
0.000341782
0.000330872
0.000321148
0.000319525
0.000309746
0.000309951
0.000314069
0.000314067
0.00833335
0.00833335
0.00833335
0.00833335
0.00833335
0.00833335
0.00833335
0.00833335
0.00833335
0.00833335
0.00833335
0.00833335
0.00833335
0.00833335
0.00833335
0.00833335
0.00833335
0.00833335
0.00833335
0.00833335
0.00833335
0.00833335
0.00833335
0.00833335
0.00833335
0.00833335
0.00833335
0.00833335
0.00833335
0.00833335
0.00833335
0.00833335
0.00833335
0.00833335
0.00833335
0.00833335
0.00833335
0.00833335
0.00833335
0.00833335
0.00833335
0.00833335
0.00833335
0.00833335
0.00833335
0.00833335
0.00833335
0.00833335
0.00833335
0.00833335
0.00833335
0.00833335
0.00833335
0.00833335
0.00833335
0.00833335
0.00833335
0.00833334
0.00833017
0.0083367
0.00833438
0.0074939
0.0046487
0.000759216
0.00074164
0.000721609
0.000705847
0.000679756
0.000664133
0.000647517
0.000626991
0.000610504
0.000596378
0.000572839
0.000558072
0.000541075
0.000519457
0.000503429
0.000486967
0.000472099
0.000452746
0.000437566
0.000425078
0.00040811
0.00039229
0.000379944
0.000365747
0.000357165
0.000343003
0.000330535
0.000322302
0.000318375
0.000309971
0.000309949
0.000313989
0.000314139
0.00833335
0.00833335
0.00833335
0.00833335
0.00833335
0.00833335
0.00833335
0.00833335
0.00833335
0.00833335
0.00833335
0.00833335
0.00833335
0.00833335
0.00833335
0.00833335
0.00833335
0.00833335
0.00833335
0.00833335
0.00833335
0.00833335
0.00833335
0.00833335
0.00833335
0.00833335
0.00833335
0.00833335
0.00833335
0.00833335
0.00833335
0.00833335
0.00833335
0.00833335
0.00833335
0.00833335
0.00833335
0.00833335
0.00833335
0.00833335
0.00833335
0.00833335
0.00833335
0.00833335
0.00833335
0.00833335
0.00833335
0.00833335
0.00833335
0.00833335
0.00833335
0.00833335
0.00833335
0.00833335
0.00833335
0.00833335
0.00833335
0.00833301
0.00833355
0.00833168
0.00833313
0.00833342
0.00662904
0.000758657
0.000738092
0.000722898
0.000698399
0.000682463
0.00066369
0.000643358
0.000626556
0.000606425
0.000589891
0.000573414
0.000558222
0.000536682
0.000519901
0.000503468
0.000486964
0.000470499
0.000453602
0.00043819
0.000425218
0.000409848
0.000390275
0.000381673
0.000367584
0.000355285
0.000343641
0.000330222
0.000321929
0.000318354
0.000309951
0.000309951
0.000309951
0.00030995
0.00833335
0.00833335
0.00833335
0.00833335
0.00833335
0.00833335
0.00833335
0.00833335
0.00833335
0.00833335
0.00833335
0.00833335
0.00833335
0.00833335
0.00833335
0.00833335
0.00833335
0.00833335
0.00833335
0.00833335
0.00833335
0.00833335
0.00833335
0.00833335
0.00833335
0.00833335
0.00833335
0.00833335
0.00833335
0.00833335
0.00833335
0.00833335
0.00833335
0.00833335
0.00833335
0.00833335
0.00833335
0.00833335
0.00833335
0.00833335
0.00833335
0.00833335
0.00833335
0.00833335
0.00833335
0.00833335
0.00833335
0.00833335
0.00833335
0.00833335
0.00833335
0.00833335
0.00833335
0.00833335
0.00833335
0.00833335
0.00833335
0.00833334
0.00833344
0.00833342
0.00840257
0.00832493
0.00142867
0.000762794
0.000739947
0.000721419
0.000703261
0.000680967
0.000667811
0.000643483
0.000627501
0.000610468
0.000589885
0.000573418
0.000558836
0.000538724
0.000524017
0.000503432
0.000486895
0.000470534
0.000454033
0.000441696
0.00042522
0.000410253
0.000394157
0.000379934
0.000367584
0.000355233
0.000342884
0.000330534
0.000322301
0.000318184
0.000310786
0.000310612
0.000314481
0.000309885
0.00833335
0.00833335
0.00833335
0.00833335
0.00833335
0.00833335
0.00833335
0.00833335
0.00833335
0.00833335
0.00833335
0.00833335
0.00833335
0.00833335
0.00833335
0.00833335
0.00833335
0.00833335
0.00833335
0.00833335
0.00833335
0.00833335
0.00833335
0.00833335
0.00833335
0.00833335
0.00833335
0.00833335
0.00833335
0.00833335
0.00833335
0.00833335
0.00833335
0.00833335
0.00833335
0.00833335
0.00833335
0.00833335
0.00833335
0.00833335
0.00833335
0.00833335
0.00833335
0.00833335
0.00833335
0.00833335
0.00833335
0.00833335
0.00833335
0.00833335
0.00833335
0.00833335
0.00833335
0.00833335
0.00833335
0.00833335
0.00833335
0.00833335
0.00833707
0.00832939
0.00828283
0.0021877
0.00103901
0.000812203
0.000770724
0.000738084
0.00072573
0.000684568
0.000666936
0.000647306
0.000632461
0.000610469
0.000594002
0.000573159
0.000559824
0.000537181
0.000524015
0.000509449
0.000485288
0.000472232
0.000456141
0.000440401
0.000422862
0.000410111
0.00039689
0.000379522
0.000367584
0.000355223
0.000343198
0.000329445
0.000322022
0.00031817
0.000309408
0.000310464
0.000314065
0.000314067
0.00833335
0.00833335
0.00833335
0.00833335
0.00833335
0.00833335
0.00833335
0.00833335
0.00833335
0.00833335
0.00833335
0.00833335
0.00833335
0.00833335
0.00833335
0.00833335
0.00833335
0.00833335
0.00833335
0.00833335
0.00833335
0.00833335
0.00833335
0.00833335
0.00833335
0.00833335
0.00833335
0.00833335
0.00833335
0.00833335
0.00833335
0.00833335
0.00833335
0.00833335
0.00833335
0.00833335
0.00833335
0.00833335
0.00833335
0.00833335
0.00833335
0.00833335
0.00833335
0.00833335
0.00833335
0.00833335
0.00833335
0.00833335
0.00833335
0.00833335
0.00833335
0.00833335
0.00833335
0.00833335
0.00833335
0.00833335
0.00833335
0.00833335
0.00833333
0.00834683
0.00768991
0.00278543
0.00766566
0.00258738
0.00335618
0.00241836
0.00243749
0.00233609
0.00224035
0.00211348
0.00195668
0.0017802
0.00153659
0.00137862
0.00120545
0.000936591
0.000746295
0.000659861
0.000565415
0.00051172
0.00047442
0.000445499
0.000429322
0.000409171
0.00038932
0.000381571
0.000367547
0.0003579
0.000340678
0.000329532
0.000322816
0.000314685
0.000305923
0.000309964
0.000309863
0.000314157
0.00833335
0.00833335
0.00833335
0.00833335
0.00833335
0.00833335
0.00833335
0.00833335
0.00833335
0.00833335
0.00833335
0.00833335
0.00833335
0.00833335
0.00833335
0.00833335
0.00833335
0.00833335
0.00833335
0.00833335
0.00833335
0.00833335
0.00833335
0.00833335
0.00833335
0.00833335
0.00833335
0.00833335
0.00833335
0.00833335
0.00833335
0.00833335
0.00833335
0.00833335
0.00833335
0.00833335
0.00833335
0.00833335
0.00833335
0.00833335
0.00833335
0.00833335
0.00833335
0.00833335
0.00833335
0.00833335
0.00833335
0.00833335
0.00833335
0.00833335
0.00833335
0.00833335
0.00833335
0.00833335
0.00833335
0.00833335
0.00833335
0.00833335
0.00833334
0.00834029
0.00731226
0.00772482
0.00828904
0.00824987
0.00821901
0.00827055
0.00836003
0.00825289
0.00843477
0.00823798
0.00828336
0.00821134
0.00830386
0.00840244
0.00812567
0.00791051
0.00802712
0.00795769
0.00775285
0.00646835
0.00541684
0.0038136
0.00286211
0.00219397
0.00127883
0.000934433
0.000470532
0.000413028
0.000375939
0.000343997
0.00032233
0.00031819
0.000309872
0.000305876
0.00030997
0.00030995
0.00833335
0.00833335
0.00833335
0.00833335
0.00833335
0.00833335
0.00833335
0.00833335
0.00833335
0.00833335
0.00833335
0.00833335
0.00833335
0.00833335
0.00833335
0.00833335
0.00833335
0.00833335
0.00833335
0.00833335
0.00833335
0.00833335
0.00833335
0.00833335
0.00833335
0.00833335
0.00833335
0.00833335
0.00833335
0.00833335
0.00833335
0.00833335
0.00833335
0.00833335
0.00833335
0.00833335
0.00833335
0.00833335
0.00833335
0.00833335
0.00833335
0.00833335
0.00833335
0.00833335
0.00833335
0.00833335
0.00833335
0.00833335
0.00833335
0.00833335
0.00833335
0.00833335
0.00833335
0.00833335
0.00833335
0.00833335
0.00833335
0.00833335
0.00833335
0.0083193
0.00955155
0.00828594
0.008334
0.00881335
0.0069599
0.00831329
0.00780521
0.00853395
0.00834949
0.00822511
0.00829678
0.00777677
0.00856053
0.0083322
0.00833725
0.00921928
0.00680311
0.00924119
0.007173
0.00859758
0.00911115
0.00833283
0.00767564
0.00848518
0.00699891
0.00796821
0.00710137
0.00661296
0.0050487
0.00411396
0.00334885
0.0010744
0.000315925
0.000300381
0.000309674
0.000310184
0.00833335
0.00833335
0.00833335
0.00833335
0.00833335
0.00833335
0.00833335
0.00833335
0.00833335
0.00833335
0.00833335
0.00833335
0.00833335
0.00833335
0.00833335
0.00833335
0.00833335
0.00833335
0.00833335
0.00833335
0.00833335
0.00833335
0.00833335
0.00833335
0.00833335
0.00833335
0.00833335
0.00833335
0.00833335
0.00833335
0.00833335
0.00833335
0.00833335
0.00833335
0.00833335
0.00833335
0.00833335
0.00833335
0.00833335
0.00833335
0.00833335
0.00833335
0.00833335
0.00833335
0.00833335
0.00833335
0.00833335
0.00833335
0.00833335
0.00833335
0.00833335
0.00833335
0.00833335
0.00833335
0.00833335
0.00833335
0.00833335
0.00833335
0.00833335
0.00828908
0.00902389
0.00827009
0.00830499
0.0083214
0.00831815
0.00832415
0.00834395
0.00829168
0.00822306
0.00853092
0.00822513
0.0083042
0.00829986
0.00822553
0.00842797
0.00834584
0.00831315
0.00830791
0.00835703
0.00828119
0.00825367
0.00830558
0.00820113
0.00776551
0.00867081
0.00832946
0.00831921
0.00832414
0.00807985
0.00750371
0.0080758
0.00851304
0.00833396
0.00835555
0.00830852
0.0080715
0.00833335
0.00833335
0.00833335
0.00833335
0.00833335
0.00833335
0.00833335
0.00833335
0.00833335
0.00833335
0.00833335
0.00833335
0.00833335
0.00833335
0.00833335
0.00833335
0.00833335
0.00833335
0.00833335
0.00833335
0.00833335
0.00833335
0.00833335
0.00833335
0.00833335
0.00833335
0.00833335
0.00833335
0.00833335
0.00833335
0.00833335
0.00833335
0.00833335
0.00833335
0.00833335
0.00833335
0.00833335
0.00833335
0.00833335
0.00833335
0.00833335
0.00833335
0.00833335
0.00833335
0.00833335
0.00833335
0.00833335
0.00833335
0.00833335
0.00833335
0.00833335
0.00833335
0.00833335
0.00833335
0.00833335
0.00833335
0.00833335
0.00833287
0.0083338
0.00829779
0.00878229
0.00842088
0.00811491
0.00839295
0.00820706
0.00834951
0.00834447
0.00830577
0.00829553
0.00831987
0.00832252
0.0083212
0.00833083
0.00833833
0.00834334
0.00833107
0.00833828
0.00833349
0.00833614
0.00833645
0.0083151
0.00831102
0.00832571
0.00829987
0.00831207
0.00833531
0.00832125
0.00831924
0.00832648
0.0083297
0.00833432
0.00835234
0.00838027
0.0082187
0.00835923
0.00833334
0.00833335
0.00833335
0.00833335
0.00833335
0.00833335
0.00833335
0.00833335
0.00833335
0.00833335
0.00833335
0.00833335
0.00833335
0.00833335
0.00833335
0.00833335
0.00833335
0.00833335
0.00833335
0.00833335
0.00833335
0.00833335
0.00833335
0.00833335
0.00833335
0.00833335
0.00833335
0.00833335
0.00833335
0.00833335
0.00833335
0.00833335
0.00833335
0.00833335
0.00833335
0.00833335
0.00833335
0.00833335
0.00833335
0.00833335
0.00833335
0.00833335
0.00833335
0.00833335
0.00833335
0.00833335
0.00833335
0.00833335
0.00833335
0.00833335
0.00833335
0.00833335
0.00833335
0.00833335
0.00833335
0.00833335
0.00833335
0.00833335
0.00833334
0.00833295
0.00833036
0.00767124
0.00872174
0.00787675
0.00804432
0.0082384
0.00833253
0.00833657
0.00828578
0.00834439
0.00835336
0.00831433
0.0082475
0.00829495
0.00834042
0.00828352
0.00833719
0.00818299
0.00811004
0.00813493
0.00832032
0.00832361
0.00832537
0.00831155
0.00831969
0.00830628
0.00790452
0.00821714
0.0086028
0.00758665
0.00843821
0.00823207
0.00847138
0.00832065
0.00833352
0.00833194
0.00833301
0.00833335
0.00833335
0.00833335
0.00833335
0.00833335
0.00833335
0.00833335
0.00833335
0.00833335
0.00833335
0.00833335
0.00833335
0.00833335
0.00833335
0.00833335
0.00833335
0.00833335
0.00833335
0.00833335
0.00833335
0.00833335
0.00833335
0.00833335
0.00833335
0.00833335
0.00833335
0.00833335
0.00833335
0.00833335
0.00833335
0.00833335
0.00833335
0.00833335
0.00833335
0.00833335
0.00833335
0.00833335
0.00833335
0.00833335
0.00833335
0.00833335
0.00833335
0.00833335
0.00833335
0.00833335
0.00833335
0.00833335
0.00833335
0.00833335
0.00833335
0.00833335
0.00833335
0.00833335
0.00833335
0.00833335
0.00833335
0.00833335
0.00833335
0.00833333
0.00833134
0.00861198
0.00864611
0.00831837
0.00847424
0.00829187
0.0083144
0.00834159
0.00821173
0.00832603
0.00825802
0.00823387
0.00818706
0.00828691
0.00829116
0.00828036
0.00828899
0.00825127
0.00829424
0.00844821
0.0083971
0.00827461
0.00811187
0.00836049
0.00813172
0.00802992
0.00797476
0.00781409
0.00732671
0.00635349
0.00331369
0.00262503
0.00228216
0.00227027
0.00213101
0.00148795
0.000309745
0.00833335
0.00833335
0.00833335
0.00833335
0.00833335
0.00833335
0.00833335
0.00833335
0.00833335
0.00833335
0.00833335
0.00833335
0.00833335
0.00833335
0.00833335
0.00833335
0.00833335
0.00833335
0.00833335
0.00833335
0.00833335
0.00833335
0.00833335
0.00833335
0.00833335
0.00833335
0.00833335
0.00833335
0.00833335
0.00833335
0.00833335
0.00833335
0.00833335
0.00833335
0.00833335
0.00833335
0.00833335
0.00833335
0.00833335
0.00833335
0.00833335
0.00833335
0.00833335
0.00833335
0.00833335
0.00833335
0.00833335
0.00833335
0.00833335
0.00833335
0.00833335
0.00833335
0.00833335
0.00833335
0.00833335
0.00833335
0.00833335
0.00833335
0.00833327
0.00833307
0.00825248
0.00155618
0.0070937
0.00187179
0.00236785
0.00168562
0.00162756
0.00145434
0.00130743
0.00096113
0.000842932
0.000784165
0.000754895
0.000709417
0.000684512
0.000659862
0.000635059
0.000610371
0.00059079
0.000558352
0.000537006
0.000508222
0.0004894
0.000458117
0.000433407
0.000411441
0.000385323
0.000361231
0.000347818
0.000337086
0.000322307
0.000318419
0.000309853
0.000309972
0.000309977
0.000314067
0.00833335
0.00833335
0.00833335
0.00833335
0.00833335
0.00833335
0.00833335
0.00833335
0.00833335
0.00833335
0.00833335
0.00833335
0.00833335
0.00833335
0.00833335
0.00833335
0.00833335
0.00833335
0.00833335
0.00833335
0.00833335
0.00833335