/*--------------------------------*- C++ -*----------------------------------*\
| =========                 |                                                 |
| \\      /  F ield         | OpenFOAM: The Open Source CFD Toolbox           |
|  \\    /   O peration     | Version:  2.3.0                                 |
|   \\  /    A nd           | Web:      www.OpenFOAM.org                      |
|    \\/     M anipulation  |                                                 |
\*---------------------------------------------------------------------------*/
FoamFile
{
    version     2.0;
    format      ascii;
    class       volScalarField;
    location    "10";
    object      epsilon.water;
}
// * * * * * * * * * * * * * * * * * * * * * * * * * * * * * * * * * * * * * //

dimensions      [0 2 -3 0 0 0 0];

internalField   nonuniform List<scalar> 
6144
(
6.58476e-06
3.01728e-06
1.20478e-06
1.07344e-06
5.9399e-07
5.01212e-07
4.22208e-07
3.95938e-07
3.80351e-07
3.87994e-07
3.76254e-07
3.81772e-07
3.62664e-07
3.62751e-07
3.46643e-07
3.46657e-07
3.35479e-07
3.35337e-07
3.29406e-07
3.29181e-07
3.26796e-07
3.26892e-07
3.26671e-07
3.2726e-07
3.28106e-07
3.29356e-07
3.30815e-07
3.32453e-07
3.34259e-07
3.36195e-07
3.38279e-07
3.40438e-07
3.42891e-07
3.45147e-07
3.48543e-07
3.5073e-07
3.55717e-07
3.58144e-07
3.65676e-07
3.69245e-07
3.81544e-07
3.89024e-07
4.0893e-07
4.27865e-07
4.57463e-07
5.07979e-07
5.61001e-07
7.73959e-07
1.45842e-06
3.89373e-06
9.62903e-06
1.96192e-05
3.90157e-05
0.000164598
0.000470703
0.00090754
0.00150962
0.00437692
0.0138784
0.0239783
0.0670317
0.0351177
0.0208792
0.0129502
0.00908469
0.00686474
0.00542372
0.00440805
0.00365998
0.00308372
0.00262028
0.00223194
0.00190267
0.00162242
0.00138897
0.00119891
0.00104342
0.000919601
0.000816457
0.000733974
0.000666143
0.000607276
0.00056174
0.000514597
0.000478398
0.000433963
0.000388182
0.000332363
0.000198784
1.99438e-05
3.50766e-06
2.79831e-06
1.73222e-06
8.67841e-07
4.82974e-07
3.57565e-07
2.1447e-05
1.29274e-05
6.30129e-06
5.59996e-06
2.85241e-06
2.19044e-06
1.50628e-06
1.14477e-06
1.0388e-06
1.08329e-06
1.05051e-06
1.09491e-06
9.86464e-07
9.75073e-07
8.81697e-07
8.71251e-07
8.03306e-07
7.96484e-07
7.57827e-07
7.52824e-07
7.34734e-07
7.32248e-07
7.27155e-07
7.27541e-07
7.29092e-07
7.33127e-07
7.38366e-07
7.44707e-07
7.51992e-07
7.60057e-07
7.68944e-07
7.78312e-07
7.89255e-07
7.99488e-07
8.15813e-07
8.25416e-07
8.50954e-07
8.61319e-07
9.0048e-07
9.15155e-07
9.80107e-07
1.00929e-06
1.1208e-06
1.18532e-06
1.39874e-06
1.59582e-06
1.92788e-06
2.85242e-06
5.23703e-06
1.3169e-05
2.68019e-05
4.5756e-05
9.0031e-05
0.000374485
0.00095746
0.00195824
0.00546204
0.0125505
0.0226318
0.0188542
0.034372
0.00850154
0.00621376
0.00473276
0.00397694
0.00363662
0.00332403
0.00300374
0.00268921
0.00238573
0.00210288
0.00183498
0.00157793
0.0013548
0.00117085
0.00102056
0.000894324
0.000787313
0.000700461
0.000640374
0.000585349
0.000544853
0.000513549
0.000478106
0.000448583
0.000406346
0.000358352
0.000305588
0.00019395
3.92794e-05
1.60966e-05
1.70597e-05
1.27395e-05
4.21084e-06
9.58786e-07
4.11378e-07
3.10065e-05
2.24012e-05
1.14274e-05
1.02444e-05
7.2113e-06
5.62129e-06
4.64454e-06
3.32219e-06
2.90724e-06
2.78137e-06
2.83682e-06
3.03311e-06
2.96647e-06
2.91977e-06
2.70241e-06
2.6365e-06
2.46043e-06
2.41907e-06
2.30946e-06
2.28644e-06
2.23067e-06
2.22053e-06
2.20206e-06
2.20188e-06
2.20489e-06
2.21598e-06
2.23081e-06
2.24946e-06
2.271e-06
2.29516e-06
2.32178e-06
2.34976e-06
2.38116e-06
2.4138e-06
2.45919e-06
2.49068e-06
2.56032e-06
2.59489e-06
2.69576e-06
2.73982e-06
2.90849e-06
2.97608e-06
3.2758e-06
3.34497e-06
3.72994e-06
3.81686e-06
4.57251e-06
7.10762e-06
1.38547e-05
3.20158e-05
6.7049e-05
0.000111231
0.00017021
0.000545236
0.00135351
0.00287489
0.00499274
0.01033
0.012379
0.00874782
0.0219368
0.00328708
0.00338465
0.0034265
0.00316591
0.00274452
0.00239661
0.0021319
0.00192684
0.00171211
0.00153082
0.00135692
0.00119228
0.001054
0.000929548
0.000804082
0.00070349
0.000645986
0.000625716
0.000602892
0.000553035
0.000535839
0.000550157
0.00054865
0.000511675
0.000432417
0.00035344
0.000283312
0.00016399
4.09859e-05
3.18796e-05
3.68453e-05
3.96622e-05
1.91482e-05
3.78209e-06
6.91162e-07
4.06559e-05
3.25379e-05
1.2112e-05
1.0924e-05
7.67719e-06
6.622e-06
5.95799e-06
4.63844e-06
4.08462e-06
3.64258e-06
3.76106e-06
4.02118e-06
4.20777e-06
4.24351e-06
4.25087e-06
4.24232e-06
4.24147e-06
4.25497e-06
4.26663e-06
4.28693e-06
4.30145e-06
4.32226e-06
4.34207e-06
4.36715e-06
4.39431e-06
4.42355e-06
4.45294e-06
4.48303e-06
4.51367e-06
4.54491e-06
4.57659e-06
4.6087e-06
4.64181e-06
4.67879e-06
4.7147e-06
4.74454e-06
4.77997e-06
4.79286e-06
4.82253e-06
4.82017e-06
4.8694e-06
4.84381e-06
4.90306e-06
4.81977e-06
4.95839e-06
4.96474e-06
5.81334e-06
9.32897e-06
2.0311e-05
4.98059e-05
0.000123684
0.000216139
0.000345548
0.000875446
0.00268253
0.00465936
0.00656081
0.0104912
0.00647139
0.00512821
0.0156008
0.00236848
0.00168068
0.00220079
0.00230682
0.00208983
0.00180527
0.00153815
0.00133407
0.00116967
0.00102619
0.000916752
0.00101581
0.00107944
0.0010875
0.00105286
0.000969561
0.00088216
0.000786793
0.000686802
0.000587895
0.000495496
0.000433544
0.000398369
0.000369936
0.000328383
0.000271548
0.000196662
7.67071e-05
3.86751e-05
4.28804e-05
4.83177e-05
5.21198e-05
3.17745e-05
7.32731e-06
1.10737e-06
5.53179e-05
5.73862e-05
1.34143e-05
1.32095e-05
7.67659e-06
7.08398e-06
5.21682e-06
4.34763e-06
3.80107e-06
3.27708e-06
3.50523e-06
3.88812e-06
4.17027e-06
4.30108e-06
4.3949e-06
4.45305e-06
4.55778e-06
4.63172e-06
4.74344e-06
4.81576e-06
4.89662e-06
4.94966e-06
5.00767e-06
5.05693e-06
5.10633e-06
5.15056e-06
5.19051e-06
5.22768e-06
5.26301e-06
5.29659e-06
5.32834e-06
5.36046e-06
5.39164e-06
5.42559e-06
5.44959e-06
5.46983e-06
5.47308e-06
5.45782e-06
5.42807e-06
5.37424e-06
5.3205e-06
5.20943e-06
5.11493e-06
4.97599e-06
4.86651e-06
4.86327e-06
5.29276e-06
9.67821e-06
2.59586e-05
7.41945e-05
0.000190116
0.000359782
0.000657535
0.00154389
0.00588418
0.00752688
0.0140917
0.0134921
0.00397179
0.00342233
0.0105495
0.00208102
0.00156893
0.00149975
0.00145793
0.00114845
0.00107956
0.00106552
0.00114321
0.00120954
0.00126743
0.00136509
0.00141919
0.00143245
0.0014059
0.00135102
0.00122603
0.00107478
0.000885636
0.000697065
0.000521882
0.000376202
0.000271354
0.000219092
0.000172868
0.00014226
0.000115224
7.66568e-05
5.28044e-05
4.72825e-05
4.88761e-05
5.04822e-05
4.94356e-05
3.03179e-05
7.76985e-06
1.08323e-06
7.92572e-05
9.79171e-05
2.29989e-05
2.63415e-05
1.24463e-05
1.12784e-05
6.22954e-06
5.00445e-06
3.56841e-06
2.90896e-06
2.93617e-06
3.44504e-06
3.88449e-06
4.14503e-06
4.30948e-06
4.43876e-06
4.55979e-06
4.65954e-06
4.74967e-06
4.81564e-06
4.87672e-06
4.92152e-06
4.96642e-06
5.00015e-06
5.02972e-06
5.05479e-06
5.07902e-06
5.1007e-06
5.11928e-06
5.13497e-06
5.14774e-06
5.16089e-06
5.1718e-06
5.188e-06
5.20104e-06
5.21128e-06
5.21289e-06
5.20373e-06
5.1862e-06
5.14611e-06
5.09479e-06
5.00925e-06
4.89044e-06
4.80241e-06
4.50518e-06
4.63489e-06
4.93764e-06
1.16387e-05
3.50377e-05
9.69541e-05
0.000219869
0.000438799
0.000943526
0.00317005
0.00931677
0.00966135
0.0135366
0.012527
0.00346808
0.00317224
0.00725133
0.00207049
0.00173203
0.00152418
0.00142946
0.00139674
0.0014598
0.00152632
0.00164721
0.00171298
0.00176725
0.00178593
0.00179123
0.00174523
0.00164813
0.00154323
0.00143849
0.00132548
0.00121166
0.00110125
0.000986121
0.000863229
0.000723994
0.00058243
0.000464617
0.000347119
0.000269991
0.000208522
0.00016539
0.000117975
8.23578e-05
6.69635e-05
5.50243e-05
3.27899e-05
1.24305e-05
2.5253e-06
0.000109238
0.0001631
5.2845e-05
6.51092e-05
2.56573e-05
2.03461e-05
1.08741e-05
8.39358e-06
5.00446e-06
3.39401e-06
2.85556e-06
3.17285e-06
3.59148e-06
3.86092e-06
4.02114e-06
4.17131e-06
4.288e-06
4.39731e-06
4.47539e-06
4.53955e-06
4.58741e-06
4.62308e-06
4.65635e-06
4.67942e-06
4.69887e-06
4.71426e-06
4.72712e-06
4.73809e-06
4.74801e-06
4.75797e-06
4.76787e-06
4.7816e-06
4.7962e-06
4.82014e-06
4.83938e-06
4.86108e-06
4.87201e-06
4.87344e-06
4.85965e-06
4.81419e-06
4.75084e-06
4.68219e-06
4.54672e-06
4.50271e-06
4.17715e-06
4.48415e-06
5.19824e-06
1.38575e-05
3.97554e-05
0.000103004
0.00021264
0.000372227
0.000676733
0.00179931
0.00667889
0.0098468
0.0109091
0.0101975
0.00395598
0.00384056
0.00547561
0.00229354
0.00211578
0.00194146
0.00187338
0.00184132
0.00183755
0.00183042
0.00183197
0.00182312
0.00181401
0.001764
0.00170696
0.00162348
0.00154588
0.00147462
0.00141437
0.00131406
0.00125997
0.00119398
0.00115271
0.00110828
0.00105592
0.00099779
0.000921679
0.00080227
0.000686788
0.000565221
0.000452353
0.000356753
0.000263815
0.000187617
0.000137137
8.23559e-05
4.12857e-05
7.00504e-06
0.000131393
0.000216704
0.00012287
0.000139197
5.31572e-05
3.31992e-05
1.78874e-05
1.38082e-05
8.22326e-06
4.36107e-06
3.28237e-06
3.4393e-06
3.88103e-06
4.19069e-06
4.36828e-06
4.52626e-06
4.62234e-06
4.75004e-06
4.86281e-06
4.97138e-06
5.05862e-06
5.14017e-06
5.21773e-06
5.2873e-06
5.35434e-06
5.41833e-06
5.48088e-06
5.54364e-06
5.61145e-06
5.68292e-06
5.75562e-06
5.83253e-06
5.9115e-06
5.99936e-06
6.08226e-06
6.16605e-06
6.22373e-06
6.25651e-06
6.24322e-06
6.18139e-06
6.05474e-06
5.92338e-06
5.69371e-06
5.56528e-06
5.17889e-06
5.52416e-06
6.95505e-06
1.78959e-05
4.77333e-05
0.000105582
0.000202676
0.000328675
0.000542633
0.00104054
0.00292998
0.00594225
0.00984015
0.00987473
0.00398536
0.00388799
0.00491398
0.00268659
0.00264862
0.00255562
0.00240932
0.00230143
0.00225075
0.00218082
0.00212749
0.00204186
0.00199866
0.00190396
0.00182124
0.00167415
0.00154458
0.00138194
0.00123345
0.00109101
0.000961193
0.000870345
0.000818923
0.000802304
0.000807158
0.000818454
0.000816373
0.000741963
0.000620241
0.00048643
0.000349075
0.000234816
0.000144058
9.82784e-05
7.0531e-05
5.17876e-05
3.62591e-05
1.87905e-05
0.000135032
0.000215746
0.000199217
0.00019231
9.53646e-05
5.16489e-05
2.51132e-05
1.71067e-05
1.17411e-05
5.00087e-06
2.4253e-06
2.03867e-06
2.24155e-06
2.48956e-06
2.74269e-06
3.00596e-06
3.26778e-06
3.45419e-06
3.60814e-06
3.72483e-06
3.823e-06
3.90183e-06
3.97308e-06
4.0314e-06
4.08386e-06
4.12972e-06
4.17122e-06
4.20848e-06
4.23921e-06
4.26245e-06
4.2805e-06
4.29708e-06
4.31151e-06
4.32872e-06
4.34047e-06
4.3512e-06
4.3358e-06
4.30866e-06
4.23054e-06
4.14321e-06
4.00303e-06
3.90455e-06
3.75111e-06
3.68762e-06
3.51021e-06
3.83859e-06
5.4163e-06
1.43916e-05
4.05051e-05
8.47111e-05
0.000158662
0.000232181
0.000344702
0.000688663
0.00151224
0.00351422
0.00960693
0.0115459
0.00395324
0.00380946
0.00555314
0.00275589
0.00272152
0.00272163
0.00257401
0.00244058
0.00236851
0.00223579
0.00213039
0.00196484
0.00181946
0.00162031
0.00142123
0.00117243
0.000966262
0.000790048
0.000667301
0.000576867
0.000501588
0.000431143
0.000364482
0.000300736
0.000242036
0.000216929
0.000200547
0.000205814
0.000258453
0.000289015
0.000267373
0.000219984
0.000174359
0.000129975
0.000104179
9.21294e-05
7.36765e-05
2.36804e-05
0.000108978
0.000151611
0.000168214
0.000181213
0.000135111
7.39493e-05
3.49323e-05
2.40141e-05
1.66083e-05
6.53867e-06
2.09957e-06
1.23862e-06
1.24438e-06
1.30455e-06
1.39227e-06
1.47413e-06
1.58853e-06
1.6749e-06
1.76801e-06
1.8342e-06
1.89693e-06
1.944e-06
1.98612e-06
2.02057e-06
2.0519e-06
2.07993e-06
2.10611e-06
2.13095e-06
2.15535e-06
2.18301e-06
2.21697e-06
2.25863e-06
2.30485e-06
2.3565e-06
2.40922e-06
2.46278e-06
2.50689e-06
2.53361e-06
2.51475e-06
2.45075e-06
2.35631e-06
2.34485e-06
2.30637e-06
2.31803e-06
2.28808e-06
2.61523e-06
4.11688e-06
1.10698e-05
3.14099e-05
6.33889e-05
0.000114271
0.000164949
0.000242017
0.000447645
0.00112285
0.00466554
0.0114101
0.0126064
0.00415232
0.00393512
0.00653168
0.00256923
0.00242596
0.00230024
0.00214569
0.00192727
0.00183188
0.00159675
0.00143316
0.00115523
0.00094343
0.000706264
0.0005581
0.000440933
0.000390287
0.000354872
0.000340363
0.000335965
0.000335293
0.000330171
0.000307539
0.000275068
0.00022372
0.000186572
0.000128964
7.56262e-05
5.41132e-05
5.28339e-05
5.44877e-05
2.86997e-05
1.46114e-05
1.21798e-05
1.29933e-05
1.87778e-05
2.39084e-05
1.87523e-05
8.7847e-05
8.45824e-05
9.44628e-05
0.000121362
0.000134703
8.57944e-05
4.27406e-05
2.75492e-05
1.99456e-05
9.00821e-06
2.65579e-06
1.36175e-06
1.26072e-06
1.23188e-06
1.2035e-06
1.19444e-06
1.21966e-06
1.25103e-06
1.29392e-06
1.33226e-06
1.37593e-06
1.41583e-06
1.45899e-06
1.49898e-06
1.53899e-06
1.57786e-06
1.61622e-06
1.65394e-06
1.69085e-06
1.72639e-06
1.75944e-06
1.79072e-06
1.8199e-06
1.84871e-06
1.87328e-06
1.90452e-06
1.94038e-06
1.97255e-06
1.99169e-06
2.01851e-06
2.06769e-06
2.08577e-06
2.09324e-06
2.12502e-06
2.13479e-06
2.35927e-06
3.44988e-06
8.60654e-06
2.3406e-05
4.72438e-05
8.48446e-05
0.000126332
0.000204505
0.000457836
0.00128399
0.00439262
0.0108076
0.0127547
0.00400175
0.00366808
0.00986333
0.00225584
0.00176413
0.00140689
0.00126396
0.000983792
0.00091028
0.000743846
0.000658239
0.000513456
0.000417473
0.000326143
0.000273837
0.000241063
0.000231569
0.000230597
0.000244613
0.000269649
0.000301933
0.000323177
0.000336879
0.000358416
0.000356198
0.000329243
0.000268189
0.000151432
5.00046e-05
2.82567e-05
2.93729e-05
1.88967e-05
6.79862e-06
4.87806e-06
5.51347e-06
9.96785e-06
1.22713e-05
1.25998e-05
0.000107384
0.000101467
0.000113206
0.000120116
0.000120765
7.84505e-05
4.50156e-05
2.98932e-05
2.20179e-05
1.08847e-05
3.46194e-06
1.65854e-06
1.5128e-06
1.47597e-06
1.4193e-06
1.39033e-06
1.39675e-06
1.41178e-06
1.44025e-06
1.46629e-06
1.49845e-06
1.52676e-06
1.55777e-06
1.58663e-06
1.61611e-06
1.6458e-06
1.67663e-06
1.70838e-06
1.74059e-06
1.77262e-06
1.80304e-06
1.83227e-06
1.86409e-06
1.91067e-06
1.96372e-06
2.0109e-06
2.04071e-06
2.06883e-06
2.09418e-06
2.1004e-06
2.10078e-06
2.12933e-06
2.16e-06
2.20409e-06
2.25045e-06
2.41403e-06
3.33057e-06
7.75221e-06
2.05587e-05
4.1637e-05
7.25385e-05
0.000115836
0.000233423
0.000556216
0.00150845
0.00401448
0.00711142
0.0110804
0.00517228
0.00435164
0.0124822
0.00194006
0.00125049
0.00110542
0.00115342
0.000753287
0.000631623
0.000549396
0.000496842
0.000445937
0.000413422
0.000390036
0.000377926
0.000379239
0.00038454
0.000394458
0.000410032
0.000423039
0.00043554
0.000439589
0.000444015
0.000436801
0.00042254
0.00040188
0.00036951
0.000309488
0.000158651
3.00467e-05
2.00703e-05
1.88356e-05
6.84953e-06
4.33772e-06
4.44937e-06
8.40884e-06
1.14583e-05
1.07994e-05
0.000111903
0.000143111
0.000156167
0.000175206
0.000137733
9.65975e-05
5.22703e-05
3.31441e-05
2.51571e-05
1.25643e-05
3.87884e-06
1.57144e-06
1.46794e-06
1.49783e-06
1.49403e-06
1.50249e-06
1.51481e-06
1.53593e-06
1.56064e-06
1.58658e-06
1.61651e-06
1.64614e-06
1.67686e-06
1.70762e-06
1.73938e-06
1.77222e-06
1.80613e-06
1.84112e-06
1.87588e-06
1.90913e-06
1.94029e-06
1.968e-06
1.9954e-06
2.02508e-06
2.05254e-06
2.08045e-06
2.10231e-06
2.1259e-06
2.14893e-06
2.16109e-06
2.16475e-06
2.19008e-06
2.22422e-06
2.27011e-06
2.32911e-06
2.48738e-06
3.40042e-06
7.63048e-06
1.99376e-05
4.01676e-05
7.06522e-05
0.000128523
0.000275481
0.000627478
0.0011462
0.00284121
0.00627297
0.0105104
0.00917104
0.00690329
0.0183271
0.00214093
0.00133752
0.00173843
0.00183958
0.00158414
0.00128116
0.0010989
0.000987279
0.000922945
0.000874441
0.000845301
0.000823746
0.00080852
0.000797002
0.000782147
0.000770527
0.000750746
0.000734663
0.000704424
0.000679402
0.000635873
0.000595563
0.000541689
0.000462848
0.000390995
0.000260131
6.83961e-05
1.49499e-05
1.48517e-05
6.43985e-06
4.26228e-06
4.48621e-06
7.99097e-06
1.04477e-05
1.00209e-05
0.000104495
0.000140539
0.000150576
0.000170147
0.000123092
8.95983e-05
5.12579e-05
3.3288e-05
2.61786e-05
1.33745e-05
3.83506e-06
1.4668e-06
1.36766e-06
1.45145e-06
1.46024e-06
1.47503e-06
1.49084e-06
1.51306e-06
1.53826e-06
1.56408e-06
1.59372e-06
1.62272e-06
1.6526e-06
1.68226e-06
1.71261e-06
1.74346e-06
1.77449e-06
1.80551e-06
1.83606e-06
1.86603e-06
1.89501e-06
1.92167e-06
1.94889e-06
1.97884e-06
2.00817e-06
2.0385e-06
2.06389e-06
2.0907e-06
2.11734e-06
2.13781e-06
2.15473e-06
2.18691e-06
2.22885e-06
2.27685e-06
2.34272e-06
2.50315e-06
3.46037e-06
7.88946e-06
2.07108e-05
4.2086e-05
7.7435e-05
0.000130503
0.00022213
0.00042707
0.000880867
0.00211528
0.00619902
0.0110121
0.0132726
0.0107962
0.0237388
0.00293398
0.00292844
0.00319425
0.00308392
0.0027916
0.00243741
0.00215166
0.00192884
0.0017601
0.00162282
0.00151406
0.0014195
0.00133647
0.00126383
0.0011912
0.00112835
0.00105801
0.000996195
0.000922796
0.000854965
0.000775467
0.000697782
0.000619937
0.000527783
0.000449171
0.000311146
0.000108556
1.378e-05
8.80422e-06
5.2296e-06
4.19149e-06
4.75033e-06
7.65202e-06
9.21885e-06
9.77562e-06
7.29977e-05
9.67873e-05
9.67658e-05
0.000101342
7.81443e-05
6.99063e-05
4.38176e-05
3.1061e-05
2.22977e-05
1.10994e-05
3.39062e-06
1.33594e-06
1.1865e-06
1.26659e-06
1.28747e-06
1.30718e-06
1.3281e-06
1.34962e-06
1.37495e-06
1.39894e-06
1.42677e-06
1.45326e-06
1.48072e-06
1.50766e-06
1.53519e-06
1.56321e-06
1.59166e-06
1.62069e-06
1.65047e-06
1.68092e-06
1.71171e-06
1.74189e-06
1.77319e-06
1.80644e-06
1.8388e-06
1.87122e-06
1.90028e-06
1.93079e-06
1.96116e-06
1.99403e-06
2.03138e-06
2.07002e-06
2.11773e-06
2.16514e-06
2.24112e-06
2.39605e-06
3.34256e-06
7.46645e-06
1.97364e-05
3.97577e-05
7.13996e-05
0.000107931
0.000146297
0.000289361
0.000850125
0.00235716
0.00690221
0.0130231
0.0213947
0.0176509
0.0354137
0.00766899
0.0070107
0.00498465
0.00396042
0.00355459
0.00322152
0.00292027
0.00265408
0.00242869
0.00222731
0.00205356
0.0018997
0.00175919
0.00163662
0.00151847
0.00141363
0.00130393
0.00120557
0.00109621
0.000996293
0.000887198
0.000785051
0.000685549
0.000574881
0.000487994
0.000335654
0.00012014
1.27073e-05
4.2909e-06
3.79153e-06
3.77206e-06
4.30415e-06
5.48572e-06
6.28029e-06
7.48039e-06
4.78156e-05
5.3083e-05
4.68473e-05
4.30977e-05
3.4645e-05
3.10107e-05
1.99785e-05
1.5974e-05
9.9486e-06
5.97948e-06
2.08918e-06
9.02947e-07
7.27768e-07
7.47621e-07
7.69301e-07
7.84176e-07
8.02816e-07
8.16635e-07
8.34333e-07
8.49697e-07
8.67944e-07
8.85458e-07
9.04343e-07
9.23653e-07
9.43662e-07
9.64544e-07
9.86375e-07
1.00919e-06
1.03302e-06
1.05769e-06
1.08316e-06
1.10966e-06
1.13682e-06
1.16465e-06
1.19152e-06
1.21821e-06
1.24374e-06
1.27111e-06
1.2977e-06
1.32948e-06
1.36491e-06
1.39633e-06
1.43228e-06
1.46775e-06
1.53702e-06
1.62905e-06
2.15694e-06
4.08382e-06
1.09397e-05
2.28509e-05
4.33811e-05
5.98284e-05
7.91101e-05
0.000150084
0.000450228
0.000982371
0.00285845
0.00559774
0.0151734
0.0235357
0.069808
0.0373438
0.0227136
0.014065
0.00974052
0.00725709
0.00572279
0.00471317
0.00400916
0.00348968
0.00308391
0.00275647
0.00248608
0.00225573
0.00206025
0.00188188
0.00172524
0.00157064
0.00143291
0.00128835
0.00115945
0.00102181
0.000898881
0.000774187
0.0006457
0.000537931
0.000329875
8.78193e-05
7.04644e-06
3.33931e-06
3.27369e-06
3.04586e-06
2.79633e-06
2.67208e-06
2.64564e-06
2.83001e-06
1.58469e-05
1.16977e-05
7.95767e-06
7.82666e-06
4.58084e-06
3.90076e-06
2.26258e-06
1.53204e-06
1.2636e-06
1.24885e-06
1.15056e-06
1.17189e-06
1.00524e-06
9.67622e-07
8.4001e-07
8.10714e-07
7.30553e-07
7.10775e-07
6.67523e-07
6.54296e-07
6.32817e-07
6.24901e-07
6.16019e-07
6.11934e-07
6.09126e-07
6.08492e-07
6.08966e-07
6.10406e-07
6.12652e-07
6.15571e-07
6.1919e-07
6.23276e-07
6.28825e-07
6.33887e-07
6.43481e-07
6.49269e-07
6.65088e-07
6.72608e-07
6.98242e-07
7.09563e-07
7.55783e-07
7.77607e-07
8.66482e-07
9.17697e-07
1.08734e-06
1.21849e-06
1.54625e-06
2.24957e-06
4.7357e-06
1.035e-05
2.15586e-05
2.64288e-05
6.3004e-05
0.000264613
0.000824104
0.00184904
0.00428496
0.00886472
0.0149978
0.0235896
0.037524
0.0238207
0.0163295
0.0116679
0.00898213
0.00725117
0.0060161
0.00508704
0.00435551
0.00375482
0.00325255
0.00282155
0.00245162
0.00213168
0.00185689
0.00162153
0.00142188
0.00125951
0.0011198
0.00101348
0.000919096
0.000848998
0.000781086
0.000725679
0.000665522
0.000607348
0.000537201
0.000462811
0.000363518
0.000146929
2.56348e-05
1.37248e-05
9.61401e-06
1.50132e-06
4.69714e-07
3.60734e-07
3.2964e-05
2.74041e-05
2.6365e-05
2.93195e-05
2.77617e-05
2.68483e-05
1.82746e-05
1.17054e-05
9.1563e-06
8.02467e-06
7.39218e-06
7.42857e-06
6.70961e-06
6.41306e-06
5.72743e-06
5.49838e-06
5.02202e-06
4.88414e-06
4.60689e-06
4.52327e-06
4.37937e-06
4.33393e-06
4.27738e-06
4.25853e-06
4.248e-06
4.25359e-06
4.26708e-06
4.28807e-06
4.31505e-06
4.34739e-06
4.3848e-06
4.42625e-06
4.47685e-06
4.52884e-06
4.60928e-06
4.66695e-06
4.7923e-06
4.86175e-06
5.05192e-06
5.14664e-06
5.47673e-06
5.62935e-06
6.24077e-06
6.47909e-06
7.60534e-06
8.04467e-06
1.04884e-05
1.40509e-05
2.4685e-05
3.60538e-05
5.47618e-05
6.48373e-05
0.000216984
0.000644298
0.0014282
0.00317175
0.00664232
0.0113359
0.0206889
0.0268453
0.0414504
0.00934025
0.00880612
0.00697258
0.00531849
0.00432616
0.00370381
0.00326034
0.00289593
0.00259914
0.00236216
0.00211776
0.00191312
0.00172577
0.0015704
0.00144605
0.00135454
0.00127425
0.00119922
0.00113762
0.00105581
0.0009861
0.000887306
0.000795023
0.000693095
0.000589777
0.000507504
0.000409996
0.000355431
0.00024572
0.000131846
9.19234e-05
7.62274e-05
4.63778e-05
7.81441e-06
4.57716e-07
5.10263e-05
3.34138e-05
3.00267e-05
3.32674e-05
3.45606e-05
3.58687e-05
3.34172e-05
2.75818e-05
2.12632e-05
1.65265e-05
1.49228e-05
1.46655e-05
1.42189e-05
1.36794e-05
1.29925e-05
1.25953e-05
1.21135e-05
1.19302e-05
1.1658e-05
1.15889e-05
1.14641e-05
1.14586e-05
1.14437e-05
1.14819e-05
1.15343e-05
1.16099e-05
1.16976e-05
1.17974e-05
1.1907e-05
1.20254e-05
1.21516e-05
1.22852e-05
1.24301e-05
1.25901e-05
1.27745e-05
1.29473e-05
1.31841e-05
1.33697e-05
1.3667e-05
1.38842e-05
1.43444e-05
1.46423e-05
1.53761e-05
1.56811e-05
1.68548e-05
1.75804e-05
2.19663e-05
3.11789e-05
5.21323e-05
7.22066e-05
0.000113695
0.000162335
0.000290719
0.00079377
0.00195898
0.00376563
0.00585702
0.0114867
0.0140551
0.0135141
0.0328051
0.00551935
0.0114676
0.00695687
0.00409786
0.00305174
0.00244484
0.00219356
0.00210849
0.00207898
0.00208711
0.00218146
0.00235202
0.0023139
0.00222039
0.00209993
0.00201558
0.00199845
0.00196696
0.00186402
0.00169737
0.00149547
0.00125282
0.00103311
0.000819639
0.000653824
0.000531179
0.000421147
0.000344621
0.000238395
0.000143034
0.000121679
0.00012188
0.000105277
3.21122e-05
1.62243e-06
9.29436e-05
4.83826e-05
3.53713e-05
3.45196e-05
3.29257e-05
3.4828e-05
3.58793e-05
3.48483e-05
2.97898e-05
2.21872e-05
1.93793e-05
1.84224e-05
1.82088e-05
1.76872e-05
1.72474e-05
1.68757e-05
1.6645e-05
1.65629e-05
1.65179e-05
1.65729e-05
1.66304e-05
1.6743e-05
1.68658e-05
1.70211e-05
1.71948e-05
1.73856e-05
1.75891e-05
1.78029e-05
1.80238e-05
1.82511e-05
1.84848e-05
1.87265e-05
1.89819e-05
1.92611e-05
1.95462e-05
1.98314e-05
2.01113e-05
2.03697e-05
2.06265e-05
2.08571e-05
2.11444e-05
2.13976e-05
2.16707e-05
2.19136e-05
2.22632e-05
2.37557e-05
2.82429e-05
4.31518e-05
6.6395e-05
0.000102094
0.00017197
0.000310238
0.000454276
0.00111832
0.0034672
0.00615963
0.00744014
0.0121195
0.0149143
0.010885
0.0340665
0.00532735
0.00416911
0.00285368
0.00255082
0.00196486
0.00209006
0.00231233
0.00236954
0.00234852
0.00242588
0.00263673
0.00293173
0.00331364
0.00344439
0.00340697
0.0031487
0.00280556
0.00234039
0.00190283
0.00152876
0.00121256
0.000955397
0.000775471
0.000643231
0.000547856
0.000454018
0.000362765
0.000277059
0.000189232
0.000128062
0.000128929
0.000128324
0.000115437
5.48644e-05
5.08425e-06
0.00017235
8.06316e-05
5.20895e-05
5.01261e-05
3.99311e-05
3.93132e-05
3.71628e-05
3.76779e-05
3.63438e-05
2.92132e-05
2.51859e-05
2.33109e-05
2.28958e-05
2.25023e-05
2.214e-05
2.19179e-05
2.17922e-05
2.18527e-05
2.1937e-05
2.21076e-05
2.22756e-05
2.24794e-05
2.27099e-05
2.29624e-05
2.32396e-05
2.35307e-05
2.38349e-05
2.41494e-05
2.44726e-05
2.48047e-05
2.51473e-05
2.55106e-05
2.58878e-05
2.62822e-05
2.66829e-05
2.70624e-05
2.7423e-05
2.77639e-05
2.80756e-05
2.83219e-05
2.8538e-05
2.87983e-05
2.87578e-05
2.93528e-05
2.89741e-05
3.18946e-05
3.56231e-05
5.60067e-05
7.98558e-05
0.000129552
0.00022278
0.00048826
0.00115349
0.0026572
0.00861981
0.0119389
0.0195942
0.0264457
0.0106566
0.00925713
0.0453908
0.00482419
0.00348323
0.00261423
0.00280451
0.00229731
0.00256334
0.00267983
0.00300697
0.00343211
0.00387258
0.00402189
0.00405602
0.00406971
0.00393497
0.00367147
0.00335447
0.00299569
0.00258829
0.00217063
0.00177217
0.00135511
0.000961578
0.000633486
0.00041844
0.000320691
0.000249916
0.000196777
0.000149755
0.000123993
0.000117118
0.000123971
0.000120979
0.000108847
5.63431e-05
6.38598e-06
0.000204558
0.000147002
9.06616e-05
8.41265e-05
6.16133e-05
5.90395e-05
4.8343e-05
4.65653e-05
4.53371e-05
3.93827e-05
3.39491e-05
3.07632e-05
2.9638e-05
2.87674e-05
2.81916e-05
2.7943e-05
2.77378e-05
2.78473e-05
2.79963e-05
2.82545e-05
2.84829e-05
2.87643e-05
2.90816e-05
2.94095e-05
2.97623e-05
3.01258e-05
3.05092e-05
3.09059e-05
3.13157e-05
3.17452e-05
3.21951e-05
3.26802e-05
3.31815e-05
3.37204e-05
3.42631e-05
3.48097e-05
3.53232e-05
3.59175e-05
3.64369e-05
3.69258e-05
3.71769e-05
3.78229e-05
3.75719e-05
3.92153e-05
3.7783e-05
4.2761e-05
4.38538e-05
7.19112e-05
9.85934e-05
0.000155338
0.000245308
0.000536001
0.00175627
0.00654584
0.0182424
0.0189238
0.0243919
0.0309555
0.00904039
0.00893781
0.0560823
0.00584377
0.00454006
0.00420414
0.00432887
0.00426315
0.0045132
0.00461062
0.00481092
0.00488738
0.00490401
0.00477295
0.00461809
0.00444018
0.00431358
0.00425501
0.00424126
0.00425498
0.004269
0.00424542
0.00409453
0.00381828
0.00337947
0.00283482
0.00215749
0.00150472
0.000964776
0.000619249
0.000480102
0.000365572
0.00027972
0.000204692
0.00015767
0.00011714
6.10502e-05
9.90907e-06
0.000236955
0.000266704
0.00018528
0.000134347
9.84692e-05
8.77355e-05
6.153e-05
5.54864e-05
5.47814e-05
4.82807e-05
4.10011e-05
3.55308e-05
3.36306e-05
3.23352e-05
3.22079e-05
3.23527e-05
3.26789e-05
3.30677e-05
3.36266e-05
3.41811e-05
3.46727e-05
3.51609e-05
3.56625e-05
3.6132e-05
3.6618e-05
3.70919e-05
3.7573e-05
3.80581e-05
3.85728e-05
3.91143e-05
3.96676e-05
4.0248e-05
4.08301e-05
4.14583e-05
4.20616e-05
4.26739e-05
4.31577e-05
4.36343e-05
4.38896e-05
4.4072e-05
4.36452e-05
4.38024e-05
4.23193e-05
4.36192e-05
4.00167e-05
4.61363e-05
4.47785e-05
7.74803e-05
0.000111959
0.00017599
0.0002716
0.000452609
0.000958499
0.0033949
0.0104237
0.0184818
0.0208007
0.0208077
0.0141228
0.014247
0.0465929
0.00623898
0.00542077
0.004927
0.00465256
0.00451957
0.00447148
0.0044399
0.00442808
0.00432087
0.00418046
0.00404665
0.00398124
0.00396126
0.00403673
0.00417303
0.00439965
0.00461843
0.00492498
0.00529618
0.00576237
0.00624478
0.00668203
0.00703961
0.00731489
0.00742264
0.00729806
0.00662814
0.00554358
0.00432955
0.00301737
0.0019155
0.00116875
0.000621241
0.000295316
2.81196e-05
0.000295429
0.000410214
0.000366132
0.000219347
0.000136491
0.000108412
6.89363e-05
5.70008e-05
5.68112e-05
5.10967e-05
4.32461e-05
3.66158e-05
3.40668e-05
3.2402e-05
3.23522e-05
3.26495e-05
3.32353e-05
3.37678e-05
3.4564e-05
3.52914e-05
3.59249e-05
3.65023e-05
3.70717e-05
3.75703e-05
3.80685e-05
3.85286e-05
3.89801e-05
3.94274e-05
3.99066e-05
4.03979e-05
4.08865e-05
4.13925e-05
4.18845e-05
4.24234e-05
4.29153e-05
4.3417e-05
4.37355e-05
4.39318e-05
4.37826e-05
4.34282e-05
4.23758e-05
4.17669e-05
3.97694e-05
4.00674e-05
3.61253e-05
3.94362e-05
3.8156e-05
6.77693e-05
0.000113107
0.000178331
0.000280823
0.000422351
0.000656974
0.00136541
0.00447064
0.00894136
0.0184381
0.0201348
0.0156038
0.0156721
0.0467748
0.0074609
0.00687559
0.00671598
0.00615704
0.00583836
0.00565994
0.00549913
0.00539247
0.00521403
0.00506626
0.00492984
0.00483074
0.00474972
0.00472399
0.00472375
0.00479855
0.0048909
0.00505378
0.00529557
0.00557707
0.00593997
0.00640607
0.00680424
0.00718445
0.00747923
0.00753747
0.00723298
0.00644801
0.00517593
0.00364033
0.00239178
0.00139744
0.00084664
0.000624254
0.000407537
0.000312036
0.000549176
0.000533333
0.000358536
0.000192445
0.000132935
7.22394e-05
4.82418e-05
4.16628e-05
4.25979e-05
3.85954e-05
3.30742e-05
3.13633e-05
2.99476e-05
2.95237e-05
2.98015e-05
3.09267e-05
3.15583e-05
3.21118e-05
3.23704e-05
3.25687e-05
3.25701e-05
3.25371e-05
3.2367e-05
3.21586e-05
3.18826e-05
3.1572e-05
3.12331e-05
3.08444e-05
3.04218e-05
3.00112e-05
2.96413e-05
2.92872e-05
2.89991e-05
2.86606e-05
2.83427e-05
2.78443e-05
2.72893e-05
2.61667e-05
2.49149e-05
2.32699e-05
2.23201e-05
2.10996e-05
2.10823e-05
1.92185e-05
2.04944e-05
2.08833e-05
3.86649e-05
8.21282e-05
0.000133919
0.000213536
0.000309556
0.000467197
0.000912923
0.00222042
0.00630865
0.0190787
0.0253231
0.0112381
0.0112612
0.0472993
0.00734308
0.00738517
0.00732847
0.00734481
0.0070108
0.00664728
0.00624807
0.00584809
0.0053833
0.00485354
0.00430637
0.00360466
0.00306133
0.00261187
0.0022556
0.0019805
0.00186585
0.00181426
0.00179414
0.00183223
0.0019487
0.0020777
0.00210766
0.00210586
0.0020152
0.00198341
0.0020325
0.0019876
0.00205361
0.00199574
0.00171271
0.00147607
0.00118136
0.00066032
2.1666e-05
0.000322153
0.000526919
0.000580926
0.000464623
0.000289504
0.000187717
8.81145e-05
4.64858e-05
3.40485e-05
3.08409e-05
2.49979e-05
1.95166e-05
1.74212e-05
1.6178e-05
1.59318e-05
1.5748e-05
1.60426e-05
1.62088e-05
1.64811e-05
1.65669e-05
1.66502e-05
1.66202e-05
1.65826e-05
1.6471e-05
1.6345e-05
1.61876e-05
1.60166e-05
1.58339e-05
1.56554e-05
1.54889e-05
1.53303e-05
1.51937e-05
1.50583e-05
1.49498e-05
1.48013e-05
1.46922e-05
1.46835e-05
1.46734e-05
1.42634e-05
1.3489e-05
1.28781e-05
1.28098e-05
1.23635e-05
1.23681e-05
1.16858e-05
1.21306e-05
1.32034e-05
2.48025e-05
5.56519e-05
8.866e-05
0.000130778
0.000177663
0.000367909
0.000855803
0.00237965
0.00805499
0.0204903
0.0254335
0.00751016
0.00739494
0.0473414
0.00566371
0.00541496
0.00464038
0.00465762
0.0041903
0.00402058
0.00354449
0.00311489
0.00258272
0.00207493
0.00163299
0.00130405
0.00108923
0.000948111
0.000860666
0.000807332
0.000775497
0.000750282
0.000724411
0.000702845
0.000691169
0.00065177
0.000551265
0.000424147
0.000318379
0.000242053
0.000218334
0.000208623
0.000149016
9.19791e-05
7.73427e-05
7.979e-05
9.96132e-05
0.000102384
2.48414e-05
0.000388365
0.000271301
0.000316774
0.000389122
0.000400266
0.000240598
0.000113822
5.18539e-05
3.14966e-05
2.48437e-05
1.84326e-05
1.33213e-05
1.13668e-05
1.04652e-05
1.043e-05
1.03528e-05