/*--------------------------------*- C++ -*----------------------------------*\
| =========                 |                                                 |
| \\      /  F ield         | OpenFOAM: The Open Source CFD Toolbox           |
|  \\    /   O peration     | Version:  2.3.0                                 |
|   \\  /    A nd           | Web:      www.OpenFOAM.org                      |
|    \\/     M anipulation  |                                                 |
\*---------------------------------------------------------------------------*/
FoamFile
{
    version     2.0;
    format      ascii;
    class       surfaceScalarField;
    location    "10";
    object      phi;
}
// * * * * * * * * * * * * * * * * * * * * * * * * * * * * * * * * * * * * * //

dimensions      [0 3 -1 0 0 0 0];

internalField   nonuniform List<scalar> 
16448
(
-1.78355e-06
-1.90379e-06
4.53043e-07
-2.02278e-07
-2.06259e-06
4.81316e-07
1.13892e-07
-1.02059e-06
7.04419e-07
3.59063e-07
-1.01166e-06
7.66492e-07
3.08705e-07
-7.16676e-07
7.67032e-07
2.68282e-07
-7.2981e-07
7.70231e-07
1.65387e-07
-6.96591e-07
7.99484e-07
7.20058e-08
-7.14364e-07
8.07744e-07
-1.25689e-08
-7.40819e-07
8.25393e-07
-6.74498e-08
-7.76934e-07
8.31814e-07
-1.00562e-07
-8.16359e-07
8.49471e-07
-9.65309e-08
-8.61468e-07
8.57436e-07
-8.85206e-08
-8.87243e-07
8.79231e-07
-6.3479e-08
-9.16408e-07
8.91365e-07
-4.65967e-08
-9.29212e-07
9.12328e-07
-2.54235e-08
-9.44982e-07
9.23808e-07
-1.34323e-08
-9.5218e-07
9.40188e-07
-2.33467e-09
-9.60186e-07
9.49087e-07
3.46899e-09
-9.66028e-07
9.60223e-07
7.16804e-09
-9.70582e-07
9.66881e-07
8.16501e-09
-9.75114e-07
9.74116e-07
7.96616e-09
-9.78634e-07
9.78832e-07
6.60671e-09
-9.82186e-07
9.83545e-07
4.67155e-09
-9.85044e-07
9.86978e-07
2.29572e-09
-9.87762e-07
9.90137e-07
-2.95179e-10
-9.90081e-07
9.9267e-07
-3.04115e-09
-9.92104e-07
9.94849e-07
-5.92784e-09
-9.93843e-07
9.96728e-07
-8.94465e-09
-9.95325e-07
9.98341e-07
-1.21481e-08
-9.96509e-07
9.99711e-07
-1.54323e-08
-9.97652e-07
1.00094e-06
-1.89676e-08
-9.98365e-07
1.0019e-06
-2.23118e-08
-9.99427e-07
1.00277e-06
-2.64228e-08
-9.9903e-07
1.00314e-06
-2.97609e-08
-1.00005e-06
1.00339e-06
-3.43141e-08
-9.98534e-07
1.00309e-06
-3.67879e-08
-1.00046e-06
1.00293e-06
-4.21251e-08
-9.9626e-07
1.0016e-06
-4.15846e-08
-1.00215e-06
1.00162e-06
-4.87114e-08
-9.9106e-07
9.98189e-07
-3.92119e-08
-1.00781e-06
9.98311e-07
-4.71708e-08
-9.84028e-07
9.91991e-07
-1.61544e-08
-1.01991e-06
9.88895e-07
-2.13696e-08
-9.78317e-07
9.83536e-07
3.77742e-08
-1.03403e-06
9.74891e-07
6.32465e-08
-9.92782e-07
9.67315e-07
1.51829e-07
-1.05144e-06
9.6286e-07
2.39195e-07
-1.02993e-06
9.42567e-07
3.33293e-07
-1.08155e-06
9.87461e-07
5.26768e-07
-1.13411e-06
9.40647e-07
6.05382e-07
-1.18108e-06
1.10248e-06
3.88815e-07
-7.45772e-07
9.62346e-07
-4.90686e-07
-5.49367e-07
1.42887e-06
-1.85995e-06
7.27976e-08
1.29648e-06
-6.1434e-07
-2.83642e-06
1.59081e-06
-1.16597e-06
-2.92447e-06
3.47611e-06
-2.145e-06
1.17371e-06
-1.94679e-07
-3.93134e-06
1.46532e-06
3.21022e-07
-6.24004e-06
1.05571e-06
1.25302e-06
-6.16413e-07
-1.90438e-05
1.34202e-05
1.86651e-05
-2.42654e-05
4.98385e-06
2.56332e-05
-1.00672e-05
3.09915e-06
2.39259e-05
1.15546e-06
5.5178e-07
2.54342e-05
-1.09186e-06
-4.16437e-07
2.65939e-05
-1.63208e-07
-9.96503e-07
2.69716e-05
1.17631e-06
-1.55401e-06
2.69471e-05
1.81853e-06
-1.79397e-06
2.66578e-05
2.00815e-06
-1.71887e-06
2.60558e-05
2.08798e-06
-1.48602e-06
2.5111e-05
2.14176e-06
-1.19696e-06
2.39776e-05
2.03656e-06
-9.03194e-07
2.28897e-05
1.6994e-06
-6.11506e-07
2.19192e-05
1.30307e-06
-3.32516e-07
2.10158e-05
9.74729e-07
-7.1379e-08
2.01338e-05
7.07547e-07
1.74443e-07
1.94568e-05
3.04992e-07
3.72025e-07
1.90615e-05
-1.39958e-07
5.35253e-07
1.88553e-05
-4.55954e-07
6.62129e-07
1.87184e-05
-6.50066e-07
7.86998e-07
1.85614e-05
-7.01395e-07
8.58404e-07
1.83205e-05
-6.32901e-07
8.73764e-07
1.80246e-05
-4.96137e-07
7.92075e-07
1.74688e-05
-1.70741e-07
7.26471e-07
1.67201e-05
1.18636e-07
6.30074e-07
1.54617e-05
7.53071e-07
5.05342e-07
1.35251e-05
1.35076e-06
5.85872e-07
1.10955e-05
1.83511e-06
5.94507e-07
7.16153e-06
2.7926e-06
1.14133e-06
2.42382e-06
2.82491e-06
1.9128e-06
-1.0062e-06
1.41648e-06
2.01354e-06
-2.82624e-06
4.12608e-07
1.40743e-06
-3.45548e-06
-2.68107e-07
8.97348e-07
-2.92784e-06
-9.0104e-07
3.73403e-07
-1.91673e-06
-1.67548e-06
6.64365e-07
-9.25428e-07
-2.09026e-06
1.09895e-06
-2.21703e-06
1.2916e-06
-2.58232e-06
-2.62091e-06
-2.45672e-07
-1.26653e-06
-3.04757e-06
-3.30805e-07
-7.66589e-07
-1.55358e-06
3.30492e-08
-2.87096e-07
-1.68072e-06
1.89558e-07
-1.41409e-07
-1.05982e-06
1.97456e-07
-8.28013e-08
-1.04438e-06
2.55957e-07
-1.13487e-07
-9.21231e-07
2.55323e-07
-1.69652e-07
-9.2362e-07
2.6542e-07
-2.36538e-07
-9.30657e-07
2.56722e-07
-2.68279e-07
-9.94744e-07
2.49548e-07
-2.84476e-07
-1.05396e-06
2.53796e-07
-2.57741e-07
-1.13987e-06
2.51662e-07
-2.29369e-07
-1.18251e-06
2.66891e-07
-1.84333e-07
-1.23623e-06
2.7478e-07
-1.52832e-07
-1.25462e-06
2.93905e-07
-1.18278e-07
-1.28331e-06
3.03767e-07
-9.83211e-08
-1.29187e-06
3.19734e-07
-7.84538e-08
-1.30783e-06
3.27778e-07
-6.90838e-08
-1.31409e-06
3.38687e-07
-6.01525e-08
-1.32407e-06
3.44553e-07
-5.72076e-08
-1.32953e-06
3.51474e-07
-5.46227e-08
-1.33668e-06
3.55458e-07
-5.47928e-08
-1.34165e-06
3.59633e-07
-5.54294e-08
-1.34684e-06
3.62428e-07
-5.71093e-08
-1.35101e-06
3.64924e-07
-5.91078e-08
-1.35487e-06
3.66782e-07
-6.14747e-08
-1.35807e-06
3.68334e-07
-6.40819e-08
-1.36081e-06
3.69574e-07
-6.68744e-08
-1.36309e-06
3.70558e-07
-6.97701e-08
-1.3649e-06
3.71283e-07
-7.28123e-08
-1.3664e-06
3.71788e-07
-7.61143e-08
-1.36716e-06
3.72094e-07
-7.9445e-08
-1.36838e-06
3.72289e-07
-8.31547e-08
-1.36748e-06
3.72161e-07
-8.5799e-08
-1.36885e-06
3.71449e-07
-8.95805e-08
-1.36572e-06
3.70969e-07
-9.08319e-08
-1.36859e-06
3.69386e-07
-9.41963e-08
-1.36119e-06
3.68297e-07
-9.25284e-08
-1.36974e-06
3.65926e-07
-9.57394e-08
-1.35125e-06
3.63404e-07
-8.43122e-08
-1.37799e-06
3.58759e-07
-8.66247e-08
-1.33642e-06
3.54712e-07
-4.91609e-08
-1.40026e-06
3.42895e-07
-4.72033e-08
-1.32115e-06
3.40887e-07
3.43383e-08
-1.43275e-06
3.17189e-07
6.30857e-08
-1.33316e-06
3.11643e-07
1.79641e-07
-1.46685e-06
2.98874e-07
2.83799e-07
-1.40359e-06
2.69516e-07
3.62395e-07
-1.4888e-06
3.28659e-07
4.79071e-07
-1.56993e-06
3.19152e-07
4.92042e-07
-1.65325e-06
4.59207e-07
3.99191e-07
-1.15848e-06
5.05568e-07
-5.87207e-07
-2.45439e-07
6.8248e-07
-1.63873e-06
9.11884e-07
2.1244e-07
3.71525e-07
-4.98368e-06
1.37012e-07
2.85496e-06
-6.93187e-06
1.52396e-06
-4.02745e-06
9.66499e-06
-1.60887e-06
-1.16586e-05
9.27195e-06
-1.75437e-07
-8.48762e-06
3.60587e-06
-5.7211e-06
2.35341e-07
-3.42053e-05
6.43857e-06
6.19026e-06
-3.54451e-05
5.22477e-06
6.76154e-06
-1.19877e-05
1.34923e-06
1.43369e-05
-2.70689e-06
-3.71299e-06
1.77693e-05
-1.05262e-06
-3.4717e-06
1.92689e-05
1.82114e-06
-3.48392e-06
2.09508e-05
3.16242e-06
-3.66799e-06
2.24008e-05
3.69251e-06
-3.32399e-06
2.31467e-05
3.93784e-06
-2.67563e-06
2.31522e-05
4.0953e-06
-2.01279e-06
2.26211e-05
4.10054e-06
-1.42769e-06
2.16708e-05
3.98965e-06
-1.0028e-06
2.07051e-05
3.30746e-06
-6.42334e-07
2.00788e-05
2.10118e-06
-1.719e-07
1.93662e-05
1.36237e-06
3.25005e-07
1.86406e-05
7.23315e-07
7.09823e-07
1.77052e-05
2.86387e-07
9.54001e-07
1.67328e-05
-3.05986e-07
1.13849e-06
1.58878e-05
-9.81212e-07
1.37016e-06
1.50287e-05
-1.25028e-06
1.45931e-06
1.43473e-05
-1.37935e-06
1.35937e-06
1.38528e-05
-1.35939e-06
1.22102e-06
1.35931e-05
-1.11892e-06
8.82513e-07
1.34258e-05
-6.3488e-07
6.31357e-07
1.32475e-05
-9.97461e-09
3.06904e-07
1.28357e-05
1.08056e-06
8.43494e-08
1.17436e-05
2.27527e-06
1.67536e-07
1.00309e-05
3.33665e-06
2.11242e-07
7.32353e-06
4.52391e-06
9.76016e-07
3.36796e-06
5.05344e-06
1.72704e-06
-1.60986e-07
3.14157e-06
1.80385e-06
-2.43944e-06
1.4941e-06
1.19695e-06
-3.39628e-06
5.82645e-07
1.06091e-07
-3.11664e-06
-1.54314e-07
-1.02637e-06
-1.98163e-06
-1.37414e-06
-1.43635e-06
-8.58451e-07
-2.45648e-06
-7.56957e-07
-2.82788e-06
-2.47596e-07
-2.77877e-06
-2.56085e-06
-3.99971e-07
-1.72133e-06
-3.44079e-06
-6.64218e-07
-1.44589e-06
-1.56599e-06
-2.6303e-07
-9.44524e-07
-1.97898e-06
-2.03101e-07
-6.51472e-07
-1.15868e-06
-1.94197e-07
-4.32581e-07
-1.18904e-06
-7.42329e-08
-3.52962e-07
-9.24779e-07
-7.60732e-08
-3.25788e-07
-9.15948e-07
-3.48471e-08
-3.4816e-07
-8.6616e-07
-4.21258e-08
-3.6221e-07
-9.17725e-07
-6.29714e-08
-3.66468e-07
-9.66106e-07
-8.35968e-08
-3.28482e-07
-1.07272e-06
-1.05136e-07
-2.84061e-07
-1.12241e-06
-1.04518e-07
-2.2938e-07
-1.18838e-06
-1.02527e-07
-1.87892e-07
-1.20642e-06
-8.96926e-08
-1.48813e-07
-1.24033e-06
-8.20601e-08
-1.24258e-07
-1.24651e-06
-6.99171e-08
-1.02711e-07
-1.26529e-06
-6.40896e-08
-9.12342e-08
-1.26949e-06
-5.60749e-08
-8.17122e-08
-1.28088e-06
-5.27092e-08
-7.79139e-08
-1.2851e-06
-4.82348e-08
-7.49932e-08
-1.29291e-06
-4.66954e-08
-7.48596e-08
-1.29719e-06
-4.46005e-08
-7.53745e-08
-1.30234e-06
-4.39815e-08
-7.69102e-08
-1.30601e-06
-4.34611e-08
-7.88352e-08
-1.30939e-06
-4.35468e-08
-8.11672e-08
-1.3119e-06
-4.38384e-08
-8.37801e-08
-1.31381e-06
-4.43839e-08
-8.66364e-08
-1.31514e-06
-4.50911e-08
-8.96289e-08
-1.31593e-06
-4.59785e-08
-9.27523e-08
-1.31626e-06
-4.70175e-08
-9.6103e-08
-1.31568e-06
-4.81242e-08
-9.97358e-08
-1.31549e-06
-4.92554e-08
-1.03251e-07
-1.31317e-06
-5.07912e-08
-1.06538e-07
-1.31324e-06
-5.23214e-08
-1.10213e-07
-1.30814e-06
-5.39044e-08
-1.12724e-07
-1.30975e-06
-5.63187e-08
-1.15717e-07
-1.30006e-06
-5.81348e-08
-1.16892e-07
-1.30753e-06
-6.10351e-08
-1.19838e-07
-1.28495e-06
-6.33489e-08
-1.13615e-07
-1.31502e-06
-6.91833e-08
-1.16648e-07
-1.26228e-06
-7.11016e-08
-8.6376e-08
-1.34353e-06
-8.69941e-08
-9.35173e-08
-1.23219e-06
-8.18132e-08
-4.66712e-09
-1.40243e-06
-1.19156e-07
-3.8653e-08
-1.19892e-06
-1.00246e-07
1.05249e-07
-1.4796e-06
-1.31144e-07
-1.69636e-08
-1.16267e-06
-1.18695e-07
1.26717e-07
-1.59196e-06
-4.05048e-08
-3.12315e-07
-1.13451e-06
3.62407e-09
-1.40936e-07
-1.95358e-06
1.28972e-07
-4.14985e-07
-1.07178e-06
1.87368e-07
-2.75927e-07
-1.3415e-07
-2.50335e-07
4.88788e-07
7.87254e-07
-6.40077e-07
1.50161e-06
-6.6377e-06
6.41208e-07
-4.58525e-07
-7.13937e-06
2.16763e-06
4.54105e-06
7.93389e-06
-3.26848e-06
-2.27254e-07
1.47049e-05
-6.647e-07
-3.08577e-06
1.02357e-05
-3.77131e-06
-8.81542e-07
-3.8823e-05
2.41335e-06
-2.37919e-06
-3.97801e-05
5.83267e-06
4.56883e-07
-1.59842e-05
1.16034e-06
1.47092e-05
-1.41678e-05
-2.79143e-06
1.61072e-05
6.28187e-07
-3.07876e-06
1.68468e-05
4.0693e-06
-2.98784e-06
1.82084e-05
4.61607e-06
-2.81525e-06
1.89658e-05
5.38156e-06
-2.44639e-06
1.90668e-05
5.54671e-06
-1.70994e-06
1.88112e-05
5.08963e-06
-7.38728e-07
1.79974e-05
4.66696e-06
2.47436e-07
1.68993e-05
4.06949e-06
1.01823e-06
1.56991e-05
2.86404e-06
1.64363e-06
1.40239e-05
1.49608e-06
2.28032e-06
1.16538e-05
9.78659e-07
2.75381e-06
8.53154e-06
6.62202e-07
3.18333e-06
5.16472e-06
1.32683e-07
3.52051e-06
2.00632e-06
-6.00726e-07
3.45314e-06
-1.03529e-07
-1.60601e-06
2.73465e-06
-7.22934e-07
-2.40702e-06
1.77615e-06
-3.61704e-07
-2.81431e-06
1.07373e-06
6.9777e-07
-2.81775e-06
3.98884e-07
2.13219e-06
-2.37403e-06
-1.79314e-07
3.68275e-06
-1.55683e-06
-6.28622e-07
5.16181e-06
-4.63373e-07
-1.02566e-06
6.40062e-06
9.40247e-07
-1.0985e-06
6.93407e-06
2.58818e-06
-8.46371e-07
6.5784e-06
4.25333e-06
-5.61011e-07
4.77237e-06
5.87236e-06
4.57568e-07
1.83254e-06
6.07009e-06
1.92318e-06
-6.77264e-07
3.73082e-06
1.92055e-06
-2.3713e-06
1.7568e-06
1.43133e-06
-3.1509e-06
1.00606e-06
3.56186e-07
-2.73129e-06
7.68846e-07
-1.34278e-06
-1.59221e-06
-1.26546e-07
-2.38668e-06
-5.91925e-07
-1.58448e-06
-1.87229e-06
-2.38663e-06
-1.03318e-06
-2.57734e-06
-2.22571e-06
-2.41301e-07
-1.59569e-06
-3.70832e-06
-7.14125e-07
-1.62404e-06
-1.33895e-06
-1.98688e-07
-1.21186e-06
-2.25578e-06
-1.35384e-07
-1.01313e-06
-1.20274e-06
-1.54666e-07
-7.63511e-07
-1.40091e-06
-3.77394e-08
-6.21751e-07
-9.4753e-07
-1.1901e-07
-5.32103e-07
-9.18471e-07
-8.71261e-08
-5.23865e-07
-7.48652e-07
-1.25748e-07
-5.24641e-07
-7.54238e-07
-1.62712e-07
-5.17463e-07
-7.55232e-07
-2.18053e-07
-4.68727e-07
-8.55385e-07
-2.6607e-07
-4.02483e-07
-8.98102e-07
-2.90558e-07
-3.34238e-07
-9.55929e-07
-3.00701e-07
-2.76589e-07
-9.63839e-07
-3.00229e-07
-2.30061e-07
-9.89571e-07
-2.97287e-07
-1.97279e-07
-9.8786e-07
-2.91436e-07
-1.72576e-07
-1.00216e-06
-2.87839e-07
-1.57177e-07
-1.00141e-06
-2.83487e-07
-1.46007e-07
-1.01026e-06
-2.81797e-07
-1.40018e-07
-1.0114e-06
-2.79692e-07
-1.36064e-07
-1.01744e-06
-2.79422e-07
-1.34852e-07
-1.01959e-06
-2.78807e-07
-1.3473e-07
-1.02324e-06
-2.79223e-07
-1.35656e-07
-1.02538e-06
-2.79704e-07
-1.37202e-07
-1.02726e-06
-2.80587e-07
-1.39251e-07
-1.02829e-06
-2.81562e-07
-1.41654e-07
-1.02882e-06
-2.8259e-07
-1.44336e-07
-1.02885e-06
-2.83608e-07
-1.47217e-07
-1.0284e-06
-2.84646e-07
-1.50343e-07
-1.02742e-06
-2.85714e-07
-1.53639e-07
-1.02559e-06
-2.86797e-07
-1.5755e-07
-1.02376e-06
-2.8782e-07
-1.60949e-07
-1.02045e-06
-2.89322e-07
-1.64759e-07
-1.01888e-06
-2.90545e-07
-1.68119e-07
-1.01277e-06
-2.92003e-07
-1.71734e-07
-1.01302e-06
-2.93117e-07
-1.74202e-07
-1.00341e-06
-2.94177e-07
-1.78404e-07
-1.0079e-06
-2.95419e-07
-1.79012e-07
-9.87955e-07
-2.96376e-07
-1.80398e-07
-1.01391e-06
-2.99712e-07
-1.77156e-07
-9.65952e-07
-2.99557e-07
-1.61888e-07
-1.04804e-06
-3.1075e-07
-1.57691e-07
-9.34557e-07
-3.01816e-07
-1.03826e-07
-1.12703e-06
-3.29255e-07
-1.32902e-07
-8.75021e-07
-2.94806e-07
-5.84953e-08
-1.24529e-06
-3.08706e-07
-2.25753e-07
-7.5505e-07
-2.40344e-07
-3.89124e-07
-1.34698e-06
-8.15889e-08
-7.58306e-07
-6.64633e-07
-1.00674e-07
-1.22375e-06
-1.70193e-06
2.13812e-07
-1.12597e-06
-1.02907e-06
-1.40476e-07
-9.03625e-07
1.17349e-07
-4.73828e-07
-5.59387e-07
9.47894e-07
-5.0487e-07
-3.77428e-06
-4.63938e-06
1.21657e-06
-8.62051e-06
-3.01376e-06
7.20635e-07
3.49023e-06
-6.25765e-07
-3.5511e-06
3.32257e-06
1.92422e-05
-4.36966e-06
1.97692e-06
1.19517e-05
-3.70338e-07
2.34656e-06
-3.83112e-05
-8.81498e-07
-7.99128e-07
-4.25828e-05
5.94835e-06
-3.98786e-06
-1.5441e-05
2.64561e-06
-1.01615e-06
-1.7336e-05
1.96538e-07
1.09047e-06
2.65958e-06
-4.13802e-06
9.60836e-06
1.25162e-06
-5.70023e-06
1.18581e-05
5.56003e-06
-3.19373e-06
1.26492e-05
5.58623e-06
-9.95731e-07
1.26015e-05
4.9579e-06
6.36507e-07
1.13704e-05
4.31963e-06
2.00108e-06
8.82999e-06
4.23554e-06
2.97182e-06
4.21042e-06
4.59715e-06
4.09191e-06
-2.9437e-06
4.44683e-06
5.57132e-06
-9.54706e-06
2.80594e-06
5.2935e-06
-1.3438e-05
1.47515e-06
3.39446e-06
-1.53704e-05
1.71157e-07
2.4234e-06
-1.58369e-05
-9.93589e-07
1.59283e-06
-1.52176e-05
-2.20441e-06
9.84341e-07
-1.39065e-05
-3.22319e-06
3.06113e-07
-1.22352e-05
-3.83461e-06
-2.43704e-07
-1.03438e-05
-4.0104e-06
-6.95295e-07
-8.27913e-06
-3.83915e-06
-1.04329e-06
-6.07176e-06
-3.28225e-06
-1.29914e-06
-3.87737e-06
-2.31245e-06
-1.43878e-06
-1.86307e-06
-1.07952e-06
-1.39816e-06
-2.73648e-07
5.40531e-07
-1.18971e-06
6.70975e-07
2.38122e-06
-7.37664e-07
5.62721e-07
4.2252e-06
1.36379e-07
-7.96865e-07
5.56673e-06
1.66522e-06
-1.55839e-06
4.36115e-06
2.47046e-06
-2.14437e-06
2.20744e-06
2.10936e-06
-3.1546e-06
1.18243e-06
1.5846e-06
-3.38852e-06
1.02803e-06
2.11943e-07
-2.57736e-06
1.39172e-06
-1.43403e-06
-1.19354e-06
1.1396e-06
-2.64998e-06
-1.71537e-07
-1.2661e-07
-2.47987e-06
-9.61619e-07
-1.59655e-06
-2.3753e-06
-1.92312e-06
2.00102e-07
-1.34357e-06
-3.98539e-06
-7.54661e-07
-1.53957e-06
-1.28517e-06
1.4222e-07
-1.17209e-06
-2.70155e-06
7.82897e-08
-9.81e-07
-1.53794e-06
1.44105e-07
-7.23805e-07
-1.85427e-06
1.9616e-07
-5.61503e-07
-1.16795e-06
5.81182e-08
-4.65746e-07
-1.07504e-06
6.08134e-08
-4.79832e-07
-7.11739e-07
-2.28275e-08
-5.23864e-07
-6.22932e-07
-8.7276e-08
-5.55573e-07
-5.29949e-07
-1.93575e-07
-5.26408e-07
-6.03455e-07
-2.81097e-07
-4.66803e-07
-6.10305e-07
-3.47403e-07
-4.02926e-07
-6.35201e-07
-3.84607e-07
-3.41535e-07
-6.1969e-07
-4.05542e-07
-2.95465e-07
-6.22077e-07
-4.13566e-07
-2.58635e-07
-6.0719e-07
-4.17502e-07
-2.33914e-07
-6.08824e-07
-4.1806e-07
-2.15748e-07
-6.01276e-07
-4.18297e-07
-2.04471e-07
-6.03823e-07
-4.17714e-07
-1.96571e-07
-6.01824e-07
-4.17476e-07
-1.92183e-07
-6.04738e-07
-4.17092e-07
-1.89705e-07
-6.05241e-07
-4.16831e-07
-1.88639e-07
-6.07425e-07
-4.16887e-07
-1.88629e-07
-6.08586e-07
-4.1681e-07
-1.89663e-07
-6.0989e-07
-4.16341e-07
-1.91443e-07
-6.10979e-07
-4.15535e-07
-1.93644e-07
-6.11791e-07
-4.14831e-07
-1.96076e-07
-6.12331e-07
-4.1409e-07
-1.98639e-07
-6.12582e-07
-4.13252e-07
-2.01361e-07
-6.12403e-07
-4.1229e-07
-2.04017e-07
-6.11683e-07
-4.11248e-07
-2.07165e-07
-6.1059e-07
-4.10021e-07
-2.09854e-07
-6.08984e-07
-4.08774e-07
-2.1327e-07
-6.08529e-07
-4.06934e-07
-2.16188e-07
-6.04788e-07
-4.05061e-07
-2.1997e-07
-6.0644e-07
-4.02792e-07
-2.22233e-07
-6.01212e-07
-3.99927e-07
-2.26912e-07
-6.0717e-07
-3.96044e-07
-2.26093e-07
-5.96555e-07
-3.92213e-07
-2.30444e-07
-6.21298e-07
-3.88256e-07
-2.23753e-07
-5.90226e-07
-3.82408e-07
-2.21543e-07
-6.6958e-07
-3.80653e-07
-2.11243e-07
-5.80231e-07
-3.64614e-07
-2.15373e-07
-7.64638e-07
-3.58249e-07
-2.3195e-07
-5.38016e-07
-3.20413e-07
-3.81965e-07
-8.47405e-07
-2.4785e-07
-5.41089e-07
-3.89717e-07
-2.06191e-07
-1.19437e-06
-7.72567e-07
7.88863e-08
-1.53416e-06
-2.49652e-07
-7.51706e-08
-2.35198e-06
-1.08509e-06
2.01007e-07
-2.27072e-06
-8.60666e-07
-2.49644e-07
-3.00687e-07
-1.19784e-06
-6.54829e-07
4.43813e-08
1.44222e-06
-8.39384e-07
2.41672e-06
-5.03466e-06
-1.97705e-06
3.49038e-06
-1.34044e-06
-2.74699e-06
1.0279e-05
-1.97097e-06
-5.44342e-06
1.18049e-05
2.50092e-05
-7.29289e-06
1.53101e-05
-2.71238e-06
1.11587e-05
2.0726e-06
-2.67935e-05
1.71973e-06
-4.57516e-06
-4.15291e-05
5.59395e-06
-1.01035e-05
-1.36102e-05
3.69758e-06
-1.11976e-05
-1.64115e-05
1.6955e-07
-4.83734e-06
-1.92238e-06
-1.77832e-06
3.05191e-07
-2.03877e-06
-1.85215e-06
1.16476e-06
3.95707e-06
7.43389e-07
-3.79455e-07
4.35869e-06
2.77175e-06
-5.79339e-06
5.80867e-06
4.56315e-06
-1.28916e-05
6.02921e-06
5.38866e-06
-1.9712e-05
6.12585e-06
4.93008e-06
-2.4541e-05
5.36977e-06
4.05633e-06
-2.72505e-05
4.03114e-06
3.12523e-06
-2.87055e-05
2.31533e-06
1.9456e-06
-2.93062e-05
1.18856e-06
8.87322e-07
-2.90901e-05
-2.2908e-07
1.84095e-07
-2.81894e-05
-1.4295e-06
-4.64792e-07
-2.69882e-05
-2.48242e-06
-9.2316e-07
-2.54387e-05
-3.5664e-06
-1.20632e-06
-2.36362e-05
-4.40451e-06
-1.23251e-06
-2.15431e-05
-5.03251e-06
-1.07103e-06
-1.9273e-05
-5.32567e-06
-7.83542e-07
-1.6863e-05
-5.27867e-06
-4.13567e-07
-1.44242e-05
-4.75889e-06
7.55827e-09
-1.21249e-05
-3.88471e-06
5.05965e-07
-1.01697e-05
-2.41745e-06
1.00276e-06
-8.56673e-06
-7.89781e-07
1.56802e-06
-7.12345e-06
5.83198e-07
2.19872e-06
-5.55645e-06
1.35854e-06
2.64118e-06
-4.42039e-06
7.69674e-07
2.45542e-06
-4.23829e-06
1.02292e-07
1.92305e-06
-4.29143e-06
2.25885e-08
1.21299e-06
-3.87061e-06
6.73747e-07
-6.65338e-08
-2.68595e-06
1.65795e-06
-1.4509e-06
-1.09792e-06
2.06023e-06
-2.50866e-06
-4.54083e-08
1.10289e-06
-2.28201e-06
1.57904e-07
-1.16493e-06
-2.50579e-06
-1.55521e-06
7.73377e-07
-1.48001e-06
-4.02196e-06
-9.89198e-07
-1.76995e-06
-1.55387e-06
5.5863e-07
-1.32781e-06
-3.24253e-06
9.88329e-08
-1.07118e-06
-2.30415e-06
5.09579e-07
-6.76664e-07
-2.62752e-06
3.78731e-07
-2.95323e-07
-1.85385e-06
3.04561e-07
-1.34651e-07
-1.5352e-06
2.99481e-07
-1.08251e-07
-9.34786e-07
1.96646e-07
-2.46805e-07
-6.12395e-07
1.28015e-07
-3.77344e-07
-3.75461e-07
-2.39514e-08
-4.29447e-07
-4.02866e-07
-1.48487e-07
-4.2461e-07
-3.56316e-07
-2.58828e-07
-3.91807e-07
-3.42939e-07
-3.25067e-07
-3.54288e-07
-2.87024e-07
-3.70187e-07
-3.21073e-07
-2.59221e-07
-3.96073e-07
-2.93231e-07
-2.19169e-07
-4.15864e-07
-2.73361e-07
-2.01921e-07
-4.26775e-07
-2.58653e-07
-1.80531e-07
-4.35455e-07
-2.50118e-07
-1.73687e-07
-4.38673e-07
-2.43542e-07
-1.67109e-07
-4.41292e-07
-2.40201e-07
-1.67023e-07
-4.41058e-07
-2.38176e-07
-1.66942e-07
-4.40327e-07
-2.37791e-07
-1.69809e-07
-4.38e-07
-2.38711e-07
-1.7266e-07
-4.35009e-07
-2.40597e-07
-1.76415e-07
-4.31588e-07
-2.43024e-07
-1.80701e-07
-4.27853e-07
-2.45742e-07
-1.85513e-07
-4.23558e-07
-2.48574e-07
-1.90711e-07
-4.1879e-07
-2.51465e-07
-1.96007e-07
-4.13682e-07
-2.54476e-07
-2.01228e-07
-4.08164e-07
-2.57384e-07
-2.06452e-07
-4.02321e-07
-2.60992e-07
-2.11145e-07
-3.95838e-07
-2.642e-07
-2.16251e-07
-3.89519e-07
-2.68747e-07
-2.2116e-07
-3.8282e-07
-2.73195e-07
-2.23711e-07
-3.76623e-07
-2.79634e-07
-2.30209e-07
-3.69789e-07
-2.85305e-07
-2.31981e-07
-3.63552e-07
-2.92579e-07
-2.43752e-07
-3.56138e-07
-2.95315e-07
-2.43519e-07
-3.50291e-07
-3.0565e-07
-2.69072e-07
-3.41884e-07
-3.04002e-07
-2.55566e-07
-3.36296e-07
-3.26163e-07
-3.23655e-07
-3.23754e-07
-3.25059e-07
-2.65019e-07
-3.16301e-07
-4.08751e-07
-4.02764e-07
-2.78168e-07
-4.50207e-07
-2.3193e-07
-2.64615e-07
-7.7702e-07
-3.83308e-07
-1.37265e-07
-9.61274e-07
-4.01334e-08
-1.65311e-07
-1.77964e-06
-9.2246e-08
1.3807e-07
-2.07901e-06
1.63934e-07
-1.14195e-07
-2.77662e-06
-3.94172e-07
6.72056e-09
-2.52917e-06
-8.61321e-07
-2.46779e-07
-1.50808e-07
-3.02129e-06
-5.54892e-07
2.13167e-06
1.97197e-07
-1.03745e-06
7.37682e-08
6.90079e-07
-3.66684e-06
-2.44726e-06
5.79953e-06
-4.61895e-06
7.68118e-06
-3.20101e-06
-8.89842e-06
2.26451e-05
1.8092e-05
-8.04673e-06
1.55716e-05
-1.44703e-05
1.88313e-05
1.97014e-06
-1.5498e-05
2.3058e-06
-1.37416e-05
-3.26438e-05
6.82655e-06
-2.05528e-05
-1.07901e-05
3.99117e-06
-2.64216e-05
-1.16595e-05
1.11691e-06
-2.48306e-05
-2.89525e-06
-6.18028e-07
-2.71841e-05
-3.57168e-07
6.71902e-07
-2.8952e-05
3.40108e-06
2.32401e-06
-3.23708e-05
4.67912e-06
3.09844e-06
-3.60662e-05
6.22597e-06
3.27821e-06
-3.89841e-05
6.07354e-06
2.87374e-06
-4.12316e-05
6.15882e-06
2.2146e-06
-4.26718e-05
5.47513e-06
1.33501e-06
-4.36338e-05
4.60803e-06
3.85257e-07
-4.41593e-05
3.29765e-06
-4.56603e-07
-4.39338e-05
2.12069e-06
-1.15752e-06
-4.34404e-05
7.56288e-07
-1.47857e-06
-4.25028e-05
-7.00111e-07
-1.66685e-06
-4.12157e-05
-2.1028e-06
-1.66649e-06
-3.96538e-05
-3.5768e-06
-1.55136e-06
-3.77459e-05
-4.9195e-06
-1.39285e-06
-3.5452e-05
-6.15263e-06
-1.17369e-06
-3.27744e-05
-7.05402e-06
-9.49258e-07
-2.97441e-05
-7.6267e-06
-6.82219e-07
-2.63326e-05
-7.79889e-06
-3.71519e-07
-2.27508e-05
-7.43657e-06
-2.99001e-08
-1.92101e-05
-6.37989e-06
4.21774e-07
-1.58063e-05
-5.03489e-06
8.41298e-07
-1.24093e-05
-3.93363e-06
1.1198e-06
-9.24367e-06
-2.99028e-06
1.1832e-06
-7.0833e-06
-2.35316e-06
9.62465e-07
-5.83343e-06
-1.64349e-06
4.95911e-07
-4.89363e-06
-7.51191e-07
-1.66018e-07
-3.91441e-06
6.18729e-07
-9.2421e-07
-2.24562e-06
1.82483e-06
-1.83566e-06
-1.92478e-07
2.56725e-06
-2.56017e-06
8.36954e-07
2.42817e-06
-2.35471e-06
2.51208e-06
-1.51722e-06
-3.00391e-06
-9.88336e-07
1.31615e-06
-1.94441e-06
-3.65131e-06
-1.43015e-06
-2.19973e-06
-1.66047e-06
3.61921e-07
-1.64003e-06
-3.26469e-06
-5.37534e-07
-1.33637e-06
-2.84672e-06
2.38906e-07
-8.69007e-07
-3.07131e-06
-2.35733e-08
-4.10115e-07
-2.46526e-06
1.52515e-07
-2.16592e-08
-2.02243e-06
9.87782e-08
2.56898e-07
-1.30497e-06
9.16201e-08
1.44983e-07
-6.10871e-07
1.10388e-07
-3.18035e-08
-2.40944e-07
4.2268e-08
-1.73488e-07
-2.05436e-07
-5.57482e-08
-2.44889e-07
-1.33228e-07
-1.51688e-07
-2.70921e-07
-9.6151e-08
-2.20758e-07
-2.81646e-07
-8.05587e-09
-2.68244e-07
-2.82994e-07
4.16946e-08
-2.9957e-07
-2.85533e-07
1.03107e-07
-3.19738e-07
-2.85128e-07
1.32782e-07
-3.35111e-07
-2.86053e-07
1.65273e-07
-3.4488e-07
-2.87049e-07
1.7651e-07
-3.49203e-07
-2.88905e-07
1.86034e-07
-3.51289e-07
-2.91431e-07
1.86394e-07
-3.50893e-07
-2.93766e-07
1.85395e-07
-3.50003e-07
-2.96366e-07
1.80551e-07
-3.47762e-07
-2.99151e-07
1.74989e-07
-3.44863e-07
-3.01976e-07
1.67838e-07
-3.4143e-07
-3.05291e-07
1.60064e-07
-3.3745e-07
-3.09195e-07
1.51349e-07
-3.3296e-07
-3.13313e-07
1.42182e-07
-3.28773e-07
-3.17425e-07
1.3294e-07
-3.24836e-07
-3.21956e-07
1.23996e-07
-3.20691e-07
-3.2688e-07
1.15076e-07
-3.16603e-07
-3.32741e-07
1.06726e-07
-3.12005e-07
-3.38313e-07
9.7281e-08
-3.07959e-07
-3.45919e-07
8.91672e-08
-3.02716e-07
-3.53474e-07
8.2153e-08
-2.98306e-07
-3.63954e-07
7.28615e-08
-2.92584e-07
-3.74095e-07
6.688e-08
-2.88714e-07
-3.85733e-07
5.27796e-08
-2.84885e-07
-3.95197e-07
4.80861e-08
-2.82133e-07
-4.15841e-07
2.61283e-08
-2.74545e-07
-4.26509e-07
2.77968e-08
-2.72684e-07
-4.77296e-07
-1.87792e-08
-2.54074e-07
-4.96159e-07
1.34605e-08
-2.59604e-07
-6.39235e-07
-5.55068e-08
-2.04166e-07
-6.89073e-07
4.8503e-08
-2.30579e-07
-1.04056e-06
6.9442e-08
-1.01248e-07
-1.1573e-06
2.65365e-07
-1.88741e-07
-1.80594e-06
5.64833e-07
-8.41561e-09
-1.8641e-06
4.97063e-07
-2.74949e-07
-2.1779e-06
3.81872e-07
-4.62226e-07
-1.8641e-06
-5.94629e-07
-5.8046e-07
-1.5923e-06
-2.73842e-06
-5.54658e-07
7.62823e-07
-1.90013e-06
-2.57783e-07
1.38617e-06
4.32385e-06
-4.25713e-06
5.97764e-06
1.01089e-05
-8.90088e-06
1.32003e-05
5.56326e-07
-1.098e-05
3.33785e-05
5.24807e-06
-7.33436e-06
7.31883e-06
-1.11515e-05
2.27408e-05
-5.30115e-06
-5.7329e-06
2.85514e-06
-3.23423e-05
-1.30981e-05
7.49653e-06
-4.2611e-05
-4.9085e-06
4.3888e-06
-5.09832e-05
-3.66233e-06
3.76749e-07
-5.3203e-05
-7.9497e-08
-5.94247e-07
-5.51692e-05
1.49947e-06
1.11201e-07
-5.6588e-05
4.10439e-06
7.16961e-07
-5.81425e-05
5.27721e-06
9.57964e-07
-5.91724e-05
6.37318e-06
8.84175e-07
-6.01834e-05
6.59737e-06
4.88792e-07
-6.05915e-05
6.51187e-06
5.66953e-08
-6.02946e-05
5.88397e-06
-7.04061e-07
-5.95914e-05
5.18569e-06
-1.27915e-06
-5.87352e-05
4.03695e-06
-1.59376e-06
-5.75958e-05
2.70124e-06
-1.71813e-06
-5.62268e-05
1.12191e-06
-1.73284e-06
-5.44959e-05
-6.75122e-07
-1.75398e-06
-5.2429e-05
-2.42112e-06
-1.74691e-06
-5.05234e-05
-3.92362e-06
-1.5572e-06
-4.85203e-05
-5.48543e-06
-1.43573e-06
-4.66724e-05
-6.79127e-06
-1.20806e-06
-4.46814e-05
-7.92473e-06
-1.11931e-06
-4.24868e-05
-8.73647e-06
-1.08401e-06
-3.98905e-05
-9.25055e-06
-1.14408e-06
-3.678e-05
-9.30039e-06
-1.24614e-06
-3.30217e-05
-8.81681e-06
-1.32088e-06
-2.85623e-05
-8.22213e-06
-1.27192e-06
-2.37387e-05
-7.55834e-06
-1.1987e-06
-1.89657e-05
-6.67376e-06
-1.08945e-06
-1.47027e-05
-5.59177e-06
-1.02439e-06
-1.10196e-05
-4.29033e-06
-1.03623e-06
-7.87088e-06
-2.82898e-06
-1.07093e-06
-5.11773e-06
-1.02922e-06
-1.1052e-06
-2.47279e-06
7.03682e-07
-1.5238e-06
2.81198e-08
2.03154e-06
-1.96519e-06
1.25259e-06
2.77099e-06
-1.5673e-06
5.00847e-06
-1.2438e-06
-3.52554e-06
1.579e-07
1.49638e-06
-2.24428e-06
-2.87068e-06
-2.06189e-06
-2.25631e-06
-1.19109e-06
-4.57356e-07
-1.62854e-06
-2.28518e-06
-1.60728e-06
-1.19307e-06
-2.62749e-06
-6.54697e-07
-8.98813e-07
-2.88159e-06
-4.83973e-07
-5.59995e-07
-2.63114e-06
-1.72939e-07
-6.03818e-08
-2.2634e-06
-2.58643e-07
4.72723e-07
-1.66605e-06
-1.72019e-07
5.10826e-07
-5.93049e-07
-5.59275e-08
3.31629e-07
-2.1575e-08
-4.01738e-08
1.48237e-07
9.82479e-08
-1.20294e-07
1.52322e-08
2.13294e-07
-2.13519e-07
-8.8063e-08
2.99986e-07
-2.92843e-07
-1.65497e-07
4.15213e-07
-3.45837e-07
-2.18145e-07
4.76481e-07
-3.8214e-07
-2.58347e-07
5.38564e-07
-3.95257e-07
-2.94824e-07
5.6713e-07
-3.97872e-07
-3.23901e-07
6.00081e-07
-4.05733e-07
-3.45532e-07
6.14451e-07
-4.16311e-07
-3.63545e-07
6.28944e-07
-4.24899e-07
-3.78639e-07
6.34454e-07
-4.32966e-07
-3.90966e-07
6.38207e-07
-4.40487e-07
-4.019e-07
6.38934e-07
-4.4745e-07
-4.11784e-07
6.38913e-07
-4.54042e-07
-4.2111e-07
6.37554e-07
-4.6039e-07
-4.30515e-07
6.35981e-07
-4.66513e-07
-4.38973e-07
6.34971e-07
-4.75162e-07
-4.45924e-07
6.34492e-07
-4.8536e-07
-4.52154e-07
6.34016e-07
-4.94843e-07
-4.5814e-07
6.33413e-07
-5.03432e-07
-4.63901e-07
6.32151e-07
-5.11311e-07
-4.70559e-07
6.31502e-07
-5.18117e-07
-4.76796e-07
6.29214e-07
-5.2569e-07
-4.84585e-07
6.28968e-07
-5.32008e-07
-4.9158e-07
6.28494e-07
-5.39339e-07
-5.04203e-07
6.30088e-07
-5.44599e-07
-5.19023e-07
6.33592e-07
-5.51882e-07
-5.39812e-07
6.32936e-07
-5.5936e-07
-5.59153e-07
6.36977e-07
-5.69539e-07
-5.91145e-07
6.31486e-07
-5.73357e-07
-6.20366e-07
6.37203e-07
-5.80171e-07
-6.99794e-07
6.26619e-07
-5.65956e-07
-7.49656e-07
6.46929e-07
-5.8359e-07
-9.43371e-07
6.61027e-07
-5.22805e-07
-1.00933e-06
6.91714e-07
-5.77233e-07
-1.32239e-06
8.32074e-07
-4.49561e-07
-1.25823e-06
7.82357e-07
-5.81134e-07
-1.43886e-06
1.25513e-06
-5.09647e-07
-1.02584e-06
8.07882e-07
-7.23824e-07
-3.8961e-07
1.22547e-06
-1.47981e-06
-9.67608e-08
5.27377e-07
-1.41484e-06
-9.91819e-07
-3.67674e-07
-1.47568e-06
-1.41428e-06
-5.57323e-07
-9.2034e-07
1.092e-06
3.18796e-06
-1.37039e-06
1.04435e-05
7.39361e-06
-6.6362e-06
1.32803e-05
1.00003e-05
-1.22808e-05
3.28508e-05
-1.14316e-06
-1.31793e-05
7.95214e-06
-9.305e-06
2.30521e-05
-8.49438e-06
6.66105e-06
4.05335e-06
-4.62108e-05
1.42422e-05
1.03788e-05
-6.3271e-05
6.40706e-06
5.74875e-06
-7.29434e-05
5.69846e-06
3.1623e-07
-7.65206e-05
4.62084e-06
-1.11819e-06
-7.85289e-05
4.85058e-06
-1.33773e-06
-7.92649e-05
5.77259e-06
-9.27166e-07
-7.95707e-05
6.64005e-06
-1.05197e-06
-7.92249e-05
7.1808e-06
-1.14845e-06
-7.87065e-05
7.79331e-06
-1.70948e-06
-7.7777e-05
7.65016e-06
-2.0629e-06
-7.64004e-05
7.20464e-06
-2.69231e-06
-7.46215e-05
6.50729e-06
-3.09562e-06
-7.25356e-05
5.3821e-06
-3.42633e-06
-7.00911e-05
3.80295e-06
-3.54166e-06
-6.73953e-05
2.10309e-06
-3.67269e-06
-6.46112e-05
1.63237e-07
-3.6184e-06
-6.18333e-05
-1.78192e-06
-3.41312e-06
-5.93224e-05
-3.44275e-06
-2.98804e-06
-5.71518e-05
-5.21044e-06
-2.44192e-06
-5.54082e-05
-6.62337e-06
-1.90816e-06
-5.39917e-05
-7.74276e-06
-1.59536e-06
-5.28076e-05
-8.459e-06
-1.4588e-06
-5.17e-05
-8.69584e-06
-1.65987e-06
-5.01327e-05
-8.68616e-06
-2.17877e-06
-4.76349e-05
-8.53303e-06
-2.77883e-06
-4.42258e-05
-8.34277e-06
-3.28611e-06
-4.02707e-05
-7.9737e-06
-3.53749e-06
-3.54321e-05
-7.98553e-06
-3.52482e-06
-2.95188e-05
-8.3423e-06
-3.16144e-06
-2.32618e-05
-8.14486e-06
-2.40166e-06
-1.71981e-05
-7.20811e-06
-1.68411e-06
-1.11343e-05
-5.83845e-06
-1.2544e-06
-5.63312e-06
-4.05186e-06
-7.45581e-07
-1.03342e-06
-2.78945e-06
2.21287e-07
1.2108e-06
-2.23137e-06
2.75814e-06
-1.62782e-06
7.8471e-06
-3.97232e-06
1.37448e-06
2.93791e-06
-2.41664e-06
-2.50112e-06
-1.92523e-06
-2.1842e-06
-1.56125e-07
-1.2674e-06
-1.6011e-06
-8.85575e-07
-1.98271e-06
-1.02319e-06
-1.69503e-06
-1.51037e-06
-8.5971e-07
-2.12604e-06
-9.19021e-07
-6.51181e-07
-2.32436e-06