/*--------------------------------*- C++ -*----------------------------------*\
| =========                 |                                                 |
| \\      /  F ield         | OpenFOAM: The Open Source CFD Toolbox           |
|  \\    /   O peration     | Version:  2.3.0                                 |
|   \\  /    A nd           | Web:      www.OpenFOAM.org                      |
|    \\/     M anipulation  |                                                 |
\*---------------------------------------------------------------------------*/
FoamFile
{
    version     2.0;
    format      ascii;
    class       surfaceScalarField;
    location    "10";
    object      phi;
}
// * * * * * * * * * * * * * * * * * * * * * * * * * * * * * * * * * * * * * //

dimensions      [0 3 -1 0 0 0 0];

internalField   nonuniform List<scalar> 
16448
(
-1.72822e-06
-1.76466e-06
3.94844e-07
-1.63515e-07
-1.96208e-06
3.97374e-07
1.74149e-07
-8.94296e-07
5.56628e-07
4.73616e-07
-9.43797e-07
6.44324e-07
4.4256e-07
-5.79595e-07
6.10643e-07
4.26767e-07
-6.12403e-07
6.28188e-07
3.08449e-07
-5.57361e-07
6.75672e-07
2.02594e-07
-5.88069e-07
6.93917e-07
8.22342e-08
-5.99534e-07
7.19889e-07
-7.17409e-09
-6.40742e-07
7.30146e-07
-6.49232e-08
-6.90072e-07
7.47817e-07
-7.70247e-08
-7.42584e-07
7.54682e-07
-7.35878e-08
-7.81333e-07
7.77892e-07
-4.95787e-08
-8.16008e-07
7.91994e-07
-2.96322e-08
-8.36787e-07
8.16836e-07
-6.87624e-09
-8.54314e-07
8.31553e-07
7.96505e-09
-8.65602e-07
8.50756e-07
2.01448e-08
-8.75028e-07
8.62843e-07
2.61015e-08
-8.81633e-07
8.75671e-07
3.03113e-08
-8.88231e-07
8.84015e-07
3.07084e-08
-8.92759e-07
8.92357e-07
3.04894e-08
-8.97741e-07
8.97954e-07
2.87288e-08
-9.01389e-07
9.03144e-07
2.67997e-08
-9.05073e-07
9.06995e-07
2.45539e-08
-9.0812e-07
9.1036e-07
2.24331e-08
-9.10922e-07
9.13035e-07
2.05638e-08
-9.13485e-07
9.15348e-07
1.90702e-08
-9.15726e-07
9.17213e-07
1.84568e-08
-9.18151e-07
9.18758e-07
1.84464e-08
-9.20011e-07
9.20014e-07
2.02798e-08
-9.22581e-07
9.2074e-07
2.31456e-08
-9.24325e-07
9.21451e-07
2.95552e-08
-9.27464e-07
9.21046e-07
3.80653e-08
-9.29748e-07
9.21229e-07
5.31237e-08
-9.34238e-07
9.19171e-07
7.23877e-08
-9.37491e-07
9.18217e-07
1.01905e-07
-9.4361e-07
9.14084e-07
1.37077e-07
-9.47462e-07
9.1228e-07
1.83225e-07
-9.53054e-07
9.06897e-07
2.28292e-07
-9.53197e-07
9.0812e-07
2.66279e-07
-9.48064e-07
9.10066e-07
2.70428e-07
-9.31002e-07
9.26842e-07
2.19973e-07
-9.02227e-07
9.52672e-07
9.17807e-08
-8.54917e-07
9.83097e-07
-8.95691e-08
-8.09547e-07
9.90886e-07
-2.97581e-07
-7.9214e-07
1.00014e-06
-7.18709e-07
-6.20434e-07
1.04155e-06
-2.10221e-06
1.77387e-07
1.2061e-06
-4.41239e-06
8.92051e-07
1.41813e-06
-5.92366e-06
1.57208e-07
1.35406e-06
-4.93255e-06
-2.11546e-06
1.12435e-06
-2.07566e-06
-3.79238e-06
9.35483e-07
9.76536e-07
-4.74219e-06
1.68998e-06
3.08423e-06
-5.21552e-06
3.10781e-06
4.4165e-06
-4.92575e-06
3.59345e-06
6.8859e-06
-5.3578e-06
2.88836e-06
4.94236e-06
-3.29307e-06
5.23655e-06
1.26861e-05
-7.36404e-06
-3.79833e-07
-1.00646e-05
7.96193e-06
1.47887e-05
3.40883e-08
-6.63952e-06
-3.45935e-06
2.81292e-05
-3.22352e-05
4.14015e-06
3.52944e-05
-1.60297e-05
8.86451e-06
3.08308e-05
-4.39306e-06
8.85662e-06
3.07127e-05
-6.89803e-06
7.01613e-06
2.97101e-05
-4.01571e-06
5.01831e-06
2.98727e-05
-3.42537e-06
3.26277e-06
2.91119e-05
-1.702e-06
2.46277e-06
2.79853e-05
-1.87204e-06
2.99868e-06
2.55543e-05
-1.61102e-06
4.04202e-06
2.37268e-05
-1.94022e-06
3.76771e-06
2.17897e-05
-1.68887e-06
3.62591e-06
1.91965e-05
-4.67129e-07
3.06038e-06
1.46366e-05
2.10049e-06
2.45938e-06
7.05597e-06
4.92053e-06
2.66012e-06
-2.75977e-06
6.7494e-06
3.06634e-06
-9.60968e-06
3.95263e-06
2.89727e-06
-1.16264e-05
-1.4039e-06
3.42059e-06
-1.03074e-05
-4.11521e-06
2.79629e-06
-7.95101e-06
-5.05384e-06
2.69742e-06
-5.2173e-06
-6.04331e-06
3.3096e-06
-2.94259e-06
-5.75768e-06
3.48297e-06
-1.68364e-06
-5.73758e-06
4.47863e-06
-5.66031e-07
-5.795e-06
4.67739e-06
5.35261e-07
-5.63766e-06
4.53637e-06
1.1979e-06
-5.11374e-06
4.4511e-06
2.07036e-06
-4.79413e-06
3.92166e-06
3.08674e-06
-4.75133e-06
3.73496e-06
3.72702e-06
-4.05794e-06
3.41765e-06
2.72535e-06
-2.8007e-06
3.80237e-06
-1.45342e-06
2.2502e-07
3.95376e-06
-6.33465e-06
7.67955e-07
4.11328e-06
-9.22697e-06
-8.42787e-07
3.73511e-06
-9.65375e-06
-1.28529e-06
1.71208e-06
-8.83738e-06
-6.05023e-07
-2.11346e-07
-6.34026e-06
3.28629e-08
-2.52999e-06
4.9191e-07
-6.83217e-06
-2.50066e-06
-2.42576e-06
-1.81615e-07
-1.2198e-06
-2.95998e-06
-2.82955e-07
-7.73779e-07
-1.30961e-06
-3.07163e-08
-2.73363e-07
-1.53988e-06
9.56555e-08
-8.14747e-08
-8.32533e-07
6.10375e-08
2.37139e-09
-8.63078e-07
1.66815e-07
6.39373e-09
-7.23319e-07
1.61923e-07
-5.79389e-08
-7.21286e-07
1.97538e-07
-1.35746e-07
-7.15064e-07
1.93327e-07
-2.0179e-07
-7.6568e-07
1.90973e-07
-2.45094e-07
-8.33245e-07
1.86469e-07
-2.34102e-07
-9.32847e-07
1.79261e-07
-2.09041e-07
-9.96152e-07
1.89749e-07
-1.63534e-07
-1.05918e-06
1.97656e-07
-1.27564e-07
-1.08878e-06
2.16008e-07
-9.04324e-08
-1.11949e-06
2.28029e-07
-6.74525e-08
-1.13304e-06
2.44448e-07
-4.73531e-08
-1.14926e-06
2.5412e-07
-3.6895e-08
-1.15754e-06
2.65441e-07
-2.90281e-08
-1.16806e-06
2.71951e-07
-2.63211e-08
-1.17448e-06
2.78999e-07
-2.48519e-08
-1.18228e-06
2.83052e-07
-2.55473e-08
-1.18784e-06
2.87129e-07
-2.67064e-08
-1.19363e-06
2.89702e-07
-2.84457e-08
-1.19835e-06
2.91959e-07
-3.01124e-08
-1.2028e-06
2.93532e-07
-3.15838e-08
-1.2068e-06
2.94774e-07
-3.26426e-08
-1.21034e-06
2.95657e-07
-3.27833e-08
-1.21416e-06
2.96135e-07
-3.21441e-08
-1.21702e-06
2.96357e-07
-2.92485e-08
-1.22154e-06
2.96045e-07
-2.54615e-08
-1.2238e-06
2.95666e-07
-1.64e-08
-1.23042e-06
2.93878e-07
-5.87904e-09
-1.23299e-06
2.92699e-07
1.42216e-08
-1.24304e-06
2.88682e-07
3.89021e-08
-1.24791e-06
2.85723e-07
7.7455e-08
-1.26115e-06
2.78962e-07
1.24696e-07
-1.26831e-06
2.73587e-07
1.87583e-07
-1.28132e-06
2.6536e-07
2.52698e-07
-1.28185e-06
2.63516e-07
3.0982e-07
-1.27112e-06
2.65911e-07
3.19193e-07
-1.22836e-06
2.87957e-07
2.28995e-07
-1.14166e-06
3.29601e-07
-5.04718e-08
-9.95167e-07
4.1969e-07
-5.96971e-07
-8.21609e-07
5.58534e-07
-1.53944e-06
-6.39635e-07
7.89942e-07
-2.94924e-06
-2.44e-07
1.03333e-06
-4.04635e-06
2.55293e-07
1.01919e-06
-4.47762e-06
4.00661e-07
9.22642e-07
-3.04999e-06
-1.64956e-06
3.79115e-07
1.35283e-06
-5.61946e-06
-8.98842e-07
5.02947e-06
-6.45676e-06
-1.01229e-06
7.36831e-06
-6.81919e-06
-2.61872e-07
1.08737e-05
-9.42424e-06
7.03308e-07
1.28926e-05
-9.09607e-06
2.15131e-06
1.73258e-05
-1.16449e-05
1.85389e-06
1.66986e-05
-6.42425e-06
3.7583e-06
2.05628e-05
-1.29105e-05
1.68218e-06
-6.50834e-06
1.37157e-05
2.13171e-05
8.65401e-07
-1.40242e-05
1.06538e-08
1.24583e-05
-4.23579e-05
-1.47029e-06
7.90374e-06
-1.75606e-05
6.08546e-06
1.02296e-05
-5.50078e-06
-1.21817e-06
9.1544e-06
-3.26806e-06
-2.55474e-06
7.0146e-06
2.0485e-06
-3.92441e-06
5.28557e-06
1.05956e-06
-2.7559e-06
8.21341e-07
2.32873e-06
4.33501e-07
-3.45864e-06
5.10391e-07
1.89755e-06
-5.00411e-06
-1.82442e-06
1.75886e-06
-6.44191e-06
-3.03249e-06
2.53008e-06
-8.21073e-06
-3.13308e-06
3.21303e-06
-9.35969e-06
-1.58361e-06
2.26544e-06
-1.09383e-05
1.40935e-06
2.26973e-06
-1.3265e-05
3.19725e-06
4.05e-06
-1.51976e-05
3.54489e-06
5.13705e-06
-1.43182e-05
-1.04882e-06
4.1221e-06
-1.32555e-05
-4.33712e-06
1.87048e-06
-1.26131e-05
-5.58215e-06
8.24601e-07
-1.12022e-05
-6.90699e-06
4.42218e-07
-9.4644e-06
-7.97501e-06
1.93918e-07
-7.44854e-06
-8.54877e-06
7.75237e-07
-6.41836e-06
-8.21055e-06
1.44279e-06
-5.42643e-06
-8.12688e-06
1.33996e-06
-3.80558e-06
-8.03448e-06
7.75964e-07
-1.92914e-06
-7.47509e-06
4.8492e-07
-6.38337e-09
-6.83501e-06
1.18131e-07
1.62667e-06
-6.36284e-06
-2.15487e-08
3.1607e-06
-5.21165e-06
-3.80317e-07
5.26183e-06
-4.29156e-06
-6.10269e-07
7.28139e-06
-1.66562e-06
-1.28919e-07
5.79972e-06
5.25007e-07
1.72461e-06
-3.29859e-07
2.02074e-07
5.08472e-06
-5.99051e-06
-1.30282e-06
5.67818e-06
-6.78668e-06
-6.65644e-07
8.56792e-07
-5.49407e-06
1.33088e-06
-2.59064e-06
3.21706e-06
-8.21922e-06
-2.53096e-06
-2.34108e-06
-3.32656e-07
-1.4909e-06
-3.40422e-06
-5.95819e-07
-1.3136e-06
-1.27012e-06
-2.16803e-07
-8.51589e-07
-1.8775e-06
-1.24402e-07
-6.21124e-07
-8.89521e-07
-1.73489e-07
-4.02565e-07
-1.02175e-06
-5.98995e-08
-3.10692e-07
-7.01967e-07
-1.13236e-07
-2.6412e-07
-7.02793e-07
-6.50739e-08
-2.89401e-07
-6.17732e-07
-7.20584e-08
-3.27066e-07
-6.43999e-07
-8.40236e-08
-3.576e-07
-6.90105e-07
-1.12613e-07
-3.31946e-07
-8.12596e-07
-1.45912e-07
-2.87338e-07
-8.87392e-07
-1.53378e-07
-2.28e-07
-9.64599e-07
-1.53929e-07
-1.78963e-07
-9.95117e-07
-1.42708e-07
-1.34869e-07
-1.03018e-06
-1.33411e-07
-1.05749e-07
-1.04102e-06
-1.21147e-07
-8.24181e-08
-1.05898e-06
-1.13621e-07
-6.95266e-08
-1.06508e-06
-1.05368e-07
-6.01359e-08
-1.07627e-06
-1.01188e-07
-5.6371e-08
-1.08159e-06
-9.66663e-08
-5.41108e-08
-1.0897e-06
-9.48486e-08
-5.43927e-08
-1.09481e-06
-9.2762e-08
-5.52602e-08
-1.10063e-06
-9.21433e-08
-5.68275e-08
-1.1051e-06
-9.16982e-08
-5.84227e-08
-1.10938e-06
-9.18429e-08
-5.99285e-08
-1.11319e-06
-9.21245e-08
-6.0978e-08
-1.11656e-06
-9.27508e-08
-6.13932e-08
-1.12017e-06
-9.35935e-08
-6.0821e-08
-1.12301e-06
-9.46053e-08
-5.87386e-08
-1.12764e-06
-9.59999e-08
-5.4973e-08
-1.12992e-06
-9.76575e-08
-4.72855e-08
-1.1378e-06
-1.00327e-07
-3.70201e-08
-1.14058e-06
-1.02688e-07
-1.85655e-08
-1.15414e-06
-1.07372e-07
5.53314e-09
-1.16023e-06
-1.11805e-07
4.42344e-08
-1.18048e-06
-1.19386e-07
9.49916e-08
-1.19133e-06
-1.27756e-07
1.62395e-07
-1.21285e-06
-1.35896e-07
2.41301e-07
-1.21985e-06
-1.40932e-07
3.19384e-07
-1.21579e-06
-1.33436e-07
3.68489e-07
-1.16828e-06
-1.09203e-07
3.47676e-07
-1.06087e-06
-6.00003e-08
1.95956e-07
-8.51792e-07
8.31902e-09
-1.56829e-07
-5.60564e-07
9.17155e-08
-7.50173e-07
-2.89527e-07
2.4321e-07
-1.52564e-06
-1.44544e-08
5.459e-07
-2.00045e-06
3.09608e-08
6.99119e-07
-1.43962e-06
-8.71904e-07
7.11706e-07
1.69926e-06
-4.30031e-06
-4.8816e-07
5.69202e-06
-8.34673e-06
-1.26553e-06
8.74288e-06
-8.75381e-06
-7.5385e-07
1.0754e-05
-9.3414e-06
5.11021e-07
1.3801e-05
-1.27803e-05
3.09108e-07
1.57492e-05
-1.1602e-05
5.57699e-07
2.09248e-05
-1.56643e-05
-1.15627e-06
2.12348e-05
-6.44166e-06
-2.92569e-07
2.37602e-05
-1.49581e-05
-4.77929e-07
-3.65078e-06
2.19496e-05
1.91764e-05
-3.73082e-07
-1.69443e-05
-3.5786e-07
4.97463e-06
-4.42703e-05
-3.43526e-06
1.34428e-06
-1.63072e-05
2.37699e-06
9.29533e-06
-1.07963e-05
-2.6555e-06
3.83277e-06
5.3896e-06
-3.19511e-06
3.8318e-06
7.38541e-06
-5.33593e-06
2.26985e-06
6.64748e-06
-4.02597e-06
-5.34561e-07
6.1491e-06
-1.01597e-06
-7.82088e-06
5.07782e-06
2.71888e-06
-1.39251e-05
1.55862e-06
2.72118e-06
-1.8723e-05
-7.00832e-07
2.46623e-06
-2.1953e-05
-1.80291e-06
1.89986e-06
-2.41739e-05
-1.8979e-06
2.53521e-06
-2.47651e-05
-8.69276e-07
2.86979e-06
-2.42032e-05
-8.56039e-08
2.72097e-06
-2.2248e-05
-3.49865e-07
1.93954e-06
-2.06171e-05
-3.19273e-06
5.1302e-07
-1.97114e-05
-5.23648e-06
-6.31706e-09
-1.84705e-05
-6.6247e-06
-1.983e-07
-1.67924e-05
-8.05776e-06
-5.27385e-07
-1.47492e-05
-8.62047e-06
-1.39774e-06
-1.18057e-05
-9.02946e-06
-2.46281e-06
-9.3115e-06
-7.99113e-06
-2.71362e-06
-6.60007e-06
-6.89756e-06
-3.94074e-06
-3.10281e-06
-6.36528e-06
-5.16646e-06
-3.7207e-08
-5.18872e-06
-5.35198e-06
2.47444e-06
-4.33566e-06
-5.01099e-06
4.60885e-06
-3.62623e-06
-4.87103e-06
6.62989e-06
-2.71329e-06
-4.51939e-06
8.10238e-06
-1.34993e-06
-4.41413e-06
9.86781e-06
6.60715e-07
-4.09177e-06
1.06758e-05
3.58966e-06
-3.87261e-06
8.8428e-06
5.02667e-06
-2.99163e-06
4.82149e-06
4.56561e-06
-1.84713e-06
1.33387e-06
4.93574e-06
-2.11376e-06
-6.07978e-07
7.6656e-06
-4.39286e-06
1.06098e-05
-8.00067e-06
-2.14922e-06
-2.15252e-06
-5.66605e-08
-1.18215e-06
-3.85186e-06
-5.19445e-07
-1.27394e-06
-1.18821e-06
9.88448e-09
-9.08985e-07
-2.35925e-06
1.16786e-07
-7.84471e-07
-1.03739e-06
2.33376e-08
-5.94388e-07
-1.33428e-06
1.22436e-07
-4.88557e-07
-7.5396e-07
-5.38484e-08
-4.1568e-07
-7.57173e-07
-1.85056e-08
-4.35644e-07
-5.11212e-07
-8.65647e-08
-4.75703e-07
-4.87398e-07
-1.16549e-07
-5.09462e-07
-4.71342e-07
-1.85012e-07
-4.84051e-07
-5.82901e-07
-2.55115e-07
-4.24154e-07
-6.50701e-07
-2.96597e-07
-3.51571e-07
-7.21951e-07
-3.1524e-07
-2.8575e-07
-7.41286e-07
-3.19663e-07
-2.32692e-07
-7.65996e-07
-3.1725e-07
-1.94062e-07
-7.67354e-07
-3.1231e-07
-1.66379e-07
-7.78854e-07
-3.07821e-07
-1.48807e-07
-7.79183e-07
-3.03478e-07
-1.37287e-07
-7.86864e-07
-3.00942e-07
-1.30951e-07
-7.89214e-07
-2.98722e-07
-1.27414e-07
-7.95432e-07
-2.97816e-07
-1.26347e-07
-7.9889e-07
-2.96996e-07
-1.26367e-07
-8.03567e-07
-2.97058e-07
-1.27244e-07
-8.07149e-07
-2.9709e-07
-1.28534e-07
-8.10774e-07
-2.97328e-07
-1.29891e-07
-8.14112e-07
-2.97734e-07
-1.30918e-07
-8.17295e-07
-2.98248e-07
-1.3157e-07
-8.20618e-07
-2.98916e-07
-1.31155e-07
-8.23515e-07
-2.99924e-07
-1.30015e-07
-8.28013e-07
-3.00783e-07
-1.26507e-07
-8.31276e-07
-3.0217e-07
-1.2096e-07
-8.39685e-07
-3.0368e-07
-1.11206e-07
-8.44654e-07
-3.05701e-07
-9.57307e-08
-8.60828e-07
-3.08809e-07
-7.23714e-08
-8.71075e-07
-3.12531e-07
-3.61762e-08
-8.98474e-07
-3.18224e-07
1.14068e-08
-9.15181e-07
-3.23757e-07
7.27718e-08
-9.48582e-07
-3.25657e-07
1.45016e-07
-9.66934e-07
-3.25183e-07
2.15916e-07
-9.78699e-07
-3.08015e-07
2.82283e-07
-9.51251e-07
-2.83423e-07
3.2441e-07
-8.69864e-07
-2.33157e-07
3.31677e-07
-6.80961e-07
-1.78122e-07
2.41199e-07
-3.50813e-07
-1.193e-07
1.59951e-08
-2.20239e-08
-4.23253e-08
-2.96608e-07
1.97821e-07
1.00301e-07
-3.62124e-07
-4.46231e-08
1.41074e-07
8.45247e-07
-1.80164e-06
-2.77664e-07
4.01344e-06
-6.05904e-06
-1.40949e-06
7.57299e-06
-9.30289e-06
-2.60342e-06
9.41331e-06
-1.06831e-05
8.89102e-08
1.01983e-05
-1.34041e-05
3.27764e-06
1.18778e-05
-1.70696e-05
2.60982e-06
1.31701e-05
-1.34605e-05
5.66115e-07
1.60005e-05
-1.75158e-05
-9.78961e-07
1.94022e-05
-3.38432e-06
-6.45887e-06
2.14352e-05
-1.57203e-05
-1.27103e-06
-2.50567e-07
3.1644e-05
1.19903e-05
9.58645e-07
-1.42324e-05
-3.92143e-06
4.08553e-06
-4.51774e-05
-2.21965e-06
-3.53126e-06
-1.2137e-05
3.44654e-06
-2.76097e-06
-1.08987e-05
-6.67936e-07
-4.52966e-06
8.49252e-06
-1.33421e-06
-5.64351e-07
5.74878e-06
-2.32868e-06
-5.21695e-06
9.20163e-06
2.09846e-06
-1.04014e-05
7.98361e-06
3.34997e-06
-1.60642e-05
8.13362e-06
2.60693e-06
-2.09832e-05
4.41126e-06
2.06644e-06
-2.48505e-05
1.16044e-06
2.00604e-06
-2.72759e-05
-4.57905e-07
1.08035e-06
-2.94182e-05
-9.27634e-07
1.17203e-06
-3.01732e-05
-1.061e-06
9.46784e-07
-2.96708e-05
-1.3066e-06
7.18609e-07
-2.82909e-05
-2.24472e-06
5.14901e-07
-2.75491e-05
-4.22982e-06
2.95349e-07
-2.64241e-05
-6.09897e-06
-2.6251e-07
-2.49081e-05
-7.36392e-06
-7.76766e-07
-2.26904e-05
-8.41903e-06
-1.85643e-06
-1.94391e-05
-8.96441e-06
-2.90743e-06
-1.59101e-05
-8.32967e-06
-4.2287e-06
-1.31184e-05
-5.82814e-06
-4.95471e-06
-9.91589e-06
-2.99378e-06
-7.10632e-06
-6.15126e-06
-1.59091e-06
-8.539e-06
-2.26088e-06
3.64425e-07
-9.44352e-06
8.11404e-07
1.97057e-06
-9.37852e-06
3.29385e-06
2.53655e-06
-8.64522e-06
5.51313e-06
3.00337e-06
-7.93595e-06
6.95779e-06
4.49901e-06
-7.2936e-06
7.6627e-06
6.89389e-06
-6.93809e-06
8.53619e-06
9.22074e-06
-6.50457e-06
8.55874e-06
1.02203e-05
-5.21623e-06
4.98585e-06
1.05471e-05
-2.40858e-06
6.53105e-07
1.06949e-05
-1.42637e-06
-1.17287e-06
1.26288e-05
-3.13719e-06
1.58769e-05
-6.44004e-06
-2.09422e-06
-1.98336e-06
4.33968e-07
-1.06698e-06
-4.26547e-06
-6.13623e-07
-1.26391e-06
-1.45821e-06
4.6691e-07
-8.97584e-07
-3.10527e-06
3.79683e-07
-6.6777e-07
-1.73361e-06
4.66397e-07
-4.3807e-07
-2.02146e-06
4.57466e-07
-2.37823e-07
-1.16397e-06
2.09754e-07
-2.00661e-07
-1.00387e-06
2.0953e-07
-2.36783e-07
-5.48029e-07
7.2934e-08
-3.6227e-07
-3.9021e-07
2.82917e-08
-4.81071e-07
-2.50851e-07
-1.01696e-07
-5.12981e-07
-3.37712e-07
-2.13286e-07
-4.73472e-07
-3.8557e-07
-3.04647e-07
-4.12734e-07
-4.25981e-07
-3.56716e-07
-3.50216e-07
-4.1817e-07
-3.85642e-07
-2.99471e-07
-4.18103e-07
-3.98646e-07
-2.58598e-07
-4.03194e-07
-4.05042e-07
-2.31011e-07
-4.00643e-07
-4.05808e-07
-2.11169e-07
-3.93272e-07
-4.05761e-07
-1.99465e-07
-3.94224e-07
-4.04355e-07
-1.91458e-07
-3.93871e-07
-4.0336e-07
-1.87235e-07
-3.97681e-07
-4.01985e-07
-1.84675e-07
-4.00597e-07
-4.00863e-07
-1.83874e-07
-4.04817e-07
-3.99564e-07
-1.84112e-07
-4.08773e-07
-3.98149e-07
-1.85028e-07
-4.13e-07
-3.96872e-07
-1.86151e-07
-4.17311e-07
-3.9569e-07
-1.86738e-07
-4.21981e-07
-3.9474e-07
-1.86844e-07
-4.26939e-07
-3.93585e-07
-1.8586e-07
-4.32385e-07
-3.92128e-07
-1.84631e-07
-4.39176e-07
-3.90081e-07
-1.81091e-07
-4.46375e-07
-3.88456e-07
-1.77087e-07
-4.57636e-07
-3.86068e-07
-1.68302e-07
-4.68879e-07
-3.84575e-07
-1.56617e-07
-4.89695e-07
-3.82834e-07
-1.36495e-07
-5.09525e-07
-3.81689e-07
-1.10843e-07
-5.45036e-07
-3.79106e-07
-8.09108e-08
-5.71456e-07
-3.73674e-07
-5.29463e-08
-6.14395e-07
-3.62169e-07
-3.42198e-08
-6.38374e-07
-3.47305e-07
-2.76667e-08
-6.60347e-07
-3.24923e-07
-1.73226e-08
-6.52884e-07
-3.0873e-07
4.81236e-08
-6.41931e-07
-2.93398e-07
1.94083e-07
-5.44046e-07
-2.82895e-07
3.69239e-07
-2.63317e-07
-2.62673e-07
5.35304e-07
8.31597e-08
-2.71269e-07
6.27312e-07
3.43577e-07
-2.37785e-07
9.59622e-07
-1.22464e-07
-2.54491e-07
1.95236e-06
-2.02068e-06
-7.73718e-07
3.51809e-06
-5.41636e-06
-2.20843e-06
4.49253e-06
-7.56391e-06
-2.71343e-06
6.2829e-06
-1.19031e-05
-5.70391e-07
8.57529e-06
-1.85087e-05
2.81219e-06
8.8957e-06
-2.23117e-05
4.92163e-06
8.54641e-06
-1.55827e-05
2.47147e-06
9.57762e-07
-1.47945e-05
4.86738e-06
4.10472e-06
-1.68368e-06
-4.8473e-06
-9.39662e-06
-3.83824e-06
1.61906e-06
-9.00217e-07
9.92706e-06
1.32191e-05
1.24195e-06
-1.34516e-05
-2.92289e-06
-2.61657e-06
-3.85889e-05
-2.72961e-06
-1.26338e-05
-8.1568e-06
6.03705e-06
-1.50282e-05
-9.2764e-06
7.72097e-07
-1.4014e-05
6.0947e-06
1.38366e-06
-1.75716e-05
7.4136e-06
1.89283e-06
-2.10617e-05
1.06747e-05
2.01695e-06
-2.37645e-05
8.86434e-06
1.8221e-06
-2.51225e-05
7.35784e-06
2.13385e-06
-2.67844e-05
4.15665e-06
1.91652e-06
-2.94159e-05
1.23811e-06
2.55379e-06
-3.15035e-05
-7.59238e-07
2.38903e-06
-3.31207e-05
-1.5082e-06
2.1977e-06
-3.41298e-05
-2.2437e-06
2.19186e-06
-3.40835e-05
-3.11782e-06
1.76492e-06
-3.36008e-05
-4.37099e-06
1.64362e-06
-3.32532e-05
-5.73932e-06
1.16194e-06
-3.26533e-05
-7.20918e-06
5.10222e-07
-3.10979e-05
-8.789e-06
-1.303e-07
-2.88417e-05
-9.81801e-06
-8.57186e-07
-2.58959e-05
-1.0205e-05
-1.70516e-06
-2.20293e-05
-9.21269e-06
-2.9836e-06
-1.83711e-05
-4.73554e-06
-4.75079e-06
-1.50131e-05
7.11046e-07
-7.06287e-06
-1.21007e-05
3.78432e-06
-8.28761e-06
-9.68128e-06
5.37892e-06
-7.4339e-06
-6.78317e-06
6.02146e-06
-6.94898e-06
-3.16134e-06
5.63961e-06
-6.72488e-06
1.09731e-06
5.02007e-06
-6.27535e-06
4.86478e-06
5.78078e-06
-5.04924e-06
6.64813e-06
8.58578e-06
-3.47524e-06
7.07992e-06
1.04406e-05
-1.65164e-06
3.88006e-06
1.21902e-05
1.23002e-06
-8.2322e-07
1.31637e-05
2.08668e-06
-2.36486e-06
1.2562e-05
-3.2549e-07
-1.43204e-06
1.41982e-05
-2.50231e-06
2.01093e-05
-5.6644e-06
-2.57111e-06
-1.75412e-06
1.0124e-06
-1.42523e-06
-4.25007e-06
-1.16129e-06
-1.60957e-06
-2.0245e-06
7.50631e-07
-1.11756e-06
-3.6774e-06
8.01077e-08
-8.75261e-07
-2.72241e-06
7.46495e-07
-5.07432e-07
-2.90642e-06
5.17123e-07
-4.02577e-08
-2.06117e-06
4.30021e-07
1.41897e-07
-1.56753e-06
3.81496e-07
2.37249e-07
-8.90348e-07
2.46961e-07
4.22696e-08
-4.14693e-07
2.19458e-07
-1.6897e-07
-1.09681e-07
7.0064e-08
-3.28756e-07
-1.08704e-07
-6.92269e-08
-3.77306e-07
-1.32868e-07
-2.04157e-07
-3.70324e-07
-1.48003e-07
-2.84965e-07
-3.45734e-07
-1.0513e-07
-3.37636e-07
-3.16646e-07
-7.9567e-08
-3.67629e-07
-2.9119e-07
-4.32681e-08
-3.85387e-07
-2.71566e-07
-2.58462e-08
-3.94425e-07
-2.57488e-07
-7.12849e-09
-4.00229e-07
-2.49367e-07
-9.65233e-10
-4.01385e-07
-2.44023e-07
2.2628e-09
-4.01485e-07
-2.41866e-07
-4.85981e-10
-3.99358e-07
-2.40672e-07
-5.33005e-09
-3.96468e-07
-2.4111e-07
-1.22815e-08
-3.92103e-07
-2.42159e-07
-1.99561e-08
-3.87775e-07
-2.43489e-07
-2.86854e-08
-3.82991e-07
-2.44933e-07
-3.80378e-08
-3.77837e-07
-2.46146e-07
-4.82351e-08
-3.7254e-07
-2.4768e-07
-5.8915e-08
-3.66499e-07
-2.48445e-07
-7.11944e-08
-3.60432e-07
-2.49861e-07
-8.44059e-08
-3.53363e-07
-2.49429e-07
-9.97775e-08
-3.47037e-07
-2.49417e-07
-1.17338e-07
-3.40319e-07
-2.45629e-07
-1.37484e-07
-3.3519e-07
-2.42128e-07
-1.65317e-07
-3.27888e-07
-2.33607e-07
-1.95911e-07
-3.22142e-07
-2.30342e-07
-2.37245e-07
-3.11065e-07
-2.33844e-07
-2.69754e-07
-2.98208e-07
-2.54408e-07
-3.12056e-07
-2.81783e-07
-2.96232e-07
-3.32011e-07
-2.64546e-07
-3.52008e-07
-3.56909e-07
-2.4767e-07
-3.82288e-07
-3.71674e-07
-2.50937e-07
-2.83435e-07
-4.48148e-07
-2.92644e-07
-8.69388e-09
-4.53342e-07
-3.65451e-07
3.80477e-07
-2.51272e-07
-4.01222e-07
7.1596e-07
1.61657e-07
-4.13986e-07
1.13828e-06
3.46644e-07
-4.25396e-07
1.62813e-06
-1.97331e-07
-4.14985e-07
1.818e-06
-1.45189e-06
-7.58663e-07
2.24404e-06
-3.37713e-06
-2.46527e-06
2.55207e-06
-4.21848e-06
-3.65347e-06
2.78805e-06
-1.07415e-05
-1.39758e-06
3.17912e-06
-1.78159e-05
-1.0838e-06
-1.30869e-06
-1.53044e-05
-2.51952e-06
3.05969e-06
-1.40126e-05
-5.93853e-06
-2.29495e-06
-8.4258e-06
-1.014e-06
7.13137e-06
-4.96707e-06
-6.14255e-06
-2.87347e-06
4.37813e-06
1.78817e-06
3.47959e-06
-1.22543e-05
1.58266e-05
3.19266e-06
-1.1387e-05
-1.77711e-06
-9.36758e-06
-2.45738e-05
-1.45446e-06
-1.78264e-05
-4.45185e-06
4.75431e-06
-2.45671e-05
-3.32711e-06
7.91794e-07
-2.56213e-05
5.54859e-06
1.60067e-06
-2.8145e-05
7.90301e-06
2.03467e-06
-2.83087e-05
8.7414e-06
2.09751e-06
-2.89388e-05
6.53981e-06
2.9552e-06
-2.94544e-05
4.49876e-06
3.37521e-06
-3.18587e-05
2.29273e-06
4.26874e-06
-3.54695e-05
1.69082e-07
4.68032e-06
-3.86778e-05
-1.9925e-06
4.44221e-06
-4.11778e-05
-2.83885e-06
3.8311e-06
-4.28217e-05
-3.66142e-06
3.06213e-06
-4.35247e-05
-4.60476e-06
2.19045e-06
-4.32472e-05
-5.87866e-06
1.23054e-06
-4.22809e-05
-7.32219e-06
6.16911e-07
-4.11267e-05
-9.11871e-06
7.55646e-07
-3.97205e-05
-1.08437e-05
6.48684e-07
-3.76359e-05
-1.2095e-05
1.92428e-07
-3.40418e-05
-1.32833e-05
-5.1568e-07
-2.84103e-05
-1.37096e-05
-1.1346e-06
-2.16867e-05
-1.11384e-05
-3.2069e-07
-1.55915e-05
-5.24029e-06
-1.43803e-07
-1.25508e-05
7.48086e-07
-4.53714e-09
-1.14524e-05
4.81664e-06
-5.36117e-07
-8.92761e-06
5.19682e-06
-1.70013e-06
-5.22429e-06
5.90371e-06
-3.96742e-06
-9.79475e-07
5.72969e-06
-4.95443e-06
1.96703e-06
6.41028e-06
-3.576e-06
1.61293e-06
9.26292e-06
-3.23039e-07
-5.76259e-07
1.11014e-05
1.5284e-06
-3.55021e-06
1.3004e-05
2.1601e-06
-3.86806e-06
1.27419e-05
7.39589e-07
-2.80634e-06
1.2919e-05
-1.41873e-06
-1.89827e-06
1.68993e-05
-3.60914e-06
2.39319e-05
-5.72092e-06
-3.38048e-06
-1.05359e-06
1.14651e-06
-1.84362e-06
-3.93424e-06
-1.85268e-06
-1.80815e-06
-1.99114e-06
-6.88403e-08
-1.19964e-06
-3.41315e-06
-8.72767e-07
-8.44757e-07
-3.07585e-06
-1.44131e-09
-5.8483e-07
-3.22226e-06
5.59088e-08
-2.34877e-07
-2.61491e-06
2.03784e-07
1.66459e-07
-2.0638e-06
9.49317e-08
5.72471e-07
-1.37646e-06
8.01005e-08
4.77808e-07
-4.29375e-07
1.09342e-07
2.21263e-07
6.10155e-08
8.58476e-08
-1.27585e-08
1.16062e-07
9.25351e-09
-1.48858e-07
9.55046e-08
-9.2274e-08
-2.14326e-07
8.72617e-08
-1.69798e-07
-2.47464e-07
1.5148e-07
-2.23472e-07
-2.62111e-07
1.95656e-07
-2.60576e-07
-2.70599e-07
2.49385e-07
-2.84165e-07
-2.7569e-07
2.76379e-07
-2.97135e-07
-2.81622e-07
3.03847e-07
-3.05043e-07
-2.87136e-07
3.12954e-07
-3.08407e-07
-2.93022e-07
3.17704e-07
-3.09554e-07
-2.9804e-07
3.13108e-07
-3.08576e-07
-3.02369e-07
3.06063e-07
-3.07063e-07
-3.06337e-07
2.96407e-07
-3.0472e-07
-3.10303e-07
2.85994e-07
-3.01983e-07
-3.14205e-07
2.74092e-07
-2.98875e-07
-3.18252e-07
2.61401e-07
-2.95391e-07
-3.2237e-07
2.47565e-07
-2.91682e-07
-3.26942e-07
2.33188e-07
-2.87529e-07
-3.31066e-07
2.16752e-07
-2.83821e-07
-3.36035e-07
1.99806e-07
-2.7924e-07
-3.40176e-07
1.80109e-07
-2.75744e-07
-3.46618e-07
1.59022e-07
-2.69915e-07
-3.52433e-07
1.34005e-07
-2.65672e-07
-3.6062e-07
1.02423e-07
-2.59549e-07
-3.68296e-07
6.6605e-08
-2.54835e-07
-3.8369e-07
2.38184e-08
-2.45664e-07
-4.05767e-07
-1.25056e-08
-2.35164e-07
-4.3855e-07
-5.80027e-08
-2.21264e-07
-4.7739e-07
-8.64652e-08
-2.06697e-07
-4.96399e-07
-1.38773e-07
-1.99117e-07
-4.74009e-07
-1.90568e-07
-2.03486e-07
-3.32766e-07
-3.30492e-07
-2.58887e-07
-3.34673e-08
-3.9274e-07
-3.59887e-07
4.27089e-07
-2.75708e-07
-4.36106e-07
8.43971e-07
1.86712e-07
-4.41921e-07
1.25837e-06
3.90501e-07
-4.58243e-07
1.60447e-06
-8.79482e-08
-4.55464e-07
1.02754e-06
-3.58539e-07
-5.164e-07
1.07559e-06
-1.76116e-06
-1.66401e-06
8.19091e-07
-1.94163e-06
-2.02032e-06
-2.40543e-06
-7.70624e-06
1.89322e-07
-9.03694e-06
-1.1294e-05
1.09579e-07
-1.18818e-05
-6.92643e-06
-5.5331e-06
-6.25114e-06
-9.89841e-06
-9.74477e-06
-3.33743e-06
-5.11825e-06
-6.2212e-06
1.41457e-05
-1.25879e-05
-9.86194e-06
3.14198e-05
-9.21248e-06
-3.68374e-06
6.96899e-06
5.05535e-06
7.13976e-06
-2.38448e-06
-2.7762e-06
7.43112e-07
-2.10114e-05
-7.31644e-06
1.37119e-06
-3.00585e-05
1.92971e-07
4.40433e-06
-3.88033e-05
2.47283e-06
2.94702e-06
-4.12033e-05
4.83612e-06
3.11475e-06
-4.22142e-05
5.09395e-06
3.8223e-06
-4.25948e-05
4.50237e-06
4.62222e-06
-4.26306e-05
1.95276e-06
4.62542e-06
-4.2691e-05
-3.5034e-07
4.91211e-06
-4.34882e-05
-1.9438e-06
5.03629e-06
-4.53479e-05
-3.11043e-06
5.14188e-06
-4.76264e-05
-4.18588e-06
4.47462e-06
-4.90067e-05
-4.88248e-06
3.4266e-06
-4.95407e-05
-5.58711e-06
2.46225e-06
-4.95745e-05
-6.21732e-06
1.64894e-06
-4.8874e-05
-7.15119e-06
5.74447e-07
-4.75296e-05
-8.60394e-06
-6.03697e-08
-4.67761e-05
-9.70696e-06
-1.63015e-07
-4.556e-05
-1.10302e-05
-1.0277e-06
-4.445e-05
-1.25598e-05
-6.43516e-07
-4.32485e-05
-1.38337e-05
-6.49591e-07
-4.15082e-05
-1.57265e-05
2.7769e-07
-3.74841e-05
-1.63618e-05
1.20012e-06
-2.97385e-05
-1.5048e-05
2.06258e-06
-2.07093e-05
-1.14172e-05
3.13644e-06
-1.44069e-05
-5.50166e-06
4.01601e-06
-1.06304e-05
-2.59125e-06
4.01156e-06
-8.62569e-06
2.20099e-06
1.69806e-06
-6.36278e-06
5.23037e-06
-1.76359e-06
-4.09319e-06
7.53888e-06
-3.39819e-06
-3.86332e-06
1.10864e-05
-2.05331e-06
-3.44593e-06
1.28757e-05
-2.19164e-06
-2.59043e-06
1.38348e-05
-1.68624e-06
-5.09113e-08
1.3931e-05
-3.72856e-06
1.83049e-06
1.65092e-05
-5.47163e-06
2.03369e-06
2.32124e-05
-6.51631e-06
3.26423e-05
-6.67663e-06
-3.87709e-06
1.46419e-08
1.45538e-06
-1.79729e-06
-3.42035e-06
-2.59369e-06
-1.21878e-06
-1.13815e-06
-1.4315e-06
-7.11611e-07
-1.88907e-06
-2.03126e-06
-2.03312e-07
-2.30081e-06
-1.28334e-06
-3.6111e-07
-2.5935e-06
-4.7096e-07
-2.28649e-07
-2.53255e-06
-2.14823e-07
5.32685e-08
-2.2247e-06
-1.21013e-07
6.50634e-07
-1.77097e-06
-2.02858e-07
7.9631e-07
-5.04991e-07
-7.00585e-08
6.0037e-07
2.63614e-07
-6.65749e-09
3.72318e-07
3.73615e-07
-2.94991e-08
1.77583e-07
4.11708e-07
-1.21465e-07
2.6316e-08
4.59241e-07
-2.20708e-07
-8.99344e-08
5.52804e-07
-2.8507e-07
-1.80681e-07
6.19738e-07
-3.3333e-07
-2.47217e-07
6.84534e-07
-3.68609e-07
-2.96927e-07
7.1655e-07
-3.90454e-07
-3.32908e-07
7.4045e-07
-4.00616e-07
-3.59413e-07
7.4779e-07
-4.08323e-07
-3.80175e-07
7.53165e-07
-4.14692e-07
-3.97575e-07
7.51896e-07
-4.2138e-07
-4.11952e-07
7.48845e-07
-4.28397e-07
-4.24343e-07
7.44261e-07
-4.35454e-07
-4.34722e-07
7.39036e-07
-4.42654e-07
-4.43629e-07
7.33045e-07
-4.50036e-07
-4.5148e-07
7.26744e-07
-4.57481e-07
-4.58492e-07
7.19804e-07
-4.65217e-07
-4.65493e-07
7.13038e-07
-4.72837e-07
-4.71913e-07
7.0449e-07
-4.81305e-07
-4.79575e-07
6.96811e-07
-4.8933e-07
-4.87791e-07
6.86883e-07
-4.98544e-07
-4.98993e-07
6.77481e-07
-5.07241e-07
-5.11424e-07
6.63945e-07
-5.17492e-07
-5.31242e-07
6.49904e-07
-5.27646e-07
-5.62128e-07
6.36405e-07
-5.38896e-07
-6.08528e-07
6.14783e-07
-5.44545e-07
-6.70209e-07
5.93732e-07
-5.44534e-07
-7.42714e-07
5.54359e-07
-5.39833e-07
-7.9745e-07
4.98205e-07
-5.29908e-07
-7.78681e-07
3.60099e-07
-5.17613e-07
-6.35422e-07
1.63052e-07
-4.96849e-07
-3.35119e-07
-1.37977e-07
-4.92784e-07
1.17029e-07
-3.03629e-07
-5.41223e-07
7.37473e-07
-2.48575e-07
-6.47538e-07
1.31292e-06
3.10197e-07
-6.98891e-07
1.39696e-06
8.83112e-07
-5.7661e-07
1.08763e-06
8.43382e-07
-6.21951e-07
1.07639e-06
9.71307e-07
-1.31857e-06
-3.71757e-07
2.61368e-06
-2.92664e-06
-7.56963e-06
5.48444e-06
-2.28141e-07
-2.06242e-05
2.23093e-06
3.11747e-06
-3.26324e-05
-3.90896e-06
4.62332e-06
-3.66164e-05
-5.01172e-06
2.06932e-06
-4.18529e-05
-3.65939e-06
-1.00237e-06
-3.63526e-05
-8.20667e-06
-2.41171e-06
-2.09101e-05
-2.46052e-05
-3.42517e-06
-8.80995e-07
-1.81848e-05
-1.10571e-05
1.02291e-05
1.0772e-05
-1.68279e-05
-5.34688e-06
8.34565e-06
4.45476e-06
-3.7318e-05
2.00679e-05
4.58955e-06
-4.87859e-05
6.4079e-06
5.25678e-06
-5.87054e-05
9.54989e-06
2.84634e-06
-6.1912e-05
5.71385e-06
2.33316e-06
-6.13324e-05
3.17821e-06
1.34045e-06
-5.81491e-05
1.28684e-06
3.66598e-08
-5.57694e-05
2.19222e-08
-4.44477e-07
-5.29365e-05
-2.68689e-06
-4.92044e-07
-5.0955e-05
-3.79549e-06
-1.25434e-07
-5.01383e-05
-4.77214e-06
8.49462e-07
-5.08696e-05
-4.68902e-06
1.23902e-06
-5.12841e-05
-4.94922e-06
4.85746e-07
-5.16419e-05
-4.91277e-06
-3.11951e-07
-5.16466e-05
-5.04779e-06
-1.1602e-06
-5.12338e-05
-5.01588e-06
-2.5435e-06
-5.0425e-05
-5.75331e-06
-3.65489e-06
-4.97064e-05
-6.26019e-06
-4.1608e-06
-4.99019e-05
-6.93046e-06
-3.89961e-06
-5.13552e-05
-9.12611e-06
-1.97582e-06
-5.27271e-05
-1.10624e-05
-1.39478e-06
-5.42123e-05
-1.30639e-05
-1.17275e-06
-5.52118e-05
-1.5388e-05
3.03825e-08
-5.46658e-05
-1.68347e-05
1.24538e-06
-5.19987e-05
-1.7121e-05
3.04141e-06
-4.67112e-05
-1.5522e-05
4.73742e-06
-4.22998e-05
-1.25698e-05
5.57177e-06
-4.02236e-05
-5.55247e-06
5.68187e-06
-3.91995e-05
1.61252e-06
2.59847e-06
-3.59767e-05
5.54027e-06
-1.21931e-06
-3.21564e-05
1.07214e-05
-3.45041e-06
-2.79867e-05
1.41524e-05
-5.44141e-06
-2.24567e-05
1.60123e-05
-7.70253e-06
-1.78492e-05
1.85608e-05
-9.23238e-06
-1.2918e-05
2.24883e-05
-1.09057e-05
-7.2195e-06
2.8846e-05
-1.13283e-05
3.40553e-05
-8.63094e-06
-3.79573e-06
9.38185e-07
3.09742e-06
-2.08798e-06
-3.12012e-06
-2.00798e-06
-1.52266e-06
-3.02856e-08
-1.67318e-06
-1.01801e-06
-3.7575e-07
-2.01797e-06
-2.3979e-07
-1.12048e-06
-1.95855e-06
-3.16892e-07
-1.46729e-06
-1.04911e-06
-2.55629e-07
-1.99049e-06
-6.03316e-07
-1.44852e-07
-2.06824e-06
-2.67234e-07
4.43288e-07
-2.00863e-06