/*--------------------------------*- C++ -*----------------------------------*\
| =========                 |                                                 |
| \\      /  F ield         | OpenFOAM: The Open Source CFD Toolbox           |
|  \\    /   O peration     | Version:  2.3.0                                 |
|   \\  /    A nd           | Web:      www.OpenFOAM.org                      |
|    \\/     M anipulation  |                                                 |
\*---------------------------------------------------------------------------*/
FoamFile
{
    version     2.0;
    format      ascii;
    class       surfaceScalarField;
    location    "10";
    object      phi.air;
}
// * * * * * * * * * * * * * * * * * * * * * * * * * * * * * * * * * * * * * //

dimensions      [0 3 -1 0 0 0 0];

internalField   nonuniform List<scalar> 
16448
(
-1.78356e-06
-1.90379e-06
4.53043e-07
-2.02279e-07
-2.06259e-06
4.81316e-07
1.13891e-07
-1.02059e-06
7.04419e-07
3.59063e-07
-1.01166e-06
7.66492e-07
3.08704e-07
-7.16676e-07
7.67032e-07
2.68281e-07
-7.2981e-07
7.70231e-07
1.65387e-07
-6.96591e-07
7.99484e-07
7.20049e-08
-7.14364e-07
8.07744e-07
-1.25698e-08
-7.40819e-07
8.25393e-07
-6.74507e-08
-7.76934e-07
8.31814e-07
-1.00563e-07
-8.16359e-07
8.49471e-07
-9.65318e-08
-8.61468e-07
8.57436e-07
-8.85215e-08
-8.87243e-07
8.79231e-07
-6.34799e-08
-9.16408e-07
8.91365e-07
-4.65976e-08
-9.29212e-07
9.12328e-07
-2.54244e-08
-9.44982e-07
9.23808e-07
-1.34332e-08
-9.5218e-07
9.40188e-07
-2.33556e-09
-9.60186e-07
9.49087e-07
3.4681e-09
-9.66028e-07
9.60223e-07
7.16715e-09
-9.70582e-07
9.66881e-07
8.16412e-09
-9.75114e-07
9.74116e-07
7.96527e-09
-9.78634e-07
9.78832e-07
6.60581e-09
-9.82186e-07
9.83545e-07
4.67065e-09
-9.85044e-07
9.86978e-07
2.29482e-09
-9.87762e-07
9.90137e-07
-2.96078e-10
-9.90081e-07
9.9267e-07
-3.04205e-09
-9.92104e-07
9.94849e-07
-5.92874e-09
-9.93843e-07
9.96728e-07
-8.94555e-09
-9.95325e-07
9.98341e-07
-1.2149e-08
-9.96509e-07
9.99711e-07
-1.54332e-08
-9.97652e-07
1.00094e-06
-1.89685e-08
-9.98365e-07
1.0019e-06
-2.23127e-08
-9.99427e-07
1.00277e-06
-2.64237e-08
-9.9903e-07
1.00314e-06
-2.97618e-08
-1.00005e-06
1.00339e-06
-3.4315e-08
-9.98534e-07
1.00309e-06
-3.67888e-08
-1.00046e-06
1.00293e-06
-4.2126e-08
-9.9626e-07
1.0016e-06
-4.15855e-08
-1.00215e-06
1.00162e-06
-4.87123e-08
-9.9106e-07
9.98189e-07
-3.92128e-08
-1.00781e-06
9.98311e-07
-4.71717e-08
-9.84028e-07
9.91991e-07
-1.61553e-08
-1.01991e-06
9.88895e-07
-2.13705e-08
-9.78317e-07
9.83536e-07
3.77733e-08
-1.03403e-06
9.74891e-07
6.32456e-08
-9.92782e-07
9.67315e-07
1.51828e-07
-1.05144e-06
9.6286e-07
2.39195e-07
-1.02993e-06
9.42567e-07
3.33293e-07
-1.08155e-06
9.87461e-07
5.26767e-07
-1.13411e-06
9.40647e-07
6.05381e-07
-1.18108e-06
1.10248e-06
3.88814e-07
-7.45772e-07
9.62346e-07
-4.90691e-07
-5.49367e-07
1.42887e-06
-1.85997e-06
7.27977e-08
1.29648e-06
-6.14416e-07
-2.83642e-06
1.59081e-06
-1.16606e-06
-2.92447e-06
3.47611e-06
-2.14588e-06
1.1737e-06
-1.94679e-07
-3.93253e-06
1.46528e-06
3.21065e-07
-6.48129e-06
1.05575e-06
1.25267e-06
-2.86599e-05
-1.90678e-05
1.33113e-05
-6.29377e-05
-1.49264e-05
2.21611e-06
-1.78784e-05
-2.307e-06
8.08943e-07
2.23009e-05
1.52427e-06
-3.59566e-06
2.39863e-05
-1.02978e-06
-4.25912e-07
2.50655e-05
-1.49577e-07
-1.00538e-06
2.54695e-05
1.17256e-06
-1.56318e-06
2.54667e-05
1.80489e-06
-1.8033e-06
2.51698e-05
1.99449e-06
-1.72713e-06
2.45557e-05
2.07422e-06
-1.49228e-06
2.36085e-05
2.128e-06
-1.20122e-06
2.24729e-05
2.02506e-06
-9.0535e-07
2.13723e-05
1.70215e-06
-6.11639e-07
2.03872e-05
1.30989e-06
-3.3107e-07
1.94778e-05
9.79083e-07
-6.83021e-08
1.86004e-05
7.01544e-07
1.76035e-07
1.7919e-05
2.97777e-07
3.72025e-07
1.75089e-05
-1.45104e-07
5.34408e-07
1.72904e-05
-4.59709e-07
6.60884e-07
1.71506e-05
-6.45724e-07
7.85552e-07
1.6997e-05
-6.96549e-07
8.56727e-07
1.67613e-05
-6.28848e-07
8.72573e-07
1.64679e-05
-4.95906e-07
7.91149e-07
1.5916e-05
-1.70842e-07
7.2574e-07
1.51636e-05
1.1894e-07
6.28941e-07
1.39115e-05
7.49485e-07
5.03688e-07
1.19768e-05
1.34669e-06
5.84181e-07
9.55593e-06
1.83267e-06
5.92586e-07
5.68399e-06
2.79207e-06
1.13978e-06
1.24421e-06
2.81814e-06
1.92342e-06
-1.8196e-06
1.41385e-06
2.02857e-06
-3.48329e-06
4.09425e-07
1.42226e-06
-4.04226e-06
-2.70797e-07
8.8946e-07
-3.49993e-06
-9.08072e-07
3.66901e-07
-2.48945e-06
-1.6834e-06
6.56559e-07
-1.50182e-06
-2.09662e-06
1.09052e-06
-2.22216e-06
1.2841e-06
-2.58232e-06
-2.62091e-06
-2.45672e-07
-1.26653e-06
-3.04757e-06
-3.30805e-07
-7.6659e-07
-1.55358e-06
3.30492e-08
-2.87097e-07
-1.68072e-06
1.89558e-07
-1.4141e-07
-1.05982e-06
1.97456e-07
-8.28022e-08
-1.04438e-06
2.55957e-07
-1.13488e-07
-9.21231e-07
2.55323e-07
-1.69653e-07
-9.2362e-07
2.6542e-07
-2.36539e-07
-9.30657e-07
2.56722e-07
-2.6828e-07
-9.94744e-07
2.49548e-07
-2.84477e-07
-1.05396e-06
2.53796e-07
-2.57742e-07
-1.13987e-06
2.51662e-07
-2.2937e-07
-1.18251e-06
2.66891e-07
-1.84334e-07
-1.23623e-06
2.7478e-07
-1.52833e-07
-1.25462e-06
2.93905e-07
-1.18279e-07
-1.28331e-06
3.03767e-07
-9.8322e-08
-1.29187e-06
3.19734e-07
-7.84547e-08
-1.30783e-06
3.27778e-07
-6.90847e-08
-1.31409e-06
3.38687e-07
-6.01534e-08
-1.32407e-06
3.44553e-07
-5.72085e-08
-1.32953e-06
3.51474e-07
-5.46236e-08
-1.33668e-06
3.55458e-07
-5.47937e-08
-1.34165e-06
3.59633e-07
-5.54303e-08
-1.34684e-06
3.62428e-07
-5.71102e-08
-1.35101e-06
3.64924e-07
-5.91087e-08
-1.35487e-06
3.66782e-07
-6.14756e-08
-1.35807e-06
3.68334e-07
-6.40828e-08
-1.36081e-06
3.69574e-07
-6.68753e-08
-1.36309e-06
3.70558e-07
-6.9771e-08
-1.3649e-06
3.71283e-07
-7.28132e-08
-1.3664e-06
3.71788e-07
-7.61153e-08
-1.36716e-06
3.72094e-07
-7.94459e-08
-1.36838e-06
3.72289e-07
-8.31556e-08
-1.36748e-06
3.72161e-07
-8.57999e-08
-1.36885e-06
3.71449e-07
-8.95815e-08
-1.36572e-06
3.70969e-07
-9.08328e-08
-1.36859e-06
3.69386e-07
-9.41972e-08
-1.36119e-06
3.68297e-07
-9.25294e-08
-1.36974e-06
3.65926e-07
-9.57404e-08
-1.35125e-06
3.63404e-07
-8.43131e-08
-1.37799e-06
3.58759e-07
-8.66257e-08
-1.33642e-06
3.54712e-07
-4.91619e-08
-1.40026e-06
3.42895e-07
-4.72043e-08
-1.32115e-06
3.40887e-07
3.43373e-08
-1.43275e-06
3.17189e-07
6.30847e-08
-1.33316e-06
3.11643e-07
1.7964e-07
-1.46685e-06
2.98874e-07
2.83798e-07
-1.40359e-06
2.69516e-07
3.62394e-07
-1.4888e-06
3.28659e-07
4.79071e-07
-1.56993e-06
3.19152e-07
4.92041e-07
-1.65325e-06
4.59207e-07
3.9919e-07
-1.15848e-06
5.05568e-07
-5.87212e-07
-2.45439e-07
6.8248e-07
-1.63874e-06
9.11884e-07
2.1244e-07
3.71458e-07
-4.98368e-06
1.37012e-07
2.85487e-06
-6.93187e-06
1.52396e-06
-4.02843e-06
9.66501e-06
-1.60887e-06
-1.16602e-05
9.27208e-06
-1.75399e-07
-8.71249e-06
3.60662e-06
-5.72173e-06
-2.74534e-05
-3.41881e-05
6.36991e-06
-7.30079e-05
-2.29626e-05
2.85611e-06
-3.22466e-05
-6.25795e-06
-9.23196e-07
1.29309e-05
-2.59475e-06
-3.78213e-06
1.5952e-05
-1.02806e-06
-3.46769e-06
1.76656e-05
1.87652e-06
-3.49474e-06
1.94002e-05
3.20824e-06
-3.68377e-06
2.0796e-05
3.73345e-06
-3.33591e-06
2.15192e-05
3.97141e-06
-2.68302e-06
2.15316e-05
4.12325e-06
-2.01761e-06
2.10093e-05
4.12143e-06
-1.42945e-06
2.00629e-05
3.98758e-06
-1.00165e-06
1.90761e-05
3.27948e-06
-6.37768e-07
1.84135e-05
2.07687e-06
-1.64103e-07
1.76993e-05
1.35248e-06
3.32519e-07
1.69781e-05
7.30225e-07
7.16282e-07
1.60556e-05
2.88642e-07
9.61758e-07
1.50765e-05
-3.02698e-07
1.14588e-06
1.42051e-05
-9.69916e-07
1.37397e-06
1.33414e-05
-1.24914e-06
1.46335e-06
1.26614e-05
-1.3859e-06
1.36397e-06
1.21656e-05
-1.36729e-06
1.22509e-06
1.19046e-05
-1.12584e-06
8.86066e-07
1.17346e-05
-6.38884e-07
6.34562e-07
1.15596e-05
-8.02217e-09
3.09445e-07
1.11509e-05
1.07637e-06
8.57072e-08
1.00511e-05
2.26628e-06
1.68803e-07
8.3464e-06
3.32286e-06
2.12607e-07
5.68513e-06
4.50732e-06
9.76017e-07
1.99596e-06
5.04696e-06
1.73401e-06
-1.1695e-06
3.14021e-06
1.81321e-06
-3.2494e-06
1.49289e-06
1.20638e-06
-4.10512e-06
5.7935e-07
1.05515e-07
-3.7607e-06
-1.54309e-07
-1.03874e-06
-2.61379e-06
-1.37062e-06
-1.45007e-06
-1.49423e-06
-2.45313e-06
-7.64651e-07
-2.82698e-06
-2.50341e-07
-2.77877e-06
-2.56085e-06
-3.99971e-07
-1.72133e-06
-3.44079e-06
-6.64218e-07
-1.44589e-06
-1.56599e-06
-2.6303e-07
-9.44525e-07
-1.97898e-06
-2.03101e-07
-6.51473e-07
-1.15868e-06
-1.94197e-07
-4.32582e-07
-1.18904e-06
-7.42329e-08
-3.52963e-07
-9.24779e-07
-7.60732e-08
-3.25789e-07
-9.15948e-07
-3.48471e-08
-3.48161e-07
-8.6616e-07
-4.21258e-08
-3.62211e-07
-9.17725e-07
-6.29714e-08
-3.66469e-07
-9.66106e-07
-8.35968e-08
-3.28483e-07
-1.07272e-06
-1.05136e-07
-2.84062e-07
-1.12241e-06
-1.04518e-07
-2.29381e-07
-1.18838e-06
-1.02527e-07
-1.87893e-07
-1.20642e-06
-8.96926e-08
-1.48814e-07
-1.24033e-06
-8.20601e-08
-1.24259e-07
-1.24651e-06
-6.99171e-08
-1.02711e-07
-1.26529e-06
-6.40896e-08
-9.12352e-08
-1.26949e-06
-5.60749e-08
-8.17131e-08
-1.28088e-06
-5.27092e-08
-7.79148e-08
-1.2851e-06
-4.82348e-08
-7.49941e-08
-1.29291e-06
-4.66954e-08
-7.48605e-08
-1.29719e-06
-4.46005e-08
-7.53754e-08
-1.30234e-06
-4.39815e-08
-7.69112e-08
-1.30601e-06
-4.34611e-08
-7.88361e-08
-1.30939e-06
-4.35468e-08
-8.11682e-08
-1.3119e-06
-4.38384e-08
-8.3781e-08
-1.31381e-06
-4.43839e-08
-8.66373e-08
-1.31514e-06
-4.50911e-08
-8.96299e-08
-1.31593e-06
-4.59785e-08
-9.27532e-08
-1.31626e-06
-4.70175e-08
-9.61039e-08
-1.31568e-06
-4.81242e-08
-9.97368e-08
-1.31549e-06
-4.92554e-08
-1.03252e-07
-1.31317e-06
-5.07912e-08
-1.06539e-07
-1.31324e-06
-5.23214e-08
-1.10214e-07
-1.30814e-06
-5.39044e-08
-1.12725e-07
-1.30975e-06
-5.63187e-08
-1.15718e-07
-1.30006e-06
-5.81348e-08
-1.16893e-07
-1.30753e-06
-6.10351e-08
-1.19839e-07
-1.28495e-06
-6.33489e-08
-1.13616e-07
-1.31502e-06
-6.91833e-08
-1.16649e-07
-1.26228e-06
-7.11016e-08
-8.6377e-08
-1.34353e-06
-8.69941e-08
-9.35183e-08
-1.23219e-06
-8.18132e-08
-4.66812e-09
-1.40243e-06
-1.19156e-07
-3.8654e-08
-1.19892e-06
-1.00246e-07
1.05248e-07
-1.4796e-06
-1.31144e-07
-1.69646e-08
-1.16267e-06
-1.18695e-07
1.26716e-07
-1.59196e-06
-4.05048e-08
-3.12316e-07
-1.13451e-06
3.62407e-09
-1.40937e-07
-1.95358e-06
1.28972e-07
-4.14987e-07
-1.07178e-06
1.87368e-07
-2.7593e-07
-1.3415e-07
-2.50335e-07
4.88776e-07
7.87254e-07
-6.40077e-07
1.50152e-06
-6.63771e-06
6.41208e-07
-4.58615e-07
-7.13937e-06
2.16763e-06
4.53999e-06
7.93387e-06
-3.26849e-06
-2.28086e-07
1.4705e-05
-6.64676e-07
-3.33929e-06
1.02359e-05
-3.77139e-06
-2.83318e-05
-3.88445e-05
2.39424e-06
-7.80977e-05
-3.47048e-05
6.16109e-06
-3.7088e-05
-1.5556e-05
1.83639e-06
1.31235e-05
-1.42355e-05
-2.77227e-06
1.41149e-05
6.44648e-07
-3.05168e-06
1.51116e-05
4.04877e-06
-2.98235e-06
1.64565e-05
4.60187e-06
-2.82283e-06
1.71578e-05
5.3573e-06
-2.4536e-06
1.7263e-05
5.50808e-06
-1.71142e-06
1.70189e-05
5.0473e-06
-7.322e-07
1.62255e-05
4.63601e-06
2.58521e-07
1.51393e-05
4.08772e-06
1.02546e-06
1.39193e-05
2.89665e-06
1.65177e-06
1.22279e-05
1.51798e-06
2.2893e-06
9.87445e-06
9.94171e-07
2.76037e-06
6.76143e-06
6.6063e-07
3.18419e-06
3.36642e-06
1.38166e-07
3.51818e-06
1.79196e-07
-6.04796e-07
3.45179e-06
-1.92883e-06
-1.61805e-06
2.73574e-06
-2.54329e-06
-2.4146e-06
1.77815e-06
-2.18343e-06
-2.81017e-06
1.07235e-06
-1.12159e-06
-2.80751e-06
3.99346e-07
3.18911e-07
-2.36349e-06
-1.77665e-07
1.86719e-06
-1.54891e-06
-6.25289e-07
3.34832e-06
-4.60236e-07
-1.02071e-06
4.58452e-06
9.45694e-07
-1.09353e-06
5.10177e-06
2.59805e-06
-8.44286e-07
4.75639e-06
4.26853e-06
-5.59165e-07
3.01471e-06
5.88798e-06
4.59722e-07
3.07011e-07
6.06764e-06
1.92135e-06
-1.91152e-06
3.72093e-06
1.92834e-06
-3.43593e-06
1.75316e-06
1.43991e-06
-4.07359e-06
1.00313e-06
3.53083e-07
-3.52099e-06
7.65044e-07
-1.35523e-06
-2.30805e-06
-1.28614e-07
-2.39973e-06
-1.28652e-06
-1.58218e-06
-1.88147e-06
-2.38011e-06
-1.03832e-06
-2.57734e-06
-2.22571e-06
-2.41301e-07
-1.59569e-06
-3.70832e-06
-7.14125e-07
-1.62404e-06
-1.33895e-06
-1.98688e-07
-1.21186e-06
-2.25578e-06
-1.35384e-07
-1.01313e-06
-1.20274e-06
-1.54666e-07
-7.63512e-07
-1.40091e-06
-3.77394e-08
-6.21752e-07
-9.4753e-07
-1.1901e-07
-5.32104e-07
-9.18471e-07
-8.71261e-08
-5.23866e-07
-7.48652e-07
-1.25748e-07
-5.24642e-07
-7.54238e-07
-1.62712e-07
-5.17464e-07
-7.55232e-07
-2.18053e-07
-4.68728e-07
-8.55385e-07
-2.6607e-07
-4.02484e-07
-8.98102e-07
-2.90558e-07
-3.34239e-07
-9.55929e-07
-3.00701e-07
-2.7659e-07
-9.63839e-07
-3.00229e-07
-2.30061e-07
-9.89571e-07
-2.97287e-07
-1.9728e-07
-9.8786e-07
-2.91436e-07
-1.72577e-07
-1.00216e-06
-2.87839e-07
-1.57178e-07
-1.00141e-06
-2.83487e-07
-1.46008e-07
-1.01026e-06
-2.81797e-07
-1.40019e-07
-1.0114e-06
-2.79692e-07
-1.36065e-07
-1.01744e-06
-2.79422e-07
-1.34853e-07
-1.01959e-06
-2.78807e-07
-1.34731e-07
-1.02324e-06
-2.79223e-07
-1.35657e-07
-1.02538e-06
-2.79704e-07
-1.37203e-07
-1.02726e-06
-2.80587e-07
-1.39252e-07
-1.02829e-06
-2.81562e-07
-1.41655e-07
-1.02882e-06
-2.8259e-07
-1.44337e-07
-1.02885e-06
-2.83608e-07
-1.47218e-07
-1.0284e-06
-2.84646e-07
-1.50344e-07
-1.02742e-06
-2.85714e-07
-1.5364e-07
-1.02559e-06
-2.86797e-07
-1.57551e-07
-1.02376e-06
-2.8782e-07
-1.6095e-07
-1.02045e-06
-2.89322e-07
-1.6476e-07
-1.01888e-06
-2.90545e-07
-1.6812e-07
-1.01277e-06
-2.92003e-07
-1.71735e-07
-1.01302e-06
-2.93117e-07
-1.74203e-07
-1.00341e-06
-2.94177e-07
-1.78405e-07
-1.0079e-06
-2.95419e-07
-1.79013e-07
-9.87955e-07
-2.96376e-07
-1.80399e-07
-1.01391e-06
-2.99712e-07
-1.77158e-07
-9.65952e-07
-2.99557e-07
-1.61889e-07
-1.04804e-06
-3.1075e-07
-1.57692e-07
-9.34557e-07
-3.01816e-07
-1.03827e-07
-1.12703e-06
-3.29255e-07
-1.32903e-07
-8.75021e-07
-2.94806e-07
-5.84964e-08
-1.24529e-06
-3.08706e-07
-2.25754e-07
-7.5505e-07
-2.40344e-07
-3.89125e-07
-1.34698e-06
-8.15889e-08
-7.58307e-07
-6.64633e-07
-1.00674e-07
-1.22376e-06
-1.70193e-06
2.13812e-07
-1.12597e-06
-1.02907e-06
-1.40476e-07
-9.0363e-07
1.17349e-07
-4.73828e-07
-5.59406e-07
9.47894e-07
-5.0487e-07
-3.77437e-06
-4.63938e-06
1.21657e-06
-8.62059e-06
-3.01376e-06
7.20638e-07
3.4892e-06
-6.2577e-07
-3.5511e-06
3.32177e-06
1.92423e-05
-4.36966e-06
1.7342e-06
1.19518e-05
-3.70328e-07
-2.33412e-05
-3.84881e-05
-8.98846e-07
-3.67175e-05
-3.83484e-05
6.41092e-06
-5.77266e-06
-1.39069e-05
2.72111e-06
-3.14627e-06
-1.41286e-05
1.348e-07
-9.32868e-07
1.64267e-06
-4.13048e-06
7.76845e-06
1.19891e-06
-5.70783e-06
9.86899e-06
5.24405e-06
-3.20681e-06
1.07462e-05
5.16276e-06
-9.92763e-07
1.0756e-05
4.97581e-06
6.4415e-07
9.54008e-06
4.6175e-06
2.0019e-06
6.98708e-06
4.56776e-06
2.96372e-06
2.29559e-06
4.54637e-06
4.91696e-06
-5.00965e-06
3.9133e-06
6.39715e-06
-1.16561e-05
2.39491e-06
5.28891e-06
-1.54735e-05
9.34099e-07
3.39399e-06
-1.73544e-05
-3.55479e-07
2.42206e-06
-1.77929e-05
-1.23137e-06
1.59266e-06
-1.71924e-05
-2.25923e-06
9.85375e-07
-1.58973e-05
-3.26349e-06
3.10138e-07
-1.42205e-05
-3.71669e-06
-2.39581e-07
-1.23208e-05
-3.91045e-06
-6.93347e-07
-1.02566e-05
-3.82983e-06
-1.042e-06
-8.04203e-06
-3.37972e-06
-1.2973e-06
-5.8453e-06
-2.30318e-06
-1.4345e-06
-3.83669e-06
-1.08206e-06
-1.39433e-06
-2.25286e-06
5.37026e-07
-1.18628e-06
-1.32014e-06
2.3761e-06
-7.33588e-07
-1.40539e-06
4.22662e-06
1.44617e-07
-2.63143e-06
5.57476e-06
1.6703e-06
-3.18909e-06
4.36408e-06
2.46876e-06
-3.60082e-06
2.21573e-06
2.11191e-06
-4.4814e-06
1.18571e-06
1.58135e-06
-4.56196e-06
1.03165e-06
2.11954e-07
-3.57007e-06
1.39648e-06
-1.44328e-06
-2.02076e-06
1.14432e-06
-2.65912e-06
-9.23509e-07
-1.25648e-07
-2.48665e-06
-9.58583e-07
-1.60155e-06
-2.3753e-06
-1.92312e-06
2.00102e-07
-1.34357e-06
-3.98539e-06
-7.54661e-07
-1.53958e-06
-1.28517e-06
1.4222e-07
-1.17209e-06
-2.70155e-06
7.82897e-08
-9.81001e-07
-1.53794e-06
1.44105e-07
-7.23806e-07
-1.85427e-06
1.9616e-07
-5.61503e-07
-1.16795e-06
5.81182e-08
-4.65747e-07
-1.07504e-06
6.08134e-08
-4.79833e-07
-7.11739e-07
-2.28275e-08
-5.23865e-07
-6.22932e-07
-8.7276e-08
-5.55574e-07
-5.29949e-07
-1.93575e-07
-5.26409e-07
-6.03455e-07
-2.81097e-07
-4.66804e-07
-6.10305e-07
-3.47403e-07
-4.02927e-07
-6.35201e-07
-3.84607e-07
-3.41536e-07
-6.1969e-07
-4.05542e-07
-2.95466e-07
-6.22077e-07
-4.13566e-07
-2.58636e-07
-6.0719e-07
-4.17502e-07
-2.33915e-07
-6.08824e-07
-4.1806e-07
-2.15749e-07
-6.01276e-07
-4.18297e-07
-2.04472e-07
-6.03823e-07
-4.17714e-07
-1.96572e-07
-6.01824e-07
-4.17476e-07
-1.92184e-07
-6.04738e-07
-4.17092e-07
-1.89706e-07
-6.05241e-07
-4.16831e-07
-1.8864e-07
-6.07425e-07
-4.16887e-07
-1.8863e-07
-6.08586e-07
-4.1681e-07
-1.89664e-07
-6.0989e-07
-4.16341e-07
-1.91444e-07
-6.10979e-07
-4.15535e-07
-1.93645e-07
-6.11791e-07
-4.14831e-07
-1.96077e-07
-6.12331e-07
-4.1409e-07
-1.9864e-07
-6.12582e-07
-4.13252e-07
-2.01363e-07
-6.12403e-07
-4.1229e-07
-2.04018e-07
-6.11683e-07
-4.11248e-07
-2.07166e-07
-6.1059e-07
-4.10021e-07
-2.09855e-07
-6.08984e-07
-4.08774e-07
-2.13271e-07
-6.08529e-07
-4.06934e-07
-2.16189e-07
-6.04788e-07
-4.05061e-07
-2.19971e-07
-6.0644e-07
-4.02792e-07
-2.22234e-07
-6.01212e-07
-3.99927e-07
-2.26913e-07
-6.0717e-07
-3.96044e-07
-2.26094e-07
-5.96555e-07
-3.92213e-07
-2.30445e-07
-6.21298e-07
-3.88256e-07
-2.23755e-07
-5.90226e-07
-3.82408e-07
-2.21544e-07
-6.6958e-07
-3.80653e-07
-2.11244e-07
-5.80231e-07
-3.64614e-07
-2.15374e-07
-7.64638e-07
-3.58249e-07
-2.31951e-07
-5.38016e-07
-3.20413e-07
-3.81966e-07
-8.47405e-07
-2.4785e-07
-5.4109e-07
-3.89717e-07
-2.06191e-07
-1.19437e-06
-7.72567e-07
7.88864e-08
-1.53416e-06
-2.49652e-07
-7.51706e-08
-2.35199e-06
-1.08509e-06
2.01007e-07
-2.27073e-06
-8.60666e-07
-2.49644e-07
-3.00693e-07
-1.19784e-06
-6.54829e-07
4.4367e-08
1.44222e-06
-8.39384e-07
2.41661e-06
-5.03467e-06
-1.97705e-06
3.49028e-06
-1.34045e-06
-2.74698e-06
1.02783e-05
-1.97097e-06
-5.44345e-06
1.18043e-05
2.50093e-05
-7.29292e-06
1.4374e-05
-2.71232e-06
1.11587e-05
-3.57826e-05
-2.72973e-05
1.67023e-06
-0.000112531
-3.73696e-05
5.63667e-06
-0.000110918
-1.24072e-05
2.71496e-06
-0.000110384
-1.20502e-05
1.20158e-07
-0.000106093
-1.28426e-06
-7.40401e-07
-0.000101579
2.72073e-07
1.65519e-07
-0.000101791
4.50812e-06
2.68138e-06
-0.000105858
4.75168e-06
4.53845e-06
-0.000113089
5.72761e-06
5.5204e-06
-0.000120651
5.86394e-06
5.6445e-06
-0.000126716
5.73643e-06
4.72991e-06
-0.000131589
4.90188e-06
3.78107e-06
-0.000134442
3.84665e-06
2.84904e-06
-0.000133804
2.15373e-06
1.87815e-06
-0.000126672
8.86528e-07
1.01905e-06
-0.000113264
-4.9917e-07
2.44682e-07
-0.000120867
-1.47448e-06
-3.21075e-07
-0.000134373
-2.51289e-06
-6.15304e-07
-0.000129808
-3.53631e-06
-7.70616e-07
-0.000117806
-4.13734e-06
-7.19528e-07
-9.27938e-05
-4.74064e-06
-5.37956e-07
-6.88071e-05
-4.95731e-06
-3.3798e-07
-3.9895e-05
-4.80624e-06
-1.99178e-08
-1.6816e-05
-5.10849e-06
1.35587e-08
-1.44869e-05
-4.25734e-06
4.17108e-07
-1.24338e-05
-3.16454e-06
1.01008e-06
-1.07395e-05
-1.42339e-06
1.57548e-06
-9.11952e-06
-2.06633e-07
2.20224e-06
-7.41742e-06
1.39137e-06
2.64122e-06
-6.18411e-06
7.64664e-07
2.45186e-06
-5.8943e-06
9.94565e-08
1.91879e-06
-5.82395e-06
1.96907e-08
1.20732e-06
-5.23587e-06
6.63831e-07
-6.19286e-08
-3.82643e-06
1.64342e-06
-1.45599e-06
-2.0102e-06
2.04445e-06
-2.51235e-06
-8.55121e-07
1.08961e-06
-2.28537e-06
1.51865e-07
-1.16848e-06
-2.50579e-06
-1.55521e-06
7.73377e-07
-1.48001e-06
-4.02196e-06
-9.89198e-07
-1.76995e-06
-1.55387e-06
5.5863e-07
-1.32781e-06
-3.24253e-06
9.88329e-08
-1.07118e-06
-2.30415e-06
5.09579e-07
-6.76665e-07
-2.62752e-06
3.78731e-07
-2.95324e-07
-1.85385e-06
3.04561e-07
-1.34652e-07
-1.5352e-06
2.99481e-07
-1.08252e-07
-9.34786e-07
1.96646e-07
-2.46806e-07
-6.12395e-07
1.28016e-07
-3.77345e-07
-3.75461e-07
-2.39514e-08
-4.29448e-07
-4.02866e-07
-1.48487e-07
-4.24611e-07
-3.56316e-07
-2.58828e-07
-3.91808e-07
-3.42939e-07
-3.25067e-07
-3.54289e-07
-2.87024e-07
-3.70187e-07
-3.21074e-07
-2.59221e-07
-3.96073e-07
-2.93232e-07
-2.19169e-07
-4.15864e-07
-2.73362e-07
-2.01921e-07
-4.26775e-07
-2.58654e-07
-1.80531e-07
-4.35455e-07
-2.50119e-07
-1.73687e-07
-4.38673e-07
-2.43543e-07
-1.67109e-07
-4.41292e-07
-2.40202e-07
-1.67023e-07
-4.41058e-07
-2.38177e-07
-1.66942e-07
-4.40327e-07
-2.37792e-07
-1.69809e-07
-4.38e-07
-2.38712e-07
-1.7266e-07
-4.35009e-07
-2.40598e-07
-1.76415e-07
-4.31588e-07
-2.43025e-07
-1.80701e-07
-4.27853e-07
-2.45743e-07
-1.85513e-07
-4.23558e-07
-2.48575e-07
-1.90711e-07
-4.1879e-07
-2.51466e-07
-1.96007e-07
-4.13682e-07
-2.54477e-07
-2.01228e-07
-4.08164e-07
-2.57385e-07
-2.06452e-07
-4.02321e-07
-2.60993e-07
-2.11145e-07
-3.95838e-07
-2.64201e-07
-2.16251e-07
-3.89519e-07
-2.68748e-07
-2.2116e-07
-3.8282e-07
-2.73196e-07
-2.23711e-07
-3.76623e-07
-2.79635e-07
-2.30209e-07
-3.69789e-07
-2.85306e-07
-2.31981e-07
-3.63552e-07
-2.9258e-07
-2.43752e-07
-3.56138e-07
-2.95316e-07
-2.43519e-07
-3.50291e-07
-3.05651e-07
-2.69072e-07
-3.41884e-07
-3.04003e-07
-2.55566e-07
-3.36296e-07
-3.26164e-07
-3.23655e-07
-3.23754e-07
-3.2506e-07
-2.65019e-07
-3.16301e-07
-4.08752e-07
-4.02764e-07
-2.78168e-07
-4.50208e-07
-2.3193e-07
-2.64615e-07
-7.77022e-07
-3.83308e-07
-1.37265e-07
-9.61275e-07
-4.01334e-08
-1.65311e-07
-1.77964e-06
-9.2246e-08
1.3807e-07
-2.07901e-06
1.63934e-07
-1.14195e-07
-2.77662e-06
-3.94172e-07
6.72057e-09
-2.52917e-06
-8.61321e-07
-2.46779e-07
-1.50815e-07
-3.02129e-06
-5.54892e-07
2.13165e-06
1.97197e-07
-1.03745e-06
7.36439e-08
6.90082e-07
-3.66685e-06
-2.44739e-06
5.79953e-06
-4.61895e-06
7.68079e-06
-3.20102e-06
-8.89844e-06
2.26449e-05
1.80919e-05
-8.04671e-06
1.28669e-05
-1.44703e-05
1.88313e-05
-4.5099e-05
-1.63755e-05
2.15195e-06
-0.000120151
-3.22105e-05
7.94601e-06
-0.000122268
-1.09258e-05
4.23623e-06
-0.000117864
-1.04266e-05
1.39327e-06
-0.000126547
-2.07831e-06
3.77152e-07
-0.000139569
1.9314e-07
1.7708e-06
-0.000142224
4.3286e-06
2.80084e-06
-0.000143396
5.36504e-06
3.43094e-06
-0.000145174
6.31278e-06
3.44644e-06
-0.00014265
6.41712e-06
3.09311e-06
-0.000138856
6.30122e-06
2.2917e-06
-0.000135376
5.58934e-06
1.48897e-06
-0.000138946
4.93577e-06
5.49297e-07
-0.000152964
3.44809e-06
1.07083e-08
-0.00015879
2.24858e-06
-5.08679e-07
-0.000157873
8.43037e-07
-9.58994e-07
-0.000157397
-5.90929e-07
-1.05005e-06
-0.000156724
-1.99629e-06
-1.13211e-06
-0.000156676
-3.31899e-06
-9.90573e-07
-0.000154658
-4.95114e-06
-8.50314e-07
-0.000151015
-6.07204e-06
-5.96576e-07
-0.000147744
-6.70616e-06
-2.15885e-07
-0.000138382
-7.10026e-06
9.32172e-09
-0.000130226
-7.24454e-06
2.71464e-07
-0.000103661
-6.59419e-06
7.34044e-07
-0.000104204
-5.67534e-06
9.50534e-07
-0.000113179
-4.43056e-06
1.45329e-06
-5.48647e-05
-3.10738e-06
1.4899e-06
-1.08739e-05
-2.93205e-06
1.185e-06
-8.4199e-06
-2.08926e-06
1.06657e-06
-7.05729e-06
-9.98429e-07
4.97227e-07
-6.10049e-06
6.09072e-08
-1.61145e-07
-5.03515e-06
1.5193e-06
-9.24287e-07
-3.2174e-06
2.52329e-06
-1.8367e-06
-1.07579e-06
3.17012e-06
-2.56109e-06
-3.28804e-08
2.39979e-06
-2.36128e-06
2.49194e-06
-1.52544e-06
-3.00391e-06
-9.88336e-07
1.31615e-06
-1.94441e-06
-3.65131e-06
-1.43015e-06
-2.19973e-06
-1.66047e-06
3.61921e-07
-1.64003e-06
-3.26469e-06
-5.37534e-07
-1.33637e-06
-2.84672e-06
2.38906e-07
-8.69008e-07
-3.07131e-06
-2.35733e-08
-4.10115e-07
-2.46526e-06
1.52515e-07
-2.16601e-08
-2.02243e-06
9.87782e-08
2.56898e-07
-1.30497e-06
9.16201e-08
1.44982e-07
-6.10871e-07
1.10388e-07
-3.18045e-08
-2.40944e-07
4.2268e-08
-1.73489e-07
-2.05436e-07
-5.57482e-08
-2.4489e-07
-1.33228e-07
-1.51688e-07
-2.70922e-07
-9.6151e-08
-2.20758e-07
-2.81647e-07
-8.05587e-09
-2.68244e-07
-2.82995e-07
4.16946e-08
-2.9957e-07
-2.85534e-07
1.03107e-07
-3.19738e-07
-2.85129e-07
1.32782e-07
-3.35111e-07
-2.86054e-07
1.65273e-07
-3.4488e-07
-2.8705e-07
1.7651e-07
-3.49203e-07
-2.88906e-07
1.86034e-07
-3.51289e-07
-2.91432e-07
1.86394e-07
-3.50893e-07
-2.93767e-07
1.85395e-07
-3.50003e-07
-2.96367e-07
1.80551e-07
-3.47762e-07
-2.99152e-07
1.74989e-07
-3.44863e-07
-3.01977e-07
1.67838e-07
-3.4143e-07
-3.05292e-07
1.60064e-07
-3.3745e-07
-3.09196e-07
1.51349e-07
-3.3296e-07
-3.13314e-07
1.42182e-07
-3.28773e-07
-3.17426e-07
1.3294e-07
-3.24836e-07
-3.21957e-07
1.23996e-07
-3.20691e-07
-3.26881e-07
1.15076e-07
-3.16603e-07
-3.32742e-07
1.06726e-07
-3.12005e-07
-3.38314e-07
9.7281e-08
-3.07959e-07
-3.4592e-07
8.91672e-08
-3.02716e-07
-3.53475e-07
8.2153e-08
-2.98306e-07
-3.63955e-07
7.28615e-08
-2.92584e-07
-3.74096e-07
6.688e-08
-2.88714e-07
-3.85734e-07
5.27797e-08
-2.84885e-07
-3.95198e-07
4.80861e-08
-2.82133e-07
-4.15842e-07
2.61283e-08
-2.74545e-07
-4.2651e-07
2.77968e-08
-2.72684e-07
-4.77297e-07
-1.87792e-08
-2.54074e-07
-4.9616e-07
1.34606e-08
-2.59604e-07
-6.39236e-07
-5.55068e-08
-2.04166e-07
-6.89074e-07
4.8503e-08
-2.30579e-07
-1.04056e-06
6.9442e-08
-1.01248e-07
-1.1573e-06
2.65365e-07
-1.88741e-07
-1.80594e-06
5.64833e-07
-8.41561e-09
-1.8641e-06
4.97063e-07
-2.74949e-07
-2.1779e-06
3.81872e-07
-4.62226e-07
-1.86411e-06
-5.94629e-07
-5.8046e-07
-1.59231e-06
-2.73842e-06
-5.54658e-07
7.62802e-07
-1.90013e-06
-2.57783e-07
1.38605e-06
4.32385e-06
-4.25714e-06
5.97748e-06
1.01089e-05
-8.90089e-06
1.32e-05
5.56321e-07
-1.098e-05
3.33784e-05
5.24807e-06
-7.33434e-06
5.02906e-07
-1.11515e-05
2.27408e-05
-7.6176e-05
-6.07507e-06
2.38438e-06
-0.000148009
-1.31705e-05
9.50487e-06
-0.00015006
-4.91849e-06
4.61773e-06
-0.000154666
-3.68205e-06
1.20846e-06
-0.000148019
-1.2365e-08
9.71676e-08
-0.000152731
1.65718e-06
7.59351e-07
-0.000171073
4.45397e-06
1.24933e-06
-0.000163993
5.94031e-06
1.36163e-06
-0.00016585
6.4906e-06
1.34261e-06
-0.000169536
6.8969e-06
9.07542e-07
-0.000164685
6.8462e-06
5.95884e-07
-0.000167741
6.3209e-06
6.56981e-08
-0.000173887
5.51853e-06
-6.88896e-07
-0.000173314
4.21896e-06
-8.60788e-07
-0.000172821
2.70349e-06
-1.14036e-06
-0.000174596
1.13747e-06
-1.18555e-06
-0.000175837
-5.91897e-07
-1.26094e-06
-0.000172996
-2.16871e-06
-1.21407e-06
-0.000169117
-3.77828e-06
-1.06676e-06
-0.000170629
-5.65909e-06
-9.44e-07
-0.000168826
-6.92246e-06
-7.91536e-07
-0.00017036
-7.82542e-06
-7.62999e-07
-0.000167952
-8.56336e-06
-7.34817e-07
-0.000162343
-9.02133e-06
-8.3281e-07
-0.000160838
-8.8275e-06
-8.35199e-07
-0.00015726
-8.28594e-06
-8.39009e-07
-0.000152315
-7.786e-06
-7.66296e-07
-0.000131298
-6.82377e-06
-6.54702e-07
-0.000102762
-6.05262e-06
-6.86479e-07
-0.000120179
-5.34728e-06
-7.39207e-07
-0.000143337
-3.19788e-06
-5.44859e-07
-0.000136532
-1.48455e-06
-6.47342e-07
-0.000133334
3.04831e-07
-8.18035e-07
-0.000124482
1.60081e-06
-1.18174e-06
-6.04737e-05
3.11083e-06
-1.3423e-06
-1.13364e-06
2.77396e-06
-1.35882e-06
4.69165e-06
-9.88357e-07
-3.52554e-06
1.579e-07
1.49638e-06
-2.24428e-06
-2.87068e-06
-2.06189e-06
-2.25631e-06
-1.19109e-06
-4.57356e-07
-1.62854e-06
-2.28518e-06
-1.60728e-06
-1.19307e-06
-2.62749e-06
-6.54697e-07
-8.98813e-07
-2.88159e-06
-4.83973e-07
-5.59996e-07
-2.63114e-06
-1.72939e-07
-6.03826e-08
-2.2634e-06
-2.58643e-07
4.72722e-07
-1.66605e-06
-1.72019e-07
5.10825e-07
-5.93049e-07
-5.59275e-08
3.31628e-07
-2.1575e-08
-4.01738e-08
1.48236e-07
9.82479e-08
-1.20294e-07
1.52311e-08
2.13294e-07
-2.13519e-07
-8.8064e-08
2.99986e-07
-2.92843e-07
-1.65498e-07
4.15213e-07
-3.45837e-07
-2.18146e-07
4.76481e-07
-3.8214e-07
-2.58348e-07
5.38564e-07
-3.95257e-07
-2.94825e-07
5.6713e-07
-3.97872e-07
-3.23902e-07
6.00081e-07
-4.05733e-07
-3.45533e-07
6.14451e-07
-4.16311e-07
-3.63546e-07
6.28944e-07
-4.24899e-07
-3.7864e-07
6.34454e-07
-4.32966e-07
-3.90968e-07
6.38207e-07
-4.40487e-07
-4.01901e-07
6.38934e-07
-4.47449e-07
-4.11785e-07
6.38913e-07
-4.54042e-07
-4.21111e-07
6.37554e-07
-4.6039e-07
-4.30516e-07
6.35981e-07
-4.66513e-07
-4.38974e-07
6.34971e-07
-4.75162e-07
-4.45925e-07
6.34492e-07
-4.8536e-07
-4.52155e-07
6.34016e-07
-4.94843e-07
-4.58141e-07
6.33413e-07
-5.03432e-07
-4.63902e-07
6.32151e-07
-5.11311e-07
-4.7056e-07
6.31502e-07
-5.18117e-07
-4.76797e-07
6.29214e-07
-5.2569e-07
-4.84586e-07
6.28968e-07
-5.32008e-07
-4.91581e-07
6.28494e-07
-5.39339e-07
-5.04204e-07
6.30088e-07
-5.44599e-07
-5.19025e-07
6.33592e-07
-5.51882e-07
-5.39814e-07
6.32936e-07
-5.5936e-07
-5.59155e-07
6.36977e-07
-5.69539e-07
-5.91146e-07
6.31486e-07
-5.73357e-07
-6.20367e-07
6.37203e-07
-5.80171e-07
-6.99795e-07
6.26619e-07
-5.65956e-07
-7.49658e-07
6.46929e-07
-5.8359e-07
-9.43372e-07
6.61027e-07
-5.22805e-07
-1.00933e-06
6.91714e-07
-5.77233e-07
-1.32239e-06
8.32074e-07
-4.49561e-07
-1.25823e-06
7.82357e-07
-5.81134e-07
-1.43886e-06
1.25513e-06
-5.09647e-07
-1.02584e-06
8.07882e-07
-7.23824e-07
-3.89614e-07
1.22547e-06
-1.47981e-06
-9.67676e-08
5.27377e-07
-1.41484e-06
-9.91834e-07
-3.67674e-07
-1.47568e-06
-1.4143e-06
-5.57323e-07
-9.2034e-07
1.0919e-06
3.18796e-06
-1.37039e-06
1.04433e-05
7.39361e-06
-6.6362e-06
1.328e-05
1.00003e-05
-1.22808e-05
3.28506e-05
-1.14315e-06
-1.31793e-05
-1.58067e-06
-9.30499e-06
2.30521e-05
-9.75688e-05
8.70284e-06
4.15167e-06
-0.000179136
1.5126e-05
1.41357e-05
-0.000193727
6.55791e-06
6.09462e-06
-0.000201227
6.29845e-06
1.15561e-06
-0.000205066
4.79031e-06
-3.07007e-08
-0.000204359
4.99481e-06
-5.94526e-07
-0.000207754
5.88699e-06
-3.10737e-07
-0.000215841
7.28474e-06
-3.35338e-07
-0.00021501
7.57489e-06
-4.32285e-07
-0.000212578
8.0752e-06
-9.70232e-07
-0.000214089
7.91041e-06
-1.22052e-06
-0.000213113
7.41927e-06
-1.78011e-06
-0.000212492
6.55016e-06
-2.39256e-06
-0.000211858
5.14033e-06
-2.58939e-06
-0.000210108
3.30013e-06
-2.74577e-06
-0.000208399
1.95743e-06
-2.80921e-06
-0.000207104
9.72454e-08
-2.71444e-06
-0.000206762
-1.72861e-06
-2.45859e-06
-0.000205473
-3.5606e-06
-2.01935e-06
-0.000203433
-5.12697e-06
-1.54813e-06
-0.000201066
-6.43722e-06
-1.18225e-06
-0.000193319
-7.43176e-06
-9.74215e-07
-0.000177459
-8.06679e-06
-9.98003e-07
-0.000179913
-8.20397e-06
-1.19577e-06
-0.000194763
-8.13903e-06
-1.76268e-06
-0.000191337
-7.9727e-06
-2.39008e-06
-0.000188262
-7.65253e-06
-2.71266e-06
-0.000189306
-7.39821e-06
-2.85969e-06
-0.000185793
-7.32505e-06
-2.69636e-06
-0.000185953
-7.3445e-06
-2.20386e-06
-0.000180808
-6.76278e-06
-1.37829e-06
-0.000167669
-5.64461e-06
-6.25885e-07
-0.000140756
-3.83657e-06
-1.93872e-07
-6.45469e-05
-2.66536e-06
2.80227e-07
-5.0046e-06
-2.87832e-06
1.09653e-06
-2.00079e-05
-1.91475e-06
2.71911e-06
-1.33907e-06
6.77162e-06
-3.97232e-06
1.37448e-06
2.93791e-06
-2.41664e-06
-2.50112e-06
-1.92523e-06
-2.1842e-06
-1.56125e-07
-1.2674e-06
-1.6011e-06
-8.85575e-07
-1.98271e-06
-1.02319e-06
-1.69503e-06
-1.51037e-06
-8.59711e-07
-2.12604e-06
-9.19021e-07
-6.51182e-07