/*--------------------------------*- C++ -*----------------------------------*\
| =========                 |                                                 |
| \\      /  F ield         | OpenFOAM: The Open Source CFD Toolbox           |
|  \\    /   O peration     | Version:  2.3.0                                 |
|   \\  /    A nd           | Web:      www.OpenFOAM.org                      |
|    \\/     M anipulation  |                                                 |
\*---------------------------------------------------------------------------*/
FoamFile
{
    version     2.0;
    format      ascii;
    class       surfaceScalarField;
    location    "10";
    object      phi.water;
}
// * * * * * * * * * * * * * * * * * * * * * * * * * * * * * * * * * * * * * //

dimensions      [0 3 -1 0 0 0 0];

internalField   nonuniform List<scalar> 
16448
(
-1.69943e-06
-1.90373e-06
4.53045e-07
-1.16106e-07
-2.06242e-06
4.81353e-07
2.0169e-07
-1.02042e-06
7.04437e-07
4.46997e-07
-1.01166e-06
7.66497e-07
3.97304e-07
-7.16681e-07
7.67102e-07
3.56762e-07
-7.29834e-07
7.70333e-07
2.5411e-07
-6.96612e-07
7.99591e-07
1.60723e-07
-7.14374e-07
8.0787e-07
7.62754e-08
-7.4082e-07
8.25497e-07
2.14329e-08
-7.76942e-07
8.31908e-07
-1.15343e-08
-8.16364e-07
8.49556e-07
-7.50204e-09
-8.61485e-07
8.5752e-07
6.53243e-10
-8.87258e-07
8.79307e-07
2.56972e-08
-9.16433e-07
8.91435e-07
4.26712e-08
-9.29237e-07
9.12383e-07
6.38882e-08
-9.45014e-07
9.23853e-07
7.59549e-08
-9.52211e-07
9.40215e-07
8.71064e-08
-9.60223e-07
9.49106e-07
9.29724e-08
-9.66062e-07
9.60227e-07
9.67263e-08
-9.7062e-07
9.66878e-07
9.77839e-08
-9.75151e-07
9.74103e-07
9.76387e-08
-9.78674e-07
9.78814e-07
9.63362e-08
-9.82226e-07
9.8352e-07
9.44542e-08
-9.85085e-07
9.86951e-07
9.21318e-08
-9.87803e-07
9.90106e-07
8.9593e-08
-9.90121e-07
9.92637e-07
8.68981e-08
-9.92144e-07
9.94814e-07
8.40619e-08
-9.93883e-07
9.96692e-07
8.10954e-08
-9.95365e-07
9.98304e-07
7.79402e-08
-9.96549e-07
9.99673e-07
7.47071e-08
-9.97692e-07
1.0009e-06
7.12165e-08
-9.98404e-07
1.00186e-06
6.79259e-08
-9.99464e-07
1.00273e-06
6.38554e-08
-9.99067e-07
1.0031e-06
6.05763e-08
-1.00009e-06
1.00335e-06
5.60554e-08
-9.98571e-07
1.00305e-06
5.36587e-08
-1.00049e-06
1.0029e-06
4.83283e-08
-9.96296e-07
1.00157e-06
4.89894e-08
-1.00219e-06
1.0016e-06
4.1808e-08
-9.91097e-07
9.98166e-07
5.15082e-08
-1.00784e-06
9.98307e-07
4.3402e-08
-9.84066e-07
9.91981e-07
7.46783e-08
-1.01993e-06
9.88919e-07
6.9332e-08
-9.78355e-07
9.83543e-07
1.28838e-07
-1.03404e-06
9.74941e-07
1.53892e-07
-9.9283e-07
9.67332e-07
2.43398e-07
-1.05143e-06
9.62925e-07
3.29426e-07
-1.02999e-06
9.42527e-07
4.25583e-07
-1.08147e-06
9.87464e-07
6.16218e-07
-1.13417e-06
9.40391e-07
7.0067e-07
-1.18077e-06
1.10225e-06
4.83645e-07
-7.45443e-07
9.62165e-07
-2.73521e-07
-5.49084e-07
1.42949e-06
-1.63309e-06
7.11245e-08
1.29612e-06
6.7005e-08
-2.8343e-06
1.58907e-06
-7.07031e-07
-2.92546e-06
3.45968e-06
-2.41232e-07
1.20337e-06
-1.93361e-07
-2.62826e-06
1.51703e-06
2.7162e-07
3.82621e-06
1.02887e-06
1.41943e-06
2.75721e-05
-1.85031e-05
1.55131e-05
2.06914e-05
-2.47266e-05
5.14585e-06
2.56398e-05
-1.00688e-05
3.10013e-06
2.39259e-05
1.15546e-06
5.51785e-07
2.54342e-05
-1.09186e-06
-4.16437e-07
2.65939e-05
-1.63208e-07
-9.96503e-07
2.69716e-05
1.17631e-06
-1.55401e-06
2.69471e-05
1.81853e-06
-1.79397e-06
2.66578e-05
2.00815e-06
-1.71887e-06
2.60558e-05
2.08798e-06
-1.48602e-06
2.5111e-05
2.14176e-06
-1.19696e-06
2.39776e-05
2.03656e-06
-9.03194e-07
2.28897e-05
1.6994e-06
-6.11506e-07
2.19192e-05
1.30307e-06
-3.32516e-07
2.10158e-05
9.74729e-07
-7.1379e-08
2.01338e-05
7.07547e-07
1.74443e-07
1.94568e-05
3.04992e-07
3.72025e-07
1.90615e-05
-1.39958e-07
5.35253e-07
1.88553e-05
-4.55954e-07
6.62129e-07
1.87184e-05
-6.50066e-07
7.86998e-07
1.85614e-05
-7.01395e-07
8.58404e-07
1.83205e-05
-6.32901e-07
8.73764e-07
1.80246e-05
-4.96137e-07
7.92075e-07
1.74689e-05
-1.70741e-07
7.26471e-07
1.67201e-05
1.18636e-07
6.30074e-07
1.54617e-05
7.53071e-07
5.05342e-07
1.35251e-05
1.35076e-06
5.85872e-07
1.10955e-05
1.83511e-06
5.94507e-07
7.16153e-06
2.7926e-06
1.14133e-06
2.42382e-06
2.82491e-06
1.9128e-06
-1.0062e-06
1.41648e-06
2.01354e-06
-2.82624e-06
4.12608e-07
1.40743e-06
-3.45548e-06
-2.68107e-07
8.97348e-07
-2.92784e-06
-9.0104e-07
3.73403e-07
-1.91673e-06
-1.67548e-06
6.64365e-07
-9.25428e-07
-2.09026e-06
1.09895e-06
-2.21703e-06
1.2916e-06
-2.50005e-06
-2.62077e-06
-2.45476e-07
-1.18283e-06
-3.04752e-06
-3.30671e-07
-6.80846e-07
-1.55355e-06
3.28296e-08
-2.00273e-07
-1.68069e-06
1.89103e-07
-5.29507e-08
-1.05985e-06
1.9696e-07
5.88954e-09
-1.04445e-06
2.55445e-07
-2.41887e-08
-9.21265e-07
2.54958e-07
-8.02262e-08
-9.2368e-07
2.65197e-07
-1.46793e-07
-9.307e-07
2.56631e-07
-1.78411e-07
-9.94775e-07
2.4951e-07
-1.94366e-07
-1.05397e-06
2.53774e-07
-1.67512e-07
-1.13987e-06
2.51644e-07
-1.38931e-07
-1.18251e-06
2.66874e-07
-9.37708e-08
-1.23622e-06
2.74759e-07
-6.20735e-08
-1.25462e-06
2.9388e-07
-2.73884e-08
-1.2833e-06
3.03736e-07
-7.24012e-09
-1.29187e-06
3.19697e-07
1.27606e-08
-1.30783e-06
3.27737e-07
2.23073e-08
-1.31409e-06
3.38641e-07
3.13828e-08
-1.32407e-06
3.44505e-07
3.44941e-08
-1.32954e-06
3.51422e-07
3.72275e-08
-1.33668e-06
3.55404e-07
3.72163e-08
-1.34165e-06
3.59578e-07
3.67307e-08
-1.34684e-06
3.62372e-07
3.52041e-08
-1.35101e-06
3.64867e-07
3.33564e-08
-1.35486e-06
3.66725e-07
3.114e-08
-1.35807e-06
3.68277e-07
2.86822e-08
-1.36081e-06
3.69516e-07
2.60391e-08
-1.36309e-06
3.705e-07
2.32906e-08
-1.36489e-06
3.71225e-07
2.03993e-08
-1.36639e-06
3.7173e-07
1.72392e-08
-1.36715e-06
3.72036e-07
1.40635e-08
-1.36838e-06
3.72231e-07
1.04895e-08
-1.36747e-06
3.72103e-07
8.00845e-09
-1.36884e-06
3.71392e-07
4.34624e-09
-1.36571e-06
3.70912e-07
3.30757e-09
-1.36858e-06
3.69331e-07
-3.52279e-11
-1.36118e-06
3.68241e-07
1.99435e-09
-1.36973e-06
3.65875e-07
-1.37083e-09
-1.35124e-06
3.63349e-07
1.06237e-08
-1.37797e-06
3.58713e-07
7.93671e-09
-1.33641e-06
3.54658e-07
4.60327e-08
-1.40023e-06
3.42857e-07
4.77555e-08
-1.32112e-06
3.40834e-07
1.29854e-07
-1.43272e-06
3.17158e-07
1.58296e-07
-1.33309e-06
3.11588e-07
2.75925e-07
-1.4668e-06
2.98837e-07
3.78734e-07
-1.40342e-06
2.69442e-07
4.5968e-07
-1.48885e-06
3.2857e-07
5.73625e-07
-1.56957e-06
3.18943e-07
5.91616e-07
-1.65328e-06
4.59151e-07
4.95198e-07
-1.15777e-06
5.05262e-07
-3.79951e-07
-2.44846e-07
6.83157e-07
-1.39866e-06
9.09295e-07
2.1305e-07
1.01069e-06
-4.998e-06
1.36553e-07
3.33759e-06
-6.94305e-06
1.51325e-06
-2.23629e-06
9.55492e-06
-1.60521e-06
-1.02223e-05
9.09902e-06
-2.19272e-07
2.37036e-06
2.92437e-06
-5.35294e-06
2.83173e-05
-3.46147e-05
7.9864e-06
8.05761e-06
-3.61237e-05
5.34774e-06
6.7635e-06
-1.1988e-05
1.3495e-06
1.43369e-05
-2.70689e-06
-3.71299e-06
1.77693e-05
-1.05262e-06
-3.4717e-06
1.92689e-05
1.82114e-06
-3.48392e-06
2.09508e-05
3.16242e-06
-3.66799e-06
2.24008e-05
3.69251e-06
-3.32399e-06
2.31467e-05
3.93784e-06
-2.67563e-06
2.31522e-05
4.0953e-06
-2.01279e-06
2.26211e-05
4.10054e-06
-1.42769e-06
2.16708e-05
3.98965e-06
-1.0028e-06
2.07051e-05
3.30746e-06
-6.42334e-07
2.00788e-05
2.10118e-06
-1.719e-07
1.93662e-05
1.36237e-06
3.25005e-07
1.86406e-05
7.23315e-07
7.09823e-07
1.77052e-05
2.86387e-07
9.54e-07
1.67328e-05
-3.05986e-07
1.13849e-06
1.58879e-05
-9.81212e-07
1.37016e-06
1.50287e-05
-1.25028e-06
1.45931e-06
1.43473e-05
-1.37935e-06
1.35937e-06
1.38528e-05
-1.35939e-06
1.22102e-06
1.35931e-05
-1.11892e-06
8.82513e-07
1.34258e-05
-6.3488e-07
6.31357e-07
1.32475e-05
-9.97461e-09
3.06904e-07
1.28357e-05
1.08056e-06
8.43494e-08
1.17436e-05
2.27527e-06
1.67536e-07
1.00309e-05
3.33665e-06
2.11242e-07
7.32353e-06
4.52391e-06
9.76016e-07
3.36796e-06
5.05344e-06
1.72704e-06
-1.60986e-07
3.14157e-06
1.80385e-06
-2.43944e-06
1.4941e-06
1.19695e-06
-3.39628e-06
5.82645e-07
1.06091e-07
-3.11664e-06
-1.54314e-07
-1.02637e-06
-1.98163e-06
-1.37414e-06
-1.43635e-06
-8.58451e-07
-2.45648e-06
-7.56957e-07
-2.82788e-06
-2.47596e-07
-2.696e-06
-2.56115e-06
-3.99604e-07
-1.63881e-06
-3.44091e-06
-6.63833e-07
-1.36114e-06
-1.56627e-06
-2.63111e-07
-8.58995e-07
-1.97924e-06
-2.03406e-07
-5.6385e-07
-1.15888e-06
-1.94682e-07
-3.44283e-07
-1.18925e-06
-7.48997e-08
-2.63657e-07
-9.24957e-07
-7.67046e-08
-2.35937e-07
-9.161e-07
-3.54669e-08
-2.57703e-07
-8.66269e-07
-4.25691e-08
-2.71377e-07
-9.17816e-07
-6.32146e-08
-2.75254e-07
-9.66175e-07
-8.37386e-08
-2.37035e-07
-1.07277e-06
-1.05237e-07
-1.92314e-07
-1.12244e-06
-1.04615e-07
-1.37405e-07
-1.18839e-06
-1.02627e-07
-9.56286e-08
-1.20642e-06
-8.98016e-08
-5.63138e-08
-1.24032e-06
-8.2177e-08
-3.14782e-08
-1.2465e-06
-7.00432e-08
-9.69198e-09
-1.26528e-06
-6.42218e-08
2.06362e-09
-1.26947e-06
-5.62136e-08
1.18255e-08
-1.28086e-06
-5.28513e-08
1.58892e-08
-1.28508e-06
-4.83807e-08
1.90582e-08
-1.29288e-06
-4.68432e-08
1.94493e-08
-1.29716e-06
-4.47502e-08
1.91847e-08
-1.30232e-06
-4.41317e-08
1.79012e-08
-1.30599e-06
-4.36117e-08
1.62262e-08
-1.30937e-06
-4.36973e-08
1.41436e-08
-1.31187e-06
-4.39887e-08
1.17793e-08
-1.31379e-06
-4.45336e-08
9.17133e-09
-1.31511e-06
-4.52402e-08
6.42502e-09
-1.3159e-06
-4.61268e-08
3.55132e-09
-1.31623e-06
-4.71648e-08
4.39668e-10
-1.31565e-06
-4.82704e-08
-2.93672e-09
-1.31546e-06
-4.94004e-08
-6.21935e-09
-1.31314e-06
-5.09345e-08
-9.24422e-09
-1.31321e-06
-5.2463e-08
-1.26948e-08
-1.30811e-06
-5.40449e-08
-1.49211e-08
-1.30972e-06
-5.64565e-08
-1.77325e-08
-1.30003e-06
-5.82725e-08
-1.85341e-08
-1.30749e-06
-6.11685e-08
-2.14352e-08
-1.28492e-06
-6.34839e-08
-1.45766e-08
-1.31498e-06
-6.93094e-08
-1.79342e-08
-1.26225e-06
-7.12341e-08
1.3307e-08
-1.34347e-06
-8.71065e-08
5.57109e-09
-1.23217e-06
-8.19452e-08
9.52693e-08
-1.40236e-06
-1.19251e-07
6.11421e-08
-1.19891e-06
-1.00382e-07
2.06107e-07
-1.47952e-06
-1.31254e-07
8.32612e-08
-1.16276e-06
-1.18851e-07
2.2864e-07
-1.59181e-06
-4.07208e-08
-2.12896e-07
-1.13471e-06
3.48186e-09
-3.4941e-08
-1.95314e-06
1.29054e-07
-3.12012e-07
-1.07181e-06
1.87318e-07
-1.14197e-07
-1.32597e-07
-2.50415e-07
6.97313e-07
7.86571e-07
-6.39419e-07
2.21881e-06
-6.60398e-06
6.3996e-07
6.89828e-08
-7.09489e-06
2.14717e-06
7.0021e-06
8.00488e-06
-3.25158e-06
9.33078e-07
1.4656e-05
-7.01274e-07
8.64146e-06
9.85622e-06
-3.67926e-06
2.74669e-05
-3.82957e-05
2.88724e-06
-1.45648e-07
-4.01301e-05
5.81462e-06
4.56928e-07
-1.59842e-05
1.16034e-06
1.47092e-05
-1.41678e-05
-2.79143e-06
1.61072e-05
6.28187e-07
-3.07876e-06
1.68468e-05
4.0693e-06
-2.98784e-06
1.82084e-05
4.61607e-06
-2.81525e-06
1.89658e-05
5.38156e-06
-2.44639e-06
1.90668e-05
5.54671e-06
-1.70994e-06
1.88112e-05
5.08963e-06
-7.38728e-07
1.79974e-05
4.66696e-06
2.47435e-07
1.68993e-05
4.06949e-06
1.01823e-06
1.56991e-05
2.86404e-06
1.64363e-06
1.40239e-05
1.49608e-06
2.28032e-06
1.16538e-05
9.78659e-07
2.75381e-06
8.53154e-06
6.62202e-07
3.18333e-06
5.16472e-06
1.32683e-07
3.52051e-06
2.00632e-06
-6.00726e-07
3.45314e-06
-1.03527e-07
-1.60601e-06
2.73465e-06
-7.22933e-07
-2.40702e-06
1.77615e-06
-3.61703e-07
-2.81431e-06
1.07373e-06
6.97772e-07
-2.81775e-06
3.98884e-07
2.13219e-06
-2.37403e-06
-1.79314e-07
3.68275e-06
-1.55683e-06
-6.28622e-07
5.16181e-06
-4.63373e-07
-1.02566e-06
6.40062e-06
9.40247e-07
-1.0985e-06
6.93408e-06
2.58818e-06
-8.46371e-07
6.5784e-06
4.25333e-06
-5.61011e-07
4.77238e-06
5.87236e-06
4.57568e-07
1.83254e-06
6.07009e-06
1.92318e-06
-6.77264e-07
3.73082e-06
1.92055e-06
-2.3713e-06
1.7568e-06
1.43133e-06
-3.1509e-06
1.00606e-06
3.56186e-07
-2.73129e-06
7.68846e-07
-1.34278e-06
-1.59221e-06
-1.26546e-07
-2.38668e-06
-5.91925e-07
-1.58448e-06
-1.87229e-06
-2.38663e-06
-1.03318e-06
-2.49367e-06
-2.22606e-06
-2.41658e-07
-1.51337e-06
-3.70868e-06
-7.14077e-07
-1.53881e-06
-1.3394e-06
-1.98893e-07
-1.12658e-06
-2.25606e-06
-1.3566e-07
-9.25546e-07
-1.20309e-06
-1.5506e-07
-6.75459e-07
-1.40114e-06
-3.83102e-08
-5.32332e-07
-9.47805e-07
-1.19619e-07
-4.42054e-07
-9.18716e-07
-8.7793e-08
-4.3292e-07
-7.489e-07
-1.2633e-07
-4.33012e-07
-7.54496e-07
-1.63107e-07
-4.25198e-07
-7.55471e-07
-2.18288e-07
-3.76065e-07
-8.55589e-07
-2.66219e-07
-3.09434e-07
-8.98251e-07
-2.90677e-07
-2.40852e-07
-9.56045e-07
-3.00813e-07
-1.82828e-07
-9.63931e-07
-3.00341e-07
-1.35956e-07
-9.89648e-07
-2.97401e-07
-1.02801e-07
-9.87925e-07
-2.91553e-07
-7.77526e-08
-1.00222e-06
-2.87959e-07
-6.19845e-08
-1.00145e-06
-2.83609e-07
-5.04689e-08
-1.0103e-06
-2.8192e-07
-4.41165e-08
-1.01144e-06
-2.79816e-07
-3.98141e-08
-1.01748e-06
-2.79546e-07
-3.82452e-08
-1.01963e-06
-2.78931e-07
-3.77741e-08
-1.02328e-06
-2.79347e-07
-3.83474e-08
-1.02542e-06
-2.79827e-07
-3.95453e-08
-1.0273e-06
-2.80709e-07
-4.12452e-08
-1.02833e-06
-2.81683e-07
-4.33004e-08
-1.02885e-06
-2.82711e-07
-4.56345e-08
-1.02889e-06
-2.83728e-07
-4.81712e-08
-1.02843e-06
-2.84766e-07
-5.09492e-08
-1.02745e-06
-2.85833e-07
-5.3905e-08
-1.02562e-06
-2.86915e-07
-5.74653e-08
-1.0238e-06
-2.87938e-07
-6.05304e-08
-1.02049e-06
-2.89439e-07
-6.39818e-08
-1.01893e-06
-2.9066e-07
-6.70145e-08
-1.01282e-06
-2.92118e-07
-7.02555e-08
-1.01307e-06
-2.93233e-07
-7.24208e-08
-1.00346e-06
-2.94293e-07
-7.61926e-08
-1.00796e-06
-2.95535e-07
-7.65829e-08
-9.88017e-07
-2.96496e-07
-7.73944e-08
-1.01398e-06
-2.99827e-07
-7.41255e-08
-9.66022e-07
-2.99685e-07
-5.7989e-08
-1.0481e-06
-3.10864e-07
-5.41676e-08
-9.34637e-07
-3.0196e-07
1.0939e-09
-1.12711e-06
-3.29372e-07
-2.90291e-08
-8.75134e-07
-2.94983e-07
4.71445e-08
-1.24535e-06
-3.08871e-07
-1.21472e-07
-7.55166e-07
-2.40588e-07
-2.81509e-07
-1.34688e-06
-8.19603e-08
-6.53248e-07
-6.64537e-07
-1.00815e-07
-1.10456e-06
-1.70129e-06
2.13842e-07
-1.00741e-06
-1.02768e-06
-1.39713e-07
-6.71374e-07
1.1786e-07
-4.74193e-07
-2.85343e-07
9.49131e-07
-5.06121e-07
-3.01404e-06
-4.65423e-06
1.2008e-06
-8.05346e-06
-3.03375e-06
7.0107e-07
6.5627e-06
-5.93702e-07
-3.56044e-06
5.1149e-06
1.91201e-05
-4.38485e-06
1.47086e-05
1.13578e-05
-3.94034e-07
2.99143e-05
-3.57529e-05
-4.14803e-07
5.40732e-07
-4.28e-05
5.92344e-06
-3.98786e-06
-1.54411e-05
2.64561e-06
-1.01614e-06
-1.73361e-05
1.96538e-07
1.09047e-06
2.65959e-06
-4.13802e-06
9.60837e-06
1.25162e-06
-5.70023e-06
1.18581e-05
5.56003e-06
-3.19373e-06
1.26492e-05
5.58623e-06
-9.95731e-07
1.26015e-05
4.95789e-06
6.36507e-07
1.13704e-05
4.31963e-06
2.00108e-06
8.82999e-06
4.23554e-06
2.97182e-06
4.21042e-06
4.59715e-06
4.09191e-06
-2.9437e-06
4.44684e-06
5.57132e-06
-9.54705e-06
2.80594e-06
5.2935e-06
-1.3438e-05
1.47515e-06
3.39446e-06
-1.53704e-05
1.71159e-07
2.4234e-06
-1.58369e-05
-9.93588e-07
1.59283e-06
-1.52176e-05
-2.20441e-06
9.84341e-07
-1.39065e-05
-3.22319e-06
3.06113e-07
-1.22352e-05
-3.83461e-06
-2.43704e-07
-1.03438e-05
-4.0104e-06
-6.95295e-07
-8.27912e-06
-3.83915e-06
-1.04329e-06
-6.07176e-06
-3.28225e-06
-1.29914e-06
-3.87737e-06
-2.31245e-06
-1.43878e-06
-1.86307e-06
-1.07952e-06
-1.39816e-06
-2.73646e-07
5.40531e-07
-1.18971e-06
6.70976e-07
2.38122e-06
-7.37664e-07
5.62722e-07
4.2252e-06
1.36379e-07
-7.96863e-07
5.56673e-06
1.66522e-06
-1.55839e-06
4.36115e-06
2.47046e-06
-2.14437e-06
2.20744e-06
2.10936e-06
-3.1546e-06
1.18243e-06
1.5846e-06
-3.38852e-06
1.02803e-06
2.11943e-07
-2.57736e-06
1.39172e-06
-1.43403e-06
-1.19354e-06
1.1396e-06
-2.64998e-06
-1.71537e-07
-1.2661e-07
-2.47987e-06
-9.61619e-07
-1.59655e-06
-2.29126e-06
-1.92333e-06
1.99931e-07
-1.26159e-06
-3.98544e-06
-7.55138e-07
-1.45385e-06
-1.28549e-06
1.41696e-07
-1.087e-06
-2.70168e-06
7.77786e-08
-8.9321e-07
-1.53818e-06
1.43572e-07
-6.3548e-07
-1.85438e-06
1.95704e-07
-4.71155e-07
-1.16819e-06
5.75415e-08
-3.74909e-07
-1.07526e-06
6.01797e-08
-3.88005e-07
-7.12003e-07
-2.34821e-08
-4.31372e-07
-6.23162e-07
-8.78587e-08
-4.62255e-07
-5.30229e-07
-1.93996e-07
-4.3255e-07
-6.03768e-07
-2.81388e-07
-3.72452e-07
-6.10626e-07
-3.47636e-07
-3.08132e-07
-6.35523e-07
-3.84814e-07
-2.46279e-07
-6.20007e-07
-4.0574e-07
-1.99755e-07
-6.22387e-07
-4.13759e-07
-1.62464e-07
-6.07494e-07
-4.17694e-07
-1.37288e-07
-6.09125e-07
-4.18251e-07
-1.1866e-07
-6.01575e-07
-4.18488e-07
-1.06932e-07
-6.04122e-07
-4.17906e-07
-9.85737e-08
-6.02123e-07
-4.17668e-07
-9.37343e-08
-6.05039e-07
-4.17285e-07
-9.08017e-08
-6.05543e-07
-4.17023e-07
-8.92865e-08
-6.07729e-07
-4.17079e-07
-8.88257e-08
-6.08892e-07
-4.17002e-07
-8.94112e-08
-6.10196e-07
-4.16535e-07
-9.07433e-08
-6.11287e-07
-4.1573e-07
-9.24974e-08
-6.12101e-07
-4.15028e-07
-9.44832e-08
-6.12643e-07
-4.14287e-07
-9.6601e-08
-6.12895e-07
-4.1345e-07
-9.88788e-08
-6.12717e-07
-4.12489e-07
-1.01094e-07
-6.12e-07
-4.11449e-07
-1.03794e-07
-6.1091e-07
-4.10224e-07
-1.06049e-07
-6.09306e-07
-4.0898e-07
-1.09008e-07
-6.08856e-07
-4.07141e-07
-1.11498e-07
-6.05118e-07
-4.05271e-07
-1.14812e-07
-6.06773e-07
-4.03005e-07
-1.16663e-07
-6.01548e-07
-4.00144e-07
-1.20832e-07
-6.07506e-07
-3.96265e-07
-1.19668e-07
-5.96891e-07
-3.92442e-07
-1.23382e-07
-6.21629e-07
-3.88484e-07
-1.16512e-07
-5.90556e-07
-3.82655e-07
-1.13417e-07
-6.69896e-07
-3.80889e-07
-1.0325e-07
-5.80544e-07
-3.64892e-07
-1.06065e-07
-7.64914e-07
-3.585e-07
-1.23304e-07
-5.38284e-07
-3.20746e-07
-2.71343e-07
-8.47587e-07
-2.48175e-07
-4.31908e-07
-3.89905e-07
-2.06605e-07
-1.08149e-06
-7.72631e-07
7.83467e-08
-1.42198e-06
-2.49769e-07
-7.54675e-08
-2.21516e-06
-1.08479e-06
2.00968e-07
-2.13e-06
-8.6087e-07
-2.49002e-07
-4.0065e-08
-1.2006e-06
-6.55545e-07
2.95285e-07
1.44122e-06
-8.41962e-07
3.30619e-06
-5.00529e-06
-1.97167e-06
4.11496e-06
-1.30036e-06
-2.76399e-06
1.24592e-05
-1.96422e-06
-5.32442e-06
1.36723e-05
2.47601e-05
-7.19775e-06
3.45273e-05
-3.18696e-06
1.12324e-05
3.51793e-05
-2.38408e-05
2.21853e-06
-3.19143e-06
-4.16135e-05
5.59315e-06
-1.0101e-05
-1.3611e-05
3.69771e-06
-1.11968e-05
-1.64136e-05
1.69554e-07
-4.83695e-06
-1.9226e-06
-1.77836e-06
3.05506e-07
-2.03946e-06
-1.8522e-06
1.16505e-06
3.95692e-06
7.43342e-07
-3.79154e-07
4.35858e-06
2.77171e-06
-5.79306e-06
5.8087e-06
4.56313e-06
-1.28912e-05
6.02927e-06
5.38866e-06
-1.97115e-05
6.12598e-06
4.93008e-06
-2.45404e-05
5.36992e-06
4.05634e-06
-2.72499e-05
4.03122e-06
3.12524e-06
-2.87049e-05
2.31541e-06
1.9456e-06
-2.93057e-05
1.1887e-06
8.87318e-07
-2.90895e-05
-2.28964e-07
1.84094e-07
-2.81887e-05
-1.42948e-06
-4.64795e-07
-2.69876e-05
-2.48241e-06
-9.23167e-07
-2.54383e-05
-3.56641e-06
-1.20633e-06
-2.36361e-05
-4.40458e-06
-1.23251e-06
-2.1543e-05
-5.03256e-06
-1.07103e-06
-1.9273e-05
-5.32571e-06
-7.83543e-07
-1.6863e-05
-5.27871e-06
-4.13567e-07
-1.44242e-05
-4.75888e-06
7.55826e-09
-1.21249e-05
-3.8847e-06
5.05965e-07
-1.01697e-05
-2.41744e-06
1.00276e-06
-8.56673e-06
-7.89778e-07
1.56802e-06
-7.12345e-06
5.83199e-07
2.19872e-06
-5.55645e-06
1.35854e-06
2.64118e-06
-4.42039e-06
7.69674e-07
2.45542e-06
-4.23829e-06
1.02292e-07
1.92305e-06
-4.29143e-06
2.25885e-08
1.21299e-06
-3.87061e-06
6.73747e-07
-6.65338e-08
-2.68595e-06
1.65795e-06
-1.4509e-06
-1.09792e-06
2.06023e-06
-2.50866e-06
-4.54081e-08
1.10289e-06
-2.28201e-06
1.57904e-07
-1.16493e-06
-2.42182e-06
-1.55554e-06
7.72734e-07
-1.39915e-06
-4.02186e-06
-9.90048e-07
-1.68427e-06
-1.55396e-06
5.57823e-07
-1.24417e-06
-3.24237e-06
9.80387e-08
-9.84751e-07
-2.304e-06
5.088e-07
-5.89371e-07
-2.62731e-06
3.78248e-07
-2.05038e-07
-1.85364e-06
3.04161e-07
-4.31799e-08
-1.53506e-06
2.99134e-07
-1.5215e-08
-9.3477e-07
1.96202e-07
-1.53251e-07
-6.12448e-07
1.27444e-07
-2.82917e-07
-3.75548e-07
-2.45527e-08
-3.3443e-07
-4.02948e-07
-1.48974e-07
-3.28963e-07
-3.56431e-07
-2.59232e-07
-2.95635e-07
-3.43073e-07
-3.25425e-07
-2.57536e-07
-2.87177e-07
-3.70524e-07
-2.23781e-07
-2.59399e-07
-3.964e-07
-1.95371e-07
-2.19374e-07
-4.16186e-07
-1.74953e-07
-2.02137e-07
-4.27095e-07
-1.59682e-07
-1.80756e-07
-4.35774e-07
-1.50596e-07
-1.73916e-07
-4.38994e-07
-1.43462e-07
-1.67337e-07
-4.41615e-07
-1.39573e-07
-1.6725e-07
-4.41383e-07
-1.36992e-07
-1.67169e-07
-4.40656e-07
-1.3606e-07
-1.70035e-07
-4.38333e-07
-1.36429e-07
-1.72881e-07
-4.35346e-07
-1.37769e-07
-1.76634e-07
-4.31929e-07
-1.39648e-07
-1.80915e-07
-4.28197e-07
-1.41822e-07
-1.85723e-07
-4.23908e-07
-1.44108e-07
-1.90915e-07
-4.19144e-07
-1.46457e-07
-1.96205e-07
-4.1404e-07
-1.48923e-07
-2.01416e-07
-4.08527e-07
-1.51293e-07
-2.06628e-07
-4.0269e-07
-1.54353e-07
-2.1131e-07
-3.96211e-07
-1.5703e-07
-2.16406e-07
-3.89898e-07
-1.61024e-07
-2.21305e-07
-3.83203e-07
-1.64943e-07
-2.23847e-07
-3.77011e-07
-1.7082e-07
-2.30337e-07
-3.70182e-07
-1.7597e-07
-2.321e-07
-3.6395e-07
-1.82653e-07
-2.43863e-07
-3.56542e-07
-1.84912e-07
-2.43622e-07
-3.507e-07
-1.94553e-07
-2.69164e-07
-3.42297e-07
-1.92567e-07
-2.55653e-07
-3.36727e-07
-2.13806e-07
-3.23715e-07
-3.24173e-07
-2.12643e-07
-2.6508e-07
-3.16768e-07
-2.95016e-07
-4.02765e-07
-2.78603e-07
-3.369e-07
-2.3195e-07
-2.6516e-07
-6.61671e-07
-3.83247e-07
-1.3776e-07
-8.47331e-07
-4.01688e-08
-1.65835e-07
-1.66123e-06
-9.22016e-08
1.37412e-07
-1.95842e-06
1.63968e-07
-1.14563e-07
-2.62371e-06
-3.9356e-07
6.11988e-09
-2.36567e-06
-8.60691e-07
-2.46446e-07
1.33733e-07
-3.01819e-06
-5.55715e-07
2.43671e-06
2.00004e-07
-1.00342e-06
9.50419e-07
6.51969e-07
-3.57439e-06
-1.69338e-06
5.77141e-06
-4.61496e-06
9.38274e-06
-3.14987e-06
-8.81452e-06
2.42792e-05
1.8197e-05
-8.16985e-06
3.99757e-05
-1.44287e-05
1.89671e-05
3.43704e-05
-1.34132e-05
2.91492e-06
-1.29019e-05
-3.26496e-05
6.80708e-06
-2.04419e-05
-1.07894e-05
3.9902e-06
-2.6345e-05
-1.16659e-05
1.11594e-06
-2.47644e-05
-2.89927e-06
-6.2066e-07
-2.71203e-05
-3.59342e-07
6.69336e-07
-2.88899e-05
3.3977e-06
2.32297e-06
-3.23028e-05
4.67657e-06
3.09768e-06
-3.59921e-05
6.22561e-06
3.27777e-06
-3.89137e-05
6.0721e-06
2.87313e-06
-4.11671e-05
6.15822e-06
2.21437e-06
-4.26013e-05
5.47465e-06
1.33449e-06
-4.3543e-05
4.60656e-06
3.84664e-07
-4.40526e-05
3.29695e-06
-4.5834e-07
-4.38314e-05
2.12009e-06
-1.15992e-06
-4.33406e-05
7.55874e-07
-1.48049e-06
-4.24027e-05
-7.00631e-07
-1.66898e-06
-4.11259e-05
-2.10326e-06
-1.66829e-06
-3.95835e-05
-3.57782e-06
-1.55298e-06
-3.76961e-05
-4.91939e-06
-1.39412e-06
-3.5419e-05
-6.15287e-06
-1.17472e-06
-3.27534e-05
-7.05486e-06
-9.50139e-07
-2.97324e-05
-7.62771e-06
-6.82753e-07
-2.63264e-05
-7.79979e-06
-3.71806e-07
-2.27483e-05
-7.43774e-06
-3.00657e-08
-1.92088e-05
-6.38068e-06
4.21727e-07
-1.58058e-05
-5.03534e-06
8.41281e-07
-1.24092e-05
-3.93395e-06
1.1198e-06
-9.24367e-06
-2.99029e-06
1.1832e-06
-7.0833e-06
-2.35317e-06
9.62464e-07
-5.83343e-06
-1.6435e-06
4.95911e-07
-4.89363e-06
-7.51195e-07
-1.66018e-07
-3.9144e-06
6.18725e-07
-9.2421e-07
-2.24562e-06
1.82483e-06
-1.83566e-06
-1.92478e-07
2.56725e-06
-2.56017e-06
8.36954e-07
2.42817e-06
-2.35471e-06
2.51208e-06
-1.51722e-06
-2.92015e-06
-9.88502e-07
1.31523e-06
-1.86524e-06
-3.65099e-06
-1.43109e-06
-2.11424e-06
-1.66056e-06
3.61139e-07
-1.55754e-06
-3.2646e-06
-5.38653e-07
-1.25076e-06
-2.8466e-06
2.37682e-07
-7.83559e-07
-3.07136e-06
-2.44948e-08
-3.21913e-07
-2.46524e-06
1.51818e-07
6.88988e-08
-2.02243e-06
9.83585e-08
3.50063e-07
-1.30497e-06
9.13639e-08
2.39441e-07
-6.11025e-07
1.10016e-07
6.36981e-08
-2.41096e-07
4.16001e-08
-7.72959e-08
-2.05637e-07
-5.64617e-08
-1.47929e-07
-1.33456e-07
-1.52393e-07
-1.73352e-07
-9.64073e-08
-2.21419e-07
-1.83382e-07
-8.31586e-09
-2.68893e-07
-1.84103e-07
4.1425e-08
-3.00209e-07
-1.85959e-07
1.02836e-07
-3.20368e-07
-1.84913e-07
1.32505e-07
-3.35739e-07
-1.85168e-07
1.64991e-07
-3.4552e-07
-1.8552e-07
1.76237e-07
-3.49854e-07
-1.86712e-07
1.85774e-07
-3.51952e-07
-1.88592e-07
1.86148e-07
-3.51566e-07
-1.90271e-07
1.85158e-07
-3.50685e-07
-1.92224e-07
1.80324e-07
-3.48452e-07
-1.94358e-07
1.74769e-07
-3.45561e-07
-1.96536e-07
1.67626e-07
-3.42134e-07
-1.99204e-07
1.59859e-07
-3.3816e-07
-2.02461e-07
1.51152e-07
-3.33677e-07
-2.05935e-07
1.41988e-07
-3.29496e-07
-2.09404e-07
1.32748e-07
-3.25565e-07
-2.1329e-07
1.23802e-07
-3.21425e-07
-2.17575e-07
1.1488e-07
-3.17341e-07
-2.22789e-07
1.06527e-07
-3.12747e-07
-2.27728e-07
9.70782e-08
-3.08704e-07
-2.34679e-07
8.896e-08
-3.03464e-07
-2.41607e-07
8.19417e-08
-2.99056e-07
-2.51424e-07
7.2645e-08
-2.93336e-07
-2.60939e-07
6.66585e-08
-2.89467e-07
-2.71896e-07
5.25516e-08
-2.85637e-07
-2.80761e-07
4.78549e-08
-2.82885e-07
-3.00641e-07
2.5894e-08
-2.75292e-07
-3.10817e-07
2.75629e-08
-2.73434e-07
-3.60627e-07
-1.90004e-08
-2.54811e-07
-3.79283e-07
1.32339e-08
-2.60352e-07
-5.20967e-07
-5.56889e-08
-2.04883e-07
-5.71127e-07
4.83108e-08
-2.31318e-07
-9.20443e-07
6.92881e-08
-1.01945e-07
-1.03848e-06
2.65191e-07
-1.89422e-07
-1.68174e-06
5.64611e-07
-9.10191e-09
-1.73337e-06
4.96963e-07
-2.75412e-07
-1.99813e-06
3.81298e-07
-4.6318e-07
-1.65559e-06
-5.94528e-07
-5.81644e-07
-1.30274e-06
-2.74113e-06
-5.57892e-07
1.12097e-06
-1.90896e-06
-2.60773e-07
2.29604e-06
4.32767e-06
-4.21978e-06
6.83263e-06
1.0072e-05
-8.84654e-06
1.44035e-05
5.82657e-07
-1.09084e-05
3.44894e-05
5.25103e-06
-7.45285e-06
3.51024e-05
-1.11577e-05
2.27098e-05
2.63839e-05
-5.27726e-06
3.52621e-06
-3.11501e-05
-1.30969e-05
7.43605e-06
-4.16267e-05
-4.90837e-06
4.38315e-06
-5.00098e-05
-3.66205e-06
3.55128e-07
-5.2415e-05
-8.04698e-08
-6.11867e-07
-5.44764e-05
1.49735e-06
9.5265e-08
-5.57998e-05
4.09978e-06
7.04211e-07
-5.73651e-05
5.26874e-06
9.48274e-07
-5.83438e-05
6.37168e-06
8.72618e-07
-5.93332e-05
6.59353e-06
4.77662e-07
-5.97736e-05
6.50754e-06
4.14849e-08
-5.94291e-05
5.87831e-06
-7.27172e-07
-5.86492e-05
5.18139e-06
-1.29757e-06
-5.77734e-05
4.03462e-06
-1.61705e-06
-5.66024e-05
2.70121e-06
-1.73673e-06
-5.5189e-05
1.12172e-06
-1.75061e-06
-5.34847e-05
-6.7613e-07
-1.77001e-06
-5.15099e-05
-2.42398e-06
-1.76434e-06
-4.96934e-05
-3.92519e-06
-1.57359e-06
-4.77698e-05
-5.48366e-06
-1.45232e-06
-4.6044e-05
-6.79006e-06
-1.22163e-06
-4.41517e-05
-7.92554e-06
-1.12945e-06
-4.20515e-05
-8.73776e-06
-1.09268e-06
-3.95268e-05
-9.25223e-06
-1.15083e-06
-3.64696e-05
-9.30388e-06
-1.25393e-06
-3.27888e-05
-8.82027e-06
-1.32825e-06
-2.84203e-05
-8.22459e-06
-1.27772e-06
-2.36769e-05
-7.56205e-06
-1.20321e-06
-1.89461e-05
-6.67629e-06
-1.09167e-06
-1.46958e-05
-5.59242e-06
-1.02529e-06
-1.10174e-05
-4.29203e-06
-1.03677e-06
-7.86966e-06
-2.83014e-06
-1.07104e-06
-5.11658e-06
-1.02978e-06
-1.10527e-06
-2.47202e-06
7.03579e-07
-1.52388e-06
2.8249e-08
2.03154e-06
-1.96527e-06
1.2526e-06
2.77099e-06
-1.56731e-06
5.00866e-06
-1.2439e-06
-3.44215e-06
1.57187e-07
1.49526e-06
-2.16684e-06
-2.87133e-06
-2.06245e-06
-2.17145e-06
-1.19159e-06
-4.57723e-07
-1.54611e-06
-2.28587e-06
-1.6081e-06
-1.10685e-06
-2.62794e-06
-6.5635e-07
-8.13318e-07
-2.88193e-06
-4.85239e-07
-4.72498e-07
-2.63148e-06
-1.74151e-07
2.90522e-08
-2.2639e-06
-2.59285e-07
5.65929e-07
-1.66647e-06
-1.72383e-07
6.06966e-07
-5.93575e-07
-5.62626e-08
4.29748e-07
-2.20464e-08
-4.08369e-08
2.47453e-07
9.77492e-08
-1.21074e-07
1.15465e-07
2.12758e-07
-2.14247e-07
1.30803e-08
2.99418e-07
-2.93488e-07
-6.3348e-08
4.14617e-07
-3.46454e-07
-1.15087e-07
4.75862e-07
-3.82752e-07
-1.54327e-07
5.3793e-07
-3.95895e-07
-1.89867e-07
5.66497e-07
-3.98562e-07
-2.17975e-07
5.99448e-07
-4.0645e-07
-2.38667e-07
6.13811e-07
-4.17044e-07
-2.55716e-07
6.28297e-07
-4.25646e-07
-2.69864e-07
6.33799e-07
-4.33722e-07
-2.81229e-07
6.37546e-07
-4.41252e-07
-2.91207e-07
6.38264e-07
-4.48222e-07
-3.00129e-07
6.38235e-07
-4.54821e-07
-3.08495e-07
6.36868e-07
-4.61175e-07
-3.16934e-07
6.35285e-07
-4.67304e-07
-3.24427e-07
6.34262e-07
-4.75955e-07
-3.30412e-07
6.33772e-07
-4.8615e-07
-3.35674e-07
6.33288e-07
-4.9563e-07
-3.40687e-07
6.32678e-07
-5.04218e-07
-3.45478e-07
6.31412e-07
-5.12098e-07
-3.51154e-07
6.30761e-07
-5.18904e-07
-3.56421e-07
6.28472e-07
-5.26478e-07
-3.63215e-07
6.28225e-07
-5.32796e-07
-3.69239e-07
6.27751e-07
-5.40126e-07
-3.80854e-07
6.29346e-07
-5.45383e-07
-3.94698e-07
6.32851e-07
-5.5266e-07
-4.14456e-07
6.32193e-07
-5.60124e-07
-4.32823e-07
6.36232e-07
-5.70291e-07
-4.63725e-07
6.30737e-07
-5.741e-07
-4.92048e-07
6.36455e-07
-5.80908e-07
-5.70169e-07
6.25876e-07
-5.66681e-07
-6.19421e-07
6.46194e-07
-5.84311e-07
-8.11345e-07
6.60307e-07
-5.2351e-07
-8.7734e-07
6.91021e-07
-5.77922e-07
-1.18761e-06
8.3138e-07
-4.5027e-07
-1.12451e-06
7.8178e-07
-5.81726e-07
-1.29709e-06
1.25445e-06
-5.10316e-07
-8.73452e-07
8.07652e-07
-7.24292e-07
-1.73927e-07
1.22501e-06
-1.47989e-06
1.63359e-07
5.25364e-07
-1.41779e-06
-5.90809e-07
-3.68296e-07
-1.48202e-06
-1.0005e-06
-5.48936e-07
-9.28587e-07
2.06702e-06
3.18953e-06
-1.36525e-06
1.14533e-05
7.44208e-06
-6.63153e-06
1.47342e-05
9.92853e-06
-1.21677e-05
3.42418e-05
-1.18986e-06
-1.31835e-05
3.91793e-05
-9.7064e-06
2.30557e-05
2.56302e-05
4.01295e-06
3.94298e-06
-4.34871e-05
1.42261e-05
1.02134e-05
-6.07362e-05
6.40498e-06
5.73486e-06
-7.03373e-05
5.69003e-06
2.80296e-07
-7.38713e-05
4.61845e-06
-1.16521e-06
-7.59315e-05
4.84847e-06
-1.36998e-06
-7.66756e-05
5.77091e-06
-9.53619e-07
-7.69565e-05
6.63162e-06
-1.08189e-06
-7.668e-05
7.17604e-06
-1.17829e-06
-7.6178e-05
7.79003e-06
-1.7411e-06
-7.5195e-05
7.64725e-06
-2.10073e-06
-7.38417e-05
7.2024e-06
-2.73509e-06
-7.20893e-05
6.50687e-06
-3.12958e-06
-7.00435e-05
5.38432e-06
-3.46774e-06
-6.76768e-05
3.80728e-06
-3.58189e-06
-6.50697e-05
2.10427e-06
-3.71701e-06
-6.23621e-05
1.63741e-07
-3.66582e-06
-5.96311e-05
-1.78231e-06
-3.46698e-06
-5.71764e-05
-3.44191e-06
-3.05122e-06
-5.51046e-05
-5.21102e-06
-2.50675e-06
-5.35128e-05
-6.62457e-06
-1.96289e-06
-5.22961e-05
-7.7446e-06
-1.64291e-06
-5.12951e-05
-8.46121e-06
-1.4949e-06
-5.00715e-05
-8.69874e-06
-1.69867e-06
-4.83438e-05
-8.68957e-06
-2.21595e-06
-4.60247e-05
-8.53625e-06
-2.81512e-06
-4.27172e-05
-8.34644e-06
-3.34261e-06
-3.88633e-05
-7.97667e-06
-3.60974e-06
-3.43503e-05
-7.98843e-06
-3.61959e-06
-2.87999e-05
-8.34531e-06
-3.27728e-06
-2.28419e-05
-8.14741e-06
-2.53167e-06
-1.69843e-05
-7.20979e-06
-1.8244e-06
-1.10578e-05
-5.83961e-06
-1.40178e-06
-5.62588e-06
-4.05217e-06
-8.99326e-07
-1.03342e-06
-2.78944e-06
7.01108e-08
1.22473e-06
-2.23139e-06
2.76694e-06
-1.628e-06
8.37039e-06
-3.8848e-06
1.37359e-06
2.93643e-06
-2.34257e-06
-2.50231e-06
-1.92514e-06
-2.10295e-06
-1.56864e-07
-1.26761e-06
-1.52138e-06
-8.86553e-07
-1.98287e-06
-9.39326e-07
-1.69576e-06
-1.51163e-06
-7.765e-07
-2.12655e-06
-9.20302e-07
-5.66921e-07
-2.32471e-06
-5.16812e-07
-1.19217e-07
-2.29136e-06
-4.21058e-07
5.75594e-07
-1.96612e-06
-3.92137e-07