/*--------------------------------*- C++ -*----------------------------------*\
| =========                 |                                                 |
| \\      /  F ield         | OpenFOAM: The Open Source CFD Toolbox           |
|  \\    /   O peration     | Version:  2.3.0                                 |
|   \\  /    A nd           | Web:      www.OpenFOAM.org                      |
|    \\/     M anipulation  |                                                 |
\*---------------------------------------------------------------------------*/
FoamFile
{
    version     2.0;
    format      ascii;
    class       volScalarField;
    location    "10";
    object      rho;
}
// * * * * * * * * * * * * * * * * * * * * * * * * * * * * * * * * * * * * * //

dimensions      [1 -3 0 0 0 0 0];

internalField   nonuniform List<scalar> 
6144
(
1.16809
1.16835
1.16869
1.16878
1.16886
1.16889
1.16888
1.16889
1.16889
1.16889
1.16889
1.1689
1.1689
1.1689
1.1689
1.1689
1.16891
1.16891
1.16891
1.16891
1.16891
1.16892
1.16892
1.16892
1.16892
1.16892
1.16892
1.16893
1.16893
1.16893
1.16893
1.16893
1.16893
1.16894
1.16894
1.16894
1.16894
1.16894
1.16894
1.16895
1.16895
1.16895
1.16895
1.16895
1.16896
1.16902
1.17103
1.18104
1.19106
1.19342
1.19316
1.19592
1.19943
1.20337
1.20582
1.2101
1.21153
1.2127
2.29155
56.2815
977.096
1026.69
1027.09
1027.09
1027.1
1027.1
1027.1
1027.1
1027.1
1027.1
1027.1
1027.1
1027.1
1027.1
1027.1
1027.1
1027.1
1027.1
1027.1
1027.1
1027.1
1027.1
1027.1
1027.1
1027.1
1027.1
1027.1
1027.1
1027.1
1027.1
1027.1
1027.1
1027.1
1027.1
1027.1
1027.1
1.1679
1.1681
1.16832
1.16848
1.1687
1.16881
1.16883
1.16887
1.16888
1.16889
1.16889
1.1689
1.1689
1.1689
1.1689
1.1689
1.1689
1.16891
1.16891
1.16891
1.16891
1.16891
1.16892
1.16892
1.16892
1.16892
1.16892
1.16892
1.16893
1.16893
1.16893
1.16893
1.16893
1.16893
1.16893
1.16894
1.16894
1.16894
1.16894
1.16894
1.16895
1.16895
1.16895
1.16895
1.16896
1.16931
1.17334
1.17992
1.1831
1.18291
1.18648
1.19367
1.19982
1.20997
1.21618
1.22635
1.22607
1.22977
1.66522
37.8591
978.217
1026.91
1027.09
1027.09
1027.1
1027.1
1027.1
1027.1
1027.1
1027.1
1027.1
1027.1
1027.1
1027.1
1027.1
1027.1
1027.1
1027.1
1027.1
1027.1
1027.1
1027.1
1027.1
1027.1
1027.1
1027.1
1027.1
1027.1
1027.1
1027.1
1027.1
1027.1
1027.1
1027.1
1027.1
1027.1
1.1679
1.16805
1.16817
1.16834
1.1685
1.16867
1.1687
1.16879
1.16882
1.16886
1.16889
1.1689
1.1689
1.1689
1.1689
1.16891
1.16891
1.16891
1.16891
1.16891
1.16891
1.16892
1.16892
1.16892
1.16892
1.16892
1.16892
1.16892
1.16893
1.16893
1.16893
1.16893
1.16893
1.16894
1.16894
1.16894
1.16894
1.16894
1.16894
1.16895
1.16895
1.16895
1.16895
1.16895
1.16896
1.169
1.17007
1.17401
1.17577
1.17612
1.18929
1.20468
1.21598
1.22854
1.23332
1.24179
1.23809
1.23955
1.395
45.3833
995.721
1027.05
1027.09
1027.09
1027.1
1027.1
1027.1
1027.1
1027.1
1027.1
1027.1
1027.1
1027.1
1027.1
1027.1
1027.1
1027.1
1027.1
1027.1
1027.1
1027.1
1027.1
1027.1
1027.1
1027.1
1027.1
1027.1
1027.1
1027.1
1027.1
1027.1
1027.1
1027.1
1027.1
1027.1
1027.1
1.16789
1.168
1.16815
1.1683
1.16847
1.1686
1.16866
1.16875
1.16876
1.16882
1.16886
1.16889
1.1689
1.1689
1.1689
1.16891
1.16891
1.16891
1.16891
1.16891
1.16891
1.16892
1.16892
1.16892
1.16892
1.16892
1.16892
1.16893
1.16893
1.16893
1.16893
1.16893
1.16893
1.16894
1.16894
1.16894
1.16894
1.16894
1.16894
1.16895
1.16895
1.16895
1.16895
1.16895
1.16896
1.169
1.1691
1.1697
1.1708
1.17767
1.20409
1.22164
1.23155
1.23987
1.24219
1.25049
1.24096
1.24079
1.26632
52.1069
996.327
1027.06
1027.09
1027.09
1027.09
1027.09
1027.1
1027.1
1027.1
1027.1
1027.09
1027.1
1027.1
1027.1
1027.1
1027.1
1027.1
1027.1
1027.1
1027.1
1027.1
1027.1
1027.1
1027.1
1027.1
1027.1
1027.1
1027.1
1027.1
1027.1
1027.1
1027.1
1027.1
1027.1
1027.1
1027.1
1.16778
1.16778
1.16808
1.16813
1.1683
1.16839
1.16866
1.16878
1.16881
1.16884
1.16885
1.16889
1.1689
1.1689
1.1689
1.16891
1.16891
1.16891
1.16891
1.16891
1.16891
1.16892
1.16892
1.16892
1.16892
1.16892
1.16892
1.16893
1.16893
1.16893
1.16893
1.16893
1.16893
1.16894
1.16894
1.16894
1.16894
1.16894
1.16894
1.16895
1.16895
1.16895
1.16895
1.16895
1.16897
1.16901
1.16909
1.16926
1.17001
1.18344
1.21705
1.23334
1.23783
1.24272
1.2446
1.25524
1.24301
1.24135
1.27208
89.4539
993.559
1026.96
1027
1027.02
1027.01
1027.01
1027
1027
1027
1027.01
1027.01
1027.02
1027.03
1027.04
1027.05
1027.06
1027.07
1027.08
1027.09
1027.09
1027.1
1027.1
1027.1
1027.1
1027.1
1027.1
1027.1
1027.1
1027.1
1027.1
1027.1
1027.1
1027.1
1027.1
1027.1
1027.1
1.16757
1.16745
1.16792
1.16789
1.16798
1.16803
1.16829
1.16856
1.16879
1.16886
1.16887
1.16889
1.16889
1.1689
1.1689
1.1689
1.1689
1.16891
1.16891
1.16891
1.16891
1.16891
1.16891
1.16892
1.16892
1.16892
1.16892
1.16892
1.16892
1.16893
1.16893
1.16893
1.16893
1.16893
1.16893
1.16894
1.16894
1.16894
1.16894
1.16894
1.16894
1.16895
1.16895
1.16896
1.16898
1.16904
1.16912
1.16945
1.17049
1.18472
1.22425
1.23634
1.23824
1.24293
1.24485
1.25647
1.23828
1.2439
1.20246
186.341
998.137
1024.79
1024.9
1025.02
1024.84
1024.66
1024.45
1024.31
1024.22
1024.19
1024.3
1024.44
1024.63
1024.87
1025.15
1025.47
1025.81
1026.16
1026.46
1026.71
1026.91
1027.03
1027.08
1027.1
1027.1
1027.1
1027.1
1027.1
1027.1
1027.1
1027.1
1027.1
1027.1
1027.1
1027.1
1027.1
1.16728
1.16702
1.16764
1.16762
1.16783
1.16789
1.16792
1.16808
1.16847
1.1688
1.16887
1.1689
1.1689
1.1689
1.1689
1.16891
1.16891
1.16891
1.16891
1.16891
1.16891
1.16892
1.16892
1.16892
1.16892
1.16892
1.16892
1.16893
1.16893
1.16893
1.16893
1.16893
1.16894
1.16894
1.16894
1.16894
1.16894
1.16895
1.16895
1.16895
1.16895
1.16895
1.16895
1.16896
1.16899
1.16905
1.16918
1.16973
1.17118
1.18029
1.21778
1.23274
1.22873
1.24006
1.24852
1.25884
1.24695
1.25152
1.20246
317.805
1009.48
1016.19
1015.93
1015.74
1015.44
1015.05
1014.75
1014.55
1014.42
1014.39
1014.63
1014.85
1015.16
1015.53
1015.99
1016.59
1017.32
1018.21
1019.33
1020.57
1021.93
1023.28
1024.57
1025.67
1026.48
1026.89
1027.07
1027.08
1027.1
1027.1
1027.1
1027.1
1027.1
1027.1
1027.1
1027.1
1.16699
1.1667
1.16708
1.16718
1.16766
1.16781
1.16779
1.16777
1.16793
1.1685
1.16881
1.16888
1.1689
1.1689
1.1689
1.16891
1.16891
1.16891
1.16891
1.16891
1.16892
1.16892
1.16892
1.16892
1.16892
1.16893
1.16893
1.16893
1.16893
1.16893
1.16894
1.16894
1.16894
1.16894
1.16894
1.16894
1.16895
1.16895
1.16895
1.16895
1.16895
1.16895
1.16895
1.16896
1.16899
1.16906
1.16921
1.17004
1.17226
1.19109
1.22458
1.22754
1.21377
1.21385
1.21873
1.22067
1.21965
1.22358
1.20246
358.675
1003.36
1010.44
1010.03
1009.8
1009.68
1009.57
1009.46
1009.32
1009.24
1009.06
1008.88
1008.79
1008.78
1008.74
1008.75
1008.97
1009.06
1009.17
1009.29
1009.36
1009.46
1009.52
1009.52
1009.36
1009.13
1008.89
1008.53
1007.85
1006.94
1006.03
1005.21
1004.62
1004.28
1004.2
1007.04
1010.86
1.1664
1.1668
1.16665
1.16671
1.16714
1.1676
1.16772
1.16761
1.1675
1.16807
1.1687
1.16888
1.16889
1.1689
1.1689
1.1689
1.1689
1.1689
1.16891
1.16891
1.16891
1.16891
1.16892
1.16892
1.16892
1.16892
1.16892
1.16892
1.16893
1.16893
1.16893
1.16893
1.16893
1.16893
1.16893
1.16894
1.16894
1.16894
1.16894
1.16894
1.16894
1.16895
1.16895
1.16896
1.16897
1.16901
1.16908
1.17016
1.17384
1.19514
1.22281
1.21939
1.21094
1.2126
1.21453
1.21517
1.2149
1.21173
1.20246
226.355
995.056
1016.03
1015.93
1016.34
1016.45
1016.3
1016.24
1016.14
1015.92
1015.67
1015.27
1014.81
1014.2
1013.61
1013.03
1012.48
1012.07
1011.67
1010.99
1010.38
1009.83
1009.27
1008.74
1008.32
1007.9
1007.42
1006.87
1006.51
1006.41
1006.77
1007.3
1008.69
1010.83
1014.42
1019.45
1023.49
1.16615
1.16698
1.16683
1.16662
1.16653
1.16717
1.16756
1.16749
1.16722
1.16775
1.16861
1.16888
1.1689
1.1689
1.1689
1.1689
1.1689
1.16891
1.16891
1.16891
1.16891
1.16891
1.16891
1.16892
1.16892
1.16892
1.16892
1.16892
1.16893
1.16893
1.16893
1.16893
1.16893
1.16893
1.16894
1.16894
1.16894
1.16894
1.16894
1.16895
1.16895
1.16895
1.16896
1.16896
1.16897
1.169
1.1692
1.17116
1.17632
1.19072
1.21894
1.22604
1.2118
1.21284
1.21977
1.22229
1.22241
1.21293
1.20246
131.683
994.165
1024.09
1024.4
1024.92
1025.04
1025.05
1024.94
1024.89
1024.83
1024.75
1024.65
1024.52
1024.35
1024.15
1023.9
1023.64
1023.4
1023.17
1022.85
1022.45
1021.94
1021.34
1020.62
1019.84
1019
1018.17
1017.54
1017.31
1017.31
1018.17
1019.51
1021.33
1023.2
1024.99
1026.24
1026.76
1.16272
1.16635
1.16691
1.16664
1.16638
1.16681
1.1672
1.16729
1.167
1.16739
1.16847
1.16886
1.1689
1.16891
1.16891
1.16891
1.16891
1.16891
1.16891
1.16891
1.16891
1.16892
1.16892
1.16892
1.16892
1.16892
1.16893
1.16893
1.16893
1.16893
1.16893
1.16893
1.16894
1.16894
1.16894
1.16894
1.16894
1.16894
1.16895
1.16895
1.16895
1.16896
1.16896
1.16897
1.16898
1.16903
1.16933
1.17126
1.17583
1.18368
1.21377
1.23064
1.22324
1.21597
1.21483
1.22119
1.22997
1.22492
1.20246
90.5638
1005.32
1026.82
1026.89
1026.94
1026.95
1026.95
1026.93
1026.91
1026.9
1026.89
1026.88
1026.86
1026.84
1026.82
1026.8
1026.78
1026.76
1026.74
1026.7
1026.66
1026.59
1026.52
1026.44
1026.36
1026.28
1026.21
1026.16
1026.16
1026.2
1026.34
1026.53
1026.77
1026.93
1027.04
1027.08
1027.09
1.16367
1.16559
1.16573
1.16583
1.16581
1.16625
1.16668
1.16694
1.16665
1.1671
1.16832
1.16883
1.16891
1.16891
1.16891
1.16891
1.16892
1.16892
1.16892
1.16892
1.16892
1.16892
1.16893
1.16893
1.16893
1.16893
1.16893
1.16893
1.16894
1.16894
1.16894
1.16894
1.16894
1.16894
1.16895
1.16895
1.16895
1.16895
1.16895
1.16895
1.16896
1.16896
1.16896
1.16897
1.169
1.16913
1.16957
1.17185
1.17783
1.18699
1.2125
1.22746
1.23154
1.2296
1.22583
1.22863
1.23028
1.23871
1.23718
74.371
1016.57
1027.09
1027.09
1027.09
1027.09
1027.1
1027.1
1027.1
1027.09
1027.09
1027.1
1027.1
1027.1
1027.09
1027.09
1027.1
1027.1
1027.1
1027.1
1027.1
1027.1
1027.09
1027.09
1027.09
1027.09
1027.09
1027.09
1027.09
1027.09
1027.09
1027.1
1027.1
1027.1
1027.1
1027.1
1027.1
1.1632
1.16447
1.16452
1.16479
1.16502
1.16538
1.16589
1.16621
1.1661
1.16682
1.1682
1.16882
1.16891
1.16891
1.16891
1.16891
1.16892
1.16892
1.16892
1.16892
1.16892
1.16892
1.16893
1.16893
1.16893
1.16893
1.16893
1.16893
1.16893
1.16894
1.16894
1.16894
1.16894
1.16894
1.16894
1.16895
1.16895
1.16895
1.16895
1.16895
1.16895
1.16896
1.16896
1.16897
1.16901
1.16926
1.16995
1.17281
1.18068
1.19296
1.21161
1.22419
1.23004
1.23356
1.23647
1.24247
1.2401
1.24229
1.31997
32.6856
988.679
1027.09
1027.09
1027.09
1027.09
1027.1
1027.1
1027.1
1027.1
1027.1
1027.1
1027.1
1027.1
1027.1
1027.1
1027.1
1027.1
1027.1
1027.1
1027.1
1027.1
1027.1
1027.1
1027.1
1027.1
1027.1
1027.1
1027.1
1027.1
1027.1
1027.1
1027.1
1027.1
1027.1
1027.1
1027.1
1.16279
1.16377
1.16387
1.16412
1.16444
1.16483
1.16523
1.16548
1.16553
1.16664
1.16821
1.16882
1.1689
1.16891
1.16891
1.16891
1.16891
1.16891
1.16892
1.16892
1.16892
1.16892
1.16892
1.16892
1.16893
1.16893
1.16893
1.16893
1.16893
1.16893
1.16894
1.16894
1.16894
1.16894
1.16894
1.16894
1.16895
1.16895
1.16895
1.16895
1.16895
1.16896
1.16896
1.16897
1.16904
1.16934
1.17031
1.17408
1.18319
1.19428
1.20699
1.21917
1.22356
1.2302
1.23844
1.24359
1.23968
1.2445
1.39088
37.335
981.992
1027.09
1027.09
1027.09
1027.09
1027.1
1027.1
1027.1
1027.1
1027.1
1027.1
1027.1
1027.1
1027.1
1027.1
1027.1
1027.1
1027.1
1027.1
1027.1
1027.1
1027.1
1027.1
1027.1
1027.1
1027.1
1027.1
1027.1
1027.1
1027.1
1027.1
1027.1
1027.1
1027.1
1027.1
1027.1
1.16251
1.16339
1.16362
1.16397
1.16418
1.16437
1.16443
1.16442
1.16518
1.16682
1.16829
1.16884
1.1689
1.1689
1.1689
1.16891
1.16891
1.16891
1.16891
1.16891
1.16892
1.16892
1.16892
1.16892
1.16892
1.16892
1.16893
1.16893
1.16893
1.16893
1.16893
1.16893
1.16894
1.16894
1.16894
1.16894
1.16894
1.16895
1.16895
1.16895
1.16895
1.16895
1.16895
1.16897
1.16904
1.1693
1.17034
1.17453
1.18361
1.19395
1.2033
1.21252
1.2175
1.22486
1.23324
1.23941
1.23633
1.24077
1.49646
40.6138
986.939
1027.05
1027.09
1027.09
1027.1
1027.1
1027.1
1027.1
1027.1
1027.1
1027.1
1027.1
1027.1
1027.1
1027.1
1027.1
1027.1
1027.1
1027.1
1027.1
1027.1
1027.1
1027.1
1027.1
1027.1
1027.1
1027.1
1027.1
1027.1
1027.1
1027.1
1027.1
1027.1
1027.1
1027.1
1027.1
1.16213
1.16262
1.16282
1.16302
1.16318
1.1634
1.16378
1.16469
1.1659
1.1674
1.16853
1.16887
1.16891
1.16891
1.16891
1.16891
1.16892
1.16892
1.16892
1.16892
1.16892
1.16892
1.16893
1.16893
1.16893
1.16893
1.16893
1.16893
1.16894
1.16894
1.16894
1.16894
1.16894
1.16895
1.16895
1.16895
1.16895
1.16895
1.16895
1.16896
1.16896
1.16896
1.16896
1.16897
1.16902
1.16917
1.16998
1.17402
1.18329
1.19447
1.20473
1.21206
1.21508
1.21797
1.22355
1.23041
1.2249
1.22929
1.89979
46.3182
982.081
1026.81
1027.09
1027.09
1027.09
1027.1
1027.1
1027.1
1027.1
1027.1
1027.1
1027.1
1027.1
1027.1
1027.1
1027.1
1027.1
1027.1
1027.1
1027.1
1027.1
1027.1
1027.1
1027.1
1027.1
1027.1
1027.1
1027.1
1027.1
1027.1
1027.1
1027.1
1027.1
1027.1
1027.1
1027.1
1.16777
1.16792
1.16809
1.16818
1.16834
1.16845
1.16864
1.16879
1.16887
1.1689
1.16891
1.16891
1.16891
1.16891
1.16891
1.16891
1.16892
1.16892
1.16892
1.16892
1.16892
1.16892
1.16893
1.16893
1.16893
1.16893
1.16893
1.16893
1.16894
1.16894
1.16894
1.16894
1.16894
1.16894
1.16895
1.16895
1.16895
1.16895
1.16895
1.16895
1.16896
1.16896
1.16896
1.16896
1.16896
1.169
1.17065
1.17991
1.18991
1.19319
1.194
1.19789
1.20192
1.20416
1.20533
1.20857
1.20893
1.22467
1.79232
41.5906
982.207
1026.88
1027.09
1027.09
1027.1
1027.1
1027.1
1027.1
1027.1
1027.1
1027.1
1027.1
1027.1
1027.1
1027.1
1027.1
1027.1
1027.1
1027.1
1027.1
1027.1
1027.1
1027.1
1027.1
1027.1
1027.1
1027.1
1027.1
1027.1
1027.1
1027.1
1027.1
1027.1
1027.1
1027.1
1027.1
1.16766
1.16768
1.16763
1.16763
1.16763
1.16769
1.16782
1.16804
1.16843
1.16875
1.16887
1.1689
1.16891
1.16891
1.16891
1.16891
1.16891
1.16892
1.16892
1.16892
1.16892
1.16892
1.16892
1.16893
1.16893
1.16893
1.16893
1.16893
1.16893
1.16894
1.16894
1.16894
1.16894
1.16894
1.16894
1.16895
1.16895
1.16895
1.16895
1.16895
1.16895
1.16895
1.16896
1.16896
1.16897
1.16925
1.17281
1.17976
1.18479
1.18564
1.18948
1.20167
1.21176
1.21454
1.21461
1.21578
1.21611
1.23686
1.5317
62.5897
999.351
1027.08
1027.09
1027.09
1027.1
1027.1
1027.1
1027.1
1027.1
1027.1
1027.1
1027.1
1027.1
1027.1
1027.1
1027.1
1027.1
1027.1
1027.1
1027.1
1027.1
1027.1
1027.1
1027.1
1027.1
1027.1
1027.1
1027.1
1027.1
1027.1
1027.1
1027.1
1027.1
1027.1
1027.1
1027.1
1.16779
1.16796
1.16793
1.16796
1.16779
1.1677
1.16761
1.16761
1.16782
1.16829
1.16871
1.16887
1.16891
1.16891
1.16891
1.16891
1.16892
1.16892
1.16892
1.16892
1.16892
1.16892
1.16893
1.16893
1.16893
1.16893
1.16893
1.16893
1.16893
1.16894
1.16894
1.16894
1.16894
1.16894
1.16894
1.16895
1.16895
1.16895
1.16895
1.16895
1.16895
1.16896
1.16896
1.16897
1.16898
1.16905
1.1705
1.17486
1.17728
1.17974
1.20588
1.22504
1.22451
1.22398
1.22271
1.21857
1.21607
1.23358
1.45187
73.6092
1001.58
1027.09
1027.09
1027.09
1027.09
1027.1
1027.1
1027.1
1027.1
1027.1
1027.1
1027.1
1027.1
1027.1
1027.1
1027.1
1027.1
1027.1
1027.1
1027.1
1027.1
1027.1
1027.1
1027.1
1027.1
1027.1
1027.1
1027.1
1027.1
1027.1
1027.1
1027.1
1027.1
1027.1
1027.1
1027.1
1.16764
1.16804
1.16809
1.16818
1.16821
1.16815
1.16785
1.16768
1.16768
1.16788
1.16849
1.16881
1.1689
1.16891
1.16891
1.16891
1.16891
1.16891
1.16891
1.16892
1.16892
1.16892
1.16892
1.16892
1.16892
1.16893
1.16893
1.16893
1.16893
1.16893
1.16893
1.16893
1.16894
1.16894
1.16894
1.16894
1.16894
1.16894
1.16895
1.16895
1.16895
1.16895
1.16896
1.16897
1.16901
1.16906
1.16913
1.16976
1.1705
1.20028
1.23938
1.23561
1.22696
1.22529
1.22003
1.21812
1.22892
1.2308
1.29583
87.8114
1006.72
1027.09
1027.08
1027.08
1027.08
1027.08
1027.07
1027.07
1027.07
1027.07
1027.06
1027.06
1027.06
1027.07
1027.07
1027.08
1027.09
1027.09
1027.09
1027.1
1027.1
1027.1
1027.1
1027.1
1027.1
1027.1
1027.1
1027.1
1027.1
1027.1
1027.1
1027.1
1027.1
1027.1
1027.1
1027.1
1.16726
1.16794
1.16798
1.16816
1.16827
1.16834
1.16823
1.16791
1.16768
1.16777
1.16832
1.16877
1.16889
1.1689
1.16891
1.16891
1.16891
1.16891
1.16891
1.16891
1.16892
1.16892
1.16892
1.16892
1.16892
1.16892
1.16892
1.16893
1.16893
1.16893
1.16893
1.16893
1.16893
1.16894
1.16894
1.16894
1.16894
1.16894
1.16894
1.16895
1.16895
1.16895
1.16896
1.16898
1.16905
1.16921
1.16941
1.16969
1.17027
1.226
1.25284
1.24124
1.23679
1.23444
1.22936
1.22991
1.22525
1.21709
1.20691
130.339
1013.71
1026.51
1026.51
1026.55
1026.42
1026.31
1026.19
1026.08
1025.97
1025.9
1025.85
1025.83
1025.86
1025.93
1026.06
1026.24
1026.44
1026.63
1026.79
1026.92
1027.01
1027.06
1027.09
1027.1
1027.1
1027.1
1027.1
1027.1
1027.1
1027.1
1027.1
1027.1
1027.1
1027.1
1027.1
1027.1
1.1671
1.16739
1.16755
1.16787
1.16821
1.16835
1.16838
1.16817
1.16781
1.16775
1.16825
1.16875
1.16889
1.1689
1.1689
1.16891
1.16891
1.16891
1.16891
1.16891
1.16891
1.16891
1.16892
1.16892
1.16892
1.16892
1.16892
1.16892
1.16893
1.16893
1.16893
1.16893
1.16893
1.16893
1.16894
1.16894
1.16894
1.16894
1.16894
1.16895
1.16895
1.16895
1.16895
1.16897
1.16904
1.16924
1.16965
1.17069
1.17217
1.22661
1.2684
1.25063
1.23872
1.23342
1.23229
1.22911
1.21898
1.20779
1.20246
280.047
1014.82
1021.28
1021.25
1021.27
1020.76
1020.26
1019.69
1019.21
1018.84
1018.58
1018.42
1018.31
1018.26
1018.46
1018.81
1019.41
1020.16
1021.01
1022
1023.1
1024.22
1025.25
1026.07
1026.63
1026.93
1027.05
1027.09
1027.09
1027.1
1027.1
1027.1
1027.1
1027.1
1027.1
1027.1
1027.1
1.16674
1.16654
1.16698
1.16741
1.16797
1.16832
1.16841
1.16834
1.16795
1.16775
1.16823
1.16874
1.16889
1.1689
1.1689
1.16891
1.16891
1.16891
1.16891
1.16891
1.16891
1.16891
1.16892
1.16892
1.16892
1.16892
1.16892
1.16892
1.16893
1.16893
1.16893
1.16893
1.16893
1.16893
1.16894
1.16894
1.16894
1.16894
1.16894
1.16895
1.16895
1.16895
1.16895
1.16897
1.16902
1.16925
1.16983
1.17122
1.17305
1.18576
1.27671
1.27742
1.27454
1.2694
1.26697
1.26623
1.26588
1.27524
1.20246
484.371
1007.1
1010.1
1009.92
1009.63
1009.31
1008.88
1008.55
1008.29
1008.09
1007.95
1007.8
1007.64
1007.53
1007.46
1007.4
1007.38
1007.67
1007.96
1008.35
1009.27
1010.5
1012.32
1014.47
1016.94
1019.55
1021.91
1023.73
1025.06
1026.03
1026.42
1026.61
1026.78
1026.75
1027.06
1026.98
1026.16
1.16628
1.16575
1.16628
1.16673
1.16747
1.16792
1.16839
1.16843
1.1681
1.16778
1.16831
1.16876
1.16889
1.1689
1.1689
1.16891
1.16891
1.16891
1.16891
1.16891
1.16891
1.16892
1.16892
1.16892
1.16892
1.16892
1.16892
1.16893
1.16893
1.16893
1.16893
1.16893
1.16893
1.16894
1.16894
1.16894
1.16894
1.16894
1.16894
1.16895
1.16895
1.16895
1.16895
1.16896
1.16902
1.16933
1.16999
1.17138
1.17317
1.20789
1.25394
1.23241
1.22935
1.24694
1.25766
1.25779
1.25119
1.25196
1.23279
430.691
1000.03
1005.52
1005.41
1005.26
1005.26
1005.26
1005.25
1005.48
1005.16
1005.02
1005
1005.01
1004.97
1004.67
1004.2
1003.47
1002.58
1001.5
1000.27
999.241
998.418
997.532
996.717
995.583
994.256
992.841
991.318
989.348
986.937
983.5
977.857
969.329
955.931
933.295
878.666
658.652
1.16584
1.16551
1.16533
1.16555
1.16648
1.16722
1.16802
1.16844
1.16819
1.16784
1.16836
1.16878
1.16889
1.1689
1.16891
1.16891
1.16891
1.16891
1.16891
1.16891
1.16892
1.16892
1.16892
1.16892
1.16892
1.16892
1.16893
1.16893
1.16893
1.16893
1.16893
1.16893
1.16894
1.16894
1.16894
1.16894
1.16894
1.16894
1.16895
1.16895
1.16895
1.16895
1.16895
1.16897
1.16903
1.16937
1.17006
1.17135
1.17341
1.20632
1.24015
1.21896
1.21319
1.21573
1.22196
1.22912
1.24177
1.26095
1.26498
215.993
1002.93
1017.6
1018.29
1019.59
1020.21
1020.36
1019.7
1019.22
1018.75
1018.42
1018.14
1017.83
1017.51
1017.33
1017.31
1016.92
1016.28
1015.52
1014.63
1013.51
1011.92
1009.65
1006.71
1003.53
1000.14
996.514
992.702
988.79
984.565
981.075
978.259
973.475
966.417
958.073
952.151
956.064
1.16502
1.16575
1.16536
1.16506
1.1653
1.16611
1.16734
1.1683
1.1682
1.1677
1.16839
1.16879
1.1689
1.16891
1.16891
1.16891
1.16891
1.16891
1.16891
1.16892
1.16892
1.16892
1.16892
1.16892
1.16892
1.16893
1.16893
1.16893
1.16893
1.16893
1.16893
1.16894
1.16894
1.16894
1.16894
1.16894
1.16894
1.16895
1.16895
1.16895
1.16895
1.16895
1.16895
1.16896
1.169
1.16936
1.17012
1.17132
1.17384
1.18391
1.23933
1.22689
1.21719
1.21602
1.21747
1.22247
1.2301
1.25772
1.2593
124.527
1009.18
1025.25
1025.54
1025.97
1026.1
1026.18
1026.12
1026.04
1025.98
1025.91
1025.8
1025.64
1025.48
1025.34
1025.21
1025.11
1025
1024.96
1024.93
1024.79
1024.51
1023.91
1023.04
1021.92
1020.71
1019.43
1018.14
1016.89
1015.44
1013.93
1012.52
1011.76
1011.68
1015.18
1019.46
1023.79
1.16302
1.16545
1.16539
1.16473
1.16445
1.16525
1.1666
1.16796
1.16803
1.16757
1.16839
1.1688
1.1689
1.16891
1.16891
1.16891
1.16891
1.16891
1.16891
1.16892
1.16892
1.16892
1.16892
1.16892
1.16892
1.16893
1.16893
1.16893
1.16893
1.16893
1.16893
1.16894
1.16894
1.16894
1.16894
1.16894
1.16894
1.16895
1.16895
1.16895
1.16895
1.16895
1.16895
1.16896
1.16901
1.16943
1.17022
1.17146
1.17438
1.17777
1.23276
1.23548
1.23184
1.22808
1.22992
1.23879
1.24921
1.26468
1.27375
84.7537
1017.85
1026.95
1026.97
1027.01
1027.02
1027.03
1027.03
1027.03
1027.03
1027.03
1027.02
1027.02
1027
1026.99
1026.96
1026.95
1026.94
1026.95
1026.96
1026.95
1026.94
1026.89
1026.83
1026.75
1026.67
1026.62
1026.61
1026.63
1026.63
1026.65
1026.65
1026.63
1026.74
1026.91
1027.01
1027.07
1.16328
1.16401
1.16384
1.16364
1.16368
1.16433
1.1658
1.16763
1.16768
1.16737
1.16841
1.16882
1.1689
1.16891
1.16891
1.16891
1.16891
1.16891
1.16891
1.16892
1.16892
1.16892
1.16892
1.16892
1.16892
1.16893
1.16893
1.16893
1.16893
1.16893
1.16893
1.16894
1.16894
1.16894
1.16894
1.16894
1.16894
1.16895
1.16895
1.16895
1.16895
1.16895
1.16895
1.16896
1.16902
1.16945
1.17026
1.172
1.17558
1.1822
1.21994
1.23768
1.23758
1.2389
1.24856
1.26763
1.27182
1.28207
1.36343
47.663
1016.18
1027.09
1027.09
1027.09
1027.09
1027.09
1027.09
1027.09
1027.09
1027.09
1027.09
1027.09
1027.09
1027.09
1027.09
1027.09
1027.1
1027.1
1027.1
1027.1
1027.1
1027.09
1027.09
1027.09
1027.09
1027.09
1027.1
1027.1
1027.1
1027.1
1027.1
1027.1
1027.1
1027.1
1027.1
1027.1
1.16265
1.16309
1.16297
1.16291
1.16314
1.16363
1.16507
1.16727
1.1671
1.16712
1.1684
1.16884
1.1689
1.16891
1.16891
1.16891
1.16891
1.16891
1.16891
1.16892
1.16892
1.16892
1.16892
1.16892
1.16892
1.16892
1.16893
1.16893
1.16893
1.16893
1.16893
1.16893
1.16893
1.16894
1.16894
1.16894
1.16894
1.16894
1.16894
1.16895
1.16895
1.16895
1.16895
1.16896
1.16902
1.16937
1.17029
1.17285
1.17674
1.18376
1.20554
1.23429
1.23544
1.24669
1.27314
1.29305
1.2829
1.29754
1.51919
33.4791
998.529
1027.09
1027.09
1027.09
1027.09
1027.09
1027.1
1027.1
1027.1
1027.1
1027.1
1027.1
1027.1
1027.1
1027.1
1027.1
1027.1
1027.1
1027.1
1027.1
1027.1
1027.1
1027.1
1027.1
1027.1
1027.1
1027.1
1027.1
1027.1
1027.1
1027.1
1027.1
1027.1
1027.1
1027.1
1027.1
1.16233
1.1625
1.1625
1.16243
1.16271
1.16334
1.16513
1.16688
1.16624
1.16706
1.16841
1.16884
1.1689
1.1689
1.1689
1.1689
1.1689
1.16891
1.16891
1.16891
1.16891
1.16891
1.16891
1.16891
1.16892
1.16892
1.16892
1.16892
1.16892
1.16892
1.16893
1.16893
1.16893
1.16893
1.16893
1.16893
1.16893
1.16894
1.16894
1.16894
1.16894
1.16894
1.16895
1.16895
1.169
1.16928
1.1704
1.17373
1.17794
1.18089
1.1891
1.20943
1.21982
1.24757
1.28602
1.29612
1.26927
1.33481
1.68876
33.9337
980.072
1027.09
1027.09
1027.09
1027.09
1027.1
1027.1
1027.1
1027.1
1027.1
1027.1
1027.1
1027.1
1027.1
1027.1
1027.1
1027.1
1027.1
1027.1
1027.1
1027.1
1027.1
1027.1
1027.1
1027.1
1027.1
1027.1
1027.1
1027.1
1027.1
1027.1
1027.1
1027.1
1027.1
1027.1
1027.1
1.16213
1.16228
1.1623
1.1624
1.1631
1.16423
1.16534
1.16588
1.16574
1.16734
1.16854
1.16886
1.1689
1.1689
1.1689
1.1689
1.1689
1.1689
1.1689
1.16891
1.16891
1.16891
1.16891
1.16891
1.16891
1.16892
1.16892
1.16892
1.16892
1.16892
1.16892
1.16893
1.16893
1.16893
1.16893
1.16893
1.16893
1.16894
1.16894
1.16894
1.16894
1.16894
1.16894
1.16895
1.16899
1.16919
1.17018
1.17407
1.18173
1.19051
1.1979
1.20414
1.21509
1.22545
1.2591
1.25761
1.24672
1.26796
1.56089
57.2678
987.444
1027.09
1027.09
1027.09
1027.1
1027.1
1027.1
1027.1
1027.1
1027.1
1027.1
1027.1
1027.1
1027.1
1027.1
1027.1
1027.1
1027.1
1027.1
1027.1
1027.1
1027.1
1027.1
1027.1
1027.1
1027.1
1027.1
1027.1
1027.1
1027.1
1027.1
1027.1
1027.1
1027.1
1027.1
1027.1
1.16195
1.16212
1.16229
1.16269
1.16311
1.16358
1.16432
1.16551
1.16686
1.16794
1.16866
1.16888
1.16891
1.16891
1.16891
1.16891
1.16891
1.16891
1.16892
1.16892
1.16892
1.16892
1.16892
1.16892
1.16893
1.16893
1.16893
1.16893
1.16893
1.16893
1.16894
1.16894
1.16894
1.16894
1.16894
1.16894
1.16895
1.16895
1.16895
1.16895
1.16895
1.16895
1.16896
1.16897
1.16901
1.16915
1.16999
1.17401
1.18287
1.19401
1.20463
1.21102
1.21218
1.21314
1.22077
1.2327
1.23501
1.24514
1.86446
53.7577
977.742
1026.8
1027.09
1027.09
1027.1
1027.1
1027.1
1027.1
1027.1
1027.1
1027.1
1027.1
1027.1
1027.1
1027.1
1027.1
1027.1
1027.1
1027.1
1027.1
1027.1
1027.1
1027.1
1027.1
1027.1
1027.1
1027.1
1027.1
1027.1
1027.1
1027.1
1027.1
1027.1
1027.1
1027.1
1027.1
1.1679
1.16807
1.1683
1.16842
1.16858
1.16867
1.16878
1.16886
1.16889
1.1689
1.1689
1.1689
1.1689
1.16891
1.16891
1.16891
1.16891
1.16891
1.16891
1.16892
1.16892
1.16892
1.16892
1.16892
1.16892
1.16893
1.16893
1.16893
1.16893
1.16893
1.16893
1.16894
1.16894
1.16894
1.16894
1.16894
1.16894
1.16895
1.16895
1.16895
1.16895
1.16895
1.16895
1.16895
1.16896
1.16897
1.17
1.17691
1.18655
1.1919
1.19506
1.1979
1.20063
1.2026
1.20424
1.20887
1.20848
1.26326
2.30859
46.9716
952.767
1026.47
1027.09
1027.09
1027.1
1027.1
1027.1
1027.1
1027.1
1027.1
1027.1
1027.1
1027.1
1027.1
1027.1
1027.1
1027.1
1027.1
1027.1
1027.1
1027.1
1027.1
1027.1
1027.1
1027.1
1027.1
1027.1
1027.1
1027.1
1027.1
1027.1
1027.1
1027.1
1027.1
1027.1
1027.1
1.16777
1.16778
1.16775
1.16786
1.16799
1.16813
1.16837
1.16858
1.16876
1.16886
1.16889
1.1689
1.1689
1.1689
1.16891
1.16891
1.16891
1.16891
1.16891
1.16891
1.16892
1.16892
1.16892
1.16892
1.16892
1.16892
1.16893
1.16893
1.16893
1.16893
1.16893
1.16893
1.16893
1.16894
1.16894
1.16894
1.16894
1.16894
1.16894
1.16895
1.16895
1.16895
1.16895
1.16895
1.16896
1.16906
1.17112
1.17753
1.18458
1.18852
1.19108
1.20094
1.20652
1.20266
1.2029
1.20498
1.2105
1.26831
1.88846
37.4347
971.808
1026.94
1027.09
1027.09
1027.1
1027.1
1027.1
1027.1
1027.1
1027.1
1027.1
1027.1
1027.1
1027.1
1027.1
1027.1
1027.1
1027.1
1027.1
1027.1
1027.1
1027.1
1027.1
1027.1
1027.1
1027.1
1027.1
1027.1
1027.1
1027.1
1027.1
1027.1
1027.1
1027.1
1027.1
1027.1
1.16785
1.16789
1.16775
1.16775
1.16777
1.16787
1.16803
1.16823
1.1685
1.16874
1.16885
1.16889
1.1689
1.1689
1.1689
1.16891
1.16891
1.16891
1.16891
1.16891
1.16891
1.16892
1.16892
1.16892
1.16892
1.16892
1.16892
1.16893
1.16893
1.16893
1.16893
1.16893
1.16893
1.16894
1.16894
1.16894
1.16894
1.16894
1.16894
1.16894
1.16894
1.16895
1.16895
1.16895
1.16896
1.16903
1.17053
1.17589
1.18097
1.18263
1.19434
1.21993
1.22108
1.21526
1.21054
1.20803
1.22383
1.28711
1.57793
53.0469
1002.6
1027.09
1027.09
1027.09
1027.1
1027.1
1027.1
1027.1
1027.1
1027.1
1027.1
1027.1
1027.1
1027.1
1027.1
1027.1
1027.1
1027.1
1027.1
1027.1
1027.1
1027.1
1027.1
1027.1
1027.1
1027.1
1027.1
1027.1
1027.1
1027.1
1027.1
1027.1
1027.1
1027.1
1027.1
1027.1
1.16764
1.16816
1.16785
1.16785
1.16784
1.16787
1.16793
1.16807
1.16831
1.16858
1.16879
1.16887
1.16889
1.1689
1.1689
1.1689
1.1689
1.1689
1.16891
1.16891
1.16891
1.16891
1.16891
1.16891
1.16892
1.16892
1.16892
1.16892
1.16892
1.16892
1.16892
1.16893
1.16893
1.16893
1.16893
1.16893
1.16893
1.16894
1.16894
1.16894
1.16894
1.16894
1.16894
1.16895
1.16896
1.169
1.16962
1.17334
1.17745
1.17944
1.22573
1.2328
1.22854
1.2226
1.21764
1.21501
1.25636
1.30388
1.34496
61.1608
1008.81
1027.09
1027.09
1027.09
1027.09
1027.09
1027.09
1027.09
1027.09
1027.09
1027.09
1027.09
1027.09
1027.09
1027.1
1027.1
1027.1
1027.1
1027.1
1027.1
1027.1
1027.1
1027.1
1027.1
1027.1
1027.1
1027.1
1027.1
1027.1
1027.1
1027.1
1027.1
1027.1
1027.1
1027.1
1027.1
1.16735
1.16847
1.16793
1.16794
1.16796
1.168
1.16798
1.16807
1.16823
1.16848
1.16874
1.16886
1.16889
1.1689
1.1689
1.1689
1.1689
1.1689
1.16891
1.16891
1.16891
1.16891
1.16891
1.16891
1.16892
1.16892
1.16892
1.16892
1.16892
1.16892
1.16892
1.16893
1.16893
1.16893
1.16893
1.16893
1.16893
1.16894
1.16894
1.16894
1.16894
1.16894
1.16894
1.16895
1.16897
1.16903
1.16926
1.17109
1.17365
1.19801
1.24896
1.22859
1.22461
1.22375
1.22284
1.23756
1.25842
1.25986
1.22652
142.675
1018.28
1026.77
1026.79
1026.82
1026.81
1026.82
1026.83
1026.85
1026.88
1026.91
1026.94
1026.96
1026.99
1027
1027.01
1027.01
1027.01
1027.01
1027.02
1027.03
1027.06
1027.08
1027.09
1027.1
1027.1
1027.1
1027.1
1027.1
1027.1
1027.1
1027.1
1027.1
1027.1
1027.1
1027.1
1027.1
1.16667
1.16868
1.16795
1.16807
1.16807
1.16817
1.16819
1.16826
1.1683
1.16851
1.16874
1.16886
1.16889
1.1689
1.1689
1.1689
1.1689
1.1689
1.1689
1.16891
1.16891
1.16891
1.16891
1.16891
1.16891
1.16892
1.16892
1.16892
1.16892
1.16892
1.16892
1.16893
1.16893
1.16893
1.16893
1.16893
1.16893
1.16894
1.16894
1.16894
1.16894
1.16894
1.16894
1.16895
1.16895
1.16903
1.16917
1.16984
1.17073
1.20558
1.25867
1.24151
1.23734
1.23849
1.25017
1.25856
1.26034
1.24826
1.2345
252.801
1015.48
1024.3
1024.36
1024.38
1024.36
1024.41
1024.48
1024.66
1024.84
1025.06
1025.27
1025.45
1025.55
1025.59
1025.44
1025.33
1025.26
1025.24
1025.31
1025.53
1025.83
1026.22
1026.59
1026.87
1027.02
1027.08
1027.1
1027.1
1027.1
1027.1
1027.1
1027.1
1027.1
1027.1
1027.1
1027.1
1.16535
1.16831
1.16819
1.16841
1.16835
1.16875
1.16883
1.16886
1.16884
1.16882
1.16886
1.16889
1.1689
1.16891
1.16891
1.16891
1.16892
1.16892
1.16892
1.16892
1.16892
1.16892
1.16893
1.16893
1.16893
1.16893
1.16893
1.16893
1.16894
1.16894
1.16894
1.16894
1.16894
1.16894
1.16895
1.16895
1.16895
1.16895
1.16895
1.16895
1.16895
1.16896
1.16896
1.16895
1.16895
1.16899
1.16905
1.16924
1.16982
1.1739
1.25203
1.27735
1.27235
1.26821
1.27585
1.27971
1.28256
1.30717
1.36339
367.683
1012.5
1017.51
1017.77
1017.94
1018.01
1018.55
1019.09
1019.69
1020.38
1021
1021.54
1021.86
1021.95
1021.57
1021.11
1020.57
1020.12
1019.84
1019.65
1019.55
1019.69
1020.52
1021.73
1023.31
1024.93
1026.17
1026.84
1027.07
1027.09
1027.1
1027.1
1027.1
1027.1
1027.1
1027.1
1027.1
1.16428
1.16651
1.1678
1.16849
1.1686
1.16872
1.16881
1.16887
1.16888
1.16889
1.16889
1.16889
1.16889
1.16889
1.1689
1.1689
1.1689
1.1689
1.1689
1.16891
1.16891
1.16891
1.16891
1.16891
1.16892
1.16892
1.16892