/*--------------------------------*- C++ -*----------------------------------*\
| =========                 |                                                 |
| \\      /  F ield         | OpenFOAM: The Open Source CFD Toolbox           |
|  \\    /   O peration     | Version:  2.3.0                                 |
|   \\  /    A nd           | Web:      www.OpenFOAM.org                      |
|    \\/     M anipulation  |                                                 |
\*---------------------------------------------------------------------------*/
FoamFile
{
    version     2.0;
    format      ascii;
    class       volScalarField;
    location    "10";
    object      rho;
}
// * * * * * * * * * * * * * * * * * * * * * * * * * * * * * * * * * * * * * //

dimensions      [1 -3 0 0 0 0 0];

internalField   nonuniform List<scalar> 
6144
(
1.16804
1.16835
1.16872
1.1688
1.16887
1.16889
1.16889
1.16889
1.16889
1.1689
1.1689
1.1689
1.1689
1.1689
1.1689
1.16891
1.16891
1.16891
1.16891
1.16891
1.16892
1.16892
1.16892
1.16892
1.16892
1.16892
1.16893
1.16893
1.16893
1.16893
1.16893
1.16893
1.16894
1.16894
1.16894
1.16894
1.16894
1.16895
1.16894
1.16895
1.16895
1.16896
1.16895
1.16896
1.16895
1.16897
1.16896
1.16897
1.16896
1.16897
1.16898
1.16948
1.17274
1.19967
1.23478
1.30909
1.40387
1.86657
2.31743
48.0294
977.696
1026.78
1027.09
1027.09
1027.09
1027.1
1027.1
1027.1
1027.1
1027.1
1027.1
1027.1
1027.1
1027.1
1027.1
1027.1
1027.1
1027.1
1027.1
1027.1
1027.1
1027.1
1027.1
1027.1
1027.1
1027.1
1027.1
1027.1
1027.1
1027.1
1027.1
1027.1
1027.1
1027.1
1027.1
1027.1
1.16779
1.16802
1.1683
1.16847
1.16873
1.16882
1.16885
1.16888
1.16889
1.16889
1.16889
1.1689
1.1689
1.1689
1.1689
1.16891
1.16891
1.16891
1.16891
1.16891
1.16891
1.16892
1.16892
1.16892
1.16892
1.16892
1.16892
1.16893
1.16893
1.16893
1.16893
1.16893
1.16893
1.16894
1.16894
1.16894
1.16894
1.16894
1.16894
1.16895
1.16895
1.16895
1.16895
1.16896
1.16895
1.16896
1.16896
1.16897
1.16896
1.16898
1.16897
1.16922
1.17065
1.19585
1.23909
1.29352
1.43
2.01125
2.6162
41.3452
979.946
1026.99
1027.09
1027.09
1027.09
1027.1
1027.1
1027.1
1027.1
1027.1
1027.1
1027.1
1027.1
1027.1
1027.1
1027.1
1027.1
1027.1
1027.1
1027.1
1027.1
1027.1
1027.1
1027.1
1027.1
1027.1
1027.1
1027.1
1027.1
1027.1
1027.1
1027.1
1027.1
1027.1
1027.1
1027.1
1.1678
1.16795
1.16808
1.16826
1.16847
1.16864
1.16871
1.1688
1.16884
1.16888
1.16889
1.1689
1.1689
1.1689
1.1689
1.16891
1.16891
1.16891
1.16891
1.16891
1.16891
1.16892
1.16892
1.16892
1.16892
1.16892
1.16892
1.16893
1.16893
1.16893
1.16893
1.16893
1.16893
1.16894
1.16894
1.16894
1.16894
1.16894
1.16894
1.16895
1.16895
1.16896
1.16895
1.16896
1.16895
1.16896
1.16896
1.16897
1.16896
1.16901
1.16898
1.16946
1.17052
1.18041
1.25045
1.30684
1.36204
1.84054
1.9467
43.8092
968.33
1027.09
1027.09
1027.09
1027.09
1027.1
1027.1
1027.1
1027.1
1027.1
1027.1
1027.1
1027.1
1027.1
1027.1
1027.1
1027.1
1027.1
1027.1
1027.1
1027.1
1027.1
1027.1
1027.1
1027.1
1027.1
1027.1
1027.1
1027.1
1027.1
1027.1
1027.1
1027.1
1027.1
1027.1
1027.1
1.16782
1.16797
1.16807
1.16822
1.16838
1.16853
1.16861
1.16872
1.16876
1.16883
1.16888
1.1689
1.1689
1.1689
1.1689
1.16891
1.16891
1.16891
1.16891
1.16891
1.16891
1.16892
1.16892
1.16892
1.16892
1.16892
1.16892
1.16893
1.16893
1.16893
1.16893
1.16893
1.16893
1.16894
1.16894
1.16894
1.16894
1.16894
1.16894
1.16895
1.16895
1.16895
1.16895
1.16896
1.16896
1.16896
1.16895
1.16897
1.16896
1.16904
1.16922
1.17068
1.17272
1.19212
1.26633
1.30691
1.3003
1.7059
1.52356
39.2009
953.349
1027.09
1027.09
1027.09
1027.09
1027.1
1027.1
1027.1
1027.1
1027.1
1027.1
1027.1
1027.1
1027.1
1027.1
1027.1
1027.1
1027.1
1027.1
1027.1
1027.1
1027.1
1027.1
1027.1
1027.1
1027.1
1027.1
1027.1
1027.1
1027.1
1027.1
1027.1
1027.1
1027.1
1027.1
1027.1
1.1678
1.16791
1.16806
1.16817
1.16833
1.16845
1.16863
1.16873
1.16876
1.16882
1.16886
1.16889
1.1689
1.1689
1.1689
1.16891
1.16891
1.16891
1.16891
1.16891
1.16891
1.16892
1.16892
1.16892
1.16892
1.16892
1.16893
1.16893
1.16893
1.16893
1.16893
1.16893
1.16894
1.16894
1.16894
1.16894
1.16894
1.16894
1.16895
1.16895
1.16895
1.16895
1.16895
1.16896
1.16896
1.16896
1.16895
1.16897
1.16896
1.1691
1.16998
1.17261
1.17611
1.19188
1.24301
1.31126
1.34517
1.57388
1.34879
96.3357
1001.18
1027.06
1027.08
1027.09
1027.09
1027.09
1027.09
1027.09
1027.09
1027.09
1027.09
1027.09
1027.09
1027.09
1027.09
1027.09
1027.09
1027.09
1027.1
1027.1
1027.1
1027.1
1027.1
1027.1
1027.1
1027.1
1027.1
1027.1
1027.1
1027.1
1027.1
1027.1
1027.1
1027.1
1027.1
1027.1
1.16771
1.16773
1.16798
1.16799
1.16806
1.16813
1.16846
1.16866
1.16879
1.16885
1.16887
1.16889
1.1689
1.1689
1.1689
1.1689
1.16891
1.16891
1.16891
1.16891
1.16891
1.16891
1.16892
1.16892
1.16892
1.16892
1.16892
1.16892
1.16893
1.16893
1.16893
1.16893
1.16893
1.16893
1.16894
1.16894
1.16894
1.16894
1.16894
1.16895
1.16895
1.16895
1.16895
1.16895
1.16895
1.16896
1.16895
1.16897
1.16896
1.16926
1.17077
1.17419
1.17948
1.19439
1.26951
1.33872
1.33239
1.44711
1.2211
205.98
1012.28
1025.86
1026.1
1026.38
1026.48
1026.55
1026.52
1026.42
1026.38
1026.42
1026.42
1026.21
1026.03
1026.15
1026.21
1026.19
1026.22
1026.38
1026.58
1026.74
1026.86
1026.96
1027.02
1027.06
1027.08
1027.09
1027.1
1027.1
1027.1
1027.1
1027.1
1027.1
1027.1
1027.1
1027.1
1027.1
1.16758
1.16748
1.16784
1.16783
1.16786
1.1679
1.16805
1.16828
1.16862
1.16881
1.16887
1.16889
1.1689
1.1689
1.1689
1.16891
1.16891
1.16891
1.16891
1.16891
1.16891
1.16892
1.16892
1.16892
1.16892
1.16892
1.16893
1.16893
1.16893
1.16893
1.16893
1.16893
1.16894
1.16894
1.16894
1.16894
1.16894
1.16895
1.16895
1.16895
1.16895
1.16896
1.16896
1.16896
1.16896
1.16896
1.16896
1.16897
1.16898
1.16947
1.17186
1.17799
1.1864
1.19213
1.2424
1.34765
1.34797
1.36483
1.169
405.714
1015.1
1018.16
1017.41
1017.7
1019.58
1020.14
1020.02
1019.21
1019.17
1019.2
1019
1018.8
1018.62
1018.49
1018.16
1018.2
1019.04
1019.64
1020.3
1021.36
1022.33
1023.25
1023.85
1024.27
1024.8
1025.55
1026.29
1026.73
1026.99
1027.07
1027.09
1027.09
1027.09
1027.1
1027.1
1027.1
1.16737
1.1672
1.1676
1.16762
1.16779
1.16782
1.1678
1.16789
1.1682
1.16863
1.16882
1.16889
1.1689
1.1689
1.1689
1.16891
1.16891
1.16891
1.16891
1.16892
1.16892
1.16892
1.16892
1.16892
1.16892
1.16893
1.16893
1.16893
1.16893
1.16893
1.16894
1.16894
1.16894
1.16894
1.16894
1.16894
1.16895
1.16895
1.16895
1.16895
1.16895
1.16896
1.16896
1.16896
1.16896
1.16896
1.16896
1.16898
1.16903
1.16976
1.17259
1.17972
1.19118
1.20527
1.21863
1.31657
1.38809
1.39015
1.169
481.638
1004.86
1008.13
1006.95
1006.39
1006.37
1006.32
1007.34
1008.23
1008.21
1007.94
1008.11
1008.39
1008.8
1009.34
1010.07
1010.83
1011.48
1012
1012.5
1013.37
1014.47
1015.06
1014.54
1013.92
1015.21
1016.26
1016.67
1018.33
1021.21
1023.6
1025.15
1026.14
1026.85
1027.1
1027.1
1025.75
1.1667
1.16708
1.16718
1.16726
1.1676
1.16773
1.16768
1.16762
1.16769
1.16835
1.1688
1.16889
1.1689
1.1689
1.1689
1.1689
1.1689
1.16891
1.16891
1.16891
1.16891
1.16891
1.16892
1.16892
1.16892
1.16892
1.16892
1.16893
1.16893
1.16893
1.16893
1.16893
1.16893
1.16894
1.16894
1.16894
1.16894
1.16894
1.16894
1.16895
1.16895
1.16895
1.16895
1.16895
1.16895
1.16896
1.16896
1.16897
1.16901
1.16958
1.17162
1.17691
1.19025
1.2119
1.22434
1.27162
1.34705
1.3866
1.169
418.942
1012.05
1017.44
1017.9
1018.22
1017.31
1017.36
1019.32
1020.37
1021.22
1022.25
1023.4
1024.42
1025.2
1025.76
1026.09
1026.28
1026.31
1026.33
1026.35
1026.36
1026.4
1026.44
1026.38
1026.23
1026.1
1026
1025.98
1026.04
1026.26
1026.49
1026.67
1026.79
1026.88
1026.94
1026.98
1027.03
1.16651
1.16711
1.167
1.16692
1.1671
1.16749
1.16757
1.1674
1.16721
1.16798
1.16873
1.16889
1.1689
1.1689
1.1689
1.1689
1.1689
1.16891
1.16891
1.16891
1.16891
1.16891
1.16892
1.16892
1.16892
1.16892
1.16892
1.16892
1.16893
1.16893
1.16893
1.16893
1.16893
1.16894
1.16894
1.16894
1.16894
1.16894
1.16894
1.16895
1.16895
1.16895
1.16895
1.16896
1.16895
1.16896
1.16896
1.16898
1.169
1.16948
1.17112
1.17556
1.18639
1.20487
1.21497
1.26319
1.30926
1.44305
1.19866
310.572
1020.32
1025.16
1025.65
1026.07
1026.21
1026.46
1026.7
1026.81
1026.9
1026.99
1027.05
1027.08
1027.09
1027.09
1027.1
1027.1
1027.1
1027.1
1027.1
1027.1
1027.1
1027.1
1027.1
1027.1
1027.1
1027.1
1027.1
1027.1
1027.1
1027.1
1027.1
1027.1
1027.1
1027.1
1027.1
1027.1
1.16439
1.16707
1.16707
1.16687
1.16667
1.16706
1.16729
1.16715
1.16684
1.16752
1.16856
1.16887
1.1689
1.16891
1.16891
1.16891
1.16891
1.16891
1.16891
1.16891
1.16892
1.16892
1.16892
1.16892
1.16892
1.16893
1.16893
1.16893
1.16893
1.16893
1.16893
1.16894
1.16894
1.16894
1.16894
1.16894
1.16894
1.16895
1.16895
1.16895
1.16895
1.16895
1.16896
1.16896
1.16896
1.16896
1.16896
1.16898
1.16899
1.1694
1.17073
1.1745
1.18231
1.19413
1.21142
1.28565
1.29464
1.5679
1.35426
149.224
1015.72
1027.02
1027.06
1027.08
1027.09
1027.09
1027.09
1027.1
1027.1
1027.1
1027.1
1027.1
1027.1
1027.1
1027.1
1027.1
1027.1
1027.1
1027.1
1027.1
1027.1
1027.1
1027.1
1027.1
1027.1
1027.1
1027.1
1027.1
1027.1
1027.1
1027.1
1027.1
1027.1
1027.1
1027.1
1027.1
1.16389
1.16562
1.16579
1.16596
1.16599
1.1663
1.16658
1.16671
1.16641
1.16702
1.16834
1.16884
1.16891
1.16891
1.16891
1.16891
1.16891
1.16892
1.16892
1.16892
1.16892
1.16892
1.16892
1.16893
1.16893
1.16893
1.16893
1.16893
1.16893
1.16894
1.16894
1.16894
1.16894
1.16894
1.16894
1.16895
1.16895
1.16895
1.16895
1.16895
1.16896
1.16896
1.16896
1.16896
1.16896
1.16896
1.16896
1.16898
1.16899
1.16942
1.17045
1.17357
1.17958
1.18844
1.23264
1.2858
1.28462
1.68501
1.48507
62.6981
980.677
1027.09
1027.09
1027.09
1027.09
1027.09
1027.1
1027.1
1027.1
1027.1
1027.1
1027.1
1027.1
1027.1
1027.1
1027.1
1027.1
1027.1
1027.1
1027.1
1027.1
1027.1
1027.1
1027.1
1027.1
1027.1
1027.1
1027.1
1027.1
1027.1
1027.1
1027.1
1027.1
1027.1
1027.1
1027.1
1.16341
1.16447
1.16454
1.16474
1.165
1.16529
1.1656
1.16577
1.16579
1.16662
1.16818
1.16883
1.16891
1.16891
1.16891
1.16891
1.16891
1.16892
1.16892
1.16892
1.16892
1.16892
1.16892
1.16893
1.16893
1.16893
1.16893
1.16893
1.16893
1.16894
1.16894
1.16894
1.16894
1.16894
1.16894
1.16895
1.16895
1.16895
1.16895
1.16895
1.16895
1.16896
1.16896
1.16896
1.16896
1.16896
1.16896
1.16898
1.16901
1.16946
1.17064
1.17436
1.18145
1.19279
1.21242
1.27565
1.30119
1.80951
1.68772
35.0126
977.324
1027.09
1027.09
1027.1
1027.1
1027.1
1027.1
1027.1
1027.1
1027.1
1027.1
1027.1
1027.1
1027.1
1027.1
1027.1
1027.1
1027.1
1027.1
1027.1
1027.1
1027.1
1027.1
1027.1
1027.1
1027.1
1027.1
1027.1
1027.1
1027.1
1027.1
1027.1
1027.1
1027.1
1027.1
1027.1
1.16284
1.1637
1.16375
1.16392
1.16426
1.16462
1.16488
1.16481
1.16509
1.16633
1.16819
1.16884
1.1689
1.16891
1.16891
1.16891
1.16891
1.16891
1.16891
1.16892
1.16892
1.16892
1.16892
1.16892
1.16892
1.16893
1.16893
1.16893
1.16893
1.16893
1.16893
1.16894
1.16894
1.16894
1.16894
1.16894
1.16894
1.16895
1.16895
1.16895
1.16895
1.16895
1.16895
1.16896
1.16896
1.16896
1.16896
1.16898
1.16904
1.16963
1.1714
1.17684
1.18612
1.20113
1.2031
1.24413
1.36739
1.94181
1.93911
43.3244
973.271
1027.09
1027.1
1027.1
1027.1
1027.1
1027.1
1027.1
1027.1
1027.1
1027.1
1027.1
1027.1
1027.1
1027.1
1027.1
1027.1
1027.1
1027.1
1027.1
1027.1
1027.1
1027.1
1027.1
1027.1
1027.1
1027.1
1027.1
1027.1
1027.1
1027.1
1027.1
1027.1
1027.1
1027.1
1027.1
1.16241
1.16312
1.16323
1.16353
1.16379
1.16407
1.16415
1.16395
1.16445
1.16631
1.16827
1.16885
1.1689
1.1689
1.1689
1.16891
1.16891
1.16891
1.16891
1.16891
1.16892
1.16892
1.16892
1.16892
1.16892
1.16892
1.16893
1.16893
1.16893
1.16893
1.16893
1.16893
1.16894
1.16894
1.16894
1.16894
1.16894
1.16895
1.16895
1.16895
1.16895
1.16895
1.16896
1.16896
1.16896
1.16896
1.16896
1.16898
1.16903
1.16965
1.17222
1.18013
1.19316
1.2051
1.20577
1.22851
1.48042
2.0827
2.66788
53.045
984.421
1027.03
1027.1
1027.1
1027.1
1027.1
1027.1
1027.1
1027.1
1027.1
1027.1
1027.1
1027.1
1027.1
1027.1
1027.1
1027.1
1027.1
1027.1
1027.1
1027.1
1027.1
1027.1
1027.1
1027.1
1027.1
1027.1
1027.1
1027.1
1027.1
1027.1
1027.1
1027.1
1027.1
1027.1
1027.1
1.16193
1.16228
1.16243
1.16261
1.16277
1.16293
1.16309
1.16374
1.16516
1.16699
1.16849
1.16889
1.16891
1.16891
1.16891
1.16891
1.16891
1.16892
1.16892
1.16892
1.16892
1.16892
1.16893
1.16893
1.16893
1.16893
1.16893
1.16893
1.16894
1.16894
1.16894
1.16894
1.16894
1.16894
1.16895
1.16895
1.16895
1.16895
1.16895
1.16896
1.16896
1.16896
1.16896
1.16896
1.16897
1.16897
1.16896
1.16898
1.16899
1.16932
1.17108
1.17785
1.19138
1.20244
1.20421
1.28308
1.40667
2.00561
2.45129
54.0991
978.181
1026.77
1027.09
1027.1
1027.1
1027.1
1027.1
1027.1
1027.1
1027.1
1027.1
1027.1
1027.1
1027.1
1027.1
1027.1
1027.1
1027.1
1027.1
1027.1
1027.1
1027.1
1027.1
1027.1
1027.1
1027.1
1027.1
1027.1
1027.1
1027.1
1027.1
1027.1
1027.1
1027.1
1027.1
1027.1
1.16771
1.16792
1.16821
1.16835
1.16856
1.16866
1.16879
1.16887
1.1689
1.1689
1.1689
1.16891
1.16891
1.16891
1.16891
1.16891
1.16891
1.16892
1.16892
1.16892
1.16892
1.16892
1.16892
1.16893
1.16893
1.16893
1.16893
1.16893
1.16893
1.16894
1.16894
1.16894
1.16894
1.16894
1.16894
1.16895
1.16895
1.16895
1.16895
1.16895
1.16895
1.16896
1.16896
1.16896
1.16896
1.16897
1.16896
1.16898
1.16896
1.16898
1.16899
1.16975
1.17443
1.20005
1.23108
1.29708
1.39656
2.19426
4.30446
55.6118
963.414
1026.54
1027.09
1027.09
1027.09
1027.1
1027.1
1027.1
1027.1
1027.1
1027.1
1027.1
1027.1
1027.1
1027.1
1027.1
1027.1
1027.1
1027.1
1027.1
1027.1
1027.1
1027.1
1027.1
1027.1
1027.1
1027.1
1027.1
1027.1
1027.1
1027.1
1027.1
1027.1
1027.1
1027.1
1027.1
1.16753
1.16755
1.16754
1.16754
1.16762
1.16773
1.16802
1.16836
1.16868
1.16884
1.16889
1.16891
1.16891
1.16891
1.16891
1.16891
1.16891
1.16892
1.16892
1.16892
1.16892
1.16892
1.16892
1.16892
1.16893
1.16893
1.16893
1.16893
1.16893
1.16893
1.16894
1.16894
1.16894
1.16894
1.16894
1.16895
1.16895
1.16895
1.16895
1.16895
1.16895
1.16896
1.16896
1.16896
1.16896
1.16897
1.16896
1.16898
1.16896
1.16909
1.16926
1.16945
1.17275
1.19966
1.23029
1.28237
1.4133
2.0895
3.13513
47.615
973.506
1026.96
1027.09
1027.09
1027.09
1027.1
1027.1
1027.1
1027.1
1027.1
1027.1
1027.1
1027.1
1027.1
1027.1
1027.1
1027.1
1027.1
1027.1
1027.1
1027.1
1027.1
1027.1
1027.1
1027.1
1027.1
1027.1
1027.1
1027.1
1027.1
1027.1
1027.1
1027.1
1027.1
1027.1
1027.1
1.16768
1.16777
1.16761
1.16756
1.16745
1.16745
1.1675
1.16765
1.16807
1.16857
1.16882
1.1689
1.16891
1.16891
1.16891
1.16891
1.16891
1.16892
1.16892
1.16892
1.16892
1.16892
1.16892
1.16893
1.16893
1.16893
1.16893
1.16893
1.16893
1.16894
1.16894
1.16894
1.16894
1.16894
1.16894
1.16895
1.16895
1.16895
1.16895
1.16895
1.16895
1.16896
1.16896
1.16896
1.16896
1.16897
1.16896
1.16898
1.16902
1.16954
1.17055
1.17067
1.17247
1.19608
1.22458
1.29623
1.35167
1.85102
2.19348
38.7344
977.669
1027.09
1027.09
1027.09
1027.09
1027.1
1027.1
1027.1
1027.1
1027.1
1027.1
1027.1
1027.1
1027.1
1027.1
1027.1
1027.1
1027.1
1027.1
1027.1
1027.1
1027.1
1027.1
1027.1
1027.1
1027.1
1027.1
1027.1
1027.1
1027.1
1027.1
1027.1
1027.1
1027.1
1027.1
1027.1
1.1677
1.16797
1.16797
1.16801
1.16782
1.16765
1.1675
1.1675
1.16766
1.1682
1.16866
1.16886
1.1689
1.16891
1.16891
1.16891
1.16891
1.16891
1.16891
1.16892
1.16892
1.16892
1.16892
1.16892
1.16892
1.16893
1.16893
1.16893
1.16893
1.16893
1.16893
1.16894
1.16894
1.16894
1.16894
1.16894
1.16894
1.16895
1.16895
1.16895
1.16895
1.16895
1.16895
1.16896
1.16896
1.16896
1.16895
1.16899
1.16908
1.16986
1.17153
1.17324
1.17428
1.19365
1.23704
1.32189
1.3003
1.75003
1.64842
37.0542
989.144
1027.09
1027.09
1027.09
1027.09
1027.1
1027.1
1027.1
1027.1
1027.1
1027.1
1027.1
1027.1
1027.1
1027.1
1027.1
1027.1
1027.1
1027.1
1027.1
1027.1
1027.1
1027.1
1027.1
1027.1
1027.1
1027.1
1027.1
1027.1
1027.1
1027.1
1027.1
1027.1
1027.1
1027.1
1027.1
1.1674
1.168
1.16804
1.16817
1.16817
1.16806
1.16774
1.16758
1.16758
1.1679
1.16851
1.16883
1.1689
1.16891
1.16891
1.16891
1.16891
1.16891
1.16891
1.16891
1.16892
1.16892
1.16892
1.16892
1.16892
1.16892
1.16893
1.16893
1.16893
1.16893
1.16893
1.16893
1.16894
1.16894
1.16894
1.16894
1.16894
1.16894
1.16895
1.16895
1.16895
1.16895
1.16895
1.16896
1.16896
1.16896
1.16895
1.16899
1.16909
1.16992
1.17194
1.17491
1.1753
1.18927
1.27119
1.34012
1.46796
1.51292
1.33668
92.2102
1012.81
1026.91
1026.95
1027.04
1027.05
1027.06
1027.06
1027.06
1027.06
1027.06
1027.06
1027.05
1027.05
1027.05
1027.06
1027.06
1027.07
1027.08
1027.09
1027.09
1027.09
1027.1
1027.1
1027.1
1027.1
1027.1
1027.1
1027.1
1027.1
1027.1
1027.1
1027.1
1027.1
1027.1
1027.1
1027.1
1.16728
1.16775
1.16789
1.16819
1.16826
1.1683
1.16804
1.16773
1.16758
1.16777
1.16839
1.1688
1.1689
1.1689
1.1689
1.16891
1.16891
1.16891
1.16891
1.16891
1.16891
1.16892
1.16892
1.16892
1.16892
1.16892
1.16892
1.16893
1.16893
1.16893
1.16893
1.16893
1.16893
1.16894
1.16894
1.16894
1.16894
1.16894
1.16894
1.16895
1.16895
1.16895
1.16895
1.16896
1.16895
1.16896
1.16895
1.16898
1.16907
1.16981
1.17182
1.17591
1.17985
1.22882
1.33949
1.34672
1.348
1.29411
1.17846
209.162
1008.08
1021.54
1022.12
1023.34
1023.78
1023.99
1023.83
1023.47
1023.17
1022.81
1022.32
1022.03
1021.98
1021.97
1021.95
1022.34
1022.48
1023.13
1023.86
1024.6
1025.42
1026.02
1026.48
1026.8
1026.98
1027.06
1027.09
1027.1
1027.1
1027.1
1027.1
1027.1
1027.1
1027.1
1027.1
1027.1
1.16708
1.16719
1.16738
1.16801
1.16828
1.16838
1.16826
1.1679
1.16764
1.16771
1.16834
1.16879
1.16889
1.1689
1.1689
1.16891
1.16891
1.16891
1.16891
1.16891
1.16891
1.16892
1.16892
1.16892
1.16892
1.16892
1.16892
1.16892
1.16893
1.16893
1.16893
1.16893
1.16893
1.16894
1.16894
1.16894
1.16894
1.16894
1.16894
1.16895
1.16895
1.16895
1.16895
1.16896
1.16896
1.16896
1.16896
1.16898
1.16903
1.1697
1.17177
1.17634
1.18278
1.19325
1.31825
1.39507
1.34764
1.29915
1.169
433.211
988.342
994.773
993.355
994.043
994.545
995.293
995.364
994.115
992.308
990.119
987.798
986.389
985.787
985.373
985.275
985.327
984.85
983.786
983.219
984.477
989.733
994.353
998.462
1002.08
1006.89
1011.88
1015.97
1019.67
1022.84
1025.6
1026.75
1026.77
1026.78
1026.93
1027.02
1026.58
1.16672
1.16653
1.16684
1.16746
1.16818
1.16839
1.16839
1.16811
1.16774
1.16769
1.16833
1.16879
1.16889
1.1689
1.16891
1.16891
1.16891
1.16891
1.16891
1.16891
1.16891
1.16892
1.16892
1.16892
1.16892
1.16892
1.16892
1.16893
1.16893
1.16893
1.16893
1.16893
1.16893
1.16894
1.16894
1.16894
1.16894
1.16894
1.16895
1.16895
1.16895
1.16895
1.16895
1.16896
1.16896
1.16896
1.16896
1.16898
1.169
1.16954
1.17167
1.17619
1.18364
1.19828
1.22769
1.3739
1.43757
1.41954
1.169
485.895
973.871
977.823
974.831
974.631
974.558
975.357
976.609
976.475
975.105
972.49
969.91
968.099
966.549
965.105
963.976
962.401
957.262
946.211
937.254
933.72
932.239
930.165
924.431
918.218
913.504
907.6
898.758
890.024
882.386
875.611
869.797
863.364
852.56
830.469
782.445
593.538
1.1662
1.16594
1.16612
1.16675
1.16746
1.16801
1.16841
1.16823
1.16778
1.16768
1.16833
1.16879
1.1689
1.16891
1.16891
1.16891
1.16891
1.16891
1.16891
1.16891
1.16892
1.16892
1.16892
1.16892
1.16892
1.16892
1.16893
1.16893
1.16893
1.16893
1.16893
1.16893
1.16894
1.16894
1.16894
1.16894
1.16894
1.16895
1.16895
1.16895
1.16895
1.16895
1.16895
1.16896
1.16896
1.16896
1.16896
1.16898
1.16898
1.16935
1.1706
1.17415
1.17997
1.1961
1.22211
1.30293
1.4128
1.37906
1.169
337.521
1002.96
1014.01
1014.99
1016.73
1017.89
1019.11
1020.44
1021.66
1022.69
1023.6
1024.36
1024.87
1025.13
1025.02
1024.95
1024.72
1024.33
1023.89
1023.37
1022.99
1022.79
1022.35
1021.46
1020.03
1019.07
1018.73
1018.56
1018.2
1017.95
1017.98
1018.31
1018.89
1019.71
1021.02
1022.84
1023.75
1.16585
1.16606
1.16573
1.16578
1.16621
1.16715
1.1681
1.16824
1.16768
1.16749
1.16833
1.1688
1.1689
1.16891
1.16891
1.16891
1.16891
1.16891
1.16891
1.16892
1.16892
1.16892
1.16892
1.16892
1.16892
1.16893
1.16893
1.16893
1.16893
1.16893
1.16893
1.16894
1.16894
1.16894
1.16894
1.16894
1.16894
1.16895
1.16895
1.16895
1.16895
1.16895
1.16895
1.16896
1.16896
1.16896
1.16896
1.16898
1.16898
1.16932
1.1702
1.1731
1.17941
1.19611
1.223
1.31465
1.37643
1.3729
1.1752
198.719
1021.46
1026.43
1026.65
1026.88
1026.96
1027.01
1027.04
1027.06
1027.08
1027.08
1027.08
1027.09
1027.09
1027.09
1027.08
1027.08
1027.08
1027.08
1027.08
1027.08
1027.07
1027.07
1027.07
1027.07
1027.06
1027.06
1027.06
1027.06
1027.07
1027.08
1027.08
1027.09
1027.09
1027.1
1027.1
1027.1
1.16414
1.16615
1.16595
1.1655
1.1653
1.16621
1.16743
1.16813
1.16755
1.16721
1.16828
1.1688
1.1689
1.16891
1.16891
1.16891
1.16891
1.16891
1.16891
1.16892
1.16892
1.16892
1.16892
1.16892
1.16892
1.16893
1.16893
1.16893
1.16893
1.16893
1.16893
1.16894
1.16894
1.16894
1.16894
1.16894
1.16894
1.16895
1.16895
1.16895
1.16895
1.16895
1.16895
1.16896
1.16896
1.16896
1.16896
1.16898
1.16898
1.16931
1.17008
1.17289
1.17978
1.19736
1.22685
1.27691
1.3691
1.60048
1.34168
86.2615
980.494
1027.09
1027.08
1027.09
1027.09
1027.09
1027.09
1027.1
1027.1
1027.1
1027.1
1027.1
1027.1
1027.1
1027.1
1027.1
1027.1
1027.1
1027.1
1027.1
1027.1
1027.1
1027.1
1027.1
1027.1
1027.1
1027.1
1027.1
1027.1
1027.1
1027.1
1027.1
1027.1
1027.1
1027.1
1027.1
1.16361
1.16448
1.16447
1.1645
1.16452
1.1653
1.16678
1.16798
1.16727
1.16682
1.16824
1.16881
1.1689
1.16891
1.16891
1.16891
1.16891
1.16891
1.16891
1.16892
1.16892
1.16892
1.16892
1.16892
1.16892
1.16893
1.16893
1.16893
1.16893
1.16893
1.16893
1.16893
1.16894
1.16894
1.16894
1.16894
1.16894
1.16894
1.16895
1.16895
1.16895
1.16895
1.16895
1.16896
1.16896
1.16896
1.16895
1.16897
1.16898
1.16935
1.17032
1.17343
1.1821
1.19839
1.21434
1.28025
1.28981
1.72715
1.58567
49.5748
988.08
1027.09
1027.09
1027.1
1027.09
1027.1
1027.1
1027.1
1027.1
1027.1
1027.1
1027.1
1027.1
1027.1
1027.1
1027.1
1027.1
1027.1
1027.1
1027.1
1027.1
1027.1
1027.1
1027.1
1027.1
1027.1
1027.1
1027.1
1027.1
1027.1
1027.1
1027.1
1027.1
1027.1
1027.1
1027.1
1.16297
1.1634
1.16319
1.16343
1.16369
1.16427
1.16585
1.16759
1.16676
1.16637
1.16816
1.16882
1.1689
1.1689
1.16891
1.16891
1.16891
1.16891
1.16891
1.16891
1.16892
1.16892
1.16892
1.16892
1.16892
1.16892
1.16893
1.16893
1.16893
1.16893
1.16893
1.16893
1.16893
1.16894
1.16894
1.16894
1.16894
1.16894
1.16894
1.16895
1.16895
1.16895
1.16895
1.16895
1.16895
1.16896
1.16895
1.16897
1.16897
1.1694
1.17062
1.1754
1.18381
1.19844
1.2036
1.26254
1.33274
1.81643
2.10425
42.0626
976.027
1027.09
1027.09
1027.1
1027.1
1027.1
1027.1
1027.1
1027.1
1027.1
1027.1
1027.1
1027.1
1027.1
1027.1
1027.1
1027.1
1027.1
1027.1
1027.1
1027.1
1027.1
1027.1
1027.1
1027.1
1027.1
1027.1
1027.1
1027.1
1027.1
1027.1
1027.1
1027.1
1027.1
1027.1
1027.1
1.16238
1.16255
1.16243
1.16264
1.16289
1.16345
1.16522
1.16686
1.16587
1.16615
1.1681
1.16883
1.1689
1.1689
1.1689
1.1689
1.16891
1.16891
1.16891
1.16891
1.16891
1.16891
1.16891
1.16892
1.16892
1.16892
1.16892
1.16892
1.16892
1.16893
1.16893
1.16893
1.16893
1.16893
1.16893
1.16893
1.16894
1.16894
1.16894
1.16894
1.16894
1.16894
1.16895
1.16895
1.16895
1.16895
1.16895
1.16896
1.16898
1.16946
1.17132
1.17772
1.18518
1.19815
1.2076
1.23423
1.39056
1.95008
2.43854
46.2858
976.034
1027.09
1027.09
1027.09
1027.1
1027.1
1027.1
1027.1
1027.1
1027.1
1027.1
1027.1
1027.1
1027.1
1027.1
1027.1
1027.1
1027.1
1027.1
1027.1
1027.1
1027.1
1027.1
1027.1
1027.1
1027.1
1027.1
1027.1
1027.1
1027.1
1027.1
1027.1
1027.1
1027.1
1027.1
1027.1
1.16201
1.16201
1.16199
1.16215
1.16249
1.16355
1.16488
1.16552
1.16502
1.16629
1.16843
1.16887
1.1689
1.1689
1.1689
1.1689
1.1689
1.16891
1.16891
1.16891
1.16891
1.16891
1.16891
1.16891
1.16892
1.16892
1.16892
1.16892
1.16892
1.16892
1.16893
1.16893
1.16893
1.16893
1.16893
1.16893
1.16894
1.16894
1.16894
1.16894
1.16894
1.16895
1.16895
1.16895
1.16895
1.16896
1.16895
1.16897
1.16898
1.16941
1.17147
1.17826
1.18828
1.19955
1.20626
1.23126
1.47529
2.12325
3.42885
55.9853
970.986
1026.95
1027.1
1027.1
1027.1
1027.1
1027.1
1027.1
1027.1
1027.1
1027.1
1027.1
1027.1
1027.1
1027.1
1027.1
1027.1
1027.1
1027.1
1027.1
1027.1
1027.1
1027.1
1027.1
1027.1
1027.1
1027.1
1027.1
1027.1
1027.1
1027.1
1027.1
1027.1
1027.1
1027.1
1027.1
1.16176
1.16173
1.16164
1.16181
1.16248
1.1629
1.16319
1.16375
1.16571
1.16757
1.16862
1.16889
1.16891
1.16891
1.16891
1.16891
1.16891
1.16891
1.16892
1.16892
1.16892
1.16892
1.16892
1.16892
1.16893
1.16893
1.16893
1.16893
1.16893
1.16893
1.16894
1.16894
1.16894
1.16894
1.16894
1.16894
1.16895
1.16895
1.16895
1.16895
1.16895
1.16896
1.16896
1.16896
1.16896
1.16897
1.16896
1.16897
1.16897
1.16915
1.17037
1.17625
1.18847
1.20155
1.20222
1.25789
1.40241
2.22362
4.73615
62.1906
959.102
1026.44
1027.09
1027.1
1027.1
1027.1
1027.1
1027.1
1027.1
1027.1
1027.1
1027.1
1027.1
1027.1
1027.1
1027.1
1027.1
1027.1
1027.1
1027.1
1027.1
1027.1
1027.1
1027.1
1027.1
1027.1
1027.1
1027.1
1027.1
1027.1
1027.1
1027.1
1027.1
1027.1
1027.1
1027.1
1.16793
1.16815
1.16846
1.16858
1.16873
1.1688
1.16886
1.16889
1.1689
1.1689
1.1689
1.1689
1.1689
1.16891
1.16891
1.16891
1.16891
1.16891
1.16891
1.16892
1.16892
1.16892
1.16892
1.16892
1.16892
1.16893
1.16893
1.16893
1.16893
1.16893
1.16893
1.16894
1.16894
1.16894
1.16894
1.16894
1.16894
1.16895
1.16895
1.16895
1.16895
1.16896
1.16896
1.16896
1.16896
1.16896
1.16896
1.16897
1.16896
1.16897
1.16899
1.17009
1.17595
1.19961
1.22652
1.29426
1.39085
2.14348
4.16369
57.8954
945.627
1026.25
1027.09
1027.09
1027.09
1027.1
1027.1
1027.1
1027.1
1027.1
1027.1
1027.1
1027.1
1027.1
1027.1
1027.1
1027.1
1027.1
1027.1
1027.1
1027.1
1027.1
1027.1
1027.1
1027.1
1027.1
1027.1
1027.1
1027.1
1027.1
1027.1
1027.1
1027.1
1027.1
1027.1
1027.1
1.1678
1.16787
1.16784
1.16801
1.1682
1.16835
1.16857
1.16874
1.16885
1.16889
1.1689
1.1689
1.1689
1.1689
1.16891
1.16891
1.16891
1.16891
1.16891
1.16891
1.16892
1.16892
1.16892
1.16892
1.16892
1.16892
1.16893
1.16893
1.16893
1.16893
1.16893
1.16893
1.16894
1.16894
1.16894
1.16894
1.16894
1.16895
1.16895
1.16895
1.16895
1.16895
1.16895
1.16896
1.16896
1.16896
1.16895
1.16897
1.16896
1.16899
1.16902
1.16976
1.1754
1.20067
1.22749
1.27445
1.45175
2.09847
3.29989
43.0818
949.1
1026.64
1027.09
1027.09
1027.09
1027.1
1027.1
1027.1
1027.1
1027.1
1027.1
1027.1
1027.1
1027.1
1027.1
1027.1
1027.1
1027.1
1027.1
1027.1
1027.1
1027.1
1027.1
1027.1
1027.1
1027.1
1027.1
1027.1
1027.1
1027.1
1027.1
1027.1
1027.1
1027.1
1027.1
1027.1
1.1679
1.16799
1.16772
1.16778
1.16783
1.16797
1.16821
1.16844
1.16867
1.16882
1.16888
1.1689
1.1689
1.1689
1.1689
1.16891
1.16891
1.16891
1.16891
1.16891
1.16891
1.16892
1.16892
1.16892
1.16892
1.16892
1.16892
1.16893
1.16893
1.16893
1.16893
1.16893
1.16893
1.16894
1.16894
1.16894
1.16894
1.16894
1.16894
1.16895
1.16895
1.16895
1.16895
1.16896
1.16895
1.16896
1.16895
1.16897
1.16896
1.16908
1.16926
1.16979
1.17687
1.20303
1.22493
1.27062
1.37584
1.94415
2.0976
40.0806
984.849
1027.07
1027.09
1027.09
1027.09
1027.1
1027.1
1027.1
1027.1
1027.1
1027.1
1027.1
1027.1
1027.1
1027.1
1027.1
1027.1
1027.1
1027.1
1027.1
1027.1
1027.1
1027.1
1027.1
1027.1
1027.1
1027.1
1027.1
1027.1
1027.1
1027.1
1027.1
1027.1
1027.1
1027.1
1027.1
1.16775
1.16827
1.16783
1.16781
1.1678
1.16786
1.16801
1.16822
1.16848
1.16872
1.16885
1.16889
1.1689
1.1689
1.1689
1.1689
1.1689
1.16891
1.16891
1.16891
1.16891
1.16891
1.16891
1.16892
1.16892
1.16892
1.16892
1.16892
1.16892
1.16893
1.16893
1.16893
1.16893
1.16893
1.16893
1.16894
1.16894
1.16894
1.16894
1.16894
1.16894
1.16895
1.16895
1.16895
1.16895
1.16896
1.16895
1.16897
1.16897
1.16918
1.16975
1.1702
1.17628
1.20676
1.24196
1.29773
1.30572
1.84712
1.5708
38.23
1001.01
1027.09
1027.09
1027.09
1027.09
1027.1
1027.1
1027.1
1027.1
1027.1
1027.1
1027.1
1027.1
1027.1
1027.1
1027.1
1027.1
1027.1
1027.1
1027.1
1027.1
1027.1
1027.1
1027.1
1027.1
1027.1
1027.1
1027.1
1027.1
1027.1
1027.1
1027.1
1027.1
1027.1
1027.1
1027.1
1.16748
1.16847
1.16791
1.16791
1.16787
1.16794
1.16796
1.16813
1.16836
1.16863
1.16881
1.16888
1.1689
1.1689
1.1689
1.1689
1.1689
1.16891
1.16891
1.16891
1.16891
1.16891
1.16891
1.16892
1.16892
1.16892
1.16892
1.16892
1.16892
1.16893
1.16893
1.16893
1.16893
1.16893
1.16893
1.16894
1.16894
1.16894
1.16894
1.16894
1.16894
1.16895
1.16895
1.16895
1.16895
1.16896
1.16895
1.16896
1.16897
1.16925
1.17031
1.17129
1.17708
1.20784
1.24012
1.29353
1.37297
1.69658
1.57078
76.3179
1006.37
1027.02
1027.04
1027.07
1027.08
1027.09
1027.09
1027.09
1027.09
1027.09
1027.09
1027.09
1027.09
1027.1
1027.1
1027.1
1027.1
1027.1
1027.1
1027.1
1027.1
1027.1
1027.1
1027.1
1027.1
1027.1
1027.1
1027.1
1027.1
1027.1
1027.1
1027.1
1027.1
1027.1
1027.1
1027.1
1.16693
1.16859
1.16798
1.16803
1.16802
1.16809
1.16807
1.16823
1.16838
1.16862
1.1688
1.16888
1.1689
1.1689
1.1689
1.1689
1.1689
1.1689
1.16891
1.16891
1.16891
1.16891
1.16891
1.16891
1.16892
1.16892
1.16892
1.16892
1.16892
1.16892
1.16893
1.16893
1.16893
1.16893
1.16893
1.16893
1.16894
1.16894
1.16894
1.16894
1.16894
1.16894
1.16895
1.16895
1.16895
1.16895
1.16895
1.16895
1.16896
1.16921
1.1707
1.17256
1.17595
1.20108
1.26912
1.3508
1.47886
1.58087
1.52288
143.85
1001.44
1025.81
1025.98
1026.13
1026.23
1026.34
1026.42
1026.47
1026.6
1026.74
1026.85
1026.94
1026.99
1026.99
1027
1027.02
1027.03
1027.04
1027.05
1027.06
1027.06
1027.08
1027.09
1027.09
1027.1
1027.1
1027.1
1027.1
1027.1
1027.1
1027.1
1027.1
1027.1
1027.1
1027.1
1027.1
1.16572
1.1684
1.16806
1.16846
1.16835
1.16873
1.16883
1.16888
1.16887
1.16886
1.16888
1.16891
1.16891
1.16891
1.16891
1.16891
1.16892
1.16892
1.16892
1.16892
1.16892
1.16892
1.16893
1.16893
1.16893
1.16893
1.16893
1.16893
1.16894
1.16894
1.16894
1.16894
1.16894
1.16894
1.16895
1.16895
1.16895
1.16895
1.16895
1.16895
1.16896
1.16896
1.16896
1.16896
1.16896
1.16896
1.16896
1.16898
1.16901
1.16984
1.17183
1.17315
1.17635
1.19417
1.321
1.42165
1.4272
1.4277
1.38042
261.183
1011.58
1022.63
1023.4
1023.4
1023.57
1023.81
1024.4
1024.96
1025.39
1025.71
1025.86
1025.75
1025.71
1025.85
1026.03
1026.22
1026.32
1026.37
1026.43
1026.5
1026.48
1026.43
1026.72
1026.93
1026.98
1026.99
1026.97
1026.98
1027.06
1027.09
1027.1
1027.1
1027.1
1027.1
1027.1
1027.1
1.16497
1.16782
1.16826
1.16852
1.16862
1.1688
1.16885
1.16888
1.16888
1.16889
1.16889
1.16889
1.16889
1.1689
1.1689
1.1689
1.1689
1.1689
1.16891
1.16891
1.16891
1.16891
1.16892
1.16892
1.16892
1.16892
1.16892
1.16892
1.16893
1.16893
1.16893
1.16893
1.16893
1.16893
1.16894
1.16894
1.16894
1.16894
1.16894
1.16894
1.16895
1.16895
1.16895
1.16895
1.16895