/*--------------------------------*- C++ -*----------------------------------*\
| =========                 |                                                 |
| \\      /  F ield         | OpenFOAM: The Open Source CFD Toolbox           |
|  \\    /   O peration     | Version:  2.3.0                                 |
|   \\  /    A nd           | Web:      www.OpenFOAM.org                      |
|    \\/     M anipulation  |                                                 |
\*---------------------------------------------------------------------------*/
FoamFile
{
    version     2.0;
    format      ascii;
    class       volVectorField;
    location    "10";
    object      U.airMean;
}
// * * * * * * * * * * * * * * * * * * * * * * * * * * * * * * * * * * * * * //

dimensions      [0 1 -1 0 0 0 0];

internalField   nonuniform List<vector> 
6144
(
(0.00643948 0.0209913 -0.000913675)
(0.00622764 0.00841104 -0.00120267)
(0.00439569 0.00678291 -0.00217519)
(0.0044705 0.00467751 -0.00232074)
(0.00379634 0.00381059 -0.00244434)
(0.0039351 0.00350463 -0.00248467)
(0.00367497 0.00304846 -0.00252351)
(0.00380565 0.0029621 -0.0025485)
(0.00368399 0.00263042 -0.00259083)
(0.00378786 0.00250739 -0.00261367)
(0.00371713 0.00219931 -0.00266952)
(0.00378525 0.00204418 -0.00269169)
(0.00373971 0.00176625 -0.00274215)
(0.00377234 0.00161967 -0.0027621)
(0.00374265 0.0014037 -0.00279978)
(0.00375269 0.00128644 -0.00281509)
(0.00373521 0.00113661 -0.00284027)
(0.00373417 0.00105059 -0.00285155)
(0.00372399 0.000954725 -0.00286695)
(0.00371941 0.000894163 -0.00287517)
(0.00371287 0.000835114 -0.00288432)
(0.00370811 0.000793968 -0.00289016)
(0.00370343 0.000757727 -0.0028956)
(0.00369942 0.0007303 -0.00289962)
(0.00369576 0.000707572 -0.00290301)
(0.00369249 0.000689433 -0.00290567)
(0.00368944 0.000674497 -0.00290786)
(0.00368661 0.000662083 -0.00290963)
(0.00368397 0.000651512 -0.00291106)
(0.00368156 0.00064204 -0.00291218)
(0.00367945 0.000635767 -0.0029131)
(0.00367685 0.000621678 -0.00291327)
(0.00367633 0.0006287 -0.00291381)
(0.00367175 0.000585121 -0.0029128)
(0.00367464 0.000643382 -0.00291353)
(0.00366835 0.00051007 -0.00291148)
(0.00367308 0.000692838 -0.00291211)
(0.00367168 0.000370377 -0.00290949)
(0.00366694 0.000792463 -0.00290832)
(0.00368365 0.000133544 -0.00290574)
(0.0036615 0.000952034 -0.00290051)
(0.00369889 -0.000234254 -0.00289705)
(0.00365727 0.0011699 -0.00288192)
(0.00371746 -0.000765102 -0.00287927)
(0.00363959 0.00145195 -0.00285421)
(0.00371818 -0.00151587 -0.00283287)
(0.00360032 0.00194494 -0.00281115)
(0.00365406 -0.00259099 -0.00274137)
(0.00347425 0.00300588 -0.00280793)
(0.00339189 -0.00390766 -0.00273118)
(0.00339229 0.00592915 -0.00315992)
(0.0024345 -0.00530515 -0.00307852)
(0.003566 0.0156221 -0.0040512)
(0.00406397 -0.00738821 -0.00541505)
(0.00442603 0.0343378 -0.00585529)
(0.00405804 -0.0238207 -0.00813145)
(0.0136178 0.0577171 -0.0016168)
(0.0168807 -0.064603 -0.0188772)
(-0.0395949 0.110402 -0.0896008)
(0.0303755 0.0236951 -0.0999016)
(0.0742194 0.349199 -0.00294403)
(0.0414656 0.392036 -0.00152467)
(0.0221334 -0.0369122 -0.000773215)
(0.0278537 -0.0612862 -0.000630672)
(0.0231023 -0.0846306 -0.000889519)
(0.0134483 -0.0722567 0.00193192)
(0.00878209 -0.0860405 0.00281163)
(0.00518997 -0.0765357 0.00257894)
(0.00297422 -0.0811767 0.00201461)
(0.00124738 -0.0716632 0.00133247)
(0.000189894 -0.0723675 0.000617565)
(-0.000262265 -0.0637421 -3.59437e-05)
(-0.000138933 -0.0621786 -0.000673732)
(0.000207495 -0.0557889 -0.00123974)
(0.000622954 -0.0536808 -0.00173977)
(0.00096821 -0.049032 -0.00214794)
(0.00128619 -0.0468028 -0.002486)
(0.00155564 -0.0432512 -0.00274808)
(0.00175468 -0.0401887 -0.00295633)
(0.00182791 -0.0371244 -0.00309374)
(0.00177666 -0.0335033 -0.00321259)
(0.00162551 -0.0293512 -0.00330243)
(0.00138596 -0.0248444 -0.00346258)
(0.00116675 -0.0192305 -0.00354336)
(0.000926295 -0.0132501 -0.00374247)
(0.000939798 -0.00667443 -0.00383003)
(0.00110542 -7.24972e-05 -0.00403541)
(0.00173025 0.00645079 -0.0041431)
(0.00285742 0.0116216 -0.00376237)
(0.0038565 0.0143525 -0.00412172)
(0.0044893 0.0149628 -0.00455153)
(0.00497241 0.0146126 -0.00441174)
(0.00526681 0.0140275 -0.00423335)
(0.00530269 0.0136261 -0.00425709)
(0.00525356 0.0151342 -0.00435093)
(0.0052069 0.0163662 -0.00439996)
(0.0137248 0.0223611 0.00290667)
(0.0141964 0.0103922 0.0024059)
(0.00944027 0.00820845 0.00039054)
(0.00981254 0.00630226 0.000132225)
(0.00791298 0.00513545 -0.000257499)
(0.00837557 0.00497155 -0.000264341)
(0.0076597 0.00427918 -0.000392825)
(0.00805439 0.00421803 -0.000357687)
(0.00771241 0.00370391 -0.000453271)
(0.00802621 0.00354943 -0.000411083)
(0.00781888 0.00308616 -0.000507788)
(0.00802799 0.0028765 -0.000489539)
(0.00787783 0.00248059 -0.000577195)
(0.00797938 0.00228134 -0.000577867)
(0.00787502 0.00198467 -0.000646624)
(0.00790683 0.0018296 -0.000653684)
(0.00784101 0.00162685 -0.000699812)
(0.00783777 0.00151467 -0.000708566)
(0.00779804 0.00138562 -0.000734388)
(0.00778268 0.00130654 -0.000741748)
(0.00775734 0.00122755 -0.000754338)
(0.00774075 0.00117303 -0.000758768)
(0.00772305 0.00112445 -0.000763477)
(0.00770848 0.00108765 -0.000764975)
(0.00769482 0.00105699 -0.000765453)
(0.0076827 0.00103241 -0.000764409)
(0.00767151 0.00101204 -0.00076242)
(0.00766121 0.000995224 -0.000759602)
(0.00765172 0.000981085 -0.000756104)
(0.00764291 0.000967979 -0.000751959)
(0.00763504 0.000957845 -0.000747069)
(0.00762671 0.000941928 -0.000741)
(0.00762189 0.000944307 -0.000734339)
(0.00761043 0.000899547 -0.000727136)
(0.00761276 0.000957495 -0.000718617)
(0.00759802 0.000809842 -0.000710383)
(0.00760516 0.00101733 -0.000699566)
(0.00759622 0.000637474 -0.00068877)
(0.00759317 0.00114179 -0.000676629)
(0.0076115 0.000350949 -0.000657883)
(0.00757492 0.00133898 -0.000648002)
(0.00764135 -8.81287e-05 -0.000609052)
(0.00754626 0.00161055 -0.000602802)
(0.00766699 -0.000718472 -0.000540541)
(0.0074783 0.00194461 -0.000542221)
(0.00763127 -0.00158981 -0.000440304)
(0.00732297 0.00245808 -0.000483424)
(0.00740798 -0.00277393 -0.000362554)
(0.00686545 0.00356466 -0.000551555)
(0.00664694 -0.00376972 -0.000676085)
(0.0057109 0.00688909 -0.00142879)
(0.00404104 -0.00340381 -0.00155858)
(0.00334352 0.015533 -0.00195148)
(0.00572835 -0.00592545 -0.00208126)
(0.0121467 0.0353185 0.000226628)
(0.024071 -0.0311792 -0.0019705)
(-0.00689051 0.0381951 0.00757603)
(-0.00227382 -0.0195295 -0.0120487)
(0.0268487 0.186322 -0.0161588)
(0.126367 -0.00546177 -0.0570993)
(0.0786151 0.352459 0.00585731)
(0.00819532 0.441118 0.00752522)
(-0.015404 -0.0506509 0.00877826)
(-0.00421281 -0.00681246 0.00774418)
(-0.00911248 -0.0361514 0.0080191)
(-0.0151617 -0.0371628 0.00986096)
(-0.0154891 -0.0509749 0.00892604)
(-0.015192 -0.0456829 0.00782383)
(-0.0138643 -0.0543482 0.006388)
(-0.0126586 -0.0485544 0.00497571)
(-0.0110157 -0.0521254 0.00366404)
(-0.00933577 -0.045854 0.0025283)
(-0.00735937 -0.0464431 0.00141516)
(-0.00549244 -0.0418265 0.000449879)
(-0.00367578 -0.0414044 -0.000349307)
(-0.00211581 -0.0382124 -0.000878937)
(-0.000809935 -0.0364292 -0.00124296)
(4.86043e-05 -0.0334161 -0.00146722)
(0.000463733 -0.0310591 -0.00152918)
(0.000486334 -0.0283732 -0.00149592)
(0.000182851 -0.0254701 -0.00139163)
(-0.000379198 -0.0224589 -0.00128722)
(-0.0010382 -0.0191799 -0.0012772)
(-0.00162047 -0.0143356 -0.00125692)
(-0.00199061 -0.00968022 -0.00142296)
(-0.00204467 -0.0043236 -0.00141286)
(-0.0017682 0.00103849 -0.00147061)
(-0.000875176 0.00613994 -0.00126958)
(0.000886892 0.0104563 -0.000371204)
(0.00267902 0.0130539 0.000155675)
(0.00393218 0.0142361 0.000151259)
(0.00498021 0.0140168 -5.39041e-05)
(0.00584711 0.0133476 -0.000254186)
(0.00625803 0.0134396 -0.000782507)
(0.00624102 0.0146549 -0.0013383)
(0.00618987 0.0163469 -0.00183753)
(0.0161618 0.0212729 0.0047888)
(0.0176482 0.010805 0.00460404)
(0.0109184 0.00788176 0.00217915)
(0.0119905 0.00694962 0.00206471)
(0.00906305 0.00511652 0.00168084)
(0.00990875 0.00524922 0.00170067)
(0.00871482 0.00427918 0.00152652)
(0.00937793 0.00435595 0.00161974)
(0.00878973 0.0036914 0.00149876)
(0.00928273 0.0036274 0.00159821)
(0.00893646 0.00305744 0.00149581)
(0.00924354 0.00291366 0.00155506)
(0.00900775 0.00244599 0.00146051)
(0.00915042 0.0022896 0.0014812)
(0.00898763 0.00195319 0.00140904)
(0.00902948 0.00182108 0.00141466)
(0.00892436 0.00160354 0.0013701)
(0.00891544 0.00150498 0.00137202)
(0.00884987 0.00137214 0.00135071)
(0.00882239 0.00130162 0.00135369)
(0.00877845 0.00122366 0.00134828)
(0.00874821 0.0011744 0.00135431)
(0.00871546 0.00112831 0.00135877)
(0.00868741 0.00109481 0.00136782)
(0.00866031 0.00106661 0.00137779)
(0.00863537 0.00104445 0.00138973)
(0.00861168 0.00102605 0.00140262)
(0.00858918 0.00101087 0.00141644)
(0.00856772 0.000998033 0.00143099)
(0.00854713 0.000986577 0.00144615)
(0.00852742 0.000977406 0.00146146)
(0.00850792 0.000963517 0.00147711)
(0.00849107 0.000966325 0.00149306)
(0.00846962 0.000924892 0.00150911)
(0.00845982 0.000981694 0.0015268)
(0.00843572 0.000837642 0.0015431)
(0.00843034 0.00104703 0.00156356)
(0.00841192 0.000665637 0.00158129)
(0.00839902 0.00118252 0.00160497)
(0.00840721 0.000375465 0.00162754)
(0.00835989 0.00139823 0.00165407)
(0.00842513 -7.83101e-05 0.00169374)
(0.00831217 0.00169438 0.00172146)
(0.0084409 -0.000756036 0.00177832)
(0.00822472 0.0020517 0.00181277)
(0.00838706 -0.00173289 0.00187636)
(0.00799895 0.0025273 0.00187043)
(0.00804816 -0.00309683 0.00187842)
(0.0072403 0.003638 0.00165691)
(0.00682187 -0.00426234 0.00119699)
(0.00601725 0.00757979 0.000407222)
(0.00480544 -0.00469396 0.000503211)
(0.0046449 0.0134922 0.00120524)
(0.00477396 -0.0163933 -6.56645e-05)
(0.0172332 0.0298864 0.00354934)
(0.0276979 -0.0399725 0.00150997)
(-0.0381005 0.0655112 0.0246643)
(-0.0500292 -0.10513 -0.00134441)
(-0.0410177 0.174292 -0.0456446)
(0.140496 -0.00845076 -0.0314944)
(0.143492 0.312321 0.00575599)
(0.0621442 0.348345 5.65746e-05)
(0.0588958 -0.0412734 0.00960049)
(0.0215579 0.0258761 0.0121608)
(-0.000252584 -0.0145007 0.0114025)
(-0.00535086 -0.0124398 0.0105455)
(-0.00982255 -0.0260131 0.00780093)
(-0.0132534 -0.0208575 0.00587086)
(-0.014391 -0.0291482 0.00350462)
(-0.0143667 -0.0232309 0.0018202)
(-0.0128467 -0.0266636 0.000350351)
(-0.00981329 -0.0206284 -0.000905944)
(-0.00596606 -0.0206134 -0.00225246)
(-0.00318893 -0.0152901 -0.00330108)
(-0.00137643 -0.0135549 -0.00385183)
(-0.000272597 -0.00902191 -0.00382624)
(0.000641105 -0.00635148 -0.00340759)
(0.00128936 -0.0032517 -0.00266809)
(0.00158053 -0.00173077 -0.00180691)
(0.00134333 -0.00089678 -0.00103973)
(0.000584876 -0.000824045 -0.000359995)
(-0.00055273 -0.000911739 0.000148848)
(-0.00186826 -0.000989904 0.000444557)
(-0.00309278 -0.000349482 0.00043818)
(-0.00392659 0.00121211 0.000238858)
(-0.00422464 0.0034322 0.000124477)
(-0.00400495 0.00632685 -4.01269e-05)
(-0.003144 0.00959418 0.000122421)
(-0.0013059 0.0121259 0.0012102)
(0.000780471 0.0135002 0.00215275)
(0.00210598 0.0141305 0.00240902)
(0.00303468 0.0138153 0.00259036)
(0.00394364 0.012961 0.00257772)
(0.00461264 0.013144 0.00202639)
(0.00491792 0.0147728 0.00127914)
(0.00498761 0.0160138 0.000408529)
(0.0164312 0.0199568 0.0056451)
(0.0195638 0.0113657 0.00586983)
(0.0105325 0.00749414 0.00292161)
(0.0129271 0.00805776 0.00273628)
(0.00895756 0.00532864 0.00249274)
(0.0103864 0.00611789 0.0024583)
(0.00863805 0.00454872 0.00236042)
(0.00960569 0.00489987 0.00247331)
(0.00869677 0.00388643 0.00237801)
(0.00936902 0.00398289 0.002515)
(0.0088291 0.00318951 0.00245767)
(0.00924399 0.00314452 0.00254845)
(0.00887942 0.00252533 0.00248702)
(0.00906534 0.00242879 0.00252365)
(0.00881817 0.00200854 0.00247223)
(0.00886657 0.00191883 0.00248822)
(0.00870768 0.00165841 0.00245974)
(0.00868971 0.00158432 0.0024715)
(0.00858958 0.00143473 0.0024613)
(0.0085474 0.0013762 0.00247323)
(0.00848034 0.00129363 0.002476)
(0.00843479 0.00125015 0.00248966)
(0.00838495 0.00120405 0.00250053)
(0.00834252 0.00117381 0.00251573)
(0.00830141 0.00114682 0.00253116)
(0.00826347 0.00112636 0.00254821)
(0.0082272 0.00110921 0.00256579)
(0.0081926 0.00109533 0.00258399)
(0.00815954 0.00108372 0.00260256)
(0.00812797 0.00107362 0.00262147)
(0.00809792 0.00106544 0.00264066)
(0.00806885 0.00105362 0.00266013)
(0.0080426 0.00105611 0.00267987)
(0.00801338 0.00101966 0.00269996)
(0.00799653 0.00107402 0.00272091)
(0.00796396 0.000935148 0.00274196)
(0.00795489 0.00114635 0.00276559)
(0.00792661 0.000763645 0.00278702)
(0.00791396 0.0012954 0.00281368)
(0.0079098 0.000467093 0.0028364)
(0.00786825 0.00153537 0.00287075)
(0.00792682 -3.33073e-06 0.00289959)
(0.00781744 0.00185506 0.00294551)
(0.00795257 -0.000726039 0.0029798)
(0.00776037 0.00220889 0.00304997)
(0.00790899 -0.00182686 0.00306677)
(0.00761737 0.00255001 0.0031283)
(0.00758616 -0.00350616 0.00302931)
(0.00694911 0.00309867 0.00284811)
(0.00618031 -0.00579026 0.00205661)
(0.00584079 0.00547584 0.00183802)
(0.00519516 -0.00886862 0.00214684)
(0.00559088 0.00642953 0.00514651)
(0.00550471 -0.021488 0.00328217)
(0.0182112 0.0219768 0.0080361)
(0.0224649 -0.0399782 0.00211378)
(0.00419793 0.0810198 0.0186706)
(-0.0568367 -0.123723 0.0171889)
(-0.047159 0.221897 -0.0937909)
(0.159449 -0.0558967 -0.00657473)
(0.171148 0.32625 0.00974298)
(0.0615207 0.283087 -0.00244359)
(0.0604508 0.0550152 0.00718944)
(-0.017522 0.111114 0.0134695)
(-0.0102225 0.0352907 0.0142292)
(-0.0123318 0.044434 0.00692841)
(-0.0137827 0.0231965 0.00188834)
(-0.0136932 0.0269545 -0.00142826)
(-0.0123185 0.0190228 -0.00373715)
(-0.0114043 0.0258585 -0.00554724)
(-0.0100958 0.0248874 -0.00775709)
(-0.00813919 0.0365445 -0.00883286)
(-0.00486707 0.0428347 -0.00871019)
(-0.00183784 0.0503565 -0.00599872)
(0.000512887 0.0507339 -0.00413623)
(0.00226695 0.0513846 -0.00267163)
(0.00372765 0.0488698 -0.00140554)
(0.00456398 0.0459981 -0.000476699)
(0.00479444 0.0418748 5.8059e-05)
(0.00426719 0.0373405 0.000377057)
(0.00303756 0.0325017 0.0004475)
(0.00121351 0.0278132 0.000346384)
(-0.000969253 0.0236365 0.000152522)
(-0.00310016 0.0203768 -0.000111198)
(-0.00483686 0.0179098 -0.000363992)
(-0.00581144 0.0166699 -0.000502772)
(-0.00589962 0.0163018 -0.000431056)
(-0.00480179 0.0163142 0.000343438)
(-0.00276182 0.0156218 0.00162139)
(-0.00124447 0.015024 0.0024357)
(-0.000479812 0.0144663 0.00287954)
(0.000100238 0.0134868 0.00323487)
(0.000860866 0.0121209 0.00327616)
(0.00171398 0.0119156 0.0027358)
(0.00241683 0.0131564 0.00192738)
(0.00285622 0.0153995 0.00104657)
(0.0147179 0.0184363 0.00617366)
(0.0206596 0.0119213 0.00680597)
(0.00859167 0.00684876 0.00313258)
(0.0129277 0.00927875 0.00286805)
(0.00783557 0.00531354 0.00258751)
(0.0100964 0.00692963 0.0024844)
(0.00768593 0.00455844 0.00250656)
(0.00900353 0.00531718 0.00270124)
(0.007664 0.00384215 0.00267512)
(0.00849474 0.00421607 0.00293886)
(0.00768661 0.00317712 0.0029439)
(0.00817507 0.00330704 0.00312842)
(0.00764871 0.00252939 0.00310218)
(0.00785485 0.00254027 0.00318539)
(0.00750407 0.00202855 0.00314576)
(0.0075506 0.00200081 0.00318317)
(0.00733027 0.00169696 0.00315988)
(0.00729788 0.00165891 0.00318383)
(0.00715987 0.00149038 0.00318118)
(0.007099 0.0014505 0.00320223)
(0.00700645 0.00136265 0.00321073)
(0.00694303 0.00132745 0.00323132)
(0.00687388 0.00128172 0.00324764)
(0.00681462 0.00125523 0.00326902)
(0.00675721 0.00122976 0.00329063)
(0.0067039 0.00121132 0.00331386)
(0.00665292 0.00119575 0.00333649)
(0.00660426 0.00118339 0.00335892)
(0.00655775 0.00117311 0.00338119)
(0.00651323 0.00116431 0.00340345)
(0.00647055 0.00115724 0.00342568)
(0.00642925 0.00114752 0.00344802)
(0.00639031 0.00114962 0.00347035)
(0.00635061 0.00111691 0.00349197)
(0.00632157 0.00116864 0.00351425)
(0.00627845 0.00103471 0.00353444)
(0.00626012 0.00124517 0.00355797)
(0.00621992 0.000863843 0.00357443)
(0.00620436 0.00140343 0.00359876)
(0.00618475 0.000564765 0.00361085)
(0.00615484 0.00166106 0.00364145)
(0.0061939 8.4375e-05 0.00365043)
(0.0061157 0.00200467 0.00369198)
(0.00625455 -0.000647749 0.0036991)
(0.00611169 0.00237561 0.00375599)
(0.00630725 -0.00173505 0.00371808)
(0.0061478 0.00270759 0.00376298)
(0.00622687 -0.00329044 0.00354219)
(0.00597116 0.00306227 0.00335465)
(0.00535945 -0.00571193 0.00282774)
(0.00632618 0.00361762 0.00371781)
(0.00648114 -0.0111803 0.00730569)
(0.00495615 0.00647561 0.0111467)
(0.000223703 -0.0195695 0.0120382)
(0.0158285 0.0253171 0.0298776)
(0.0080856 -0.0445765 0.0300715)
(-0.00373309 0.0500603 0.0607391)
(-0.0917918 -0.122512 0.0458638)
(0.00361272 0.190512 -0.166208)
(0.121407 -0.0638454 0.0109097)
(0.145231 0.44704 0.0128614)
(0.0490045 0.590693 -0.00346344)
(0.0461897 0.518532 0.000873559)
(0.0145097 0.556439 0.000339018)
(0.00791282 0.51992 -0.00109842)
(-0.00309114 0.524497 -0.00435422)
(-0.00392523 0.518006 -0.0062225)
(-0.00628739 0.522136 -0.00636371)
(-0.00610008 0.520919 -0.00650663)
(-0.00611311 0.526368 -0.00515489)
(-0.00417938 0.52204 -0.00376642)
(-0.00171354 0.519852 -0.00160596)
(0.00183438 0.504943 0.00012057)
(0.00464451 0.491399 0.00164567)
(0.00704858 0.468236 0.00263228)
(0.00826088 0.426622 0.00314278)
(0.00919973 0.356023 0.00341117)
(0.00959644 0.269096 0.00338546)
(0.00962041 0.193446 0.00318857)
(0.00914481 0.131346 0.0028075)
(0.00793506 0.084381 0.00227983)
(0.00616786 0.0629834 0.00159782)
(0.0039059 0.0516084 0.000869758)
(0.00157497 0.0437498 0.000263562)
(-0.000562512 0.0373471 -3.2247e-05)
(-0.00201196 0.0318021 6.86513e-05)
(-0.00262167 0.0272681 0.000582754)
(-0.00251899 0.0233544 0.00149003)
(-0.00227577 0.0202291 0.00225808)
(-0.00231133 0.0178656 0.00272924)
(-0.00270219 0.0160084 0.00286652)
(-0.00302073 0.0141694 0.00271276)
(-0.00296892 0.0123363 0.00212498)
(-0.00308963 0.0124438 0.00102634)
(-0.00327857 0.014088 0.000130936)
(-0.00450559 0.0156175 -0.00064494)
(0.0115772 0.0164823 0.00660151)
(0.0210551 0.0131152 0.00747915)
(0.00581434 0.00605318 0.00293471)
(0.0125063 0.0110248 0.00264393)
(0.0064194 0.00505239 0.00220434)
(0.00957119 0.00784345 0.00213365)
(0.00643694 0.00412204 0.00223138)
(0.00800481 0.00548962 0.00249066)
(0.00617289 0.00335001 0.00264252)
(0.00703602 0.00419224 0.0031191)
(0.00598123 0.00288012 0.00330242)
(0.00649246 0.00331219 0.00365515)
(0.00582643 0.00236985 0.00373266)
(0.00601641 0.00255829 0.00390423)
(0.00558544 0.0019538 0.00391642)
(0.00561831 0.00202707 0.00399718)
(0.00535666 0.00167955 0.00400164)
(0.00531851 0.00169398 0.00404721)
(0.00516296 0.00150895 0.00405982)
(0.00510035 0.00149813 0.00409249)
(0.00500356 0.00140845 0.00410948)
(0.00494127 0.00138636 0.00413585)
(0.0048734 0.00134362 0.0041548)
(0.00481688 0.00132305 0.00417676)
(0.00476233 0.00130098 0.00419565)
(0.00471229 0.00128662 0.00421533)
(0.0046657 0.00127497 0.00423532)
(0.00462201 0.00126623 0.00425463)
(0.00458073 0.00125893 0.00427279)
(0.00454189 0.00125266 0.00429014)
(0.00450532 0.00124774 0.0043067)
(0.00447081 0.00124057 0.0043226)
(0.00443864 0.00124393 0.00433718)
(0.00440707 0.0012158 0.00434972)
(0.00438583 0.0012664 0.00436279)
(0.00435232 0.00114021 0.00437207)
(0.00434584 0.00135113 0.00438631)
(0.00431518 0.000977661 0.00439137)
(0.00432074 0.00152403 0.00440867)
(0.00430746 0.000685618 0.00440936)
(0.00431603 0.00180304 0.00443314)
(0.00435472 0.000216753 0.00442808)
(0.00434367 0.00218886 0.00446007)
(0.00449201 -0.000491798 0.00445033)
(0.0044228 0.00263124 0.00447305)
(0.00470356 -0.00149637 0.0044168)
(0.00456028 0.00308031 0.0043564)
(0.00491249 -0.00279916 0.00408898)
(0.00470922 0.00347447 0.00373177)
(0.00504034 -0.00475692 0.00352103)
(0.00559323 0.00361357 0.00484898)
(0.00381853 -0.0089127 0.00878163)
(0.000524793 0.00823849 0.0116383)
(-0.0104448 -0.0146095 0.0203149)
(0.00258208 0.0214458 0.0428111)
(-0.00330532 -0.0230464 0.0521778)
(0.0202196 0.037158 0.108241)
(-0.0620061 -0.126413 0.0890248)
(0.0336521 0.0812072 -0.152268)
(0.0758332 -0.00367411 0.0250343)
(0.130519 0.480814 0.012611)
(0.0358421 0.609305 -0.00285704)
(0.0355499 0.570388 0.00435667)
(0.00970386 0.617864 0.00211515)
(0.00462852 0.613019 0.00172331)
(-0.000114377 0.622792 0.000521865)
(-0.00143122 0.615997 0.00114736)
(-0.00259347 0.609167 0.00124443)
(-0.00195666 0.601373 0.0024513)
(-0.00147792 0.601608 0.00340675)
(9.76415e-05 0.60377 0.00489322)
(0.00184888 0.594959 0.00593247)
(0.00441419 0.596236 0.00715241)
(0.00628254 0.604605 0.00793237)
(0.00756801 0.595297 0.00856756)
(0.00943134 0.580964 0.00879173)
(0.0108522 0.579318 0.00874587)
(0.011958 0.569535 0.00832989)
(0.0124111 0.558911 0.00786788)
(0.0123802 0.55236 0.0070074)
(0.0113274 0.529799 0.00628663)
(0.0098615 0.516963 0.00549667)
(0.00800426 0.494853 0.00473075)
(0.00586642 0.468189 0.00398232)
(0.00371301 0.395581 0.00354949)
(0.00175689 0.292194 0.00337042)
(1.46312e-05 0.219021 0.00341066)
(-0.0011481 0.111863 0.00370898)
(-0.00219392 0.0412787 0.00407064)
(-0.00323934 0.0247032 0.00432546)
(-0.00429172 0.0184005 0.00442145)
(-0.00499938 0.0146392 0.00430274)
(-0.00528186 0.0118841 0.0036001)
(-0.00493183 0.0109182 0.00225561)
(-0.00377561 0.0120799 -0.000470295)
(-0.00395264 0.0147444 -0.00458281)
(0.00667156 0.013929 0.0061224)
(0.0203588 0.0156402 0.00790016)
(0.0019228 0.00556929 0.0024713)
(0.0113508 0.01351 0.00284666)
(0.00444704 0.00493982 0.00191158)
(0.00861301 0.00913166 0.00228983)
(0.00471254 0.0037327 0.00227742)
(0.0063895 0.00573158 0.00257731)
(0.00385662 0.00261718 0.00271598)
(0.00464133 0.00392167 0.00328395)
(0.00310804 0.00229375 0.00357796)
(0.00359988 0.0030996 0.00408568)
(0.00264382 0.002029 0.00424238)
(0.00277977 0.00244657 0.00449161)
(0.00216141 0.00178573 0.00453408)
(0.00213828 0.00199444 0.00465088)
(0.00176297 0.00162393 0.00466442)
(0.00167999 0.00171289 0.00472632)
(0.001455 0.00152145 0.00473794)
(0.00135612 0.00154985 0.00477504)
(0.001224 0.00146145 0.00479064)
(0.00113796 0.00145726 0.00481589)
(0.00105088 0.00141978 0.00483043)
(0.000981455 0.00140743 0.00484852)
(0.000918238 0.00139023 0.00486303)
(0.000862562 0.00137954 0.00487719)
(0.00081173 0.00137056 0.00488915)
(0.000767379 0.00136437 0.00490036)
(0.000728661 0.00135956 0.00491118)
(0.000694051 0.00135603 0.00492126)
(0.000662795 0.00135378 0.00493022)
(0.00063459 0.00135038 0.00493806)
(0.000609904 0.00135653 0.00494469)
(0.000588236 0.00133381 0.00495067)
(0.000575053 0.00138676 0.00495619)
(0.00055084 0.00127082 0.00495807)
(0.000555328 0.00148413 0.00496556)
(0.000532471 0.00112447 0.0049665)
(0.000559463 0.00167853 0.00498714)
(0.000550398 0.000852697 0.00499141)
(0.000595936 0.00199048 0.0050217)
(0.000633618 0.00041786 0.00501969)
(0.000686424 0.00243956 0.00505727)
(0.000841507 -0.000221337 0.00504913)
(0.00085389 0.00302647 0.00506636)
(0.00123162 -0.00110102 0.00502979)
(0.00114998 0.00377798 0.00494892)
(0.00186102 -0.00223891 0.00478529)
(0.00167271 0.00465861 0.00439401)
(0.00293853 -0.0037216 0.00430989)
(0.00263151 0.00584524 0.00479776)
(0.00202738 -0.00788279 0.00734632)
(-0.00329726 0.00619676 0.00839101)
(-0.0166397 -0.0198525 0.0107444)
(-0.0229341 -0.00246596 0.0262295)
(-0.0324126 -0.0468654 0.0454338)
(-0.00113604 -0.0265634 0.0810462)
(-0.00621443 -0.120842 0.0768726)
(0.0269093 -0.0212779 -0.145984)
(0.0379484 0.0524529 0.0271348)
(0.0689934 0.555384 0.00937831)
(0.0169306 0.637617 -0.00353175)
(0.0167292 0.590298 0.00449941)
(0.0035349 0.66702 0.0060381)
(0.00164038 0.627988 0.00887498)
(-0.000806782 0.645308 0.00810179)
(-0.00129162 0.631986 0.00899474)
(-0.00192991 0.624639 0.00901731)
(-0.0016887 0.632811 0.00987027)
(-0.00131725 0.618118 0.0105948)
(-2.37408e-05 0.63163 0.011541)
(0.00132463 0.635032 0.0120002)
(0.00359024 0.636842 0.0127895)
(0.00546151 0.61828 0.0131752)
(0.00786484 0.599997 0.014147)
(0.00999891 0.619482 0.0140163)
(0.0120685 0.61887 0.0140855)
(0.0136346 0.598104 0.0137512)
(0.015158 0.62367 0.0133105)
(0.0161924 0.612161 0.0123421)
(0.0162175 0.589134 0.0117411)
(0.0157251 0.598096 0.0106601)
(0.0145159 0.595221 0.00921591)
(0.0123556 0.579998 0.00762799)
(0.00983096 0.562768 0.00611973)
(0.00733259 0.532414 0.00510296)
(0.00431401 0.528958 0.00392923)
(0.00113563 0.522372 0.0027269)
(-0.00217236 0.5029 0.00153625)
(-0.0052476 0.494725 0.000470285)
(-0.00835262 0.481711 -0.000869784)
(-0.0105687 0.455884 -0.00220958)
(-0.0125557 0.403284 -0.00348234)
(-0.0138567 0.315604 -0.00552461)
(-0.0137216 0.199771 -0.00838944)
(-0.0161583 0.134105 -0.0123599)
(-0.000155811 0.00900973 0.00559035)
(0.0182807 0.0191637 0.00740012)
(-0.00218354 0.00498767 0.00217682)
(0.00984866 0.0164674 0.00351172)
(0.00240445 0.004765 0.00236689)
(0.00738968 0.0103961 0.00304951)
(0.00298407 0.00341467 0.00306553)
(0.00478624 0.00608709 0.00334662)
(0.00175525 0.0018112 0.00352135)
(0.0022659 0.00350903 0.00410928)
(0.000420927 0.00146202 0.00448552)
(0.000908563 0.00265996 0.00504829)
(-0.000208636 0.00140537 0.00528104)
(-6.34854e-05 0.00210756 0.00558675)
(-0.000781455 0.00138728 0.00567841)
(-0.000790218 0.0017954 0.00584024)
(-0.00120249 0.001422 0.005889)
(-0.00125554 0.00163495 0.0059909)
(-0.00147399 0.00146456 0.00603309)
(-0.00153424 0.00156044 0.00610444)
(-0.0016377 0.00149639 0.00614837)
(-0.00168375 0.00153186 0.00620377)
(-0.00173104 0.0015174 0.00624524)
(-0.00175642 0.00152793 0.00629142)
(-0.00177492 0.00152879 0.00633335)
(-0.0017837 0.00153461 0.0063757)
(-0.0017854 0.00153924 0.00641664)
(-0.00178147 0.00154405 0.00645638)
(-0.00177425 0.00154867 0.00649464)
(-0.00176268 0.00155331 0.00653214)
(-0.0017474 0.00155823 0.00656887)
(-0.00172836 0.00156161 0.0066052)
(-0.00170599 0.00157216 0.00664002)
(-0.00167945 0.00155678 0.0066758)
(-0.00164656 0.00161126 0.00670925)
(-0.00162239 0.00150597 0.00674324)
(-0.00156675 0.00171885 0.00677944)
(-0.00154347 0.00137455 0.00681297)
(-0.00145581 0.00193292 0.00685555)
(-0.00142556 0.00112303 0.00688715)
(-0.00130742 0.00227923 0.00693306)
(-0.00123973 0.000721669 0.00695903)
(-0.00109672 0.00279061 0.00700368)
(-0.000928306 0.000143105 0.00702098)
(-0.000814163 0.00351124 0.00703596)
(-0.000433262 -0.000623311 0.00702159)
(-0.000439928 0.0045218 0.00692518)
(0.000259383 -0.00163401 0.0067884)
(-5.64214e-05 0.00588505 0.00649115)
(0.00137594 -0.00295188 0.00649418)
(0.000902804 0.00800025 0.00675109)
(0.00222183 -0.00525185 0.00875591)
(-0.00159633 0.0114871 0.0106716)
(-0.00430553 -0.0107738 0.0119121)
(-0.0168807 0.00528513 0.0281442)
(-0.0226972 -0.0462462 0.0392734)
(-0.0147799 -0.034668 0.0715864)
(0.0158876 -0.0983458 0.0631331)
(-0.00662693 -0.0569833 -0.134297)
(-0.0163595 0.0905861 0.0258538)
(-0.0347743 0.599299 -0.000270491)
(-0.0193995 0.697885 -0.00545415)
(-0.0149967 0.699454 0.0094559)
(-0.00936805 0.730676 0.0110257)
(-0.00573805 0.722874 0.0142808)
(-0.00418401 0.723621 0.0145568)
(-0.00175143 0.723172 0.015644)
(-0.0014152 0.73652 0.0159506)
(-0.000362307 0.716667 0.0166516)
(0.00138269 0.718098 0.0174662)
(0.00281032 0.710008 0.0181936)
(0.00457209 0.709807 0.0187372)
(0.00653267 0.704101 0.0193822)
(0.00901113 0.699247 0.0198161)
(0.0117509 0.691201 0.0204545)
(0.0139992 0.680655 0.0207714)
(0.0160644 0.670377 0.0213168)
(0.017913 0.675238 0.0217428)
(0.0195491 0.672464 0.0222807)
(0.0208833 0.666502 0.0228551)
(0.0219868 0.660195 0.023424)
(0.0222785 0.653811 0.023736)
(0.0222047 0.645547 0.0237015)
(0.0216438 0.637909 0.0233609)
(0.020936 0.625062 0.0225754)
(0.0199296 0.602973 0.0213902)
(0.0184934 0.591357 0.0198121)
(0.0167025 0.575347 0.0177832)
(0.0146997 0.554207 0.0151952)
(0.0120281 0.537617 0.0115644)
(0.00893799 0.493069 0.00684449)
(0.00553839 0.454056 0.000439174)
(0.00187619 0.417286 -0.00810093)
(-0.00225971 0.380517 -0.0207362)
(-0.008396 0.386389 -0.0423132)
(-0.015218 0.416592 -0.0668414)
(-0.00997012 0.0078918 -0.00482314)
(0.0158599 0.0244948 0.00485819)
(-0.00730977 0.00412191 -0.0016119)
(0.00718809 0.0192084 0.00136903)
(-0.000308442 0.00395017 0.000376565)
(0.00520416 0.011253 0.000975652)
(0.000429477 0.00284275 0.000858165)
(0.00238128 0.00635671 0.00100177)
(-0.00112175 0.0010991 0.000969531)
(-0.000988839 0.00303748 0.00137509)
(-0.00335866 0.000713321 0.00171603)
(-0.00297263 0.00232436 0.00231359)
(-0.00431961 0.00102768 0.00262548)
(-0.00425901 0.00198501 0.00295572)
(-0.00508253 0.00126088 0.00309368)
(-0.00512504 0.00179436 0.00326215)
(-0.00559412 0.00141825 0.00333142)
(-0.0056737 0.00169458 0.00343931)
(-0.00592729 0.00152786 0.00349311)
(-0.00600994 0.00165944 0.00357057)
(-0.00613872 0.00160639 0.00362249)
(-0.00620608 0.00165938 0.003684)
(-0.00627227 0.00165603 0.0037325)
(-0.00631701 0.00167649 0.00378427)
(-0.00635388 0.00168566 0.00383122)
(-0.0063803 0.00169789 0.00387787)
(-0.00639916 0.00170802 0.00392268)
(-0.0064108 0.00171796 0.00396627)
(-0.00641661 0.0017264 0.00400859)
(-0.00641832 0.00173341 0.00404993)
(-0.00641632 0.00173997 0.00409041)
(-0.00641024 0.00174475 0.00413047)
(-0.00640096 0.00175524 0.00416932)
(-0.00638637 0.00174354 0.00420915)
(-0.00636753 0.0017954 0.00424464)
(-0.00635694 0.00169991 0.00428375)
(-0.00631746 0.00190204 0.00431825)
(-0.00631596 0.00157834 0.00435767)
(-0.00623743 0.0021174 0.00439252)
(-0.00623613 0.00134893 0.00442939)
(-0.00611315 0.00247349 0.00446363)
(-0.00609504 0.000988691 0.00449302)
(-0.00592868 0.00301103 0.00452604)
(-0.00584748 0.000493828 0.00453638)
(-0.00567089 0.00380573 0.00455114)
(-0.00542503 -0.000141686 0.00450327)
(-0.00531649 0.00496503 0.00444061)
(-0.00473283 -0.00104239 0.00428703)
(-0.00487075 0.0064469 0.00412248)
(-0.00364534 -0.00289254 0.00425978)
(-0.00499049 0.00818798 0.00421861)
(-0.0039469 -0.00536101 0.00595764)
(-0.0101666 0.0139093 0.00710899)
(-0.00849966 -0.00780742 0.00908542)
(-0.021538 0.018091 0.0247467)
(-0.0134274 -0.0488624 0.0331681)
(-0.0258989 -0.0230144 0.0570966)
(0.0592994 -0.127602 0.0559447)
(-0.035793 0.0249702 -0.155223)
(-0.0618454 0.0296496 0.0136875)
(-0.133016 0.51184 -0.0138888)
(-0.0458003 0.593038 -0.00644596)
(-0.0409089 0.576805 0.00268083)
(-0.0195162 0.608069 0.00723853)
(-0.0139896 0.58876 0.0086064)
(-0.00893937 0.576994 0.00896308)
(-0.00674363 0.582859 0.00957503)
(-0.00503329 0.583674 0.0100483)