/*--------------------------------*- C++ -*----------------------------------*\
| =========                 |                                                 |
| \\      /  F ield         | OpenFOAM: The Open Source CFD Toolbox           |
|  \\    /   O peration     | Version:  2.3.0                                 |
|   \\  /    A nd           | Web:      www.OpenFOAM.org                      |
|    \\/     M anipulation  |                                                 |
\*---------------------------------------------------------------------------*/
FoamFile
{
    version     2.0;
    format      ascii;
    class       volVectorField;
    location    "10";
    object      U.airMean;
}
// * * * * * * * * * * * * * * * * * * * * * * * * * * * * * * * * * * * * * //

dimensions      [0 1 -1 0 0 0 0];

internalField   nonuniform List<vector> 
6144
(
(0.00655913 0.0210268 -0.00075623)
(0.00634375 0.00822686 -0.00101309)
(0.00436824 0.00652482 -0.00194762)
(0.00441514 0.00441773 -0.00212368)
(0.00373972 0.00351392 -0.00224991)
(0.00385768 0.00324158 -0.00228644)
(0.00361684 0.00280118 -0.00235258)
(0.00373803 0.00275426 -0.00238382)
(0.00363944 0.0024682 -0.00244141)
(0.00374178 0.0023768 -0.00246811)
(0.00369055 0.00210112 -0.00253358)
(0.00376296 0.00195685 -0.00255911)
(0.00373101 0.00168733 -0.00261934)
(0.00376804 0.00153679 -0.00264549)
(0.00374751 0.00132014 -0.0026933)
(0.00376058 0.00119856 -0.00271458)
(0.00374907 0.00104731 -0.00274773)
(0.00375 0.000961225 -0.00276379)
(0.00374351 0.000864671 -0.00278442)
(0.00374086 0.000806711 -0.00279586)
(0.00373661 0.000748345 -0.00280826)
(0.00373353 0.00070981 -0.00281613)
(0.0037304 0.000674765 -0.00282349)
(0.00372769 0.000648965 -0.00282885)
(0.00372521 0.000627251 -0.0028334)
(0.0037229 0.000608922 -0.0028369)
(0.00372077 0.000595111 -0.00283988)
(0.00371863 0.000577748 -0.00284185)
(0.00371811 0.000575858 -0.00284381)
(0.00371414 0.000535455 -0.00284417)
(0.00371722 0.00057863 -0.00284609)
(0.00370967 0.000456982 -0.00284497)
(0.00371983 0.0006161 -0.00284649)
(0.00370536 0.00031537 -0.00284425)
(0.0037257 0.000696657 -0.00284395)
(0.00370166 8.40986e-05 -0.00284099)
(0.00373292 0.000819406 -0.00283747)
(0.00369867 -0.000249395 -0.00283494)
(0.003732 0.000974836 -0.0028274)
(0.00369687 -0.00066224 -0.00283057)
(0.00370243 0.00118678 -0.00282845)
(0.00367128 -0.00104969 -0.00284833)
(0.00362691 0.00166486 -0.00288173)
(0.00359147 -0.00115064 -0.00292362)
(0.00352981 0.00285266 -0.00298812)
(0.00354448 -0.000586329 -0.00302214)
(0.00352291 0.00510732 -0.0031909)
(0.00318421 0.00111499 -0.00348191)
(0.00218271 0.0102262 -0.00364238)
(0.00157092 0.00559186 -0.0032936)
(0.000554272 0.0175126 -0.00302077)
(0.00449534 0.00904919 -0.00331372)
(0.0129737 0.0148196 -0.00427662)
(0.0162621 -0.0238597 -0.00417241)
(0.0183257 -0.00876478 -0.0078087)
(0.0184651 -0.0565044 -0.00550971)
(0.0132346 -0.00459427 -0.0185754)
(0.0190368 -0.069043 0.0169525)
(-0.0199796 0.0591508 -0.0403577)
(0.0272225 0.0902258 0.0374972)
(0.101268 0.332672 0.0410297)
(0.0468032 0.404745 0.00346037)
(0.0508189 -0.0626278 0.0135917)
(0.0436027 -0.11948 0.00861658)
(0.0343246 -0.134031 0.00593363)
(0.0269147 -0.115167 0.00519861)
(0.0203213 -0.121328 0.00399898)
(0.0161166 -0.10594 0.00388722)
(0.0139632 -0.107476 0.00419459)
(0.0119931 -0.0935547 0.00493169)
(0.0105518 -0.0935283 0.00550923)
(0.00882925 -0.0836746 0.00587073)
(0.00671805 -0.0807287 0.00597659)
(0.00353795 -0.0714788 0.006033)
(0.000509611 -0.0651744 0.0061762)
(-0.00280666 -0.0556926 0.00563491)
(-0.00474176 -0.0460199 0.00434788)
(-0.00420969 -0.0385932 0.00422747)
(-0.00448166 -0.0332804 0.00429791)
(-0.00112039 -0.0281999 0.00308937)
(0.0030198 -0.025979 0.00155683)
(0.00433788 -0.0243246 0.000752105)
(0.00474127 -0.021791 0.000940592)
(0.00500643 -0.0193841 0.000365618)
(0.0046502 -0.0157138 -0.00119797)
(0.00393729 -0.0112833 -0.00178272)
(0.00337636 -0.00569891 -0.00261061)
(0.00273483 0.000541602 -0.00279829)
(0.00183842 0.00754514 -0.00362826)
(0.00217646 0.0167645 -0.00325343)
(0.00347075 0.0234462 -0.00383709)
(0.00407609 0.0294851 -0.00442457)
(0.00315319 0.0346885 -7.52746e-05)
(0.0022553 0.0344184 0.00618139)
(0.00178599 0.0304516 0.0100376)
(0.00202024 0.0243953 0.012583)
(0.0137898 0.0223034 0.00298932)
(0.0143173 0.0104759 0.00257417)
(0.00936093 0.0081689 0.000702592)
(0.00969957 0.00620352 0.000427032)
(0.00775404 0.00498171 9.95192e-05)
(0.00815625 0.00479427 6.30052e-05)
(0.00748287 0.00410724 -8.85413e-05)
(0.00783441 0.0040661 -8.52003e-05)
(0.00754203 0.00359086 -0.000197045)
(0.00784615 0.00345738 -0.000170181)
(0.00768891 0.00302981 -0.000272396)
(0.00791053 0.00281719 -0.000258899)
(0.00779752 0.00243046 -0.000354105)
(0.00790969 0.00221918 -0.000363769)
(0.00782794 0.00191884 -0.000443871)
(0.00786625 0.00175457 -0.000460258)
(0.00781374 0.00154809 -0.000515817)
(0.00781549 0.00143338 -0.000531362)
(0.00778364 0.00130281 -0.000563909)
(0.00777329 0.00122508 -0.00057527)
(0.00775312 0.00114631 -0.000591978)
(0.00774097 0.00109409 -0.000598558)
(0.00772712 0.00104645 -0.000605417)
(0.00771613 0.0010112 -0.000608055)
(0.00770578 0.000981399 -0.000609475)
(0.00769673 0.000956609 -0.00060889)
(0.0076886 0.000937149 -0.000607285)
(0.00768109 0.000915875 -0.000604086)
(0.0076767 0.000908325 -0.000599975)
(0.00766698 0.000866399 -0.000594502)
(0.00767178 0.000906443 -0.000588742)
(0.00765264 0.000775252 -0.000581733)
(0.00767634 0.000945496 -0.00057261)
(0.00763837 0.000609236 -0.000565359)
(0.00769144 0.00103615 -0.000549948)
(0.00762556 0.00033445 -0.000542836)
(0.00771225 0.00118003 -0.000520858)
(0.00761173 -7.54017e-05 -0.000515806)
(0.00771861 0.00137289 -0.000490767)
(0.00758249 -0.000618546 -0.000501967)
(0.00763979 0.00162437 -0.000505466)
(0.00745837 -0.00117392 -0.00056916)
(0.00736203 0.00213367 -0.000675624)
(0.00707397 -0.00136684 -0.000851364)
(0.00678358 0.00355537 -0.00107324)
(0.00637687 -0.000384701 -0.00128427)
(0.00592852 0.0069087 -0.00153982)
(0.0048706 0.00295393 -0.00176309)
(0.00416662 0.0124274 -0.00147598)
(0.00393969 0.00357203 -0.00101001)
(0.00454481 0.0126524 0.000376851)
(0.0108383 -0.0119024 0.00102422)
(0.0306289 -0.00914409 0.00388079)
(0.0387687 -0.0536613 0.00746586)
(0.034238 -0.037054 0.00725832)
(0.0392225 -0.096954 0.00998299)
(0.0166622 -0.0480814 0.00528749)
(0.0100123 -0.161689 0.0340256)
(-0.0736582 0.0524187 -0.0922542)
(0.0185522 0.0396571 0.0212213)
(0.112317 0.350811 0.0839165)
(0.0230149 0.43587 0.00410961)
(0.0216669 -0.0249056 0.00793122)
(0.0210567 0.0138956 0.0100001)
(0.0126521 -0.0142809 0.00952308)
(0.00556624 0.00709568 0.00720695)
(-0.000966515 -0.00455215 0.00525881)
(-0.00160699 0.0120162 0.00482565)
(-8.88599e-05 0.0114806 0.00751439)
(0.000124266 0.0242497 0.00718684)
(0.00051048 0.0210725 0.00817756)
(0.000546653 0.0287381 0.00837365)
(9.57814e-05 0.0257081 0.00623432)
(-1.89826e-05 0.0277859 0.00355323)
(0.000521301 0.0224964 0.00221113)
(0.0022603 0.019941 0.0017998)
(0.00564802 0.0153241 0.0010358)
(0.00786162 0.0113117 0.00227146)
(0.00864726 0.00645385 0.00306548)
(0.0102639 0.0036824 0.00334506)
(0.010723 0.00151146 0.00184528)
(0.0113341 0.00256825 0.00127111)
(0.0106826 0.00186041 0.00166917)
(0.00878271 0.000696275 0.00164784)
(0.00598617 0.000201436 0.0015477)
(0.00324073 1.41145e-05 0.00200154)
(0.00174316 0.00124197 0.00169839)
(0.000157601 0.00331683 0.00148995)
(-0.00102442 0.00591991 0.00113679)
(-0.00163814 0.0102246 0.000714057)
(-7.53962e-05 0.0149712 -0.000379959)
(0.00206945 0.0212969 -0.0028934)
(0.00230559 0.029077 0.000649238)
(0.000679332 0.0308187 0.00862366)
(-0.00116081 0.0275525 0.0134965)
(-0.00191244 0.023138 0.0165838)
(0.0161748 0.0209925 0.00475143)
(0.0177188 0.0109447 0.00461039)
(0.0108076 0.0079157 0.00239448)
(0.0118407 0.00704132 0.00226882)
(0.00884142 0.00510534 0.00200269)
(0.00958681 0.00520119 0.00198853)
(0.00843258 0.0042081 0.00182876)
(0.00901596 0.0042704 0.00189257)
(0.00848625 0.00363169 0.00176189)
(0.00894913 0.00357641 0.00184353)
(0.00867087 0.0030463 0.00175369)
(0.00898972 0.00289612 0.001811)
(0.00880689 0.00243302 0.00172494)
(0.00896459 0.00225346 0.00173842)
(0.00883046 0.00191294 0.00166702)
(0.00888147 0.0017651 0.00166544)
(0.00879257 0.0015431 0.00161891)
(0.00879083 0.00143902 0.00161641)
(0.00873465 0.0013042 0.00159367)
(0.00871391 0.00123373 0.00159493)
(0.00867631 0.00115556 0.00158882)
(0.0086519 0.00110803 0.00159462)
(0.00862405 0.00106256 0.00159898)
(0.00860073 0.00103058 0.00160838)
(0.00857795 0.00100306 0.00161874)
(0.00855721 0.000981086 0.00163126)
(0.00853765 0.00096316 0.0016447)
(0.00851933 0.000943813 0.00165932)
(0.00850357 0.000936877 0.00167481)
(0.0084848 0.000900358 0.00169091)
(0.00848003 0.000935688 0.00170785)
(0.00844958 0.000816915 0.00172472)
(0.00846912 0.000975049 0.00174488)
(0.00841417 0.000659238 0.00176077)
(0.00847413 0.00106508 0.00178743)
(0.00838127 0.000390781 0.00180107)
(0.00849029 0.00120491 0.00183563)
(0.00834751 -2.5731e-05 0.00184599)
(0.00849816 0.0013815 0.00188362)
(0.00829277 -0.000609152 0.00187481)
(0.00841128 0.00159459 0.0018761)
(0.00812783 -0.00128696 0.00178957)
(0.00804937 0.00199483 0.00165202)
(0.0075929 -0.00175028 0.00139528)
(0.00719196 0.00310208 0.00106046)
(0.00653214 -0.0012789 0.000737647)
(0.00601879 0.00542445 0.000495534)
(0.00545063 0.000108097 0.000127245)
(0.00616739 0.00811177 0.000173946)
(0.00840555 -0.00481732 0.000678282)
(0.0150996 0.000361751 0.00297255)
(0.0286501 -0.0302564 0.00176615)
(0.0459622 -0.0242284 0.00792309)
(0.0517913 -0.0632429 0.0117082)
(0.0494922 -0.0368832 0.0168047)
(0.0605023 -0.102783 0.0192357)
(0.0301705 -0.0333312 0.026796)
(0.0442563 -0.187163 0.0672241)
(-0.0757959 0.0928175 -0.0812298)
(0.044069 0.0150602 -0.002707)
(0.155032 0.380709 0.108769)
(0.0670909 0.461088 0.0260689)
(0.0581603 -0.0044254 0.0243724)
(0.0417615 0.074427 0.00492204)
(0.0284349 0.0205263 0.0136123)
(0.0184951 0.0436394 0.0157915)
(0.00804879 0.0239361 0.0152246)
(-0.00141755 0.0367295 0.0112809)
(-0.000985876 0.0376475 0.0110923)
(0.00186381 0.0519282 0.00919015)
(0.00234304 0.0495267 0.00537331)
(0.00210412 0.0571727 0.0032236)
(0.00321833 0.0530338 0.00212254)
(0.00460325 0.0539748 0.00269278)
(0.00665787 0.0485658 0.00381481)
(0.008229 0.0436638 0.00485311)
(0.00999914 0.0366759 0.0054316)
(0.00981139 0.0300821 0.00622332)
(0.00814106 0.0230385 0.00583331)
(0.00664429 0.0171366 0.00427019)
(0.00644877 0.0143542 0.00204434)
(0.00713467 0.0139937 0.0012047)
(0.00761553 0.0139827 0.00220983)
(0.00640177 0.012285 0.0039102)
(0.00296648 0.00952632 0.00502316)
(-0.000746558 0.00698285 0.00578049)
(-0.00285912 0.00685481 0.00526701)
(-0.00480704 0.00738457 0.00464832)
(-0.00660152 0.00840923 0.00405357)
(-0.00748011 0.010721 0.00338518)
(-0.00676702 0.0138814 0.00238762)
(-0.00489385 0.0186512 0.00092422)
(-0.00375172 0.0244487 0.00322409)
(-0.00441147 0.0269462 0.0096172)
(-0.00701692 0.0247728 0.0147181)
(-0.00888689 0.0213472 0.0173051)
(0.0163447 0.0194862 0.00543653)
(0.019741 0.0113392 0.00564752)
(0.0103887 0.0073717 0.00295689)
(0.012846 0.00807757 0.00269702)
(0.00875569 0.00524662 0.00262787)
(0.0100925 0.00606495 0.00253923)
(0.00835981 0.00448347 0.0025373)
(0.00921771 0.00482801 0.00263055)
(0.00835679 0.00386025 0.00254445)
(0.00895639 0.00396899 0.002674)
(0.00849167 0.00323228 0.00264112)
(0.00890975 0.00317735 0.00274176)
(0.00861446 0.00256892 0.00269957)
(0.00880647 0.00244339 0.00273558)
(0.00859655 0.00201563 0.00268987)
(0.0086519 0.00190179 0.00270194)
(0.00851119 0.00163695 0.00267411)
(0.00850046 0.0015513 0.0026833)
(0.00841118 0.00139895 0.00267347)
(0.00837671 0.001338 0.00268489)
(0.00831712 0.00125431 0.00268831)
(0.00827858 0.0012113 0.00270251)
(0.00823478 0.00116517 0.00271407)
(0.00819826 0.00113581 0.0027302)
(0.00816255 0.00110895 0.00274649)
(0.00812993 0.0010888 0.00276442)
(0.00809913 0.00107179 0.0027827)
(0.00807002 0.00105526 0.00280156)
(0.00804378 0.00104759 0.00282082)
(0.0080167 0.00101716 0.00284036)
(0.00800386 0.00104672 0.00286043)
(0.00796503 0.000942487 0.00288103)
(0.00798215 0.00108623 0.00290406)
(0.00791543 0.000794157 0.00292484)
(0.00798496 0.00117775 0.00295303)
(0.00787267 0.000532762 0.00297293)
(0.00801042 0.00131822 0.00300843)
(0.00783645 0.000109457 0.00302615)
(0.008039 0.00148561 0.00306273)
(0.00778598 -0.000516468 0.00306333)
(0.00798835 0.00166757 0.00305519)
(0.0076113 -0.00132272 0.00296041)
(0.00761623 0.00194561 0.00278452)
(0.00697717 -0.00211487 0.00250017)
(0.00652001 0.00263506 0.00219281)
(0.00577287 -0.00231789 0.00185315)
(0.00544905 0.00399876 0.00157848)
(0.00519994 -0.00260094 0.00120668)
(0.00849135 0.0036527 0.00232145)
(0.0132559 -0.0120259 0.00432042)
(0.0238917 -0.0114529 0.00627199)
(0.0397391 -0.0381059 0.00798927)
(0.0516441 -0.0243547 0.0212892)
(0.0541757 -0.0562986 0.0309378)
(0.0480711 -0.0114876 0.0472143)
(0.0565214 -0.085604 0.0499445)
(0.0286474 0.0409329 0.0923742)
(0.0657369 -0.210434 0.122973)
(-0.101921 0.237474 -0.0717679)
(0.0419644 -0.047929 0.0299467)
(0.127069 0.455057 0.120556)
(0.0410835 0.566496 0.0204537)
(0.0259163 0.386219 0.0157097)
(0.00701145 0.427224 0.00224367)
(0.00349813 0.366036 0.0136471)
(-0.0102168 0.350791 0.00576927)
(-0.0128001 0.306437 0.00609029)
(-0.0152547 0.28278 0.00473302)
(-0.0125825 0.263504 0.00396752)
(-0.00820463 0.260193 0.00316095)
(-0.00373519 0.244867 0.00386143)
(0.000256589 0.237257 0.00419444)
(0.0040226 0.216804 0.00441073)
(0.00671781 0.200673 0.00415144)
(0.00947288 0.184333 0.00420841)
(0.0107539 0.167955 0.00401866)
(0.0122963 0.152177 0.00361809)
(0.0116097 0.128033 0.00363976)
(0.0101626 0.0950732 0.00234302)
(0.00828171 0.0592119 -1.79931e-05)
(0.00616323 0.0420343 -0.00310034)
(0.00614496 0.0365759 -0.00403761)
(0.00751982 0.0348741 -0.00245727)
(0.00696656 0.0316221 -0.00113365)
(0.00264096 0.0282127 0.000144167)
(-0.00376239 0.0213477 0.0028012)
(-0.00698791 0.0185439 0.00344553)
(-0.00946207 0.0161773 0.00312106)
(-0.0116629 0.015342 0.00237688)
(-0.0126458 0.0158381 0.00183178)
(-0.012041 0.0175756 0.000955159)
(-0.0107257 0.0209122 0.000384333)
(-0.00973907 0.0247835 0.0039643)
(-0.00953424 0.0254958 0.00975653)
(-0.0125967 0.0236078 0.0138687)
(-0.0152989 0.0200511 0.0161095)
(0.0147062 0.0177937 0.00585399)
(0.0210015 0.0118717 0.00630187)
(0.00851333 0.00649415 0.00285032)
(0.0130736 0.00923428 0.00244668)
(0.00773939 0.00499663 0.00237025)
(0.00992079 0.0067351 0.00222643)
(0.00745386 0.00429341 0.00241663)
(0.00864244 0.00510716 0.00258993)
(0.00730599 0.00369591 0.00264409)
(0.00803926 0.00412759 0.00293595)
(0.00730749 0.00320121 0.00300555)
(0.00777448 0.00333744 0.00322569)
(0.00732364 0.00259624 0.00324251)
(0.00752128 0.00257384 0.00333893)
(0.00720984 0.00206605 0.0033125)
(0.00725106 0.00201012 0.00334991)
(0.00705019 0.00170411 0.0033302)
(0.00702014 0.00165129 0.00335175)
(0.00689276 0.00148122 0.00334889)
(0.00683826 0.00143595 0.00336849)
(0.00675363 0.00134686 0.00337709)
(0.00669723 0.00131067 0.00339707)
(0.00663499 0.00126436 0.00341312)
(0.00658264 0.00123792 0.00343413)
(0.00653192 0.00121222 0.00345459)
(0.00648534 0.00119399 0.00347666)
(0.00644145 0.00117855 0.00349852)
(0.00640044 0.00116483 0.00352062)
(0.00636231 0.0011565 0.003543)
(0.00632494 0.00113175 0.00356452)
(0.00630156 0.00115583 0.00358557)
(0.00625577 0.00106607 0.003606)
(0.00626454 0.00119341 0.00362905)
(0.00619051 0.000929282 0.00364723)
(0.00625949 0.00128449 0.00367328)
(0.006139 0.000681586 0.0036878)
(0.00629573 0.00142759 0.00371883)
(0.00611107 0.000272271 0.00372537)
(0.00636824 0.00160774 0.003753)
(0.00610586 -0.000330814 0.00372916)
(0.00642565 0.00183082 0.00369313)
(0.00604895 -0.00111965 0.00355426)
(0.00626195 0.00209326 0.00332961)
(0.0055861 -0.00221328 0.00299973)
(0.00520659 0.00226214 0.00271421)
(0.00433004 -0.00328564 0.0025095)
(0.00406672 0.00249524 0.00242311)
(0.00484103 -0.00497455 0.00251807)
(0.00967954 -0.00087224 0.00479866)
(0.0172141 -0.0167023 0.00753896)
(0.0300814 -0.0148679 0.0096318)
(0.0430433 -0.0323144 0.0151934)
(0.048149 -0.012953 0.0287854)
(0.044791 -0.0421958 0.0385042)
(0.0342799 0.00518876 0.0623955)
(0.0337575 -0.0595959 0.0674701)
(0.0333362 0.0881051 0.104686)
(0.0453297 -0.135293 0.110991)
(-0.0303791 0.37198 -0.0225476)
(0.037524 -0.0849408 0.0420795)
(0.10591 0.48916 0.139155)
(0.0322159 0.59347 0.0277327)
(0.0238784 0.512263 0.0210997)
(0.0104919 0.571725 0.00419961)
(0.0104187 0.554538 0.0112512)
(-0.00128628 0.573092 0.00954132)
(-0.00340374 0.562253 0.00994469)
(-0.00581443 0.566458 0.0082997)
(-0.00358048 0.550741 0.00677363)
(-0.00012184 0.54012 0.00634822)
(0.00439297 0.516975 0.00648838)
(0.00723802 0.502731 0.00601889)
(0.0107943 0.485434 0.0056798)
(0.0127801 0.466048 0.0047072)
(0.0152662 0.438159 0.00388866)
(0.0156195 0.39579 0.00241812)
(0.0165795 0.359876 0.00114971)
(0.0156266 0.321304 -0.000462661)
(0.0146209 0.279446 -0.00147038)
(0.0133582 0.24433 -0.00324242)
(0.0125193 0.224836 -0.00446721)
(0.0122053 0.19277 -0.00407005)
(0.0130978 0.141042 -0.00367368)
(0.011244 0.0879313 -0.002819)
(0.00818836 0.0445524 -0.00191068)
(0.00103438 0.0367869 -0.00214603)
(-0.00402763 0.0308654 -0.0014546)
(-0.00757489 0.0269415 -0.00272098)
(-0.0108996 0.023858 -0.00360266)
(-0.0134011 0.0225046 -0.00355088)
(-0.0142662 0.0226526 -0.00300526)
(-0.0141699 0.0245202 -0.00134423)
(-0.013981 0.0264537 0.00355447)
(-0.0137688 0.025319 0.00792972)
(-0.0183547 0.0234929 0.0116528)
(-0.0234519 0.0195163 0.013871)
(0.011973 0.0158897 0.00575897)
(0.0216163 0.0132882 0.00683798)
(0.00615524 0.00568956 0.00229852)
(0.0130616 0.0110606 0.00200126)
(0.00684613 0.00463922 0.00157437)
(0.00981647 0.00764558 0.00157618)
(0.00655319 0.00368546 0.00179917)
(0.00787233 0.00511412 0.00202202)
(0.00598708 0.0029836 0.00228541)
(0.00664968 0.00391283 0.00281663)
(0.00563218 0.00277098 0.00312637)
(0.00612618 0.00325142 0.0035623)
(0.00554532 0.00240024 0.00372049)
(0.00571593 0.00256629 0.00392836)
(0.00532219 0.00199235 0.00396676)
(0.00533927 0.00203939 0.00405549)
(0.00509532 0.00170194 0.0040673)
(0.00505348 0.00170066 0.00411203)
(0.00490865 0.00151763 0.00412536)
(0.00485 0.00150063 0.00415537)
(0.0047617 0.00141152 0.00417024)
(0.00470626 0.00138813 0.00419321)
(0.00464616 0.00134541 0.00420865)
(0.00459692 0.0013252 0.00422671)
(0.00455007 0.00130355 0.00424198)
(0.00450771 0.00128953 0.00425749)
(0.00446872 0.00127782 0.00427233)
(0.00443327 0.00126805 0.00428713)
(0.00440065 0.00126231 0.00430097)
(0.00436935 0.00124488 0.00431427)
(0.00435104 0.00126617 0.00432744)
(0.00431618 0.00119346 0.00433665)
(0.00433037 0.00130739 0.00435073)
(0.00427199 0.00107802 0.00435603)
(0.00434922 0.00140806 0.00437068)
(0.00425172 0.000863971 0.0043718)
(0.00442344 0.00157592 0.00438784)
(0.00426717 0.000517262 0.00437811)
(0.00455057 0.00182887 0.00437814)
(0.00431609 4.12239e-05 0.00431822)
(0.00468348 0.00221366 0.00422782)
(0.00434597 -0.000570768 0.00401645)
(0.00475094 0.00258198 0.00376967)
(0.00415813 -0.00192965 0.00347515)
(0.00392126 0.00202488 0.00334434)
(0.0029175 -0.00427058 0.00335701)
(0.00317416 0.00106628 0.00366493)
(0.00467645 -0.00813706 0.00455348)
(0.0107123 -0.00339409 0.00792635)
(0.0180538 -0.0172368 0.0107997)
(0.0306742 -0.00893248 0.0144096)
(0.0375876 -0.0174966 0.0200641)
(0.0437511 0.00421293 0.031425)
(0.0432985 -0.0241211 0.0431791)
(0.0240176 0.0106412 0.0643706)
(0.0147445 -0.0684414 0.0682926)
(0.0189426 0.0475242 0.0847472)
(0.0209984 -0.144505 0.0693836)
(0.0430439 0.333747 0.0553155)
(0.0229721 -0.0714143 0.0395417)
(0.0469367 0.509505 0.138551)
(0.00686998 0.613277 0.0193974)
(0.00282725 0.565325 0.0150596)
(-0.00727468 0.625227 0.00214224)
(-0.00818812 0.618468 0.0104216)
(-0.0123283 0.63718 0.00959754)
(-0.0108854 0.629811 0.0110757)
(-0.00874111 0.635598 0.0100725)
(-0.00413341 0.626337 0.00954256)
(0.000742109 0.622153 0.00890878)
(0.00589861 0.59934 0.00861864)
(0.00967502 0.586017 0.00803295)
(0.0135694 0.580047 0.00762691)
(0.0155738 0.576874 0.00727844)
(0.017739 0.568509 0.00719574)
(0.0188074 0.568245 0.00645658)
(0.0201394 0.561849 0.00527329)
(0.0208961 0.555575 0.0039936)
(0.0210195 0.54582 0.00312397)
(0.0208096 0.531034 0.00102469)
(0.0198611 0.520966 -0.00203833)
(0.0180513 0.503118 -0.00426479)
(0.015587 0.479248 -0.0050155)
(0.0115477 0.443611 -0.00512182)
(0.0064904 0.392943 -0.00456095)
(0.00162635 0.335043 -0.00425512)
(-0.00135509 0.259841 -0.00351143)
(-0.00377628 0.172823 -0.00367187)
(-0.00724952 0.106315 -0.00361356)
(-0.0106789 0.0688095 -0.00329356)
(-0.0130191 0.0388122 -0.0015149)
(-0.0149158 0.0304707 0.00174107)
(-0.0164201 0.0264521 0.00635392)
(-0.0179829 0.0234602 0.00873698)
(-0.0224807 0.0213638 0.0100679)
(-0.0269585 0.0181922 0.00891859)
(0.00705923 0.0136494 0.00618227)
(0.021056 0.0159839 0.00734848)
(0.00272836 0.00529294 0.00184204)
(0.0122496 0.0135884 0.00244009)
(0.0054174 0.00457591 0.00121864)
(0.00927477 0.00895475 0.00173616)
(0.00537816 0.00337531 0.00171687)
(0.00662691 0.00537586 0.00199237)
(0.00402685 0.00213187 0.00215513)
(0.00447802 0.00345179 0.00275444)
(0.00294872 0.00203682 0.00315054)
(0.00334798 0.00289666 0.00377191)
(0.00247105 0.00196542 0.00403353)
(0.0025686 0.00237839 0.00434232)
(0.00198086 0.00178009 0.00442156)
(0.00193206 0.0019733 0.00455333)
(0.00157206 0.0016317 0.00457929)
(0.00148105 0.00171216 0.00464384)
(0.00126471 0.00153223 0.00465871)
(0.00116744 0.0015585 0.00469402)
(0.00104361 0.00147564 0.00470757)
(0.000964714 0.00147232 0.00472903)
(0.000887036 0.00143682 0.00473974)
(0.000827336 0.00142587 0.00475359)
(0.000774253 0.00141003 0.00476341)
(0.000729643 0.00140073 0.00477274)
(0.000691113 0.00139219 0.00478022)
(0.000658909 0.00138531 0.0047871)
(0.00063217 0.00138227 0.00479337)
(0.000610049 0.00137057 0.0047997)
(0.000598145 0.00139178 0.00480692)
(0.000578123 0.00133729 0.00481088)
(0.00059831 0.00144327 0.00482037)
(0.000555382 0.00125219 0.00481938)
(0.00063968 0.00156496 0.00483329)
(0.000559729 0.00108591 0.00482718)
(0.000745706 0.00177544 0.0048474)
(0.000610689 0.000817888 0.00482715)
(0.000927623 0.00211042 0.00482943)
(0.000726937 0.000457053 0.00473794)
(0.00121485 0.002602 0.00464976)
(0.00103026 -0.000103099 0.00439109)
(0.00186756 0.00290118 0.0042745)
(0.00163923 -0.00175868 0.00410282)
(0.00179651 0.00168189 0.00431032)
(0.000934725 -0.00461783 0.00462105)
(0.00141185 0.000515791 0.00507113)
(0.00254072 -0.00895269 0.00633671)
(0.00501689 -0.00320694 0.00983164)
(0.0119707 -0.0143528 0.0117613)
(0.0197933 0.00235821 0.0160919)
(0.0261394 0.000720202 0.0203165)
(0.0343391 0.027823 0.0302087)
(0.0322946 0.00825257 0.0418944)
(0.0254621 0.049561 0.0596925)
(0.0125488 -0.0471127 0.0609079)
(0.00586236 0.0599807 0.064202)
(-0.00135558 -0.133308 0.0408613)
(-0.0113945 0.3179 0.0630169)
(0.0101309 -0.0643318 0.0438309)
(0.00819204 0.520726 0.120259)
(-0.014424 0.620085 0.0141373)
(-0.0144262 0.582406 0.00584615)
(-0.0167968 0.644638 -0.00143637)
(-0.0134002 0.626482 0.0104659)
(-0.0117794 0.643924 0.0118986)
(-0.00839048 0.635039 0.0151672)
(-0.0047096 0.635617 0.0139695)
(-9.15993e-06 0.622166 0.0141888)
(0.00413288 0.61284 0.0129093)
(0.00866608 0.600746 0.0130132)
(0.0117535 0.57935 0.0120051)
(0.0154196 0.57704 0.012652)
(0.0178071 0.573301 0.0118089)
(0.0202791 0.569871 0.0121859)
(0.0216474 0.557374 0.0110945)
(0.0226548 0.541963 0.010281)
(0.0229861 0.5282 0.00802047)
(0.0233763 0.529498 0.00612546)
(0.0233269 0.534328 0.00390902)
(0.0231029 0.539146 0.00076258)
(0.0214704 0.550293 -0.0030211)
(0.0191616 0.579721 -0.00674794)
(0.0150819 0.586038 -0.00960695)
(0.00930727 0.581897 -0.0119582)
(0.00330824 0.57463 -0.0132917)
(-0.00131224 0.561498 -0.0121016)
(-0.00546991 0.526212 -0.0100403)
(-0.00843605 0.468852 -0.00819316)
(-0.0125071 0.450713 -0.00628316)
(-0.0161671 0.443039 -0.00494802)
(-0.0181398 0.434275 -0.00177841)
(-0.0201353 0.413619 0.001028)
(-0.0228764 0.366918 0.00445747)
(-0.0287469 0.258254 0.00631965)
(-0.035392 0.176293 0.00383635)
(-0.00014522 0.00835948 0.00479328)
(0.0188769 0.0199903 0.00723643)
(-0.00117826 0.00432492 0.00176251)
(0.0105916 0.0164065 0.00359079)
(0.00364436 0.00418048 0.00197353)
(0.00821041 0.010108 0.00259555)
(0.00397669 0.00314147 0.00253244)
(0.00539345 0.00581836 0.00282184)
(0.00232977 0.0013829 0.00291237)
(0.00228853 0.00292507 0.00349218)
(0.000437617 0.00109582 0.00392241)
(0.000856988 0.00230758 0.00460425)
(-0.000147047 0.00123663 0.00495092)
(-3.88558e-05 0.00193716 0.00533651)
(-0.000718681 0.00132794 0.00547407)
(-0.000764493 0.00173539 0.00565232)
(-0.00116428 0.00141936 0.00570837)
(-0.00123263 0.00163118 0.00580811)
(-0.00144684 0.00148549 0.00585025)
(-0.00151086 0.00158538 0.0059192)
(-0.00160881 0.00153309 0.00596071)
(-0.0016509 0.00157241 0.00601304)
(-0.0016924 0.00156351 0.00605186)
(-0.00171143 0.00157786 0.00609552)
(-0.0017225 0.00158214 0.00613501)
(-0.00172236 0.00159021 0.0061752)
(-0.00171495 0.00159623 0.00621415)
(-0.00170178 0.00160171 0.00625251)
(-0.00168467 0.00160841 0.00628972)
(-0.00166253 0.00160834 0.00632752)
(-0.00163207 0.00163277 0.00636455)
(-0.00160602 0.00159819 0.00640033)
(-0.00154355 0.00169579 0.00644163)
(-0.00153641 0.00154494 0.00647533)
(-0.00140307 0.00183743 0.00652474)
(-0.00143004 0.00143474 0.0065525)
(-0.00118397 0.00210401 0.00660174)
(-0.00126752 0.00127745 0.00659846)
(-0.000878272 0.00255444 0.00660588)
(-0.00102085 0.00107114 0.00649917)
(-0.00041672 0.00314895 0.00637669)
(-0.000504626 0.000540655 0.00607212)
(0.000515034 0.00330586 0.00592763)
(0.00038829 -0.00129501 0.00580016)
(8.04169e-05 0.0018622 0.00599675)
(-0.00159195 -0.00507359 0.00626796)
(-0.000701383 -0.00141275 0.00653669)
(0.000520832 -0.0113904 0.00866438)
(0.00338126 -0.00698639 0.0119667)
(0.00455486 -0.0161308 0.015078)
(0.00596684 0.00905625 0.0195656)
(0.0103724 0.0166464 0.0232795)
(0.0185677 0.0527008 0.0308694)
(0.0232505 0.0511934 0.0411709)
(0.0295589 0.0855304 0.0593762)
(0.0251277 0.0373464 0.0673303)
(0.0358246 0.115377 0.0924606)
(0.00413145 -0.104049 0.0697667)
(0.0102964 0.323632 0.0234196)
(-0.0122568 -0.0545781 0.0311063)
(-0.0562307 0.565806 0.0710682)
(-0.0401995 0.664738 -0.0058119)
(-0.0371386 0.608261 0.000663742)
(-0.0299826 0.661352 -0.00350374)
(-0.0215724 0.643217 0.00764241)
(-0.0139603 0.657151 0.00951673)
(-0.00863168 0.644052 0.014317)
(-0.00136553 0.636925 0.0166904)
(0.00448549 0.628378 0.0200915)
(0.010235 0.619084 0.02126)
(0.0145193 0.607448 0.0215218)
(0.0184967 0.601898 0.0205012)
(0.022645 0.592002 0.0199309)
(0.026915 0.575184 0.0194583)
(0.0308756 0.555924 0.0196012)
(0.0338525 0.546795 0.019428)
(0.0355764 0.531919 0.0199482)
(0.0359222 0.51415 0.0197975)
(0.0351823 0.493923 0.0192229)
(0.0339143 0.477907 0.0182813)
(0.0317272 0.475791 0.0160319)
(0.0289345 0.474127 0.0129564)
(0.0263261 0.473547 0.0105317)
(0.0236061 0.472808 0.0087589)
(0.019687 0.472814 0.00757217)
(0.0133905 0.470928 0.00582591)
(0.00710292 0.467284 0.00452343)
(0.00113688 0.459523 0.00380138)
(-0.0040508 0.444958 0.0038954)
(-0.00826626 0.427853 0.00427449)
(-0.0128298 0.402362 0.00351661)
(-0.0167622 0.39452 0.00209021)
(-0.0227467 0.402215 -0.0028812)
(-0.030271 0.422918 -0.0124373)
(-0.0385856 0.423232 -0.0275273)
(-0.043782 0.41071 -0.0472324)
(-0.00948661 0.00741002 -0.00521532)
(0.016299 0.0251099 0.00475599)
(-0.00637074 0.00336003 -0.00161434)
(0.00734143 0.0190945 0.00163299)
(0.000716563 0.00343229 0.000491717)
(0.00581837 0.0109072 0.000860074)
(0.00151153 0.00270948 0.000587167)
(0.00319882 0.00621077 0.000662812)
(-0.000111199 0.00091695 0.000504523)
(-0.00064049 0.0024707 0.000757882)
(-0.00314978 0.00028029 0.00104237)
(-0.00289881 0.00186629 0.00171778)
(-0.00417362 0.000796099 0.00213694)
(-0.00419577 0.00175752 0.00255346)
(-0.00499118 0.00117681 0.00274799)
(-0.00507507 0.00171845 0.00294352)
(-0.00552148 0.00141855 0.00302881)
(-0.00560697 0.00169612 0.00314255)
(-0.0058431 0.00156045 0.0032036)
(-0.00592102 0.00169275 0.00328415)
(-0.00603611 0.00165251 0.00334009)
(-0.00609464 0.00170867 0.00340434)
(-0.00615066 0.00171115 0.00345574)
(-0.00618658 0.0017344 0.00351009)
(-0.00621447 0.00174581 0.0035599)
(-0.00623231 0.00175986 0.00360927)
(-0.00624309 0.00177189 0.00365673)
(-0.00624711 0.00178303 0.00370305)
(-0.00624672 0.00179563 0.0037478)
(-0.00624078 0.00180164 0.00379191)
(-0.00623123 0.00182556 0.00383346)
(-0.00621946 0.00180299 0.00387623)
(-0.00618361 0.0018926 0.00391688)
(-0.0061928 0.00177155 0.00395799)
(-0.00609965 0.00204513 0.00399707)
(-0.00616042 0.0017067 0.00403462)
(-0.00597575 0.00236323 0.00405812)
(-0.00608989 0.00165717 0.00406658)
(-0.00574981 0.00293105 0.00403166)
(-0.00587334 0.00162317 0.00394617)
(-0.00519509 0.00366001 0.00379662)
(-0.00502358 0.00123714 0.00362034)
(-0.00372114 0.00368998 0.00362054)
(-0.00355464 -0.000996086 0.00385999)
(-0.002911 0.00113435 0.00382026)
(-0.00264234 -0.00619308 0.00309307)
(-0.000537055 -0.0017934 0.00329631)
(0.000127999 -0.00756338 0.00353664)
(-0.0026422 0.00429567 0.00561935)
(-0.0107792 0.00143088 0.011006)
(-0.019777 0.0192707 0.0185816)
(-0.0180919 0.0201053 0.025438)
(-0.0118823 0.0521872 0.0282793)
(-0.00226322 0.0459756 0.0294255)
(0.00168919 0.0989353 0.0437822)
(0.0105056 0.046701 0.0439429)
(0.0447535 0.135589 0.06832)
(0.0229904 -0.0485619 0.082938)
(0.0434189 0.339433 0.0281897)
(-0.0369882 -0.0839123 0.0207218)
(-0.106561 0.536424 0.0538775)
(-0.0500653 0.657656 -0.00180238)
(-0.0461547 0.594655 0.00356099)
(-0.0301472 0.648376 0.000813601)
(-0.0241931 0.61463 0.00909948)
(-0.0156633 0.627761 0.00913361)
(-0.0117188 0.612308 0.0127965)
(-0.00365191 0.616764 0.0141382)
(-0.000529341 0.608509 0.0149666)
(0.00369841 0.607117 0.0148386)
(0.00570566 0.597251 0.0149585)
(0.00905851 0.595205 0.0147509)
(0.0123539 0.587577 0.0152248)
(0.0182349 0.589528 0.0143875)
(0.023727 0.586861 0.01323)
(0.0287342 0.584054 0.0113011)
(0.0315741 0.575794 0.00919693)
(0.0331966 0.574516 0.00836725)
(0.0338823 0.566855 0.00871382)
(0.0336643 0.558257 0.00815373)
(0.0322514 0.554464 0.00779909)