/*--------------------------------*- C++ -*----------------------------------*\
| =========                 |                                                 |
| \\      /  F ield         | OpenFOAM: The Open Source CFD Toolbox           |
|  \\    /   O peration     | Version:  2.3.0                                 |
|   \\  /    A nd           | Web:      www.OpenFOAM.org                      |
|    \\/     M anipulation  |                                                 |
\*---------------------------------------------------------------------------*/
FoamFile
{
    version     2.0;
    format      ascii;
    class       volVectorField;
    location    "10";
    object      U.waterMean;
}
// * * * * * * * * * * * * * * * * * * * * * * * * * * * * * * * * * * * * * //

dimensions      [0 1 -1 0 0 0 0];

internalField   nonuniform List<vector> 
6144
(
(0.00643955 0.0204315 -0.000913615)
(0.00622768 0.00784971 -0.00120264)
(0.00439573 0.00621974 -0.00217514)
(0.00447057 0.00411367 -0.00232066)
(0.00379641 0.00324668 -0.00244424)
(0.00393517 0.00294065 -0.00248457)
(0.00367503 0.00248448 -0.0025234)
(0.00380571 0.00239809 -0.00254838)
(0.00368405 0.00206638 -0.00259071)
(0.00378792 0.00194333 -0.00261355)
(0.00371718 0.00163524 -0.00266941)
(0.0037853 0.0014801 -0.00269158)
(0.00373976 0.00120217 -0.00274204)
(0.00377238 0.00105558 -0.00276199)
(0.00374269 0.000839608 -0.00279967)
(0.00375273 0.000722349 -0.00281498)
(0.00373525 0.000572521 -0.00284016)
(0.00373421 0.000486496 -0.00285143)
(0.00372402 0.000390638 -0.00286683)
(0.00371944 0.000330082 -0.00287505)
(0.0037129 0.00027104 -0.0028842)
(0.00370815 0.000229901 -0.00289004)
(0.00370346 0.000193668 -0.00289548)
(0.00369945 0.00016625 -0.00289951)
(0.00369579 0.000143532 -0.00290289)
(0.00369252 0.000125404 -0.00290556)
(0.00368947 0.000110479 -0.00290774)
(0.00368664 9.80768e-05 -0.00290952)
(0.003684 8.75188e-05 -0.00291094)
(0.00368159 7.8059e-05 -0.00291207)
(0.00367948 7.17985e-05 -0.00291298)
(0.00367688 5.77238e-05 -0.00291315)
(0.00367636 6.47591e-05 -0.00291369)
(0.00367178 2.11951e-05 -0.00291269)
(0.00367467 7.94704e-05 -0.00291342)
(0.00366838 -5.38249e-05 -0.00291137)
(0.00367311 0.000128953 -0.002912)
(0.00367171 -0.00019349 -0.00290937)
(0.00366697 0.000228605 -0.0029082)
(0.00368368 -0.000430295 -0.00290562)
(0.00366153 0.000388196 -0.0029004)
(0.00369892 -0.000798077 -0.00289694)
(0.0036573 0.000606058 -0.00288181)
(0.0037175 -0.00132891 -0.00287916)
(0.00363962 0.000888085 -0.0028541)
(0.00371822 -0.00207964 -0.00283276)
(0.00360037 0.00138107 -0.00281104)
(0.00365413 -0.00315471 -0.00274127)
(0.00347433 0.00244203 -0.00280782)
(0.00339201 -0.00447334 -0.00273107)
(0.00339243 0.00533262 -0.0031598)
(0.00243475 -0.00600083 -0.00307835)
(0.00356628 0.0147233 -0.00405113)
(0.00406567 -0.00855341 -0.00541443)
(0.00442793 0.0328 -0.00585506)
(0.00407042 -0.0259036 -0.00812346)
(0.013604 0.0541242 -0.00162552)
(0.0168598 -0.0708954 -0.0188799)
(-0.0405861 0.0909709 -0.0913916)
(0.0216922 -0.117507 -0.114494)
(0.0984728 -0.220116 -0.015968)
(0.0686469 -0.0356798 -0.0029911)
(0.0288104 -0.139073 -0.00137162)
(0.0278386 -0.109425 -0.000587804)
(0.0231927 -0.133939 -0.000886207)
(0.013492 -0.115761 0.00194511)
(0.00881458 -0.132167 0.00282056)
(0.00520277 -0.118754 0.00260741)
(0.00298036 -0.124218 0.00203626)
(0.00124846 -0.112452 0.00135871)
(0.000185573 -0.112722 0.000638803)
(-0.00027209 -0.102614 -1.49002e-05)
(-0.00015185 -0.100449 -0.000655322)
(0.00019311 -0.092735 -0.00122256)
(0.00061027 -0.0897448 -0.00172444)
(0.00095654 -0.0841465 -0.00213378)
(0.00127583 -0.080677 -0.00247294)
(0.00154616 -0.0762803 -0.00273609)
(0.00174618 -0.07238 -0.00294489)
(0.00182055 -0.0682029 -0.00308295)
(0.00177058 -0.0636858 -0.0032024)
(0.00162035 -0.0587293 -0.00329234)
(0.00138164 -0.0531686 -0.00345252)
(0.00116283 -0.0469036 -0.00353317)
(0.000922744 -0.0400616 -0.00373241)
(0.000936309 -0.0327135 -0.00382032)
(0.00110239 -0.0253195 -0.00402657)
(0.00172737 -0.0179775 -0.00413585)
(0.00285487 -0.0119127 -0.00375678)
(0.00385375 -0.00837845 -0.00411642)
(0.00448697 -0.00653848 -0.00454566)
(0.00497117 -0.0056422 -0.00440637)
(0.00526533 -0.00495514 -0.00422863)
(0.00530118 -0.00403075 -0.00425275)
(0.00525261 -0.0025886 -0.00434629)
(0.00520547 -0.000971157 -0.00439516)
(0.0137246 0.021807 0.00290658)
(0.0141962 0.00983561 0.00240579)
(0.00944019 0.00764824 0.000390496)
(0.0098125 0.00574001 0.00013223)
(0.007913 0.00457226 -0.000257488)
(0.0083756 0.00440785 -0.00026431)
(0.00765973 0.00371535 -0.00039279)
(0.00805442 0.00365412 -0.00035764)
(0.00771243 0.00313995 -0.000453223)
(0.00802623 0.00298543 -0.00041103)
(0.00781889 0.00252215 -0.000507736)
(0.00802799 0.00231248 -0.000489485)
(0.00787782 0.00191657 -0.00057714)
(0.00797937 0.00171732 -0.000577809)
(0.007875 0.00142064 -0.000646565)
(0.00790681 0.00126557 -0.000653623)
(0.00784098 0.00106282 -0.00069975)
(0.00783774 0.000950645 -0.000708503)
(0.00779801 0.000821607 -0.000734325)
(0.00778264 0.000742529 -0.000741685)
(0.0077573 0.000663543 -0.000754274)
(0.00774072 0.000609032 -0.000758704)
(0.00772301 0.000560463 -0.000763413)
(0.00770844 0.000523666 -0.000764911)
(0.00769478 0.000493024 -0.000765389)
(0.00768266 0.000468445 -0.000764345)
(0.00767147 0.000448087 -0.000762356)
(0.00766117 0.000431286 -0.000759538)
(0.00765168 0.000417159 -0.00075604)
(0.00764288 0.000404066 -0.000751895)
(0.007635 0.000393944 -0.000747005)
(0.00762668 0.000378042 -0.000740937)
(0.00762185 0.000380433 -0.000734276)
(0.0076104 0.000335689 -0.000727074)
(0.00761273 0.000393649 -0.000718555)
(0.00759799 0.000246012 -0.000710321)
(0.00760513 0.000453512 -0.000699504)
(0.00759619 7.36693e-05 -0.000688708)
(0.00759314 0.000577995 -0.000676568)
(0.00761148 -0.000212823 -0.000657822)
(0.0075749 0.000775209 -0.000647942)
(0.00764133 -0.000651881 -0.000608991)
(0.00754624 0.00104678 -0.000602743)
(0.00766698 -0.00128221 -0.000540481)
(0.00747829 0.00138081 -0.000542166)
(0.00763128 -0.00215349 -0.000440249)
(0.00732299 0.00189428 -0.000483374)
(0.00740804 -0.00333753 -0.000362506)
(0.00686556 0.00300088 -0.000551511)
(0.00664712 -0.00433508 -0.000676051)
(0.00571119 0.00629148 -0.00142876)
(0.00404159 -0.00410292 -0.00155859)
(0.0033446 0.0146473 -0.00195128)
(0.00573143 -0.00704064 -0.00208047)
(0.0121496 0.0338673 0.000226213)
(0.0240689 -0.0331877 -0.00196547)
(-0.00687027 0.0343394 0.00756056)
(-0.00212582 -0.0266249 -0.0119666)
(0.0277867 0.164206 -0.0176482)
(0.127994 -0.128652 -0.0671029)
(0.140863 -0.220532 -0.00451895)
(0.0523472 0.0914106 0.00932765)
(-0.0144174 -0.120359 0.00920106)
(-0.00425616 -0.0520256 0.00771395)
(-0.00903432 -0.0855849 0.00800813)
(-0.0151644 -0.0807814 0.00986219)
(-0.0154713 -0.0971759 0.00893402)
(-0.0152104 -0.0881158 0.00784906)
(-0.0138734 -0.0975919 0.00640067)
(-0.0126798 -0.0894798 0.00499653)
(-0.0110384 -0.092745 0.00367706)
(-0.00936601 -0.0849094 0.00254297)
(-0.00739032 -0.0846582 0.0014269)
(-0.00552645 -0.0787746 0.00046072)
(-0.00370658 -0.0773594 -0.000340894)
(-0.00214621 -0.073073 -0.000871824)
(-0.00083702 -0.070379 -0.00123711)
(2.50146e-05 -0.0665066 -0.00146252)
(0.000443433 -0.0630682 -0.00152477)
(0.00046958 -0.0594666 -0.00149222)
(0.000168861 -0.0556432 -0.00138837)
(-0.000391075 -0.0515692 -0.00128353)
(-0.00104792 -0.0470573 -0.00127328)
(-0.00163015 -0.0420103 -0.00125264)
(-0.00199868 -0.0364553 -0.00141804)
(-0.00205233 -0.0304508 -0.00140816)
(-0.00177527 -0.0244617 -0.00146642)
(-0.000881797 -0.0184933 -0.00126625)
(0.000879757 -0.0132591 -0.000369065)
(0.0026745 -0.00970741 0.000157273)
(0.0039277 -0.00753475 0.00015352)
(0.00497659 -0.00641813 -5.13745e-05)
(0.00584695 -0.00561058 -0.000252481)
(0.00625633 -0.00466829 -0.000781243)
(0.006241 -0.00306997 -0.0013364)
(0.0061885 -0.00119869 -0.00183548)
(0.0161615 0.0207223 0.00478845)
(0.0176478 0.0102526 0.00460373)
(0.0109183 0.00732541 0.00217899)
(0.0119904 0.00639024 0.00206462)
(0.00906305 0.00455512 0.00168077)
(0.00990874 0.00468647 0.00170063)
(0.00871483 0.00371588 0.00152649)
(0.00937793 0.00379229 0.00161972)
(0.00878973 0.00312754 0.00149874)
(0.00928272 0.00306343 0.0015982)
(0.00893643 0.00249342 0.00149581)
(0.0092435 0.00234963 0.00155505)
(0.0090077 0.00188196 0.00146051)
(0.00915036 0.00172557 0.00148119)
(0.00898755 0.00138916 0.00140904)
(0.0090294 0.00125705 0.00141466)
(0.00892428 0.00103952 0.0013701)
(0.00891535 0.00094096 0.00137202)
(0.00884978 0.000808128 0.00135071)
(0.0088223 0.000737615 0.0013537)
(0.00877836 0.000659662 0.00134829)
(0.00874811 0.000610406 0.00135432)
(0.00871537 0.000564327 0.00135878)
(0.00868732 0.000530835 0.00136782)
(0.00866022 0.000502643 0.0013778)
(0.00863528 0.000480495 0.00138974)
(0.00861159 0.000462109 0.00140263)
(0.00858909 0.000446937 0.00141645)
(0.00856763 0.000434115 0.00143099)
(0.00854705 0.000422671 0.00144616)
(0.00852733 0.000413513 0.00146147)
(0.00850784 0.000399638 0.00147712)
(0.00849099 0.000402458 0.00149307)
(0.00846954 0.000361042 0.00150911)
(0.00845974 0.000417856 0.00152681)
(0.00843565 0.000273819 0.00154311)
(0.00843027 0.000483221 0.00156356)
(0.00841185 0.000101838 0.0015813)
(0.00839895 0.000618724 0.00160497)
(0.00840715 -0.000188301 0.00162754)
(0.00835983 0.000834467 0.00165407)
(0.00842508 -0.000642055 0.00169374)
(0.00831211 0.00113061 0.00172145)
(0.00844086 -0.00131975 0.00177832)
(0.00822469 0.00148792 0.00181276)
(0.00838706 -0.00229655 0.00187635)
(0.00799897 0.00196353 0.00187041)
(0.00804824 -0.00366038 0.00187841)
(0.00724047 0.00307415 0.0016569)
(0.00682218 -0.00482623 0.00119698)
(0.00601772 0.00699584 0.000407204)
(0.00480614 -0.00535649 0.000503144)
(0.00464598 0.0126575 0.00120524)
(0.00477771 -0.0175041 -6.41918e-05)
(0.0172311 0.0282914 0.0035505)
(0.0276733 -0.0419869 0.00152088)
(-0.0380608 0.0621877 0.0246126)
(-0.049728 -0.110425 -0.00134689)
(-0.0391227 0.156052 -0.0464317)
(0.137632 -0.12539 -0.0392363)
(0.169496 -0.192606 0.00522601)
(0.068537 0.118592 0.00788467)
(0.0602004 -0.112228 0.0101123)
(0.0216004 -0.0199676 0.0120975)
(-9.84559e-05 -0.0638975 0.0113926)
(-0.00543008 -0.0561666 0.0105426)
(-0.00979351 -0.0721502 0.00780704)
(-0.0132811 -0.0632753 0.00589761)
(-0.0144063 -0.0721845 0.0035174)
(-0.0144031 -0.0637471 0.00184355)
(-0.0128885 -0.0667299 0.000363402)
(-0.00987107 -0.0591487 -0.000890609)
(-0.00602164 -0.0588102 -0.0022424)
(-0.00324013 -0.0522926 -0.00329217)
(-0.00141354 -0.049671 -0.00384599)
(-0.000305604 -0.044024 -0.00382202)
(0.000610644 -0.0403527 -0.00340469)
(0.00126301 -0.0362928 -0.00266648)
(0.00155287 -0.0338009 -0.00180651)
(0.00131818 -0.0321015 -0.00104024)
(0.000560912 -0.031094 -0.000360872)
(-0.000574346 -0.0303843 0.000147892)
(-0.00188753 -0.0294974 0.000444113)
(-0.00311223 -0.0280327 0.000438681)
(-0.00394231 -0.0257489 0.000240248)
(-0.00423813 -0.0226158 0.000126214)
(-0.00401766 -0.0191046 -3.86378e-05)
(-0.0031539 -0.0152063 0.000123261)
(-0.00131361 -0.0116185 0.00120954)
(0.000774453 -0.00933538 0.00215108)
(0.00210391 -0.00777282 0.00240852)
(0.00303555 -0.00683635 0.0025906)
(0.00394439 -0.00603488 0.00257776)
(0.00461907 -0.00498619 0.00202682)
(0.00492109 -0.00333213 0.00128009)
(0.00499241 -0.00136534 0.000410632)
(0.0164311 0.0194084 0.00564464)
(0.0195634 0.0108162 0.00586942)
(0.0105326 0.00694104 0.0029214)
(0.012927 0.00750141 0.00273616)
(0.00895763 0.00476969 0.00249264)
(0.0103864 0.00555687 0.00245823)
(0.0086381 0.00398662 0.00236035)
(0.00960569 0.00433693 0.00247326)
(0.00869679 0.00332295 0.00237796)
(0.00936901 0.00341908 0.00251496)
(0.00882909 0.00262553 0.00245762)
(0.00924396 0.00258048 0.0025484)
(0.00887938 0.00196128 0.00248698)
(0.00906527 0.00186474 0.00252361)
(0.0088181 0.0014445 0.00247218)
(0.00886649 0.00135479 0.00248818)
(0.00870759 0.00109438 0.00245969)
(0.00868962 0.0010203 0.00247146)
(0.00858948 0.000870708 0.00246125)
(0.00854731 0.00081219 0.00247319)
(0.00848024 0.000729619 0.00247596)
(0.00843469 0.000686148 0.00248962)
(0.00838485 0.000640062 0.00250049)
(0.00834243 0.000609829 0.00251569)
(0.00830132 0.000582852 0.00253112)
(0.00826338 0.000562397 0.00254816)
(0.00822711 0.000545267 0.00256575)
(0.00819251 0.000531397 0.00258394)
(0.00815945 0.0005198 0.00260252)
(0.00812788 0.00050971 0.00262143)
(0.00809784 0.000501546 0.00264062)
(0.00806877 0.000489733 0.00266009)
(0.00804253 0.000492244 0.00267982)
(0.00801331 0.000455804 0.00269992)
(0.00799646 0.000510177 0.00272086)
(0.0079639 0.000371321 0.00274191)
(0.00795483 0.000582532 0.00276554)
(0.00792656 0.000199841 0.00278697)
(0.00791391 0.000731601 0.00281363)
(0.00790976 -9.66802e-05 0.00283635)
(0.00786821 0.000971601 0.0028707)
(0.00792679 -0.000567083 0.00289954)
(0.00781741 0.00129129 0.00294546)
(0.00795256 -0.00128976 0.00297974)
(0.00776036 0.00164513 0.00304991)
(0.00790901 -0.0023905 0.00306671)
(0.00761742 0.00198627 0.00312824)
(0.0075863 -0.00406964 0.00302926)
(0.00694933 0.00253492 0.00284807)
(0.0061808 -0.00635407 0.00205663)
(0.00584147 0.00490157 0.00183811)
(0.00519621 -0.00951129 0.00214727)
(0.00559148 0.00558337 0.00514731)
(0.00550721 -0.0226977 0.00328601)
(0.0182106 0.0201617 0.00804338)
(0.0224552 -0.0421397 0.00213981)
(0.00416785 0.0778785 0.0186668)
(-0.056604 -0.127897 0.01711)
(-0.0450658 0.204516 -0.0944802)
(0.149 -0.182247 -0.0140835)
(0.185372 -0.172115 0.0130311)
(0.0670405 0.109258 0.00215814)
(0.0607259 -0.0327002 0.00780899)
(-0.0177091 0.0532914 0.012798)
(-0.0103618 -0.0246371 0.0144266)
(-0.0124478 -0.00576117 0.00687143)
(-0.0138368 -0.0296197 0.00196372)
(-0.0138078 -0.0213734 -0.00136733)
(-0.0123968 -0.0299197 -0.00369272)
(-0.0114665 -0.0204759 -0.00548808)
(-0.0101173 -0.0211536 -0.00771604)
(-0.00811652 -0.0079748 -0.00879323)
(-0.00481081 0.000130116 -0.00868177)
(-0.00179505 0.0101509 -0.00597464)
(0.000534459 0.0130098 -0.0041222)
(0.00226563 0.0154306 -0.00266399)
(0.00371156 0.0143963 -0.00140148)
(0.00453559 0.0126414 -0.000475543)
(0.00475885 0.00958345 5.71394e-05)
(0.00422824 0.00602362 0.000374562)
(0.00299624 0.00220054 0.000443454)
(0.00117614 -0.00147791 0.00034198)
(-0.00100487 -0.0048221 0.000148206)
(-0.00313418 -0.00738579 -0.000115215)
(-0.0048657 -0.0089722 -0.000367061)
(-0.00583555 -0.00940187 -0.000505269)
(-0.00591953 -0.00910309 -0.000433822)
(-0.00481449 -0.00839704 0.00034032)
(-0.00276977 -0.00803405 0.00161782)
(-0.00125048 -0.00780373 0.00243137)
(-0.000475185 -0.00751246 0.0028766)
(0.000106469 -0.00733029 0.00323248)
(0.0008671 -0.00704582 0.00327472)
(0.00172744 -0.00630618 0.00273649)
(0.00242478 -0.00475803 0.00192874)
(0.00286707 -0.00221905 0.00105194)
(0.014718 0.0178901 0.00617332)
(0.0206592 0.0113739 0.00680559)
(0.00859194 0.00629826 0.00313242)
(0.0129276 0.00872483 0.00286798)
(0.00783573 0.00475665 0.00258744)
(0.0100964 0.00636997 0.00248436)
(0.00768604 0.00399718 0.0025065)
(0.00900357 0.00475468 0.00270119)
(0.00766409 0.00327895 0.00267507)
(0.0084948 0.00365241 0.00293882)
(0.00768668 0.00261319 0.00294385)
(0.00817512 0.002743 0.00312836)
(0.00764874 0.00196532 0.00310212)
(0.00785487 0.0019762 0.00318532)
(0.00750408 0.00146449 0.0031457)
(0.0075506 0.00143675 0.00318311)
(0.00733027 0.00113291 0.00315982)
(0.00729787 0.00109487 0.00318376)
(0.00715986 0.00092634 0.00318111)
(0.007099 0.000886466 0.00320217)
(0.00700644 0.000798627 0.00321067)
(0.00694302 0.000763441 0.00323126)
(0.00687387 0.000717711 0.00324758)
(0.00681461 0.000691233 0.00326895)
(0.0067572 0.000665779 0.00329057)
(0.0067039 0.00064735 0.0033138)
(0.00665293 0.000631787 0.00333643)
(0.00660427 0.000619438 0.00335885)
(0.00655776 0.000609177 0.00338112)
(0.00651325 0.000600386 0.00340339)
(0.00647057 0.000593327 0.00342562)
(0.00642927 0.000583621 0.00344796)
(0.00639035 0.000585732 0.00347028)
(0.00635066 0.000553044 0.00349191)
(0.00632161 0.000604779 0.00351419)
(0.0062785 0.000470865 0.00353437)
(0.00626018 0.00068134 0.0035579)
(0.00621998 0.000300024 0.00357436)
(0.00620443 0.000839622 0.0035987)
(0.00618482 9.74128e-07 0.00361078)
(0.00615492 0.00109727 0.00364138)
(0.00619399 -0.000479393 0.00365037)
(0.00611579 0.00144089 0.00369192)
(0.00625466 -0.00121148 0.00369904)
(0.00611179 0.00181184 0.00375592)
(0.00630739 -0.00229869 0.00371802)
(0.00614794 0.00214388 0.00376292)
(0.00622709 -0.0038539 0.00354215)
(0.00597143 0.00249873 0.00335463)
(0.00536003 -0.00628093 0.00282781)
(0.00632711 0.00301412 0.00371748)
(0.00648185 -0.0118656 0.00730239)
(0.0049544 0.00560251 0.0111409)
(0.000223596 -0.0208102 0.012037)
(0.0158158 0.0233807 0.0298604)
(0.00807098 -0.0470531 0.0300631)
(-0.00378402 0.0467054 0.0606444)
(-0.091367 -0.125661 0.0456338)
(0.00550109 0.169615 -0.166985)
(0.106777 -0.233338 -0.00325083)
(0.16555 -0.12907 0.0161817)
(0.0578752 0.109849 -0.00128145)
(0.0602128 0.0268548 0.00161434)
(0.0191683 0.0827366 0.00175639)
(0.0135204 0.0381478 0.000971251)
(-0.00134931 0.0570262 -0.00296989)
(-0.00283786 0.0438961 -0.00547278)
(-0.00612892 0.0579582 -0.00622044)
(-0.00638787 0.0554273 -0.00690154)
(-0.00715396 0.0665126 -0.00612098)
(-0.00582569 0.0649905 -0.00490728)
(-0.00381566 0.0710327 -0.00276657)
(9.76968e-05 0.0683108 -0.000724612)
(0.00320641 0.068638 0.00111477)
(0.0059466 0.0645128 0.00239408)
(0.00763922 0.0617285 0.00318325)
(0.00883644 0.056859 0.00360822)
(0.00945469 0.0520444 0.00365774)
(0.00959017 0.0465748 0.00344049)
(0.00914306 0.0404932 0.00296103)
(0.00790079 0.0342648 0.00236093)
(0.00611224 0.0279399 0.0016394)
(0.00384897 0.0216586 0.00090047)
(0.00151643 0.0158258 0.000286876)
(-0.000621225 0.0105078 -2.72968e-05)
(-0.00205068 0.00600269 6.98839e-05)
(-0.00264631 0.0023536 0.000575009)
(-0.00253285 -0.000803904 0.00148064)
(-0.00228279 -0.00318995 0.00224856)
(-0.00231303 -0.00477709 0.00272182)
(-0.00268721 -0.00582563 0.00286218)
(-0.0030054 -0.0065048 0.0027124)
(-0.00295158 -0.0066218 0.00212865)
(-0.0030605 -0.005598 0.00103918)
(-0.00325961 -0.00381539 0.000142105)
(-0.00448391 -0.00176376 -0.000627608)
(0.0115777 0.0159383 0.00660126)
(0.0210547 0.0125701 0.00747885)
(0.00581484 0.00550522 0.00293465)
(0.0125062 0.0104734 0.00264394)
(0.00641966 0.00449803 0.00220434)
(0.00957123 0.00728568 0.00213367)
(0.00643711 0.00356183 0.00223138)
(0.0080049 0.00492745 0.00249067)
(0.00617305 0.00278689 0.00264252)
(0.00703616 0.00362858 0.0031191)
(0.00598139 0.00231621 0.0033024)
(0.00649262 0.00274816 0.00365512)
(0.00582659 0.00180579 0.00373261)
(0.00601657 0.00199422 0.00390417)
(0.0055856 0.00138974 0.00391635)
(0.00561846 0.00146302 0.00399711)
(0.00535682 0.0011155 0.00400157)
(0.00531867 0.00112994 0.00404714)
(0.00516312 0.000944923 0.00405975)
(0.00510051 0.000934115 0.00409242)
(0.00500372 0.000844439 0.00410941)
(0.00494143 0.000822364 0.00413578)
(0.00487356 0.000779631 0.00415474)
(0.00481704 0.000759073 0.0041767)
(0.0047625 0.000737016 0.00419558)
(0.00471246 0.000722671 0.00421526)
(0.00466588 0.000711034 0.00423525)
(0.00462219 0.000702301 0.00425456)
(0.00458092 0.000695017 0.00427272)
(0.00454208 0.000688765 0.00429007)
(0.00450552 0.000683854 0.00430663)
(0.00447101 0.000676702 0.00432253)
(0.00443885 0.000680078 0.00433712)
(0.00440728 0.000651956 0.00434966)
(0.00438605 0.000702575 0.00436273)
(0.00435255 0.000576397 0.00437201)
(0.00434607 0.000787331 0.00438625)
(0.00431541 0.000413877 0.0043913)
(0.00432097 0.000960254 0.00440861)
(0.0043077 0.000121862 0.0044093)
(0.00431627 0.00123929 0.00443308)
(0.00435496 -0.00034698 0.00442802)
(0.00434391 0.00162512 0.00446001)
(0.00449225 -0.00105549 0.00445027)
(0.00442303 0.00206753 0.00447299)
(0.00470379 -0.00205997 0.00441675)
(0.00456048 0.00251667 0.00435635)
(0.00491274 -0.00336255 0.00408895)
(0.00470946 0.0029108 0.00373177)
(0.00504074 -0.00532868 0.00352109)
(0.00559359 0.00300149 0.00484845)
(0.00381966 -0.00960957 0.00877872)
(0.000527671 0.00736068 0.0116354)
(-0.0104348 -0.0159627 0.0203111)
(0.00258228 0.0192437 0.0427752)
(-0.00327615 -0.0256798 0.0521557)
(0.0201397 0.0340627 0.108061)
(-0.0619034 -0.128899 0.0887619)
(0.0341421 0.0584575 -0.154516)
(0.061857 -0.242423 0.00728247)
(0.131433 -0.0702895 0.0159925)
(0.0393502 0.140098 -0.00270851)
(0.0379956 0.0877637 0.00648977)
(0.0106443 0.136261 0.00268709)
(0.00547091 0.119414 0.00220444)
(0.000213704 0.13793 -0.000272502)
(-0.00108766 0.125904 0.000873378)
(-0.00291401 0.137643 0.000455335)
(-0.00201778 0.128758 0.00191808)
(-0.00179203 0.134784 0.00290163)
(-0.000197389 0.1274 0.00449713)
(0.00178725 0.129476 0.0056788)
(0.00449688 0.122932 0.00700496)
(0.00648314 0.121558 0.00792156)
(0.00750871 0.115206 0.00868491)
(0.00964913 0.111392 0.00898397)
(0.0109613 0.10503 0.00919243)
(0.0121531 0.0987516 0.00891913)
(0.0129375 0.0918519 0.00856641)
(0.0133009 0.083871 0.00789019)
(0.012567 0.0754617 0.00721749)
(0.0112636 0.0664409 0.00631389)
(0.00942153 0.0574161 0.00540508)
(0.00734066 0.0480193 0.00451977)
(0.00494632 0.0388164 0.00389461)
(0.00246226 0.0298512 0.00361596)
(0.000583108 0.0217565 0.00367166)
(-0.000919668 0.0143402 0.00390582)
(-0.00216353 0.00798864 0.00414244)
(-0.00321142 0.00305732 0.0043933)
(-0.00426912 -0.00103016 0.00447848)
(-0.00497702 -0.00380844 0.00431152)
(-0.00526201 -0.00580668 0.00359757)
(-0.00490727 -0.00603268 0.00228273)
(-0.00375597 -0.00506454 -0.000435664)
(-0.00392898 -0.00271803 -0.00452603)
(0.00667253 0.0133875 0.00612241)
(0.0203583 0.0150975 0.00789991)
(0.00192364 0.00502416 0.00247133)
(0.0113508 0.0129615 0.00284671)
(0.00444747 0.004389 0.00191165)
(0.00861316 0.00857733 0.00228991)
(0.00471286 0.00317541 0.00227747)
(0.00638973 0.00517132 0.00257736)
(0.00385693 0.00205496 0.00271601)
(0.00464163 0.00335826 0.00328397)
(0.00310839 0.00172988 0.00357798)
(0.00360022 0.00253556 0.00408567)
(0.00264419 0.00146491 0.00424235)
(0.00278014 0.00188247 0.00449156)
(0.0021618 0.00122164 0.00453402)
(0.00213868 0.00143035 0.00465081)
(0.00176337 0.00105984 0.00466436)
(0.0016804 0.00114882 0.00472625)
(0.00145541 0.000957378 0.00473787)
(0.00135653 0.000985783 0.00477497)
(0.00122442 0.000897396 0.00479057)
(0.00113838 0.000893206 0.00481583)
(0.0010513 0.000855738 0.00483036)
(0.000981876 0.0008434 0.00484845)
(0.000918663 0.000826204 0.00486297)
(0.000862989 0.000815528 0.00487713)
(0.00081216 0.000806563 0.00488908)
(0.000767812 0.000800384 0.00490029)
(0.000729097 0.000795585 0.00491112)
(0.000694491 0.000792066 0.00492119)
(0.000663238 0.000789828 0.00493015)
(0.000635036 0.000786438 0.004938)
(0.000610353 0.000792604 0.00494463)
(0.000588688 0.000769899 0.00495062)
(0.000575507 0.000822854 0.00495613)
(0.000551297 0.000706942 0.00495802)
(0.000555786 0.000920257 0.0049655)
(0.00053293 0.000560609 0.00496645)
(0.000559923 0.00111467 0.00498709)
(0.000550857 0.000288858 0.00499136)
(0.000596392 0.00142663 0.00502165)
(0.000634068 -0.000145964 0.00501964)
(0.000686864 0.00187572 0.00505722)
(0.000841932 -0.000785126 0.00504908)
(0.000854291 0.00246266 0.00506631)
(0.001232 -0.00166473 0.00502975)
(0.00115032 0.00321424 0.00494888)
(0.00186135 -0.00280241 0.00478527)
(0.00167302 0.00409483 0.00439401)
(0.00293885 -0.00428757 0.00430991)
(0.00263189 0.00525953 0.00479782)
(0.00202811 -0.00853268 0.00734631)
(-0.0032954 0.00540642 0.00839128)
(-0.0166338 -0.0209998 0.0107473)
(-0.0229152 -0.00438033 0.0262302)
(-0.032345 -0.0495657 0.0454079)
(-0.00120318 -0.0299318 0.0809482)
(-0.00623271 -0.123418 0.0768351)
(0.0260984 -0.0435817 -0.148441)
(0.0291109 -0.265929 0.0084123)
(0.0638582 -0.00608326 0.0125223)
(0.0157222 0.181511 -0.00517212)
(0.0183372 0.160596 0.00712955)
(0.00213187 0.200783 0.00518748)
(0.00145388 0.188084 0.00915211)
(-0.00066921 0.205021 0.00714149)
(-0.000862152 0.194345 0.0088599)
(-0.00160107 0.202477 0.0087358)
(-0.000955798 0.192298 0.00985316)
(-0.000836373 0.194667 0.0104189)
(0.000889433 0.185523 0.0116235)
(0.00191261 0.185325 0.0118513)
(0.00448489 0.176918 0.0129244)
(0.00609377 0.173327 0.0130613)
(0.00876537 0.165751 0.014447)
(0.0104331 0.160479 0.0138724)
(0.0128203 0.154577 0.0144413)
(0.0143129 0.147774 0.0140021)
(0.0159493 0.141649 0.0138322)
(0.016887 0.134721 0.0131517)
(0.0172992 0.127896 0.0127453)
(0.0168609 0.119737 0.0118688)
(0.0159777 0.111372 0.0105604)
(0.0144647 0.101791 0.0093532)
(0.0124137 0.0913591 0.00792787)
(0.00964183 0.0801943 0.00670578)
(0.00696275 0.0687861 0.00551503)
(0.00412774 0.0571774 0.00437213)
(0.000759531 0.0454007 0.00290056)
(-0.00252789 0.0342482 0.0017319)
(-0.00599023 0.0236519 0.000394108)
(-0.00840085 0.014763 -0.000873701)
(-0.0108411 0.0066557 -0.00188651)
(-0.0130327 0.000690467 -0.00367322)
(-0.0130393 -0.00266799 -0.00718443)
(-0.0161477 -0.0026284 -0.0120374)
(-0.000154223 0.00847174 0.00559057)
(0.0182804 0.0186235 0.00739983)
(-0.00218226 0.00444557 0.00217697)
(0.00984894 0.0159217 0.00351172)
(0.00240515 0.00421776 0.00236699)
(0.00739005 0.00984545 0.00304953)
(0.00298461 0.00286124 0.00306555)
(0.00478668 0.00553017 0.0033466)
(0.0017558 0.00125122 0.00352134)
(0.00226644 0.00294664 0.00410926)
(0.000421542 0.000898508 0.0044855)
(0.000909176 0.00209602 0.00504824)
(-0.000207984 0.000841352 0.00528097)
(-6.28253e-05 0.00154352 0.00558667)
(-0.00078077 0.000823232 0.00567832)
(-0.000789525 0.00123135 0.00584014)
(-0.00120178 0.00085795 0.0058889)
(-0.00125482 0.0010709 0.0059908)
(-0.00147326 0.000900509 0.00603299)
(-0.00153351 0.000996389 0.00610434)
(-0.00163696 0.000932346 0.00614826)
(-0.00168301 0.000967828 0.00620367)
(-0.00173029 0.000953375 0.00624514)
(-0.00175566 0.000963916 0.00629132)
(-0.00177416 0.00096478 0.00633324)
(-0.00178294 0.00097062 0.00637559)
(-0.00178463 0.000975262 0.00641653)
(-0.0017807 0.000980074 0.00645627)
(-0.00177348 0.000984708 0.00649453)
(-0.0017619 0.000989368 0.00653203)
(-0.00174661 0.000994296 0.00656875)
(-0.00172757 0.000997688 0.00660509)
(-0.0017052 0.00100825 0.00663991)
(-0.00167866 0.000992894 0.00667569)
(-0.00164576 0.00104739 0.00670913)
(-0.00162159 0.000942109 0.00674313)
(-0.00156595 0.001155 0.00677933)
(-0.00154267 0.000810719 0.00681285)
(-0.00145501 0.00136909 0.00685543)
(-0.00142476 0.000559217 0.00688703)
(-0.00130662 0.00171542 0.00693294)
(-0.00123895 0.000157878 0.00695891)
(-0.00109595 0.00222681 0.00700355)
(-0.000927557 -0.000420667 0.00702085)
(-0.000813449 0.00294744 0.00703583)
(-0.000432579 -0.00118701 0.00702147)
(-0.000439297 0.00395807 0.00692507)
(0.000259969 -0.00219754 0.00678829)
(-5.58608e-05 0.00532084 0.00649106)
(0.00137642 -0.00351948 0.00649404)
(0.000903385 0.00741583 0.00675094)
(0.00222239 -0.00589279 0.00875543)
(-0.00159567 0.0107236 0.0106707)
(-0.00430547 -0.0118117 0.0119129)
(-0.0168735 0.00359064 0.028137)
(-0.022673 -0.0487241 0.0392528)
(-0.0147198 -0.0378118 0.0715076)
(0.0159155 -0.100992 0.063121)
(-0.00667651 -0.0790518 -0.136158)
(-0.00987854 -0.266581 0.00983845)
(-0.0298395 0.0364251 0.00692726)
(-0.0204228 0.211005 -0.00727414)
(-0.0130878 0.203587 0.00842452)
(-0.00916269 0.240457 0.0101799)
(-0.00456148 0.227048 0.0140428)
(-0.00336699 0.241591 0.0135388)
(-0.00140608 0.230354 0.0147133)
(-0.000535426 0.236134 0.0150036)
(0.000531424 0.226282 0.0159269)
(0.00186701 0.227243 0.0164133)
(0.00339256 0.219245 0.0172912)
(0.00494495 0.217029 0.01762)
(0.00688005 0.210035 0.0183321)
(0.00904733 0.205843 0.0185087)
(0.0119861 0.19981 0.019142)
(0.0137436 0.1949 0.0192579)
(0.0161232 0.189503 0.0197124)
(0.0178774 0.184254 0.0199786)
(0.0195598 0.17935 0.0204276)
(0.0207347 0.174434 0.0208303)
(0.0219197 0.169567 0.0213274)
(0.0222985 0.164752 0.0216876)
(0.022355 0.159777 0.0218313)
(0.0218733 0.154215 0.0217359)
(0.0212662 0.147529 0.0212764)
(0.0204283 0.140151 0.0205905)
(0.0191955 0.131449 0.0193988)
(0.0176771 0.122002 0.0179407)
(0.0159135 0.110798 0.0158653)
(0.0136218 0.0982324 0.0132679)
(0.0110365 0.0853815 0.0101816)
(0.00798836 0.0705508 0.00586205)
(0.00469415 0.0558062 -8.02028e-05)
(0.000986665 0.0392396 -0.00964921)
(-0.00457977 0.0199208 -0.0293283)
(-0.0111038 0.00825946 -0.0534352)
(-0.00996622 0.00756232 -0.00482063)
(0.0158593 0.0239421 0.00485783)
(-0.00730831 0.00358267 -0.00161147)
(0.00718844 0.0186646 0.00136908)
(-0.000307695 0.00340537 0.000376785)
(0.00520455 0.0107048 0.000975735)
(0.000430013 0.00229226 0.000858276)
(0.00238169 0.00580285 0.00100184)
(-0.00112124 0.00054164 0.000969623)
(-0.000988334 0.00247628 0.00137516)
(-0.00335809 0.000150083 0.00171613)
(-0.00297207 0.00176051 0.00231367)
(-0.00431902 0.00046377 0.00262555)
(-0.00425841 0.00142109 0.00295577)
(-0.00508191 0.000696962 0.00309373)
(-0.0051244 0.00123043 0.00326219)
(-0.00559347 0.000854319 0.00333147)
(-0.00567304 0.00113063 0.00343936)
(-0.00592661 0.000963917 0.00349316)
(-0.00600924 0.00109549 0.00357061)
(-0.00613801 0.00104244 0.00362254)
(-0.00620536 0.00109544 0.00368405)
(-0.00627154 0.0010921 0.00373254)
(-0.00631627 0.00111257 0.00378432)
(-0.00635313 0.00112175 0.00383127)
(-0.00637953 0.00113399 0.00387792)
(-0.00639839 0.00114413 0.00392273)
(-0.00641002 0.00115408 0.00396632)
(-0.00641582 0.00116253 0.00400864)
(-0.00641752 0.00116955 0.00404998)
(-0.0064155 0.00117612 0.00409046)
(-0.00640942 0.00118092 0.00413052)
(-0.00640013 0.00119142 0.00416936)
(-0.00638553 0.00117974 0.0042092)
(-0.00636668 0.00123161 0.00424468)
(-0.00635609 0.00113613 0.00428379)
(-0.00631661 0.00133828 0.00431829)
(-0.0063151 0.00101458 0.00435771)
(-0.00623657 0.00155364 0.00439256)
(-0.00623527 0.000785189 0.00442943)
(-0.0061123 0.00190974 0.00446367)
(-0.0060942 0.000424957 0.00449306)
(-0.00592785 0.00244727 0.00452608)
(-0.00584668 -6.98996e-05 0.00453641)
(-0.00567012 0.00324197 0.00455118)
(-0.00542429 -0.000705365 0.0045033)
(-0.00531581 0.00440129 0.00444065)
(-0.00473222 -0.00160594 0.00428706)
(-0.00487018 0.00588261 0.00412252)
(-0.00364489 -0.00346074 0.00425977)
(-0.00498999 0.00759953 0.00421861)
(-0.00394666 -0.00601459 0.00595737)
(-0.0101655 0.0131093 0.00710878)
(-0.00849931 -0.00888105 0.00908741)
(-0.0215284 0.0164888 0.0247438)
(-0.0134212 -0.0510254 0.0331634)
(-0.0258019 -0.0259076 0.0570467)
(0.0591105 -0.130174 0.0558033)