/*--------------------------------*- C++ -*----------------------------------*\
| =========                 |                                                 |
| \\      /  F ield         | OpenFOAM: The Open Source CFD Toolbox           |
|  \\    /   O peration     | Version:  2.3.0                                 |
|   \\  /    A nd           | Web:      www.OpenFOAM.org                      |
|    \\/     M anipulation  |                                                 |
\*---------------------------------------------------------------------------*/
FoamFile
{
    version     2.0;
    format      ascii;
    class       volVectorField;
    location    "10";
    object      U.waterMean;
}
// * * * * * * * * * * * * * * * * * * * * * * * * * * * * * * * * * * * * * //

dimensions      [0 1 -1 0 0 0 0];

internalField   nonuniform List<vector> 
6144
(
(0.00655925 0.020325 -0.000756125)
(0.00634384 0.00752349 -0.00101303)
(0.0043683 0.00581905 -0.00194756)
(0.00441523 0.00371102 -0.00212359)
(0.00373981 0.0028071 -0.00224981)
(0.00385777 0.00253466 -0.00228633)
(0.00361692 0.00209428 -0.00235246)
(0.00373812 0.00204735 -0.00238369)
(0.00363952 0.00176127 -0.00244127)
(0.00374187 0.00166986 -0.00246798)
(0.00369063 0.00139416 -0.00253344)
(0.00376303 0.00124987 -0.00255897)
(0.00373108 0.000980336 -0.0026192)
(0.00376811 0.000829789 -0.00264535)
(0.00374758 0.000613125 -0.00269316)
(0.00376065 0.000491522 -0.00271444)
(0.00374913 0.000340247 -0.00274759)
(0.00375007 0.000254131 -0.00276365)
(0.00374357 0.000157545 -0.00278427)
(0.00374093 9.95499e-05 -0.00279571)
(0.00373668 4.1147e-05 -0.00280811)
(0.0037336 2.57195e-06 -0.00281598)
(0.00373047 -3.25154e-05 -0.00282335)
(0.00372775 -5.83618e-05 -0.0028287)
(0.00372528 -8.01253e-05 -0.00283325)
(0.00372297 -9.85074e-05 -0.00283675)
(0.00372084 -0.000112376 -0.00283973)
(0.0037187 -0.000129801 -0.0028417)
(0.00371818 -0.00013176 -0.00284366)
(0.00371421 -0.000172236 -0.00284401)
(0.00371729 -0.000129143 -0.00284593)
(0.00370974 -0.000250879 -0.00284481)
(0.0037199 -9.18637e-05 -0.00284633)
(0.00370543 -0.000392696 -0.00284409)
(0.00372578 -1.15293e-05 -0.00284378)
(0.00370174 -0.000624239 -0.00284082)
(0.003733 0.000110928 -0.0028373)
(0.00369874 -0.000958031 -0.00283476)
(0.00373207 0.000266033 -0.00282722)
(0.00369692 -0.00137123 -0.00283038)
(0.00370248 0.000477586 -0.00282826)
(0.0036713 -0.00175909 -0.00284813)
(0.00362691 0.000955222 -0.00288152)
(0.00359143 -0.00186048 -0.00292339)
(0.00352971 0.00214259 -0.00298787)
(0.00354429 -0.00129722 -0.00302187)
(0.00352257 0.00438721 -0.0031906)
(0.0031837 0.000366724 -0.00348159)
(0.00218201 0.00943243 -0.00364194)
(0.00156976 0.00473349 -0.00329302)
(0.00055283 0.0165707 -0.0030202)
(0.00449372 0.00803068 -0.00331304)
(0.0129721 0.0137085 -0.00427405)
(0.0162598 -0.0251022 -0.00416584)
(0.0183166 -0.0101955 -0.00779995)
(0.0184506 -0.0581504 -0.00550415)
(0.0132252 -0.00642317 -0.0185514)
(0.0190797 -0.0727471 0.0169379)
(-0.0193208 0.0409585 -0.0395709)
(0.0200435 -0.0569429 0.0356818)
(0.120534 -0.277866 0.0667413)
(0.0873635 -0.0853063 0.0377674)
(0.0591244 -0.183775 0.0184753)
(0.0436877 -0.168655 0.00873202)
(0.0344595 -0.183596 0.00597525)
(0.0269699 -0.158242 0.00522051)
(0.0203779 -0.167416 0.0040174)
(0.016147 -0.148205 0.00390657)
(0.0139809 -0.150379 0.00421391)
(0.0120057 -0.134352 0.00495198)
(0.0105638 -0.134005 0.00552871)
(0.00884235 -0.122479 0.00589174)
(0.00673633 -0.11894 0.00599792)
(0.00355782 -0.108719 0.00605483)
(0.000529005 -0.101125 0.0061984)
(-0.00279028 -0.0907243 0.00565701)
(-0.00473029 -0.080162 0.0043686)
(-0.00420179 -0.071547 0.00424462)
(-0.004478 -0.0653814 0.00431077)
(-0.00111935 -0.0594129 0.00310122)
(0.0030219 -0.0560887 0.00156859)
(0.0043423 -0.0535618 0.00076596)
(0.0047489 -0.0503001 0.000955909)
(0.00501626 -0.0469329 0.000380233)
(0.00465995 -0.042392 -0.00118492)
(0.00394469 -0.0372722 -0.00176783)
(0.00338166 -0.0309807 -0.0025923)
(0.00273905 -0.0237435 -0.00277811)
(0.00184181 -0.0158778 -0.003609)
(0.00217697 -0.00576641 -0.00323857)
(0.00346915 0.00230911 -0.00382535)
(0.00407335 0.00935536 -0.00441117)
(0.00314832 0.015547 -5.27068e-05)
(0.0022522 0.0158722 0.00620095)
(0.00178743 0.0118093 0.0100501)
(0.00202194 0.00602715 0.0125879)
(0.0137897 0.0216083 0.00298927)
(0.0143171 0.00977811 0.00257406)
(0.00936086 0.00746686 0.000702544)
(0.00969956 0.00549901 0.00042704)
(0.00775407 0.00427596 9.95267e-05)
(0.0081563 0.00408782 6.30375e-05)
(0.00748293 0.00340061 -8.85034e-05)
(0.00783447 0.00335937 -8.51468e-05)
(0.00754209 0.00288407 -0.000196989)
(0.00784621 0.00275055 -0.000170117)
(0.00768895 0.00232295 -0.000272334)
(0.00791057 0.00211031 -0.000258833)
(0.00779756 0.00172356 -0.000354039)
(0.00790973 0.00151228 -0.000363699)
(0.00782797 0.00121194 -0.000443799)
(0.00786628 0.00104764 -0.000460184)
(0.00781376 0.000841132 -0.000515741)
(0.00781551 0.000726402 -0.000531284)
(0.00778366 0.000595799 -0.000563829)
(0.00777331 0.000518033 -0.00057519)
(0.00775315 0.00043923 -0.000591897)
(0.00774099 0.000386965 -0.000598476)
(0.00772715 0.000339285 -0.000605334)
(0.00771616 0.000303983 -0.000607972)
(0.00770581 0.000274136 -0.000609391)
(0.00769676 0.000249293 -0.000608806)
(0.00768863 0.000229776 -0.0006072)
(0.00768113 0.000208439 -0.000604001)
(0.00767673 0.000200819 -0.000599888)
(0.00766702 0.000158821 -0.000594415)
(0.00767182 0.000198782 -0.000588652)
(0.00765268 6.75e-05 -0.000581643)
(0.00767637 0.000237641 -0.000572518)
(0.00763841 -9.87266e-05 -0.000565266)
(0.00769148 0.000328062 -0.000549852)
(0.00762559 -0.000373786 -0.000542738)
(0.00771227 0.000471658 -0.000520756)
(0.00761172 -0.00078394 -0.000515703)
(0.00771859 0.000664184 -0.000490658)
(0.00758243 -0.00132744 -0.000501855)
(0.0076397 0.000915264 -0.000505345)
(0.00745822 -0.00188323 -0.000569033)
(0.0073618 0.00142411 -0.000675481)
(0.00707361 -0.00207663 -0.00085121)
(0.00678305 0.00284527 -0.00107307)
(0.00637609 -0.00109663 -0.00128408)
(0.00592735 0.00618802 -0.0015396)
(0.00486896 0.00221544 -0.00176282)
(0.00416443 0.0116669 -0.00147561)
(0.00393624 0.00278695 -0.00100958)
(0.00453945 0.0118172 0.000377241)
(0.0108302 -0.0128564 0.00102452)
(0.0306199 -0.010304 0.00388311)
(0.0387567 -0.0550537 0.00747237)
(0.034208 -0.0386777 0.00726871)
(0.0391673 -0.0987945 0.0099915)
(0.0166201 -0.0501395 0.00530601)
(0.0100698 -0.164853 0.0339774)
(-0.0728756 0.0385455 -0.0918128)
(0.00246123 -0.0885897 0.00819809)
(0.158122 -0.262585 0.1133)
(0.0798291 0.00729211 0.0454287)
(0.0262498 -0.108888 0.0107126)
(0.0209996 -0.0303978 0.00996752)
(0.01278 -0.0638591 0.00953803)
(0.00556183 -0.0359734 0.00723713)
(-0.000951852 -0.0506828 0.00527645)
(-0.00162751 -0.0304165 0.00483695)
(-0.000112438 -0.0316724 0.00752162)
(9.68062e-05 -0.0168357 0.00719154)
(0.000487375 -0.0197099 0.00818156)
(0.000524036 -0.0103738 0.00837599)
(7.9266e-05 -0.0128079 0.00623019)
(-3.02724e-05 -0.00976683 0.00355314)
(0.000521363 -0.013694 0.00221868)
(0.00226661 -0.015335 0.00180961)
(0.00565879 -0.0190568 0.0010464)
(0.00787259 -0.021759 0.0022798)
(0.00865163 -0.0258086 0.00307089)
(0.0102655 -0.0275813 0.00334989)
(0.0107215 -0.0285397 0.00185233)
(0.0113317 -0.0267362 0.00128094)
(0.0106817 -0.0266386 0.00167828)
(0.00878591 -0.0267629 0.00165593)
(0.00599148 -0.0264695 0.00155486)
(0.00324589 -0.0259976 0.00201287)
(0.0017487 -0.0239638 0.00171502)
(0.000164351 -0.0209594 0.00150954)
(-0.00101705 -0.0175263 0.00115603)
(-0.00163577 -0.0124102 0.000728965)
(-7.82394e-05 -0.00646172 -0.000367778)
(0.00206634 0.000932259 -0.00287985)
(0.00229916 0.00980925 0.000668022)
(0.000673662 0.0122161 0.00864085)
(-0.00115647 0.0088835 0.0135018)
(-0.00190638 0.00471081 0.0165806)
(0.0161746 0.0203014 0.00475108)
(0.0177184 0.0102515 0.00461006)
(0.0108075 0.00721809 0.0023943)
(0.0118406 0.00634025 0.00226873)
(0.00884143 0.00440184 0.00200261)
(0.00958681 0.00449604 0.00198848)
(0.00843261 0.00350229 0.00182871)
(0.00901599 0.00356413 0.00189255)
(0.00848628 0.00292513 0.00176188)
(0.00894916 0.00286968 0.00184353)
(0.00867089 0.00233945 0.00175369)
(0.00898973 0.00218922 0.001811)
(0.00880688 0.00172611 0.00172494)
(0.00896458 0.00154656 0.00173842)
(0.00883044 0.00120602 0.00166702)
(0.00888145 0.00105817 0.00166545)
(0.00879254 0.000836142 0.00161892)
(0.0087908 0.000732041 0.00161642)
(0.00873462 0.000597186 0.00159369)
(0.00871388 0.000526685 0.00159495)
(0.00867628 0.000448476 0.00158884)
(0.00865187 0.000400904 0.00159464)
(0.00862402 0.000355393 0.00159899)
(0.0086007 0.000323373 0.0016084)
(0.00857793 0.000295803 0.00161875)
(0.00855719 0.000273776 0.00163128)
(0.00853763 0.000255793 0.00164472)
(0.00851932 0.000236384 0.00165934)
(0.00850356 0.000229379 0.00167483)
(0.00848479 0.000192786 0.00169093)
(0.00848002 0.000228034 0.00170788)
(0.00844957 0.000109168 0.00172474)
(0.0084691 0.000267199 0.0017449)
(0.00841415 -4.87199e-05 0.00176079)
(0.0084741 0.000356994 0.00178746)
(0.00838122 -0.000317456 0.0018011)
(0.00849023 0.00049652 0.00183566)
(0.00834741 -0.000734287 0.00184603)
(0.00849802 0.000672766 0.00188366)
(0.00829257 -0.00131809 0.00187486)
(0.00841102 0.000885432 0.00187615)
(0.00812747 -0.00199634 0.00178963)
(0.00804887 0.00128517 0.0016521)
(0.00759222 -0.00246021 0.00139538)
(0.00719102 0.0023917 0.00106057)
(0.00653082 -0.00199005 0.000737776)
(0.00601695 0.00470832 0.000495691)
(0.00544808 -0.000623147 0.000127437)
(0.00616379 0.00735401 0.00017426)
(0.00839996 -0.00561621 0.000678658)
(0.0150907 -0.00053656 0.00297319)
(0.0286359 -0.0313623 0.00176773)
(0.0459401 -0.025621 0.00793115)
(0.0517558 -0.0649265 0.0117243)
(0.0494359 -0.0388427 0.016834)
(0.0603724 -0.104945 0.0192646)
(0.0301036 -0.035703 0.0268197)
(0.044258 -0.190256 0.0671665)
(-0.0747502 0.0796202 -0.0808199)
(0.0212138 -0.129736 -0.0234735)
(0.178373 -0.230753 0.12946)
(0.095134 0.0582195 0.0514073)
(0.0619306 -0.091771 0.0267501)
(0.0417263 0.0194415 0.00491362)
(0.0286322 -0.0334545 0.0136489)
(0.0187216 -0.00417984 0.0158884)
(0.00832833 -0.0280933 0.0154058)
(-0.00128638 -0.0131292 0.0113712)
(-0.00098791 -0.0147061 0.0110593)
(0.00181031 0.00094006 0.00918826)
(0.0023197 -0.000722839 0.00534751)
(0.00206732 0.00931632 0.00320435)
(0.00319892 0.00707314 0.00210883)
(0.00459029 0.0109184 0.00268009)
(0.00666002 0.00758081 0.00380575)
(0.0082357 0.00490391 0.00485355)
(0.0100179 0.000738292 0.00543337)
(0.00982443 -0.00377347 0.00621799)
(0.00815476 -0.00962626 0.00582912)
(0.00665129 -0.0139888 0.00427122)
(0.00644054 -0.0158448 0.00205187)
(0.00712138 -0.01551 0.00121567)
(0.00759986 -0.0143427 0.00222115)
(0.00638627 -0.0151988 0.00391859)
(0.00295933 -0.0172957 0.00502969)
(-0.000747233 -0.0189284 0.00579074)
(-0.00285627 -0.0182943 0.00528262)
(-0.00479971 -0.0169764 0.00466723)
(-0.00659346 -0.0150901 0.00407378)
(-0.00747407 -0.0118379 0.00340311)
(-0.00676141 -0.00776678 0.00240129)
(-0.00489314 -0.00200792 0.000936862)
(-0.00375281 0.0052193 0.0032377)
(-0.00440938 0.00817874 0.00962899)
(-0.00701046 0.00615473 0.0147203)
(-0.0088706 0.00309835 0.0173025)
(0.0163447 0.0187976 0.00543605)
(0.0197406 0.010649 0.00564709)
(0.0103888 0.0066776 0.00295669)
(0.0128458 0.00737973 0.00269691)
(0.00875576 0.00454566 0.00262778)
(0.0100924 0.00536156 0.00253916)
(0.00835987 0.0037789 0.00253723)
(0.00921774 0.00412253 0.00263049)
(0.00835685 0.00315419 0.00254439)
(0.00895644 0.00326253 0.00267396)
(0.00849171 0.00252553 0.00264108)
(0.00890978 0.00247046 0.00274171)
(0.00861448 0.001862 0.00269952)
(0.00880648 0.00173646 0.00273553)
(0.00859654 0.00130869 0.00268983)
(0.00865189 0.00119483 0.0027019)
(0.00851117 0.000929971 0.00267406)
(0.00850043 0.000844299 0.00268326)
(0.00841115 0.000691921 0.00267343)
(0.00837669 0.000630939 0.00268485)
(0.0083171 0.000547214 0.00268827)
(0.00827856 0.000504174 0.00270247)
(0.00823476 0.000457997 0.00271403)
(0.00819825 0.000428597 0.00273016)
(0.00816254 0.00040169 0.00274645)
(0.00812993 0.000381481 0.00276438)
(0.00809913 0.000364414 0.00278266)
(0.00807003 0.000347823 0.00280152)
(0.00804379 0.000340086 0.00282078)
(0.00801671 0.000309584 0.00284032)
(0.00800387 0.000339052 0.00286039)
(0.00796504 0.00023473 0.00288099)
(0.00798216 0.000378373 0.00290402)
(0.00791543 8.61837e-05 0.00292481)
(0.00798495 0.000469643 0.002953)
(0.00787263 -0.000175492 0.00297289)
(0.00801036 0.000609804 0.00300841)
(0.00783634 -0.000599138 0.00302613)
(0.00803885 0.000776827 0.0030627)
(0.00778575 -0.00122548 0.00306331)
(0.00798803 0.000958323 0.00305518)
(0.00761084 -0.00203223 0.00296041)
(0.00761561 0.00123581 0.00278454)
(0.00697632 -0.00282503 0.0025002)
(0.00651886 0.00192422 0.00219286)
(0.00577128 -0.00302984 0.00185322)
(0.00544685 0.00328447 0.00157859)
(0.00519682 -0.00332595 0.00120681)
(0.00848669 0.00288811 0.00232165)
(0.0132486 -0.0128928 0.00432069)
(0.0238801 -0.012522 0.00627094)
(0.0397193 -0.0394597 0.00798743)
(0.0516129 -0.0260208 0.0212885)
(0.0541229 -0.0582692 0.0309436)
(0.0479929 -0.0137896 0.0472187)
(0.0563509 -0.0880949 0.0500022)
(0.0284788 0.0382 0.0922724)
(0.0655668 -0.213813 0.122901)
(-0.10093 0.224277 -0.0715076)
(0.0215137 -0.222103 0.0117513)
(0.14422 -0.196841 0.145065)
(0.0659504 0.0702186 0.0450808)
(0.037733 -0.0553857 0.0257333)
(0.0108138 0.0528888 -0.00204556)
(0.00997743 0.00429864 0.0126191)
(-0.00571862 0.0352494 0.00725385)
(-0.0118382 0.0199211 0.00705307)
(-0.0163632 0.0350797 0.00506831)
(-0.0147165 0.0272795 0.0038949)
(-0.0104736 0.0402731 0.00273066)
(-0.00565456 0.0359433 0.00334445)
(-0.00122902 0.0418752 0.00409479)
(0.00293028 0.0365521 0.00450252)
(0.005713 0.0369017 0.00418526)
(0.00864007 0.0319496 0.0042475)
(0.00984381 0.0283131 0.00411276)
(0.0115617 0.0242335 0.00391287)
(0.0110174 0.0186467 0.00410761)
(0.00990887 0.0124255 0.00282297)
(0.00834193 0.00753179 0.000121641)
(0.00616999 0.00461467 -0.00308322)
(0.00612928 0.00580188 -0.00403638)
(0.00749266 0.00615407 -0.00245383)
(0.00693806 0.00419289 -0.00113227)
(0.00261809 0.00154753 0.000142627)
(-0.00377535 -0.00453323 0.00280488)
(-0.00699317 -0.00643865 0.00345707)
(-0.00946061 -0.0080433 0.00313661)
(-0.011658 -0.00808279 0.00239509)
(-0.0126391 -0.00663229 0.00184997)
(-0.0120296 -0.00405104 0.000970547)
(-0.010718 0.000161707 0.000397141)
(-0.00973262 0.00551727 0.0039757)
(-0.009523 0.00691975 0.00976745)
(-0.0125861 0.00499741 0.0138742)
(-0.0152773 0.00209818 0.0161123)
(0.0147064 0.0171077 0.00585365)
(0.0210011 0.0111842 0.00630149)
(0.00851359 0.00580304 0.00285017)
(0.0130734 0.00853923 0.00244662)
(0.00773954 0.00429801 0.0023702)
(0.00992078 0.00603316 0.00222639)
(0.00745397 0.00358954 0.00241658)
(0.0086425 0.0044019 0.00258988)
(0.0073061 0.00298999 0.00264405)
(0.00803937 0.00342123 0.00293591)
(0.00730762 0.00249454 0.00300551)
(0.0077746 0.00263057 0.00322564)
(0.00732376 0.0018893 0.00324245)
(0.0075214 0.00186689 0.00333886)
(0.00720994 0.00135909 0.00331243)
(0.00725116 0.00130315 0.00334985)
(0.00705029 0.000997118 0.00333013)
(0.00702023 0.000944278 0.00335169)
(0.00689285 0.000774173 0.00334882)
(0.00683835 0.000728879 0.00336842)
(0.00675373 0.000639752 0.00337702)
(0.00669733 0.000603521 0.003397)
(0.0066351 0.00055717 0.00341305)
(0.00658276 0.00053069 0.00343406)
(0.00653204 0.000504936 0.00345453)
(0.00648547 0.000486656 0.0034766)
(0.00644158 0.00047116 0.00349845)
(0.00640058 0.000457376 0.00352056)
(0.00636245 0.000448977 0.00354294)
(0.00632509 0.00042415 0.00356446)
(0.00630171 0.000448147 0.00358551)
(0.00625592 0.000358297 0.00360594)
(0.00626469 0.000485526 0.00362899)
(0.00619065 0.000221277 0.00364718)
(0.00625961 0.000576345 0.00367323)
(0.0061391 -2.67056e-05 0.00368776)
(0.00629579 0.00071913 0.00371879)
(0.00611109 -0.000436379 0.00372534)
(0.00636819 0.000898883 0.00375297)
(0.00610572 -0.00103992 0.00372914)
(0.00642539 0.00112146 0.00369311)
(0.00604855 -0.0018293 0.00355425)
(0.00626136 0.00138327 0.00332962)
(0.00558526 -0.00292373 0.00299975)
(0.00520543 0.00155069 0.00271425)
(0.00432844 -0.00399894 0.00250955)
(0.0040645 0.0017783 0.00242319)
(0.00483775 -0.00571251 0.00251815)
(0.00967461 -0.00168383 0.00479893)
(0.0172061 -0.017683 0.0075385)
(0.030066 -0.0161316 0.00962778)
(0.0430184 -0.0338926 0.015189)
(0.048116 -0.014823 0.0287779)
(0.044743 -0.0443652 0.0384964)
(0.0342204 0.00264174 0.062371)
(0.0336695 -0.0623435 0.0674926)
(0.033184 0.0851586 0.104557)
(0.045192 -0.138333 0.110949)
(-0.0302022 0.360733 -0.0226352)
(0.0246486 -0.274481 0.0239391)
(0.119177 -0.172784 0.15704)
(0.0463607 0.0748807 0.0487147)
(0.033502 -0.0280561 0.0332276)
(0.0123844 0.0624628 0.00133127)
(0.0167414 0.0335169 0.010778)
(0.00361091 0.0660443 0.00971278)
(-0.00128203 0.0504594 0.0113806)
(-0.00632222 0.0659702 0.00921401)
(-0.00562889 0.054622 0.00757681)
(-0.00264278 0.0627801 0.00671958)
(0.00239816 0.0549452 0.00697942)
(0.00548766 0.0570058 0.00672087)
(0.00951812 0.0511647 0.00673569)
(0.0114679 0.04954 0.00614163)
(0.0140894 0.0454585 0.00588332)
(0.0144639 0.0424298 0.00469362)
(0.0154824 0.0394551 0.00316224)
(0.0148032 0.0368527 0.00165292)
(0.0139298 0.0331909 0.000674079)
(0.013106 0.0291033 -0.00146451)
(0.0127349 0.0255788 -0.0035685)
(0.0124428 0.0223075 -0.00394637)
(0.0134358 0.019467 -0.00348801)
(0.0120625 0.0170925 -0.00243135)
(0.0081606 0.0144651 -0.00189843)
(0.000993564 0.0107239 -0.00213391)
(-0.00407111 0.00606835 -0.00144601)
(-0.00758529 0.00295804 -0.00271689)
(-0.0109051 0.000625979 -0.00359602)
(-0.0134003 0.000279494 -0.00354232)
(-0.0142536 0.00125074 -0.00299792)
(-0.0141578 0.00408107 -0.00133638)
(-0.013966 0.00724734 0.00356574)
(-0.013743 0.00675455 0.0079485)
(-0.0183342 0.00513654 0.011668)
(-0.0234212 0.00157265 0.013889)
(0.0119736 0.0152069 0.00575883)
(0.0216159 0.0126039 0.00683769)
(0.00615571 0.00500177 0.00229846)
(0.0130615 0.010369 0.00200127)
(0.00684634 0.00394425 0.00157438)
(0.00981647 0.00694665 0.0015762)
(0.00655334 0.00298341 0.00179918)
(0.00787242 0.00440953 0.00202202)
(0.00598726 0.00227777 0.00228541)
(0.00664987 0.00320637 0.00281663)
(0.0056324 0.00206428 0.00312636)
(0.00612641 0.00254458 0.00356227)
(0.00554557 0.00169333 0.00372044)
(0.00571619 0.00185936 0.0039283)
(0.00532246 0.00128541 0.00396669)
(0.00533954 0.00133243 0.00405542)
(0.0050956 0.000994971 0.00406723)
(0.00505377 0.000993667 0.00411196)
(0.00490894 0.000810616 0.00412529)
(0.00485029 0.000793582 0.0041553)
(0.004762 0.000704442 0.00417017)
(0.00470657 0.000681017 0.00419315)
(0.00464647 0.000638257 0.00420859)
(0.00459724 0.00061801 0.00422665)
(0.00455039 0.000596311 0.00424192)
(0.00450805 0.000582235 0.00425743)
(0.00446906 0.000570467 0.00427227)
(0.00443362 0.000560641 0.00428707)
(0.004401 0.000554835 0.00430091)
(0.0043697 0.000537327 0.00431421)
(0.00435139 0.000558524 0.00432739)
(0.00431653 0.00048572 0.0043366)
(0.00433071 0.000599541 0.00435069)
(0.00427232 0.000370056 0.00435599)
(0.00434953 0.000699955 0.00437064)
(0.00425199 0.000155713 0.00437177)
(0.00442367 0.000867483 0.00438781)
(0.00426734 -0.000191371 0.00437809)
(0.00455067 0.00112001 0.00437812)
(0.00431609 -0.000667903 0.00431821)
(0.00468335 0.00150425 0.00422783)
(0.00434569 -0.00128052 0.00401647)
(0.00475047 0.00187186 0.0037697)
(0.00415742 -0.00264037 0.00347519)
(0.00392027 0.00131267 0.0033444)
(0.00291613 -0.00498566 0.0033571)
(0.00317222 0.000340771 0.00366507)
(0.00467351 -0.00890456 0.00455368)
(0.0107083 -0.00427192 0.00792616)
(0.0180468 -0.0183417 0.0107977)
(0.0306576 -0.0103764 0.0144057)
(0.0375599 -0.019251 0.0200607)
(0.0437153 0.00221306 0.0314166)
(0.0432537 -0.0263677 0.0431633)
(0.0239749 0.00805568 0.0643276)
(0.0147076 -0.0711407 0.0682549)
(0.018901 0.0446453 0.0846777)
(0.0210019 -0.147135 0.0695003)
(0.0430213 0.323682 0.0551249)
(0.021574 -0.279605 0.0260428)
(0.0573025 -0.150424 0.157818)
(0.0142721 0.0876993 0.035371)
(0.00845273 -0.00076534 0.0236379)
(-0.0053193 0.0836974 -0.000218333)
(-0.00548068 0.0681638 0.00955761)
(-0.0111067 0.0975278 0.00966319)
(-0.0113795 0.0841988 0.0117792)
(-0.0111466 0.0983916 0.0109616)
(-0.00746162 0.0850147 0.0104924)
(-0.00306347 0.0912919 0.00964701)
(0.00301031 0.0816299 0.00962247)
(0.00728477 0.0829871 0.0085372)
(0.0121106 0.0762984 0.00819282)
(0.0146943 0.0755671 0.0080559)
(0.0174607 0.0703049 0.00849164)
(0.018936 0.0672773 0.00835468)
(0.0205367 0.0626207 0.0073829)
(0.0216545 0.059776 0.00616348)
(0.0223608 0.0565037 0.00587789)
(0.0225403 0.0505776 0.0047879)
(0.022043 0.0452405 0.00167286)
(0.0207404 0.040186 -0.00179008)
(0.0194493 0.0371676 -0.00390875)
(0.0163702 0.0344233 -0.00491901)
(0.0114943 0.0318164 -0.00475083)
(0.00526272 0.0273089 -0.00464983)
(0.000328946 0.0231614 -0.00365963)
(-0.00366461 0.0183589 -0.00347628)
(-0.00716569 0.0146373 -0.00351616)
(-0.010593 0.012151 -0.00317305)
(-0.0129933 0.00994969 -0.00141573)
(-0.0148912 0.00924119 0.00183539)
(-0.0163947 0.00785443 0.00638079)
(-0.0179382 0.00536137 0.00875685)
(-0.0224304 0.00315372 0.0101027)
(-0.0268929 0.000640625 0.00897712)
(0.00706033 0.0129706 0.00618231)
(0.0210555 0.0153035 0.00734823)
(0.0027292 0.00460917 0.00184207)
(0.0122497 0.0129007 0.00244013)
(0.0054178 0.0038857 0.00121872)
(0.00927491 0.00826062 0.00173625)
(0.00537846 0.00267776 0.00171692)
(0.00662716 0.00467456 0.0019924)
(0.00402718 0.00142767 0.00215515)
(0.00447838 0.00274576 0.00275446)
(0.00294912 0.00133017 0.00315056)
(0.00334841 0.00218979 0.0037719)
(0.00247151 0.00125848 0.0040335)
(0.00256908 0.00167142 0.00434227)
(0.00198137 0.00107311 0.0044215)
(0.00193258 0.00126629 0.00455327)
(0.0015726 0.000924677 0.00457922)
(0.0014816 0.00100511 0.00464378)
(0.00126527 0.000825151 0.00465864)
(0.00116801 0.000851381 0.00469396)
(0.00104419 0.000768492 0.0047075)
(0.000965295 0.000765133 0.00472897)
(0.000887623 0.000729589 0.00473967)
(0.000827928 0.000718591 0.00475353)
(0.000774852 0.000702703 0.00476335)
(0.000730247 0.00069335 0.00477268)
(0.000691721 0.000684744 0.00478016)
(0.00065952 0.000677802 0.00478704)
(0.000632782 0.000674688 0.00479331)
(0.000610659 0.000662907 0.00479966)
(0.000598751 0.000684026 0.00480687)
(0.000578721 0.000629439 0.00481084)
(0.000598894 0.000735299 0.00482033)
(0.000555946 0.000544097 0.00481935)
(0.000640214 0.000856722 0.00483326)
(0.000560226 0.000377506 0.00482715)
(0.000746148 0.00106685 0.00484738)
(0.000611067 0.000109069 0.00482714)
(0.00092791 0.00140135 0.00482942)
(0.000727123 -0.000252289 0.00473794)
(0.00121491 0.00189235 0.00464978)
(0.00103017 -0.000813082 0.00439111)
(0.00186731 0.00219081 0.00427454)
(0.00163882 -0.00246978 0.00410288)
(0.00179588 0.000968571 0.00431041)
(0.000933833 -0.00533588 0.00462118)
(0.0014105 -0.000220138 0.00507138)
(0.00253888 -0.00974674 0.00633704)
(0.00501406 -0.00413598 0.00983135)
(0.0119661 -0.0155532 0.0117599)
(0.0197828 0.000783934 0.0160919)
(0.0261226 -0.00114548 0.0203199)
(0.0343148 0.0257754 0.0302082)
(0.0322646 0.00606049 0.0418881)
(0.0254176 0.0470956 0.0596622)
(0.0125327 -0.0497146 0.0608753)
(0.00587404 0.0571273 0.0642242)
(-0.00127736 -0.136076 0.0409483)
(-0.0113805 0.306983 0.0626336)
(0.00656998 -0.28523 0.0346879)
(0.0141775 -0.134662 0.138669)
(-0.0140783 0.0884311 0.0364353)
(-0.0130335 0.0179782 0.013013)
(-0.0176476 0.108957 -0.00738243)
(-0.0136993 0.087769 0.00939489)
(-0.0120731 0.115822 0.011393)
(-0.00996343 0.101504 0.0159098)
(-0.00745176 0.112811 0.0149216)
(-0.00251423 0.0994068 0.0154042)
(0.00088075 0.10332 0.0130962)
(0.006683 0.0934718 0.0138865)
(0.00938395 0.0944836 0.0116446)
(0.0139942 0.0884933 0.0129626)
(0.015986 0.0876968 0.0115056)
(0.0198069 0.0822945 0.0129302)
(0.0214848 0.0781418 0.0121545)
(0.0234529 0.0729669 0.0125494)
(0.0239247 0.0667031 0.0106658)
(0.0245596 0.0623335 0.00895985)
(0.0249252 0.0579092 0.00739667)
(0.0252738 0.0556442 0.00501047)
(0.0239506 0.0530667 0.00127567)
(0.0224922 0.052283 -0.00275387)
(0.0196738 0.0509302 -0.00583226)
(0.0144277 0.0496532 -0.00881501)
(0.00792869 0.0453157 -0.0119947)
(0.00259594 0.0409338 -0.0126511)
(-0.00179362 0.0362716 -0.0110347)
(-0.00602055 0.0303689 -0.00956447)
(-0.00989453 0.0256315 -0.00715589)
(-0.0136449 0.0208864 -0.00563508)
(-0.015804 0.0168744 -0.00220606)
(-0.0181539 0.0111872 0.000852787)
(-0.0217427 0.00640787 0.00441486)
(-0.027842 0.00196368 0.00772509)
(-0.035215 -0.00117559 0.00398255)
(-0.000143378 0.00768505 0.00479363)
(0.0188765 0.0193138 0.00723608)
(-0.00117689 0.00364597 0.00176264)
(0.0105919 0.0157232 0.00359076)
(0.00364511 0.00349498 0.00197361)
(0.00821081 0.00941867 0.00259559)
(0.00397726 0.00244919 0.00253246)
(0.00539394 0.00512216 0.00282182)
(0.00233038 0.000682521 0.00291234)
(0.00228915 0.00222089 0.00349214)
(0.000438333 0.00038973 0.0039224)
(0.00085772 0.00160088 0.00460422)
(-0.000146267 0.000529787 0.00495087)
(-3.80499e-05 0.00123027 0.00533643)
(-0.00071784 0.000621021 0.00547399)
(-0.00076363 0.00102844 0.00565223)
(-0.00116339 0.000712382 0.00570827)
(-0.00123173 0.000924162 0.00580801)
(-0.00144593 0.000778437 0.00585015)
(-0.00150993 0.000878287 0.0059191)
(-0.00160787 0.000825964 0.00596061)
(-0.00164995 0.000865244 0.00601295)
(-0.00169144 0.000856291 0.00605177)
(-0.00171046 0.000870595 0.00609543)
(-0.00172152 0.000874824 0.00613491)
(-0.00172138 0.000882839 0.00617511)
(-0.00171396 0.000888806 0.00621405)
(-0.00170078 0.00089422 0.00625241)
(-0.00168367 0.000900844 0.00628962)
(-0.00166154 0.000900688 0.00632743)
(-0.00163108 0.00092503 0.00636446)
(-0.00160503 0.000890354 0.00640024)
(-0.00154258 0.00098783 0.00644154)
(-0.00153546 0.000836855 0.00647525)
(-0.00140215 0.00112919 0.00652465)
(-0.00142916 0.000726339 0.00655242)
(-0.00118315 0.00139542 0.00660167)
(-0.00126677 0.000568627 0.00659839)
(-0.00087761 0.00184535 0.00660582)
(-0.00102028 0.000361767 0.00649911)
(-0.000416285 0.00243925 0.00637665)
(-0.000504309 -0.000169386 0.0060721)
(0.000515211 0.00259542 0.00592763)
(0.00038839 -0.00200645 0.00580018)
(8.04191e-05 0.00114761 0.0059968)
(-0.00159205 -0.00579751 0.00626808)
(-0.000701657 -0.00217065 0.00653687)
(0.000520134 -0.0122339 0.00866433)
(0.00337988 -0.00799041 0.0119654)
(0.00455372 -0.0174359 0.0150759)
(0.00596725 0.00735758 0.0195638)
(0.010375 0.0146922 0.0232818)
(0.0185722 0.0506414 0.0308753)
(0.0232585 0.049093 0.0411832)
(0.029567 0.0833249 0.0593797)
(0.0251603 0.0351215 0.0673526)
(0.0358078 0.112854 0.092428)
(0.00419316 -0.106727 0.0696793)
(0.0101382 0.311997 0.0232418)
(-0.00868491 -0.302546 0.0283031)
(-0.0514092 -0.0884822 0.0998166)
(-0.0398737 0.143523 0.00611548)
(-0.0382606 0.0768293 0.00658926)
(-0.0314826 0.154451 -0.00824452)
(-0.0232406 0.124191 0.00694624)
(-0.0166056 0.145432 0.00843424)
(-0.0125436 0.13099 0.0126684)
(-0.00524679 0.139653 0.0147743)
(0.00133348 0.12935 0.0189726)
(0.00710035 0.132424 0.021234)
(0.0116349 0.125021 0.0219119)
(0.015118 0.125796 0.0211136)
(0.0191316 0.121755 0.0204816)
(0.0233029 0.121171 0.0194212)
(0.0277571 0.116833 0.0193293)
(0.0313526 0.111732 0.0191591)
(0.0338439 0.106348 0.0196538)
(0.0348397 0.0999968 0.0196337)
(0.0349617 0.0946887 0.0193951)
(0.0348546 0.0897631 0.019339)
(0.033957 0.0866336 0.0182527)
(0.0317336 0.0842572 0.0155524)
(0.0289059 0.0843974 0.0127848)
(0.0258143 0.0851545 0.00977911)
(0.0227473 0.0873657 0.00832872)
(0.0169298 0.0866283 0.00678494)
(0.0103627 0.0840826 0.00524871)
(0.00445185 0.0795194 0.0041073)
(-0.00106132 0.0738213 0.00377216)
(-0.005117 0.0672087 0.00425037)
(-0.00916458 0.0594675 0.00401703)
(-0.0119942 0.0519082 0.00381599)
(-0.016269 0.0434374 0.00172237)
(-0.022617 0.033739 -0.00343719)
(-0.0321311 0.0211354 -0.0162515)
(-0.039334 0.00745874 -0.0362175)
(-0.00948203 0.00699739 -0.00521221)
(0.0162984 0.0244157 0.00475556)
(-0.00636916 0.00268626 -0.00161389)
(0.0073419 0.0184151 0.00163301)
(0.000717399 0.00275079 0.000491939)
(0.00581883 0.0102213 0.000860164)
(0.00151211 0.00202101 0.000587276)
(0.00319928 0.00551905 0.000662874)
(-0.000110636 0.000220987 0.000504607)
(-0.000639913 0.00176909 0.000757946)
(-0.00314914 -0.000425054 0.00104248)
(-0.00289817 0.00115978 0.00171787)
(-0.00417295 8.94455e-05 0.00213703)
(-0.00419508 0.00105082 0.00255353)
(-0.00499046 0.000470084 0.00274807)
(-0.00507433 0.00101169 0.0029436)
(-0.00552071 0.000711753 0.00302889)
(-0.00560618 0.00098928 0.00314263)
(-0.00584228 0.000853568 0.00320368)
(-0.00592018 0.000985818 0.00328423)
(-0.00603525 0.00094554 0.00334017)
(-0.00609376 0.00100166 0.00340443)
(-0.00614977 0.00100409 0.00345582)
(-0.00618566 0.00102729 0.00351018)
(-0.00621355 0.00103865 0.00355999)
(-0.00623137 0.00105265 0.00360936)
(-0.00624214 0.00106461 0.00365682)
(-0.00624614 0.00107569 0.00370314)
(-0.00624575 0.00108821 0.00374789)
(-0.00623981 0.00109414 0.003792)
(-0.00623026 0.00111796 0.00383355)
(-0.00621849 0.00109529 0.00387632)
(-0.00618266 0.00118477 0.00391697)
(-0.00619187 0.00106359 0.00395808)
(-0.00609875 0.001337 0.00399717)
(-0.00615955 0.000998391 0.00403471)
(-0.00597493 0.00165472 0.00405822)
(-0.00608914 0.00094842 0.00406668)
(-0.00574914 0.00222202 0.00403176)
(-0.00587275 0.00091385 0.00394628)
(-0.0051946 0.00295034 0.00379673)
(-0.00502317 0.000527114 0.00362047)
(-0.0037208 0.00297948 0.00362068)
(-0.00355428 -0.00170703 0.00386017)
(-0.00291075 0.000415683 0.00382049)
(-0.00264243 -0.00694757 0.00309321)
(-0.000537165 -0.00262528 0.00329625)
(0.000128126 -0.00850279 0.00353636)
(-0.00264209 0.00322004 0.00561885)
(-0.010778 0.000125841 0.0110058)
(-0.0197691 0.0176321 0.0185819)
(-0.0180745 0.0182045 0.0254427)
(-0.0118555 0.0501676 0.0282939)
(-0.00222716 0.0439215 0.0294506)
(0.00173757 0.0967894 0.0438119)
(0.0105527 0.0445726 0.0439923)
(0.044729 0.133386 0.0683511)
(0.0229967 -0.0507762 0.082855)
(0.0432042 0.329134 0.0282267)
(-0.0212535 -0.2829 0.0202088)
(-0.101164 -0.130036 0.0856551)
(-0.055163 0.135819 0.00686929)
(-0.0514729 0.0349972 0.008268)
(-0.0328227 0.120037 -0.00573294)
(-0.0288178 0.0688424 0.00865152)
(-0.0198607 0.0935417 0.00722687)
(-0.0164682 0.068847 0.0114782)
(-0.00763809 0.0790315 0.0132208)
(-0.00289432 0.0659953 0.0148476)