/*--------------------------------*- C++ -*----------------------------------*\
| =========                 |                                                 |
| \\      /  F ield         | OpenFOAM: The Open Source CFD Toolbox           |
|  \\    /   O peration     | Version:  2.3.0                                 |
|   \\  /    A nd           | Web:      www.OpenFOAM.org                      |
|    \\/     M anipulation  |                                                 |
\*---------------------------------------------------------------------------*/
FoamFile
{
    version     2.0;
    format      ascii;
    class       volVectorField;
    location    "10";
    object      U.water;
}
// * * * * * * * * * * * * * * * * * * * * * * * * * * * * * * * * * * * * * //

dimensions      [0 1 -1 0 0 0 0];

internalField   nonuniform List<vector> 
6144
(
(0.00812697 0.0190844 0.00123249)
(0.00819557 0.00220738 0.00136234)
(0.00335495 -0.00116924 0.000539544)
(0.0033199 -0.0027573 -1.56781e-05)
(0.00231047 -0.00421894 1.36194e-05)
(0.00248799 -0.00320198 -7.37637e-05)
(0.00238991 -0.00333883 -0.000532722)
(0.00258159 -0.00218427 -0.000649386)
(0.00269445 -0.00167237 -0.000850695)
(0.00286724 -0.000835837 -0.000917485)
(0.00306159 -0.000458285 -0.00102255)
(0.00323792 -0.000170249 -0.00104048)
(0.00337852 -0.000224741 -0.00116943)
(0.00350331 -0.000282071 -0.00123883)
(0.00358714 -0.000469677 -0.00138279)
(0.00365329 -0.000576827 -0.00146296)
(0.00370486 -0.00073045 -0.00157732)
(0.00373929 -0.000780085 -0.00164356)
(0.00376925 -0.000866574 -0.00171983)
(0.0037931 -0.000873034 -0.00176437)
(0.00381123 -0.000902945 -0.00181083)
(0.00382818 -0.000890418 -0.00183867)
(0.00384054 -0.000890083 -0.00186484)
(0.00385172 -0.00087389 -0.00188182)
(0.00386047 -0.000861304 -0.00189579)
(0.00386769 -0.000847353 -0.00190534)
(0.00387406 -0.000832257 -0.00191252)
(0.00387881 -0.000825517 -0.00191674)
(0.00388494 -0.000810234 -0.00191902)
(0.00388756 -0.000821062 -0.00191918)
(0.00389294 -0.000805549 -0.00191567)
(0.00389538 -0.000848902 -0.00191204)
(0.00390103 -0.000835889 -0.00189984)
(0.0039057 -0.000934915 -0.00189196)
(0.003913 -0.000937722 -0.00186767)
(0.0039195 -0.00112905 -0.00185252)
(0.00392968 -0.00117828 -0.00181438)
(0.00393502 -0.00149837 -0.00179404)
(0.00394136 -0.00162411 -0.00175445)
(0.00393299 -0.00206283 -0.00176052)
(0.00391508 -0.00220238 -0.00179092)
(0.00388089 -0.00250883 -0.0019207)
(0.00386122 -0.00229065 -0.00212251)
(0.0038758 -0.00186265 -0.00241488)
(0.00412551 -0.000743419 -0.0025721)
(0.00465793 0.000305465 -0.00283265)
(0.00516927 0.00215345 -0.0035571)
(0.00128408 0.00545261 -0.00550563)
(-0.00514702 0.0201975 -0.00705943)
(-0.00367055 0.0336052 -0.00548263)
(0.00358034 0.0371986 -0.00250212)
(0.0177574 0.0173223 -0.000798305)
(0.0258748 0.00451484 -0.00223439)
(0.02067 -0.0228434 -0.0071311)
(0.0201121 -0.0140567 -0.00801255)
(0.0170883 -0.0541418 -0.00421405)
(0.0114994 -0.01984 -0.0186012)
(0.0240947 -0.0717291 0.0325915)
(-0.0300215 -0.0817879 -0.0583008)
(0.0262771 0.0283869 0.0366678)
(0.19277 -0.334377 0.0471865)
(0.131185 -0.148888 0.00552692)
(0.0803415 -0.20601 -0.011038)
(0.0755311 -0.194323 -0.0114168)
(0.0580056 -0.188402 -0.00305523)
(0.0458474 -0.182507 0.0043223)
(0.0341306 -0.184507 0.00719609)
(0.0230667 -0.176848 0.00106401)
(0.0136516 -0.163897 -0.0114613)
(0.00931766 -0.145489 -0.00775585)
(0.0106656 -0.134089 -0.00130923)
(0.0135918 -0.122677 0.00235599)
(0.0075854 -0.106387 0.00462037)
(-0.0123669 -0.077861 0.002677)
(-0.0362863 -0.01293 -0.000404582)
(-0.0397785 0.0472718 0.00413796)
(-0.00119152 0.0750341 -0.0067558)
(0.0246346 0.068036 -0.00877933)
(0.0291964 0.0528809 -0.0111915)
(0.031109 0.0406166 -0.017513)
(0.0257171 0.0225844 -0.0184191)
(0.0263309 0.0137836 -0.0213296)
(0.0280917 0.0067543 -0.0201607)
(0.0290343 -0.000210528 -0.0138031)
(0.0270271 -0.00569258 -0.0119955)
(0.0257427 -0.00900898 -0.00912505)
(0.0261276 -0.0163194 -0.0077551)
(0.0232915 -0.0199114 -0.00725603)
(0.0120566 -0.0261301 -0.0113557)
(-0.00693712 -0.00770838 -0.0120351)
(-0.00533908 0.0257881 -0.0197369)
(0.00210415 0.0508115 -0.00825358)
(0.000271417 0.0607142 0.0184858)
(2.7134e-05 0.0572368 0.0319061)
(0.00344793 0.0527282 0.0358419)
(0.00295853 0.0155555 0.046409)
(0.0145663 0.0207024 0.00407582)
(0.017086 0.0100195 0.00519972)
(0.00777745 0.0049955 0.00437052)
(0.00856909 0.0028175 0.00383711)
(0.00489148 -0.000346642 0.00415622)
(0.0051492 -0.000189265 0.00355399)
(0.00458362 -0.0012119 0.00315459)
(0.00471823 -0.000299918 0.00276309)
(0.00478191 -0.000280036 0.00245879)
(0.00510427 0.000496145 0.00230923)
(0.00552023 0.000701901 0.00223287)
(0.00601566 0.000893011 0.00229413)
(0.00635837 0.000666457 0.00217607)
(0.0066764 0.000495833 0.00210968)
(0.00684706 0.000169882 0.00193007)
(0.00700213 -1.1886e-05 0.00182809)
(0.00708377 -0.000245186 0.00167769)
(0.00716273 -0.000337626 0.00159923)
(0.00720821 -0.000464347 0.00150017)
(0.00725844 -0.000491935 0.00145275)
(0.00728908 -0.000543208 0.00139795)
(0.0073246 -0.000540088 0.00137487)
(0.00734853 -0.000550808 0.00135115)
(0.0073729 -0.000539164 0.00134312)
(0.00739168 -0.000532067 0.0013383)
(0.00740858 -0.000521021 0.0013406)
(0.00742314 -0.000509603 0.00134608)
(0.00743499 -0.000506324 0.00135592)
(0.0074487 -0.000492957 0.00136882)
(0.00745687 -0.000511127 0.00138528)
(0.00747296 -0.000493646 0.00140841)
(0.00747876 -0.000555087 0.00143245)
(0.00750348 -0.000532244 0.00147246)
(0.00751223 -0.000672335 0.00150583)
(0.00755075 -0.000654824 0.00157089)
(0.00756999 -0.000921067 0.00162362)
(0.00762177 -0.000943254 0.00171535)
(0.0076476 -0.00139482 0.00178657)
(0.00769205 -0.00150329 0.00187949)
(0.00767919 -0.00214563 0.00188992)
(0.00760242 -0.00227596 0.00182687)
(0.00738318 -0.00279981 0.00152432)
(0.00698248 -0.00241106 0.00100337)
(0.00632437 -0.00173046 2.05823e-05)
(0.00550448 0.000842005 -0.00116361)
(0.00472902 0.00472975 -0.00257007)
(0.00178297 0.0130466 -0.00433697)
(-0.0036216 0.0216039 -0.00482226)
(-0.005986 0.0249384 -0.00422529)
(0.00136514 0.0249193 -0.00077943)
(0.021083 0.00662411 0.0061867)
(0.0299245 -0.0283022 0.0105383)
(0.034026 -0.0349483 0.0074578)
(0.0471445 -0.060195 0.00498439)
(0.0436959 -0.0630268 -0.000354047)
(0.0534823 -0.103886 0.00480525)
(0.0306693 -0.0814077 -0.00511323)
(0.0598076 -0.153905 0.0443963)
(-0.0763074 -0.0395095 -0.0795388)
(0.0342472 -0.0166401 -0.00863932)
(0.224369 -0.321503 0.0984879)
(0.0874511 0.0755575 0.0174916)
(-0.0126028 -0.123104 -0.00755726)
(0.0110759 -0.0271272 0.0173239)
(-0.000895425 -0.0567171 0.0332235)
(0.000814639 -0.0349657 0.0292351)
(-0.0114653 -0.0213839 0.00865721)
(0.00222348 0.0115936 0.00111363)
(0.00822777 0.0256421 0.0191913)
(0.0157989 0.0322507 -0.00213834)
(0.0107783 0.0432421 -0.0193863)
(-0.00643241 0.0544809 -0.0148833)
(-0.0273309 0.057061 -0.0118478)
(-0.0380792 0.0610101 -0.0119334)
(-0.0378536 0.0782452 -0.0183504)
(-0.00342959 0.0911306 -0.0104563)
(0.0195219 0.077011 -0.0035709)
(0.0257501 0.0710732 -0.00253124)
(0.0321792 0.0665947 -0.00719197)
(0.0421736 0.0565895 -0.0132278)
(0.0442648 0.0470886 -0.0165985)
(0.0441518 0.0379997 -0.0117431)
(0.0438212 0.0338782 -0.00683601)
(0.0417135 0.0262684 -0.00158481)
(0.0370802 0.0156091 -0.00138509)
(0.0336904 0.00497818 -0.00371264)
(0.0321345 -0.00494656 -0.000899851)
(0.0260317 -0.012496 -0.000191839)
(0.0220624 -0.0222618 -0.000707157)
(0.00436455 -0.0374904 -0.00351934)
(-0.00349342 -0.0394083 -0.0114917)
(0.00775319 -0.0239084 -0.0322768)
(0.0166208 0.0270357 -0.0238418)
(0.0111367 0.0411082 0.0265649)
(-0.000282013 0.0369164 0.0469472)
(-0.00332681 0.0155894 0.0621258)
(0.0159847 0.0171508 0.004302)
(0.0201894 0.0123105 0.00551106)
(0.00868222 0.0067782 0.00453469)
(0.0109228 0.00736227 0.0044699)
(0.00561471 0.00284523 0.00561549)
(0.0059101 0.00304624 0.00509214)
(0.0044677 0.000974638 0.00517426)
(0.00442484 0.0012999 0.00485817)
(0.00414944 0.000773395 0.00440531)
(0.00445524 0.00133916 0.00423203)
(0.0048297 0.0013903 0.00427535)
(0.0055301 0.00155241 0.00441688)
(0.005944 0.00116241 0.00447907)
(0.0063845 0.000929566 0.00448545)
(0.00655818 0.000491587 0.00443779)
(0.00675958 0.000273583 0.00439007)
(0.00682105 -9.92602e-06 0.00433491)
(0.00691701 -0.00012004 0.00430341)
(0.00694658 -0.000268048 0.00427404)
(0.00699954 -0.000302988 0.00426808)
(0.00702011 -0.000364282 0.00426258)
(0.0070534 -0.000365713 0.00427436)
(0.00707016 -0.000381764 0.00428495)
(0.00708978 -0.000372005 0.00430595)
(0.00710167 -0.000368168 0.00432771)
(0.00711227 -0.000357934 0.00435353)
(0.00711976 -0.000348432 0.00437959)
(0.00712441 -0.000344412 0.00440714)
(0.00713067 -0.000333133 0.00443617)
(0.00713158 -0.000347886 0.00446735)
(0.00714409 -0.000332483 0.00450268)
(0.00714074 -0.000385259 0.00454049)
(0.00717071 -0.000365779 0.00458485)
(0.00716824 -0.000490028 0.00463148)
(0.00722456 -0.000474312 0.00468872)
(0.00723776 -0.000716726 0.00475065)
(0.00731822 -0.000744859 0.0048239)
(0.00734976 -0.00117822 0.00490672)
(0.00742966 -0.00131038 0.00496676)
(0.00741855 -0.00196986 0.00500721)
(0.00733788 -0.00218029 0.00489994)
(0.00702226 -0.00286532 0.00463619)
(0.00638453 -0.00269593 0.00409571)
(0.00526686 -0.00263448 0.00338628)
(0.00385693 -0.00104911 0.00229973)
(0.00238254 0.00143856 0.00118064)
(0.000688376 0.00594637 -0.000244513)
(-4.04546e-05 0.00990725 -0.00179836)
(0.00054243 0.0120532 -0.00357511)
(0.0168461 0.00014238 0.00294926)
(0.0450466 -0.0245326 0.0129065)
(0.0474433 -0.0472428 0.0145617)
(0.0447459 -0.0534385 0.00863149)
(0.0598865 -0.0758361 0.00867001)
(0.0593529 -0.0717142 0.00715166)
(0.0816138 -0.122862 0.016298)
(0.0448848 -0.0839324 -0.00345026)
(0.0826582 -0.191955 0.0432995)
(-0.0917806 0.0518434 -0.0310159)
(0.0987488 -0.0949856 -0.00426927)
(0.249705 -0.276944 0.0872849)
(0.0967196 0.156726 0.0203327)
(0.0641145 -0.150255 0.0318045)
(0.0198209 0.0180569 0.0345449)
(-0.0260945 -0.045606 0.0340492)
(-0.0145109 -0.00391005 0.0206643)
(-0.0184652 -0.0162461 0.0026632)
(-0.0102859 0.0206914 -0.000262251)
(0.00977103 0.0608882 0.011811)
(0.0133199 0.0904832 -0.00818445)
(0.0193503 0.112214 -0.000254824)
(0.0191037 0.124543 -0.0041637)
(0.00699796 0.131267 -0.00549355)
(-0.00291368 0.128271 -0.00380602)
(-0.00378523 0.118515 -0.00290736)
(0.0159723 0.10987 0.00126527)
(0.0265208 0.105853 -0.00369829)
(0.0339168 0.0970995 -0.0110112)
(0.0412256 0.0919597 -0.0138547)
(0.0418571 0.0806812 -0.00807785)
(0.0460269 0.0706123 0.00322804)
(0.0417613 0.0542692 0.00905563)
(0.04125 0.0421075 0.0205234)
(0.0419318 0.0233773 0.0307193)
(0.0399146 0.00740281 0.0265497)
(0.0368814 -0.00699818 0.0230235)
(0.0347176 -0.017799 0.0232956)
(0.0296662 -0.0287375 0.0242811)
(0.0244356 -0.0370126 0.0242402)
(0.01416 -0.0445339 0.017729)
(-0.00256571 -0.0536394 0.0190566)
(-0.0122296 -0.053775 0.0108415)
(-0.00720808 -0.0358876 -0.00572009)
(-0.00462076 -0.0146421 0.00392981)
(-0.0120416 0.00333495 0.0402032)
(-0.0278317 0.000826453 0.0581973)
(0.0142892 0.012392 0.00252297)
(0.0232619 0.0110561 0.00340589)
(0.00774474 0.00456413 0.00194728)
(0.0130212 0.008496 0.00139964)
(0.00593099 0.00278843 0.0033412)
(0.00723582 0.00479275 0.0029239)
(0.00458739 0.00181987 0.0044269)
(0.00458532 0.00248459 0.00421129)
(0.00374141 0.00153438 0.0040965)
(0.00372872 0.00230463 0.0040558)
(0.00380292 0.00224511 0.0042134)
(0.00455817 0.00249481 0.00455739)
(0.00500205 0.0019818 0.00480665)
(0.00545056 0.00171742 0.00492081)
(0.00559651 0.00114446 0.0049523)
(0.00577901 0.000881965 0.00495343)
(0.0058077 0.000522723 0.00494243)
(0.00589303 0.000387254 0.00493857)
(0.00590104 0.0002024 0.00493808)
(0.00594991 0.000153924 0.00495133)
(0.00596022 7.28471e-05 0.00496542)
(0.00599253 6.13052e-05 0.00499009)
(0.00600556 3.38048e-05 0.00501274)
(0.00602484 3.68765e-05 0.00504325)
(0.00603603 3.28559e-05 0.00507149)
(0.0060465 3.91558e-05 0.00510097)
(0.00605471 4.41123e-05 0.00512941)
(0.00606086 4.77179e-05 0.005157)
(0.00606785 5.44987e-05 0.00518558)
(0.00607071 4.33252e-05 0.00521578)
(0.00608285 5.48623e-05 0.00524718)
(0.00608366 1.12183e-05 0.00527928)
(0.00611647 2.73141e-05 0.00531274)
(0.00612233 -7.77351e-05 0.00534788)
(0.00619403 -6.31452e-05 0.00538478)
(0.00622303 -0.000282104 0.00542797)
(0.00634661 -0.000303113 0.00547488)
(0.00641334 -0.000708356 0.00553647)
(0.00655634 -0.000813304 0.0055692)
(0.00662086 -0.00141156 0.00560282)
(0.00661801 -0.00155722 0.0054591)
(0.00634544 -0.00222906 0.00522994)
(0.00569521 -0.00220954 0.00465524)
(0.00439892 -0.0027283 0.00423606)
(0.00252495 -0.00225539 0.00392848)
(0.000962873 -0.00185312 0.00368133)
(-0.000377331 0.000323715 0.00276245)
(-0.000119086 0.00099662 0.00222355)
(0.00870601 0.00196954 0.00397041)
(0.0321405 -0.0156178 0.0160265)
(0.0523021 -0.0335026 0.0324381)
(0.0556317 -0.0529383 0.037609)
(0.063174 -0.0487405 0.0326547)
(0.080565 -0.0715954 0.0339749)
(0.0645075 -0.0443885 0.0289637)
(0.0876951 -0.120021 0.0382032)
(0.0300748 -0.0158584 0.0247218)
(0.0937938 -0.217788 0.0664931)
(-0.136256 0.164117 0.0538527)
(0.050381 -0.17893 0.0679184)
(0.252517 -0.23414 0.090047)
(0.0726839 0.134084 0.0125578)
(0.0610879 -0.0706012 0.0266)
(-0.0626927 0.083492 0.0081585)
(-0.0369237 -0.026302 0.00679873)
(-0.045608 0.0292822 -0.0101649)
(-0.0414162 0.0280303 -0.0156462)
(-0.0395228 0.0698743 0.00234775)
(-0.0227636 0.0945875 0.00135266)
(-0.00566822 0.11824 -0.00406901)
(0.00180471 0.130982 0.00690782)
(0.00336734 0.143303 0.00378998)
(0.00423634 0.147248 0.00437314)
(0.00458825 0.147435 0.0017499)
(0.00818047 0.138305 -0.00134858)
(0.018097 0.135349 -0.00760395)
(0.027904 0.130193 -0.00904293)
(0.0325697 0.12347 -0.007406)
(0.0389972 0.117149 0.00269836)
(0.044754 0.100808 0.0127969)
(0.0451174 0.0849051 0.023808)
(0.0387148 0.0719098 0.0306858)
(0.0280497 0.0521342 0.0413654)
(0.0227497 0.0396084 0.0467881)
(0.0133962 0.0194398 0.0481353)
(0.0077654 0.00200443 0.0457038)
(0.00306796 -0.00983241 0.0432921)
(-8.53812e-05 -0.0210101 0.0443669)
(-0.00760238 -0.0294983 0.0428496)
(-0.0174363 -0.0337759 0.0370616)
(-0.0284152 -0.0362669 0.0303059)
(-0.0333878 -0.0448536 0.0173119)
(-0.0368748 -0.0360944 -0.014439)
(-0.0385105 -0.0116078 0.0040419)
(-0.049221 0.00672584 0.041666)
(-0.0585914 0.00172566 0.0521176)
(0.0130759 0.0091735 0.00275483)
(0.0262249 0.0126285 0.0012748)
(0.00743832 0.00194994 -0.00264487)
(0.0169752 0.0104846 -0.00356224)
(0.00726978 0.000913145 -0.00202067)
(0.00930738 0.00500658 -0.00144537)
(0.00501672 -0.000282849 0.000962274)
(0.00500078 0.00145618 0.00098156)
(0.00278432 -0.000125305 0.00191279)
(0.00249259 0.0014395 0.00237471)
(0.00224677 0.00174609 0.00306462)
(0.00283592 0.00254351 0.00386156)
(0.00313302 0.00217683 0.00447957)
(0.00343821 0.00203281 0.00483265)
(0.00344898 0.00148445 0.00497413)
(0.00350866 0.00125472 0.00505164)
(0.00345055 0.000885176 0.00507266)
(0.00346565 0.000750897 0.00508382)
(0.00342947 0.000553044 0.00508531)
(0.00344333 0.000500101 0.00509307)
(0.00343441 0.000409874 0.00509979)
(0.00345038 0.00039074 0.00511317)
(0.00345491 0.000354265 0.00512443)
(0.00346886 0.00034863 0.00514061)
(0.00347815 0.000338021 0.00515047)
(0.00348881 0.000339291 0.00516141)
(0.00349907 0.000340209 0.00517081)
(0.00351038 0.000340426 0.00518063)
(0.00352315 0.000341003 0.00518865)
(0.00353577 0.0003276 0.00518971)
(0.00355744 0.000330675 0.00518465)
(0.00357745 0.000291034 0.00517416)
(0.00362251 0.000302017 0.00515849)
(0.00365698 0.000213074 0.00513915)
(0.00375098 0.000227937 0.00512094)
(0.00382089 4.37765e-05 0.00510016)
(0.00399284 3.89383e-05 0.00508558)
(0.00410536 -0.000269397 0.00506711)
(0.00432731 -0.000254451 0.00503342)
(0.00445639 -0.000598764 0.00497401)
(0.00457453 -0.000434012 0.00480648)
(0.00448714 -0.000693668 0.00462573)
(0.0041314 -0.00053302 0.00428135)
(0.00327859 -0.00139674 0.00424356)
(0.00158389 -0.00202091 0.00445874)
(-0.000206489 -0.00317801 0.00536435)
(-0.00142674 -0.00358583 0.00575207)
(0.00107436 -0.00488992 0.00667255)
(0.0106861 -0.00543085 0.00939556)
(0.0337886 -0.0206843 0.0237705)
(0.0492509 -0.0159786 0.0462042)
(0.0628221 -0.0357992 0.0518374)
(0.0872731 -0.0302417 0.0498434)
(0.110233 -0.0687195 0.0380171)
(0.0874182 -0.00697579 0.0605761)
(0.0885449 -0.110961 0.0379997)
(0.00122125 0.111277 0.101493)
(0.0514976 -0.181435 0.122065)
(-0.14137 0.500017 0.0203828)
(0.0519503 -0.30792 0.0456858)
(0.22618 -0.161263 0.0908765)
(0.0498064 0.133829 -0.00799403)
(0.054448 0.0299695 0.0195062)
(-0.0276976 0.0864173 0.00450054)
(-0.0254974 0.0607535 0.000857486)
(-0.0497097 0.0963415 0.00347762)
(-0.0393183 0.108079 0.0106206)
(-0.0358329 0.113982 0.0068264)
(-0.0194415 0.122379 0.000544787)
(-0.00671338 0.13347 -0.00507727)
(0.00214714 0.145126 -0.00734628)
(0.00448044 0.152336 -0.00558757)
(0.0050748 0.156576 -0.0083493)
(0.00686448 0.15755 -0.00943925)
(0.0113573 0.152448 -0.0107216)
(0.0182434 0.151573 -0.0105683)
(0.0259187 0.148639 -0.00663345)
(0.034292 0.147104 -0.00181616)
(0.0399243 0.135344 0.00307312)
(0.0412139 0.122016 0.00597449)
(0.0387517 0.109345 0.0162438)
(0.0249974 0.0918028 0.0288922)
(0.0123905 0.0728912 0.047079)
(0.00513207 0.060144 0.0528017)
(-0.00624437 0.0474943 0.0427206)
(-0.0143385 0.0361188 0.0373549)
(-0.014923 0.0218584 0.037744)
(-0.0158684 0.00646244 0.0371828)
(-0.0220357 -0.0151266 0.0308444)
(-0.03477 -0.0254738 0.0208267)
(-0.0459693 -0.0325743 0.00902733)
(-0.0548025 -0.0312883 -0.015145)
(-0.0594254 -0.00307734 -0.0242888)
(-0.0519234 0.0103299 0.0232662)
(-0.0539777 0.0123745 0.0430179)
(-0.0738427 -0.00239033 0.0494925)
(0.0122992 0.00835618 0.000439068)
(0.0274309 0.0179518 0.00148955)
(0.0112117 0.00222157 -0.00685772)
(0.0216757 0.0136705 -0.0053744)
(0.0143216 0.000994862 -0.00743974)
(0.0157264 0.00716587 -0.00469019)
(0.0094862 -0.00147731 -0.00338591)
(0.00731659 0.000424394 -0.00285529)
(0.00399819 -0.0032766 -0.0018358)
(0.00226599 -0.00120147 -0.00101387)
(0.000962199 -0.000633386 0.000518162)
(0.00153033 0.00116239 0.0021193)
(0.00188543 0.00134012 0.00334197)
(0.00210172 0.00163311 0.00407659)
(0.00200139 0.00131835 0.00443699)
(0.00193801 0.00128241 0.00464169)
(0.00181247 0.00100409 0.00472693)
(0.001759 0.000944465 0.00476645)
(0.00170004 0.000777694 0.00477009)
(0.0016902 0.000752751 0.00476044)
(0.00168702 0.000678722 0.00474009)
(0.00170783 0.000670758 0.00471602)
(0.00172731 0.000640748 0.00467965)
(0.00175342 0.00063984 0.00464324)
(0.00178115 0.000632995 0.00460318)
(0.00181095 0.000634699 0.00456195)
(0.00184179 0.000634748 0.00451725)
(0.00187552 0.0006345 0.00447045)
(0.00191067 0.000637163 0.00441913)
(0.00195026 0.000631631 0.00436451)
(0.00199433 0.000640703 0.00430537)
(0.00204261 0.000619166 0.00424091)
(0.00210947 0.000639408 0.00418049)
(0.0021853 0.000581253 0.00411672)
(0.0023054 0.000614707 0.00405661)
(0.00243667 0.000497124 0.00400333)
(0.00263168 0.000552099 0.00395557)
(0.00278081 0.000417799 0.00389535)
(0.00298701 0.000611085 0.0037985)
(0.00306572 0.000584682 0.00365536)
(0.00309877 0.00106111 0.00342023)
(0.00301406 0.00109743 0.00323313)
(0.00313408 0.00137582 0.00324311)
(0.00289787 2.61664e-05 0.00371429)
(0.0017259 -0.00135693 0.0043111)
(0.000187747 -0.0037263 0.00548688)
(-0.00124029 -0.00471163 0.00592901)
(0.00120653 -0.0084512 0.00678314)
(0.0101119 -0.00773706 0.0081177)
(0.0213073 -0.0154102 0.0238119)
(0.0292953 -0.00833461 0.0461147)
(0.0592835 -0.0225821 0.0525166)
(0.0986856 -0.00743193 0.0512572)
(0.10801 -0.0366961 0.0459351)
(0.0867231 0.0517626 0.0792748)
(0.0776321 -0.109045 0.0376373)
(0.0484697 0.14355 0.147093)
(0.00429892 -0.250973 0.139633)
(0.0599738 0.552358 0.0184314)
(0.0527216 -0.351651 0.0485992)
(0.136672 -0.0902348 0.0816227)
(0.0269191 0.118004 0.00528637)
(0.0278875 0.0800328 0.0172869)
(-0.0265532 0.118928 0.0161576)
(-0.0406358 0.118757 0.015917)
(-0.0465918 0.124555 0.0151636)
(-0.0393354 0.124932 0.0091524)
(-0.0298503 0.129139 0.00146338)
(-0.0171157 0.133739 -0.00631173)
(-0.00552514 0.148654 -0.0128362)
(0.00382067 0.165625 -0.0124631)
(0.00875503 0.175878 -0.0127236)
(0.0134646 0.182902 -0.010234)
(0.0183738 0.18643 -0.00735642)
(0.0249471 0.185673 -0.00185067)
(0.031367 0.183372 0.00206565)
(0.0400631 0.17839 0.00361325)
(0.0471439 0.173432 0.00486244)
(0.0501821 0.163624 0.0034777)
(0.0515514 0.151988 0.00275413)
(0.0455226 0.134312 0.00469665)
(0.0222246 0.107312 0.00186304)
(-0.0121674 0.0755658 0.00708649)
(-0.0305537 0.0559408 0.0107102)
(-0.0344932 0.049633 0.00327313)
(-0.0329098 0.0423122 0.00166413)
(-0.0267217 0.0301173 0.0176587)
(-0.0210991 0.0134808 0.0180056)
(-0.0237707 -0.00474127 0.00750418)
(-0.035762 -0.0099097 -0.00459037)
(-0.0462069 -0.0045515 -0.0150234)
(-0.0548203 0.00858081 -0.0188605)
(-0.0547199 0.0207525 0.0028498)
(-0.0487502 0.0112649 0.027299)
(-0.0585883 0.0122025 0.0398816)
(-0.0845709 0.00164909 0.0456678)
(0.0103726 0.00993966 -0.000248234)
(0.0257216 0.0246294 0.00359084)
(0.0136978 0.00189675 -0.00649656)
(0.0237487 0.0157953 -0.000539503)
(0.0187144 0.000162777 -0.00721332)
(0.0195531 0.00749903 -0.00435865)
(0.0150055 -0.000708479 -0.00445559)
(0.0111891 0.00178333 -0.00321447)
(0.00639801 -0.00489607 -0.00340146)
(0.00247802 -0.00366755 -0.00287791)
(0.000193728 -0.00315723 -0.0019193)
(-0.000297975 -0.000944849 4.25777e-05)
(-0.000289744 -0.000286127 0.00161218)
(-0.000279075 0.00054753 0.00268644)
(-0.000624878 0.000561637 0.00320534)
(-0.00081937 0.000842048 0.00350997)
(-0.0010734 0.000763237 0.00364346)
(-0.00118742 0.000887004 0.00372951)
(-0.00130341 0.000830073 0.00375247)
(-0.00133231 0.000907988 0.00375267)
(-0.00134697 0.000890665 0.00372349)
(-0.0013255 0.000938554 0.00368859)
(-0.00129214 0.000936119 0.00364054)
(-0.00124019 0.000957022 0.00359491)
(-0.00118227 0.000963427 0.00354257)
(-0.00111631 0.000976326 0.00349096)
(-0.00104666 0.000986083 0.0034361)
(-0.000972852 0.000997023 0.00338099)
(-0.0008976 0.00101124 0.00332642)
(-0.000812421 0.00101933 0.0032751)
(-0.000724392 0.00104091 0.00322783)
(-0.000620721 0.00103879 0.00318607)
(-0.000515238 0.0010775 0.00314761)
(-0.000395642 0.00106585 0.00311546)
(-0.000246321 0.0011361 0.00309886)
(-8.24791e-05 0.00110033 0.00309777)
(0.000123396 0.00122203 0.0031184)
(0.000283637 0.00120157 0.00311916)
(0.000472262 0.00144859 0.00307291)
(0.000561735 0.00146923 0.00291036)
(0.000741663 0.00184568 0.00264432)
(0.000958599 0.00161721 0.0023453)
(0.00163563 0.00162759 0.00237818)
(0.00200776 0.00015022 0.0028448)
(0.00127821 -0.00124085 0.00337908)
(-0.00115287 -0.00422623 0.00384971)
(-0.00154825 -0.0048877 0.00393731)
(0.0013049 -0.00906521 0.00340828)
(0.00409579 -0.00617346 0.0050953)
(0.0145947 -0.00666972 0.0149103)
(0.0186904 -0.00795323 0.032788)
(0.0485048 -0.0060306 0.0402151)
(0.0702399 0.0249047 0.0347996)
(0.0369587 0.0432258 0.0551281)
(0.0465872 0.0796526 0.0796261)
(-0.00477374 -0.0533259 0.0495823)
(0.00612554 0.098179 0.0777122)
(-0.0111308 -0.240861 0.0406152)
(0.0427961 0.190013 0.0530353)
(0.0458882 -0.328867 0.0473245)
(0.0831887 -0.0213499 0.0556118)
(0.0140054 0.139507 0.0169514)
(0.00127169 0.142033 0.00793681)
(-0.0252285 0.168792 0.0105972)
(-0.0319636 0.17228 0.00604786)
(-0.0329484 0.173999 0.00453508)
(-0.0216449 0.172927 -0.00154389)
(-0.0129998 0.175724 -0.00126373)
(-0.00672448 0.173371 -0.00916347)
(0.00105796 0.179414 -0.012156)
(0.00988907 0.18885 -0.0138565)
(0.0132094 0.195817 -0.0123571)
(0.0183989 0.199043 -0.00872993)
(0.0227813 0.198309 -0.00565493)
(0.0286008 0.196081 0.000223525)
(0.0352854 0.189979 0.00451274)
(0.0420775 0.186231 0.0063261)
(0.0485245 0.182066 0.00756415)
(0.054349 0.17515 0.0079962)
(0.0604635 0.171436 0.00705921)
(0.0666414 0.166925 0.00714208)
(0.0654722 0.156537 0.00176605)
(0.0535077 0.135769 -0.00241125)
(0.0263591 0.0992371 -0.00675429)
(-0.00189184 0.0633252 -0.00949564)
(-0.00829505 0.0458318 -0.0242282)
(-0.017688 0.0364513 -0.0231704)
(-0.0208843 0.0311402 -0.00738964)
(-0.0281197 0.018919 -0.00198523)
(-0.0436108 0.0134353 -0.00639399)
(-0.0500697 0.0136438 -0.00914541)
(-0.055712 0.0117754 -0.00287967)
(-0.0468005 0.00863994 0.0215716)
(-0.0488781 -0.00822394 0.0299153)
(-0.06597 -0.00428315 0.0390258)
(-0.0949312 -0.0119577 0.0453958)
(0.00191857 0.00906176 -0.0017218)
(0.0236099 0.0301906 0.00771465)
(0.0105709 -0.00401682 -0.00078001)
(0.0179431 0.0145801 0.00741289)
(0.0183721 -0.00512506 -0.000514237)
(0.0190867 0.0054956 -0.00255963)
(0.0163121 -0.00155426 -0.00325331)
(0.0135241 0.00251653 -0.00201852)
(0.0096762 -0.00434019 -0.00260182)
(0.00241448 -0.00499508 -0.00270636)
(-0.00101608 -0.00526056 -0.00213502)
(-0.00109175 -0.00320834 -0.000416553)
(-0.000731185 -0.00234142 0.00134729)
(-0.000497745 -0.0011036 0.00269874)
(-0.000791768 -0.000585688 0.00340371)
(-0.00102027 0.000156372 0.0038092)
(-0.00130965 0.000429197 0.00396312)
(-0.0014468 0.000829989 0.00404837)
(-0.00159683 0.000960972 0.0040558)
(-0.00164492 0.00116627 0.00406208)
(-0.00167164 0.00122944 0.00405298)
(-0.0016421 0.00134092 0.00405798)
(-0.00160116 0.00138707 0.00405838)
(-0.00153717 0.00144508 0.00407183)
(-0.00146564 0.00147938 0.00408509)
(-0.00138293 0.00151073 0.0041054)
(-0.00129456 0.00153253 0.00412906)
(-0.00119787 0.00154938 0.00415803)
(-0.00109704 0.00156572 0.0041903)
(-0.000984632 0.00157549 0.00422906)
(-0.000870038 0.00159626 0.00427398)
(-0.000742893 0.00160144 0.0043285)
(-0.000603292 0.00164714 0.00439213)
(-0.000436615 0.00164966 0.00446564)
(-0.000229588 0.00174406 0.0045528)
(6.53958e-06 0.0017771 0.00464341)
(0.000271853 0.00200255 0.00472244)
(0.000487607 0.0021376 0.00473898)
(0.000733043 0.00254528 0.00465746)
(0.000890301 0.00269719 0.00437698)
(0.00114726 0.0030157 0.00385919)
(0.0013067 0.00239063 0.00311604)
(0.00189292 0.00179856 0.00249388)
(0.00226747 -0.000316813 0.00228331)
(0.00201829 -0.00210689 0.00265463)
(0.00032513 -0.00548514 0.00342668)
(-0.00112823 -0.00684585 0.0033235)
(0.000496732 -0.00628947 0.00560365)
(0.000327667 -0.00335534 0.00999327)
(0.00335107 -0.00985966 0.0252953)
(0.00374413 0.00935167 0.0375515)
(0.0271714 0.0446932 0.0249356)
(0.0418956 0.114069 -0.000738785)
(0.0396535 0.144917 0.00890705)
(0.0487248 0.15214 0.0232181)
(0.0555024 0.14232 0.0342384)
(0.127692 0.19164 0.0431824)
(0.117473 -0.106034 0.0498065)
(-0.0937646 0.27024 0.0073672)
(-0.0289067 -0.354613 0.0293466)
(-0.0257301 0.0298047 0.0237197)
(-0.015012 0.179128 -0.00612353)
(-0.0229391 0.194793 -0.00558095)
(-0.0121296 0.216484 -0.00531388)
(-0.00559181 0.218048 0.00117351)
(0.00292498 0.20841 0.0118343)
(0.0125281 0.197598 0.0138791)
(0.0219141 0.187327 0.014286)
(0.0292116 0.175034 0.0108641)
(0.0283985 0.168181 -0.00205677)
(0.0252935 0.169037 -0.0124163)
(0.0256863 0.169559 -0.0163537)
(0.024655 0.170771 -0.0169845)
(0.0233253 0.169369 -0.0152071)
(0.0250046 0.167596 -0.00657232)
(0.0321224 0.162853 0.00577768)
(0.0342456 0.160068 0.0108772)
(0.0392804 0.158185 0.0124254)
(0.0483047 0.158527 0.0108341)
(0.0541549 0.163598 0.012124)
(0.0646731 0.167555 0.0130916)
(0.0698382 0.171131 0.00742028)
(0.0688917 0.171199 0.00182205)
(0.05852 0.161513 -0.00746106)
(0.0407474 0.149052 -0.0112512)
(0.023138 0.133153 -0.0187805)
(-0.00281408 0.122224 -0.0235838)
(-0.0183059 0.114156 -0.0146994)
(-0.0259641 0.110844 -0.00559573)
(-0.0342901 0.091837 0.00750758)
(-0.0398733 0.0817713 0.0180729)
(-0.0375893 0.0668409 0.0336663)
(-0.0419904 0.0503405 0.0412815)
(-0.055476 0.0353116 0.0472277)
(-0.0826182 0.025318 0.0512906)
(-0.117098 -0.00283394 0.042387)
(-0.00169938 0.00412345 -0.00876871)
(0.021399 0.0357553 0.00440201)
(0.0039025 -0.00444204 9.79993e-05)
(0.00596137 0.0183922 0.00630245)
(0.0109518 -0.00450023 0.00414478)
(0.0128757 0.0052952 2.55665e-05)
(0.0142727 -0.00180937 -0.00193584)
(0.0131852 0.00311807 -0.00231842)
(0.0114075 -0.00237171 -0.00302397)
(0.00323479 -0.00466187 -0.00498385)
(-0.00253005 -0.00654139 -0.00589903)
(-0.00344976 -0.0048077 -0.00474322)
(-0.00391505 -0.0035866 -0.00308847)
(-0.00436327 -0.00202322 -0.00167439)
(-0.00488947 -0.00111984 -0.000825799)
(-0.00521958 -0.000107371 -0.00030809)
(-0.00551449 0.000395349 -5.08942e-05)
(-0.00561697 0.000899902 9.96616e-05)
(-0.00564115 0.00108458 0.000190563)
(-0.00557196 0.00130041 0.00028228)
(-0.00550463 0.00138173 0.000369614)
(-0.00541913 0.00149811 0.000459796)
(-0.00532895 0.00155011 0.000543423)
(-0.00524226 0.00160844 0.000632616)
(-0.00515694 0.00164376 0.000721258)
(-0.00507372 0.00167774 0.000811317)
(-0.00499328 0.00170436 0.000899373)
(-0.00491451 0.0017284 0.000986086)
(-0.00484183 0.00175419 0.00107017)
(-0.0047619 0.00177568 0.00115351)
(-0.00469228 0.00180722 0.00123382)
(-0.00461125 0.00182469 0.00131483)
(-0.00454544 0.00187865 0.00139586)
(-0.00446682 0.00190623 0.00147843)
(-0.00442026 0.00203113 0.00155844)
(-0.00440783 0.00215411 0.00162684)
(-0.00435885 0.00251678 0.00164957)
(-0.00430368 0.00282933 0.00160445)
(-0.00417204 0.00347814 0.00140132)
(-0.00391193 0.00386846 0.00098184)
(-0.00315153 0.00437124 0.000274973)
(-0.00191631 0.00385638 -0.000558594)
(4.6743e-05 0.00284275 -0.00108258)
(0.00121563 0.00010887 -0.00106431)
(0.00104096 -0.00206072 -0.000900359)
(-0.0023715 -0.00509429 -0.00107491)
(-0.00607136 -0.00335547 -0.00133391)
(-0.00555464 -0.00227322 0.00366284)
(-0.00320483 0.00289697 0.0106477)
(-0.0155557 -0.00956296 0.0226771)
(-0.0367878 0.0193708 0.0336769)
(-0.0441059 0.0768465 -0.00856745)
(-0.018632 0.20788 -0.039165)
(0.00462237 0.311786 -0.00896886)
(0.00139966 0.350793 0.00918857)
(0.042369 0.362104 0.0355737)
(0.0897458 0.348442 0.0494332)
(0.0808022 0.303085 0.0881311)
(0.0442356 0.488903 0.124862)
(-0.0175521 -0.379084 0.0339654)
(-0.114024 -0.0538928 0.00586828)
(-0.0411177 0.146652 0.00102836)
(-0.0488492 0.128071 0.00838257)
(-0.0256189 0.142041 0.0122341)
(-0.0115359 0.120008 0.0114856)
(-0.000216402 0.112053 0.020192)
(0.00564521 0.102272 0.0364737)
(0.0190875 0.0979706 0.0436072)
(0.0227001 0.0973349 0.0535007)
(0.0273217 0.0948009 0.0555536)
(0.0277006 0.0931867 0.0573821)
(0.0277162 0.0827962 0.0531125)
(0.0272547 0.0711628 0.0469353)
(0.0254136 0.0546295 0.0271508)