/*--------------------------------*- C++ -*----------------------------------*\
| =========                 |                                                 |
| \\      /  F ield         | OpenFOAM: The Open Source CFD Toolbox           |
|  \\    /   O peration     | Version:  2.3.0                                 |
|   \\  /    A nd           | Web:      www.OpenFOAM.org                      |
|    \\/     M anipulation  |                                                 |
\*---------------------------------------------------------------------------*/
FoamFile
{
    version     2.0;
    format      ascii;
    class       volScalarField;
    location    "10";
    object      w1;
}
// * * * * * * * * * * * * * * * * * * * * * * * * * * * * * * * * * * * * * //

dimensions      [0 0 0 0 0 0 0];

internalField   nonuniform List<scalar> 
6144
(
0.518788
0.518788
0.518788
0.518788
0.518788
0.518788
0.518788
0.518788
0.518788
0.518788
0.518788
0.518788
0.518788
0.518788
0.518788
0.518788
0.518788
0.518788
0.518788
0.518788
0.518788
0.518788
0.518788
0.518788
0.518788
0.518788
0.518788
0.518788
0.518788
0.518788
0.518788
0.518788
0.518788
0.518788
0.518788
0.518788
0.518788
0.518788
0.518788
0.518788
0.518788
0.518788
0.518788
0.518788
0.518788
0.518788
0.518788
0.518788
0.518788
0.518788
0.518788
0.518788
0.518788
0.518788
0.518788
0.518788
0.518784
0.518524
0.485707
0.500377
0.794041
0.998117
0.999992
0.999021
0.997042
0.982583
0.82229
0.993085
0.992948
0.989042
0.985937
0.977987
0.964485
0.776124
0.0712811
0.980553
0.988936
0.986579
0.000181844
0.962045
0.965953
0.850552
0.925571
0.945268
0.775537
0.922694
0.940145
0.996068
0.999301
0.999659
0.999443
0.998607
0.924965
0.995301
0.995817
0.999862
0.518788
0.518788
0.518788
0.518788
0.518788
0.518788
0.518788
0.518788
0.518788
0.518788
0.518788
0.518788
0.518788
0.518788
0.518788
0.518788
0.518788
0.518788
0.518788
0.518788
0.518788
0.518788
0.518788
0.518788
0.518788
0.518788
0.518788
0.518788
0.518788
0.518788
0.518788
0.518788
0.518788
0.518788
0.518788
0.518788
0.518788
0.518788
0.518788
0.518788
0.518788
0.518788
0.518788
0.518788
0.518788
0.518788
0.518788
0.518788
0.518788
0.518788
0.518788
0.518788
0.518788
0.518788
0.518788
0.518788
0.518775
0.517616
0.476057
0.48575
0.809729
0.999333
0.999994
0.999439
0.998989
0.99716
0.978644
0.985988
0.99439
0.994107
0.982249
0.994956
0.995811
0.972911
0.988947
0.991518
0.971077
0.968914
0.9385
0.955343
0.973257
0.951349
0.937207
0.961052
0.932411
0.977451
0.885766
0.991313
0.999137
0.999562
0.999429
0.998974
0.998444
0.991083
0.95062
0.999866
0.518788
0.518788
0.518788
0.518788
0.518788
0.518788
0.518788
0.518788
0.518788
0.518788
0.518788
0.518788
0.518788
0.518788
0.518788
0.518788
0.518788
0.518788
0.518788
0.518788
0.518788
0.518788
0.518788
0.518788
0.518788
0.518788
0.518788
0.518788
0.518788
0.518788
0.518788
0.518788
0.518788
0.518788
0.518788
0.518788
0.518788
0.518788
0.518788
0.518788
0.518788
0.518788
0.518788
0.518788
0.518788
0.518788
0.518788
0.518788
0.518788
0.518788
0.518788
0.518788
0.518788
0.518788
0.518788
0.518788
0.518786
0.518782
0.510518
0.591931
0.184329
0.999988
0.999993
0.999291
0.998534
0.99675
0.99787
0.996086
0.994829
0.986846
0.993084
0.994515
0.993094
0.994345
0.766872
0.990806
0.992773
0.986804
0.86893
0.963809
0.987122
0.988956
0.978312
0.965109
0.97664
0.936076
0.993209
0.997187
0.998913
0.999341
0.999091
0.999009
0.998971
0.998194
0.991458
0.999866
0.518788
0.518788
0.518788
0.518788
0.518788
0.518788
0.518788
0.518788
0.518788
0.518788
0.518788
0.518788
0.518788
0.518788
0.518788
0.518788
0.518788
0.518788
0.518788
0.518788
0.518788
0.518788
0.518788
0.518788
0.518788
0.518788
0.518788
0.518788
0.518788
0.518788
0.518788
0.518788
0.518788
0.518788
0.518788
0.518788
0.518788
0.518788
0.518788
0.518788
0.518788
0.518788
0.518788
0.518788
0.518788
0.518788
0.518788
0.518788
0.518788
0.518788
0.518788
0.518788
0.518788
0.518788
0.518788
0.518788
0.518787
0.51878
0.51381
0.458903
0.328009
0.999944
0.999905
0.999642
0.9979
0.999365
0.99906
0.997655
0.999232
0.999198
0.999592
0.997177
0.999331
0.999351
0.999354
0.998621
0.995752
0.99283
0.997826
0.997231
0.355446
0.99731
0.960397
0.962978
0.9742
0.987153
0.982318
0.997764
0.99876
0.998874
0.998501
0.998891
0.999134
0.999244
0.998496
0.999864
0.518788
0.518788
0.518788
0.518788
0.518788
0.518788
0.518788
0.518788
0.518788
0.518788
0.518788
0.518788
0.518788
0.518788
0.518788
0.518788
0.518788
0.518788
0.518788
0.518788
0.518788
0.518788
0.518788
0.518788
0.518788
0.518788
0.518788
0.518788
0.518788
0.518788
0.518788
0.518788
0.518788
0.518788
0.518788
0.518788
0.518788
0.518788
0.518788
0.518788
0.518788
0.518788
0.518788
0.518788
0.518788
0.518788
0.518788
0.518788
0.518788
0.518788
0.518788
0.518788
0.518788
0.518788
0.518788
0.518788
0.518786
0.518792
0.518668
0.512542
0.85853
0.997271
0.998257
0.997419
0.99965
0.999487
0.98062
0.998807
0.998122
0.989929
0.997457
0.954821
0.999117
0.999707
0.999836
0.949216
0.999883
0.999696
0.999889
0.999978
0.999982
0.999985
0.999981
0.999141
0.999458
0.999357
0.999482
0.998204
0.996897
0.997298
0.997946
0.998678
0.999092
0.999313
0.998722
0.999863
0.518788
0.518788
0.518788
0.518788
0.518788
0.518788
0.518788
0.518788
0.518788
0.518788
0.518788
0.518788
0.518788
0.518788
0.518788
0.518788
0.518788
0.518788
0.518788
0.518788
0.518788
0.518788
0.518788
0.518788
0.518788
0.518788
0.518788
0.518788
0.518788
0.518788
0.518788
0.518788
0.518788
0.518788
0.518788
0.518788
0.518788
0.518788
0.518788
0.518788
0.518788
0.518788
0.518788
0.518788
0.518788
0.518788
0.518788
0.518788
0.518788
0.518788
0.518788
0.518788
0.518788
0.518788
0.518788
0.518788
0.518788
0.518787
0.518773
0.482667
0.833179
0.400799
0.929737
0.938978
0.97974
0.238159
0.916327
0.821141
0.961318
0.943573
0.968628
0.830208
0.969868
8.21992e-15
0.00330691
0.145694
0.127447
0.016162
0.130198
3.04131e-05
0.913265
0.99087
0.0176621
0.999171
0.0636904
0.000100331
0.999986
0.999994
0.999706
0.99978
0.999799
0.999833
0.99983
0.999828
0.986107
0.999862
0.518788
0.518788
0.518788
0.518788
0.518788
0.518788
0.518788
0.518788
0.518788
0.518788
0.518788
0.518788
0.518788
0.518788
0.518788
0.518788
0.518788
0.518788
0.518788
0.518788
0.518788
0.518788
0.518788
0.518788
0.518788
0.518788
0.518788
0.518788
0.518788
0.518788
0.518788
0.518788
0.518788
0.518788
0.518788
0.518788
0.518788
0.518788
0.518788
0.518788
0.518788
0.518788
0.518788
0.518788
0.518788
0.518788
0.518788
0.518788
0.518788
0.518788
0.518788
0.518788
0.518788
0.518788
0.518788
0.518788
0.518788
0.518766
0.520073
0.430576
0.908035
0.105404
0.130078
0.0581993
0.408352
0.304533
3.36513e-05
0.187667
0.000565662
0.0950138
0.00151897
0.0381631
0.217738
0.000435541
0.183563
0.0735844
0.0768331
0.102365
0.547614
0.818922
0.143824
0.000295495
0.0409545
0.13988
2.85964e-07
0.145582
9.82994e-05
1.34735e-06
0.996321
6.84919e-09
0.999037
0.996331
0.999342
0.999971
0.999993
0.999947
0.518788
0.518788
0.518788
0.518788
0.518788
0.518788
0.518788
0.518788
0.518788
0.518788
0.518788
0.518788
0.518788
0.518788
0.518788
0.518788
0.518788
0.518788
0.518788
0.518788
0.518788
0.518788
0.518788
0.518788
0.518788
0.518788
0.518788
0.518788
0.518788
0.518788
0.518788
0.518788
0.518788
0.518788
0.518788
0.518788
0.518788
0.518788
0.518788
0.518788
0.518788
0.518788
0.518788
0.518788
0.518788
0.518788
0.518788
0.518788
0.518788
0.518788
0.518788
0.518788
0.518788
0.518788
0.518788
0.518788
0.51879
0.518881
0.517195
0.469419
0.76882
0.0397116
0.00015166
0.505551
0.0418246
0.109289
0.313317
0.00767914
0.0934321
9.2325e-10
0.024018
0.328423
0.359506
0.641579
0.0932296
0.504074
0.207572
1.29115e-08
0.00799804
0.0007405
0.146447
0.146446
0.855962
0.74174
0.15749
0.000421517
0.648152
9.87608e-07
0.0662109
0.00117684
0.750819
0.96911
0.998403
0.533246
3.79982e-05
0.982975
0.518788
0.518788
0.518788
0.518788
0.518788
0.518788
0.518788
0.518788
0.518788
0.518788
0.518788
0.518788
0.518788
0.518788
0.518788
0.518788
0.518788
0.518788
0.518788
0.518788
0.518788
0.518788
0.518788
0.518788
0.518788
0.518788
0.518788
0.518788
0.518788
0.518788
0.518788
0.518788
0.518788
0.518788
0.518788
0.518788
0.518788
0.518788
0.518788
0.518788
0.518788
0.518788
0.518788
0.518788
0.518788
0.518788
0.518788
0.518788
0.518788
0.518788
0.518788
0.518788
0.518788
0.518788
0.518788
0.518789
0.518711
0.51891
0.488011
0.466254
0.00600524
0.146132
0.00110646
0.000105642
0.384794
0.655458
0.387153
0.0463589
0.115498
0.000484461
0.0284739
0.718079
0.0137515
0.000900956
0.0741117
0.945248
0.000151419
0.115542
2.50563e-06
0.738996
0.124949
0.0174449
0.536122
0.0306573
0.888956
0.880612
0.835456
0.776899
0.802302
0.848447
0.881244
0.954086
0.962522
0.894256
0.963008
0.999762
0.518788
0.518788
0.518788
0.518788
0.518788
0.518788
0.518788
0.518788
0.518788
0.518788
0.518788
0.518788
0.518788
0.518788
0.518788
0.518788
0.518788
0.518788
0.518788
0.518788
0.518788
0.518788
0.518788
0.518788
0.518788
0.518788
0.518788
0.518788
0.518788
0.518788
0.518788
0.518788
0.518788
0.518788
0.518788
0.518788
0.518788
0.518788
0.518788
0.518788
0.518788
0.518788
0.518788
0.518788
0.518788
0.518788
0.518788
0.518788
0.518788
0.518788
0.518788
0.518788
0.518788
0.518788
0.518788
0.518788
0.518784
0.518861
0.518498
0.44082
0.966897
3.43057e-05
0.0383881
0.870871
0.950324
0.922703
0.872189
0.776828
0.0798033
0.000193575
0.980366
0.995916
0.999264
0.999944
0.999993
0.999993
0.999757
1.33082e-07
0.999813
0.999774
9.11974e-08
0.990882
5.50016e-06
0.998821
0.000516769
0.999455
0.999585
5.84046e-10
7.60125e-08
0.999848
0.999792
0.99967
0.999898
0.99985
0.998397
0.999894
0.518788
0.518788
0.518788
0.518788
0.518788
0.518788
0.518788
0.518788
0.518788
0.518788
0.518788
0.518788
0.518788
0.518788
0.518788
0.518788
0.518788
0.518788
0.518788
0.518788
0.518788
0.518788
0.518788
0.518788
0.518788
0.518788
0.518788
0.518788
0.518788
0.518788
0.518788
0.518788
0.518788
0.518788
0.518788
0.518788
0.518788
0.518788
0.518788
0.518788
0.518788
0.518788
0.518788
0.518788
0.518788
0.518788
0.518788
0.518788
0.518788
0.518788
0.518788
0.518788
0.518788
0.518788
0.518788
0.518788
0.518787
0.522332
0.379378
0.427656
0.94359
0.99561
0.998318
0.999447
0.999032
0.998598
0.999987
0.99999
0.992623
0.997903
0.997814
0.998674
0.989136
0.986432
0.993525
0.995366
0.993741
0.996286
0.996984
0.997571
0.998004
0.998137
0.997485
0.990684
0.998293
0.993642
0.997169
0.998125
0.998519
0.998862
0.998628
0.997112
0.996895
0.997746
0.991369
0.999862
0.518788
0.518788
0.518788
0.518788
0.518788
0.518788
0.518788
0.518788
0.518788
0.518788
0.518788
0.518788
0.518788
0.518788
0.518788
0.518788
0.518788
0.518788
0.518788
0.518788
0.518788
0.518788
0.518788
0.518788
0.518788
0.518788
0.518788
0.518788
0.518788
0.518788
0.518788
0.518788
0.518788
0.518788
0.518788
0.518788
0.518788
0.518788
0.518788
0.518788
0.518788
0.518788
0.518788
0.518788
0.518788
0.518788
0.518788
0.518788
0.518788
0.518788
0.518788
0.518788
0.518788
0.518788
0.518788
0.518788
0.518788
0.518736
0.522004
0.563048
0.54904
0.999996
0.99975
0.999086
0.999198
0.99958
0.999575
0.995986
0.994315
0.996178
0.995634
0.994108
0.989857
0.987374
0.981718
0.986648
0.978444
0.987015
0.993158
0.995686
0.996876
0.997633
0.998332
0.998344
0.990321
0.999162
0.995648
0.998843
0.998688
0.998883
0.998774
0.997786
0.995733
0.98389
0.990069
0.999868
0.518788
0.518788
0.518788
0.518788
0.518788
0.518788
0.518788
0.518788
0.518788
0.518788
0.518788
0.518788
0.518788
0.518788
0.518788
0.518788
0.518788
0.518788
0.518788
0.518788
0.518788
0.518788
0.518788
0.518788
0.518788
0.518788
0.518788
0.518788
0.518788
0.518788
0.518788
0.518788
0.518788
0.518788
0.518788
0.518788
0.518788
0.518788
0.518788
0.518788
0.518788
0.518788
0.518788
0.518788
0.518788
0.518788
0.518788
0.518788
0.518788
0.518788
0.518788
0.518788
0.518788
0.518788
0.518788
0.518788
0.518786
0.518786
0.518679
0.442645
0.681445
0.999995
0.974195
0.99839
0.998939
0.999004
0.997796
0.998051
0.995204
0.992067
0.980284
0.969115
0.636215
0.822788
0.916832
0.964294
0.929318
0.984147
0.990798
0.994016
0.993179
0.981116
0.987014
0.967262
0.995318
0.998651
0.999018
0.998354
0.999279
0.998675
0.998662
0.996701
0.987645
0.98813
0.977002
0.999865
0.518788
0.518788
0.518788
0.518788
0.518788
0.518788
0.518788
0.518788
0.518788
0.518788
0.518788
0.518788
0.518788
0.518788
0.518788
0.518788
0.518788
0.518788
0.518788
0.518788
0.518788
0.518788
0.518788
0.518788
0.518788
0.518788
0.518788
0.518788
0.518788
0.518788
0.518788
0.518788
0.518788
0.518788
0.518788
0.518788
0.518788
0.518788
0.518788
0.518788
0.518788
0.518788
0.518788
0.518788
0.518788
0.518788
0.518788
0.518788
0.518788
0.518788
0.518788
0.518788
0.518788
0.518788
0.518788
0.518788
0.518785
0.518785
0.518712
0.444862
0.759802
0.999989
0.999994
0.999627
0.999273
0.998318
0.99851
0.994076
0.94917
0.980063
0.980351
0.991806
0.993645
0.994543
0.995279
0.995791
0.995056
0.99586
0.995319
0.995889
0.994507
0.992351
0.985505
0.995313
0.997846
0.997888
0.999398
0.99691
0.999444
0.998913
0.99828
0.997141
0.974257
0.99128
0.997298
0.999862
0.518788
0.518788
0.518788
0.518788
0.518788
0.518788
0.518788
0.518788
0.518788
0.518788
0.518788
0.518788
0.518788
0.518788
0.518788
0.518788
0.518788
0.518788
0.518788
0.518788
0.518788
0.518788
0.518788
0.518788
0.518788
0.518788
0.518788
0.518788
0.518788
0.518788
0.518788
0.518788
0.518788
0.518788
0.518788
0.518788
0.518788
0.518788
0.518788
0.518788
0.518788
0.518788
0.518788
0.518788
0.518788
0.518788
0.518788
0.518788
0.518788
0.518788
0.518788
0.518788
0.518788
0.518788
0.518788
0.518788
0.518784
0.518784
0.515631
0.399039
0.891221
0.999369
0.999996
0.999677
0.999581
0.998124
0.996301
0.992207
0.996968
0.995761
0.989003
0.953036
0.955938
0.956882
0.920909
0.956742
0.976166
0.969716
0.981607
0.956043
0.994539
0.995589
0.997828
0.99763
0.989928
0.99866
0.999392
0.993344
0.999479
0.999078
0.997248
0.995215
0.99449
0.997827
0.995064
0.999866
0.518788
0.518788
0.518788
0.518788
0.518788
0.518788
0.518788
0.518788
0.518788
0.518788
0.518788
0.518788
0.518788
0.518788
0.518788
0.518788
0.518788
0.518788
0.518788
0.518788
0.518788
0.518788
0.518788
0.518788
0.518788
0.518788
0.518788
0.518788
0.518788
0.518788
0.518788
0.518788
0.518788
0.518788
0.518788
0.518788
0.518788
0.518788
0.518788
0.518788
0.518788
0.518788
0.518788
0.518788
0.518788
0.518788
0.518788
0.518788
0.518788
0.518788
0.518788
0.518788
0.518788
0.518788
0.518788
0.518788
0.518784
0.518606
0.486396
0.469696
0.808659
0.100566
0.999992
0.999733
0.998494
0.987696
0.99389
0.997804
0.997518
0.997082
0.99668
0.997148
0.99663
0.995932
0.994949
0.992882
0.993278
0.982442
0.986192
0.955688
0.981135
0.934384
0.995065
0.946181
0.995543
0.998804
0.999415
0.997515
0.99954
0.998744
0.996354
0.926301
0.994529
0.995515
0.993581
0.99986
0.518788
0.518788
0.518788
0.518788
0.518788
0.518788
0.518788
0.518788
0.518788
0.518788
0.518788
0.518788
0.518788
0.518788
0.518788
0.518788
0.518788
0.518788
0.518788
0.518788
0.518788
0.518788
0.518788
0.518788
0.518788
0.518788
0.518788
0.518788
0.518788
0.518788
0.518788
0.518788
0.518788
0.518788
0.518788
0.518788
0.518788
0.518788
0.518788
0.518788
0.518788
0.518788
0.518788
0.518788
0.518788
0.518788
0.518788
0.518788
0.518788
0.518788
0.518788
0.518788
0.518788
0.518788
0.518788
0.518788
0.518786
0.516518
0.465984
0.481856
0.779483
0.989767
0.99999
0.999992
0.998234
0.992607
0.994597
0.990703
0.724946
0.957514
0.965615
0.937493
0.845878
0.898245
0.94653
0.955014
0.978541
0.000305332
0.14469
0.980784
0.956855
0.966504
0.921007
0.48891
0.942907
0.967515
0.983941
0.98048
0.997639
0.999209
0.999496
0.999243
0.998698
0.998064
0.992968
0.999868
0.518788
0.518788
0.518788
0.518788
0.518788
0.518788
0.518788
0.518788
0.518788
0.518788
0.518788
0.518788
0.518788
0.518788
0.518788
0.518788
0.518788
0.518788
0.518788
0.518788
0.518788
0.518788
0.518788
0.518788
0.518788
0.518788
0.518788
0.518788
0.518788
0.518788
0.518788
0.518788
0.518788
0.518788
0.518788
0.518788
0.518788
0.518788
0.518788
0.518788
0.518788
0.518788
0.518788
0.518788
0.518788
0.518788
0.518788
0.518788
0.518788
0.518788
0.518788
0.518788
0.518788
0.518788
0.518788
0.518788
0.518785
0.518735
0.518955
0.47719
0.80075
0.998839
0.999993
0.999353
0.998926
0.99833
0.994446
0.994908
0.995067
0.991228
0.977271
0.995541
0.994968
0.935939
0.988581
0.982416
0.925632
0.955333
0.0020561
0.979186
0.98058
0.967372
0.961128
0.835859
0.971254
0.965038
0.812453
0.982175
0.995399
0.999086
0.999308
0.99867
0.999116
0.999521
0.999142
0.999871
0.518788
0.518788
0.518788
0.518788
0.518788
0.518788
0.518788
0.518788
0.518788
0.518788
0.518788
0.518788
0.518788
0.518788
0.518788
0.518788
0.518788
0.518788
0.518788
0.518788
0.518788
0.518788
0.518788
0.518788
0.518788
0.518788
0.518788
0.518788
0.518788
0.518788
0.518788
0.518788
0.518788
0.518788
0.518788
0.518788
0.518788
0.518788
0.518788
0.518788
0.518788
0.518788
0.518788
0.518788
0.518788
0.518788
0.518788
0.518788
0.518788
0.518788
0.518788
0.518788
0.518788
0.518788
0.518788
0.518787
0.518787
0.518783
0.543975
0.437416
0.559544
0.99999
0.999237
0.99871
0.999029
0.978301
0.995214
0.993405
0.994188
0.951716
0.992373
0.99895
0.909755
0.91858
0.988275
0.994563
0.995215
0.991782
0.950288
0.983954
0.988436
0.984083
0.941788
0.966502
0.970546
0.985258
0.993802
0.9957
0.997759
0.998465
0.998411
0.997497
0.998408
0.999524
0.999614
0.999871
0.518788
0.518788
0.518788
0.518788
0.518788
0.518788
0.518788
0.518788
0.518788
0.518788
0.518788
0.518788
0.518788
0.518788
0.518788
0.518788
0.518788
0.518788
0.518788
0.518788
0.518788
0.518788
0.518788
0.518788
0.518788
0.518788
0.518788
0.518788
0.518788
0.518788
0.518788
0.518788
0.518788
0.518788
0.518788
0.518788
0.518788
0.518788
0.518788
0.518788
0.518788
0.518788
0.518788
0.518788
0.518788
0.518788
0.518788
0.518788
0.518788
0.518788
0.518788
0.518788
0.518788
0.518788
0.518788
0.518788
0.518787
0.518791
0.518582
0.494216
0.308813
0.999896
0.999446
0.99999
0.999391
0.999423
0.998407
0.999401
0.99954
0.999986
0.999988
0.99998
0.999989
0.999398
0.999362
0.999159
0.998886
0.997252
0.980162
0.998016
0.998516
0.998293
0.977067
0.995876
0.957821
0.937803
0.977816
0.977215
0.997277
0.997505
0.985587
0.971749
0.998399
0.999551
0.999707
0.999881
0.518788
0.518788
0.518788
0.518788
0.518788
0.518788
0.518788
0.518788
0.518788
0.518788
0.518788
0.518788
0.518788
0.518788
0.518788
0.518788
0.518788
0.518788
0.518788
0.518788
0.518788
0.518788
0.518788
0.518788
0.518788
0.518788
0.518788
0.518788
0.518788
0.518788
0.518788
0.518788
0.518788
0.518788
0.518788
0.518788
0.518788
0.518788
0.518788
0.518788
0.518788
0.518788
0.518788
0.518788
0.518788
0.518788
0.518788
0.518788
0.518788
0.518788
0.518788
0.518788
0.518788
0.518788
0.518788
0.518788
0.518787
0.518778
0.518635
0.450252
0.871901
0.984532
0.97564
0.954663
0.99223
0.872875
0.976211
0.984739
0.964415
0.0564426
7.7516e-05
0.639078
0.984414
0.977787
0.874274
0.983633
0.976766
0.980674
0.980197
0.99962
0.999935
0.999989
0.999989
0.999329
0.999973
0.999149
0.99817
0.99748
0.994206
0.996381
0.728715
0.9894
0.998817
0.999537
0.999679
0.999881
0.518788
0.518788
0.518788
0.518788
0.518788
0.518788
0.518788
0.518788
0.518788
0.518788
0.518788
0.518788
0.518788
0.518788
0.518788
0.518788
0.518788
0.518788
0.518788
0.518788
0.518788
0.518788
0.518788
0.518788
0.518788
0.518788
0.518788
0.518788
0.518788
0.518788
0.518788
0.518788
0.518788
0.518788
0.518788
0.518788
0.518788
0.518788
0.518788
0.518788
0.518788
0.518788
0.518788
0.518788
0.518788
0.518788
0.518788
0.518788
0.518788
0.518788
0.518788
0.518788
0.518788
0.518788
0.518788
0.518788
0.51879
0.518797
0.518919
0.400145
5.20262e-05
0.00530216
0.139923
0.000178832
1.04447e-09
0.167143
0.779636
0.886926
0.881767
5.63012e-06
0.58355
0.232068
0.00223303
1.70925e-05
0.512995
0.0104494
0.0164291
1.07799e-05
0.0617895
0.328598
0.000227792
0.946828
0.00225368
0.904378
0.0836493
0.99822
0.999884
8.50983e-10
0.999422
0.999968
0.99705
0.999051
0.999576
0.999808
0.999933
0.999957
0.518788
0.518788
0.518788
0.518788
0.518788
0.518788
0.518788
0.518788
0.518788
0.518788
0.518788
0.518788
0.518788
0.518788
0.518788
0.518788
0.518788
0.518788
0.518788
0.518788
0.518788
0.518788
0.518788
0.518788
0.518788
0.518788
0.518788
0.518788
0.518788
0.518788
0.518788
0.518788
0.518788
0.518788
0.518788
0.518788
0.518788
0.518788
0.518788
0.518788
0.518788
0.518788
0.518788
0.518788
0.518788
0.518788
0.518788
0.518788
0.518788
0.518788
0.518788
0.518788
0.518788
0.518788
0.518787
0.518788
0.518787
0.518764
0.516427
0.374341
0.886404
0.436738
0.0432605
0.431482
0.482731
0.185067
0.568064
0.0353506
0.455281
0.00266067
0.425789
0.577883
0.423409
0.185373
0.829942
0.484644
0.560881
0.486593
0.541253
0.378674
0.088414
0.00133715
0.99732
2.31326e-05
0.00757173
0.00026314
0.00623459
9.02053e-06
0.679076
0.706338
0.983366
0.797451
0.0666065
1.08055e-10
0.97004
0.999987
0.518788
0.518788
0.518788
0.518788
0.518788
0.518788
0.518788
0.518788
0.518788
0.518788
0.518788
0.518788
0.518788
0.518788
0.518788
0.518788
0.518788
0.518788
0.518788
0.518788
0.518788
0.518788
0.518788
0.518788
0.518788
0.518788
0.518788
0.518788
0.518788
0.518788
0.518788
0.518788
0.518788
0.518788
0.518788
0.518788
0.518788
0.518788
0.518788
0.518788
0.518788
0.518788
0.518788
0.518788
0.518788
0.518788
0.518788
0.518788
0.518788
0.518788
0.518788
0.518788
0.518788
0.518788
0.518788
0.518787
0.518788
0.518687
0.516087
0.383966
0.765731
4.51838e-06
0.158014
0.344422
0.4735
0.491484
0.754427
0.0996896
0.358671
0.000608205
0.298099
0.666712
0.467786
0.639926
0.547466
0.616322
0.15625
0.795502
0.614873
0.481789
0.555483
0.042076
0.454595
0.610782
0.481465
0.639009
0.547256
0.142692
0.536058
0.583198
0.563917
0.664642
0.792777
0.000769644
3.71156e-06
1.45793e-06
0.518788
0.518788
0.518788
0.518788
0.518788
0.518788
0.518788
0.518788
0.518788
0.518788
0.518788
0.518788
0.518788
0.518788
0.518788
0.518788
0.518788
0.518788
0.518788
0.518788
0.518788
0.518788
0.518788
0.518788
0.518788
0.518788
0.518788
0.518788
0.518788
0.518788
0.518788
0.518788
0.518788
0.518788
0.518788
0.518788
0.518788
0.518788
0.518788
0.518788
0.518788
0.518788
0.518788
0.518788
0.518788
0.518788
0.518788
0.518788
0.518788
0.518788
0.518788
0.518788
0.518788
0.518788
0.518788
0.518788
0.518788
0.518929
0.525572
0.442698
0.697133
0.000577331
0.0401283
0.634252
0.00134966
0.698946
0.578501
0.045046
0.0202099
0.843756
0.009313
0.437326
0.301228
0.666642
0.0220242
0.029827
0.686953
0.00048377
0.0630835
0.465713
0.460066
0.748851
0.000980476
0.740473
0.414234
0.246857
0.649385
0.657717
0.53248
0.390159
0.461209
0.469902
0.468178
0.420216
0.738024
0.00570454
0.518788
0.518788
0.518788
0.518788
0.518788
0.518788
0.518788
0.518788
0.518788
0.518788
0.518788
0.518788
0.518788
0.518788
0.518788
0.518788
0.518788
0.518788
0.518788
0.518788
0.518788
0.518788
0.518788
0.518788
0.518788
0.518788
0.518788
0.518788
0.518788
0.518788
0.518788
0.518788
0.518788
0.518788
0.518788
0.518788
0.518788
0.518788
0.518788
0.518788
0.518788
0.518788
0.518788
0.518788
0.518788
0.518788
0.518788
0.518788
0.518788
0.518788
0.518788
0.518788
0.518788
0.518788
0.518788
0.518788
0.518788
0.518788
0.518922
0.437855
0.980178
2.51752e-08
0.942418
0.93414
0.966144
0.970538
0.974848
0.0511844
9.50164e-07
0.996071
0.976297
0.992351
0.995343
0.99316
0.989554
0.989559
0.98824
0.989453
0.996733
0.997564
0.996211
0.979627
0.965373
0.981995
0.981243
0.994135
0.991983
0.990351
0.983413
0.980371
0.978096
0.99767
0.999774
0.999969
0.999994
0.999926
0.518788
0.518788
0.518788
0.518788
0.518788
0.518788
0.518788
0.518788
0.518788
0.518788
0.518788
0.518788
0.518788
0.518788
0.518788
0.518788
0.518788
0.518788
0.518788
0.518788
0.518788
0.518788
0.518788
0.518788
0.518788
0.518788
0.518788
0.518788
0.518788
0.518788
0.518788
0.518788
0.518788
0.518788
0.518788
0.518788
0.518788
0.518788
0.518788
0.518788
0.518788
0.518788
0.518788
0.518788
0.518788
0.518788
0.518788
0.518788
0.518788
0.518788
0.518788
0.518788
0.518788
0.518788
0.518788
0.518788
0.518786
0.518752
0.540296
0.404309
0.650936
0.999985
0.997209
0.999945
0.995585
0.999986
0.999143
0.999665
0.999126
0.999492
0.999464
0.999506
0.999434
0.999426
0.999445
0.999461
0.99949
0.999548
0.999638
0.999689
0.999658
0.999231
0.97842
0.999187
0.999607
0.999637
0.999521
0.999464
0.999577
0.999579
0.99969
0.999774
0.999827
0.999814
0.998306
0.999855
0.518788
0.518788
0.518788
0.518788
0.518788
0.518788
0.518788
0.518788
0.518788
0.518788
0.518788
0.518788
0.518788
0.518788
0.518788
0.518788
0.518788
0.518788
0.518788
0.518788
0.518788
0.518788
0.518788
0.518788
0.518788
0.518788
0.518788
0.518788
0.518788
0.518788
0.518788
0.518788
0.518788
0.518788
0.518788
0.518788
0.518788
0.518788
0.518788
0.518788
0.518788
0.518788
0.518788
0.518788
0.518788
0.518788
0.518788
0.518788
0.518788
0.518788
0.518788
0.518788
0.518788
0.518788
0.518788
0.518788
0.518787
0.518789
0.527356
0.460614
0.231774
7.27502e-08
0.9995
0.999556
0.999142
0.996621
0.984017
0.993319
0.982127
0.988552
0.992339
0.992363
0.990359
0.988901
0.989215
0.991444
0.99121
0.991259
0.993411
0.996681
0.998338
0.998415
0.997533
0.994139
0.982959
0.99856
0.998946
0.9706
0.988824
0.999
0.999503
0.999201
0.997917
0.997769
0.993269
0.999864
0.518788
0.518788
0.518788
0.518788
0.518788
0.518788
0.518788
0.518788
0.518788
0.518788
0.518788
0.518788
0.518788
0.518788
0.518788
0.518788
0.518788
0.518788
0.518788
0.518788
0.518788
0.518788
0.518788
0.518788
0.518788
0.518788
0.518788
0.518788
0.518788
0.518788
0.518788
0.518788
0.518788
0.518788
0.518788
0.518788
0.518788
0.518788
0.518788
0.518788
0.518788
0.518788
0.518788
0.518788
0.518788
0.518788
0.518788
0.518788
0.518788
0.518788
0.518788
0.518788
0.518788
0.518788
0.518788
0.518788
0.518786
0.518785
0.518475
0.431451
0.625824
0.999212
0.999268
0.998347
0.99664
0.997992
0.997569
0.996833
0.996486
0.997209
0.997377
0.997132
0.996734
0.996818
0.996956
0.997175
0.997213
0.99695
0.997167
0.99713
0.997661
0.995425
0.985063
0.981062
0.996535
0.998552
0.998913
0.996629
0.997304
0.998898
0.999563
0.99927
0.994581
0.527408
0.995551
0.999868
0.518788
0.518788
0.518788
0.518788
0.518788
0.518788
0.518788
0.518788
0.518788
0.518788
0.518788
0.518788
0.518788
0.518788
0.518788
0.518788
0.518788
0.518788
0.518788
0.518788
0.518788
0.518788
0.518788
0.518788
0.518788
0.518788
0.518788
0.518788
0.518788
0.518788
0.518788
0.518788
0.518788
0.518788
0.518788
0.518788
0.518788
0.518788
0.518788
0.518788
0.518788
0.518788
0.518788
0.518788
0.518788
0.518788
0.518788
0.518788
0.518788
0.518788
0.518788
0.518788
0.518788
0.518788
0.518788
0.518788
0.518785
0.518769
0.517226
0.466718
0.523332
0.999967
0.999514
0.999626
0.999182
0.996961
0.996965
0.988478
0.994057
0.99422
0.995485
0.996734
0.997171
0.997369
0.997481
0.997445
0.997416
0.996984
0.997415
0.997657
0.998273
0.99803
0.995306
0.991302
0.997224
0.997243
0.999101
0.997488
0.998515
0.999295
0.999429
0.998892
0.995985
0.864505
0.967598
0.99987
0.518788
0.518788
0.518788
0.518788
0.518788
0.518788
0.518788
0.518788
0.518788
0.518788
0.518788
0.518788
0.518788
0.518788
0.518788
0.518788
0.518788
0.518788
0.518788
0.518788
0.518788
0.518788
0.518788
0.518788
0.518788
0.518788
0.518788
0.518788
0.518788
0.518788
0.518788
0.518788
0.518788
0.518788
0.518788
0.518788
0.518788
0.518788
0.518788
0.518788
0.518788
0.518788
0.518788
0.518788
0.518788
0.518788
0.518788
0.518788
0.518788
0.518788
0.518788
0.518788
0.518788
0.518788
0.518788
0.518788
0.518784
0.518273
0.483013
0.612581
0.41672
0.998591
0.999996
0.99969
0.999505
0.999304
0.99815
0.998495
0.998674
0.998477
0.998003
0.997794
0.997602
0.99732
0.996955
0.996196
0.995511
0.994447
0.994561
0.991728
0.976295
0.995929
0.99856
0.998841
0.997169
0.998898
0.999351
0.997888
0.998721
0.999526
0.999479
0.998711
0.99822
0.998606
0.997721
0.999875
0.518788
0.518788
0.518788
0.518788
0.518788
0.518788
0.518788
0.518788
0.518788
0.518788
0.518788
0.518788
0.518788
0.518788
0.518788
0.518788
0.518788
0.518788
0.518788
0.518788
0.518788
0.518788
0.518788
0.518788
0.518788
0.518788
0.518788
0.518788
0.518788
0.518788
0.518788
0.518788
0.518788
0.518788
0.518788
0.518788
0.518788
0.518788
0.518788
0.518788
0.518788
0.518788
0.518788
0.518788
0.518788
0.518788
0.518788
0.518788
0.518788
0.518788
0.518788
0.518788
0.518788
0.518788
0.518788
0.518788
0.518785
0.518545
0.508391
0.409404
0.818852
0.952302
0.99999
0.999997
0.998433
0.996293
0.998162
0.997672
0.997132
0.996478
0.995292
0.993593
0.994374
0.993104
0.992605
0.981014
0.986208
0.968703
0.98825
0.989151
0.991755
0.992709
0.993967
0.993139
0.995108
0.998081
0.999309
0.998066
0.999102
0.999419
0.998782
0.998266
0.99604
0.997608
0.986791
0.999868
0.518788
0.518788
0.518788
0.518788
0.518788
0.518788
0.518788
0.518788
0.518788
0.518788
0.518788
0.518788
0.518788
0.518788
0.518788
0.518788
0.518788
0.518788
0.518788
0.518788
0.518788
0.518788
0.518788
0.518788
0.518788
0.518788
0.518788
0.518788
0.518788
0.518788
0.518788
0.518788
0.518788
0.518788
0.518788
0.518788
0.518788
0.518788
0.518788
0.518788
0.518788
0.518788
0.518788
0.518788
0.518788
0.518788
0.518788
0.518788
0.518788
0.518788
0.518788
0.518788
0.518788
0.518788
0.518788
0.518788
0.518785
0.518777
0.518741
0.36927
0.810326
0.993865
0.999989
0.999992
0.998582
0.989899
0.957224
0.947617
0.986264
0.986253
0.977727
0.970693
0.96953
0.948722
0.918433
0.961433
0.971216
0.957135
0.926622
0.974221
0.968565
0.965582
0.887287
0.61477
0.849373
0.723078
0.964196
0.989862
0.992979
0.998123
0.998665
0.997374
0.999125
0.999654
0.99935
0.999866
0.518788
0.518788
0.518788
0.518788
0.518788
0.518788
0.518788
0.518788
0.518788
0.518788
0.518788
0.518788
0.518788
0.518788
0.518788
0.518788
0.518788
0.518788
0.518788
0.518788
0.518788
0.518788
0.518788
0.518788
0.518788
0.518788
0.518788
0.518788
0.518788
0.518788
0.518788
0.518788
0.518788
0.518788
0.518788
0.518788
0.518788
0.518788
0.518788
0.518788
0.518788
0.518788
0.518788
0.518788
0.518788
0.518788
0.518788
0.518788
0.518788
0.518788
0.518788
0.518788
0.518788
0.518788
0.518788
0.518788
0.518785
0.518782
0.514659