/*--------------------------------*- C++ -*----------------------------------*\
| =========                 |                                                 |
| \\      /  F ield         | OpenFOAM: The Open Source CFD Toolbox           |
|  \\    /   O peration     | Version:  2.3.0                                 |
|   \\  /    A nd           | Web:      www.OpenFOAM.org                      |
|    \\/     M anipulation  |                                                 |
\*---------------------------------------------------------------------------*/
FoamFile
{
    version     2.0;
    format      ascii;
    class       volScalarField;
    location    "10";
    object      w2;
}
// * * * * * * * * * * * * * * * * * * * * * * * * * * * * * * * * * * * * * //

dimensions      [0 0 0 0 0 0 0];

internalField   nonuniform List<scalar> 
6144
(
0.452838
0.452838
0.452838
0.452838
0.452838
0.452838
0.452838
0.452838
0.452838
0.452838
0.452838
0.452838
0.452838
0.452838
0.452838
0.452838
0.452838
0.452838
0.452838
0.452838
0.452838
0.452838
0.452838
0.452838
0.452838
0.452838
0.452838
0.452838
0.452838
0.452838
0.452838
0.452838
0.452838
0.452838
0.452838
0.452838
0.452838
0.452838
0.452838
0.452838
0.452838
0.452838
0.452838
0.452838
0.452838
0.452838
0.452838
0.452838
0.452838
0.452838
0.452838
0.452838
0.452838
0.452838
0.452839
0.452838
0.452842
0.453081
0.482404
0.46993
0.191695
0.00175315
7.17109e-06
0.00091162
0.00275944
0.0161806
0.160144
0.00663189
0.00655013
0.010204
0.0130922
0.0204662
0.03309
0.208181
0.876564
0.0181051
0.0103002
0.0124723
0.863377
0.035023
0.0313322
0.139678
0.071488
0.0499671
0.219915
0.0698429
0.0553375
0.00366034
0.000651043
0.000317552
0.000518968
0.00129634
0.0697855
0.00437804
0.00389539
0.000128249
0.452838
0.452838
0.452838
0.452838
0.452838
0.452838
0.452838
0.452838
0.452838
0.452838
0.452838
0.452838
0.452838
0.452838
0.452838
0.452838
0.452838
0.452838
0.452838
0.452838
0.452838
0.452838
0.452838
0.452838
0.452838
0.452838
0.452838
0.452838
0.452838
0.452838
0.452838
0.452838
0.452838
0.452838
0.452838
0.452838
0.452838
0.452838
0.452838
0.452838
0.452838
0.452838
0.452838
0.452838
0.452838
0.452838
0.452838
0.452838
0.452838
0.452838
0.452838
0.452838
0.452838
0.452838
0.452839
0.452838
0.45285
0.453845
0.489718
0.485133
0.177525
0.000656452
6.04956e-06
0.000522274
0.000940984
0.00264407
0.0197753
0.0131371
0.00522222
0.00548579
0.0164531
0.00471629
0.00388955
0.0255037
0.0102287
0.00789034
0.026897
0.0289749
0.0572122
0.0415252
0.0248909
0.0452689
0.0591155
0.0357851
0.0635158
0.0208753
0.106487
0.00808703
0.000803457
0.000407491
0.000531161
0.000954779
0.00144869
0.00831378
0.0459318
0.000124653
0.452838
0.452838
0.452838
0.452838
0.452838
0.452838
0.452838
0.452838
0.452838
0.452838
0.452838
0.452838
0.452838
0.452838
0.452838
0.452838
0.452838
0.452838
0.452838
0.452838
0.452838
0.452838
0.452838
0.452838
0.452838
0.452838
0.452838
0.452838
0.452838
0.452838
0.452838
0.452838
0.452838
0.452838
0.452838
0.452838
0.452838
0.452838
0.452838
0.452838
0.452838
0.452838
0.452838
0.452838
0.452838
0.452838
0.452838
0.452838
0.452838
0.452838
0.452838
0.452838
0.452838
0.452838
0.452839
0.452838
0.452841
0.452843
0.459601
0.39481
0.754988
1.18213e-05
6.69824e-06
0.000659535
0.00136629
0.00302375
0.00198325
0.00364376
0.0048144
0.0122438
0.0064387
0.00510431
0.00642987
0.00529199
0.213229
0.0086371
0.00672867
0.0123089
0.121676
0.0337199
0.0121375
0.0102863
0.0201993
0.0324872
0.0217821
0.0593329
0.00632181
0.00261895
0.00101186
0.000613698
0.000846444
0.000922701
0.000957606
0.00168088
0.00795305
0.000124903
0.452838
0.452838
0.452838
0.452838
0.452838
0.452838
0.452838
0.452838
0.452838
0.452838
0.452838
0.452838
0.452838
0.452838
0.452838
0.452838
0.452838
0.452838
0.452838
0.452838
0.452838
0.452838
0.452838
0.452838
0.452838
0.452838
0.452838
0.452838
0.452838
0.452838
0.452838
0.452838
0.452838
0.452838
0.452838
0.452838
0.452838
0.452838
0.452838
0.452838
0.452838
0.452838
0.452838
0.452838
0.452838
0.452838
0.452838
0.452838
0.452838
0.452838
0.452838
0.452838
0.452838
0.452838
0.452839
0.452838
0.45284
0.452845
0.457083
0.509559
0.595024
5.36613e-05
8.85638e-05
0.000333459
0.00195496
0.000591094
0.000874568
0.00218348
0.000714955
0.00074682
0.000379797
0.00262919
0.00062241
0.000604497
0.000601771
0.00128342
0.00395461
0.00667765
0.00202307
0.00257963
0.595549
0.0025209
0.0368497
0.0344927
0.0240151
0.0119721
0.0164613
0.00208079
0.00115426
0.00104809
0.00139564
0.00103264
0.000805928
0.00070385
0.00139997
0.000126502
0.452838
0.452838
0.452838
0.452838
0.452838
0.452838
0.452838
0.452838
0.452838
0.452838
0.452838
0.452838
0.452838
0.452838
0.452838
0.452838
0.452838
0.452838
0.452838
0.452838
0.452838
0.452838
0.452838
0.452838
0.452838
0.452838
0.452838
0.452838
0.452838
0.452838
0.452838
0.452838
0.452838
0.452838
0.452838
0.452838
0.452838
0.452838
0.452838
0.452838
0.452838
0.452838
0.452838
0.452838
0.452838
0.452838
0.452838
0.452838
0.452838
0.452838
0.452838
0.452838
0.452838
0.452838
0.452839
0.452838
0.45284
0.452835
0.452942
0.459841
0.138198
0.00242681
0.00162291
0.00239759
0.000325455
0.000501755
0.0180385
0.00111042
0.00174784
0.00932676
0.00243005
0.0403185
0.00084813
0.000273041
0.000152929
0.0506941
0.000114813
0.000304341
0.000100744
2.05382e-05
1.68491e-05
1.39872e-05
1.76243e-05
0.000799455
0.000504256
0.000598541
0.000482424
0.0016723
0.00288912
0.00251559
0.00191735
0.00123081
0.000845358
0.00063972
0.00119007
0.00012711
0.452838
0.452838
0.452838
0.452838
0.452838
0.452838
0.452838
0.452838
0.452838
0.452838
0.452838
0.452838
0.452838
0.452838
0.452838
0.452838
0.452838
0.452838
0.452838
0.452838
0.452838
0.452838
0.452838
0.452838
0.452838
0.452838
0.452838
0.452838
0.452838
0.452838
0.452838
0.452838
0.452838
0.452838
0.452838
0.452838
0.452838
0.452838
0.452838
0.452838
0.452838
0.452838
0.452838
0.452838
0.452838
0.452838
0.452838
0.452838
0.452838
0.452838
0.452838
0.452838
0.452838
0.452838
0.452839
0.452838
0.452839
0.45284
0.452852
0.488099
0.158205
0.567831
0.0697767
0.0563882
0.018933
0.691027
0.0780346
0.165126
0.0377846
0.0528834
0.0304305
0.16379
0.027833
0.962128
0.914142
0.854191
0.0874632
0.921545
0.0136229
0.999788
0.0814377
0.00843982
0.981445
0.000767373
0.935275
0.999766
1.29402e-05
5.97867e-06
0.000273429
0.000204778
0.000187072
0.000155425
0.00015821
0.000159688
0.0129327
0.000128079
0.452838
0.452838
0.452838
0.452838
0.452838
0.452838
0.452838
0.452838
0.452838
0.452838
0.452838
0.452838
0.452838
0.452838
0.452838
0.452838
0.452838
0.452838
0.452838
0.452838
0.452838
0.452838
0.452838
0.452838
0.452838
0.452838
0.452838
0.452838
0.452838
0.452838
0.452838
0.452838
0.452838
0.452838
0.452838
0.452838
0.452838
0.452838
0.452838
0.452838
0.452838
0.452838
0.452838
0.452838
0.452838
0.452838
0.452838
0.452838
0.452838
0.452838
0.452838
0.452838
0.452838
0.452838
0.452839
0.452839
0.452838
0.452863
0.451711
0.527436
0.0862648
0.256646
0.041213
0.610595
0.555156
0.679936
0.999693
0.811401
0.995217
0.0883561
0.980417
0.849859
0.768295
0.93269
0.721839
0.787268
0.914332
0.111979
0.409926
0.180965
0.00430883
0.999657
0.459597
0.75392
0.868214
0.000514864
0.999169
0.99704
0.00334639
0.999818
0.000896941
0.00340754
0.000608765
2.7711e-05
6.46901e-06
4.93966e-05
0.452838
0.452838
0.452838
0.452838
0.452838
0.452838
0.452838
0.452838
0.452838
0.452838
0.452838
0.452838
0.452838
0.452838
0.452838
0.452838
0.452838
0.452838
0.452838
0.452838
0.452838
0.452838
0.452838
0.452838
0.452838
0.452838
0.452838
0.452838
0.452838
0.452838
0.452838
0.452838
0.452838
0.452838
0.452838
0.452838
0.452838
0.452838
0.452838
0.452838
0.452838
0.452838
0.452838
0.452838
0.452838
0.452838
0.452838
0.452838
0.452838
0.452838
0.452838
0.452838
0.452838
0.452838
0.452838
0.452839
0.452837
0.452756
0.454247
0.495507
0.210752
0.946527
0.99982
0.494448
0.929449
0.791944
0.64582
0.989995
0.852693
0.772247
0.895159
0.616685
0.589359
0.355326
0.81103
0.485209
0.710429
0.771835
0.886943
0.999116
1.24938e-08
2.85181e-07
0.144038
0.240761
0.815123
0.894277
0.348439
0.770028
0.839057
0.976937
0.232871
0.0280401
0.00149635
0.466754
0.996881
0.0158321
0.452838
0.452838
0.452838
0.452838
0.452838
0.452838
0.452838
0.452838
0.452838
0.452838
0.452838
0.452838
0.452838
0.452838
0.452838
0.452838
0.452838
0.452838
0.452838
0.452838
0.452838
0.452838
0.452838
0.452838
0.452838
0.452838
0.452838
0.452838
0.452838
0.452838
0.452838
0.452838
0.452838
0.452838
0.452838
0.452838
0.452838
0.452838
0.452838
0.452838
0.452838
0.452838
0.452838
0.452838
0.452838
0.452838
0.452838
0.452838
0.452838
0.452838
0.452838
0.452838
0.452838
0.452838
0.452838
0.452838
0.452906
0.452847
0.478547
0.499662
0.992775
0.00181529
0.332567
0.999875
0.570848
0.318061
0.57534
0.844611
0.0625816
0.99508
0.935989
0.281887
0.924855
0.888235
0.836506
0.0547524
0.837299
0.884411
0.894435
0.258923
0.064252
0.980256
0.463878
0.912804
0.104875
0.108804
0.153495
0.20885
0.177762
0.146272
0.109841
0.0423811
0.0357372
0.0982479
0.0346931
0.000222501
0.452838
0.452838
0.452838
0.452838
0.452838
0.452838
0.452838
0.452838
0.452838
0.452838
0.452838
0.452838
0.452838
0.452838
0.452838
0.452838
0.452838
0.452838
0.452838
0.452838
0.452838
0.452838
0.452838
0.452838
0.452838
0.452838
0.452838
0.452838
0.452838
0.452838
0.452838
0.452838
0.452838
0.452838
0.452838
0.452838
0.452838
0.452838
0.452838
0.452838
0.452838
0.452838
0.452838
0.452838
0.452838
0.452838
0.452838
0.452838
0.452838
0.452838
0.452838
0.452838
0.452838
0.452838
0.452838
0.452838
0.452842
0.452777
0.453089
0.521111
0.0327908
0.999746
0.930824
0.129126
0.0475307
0.0713912
0.127685
0.198201
0.912187
0.994699
0.0183443
0.00380325
0.000682957
5.24311e-05
7.3558e-06
6.26534e-06
0.000222331
0.999906
0.000173941
0.0002138
0.999919
0.00907424
0.999952
0.0010977
0.999252
0.000535085
0.00038599
0.999834
0.999945
0.000149164
0.000187741
0.000307289
9.5338e-05
0.000139553
0.00149226
9.84221e-05
0.452838
0.452838
0.452838
0.452838
0.452838
0.452838
0.452838
0.452838
0.452838
0.452838
0.452838
0.452838
0.452838
0.452838
0.452838
0.452838
0.452838
0.452838
0.452838
0.452838
0.452838
0.452838
0.452838
0.452838
0.452838
0.452838
0.452838
0.452838
0.452838
0.452838
0.452838
0.452838
0.452838
0.452838
0.452838
0.452838
0.452838
0.452838
0.452838
0.452838
0.452838
0.452838
0.452838
0.452838
0.452838
0.452838
0.452838
0.452838
0.452838
0.452838
0.452838
0.452838
0.452838
0.452838
0.452838
0.452838
0.45284
0.449755
0.575696
0.532743
0.0525084
0.00408522
0.00158054
0.000514433
0.000900855
0.00130292
1.19789e-05
9.0096e-06
0.00683242
0.00194878
0.00203483
0.00123354
0.0101201
0.0126285
0.00602682
0.00431484
0.00582659
0.00345692
0.00280762
0.0022611
0.0018588
0.00173469
0.00234139
0.00867605
0.0015889
0.00591894
0.00263509
0.00174581
0.00137875
0.00105966
0.00127684
0.00268912
0.00289016
0.0020982
0.00803517
0.000128276
0.452838
0.452838
0.452838
0.452838
0.452838
0.452838
0.452838
0.452838
0.452838
0.452838
0.452838
0.452838
0.452838
0.452838
0.452838
0.452838
0.452838
0.452838
0.452838
0.452838
0.452838
0.452838
0.452838
0.452838
0.452838
0.452838
0.452838
0.452838
0.452838
0.452838
0.452838
0.452838
0.452838
0.452838
0.452838
0.452838
0.452838
0.452838
0.452838
0.452838
0.452838
0.452838
0.452838
0.452838
0.452838
0.452838
0.452838
0.452838
0.452838
0.452838
0.452838
0.452838
0.452838
0.452838
0.452839
0.452838
0.452838
0.452885
0.450044
0.418886
0.418166
4.47544e-06
0.000232936
0.000851292
0.000746524
0.000391098
0.000395354
0.00373777
0.0052944
0.00355828
0.00406437
0.00548549
0.00945843
0.011754
0.0170085
0.0124299
0.0200682
0.0120918
0.00636947
0.00401597
0.00290786
0.00220381
0.00155172
0.00153873
0.00901071
0.000780024
0.0040517
0.00107692
0.00122153
0.00104022
0.0011412
0.0020609
0.003972
0.0150009
0.00924933
0.00012325
0.452838
0.452838
0.452838
0.452838
0.452838
0.452838
0.452838
0.452838
0.452838
0.452838
0.452838
0.452838
0.452838
0.452838
0.452838
0.452838
0.452838
0.452838
0.452838
0.452838
0.452838
0.452838
0.452838
0.452838
0.452838
0.452838
0.452838
0.452838
0.452838
0.452838
0.452838
0.452838
0.452838
0.452838
0.452838
0.452838
0.452838
0.452838
0.452838
0.452838
0.452838
0.452838
0.452838
0.452838
0.452838
0.452838
0.452838
0.452838
0.452838
0.452838
0.452838
0.452838
0.452838
0.452838
0.452838
0.452838
0.45284
0.45284
0.452935
0.520073
0.316531
4.55356e-06
0.0240266
0.00150052
0.000987416
0.000927617
0.0020522
0.00181458
0.00446629
0.00738727
0.0183307
0.0287943
0.341424
0.164712
0.0791266
0.0327333
0.0659983
0.0146137
0.00856686
0.00557035
0.00634991
0.0176143
0.0121385
0.0304007
0.00435751
0.00125586
0.00091444
0.0015321
0.000671553
0.00123373
0.00124558
0.00307085
0.0115016
0.0110693
0.0213999
0.000126082
0.452838
0.452838
0.452838
0.452838
0.452838
0.452838
0.452838
0.452838
0.452838
0.452838
0.452838
0.452838
0.452838
0.452838
0.452838
0.452838
0.452838
0.452838
0.452838
0.452838
0.452838
0.452838
0.452838
0.452838
0.452838
0.452838
0.452838
0.452838
0.452838
0.452838
0.452838
0.452838
0.452838
0.452838
0.452838
0.452838
0.452838
0.452838
0.452838
0.452838
0.452838
0.452838
0.452838
0.452838
0.452838
0.452838
0.452838
0.452838
0.452838
0.452838
0.452838
0.452838
0.452838
0.452838
0.452838
0.452839
0.452841
0.452841
0.452903
0.519886
0.224983
1.06029e-05
5.30392e-06
0.00034744
0.000677008
0.00156627
0.00138625
0.00551848
0.0472812
0.0185649
0.0182927
0.00762774
0.00584736
0.00508933
0.0043908
0.00391638
0.00460228
0.00385337
0.00435738
0.00383074
0.00511777
0.00711011
0.0135054
0.00435401
0.00200596
0.00196605
0.000560158
0.00287731
0.000517806
0.00101175
0.00160135
0.00266134
0.0239457
0.00812171
0.00251523
0.000128449
0.452838
0.452838
0.452838
0.452838
0.452838
0.452838
0.452838
0.452838
0.452838
0.452838
0.452838
0.452838
0.452838
0.452838
0.452838
0.452838
0.452838
0.452838
0.452838
0.452838
0.452838
0.452838
0.452838
0.452838
0.452838
0.452838
0.452838
0.452838
0.452838
0.452838
0.452838
0.452838
0.452838
0.452838
0.452838
0.452838
0.452838
0.452838
0.452838
0.452838
0.452838
0.452838
0.452838
0.452838
0.452838
0.452838
0.452838
0.452838
0.452838
0.452838
0.452838
0.452838
0.452838
0.452838
0.452838
0.452838
0.452842
0.452842
0.455709
0.563182
0.0769531
0.000611149
3.46007e-06
0.000300284
0.00038984
0.00174485
0.00344755
0.0072618
0.00281991
0.00394854
0.0101215
0.0441915
0.0410192
0.0401631
0.0737343
0.0403046
0.022187
0.027991
0.0170875
0.0412331
0.00508828
0.0041086
0.00202132
0.00220972
0.009376
0.00124775
0.000566092
0.00619574
0.000484571
0.000858739
0.00256228
0.00445628
0.00512972
0.00202264
0.00459525
0.000125125
0.452838
0.452838
0.452838
0.452838
0.452838
0.452838
0.452838
0.452838
0.452838
0.452838
0.452838
0.452838
0.452838
0.452838
0.452838
0.452838
0.452838
0.452838
0.452838
0.452838
0.452838
0.452838
0.452838
0.452838
0.452838
0.452838
0.452838
0.452838
0.452838
0.452838
0.452838
0.452838
0.452838
0.452838
0.452838
0.452838
0.452838
0.452838
0.452838
0.452838
0.452838
0.452838
0.452838
0.452838
0.452838
0.452838
0.452838
0.452838
0.452838
0.452838
0.452838
0.452838
0.452838
0.452838
0.452838
0.452838
0.452842
0.452995
0.480753
0.498656
0.178227
0.898798
7.16196e-06
0.000248425
0.00139932
0.0114815
0.00568762
0.00204441
0.00231077
0.0027163
0.00309079
0.00265524
0.00313755
0.00378999
0.0047033
0.00662723
0.00625573
0.0163612
0.0128545
0.0412573
0.0174531
0.0611171
0.00462315
0.0502288
0.00413708
0.00111279
0.000544486
0.00231339
0.000427771
0.00116965
0.00339614
0.0685897
0.00509344
0.00417504
0.00597472
0.000130053
0.452838
0.452838
0.452838
0.452838
0.452838
0.452838
0.452838
0.452838
0.452838
0.452838
0.452838
0.452838
0.452838
0.452838
0.452838
0.452838
0.452838
0.452838
0.452838
0.452838
0.452838
0.452838
0.452838
0.452838
0.452838
0.452838
0.452838
0.452838
0.452838
0.452838
0.452838
0.452838
0.452838
0.452838
0.452838
0.452838
0.452838
0.452838
0.452838
0.452838
0.452838
0.452838
0.452838
0.452838
0.452838
0.452838
0.452838
0.452838
0.452838
0.452838
0.452838
0.452838
0.452838
0.452838
0.452839
0.452838
0.45284
0.454764
0.49655
0.490195
0.205014
0.00952665
9.2857e-06
7.52661e-06
0.00164251
0.00689212
0.00502092
0.0090583
0.247879
0.0409573
0.0320848
0.0584662
0.141888
0.0947334
0.0497392
0.0420437
0.0199221
0.998238
0.00247847
0.0192156
0.0401015
0.0311048
0.0764349
0.470516
0.0509647
0.0306813
0.0148335
0.0181833
0.0021977
0.000735914
0.000469201
0.000704974
0.00121191
0.0018025
0.00654692
0.000123301
0.452838
0.452838
0.452838
0.452838
0.452838
0.452838
0.452838
0.452838
0.452838
0.452838
0.452838
0.452838
0.452838
0.452838
0.452838
0.452838
0.452838
0.452838
0.452838
0.452838
0.452838
0.452838
0.452838
0.452838
0.452838
0.452838
0.452838
0.452838
0.452838
0.452838
0.452838
0.452838
0.452838
0.452838
0.452838
0.452838
0.452838
0.452838
0.452838
0.452838
0.452838
0.452838
0.452838
0.452838
0.452838
0.452838
0.452838
0.452838
0.452838
0.452838
0.452838
0.452838
0.452838
0.452838
0.452839
0.452838
0.452841
0.452884
0.452697
0.490661
0.186401
0.00108035
6.87295e-06
0.000602172
0.00100011
0.00155409
0.00517516
0.00473976
0.004582
0.00814748
0.0212447
0.00414888
0.00472199
0.0593168
0.0106315
0.0163203
0.0694199
0.0416756
0.991299
0.0193702
0.0180896
0.0303473
0.0361851
0.164136
0.0255739
0.0327667
0.174662
0.0165917
0.00427911
0.000851078
0.000644551
0.00123775
0.000822511
0.000446272
0.000799026
0.000120368
0.452838
0.452838
0.452838
0.452838
0.452838
0.452838
0.452838
0.452838
0.452838
0.452838
0.452838
0.452838
0.452838
0.452838
0.452838
0.452838
0.452838
0.452838
0.452838
0.452838
0.452838
0.452838
0.452838
0.452838
0.452838
0.452838
0.452838
0.452838
0.452838
0.452838
0.452838
0.452838
0.452838
0.452838
0.452838
0.452838
0.452838
0.452838
0.452838
0.452838
0.452838
0.452838
0.452838
0.452838
0.452838
0.452838
0.452838
0.452838
0.452838
0.452838
0.452838
0.452838
0.452838
0.452838
0.452839
0.452839
0.45284
0.452843
0.430499
0.526565
0.408302
8.81432e-06
0.000710753
0.00120042
0.000905175
0.0201458
0.00446081
0.00613805
0.00561652
0.045131
0.00707066
0.000969703
0.0847508
0.0762792
0.0108858
0.0050624
0.00445436
0.00765294
0.0462949
0.0149103
0.0107643
0.0148282
0.0542246
0.0313922
0.0274187
0.0137042
0.00577176
0.00400537
0.00208651
0.00142917
0.00147937
0.00233063
0.00148164
0.000443171
0.000359626
0.000119648
0.452838
0.452838
0.452838
0.452838
0.452838
0.452838
0.452838
0.452838
0.452838
0.452838
0.452838
0.452838
0.452838
0.452838
0.452838
0.452838
0.452838
0.452838
0.452838
0.452838
0.452838
0.452838
0.452838
0.452838
0.452838
0.452838
0.452838
0.452838
0.452838
0.452838
0.452838
0.452838
0.452838
0.452838
0.452838
0.452838
0.452838
0.452838
0.452838
0.452838
0.452838
0.452838
0.452838
0.452838
0.452838
0.452838
0.452838
0.452838
0.452838
0.452838
0.452838
0.452838
0.452838
0.452838
0.452839
0.452838
0.452839
0.452836
0.452936
0.47743
0.630714
0.00010381
0.000513365
8.88734e-06
0.000567258
0.000537369
0.00148255
0.000557921
0.000428328
1.29437e-05
1.1312e-05
1.88924e-05
9.81504e-06
0.000560592
0.000594172
0.000783131
0.0010369
0.00255443
0.0184965
0.0018471
0.00138084
0.00158775
0.021404
0.0038365
0.039333
0.0578924
0.0206558
0.0212049
0.00253444
0.00232318
0.0135025
0.0262839
0.00149035
0.000418145
0.000272518
0.000110379
0.452838
0.452838
0.452838
0.452838
0.452838
0.452838
0.452838
0.452838
0.452838
0.452838
0.452838
0.452838
0.452838
0.452838
0.452838
0.452838
0.452838
0.452838
0.452838
0.452838
0.452838
0.452838
0.452838
0.452838
0.452838
0.452838
0.452838
0.452838
0.452838
0.452838
0.452838
0.452838
0.452838
0.452838
0.452838
0.452838
0.452838
0.452838
0.452838
0.452838
0.452838
0.452838
0.452838
0.452838
0.452838
0.452838
0.452838
0.452838
0.452838
0.452838
0.452838
0.452838
0.452838
0.452838
0.452839
0.452838
0.452839
0.452846
0.452954
0.515771
0.121191
0.0146025
0.0228812
0.0439131
0.00734829
0.118262
0.0222551
0.0142435
0.0331151
0.93695
0.857598
0.352773
0.0143853
0.0210086
0.111226
0.0160647
0.0211532
0.0173949
0.017845
0.000377047
6.02297e-05
1.05965e-05
1.07971e-05
0.000624616
2.48327e-05
0.000792261
0.00170372
0.00234482
0.00539272
0.00336824
0.250174
0.00987085
0.00110107
0.000430939
0.000299072
0.000111134
0.452838
0.452838
0.452838
0.452838
0.452838
0.452838
0.452838
0.452838
0.452838
0.452838
0.452838
0.452838
0.452838
0.452838
0.452838
0.452838
0.452838
0.452838
0.452838
0.452838
0.452838
0.452838
0.452838
0.452838
0.452838
0.452838
0.452838
0.452838
0.452838
0.452838
0.452838
0.452838
0.452838
0.452838
0.452838
0.452838
0.452838
0.452838
0.452838
0.452838
0.452838
0.452838
0.452838
0.452838
0.452838
0.452838
0.452838
0.452838
0.452838
0.452838
0.452838
0.452838
0.452838
0.452838
0.452839
0.452839
0.452837
0.452831
0.452728
0.557388
0.964643
0.967594
0.00556543
0.873197
0.946718
0.551826
0.219529
0.0962492
0.113215
0.99996
0.416434
0.726465
0.957858
0.999875
0.457703
0.962652
0.983252
0.891447
0.805357
0.594675
0.950762
0.0529411
0.130027
0.0904704
0.912282
0.00162899
0.000104089
0.999964
0.000537249
2.9576e-05
0.00273792
0.000882985
0.000394699
0.000180365
6.21322e-05
3.97766e-05
0.452838
0.452838
0.452838
0.452838
0.452838
0.452838
0.452838
0.452838
0.452838
0.452838
0.452838
0.452838
0.452838
0.452838
0.452838
0.452838
0.452838
0.452838
0.452838
0.452838
0.452838
0.452838
0.452838
0.452838
0.452838
0.452838
0.452838
0.452838
0.452838
0.452838
0.452838
0.452838
0.452838
0.452838
0.452838
0.452838
0.452838
0.452838
0.452838
0.452838
0.452838
0.452838
0.452838
0.452838
0.452838
0.452838
0.452838
0.452838
0.452838
0.452838
0.452838
0.452838
0.452838
0.452838
0.452839
0.452838
0.452839
0.452862
0.4549
0.576748
0.106378
0.563262
0.86183
0.531648
0.485457
0.733514
0.430992
0.863556
0.536501
0.899107
0.550407
0.405438
0.541772
0.742337
0.170057
0.484253
0.416366
0.482035
0.434983
0.574517
0.831376
0.993506
0.00267832
0.790619
0.924007
0.99765
0.918651
0.111446
0.32041
0.273698
0.0165811
0.182709
0.845759
0.821703
0.029236
1.27331e-05
0.452838
0.452838
0.452838
0.452838
0.452838
0.452838
0.452838
0.452838
0.452838
0.452838
0.452838
0.452838
0.452838
0.452838
0.452838
0.452838
0.452838
0.452838
0.452838
0.452838
0.452838
0.452838
0.452838
0.452838
0.452838
0.452838
0.452838
0.452838
0.452838
0.452838
0.452838
0.452838
0.452838
0.452838
0.452838
0.452838
0.452838
0.452838
0.452838
0.452838
0.452838
0.452838
0.452838
0.452838
0.452838
0.452838
0.452838
0.452838
0.452838
0.452838
0.452838
0.452838
0.452838
0.452838
0.452839
0.452839
0.452839
0.452928
0.4553
0.565204
0.233272
0.999968
0.80296
0.611504
0.492197
0.47277
0.245321
0.816748
0.617261
0.90535
0.659161
0.324329
0.502318
0.350516
0.443096
0.371449
0.760168
0.204454
0.369471
0.486886
0.410344
0.848244
0.509509
0.371822
0.486794
0.342279
0.426319
0.77215
0.438349
0.394306
0.419784
0.31502
0.206966
0.954551
0.900409
0.999998
0.452838
0.452838
0.452838
0.452838
0.452838
0.452838
0.452838
0.452838
0.452838
0.452838
0.452838
0.452838
0.452838
0.452838
0.452838
0.452838
0.452838
0.452838
0.452838
0.452838
0.452838
0.452838
0.452838
0.452838
0.452838
0.452838
0.452838
0.452838
0.452838
0.452838
0.452838
0.452838
0.452838
0.452838
0.452838
0.452838
0.452838
0.452838
0.452838
0.452838
0.452838
0.452838
0.452838
0.452838
0.452838
0.452838
0.452838
0.452838
0.452838
0.452838
0.452838
0.452838
0.452838
0.452838
0.452839
0.452839
0.452839
0.452716
0.447005
0.521106
0.285278
0.974276
0.939542
0.349798
0.870732
0.301054
0.413762
0.936425
0.97613
0.155919
0.984711
0.545251
0.600254
0.332982
0.82998
0.675398
0.310895
0.876685
0.901179
0.492988
0.506559
0.248398
0.984027
0.253528
0.540465
0.67969
0.348391
0.327975
0.444575
0.564925
0.503472
0.496148
0.501484
0.532005
0.261975
0.990424
0.452838
0.452838
0.452838
0.452838
0.452838
0.452838
0.452838
0.452838
0.452838
0.452838
0.452838
0.452838
0.452838
0.452838
0.452838
0.452838
0.452838
0.452838
0.452838
0.452838
0.452838
0.452838
0.452838
0.452838
0.452838
0.452838
0.452838
0.452838
0.452838
0.452838
0.452838
0.452838
0.452838
0.452838
0.452838
0.452838
0.452838
0.452838
0.452838
0.452838
0.452838
0.452838
0.452838
0.452838
0.452838
0.452838
0.452838
0.452838
0.452838
0.452838
0.452838
0.452838
0.452838
0.452838
0.452839
0.452839
0.452839
0.452838
0.452719
0.52651
0.0197137
0.907152
0.0575217
0.0590996
0.0326858
0.0266308
0.0207565
0.934929
0.989302
0.00356825
0.0218406
0.0072102
0.00430909
0.00636127
0.00974307
0.00986613
0.0109329
0.00999986
0.00312064
0.0023444
0.00352717
0.018579
0.0342076
0.0167614
0.0174729
0.0055073
0.00728789
0.008918
0.0155743
0.0186071
0.0212067
0.00216447
0.000209614
2.86683e-05
5.2197e-06
6.88771e-05
0.452838
0.452838
0.452838
0.452838
0.452838
0.452838
0.452838
0.452838
0.452838
0.452838
0.452838
0.452838
0.452838
0.452838
0.452838
0.452838
0.452838
0.452838
0.452838
0.452838
0.452838
0.452838
0.452838
0.452838
0.452838
0.452838
0.452838
0.452838
0.452838
0.452838
0.452838
0.452838
0.452838
0.452838
0.452838
0.452838
0.452838
0.452838
0.452838
0.452838
0.452838
0.452838
0.452838
0.452838
0.452838
0.452838
0.452838
0.452838
0.452838
0.452838
0.452838
0.452838
0.452838
0.452838
0.452838
0.452838
0.45284
0.45287
0.433343
0.552995
0.34116
1.52233e-05
0.0026106
5.091e-05
0.00412614
1.32961e-05
0.000797841
0.000312373
0.000813769
0.000472979
0.00049875
0.000459584
0.000526812
0.000534361
0.000517051
0.000501468
0.000474212
0.000420566
0.00033739
0.000289232
0.000318364
0.000714786
0.0201144
0.00075824
0.000365696
0.000337558
0.000446062
0.00049986
0.000393525
0.000392146
0.000288855
0.000210021
0.000160723
0.000173545
0.00157732
0.000135373
0.452838
0.452838
0.452838
0.452838
0.452838
0.452838
0.452838
0.452838
0.452838
0.452838
0.452838
0.452838
0.452838
0.452838
0.452838
0.452838
0.452838
0.452838
0.452838
0.452838
0.452838
0.452838
0.452838
0.452838
0.452838
0.452838
0.452838
0.452838
0.452838
0.452838
0.452838
0.452838
0.452838
0.452838
0.452838
0.452838
0.452838
0.452838
0.452838
0.452838
0.452838
0.452838
0.452838
0.452838
0.452838
0.452838
0.452838
0.452838
0.452838
0.452838
0.452838
0.452838
0.452838
0.452838
0.452838
0.452838
0.452839
0.452838
0.444973
0.507958
0.67659
1
0.000465439
0.000412935
0.000799181
0.00314606
0.0148904
0.00621114
0.0166407
0.0106601
0.00713352
0.00710929
0.00896981
0.0103338
0.0100425
0.00796525
0.0081831
0.00814062
0.00613535
0.00308955
0.00154717
0.00147591
0.00229745
0.00544634
0.0158643
0.00134152
0.000981469
0.0273459
0.0104053
0.000931022
0.00046267
0.000743827
0.00193891
0.002098
0.00626658
0.000126529
0.452838
0.452838
0.452838
0.452838
0.452838
0.452838
0.452838
0.452838
0.452838
0.452838
0.452838
0.452838
0.452838
0.452838
0.452838
0.452838
0.452838
0.452838
0.452838
0.452838
0.452838
0.452838
0.452838
0.452838
0.452838
0.452838
0.452838
0.452838
0.452838
0.452838
0.452838
0.452838
0.452838
0.452838
0.452838
0.452838
0.452838
0.452838
0.452838
0.452838
0.452838
0.452838
0.452838
0.452838
0.452838
0.452838
0.452838
0.452838
0.452838
0.452838
0.452838
0.452838
0.452838
0.452838
0.452838
0.452839
0.45284
0.452841
0.45311
0.531975
0.352085
0.00078844
0.0006803
0.00153847
0.0031286
0.00186904
0.00226298
0.00294757
0.00327177
0.00260315
0.00244164
0.0026698
0.00304912
0.00296299
0.00283336
0.00263028
0.00259445
0.00283954
0.00263665
0.00267233
0.00217779
0.00426488
0.0138587
0.0176948
0.00322657
0.00134781
0.00101198
0.00313677
0.0025104
0.00102623
0.000407195
0.000679056
0.00504084
0.438524
0.00415153
0.000123087
0.452838
0.452838
0.452838
0.452838
0.452838
0.452838
0.452838
0.452838
0.452838
0.452838
0.452838
0.452838
0.452838
0.452838
0.452838
0.452838
0.452838
0.452838
0.452838
0.452838
0.452838
0.452838
0.452838
0.452838
0.452838
0.452838
0.452838
0.452838
0.452838
0.452838
0.452838
0.452838
0.452838
0.452838
0.452838
0.452838
0.452838
0.452838
0.452838
0.452838
0.452838
0.452838
0.452838
0.452838
0.452838
0.452838
0.452838
0.452838
0.452838
0.452838
0.452838
0.452838
0.452838
0.452838
0.452838
0.452838
0.452841
0.452855
0.454279
0.500316
0.447571
3.12395e-05
0.000452317
0.000348191
0.00076127
0.00282945
0.00282514
0.0107203
0.00553096
0.00538277
0.004202
0.00304077
0.00263319
0.00244909
0.00234513
0.00237864
0.00240571
0.00280713
0.00240659
0.00218142
0.00160747
0.00183313
0.00436834
0.00810152
0.00258252
0.00256634
0.000836851
0.00233724
0.00138263
0.000655879
0.000531154
0.00103109
0.00373785
0.125641
0.0301043
0.000121286
0.452838
0.452838
0.452838
0.452838
0.452838
0.452838
0.452838
0.452838
0.452838
0.452838
0.452838
0.452838
0.452838
0.452838
0.452838
0.452838
0.452838
0.452838
0.452838
0.452838
0.452838
0.452838
0.452838
0.452838
0.452838
0.452838
0.452838
0.452838
0.452838
0.452838
0.452838
0.452838
0.452838
0.452838
0.452838
0.452838
0.452838
0.452838
0.452838
0.452838
0.452838
0.452838
0.452838
0.452838
0.452838
0.452838
0.452838
0.452838
0.452838
0.452838
0.452838
0.452838
0.452838
0.452838
0.452838
0.452838
0.452842
0.453313
0.485956
0.374794
0.542138
0.00131249
3.79629e-06
0.000288518
0.000460347
0.000648321
0.00172212
0.00140162
0.0012348
0.00141791
0.00185808
0.00205533
0.00223262
0.0024938
0.00283458
0.00354101
0.00417795
0.00517118
0.00506589
0.00766878
0.0221027
0.00380232
0.00134087
0.00107892
0.00263604
0.00102576
0.000604534
0.00196576
0.00119035
0.000441657
0.000485078
0.00120006
0.00165742
0.00130051
0.00212213
0.000116353
0.452838
0.452838
0.452838
0.452838
0.452838
0.452838
0.452838
0.452838
0.452838
0.452838
0.452838
0.452838
0.452838
0.452838
0.452838
0.452838
0.452838
0.452838
0.452838
0.452838
0.452838
0.452838
0.452838
0.452838
0.452838
0.452838
0.452838
0.452838
0.452838
0.452838
0.452838
0.452838
0.452838
0.452838
0.452838
0.452838
0.452838
0.452838
0.452838
0.452838
0.452838
0.452838
0.452838
0.452838
0.452838
0.452838
0.452838
0.452838
0.452838
0.452838
0.452838
0.452838
0.452838
0.452838
0.452838
0.452839
0.452841
0.452998
0.459739
0.55054
0.178933
0.0436589
9.13716e-06
3.04739e-06
0.00146019
0.0034461
0.00171118
0.00216615
0.00266958
0.00327971
0.00438037
0.00596362
0.00523522
0.00642104
0.00685948
0.0177426
0.0128425
0.0291265
0.0109336
0.010102
0.0076721
0.0067863
0.00561681
0.00638566
0.004554
0.00178613
0.00064357