/*--------------------------------*- C++ -*----------------------------------*\
| =========                 |                                                 |
| \\      /  F ield         | OpenFOAM: The Open Source CFD Toolbox           |
|  \\    /   O peration     | Version:  2.3.0                                 |
|   \\  /    A nd           | Web:      www.OpenFOAM.org                      |
|    \\/     M anipulation  |                                                 |
\*---------------------------------------------------------------------------*/
FoamFile
{
    version     2.0;
    format      ascii;
    class       volScalarField;
    location    "10";
    object      w3;
}
// * * * * * * * * * * * * * * * * * * * * * * * * * * * * * * * * * * * * * //

dimensions      [0 0 0 0 0 0 0];

internalField   nonuniform List<scalar> 
6144
(
0.0283736
0.0283736
0.0283736
0.0283736
0.0283736
0.0283736
0.0283736
0.0283736
0.0283736
0.0283736
0.0283736
0.0283736
0.0283736
0.0283736
0.0283736
0.0283736
0.0283736
0.0283736
0.0283736
0.0283736
0.0283736
0.0283736
0.0283736
0.0283736
0.0283736
0.0283736
0.0283736
0.0283736
0.0283736
0.0283736
0.0283736
0.0283736
0.0283736
0.0283736
0.0283736
0.0283736
0.0283736
0.0283736
0.0283736
0.0283736
0.0283736
0.0283736
0.0283736
0.0283736
0.0283736
0.0283736
0.0283736
0.0283736
0.0283736
0.0283736
0.0283736
0.0283736
0.0283736
0.0283736
0.0283736
0.0283736
0.0283739
0.0283957
0.0318888
0.0296922
0.0142639
0.000129983
5.3207e-07
6.75308e-05
0.000199048
0.00123692
0.017566
0.00028286
0.000501619
0.000753844
0.000971076
0.00154657
0.0024249
0.0156945
0.052155
0.00134231
0.00076403
0.00094854
0.136441
0.00293162
0.002715
0.0097696
0.00294145
0.00476451
0.00454773
0.00746362
0.00451703
0.000271484
4.8388e-05
2.3561e-05
3.85054e-05
9.61821e-05
0.00524977
0.000320724
0.000287874
9.51571e-06
0.0283736
0.0283736
0.0283736
0.0283736
0.0283736
0.0283736
0.0283736
0.0283736
0.0283736
0.0283736
0.0283736
0.0283736
0.0283736
0.0283736
0.0283736
0.0283736
0.0283736
0.0283736
0.0283736
0.0283736
0.0283736
0.0283736
0.0283736
0.0283736
0.0283736
0.0283736
0.0283736
0.0283736
0.0283736
0.0283736
0.0283736
0.0283736
0.0283736
0.0283736
0.0283736
0.0283736
0.0283736
0.0283736
0.0283736
0.0283736
0.0283736
0.0283736
0.0283736
0.0283736
0.0283736
0.0283736
0.0283736
0.0283736
0.0283736
0.0283736
0.0283736
0.0283736
0.0283736
0.0283736
0.0283736
0.0283735
0.0283753
0.0285396
0.034225
0.0291173
0.0127457
1.07965e-05
4.48857e-07
3.87505e-05
6.98154e-05
0.000196278
0.00158075
0.000874664
0.000387751
0.000406972
0.00129794
0.000327618
0.000299762
0.00158552
0.000824756
0.000591329
0.00202632
0.00211137
0.00428753
0.00313176
0.00185207
0.00338256
0.0036773
0.00316292
0.00407349
0.00167385
0.00774683
0.000599536
5.9591e-05
3.02342e-05
3.94117e-05
7.08398e-05
0.000107709
0.000603363
0.00344788
9.32955e-06
0.0283736
0.0283736
0.0283736
0.0283736
0.0283736
0.0283736
0.0283736
0.0283736
0.0283736
0.0283736
0.0283736
0.0283736
0.0283736
0.0283736
0.0283736
0.0283736
0.0283736
0.0283736
0.0283736
0.0283736
0.0283736
0.0283736
0.0283736
0.0283736
0.0283736
0.0283736
0.0283736
0.0283736
0.0283736
0.0283736
0.0283736
0.0283736
0.0283736
0.0283736
0.0283736
0.0283736
0.0283736
0.0283736
0.0283736
0.0283736
0.0283736
0.0283736
0.0283736
0.0283736
0.0283736
0.0283736
0.0283736
0.0283736
0.0283736
0.0283736
0.0283736
0.0283736
0.0283736
0.0283736
0.0283736
0.0283736
0.0283738
0.0283744
0.0298815
0.0132589
0.0606828
3.46826e-08
4.97051e-07
4.90424e-05
0.000100173
0.0002265
0.000147079
0.000270313
0.00035705
0.000910268
0.000477588
0.000380629
0.000475776
0.000362637
0.0198994
0.00055694
0.000498739
0.000887483
0.00939373
0.002471
0.000740501
0.000757214
0.0014888
0.00240399
0.00157818
0.00459097
0.000468966
0.000194102
7.50872e-05
4.55294e-05
6.27858e-05
6.8455e-05
7.10562e-05
0.000124854
0.000588856
9.26736e-06
0.0283736
0.0283736
0.0283736
0.0283736
0.0283736
0.0283736
0.0283736
0.0283736
0.0283736
0.0283736
0.0283736
0.0283736
0.0283736
0.0283736
0.0283736
0.0283736
0.0283736
0.0283736
0.0283736
0.0283736
0.0283736
0.0283736
0.0283736
0.0283736
0.0283736
0.0283736
0.0283736
0.0283736
0.0283736
0.0283736
0.0283736
0.0283736
0.0283736
0.0283736
0.0283736
0.0283736
0.0283736
0.0283736
0.0283736
0.0283736
0.0283736
0.0283736
0.0283736
0.0283736
0.0283736
0.0283736
0.0283736
0.0283736
0.0283736
0.0283736
0.0283736
0.0283736
0.0283736
0.0283736
0.0283736
0.0283735
0.0283737
0.0283751
0.0291061
0.0315388
0.0769669
1.90196e-06
6.5711e-06
2.47391e-05
0.000145159
4.37688e-05
6.50586e-05
0.000161797
5.30473e-05
5.56194e-05
2.81447e-05
0.000194177
4.62769e-05
4.48516e-05
4.43587e-05
9.52242e-05
0.000293423
0.000491952
0.000151228
0.000189271
0.0490053
0.000169181
0.00275289
0.00252952
0.00178455
0.000874906
0.00122088
0.000154725
8.5579e-05
7.7811e-05
0.000103558
7.66212e-05
5.98006e-05
5.22203e-05
0.000103872
9.38489e-06
0.0283736
0.0283736
0.0283736
0.0283736
0.0283736
0.0283736
0.0283736
0.0283736
0.0283736
0.0283736
0.0283736
0.0283736
0.0283736
0.0283736
0.0283736
0.0283736
0.0283736
0.0283736
0.0283736
0.0283736
0.0283736
0.0283736
0.0283736
0.0283736
0.0283736
0.0283736
0.0283736
0.0283736
0.0283736
0.0283736
0.0283736
0.0283736
0.0283736
0.0283736
0.0283736
0.0283736
0.0283736
0.0283736
0.0283736
0.0283736
0.0283736
0.0283736
0.0283736
0.0283736
0.0283736
0.0283736
0.0283736
0.0283736
0.0283736
0.0283736
0.0283736
0.0283736
0.0283736
0.0283736
0.0283736
0.0283735
0.0283737
0.028373
0.0283905
0.0276172
0.00327166
0.000302272
0.000120448
0.000183126
2.41524e-05
1.15049e-05
0.00134191
8.2285e-05
0.000129738
0.000744367
0.000112768
0.00486053
3.44543e-05
2.03643e-05
1.13428e-05
9.00056e-05
2.2568e-06
8.10427e-13
1.06451e-05
1.52043e-06
1.3138e-06
1.03456e-06
1.31327e-06
5.93366e-05
3.74136e-05
4.42657e-05
3.58075e-05
0.000124011
0.000214087
0.000186577
0.000136533
9.137e-05
6.27075e-05
4.74596e-05
8.82943e-05
9.43116e-06
0.0283736
0.0283736
0.0283736
0.0283736
0.0283736
0.0283736
0.0283736
0.0283736
0.0283736
0.0283736
0.0283736
0.0283736
0.0283736
0.0283736
0.0283736
0.0283736
0.0283736
0.0283736
0.0283736
0.0283736
0.0283736
0.0283736
0.0283736
0.0283736
0.0283736
0.0283736
0.0283736
0.0283736
0.0283736
0.0283736
0.0283736
0.0283736
0.0283736
0.0283736
0.0283736
0.0283736
0.0283736
0.0283736
0.0283736
0.0283736
0.0283736
0.0283736
0.0283736
0.0283736
0.0283736
0.0283736
0.0283736
0.0283736
0.0283736
0.0283736
0.0283736
0.0283736
0.0283736
0.0283736
0.0283736
0.0283735
0.0283736
0.0283737
0.0283749
0.0292341
0.00861526
0.0313699
0.000486152
0.00463345
0.00132742
0.0708137
0.00563889
0.0137326
0.000897045
0.00354327
0.000941446
0.00600214
0.00229933
0.0378715
0.0825512
0.000114844
0.785089
0.0622933
0.856179
0.000181822
0.00529706
0.000690476
0.000893087
6.17694e-05
0.0010342
0.000133848
9.5548e-07
4.37904e-07
2.0289e-05
1.51936e-05
1.38804e-05
1.15318e-05
1.17397e-05
1.18396e-05
0.000960124
9.50305e-06
0.0283736
0.0283736
0.0283736
0.0283736
0.0283736
0.0283736
0.0283736
0.0283736
0.0283736
0.0283736
0.0283736
0.0283736
0.0283736
0.0283736
0.0283736
0.0283736
0.0283736
0.0283736
0.0283736
0.0283736
0.0283736
0.0283736
0.0283736
0.0283736
0.0283736
0.0283736
0.0283736
0.0283736
0.0283736
0.0283736
0.0283736
0.0283736
0.0283736
0.0283736
0.0283736
0.0283736
0.0283736
0.0283736
0.0283736
0.0283736
0.0283736
0.0283736
0.0283736
0.0283736
0.0283736
0.0283736
0.0283736
0.0283736
0.0283736
0.0283736
0.0283736
0.0283736
0.0283736
0.0283736
0.0283736
0.0283736
0.0283737
0.0283706
0.0282159
0.0419882
0.00569988
0.637949
0.828709
0.331206
0.0364928
0.0155304
0.000273077
0.000931949
0.00421702
0.81663
0.0180637
0.111978
0.0139667
0.0668749
0.0945984
0.139148
0.00883477
0.785656
0.04246
0.000113735
0.851867
4.78307e-05
0.499449
0.1062
0.131786
0.853903
0.000732885
0.00295823
0.00033304
0.000181871
6.65341e-05
0.000261501
4.89268e-05
1.26237e-06
4.8251e-07
3.66516e-06
0.0283736
0.0283736
0.0283736
0.0283736
0.0283736
0.0283736
0.0283736
0.0283736
0.0283736
0.0283736
0.0283736
0.0283736
0.0283736
0.0283736
0.0283736
0.0283736
0.0283736
0.0283736
0.0283736
0.0283736
0.0283736
0.0283736
0.0283736
0.0283736
0.0283736
0.0283736
0.0283736
0.0283736
0.0283736
0.0283736
0.0283736
0.0283736
0.0283736
0.0283736
0.0283736
0.0283736
0.0283736
0.0283736
0.0283736
0.0283736
0.0283736
0.0283736
0.0283736
0.0283736
0.0283736
0.0283736
0.0283736
0.0283736
0.0283736
0.0283736
0.0283736
0.0283736
0.0283736
0.0283736
0.0283736
0.0283736
0.0283733
0.0283628
0.0285585
0.0350744
0.020428
0.0137617
2.81275e-05
5.09574e-07
0.0287268
0.0987675
0.0408632
0.00232538
0.0538753
0.227753
0.0808231
0.0548919
0.0511347
0.00309469
0.0957405
0.0107166
0.0819987
0.228165
0.105059
0.000143861
0.853553
0.853554
3.77415e-08
0.0174992
0.027387
0.105301
0.00340956
0.229971
0.0947319
0.021886
0.0163098
0.00285025
0.000100637
2.24686e-16
0.00308069
0.00119302
0.0283736
0.0283736
0.0283736
0.0283736
0.0283736
0.0283736
0.0283736
0.0283736
0.0283736
0.0283736
0.0283736
0.0283736
0.0283736
0.0283736
0.0283736
0.0283736
0.0283736
0.0283736
0.0283736
0.0283736
0.0283736
0.0283736
0.0283736
0.0283736
0.0283736
0.0283736
0.0283736
0.0283736
0.0283736
0.0283736
0.0283736
0.0283736
0.0283736
0.0283736
0.0283736
0.0283736
0.0283736
0.0283736
0.0283736
0.0283736
0.0283736
0.0283736
0.0283736
0.0283736
0.0283736
0.0283736
0.0283736
0.0283736
0.0283736
0.0283736
0.0283736
0.0283736
0.0283736
0.0283736
0.0283736
0.0283734
0.028383
0.0282425
0.0334419
0.0340835
0.00121993
0.852053
0.666327
1.9037e-05
0.0443585
0.0264809
0.0375067
0.10903
0.82192
0.00443585
0.0355373
3.41958e-05
0.0613935
0.110864
0.0893825
1.30936e-11
0.162549
4.70542e-05
0.105563
0.00208145
0.810799
0.00229904
1.43381e-10
0.0565386
0.00616922
0.0105839
0.0110485
0.0142507
0.0199356
0.00528156
0.00891446
0.00353328
0.00174125
0.00749605
0.00229915
1.52169e-05
0.0283736
0.0283736
0.0283736
0.0283736
0.0283736
0.0283736
0.0283736
0.0283736
0.0283736
0.0283736
0.0283736
0.0283736
0.0283736
0.0283736
0.0283736
0.0283736
0.0283736
0.0283736
0.0283736
0.0283736
0.0283736
0.0283736
0.0283736
0.0283736
0.0283736
0.0283736
0.0283736
0.0283736
0.0283736
0.0283736
0.0283736
0.0283736
0.0283736
0.0283736
0.0283736
0.0283736
0.0283736
0.0283736
0.0283736
0.0283736
0.0283736
0.0283736
0.0283736
0.0283736
0.0283736
0.0283736
0.0283736
0.0283736
0.0283736
0.0283736
0.0283736
0.0283736
0.0283736
0.0283736
0.0283736
0.0283736
0.0283742
0.028362
0.028413
0.0380687
0.000312543
0.000219817
0.0307883
3.56717e-06
0.00214528
0.00590551
0.000125702
0.0249705
0.00800967
0.00510789
0.00128935
0.000280308
5.26522e-05
3.84295e-06
3.00876e-08
4.67648e-07
2.06265e-05
9.38561e-05
1.29479e-05
1.25e-05
8.10528e-05
4.32956e-05
4.27929e-05
8.13963e-05
0.00023144
1.01944e-05
2.8969e-05
0.00016582
5.44433e-05
3.1867e-06
1.99094e-05
2.27858e-05
7.0824e-06
1.03535e-05
0.000110705
7.30373e-06
0.0283736
0.0283736
0.0283736
0.0283736
0.0283736
0.0283736
0.0283736
0.0283736
0.0283736
0.0283736
0.0283736
0.0283736
0.0283736
0.0283736
0.0283736
0.0283736
0.0283736
0.0283736
0.0283736
0.0283736
0.0283736
0.0283736
0.0283736
0.0283736
0.0283736
0.0283736
0.0283736
0.0283736
0.0283736
0.0283736
0.0283736
0.0283736
0.0283736
0.0283736
0.0283736
0.0283736
0.0283736
0.0283736
0.0283736
0.0283736
0.0283736
0.0283736
0.0283736
0.0283736
0.0283736
0.0283736
0.0283736
0.0283736
0.0283736
0.0283736
0.0283736
0.0283736
0.0283736
0.0283736
0.0283736
0.0283736
0.0283737
0.0279133
0.0449252
0.0396015
0.00390118
0.000304455
0.00010168
3.83671e-05
6.68601e-05
9.87583e-05
8.05692e-07
5.17674e-07
0.000544352
0.000148132
0.000150686
9.23646e-05
0.00074409
0.000939475
0.00044785
0.000319084
0.00043229
0.000257284
0.000208302
0.000167814
0.000137702
0.000128695
0.000173122
0.000640412
0.000117754
0.000438787
0.000195481
0.000129638
0.000102242
7.86401e-05
9.47439e-05
0.000199327
0.000214447
0.000155706
0.000595938
9.51767e-06
0.0283736
0.0283736
0.0283736
0.0283736
0.0283736
0.0283736
0.0283736
0.0283736
0.0283736
0.0283736
0.0283736
0.0283736
0.0283736
0.0283736
0.0283736
0.0283736
0.0283736
0.0283736
0.0283736
0.0283736
0.0283736
0.0283736
0.0283736
0.0283736
0.0283736
0.0283736
0.0283736
0.0283736
0.0283736
0.0283736
0.0283736
0.0283736
0.0283736
0.0283736
0.0283736
0.0283736
0.0283736
0.0283736
0.0283736
0.0283736
0.0283736
0.0283736
0.0283736
0.0283736
0.0283736
0.0283736
0.0283736
0.0283736
0.0283736
0.0283736
0.0283736
0.0283736
0.0283736
0.0283736
0.0283736
0.0283735
0.0283735
0.0283785
0.0279526
0.0180655
0.0327935
6.59882e-10
1.6779e-05
6.31617e-05
5.53846e-05
2.90214e-05
2.93411e-05
0.000276326
0.000390681
0.000263916
0.000301578
0.000406747
0.000684421
0.000872309
0.00127354
0.000921915
0.00148825
0.000893014
0.000472528
0.000297684
0.000215676
0.000163511
0.000116047
0.000117036
0.00066788
5.78742e-05
0.000300799
8.05273e-05
9.06461e-05
7.71816e-05
8.46795e-05
0.000152925
0.000295162
0.00110946
0.000681656
9.14476e-06
0.0283736
0.0283736
0.0283736
0.0283736
0.0283736
0.0283736
0.0283736
0.0283736
0.0283736
0.0283736
0.0283736
0.0283736
0.0283736
0.0283736
0.0283736
0.0283736
0.0283736
0.0283736
0.0283736
0.0283736
0.0283736
0.0283736
0.0283736
0.0283736
0.0283736
0.0283736
0.0283736
0.0283736
0.0283736
0.0283736
0.0283736
0.0283736
0.0283736
0.0283736
0.0283736
0.0283736
0.0283736
0.0283736
0.0283736
0.0283736
0.0283736
0.0283736
0.0283736
0.0283736
0.0283736
0.0283736
0.0283736
0.0283736
0.0283736
0.0283736
0.0283736
0.0283736
0.0283736
0.0283736
0.0283736
0.0283736
0.0283738
0.0283737
0.0283868
0.0372827
0.00202416
3.47522e-07
0.00177816
0.000109244
7.33383e-05
6.88416e-05
0.000152258
0.000134645
0.000329566
0.000545922
0.00138523
0.00209106
0.0223601
0.0125001
0.00404138
0.00297293
0.00468331
0.00123948
0.000635345
0.000413742
0.000471244
0.00126937
0.000847564
0.00233702
0.00032467
9.31307e-05
6.7841e-05
0.000113687
4.98107e-05
9.15459e-05
9.24371e-05
0.000227685
0.000853619
0.000800506
0.00159805
9.3549e-06
0.0283736
0.0283736
0.0283736
0.0283736
0.0283736
0.0283736
0.0283736
0.0283736
0.0283736
0.0283736
0.0283736
0.0283736
0.0283736
0.0283736
0.0283736
0.0283736
0.0283736
0.0283736
0.0283736
0.0283736
0.0283736
0.0283736
0.0283736
0.0283736
0.0283736
0.0283736
0.0283736
0.0283736
0.0283736
0.0283736
0.0283736
0.0283736
0.0283736
0.0283736
0.0283736
0.0283736
0.0283736
0.0283736
0.0283736
0.0283736
0.0283736
0.0283736
0.0283736
0.0283736
0.0283736
0.0283736
0.0283736
0.0283736
0.0283736
0.0283736
0.0283736
0.0283736
0.0283736
0.0283736
0.0283736
0.0283736
0.0283738
0.0283738
0.0283855
0.0352525
0.0152151
7.86678e-07
4.11694e-07
2.57787e-05
5.02383e-05
0.000116184
0.000103664
0.000405198
0.00354912
0.00137174
0.00135612
0.000565838
0.000507658
0.000367716
0.000330578
0.000292727
0.0003418
0.000286239
0.000323249
0.00028064
0.000375697
0.000538751
0.000989344
0.000333136
0.000148368
0.000145812
4.15661e-05
0.000212928
3.84134e-05
7.50768e-05
0.00011886
0.000198057
0.00179747
0.000598476
0.000186651
9.53052e-06
0.0283736
0.0283736
0.0283736
0.0283736
0.0283736
0.0283736
0.0283736
0.0283736
0.0283736
0.0283736
0.0283736
0.0283736
0.0283736
0.0283736
0.0283736
0.0283736
0.0283736
0.0283736
0.0283736
0.0283736
0.0283736
0.0283736
0.0283736
0.0283736
0.0283736
0.0283736
0.0283736
0.0283736
0.0283736
0.0283736
0.0283736
0.0283736
0.0283736
0.0283736
0.0283736
0.0283736
0.0283736
0.0283736
0.0283736
0.0283736
0.0283736
0.0283736
0.0283736
0.0283736
0.0283736
0.0283736
0.0283736
0.0283736
0.0283736
0.0283736
0.0283736
0.0283736
0.0283736
0.0283736
0.0283736
0.0283735
0.028374
0.0283739
0.0286602
0.0377794
0.0318258
1.94138e-05
2.56535e-07
2.22739e-05
2.89234e-05
0.000131517
0.000251645
0.000531176
0.000212023
0.000290101
0.000875036
0.00277216
0.00304238
0.00295469
0.00535694
0.00295369
0.00164712
0.00229311
0.00130559
0.00272406
0.000372894
0.000302734
0.000150915
0.000160572
0.000695507
9.25101e-05
4.1963e-05
0.00046
3.59506e-05
6.37145e-05
0.000190079
0.000328453
0.000380359
0.000150066
0.000340834
9.28389e-06
0.0283736
0.0283736
0.0283736
0.0283736
0.0283736
0.0283736
0.0283736
0.0283736
0.0283736
0.0283736
0.0283736
0.0283736
0.0283736
0.0283736
0.0283736
0.0283736
0.0283736
0.0283736
0.0283736
0.0283736
0.0283736
0.0283736
0.0283736
0.0283736
0.0283736
0.0283736
0.0283736
0.0283736
0.0283736
0.0283736
0.0283736
0.0283736
0.0283736
0.0283736
0.0283736
0.0283736
0.0283736
0.0283736
0.0283736
0.0283736
0.0283736
0.0283736
0.0283736
0.0283736
0.0283736
0.0283736
0.0283736
0.0283736
0.0283736
0.0283736
0.0283736
0.0283736
0.0283736
0.0283736
0.0283736
0.0283735
0.028374
0.0283994
0.0328504
0.0316483
0.0131145
0.000635354
5.31878e-07
1.84769e-05
0.000106916
0.00082292
0.000422677
0.000151584
0.000171177
0.00020208
0.000228923
0.000196603
0.000232342
0.000277951
0.000347978
0.000491203
0.000466197
0.00119676
0.000953787
0.00305425
0.00141168
0.00449873
0.000311787
0.00359066
0.000320332
8.33701e-05
4.03653e-05
0.000171698
3.17343e-05
8.67798e-05
0.000249535
0.00510983
0.00037801
0.000309939
0.000444242
9.65164e-06
0.0283736
0.0283736
0.0283736
0.0283736
0.0283736
0.0283736
0.0283736
0.0283736
0.0283736
0.0283736
0.0283736
0.0283736
0.0283736
0.0283736
0.0283736
0.0283736
0.0283736
0.0283736
0.0283736
0.0283736
0.0283736
0.0283736
0.0283736
0.0283736
0.0283736
0.0283736
0.0283736
0.0283736
0.0283736
0.0283736
0.0283736
0.0283736
0.0283736
0.0283736
0.0283736
0.0283736
0.0283736
0.0283736
0.0283736
0.0283736
0.0283736
0.0283736
0.0283736
0.0283736
0.0283736
0.0283736
0.0283736
0.0283736
0.0283736
0.0283736
0.0283736
0.0283736
0.0283736
0.0283736
0.0283736
0.0283736
0.0283737
0.0287185
0.0374658
0.0279495
0.0155032
0.000706692
7.4997e-07
5.60537e-07
0.000123942
0.00050058
0.000381923
0.000238456
0.0271757
0.00152875
0.00229991
0.00404047
0.0122341
0.00702186
0.00373059
0.00294268
0.00153725
0.00145655
0.852832
9.21862e-07
0.00304306
0.00239163
0.00255767
0.0405742
0.00612846
0.00180324
0.00122571
0.00133704
0.000162914
5.45873e-05
3.48123e-05
5.23059e-05
8.99245e-05
0.000133928
0.00048521
9.14128e-06
0.0283736
0.0283736
0.0283736
0.0283736
0.0283736
0.0283736
0.0283736
0.0283736
0.0283736
0.0283736
0.0283736
0.0283736
0.0283736
0.0283736
0.0283736
0.0283736
0.0283736
0.0283736
0.0283736
0.0283736
0.0283736
0.0283736
0.0283736
0.0283736
0.0283736
0.0283736
0.0283736
0.0283736
0.0283736
0.0283736
0.0283736
0.0283736
0.0283736
0.0283736
0.0283736
0.0283736
0.0283736
0.0283736
0.0283736
0.0283736
0.0283736
0.0283736
0.0283736
0.0283736
0.0283736
0.0283736
0.0283736
0.0283736
0.0283736
0.0283736
0.0283736
0.0283736
0.0283736
0.0283736
0.0283736
0.0283736
0.0283738
0.0283811
0.0283478
0.0321497
0.0128484
8.04878e-05
5.09724e-07
4.46205e-05
7.42064e-05
0.000115604
0.00037888
0.000352239
0.000351275
0.000624093
0.00148387
0.000309671
0.000310019
0.00474384
0.000787834
0.00126417
0.00494825
0.00299097
0.00664478
0.00144415
0.00133016
0.00228064
0.0026872
5.06027e-06
0.00317255
0.00219497
0.0128848
0.00123355
0.000321863
6.31377e-05
4.7831e-05
9.18642e-05
6.1031e-05
3.31047e-05
5.92825e-05
8.9309e-06
0.0283736
0.0283736
0.0283736
0.0283736
0.0283736
0.0283736
0.0283736
0.0283736
0.0283736
0.0283736
0.0283736
0.0283736
0.0283736
0.0283736
0.0283736
0.0283736
0.0283736
0.0283736
0.0283736
0.0283736
0.0283736
0.0283736
0.0283736
0.0283736
0.0283736
0.0283736
0.0283736
0.0283736
0.0283736
0.0283736
0.0283736
0.0283736
0.0283736
0.0283736
0.0283736
0.0283736
0.0283736
0.0283736
0.0283736
0.0283736
0.0283736
0.0283736
0.0283736
0.0283736
0.0283736
0.0283736
0.0283736
0.0283736
0.0283736
0.0283736
0.0283736
0.0283736
0.0283736
0.0283736
0.0283736
0.0283736
0.0283737
0.0283741
0.0255259
0.0360199
0.0321534
7.25474e-07
5.27042e-05
8.92545e-05
6.56505e-05
0.00155287
0.000325342
0.000456903
0.00019593
0.00315331
0.000556632
8.07623e-05
0.0054945
0.00514066
0.000839228
0.000374516
0.00033055
0.000565176
0.00341754
0.00113578
0.000799229
0.00108911
0.00398758
0.00210535
0.00203556
0.00103824
0.000426169
0.00029498
0.000154932
0.000106073
0.00010977
0.00017282
0.00010992
3.28701e-05
2.66823e-05
8.87777e-06
0.0283736
0.0283736
0.0283736
0.0283736
0.0283736
0.0283736
0.0283736
0.0283736
0.0283736
0.0283736
0.0283736
0.0283736
0.0283736
0.0283736
0.0283736
0.0283736
0.0283736
0.0283736
0.0283736
0.0283736
0.0283736
0.0283736
0.0283736
0.0283736
0.0283736
0.0283736
0.0283736
0.0283736
0.0283736
0.0283736
0.0283736
0.0283736
0.0283736
0.0283736
0.0283736
0.0283736
0.0283736
0.0283736
0.0283736
0.0283736
0.0283736
0.0283736
0.0283736
0.0283736
0.0283736
0.0283736
0.0283736
0.0283736
0.0283736
0.0283736
0.0283736
0.0283736
0.0283736
0.0283736
0.0283736
0.0283736
0.0283736
0.0283727
0.0284821
0.0283533
0.0604727
4.95796e-08
4.04191e-05
6.58485e-07
4.20845e-05
3.94325e-05
0.000110011
4.13245e-05
3.17473e-05
9.51869e-07
7.19471e-07
1.39984e-06
7.27959e-07
4.14628e-05
4.41623e-05
5.81673e-05
7.70912e-05
0.000193802
0.00134172
0.000137014
0.000103627
0.000119653
0.0015286
0.000287412
0.0028457
0.00430448
0.00152786
0.00158003
0.000188462
0.000172261
0.000910722
0.00196673
0.000110839
3.10267e-05
2.0223e-05
8.1897e-06
0.0283736
0.0283736
0.0283736
0.0283736
0.0283736
0.0283736
0.0283736
0.0283736
0.0283736
0.0283736
0.0283736
0.0283736
0.0283736
0.0283736
0.0283736
0.0283736
0.0283736
0.0283736
0.0283736
0.0283736
0.0283736
0.0283736
0.0283736
0.0283736
0.0283736
0.0283736
0.0283736
0.0283736
0.0283736
0.0283736
0.0283736
0.0283736
0.0283736
0.0283736
0.0283736
0.0283736
0.0283736
0.0283736
0.0283736
0.0283736
0.0283736
0.0283736
0.0283736
0.0283736
0.0283736
0.0283736
0.0283736
0.0283736
0.0283736
0.0283736
0.0283736
0.0283736
0.0283736
0.0283736
0.0283736
0.0283736
0.0283736
0.0283757
0.0284109
0.0339771
0.00690851
0.000865579
0.00147908
0.00142377
0.000421846
0.00886327
0.00153429
0.00101753
0.00247021
0.00660734
0.142324
0.00814915
0.00120089
0.00120476
0.0144996
0.000302753
0.00208092
0.00193078
0.00195845
2.49272e-06
4.52607e-06
7.86669e-07
4.22644e-09
4.63317e-05
1.84173e-06
5.88171e-05
0.000126458
0.000174897
0.000400821
0.000250475
0.0211109
0.000729552
8.1717e-05
3.19752e-05
2.21899e-05
8.24564e-06
0.0283736
0.0283736
0.0283736
0.0283736
0.0283736
0.0283736
0.0283736
0.0283736
0.0283736
0.0283736
0.0283736
0.0283736
0.0283736
0.0283736
0.0283736
0.0283736
0.0283736
0.0283736
0.0283736
0.0283736
0.0283736
0.0283736
0.0283736
0.0283736
0.0283736
0.0283736
0.0283736
0.0283736
0.0283736
0.0283736
0.0283736
0.0283736
0.0283736
0.0283736
0.0283736
0.0283736
0.0283736
0.0283736
0.0283736
0.0283736
0.0283736
0.0283736
0.0283736
0.0283736
0.0283736
0.0283736
0.0283736
0.0283736
0.0283736
0.0283736
0.0283736
0.0283736
0.0283736
0.0283736
0.0283736
0.0283736
0.0283734
0.0283721
0.0283535
0.0424671
0.0353049
0.0271043
0.854511
0.126624
0.0532822
0.281031
0.000834832
0.0168243
0.00501805
3.46916e-05
1.58371e-05
0.0414669
0.039909
0.000107704
0.0293018
0.0268988
0.000318822
0.108542
0.132853
0.0767265
0.04901
0.0002305
0.86772
0.00515148
0.00406881
0.000151321
1.16619e-05
3.6415e-05
4.10683e-05
2.16879e-06
0.000211827
6.55698e-05
2.91767e-05
1.14796e-05
4.61001e-06
2.95138e-06
0.0283736
0.0283736
0.0283736
0.0283736
0.0283736
0.0283736
0.0283736
0.0283736
0.0283736
0.0283736
0.0283736
0.0283736
0.0283736
0.0283736
0.0283736
0.0283736
0.0283736
0.0283736
0.0283736
0.0283736
0.0283736
0.0283736
0.0283736
0.0283736
0.0283736
0.0283736
0.0283736
0.0283736
0.0283736
0.0283736
0.0283736
0.0283736
0.0283736
0.0283736
0.0283736
0.0283736
0.0283736
0.0283736
0.0283736
0.0283736
0.0283736
0.0283736
0.0283736
0.0283736
0.0283736
0.0283736
0.0283736
0.0283736
0.0283736
0.0283736
0.0283736
0.0283736
0.0283736
0.0283736
0.0283736
0.0283736
0.0283735
0.0283736
0.0286732
0.0489106
0.00721743
2.54288e-12
0.0949097
0.0368704
0.0318121
0.0814188
0.000943638
0.101094
0.00821803
0.098232
0.0238041
0.0166794
0.0348194
0.0722899
4.80764e-07
0.0311034
0.0227526
0.0313714
0.023764
0.0468091
0.0802099
0.00515719
1.34449e-06
0.209358
0.0684216
0.00208698
0.0751144
0.888545
0.00051405
0.0199643
5.32353e-05
0.0198403
0.0876349
0.178297
0.000724233
2.71043e-07
0.0283736
0.0283736
0.0283736
0.0283736
0.0283736
0.0283736
0.0283736
0.0283736
0.0283736
0.0283736
0.0283736
0.0283736
0.0283736
0.0283736
0.0283736
0.0283736
0.0283736
0.0283736
0.0283736
0.0283736
0.0283736
0.0283736
0.0283736
0.0283736
0.0283736
0.0283736
0.0283736
0.0283736
0.0283736
0.0283736
0.0283736
0.0283736
0.0283736
0.0283736
0.0283736
0.0283736
0.0283736
0.0283736
0.0283736
0.0283736
0.0283736
0.0283736
0.0283736
0.0283736
0.0283736
0.0283736
0.0283736
0.0283736
0.0283736
0.0283736
0.0283736
0.0283736
0.0283736
0.0283736
0.0283736
0.0283736
0.0283736
0.0283846
0.0286139
0.0508303
0.000996889
2.7579e-05
0.0390266
0.0440742
0.0343025
0.0357469
0.00025176
0.0835624
0.0240681
0.0940419
0.0427401
0.00895931
0.029896
0.00955824
0.00943727
0.0122292
0.0835822
4.44603e-05
0.0156551
0.0313244
0.0341727
0.109679
0.0358957
0.0173956
0.0317405
0.0187117
0.0264251
0.0851577
0.0255935
0.0224961
0.0162986
0.0203383
0.000256468
0.0446789
0.0995871
2.54583e-07
0.0283736
0.0283736
0.0283736
0.0283736
0.0283736
0.0283736
0.0283736
0.0283736
0.0283736
0.0283736
0.0283736
0.0283736
0.0283736
0.0283736
0.0283736
0.0283736
0.0283736
0.0283736
0.0283736
0.0283736
0.0283736
0.0283736
0.0283736
0.0283736
0.0283736
0.0283736
0.0283736
0.0283736
0.0283736
0.0283736
0.0283736
0.0283736
0.0283736
0.0283736
0.0283736
0.0283736
0.0283736
0.0283736
0.0283736
0.0283736
0.0283736
0.0283736
0.0283736
0.0283736
0.0283736
0.0283736
0.0283736
0.0283736
0.0283736
0.0283736
0.0283736
0.0283736
0.0283736
0.0283736
0.0283736
0.0283736
0.0283736
0.028355
0.0274235
0.0361959
0.017589
0.0251463
0.0203298
0.0159497
0.127918
6.22816e-07
0.007737
0.0185293
0.00365975
0.000324744
0.00597596
0.0174237
0.0985187
0.000375783
0.147996
0.294775
0.00215199
0.122831
0.0357375
0.0412995
0.0333749
0.0027514
0.0149927
0.00599971
0.0453004
0.073453
0.00222462
0.0143083
0.0229446
0.0449162
0.0353194
0.0339495
0.0303379
0.0477784
7.04656e-07
0.00387171
0.0283736
0.0283736
0.0283736
0.0283736
0.0283736
0.0283736
0.0283736
0.0283736
0.0283736
0.0283736
0.0283736
0.0283736
0.0283736
0.0283736
0.0283736
0.0283736
0.0283736
0.0283736
0.0283736
0.0283736
0.0283736
0.0283736
0.0283736
0.0283736
0.0283736
0.0283736
0.0283736
0.0283736
0.0283736
0.0283736
0.0283736
0.0283736
0.0283736
0.0283736
0.0283736
0.0283736
0.0283736
0.0283736
0.0283736
0.0283736
0.0283736
0.0283736
0.0283736
0.0283736
0.0283736
0.0283736
0.0283736
0.0283736
0.0283736
0.0283736
0.0283736
0.0283736
0.0283736
0.0283736
0.0283736
0.0283736
0.0283736
0.0283736
0.028359
0.0356345
0.000107814
0.0928479
5.98862e-05
0.00676056
0.00117007
0.00283117
0.00439505
0.0138862
0.0106974
0.000360694
0.00186198
0.000439047
0.00034794
0.00047888
0.000703074
0.000575366
0.000826748
0.000547042
0.000146616
9.12569e-05
0.000261343
0.00179433
0.000419038
0.00124377
0.00128404
0.000357385
0.000729195
0.000731163
0.00101313
0.00102178
0.000697681
0.000165029
1.58971e-05
2.1271e-06
3.76975e-07
5.11991e-06
0.0283736
0.0283736
0.0283736
0.0283736
0.0283736
0.0283736
0.0283736
0.0283736
0.0283736
0.0283736
0.0283736
0.0283736
0.0283736
0.0283736
0.0283736
0.0283736
0.0283736
0.0283736
0.0283736
0.0283736
0.0283736
0.0283736
0.0283736
0.0283736
0.0283736
0.0283736
0.0283736
0.0283736
0.0283736
0.0283736
0.0283736
0.0283736
0.0283736
0.0283736
0.0283736
0.0283736
0.0283736
0.0283736
0.0283736
0.0283736
0.0283736
0.0283736
0.0283736
0.0283736
0.0283736
0.0283736
0.0283736
0.0283736
0.0283736
0.0283736
0.0283736
0.0283736
0.0283736
0.0283736
0.0283736
0.0283735
0.0283738
0.0283774
0.026362
0.0426964
0.00790448
2.16336e-07
0.000180899
3.71288e-06
0.000288409
1.00377e-06
5.91286e-05
2.30831e-05
6.02978e-05
3.50913e-05
3.70083e-05
3.41107e-05
3.90603e-05
3.96688e-05
3.84152e-05
3.73683e-05
3.54546e-05
3.13544e-05
2.50327e-05
2.14794e-05
2.36914e-05
5.42095e-05
0.00146608
5.47924e-05
2.75348e-05
2.51408e-05
3.27177e-05
3.56804e-05
2.95362e-05
2.91771e-05
2.14083e-05
1.55841e-05
1.19459e-05
1.28725e-05
0.000117004
1.00457e-05
0.0283736
0.0283736
0.0283736
0.0283736
0.0283736
0.0283736
0.0283736
0.0283736
0.0283736
0.0283736
0.0283736
0.0283736
0.0283736
0.0283736
0.0283736
0.0283736
0.0283736
0.0283736
0.0283736
0.0283736
0.0283736
0.0283736
0.0283736
0.0283736
0.0283736
0.0283736
0.0283736
0.0283736
0.0283736
0.0283736
0.0283736
0.0283736
0.0283736
0.0283736
0.0283736
0.0283736
0.0283736
0.0283736
0.0283736
0.0283736
0.0283736
0.0283736
0.0283736
0.0283736
0.0283736
0.0283736
0.0283736
0.0283736
0.0283736
0.0283736
0.0283736
0.0283736
0.0283736
0.0283736
0.0283736
0.0283736
0.0283736
0.0283734
0.0276713
0.0314274
0.091636
4.04411e-07
3.44708e-05
3.0636e-05
5.90627e-05
0.000233282
0.00109257
0.000469955
0.00123239
0.000788245
0.000527747
0.000527839
0.000670853
0.000765421
0.000742452
0.000590255
0.000607037
0.000600671
0.000453627
0.000229373
0.000114841
0.00010944
0.000169692
0.000414726
0.00117667
9.84118e-05
7.2669e-05
0.00205427
0.000770275
6.8954e-05
3.43477e-05
5.51976e-05
0.000144478
0.000133302
0.000464794
9.39003e-06
0.0283736
0.0283736
0.0283736
0.0283736
0.0283736
0.0283736
0.0283736
0.0283736
0.0283736
0.0283736
0.0283736
0.0283736
0.0283736
0.0283736
0.0283736
0.0283736
0.0283736
0.0283736
0.0283736
0.0283736
0.0283736
0.0283736
0.0283736
0.0283736
0.0283736
0.0283736
0.0283736
0.0283736
0.0283736
0.0283736
0.0283736
0.0283736
0.0283736
0.0283736
0.0283736
0.0283736
0.0283736
0.0283736
0.0283736
0.0283736
0.0283736
0.0283736
0.0283736
0.0283736
0.0283736
0.0283736
0.0283736
0.0283736
0.0283736
0.0283736
0.0283736
0.0283736
0.0283736
0.0283736
0.0283736
0.0283736
0.0283737
0.0283738
0.0284146
0.0365741
0.0220903
4.49932e-10
5.12862e-05
0.000114192
0.000231655
0.000138734
0.000168368
0.000219035
0.000242713
0.000188169
0.000181556
0.000198179
0.000216941
0.000219468
0.000210493
0.000194764
0.000192431
0.000210694
0.000196328
0.000198105
0.000161515
0.000310298
0.00107803
0.00124366
0.000238576
0.000100286
7.52106e-05
0.000234126
0.000185863
7.61756e-05
3.02124e-05
5.04444e-05
0.000378148
0.0340682
0.000297164