/*--------------------------------*- C++ -*----------------------------------*\
| =========                 |                                                 |
| \\      /  F ield         | OpenFOAM: The Open Source CFD Toolbox           |
|  \\    /   O peration     | Version:  2.3.0                                 |
|   \\  /    A nd           | Web:      www.OpenFOAM.org                      |
|    \\/     M anipulation  |                                                 |
\*---------------------------------------------------------------------------*/
FoamFile
{
    version     2.0;
    format      ascii;
    class       volScalarField;
    location    "48";
    object      alpha.water;
}
// * * * * * * * * * * * * * * * * * * * * * * * * * * * * * * * * * * * * * //

dimensions      [0 0 0 0 0 0 0];

internalField   nonuniform List<scalar> 
6144
(
4.00923e-06
4.66657e-06
5.1054e-06
5.52148e-06
5.96001e-06
6.83709e-06
7.89794e-06
8.84736e-06
9.56964e-06
9.90682e-06
9.96813e-06
9.97725e-06
9.98031e-06
9.98499e-06
9.98718e-06
9.989e-06
9.98853e-06
9.98911e-06
9.98862e-06
9.98876e-06
9.98865e-06
9.98842e-06
9.98788e-06
9.98735e-06
9.98679e-06
9.98641e-06
9.98601e-06
9.98555e-06
9.985e-06
9.9845e-06
9.98394e-06
9.98342e-06
9.98285e-06
9.98225e-06
9.98153e-06
9.98085e-06
9.98027e-06
9.9798e-06
9.97936e-06
9.97874e-06
9.9783e-06
9.97793e-06
9.98152e-06
1.00204e-05
1.0214e-05
1.10666e-05
1.45289e-05
2.78785e-05
4.50935e-05
6.7033e-05
0.000102711
0.000130714
0.000135013
0.000134308
0.000131373
0.000128592
0.000121202
0.000126185
0.000721974
0.0470506
0.96789
0.999863
1
1
1
1
0.999999
0.999999
0.999999
0.999999
0.999999
0.999999
0.999999
0.999999
0.999999
0.999999
0.999999
0.999999
1
1
1
1
1
1
1
1
1
1
1
1
1
1
1
1
1
1
3.70622e-06
4.50552e-06
5.3225e-06
5.77035e-06
6.40016e-06
7.16407e-06
8.03965e-06
8.89773e-06
9.59486e-06
9.89702e-06
9.96184e-06
9.97498e-06
9.98055e-06
9.98839e-06
9.99338e-06
9.99648e-06
9.99669e-06
9.99696e-06
9.99606e-06
9.99601e-06
9.99581e-06
9.99535e-06
9.99479e-06
9.99431e-06
9.99392e-06
9.99374e-06
9.9937e-06
9.99338e-06
9.99306e-06
9.99283e-06
9.99261e-06
9.99236e-06
9.99205e-06
9.99159e-06
9.99097e-06
9.99021e-06
9.98935e-06
9.98835e-06
9.98729e-06
9.9861e-06
9.98608e-06
9.98738e-06
9.99656e-06
1.00352e-05
1.0154e-05
1.04902e-05
1.19244e-05
1.69993e-05
2.67442e-05
5.44164e-05
0.000103722
0.000138086
0.000142268
0.000141952
0.000138928
0.000134975
0.000124121
0.000130638
0.000362185
0.0373913
0.972698
0.999929
1
1
1
0.999999
0.999999
0.999999
0.999999
0.999999
0.999999
0.999999
0.999999
1
1
1
1
1
0.999999
0.999999
0.999999
0.999999
0.999999
0.999999
1
1
1
1
1
1
1
1
1
1
1
1
3.57347e-06
4.22822e-06
5.20217e-06
5.77632e-06
6.59065e-06
7.35926e-06
8.17125e-06
8.92125e-06
9.43825e-06
9.73967e-06
9.86933e-06
9.92807e-06
9.96027e-06
9.97812e-06
9.98743e-06
9.99379e-06
9.99567e-06
9.99625e-06
9.99609e-06
9.99613e-06
9.99583e-06
9.99553e-06
9.99509e-06
9.99463e-06
9.99417e-06
9.99381e-06
9.99345e-06
9.99311e-06
9.9928e-06
9.99253e-06
9.99215e-06
9.99161e-06
9.99073e-06
9.98971e-06
9.98858e-06
9.98743e-06
9.98622e-06
9.98505e-06
9.98411e-06
9.98398e-06
9.9849e-06
9.98993e-06
1.00197e-05
1.01677e-05
1.05122e-05
1.10996e-05
1.23077e-05
1.52743e-05
2.37128e-05
5.3414e-05
0.000102042
0.000133472
0.000141857
0.00014382
0.000142807
0.000140898
0.000131356
0.000133612
0.000279439
0.0387567
0.973443
0.999928
1
1
0.999999
0.999999
0.999999
0.999999
0.999999
0.999999
0.999999
0.999999
0.999999
0.999999
0.999999
0.999999
0.999999
0.999999
0.999999
0.999999
0.999999
0.999999
0.999999
0.999999
1
1
1
1
1
1
1
1
1
1
1
1
3.51819e-06
3.97781e-06
4.90848e-06
5.48739e-06
6.59328e-06
7.40067e-06
8.14265e-06
8.81253e-06
9.33357e-06
9.65566e-06
9.81716e-06
9.90485e-06
9.95062e-06
9.97279e-06
9.98284e-06
9.98988e-06
9.99164e-06
9.99202e-06
9.99169e-06
9.99163e-06
9.99128e-06
9.99104e-06
9.99054e-06
9.98992e-06
9.98931e-06
9.98866e-06
9.98818e-06
9.98772e-06
9.98747e-06
9.98725e-06
9.98716e-06
9.98693e-06
9.98651e-06
9.98581e-06
9.985e-06
9.98409e-06
9.98314e-06
9.98275e-06
9.98275e-06
9.98275e-06
9.98379e-06
9.99255e-06
1.0079e-05
1.05084e-05
1.1508e-05
1.29453e-05
1.49986e-05
1.83639e-05
2.66234e-05
5.46437e-05
9.7846e-05
0.000131509
0.000146647
0.000153551
0.000153273
0.000152637
0.000147498
0.000144608
0.00030539
0.0459621
0.974935
0.999931
0.999999
0.999999
0.999999
0.999999
0.999999
0.999999
0.999999
0.999999
0.999999
0.999999
0.999999
0.999999
0.999999
0.999999
0.999999
0.999999
0.999999
0.999999
0.999999
1
1
1
1
1
1
1
1
1
1
1
1
1
1
1
3.4483e-06
3.79675e-06
4.59359e-06
5.12326e-06
6.29547e-06
7.09835e-06
8.02864e-06
8.71907e-06
9.23137e-06
9.5809e-06
9.77745e-06
9.89244e-06
9.94947e-06
9.97483e-06
9.98562e-06
9.99297e-06
9.99499e-06
9.99548e-06
9.99538e-06
9.99555e-06
9.99538e-06
9.99532e-06
9.99485e-06
9.99432e-06
9.99364e-06
9.99302e-06
9.99235e-06
9.99179e-06
9.99117e-06
9.99066e-06
9.99008e-06
9.98947e-06
9.98868e-06
9.98787e-06
9.98696e-06
9.98608e-06
9.98513e-06
9.98423e-06
9.98355e-06
9.98357e-06
9.98544e-06
1.00108e-05
1.03186e-05
1.14456e-05
1.38295e-05
1.76314e-05
2.28952e-05
2.73639e-05
3.53305e-05
6.11558e-05
0.000109288
0.00014502
0.000156043
0.000157899
0.000153773
0.000142415
0.000139108
0.000142284
0.000393796
0.0754816
0.989883
0.999936
0.999958
0.999972
0.99998
0.999992
0.999998
0.999999
0.999999
0.999999
0.999999
0.999999
0.999999
1
1
1
1
1
1
1
1
1
1
1
1
1
1
1
1
1
1
1
1
1
1
1
3.3474e-06
3.68192e-06
4.28459e-06
4.70343e-06
5.95112e-06
6.76336e-06
7.78198e-06
8.60389e-06
9.11937e-06
9.50765e-06
9.74001e-06
9.87956e-06
9.94488e-06
9.97107e-06
9.98075e-06
9.98729e-06
9.98898e-06
9.98923e-06
9.9891e-06
9.98919e-06
9.98915e-06
9.98921e-06
9.98901e-06
9.98871e-06
9.98827e-06
9.98779e-06
9.98735e-06
9.98684e-06
9.98635e-06
9.98581e-06
9.98528e-06
9.98458e-06
9.9838e-06
9.98288e-06
9.98199e-06
9.98104e-06
9.98043e-06
9.98043e-06
9.98043e-06
9.98043e-06
9.98322e-06
1.01138e-05
1.11317e-05
1.39203e-05
1.94931e-05
2.7384e-05
3.50149e-05
3.8693e-05
4.51096e-05
7.06496e-05
0.000128226
0.000153065
0.000158342
0.000150705
0.000121783
0.000112901
0.000110581
0.000114012
0.000184142
0.131594
0.98948
0.999144
0.999213
0.999447
0.999516
0.999725
0.999784
0.999822
0.999871
0.999883
0.999883
0.999897
0.999908
0.999921
0.999946
0.999957
0.999959
0.999966
0.999969
0.999975
0.999978
0.999989
0.999995
0.999996
0.999995
0.999995
0.999995
0.999998
0.999999
1
1
1
1
1
1
1
3.21767e-06
3.59517e-06
4.0626e-06
4.36735e-06
5.59671e-06
6.47453e-06
7.33611e-06
8.43664e-06
9.02569e-06
9.43742e-06
9.70262e-06
9.87008e-06
9.94497e-06
9.97368e-06
9.98414e-06
9.99156e-06
9.9934e-06
9.99368e-06
9.99345e-06
9.99356e-06
9.99338e-06
9.99279e-06
9.99204e-06
9.99147e-06
9.99078e-06
9.99008e-06
9.98936e-06
9.98878e-06
9.98826e-06
9.98779e-06
9.98726e-06
9.98668e-06
9.98589e-06
9.98499e-06
9.98404e-06
9.98309e-06
9.98231e-06
9.98224e-06
9.98279e-06
9.98427e-06
1.00155e-05
1.05341e-05
1.26863e-05
1.84281e-05
2.72958e-05
3.56397e-05
4.22523e-05
4.55821e-05
5.31666e-05
9.30811e-05
0.000148869
0.000157839
0.000139306
0.000117567
0.000111881
0.000111379
0.000110479
0.000110573
0.000107244
0.217087
0.98121
0.993547
0.993537
0.993663
0.993374
0.99318
0.992739
0.992482
0.992308
0.992168
0.992013
0.991788
0.991628
0.991489
0.991393
0.991324
0.991303
0.991462
0.991698
0.992077
0.992565
0.993112
0.993708
0.994319
0.994958
0.995705
0.996532
0.997461
0.99841
0.999265
0.999738
0.999875
0.999871
0.999866
0.999869
0.999899
3.01256e-06
3.51236e-06
3.93702e-06
4.1792e-06
5.31507e-06
6.24507e-06
7.0655e-06
8.22681e-06
8.92649e-06
9.39057e-06
9.67921e-06
9.86021e-06
9.94213e-06
9.97259e-06
9.98184e-06
9.99095e-06
9.99305e-06
9.99349e-06
9.99327e-06
9.99337e-06
9.99328e-06
9.99342e-06
9.99346e-06
9.99343e-06
9.99342e-06
9.99332e-06
9.99314e-06
9.99293e-06
9.99274e-06
9.99243e-06
9.99197e-06
9.9914e-06
9.99067e-06
9.98987e-06
9.98913e-06
9.98837e-06
9.98786e-06
9.98762e-06
9.98779e-06
9.99111e-06
1.01265e-05
1.09877e-05
1.40021e-05
2.11949e-05
2.97738e-05
3.73825e-05
4.40786e-05
4.94769e-05
6.18137e-05
0.000114096
0.000155258
0.000147956
0.00012637
0.000116398
0.00011537
0.000115079
0.000113474
0.000114114
0.000107244
0.42923
0.97173
0.977573
0.977252
0.977006
0.976718
0.976519
0.976279
0.975705
0.975085
0.974721
0.974477
0.974189
0.974033
0.974006
0.974071
0.974215
0.974366
0.974499
0.974535
0.974507
0.974331
0.974088
0.973802
0.973577
0.973435
0.973337
0.973271
0.97311
0.972753
0.972301
0.971903
0.971549
0.971291
0.972144
0.973898
0.977551
2.69983e-06
3.37311e-06
3.78844e-06
4.08572e-06
5.09285e-06
6.11424e-06
7.29818e-06
8.03918e-06
8.81101e-06
9.33325e-06
9.644e-06
9.84242e-06
9.93243e-06
9.96546e-06
9.97425e-06
9.9847e-06
9.98685e-06
9.98769e-06
9.98741e-06
9.98747e-06
9.98753e-06
9.988e-06
9.98821e-06
9.98832e-06
9.98839e-06
9.98837e-06
9.98819e-06
9.98795e-06
9.98769e-06
9.98732e-06
9.98681e-06
9.98616e-06
9.98534e-06
9.98437e-06
9.9834e-06
9.9828e-06
9.9828e-06
9.9828e-06
9.9828e-06
9.98573e-06
1.01333e-05
1.09576e-05
1.43227e-05
2.16575e-05
2.98746e-05
3.74284e-05
4.45464e-05
5.06804e-05
7.16622e-05
0.000129761
0.000153897
0.000138336
0.000120123
0.000114651
0.000114021
0.000114916
0.000113708
0.000116049
0.000107244
0.356515
0.978259
0.985904
0.986397
0.98744
0.988385
0.989417
0.99046
0.991656
0.993002
0.994468
0.995743
0.996767
0.997277
0.997511
0.997586
0.997526
0.997472
0.997381
0.99726
0.997031
0.996722
0.996321
0.995878
0.995404
0.994883
0.99435
0.993892
0.993575
0.993332
0.992992
0.992526
0.99232
0.992209
0.993429
0.995452
0.997252
2.4027e-06
2.97463e-06
3.41492e-06
3.80417e-06
4.86838e-06
6.04507e-06
7.50606e-06
7.98707e-06
8.76283e-06
9.33698e-06
9.64013e-06
9.82713e-06
9.92342e-06
9.96578e-06
9.97799e-06
9.98985e-06
9.99259e-06
9.99357e-06
9.99303e-06
9.99292e-06
9.99277e-06
9.99293e-06
9.99287e-06
9.99268e-06
9.99241e-06
9.99206e-06
9.9916e-06
9.99115e-06
9.99066e-06
9.99012e-06
9.98949e-06
9.9887e-06
9.98773e-06
9.98658e-06
9.98535e-06
9.9846e-06
9.98445e-06
9.98451e-06
9.98478e-06
9.98965e-06
1.00905e-05
1.08104e-05
1.41576e-05
2.14184e-05
2.93739e-05
3.6906e-05
4.44167e-05
5.10598e-05
7.63658e-05
0.00013284
0.00015052
0.000132372
0.00011697
0.000113012
0.00011204
0.000121134
0.000113816
0.000118102
0.000107244
0.189052
0.988247
0.997324
0.997745
0.998473
0.998804
0.999175
0.99941
0.99964
0.999801
0.999921
0.999978
0.999993
0.99999
0.999985
0.99998
0.999976
0.99997
0.999966
0.999965
0.999963
0.999959
0.999945
0.999917
0.999874
0.999827
0.999784
0.999759
0.999748
0.999773
0.999804
0.999817
0.999813
0.999806
0.999866
0.999935
0.999971
2.11656e-06
2.55019e-06
2.92829e-06
3.36925e-06
4.49344e-06
5.7962e-06
7.38987e-06
8.29531e-06
8.78662e-06
9.35039e-06
9.65329e-06
9.81767e-06
9.90364e-06
9.95461e-06
9.97099e-06
9.98451e-06
9.98748e-06
9.98912e-06
9.98916e-06
9.98957e-06
9.9899e-06
9.99034e-06
9.99063e-06
9.99078e-06
9.99085e-06
9.99081e-06
9.99061e-06
9.99028e-06
9.9899e-06
9.98947e-06
9.98894e-06
9.98814e-06
9.98724e-06
9.98622e-06
9.9853e-06
9.98468e-06
9.98433e-06
9.98415e-06
9.98415e-06
9.98416e-06
1.00174e-05
1.05087e-05
1.33882e-05
1.93488e-05
2.63318e-05
3.52286e-05
4.458e-05
5.45476e-05
7.61232e-05
0.000129479
0.000146937
0.000128157
0.00011602
0.000113611
0.000117122
0.000122849
0.000113963
0.000118384
0.000107244
0.119226
0.991637
0.999926
0.999958
0.999989
0.999993
0.999998
0.999998
0.999999
0.999999
0.999999
0.999999
0.999999
0.999999
0.999999
0.999999
0.999999
0.999999
0.999999
0.999999
0.999999
0.999999
0.999999
0.999999
0.999999
0.999999
0.999999
0.999999
0.999999
0.999999
0.999999
0.999999
0.999999
0.999999
0.999999
1
1
1.92423e-06
2.16437e-06
2.34742e-06
2.6589e-06
3.66781e-06
5.01478e-06
6.8431e-06
8.22753e-06
8.88737e-06
9.39337e-06
9.7014e-06
9.83216e-06
9.88796e-06
9.92934e-06
9.95207e-06
9.97538e-06
9.98677e-06
9.98987e-06
9.98983e-06
9.99023e-06
9.99054e-06
9.99094e-06
9.99123e-06
9.99141e-06
9.99151e-06
9.99154e-06
9.99138e-06
9.99114e-06
9.99079e-06
9.99061e-06
9.99054e-06
9.99011e-06
9.98958e-06
9.9891e-06
9.9889e-06
9.98863e-06
9.98825e-06
9.98764e-06
9.98696e-06
9.9865e-06
9.99701e-06
1.01689e-05
1.14332e-05
1.46133e-05
2.02738e-05
2.97388e-05
4.18955e-05
5.66135e-05
7.27757e-05
0.000120468
0.000143755
0.00013227
0.000117744
0.000116704
0.0001182
0.000118439
0.000110047
0.000114255
0.000107244
0.0544486
0.975697
0.999992
0.999999
0.999999
0.999999
0.999999
0.999999
0.999999
0.999999
0.999999
0.999999
0.999999
0.999999
0.999999
0.999999
0.999999
0.999999
0.999999
0.999999
0.999999
0.999999
0.999999
0.999999
0.999999
0.999999
0.999999
0.999999
0.999999
0.999999
0.999999
1
1
1
1
1
1
1.79649e-06
1.95946e-06
1.97596e-06
2.0907e-06
2.67879e-06
3.81304e-06
5.70104e-06
7.69732e-06
9.03419e-06
9.46654e-06
9.74971e-06
9.86096e-06
9.90581e-06
9.93021e-06
9.95216e-06
9.98185e-06
9.99258e-06
9.99537e-06
9.9946e-06
9.99447e-06
9.9945e-06
9.99469e-06
9.99483e-06
9.99486e-06
9.99481e-06
9.99462e-06
9.99429e-06
9.99389e-06
9.99345e-06
9.99309e-06
9.99268e-06
9.99192e-06
9.99109e-06
9.9904e-06
9.99005e-06
9.98968e-06
9.98929e-06
9.98885e-06
9.98859e-06
9.9895e-06
9.99577e-06
1.00442e-05
1.04391e-05
1.20643e-05
1.59515e-05
2.36638e-05
3.79733e-05
5.55081e-05
7.28534e-05
0.000105858
0.000136207
0.000134388
0.000126338
0.000122048
0.000118582
0.000114352
0.000108798
0.000113241
0.000256951
0.0258139
0.954346
0.999897
0.999999
0.999999
0.999999
0.999999
0.999999
0.999999
0.999999
0.999999
0.999999
0.999999
0.999999
0.999999
0.999999
0.999999
0.999999
0.999999
0.999999
0.999999
0.999999
0.999999
0.999999
0.999999
0.999999
0.999999
0.999999
0.999999
0.999999
0.999999
1
1
1
1
1
1
1.74148e-06
1.92856e-06
1.90295e-06
1.90758e-06
2.0892e-06
2.8565e-06
4.41794e-06
6.8572e-06
8.95745e-06
9.58358e-06
9.78701e-06
9.8618e-06
9.89881e-06
9.92338e-06
9.94706e-06
9.9815e-06
9.99937e-06
9.9995e-06
9.99949e-06
9.9992e-06
9.99909e-06
9.99909e-06
9.99909e-06
9.99893e-06
9.9986e-06
9.9981e-06
9.99747e-06
9.99685e-06
9.99628e-06
9.99575e-06
9.995e-06
9.99398e-06
9.99283e-06
9.99186e-06
9.99131e-06
9.99093e-06
9.99065e-06
9.99053e-06
9.99067e-06
9.99257e-06
9.99853e-06
1.00259e-05
1.01628e-05
1.08761e-05
1.34653e-05
2.04202e-05
3.47227e-05
5.46423e-05
7.54693e-05
9.75495e-05
0.000122045
0.000131259
0.000128538
0.000124446
0.000121193
0.000118682
0.00011248
0.00012361
0.00042598
0.0273239
0.948701
0.99993
0.999999
0.999999
0.999999
0.999999
0.999999
0.999999
0.999999
0.999999
0.999999
0.999999
0.999999
0.999999
0.999999
0.999999
0.999999
0.999999
0.999999
0.999999
0.999999
0.999999
0.999999
0.999999
0.999999
0.999999
0.999999
0.999999
0.999999
0.999999
0.999999
1
1
1
1
1
1.80841e-06
2.1655e-06
2.16904e-06
2.18183e-06
2.03719e-06
2.49397e-06
3.51437e-06
5.73461e-06
8.58086e-06
9.61505e-06
9.78925e-06
9.8471e-06
9.87667e-06
9.90652e-06
9.93485e-06
9.97626e-06
9.99686e-06
9.99818e-06
9.99784e-06
9.99763e-06
9.99754e-06
9.99749e-06
9.9974e-06
9.99716e-06
9.99677e-06
9.99625e-06
9.99564e-06
9.99507e-06
9.99457e-06
9.99408e-06
9.99338e-06
9.99243e-06
9.99145e-06
9.99069e-06
9.99016e-06
9.98979e-06
9.98955e-06
9.98947e-06
9.98965e-06
9.99131e-06
9.99722e-06
1.00171e-05
1.00873e-05
1.04e-05
1.19141e-05
1.81468e-05
3.53764e-05
5.97269e-05
7.71803e-05
9.23195e-05
0.000107216
0.000119709
0.000123397
0.0001219
0.000118714
0.000116841
0.000110576
0.000119232
0.000665584
0.0291074
0.94466
0.99984
0.999999
0.999999
0.999999
0.999999
0.999999
0.999999
0.999999
0.999999
0.999999
0.999999
0.999999
0.999999
0.999999
0.999999
0.999999
0.999999
0.999999
0.999999
0.999999
0.999999
0.999999
0.999999
0.999999
0.999999
0.999999
0.999999
0.999999
0.999999
0.999999
1
1
1
1
1
1.42851e-06
1.90661e-06
2.10499e-06
2.53672e-06
2.59693e-06
2.78108e-06
3.54004e-06
5.28405e-06
8.22308e-06
9.57434e-06
9.75996e-06
9.80834e-06
9.84472e-06
9.88464e-06
9.92569e-06
9.98364e-06
1.00046e-05
1.00046e-05
1.00046e-05
1.00046e-05
1.00046e-05
1.00045e-05
1.00044e-05
1.00041e-05
1.00038e-05
1.00032e-05
1.00027e-05
1.00022e-05
1.00018e-05
1.00013e-05
1.00007e-05
9.99982e-06
9.9989e-06
9.99818e-06
9.99763e-06
9.99727e-06
9.99704e-06
9.99701e-06
9.99734e-06
9.99899e-06
1.00041e-05
1.00225e-05
1.00878e-05
1.03226e-05
1.13363e-05
1.66416e-05
3.48742e-05
6.09003e-05
7.63815e-05
8.6385e-05
9.54474e-05
0.000103228
0.000107394
0.00010568
0.00010336
0.000104895
0.000101869
0.000110166
0.00114628
0.0439425
0.937674
0.999449
0.999999
0.999999
0.999999
0.999999
0.999999
0.999999
0.999999
0.999999
0.999999
0.999999
0.999999
0.999999
0.999999
0.999999
0.999999
0.999999
0.999999
0.999999
0.999999
0.999999
0.999999
0.999999
0.999999
0.999999
0.999999
0.999999
0.999999
0.999999
0.999999
0.999999
1
1
1
1
3.34338e-06
4.42662e-06
5.12479e-06
5.58959e-06
6.04979e-06
7.03023e-06
8.14676e-06
9.04672e-06
9.6339e-06
9.83908e-06
9.90056e-06
9.94091e-06
9.97157e-06
9.99104e-06
1.0003e-05
1.00091e-05
1.00091e-05
1.00091e-05
1.00091e-05
1.00091e-05
1.00084e-05
1.00076e-05
1.00067e-05
1.00061e-05
1.00057e-05
1.00057e-05
1.00057e-05
1.00057e-05
1.00057e-05
1.00056e-05
1.00054e-05
1.00051e-05
1.00047e-05
1.00041e-05
1.00036e-05
1.0003e-05
1.00025e-05
1.00021e-05
1.00015e-05
1.00013e-05
1.00017e-05
1.00034e-05
1.00104e-05
1.00442e-05
1.02102e-05
1.10623e-05
1.4451e-05
2.95344e-05
5.15492e-05
6.96972e-05
9.54924e-05
0.000117886
0.000127613
0.000130507
0.000130705
0.000130701
0.000126079
0.000137337
0.000395855
0.0389189
0.969691
0.999946
1
1
1
1
1
1
1
0.999999
0.999999
0.999999
0.999999
0.999999
1
1
1
1
1
1
1
1
1
1
1
1
1
1
1
1
1
1
1
1
1
1
2.64693e-06
3.87468e-06
5.5487e-06
6.09968e-06
6.76569e-06
7.59483e-06
8.44709e-06
9.02656e-06
9.38796e-06
9.60018e-06
9.75497e-06
9.86773e-06
9.93771e-06
9.97116e-06
9.98682e-06
1.00014e-05
1.00054e-05
1.00061e-05
1.00058e-05
1.00059e-05
1.00058e-05
1.00061e-05
1.00061e-05
1.00059e-05
1.00053e-05
1.00046e-05
1.00038e-05
1.00034e-05
1.0003e-05
1.00026e-05
1.00021e-05
1.00015e-05
1.00005e-05
9.99951e-06
9.99843e-06
9.99741e-06
9.99642e-06
9.99556e-06
9.99486e-06
9.99501e-06
9.99735e-06
1.00062e-05
1.00527e-05
1.02113e-05
1.03908e-05
1.07273e-05
1.23082e-05
2.17774e-05
3.35428e-05
5.51524e-05
8.75688e-05
0.000114284
0.000122596
0.000124623
0.000125726
0.000128075
0.000124659
0.000162618
0.000278955
0.0576398
0.98597
0.999994
1
1
1
0.999999
0.999999
0.999999
0.999999
0.999999
0.999999
0.999999
0.999999
1
1
1
1
1
0.999999
0.999999
0.999999
0.999999
0.999999
1
1
1
1
1
1
1
1
1
1
1
1
1
2.4248e-06
3.13184e-06
5.11097e-06
5.9812e-06
6.76834e-06
7.39988e-06
8.11798e-06
8.70511e-06
9.15135e-06
9.45906e-06
9.67689e-06
9.83386e-06
9.92464e-06
9.96514e-06
9.98075e-06
9.99751e-06
1.00022e-05
1.00029e-05
1.00027e-05
1.00028e-05
1.00027e-05
1.00026e-05
1.00022e-05
1.00018e-05
1.00013e-05
1.00008e-05
1.00003e-05
9.99976e-06
9.9993e-06
9.99887e-06
9.99836e-06
9.99761e-06
9.99662e-06
9.99552e-06
9.99441e-06
9.99341e-06
9.99252e-06
9.9917e-06
9.99102e-06
9.99099e-06
9.99449e-06
1.00151e-05
1.0214e-05
1.09819e-05
1.20018e-05
1.29185e-05
1.36815e-05
1.77103e-05
2.74334e-05
5.25645e-05
8.68169e-05
0.000114256
0.000126177
0.000131229
0.000130598
0.000130228
0.000126801
0.000153815
0.00019952
0.0759688
0.979733
0.999999
0.999999
0.999999
0.999999
0.999999
0.999999
0.999999
0.999999
0.999999
0.999999
0.999999
0.999999
0.999999
0.999999
0.999999
0.999999
0.999999
0.999999
0.999999
0.999999
0.999999
0.999999
0.999999
0.999999
1
1
1
1
1
1
1
1
1
1
1
2.34638e-06
2.55865e-06
4.3245e-06
5.28288e-06
6.15901e-06
6.91816e-06
7.74277e-06
8.45249e-06
9.01284e-06
9.39594e-06
9.64603e-06
9.82042e-06
9.91916e-06
9.96218e-06
9.97688e-06
9.99472e-06
9.99951e-06
1e-05
9.9997e-06
9.99957e-06
9.99933e-06
9.9992e-06
9.9988e-06
9.99832e-06
9.9978e-06
9.9973e-06
9.99682e-06
9.99639e-06
9.99598e-06
9.99561e-06
9.99514e-06
9.99441e-06
9.99346e-06
9.99239e-06
9.99132e-06
9.99042e-06
9.98959e-06
9.98879e-06
9.98808e-06
9.98812e-06
9.99323e-06
1.00451e-05
1.05017e-05
1.2207e-05
1.52215e-05
1.83595e-05
1.8037e-05
1.96214e-05
2.72452e-05
5.22489e-05
9.89765e-05
0.000141427
0.000148713
0.000147798
0.0001483
0.000148196
0.000141356
0.00015513
0.000167702
0.115637
0.998534
0.99999
0.999991
0.999994
0.999996
0.999997
0.999997
0.999997
0.999997
0.999998
0.999999
0.999999
0.999999
0.999999
0.999999
0.999999
0.999999
0.999999
0.999999
0.999999
1
1
1
1
1
1
1
1
1
1
1
1
1
1
1
1
2.27211e-06
2.20479e-06
3.63201e-06
4.70006e-06
5.70759e-06
6.53599e-06
7.45062e-06
8.26541e-06
8.9182e-06
9.35927e-06
9.63042e-06
9.8142e-06
9.91682e-06
9.96088e-06
9.97502e-06
9.9934e-06
9.9982e-06
9.99857e-06
9.99826e-06
9.99806e-06
9.99777e-06
9.99757e-06
9.99719e-06
9.99668e-06
9.99616e-06
9.99566e-06
9.99521e-06
9.99479e-06
9.99442e-06
9.99408e-06
9.99364e-06
9.99295e-06
9.99203e-06
9.991e-06
9.98999e-06
9.98917e-06
9.98838e-06
9.98762e-06
9.98706e-06
9.98756e-06
9.99687e-06
1.00965e-05
1.08155e-05
1.35886e-05
1.95478e-05
2.54491e-05
2.60818e-05
2.68487e-05
3.34742e-05
6.49018e-05
0.000140821
0.000157688
0.000149353
0.000147789
0.000143165
0.000144065
0.000144769
0.000164687
0.000195015
0.140591
0.995416
0.999389
0.999417
0.999484
0.999514
0.999542
0.999583
0.999647
0.999687
0.999709
0.999724
0.999774
0.999824
0.999868
0.999909
0.999936
0.999953
0.999969
0.999982
0.999991
0.999997
0.999999
1
1
1
1
1
1
1
1
0.999999
0.999999
1
1
1
1
2.20246e-06
1.96621e-06
3.0235e-06
4.11019e-06
5.27882e-06
6.22257e-06
7.23423e-06
8.12385e-06
8.84876e-06
9.33762e-06
9.6233e-06
9.81195e-06
9.91602e-06
9.96014e-06
9.97387e-06
9.99248e-06
9.99713e-06
9.9974e-06
9.99703e-06
9.99678e-06
9.99647e-06
9.9962e-06
9.99585e-06
9.99533e-06
9.99481e-06
9.99434e-06
9.99392e-06
9.99356e-06
9.99329e-06
9.99304e-06
9.99269e-06
9.99209e-06
9.99127e-06
9.99034e-06
9.98948e-06
9.98874e-06
9.98798e-06
9.98733e-06
9.98696e-06
9.98856e-06
1.00028e-05
1.01514e-05
1.11259e-05
1.48703e-05
2.30061e-05
3.08138e-05
3.2879e-05
3.45513e-05
4.39057e-05
9.25961e-05
0.000155404
0.000151194
0.000145048
0.000144187
0.000142461
0.000146256
0.00014807
0.000149197
0.000126891
0.184129
0.984675
0.993914
0.993783
0.993742
0.99378
0.993708
0.993946
0.994141
0.994234
0.994184
0.994012
0.994021
0.994324
0.994607
0.995088
0.995663
0.996235
0.996858
0.997536
0.998208
0.998797
0.999276
0.999635
0.999867
0.999973
0.999995
0.999994
0.999999
0.999999
1
1
1
1
1
1
1
2.14548e-06
1.79141e-06
2.56703e-06
3.52849e-06
4.86921e-06
5.95018e-06
7.07306e-06
8.01946e-06
8.79827e-06
9.32475e-06
9.61973e-06
9.81113e-06
9.91596e-06
9.95991e-06
9.97341e-06
9.99212e-06
9.99663e-06
9.99684e-06
9.99649e-06
9.99625e-06
9.996e-06
9.99572e-06
9.99541e-06
9.9949e-06
9.99441e-06
9.99397e-06
9.99359e-06
9.99328e-06
9.99307e-06
9.99287e-06
9.99257e-06
9.99201e-06
9.99125e-06
9.99041e-06
9.98968e-06
9.98902e-06
9.98841e-06
9.98805e-06
9.98815e-06
9.99041e-06
1.00066e-05
1.01993e-05
1.14012e-05
1.57378e-05
2.45474e-05
3.38488e-05
3.82562e-05
4.32786e-05
5.65639e-05
9.83225e-05
0.00015197
0.000147936
0.000139708
0.00013837
0.000141625
0.000143127
0.000133608
0.000120787
0.000107244
0.326253
0.975754
0.98297
0.982285
0.981873
0.981487
0.981035
0.980513
0.979507
0.978331
0.977393
0.976761
0.976159
0.975689
0.975457
0.975391
0.975854
0.976388
0.977054
0.97806
0.979395
0.981119
0.983136
0.985413
0.987849
0.990257
0.992406
0.994206
0.995854
0.997496
0.998528
0.998806
0.998621
0.998456
0.998164
0.997573
0.9968
2.07644e-06
1.67663e-06
2.21484e-06
2.93944e-06
4.33602e-06
5.66388e-06
6.9259e-06
7.93218e-06
8.75861e-06
9.31753e-06
9.61845e-06
9.81314e-06
9.91905e-06
9.96095e-06
9.97325e-06
9.99188e-06
9.99622e-06
9.99649e-06
9.9963e-06
9.99618e-06
9.99606e-06
9.99612e-06
9.99608e-06
9.99571e-06
9.99533e-06
9.99497e-06
9.9946e-06
9.99428e-06
9.99401e-06
9.99376e-06
9.99341e-06
9.9928e-06
9.992e-06
9.9911e-06
9.99027e-06
9.98956e-06
9.989e-06
9.98876e-06
9.9892e-06
9.99161e-06
1.00099e-05
1.02256e-05
1.15305e-05
1.61085e-05
2.50693e-05
3.53366e-05
4.40241e-05
5.26709e-05
6.37177e-05
9.48292e-05
0.000151941
0.000151167
0.000140844
0.000138784
0.000139425
0.000137634
0.000131971
0.000131834
0.000107244
0.420905
0.972826
0.978641
0.978189
0.977633
0.976731
0.975434
0.974539
0.974029
0.97341
0.972689
0.97205
0.970898
0.96972
0.968623
0.967375
0.966215
0.965332
0.96395
0.961922
0.95987
0.957926
0.956042
0.954258
0.952726
0.951229
0.949276
0.946866
0.944276
0.942023
0.940193
0.937976
0.93401
0.925707
0.906154
0.859351
0.662544
1.95613e-06
1.60659e-06
1.93134e-06
2.37916e-06
3.64414e-06
5.17955e-06
6.71216e-06
7.84282e-06
8.72275e-06
9.31575e-06
9.62298e-06
9.81821e-06
9.92375e-06
9.96317e-06
9.97513e-06
9.99407e-06
9.99798e-06
9.99799e-06
9.99775e-06
9.99756e-06
9.99741e-06
9.9973e-06
9.99729e-06
9.99696e-06
9.99662e-06
9.99628e-06
9.99596e-06
9.99568e-06
9.99545e-06
9.99524e-06
9.99495e-06
9.99437e-06
9.99362e-06
9.99276e-06
9.99199e-06
9.99139e-06
9.99102e-06
9.99099e-06
9.99164e-06
9.99394e-06
1.00136e-05
1.0182e-05
1.14019e-05
1.59136e-05
2.50861e-05
3.59538e-05
4.62184e-05
5.64577e-05
7.09197e-05
0.000108328
0.000150832
0.000155599
0.00014039
0.000133713
0.000130898
0.000131876
0.000126602
0.000125646
0.000107244
0.302438
0.981895
0.991473
0.992954
0.995092
0.99648
0.997662
0.998057
0.99786
0.997796
0.997912
0.997671
0.99739
0.997074
0.99684
0.996768
0.996901
0.99691
0.996356
0.995797
0.994821
0.993694
0.992389
0.990707
0.988557
0.986029
0.983197
0.979938
0.975525
0.970023
0.964799
0.961257
0.958619
0.956694
0.956115
0.958788
0.962996
1.81836e-06
1.5377e-06
1.69275e-06
1.96063e-06
2.90918e-06
4.54303e-06
6.42287e-06
7.72387e-06
8.68633e-06
9.31585e-06
9.62627e-06
9.82536e-06
9.93016e-06
9.96492e-06
9.97633e-06
9.9958e-06
9.99957e-06
9.9996e-06
9.99947e-06
9.99934e-06
9.99924e-06
9.9992e-06
9.99921e-06
9.9989e-06
9.99854e-06
9.99817e-06
9.99782e-06
9.99748e-06
9.99717e-06
9.9969e-06
9.99656e-06
9.99592e-06
9.99507e-06
9.99409e-06
9.99317e-06
9.99244e-06
9.99202e-06
9.992e-06
9.99263e-06
9.99483e-06
1.00084e-05
1.01139e-05
1.0936e-05
1.46734e-05
2.38554e-05
3.43145e-05
4.49102e-05
5.71637e-05
7.26158e-05
0.000123543
0.000149309
0.000155741
0.000142593
0.00013218
0.000131458
0.000135844
0.00013102
0.000129538
0.000107244
0.193648
0.99241
0.998947
0.999236
0.999575
0.999706
0.9998
0.999851
0.99989
0.999904
0.999908
0.9999
0.999887
0.999873
0.999861
0.99985
0.999843
0.999822
0.999798
0.999762
0.999705
0.999629
0.99952
0.999375
0.999177
0.998897
0.998509
0.998019
0.997609
0.997312
0.997099
0.997081
0.997595
0.997796
0.998172
0.999044
0.999587
1.69231e-06
1.47539e-06
1.52043e-06
1.64512e-06
2.36315e-06
3.8442e-06
5.96702e-06
7.5236e-06
8.63436e-06
9.30237e-06
9.62819e-06
9.83324e-06
9.93518e-06
9.96505e-06
9.97522e-06
9.99602e-06
9.99979e-06
9.99977e-06
9.99979e-06
9.99977e-06
9.99978e-06
9.99977e-06
9.99976e-06
9.99952e-06
9.99919e-06
9.99885e-06
9.9985e-06
9.99819e-06
9.99792e-06
9.99766e-06
9.99736e-06
9.99672e-06
9.9958e-06
9.99479e-06
9.99391e-06
9.99321e-06
9.99277e-06
9.99268e-06
9.99304e-06
9.99478e-06
1.00022e-05
1.00529e-05
1.05161e-05
1.35452e-05
2.24682e-05
3.27867e-05
4.31663e-05
5.59521e-05
7.44439e-05
0.00011411
0.000137461
0.000152495
0.000149792
0.000142177
0.000139686
0.000138966
0.000124157
0.000122369
0.000107244
0.12083
0.995807
0.999982
0.999985
0.999997
0.999998
0.999998
0.999997
0.999998
0.999998
0.999998
0.999998
0.999999
0.999999
0.999999
0.999999
0.999999
0.999999
0.999998
0.999998
0.999997
0.999997
0.999995
0.999993
0.999989
0.999983
0.999977
0.999972
0.999971
0.999976
0.999982
0.999989
0.999994
0.999996
0.999998
0.999999
0.999999
1.60637e-06
1.42351e-06
1.40914e-06
1.44443e-06
1.99263e-06
3.24127e-06
5.33233e-06
7.26916e-06
8.60797e-06
9.29886e-06
9.64374e-06
9.84689e-06
9.94077e-06
9.96252e-06
9.97268e-06
9.99194e-06
9.99977e-06
9.99978e-06
9.99977e-06
9.99977e-06
9.99977e-06
9.99977e-06
9.99963e-06
9.99938e-06
9.99909e-06
9.99878e-06
9.99847e-06
9.99818e-06
9.99795e-06
9.99768e-06
9.99736e-06
9.99668e-06
9.99562e-06
9.9945e-06
9.9935e-06
9.99285e-06
9.99243e-06
9.99218e-06
9.99219e-06
9.99352e-06
1.00004e-05
1.0032e-05
1.03267e-05
1.25422e-05
1.94846e-05
2.89549e-05
4.04227e-05
5.46936e-05
6.80643e-05
8.05858e-05
0.000101899
0.000126329
0.000141334
0.000140309
0.00013654
0.000124842
0.000103335
0.000120832
0.000107244
0.0451876
0.969269
0.999999
0.999999
0.999999
0.999999
0.999999
0.999999
0.999999
0.999999
0.999999
0.999999
0.999999
0.999999
0.999999
0.999999
0.999999
0.999999
0.999999
0.999999
0.999999
0.999999
0.999999
0.999999
0.999999
0.999999
0.999999
0.999999
0.999999
0.999999
1
0.999999
0.999999
1
1
1
1
1.56544e-06
1.42444e-06
1.37633e-06
1.34437e-06
1.5002e-06
2.23693e-06
4.00095e-06
6.57555e-06
8.62531e-06
9.35288e-06
9.66405e-06
9.85669e-06
9.94237e-06
9.95433e-06
9.96538e-06
9.99026e-06
9.99817e-06
9.99977e-06
9.99956e-06
9.99972e-06
9.99966e-06
9.99964e-06
9.99964e-06
9.99944e-06
9.99918e-06
9.99888e-06
9.99856e-06
9.99824e-06
9.99789e-06
9.99738e-06
9.99653e-06
9.99552e-06
9.99419e-06
9.99288e-06
9.9916e-06
9.99083e-06
9.99046e-06
9.99043e-06
9.99115e-06
9.99277e-06
9.99857e-06
1.00282e-05
1.02488e-05
1.14936e-05
1.57902e-05
2.40885e-05
3.79246e-05
5.42042e-05
6.83876e-05
8.00489e-05
8.62488e-05
9.0121e-05
0.000111725
0.000105682
9.49221e-05
9.49686e-05
9.49191e-05
0.00013803
0.000194317
0.0277777
0.973818
0.999999
0.999999
0.999999
0.999999
0.999999
0.999999
0.999999
0.999999
0.999999
0.999999
0.999999
0.999999
0.999999
0.999999
0.999999
0.999999
0.999999
0.999999
0.999999
0.999999
0.999999
0.999999
0.999999
0.999999
0.999999
0.999999
0.999999
0.999999
1
1
0.999999
0.999999
1
1
1
1.63635e-06
1.73464e-06
1.55216e-06
1.50477e-06
1.22016e-06
1.40446e-06
2.12511e-06
4.61868e-06
8.17822e-06
9.47029e-06
9.72793e-06
9.8674e-06
9.92286e-06
9.92734e-06
9.94522e-06
9.98298e-06
9.99562e-06
9.99662e-06
9.99669e-06
9.9968e-06
9.9969e-06
9.99686e-06
9.99674e-06
9.99649e-06
9.99607e-06
9.99549e-06
9.99479e-06
9.99408e-06
9.99339e-06
9.99264e-06
9.99173e-06
9.99048e-06
9.98903e-06
9.98775e-06
9.98666e-06
9.98619e-06
9.986e-06
9.98598e-06
9.98623e-06
9.98727e-06
9.99402e-06
1.00191e-05
1.01354e-05
1.06689e-05
1.29128e-05
2.0283e-05
3.59468e-05
5.5321e-05
7.09224e-05
8.16052e-05
8.77439e-05
8.90157e-05
9.08915e-05
8.93237e-05
8.92945e-05
9.33609e-05
0.000103539
0.000155909
0.000441791
0.0286127
0.970015
0.999999
0.999999
0.999999
0.999999
0.999999
0.999999
0.999999
0.999999
0.999999
0.999999