/*--------------------------------*- C++ -*----------------------------------*\
| =========                 |                                                 |
| \\      /  F ield         | OpenFOAM: The Open Source CFD Toolbox           |
|  \\    /   O peration     | Version:  2.3.0                                 |
|   \\  /    A nd           | Web:      www.OpenFOAM.org                      |
|    \\/     M anipulation  |                                                 |
\*---------------------------------------------------------------------------*/
FoamFile
{
    version     2.0;
    format      ascii;
    class       volScalarField;
    location    "48";
    object      rho;
}
// * * * * * * * * * * * * * * * * * * * * * * * * * * * * * * * * * * * * * //

dimensions      [1 -3 0 0 0 0 0];

internalField   nonuniform List<scalar> 
6144
(
1.16274
1.16341
1.16386
1.16429
1.16474
1.16565
1.16674
1.16771
1.16845
1.1688
1.16887
1.16888
1.16888
1.16889
1.16889
1.1689
1.1689
1.1689
1.1689
1.1689
1.1689
1.16891
1.16891
1.16891
1.16891
1.16891
1.16891
1.16891
1.16891
1.16892
1.16892
1.16892
1.16892
1.16892
1.16892
1.16892
1.16892
1.16892
1.16892
1.16893
1.16893
1.16893
1.16893
1.16898
1.16918
1.17005
1.17361
1.1873
1.20497
1.22748
1.26408
1.29281
1.29722
1.2965
1.29349
1.29064
1.28306
1.28818
1.89942
49.4296
994.152
1026.96
1027.1
1027.1
1027.1
1027.1
1027.1
1027.1
1027.1
1027.1
1027.1
1027.1
1027.1
1027.1
1027.1
1027.1
1027.1
1027.1
1027.1
1027.1
1027.1
1027.1
1027.1
1027.1
1027.1
1027.1
1027.1
1027.1
1027.1
1027.1
1027.1
1027.1
1027.1
1027.1
1027.1
1027.1
1.16243
1.16325
1.16409
1.16455
1.1652
1.16598
1.16688
1.16776
1.16848
1.16879
1.16886
1.16888
1.16888
1.16889
1.1689
1.1689
1.16891
1.16891
1.16891
1.16891
1.16891
1.16891
1.16891
1.16892
1.16892
1.16892
1.16892
1.16892
1.16892
1.16892
1.16893
1.16893
1.16893
1.16893
1.16893
1.16893
1.16893
1.16893
1.16893
1.16893
1.16893
1.16894
1.16895
1.16899
1.16911
1.16946
1.17093
1.17614
1.18614
1.21453
1.26512
1.30038
1.30467
1.30435
1.30124
1.29719
1.28606
1.29275
1.5303
39.5198
999.085
1027.02
1027.1
1027.1
1027.1
1027.1
1027.1
1027.1
1027.1
1027.1
1027.1
1027.1
1027.1
1027.1
1027.1
1027.1
1027.1
1027.1
1027.1
1027.1
1027.1
1027.1
1027.1
1027.1
1027.1
1027.1
1027.1
1027.1
1027.1
1027.1
1027.1
1027.1
1027.1
1027.1
1027.1
1027.1
1.16229
1.16296
1.16396
1.16455
1.16539
1.16618
1.16702
1.16779
1.16832
1.16863
1.16877
1.16883
1.16886
1.16888
1.16889
1.1689
1.1689
1.16891
1.16891
1.16891
1.16891
1.16891
1.16891
1.16892
1.16892
1.16892
1.16892
1.16892
1.16892
1.16892
1.16892
1.16893
1.16893
1.16893
1.16893
1.16893
1.16893
1.16893
1.16893
1.16893
1.16893
1.16894
1.16897
1.16913
1.16948
1.17009
1.17133
1.17437
1.18303
1.2135
1.2634
1.29564
1.30425
1.30626
1.30523
1.30327
1.29348
1.2958
1.44541
40.9207
999.849
1027.02
1027.1
1027.1
1027.1
1027.1
1027.1
1027.1
1027.1
1027.1
1027.1
1027.1
1027.1
1027.1
1027.1
1027.1
1027.1
1027.1
1027.1
1027.1
1027.1
1027.1
1027.1
1027.1
1027.1
1027.1
1027.1
1027.1
1027.1
1027.1
1027.1
1027.1
1027.1
1027.1
1027.1
1027.1
1.16223
1.16271
1.16366
1.16426
1.16539
1.16622
1.16699
1.16768
1.16821
1.16854
1.16871
1.1688
1.16885
1.16888
1.16889
1.1689
1.1689
1.1689
1.1689
1.16891
1.16891
1.16891
1.16891
1.16891
1.16891
1.16891
1.16891
1.16892
1.16892
1.16892
1.16892
1.16892
1.16892
1.16892
1.16892
1.16892
1.16893
1.16893
1.16893
1.16893
1.16893
1.16894
1.16903
1.16948
1.1705
1.17198
1.17409
1.17754
1.18602
1.21477
1.25909
1.29363
1.30916
1.31625
1.31596
1.31531
1.31004
1.30708
1.47203
48.3129
1001.38
1027.02
1027.09
1027.09
1027.1
1027.09
1027.1
1027.1
1027.1
1027.1
1027.1
1027.1
1027.1
1027.1
1027.1
1027.1
1027.1
1027.1
1027.1
1027.1
1027.1
1027.1
1027.1
1027.1
1027.1
1027.1
1027.1
1027.1
1027.1
1027.1
1027.1
1027.1
1027.1
1027.1
1027.1
1027.1
1.16216
1.16252
1.16334
1.16388
1.16509
1.16591
1.16687
1.16758
1.16811
1.16847
1.16867
1.16879
1.16885
1.16888
1.16889
1.1689
1.1689
1.16891
1.16891
1.16891
1.16891
1.16891
1.16891
1.16892
1.16892
1.16892
1.16892
1.16892
1.16892
1.16892
1.16892
1.16892
1.16892
1.16893
1.16893
1.16893
1.16893
1.16893
1.16893
1.16893
1.16893
1.16896
1.16928
1.17044
1.17288
1.17679
1.18219
1.18678
1.19495
1.22145
1.27083
1.30749
1.3188
1.32071
1.31648
1.30482
1.30143
1.30469
1.56273
78.5981
1016.72
1027.03
1027.05
1027.07
1027.08
1027.09
1027.09
1027.1
1027.1
1027.1
1027.1
1027.1
1027.1
1027.1
1027.1
1027.1
1027.1
1027.1
1027.1
1027.1
1027.1
1027.1
1027.1
1027.1
1027.1
1027.1
1027.1
1027.1
1027.1
1027.1
1027.1
1027.1
1027.1
1027.1
1027.1
1027.1
1.16206
1.1624
1.16302
1.16345
1.16474
1.16557
1.16662
1.16746
1.16799
1.16839
1.16863
1.16878
1.16885
1.16887
1.16889
1.16889
1.1689
1.1689
1.1689
1.1689
1.1689
1.16891
1.16891
1.16891
1.16891
1.16891
1.16891
1.16891
1.16892
1.16892
1.16892
1.16892
1.16892
1.16892
1.16892
1.16892
1.16892
1.16892
1.16893
1.16893
1.16893
1.16907
1.17011
1.17298
1.1787
1.18679
1.19462
1.1984
1.20498
1.23119
1.29026
1.31574
1.32116
1.31333
1.28366
1.27455
1.27217
1.27569
1.34764
136.165
1016.3
1026.22
1026.29
1026.53
1026.6
1026.81
1026.87
1026.91
1026.96
1026.98
1026.98
1026.99
1027
1027.02
1027.04
1027.05
1027.05
1027.06
1027.07
1027.07
1027.08
1027.09
1027.09
1027.09
1027.09
1027.09
1027.09
1027.1
1027.1
1027.1
1027.1
1027.1
1027.1
1027.1
1027.1
1027.1
1.16192
1.16231
1.16279
1.16311
1.16437
1.16527
1.16616
1.16729
1.1679
1.16832
1.16859
1.16877
1.16885
1.16888
1.16889
1.1689
1.1689
1.1689
1.16891
1.16891
1.16891
1.16891
1.16891
1.16891
1.16891
1.16891
1.16892
1.16892
1.16892
1.16892
1.16892
1.16892
1.16892
1.16892
1.16892
1.16892
1.16892
1.16893
1.16893
1.16893
1.16897
1.1695
1.17171
1.1776
1.1867
1.19526
1.20205
1.20547
1.21325
1.2542
1.31144
1.32064
1.30163
1.27933
1.2735
1.27298
1.27206
1.27216
1.26874
223.876
1007.82
1020.47
1020.46
1020.59
1020.3
1020.1
1019.65
1019.38
1019.21
1019.06
1018.9
1018.67
1018.51
1018.37
1018.27
1018.2
1018.17
1018.34
1018.58
1018.97
1019.47
1020.03
1020.64
1021.27
1021.93
1022.69
1023.54
1024.49
1025.47
1026.34
1026.83
1026.97
1026.97
1026.96
1026.96
1027
1.16171
1.16223
1.16267
1.16292
1.16408
1.16504
1.16588
1.16708
1.16779
1.16827
1.16857
1.16876
1.16884
1.16888
1.16889
1.1689
1.1689
1.1689
1.16891
1.16891
1.16891
1.16891
1.16891
1.16891
1.16892
1.16892
1.16892
1.16892
1.16892
1.16892
1.16892
1.16893
1.16893
1.16893
1.16893
1.16893
1.16893
1.16893
1.16893
1.16894
1.16908
1.16996
1.17306
1.18044
1.18924
1.19705
1.20392
1.20946
1.22212
1.27576
1.31799
1.3105
1.28836
1.27813
1.27708
1.27678
1.27513
1.27579
1.26874
441.522
998.092
1004.09
1003.76
1003.51
1003.21
1003.01
1002.76
1002.17
1001.53
1001.16
1000.91
1000.62
1000.46
1000.43
1000.5
1000.64
1000.8
1000.94
1000.97
1000.94
1000.76
1000.51
1000.22
999.99
999.845
999.745
999.677
999.512
999.146
998.682
998.274
997.911
997.646
998.522
1000.32
1004.07
1.16139
1.16209
1.16251
1.16282
1.16386
1.1649
1.16612
1.16688
1.16768
1.16821
1.16853
1.16874
1.16883
1.16887
1.16888
1.16889
1.1689
1.1689
1.1689
1.1689
1.1689
1.16891
1.16891
1.16891
1.16891
1.16891
1.16891
1.16892
1.16892
1.16892
1.16892
1.16892
1.16892
1.16892
1.16892
1.16892
1.16892
1.16893
1.16893
1.16893
1.16909
1.16993
1.17339
1.18091
1.18935
1.1971
1.2044
1.2107
1.23222
1.29183
1.31659
1.30063
1.28195
1.27634
1.27569
1.27661
1.27537
1.27778
1.26874
366.92
1004.79
1012.63
1013.14
1014.21
1015.18
1016.24
1017.31
1018.54
1019.92
1021.42
1022.73
1023.78
1024.3
1024.54
1024.62
1024.56
1024.5
1024.41
1024.29
1024.05
1023.73
1023.32
1022.87
1022.38
1021.85
1021.3
1020.83
1020.51
1020.26
1019.91
1019.43
1019.22
1019.11
1020.36
1022.43
1024.28
1.16109
1.16168
1.16213
1.16253
1.16362
1.16483
1.16633
1.16683
1.16763
1.16822
1.16853
1.16872
1.16882
1.16887
1.16888
1.1689
1.1689
1.1689
1.16891
1.16891
1.16891
1.16891
1.16891
1.16891
1.16891
1.16892
1.16892
1.16892
1.16892
1.16892
1.16892
1.16892
1.16892
1.16892
1.16892
1.16893
1.16893
1.16893
1.16893
1.16894
1.16904
1.16978
1.17322
1.18067
1.18883
1.19656
1.20427
1.21109
1.23705
1.29499
1.31313
1.29451
1.27871
1.27466
1.27366
1.28299
1.27549
1.27988
1.26874
195.115
1015.04
1024.35
1024.78
1025.53
1025.87
1026.25
1026.49
1026.73
1026.89
1027.02
1027.07
1027.09
1027.09
1027.08
1027.08
1027.07
1027.07
1027.06
1027.06
1027.06
1027.06
1027.04
1027.01
1026.97
1026.92
1026.88
1026.85
1026.84
1026.87
1026.9
1026.91
1026.91
1026.9
1026.96
1027.03
1027.07
1.16079
1.16124
1.16163
1.16209
1.16324
1.16458
1.16621
1.16715
1.16765
1.16823
1.16854
1.16871
1.1688
1.16886
1.16888
1.16889
1.1689
1.1689
1.1689
1.1689
1.16891
1.16891
1.16891
1.16891
1.16891
1.16891
1.16892
1.16892
1.16892
1.16892
1.16892
1.16892
1.16892
1.16892
1.16892
1.16893
1.16893
1.16893
1.16893
1.16893
1.16897
1.16947
1.17243
1.17855
1.18571
1.19484
1.20444
1.21466
1.2368
1.29154
1.30945
1.29019
1.27774
1.27527
1.27887
1.28475
1.27564
1.28017
1.26874
123.477
1018.52
1027.02
1027.05
1027.08
1027.09
1027.09
1027.09
1027.1
1027.1
1027.1
1027.1
1027.1
1027.1
1027.1
1027.1
1027.1
1027.1
1027.1
1027.1
1027.1
1027.1
1027.1
1027.1
1027.1
1027.1
1027.1
1027.1
1027.1
1027.1
1027.1
1027.1
1027.1
1027.1
1027.1
1027.1
1027.1
1.1606
1.16085
1.16104
1.16136
1.16239
1.16378
1.16565
1.16708
1.16775
1.16828
1.16859
1.16873
1.16879
1.16883
1.16886
1.16888
1.1689
1.1689
1.1689
1.1689
1.16891
1.16891
1.16891
1.16891
1.16891
1.16892
1.16892
1.16892
1.16892
1.16892
1.16892
1.16892
1.16893
1.16893
1.16893
1.16893
1.16893
1.16893
1.16893
1.16893
1.16895
1.16912
1.17042
1.17369
1.1795
1.18921
1.20168
1.21678
1.23337
1.2823
1.30619
1.29441
1.27951
1.27844
1.27998
1.28023
1.27162
1.27594
1.26874
57.0196
1002.16
1027.09
1027.09
1027.09
1027.1
1027.1
1027.1
1027.1
1027.1
1027.1
1027.1
1027.1
1027.1
1027.1
1027.1
1027.1
1027.1
1027.1
1027.1
1027.1
1027.1
1027.1
1027.1
1027.1
1027.1
1027.1
1027.1
1027.1
1027.1
1027.1
1027.1
1027.1
1027.1
1027.1
1027.1
1027.1
1.16047
1.16064
1.16065
1.16077
1.16138
1.16254
1.16448
1.16653
1.16791
1.16835
1.16864
1.16876
1.16881
1.16883
1.16886
1.16889
1.1689
1.16891
1.16891
1.16891
1.16891
1.16891
1.16891
1.16892
1.16892
1.16892
1.16892
1.16892
1.16892
1.16892
1.16893
1.16893
1.16893
1.16893
1.16893
1.16893
1.16893
1.16893
1.16893
1.16894
1.16894
1.169
1.1694
1.17107
1.17506
1.18298
1.19766
1.21565
1.23345
1.26731
1.29845
1.29658
1.28833
1.28393
1.28037
1.27603
1.27034
1.2749
1.42234
27.6421
980.257
1026.99
1027.09
1027.1
1027.1
1027.1
1027.1
1027.1
1027.1
1027.1
1027.1
1027.1
1027.1
1027.1
1027.1
1027.1
1027.1
1027.1
1027.1
1027.1
1027.1
1027.1
1027.1
1027.1
1027.1
1027.1
1027.1
1027.1
1027.1
1027.1
1027.1
1027.1
1027.1
1027.1
1027.1
1027.1
1.16041
1.1606
1.16058
1.16059
1.16077
1.16156
1.16317
1.16567
1.16783
1.16847
1.16868
1.16876
1.1688
1.16883
1.16885
1.16889
1.16891
1.16891
1.16891
1.16891
1.16892
1.16892
1.16892
1.16892
1.16892
1.16892
1.16892
1.16892
1.16893
1.16893
1.16893
1.16893
1.16893
1.16893
1.16893
1.16893
1.16893
1.16893
1.16894
1.16894
1.16895
1.16898
1.16912
1.16985
1.17251
1.17965
1.19432
1.21476
1.23613
1.25878
1.28392
1.29337
1.29058
1.28639
1.28305
1.28048
1.27412
1.28554
1.59575
29.1913
974.466
1027.02
1027.09
1027.1
1027.1
1027.1
1027.1
1027.1
1027.1
1027.1
1027.1
1027.1
1027.1
1027.1
1027.1
1027.1
1027.1
1027.1
1027.1
1027.1
1027.1
1027.1
1027.1
1027.1
1027.1
1027.1
1027.1
1027.1
1027.1
1027.1
1027.1
1027.1
1027.1
1027.1
1027.1
1027.1
1.16048
1.16085
1.16085
1.16087
1.16072
1.16119
1.16224
1.16452
1.16744
1.1685
1.16868
1.16874
1.16878
1.16881
1.16884
1.16888
1.16891
1.16891
1.16891
1.16891
1.16891
1.16892
1.16892
1.16892
1.16892
1.16892
1.16892
1.16892
1.16892
1.16892
1.16893
1.16893
1.16893
1.16893
1.16893
1.16893
1.16893
1.16893
1.16894
1.16894
1.16895
1.16897
1.16904
1.16936
1.17092
1.17732
1.19499
1.21998
1.23789
1.25342
1.2687
1.28152
1.28531
1.28377
1.28051
1.27859
1.27216
1.28104
1.84157
31.0211
970.32
1026.93
1027.09
1027.1
1027.1
1027.1
1027.1
1027.1
1027.1
1027.1
1027.1
1027.1
1027.1
1027.1
1027.1
1027.1
1027.1
1027.1
1027.1
1027.1
1027.1
1027.1
1027.1
1027.1
1027.1
1027.1
1027.1
1027.1
1027.1
1027.1
1027.1
1027.1
1027.1
1027.1
1027.1
1027.1
1.16009
1.16058
1.16079
1.16123
1.16129
1.16148
1.16227
1.16406
1.16707
1.16846
1.16865
1.1687
1.16874
1.16879
1.16883
1.16889
1.16891
1.16892
1.16892
1.16892
1.16892
1.16892
1.16892
1.16893
1.16893
1.16893
1.16893
1.16893
1.16893
1.16893
1.16893
1.16893
1.16893
1.16894
1.16894
1.16894
1.16894
1.16894
1.16894
1.16895
1.16895
1.16897
1.16904
1.16929
1.17033
1.17577
1.19448
1.22118
1.23707
1.24733
1.25663
1.26461
1.26889
1.26713
1.26475
1.26633
1.26323
1.27174
2.33474
46.241
963.153
1026.53
1027.09
1027.1
1027.1
1027.1
1027.1
1027.1
1027.1
1027.1
1027.1
1027.1
1027.1
1027.1
1027.1
1027.1
1027.1
1027.1
1027.1
1027.1
1027.1
1027.1
1027.1
1027.1
1027.1
1027.1
1027.1
1027.1
1027.1
1027.1
1027.1
1027.1
1027.1
1027.1
1027.1
1027.1
1.16205
1.16317
1.16388
1.16436
1.16484
1.16584
1.16699
1.16792
1.16852
1.16873
1.1688
1.16884
1.16887
1.1689
1.16891
1.16892
1.16892
1.16892
1.16892
1.16892
1.16892
1.16893
1.16893
1.16893
1.16893
1.16893
1.16893
1.16893
1.16894
1.16894
1.16894
1.16894
1.16894
1.16894
1.16894
1.16894
1.16895
1.16895
1.16895
1.16895
1.16895
1.16895
1.16896
1.169
1.16917
1.17005
1.17353
1.189
1.21159
1.23021
1.25668
1.27965
1.28963
1.2926
1.29281
1.29281
1.28807
1.29962
1.56484
41.0871
996
1027.04
1027.1
1027.1
1027.1
1027.1
1027.1
1027.1
1027.1
1027.1
1027.1
1027.1
1027.1
1027.1
1027.1
1027.1
1027.1
1027.1
1027.1
1027.1
1027.1
1027.1
1027.1
1027.1
1027.1
1027.1
1027.1
1027.1
1027.1
1027.1
1027.1
1027.1
1027.1
1027.1
1027.1
1027.1
1.16134
1.1626
1.16432
1.16489
1.16557
1.16642
1.1673
1.1679
1.16827
1.16849
1.16865
1.16877
1.16884
1.16887
1.16889
1.16891
1.16891
1.16892
1.16892
1.16892
1.16892
1.16892
1.16893
1.16893
1.16893
1.16893
1.16893
1.16893
1.16893
1.16893
1.16893
1.16894
1.16894
1.16894
1.16894
1.16894
1.16894
1.16894
1.16894
1.16894
1.16895
1.16896
1.16901
1.16917
1.16936
1.1697
1.17133
1.18104
1.19312
1.21529
1.24855
1.27596
1.28449
1.28657
1.2877
1.29011
1.28661
1.32556
1.44491
60.2935
1012.7
1027.09
1027.1
1027.1
1027.1
1027.1
1027.1
1027.1
1027.1
1027.1
1027.1
1027.1
1027.1
1027.1
1027.1
1027.1
1027.1
1027.1
1027.1
1027.1
1027.1
1027.1
1027.1
1027.1
1027.1
1027.1
1027.1
1027.1
1027.1
1027.1
1027.1
1027.1
1027.1
1027.1
1027.1
1027.1
1.16111
1.16184
1.16387
1.16476
1.16557
1.16622
1.16696
1.16757
1.16803
1.16834
1.16857
1.16873
1.16883
1.16887
1.16889
1.16891
1.16891
1.16891
1.16892
1.16892
1.16892
1.16892
1.16892
1.16892
1.16892
1.16893
1.16893
1.16893
1.16893
1.16893
1.16893
1.16893
1.16893
1.16893
1.16893
1.16893
1.16893
1.16894
1.16894
1.16894
1.16894
1.16897
1.16917
1.16996
1.17101
1.17195
1.17274
1.17687
1.18685
1.21263
1.24778
1.27593
1.28816
1.29335
1.2927
1.29232
1.28881
1.31652
1.36341
79.0979
1006.3
1027.09
1027.09
1027.09
1027.09
1027.1
1027.1
1027.1
1027.1
1027.1
1027.1
1027.1
1027.1
1027.1
1027.1
1027.1
1027.1
1027.1
1027.1
1027.1
1027.1
1027.1
1027.1
1027.1
1027.1
1027.1
1027.1
1027.1
1027.1
1027.1
1027.1
1027.1
1027.1
1027.1
1027.1
1027.1
1.16103
1.16125
1.16306
1.16405
1.16495
1.16573
1.16658
1.16731
1.16788
1.16828
1.16854
1.16872
1.16882
1.16887
1.16888
1.1689
1.16891
1.16891
1.16891
1.16891
1.16892
1.16892
1.16892
1.16892
1.16892
1.16892
1.16892
1.16892
1.16893
1.16893
1.16893
1.16893
1.16893
1.16893
1.16893
1.16893
1.16893
1.16893
1.16893
1.16894
1.16894
1.169
1.16947
1.17122
1.17431
1.17753
1.1772
1.17883
1.18666
1.21231
1.26025
1.3038
1.31128
1.31034
1.31086
1.31076
1.30374
1.31787
1.33077
119.795
1025.59
1027.09
1027.09
1027.09
1027.09
1027.09
1027.09
1027.09
1027.09
1027.09
1027.1
1027.1
1027.1
1027.1
1027.1
1027.1
1027.1
1027.1
1027.1
1027.1
1027.1
1027.1
1027.1
1027.1
1027.1
1027.1
1027.1
1027.1
1027.1
1027.1
1027.1
1027.1
1027.1
1027.1
1027.1
1027.1
1.16095
1.16089
1.16235
1.16345
1.16449
1.16534
1.16628
1.16711
1.16779
1.16824
1.16852
1.16871
1.16882
1.16886
1.16888
1.1689
1.16891
1.16891
1.16891
1.16891
1.16891
1.16892
1.16892
1.16892
1.16892
1.16892
1.16892
1.16892
1.16892
1.16892
1.16893
1.16893
1.16893
1.16893
1.16893
1.16893
1.16893
1.16893
1.16893
1.16893
1.16895
1.16905
1.16979
1.17264
1.17875
1.18481
1.18546
1.18625
1.19305
1.22529
1.30318
1.32049
1.31194
1.31033
1.30559
1.30652
1.30724
1.32768
1.35879
145.396
1022.39
1026.47
1026.5
1026.57
1026.6
1026.63
1026.67
1026.73
1026.78
1026.8
1026.81
1026.86
1026.92
1026.96
1027
1027.03
1027.05
1027.07
1027.08
1027.09
1027.09
1027.1
1027.1
1027.1
1027.1
1027.1
1027.1
1027.1
1027.1
1027.1
1027.1
1027.1
1027.1
1027.1
1027.1
1027.1
1.16088
1.16064
1.16173
1.16285
1.16405
1.16502
1.16606
1.16697
1.16771
1.16822
1.16851
1.16871
1.16882
1.16886
1.16888
1.1689
1.16891
1.16891
1.16891
1.16891
1.16891
1.16891
1.16892
1.16892
1.16892
1.16892
1.16892
1.16892
1.16892
1.16892
1.16893
1.16893
1.16893
1.16893
1.16893
1.16893
1.16893
1.16893
1.16893
1.16894
1.16895
1.16911
1.17011
1.17395
1.1823
1.19031
1.19243
1.19415
1.20375
1.2537
1.31814
1.31382
1.30752
1.30664
1.30487
1.30876
1.31063
1.31179
1.2889
190.064
1011.37
1020.85
1020.72
1020.67
1020.71
1020.64
1020.88
1021.08
1021.18
1021.13
1020.95
1020.96
1021.27
1021.56
1022.06
1022.65
1023.24
1023.87
1024.57
1025.26
1025.86
1026.35
1026.72
1026.96
1027.07
1027.09
1027.09
1027.1
1027.1
1027.1
1027.1
1027.1
1027.1
1027.1
1027.1
1027.1
1.16082
1.16046
1.16126
1.16225
1.16363
1.16474
1.16589
1.16686
1.16766
1.1682
1.16851
1.16871
1.16882
1.16886
1.16888
1.1689
1.16891
1.16891
1.16891
1.16891
1.16891
1.16891
1.16891
1.16892
1.16892
1.16892
1.16892
1.16892
1.16892
1.16892
1.16892
1.16893
1.16893
1.16893
1.16893
1.16893
1.16893
1.16893
1.16893
1.16894
1.16896
1.16916
1.17039
1.17484
1.18388
1.19342
1.19795
1.2031
1.21673
1.25958
1.31462
1.31048
1.30204
1.30067
1.30401
1.30555
1.29579
1.28264
1.26874
335.874
1002.22
1009.62
1008.92
1008.5
1008.1
1007.64
1007.1
1006.07
1004.87
1003.9
1003.25
1002.64
1002.16
1001.92
1001.85
1002.33
1002.87
1003.56
1004.59
1005.96
1007.73
1009.8
1012.13
1014.63
1017.1
1019.31
1021.15
1022.85
1024.53
1025.59
1025.87
1025.68
1025.52
1025.22
1024.61
1023.82
1.16075
1.16035
1.1609
1.16164
1.16308
1.16444
1.16574
1.16677
1.16762
1.1682
1.16851
1.16871
1.16882
1.16886
1.16888
1.1689
1.16891
1.16891
1.16891
1.16891
1.16891
1.16891
1.16892
1.16892
1.16892
1.16892
1.16892
1.16892
1.16892
1.16892
1.16893
1.16893
1.16893
1.16893
1.16893
1.16893
1.16893
1.16893
1.16893
1.16894
1.16896
1.16918
1.17052
1.17522
1.18442
1.19495
1.20387
1.21274
1.22407
1.25599
1.31459
1.3138
1.30321
1.3011
1.30176
1.29992
1.29411
1.29397
1.26874
432.981
999.217
1005.18
1004.72
1004.15
1003.22
1001.89
1000.97
1000.45
999.817
999.077
998.422
997.24
996.032
994.907
993.626
992.436
991.531
990.113
988.032
985.927
983.933
982
980.171
978.6
977.063
975.061
972.588
969.931
967.62
965.743
963.468
959.4
950.882
930.824
882.809
680.907
1.16063
1.16027
1.16061
1.16107
1.16237
1.16395
1.16552
1.16668
1.16759
1.1682
1.16851
1.16871
1.16882
1.16887
1.16888
1.1689
1.16891
1.16891
1.16891
1.16891
1.16891
1.16891
1.16892
1.16892
1.16892
1.16892
1.16892
1.16892
1.16892
1.16893
1.16893
1.16893
1.16893
1.16893
1.16893
1.16893
1.16893
1.16893
1.16894
1.16894
1.16896
1.16914
1.17039
1.17502
1.18443
1.19558
1.20612
1.21662
1.23146
1.26984
1.31345
1.31834
1.30274
1.29589
1.29301
1.29401
1.2886
1.28762
1.26874
311.441
1008.52
1018.35
1019.87
1022.06
1023.48
1024.7
1025.1
1024.9
1024.84
1024.95
1024.71
1024.42
1024.09
1023.85
1023.78
1023.92
1023.93
1023.36
1022.79
1021.78
1020.63
1019.29
1017.56
1015.36
1012.77
1009.86
1006.52
1001.99
996.345
990.986
987.352
984.647
982.672
982.078
984.82
989.138
1.16049
1.1602
1.16036
1.16064
1.16161
1.16329
1.16522
1.16656
1.16755
1.1682
1.16852
1.16872
1.16883
1.16887
1.16888
1.1689
1.16891
1.16891
1.16891
1.16891
1.16892
1.16892
1.16892
1.16892
1.16892
1.16892
1.16892
1.16893
1.16893
1.16893
1.16893
1.16893
1.16893
1.16893
1.16893
1.16893
1.16893
1.16894
1.16894
1.16894
1.16896
1.16907
1.16991
1.17375
1.18317
1.1939
1.20477
1.21735
1.2332
1.28545
1.31189
1.31849
1.305
1.29432
1.29358
1.29808
1.29314
1.29162
1.26874
199.829
1019.31
1026.01
1026.31
1026.66
1026.79
1026.89
1026.94
1026.98
1027
1027
1026.99
1026.98
1026.97
1026.95
1026.94
1026.94
1026.91
1026.89
1026.85
1026.8
1026.72
1026.61
1026.46
1026.25
1025.97
1025.57
1025.07
1024.65
1024.34
1024.12
1024.1
1024.63
1024.84
1025.22
1026.12
1026.68
1.16036
1.16014
1.16019
1.16032
1.16105
1.16258
1.16476
1.16635
1.16749
1.16818
1.16852
1.16873
1.16884
1.16887
1.16888
1.1689
1.16891
1.16891
1.16891
1.16891
1.16892
1.16892
1.16892
1.16892
1.16892
1.16892
1.16892
1.16893
1.16893
1.16893
1.16893
1.16893
1.16893
1.16893
1.16893
1.16893
1.16894
1.16894
1.16894
1.16894
1.16895
1.16901
1.16948
1.17259
1.18175
1.19234
1.20299
1.2161
1.23508
1.27578
1.29973
1.31516
1.31239
1.30458
1.30202
1.30129
1.28609
1.28426
1.26874
125.122
1022.79
1027.08
1027.08
1027.09
1027.09
1027.09
1027.09
1027.09
1027.09
1027.09
1027.09
1027.1
1027.1
1027.1
1027.1
1027.1
1027.1
1027.1
1027.1
1027.09
1027.09
1027.09
1027.09
1027.09
1027.08
1027.08
1027.07
1027.07
1027.07
1027.08
1027.09
1027.09
1027.1
1027.1
1027.1
1027.1
1.16027
1.16009
1.16007
1.16011
1.16067
1.16196
1.1641
1.16609
1.16747
1.16818
1.16853
1.16874
1.16884
1.16887
1.16888
1.1689
1.16891
1.16891
1.16891
1.16891
1.16892
1.16892
1.16892
1.16892
1.16892
1.16892
1.16892
1.16893
1.16893
1.16893
1.16893
1.16893
1.16893
1.16893
1.16893
1.16893
1.16893
1.16894
1.16894
1.16894
1.16895
1.16898
1.16929
1.17156
1.17869
1.1884
1.20017
1.21481
1.22853
1.24138
1.26325
1.28831
1.30371
1.30266
1.2988
1.2868
1.26473
1.28269
1.26874
47.5183
995.568
1027.09
1027.09
1027.1
1027.1
1027.1
1027.1
1027.1
1027.1
1027.1
1027.1
1027.1
1027.1
1027.1
1027.1
1027.1
1027.1
1027.1
1027.1
1027.1
1027.1
1027.1
1027.1
1027.1
1027.1
1027.1
1027.1
1027.1
1027.1
1027.1
1027.1
1027.1
1027.1
1027.1
1027.1
1027.1
1.16023
1.16009
1.16004
1.16001
1.16017
1.16093
1.16274
1.16538
1.16749
1.16823
1.16855
1.16875
1.16884
1.16886
1.16887
1.1689
1.16891
1.16891
1.16891
1.16891
1.16892
1.16892
1.16892
1.16892
1.16892
1.16892
1.16892
1.16893
1.16893
1.16893
1.16893
1.16893
1.16893
1.16893
1.16893
1.16893
1.16893
1.16893
1.16894
1.16894
1.16895
1.16898
1.16921
1.17049
1.1749
1.18341
1.19761
1.21431
1.22886
1.24083
1.24719
1.25117
1.27333
1.26714
1.2561
1.25615
1.2561
1.30033
1.35808
29.6568
1000.23
1027.09
1027.09
1027.1
1027.1
1027.1
1027.1
1027.1
1027.1
1027.1
1027.1
1027.1
1027.1
1027.1
1027.1
1027.1
1027.1
1027.1
1027.1
1027.1
1027.1
1027.1
1027.1
1027.1
1027.1
1027.1
1027.1
1027.1
1027.1
1027.1
1027.1
1027.1
1027.1
1027.1
1027.1
1027.1
1.1603
1.1604
1.16022
1.16017
1.15988
1.16007
1.16081
1.16337
1.16703
1.16835
1.16862
1.16876
1.16882
1.16883
1.16885
1.16889
1.1689
1.16891
1.16891
1.16891
1.16891
1.16891
1.16892
1.16892
1.16892
1.16892
1.16892
1.16892
1.16892
1.16892
1.16892
1.16892
1.16892
1.16892
1.16893
1.16893
1.16893
1.16893
1.16893
1.16893
1.16894
1.16897
1.16909
1.16964
1.17194
1.17951
1.19558
1.21546
1.23147
1.24243
1.24873
1.25003
1.25196
1.25035
1.25032
1.2545
1.26494
1.31867
1.61197
30.5136
996.332
1027.09
1027.09
1027.1
1027.1
1027.1
1027.1
1027.1
1027.1
1027.1
1027.1
1027.1
1027.1
1027.1
1027.1
1027.1
1027.1
1027.1
1027.1
1027.1
1027.1
1027.1
1027.1
1027.1
1027.1
1027.1
1027.1
1027.1
1027.1
1027.1
1027.1
1027.1
1027.1
1027.1
1027.1
1027.1
1.16044
1.16071
1.16064
1.16066
1.16015
1.16
1.16
1.16136
1.16582
1.16844
1.16868
1.16876
1.16877
1.16878
1.16882
1.16888
1.1689
1.16891
1.16891
1.16891
1.16891
1.16891
1.16891
1.16892
1.16892
1.16892
1.16892
1.16892
1.16892
1.16892
1.16892
1.16892
1.16892
1.16892
1.16892
1.16892
1.16893
1.16893
1.16893
1.16893
1.16894
1.16896
1.16904
1.16935
1.17072
1.17692
1.19477
1.21872
1.23464
1.24371
1.24812
1.25014
1.25246
1.25184
1.25514
1.26383
1.28257
1.3924
1.95299
35.1956
980.954
1027.06
1027.09
1027.1
1027.1
1027.1
1027.1
1027.1
1027.1
1027.1
1027.1
1027.1
1027.1
1027.1
1027.1
1027.1
1027.1
1027.1
1027.1
1027.1
1027.1
1027.1
1027.1
1027.1
1027.1
1027.1
1027.1
1027.1
1027.1
1027.1
1027.1
1027.1
1027.1
1027.1
1027.1
1027.1
1.16009
1.16061
1.16058
1.16087
1.16036
1.16011
1.16009
1.16082
1.16482
1.16834
1.16867
1.16872
1.16873
1.16876
1.16881
1.16888
1.16891
1.16891
1.16891
1.16891
1.16892
1.16892
1.16892
1.16892
1.16892
1.16892
1.16892
1.16893
1.16893
1.16893
1.16893
1.16893
1.16893
1.16893
1.16893
1.16893
1.16894
1.16894
1.16894
1.16894
1.16895
1.16897
1.16904
1.16931
1.17049
1.17627
1.19452
1.2202
1.2361
1.24498
1.25152
1.25575
1.25809
1.25941
1.25978
1.26321
1.26165
1.3909
2.18322
41.9155
951.806
1026.29
1027.09
1027.1
1027.1
1027.1
1027.1
1027.1
1027.1
1027.1
1027.1
1027.1
1027.1
1027.1
1027.1
1027.1
1027.1
1027.1
1027.1
1027.1
1027.1
1027.1
1027.1
1027.1
1027.1
1027.1
1027.1
1027.1
1027.1
1027.1
1027.1
1027.1
1027.1
1027.1
1027.1
1027.1
1.16169
1.16276
1.16374
1.1643
1.16479
1.16577
1.16694
1.16795
1.16856
1.16874
1.16881
1.16885
1.16888
1.16889
1.1689
1.16891
1.16891
1.16891
1.16891
1.16892
1.16892
1.16892
1.16892
1.16892
1.16892
1.16892
1.16892
1.16893
1.16893
1.16893
1.16893
1.16893
1.16893
1.16893
1.16894
1.16894
1.16894
1.16894
1.16894
1.16894
1.16894
1.16895
1.16895
1.169
1.16928
1.17063
1.17469
1.19016
1.22008
1.23751
1.25511
1.27054
1.28058
1.28579
1.28626
1.2869
1.28188
1.29976
1.62201
39.4865
982.549
1026.95
1027.1
1027.1
1027.1
1027.1
1027.1
1027.1
1027.1
1027.1
1027.1
1027.1
1027.1
1027.1
1027.1
1027.1
1027.1
1027.1
1027.1
1027.1
1027.1
1027.1
1027.1
1027.1
1027.1
1027.1
1027.1
1027.1
1027.1
1027.1
1027.1
1027.1
1027.1
1027.1
1027.1
1027.1
1.16079
1.16174
1.16425
1.16472
1.16525
1.16619
1.16724
1.16809
1.16847
1.16863
1.16872
1.1688
1.16885
1.16888
1.16889
1.1689
1.16891
1.16891
1.16891
1.16892
1.16892
1.16892
1.16892
1.16892
1.16892
1.16892
1.16893
1.16893
1.16893
1.16893
1.16893
1.16893
1.16893
1.16893
1.16893
1.16893
1.16893
1.16893
1.16893
1.16894
1.16894
1.16895
1.16897
1.16903
1.16925
1.1701
1.17313
1.18758
1.21498
1.23
1.25079
1.26883
1.27114
1.27061
1.27142
1.27602
1.27609
1.29592
1.40854
55.0959
1010.91
1027.08
1027.1
1027.1
1027.1
1027.1
1027.1
1027.1
1027.1
1027.1
1027.1
1027.1
1027.1
1027.1
1027.1
1027.1
1027.1
1027.1
1027.1
1027.1
1027.1
1027.1
1027.1
1027.1
1027.1
1027.1
1027.1
1027.1
1027.1
1027.1
1027.1
1027.1
1027.1
1027.1
1027.1
1027.1
1.16058
1.16083
1.16411
1.16494
1.16559
1.16642
1.16732
1.168
1.16831
1.16849
1.16865
1.16877
1.16884
1.16887
1.16888
1.1689
1.1689
1.1689
1.1689
1.16891
1.16891
1.16891
1.16891
1.16891
1.16892
1.16892
1.16892
1.16892
1.16892
1.16892
1.16892
1.16892
1.16892
1.16892
1.16892
1.16892
1.16892
1.16892
1.16893
1.16893
1.16893
1.16895
1.16901
1.16915
1.16943
1.17053
1.17371
1.18542
1.20585
1.23051
1.25606
1.26995
1.28346
1.29275
1.29052
1.28618
1.27929
1.29152
1.29003
67.8944
1017.86
1027.09
1027.1
1027.09
1027.09
1027.09
1027.1
1027.1
1027.1
1027.1
1027.1
1027.1
1027.1
1027.1
1027.1
1027.1
1027.1
1027.1
1027.1
1027.1
1027.1
1027.1
1027.1
1027.1
1027.1
1027.1
1027.1
1027.1
1027.1
1027.1
1027.1
1027.1
1027.1
1027.1
1027.1
1027.1
1.16056
1.16056
1.16268
1.16471
1.16553
1.16639
1.16725
1.16782
1.16818
1.16843
1.16863
1.16876
1.16883
1.16887
1.16889
1.1689
1.1689
1.1689
1.16891
1.16891
1.16891
1.16891
1.16891
1.16891
1.16891
1.16891
1.16891
1.16891
1.16892
1.16892
1.16892
1.16892
1.16892
1.16892
1.16892
1.16892
1.16892
1.16892
1.16892
1.16893
1.16894
1.16897
1.16906
1.16925
1.16981
1.17154
1.1751
1.18399
1.20005
1.23836
1.27262
1.30668
1.30952
1.30917
1.30784
1.30542
1.29229
1.29289
1.28999
86.1608
1014.02
1027.07
1027.08
1027.08
1027.09
1027.09
1027.09
1027.09
1027.09
1027.09
1027.09
1027.1
1027.1
1027.09
1027.09
1027.1
1027.1
1027.1
1027.1
1027.1
1027.1
1027.1
1027.1
1027.1
1027.1
1027.1
1027.1
1027.1
1027.1
1027.1
1027.1
1027.1
1027.1
1027.1
1027.1
1027.1
1.16056
1.16056
1.16085
1.1641
1.16542
1.16632
1.16714
1.16767
1.1681
1.1684
1.16861
1.16875
1.16883
1.16887
1.16888
1.1689
1.1689
1.1689
1.16891
1.16891
1.16891
1.16891
1.16891
1.16891
1.16891
1.16891
1.16891
1.16891
1.16892
1.16892
1.16892
1.16892
1.16892
1.16892
1.16892
1.16892
1.16892
1.16892
1.16892
1.16893
1.16895
1.16902
1.16916
1.16981
1.17157
1.17382
1.17769
1.18559
1.20696
1.26248
1.31648
1.32022
1.3033
1.29722
1.29723
1.29822
1.29672
1.30146
1.3059
97.4853
1004.94
1026.48
1026.49
1026.57
1026.61
1026.65
1026.71
1026.75
1026.8
1026.83
1026.85
1026.88
1026.92
1026.95
1026.98
1027
1027.03
1027.05
1027.07
1027.08
1027.09
1027.09
1027.1
1027.1
1027.1
1027.1
1027.1
1027.1
1027.1
1027.1
1027.1
1027.1
1027.1
1027.1
1027.1
1027.1
1.16059
1.16051
1.16094
1.16316
1.16519
1.16621
1.167
1.16756
1.16805
1.16839
1.16861
1.16875
1.16883
1.16887
1.16888
1.16889
1.1689
1.1689
1.1689
1.1689
1.16891
1.16891
1.16891
1.16891
1.16891
1.16891
1.16891
1.16891
1.16892
1.16892
1.16892
1.16892
1.16892
1.16892
1.16892
1.16892
1.16893
1.16893
1.16893
1.16894
1.16896
1.16902
1.16931
1.17097
1.17528
1.17838
1.18289
1.19083
1.22556
1.29751
1.3219
1.31946
1.30937
1.30597
1.30576
1.31281
1.32401
1.34881
1.42103
125.902
1009.44
1023.07
1022.87
1022.94
1022.88
1022.73
1022.71
1022.9
1023.13
1023.33
1023.6
1023.95
1024.33
1024.69
1025.01
1025.28
1025.55
1025.83
1026.08
1026.31
1026.5
1026.66
1026.79
1026.91
1027
1027.06
1027.08
1027.1
1027.1
1027.1
1027.1
1027.1
1027.1
1027.1
1027.1
1027.1
1.16052
1.1603
1.16087
1.16263
1.16475
1.16616
1.16709
1.16761
1.16808
1.16838
1.16858
1.16873
1.16882
1.16887
1.16889
1.16889
1.16889
1.1689
1.1689
1.1689
1.16891
1.16891
1.16891
1.16891
1.16892
1.16892
1.16892
1.16892
1.16892
1.16892
1.16892
1.16892
1.16892
1.16892
1.16892
1.16893
1.16893
1.16893
1.16893
1.16893
1.16895
1.169
1.16948
1.17198
1.17828
1.18374
1.19025
1.20064
1.23775
1.29645
1.31765
1.32079
1.32113
1.32216
1.32587
1.33771
1.35252
1.37863
1.43133
216.584
1005.54
1016.69
1016.51
1016.36
1015.96
1015.66
1015.96
1016.66
1017.42
1018.19
1018.97
1019.84
1020.59
1021.25
1021.88
1022.36
1022.71
1022.97
1023.21
1023.46
1023.69
1023.93
1024.21
1024.57
1025.01
1025.56
1026.15
1026.64
1026.91
1027.04
1027.09
1027.1
1027.1
1027.1
1027.1
1027.1
1.16043
1.16016
1.1606
1.16179
1.16395
1.16564
1.16683
1.16749
1.16803
1.16816
1.16847
1.16871
1.16879
1.16886
1.16888
1.16889
1.16889
1.16889
1.1689
1.1689
1.1689
1.1689
1.1689
1.16891
1.16891
1.16891
1.16891
1.16891
1.16891
1.16891
1.16892
1.16892
1.16892
1.16892
1.16892
1.16892
1.16892