/*--------------------------------*- C++ -*----------------------------------*\
| =========                 |                                                 |
| \\      /  F ield         | OpenFOAM: The Open Source CFD Toolbox           |
|  \\    /   O peration     | Version:  2.3.0                                 |
|   \\  /    A nd           | Web:      www.OpenFOAM.org                      |
|    \\/     M anipulation  |                                                 |
\*---------------------------------------------------------------------------*/
FoamFile
{
    version     2.0;
    format      ascii;
    class       volVectorField;
    location    "48";
    object      U;
}
// * * * * * * * * * * * * * * * * * * * * * * * * * * * * * * * * * * * * * //

dimensions      [0 1 -1 0 0 0 0];

internalField   nonuniform List<vector> 
6144
(
(0.0113283 0.0206785 0.000196051)
(0.0120411 -0.00418692 -0.00122442)
(0.00416917 -0.00595466 -0.00264373)
(0.00334033 -0.00482225 -0.00259142)
(0.00192763 -0.00302784 -0.00189541)
(0.00297056 -0.000319962 -0.00147731)
(0.00318492 -0.000649338 -0.0012094)
(0.00292937 4.12504e-05 -0.00105281)
(0.0022739 -0.000182141 -0.000775795)
(0.00173707 0.00112236 -0.000322717)
(0.00135564 0.00225374 0.000172116)
(0.00131552 0.00340252 0.000809967)
(0.00140645 0.00365608 0.00119641)
(0.00151495 0.00332316 0.00164575)
(0.00157306 0.00257381 0.00172306)
(0.00166601 0.00179963 0.00167735)
(0.00174668 0.000962239 0.00146671)
(0.00182911 0.00026979 0.00121568)
(0.00190509 -0.000295063 0.000952848)
(0.00196458 -0.000669463 0.000716573)
(0.00200516 -0.000892201 0.000511228)
(0.00204118 -0.000951692 0.000333507)
(0.00205654 -0.000918775 0.000246125)
(0.00205004 -0.000839355 0.000243657)
(0.00202215 -0.000748082 0.000312352)
(0.00198011 -0.000668453 0.000436663)
(0.00193618 -0.000626588 0.000589877)
(0.00189687 -0.000645837 0.000743779)
(0.00185528 -0.000734285 0.000896195)
(0.00181189 -0.000873169 0.00103437)
(0.00176923 -0.00104742 0.00116562)
(0.00172885 -0.00126202 0.00130247)
(0.00168899 -0.00152954 0.00145258)
(0.00164913 -0.0018656 0.00162438)
(0.00161209 -0.00229488 0.00182469)
(0.00158814 -0.00285543 0.00205454)
(0.00159142 -0.00360255 0.00229042)
(0.00164001 -0.00455056 0.00246796)
(0.00174263 -0.00567311 0.00251529)
(0.00190608 -0.00688942 0.00235424)
(0.0020861 -0.00813789 0.00205336)
(0.00226095 -0.00924212 0.00171665)
(0.00250392 -0.0102701 0.00123163)
(0.00264045 -0.0115009 0.00116178)
(0.0029124 -0.0134036 -3.70999e-05)
(0.00336937 -0.0135206 -0.00153353)
(0.00411087 -0.0124781 -0.00283339)
(-0.00162997 -0.00946127 -0.000854695)
(0.00528597 -0.00325072 -0.00411022)
(0.0273316 -0.0198376 -0.0107654)
(0.0299437 -0.0449563 -0.00838981)
(0.0251196 -0.0710058 -0.0038329)
(0.0182868 -0.0817741 0.00258961)
(0.00912513 -0.10029 0.00143349)
(0.00303443 -0.0917238 0.0011782)
(-0.00082882 -0.111424 0.00638321)
(-0.00617643 -0.0579045 0.00218829)
(-0.000953424 -0.137412 0.0357275)
(-0.0450814 0.0312075 -0.0463432)
(0.0185304 0.0833723 0.0486365)
(0.108286 -0.269955 0.0799048)
(0.0758707 -0.0809422 0.0315423)
(0.0500808 -0.159126 -0.00119643)
(0.0475797 -0.166349 -0.000350836)
(0.0439476 -0.16609 -0.00266365)
(0.0396423 -0.172136 -0.00487772)
(0.0337385 -0.175699 -0.00712661)
(0.0323556 -0.179631 -0.00471123)
(0.0305926 -0.179999 -0.00054085)
(0.026721 -0.181383 0.00236152)
(0.0220738 -0.181268 0.00146904)
(0.016609 -0.182633 0.00478861)
(0.0107638 -0.186055 0.00927936)
(0.00828751 -0.186435 0.011023)
(0.00492831 -0.184668 0.0115575)
(0.000297909 -0.178361 0.0114309)
(0.00213132 -0.172388 0.011976)
(0.0131053 -0.167517 0.0101658)
(0.0240578 -0.171518 0.0108271)
(0.0228793 -0.178052 0.0143059)
(0.019276 -0.182463 0.0153081)
(0.0191236 -0.189094 0.0129619)
(0.0126368 -0.193707 0.00768564)
(0.00727815 -0.188477 0.00387082)
(0.0040025 -0.170665 0.00804103)
(-0.0185128 -0.146725 -0.00777944)
(-0.0287234 -0.0790917 -0.00158667)
(-0.0145018 -0.0155243 0.00119108)
(-0.00483 0.0167613 -0.018626)
(0.00393274 0.0340485 -0.0236149)
(0.0107202 0.0458233 -0.0241664)
(0.0149442 0.05735 -0.0240443)
(0.0155232 0.069473 -0.0246707)
(0.0153183 0.0754856 -0.0207208)
(0.0097204 0.0574541 -0.00272393)
(0.00159903 0.0257384 0.0251702)
(0.0210837 0.0195979 0.00377327)
(0.0231503 0.00387466 0.00302981)
(0.0105285 -0.000971876 -0.0013425)
(0.00886208 -0.00138065 -0.0006322)
(0.00437025 -0.00381811 0.00102408)
(0.00493174 -0.00150043 0.00158335)
(0.00479107 -0.00148482 0.00223323)
(0.00441056 0.000138388 0.00249774)
(0.00325768 0.000271015 0.00267875)
(0.00220529 0.0020879 0.00270581)
(0.00173938 0.00327968 0.00294283)
(0.00192598 0.00435518 0.00357855)
(0.00233413 0.00448753 0.00394433)
(0.00277144 0.00420055 0.00423439)
(0.00294866 0.00342162 0.00431092)
(0.00313038 0.00264574 0.00431705)
(0.0032341 0.00174166 0.00425374)
(0.0033196 0.0009765 0.0041731)
(0.00338559 0.000308382 0.00409468)
(0.00342619 -0.000177256 0.0040408)
(0.00343109 -0.000517894 0.00401223)
(0.0034486 -0.000686372 0.00394035)
(0.00343731 -0.000757207 0.00392621)
(0.00339286 -0.000763386 0.00396717)
(0.00331423 -0.000739986 0.00405491)
(0.00321686 -0.000706881 0.00417409)
(0.00312481 -0.00069042 0.00429503)
(0.00306013 -0.000715257 0.00438777)
(0.00299654 -0.000801859 0.00448928)
(0.00292707 -0.000943531 0.00459158)
(0.00286127 -0.00113741 0.00469282)
(0.00280907 -0.00139126 0.0047979)
(0.0027696 -0.00171785 0.00490871)
(0.00274594 -0.00213151 0.0050279)
(0.00274954 -0.00264842 0.00515564)
(0.00280442 -0.00328475 0.00529054)
(0.00292823 -0.00405351 0.00542111)
(0.0031294 -0.00494933 0.00553337)
(0.00340077 -0.00596774 0.0056053)
(0.00373163 -0.00705364 0.00562629)
(0.00414217 -0.00818313 0.00557558)
(0.0046446 -0.00942053 0.00542027)
(0.00548402 -0.0110703 0.00489288)
(0.0061256 -0.0132419 0.00491645)
(0.0059606 -0.0170432 0.00432041)
(0.00492818 -0.0190873 0.00183922)
(0.00361696 -0.0157136 -0.000116381)
(0.0019208 -0.0102001 0.000853114)
(0.01302 -0.0215092 -0.0023685)
(0.0481151 -0.0274209 -0.00915475)
(0.0501985 -0.0367859 -0.00875923)
(0.0429578 -0.0556001 -0.00108764)
(0.0300235 -0.0699298 0.0101276)
(0.0193835 -0.100214 0.00682198)
(0.0131318 -0.0934757 0.00654509)
(0.00248321 -0.113716 0.0148437)
(-0.00613663 -0.0556328 0.0268649)
(-0.0242112 -0.14784 0.0586626)
(-0.0719872 0.0852243 -0.116972)
(0.00538107 0.00643783 0.0323765)
(0.147461 -0.240028 0.120832)
(0.0959378 -0.0170442 0.0555335)
(0.0724061 -0.113488 0.0201088)
(0.0680108 -0.0976828 0.0213519)
(0.0567113 -0.092148 0.00650771)
(0.041233 -0.0854282 0.00287291)
(0.0325203 -0.0809312 0.00975895)
(0.0254679 -0.0774141 0.0135618)
(0.0262481 -0.072637 0.0150012)
(0.0260091 -0.0665787 0.0122183)
(0.0270596 -0.0671188 0.0132515)
(0.025969 -0.0739919 0.0204478)
(0.013737 -0.0957449 0.0286246)
(0.000855992 -0.110635 0.0234422)
(-0.00458589 -0.119442 0.0185816)
(-0.00455286 -0.123635 0.0217926)
(-0.00532204 -0.125772 0.0361847)
(-0.0146678 -0.12664 0.0518694)
(-0.0229235 -0.128279 0.0525989)
(-0.0238411 -0.127099 0.0469653)
(-0.0208457 -0.128216 0.0289935)
(-0.012029 -0.12394 0.00644728)
(-0.0125329 -0.119812 -0.00419499)
(-0.0192941 -0.115477 -0.00489412)
(-0.034142 -0.102004 0.00578678)
(-0.0389896 -0.0920221 -0.00311106)
(-0.0468944 -0.0480206 0.00153556)
(-0.0372409 0.00328801 -0.00170792)
(-0.00833873 0.0214464 -0.0160046)
(0.00976037 0.0309504 -0.0135046)
(0.0194194 0.0434429 -0.0101135)
(0.0244054 0.0550178 -0.00679926)
(0.0221626 0.0700237 -0.00451258)
(0.0137595 0.0758652 0.00598077)
(0.00326748 0.054285 0.0258888)
(0.00259778 0.0332137 0.0438607)
(0.0239994 0.0185776 0.00485471)
(0.0270448 0.0093116 0.00492744)
(0.0159028 0.00266489 0.00129636)
(0.0126082 0.00231959 0.00210525)
(0.00472805 -0.00276835 0.00367525)
(0.00412221 -0.000429443 0.00365234)
(0.00284813 -0.000934782 0.00428564)
(0.00236576 0.00119208 0.0041386)
(0.00118839 0.0012728 0.00417181)
(0.000447307 0.00265984 0.0041857)
(5.13526e-05 0.00308371 0.00425978)
(0.000558385 0.00385277 0.00455754)
(0.00106141 0.00387146 0.00481679)
(0.00161747 0.00387976 0.00501569)
(0.00187614 0.00345799 0.00504932)
(0.00213805 0.0030539 0.00503864)
(0.00230003 0.00245732 0.00499016)
(0.00241596 0.00191027 0.00494004)
(0.00248354 0.00136199 0.00489402)
(0.0025208 0.000912358 0.00487572)
(0.00251067 0.000517742 0.00488352)
(0.00244576 0.000210868 0.00492444)
(0.00236604 -1.7939e-05 0.00498189)
(0.00227116 -0.000178331 0.00504558)
(0.00215895 -0.000290857 0.00511295)
(0.00204241 -0.000373918 0.00518248)
(0.00193205 -0.00044841 0.00525693)
(0.00183375 -0.000524919 0.00534294)
(0.00174939 -0.000618699 0.00543741)
(0.00166777 -0.000749843 0.00553583)
(0.00159616 -0.00092891 0.00563419)
(0.00155063 -0.00116793 0.00573109)
(0.00153332 -0.00147859 0.00582688)
(0.00154695 -0.0018661 0.00592142)
(0.00160172 -0.00232333 0.00600726)
(0.00172395 -0.00282736 0.00607537)
(0.00194541 -0.0033474 0.00610932)
(0.00229866 -0.0038667 0.00610454)
(0.00278283 -0.00442525 0.00606304)
(0.00339168 -0.0051003 0.00599693)
(0.00411334 -0.00607739 0.00589786)
(0.0050005 -0.00752102 0.00571356)
(0.00628484 -0.00970165 0.00521642)
(0.00750178 -0.0129874 0.00576161)
(0.00726277 -0.0172157 0.00490501)
(0.00553838 -0.022152 0.00308005)
(0.00155624 -0.0214971 0.00127437)
(0.00385435 -0.0226092 0.00251523)
(0.0208659 -0.0313527 -0.00255678)
(0.0585863 -0.0240178 -0.00859328)
(0.0669151 -0.0287548 -0.00414175)
(0.0611972 -0.0563618 0.00422702)
(0.0379292 -0.0740021 0.0180155)
(0.0176793 -0.114776 0.0113185)
(-0.00668119 -0.109202 0.00836538)
(-0.0246467 -0.134981 0.0137064)
(-0.0381245 -0.0851604 0.0279314)
(-0.0537286 -0.165931 0.0643264)
(-0.0701493 0.0749966 -0.114864)
(0.00692068 0.01796 -0.012342)
(0.187005 -0.236206 0.137002)
(0.127007 -0.0233653 0.0946132)
(0.0969875 -0.108217 0.0494956)
(0.0767622 -0.08225 0.0283556)
(0.039939 -0.0575166 0.000428336)
(0.0217674 -0.0464136 0.020995)
(0.0180803 -0.0401546 0.0225519)
(0.0205625 -0.029173 0.0133033)
(0.0220171 -0.0176344 0.0117599)
(0.0212892 -0.00986425 0.0238252)
(0.0146857 -0.0248518 0.0467969)
(-0.000195729 -0.0392715 0.0646593)
(-0.00669869 -0.0547238 0.0529268)
(-0.0165062 -0.0637489 0.0368758)
(-0.025142 -0.0604959 0.0376002)
(-0.0360896 -0.0605909 0.0386995)
(-0.0460106 -0.0689758 0.0350598)
(-0.0482879 -0.0841036 0.0374381)
(-0.0436419 -0.10413 0.0380114)
(-0.026649 -0.11819 0.0246521)
(0.00620705 -0.111315 0.00288525)
(0.021696 -0.0975338 -0.00602006)
(0.0209923 -0.0840518 -0.00424122)
(0.00754289 -0.0719411 0.00646119)
(-0.0225803 -0.0681941 0.00100481)
(-0.0702976 -0.0298595 -0.015321)
(-0.070396 0.0138271 -0.000894574)
(-0.031262 0.0217988 -0.00365961)
(-0.00432523 0.0253346 -0.0112558)
(0.00903059 0.0309293 -0.00738008)
(0.0165212 0.041332 -0.001718)
(0.0205296 0.0512685 0.00170046)
(0.0161834 0.0638681 0.00672653)
(0.00403766 0.0682751 0.0153071)
(-0.00746171 0.0505124 0.0344156)
(-0.00760271 0.0281016 0.055875)
(0.0247422 0.0183046 0.005025)
(0.0288732 0.01345 0.00499425)
(0.0188566 0.00518194 0.000677168)
(0.0158607 0.00586591 0.000851245)
(0.00632277 -0.00119122 0.00276164)
(0.00333159 0.00083931 0.0030718)
(0.00121146 -0.000719043 0.00434855)
(0.000509281 0.00140574 0.00424922)
(-0.000627329 0.000895487 0.00436231)
(-0.00120645 0.00207294 0.00435894)
(-0.00144018 0.00211883 0.00450382)
(-0.000933838 0.00283965 0.00486356)
(-0.000480527 0.00309503 0.00509101)
(0.000112495 0.00340735 0.00524965)
(0.000442703 0.00325446 0.00524759)
(0.000740048 0.00308951 0.00524911)
(0.000926754 0.00268197 0.00523425)
(0.00104626 0.00228225 0.00523342)
(0.00109307 0.00182958 0.00521968)
(0.00110983 0.00142722 0.00521226)
(0.00107285 0.00104718 0.00521239)
(0.00099711 0.000710261 0.0052267)
(0.000893173 0.000411285 0.00525358)
(0.000771341 0.000169726 0.00528742)
(0.00064204 -1.71505e-05 0.00532704)
(0.000518594 -0.000156749 0.00537213)
(0.000414629 -0.000264436 0.00542116)
(0.0003375 -0.000362211 0.00547728)
(0.000281283 -0.000468237 0.00554203)
(0.000238753 -0.000594237 0.00561315)
(0.000219276 -0.000750855 0.00568666)
(0.000238269 -0.000947503 0.00575724)
(0.000295086 -0.00119193 0.00581821)
(0.000393519 -0.00148492 0.00586134)
(0.000537375 -0.00181285 0.00587061)
(0.000740315 -0.00215186 0.00582901)
(0.00103518 -0.00248502 0.00572072)
(0.0014561 -0.00283618 0.00554904)
(0.00203461 -0.00331362 0.00534642)
(0.00282105 -0.0040458 0.0051764)
(0.00382754 -0.00524674 0.00503892)
(0.00505235 -0.00700063 0.00482933)
(0.00657193 -0.00968573 0.00446339)
(0.00772005 -0.0127106 0.0047088)
(0.00806655 -0.0177405 0.00326529)
(0.00614336 -0.0208297 0.000605261)
(0.00452562 -0.0244437 0.00126163)
(0.00919187 -0.0309802 0.0028488)
(0.023793 -0.0356576 -0.00166964)
(0.0587236 -0.0251928 -0.00360844)
(0.0762285 -0.0335164 0.0107375)
(0.0692763 -0.0688439 0.0294357)
(0.047007 -0.0952734 0.0243146)
(0.0345156 -0.135907 0.0042688)
(0.0114738 -0.133078 -0.0158347)
(-0.00399203 -0.159169 -0.00910742)
(-0.0286284 -0.129547 0.0188518)
(-0.0425109 -0.205235 0.0715428)
(-0.0852845 0.0569125 -0.107336)
(0.0347494 0.0204887 -0.0120645)
(0.221911 -0.238064 0.147514)
(0.120202 -0.0273315 0.104876)
(0.0525474 -0.0819343 0.0687501)
(0.0191233 -0.0324633 0.02632)
(-0.00713604 -0.00929577 0.0235047)
(-0.0243469 -0.0103585 0.0286901)
(-0.0130256 0.0052797 0.022727)
(-0.00401898 0.0140831 0.0230201)
(0.00209811 0.0179517 0.0242912)
(0.000441191 0.0136573 0.0201842)
(-0.0165762 0.00969466 0.0186913)
(-0.0303936 0.00248818 0.0289961)
(-0.040003 -0.00496326 0.0245046)
(-0.0426058 -0.010851 0.0194643)
(-0.0444047 -0.0216105 0.0156746)
(-0.0437335 -0.0411045 0.0138815)
(-0.0408796 -0.0578492 0.01728)
(-0.0330411 -0.0725042 0.0217766)
(-0.0229481 -0.0857497 0.0120068)
(-0.0188461 -0.0929332 -0.00857091)
(-0.0220038 -0.0826159 -0.0227412)
(-0.0207621 -0.062271 -0.0173788)
(-0.02169 -0.0356246 -0.0103479)
(-0.0358536 -0.00470229 -0.0176859)
(-0.0555766 0.0250993 -0.0206522)
(-0.0644968 0.0403079 -0.0137665)
(-0.0435032 0.038095 -0.00229062)
(-0.0213727 0.027036 -0.0109923)
(-0.00512982 0.0267599 -0.0120199)
(0.00554748 0.0303593 -0.00622895)
(0.014952 0.0397293 0.00139218)
(0.0211993 0.0485073 0.00633416)
(0.0154405 0.0588467 0.013778)
(-0.000835981 0.0614566 0.0239194)
(-0.0212115 0.0478065 0.0378303)
(-0.0234991 0.020817 0.0611909)
(0.0246375 0.0185518 0.00484936)
(0.0302662 0.0170856 0.00519237)
(0.0216087 0.00818708 0.000747082)
(0.0206503 0.00944635 0.000138031)
(0.00948488 0.000548129 -0.00038934)
(0.00403101 0.00231275 0.000524029)
(0.000183056 -0.0011648 0.00327837)
(-0.00109128 0.00141204 0.00353542)
(-0.00223289 0.00029999 0.00388379)
(-0.00284522 0.00131403 0.00417158)
(-0.00336707 0.00116161 0.00443854)
(-0.00321353 0.00199218 0.00485837)
(-0.00291421 0.00245846 0.00502064)
(-0.00223706 0.00302257 0.00515611)
(-0.00183013 0.00304515 0.00510171)
(-0.00150146 0.00296422 0.00511334)
(-0.00132493 0.00263203 0.00512987)
(-0.00128506 0.00231912 0.00517327)
(-0.0013199 0.00196249 0.00518326)
(-0.00137301 0.00163352 0.0051707)
(-0.00144668 0.0012957 0.0051379)
(-0.00153518 0.00096476 0.00510239)
(-0.0016336 0.000646808 0.00507246)
(-0.00174037 0.000370209 0.00505226)
(-0.00185819 0.000138566 0.00504016)
(-0.00196561 -4.68637e-05 0.00503531)
(-0.00204251 -0.000196312 0.00503909)
(-0.00208094 -0.000325488 0.00504939)
(-0.00209336 -0.000442395 0.00506157)
(-0.00209406 -0.000551629 0.00507804)
(-0.00207171 -0.000663179 0.00509624)
(-0.0020058 -0.000789046 0.00510578)
(-0.00189411 -0.000935419 0.00509727)
(-0.0017381 -0.00109252 0.00505482)
(-0.00153047 -0.00125321 0.0049585)
(-0.00125004 -0.00140924 0.00479829)
(-0.000849602 -0.00159424 0.00456635)
(-0.000242051 -0.00188802 0.00430783)
(0.000644102 -0.0024003 0.00410922)
(0.00179743 -0.00326353 0.0040697)
(0.00310771 -0.00461992 0.00425768)
(0.00456628 -0.00645499 0.00440376)
(0.00629253 -0.00908347 0.00416772)
(0.00817121 -0.0119383 0.00331699)
(0.00902755 -0.016303 0.00147653)
(0.00983787 -0.0203272 -0.0015662)
(0.0119253 -0.0271843 0.00260967)
(0.0134557 -0.0376696 0.00438786)
(0.0216886 -0.0384537 0.00152022)
(0.0483579 -0.025918 0.00556616)
(0.066975 -0.0375843 0.036853)
(0.0628384 -0.0702131 0.0461813)
(0.0487054 -0.0976717 0.0137087)
(0.0425412 -0.0937747 -0.0124427)
(0.041561 -0.0410224 -0.0151204)
(0.0467384 -0.0807134 0.0114373)
(-0.0544076 -0.0316085 0.0785515)
(-0.0503519 -0.210254 0.156935)
(-0.128775 0.0908978 -0.0434979)
(0.0500144 -0.013661 -0.0113647)
(0.258182 -0.210147 0.14105)
(0.0927628 0.0410327 0.105408)
(0.0205923 -0.0495494 0.0783599)
(-0.00962907 -0.00730309 0.0201766)
(-0.0352785 -0.00984539 0.0159085)
(-0.0401642 -0.0279296 0.018398)
(-0.0341926 -0.0203333 0.0126654)
(-0.0226954 -0.0105532 0.00288723)
(-0.0154508 0.000238709 -0.00322211)
(-0.0034906 -0.00509334 -0.00873329)
(-0.0141466 -0.00282355 0.00746619)
(-0.0236193 0.000414761 0.0166932)
(-0.0175147 0.0100269 0.00911014)
(-0.00675365 0.0105327 0.00647232)
(0.0049698 0.0100901 -0.00373662)
(5.71287e-06 0.00651075 -0.00827689)
(-0.0123413 -0.000337849 -0.00439706)
(-0.0165763 -0.000811601 -0.00401892)
(-0.018031 0.00334298 -0.00843747)
(-0.0154788 0.0106617 -0.0147598)
(-0.0101847 0.0266025 -0.0172502)
(-0.0122038 0.0412798 -0.014884)
(-0.0195116 0.0520213 -0.0139071)
(-0.0278602 0.0556775 -0.0135179)
(-0.0332823 0.054277 -0.00783683)
(-0.0337545 0.0416188 -0.000785986)
(-0.0143325 0.0241917 -2.98918e-07)
(-0.0044063 0.0152157 -0.00518473)
(0.00720584 0.0167437 -0.00365257)
(0.00924386 0.0313551 -9.78627e-05)
(0.00887744 0.0393078 0.00267655)
(0.00980787 0.0449421 0.00998331)
(0.00639857 0.0549511 0.0169402)
(-0.00725356 0.0588246 0.0273161)
(-0.0304075 0.0466821 0.0382229)
(-0.0350916 0.0203881 0.0596667)
(0.0234898 0.0180222 0.00451566)
(0.0313282 0.0213255 0.00622327)
(0.0230946 0.0111378 0.00213044)
(0.0243985 0.0127461 0.00203989)
(0.0150666 0.00185128 -0.00215131)
(0.00712091 0.00318876 -0.00246904)
(4.2068e-05 -0.00220782 0.00103911)
(-0.00267893 0.00107549 0.00181537)
(-0.00342768 -0.000582386 0.00262047)
(-0.00446494 0.000566336 0.00328811)
(-0.00496429 0.000214265 0.00370822)
(-0.00475368 0.00128039 0.00428083)
(-0.00436871 0.00201377 0.00447628)
(-0.00344725 0.00282994 0.0047623)
(-0.00269991 0.00283085 0.00486936)
(-0.00221378 0.00267399 0.00506486)
(-0.00201216 0.00229412 0.00519515)
(-0.00203907 0.0019951 0.00528893)
(-0.00214125 0.00174549 0.00530186)
(-0.00223816 0.00155579 0.00525739)
(-0.00233991 0.00136412 0.00515912)
(-0.0024426 0.00115911 0.00503008)
(-0.00256652 0.00093373 0.0048938)
(-0.00268954 0.000714644 0.00476438)
(-0.00279424 0.00051706 0.00464694)
(-0.00286736 0.000356215 0.00454008)
(-0.00289596 0.000218116 0.00444756)
(-0.00288507 9.0414e-05 0.00437227)
(-0.00285632 -2.88225e-05 0.00431539)
(-0.00280658 -0.000134991 0.00428076)
(-0.00272009 -0.000221257 0.00426399)
(-0.00257588 -0.000290912 0.00424864)
(-0.00237872 -0.000349797 0.0042202)
(-0.00212569 -0.000392081 0.00416293)
(-0.00180773 -0.000429359 0.0040616)
(-0.00140522 -0.000486646 0.00391996)
(-0.000857228 -0.000611282 0.00375843)
(-8.88784e-05 -0.000869649 0.00364651)
(0.000891127 -0.0014006 0.0036746)
(0.00206126 -0.00226571 0.00399592)
(0.00335779 -0.00344877 0.00464308)
(0.00493139 -0.00460113 0.00486164)
(0.00704173 -0.00640148 0.00353636)
(0.00981324 -0.00725699 0.0019626)
(0.012919 -0.00979944 0.00241733)
(0.017682 -0.0160546 0.00141737)
(0.0217086 -0.0292977 0.00505122)
(0.0139959 -0.0371253 0.00889478)
(0.0148373 -0.0372711 0.0078073)
(0.034446 -0.0303454 0.015296)
(0.0512802 -0.0465338 0.0413449)
(0.049717 -0.056832 0.03713)
(0.0430869 -0.0530523 0.0152227)
(0.0148323 0.0228151 0.0101795)
(0.0241951 0.0787153 0.0317213)
(0.0599161 0.0802635 0.105428)
(0.0848744 0.172906 0.167955)
(0.134979 -0.180975 0.215367)
(-0.099267 0.225854 0.0472252)
(0.0684465 -0.0759933 0.0287095)
(0.236517 -0.121397 0.118985)
(-0.00932782 0.122354 0.081332)
(-0.00407508 -0.0166394 0.0659597)
(-0.0370272 0.0369313 -0.000797682)
(-0.0394913 0.00408894 0.0196126)
(-0.0412244 -0.0275346 0.0184381)
(-0.0328928 -0.0395768 0.00260218)
(-0.00889923 -0.0418248 -0.0080661)
(0.0224802 -0.0375357 -0.00900281)
(0.0286217 -0.0127348 -0.00711991)
(-0.00155896 0.0122604 0.00316881)
(-0.0213495 0.0214068 0.00322084)
(-0.0245538 0.0415028 -0.0132093)
(-0.0260048 0.0615103 -0.0188449)
(-0.0196694 0.102575 -0.00101941)
(-0.0171493 0.116692 0.00672118)
(-0.0171024 0.122531 0.00650718)
(-0.0164307 0.124581 0.00700133)
(-0.0132754 0.123189 0.00828369)
(-0.0119946 0.120271 0.00845459)
(-0.00895405 0.119362 0.0121478)
(-0.00873771 0.110645 0.0113158)
(-0.0123323 0.0981763 0.00619682)
(-0.0137079 0.0877939 0.00612313)
(-0.0143067 0.0700253 0.0071007)
(-0.0164081 0.0436843 0.00568162)
(-0.00942801 0.0290684 0.00789141)
(-0.0101899 0.0129363 0.00425737)
(-0.0130649 0.00833415 -0.00298076)
(-0.0140236 0.00965131 -0.00635727)
(-0.00123109 0.0216503 0.000449471)
(0.00404347 0.0334754 0.0117739)
(0.00140143 0.0443369 0.0209243)
(-0.0116738 0.0523574 0.0338983)
(-0.0353263 0.0431429 0.0455274)
(-0.0426583 0.0162371 0.0642576)
(0.0212363 0.0161422 0.00452272)
(0.0319042 0.0254334 0.0085061)
(0.0232635 0.0136784 0.00480638)
(0.0247394 0.0156097 0.00502821)
(0.0193071 0.0027079 -0.000204441)
(0.0109586 0.00356164 -0.00339684)
(0.000727677 -0.00344631 -0.000639421)
(-0.00354199 0.00107649 0.000241324)
(-0.00450985 -0.00108794 0.00141546)
(-0.00568827 0.000231312 0.00240534)
(-0.00659282 -0.000196405 0.00284824)
(-0.0071989 0.000983214 0.00357144)
(-0.00710029 0.00168354 0.00397316)
(-0.00580869 0.00240134 0.0047701)
(-0.00487181 0.00226546 0.00524671)
(-0.00443078 0.00209587 0.00570832)
(-0.00438615 0.00175328 0.00595455)
(-0.00467149 0.00155343 0.00604477)
(-0.00500084 0.00145459 0.00599435)
(-0.0052303 0.0014471 0.00587097)
(-0.00537863 0.00145418 0.00567707)
(-0.00545435 0.00145218 0.00544171)
(-0.00550584 0.00141585 0.00520026)
(-0.00554236 0.00135361 0.00497611)
(-0.00559371 0.00128469 0.00478969)
(-0.00560407 0.00122692 0.00462399)
(-0.00554277 0.00115824 0.00448949)
(-0.00542753 0.00106711 0.00440036)
(-0.00528952 0.00096378 0.00435498)
(-0.00515455 0.000863688 0.00434745)
(-0.00500968 0.000794887 0.00436632)
(-0.004811 0.000767255 0.00439028)
(-0.00455718 0.000780888 0.00439856)
(-0.00424745 0.000825757 0.00437095)
(-0.00384615 0.000866375 0.00431298)
(-0.00334555 0.00085512 0.00423345)
(-0.0026715 0.000740698 0.00416457)
(-0.0017735 0.000413774 0.0041807)
(-0.0006781 -0.000171952 0.00442002)
(0.000376063 -0.000912772 0.00490804)
(0.00132669 -0.000975929 0.00537399)
(0.00280711 0.000486312 0.00432656)
(0.00597818 0.00368228 0.00218492)
(0.00948019 0.00807915 0.00284607)
(0.0147957 0.00646707 0.00567818)
(0.0236322 -0.0012736 0.00782127)
(0.0229437 -0.0139138 0.0156048)
(0.00622751 -0.0281719 0.0222398)
(0.0031231 -0.0381379 0.0104906)
(0.0153278 -0.0277267 0.0127144)
(0.021551 -0.0171909 0.0317366)
(0.0120097 -0.00549565 0.0367146)
(-0.0221454 0.0533599 0.0262853)
(-0.0236388 0.117753 0.0109647)
(0.0288807 0.165196 0.0447218)
(0.0709082 0.174273 0.0805526)
(0.101043 0.184712 0.0828273)
(0.0901611 0.0934502 0.0916719)
(-0.073135 0.433926 0.0523714)
(0.0137822 -0.169966 0.0326653)
(0.157432 -0.00224345 0.0697345)
(0.0229665 0.0941446 0.082014)
(0.0100453 0.0305175 0.0292461)
(-0.0312949 0.0495306 0.00432308)
(-0.011409 0.0243277 0.0217634)
(-0.00763595 0.00901146 0.0142809)
(-0.00944842 0.0308394 -0.000351291)
(-0.0156684 0.059675 -0.0256782)
(-0.0317844 0.144704 -0.0149159)
(-0.0319824 0.204374 0.00795728)
(-0.0323141 0.230191 -0.000949864)
(-0.0283195 0.252935 0.00478682)
(-0.0205371 0.267337 0.011509)
(-0.0162279 0.275698 0.0128325)
(-0.00942934 0.2826 0.0206618)
(-0.00201331 0.279795 0.0218592)
(0.00150706 0.278456 0.0235792)
(0.00711975 0.270157 0.0241714)
(0.0106041 0.263875 0.026419)
(0.0148994 0.253294 0.0262942)
(0.0161269 0.244342 0.0251588)
(0.0178103 0.233237 0.0257779)
(0.0168032 0.217774 0.0230846)
(0.0158889 0.202769 0.0225665)
(0.0190626 0.18245 0.0237065)
(0.0208883 0.160142 0.0271546)
(0.0236835 0.136689 0.0306324)
(0.0228414 0.107767 0.0275816)
(0.021405 0.0869414 0.0254407)
(0.012372 0.0537577 0.022608)
(0.00564881 0.0393523 0.0199674)
(-0.00240545 0.0360303 0.0168088)
(-0.0121883 0.0441029 0.0217419)
(-0.023516 0.0488762 0.0333428)
(-0.0460353 0.0394723 0.0451155)
(-0.0596416 0.0149015 0.0602753)
(0.0204925 0.0109863 0.00430397)
(0.0311133 0.0282414 0.0103507)
(0.0226112 0.0156789 0.00566331)
(0.0245162 0.0194709 0.00558956)
(0.0210282 0.00490238 0.00135789)
(0.0143005 0.0042496 -0.00194792)
(0.000509446 -0.00436752 -0.00119251)
(-0.00557698 0.000690436 -0.00104941)
(-0.00524066 -0.00192197 0.00118999)
(-0.00706207 0.000345793 0.00209956)
(-0.00754016 -0.000234726 0.00266524)
(-0.00774962 0.000843763 0.00374562)
(-0.00722746 0.000533211 0.00458511)
(-0.00564528 0.000945011 0.0057455)
(-0.00456253 0.000673912 0.00663518)
(-0.00413083 0.000802643 0.00744149)
(-0.00413192 0.000853246 0.00792535)
(-0.00442685 0.00108671 0.00813186)
(-0.00473398 0.00129572 0.00812308)
(-0.00492117 0.00155561 0.00800115)
(-0.00503886 0.00180505 0.00778178)
(-0.00509841 0.00199958 0.00750121)
(-0.00513084 0.00211071 0.00721057)
(-0.00514334 0.00216503 0.00693436)
(-0.00514763 0.00216345 0.00668186)
(-0.00510793 0.00212414 0.00647607)
(-0.00499442 0.00206207 0.00632366)
(-0.00482435 0.00197934 0.00622042)
(-0.00463294 0.00187916 0.00616675)
(-0.00445385 0.00178456 0.00615501)
(-0.0042731 0.0017429 0.00616913)
(-0.00404162 0.00178107 0.00618484)
(-0.00376574 0.00189657 0.00618632)
(-0.00340625 0.00206801 0.00617373)
(-0.00293799 0.00222125 0.00614442)
(-0.00236091 0.00227052 0.00611637)
(-0.00158364 0.00214967 0.00612097)
(-0.000574423 0.00184158 0.00619628)
(0.000487607 0.00150981 0.00632768)
(0.00100872 0.00191697 0.00643609)
(-3.61169e-05 0.00381086 0.00584389)
(0.000669174 0.00797225 0.00392605)
(0.00490484 0.0136779 0.00169245)
(0.0114176 0.0175984 0.00206485)
(0.0198954 0.0147176 0.00563508)
(0.0286516 0.00736758 0.0133494)
(0.0275053 -0.00277427 0.0220114)
(0.00849208 -0.0194104 0.0303093)
(-0.00667575 -0.044655 0.0156394)
(-0.00544747 -0.0155762 0.00768437)
(-0.0147594 -0.00292651 0.0305985)
(-0.0390787 0.0445443 0.048837)
(-0.0699494 0.101513 0.0443818)
(-0.0605214 0.141916 0.0409569)
(-0.00205253 0.180336 0.072537)
(0.0754592 0.189477 0.0776943)
(0.109273 0.209089 0.0591982)
(0.21526 0.0667232 0.0864615)
(0.305263 0.493328 0.105976)
(-0.00863748 -0.233936 0.0277706)
(0.0384139 0.131718 -0.0248856)
(-0.014209 0.257223 -0.0167637)
(-0.0267724 0.287656 -0.0066176)
(-0.0354103 0.293228 0.00839327)
(-0.0331944 0.312334 0.0147258)
(-0.0390463 0.328532 0.00852704)
(-0.0418298 0.341181 0.00949261)
(-0.0433736 0.345167 0.00692494)
(-0.0352138 0.353781 0.0143108)
(-0.0293388 0.358924 0.0192716)
(-0.0253895 0.360246 0.020083)
(-0.0149315 0.355616 0.0246791)
(-0.00871954 0.348536 0.0254059)
(-0.00420729 0.340314 0.0256339)
(0.00378891 0.332493 0.0271455)
(0.00536056 0.322259 0.0230115)
(0.00814427 0.31401 0.0239513)
(0.0141967 0.304114 0.026286)
(0.0188243 0.294618 0.0272258)
(0.0217629 0.287579 0.0263836)
(0.0243665 0.281977 0.025654)
(0.0265653 0.275593 0.0266341)
(0.0279554 0.269171 0.0282206)
(0.0292672 0.260126 0.0324175)
(0.031349 0.249345 0.0345854)
(0.0329641 0.237021 0.0359358)
(0.0346371 0.225253 0.036038)
(0.0340385 0.213611 0.0307136)
(0.0299759 0.205875 0.024606)
(0.0195681 0.200002 0.0169648)
(0.00715089 0.189392 0.00939003)
(-0.00730118 0.173565 0.0100361)
(-0.0174565 0.154065 0.0224626)
(-0.0304755 0.12995 0.033967)
(-0.0458256 0.0901904 0.043116)
(-0.0555799 0.0329225 0.0496918)
(0.0141372 0.00506187 0.00146791)
(0.0280066 0.0293033 0.00983377)
(0.0208091 0.018001 0.00364433)
(0.0239054 0.0245468 0.00337832)
(0.0226349 0.00908289 0.00109603)
(0.017174 0.00606386 -0.000723378)
(0.00132315 -0.00524717 -0.00632527)
(-0.00508805 0.000448695 -0.00598136)
(-0.00756775 -0.00232095 -0.00302479)
(-0.00861323 0.000794067 -0.0015942)
(-0.00916641 -0.000334634 -0.000793169)
(-0.00929345 0.000346128 0.000573577)
(-0.00916679 -0.000611488 0.0015829)
(-0.00838263 -0.000305716 0.00264274)
(-0.00801629 -0.000410891 0.00344913)
(-0.00807236 3.83272e-05 0.0042335)
(-0.00836899 0.000369961 0.00486752)
(-0.00878532 0.000842164 0.00528884)
(-0.00917007 0.00120735 0.00549055)
(-0.00945109 0.00158467 0.00554159)
(-0.00954814 0.00192011 0.00546152)
(-0.00944902 0.00219746 0.00529626)
(-0.00930713 0.00238836 0.00511044)
(-0.00914077 0.00250736 0.00492782)
(-0.0089649 0.00255343 0.00475435)
(-0.00876329 0.00254468 0.00460023)
(-0.00851697 0.00250608 0.00447436)
(-0.00824103 0.00245428 0.00438246)
(-0.00797143 0.00239731 0.00432453)
(-0.00777929 0.00235138 0.00429288)
(-0.00765439 0.00234383 0.0042764)
(-0.00749095 0.00239753 0.00425533)
(-0.0072552 0.00251382 0.00422099)
(-0.00690913 0.0026679 0.00418091)
(-0.00638244 0.00281892 0.00413169)
(-0.00572043 0.00292808 0.00407597)
(-0.00493428 0.00301061 0.00399069)
(-0.00425928 0.0031624 0.00381037)
(-0.00418942 0.00363947 0.00344358)
(-0.00525503 0.00484313 0.00280406)
(-0.00537771 0.0069103 0.00160482)
(-0.00348746 0.0104698 8.48571e-05)
(0.00239396 0.0155145 -0.00185781)
(0.0113281 0.0202283 -0.00111956)
(0.0200812 0.018707 0.00312021)
(0.0257398 0.0133801 0.0149909)
(0.0249104 0.00260441 0.0212366)
(0.0155742 -0.0119122 0.0284924)
(-0.0163508 -0.0497348 0.0114533)
(-0.034797 -0.0069049 0.000594198)
(-0.0627109 0.0131699 0.0307914)
(-0.096328 0.0564331 0.0415344)
(-0.113199 0.0875399 0.0372707)
(-0.0887994 0.112358 0.0328254)
(-0.0231254 0.136647 0.0599861)
(0.0484701 0.119375 0.0773636)
(0.0613758 0.223126 0.0955637)
(0.113718 -0.166338 0.0549598)
(0.328403 0.521465 0.0363581)
(-0.0548332 -0.183 0.0247824)
(-0.114196 0.101699 -0.0239671)
(-0.0448049 0.239737 -0.0267668)
(-0.061673 0.279725 -0.0333193)
(-0.0462581 0.304587 -0.0185141)
(-0.0508134 0.309242 -0.00512448)
(-0.0343777 0.302276 0.00881312)
(-0.0338209 0.282484 0.0149877)
(-0.0308205 0.262573 0.0137078)
(-0.0394766 0.248603 0.0138721)
(-0.037685 0.236105 0.0160214)
(-0.0274509 0.210924 0.0208557)
(-0.00473521 0.163453 0.0181719)
(0.00215247 0.133992 0.0079797)
(0.00389573 0.111859 0.00417947)
(0.0067801 0.0969128 0.00405925)
(0.00489108 0.0922629 -0.00145449)
(0.00281098 0.0936337 -0.00562131)