/*--------------------------------*- C++ -*----------------------------------*\
| =========                 |                                                 |
| \\      /  F ield         | OpenFOAM: The Open Source CFD Toolbox           |
|  \\    /   O peration     | Version:  2.3.0                                 |
|   \\  /    A nd           | Web:      www.OpenFOAM.org                      |
|    \\/     M anipulation  |                                                 |
\*---------------------------------------------------------------------------*/
FoamFile
{
    version     2.0;
    format      ascii;
    class       volVectorField;
    location    "48";
    object      U.air;
}
// * * * * * * * * * * * * * * * * * * * * * * * * * * * * * * * * * * * * * //

dimensions      [0 1 -1 0 0 0 0];

internalField   nonuniform List<vector> 
6144
(
(0.0113283 0.0206785 0.000196051)
(0.0120411 -0.00418692 -0.00122442)
(0.00416917 -0.00595465 -0.00264373)
(0.00334033 -0.00482225 -0.00259142)
(0.00192763 -0.00302784 -0.00189541)
(0.00297056 -0.000319959 -0.00147731)
(0.00318492 -0.000649334 -0.0012094)
(0.00292937 4.12559e-05 -0.00105281)
(0.0022739 -0.000182134 -0.000775795)
(0.00173707 0.00112237 -0.000322717)
(0.00135564 0.00225375 0.000172116)
(0.00131552 0.00340253 0.000809967)
(0.00140645 0.00365608 0.00119641)
(0.00151495 0.00332317 0.00164575)
(0.00157306 0.00257381 0.00172306)
(0.00166601 0.00179964 0.00167735)
(0.00174668 0.000962246 0.00146671)
(0.00182911 0.000269797 0.00121568)
(0.00190509 -0.000295056 0.000952848)
(0.00196458 -0.000669456 0.000716573)
(0.00200516 -0.000892194 0.000511228)
(0.00204118 -0.000951685 0.000333507)
(0.00205654 -0.000918768 0.000246125)
(0.00205004 -0.000839348 0.000243657)
(0.00202215 -0.000748075 0.000312352)
(0.00198011 -0.000668446 0.000436663)
(0.00193618 -0.000626581 0.000589877)
(0.00189687 -0.00064583 0.000743779)
(0.00185528 -0.000734278 0.000896195)
(0.00181189 -0.000873162 0.00103437)
(0.00176923 -0.00104741 0.00116562)
(0.00172885 -0.00126201 0.00130247)
(0.00168899 -0.00152954 0.00145258)
(0.00164913 -0.00186559 0.00162438)
(0.00161209 -0.00229487 0.00182469)
(0.00158814 -0.00285542 0.00205454)
(0.00159142 -0.00360254 0.00229042)
(0.00164001 -0.00455055 0.00246796)
(0.00174263 -0.0056731 0.00251529)
(0.00190608 -0.00688942 0.00235424)
(0.0020861 -0.00813788 0.00205336)
(0.00226095 -0.00924211 0.00171665)
(0.00250392 -0.0102701 0.00123163)
(0.00264045 -0.0115009 0.00116178)
(0.0029124 -0.0134036 -3.70999e-05)
(0.00336937 -0.0135206 -0.00153353)
(0.00411087 -0.0124781 -0.00283339)
(-0.00162997 -0.00946122 -0.000854696)
(0.00528597 -0.00325063 -0.00411022)
(0.0273316 -0.0198374 -0.0107654)
(0.0299437 -0.0449559 -0.00838981)
(0.0251196 -0.0710053 -0.0038329)
(0.0182868 -0.0817736 0.00258961)
(0.00912513 -0.10029 0.00143349)
(0.00303443 -0.0917232 0.00117819)
(-0.00082882 -0.111423 0.00638321)
(-0.00617643 -0.0579039 0.00218828)
(-0.000953427 -0.137411 0.0357275)
(-0.0450817 0.0312191 -0.0463435)
(0.0188909 0.0892358 0.0487327)
(0.0926257 0.334796 0.0456311)
(0.0439616 0.401969 -0.0109905)
(0.0497276 -0.138059 -0.00164955)
(0.0474996 -0.160698 -0.000422275)
(0.043903 -0.160149 -0.00269133)
(0.0395989 -0.166124 -0.00490466)
(0.0337016 -0.169444 -0.0071517)
(0.0323309 -0.173036 -0.00474043)
(0.0305587 -0.173089 -0.000568943)
(0.0266652 -0.174298 0.00233164)
(0.0220087 -0.174162 0.00143787)
(0.0165536 -0.175592 0.00477851)
(0.0107363 -0.179106 0.00928875)
(0.00827604 -0.179593 0.0110286)
(0.00491539 -0.177954 0.011555)
(0.000276807 -0.171779 0.0114326)
(0.00212786 -0.165941 0.0119785)
(0.0131467 -0.161206 0.0101601)
(0.0240935 -0.165331 0.0108234)
(0.0228698 -0.171953 0.0143163)
(0.0192566 -0.176395 0.0153154)
(0.019112 -0.183027 0.0129443)
(0.0126026 -0.187636 0.00765209)
(0.00723523 -0.182356 0.00384733)
(0.00395948 -0.164476 0.00803596)
(-0.0185983 -0.140607 -0.00781033)
(-0.0287751 -0.073621 -0.00160948)
(-0.0145111 -0.0112037 0.00119049)
(-0.004841 0.0205035 -0.0186092)
(0.0039238 0.0377916 -0.0236123)
(0.0107142 0.0494944 -0.0241698)
(0.0149411 0.0608144 -0.0240543)
(0.0155248 0.0727879 -0.0246908)
(0.0153245 0.0788063 -0.0207559)
(0.00972838 0.0608641 -0.0027807)
(0.00159992 0.0291619 0.0251536)
(0.0210837 0.0195979 0.00377327)
(0.0231503 0.00387466 0.00302981)
(0.0105285 -0.000971874 -0.0013425)
(0.00886208 -0.00138065 -0.0006322)
(0.00437025 -0.0038181 0.00102408)
(0.00493174 -0.00150043 0.00158335)
(0.00479107 -0.00148482 0.00223323)
(0.00441056 0.000138394 0.00249774)
(0.00325768 0.000271021 0.00267875)
(0.00220529 0.0020879 0.00270581)
(0.00173938 0.00327969 0.00294283)
(0.00192598 0.00435519 0.00357855)
(0.00233413 0.00448754 0.00394433)
(0.00277144 0.00420056 0.00423439)
(0.00294866 0.00342163 0.00431092)
(0.00313038 0.00264575 0.00431705)
(0.0032341 0.00174167 0.00425374)
(0.0033196 0.000976507 0.0041731)
(0.00338559 0.000308389 0.00409468)
(0.00342619 -0.000177249 0.0040408)
(0.00343109 -0.000517887 0.00401223)
(0.0034486 -0.000686365 0.00394035)
(0.00343731 -0.0007572 0.00392621)
(0.00339286 -0.000763379 0.00396717)
(0.00331423 -0.000739979 0.00405491)
(0.00321686 -0.000706874 0.00417409)
(0.00312481 -0.000690413 0.00429503)
(0.00306013 -0.00071525 0.00438777)
(0.00299654 -0.000801852 0.00448928)
(0.00292707 -0.000943523 0.00459158)
(0.00286127 -0.00113741 0.00469282)
(0.00280907 -0.00139125 0.0047979)
(0.0027696 -0.00171784 0.00490871)
(0.00274594 -0.0021315 0.0050279)
(0.00274954 -0.00264841 0.00515564)
(0.00280442 -0.00328474 0.00529054)
(0.00292823 -0.0040535 0.00542111)
(0.0031294 -0.00494932 0.00553337)
(0.00340077 -0.00596773 0.0056053)
(0.00373163 -0.00705363 0.00562629)
(0.00414217 -0.00818312 0.00557558)
(0.0046446 -0.00942052 0.00542027)
(0.00548402 -0.0110703 0.00489288)
(0.0061256 -0.0132419 0.00491645)
(0.0059606 -0.0170432 0.00432041)
(0.00492818 -0.0190873 0.00183922)
(0.00361696 -0.0157136 -0.000116381)
(0.0019208 -0.0102001 0.000853114)
(0.01302 -0.0215091 -0.0023685)
(0.0481151 -0.0274208 -0.00915475)
(0.0501985 -0.0367855 -0.00875923)
(0.0429578 -0.0555995 -0.00108764)
(0.0300235 -0.0699291 0.0101276)
(0.0193836 -0.100213 0.00682198)
(0.0131318 -0.0934751 0.00654509)
(0.00248321 -0.113715 0.0148437)
(-0.00613663 -0.0556322 0.0268649)
(-0.0242112 -0.147839 0.0586626)
(-0.0719873 0.085229 -0.116972)
(0.00587915 0.010691 0.0327567)
(0.122275 0.360132 0.0918034)
(0.0625077 0.4248 0.0117047)
(0.0721504 -0.0920275 0.0197438)
(0.0679192 -0.0918549 0.0213057)
(0.0566584 -0.085871 0.00649273)
(0.0411705 -0.0783878 0.00285116)
(0.0324679 -0.0730453 0.00973166)
(0.0254328 -0.0691993 0.0135301)
(0.0262278 -0.0645736 0.0149715)
(0.0259987 -0.0588686 0.01219)
(0.0270847 -0.059812 0.0132272)
(0.0260209 -0.067056 0.0204509)
(0.0137625 -0.0891686 0.0286339)
(0.000861251 -0.104347 0.0234297)
(-0.00458302 -0.113287 0.018567)
(-0.00454936 -0.11747 0.0218068)
(-0.00532818 -0.119531 0.0362249)
(-0.014698 -0.120365 0.0518922)
(-0.0229607 -0.121997 0.0526121)
(-0.0238607 -0.12074 0.0469724)
(-0.0208414 -0.121771 0.0289611)
(-0.0120086 -0.117431 0.00638655)
(-0.0125297 -0.113318 -0.00423592)
(-0.0193178 -0.109075 -0.00490961)
(-0.0341989 -0.0957265 0.00580067)
(-0.0390675 -0.0859764 -0.003117)
(-0.0469686 -0.0425932 0.00152255)
(-0.0373029 0.0080887 -0.00170677)
(-0.00837108 0.0263109 -0.0159849)
(0.00973812 0.0358866 -0.0135036)
(0.0194074 0.0480197 -0.0101209)
(0.0244015 0.0591673 -0.00681562)
(0.0221671 0.0738852 -0.00454528)
(0.0137669 0.0796587 0.00593538)
(0.00326797 0.0581168 0.0258338)
(0.00260127 0.0370169 0.0438323)
(0.0239994 0.0185776 0.00485471)
(0.0270448 0.0093116 0.00492744)
(0.0159028 0.00266489 0.00129636)
(0.0126082 0.0023196 0.00210525)
(0.00472805 -0.00276835 0.00367525)
(0.00412221 -0.000429439 0.00365234)
(0.00284813 -0.000934778 0.00428564)
(0.00236576 0.00119209 0.0041386)
(0.00118839 0.00127281 0.00417181)
(0.000447307 0.00265985 0.0041857)
(5.13526e-05 0.00308371 0.00425978)
(0.000558385 0.00385278 0.00455754)
(0.00106141 0.00387147 0.00481679)
(0.00161747 0.00387977 0.00501569)
(0.00187614 0.00345799 0.00504932)
(0.00213805 0.00305391 0.00503864)
(0.00230003 0.00245732 0.00499016)
(0.00241596 0.00191027 0.00494004)
(0.00248354 0.001362 0.00489402)
(0.0025208 0.000912365 0.00487572)
(0.00251067 0.000517749 0.00488352)
(0.00244576 0.000210875 0.00492444)
(0.00236604 -1.79319e-05 0.00498189)
(0.00227116 -0.000178324 0.00504558)
(0.00215895 -0.00029085 0.00511295)
(0.00204241 -0.000373911 0.00518248)
(0.00193205 -0.000448403 0.00525693)
(0.00183375 -0.000524912 0.00534294)
(0.00174939 -0.000618692 0.00543741)
(0.00166777 -0.000749836 0.00553583)
(0.00159616 -0.000928903 0.00563419)
(0.00155063 -0.00116792 0.00573109)
(0.00153332 -0.00147858 0.00582688)
(0.00154695 -0.00186609 0.00592142)
(0.00160172 -0.00232332 0.00600726)
(0.00172395 -0.00282735 0.00607537)
(0.00194541 -0.0033474 0.00610932)
(0.00229866 -0.00386669 0.00610454)
(0.00278283 -0.00442524 0.00606304)
(0.00339168 -0.00510029 0.00599693)
(0.00411334 -0.00607738 0.00589786)
(0.0050005 -0.00752101 0.00571356)
(0.00628484 -0.00970165 0.00521642)
(0.00750178 -0.0129874 0.00576161)
(0.00726277 -0.0172157 0.00490501)
(0.00553838 -0.0221519 0.00308005)
(0.00155624 -0.021497 0.00127437)
(0.00385435 -0.0226092 0.00251523)
(0.0208659 -0.0313527 -0.00255678)
(0.0585863 -0.0240176 -0.00859328)
(0.0669151 -0.0287544 -0.00414175)
(0.0611972 -0.0563612 0.00422702)
(0.0379292 -0.0740015 0.0180155)
(0.0176793 -0.114775 0.0113185)
(-0.00668119 -0.109202 0.00836538)
(-0.0246467 -0.134981 0.0137064)
(-0.0381246 -0.0851597 0.0279315)
(-0.0537286 -0.16593 0.0643264)
(-0.0701494 0.0750001 -0.114865)
(0.00771844 0.0223236 -0.011639)
(0.162976 0.353844 0.130152)
(0.0880903 0.418771 0.0567687)
(0.0968344 -0.0864832 0.049052)
(0.0765204 -0.0760942 0.0282069)
(0.0398935 -0.0503587 0.000373741)
(0.0216843 -0.0380311 0.0209924)
(0.0180274 -0.0313376 0.022537)
(0.0205275 -0.0206705 0.0132556)
(0.0220026 -0.00969957 0.0117075)
(0.0212974 -0.00235629 0.0238023)
(0.0147087 -0.0175267 0.0468158)
(-0.000161834 -0.0320246 0.0646651)
(-0.0066809 -0.0476924 0.0528772)
(-0.0164946 -0.0569961 0.036821)
(-0.0251322 -0.0539728 0.0375749)
(-0.0360978 -0.0541885 0.038706)
(-0.0460536 -0.0625967 0.0350686)
(-0.0483474 -0.0776805 0.0374398)
(-0.0436771 -0.0976001 0.0380298)
(-0.0266396 -0.111519 0.0246313)
(0.00625355 -0.104562 0.00281833)
(0.0217314 -0.0908245 -0.0060619)
(0.0210107 -0.0774768 -0.00426201)
(0.00754798 -0.0655344 0.0064507)
(-0.0225986 -0.0620053 0.000992102)
(-0.0703285 -0.0241148 -0.0153537)
(-0.0704542 0.0191643 -0.000908244)
(-0.0313223 0.0272231 -0.00365348)
(-0.00436052 0.030973 -0.0112482)
(0.00901154 0.0363548 -0.0073819)
(0.0165119 0.0463333 -0.00172744)
(0.0205293 0.0558516 0.00168062)
(0.016193 0.0681382 0.00669385)
(0.00404608 0.0724449 0.015264)
(-0.00746776 0.0547024 0.0343655)
(-0.00760527 0.0322492 0.0558514)
(0.0247422 0.0183046 0.005025)
(0.0288732 0.01345 0.00499425)
(0.0188566 0.00518194 0.000677168)
(0.0158607 0.00586591 0.000851245)
(0.00632277 -0.00119122 0.00276164)
(0.00333159 0.000839314 0.0030718)
(0.00121146 -0.000719038 0.00434855)
(0.000509281 0.00140574 0.00424922)
(-0.000627329 0.000895493 0.00436231)
(-0.00120645 0.00207295 0.00435894)
(-0.00144018 0.00211884 0.00450382)
(-0.000933838 0.00283966 0.00486356)
(-0.000480527 0.00309504 0.00509101)
(0.000112495 0.00340736 0.00524965)
(0.000442703 0.00325447 0.00524759)
(0.000740048 0.00308951 0.00524911)
(0.000926754 0.00268198 0.00523425)
(0.00104626 0.00228226 0.00523342)
(0.00109307 0.00182959 0.00521968)
(0.00110983 0.00142722 0.00521226)
(0.00107285 0.00104719 0.00521239)
(0.00099711 0.000710268 0.0052267)
(0.000893173 0.000411292 0.00525358)
(0.000771341 0.000169733 0.00528742)
(0.00064204 -1.71435e-05 0.00532704)
(0.000518594 -0.000156741 0.00537213)
(0.000414629 -0.000264429 0.00542116)
(0.0003375 -0.000362204 0.00547728)
(0.000281283 -0.00046823 0.00554203)
(0.000238753 -0.00059423 0.00561315)
(0.000219275 -0.000750848 0.00568666)
(0.000238269 -0.000947496 0.00575724)
(0.000295086 -0.00119192 0.00581821)
(0.000393519 -0.00148491 0.00586134)
(0.000537375 -0.00181284 0.00587061)
(0.000740315 -0.00215185 0.00582901)
(0.00103518 -0.00248501 0.00572072)
(0.0014561 -0.00283617 0.00554904)
(0.00203461 -0.00331361 0.00534642)
(0.00282105 -0.00404579 0.0051764)
(0.00382754 -0.00524674 0.00503892)
(0.00505235 -0.00700062 0.00482933)
(0.00657193 -0.00968573 0.00446339)
(0.00772005 -0.0127106 0.0047088)
(0.00806655 -0.0177405 0.00326529)
(0.00614336 -0.0208297 0.000605261)
(0.00452562 -0.0244437 0.00126163)
(0.00919187 -0.0309802 0.0028488)
(0.023793 -0.0356576 -0.00166964)
(0.0587236 -0.0251926 -0.00360844)
(0.0762285 -0.0335161 0.0107375)
(0.0692763 -0.0688433 0.0294357)
(0.047007 -0.0952728 0.0243146)
(0.0345156 -0.135907 0.00426879)
(0.0114738 -0.133077 -0.0158347)
(-0.00399203 -0.159168 -0.0091074)
(-0.0286284 -0.129546 0.0188519)
(-0.0425109 -0.205235 0.0715429)
(-0.0852847 0.0569166 -0.107336)
(0.0359233 0.0260353 -0.0110363)
(0.173712 0.34999 0.142997)
(0.0622947 0.414493 0.0714507)
(0.0512286 -0.0349296 0.0676527)
(0.0143815 0.133043 0.0231234)
(-0.00766441 0.0217526 0.0235275)
(-0.0247991 -0.000192668 0.0287571)
(-0.0133152 0.0159199 0.0226325)
(-0.00405276 0.0241847 0.0228008)
(0.00210607 0.0272818 0.0240225)
(0.000447541 0.0220447 0.0199666)
(-0.0165803 0.0173016 0.0185584)
(-0.0304125 0.00945091 0.0289659)
(-0.0400018 0.00172203 0.0244498)
(-0.0425961 -0.00424554 0.0194083)
(-0.0444033 -0.0150031 0.015635)
(-0.0437474 -0.0344684 0.0138683)
(-0.0408952 -0.0511701 0.0172806)
(-0.0330338 -0.065791 0.0217899)
(-0.0229168 -0.0790515 0.0119781)
(-0.0188155 -0.0863577 -0.00865362)
(-0.0219923 -0.0762551 -0.0227981)
(-0.0207507 -0.0560766 -0.0174021)
(-0.0216755 -0.029519 -0.01036)
(-0.0358325 0.00128142 -0.0176921)
(-0.0555559 0.0308957 -0.0206642)
(-0.0644952 0.0459939 -0.0137866)
(-0.0435277 0.0439274 -0.00229962)
(-0.0214043 0.0331071 -0.010981)
(-0.00515062 0.0327258 -0.0120204)
(0.00553363 0.0359539 -0.00623467)
(0.014945 0.0449428 0.00137964)
(0.0212019 0.0533632 0.0063082)
(0.0154504 0.0634009 0.013739)
(-0.000831573 0.0658565 0.0238815)
(-0.0212209 0.0521834 0.0377929)
(-0.0235093 0.0251504 0.0611721)
(0.0246375 0.0185518 0.00484936)
(0.0302662 0.0170856 0.00519237)
(0.0216087 0.00818708 0.000747082)
(0.0206503 0.00944635 0.000138031)
(0.00948488 0.000548132 -0.00038934)
(0.00403101 0.00231276 0.000524029)
(0.000183056 -0.00116479 0.00327837)
(-0.00109128 0.00141205 0.00353542)
(-0.00223289 0.000299996 0.00388379)
(-0.00284522 0.00131403 0.00417158)
(-0.00336707 0.00116162 0.00443854)
(-0.00321353 0.00199219 0.00485837)
(-0.00291421 0.00245847 0.00502064)
(-0.00223706 0.00302258 0.00515611)
(-0.00183013 0.00304516 0.00510171)
(-0.00150146 0.00296423 0.00511334)
(-0.00132493 0.00263204 0.00512987)
(-0.00128506 0.00231913 0.00517327)
(-0.0013199 0.0019625 0.00518326)
(-0.00137301 0.00163353 0.0051707)
(-0.00144668 0.0012957 0.0051379)
(-0.00153518 0.000964767 0.00510239)
(-0.0016336 0.000646815 0.00507246)
(-0.00174037 0.000370216 0.00505226)
(-0.00185819 0.000138573 0.00504016)
(-0.00196561 -4.68567e-05 0.00503531)
(-0.00204251 -0.000196305 0.00503909)
(-0.00208094 -0.000325481 0.00504939)
(-0.00209336 -0.000442388 0.00506157)
(-0.00209406 -0.000551621 0.00507804)
(-0.00207171 -0.000663172 0.00509624)
(-0.0020058 -0.000789039 0.00510578)
(-0.00189411 -0.000935412 0.00509727)
(-0.0017381 -0.00109251 0.00505482)
(-0.00153047 -0.0012532 0.0049585)
(-0.00125004 -0.00140923 0.00479829)
(-0.000849602 -0.00159424 0.00456635)
(-0.000242051 -0.00188802 0.00430783)
(0.000644102 -0.00240029 0.00410922)
(0.00179743 -0.00326352 0.0040697)
(0.00310771 -0.00461991 0.00425768)
(0.00456628 -0.00645499 0.00440376)
(0.00629253 -0.00908347 0.00416772)
(0.00817121 -0.0119383 0.00331699)
(0.00902755 -0.016303 0.00147653)
(0.00983787 -0.0203272 -0.0015662)
(0.0119253 -0.0271842 0.00260967)
(0.0134557 -0.0376695 0.00438786)
(0.0216886 -0.0384537 0.00152022)
(0.0483579 -0.0259179 0.00556616)
(0.066975 -0.0375839 0.036853)
(0.0628384 -0.0702124 0.0461813)
(0.0487054 -0.097671 0.0137087)
(0.0425413 -0.093774 -0.0124427)
(0.041561 -0.0410217 -0.0151204)
(0.0467384 -0.0807128 0.0114373)
(-0.0544076 -0.0316078 0.0785516)
(-0.0503519 -0.210253 0.156935)
(-0.128775 0.0909041 -0.043498)
(0.0525396 -0.00184825 -0.00955593)
(0.18117 0.424357 0.138764)
(0.0227271 0.575159 0.0693484)
(-0.0110196 0.499408 0.0449898)
(-0.0294504 0.526716 0.014105)
(-0.0473692 0.487588 0.015796)
(-0.0377916 0.456084 0.0134826)
(-0.0300525 0.324217 0.00169928)
(-0.0228531 0.019563 0.0025213)
(-0.0157608 0.0129265 -0.00371619)
(-0.00370305 0.00267913 -0.00897632)
(-0.0142888 0.0038851 0.00743944)
(-0.0235686 0.00773133 0.0166496)
(-0.0173369 0.0171725 0.00886655)
(-0.00645668 0.0170021 0.00619999)
(0.00517192 0.0161847 -0.00395342)
(6.97797e-05 0.0123732 -0.00838491)
(-0.0123188 0.00513637 -0.0044818)
(-0.0166119 0.00443492 -0.00421606)
(-0.01804 0.00852604 -0.00863033)
(-0.0154825 0.0158207 -0.0149246)
(-0.0102306 0.0317654 -0.0174384)
(-0.0122481 0.0464001 -0.0151047)
(-0.0194075 0.0571595 -0.0138952)
(-0.0276459 0.0608744 -0.0135016)
(-0.0330548 0.0595034 -0.00782394)
(-0.0335421 0.0469472 -0.000773088)
(-0.0142083 0.0296929 1.42664e-05)
(-0.00433786 0.020732 -0.00517274)
(0.00725138 0.0220828 -0.00364774)
(0.00924276 0.0365224 -9.97558e-05)
(0.00888284 0.0443551 0.00266795)
(0.0098135 0.0498714 0.00996066)
(0.00640339 0.0597066 0.0169048)
(-0.00725266 0.0634086 0.0272857)
(-0.0304188 0.0511751 0.0381928)
(-0.0351069 0.0247988 0.0596499)
(0.0234898 0.0180222 0.00451566)
(0.0313282 0.0213255 0.00622327)
(0.0230946 0.0111378 0.00213044)
(0.0243985 0.0127461 0.00203989)
(0.0150666 0.00185128 -0.00215131)
(0.00712091 0.00318876 -0.00246904)
(4.20679e-05 -0.00220781 0.00103911)
(-0.00267893 0.0010755 0.00181537)
(-0.00342768 -0.00058238 0.00262047)
(-0.00446494 0.000566342 0.00328811)
(-0.00496429 0.000214272 0.00370822)
(-0.00475368 0.0012804 0.00428083)
(-0.00436871 0.00201378 0.00447628)
(-0.00344725 0.00282995 0.0047623)
(-0.00269991 0.00283086 0.00486936)
(-0.00221378 0.002674 0.00506486)
(-0.00201216 0.00229413 0.00519515)
(-0.00203907 0.00199511 0.00528893)
(-0.00214125 0.0017455 0.00530186)
(-0.00223816 0.0015558 0.00525739)
(-0.00233991 0.00136413 0.00515912)
(-0.0024426 0.00115912 0.00503008)
(-0.00256652 0.000933737 0.0048938)
(-0.00268954 0.000714651 0.00476438)
(-0.00279424 0.000517067 0.00464694)
(-0.00286736 0.000356222 0.00454008)
(-0.00289596 0.000218123 0.00444756)
(-0.00288507 9.04211e-05 0.00437227)
(-0.00285632 -2.88155e-05 0.00431539)
(-0.00280658 -0.000134984 0.00428076)
(-0.00272009 -0.00022125 0.00426399)
(-0.00257588 -0.000290905 0.00424864)
(-0.00237872 -0.00034979 0.0042202)
(-0.00212569 -0.000392074 0.00416293)
(-0.00180773 -0.000429352 0.0040616)
(-0.00140522 -0.000486639 0.00391996)
(-0.000857228 -0.000611275 0.00375843)
(-8.88784e-05 -0.000869642 0.00364651)
(0.000891127 -0.00140059 0.0036746)
(0.00206126 -0.0022657 0.00399592)
(0.00335779 -0.00344876 0.00464308)
(0.00493139 -0.00460112 0.00486164)
(0.00704173 -0.00640147 0.00353636)
(0.00981324 -0.00725697 0.0019626)
(0.012919 -0.00979941 0.00241733)
(0.017682 -0.0160546 0.00141737)
(0.0217086 -0.0292976 0.00505122)
(0.0139959 -0.0371252 0.00889478)
(0.0148373 -0.037271 0.0078073)
(0.034446 -0.0303452 0.015296)
(0.0512802 -0.0465333 0.0413449)
(0.0497171 -0.0568313 0.03713)
(0.0430869 -0.0530516 0.0152227)
(0.0148323 0.0228158 0.0101795)
(0.0241951 0.0787158 0.0317213)
(0.0599161 0.0802639 0.105428)
(0.0848744 0.172907 0.167955)
(0.134979 -0.180974 0.215367)
(-0.0992672 0.225856 0.0472252)
(0.071742 -0.0488404 0.0302928)
(0.168883 0.513239 0.121234)
(-0.0263104 0.626983 0.0570664)
(-0.0234377 0.536378 0.0380759)
(-0.0450792 0.56733 0.00656728)
(-0.042185 0.52275 0.0179708)
(-0.0283304 0.502467 0.00506441)
(-0.00560059 0.501036 -0.00760797)
(0.0182998 0.502895 -0.00815346)
(0.0263152 0.51491 -0.00506552)
(0.00422489 0.541261 -0.000869269)
(-0.0170081 0.548827 0.00275545)
(-0.0240412 0.558753 -0.0061019)
(-0.0219397 0.589365 -0.0150898)
(-0.0211067 0.617028 -0.00824697)
(-0.01653 0.650152 0.0040095)
(-0.0166203 0.659316 0.00613221)
(-0.0163112 0.663871 0.00601444)
(-0.0153255 0.66014 0.00653475)
(-0.0128647 0.660063 0.00734846)
(-0.0118074 0.65744 0.00780557)
(-0.00991516 0.651062 0.00974195)
(-0.0116303 0.642856 0.00663226)
(-0.0135171 0.629419 0.00412445)
(-0.0136873 0.615477 0.00535118)
(-0.0142246 0.591662 0.00583113)
(-0.013662 0.560566 0.00581646)
(-0.00871048 0.521742 0.00657973)
(-0.0127525 0.401256 0.000574536)
(-0.0133216 0.160887 -0.00263131)
(-0.0141736 0.035418 -0.00628623)
(-0.00145379 0.0255706 0.000432467)
(0.0039028 0.037627 0.0117495)
(0.00135169 0.0485035 0.0208906)
(-0.0116963 0.0565373 0.0338709)
(-0.0353828 0.0473293 0.0455026)
(-0.0428439 0.0203931 0.0642414)
(0.0212363 0.0161422 0.00452272)
(0.0319042 0.0254334 0.0085061)
(0.0232635 0.0136784 0.00480638)
(0.0247394 0.0156098 0.00502821)
(0.0193071 0.0027079 -0.000204441)
(0.0109586 0.00356164 -0.00339684)
(0.000727677 -0.0034463 -0.000639421)
(-0.00354199 0.0010765 0.000241324)
(-0.00450985 -0.00108793 0.00141546)
(-0.00568827 0.000231319 0.00240534)
(-0.00659282 -0.000196398 0.00284824)
(-0.0071989 0.000983221 0.00357144)
(-0.00710029 0.00168355 0.00397316)
(-0.00580869 0.00240134 0.0047701)
(-0.00487181 0.00226547 0.00524671)
(-0.00443078 0.00209588 0.00570832)
(-0.00438615 0.00175329 0.00595455)
(-0.00467149 0.00155343 0.00604477)
(-0.00500084 0.0014546 0.00599435)
(-0.0052303 0.00144711 0.00587097)
(-0.00537863 0.00145419 0.00567707)
(-0.00545435 0.00145219 0.00544171)
(-0.00550584 0.00141586 0.00520026)
(-0.00554236 0.00135362 0.00497611)
(-0.00559371 0.0012847 0.00478969)
(-0.00560407 0.00122693 0.00462399)
(-0.00554277 0.00115825 0.00448949)
(-0.00542753 0.00106712 0.00440036)
(-0.00528952 0.000963787 0.00435498)
(-0.00515455 0.000863695 0.00434745)
(-0.00500968 0.000794894 0.00436632)
(-0.004811 0.000767262 0.00439028)
(-0.00455718 0.000780895 0.00439856)
(-0.00424745 0.000825764 0.00437095)
(-0.00384615 0.000866382 0.00431298)
(-0.00334555 0.000855127 0.00423345)
(-0.0026715 0.000740706 0.00416457)
(-0.0017735 0.000413781 0.0041807)
(-0.0006781 -0.000171945 0.00442002)
(0.000376063 -0.000912765 0.00490804)
(0.00132669 -0.000975922 0.00537399)
(0.00280711 0.00048632 0.00432656)
(0.00597818 0.00368229 0.00218492)
(0.00948019 0.00807917 0.00284607)
(0.0147957 0.00646711 0.00567818)
(0.0236322 -0.00127354 0.00782127)
(0.0229437 -0.0139138 0.0156048)
(0.00622751 -0.0281718 0.0222398)
(0.0031231 -0.0381378 0.0104906)
(0.0153278 -0.0277264 0.0127144)
(0.021551 -0.0171903 0.0317366)
(0.0120097 -0.00549495 0.0367146)
(-0.0221454 0.0533605 0.0262853)
(-0.0236388 0.117754 0.0109647)
(0.0288807 0.165196 0.0447218)
(0.0709082 0.174273 0.0805526)
(0.101043 0.184712 0.0828273)
(0.0901613 0.093451 0.091672)
(-0.073135 0.433928 0.0523714)
(0.0238179 -0.115813 0.0350115)
(0.169741 0.587621 0.0843369)
(0.0108027 0.60783 0.0528774)
(0.00196902 0.566296 0.0213561)
(-0.0197967 0.576979 0.00872979)
(-0.00916251 0.561811 0.0123072)
(-0.00980378 0.557327 0.00386348)
(-0.0172801 0.590464 -0.0143124)
(-0.0227184 0.639971 -0.0212048)
(-0.0323414 0.716663 -0.00254368)
(-0.0298205 0.760287 0.0084084)
(-0.0297403 0.784467 -0.00108134)
(-0.023353 0.804715 0.00970147)
(-0.0187042 0.812629 0.0108929)
(-0.0146792 0.821221 0.014385)
(-0.0082464 0.824564 0.0192893)
(-0.00261118 0.817096 0.0200387)
(0.00190717 0.81272 0.022015)
(0.00604422 0.80726 0.0225884)
(0.00953175 0.798937 0.0246586)
(0.0129111 0.788438 0.0236479)
(0.0140106 0.779158 0.0232643)
(0.0152134 0.76701 0.0233469)
(0.0140936 0.751706 0.02169)
(0.0147862 0.735885 0.0232189)
(0.0173209 0.713856 0.0253208)
(0.0180826 0.690308 0.028411)
(0.0197231 0.664206 0.0287117)
(0.0171706 0.634383 0.0244396)
(0.012849 0.61366 0.0225492)
(0.00466981 0.587099 0.0206493)
(-0.00321357 0.575388 0.0201006)
(-0.0140919 0.572531 0.0222295)
(-0.0255909 0.574419 0.0321955)
(-0.0400722 0.5645 0.0450507)
(-0.0577452 0.543392 0.0566223)
(-0.0649883 0.504731 0.0683512)
(0.0204925 0.0109863 0.00430397)
(0.0311133 0.0282414 0.0103507)
(0.0226112 0.0156789 0.00566331)
(0.0245162 0.0194709 0.00558956)
(0.0210282 0.00490239 0.00135789)
(0.0143004 0.0042496 -0.00194792)
(0.000509446 -0.00436751 -0.00119251)
(-0.00557698 0.000690441 -0.00104941)
(-0.00524066 -0.00192197 0.00118999)
(-0.00706207 0.000345799 0.00209956)
(-0.00754016 -0.00023472 0.00266524)
(-0.00774962 0.00084377 0.00374562)
(-0.00722746 0.000533218 0.00458511)
(-0.00564528 0.000945018 0.0057455)
(-0.00456253 0.000673919 0.00663518)
(-0.00413083 0.00080265 0.00744149)
(-0.00413192 0.000853253 0.00792535)
(-0.00442685 0.00108672 0.00813186)
(-0.00473398 0.00129573 0.00812308)
(-0.00492117 0.00155562 0.00800115)
(-0.00503886 0.00180505 0.00778178)
(-0.00509841 0.00199959 0.00750121)
(-0.00513084 0.00211071 0.00721057)
(-0.00514334 0.00216503 0.00693436)
(-0.00514763 0.00216345 0.00668186)
(-0.00510793 0.00212415 0.00647607)
(-0.00499442 0.00206208 0.00632366)
(-0.00482435 0.00197935 0.00622042)
(-0.00463294 0.00187917 0.00616675)
(-0.00445385 0.00178457 0.00615501)
(-0.0042731 0.00174291 0.00616913)
(-0.00404162 0.00178108 0.00618484)
(-0.00376574 0.00189658 0.00618632)
(-0.00340625 0.00206802 0.00617373)
(-0.00293799 0.00222126 0.00614442)
(-0.00236091 0.00227053 0.00611637)
(-0.00158364 0.00214968 0.00612097)
(-0.000574423 0.00184159 0.00619628)
(0.000487607 0.00150982 0.00632768)
(0.00100872 0.00191698 0.00643609)
(-3.61169e-05 0.00381087 0.00584389)
(0.000669174 0.00797226 0.00392605)
(0.00490484 0.0136779 0.00169245)
(0.0114176 0.0175984 0.00206485)
(0.0198954 0.0147177 0.00563508)
(0.0286516 0.00736765 0.0133494)
(0.0275053 -0.00277418 0.0220114)
(0.00849208 -0.0194103 0.0303093)
(-0.00667575 -0.0446548 0.0156394)
(-0.00544747 -0.0155758 0.00768438)
(-0.0147594 -0.00292583 0.0305985)
(-0.0390787 0.0445449 0.048837)
(-0.0699494 0.101513 0.0443818)
(-0.0605214 0.141916 0.0409569)
(-0.00205255 0.180336 0.072537)
(0.0754592 0.189478 0.0776943)
(0.109273 0.20909 0.0591983)
(0.21526 0.0667236 0.0864615)
(0.305263 0.493329 0.105976)
(-0.0288579 -0.0730619 0.0126163)
(0.0334441 0.735631 -0.0310681)
(-0.0280898 0.776527 -0.00685702)
(-0.0273228 0.818671 -0.00021192)
(-0.0402135 0.829833 0.010859)
(-0.0339448 0.849772 0.0119875)
(-0.0432062 0.868445 0.00996442)
(-0.0444077 0.883753 0.0103536)
(-0.0452527 0.88157 0.00948286)
(-0.0361898 0.879215 0.0156781)
(-0.0277757 0.888762 0.0200708)
(-0.0238402 0.887817 0.0208128)
(-0.0142025 0.882188 0.0241736)
(-0.00898912 0.877841 0.0241718)
(-0.00411686 0.868107 0.0250706)
(0.002881 0.855201 0.0262403)
(0.00457862 0.852218 0.0239713)
(0.00741482 0.842669 0.0246758)
(0.0131564 0.829252 0.0271305)
(0.0177895 0.827437 0.0281053)
(0.0209779 0.819317 0.0278497)
(0.0236272 0.810033 0.0272849)
(0.0253034 0.805628 0.0283077)
(0.0267852 0.797021 0.0306941)
(0.0281488 0.787955 0.0346705)
(0.0298494 0.777175 0.0360834)
(0.0310114 0.764659 0.0368596)
(0.0315993 0.752858 0.0343659)
(0.0290451 0.741244 0.0268022)
(0.0225222 0.732597 0.0192489)
(0.0105005 0.722947 0.0109132)
(-0.00219198 0.708249 0.00709786)
(-0.015886 0.690128 0.0127582)
(-0.0254221 0.668428 0.02663)
(-0.0388778 0.639723 0.0358158)
(-0.050658 0.594254 0.0413268)
(-0.0547304 0.521433 0.0409439)
(0.0141372 0.00506187 0.00146791)
(0.0280066 0.0293033 0.00983377)
(0.0208091 0.018001 0.00364433)
(0.0239054 0.0245468 0.00337832)
(0.0226349 0.00908289 0.00109603)
(0.017174 0.00606386 -0.000723378)
(0.00132315 -0.00524716 -0.00632527)
(-0.00508805 0.000448699 -0.00598136)
(-0.00756775 -0.00232094 -0.00302479)
(-0.00861323 0.000794073 -0.0015942)
(-0.00916641 -0.000334628 -0.000793169)
(-0.00929345 0.000346135 0.000573577)
(-0.00916679 -0.000611481 0.0015829)
(-0.00838263 -0.000305709 0.00264274)
(-0.00801629 -0.000410884 0.00344913)
(-0.00807236 3.83342e-05 0.0042335)
(-0.00836899 0.000369968 0.00486752)
(-0.00878532 0.000842171 0.00528884)
(-0.00917007 0.00120736 0.00549055)
(-0.00945109 0.00158467 0.00554159)
(-0.00954814 0.00192011 0.00546152)
(-0.00944902 0.00219747 0.00529626)
(-0.00930713 0.00238837 0.00511044)
(-0.00914077 0.00250737 0.00492782)
(-0.0089649 0.00255344 0.00475435)
(-0.00876329 0.00254469 0.00460023)
(-0.00851697 0.00250609 0.00447436)
(-0.00824103 0.00245429 0.00438246)
(-0.00797143 0.00239731 0.00432453)
(-0.00777929 0.00235139 0.00429288)
(-0.00765439 0.00234384 0.0042764)
(-0.00749095 0.00239753 0.00425533)
(-0.0072552 0.00251383 0.00422099)
(-0.00690913 0.00266791 0.00418091)
(-0.00638244 0.00281893 0.00413169)
(-0.00572043 0.00292809 0.00407597)
(-0.00493428 0.00301062 0.00399069)
(-0.00425928 0.0031624 0.00381037)
(-0.00418942 0.00363947 0.00344358)
(-0.00525503 0.00484313 0.00280406)
(-0.00537771 0.00691031 0.00160482)
(-0.00348746 0.0104699 8.48571e-05)
(0.00239396 0.0155145 -0.00185781)
(0.0113281 0.0202283 -0.00111956)
(0.0200812 0.018707 0.00312021)
(0.0257398 0.0133802 0.0149909)
(0.0249104 0.0026045 0.0212366)
(0.0155742 -0.0119121 0.0284924)
(-0.0163508 -0.0497346 0.0114533)
(-0.034797 -0.0069044 0.000594199)
(-0.0627109 0.0131706 0.0307914)
(-0.096328 0.0564337 0.0415344)
(-0.113199 0.0875403 0.0372707)
(-0.0887994 0.112358 0.0328254)
(-0.0231254 0.136647 0.059986)
(0.0484701 0.119375 0.0773636)
(0.0613756 0.223126 0.0955638)
(0.113718 -0.166336 0.0549597)
(0.328403 0.521466 0.0363581)
(-0.0864482 -0.0678198 0.0176646)
(-0.136324 0.720515 -0.0375628)
(-0.0512649 0.776916 -0.0269828)
(-0.0686117 0.822726 -0.0239556)
(-0.0508362 0.841438 -0.0115158)
(-0.0514411 0.842101 0.00129898)
(-0.0350124 0.833372 0.00889047)
(-0.0371543 0.810365 0.0130679)
(-0.036824 0.793569 0.0109668)
(-0.0418095 0.77753 0.0142092)
(-0.0308563 0.759774 0.0166404)
(-0.0177655 0.730317 0.0169594)
(-0.000909702 0.688997 0.0095479)
(0.00222793 0.665281 0.00223162)
(0.00522565 0.651342 0.00123617)
(0.00602509 0.641746 -0.000505645)
(0.00454117 0.63884 -0.00443125)
(0.00383814 0.637408 -0.0064323)
(0.00599177 0.632951 -0.00605662)
(0.013673 0.631283 -0.00427174)