/*--------------------------------*- C++ -*----------------------------------*\
| =========                 |                                                 |
| \\      /  F ield         | OpenFOAM: The Open Source CFD Toolbox           |
|  \\    /   O peration     | Version:  2.3.0                                 |
|   \\  /    A nd           | Web:      www.OpenFOAM.org                      |
|    \\/     M anipulation  |                                                 |
\*---------------------------------------------------------------------------*/
FoamFile
{
    version     2.0;
    format      ascii;
    class       volVectorField;
    location    "48";
    object      U.water;
}
// * * * * * * * * * * * * * * * * * * * * * * * * * * * * * * * * * * * * * //

dimensions      [0 1 -1 0 0 0 0];

internalField   nonuniform List<vector> 
6144
(
(0.0113286 0.0203378 0.000196053)
(0.0120416 -0.00455752 -0.00122438)
(0.0041696 -0.00635738 -0.00264369)
(0.00334086 -0.0052516 -0.00259135)
(0.00192826 -0.00349056 -0.00189531)
(0.00297129 -0.000832577 -0.00147716)
(0.00318568 -0.00122108 -0.00120923)
(0.0029301 -0.00058395 -0.00105265)
(0.00227455 -0.000846506 -0.000775665)
(0.00173763 0.000436839 -0.000322603)
(0.00135611 0.00156063 0.000172228)
(0.00131591 0.00270674 0.00081007)
(0.00140677 0.00295847 0.00119649)
(0.00151522 0.00262403 0.00164583)
(0.00157328 0.00187345 0.00172313)
(0.00166619 0.00109835 0.00167742)
(0.00174682 0.000260281 0.00146677)
(0.00182922 -0.000432659 0.00121574)
(0.00190518 -0.000997861 0.000952903)
(0.00196466 -0.0013725 0.000716627)
(0.00200523 -0.00159538 0.000511281)
(0.00204124 -0.00165494 0.00033356)
(0.0020566 -0.00162203 0.000246175)
(0.0020501 -0.00154257 0.000243705)
(0.00202222 -0.00145124 0.000312397)
(0.00198018 -0.00137155 0.000436708)
(0.00193626 -0.00132964 0.000589918)
(0.00189696 -0.00134884 0.00074382)
(0.00185538 -0.00143727 0.000896231)
(0.00181201 -0.00157617 0.00103441)
(0.00176936 -0.00175049 0.00116566)
(0.00172901 -0.00196521 0.00130251)
(0.00168916 -0.00223293 0.00145261)
(0.00164934 -0.00256925 0.00162442)
(0.00161231 -0.00299888 0.00182472)
(0.0015884 -0.0035599 0.00205458)
(0.0015917 -0.00430762 0.00229047)
(0.00164034 -0.00525637 0.00246803)
(0.00174299 -0.00637984 0.00251537)
(0.00190648 -0.00759725 0.00235435)
(0.00208651 -0.00884703 0.0020535)
(0.00226138 -0.00995287 0.0017169)
(0.0025043 -0.0109832 0.00123202)
(0.0026407 -0.0122192 0.00116243)
(0.00291228 -0.0141387 -3.61431e-05)
(0.00336866 -0.014315 -0.00153214)
(0.0041089 -0.0134942 -0.00283127)
(-0.00163428 -0.0109394 -0.000850623)
(0.00528499 -0.0053068 -0.00410752)
(0.0273477 -0.0225519 -0.0107698)
(0.0299667 -0.048425 -0.00839973)
(0.0251377 -0.0750212 -0.00383244)
(0.0183002 -0.0859513 0.00260168)
(0.00912631 -0.104495 0.00144835)
(0.00303701 -0.0959756 0.0011872)
(-0.000833157 -0.115591 0.00638044)
(-0.00617049 -0.0624788 0.00227132)
(-0.000932854 -0.143294 0.0356721)
(-0.0446903 0.0151619 -0.0459027)
(0.0112288 -0.0353869 0.0466882)
(0.108806 -0.290018 0.0810419)
(0.0758751 -0.0810082 0.0315481)
(0.0500808 -0.159126 -0.00119643)
(0.0475797 -0.166349 -0.000350836)
(0.0439476 -0.16609 -0.00266365)
(0.0396423 -0.172136 -0.00487772)
(0.0337385 -0.175699 -0.00712661)
(0.0323556 -0.179631 -0.00471123)
(0.0305926 -0.179999 -0.00054085)
(0.026721 -0.181383 0.00236152)
(0.0220738 -0.181268 0.00146904)
(0.016609 -0.182633 0.00478861)
(0.0107638 -0.186055 0.00927936)
(0.00828751 -0.186435 0.011023)
(0.00492831 -0.184668 0.0115575)
(0.000297909 -0.178361 0.0114309)
(0.00213132 -0.172388 0.011976)
(0.0131053 -0.167517 0.0101658)
(0.0240578 -0.171518 0.0108271)
(0.0228793 -0.178052 0.0143059)
(0.019276 -0.182463 0.0153081)
(0.0191236 -0.189094 0.0129619)
(0.0126368 -0.193707 0.00768564)
(0.00727815 -0.188477 0.00387082)
(0.0040025 -0.170665 0.00804103)
(-0.0185128 -0.146725 -0.00777944)
(-0.0287234 -0.0790917 -0.00158667)
(-0.0145018 -0.0155243 0.00119108)
(-0.00483 0.0167613 -0.018626)
(0.00393274 0.0340485 -0.0236149)
(0.0107202 0.0458233 -0.0241664)
(0.0149442 0.05735 -0.0240443)
(0.0155232 0.069473 -0.0246707)
(0.0153183 0.0754856 -0.0207208)
(0.0097204 0.0574541 -0.00272393)
(0.00159903 0.0257384 0.0251702)
(0.0210842 0.0192766 0.00377321)
(0.0231513 0.00351183 0.00302977)
(0.0105297 -0.00138279 -0.00134251)
(0.0088636 -0.00182772 -0.000632126)
(0.00437207 -0.00430301 0.00102418)
(0.00493373 -0.00203135 0.00158347)
(0.00479311 -0.00206565 0.00223337)
(0.0044125 -0.000490331 0.00249788)
(0.00325941 -0.000394658 0.00267886)
(0.00220678 0.00140227 0.00270591)
(0.00174063 0.00258673 0.00294291)
(0.00192702 0.00365935 0.00357862)
(0.00233498 0.00378975 0.00394438)
(0.00277213 0.00350111 0.00423441)
(0.00294921 0.00272084 0.00431093)
(0.00313082 0.00194398 0.00431706)
(0.00323444 0.00103922 0.00425374)
(0.00331986 0.000273592 0.0041731)
(0.00338579 -0.000394841 0.00409469)
(0.00342635 -0.000880691 0.00404081)
(0.00343122 -0.00122146 0.00401225)
(0.00344872 -0.00138999 0.00394036)
(0.00343742 -0.00146082 0.00392623)
(0.00339298 -0.00146696 0.00396718)
(0.00331437 -0.0014435 0.00405493)
(0.00321703 -0.00141034 0.0041741)
(0.003125 -0.00139384 0.00429504)
(0.00306036 -0.00141864 0.00438777)
(0.0029968 -0.00150523 0.00448929)
(0.00292738 -0.00164693 0.00459157)
(0.00286163 -0.00184089 0.00469282)
(0.00280947 -0.00209486 0.00479789)
(0.00277005 -0.00242165 0.0049087)
(0.00274645 -0.00283558 0.00502788)
(0.0027501 -0.00335285 0.00515563)
(0.00280504 -0.00398964 0.00529053)
(0.00292891 -0.00475898 0.00542112)
(0.00313014 -0.00565552 0.00553337)
(0.00340155 -0.0066748 0.00560534)
(0.00373246 -0.00776179 0.00562636)
(0.00414301 -0.00889264 0.00557574)
(0.00464543 -0.0101318 0.00542054)
(0.00548476 -0.0117843 0.00489336)
(0.00612604 -0.0139608 0.00491727)
(0.00596023 -0.0177721 0.00432162)
(0.00492614 -0.0198448 0.00184068)
(0.00361258 -0.016568 -0.000114336)
(0.00191429 -0.0112822 0.000856338)
(0.0130127 -0.023052 -0.00236652)
(0.0481296 -0.0298201 -0.00916279)
(0.0502071 -0.0402345 -0.00877172)
(0.0429504 -0.0597231 -0.00108535)
(0.0300255 -0.0742314 0.0101502)
(0.0193683 -0.104538 0.00685507)
(0.0131173 -0.0978388 0.00656291)
(0.00248236 -0.11795 0.0148251)
(-0.00614038 -0.0604106 0.0268168)
(-0.0241933 -0.15353 0.0584975)
(-0.0718255 0.0723029 -0.116795)
(-0.00744148 -0.103057 0.0225902)
(0.148168 -0.256873 0.121647)
(0.0959402 -0.0170757 0.0555366)
(0.0724061 -0.113488 0.0201088)
(0.0680108 -0.0976828 0.0213519)
(0.0567113 -0.092148 0.00650771)
(0.041233 -0.0854282 0.00287291)
(0.0325203 -0.0809312 0.00975895)
(0.0254679 -0.0774141 0.0135618)
(0.0262481 -0.072637 0.0150012)
(0.0260091 -0.0665787 0.0122183)
(0.0270596 -0.0671188 0.0132515)
(0.025969 -0.073992 0.0204478)
(0.013737 -0.0957449 0.0286246)
(0.000855992 -0.110635 0.0234422)
(-0.00458589 -0.119442 0.0185816)
(-0.00455286 -0.123635 0.0217926)
(-0.00532204 -0.125772 0.0361847)
(-0.0146678 -0.12664 0.0518694)
(-0.0229235 -0.128279 0.0525989)
(-0.0238411 -0.127099 0.0469653)
(-0.0208457 -0.128216 0.0289935)
(-0.012029 -0.12394 0.00644728)
(-0.0125329 -0.119812 -0.00419499)
(-0.0192941 -0.115477 -0.00489412)
(-0.034142 -0.102004 0.00578678)
(-0.0389896 -0.0920221 -0.00311106)
(-0.0468944 -0.0480206 0.00153556)
(-0.0372409 0.00328801 -0.00170792)
(-0.00833873 0.0214464 -0.0160046)
(0.00976037 0.0309504 -0.0135046)
(0.0194194 0.0434429 -0.0101135)
(0.0244054 0.0550178 -0.00679926)
(0.0221626 0.0700237 -0.00451258)
(0.0137595 0.0758652 0.00598077)
(0.00326748 0.054285 0.0258888)
(0.00259778 0.0332137 0.0438607)
(0.0240001 0.0182688 0.00485451)
(0.0270462 0.00896341 0.00492722)
(0.0159048 0.00226316 0.00129628)
(0.0126107 0.00187187 0.0021053)
(0.00473096 -0.00326181 0.00367532)
(0.00412535 -0.000970732 0.00365246)
(0.00285131 -0.00152257 0.00428574)
(0.00236875 0.000562768 0.00413869)
(0.00119107 0.000613067 0.00417187)
(0.000449625 0.00198149 0.00418574)
(5.33096e-05 0.00239543 0.00425982)
(0.000560026 0.00315922 0.00455756)
(0.00106278 0.00317459 0.00481679)
(0.0016186 0.00318065 0.00501568)
(0.00187707 0.00275733 0.00504929)
(0.00213881 0.00235215 0.00503861)
(0.00230066 0.00175483 0.00499012)
(0.00241648 0.0012073 0.00494)
(0.00248398 0.000658719 0.00489398)
(0.00252118 0.000208886 0.00487568)
(0.00251102 -0.000185839 0.00488348)
(0.00244609 -0.000492752 0.00492439)
(0.00236637 -0.000721545 0.00498184)
(0.00227151 -0.000881888 0.00504553)
(0.00215933 -0.000994349 0.0051129)
(0.00204283 -0.00107734 0.00518242)
(0.00193252 -0.00115177 0.00525687)
(0.00183429 -0.00122824 0.00534288)
(0.00174998 -0.001322 0.00543735)
(0.00166843 -0.00145317 0.00553577)
(0.00159689 -0.00163231 0.00563413)
(0.00155143 -0.00187144 0.00573103)
(0.0015342 -0.00218228 0.00582682)
(0.00154791 -0.00257003 0.00592136)
(0.00160274 -0.0030276 0.00600721)
(0.00172504 -0.00353208 0.00607534)
(0.00194655 -0.00405269 0.0061093)
(0.00229985 -0.00457271 0.00610455)
(0.00278404 -0.00513217 0.00606309)
(0.00339293 -0.00580837 0.00599705)
(0.00411458 -0.00678694 0.00589809)
(0.00500175 -0.00823271 0.005714)
(0.00628603 -0.010418 0.00521715)
(0.00750263 -0.0137148 0.00576275)
(0.00726264 -0.0179641 0.00490646)
(0.00553632 -0.0229373 0.00308161)
(0.00155075 -0.0223551 0.00127617)
(0.00384555 -0.0236304 0.00251754)
(0.0208534 -0.0328091 -0.00255535)
(0.0585825 -0.0263678 -0.00860089)
(0.0668867 -0.0321663 -0.00414994)
(0.0611725 -0.0604221 0.00423497)
(0.0379335 -0.0782851 0.0180478)
(0.0176877 -0.119139 0.0113506)
(-0.00668373 -0.113601 0.00837631)
(-0.0246328 -0.13931 0.0136771)
(-0.0380443 -0.0901504 0.0278307)
(-0.0535891 -0.171892 0.0640612)
(-0.069961 0.0625965 -0.114596)
(-0.0128654 -0.0902651 -0.0297772)
(0.187661 -0.252303 0.137189)
(0.12701 -0.0233972 0.094616)
(0.0969875 -0.108217 0.0494956)
(0.0767622 -0.08225 0.0283556)
(0.039939 -0.0575166 0.000428336)
(0.0217674 -0.0464136 0.020995)
(0.0180803 -0.0401546 0.0225519)
(0.0205625 -0.029173 0.0133033)
(0.0220171 -0.0176344 0.0117599)
(0.0212892 -0.00986425 0.0238252)
(0.0146857 -0.0248518 0.0467969)
(-0.000195729 -0.0392715 0.0646593)
(-0.00669869 -0.0547238 0.0529268)
(-0.0165062 -0.0637489 0.0368758)
(-0.025142 -0.0604959 0.0376002)
(-0.0360896 -0.0605909 0.0386995)
(-0.0460106 -0.0689758 0.0350598)
(-0.0482879 -0.0841036 0.0374381)
(-0.0436419 -0.10413 0.0380114)
(-0.026649 -0.11819 0.0246521)
(0.00620705 -0.111315 0.00288525)
(0.021696 -0.0975338 -0.00602006)
(0.0209923 -0.0840518 -0.00424122)
(0.00754289 -0.0719411 0.00646119)
(-0.0225803 -0.0681941 0.00100481)
(-0.0702976 -0.0298595 -0.015321)
(-0.070396 0.0138271 -0.000894574)
(-0.031262 0.0217988 -0.00365961)
(-0.00432523 0.0253346 -0.0112558)
(0.00903059 0.0309293 -0.00738008)
(0.0165212 0.041332 -0.001718)
(0.0205296 0.0512685 0.00170046)
(0.0161834 0.0638681 0.00672653)
(0.00403766 0.0682751 0.0153071)
(-0.00746171 0.0505124 0.0344156)
(-0.00760271 0.0281016 0.055875)
(0.0247431 0.018004 0.00502478)
(0.0288752 0.0131173 0.00499393)
(0.0188596 0.00479978 0.000677)
(0.0158642 0.00543292 0.000851189)
(0.00632673 -0.0016808 0.0027617)
(0.00333578 0.000296945 0.00307192)
(0.00121569 -0.00130527 0.00434865)
(0.000513248 0.000780987 0.0042493)
(-0.000623773 0.000240715 0.00436237)
(-0.00120337 0.00139835 0.00435898)
(-0.00143757 0.0014328 0.00450384)
(-0.00093164 0.00214702 0.00486357)
(-0.000478697 0.00239837 0.005091)
(0.000114021 0.00270824 0.00524963)
(0.000443972 0.00255378 0.00524756)
(0.000741121 0.00238776 0.00524907)
(0.000927671 0.00197954 0.0052342)
(0.00104707 0.00157939 0.00523337)
(0.00109379 0.00112645 0.00521963)
(0.0011105 0.000723922 0.0052122)
(0.00107348 0.000343808 0.00521233)
(0.000997733 6.86888e-06 0.00522664)
(0.000893808 -0.00029207 0.00525351)
(0.000772003 -0.000533557 0.00528735)
(0.000642748 -0.000720344 0.00532698)
(0.000519357 -0.000859852 0.00537206)
(0.000415462 -0.000967461 0.00542109)
(0.000338405 -0.00106518 0.00547721)
(0.000282275 -0.00117119 0.00554197)
(0.000239829 -0.00129722 0.00561308)
(0.000220446 -0.00145392 0.00568661)
(0.000239526 -0.00165071 0.00575717)
(0.000296436 -0.00189533 0.00581817)
(0.000394948 -0.0021886 0.0058613)
(0.000538883 -0.0025169 0.0058706)
(0.000741877 -0.00285638 0.005829)
(0.00103679 -0.00319016 0.00572075)
(0.00145774 -0.00354211 0.00554911)
(0.00203629 -0.00402052 0.00534657)
(0.00282278 -0.00475388 0.00517662)
(0.00382936 -0.00595634 0.00503932)
(0.0050543 -0.00771301 0.00482993)
(0.00657402 -0.0104075 0.00446433)
(0.00772201 -0.0134591 0.00471013)
(0.00806768 -0.0185408 0.00326693)
(0.00614218 -0.0217046 0.000606754)
(0.00452036 -0.0254223 0.00126327)
(0.00918185 -0.0321294 0.00285131)
(0.023776 -0.0372139 -0.00166838)
(0.0587024 -0.0275657 -0.00361215)
(0.0761849 -0.0368617 0.0107364)
(0.0692529 -0.0728506 0.029454)
(0.0470055 -0.0995975 0.0243849)
(0.0345318 -0.140397 0.00434404)
(0.0114461 -0.137644 -0.015821)
(-0.00398744 -0.163638 -0.00920819)
(-0.0283786 -0.134811 0.018531)
(-0.042593 -0.211614 0.0709465)
(-0.0846646 0.0435119 -0.106869)
(0.0103813 -0.0946426 -0.0334071)
(0.22315 -0.253183 0.14763)
(0.120206 -0.0273619 0.104879)
(0.0525474 -0.0819343 0.0687501)
(0.0191233 -0.0324635 0.02632)
(-0.00713604 -0.00929579 0.0235047)
(-0.0243469 -0.0103585 0.0286901)
(-0.0130256 0.00527969 0.022727)
(-0.00401898 0.0140831 0.0230201)
(0.00209811 0.0179517 0.0242912)
(0.000441191 0.0136573 0.0201842)
(-0.0165762 0.00969466 0.0186913)
(-0.0303936 0.00248818 0.0289961)
(-0.040003 -0.00496327 0.0245046)
(-0.0426058 -0.010851 0.0194643)
(-0.0444047 -0.0216105 0.0156746)
(-0.0437335 -0.0411045 0.0138815)
(-0.0408796 -0.0578493 0.01728)
(-0.0330411 -0.0725042 0.0217766)
(-0.0229481 -0.0857497 0.0120068)
(-0.0188461 -0.0929332 -0.00857091)
(-0.0220038 -0.0826159 -0.0227412)
(-0.0207621 -0.062271 -0.0173788)
(-0.02169 -0.0356246 -0.0103479)
(-0.0358536 -0.00470229 -0.0176859)
(-0.0555766 0.0250993 -0.0206522)
(-0.0644968 0.0403079 -0.0137665)
(-0.0435032 0.038095 -0.00229062)
(-0.0213727 0.027036 -0.0109923)
(-0.00512982 0.0267599 -0.0120199)
(0.00554748 0.0303593 -0.00622895)
(0.014952 0.0397293 0.00139218)
(0.0211993 0.0485073 0.00633416)
(0.0154405 0.0588467 0.013778)
(-0.000835981 0.0614566 0.0239194)
(-0.0212115 0.0478065 0.0378303)
(-0.0234991 0.020817 0.0611909)
(0.0246389 0.0182597 0.00484925)
(0.0302688 0.0167668 0.0051921)
(0.0216127 0.00782552 0.000746978)
(0.0206549 0.00903544 0.00013801)
(0.00948988 7.81088e-05 -0.000389289)
(0.00403612 0.00178545 0.000524154)
(0.000188137 -0.00174269 0.00327851)
(-0.00108655 0.000792097 0.00353553)
(-0.00222866 -0.000350357 0.00388387)
(-0.00284157 0.000642672 0.00417164)
(-0.00336397 0.000477122 0.00443858)
(-0.00321096 0.00129981 0.00485839)
(-0.00291208 0.00176148 0.00502065)
(-0.00223529 0.002323 0.0051561)
(-0.00182866 0.00234403 0.00510169)
(-0.00150021 0.00226209 0.00511332)
(-0.00132384 0.00192925 0.00512984)
(-0.00128408 0.00161596 0.00517322)
(-0.001319 0.00125909 0.00518322)
(-0.00137215 0.000929983 0.00517065)
(-0.00144583 0.000592093 0.00513784)
(-0.00153432 0.000261159 0.00510234)
(-0.00163271 -5.67402e-05 0.00507241)
(-0.00173943 -0.00033325 0.00505221)
(-0.0018572 -0.000564791 0.00504011)
(-0.00196455 -0.000750115 0.00503527)
(-0.00204138 -0.000899472 0.00503905)
(-0.00207972 -0.00102858 0.00504936)
(-0.00209206 -0.00114545 0.00506154)
(-0.00209265 -0.0012547 0.00507803)
(-0.00207022 -0.00136631 0.00509622)
(-0.0020042 -0.0014923 0.00510579)
(-0.00189243 -0.00163887 0.00509728)
(-0.00173634 -0.00179626 0.00505486)
(-0.00152865 -0.00195733 0.00495855)
(-0.00124816 -0.00211386 0.00479839)
(-0.00084769 -0.0022995 0.00456648)
(-0.000240089 -0.00259407 0.00430803)
(0.000646141 -0.0031073 0.00410946)
(0.0017996 -0.00397171 0.00407003)
(0.00311007 -0.00532968 0.00425807)
(0.00456896 -0.0071702 0.00440431)
(0.00629559 -0.0098217 0.00416841)
(0.00817457 -0.0127389 0.00331813)
(0.00903039 -0.0172202 0.00147796)
(0.00983828 -0.0214164 -0.00156453)
(0.0119224 -0.0284699 0.0026122)
(0.013445 -0.0391545 0.00439036)
(0.0216686 -0.0402928 0.00152051)
(0.0483247 -0.0285058 0.00555935)
(0.0669132 -0.0411326 0.0368381)
(0.0627892 -0.07441 0.0461863)
(0.0486194 -0.102139 0.0138359)
(0.0423805 -0.0983475 -0.0123321)
(0.0413485 -0.0455381 -0.015002)
(0.0465359 -0.0849017 0.0114322)
(-0.0540887 -0.0371106 0.0781183)
(-0.0506234 -0.217476 0.156197)
(-0.127547 0.0747603 -0.0432243)
(0.0190851 -0.158346 -0.0335194)
(0.258969 -0.216631 0.141074)
(0.0927673 0.0409987 0.10541)
(0.0205936 -0.0495722 0.0783613)
(-0.00962851 -0.00731819 0.0201768)
(-0.0352783 -0.00985544 0.0159085)
(-0.0401642 -0.0279335 0.018398)
(-0.0341926 -0.020334 0.0126654)
(-0.0226954 -0.0105533 0.00288723)
(-0.0154508 0.000238696 -0.00322211)
(-0.0034906 -0.00509334 -0.00873329)
(-0.0141466 -0.00282355 0.00746619)
(-0.0236193 0.000414756 0.0166932)
(-0.0175147 0.0100269 0.00911014)
(-0.00675365 0.0105327 0.00647232)
(0.0049698 0.0100901 -0.00373662)
(5.71284e-06 0.00651075 -0.00827689)
(-0.0123413 -0.000337851 -0.00439706)
(-0.0165763 -0.000811603 -0.00401892)
(-0.018031 0.00334298 -0.00843747)
(-0.0154788 0.0106617 -0.0147598)
(-0.0101847 0.0266025 -0.0172502)
(-0.0122038 0.0412798 -0.014884)
(-0.0195116 0.0520213 -0.0139071)
(-0.0278602 0.0556775 -0.0135179)
(-0.0332823 0.054277 -0.00783683)
(-0.0337545 0.0416188 -0.000785986)
(-0.0143325 0.0241917 -2.98924e-07)
(-0.0044063 0.0152157 -0.00518473)
(0.00720584 0.0167437 -0.00365257)
(0.00924386 0.0313551 -9.78627e-05)
(0.00887744 0.0393078 0.00267655)
(0.00980787 0.0449421 0.00998331)
(0.00639857 0.0549511 0.0169402)
(-0.00725356 0.0588246 0.0273161)
(-0.0304075 0.0466821 0.0382229)
(-0.0350916 0.0203881 0.0596667)
(0.0234917 0.0177401 0.00451583)
(0.0313318 0.0210192 0.00622322)
(0.0230997 0.0107968 0.00213049)
(0.0244041 0.0123603 0.00203999)
(0.0150726 0.00140385 -0.00215119)
(0.00712679 0.00268004 -0.00246891)
(4.77723e-05 -0.00277266 0.00103928)
(-0.00267369 0.000462804 0.00181553)
(-0.00342298 -0.00122797 0.00262058)
(-0.00446091 -0.000101833 0.00328821)
(-0.00496091 -0.000468855 0.00370828)
(-0.00475089 0.000588235 0.00428088)
(-0.00436642 0.00131658 0.00447631)
(-0.00344535 0.00213017 0.00476231)
(-0.00269832 0.00212966 0.00486935)
(-0.00221242 0.0019719 0.00506483)
(-0.00201096 0.00159148 0.00519511)
(-0.00203798 0.00129214 0.00528889)
(-0.00214022 0.00104235 0.00530181)
(-0.00223716 0.000852545 0.00525734)
(-0.00233891 0.000660843 0.00515908)
(-0.00244157 0.000455843 0.00503004)
(-0.00256546 0.000230528 0.00489376)
(-0.00268843 1.15318e-05 0.00476435)
(-0.00279307 -0.000185945 0.00464692)
(-0.00286612 -0.000346687 0.00454007)
(-0.00289465 -0.000484694 0.00444756)
(-0.00288367 -0.000612331 0.00437227)
(-0.00285483 -0.000731533 0.00431541)
(-0.002805 -0.000837717 0.00428078)
(-0.00271841 -0.000924051 0.00426404)
(-0.00257412 -0.000993841 0.00424868)
(-0.00237688 -0.00105293 0.00422028)
(-0.00212378 -0.00109552 0.00416302)
(-0.00180577 -0.00113321 0.00406174)
(-0.00140323 -0.00119103 0.00392012)
(-0.000855218 -0.00131634 0.00375865)
(-8.68417e-05 -0.00157553 0.00364674)
(0.000893223 -0.00210746 0.00367486)
(0.00206347 -0.0029737 0.00399614)
(0.00336027 -0.00415905 0.0046433)
(0.00493428 -0.00532709 0.00486183)
(0.00704518 -0.00718747 0.00353658)
(0.00981753 -0.00818369 0.00196314)
(0.0129232 -0.010961 0.00241871)
(0.0176834 -0.0175029 0.0014201)
(0.0217066 -0.0309906 0.00505523)
(0.0139851 -0.0389842 0.00889935)
(0.0148204 -0.0394142 0.0078093)
(0.0344058 -0.033217 0.0152783)
(0.0511878 -0.0503655 0.0413106)
(0.0495612 -0.0612037 0.0371103)
(0.0429033 -0.0576166 0.0153049)
(0.0146509 0.0183575 0.0103432)
(0.0240367 0.0746744 0.0318028)
(0.0597809 0.0767408 0.10546)
(0.0844551 0.167602 0.167273)
(0.134717 -0.188526 0.214303)
(-0.0982782 0.211805 0.0470002)
(0.0466986 -0.255179 0.0182609)
(0.237236 -0.128145 0.118961)
(-0.00931327 0.121921 0.0813528)
(-0.00405983 -0.017075 0.0659816)
(-0.0370228 0.0366376 -0.00080176)
(-0.03949 0.00383775 0.0196134)
(-0.041228 -0.0276806 0.0184418)
(-0.0328987 -0.0396933 0.00260438)
(-0.00890406 -0.0419216 -0.00806609)
(0.0224797 -0.0376068 -0.00900332)
(0.0286245 -0.0127996 -0.00712064)
(-0.00155715 0.0121977 0.00316886)
(-0.0213492 0.0213517 0.0032218)
(-0.024554 0.0414524 -0.0132091)
(-0.0260052 0.0614664 -0.0188458)
(-0.0196695 0.102545 -0.00101968)
(-0.0171493 0.116669 0.00672121)
(-0.0171024 0.122509 0.0065072)
(-0.0164308 0.124563 0.00700135)
(-0.0132754 0.123172 0.00828372)
(-0.0119946 0.120257 0.00845461)
(-0.00895403 0.11935 0.0121479)
(-0.00873768 0.110639 0.0113158)
(-0.0123323 0.0981738 0.00619683)
(-0.0137079 0.0877916 0.00612313)
(-0.0143067 0.0700229 0.0071007)
(-0.0164081 0.0436819 0.00568161)
(-0.00942801 0.029066 0.00789142)
(-0.0101899 0.0129357 0.00425738)
(-0.0130649 0.00833401 -0.00298076)
(-0.0140236 0.0096513 -0.00635727)
(-0.00123109 0.0216503 0.000449471)
(0.00404347 0.0334754 0.0117739)
(0.00140143 0.0443369 0.0209243)
(-0.0116738 0.0523574 0.0338983)
(-0.0353263 0.0431429 0.0455274)
(-0.0426583 0.0162371 0.0642576)
(0.0212388 0.0158723 0.00452345)
(0.0319088 0.025138 0.00850641)
(0.0232698 0.0133532 0.00480657)
(0.024746 0.0152452 0.00502833)
(0.019314 0.00228159 -0.000204227)
(0.0109652 0.00307309 -0.00339667)
(0.000733925 -0.00399185 -0.000639228)
(-0.00353638 0.000475119 0.00024152)
(-0.0045048 -0.0017289 0.00141559)
(-0.005684 -0.000434105 0.00240543)
(-0.00658925 -0.000878292 0.00284831)
(-0.00719603 0.000291066 0.00357148)
(-0.00709797 0.000985842 0.0039732)
(-0.00580676 0.00170098 0.0047701)
(-0.00487016 0.00156374 0.00524669)
(-0.00442935 0.00139331 0.00570827)
(-0.00438488 0.00105023 0.00595448)
(-0.00467034 0.000850123 0.0060447)
(-0.00499976 0.000751149 0.00599428)
(-0.00522925 0.000743601 0.00587091)
(-0.00537759 0.000750691 0.00567702)
(-0.00545329 0.000748762 0.00544167)
(-0.00550475 0.000712545 0.00520022)
(-0.00554122 0.000650431 0.00497609)
(-0.00559251 0.000581642 0.00478968)
(-0.00560281 0.000524003 0.00462399)
(-0.00554143 0.000455425 0.0044895)
(-0.00542611 0.000364375 0.00440038)
(-0.00528802 0.000261073 0.00435501)
(-0.00515296 0.000160963 0.00434749)
(-0.00500801 9.20807e-05 0.00436637)
(-0.00480925 6.42994e-05 0.00439036)
(-0.00455537 7.76998e-05 0.00439865)
(-0.0042456 0.000122242 0.00437107)
(-0.00384429 0.000162418 0.00431312)
(-0.00334369 0.000150599 0.00423363)
(-0.00266966 3.54734e-05 0.00416477)
(-0.00177169 -0.000292315 0.00418092)
(-0.000676324 -0.000879065 0.0044202)
(0.000377843 -0.00162105 0.00490815)
(0.00132857 -0.00169118 0.00537395)
(0.00280926 -0.000266591 0.00432637)
(0.00598115 0.00280881 0.00218449)
(0.0094843 0.00696247 0.00284603)
(0.0147998 0.00503367 0.00567968)
(0.0236353 -0.00299452 0.00782641)
(0.0229424 -0.01584 0.0156123)
(0.00621744 -0.030238 0.0222483)
(0.00311273 -0.0405692 0.0104891)
(0.015289 -0.0310494 0.0126975)
(0.0214294 -0.0214204 0.031694)
(0.0118181 -0.00995159 0.0366876)
(-0.0223017 0.0491405 0.0263267)
(-0.0236843 0.113825 0.0110071)
(0.0289448 0.161473 0.0447413)
(0.0709921 0.170511 0.080529)
(0.100636 0.179051 0.0825307)
(0.0887859 0.0863973 0.0906438)
(-0.0730091 0.422269 0.0521348)
(-0.0224108 -0.365263 0.0242039)
(0.157196 -0.0135396 0.0694548)
(0.0230456 0.0908081 0.0822032)
(0.0100978 0.0270321 0.0292974)
(-0.0313683 0.0461666 0.00429497)
(-0.011424 0.0207425 0.0218265)
(-0.00762106 0.00524617 0.0143524)
(-0.00939114 0.0267464 -0.000249182)
(-0.015615 0.0552794 -0.025712)
(-0.0317801 0.140271 -0.0150118)
(-0.0319995 0.199985 0.00795372)
(-0.0323348 0.225729 -0.000948805)
(-0.0283606 0.248366 0.00474613)
(-0.0205526 0.262733 0.0115142)
(-0.0162412 0.271015 0.0128192)
(-0.00943961 0.277895 0.0206737)
(-0.00200808 0.275093 0.0218751)
(0.00150355 0.273769 0.0235929)
(0.00712902 0.265531 0.024185)
(0.0106131 0.259396 0.0264337)
(0.0149153 0.24902 0.0263154)
(0.0161428 0.240336 0.025173)
(0.0178283 0.229535 0.0257948)
(0.0168204 0.214393 0.0230934)
(0.0158952 0.199723 0.0225628)
(0.0190714 0.179757 0.0236983)
(0.0209004 0.157855 0.0271492)
(0.0236973 0.134853 0.030639)
(0.0228558 0.106427 0.0275896)
(0.0214187 0.0861027 0.0254453)
(0.0123777 0.0533653 0.0226094)
(0.00565113 0.0392117 0.0199674)
(-0.002404 0.0359634 0.0168082)
(-0.0121866 0.0440342 0.0217406)
(-0.0235137 0.0488069 0.0333413)
(-0.0460338 0.0394062 0.045114)
(-0.059641 0.014852 0.0602744)
(0.0204955 0.010734 0.00430567)
(0.0311192 0.027957 0.0103515)
(0.0226187 0.0153637 0.00566363)
(0.0245238 0.0191196 0.00558958)
(0.0210358 0.00449174 0.0013581)
(0.0143076 0.00377597 -0.00194769)
(0.000516024 -0.00489938 -0.00119234)
(-0.00557125 9.93968e-05 -0.00104918)
(-0.00523545 -0.00255778 0.00119012)
(-0.00705775 -0.000317765 0.00209966)
(-0.00753654 -0.000916116 0.00266531)
(-0.00774673 0.000151464 0.00374564)
(-0.00722506 -0.00016488 0.00458509)
(-0.00564326 0.000244298 0.00574543)
(-0.00456076 -2.80673e-05 0.00663507)
(-0.00412927 9.98697e-05 0.00744136)
(-0.00413052 0.000150025 0.0079252)
(-0.00442556 0.000383291 0.0081317)
(-0.00473277 0.000592215 0.00812291)
(-0.00491999 0.000852093 0.00800097)
(-0.00503768 0.00110156 0.0077816)
(-0.00509721 0.00129616 0.00750104)
(-0.0051296 0.00140738 0.00721041)
(-0.00514205 0.00146181 0.00693421)
(-0.00514628 0.00146034 0.00668172)
(-0.00510651 0.00142114 0.00647595)
(-0.00499291 0.00135916 0.00632355)
(-0.00482276 0.00127649 0.00622033)
(-0.00463126 0.00117633 0.00616668)
(-0.00445208 0.00108169 0.00615495)
(-0.00427126 0.00103993 0.0061691)
(-0.00403972 0.00107793 0.00618482)
(-0.0037638 0.00119316 0.00618634)
(-0.00340429 0.00136423 0.00617377)
(-0.00293604 0.00151698 0.00614451)
(-0.00235899 0.00156563 0.00611648)
(-0.00158183 0.00144402 0.00612111)
(-0.000572751 0.00113501 0.00619639)
(0.000489076 0.000802237 0.00632773)
(0.00100993 0.00120707 0.00643602)
(-3.52978e-05 0.00308756 0.00584367)
(0.000669951 0.00719286 0.00392539)
(0.00490614 0.0127409 0.00169115)
(0.01142 0.0163866 0.00206382)
(0.0198986 0.0131983 0.00563716)
(0.0286573 0.00558381 0.0133556)
(0.0275081 -0.00476898 0.0220201)
(0.00848959 -0.0215951 0.0303176)
(-0.00668273 -0.0473436 0.0156273)
(-0.00547526 -0.0192483 0.00765808)
(-0.0148323 -0.00730817 0.0305535)
(-0.0391518 0.0402252 0.0487902)
(-0.0699837 0.097546 0.0443685)
(-0.0604673 0.138137 0.0409397)
(-0.0018551 0.176578 0.0725251)
(0.0757102 0.185614 0.0775246)
(0.110557 0.203393 0.0587504)
(0.214638 0.0632409 0.0862763)
(0.30384 0.481923 0.106195)
(0.0182507 -0.447858 0.0479221)
(0.0385585 0.114148 -0.0247058)
(-0.0138906 0.24531 -0.016991)
(-0.0267596 0.275295 -0.00676671)
(-0.0352973 0.280599 0.00833524)
(-0.0331765 0.299523 0.0147911)
(-0.0389462 0.31555 0.00849248)
(-0.0417672 0.327998 0.00947169)
(-0.0433268 0.331811 0.00686124)
(-0.0351888 0.340355 0.0142759)
(-0.0293793 0.345183 0.0192509)
(-0.0254301 0.346428 0.0200639)
(-0.0149508 0.341664 0.0246925)
(-0.00871236 0.334424 0.0254388)
(-0.00420971 0.326229 0.0256489)
(0.00381308 0.318579 0.0271696)
(0.00538126 0.308232 0.0229861)
(0.00816346 0.300102 0.0239322)
(0.014224 0.290372 0.0262639)
(0.0188514 0.280695 0.0272028)
(0.0217835 0.273668 0.0263452)
(0.0243859 0.268066 0.0256111)
(0.0265989 0.261493 0.0265896)
(0.0279869 0.254971 0.028154)
(0.0292976 0.245801 0.0323564)
(0.0313899 0.234941 0.0345446)
(0.0330176 0.222567 0.0359105)
(0.0347205 0.210764 0.036084)
(0.0341764 0.199031 0.0308217)
(0.0301847 0.191121 0.024756)
(0.0198264 0.185104 0.0171372)
(0.00742099 0.174392 0.0094563)
(-0.00704978 0.158438 0.00995642)
(-0.0172211 0.138861 0.0223394)
(-0.0302347 0.115343 0.033914)
(-0.0456961 0.0766808 0.043164)
(-0.0555994 0.0217042 0.0498926)
(0.0141426 0.0049558 0.00147293)
(0.0280139 0.0290277 0.00983538)
(0.0208177 0.0176962 0.00364507)
(0.0239138 0.0242046 0.00337856)
(0.0226429 0.00868322 0.00109637)
(0.0171814 0.005594 -0.000722995)
(0.00132962 -0.00578289 -0.00632508)
(-0.00508241 -0.000139353 -0.00598108)
(-0.0075629 -0.00295079 -0.00302449)
(-0.00860922 0.000132992 -0.00159392)
(-0.00916318 -0.00101498 -0.000792905)
(-0.0092909 -0.000345849 0.000573841)
(-0.00916481 -0.00130959 0.00158314)
(-0.00838107 -0.00100649 0.00264296)
(-0.00801508 -0.00111285 0.00344934)
(-0.00807139 -0.000664368 0.00423372)
(-0.00836821 -0.000333132 0.00486774)
(-0.00878465 0.000138923 0.00528907)
(-0.00916947 0.000504072 0.00549078)
(-0.00945052 0.000881415 0.00554181)
(-0.00954756 0.00121692 0.00546174)
(-0.00944841 0.00149435 0.00529647)
(-0.00930646 0.00168535 0.00511064)
(-0.00914002 0.00180448 0.00492802)
(-0.00896406 0.00185066 0.00475455)
(-0.00876236 0.00184202 0.00460043)
(-0.00851594 0.00180351 0.00447457)
(-0.0082399 0.00175176 0.00438267)
(-0.00797021 0.0016948 0.00432475)
(-0.007778 0.00164882 0.00429312)
(-0.00765304 0.00164115 0.00427665)
(-0.00748956 0.00169465 0.0042556)
(-0.00725379 0.00181066 0.00422127)
(-0.00690773 0.00196433 0.00418121)
(-0.00638109 0.00211481 0.004132)
(-0.00571919 0.00222326 0.00407628)
(-0.00493323 0.0023049 0.00399097)
(-0.00425853 0.00245564 0.0038106)
(-0.00418907 0.00293159 0.00344374)
(-0.00525529 0.00413262 0.0028041)
(-0.00537855 0.00618684 0.00160461)
(-0.00348887 0.00968744 8.40114e-05)
(0.00239255 0.014565 -0.00185944)
(0.0113276 0.0190014 -0.00112082)
(0.0200827 0.0171811 0.00312226)
(0.0257443 0.0115909 0.0149965)
(0.0249145 0.000597232 0.0212445)
(0.01558 -0.0141672 0.0284995)
(-0.0163634 -0.0526462 0.0114415)
(-0.0348069 -0.0108014 0.000588813)
(-0.0627194 0.00878821 0.0307854)
(-0.0963165 0.052278 0.0414992)
(-0.113155 0.0837397 0.0372625)
(-0.0887429 0.108772 0.0328245)
(-0.0229231 0.133199 0.0600579)
(0.0485608 0.116338 0.0772875)
(0.0627164 0.216054 0.0949765)
(0.113949 -0.181184 0.0552906)
(0.327093 0.508026 0.0366007)
(0.00222982 -0.390893 0.0376296)
(-0.113705 0.0879464 -0.0236649)
(-0.0447125 0.232056 -0.0267637)
(-0.0615773 0.272237 -0.0334484)
(-0.0461999 0.297758 -0.0186031)
(-0.050806 0.302981 -0.00519996)
(-0.0343709 0.296595 0.00881229)
(-0.0337887 0.277399 0.0150062)
(-0.03077 0.258105 0.0137309)
(-0.0394602 0.244875 0.0138697)
(-0.037723 0.233192 0.016018)
(-0.0274923 0.208704 0.0208724)
(-0.00474762 0.161749 0.0181999)
(0.00215227 0.132541 0.00799539)
(0.00389241 0.110513 0.00418681)
(0.00678192 0.0955945 0.0040703)
(0.00489194 0.0909075 -0.0014471)
(0.00280838 0.0922555 -0.00561926)