/*--------------------------------*- C++ -*----------------------------------*\
| =========                 |                                                 |
| \\      /  F ield         | OpenFOAM: The Open Source CFD Toolbox           |
|  \\    /   O peration     | Version:  2.3.0                                 |
|   \\  /    A nd           | Web:      www.OpenFOAM.org                      |
|    \\/     M anipulation  |                                                 |
\*---------------------------------------------------------------------------*/
FoamFile
{
    version     2.0;
    format      ascii;
    class       volScalarField;
    location    "49";
    object      alpha.water;
}
// * * * * * * * * * * * * * * * * * * * * * * * * * * * * * * * * * * * * * //

dimensions      [0 0 0 0 0 0 0];

internalField   nonuniform List<scalar> 
6144
(
3.95829e-06
4.5821e-06
5.03713e-06
5.45376e-06
5.88419e-06
6.73977e-06
7.80592e-06
8.77268e-06
9.53462e-06
9.89889e-06
9.96699e-06
9.97671e-06
9.97973e-06
9.98457e-06
9.98692e-06
9.98879e-06
9.98846e-06
9.98903e-06
9.98854e-06
9.98867e-06
9.98857e-06
9.98836e-06
9.98784e-06
9.9873e-06
9.98671e-06
9.9863e-06
9.98589e-06
9.9854e-06
9.98481e-06
9.98428e-06
9.98369e-06
9.98314e-06
9.98251e-06
9.98186e-06
9.98108e-06
9.98033e-06
9.97967e-06
9.9791e-06
9.97856e-06
9.97784e-06
9.9775e-06
9.9775e-06
9.97897e-06
1.00183e-05
1.02497e-05
1.19877e-05
2.05455e-05
3.54662e-05
5.05892e-05
7.02151e-05
9.02128e-05
0.000103706
0.000108695
0.000113797
0.000115559
0.000117285
0.000118046
0.000121971
0.000843283
0.0535958
0.928731
0.999273
0.999998
1
1
1
1
1
1
0.999999
0.999999
0.999999
0.999999
0.999999
0.999999
0.999999
0.999999
0.999999
0.999999
0.999999
0.999999
0.999999
0.999999
0.999999
0.999999
0.999999
0.999999
0.999999
1
1
1
1
1
1
1
1
3.63856e-06
4.3647e-06
5.23709e-06
5.67167e-06
6.29747e-06
7.06394e-06
7.94795e-06
8.82959e-06
9.55899e-06
9.88786e-06
9.95948e-06
9.97386e-06
9.97991e-06
9.98773e-06
9.99284e-06
9.99611e-06
9.99655e-06
9.99683e-06
9.99591e-06
9.99585e-06
9.99568e-06
9.99522e-06
9.99466e-06
9.99419e-06
9.99378e-06
9.99359e-06
9.99356e-06
9.99324e-06
9.99291e-06
9.99267e-06
9.99245e-06
9.9922e-06
9.99188e-06
9.99142e-06
9.9908e-06
9.99004e-06
9.98919e-06
9.98818e-06
9.98709e-06
9.98592e-06
9.98588e-06
9.98701e-06
9.99738e-06
1.00429e-05
1.02142e-05
1.14377e-05
1.67092e-05
2.81757e-05
4.72038e-05
7.27071e-05
9.97119e-05
0.000116561
0.000121418
0.000123896
0.000124716
0.000126492
0.000127009
0.000130465
0.000388824
0.028895
0.917152
0.999342
0.999999
1
0.999999
0.999999
0.999999
0.999999
0.999999
0.999999
0.999999
0.999999
0.999999
0.999999
0.999999
0.999999
0.999999
0.999999
0.999999
0.999999
0.999999
0.999999
0.999999
0.999999
0.999999
0.999999
0.999999
0.999999
1
1
1
1
1
1
1
1
3.50269e-06
4.05062e-06
5.04276e-06
5.62466e-06
6.48358e-06
7.25475e-06
8.07706e-06
8.87265e-06
9.41581e-06
9.73178e-06
9.86664e-06
9.92678e-06
9.95938e-06
9.97732e-06
9.98677e-06
9.9933e-06
9.99537e-06
9.99596e-06
9.9959e-06
9.99594e-06
9.99566e-06
9.9954e-06
9.99497e-06
9.99451e-06
9.99406e-06
9.9937e-06
9.9933e-06
9.99295e-06
9.99263e-06
9.99236e-06
9.99198e-06
9.99142e-06
9.99053e-06
9.9895e-06
9.98837e-06
9.98723e-06
9.98603e-06
9.98485e-06
9.98388e-06
9.98378e-06
9.98522e-06
9.99588e-06
1.00688e-05
1.03308e-05
1.0715e-05
1.14449e-05
1.40164e-05
2.16905e-05
3.81927e-05
6.71405e-05
0.000101412
0.000119167
0.000122438
0.00012273
0.000121393
0.000122077
0.000123026
0.0001274
0.00024566
0.0169295
0.913978
0.999333
0.999999
1
0.999999
0.999999
0.999999
0.999999
0.999999
0.999999
0.999999
0.999999
0.999999
0.999999
0.999999
0.999999
0.999999
0.999999
0.999999
0.999999
0.999999
0.999999
0.999999
0.999999
0.999999
0.999999
0.999999
0.999999
1
1
1
1
1
1
1
1
3.4521e-06
3.78489e-06
4.7078e-06
5.28598e-06
6.49529e-06
7.29525e-06
8.05914e-06
8.76101e-06
9.31011e-06
9.64737e-06
9.8142e-06
9.90347e-06
9.94985e-06
9.97214e-06
9.98226e-06
9.9895e-06
9.9914e-06
9.99179e-06
9.99149e-06
9.99143e-06
9.99108e-06
9.99086e-06
9.99038e-06
9.98976e-06
9.98914e-06
9.98849e-06
9.98799e-06
9.98754e-06
9.98729e-06
9.98706e-06
9.987e-06
9.98675e-06
9.98631e-06
9.98556e-06
9.98471e-06
9.98374e-06
9.98273e-06
9.98236e-06
9.98235e-06
9.98237e-06
9.9846e-06
1.00084e-05
1.01731e-05
1.07894e-05
1.17822e-05
1.30324e-05
1.70859e-05
2.44359e-05
3.46688e-05
6.82057e-05
0.00010275
0.000118644
0.000117774
0.000117166
0.000116265
0.000117814
0.000116126
0.000124368
0.000195975
0.0295369
0.949789
0.999813
1
0.999999
0.999999
0.999999
0.999999
0.999999
0.999999
0.999999
0.999999
0.999999
0.999999
0.999999
0.999999
0.999999
0.999999
0.999999
0.999999
0.999999
0.999999
0.999999
0.999999
0.999999
0.999999
0.999999
1
1
1
1
1
1
1
1
1
1
3.3978e-06
3.6161e-06
4.38961e-06
4.90535e-06
6.14802e-06
6.97804e-06
7.93409e-06
8.66441e-06
9.20378e-06
9.56997e-06
9.7731e-06
9.89048e-06
9.94848e-06
9.97409e-06
9.98504e-06
9.99264e-06
9.99479e-06
9.99527e-06
9.99519e-06
9.99534e-06
9.99518e-06
9.99512e-06
9.99468e-06
9.99415e-06
9.99345e-06
9.99282e-06
9.99213e-06
9.99155e-06
9.99092e-06
9.99039e-06
9.98979e-06
9.98915e-06
9.98832e-06
9.98744e-06
9.98648e-06
9.98556e-06
9.98461e-06
9.98391e-06
9.98354e-06
9.98408e-06
9.98813e-06
1.00285e-05
1.03165e-05
1.12816e-05
1.32417e-05
1.66035e-05
2.49082e-05
3.29588e-05
3.8884e-05
7.33373e-05
0.000104883
0.000117854
0.00011669
0.000116443
0.000117333
0.000117971
0.000117861
0.000139254
0.000139823
0.061374
0.972703
0.999955
0.999996
0.999998
0.999998
0.999999
0.999999
0.999998
0.999998
0.999999
0.999999
0.999998
0.999999
1
1
1
1
0.999999
0.999999
1
1
1
1
1
1
1
1
1
1
1
1
1
1
1
1
1
3.32091e-06
3.53313e-06
4.10635e-06
4.49601e-06
5.75876e-06
6.60719e-06
7.66073e-06
8.54014e-06
9.08416e-06
9.49302e-06
9.73419e-06
9.87686e-06
9.9435e-06
9.97031e-06
9.98012e-06
9.98695e-06
9.98877e-06
9.98903e-06
9.98891e-06
9.98899e-06
9.98897e-06
9.98904e-06
9.98887e-06
9.98857e-06
9.98814e-06
9.98766e-06
9.98721e-06
9.98671e-06
9.98622e-06
9.98569e-06
9.98516e-06
9.98448e-06
9.98371e-06
9.9828e-06
9.98196e-06
9.9811e-06
9.98055e-06
9.98051e-06
9.98068e-06
9.98124e-06
9.98605e-06
1.00585e-05
1.05512e-05
1.20751e-05
1.58533e-05
2.40417e-05
3.31771e-05
3.99332e-05
4.42076e-05
7.98212e-05
0.000110423
0.000117952
0.000117535
0.000118064
0.000118238
0.000117954
0.000117143
0.000140894
0.000374934
0.0955866
0.970276
0.999697
0.999775
0.999906
0.999925
0.999947
0.99994
0.999923
0.999908
0.999888
0.999863
0.999844
0.999816
0.999789
0.999767
0.999748
0.999737
0.999746
0.99984
0.9999
0.999941
0.999966
0.999975
0.999978
0.999978
0.999984
0.99999
0.999994
0.999997
0.999999
0.999999
1
1
1
1
1
3.22597e-06
3.48804e-06
3.91672e-06
4.18263e-06
5.40699e-06
6.27824e-06
7.18061e-06
8.34751e-06
8.98053e-06
9.42038e-06
9.69669e-06
9.86771e-06
9.94399e-06
9.97303e-06
9.9836e-06
9.99127e-06
9.99324e-06
9.99352e-06
9.99328e-06
9.99337e-06
9.9932e-06
9.99261e-06
9.99186e-06
9.99129e-06
9.99059e-06
9.98987e-06
9.98914e-06
9.98854e-06
9.988e-06
9.9875e-06
9.98694e-06
9.98628e-06
9.98543e-06
9.98444e-06
9.98346e-06
9.98253e-06
9.98196e-06
9.98219e-06
9.98278e-06
9.98399e-06
9.99276e-06
1.01828e-05
1.12914e-05
1.48429e-05
2.23407e-05
3.07058e-05
3.81943e-05
4.46457e-05
4.90969e-05
8.76059e-05
0.000116721
0.000119959
0.000119526
0.000119123
0.000118849
0.000118242
0.000116249
0.000119757
0.00010723
0.152996
0.965081
0.99633
0.996452
0.997297
0.996955
0.996601
0.995972
0.995422
0.994708
0.994041
0.993391
0.992904
0.992429
0.992106
0.991877
0.991748
0.991729
0.992193
0.992828
0.993787
0.994824
0.995874
0.996888
0.997861
0.998666
0.999192
0.99949
0.999552
0.999662
0.999738
0.999813
0.999875
0.999942
1
1
0.999982
3.05772e-06
3.45418e-06
3.82413e-06
4.02091e-06
5.15756e-06
6.06015e-06
6.92944e-06
8.10569e-06
8.86971e-06
9.36894e-06
9.67208e-06
9.85738e-06
9.94106e-06
9.97192e-06
9.9813e-06
9.99059e-06
9.99288e-06
9.99332e-06
9.99312e-06
9.9932e-06
9.99313e-06
9.99327e-06
9.99334e-06
9.99332e-06
9.9933e-06
9.99318e-06
9.99298e-06
9.99275e-06
9.99255e-06
9.99222e-06
9.99174e-06
9.99116e-06
9.99044e-06
9.98964e-06
9.98892e-06
9.98819e-06
9.9877e-06
9.98737e-06
9.98741e-06
9.98843e-06
1.00486e-05
1.06165e-05
1.30569e-05
1.89318e-05
2.62286e-05
3.28413e-05
4.02937e-05
4.86495e-05
5.44439e-05
9.63582e-05
0.000120511
0.0001213
0.000120431
0.000119212
0.000118651
0.000119102
0.000115784
0.000123464
0.00010723
0.302758
0.972429
0.982388
0.981775
0.981626
0.980845
0.980325
0.979596
0.978966
0.977968
0.977027
0.976147
0.975585
0.975157
0.974854
0.9747
0.974621
0.974598
0.974564
0.97457
0.974354
0.974057
0.973777
0.973624
0.973543
0.973398
0.973093
0.972715
0.972241
0.971729
0.97114
0.970396
0.969384
0.968417
0.967677
0.968963
0.973772
2.74778e-06
3.36987e-06
3.72495e-06
3.96643e-06
4.9892e-06
5.97971e-06
7.22351e-06
7.93359e-06
8.74069e-06
9.30476e-06
9.63778e-06
9.83981e-06
9.93132e-06
9.96472e-06
9.97351e-06
9.98406e-06
9.9866e-06
9.98748e-06
9.98724e-06
9.98731e-06
9.98741e-06
9.98788e-06
9.98811e-06
9.98823e-06
9.9883e-06
9.98829e-06
9.98813e-06
9.98793e-06
9.98771e-06
9.98739e-06
9.98693e-06
9.98634e-06
9.98558e-06
9.98469e-06
9.98383e-06
9.98317e-06
9.98289e-06
9.98289e-06
9.98289e-06
9.98474e-06
1.01315e-05
1.10594e-05
1.43322e-05
2.03779e-05
2.67998e-05
3.34654e-05
4.13019e-05
5.10609e-05
5.60478e-05
8.39512e-05
0.000116596
0.000121817
0.000120555
0.000118204
0.000117747
0.000118409
0.000115432
0.000118277
0.00010723
0.266256
0.976883
0.986154
0.986016
0.986101
0.986367
0.986469
0.986679
0.986798
0.987177
0.987551
0.987951
0.988066
0.987777
0.987399
0.986894
0.986122
0.984977
0.98382
0.98267
0.981409
0.980342
0.979608
0.978875
0.978174
0.977606
0.977165
0.97689
0.976813
0.976832
0.977508
0.978224
0.979555
0.981668
0.985017
0.989718
0.993738
2.43019e-06
2.97587e-06
3.38317e-06
3.75151e-06
4.83931e-06
5.98669e-06
7.43356e-06
7.92708e-06
8.68393e-06
9.30585e-06
9.63071e-06
9.82482e-06
9.92264e-06
9.9651e-06
9.97725e-06
9.98917e-06
9.99236e-06
9.99339e-06
9.99286e-06
9.99275e-06
9.99261e-06
9.99276e-06
9.99271e-06
9.99253e-06
9.99226e-06
9.99191e-06
9.99146e-06
9.991e-06
9.99051e-06
9.98994e-06
9.98927e-06
9.98845e-06
9.98743e-06
9.98621e-06
9.98495e-06
9.98406e-06
9.98379e-06
9.9838e-06
9.98397e-06
9.98821e-06
1.01306e-05
1.09901e-05
1.39642e-05
1.92874e-05
2.53103e-05
3.26668e-05
4.15596e-05
5.2801e-05
5.90156e-05
6.95906e-05
0.000105208
0.000120166
0.000120285
0.00011941
0.000119226
0.000118755
0.00011515
0.000116732
0.00010723
0.240437
0.988513
0.996123
0.99683
0.997739
0.998335
0.998725
0.998961
0.999174
0.99929
0.999328
0.999248
0.99908
0.998917
0.998717
0.998489
0.998202
0.997853
0.997497
0.997165
0.996851
0.996532
0.996182
0.995872
0.995633
0.995426
0.99525
0.99507
0.995063
0.995226
0.995447
0.9959
0.996732
0.99761
0.998565
0.999302
0.999656
2.13764e-06
2.58281e-06
2.94468e-06
3.36961e-06
4.5136e-06
5.79863e-06
7.33416e-06
8.23206e-06
8.71622e-06
9.31679e-06
9.64364e-06
9.81449e-06
9.90258e-06
9.95392e-06
9.97019e-06
9.98388e-06
9.98732e-06
9.98899e-06
9.98905e-06
9.98946e-06
9.98979e-06
9.99022e-06
9.99051e-06
9.99064e-06
9.9907e-06
9.99063e-06
9.99042e-06
9.9901e-06
9.98971e-06
9.98931e-06
9.98876e-06
9.98797e-06
9.98706e-06
9.98604e-06
9.98513e-06
9.98457e-06
9.98437e-06
9.98432e-06
9.98442e-06
9.98597e-06
1.00698e-05
1.06287e-05
1.27176e-05
1.6323e-05
2.15882e-05
3.06452e-05
4.18149e-05
5.54347e-05
6.50293e-05
6.54235e-05
8.8577e-05
0.000114295
0.000119368
0.000119265
0.00012039
0.000120934
0.000114721
0.000116575
0.00010723
0.160784
0.992823
0.999808
0.999901
0.999972
0.999991
0.999998
0.999998
0.999999
0.999999
0.999999
0.999999
0.999999
0.999999
0.999999
0.999991
0.999979
0.999966
0.999947
0.99993
0.999918
0.999912
0.999911
0.999913
0.999908
0.999905
0.999901
0.9999
0.999906
0.999909
0.999915
0.999927
0.999947
0.999967
0.999985
0.999994
0.999997
1.9383e-06
2.21237e-06
2.41483e-06
2.734e-06
3.79241e-06
5.17426e-06
7.00169e-06
8.27294e-06
8.82828e-06
9.36322e-06
9.69178e-06
9.82968e-06
9.88792e-06
9.92974e-06
9.95209e-06
9.97504e-06
9.98655e-06
9.98973e-06
9.98972e-06
9.99011e-06
9.99042e-06
9.99082e-06
9.9911e-06
9.99127e-06
9.99135e-06
9.99136e-06
9.99119e-06
9.99093e-06
9.99059e-06
9.99048e-06
9.99042e-06
9.98999e-06
9.98943e-06
9.98883e-06
9.98846e-06
9.98818e-06
9.98783e-06
9.98729e-06
9.98674e-06
9.98649e-06
1.0013e-05
1.03261e-05
1.16548e-05
1.41855e-05
1.96426e-05
3.00211e-05
4.33592e-05
5.87089e-05
7.12058e-05
7.03769e-05
7.79716e-05
0.000103789
0.000117099
0.000119727
0.000119113
0.000123845
0.000114496
0.000131345
0.00011436
0.10118
0.99716
0.999999
0.999999
0.999999
0.999999
0.999999
0.999999
0.999999
0.999999
0.999999
0.999999
0.999999
0.999999
0.999999
0.999999
0.999999
0.999999
0.999999
0.999999
0.999999
0.999999
0.999999
0.999999
0.999999
1
1
1
1
1
1
1
1
1
1
1
1
1.78001e-06
1.9967e-06
2.05423e-06
2.21806e-06
2.89151e-06
4.09299e-06
6.06147e-06
7.95466e-06
9.04536e-06
9.44482e-06
9.74062e-06
9.8603e-06
9.9072e-06
9.93146e-06
9.95211e-06
9.98124e-06
9.9922e-06
9.99525e-06
9.9945e-06
9.99435e-06
9.99437e-06
9.99455e-06
9.9947e-06
9.99472e-06
9.99467e-06
9.99448e-06
9.99413e-06
9.99371e-06
9.99327e-06
9.99288e-06
9.99251e-06
9.99178e-06
9.99097e-06
9.99028e-06
9.98983e-06
9.98936e-06
9.98881e-06
9.98819e-06
9.98772e-06
9.98819e-06
1.00024e-05
1.01797e-05
1.11359e-05
1.40085e-05
2.0554e-05
3.07147e-05
4.37415e-05
5.96323e-05
7.40232e-05
7.83281e-05
8.00694e-05
9.53024e-05
0.000112816
0.000120334
0.000121189
0.000125296
0.00011459
0.000135081
0.000270653
0.0549935
0.979547
0.999999
0.999999
0.999999
0.999999
0.999999
0.999999
0.999999
0.999999
0.999999
0.999999
0.999999
0.999999
0.999999
0.999999
0.999999
0.999999
0.999999
0.999999
0.999999
0.999999
0.999999
0.999999
0.999999
0.999999
0.999999
0.999999
0.999999
0.999999
0.999999
1
1
1
1
1
1
1.73367e-06
1.94421e-06
1.93022e-06
2.02532e-06
2.29181e-06
3.14955e-06
4.87564e-06
7.2895e-06
9.12356e-06
9.57619e-06
9.78445e-06
9.86321e-06
9.90165e-06
9.92515e-06
9.94737e-06
9.9809e-06
9.99902e-06
9.99902e-06
9.99902e-06
9.99902e-06
9.99893e-06
9.99893e-06
9.99893e-06
9.99878e-06
9.99845e-06
9.99795e-06
9.99731e-06
9.99668e-06
9.9961e-06
9.99549e-06
9.99472e-06
9.99366e-06
9.99247e-06
9.99161e-06
9.99105e-06
9.99058e-06
9.99015e-06
9.98984e-06
9.99001e-06
9.99236e-06
1.00039e-05
1.01037e-05
1.07739e-05
1.36927e-05
2.0961e-05
3.15802e-05
4.36602e-05
5.91798e-05
7.75166e-05
8.417e-05
8.53089e-05
9.44772e-05
0.000110429
0.000121151
0.000120761
0.000121992
0.000118846
0.000127805
0.000478024
0.0412241
0.969113
0.999999
0.999999
0.999999
0.999999
0.999999
0.999999
0.999999
0.999999
0.999999
0.999999
0.999999
0.999999
0.999999
0.999999
0.999999
0.999999
0.999999
0.999999
0.999999
0.999999
0.999999
0.999999
0.999999
0.999999
0.999999
0.999999
0.999999
0.999999
0.999999
0.999999
1
1
1
1
1
1.79829e-06
2.21495e-06
2.26218e-06
2.29076e-06
2.21736e-06
2.81863e-06
3.94898e-06
6.31391e-06
8.90529e-06
9.6458e-06
9.79667e-06
9.85259e-06
9.88137e-06
9.90907e-06
9.93537e-06
9.97488e-06
9.99633e-06
9.99774e-06
9.99758e-06
9.99747e-06
9.9974e-06
9.99735e-06
9.99727e-06
9.99703e-06
9.99665e-06
9.99613e-06
9.99553e-06
9.99496e-06
9.99446e-06
9.99393e-06
9.99321e-06
9.99222e-06
9.99125e-06
9.9905e-06
9.98999e-06
9.98964e-06
9.98938e-06
9.98928e-06
9.98959e-06
9.99219e-06
1.00025e-05
1.00529e-05
1.0432e-05
1.27385e-05
1.96399e-05
3.05555e-05
4.39388e-05
6.40917e-05
8.48484e-05
9.02484e-05
9.05097e-05
9.56065e-05
0.000107413
0.000120244
0.000121746
0.000123857
0.000122753
0.000132598
0.000552415
0.0518688
0.971786
0.999982
0.999999
0.999999
0.999999
0.999999
0.999999
0.999999
0.999999
0.999999
0.999999
0.999999
0.999999
0.999999
0.999999
0.999999
0.999999
0.999999
0.999999
0.999999
0.999999
0.999999
0.999999
0.999999
0.999999
0.999999
0.999999
0.999999
0.999999
0.999999
0.999999
0.999999
1
1
1
1
1.39196e-06
1.73951e-06
2.1917e-06
2.69712e-06
2.91009e-06
3.17584e-06
3.98105e-06
6.0287e-06
8.69695e-06
9.6318e-06
9.77682e-06
9.81869e-06
9.85069e-06
9.8881e-06
9.92633e-06
9.98145e-06
1.00043e-05
1.00043e-05
1.00043e-05
1.00043e-05
1.00043e-05
1.00043e-05
1.00042e-05
1.0004e-05
1.00036e-05
1.00031e-05
1.00025e-05
1.0002e-05
1.00016e-05
1.00011e-05
1.00004e-05
9.99947e-06
9.99852e-06
9.99778e-06
9.99723e-06
9.99686e-06
9.99663e-06
9.99658e-06
9.99702e-06
9.9995e-06
1.00087e-05
1.00459e-05
1.02377e-05
1.1692e-05
1.80297e-05
3.06795e-05
4.7288e-05
6.99239e-05
9.14338e-05
0.000102378
0.000101755
0.000103918
0.000111245
0.000121359
0.000125795
0.000128789
0.000126439
0.000129033
0.000906514
0.0477233
0.961122
0.999758
0.999999
0.999999
0.999999
0.999999
0.999999
0.999999
0.999999
0.999999
0.999999
0.999999
0.999999
0.999999
0.999999
0.999999
0.999999
0.999999
0.999999
0.999999
0.999999
0.999999
0.999999
0.999999
0.999999
0.999999
0.999999
0.999999
0.999999
0.999999
0.999999
0.999999
0.999999
1
1
1
3.28799e-06
4.34932e-06
5.0583e-06
5.52959e-06
5.97879e-06
6.92427e-06
8.05096e-06
8.98357e-06
9.6154e-06
9.84198e-06
9.90349e-06
9.9418e-06
9.97133e-06
9.99017e-06
1.00019e-05
1.00089e-05
1.00089e-05
1.00089e-05
1.00089e-05
1.00089e-05
1.00083e-05
1.00075e-05
1.00067e-05
1.0006e-05
1.00056e-05
1.00056e-05
1.00056e-05
1.00056e-05
1.00056e-05
1.00056e-05
1.00055e-05
1.00052e-05
1.00048e-05
1.00043e-05
1.00037e-05
1.00033e-05
1.00028e-05
1.00023e-05
1.00017e-05
1.00012e-05
1.00015e-05
1.00044e-05
1.00235e-05
1.00785e-05
1.02207e-05
1.16631e-05
2.00486e-05
3.61492e-05
4.94775e-05
6.54877e-05
8.32948e-05
9.64499e-05
0.000102016
0.00010486
0.000107015
0.000109495
0.000111075
0.000121556
0.000359033
0.0271398
0.938732
0.999664
0.999999
0.999999
1
1
1
1
1
1
1
1
1
1
0.999999
0.999999
0.999999
0.999999
0.999999
0.999999
0.999999
0.999999
0.999999
0.999999
0.999999
0.999999
0.999999
1
1
1
1
1
1
1
1
1
2.59088e-06
3.79188e-06
5.46397e-06
6.01911e-06
6.66575e-06
7.47906e-06
8.38814e-06
9.01041e-06
9.39607e-06
9.60563e-06
9.75734e-06
9.86825e-06
9.93799e-06
9.97112e-06
9.9865e-06
1.00008e-05
1.00051e-05
1.00058e-05
1.00056e-05
1.00056e-05
1.00055e-05
1.00058e-05
1.00058e-05
1.00056e-05
1.0005e-05
1.00043e-05
1.00036e-05
1.00031e-05
1.00027e-05
1.00023e-05
1.00018e-05
1.00011e-05
1.00001e-05
9.99903e-06
9.99786e-06
9.99678e-06
9.99568e-06
9.99461e-06
9.99376e-06
9.99371e-06
9.99966e-06
1.00458e-05
1.03356e-05
1.09177e-05
1.12076e-05
1.20584e-05
1.7889e-05
2.96326e-05
4.5177e-05
6.73374e-05
9.5842e-05
0.000116114
0.000122335
0.000121531
0.000122699
0.000123465
0.000120525
0.000135
0.000253397
0.039106
0.960091
0.999953
1
0.999999
1
1
1
1
1
0.999999
0.999999
0.999999
0.999999
0.999999
0.999999
0.999999
0.999999
0.999999
0.999999
0.999999
0.999999
0.999999
0.999999
0.999999
0.999999
0.999999
0.999999
0.999999
1
1
1
1
1
1
1
1
2.36812e-06
3.05532e-06
4.98128e-06
5.8525e-06
6.64777e-06
7.28598e-06
8.04404e-06
8.67713e-06
9.14141e-06
9.45122e-06
9.67378e-06
9.83254e-06
9.92472e-06
9.96534e-06
9.98073e-06
9.99725e-06
1.00019e-05
1.00026e-05
1.00025e-05
1.00025e-05
1.00024e-05
1.00024e-05
1.00021e-05
1.00016e-05
1.00011e-05
1.00006e-05
1.00001e-05
9.99958e-06
9.99913e-06
9.9987e-06
9.99817e-06
9.99737e-06
9.99633e-06
9.99514e-06
9.99401e-06
9.99296e-06
9.99191e-06
9.99093e-06
9.99033e-06
9.99114e-06
1.00069e-05
1.01616e-05
1.08902e-05
1.25916e-05
1.47946e-05
1.60623e-05
1.43804e-05
2.05552e-05
3.40049e-05
6.6089e-05
0.00011034
0.000128334
0.000132583
0.000132945
0.000132906
0.000132585
0.000127451
0.000146278
0.000238884
0.0339522
0.963279
1
0.999999
0.999999
1
1
0.999999
0.999999
0.999999
0.999999
0.999999
0.999999
0.999999
0.999999
0.999999
0.999999
0.999999
0.999999
0.999999
0.999999
0.999999
0.999999
0.999999
0.999999
0.999999
0.999999
0.999999
0.999999
1
1
1
1
1
1
1
1
2.28492e-06
2.48801e-06
4.19641e-06
5.16208e-06
6.04421e-06
6.80762e-06
7.6488e-06
8.39377e-06
8.97976e-06
9.37914e-06
9.63971e-06
9.81846e-06
9.91923e-06
9.96256e-06
9.977e-06
9.9946e-06
9.99924e-06
9.99973e-06
9.99945e-06
9.99932e-06
9.99908e-06
9.99892e-06
9.99865e-06
9.99817e-06
9.99764e-06
9.99714e-06
9.99668e-06
9.99625e-06
9.99586e-06
9.99548e-06
9.99499e-06
9.99423e-06
9.99325e-06
9.99218e-06
9.99118e-06
9.99025e-06
9.98941e-06
9.98872e-06
9.98844e-06
9.99031e-06
1.00174e-05
1.02612e-05
1.12471e-05
1.33686e-05
1.67591e-05
2.20949e-05
2.11873e-05
2.15582e-05
2.64544e-05
8.25631e-05
0.000124
0.000130024
0.000124347
0.000122674
0.000123805
0.000129516
0.000127287
0.000143296
0.000181337
0.0477864
0.968332
1
0.999999
0.999999
0.999998
0.999999
0.999999
0.999999
0.999999
0.999999
0.999999
0.999999
0.999999
0.999999
0.999999
0.999999
0.999999
0.999999
0.999999
0.999999
1
1
1
1
0.999999
1
1
1
1
1
1
1
1
1
1
1
2.21196e-06
2.13482e-06
3.5044e-06
4.57908e-06
5.59647e-06
6.43271e-06
7.35269e-06
8.18415e-06
8.86543e-06
9.33768e-06
9.62256e-06
9.81227e-06
9.917e-06
9.96143e-06
9.97525e-06
9.99334e-06
9.99794e-06
9.99832e-06
9.99801e-06
9.99782e-06
9.99755e-06
9.99732e-06
9.99706e-06
9.99657e-06
9.99603e-06
9.99553e-06
9.99511e-06
9.99471e-06
9.99436e-06
9.99402e-06
9.99358e-06
9.99287e-06
9.99198e-06
9.99103e-06
9.99012e-06
9.98935e-06
9.98872e-06
9.98834e-06
9.98841e-06
9.99171e-06
1.00228e-05
1.02934e-05
1.13822e-05
1.38107e-05
1.77372e-05
2.36274e-05
2.87275e-05
3.1395e-05
3.60863e-05
0.000105721
0.000127313
0.000120439
0.000116981
0.000115607
0.000115598
0.000127149
0.000124284
0.000141855
0.000107423
0.109183
0.995285
0.999919
0.999928
0.999943
0.999943
0.999942
0.999941
0.999942
0.999941
0.999937
0.999933
0.999929
0.999927
0.999929
0.999931
0.999934
0.999941
0.999952
0.999965
0.999979
0.999989
0.999994
0.999997
0.999998
0.999999
0.999999
0.999999
0.999999
0.999999
1
1
1
1
1
1
1
2.15461e-06
1.90083e-06
2.90249e-06
3.98736e-06
5.16477e-06
6.12263e-06
7.14338e-06
8.03419e-06
8.78442e-06
9.31332e-06
9.61505e-06
9.81029e-06
9.91628e-06
9.96083e-06
9.97416e-06
9.99247e-06
9.99688e-06
9.99716e-06
9.9968e-06
9.99656e-06
9.99627e-06
9.99599e-06
9.99574e-06
9.99524e-06
9.99472e-06
9.99425e-06
9.99386e-06
9.99355e-06
9.9933e-06
9.99307e-06
9.99272e-06
9.99212e-06
9.99136e-06
9.99054e-06
9.98974e-06
9.98911e-06
9.98862e-06
9.98846e-06
9.98907e-06
9.9924e-06
1.00216e-05
1.02754e-05
1.14074e-05
1.39941e-05
1.83946e-05
2.49055e-05
3.41077e-05
3.85658e-05
5.03408e-05
0.000120523
0.000119969
0.00011821
0.000118832
0.00012025
0.000121557
0.000122523
0.000121917
0.000125128
0.000107534
0.166952
0.990406
0.997581
0.99768
0.997758
0.997758
0.997628
0.997508
0.997345
0.997175
0.997004
0.996852
0.996782
0.996773
0.996829
0.996881
0.996904
0.996998
0.997157
0.997349
0.997738
0.998136
0.998478
0.998765
0.998987
0.999174
0.999352
0.999531
0.999676
0.999791
0.999883
0.999949
0.999981
0.999993
0.999999
1
1
2.11564e-06
1.73365e-06
2.45304e-06
3.40418e-06
4.76022e-06
5.85444e-06
6.99704e-06
7.93657e-06
8.73284e-06
9.29967e-06
9.61203e-06
9.80973e-06
9.91685e-06
9.96065e-06
9.97375e-06
9.99212e-06
9.99639e-06
9.99661e-06
9.99628e-06
9.99605e-06
9.99581e-06
9.99553e-06
9.99529e-06
9.99483e-06
9.99434e-06
9.9939e-06
9.99355e-06
9.9933e-06
9.99311e-06
9.99291e-06
9.99263e-06
9.99207e-06
9.99139e-06
9.99062e-06
9.98988e-06
9.98932e-06
9.98902e-06
9.989e-06
9.98966e-06
9.99248e-06
1.00148e-05
1.02272e-05
1.13251e-05
1.39141e-05
1.85341e-05
2.62692e-05
3.85971e-05
4.68255e-05
7.36085e-05
0.000125984
0.000120692
0.000120459
0.000121775
0.000123077
0.00012383
0.000123531
0.000121129
0.000121753
0.00010723
0.340377
0.980257
0.987045
0.98711
0.987082
0.987204
0.986936
0.986309
0.985631
0.984661
0.983783
0.983025
0.982529
0.982192
0.982034
0.981953
0.982125
0.98247
0.982907
0.983448
0.984157
0.98507
0.986048
0.987029
0.987781
0.988375
0.988963
0.989606
0.990306
0.991135
0.992201
0.993401
0.994671
0.996249
0.998319
0.999492
0.999532
2.06861e-06
1.628e-06
2.10562e-06
2.80926e-06
4.20775e-06
5.56339e-06
6.86688e-06
7.86576e-06
8.70016e-06
9.29284e-06
9.61131e-06
9.81284e-06
9.92e-06
9.96163e-06
9.9736e-06
9.99186e-06
9.99599e-06
9.99628e-06
9.9961e-06
9.99599e-06
9.99589e-06
9.99596e-06
9.99592e-06
9.99562e-06
9.99524e-06
9.99489e-06
9.99454e-06
9.99422e-06
9.99397e-06
9.9937e-06
9.99335e-06
9.99272e-06
9.99183e-06
9.99085e-06
9.99013e-06
9.98956e-06
9.98931e-06
9.98932e-06
9.98996e-06
9.99202e-06
1.00084e-05
1.01419e-05
1.09433e-05
1.36082e-05
1.87299e-05
2.71018e-05
4.1071e-05
5.60508e-05
8.61772e-05
0.000129176
0.000128471
0.000132107
0.000135331
0.000137236
0.000137837
0.000137914
0.000134649
0.000161582
0.00010723
0.514125
0.970568
0.974433
0.974551
0.974512
0.974661
0.97463
0.974628
0.97458
0.974602
0.974942
0.975296
0.975486
0.975612
0.975646
0.975668
0.975728
0.97569
0.975625
0.975373
0.97517
0.975187
0.975539
0.97591
0.976321
0.97641
0.975439
0.973615
0.971709
0.969689
0.967097
0.962508
0.955152
0.943635
0.922795
0.870554
0.666396
1.95499e-06
1.56609e-06
1.84003e-06
2.26057e-06
3.51167e-06
5.07081e-06
6.6718e-06
7.8002e-06
8.67696e-06
9.29154e-06
9.61805e-06
9.81806e-06
9.92481e-06
9.96376e-06
9.97548e-06
9.99384e-06
9.99778e-06
9.9978e-06
9.99757e-06
9.99739e-06
9.99724e-06
9.99712e-06
9.99711e-06
9.99684e-06
9.99649e-06
9.99615e-06
9.99583e-06
9.99555e-06
9.99535e-06
9.99511e-06
9.99479e-06
9.99417e-06
9.9933e-06
9.99242e-06
9.99167e-06
9.9911e-06
9.9908e-06
9.99071e-06
9.99127e-06
9.99317e-06
1.00069e-05
1.00899e-05
1.07111e-05
1.36168e-05
1.92772e-05
2.81656e-05
4.27709e-05
6.0551e-05
7.91479e-05
0.000129779
0.000133463
0.000132901
0.000131835
0.000125252
0.000122564
0.00013149
0.000130569
0.000161391
0.000139803
0.338216
0.9789
0.98716
0.988011
0.989149
0.99001
0.990769
0.99157
0.992226
0.992809
0.99322
0.993356
0.993272
0.993186
0.992946
0.992591
0.991969
0.991183
0.990193
0.988966
0.987724
0.986553
0.985483
0.984609
0.984192
0.983913
0.983147
0.982352
0.981124
0.979483
0.977143
0.974265
0.970436
0.965579
0.96038
0.956343
0.958115
1.81644e-06
1.50855e-06
1.62605e-06
1.86151e-06
2.79693e-06
4.44456e-06
6.4178e-06
7.71901e-06
8.66224e-06
9.29392e-06
9.62285e-06
9.82557e-06
9.93131e-06
9.96556e-06
9.9767e-06
9.99541e-06
9.99941e-06
9.99944e-06
9.99931e-06
9.99919e-06
9.9991e-06
9.99906e-06
9.99906e-06
9.99878e-06
9.99841e-06
9.99805e-06
9.99769e-06
9.99736e-06
9.99709e-06
9.9968e-06
9.99643e-06
9.99574e-06
9.99475e-06
9.9937e-06
9.99274e-06
9.99199e-06
9.99151e-06
9.99134e-06
9.99173e-06
9.99337e-06
1.00039e-05
1.0079e-05
1.07081e-05
1.38638e-05
2.03142e-05
2.97139e-05
4.44191e-05
6.32569e-05
7.61876e-05
0.000113922
0.000132985
0.000133001
0.000132942
0.000131855
0.000130828
0.000133458
0.000122107
0.000157313
0.00018565
0.187423
0.989255
0.997661
0.998218
0.998914
0.999235
0.999485
0.999611
0.999676
0.999645
0.9996
0.999543
0.999472
0.999384
0.999278
0.999146
0.998976
0.998783
0.998581
0.998347
0.998141
0.997998
0.99793
0.997928
0.997958
0.997925
0.997832
0.997644
0.997357
0.997066
0.996719
0.996381
0.996068
0.995892
0.996626
0.998122
0.999024
1.69039e-06
1.45193e-06
1.47367e-06
1.56803e-06
2.29842e-06
3.79913e-06
5.99715e-06
7.55785e-06
8.63931e-06
9.28752e-06
9.62616e-06
9.83323e-06
9.93636e-06
9.96577e-06
9.97581e-06
9.99556e-06
9.99966e-06
9.99964e-06
9.99966e-06
9.99964e-06
9.99965e-06
9.99964e-06
9.99964e-06
9.99939e-06
9.99906e-06
9.99872e-06
9.99837e-06
9.99806e-06
9.99779e-06
9.99755e-06
9.99717e-06
9.99647e-06
9.99549e-06
9.99444e-06
9.99348e-06
9.99272e-06
9.99217e-06
9.99193e-06
9.99208e-06
9.99336e-06
1.00035e-05
1.00779e-05
1.07587e-05
1.41924e-05
2.13373e-05
3.13962e-05
4.70342e-05
6.56986e-05
7.95729e-05
8.46945e-05
0.00012143
0.000132107
0.000132159
0.0001316
0.000134631
0.000137326
0.000125208
0.000151254
0.000217319
0.113877
0.995764
0.999879
0.999921
0.999967
0.99998
0.999991
0.999994
0.999995
0.999994
0.999992
0.99999
0.999986
0.999982
0.999975
0.999967
0.999959
0.999951
0.999945
0.999935
0.999926
0.999924
0.999935
0.999947
0.999953
0.999956
0.99996
0.999963
0.999964
0.999964
0.999963
0.999963
0.999959
0.999958
0.999974
0.99999
0.999996
1.60188e-06
1.39785e-06
1.37503e-06
1.37824e-06
1.92727e-06
3.23756e-06
5.44552e-06
7.36801e-06
8.63411e-06
9.28823e-06
9.63955e-06
9.84573e-06
9.94206e-06
9.96372e-06
9.97331e-06
9.99164e-06
9.99964e-06
9.99965e-06
9.99964e-06
9.99965e-06
9.99964e-06
9.99964e-06
9.99952e-06
9.99925e-06
9.99896e-06
9.99865e-06
9.99833e-06
9.99802e-06
9.99774e-06
9.9975e-06
9.99703e-06
9.99626e-06
9.99517e-06
9.99395e-06
9.9929e-06
9.99232e-06
9.992e-06
9.99188e-06
9.99209e-06
9.99374e-06
1.00046e-05
1.00861e-05
1.08332e-05
1.46904e-05
2.31456e-05
3.38902e-05
4.93946e-05
6.72438e-05
8.15598e-05
8.85342e-05
0.000100142
0.000123122
0.000129266
0.000129284
0.000129907
0.000130634
0.000115591
0.000187188
0.000301015
0.0871445
0.998219
0.999999
0.999998
0.999999
0.999999
0.999999
0.999999
0.999999
0.999999
0.999999
0.999999
0.999999
0.999999
0.999999
0.999999
0.999999
0.999999
0.999999
0.999999
0.999999
0.999999
0.999999
0.999999
0.999999
0.999999
0.999999
0.999999
1
0.999999
0.999999
0.999999
1
1
0.999999
1
1
1.56073e-06
1.41964e-06
1.33987e-06
1.2964e-06
1.44328e-06
2.21615e-06
4.16703e-06
6.78724e-06
8.68056e-06
9.34321e-06
9.65643e-06
9.85385e-06
9.94397e-06
9.95618e-06
9.96637e-06
9.99021e-06
9.99783e-06
9.99949e-06
9.9994e-06
9.99965e-06
9.99964e-06
9.99953e-06
9.99948e-06
9.99929e-06
9.99904e-06
9.99874e-06
9.99843e-06
9.99811e-06
9.99773e-06
9.99714e-06
9.99637e-06
9.99538e-06
9.99415e-06
9.99284e-06
9.99155e-06
9.99077e-06
9.99043e-06
9.99043e-06
9.99118e-06
9.99344e-06
1.00051e-05
1.00882e-05
1.078e-05
1.50584e-05
2.48767e-05
3.7405e-05
5.1806e-05
6.82449e-05
8.36136e-05
9.24699e-05
9.52219e-05
0.000108018
0.000118948
0.000126393
0.000126319
0.000128244
0.000109557
0.000228924
0.000391281
0.047448
0.993725
0.999999
0.999999
0.999999
0.999999
0.999999
0.999999
0.999999
0.999999
0.999999
0.999999
0.999999
0.999999
0.999999
0.999999
0.999999
0.999999
0.999999
0.999999
0.999999
0.999999
0.999999
0.999999
0.999999
0.999999
0.999999
0.999999
0.999999
0.999999
0.999999
1
1
1
1
1
1
1.63186e-06
1.7345e-06
1.52421e-06
1.43426e-06
1.20538e-06
1.36926e-06
2.25003e-06
4.97429e-06
8.42646e-06
9.47426e-06
9.71502e-06
9.86489e-06
9.92618e-06
9.92969e-06
9.94642e-06
9.98235e-06
9.99526e-06
9.99636e-06
9.99646e-06
9.99661e-06
9.99671e-06
9.99667e-06
9.99655e-06
9.99631e-06
9.99588e-06
9.99529e-06
9.99459e-06
9.99387e-06
9.99318e-06
9.99239e-06
9.99145e-06
9.99011e-06
9.98868e-06
9.98729e-06
9.98621e-06
9.98572e-06