/*--------------------------------*- C++ -*----------------------------------*\
| =========                 |                                                 |
| \\      /  F ield         | OpenFOAM: The Open Source CFD Toolbox           |
|  \\    /   O peration     | Version:  2.3.0                                 |
|   \\  /    A nd           | Web:      www.OpenFOAM.org                      |
|    \\/     M anipulation  |                                                 |
\*---------------------------------------------------------------------------*/
FoamFile
{
    version     2.0;
    format      ascii;
    class       volScalarField;
    location    "49";
    object      rho;
}
// * * * * * * * * * * * * * * * * * * * * * * * * * * * * * * * * * * * * * //

dimensions      [1 -3 0 0 0 0 0];

internalField   nonuniform List<scalar> 
6144
(
1.16268
1.16333
1.16379
1.16422
1.16467
1.16555
1.16664
1.16764
1.16842
1.16879
1.16887
1.16888
1.16888
1.16889
1.16889
1.1689
1.1689
1.1689
1.1689
1.1689
1.1689
1.16891
1.16891
1.16891
1.16891
1.16891
1.16891
1.16891
1.16891
1.16891
1.16892
1.16892
1.16892
1.16892
1.16892
1.16892
1.16892
1.16892
1.16892
1.16892
1.16893
1.16893
1.16893
1.16897
1.16921
1.171
1.17978
1.19509
1.2106
1.23074
1.25126
1.2651
1.27022
1.27546
1.27727
1.27904
1.27983
1.28385
2.02388
56.1447
953.978
1026.35
1027.09
1027.1
1027.1
1027.1
1027.1
1027.1
1027.1
1027.1
1027.1
1027.1
1027.1
1027.1
1027.1
1027.1
1027.1
1027.1
1027.1
1027.1
1027.1
1027.1
1027.1
1027.1
1027.1
1027.1
1027.1
1027.1
1027.1
1027.1
1027.1
1027.1
1027.1
1027.1
1027.1
1027.1
1.16236
1.1631
1.164
1.16445
1.16509
1.16588
1.16679
1.16769
1.16844
1.16878
1.16886
1.16887
1.16888
1.16889
1.1689
1.1689
1.16891
1.16891
1.16891
1.16891
1.16891
1.16891
1.16891
1.16892
1.16892
1.16892
1.16892
1.16892
1.16892
1.16892
1.16892
1.16893
1.16893
1.16893
1.16893
1.16893
1.16893
1.16893
1.16893
1.16893
1.16893
1.16894
1.16895
1.169
1.16918
1.17043
1.17584
1.18761
1.20713
1.2333
1.261
1.27829
1.28328
1.28582
1.28667
1.28849
1.28902
1.29257
1.55763
30.8032
942.098
1026.42
1027.09
1027.1
1027.1
1027.1
1027.1
1027.1
1027.1
1027.1
1027.1
1027.1
1027.1
1027.1
1027.1
1027.1
1027.1
1027.1
1027.1
1027.1
1027.1
1027.1
1027.1
1027.1
1027.1
1027.1
1027.1
1027.1
1027.1
1027.1
1027.1
1027.1
1027.1
1027.1
1027.1
1027.1
1.16222
1.16278
1.1638
1.1644
1.16528
1.16607
1.16692
1.16774
1.1683
1.16862
1.16876
1.16883
1.16886
1.16888
1.16889
1.1689
1.1689
1.16891
1.16891
1.16891
1.16891
1.16891
1.16891
1.16892
1.16892
1.16892
1.16892
1.16892
1.16892
1.16892
1.16892
1.16893
1.16893
1.16893
1.16893
1.16893
1.16893
1.16893
1.16893
1.16893
1.16893
1.16895
1.16902
1.16929
1.16969
1.17044
1.17308
1.18095
1.19789
1.22759
1.26275
1.28097
1.28432
1.28462
1.28326
1.28396
1.28493
1.28942
1.41075
18.5273
938.843
1026.41
1027.09
1027.1
1027.1
1027.1
1027.1
1027.1
1027.1
1027.1
1027.1
1027.1
1027.1
1027.1
1027.1
1027.1
1027.1
1027.1
1027.1
1027.1
1027.1
1027.1
1027.1
1027.1
1027.1
1027.1
1027.1
1027.1
1027.1
1027.1
1027.1
1027.1
1027.1
1027.1
1027.1
1027.1
1.16217
1.16251
1.16346
1.16405
1.16529
1.16612
1.1669
1.16762
1.16819
1.16854
1.16871
1.1688
1.16885
1.16888
1.16889
1.1689
1.1689
1.1689
1.1689
1.16891
1.16891
1.16891
1.16891
1.16891
1.16891
1.16891
1.16891
1.16891
1.16892
1.16892
1.16892
1.16892
1.16892
1.16892
1.16892
1.16892
1.16892
1.16893
1.16893
1.16893
1.16893
1.16896
1.16913
1.16976
1.17078
1.17207
1.17623
1.18377
1.19427
1.22868
1.26412
1.28043
1.27954
1.27892
1.27799
1.27959
1.27786
1.28631
1.35978
31.4617
975.582
1026.9
1027.1
1027.1
1027.1
1027.1
1027.1
1027.1
1027.1
1027.1
1027.1
1027.1
1027.1
1027.1
1027.1
1027.1
1027.1
1027.1
1027.1
1027.1
1027.1
1027.1
1027.1
1027.1
1027.1
1027.1
1027.1
1027.1
1027.1
1027.1
1027.1
1027.1
1027.1
1027.1
1027.1
1027.1
1.16211
1.16234
1.16313
1.16366
1.16494
1.16579
1.16677
1.16752
1.16808
1.16846
1.16867
1.16879
1.16885
1.16888
1.16889
1.1689
1.1689
1.16891
1.16891
1.16891
1.16891
1.16891
1.16891
1.16891
1.16892
1.16892
1.16892
1.16892
1.16892
1.16892
1.16892
1.16892
1.16892
1.16892
1.16893
1.16893
1.16893
1.16893
1.16893
1.16893
1.16894
1.16898
1.16928
1.17027
1.17228
1.17573
1.18425
1.19252
1.1986
1.23394
1.26631
1.27962
1.27843
1.27818
1.27909
1.27975
1.27964
1.30158
1.30217
64.1246
999.09
1027.05
1027.09
1027.09
1027.09
1027.09
1027.09
1027.09
1027.09
1027.1
1027.1
1027.1
1027.1
1027.1
1027.1
1027.1
1027.1
1027.1
1027.1
1027.1
1027.1
1027.1
1027.1
1027.1
1027.1
1027.1
1027.1
1027.1
1027.1
1027.1
1027.1
1027.1
1027.1
1027.1
1027.1
1027.1
1.16203
1.16225
1.16284
1.16324
1.16454
1.16541
1.16649
1.1674
1.16796
1.16838
1.16863
1.16877
1.16884
1.16887
1.16889
1.16889
1.1689
1.1689
1.1689
1.1689
1.1689
1.16891
1.16891
1.16891
1.16891
1.16891
1.16891
1.16891
1.16892
1.16892
1.16892
1.16892
1.16892
1.16892
1.16892
1.16892
1.16892
1.16892
1.16893
1.16893
1.16893
1.16901
1.16952
1.17108
1.17496
1.18336
1.19274
1.19967
1.20406
1.2406
1.27199
1.27972
1.27929
1.27984
1.28002
1.27973
1.2789
1.30327
1.54338
99.2246
996.6
1026.78
1026.86
1027
1027.02
1027.04
1027.03
1027.02
1027
1026.98
1026.96
1026.94
1026.91
1026.88
1026.86
1026.84
1026.83
1026.84
1026.93
1026.99
1027.04
1027.06
1027.07
1027.08
1027.08
1027.08
1027.09
1027.09
1027.1
1027.1
1027.1
1027.1
1027.1
1027.1
1027.1
1027.1
1.16193
1.1622
1.16265
1.16292
1.16418
1.16507
1.166
1.1672
1.16785
1.1683
1.16859
1.16877
1.16885
1.16888
1.16889
1.1689
1.1689
1.1689
1.16891
1.16891
1.16891
1.16891
1.16891
1.16891
1.16891
1.16891
1.16891
1.16892
1.16892
1.16892
1.16892
1.16892
1.16892
1.16892
1.16892
1.16892
1.16892
1.16893
1.16893
1.16893
1.16894
1.16914
1.17028
1.17392
1.18162
1.1902
1.19788
1.20451
1.20907
1.24858
1.27846
1.28178
1.28134
1.28092
1.28065
1.28002
1.27798
1.28158
1.26873
158.123
991.271
1023.33
1023.46
1024.32
1023.97
1023.61
1022.96
1022.4
1021.67
1020.98
1020.32
1019.82
1019.33
1019
1018.76
1018.63
1018.61
1019.09
1019.74
1020.72
1021.79
1022.87
1023.91
1024.9
1025.73
1026.27
1026.58
1026.64
1026.75
1026.83
1026.91
1026.97
1027.04
1027.1
1027.1
1027.08
1.16176
1.16217
1.16255
1.16275
1.16392
1.16485
1.16574
1.16695
1.16774
1.16825
1.16856
1.16875
1.16884
1.16888
1.16889
1.1689
1.1689
1.1689
1.16891
1.16891
1.16891
1.16891
1.16891
1.16891
1.16892
1.16892
1.16892
1.16892
1.16892
1.16892
1.16892
1.16893
1.16893
1.16893
1.16893
1.16893
1.16893
1.16893
1.16893
1.16894
1.169
1.16958
1.17209
1.17812
1.18561
1.19239
1.20004
1.20861
1.21456
1.25756
1.28234
1.28315
1.28226
1.28102
1.28044
1.28091
1.27751
1.28539
1.26873
311.769
998.81
1009.03
1008.4
1008.25
1007.44
1006.91
1006.16
1005.52
1004.49
1003.53
1002.63
1002.05
1001.61
1001.3
1001.14
1001.06
1001.04
1001
1001.01
1000.79
1000.48
1000.2
1000.04
999.956
999.807
999.494
999.106
998.621
998.095
997.492
996.728
995.691
994.698
993.939
995.259
1000.19
1.16144
1.16208
1.16245
1.1627
1.16375
1.16477
1.16604
1.16677
1.1676
1.16818
1.16853
1.16874
1.16883
1.16887
1.16888
1.16889
1.1689
1.1689
1.1689
1.1689
1.1689
1.16891
1.16891
1.16891
1.16891
1.16891
1.16891
1.16892
1.16892
1.16892
1.16892
1.16892
1.16892
1.16892
1.16892
1.16892
1.16893
1.16893
1.16893
1.16893
1.16908
1.17004
1.1734
1.1796
1.18619
1.19303
1.20107
1.21109
1.2162
1.24483
1.27833
1.28369
1.28239
1.27998
1.27952
1.2802
1.27714
1.28006
1.26873
274.32
1003.38
1012.89
1012.75
1012.84
1013.11
1013.21
1013.43
1013.55
1013.94
1014.32
1014.74
1014.85
1014.56
1014.17
1013.65
1012.86
1011.68
1010.5
1009.32
1008.03
1006.93
1006.18
1005.43
1004.71
1004.12
1003.67
1003.39
1003.31
1003.33
1004.02
1004.76
1006.13
1008.29
1011.73
1016.55
1020.68
1.16112
1.16168
1.1621
1.16248
1.16359
1.16477
1.16626
1.16677
1.16755
1.16819
1.16852
1.16872
1.16882
1.16887
1.16888
1.1689
1.1689
1.1689
1.16891
1.16891
1.16891
1.16891
1.16891
1.16891
1.16891
1.16892
1.16892
1.16892
1.16892
1.16892
1.16892
1.16892
1.16892
1.16892
1.16892
1.16892
1.16893
1.16893
1.16893
1.16894
1.16908
1.16997
1.17302
1.17848
1.18466
1.19221
1.20134
1.21287
1.21925
1.2301
1.26664
1.28199
1.28211
1.28122
1.28103
1.28055
1.27685
1.27848
1.26873
247.832
1015.31
1023.12
1023.84
1024.78
1025.39
1025.79
1026.03
1026.25
1026.37
1026.41
1026.32
1026.15
1025.99
1025.78
1025.55
1025.25
1024.89
1024.53
1024.19
1023.87
1023.54
1023.18
1022.86
1022.62
1022.41
1022.23
1022.04
1022.03
1022.2
1022.43
1022.89
1023.75
1024.65
1025.63
1026.38
1026.75
1.16082
1.16127
1.16165
1.16209
1.16326
1.16458
1.16616
1.16708
1.16758
1.1682
1.16853
1.16871
1.1688
1.16886
1.16888
1.16889
1.1689
1.1689
1.1689
1.1689
1.16891
1.16891
1.16891
1.16891
1.16891
1.16891
1.16892
1.16892
1.16892
1.16892
1.16892
1.16892
1.16892
1.16892
1.16892
1.16893
1.16893
1.16893
1.16893
1.16893
1.16902
1.1696
1.17174
1.17544
1.18084
1.19014
1.2016
1.21557
1.22542
1.22583
1.24958
1.27597
1.28117
1.28107
1.28223
1.28279
1.27641
1.27832
1.26873
166.113
1019.73
1026.9
1026.99
1027.07
1027.09
1027.09
1027.09
1027.1
1027.1
1027.1
1027.1
1027.1
1027.1
1027.1
1027.09
1027.08
1027.06
1027.04
1027.03
1027.01
1027.01
1027.01
1027.01
1027
1027
1027
1027
1027
1027.01
1027.01
1027.02
1027.04
1027.07
1027.08
1027.09
1027.1
1.16061
1.16089
1.1611
1.16143
1.16252
1.16394
1.16582
1.16712
1.16769
1.16824
1.16858
1.16873
1.16879
1.16883
1.16886
1.16888
1.1689
1.1689
1.1689
1.1689
1.16891
1.16891
1.16891
1.16891
1.16891
1.16892
1.16892
1.16892
1.16892
1.16892
1.16892
1.16892
1.16893
1.16893
1.16893
1.16893
1.16893
1.16893
1.16893
1.16893
1.16896
1.16929
1.17065
1.17325
1.17885
1.1895
1.20318
1.21893
1.23176
1.23091
1.2387
1.26519
1.27885
1.28154
1.28092
1.28577
1.27618
1.29347
1.27604
104.963
1024.18
1027.09
1027.09
1027.1
1027.1
1027.1
1027.1
1027.1
1027.1
1027.1
1027.1
1027.1
1027.1
1027.1
1027.1
1027.1
1027.1
1027.1
1027.1
1027.1
1027.1
1027.1
1027.1
1027.1
1027.1
1027.1
1027.1
1027.1
1027.1
1027.1
1027.1
1027.1
1027.1
1027.1
1027.1
1027.1
1.16045
1.16067
1.16073
1.1609
1.1616
1.16283
1.16485
1.1668
1.16792
1.16833
1.16863
1.16876
1.16881
1.16883
1.16886
1.16889
1.1689
1.16891
1.16891
1.16891
1.16891
1.16891
1.16891
1.16892
1.16892
1.16892
1.16892
1.16892
1.16892
1.16892
1.16892
1.16893
1.16893
1.16893
1.16893
1.16893
1.16893
1.16893
1.16893
1.16894
1.16895
1.16914
1.17012
1.17307
1.17978
1.19021
1.20358
1.21988
1.23465
1.23906
1.24085
1.25648
1.27445
1.28217
1.28305
1.28726
1.27628
1.2973
1.43639
57.5785
1006.11
1027.09
1027.09
1027.09
1027.1
1027.1
1027.1
1027.1
1027.1
1027.1
1027.1
1027.1
1027.1
1027.1
1027.1
1027.1
1027.1
1027.1
1027.1
1027.1
1027.1
1027.1
1027.1
1027.1
1027.1
1027.1
1027.1
1027.1
1027.1
1027.1
1027.1
1027.1
1027.1
1027.1
1027.1
1027.1
1.1604
1.16062
1.16061
1.16071
1.16098
1.16186
1.16364
1.16611
1.168
1.16846
1.16868
1.16876
1.1688
1.16883
1.16885
1.16889
1.16891
1.16891
1.16891
1.16891
1.16891
1.16892
1.16892
1.16892
1.16892
1.16892
1.16892
1.16892
1.16893
1.16893
1.16893
1.16893
1.16893
1.16893
1.16893
1.16893
1.16893
1.16893
1.16894
1.16894
1.16895
1.16906
1.16975
1.17274
1.1802
1.1911
1.20349
1.21942
1.23823
1.24506
1.24623
1.25564
1.272
1.28301
1.28261
1.28387
1.28065
1.28984
1.64914
43.452
995.407
1027.09
1027.09
1027.09
1027.1
1027.1
1027.1
1027.1
1027.1
1027.1
1027.1
1027.1
1027.1
1027.1
1027.1
1027.1
1027.1
1027.1
1027.1
1027.1
1027.1
1027.1
1027.1
1027.1
1027.1
1027.1
1027.1
1027.1
1027.1
1027.1
1027.1
1027.1
1027.1
1027.1
1027.1
1027.1
1.16047
1.1609
1.16095
1.16098
1.1609
1.16152
1.16268
1.16511
1.16777
1.16853
1.16869
1.16875
1.16878
1.16881
1.16884
1.16888
1.16891
1.16891
1.16891
1.16891
1.16891
1.16891
1.16892
1.16892
1.16892
1.16892
1.16892
1.16892
1.16892
1.16892
1.16893
1.16893
1.16893
1.16893
1.16893
1.16893
1.16893
1.16893
1.16894
1.16894
1.16895
1.16901
1.1694
1.17176
1.17885
1.19005
1.20378
1.22446
1.24575
1.25129
1.25156
1.25679
1.26891
1.28208
1.28362
1.28579
1.28465
1.29476
1.72546
54.3728
998.15
1027.08
1027.09
1027.1
1027.1
1027.1
1027.1
1027.1
1027.1
1027.1
1027.1
1027.1
1027.1
1027.1
1027.1
1027.1
1027.1
1027.1
1027.1
1027.1
1027.1
1027.1
1027.1
1027.1
1027.1
1027.1
1027.1
1027.1
1027.1
1027.1
1027.1
1027.1
1027.1
1027.1
1027.1
1027.1
1.16005
1.16041
1.16088
1.1614
1.16162
1.16189
1.16272
1.16482
1.16756
1.16852
1.16867
1.16872
1.16875
1.16879
1.16883
1.16889
1.16891
1.16892
1.16892
1.16892
1.16892
1.16892
1.16892
1.16893
1.16893
1.16893
1.16893
1.16893
1.16893
1.16893
1.16893
1.16893
1.16893
1.16894
1.16894
1.16894
1.16894
1.16894
1.16894
1.16895
1.16896
1.169
1.1692
1.17069
1.17719
1.19017
1.20721
1.23044
1.25251
1.26374
1.2631
1.26532
1.27284
1.28322
1.28777
1.29085
1.28844
1.2911
2.08875
50.1198
987.209
1026.85
1027.09
1027.1
1027.1
1027.1
1027.1
1027.1
1027.1
1027.1
1027.1
1027.1
1027.1
1027.1
1027.1
1027.1
1027.1
1027.1
1027.1
1027.1
1027.1
1027.1
1027.1
1027.1
1027.1
1027.1
1027.1
1027.1
1027.1
1027.1
1027.1
1027.1
1027.1
1027.1
1027.1
1027.1
1.162
1.16309
1.16382
1.1643
1.16476
1.16574
1.16689
1.16785
1.1685
1.16874
1.1688
1.16884
1.16887
1.16889
1.16891
1.16892
1.16892
1.16892
1.16892
1.16892
1.16892
1.16893
1.16893
1.16893
1.16893
1.16893
1.16893
1.16893
1.16894
1.16894
1.16894
1.16894
1.16894
1.16894
1.16894
1.16894
1.16895
1.16895
1.16895
1.16895
1.16895
1.16896
1.16898
1.16903
1.16918
1.17066
1.17927
1.19579
1.20946
1.22589
1.24416
1.25766
1.26337
1.26629
1.2685
1.27105
1.27267
1.28343
1.52707
29.0025
964.238
1026.75
1027.09
1027.1
1027.1
1027.1
1027.1
1027.1
1027.1
1027.1
1027.1
1027.1
1027.1
1027.1
1027.1
1027.1
1027.1
1027.1
1027.1
1027.1
1027.1
1027.1
1027.1
1027.1
1027.1
1027.1
1027.1
1027.1
1027.1
1027.1
1027.1
1027.1
1027.1
1027.1
1027.1
1027.1
1.16128
1.16252
1.16423
1.1648
1.16547
1.1663
1.16724
1.16788
1.16828
1.16849
1.16865
1.16877
1.16884
1.16887
1.16889
1.16891
1.16891
1.16892
1.16892
1.16892
1.16892
1.16892
1.16893
1.16893
1.16893
1.16893
1.16893
1.16893
1.16893
1.16893
1.16893
1.16894
1.16894
1.16894
1.16894
1.16894
1.16894
1.16894
1.16894
1.16894
1.16895
1.169
1.1693
1.1699
1.17019
1.17107
1.17705
1.1891
1.20505
1.22779
1.25703
1.27783
1.28422
1.28339
1.2846
1.28538
1.28237
1.29722
1.41869
41.279
986.151
1027.05
1027.1
1027.1
1027.1
1027.1
1027.1
1027.1
1027.1
1027.1
1027.1
1027.1
1027.1
1027.1
1027.1
1027.1
1027.1
1027.1
1027.1
1027.1
1027.1
1027.1
1027.1
1027.1
1027.1
1027.1
1027.1
1027.1
1027.1
1027.1
1027.1
1027.1
1027.1
1027.1
1027.1
1027.1
1.16105
1.16176
1.16374
1.16463
1.16545
1.16611
1.16689
1.16754
1.16802
1.16833
1.16856
1.16873
1.16883
1.16887
1.16889
1.1689
1.16891
1.16891
1.16892
1.16892
1.16892
1.16892
1.16892
1.16892
1.16892
1.16892
1.16893
1.16893
1.16893
1.16893
1.16893
1.16893
1.16893
1.16893
1.16893
1.16893
1.16893
1.16893
1.16894
1.16894
1.16896
1.16912
1.16987
1.17161
1.17387
1.17518
1.17345
1.17979
1.19359
1.22651
1.27191
1.29037
1.29473
1.29511
1.29507
1.29474
1.28947
1.30879
1.4038
35.9915
989.422
1027.09
1027.09
1027.1
1027.1
1027.1
1027.1
1027.1
1027.1
1027.1
1027.1
1027.1
1027.1
1027.1
1027.1
1027.1
1027.1
1027.1
1027.1
1027.1
1027.1
1027.1
1027.1
1027.1
1027.1
1027.1
1027.1
1027.1
1027.1
1027.1
1027.1
1027.1
1027.1
1027.1
1027.1
1027.1
1.16097
1.16118
1.16293
1.16392
1.16483
1.16562
1.16648
1.16725
1.16785
1.16826
1.16853
1.16871
1.16882
1.16887
1.16888
1.1689
1.16891
1.16891
1.16891
1.16891
1.16892
1.16892
1.16892
1.16892
1.16892
1.16892
1.16892
1.16892
1.16893
1.16893
1.16893
1.16893
1.16893
1.16893
1.16893
1.16893
1.16893
1.16893
1.16893
1.16894
1.16897
1.16922
1.17023
1.17241
1.17589
1.18137
1.18044
1.18082
1.18584
1.24341
1.28592
1.2921
1.28628
1.28457
1.28573
1.29159
1.28931
1.30573
1.34476
50.1845
994.605
1027.09
1027.09
1027.09
1027.09
1027.1
1027.1
1027.1
1027.1
1027.1
1027.1
1027.1
1027.1
1027.1
1027.1
1027.1
1027.1
1027.1
1027.1
1027.1
1027.1
1027.1
1027.1
1027.1
1027.1
1027.1
1027.1
1027.1
1027.1
1027.1
1027.1
1027.1
1027.1
1027.1
1027.1
1027.1
1.16089
1.16082
1.16222
1.16333
1.16437
1.16523
1.16618
1.16703
1.16773
1.16822
1.16851
1.16871
1.16882
1.16886
1.16888
1.1689
1.16891
1.16891
1.16891
1.16891
1.16891
1.16891
1.16892
1.16892
1.16892
1.16892
1.16892
1.16892
1.16892
1.16892
1.16893
1.16893
1.16893
1.16893
1.16893
1.16893
1.16893
1.16893
1.16893
1.16894
1.16897
1.16925
1.17037
1.17286
1.17689
1.18294
1.18817
1.19091
1.19573
1.26717
1.28932
1.28227
1.27872
1.27732
1.27731
1.28916
1.28622
1.30425
1.26893
113.174
1022.26
1027.01
1027.02
1027.04
1027.04
1027.04
1027.04
1027.04
1027.04
1027.03
1027.03
1027.02
1027.02
1027.02
1027.03
1027.03
1027.04
1027.05
1027.06
1027.08
1027.09
1027.09
1027.09
1027.1
1027.1
1027.1
1027.1
1027.1
1027.1
1027.1
1027.1
1027.1
1027.1
1027.1
1027.1
1027.1
1.16083
1.16058
1.1616
1.16272
1.16393
1.16491
1.16596
1.16688
1.16765
1.16819
1.1685
1.16871
1.16882
1.16886
1.16888
1.1689
1.16891
1.16891
1.16891
1.16891
1.16891
1.16891
1.16891
1.16892
1.16892
1.16892
1.16892
1.16892
1.16892
1.16892
1.16893
1.16893
1.16893
1.16893
1.16893
1.16893
1.16893
1.16893
1.16893
1.16894
1.16897
1.16923
1.1704
1.17305
1.17757
1.18425
1.19369
1.19827
1.21035
1.28235
1.28179
1.27998
1.28062
1.28208
1.28342
1.28442
1.2838
1.28709
1.26904
172.441
1017.25
1024.61
1024.72
1024.8
1024.8
1024.66
1024.54
1024.37
1024.2
1024.02
1023.87
1023.8
1023.79
1023.84
1023.9
1023.92
1024.02
1024.18
1024.38
1024.78
1025.19
1025.54
1025.83
1026.06
1026.25
1026.43
1026.62
1026.77
1026.88
1026.98
1027.05
1027.08
1027.09
1027.1
1027.1
1027.1
1.16079
1.1604
1.16114
1.16212
1.16351
1.16464
1.16581
1.16678
1.1676
1.16818
1.1685
1.16871
1.16882
1.16886
1.16888
1.1689
1.16891
1.16891
1.16891
1.16891
1.16891
1.16891
1.16891
1.16892
1.16892
1.16892
1.16892
1.16892
1.16892
1.16892
1.16893
1.16893
1.16893
1.16893
1.16893
1.16893
1.16893
1.16893
1.16894
1.16894
1.16896
1.16918
1.17031
1.17297
1.17771
1.18565
1.1983
1.20674
1.23422
1.28796
1.28253
1.28229
1.28364
1.28498
1.28576
1.28545
1.28299
1.28363
1.26873
350.364
1006.84
1013.8
1013.87
1013.84
1013.97
1013.69
1013.05
1012.35
1011.36
1010.46
1009.68
1009.17
1008.83
1008.66
1008.58
1008.76
1009.11
1009.56
1010.12
1010.84
1011.78
1012.78
1013.79
1014.56
1015.17
1015.78
1016.43
1017.15
1018
1019.1
1020.33
1021.63
1023.25
1025.37
1026.58
1026.62
1.16075
1.1603
1.16079
1.16151
1.16295
1.16434
1.16568
1.1667
1.16756
1.16817
1.1685
1.16871
1.16882
1.16887
1.16888
1.1689
1.16891
1.16891
1.16891
1.16891
1.16891
1.16891
1.16892
1.16892
1.16892
1.16892
1.16892
1.16892
1.16892
1.16892
1.16893
1.16893
1.16893
1.16893
1.16893
1.16893
1.16893
1.16893
1.16894
1.16894
1.16896
1.1691
1.16992
1.17266
1.17791
1.1865
1.20084
1.21621
1.24712
1.29123
1.29051
1.29424
1.29755
1.29951
1.30013
1.30021
1.29686
1.32449
1.26873
528.618
996.9
1000.87
1000.99
1000.95
1001.1
1001.07
1001.07
1001.02
1001.04
1001.39
1001.75
1001.95
1002.08
1002.11
1002.13
1002.2
1002.16
1002.09
1001.83
1001.62
1001.64
1002
1002.38
1002.81
1002.9
1001.9
1000.03
998.075
996.002
993.344
988.636
981.09
969.275
947.895
894.302
684.859
1.16063
1.16023
1.16051
1.16095
1.16223
1.16383
1.16548
1.16664
1.16754
1.16817
1.16851
1.16871
1.16883
1.16887
1.16888
1.1689
1.16891
1.16891
1.16891
1.16891
1.16891
1.16891
1.16892
1.16892
1.16892
1.16892
1.16892
1.16892
1.16892
1.16893
1.16893
1.16893
1.16893
1.16893
1.16893
1.16893
1.16893
1.16893
1.16894
1.16894
1.16896
1.16904
1.16968
1.17266
1.17847
1.18759
1.20258
1.22082
1.2399
1.29185
1.29563
1.29506
1.29396
1.28721
1.28446
1.29362
1.29267
1.3243
1.30215
348.146
1005.45
1013.92
1014.8
1015.96
1016.85
1017.63
1018.45
1019.12
1019.72
1020.14
1020.28
1020.19
1020.11
1019.86
1019.5
1018.86
1018.05
1017.04
1015.78
1014.5
1013.3
1012.2
1011.31
1010.88
1010.59
1009.81
1008.99
1007.73
1006.05
1003.65
1000.7
996.77
991.787
986.453
982.312
984.131
1.16049
1.16017
1.16029
1.16054
1.1615
1.16319
1.16522
1.16655
1.16752
1.16817
1.16851
1.16872
1.16883
1.16887
1.16888
1.1689
1.16891
1.16891
1.16891
1.16891
1.16892
1.16892
1.16892
1.16892
1.16892
1.16892
1.16892
1.16892
1.16893
1.16893
1.16893
1.16893
1.16893
1.16893
1.16893
1.16893
1.16893
1.16894
1.16894
1.16894
1.16895
1.16903
1.16968
1.17292
1.17954
1.18918
1.20427
1.2236
1.23687
1.27558
1.29514
1.29516
1.2951
1.29399
1.29293
1.29563
1.28399
1.32011
1.34918
193.443
1016.07
1024.7
1025.27
1025.98
1026.31
1026.57
1026.7
1026.76
1026.73
1026.69
1026.63
1026.55
1026.46
1026.36
1026.22
1026.05
1025.85
1025.64
1025.4
1025.19
1025.04
1024.97
1024.97
1025
1024.97
1024.87
1024.68
1024.39
1024.09
1023.73
1023.39
1023.06
1022.88
1023.64
1025.17
1026.1
1.16036
1.16011
1.16014
1.16024
1.16099
1.16253
1.16479
1.16639
1.1675
1.16817
1.16852
1.16873
1.16884
1.16887
1.16888
1.1689
1.16891
1.16891
1.16891
1.16891
1.16892
1.16892
1.16892
1.16892
1.16892
1.16892
1.16892
1.16893
1.16893
1.16893
1.16893
1.16893
1.16893
1.16893
1.16893
1.16893
1.16893
1.16894
1.16894
1.16894
1.16895
1.16903
1.16973
1.17326
1.18059
1.19091
1.20695
1.2261
1.24034
1.2456
1.28329
1.29424
1.2943
1.29373
1.29684
1.2996
1.28717
1.3139
1.38167
117.989
1022.75
1026.97
1027.01
1027.06
1027.08
1027.09
1027.09
1027.09
1027.09
1027.09
1027.09
1027.08
1027.08
1027.07
1027.06
1027.05
1027.05
1027.04
1027.03
1027.02
1027.02
1027.03
1027.04
1027.05
1027.05
1027.06
1027.06
1027.06
1027.06
1027.06
1027.06
1027.06
1027.06
1027.07
1027.09
1027.1
1.16027
1.16006
1.16004
1.16004
1.16061
1.16195
1.16422
1.16619
1.16749
1.16817
1.16853
1.16874
1.16884
1.16887
1.16888
1.1689
1.16891
1.16891
1.16891
1.16891
1.16892
1.16892
1.16892
1.16892
1.16892
1.16892
1.16892
1.16893
1.16893
1.16893
1.16893
1.16893
1.16893
1.16893
1.16893
1.16893
1.16893
1.16894
1.16894
1.16894
1.16895
1.16904
1.16981
1.17377
1.18244
1.19347
1.20938
1.22769
1.24238
1.24954
1.26145
1.28502
1.29133
1.29135
1.29199
1.29274
1.27731
1.35076
1.46754
90.5634
1025.27
1027.09
1027.09
1027.09
1027.09
1027.1
1027.1
1027.1
1027.1
1027.1
1027.1
1027.1
1027.1
1027.1
1027.1
1027.1
1027.1
1027.1
1027.1
1027.1
1027.1
1027.1
1027.1
1027.1
1027.1
1027.1
1027.1
1027.1
1027.1
1027.1
1027.1
1027.1
1027.1
1027.1
1027.1
1027.1
1.16022
1.16008
1.16
1.15996
1.16011
1.16091
1.16291
1.1656
1.16754
1.16822
1.16855
1.16875
1.16885
1.16886
1.16887
1.1689
1.16891
1.16891
1.16891
1.16891
1.16892
1.16892
1.16892
1.16892
1.16892
1.16892
1.16892
1.16893
1.16893
1.16893
1.16893
1.16893
1.16893
1.16893
1.16893
1.16893
1.16893
1.16893
1.16894
1.16894
1.16895
1.16904
1.16975
1.17414
1.18422
1.19707
1.21185
1.22872
1.24449
1.25357
1.2564
1.26953
1.28074
1.28838
1.28831
1.29029
1.27112
1.39358
1.56015
49.8374
1020.66
1027.09
1027.09
1027.1
1027.09
1027.1
1027.1
1027.1
1027.1
1027.1
1027.1
1027.1
1027.1
1027.1
1027.1
1027.1
1027.1
1027.1
1027.1
1027.1
1027.1
1027.1
1027.1
1027.1
1027.1
1027.1
1027.1
1027.1
1027.1
1027.1
1027.1
1027.1
1027.1
1027.1
1027.1
1027.1
1.1603
1.1604
1.16019
1.1601
1.15987
1.16004
1.16094
1.16374
1.16728
1.16836
1.16861
1.16876
1.16883
1.16883
1.16885
1.16889
1.1689
1.16891
1.16891
1.16891
1.16891
1.16891
1.16892
1.16892
1.16892
1.16892
1.16892
1.16892
1.16892
1.16892
1.16892
1.16892
1.16892
1.16892
1.16893
1.16893
1.16893
1.16893
1.16893
1.16893
1.16895
1.16902
1.16957
1.17344
1.18411
1.19828
1.21349
1.23158
1.24762
1.25608
1.26129
1.27019
1.28059
1.28173
1.2728
1.27418
1.27103
1.32718
1.68538
49.9497
1015.21
1027.09
1027.09
1027.09
1027.09
1027.1
1027.1
1027.1
1027.1
1027.1
1027.1
1027.1
1027.1
1027.1
1027.1
1027.1
1027.1
1027.1
1027.1
1027.1
1027.1
1027.1
1027.1
1027.1
1027.1
1027.1
1027.1
1027.1
1027.1
1027.1
1027.1
1027.1
1027.1
1027.1
1027.1
1027.1
1.16042
1.16066
1.1606
1.16058
1.16011
1.16001
1.16009
1.1618
1.16629
1.16848
1.16867
1.16877
1.16878
1.16879
1.16882
1.16888
1.1689
1.16891
1.16891
1.16891
1.16891
1.16891
1.16891
1.16892
1.16892
1.16892
1.16892
1.16892
1.16892
1.16892
1.16892
1.16892
1.16892
1.16892
1.16892
1.16892
1.16893
1.16893
1.16893
1.16893
1.16895
1.169
1.16932
1.17191
1.18138
1.19661
1.2125
1.23265
1.25029
1.25789
1.26134
1.26797
1.2782
1.27369
1.27444
1.28041
1.28017
1.30882
1.74498
54.1772
1006.85
1027.09
1027.09
1027.1
1027.1
1027.1
1027.1
1027.1
1027.1
1027.1
1027.1
1027.1
1027.1
1027.1
1027.1
1027.1
1027.1
1027.1
1027.1
1027.1
1027.1
1027.1
1027.1
1027.1
1027.1
1027.1
1027.1
1027.1
1027.1
1027.1
1027.1
1027.1
1027.1
1027.1
1027.1
1027.1
1.16007
1.16052
1.16067
1.16084
1.16029
1.16012
1.16013
1.16135
1.16563
1.16849
1.1687
1.16873
1.16874
1.16877
1.16881
1.16888
1.16891
1.16891
1.16891
1.16891
1.16892
1.16892
1.16892
1.16892
1.16892
1.16892
1.16892
1.16893
1.16893
1.16893
1.16893
1.16893
1.16893
1.16893
1.16893
1.16893
1.16894
1.16894
1.16894
1.16894
1.16895
1.16899
1.16921
1.17097
1.17865
1.19349
1.21149
1.2325
1.25221
1.26507
1.2703
1.2725
1.27797
1.28397
1.2876
1.29057
1.28557
1.29438
1.95224
51.7958
981.632
1026.77
1027.09
1027.1
1027.1
1027.1
1027.1
1027.1
1027.1
1027.1
1027.1
1027.1
1027.1
1027.1
1027.1
1027.1
1027.1
1027.1
1027.1
1027.1
1027.1
1027.1
1027.1
1027.1
1027.1
1027.1
1027.1
1027.1
1027.1
1027.1
1027.1
1027.1
1027.1
1027.1
1027.1
1027.1
1.16165
1.16268
1.16368
1.16424
1.16473
1.16567
1.16683
1.16787
1.16854
1.16874
1.16881
1.16885
1.16887
1.16889
1.1689
1.16891
1.16891
1.16891
1.16891
1.16892
1.16892
1.16892
1.16892
1.16892
1.16892
1.16892
1.16892
1.16893
1.16893
1.16893
1.16893
1.16893
1.16893
1.16893
1.16893
1.16894
1.16894
1.16894
1.16894
1.16894
1.16894
1.16894
1.16895
1.169
1.16919
1.17035
1.17647
1.19394
1.20944
1.21938
1.23178
1.24179
1.24797
1.25183
1.25523
1.26104
1.26497
1.32048
1.89762
36.1189
936.119
1026.36
1027.09
1027.1
1027.1
1027.1
1027.1
1027.1
1027.1
1027.1
1027.1
1027.1
1027.1
1027.1
1027.1
1027.1
1027.1
1027.1
1027.1
1027.1
1027.1
1027.1
1027.1
1027.1
1027.1
1027.1
1027.1
1027.1
1027.1
1027.1
1027.1
1027.1
1027.1
1027.1
1027.1
1027.1
1.16077
1.16166
1.16419
1.16466
1.16517
1.16607
1.16713
1.16806
1.16847
1.16863
1.16873
1.1688
1.16885
1.16888
1.16889
1.1689
1.16891
1.16891
1.16891
1.16891
1.16892
1.16892
1.16892
1.16892
1.16892
1.16892
1.16893
1.16893
1.16893
1.16893
1.16893
1.16893
1.16893
1.16893
1.16893
1.16893
1.16893
1.16893
1.16893
1.16894
1.16894
1.16895
1.16903
1.16923
1.16945
1.17049
1.1759
1.19043
1.206
1.2161
1.23961
1.26443
1.2629
1.26276
1.26558
1.27353
1.28488
1.38305
1.61083
30.2135
960.27
1027.01
1027.1
1027.1
1027.1
1027.1
1027.1
1027.1
1027.1
1027.1
1027.1
1027.1
1027.1
1027.1
1027.1
1027.1
1027.1
1027.1
1027.1
1027.1
1027.1
1027.1
1027.1
1027.1
1027.1
1027.1
1027.1
1027.1
1027.1
1027.1
1027.1
1027.1
1027.1
1027.1
1027.1
1027.1
1.16058
1.16079
1.16403
1.16488
1.16551
1.16631
1.16723
1.16798
1.16831
1.1685
1.16865
1.16877
1.16884
1.16887
1.16888
1.1689
1.1689
1.1689
1.1689
1.16891
1.16891
1.16891
1.16891
1.16891
1.16891
1.16892
1.16892
1.16892
1.16892
1.16892
1.16892
1.16892
1.16892
1.16892
1.16892
1.16892
1.16892
1.16892
1.16892
1.16893
1.16893
1.16897
1.16917
1.16959
1.17033
1.17208
1.17507
1.18467
1.19947
1.22317
1.25677
1.28446
1.29454
1.29269
1.28743
1.28223
1.29569
1.38329
1.41644
48.9657
991.087
1027.08
1027.1
1027.1
1027.1
1027.1
1027.1
1027.1
1027.1
1027.1
1027.1
1027.1
1027.1
1027.1
1027.1
1027.1
1027.1
1027.1
1027.1
1027.1
1027.1
1027.1
1027.1
1027.1
1027.1
1027.1
1027.1
1027.1
1027.1
1027.1
1027.1
1027.1
1027.1
1027.1
1027.1
1027.1
1.16055
1.16055
1.16262
1.16466
1.16544
1.16628
1.16717
1.16781
1.16817
1.16843
1.16862
1.16876
1.16883
1.16887
1.16889
1.1689
1.1689
1.1689
1.16891
1.16891
1.16891
1.16891
1.16891
1.16891
1.16891
1.16891
1.16891
1.16891
1.16892
1.16892
1.16892
1.16892
1.16892
1.16892
1.16892
1.16892
1.16892
1.16892
1.16892
1.16893
1.16894
1.16901
1.16913
1.16943
1.17066
1.1745
1.17748
1.18199
1.19048
1.2483
1.28647
1.29837
1.29758
1.30055
1.30069
1.29992
1.29045
1.36225
1.35553
47.5718
988.09
1027.09
1027.09
1027.09
1027.09
1027.1
1027.1
1027.1
1027.1
1027.09
1027.1
1027.1
1027.1
1027.1
1027.1
1027.1
1027.1
1027.1
1027.1
1027.1
1027.1
1027.1
1027.1
1027.1
1027.1
1027.1
1027.1
1027.1
1027.1
1027.1
1027.1
1027.1
1027.1
1027.1
1027.1
1027.1
1.16055
1.16055
1.16082
1.16409
1.16534
1.16622
1.16708
1.16765
1.16809
1.1684
1.1686
1.16875
1.16883
1.16887
1.16888
1.1689
1.1689
1.1689
1.16891
1.16891
1.16891
1.16891
1.16891
1.16891
1.16891
1.16891
1.16891
1.16891
1.16892
1.16892
1.16892
1.16892
1.16892
1.16892
1.16892
1.16892
1.16892
1.16892
1.16892
1.16893
1.16897
1.16905
1.16929
1.17
1.17143
1.17493
1.18173
1.18521
1.20991
1.28019
1.29442
1.29026
1.28345
1.28304
1.28668
1.2979
1.29623
1.32327
1.27222
111.308
1020.98
1027.04
1027.05
1027.06
1027.06
1027.05
1027.05
1027.05
1027.05
1027.05
1027.04
1027.04
1027.04
1027.05
1027.06
1027.07
1027.08
1027.09
1027.09
1027.09
1027.1
1027.1
1027.1
1027.1
1027.1
1027.1
1027.1
1027.1
1027.1
1027.1
1027.1
1027.1
1027.1
1027.1
1027.1
1027.1
1.16057
1.1605
1.16094
1.16316
1.16511
1.16613
1.16696
1.16753
1.16804
1.16838
1.1686
1.16875
1.16883
1.16887
1.16888
1.16889
1.1689
1.1689
1.1689
1.1689
1.16891
1.16891
1.16891
1.16891
1.16891
1.16891
1.16891
1.16891
1.16892
1.16892
1.16892
1.16892
1.16892
1.16892
1.16892
1.16892
1.16893
1.16893
1.16893
1.16894
1.16897
1.16902
1.16936
1.1706
1.17399
1.17615
1.18294
1.18818
1.23973
1.29116
1.28712
1.2831
1.28515
1.28919
1.29248
1.296
1.29311
1.28942
1.26873
162.2
1015.94
1025.85
1025.9
1025.92
1025.92
1025.92
1025.91
1025.92
1025.95
1025.99
1026.05
1026.11
1026.19
1026.3
1026.42
1026.56
1026.71
1026.86
1026.97
1027.03
1027.06
1027.08
1027.09
1027.1
1027.1
1027.1
1027.1
1027.1
1027.1
1027.1
1027.1
1027.1
1027.1
1027.1
1027.1
1027.1
1.16051
1.16029
1.16086
1.16258
1.16465
1.16605
1.16706
1.16759
1.16807
1.16839
1.16859
1.16873
1.16882
1.16886
1.16889
1.16889
1.16889
1.1689
1.1689
1.1689
1.16891
1.16891
1.16891
1.16891
1.16892
1.16892
1.16892
1.16892
1.16892
1.16892
1.16892
1.16892
1.16892
1.16892
1.16892
1.16893
1.16893
1.16893
1.16893
1.16893
1.16894
1.16898
1.16934
1.17048
1.17337
1.1789
1.18515
1.19238
1.25954
1.29114
1.28738
1.28679
1.28801
1.28853
1.28732
1.2848
1.27896
1.27318
1.26873
300.931
1015.87
1020.44
1020.31
1020.13
1020.08
1020.18
1020.45
1020.82
1021.41
1022.11
1022.91
1023.62
1024.25
1024.77
1025.22
1025.62
1025.94
1026.28
1026.58
1026.83
1027
1027.08
1027.09
1027.1
1027.1
1027.1
1027.1
1027.1
1027.1
1027.1
1027.1
1027.1
1027.1
1027.1
1027.1
1027.1
1.16042
1.16016
1.16059
1.1617
1.16383
1.16551
1.16677
1.16746
1.16802
1.16818
1.16848
1.16871
1.16879
1.16886
1.16888
1.16889
1.16889
1.16889
1.1689
1.1689
1.1689
1.1689
1.1689
1.16891
1.16891
1.16891
1.16891
1.16891
1.16891
1.16891
1.16891
1.16892
1.16892
1.16892
1.16892
1.16892
1.16892
1.16892
1.16892
1.16892
1.16893