/*--------------------------------*- C++ -*----------------------------------*\
| =========                 |                                                 |
| \\      /  F ield         | OpenFOAM: The Open Source CFD Toolbox           |
|  \\    /   O peration     | Version:  2.3.0                                 |
|   \\  /    A nd           | Web:      www.OpenFOAM.org                      |
|    \\/     M anipulation  |                                                 |
\*---------------------------------------------------------------------------*/
FoamFile
{
    version     2.0;
    format      ascii;
    class       volVectorField;
    location    "49";
    object      U.air;
}
// * * * * * * * * * * * * * * * * * * * * * * * * * * * * * * * * * * * * * //

dimensions      [0 1 -1 0 0 0 0];

internalField   nonuniform List<vector> 
6144
(
(0.0114474 0.0209255 6.22908e-05)
(0.0122173 -0.00407372 -0.00144272)
(0.00430222 -0.0059862 -0.00278769)
(0.00338943 -0.00488244 -0.00267935)
(0.00183282 -0.00298409 -0.00190611)
(0.00290169 -0.000137134 -0.00150543)
(0.00320195 -0.00044543 -0.00123401)
(0.00299305 0.000273548 -0.00110291)
(0.00235023 -5.59159e-05 -0.000845471)
(0.00180426 0.00125305 -0.000405302)
(0.00140232 0.00235549 9.53444e-05)
(0.00134516 0.00353918 0.000750059)
(0.00142737 0.00380573 0.00115436)
(0.00153715 0.00348751 0.00160025)
(0.00158847 0.00274169 0.00169581)
(0.00167269 0.00197583 0.00166022)
(0.00174695 0.00114947 0.00146275)
(0.00182267 0.000467802 0.001217)
(0.00189186 -7.80514e-05 0.000956979)
(0.00194605 -0.000430146 0.000724472)
(0.00197962 -0.000620836 0.000522509)
(0.00200823 -0.000637538 0.000346218)
(0.00201484 -0.000548226 0.000260905)
(0.00199792 -0.000396522 0.00026079)
(0.00195755 -0.000214748 0.000333067)
(0.00189984 -2.27798e-05 0.000462824)
(0.00183917 0.000156091 0.000622227)
(0.00177609 0.000302316 0.000788442)
(0.00170593 0.000412838 0.000957047)
(0.00162793 0.000511675 0.0011152)
(0.0015438 0.000624818 0.00126859)
(0.00145445 0.000759765 0.00143065)
(0.00135561 0.000918022 0.00160938)
(0.00124311 0.00110354 0.00181225)
(0.00111538 0.00131803 0.00204375)
(0.00097873 0.00156104 0.00230286)
(0.000842333 0.00182923 0.00256226)
(0.000719177 0.00217257 0.00276226)
(0.00061397 0.00268725 0.0028212)
(0.000539599 0.00354877 0.00265615)
(0.000475414 0.00495982 0.00225486)
(0.000429837 0.00720763 0.00161223)
(0.000588773 0.0103986 0.000743157)
(0.00108086 0.0140842 1.12431e-05)
(0.00243261 0.0177298 -0.00146033)
(0.00458559 0.0211577 -0.00315522)
(0.00432463 0.0249151 -0.00517365)
(-0.000795082 0.0346655 -0.00710217)
(0.000424823 0.0483048 -0.0100652)
(0.013362 0.0504994 -0.0146998)
(0.0289251 0.0364849 -0.0127567)
(0.0404849 -0.00728006 -0.0124869)
(0.0378685 -0.0266702 -0.011529)
(0.0388819 -0.0717091 -0.0128994)
(0.0264725 -0.0763012 -0.0178118)
(0.015183 -0.0997384 -0.00914055)
(0.00599335 -0.0668622 -0.0188598)
(-0.00376055 -0.104548 0.0156973)
(-0.035463 -0.00435678 -0.0601272)
(0.0207599 0.112684 0.0500806)
(0.131541 0.311515 -0.00191984)
(0.0528911 0.433621 -0.0462296)
(-0.00470257 0.134689 -0.0764694)
(0.0688428 -0.180618 -0.0203354)
(0.0576792 -0.193377 -0.0131329)
(0.0419852 -0.179135 -0.00771534)
(0.026941 -0.164199 -0.00766415)
(0.0178486 -0.150222 -0.00370495)
(0.0181168 -0.14488 -0.000484587)
(0.0198368 -0.137612 0.000904878)
(0.0260341 -0.135883 0.00012866)
(0.0287325 -0.133787 -0.00424301)
(0.025502 -0.130542 -0.00703909)
(0.0174378 -0.123809 -0.00768924)
(0.0105848 -0.123337 -0.00544355)
(0.00953715 -0.125221 -0.000854595)
(0.0133159 -0.127851 0.00170846)
(0.0181276 -0.132094 0.00174773)
(0.0205987 -0.137601 0.000939111)
(0.019705 -0.141399 0.000557583)
(0.0166999 -0.141788 7.44573e-05)
(0.0116885 -0.139318 0.000950167)
(0.00673652 -0.132136 0.00521953)
(0.0078088 -0.125127 0.00748644)
(0.0103292 -0.122604 0.00665304)
(0.0113359 -0.121683 0.00253194)
(0.00936386 -0.118503 0.000474907)
(0.0101647 -0.108148 -0.00149817)
(-0.00155388 -0.0949074 -0.00415571)
(-0.0178521 -0.0564725 0.00192113)
(-0.0119186 -0.00767994 -0.00944643)
(-0.00788773 0.0344804 -0.0189096)
(-0.00470319 0.0769847 -0.0031493)
(-0.00252881 0.0852049 0.0152894)
(0.00364769 0.0606145 0.031735)
(0.00736375 0.0317298 0.0351245)
(0.0212766 0.0198753 0.0037065)
(0.0234217 0.00417997 0.00294456)
(0.0107685 -0.000750333 -0.00151607)
(0.00898853 -0.0011887 -0.000830933)
(0.00424676 -0.00368694 0.000960114)
(0.00485696 -0.00133886 0.001541)
(0.00484604 -0.00140157 0.0021313)
(0.00452335 0.000298335 0.00240488)
(0.00341574 0.000366229 0.00258091)
(0.00233537 0.00220468 0.00261455)
(0.00182354 0.00339556 0.00285231)
(0.00198964 0.00450556 0.00349836)
(0.00237122 0.0046397 0.00390661)
(0.00280207 0.00435411 0.00420809)
(0.00296913 0.0035803 0.00429472)
(0.00313445 0.00281092 0.00430708)
(0.00322781 0.00192274 0.0042505)
(0.00329824 0.00117036 0.00417364)
(0.00334866 0.000522563 0.00409748)
(0.00337411 5.86189e-05 0.00404426)
(0.00336307 -0.000250124 0.00401812)
(0.00335918 -0.000375819 0.00395017)
(0.00332362 -0.000391515 0.00393889)
(0.00325097 -0.000328252 0.0039824)
(0.00313793 -0.000217674 0.00407317)
(0.00299838 -7.33287e-05 0.0041971)
(0.00286158 7.73051e-05 0.00431008)
(0.00273803 0.000210153 0.0044116)
(0.00260476 0.00031671 0.00452211)
(0.00244967 0.000406414 0.00463435)
(0.00227661 0.000494131 0.00474633)
(0.00209216 0.000583385 0.00486153)
(0.00189132 0.000672719 0.00498277)
(0.00166983 0.00076586 0.00511148)
(0.00142919 0.000873935 0.0052458)
(0.0011811 0.00102003 0.00538051)
(0.000925998 0.00124172 0.00549835)
(0.000658529 0.00160478 0.00558185)
(0.000339968 0.00219221 0.00558602)
(-6.37034e-05 0.00315465 0.00546292)
(-0.000585173 0.00467831 0.00512695)
(-0.00113448 0.00700443 0.00437713)
(-0.00131773 0.0102605 0.00305609)
(-0.000940301 0.0144719 0.00233768)
(0.000287294 0.0195688 0.00120972)
(0.00240739 0.0272111 -0.000958643)
(0.00321903 0.0421533 -0.00396202)
(0.00220742 0.0478231 -0.00550395)
(0.00971073 0.047514 -0.00930281)
(0.0396785 0.0392732 -0.00991757)
(0.0703309 0.00818343 0.0108534)
(0.0760783 -0.0396407 0.016885)
(0.0688376 -0.0599749 0.00922781)
(0.0672673 -0.101293 0.00273113)
(0.0546735 -0.102863 -0.0118517)
(0.039621 -0.126725 -0.00787086)
(0.0166984 -0.105114 -0.014052)
(0.00575752 -0.139126 0.0319135)
(-0.0530402 0.0269178 -0.0808662)
(-0.0003707 0.0564744 0.048659)
(0.154621 0.332233 0.0756399)
(0.0360506 0.503479 -0.0131723)
(-0.043917 0.172209 -0.0731584)
(0.0358572 -0.0368967 0.0124782)
(0.00436162 -0.0642318 0.025435)
(0.000407344 -0.044314 0.0209979)
(0.00254313 -0.0374481 0.0242489)
(0.00403383 -0.0454618 0.0323341)
(-0.00577694 -0.0627498 0.0325221)
(-0.00640661 -0.0742939 0.0259717)
(-0.0084496 -0.0763767 0.00185007)
(-0.00935139 -0.0518641 -0.0183506)
(0.00735078 -0.0340657 0.00163964)
(0.0195989 -0.0363361 0.0363272)
(0.015003 -0.0539932 0.0425821)
(0.00885893 -0.0752791 0.0446698)
(0.00250688 -0.0950353 0.0443123)
(-0.000870299 -0.112047 0.0391977)
(-0.000423315 -0.129161 0.0272822)
(0.0021541 -0.139949 0.0122252)
(0.00349296 -0.139789 0.00694951)
(0.00409923 -0.133935 0.00576478)
(0.00203526 -0.124274 0.0108215)
(-0.00424427 -0.119617 0.0205378)
(-0.0122169 -0.119599 0.0201888)
(-0.0160462 -0.117503 0.0134612)
(-0.0224054 -0.114649 0.0110148)
(-0.0260476 -0.106425 0.00584582)
(-0.025213 -0.0863851 -0.00248313)
(-0.0380591 -0.0388022 0.000544371)
(-0.0336545 -0.00016475 -0.00485913)
(-0.0194926 0.03313 -0.0126701)
(-0.00786728 0.0679186 0.0010544)
(-0.00473464 0.076895 0.0219502)
(0.00367858 0.0532464 0.0405434)
(0.00361921 0.0318057 0.0510086)
(0.0242282 0.0188605 0.00479558)
(0.0274594 0.00975174 0.0048276)
(0.0163728 0.00305431 0.00118142)
(0.0130366 0.00263138 0.00189313)
(0.00475815 -0.00274278 0.0035994)
(0.00420018 -0.000440072 0.00352461)
(0.0029673 -0.000969746 0.00420333)
(0.00248434 0.0012273 0.00406136)
(0.00131235 0.00130887 0.00410421)
(0.000562308 0.00276912 0.00410536)
(0.000146535 0.00321348 0.004189)
(0.000643111 0.00400611 0.00449769)
(0.00114848 0.00402213 0.00477302)
(0.00168744 0.00401787 0.00498216)
(0.00192297 0.00359554 0.00502375)
(0.00215373 0.00318853 0.00502039)
(0.00229229 0.00260838 0.00497929)
(0.00238315 0.00207776 0.00493511)
(0.00242682 0.00155233 0.004893)
(0.00243743 0.00112692 0.00487632)
(0.00240101 0.000765845 0.00488441)
(0.0023047 0.000500015 0.00492544)
(0.0021873 0.000321649 0.00498322)
(0.00204703 0.000224497 0.00504755)
(0.0018796 0.00018988 0.00511534)
(0.00169526 0.000201917 0.00518544)
(0.00150006 0.000244993 0.00526109)
(0.00130539 0.000311088 0.00534946)
(0.00110468 0.000387506 0.00544541)
(0.000882813 0.000460978 0.00554576)
(0.000641935 0.000531621 0.0056491)
(0.000390637 0.000599814 0.00575321)
(0.000121213 0.000665708 0.00585634)
(-0.000175388 0.000739942 0.005955)
(-0.000505497 0.000851753 0.00603893)
(-0.0008658 0.00105328 0.00609183)
(-0.00125058 0.0014148 0.00608971)
(-0.00164638 0.00200521 0.00600807)
(-0.0020701 0.00285179 0.00580383)
(-0.0025681 0.00396887 0.00540617)
(-0.00321865 0.00534541 0.00466462)
(-0.00407662 0.00715763 0.00335722)
(-0.00494998 0.00980011 0.00171943)
(-0.00562441 0.013441 0.00118355)
(-0.0058402 0.0183181 0.001158)
(-0.00502089 0.0247214 0.00215926)
(-0.000891109 0.0346238 0.000308195)
(0.00845618 0.0371584 -0.00292413)
(0.0271662 0.0310359 -0.00879857)
(0.0660466 0.0273457 -0.00215657)
(0.0855375 -0.0143042 0.0298725)
(0.0811591 -0.0445186 0.0279589)
(0.0753512 -0.0650277 0.0152126)
(0.0713847 -0.0919056 0.00200217)
(0.0612693 -0.0857466 -0.00555204)
(0.053061 -0.113607 -0.00499818)
(0.00478705 -0.0998438 -0.0144947)
(-0.00167936 -0.152283 0.0293076)
(-0.0671749 0.00451337 -0.0596727)
(0.0400224 0.0807672 -0.0200149)
(0.209539 0.305325 0.104059)
(0.0880908 0.51356 0.0367164)
(0.0294947 0.182195 -0.0116051)
(0.0448013 0.0199157 0.0233714)
(0.0118939 -0.0504699 0.0392923)
(0.00345074 -0.0374242 0.0404424)
(-0.00586493 -0.0400858 0.0534506)
(-0.00881605 -0.0445513 0.0556394)
(-0.015344 -0.0565013 0.0428353)
(-0.019248 -0.0598784 0.00492141)
(-0.00875937 -0.0251788 -0.0197697)
(0.000157073 0.0140823 0.0139359)
(-0.00503525 0.0104026 0.0671807)
(-0.00451875 0.00549898 0.0769756)
(-0.00740753 -0.0134661 0.0655724)
(-0.0113738 -0.0252665 0.0511846)
(-0.013972 -0.0418836 0.0325391)
(-0.00990438 -0.0519639 0.0184227)
(-0.00315115 -0.0541654 0.0120176)
(0.00219387 -0.0550885 0.0129517)
(0.00302528 -0.0568198 0.0169474)
(-0.00414053 -0.0618375 0.0197342)
(-0.0147382 -0.0695434 0.0201206)
(-0.0230966 -0.0770521 0.0169202)
(-0.0254546 -0.0927478 0.0138727)
(-0.0122641 -0.100892 0.0121081)
(0.00200163 -0.0890291 0.00434314)
(-0.00621721 -0.0739942 -0.00886637)
(-0.0495751 -0.0383519 -0.0110537)
(-0.0584259 0.0135438 -0.00282822)
(-0.0391112 0.0222015 -0.00949468)
(-0.026467 0.0410211 -0.00803106)
(-0.010885 0.0677518 0.0140116)
(-0.00205393 0.073003 0.0312065)
(0.00453923 0.0505982 0.0445056)
(-0.00169422 0.0324999 0.0559499)
(0.024951 0.0186236 0.00501257)
(0.0293236 0.0139073 0.00502797)
(0.0193716 0.00570188 0.000742334)
(0.0166329 0.00639669 0.000822594)
(0.00674964 -0.00111112 0.00251719)
(0.00358635 0.000830542 0.00278193)
(0.00134478 -0.000737946 0.00425271)
(0.000610878 0.00152328 0.00417747)
(-0.000527177 0.000954713 0.00430055)
(-0.00113306 0.00217254 0.0042808)
(-0.00136822 0.0022184 0.00442716)
(-0.000840883 0.00295627 0.00479296)
(-0.000383351 0.00320699 0.00503203)
(0.000193036 0.00350851 0.00520115)
(0.000498132 0.00335334 0.00520848)
(0.000759488 0.0031809 0.00521913)
(0.000912153 0.00278625 0.00521388)
(0.00099995 0.00240486 0.00522131)
(0.0010168 0.00197879 0.0052143)
(0.000999175 0.00160333 0.00521056)
(0.000925341 0.00125649 0.00521247)
(0.000808348 0.000957587 0.00522782)
(0.000656081 0.00070362 0.00525548)
(0.000476614 0.000515602 0.00529032)
(0.000277018 0.000391796 0.00533129)
(6.78677e-05 0.000328994 0.00537827)
(-0.000139143 0.000315059 0.00543025)
(-0.000337948 0.000331925 0.00549083)
(-0.000541413 0.000368301 0.00555968)
(-0.000761061 0.000419746 0.00563412)
(-0.000992889 0.000480955 0.0057106)
(-0.00123246 0.00054744 0.00578317)
(-0.00149013 0.000623806 0.00584557)
(-0.00177601 0.000730413 0.00588407)
(-0.00210274 0.000899523 0.00587608)
(-0.00247774 0.00117722 0.00579274)
(-0.00289971 0.00160282 0.00560248)
(-0.00335691 0.00219615 0.00527368)
(-0.00385224 0.00290527 0.00479163)
(-0.00440241 0.00367537 0.00412538)
(-0.00520899 0.00445842 0.00317688)
(-0.00657339 0.00563638 0.00179296)
(-0.00830257 0.00737976 0.000293123)
(-0.0100957 0.0105584 -0.000342848)
(-0.0106825 0.0135892 -0.00074074)
(-0.00906648 0.01752 0.00048395)
(-0.000258823 0.0174734 0.00288183)
(0.0185847 0.00898362 0.00125509)
(0.0401831 0.00862889 -0.00750008)
(0.0746369 0.00479326 0.00829652)
(0.0909256 -0.0166671 0.0306455)
(0.0929976 -0.0431107 0.0175842)
(0.0910927 -0.0337482 -0.00906014)
(0.0714286 0.00591971 -0.0136441)
(0.0745293 0.0498094 0.00614716)
(0.0761003 -0.00419268 0.0183965)
(0.0181897 0.0299468 0.0197004)
(0.0432575 -0.155042 0.0787568)
(-0.133462 -0.013211 -0.0234186)
(0.0704566 0.0317147 0.0140088)
(0.20525 0.32879 0.0997712)
(0.0701321 0.460303 0.0436729)
(0.0424559 -0.0906445 0.027222)
(0.0171486 0.00996308 -0.00175421)
(-0.00890905 -0.0242647 0.0355328)
(-0.0321676 2.06806e-06 0.0476566)
(-0.0422872 -0.0063042 0.0547124)
(-0.0305683 -0.00061874 0.0382688)
(-0.0233201 0.018428 0.00591132)
(-0.0210778 0.0387998 -0.00306944)
(-0.0254768 0.0554745 0.0182246)
(-0.0357742 0.0469097 0.0408102)
(-0.0462356 0.0329558 0.0529615)
(-0.0406564 0.0129958 0.0504475)
(-0.0318863 -0.00467338 0.0348025)
(-0.0287765 -0.0179983 0.0119895)
(-0.0239252 -0.0220687 0.001546)
(-0.01804 -0.0226062 0.00105778)
(-0.0111371 -0.0257731 0.00521068)
(-0.00361535 -0.0322938 0.0111851)
(-0.00383159 -0.0398006 0.0154103)
(-0.00506622 -0.0470363 0.0166288)
(-0.00443643 -0.054618 0.0138853)
(-0.00213661 -0.0596058 0.00483176)
(-0.00116429 -0.0536202 -0.0137706)
(-0.0159095 -0.0322808 -0.0228498)
(-0.0317785 0.0108528 -0.0179623)
(-0.042899 0.0299393 -0.0143351)
(-0.0522944 0.041661 -0.0119993)
(-0.0357588 0.0380574 -0.0123105)
(-0.0289082 0.0350729 -0.0166297)
(-0.0236175 0.0441911 -0.00965949)
(-0.0142783 0.0635961 0.0164016)
(0.00210584 0.0610858 0.0405131)
(0.00277082 0.0440348 0.0522719)
(-0.00390219 0.0302696 0.0634853)
(0.024743 0.018783 0.00491859)
(0.0307903 0.0175443 0.00536806)
(0.022007 0.00867913 0.000952106)
(0.0216861 0.0100144 0.000470908)
(0.0103215 0.000852783 -0.000648062)
(0.00454387 0.00243607 8.95637e-05)
(0.000354297 -0.00115344 0.00312086)
(-0.000974506 0.00158639 0.00346109)
(-0.00207928 0.0003931 0.00382523)
(-0.00273167 0.00141217 0.00410124)
(-0.00323427 0.00125363 0.00437297)
(-0.00306884 0.00208998 0.00478844)
(-0.00277577 0.00254266 0.00495716)
(-0.00211877 0.00309317 0.00510038)
(-0.00175458 0.00310956 0.00505579)
(-0.00147111 0.00302044 0.00507779)
(-0.00134376 0.002697 0.00510371)
(-0.00134397 0.00239747 0.00515516)
(-0.00141497 0.00206495 0.00517315)
(-0.00150705 0.00176202 0.00516617)
(-0.00162227 0.00145517 0.0051369)
(-0.0017578 0.00115798 0.00510382)
(-0.00191066 0.000877292 0.00507573)
(-0.00208289 0.000642556 0.00505637)
(-0.00228154 0.000459625 0.00504462)
(-0.00248589 0.000332473 0.00504067)
(-0.00267994 0.000252549 0.00504447)
(-0.00285713 0.000210757 0.00505121)
(-0.00303714 0.000205353 0.00506044)
(-0.00324165 0.00023285 0.00507382)
(-0.00346875 0.000286827 0.00508949)
(-0.0037062 0.000365601 0.00509752)
(-0.00396163 0.00047725 0.0050846)
(-0.00425177 0.000647783 0.0050276)
(-0.00458643 0.000898949 0.00489583)
(-0.00496933 0.0012485 0.00466687)
(-0.00538023 0.00168394 0.00432005)
(-0.00578179 0.00214713 0.00387082)
(-0.00615764 0.00254701 0.00339624)
(-0.00664186 0.00279378 0.00300764)
(-0.00758034 0.00291694 0.00269719)
(-0.00934015 0.00319115 0.0022711)
(-0.0118825 0.00371488 0.00164942)
(-0.0138546 0.00521849 0.000845832)
(-0.0134582 0.00522359 0.000198833)
(-0.0066207 0.00221124 -0.00130887)
(0.0106563 -0.00878886 0.00231493)
(0.027151 -0.0177373 0.00149261)
(0.044943 -0.00499401 -0.00487279)
(0.0688029 -0.0066891 0.017521)
(0.0839478 -0.0113707 0.0260938)
(0.0848305 -0.00642383 -0.00909197)
(0.0624064 0.100644 -0.0204623)
(0.0649514 0.157062 0.0283219)
(0.0952566 0.166038 0.0544343)
(0.0992097 0.143215 0.0828646)
(0.128331 0.153135 0.0915175)
(0.151241 -0.0839547 0.131774)
(-0.192543 0.147283 0.0062013)
(0.0589127 -0.0350017 0.0531515)
(0.187799 0.432628 0.0927304)
(0.0501274 0.612145 0.0377073)
(0.023441 0.463386 0.0385285)
(-0.0183221 0.539971 0.0208693)
(-0.0440714 0.36729 0.0473556)
(-0.0534285 0.117372 0.0344101)
(-0.050564 0.0426355 0.0347238)
(-0.0554126 0.378001 0.00687976)
(-0.0530672 0.454258 0.00352545)
(-0.0456792 0.0566768 0.00100379)
(-0.0381404 0.0634009 0.0153379)
(-0.0397298 0.312027 0.0308957)
(-0.0426915 0.278709 0.0340045)
(-0.0304231 0.0206033 0.0180779)
(-0.017571 -0.00724267 0.000298389)
(-0.0117195 -0.00699658 -0.00324134)
(-0.0027688 -0.00329516 -0.00282777)
(0.0122753 -9.62429e-06 -0.00491595)
(0.025607 0.00198385 -0.0078472)
(0.0294767 0.00186981 -0.0113725)
(0.024676 0.0115827 -0.0128745)
(0.00847863 0.0191788 -0.0169066)
(-0.00327027 0.0371927 -0.019017)
(-0.0069822 0.0463411 -0.0116397)
(-0.00999564 0.0552226 -0.00819489)
(-0.0100832 0.0589472 -0.00244205)
(-0.00848471 0.0602946 -0.000731426)
(-0.00883271 0.0583627 -0.00206853)
(-0.0117112 0.0544625 -0.00576578)
(-0.0120205 0.0458076 -0.0138432)
(-0.012547 0.0414588 -0.0170129)
(-0.0207114 0.0381677 -0.00998179)
(-0.0131052 0.0432858 0.0194864)
(-5.99963e-05 0.0357094 0.0436735)
(-0.00791243 0.0315362 0.0559397)
(-0.0167424 0.016144 0.0671796)
(0.0233247 0.0179971 0.00472963)
(0.0317742 0.0216433 0.00656186)
(0.0232052 0.0112713 0.00246974)
(0.0249146 0.0132919 0.00243944)
(0.016178 0.00218857 -0.00200585)
(0.0080801 0.00349161 -0.00286643)
(0.000285174 -0.00225106 0.000853624)
(-0.00260716 0.0012523 0.0017363)
(-0.0033043 -0.000494326 0.00256929)
(-0.00441258 0.000637755 0.00323873)
(-0.00489219 0.000280393 0.00365853)
(-0.00463228 0.00133102 0.00421519)
(-0.00423117 0.00204831 0.00442036)
(-0.0033299 0.00285844 0.00471512)
(-0.00262407 0.00284723 0.00483066)
(-0.00218471 0.00269554 0.00503206)
(-0.00203174 0.00232531 0.00516885)
(-0.0021008 0.00204044 0.00526679)
(-0.00224225 0.00180935 0.00528557)
(-0.00238146 0.00164047 0.00524495)
(-0.00252777 0.00147233 0.00514906)
(-0.00268092 0.00129164 0.0050215)
(-0.00286162 0.0010935 0.00488662)
(-0.0030537 0.000904998 0.00475822)
(-0.00324343 0.000743002 0.00464134)
(-0.00342012 0.000623983 0.00453404)
(-0.00357357 0.000535012 0.00443853)
(-0.0037193 0.000468252 0.00435581)
(-0.00387537 0.000426597 0.00429078)
(-0.0040477 0.000417034 0.00424849)
(-0.00423161 0.000451835 0.00422243)
(-0.00441866 0.000537797 0.0041923)
(-0.00462651 0.000680246 0.00413808)
(-0.00486794 0.00089566 0.00403604)
(-0.00514595 0.00117106 0.00386435)
(-0.0054523 0.00147218 0.00362977)
(-0.00575622 0.00172983 0.00335638)
(-0.00603726 0.00185012 0.00315452)
(-0.00635964 0.00169081 0.0031572)
(-0.00688724 0.00128821 0.00354099)
(-0.00812592 0.000609423 0.00428835)
(-0.0105105 4.80805e-05 0.00492786)
(-0.0139546 -0.000969907 0.0044019)
(-0.0151087 -0.00195333 0.00319761)
(-0.0104507 -0.0053756 0.0026294)
(0.00394613 -0.0147796 0.000220422)
(0.0202752 -0.0254493 0.000929973)
(0.0295549 -0.0251065 0.0008826)
(0.0409862 -0.0100088 0.000906145)
(0.0540015 -0.00871499 0.0210505)
(0.0647649 -0.00988266 0.0213459)
(0.0474406 0.0580804 -0.00551018)
(0.0416722 0.141597 0.0346183)
(0.07691 0.163697 0.067571)
(0.115396 0.182015 0.0609552)
(0.141305 0.179786 0.0902549)
(0.158527 0.178364 0.101288)
(0.136448 0.0814974 0.106553)
(-0.0433898 0.334212 0.0631811)
(0.03362 -0.0771665 0.0403261)
(0.17301 0.476436 0.111887)
(0.0211465 0.606682 0.0375948)
(0.00551753 0.488844 0.0466417)
(-0.0478704 0.568761 0.0198112)
(-0.0427478 0.527698 0.0256305)
(-0.0472264 0.528967 0.0135781)
(-0.0388124 0.504722 0.0094045)
(-0.0316238 0.538897 0.000919428)
(-0.0233942 0.550408 0.00581374)
(-0.0225304 0.552773 0.00370546)
(-0.0189364 0.552767 0.00437979)
(-0.0154575 0.558316 0.00389497)
(-0.0130723 0.551347 -0.000723676)
(-0.00868622 0.554173 -0.00862426)
(-0.00826706 0.575129 -0.0133216)
(-0.00489023 0.59111 -0.0190876)
(-0.000180543 0.609528 -0.0227395)
(0.00937682 0.640506 -0.0133056)
(0.0137047 0.65638 0.00365049)
(0.0144619 0.649291 0.014658)
(0.0102433 0.641749 0.0160014)
(0.00387197 0.633173 0.0136392)
(-0.00116352 0.620653 0.0160296)
(-0.00898766 0.608351 0.0189937)
(-0.014944 0.594258 0.0208433)
(-0.0188907 0.585719 0.0212465)
(-0.0191224 0.574871 0.0183305)
(-0.0171066 0.559518 0.0178658)
(-0.0159916 0.513189 0.014361)
(-0.0164654 0.348782 0.00413861)
(-0.0159685 0.0452655 0.00296782)
(-0.0169479 0.0270936 0.00154043)
(-0.0201486 0.0312509 0.0269004)
(-0.0168425 0.0271464 0.0478744)
(-0.0217824 0.0240216 0.0603332)
(-0.0310567 0.0129989 0.0726049)
(0.020705 0.0158187 0.00480278)
(0.0321707 0.0255683 0.00891042)
(0.0229975 0.0135366 0.0050796)
(0.0249511 0.0160043 0.00531233)
(0.019961 0.00302353 0.000370965)
(0.0122195 0.00407935 -0.00324781)
(0.00105974 -0.00353005 -0.000665828)
(-0.0035399 0.00116964 0.000237226)
(-0.00440095 -0.00103916 0.00147514)
(-0.0056528 0.000306691 0.00245067)
(-0.00651522 -0.000118125 0.0028623)
(-0.00707219 0.00101988 0.00357087)
(-0.00698171 0.00173335 0.00396437)
(-0.00568352 0.00242774 0.00477056)
(-0.00480896 0.00227938 0.00523799)
(-0.00441899 0.00210608 0.00568567)
(-0.00442412 0.00176793 0.00593042)
(-0.00474845 0.00157706 0.00602184)
(-0.00511548 0.00148755 0.00597794)
(-0.00538618 0.0014923 0.00586026)
(-0.00557834 0.00151427 0.00567139)
(-0.00570654 0.00152819 0.00544107)
(-0.00581948 0.00151033 0.005202)
(-0.00593228 0.00146586 0.00497322)
(-0.00607988 0.00141884 0.00478438)
(-0.00619816 0.00138847 0.00461774)
(-0.00626672 0.00135271 0.004481)
(-0.00630533 0.00130293 0.00439119)
(-0.00635546 0.00124639 0.00434107)
(-0.00645271 0.00120438 0.00432687)
(-0.00659207 0.00121264 0.00433562)
(-0.00674275 0.00128674 0.00434195)
(-0.00691355 0.00142619 0.0043214)
(-0.00710768 0.00161884 0.00425823)
(-0.00729684 0.0018085 0.00416917)
(-0.00749089 0.00191659 0.00407768)
(-0.00766746 0.00184387 0.00403426)
(-0.00782302 0.0014398 0.00416374)
(-0.00808482 0.00061342 0.00465936)
(-0.00887066 -0.000634709 0.00561889)
(-0.0106611 -0.00188898 0.0067992)
(-0.0136031 -0.00272001 0.00740153)
(-0.0156275 -0.00496245 0.00658869)
(-0.0140535 -0.00892335 0.00600933)
(-0.00572838 -0.015782 0.00352443)
(0.00959806 -0.0223765 0.00054194)
(0.0209237 -0.0221877 0.00382672)
(0.0233705 -0.0170813 0.00771523)
(0.028886 -0.00677532 0.0120021)
(0.0397065 -0.00660992 0.0306778)
(0.0440412 -0.00546694 0.057536)
(0.0161558 0.0563933 0.0332181)
(0.0158032 0.117822 0.0409623)
(0.0595834 0.151868 0.0423937)
(0.109715 0.172159 0.0372123)
(0.151671 0.172287 0.0557067)
(0.162318 0.197255 0.0655397)
(0.21597 0.0558393 0.089906)
(0.198473 0.417332 0.112149)
(0.0391194 -0.0962279 0.0430523)
(0.161136 0.506424 0.119055)
(0.0283082 0.567308 0.0416836)
(0.0163374 0.519295 0.0470687)
(-0.0381987 0.560159 0.0197736)
(-0.0266539 0.534523 0.020775)
(-0.0425793 0.557779 0.00871894)
(-0.0421617 0.552147 0.00876573)
(-0.0580362 0.593126 0.00287028)
(-0.0505205 0.637599 -0.00718883)
(-0.0511795 0.68036 -0.0155857)
(-0.0356342 0.734684 -0.007991)
(-0.0291658 0.759384 5.52778e-06)
(-0.0210772 0.777803 0.00629955)
(-0.0124288 0.791057 0.0129617)
(-0.00461451 0.790772 0.0176896)
(0.00227322 0.789866 0.0193006)
(0.0096261 0.778737 0.0203539)
(0.0194649 0.771637 0.0185705)
(0.0304853 0.761889 0.017289)
(0.032877 0.750955 0.0144628)
(0.0300998 0.738092 0.0132867)
(0.0249868 0.721795 0.0157956)
(0.0189901 0.705014 0.0206351)
(0.0107975 0.682408 0.0246174)
(0.00219129 0.655273 0.0267741)
(-0.00406601 0.634042 0.0248988)
(-0.0129652 0.607049 0.0221359)
(-0.0175897 0.592745 0.0164135)
(-0.0243556 0.576601 0.0112041)
(-0.0276685 0.563472 0.00617408)
(-0.0315506 0.534948 0.0104411)
(-0.0325809 0.495823 0.0198738)
(-0.0289074 0.33386 0.0340051)
(-0.0277383 0.0365022 0.0407101)
(-0.0396702 0.0373853 0.0577831)
(-0.0717598 0.369221 0.0699776)
(0.018855 0.010382 0.00464225)
(0.0311242 0.0283987 0.0108523)
(0.0220167 0.015085 0.00586697)
(0.0244144 0.0197389 0.0056924)
(0.0211693 0.00502318 0.00194428)
(0.015427 0.00460759 -0.000965203)
(0.00110128 -0.00452523 -0.000896761)
(-0.00561013 0.000698817 -0.00095112)
(-0.00531207 -0.00193552 0.00138859)
(-0.00717544 0.00034422 0.00231419)
(-0.00755439 -0.000197965 0.00286491)
(-0.00770317 0.000872142 0.0038911)
(-0.00713465 0.000552698 0.00469993)
(-0.00554955 0.0009452 0.005839)
(-0.00451877 0.000695411 0.00670017)
(-0.00412424 0.000825137 0.00746474)
(-0.00417035 0.000878795 0.00792716)
(-0.00449957 0.00110858 0.00812402)
(-0.0048459 0.00131636 0.00811347)
(-0.00507839 0.00157547 0.00799107)
(-0.0052434 0.00182514 0.00777177)
(-0.00535686 0.00202134 0.00749152)
(-0.00545026 0.00213974 0.00720107)
(-0.00553109 0.00220344 0.00692697)
(-0.0056196 0.00220983 0.00667603)
(-0.00568641 0.00217898 0.00646549)
(-0.00570367 0.00213044 0.00630925)
(-0.00569288 0.00206397 0.00620246)
(-0.0056906 0.00198027 0.00614126)
(-0.00574536 0.00190688 0.00611806)
(-0.00585653 0.00189664 0.0061148)
(-0.00598816 0.00196755 0.00610556)
(-0.00614533 0.00211003 0.00607207)
(-0.0063062 0.00227999 0.00601903)
(-0.00643289 0.00236047 0.00597565)
(-0.00652431 0.00224112 0.00598102)
(-0.00651149 0.00181212 0.00611199)
(-0.00641963 0.00102263 0.00648373)
(-0.0065369 -9.28068e-05 0.00715403)
(-0.00754842 -0.00112274 0.00821714)
(-0.0103125 -0.0019991 0.00941657)
(-0.0132604 -0.00358254 0.00978363)
(-0.0132668 -0.0076896 0.00860441)
(-0.00913446 -0.0136731 0.00689029)
(-0.00055267 -0.0200365 0.00112641)
(0.00889217 -0.0203385 0.00132448)
(0.0146123 -0.0139665 0.00317728)
(0.0193222 -0.00785116 0.0110164)
(0.0193191 -0.00525432 0.019707)
(0.0152353 -0.00164626 0.0447196)
(-0.0040085 0.0145863 0.053931)
(-0.028424 0.0526653 0.0272252)
(-0.0227322 0.0981457 0.0151794)
(0.0294302 0.110467 0.00578912)
(0.0971156 0.116703 0.00948414)
(0.138545 0.0957276 0.0261093)
(0.158913 0.178495 0.0219564)
(0.178443 -0.0486836 0.0553059)
(0.181798 0.364958 0.139382)
(0.015687 -0.0584093 0.0321387)
(0.0475204 0.647679 0.0709937)
(-0.0191134 0.705153 0.00551088)
(-0.0180124 0.739945 0.00902188)
(-0.0482954 0.768784 -0.00435665)
(-0.0405364 0.798283 -0.00668406)
(-0.0574587 0.810677 -0.011942)
(-0.0494213 0.83931 -0.0106679)
(-0.0658916 0.859564 -0.0146474)
(-0.0629303 0.874151 -0.0135785)
(-0.0638583 0.870891 -0.0115734)
(-0.0459206 0.868221 -0.00429448)
(-0.0307957 0.869934 -0.000881983)
(-0.0173605 0.858098 0.00239918)
(-0.0046832 0.850886 0.00682809)
(0.00431954 0.837484 0.00725655)
(0.0159781 0.82853 0.00871545)
(0.0227226 0.816494 0.0091021)
(0.0323292 0.810134 0.0107024)
(0.0392121 0.807516 0.0111458)
(0.0435825 0.803088 0.010929)
(0.0444638 0.796333 0.00964189)
(0.0394401 0.79207 0.00895651)
(0.0325768 0.787211 0.00800294)
(0.0246541 0.778964 0.00757126)
(0.0134008 0.764863 0.0106688)
(0.00466701 0.745659 0.0129764)
(-0.00530929 0.726691 0.0192464)
(-0.0121924 0.70422 0.0231154)
(-0.0178417 0.687754 0.0287115)
(-0.0200133 0.674778 0.0335993)
(-0.023528 0.657184 0.044383)
(-0.0300759 0.633905 0.055855)
(-0.0371064 0.610139 0.0669258)
(-0.0518449 0.572013 0.0731522)
(-0.0706717 0.548275 0.0758807)
(-0.0801431 0.505853 0.0706675)
(0.0124204 0.00304779 0.00153777)
(0.0277697 0.0296141 0.0101741)
(0.0198986 0.0168491 0.00384598)
(0.0234577 0.0245875 0.00334535)
(0.0223 0.00888998 0.00136955)
(0.017607 0.00618862 0.000236695)
(0.00160771 -0.00580772 -0.00596039)
(-0.00515669 0.000164734 -0.00577933)
(-0.00776765 -0.00244332 -0.00276261)
(-0.00892088 0.000721254 -0.00127108)
(-0.00944403 -0.000332003 -0.000494752)
(-0.00945343 0.000359234 0.000803805)
(-0.00923621 -0.000575955 0.00176839)
(-0.00842295 -0.000267705 0.00276456)
(-0.00806399 -0.000371118 0.00352696)
(-0.00812689 7.14934e-05 0.00427761)
(-0.00844414 0.00039069 0.00488788)
(-0.00888144 0.000848557 0.00529874)
(-0.00929513 0.00120424 0.00549788)
(-0.00961069 0.00157096 0.00554869)
(-0.00974364 0.00189891 0.00547135)
(-0.00970179 0.00216957 0.00530888)
(-0.00962506 0.00235712 0.00512344)
(-0.00953269 0.00247301 0.00494268)
(-0.00944481 0.00251561 0.00477107)
(-0.0093476 0.0025014 0.00461799)
(-0.00923025 0.00245489 0.00449301)
(-0.00910778 0.00239167 0.00439812)
(-0.00902137 0.00231808 0.00433792)
(-0.00906157 0.00224756 0.00430304)
(-0.00921259 0.00221017 0.00428285)
(-0.00937913 0.00221644 0.00426352)
(-0.00952994 0.00225482 0.00424071)
(-0.009604 0.00228345 0.00422217)
(-0.00953543 0.00222183 0.00422059)
(-0.0093797 0.00198665 0.0042703)
(-0.00921844 0.0015363 0.00440491)
(-0.00928296 0.000892147 0.00470162)
(-0.0101056 0.000109923 0.00518675)
(-0.0120761 -0.000562396 0.00592039)
(-0.0143565 -0.00171678 0.00659434)
(-0.0151801 -0.00432007 0.00685501)
(-0.0129535 -0.00949176 0.00534474)
(-0.00731463 -0.0155885 0.00192416)
(-0.000755053 -0.0191004 -0.0023299)
(0.0022025 -0.0166133 -8.07102e-05)
(0.00589033 -0.0103073 0.00104123)
(0.0131514 -0.0049573 0.00922326)
(0.00938841 -0.00827948 0.0130082)
(-0.0119427 -0.00882471 0.0359166)
(-0.0294888 -0.00988966 0.0544936)
(-0.0581907 -0.00410799 0.0410589)
(-0.0522514 0.0208628 0.0273316)
(0.0313365 0.0169983 -0.00606215)
(0.0976872 0.0848337 -0.0293493)
(0.158111 0.0729502 0.00328997)
(0.190696 0.181785 0.012311)
(0.192698 0.0382966 0.0394146)
(0.210635 0.396355 0.11726)
(-0.0463937 -0.0964865 0.00427915)
(-0.0706286 0.643804 -0.0262052)
(-0.0564653 0.733592 -0.0290638)
(-0.0556982 0.751028 -0.0233801)
(-0.0538096 0.77569 -0.0232841)
(-0.0475874 0.773567 -0.0226099)
(-0.0455758 0.766576 -0.0274236)
(-0.0449091 0.757553 -0.0264852)
(-0.0481335 0.742171 -0.0196183)
(-0.0391455 0.717056 -0.0147549)
(-0.0347726 0.69967 -0.0108994)
(-0.0162831 0.661628 -0.0121829)
(-0.00714774 0.641815 -0.0172783)
(0.00185123 0.631216 -0.0173787)
(0.0073417 0.625111 -0.0157467)
(0.0151871 0.624571 -0.0111667)
(0.0175572 0.62564 -0.0095792)
(0.0202653 0.616202 -0.00813522)
(0.0241917 0.622986 -0.00556619)
(0.0254934 0.632866 -0.00612771)