/*--------------------------------*- C++ -*----------------------------------*\
| =========                 |                                                 |
| \\      /  F ield         | OpenFOAM: The Open Source CFD Toolbox           |
|  \\    /   O peration     | Version:  2.3.0                                 |
|   \\  /    A nd           | Web:      www.OpenFOAM.org                      |
|    \\/     M anipulation  |                                                 |
\*---------------------------------------------------------------------------*/
FoamFile
{
    version     2.0;
    format      ascii;
    class       volVectorField;
    location    "49";
    object      U.airMean;
}
// * * * * * * * * * * * * * * * * * * * * * * * * * * * * * * * * * * * * * //

dimensions      [0 1 -1 0 0 0 0];

internalField   nonuniform List<vector> 
6144
(
(0.00973043 0.0200949 -0.00056468)
(0.00999771 -0.000458689 -0.00149578)
(0.00457838 -0.00195327 -0.00248104)
(0.00418965 -0.00264376 -0.00238748)
(0.00267215 -0.00256998 -0.00192798)
(0.00300197 -0.000924176 -0.00166988)
(0.00263328 -0.000953746 -0.0013089)
(0.00258725 0.000118546 -0.00101667)
(0.00226106 0.000332323 -0.000888224)
(0.00204624 0.00155504 -0.000569119)
(0.00187109 0.00244132 -0.000274423)
(0.00194289 0.00317001 0.000139721)
(0.00207456 0.00316428 0.000325294)
(0.00221073 0.0027798 0.000545513)
(0.00228055 0.00211319 0.000469108)
(0.00235786 0.00151805 0.000360812)
(0.00240345 0.000936186 0.000154334)
(0.0024528 0.000525079 -1.81372e-05)
(0.00249149 0.000189686 -0.000199819)
(0.00251993 -1.74794e-06 -0.000339302)
(0.00253669 -0.000117952 -0.000449068)
(0.00254584 -0.000144781 -0.000517697)
(0.00254365 -0.000134968 -0.000545631)
(0.0025319 -9.38982e-05 -0.000538527)
(0.00251118 -4.34694e-05 -0.000502875)
(0.00248396 9.71733e-06 -0.000443355)
(0.0024533 5.62417e-05 -0.000368165)
(0.00242147 8.86821e-05 -0.000286569)
(0.0023886 0.000108774 -0.000202917)
(0.00235416 0.000105449 -0.000121888)
(0.00231909 0.000108955 -4.11648e-05)
(0.00227838 6.55505e-05 4.53431e-05)
(0.0022373 6.94171e-05 0.000144357)
(0.00218793 -5.00921e-05 0.000264254)
(0.00214532 -7.1038e-05 0.000412638)
(0.00209791 -0.000382564 0.000583317)
(0.00207031 -0.00051514 0.000757035)
(0.00204266 -0.00113511 0.000885121)
(0.00204511 -0.00133591 0.000925286)
(0.00205069 -0.00213602 0.000822291)
(0.00207172 -0.00206633 0.000531426)
(0.00208482 -0.00253029 6.51841e-06)
(0.00212061 -0.00142627 -0.000588103)
(0.00234375 -0.00102299 -0.0010692)
(0.00280482 0.00070446 -0.00147513)
(0.00344308 0.000430347 -0.00187909)
(0.00401893 0.00173486 -0.00248254)
(0.00350841 0.00189419 -0.00346169)
(0.0027708 0.00800757 -0.00525388)
(0.00600625 0.0119546 -0.00756688)
(0.0169717 0.012941 -0.0100638)
(0.0254011 -0.00569999 -0.0101157)
(0.0310043 -0.0161387 -0.0106604)
(0.0302487 -0.0523719 -0.00991211)
(0.0259506 -0.047021 -0.0109117)
(0.0221126 -0.0874975 -0.0071205)
(0.00487779 -0.040592 -0.0131118)
(0.00697011 -0.0964676 0.0222361)
(-0.0366158 0.0157062 -0.0468922)
(0.0332935 0.113042 0.0400889)
(0.112147 0.316976 0.0344378)
(0.0471565 0.38904 -0.00722125)
(0.0456608 -0.0867326 0.00060672)
(0.0504739 -0.176281 0.00528577)
(0.0417071 -0.18202 0.00583632)
(0.0343812 -0.175026 0.00583161)
(0.0280502 -0.173402 0.00512345)
(0.0232528 -0.167758 0.00466067)
(0.0200931 -0.164538 0.00469646)
(0.017376 -0.157909 0.00488505)
(0.0151115 -0.153135 0.00508457)
(0.0127564 -0.145328 0.00538398)
(0.0108029 -0.138028 0.00593623)
(0.00839843 -0.128936 0.00649107)
(0.00534328 -0.1186 0.00677113)
(0.00291313 -0.105411 0.00531009)
(0.00166225 -0.0920656 0.00265165)
(0.000196548 -0.0789969 0.00112464)
(-0.00115958 -0.0655623 0.00104261)
(-0.000169066 -0.0524896 0.0018054)
(0.00140925 -0.041657 0.00244622)
(0.00218779 -0.0328633 0.00314165)
(0.00239919 -0.0270231 0.00425581)
(0.00154208 -0.0225441 0.00445963)
(0.00108379 -0.0172729 0.0038716)
(0.00139287 -0.010931 0.0030822)
(0.00175991 -0.00441791 0.00286696)
(0.0017207 0.00237574 0.00215767)
(0.00107739 0.00834331 0.00126547)
(5.73491e-05 0.0157477 0.000703466)
(0.00080363 0.0219752 0.001347)
(0.00201511 0.0264202 0.00279186)
(0.00226786 0.0284199 0.00463806)
(0.00256999 0.0281759 0.00707114)
(0.00415777 0.0255412 0.00949022)
(0.00723375 0.0160185 0.0136417)
(0.019041 0.0212547 0.0029883)
(0.0202072 0.00746969 0.00245858)
(0.0104071 0.00410998 -0.000498797)
(0.0100375 0.00284816 0.000229494)
(0.00586704 -7.97634e-05 0.00103147)
(0.0058422 0.000746422 0.00155289)
(0.0044451 -0.000218162 0.0021142)
(0.00423677 0.00115403 0.00214647)
(0.00355429 0.00142282 0.00211791)
(0.00324557 0.00293973 0.00217597)
(0.00312133 0.00369709 0.00233062)
(0.00348817 0.00431456 0.00279215)
(0.0038621 0.00411757 0.0030181)
(0.00425386 0.00371958 0.00320083)
(0.00439201 0.00296452 0.00318107)
(0.00453368 0.00230802 0.00314663)
(0.00456487 0.00161854 0.00305598)
(0.00461821 0.00112326 0.00299013)
(0.00464487 0.000693176 0.00291069)
(0.00466178 0.000421465 0.00286117)
(0.00466059 0.000231702 0.00282093)
(0.00465185 0.000148337 0.00279761)
(0.00462444 0.000111944 0.00280416)
(0.00458098 0.000119781 0.00283914)
(0.0045229 0.000146115 0.00289517)
(0.00445526 0.000184497 0.0029668)
(0.00438511 0.000222831 0.00304141)
(0.00431779 0.000251411 0.00311087)
(0.0042514 0.000268578 0.00317964)
(0.00418425 0.000262331 0.00324262)
(0.00411842 0.000258787 0.00330396)
(0.00404357 0.000197793 0.00336828)
(0.0039768 0.000180208 0.00343824)
(0.00390197 1.79825e-05 0.00351447)
(0.00386337 -2.66559e-05 0.00360282)
(0.00382644 -0.000383714 0.00369598)
(0.00385231 -0.00048848 0.00379148)
(0.00386062 -0.00111997 0.00386402)
(0.00392136 -0.00121448 0.00390011)
(0.00391868 -0.0020174 0.00386059)
(0.00388979 -0.00179676 0.0037114)
(0.00379157 -0.00236228 0.00330804)
(0.00378984 -0.00126285 0.00264224)
(0.00402748 -0.00135616 0.00201375)
(0.00481919 0.000303758 0.00149845)
(0.00576809 9.04553e-05 0.000960341)
(0.00556321 0.00281083 -0.000174203)
(0.00460961 0.00487065 -0.00166244)
(0.00627805 0.0103708 -0.00309799)
(0.0159933 0.00731233 -0.00393618)
(0.0359402 0.00127346 -0.00504685)
(0.048917 -0.0162352 -0.00440427)
(0.0575771 -0.0206969 -0.00199822)
(0.0543818 -0.0492011 0.000200165)
(0.0431198 -0.0372654 0.00526662)
(0.0419466 -0.0950033 0.0128362)
(0.00389572 -0.0441286 0.0124472)
(0.000935637 -0.159253 0.0428402)
(-0.0954276 0.0413277 -0.0761751)
(0.0223375 0.0432074 0.0234811)
(0.122937 0.350682 0.0767919)
(0.0240811 0.428572 0.00289962)
(0.020521 -0.0682014 0.0068673)
(0.0242361 -0.0299252 0.0152636)
(0.0110884 -0.0474985 0.0167634)
(0.00410091 -0.0361659 0.0150436)
(0.00132291 -0.0380231 0.012308)
(0.00149509 -0.0335607 0.011457)
(0.00294915 -0.0332608 0.0109481)
(0.00333775 -0.0290895 0.00929871)
(0.00233776 -0.0288834 0.00975034)
(0.000526342 -0.0280522 0.0109155)
(-0.00130765 -0.0303684 0.0117344)
(-0.00445876 -0.0317502 0.0108645)
(-0.00780859 -0.0329513 0.00936805)
(-0.00901251 -0.0308217 0.00798706)
(-0.00873322 -0.0287755 0.00637496)
(-0.00936724 -0.0260873 0.00550729)
(-0.00940394 -0.0225714 0.00517014)
(-0.00754539 -0.0195169 0.00551878)
(-0.00531669 -0.0157692 0.00569182)
(-0.00362019 -0.0120145 0.00664365)
(-0.00282751 -0.0110734 0.00819357)
(-0.0032975 -0.0116592 0.00850862)
(-0.00402702 -0.0114633 0.00741215)
(-0.0036644 -0.010302 0.00642578)
(-0.00306788 -0.00695712 0.00506568)
(-0.00290948 -0.00207105 0.00366924)
(-0.00283879 0.00286398 0.00245302)
(-0.00274462 0.0081723 0.00184805)
(-0.00179039 0.0123573 0.00282429)
(-0.000360999 0.0154575 0.00439766)
(-0.000448234 0.0190878 0.00676123)
(-0.000356514 0.0188317 0.0103385)
(0.000525784 0.0182258 0.0136337)
(0.00376369 0.0107002 0.0182642)
(0.0223632 0.0212594 0.00410825)
(0.0242431 0.0121221 0.00399922)
(0.0143936 0.00764263 0.00127965)
(0.0134831 0.00708814 0.0021995)
(0.00716083 0.00267066 0.00286761)
(0.00628276 0.00306699 0.00312413)
(0.00358031 0.00106141 0.00367641)
(0.00318452 0.00228465 0.00357047)
(0.00228285 0.00230264 0.0034896)
(0.00224288 0.00350816 0.0035746)
(0.00218487 0.00370267 0.00364113)
(0.00285277 0.00418609 0.00393354)
(0.00329537 0.00392515 0.00410584)
(0.00379999 0.00376992 0.00425633)
(0.00398673 0.00321726 0.00423951)
(0.00417644 0.00275823 0.00422689)
(0.00418617 0.00217491 0.0041777)
(0.00422587 0.0017435 0.00415744)
(0.00420066 0.00132325 0.00413974)
(0.00417383 0.0010297 0.00414739)
(0.00411302 0.000781613 0.00416549)
(0.00404345 0.000624055 0.00420037)
(0.00396512 0.000514537 0.0042409)
(0.00388244 0.000457145 0.00428765)
(0.00379402 0.000427348 0.00433735)
(0.00370415 0.000417605 0.00438862)
(0.00361352 0.000414753 0.00444111)
(0.00352235 0.000412186 0.00449605)
(0.00343213 0.000407372 0.00455289)
(0.00333786 0.000384653 0.00461134)
(0.00324426 0.000364029 0.00467124)
(0.00314381 0.000288854 0.00473256)
(0.00305694 0.000252027 0.00479597)
(0.00296117 8.67827e-05 0.00485911)
(0.00291534 5.59451e-05 0.00492357)
(0.00287095 -0.000223762 0.00498195)
(0.00291192 -0.000187916 0.00503571)
(0.00293219 -0.000576104 0.00506772)
(0.00303216 -0.000363673 0.00507597)
(0.00305915 -0.000798023 0.00503715)
(0.0031169 -0.000253131 0.00494066)
(0.00302051 -0.00071737 0.00476741)
(0.00302639 0.000169979 0.00450008)
(0.00329174 -0.000510128 0.004123)
(0.00398362 0.000669385 0.00355985)
(0.00466847 0.000310533 0.00308753)
(0.0044382 0.00308749 0.00220635)
(0.00480828 0.00324985 0.000834507)
(0.0103442 0.00668007 -0.000246292)
(0.0265355 -0.000529877 -3.49643e-05)
(0.0507299 -0.00417266 -0.000824433)
(0.0669343 -0.0143104 0.000876231)
(0.0732276 -0.0100429 0.00483681)
(0.0705718 -0.0290686 0.00776624)
(0.0626045 -0.0132839 0.0172783)
(0.0593702 -0.0791807 0.0256244)
(0.0065041 -0.0159192 0.0355583)
(0.0177732 -0.180237 0.0649616)
(-0.113379 0.0849969 -0.0620273)
(0.0506115 0.0188097 -0.00265676)
(0.169696 0.371839 0.0915091)
(0.0743662 0.444726 0.02376)
(0.0693051 -0.00698065 0.0200457)
(0.0440685 0.061339 0.0135355)
(0.0289475 0.0257942 0.0124388)
(0.0196676 0.0399601 0.0134465)
(0.0169902 0.0314492 0.0137253)
(0.013793 0.0336734 0.0115024)
(0.0131169 0.0334126 0.00957225)
(0.0129968 0.0327975 0.00969607)
(0.0120801 0.0256787 0.0118329)
(0.00951209 0.0188963 0.013186)
(0.00751174 0.0129684 0.0127156)
(0.00450486 0.0105852 0.0114677)
(0.00112375 0.00760601 0.00956669)
(-0.000767868 0.00645943 0.00787653)
(-0.00175048 0.00638575 0.00760401)
(-0.00329047 0.00686301 0.00798995)
(-0.00501797 0.00633347 0.00904232)
(-0.00517754 0.0055205 0.00959572)
(-0.00433129 0.00535732 0.00987957)
(-0.00318928 0.00502059 0.0110667)
(-0.00289638 0.00254481 0.0132078)
(-0.00505604 -0.000541677 0.0133765)
(-0.00670651 -0.00319933 0.0127187)
(-0.00736633 -0.00446812 0.0110767)
(-0.0072803 -0.00319572 0.00843538)
(-0.00687621 -0.00113149 0.00545728)
(-0.00575092 0.00179023 0.00221281)
(-0.00450924 0.00674892 0.000395047)
(-0.00325659 0.00998266 0.00297113)
(-0.00291486 0.0123383 0.00610953)
(-0.0029771 0.0142984 0.00939855)
(-0.00268684 0.0131467 0.0128029)
(-0.00322124 0.0132942 0.0160982)
(-0.00243451 0.0077565 0.0200665)
(0.0235767 0.0213328 0.00435482)
(0.026956 0.0153206 0.00451477)
(0.0163102 0.0092876 0.00102968)
(0.0162878 0.0101255 0.00147441)
(0.00890759 0.0045235 0.00206546)
(0.00767045 0.00515953 0.0025438)
(0.00329747 0.00161579 0.00343728)
(0.00233909 0.00250639 0.00341989)
(0.00100156 0.0018121 0.00352483)
(0.00120834 0.00304385 0.00368005)
(0.00116062 0.00290563 0.00383741)
(0.00180257 0.00350853 0.0042416)
(0.00216754 0.00345156 0.00443821)
(0.00269348 0.0035897 0.0045956)
(0.00290725 0.00322242 0.00456397)
(0.00311807 0.00293632 0.00456452)
(0.00311641 0.00243467 0.00453334)
(0.00314124 0.00206852 0.00453913)
(0.00308764 0.00167116 0.00453584)
(0.00303976 0.00138143 0.00454939)
(0.00295191 0.00111255 0.00456503)
(0.00285766 0.000919412 0.00459245)
(0.00274986 0.000762725 0.00462476)
(0.00264035 0.000658163 0.00466353)
(0.00253131 0.000588503 0.00470583)
(0.00242677 0.000549035 0.00475139)
(0.00232841 0.00052664 0.00479805)
(0.00223651 0.000511871 0.00484541)
(0.00215047 0.000498156 0.00489402)
(0.00206697 0.000471375 0.00494419)
(0.00198998 0.000447638 0.00499604)
(0.00191204 0.000381477 0.00504824)
(0.00185294 0.000357711 0.00509825)
(0.00178851 0.000229556 0.0051411)
(0.00177466 0.000244813 0.00517351)
(0.001747 5.10041e-05 0.00518847)
(0.00180098 0.00019622 0.00518584)
(0.00180368 -2.74217e-05 0.0051572)
(0.00188912 0.000377187 0.00510851)
(0.00188203 0.000168867 0.00503583)
(0.0019778 0.000937334 0.00494173)
(0.00202276 0.000591497 0.00481666)
(0.00229004 0.00132618 0.00463816)
(0.00260691 0.000217574 0.00435498)
(0.00314326 0.000857193 0.0039296)
(0.00352524 -0.000101084 0.00363701)
(0.00369198 0.00203478 0.00326759)
(0.00519918 -0.000128128 0.00225536)
(0.0139223 0.000838571 0.00153712)
(0.0314443 -0.00657329 0.00174909)
(0.0552409 -0.00476964 0.00188768)
(0.0702541 -0.0030929 0.00586604)
(0.0769155 0.0106718 0.0105837)
(0.0744724 0.00344804 0.0138405)
(0.0665587 0.0271844 0.026646)
(0.0606436 -0.0319521 0.0416614)
(0.0154177 0.0558213 0.0768787)
(0.0327991 -0.187733 0.102987)
(-0.14795 0.211443 -0.0431246)
(0.0543722 -0.0452552 0.0219976)
(0.151435 0.454621 0.0919947)
(0.0492227 0.571458 0.0158016)
(0.0350237 0.382761 0.0149674)
(0.0104672 0.4292 0.00299192)
(0.00731901 0.383362 0.00894657)
(0.00103204 0.365519 0.00859712)
(0.00177071 0.342163 0.00956416)
(0.00118229 0.322943 0.00879333)
(0.00323485 0.300633 0.00764298)
(0.00433354 0.280136 0.00714455)
(0.00525494 0.250081 0.00779633)
(0.00493685 0.220804 0.0077324)
(0.00309115 0.189607 0.00763396)
(0.000403894 0.159758 0.00726202)
(-0.00183094 0.135395 0.00667564)
(-0.00387561 0.121268 0.00729556)
(-0.00610794 0.109259 0.00810167)
(-0.0078608 0.0986542 0.00839544)
(-0.00926993 0.0832978 0.0100983)
(-0.00966511 0.0684545 0.0116417)
(-0.00974299 0.0583372 0.0135408)
(-0.0100352 0.0512538 0.0146248)
(-0.0107802 0.0433744 0.0159126)
(-0.0121794 0.034497 0.0149404)
(-0.0141547 0.0289648 0.0138584)
(-0.0149992 0.0252761 0.0121257)
(-0.013769 0.0226649 0.00756391)
(-0.0113752 0.0215005 0.00418576)
(-0.00987237 0.0196231 0.00132347)
(-0.00728566 0.0195776 9.89426e-05)
(-0.00589737 0.018579 0.00388731)
(-0.00613188 0.0173626 0.0074008)
(-0.0064923 0.0159635 0.0104969)
(-0.00784123 0.012353 0.0140787)
(-0.0112838 0.0117583 0.0167138)
(-0.0124806 0.00645372 0.0204782)
(0.0236063 0.0214874 0.00451475)
(0.0288291 0.0183138 0.0051617)
(0.0178798 0.0104292 0.000874762)
(0.0191538 0.0122914 0.00101027)
(0.0108822 0.00507874 0.000483295)
(0.00961237 0.0066264 0.00106173)
(0.00394316 0.00192769 0.00210868)
(0.00229176 0.00301494 0.00259222)
(-0.000131302 0.00096544 0.00297959)
(-0.00017763 0.00213286 0.00336945)
(-0.00048905 0.00173095 0.00361599)
(-9.02503e-05 0.00263279 0.00418467)
(0.000104486 0.0028239 0.00439766)
(0.000671839 0.00326921 0.00458805)
(0.000928897 0.00306727 0.00452931)
(0.00113993 0.00289289 0.00454769)
(0.00108196 0.00244757 0.00452686)
(0.00101517 0.00214674 0.00455329)
(0.000875077 0.00179346 0.00455113)
(0.000763935 0.00153595 0.00455356)
(0.000629875 0.00127099 0.00454368)
(0.000507816 0.00106231 0.00454172)
(0.000385546 0.000878999 0.00454371)
(0.000267597 0.000745225 0.00455344)
(0.000152008 0.000645856 0.00456795)
(4.79312e-05 0.000579818 0.0045883)
(-4.39011e-05 0.000535153 0.00461253)
(-0.000122722 0.000502735 0.00463918)
(-0.000191678 0.00047697 0.00466563)
(-0.000256756 0.000448652 0.00469182)
(-0.000317209 0.000429688 0.00471748)
(-0.000379578 0.00038275 0.0047408)
(-0.000426088 0.000384054 0.00475999)
(-0.000479255 0.000308974 0.00476801)
(-0.000480237 0.000386457 0.00476093)
(-0.000496488 0.000294206 0.00472772)
(-0.000430262 0.000548478 0.00466963)
(-0.000427603 0.000486431 0.00457772)
(-0.000342011 0.00106269 0.00446734)
(-0.000367166 0.00104947 0.00434879)
(-0.000191546 0.00194047 0.00425809)
(5.3217e-05 0.0016123 0.00417895)
(0.000704628 0.00220883 0.00403849)
(0.00133629 0.000820867 0.00378654)
(0.00200115 0.00110085 0.00358971)
(0.0021932 -0.000388531 0.00350224)
(0.0028548 0.000746898 0.00391268)
(0.00608577 -0.00335151 0.00361286)
(0.016262 -0.00487383 0.00350735)
(0.0325276 -0.00809097 0.00495679)
(0.0506977 0.00217225 0.00755417)
(0.0633507 0.0141933 0.0141174)
(0.0686439 0.0401856 0.0179855)
(0.0671125 0.0460765 0.0213363)
(0.060561 0.077114 0.0376506)
(0.051199 0.0349309 0.0531416)
(0.021123 0.129475 0.089963)
(0.0331855 -0.116213 0.107161)
(-0.115776 0.319591 -0.0128128)
(0.0446 -0.076579 0.0298776)
(0.140064 0.505596 0.0979143)
(0.0433132 0.623311 0.0144547)
(0.0348012 0.552819 0.0142194)
(0.0108767 0.605201 0.00120619)
(0.00954401 0.595327 0.00762661)
(0.00275018 0.606115 0.00712918)
(0.00398029 0.6004 0.00799743)
(0.00247598 0.597528 0.00699844)
(0.0042507 0.591206 0.00667036)
(0.00561591 0.586923 0.00739904)
(0.00696394 0.582122 0.00836551)
(0.0065359 0.576964 0.00877679)
(0.00621451 0.570177 0.00890102)
(0.00470014 0.560917 0.00945283)
(0.00318812 0.544004 0.0103243)
(0.00126123 0.514959 0.010334)
(-0.000710977 0.489349 0.0108174)
(-0.00315688 0.464896 0.0117869)
(-0.00536227 0.44115 0.0136176)
(-0.00733778 0.419384 0.0150524)
(-0.00929932 0.396094 0.0162531)
(-0.0111127 0.364511 0.0169324)
(-0.0120563 0.32424 0.0159025)
(-0.0121651 0.285453 0.013029)
(-0.0108774 0.250246 0.00918464)
(-0.00903049 0.226533 0.00475835)
(-0.00734755 0.196712 0.00194568)
(-0.00568222 0.165175 0.00118346)
(-0.00579489 0.139346 0.000800054)
(-0.00475004 0.119411 0.00432018)
(-0.00574877 0.102405 0.0082355)
(-0.00637724 0.0783222 0.0106622)
(-0.00736494 0.0598785 0.0141349)
(-0.0107578 0.0384404 0.0166513)
(-0.0172032 0.0240696 0.01729)
(-0.0229504 0.0111966 0.0194335)
(0.0222847 0.0211678 0.00512148)
(0.0301929 0.0216516 0.00644179)
(0.0185844 0.0113959 0.0016947)
(0.0213461 0.0142912 0.00227551)
(0.0130568 0.00444767 -1.25878e-06)
(0.0114962 0.00705671 8.26657e-05)
(0.00508919 0.00130113 0.000811333)
(0.00280471 0.0034369 0.0014926)
(-0.000228922 0.000345383 0.00214428)
(-0.00111699 0.00139598 0.00275273)
(-0.00175 0.000416647 0.00304554)
(-0.00157325 0.00156244 0.00378359)
(-0.00131573 0.00200812 0.00409612)
(-0.000563866 0.0028207 0.00447782)
(-0.00010443 0.00269198 0.00456891)
(0.00017868 0.00259758 0.00471289)
(9.84516e-05 0.00217814 0.00473194)
(-3.57054e-05 0.00196264 0.00476603)
(-0.000231651 0.00170405 0.00473649)
(-0.00037814 0.00155333 0.00469847)
(-0.00053435 0.00137526 0.00463054)
(-0.000671559 0.00123251 0.00456074)
(-0.000811092 0.00108876 0.00449078)
(-0.000936592 0.000973268 0.00443078)
(-0.00104438 0.000880424 0.00437936)
(-0.00113081 0.000816161 0.00433673)
(-0.0011961 0.000770484 0.00430291)
(-0.00124492 0.000737223 0.00427734)
(-0.00128546 0.00071093 0.00425889)
(-0.00131926 0.000686285 0.00424901)
(-0.0013457 0.000677107 0.00424694)
(-0.00136937 0.000657508 0.00424768)
(-0.00137746 0.000695161 0.00424755)
(-0.00139081 0.000685845 0.00423416)
(-0.00136444 0.000834913 0.0042011)
(-0.00136932 0.000848992 0.00413447)
(-0.00132841 0.0011945 0.00403102)
(-0.00139088 0.00123997 0.00387731)
(-0.001384 0.00185412 0.00369814)
(-0.00143235 0.00184135 0.00353884)
(-0.00117708 0.0026144 0.00346546)
(-0.000724005 0.0022091 0.00346511)
(0.000240081 0.00276771 0.00345322)
(0.00109115 0.00141344 0.00346842)
(0.00177537 0.00172075 0.00366612)
(0.00181952 -5.94371e-05 0.00394338)
(0.00318748 -0.000494859 0.00447949)
(0.00839592 -0.00548155 0.00441233)
(0.0160402 -0.00684405 0.00527174)
(0.026021 -0.00702022 0.00914351)
(0.0376388 0.00994657 0.0143846)
(0.0429423 0.0300094 0.021627)
(0.0494165 0.0627343 0.0284085)
(0.0506009 0.0771039 0.0363305)
(0.0463549 0.107287 0.0527516)
(0.0395379 0.070567 0.0621187)
(0.0305766 0.149714 0.0837239)
(0.044239 -0.091438 0.0840044)
(-0.0372445 0.357799 0.0263019)
(0.0340856 -0.0804006 0.0343992)
(0.088579 0.545214 0.0938062)
(0.0158968 0.645192 0.00813414)
(0.0122589 0.608896 0.0106393)
(-0.00529698 0.661653 0.00225282)
(-0.00340355 0.660888 0.0105058)
(-0.00594062 0.673034 0.010894)
(-0.0019669 0.672629 0.012446)
(-0.000111148 0.67672 0.0125815)
(0.00355612 0.67646 0.0134502)
(0.00607249 0.676901 0.0138526)
(0.00864148 0.67223 0.0136346)
(0.00946816 0.669557 0.0136109)
(0.0101623 0.667607 0.0137153)
(0.00906512 0.665456 0.0143219)
(0.00729293 0.660534 0.0146893)
(0.00475477 0.656118 0.0148938)
(0.00192225 0.649644 0.0152933)
(-0.00134324 0.642073 0.0157506)
(-0.00493942 0.632735 0.0162571)
(-0.00792231 0.619558 0.0163187)
(-0.0104103 0.605807 0.0151668)
(-0.0117264 0.589911 0.0130077)
(-0.0113437 0.572827 0.0096586)
(-0.0103468 0.55282 0.00562835)
(-0.0095026 0.53228 0.00176213)
(-0.0083182 0.508042 -0.00111872)
(-0.00717463 0.472367 -0.00159805)
(-0.00676722 0.428812 0.00108165)
(-0.00763067 0.383435 0.0054127)
(-0.00885035 0.338618 0.00947923)
(-0.010143 0.298023 0.0108671)
(-0.0112253 0.254102 0.0125974)
(-0.0130902 0.21903 0.0158209)
(-0.0171175 0.171525 0.0179654)
(-0.0231608 0.116105 0.0185313)
(-0.0287179 0.0820565 0.017015)
(0.0187904 0.0196992 0.00527697)
(0.0302168 0.025379 0.00847678)
(0.01746 0.0117758 0.00358489)
(0.0213839 0.0164582 0.00498057)
(0.013651 0.00337224 0.00157085)
(0.0119634 0.00666492 0.000897225)
(0.00506682 -0.000117773 0.00100124)
(0.00281038 0.0033611 0.00116776)
(-0.000587035 -3.64149e-06 0.00163674)
(-0.00202979 0.00130643 0.00240196)
(-0.00342269 -0.000271787 0.0026072)
(-0.00411557 0.000913744 0.00338841)
(-0.00425803 0.00127494 0.00381591)
(-0.00327833 0.00220765 0.00457862)
(-0.00268301 0.00206954 0.00497375)
(-0.002408 0.00211624 0.00530241)
(-0.002628 0.00178713 0.00536003)
(-0.00295894 0.00170645 0.0053578)
(-0.00330961 0.00156739 0.00525786)
(-0.00353912 0.00155203 0.00514888)
(-0.00372342 0.00150028 0.00500816)
(-0.00384858 0.00147946 0.00487237)
(-0.00395084 0.00143453 0.00474142)
(-0.00403476 0.00139504 0.00463181)
(-0.00411364 0.00135803 0.00454579)
(-0.00416323 0.00133362 0.00447574)
(-0.00418647 0.00131138 0.00442004)
(-0.00418423 0.00129103 0.00438499)
(-0.004168 0.00127104 0.00436921)
(-0.00415035 0.00125264 0.00437014)
(-0.00413757 0.00125516 0.00438452)
(-0.00412969 0.00126512 0.00440393)
(-0.00412061 0.00134674 0.00442063)
(-0.0041237 0.00140994 0.00441827)
(-0.00409152 0.00162615 0.00439405)
(-0.00408209 0.00171642 0.00433584)
(-0.00400842 0.00208469 0.00425233)
(-0.00400016 0.00210766 0.00412693)
(-0.00389685 0.00255925 0.00396739)
(-0.00385008 0.00230066 0.00377715)
(-0.00352499 0.00275697 0.0036253)
(-0.00302689 0.00216191 0.00350122)
(-0.00191568 0.00276647 0.00347777)
(-0.000951752 0.00178921 0.0037245)
(-0.000218369 0.00226496 0.004157)
(0.000428679 0.000379887 0.00456885)
(0.00328825 -0.00102275 0.00495834)
(0.00827975 -0.00498916 0.00510948)
(0.0133062 -0.00388619 0.00604056)
(0.0150967 0.00121943 0.0107326)
(0.014146 0.0236511 0.0182508)
(0.0175647 0.0469261 0.026907)
(0.0214043 0.0823204 0.0351083)
(0.0254227 0.102463 0.0440305)
(0.0316368 0.129336 0.0563496)
(0.03744 0.0937232 0.0610329)
(0.0485437 0.163054 0.0711856)
(0.0436568 -0.0639871 0.0602482)
(0.000800877 0.356407 0.0581399)
(0.0116733 -0.0681552 0.034313)
(0.029523 0.576802 0.0815862)
(-0.00724654 0.664586 0.0077528)
(-0.0065596 0.647069 0.00930102)
(-0.0137496 0.694999 0.0039892)
(-0.00864913 0.692583 0.012944)
(-0.00704449 0.703119 0.012883)
(-0.00327711 0.702053 0.0146378)
(-0.0009873 0.705831 0.0151752)
(0.00240828 0.705642 0.016461)
(0.00574456 0.705505 0.0168913)
(0.0089129 0.703915 0.0168749)
(0.0105341 0.701549 0.016959)
(0.0117481 0.700711 0.0175)
(0.0112897 0.697986 0.0177329)
(0.0101839 0.693614 0.0179705)
(0.00804283 0.686365 0.0175894)
(0.00560213 0.677049 0.0172733)
(0.00273797 0.667289 0.0168541)
(0.000187556 0.659458 0.016285)
(-0.00211696 0.651067 0.0154862)
(-0.00320516 0.642061 0.0133743)
(-0.00333326 0.634404 0.0102007)
(-0.00235995 0.630441 0.00612314)
(-0.0016444 0.626979 0.00158421)
(-0.00103986 0.61931 -0.0021456)
(-0.00118466 0.606834 -0.00471487)
(-0.00199078 0.596128 -0.00415817)
(-0.00268587 0.582146 -0.00163362)
(-0.00346927 0.556405 0.0012727)
(-0.00576929 0.536466 0.00401384)
(-0.0093301 0.515095 0.00538721)
(-0.0138387 0.48761 0.00748718)
(-0.0186879 0.44803 0.00948941)
(-0.0245308 0.391965 0.01078)
(-0.0312221 0.322233 0.0119614)
(-0.0384136 0.263361 0.00928885)
(0.0157843 0.0145208 0.00429547)
(0.0290873 0.028476 0.00929191)
(0.0148806 0.0117714 0.00431829)
(0.0201933 0.0194132 0.00600183)
(0.0132907 0.00351578 0.00264889)
(0.0111028 0.00680326 0.00167446)
(0.00338808 -0.00132657 0.00181399)
(0.00125583 0.00314127 0.00148851)
(-0.00127835 -0.000542168 0.00212566)
(-0.00280749 0.00159679 0.00277976)
(-0.00416291 -0.000346495 0.00305321)
(-0.00497658 0.000667094 0.00390643)
(-0.00496747 0.000147541 0.00459737)
(-0.00382889 0.000811275 0.00561826)
(-0.00320441 0.000592867 0.00633853)
(-0.00295402 0.00102843 0.00693245)
(-0.0031563 0.00108375 0.00719462)
(-0.00343269 0.00139833 0.00728226)
(-0.00372827 0.0015104 0.00721149)
(-0.00390874 0.00170744 0.00709437)
(-0.00405927 0.00180402 0.00692822)
(-0.00415192 0.00189487 0.00676355)
(-0.00422147 0.00192654 0.00660713)
(-0.00426664 0.00194304 0.00647437)
(-0.00429751 0.001935 0.00636297)
(-0.00430162 0.0019193 0.00627637)
(-0.00427944 0.00190055 0.00621366)
(-0.00423462 0.00188039 0.00617304)
(-0.00418029 0.0018591 0.00615105)
(-0.00412966 0.00184439 0.00614573)
(-0.0040921 0.00185882 0.00615049)
(-0.00406888 0.00189722 0.0061541)
(-0.00405654 0.00201554 0.00614826)
(-0.0040522 0.00213041 0.00612468)
(-0.00400995 0.0023762 0.00608221)
(-0.00398854 0.00248727 0.00601227)
(-0.00389503 0.00280457 0.00592433)
(-0.00384767 0.00275009 0.00579933)
(-0.00365638 0.00305274 0.00565039)
(-0.00351307 0.00267362 0.00547314)
(-0.00316577 0.00296361 0.00531113)
(-0.00275955 0.00225409 0.00517497)
(-0.00182499 0.00280015 0.00518981)
(-0.000926502 0.00188047 0.00544772)
(-0.000211055 0.0025612 0.0059049)
(0.000832496 0.000239912 0.00596972)
(0.00360493 0.000111113 0.00553262)
(0.00593995 -0.000324444 0.0056576)
(0.00613588 0.00489199 0.00712559)
(6.91832e-05 0.0154152 0.0151136)
(-0.00779884 0.035836 0.0249475)
(-0.0113486 0.0587352 0.0317423)
(-0.00884485 0.0909952 0.0358349)
(0.00380247 0.114615 0.0401459)
(0.0211692 0.145162 0.0510643)
(0.047164 0.130686 0.0576615)
(0.0721047 0.187244 0.0716361)
(0.0803104 -0.00278827 0.0636249)
(0.0892248 0.400907 0.0395832)
(-0.0262147 -0.0829491 0.0293728)
(-0.0577774 0.607018 0.0451611)
(-0.0386634 0.691686 -0.00908184)
(-0.0351184 0.672873 0.000681913)
(-0.0246732 0.712866 -0.000653963)
(-0.0167472 0.70611 0.00763696)
(-0.00880271 0.712419 0.00694347)
(-0.00513212 0.708689 0.00849403)
(0.000153156 0.708412 0.00867933)
(0.00403284 0.708546 0.0102364)
(0.00814997 0.707022 0.0113643)
(0.0106501 0.706444 0.0120126)
(0.0126816 0.707828 0.0128987)
(0.0149986 0.707126 0.0143057)
(0.0167549 0.705009 0.0159207)
(0.0175585 0.699961 0.0174576)
(0.0174502 0.694915 0.0187387)
(0.0168576 0.687106 0.0195283)
(0.0155679 0.677585 0.0198492)
(0.0137748 0.666296 0.0193822)
(0.0120089 0.654388 0.0183174)
(0.010538 0.644136 0.0165487)
(0.0097265 0.630626 0.0139237)
(0.00875428 0.617031 0.0105995)
(0.00775643 0.60993 0.0070384)
(0.00658212 0.605497 0.00463573)
(0.00550299 0.597795 0.00330534)
(0.00538684 0.589568 0.00332731)
(0.00514674 0.581183 0.00363773)
(0.00480893 0.573666 0.00513028)
(0.00332455 0.563651 0.00778967)
(7.82784e-06 0.544118 0.0103564)
(-0.00496926 0.519831 0.0126801)
(-0.0108357 0.496618 0.012894)
(-0.0188782 0.477426 0.00899313)
(-0.0264243 0.45566 -0.000482756)
(-0.0326089 0.439784 -0.0188668)
(0.00628547 0.00946688 -0.00256502)
(0.0265845 0.0302417 0.00746145)
(0.0107873 0.0121579 0.00200096)
(0.0181073 0.0233274 0.00374229)
(0.012458 0.00565718 0.00139233)
(0.0101855 0.00835665 0.000244095)
(0.00130876 -0.0015643 -0.00148136)
(-0.00045489 0.00362466 -0.00179208)
(-0.00355634 -0.000361852 -0.00108832)
(-0.00487503 0.00216041 -0.00046805)
(-0.00630882 -0.000208508 -9.87343e-05)
(-0.00712299 0.000549543 0.000737535)
(-0.00761503 -0.00071104 0.00145734)
(-0.00706465 -0.000146163 0.0023305)
(-0.00704396 -0.000275301 0.00306283)
(-0.00711232 0.000449999 0.00367564)
(-0.00752515 0.000712811 0.00412826)
(-0.00785991 0.00123497 0.00440567)
(-0.00820153 0.00147138 0.00451266)
(-0.00838373 0.0017723 0.00452579)
(-0.00847604 0.00193877 0.00446465)
(-0.00847848 0.00208881 0.00438648)
(-0.00845642 0.00216807 0.0043072)
(-0.00841613 0.00221839 0.00423995)
(-0.00836529 0.00223466 0.00418228)
(-0.00829772 0.00223443 0.00413629)
(-0.00821381 0.00222655 0.00410183)
(-0.00811635 0.0022195 0.00407869)
(-0.00801748 0.00221735 0.00406462)
(-0.00794373 0.0022256 0.00405797)
(-0.00790565 0.00225919 0.00405489)
(-0.00788753 0.00231713 0.00404763)
(-0.00788254 0.00243999 0.00403068)
(-0.00787449 0.00255116 0.00399879)
(-0.00780684 0.00276963 0.00394944)
(-0.00772283 0.00286183 0.00388586)
(-0.00753658 0.00315126 0.00380574)
(-0.00738843 0.00311615 0.00369989)
(-0.00716327 0.00341164 0.00354974)
(-0.00702536 0.0030359 0.00336283)
(-0.00664453 0.00326399 0.00315029)
(-0.00621877 0.00246292 0.00296648)
(-0.00531769 0.0027902 0.00289041)
(-0.00450518 0.00168885 0.00309719)
(-0.00361287 0.00220391 0.0033717)
(-0.00265468 -0.000368279 0.00286688)
(-0.000986356 0.00184841 0.00255589)
(-0.000572011 0.0019897 0.00266754)
(-0.00458204 0.00954583 0.0048931)
(-0.0149561 0.0178312 0.0131642)
(-0.0301769 0.0310272 0.0244004)
(-0.0350147 0.0422093 0.0306865)
(-0.0329444 0.0665083 0.0311887)
(-0.020141 0.0761922 0.0282489)
(-0.00306609 0.118755 0.0352433)
(0.0309505 0.0838484 0.0401165)
(0.0676231 0.183326 0.0599455)
(0.0926641 -0.0284391 0.0654262)
(0.178845 0.425618 0.0319211)
(-0.0471881 -0.108613 0.0229605)
(-0.126998 0.572827 0.02669)
(-0.0538824 0.672725 -0.00736792)
(-0.0484454 0.627197 0.00326564)
(-0.0230828 0.66478 0.00429194)
(-0.0173302 0.640896 0.00958048)
(-0.00550439 0.642591 0.00590712)
(-0.00463459 0.632358 0.00482707)
(-0.000578294 0.630932 0.00297841)
(0.00173151 0.629106 0.00243207)
(0.00487948 0.629299 0.00174135)
(0.00607933 0.629242 0.0006284)
(0.00746403 0.631347 0.000826624)
(0.00875687 0.632069 0.00150754)
(0.0110101 0.634644 0.00310684)
(0.013297 0.63705 0.00489894)
(0.0151917 0.63827 0.00686467)
(0.0158732 0.63573 0.00797872)