/*--------------------------------*- C++ -*----------------------------------*\
| =========                 |                                                 |
| \\      /  F ield         | OpenFOAM: The Open Source CFD Toolbox           |
|  \\    /   O peration     | Version:  2.3.0                                 |
|   \\  /    A nd           | Web:      www.OpenFOAM.org                      |
|    \\/     M anipulation  |                                                 |
\*---------------------------------------------------------------------------*/
FoamFile
{
    version     2.0;
    format      ascii;
    class       volVectorField;
    location    "49";
    object      Ur;
}
// * * * * * * * * * * * * * * * * * * * * * * * * * * * * * * * * * * * * * //

dimensions      [0 1 -1 0 0 0 0];

internalField   nonuniform List<vector> 
6144
(
(-3.43958e-07 0.00033303 1.75522e-09)
(-5.28406e-07 0.000362092 -2.31882e-08)
(-4.67745e-07 0.000394378 -2.74119e-08)
(-5.75824e-07 0.000421375 -6.47949e-08)
(-6.8495e-07 0.000454361 -8.90092e-08)
(-7.99732e-07 0.000503785 -1.40771e-07)
(-8.35037e-07 0.0005633 -1.64464e-07)
(-8.12042e-07 0.000618177 -1.71825e-07)
(-7.33987e-07 0.000659295 -1.36613e-07)
(-6.33506e-07 0.000682024 -1.11862e-07)
(-5.46787e-07 0.000690343 -1.06011e-07)
(-4.70933e-07 0.00069327 -9.09745e-08)
(-4.09887e-07 0.000695241 -7.08724e-08)
(-3.5618e-07 0.000696891 -6.38212e-08)
(-3.08461e-07 0.000698228 -5.19978e-08)
(-2.71048e-07 0.000699259 -4.48863e-08)
(-2.3632e-07 0.000700044 -3.7613e-08)
(-2.12806e-07 0.000700642 -3.45109e-08)
(-1.92024e-07 0.000701087 -3.06178e-08)
(-1.81913e-07 0.000701409 -2.92878e-08)
(-1.70869e-07 0.000701632 -2.5472e-08)
(-1.70552e-07 0.000701761 -2.3399e-08)
(-1.65955e-07 0.000701816 -1.76547e-08)
(-1.72768e-07 0.000701815 -1.58164e-08)
(-1.71698e-07 0.000701781 -1.00179e-08)
(-1.83486e-07 0.000701728 -9.39418e-09)
(-1.83617e-07 0.000701669 -4.42554e-09)
(-1.99401e-07 0.000701603 -5.31336e-09)
(-2.00395e-07 0.000701549 -8.13542e-10)
(-2.17736e-07 0.000701515 -4.62226e-09)
(-2.16179e-07 0.000701518 -2.46345e-09)
(-2.33147e-07 0.000701562 -1.08644e-08)
(-2.27048e-07 0.000701666 -1.26683e-08)
(-2.42405e-07 0.000701835 -2.7723e-08)
(-2.27748e-07 0.00070209 -3.68968e-08)
(-2.3398e-07 0.000702442 -6.45571e-08)
(-2.08543e-07 0.000702922 -8.75065e-08)
(-2.03951e-07 0.000703544 -1.34086e-07)
(-1.54953e-07 0.000704329 -1.7757e-07)
(-1.28735e-07 0.000705297 -2.4829e-07)
(-5.53692e-08 0.000706476 -3.26914e-07)
(3.00932e-08 0.000707858 -4.34297e-07)
(2.26999e-07 0.000709851 -4.88717e-07)
(5.4486e-07 0.000714488 -4.97489e-07)
(9.86109e-07 0.000738106 -3.58876e-07)
(1.18594e-06 0.000870751 -1.39496e-07)
(6.21367e-07 0.00122152 5.73042e-08)
(-1.08688e-06 0.00171733 -1.42541e-07)
(-3.866e-06 0.00222648 -2.48354e-06)
(-9.88541e-06 0.00275489 -9.28556e-06)
(-8.86508e-06 0.00324375 -1.98444e-05)
(-1.61204e-05 0.00356169 -3.41136e-05)
(-1.42776e-05 0.00371381 -3.60812e-05)
(-2.33417e-05 0.00385333 -4.17436e-05)
(-2.33963e-05 0.00400749 -3.59586e-05)
(-2.07323e-05 0.00411971 -2.63842e-05)
(-3.51432e-05 0.00448167 -0.000139392)
(-2.98816e-05 0.00562313 3.65934e-05)
(-0.000446366 0.0167607 -0.000811718)
(0.00787724 0.130697 -0.00187581)
(-0.0191206 0.614328 -0.051263)
(-0.059689 0.570471 -0.0575334)
(-0.0873125 0.330175 -0.0590306)
(-8.6531e-05 0.0269036 -7.97966e-05)
(-0.000154642 0.00590781 4.99287e-05)
(-1.87635e-05 0.00608805 -1.60929e-05)
(-7.95971e-05 0.00619251 -1.32302e-05)
(-5.4582e-05 0.00625707 -8.60418e-06)
(-1.9896e-05 0.00630484 -3.83728e-06)
(4.14912e-06 0.00634752 -9.9409e-06)
(2.9243e-05 0.00640365 -1.14989e-05)
(1.12287e-05 0.00651686 -1.19203e-05)
(-3.63958e-05 0.00668874 -6.22318e-06)
(-5.20748e-05 0.00685458 -6.95788e-06)
(-3.13826e-05 0.00699246 -1.57035e-06)
(6.7906e-06 0.00710037 -1.25861e-06)
(3.18456e-05 0.0071441 -7.67885e-06)
(3.44823e-05 0.00713594 -1.62245e-05)
(2.27042e-05 0.00711039 -2.1556e-05)
(3.53037e-06 0.00707891 -1.81538e-05)
(-1.87527e-05 0.0070308 -1.80973e-05)
(-2.82049e-05 0.00697919 -1.53685e-05)
(-2.56091e-05 0.00694248 -4.76789e-06)
(-4.43281e-06 0.00690881 -2.2189e-06)
(7.5811e-06 0.00685104 -1.22251e-05)
(1.77868e-06 0.00675227 -1.9634e-05)
(-4.87897e-06 0.00661921 -1.82087e-05)
(-1.77222e-05 0.00648738 -1.2594e-05)
(-3.60338e-05 0.0062725 -1.40607e-05)
(-2.90016e-05 0.0056046 -7.44866e-06)
(-1.68952e-05 0.00475332 -7.20961e-07)
(-1.35158e-05 0.00454083 -5.57411e-06)
(-5.30474e-06 0.00464939 -3.533e-05)
(-6.25359e-06 0.00463894 -3.32752e-05)
(-7.77099e-06 0.00459521 -3.70507e-05)
(-2.32446e-06 0.00454015 -3.55137e-05)
(-5.55919e-07 0.000311707 6.69829e-08)
(-1.04972e-06 0.00035173 5.80728e-08)
(-1.27489e-06 0.000400646 3.63093e-08)
(-1.66262e-06 0.000437513 -6.21684e-08)
(-1.9857e-06 0.000475256 -9.77948e-08)
(-2.18993e-06 0.000521711 -1.24491e-07)
(-2.25471e-06 0.000572511 -1.4623e-07)
(-2.17656e-06 0.000621885 -1.43305e-07)
(-1.97991e-06 0.000660657 -1.25535e-07)
(-1.73294e-06 0.000682072 -9.56558e-08)
(-1.50308e-06 0.00069012 -7.53933e-08)
(-1.29321e-06 0.000693286 -5.94585e-08)
(-1.12258e-06 0.000695411 -3.55169e-08)
(-9.80142e-07 0.000697192 -1.0939e-08)
(-8.52347e-07 0.000698636 9.12508e-10)
(-7.48616e-07 0.000699729 9.79871e-09)
(-6.59695e-07 0.000700526 9.95301e-09)
(-5.93745e-07 0.000701099 1.15936e-08)
(-5.43441e-07 0.000701509 6.72576e-09)
(-5.13728e-07 0.000701807 7.50261e-09)
(-4.94538e-07 0.000702012 1.45834e-09)
(-4.95505e-07 0.000702124 6.93256e-09)
(-5.00957e-07 0.00070217 4.91919e-09)
(-5.19423e-07 0.000702169 1.34179e-08)
(-5.36426e-07 0.000702139 1.05208e-08)
(-5.64027e-07 0.000702099 1.98136e-08)
(-5.87982e-07 0.000702052 1.54582e-08)
(-6.22708e-07 0.000702 2.79605e-08)
(-6.48269e-07 0.000701958 2.30522e-08)
(-6.83457e-07 0.000701944 3.40983e-08)
(-7.03112e-07 0.000701966 2.37334e-08)
(-7.28913e-07 0.000702035 3.22213e-08)
(-7.34456e-07 0.000702159 1.58555e-08)
(-7.43999e-07 0.000702351 2.1462e-08)
(-7.24183e-07 0.000702627 -4.44894e-09)
(-7.03784e-07 0.000702997 -9.26808e-09)
(-6.33403e-07 0.000703486 -4.87076e-08)
(-5.49089e-07 0.000704119 -7.1133e-08)
(-4.02447e-07 0.00070491 -1.46019e-07)
(-2.28333e-07 0.000705896 -2.07513e-07)
(1.94376e-08 0.00070714 -3.37971e-07)
(3.22181e-07 0.000708775 -4.68336e-07)
(7.87475e-07 0.000711351 -5.57198e-07)
(1.53076e-06 0.000716124 -5.47752e-07)
(2.74562e-06 0.000734846 -4.10313e-07)
(3.98754e-06 0.000823517 9.61184e-08)
(4.86295e-06 0.00107063 5.08998e-07)
(4.76378e-06 0.00151351 2.44435e-07)
(-2.66055e-07 0.00211857 -2.90052e-06)
(-6.13315e-06 0.0028071 -8.85721e-06)
(-1.72231e-05 0.00343098 -2.27502e-05)
(-1.69041e-05 0.00380951 -3.96129e-05)
(-6.39014e-06 0.00394181 -4.17589e-05)
(-1.47786e-05 0.00402305 -4.48983e-05)
(-2.63128e-05 0.0041634 -4.19146e-05)
(-3.40277e-05 0.00426982 -1.08429e-05)
(-0.000108077 0.00482531 -0.000130976)
(8.66884e-05 0.00535808 0.000169963)
(-0.000157603 0.0135052 -0.000133506)
(0.00886004 0.0962865 0.00351604)
(-0.0463504 0.620231 -0.0330836)
(-0.0882987 0.547839 -0.065014)
(-0.0981168 0.300277 -0.0632365)
(-9.73732e-05 0.0285558 0.000134397)
(-7.65875e-05 0.00605532 1.41421e-05)
(-2.81037e-05 0.00668722 -2.43536e-05)
(-4.63592e-08 0.00671749 -6.72065e-06)
(2.26934e-05 0.00663858 5.48259e-06)
(3.95076e-06 0.00660352 -1.01276e-05)
(-1.64322e-06 0.00675611 -2.08634e-05)
(-4.61e-07 0.00713026 -4.4887e-05)
(-1.01997e-05 0.00749399 -3.69e-05)
(4.64436e-05 0.00755554 2.29525e-05)
(3.93834e-05 0.0073457 2.62006e-05)
(3.57886e-06 0.00711593 2.1661e-05)
(-1.20812e-05 0.00695708 8.63243e-06)
(-1.91523e-05 0.00684068 -1.26912e-05)
(-8.21516e-06 0.00674917 -3.14804e-05)
(6.13215e-06 0.0066721 -5.0067e-05)
(1.22006e-05 0.0065912 -6.4967e-05)
(9.16424e-06 0.00650785 -3.64579e-05)
(8.07547e-06 0.00642514 -1.5452e-05)
(3.70465e-06 0.00639068 -3.3117e-07)
(-3.26747e-06 0.00640456 1.85114e-05)
(-1.36521e-05 0.00641906 -1.6434e-05)
(-2.69327e-05 0.00643114 -4.24791e-05)
(-4.08437e-05 0.00642443 -2.59124e-05)
(-4.49546e-05 0.00639767 -1.93885e-05)
(-3.53375e-05 0.00622886 -2.94313e-05)
(-4.58716e-05 0.00556548 -2.07018e-05)
(-4.76633e-05 0.00478098 -6.28418e-06)
(-3.49137e-05 0.00465256 -8.04834e-06)
(-1.43576e-05 0.00474105 -3.92841e-05)
(-8.80592e-06 0.00467148 -3.75481e-05)
(-1.00239e-05 0.00462202 -4.31244e-05)
(-3.37949e-06 0.00453132 -2.13249e-05)
(-7.27309e-07 0.000298409 1.58582e-07)
(-1.54121e-06 0.000334396 2.35855e-07)
(-2.23499e-06 0.000387379 9.64046e-08)
(-2.78829e-06 0.000435175 -3.04772e-08)
(-3.19807e-06 0.000482889 -6.32687e-08)
(-3.49001e-06 0.000531903 -1.15865e-07)
(-3.54863e-06 0.000579578 -1.10268e-07)
(-3.39014e-06 0.000623189 -1.03837e-07)
(-3.08776e-06 0.000655362 -7.01829e-08)
(-2.73344e-06 0.000674972 -5.03105e-08)
(-2.38348e-06 0.000685421 -3.22704e-08)
(-2.09429e-06 0.000690974 -1.27345e-08)
(-1.84592e-06 0.000694455 5.54097e-09)
(-1.63956e-06 0.000696823 2.40386e-08)
(-1.46016e-06 0.000698494 3.63572e-08)
(-1.31827e-06 0.000699707 4.54552e-08)
(-1.20425e-06 0.000700556 5.17019e-08)
(-1.12099e-06 0.000701134 5.67891e-08)
(-1.06157e-06 0.000701544 6.04334e-08)
(-1.02959e-06 0.000701829 6.40555e-08)
(-1.01544e-06 0.000702014 6.75541e-08)
(-1.02413e-06 0.000702116 7.08678e-08)
(-1.04438e-06 0.000702156 7.44079e-08)
(-1.08324e-06 0.000702149 7.78392e-08)
(-1.12561e-06 0.000702112 8.15134e-08)
(-1.18209e-06 0.000702057 8.41952e-08)
(-1.23538e-06 0.000701997 8.67497e-08)
(-1.29796e-06 0.000701942 8.76876e-08)
(-1.34875e-06 0.000701904 8.88326e-08)
(-1.40419e-06 0.000701893 8.94624e-08)
(-1.44068e-06 0.000701918 8.85847e-08)
(-1.479e-06 0.000701981 8.43375e-08)
(-1.48666e-06 0.000702095 7.92369e-08)
(-1.48686e-06 0.000702279 6.95014e-08)
(-1.44157e-06 0.000702553 5.5908e-08)
(-1.37618e-06 0.000702943 3.46552e-08)
(-1.23517e-06 0.000703466 2.05261e-09)
(-1.05391e-06 0.000704136 -4.50821e-08)
(-7.7922e-07 0.000704997 -1.07801e-07)
(-4.44887e-07 0.000706088 -2.07655e-07)
(-1.26139e-09 0.000707523 -3.4966e-07)
(4.98021e-07 0.000710118 -5.27055e-07)
(1.15083e-06 0.000717147 -6.55666e-07)
(2.01864e-06 0.000731917 -6.59799e-07)
(3.55858e-06 0.000755448 -1.75633e-07)
(6.03062e-06 0.000807294 6.49827e-07)
(9.76803e-06 0.000954295 1.1597e-06)
(1.428e-05 0.00128976 1.01741e-06)
(1.38119e-05 0.00187765 -1.0503e-06)
(1.47125e-05 0.00267067 -4.2387e-06)
(5.5734e-06 0.0034614 -3.31392e-05)
(2.00636e-05 0.00385452 -4.25403e-05)
(2.07817e-05 0.00396044 -4.53321e-05)
(2.70877e-05 0.00400891 -3.95761e-05)
(-6.32658e-06 0.00410699 -4.48858e-05)
(-1.44158e-05 0.00417322 -2.73136e-05)
(-0.000295451 0.00512716 -0.000206986)
(0.000179709 0.0057313 6.08606e-05)
(-0.000409133 0.0111954 -4.35957e-05)
(0.00686934 0.0750019 0.0052497)
(-0.038479 0.602316 -0.000908276)
(-0.071101 0.519736 -0.0347991)
(-0.0387345 0.290544 -0.025693)
(-3.59464e-06 0.0292756 0.000122963)
(-3.95099e-05 0.00625959 2.66522e-05)
(-3.5775e-06 0.00698261 -1.07413e-06)
(-2.17207e-05 0.00730633 2.53455e-05)
(-2.35084e-05 0.00783431 7.02819e-06)
(-2.00174e-05 0.00814613 -5.32661e-05)
(-9.47677e-07 0.00816026 -7.09153e-05)
(-1.95717e-05 0.00798642 -4.46973e-05)
(-3.48218e-05 0.00775788 1.0596e-05)
(-1.33543e-05 0.00755025 3.26135e-05)
(-1.98758e-05 0.00731821 4.17019e-05)
(-3.04211e-05 0.00709598 8.29142e-06)
(-4.37978e-05 0.00695082 -6.01998e-06)
(-4.4794e-05 0.00684226 -2.30201e-05)
(-2.07169e-05 0.00673327 -3.86373e-05)
(4.47447e-06 0.00660249 -3.57264e-05)
(1.62303e-05 0.00648273 -2.54987e-05)
(2.09491e-05 0.00641472 -1.80758e-05)
(1.18801e-05 0.00639625 -1.542e-05)
(4.16301e-06 0.00640083 -1.60586e-05)
(-3.8244e-06 0.006402 -2.2749e-05)
(-4.72591e-06 0.00638153 -2.8966e-05)
(1.96336e-05 0.00639627 -1.80024e-05)
(2.22769e-05 0.00644036 -2.01433e-05)
(-1.89433e-05 0.00640677 -3.5543e-05)
(-4.7256e-05 0.00597479 -4.33111e-05)
(-5.89537e-05 0.00515628 -3.39739e-05)
(-5.21511e-05 0.0047063 -1.19448e-05)
(-4.25691e-05 0.00480211 -1.99887e-05)
(-1.97117e-05 0.00483263 -4.33981e-05)
(-7.59801e-07 0.00472202 -3.55267e-05)
(-1.10093e-06 0.00463821 -3.06146e-05)
(-1.9861e-06 0.00456045 -2.20813e-05)
(-1.05764e-06 0.00029005 2.14144e-07)
(-2.22842e-06 0.000317531 3.37216e-07)
(-3.33132e-06 0.00036503 1.81275e-07)
(-3.99234e-06 0.000418064 6.18169e-08)
(-4.43364e-06 0.00047847 -6.03841e-08)
(-4.69698e-06 0.000533228 -1.12811e-07)
(-4.7754e-06 0.000578246 -1.09376e-07)
(-4.52929e-06 0.000618633 -8.41987e-08)
(-4.1219e-06 0.000650299 -5.99579e-08)
(-3.65545e-06 0.000671162 -4.27334e-08)
(-3.21277e-06 0.000683137 -2.27073e-08)
(-2.82926e-06 0.000690018 -4.98094e-09)
(-2.5037e-06 0.000694222 1.0977e-08)
(-2.2372e-06 0.000696809 2.93438e-08)
(-2.01755e-06 0.000698494 4.01748e-08)
(-1.85261e-06 0.000699679 5.0425e-08)
(-1.73225e-06 0.000700483 5.71306e-08)
(-1.65279e-06 0.00070101 6.62855e-08)
(-1.60661e-06 0.000701374 6.98774e-08)
(-1.58838e-06 0.000701623 7.79821e-08)
(-1.59568e-06 0.000701779 7.86144e-08)
(-1.6215e-06 0.000701862 8.71507e-08)
(-1.66796e-06 0.00070188 8.52718e-08)
(-1.72546e-06 0.000701853 9.41478e-08)
(-1.79917e-06 0.000701795 8.92931e-08)
(-1.87589e-06 0.000701725 9.85388e-08)
(-1.96312e-06 0.000701654 9.02265e-08)
(-2.04446e-06 0.000701599 9.95319e-08)
(-2.13038e-06 0.00070157 8.73168e-08)
(-2.19899e-06 0.000701577 9.49656e-08)
(-2.26651e-06 0.000701626 7.77696e-08)
(-2.30759e-06 0.000701728 8.50242e-08)
(-2.33513e-06 0.000701887 6.01358e-08)
(-2.3179e-06 0.000702123 6.14624e-08)
(-2.26925e-06 0.000702453 2.25865e-08)
(-2.15116e-06 0.000702907 1.08482e-08)
(-1.98406e-06 0.000703507 -5.033e-08)
(-1.72261e-06 0.000704293 -8.56003e-08)
(-1.38513e-06 0.000705277 -1.80394e-07)
(-9.37115e-07 0.000706482 -2.60336e-07)
(-4.08991e-07 0.000708144 -4.25055e-07)
(2.38118e-07 0.000712046 -5.79778e-07)
(9.58243e-07 0.000725649 -7.34114e-07)
(1.8171e-06 0.000758172 -8.39286e-07)
(3.22667e-06 0.000806946 -4.70665e-07)
(6.10472e-06 0.000892963 7.98343e-07)
(1.1064e-05 0.00107659 2.33929e-06)
(2.01213e-05 0.00135688 2.03404e-06)
(2.76268e-05 0.00184371 -6.15358e-07)
(3.68362e-05 0.00267659 -1.15666e-05)
(5.2315e-05 0.00348496 -3.55732e-05)
(5.96402e-05 0.00383853 -6.3414e-05)
(1.98761e-05 0.00391733 -5.86586e-05)
(-4.64278e-06 0.00389126 -5.55544e-05)
(1.56722e-05 0.0039185 -0.000101405)
(-3.7408e-05 0.00387376 -0.000143033)
(-0.000513727 0.00554187 -0.000269668)
(-0.00014216 0.00672342 -0.0001682)
(-0.000687729 0.0110713 5.67364e-06)
(0.0187678 0.0959904 0.0106281)
(-0.0450845 0.61558 -0.0121345)
(-0.0431304 0.380798 -0.0197332)
(-0.000851076 0.0224295 -0.000748907)
(0.000108455 0.0063083 -0.000778711)
(-4.19665e-05 0.00716286 -0.00038967)
(-7.01751e-05 0.00732879 2.57414e-05)
(-8.78346e-05 0.00757634 3.31277e-05)
(-0.000169361 0.00764085 -4.87437e-05)
(-0.000279922 0.00757382 -5.87857e-05)
(-3.67563e-05 0.00769664 -5.18908e-05)
(-2.94962e-05 0.00770955 -2.81268e-05)
(-0.000194267 0.00761606 -4.76126e-06)
(-0.00031024 0.00761821 9.03091e-06)
(-0.00010968 0.00761843 -9.2031e-06)
(-6.03293e-05 0.0075212 -5.06921e-05)
(-4.16659e-05 0.00732445 -0.000393871)
(-1.10526e-05 0.00712127 -0.000425451)
(3.48517e-05 0.00696672 -5.43161e-05)
(3.58451e-05 0.00679831 -3.40385e-05)
(2.27449e-05 0.00660615 -1.70391e-05)
(1.38226e-05 0.0064828 -5.67866e-06)
(2.14949e-05 0.00646091 -6.15958e-06)
(2.73082e-05 0.00647409 -1.71355e-05)
(1.61818e-05 0.00648445 -2.08903e-05)
(5.24712e-06 0.00645587 -1.78058e-05)
(5.0977e-06 0.00629001 -1.46773e-05)
(1.36556e-05 0.00596117 -1.38781e-05)
(9.03006e-06 0.00560522 -1.97487e-05)
(-2.01318e-05 0.00519372 -2.3268e-05)
(-3.34995e-05 0.00482504 -1.91163e-05)
(-3.07986e-05 0.00478661 -1.30517e-05)
(-3.03927e-05 0.0049108 -3.03765e-05)
(-1.79835e-05 0.00494012 -4.33913e-05)
(4.34009e-06 0.00485052 -2.89428e-05)
(2.53133e-06 0.00471721 -1.61756e-05)
(-1.97476e-06 0.00457861 -8.38968e-06)
(-1.52133e-06 0.000282218 8.9585e-08)
(-3.12686e-06 0.000303852 2.52586e-07)
(-4.57297e-06 0.000343907 1.03024e-07)
(-5.26652e-06 0.000394302 6.42953e-09)
(-5.68235e-06 0.000456626 -5.86492e-08)
(-5.80789e-06 0.0005167 -1.26118e-07)
(-5.79987e-06 0.000569293 -1.40003e-07)
(-5.44553e-06 0.000613516 -1.0697e-07)
(-4.95074e-06 0.000645675 -7.86182e-08)
(-4.39087e-06 0.000667763 -6.23581e-08)
(-3.85814e-06 0.000681491 -3.92523e-08)
(-3.37341e-06 0.000689684 -2.23622e-08)
(-2.97682e-06 0.000694497 -8.0717e-09)
(-2.65924e-06 0.000697229 1.06416e-08)
(-2.41249e-06 0.000698898 2.29475e-08)
(-2.23653e-06 0.000700035 3.30128e-08)
(-2.12224e-06 0.000700789 4.31602e-08)
(-2.05859e-06 0.000701272 5.03757e-08)
(-2.03674e-06 0.000701605 5.92311e-08)
(-2.04762e-06 0.000701828 6.10474e-08)
(-2.0841e-06 0.000701967 6.728e-08)
(-2.14255e-06 0.000702032 6.40195e-08)
(-2.21562e-06 0.000702038 6.94133e-08)
(-2.30355e-06 0.000701996 6.25376e-08)
(-2.39741e-06 0.00070193 6.82565e-08)
(-2.50028e-06 0.000701851 5.79435e-08)
(-2.60108e-06 0.000701776 6.37854e-08)
(-2.70589e-06 0.000701712 4.95584e-08)
(-2.80006e-06 0.000701677 5.4749e-08)
(-2.89168e-06 0.000701676 3.50673e-08)
(-2.96001e-06 0.000701723 3.89232e-08)
(-3.0134e-06 0.000701827 1.33607e-08)
(-3.02905e-06 0.000702005 1.28346e-08)
(-3.01287e-06 0.000702272 -2.46232e-08)
(-2.93947e-06 0.000702656 -3.6601e-08)
(-2.81605e-06 0.000703172 -9.09058e-08)
(-2.61728e-06 0.00070385 -1.18167e-07)
(-2.35035e-06 0.000704711 -1.90838e-07)
(-1.98889e-06 0.000705792 -2.3182e-07)
(-1.5394e-06 0.000707138 -3.29355e-07)
(-9.8635e-07 0.000709086 -4.05978e-07)
(-3.62113e-07 0.000714805 -5.26513e-07)
(2.96526e-07 0.000735558 -5.758e-07)
(1.13944e-06 0.000788397 -6.3996e-07)
(2.46985e-06 0.000885141 -5.15533e-07)
(6.0873e-06 0.00106818 7.81236e-07)
(1.24413e-05 0.00136068 2.2257e-06)
(2.35881e-05 0.0016333 1.11837e-07)
(3.73145e-05 0.00201548 -1.67773e-06)
(5.28951e-05 0.00279868 -1.46265e-05)
(5.91583e-05 0.00353114 -4.27492e-05)
(2.95946e-05 0.0038557 -7.44126e-05)
(2.40898e-05 0.00381463 -7.60552e-05)
(3.61527e-05 0.00375976 -0.000203725)
(7.95019e-05 0.00378673 -0.00034533)
(4.91112e-05 0.0035978 -0.000196238)
(-1.24365e-05 0.00635872 -0.000368158)
(-0.000664089 0.00955357 -0.000398796)
(-0.00113408 0.0118263 -0.000104661)
(0.0310014 0.142298 0.00888743)
(-0.0457573 0.681748 -0.0227445)
(-0.0352843 0.487208 -0.00822822)
(-0.036767 0.581208 -0.0173119)
(-0.0183255 0.509495 0.0079939)
(-0.019134 0.397869 0.00477968)
(-0.000482424 0.0987595 -0.000412094)
(-0.000124141 0.0518124 -4.14263e-05)
(-0.000832274 0.362006 -0.0037644)
(-0.000415314 0.436021 0.000363688)
(-0.000261901 0.0334383 4.30707e-05)
(-0.000333048 0.0308092 -0.000166701)
(-0.00291469 0.282383 -0.000652918)
(-0.000683884 0.267239 -0.00298383)
(-3.1731e-05 0.0279832 -0.000443786)
(3.49621e-06 0.00518039 -0.000509478)
(0.000138106 0.00556917 -0.000395936)
(0.000383499 0.00651827 -0.00039423)
(0.000480523 0.00809772 -0.00038615)
(0.000314381 0.00784352 -0.000297994)
(0.000115337 0.00642749 -0.000135113)
(9.57306e-05 0.00585265 -1.84792e-05)
(8.52097e-05 0.00587241 -6.81718e-05)
(6.12641e-05 0.00570877 -0.000169278)
(7.97842e-05 0.00527485 -0.000190063)
(0.000160914 0.00491101 -9.46903e-05)
(0.000177978 0.00481887 1.9963e-05)
(8.26916e-05 0.00478624 1.04432e-05)
(4.93721e-05 0.00471629 -8.77562e-05)
(9.42556e-06 0.00469879 2.90598e-06)
(-2.30695e-05 0.00472096 -4.15382e-06)
(-1.11634e-05 0.00486507 -1.41558e-05)
(-1.15721e-05 0.00502714 -2.61743e-05)
(-3.2261e-06 0.0051513 -2.26472e-05)
(6.72604e-06 0.00517519 -1.32484e-05)
(-4.12356e-06 0.00499352 -3.34829e-06)
(-1.24453e-05 0.00471101 3.97783e-06)
(-2.09637e-06 0.000273636 -2.35106e-07)
(-4.19986e-06 0.000293041 -2.38741e-09)
(-5.92835e-06 0.000324607 -7.54201e-08)
(-6.45781e-06 0.000368942 -9.97738e-08)
(-6.9122e-06 0.000431904 -1.60349e-07)
(-6.75845e-06 0.000495763 -1.24645e-07)
(-6.55999e-06 0.000554763 -1.81105e-07)
(-6.08661e-06 0.000605539 -1.48393e-07)
(-5.55166e-06 0.000640527 -1.13721e-07)
(-4.88984e-06 0.000664341 -9.45196e-08)
(-4.27551e-06 0.000680005 -7.36836e-08)
(-3.73221e-06 0.000689389 -5.84817e-08)
(-3.28274e-06 0.000694646 -3.72298e-08)
(-2.93444e-06 0.000697386 -1.19484e-08)
(-2.6798e-06 0.000698929 8.52028e-09)
(-2.50902e-06 0.000699945 2.17594e-08)
(-2.4039e-06 0.000700607 3.35696e-08)
(-2.35475e-06 0.000701023 4.21958e-08)
(-2.3499e-06 0.0007013 4.61433e-08)
(-2.38146e-06 0.000701486 4.99741e-08)
(-2.43976e-06 0.000701597 4.58455e-08)
(-2.51892e-06 0.000701648 4.62146e-08)
(-2.61205e-06 0.000701646 3.63285e-08)
(-2.71462e-06 0.000701608 3.61222e-08)
(-2.82524e-06 0.000701543 2.28878e-08)
(-2.93759e-06 0.000701474 2.37187e-08)
(-3.0503e-06 0.000701407 6.74728e-09)
(-3.15698e-06 0.00070136 7.53259e-09)
(-3.25697e-06 0.000701338 -1.3411e-08)
(-3.34323e-06 0.00070136 -1.30282e-08)
(-3.41343e-06 0.000701431 -3.90637e-08)
(-3.45699e-06 0.000701569 -4.2461e-08)
(-3.46944e-06 0.000701786 -7.94616e-08)
(-3.43906e-06 0.000702106 -9.48033e-08)
(-3.36312e-06 0.000702548 -1.48409e-07)
(-3.23105e-06 0.000703141 -1.76559e-07)
(-3.0415e-06 0.000703912 -2.41964e-07)
(-2.78687e-06 0.000704894 -2.73117e-07)
(-2.45514e-06 0.000706096 -3.33294e-07)
(-2.02949e-06 0.000707542 -3.55666e-07)
(-1.54852e-06 0.00070985 -4.0477e-07)
(-9.98026e-07 0.000718684 -3.7856e-07)
(-2.73052e-07 0.000750845 -3.06841e-07)
(3.78223e-07 0.000836595 -7.77596e-08)
(1.73309e-06 0.001027 4.6988e-08)
(5.17401e-06 0.0013299 2.69138e-07)
(1.33634e-05 0.00164572 -3.65491e-07)
(2.36356e-05 0.00186263 -2.75928e-06)
(3.87233e-05 0.00219208 3.07809e-07)
(4.62818e-05 0.00294413 -1.12532e-05)
(1.9766e-05 0.00362414 -4.79913e-05)
(7.26168e-06 0.0038362 -5.91131e-05)
(3.58384e-05 0.00376831 -0.000113745)
(6.45003e-05 0.00380082 -0.00022119)
(0.000139536 0.00380382 -0.000192585)
(0.000232579 0.00381365 -0.000144092)
(0.000686082 0.00609378 -0.000135479)
(0.000776505 0.00893411 6.76953e-05)
(-0.00146759 0.0151457 -0.000134048)
(0.0193345 0.17851 0.0071279)
(-0.0295556 0.670494 -0.0149777)
(-0.0207353 0.490837 5.87386e-05)
(-0.0471315 0.569248 -0.0242054)
(-0.000670405 0.521371 0.00430804)
(-0.00804132 0.539459 -0.014198)
(0.0100646 0.512962 -0.00673546)
(0.00204174 0.526183 -0.00581898)
(0.00792935 0.538782 -0.00222179)
(-0.00146241 0.549738 -0.000814573)
(0.00298893 0.539423 0.00102429)
(0.00875115 0.530905 -0.000547086)
(0.00545052 0.535284 -0.00550393)
(0.0038403 0.534832 -0.00655248)
(0.00251585 0.537395 -0.00871881)
(0.00162973 0.549655 -0.0073891)
(0.00399276 0.553746 -0.0064488)
(0.00688177 0.559977 0.00078753)
(0.00720006 0.565351 0.0167193)
(0.000797587 0.548068 0.0108026)
(-0.000804886 0.538554 0.00374546)
(-0.00362938 0.536272 -0.0004865)
(-0.00415882 0.538858 0.000271979)
(-0.0067487 0.536358 0.0031346)
(-0.00907774 0.533668 0.00305241)
(-0.00674784 0.533479 0.00185867)
(-0.0037427 0.531956 -0.000588066)
(-0.000319108 0.529392 -0.000747847)
(0.000949441 0.519901 -0.000812993)
(-0.000459789 0.482707 -0.00541053)
(-0.0015538 0.326246 -0.00657307)
(-0.000102723 0.028515 -0.000124257)
(-8.87288e-05 0.00523247 -0.000240507)
(-8.2528e-05 0.00533359 -0.000295736)
(-4.20153e-05 0.00524317 -0.000323419)
(-1.93997e-05 0.00467464 6.44535e-06)
(-0.000187016 0.00422351 -5.7968e-06)
(-2.88439e-06 0.000263593 -8.4488e-07)
(-5.452e-06 0.000284381 -4.13017e-07)
(-7.32473e-06 0.000310674 -2.34079e-07)
(-7.6646e-06 0.000348764 -1.4045e-07)
(-7.96901e-06 0.000410387 -2.7434e-07)
(-7.6037e-06 0.000473668 -1.89679e-07)
(-7.20776e-06 0.000533358 -2.03676e-07)
(-6.53998e-06 0.000592847 -1.91203e-07)
(-6.00344e-06 0.000635264 -1.30814e-07)
(-5.234e-06 0.00066139 -9.56964e-08)
(-4.56607e-06 0.000678718 -8.42646e-08)
(-3.89958e-06 0.00068936 -5.4943e-08)
(-3.40348e-06 0.000695125 -3.81127e-08)
(-3.06448e-06 0.000697923 -9.30576e-09)
(-2.83756e-06 0.000699411 1.35443e-08)
(-2.67087e-06 0.000700365 3.76034e-08)
(-2.57131e-06 0.000700965 5.22551e-08)
(-2.51135e-06 0.000701316 5.93937e-08)
(-2.50082e-06 0.000701541 5.76407e-08)
(-2.52574e-06 0.000701682 5.02306e-08)
(-2.58388e-06 0.000701749 4.27154e-08)
(-2.65981e-06 0.000701744 3.06432e-08)
(-2.75417e-06 0.000701697 2.38363e-08)
(-2.85359e-06 0.000701626 9.85512e-09)
(-2.96069e-06 0.000701543 4.4494e-09)
(-3.06668e-06 0.000701455 -1.06313e-08)
(-3.17869e-06 0.000701383 -1.45363e-08)
(-3.28035e-06 0.000701335 -3.22931e-08)
(-3.37877e-06 0.000701328 -3.64179e-08)
(-3.45513e-06 0.000701367 -5.81367e-08)
(-3.51753e-06 0.000701469 -6.5135e-08)
(-3.54359e-06 0.00070164 -9.34644e-08)
(-3.54308e-06 0.000701899 -1.08159e-07)
(-3.48981e-06 0.000702264 -1.49406e-07)
(-3.39975e-06 0.000702759 -1.77715e-07)
(-3.24461e-06 0.000703411 -2.29627e-07)
(-3.0504e-06 0.000704257 -2.57184e-07)
(-2.78542e-06 0.000705327 -2.99301e-07)
(-2.46497e-06 0.000706652 -3.06848e-07)
(-2.04046e-06 0.000708192 -3.21432e-07)
(-1.57008e-06 0.000711689 -2.52856e-07)
(-9.67291e-07 0.000729832 -8.60955e-08)
(-4.30479e-07 0.000799621 2.53288e-07)
(1.01419e-07 0.000976433 7.02019e-07)
(1.49877e-06 0.00126037 8.23486e-07)
(4.0611e-06 0.00156284 -2.67642e-07)
(9.53687e-06 0.00182232 -3.71964e-06)
(2.03294e-05 0.00201195 -6.31174e-06)
(3.75855e-05 0.00234424 8.58177e-06)
(5.72545e-05 0.00308752 3.41396e-05)
(3.1768e-05 0.00373096 1.17133e-05)
(3.6046e-06 0.00385614 -6.53513e-05)
(2.70965e-06 0.00381028 -9.62799e-05)
(7.05159e-05 0.00387005 -9.88544e-05)
(0.000207468 0.00390042 -5.68397e-05)
(0.000433784 0.00409219 -8.38393e-05)
(0.000445511 0.00581348 -0.000126899)
(0.000512845 0.00732346 0.000294391)
(-0.0010849 0.0102188 0.000411699)
(0.00199809 0.211646 0.00596379)
(-0.0126491 0.635197 -0.00714531)
(-0.0173468 0.518934 -0.000761359)
(-0.0432335 0.54229 -0.0189137)
(0.0177425 0.525318 0.00469792)
(-0.0141338 0.554215 -0.015077)
(0.00240306 0.539214 -0.00174818)
(-0.00942961 0.550525 -0.000717886)
(-0.00806181 0.5594 -0.0071991)
(0.00032005 0.572376 -0.0110222)
(0.00371119 0.581489 -0.00448356)
(0.00583073 0.573402 0.00153547)
(0.000309119 0.557997 0.00144425)
(0.00182918 0.555229 0.00181443)
(0.00125074 0.549262 0.00200381)
(0.000501755 0.545034 2.98674e-05)
(0.000638876 0.542981 -0.00136234)
(0.00127612 0.540809 -0.00317035)
(0.00310366 0.541661 -0.0042396)
(0.00105702 0.539234 -0.0041468)
(-0.00109566 0.536439 -0.00288059)
(-0.00218322 0.535477 0.000595456)
(-0.00340334 0.534192 0.00392073)
(-0.0062388 0.531749 0.00559248)
(-0.00874996 0.528636 0.00552389)
(-0.00833541 0.528882 0.00264642)
(-0.00974687 0.530199 -0.000143615)
(-0.00963393 0.53422 -0.00308792)
(-0.00974249 0.535603 -0.00525174)
(-0.00943983 0.535472 -0.00545867)
(-0.00823431 0.529602 -0.000792788)
(-0.0060204 0.510497 0.0066645)
(-0.000303819 0.475556 0.0104819)
(0.00244585 0.314893 0.00991456)
(-0.00020471 0.0283379 -0.000281014)
(-0.000565916 0.0299932 -0.000208211)
(-0.00442315 0.374411 -0.00067572)
(-3.62543e-06 0.000248198 -1.92678e-06)
(-7.00499e-06 0.000276102 -9.14774e-07)
(-8.75499e-06 0.000302969 -4.10547e-07)
(-8.82329e-06 0.000337291 -5.69933e-08)
(-8.7397e-06 0.000396222 -2.56249e-07)
(-8.30235e-06 0.000459776 -2.80226e-07)
(-7.6221e-06 0.000519918 -1.94438e-07)
(-6.71172e-06 0.000581607 -2.2833e-07)
(-6.20496e-06 0.000629227 -1.20637e-07)
(-5.31817e-06 0.000659258 -1.04423e-07)
(-4.64244e-06 0.000678108 -6.21805e-08)
(-3.96532e-06 0.000689449 -2.26827e-08)
(-3.50134e-06 0.000695469 2.2482e-08)
(-3.17766e-06 0.000698244 6.45746e-08)
(-2.96724e-06 0.000699629 9.70198e-08)
(-2.80702e-06 0.000700532 1.14077e-07)
(-2.70628e-06 0.000701084 1.31143e-07)
(-2.6451e-06 0.000701378 1.43502e-07)
(-2.62846e-06 0.000701548 1.53164e-07)
(-2.65126e-06 0.000701648 1.58313e-07)
(-2.70302e-06 0.000701691 1.55666e-07)
(-2.77848e-06 0.000701697 1.49125e-07)
(-2.86685e-06 0.00070167 1.35461e-07)
(-2.96755e-06 0.000701622 1.23183e-07)
(-3.06897e-06 0.000701564 1.0453e-07)
(-3.17578e-06 0.000701506 9.13065e-08)
(-3.27733e-06 0.000701462 7.1054e-08)
(-3.3767e-06 0.000701449 5.77224e-08)
(-3.45495e-06 0.000701473 3.56563e-08)
(-3.51985e-06 0.000701549 2.03888e-08)
(-3.55034e-06 0.000701689 -6.4813e-09)
(-3.55676e-06 0.00070191 -2.89775e-08)
(-3.51611e-06 0.000702227 -6.55886e-08)
(-3.44151e-06 0.000702662 -9.61335e-08)
(-3.30636e-06 0.000703236 -1.40197e-07)
(-3.12329e-06 0.00070397 -1.77325e-07)
(-2.85919e-06 0.000704892 -2.19624e-07)
(-2.53915e-06 0.000706025 -2.41185e-07)
(-2.1212e-06 0.000707365 -2.3973e-07)
(-1.62773e-06 0.000709284 -1.81563e-07)
(-9.49119e-07 0.000717818 -8.2769e-11)
(-2.13157e-07 0.000760462 4.22697e-07)
(3.50495e-07 0.000891416 1.12723e-06)
(8.02992e-07 0.00112779 1.49067e-06)
(1.23673e-06 0.00139904 1.04591e-06)
(2.12293e-06 0.00164898 -2.33245e-06)
(4.30114e-06 0.00190136 -5.8733e-06)
(1.24025e-05 0.00212995 -6.95811e-06)
(2.73035e-05 0.0025099 1.40858e-05)
(5.79569e-05 0.00325832 3.61384e-05)
(4.54667e-05 0.00379096 1.66923e-05)
(1.1431e-05 0.00384844 -4.00417e-05)
(-5.71703e-06 0.00382329 -5.50982e-05)
(3.36609e-05 0.0039271 -4.6239e-05)
(8.32558e-05 0.00407241 8.41589e-06)
(0.000156269 0.0042535 9.18735e-05)
(-0.000250642 0.0056989 -0.00032218)
(-0.000105429 0.00734491 0.000160283)
(0.00025772 0.0109397 0.000553555)
(-0.0208276 0.309183 -0.00678294)
(-0.00531763 0.639867 -0.00824446)
(-0.00103672 0.539258 -0.00636796)
(0.00149614 0.544481 0.000911702)
(-0.00113563 0.560774 -0.00544867)
(-0.00194499 0.550957 -0.00318679)
(-0.00502994 0.552758 -0.00325662)
(-0.00442659 0.553833 -0.00291506)
(-0.00826383 0.562254 -0.00401534)
(-0.00822726 0.557353 -0.00226641)
(-0.00646022 0.547714 -0.00221571)
(-0.00463145 0.537226 0.000166909)
(-0.00407239 0.543821 -0.00195072)
(-0.00142554 0.539757 -0.00102869)
(-0.000691841 0.540312 -0.00171705)
(0.0011447 0.539961 -0.00184999)
(0.00171771 0.540753 -0.00125386)
(0.00227696 0.542226 -0.00075479)
(0.00305725 0.544054 4.38144e-05)
(0.00279708 0.548107 0.000552916)
(0.00216974 0.546609 0.000746331)
(0.00159316 0.542291 0.000181018)
(-0.000745564 0.54171 -0.000869968)
(-0.00323133 0.539018 -0.00115493)
(-0.00496868 0.53859 0.00121157)
(-0.0070363 0.535061 0.00299746)
(-0.00828172 0.533316 0.00547895)
(-0.00873663 0.531905 0.00701968)
(-0.00701433 0.533796 0.00706599)
(-0.00520972 0.537341 0.00789214)
(-0.00444213 0.536854 0.0109605)
(-0.00750831 0.533304 0.0146682)
(-0.0100064 0.529815 0.0151927)
(-0.0147401 0.519721 0.0118174)
(-0.0193431 0.500578 0.00615463)
(-0.0129759 0.497707 0.00198319)
(-0.00520372 0.494014 -0.0035817)
(-6.29023e-06 0.000100606 -5.55979e-06)
(-8.70365e-06 0.000269806 -1.93112e-06)