/*--------------------------------*- C++ -*----------------------------------*\
| =========                 |                                                 |
| \\      /  F ield         | OpenFOAM: The Open Source CFD Toolbox           |
|  \\    /   O peration     | Version:  2.3.0                                 |
|   \\  /    A nd           | Web:      www.OpenFOAM.org                      |
|    \\/     M anipulation  |                                                 |
\*---------------------------------------------------------------------------*/
FoamFile
{
    version     2.0;
    format      ascii;
    class       volScalarField;
    location    "41";
    object      alpha.airMean;
}
// * * * * * * * * * * * * * * * * * * * * * * * * * * * * * * * * * * * * * //

dimensions      [0 0 0 0 0 0 0];

internalField   nonuniform List<scalar> 
6144
(
0.999993
0.999993
0.999992
0.999992
0.999992
0.999991
0.999991
0.99999
0.99999
0.99999
0.99999
0.99999
0.99999
0.99999
0.99999
0.99999
0.99999
0.99999
0.99999
0.99999
0.99999
0.99999
0.99999
0.99999
0.99999
0.99999
0.99999
0.99999
0.99999
0.99999
0.99999
0.99999
0.99999
0.99999
0.99999
0.99999
0.99999
0.99999
0.99999
0.99999
0.99999
0.99999
0.99999
0.99999
0.99999
0.999989
0.999986
0.999979
0.999966
0.999951
0.999937
0.999924
0.999918
0.999912
0.999909
0.999902
0.9999
0.999894
0.998724
0.935975
0.0371914
0.000244653
1.10308e-06
7.77903e-07
7.76381e-07
7.70246e-07
7.7089e-07
7.66044e-07
7.67352e-07
7.64562e-07
7.64861e-07
7.62567e-07
7.60611e-07
7.57858e-07
7.54894e-07
7.51187e-07
7.48943e-07
7.46854e-07
7.44216e-07
7.38662e-07
7.3073e-07
7.22792e-07
7.16001e-07
7.0817e-07
6.96583e-07
6.78307e-07
6.6089e-07
6.46538e-07
6.27794e-07
6.00213e-07
5.70287e-07
5.44814e-07
5.09946e-07
4.71208e-07
4.31669e-07
4.09893e-07
0.999994
0.999993
0.999992
0.999992
0.999992
0.999991
0.999991
0.99999
0.99999
0.99999
0.99999
0.99999
0.99999
0.99999
0.99999
0.99999
0.99999
0.99999
0.99999
0.99999
0.99999
0.99999
0.99999
0.99999
0.99999
0.99999
0.99999
0.99999
0.99999
0.99999
0.99999
0.99999
0.99999
0.99999
0.99999
0.99999
0.99999
0.99999
0.99999
0.99999
0.99999
0.99999
0.99999
0.99999
0.99999
0.999989
0.999985
0.999978
0.999969
0.999957
0.999938
0.999922
0.999914
0.999906
0.999902
0.999895
0.999895
0.999885
0.999386
0.950401
0.0312578
0.000129231
8.43508e-07
8.14872e-07
8.07608e-07
8.056e-07
8.05451e-07
8.04021e-07
8.04653e-07
7.96436e-07
7.93372e-07
7.86284e-07
7.83194e-07
7.78272e-07
7.74327e-07
7.70171e-07
7.67801e-07
7.64898e-07
7.5954e-07
7.51255e-07
7.41046e-07
7.30523e-07
7.19043e-07
7.0783e-07
6.94264e-07
6.78422e-07
6.64805e-07
6.55123e-07
6.44575e-07
6.27136e-07
6.0452e-07
5.72895e-07
5.36416e-07
5.04626e-07
4.66922e-07
4.24828e-07
0.999994
0.999993
0.999993
0.999992
0.999992
0.999991
0.999991
0.99999
0.99999
0.99999
0.99999
0.99999
0.99999
0.99999
0.99999
0.99999
0.99999
0.99999
0.99999
0.99999
0.99999
0.99999
0.99999
0.99999
0.99999
0.99999
0.99999
0.99999
0.99999
0.99999
0.99999
0.99999
0.99999
0.99999
0.99999
0.99999
0.99999
0.99999
0.99999
0.99999
0.99999
0.99999
0.99999
0.99999
0.99999
0.999989
0.999985
0.999979
0.99997
0.999956
0.999933
0.999915
0.999906
0.999898
0.999894
0.999888
0.99989
0.99988
0.999585
0.941513
0.02696
8.28003e-05
1.58178e-06
1.60954e-06
1.57683e-06
1.53636e-06
1.37212e-06
1.192e-06
1.02348e-06
9.0586e-07
8.54643e-07
8.30647e-07
8.18527e-07
8.0667e-07
8.02687e-07
7.9773e-07
7.92578e-07
7.8524e-07
7.74184e-07
7.6295e-07
7.52164e-07
7.38554e-07
7.23668e-07
7.07306e-07
6.93405e-07
6.81717e-07
6.73306e-07
6.6975e-07
6.62827e-07
6.4838e-07
6.30298e-07
5.99207e-07
5.56407e-07
5.20572e-07
4.8764e-07
4.36908e-07
0.999994
0.999994
0.999993
0.999993
0.999992
0.999991
0.999991
0.99999
0.99999
0.99999
0.99999
0.99999
0.99999
0.99999
0.99999
0.99999
0.99999
0.99999
0.99999
0.99999
0.99999
0.99999
0.99999
0.99999
0.99999
0.99999
0.99999
0.99999
0.99999
0.99999
0.99999
0.99999
0.99999
0.99999
0.99999
0.99999
0.99999
0.99999
0.99999
0.99999
0.99999
0.99999
0.99999
0.99999
0.99999
0.999988
0.999985
0.999979
0.999969
0.999951
0.999926
0.999908
0.999899
0.999891
0.999888
0.999883
0.999885
0.999872
0.999692
0.917584
0.021701
7.15438e-05
3.01152e-05
2.7023e-05
2.58554e-05
2.40737e-05
2.12229e-05
1.71572e-05
1.2643e-05
8.39122e-06
5.14734e-06
2.99108e-06
1.82704e-06
1.32107e-06
1.13041e-06
1.02684e-06
9.35299e-07
8.60766e-07
8.09527e-07
7.79235e-07
7.69933e-07
7.60985e-07
7.50937e-07
7.38794e-07
7.36949e-07
7.42586e-07
7.36686e-07
7.31078e-07
7.15322e-07
6.8587e-07
6.62241e-07
6.30975e-07
5.81882e-07
5.38927e-07
5.04058e-07
4.48804e-07
0.999994
0.999994
0.999993
0.999993
0.999992
0.999992
0.999991
0.999991
0.99999
0.99999
0.99999
0.99999
0.99999
0.99999
0.99999
0.99999
0.99999
0.99999
0.99999
0.99999
0.99999
0.99999
0.99999
0.99999
0.99999
0.99999
0.99999
0.99999
0.99999
0.99999
0.99999
0.99999
0.99999
0.99999
0.99999
0.99999
0.99999
0.99999
0.99999
0.99999
0.99999
0.99999
0.99999
0.99999
0.999989
0.999988
0.999985
0.999978
0.999966
0.999946
0.99992
0.999902
0.999893
0.999887
0.999883
0.999879
0.99988
0.999866
0.999728
0.886485
0.0228412
0.000507713
0.000460107
0.000404517
0.000385727
0.000357102
0.000321795
0.000278001
0.00023477
0.000191362
0.000150626
0.000115516
8.71047e-05
6.6384e-05
5.30745e-05
4.45922e-05
3.85141e-05
3.35985e-05
2.95463e-05
2.6205e-05
2.38632e-05
2.2288e-05
2.11382e-05
1.94691e-05
1.8468e-05
1.73735e-05
1.57932e-05
1.35993e-05
1.11748e-05
8.14664e-06
4.90797e-06
2.64716e-06
1.35958e-06
7.64108e-07
5.66297e-07
4.8565e-07
0.999994
0.999994
0.999994
0.999993
0.999993
0.999992
0.999991
0.999991
0.99999
0.99999
0.99999
0.99999
0.99999
0.99999
0.99999
0.99999
0.99999
0.99999
0.99999
0.99999
0.99999
0.99999
0.99999
0.99999
0.99999
0.99999
0.99999
0.99999
0.99999
0.99999
0.99999
0.99999
0.99999
0.99999
0.99999
0.99999
0.99999
0.99999
0.99999
0.99999
0.99999
0.99999
0.99999
0.99999
0.999989
0.999987
0.999984
0.999977
0.999964
0.999942
0.999916
0.999897
0.999889
0.999884
0.999882
0.999881
0.999884
0.999866
0.999766
0.843762
0.023042
0.00267052
0.00273818
0.00260294
0.00257384
0.00246519
0.00234485
0.00219971
0.00205422
0.00190256
0.00174496
0.00158928
0.00143753
0.0012957
0.00117042
0.00106434
0.000977807
0.000904321
0.000838734
0.000777308
0.00071466
0.00065408
0.000594287
0.000541724
0.000501285
0.000474307
0.000447255
0.000413008
0.000365311
0.000299946
0.000225482
0.000152997
9.123e-05
4.50291e-05
1.71414e-05
6.67518e-06
0.999994
0.999994
0.999994
0.999994
0.999993
0.999992
0.999992
0.999991
0.999991
0.99999
0.99999
0.99999
0.99999
0.99999
0.99999
0.99999
0.99999
0.99999
0.99999
0.99999
0.99999
0.99999
0.99999
0.99999
0.99999
0.99999
0.99999
0.99999
0.99999
0.99999
0.99999
0.99999
0.99999
0.99999
0.99999
0.99999
0.99999
0.99999
0.99999
0.99999
0.99999
0.99999
0.99999
0.99999
0.999989
0.999987
0.999983
0.999977
0.999964
0.99994
0.999912
0.999895
0.999888
0.999885
0.999884
0.999883
0.999886
0.999877
0.999832
0.795159
0.025401
0.00702641
0.007398
0.00730963
0.00725434
0.00712661
0.00698218
0.00684217
0.00669515
0.00653115
0.0063647
0.0061686
0.00597541
0.00576687
0.00555646
0.00533827
0.00513766
0.00493296
0.00473719
0.00453565
0.00433492
0.00413112
0.00393277
0.00374079
0.0035509
0.00335022
0.00313875
0.00289184
0.00259678
0.00228274
0.00195312
0.00163219
0.00131077
0.000964678
0.000593402
0.000312104
0.999994
0.999994
0.999994
0.999994
0.999993
0.999992
0.999992
0.999991
0.999991
0.99999
0.99999
0.99999
0.99999
0.99999
0.99999
0.99999
0.99999
0.99999
0.99999
0.99999
0.99999
0.99999
0.99999
0.99999
0.99999
0.99999
0.99999
0.99999
0.99999
0.99999
0.99999
0.99999
0.99999
0.99999
0.99999
0.99999
0.99999
0.99999
0.99999
0.99999
0.99999
0.99999
0.99999
0.99999
0.999989
0.999988
0.999984
0.999976
0.999961
0.999938
0.99991
0.999895
0.999888
0.999887
0.999888
0.999889
0.999891
0.99988
0.999815
0.777034
0.0280115
0.0108806
0.0115126
0.0115402
0.0114703
0.0114172
0.0113679
0.0113745
0.011385
0.0114049
0.0114376
0.0114583
0.01146
0.0114444
0.0114199
0.0113865
0.0113421
0.0112778
0.011206
0.0111535
0.0111405
0.0111948
0.0113356
0.0115697
0.011863
0.0121946
0.0125254
0.0128471
0.0131546
0.0134482
0.0136368
0.0136413
0.0133566
0.0126404
0.0111768
0.00911126
0.999995
0.999994
0.999994
0.999994
0.999993
0.999993
0.999992
0.999991
0.999991
0.999991
0.99999
0.99999
0.99999
0.99999
0.99999
0.99999
0.99999
0.99999
0.99999
0.99999
0.99999
0.99999
0.99999
0.99999
0.99999
0.99999
0.99999
0.99999
0.99999
0.99999
0.99999
0.99999
0.99999
0.99999
0.99999
0.99999
0.99999
0.99999
0.99999
0.99999
0.99999
0.99999
0.99999
0.99999
0.999989
0.999987
0.999983
0.999975
0.999961
0.99994
0.999914
0.999898
0.999891
0.999889
0.999891
0.99989
0.999894
0.999883
0.999805
0.837587
0.0263283
0.00648031
0.0063399
0.0057543
0.00542592
0.00518734
0.00505849
0.0049713
0.00492536
0.00490025
0.00490427
0.00491069
0.00492247
0.00493191
0.00494161
0.00494714
0.00494638
0.00493044
0.0048933
0.00483896
0.00478059
0.00471051
0.00463998
0.00456361
0.00448508
0.00442144
0.00437113
0.00432684
0.00426207
0.00416417
0.00401152
0.00371108
0.0032296
0.00254269
0.00161013
0.000831045
0.999995
0.999995
0.999994
0.999994
0.999993
0.999993
0.999992
0.999991
0.999991
0.999991
0.99999
0.99999
0.99999
0.99999
0.99999
0.99999
0.99999
0.99999
0.99999
0.99999
0.99999
0.99999
0.99999
0.99999
0.99999
0.99999
0.99999
0.99999
0.99999
0.99999
0.99999
0.99999
0.99999
0.99999
0.99999
0.99999
0.99999
0.99999
0.99999
0.99999
0.99999
0.99999
0.99999
0.99999
0.999989
0.999987
0.999983
0.999975
0.999964
0.999947
0.999922
0.999904
0.999895
0.999891
0.999891
0.99989
0.999895
0.999887
0.999863
0.899798
0.0217087
0.00188238
0.00164922
0.00131662
0.00119307
0.00111159
0.0010874
0.00106159
0.00105107
0.00103697
0.00102514
0.00100789
0.000990931
0.000971598
0.000952122
0.000930963
0.000912111
0.000897903
0.000902241
0.000921085
0.000952632
0.000995359
0.00103546
0.0010617
0.00107515
0.00108341
0.00108356
0.00107235
0.00104343
0.000977871
0.000866323
0.000702741
0.000504876
0.000296387
0.000132203
5.76053e-05
0.999996
0.999995
0.999994
0.999994
0.999994
0.999993
0.999992
0.999991
0.999991
0.99999
0.99999
0.99999
0.99999
0.99999
0.99999
0.99999
0.99999
0.99999
0.99999
0.99999
0.99999
0.99999
0.99999
0.99999
0.99999
0.99999
0.99999
0.99999
0.99999
0.99999
0.99999
0.99999
0.99999
0.99999
0.99999
0.99999
0.99999
0.99999
0.99999
0.99999
0.99999
0.99999
0.99999
0.99999
0.999989
0.999987
0.999983
0.999976
0.999966
0.999953
0.999932
0.999913
0.999902
0.999895
0.999894
0.999891
0.999896
0.999886
0.999869
0.941153
0.0230431
0.000254981
0.000166309
0.000119229
0.000112602
0.000107918
0.000110857
0.000110013
0.000108057
0.000103463
9.84936e-05
9.25953e-05
8.63844e-05
7.95122e-05
7.28348e-05
6.63764e-05
6.13822e-05
5.86692e-05
5.96894e-05
6.37245e-05
7.00506e-05
7.70643e-05
8.33868e-05
8.84657e-05
9.28995e-05
9.70735e-05
0.000101015
0.00010191
9.70262e-05
8.63562e-05
6.91079e-05
4.73288e-05
2.69276e-05
1.17712e-05
4.42042e-06
2.10608e-06
0.999996
0.999995
0.999995
0.999995
0.999994
0.999993
0.999992
0.999991
0.999991
0.99999
0.99999
0.99999
0.99999
0.99999
0.99999
0.99999
0.99999
0.99999
0.99999
0.99999
0.99999
0.99999
0.99999
0.99999
0.99999
0.99999
0.99999
0.99999
0.99999
0.99999
0.99999
0.99999
0.99999
0.99999
0.99999
0.99999
0.99999
0.99999
0.99999
0.99999
0.99999
0.99999
0.99999
0.99999
0.999989
0.999987
0.999984
0.999977
0.999967
0.999955
0.999939
0.999923
0.999911
0.999901
0.999898
0.999894
0.999898
0.999884
0.999823
0.964978
0.0345916
9.13442e-05
4.63234e-06
3.1641e-06
3.33211e-06
3.49477e-06
3.7765e-06
3.72311e-06
3.48728e-06
3.2861e-06
3.09772e-06
2.8577e-06
2.58033e-06
2.28742e-06
2.00581e-06
1.76948e-06
1.62517e-06
1.54889e-06
1.58378e-06
1.68491e-06
1.85386e-06
2.08558e-06
2.35601e-06
2.62812e-06
2.8888e-06
3.13461e-06
3.32473e-06
3.29556e-06
2.98521e-06
2.53832e-06
2.00015e-06
1.41938e-06
9.52752e-07
6.79062e-07
5.59719e-07
4.72804e-07
0.999996
0.999996
0.999995
0.999995
0.999994
0.999993
0.999992
0.999991
0.999991
0.99999
0.99999
0.99999
0.99999
0.99999
0.99999
0.99999
0.99999
0.99999
0.99999
0.99999
0.99999
0.99999
0.99999
0.99999
0.99999
0.99999
0.99999
0.99999
0.99999
0.99999
0.99999
0.99999
0.99999
0.99999
0.99999
0.99999
0.99999
0.99999
0.99999
0.99999
0.99999
0.99999
0.99999
0.99999
0.999989
0.999988
0.999984
0.999978
0.999968
0.999955
0.999941
0.999929
0.999919
0.999908
0.999903
0.999897
0.999901
0.999882
0.999734
0.973569
0.0489771
0.000168494
9.74192e-07
8.92966e-07
8.86945e-07
8.86085e-07
8.83108e-07
8.78423e-07
8.72846e-07
8.66347e-07
8.62237e-07
8.55843e-07
8.50611e-07
8.43095e-07
8.3147e-07
8.20325e-07
8.15747e-07
8.13217e-07
8.08304e-07
8.03478e-07
8.00947e-07
8.00267e-07
7.94797e-07
7.85265e-07
7.72539e-07
7.56774e-07
7.41256e-07
7.25144e-07
7.01735e-07
6.74499e-07
6.50033e-07
6.2081e-07
5.82057e-07
5.53963e-07
5.11659e-07
4.42379e-07
0.999997
0.999996
0.999996
0.999996
0.999995
0.999994
0.999993
0.999991
0.999991
0.99999
0.99999
0.99999
0.99999
0.99999
0.99999
0.99999
0.99999
0.99999
0.99999
0.99999
0.99999
0.99999
0.99999
0.99999
0.99999
0.99999
0.99999
0.99999
0.99999
0.99999
0.99999
0.99999
0.99999
0.99999
0.99999
0.99999
0.99999
0.99999
0.99999
0.99999
0.99999
0.99999
0.99999
0.99999
0.999989
0.999988
0.999985
0.999979
0.999969
0.999956
0.999942
0.99993
0.999922
0.999911
0.999907
0.9999
0.9999
0.999872
0.999652
0.970503
0.0584932
0.000311679
1.20403e-06
8.7243e-07
8.62743e-07
8.6306e-07
8.64878e-07
8.60516e-07
8.56673e-07
8.51091e-07
8.46442e-07
8.39097e-07
8.33309e-07
8.26677e-07
8.2019e-07
8.13914e-07
8.08351e-07
8.05024e-07
8.01132e-07
7.96982e-07
7.93181e-07
7.91499e-07
7.89563e-07
7.84742e-07
7.75956e-07
7.62396e-07
7.42696e-07
7.20593e-07
6.90216e-07
6.54283e-07
6.23874e-07
6.03201e-07
5.7785e-07
5.56956e-07
5.19038e-07
4.4435e-07
0.999997
0.999996
0.999996
0.999996
0.999996
0.999995
0.999994
0.999992
0.999991
0.99999
0.99999
0.99999
0.99999
0.99999
0.99999
0.99999
0.99999
0.99999
0.99999
0.99999
0.99999
0.99999
0.99999
0.99999
0.99999
0.99999
0.99999
0.99999
0.99999
0.99999
0.99999
0.99999
0.99999
0.99999
0.99999
0.99999
0.99999
0.99999
0.99999
0.99999
0.99999
0.99999
0.99999
0.99999
0.999989
0.999988
0.999985
0.999979
0.99997
0.999956
0.999942
0.99993
0.999923
0.999914
0.999909
0.999902
0.999896
0.999871
0.999585
0.964842
0.0583508
0.000300328
1.14353e-06
8.60943e-07
8.52946e-07
8.46753e-07
8.45057e-07
8.41176e-07
8.39598e-07
8.34395e-07
8.32382e-07
8.27636e-07
8.22792e-07
8.17759e-07
8.12586e-07
8.06867e-07
8.01495e-07
7.98923e-07
7.96415e-07
7.93235e-07
7.89393e-07
7.85199e-07
7.81901e-07
7.78851e-07
7.74123e-07
7.6545e-07
7.50908e-07
7.29472e-07
6.98071e-07
6.58688e-07
6.24698e-07
5.9745e-07
5.74987e-07
5.49803e-07
5.073e-07
4.42314e-07
0.999998
0.999997
0.999997
0.999996
0.999996
0.999995
0.999995
0.999993
0.999991
0.99999
0.99999
0.99999
0.99999
0.99999
0.99999
0.99999
0.99999
0.99999
0.99999
0.99999
0.99999
0.99999
0.99999
0.99999
0.99999
0.99999
0.99999
0.99999
0.99999
0.99999
0.99999
0.99999
0.99999
0.99999
0.99999
0.99999
0.99999
0.99999
0.99999
0.99999
0.99999
0.99999
0.99999
0.99999
0.999989
0.999988
0.999985
0.999979
0.99997
0.999956
0.999941
0.999929
0.999923
0.999916
0.999912
0.999901
0.999899
0.999877
0.999255
0.955743
0.0638713
0.000576423
1.89228e-06
8.57362e-07
8.53739e-07
8.46336e-07
8.42165e-07
8.36179e-07
8.35025e-07
8.30195e-07
8.27413e-07
8.23255e-07
8.19487e-07
8.15866e-07
8.12249e-07
8.08477e-07
8.04592e-07
8.00815e-07
7.973e-07
7.94573e-07
7.90759e-07
7.85489e-07
7.81494e-07
7.77873e-07
7.73338e-07
7.68039e-07
7.59046e-07
7.42471e-07
7.15275e-07
6.78408e-07
6.3625e-07
5.96418e-07
5.6437e-07
5.23739e-07
4.83192e-07
4.30781e-07
0.999994
0.999993
0.999992
0.999992
0.999992
0.999991
0.999991
0.99999
0.99999
0.99999
0.99999
0.99999
0.99999
0.99999
0.99999
0.99999
0.99999
0.99999
0.99999
0.99999
0.99999
0.99999
0.99999
0.99999
0.99999
0.99999
0.99999
0.99999
0.99999
0.99999
0.99999
0.99999
0.99999
0.99999
0.99999
0.99999
0.99999
0.99999
0.99999
0.99999
0.99999
0.99999
0.99999
0.99999
0.99999
0.999989
0.999986
0.999979
0.999967
0.999951
0.999938
0.999926
0.99992
0.999914
0.999911
0.999906
0.999905
0.999881
0.999214
0.946861
0.0358406
0.000135675
8.38588e-07
7.79553e-07
7.75509e-07
7.67337e-07
7.6698e-07
7.61273e-07
7.61314e-07
7.57688e-07
7.57553e-07
7.54518e-07
7.52996e-07
7.50198e-07
7.47912e-07
7.45651e-07
7.43875e-07
7.42165e-07
7.39382e-07
7.34477e-07
7.29089e-07
7.22115e-07
7.11985e-07
6.97815e-07
6.85796e-07
6.75603e-07
6.65776e-07
6.56317e-07
6.44111e-07
6.25542e-07
6.02477e-07
5.76298e-07
5.4145e-07
5.02004e-07
4.59268e-07
4.21161e-07
0.999994
0.999993
0.999992
0.999992
0.999991
0.999991
0.999991
0.999991
0.99999
0.99999
0.99999
0.99999
0.99999
0.99999
0.99999
0.99999
0.99999
0.99999
0.99999
0.99999
0.99999
0.99999
0.99999
0.99999
0.99999
0.99999
0.99999
0.99999
0.99999
0.99999
0.99999
0.99999
0.99999
0.99999
0.99999
0.99999
0.99999
0.99999
0.99999
0.99999
0.99999
0.99999
0.99999
0.99999
0.99999
0.999989
0.999986
0.999979
0.999969
0.999956
0.99994
0.999925
0.999916
0.999909
0.999906
0.999902
0.9999
0.999874
0.999579
0.920633
0.0165674
1.35725e-05
7.88982e-07
8.402e-07
8.2029e-07
8.18444e-07
8.17964e-07
8.09066e-07
8.0886e-07
8.00529e-07
7.95673e-07
7.84392e-07
7.77679e-07
7.70479e-07
7.6537e-07
7.607e-07
7.5734e-07
7.53937e-07
7.48938e-07
7.4375e-07
7.37567e-07
7.29805e-07
7.16793e-07
7.01116e-07
6.86958e-07
6.74077e-07
6.63324e-07
6.55653e-07
6.47378e-07
6.34747e-07
6.19336e-07
5.96232e-07
5.61404e-07
5.31139e-07
5.02112e-07
4.49479e-07
0.999994
0.999994
0.999993
0.999992
0.999992
0.999991
0.999991
0.999991
0.999991
0.99999
0.99999
0.99999
0.99999
0.99999
0.99999
0.99999
0.99999
0.99999
0.99999
0.99999
0.99999
0.99999
0.99999
0.99999
0.99999
0.99999
0.99999
0.99999
0.99999
0.99999
0.99999
0.99999
0.99999
0.99999
0.99999
0.99999
0.99999
0.99999
0.99999
0.99999
0.99999
0.99999
0.99999
0.99999
0.999989
0.999988
0.999986
0.999979
0.99997
0.999956
0.999936
0.999918
0.999906
0.9999
0.999898
0.999896
0.999897
0.999868
0.999701
0.899015
0.0155083
4.74432e-06
4.20116e-06
3.74435e-06
3.60642e-06
2.97803e-06
2.43743e-06
1.82297e-06
1.4163e-06
1.12716e-06
9.81757e-07
8.91372e-07
8.49483e-07
8.30412e-07
8.20581e-07
8.10439e-07
8.01605e-07
7.92747e-07
7.83979e-07
7.74508e-07
7.62248e-07
7.48775e-07
7.33959e-07
7.15746e-07
7.00151e-07
6.88161e-07
6.77666e-07
6.67202e-07
6.58218e-07
6.48136e-07
6.38003e-07
6.16976e-07
5.79994e-07
5.47634e-07
5.20301e-07
4.67323e-07
0.999995
0.999994
0.999993
0.999993
0.999992
0.999992
0.999991
0.999991
0.999991
0.999991
0.99999
0.99999
0.99999
0.99999
0.99999
0.99999
0.99999
0.99999
0.99999
0.99999
0.99999
0.99999
0.99999
0.99999
0.99999
0.99999
0.99999
0.99999
0.99999
0.99999
0.99999
0.99999
0.99999
0.99999
0.99999
0.99999
0.99999
0.99999
0.99999
0.99999
0.99999
0.99999
0.99999
0.99999
0.999989
0.999988
0.999985
0.99998
0.999969
0.999953
0.999928
0.999907
0.999895
0.999891
0.99989
0.999883
0.999876
0.99985
0.999769
0.847053
0.0081164
0.000193772
0.000173499
0.000146001
0.000135197
0.000111397
8.80085e-05
6.45622e-05
4.50928e-05
2.98471e-05
1.93389e-05
1.24358e-05
8.32982e-06
6.04971e-06
4.94373e-06
4.38208e-06
4.09441e-06
3.89926e-06
3.72641e-06
3.54022e-06
3.36838e-06
3.20919e-06
3.03172e-06
2.81165e-06
2.5834e-06
2.32615e-06
2.03393e-06
1.74337e-06
1.32377e-06
9.88295e-07
7.93889e-07
7.0467e-07
6.53407e-07
6.01969e-07
5.5332e-07
4.88571e-07
0.999995
0.999995
0.999993
0.999993
0.999992
0.999992
0.999992
0.999991
0.999991
0.999991
0.99999
0.99999
0.99999
0.99999
0.99999
0.99999
0.99999
0.99999
0.99999
0.99999
0.99999
0.99999
0.99999
0.99999
0.99999
0.99999
0.99999
0.99999
0.99999
0.99999
0.99999
0.99999
0.99999
0.99999
0.99999
0.99999
0.99999
0.99999
0.99999
0.99999
0.99999
0.99999
0.99999
0.99999
0.999989
0.999988
0.999984
0.999979
0.999966
0.999946
0.999917
0.999897
0.999887
0.999881
0.999876
0.999865
0.999856
0.999841
0.999836
0.76965
0.00968435
0.00277406
0.00264808
0.00239632
0.00223741
0.00198018
0.00172924
0.00146917
0.00122099
0.000991409
0.000796097
0.000634483
0.000509726
0.00041961
0.000356707
0.000315874
0.000291469
0.00027766
0.000271258
0.000268833
0.000269202
0.000266038
0.000259001
0.000248438
0.000233388
0.000216846
0.000198226
0.0001674
0.000126921
8.45253e-05
4.81492e-05
2.29256e-05
9.32001e-06
3.45827e-06
1.33398e-06
7.27182e-07
0.999995
0.999995
0.999994
0.999993
0.999993
0.999992
0.999992
0.999991
0.999991
0.999991
0.99999
0.99999
0.99999
0.99999
0.99999
0.99999
0.99999
0.99999
0.99999
0.99999
0.99999
0.99999
0.99999
0.99999
0.99999
0.99999
0.99999
0.99999
0.99999
0.99999
0.99999
0.99999
0.99999
0.99999
0.99999
0.99999
0.99999
0.99999
0.99999
0.99999
0.99999
0.99999
0.99999
0.99999
0.999989
0.999988
0.999984
0.999977
0.999965
0.999942
0.999908
0.999891
0.999881
0.999873
0.999865
0.999859
0.999856
0.999853
0.999831
0.651765
0.0192938
0.0121605
0.0124563
0.0123008
0.0121439
0.0118505
0.0115121
0.011104
0.0105881
0.0099996
0.00934369
0.00865526
0.00796918
0.00731072
0.0067087
0.00619278
0.00576213
0.00541534
0.00514912
0.00495191
0.00478379
0.00461833
0.00442145
0.00423271
0.00400922
0.00373701
0.00345416
0.00313298
0.00277288
0.00233872
0.00186997
0.00137443
0.000896458
0.000492887
0.000209317
7.42329e-05
0.999995
0.999995
0.999995
0.999994
0.999993
0.999992
0.999992
0.999991
0.999991
0.999991
0.99999
0.99999
0.99999
0.99999
0.99999
0.99999
0.99999
0.99999
0.99999
0.99999
0.99999
0.99999
0.99999
0.99999
0.99999
0.99999
0.99999
0.99999
0.99999
0.99999
0.99999
0.99999
0.99999
0.99999
0.99999
0.99999
0.99999
0.99999
0.99999
0.99999
0.99999
0.99999
0.99999
0.99999
0.999989
0.999988
0.999984
0.999976
0.999964
0.999939
0.999905
0.999888
0.999879
0.999874
0.999869
0.999865
0.999867
0.999862
0.999574
0.578585
0.0291804
0.0231143
0.0241651
0.0246524
0.0250421
0.0255114
0.0259373
0.0263703
0.0267328
0.0270872
0.027393
0.0276697
0.0278535
0.0279451
0.0279131
0.0277918
0.0275894
0.0273507
0.0270711
0.0267501
0.0263571
0.0258928
0.0253992
0.0248523
0.0241986
0.0234307
0.0224875
0.0214088
0.0203265
0.0192319
0.0180393
0.0167058
0.0151901
0.0131864
0.0107522
0.00861228
0.999995
0.999996
0.999995
0.999994
0.999993
0.999993
0.999992
0.999991
0.999991
0.999991
0.99999
0.99999
0.99999
0.99999
0.99999
0.99999
0.99999
0.99999
0.99999
0.99999
0.99999
0.99999
0.99999
0.99999
0.99999
0.99999
0.99999
0.99999
0.99999
0.99999
0.99999
0.99999
0.99999
0.99999
0.99999
0.99999
0.99999
0.99999
0.99999
0.99999
0.99999
0.99999
0.99999
0.99999
0.999989
0.999988
0.999984
0.999975
0.999961
0.999937
0.999905
0.999888
0.999882
0.999881
0.99988
0.99988
0.999882
0.999879
0.999277
0.676079
0.0318632
0.0210426
0.0218934
0.0221748
0.0225934
0.0233557
0.0243209
0.0254369
0.0266571
0.0279933
0.029432
0.0310267
0.0327361
0.0344973
0.036317
0.0381882
0.0401603
0.0422486
0.0444401
0.0467488
0.0492145
0.0518848
0.0548188
0.0580434
0.0616726
0.0656393
0.0699066
0.0746023
0.0799839
0.0861783
0.0937282
0.103292
0.116289
0.137438
0.186158
0.38151
0.999996
0.999996
0.999996
0.999995
0.999994
0.999993
0.999992
0.999991
0.999991
0.999991
0.99999
0.99999
0.99999
0.99999
0.99999
0.99999
0.99999
0.99999
0.99999
0.99999
0.99999
0.99999
0.99999
0.99999
0.99999
0.99999
0.99999
0.99999
0.99999
0.99999
0.99999
0.99999
0.99999
0.99999
0.99999
0.99999
0.99999
0.99999
0.99999
0.99999
0.99999
0.99999
0.99999
0.99999
0.999989
0.999987
0.999984
0.999976
0.999964
0.999943
0.999914
0.999897
0.999888
0.999885
0.999884
0.999882
0.999884
0.99988
0.999837
0.821684
0.0217112
0.00643448
0.00596739
0.00503404
0.00464581
0.00430742
0.00410696
0.0039961
0.00397713
0.00400554
0.00408457
0.004164
0.00428048
0.00444809
0.0046841
0.00496736
0.00529756
0.00566559
0.00606661
0.00651342
0.00699895
0.00753946
0.008109
0.00867585
0.00920837
0.00974609
0.0102843
0.0108619
0.0115315
0.0122738
0.0130642
0.0138657
0.0147615
0.0155417
0.0157342
0.0142832
0.999996
0.999996
0.999996
0.999995
0.999995
0.999994
0.999992
0.999991
0.999991
0.999991
0.99999
0.99999
0.99999
0.99999
0.99999
0.99999
0.99999
0.99999
0.99999
0.99999
0.99999
0.99999
0.99999
0.99999
0.99999
0.99999
0.99999
0.99999
0.99999
0.99999
0.99999
0.99999
0.99999
0.99999
0.99999
0.99999
0.99999
0.99999
0.99999
0.99999
0.99999
0.99999
0.99999
0.99999
0.999989
0.999987
0.999984
0.999977
0.999968
0.999952
0.999926
0.999906
0.999896
0.999889
0.999886
0.999884
0.999886
0.999877
0.999892
0.886196
0.0127595
0.00107473
0.000914648
0.000685093
0.000605254
0.000532332
0.000487529
0.000450607
0.000427477
0.000410034
0.000401638
0.0004015
0.000408101
0.000419626
0.000432616
0.000446806
0.000465874
0.000492542
0.000528723
0.000571476
0.000620048
0.000680493
0.000752253
0.00083046
0.000912332
0.000986581
0.00106619
0.00114408
0.00123484
0.00133961
0.00145783
0.00154767
0.00155143
0.00129777
0.000798473
0.000356553
0.999996
0.999996
0.999996
0.999996
0.999995
0.999994
0.999993
0.999992
0.999991
0.999991
0.99999
0.99999
0.99999
0.99999
0.99999
0.99999
0.99999
0.99999
0.99999
0.99999
0.99999
0.99999
0.99999
0.99999
0.99999
0.99999
0.99999
0.99999
0.99999
0.99999
0.99999
0.99999
0.99999
0.99999
0.99999
0.99999
0.99999
0.99999
0.99999
0.99999
0.99999
0.99999
0.99999
0.99999
0.999989
0.999988
0.999984
0.999978
0.999969
0.999956
0.999938
0.999918
0.999906
0.999898
0.999895
0.99989
0.999889
0.999871
0.999879
0.92839
0.0142843
0.000109039
9.97982e-05
7.4497e-05
6.92521e-05
6.16384e-05
5.63968e-05
4.91987e-05
4.24331e-05
3.62304e-05
3.13668e-05
2.78385e-05
2.59607e-05
2.5474e-05
2.49268e-05
2.42617e-05
2.35894e-05
2.37837e-05
2.61804e-05
2.97244e-05
3.3436e-05
3.71004e-05
3.99849e-05
4.29128e-05
4.49326e-05
4.41363e-05
4.15823e-05
3.7685e-05
3.4275e-05
3.23367e-05
3.11578e-05
2.8885e-05
2.26845e-05
1.46288e-05
7.05914e-06
3.06697e-06
0.999996
0.999996
0.999996
0.999996
0.999995
0.999994
0.999993
0.999992
0.999991
0.999991
0.99999
0.99999
0.99999
0.99999
0.99999
0.99999
0.99999
0.99999
0.99999
0.99999
0.99999
0.99999
0.99999
0.99999
0.99999
0.99999
0.99999
0.99999
0.99999
0.99999
0.99999
0.99999
0.99999
0.99999
0.99999
0.99999
0.99999
0.99999
0.99999
0.99999
0.99999
0.99999
0.99999
0.99999
0.999989
0.999988
0.999985
0.999979
0.999969
0.999957
0.999942
0.999926
0.999914
0.999904
0.999902
0.999896
0.999891
0.999865
0.999828
0.954395
0.0224174
5.02671e-06
6.55957e-06
3.80299e-06
3.74882e-06
3.22307e-06
2.97524e-06
2.62507e-06
2.3088e-06
2.0422e-06
1.83567e-06
1.63302e-06
1.45163e-06
1.31444e-06
1.23565e-06
1.20611e-06
1.19405e-06
1.21816e-06
1.28839e-06
1.37939e-06
1.48175e-06
1.56584e-06
1.61485e-06
1.6142e-06
1.55056e-06
1.41867e-06
1.24128e-06
1.05726e-06
9.08428e-07
7.94445e-07
7.29069e-07
6.81708e-07
6.28021e-07
5.82842e-07
5.37641e-07
4.66177e-07
0.999997
0.999996
0.999996
0.999996
0.999996
0.999995
0.999993
0.999992
0.999991
0.999991
0.99999
0.99999
0.99999
0.99999
0.99999
0.99999
0.99999
0.99999
0.99999
0.99999
0.99999
0.99999
0.99999
0.99999
0.99999
0.99999
0.99999
0.99999
0.99999
0.99999
0.99999
0.99999
0.99999
0.99999
0.99999
0.99999
0.99999
0.99999
0.99999
0.99999
0.99999
0.99999
0.99999
0.99999
0.999989
0.999988
0.999985
0.99998
0.99997
0.999958
0.999943
0.999929
0.999919
0.999907
0.999902
0.999894
0.999885
0.999857
0.999745
0.963096
0.0331369
1.05537e-05
1.06985e-06
9.11078e-07
9.3881e-07
9.17552e-07
9.09767e-07
8.95981e-07
8.92348e-07
8.80202e-07
8.70885e-07
8.60723e-07
8.54296e-07
8.45684e-07
8.34446e-07
8.24436e-07
8.18228e-07
8.11886e-07
8.05693e-07
8.03654e-07
8.03381e-07
8.02855e-07
8.0119e-07
7.93622e-07
7.79793e-07
7.62544e-07
7.42748e-07
7.20685e-07
6.95508e-07
6.64717e-07
6.3048e-07
6.10863e-07
5.84225e-07
5.53207e-07
5.06129e-07
4.30937e-07
0.999997
0.999997
0.999997
0.999996
0.999996
0.999996
0.999994
0.999992
0.999991
0.999991
0.99999
0.99999
0.99999
0.99999
0.99999
0.99999
0.99999
0.99999
0.99999
0.99999
0.99999
0.99999
0.99999
0.99999
0.99999
0.99999
0.99999
0.99999
0.99999
0.99999
0.99999
0.99999
0.99999
0.99999
0.99999
0.99999
0.99999
0.99999
0.99999
0.99999
0.99999
0.99999
0.99999
0.99999
0.999989
0.999988
0.999985
0.99998
0.99997
0.999957
0.999943
0.999929
0.99992
0.999908
0.999898
0.999888
0.999876
0.999834
0.999622
0.956984
0.0375243
2.62138e-05
9.15646e-07
8.90899e-07
8.72623e-07
8.70525e-07
8.71835e-07
8.65334e-07
8.61051e-07
8.52746e-07
8.47168e-07
8.3905e-07
8.3353e-07
8.26585e-07
8.2e-07
8.13625e-07
8.08338e-07
8.03592e-07
7.991e-07
7.9537e-07
7.91667e-07
7.88962e-07
7.8676e-07
7.82581e-07
7.74357e-07
7.61417e-07
7.43126e-07
7.20836e-07
6.93047e-07
6.55305e-07
6.18037e-07
5.94339e-07
5.79366e-07
5.62732e-07
5.25132e-07
4.39729e-07
0.999997
0.999997
0.999997
0.999996
0.999996
0.999996
0.999995
0.999993
0.999991
0.999991
0.99999
0.99999
0.99999
0.99999
0.99999
0.99999
0.99999
0.99999
0.99999
0.99999
0.99999
0.99999
0.99999
0.99999
0.99999
0.99999
0.99999
0.99999
0.99999
0.99999
0.99999
0.99999
0.99999
0.99999
0.99999
0.99999
0.99999
0.99999
0.99999
0.99999
0.99999
0.99999
0.99999
0.99999
0.999989
0.999988
0.999985
0.999979
0.99997
0.999957
0.999942
0.99993
0.999919
0.999907
0.999895
0.999879
0.999866
0.999825
0.999591
0.93865
0.0349904
5.92144e-05
9.37795e-07
8.63583e-07
8.52598e-07
8.43548e-07
8.43418e-07
8.38872e-07
8.38093e-07
8.3363e-07
8.31213e-07
8.25348e-07
8.20849e-07
8.1516e-07
8.10645e-07
8.05884e-07
8.0176e-07
7.98833e-07
7.95755e-07
7.92767e-07
7.89568e-07
7.86342e-07
7.83452e-07
7.79497e-07
7.72799e-07
7.6254e-07
7.4641e-07
7.24142e-07
6.93282e-07
6.51594e-07
6.11069e-07
5.83379e-07
5.70074e-07
5.51404e-07
5.12047e-07
4.39365e-07
0.999998
0.999997
0.999997
0.999997
0.999997
0.999996
0.999996
0.999994
0.999991
0.99999
0.99999
0.99999
0.99999
0.99999
0.99999
0.99999
0.99999
0.99999
0.99999
0.99999
0.99999
0.99999
0.99999
0.99999
0.99999
0.99999
0.99999
0.99999
0.99999
0.99999
0.99999
0.99999
0.99999
0.99999
0.99999
0.99999
0.99999
0.99999
0.99999
0.99999
0.99999
0.99999
0.99999
0.99999
0.999989
0.999988
0.999985
0.999979
0.99997
0.999956
0.999941
0.999929
0.999922
0.999914
0.999904
0.999888
0.999878
0.999829
0.999394
0.954743
0.0558879
0.000411259
1.46599e-06
8.57478e-07
8.51693e-07
8.41372e-07
8.39465e-07
8.33194e-07
8.31097e-07
8.25497e-07
8.22749e-07
8.17979e-07
8.15149e-07
8.11271e-07
8.08215e-07
8.05057e-07
8.02604e-07
7.99816e-07
7.97203e-07
7.95486e-07