/*--------------------------------*- C++ -*----------------------------------*\
| =========                 |                                                 |
| \\      /  F ield         | OpenFOAM: The Open Source CFD Toolbox           |
|  \\    /   O peration     | Version:  2.3.0                                 |
|   \\  /    A nd           | Web:      www.OpenFOAM.org                      |
|    \\/     M anipulation  |                                                 |
\*---------------------------------------------------------------------------*/
FoamFile
{
    version     2.0;
    format      ascii;
    class       volScalarField;
    location    "41";
    object      alpha.air;
}
// * * * * * * * * * * * * * * * * * * * * * * * * * * * * * * * * * * * * * //

dimensions      [0 0 0 0 0 0 0];

internalField   nonuniform List<scalar> 
6144
(
0.999996
0.999995
0.999995
0.999994
0.999994
0.999993
0.999992
0.999991
0.99999
0.99999
0.99999
0.99999
0.99999
0.99999
0.99999
0.99999
0.99999
0.99999
0.99999
0.99999
0.99999
0.99999
0.99999
0.99999
0.99999
0.99999
0.99999
0.99999
0.99999
0.99999
0.99999
0.99999
0.99999
0.99999
0.99999
0.99999
0.99999
0.99999
0.99999
0.99999
0.99999
0.99999
0.99999
0.999989
0.999986
0.999982
0.999975
0.999953
0.999907
0.999884
0.99988
0.999879
0.999878
0.999877
0.999878
0.999877
0.999879
0.999874
0.999283
0.939849
0.0254926
7.59416e-05
4.88934e-07
5.23948e-07
5.21879e-07
5.20896e-07
5.28706e-07
5.30995e-07
5.38939e-07
5.63272e-07
5.94148e-07
5.93196e-07
6.04148e-07
5.99137e-07
5.48784e-07
5.02142e-07
4.97511e-07
5.01495e-07
5.0522e-07
5.05874e-07
5.04528e-07
5.06411e-07
5.06883e-07
5.0226e-07
5.00756e-07
5.00919e-07
4.91773e-07
4.88808e-07
4.78634e-07
4.82834e-07
4.91278e-07
5.06709e-07
5.24131e-07
5.36384e-07
5.32211e-07
4.66277e-07
0.999996
0.999995
0.999995
0.999994
0.999993
0.999992
0.999992
0.999991
0.99999
0.99999
0.99999
0.99999
0.99999
0.99999
0.99999
0.99999
0.99999
0.99999
0.99999
0.99999
0.99999
0.99999
0.99999
0.99999
0.99999
0.99999
0.99999
0.99999
0.99999
0.99999
0.99999
0.99999
0.99999
0.99999
0.99999
0.99999
0.99999
0.99999
0.99999
0.99999
0.99999
0.99999
0.99999
0.999989
0.999986
0.99998
0.999969
0.99994
0.999884
0.999878
0.999877
0.999877
0.999878
0.999877
0.999879
0.999875
0.999881
0.999874
0.999695
0.954182
0.0284541
7.10397e-06
4.88933e-07
7.32185e-07
6.87554e-07
7.08972e-07
7.28321e-07
7.58548e-07
7.71019e-07
7.70366e-07
7.52457e-07
7.37686e-07
6.90312e-07
6.03908e-07
5.33479e-07
5.09387e-07
5.08827e-07
5.16148e-07
5.2015e-07
5.20287e-07
5.20355e-07
5.19722e-07
5.31889e-07
5.37791e-07
5.40841e-07
5.46352e-07
5.53595e-07
5.6794e-07
5.74204e-07
5.74322e-07
5.64695e-07
5.49061e-07
5.40332e-07
5.43894e-07
5.35011e-07
4.43389e-07
0.999997
0.999996
0.999995
0.999994
0.999993
0.999992
0.999992
0.999991
0.99999
0.99999
0.99999
0.99999
0.99999
0.99999
0.99999
0.99999
0.99999
0.99999
0.99999
0.99999
0.99999
0.99999
0.99999
0.99999
0.99999
0.99999
0.99999
0.99999
0.99999
0.99999
0.99999
0.99999
0.99999
0.99999
0.99999
0.99999
0.99999
0.99999
0.99999
0.99999
0.99999
0.99999
0.99999
0.999989
0.999986
0.999981
0.999966
0.999923
0.999879
0.999877
0.999878
0.999878
0.999879
0.999879
0.999879
0.999877
0.999886
0.999875
0.999886
0.962047
0.0684846
8.4668e-07
1.14281e-06
9.95386e-07
9.88536e-07
9.03939e-07
8.54791e-07
8.66906e-07
8.52243e-07
7.80757e-07
7.30818e-07
7.06902e-07
6.64833e-07
5.98515e-07
5.44381e-07
5.326e-07
5.58888e-07
5.70027e-07
5.46105e-07
5.42144e-07
5.50777e-07
5.26181e-07
5.20769e-07
5.20786e-07
5.42872e-07
5.73212e-07
6.02724e-07
6.22382e-07
6.05683e-07
5.82899e-07
5.80205e-07
5.76578e-07
5.69222e-07
5.64083e-07
5.51386e-07
4.52288e-07
0.999997
0.999996
0.999995
0.999994
0.999993
0.999992
0.999992
0.999991
0.999991
0.99999
0.99999
0.99999
0.99999
0.99999
0.99999
0.99999
0.99999
0.99999
0.99999
0.99999
0.99999
0.99999
0.99999
0.99999
0.99999
0.99999
0.99999
0.99999
0.99999
0.99999
0.99999
0.99999
0.99999
0.99999
0.99999
0.99999
0.99999
0.99999
0.99999
0.99999
0.99999
0.99999
0.99999
0.999989
0.999988
0.999985
0.999974
0.999921
0.999879
0.999876
0.999878
0.999879
0.999879
0.999879
0.999879
0.999881
0.999886
0.999875
0.999828
0.922743
0.0118713
7.03959e-05
6.16368e-05
4.03335e-05
3.02031e-05
1.92334e-05
1.10214e-05
5.42087e-06
2.45106e-06
1.22573e-06
1.00502e-06
1.37786e-06
1.7706e-06
1.75052e-06
1.96279e-06
1.73966e-06
8.89804e-07
6.60547e-07
7.52551e-07
8.7642e-07
9.55789e-07
8.35591e-07
1.11803e-06
1.16794e-06
7.41109e-07
6.71072e-07
6.57549e-07
6.19888e-07
5.89603e-07
5.99907e-07
6.1346e-07
6.20966e-07
6.19104e-07
6.05601e-07
5.72038e-07
4.5497e-07
0.999997
0.999997
0.999995
0.999995
0.999994
0.999993
0.999992
0.999991
0.999991
0.99999
0.99999
0.99999
0.99999
0.99999
0.99999
0.99999
0.99999
0.99999
0.99999
0.99999
0.99999
0.99999
0.99999
0.99999
0.99999
0.99999
0.99999
0.99999
0.99999
0.99999
0.99999
0.99999
0.99999
0.99999
0.99999
0.99999
0.99999
0.99999
0.99999
0.99999
0.99999
0.99999
0.99999
0.999989
0.999989
0.999986
0.999979
0.99993
0.99988
0.999875
0.999876
0.999878
0.999878
0.999877
0.999875
0.999875
0.999876
0.99984
0.999859
0.832581
0.00588489
0.00127537
0.00121924
0.000972481
0.0008266
0.000644977
0.000463439
0.000312102
0.000197168
0.000128889
0.000105847
0.000103589
0.000109865
0.000112091
0.000112768
0.000118855
0.000120186
9.01037e-05
6.45274e-05
3.7913e-05
2.1359e-05
1.05795e-05
5.86811e-06
3.84689e-06
1.92037e-06
9.74646e-07
6.2384e-07
5.1933e-07
4.82581e-07
5.5777e-07
5.64545e-07
5.8936e-07
6.10218e-07
6.07699e-07
5.79681e-07
4.63206e-07
0.999997
0.999997
0.999996
0.999995
0.999994
0.999993
0.999992
0.999991
0.999991
0.99999
0.99999
0.99999
0.99999
0.99999
0.99999
0.99999
0.99999
0.99999
0.99999
0.99999
0.99999
0.99999
0.99999
0.99999
0.99999
0.99999
0.99999
0.99999
0.99999
0.99999
0.99999
0.99999
0.99999
0.99999
0.99999
0.99999
0.99999
0.99999
0.99999
0.99999
0.99999
0.99999
0.99999
0.99999
0.999989
0.999987
0.999984
0.99996
0.999896
0.999874
0.999872
0.999875
0.999876
0.999876
0.999873
0.999871
0.99987
0.999868
0.999886
0.807169
0.013954
0.00553344
0.00565242
0.00525003
0.00484239
0.00431647
0.00361829
0.0029228
0.00219509
0.0016053
0.00122874
0.00116065
0.0013024
0.00142687
0.00153895
0.00159556
0.00162173
0.00140008
0.00121674
0.00099735
0.000837485
0.000728075
0.000653856
0.000543584
0.000347489
0.00020796
9.60195e-05
2.97257e-05
5.15037e-06
9.63822e-07
2.56359e-07
3.63557e-07
4.17956e-07
4.50932e-07
4.9903e-07
4.24456e-07
0.999997
0.999997
0.999996
0.999995
0.999994
0.999994
0.999993
0.999991
0.999991
0.999991
0.99999
0.99999
0.99999
0.99999
0.99999
0.99999
0.99999
0.99999
0.99999
0.99999
0.99999
0.99999
0.99999
0.99999
0.99999
0.99999
0.99999
0.99999
0.99999
0.99999
0.99999
0.99999
0.99999
0.99999
0.99999
0.99999
0.99999
0.99999
0.99999
0.99999
0.99999
0.99999
0.99999
0.99999
0.999989
0.999987
0.999983
0.999974
0.999932
0.999885
0.99987
0.999868
0.999872
0.999877
0.999879
0.999879
0.999879
0.999877
0.999886
0.7933
0.023804
0.011404
0.012109
0.0122223
0.0114878
0.0109394
0.00975946
0.00854286
0.00689441
0.00562544
0.00474692
0.00427306
0.00414518
0.00442044
0.0047031
0.00501559
0.00529937
0.00552006
0.00568124
0.00579693
0.00583384
0.00579072
0.00584365
0.00547
0.00500173
0.00429907
0.00346425
0.0024466
0.00143777
0.000599952
0.000133388
3.36555e-07
3.36555e-07
3.36554e-07
3.36554e-07
3.36554e-07
0.999997
0.999997
0.999996
0.999996
0.999994
0.999994
0.999993
0.999992
0.999991
0.999991
0.99999
0.99999
0.99999
0.99999
0.99999
0.99999
0.99999
0.99999
0.99999
0.99999
0.99999
0.99999
0.99999
0.99999
0.99999
0.99999
0.99999
0.99999
0.99999
0.99999
0.99999
0.99999
0.99999
0.99999
0.99999
0.99999
0.99999
0.99999
0.99999
0.99999
0.99999
0.99999
0.99999
0.99999
0.999989
0.999987
0.999982
0.999975
0.999949
0.999907
0.999875
0.999865
0.999864
0.999868
0.999874
0.999878
0.999881
0.999881
0.999886
0.797506
0.031802
0.0161688
0.0172295
0.0173659
0.0171565
0.0171605
0.0165336
0.0158303
0.0145569
0.0134139
0.0123728
0.0114202
0.0107215
0.0105762
0.0109591
0.0112797
0.0115516
0.0117088
0.0118316
0.0118928
0.0115518
0.0113615
0.0113139
0.0116724
0.0120692
0.0125918
0.0132574
0.014014
0.014687
0.0151844
0.0146264
0.0133266
0.0112565
0.00850311
0.00557927
0.00318358
0.999997
0.999997
0.999996
0.999996
0.999995
0.999994
0.999993
0.999992
0.999991
0.999991
0.99999
0.99999
0.99999
0.99999
0.99999
0.99999
0.99999
0.99999
0.99999
0.99999
0.99999
0.99999
0.99999
0.99999
0.99999
0.99999
0.99999
0.99999
0.99999
0.99999
0.99999
0.99999
0.99999
0.99999
0.99999
0.99999
0.99999
0.99999
0.99999
0.99999
0.99999
0.99999
0.99999
0.99999
0.999989
0.999987
0.99998
0.99997
0.999958
0.999923
0.999888
0.999869
0.999863
0.999863
0.999867
0.999869
0.999872
0.999877
0.999886
0.777228
0.0256364
0.0134507
0.0136135
0.0128597
0.0120109
0.0112061
0.0101095
0.00908293
0.00809199
0.00731163
0.00679091
0.00646931
0.00613887
0.00569328
0.00510036
0.00435917
0.00350726
0.00267584
0.00198608
0.00147185
0.0011778
0.00110811
0.00121569
0.00131067
0.00142205
0.0015411
0.00168767
0.00180032
0.00186981
0.00181367
0.00157924
0.00120195
0.000815708
0.000359261
9.12136e-05
3.51052e-07
0.999997
0.999997
0.999997
0.999996
0.999995
0.999994
0.999993
0.999992
0.999991
0.999991
0.99999
0.99999
0.99999
0.99999
0.99999
0.99999
0.99999
0.99999
0.99999
0.99999
0.99999
0.99999
0.99999
0.99999
0.99999
0.99999
0.99999
0.99999
0.99999
0.99999
0.99999
0.99999
0.99999
0.99999
0.99999
0.99999
0.99999
0.99999
0.99999
0.99999
0.99999
0.99999
0.99999
0.99999
0.999989
0.999986
0.999978
0.999968
0.999961
0.999944
0.999911
0.999881
0.999867
0.99986
0.999865
0.999865
0.999863
0.999875
0.999886
0.765373
0.0152155
0.00687135
0.00647838
0.0056749
0.00499818
0.00433617
0.00372596
0.00314134
0.002622
0.00216249
0.00179568
0.00146937
0.00112826
0.000789912
0.000488822
0.000266365
0.000123858
4.83277e-05
1.75635e-05
7.16839e-06
4.70557e-06
5.59455e-06
7.0364e-06
8.28313e-06
9.82768e-06
1.14776e-05
1.36087e-05
1.50173e-05
1.28088e-05
9.26509e-06
7.43093e-06
4.67779e-06
2.69806e-06
9.7976e-07
3.63467e-07
3.50683e-07
0.999997
0.999997
0.999997
0.999997
0.999996
0.999994
0.999993
0.999992
0.999991
0.999991
0.99999
0.99999
0.99999
0.99999
0.99999
0.99999
0.99999
0.99999
0.99999
0.99999
0.99999
0.99999
0.99999
0.99999
0.99999
0.99999
0.99999
0.99999
0.99999
0.99999
0.99999
0.99999
0.99999
0.99999
0.99999
0.99999
0.99999
0.99999
0.99999
0.99999
0.99999
0.99999
0.99999
0.99999
0.999989
0.999986
0.999979
0.999967
0.999957
0.99995
0.999932
0.999905
0.999882
0.999866
0.99987
0.999873
0.999868
0.999841
0.999886
0.79537
0.00557057
0.00143172
0.00122913
0.00094817
0.000799722
0.000661354
0.000558231
0.000433508
0.00032027
0.000222212
0.000144259
8.42957e-05
4.29966e-05
1.77463e-05
6.09416e-06
1.96294e-06
8.17212e-07
4.95913e-07
4.29365e-07
4.29365e-07
4.62658e-07
5.21082e-07
5.33402e-07
4.84267e-07
4.41087e-07
4.35927e-07
5.59261e-07
7.16167e-07
6.35674e-07
4.18427e-07
4.40149e-07
5.83835e-07
6.75194e-07
5.84544e-07
3.88978e-07
3.5783e-07
0.999998
0.999997
0.999997
0.999997
0.999996
0.999995
0.999993
0.999992
0.999991
0.99999
0.99999
0.99999
0.99999
0.99999
0.99999
0.99999
0.99999
0.99999
0.99999
0.99999
0.99999
0.99999
0.99999
0.99999
0.99999
0.99999
0.99999
0.99999
0.99999
0.99999
0.99999
0.99999
0.99999
0.99999
0.99999
0.99999
0.99999
0.99999
0.99999
0.99999
0.99999
0.99999
0.99999
0.99999
0.999989
0.999987
0.999981
0.999971
0.999957
0.999945
0.999938
0.999924
0.999903
0.999878
0.999873
0.999877
0.999879
0.99983
0.999886
0.852223
0.00324549
5.50438e-05
3.908e-05
2.07957e-05
1.88099e-05
1.60305e-05
1.38588e-05
9.81364e-06
6.74354e-06
3.95302e-06
2.20845e-06
1.38283e-06
9.97061e-07
7.95234e-07
5.7908e-07
5.47459e-07
5.47022e-07
5.24915e-07
5.25357e-07
5.90083e-07
6.3802e-07
6.50845e-07
6.35989e-07
6.20872e-07
6.1046e-07
5.99391e-07
5.93905e-07
5.90951e-07
5.53151e-07
4.319e-07
3.80184e-07
4.19575e-07
4.55114e-07
4.4136e-07
3.72771e-07
3.59097e-07
0.999998
0.999997
0.999998
0.999998
0.999997
0.999996
0.999994
0.999992
0.999991
0.99999
0.99999
0.99999
0.99999
0.99999
0.99999
0.99999
0.99999
0.99999
0.99999
0.99999
0.99999
0.99999
0.99999
0.99999
0.99999
0.99999
0.99999
0.99999
0.99999
0.99999
0.99999
0.99999
0.99999
0.99999
0.99999
0.99999
0.99999
0.99999
0.99999
0.99999
0.99999
0.99999
0.99999
0.99999
0.999988
0.999986
0.999982
0.999972
0.999958
0.999944
0.999935
0.999928
0.999916
0.999893
0.999877
0.999878
0.999884
0.999863
0.99978
0.925771
0.0348956
7.54299e-07
1.03194e-06
6.44558e-07
7.78574e-07
6.81255e-07
6.69392e-07
6.69261e-07
6.73227e-07
9.78025e-07
9.91324e-07
7.46582e-07
6.20496e-07
5.92344e-07
5.80844e-07
5.69188e-07
5.75969e-07
6.11233e-07
6.39555e-07
6.52921e-07
6.53449e-07
6.40663e-07
6.27913e-07
6.15632e-07
5.99158e-07
5.87424e-07
5.85515e-07
5.92505e-07
5.65264e-07
4.63989e-07
3.51859e-07
3.81617e-07
4.08966e-07
4.17532e-07
4.2263e-07
3.67792e-07
0.999998
0.999997
0.999997
0.999997
0.999997
0.999996
0.999995
0.999993
0.999991
0.99999
0.99999
0.99999
0.99999
0.99999
0.99999
0.99999
0.99999
0.99999
0.99999
0.99999
0.99999
0.99999
0.99999
0.99999
0.99999
0.99999
0.99999
0.99999
0.99999
0.99999
0.99999
0.99999
0.99999
0.99999
0.99999
0.99999
0.99999
0.99999
0.99999
0.99999
0.99999
0.99999
0.99999
0.99999
0.999988
0.999985
0.999981
0.999972
0.999959
0.999944
0.99993
0.999921
0.999914
0.999898
0.999886
0.999878
0.999888
0.999871
0.999454
0.916074
0.0143583
6.08007e-07
6.13022e-07
6.41627e-07
6.35591e-07
6.46726e-07
6.70007e-07
6.69129e-07
6.71079e-07
6.74423e-07
6.73325e-07
6.69944e-07
6.6346e-07
6.52323e-07
6.38671e-07
6.27211e-07
6.15639e-07
6.37133e-07
6.57338e-07
6.57338e-07
6.4325e-07
6.32498e-07
6.29079e-07
6.27887e-07
6.148e-07
5.85534e-07
5.79836e-07
5.86963e-07
5.73207e-07
5.32352e-07
4.05793e-07
3.77779e-07
4.35784e-07
4.82697e-07
5.07759e-07
4.03054e-07
0.999998
0.999997
0.999997
0.999997
0.999997
0.999996
0.999995
0.999994
0.999991
0.99999
0.99999
0.99999
0.99999
0.99999
0.99999
0.99999
0.99999
0.99999
0.99999
0.99999
0.99999
0.99999
0.99999
0.99999
0.99999
0.99999
0.99999
0.99999
0.99999
0.99999
0.99999
0.99999
0.99999
0.99999
0.99999
0.99999
0.99999
0.99999
0.99999
0.99999
0.99999
0.99999
0.99999
0.99999
0.999988
0.999985
0.999979
0.999971
0.999959
0.999943
0.999928
0.999919
0.999912
0.999902
0.999898
0.999883
0.999892
0.999872
0.999074
0.914614
0.0144638
2.04486e-05
6.08013e-07
6.29506e-07
6.16794e-07
6.22508e-07
6.37458e-07
6.46545e-07
6.48902e-07
6.48846e-07
6.44379e-07
6.36948e-07
6.30431e-07
6.25479e-07
6.23145e-07
6.24958e-07
6.23526e-07
6.23556e-07
6.24065e-07
6.26699e-07
6.29072e-07
6.30536e-07
6.31315e-07
6.33413e-07
6.36022e-07
6.13948e-07
5.80169e-07
5.87711e-07
5.77979e-07
5.57374e-07
4.99846e-07
4.10483e-07
4.46279e-07
5.35241e-07
5.38122e-07
4.28469e-07
0.999998
0.999998
0.999998
0.999997
0.999996
0.999996
0.999995
0.999994
0.999991
0.99999
0.99999
0.99999
0.99999
0.99999
0.99999
0.99999
0.99999
0.99999
0.99999
0.99999
0.99999
0.99999
0.99999
0.99999
0.99999
0.99999
0.99999
0.99999
0.99999
0.99999
0.99999
0.99999
0.99999
0.99999
0.99999
0.99999
0.99999
0.99999
0.99999
0.99999
0.99999
0.99999
0.99999
0.99999
0.999988
0.999983
0.999977
0.999969
0.99996
0.999942
0.999921
0.999913
0.999909
0.999903
0.9999
0.999886
0.999894
0.999876
0.998684
0.942092
0.0445883
0.000351335
1.01777e-06
6.16284e-07
6.16285e-07
6.16286e-07
6.17056e-07
6.18354e-07
6.18973e-07
6.20271e-07
6.20396e-07
6.20412e-07
6.2077e-07
6.22109e-07
6.22972e-07
6.25115e-07
6.27975e-07
6.27983e-07
6.27855e-07
6.28404e-07
6.30544e-07
6.30612e-07
6.30646e-07
6.31099e-07
6.3431e-07
6.22772e-07
5.81281e-07
5.83882e-07
5.7478e-07
5.58647e-07
5.54009e-07
5.29069e-07
5.19018e-07
5.41768e-07
5.50516e-07
4.62996e-07
0.999996
0.999995
0.999995
0.999994
0.999994
0.999992
0.999991
0.999991
0.99999
0.99999
0.99999
0.99999
0.99999
0.99999
0.99999
0.99999
0.99999
0.99999
0.99999
0.99999
0.99999
0.99999
0.99999
0.99999
0.99999
0.99999
0.99999
0.99999
0.99999
0.99999
0.99999
0.99999
0.99999
0.99999
0.99999
0.99999
0.99999
0.99999
0.99999
0.99999
0.99999
0.99999
0.99999
0.999989
0.999986
0.999982
0.999976
0.999959
0.999921
0.999888
0.999882
0.99988
0.99988
0.999879
0.99988
0.999879
0.999881
0.999874
0.999101
0.935324
0.0314267
0.000129519
4.88934e-07
5.0153e-07
4.94757e-07
4.94716e-07
4.97058e-07
4.98444e-07
5.01998e-07
5.10858e-07
5.2408e-07
5.32155e-07
5.39646e-07
5.46819e-07
5.5265e-07
5.48899e-07
5.25343e-07
4.96286e-07
4.95888e-07
5.00081e-07
5.06371e-07
5.10323e-07
5.1608e-07
5.16219e-07
5.09186e-07
5.07708e-07
4.97378e-07
4.80201e-07
4.42763e-07
4.02596e-07
3.91801e-07
4.1086e-07
4.54747e-07
4.99722e-07
5.12419e-07
4.52278e-07
0.999997
0.999995
0.999994
0.999994
0.999993
0.999992
0.999991
0.999991
0.999991
0.99999
0.99999
0.99999
0.99999
0.99999
0.99999
0.99999
0.99999
0.99999
0.99999
0.99999
0.99999
0.99999
0.99999
0.99999
0.99999
0.99999
0.99999
0.99999
0.99999
0.99999
0.99999
0.99999
0.99999
0.99999
0.99999
0.99999
0.99999
0.99999
0.99999
0.99999
0.99999
0.99999
0.99999
0.999989
0.999987
0.999982
0.999971
0.99995
0.999897
0.999879
0.999878
0.999878
0.999879
0.999878
0.99988
0.99988
0.999884
0.999867
0.999625
0.925499
0.0217137
2.64631e-06
4.88932e-07
5.23116e-07
5.14888e-07
6.21151e-07
6.98589e-07
7.17022e-07
7.24981e-07
7.23376e-07
7.12231e-07
6.92756e-07
6.47484e-07
5.87979e-07
5.48496e-07
5.21906e-07
5.08159e-07
5.00884e-07
5.0436e-07
5.23395e-07
5.30986e-07
5.19344e-07
5.18456e-07
5.25607e-07
5.26603e-07
5.26022e-07
5.24752e-07
5.42748e-07
5.99521e-07
6.16271e-07
5.89052e-07
4.9707e-07
4.49339e-07
4.68741e-07
5.03241e-07
4.24872e-07
0.999997
0.999996
0.999994
0.999994
0.999993
0.999992
0.999992
0.999991
0.999991
0.999991
0.99999
0.99999
0.99999
0.99999
0.99999
0.99999
0.99999
0.99999
0.99999
0.99999
0.99999
0.99999
0.99999
0.99999
0.99999
0.99999
0.99999
0.99999
0.99999
0.99999
0.99999
0.99999
0.99999
0.99999
0.99999
0.99999
0.99999
0.99999
0.99999
0.99999
0.99999
0.99999
0.99999
0.999989
0.999988
0.999986
0.999978
0.99995
0.999885
0.999877
0.999878
0.999879
0.999879
0.999876
0.999877
0.999879
0.999886
0.999868
0.99979
0.955758
0.0368177
8.40462e-07
1.44901e-06
5.23026e-07
6.9229e-07
9.05101e-07
9.7101e-07
9.92118e-07
9.5672e-07
8.71026e-07
7.07464e-07
6.29066e-07
5.94437e-07
5.62033e-07
5.70724e-07
6.30423e-07
7.97174e-07
8.54404e-07
8.68912e-07
9.20845e-07
8.01199e-07
5.88604e-07
5.19542e-07
5.34072e-07
5.41994e-07
5.72193e-07
6.1765e-07
6.72365e-07
6.72211e-07
6.79272e-07
6.84938e-07
6.61675e-07
5.91442e-07
5.69147e-07
5.51714e-07
4.43145e-07
0.999998
0.999997
0.999995
0.999994
0.999994
0.999993
0.999992
0.999991
0.999991
0.999991
0.99999
0.99999
0.99999
0.99999
0.99999
0.99999
0.99999
0.99999
0.99999
0.99999
0.99999
0.99999
0.99999
0.99999
0.99999
0.99999
0.99999
0.99999
0.99999
0.99999
0.99999
0.99999
0.99999
0.99999
0.99999
0.99999
0.99999
0.99999
0.99999
0.99999
0.99999
0.99999
0.99999
0.99999
0.999989
0.999987
0.999984
0.999969
0.999887
0.999877
0.999878
0.999879
0.999876
0.999874
0.999876
0.999876
0.999884
0.999866
0.999743
0.937411
0.0172936
9.09046e-05
0.000102643
8.15443e-05
7.80819e-05
6.49913e-05
5.09352e-05
2.89066e-05
1.75129e-05
1.14512e-05
9.18548e-06
9.14771e-06
1.1829e-05
1.41508e-05
1.63547e-05
1.73483e-05
1.43533e-05
1.05503e-05
7.10433e-06
4.26197e-06
2.65981e-06
1.48317e-06
9.88817e-07
8.33505e-07
8.34394e-07
6.60482e-07
6.67884e-07
6.5181e-07
6.82018e-07
7.92576e-07
7.40126e-07
7.40397e-07
7.15367e-07
6.81737e-07
6.21268e-07
4.58708e-07
0.999998
0.999998
0.999996
0.999995
0.999994
0.999993
0.999992
0.999992
0.999991
0.999991
0.99999
0.99999
0.99999
0.99999
0.99999
0.99999
0.99999
0.99999
0.99999
0.99999
0.99999
0.99999
0.99999
0.99999
0.99999
0.99999
0.99999
0.99999
0.99999
0.99999
0.99999
0.99999
0.99999
0.99999
0.99999
0.99999
0.99999
0.99999
0.99999
0.99999
0.99999
0.99999
0.99999
0.99999
0.999989
0.999987
0.999984
0.999977
0.999901
0.999875
0.999877
0.999877
0.999875
0.999874
0.999881
0.999877
0.999882
0.999859
0.999804
0.8526
0.0121065
0.00286361
0.00307909
0.00281476
0.00268247
0.00216165
0.00184532
0.00136489
0.00097836
0.000670392
0.000469204
0.000402834
0.00050558
0.00066297
0.000837054
0.000930264
0.000945614
0.000859718
0.00070722
0.000518997
0.000359919
0.000234558
0.00013848
6.5451e-05
2.64266e-05
8.98793e-06
3.05731e-06
1.18605e-06
9.2415e-07
8.77723e-07
5.5999e-07
5.72377e-07
6.10213e-07
6.38834e-07
6.17641e-07
4.70926e-07
0.999998
0.999998
0.999997
0.999995
0.999994
0.999993
0.999992
0.999992
0.999991
0.999991
0.99999
0.99999
0.99999
0.99999
0.99999
0.99999
0.99999
0.99999
0.99999
0.99999
0.99999
0.99999
0.99999
0.99999
0.99999
0.99999
0.99999
0.99999
0.99999
0.99999
0.99999
0.99999
0.99999
0.99999
0.99999
0.99999
0.99999
0.99999
0.99999
0.99999
0.99999
0.99999
0.99999
0.99999
0.999989
0.999987
0.999984
0.99998
0.999916
0.999871
0.999873
0.999875
0.999876
0.999876
0.999877
0.999873
0.999868
0.999848
0.999843
0.822838
0.0300295
0.0139836
0.0152527
0.0154085
0.0148549
0.01409
0.0134355
0.0125437
0.0115348
0.0105774
0.0100492
0.00974052
0.00982551
0.0114998
0.0127541
0.0137476
0.014088
0.0135166
0.0122671
0.0111159
0.0096912
0.0080274
0.00622823
0.00472553
0.00334577
0.00212874
0.00118559
0.000539882
0.00020593
4.78762e-05
2.49781e-06
3.17424e-07
6.22367e-07
5.97847e-07
5.23728e-07
3.70752e-07
0.999998
0.999998
0.999997
0.999996
0.999995
0.999994
0.999992
0.999992
0.999991
0.999991
0.99999
0.99999
0.99999
0.99999
0.99999
0.99999
0.99999
0.99999
0.99999
0.99999
0.99999
0.99999
0.99999
0.99999
0.99999
0.99999
0.99999
0.99999
0.99999
0.99999
0.99999
0.99999
0.99999
0.99999
0.99999
0.99999
0.99999
0.99999
0.99999
0.99999
0.99999
0.99999
0.99999
0.99999
0.999989
0.999987
0.999983
0.999972
0.999898
0.999864
0.999866
0.999867
0.999868
0.999869
0.999868
0.999864
0.999859
0.999851
0.999873
0.811045
0.044044
0.0240315
0.0273828
0.0283606
0.0284366
0.0293556
0.0302688
0.0315261
0.0331316
0.0347904
0.0361838
0.0370092
0.0375758
0.0381829
0.0394443
0.0404839
0.0407857
0.0406986
0.0407732
0.0414688
0.0419587
0.0416072
0.040659
0.0390262
0.0365979
0.0333029
0.0288948
0.0232125
0.0165745
0.00953002
0.00338083
0.000567841
0.000553307
0.000437895
0.000380103
0.000301892
0.999998
0.999998
0.999998
0.999997
0.999995
0.999994
0.999993
0.999992
0.999991
0.999991
0.99999
0.99999
0.99999
0.99999
0.99999
0.99999
0.99999
0.99999
0.99999
0.99999
0.99999
0.99999
0.99999
0.99999
0.99999
0.99999
0.99999
0.99999
0.99999
0.99999
0.99999
0.99999
0.99999
0.99999
0.99999
0.99999
0.99999
0.99999
0.99999
0.99999
0.99999
0.99999
0.99999
0.99999
0.999989
0.999986
0.999982
0.999965
0.999888
0.999853
0.999855
0.999861
0.999865
0.999866
0.999866
0.999865
0.999867
0.999862
0.999886
0.833064
0.0385253
0.0174827
0.0190744
0.0197771
0.0211237
0.0233341
0.025761
0.0279513
0.0305741
0.0332698
0.036137
0.0393944
0.0422467
0.0442932
0.0454011
0.0460533
0.0468394
0.0480114
0.0498707
0.05226
0.05536
0.0591205
0.0634949
0.0682539
0.0736018
0.0799866
0.0874285
0.0959514
0.105465
0.114588
0.12427
0.136174
0.15022
0.171652
0.219496
0.409158
0.999998
0.999998
0.999998
0.999997
0.999996
0.999994
0.999993
0.999992
0.999991
0.999991
0.99999
0.99999
0.99999
0.99999
0.99999
0.99999
0.99999
0.99999
0.99999
0.99999
0.99999
0.99999
0.99999
0.99999
0.99999
0.99999
0.99999
0.99999
0.99999
0.99999
0.99999
0.99999
0.99999
0.99999
0.99999
0.99999
0.99999
0.99999
0.99999
0.99999
0.99999
0.99999
0.99999
0.99999
0.999989
0.999986
0.999981
0.999972
0.999929
0.999853
0.999853
0.999857
0.999861
0.999864
0.999861
0.999846
0.999841
0.999843
0.999875
0.8275
0.0240672
0.010881
0.0113678
0.0116796
0.01271
0.0136254
0.0142368
0.0141839
0.0119215
0.00951726
0.00663738
0.00461866
0.00337988
0.00216854
0.00146581
0.00133253
0.00125576
0.00122647
0.00123301
0.00129519
0.00138493
0.00152245
0.00173891
0.00204012
0.00242439
0.0028514
0.00342654
0.00393439
0.00371832
0.00420165
0.00303801
0.00127901
0.000339515
8.7068e-05
4.69466e-05
1.3626e-05
0.999998
0.999999
0.999998
0.999998
0.999997
0.999995
0.999993
0.999992
0.999991
0.999991
0.99999
0.99999
0.99999
0.99999
0.99999
0.99999
0.99999
0.99999
0.99999
0.99999
0.99999
0.99999
0.99999
0.99999
0.99999
0.99999
0.99999
0.99999
0.99999
0.99999
0.99999
0.99999
0.99999
0.99999
0.99999
0.99999
0.99999
0.99999
0.99999
0.99999
0.99999
0.99999
0.99999
0.99999
0.999989
0.999986
0.999981
0.999973
0.999959
0.999914
0.999856
0.999853
0.999853
0.999856
0.999864
0.999842
0.999827
0.999847
0.999886
0.819669
0.0123609
0.0047148
0.00455496
0.00426417
0.00401504
0.00368914
0.00291318
0.00213264
0.00126645
0.000680136
0.000330495
0.000178782
9.65297e-05
4.37406e-05
1.72515e-05
9.06034e-06
6.99129e-06
5.65406e-06
4.9237e-06
4.5929e-06
4.14616e-06
4.10409e-06
4.78329e-06
5.50613e-06
5.77036e-06
5.26249e-06
6.44595e-06
6.65421e-06
6.60476e-06
4.13805e-06
1.51105e-06
3.671e-07
3.66397e-07
3.65712e-07
3.64025e-07
3.37095e-07
0.999998
0.999999
0.999999
0.999998
0.999998
0.999996
0.999993
0.999992
0.999991
0.999991
0.99999
0.99999
0.99999
0.99999
0.99999
0.99999
0.99999
0.99999
0.99999
0.99999
0.99999
0.99999
0.99999
0.99999
0.99999
0.99999
0.99999
0.99999
0.99999
0.99999
0.99999
0.99999
0.99999
0.99999
0.99999
0.99999
0.99999
0.99999
0.99999
0.99999
0.99999
0.99999
0.99999
0.99999
0.999989
0.999986
0.999981
0.999973
0.999961
0.999943
0.999908
0.999879
0.999861
0.999851
0.999856
0.999853
0.999834
0.999819
0.999882
0.838976
0.00386322
0.000765676
0.000644227
0.000462727
0.000371163
0.000265054
0.000175566
0.000106209
5.58182e-05
2.51565e-05
1.10988e-05
4.64297e-06
1.84772e-06
9.3737e-07
7.61891e-07
8.97448e-07
7.66272e-07
7.6675e-07
6.52003e-07
5.95487e-07
5.53189e-07
5.2132e-07
5.63599e-07
6.47905e-07
6.581e-07
6.40031e-07
6.00989e-07
6.00904e-07
6.45054e-07
5.90369e-07
4.41241e-07
4.21958e-07
4.10183e-07
4.09249e-07
4.04353e-07
3.7165e-07
0.999998
0.999999
0.999999
0.999999
0.999998
0.999997
0.999994
0.999992
0.999991
0.999991
0.99999
0.99999
0.99999
0.99999
0.99999
0.99999
0.99999
0.99999
0.99999
0.99999
0.99999
0.99999
0.99999
0.99999
0.99999
0.99999
0.99999
0.99999
0.99999
0.99999
0.99999
0.99999
0.99999
0.99999
0.99999
0.99999
0.99999
0.99999
0.99999
0.99999
0.99999
0.99999
0.99999
0.99999
0.999988
0.999986
0.99998
0.999972
0.99996
0.999944
0.999927
0.999919
0.99989
0.999867
0.999861
0.999861
0.99985
0.999803
0.999785
0.873672
0.00238746
2.63348e-05
2.20682e-05
1.09564e-05
9.02149e-06
6.17697e-06
4.39703e-06
2.66498e-06
1.50614e-06
9.1755e-07
8.00667e-07
7.81858e-07
7.73351e-07
8.84068e-07
7.95879e-07
7.0825e-07
6.86279e-07
6.6333e-07
6.32994e-07
6.166e-07
6.09944e-07
6.42297e-07
6.45501e-07
6.32701e-07
6.22118e-07
6.20645e-07
6.20929e-07
6.25845e-07
5.99923e-07
5.12175e-07
3.92491e-07
3.9986e-07
4.10169e-07
4.18428e-07
4.15718e-07
4.07036e-07
0.999998
0.999998
0.999999
0.999999
0.999999
0.999998
0.999996
0.999993
0.999991
0.999991
0.99999
0.99999
0.99999
0.99999
0.99999
0.99999
0.99999
0.99999
0.99999
0.99999
0.99999
0.99999
0.99999
0.99999
0.99999
0.99999
0.99999
0.99999
0.99999
0.99999
0.99999
0.99999
0.99999
0.99999
0.99999
0.99999
0.99999
0.99999
0.99999
0.99999
0.99999
0.99999
0.99999
0.99999
0.999988
0.999985
0.99998
0.999971
0.999959
0.999942
0.999922
0.999909
0.999906
0.999891
0.999877
0.999863
0.999864
0.999839
0.999675
0.934698
0.0266068
6.08006e-07
1.10437e-06
6.56103e-07
9.69267e-07
7.83243e-07
9.26221e-07
8.37188e-07
9.60105e-07
9.68607e-07
9.13666e-07
7.70454e-07
6.7404e-07
6.76484e-07
6.61235e-07
6.21676e-07
6.28244e-07
6.42944e-07
6.51177e-07
6.5321e-07
6.5328e-07
6.42092e-07
6.33059e-07
6.26962e-07
6.19203e-07
6.15094e-07
6.12198e-07
6.19997e-07
6.12891e-07
5.46268e-07
3.8409e-07
3.82808e-07
4.38278e-07
4.86669e-07
5.16854e-07
4.39609e-07
0.999998
0.999998
0.999998
0.999998
0.999999
0.999998
0.999998
0.999995
0.999991
0.99999
0.99999
0.99999
0.99999
0.99999
0.99999
0.99999
0.99999
0.99999
0.99999
0.99999
0.99999
0.99999
0.99999
0.99999
0.99999
0.99999
0.99999
0.99999
0.99999
0.99999
0.99999
0.99999
0.99999
0.99999
0.99999
0.99999
0.99999
0.99999
0.99999
0.99999
0.99999
0.99999
0.99999
0.99999
0.999988
0.999985
0.999979
0.99997
0.999958
0.999941
0.999921
0.999907
0.999899
0.999892
0.999887
0.999869
0.999886
0.999836
0.999383
0.950122
0.0288796
6.08005e-07
6.63149e-07
7.74475e-07
7.93751e-07
8.17458e-07
7.96274e-07
7.68535e-07
7.3264e-07
7.22307e-07
7.06221e-07
6.84143e-07
6.70028e-07
6.59254e-07
6.47755e-07
6.40905e-07
6.35921e-07
6.33314e-07
6.39497e-07
6.45378e-07
6.45307e-07
6.43442e-07
6.36938e-07
6.36473e-07
6.3438e-07
6.2368e-07
6.09714e-07
6.16868e-07
6.15282e-07
5.69821e-07
4.4127e-07
3.79838e-07
4.45782e-07
5.3493e-07
5.52166e-07
4.67877e-07
0.999998
0.999997
0.999998
0.999998
0.999998
0.999998
0.999998
0.999997
0.999993
0.99999
0.99999
0.99999
0.99999
0.99999
0.99999
0.99999
0.99999
0.99999
0.99999
0.99999
0.99999
0.99999
0.99999
0.99999
0.99999
0.99999
0.99999
0.99999
0.99999
0.99999
0.99999
0.99999
0.99999
0.99999
0.99999
0.99999
0.99999
0.99999
0.99999
0.99999
0.99999
0.99999
0.99999
0.99999
0.999988
0.999984
0.999978
0.999969
0.999958
0.999942
0.999923
0.99991
0.999904
0.999901
0.9999
0.999884
0.999894
0.999845
0.999048
0.956127
0.0389332
1.25923e-06
7.82629e-07
6.66495e-07
6.48369e-07
6.68391e-07
6.96103e-07
7.03979e-07
7.0828e-07
7.04404e-07
6.929e-07
6.76433e-07
6.60665e-07
6.48028e-07
6.37874e-07
6.33232e-07
6.3244e-07
6.31359e-07
6.3167e-07
6.33495e-07
6.36815e-07
6.40388e-07
6.43353e-07
6.43138e-07
6.43219e-07
6.34897e-07
6.11781e-07
6.14319e-07
6.1641e-07
5.78425e-07
5.099e-07
4.23274e-07
4.40313e-07
5.06952e-07
5.55039e-07
4.88936e-07
0.999998
0.999998
0.999998
0.999997
0.999998
0.999998
0.999998
0.999997
0.999993
0.99999
0.99999
0.99999
0.99999
0.99999
0.99999
0.99999
0.99999
0.99999
0.99999
0.99999
0.99999
0.99999
0.99999
0.99999
0.99999
0.99999
0.99999
0.99999
0.99999
0.99999
0.99999
0.99999
0.99999
0.99999
0.99999
0.99999
0.99999
0.99999
0.99999
0.99999
0.99999
0.99999
0.99999
0.99999
0.999988
0.999984
0.999977
0.999968
0.999959
0.999942
0.999921
0.99991
0.999906
0.999903
0.999901
0.999887
0.999894
0.999855
0.998794
0.943149
0.0641901
0.000555826
1.07124e-06
6.16284e-07
6.16992e-07
6.17426e-07
6.16887e-07
6.16887e-07
6.17471e-07
6.19244e-07
6.22046e-07
6.25511e-07
6.2895e-07
6.31559e-07
6.32669e-07
6.33407e-07
6.34565e-07
6.34427e-07