/*--------------------------------*- C++ -*----------------------------------*\
| =========                 |                                                 |
| \\      /  F ield         | OpenFOAM: The Open Source CFD Toolbox           |
|  \\    /   O peration     | Version:  2.3.0                                 |
|   \\  /    A nd           | Web:      www.OpenFOAM.org                      |
|    \\/     M anipulation  |                                                 |
\*---------------------------------------------------------------------------*/
FoamFile
{
    version     2.0;
    format      ascii;
    class       volScalarField;
    location    "41";
    object      k.water;
}
// * * * * * * * * * * * * * * * * * * * * * * * * * * * * * * * * * * * * * //

dimensions      [0 2 -2 0 0 0 0];

internalField   nonuniform List<scalar> 
6144
(
9.7054e-05
7.56328e-05
5.26396e-05
4.22983e-05
3.14755e-05
2.46787e-05
2.10631e-05
1.90985e-05
1.75027e-05
2.03867e-05
2.47352e-05
2.84174e-05
3.00872e-05
3.04665e-05
2.92566e-05
2.81756e-05
2.69984e-05
2.62581e-05
2.5473e-05
2.48039e-05
2.45959e-05
2.45223e-05
2.45549e-05
2.46373e-05
2.47554e-05
2.49075e-05
2.50929e-05
2.53854e-05
2.58227e-05
2.61489e-05
2.63407e-05
2.64651e-05
2.65755e-05
2.66683e-05
2.67584e-05
2.68442e-05
2.70652e-05
2.72453e-05
2.77395e-05
2.79545e-05
2.86299e-05
2.86628e-05
2.91818e-05
2.86073e-05
2.75899e-05
2.53654e-05
2.31812e-05
2.39994e-05
3.00231e-05
4.94157e-05
8.93172e-05
0.000147638
0.000220563
0.000276411
0.000370288
0.000499182
0.000824247
0.00172622
0.0054143
0.00667284
0.0139851
0.0090123
0.00593919
0.00420541
0.00318849
0.0025602
0.00211819
0.00176805
0.00144566
0.00115416
0.000826069
0.000401736
0.000150983
0.000124857
0.000141014
0.000154641
0.000164054
0.000167103
0.000166645
0.000164725
0.000162467
0.000155109
0.000145997
0.000139312
0.000137333
0.00014818
0.000170359
0.00019394
0.000216646
0.00022864
0.000227325
0.000209467
0.000177479
0.00014756
0.000118474
7.59711e-05
0.000147223
0.000100291
6.95803e-05
6.08066e-05
4.83689e-05
4.39922e-05
4.24737e-05
4.11026e-05
3.84621e-05
4.38008e-05
4.93008e-05
5.39852e-05
5.64891e-05
5.62487e-05
5.37715e-05
5.19092e-05
5.04679e-05
5.00787e-05
5.01704e-05
5.05063e-05
5.13903e-05
5.2201e-05
5.2938e-05
5.35627e-05
5.40869e-05
5.45418e-05
5.49529e-05
5.54679e-05
5.61264e-05
5.65743e-05
5.68739e-05
5.71237e-05
5.73764e-05
5.76183e-05
5.78952e-05
5.81416e-05
5.85942e-05
5.88477e-05
5.96224e-05
5.98582e-05
6.07967e-05
6.08193e-05
6.13528e-05
6.03742e-05
5.84871e-05
5.50465e-05
5.13304e-05
5.41334e-05
6.05482e-05
8.14187e-05
0.000146014
0.000239777
0.000370958
0.000511582
0.000707491
0.000848086
0.00147513
0.00283469
0.00481063
0.00640996
0.0117982
0.00722308
0.00438406
0.00281174
0.00206569
0.00169469
0.0014746
0.00133248
0.00117304
0.000990333
0.000727489
0.000327652
0.000159583
0.000198291
0.000252661
0.000297368
0.000333228
0.000357105
0.000365975
0.000366046
0.00034838
0.000310911
0.000270126
0.000234625
0.00022311
0.000240123
0.000282879
0.000320807
0.000350695
0.00035775
0.000344735
0.00029344
0.000223176
0.000170155
0.000128916
7.82666e-05
0.000162701
0.000108217
8.37469e-05
7.54684e-05
6.45112e-05
6.25893e-05
6.43747e-05
6.28636e-05
5.65248e-05
5.58785e-05
5.95709e-05
6.1477e-05
6.1333e-05
5.92867e-05
5.68957e-05
5.60043e-05
5.61636e-05
5.76248e-05
6.01484e-05
6.27707e-05
6.48866e-05
6.66467e-05
6.8062e-05
6.91527e-05
6.99816e-05
7.06154e-05
7.1111e-05
7.1477e-05
7.16833e-05
7.17635e-05
7.17992e-05
7.18333e-05
7.18796e-05
7.1937e-05
7.20322e-05
7.20963e-05
7.22022e-05
7.21044e-05
7.22632e-05
7.19646e-05
7.22633e-05
7.2108e-05
7.27776e-05
7.2825e-05
7.30686e-05
7.26876e-05
7.35476e-05
8.10423e-05
9.32111e-05
0.000120753
0.000206855
0.000333861
0.000541024
0.000766229
0.000946231
0.00109892
0.001457
0.00259259
0.00464425
0.0058611
0.0110892
0.00608802
0.00285501
0.00149396
0.00114831
0.00101463
0.0010091
0.000997314
0.000946864
0.000842045
0.000574582
0.000246599
0.000222357
0.000311264
0.000375703
0.000427781
0.000478725
0.000515173
0.000529489
0.000523504
0.000474681
0.000407105
0.000333985
0.000292449
0.000285168
0.000333586
0.00037758
0.000411466
0.000430188
0.000419877
0.000392673
0.000332202
0.000244924
0.000201813
0.000153496
8.48406e-05
0.000179298
0.000125092
0.000100891
9.17472e-05
7.66478e-05
7.46287e-05
7.62672e-05
7.60625e-05
6.94371e-05
6.31318e-05
6.40413e-05
6.45158e-05
6.26429e-05
5.9688e-05
5.72851e-05
5.67225e-05
5.77206e-05
5.99289e-05
6.25957e-05
6.51948e-05
6.73591e-05
6.9241e-05
7.07415e-05
7.18903e-05
7.27549e-05
7.34201e-05
7.39534e-05
7.43557e-05
7.45828e-05
7.46481e-05
7.46412e-05
7.46258e-05
7.46208e-05
7.46286e-05
7.46664e-05
7.46916e-05
7.47166e-05
7.46145e-05
7.46885e-05
7.4345e-05
7.45709e-05
7.44929e-05
7.53231e-05
7.59364e-05
7.64403e-05
7.64507e-05
7.6764e-05
8.28431e-05
9.91791e-05
0.000135832
0.000234438
0.000414252
0.000786733
0.00131111
0.00152966
0.00170839
0.0018408
0.00260181
0.00443484
0.00523529
0.0106
0.00494594
0.00136166
0.000669856
0.000583489
0.000562867
0.000623514
0.000755587
0.000799294
0.000639308
0.000347676
0.000262645
0.000338742
0.000427498
0.000501777
0.000580206
0.000653692
0.000692499
0.000704621
0.000673145
0.000605992
0.000528469
0.00045452
0.000424479
0.000418386
0.000436959
0.000470109
0.000488314
0.000482257
0.000451561
0.000410622
0.000344287
0.000259469
0.00021815
0.000178189
9.46016e-05
0.000197817
0.00013626
0.000120282
0.000114695
8.97832e-05
8.26325e-05
7.57525e-05
7.62622e-05
7.48788e-05
6.82914e-05
6.74266e-05
6.54752e-05
6.24371e-05
5.84622e-05
5.57618e-05
5.51968e-05
5.6538e-05
5.91008e-05
6.21279e-05
6.50496e-05
6.77234e-05
7.00905e-05
7.18413e-05
7.30913e-05
7.39589e-05
7.45743e-05
7.50205e-05
7.53178e-05
7.54289e-05
7.53459e-05
7.51594e-05
7.49581e-05
7.47767e-05
7.46292e-05
7.45501e-05
7.44826e-05
7.43861e-05
7.4198e-05
7.40711e-05
7.37312e-05
7.37577e-05
7.39265e-05
7.46011e-05
7.54763e-05
7.55591e-05
7.53421e-05
7.61077e-05
8.25197e-05
9.81209e-05
0.000135559
0.000232172
0.000432199
0.000893273
0.00193007
0.00243196
0.00329489
0.00336113
0.00389399
0.00366913
0.00388603
0.00920702
0.00267744
0.000662282
0.00046328
0.000487911
0.000461104
0.000567904
0.0006259
0.0005608
0.000399626
0.000328596
0.000329988
0.000473343
0.000585951
0.000710141
0.000816085
0.00086467
0.000876036
0.000843132
0.000780739
0.000711112
0.000640911
0.000589145
0.000555212
0.000540854
0.000547556
0.000551102
0.000548556
0.000518249
0.000471443
0.000419296
0.000343736
0.000264265
0.000229636
0.000197003
0.000110619
0.000210584
0.000141015
0.000129984
0.000133597
0.000111594
0.000104657
8.00382e-05
7.6326e-05
7.78829e-05
7.01115e-05
6.8144e-05
6.49964e-05
6.18304e-05
5.70625e-05
5.24817e-05
5.10106e-05
5.24404e-05
5.57176e-05
5.98424e-05
6.38413e-05
6.72685e-05
6.98763e-05
7.16986e-05
7.29598e-05
7.37949e-05
7.43454e-05
7.47058e-05
7.49031e-05
7.49082e-05
7.46902e-05
7.43806e-05
7.40754e-05
7.38077e-05
7.35907e-05
7.34338e-05
7.32952e-05
7.31272e-05
7.28914e-05
7.26335e-05
7.22993e-05
7.2107e-05
7.2304e-05
7.26177e-05
7.31138e-05
7.27727e-05
7.31183e-05
7.74381e-05
8.83484e-05
0.000111106
0.000156997
0.000279931
0.000538086
0.00122781
0.00287224
0.0039268
0.00560826
0.00533428
0.00462141
0.00293655
0.00292414
0.00804878
0.00162374
0.000568816
0.000460215
0.000446058
0.000462406
0.00047839
0.00047708
0.000425209
0.000399473
0.000408015
0.000551884
0.000787137
0.000916688
0.000973631
0.000982476
0.000933379
0.00089353
0.000824996
0.000770324
0.000731079
0.000694529
0.000678065
0.000672997
0.000668268
0.000651126
0.000621177
0.000595205
0.000548799
0.000488997
0.000420256
0.000338556
0.000257561
0.000233
0.000204072
0.000119663
0.000191904
0.000141899
0.000132527
0.000139448
0.000122129
0.000120582
9.67085e-05
8.54816e-05
8.44143e-05
7.27505e-05
6.90885e-05
6.47653e-05
5.93151e-05
5.23194e-05
4.77808e-05
4.63364e-05
4.77793e-05
5.07597e-05
5.43472e-05
5.80987e-05
6.15708e-05
6.43819e-05
6.6475e-05
6.78965e-05
6.87459e-05
6.92602e-05
6.95406e-05
6.96438e-05
6.95042e-05
6.91048e-05
6.85552e-05
6.79949e-05
6.74589e-05
6.69724e-05
6.65932e-05
6.6239e-05
6.57847e-05
6.52576e-05
6.45914e-05
6.41057e-05
6.36247e-05
6.41872e-05
6.46336e-05
6.62049e-05
6.75637e-05
7.13419e-05
8.16979e-05
9.88549e-05
0.00014291
0.000274402
0.00059178
0.00107032
0.00210171
0.00373351
0.00462955
0.00505175
0.00517204
0.00459806
0.00249603
0.00245504
0.00664955
0.00112997
0.000641018
0.000559572
0.000517606
0.000503197
0.00050224
0.00050345
0.000507326
0.000582362
0.000774444
0.000922145
0.000983745
0.00100524
0.000991107
0.000931183
0.000863489
0.00082876
0.000820874
0.00082766
0.000872256
0.000911219
0.000922623
0.000880673
0.000836043
0.000750396
0.000693243
0.000635505
0.000569432
0.000498382
0.000415603
0.000342624
0.000265983
0.000242752
0.000215644
0.000127067
0.00015238
0.000124413
0.000116513
0.000122753
0.000120862
0.000122436
0.000103322
8.91146e-05
8.95409e-05
7.39849e-05
6.94572e-05
6.33516e-05
5.85461e-05
5.08679e-05
4.46469e-05
4.20383e-05
4.37687e-05
4.76175e-05
5.20783e-05
5.62954e-05
5.99201e-05
6.28045e-05
6.49439e-05
6.64433e-05
6.74157e-05
6.80497e-05
6.84503e-05
6.86136e-05
6.84373e-05
6.79292e-05
6.72681e-05
6.66282e-05
6.60551e-05
6.55175e-05
6.50091e-05
6.44995e-05
6.39266e-05
6.33306e-05
6.26131e-05
6.21324e-05
6.16863e-05
6.22946e-05
6.29702e-05
6.50088e-05
6.7383e-05
7.21219e-05
8.56222e-05
0.000110903
0.000245574
0.000786961
0.00168233
0.0025526
0.00308892
0.00393746
0.00457173
0.00495877
0.0046794
0.0042047
0.00273987
0.00272954
0.0058414
0.00108039
0.000788741
0.000756624
0.000729804
0.000724273
0.000731106
0.000780886
0.000846024
0.000936606
0.000983723
0.0010104
0.00102321
0.00100096
0.000956987
0.000907949
0.000892045
0.000915019
0.000996973
0.001073
0.00114233
0.00116402
0.00113475
0.00106678
0.000987968
0.000847652
0.000782862
0.000688182
0.000588531
0.000499309
0.000406227
0.00034269
0.000301488
0.000286213
0.000249437
0.000153078
0.000131008
0.000109026
9.79768e-05
0.000100282
9.70661e-05
9.69335e-05
9.44978e-05
8.14718e-05
8.24416e-05
6.99679e-05
6.5477e-05
5.78606e-05
5.16427e-05
4.20519e-05
3.43454e-05
3.10049e-05
3.25824e-05
3.65825e-05
4.09464e-05
4.47398e-05
4.7808e-05
5.03315e-05
5.23313e-05
5.38378e-05
5.49039e-05
5.56243e-05
5.60767e-05
5.62824e-05
5.61347e-05
5.56403e-05
5.5009e-05
5.44031e-05
5.38715e-05
5.33745e-05
5.28843e-05
5.23739e-05
5.18412e-05
5.13513e-05
5.08157e-05
5.06817e-05
5.05208e-05
5.1253e-05
5.21144e-05
5.41961e-05
5.68492e-05
6.0592e-05
7.09553e-05
0.000107948
0.000578147
0.00202658
0.00318746
0.00381232
0.00399996
0.00367727
0.00388476
0.00419993
0.00352449
0.00335457
0.00313394
0.00313561
0.00792949
0.0012793
0.000893395
0.000892452
0.000887374
0.000890754
0.000902803
0.000930931
0.000950499
0.000964849
0.000971223
0.000967255
0.000941478
0.000907677
0.000867077
0.000841447
0.000837605
0.000857953
0.000869183
0.000811862
0.000675783
0.000610452
0.000614774
0.000639941
0.00070087
0.000745112
0.000719873
0.000640364
0.00056922
0.000506376
0.000407325
0.000347
0.000321844
0.000317878
0.000261397
0.000173406
0.000118157
9.66923e-05
8.25796e-05
8.70919e-05
8.78007e-05
8.18902e-05
8.02197e-05
7.14852e-05
6.75515e-05
6.17078e-05
5.87665e-05
5.15269e-05
4.40178e-05
3.44588e-05
2.67506e-05
2.30849e-05
2.37316e-05
2.67885e-05
3.03374e-05
3.33366e-05
3.57442e-05
3.77034e-05
3.92178e-05
4.03962e-05
4.12691e-05
4.18861e-05
4.22846e-05
4.24949e-05
4.24977e-05
4.22849e-05
4.19882e-05
4.17086e-05
4.14931e-05
4.13054e-05
4.10836e-05
4.08349e-05
4.06071e-05
4.04419e-05
4.03141e-05
4.03548e-05
4.04603e-05
4.10271e-05
4.18284e-05
4.30985e-05
4.47916e-05
4.66121e-05
5.42751e-05
0.00012951
0.00100038
0.00286468
0.00340206
0.0030693
0.00301095
0.00279485
0.00288646
0.00326163
0.00311918
0.00279595
0.00361208
0.00363179
0.00822391
0.00129956
0.000918292
0.000931849
0.0009415
0.000947276
0.000952942
0.000957026
0.00095995
0.000960337
0.000950028
0.000927741
0.000886094
0.000843359
0.000803519
0.000777374
0.000754739
0.000711711
0.00060999
0.000495173
0.00042347
0.000432455
0.000455337
0.000501818
0.000555724
0.000574988
0.000561188
0.00052051
0.000469868
0.000413154
0.000341851
0.000290308
0.000288137
0.000307504
0.000254114
0.000171311
0.00012075
9.03238e-05
6.12438e-05
6.13901e-05
6.47271e-05
6.24161e-05
6.30302e-05
5.34916e-05
5.03131e-05
4.93909e-05
4.82654e-05
4.24815e-05
3.55636e-05
2.73249e-05
2.14338e-05
1.80394e-05
1.79354e-05
1.98251e-05
2.24239e-05
2.46275e-05
2.6368e-05
2.78115e-05
2.89581e-05
2.98814e-05
3.05923e-05
3.11455e-05
3.15458e-05
3.17871e-05
3.18959e-05
3.18545e-05
3.17675e-05
3.16981e-05
3.16963e-05
3.17199e-05
3.17219e-05
3.17152e-05
3.17345e-05
3.18244e-05
3.20181e-05
3.22923e-05
3.26647e-05
3.30507e-05
3.36132e-05
3.38841e-05
3.46762e-05
3.52256e-05
3.98807e-05
5.85506e-05
0.000203967
0.000724024
0.00190823
0.00325477
0.00351837
0.00279361
0.00252011
0.00265381
0.00261421
0.002404
0.00379912
0.00386044
0.00946733
0.0014831
0.000814779
0.000789788
0.000808285
0.000811119
0.000847325
0.000860425
0.000868735
0.000867098
0.000861396
0.000842386
0.000811945
0.000786865
0.000757226
0.000714347
0.000659401
0.000590857
0.000517839
0.000449342
0.00041456
0.000416925
0.00042951
0.000465588
0.000505925
0.000517995
0.000507668
0.000479863
0.000438013
0.000389508
0.000301693
0.000219247
0.00021605
0.000277548
0.000247791
0.000170525
0.000132464
0.000119173
5.29294e-05
4.48448e-05
4.74672e-05
4.30148e-05
4.79086e-05
3.96636e-05
3.91403e-05
4.18601e-05
4.23657e-05
3.59835e-05
2.82356e-05
2.10678e-05
1.65917e-05
1.41725e-05
1.43134e-05
1.5776e-05
1.77067e-05
1.92918e-05
2.0575e-05
2.16598e-05
2.25945e-05
2.33819e-05
2.40397e-05
2.46134e-05
2.51056e-05
2.54556e-05
2.5651e-05
2.57463e-05
2.57993e-05
2.58886e-05
2.60644e-05
2.62579e-05
2.63944e-05
2.6512e-05
2.66338e-05
2.68094e-05
2.70315e-05
2.72783e-05
2.74915e-05
2.75979e-05
2.79063e-05
2.79219e-05
2.86965e-05
2.9118e-05
3.24581e-05
4.02274e-05
6.67653e-05
0.000121173
0.000481259
0.00141937
0.00221449
0.00206552
0.00197732
0.0020203
0.00207064
0.0023696
0.00485082
0.0049485
0.0120903
0.00264188
0.000845437
0.000733951
0.000705035
0.000594226
0.000594028
0.000607048
0.000631684
0.000637276
0.000648038
0.000651049
0.000647605
0.000649307
0.000645565
0.000627003
0.000598657
0.000557666
0.000513286
0.00047391
0.000446324
0.000432598
0.000433309
0.000445678
0.000470519
0.000480691
0.00047264
0.00044976
0.000414157
0.00037303
0.000288769
0.000195311
0.000179842
0.000234344
0.000235721
0.000171393
0.000185506
0.000154469
8.60193e-05
4.16456e-05
4.50082e-05
3.50333e-05
3.81762e-05
2.91084e-05
3.11309e-05
3.50702e-05
3.68703e-05
3.09029e-05
2.31884e-05
1.66236e-05
1.37371e-05
1.2378e-05
1.2432e-05
1.35078e-05
1.47306e-05
1.58207e-05
1.66958e-05
1.74014e-05
1.80139e-05
1.86193e-05
1.91882e-05
1.97262e-05
2.0235e-05
2.0665e-05
2.09503e-05
2.10926e-05
2.11906e-05
2.13418e-05
2.15867e-05
2.18633e-05
2.20757e-05
2.22708e-05
2.24652e-05
2.26806e-05
2.2937e-05
2.31602e-05
2.34321e-05
2.3569e-05
2.37353e-05
2.33714e-05
2.37554e-05
2.38436e-05
2.62876e-05
3.03756e-05
4.30621e-05
5.01633e-05
0.000103124
0.000349067
0.000909046
0.000922272
0.00126798
0.00133345
0.00148975
0.00231593
0.00624963
0.00683378
0.0136212
0.00547957
0.00154711
0.000946208
0.000890185
0.000789093
0.000689638
0.000601815
0.000554755
0.0005283
0.000513639
0.000504228
0.000495166
0.000490249
0.000486751
0.000483603
0.000482027
0.000476498
0.000462772
0.00044783
0.000436018
0.000426108
0.000418543
0.000420927
0.000426048
0.000430806
0.000426047
0.00040992
0.00038516
0.000350993
0.000272729
0.000177953
0.000159876
0.000203584
0.000218269
0.000169119
0.000198892
0.000123916
7.76212e-05
4.04805e-05
4.03045e-05
3.31144e-05
3.52757e-05
2.7696e-05
2.79584e-05
3.07383e-05
3.23231e-05
2.5954e-05
1.82688e-05
1.3991e-05
1.21104e-05
1.08749e-05
1.09367e-05
1.18291e-05
1.2821e-05
1.36291e-05
1.43096e-05
1.48986e-05
1.53905e-05
1.58058e-05
1.61802e-05
1.65581e-05
1.69523e-05
1.73216e-05
1.75656e-05
1.76647e-05
1.77069e-05
1.78106e-05
1.80362e-05
1.83496e-05
1.86378e-05
1.88809e-05
1.91256e-05
1.93666e-05
1.96455e-05
1.9873e-05
2.01264e-05
2.01585e-05
2.02735e-05
1.98744e-05
1.99821e-05
1.98523e-05
2.15124e-05
2.44432e-05
3.30746e-05
3.74911e-05
5.1568e-05
0.000125926
0.000386789
0.000479293
0.000865084
0.000986288
0.00131931
0.0025209
0.00659437
0.00777868
0.0138674
0.00718157
0.00310668
0.00168829
0.00135361
0.0011178
0.000950301
0.000819304
0.000718388
0.000646039
0.000592068
0.000553447
0.000522553
0.000499787
0.000484399
0.000470445
0.000460859
0.000452179
0.000444324
0.000436161
0.000427446
0.000418558
0.000408146
0.000400003
0.000393194
0.000392677
0.000387682
0.000373292
0.000356419
0.000323556
0.000237731
0.00015427
0.00014668
0.000186908
0.000202496
0.000162328
0.000227953
0.000141657
6.55878e-05
3.07636e-05
2.4186e-05
2.07522e-05
2.30719e-05
2.12851e-05
2.26599e-05
2.33885e-05
2.3227e-05
1.82861e-05
1.38099e-05
1.12304e-05
9.89014e-06
9.08978e-06
9.21004e-06
9.91635e-06
1.06568e-05
1.12594e-05
1.17688e-05
1.22169e-05
1.26234e-05
1.30017e-05
1.33809e-05
1.37892e-05
1.42302e-05
1.46545e-05
1.49694e-05
1.51263e-05
1.52444e-05
1.54252e-05
1.57166e-05
1.60746e-05
1.63793e-05
1.66307e-05
1.68829e-05
1.71239e-05
1.73977e-05
1.76229e-05
1.7905e-05
1.798e-05
1.80978e-05
1.76958e-05
1.76644e-05
1.74115e-05
1.84629e-05
2.08098e-05
2.70184e-05
3.19056e-05
4.18748e-05
7.71407e-05
0.00021095
0.000347733
0.00057928
0.000691588
0.00133942
0.00307453
0.00575909
0.00753593
0.0134482
0.00812611
0.00449186
0.00256229
0.00186083
0.00146357
0.00120134
0.00101739
0.000881738
0.000781148
0.000704184
0.000645202
0.000598901
0.000561069
0.000531506
0.000507017
0.000487151
0.000471483
0.000457315
0.000445153
0.00043205
0.000419133
0.000405884
0.000391955
0.000379334
0.00037085
0.000359191
0.000346874
0.000330931
0.000291262
0.000181621
0.000127901
0.00014575
0.000174194
0.000180563
0.000146713
0.000229147
0.000198833
0.000172478
0.000100808
3.71822e-05
1.65822e-05
1.40099e-05
1.3553e-05
1.46847e-05
1.4556e-05
1.35355e-05
1.10433e-05
9.15387e-06
7.79672e-06
6.947e-06
6.4819e-06
6.58718e-06
7.03644e-06
7.49232e-06
7.86712e-06
8.186e-06
8.4744e-06
8.75263e-06
9.02707e-06
9.31174e-06
9.6209e-06
9.95884e-06
1.02915e-05
1.05587e-05
1.07152e-05
1.08323e-05
1.09869e-05
1.12203e-05
1.1508e-05
1.17804e-05
1.2011e-05
1.22387e-05
1.24454e-05
1.26719e-05
1.28604e-05
1.31371e-05
1.3249e-05
1.34083e-05
1.30956e-05
1.29455e-05
1.2675e-05
1.31909e-05
1.48151e-05
1.85616e-05
2.26453e-05
2.98201e-05
4.60924e-05
9.96117e-05
0.000169428
0.000291045
0.000443405
0.000849955
0.00162989
0.00667576
0.00819063
0.014476
0.00872487
0.00522404
0.00335271
0.0024273
0.00188409
0.00151533
0.00125428
0.00106481
0.000924898
0.000819441
0.000738063
0.000674157
0.000622882
0.000581452
0.000547534
0.000519296
0.000495715
0.000475012
0.000456505
0.000439385
0.000421611
0.000405976
0.000387912
0.000373523
0.000357275
0.000343936
0.000333286
0.000314229
0.000255076
0.000124194
0.000113846
0.000128516
0.000134124
0.000127546
0.000111251
0.000178756
0.000136991
8.35467e-05
6.18617e-05
4.21232e-05
3.27712e-05
3.15826e-05
3.32448e-05
3.81529e-05
5.39075e-05
6.93925e-05
8.228e-05
8.70223e-05
8.78225e-05
8.36989e-05
7.94005e-05
7.52205e-05
7.22639e-05
6.91276e-05
6.59412e-05
6.30546e-05
6.13407e-05
6.08689e-05
6.12235e-05
6.22515e-05
6.38188e-05
6.57695e-05
6.77374e-05
6.92821e-05
7.03108e-05
7.09508e-05
7.14596e-05
7.1949e-05
7.23979e-05
7.28274e-05
7.3312e-05
7.41476e-05
7.50607e-05
7.6627e-05
7.76828e-05
7.93923e-05
7.95176e-05
8.0072e-05
7.7701e-05
7.44627e-05
7.02186e-05
6.28329e-05
5.73881e-05
5.21749e-05
7.1168e-05
0.000120336
0.000180797
0.000270641
0.000315967
0.000451919
0.000636095
0.00123346
0.00231713
0.00369187
0.00464717
0.00689204
0.00536445
0.00439545
0.00350655
0.00285275
0.00238745
0.00201761
0.0017141
0.00142657
0.00116053
0.00088798
0.000487305
0.000193758
0.000143972
0.000169067
0.000191242
0.000214339
0.000237952
0.000246596
0.000247227
0.000237226
0.000219321
0.000204344
0.000191031
0.000180461
0.000175445
0.000185527
0.000202857
0.000223571
0.000237148
0.000236133
0.000220572
0.000190852
0.000164522
0.000136396
8.4731e-05
0.00035031
0.000233359
0.000155473
0.000127845
0.000101359
9.392e-05
9.90168e-05
0.000106198
0.000111861
0.000134118
0.000148594
0.00016027
0.00016341
0.000159945
0.000152878
0.000147805
0.000145647
0.000146138
0.000146985
0.000147544
0.000147371
0.000147713
0.000148871
0.000150562
0.000152649
0.000155033
0.000157568
0.000159815
0.000161297
0.000162192
0.000162783
0.000163278
0.000163749
0.000164214
0.000164701
0.000165193
0.000165881
0.000166573
0.000167771
0.000168605
0.000169821
0.000170218
0.000170749
0.000169621
0.000168187
0.000166056
0.00016107
0.000158207
0.000152116
0.000192763
0.000294037
0.000421993
0.000639011
0.000820208
0.00127488
0.00192806
0.00325459
0.00501062
0.00908648
0.00986277
0.00127567
0.00284698
0.00528495
0.00415678
0.0031433
0.00245321
0.00198632
0.00167573
0.00141686
0.00120417
0.000959678
0.000541932
0.000288849
0.000298907
0.000363238
0.000431606
0.000496576
0.000545965
0.000574373
0.000583334
0.00057329
0.000541638
0.00050268
0.000449422
0.000409988
0.000390265
0.000393841
0.000417763
0.000448899
0.000451045
0.000430085
0.000359639
0.00026397
0.000238212
0.0002008
9.89272e-05
0.000425182
0.000267011
0.000202249
0.000179134
0.000170299
0.00016658
0.000164014
0.000164953
0.000164199
0.000175729
0.000177912
0.000179279
0.000176851
0.000169363
0.000159587
0.000154527
0.000154607
0.000158551
0.0001636
0.000168547
0.00017262
0.000176255
0.000179468
0.000182225
0.000184593
0.000186679
0.000188538
0.000190042
0.000190937
0.000191346
0.000191526
0.000191639
0.000191749
0.000191903
0.000192131
0.000192342
0.000192528
0.000192667
0.00019311
0.000193436
0.000194309
0.000195492
0.000197461
0.000199304
0.000201393
0.000202502
0.000203676
0.000209277
0.000227479
0.000309086
0.000481223
0.000718192
0.00108423
0.00127163
0.00178057
0.00250089
0.00340132
0.004836
0.00595608
0.00537458
0.00122418
0.0033804
0.00501207
0.00358054
0.00260234
0.00211319
0.00179493
0.00155884
0.00136538
0.00120265
0.000994467
0.000649481
0.000514224
0.000538593
0.000593913
0.000653486
0.000721547
0.000802858
0.000879733
0.000920104
0.000934164
0.000908062
0.000831057
0.000723099
0.000617728
0.000558452
0.000543104
0.000556782
0.000570368
0.000558124
0.000518884
0.000449932
0.000311932
0.00027625
0.000260582
0.000126269
0.000592178
0.000343983
0.000256951
0.000221906
0.000212982
0.000213996
0.000214175
0.000216945
0.000208995
0.000204633
0.00020011
0.000194873
0.000186213
0.000174173
0.000161941
0.000155865
0.000156713
0.000161996
0.000169229
0.00017649
0.000182859
0.000188532
0.000193072
0.000196615
0.000199382
0.000201616
0.000203445
0.000204825
0.000205536
0.000205637
0.000205443
0.000205216
0.000205035
0.000204931
0.000204963
0.000205013
0.000204963
0.000204823
0.000204947
0.00020508
0.000205967
0.000207673
0.000210278
0.000213501
0.000216914
0.000220625
0.000226003
0.000240571
0.000270702
0.000361601
0.000557264
0.000880708
0.00160134
0.00214885
0.00284641
0.00365258
0.00517674
0.00542972
0.00488815
0.00362528
0.00114941
0.00228189
0.0021116
0.00139812
0.00128118
0.00129407
0.00129926
0.00130218
0.00126902
0.00116039
0.000919594
0.000658783
0.000662186
0.000743749
0.000849017
0.000949569
0.00107643
0.00119486
0.00131792
0.00138604
0.00141095
0.00139866
0.0013281
0.00119974
0.00104669
0.000905745
0.000812401
0.00077149
0.000743104
0.000700163
0.000622544
0.000512416
0.000370003
0.000285999
0.000271986
0.000153364
0.000785917
0.000391617
0.000304664
0.000265091
0.00024463
0.000238247
0.000236871
0.000240938
0.000237908
0.000224294
0.00021698
0.00020636
0.000195201
0.000178767
0.000164169
0.000156618
0.000157215
0.000162898
0.000170904
0.000179001
0.000186536
0.000193524
0.000198884
0.000202982
0.000206114
0.000208611
0.000210617
0.000212091
0.000212803
0.000212729
0.0002123
0.000211872
0.000211527
0.000211278
0.000211229
0.000211223
0.000211126
0.000210981
0.000210921
0.00021127
0.000211786
0.000213976
0.00021603
0.00022002
0.000224162
0.000233559
0.000251708
0.000277744
0.00031885
0.000427935
0.000693206
0.00114782
0.00219943
0.00339077
0.00452981
0.00614075
0.00787945
0.0107035
0.00353614
0.00186861
0.00144003
0.00177137
0.00146314
0.000954682
0.00104786
0.000889379
0.00094513
0.00103188
0.00102648
0.000945374
0.000807547
0.000765304
0.000938143
0.00109232
0.00126725
0.00142718
0.00157028
0.00165874
0.00172987
0.00178721
0.00182939
0.00184388
0.00182133
0.00174718
0.00159568
0.00141832
0.00124413
0.00111137
0.00101205
0.000918437
0.00079093
0.000565631
0.000413458
0.000297065
0.000272138
0.000163233
0.000993225
0.000408549
0.000322519
0.000296793
0.000288114
0.00027753
0.000262299
0.000262662
0.000257721
0.000236471
0.000226643
0.000211345
0.000198297
0.000178782
0.000157866
0.000144966
0.00014524
0.000152844
0.000163926
0.000175605
0.000185959
0.00019386
0.000199731
0.000204222
0.000207618
0.000210294
0.000212422
0.000213952
0.000214645
0.000214455
0.000213879
0.000213314
0.000212838
0.000212464
0.000212337
0.000212249
0.000212043
0.000211776
0.000211433
0.000211675
0.000211771
0.000214194
0.000215985
0.000220772
0.000226487
0.000239602
0.000274025
0.000319393
0.000409753
0.000645699
0.00111194
0.00176838
0.0029555
0.0053768
0.00873205
0.0114569
0.010174
0.00892373
0.00177917
0.00124138
0.00163672
0.00154025
0.00135954
0.0010152
0.0010368
0.000933541
0.00096783
0.000977881
0.000995005
0.000996745
0.0010499
0.00133186
0.00172814
0.00195131
0.0020447
0.00205535
0.00196699
0.00189266
0.00187096
0.0018989
0.00198455
0.00204201
0.00206169
0.00205258
0.00198854
0.00186543
0.00174171
0.00161095
0.00146463
0.00129652
0.00104651
0.000703442
0.0004274
0.000304111
0.000270855
0.000170903
0.000916535
0.000397286
0.000325992
0.000306374
0.000309071
0.000302652
0.00028782
0.000282311
0.000274851
0.000242008
0.000230438
0.000211718
0.000193588
0.000164237
0.000140629
0.000127009
0.000127538
0.000135257
0.000145504
0.000156157
0.000166096
0.000175106
0.000182515
0.000188291
0.000192548
0.000195745
0.000198118
0.000199678
0.00020003
0.000199157
0.000197717
0.000196306
0.000194972
0.000193741
0.000193087
0.000192348
0.000191391
0.000190332
0.000188804
0.000188445
0.000187214
0.000190226
0.000191579
0.000199555
0.000210812
0.00023335
0.000279664
0.000349717
0.000614105
0.00128541
0.00208837
0.00275284
0.00444365
0.00786505
0.00947018
0.0100398
0.00889917
0.00521656
0.000872341
0.000848509
0.00208897
0.00156031
0.0015657
0.0012964
0.00124426
0.00118545
0.00118381
0.00123595
0.00138556
0.00163401
0.00201093
0.00226209
0.00234182
0.00229273
0.00215867
0.00192406
0.00174519
0.00166739
0.00167604
0.00178529
0.00193248
0.00209523
0.00217859
0.00220467
0.00219009
0.00204642
0.00194797
0.00188216
0.00175234
0.00169013
0.00149865
0.00102435
0.000619049
0.000457689
0.000364535
0.000197256
0.000735877
0.000373185
0.000281473
0.000274402
0.000292803
0.000299322
0.000291703
0.00028454
0.000277909
0.0002409
0.000226113
0.000197954
0.00017808
0.000145002
0.000115337
9.82232e-05
9.94803e-05
0.000110126
0.000123731
0.00013622
0.000146629
0.000155184
0.000161656
0.000166571
0.000170122
0.000172708
0.000174469
0.000175189
0.000174503
0.000172485
0.000169977
0.000167666
0.000165745
0.000163889
0.000161808
0.000159715
0.0001577
0.000155876
0.000153625
0.000152305
0.000150412
0.000151727
0.000152472
0.00015946
0.000169502
0.000187764
0.000237287
0.000388189
0.00124867
0.00271352
0.0040165
0.00483455
0.00588963
0.0071039
0.00786253
0.00797897
0.00560408
0.0020331
0.00100478
0.000997523
0.00230396
0.0018013
0.00172352
0.00159306
0.00156395
0.0015756
0.0016423
0.00179876
0.00196863
0.0021721
0.00232093
0.00238703
0.00239859
0.00232894
0.00219182
0.0019724
0.00175821
0.00164703
0.00162602
0.00164382
0.00181372
0.00210742
0.00237205
0.00254701
0.00261299
0.00251461
0.00230778
0.00200997
0.00174921
0.00152388
0.00120787
0.0010474
0.000975287
0.000984935
0.000970119
0.000975281
0.000565609
0.000409938
0.000260561
0.000227675
0.000219789
0.000220749
0.000248917
0.000260038
0.000260737
0.000230077
0.000215847
0.000184004
0.000156097
0.000114441
8.44805e-05
7.04459e-05
6.98665e-05
7.49995e-05
8.23724e-05
8.99568e-05
9.72078e-05
0.000104261
0.000110509
0.000115413
0.000118868
0.000121236
0.000122747
0.000123543
0.0001231
0.000121328
0.000119098
0.000117008
0.000115248
0.0001137
0.000112326
0.000111049
0.00010986
0.000108974
0.000107817
0.000108153
0.000107124
0.000109085
0.000109638
0.000115524
0.000123543
0.000134965
0.000172358
0.000560496
0.00256112
0.00483092
0.00635597
0.00726475
0.00800647
0.00634084
0.00550053
0.00505141
0.00315544
0.00228554
0.00100653
0.000987875
0.00235743
0.00216568
0.00228357
0.00223823
0.00222789
0.0022017
0.00219932
0.00232407
0.00239897
0.00253754
0.00260091
0.00264411
0.00267756
0.00263648
0.00251454
0.00229627
0.00199121
0.00168003
0.00134043
0.00106355
0.000949874
0.00100697
0.0011534
0.00131041
0.00164178
0.00202243
0.00233381
0.00254489
0.00262438
0.00274609
0.00243029
0.00169817
0.00138016
0.00124105
0.00090596
0.000468442
0.000533957
0.000494897
0.000260583
0.000212993
0.000173012
0.000155386
0.000165982
0.000187382
0.000201245
0.000202575
0.000194892
0.000164901
0.000131406
9.28618e-05
6.7722e-05
5.83687e-05
5.7362e-05
5.99275e-05
6.40252e-05
6.8352e-05
7.34534e-05
7.81895e-05
8.14576e-05
8.40235e-05
8.58348e-05
8.71609e-05
8.81753e-05
8.88884e-05
8.88119e-05
8.77592e-05
8.641e-05
8.5286e-05
8.45536e-05
8.39373e-05
8.32346e-05
8.25335e-05
8.189e-05
8.16206e-05
8.11912e-05
8.13886e-05
8.08674e-05
8.12301e-05
8.12583e-05
8.29768e-05
8.64678e-05
9.09389e-05
0.00011625
0.000628802
0.00336605
0.00614431
0.0068587
0.00687276
0.00682396
0.00584284
0.00564724
0.0055883
0.00488075
0.00399845
0.000922793
0.000864873
0.00195503
0.00216305
0.00239539
0.00240504
0.00259512
0.00262131
0.00269149
0.00272448
0.00276876
0.00284588
0.00287557
0.00288511
0.00283038
0.0026855
0.0024939
0.0022182
0.00185624
0.00141791
0.0010598
0.000856211
0.000731073
0.000729016
0.000793506
0.000897836
0.000991749
0.0011135
0.00117333
0.00120713
0.00112604
0.0010588
0.0013927
0.00162062
0.00114223