/*--------------------------------*- C++ -*----------------------------------*\
| =========                 |                                                 |
| \\      /  F ield         | OpenFOAM: The Open Source CFD Toolbox           |
|  \\    /   O peration     | Version:  2.3.0                                 |
|   \\  /    A nd           | Web:      www.OpenFOAM.org                      |
|    \\/     M anipulation  |                                                 |
\*---------------------------------------------------------------------------*/
FoamFile
{
    version     2.0;
    format      ascii;
    class       surfaceScalarField;
    location    "41";
    object      phi;
}
// * * * * * * * * * * * * * * * * * * * * * * * * * * * * * * * * * * * * * //

dimensions      [0 3 -1 0 0 0 0];

internalField   nonuniform List<scalar> 
16448
(
-1.37743e-06
-2.57805e-06
5.6687e-07
4.94952e-07
-2.63336e-06
7.6097e-07
4.72877e-07
-1.17167e-06
1.19374e-06
3.67535e-07
-9.94483e-07
1.09982e-06
-9.04311e-09
-5.4065e-07
9.17221e-07
-1.47141e-07
-7.1554e-07
8.53631e-07
-2.00917e-07
-6.75615e-07
7.29385e-07
-2.13304e-07
-6.25325e-07
6.37707e-07
-2.95876e-07
-4.68115e-07
5.50683e-07
-4.60431e-07
-3.3252e-07
4.97071e-07
-6.40376e-07
-2.55872e-07
4.35814e-07
-7.10099e-07
-2.73682e-07
3.43403e-07
-6.74299e-07
-3.16962e-07
2.81158e-07
-5.4843e-07
-3.61608e-07
2.35735e-07
-4.0788e-07
-3.7931e-07
2.38756e-07
-2.61092e-07
-4.01615e-07
2.54822e-07
-1.3571e-07
-4.13861e-07
2.88475e-07
-3.21241e-08
-4.27296e-07
3.23704e-07
4.23561e-08
-4.37587e-07
3.63102e-07
8.69772e-08
-4.43697e-07
3.99069e-07
1.02825e-07
-4.46305e-07
4.30451e-07
9.99442e-08
-4.49706e-07
4.5258e-07
8.63361e-08
-4.48597e-07
4.62199e-07
6.74289e-08
-4.42778e-07
4.61678e-07
4.69788e-08
-4.32428e-07
4.52871e-07
2.82631e-08
-4.19045e-07
4.37753e-07
1.48015e-08
-4.06306e-07
4.1976e-07
8.37312e-09
-3.94771e-07
4.01191e-07
7.70169e-09
-3.82899e-07
3.83562e-07
8.67335e-09
-3.69632e-07
3.68651e-07
8.36271e-09
-3.55299e-07
3.556e-07
6.99309e-09
-3.40821e-07
3.4218e-07
6.87436e-09
-3.26698e-07
3.26806e-07
1.16953e-08
-3.13591e-07
3.0876e-07
2.55239e-08
-3.02252e-07
2.88413e-07
5.0838e-08
-2.92936e-07
2.67611e-07
8.58261e-08
-2.84923e-07
2.49924e-07
1.2263e-07
-2.77588e-07
2.40771e-07
1.46196e-07
-2.6887e-07
2.45292e-07
1.29942e-07
-2.54842e-07
2.71084e-07
3.01108e-08
-2.28732e-07
3.2855e-07
-1.89553e-07
-2.08217e-07
4.27867e-07
-4.66462e-07
-2.46654e-07
5.2355e-07
-5.97594e-07
-4.51121e-07
5.8224e-07
-5.31248e-07
-6.38646e-07
5.72289e-07
-7.10405e-07
-3.50481e-07
5.29626e-07
-1.69298e-06
3.49182e-07
6.33383e-07
-3.01982e-06
-3.64246e-07
1.69108e-06
4.87979e-08
-7.67347e-06
4.60484e-06
5.04738e-06
-1.25249e-05
7.5263e-06
7.8059e-06
-1.20084e-05
9.24985e-06
9.67002e-06
-1.17224e-05
9.8583e-06
1.2273e-05
-1.24251e-05
9.82214e-06
1.529e-05
-1.09312e-05
7.91418e-06
1.61635e-05
-6.0324e-06
5.15882e-06
1.81909e-05
-5.1139e-06
3.08646e-06
1.39273e-05
3.30857e-06
9.55043e-07
1.6954e-05
-1.77773e-06
-1.24914e-06
-5.39044e-06
1.70953e-05
5.24871e-06
6.66761e-08
-7.82607e-06
2.36879e-06
1.63417e-05
-1.92433e-05
2.96832e-06
1.9171e-05
-8.05299e-06
5.22362e-06
1.67527e-05
-1.98705e-06
4.40534e-06
1.75626e-05
-4.28385e-06
3.47395e-06
1.79834e-05
-2.88316e-06
2.46241e-06
1.84875e-05
-2.48677e-06
1.98261e-06
1.89744e-05
-3.07202e-06
2.58518e-06
1.70822e-05
-1.71766e-06
3.60985e-06
1.3358e-05
-8.72974e-07
4.59716e-06
9.38639e-06
-9.75573e-07
4.94718e-06
6.7208e-06
-1.97873e-06
4.64431e-06
3.57129e-06
-9.14057e-07
4.06357e-06
6.01439e-07
-5.13457e-07
3.4833e-06
-1.9867e-06
-2.0561e-07
2.79375e-06
-7.1939e-06
2.45369e-06
2.75352e-06
-1.31991e-05
4.25109e-06
1.75408e-06
-1.61867e-05
1.93558e-06
1.052e-06
-1.66874e-05
-9.92659e-07
1.49335e-06
-1.60764e-05
-3.06657e-06
2.45559e-06
-1.50011e-05
-3.74149e-06
2.66618e-06
-1.42585e-05
-3.69431e-06
2.95179e-06
-1.28795e-05
-4.23825e-06
2.85925e-06
-1.05763e-05
-3.03224e-06
7.29032e-07
-8.06022e-06
-1.12936e-06
-1.38674e-06
-5.62789e-06
-7.94485e-08
-2.35288e-06
-2.86402e-06
2.11553e-07
-2.97542e-06
2.94714e-08
2.14288e-07
-3.10778e-06
2.52012e-06
4.69202e-07
-2.95985e-06
4.56438e-06
1.1694e-06
-3.21366e-06
6.85722e-06
1.29421e-06
-3.58705e-06
8.90104e-06
1.44344e-06
-3.48726e-06
1.00218e-05
9.53375e-07
-2.07415e-06
1.03062e-05
7.76186e-07
-1.06055e-06
9.24275e-06
6.68619e-07
3.94808e-07
6.54255e-06
1.97292e-07
2.50291e-06
1.04249e-06
5.50006e-06
-2.05424e-06
-3.71351e-06
-1.75964e-07
-6.18682e-07
-3.94334e-06
-1.25573e-07
-2.81058e-07
-2.20263e-06
6.93332e-07
1.35419e-07
-1.862e-06
4.51024e-07
1.51112e-07
-8.50285e-07
2.93929e-07
-3.32461e-08
-8.07359e-07
2.76164e-07
-2.21004e-07
-6.4103e-07
1.53162e-07
-3.45168e-07
-5.97468e-07
9.62971e-08
-4.90902e-07
-3.96908e-07
7.45191e-08
-6.75213e-07
-2.49413e-07
1.01196e-07
-8.36762e-07
-1.69932e-07
7.56021e-08
-8.79546e-07
-2.33747e-07
2.84159e-09
-8.35479e-07
-2.99664e-07
-6.13739e-08
-7.13078e-07
-3.74773e-07
-1.09245e-07
-5.67423e-07
-4.05048e-07
-1.19928e-07
-4.09144e-07
-4.41056e-07
-1.18848e-07
-2.67212e-07
-4.57304e-07
-9.85021e-08
-1.45682e-07
-4.73614e-07
-7.52241e-08
-5.14373e-08
-4.83941e-07
-4.79041e-08
1.4256e-08
-4.86948e-07
-2.24554e-08
4.97578e-08
-4.83008e-07
1.18677e-09
6.34536e-08
-4.75856e-07
1.24391e-08
6.29181e-08
-4.65085e-07
1.70075e-08
5.37267e-08
-4.49777e-07
1.61737e-08
3.9978e-08
-4.30026e-07
1.13298e-08
2.49754e-08
-4.07927e-07
3.86696e-09
1.30178e-08
-3.8644e-07
-7.92706e-09
6.1273e-09
-3.6618e-07
-2.17195e-08
2.83889e-09
-3.45222e-07
-3.4409e-08
3.02007e-10
-3.21551e-07
-4.55644e-08
-2.41769e-09
-2.96513e-07
-5.60876e-08
-3.71618e-09
-2.72569e-07
-6.6975e-08
-1.96041e-09
-2.49911e-07
-7.85651e-08
4.61172e-09
-2.29393e-07
-9.07939e-08
1.76936e-08
-2.11992e-07
-1.03367e-07
3.81466e-08
-1.98481e-07
-1.14934e-07
6.36941e-08
-1.87922e-07
-1.22575e-07
8.67305e-08
-1.77386e-07
-1.23265e-07
9.08311e-08
-1.61756e-07
-1.11243e-07
4.89441e-08
-1.32852e-07
-8.01317e-08
-8.14365e-08
-7.45685e-08
-2.38126e-08
-3.26688e-07
-4.99263e-09
4.19978e-08
-6.03111e-07
-3.52506e-08
6.49889e-08
-7.37541e-07
-3.36212e-07
1.94918e-08
-7.61275e-07
-5.87463e-07
-2.74787e-08
-7.83384e-07
-1.78011e-07
-1.5039e-07
-8.95605e-07
6.07433e-07
-1.46057e-07
2.27935e-07
-2.29527e-06
8.07461e-07
-2.55146e-07
-1.2291e-05
5.10061e-06
-5.56772e-06
-1.65612e-05
9.34888e-06
-1.07271e-05
-1.69758e-05
1.01267e-05
-1.25549e-05
-1.99426e-05
1.0048e-05
-9.36119e-06
-2.26295e-05
7.01067e-06
-4.55691e-06
-1.9089e-05
3.35349e-06
3.59326e-06
-1.28976e-05
-1.28502e-06
1.12744e-05
-1.0223e-05
-2.5721e-06
1.29196e-05
7.83657e-06
-6.17316e-06
1.39683e-05
2.45578e-06
-5.28241e-06
1.84731e-06
2.36372e-05
5.57845e-06
-4.0512e-07
-1.0295e-05
4.72114e-06
1.40953e-06
-2.32264e-05
2.16851e-06
-9.46835e-06
-8.14427e-06
1.09692e-05
-1.35483e-05
-4.52369e-06
6.61658e-06
-1.489e-05
-4.14866e-06
1.20652e-06
-1.423e-05
-3.70724e-06
1.6412e-07
-1.32404e-05
-4.69698e-06
1.22055e-06
-1.15617e-05
-7.39543e-06
2.64472e-06
-9.23414e-06
-7.40217e-06
3.35698e-06
-6.16694e-06
-7.5612e-06
3.62104e-06
-4.04035e-06
-6.67443e-06
3.57227e-06
-3.03853e-06
-6.26254e-06
3.28199e-06
-2.97375e-06
-4.26891e-06
3.29007e-06
-3.10606e-06
-3.01039e-06
2.62924e-06
-5.16128e-06
-8.44253e-07
2.69387e-06
-8.85775e-06
2.5386e-06
3.61156e-06
-1.26011e-05
5.17474e-06
2.8197e-06
-1.47607e-05
2.4633e-06
1.63188e-06
-1.43351e-05
-3.5905e-06
2.1722e-06
-1.24739e-05
-7.23128e-06
2.30362e-06
-1.16245e-05
-6.92223e-06
2.3313e-06
-1.10189e-05
-6.654e-06
2.35407e-06
-9.99717e-06
-7.75859e-06
2.49862e-06
-7.33879e-06
-5.65695e-06
-3.36629e-08
-4.86917e-06
-1.61098e-06
-1.98799e-06
-2.25896e-06
4.34665e-07
-3.12432e-06
7.94909e-07
1.29519e-06
-4.13751e-06
3.4667e-06
2.28289e-06
-4.74039e-06
5.71256e-06
2.96593e-06
-4.74258e-06
7.20641e-06
4.4976e-06
-4.82205e-06
8.48208e-06
4.50002e-06
-4.48147e-06
9.78778e-06
3.68939e-06
-3.55165e-06
1.0672e-05
3.21531e-06
-3.14617e-06
1.05663e-05
3.04791e-06
-2.16598e-06
9.17904e-06
2.95792e-06
-9.02077e-07
5.64786e-06
1.74487e-06
1.98361e-06
1.35292e-06
5.33743e-06
-2.59587e-06
-4.08675e-06
-4.2358e-07
-1.48152e-06
-4.49875e-06
-5.58949e-07
-1.02709e-06
-2.82184e-06
1.64767e-07
-3.44451e-07
-2.47038e-06
-7.42648e-08
-7.26579e-08
-1.02737e-06
-9.47247e-08
-1.55485e-07
-6.99972e-07
-2.45715e-08
-3.44745e-07
-3.3221e-07
-1.19571e-07
-4.73079e-07
-3.27668e-07
-1.41475e-07
-5.72603e-07
-1.36016e-07
-1.61376e-07
-6.4078e-07
-4.27814e-08
-1.38461e-07
-7.20793e-07
3.97986e-08
-1.29725e-07
-7.45046e-07
-3.31509e-08
-1.7635e-07
-7.41482e-07
-8.03727e-08
-2.22863e-07
-6.92069e-07
-1.5904e-07
-2.65156e-07
-6.14571e-07
-1.96201e-07
-2.86354e-07
-5.11392e-07
-2.39863e-07
-3.04381e-07
-4.06248e-07
-2.57429e-07
-3.05029e-07
-3.08319e-07
-2.71559e-07
-2.99996e-07
-2.24307e-07
-2.77492e-07
-2.90472e-07
-1.53956e-07
-2.76683e-07
-2.80629e-07
-9.87448e-08
-2.66121e-07
-2.72111e-07
-6.00222e-08
-2.48857e-07
-2.65735e-07
-3.53428e-08
-2.28299e-07
-2.61479e-07
-2.12546e-08
-2.04562e-07
-2.59318e-07
-1.4257e-08
-1.78554e-07
-2.58484e-07
-1.13229e-08
-1.52018e-07
-2.5886e-07
-1.11386e-08
-1.26269e-07
-2.60371e-07
-1.32399e-08
-1.01388e-07
-2.62709e-07
-1.65945e-08
-7.60404e-08
-2.65845e-07
-1.96879e-08
-4.85735e-08
-2.69904e-07
-2.07005e-08
-2.0754e-08
-2.74766e-07
-1.88634e-08
5.45648e-09
-2.79884e-07
-1.61666e-08
3.20184e-08
-2.84648e-07
-1.33454e-08
5.58788e-08
-2.88115e-07
-1.19459e-08
7.67662e-08
-2.90181e-07
-1.42486e-08
9.4832e-08
-2.91034e-07
-2.44777e-08
1.11547e-07
-2.89265e-07
-5.04833e-08
1.31136e-07
-2.82541e-07
-1.06715e-07
1.61134e-07
-2.66684e-07
-2.05121e-07
2.05934e-07
-2.40407e-07
-3.50956e-07
2.77468e-07
-2.06228e-07
-5.55454e-07
3.75306e-07
-1.75828e-07
-8.25995e-07
4.13526e-07
-1.78263e-07
-1.14091e-06
2.41123e-07
-2.62451e-07
-1.29824e-06
6.92215e-08
-4.9938e-07
-7.45114e-07
2.29239e-07
-9.60402e-07
5.81102e-07
4.67933e-07
-1.18674e-06
1.35476e-07
-2.87644e-06
1.02677e-06
-8.32307e-06
-1.11371e-05
7.3046e-06
-1.79565e-05
-1.72512e-05
1.03234e-05
-2.28317e-05
-2.11517e-05
9.05106e-06
-2.48871e-05
-2.4889e-05
7.00185e-06
-2.25482e-05
-2.75379e-05
2.56949e-06
-1.53533e-05
-2.42064e-05
-2.07749e-06
-6.24582e-06
-1.61387e-05
-5.86627e-06
-3.86677e-06
-7.49022e-06
-5.11178e-06
6.67655e-06
8.58876e-06
-1.12954e-05
7.20256e-06
7.75151e-06
-5.82196e-06
1.87432e-07
3.19693e-05
-1.31786e-06
2.28437e-06
-1.38186e-05
1.42633e-06
-7.07215e-07
-2.58118e-05
5.57693e-06
-1.11617e-05
-6.47706e-06
8.78724e-06
-1.33821e-05
-8.01707e-06
5.7138e-06
-1.5035e-05
-5.15158e-06
2.65587e-06
-1.55018e-05
-7.22654e-06
3.9861e-06
-1.48879e-05
-8.1431e-06
2.83216e-06
-1.34607e-05
-9.95509e-06
1.13255e-06
-1.0368e-05
-1.01577e-05
-3.37285e-07
-6.82622e-06
-9.83721e-06
-1.26576e-06
-3.70261e-06
-7.93196e-06
-1.86607e-06
-1.43852e-06
-6.198e-06
-2.32863e-06
-6.82396e-07
-2.9952e-06
-2.02983e-06
-9.95403e-07
-4.25618e-07
-2.27176e-06
-2.05291e-06
2.44511e-06
-2.23186e-06
-3.72171e-06
4.56546e-06
-3.58059e-07
-6.51953e-06
5.68031e-06
2.29225e-06
-8.9243e-06
2.97617e-06
1.89189e-06
-9.27386e-06
-5.05769e-06
1.81676e-06
-9.07261e-06
-9.40946e-06
1.97693e-06
-8.53768e-06
-7.45449e-06
-2.67085e-09
-8.05705e-06
-6.18373e-06
-9.50895e-07
-7.20242e-06
-6.11023e-06
-2.50299e-06
-4.5649e-06
-3.95832e-06
-4.33616e-06
-2.79445e-06
6.688e-07
-4.05023e-06
-1.31622e-06
2.46351e-06
-3.50708e-06
8.35794e-07
3.05732e-06
-3.91415e-06
3.61091e-06
4.44772e-06
-4.93995e-06
7.19919e-06
3.94763e-06
-4.57e-06
9.74633e-06
5.28463e-06
-3.33417e-06
1.19214e-05
4.16012e-06
-1.83519e-06
1.36565e-05
3.53199e-06
-1.57771e-06
1.41407e-05
4.24298e-06
-1.51188e-06
1.36375e-05
4.47609e-06
-9.2497e-07
1.16166e-05
4.9206e-06
5.82434e-08
6.63272e-06
4.92781e-06
1.80093e-06
3.68553e-06
4.30011e-06
-3.04358e-06
-4.17325e-06
-2.17331e-07
-1.95705e-06
-4.8341e-06
-7.51175e-07
-1.60614e-06
-3.22419e-06
5.14314e-08
-9.19637e-07
-3.07991e-06
-7.69834e-08
-5.17016e-07
-1.38958e-06
-4.04219e-08
-3.51546e-07
-8.22054e-07
-4.33987e-08
-3.90741e-07
-1.35662e-07
-1.57365e-07
-4.469e-07
-1.10913e-07
-1.60603e-07
-4.75823e-07
8.17755e-08
-1.88876e-07
-4.87519e-07
1.54055e-07
-1.85146e-07
-5.2467e-07
2.80834e-07
-2.03893e-07
-5.63654e-07
2.42381e-07
-2.36555e-07
-6.14326e-07
2.33507e-07
-2.63216e-07
-6.2296e-07
1.4929e-07
-2.99704e-07
-5.98994e-07
1.01719e-07
-3.21896e-07
-5.3948e-07
5.09202e-08
-3.50307e-07
-4.61402e-07
3.28716e-08
-3.6839e-07
-3.81424e-07
2.98415e-08
-3.81389e-07
-3.0761e-07
3.62947e-08
-3.87613e-07
-2.40679e-07
4.68808e-08
-3.90507e-07
-1.8118e-07
6.43237e-08
-3.89957e-07
-1.30165e-07
8.66418e-08
-3.86527e-07
-8.98118e-08
1.12048e-07
-3.80715e-07
-6.07742e-08
1.40602e-07
-3.74217e-07
-4.25946e-08
1.714e-07
-3.6815e-07
-3.30652e-08
2.01143e-07
-3.62707e-07
-2.96581e-08
2.28517e-07
-3.58212e-07
-2.98569e-08
2.53951e-07
-3.55158e-07
-3.1581e-08
2.7968e-07
-3.54015e-07
-3.35309e-08
3.07912e-07
-3.54554e-07
-3.58352e-08
3.37308e-07
-3.55778e-07
-3.89754e-08
3.65128e-07
-3.56551e-07
-4.20164e-08
3.91245e-07
-3.56207e-07
-4.63059e-08
4.15046e-07
-3.549e-07
-5.43932e-08
4.37073e-07
-3.52243e-07
-7.2068e-08
4.59271e-07
-3.46788e-07
-1.07874e-07
4.84673e-07
-3.37344e-07
-1.69972e-07
5.16829e-07
-3.2362e-07
-2.70222e-07
5.63815e-07
-3.02457e-07
-4.10974e-07
6.22866e-07
-2.76206e-07
-5.74797e-07
6.90321e-07
-2.49058e-07
-7.25132e-07
7.58898e-07
-2.33284e-07
-8.73489e-07
7.99033e-07
-2.37179e-07
-1.02577e-06
7.16167e-07
-3.22788e-07
-9.08976e-07
5.81607e-07
-6.29212e-07
2.93712e-07
4.50219e-07
-1.4237e-06
2.74717e-06
2.1265e-07
-2.1982e-06
1.52631e-07
-1.27704e-06
9.95112e-07
-1.13317e-05
-7.93266e-06
8.27996e-06
-2.06614e-05
-1.68099e-05
8.88842e-06
-2.82017e-05
-2.16447e-05
8.03331e-06
-3.40058e-05
-2.50559e-05
5.97111e-06
-3.35073e-05
-2.82846e-05
2.48192e-07
-2.94461e-05
-2.7245e-05
-1.02257e-06
-2.58392e-05
-1.8978e-05
-7.67523e-07
-2.08904e-05
-9.82089e-06
-2.61806e-06
5.86426e-06
-5.7288e-06
-1.24369e-05
1.31255e-05
7.75904e-06
-7.26903e-06
-1.81309e-06
4.90843e-05
-2.17765e-06
1.02387e-06
-1.55839e-05
-1.07202e-06
1.457e-07
-3.16287e-05
6.69504e-06
-1.53778e-05
-1.94249e-07
9.24068e-06
-2.04057e-05
-8.79692e-06
5.80774e-06
-2.16536e-05
-5.90921e-06
2.00558e-06
-2.24917e-05
-9.6395e-06
3.25105e-06
-2.03907e-05
-1.03555e-05
1.11404e-07
-1.68528e-05
-1.1166e-05
-2.32697e-06
-1.25729e-05
-1.03194e-05
-4.11812e-06
-7.57161e-06
-9.63558e-06
-5.20296e-06
-2.51139e-06
-6.74164e-06
-6.25054e-06
8.38574e-07
-3.37295e-06
-6.175e-06
2.42424e-06
1.21843e-06
-5.79929e-06
3.08799e-06
4.41201e-06
-5.50138e-06
2.50899e-06
8.34408e-06
-5.31997e-06
8.39576e-07
1.07164e-05
-4.48156e-06
-8.34131e-07
8.84758e-06
-1.49356e-06
-2.1936e-06
3.4449e-06
8.90747e-07
-5.69801e-06
-3.59803e-06
2.04475e-06
-9.79621e-06
-5.23311e-06
-7.81579e-08
-1.12502e-05
-1.99544e-06
-4.00509e-06
-1.08707e-05
1.01775e-06
-7.58091e-06
-1.07546e-05
2.86374e-06
-9.09013e-06
-9.80759e-06
2.96285e-06
-7.86814e-06
-7.72121e-06
1.49879e-06
-2.91636e-06
-5.25749e-06
-1.2548e-06
1.25459e-06
-2.02517e-06
-2.37619e-06
2.20119e-06
2.96021e-06
-1.4944e-06
9.56752e-07
6.53539e-06
-1.02954e-06
1.40199e-06
8.36658e-06
3.29271e-06
1.60726e-07
1.15144e-05
2.93798e-06
-1.92571e-06
1.39218e-05
3.56074e-06
-2.43612e-06
1.46347e-05
5.30923e-06
-1.77917e-06
1.4677e-05
5.88607e-06
-1.45226e-06
1.30352e-05
6.66472e-06
-1.02274e-07
7.93547e-06
8.05564e-06
1.97186e-06
7.27183e-06
4.34917e-06
-3.34822e-06
-4.12195e-06
-1.74053e-09
-2.25215e-06
-5.12022e-06
-8.09963e-07
-2.01039e-06
-3.51952e-06
5.35709e-08
-1.32173e-06
-3.64455e-06
-1.24026e-07
-9.2914e-07
-1.94079e-06
1.58618e-07
-5.22351e-07
-1.25906e-06
3.02102e-08
-3.76664e-07
-1.25651e-07
-1.55705e-07
-3.93831e-07
7.26449e-08
-1.66398e-07
-3.51856e-07
2.51642e-07
-2.11846e-07
-3.32501e-07
3.39572e-07
-2.04879e-07
-3.49337e-07
5.09486e-07
-2.11821e-07
-4.07114e-07
5.18549e-07
-2.18399e-07
-4.96509e-07
5.46941e-07
-2.24046e-07
-5.46484e-07
4.45558e-07
-2.46302e-07
-5.52561e-07
3.72182e-07
-2.64394e-07
-5.1731e-07
3.10239e-07
-2.94579e-07
-4.58577e-07
2.94871e-07
-3.20741e-07
-3.97342e-07
3.12317e-07
-3.43722e-07
-3.37184e-07
3.3739e-07
-3.61263e-07
-2.78462e-07
3.62524e-07
-3.74377e-07
-2.20305e-07
3.8939e-07
-3.83235e-07
-1.64979e-07
4.18663e-07
-3.8736e-07
-1.17008e-07
4.5069e-07
-3.86625e-07
-7.89726e-08
4.84179e-07
-3.81626e-07
-5.1902e-08
5.17931e-07
-3.73615e-07
-3.43537e-08
5.48355e-07
-3.64775e-07
-2.38431e-08
5.74138e-07
-3.56146e-07
-1.8363e-08
5.96973e-07
-3.48518e-07
-1.71108e-08
6.20346e-07
-3.41935e-07
-1.92931e-08
6.4632e-07
-3.36244e-07
-2.41586e-08
6.73323e-07
-3.31167e-07
-3.16668e-08
6.9919e-07
-3.26573e-07
-4.18865e-08
7.23403e-07
-3.21957e-07
-5.58743e-08
7.45718e-07
-3.16703e-07
-7.84149e-08
7.6897e-07
-3.09376e-07
-1.18698e-07
7.97468e-07
-2.97934e-07
-1.8851e-07
8.35496e-07
-2.81032e-07
-2.96865e-07
8.84454e-07
-2.59291e-07
-4.44708e-07
9.42905e-07
-2.31269e-07
-6.15402e-07
9.93536e-07
-1.99998e-07
-7.62219e-07
1.00877e-06
-1.71656e-07
-8.17252e-07
9.70512e-07
-1.56604e-07
-7.79554e-07
9.24983e-07
-1.63671e-07
-6.96578e-07
8.75516e-07
-2.42349e-07
-3.44488e-07
7.18367e-07
-4.88873e-07
9.9864e-07
3.43965e-07
-1.2369e-06
4.31849e-06
-6.90609e-07
-2.41662e-06
2.33462e-06
6.96812e-07
9.99712e-09
-9.70578e-06
-2.02601e-06
6.13375e-06
-2.0976e-05
-1.20033e-05
6.46364e-06
-3.15212e-05
-1.83027e-05
7.2032e-06
-3.90192e-05
-2.20894e-05
4.53159e-06
-4.00449e-05
-2.68547e-05
-4.04033e-07
-4.07605e-05
-3.07847e-05
4.25532e-06
-3.86189e-05
-2.82331e-05
7.11358e-06
-2.85484e-05
-1.82427e-05
-1.64856e-06
-1.65836e-05
-7.68506e-06
-1.00083e-05
-1.51471e-05
1.33732e-05
-7.05089e-06
2.2021e-06
4.81585e-05
-1.64246e-05
-1.19792e-06
-1.35769e-05
1.39331e-06
-1.69002e-05
-2.4834e-05
8.90789e-06
-2.17581e-05
-2.95271e-06
7.61659e-06
-2.6829e-05
-9.07979e-06
5.35389e-06
-2.7449e-05
-6.17909e-06
8.90141e-07
-2.87274e-05
-8.52243e-06
1.61466e-07
-2.73614e-05
-8.09643e-06
-3.62503e-06
-2.52139e-05
-8.48157e-06
-4.83182e-06
-2.06661e-05
-7.64058e-06
-7.22651e-06
-1.51465e-05
-6.72714e-06
-8.428e-06
-9.8095e-06
-3.31475e-06
-8.76389e-06
-5.8385e-06
9.85101e-07
-8.32904e-06
-3.93328e-06
6.94198e-06
-7.62875e-06
-2.25394e-06
9.82895e-06
-7.09626e-06
-9.19047e-07
1.20973e-05
-5.08811e-06
-2.45505e-06
1.25813e-05
-3.28809e-07
-4.14918e-06
9.05486e-06
1.48687e-06
-8.43647e-06
6.12281e-06
1.6094e-06
-1.57185e-05
6.1993e-06
-2.51532e-06
-2.14058e-05
6.40396e-06
-5.94973e-06
-2.30937e-05
5.68945e-06
-5.99694e-06
-2.05711e-05
5.43404e-06
-6.93893e-06
-1.81577e-05
5.058e-06
-4.60759e-06
-1.67975e-05
2.56603e-06
-9.63385e-07
-1.58307e-05
-2.97928e-06
3.51126e-06
-1.50161e-05
-8.36028e-06
6.29083e-06
-1.37113e-05
-9.12695e-06
5.44595e-06
-9.15882e-06
-8.1202e-06
2.07335e-06
-1.67098e-06
-4.76371e-06
-3.75367e-06
5.39278e-06
2.3765e-06
-6.14754e-06
9.34004e-06
5.0766e-06
-6.08589e-06
1.05335e-05
7.30938e-06
-4.9421e-06
1.13885e-05
7.98361e-06
-3.52938e-06
1.2562e-05
8.2225e-06
-3.50991e-06
1.21586e-05
9.19577e-06
-2.1277e-06
7.92775e-06
1.16302e-05
6.5629e-07
1.22412e-05
2.95841e-06
-3.64804e-06
-3.85431e-06
2.38589e-07
-2.51886e-06
-5.30943e-06
-9.39973e-07
-2.26879e-06
-3.6697e-06
-9.98939e-08
-1.44937e-06
-4.00888e-06
-4.55101e-07
-1.04124e-06
-2.52806e-06
1.7913e-07
-5.31976e-07
-1.78056e-06
1.22311e-08
-2.92389e-07
-2.37987e-07
-1.27257e-07
-3.09468e-07
2.23545e-07
-1.33825e-07
-2.25199e-07
3.86843e-07
-2.19474e-07
-2.06145e-07
5.02992e-07
-1.82478e-07
-2.10004e-07
7.08784e-07
-1.95444e-07
-2.95177e-07
7.87004e-07
-1.83286e-07
-4.16229e-07
8.49402e-07
-1.81416e-07
-4.84169e-07
7.13628e-07
-2.00134e-07
-4.86982e-07
6.03981e-07
-2.28991e-07
-4.46218e-07
5.34093e-07
-2.64623e-07
-3.90777e-07
5.35045e-07
-2.95621e-07
-3.46483e-07
5.85808e-07
-3.17789e-07
-3.11379e-07
6.38264e-07
-3.35986e-07
-2.78585e-07
6.80078e-07
-3.50354e-07
-2.43087e-07
7.14186e-07
-3.60302e-07
-2.0402e-07
7.44443e-07
-3.64853e-07
-1.66356e-07
7.7615e-07
-3.63132e-07
-1.33567e-07
8.08191e-07
-3.56808e-07
-1.10108e-07
8.4186e-07
-3.47398e-07
-9.35859e-08
8.67889e-07
-3.36065e-07
-8.16436e-08
8.86288e-07
-3.24102e-07
-7.21647e-08
9.00059e-07
-3.12573e-07
-6.56594e-08
9.15684e-07
-3.01854e-07
-6.42795e-08
9.36857e-07
-2.91926e-07
-6.92865e-08
9.61193e-07
-2.82874e-07
-8.06291e-08
9.85329e-07
-2.74806e-07
-9.86579e-08
1.0086e-06
-2.67182e-07
-1.24054e-07
1.02996e-06
-2.58862e-07
-1.62256e-07
1.05475e-06
-2.47589e-07
-2.22351e-07
1.08835e-06
-2.30795e-07
-3.14222e-07
1.13486e-06
-2.07503e-07
-4.42089e-07
1.19092e-06
-1.78609e-07
-5.89324e-07
1.2373e-06
-1.47174e-07
-7.19087e-07
1.23969e-06
-1.16399e-07
-7.76022e-07
1.15848e-06
-9.2786e-08
-6.97945e-07
9.82341e-07
-8.9915e-08
-4.74488e-07
8.16124e-07
-1.14608e-07
-1.82395e-07
7.60386e-07
-1.76974e-07
1.64711e-07
7.37106e-07
-3.65854e-07
1.21065e-06
3.09567e-07
-1.01155e-06
4.37934e-06
-1.54721e-06
-2.3121e-06
6.44181e-06
1.79097e-07
-1.54477e-06
-2.21937e-06
4.68977e-06
1.9454e-06
-1.42481e-05
-1.7307e-06
1.75611e-06
-2.6701e-05
-9.88097e-06
4.03123e-06
-3.85657e-05
-1.64776e-05
6.25295e-06
-4.63822e-05
-2.45071e-05
5.46906e-06
-5.28598e-05
-3.09406e-05
6.63365e-06
-5.63807e-05
-2.88109e-05
4.09886e-06
-5.46786e-05
-1.89736e-05
-9.71051e-07
-5.81875e-05
-3.67648e-06
-4.99586e-07
-4.49187e-05
8.94213e-06
-8.83774e-06
6.17747e-06
2.81752e-05
-3.1114e-05
-1.30591e-06
-8.13623e-06
2.04321e-06
-2.03802e-05
-1.53233e-05
9.5644e-06
-2.67983e-05
-3.24033e-06
6.70683e-06
-3.56975e-05
-4.92392e-06
4.74442e-06
-3.94656e-05
-2.82357e-06
4.13624e-07
-4.23426e-05
-3.48201e-06
-2.16243e-06
-4.20908e-05
-3.28152e-06
-5.06581e-06
-4.07104e-05
-3.55271e-06
-6.30856e-06
-3.57201e-05
-4.69938e-06
-7.93094e-06
-2.87498e-05
-5.92621e-06
-7.77077e-06
-1.96199e-05
-5.77686e-06
-6.66748e-06
-1.20422e-05
-4.75876e-06
-1.83369e-06
-8.64784e-06
1.57116e-06
1.9767e-06
-1.00289e-05
7.88142e-06
3.32886e-06
-1.36855e-05
1.14102e-05
4.344e-06
-1.90003e-05
1.4545e-05
3.35129e-06
-2.43524e-05
1.39564e-05
4.50998e-07
-2.79388e-05
1.18056e-05
-2.09618e-06
-2.99222e-05
1.10248e-05
-2.84181e-06
-2.89747e-05
8.87765e-06
-3.421e-06
-2.68133e-05
6.3457e-06
-2.81738e-06
-2.40842e-05
4.58199e-06
-1.8769e-06
-2.18617e-05
3.31454e-06
-4.78929e-07
-2.23739e-05
3.17478e-07
2.76093e-06
-2.52781e-05
-3.21047e-06
3.13552e-06
-2.62584e-05
-7.72833e-06
3.48349e-07
-2.44079e-05
-1.00758e-05
-9.01624e-07
-1.96335e-05
-1.1256e-05
-1.63862e-06
-1.16632e-05
-9.95929e-06
-2.77468e-06
-1.12976e-06
-4.19724e-06
-3.95967e-06
5.69162e-06
2.11595e-06
-3.86074e-06
7.04977e-06
6.30929e-06
-3.58058e-07
7.61314e-06
7.83748e-06
-4.17247e-07
8.90139e-06
9.879e-06
-2.94474e-06
9.25639e-06
1.08053e-05
-1.96453e-06
6.40093e-06
1.37107e-05
7.7498e-07
1.60453e-05
2.59681e-06
-3.8192e-06
-3.30998e-06
5.01976e-07
-2.72333e-06
-5.16083e-06
-1.24448e-06
-2.50649e-06
-3.53495e-06
-3.51594e-07
-1.47476e-06
-4.07172e-06
-9.68896e-07
-9.02213e-07
-2.89888e-06
-2.01731e-07
-4.14415e-07
-2.03564e-06
-2.3272e-07
-2.29781e-07
-2.2936e-07
-1.93261e-07
-2.93314e-07
4.32986e-07
-1.45909e-07
-1.71039e-07
5.3595e-07
-2.71381e-07
-1.44459e-07
6.75572e-07
-1.99161e-07
-1.32052e-07
8.95664e-07
-1.99287e-07
-2.08784e-07
1.01436e-06
-1.5062e-07
-3.14118e-07
1.09886e-06
-1.44127e-07
-3.67452e-07
9.40609e-07
-1.73647e-07
-3.66269e-07
8.27764e-07
-2.24966e-07
-3.34712e-07
7.68438e-07
-2.65903e-07
-3.00148e-07
7.95712e-07
-2.9523e-07
-2.80477e-07
8.73623e-07
-3.07487e-07
-2.75126e-07
9.47959e-07
-3.15046e-07
-2.75483e-07
1.00173e-06
-3.21295e-07
-2.75632e-07
1.04008e-06
-3.25749e-07
-2.70858e-07
1.06723e-06
-3.27557e-07
-2.62004e-07
1.0915e-06
-3.24205e-07
-2.52051e-07
1.11462e-06
-3.16379e-07
-2.46754e-07
1.13971e-06
-3.03149e-07
-2.43322e-07
1.15494e-06
-2.90488e-07
-2.37162e-07
1.15937e-06
-2.79246e-07
-2.27645e-07
1.15979e-06
-2.69248e-07
-2.17826e-07
1.16546e-06
-2.59592e-07
-2.13406e-07
1.18257e-06
-2.5013e-07
-2.17986e-07
1.20673e-06
-2.40952e-07
-2.32596e-07
1.23228e-06
-2.32338e-07
-2.58318e-07
1.25763e-06
-2.23307e-07
-2.93603e-07
1.27831e-06
-2.13062e-07
-3.41311e-07
1.30234e-06
-1.99876e-07
-4.05126e-07
1.33457e-06
-1.82406e-07
-4.84831e-07
1.37598e-06
-1.61408e-07
-5.72514e-07
1.41757e-06
-1.38963e-07
-6.43355e-07
1.43049e-06
-1.22345e-07
-6.62568e-07
1.37191e-06
-1.13002e-07
-5.96919e-07
1.21008e-06
-1.17244e-07
-4.15577e-07
9.35569e-07
-1.34562e-07
-1.24655e-07
6.73599e-07
-1.48389e-07
1.9303e-07
6.0833e-07
-1.65618e-07
5.14116e-07
7.32701e-07
-3.16671e-07
1.39666e-06
2.8713e-07
-8.60099e-07
3.64287e-06
-1.80018e-06
-1.99322e-06
8.55052e-06
-2.64691e-06
-2.08164e-06
9.23474e-06
4.58924e-06
-5.83693e-07
7.4939e-07
6.05635e-06
6.98314e-07
-1.10612e-05
-7.39706e-07
2.66939e-06
-2.53321e-05
-6.48619e-06
4.27952e-06
-4.05243e-05
-1.30354e-05
3.72049e-06
-5.34928e-05
-2.33678e-05
5.39582e-06
-6.01328e-05
-2.68659e-05
4.69512e-06
-6.15178e-05
-2.07978e-05
3.20917e-06
-6.10983e-05
-1.00406e-05
5.94473e-06
-4.20205e-05
-4.53718e-06
-5.59861e-06
5.74638e-06
7.80295e-06
-2.73956e-05
-2.01132e-06
-3.52679e-06
3.14862e-06
-2.06724e-05
-7.04689e-06
1.03864e-05
-3.07885e-05
8.58144e-07
6.02006e-06
-4.1939e-05
1.966e-06
4.26294e-06
-4.74077e-05
3.32831e-06
-6.80665e-07
-5.05616e-05
3.30051e-06
-3.62608e-06
-5.06047e-05
2.9982e-06
-6.23413e-06
-4.9564e-05
1.80371e-06
-6.39495e-06
-4.50804e-05
-1.31179e-06
-7.8694e-06
-4.05254e-05
-5.12059e-06
-5.35913e-06
-3.60103e-05
-7.47593e-06
-2.81488e-06
-3.13528e-05
-8.48956e-06
-9.25711e-07
-2.46499e-05
-4.41378e-06
-7.17147e-07
-2.25595e-05
4.99638e-06
7.95448e-07
-2.51783e-05
1.1881e-05
2.14891e-06
-2.77659e-05
1.4994e-05
2.13951e-06
-2.96746e-05
1.44049e-05
1.46118e-06
-3.08807e-05
1.21729e-05
8.39964e-07
-3.03559e-05
1.02774e-05
2.23688e-07
-3.002e-05
7.77436e-06
7.6857e-07
-3.11248e-05
5.41348e-06
2.03826e-06
-3.16429e-05
3.36281e-06
1.7385e-06
-3.11026e-05
7.01854e-07
2.07361e-06
-3.04927e-05
-2.0325e-06
1.74133e-06
-3.05554e-05
-4.5697e-06
1.42304e-06
-3.1362e-05
-8.60831e-06
1.68774e-06
-3.15328e-05
-1.19028e-05
1.99869e-06
-3.08398e-05
-1.3792e-05
1.84376e-06
-2.75455e-05
-1.45306e-05
1.27749e-06
-1.92703e-05
-1.26528e-05
1.80652e-07
-9.96417e-06
-7.18212e-06
-7.90765e-09
-4.08495e-06
-1.96836e-06
2.39844e-06
5.25115e-07
3.41628e-06
-1.88858e-07
4.92827e-06
8.5982e-06
-3.12236e-06
6.6776e-06
1.19713e-05
-2.91528e-06
4.23607e-06
1.67938e-05
-6.41534e-07
1.94376e-05
8.43786e-07
-3.72091e-06
-2.5696e-06
1.0871e-06
-2.95391e-06
-4.90749e-06
-1.02034e-06
-2.91687e-06
-3.25924e-06
-3.12741e-07
-1.80864e-06
-4.11342e-06
-1.06653e-06
-9.63561e-07
-3.29915e-06
-4.4481e-07
-2.86035e-07
-2.30899e-06
-4.04171e-07
-1.47476e-07
-1.32936e-07
-2.34981e-07
-2.25623e-07
6.10381e-07
-9.92453e-08
-1.41459e-07
8.22207e-07
-3.70419e-07
-1.81937e-07
9.59922e-07
-2.43868e-07
-1.36037e-07
1.11585e-06
-2.6608e-07
-1.37279e-07
1.24598e-06
-2.30379e-07
-1.27554e-07
1.33626e-06
-2.47115e-07
-1.15503e-07
1.22536e-06
-2.96796e-07
-1.14024e-07
1.1778e-06
-3.51511e-07
-1.42723e-07
1.18569e-06
-3.8855e-07
-1.86979e-07
1.25873e-06
-4.18761e-07
-2.33926e-07
1.35638e-06
-4.35807e-07
-2.81005e-07
1.44481e-06
-4.49769e-07
-3.28928e-07
1.51169e-06
-4.62034e-07
-3.71085e-07
1.55264e-06
-4.70389e-07
-3.98523e-07
1.57105e-06
-4.76375e-07
-4.14414e-07
1.58593e-06
-4.78527e-07
-4.21701e-07
1.59973e-06
-4.77823e-07
-4.20578e-07
1.61343e-06
-4.74828e-07
-4.15711e-07
1.62061e-06
-4.70522e-07
-4.07904e-07
1.619e-06
-4.67427e-07
-3.95727e-07
1.61292e-06
-4.653e-07
-3.8273e-07
1.61381e-06
-4.61339e-07
-3.78381e-07
1.63296e-06
-4.54734e-07
-3.87077e-07
1.66244e-06
-4.47002e-07
-4.08727e-07
1.6924e-06
-4.38457e-07
-4.44153e-07
1.72139e-06
-4.28321e-07
-4.89317e-07
1.74135e-06
-4.17858e-07
-5.44377e-07
1.7629e-06
-4.05487e-07
-6.07897e-07
1.78913e-06
-3.91023e-07
-6.67745e-07
1.81177e-06
-3.7593e-07
-7.0635e-07
1.81912e-06
-3.62926e-07
-7.11606e-07
1.79392e-06
-3.58144e-07
-6.52803e-07
1.68468e-06
-3.71552e-07
-5.14421e-07
1.47885e-06
-4.07118e-07
-2.90532e-07
1.16727e-06
-4.55561e-07
1.23685e-08
8.75289e-07
-5.04558e-07
3.06242e-07
8.26105e-07
-5.11614e-07
5.57275e-07
1.14389e-06
-6.62186e-07
8.78426e-07
9.76004e-07
-1.00998e-06
1.92595e-06
-9.22194e-07
-1.92546e-06
6.22479e-06
-3.83606e-06
-3.10965e-06
1.2391e-05
7.12339e-07
-2.28928e-06
1.18486e-05
8.39189e-06
-1.79308e-06
5.43891e-06
7.38601e-06
-1.71604e-06
-3.20182e-06
3.48109e-06
-1.32652e-06
-1.30497e-05
-2.52261e-06
-6.64825e-07
-3.00266e-05
-1.18826e-05
5.49172e-06
-4.6677e-05
-1.61838e-05
5.96836e-06
-5.39913e-05
-1.75729e-05
4.0896e-06
-6.00157e-05
-1.46323e-05
1.06163e-05
-4.61285e-05
-1.77502e-05
-6.74446e-07
5.14348e-06
-1.63765e-05
-2.70936e-05
-1.83882e-06
2.11652e-06
1.33952e-06
-2.2529e-05
-1.00122e-06
1.46473e-05
-3.39314e-05
6.39939e-06
5.86496e-06
-4.35428e-05
7.65366e-06
3.92756e-06
-4.65907e-05
9.33467e-06
-2.95433e-06
-4.85869e-05
9.47267e-06
-4.17185e-06
-4.69441e-05
1.00286e-05
-8.66894e-06
-4.69629e-05
1.07572e-05
-8.93048e-06
-4.80572e-05
1.09032e-05
-1.11168e-05
-5.12296e-05
1.01636e-05
-1.21081e-05
-5.45079e-05
6.13506e-06
-1.03292e-05
-5.65331e-05
2.26426e-06
-8.72546e-06
-5.58166e-05
1.71309e-06
-6.84042e-06
-5.24263e-05
4.5107e-06
-2.90184e-06
-4.99963e-05
9.07721e-06
3.76673e-07
-4.89834e-05
1.16874e-05
2.29653e-06
-4.95259e-05
1.28233e-05
2.12707e-06
-5.12888e-05
1.27375e-05
1.20129e-06
-5.2516e-05
1.11294e-05
3.7833e-07
-5.26022e-05
8.54503e-06
-6.81315e-07
-5.10642e-05
5.67281e-06
-1.79422e-06
-4.74315e-05
1.93178e-06
-2.19855e-06
-4.23742e-05
-2.54296e-06
-1.80956e-06
-3.85476e-05
-5.25976e-06
-5.96392e-07
-3.6499e-05
-6.35898e-06
-2.56375e-07
-3.68547e-05
-8.06964e-06
-1.79864e-07
-3.93961e-05
-1.04742e-05
1.11606e-06
-4.27976e-05
-1.27073e-05
2.32038e-06
-4.69039e-05
-1.27298e-05
2.30938e-06
-4.96622e-05
-1.09889e-05
1.09838e-06
-4.70859e-05
-8.20941e-06
-1.54497e-06
-4.04396e-05
-5.65265e-06
-2.95821e-06
-3.12336e-05
-1.52708e-06
-4.25935e-06
-2.11335e-05
3.17237e-06
-4.67159e-06
-1.29844e-05
7.81523e-06
-3.99114e-06
-6.34032e-06
1.29778e-05
-2.82693e-06
1.49756e-05
-1.87791e-06
-3.32426e-06
-1.17779e-06
2.0399e-06
-3.08303e-06
-4.70538e-06
-4.43332e-07
-3.45266e-06
-2.95971e-06
7.01108e-08
-2.40379e-06
-4.25633e-06
-9.05954e-07
-1.33473e-06
-3.78959e-06
-5.7862e-07
-2.4968e-07
-2.84307e-06
-5.50967e-07
-7.24972e-09
-5.57964e-07
1.82603e-07
-1.52523e-07
3.78642e-07
3.77017e-07
-1.29558e-07
8.41815e-07
-4.25667e-08
-2.16385e-07
9.67143e-07
7.96121e-08
-1.14734e-07