/*--------------------------------*- C++ -*----------------------------------*\
| =========                 |                                                 |
| \\      /  F ield         | OpenFOAM: The Open Source CFD Toolbox           |
|  \\    /   O peration     | Version:  2.3.0                                 |
|   \\  /    A nd           | Web:      www.OpenFOAM.org                      |
|    \\/     M anipulation  |                                                 |
\*---------------------------------------------------------------------------*/
FoamFile
{
    version     2.0;
    format      ascii;
    class       surfaceScalarField;
    location    "41";
    object      phi.water;
}
// * * * * * * * * * * * * * * * * * * * * * * * * * * * * * * * * * * * * * //

dimensions      [0 3 -1 0 0 0 0];

internalField   nonuniform List<scalar> 
16448
(
-8.22622e-07
-2.67046e-06
3.52319e-07
1.23715e-06
-2.65103e-06
5.95926e-07
1.36124e-06
-1.15069e-06
1.02975e-06
1.19812e-06
-9.14326e-07
1.0805e-06
7.04512e-07
-5.32713e-07
1.03007e-06
3.34244e-07
-6.06832e-07
9.81828e-07
9.96517e-08
-5.97243e-07
8.38861e-07
-5.82726e-09
-5.3131e-07
6.44071e-07
-2.11256e-07
-3.28081e-07
5.37228e-07
-5.03657e-07
-2.03411e-07
4.96147e-07
-7.37621e-07
-1.79262e-07
4.13438e-07
-8.05948e-07
-2.30588e-07
2.99103e-07
-7.24394e-07
-3.09687e-07
2.28361e-07
-5.49039e-07
-3.65574e-07
1.90436e-07
-3.62737e-07
-3.95936e-07
2.09901e-07
-1.87003e-07
-4.19842e-07
2.44346e-07
-4.85482e-08
-4.32784e-07
2.94607e-07
5.90843e-08
-4.48441e-07
3.41064e-07
1.30048e-07
-4.59619e-07
3.88914e-07
1.67251e-07
-4.67231e-07
4.30275e-07
1.80006e-07
-4.75663e-07
4.63154e-07
1.77143e-07
-4.78984e-07
4.82086e-07
1.65761e-07
-4.77272e-07
4.88894e-07
1.50396e-07
-4.70957e-07
4.86559e-07
1.348e-07
-4.60792e-07
4.76632e-07
1.22093e-07
-4.48113e-07
4.61065e-07
1.14326e-07
-4.33723e-07
4.41744e-07
1.12702e-07
-4.20074e-07
4.21951e-07
1.16915e-07
-4.08968e-07
4.05015e-07
1.2356e-07
-3.97715e-07
3.91329e-07
1.29549e-07
-3.86524e-07
3.80799e-07
1.34227e-07
-3.76323e-07
3.71908e-07
1.38119e-07
-3.67369e-07
3.63748e-07
1.41207e-07
-3.58943e-07
3.56119e-07
1.43719e-07
-3.50773e-07
3.4854e-07
1.45968e-07
-3.4238e-07
3.40391e-07
1.5237e-07
-3.35625e-07
3.29511e-07
1.62522e-07
-3.27177e-07
3.17279e-07
1.85222e-07
-3.24262e-07
3.0186e-07
2.13542e-07
-3.14659e-07
2.86583e-07
2.58158e-07
-3.15606e-07
2.71305e-07
3.03733e-07
-3.047e-07
2.59343e-07
3.56202e-07
-3.06166e-07
2.54039e-07
3.8617e-07
-2.90928e-07
2.61131e-07
3.50992e-07
-2.58925e-07
2.94482e-07
2.44277e-07
-2.24712e-07
3.31569e-07
-2.27304e-08
-1.36108e-07
4.03763e-07
-2.28737e-07
-2.04917e-07
4.14298e-07
-3.7069e-07
-3.13374e-07
4.75003e-07
-2.33366e-07
-7.5721e-07
6.54292e-07
3.06338e-07
-1.05152e-06
5.9499e-07
1.10231e-07
-7.74834e-07
1.02151e-06
-1.29152e-07
-1.38876e-06
1.73668e-06
-7.44452e-07
-1.31368e-06
1.90218e-06
2.5063e-07
-2.99441e-06
2.15982e-06
-2.19915e-06
-1.71381e-06
4.0099e-06
7.80368e-07
-9.64744e-07
-6.87495e-07
1.11635e-06
2.53279e-07
-1.18957e-06
7.85369e-06
-1.10907e-06
4.99439e-06
2.75709e-05
-1.06379e-05
1.01539e-05
1.59066e-05
-1.65347e-05
1.17912e-06
2.24233e-05
-1.15697e-05
3.75413e-06
2.30966e-05
-5.71474e-06
5.03889e-06
2.5171e-05
-5.45825e-06
3.38384e-06
2.66473e-05
-3.93368e-06
2.45739e-06
2.6197e-05
-1.48577e-06
1.93602e-06
2.42561e-05
3.16161e-07
1.62474e-06
2.12121e-05
1.67324e-06
1.37073e-06
1.73923e-05
2.60642e-06
1.21339e-06
1.29464e-05
3.26423e-06
1.1816e-06
7.97657e-06
3.64528e-06
1.3246e-06
3.6877e-06
2.97451e-06
1.31437e-06
8.09482e-07
1.83693e-06
1.04131e-06
-1.17024e-06
9.22989e-07
1.05675e-06
-2.41644e-06
2.66588e-07
9.79636e-07
-2.81559e-06
-1.77533e-07
5.76693e-07
-2.7321e-06
-4.4211e-07
3.58626e-07
-2.36051e-06
-4.69995e-07
9.84016e-08
-1.84063e-06
-2.67156e-07
-2.52731e-07
-1.28727e-06
1.07585e-07
-6.60958e-07
-8.42789e-07
5.14486e-07
-9.58974e-07
-6.21222e-07
8.54059e-07
-1.07564e-06
-5.92325e-07
9.77623e-07
-1.00653e-06
-6.81631e-07
8.25936e-07
-7.36642e-07
-6.79954e-07
1.95858e-07
-1.97544e-07
-2.99788e-07
-1.00499e-06
6.24819e-07
5.26959e-07
-2.27728e-06
1.45053e-06
1.88615e-06
-3.58652e-06
2.22732e-06
3.99292e-06
-4.93039e-06
2.8236e-06
6.5283e-06
-5.67061e-06
3.13523e-06
8.68203e-06
-5.18822e-06
3.03449e-06
9.014e-06
-2.48708e-06
2.15511e-06
7.10768e-06
4.85814e-07
1.4205e-06
4.61188e-06
1.56327e-06
9.32522e-07
2.33556e-06
1.89734e-06
3.78983e-07
2.38657e-06
-5.10139e-08
-1.52751e-06
-3.82739e-06
-3.58193e-07
8.35401e-09
-3.93283e-06
-2.4541e-07
4.34171e-07
-2.18461e-06
6.14298e-07
7.76392e-07
-1.81784e-06
5.66211e-07
7.29607e-07
-9.67378e-07
4.8653e-07
5.17263e-07
-8.25993e-07
4.35779e-07
2.14312e-07
-5.12133e-07
2.23185e-07
-1.37878e-08
-3.67472e-07
7.04548e-08
-3.50971e-07
-8.60763e-08
9.86233e-08
-7.43562e-07
3.74309e-08
1.51684e-07
-9.92818e-07
-2.21076e-08
9.20445e-08
-1.03961e-06
-1.72067e-07
-1.18254e-08
-9.47777e-07
-3.0723e-07
-9.42455e-08
-7.6775e-07
-4.04334e-07
-1.41238e-07
-5.60187e-07
-4.56675e-07
-1.46761e-07
-3.59992e-07
-4.89751e-07
-1.30246e-07
-1.9491e-07
-5.0224e-07
-9.55494e-08
-6.07548e-08
-5.19104e-07
-6.34427e-08
3.68124e-08
-5.27925e-07
-2.92136e-08
9.81395e-08
-5.29507e-07
9.64924e-10
1.31527e-07
-5.27765e-07
1.8753e-08
1.44832e-07
-5.21251e-07
2.90112e-08
1.45529e-07
-5.10269e-07
3.23503e-08
1.39082e-07
-4.94991e-07
3.05299e-08
1.29793e-07
-4.76209e-07
2.47479e-08
1.21027e-07
-4.55485e-07
1.61733e-08
1.15124e-07
-4.34094e-07
6.2949e-09
1.13528e-07
-4.13338e-07
-5.12355e-09
1.1593e-07
-3.93795e-07
-1.75451e-08
1.18876e-07
-3.73491e-07
-2.71286e-08
1.20623e-07
-3.53177e-07
-3.50486e-08
1.21616e-07
-3.34953e-07
-4.23137e-08
1.22988e-07
-3.19321e-07
-4.93672e-08
1.24551e-07
-3.04625e-07
-5.58289e-08
1.27556e-07
-2.91179e-07
-6.25358e-08
1.30852e-07
-2.77224e-07
-6.83971e-08
1.40575e-07
-2.67645e-07
-7.76286e-08
1.51945e-07
-2.54318e-07
-8.41805e-08
1.79614e-07
-2.54675e-07
-9.71632e-08
2.10397e-07
-2.40955e-07
-1.04452e-07
2.61572e-07
-2.51524e-07
-1.15128e-07
3.07787e-07
-2.32498e-07
-1.18408e-07
3.57994e-07
-2.40489e-07
-1.15702e-07
3.73985e-07
-2.04182e-07
-1.02774e-07
3.235e-07
-1.44285e-07
-6.3926e-08
2.07245e-07
-7.70267e-08
-3.15407e-08
-1.86896e-08
5.72019e-08
3.33295e-08
-1.05843e-07
-1.03461e-07
-1.14976e-08
1.55974e-08
-3.1018e-07
-1.09716e-07
1.1278e-07
-8.41731e-07
1.42403e-08
7.2527e-07
-1.57879e-06
8.52172e-09
4.11322e-07
-8.46657e-07
4.55526e-07
-5.31023e-07
-1.07603e-06
7.32348e-07
-1.35641e-06
-1.43642e-06
9.13969e-07
1.08312e-06
-5.92158e-06
5.76223e-07
3.68482e-06
-5.84874e-06
1.43619e-06
-4.68788e-07
3.43393e-06
8.21517e-07
-9.5922e-06
5.04139e-06
4.12914e-06
2.71247e-06
-4.39269e-06
1.50638e-06
2.90823e-05
-2.43484e-05
3.88104e-06
1.44882e-05
-2.6323e-05
-3.44307e-06
1.78559e-05
-1.79897e-05
1.58574e-06
1.73191e-05
-1.15152e-05
6.33477e-06
1.98457e-05
-9.01067e-06
1.02581e-06
2.10282e-05
-5.251e-06
1.34782e-07
2.08127e-05
-1.18876e-06
-8.16191e-08
1.94689e-05
1.88566e-06
-2.2569e-07
1.70776e-05
4.23824e-06
-1.73714e-07
1.37203e-05
5.97259e-06
-8.8676e-09
9.83316e-06
6.84497e-06
3.06362e-07
5.78174e-06
6.9807e-06
7.16029e-07
1.73204e-06
6.1175e-06
9.06755e-07
-1.71724e-06
4.51806e-06
7.68189e-07
-4.18473e-06
2.92645e-06
4.64061e-07
-5.59142e-06
1.75301e-06
-7.97042e-08
-5.92568e-06
1.06913e-06
-9.124e-07
-5.66113e-06
7.67831e-07
-1.47449e-06
-5.09107e-06
8.54886e-07
-1.89494e-06
-4.19365e-06
1.21818e-06
-2.38277e-06
-3.13016e-06
1.84962e-06
-2.80554e-06
-2.22025e-06
2.49999e-06
-2.89543e-06
-1.69528e-06
2.95885e-06
-2.62978e-06
-1.5701e-06
2.96492e-06
-2.1125e-06
-1.68445e-06
2.30476e-06
-1.36449e-06
-1.66868e-06
6.88602e-07
-5.08526e-07
-1.28025e-06
-1.68044e-06
2.86995e-07
-4.14397e-07
-4.08672e-06
9.43568e-07
8.89281e-07
-6.47662e-06
1.5864e-06
2.75487e-06
-8.94575e-06
2.14976e-06
4.9031e-06
-1.03327e-05
2.51389e-06
6.82414e-06
-9.63565e-06
2.52637e-06
7.99146e-06
-5.23345e-06
1.57904e-06
6.58949e-06
1.57795e-06
3.09831e-07
4.14199e-06
3.92302e-06
8.77383e-08
1.87684e-06
4.26419e-06
-1.017e-07
5.00302e-06
-7.39615e-07
-2.27811e-06
-4.26411e-06
-5.87472e-07
-1.22635e-06
-4.36861e-06
-6.06451e-07
-7.09309e-07
-2.85764e-06
1.63125e-07
-1.16991e-07
-2.4138e-06
1.04549e-08
1.53851e-07
-1.20717e-06
-2.5804e-08
1.53492e-07
-7.95037e-07
-2.69629e-08
5.07524e-08
-2.69447e-07
-1.35344e-07
-8.11753e-08
-5.03189e-08
-1.80076e-07
-3.21961e-07
2.85086e-07
-1.27156e-07
-6.46169e-07
4.02699e-07
-4.05679e-08
-8.70069e-07
2.69523e-07
-6.7478e-08
-9.3574e-07
4.46044e-08
-1.50747e-07
-9.06921e-07
-1.15196e-07
-2.20556e-07
-8.09798e-07
-2.30918e-07
-2.70337e-07
-6.705e-07
-2.9218e-07
-3.03632e-07
-5.15537e-07
-3.26824e-07
-3.17802e-07
-3.72308e-07
-3.33567e-07
-3.1181e-07
-2.48466e-07
-3.42206e-07
-3.00674e-07
-1.45526e-07
-3.43292e-07
-2.87502e-07
-6.25399e-08
-3.36993e-07
-2.75442e-07
-2.88079e-09
-3.21335e-07
-2.66019e-07
3.7361e-08
-3.02099e-07
-2.59322e-07
6.27462e-08
-2.80316e-07
-2.55257e-07
7.74472e-08
-2.56223e-07
-2.53384e-07
8.52349e-08
-2.30784e-07
-2.53121e-07
8.91066e-08
-2.05462e-07
-2.53801e-07
9.16641e-08
-1.81583e-07
-2.54967e-07
9.32831e-08
-1.58514e-07
-2.56338e-07
9.21641e-08
-1.34595e-07
-2.57965e-07
8.84305e-08
-1.09467e-07
-2.6017e-07
8.40019e-08
-8.54878e-08
-2.63129e-07
8.05571e-08
-6.48224e-08
-2.66549e-07
7.91023e-08
-4.75872e-08
-2.70132e-07
7.98081e-08
-3.18619e-08
-2.73322e-07
8.37795e-08
-1.83912e-08
-2.76591e-07
8.98456e-08
-4.64358e-09
-2.78487e-07
1.02711e-07
2.66589e-09
-2.82996e-07
1.14355e-07
1.68111e-08
-2.82614e-07
1.40581e-07
8.8363e-09
-2.89535e-07
1.62049e-07
2.35307e-08
-2.85801e-07
1.98675e-07
4.10223e-09
-2.92012e-07
2.15151e-07
3.27407e-08
-2.81587e-07
2.32902e-07
2.2386e-08
-2.80343e-07
2.10791e-07
8.08344e-08
-2.62827e-07
1.59272e-07
1.52896e-07
-2.45382e-07
7.35279e-08
2.3617e-07
-2.27405e-07
-4.01373e-08
3.76941e-07
-2.04894e-07
-9.41244e-08
2.05204e-07
-2.51413e-07
-6.48014e-08
2.53058e-08
-3.52966e-07
-2.82584e-07
-3.3143e-07
-2.66184e-07
-9.80605e-07
-6.27025e-07
-1.77383e-07
-1.97271e-06
1.15391e-07
6.1895e-08
-1.45655e-07
-2.17449e-06
-6.23302e-07
3.65681e-06
-4.20452e-06
-1.02364e-06
4.91237e-06
-7.64216e-06
6.31701e-07
4.44589e-06
-6.09425e-06
6.3711e-07
6.75609e-06
3.88892e-06
-1.29678e-06
-3.26129e-06
1.28515e-05
1.42532e-06
4.70706e-06
-2.55282e-06
2.27676e-06
2.99667e-05
-2.92875e-05
-1.6584e-06
1.14522e-05
-3.16214e-05
-4.72536e-06
1.23761e-05
-2.13477e-05
9.50252e-07
1.30019e-05
-1.67147e-05
4.57153e-06
1.51641e-05
-1.0671e-05
-5.01923e-07
1.53399e-05
-4.31602e-06
-1.1108e-06
1.56981e-05
-1.05948e-06
-4.87496e-07
1.45438e-05
3.45674e-06
-4.16777e-07
1.23951e-05
6.8582e-06
-4.71249e-07
9.40866e-06
9.29777e-06
-3.3878e-07
5.92726e-06
1.03406e-05
-1.42567e-08
1.65493e-06
1.06936e-05
5.59412e-07
-2.50836e-06
9.26658e-06
1.01424e-06
-5.48487e-06
6.92653e-06
5.68078e-07
-7.44176e-06
5.07748e-06
-1.94119e-07
-8.50483e-06
3.92895e-06
-1.11286e-06
-8.52185e-06
3.32421e-06
-2.23806e-06
-7.99051e-06
3.16125e-06
-2.92477e-06
-7.16994e-06
3.31686e-06
-3.28257e-06
-6.09944e-06
3.61186e-06
-3.4642e-06
-5.00942e-06
3.99342e-06
-3.23384e-06
-4.19409e-06
4.2753e-06
-2.59066e-06
-3.72701e-06
4.39433e-06
-1.90258e-06
-3.47785e-06
3.93102e-06
-1.21528e-06
-3.14687e-06
2.57673e-06
-6.02966e-07
-2.67822e-06
2.88718e-07
-6.87772e-08
-2.08814e-06
-2.63807e-06
3.67538e-07
-1.21586e-06
-5.81445e-06
8.55442e-07
1.95623e-08
-9.03886e-06
1.32681e-06
1.57575e-06
-1.24244e-05
1.92246e-06
3.44523e-06
-1.46024e-05
2.40017e-06
5.21489e-06
-1.39907e-05
2.58542e-06
6.5004e-06
-8.8247e-06
2.30573e-06
5.75719e-06
2.27733e-06
4.38188e-08
3.81179e-06
6.71992e-06
-8.51501e-07
1.61844e-06
7.2079e-06
-7.5037e-07
7.69238e-06
-1.07093e-06
-3.26256e-06
-4.58176e-06
-2.85326e-07
-2.25841e-06
-4.71614e-06
-6.48316e-07
-1.83934e-06
-3.41901e-06
1.50302e-07
-1.07391e-06
-3.09177e-06
-7.95822e-08
-5.73131e-07
-1.64435e-06
-5.6615e-08
-2.50228e-07
-1.04827e-06
-6.50876e-08
-1.5577e-07
-1.86321e-07
-1.73081e-07
-1.16709e-07
1.02353e-07
-1.8691e-07
-1.89692e-07
5.28353e-07
-1.66905e-07
-4.24157e-07
7.18299e-07
-8.03761e-08
-6.22565e-07
5.86703e-07
-1.18504e-07
-7.37943e-07
3.42991e-07
-1.82687e-07
-7.87441e-07
1.70045e-07
-2.35362e-07
-7.59789e-07
2.93594e-08
-2.87652e-07
-6.8281e-07
-4.60945e-08
-3.22756e-07
-5.6868e-07
-8.42346e-08
-3.56458e-07
-4.46073e-07
-7.91554e-08
-3.76741e-07
-3.35271e-07
-6.53846e-08
-3.87353e-07
-2.38723e-07
-4.70037e-08
-3.92557e-07
-1.54308e-07
-2.67067e-08
-3.94433e-07
-8.45016e-08
9.30106e-10
-3.91808e-07
-2.80458e-08
2.77364e-08
-3.86023e-07
1.45729e-08
5.63662e-08
-3.7903e-07
4.46079e-08
8.6401e-08
-3.72383e-07
6.3537e-08
1.17177e-07
-3.66614e-07
7.34427e-08
1.46389e-07
-3.61473e-07
7.68596e-08
1.72393e-07
-3.57112e-07
7.61117e-08
1.96063e-07
-3.53544e-07
7.27933e-08
2.20241e-07
-3.51241e-07
6.8172e-08
2.45793e-07
-3.50362e-07
6.37941e-08
2.69894e-07
-3.50738e-07
6.00439e-08
2.90864e-07
-3.51674e-07
5.69728e-08
3.08408e-07
-3.52673e-07
5.5314e-08
3.23477e-07
-3.53437e-07
5.63673e-08
3.35176e-07
-3.54379e-07
6.0582e-08
3.45928e-07
-3.5457e-07
7.02025e-08
3.49254e-07
-3.55962e-07
8.15437e-08
3.58688e-07
-3.53011e-07
1.04456e-07
3.43763e-07
-3.57589e-07
1.12835e-07
3.61379e-07
-3.46018e-07
1.36646e-07
3.32266e-07
-3.51709e-07
1.33621e-07
3.71708e-07
-3.35772e-07
1.49111e-07
3.49635e-07
-3.42456e-07
1.34188e-07
4.25065e-07
-3.2917e-07
1.25837e-07
4.72153e-07
-3.10591e-07
6.03599e-08
5.79928e-07
-2.78115e-07
-4.29641e-08
6.82133e-07
-2.00556e-07
-2.13704e-07
5.71696e-07
-1.92299e-07
-4.50231e-07
4.62815e-07
-1.8986e-07
-9.8444e-07
3.5764e-07
-1.34626e-07
-1.95117e-06
5.08769e-07
-1.17558e-07
-2.14208e-06
8.06459e-07
-4.68215e-07
5.9219e-07
-3.09521e-06
-1.71243e-06
5.45896e-06
-7.33492e-06
-1.73847e-06
7.47057e-06
-9.19048e-06
-2.48628e-07
5.59425e-06
-3.81241e-06
-5.89801e-07
1.02872e-05
2.3106e-06
-1.66709e-06
3.06111e-07
2.11384e-05
2.281e-07
7.77698e-06
-5.72269e-06
9.34879e-06
3.32856e-05
-3.13225e-05
-3.20395e-06
1.10578e-05
-3.65718e-05
-4.52505e-06
9.53239e-06
-2.29025e-05
1.45304e-06
9.01762e-06
-1.9343e-05
3.13988e-06
9.09725e-06
-1.02599e-05
-4.90876e-07
9.08519e-06
-3.75467e-06
-5.49343e-07
8.36097e-06
-5.08807e-07
1.73478e-07
6.58541e-06
5.06152e-06
1.70729e-07
4.74322e-06
8.75824e-06
-5.78956e-08
1.90956e-06
1.21886e-05
-5.72233e-08
-1.82462e-06
1.37885e-05
2.86363e-07
-5.34359e-06
1.3212e-05
1.00068e-06
-7.73217e-06
1.0752e-05
9.03218e-07
-9.40345e-06
8.59073e-06
7.15365e-09
-1.06566e-05
7.2156e-06
-8.85042e-07
-1.11824e-05
6.54056e-06
-2.08581e-06
-1.09364e-05
6.32306e-06
-3.2449e-06
-1.0359e-05
6.2859e-06
-3.70191e-06
-9.60606e-06
6.20279e-06
-3.6388e-06
-8.75917e-06
6.05421e-06
-3.28933e-06
-8.01497e-06
5.8399e-06
-2.59074e-06
-7.29221e-06
5.46859e-06
-1.91608e-06
-6.45259e-06
4.88063e-06
-1.32598e-06
-5.46493e-06
3.81466e-06
-8.71391e-07
-4.36058e-06
2.10287e-06
-6.30539e-07
-3.44148e-06
-2.78744e-07
-3.51587e-07
-2.76311e-06
-3.36391e-06
4.75553e-08
-1.9619e-06
-7.04114e-06
4.25395e-07
-8.62559e-07
-1.09495e-05
8.11236e-07
5.43007e-07
-1.51931e-05
1.36311e-06
2.38629e-06
-1.83051e-05
1.85938e-06
4.17004e-06
-1.80482e-05
2.27371e-06
4.9689e-06
-1.21728e-05
2.54923e-06
4.52313e-06
2.48352e-06
2.39564e-07
3.32702e-06
9.07225e-06
-1.15622e-06
1.40523e-06
1.02545e-05
-1.1248e-06
1.02312e-05
-1.13362e-06
-4.0208e-06
-4.72339e-06
-9.37569e-08
-3.12147e-06
-4.98836e-06
-6.20254e-07
-2.82217e-06
-3.85525e-06
1.44799e-07
-1.95945e-06
-3.83581e-06
-1.10944e-07
-1.23474e-06
-2.46431e-06
1.03664e-07
-4.97574e-07
-1.81712e-06
3.90411e-08
-1.92915e-07
-3.85503e-07
-1.00099e-07
-9.12851e-08
1.25982e-07
-1.20725e-07
-5.05444e-08
6.49493e-07
-1.57965e-07
-2.4227e-07
9.94945e-07
-8.34352e-08
-4.43566e-07
9.01113e-07
-1.12529e-07
-5.99085e-07
6.53473e-07
-1.5453e-07
-6.8683e-07
4.48594e-07
-1.90492e-07
-6.94871e-07
2.7238e-07
-2.34832e-07
-6.46425e-07
1.71891e-07
-2.66281e-07
-5.5545e-07
1.27693e-07
-3.02791e-07
-4.52146e-07
1.50888e-07
-3.33236e-07
-3.5934e-07
1.96411e-07
-3.54498e-07
-2.75391e-07
2.40883e-07
-3.71735e-07
-1.97815e-07
2.79822e-07
-3.84014e-07
-1.24341e-07
3.18849e-07
-3.91303e-07
-6.03475e-08
3.57089e-07
-3.93274e-07
-8.50797e-09
3.9519e-07
-3.90595e-07
3.06373e-08
4.31739e-07
-3.84428e-07
5.71639e-08
4.66629e-07
-3.7592e-07
7.28774e-08
4.97165e-07
-3.66439e-07
8.04441e-08
5.22278e-07
-3.57397e-07
8.24825e-08
5.4354e-07
-3.49465e-07
8.07371e-08
5.65162e-07
-3.43117e-07
7.58025e-08
5.88851e-07
-3.38066e-07
6.95042e-08
6.1024e-07
-3.3398e-07
6.31315e-08
6.27746e-07
-3.30441e-07
5.74669e-08
6.41402e-07
-3.27247e-07
5.29838e-08
6.52295e-07
-3.24256e-07
5.1104e-08
6.58894e-07
-3.21742e-07
5.26496e-08
6.63556e-07
-3.19101e-07
5.77638e-08
6.61364e-07
-3.17104e-07
6.33164e-08
6.65062e-07
-3.11863e-07
7.17529e-08
6.46384e-07
-3.10915e-07
7.01776e-08
6.62816e-07
-2.99806e-07
7.01928e-08
6.34224e-07
-3.01802e-07
5.17434e-08
6.79273e-07
-2.8908e-07
3.42863e-08
6.56458e-07
-2.89104e-07
5.73374e-09
7.19708e-07
-2.66169e-07
-2.75005e-08
7.23357e-07
-2.17444e-07
-8.45518e-08
7.79802e-07
-1.42837e-07
-1.05775e-07
7.45254e-07
-4.05302e-08
-1.62085e-07
6.25392e-07
5.29365e-09
-1.59838e-07
4.60686e-07
1.07124e-08
-5.24989e-07
7.11487e-07
2.52206e-08
-1.51211e-07
4.00061e-07
-2.37997e-07
1.69498e-06
-1.6378e-07
-8.47396e-07
4.53508e-06
-4.54189e-06
-1.21846e-06
9.6723e-06
-1.09494e-05
-1.4431e-06
1.34711e-05
-1.17722e-05
-9.5778e-07
1.72225e-05
-4.87748e-06
-2.75407e-06
2.15467e-05
5.55496e-06
-6.7558e-06
1.86617e-05
2.91492e-05
-5.5418e-06
1.41772e-05
-5.46838e-06
1.94686e-05
3.46907e-05
-2.78507e-05
-3.468e-06
6.07559e-06
-3.6329e-05
-4.5622e-06
6.03784e-07
-2.32251e-05
4.13188e-06
2.26801e-06
-2.16593e-05
6.42198e-07
-3.31211e-07
-7.50685e-06
-1.56985e-07
2.18354e-06
-4.65175e-06
-1.61997e-06
-1.26867e-06
2.62697e-06
3.14853e-07
-3.51446e-06
7.06406e-06
2.42479e-07
-6.03507e-06
1.1022e-05
2.56676e-07
-7.82078e-06
1.34564e-05
5.18869e-07
-9.17724e-06
1.42387e-05
9.08054e-07
-9.92232e-06
1.28011e-05
1.15792e-06
-1.06453e-05
1.10481e-05
4.28351e-07
-1.17516e-05
1.01575e-05
-4.59937e-07
-1.28509e-05
9.83802e-06
-1.52403e-06
-1.34918e-05
9.97345e-06
-2.79352e-06
-1.3537e-05
1.00651e-05
-3.69852e-06
-1.36163e-05
1.02017e-05
-3.83847e-06
-1.35703e-05
9.64146e-06
-3.48662e-06
-1.3284e-05
8.55059e-06
-2.78479e-06
-1.26488e-05
7.18675e-06
-1.98366e-06
-1.14089e-05
5.54852e-06
-1.32064e-06
-9.70558e-06
3.95188e-06
-7.74935e-07
-7.66947e-06
2.1975e-06
-4.19138e-07
-5.81098e-06
4.47676e-07
-2.03408e-07
-4.41923e-06
-1.7129e-06
4.23405e-08
-3.4469e-06
-4.64328e-06
3.06956e-07
-2.68402e-06
-8.38848e-06
5.84278e-07
-1.8913e-06
-1.25829e-05
8.40404e-07
-9.1598e-07
-1.74133e-05
1.24454e-06
5.46854e-07
-2.13681e-05
1.59994e-06
2.08695e-06
-2.18287e-05
2.24033e-06
2.76987e-06
-1.52856e-05
2.42982e-06
2.70366e-06
2.17525e-06
3.74466e-07
2.49395e-06
1.06437e-05
-1.36176e-06
1.36953e-06
1.26823e-05
-1.30341e-06
1.27441e-05
-1.14337e-06
-4.48168e-06
-4.49286e-06
-2.06098e-07
-3.65446e-06
-4.9625e-06
-8.48276e-07
-3.50924e-06
-3.96779e-06
-2.50136e-08
-2.62009e-06
-4.19333e-06
-5.24368e-07
-1.97095e-06
-3.18837e-06
8.38197e-08
-9.19325e-07
-2.77251e-06
-8.63827e-08
-2.58864e-07
-1.00957e-06
-2.87828e-08
-2.00481e-08
-4.78967e-08
-5.98903e-08
1.54783e-07
5.9722e-07
-1.18111e-07
4.51515e-09
1.16914e-06
-2.18115e-08
-2.04156e-07
1.16711e-06
-5.64667e-08
-4.02599e-07
9.53794e-07
-1.0139e-07
-5.40753e-07
7.41784e-07
-1.54538e-07
-5.79074e-07
5.17005e-07
-2.05974e-07
-5.43104e-07
3.84594e-07
-2.48318e-07
-4.60876e-07
3.36272e-07
-2.90485e-07
-3.69669e-07
3.80229e-07
-3.20208e-07
-3.01554e-07
4.66285e-07
-3.3761e-07
-2.48497e-07
5.42133e-07
-3.53906e-07
-2.011e-07
5.99691e-07
-3.66846e-07
-1.51213e-07
6.4539e-07
-3.76016e-07
-1.02843e-07
6.8696e-07
-3.77821e-07
-5.92922e-08
7.2574e-07
-3.73692e-07
-2.37986e-08
7.62035e-07
-3.65378e-07
1.85101e-10
7.97355e-07
-3.54303e-07
1.52002e-08
8.24265e-07
-3.41707e-07
2.38583e-08
8.43104e-07
-3.29085e-07
2.95363e-08
8.55453e-07
-3.1719e-07
3.28274e-08
8.68977e-07
-3.06711e-07
3.22867e-08
8.8714e-07
-2.97342e-07
2.84497e-08
9.03859e-07
-2.89379e-07
2.24911e-08
9.16856e-07
-2.8274e-07
1.52691e-08
9.26248e-07
-2.77218e-07
7.80025e-09
9.32758e-07
-2.72586e-07
1.88936e-09
9.33969e-07
-2.68754e-07
-1.56203e-09
9.32603e-07
-2.6522e-07
-4.66779e-09
9.27166e-07
-2.62251e-07
-7.59997e-09
9.25919e-07
-2.576e-07
-1.71502e-08
9.11013e-07
-2.54599e-07
-3.15362e-08
9.23322e-07
-2.45836e-07
-6.80801e-08
9.12905e-07
-2.41623e-07
-1.06203e-07
9.45384e-07
-2.27742e-07
-1.71355e-07
9.33999e-07
-2.11812e-07
-2.16667e-07
9.45149e-07
-1.79961e-07
-2.73408e-07
9.06708e-07
-1.25998e-07
-2.76032e-07
8.55819e-07
-7.34104e-08
-1.67997e-07
6.61702e-07
-2.3201e-08
8.3718e-08
4.15167e-07
-3.88216e-08
5.40165e-07
1.27735e-07
-1.14214e-07
1.1349e-06
2.96999e-07
-1.68353e-07
2.35696e-06
-4.59446e-07
-3.29469e-07
4.51421e-06
-2.0022e-06
-2.75925e-07
6.88255e-06
-6.36738e-06
-2.95545e-07
9.27849e-06
-1.20251e-05
-1.11834e-06
9.78256e-06
-8.70443e-06
-3.23084e-06
1.1543e-05
1.50076e-06
-8.33054e-06
1.72975e-05
1.14647e-05
-1.10712e-05
2.09311e-05
3.23051e-05
-6.20326e-06
2.35156e-05
-1.01027e-05
2.07131e-05
3.84425e-05
-2.13788e-05
-2.64929e-06
4.21502e-06
-3.23735e-05
-4.78418e-06
-8.13256e-06
-1.96234e-05
6.78202e-06
-1.10728e-05
-1.99292e-05
1.16887e-06
-1.00528e-05
-9.23303e-06
6.84032e-07
-1.11751e-05
-3.91816e-06
3.82656e-07
-1.2132e-05
2.6662e-06
9.21047e-07
-1.30413e-05
6.78464e-06
1.19064e-06
-1.34832e-05
1.01774e-05
1.29018e-06
-1.34063e-05
1.20783e-05
1.30947e-06
-1.32326e-05
1.28621e-05
1.2022e-06
-1.36142e-05
1.24001e-05
7.7646e-07
-1.52219e-05
1.26323e-05
3.65357e-08
-1.68518e-05
1.27741e-05
-9.60262e-07
-1.82564e-05
1.33544e-05
-2.09236e-06
-1.92145e-05
1.41317e-05
-3.19583e-06
-1.95483e-05
1.40403e-05
-3.67482e-06
-1.94708e-05
1.35452e-05
-3.48176e-06
-1.93923e-05
1.21281e-05
-2.61326e-06
-1.89e-05
9.82636e-06
-1.8066e-06
-1.78035e-05
7.13221e-06
-1.07031e-06
-1.56887e-05
4.0579e-06
-6.41569e-07
-1.27427e-05
1.28808e-06
-2.91769e-07
-9.39904e-06
-1.09723e-06
-5.39161e-08
-6.56884e-06
-2.70828e-06
3.2318e-07
-4.37433e-06
-4.52155e-06
6.11897e-07
-2.84004e-06
-7.13426e-06
9.55554e-07
-2.02604e-06
-1.03734e-05
1.16997e-06
-1.82542e-06
-1.41079e-05
1.32364e-06
-1.91213e-06
-1.88907e-05
1.56357e-06
-1.7054e-06
-2.34837e-05
1.90818e-06
-1.52951e-06
-2.46873e-05
2.68184e-06
-1.17042e-06
-1.83813e-05
2.73566e-06
4.38045e-08
2.32456e-07
7.28385e-07
5.90087e-07
1.11171e-05
-1.01974e-06
5.40663e-07
1.39662e-05
-1.23448e-06
1.40693e-05
-7.84525e-07
-4.87947e-06
-3.94856e-06
-1.95647e-07
-4.0264e-06
-4.52822e-06
-1.28514e-06
-3.984e-06
-3.61623e-06
-3.87456e-07
-3.00348e-06
-4.01987e-06
-1.14771e-06
-2.47796e-06
-3.27936e-06
-4.26084e-07
-1.36153e-06
-3.26173e-06
-6.17562e-07
-4.92018e-07
-1.56328e-06
-3.07241e-07
-6.2199e-08
-2.58084e-07
-2.12879e-07
2.62561e-07
5.17587e-07
-2.40163e-07
2.06352e-07
1.27898e-06
-5.07552e-08
-2.2572e-09
1.43595e-06
-5.93924e-08
-2.55735e-07
1.28353e-06
-7.594e-08
-3.92307e-07
1.00188e-06
-1.23382e-07
-4.25022e-07
7.32379e-07
-1.8271e-07
-3.98282e-07
5.99935e-07
-2.42167e-07
-3.4146e-07
5.70816e-07
-2.91435e-07
-2.74974e-07
6.32991e-07
-3.19334e-07
-2.31359e-07
7.47321e-07
-3.24762e-07
-2.08308e-07
8.47529e-07
-3.28575e-07
-1.95718e-07
9.19523e-07
-3.32577e-07
-1.8303e-07
9.69229e-07
-3.36683e-07
-1.69339e-07
1.00912e-06
-3.36012e-07
-1.54537e-07
1.04118e-06
-3.30395e-07
-1.41928e-07
1.06979e-06
-3.20525e-07
-1.35625e-07
1.09688e-06
-3.05981e-07
-1.30846e-07
1.11219e-06
-2.92836e-07
-1.25763e-07
1.11884e-06
-2.80927e-07
-1.18153e-07
1.11883e-06
-2.71089e-07
-1.11054e-07
1.12348e-06
-2.61697e-07
-1.07363e-07
1.13617e-06
-2.52822e-07
-1.07804e-07
1.14893e-06
-2.4473e-07
-1.115e-07
1.15813e-06
-2.37686e-07
-1.18135e-07
1.16446e-06
-2.3167e-07
-1.27624e-07
1.16852e-06
-2.26376e-07
-1.38189e-07
1.16632e-06
-2.21873e-07
-1.48844e-07
1.16045e-06
-2.17293e-07
-1.64214e-07
1.15389e-06
-2.11408e-07
-1.81388e-07
1.14815e-06
-2.05172e-07
-2.14433e-07
1.14095e-06
-1.96871e-07
-2.4743e-07
1.14535e-06
-1.89177e-07
-3.11753e-07
1.15353e-06
-1.76197e-07
-3.53584e-07
1.1544e-06
-1.67378e-07
-4.22386e-07
1.14982e-06
-1.46833e-07
-4.44267e-07
1.09485e-06
-1.28093e-07
-4.75145e-07
1.03693e-06
-9.90906e-08
-4.13216e-07
8.79607e-07
-8.60892e-08
-1.7146e-07
5.64374e-07
-1.43459e-07
3.54193e-07
1.25312e-07
-2.3341e-07
1.13973e-06
-2.52456e-07
-3.97022e-07
2.42978e-06
-5.98129e-07
-3.77562e-07
3.83573e-06
-1.38916e-06
-4.31746e-07
5.22075e-06
-3.26108e-06
-6.29667e-08
5.90141e-06
-6.20521e-06
-5.44286e-07
3.72872e-06
-6.83298e-06
-2.88368e-06
2.58221e-06
-9.42125e-07
-6.40782e-06
5.34346e-06
8.70551e-06
-1.00432e-05
1.84994e-05
1.36253e-05
-1.49559e-05
3.00803e-05
2.58545e-05
-4.91658e-06
3.04248e-05
-1.1228e-05
2.43945e-05
3.86556e-05
-1.29078e-05
-1.83337e-06
-4.18945e-06
-2.21875e-05
-4.77662e-06
-1.64562e-05
-1.42177e-05
6.15205e-06
-2.11768e-05
-1.62924e-05
1.02471e-06
-2.10963e-05
-1.03559e-05
9.86845e-07
-2.24684e-05
-3.70641e-06
1.10484e-06
-2.22084e-05
1.05652e-06
1.25881e-06
-2.21902e-05
5.4003e-06
1.23429e-06
-2.18663e-05
8.69332e-06
1.23166e-06
-2.17629e-05
1.11987e-05
9.14855e-07
-2.22969e-05
1.29489e-05
4.48321e-07
-2.36257e-05
1.38295e-05
-7.33847e-08
-2.52082e-05
1.49534e-05
-7.61372e-07
-2.66855e-05
1.57396e-05
-1.50119e-06
-2.70618e-05
1.60536e-05
-2.29051e-06
-2.64856e-05
1.64808e-05
-2.96051e-06
-2.59792e-05
1.63421e-05
-2.89183e-06
-2.53876e-05
1.51082e-05
-2.22603e-06
-2.55574e-05
1.344e-05
-1.18539e-06
-2.51937e-05
1.03988e-05
-1.02179e-06
-2.39604e-05
6.68606e-06
-9.07629e-07
-2.11406e-05
2.15935e-06
-1.00833e-06
-1.6735e-05
-2.18782e-06
-1.01671e-06
-1.17673e-05
-5.3323e-06
-8.14275e-07
-7.12822e-06
-7.29607e-06
-9.6759e-08
-3.17124e-06
-8.87e-06
3.56883e-07
-7.6124e-07
-1.06175e-05
1.03753e-06
3.18518e-07
-1.30877e-05
1.61083e-06
2.51501e-07
-1.61327e-05
2.07378e-06
-1.18586e-06
-1.98692e-05
2.4036e-06
-3.06381e-06
-2.42954e-05
2.68613e-06
-3.91261e-06
-2.63237e-05
2.48355e-06
-4.27102e-06
-2.15097e-05
3.48917e-06
-2.34059e-06
-3.29623e-06
1.59876e-06
-1.71571e-07
9.49087e-06
-5.45079e-07
3.54778e-07
1.43678e-05
-9.32216e-07
1.50087e-05
-5.88761e-07
-5.13042e-06
-3.2995e-06
3.21779e-07
-4.47511e-06
-4.05037e-06
-1.13279e-06
-4.69446e-06
-2.99822e-06
-3.93287e-07
-3.58795e-06
-3.76436e-06
-1.35628e-06
-2.90762e-06
-3.16486e-06
-7.85969e-07
-1.60594e-06
-3.38266e-06
-1.17019e-06
-5.97763e-07
-1.91851e-06
-6.4269e-07
-8.79531e-08
-4.68436e-07
-2.91242e-07
2.28527e-07
5.72967e-07
-3.66214e-07
2.64486e-07
1.30262e-06
-5.57153e-08
2.09124e-07
1.56189e-06
-6.88943e-08
8.30156e-08
1.4869e-06
-7.67152e-08
3.90995e-08
1.24431e-06
-1.98206e-07
2.08998e-08
1.02959e-06
-2.78848e-07
-5.22255e-09
9.67041e-07
-3.40757e-07
-5.40382e-08
1.00727e-06
-3.87479e-07
-1.08578e-07
1.11414e-06
-4.2643e-07
-1.58349e-07
1.24426e-06
-4.47004e-07
-2.06219e-07
1.35859e-06
-4.63027e-07
-2.54734e-07
1.44243e-06
-4.74216e-07
-2.84677e-07
1.48098e-06
-4.81681e-07
-3.0045e-07
1.50962e-06
-4.84635e-07
-3.07541e-07
1.53245e-06
-4.84138e-07
-3.08739e-07
1.55197e-06
-4.80985e-07
-3.05013e-07
1.56901e-06
-4.75929e-07
-2.99381e-07
1.57748e-06
-4.71056e-07
-2.90501e-07
1.57743e-06
-4.6765e-07
-2.76045e-07
1.56989e-06
-4.65734e-07
-2.61903e-07
1.57122e-06
-4.62118e-07
-2.55091e-07
1.58676e-06
-4.5764e-07
-2.55599e-07
1.60295e-06
-4.53764e-07
-2.61234e-07
1.6145e-06
-4.5098e-07
-2.7133e-07
1.62307e-06
-4.4878e-07
-2.85603e-07
1.62933e-06
-4.46795e-07
-3.01253e-07
1.62747e-06
-4.45781e-07
-3.18665e-07
1.62185e-06
-4.44282e-07
-3.43918e-07
1.61994e-06
-4.4108e-07
-3.73277e-07
1.61551e-06
-4.38374e-07
-4.19958e-07
1.61927e-06
-4.31906e-07
-4.57223e-07
1.6127e-06
-4.30556e-07
-5.25205e-07
1.63891e-06
-4.17605e-07
-5.56842e-07
1.60489e-06
-4.19395e-07
-6.12772e-07
1.60951e-06
-4.03849e-07
-6.03668e-07
1.49242e-06
-4.07281e-07
-5.73684e-07
1.42442e-06
-4.17428e-07
-4.15529e-07
1.19293e-06
-4.72107e-07
-3.55173e-08
8.30985e-07
-6.45348e-07
6.85941e-07
1.68841e-07
-7.60692e-07
1.68755e-06
-3.94601e-07
-8.40849e-07
3.44828e-06
-1.74535e-06
-5.85016e-07
5.59834e-06
-3.1425e-06
-3.4626e-07
7.34825e-06
-4.39167e-06
-5.45995e-07
6.15467e-06
-2.25835e-06
-2.45795e-06
1.53209e-06
4.29208e-06
-6.27912e-06
-6.78599e-07
1.10202e-05
-9.65258e-06
4.00573e-06
2.00345e-05
-1.62207e-05
1.97805e-05
2.07597e-05
-2.29027e-05
3.6618e-05
2.22627e-05
-1.31681e-05
3.53424e-05
-9.23531e-06
2.7243e-05
3.9317e-05
-1.50304e-06
-2.48745e-06
-1.67239e-05
-1.89141e-06
-4.99897e-06
-2.85319e-05
-8.71019e-06
5.95183e-06
-3.78842e-05
-7.06023e-06
2.28264e-07
-4.13949e-05
-6.75309e-06
-1.42832e-07
-4.30158e-05
-2.41026e-06
1.75565e-07
-4.2732e-05
3.34752e-07
3.24475e-07
-4.25215e-05
4.2038e-06
8.34668e-07
-4.16331e-05
6.84743e-06
6.91388e-07
-4.10367e-05
9.68974e-06
7.60374e-07
-4.02517e-05
1.16974e-05
5.50416e-07
-3.97842e-05
1.32262e-05
3.77779e-07
-3.88928e-05
1.42111e-05
-3.79203e-08
-3.87358e-05
1.60241e-05
-4.72904e-07
-3.83112e-05
1.66916e-05
-9.25335e-07
-3.62815e-05
1.63712e-05
-1.73633e-06
-3.50005e-05
1.67086e-05
-1.55601e-06
-3.53706e-05
1.65109e-05
-1.01136e-06
-3.60164e-05
1.5376e-05
-1.28615e-06
-3.55263e-05
1.2735e-05
-2.82761e-06
-3.34355e-05
8.34179e-06
-3.95469e-06
-2.91473e-05
2.85155e-06
-5.37408e-06
-2.26508e-05
-2.87339e-06
-6.16161e-06
-1.47193e-05
-7.76632e-06
-5.87293e-06
-6.64913e-06
-1.10307e-05
-4.70052e-06
8.78967e-07
-1.35417e-05
-3.19273e-06
5.67037e-06
-1.49896e-05
-6.09189e-07
7.23354e-06
-1.5517e-05
6.98249e-07
5.97297e-06
-1.62944e-05
1.24598e-06
2.51643e-06
-1.81804e-05
1.59783e-06
-1.64108e-06
-2.19229e-05
1.62606e-06
-5.93601e-06
-2.39951e-05
1.82037e-06
-8.94512e-06
-2.08793e-05
2.31042e-06
-7.77972e-06
-7.59008e-06
3.10926e-06
-4.75698e-06
6.54061e-06
-1.83478e-07
-2.06689e-06
1.15188e-05
7.78507e-08
1.17335e-05
1.1675e-06
-4.58448e-06
-4.7315e-07
1.82195e-06
-4.37115e-06
-3.36764e-06
-8.9962e-07
-5.14935e-06
-2.03985e-06
-1.7692e-07
-4.07313e-06
-3.5324e-06
-1.30415e-06
-3.37845e-06
-2.88563e-06
-9.66065e-07
-1.93617e-06
-3.25018e-06
-1.56369e-06
-7.75067e-07
-2.09455e-06
-9.73715e-07
-1.34348e-07
-8.44004e-07
-2.55316e-07
1.55874e-07
5.03311e-07
-2.14236e-07
2.40559e-07
1.05022e-06
1.716e-07
3.7782e-07
1.28324e-06
1.43335e-07
4.39622e-07
1.18752e-06
2.38219e-07
4.34532e-07
1.08824e-06
1.61909e-07
3.68697e-07
9.41484e-07
1.5435e-07
2.59877e-07