/*--------------------------------*- C++ -*----------------------------------*\
| =========                 |                                                 |
| \\      /  F ield         | OpenFOAM: The Open Source CFD Toolbox           |
|  \\    /   O peration     | Version:  2.3.0                                 |
|   \\  /    A nd           | Web:      www.OpenFOAM.org                      |
|    \\/     M anipulation  |                                                 |
\*---------------------------------------------------------------------------*/
FoamFile
{
    version     2.0;
    format      ascii;
    class       surfaceScalarField;
    location    "41";
    object      phi.water;
}
// * * * * * * * * * * * * * * * * * * * * * * * * * * * * * * * * * * * * * //

dimensions      [0 3 -1 0 0 0 0];

internalField   nonuniform List<scalar> 
16448
(
-1.31955e-06
-2.57802e-06
5.66677e-07
5.58031e-07
-2.63375e-06
7.60797e-07
5.41117e-07
-1.17219e-06
1.19357e-06
4.41266e-07
-9.94956e-07
1.09965e-06
7.36806e-08
-5.40909e-07
9.17178e-07
-5.4879e-08
-7.15563e-07
8.53696e-07
-1.01387e-07
-6.75569e-07
7.29547e-07
-1.0799e-07
-6.25255e-07
6.3784e-07
-1.86729e-07
-4.68026e-07
5.50764e-07
-3.50131e-07
-3.32432e-07
4.9712e-07
-5.29624e-07
-2.55792e-07
4.35886e-07
-5.99233e-07
-2.73598e-07
3.43525e-07
-5.63228e-07
-3.16874e-07
2.81303e-07
-4.37284e-07
-3.61517e-07
2.35893e-07
-2.96597e-07
-3.79218e-07
2.38924e-07
-1.49756e-07
-4.01523e-07
2.54993e-07
-2.42767e-08
-4.13771e-07
2.88648e-07
7.93729e-08
-4.2721e-07
3.23876e-07
1.53929e-07
-4.37504e-07
3.63272e-07
1.98612e-07
-4.43619e-07
3.99233e-07
2.14534e-07
-4.4623e-07
4.30609e-07
2.11714e-07
-4.49636e-07
4.52731e-07
1.98177e-07
-4.48529e-07
4.62348e-07
1.79334e-07
-4.42716e-07
4.61825e-07
1.5896e-07
-4.32366e-07
4.5302e-07
1.40315e-07
-4.1899e-07
4.37904e-07
1.26938e-07
-4.06252e-07
4.19916e-07
1.20587e-07
-3.94725e-07
4.01349e-07
1.20011e-07
-3.82854e-07
3.83723e-07
1.21072e-07
-3.69595e-07
3.68811e-07
1.20873e-07
-3.55262e-07
3.55762e-07
1.19607e-07
-3.40793e-07
3.4234e-07
1.19619e-07
-3.2667e-07
3.26967e-07
1.24565e-07
-3.13572e-07
3.08915e-07
1.38551e-07
-3.02232e-07
2.88567e-07
1.64016e-07
-2.92925e-07
2.67758e-07
1.99191e-07
-2.84909e-07
2.50067e-07
2.36171e-07
-2.7758e-07
2.40906e-07
2.59952e-07
-2.68857e-07
2.45422e-07
2.43905e-07
-2.54835e-07
2.71205e-07
1.4433e-07
-2.28719e-07
3.28675e-07
-7.5167e-08
-2.08231e-07
4.28001e-07
-3.48538e-07
-2.46711e-07
5.23725e-07
-4.64397e-07
-4.51404e-07
5.82407e-07
-3.70765e-07
-6.39397e-07
5.72515e-07
-5.17382e-07
-3.51592e-07
5.30041e-07
-1.43383e-06
3.4899e-07
6.3366e-07
-2.5728e-06
-3.70137e-07
1.68978e-06
6.51435e-07
-7.7086e-06
4.59325e-06
5.6565e-06
-1.25453e-05
7.5123e-06
8.42473e-06
-1.20309e-05
9.2244e-06
1.02877e-05
-1.1759e-05
9.81373e-06
1.29053e-05
-1.24716e-05
9.76702e-06
1.58952e-05
-1.09737e-05
7.878e-06
1.68901e-05
-6.07516e-06
5.14821e-06
1.87634e-05
-5.14333e-06
3.07291e-06
1.49577e-05
3.22958e-06
9.61958e-07
1.67541e-05
-1.72807e-06
-1.26878e-06
4.70983e-06
1.67975e-05
5.2963e-06
3.03383e-05
-6.33645e-06
2.55641e-06
1.74534e-05
-1.93786e-05
2.93009e-06
1.91726e-05
-8.05313e-06
5.22352e-06
1.67527e-05
-1.98705e-06
4.40534e-06
1.75626e-05
-4.28385e-06
3.47395e-06
1.79834e-05
-2.88316e-06
2.46241e-06
1.84875e-05
-2.48677e-06
1.98261e-06
1.89744e-05
-3.07202e-06
2.58518e-06
1.70822e-05
-1.71766e-06
3.60985e-06
1.3358e-05
-8.72974e-07
4.59716e-06
9.38639e-06
-9.75573e-07
4.94718e-06
6.7208e-06
-1.97873e-06
4.64431e-06
3.57129e-06
-9.14057e-07
4.06357e-06
6.0144e-07
-5.13457e-07
3.4833e-06
-1.9867e-06
-2.0561e-07
2.79375e-06
-7.1939e-06
2.45369e-06
2.75352e-06
-1.31991e-05
4.25109e-06
1.75408e-06
-1.61867e-05
1.93558e-06
1.052e-06
-1.66874e-05
-9.92659e-07
1.49335e-06
-1.60764e-05
-3.06657e-06
2.45559e-06
-1.50011e-05
-3.74149e-06
2.66618e-06
-1.42585e-05
-3.69431e-06
2.95179e-06
-1.28795e-05
-4.23825e-06
2.85925e-06
-1.05763e-05
-3.03224e-06
7.29032e-07
-8.06022e-06
-1.12936e-06
-1.38674e-06
-5.62789e-06
-7.94485e-08
-2.35288e-06
-2.86402e-06
2.11553e-07
-2.97542e-06
2.94719e-08
2.14288e-07
-3.10778e-06
2.52012e-06
4.69202e-07
-2.95985e-06
4.56438e-06
1.1694e-06
-3.21366e-06
6.85722e-06
1.29421e-06
-3.58705e-06
8.90104e-06
1.44344e-06
-3.48726e-06
1.00218e-05
9.53375e-07
-2.07415e-06
1.03062e-05
7.76186e-07
-1.06055e-06
9.24275e-06
6.68619e-07
3.94808e-07
6.54255e-06
1.97292e-07
2.50291e-06
1.04249e-06
5.50006e-06
-1.99769e-06
-3.71342e-06
-1.76347e-07
-5.53372e-07
-3.94318e-06
-1.25741e-07
-2.08679e-07
-2.20252e-06
6.93324e-07
2.14758e-07
-1.86208e-06
4.51006e-07
2.38462e-07
-8.50371e-07
2.93973e-07
6.11716e-08
-8.07423e-07
2.7624e-07
-1.20104e-07
-6.41063e-07
1.5322e-07
-2.38684e-07
-5.97533e-07
9.62219e-08
-3.80675e-07
-3.96992e-07
7.4321e-08
-5.6377e-07
-2.49519e-07
1.0098e-07
-7.2465e-07
-1.70023e-07
7.54317e-08
-7.67179e-07
-2.33804e-07
2.67119e-09
-7.22758e-07
-2.99716e-07
-6.14414e-08
-6.0013e-07
-3.74823e-07
-1.09257e-07
-4.54207e-07
-4.05095e-07
-1.19926e-07
-2.9575e-07
-4.41097e-07
-1.18841e-07
-1.536e-07
-4.57338e-07
-9.85119e-08
-3.18868e-08
-4.73643e-07
-7.52518e-08
6.25584e-08
-4.83968e-07
-4.79574e-08
1.28441e-07
-4.86976e-07
-2.25356e-08
1.64135e-07
-4.83041e-07
1.06831e-09
1.78015e-07
-4.75898e-07
1.2343e-08
1.77671e-07
-4.65138e-07
1.69149e-08
1.68673e-07
-4.49841e-07
1.60829e-08
1.55121e-07
-4.30104e-07
1.12318e-08
1.4032e-07
-4.08017e-07
3.75766e-09
1.28566e-07
-3.86545e-07
-8.02955e-09
1.21884e-07
-3.66299e-07
-2.17954e-08
1.18812e-07
-3.45356e-07
-3.44725e-08
1.16498e-07
-3.21698e-07
-4.56128e-08
1.14011e-07
-2.96674e-07
-5.61302e-08
1.12954e-07
-2.72741e-07
-6.7005e-08
1.14962e-07
-2.50098e-07
-7.85913e-08
1.21796e-07
-2.2959e-07
-9.08081e-08
1.35155e-07
-2.12201e-07
-1.03379e-07
1.55899e-07
-1.98694e-07
-1.14935e-07
1.81753e-07
-1.88139e-07
-1.22579e-07
2.05108e-07
-1.77594e-07
-1.23266e-07
2.09546e-07
-1.61949e-07
-1.11264e-07
1.68016e-07
-1.33015e-07
-8.01701e-08
3.79972e-08
-7.46969e-08
-2.39035e-08
-2.06762e-07
-5.08845e-09
4.19623e-08
-4.78529e-07
-3.52479e-08
6.50089e-08
-5.95108e-07
-3.36056e-07
1.93157e-08
-5.85249e-07
-5.87428e-07
-2.79587e-08
-5.53609e-07
-1.78142e-07
-1.50623e-07
-5.65868e-07
6.06141e-07
-1.46169e-07
8.0366e-07
-2.30032e-06
8.01903e-07
4.07621e-07
-1.22879e-05
5.09202e-06
-4.91582e-06
-1.65657e-05
9.33832e-06
-1.00806e-05
-1.69887e-05
1.0101e-05
-1.19076e-05
-1.99655e-05
9.99741e-06
-8.68388e-06
-2.26592e-05
6.94578e-06
-3.92777e-06
-1.91232e-05
3.314e-06
4.35724e-06
-1.2912e-05
-1.28853e-06
1.18259e-05
-1.01909e-05
-2.57413e-06
1.43631e-05
7.82865e-06
-6.13144e-06
1.39301e-05
2.53973e-06
-5.31695e-06
1.47134e-05
2.36263e-05
5.59654e-06
3.12508e-05
-8.53587e-06
4.95062e-06
2.67396e-06
-2.3487e-05
2.09873e-06
-9.46821e-06
-8.14428e-06
1.09692e-05
-1.35483e-05
-4.52369e-06
6.61658e-06
-1.489e-05
-4.14866e-06
1.20652e-06
-1.423e-05
-3.70724e-06
1.6412e-07
-1.32404e-05
-4.69698e-06
1.22055e-06
-1.15617e-05
-7.39543e-06
2.64472e-06
-9.23414e-06
-7.40217e-06
3.35698e-06
-6.16694e-06
-7.5612e-06
3.62104e-06
-4.04035e-06
-6.67443e-06
3.57227e-06
-3.03853e-06
-6.26254e-06
3.28199e-06
-2.97374e-06
-4.26891e-06
3.29007e-06
-3.10606e-06
-3.01039e-06
2.62924e-06
-5.16128e-06
-8.44253e-07
2.69387e-06
-8.85775e-06
2.5386e-06
3.61156e-06
-1.26011e-05
5.17474e-06
2.8197e-06
-1.47607e-05
2.4633e-06
1.63188e-06
-1.43351e-05
-3.5905e-06
2.1722e-06
-1.24739e-05
-7.23128e-06
2.30362e-06
-1.16245e-05
-6.92223e-06
2.3313e-06
-1.10189e-05
-6.654e-06
2.35407e-06
-9.99717e-06
-7.75859e-06
2.49862e-06
-7.33879e-06
-5.65695e-06
-3.36629e-08
-4.86917e-06
-1.61098e-06
-1.98799e-06
-2.25896e-06
4.34665e-07
-3.12432e-06
7.9491e-07
1.29519e-06
-4.13751e-06
3.46671e-06
2.28289e-06
-4.74039e-06
5.71256e-06
2.96593e-06
-4.74258e-06
7.20641e-06
4.4976e-06
-4.82205e-06
8.48208e-06
4.50002e-06
-4.48147e-06
9.78778e-06
3.68939e-06
-3.55165e-06
1.0672e-05
3.21531e-06
-3.14617e-06
1.05663e-05
3.04791e-06
-2.16598e-06
9.17904e-06
2.95792e-06
-9.02077e-07
5.64786e-06
1.74487e-06
1.98361e-06
1.35292e-06
5.33743e-06
-2.54317e-06
-4.08672e-06
-4.24097e-07
-1.41859e-06
-4.49857e-06
-5.59119e-07
-9.54531e-07
-2.82178e-06
1.64756e-07
-2.63398e-07
-2.47035e-06
-7.43011e-08
1.67313e-08
-1.02757e-06
-9.48732e-08
-5.98563e-08
-7.00227e-07
-2.48394e-08
-2.43007e-07
-3.32425e-07
-1.19788e-07
-3.66608e-07
-3.27853e-07
-1.41746e-07
-4.62588e-07
-1.36189e-07
-1.61645e-07
-5.29016e-07
-4.29242e-08
-1.38726e-07
-6.07798e-07
3.96683e-08
-1.29946e-07
-6.31441e-07
-3.32941e-08
-1.76485e-07
-6.27248e-07
-8.05397e-08
-2.22945e-07
-5.7743e-07
-1.59235e-07
-2.652e-07
-4.99509e-07
-1.96416e-07
-2.86382e-07
-3.96012e-07
-2.40098e-07
-3.04399e-07
-2.90526e-07
-2.57673e-07
-3.0505e-07
-1.9229e-07
-2.71814e-07
-3.00021e-07
-1.07956e-07
-2.77753e-07
-2.90502e-07
-3.72947e-08
-2.76954e-07
-2.80662e-07
1.82304e-08
-2.66397e-07
-2.72147e-07
5.7265e-08
-2.49143e-07
-2.65772e-07
8.22606e-08
-2.28594e-07
-2.61515e-07
9.66637e-08
-2.04871e-07
-2.59353e-07
1.03983e-07
-1.78875e-07
-2.58517e-07
1.07239e-07
-1.52357e-07
-2.58891e-07
1.07754e-07
-1.2662e-07
-2.60399e-07
1.05984e-07
-1.01756e-07
-2.62734e-07
1.02972e-07
-7.64178e-08
-2.65867e-07
1.00225e-07
-4.89657e-08
-2.69922e-07
9.95727e-08
-2.115e-08
-2.74781e-07
1.0177e-07
5.04768e-09
-2.79896e-07
1.04846e-07
3.15913e-08
-2.84657e-07
1.0805e-07
5.54321e-08
-2.88124e-07
1.09854e-07
7.63155e-08
-2.90188e-07
1.07963e-07
9.43717e-08
-2.91042e-07
9.81724e-08
1.11095e-07
-2.89275e-07
7.26112e-08
1.30687e-07
-2.82556e-07
1.68635e-08
1.6071e-07
-2.66707e-07
-8.10305e-08
2.05531e-07
-2.40441e-07
-2.26309e-07
2.77113e-07
-2.06269e-07
-4.29991e-07
3.7501e-07
-1.75847e-07
-6.95961e-07
4.13345e-07
-1.78217e-07
-9.96225e-07
2.40993e-07
-2.62481e-07
-1.12206e-06
6.90104e-08
-4.99665e-07
-4.98248e-07
2.2914e-07
-9.61159e-07
9.99083e-07
4.68181e-07
-1.18907e-06
7.30551e-07
-2.88141e-06
1.01798e-06
-7.62159e-06
-1.11476e-05
7.29366e-06
-1.72837e-05
-1.72566e-05
1.03129e-05
-2.2165e-05
-2.11622e-05
9.00816e-06
-2.42022e-05
-2.48997e-05
6.93428e-06
-2.18434e-05
-2.75239e-05
2.4981e-06
-1.4705e-05
-2.41671e-05
-2.09758e-06
-5.438e-06
-1.60908e-05
-5.84764e-06
-3.28893e-06
-7.53792e-06
-5.12328e-06
8.53759e-06
8.31864e-06
-1.12476e-05
8.69124e-06
7.58398e-06
-5.90298e-06
1.35234e-05
3.19166e-05
-1.26717e-06
3.26032e-05
-9.88889e-06
8.26679e-07
5.78466e-07
-2.59784e-05
5.51743e-06
-1.11617e-05
-6.47712e-06
8.78724e-06
-1.33821e-05
-8.01704e-06
5.7138e-06
-1.5035e-05
-5.15157e-06
2.65587e-06
-1.55018e-05
-7.22654e-06
3.9861e-06
-1.48879e-05
-8.1431e-06
2.83216e-06
-1.34607e-05
-9.95509e-06
1.13255e-06
-1.0368e-05
-1.01577e-05
-3.37285e-07
-6.82621e-06
-9.83721e-06
-1.26576e-06
-3.70261e-06
-7.93196e-06
-1.86607e-06
-1.43852e-06
-6.198e-06
-2.32863e-06
-6.82395e-07
-2.9952e-06
-2.02983e-06
-9.95402e-07
-4.2562e-07
-2.27176e-06
-2.05291e-06
2.44511e-06
-2.23186e-06
-3.72171e-06
4.56546e-06
-3.58059e-07
-6.51953e-06
5.68032e-06
2.29225e-06
-8.9243e-06
2.97618e-06
1.89189e-06
-9.27386e-06
-5.05769e-06
1.81676e-06
-9.07261e-06
-9.40946e-06
1.97693e-06
-8.53768e-06
-7.45449e-06
-2.67086e-09
-8.05705e-06
-6.18373e-06
-9.50895e-07
-7.20242e-06
-6.11023e-06
-2.50299e-06
-4.5649e-06
-3.95832e-06
-4.33616e-06
-2.79445e-06
6.68799e-07
-4.05023e-06
-1.31622e-06
2.46351e-06
-3.50708e-06
8.35795e-07
3.05732e-06
-3.91415e-06
3.61091e-06
4.44772e-06
-4.93995e-06
7.1992e-06
3.94763e-06
-4.57e-06
9.74633e-06
5.28463e-06
-3.33417e-06
1.19214e-05
4.16012e-06
-1.83519e-06
1.36565e-05
3.53199e-06
-1.57771e-06
1.41407e-05
4.24298e-06
-1.51188e-06
1.36375e-05
4.47609e-06
-9.2497e-07
1.16166e-05
4.9206e-06
5.82434e-08
6.63272e-06
4.92781e-06
1.80093e-06
3.68553e-06
4.30011e-06
-2.99363e-06
-4.1734e-06
-2.18143e-07
-1.89807e-06
-4.83418e-06
-7.51322e-07
-1.53696e-06
-3.2243e-06
5.11614e-08
-8.41175e-07
-3.07991e-06
-7.72119e-08
-4.28702e-07
-1.38962e-06
-4.08378e-08
-2.56075e-07
-8.22215e-07
-4.38722e-08
-2.88988e-07
-1.35926e-07
-1.57783e-07
-3.40443e-07
-1.11157e-07
-1.61019e-07
-3.65527e-07
8.15668e-08
-1.89244e-07
-3.75091e-07
1.53854e-07
-1.85484e-07
-4.10631e-07
2.80632e-07
-2.0418e-07
-4.48703e-07
2.42189e-07
-2.36779e-07
-4.98541e-07
2.33323e-07
-2.63406e-07
-5.06631e-07
1.49094e-07
-2.99863e-07
-4.82111e-07
1.01504e-07
-3.22045e-07
-4.22141e-07
5.06864e-08
-3.50442e-07
-3.43609e-07
3.26199e-08
-3.68523e-07
-2.632e-07
2.95751e-08
-3.81518e-07
-1.88946e-07
3.60114e-08
-3.87742e-07
-1.21581e-07
4.65852e-08
-3.90632e-07
-6.16486e-08
6.40111e-08
-3.90082e-07
-1.01983e-08
8.63168e-08
-3.86649e-07
3.05875e-08
1.11703e-07
-3.80838e-07
6.00652e-08
1.40242e-07
-3.74336e-07
7.86827e-08
1.71016e-07
-3.68272e-07
8.86617e-08
2.00742e-07
-3.62826e-07
9.25159e-08
2.28088e-07
-3.58335e-07
9.27793e-08
2.535e-07
-3.55278e-07
9.15165e-08
2.79194e-07
-3.54139e-07
9.00461e-08
3.074e-07
-3.54673e-07
8.82197e-08
3.36756e-07
-3.55901e-07
8.55828e-08
3.64553e-07
-3.5667e-07
8.30411e-08
3.90635e-07
-3.56333e-07
7.92776e-08
4.14421e-07
-3.55022e-07
7.17163e-08
4.36421e-07
-3.52374e-07
5.45976e-08
4.58614e-07
-3.46918e-07
1.93567e-08
4.84001e-07
-3.37487e-07
-4.21425e-08
5.1617e-07
-3.23762e-07
-1.41776e-07
5.63162e-07
-3.02614e-07
-2.81862e-07
6.22254e-07
-2.76361e-07
-4.44947e-07
6.89749e-07
-2.49217e-07
-5.94137e-07
7.5841e-07
-2.33403e-07
-7.38886e-07
7.9868e-07
-2.37248e-07
-8.81732e-07
7.16025e-07
-3.22767e-07
-7.43065e-07
5.81558e-07
-6.28986e-07
5.11517e-07
4.50545e-07
-1.42321e-06
3.19523e-06
2.14677e-07
-2.19891e-06
7.34345e-07
-1.28586e-06
9.89417e-07
-1.05913e-05
-7.94059e-06
8.25787e-06
-1.99603e-05
-1.68207e-05
8.85985e-06
-2.75028e-05
-2.16404e-05
7.98759e-06
-3.32632e-05
-2.50292e-05
5.88942e-06
-3.27795e-05
-2.82346e-05
1.9392e-07
-2.87414e-05
-2.72182e-05
-1.0339e-06
-2.50627e-05
-1.90282e-05
-7.73392e-07
-2.05264e-05
-9.90258e-06
-2.61015e-06
8.77792e-06
-5.55519e-06
-1.22349e-05
1.49985e-05
7.72873e-06
-7.31735e-06
1.7795e-05
4.85682e-05
-2.25554e-06
3.92225e-05
-9.83892e-06
-2.61889e-06
8.86832e-07
-3.1706e-05
6.66181e-06
-1.53706e-05
-1.92734e-07
9.24076e-06
-2.04002e-05
-8.79673e-06
5.80778e-06
-2.16498e-05
-5.90853e-06
2.00558e-06
-2.24891e-05
-9.63941e-06
3.25113e-06
-2.0389e-05
-1.03555e-05
1.11516e-07
-1.68519e-05
-1.11662e-05
-2.32693e-06
-1.25725e-05
-1.03197e-05
-4.1181e-06
-7.57145e-06
-9.63593e-06
-5.20295e-06
-2.51134e-06
-6.74195e-06
-6.25054e-06
8.38603e-07
-3.3732e-06
-6.175e-06
2.42435e-06
1.21829e-06
-5.79929e-06
3.08816e-06
4.41185e-06
-5.50139e-06
2.50918e-06
8.34402e-06
-5.31999e-06
8.39766e-07
1.07166e-05
-4.4816e-06
-8.34015e-07
8.84783e-06
-1.49358e-06
-2.19357e-06
3.44511e-06
8.90742e-07
-5.69801e-06
-3.59814e-06
2.04475e-06
-9.79621e-06
-5.23322e-06
-7.81516e-08
-1.12502e-05
-1.9955e-06
-4.00509e-06
-1.08707e-05
1.01773e-06
-7.58091e-06
-1.07546e-05
2.86374e-06
-9.09013e-06
-9.80754e-06
2.96286e-06
-7.86814e-06
-7.72118e-06
1.49879e-06
-2.91636e-06
-5.25749e-06
-1.25479e-06
1.25459e-06
-2.02516e-06
-2.37619e-06
2.20119e-06
2.96021e-06
-1.4944e-06
9.56752e-07
6.53539e-06
-1.02954e-06
1.40199e-06
8.36659e-06
3.29271e-06
1.60726e-07
1.15144e-05
2.93798e-06
-1.92571e-06
1.39218e-05
3.56074e-06
-2.43612e-06
1.46347e-05
5.30923e-06
-1.77917e-06
1.4677e-05
5.88607e-06
-1.45226e-06
1.30352e-05
6.66472e-06
-1.02274e-07
7.93547e-06
8.05564e-06
1.97186e-06
7.27183e-06
4.34917e-06
-3.3003e-06
-4.12217e-06
-2.89517e-09
-2.19682e-06
-5.12052e-06
-8.10236e-07
-1.94445e-06
-3.51984e-06
5.31331e-08
-1.247e-06
-3.64467e-06
-1.24351e-07
-8.44528e-07
-1.94085e-06
1.58234e-07
-4.28669e-07
-1.25907e-06
2.97671e-08
-2.75073e-07
-1.2592e-07
-1.56204e-07
-2.87382e-07
7.23732e-08
-1.66901e-07
-2.41287e-07
2.51344e-07
-2.1229e-07
-2.19364e-07
3.39272e-07
-2.05302e-07
-2.34168e-07
5.09174e-07
-2.12222e-07
-2.90743e-07
5.18221e-07
-2.18763e-07
-3.79102e-07
5.46597e-07
-2.2439e-07
-4.28403e-07
4.45198e-07
-2.46625e-07
-4.33802e-07
3.7181e-07
-2.6471e-07
-3.97968e-07
3.09847e-07
-2.94881e-07
-3.38656e-07
2.94455e-07
-3.21038e-07
-2.76868e-07
3.11865e-07
-3.44014e-07
-2.16142e-07
3.36903e-07
-3.6155e-07
-1.56865e-07
3.61998e-07
-3.74663e-07
-9.81453e-08
3.88833e-07
-3.83517e-07
-4.2268e-08
4.18069e-07
-3.87644e-07
6.26376e-09
4.50068e-07
-3.86906e-07
4.48547e-08
4.83521e-07
-3.81912e-07
7.2494e-08
5.17248e-07
-3.73899e-07
9.06056e-08
5.47637e-07
-3.65065e-07
1.01695e-07
5.73398e-07
-3.56434e-07
1.07748e-07
5.96199e-07
-3.48813e-07
1.09593e-07
6.19551e-07
-3.42227e-07
1.08e-07
6.45491e-07
-3.36544e-07
1.03747e-07
6.72476e-07
-3.31465e-07
9.68494e-08
6.98312e-07
-3.2688e-07
8.7269e-08
7.22514e-07
-3.22263e-07
7.39181e-08
7.44805e-07
-3.17019e-07
5.20488e-08
7.6806e-07
-3.09692e-07
1.24371e-08
7.9655e-07
-2.98264e-07
-5.66587e-08
8.34602e-07
-2.81366e-07
-1.6429e-07
8.83576e-07
-2.59642e-07
-3.11348e-07
9.4208e-07
-2.31627e-07
-4.81255e-07
9.92754e-07
-2.00375e-07
-6.27156e-07
1.00807e-06
-1.72029e-07
-6.80814e-07
9.69893e-07
-1.56967e-07
-6.39747e-07
9.24476e-07
-1.63985e-07
-5.49408e-07
8.75171e-07
-2.42553e-07
-1.8174e-07
7.18456e-07
-4.88749e-07
1.20058e-06
3.44735e-07
-1.23619e-06
4.76121e-06
-6.86579e-07
-2.41561e-06
2.88182e-06
6.84687e-07
8.12173e-09
-8.94106e-06
-2.06512e-06
6.1041e-06
-2.02326e-05
-1.20188e-05
6.43247e-06
-3.07744e-05
-1.83039e-05
7.1481e-06
-3.821e-05
-2.20847e-05
4.4424e-06
-3.92827e-05
-2.68822e-05
-4.56527e-07
-4.001e-05
-3.07854e-05
4.26471e-06
-3.78163e-05
-2.82061e-05
7.00827e-06
-2.78945e-05
-1.8185e-05
-1.65727e-06
-1.37966e-05
-7.34675e-06
-9.89673e-06
-1.3762e-05
1.36363e-05
-7.06014e-06
2.94076e-05
4.80552e-05
-1.64768e-05
3.63272e-05
-6.96525e-06
-1.52924e-06
-1.64646e-05
-2.48692e-05
8.89301e-06
-2.16149e-05
-2.94345e-06
7.61825e-06
-2.6706e-05
-9.0789e-06
5.35675e-06
-2.73464e-05
-6.17624e-06
8.91874e-07
-2.86446e-05
-8.52184e-06
1.64771e-07
-2.72988e-05
-8.09676e-06
-3.62239e-06
-2.51703e-05
-8.48412e-06
-4.82972e-06
-2.06375e-05
-7.64461e-06
-7.22538e-06
-1.51282e-05
-6.73234e-06
-8.42751e-06
-9.79627e-06
-3.31985e-06
-8.76406e-06
-5.82655e-06
9.80788e-07
-8.32949e-06
-3.92092e-06
6.93992e-06
-7.62947e-06
-2.24091e-06
9.82732e-06
-7.09773e-06
-9.05689e-07
1.20971e-05
-5.09047e-06
-2.44113e-06
1.25828e-05
-3.29897e-07
-4.13459e-06
9.05636e-06
1.48686e-06
-8.42345e-06
6.12261e-06
1.61103e-06
-1.57089e-05
6.19874e-06
-2.51443e-06
-2.13996e-05
6.40428e-06
-5.95013e-06
-2.30902e-05
5.6898e-06
-5.99699e-06
-2.05692e-05
5.43464e-06
-6.93913e-06
-1.81568e-05
5.05921e-06
-4.60792e-06
-1.6797e-05
2.56756e-06
-9.63625e-07
-1.58304e-05
-2.97819e-06
3.5112e-06
-1.5016e-05
-8.36027e-06
6.29086e-06
-1.37112e-05
-9.12715e-06
5.44597e-06
-9.15882e-06
-8.1203e-06
2.07336e-06
-1.67098e-06
-4.76375e-06
-3.75366e-06
5.39278e-06
2.37649e-06
-6.14754e-06
9.34004e-06
5.0766e-06
-6.08589e-06
1.05335e-05
7.30938e-06
-4.9421e-06
1.13885e-05
7.98361e-06
-3.52938e-06
1.2562e-05
8.2225e-06
-3.50991e-06
1.21586e-05
9.19577e-06
-2.1277e-06
7.92775e-06
1.16302e-05
6.5629e-07
1.22412e-05
2.95841e-06
-3.60102e-06
-3.85442e-06
2.36815e-07
-2.46635e-06
-5.3097e-06
-9.4056e-07
-2.20622e-06
-3.67005e-06
-1.00494e-07
-1.37793e-06
-4.00896e-06
-4.5556e-07
-9.60109e-07
-2.52814e-06
1.78746e-07
-4.41077e-07
-1.78061e-06
1.17358e-08
-1.91995e-07
-2.38174e-07
-1.27759e-07
-2.03212e-07
2.2328e-07
-1.34398e-07
-1.14458e-07
3.86658e-07
-2.19987e-07
-9.23581e-08
5.0282e-07
-1.82998e-07
-9.3765e-08
7.08616e-07
-1.95966e-07
-1.77445e-07
7.86839e-07
-1.83796e-07
-2.97269e-07
8.49241e-07
-1.81922e-07
-3.64419e-07
7.13476e-07
-2.00615e-07
-3.66432e-07
6.03812e-07
-2.29457e-07
-3.24968e-07
5.33899e-07
-2.65063e-07
-2.68833e-07
5.34822e-07
-2.96054e-07
-2.2386e-07
5.85565e-07
-3.18216e-07
-1.88067e-07
6.37994e-07
-3.36414e-07
-1.54588e-07
6.79784e-07
-3.50783e-07
-1.18408e-07
7.13858e-07
-3.60738e-07
-7.8656e-08
7.44086e-07
-3.65293e-07
-4.03125e-08
7.75756e-07
-3.63583e-07
-6.83811e-09
8.0777e-07
-3.57264e-07
1.73069e-08
8.41401e-07
-3.47863e-07
3.45281e-08
8.67406e-07
-3.36534e-07
4.71622e-08
8.8577e-07
-3.24583e-07
5.73517e-08
8.99521e-07
-3.13058e-07
6.45603e-08
9.15115e-07
-3.0235e-07
6.66701e-08
9.36272e-07
-2.92424e-07
6.23883e-08
9.60579e-07
-2.83383e-07
5.18009e-08
9.84703e-07
-2.75316e-07
3.45244e-08
1.00795e-06
-2.67705e-07
9.91521e-09
1.02931e-06
-2.59387e-07
-2.74999e-08
1.05408e-06
-2.4813e-07
-8.67617e-08
1.08769e-06
-2.31344e-07
-1.77794e-07
1.13421e-06
-2.08075e-07
-3.04762e-07
1.19032e-06
-1.79194e-07
-4.51091e-07
1.23674e-06
-1.47787e-07
-5.79905e-07
1.23921e-06
-1.17028e-07
-6.35776e-07
1.15808e-06
-9.34362e-08
-5.56189e-07
9.8203e-07
-9.05644e-08
-3.2968e-07
8.15926e-07
-1.1524e-07
-3.09257e-08
7.60345e-07
-1.77532e-07
3.28388e-07
7.37313e-07
-3.6621e-07
1.39895e-06
3.10034e-07
-1.01141e-06
4.70674e-06
-1.54558e-06
-2.311e-06
6.93633e-06
1.92743e-07
-1.54794e-06
-1.5027e-06
4.63855e-06
1.93125e-06
-1.3455e-05
-1.7781e-06
1.75451e-06
-2.58878e-05
-9.88721e-06
3.99303e-06
-3.77404e-05
-1.64532e-05
6.18924e-06
-4.55389e-05
-2.44781e-05
5.41948e-06
-5.20276e-05
-3.09048e-05
6.56851e-06
-5.5585e-05
-2.87758e-05
4.00144e-06
-5.37077e-05
-1.89169e-05
-9.98823e-07
-5.56382e-05
-3.57745e-06
-6.06642e-07
-4.42613e-05
9.28501e-06
-9.19383e-06
3.72017e-05
2.83532e-05
-3.11227e-05
3.85497e-05
-3.34807e-06
-2.33487e-06
-1.91303e-05
-1.53586e-05
9.51778e-06
-2.61172e-05
-3.23283e-06
6.70737e-06
-3.50494e-05
-4.92634e-06
4.75051e-06
-3.88542e-05
-2.82211e-06
4.29843e-07
-4.17926e-05
-3.47803e-06
-2.15361e-06
-4.16159e-05
-3.27595e-06
-5.05944e-06
-4.03238e-05
-3.54618e-06
-6.30502e-06
-3.54202e-05
-4.69724e-06
-7.93333e-06
-2.8529e-05
-5.93249e-06
-7.77882e-06
-1.94523e-05
-5.78957e-06
-6.68835e-06
-1.18967e-05
-4.77745e-06
-1.85496e-06
-8.4938e-06
1.55549e-06
1.96678e-06
-9.85496e-06
7.87199e-06
3.31885e-06
-1.34939e-05
1.14045e-05
4.34069e-06
-1.87975e-05
1.45456e-05
3.35809e-06
-2.41453e-05
1.39595e-05
4.58175e-07
-2.77452e-05
1.18062e-05
-2.0993e-06
-2.97561e-05
1.10273e-05
-2.8436e-06
-2.88343e-05
8.88337e-06
-3.4246e-06
-2.66965e-05
6.35192e-06
-2.82635e-06
-2.39832e-05
4.58973e-06
-1.88731e-06
-2.17711e-05
3.32604e-06
-4.88835e-07
-2.22947e-05
3.2774e-07
2.76289e-06
-2.52194e-05
-3.20203e-06
3.14121e-06
-2.62222e-05
-7.72701e-06
3.50857e-07
-2.43885e-05
-1.00788e-05
-9.00255e-07
-1.96259e-05
-1.12618e-05
-1.63769e-06
-1.16614e-05
-9.96612e-06
-2.7743e-06
-1.12962e-06
-4.20113e-06
-3.95967e-06
5.69162e-06
2.11616e-06
-3.86079e-06
7.04977e-06
6.30939e-06
-3.58061e-07
7.61315e-06
7.83748e-06
-4.17247e-07
8.90139e-06
9.879e-06
-2.94474e-06
9.25639e-06
1.08053e-05
-1.96453e-06
6.40093e-06
1.37107e-05
7.7498e-07
1.60453e-05
2.59681e-06
-3.77211e-06
-3.31083e-06
4.99311e-07
-2.67259e-06
-5.16142e-06
-1.24531e-06
-2.44683e-06
-3.53552e-06
-3.52282e-07
-1.40567e-06
-4.07219e-06
-9.69033e-07
-8.23113e-07
-2.89928e-06
-2.02049e-07
-3.26871e-07
-2.03603e-06
-2.33388e-07
-1.32035e-07
-2.29717e-07
-1.93897e-07
-1.87231e-07
4.32612e-07
-1.46671e-07
-5.98902e-08
5.35527e-07
-2.72106e-07
-3.00056e-08
6.75161e-07
-1.99873e-07
-1.46548e-08
8.95246e-07
-2.0002e-07
-8.96418e-08
1.01397e-06
-1.51329e-07
-1.93525e-07
1.09846e-06
-1.44838e-07
-2.45969e-07
9.40149e-07
-1.74314e-07
-2.43835e-07
8.27231e-07
-2.25588e-07
-2.11479e-07
7.67861e-07
-2.66479e-07
-1.76077e-07
7.95094e-07
-2.9579e-07
-1.55612e-07
8.72968e-07
-3.08051e-07
-1.49442e-07
9.47272e-07
-3.15623e-07
-1.49003e-07
1.00101e-06
-3.21894e-07
-1.48344e-07
1.03934e-06
-3.2637e-07
-1.42775e-07
1.06647e-06
-3.28206e-07
-1.33113e-07
1.09074e-06
-3.24878e-07
-1.22363e-07
1.11385e-06
-3.17088e-07
-1.16249e-07
1.13896e-06
-3.03906e-07
-1.12006e-07
1.1542e-06
-2.91279e-07
-1.05021e-07
1.15865e-06
-2.80049e-07
-9.46847e-08
1.15906e-06
-2.70065e-07
-8.40233e-08
1.16472e-06
-2.60412e-07
-7.87626e-08
1.18181e-06
-2.50959e-07
-8.24738e-08
1.20595e-06
-2.41781e-07
-9.62195e-08
1.23148e-06
-2.33175e-07
-1.2104e-07
1.25684e-06
-2.24148e-07
-1.55424e-07
1.27753e-06
-2.13915e-07
-2.0219e-07
1.30158e-06
-2.00735e-07
-2.65052e-07
1.33386e-06
-1.8328e-07
-3.43753e-07
1.37533e-06
-1.6229e-07
-4.30414e-07
1.417e-06
-1.39864e-07
-5.00176e-07
1.43001e-06
-1.23264e-07
-5.18294e-07
1.37151e-06
-1.13953e-07
-4.51456e-07
1.20979e-06
-1.18226e-07
-2.68496e-07
9.35407e-07
-1.35582e-07
2.51362e-08
6.73581e-07
-1.49418e-07
3.48936e-07
6.08509e-07
-1.66563e-07
6.8262e-07
7.32977e-07
-3.17434e-07
1.60005e-06
2.87515e-07
-8.60458e-07
3.90688e-06
-1.80052e-06
-1.99316e-06
9.06211e-06
-2.6443e-06
-2.08435e-06
9.84866e-06
4.61955e-06
-5.36738e-07
1.5712e-06
6.03111e-06
7.54752e-07
-1.01864e-05
-7.58876e-07
2.64331e-06
-2.44677e-05
-6.51176e-06
4.22904e-06
-3.96044e-05
-1.30457e-05
3.69055e-06
-5.25868e-05
-2.33564e-05
5.36682e-06
-5.93307e-05
-2.68142e-05
4.65849e-06
-6.04384e-05
-2.07529e-05
3.18302e-06
-5.85473e-05
-1.01071e-05
5.71475e-06
-4.17e-05
-4.60102e-06
-6.0772e-06
3.86849e-05
7.80369e-06
-2.74105e-05
4.06708e-05
-2.26323e-06
-1.15569e-06
-1.82788e-05
-7.1119e-06
1.03258e-05
-2.92763e-05
8.47047e-07
6.01542e-06
-4.04133e-05
1.95963e-06
4.27287e-06
-4.59011e-05
3.33246e-06
-6.50011e-07
-4.91439e-05
3.3163e-06
-3.62451e-06
-4.92954e-05
3.02186e-06
-6.23301e-06
-4.84146e-05
1.83675e-06
-6.39922e-06
-4.41084e-05
-1.28134e-06
-7.88235e-06
-3.97381e-05
-5.10611e-06
-5.3821e-06
-3.53554e-05
-7.48466e-06
-2.84129e-06
-3.07797e-05
-8.52392e-06
-9.4335e-07
-2.41006e-05
-4.46638e-06
-7.39273e-07
-2.19895e-05
4.96707e-06
7.61351e-07
-2.45677e-05
1.18707e-05
2.12143e-06
-2.71143e-05
1.49948e-05
2.10831e-06
-2.89825e-05
1.4409e-05
1.4282e-06
-3.01561e-05
1.21813e-05
7.92654e-07
-2.96003e-05
1.02905e-05
1.65811e-07
-2.92385e-05
7.79208e-06
7.05827e-07
-3.03286e-05
5.43301e-06
1.99371e-06
-3.08452e-05
3.38578e-06
1.70873e-06
-3.03015e-05
7.21979e-07
2.06038e-06
-2.97067e-05
-2.01538e-06
1.73474e-06
-2.98217e-05
-4.55168e-06
1.40965e-06
-3.07105e-05
-8.59556e-06
1.67692e-06
-3.09914e-05
-1.19031e-05
1.99843e-06
-3.04314e-05
-1.38023e-05
1.84929e-06
-2.72835e-05
-1.45564e-05
1.28086e-06
-1.914e-05
-1.26889e-05
1.74015e-07
-9.9251e-06
-7.21089e-06
-1.65451e-08
-4.08182e-06
-1.98806e-06
2.39911e-06
5.25116e-07
3.4081e-06
-1.88332e-07
4.92827e-06
8.59501e-06
-3.12273e-06
6.6776e-06
1.19666e-05
-2.91591e-06
4.23607e-06
1.67921e-05
-6.41987e-07
1.94369e-05
8.43678e-07
-3.6728e-06
-2.57034e-06
1.08328e-06
-2.90346e-06
-4.90839e-06
-1.022e-06
-2.85901e-06
-3.2599e-06
-3.1371e-07
-1.74112e-06
-4.11408e-06
-1.06616e-06
-8.84614e-07
-3.29972e-06
-4.44812e-07
-1.99626e-07
-2.30954e-06
-4.04838e-07
-5.0814e-08
-1.33441e-07
-2.3581e-07
-1.18567e-07
6.09832e-07
-1.00084e-07
-2.80593e-08
8.21461e-07
-3.7116e-07
-6.47147e-08
9.59214e-07
-2.44604e-07
-1.52928e-08
1.11507e-06
-2.6682e-07
-1.45214e-08
1.24517e-06
-2.3108e-07
-2.82077e-09
1.33539e-06
-2.47802e-07
1.03583e-08
1.22445e-06
-2.97429e-07
1.32058e-08
1.17686e-06
-3.52116e-07
-1.43658e-08
1.18471e-06
-3.89118e-07
-5.74094e-08
1.2577e-06
-4.19312e-07
-1.03211e-07
1.3553e-06
-4.36346e-07
-1.49113e-07
1.44369e-06
-4.50306e-07
-1.95865e-07
1.51054e-06
-4.62574e-07
-2.36838e-07
1.55144e-06
-4.70943e-07
-2.63093e-07
1.56981e-06
-4.76949e-07
-2.77801e-07
1.58465e-06
-4.79126e-07
-2.83886e-07
1.59842e-06
-4.78444e-07
-2.81571e-07
1.61207e-06
-4.75475e-07
-2.75492e-07
1.61922e-06
-4.71189e-07
-2.66471e-07
1.61758e-06
-4.68114e-07
-2.5306e-07
1.61148e-06
-4.66001e-07
-2.38823e-07
1.61234e-06
-4.62058e-07
-2.33206e-07
1.63148e-06
-4.55463e-07
-2.40628e-07
1.66094e-06
-4.47747e-07
-2.60974e-07
1.6909e-06
-4.39213e-07
-2.95076e-07
1.71991e-06
-4.29097e-07
-3.38879e-07
1.73988e-06
-4.18653e-07
-3.92556e-07
1.76146e-06
-4.06309e-07
-4.54635e-07
1.78774e-06
-3.91873e-07
-5.1301e-07
1.81044e-06
-3.76816e-07
-5.50116e-07
1.81788e-06
-3.63846e-07
-5.53806e-07
1.7928e-06
-3.59102e-07
-4.93396e-07
1.68372e-06
-3.72557e-07
-3.53304e-07
1.47806e-06
-4.08181e-07
-1.27373e-07
1.16667e-06
-4.56733e-07
1.78723e-07
8.74896e-07
-5.05812e-07
4.7926e-07
8.25899e-07
-5.12748e-07
7.45635e-07
1.14394e-06
-6.62949e-07
1.10739e-06
9.76705e-07
-1.01004e-06
2.21998e-06
-9.19378e-07
-1.92521e-06
6.70898e-06
-3.83166e-06
-3.10144e-06
1.30981e-05
7.30417e-07
-2.18603e-06
1.26835e-05
8.42164e-06
-1.64107e-06
6.41369e-06
7.38267e-06
-1.69278e-06
-2.20304e-06
3.48725e-06
-1.35432e-06
-1.19724e-05
-2.51598e-06
-6.96738e-07
-2.88819e-05
-1.19125e-05
5.44368e-06
-4.5667e-05
-1.62025e-05
5.92746e-06
-5.28699e-05
-1.76053e-05
4.09394e-06
-5.73703e-05
-1.47331e-05
1.03823e-05
-4.57043e-05
-1.76805e-05
-7.07711e-07
4.32014e-05
-1.63643e-05
-2.71565e-05
4.78488e-05
8.02869e-08
-3.55474e-06
-1.87735e-05
-1.10101e-06
1.46199e-05
-3.14706e-05
6.37038e-06
5.87211e-06
-4.10458e-05
7.62902e-06
3.95975e-06
-4.40513e-05
9.32149e-06
-2.94714e-06
-4.6061e-05
9.46375e-06
-4.1476e-06
-4.44222e-05
1.00213e-05
-8.6546e-06
-4.45197e-05
1.07609e-05
-8.91883e-06
-4.57362e-05
1.09222e-05
-1.11078e-05
-4.90792e-05
1.01985e-05
-1.21654e-05
-5.25287e-05
6.15884e-06
-1.0413e-05
-5.47107e-05
2.2636e-06
-8.80526e-06
-5.41156e-05
1.69404e-06
-6.93743e-06
-5.07686e-05
4.48817e-06
-2.99625e-06
-4.82917e-05
9.06445e-06
3.03497e-07
-4.72071e-05
1.16845e-05
2.23734e-06
-4.76989e-05
1.28253e-05
2.07206e-06
-4.94128e-05
1.27502e-05
1.14094e-06
-5.06061e-05
1.11479e-05
3.20646e-07
-5.06808e-05
8.56294e-06
-7.34133e-07
-4.91605e-05
5.69168e-06
-1.85287e-06
-4.55613e-05
1.94915e-06
-2.26836e-06
-4.05012e-05
-2.53425e-06
-1.89619e-06
-3.66233e-05
-5.25808e-06
-6.74502e-07
-3.44816e-05
-6.35557e-06
-3.23118e-07
-3.47326e-05
-8.06582e-06
-2.82924e-07
-3.71499e-05
-1.0472e-05
9.98198e-07
-4.04089e-05
-1.27154e-05
2.23899e-06
-4.43916e-05
-1.27421e-05
2.28321e-06
-4.70778e-05
-1.10066e-05
1.11209e-06
-4.45409e-05
-8.22913e-06
-1.5391e-06
-3.80788e-05
-5.68558e-06
-3.00557e-06
-2.91787e-05
-1.55824e-06
-4.33383e-06
-1.94847e-05
3.14824e-06
-4.81044e-06
-1.18066e-05
7.80026e-06
-4.17672e-06
-5.61009e-06
1.29729e-05
-3.02776e-06
1.49744e-05
-2.57998e-06
-3.27496e-06
-1.17896e-06
2.03497e-06
-3.03368e-06
-4.70646e-06
-4.45896e-07
-3.39726e-06
-2.9604e-06
6.88074e-08
-2.33998e-06
-4.2567e-06
-9.05061e-07
-1.25845e-06
-3.78962e-06
-5.77987e-07
-1.65399e-07
-2.84341e-06
-5.51258e-07
8.52068e-08
-5.58298e-07
1.81614e-07
-4.99931e-08
3.78487e-07
3.76029e-07
-1.97666e-08
8.41735e-07
-4.34218e-08
-1.03178e-07
9.67016e-07
7.87237e-08
1.73158e-09
1.0438e-06
-3.06343e-08
5.83188e-08
1.13119e-06
5.88632e-08
1.43947e-07