/*--------------------------------*- C++ -*----------------------------------*\
| =========                 |                                                 |
| \\      /  F ield         | OpenFOAM: The Open Source CFD Toolbox           |
|  \\    /   O peration     | Version:  2.3.0                                 |
|   \\  /    A nd           | Web:      www.OpenFOAM.org                      |
|    \\/     M anipulation  |                                                 |
\*---------------------------------------------------------------------------*/
FoamFile
{
    version     2.0;
    format      ascii;
    class       surfaceScalarField;
    location    "41";
    object      phi.air;
}
// * * * * * * * * * * * * * * * * * * * * * * * * * * * * * * * * * * * * * //

dimensions      [0 3 -1 0 0 0 0];

internalField   nonuniform List<scalar> 
16448
(
-1.37743e-06
-2.57805e-06
5.6687e-07
4.94951e-07
-2.63336e-06
7.6097e-07
4.72877e-07
-1.17167e-06
1.19374e-06
3.67535e-07
-9.94483e-07
1.09982e-06
-9.04368e-09
-5.4065e-07
9.17221e-07
-1.47141e-07
-7.1554e-07
8.53631e-07
-2.00918e-07
-6.75615e-07
7.29385e-07
-2.13305e-07
-6.25325e-07
6.37707e-07
-2.95877e-07
-4.68115e-07
5.50683e-07
-4.60432e-07
-3.3252e-07
4.97071e-07
-6.40377e-07
-2.55872e-07
4.35814e-07
-7.101e-07
-2.73682e-07
3.43403e-07
-6.743e-07
-3.16962e-07
2.81158e-07
-5.48431e-07
-3.61608e-07
2.35735e-07
-4.07881e-07
-3.7931e-07
2.38756e-07
-2.61094e-07
-4.01615e-07
2.54822e-07
-1.35711e-07
-4.13861e-07
2.88475e-07
-3.21252e-08
-4.27296e-07
3.23704e-07
4.2355e-08
-4.37587e-07
3.63102e-07
8.69761e-08
-4.43697e-07
3.99069e-07
1.02824e-07
-4.46305e-07
4.30451e-07
9.9943e-08
-4.49706e-07
4.5258e-07
8.6335e-08
-4.48597e-07
4.62199e-07
6.74278e-08
-4.42778e-07
4.61678e-07
4.69777e-08
-4.32428e-07
4.52871e-07
2.8262e-08
-4.19045e-07
4.37753e-07
1.48004e-08
-4.06306e-07
4.1976e-07
8.372e-09
-3.94771e-07
4.01191e-07
7.70057e-09
-3.82899e-07
3.83562e-07
8.67222e-09
-3.69632e-07
3.68651e-07
8.36158e-09
-3.55299e-07
3.556e-07
6.99197e-09
-3.40821e-07
3.4218e-07
6.87323e-09
-3.26698e-07
3.26806e-07
1.16941e-08
-3.13591e-07
3.0876e-07
2.55228e-08
-3.02252e-07
2.88413e-07
5.08368e-08
-2.92936e-07
2.67611e-07
8.58249e-08
-2.84923e-07
2.49924e-07
1.22629e-07
-2.77588e-07
2.40771e-07
1.46195e-07
-2.6887e-07
2.45292e-07
1.29941e-07
-2.54842e-07
2.71084e-07
3.01097e-08
-2.28732e-07
3.2855e-07
-1.89554e-07
-2.08217e-07
4.27867e-07
-4.66463e-07
-2.46654e-07
5.2355e-07
-5.97595e-07
-4.51121e-07
5.8224e-07
-5.31251e-07
-6.38646e-07
5.72289e-07
-7.10409e-07
-3.50481e-07
5.29626e-07
-1.69299e-06
3.49182e-07
6.33383e-07
-3.01985e-06
-3.64245e-07
1.69108e-06
4.8735e-08
-7.67346e-06
4.60484e-06
5.04731e-06
-1.25249e-05
7.5263e-06
7.80583e-06
-1.20084e-05
9.24986e-06
9.66994e-06
-1.17224e-05
9.85831e-06
1.22729e-05
-1.24251e-05
9.82214e-06
1.52899e-05
-1.09312e-05
7.91418e-06
1.61634e-05
-6.0324e-06
5.15882e-06
1.81908e-05
-5.1139e-06
3.08646e-06
1.39271e-05
3.30858e-06
9.55042e-07
1.69541e-05
-1.77774e-06
-1.24914e-06
-5.70745e-06
1.70955e-05
5.24867e-06
-3.23712e-05
-7.90954e-06
2.35629e-06
-6.95003e-05
-1.43584e-05
4.26957e-06
-2.29486e-05
-4.67655e-06
6.16831e-06
1.596e-05
-1.98715e-06
4.41363e-06
1.64379e-05
-4.31373e-06
3.43596e-06
1.69524e-05
-2.91299e-06
2.43175e-06
1.74516e-05
-2.50741e-06
1.9693e-06
1.78525e-05
-3.09466e-06
2.5744e-06
1.60165e-05
-1.7256e-06
3.58614e-06
1.22231e-05
-8.6904e-07
4.5571e-06
8.17536e-06
-9.78967e-07
4.90154e-06
5.50281e-06
-1.99128e-06
4.6025e-06
2.37341e-06
-9.17104e-07
4.03256e-06
-6.20505e-07
-5.13672e-07
3.46128e-06
-3.14672e-06
-2.06051e-07
2.77938e-06
-8.27923e-06
2.44228e-06
2.74901e-06
-1.42764e-05
4.2442e-06
1.7725e-06
-1.72427e-05
1.93306e-06
1.06662e-06
-1.77166e-05
-9.99628e-07
1.47724e-06
-1.71092e-05
-3.08616e-06
2.41835e-06
-1.60831e-05
-3.75998e-06
2.62684e-06
-1.53286e-05
-3.71038e-06
2.9217e-06
-1.39125e-05
-4.26607e-06
2.84133e-06
-1.16235e-05
-3.03693e-06
7.47929e-07
-9.09282e-06
-1.11636e-06
-1.35761e-06
-6.66701e-06
-7.7327e-08
-2.32298e-06
-3.91077e-06
2.11049e-07
-2.98441e-06
-1.00166e-06
2.14718e-07
-3.12873e-06
1.4884e-06
4.70213e-07
-2.98456e-06
3.56372e-06
1.17936e-06
-3.23631e-06
5.81532e-06
1.30448e-06
-3.60826e-06
7.82989e-06
1.45439e-06
-3.51038e-06
8.93589e-06
9.63109e-07
-2.0914e-06
9.17873e-06
7.83611e-07
-1.07216e-06
8.12187e-06
6.72482e-07
3.92853e-07
5.53114e-06
1.93569e-07
2.48383e-06
1.02994e-06
5.47578e-06
-2.05424e-06
-3.71351e-06
-1.75964e-07
-6.18683e-07
-3.94334e-06
-1.25573e-07
-2.81059e-07
-2.20263e-06
6.93332e-07
1.35418e-07
-1.862e-06
4.51024e-07
1.51111e-07
-8.50285e-07
2.93929e-07
-3.32468e-08
-8.07359e-07
2.76164e-07
-2.21005e-07
-6.4103e-07
1.53162e-07
-3.45169e-07
-5.97468e-07
9.62971e-08
-4.90903e-07
-3.96908e-07
7.45191e-08
-6.75214e-07
-2.49413e-07
1.01196e-07
-8.36763e-07
-1.69932e-07
7.56021e-08
-8.79547e-07
-2.33747e-07
2.84159e-09
-8.3548e-07
-2.99664e-07
-6.13739e-08
-7.1308e-07
-3.74773e-07
-1.09245e-07
-5.67424e-07
-4.05048e-07
-1.19928e-07
-4.09146e-07
-4.41056e-07
-1.18848e-07
-2.67213e-07
-4.57304e-07
-9.85021e-08
-1.45683e-07
-4.73614e-07
-7.52241e-08
-5.14384e-08
-4.83941e-07
-4.79041e-08
1.42549e-08
-4.86948e-07
-2.24554e-08
4.97566e-08
-4.83008e-07
1.18678e-09
6.34525e-08
-4.75856e-07
1.24391e-08
6.29169e-08
-4.65085e-07
1.70075e-08
5.37256e-08
-4.49777e-07
1.61737e-08
3.99768e-08
-4.30026e-07
1.13298e-08
2.49743e-08
-4.07927e-07
3.86696e-09
1.30167e-08
-3.8644e-07
-7.92706e-09
6.12614e-09
-3.6618e-07
-2.17195e-08
2.83773e-09
-3.45222e-07
-3.4409e-08
3.00846e-10
-3.21551e-07
-4.55644e-08
-2.41885e-09
-2.96513e-07
-5.60876e-08
-3.71735e-09
-2.72569e-07
-6.6975e-08
-1.96157e-09
-2.49911e-07
-7.85651e-08
4.61055e-09
-2.29393e-07
-9.07939e-08
1.76925e-08
-2.11992e-07
-1.03367e-07
3.81454e-08
-1.98481e-07
-1.14934e-07
6.3693e-08
-1.87922e-07
-1.22575e-07
8.67293e-08
-1.77386e-07
-1.23265e-07
9.08299e-08
-1.61756e-07
-1.11243e-07
4.89429e-08
-1.32852e-07
-8.01317e-08
-8.14377e-08
-7.45685e-08
-2.38126e-08
-3.2669e-07
-4.99263e-09
4.19978e-08
-6.03112e-07
-3.52506e-08
6.49889e-08
-7.37543e-07
-3.36212e-07
1.94918e-08
-7.61279e-07
-5.87463e-07
-2.74786e-08
-7.8339e-07
-1.78011e-07
-1.5039e-07
-8.9562e-07
6.07433e-07
-1.46057e-07
2.27885e-07
-2.29527e-06
8.07461e-07
-2.55225e-07
-1.2291e-05
5.10061e-06
-5.5678e-06
-1.65612e-05
9.34888e-06
-1.07272e-05
-1.69758e-05
1.01267e-05
-1.2555e-05
-1.99426e-05
1.0048e-05
-9.36127e-06
-2.26295e-05
7.01068e-06
-4.55699e-06
-1.9089e-05
3.3535e-06
3.59317e-06
-1.28976e-05
-1.28502e-06
1.12744e-05
-1.0223e-05
-2.5721e-06
1.29194e-05
7.83657e-06
-6.17316e-06
1.39684e-05
2.45577e-06
-5.2824e-06
1.54368e-06
2.36372e-05
5.57845e-06
-3.31623e-05
-1.0372e-05
4.70615e-06
-8.6153e-05
-1.80885e-05
4.91158e-06
-4.63114e-05
-4.53063e-06
1.23155e-05
-1.47247e-05
-7.1452e-06
6.5745e-06
-1.6575e-05
-4.07274e-06
1.21637e-06
-1.56312e-05
-3.65118e-06
1.61999e-07
-1.47773e-05
-4.6367e-06
1.24393e-06
-1.31167e-05
-7.33086e-06
2.68043e-06
-1.08214e-05
-7.35312e-06
3.36611e-06
-7.80089e-06
-7.53957e-06
3.59717e-06
-5.6646e-06
-6.66678e-06
3.54153e-06
-4.62777e-06
-6.24522e-06
3.24888e-06
-4.49082e-06
-4.24193e-06
3.25277e-06
-4.50974e-06
-2.98523e-06
2.59694e-06
-6.39493e-06
-8.25355e-07
2.66762e-06
-9.99995e-06
2.55782e-06
3.60281e-06
-1.37804e-05
5.15396e-06
2.82517e-06
-1.59547e-05
2.43463e-06
1.6327e-06
-1.54597e-05
-3.60861e-06
2.1494e-06
-1.36223e-05
-7.24498e-06
2.26787e-06
-1.28043e-05
-6.93583e-06
2.29676e-06
-1.2233e-05
-6.68257e-06
2.32858e-06
-1.11444e-05
-7.76084e-06
2.48891e-06
-8.53856e-06
-5.66027e-06
-1.86876e-08
-6.11035e-06
-1.61977e-06
-1.9656e-06
-3.48473e-06
4.30856e-07
-3.12962e-06
-4.46909e-07
1.29063e-06
-4.15989e-06
2.20059e-06
2.27557e-06
-4.76999e-06
4.40834e-06
2.97328e-06
-4.77222e-06
5.90128e-06
4.48085e-06
-4.84547e-06
7.18078e-06
4.47165e-06
-4.49998e-06
8.50674e-06
3.66896e-06
-3.56874e-06
9.41635e-06
3.19725e-06
-3.1671e-06
9.31437e-06
3.03053e-06
-2.18664e-06
7.92519e-06
2.94531e-06
-9.09414e-07
4.54845e-06
1.75561e-06
1.96937e-06
1.36777e-06
5.31988e-06
-2.59587e-06
-4.08675e-06
-4.2358e-07
-1.48152e-06
-4.49875e-06
-5.58949e-07
-1.02709e-06
-2.82184e-06
1.64767e-07
-3.44451e-07
-2.47038e-06
-7.42648e-08
-7.26586e-08
-1.02737e-06
-9.47247e-08
-1.55486e-07
-6.99972e-07
-2.45715e-08
-3.44746e-07
-3.3221e-07
-1.19571e-07
-4.7308e-07
-3.27668e-07
-1.41475e-07
-5.72604e-07
-1.36016e-07
-1.61376e-07
-6.40782e-07
-4.27814e-08
-1.38461e-07
-7.20794e-07
3.97986e-08
-1.29725e-07
-7.45048e-07
-3.31509e-08
-1.7635e-07
-7.41484e-07
-8.03727e-08
-2.22863e-07
-6.9207e-07
-1.5904e-07
-2.65156e-07
-6.14572e-07
-1.96201e-07
-2.86354e-07
-5.11394e-07
-2.39863e-07
-3.04381e-07
-4.0625e-07
-2.57429e-07
-3.05029e-07
-3.0832e-07
-2.71559e-07
-2.99996e-07
-2.24308e-07
-2.77492e-07
-2.90472e-07
-1.53957e-07
-2.76683e-07
-2.80629e-07
-9.8746e-08
-2.66121e-07
-2.72111e-07
-6.00234e-08
-2.48857e-07
-2.65735e-07
-3.5344e-08
-2.28299e-07
-2.61479e-07
-2.12558e-08
-2.04562e-07
-2.59318e-07
-1.42582e-08
-1.78554e-07
-2.58484e-07
-1.1324e-08
-1.52018e-07
-2.5886e-07
-1.11398e-08
-1.26269e-07
-2.60371e-07
-1.32411e-08
-1.01388e-07
-2.62709e-07
-1.65957e-08
-7.60404e-08
-2.65845e-07
-1.96891e-08
-4.85735e-08
-2.69904e-07
-2.07017e-08
-2.07539e-08
-2.74766e-07
-1.88646e-08
5.45648e-09
-2.79884e-07
-1.61678e-08
3.20184e-08
-2.84648e-07
-1.33466e-08
5.58788e-08
-2.88115e-07
-1.19471e-08
7.67662e-08
-2.90181e-07
-1.42498e-08
9.4832e-08
-2.91034e-07
-2.44789e-08
1.11547e-07
-2.89265e-07
-5.04845e-08
1.31136e-07
-2.82541e-07
-1.06716e-07
1.61134e-07
-2.66684e-07
-2.05122e-07
2.05934e-07
-2.40407e-07
-3.50957e-07
2.77468e-07
-2.06228e-07
-5.55456e-07
3.75306e-07
-1.75828e-07
-8.25997e-07
4.13526e-07
-1.78263e-07
-1.14091e-06
2.41123e-07
-2.62451e-07
-1.29824e-06
6.92215e-08
-4.9938e-07
-7.4512e-07
2.29239e-07
-9.60402e-07
5.81079e-07
4.67933e-07
-1.18674e-06
1.35417e-07
-2.87644e-06
1.02677e-06
-8.32316e-06
-1.11371e-05
7.3046e-06
-1.79566e-05
-1.72512e-05
1.03234e-05
-2.28318e-05
-2.11517e-05
9.05106e-06
-2.48872e-05
-2.4889e-05
7.00185e-06
-2.25483e-05
-2.75379e-05
2.5695e-06
-1.53534e-05
-2.42064e-05
-2.07748e-06
-6.24592e-06
-1.61388e-05
-5.86627e-06
-3.86684e-06
-7.49022e-06
-5.11178e-06
6.67633e-06
8.58879e-06
-1.12954e-05
7.20238e-06
7.75154e-06
-5.82195e-06
-7.12063e-08
3.19693e-05
-1.31786e-06
-2.62158e-05
-1.4058e-05
1.45231e-06
-3.69514e-05
-2.18588e-05
6.69614e-06
-2.43977e-05
-4.79309e-06
8.87624e-06
-2.81721e-05
-9.19659e-06
6.09613e-06
-1.73476e-05
-5.57895e-06
2.66745e-06
-1.76266e-05
-7.71567e-06
4.04512e-06
-1.69943e-05
-8.62071e-06
2.86603e-06
-1.55086e-05
-9.73116e-06
1.12882e-06
-1.24299e-05
-9.53592e-06
-3.32671e-07
-8.74567e-06
-8.68165e-06
-1.2762e-06
-5.4513e-06
-6.58991e-06
-1.88292e-06
-3.09983e-06
-6.23037e-06
-2.3523e-06
-2.26455e-06
-2.18642e-06
-2.05395e-06
-2.46849e-06
1.2564e-06
-2.29784e-06
-3.38918e-06
4.13274e-06
-2.25173e-06
-4.99369e-06
5.14815e-06
-3.61705e-07
-7.85933e-06
4.73114e-06
2.3077e-06
-1.02886e-05
5.1121e-07
1.91031e-06
-1.05871e-05
-5.08117e-06
1.8187e-06
-1.03756e-05
-9.4725e-06
1.95237e-06
-9.87779e-06
-7.48602e-06
6.73818e-09
-9.36683e-06
-6.13669e-06
-9.60138e-07
-8.45989e-06
-6.05055e-06
-2.51832e-06
-5.87294e-06
-2.08321e-06
-4.37418e-06
-4.1039e-06
1.87377e-06
-4.09084e-06
-2.67784e-06
2.42038e-06
-3.54573e-06
-5.92675e-07
3.03348e-06
-3.95262e-06
2.1307e-06
4.43273e-06
-4.96884e-06
5.67982e-06
3.92319e-06
-4.5868e-06
8.31409e-06
5.2761e-06
-3.3376e-06
1.0499e-05
4.19879e-06
-1.8358e-06
1.2206e-05
3.56777e-06
-1.58862e-06
1.27178e-05
4.27306e-06
-1.52007e-06
1.2223e-05
4.49929e-06
-9.31613e-07
1.02321e-05
4.93912e-06
6.61023e-08
5.40405e-06
4.91869e-06
1.79593e-06
3.66874e-06
4.30337e-06
-3.04358e-06
-4.17325e-06
-2.17331e-07
-1.95705e-06
-4.8341e-06
-7.51175e-07
-1.60614e-06
-3.22419e-06
5.14314e-08
-9.19638e-07
-3.07991e-06
-7.69834e-08
-5.17016e-07
-1.38958e-06
-4.04219e-08
-3.51547e-07
-8.22054e-07
-4.33987e-08
-3.90741e-07
-1.35662e-07
-1.57365e-07
-4.46901e-07
-1.10913e-07
-1.60603e-07
-4.75824e-07
8.17755e-08
-1.88876e-07
-4.8752e-07
1.54055e-07
-1.85146e-07
-5.24671e-07
2.80834e-07
-2.03893e-07
-5.63655e-07
2.42381e-07
-2.36555e-07
-6.14327e-07
2.33507e-07
-2.63216e-07
-6.22961e-07
1.4929e-07
-2.99704e-07
-5.98995e-07
1.01719e-07
-3.21896e-07
-5.39481e-07
5.09202e-08
-3.50307e-07
-4.61403e-07
3.28716e-08
-3.6839e-07
-3.81425e-07
2.98415e-08
-3.81389e-07
-3.07611e-07
3.62947e-08
-3.87613e-07
-2.4068e-07
4.68808e-08
-3.90507e-07
-1.81181e-07
6.43237e-08
-3.89957e-07
-1.30166e-07
8.66418e-08
-3.86527e-07
-8.9813e-08
1.12048e-07
-3.80715e-07
-6.07754e-08
1.40602e-07
-3.74217e-07
-4.25958e-08
1.714e-07
-3.6815e-07
-3.30664e-08
2.01143e-07
-3.62707e-07
-2.96593e-08
2.28517e-07
-3.58212e-07
-2.98582e-08
2.53951e-07
-3.55158e-07
-3.15823e-08
2.7968e-07
-3.54015e-07
-3.35322e-08
3.07912e-07
-3.54554e-07
-3.58364e-08
3.37308e-07
-3.55778e-07
-3.89767e-08
3.65128e-07
-3.56551e-07
-4.20177e-08
3.91245e-07
-3.56207e-07
-4.63072e-08
4.15046e-07
-3.549e-07
-5.43944e-08
4.37073e-07
-3.52243e-07
-7.20692e-08
4.59271e-07
-3.46788e-07
-1.07875e-07
4.84673e-07
-3.37344e-07
-1.69973e-07
5.16829e-07
-3.2362e-07
-2.70223e-07
5.63815e-07
-3.02457e-07
-4.10976e-07
6.22866e-07
-2.76206e-07
-5.74798e-07
6.90321e-07
-2.49058e-07
-7.25133e-07
7.58898e-07
-2.33284e-07
-8.7349e-07
7.99033e-07
-2.37179e-07
-1.02578e-06
7.16167e-07
-3.22788e-07
-9.08978e-07
5.81607e-07
-6.29212e-07
2.93708e-07
4.50219e-07
-1.4237e-06
2.74715e-06
2.1265e-07
-2.1982e-06
1.52573e-07
-1.27704e-06
9.95112e-07
-1.13318e-05
-7.93266e-06
8.27996e-06
-2.06615e-05
-1.68099e-05
8.88843e-06
-2.82018e-05
-2.16447e-05
8.03331e-06
-3.40059e-05
-2.50559e-05
5.97112e-06
-3.35074e-05
-2.82846e-05
2.48199e-07
-2.94462e-05
-2.7245e-05
-1.02257e-06
-2.58393e-05
-1.8978e-05
-7.67522e-07
-2.08905e-05
-9.82088e-06
-2.61806e-06
5.86391e-06
-5.72882e-06
-1.24369e-05
1.31252e-05
7.75905e-06
-7.26902e-06
-2.60232e-06
4.90844e-05
-2.17763e-06
-4.24748e-05
-1.63818e-05
-9.58184e-07
-0.000123169
-2.30255e-05
8.86269e-06
-0.000123726
-2.46163e-06
8.2745e-06
-0.000127091
-9.09361e-06
5.2447e-06
-0.000129714
-7.2642e-06
2.04467e-06
-0.00012865
-9.86146e-06
2.00531e-06
-0.000126671
-1.03124e-05
-2.27045e-06
-0.000122547
-1.02043e-05
-3.33056e-06
-0.000114592
-8.38207e-06
-5.35301e-06
-9.38477e-05
-6.11958e-06
-6.03636e-06
-4.18302e-05
-1.94623e-06
-6.79247e-06
-2.29106e-05
1.30919e-06
-6.11055e-06
-6.61036e-05
3.88385e-06
-5.6335e-06
-9.26072e-05
7.4538e-06
-4.56936e-06
-9.94171e-05
9.38222e-06
-3.58216e-06
-0.000101677
8.2007e-06
-1.47388e-06
-8.94001e-05
4.58152e-06
3.99738e-07
-4.0557e-05
-1.4107e-07
1.49511e-06
-7.56734e-06
-1.01739e-06
1.33843e-06
-1.18975e-05
-1.60067e-06
-1.41008e-06
-1.3576e-05
7.81227e-07
-4.93442e-06
-1.31756e-05
2.55819e-06
-7.08524e-06
-2.68305e-05
2.88016e-06
-8.82901e-06
-5.68456e-05
-1.36759e-07
-8.5051e-06
-4.12526e-05
-1.14355e-06
-2.93106e-06
-7.07193e-06
-4.33264e-06
1.25208e-06
-3.74353e-06
-4.47322e-06
2.17141e-06
1.27596e-06
-1.39694e-06
9.46807e-07
4.92403e-06
-1.00028e-06
1.39662e-06
6.84867e-06
3.33213e-06
1.65641e-07
9.86488e-06
2.94914e-06
-1.90195e-06
1.22603e-05
3.54707e-06
-2.44457e-06
1.30164e-05
5.28389e-06
-1.78276e-06
1.30434e-05
5.86119e-06
-1.45282e-06
1.14552e-05
6.64826e-06
-9.04991e-08
6.57755e-06
8.06585e-06
1.98683e-06
7.29868e-06
4.36043e-06
-3.34822e-06
-4.12195e-06
-1.74052e-09
-2.25215e-06
-5.12022e-06
-8.09963e-07
-2.01039e-06
-3.51952e-06
5.35709e-08
-1.32173e-06
-3.64455e-06
-1.24026e-07
-9.29141e-07
-1.94079e-06
1.58618e-07
-5.22351e-07
-1.25906e-06
3.02102e-08
-3.76664e-07
-1.25651e-07
-1.55705e-07
-3.93832e-07
7.26449e-08
-1.66398e-07
-3.51857e-07
2.51642e-07
-2.11846e-07
-3.32502e-07
3.39572e-07
-2.04879e-07
-3.49338e-07
5.09486e-07
-2.11821e-07
-4.07115e-07
5.18549e-07
-2.18399e-07
-4.9651e-07
5.46941e-07
-2.24046e-07
-5.46485e-07
4.45558e-07
-2.46302e-07
-5.52562e-07
3.72182e-07
-2.64394e-07
-5.17311e-07
3.10239e-07
-2.94579e-07
-4.58579e-07
2.94871e-07
-3.20741e-07
-3.97343e-07
3.12317e-07
-3.43722e-07
-3.37186e-07
3.3739e-07
-3.61263e-07
-2.78463e-07
3.62524e-07
-3.74377e-07
-2.20306e-07
3.8939e-07
-3.83235e-07
-1.6498e-07
4.18663e-07
-3.8736e-07
-1.1701e-07
4.5069e-07
-3.86625e-07
-7.89739e-08
4.84179e-07
-3.81626e-07
-5.19033e-08
5.17931e-07
-3.73615e-07
-3.4355e-08
5.48355e-07
-3.64775e-07
-2.38444e-08
5.74138e-07
-3.56146e-07
-1.83643e-08
5.96973e-07
-3.48518e-07
-1.71121e-08
6.20346e-07
-3.41935e-07
-1.92944e-08
6.4632e-07
-3.36244e-07
-2.41598e-08
6.73323e-07
-3.31167e-07
-3.16681e-08
6.9919e-07
-3.26573e-07
-4.18878e-08
7.23403e-07
-3.21957e-07
-5.58756e-08
7.45718e-07
-3.16703e-07
-7.84162e-08
7.6897e-07
-3.09376e-07
-1.187e-07
7.97468e-07
-2.97934e-07
-1.88512e-07
8.35496e-07
-2.81032e-07
-2.96867e-07
8.84454e-07
-2.59291e-07
-4.4471e-07
9.42905e-07
-2.31269e-07
-6.15403e-07
9.93536e-07
-1.99998e-07
-7.6222e-07
1.00877e-06
-1.71656e-07
-8.17253e-07
9.70512e-07
-1.56604e-07
-7.79555e-07
9.24983e-07
-1.63671e-07
-6.96579e-07
8.75516e-07
-2.42349e-07
-3.4449e-07
7.18367e-07
-4.88873e-07
9.98637e-07
3.43965e-07
-1.2369e-06
4.31847e-06
-6.90609e-07
-2.41662e-06
2.33457e-06
6.96813e-07
9.9972e-09
-9.70587e-06
-2.026e-06
6.13375e-06
-2.09761e-05
-1.20033e-05
6.46365e-06
-3.15213e-05
-1.83027e-05
7.20321e-06
-3.90192e-05
-2.20894e-05
4.5316e-06
-4.0045e-05
-2.68547e-05
-4.04026e-07
-4.07606e-05
-3.07847e-05
4.25532e-06
-3.8619e-05
-2.82331e-05
7.11359e-06
-2.85485e-05
-1.82427e-05
-1.64856e-06
-1.6584e-05
-7.68511e-06
-1.00084e-05
-1.51473e-05
1.33732e-05
-7.05089e-06
-2.83752e-07
4.81585e-05
-1.64246e-05
-5.31219e-05
-1.50285e-05
1.92946e-06
-0.000138085
-2.13055e-05
1.04191e-05
-0.000136478
-5.67596e-06
6.88377e-06
-0.000138936
-9.33959e-06
4.15596e-06
-0.000141428
-7.097e-06
7.78225e-08
-0.000141185
-8.731e-06
-1.49273e-06
-0.000140192
-7.96143e-06
-5.27146e-06
-0.000137563
-7.22573e-06
-6.40126e-06
-0.000133128
-5.13528e-06
-8.37335e-06
-0.000127322
-2.34875e-06
-9.12523e-06
-0.000122488
2.6093e-06
-8.41166e-06
-0.000119906
7.49594e-06
-6.99836e-06
-0.000119708
1.02244e-05
-5.18337e-06
-0.000119699
1.216e-05
-3.05344e-06
-0.000119721
1.23161e-05
-4.65134e-08
-0.000122655
1.07575e-05
1.53921e-06
-0.000126204
7.29079e-06
1.49787e-06
-0.000132209
6.35164e-06
-8.75612e-07
-0.000138822
6.95622e-06
-4.02392e-06
-0.00014151
5.89475e-06
-5.12173e-06
-0.000141409
5.01185e-06
-5.86237e-06
-0.000139002
4.02625e-06
-6.0907e-06
-0.000137244
1.7567e-06
-2.48606e-06
-0.000134576
-2.12778e-06
1.6037e-06
-0.000126006
-6.97124e-06
4.79239e-06
-0.000101956
-8.37539e-06
5.09334e-06
-4.97104e-05
-7.17488e-06
2.59284e-06
-1.08595e-05
-6.07351e-06
-9.80804e-07
-3.17016e-06
-1.83931e-06
-5.54601e-06
3.9369e-06
4.69203e-06
-6.11461e-06
7.68433e-06
5.04574e-06
-6.09063e-06
8.88939e-06
7.2905e-06
-4.98303e-06
9.70812e-06
7.97911e-06
-3.55171e-06
1.07977e-05
8.23587e-06
-3.52688e-06
1.04249e-05
9.1796e-06
-2.11674e-06
6.44309e-06
1.1591e-05
6.71548e-07
1.21994e-05
2.95937e-06
-3.64804e-06
-3.85431e-06
2.38589e-07
-2.51886e-06
-5.30943e-06
-9.39973e-07
-2.26879e-06
-3.6697e-06
-9.98939e-08
-1.44937e-06
-4.00888e-06
-4.55101e-07
-1.04124e-06
-2.52806e-06
1.7913e-07
-5.31977e-07
-1.78056e-06
1.22311e-08
-2.9239e-07
-2.37987e-07
-1.27257e-07
-3.09469e-07
2.23545e-07
-1.33825e-07
-2.252e-07
3.86843e-07
-2.19474e-07
-2.06146e-07
5.02992e-07
-1.82478e-07
-2.10005e-07
7.08784e-07
-1.95444e-07
-2.95178e-07
7.87004e-07
-1.83286e-07
-4.1623e-07
8.49402e-07
-1.81416e-07
-4.8417e-07
7.13628e-07
-2.00134e-07
-4.86983e-07
6.03981e-07
-2.28991e-07
-4.46219e-07
5.34093e-07
-2.64623e-07
-3.90778e-07
5.35045e-07
-2.95621e-07
-3.46485e-07
5.85808e-07
-3.17789e-07
-3.1138e-07
6.38264e-07
-3.35986e-07
-2.78587e-07
6.80078e-07
-3.50354e-07
-2.43088e-07
7.14186e-07
-3.60302e-07
-2.04021e-07
7.44443e-07
-3.64853e-07
-1.66357e-07
7.7615e-07
-3.63132e-07
-1.33569e-07
8.08191e-07
-3.56808e-07
-1.10109e-07
8.4186e-07
-3.47398e-07
-9.35871e-08
8.67889e-07
-3.36065e-07
-8.16449e-08
8.86288e-07
-3.24102e-07
-7.2166e-08
9.00059e-07
-3.12573e-07
-6.56607e-08
9.15684e-07
-3.01854e-07
-6.42808e-08
9.36857e-07
-2.91926e-07
-6.92879e-08
9.61193e-07
-2.82874e-07
-8.06304e-08
9.85329e-07
-2.74806e-07
-9.86593e-08
1.0086e-06
-2.67182e-07
-1.24055e-07
1.02996e-06
-2.58862e-07
-1.62257e-07
1.05475e-06
-2.47589e-07
-2.22353e-07
1.08835e-06
-2.30795e-07
-3.14223e-07
1.13486e-06
-2.07503e-07
-4.4209e-07
1.19092e-06
-1.78609e-07
-5.89326e-07
1.2373e-06
-1.47174e-07
-7.19088e-07
1.23969e-06
-1.16399e-07
-7.76023e-07
1.15848e-06
-9.2786e-08
-6.97947e-07
9.82341e-07
-8.9915e-08
-4.7449e-07
8.16124e-07
-1.14608e-07
-1.82396e-07
7.60386e-07
-1.76974e-07
1.64709e-07
7.37106e-07
-3.65854e-07
1.21065e-06
3.09567e-07
-1.01155e-06
4.37933e-06
-1.54721e-06
-2.3121e-06
6.44178e-06
1.79097e-07
-1.54477e-06
-2.21945e-06
4.68977e-06
1.9454e-06
-1.42482e-05
-1.7307e-06
1.75611e-06
-2.67011e-05
-9.88097e-06
4.03124e-06
-3.85658e-05
-1.64776e-05
6.25296e-06
-4.63823e-05
-2.45071e-05
5.46906e-06
-5.28599e-05
-3.09406e-05
6.63366e-06
-5.63808e-05
-2.88109e-05
4.09887e-06
-5.46787e-05
-1.89736e-05
-9.71047e-07
-5.81878e-05
-3.67649e-06
-4.99572e-07
-4.49188e-05
8.94209e-06
-8.83769e-06
2.86779e-06
2.81752e-05
-3.1114e-05
-5.84528e-05
-9.3311e-06
3.02206e-06
-0.000147357
-1.34833e-05
1.14313e-05
-0.000147885
-4.12129e-06
6.65796e-06
-0.000153942
-4.65236e-06
4.23889e-06
-0.000160022
-2.98999e-06
-9.33587e-07
-0.00016189
-3.96697e-06
-2.92614e-06
-0.000161313
-4.00944e-06
-5.65138e-06
-0.000158505
-4.52691e-06
-6.65517e-06
-0.000152583
-5.07302e-06
-7.67672e-06
-0.000144732
-4.54518e-06
-6.82053e-06
-0.000137737
-2.25892e-06
-3.9415e-06
-0.000133654
1.5113e-06
1.1255e-06
-0.000133584
7.35247e-06
3.39886e-06
-0.000137355
1.13509e-05
4.73953e-06
-0.000142703
1.33539e-05
4.74257e-06
-0.000148177
1.43556e-05
2.61435e-06
-0.000152946
1.30189e-05
-2.68739e-07
-0.000155841
1.16581e-05
-1.79194e-06
-0.000156739
1.02924e-05
-2.65973e-06
-0.000155628
7.2157e-06
-3.01665e-06
-0.000154034
4.5096e-06
-1.70195e-06
-0.000152958
2.25144e-06
-3.94055e-07
-0.000152872
-2.27002e-07
1.21994e-06
-0.000154544
-2.85609e-06
2.33117e-06
-0.000157132
-6.03284e-06
1.49808e-06
-0.000156342
-8.22522e-06
-6.73061e-07
-0.000151448
-8.74426e-06
-1.77896e-06
-0.000140136
-7.95937e-06
-2.72119e-06
-0.000110743
-4.39332e-06
-3.75796e-06
-4.62623e-05
1.24812e-06
-4.00929e-06
3.92977e-06
1.4386e-06
-2.26605e-06
6.0676e-06
4.84717e-06
9.30382e-07
6.38865e-06
7.84558e-06
-4.14508e-07
7.47972e-06
9.87248e-06
-2.94593e-06
7.7148e-06
1.08389e-05
-1.94018e-06
4.97677e-06
1.37636e-05
7.90665e-07
1.60461e-05
2.59629e-06
-3.8192e-06
-3.30998e-06
5.01976e-07
-2.72333e-06
-5.16083e-06
-1.24448e-06
-2.50649e-06
-3.53495e-06
-3.51594e-07
-1.47476e-06
-4.07172e-06
-9.68896e-07
-9.02214e-07
-2.89888e-06
-2.01731e-07
-4.14416e-07
-2.03564e-06
-2.3272e-07
-2.29782e-07
-2.2936e-07
-1.93261e-07
-2.93315e-07
4.32986e-07
-1.45909e-07
-1.7104e-07
5.3595e-07
-2.71381e-07
-1.4446e-07
6.75572e-07
-1.99161e-07
-1.32053e-07
8.95664e-07
-1.99287e-07
-2.08785e-07
1.01436e-06
-1.5062e-07
-3.14119e-07
1.09886e-06
-1.44127e-07
-3.67453e-07
9.40609e-07
-1.73647e-07
-3.6627e-07
8.27764e-07
-2.24966e-07
-3.34713e-07
7.68438e-07
-2.65903e-07
-3.00149e-07
7.95712e-07
-2.9523e-07
-2.80478e-07
8.73623e-07
-3.07487e-07
-2.75127e-07
9.47959e-07
-3.15046e-07
-2.75484e-07
1.00173e-06
-3.21295e-07
-2.75634e-07
1.04008e-06
-3.25749e-07
-2.7086e-07
1.06723e-06
-3.27557e-07
-2.62006e-07
1.0915e-06
-3.24205e-07
-2.52052e-07
1.11462e-06
-3.16379e-07
-2.46755e-07
1.13971e-06
-3.03149e-07
-2.43323e-07
1.15494e-06
-2.90488e-07
-2.37163e-07
1.15937e-06
-2.79246e-07
-2.27647e-07
1.15979e-06
-2.69248e-07
-2.17828e-07
1.16546e-06
-2.59592e-07
-2.13407e-07
1.18257e-06
-2.5013e-07
-2.17987e-07
1.20673e-06
-2.40952e-07
-2.32597e-07
1.23228e-06
-2.32338e-07
-2.58319e-07
1.25763e-06
-2.23307e-07
-2.93604e-07
1.27831e-06
-2.13062e-07
-3.41312e-07
1.30234e-06
-1.99876e-07
-4.05128e-07
1.33457e-06
-1.82406e-07
-4.84833e-07
1.37598e-06
-1.61408e-07
-5.72516e-07
1.41757e-06
-1.38963e-07
-6.43356e-07
1.43049e-06
-1.22345e-07
-6.6257e-07
1.37191e-06
-1.13002e-07
-5.9692e-07
1.21008e-06
-1.17244e-07
-4.15578e-07
9.35569e-07
-1.34562e-07
-1.24656e-07
6.73599e-07
-1.48389e-07
1.93028e-07
6.0833e-07
-1.65618e-07
5.14114e-07
7.32701e-07
-3.16671e-07
1.39666e-06
2.8713e-07
-8.60099e-07
3.64286e-06
-1.80018e-06
-1.99322e-06
8.55049e-06
-2.64691e-06
-2.08164e-06
9.23469e-06
4.58924e-06
-5.83698e-07
7.49289e-07
6.05635e-06
6.98307e-07
-1.10613e-05
-7.39704e-07
2.66939e-06
-2.53323e-05
-6.48619e-06
4.27953e-06
-4.05244e-05
-1.30354e-05
3.72049e-06
-5.34929e-05
-2.33678e-05
5.39582e-06
-6.01329e-05
-2.68659e-05
4.69512e-06
-6.15179e-05
-2.07978e-05
3.20917e-06
-6.10986e-05
-1.00406e-05
5.94476e-06
-4.20206e-05
-4.53717e-06
-5.59854e-06
1.95122e-06
7.80295e-06
-2.73956e-05
-6.37145e-05
-3.85208e-06
4.19003e-06
-0.000154205
-4.75095e-06
1.1947e-05
-0.000157913
1.66156e-06
6.24825e-06
-0.000165826
2.39955e-06
3.83089e-06
-0.000172979
3.04876e-06
-1.97098e-06
-0.000175566
2.19801e-06
-3.69252e-06
-0.000175806
1.31031e-06
-6.28037e-06
-0.000174007
-7.25084e-07
-6.22023e-06
-0.000170023
-3.83623e-06
-7.35248e-06
-0.0001655
-6.49424e-06
-4.46655e-06
-0.000161626
-6.53752e-06
-1.82281e-06
-0.000157859
-4.36608e-06
-2.83178e-07
-0.000154596
2.48655e-06
7.30894e-08
-0.00015507
9.05379e-06
1.99301e-06
-0.000158423
1.32897e-05
3.093e-06
-0.000161215
1.48914e-05
3.1714e-06
-0.000163171
1.38888e-05
2.51787e-06
-0.00016409
1.11534e-05
2.33616e-06
-0.000164501
8.72492e-06
2.04847e-06
-0.000165404
5.70595e-06
2.73432e-06
-0.000167231
3.15604e-06
3.40567e-06
-0.000168083
6.654e-07
2.63869e-06
-0.000168018
-1.69467e-06
2.47597e-06
-0.000168653
-4.07039e-06
1.9455e-06
-0.000169944
-6.72622e-06
1.85558e-06
-0.00017081
-1.01484e-05
2.0605e-06
-0.000170456
-1.18663e-05
2.00843e-06
-0.000168627
-1.25009e-05
1.60142e-06
-0.000162154
-1.11949e-05
1.09195e-06
-0.000146903
-7.83267e-06
6.9612e-07
-0.000116423
-3.20437e-06
1.1709e-06
-5.085e-05
9.68338e-07
2.13936e-06
-8.78345e-07
4.77098e-06
-1.41869e-06
3.53599e-06
9.22525e-06
-2.228e-06
5.37381e-06
1.31974e-05
-1.02656e-06
3.04046e-06
1.74708e-05
9.26864e-07
1.98884e-05
1.3128e-06
-3.72091e-06
-2.5696e-06
1.0871e-06
-2.95391e-06
-4.90749e-06
-1.02034e-06
-2.91687e-06
-3.25924e-06
-3.12741e-07
-1.80864e-06
-4.11342e-06
-1.06653e-06
-9.63561e-07
-3.29915e-06
-4.4481e-07
-2.86035e-07
-2.30899e-06
-4.04171e-07
-1.47477e-07
-1.32936e-07
-2.34981e-07
-2.25624e-07
6.10381e-07
-9.92453e-08
-1.4146e-07
8.22207e-07
-3.70419e-07
-1.81938e-07
9.59922e-07
-2.43868e-07
-1.36038e-07
1.11585e-06
-2.6608e-07
-1.37281e-07
1.24598e-06
-2.30379e-07
-1.27555e-07
1.33626e-06
-2.47115e-07
-1.15504e-07
1.22536e-06
-2.96796e-07
-1.14026e-07
1.1778e-06
-3.51511e-07
-1.42724e-07
1.18569e-06
-3.8855e-07
-1.8698e-07
1.25873e-06
-4.18761e-07
-2.33927e-07
1.35638e-06
-4.35807e-07
-2.81007e-07
1.44481e-06
-4.49769e-07
-3.2893e-07
1.51169e-06
-4.62034e-07
-3.71087e-07
1.55264e-06
-4.70389e-07
-3.98525e-07
1.57105e-06
-4.76375e-07
-4.14415e-07
1.58593e-06
-4.78527e-07
-4.21702e-07
1.59973e-06
-4.77823e-07
-4.20579e-07
1.61343e-06
-4.74828e-07
-4.15712e-07
1.62061e-06
-4.70522e-07
-4.07905e-07
1.619e-06
-4.67427e-07
-3.95729e-07
1.61292e-06
-4.653e-07
-3.82732e-07
1.61381e-06
-4.61339e-07
-3.78382e-07
1.63296e-06
-4.54734e-07
-3.87079e-07
1.66244e-06
-4.47002e-07
-4.08729e-07
1.6924e-06
-4.38457e-07
-4.44155e-07
1.72139e-06
-4.28321e-07
-4.89318e-07
1.74135e-06
-4.17858e-07
-5.44378e-07
1.7629e-06
-4.05487e-07
-6.07898e-07
1.78913e-06
-3.91023e-07
-6.67746e-07
1.81177e-06
-3.7593e-07
-7.06352e-07
1.81912e-06
-3.62926e-07
-7.11608e-07
1.79392e-06
-3.58144e-07
-6.52805e-07
1.68468e-06
-3.71552e-07
-5.14423e-07
1.47885e-06
-4.07118e-07
-2.90534e-07
1.16727e-06
-4.55561e-07
1.23668e-08
8.75289e-07
-5.04558e-07
3.0624e-07
8.26105e-07
-5.11614e-07
5.57273e-07
1.14389e-06
-6.62186e-07
8.78422e-07
9.76004e-07
-1.00998e-06
1.92594e-06
-9.22194e-07
-1.92546e-06
6.22477e-06
-3.83606e-06
-3.10965e-06
1.23909e-05
7.12339e-07
-2.28929e-06
1.18485e-05
8.39189e-06
-1.7931e-06
5.43878e-06
7.38601e-06
-1.71604e-06
-3.20195e-06
3.48109e-06
-1.32652e-06
-1.30498e-05
-2.52261e-06
-6.64821e-07
-3.00268e-05
-1.18826e-05
5.49172e-06
-4.66771e-05
-1.61838e-05
5.96836e-06
-5.39914e-05
-1.75729e-05
4.0896e-06
-6.0016e-05
-1.46323e-05
1.06163e-05
-4.61285e-05
-1.77502e-05
-6.74442e-07
8.59466e-07
-1.63765e-05
-2.70936e-05
-7.18417e-05
2.66905e-06
2.40273e-06
-0.000175287
2.40379e-06
1.53746e-05
-0.000178836
8.34419e-06
5.4535e-06
-0.0001854
9.24189e-06
2.21944e-06
-0.00019117
1.02047e-05
-3.32515e-06
-0.000193269
1.00846e-05
-5.36675e-06
-0.000194109
1.05397e-05
-9.32347e-06
-0.000195502
1.04758e-05
-9.42616e-06
-0.000198493
9.35991e-06
-1.14781e-05
-0.000202828
7.03283e-06
-9.94222e-06
-0.000206029
3.801e-06
-7.35093e-06
-0.000207888
2.33498e-06
-6.06824e-06
-0.000207753
3.87998e-06
-3.83333e-06
-0.000206431
7.23058e-06
-1.49111e-07
-0.000206601
1.06806e-05
2.41443e-06
-0.000206957
1.20681e-05
3.89726e-06
-0.000207746
1.25578e-05
3.58679e-06
-0.000210721
1.09677e-05
2.76969e-06
-0.000212872
8.41394e-06
1.837e-06
-0.000212654
5.76846e-06
6.02125e-07
-0.000211552
2.62016e-06
-4.36067e-07
-0.000208807
-1.0326e-06
-6.70403e-07
-0.000205704
-4.06445e-06
-3.40468e-08
-0.000204059
-5.552e-06
8.91729e-07
-0.000204431
-6.9293e-06
9.2129e-07
-0.00020684
-8.68485e-06
1.49798e-06
-0.000210942
-1.08067e-05
2.87097e-06
-0.000215596
-1.15392e-05
3.42101e-06
-0.000219462
-1.10475e-05
2.62898e-06
-0.000220118
-8.66829e-06
9.47442e-07
-0.000215277
-5.68005e-06
-1.60395e-06
-0.000206984
-1.20384e-06
-2.52232e-06
-0.000196338
3.1942e-06
-3.63826e-06
-0.000186343
7.60041e-06
-3.63048e-06
-0.000179046
1.15929e-05
-2.79044e-06
-0.000172226
1.4933e-05
-1.85011e-06
1.58154e-05
-3.67416e-07
-3.32426e-06
-1.17779e-06
2.0399e-06
-3.08303e-06
-4.70538e-06
-4.43332e-07
-3.45266e-06
-2.95971e-06
7.01108e-08
-2.40379e-06
-4.25633e-06
-9.05954e-07
-1.33473e-06
-3.78959e-06
-5.7862e-07
-2.49681e-07
-2.84307e-06
-5.50967e-07
-7.25042e-09
-5.57964e-07
1.82603e-07
-1.52524e-07
3.78642e-07
3.77017e-07
-1.29559e-07
8.41815e-07
-4.25667e-08
-2.16386e-07
9.67143e-07
7.96121e-08
-1.14735e-07
1.04394e-06