/*--------------------------------*- C++ -*----------------------------------*\
| =========                 |                                                 |
| \\      /  F ield         | OpenFOAM: The Open Source CFD Toolbox           |
|  \\    /   O peration     | Version:  2.3.0                                 |
|   \\  /    A nd           | Web:      www.OpenFOAM.org                      |
|    \\/     M anipulation  |                                                 |
\*---------------------------------------------------------------------------*/
FoamFile
{
    version     2.0;
    format      ascii;
    class       volScalarField;
    location    "41";
    object      rho;
}
// * * * * * * * * * * * * * * * * * * * * * * * * * * * * * * * * * * * * * //

dimensions      [1 -3 0 0 0 0 0];

internalField   nonuniform List<scalar> 
6144
(
1.16263
1.16332
1.16382
1.16437
1.16508
1.16629
1.16718
1.16796
1.16857
1.16883
1.16887
1.16888
1.16889
1.16889
1.16889
1.1689
1.1689
1.1689
1.1689
1.1689
1.1689
1.16891
1.16891
1.16891
1.16891
1.16891
1.16891
1.16891
1.16891
1.16892
1.16892
1.16892
1.16892
1.16892
1.16892
1.16892
1.16892
1.16892
1.16892
1.16892
1.16893
1.16893
1.16898
1.16994
1.1729
1.17732
1.18411
1.2073
1.25431
1.27739
1.28146
1.28315
1.28388
1.28451
1.28348
1.28502
1.28286
1.28815
1.89402
62.8703
1000.94
1027.02
1027.1
1027.1
1027.1
1027.1
1027.1
1027.1
1027.1
1027.1
1027.1
1027.1
1027.1
1027.1
1027.1
1027.1
1027.1
1027.1
1027.1
1027.1
1027.1
1027.1
1027.1
1027.1
1027.1
1027.1
1027.1
1027.1
1027.1
1027.1
1027.1
1027.1
1027.1
1027.1
1027.1
1027.1
1.16237
1.16334
1.16418
1.1648
1.1657
1.16655
1.16729
1.16801
1.16858
1.16881
1.16887
1.16888
1.16889
1.1689
1.1689
1.16891
1.16891
1.16891
1.16891
1.16891
1.16891
1.16891
1.16891
1.16892
1.16892
1.16892
1.16892
1.16892
1.16892
1.16892
1.16893
1.16893
1.16893
1.16893
1.16893
1.16893
1.16893
1.16893
1.16893
1.16894
1.16894
1.16894
1.16904
1.17016
1.17351
1.17945
1.19084
1.22069
1.27751
1.28417
1.2844
1.28442
1.2843
1.2844
1.28264
1.28662
1.28064
1.2885
1.47155
48.1651
997.903
1027.09
1027.1
1027.09
1027.1
1027.1
1027.1
1027.1
1027.1
1027.1
1027.1
1027.1
1027.1
1027.1
1027.1
1027.1
1027.1
1027.1
1027.1
1027.1
1027.1
1027.1
1027.1
1027.1
1027.1
1027.1
1027.1
1027.1
1027.1
1027.1
1027.1
1027.1
1027.1
1027.1
1027.1
1027.1
1.16215
1.16293
1.16407
1.16485
1.1659
1.16666
1.16734
1.16796
1.1684
1.16867
1.16878
1.16884
1.16887
1.16889
1.1689
1.1689
1.16891
1.16891
1.16891
1.16891
1.16891
1.16891
1.16891
1.16892
1.16892
1.16892
1.16892
1.16892
1.16892
1.16892
1.16893
1.16893
1.16893
1.16893
1.16893
1.16893
1.16893
1.16893
1.16893
1.16893
1.16894
1.16895
1.16907
1.17003
1.17265
1.17815
1.19353
1.23815
1.28271
1.28489
1.28398
1.28344
1.28326
1.28332
1.28317
1.28469
1.27567
1.28742
1.27555
40.0957
956.834
1027.09
1027.09
1027.09
1027.09
1027.09
1027.1
1027.1
1027.1
1027.1
1027.1
1027.1
1027.1
1027.1
1027.1
1027.1
1027.1
1027.1
1027.1
1027.1
1027.1
1027.1
1027.1
1027.1
1027.1
1027.1
1027.1
1027.1
1027.1
1027.1
1027.1
1027.1
1027.1
1027.1
1027.1
1027.1
1.16205
1.16252
1.16371
1.16446
1.16564
1.16653
1.16725
1.16784
1.16829
1.16858
1.16873
1.16882
1.16886
1.16888
1.16889
1.1689
1.1689
1.1689
1.16891
1.16891
1.16891
1.16891
1.16891
1.16891
1.16891
1.16891
1.16891
1.16892
1.16892
1.16892
1.16892
1.16892
1.16892
1.16892
1.16893
1.16893
1.16893
1.16893
1.16893
1.16893
1.16894
1.16895
1.16907
1.16967
1.17112
1.17457
1.18547
1.24
1.2832
1.2855
1.28378
1.28313
1.28302
1.28322
1.2833
1.28059
1.27597
1.28667
1.33559
80.4198
1014.92
1027.02
1027.03
1027.05
1027.06
1027.08
1027.08
1027.09
1027.09
1027.1
1027.1
1027.1
1027.09
1027.1
1027.09
1027.1
1027.1
1027.1
1027.1
1027.1
1027.1
1027.1
1027.1
1027.1
1027.1
1027.1
1027.1
1027.1
1027.1
1027.1
1027.1
1027.1
1027.1
1027.1
1027.1
1027.1
1.162
1.16217
1.16337
1.16407
1.16518
1.16606
1.16712
1.16772
1.16818
1.16849
1.16869
1.1688
1.16886
1.16889
1.1689
1.1689
1.16891
1.16891
1.16891
1.16891
1.16891
1.16891
1.16891
1.16892
1.16892
1.16892
1.16892
1.16892
1.16892
1.16892
1.16892
1.16892
1.16893
1.16893
1.16893
1.16893
1.16893
1.16893
1.16893
1.16893
1.16894
1.16896
1.16907
1.16951
1.17047
1.17273
1.18028
1.23037
1.28214
1.28702
1.28547
1.28404
1.28396
1.28511
1.28704
1.28708
1.28578
1.32258
1.30321
172.92
1021.06
1025.79
1025.84
1026.1
1026.25
1026.43
1026.62
1026.78
1026.89
1026.96
1026.99
1026.99
1026.98
1026.98
1026.98
1026.98
1026.97
1027
1027.03
1027.06
1027.08
1027.09
1027.09
1027.09
1027.1
1027.1
1027.1
1027.1
1027.1
1027.1
1027.1
1027.1
1027.1
1027.1
1027.1
1027.1
1.16198
1.16197
1.16304
1.16367
1.1648
1.16557
1.1668
1.16757
1.16805
1.16841
1.16864
1.16878
1.16885
1.16888
1.16889
1.1689
1.1689
1.1689
1.1689
1.1689
1.16891
1.16891
1.16891
1.16891
1.16891
1.16891
1.16891
1.16892
1.16892
1.16892
1.16892
1.16892
1.16892
1.16892
1.16892
1.16892
1.16892
1.16893
1.16893
1.16893
1.16893
1.16895
1.16905
1.16939
1.17017
1.17173
1.17551
1.19965
1.26505
1.28809
1.28959
1.28736
1.2858
1.28589
1.28853
1.29068
1.29252
1.29417
1.27554
198.991
1012.78
1021.42
1021.3
1021.71
1022.13
1022.67
1023.38
1024.1
1024.84
1025.45
1025.84
1025.91
1025.76
1025.63
1025.52
1025.46
1025.43
1025.66
1025.85
1026.07
1026.24
1026.35
1026.43
1026.54
1026.74
1026.88
1027
1027.07
1027.09
1027.1
1027.1
1027.1
1027.1
1027.1
1027.1
1027.1
1.16198
1.16192
1.16278
1.1633
1.16455
1.16527
1.16628
1.16738
1.16795
1.16834
1.16859
1.16877
1.16885
1.16888
1.1689
1.1689
1.1689
1.16891
1.16891
1.16891
1.16891
1.16891
1.16891
1.16891
1.16891
1.16892
1.16892
1.16892
1.16892
1.16892
1.16892
1.16892
1.16892
1.16892
1.16892
1.16893
1.16893
1.16893
1.16893
1.16893
1.16893
1.16895
1.16903
1.16929
1.16998
1.17172
1.1762
1.18504
1.22878
1.27709
1.29244
1.29427
1.29016
1.28537
1.28318
1.28262
1.28328
1.28509
1.27554
213.219
1002.67
1015.4
1014.67
1014.56
1015.31
1015.87
1017.08
1018.33
1020.02
1021.33
1022.23
1022.71
1022.84
1022.56
1022.27
1021.95
1021.66
1021.43
1021.27
1021.15
1021.11
1021.16
1021.1
1021.49
1021.97
1022.69
1023.54
1024.59
1025.62
1026.48
1026.96
1027.1
1027.1
1027.1
1027.1
1027.1
1.16199
1.16204
1.16263
1.16298
1.16435
1.16515
1.1659
1.16717
1.16787
1.1683
1.16857
1.16876
1.16885
1.16888
1.16889
1.1689
1.1689
1.16891
1.16891
1.16891
1.16891
1.16891
1.16891
1.16892
1.16892
1.16892
1.16892
1.16892
1.16892
1.16892
1.16892
1.16893
1.16893
1.16893
1.16893
1.16893
1.16893
1.16893
1.16893
1.16894
1.16894
1.16896
1.16902
1.16924
1.16991
1.1718
1.17698
1.18455
1.21063
1.25446
1.28714
1.29698
1.29775
1.29411
1.28785
1.28338
1.28121
1.28108
1.27554
208.904
994.468
1010.51
1009.42
1009.28
1009.49
1009.49
1010.13
1010.86
1012.16
1013.33
1014.4
1015.38
1016.1
1016.25
1015.85
1015.53
1015.25
1015.09
1014.96
1014.9
1015.25
1015.44
1015.49
1015.12
1014.72
1014.18
1013.5
1012.72
1012.03
1011.52
1012.09
1013.43
1015.55
1018.38
1021.38
1023.83
1.16172
1.16208
1.1625
1.16268
1.16407
1.16507
1.16582
1.16686
1.16778
1.16826
1.16854
1.16874
1.16884
1.16887
1.16889
1.1689
1.1689
1.1689
1.1689
1.1689
1.1689
1.16891
1.16891
1.16891
1.16891
1.16891
1.16892
1.16892
1.16892
1.16892
1.16892
1.16892
1.16892
1.16892
1.16893
1.16893
1.16893
1.16893
1.16893
1.16893
1.16894
1.16895
1.169
1.16923
1.16996
1.17232
1.17925
1.18904
1.20166
1.23729
1.27382
1.29346
1.29911
1.29978
1.29498
1.29334
1.28985
1.28523
1.27554
229.709
1000.79
1013.3
1013.13
1013.9
1014.77
1015.6
1016.72
1017.78
1018.79
1019.6
1020.13
1020.46
1020.8
1021.26
1021.86
1022.62
1023.5
1024.35
1025.06
1025.59
1025.89
1025.96
1025.85
1025.75
1025.64
1025.52
1025.37
1025.25
1025.18
1025.24
1025.48
1025.87
1026.26
1026.73
1027.01
1027.1
1.1615
1.16171
1.16209
1.16235
1.16362
1.16491
1.1662
1.16669
1.16767
1.16826
1.16854
1.16873
1.16883
1.16887
1.16889
1.1689
1.1689
1.16891
1.16891
1.16891
1.16891
1.16891
1.16891
1.16891
1.16892
1.16892
1.16892
1.16892
1.16892
1.16892
1.16892
1.16892
1.16892
1.16893
1.16893
1.16893
1.16893
1.16893
1.16893
1.16893
1.16894
1.16895
1.16899
1.16923
1.17009
1.17301
1.1808
1.1911
1.19908
1.21619
1.24989
1.28071
1.29494
1.30224
1.29726
1.29751
1.29946
1.28728
1.27554
241.871
1011.49
1020.05
1020.45
1021.27
1021.97
1022.65
1023.27
1023.87
1024.41
1024.88
1025.25
1025.59
1025.94
1026.29
1026.6
1026.82
1026.97
1027.05
1027.08
1027.09
1027.09
1027.09
1027.09
1027.09
1027.09
1027.09
1027.08
1027.08
1027.09
1027.09
1027.09
1027.09
1027.1
1027.1
1027.1
1027.1
1.16124
1.16146
1.16165
1.16197
1.1632
1.16456
1.16618
1.16672
1.16768
1.16829
1.16856
1.16872
1.16881
1.16886
1.16888
1.16889
1.1689
1.1689
1.1689
1.1689
1.16891
1.16891
1.16891
1.16891
1.16891
1.16892
1.16892
1.16892
1.16892
1.16892
1.16892
1.16892
1.16892
1.16893
1.16893
1.16893
1.16893
1.16893
1.16893
1.16893
1.16894
1.16895
1.16899
1.16925
1.17014
1.17272
1.18004
1.1922
1.20234
1.20997
1.22859
1.25608
1.27969
1.29591
1.29162
1.28884
1.29456
1.3218
1.27554
211.096
1021.38
1025.63
1025.83
1026.12
1026.28
1026.42
1026.52
1026.65
1026.77
1026.87
1026.95
1027.01
1027.05
1027.08
1027.09
1027.1
1027.1
1027.1
1027.1
1027.1
1027.1
1027.1
1027.1
1027.1
1027.1
1027.1
1027.1
1027.1
1027.1
1027.1
1027.1
1027.1
1027.1
1027.1
1027.1
1027.1
1.16111
1.16128
1.16125
1.16145
1.16252
1.16393
1.16582
1.1671
1.16776
1.16839
1.16862
1.16873
1.16878
1.16883
1.16886
1.16889
1.1689
1.1689
1.1689
1.16891
1.16891
1.16891
1.16891
1.16891
1.16891
1.16892
1.16892
1.16892
1.16892
1.16892
1.16892
1.16893
1.16893
1.16893
1.16893
1.16893
1.16893
1.16893
1.16894
1.16894
1.16894
1.16895
1.169
1.16932
1.17031
1.17239
1.17776
1.18892
1.20233
1.21483
1.22233
1.23648
1.25869
1.28425
1.28937
1.28462
1.28315
1.33351
1.27554
152.768
1023.77
1027.04
1027.06
1027.07
1027.08
1027.08
1027.08
1027.09
1027.09
1027.09
1027.09
1027.1
1027.1
1027.1
1027.1
1027.1
1027.1
1027.1
1027.1
1027.1
1027.1
1027.1
1027.1
1027.1
1027.1
1027.1
1027.1
1027.1
1027.1
1027.1
1027.1
1027.1
1027.1
1027.1
1027.1
1027.1
1.16088
1.16124
1.16116
1.16116
1.16182
1.16305
1.16507
1.16706
1.16784
1.16844
1.16866
1.16876
1.1688
1.16883
1.16887
1.1689
1.16891
1.16891
1.16891
1.16891
1.16891
1.16891
1.16892
1.16892
1.16892
1.16892
1.16892
1.16892
1.16892
1.16893
1.16893
1.16893
1.16893
1.16893
1.16893
1.16893
1.16894
1.16894
1.16894
1.16894
1.16895
1.16896
1.16902
1.16941
1.17064
1.17276
1.17721
1.18735
1.20211
1.21629
1.22508
1.23277
1.24526
1.26896
1.28453
1.28423
1.27738
1.29971
1.38483
77.3133
991.295
1027.09
1027.09
1027.09
1027.09
1027.1
1027.1
1027.1
1027.1
1027.1
1027.1
1027.1
1027.1
1027.1
1027.1
1027.1
1027.1
1027.1
1027.1
1027.1
1027.1
1027.1
1027.1
1027.1
1027.1
1027.1
1027.1
1027.1
1027.1
1027.1
1027.1
1027.1
1027.1
1027.1
1027.1
1027.1
1.16086
1.16144
1.16133
1.16133
1.16146
1.16246
1.16404
1.16611
1.16792
1.16845
1.16864
1.16874
1.16878
1.16882
1.16886
1.16891
1.16891
1.16891
1.16891
1.16891
1.16892
1.16892
1.16892
1.16892
1.16892
1.16892
1.16892
1.16893
1.16893
1.16893
1.16893
1.16893
1.16893
1.16893
1.16893
1.16893
1.16894
1.16894
1.16894
1.16894
1.16894
1.16896
1.16903
1.16945
1.17088
1.1736
1.17802
1.18727
1.20094
1.21652
1.23019
1.23983
1.24667
1.26378
1.27599
1.28357
1.27383
1.29095
1.71891
87.262
1012.36
1027.09
1027.09
1027.1
1027.1
1027.1
1027.1
1027.1
1027.1
1027.1
1027.1
1027.1
1027.1
1027.1
1027.1
1027.1
1027.1
1027.1
1027.1
1027.1
1027.1
1027.1
1027.1
1027.1
1027.1
1027.1
1027.1
1027.1
1027.1
1027.1
1027.1
1027.1
1027.1
1027.1
1027.1
1027.1
1.16092
1.16195
1.1619
1.16196
1.16186
1.16229
1.16333
1.16524
1.16781
1.16845
1.16862
1.16871
1.16875
1.1688
1.16885
1.1689
1.16891
1.16891
1.16891
1.16891
1.16891
1.16892
1.16892
1.16892
1.16892
1.16892
1.16892
1.16892
1.16893
1.16893
1.16893
1.16893
1.16893
1.16893
1.16893
1.16893
1.16893
1.16894
1.16894
1.16894
1.16894
1.16895
1.16903
1.16944
1.17099
1.17455
1.1798
1.18834
1.20079
1.21732
1.23253
1.24162
1.24861
1.25897
1.26324
1.27833
1.26979
1.28968
2.10896
88.7598
1012.26
1027.07
1027.09
1027.1
1027.1
1027.1
1027.1
1027.1
1027.1
1027.1
1027.1
1027.1
1027.1
1027.1
1027.1
1027.1
1027.1
1027.1
1027.1
1027.1
1027.1
1027.1
1027.1
1027.1
1027.1
1027.1
1027.1
1027.1
1027.1
1027.1
1027.1
1027.1
1027.1
1027.1
1027.1
1027.1
1.16034
1.16087
1.16088
1.16216
1.16282
1.16271
1.16341
1.1652
1.16794
1.16848
1.1686
1.16867
1.16872
1.16877
1.16884
1.16891
1.16892
1.16892
1.16892
1.16892
1.16892
1.16892
1.16892
1.16893
1.16893
1.16893
1.16893
1.16893
1.16893
1.16893
1.16894
1.16894
1.16894
1.16894
1.16894
1.16894
1.16894
1.16894
1.16894
1.16895
1.16895
1.16896
1.16902
1.16943
1.17118
1.1757
1.18241
1.19014
1.20024
1.21866
1.23935
1.24766
1.25218
1.2585
1.26165
1.27564
1.26774
1.28589
2.50906
60.5684
981.35
1026.73
1027.09
1027.1
1027.1
1027.1
1027.1
1027.1
1027.1
1027.1
1027.1
1027.1
1027.1
1027.1
1027.1
1027.1
1027.1
1027.1
1027.1
1027.1
1027.1
1027.1
1027.1
1027.1
1027.1
1027.1
1027.1
1027.1
1027.1
1027.1
1027.1
1027.1
1027.1
1027.1
1027.1
1027.1
1.16225
1.16328
1.16383
1.16436
1.16507
1.16644
1.16742
1.16815
1.16861
1.16876
1.16881
1.16885
1.16888
1.1689
1.16892
1.16892
1.16892
1.16892
1.16892
1.16892
1.16893
1.16893
1.16893
1.16893
1.16893
1.16893
1.16893
1.16893
1.16894
1.16894
1.16894
1.16894
1.16894
1.16894
1.16894
1.16895
1.16895
1.16895
1.16895
1.16895
1.16896
1.16896
1.169
1.16975
1.17259
1.17701
1.18332
1.20071
1.23978
1.27326
1.27961
1.28175
1.28192
1.28255
1.28209
1.28267
1.28113
1.28828
2.08104
67.512
994.853
1026.96
1027.1
1027.1
1027.1
1027.1
1027.1
1027.1
1027.1
1027.1
1027.1
1027.1
1027.1
1027.1
1027.1
1027.1
1027.1
1027.1
1027.1
1027.1
1027.1
1027.1
1027.1
1027.1
1027.1
1027.1
1027.1
1027.1
1027.1
1027.1
1027.1
1027.1
1027.1
1027.1
1027.1
1027.1
1.1616
1.1633
1.1645
1.16513
1.16595
1.16683
1.16755
1.16803
1.16833
1.16851
1.16867
1.16878
1.16885
1.16888
1.1689
1.16891
1.16892
1.16892
1.16892
1.16892
1.16892
1.16893
1.16893
1.16893
1.16893
1.16893
1.16893
1.16893
1.16893
1.16893
1.16894
1.16894
1.16894
1.16894
1.16894
1.16894
1.16894
1.16894
1.16894
1.16895
1.16896
1.16898
1.16906
1.16963
1.17196
1.17755
1.18802
1.21038
1.26465
1.28305
1.28386
1.28367
1.28294
1.28361
1.28208
1.28161
1.27801
1.29502
1.54298
77.5923
1004.82
1027.09
1027.1
1027.1
1027.1
1027.1
1027.1
1027.1
1027.1
1027.1
1027.1
1027.1
1027.1
1027.1
1027.1
1027.1
1027.1
1027.1
1027.1
1027.1
1027.1
1027.1
1027.1
1027.1
1027.1
1027.1
1027.1
1027.1
1027.1
1027.1
1027.1
1027.1
1027.1
1027.1
1027.1
1027.1
1.16119
1.16252
1.16441
1.16516
1.16586
1.16647
1.16713
1.16764
1.16807
1.16837
1.16858
1.16875
1.16883
1.16888
1.1689
1.16891
1.16891
1.16892
1.16892
1.16892
1.16892
1.16892
1.16892
1.16892
1.16892
1.16893
1.16893
1.16893
1.16893
1.16893
1.16893
1.16893
1.16893
1.16894
1.16894
1.16894
1.16894
1.16894
1.16894
1.16894
1.16895
1.16897
1.16908
1.16955
1.1709
1.17357
1.18142
1.20981
1.2765
1.28486
1.28366
1.2829
1.2827
1.28633
1.28482
1.28276
1.2755
1.29423
1.3746
46.5479
989.323
1027.09
1027.09
1027.1
1027.1
1027.09
1027.1
1027.1
1027.1
1027.1
1027.1
1027.1
1027.1
1027.1
1027.1
1027.1
1027.1
1027.1
1027.1
1027.1
1027.1
1027.1
1027.1
1027.1
1027.1
1027.1
1027.1
1027.1
1027.1
1027.1
1027.1
1027.1
1027.1
1027.1
1027.1
1027.1
1.16097
1.16167
1.16351
1.16439
1.1652
1.16598
1.16677
1.16739
1.16794
1.16831
1.16855
1.16874
1.16883
1.16887
1.16889
1.16891
1.16891
1.16891
1.16891
1.16892
1.16892
1.16892
1.16892
1.16892
1.16892
1.16892
1.16892
1.16893
1.16893
1.16893
1.16893
1.16893
1.16893
1.16893
1.16893
1.16893
1.16894
1.16894
1.16894
1.16894
1.16895
1.16897
1.16905
1.16944
1.17042
1.17211
1.17534
1.19026
1.27468
1.28532
1.28396
1.28281
1.28572
1.28776
1.28617
1.2862
1.27803
1.2963
1.42236
65.3713
1009.35
1027
1026.99
1027.01
1027.02
1027.03
1027.04
1027.07
1027.08
1027.08
1027.09
1027.09
1027.08
1027.08
1027.08
1027.08
1027.08
1027.09
1027.09
1027.09
1027.09
1027.1
1027.1
1027.1
1027.1
1027.1
1027.1
1027.1
1027.1
1027.1
1027.1
1027.1
1027.1
1027.1
1027.1
1027.1
1.16085
1.16106
1.16281
1.16388
1.16473
1.16564
1.16655
1.16725
1.16786
1.16828
1.16854
1.16873
1.16882
1.16887
1.16889
1.16891
1.16891
1.16891
1.16891
1.16891
1.16892
1.16892
1.16892
1.16892
1.16892
1.16892
1.16892
1.16892
1.16893
1.16893
1.16893
1.16893
1.16893
1.16893
1.16893
1.16893
1.16893
1.16894
1.16894
1.16894
1.16895
1.16896
1.16904
1.16938
1.17027
1.17191
1.17461
1.18226
1.26031
1.28671
1.28535
1.28447
1.28726
1.2878
1.28057
1.28515
1.27939
1.3038
1.3596
152.382
1014.67
1024.16
1023.94
1024.21
1024.34
1024.88
1025.2
1025.7
1026.09
1026.41
1026.62
1026.68
1026.58
1026.42
1026.24
1026.14
1026.13
1026.22
1026.37
1026.57
1026.73
1026.86
1026.96
1027.03
1027.07
1027.09
1027.1
1027.1
1027.1
1027.1
1027.1
1027.1
1027.1
1027.1
1027.1
1027.1
1.16077
1.16066
1.16211
1.16341
1.16435
1.1654
1.16642
1.16717
1.16782
1.16827
1.16853
1.16873
1.16882
1.16887
1.16889
1.16891
1.16891
1.16891
1.16891
1.16891
1.16891
1.16891
1.16892
1.16892
1.16892
1.16892
1.16892
1.16892
1.16892
1.16893
1.16893
1.16893
1.16893
1.16893
1.16893
1.16893
1.16893
1.16893
1.16894
1.16894
1.16895
1.16896
1.16903
1.16935
1.17024
1.17189
1.1753
1.1794
1.24538
1.29066
1.28907
1.28679
1.28575
1.28548
1.28541
1.2893
1.29411
1.31497
1.3195
182.916
996.287
1012.75
1011.45
1011.29
1011.86
1012.64
1013.31
1014.23
1015.26
1016.24
1016.79
1017.1
1017.02
1015.3
1014.01
1012.99
1012.64
1013.23
1014.51
1015.69
1017.16
1018.86
1020.71
1022.25
1023.67
1024.91
1025.88
1026.54
1026.89
1027.05
1027.1
1027.1
1027.1
1027.1
1027.1
1027.1
1.16073
1.16041
1.16142
1.16277
1.16401
1.16521
1.16633
1.16712
1.16781
1.16826
1.16853
1.16873
1.16882
1.16887
1.16889
1.16891
1.16891
1.16891
1.16891
1.16891
1.16891
1.16891
1.16892
1.16892
1.16892
1.16892
1.16892
1.16892
1.16892
1.16892
1.16893
1.16893
1.16893
1.16893
1.16893
1.16893
1.16893
1.16893
1.16894
1.16894
1.16895
1.16896
1.16903
1.16934
1.17024
1.17218
1.17629
1.18788
1.26288
1.29836
1.29652
1.29556
1.29429
1.29358
1.29398
1.29856
1.3032
1.31154
1.28909
195.014
981.909
1002.44
999.003
998
997.922
996.979
996.042
994.753
993.106
991.404
989.975
989.128
988.547
987.924
986.63
985.564
985.255
985.344
985.268
984.554
984.052
984.413
985.386
987.061
989.552
992.933
997.455
1003.28
1010.09
1017.32
1023.63
1026.52
1026.53
1026.65
1026.71
1026.79
1.16074
1.16026
1.16086
1.16199
1.16355
1.16495
1.16626
1.16709
1.1678
1.16826
1.16853
1.16873
1.16882
1.16887
1.16889
1.1689
1.16891
1.16891
1.16891
1.16891
1.16891
1.16891
1.16892
1.16892
1.16892
1.16892
1.16892
1.16892
1.16892
1.16893
1.16893
1.16893
1.16893
1.16893
1.16893
1.16893
1.16893
1.16893
1.16894
1.16894
1.16894
1.16896
1.16902
1.16933
1.17029
1.17258
1.17724
1.195
1.27315
1.3092
1.3071
1.30102
1.2976
1.29622
1.29595
1.29715
1.2953
1.30046
1.27554
172.425
987.571
1009.16
1007.53
1006.81
1005.42
1003.16
1000.67
998.42
995.73
992.964
990.023
986.681
983.755
981.656
980.519
979.85
979.044
977.842
975.934
973.483
970.303
966.446
961.958
957.076
951.59
945.04
937.405
928.662
918.902
909.543
899.611
887.399
872.99
851.003
801.92
607.349
1.16069
1.16017
1.16045
1.16123
1.1628
1.1645
1.16614
1.16707
1.16779
1.16827
1.16854
1.16873
1.16883
1.16887
1.16889
1.16891
1.16891
1.16891
1.16891
1.16891
1.16891
1.16892
1.16892
1.16892
1.16892
1.16892
1.16892
1.16892
1.16893
1.16893
1.16893
1.16893
1.16893
1.16893
1.16893
1.16893
1.16893
1.16894
1.16894
1.16894
1.16895
1.16896
1.16902
1.16933
1.17039
1.17287
1.17775
1.18784
1.23104
1.30923
1.30917
1.30521
1.30101
1.29821
1.30157
1.3164
1.32225
1.3193
1.28717
178.133
1002.4
1015.93
1015.43
1015.11
1014.06
1013.12
1012.49
1012.54
1014.87
1017.33
1020.29
1022.36
1023.63
1024.87
1025.59
1025.73
1025.81
1025.84
1025.83
1025.77
1025.68
1025.54
1025.31
1025.01
1024.61
1024.17
1023.58
1023.06
1023.28
1022.79
1023.98
1025.79
1026.75
1027.01
1027.05
1027.09
1.16059
1.16011
1.16019
1.16059
1.16181
1.16377
1.16598
1.16706
1.16782
1.16829
1.16855
1.16874
1.16883
1.16887
1.16889
1.16891
1.16891
1.16891
1.16891
1.16892
1.16892
1.16892
1.16892
1.16892
1.16892
1.16892
1.16893
1.16893
1.16893
1.16893
1.16893
1.16893
1.16893
1.16893
1.16893
1.16893
1.16894
1.16894
1.16894
1.16894
1.16895
1.16896
1.16902
1.16933
1.17043
1.17306
1.17802
1.18619
1.20079
1.24738
1.30629
1.30966
1.31003
1.30661
1.29866
1.32087
1.33623
1.31585
1.27554
186.167
1014.41
1022.26
1022.42
1022.72
1022.98
1023.31
1024.11
1024.91
1025.8
1026.4
1026.76
1026.91
1027
1027.05
1027.08
1027.09
1027.09
1027.09
1027.09
1027.09
1027.09
1027.09
1027.09
1027.09
1027.09
1027.09
1027.09
1027.09
1027.09
1027.09
1027.1
1027.1
1027.1
1027.1
1027.1
1027.1
1.16053
1.16009
1.16007
1.16024
1.16096
1.16279
1.16547
1.16699
1.16784
1.16831
1.16857
1.16875
1.16884
1.16887
1.16889
1.16891
1.16891
1.16891
1.16891
1.16892
1.16892
1.16892
1.16892
1.16892
1.16892
1.16892
1.16893
1.16893
1.16893
1.16893
1.16893
1.16893
1.16893
1.16893
1.16894
1.16894
1.16894
1.16894
1.16894
1.16894
1.16895
1.16896
1.16902
1.16933
1.17047
1.17327
1.17832
1.18628
1.19888
1.21673
1.25267
1.28267
1.30165
1.3113
1.30622
1.30963
1.32928
1.34465
1.28026
166.359
1023.13
1026.31
1026.43
1026.62
1026.71
1026.82
1026.92
1026.99
1027.04
1027.07
1027.09
1027.09
1027.09
1027.1
1027.1
1027.1
1027.1
1027.1
1027.1
1027.1
1027.1
1027.1
1027.1
1027.1
1027.1
1027.1
1027.1
1027.1
1027.1
1027.1
1027.1
1027.1
1027.1
1027.1
1027.1
1027.1
1.16047
1.16009
1.16004
1.16012
1.16055
1.16208
1.16462
1.16674
1.16786
1.16834
1.16859
1.16876
1.16884
1.16886
1.16888
1.16891
1.16891
1.16891
1.16891
1.16892
1.16892
1.16892
1.16892
1.16892
1.16892
1.16892
1.16893
1.16893
1.16893
1.16893
1.16893
1.16893
1.16893
1.16893
1.16893
1.16894
1.16894
1.16894
1.16894
1.16894
1.16895
1.16896
1.16902
1.16933
1.17053
1.17354
1.17874
1.18708
1.19948
1.2165
1.23328
1.24182
1.2712
1.29546
1.30149
1.30171
1.31273
1.36039
1.37909
130.764
1024.65
1027.07
1027.07
1027.08
1027.09
1027.09
1027.09
1027.09
1027.09
1027.1
1027.1
1027.1
1027.1
1027.1
1027.1
1027.1
1027.1
1027.1
1027.1
1027.1
1027.1
1027.1
1027.1
1027.1
1027.1
1027.1
1027.1
1027.1
1027.1
1027.1
1027.1
1027.1
1027.1
1027.1
1027.1
1027.1
1.16049
1.16027
1.16006
1.1601
1.16015
1.16103
1.16308
1.16581
1.16784
1.16838
1.16861
1.16877
1.16883
1.16885
1.16888
1.16891
1.16891
1.16891
1.16891
1.16892
1.16892
1.16892
1.16892
1.16892
1.16892
1.16892
1.16893
1.16893
1.16893
1.16893
1.16893
1.16893
1.16893
1.16893
1.16893
1.16893
1.16894
1.16894
1.16894
1.16894
1.16895
1.16896
1.16902
1.16934
1.17057
1.17375
1.17916
1.18823
1.20066
1.21809
1.23904
1.25164
1.25522
1.27013
1.28505
1.29942
1.29775
1.32377
1.49223
68.1544
999.798
1027.09
1027.09
1027.09
1027.09
1027.1
1027.1
1027.1
1027.1
1027.1
1027.1
1027.1
1027.1
1027.1
1027.1
1027.1
1027.1
1027.1
1027.1
1027.1
1027.1
1027.1
1027.1
1027.1
1027.1
1027.1
1027.1
1027.1
1027.1
1027.1
1027.1
1027.1
1027.1
1027.1
1027.1
1027.1
1.16066
1.16087
1.1604
1.16043
1.16006
1.1603
1.16116
1.16369
1.16741
1.16843
1.16863
1.16877
1.1688
1.16882
1.16886
1.1689
1.16891
1.16891
1.16891
1.16891
1.16891
1.16892
1.16892
1.16892
1.16892
1.16892
1.16892
1.16892
1.16892
1.16892
1.16893
1.16893
1.16893
1.16893
1.16893
1.16893
1.16893
1.16893
1.16893
1.16894
1.16894
1.16895
1.16902
1.16939
1.17072
1.17404
1.17998
1.1896
1.20186
1.21903
1.23978
1.25451
1.26252
1.27001
1.2749
1.29346
1.27532
1.32688
1.792
52.3307
997.467
1027.09
1027.09
1027.09
1027.09
1027.1
1027.1
1027.1
1027.1
1027.1
1027.1
1027.1
1027.1
1027.1
1027.1
1027.1
1027.1
1027.1
1027.1
1027.1
1027.1
1027.1
1027.1
1027.1
1027.1
1027.1
1027.1
1027.1
1027.1
1027.1
1027.1
1027.1
1027.1
1027.1
1027.1
1027.1
1.16084
1.16122
1.16096
1.16102
1.16048
1.16028
1.16043
1.16189
1.16615
1.16846
1.16864
1.16872
1.16875
1.16877
1.16883
1.1689
1.16891
1.16891
1.16891
1.16891
1.16891
1.16891
1.16892
1.16892
1.16892
1.16892
1.16892
1.16892
1.16892
1.16892
1.16892
1.16892
1.16892
1.16892
1.16892
1.16893
1.16893
1.16893
1.16893
1.16893
1.16893
1.16895
1.16901
1.16941
1.17091
1.17469
1.18133
1.19065
1.20214
1.21789
1.23721
1.25084
1.25699
1.25984
1.26091
1.27734
1.26774
1.31758
2.13493
46.1701
987.152
1027.09
1027.09
1027.09
1027.1
1027.1
1027.1
1027.1
1027.1
1027.1
1027.1
1027.1
1027.1
1027.1
1027.1
1027.1
1027.1
1027.1
1027.1
1027.1
1027.1
1027.1
1027.1
1027.1
1027.1
1027.1
1027.1
1027.1
1027.1
1027.1
1027.1
1027.1
1027.1
1027.1
1027.1
1027.1
1.16031
1.16085
1.16085
1.16134
1.16078
1.16047
1.16053
1.16168
1.16567
1.16847
1.16863
1.16869
1.16872
1.16875
1.16883
1.1689
1.16891
1.16891
1.16892
1.16892
1.16892
1.16892
1.16892
1.16892
1.16892
1.16892
1.16893
1.16893
1.16893
1.16893
1.16893
1.16893
1.16893
1.16893
1.16894
1.16894
1.16894
1.16894
1.16894
1.16894
1.16895
1.16896
1.16901
1.16939
1.17106
1.17548
1.18278
1.19111
1.20104
1.21773
1.23933
1.25064
1.25495
1.25866
1.25989
1.27515
1.26774
1.30708
2.39599
59.4846
961.24
1026.53
1027.09
1027.1
1027.1
1027.1
1027.1
1027.1
1027.1
1027.1
1027.1
1027.1
1027.1
1027.1
1027.1
1027.1
1027.1
1027.1
1027.1
1027.1
1027.1
1027.1
1027.1
1027.1
1027.1
1027.1
1027.1
1027.1
1027.1
1027.1
1027.1
1027.1
1027.1
1027.1
1027.1
1027.1
1.16167
1.16264
1.1636
1.16428
1.16508
1.16641
1.16743
1.16825
1.16866
1.16878
1.16882
1.16886
1.16888
1.1689
1.16891
1.16891
1.16891
1.16891
1.16892
1.16892
1.16892
1.16892
1.16892
1.16892
1.16892
1.16892
1.16893
1.16893
1.16893
1.16893
1.16893
1.16893
1.16893
1.16894
1.16894
1.16894
1.16894
1.16894
1.16894
1.16894
1.16895
1.16895
1.16899
1.16959
1.17223
1.17647
1.18177
1.1924
1.22245
1.25565
1.26882
1.27474
1.27667
1.27801
1.27824
1.27931
1.27717
1.2995
2.06309
68.6209
991.737
1027.01
1027.1
1027.1
1027.1
1027.1
1027.1
1027.1
1027.1
1027.1
1027.1
1027.1
1027.1
1027.1
1027.1
1027.1
1027.1
1027.1
1027.1
1027.1
1027.1
1027.1
1027.1
1027.1
1027.1
1027.1
1027.1
1027.1
1027.1
1027.1
1027.1
1027.1
1027.1
1027.1
1027.1
1027.1
1.16073
1.16159
1.16424
1.16482
1.16553
1.1667
1.1677
1.16828
1.16854
1.16865
1.16874
1.16881
1.16886
1.16889
1.1689
1.16891
1.16891
1.16891
1.16891
1.16892
1.16892
1.16892
1.16892
1.16892
1.16892
1.16893
1.16893
1.16893
1.16893
1.16893
1.16893
1.16893
1.16893
1.16893
1.16893
1.16893
1.16894
1.16894
1.16894
1.16894
1.16895
1.16897
1.16902
1.16955
1.1719
1.17638
1.18304
1.19485
1.22256
1.26009
1.27221
1.27697
1.27625
1.27607
1.27465
1.27438
1.27403
1.34426
2.01386
124.127
1012.36
1027.08
1027.1
1027.1
1027.1
1027.1
1027.1
1027.1
1027.1
1027.1
1027.1
1027.1
1027.1
1027.1
1027.1
1027.1
1027.1
1027.1
1027.1
1027.1
1027.1
1027.1
1027.1
1027.1
1027.1
1027.1
1027.1
1027.1
1027.1
1027.1
1027.1
1027.1
1027.1
1027.1
1027.1
1027.1
1.16049
1.16085
1.16436
1.16522
1.16588
1.16678
1.16764
1.16813
1.16836
1.16852
1.16867
1.16878
1.16885
1.16888
1.16889
1.1689
1.1689
1.1689
1.16891
1.16891
1.16891
1.16891
1.16891
1.16891
1.16892
1.16892
1.16892
1.16892
1.16892
1.16892
1.16892
1.16892
1.16892
1.16892
1.16892
1.16892
1.16893
1.16893
1.16893
1.16893
1.16894
1.16897
1.16906
1.16958
1.17124
1.17465
1.1819
1.19587
1.23342
1.27146
1.27809
1.27967
1.27864
1.27532
1.2695
1.26742
1.267
1.34224
1.85106
59.3912
1003.68
1027.09
1027.1
1027.1
1027.1
1027.1
1027.1
1027.1
1027.1
1027.1
1027.1
1027.1
1027.1
1027.1
1027.1
1027.1
1027.1
1027.1
1027.1
1027.1
1027.1
1027.1
1027.1
1027.1
1027.1
1027.1
1027.1
1027.1
1027.1
1027.1
1027.1
1027.1
1027.1
1027.1
1027.1
1027.1
1.16041
1.16058
1.164
1.16512
1.16585
1.16674
1.16748
1.16792
1.16823
1.16846
1.16865
1.16878
1.16884
1.16888
1.16889
1.1689
1.1689
1.16891
1.16891
1.16891
1.16891
1.16891
1.16891
1.16891
1.16891
1.16891
1.16891
1.16892
1.16892
1.16892
1.16892
1.16892
1.16892
1.16892
1.16892
1.16892
1.16893
1.16893
1.16893
1.16893
1.16894
1.16897
1.16907
1.1696
1.17101
1.17373
1.1794
1.19109
1.23935
1.27061
1.27624
1.27959
1.27623
1.27202
1.26676
1.26668
1.26445
1.32411
1.58814
60.4083
998.297
1027.07
1027.07
1027.08
1027.08
1027.08
1027.08
1027.09
1027.09
1027.09
1027.1
1027.1
1027.09
1027.1
1027.1
1027.1
1027.1
1027.1
1027.1
1027.1
1027.1
1027.1
1027.1
1027.1
1027.1
1027.1
1027.1
1027.1
1027.1
1027.1
1027.1
1027.1
1027.1
1027.1
1027.1
1027.1
1.16042
1.16057
1.16283
1.16508
1.16576
1.16663
1.16731
1.16777
1.16816
1.16843
1.16862
1.16877
1.16884
1.16887
1.16889
1.1689
1.1689
1.1689
1.16891
1.16891
1.16891
1.16891
1.16891
1.16891
1.16891
1.16891
1.16892
1.16892
1.16892
1.16892
1.16892
1.16892
1.16892
1.16892
1.16892
1.16892
1.16892
1.16893
1.16893
1.16893
1.16895
1.16898
1.16907
1.16955
1.17089
1.17332
1.17651
1.17993
1.21582
1.25761
1.27104
1.27977
1.27598
1.27736
1.27651
1.27505
1.26782
1.30706
1.48104
134.687
1015.48
1026.25
1026.34
1026.52
1026.48
1026.45
1026.4
1026.39
1026.53
1026.67
1026.8
1026.89
1026.93
1026.92
1026.92
1026.92
1026.96
1027.02
1027.06
1027.07
1027.07
1027.08
1027.09
1027.09
1027.1
1027.1
1027.1
1027.1
1027.1
1027.1
1027.1
1027.1
1027.1
1027.1
1027.1
1027.1
1.16051
1.16058
1.16236
1.16488
1.1656
1.16654
1.16713
1.16765
1.1681
1.1684
1.16861
1.16875
1.16883
1.16887
1.16889
1.16889
1.1689
1.1689
1.1689
1.1689
1.16891
1.16891
1.16891
1.16891
1.16891
1.16891
1.16891
1.16892
1.16892
1.16892
1.16892
1.16892
1.16892
1.16892
1.16892
1.16892
1.16893
1.16893
1.16893
1.16893
1.16896
1.16902
1.16913
1.16962
1.17079
1.17276
1.17702
1.18101
1.20216
1.25383
1.27808
1.29089
1.28714
1.28461
1.2797
1.28588
1.27307
1.30585
1.48274
157.676
1007.32
1022.52
1022.92
1023.53
1023.23
1022.75
1022.29
1021.95
1021.81
1021.78
1022.19
1022.56
1022.88
1023.26
1023.91
1024.67
1025.31
1025.66
1025.76
1025.8
1025.89
1026.03
1026.29
1026.57
1026.8
1026.95
1027.04
1027.08
1027.09
1027.09
1027.1
1027.1
1027.1
1027.1
1027.1
1027.1
1.16051
1.16038
1.16195
1.16413
1.1654
1.16646
1.16719
1.16766
1.16809
1.16833
1.16853
1.16871
1.16881
1.16887
1.16889
1.16889
1.16889
1.1689
1.1689
1.1689
1.16891
1.16891
1.16891
1.16892
1.16892
1.16892
1.16892
1.16892
1.16892
1.16892
1.16892
1.16893
1.16893
1.16893
1.16893
1.16893
1.16893
1.16893
1.16893
1.16894
1.16895
1.16902
1.16921
1.16969
1.17066
1.17272
1.17744
1.18411
1.21495
1.27909
1.29838
1.29935
1.29122
1.2906
1.28795
1.28663
1.27901
1.31398
1.46553
164.933
997.609
1018.77
1019.17
1019.87
1019.2
1018.36
1017.07
1015.91
1014.85
1014.23
1013.96
1013.89
1014.33
1015.45
1016.83
1018.08
1018.74
1018.86
1018.7
1019.03
1019.39
1019.7
1020.47
1021.44
1022.6
1023.85
1025.19
1026.23
1026.83
1027.06
1027.07
1027.08
1027.08
1027.09
1027.09
1027.1
1.16046
1.16033
1.1614
1.16293
1.16484
1.16607
1.16695
1.16736
1.16793
1.16807
1.1684
1.16868
1.16879
1.16886
1.16888
1.16889
1.16889
1.1689
1.1689
1.1689
1.1689
1.1689
1.16891
1.16891
1.16891
1.16891
1.16891
1.16891