/*--------------------------------*- C++ -*----------------------------------*\
| =========                 |                                                 |
| \\      /  F ield         | OpenFOAM: The Open Source CFD Toolbox           |
|  \\    /   O peration     | Version:  2.3.0                                 |
|   \\  /    A nd           | Web:      www.OpenFOAM.org                      |
|    \\/     M anipulation  |                                                 |
\*---------------------------------------------------------------------------*/
FoamFile
{
    version     2.0;
    format      ascii;
    class       volVectorField;
    location    "41";
    object      U;
}
// * * * * * * * * * * * * * * * * * * * * * * * * * * * * * * * * * * * * * //

dimensions      [0 1 -1 0 0 0 0];

internalField   nonuniform List<vector> 
6144
(
(0.0116677 0.021494 -0.000905642)
(0.0117196 -0.00267234 -0.00201579)
(0.00448589 -0.00349499 -0.00298368)
(0.00354487 -0.00293427 -0.00266206)
(0.00217701 -0.00132607 -0.00195406)
(0.00342907 0.00138724 -0.00177121)
(0.00334934 0.00068121 -0.00138238)
(0.00307688 0.0016931 -0.000968911)
(0.0023489 0.00117842 -0.000588637)
(0.0017135 0.00245313 -1.10798e-05)
(0.00127368 0.00352365 0.000475515)
(0.00125783 0.00449581 0.00110769)
(0.00139426 0.00452526 0.00146342)
(0.0015259 0.00394971 0.00186401)
(0.00159187 0.00301719 0.00186127)
(0.00169276 0.002113 0.00173999)
(0.00176864 0.00121317 0.00147825)
(0.00185116 0.000496812 0.00121338)
(0.00192118 -8.04328e-05 0.000939061)
(0.00197423 -0.000449338 0.000691611)
(0.00200913 -0.000635295 0.000472386)
(0.00204022 -0.000657105 0.00030973)
(0.00204805 -0.000597648 0.000237765)
(0.00203377 -0.00048809 0.000242578)
(0.00199866 -0.00036001 0.000313275)
(0.0019482 -0.000231615 0.000434804)
(0.00189508 -0.000125694 0.000576748)
(0.00184187 -6.19709e-05 0.000721417)
(0.00178658 -4.44502e-05 0.000859905)
(0.00172788 -5.21561e-05 0.000978016)
(0.00166648 -5.63033e-05 0.00108159)
(0.00160499 -4.88156e-05 0.00118751)
(0.00154259 -3.93611e-05 0.00130921)
(0.00147967 -4.78215e-05 0.00145358)
(0.00141857 -0.000100481 0.00161858)
(0.00136185 -0.00022245 0.00178951)
(0.00130994 -0.00041787 0.00193521)
(0.00126878 -0.000658766 0.00200646)
(0.00123865 -0.000870864 0.00195671)
(0.00122486 -0.000950253 0.00171832)
(0.00122445 -0.000666057 0.00119123)
(0.00122362 0.000282407 0.000270925)
(0.00143482 0.00212167 -0.000528992)
(0.00224163 0.0038923 -0.000720233)
(0.00317832 0.00375426 -0.000435147)
(0.00276596 0.00296768 -0.000357994)
(0.00030789 0.00660392 -0.00168387)
(-0.000154784 0.0177792 -0.00709637)
(0.0278174 0.0175356 -0.0202162)
(0.0593184 -0.0195307 -0.0292418)
(0.063459 -0.0398452 -0.0342551)
(0.0545896 -0.0554397 -0.0357093)
(0.0490546 -0.0616917 -0.0356788)
(0.0482236 -0.0893493 -0.0270781)
(0.0280263 -0.0887831 -0.0142771)
(0.0174693 -0.125096 -0.00935979)
(-0.0162851 -0.0688683 -0.00260474)
(0.00227529 -0.148055 0.00235453)
(-0.0710568 0.0171738 -0.0106684)
(0.0423079 0.0591515 -0.00890459)
(0.121888 -0.258609 0.00129845)
(0.0844964 -0.0307283 -0.00124758)
(0.0480737 -0.135035 0.00583272)
(0.0471722 -0.10224 0.0139018)
(0.0412327 -0.105703 0.0190029)
(0.0288662 -0.116883 0.0189331)
(0.0213875 -0.111971 0.0107086)
(0.00328738 -0.114201 0.00230882)
(-0.0144886 -0.0964613 -0.00277984)
(-0.0121785 -0.064831 -0.00359852)
(-0.00150864 -0.0448403 -0.00127895)
(-0.0104986 -0.0345883 -0.00102449)
(-0.0136408 -0.0105709 -0.00101804)
(-0.00528657 0.00278842 0.00280946)
(-0.00669415 0.019123 0.0025439)
(-0.0171091 0.0675958 0.00675129)
(-0.0113266 0.0964316 -0.00105556)
(-0.00290745 0.101112 -0.0126376)
(0.00562437 0.0984858 -0.0142334)
(0.0118037 0.0935859 -0.00544575)
(0.0105718 0.0905899 0.00142544)
(0.014252 0.082821 0.0050003)
(0.00995171 0.0694922 0.0156655)
(0.00563138 0.0568005 0.0159242)
(0.00127557 0.0378494 0.0115628)
(-7.54552e-05 0.0281797 0.0115671)
(0.0016692 0.00634581 0.0115941)
(0.00196036 -0.00701071 0.0130428)
(-0.00101721 -0.0217723 0.0154531)
(-0.000480453 -0.0340728 0.0185407)
(-0.00495085 -0.0458703 0.0183227)
(-0.00322402 -0.0576989 0.0130291)
(-0.00195124 -0.0612175 0.00910363)
(-0.000760136 -0.0599781 0.00281096)
(0.00114603 -0.0504995 -0.00644734)
(-0.00609097 -0.0327885 -0.0194327)
(0.021741 0.0214011 0.00316671)
(0.0228298 0.00574661 0.00223013)
(0.0111662 0.00226484 -0.00159715)
(0.00967877 0.000900383 -0.000370613)
(0.00488 -0.00241659 0.00082848)
(0.00550849 0.000288723 0.00110773)
(0.00501606 0.000237266 0.00191246)
(0.004639 0.0023833 0.00231771)
(0.00337863 0.00216784 0.0026887)
(0.00231869 0.00385289 0.00282603)
(0.00181411 0.00478232 0.00301955)
(0.00205979 0.00558806 0.00369759)
(0.0024606 0.00543568 0.00408031)
(0.00288336 0.00492587 0.00435193)
(0.00303107 0.00397462 0.00438086)
(0.00320173 0.00304989 0.00435625)
(0.00327361 0.00205611 0.00426388)
(0.00335478 0.00125295 0.00417843)
(0.00340892 0.000566338 0.00409952)
(0.00342735 7.23353e-05 0.00404461)
(0.00342023 -0.000242354 0.00400425)
(0.00342397 -0.000371139 0.00393668)
(0.00339608 -0.000404806 0.0039291)
(0.00333282 -0.000366808 0.00397265)
(0.00323556 -0.000292379 0.00405978)
(0.00311753 -0.000198072 0.00417632)
(0.0030104 -0.000109394 0.00427224)
(0.00291863 -5.12075e-05 0.00435197)
(0.00282571 -2.42876e-05 0.0044304)
(0.00271941 -1.0542e-05 0.00450423)
(0.00260329 6.22713e-06 0.00457625)
(0.00248619 2.09183e-05 0.00465)
(0.00237505 2.1563e-05 0.00472698)
(0.0022785 -3.89616e-07 0.00480775)
(0.00220261 -5.6518e-05 0.00489239)
(0.00214878 -0.000159224 0.00497844)
(0.00210647 -0.000303311 0.00505406)
(0.00206145 -0.000466756 0.00510443)
(0.0019883 -0.000575538 0.00510176)
(0.00183351 -0.000515015 0.00501281)
(0.0015165 -8.59868e-05 0.00474912)
(0.00128492 0.00102157 0.00398451)
(0.0016057 0.00283235 0.00330133)
(0.00356788 0.0044484 0.0033017)
(0.00525683 0.00448275 0.00359678)
(0.00214536 0.00491044 0.00369722)
(-0.00418286 0.0048198 0.00289049)
(0.00554032 0.00789525 -0.0018833)
(0.0675366 -0.011742 -0.0214574)
(0.093557 0.014137 -0.0395846)
(0.0830978 0.0520732 -0.0411592)
(0.0905885 0.0748935 -0.0373084)
(0.108022 0.0732369 -0.0123529)
(0.091686 0.0317022 0.0150942)
(0.0539714 0.0302471 0.0306433)
(0.0517652 -0.0841846 0.0242692)
(-0.0155219 -0.0119697 0.0311831)
(0.015303 -0.182821 0.02571)
(-0.130775 0.137338 0.00977919)
(0.0517158 -0.0491145 -0.0248328)
(0.11953 -0.221512 0.00461525)
(0.0232241 0.165469 -0.00515984)
(-0.0151409 -0.00476213 0.000846288)
(0.00677733 0.119433 0.0208925)
(-0.00173487 0.0719857 0.0129977)
(0.00520653 0.0821538 0.0157552)
(0.0200684 0.0704797 -0.00217293)
(0.0204839 0.0595463 -0.00754788)
(0.0272451 0.0425075 -0.00836616)
(0.026205 0.0285216 -0.00934652)
(0.0275896 0.0193856 -0.0103591)
(0.0224231 0.0161456 -0.0124849)
(0.0205498 0.0162485 -0.00799564)
(0.00832233 0.0182887 -0.00977243)
(-0.0209886 0.0368223 -0.019023)
(-0.0321443 0.0600734 -0.0123135)
(-0.0109561 0.0852843 -0.0105752)
(0.0153358 0.0842266 -0.020821)
(0.03253 0.0717642 -0.01322)
(0.0345945 0.0650855 -0.00290392)
(0.0353336 0.0649217 0.00480125)
(0.039443 0.0612701 0.0106388)
(0.0273053 0.0449928 0.0187262)
(0.0071181 0.0349304 0.0170906)
(0.000564761 0.0206643 0.0241126)
(-0.00106329 0.00341166 0.0247068)
(-0.00306478 -0.0129156 0.0235249)
(-0.00646101 -0.025715 0.0197575)
(-0.0125796 -0.0356784 0.0216188)
(-0.0144602 -0.0423857 0.0223551)
(-0.0117395 -0.0488186 0.0186582)
(-0.0079415 -0.0561681 0.0174009)
(-0.00728007 -0.058791 0.0116797)
(-0.00731559 -0.0552175 0.00486405)
(-0.00345494 -0.0434141 -0.00450088)
(-0.00580015 -0.0222202 -0.0171177)
(0.0252388 0.0216265 0.0043515)
(0.0270341 0.0120085 0.00431706)
(0.0163077 0.00698557 0.001514)
(0.0137991 0.00518126 0.00321843)
(0.00578001 -0.000532798 0.00383528)
(0.00459048 0.00127511 0.00333861)
(0.00295155 0.00090153 0.00398946)
(0.00284066 0.00320404 0.00400026)
(0.00161412 0.00292739 0.00412813)
(0.000899593 0.00401749 0.00426839)
(0.000405874 0.0040937 0.00432068)
(0.000913362 0.00470866 0.0046243)
(0.00132439 0.00455063 0.00487591)
(0.00182186 0.0045107 0.00508916)
(0.00203045 0.00399884 0.0050907)
(0.00228022 0.00348241 0.00506741)
(0.00238183 0.00277031 0.00499117)
(0.00247695 0.00216466 0.00493622)
(0.00252852 0.00159049 0.00489131)
(0.00253154 0.00112768 0.00487998)
(0.00247892 0.000738065 0.00489432)
(0.00238293 0.000455816 0.00493393)
(0.00227704 0.000267404 0.0049861)
(0.00215482 0.000156143 0.00504531)
(0.00201579 9.66259e-05 0.00510979)
(0.0018714 7.05946e-05 0.00517519)
(0.00172576 6.18188e-05 0.00524277)
(0.00158106 6.81421e-05 0.00531316)
(0.00142974 8.56972e-05 0.00538307)
(0.00126039 0.000107483 0.00545446)
(0.00108541 0.00012067 0.00552851)
(0.000925504 0.000116423 0.00560618)
(0.000780243 0.000101488 0.00568422)
(0.000647289 8.28361e-05 0.00575823)
(0.000532339 6.78753e-05 0.00582962)
(0.000440665 6.56924e-05 0.00589993)
(0.000371041 9.53006e-05 0.00596359)
(0.000300224 0.000181411 0.00600673)
(0.000188552 0.000396766 0.00600051)
(-5.83599e-06 0.000819158 0.00593295)
(-0.000381979 0.00149836 0.00577979)
(-0.000953348 0.0024379 0.00558686)
(-0.000990241 0.00381814 0.00541166)
(0.00040327 0.00565222 0.00563136)
(0.00168431 0.00761194 0.00715868)
(0.000208114 0.00687824 0.00953077)
(-0.00222914 0.000749415 0.011021)
(0.019376 -0.00744921 -0.00347356)
(0.0701242 0.00562377 -0.03526)
(0.0932708 0.085332 -0.038293)
(0.10995 0.116549 -0.028769)
(0.139403 0.140465 -0.0163142)
(0.156543 0.134386 0.00981255)
(0.136296 0.110813 0.0406798)
(0.100816 0.0711644 0.0425906)
(0.0588702 -0.0219076 0.0376861)
(-0.0810019 0.0874496 0.0626272)
(-0.0450227 -0.188729 0.028561)
(-0.163743 0.212073 0.0127892)
(0.0670271 -0.0611402 -0.00804107)
(0.13213 -0.18908 -0.0137573)
(0.0572132 0.176378 -0.00920037)
(0.0560778 -0.00269562 0.00357141)
(0.0356411 0.108999 0.00563657)
(0.0396314 0.0732122 0.0022321)
(0.0442322 0.0848128 0.00536933)
(0.0581697 0.0746261 0.00974943)
(0.0589305 0.0654092 0.012387)
(0.0568112 0.044838 0.0181977)
(0.0491395 0.027933 0.0238507)
(0.0415844 0.012904 0.0267332)
(0.0235273 0.00363116 0.0277782)
(0.0117953 0.00291003 0.0286798)
(0.000710022 0.0069478 0.0283244)
(-0.00834403 0.0125708 0.00857064)
(-0.0227493 0.0253754 -0.0120018)
(-0.0136528 0.0470243 -0.0121961)
(0.0244387 0.0470921 -0.00883822)
(0.0473927 0.0463013 0.00621983)
(0.0434628 0.0468057 0.0222755)
(0.0417252 0.0428743 0.0286475)
(0.046924 0.0395409 0.0311264)
(0.0368346 0.0314827 0.0290955)
(0.0137344 0.0176969 0.0188733)
(-0.00182002 0.0110428 0.0230893)
(-0.00936351 0.00174338 0.0241443)
(-0.0176817 -0.0109175 0.0256004)
(-0.0232864 -0.0264999 0.022342)
(-0.0312144 -0.0436312 0.0156771)
(-0.0282478 -0.0561843 0.0126642)
(-0.0235053 -0.0638115 0.0093544)
(-0.0228009 -0.0705121 0.0068675)
(-0.0223652 -0.0703314 0.00349703)
(-0.022752 -0.0653465 -0.00221042)
(-0.0171159 -0.0515656 -0.00737987)
(-0.0121056 -0.0188473 -0.0129873)
(0.0265219 0.0213985 0.00446924)
(0.0294836 0.0162597 0.00507371)
(0.0190286 0.00949435 0.00173755)
(0.017134 0.00960029 0.00213291)
(0.00730057 0.00246476 0.00306502)
(0.00439893 0.00348391 0.00297079)
(0.00134171 0.00124564 0.00396754)
(0.00136117 0.00332774 0.0040084)
(0.000210884 0.00244495 0.00421957)
(-0.000247008 0.00323239 0.00438906)
(-0.000773056 0.00288715 0.00452829)
(-0.000345251 0.00342717 0.00487779)
(-0.000135876 0.00352601 0.00510877)
(0.000370864 0.0038642 0.00530604)
(0.000634158 0.0036891 0.00529477)
(0.000929739 0.00348357 0.00530719)
(0.00104097 0.00297982 0.00526419)
(0.00111267 0.00251646 0.00525036)
(0.00112559 0.00203048 0.0052262)
(0.00110524 0.0016162 0.00521674)
(0.0010242 0.00123208 0.00521719)
(0.000906854 0.000901651 0.00522935)
(0.0007652 0.000627887 0.00525497)
(0.000606666 0.000423107 0.00529099)
(0.000442205 0.000285959 0.00533378)
(0.000279721 0.000207696 0.00537988)
(0.00012879 0.000172753 0.0054248)
(-1.21194e-05 0.000165924 0.00546917)
(-0.000150957 0.000173468 0.00551775)
(-0.000296395 0.000183515 0.00557608)
(-0.000441558 0.000194905 0.00564266)
(-0.000578486 0.00020976 0.00570604)
(-0.0007048 0.000225318 0.00575825)
(-0.000820449 0.000242718 0.00579947)
(-0.000922428 0.000271279 0.00583427)
(-0.00101563 0.000333023 0.0058664)
(-0.00111593 0.000470694 0.00589142)
(-0.00124833 0.000723467 0.00589074)
(-0.00145892 0.00115584 0.00584135)
(-0.00175447 0.0018095 0.00574648)
(-0.00216851 0.002679 0.00560235)
(-0.00267727 0.00353972 0.00543922)
(-0.00305424 0.00430767 0.00533837)
(-0.00246625 0.00521854 0.00554315)
(-0.00166705 0.00592413 0.00721636)
(-0.00155794 0.00305908 0.0114824)
(-0.00152203 -0.00712078 0.0165335)
(0.0129019 -0.0250177 -0.00398775)
(0.0496185 0.0241993 -0.037002)
(0.0926168 0.0941772 -0.0250273)
(0.119313 0.128558 -0.029257)
(0.131613 0.173665 -0.0187464)
(0.140937 0.180064 -0.000591447)
(0.119346 0.171419 0.0184502)
(0.0640888 0.140348 0.0270081)
(0.0251846 0.105613 0.0524677)
(0.00843127 0.163244 0.0876261)
(-0.0202551 -0.223438 0.0631179)
(-0.193083 0.291889 0.0118752)
(0.0747876 -0.0837131 0.00220032)
(0.159294 -0.217857 -0.0215492)
(0.00210815 0.176119 -0.0170856)
(0.0350029 0.0375729 -0.00136364)
(0.0250471 0.130356 0.0111756)
(0.0424742 0.107902 0.0134282)
(0.0491152 0.112684 0.022609)
(0.0539165 0.0875861 0.0319952)
(0.054238 0.0763176 0.0394917)
(0.0520118 0.0514005 0.0407342)
(0.0397902 0.0233836 0.0474759)
(0.0306469 0.00363953 0.0454799)
(0.0146201 -0.0113364 0.0425124)
(-0.00250095 -0.0140907 0.0390991)
(-0.0219929 -0.015758 0.0379561)
(-0.0369808 -0.0108606 0.0306056)
(-0.0381159 0.00201133 0.0100193)
(-0.0204425 0.00719533 0.000748813)
(0.0274212 0.0147717 -0.00624543)
(0.0556572 0.0429945 0.0229415)
(0.040072 0.0529879 0.0511752)
(0.0221632 0.0517523 0.0636557)
(0.0155043 0.0484097 0.0703104)
(0.00621886 0.0551661 0.0642586)
(-0.0160989 0.0427658 0.0254047)
(-0.0183275 0.0264798 0.00387151)
(-0.0173961 0.0224358 -0.00509174)
(-0.023093 -0.00452071 -0.00570724)
(-0.0111153 -0.0211641 -0.00532944)
(-0.0179694 -0.0380229 0.000646974)
(-0.0143206 -0.0446737 0.00599388)
(-0.012598 -0.0578531 0.00609844)
(-0.0200331 -0.0682696 0.00419581)
(-0.0227587 -0.0691667 0.00162094)
(-0.027209 -0.0662268 -0.00286579)
(-0.031671 -0.0542792 -0.0104088)
(-0.0246862 -0.0231422 -0.0144274)
(0.0267985 0.0211761 0.00423964)
(0.0317933 0.019058 0.00544047)
(0.0214937 0.0111682 0.00134055)
(0.021301 0.0125565 0.000817185)
(0.00987848 0.00477625 0.000362499)
(0.00586708 0.00597012 0.000824853)
(0.000490127 0.000926329 0.00298141)
(0.000157525 0.0033999 0.0032838)
(-0.00109426 0.00167738 0.00361903)
(-0.00148536 0.00243202 0.00409443)
(-0.00247418 0.00173958 0.00430172)
(-0.00241315 0.00237901 0.00474291)
(-0.00251169 0.00261599 0.00492976)
(-0.00196923 0.00325442 0.00515121)
(-0.00163313 0.00327987 0.00511667)
(-0.00129587 0.00323581 0.00516511)
(-0.00117963 0.00285071 0.00516612)
(-0.0012025 0.0025126 0.00519784)
(-0.00128314 0.00212955 0.00519016)
(-0.00137942 0.00178615 0.00516784)
(-0.00149557 0.00143628 0.00513111)
(-0.0016296 0.00109969 0.00509674)
(-0.00177117 0.000793914 0.00507369)
(-0.00192757 0.000543662 0.00506019)
(-0.00209935 0.000356175 0.00505359)
(-0.00225527 0.000231253 0.0050559)
(-0.00238959 0.000154301 0.00506549)
(-0.0025056 0.000110607 0.00508027)
(-0.00262058 9.25455e-05 0.00509834)
(-0.00274918 9.59141e-05 0.00512338)
(-0.00288264 0.000115094 0.00515506)
(-0.00300899 0.000148 0.00518491)
(-0.00312548 0.000195134 0.00520715)
(-0.00322737 0.000256901 0.00521826)
(-0.00332224 0.000346236 0.00521788)
(-0.00342779 0.000500296 0.00520141)
(-0.00356064 0.000779953 0.00516206)
(-0.00373641 0.0012414 0.00507671)
(-0.00400226 0.001921 0.00490785)
(-0.0043206 0.0027789 0.00465439)
(-0.00461594 0.00370141 0.00431832)
(-0.00482853 0.00426594 0.00387939)
(-0.00489926 0.00420782 0.00351835)
(-0.0046206 0.00384351 0.0036878)
(-0.00365519 0.00315022 0.00504609)
(-0.00173904 -9.40332e-05 0.00953855)
(0.00134386 -0.0123058 0.0167171)
(0.000828654 -0.0368178 0.000594257)
(0.0294956 0.0166108 -0.019543)
(0.0813254 0.0818639 -0.0039874)
(0.100646 0.135495 -0.0218432)
(0.122285 0.186228 -0.00818433)
(0.145064 0.196055 0.0156206)
(0.157748 0.205219 0.0130488)
(0.144403 0.203801 0.00479716)
(0.099677 0.165842 0.0440801)
(0.0692428 0.161743 0.060759)
(-0.0454962 -0.0418714 0.036131)
(-0.261417 0.408932 0.0219924)
(0.0827363 -0.132945 0.00866518)
(0.135359 -0.0741289 -0.0226357)
(0.000602528 0.171928 -0.0133101)
(0.0504614 0.0855455 0.00707336)
(0.0377499 0.143407 0.0216731)
(0.0548261 0.13324 0.030803)
(0.054951 0.133677 0.0420946)
(0.0605025 0.122529 0.0467336)
(0.0532559 0.108938 0.0561596)
(0.0479231 0.0876734 0.059268)
(0.0313612 0.0570277 0.0623917)
(0.00642109 0.0366537 0.0572081)
(-0.0199968 0.0197833 0.0504193)
(-0.0343214 0.0184749 0.0428431)
(-0.0503117 0.00231121 0.0271179)
(-0.057923 0.00477965 0.0204116)
(-0.0437408 0.0161996 0.00756871)
(-0.015483 0.023679 0.0141857)
(0.00281872 0.0501187 0.0419974)
(-0.00671696 0.0930326 0.058318)
(-0.0139438 0.104349 0.0580846)
(-0.0173311 0.103649 0.0670316)
(-0.0239501 0.0842334 0.0626115)
(-0.0179175 0.0768005 0.0433828)
(0.00547477 0.0677005 -0.0110393)
(0.0256324 0.0677228 -0.0369092)
(0.034046 0.0677553 -0.0313915)
(0.0333548 0.0512742 -0.01544)
(0.019459 0.0310054 0.0127228)
(-0.0116978 -0.0153834 0.0290574)
(-0.00798408 -0.0344693 0.0369734)
(-0.0137022 -0.0417595 0.0298675)
(-0.0232785 -0.0495784 0.0136797)
(-0.0265812 -0.0515167 0.0115098)
(-0.0311338 -0.055091 0.00306714)
(-0.0424155 -0.0478111 -0.000634184)
(-0.0452399 -0.0242834 -0.0105642)
(0.0258423 0.0202926 0.00441513)
(0.033424 0.0223966 0.0071005)
(0.0229271 0.011928 0.00211922)
(0.0241501 0.0144325 0.00154584)
(0.0140008 0.00474455 -0.00124665)
(0.00946533 0.00712028 -0.0010608)
(0.00116915 -8.03222e-05 0.00145806)
(-0.000921676 0.00332405 0.00216529)
(-0.00177452 0.000703385 0.00259253)
(-0.00237898 0.00183467 0.00334693)
(-0.00337874 0.000772929 0.00354236)
(-0.00346143 0.00163733 0.00412846)
(-0.00363783 0.0019742 0.00432988)
(-0.00291027 0.00285536 0.00475226)
(-0.00234093 0.00285667 0.00493317)
(-0.00191045 0.00278628 0.00516769)
(-0.00180608 0.00238136 0.00526915)
(-0.00193666 0.0021142 0.00532306)
(-0.00209714 0.0018662 0.00529803)
(-0.00224314 0.00168051 0.00523007)
(-0.00239081 0.00147893 0.00512074)
(-0.00254896 0.00125742 0.00499069)
(-0.00272971 0.0010297 0.00486337)
(-0.00291026 0.000823179 0.004748)
(-0.00307534 0.000661577 0.00464658)
(-0.00321701 0.000551191 0.00455214)
(-0.00332643 0.000472746 0.00446865)
(-0.00341976 0.00041385 0.00439985)
(-0.00351747 0.000366728 0.00435292)
(-0.00362639 0.000341372 0.00432934)
(-0.00373784 0.000348421 0.00432331)
(-0.00384202 0.000389494 0.00432008)
(-0.00393844 0.000465129 0.00430787)
(-0.0040302 0.000574175 0.00427663)
(-0.00414117 0.000729774 0.0042218)
(-0.00430041 0.000969466 0.00413123)
(-0.00453937 0.00134616 0.00398545)
(-0.00485992 0.00190594 0.00374393)
(-0.00520147 0.00263242 0.00336984)
(-0.0054124 0.00337431 0.00289919)
(-0.00527748 0.00392662 0.00239795)
(-0.0046826 0.00387072 0.00195472)
(-0.00411652 0.00308725 0.00159141)
(-0.00382717 0.00164676 0.00160637)
(-0.00316773 4.87362e-05 0.00279457)
(-0.000811834 -0.00181511 0.007625)
(0.00742015 -0.0118257 0.0178979)
(-0.00615787 -0.0376966 0.0111772)
(-0.00819602 -0.0211251 0.00556833)
(0.0406962 0.0465315 0.0400085)
(0.0799522 0.0957723 0.0156266)
(0.0968337 0.163867 -0.000590083)
(0.130113 0.204262 0.0183508)
(0.149931 0.234175 0.0088328)
(0.131366 0.267277 0.0177467)
(0.0774768 0.2794 0.0262484)
(-0.00315971 0.259706 0.0123443)
(-0.0824258 0.19868 0.0284146)
(-0.200119 0.454796 0.0732761)
(0.051334 -0.172991 0.0206437)
(0.0861349 -0.0398689 -0.0224312)
(0.0199415 0.165396 -0.00576287)
(0.036499 0.122798 0.00992656)
(0.026975 0.179893 0.0259032)
(0.0333071 0.184812 0.0378256)
(0.0289232 0.191233 0.0432098)
(0.0233713 0.1849 0.0499943)
(0.0227389 0.172145 0.0551509)
(0.0208623 0.142889 0.0576859)
(0.0133878 0.112743 0.0501894)
(-0.00277198 0.0699421 0.0327404)
(-0.0277344 0.0373222 0.0180008)
(-0.0418942 0.0392051 0.00504305)
(-0.0493514 0.0476464 -0.00632744)
(-0.0533903 0.0644092 0.00278104)
(-0.0393692 0.092389 0.025388)
(-0.0332287 0.11819 0.0390802)
(-0.0392879 0.128578 0.0485038)
(-0.0281746 0.127934 0.0629892)
(-0.0162191 0.120149 0.0628247)
(-0.012086 0.109498 0.0507113)
(-0.0138416 0.0919932 0.0198635)
(-0.00778903 0.0870924 -0.0354681)
(0.00946958 0.0945621 -0.0526507)
(0.0334122 0.112388 -0.0341479)
(0.0371709 0.109432 -0.0128456)
(0.038179 0.0937655 -0.00616768)
(0.0273192 0.0689183 -0.000919434)
(-0.000480693 0.0250282 0.01768)
(-0.0236707 -0.0152314 0.0325129)
(-0.0411291 -0.0279702 0.00727138)
(-0.0421663 -0.0318333 -0.0055592)
(-0.0418026 -0.0317515 -0.000196235)
(-0.0442891 -0.0371677 -0.00277443)
(-0.0519763 -0.0344401 -0.00609259)
(-0.0561501 -0.0206447 -0.0138703)
(0.0226454 0.0180848 0.0053756)
(0.0334439 0.0254361 0.00961373)
(0.0229839 0.0122623 0.00358923)
(0.0252861 0.0163592 0.00357098)
(0.0168564 0.00328621 -0.000621636)
(0.0120393 0.00672625 -0.00115242)
(0.00163735 -0.00112587 0.000539391)
(-0.00173297 0.00359283 0.00149006)
(-0.00297261 0.000227533 0.00178624)
(-0.00368417 0.00162997 0.00260111)
(-0.00510359 0.000225503 0.00259502)
(-0.00584267 0.00123163 0.00341445)
(-0.00633867 0.001332 0.00375178)
(-0.00539166 0.00222137 0.00465291)
(-0.00460378 0.00208529 0.00526764)
(-0.00413248 0.00207866 0.00581997)
(-0.00418148 0.00175934 0.00604551)
(-0.00457687 0.00162981 0.00608141)
(-0.00496262 0.00153793 0.00597883)
(-0.00523681 0.00153469 0.00582265)
(-0.00541882 0.00153036 0.00561575)
(-0.00554286 0.00151103 0.00538573)
(-0.00565749 0.00145994 0.00515975)
(-0.00577242 0.00139303 0.00495739)
(-0.00591621 0.00134016 0.00479945)
(-0.00599862 0.00131361 0.00466096)
(-0.00602951 0.00128242 0.00454694)
(-0.0060251 0.00123303 0.00447229)
(-0.00603466 0.00116819 0.00443688)
(-0.00608787 0.00111771 0.00443672)
(-0.00616758 0.00110897 0.00445924)
(-0.00624839 0.0011505 0.00448252)
(-0.0063252 0.00124915 0.00448866)
(-0.00638614 0.00139787 0.00446357)
(-0.0064651 0.00159579 0.00440379)
(-0.00659112 0.00186398 0.00429643)
(-0.00677621 0.00221518 0.0041191)
(-0.00698986 0.00263246 0.00383433)
(-0.00710593 0.00304876 0.00341935)
(-0.00692457 0.00328548 0.00290641)
(-0.00625577 0.00319022 0.0023646)
(-0.00508198 0.00261339 0.00181374)
(-0.00401562 0.0013461 0.00118224)
(-0.00371317 -9.35144e-05 0.000943509)
(-0.00392137 -0.00190219 0.00227508)
(-0.00103462 -0.00285564 0.00775297)
(0.0100163 -0.0117666 0.0190618)
(0.00624702 -0.0270619 0.0186855)
(-0.030602 -0.0593242 0.0260534)
(-0.0124795 -0.0222942 0.0528439)
(0.0195707 0.0166466 0.045861)
(0.0585557 0.0858161 0.0272968)
(0.100144 0.153875 0.0333436)
(0.137311 0.211285 0.0196866)
(0.139328 0.267092 0.0347064)
(0.0968319 0.296771 0.0354295)
(0.0324668 0.275551 0.0142555)
(-0.00389256 0.180707 0.0420001)
(-0.0722098 0.410993 0.108128)
(0.02691 -0.159988 0.025401)
(0.0451147 -0.0393281 -0.0203655)
(0.00727223 0.165205 0.00300723)
(0.00736732 0.142522 0.0196996)
(0.00222497 0.20279 0.0372811)
(0.00435898 0.209746 0.0467493)
(0.008017 0.217062 0.0469478)
(0.0183631 0.213555 0.0511998)
(0.036112 0.204689 0.058384)
(0.0512032 0.180819 0.0542511)
(0.0515229 0.160176 0.0438101)
(0.0476594 0.143528 0.0421356)
(0.0201038 0.122558 0.0430942)
(-0.0238979 0.0879545 0.0336767)
(-0.0506765 0.0932014 0.0234489)
(-0.0648193 0.10624 0.0275436)
(-0.0614921 0.119231 0.0350964)
(-0.049276 0.125534 0.0370927)
(-0.0419683 0.12642 0.0384869)
(-0.0365256 0.121993 0.0366539)
(-0.0310996 0.118848 0.0130305)
(-0.0247901 0.126696 -0.00252165)
(-0.0162586 0.122332 -0.00804331)
(-0.000318968 0.119147 -0.00192883)
(0.0131517 0.11982 0.000995327)
(0.0298759 0.123668 -0.00851023)
(0.0452812 0.121315 -0.0147722)
(0.0505545 0.119586 -0.0181453)
(0.0508939 0.116919 -0.0219241)
(0.0378293 0.0994143 -0.0253137)
(0.0109259 0.0533873 -0.032746)
(-0.00781642 0.0216547 -0.0403261)
(-0.0226077 0.00602741 -0.0346455)
(-0.0357864 -0.00975072 -0.00160785)
(-0.0421879 -0.0250456 0.00413388)
(-0.0582569 -0.0240939 0.00552394)
(-0.0713634 -0.0101643 -0.00492045)
(0.0213946 0.0127019 0.00541114)
(0.0323242 0.0280986 0.00998062)
(0.0215211 0.0132659 0.0037694)
(0.0257454 0.0195812 0.00303092)
(0.0191483 0.00423387 -0.000757256)
(0.0131363 0.00618244 -0.00121836)
(0.00129501 -0.00220595 0.000601899)
(-0.0032649 0.00364356 0.00124169)
(-0.00314063 -0.000646352 0.00269502)
(-0.00399395 0.00207923 0.00316906)
(-0.00511886 0.000226441 0.00302626)
(-0.00567941 0.00119551 0.00403473)
(-0.00603976 0.000471212 0.00456377)
(-0.0049239 0.000888321 0.00579256)
(-0.00419965 0.000463156 0.00670089)
(-0.00383313 0.000750743 0.00758551)
(-0.00395951 0.000840903 0.00804002)
(-0.00433043 0.00115973 0.00817666)
(-0.00467682 0.0013655 0.00810722)
(-0.00491002 0.00162288 0.00794121)
(-0.00507741 0.00185097 0.00769517)
(-0.00519654 0.00201913 0.00740815)
(-0.00530176 0.00210639 0.00712808)
(-0.00539984 0.00214579 0.00687448)
(-0.00549855 0.00213806 0.00664899)
(-0.00555711 0.00210198 0.00645994)
(-0.00555618 0.00205462 0.00631449)
(-0.00551523 0.00198976 0.00621598)
(-0.00549067 0.00190225 0.00615723)
(-0.00552412 0.00183111 0.00612856)
(-0.00559608 0.00182819 0.00611439)
(-0.00568141 0.00188427 0.00608549)
(-0.0057751 0.00200717 0.0060263)
(-0.00584855 0.0021827 0.00592868)
(-0.00595006 0.00239767 0.00578804)
(-0.00609913 0.0026559 0.00560057)
(-0.00629357 0.00292952 0.00534999)
(-0.00646741 0.0031435 0.00501648)
(-0.00644141 0.003247 0.00461459)
(-0.00601469 0.00312068 0.00421508)
(-0.00508274 0.00267601 0.00388621)
(-0.00359531 0.00184352 0.00363165)
(-0.00215222 0.000671445 0.00334831)
(-0.00186745 -0.000790631 0.00295265)
(-0.00241679 -0.0019182 0.0043624)
(0.000120781 -0.00294356 0.00924178)
(0.0115666 -0.00504969 0.0191765)
(0.0226879 -0.0129808 0.0256011)
(-0.00703904 -0.0453579 0.0324296)
(-0.0308706 -0.0613483 0.0585175)
(-0.00117726 -0.033002 0.0609371)
(0.00973243 -0.00936941 0.0417827)
(0.0258483 0.0399918 0.0345649)
(0.0740767 0.0626356 0.00572974)
(0.100372 0.163239 0.0245532)
(0.0969484 0.213489 0.0462923)
(0.0730429 0.233214 0.0313446)
(0.0749838 0.146589 0.0721903)
(0.0465928 0.437097 0.119269)
(0.00877298 -0.159716 0.0297647)
(0.0180989 -0.042603 -0.0188641)
(-0.0134489 0.161479 0.00646632)
(-0.0181388 0.132021 0.0170702)
(-0.0209421 0.174529 0.0307196)
(-0.0195507 0.17603 0.0386562)
(-0.0200736 0.173043 0.0425176)
(-0.0206186 0.172671 0.0453798)
(-0.0152989 0.169885 0.0515179)
(-0.00440667 0.171476 0.0558146)
(0.0130978 0.193212 0.0488601)
(0.0267153 0.197077 0.0411684)
(0.0224251 0.203997 0.0311869)
(-0.0107328 0.190377 0.0152977)
(-0.0374841 0.172121 0.0120982)
(-0.0492376 0.168932 0.00891516)
(-0.051677 0.167291 0.0104342)
(-0.0470547 0.172191 0.00615792)
(-0.037963 0.17683 0.00204071)
(-0.0227687 0.177077 0.00471251)
(-0.0105368 0.171616 0.00420291)
(0.00339641 0.164707 0.0128733)
(0.0173093 0.147998 0.0186696)
(0.0238382 0.129564 0.0206721)
(0.0293743 0.119829 0.021258)
(0.0399862 0.118036 0.02106)
(0.0445194 0.11856 0.00995164)
(0.0499185 0.12801 0.000263292)
(0.0510106 0.140753 0.00364786)
(0.0464559 0.155046 0.00745296)
(0.0340123 0.1568 0.0174834)
(0.0179969 0.134933 0.0249166)
(-0.00566057 0.115151 0.0189915)
(-0.0178565 0.0783019 0.02707)
(-0.0374897 0.0519016 0.0120869)
(-0.0581581 0.0258901 -0.000155442)
(-0.0723514 0.00859844 -0.0218361)
(0.0125647 0.00860279 0.000722918)
(0.0304882 0.0290335 0.00816061)
(0.0192564 0.0149479 0.00193596)
(0.0261728 0.0243028 0.00122067)
(0.0219432 0.00752805 -0.00163463)
(0.0153219 0.00726489 -0.00255975)
(0.000274489 -0.00364251 -0.00491172)
(-0.00397056 0.00363964 -0.00333864)
(-0.00613025 -0.00143716 -0.000340534)
(-0.00679908 0.00272668 0.000247873)
(-0.00738163 0.000132336 0.000193732)
(-0.00803562 0.00107448 0.00109163)
(-0.00844807 -0.000280428 0.00170781)
(-0.00790325 -4.78839e-05 0.00270509)
(-0.00775187 -0.000437501 0.00347901)
(-0.00784072 6.1823e-05 0.00428107)
(-0.00821887 0.000391011 0.00491947)
(-0.00867554 0.000917639 0.00531752)
(-0.0090977 0.0012781 0.00548583)
(-0.0094199 0.00166221 0.00550192)
(-0.00955076 0.00197524 0.00538743)
(-0.00949733 0.00221846 0.00521806)
(-0.00942181 0.00238015 0.00504946)
(-0.00934187 0.0024767 0.00489475)
(-0.00926046 0.00251049 0.00475114)
(-0.00915245 0.00249836 0.00462132)
(-0.00901083 0.00246464 0.0045105)
(-0.0088554 0.00242587 0.00442323)
(-0.00874717 0.00237889 0.00436246)
(-0.00876524 0.00234255 0.00431839)
(-0.00884992 0.00236319 0.00428253)
(-0.00893211 0.00242938 0.00422983)
(-0.00900745 0.00255106 0.004146)
(-0.00902711 0.00271098 0.00402345)
(-0.00904889 0.0028955 0.00386831)
(-0.00908385 0.00310681 0.00368401)
(-0.00906277 0.00334013 0.0034656)
(-0.0089578 0.00354494 0.00318784)
(-0.00878494 0.00353432 0.00285461)
(-0.00821315 0.00312259 0.00251352)
(-0.0071881 0.00243677 0.00223553)
(-0.0057124 0.00154887 0.00196337)
(-0.0044425 0.000817216 0.0015877)
(-0.00441741 0.000270388 0.000930226)
(-0.00621919 0.000503256 0.00164121)
(-0.00512998 0.000745978 0.00528969)
(0.0049239 0.00164933 0.0127224)
(0.0226193 0.00209927 0.0183078)
(0.0132034 -0.00646495 0.028199)
(-0.0214146 -0.0586311 0.0555521)
(-0.0340663 -0.0526389 0.0586491)
(-0.0194896 -0.0540723 0.0378822)
(0.01631 -0.0136374 0.0380153)
(0.0371557 -0.0103342 -0.0157286)
(0.0473572 0.0965483 -0.0350609)
(0.0875018 0.169157 0.033314)
(0.080459 0.205818 0.0430707)
(0.104174 0.100593 0.0716826)
(0.142155 0.428923 0.10106)
(-0.00971786 -0.176199 0.0252662)
(-0.0225668 -0.0238615 -0.0214024)
(-0.0372714 0.16612 0.00583936)
(-0.0393277 0.146613 0.0128827)
(-0.0403471 0.176395 0.0209492)
(-0.0387311 0.17045 0.029305)
(-0.040699 0.16364 0.0319719)
(-0.044921 0.159761 0.0315187)
(-0.0457643 0.154359 0.0337189)
(-0.0410985 0.143703 0.0383174)
(-0.0270545 0.143783 0.0340514)
(-0.0175816 0.150263 0.020144)
(-0.0179094 0.156887 0.0134406)
(-0.0213401 0.15886 0.0110458)
(-0.038354 0.15671 0.00378463)
(-0.0506068 0.160092 -0.00851983)
(-0.0544808 0.160282 -0.0101983)
(-0.0526269 0.159636 -0.00279173)
(-0.04066 0.152763 0.00575808)
(-0.0314926 0.1322 0.00861287)
(-0.0213576 0.11213 0.0103299)
(-0.00499294 0.0886877 0.0133418)
(0.0121748 0.0591443 0.00818415)