/*--------------------------------*- C++ -*----------------------------------*\
| =========                 |                                                 |
| \\      /  F ield         | OpenFOAM: The Open Source CFD Toolbox           |
|  \\    /   O peration     | Version:  2.3.0                                 |
|   \\  /    A nd           | Web:      www.OpenFOAM.org                      |
|    \\/     M anipulation  |                                                 |
\*---------------------------------------------------------------------------*/
FoamFile
{
    version     2.0;
    format      ascii;
    class       volVectorField;
    location    "41";
    object      U.airMean;
}
// * * * * * * * * * * * * * * * * * * * * * * * * * * * * * * * * * * * * * //

dimensions      [0 1 -1 0 0 0 0];

internalField   nonuniform List<vector> 
6144
(
(0.00903606 0.0194905 -0.000770377)
(0.00916211 0.000511767 -0.00141307)
(0.00454489 -0.000935088 -0.00234649)
(0.00435841 -0.00250212 -0.00235142)
(0.00285913 -0.0029587 -0.0020045)
(0.00291248 -0.0016736 -0.00181179)
(0.00242438 -0.00134822 -0.00144731)
(0.00244265 -9.87932e-05 -0.00116039)
(0.00218139 0.000596063 -0.00105524)
(0.00205651 0.00208422 -0.000653524)
(0.00200287 0.0029896 -0.000346561)
(0.0021495 0.00345244 3.41532e-06)
(0.00231138 0.00320753 0.000142667)
(0.00245188 0.00267384 0.000246731)
(0.00251993 0.00196624 7.92542e-05)
(0.00259109 0.00139023 -7.05863e-05)
(0.00262859 0.000868818 -0.000293231)
(0.00267201 0.000532333 -0.000459686)
(0.00270341 0.000261191 -0.000624199)
(0.00272413 0.000122721 -0.000732833)
(0.00273466 3.04122e-05 -0.000807414)
(0.00273699 4.80492e-06 -0.000843648)
(0.00273126 4.22672e-07 -0.000855559)
(0.00271979 1.76801e-05 -0.000846391)
(0.00270275 4.22827e-05 -0.000821558)
(0.00268276 6.83655e-05 -0.000784171)
(0.00266037 9.06198e-05 -0.000735416)
(0.00263684 0.00010399 -0.000676772)
(0.00261367 0.000111048 -0.000616201)
(0.00259099 0.000102338 -0.000560808)
(0.00257045 0.000101752 -0.000509333)
(0.00254844 6.52629e-05 -0.000469313)
(0.00253173 9.40105e-05 -0.000427312)
(0.00250636 1.58474e-05 -0.000402968)
(0.00249745 0.000135548 -0.000355001)
(0.00246431 -5.25955e-05 -0.000337604)
(0.00246159 0.000239294 -0.000264207)
(0.00242049 -0.000195418 -0.000245073)
(0.00241915 0.000384288 -0.000135221)
(0.00237734 -0.000502644 -0.000116932)
(0.0023753 0.000528638 1.29865e-05)
(0.00235302 -0.00106443 2.38334e-05)
(0.00234311 0.000633258 0.000123349)
(0.00238786 -0.00196172 8.58882e-05)
(0.00230998 0.000803999 4.00206e-05)
(0.00243071 -0.00300705 -0.000126819)
(0.00224931 0.00172712 -0.000486264)
(0.00240074 -0.00330686 -0.000567637)
(0.00233193 0.00422927 -0.000998798)
(0.00259901 -0.00319136 -0.00112047)
(0.00374963 0.00880222 -0.00177841)
(0.00388452 -0.00786715 -0.00247279)
(0.00498078 0.0146684 -0.00456145)
(0.00484486 -0.00897998 -0.00604959)
(0.00775738 0.0379072 -0.00792208)
(0.00602403 -0.0281916 -0.0114483)
(0.0185824 0.0694867 -0.00226634)
(0.00921076 -0.0642806 -0.0160999)
(-0.0475408 0.11644 -0.0910225)
(0.0309181 0.0338589 -0.105985)
(0.0791387 0.336601 0.000352946)
(0.038631 0.377439 -0.00663496)
(0.0193871 -0.0641451 -0.00344656)
(0.0288983 -0.115227 -0.00268126)
(0.0218821 -0.123809 -0.000960208)
(0.0143452 -0.121916 0.000649487)
(0.00977703 -0.125442 0.00145264)
(0.00659174 -0.120877 0.00121817)
(0.00463644 -0.117668 0.000324809)
(0.00342166 -0.111048 -0.000498561)
(0.00265295 -0.10661 -0.00103002)
(0.00234696 -0.0996843 -0.00141133)
(0.00221603 -0.094607 -0.00165727)
(0.00226148 -0.0888763 -0.00173446)
(0.00243111 -0.0848672 -0.00174397)
(0.00256398 -0.0810269 -0.00174832)
(0.00264781 -0.0781632 -0.00181251)
(0.0027108 -0.0754925 -0.00185142)
(0.00284522 -0.0734013 -0.00191919)
(0.00299951 -0.0716905 -0.00199198)
(0.00316663 -0.0700145 -0.00205911)
(0.00328386 -0.0681852 -0.00212883)
(0.00331035 -0.0661981 -0.00217805)
(0.00326507 -0.0637444 -0.00223054)
(0.00310176 -0.0610453 -0.00229996)
(0.00281127 -0.0579195 -0.00236449)
(0.00234889 -0.0542294 -0.00248517)
(0.00163329 -0.0495341 -0.00253412)
(0.000696106 -0.0436665 -0.00257588)
(-0.000193868 -0.0360927 -0.00235622)
(-0.000257345 -0.0280696 -0.00230882)
(-0.000345311 -0.0196139 -0.00367865)
(-0.00106166 -0.00918006 -0.0038516)
(-0.00241461 0.00109489 -0.00148576)
(-0.0026448 0.00908093 0.00483604)
(-0.00269721 0.00940381 0.0095337)
(0.0183679 0.0218799 0.00267081)
(0.0190849 0.00894447 0.00227742)
(0.0107677 0.00594284 -0.00013652)
(0.0106298 0.00372669 0.000535991)
(0.00642284 0.000632297 0.000951721)
(0.00612605 0.000745559 0.00145421)
(0.00420345 -0.00038449 0.00206338)
(0.00393159 0.000966773 0.00195446)
(0.003294 0.00177831 0.0017395)
(0.00328474 0.00360321 0.00188281)
(0.0034988 0.00434572 0.00213388)
(0.00406248 0.00470234 0.00258743)
(0.00446314 0.00423923 0.00277869)
(0.00481545 0.00367584 0.00289877)
(0.00491668 0.00284419 0.00282559)
(0.00503335 0.00217932 0.00276299)
(0.0050435 0.00153614 0.00265277)
(0.00509459 0.00111005 0.00257168)
(0.00511594 0.000744961 0.00247923)
(0.00513431 0.000537221 0.00241741)
(0.00513509 0.000385572 0.00237041)
(0.00512161 0.000317352 0.00235866)
(0.00509375 0.000280505 0.00236941)
(0.00505535 0.000276412 0.00240197)
(0.00500841 0.0002859 0.00244857)
(0.00495663 0.000301817 0.00250634)
(0.00490156 0.000317703 0.00257129)
(0.00484597 0.000327445 0.00263791)
(0.00479413 0.000334254 0.00269834)
(0.00474436 0.00032627 0.00275116)
(0.00470237 0.000328261 0.00280051)
(0.00465092 0.000294981 0.0028414)
(0.0046178 0.000328838 0.00288696)
(0.00455354 0.000246793 0.00291723)
(0.00454156 0.00037529 0.00296759)
(0.00445561 0.000158364 0.00298825)
(0.00447386 0.000481996 0.00305521)
(0.00436295 -3.02455e-05 0.00306608)
(0.00442002 0.000641693 0.00315812)
(0.0042902 -0.000406595 0.0031584)
(0.00439027 0.000831849 0.00327188)
(0.00426547 -0.00105681 0.00326012)
(0.00440208 0.00106085 0.003366)
(0.00432064 -0.00203919 0.00333217)
(0.00438195 0.00147085 0.00334978)
(0.00431523 -0.0032281 0.00321216)
(0.004127 0.00256094 0.00285969)
(0.00410843 -0.00391897 0.00266982)
(0.00382499 0.00482494 0.00197652)
(0.00416993 -0.00423759 0.00223309)
(0.0065332 0.00801514 0.00109458)
(0.00690629 -0.00755997 2.94576e-05)
(0.00597785 0.0162113 -0.00142965)
(0.00507597 -0.00611902 -0.00109817)
(0.0212094 0.0382812 0.00337621)
(0.0294252 -0.0404809 -0.00020545)
(-0.0132281 0.0324415 0.00217872)
(-0.0134184 -0.0114368 -0.0196022)
(0.0180216 0.184828 -0.0282397)
(0.147995 0.00167092 -0.0588159)
(0.0863087 0.352112 0.010284)
(0.00867367 0.42661 0.00339241)
(-0.0102395 -0.0799452 0.000964678)
(0.00133907 -0.0416789 0.00750418)
(-0.00419429 -0.0665801 0.00850078)
(-0.0100359 -0.0738276 0.00836536)
(-0.0115597 -0.0799734 0.00709707)
(-0.0119038 -0.0785233 0.00603395)
(-0.0110154 -0.080417 0.00459876)
(-0.0100388 -0.0780866 0.00348293)
(-0.00862991 -0.0769883 0.00271052)
(-0.0071612 -0.0726991 0.00217503)
(-0.00555042 -0.0696367 0.00178157)
(-0.00400284 -0.0656083 0.00150708)
(-0.00249306 -0.0631739 0.00128543)
(-0.00122191 -0.060621 0.0010376)
(0.000114492 -0.0586449 0.000828672)
(0.00134075 -0.0565107 0.000791308)
(0.00211735 -0.0546626 0.000807608)
(0.00236503 -0.052885 0.000854876)
(0.0023208 -0.0511635 0.000903463)
(0.00216765 -0.0494036 0.000918643)
(0.00204145 -0.0476358 0.000874848)
(0.00197168 -0.0456057 0.000791721)
(0.00186536 -0.0438873 0.000738911)
(0.00149895 -0.042238 0.000790078)
(0.000681667 -0.0404827 0.000825082)
(-0.000666163 -0.0383713 0.000783259)
(-0.00259585 -0.0355056 0.000431023)
(-0.00446584 -0.0310713 0.000261947)
(-0.00542531 -0.0253689 0.000268947)
(-0.00604231 -0.0183898 -0.000979692)
(-0.00734598 -0.00913094 -0.00131691)
(-0.00908023 0.00068051 0.00127146)
(-0.0108331 0.00818633 0.00829035)
(-0.0103033 0.00893793 0.0140599)
(0.0219385 0.0225205 0.00376794)
(0.0233529 0.0136333 0.00371741)
(0.0144947 0.0099199 0.0014204)
(0.0142283 0.00873782 0.00231694)
(0.00819226 0.00418679 0.00264148)
(0.00706336 0.00365552 0.00301455)
(0.00362595 0.00111392 0.00359285)
(0.00294901 0.00202763 0.00338691)
(0.00194451 0.00237622 0.00313121)
(0.00226591 0.00398114 0.00323634)
(0.00273751 0.00433522 0.00340119)
(0.00367852 0.00466005 0.00376351)
(0.00417706 0.00422422 0.00392506)
(0.00464375 0.00389409 0.00403906)
(0.00478198 0.00320814 0.00399163)
(0.00492099 0.00267106 0.00396422)
(0.00488002 0.00206816 0.00390874)
(0.00489503 0.0016545 0.00389312)
(0.00484181 0.00126287 0.00387955)
(0.00479859 0.00101107 0.0038911)
(0.00473092 0.000803685 0.00390926)
(0.0046656 0.000682815 0.0039407)
(0.0045946 0.000597982 0.00397585)
(0.00452408 0.000555145 0.00401827)
(0.00445199 0.000533979 0.00406294)
(0.00438094 0.000527822 0.00410924)
(0.00431119 0.000529127 0.00415611)
(0.00424267 0.000528873 0.00420337)
(0.00417485 0.000530512 0.00425042)
(0.00410654 0.000527326 0.00429699)
(0.00404315 0.000533268 0.00434329)
(0.00396786 0.000517797 0.00438556)
(0.00391415 0.000549005 0.00443094)
(0.00382391 0.000482332 0.00446772)
(0.00379958 0.000585751 0.0045184)
(0.00368124 0.000385804 0.00454725)
(0.00370654 0.000664552 0.00460632)
(0.00354556 0.00018582 0.00462366)
(0.00364514 0.000814892 0.00469615)
(0.00343486 -0.000158338 0.00469511)
(0.00363421 0.00107335 0.00477872)
(0.00337402 -0.000682465 0.00474639)
(0.00370238 0.00150858 0.00483477)
(0.00342701 -0.00140271 0.00475854)
(0.00377862 0.0022642 0.00481761)
(0.00347334 -0.00240364 0.00468628)
(0.00350963 0.0034485 0.00453192)
(0.0032622 -0.00361098 0.00440736)
(0.00299042 0.00513991 0.00374931)
(0.00367769 -0.00482151 0.00431964)
(0.00598544 0.00723557 0.00310246)
(0.00623532 -0.0054814 0.00221524)
(0.00459198 0.0192568 0.00188209)
(0.00480253 -0.0160244 0.00432561)
(0.0308911 0.0218631 0.00818783)
(0.0424895 -0.0517775 0.0045794)
(-0.0371501 0.051387 0.0202125)
(-0.0595697 -0.100471 -0.00614506)
(-0.0405791 0.17444 -0.0606489)
(0.1525 -0.0140608 -0.0344971)
(0.142571 0.33891 0.00812656)
(0.0651849 0.392758 0.00149987)
(0.0631206 -0.0145942 0.00586509)
(0.0307398 0.0433961 0.0119797)
(0.0101253 0.0103895 0.0113848)
(0.00221257 0.00530737 0.0101493)
(-0.00280104 -0.000522626 0.00774865)
(-0.00683357 -0.00240634 0.00581335)
(-0.0082603 -0.00659344 0.00377281)
(-0.00892789 -0.00628396 0.00224275)
(-0.00835971 -0.00661639 0.00109614)
(-0.00723517 -0.00489219 0.000304194)
(-0.00538546 -0.00408208 -0.000302859)
(-0.0035919 -0.0036299 -0.000746463)
(-0.00209642 -0.0046922 -0.000681146)
(-0.00113867 -0.00749015 -0.000563083)
(-0.0004411 -0.0113929 -0.000313477)
(0.000184216 -0.0132355 0.0001653)
(0.000994461 -0.014002 0.00080475)
(0.00168827 -0.013609 0.00168946)
(0.00209096 -0.0137745 0.00250274)
(0.00222172 -0.0147309 0.00304205)
(0.00223587 -0.0162676 0.00329987)
(0.00227984 -0.0179596 0.00339554)
(0.00230042 -0.0197672 0.00344805)
(0.00192045 -0.0214542 0.00349527)
(0.000773786 -0.0227248 0.00348249)
(-0.0012582 -0.0235298 0.00318217)
(-0.00416859 -0.0233805 0.00236575)
(-0.00736595 -0.021913 0.00150563)
(-0.00949181 -0.0186742 0.00121726)
(-0.0113003 -0.0142881 0.000527277)
(-0.0140523 -0.00701402 0.000729914)
(-0.0174036 0.000838197 0.00338929)
(-0.0202839 0.00780619 0.00974042)
(-0.0223864 0.00809358 0.0153682)
(0.0235919 0.0229809 0.0038411)
(0.0263991 0.0166283 0.00417546)
(0.0164829 0.0118651 0.00114113)
(0.0173201 0.0121735 0.00165396)
(0.0104288 0.00674299 0.00178167)
(0.00927358 0.00629747 0.00244398)
(0.00386883 0.00184647 0.00329573)
(0.00233712 0.00219358 0.00319116)
(0.000641293 0.00163402 0.00316276)
(0.00120597 0.00341447 0.00333813)
(0.00176326 0.00356148 0.00360562)
(0.00275492 0.00412727 0.0041061)
(0.00323695 0.00391928 0.00430215)
(0.00373444 0.00386928 0.00443716)
(0.00387051 0.00333233 0.00437698)
(0.00401274 0.00292329 0.00435678)
(0.00393649 0.00235862 0.00431587)
(0.00392948 0.00198343 0.00431855)
(0.00384456 0.00158871 0.00431489)
(0.00377786 0.00132085 0.00433172)
(0.00368269 0.00107823 0.00435128)
(0.00359328 0.000920333 0.00438395)
(0.00349536 0.000799038 0.00441814)
(0.00339873 0.00072534 0.00445754)
(0.00330517 0.000678336 0.00449998)
(0.0032179 0.000655328 0.0045445)
(0.00313613 0.000646738 0.0045891)
(0.00305923 0.000644886 0.00463293)
(0.00298577 0.000649507 0.00467484)
(0.00291397 0.000652989 0.00471494)
(0.00284683 0.000664632 0.00475452)
(0.0027744 0.000659214 0.00479198)
(0.0027214 0.000689217 0.00483399)
(0.00263944 0.00063871 0.00486666)
(0.00261666 0.000732345 0.00491087)
(0.00250755 0.000557525 0.00493289)
(0.00254334 0.000818051 0.00498062)
(0.00238716 0.000381882 0.00498489)
(0.00251619 0.000987659 0.00504021)
(0.0022951 8.82012e-05 0.00502004)
(0.00254457 0.00129863 0.00508434)
(0.00224451 -0.000322594 0.00502651)
(0.0026392 0.00184885 0.00509835)
(0.00228986 -0.000836213 0.00498848)
(0.00282148 0.00276903 0.00507558)
(0.00237607 -0.00158106 0.00488479)
(0.0028588 0.00398121 0.00483483)
(0.00233885 -0.00287763 0.00460606)
(0.00252519 0.00511764 0.00425074)
(0.00296722 -0.00512702 0.00467014)
(0.00408372 0.00719683 0.00377736)
(0.00349208 -0.00570364 0.00334789)
(0.00844652 0.0160696 0.00511132)
(0.0121138 -0.0243621 0.00659485)
(0.0329312 0.0112039 0.0136802)
(0.0299911 -0.0415326 0.00971102)
(-0.0126603 0.0727521 0.0230257)
(-0.074326 -0.122492 0.0133981)
(-0.0326453 0.207918 -0.105813)
(0.169293 -0.050166 -0.0159745)
(0.165142 0.363777 0.00535584)
(0.0681682 0.368443 -0.00377431)
(0.0702101 0.119236 0.0031512)
(-4.78643e-05 0.168006 0.0103378)
(-0.00346128 0.0958866 0.01214)
(-0.0072449 0.0971714 0.00782146)
(-0.00990205 0.0839079 0.00384024)
(-0.0115575 0.0846711 0.000656039)
(-0.0113077 0.0819856 -0.00177811)
(-0.0106036 0.0864436 -0.00332224)
(-0.00933782 0.0906445 -0.00432574)
(-0.00804043 0.0955881 -0.00465566)
(-0.00648734 0.100745 -0.00424444)
(-0.00504803 0.106803 -0.0025776)
(-0.00378285 0.108856 -0.000871904)
(-0.00260664 0.108865 0.000641269)
(-0.00131047 0.106284 0.00181265)
(0.000221833 0.099001 0.0028019)
(0.00167131 0.08956 0.00358444)
(0.00255645 0.0804473 0.00435103)
(0.00293676 0.0702633 0.00490026)
(0.0029484 0.0578605 0.0051944)
(0.0029032 0.0420551 0.00526259)
(0.00278533 0.0294153 0.00521828)
(0.00242273 0.0203368 0.00502261)
(0.00145675 0.0109968 0.004766)
(-0.00043519 0.002566 0.00434035)
(-0.00326327 -0.00382357 0.0034937)
(-0.00651935 -0.00827432 0.00223542)
(-0.00974523 -0.00983871 0.00130715)
(-0.0127615 -0.00951943 0.00121036)
(-0.0163947 -0.00748168 0.00148109)
(-0.0209683 -0.00295016 0.00252773)
(-0.0252778 0.00240456 0.00533481)
(-0.0292357 0.0074734 0.0110415)
(-0.0312474 0.00783876 0.0157671)
(0.0239481 0.0233368 0.00438143)
(0.0284922 0.0194161 0.00488284)
(0.017877 0.012937 0.00102734)
(0.0200741 0.0144158 0.00130484)
(0.0128704 0.00774891 0.000444066)
(0.0123152 0.00828066 0.00105798)
(0.00551459 0.00275668 0.0015507)
(0.00289833 0.00303676 0.00209698)
(-0.000423028 0.000593297 0.00253619)
(-0.000359655 0.00229659 0.00298537)
(0.000127777 0.00229161 0.00338074)
(0.000974681 0.00329743 0.0040899)
(0.00135647 0.00337997 0.00431845)
(0.00188514 0.00362704 0.00449356)
(0.00204999 0.00324238 0.00440936)
(0.00216078 0.00293318 0.0044003)
(0.00198228 0.00241301 0.00435851)
(0.00187204 0.00209275 0.00437371)
(0.00169933 0.00172649 0.00436594)
(0.00157152 0.00147845 0.00437157)
(0.00142488 0.00122988 0.00436912)
(0.00130081 0.00105558 0.00437724)
(0.0011812 0.000907912 0.00438899)
(0.00107251 0.000809477 0.00440905)
(0.000970727 0.000742422 0.00443191)
(0.000880499 0.00070553 0.00445812)
(0.000801262 0.000686804 0.00448542)
(0.00073134 0.000680556 0.00451204)
(0.000668045 0.000683103 0.00453635)
(0.000608333 0.000687904 0.00455653)
(0.000551879 0.000701905 0.00457358)
(0.000492776 0.000702698 0.00458724)
(0.000447466 0.000734049 0.00460451)
(0.000379106 0.000695854 0.00461207)
(0.000364064 0.000787177 0.00463559)
(0.000271554 0.000634167 0.00463163)
(0.000315772 0.000890591 0.00466128)
(0.000174103 0.000496708 0.00463556)
(0.000310737 0.00109659 0.00467175)
(9.51427e-05 0.000280604 0.00461702)
(0.000345389 0.00147575 0.00465688)
(4.19336e-05 1.16631e-05 0.00456257)
(0.000421384 0.0021345 0.0045992)
(8.08061e-05 -0.000252149 0.00446469)
(0.000613016 0.0031562 0.00450974)
(0.000300033 -0.000645097 0.00434012)
(0.000898716 0.00434617 0.00432618)
(0.000733046 -0.00182326 0.00410004)
(0.00122306 0.00512346 0.00377415)
(0.0014505 -0.00446421 0.00376682)
(0.00232749 0.00728717 0.00283365)
(0.00266414 -0.00688224 0.00454406)
(0.0119499 0.010698 0.00911105)
(0.0149024 -0.023855 0.0139016)
(0.0262007 0.015098 0.0300562)
(0.0164135 -0.042349 0.0294897)
(-0.00305705 0.0524716 0.056323)
(-0.097115 -0.126084 0.0471337)
(-0.000847656 0.171988 -0.160167)
(0.130851 -0.0570824 0.00638033)
(0.148307 0.452234 0.00779552)
(0.057303 0.593887 -0.00514837)
(0.0542893 0.514857 0.00315107)
(0.0151087 0.542218 0.00227457)
(0.0141266 0.462034 0.00227108)
(4.12068e-05 0.415667 -0.00178877)
(-0.00220111 0.401408 -0.00422412)
(-0.00493318 0.397089 -0.00522229)
(-0.00551144 0.400995 -0.00583553)
(-0.00640651 0.406864 -0.00505906)
(-0.00658276 0.411438 -0.00372298)
(-0.00642679 0.414951 -0.00178645)
(-0.00559854 0.409983 0.000155685)
(-0.0044221 0.405843 0.00205524)
(-0.00305517 0.39392 0.00358885)
(-0.00172774 0.37024 0.0049204)
(-0.000201291 0.343145 0.00588001)
(0.00157475 0.31199 0.00650907)
(0.00316371 0.279964 0.00696989)
(0.00425536 0.240948 0.00726779)
(0.00492621 0.208469 0.00735032)
(0.00536673 0.177212 0.00720569)
(0.00568553 0.147722 0.00678107)
(0.00576021 0.120286 0.00627564)
(0.00530501 0.0979285 0.00567565)
(0.00416662 0.0771241 0.0051034)
(0.00238516 0.0539271 0.00420174)
(-0.000521833 0.0393786 0.00286377)
(-0.00396265 0.0231821 0.00163733)
(-0.00817889 0.0114397 0.0010006)
(-0.0127675 0.00241725 0.00118203)
(-0.0187603 0.00135476 0.00175582)
(-0.0256094 0.00305485 0.00385855)
(-0.0315947 0.00584498 0.00687711)
(-0.0377472 0.008669 0.0110757)
(-0.0436926 0.00751442 0.0150668)
(0.022398 0.0233902 0.00680046)
(0.0296212 0.0222194 0.00618212)
(0.018211 0.0137046 0.00169972)
(0.0218859 0.0164428 0.00230192)
(0.0148363 0.00757223 0.000188154)
(0.0148444 0.00927935 0.00035269)
(0.00775507 0.00277763 -0.000179192)
(0.00463135 0.00397373 0.000619815)
(6.42326e-06 0.000120493 0.00157286)
(-0.00129203 0.00124149 0.00231189)
(-0.00130215 0.000564884 0.00282452)
(-0.00052448 0.00194864 0.00380137)
(3.46164e-05 0.00237872 0.00417615)
(0.000729581 0.00303663 0.00454575)
(0.00102992 0.00279704 0.00458897)
(0.00117098 0.00262821 0.00467262)
(0.000926021 0.00216915 0.00463375)
(0.000742732 0.00195496 0.00464446)
(0.000511357 0.00168115 0.00460272)
(0.000345661 0.00152943 0.00456705)
(0.000175042 0.00134844 0.00451047)
(3.56099e-05 0.00122203 0.00446119)
(-9.56417e-05 0.00110074 0.00441317)
(-0.000208203 0.00101463 0.00437368)
(-0.000304219 0.000951022 0.00433854)
(-0.000380101 0.000915682 0.00430979)
(-0.00044025 0.000897363 0.00428563)
(-0.000488287 0.000893599 0.00426379)
(-0.000529127 0.000898057 0.00424325)
(-0.00056761 0.000904123 0.004223)
(-0.000602515 0.000917149 0.00420506)
(-0.000639079 0.000917872 0.00418793)
(-0.000662013 0.000948196 0.00417799)
(-0.000704963 0.000917944 0.00416047)
(-0.000696024 0.00101299 0.00416377)
(-0.000765995 0.000888319 0.00413252)
(-0.000697048 0.00115014 0.00415165)
(-0.000817911 0.000811939 0.00409495)
(-0.000655756 0.00140012 0.00413558)
(-0.00084712 0.000675452 0.00404674)
(-0.00059452 0.00182018 0.00409737)
(-0.000858166 0.000508651 0.00396534)
(-0.000556777 0.00250476 0.00399642)
(-0.000756951 0.000358317 0.0038594)
(-0.000412689 0.00348437 0.00387916)
(-0.000359203 6.95042e-05 0.00384722)
(0.000100428 0.00463525 0.0039424)
(0.000449385 -0.00112384 0.00395617)
(0.000978328 0.00538614 0.00396961)
(0.00111163 -0.00383886 0.0036229)
(0.0022192 0.00722252 0.00296695)
(0.00404401 -0.00750279 0.00532701)
(0.0115622 0.00931667 0.0119596)
(0.010311 -0.0130636 0.0199969)
(0.0125926 0.0202012 0.0421469)
(-0.00480342 -0.0270321 0.0509271)
(0.0110152 0.0353206 0.08864)
(-0.0764915 -0.117352 0.0778154)
(0.0287292 0.0737503 -0.165443)
(0.0852601 -0.0103831 0.0162362)
(0.137301 0.478966 0.00379058)
(0.0500181 0.599153 -0.00735574)
(0.0503811 0.560332 0.00198733)
(0.0196294 0.602603 0.00106384)
(0.013084 0.589031 0.000535531)
(0.00221989 0.595333 -0.00190232)
(-0.000640241 0.596524 -0.00231255)
(-0.00418427 0.587628 -0.00217688)
(-0.00587987 0.587892 -0.000994797)
(-0.00763404 0.591002 0.000555844)
(-0.00839969 0.602019 0.00245489)
(-0.0083 0.593297 0.00414673)
(-0.00715855 0.595893 0.00589655)
(-0.00581421 0.601653 0.00726389)
(-0.0039811 0.594487 0.00842232)
(-0.00152553 0.584971 0.00905972)
(0.00112882 0.580996 0.00933429)
(0.00352516 0.569934 0.00931198)
(0.00550734 0.559356 0.00912105)
(0.00679682 0.55095 0.00868374)
(0.0072714 0.527159 0.00829528)
(0.0075111 0.509251 0.0077874)
(0.00762202 0.480668 0.00717447)
(0.00769491 0.446184 0.00647985)
(0.0072605 0.393039 0.00575499)
(0.00554698 0.340574 0.00495958)
(0.00231487 0.298635 0.00383416)
(-0.00165244 0.225347 0.00273772)
(-0.00606461 0.154453 0.00183876)
(-0.0112714 0.106467 0.00127195)
(-0.0168368 0.0646243 0.00158467)
(-0.0228439 0.0237636 0.00192188)
(-0.0304264 0.00844738 0.00545724)
(-0.0372423 0.00662449 0.0090874)
(-0.0427143 0.00768781 0.0120024)
(-0.0476886 0.0070017 0.0128548)
(0.0183743 0.0225611 0.00672487)
(0.0290999 0.0259054 0.00788215)
(0.0162643 0.0139446 0.0032649)
(0.0215299 0.0186461 0.00501105)
(0.0146396 0.00683619 0.00195878)
(0.0155137 0.00935748 0.00197282)
(0.00877786 0.00149672 0.00015637)
(0.00565232 0.00392021 9.053e-05)
(0.000561266 -6.00553e-05 0.00095789)
(-0.00176573 0.00107747 0.00201296)
(-0.00289116 -0.000563374 0.00248499)
(-0.00316614 0.000909136 0.00347156)
(-0.00298348 0.001426 0.00398777)
(-0.00206066 0.00229082 0.00469684)
(-0.00167265 0.0021398 0.00499776)
(-0.00154306 0.00216665 0.00523827)
(-0.00194172 0.00182241 0.00520598)
(-0.00230297 0.00175223 0.00516931)
(-0.00266179 0.00159308 0.00505697)
(-0.00288949 0.00156804 0.00495472)
(-0.00308139 0.00149455 0.00483299)
(-0.00321394 0.0014674 0.00472771)
(-0.00332013 0.00142204 0.00462924)
(-0.00340362 0.00139499 0.00455121)
(-0.00347117 0.00137365 0.00448986)
(-0.00351642 0.00136394 0.00443971)
(-0.00354072 0.00135967 0.00439639)
(-0.00354658 0.00136226 0.00436095)
(-0.00353994 0.00136747 0.00433418)
(-0.00352796 0.00137154 0.0043139)
(-0.00351616 0.00137906 0.00429929)
(-0.00350655 0.00137816 0.00428859)
(-0.00349591 0.00139931 0.00428434)
(-0.00349879 0.00137952 0.00427777)
(-0.00347266 0.00146811 0.00428634)
(-0.00349095 0.00137941 0.0042723)
(-0.00342436 0.00162346 0.00429807)
(-0.00346312 0.00135774 0.00426642)
(-0.00334092 0.0018971 0.00431792)
(-0.00340857 0.0012877 0.004267)
(-0.00327569 0.00232639 0.00431977)
(-0.0033561 0.00115735 0.00424226)
(-0.00326368 0.00295187 0.00425243)
(-0.00318514 0.000890828 0.00419042)
(-0.00316117 0.00376932 0.00413487)
(-0.00270537 0.000349286 0.00416173)
(-0.00251132 0.00476363 0.00420447)
(-0.00167536 -0.000992097 0.00444771)
(-0.00135563 0.00560425 0.00465057)
(-0.000626595 -0.00345109 0.00431772)
(2.77935e-05 0.00714873 0.0035678)
(0.00294639 -0.00685411 0.00457476)
(0.00362771 0.00915287 0.0108459)
(-1.18613e-05 -0.0129737 0.0169012)
(-0.00527185 0.0142458 0.0379772)
(-0.0188104 -0.0330378 0.0527021)
(0.00356782 -0.00679661 0.0905047)
(-0.0325126 -0.111958 0.0876602)
(0.0278409 -0.0275753 -0.161316)
(0.0462582 0.0532483 0.019467)
(0.0778724 0.553 0.00135344)
(0.0314437 0.635686 -0.00745019)
(0.0332323 0.57977 0.00295277)
(0.0190167 0.657394 0.0054671)
(0.0138329 0.622228 0.00686846)
(0.00615931 0.637225 0.00576895)
(0.00199893 0.628935 0.00580983)
(-0.00188893 0.617262 0.00599943)
(-0.00470561 0.633728 0.00677587)
(-0.00683627 0.618078 0.00765)
(-0.00789499 0.637207 0.00845985)
(-0.00821786 0.641731 0.00893967)
(-0.00738412 0.643472 0.00943627)
(-0.00606017 0.624548 0.00983857)
(-0.00391618 0.610031 0.010427)
(-0.000607552 0.626052 0.0105141)
(0.00254788 0.62887 0.010359)
(0.00585591 0.608873 0.0103412)
(0.00955693 0.627899 0.0104083)
(0.0130143 0.619412 0.0101377)
(0.0147027 0.597188 0.0100268)
(0.0161569 0.596099 0.00990533)
(0.0170911 0.589329 0.00958063)
(0.0170656 0.571403 0.00885165)
(0.0163393 0.552674 0.00773783)
(0.0146493 0.529082 0.00681076)
(0.0111207 0.513147 0.00517186)
(0.00618021 0.4884 0.00352221)
(-0.00028741 0.442467 0.00179967)
(-0.00746524 0.398719 0.000749295)
(-0.0161891 0.360576 0.00129991)
(-0.0267954 0.334527 0.00256345)
(-0.0370123 0.311446 0.00586939)
(-0.0449514 0.268025 0.0089286)
(-0.0536194 0.24817 0.0101187)
(-0.0612987 0.276778 0.00918414)
(0.0150713 0.0183839 0.00525195)
(0.0273332 0.0293139 0.00824551)
(0.0125952 0.0138503 0.00407162)
(0.0194746 0.0213839 0.00677204)
(0.0129429 0.00687411 0.00369367)
(0.0144075 0.0100164 0.00381447)
(0.00773218 0.000424417 0.00148959)
(0.00478638 0.00349412 0.000502063)
(7.31043e-05 -0.000422664 0.00124299)
(-0.00220531 0.00131775 0.00229565)
(-0.0037614 -0.000992657 0.00283762)
(-0.00437622 8.92243e-05 0.00381773)
(-0.00393971 -0.000196615 0.00469953)
(-0.00284325 0.000621934 0.00564726)
(-0.00243131 0.000538618 0.00627949)
(-0.00232871 0.00106925 0.00678292)
(-0.00268364 0.0011479 0.0069633)
(-0.00298357 0.00148053 0.00701869)
(-0.00329732 0.001575 0.00693099)
(-0.00348464 0.00175522 0.00681853)
(-0.00364578 0.00181038 0.00667331)
(-0.00374288 0.00187599 0.006546)
(-0.00381459 0.0018903 0.00642822)
(-0.00385984 0.00190325 0.00633304)
(-0.00388517 0.00190342 0.00625555)
(-0.00388632 0.00190356 0.00619654)
(-0.00387138 0.0019034 0.00614779)
(-0.00384059 0.00190154 0.00611024)
(-0.0038014 0.00189484 0.00608194)
(-0.00375838 0.0018871 0.00606282)
(-0.00371613 0.00188494 0.00605192)
(-0.00367404 0.00188036 0.00604691)
(-0.00363767 0.00189616 0.00604642)
(-0.00361212 0.00188526 0.00604328)
(-0.00357415 0.00197078 0.00604502)
(-0.00356227 0.00190693 0.00602585)
(-0.00349904 0.00213895 0.00602887)
(-0.00349987 0.00191205 0.00598247)
(-0.0033962 0.00241513 0.00599775)
(-0.00340176 0.0018523 0.0059272)
(-0.00329665 0.00281369 0.00595116)
(-0.00324917 0.00168321 0.00585851)
(-0.00320101 0.00337065 0.00586995)
(-0.00294172 0.00127091 0.00579367)
(-0.00305421 0.00406934 0.00573862)
(-0.00238591 0.000382699 0.00576275)
(-0.00243695 0.00487953 0.00576437)
(-0.00142579 -0.00125758 0.00603992)
(-0.00161309 0.00604077 0.00637788)
(-0.000729104 -0.00356873 0.00581769)
(-0.000799326 0.00839723 0.00544593)
(0.00368476 -0.00690904 0.00592466)
(0.00302477 0.00977428 0.0113066)
(-0.000735791 -0.0154637 0.0168366)
(-0.0133937 0.0111215 0.0374274)
(-0.0201986 -0.0374825 0.0526517)
(-0.00889354 -0.0182896 0.0904638)
(0.0145876 -0.0976258 0.0870037)
(0.00112353 -0.0559264 -0.147024)
(-0.00556339 0.085969 0.0176857)
(-0.0110125 0.585399 -0.00288502)
(-0.00099563 0.680367 -0.00605609)
(0.00405485 0.682325 0.00699382)
(0.00783161 0.71068 0.0100386)
(0.00720766 0.707553 0.0117232)
(0.00484103 0.700122 0.0113055)
(0.00143723 0.706664 0.0113911)
(-0.000540657 0.716118 0.0113912)
(-0.00318941 0.702365 0.0116449)
(-0.00465764 0.706678 0.0119817)
(-0.00543258 0.700689 0.0122813)
(-0.00557469 0.701699 0.012444)
(-0.00469836 0.696177 0.0125788)
(-0.00263877 0.689385 0.0125476)
(0.000543176 0.679011 0.0126949)
(0.0036714 0.67145 0.0126259)
(0.00762292 0.667725 0.01274)
(0.0111657 0.671346 0.0131041)
(0.0151877 0.666001 0.0136885)
(0.0191085 0.663761 0.0141615)
(0.0221292 0.659085 0.0144315)
(0.0242232 0.655516 0.0145196)
(0.0251227 0.650228 0.0145848)
(0.0251476 0.643329 0.0147573)
(0.0245959 0.633583 0.0150333)
(0.0229144 0.613759 0.0157278)
(0.0202407 0.595377 0.0160426)
(0.0160937 0.580063 0.0160896)
(0.0112918 0.56246 0.0153869)
(0.00435654 0.548509 0.0142629)
(-0.00297768 0.505848 0.0139502)
(-0.0149928 0.485992 0.0118298)
(-0.0310569 0.465041 0.00869401)
(-0.0437064 0.4405 0.00457162)
(-0.0563113 0.430286 -0.00800787)
(-0.0647746 0.401196 -0.0278135)
(0.00345531 0.0152003 -0.00591289)
(0.0247451 0.0312159 0.00574858)
(0.0068571 0.0137365 0.00188831)
(0.0158944 0.0246966 0.00522019)
(0.00973389 0.00813166 0.00273786)
(0.0119765 0.011877 0.00318248)
(0.00592169 0.000789349 0.000450075)
(0.00307691 0.00393725 -0.00184058)
(-0.00168056 -0.000275025 -0.00185326)
(-0.00355608 0.00179971 -0.00113342)
(-0.00528917 -0.00106086 -0.000436527)
(-0.00631518 -0.000312749 0.000305616)
(-0.0069123 -0.00145346 0.0011826)
(-0.00638976 -0.000603567 0.00208972)
(-0.0065307 -0.000480806 0.00286183)
(-0.00666836 0.000416154 0.00346256)
(-0.00718075 0.000742746 0.00387064)
(-0.00751847 0.00130352 0.00411119)
(-0.00783776 0.00152941 0.00418782)
(-0.00797661 0.00181676 0.00419271)
(-0.00805651 0.00194344 0.00414537)
(-0.00807847 0.0020654 0.00409697)
(-0.00807754 0.00212011 0.00404898)
(-0.00805786 0.0021595 0.0040114)
(-0.00802309 0.00217624 0.00398085)
(-0.0079698 0.00218554 0.00395906)
(-0.00789974 0.00218894 0.0039427)
(-0.00781254 0.00218908 0.00393185)
(-0.00772212 0.00218605 0.00392378)
(-0.0076398 0.00218212 0.00391893)
(-0.0075673 0.00218312 0.00391763)
(-0.00749756 0.0021847 0.0039195)
(-0.0074425 0.00220328 0.00392343)
(-0.00739385 0.0022026 0.00392491)
(-0.00734778 0.00228278 0.00392396)
(-0.00729001 0.00223818 0.00390871)
(-0.00724014 0.00244874 0.00389331)
(-0.00715077 0.00226108 0.00385468)
(-0.00711007 0.00273452 0.00382757)
(-0.0069617 0.00224689 0.00377865)
(-0.00702646 0.0031665 0.00374865)
(-0.0067852 0.00207352 0.00369395)
(-0.00697898 0.00367105 0.00366002)
(-0.00647877 0.0015657 0.00360668)
(-0.00675004 0.00430338 0.00352334)
(-0.00591336 0.000563222 0.00348575)
(-0.00604201 0.00514089 0.00339385)
(-0.00515105 -0.00113987 0.00346087)
(-0.0054557 0.00657266 0.00387658)
(-0.00457314 -0.00406598 0.00319047)
(-0.00452414 0.00851735 0.00383398)
(0.00106022 -0.00866017 0.00549478)
(-0.00226236 0.0106493 0.00852592)
(-0.00620553 -0.0164793 0.0118809)
(-0.021935 0.0182045 0.0284543)
(-0.0201424 -0.0503443 0.0418247)
(-0.0261216 -0.0177998 0.0711501)
(0.0481259 -0.125147 0.0738324)
(-0.0317993 -0.00172306 -0.160832)
(-0.0530163 0.037303 0.00781416)
(-0.103994 0.516856 -0.0141219)
(-0.0326309 0.601182 -0.00794682)
(-0.0257389 0.580386 0.00282112)
(-0.00404844 0.616424 0.00669053)
(-0.00173837 0.609154 0.00785287)