/*--------------------------------*- C++ -*----------------------------------*\
| =========                 |                                                 |
| \\      /  F ield         | OpenFOAM: The Open Source CFD Toolbox           |
|  \\    /   O peration     | Version:  2.3.0                                 |
|   \\  /    A nd           | Web:      www.OpenFOAM.org                      |
|    \\/     M anipulation  |                                                 |
\*---------------------------------------------------------------------------*/
FoamFile
{
    version     2.0;
    format      ascii;
    class       volVectorField;
    location    "41";
    object      U.air;
}
// * * * * * * * * * * * * * * * * * * * * * * * * * * * * * * * * * * * * * //

dimensions      [0 1 -1 0 0 0 0];

internalField   nonuniform List<vector> 
6144
(
(0.0114186 0.0201847 0.000673762)
(0.0113385 -0.00783118 -0.000880576)
(0.00471859 -0.00808185 -0.00235098)
(0.00298474 -0.00821963 -0.00252828)
(0.00191842 -0.00591113 -0.0023811)
(0.00269838 -0.00237446 -0.00246402)
(0.00304308 -0.000731098 -0.00210509)
(0.00280345 0.000421782 -0.00141246)
(0.00195121 0.00083659 -0.000898762)
(0.00135641 0.00291209 -0.000123855)
(0.000985218 0.00471721 0.000586048)
(0.00102958 0.00569551 0.00134878)
(0.00127241 0.00559148 0.00187436)
(0.00145432 0.00465596 0.00226518)
(0.00159364 0.00343172 0.00212227)
(0.00172873 0.00227339 0.00184501)
(0.00182906 0.0012546 0.0014435)
(0.00192989 0.000489033 0.00109534)
(0.00201169 -9.27207e-05 0.000754339)
(0.00207234 -0.000410412 0.000460118)
(0.00212235 -0.000558595 0.000231273)
(0.00214861 -0.000575145 0.000110487)
(0.0021525 -0.00052256 6.46008e-05)
(0.00213514 -0.000432289 7.55399e-05)
(0.00210019 -0.000329481 0.000135457)
(0.00205328 -0.000235852 0.000237162)
(0.00199602 -0.000169591 0.000391789)
(0.00193876 -0.000137751 0.000551887)
(0.00188807 -0.000147836 0.000685003)
(0.0018379 -0.000187525 0.000793489)
(0.00179037 -0.000228884 0.000879249)
(0.00174754 -0.000262444 0.000953547)
(0.0017095 -0.000286001 0.00102321)
(0.00167469 -0.000312619 0.00108876)
(0.00163967 -0.000316829 0.0011557)
(0.00160619 -0.000354229 0.00122433)
(0.00157168 -0.000326519 0.0013219)
(0.00153454 -0.00045752 0.00142012)
(0.00150152 -0.000419868 0.00155772)
(0.00145654 -0.000781386 0.00167709)
(0.00142278 -0.000713983 0.00179949)
(0.00137367 -0.00140782 0.00188294)
(0.00134174 -0.00117729 0.00190471)
(0.00129828 -0.00218967 0.00184386)
(0.00119032 -0.0013601 0.00156784)
(0.00115851 -0.00198408 0.00126527)
(0.000935699 0.000212049 0.000595124)
(0.0011017 0.000984272 0.000504845)
(0.00142877 0.00361271 5.54083e-05)
(0.00319579 0.00120064 -0.000573602)
(0.00413257 0.00516328 -0.000164311)
(0.0046894 -0.00724529 -0.00259171)
(0.00949603 0.0114033 -0.00516113)
(0.00724232 -0.00878131 -0.00587726)
(0.00779253 0.0289216 -0.00729067)
(-0.00169267 -0.0299953 -0.00776313)
(0.0202216 0.0808929 0.0142746)
(0.000395916 -0.0724907 -0.000896022)
(-0.0559167 0.112998 -0.123877)
(0.00750912 0.0297119 -0.0875885)
(0.0628113 0.352479 0.00625333)
(0.0405943 0.372048 -0.0136003)
(0.0343537 -0.127081 -0.0148468)
(0.0302027 -0.153902 -0.0104149)
(0.0251804 -0.151686 -0.00757492)
(0.0159828 -0.154068 -0.00553567)
(0.00807071 -0.149689 -0.00503884)
(0.00232581 -0.136657 -0.00404058)
(-0.0032906 -0.113514 -0.00269314)
(-0.00820821 -0.0878591 -0.00318787)
(-0.0152844 -0.056806 -0.00259021)
(-0.0141387 -0.0236485 -0.00237376)
(-0.00640021 -0.00246486 -0.00328993)
(-0.00144581 0.011714 -0.00259079)
(0.00119574 0.0215932 -0.0012969)
(0.00315593 0.0255312 -0.00046385)
(0.00442278 0.0262194 0.000328069)
(0.0051152 0.0247298 0.00129732)
(0.00473075 0.0217909 0.0025575)
(0.00348532 0.0185615 0.00395935)
(0.00147107 0.0152993 0.00456428)
(-0.000218911 0.0132612 0.00441022)
(-0.000622588 0.0125762 0.00350529)
(0.00031625 0.0129131 0.00197616)
(0.00252845 0.0136452 -0.000397306)
(0.00579373 0.0126397 -0.00302245)
(0.0100485 0.00885746 -0.00623698)
(0.0150172 0.00229811 -0.00858956)
(0.0201133 -0.00841044 -0.010368)
(0.0235712 -0.0221099 -0.011514)
(0.0227209 -0.0367694 -0.0108354)
(0.0113387 -0.0473126 -0.00776333)
(0.00180771 -0.0430971 -0.00496975)
(-0.00280842 -0.0272809 -0.00298976)
(-0.00494235 -0.0121154 -3.19711e-05)
(-0.00785815 -0.00373441 0.00207119)
(0.0222336 0.0195818 0.00366522)
(0.023265 0.00180082 0.00317512)
(0.0106663 -0.00136844 -0.00100356)
(0.00921363 -0.00360205 -0.00103716)
(0.00517885 -0.00519562 -0.000803819)
(0.0052133 -0.00340445 -0.000462585)
(0.00432783 -0.00191995 0.000974912)
(0.00369395 0.00015264 0.00211866)
(0.00200718 0.00121846 0.00207969)
(0.00106506 0.00431119 0.00217625)
(0.0011544 0.00627933 0.00261887)
(0.00175607 0.00719782 0.0035323)
(0.00249933 0.00688318 0.00414529)
(0.00300798 0.00600618 0.00448774)
(0.00323574 0.00467566 0.00451018)
(0.00339192 0.00340799 0.00442152)
(0.00344912 0.00222922 0.00426256)
(0.00354052 0.00132193 0.00413531)
(0.0035943 0.000580139 0.00402657)
(0.00362406 0.000102912 0.00393861)
(0.00367231 -0.000178748 0.00380304)
(0.00368036 -0.000306913 0.00373844)
(0.00364856 -0.000340158 0.00373709)
(0.0035817 -0.00031452 0.00378654)
(0.0034859 -0.00025975 0.00387661)
(0.00337212 -0.000198766 0.0039966)
(0.00324896 -0.000150408 0.00413469)
(0.00313531 -0.000124743 0.00425381)
(0.00304614 -0.000127919 0.00432453)
(0.00295537 -0.000148923 0.00438902)
(0.00286284 -0.000161856 0.00445027)
(0.00277801 -0.000168648 0.00450996)
(0.00270401 -0.000170674 0.0045685)
(0.00263363 -0.000184754 0.0046249)
(0.00256702 -0.000181126 0.00468261)
(0.0024973 -0.000227477 0.00473601)
(0.00244806 -0.000204431 0.00480252)
(0.00238264 -0.000361838 0.00485251)
(0.00238041 -0.000308157 0.0049316)
(0.00231003 -0.000732398 0.00498761)
(0.00235864 -0.000606933 0.00505221)
(0.00227626 -0.00142672 0.00508577)
(0.00232977 -0.0010216 0.00508568)
(0.00218793 -0.00218657 0.00507535)
(0.00191001 -0.000974423 0.00495232)
(0.00151915 -0.00185378 0.00486064)
(0.000673607 0.000669034 0.00424715)
(0.00129871 0.000462356 0.00447044)
(0.00231206 0.00242597 0.00471962)
(0.00569586 -0.00183556 0.00443699)
(0.00915515 0.00266966 0.00419973)
(0.00564952 -0.0106327 -8.3864e-05)
(0.00697378 0.0109301 0.000438999)
(0.00772556 -0.00434796 -0.00146394)
(0.028619 0.0318017 0.00029984)
(0.0246877 -0.0440875 -0.00440101)
(-0.0117336 0.0227475 -0.00584531)
(-0.00601709 -0.00717871 -0.0401228)
(0.0483585 0.18249 -0.0502714)
(0.130944 0.0201849 -0.0471448)
(0.0918145 0.344755 0.0421066)
(0.0524664 0.390075 0.0115637)
(0.0432963 -0.102686 -0.0102078)
(0.0378767 -0.0990873 0.00592557)
(0.0247428 -0.104961 0.00955673)
(0.00456842 -0.114998 0.0082343)
(-0.0107996 -0.111738 0.00770927)
(-0.0201481 -0.10085 0.00627402)
(-0.0255608 -0.0832333 0.00510649)
(-0.028966 -0.0615104 0.00166391)
(-0.0283322 -0.0374282 0.000915067)
(-0.0227072 -0.0115561 8.87422e-05)
(-0.0170178 0.0105278 -0.00174704)
(-0.0103995 0.0282956 0.000877068)
(-0.00457057 0.0378365 0.00388922)
(-0.00108792 0.0415475 0.00622957)
(0.000709041 0.0414891 0.00901064)
(0.000269855 0.0388219 0.0113643)
(-0.00165334 0.0346382 0.0135844)
(-0.00458204 0.0289564 0.0153132)
(-0.00760817 0.0232163 0.0155085)
(-0.0098998 0.0189968 0.0137779)
(-0.0108712 0.0174406 0.0103891)
(-0.0100192 0.0178853 0.00560259)
(-0.00495644 0.0189878 0.000999604)
(0.0056037 0.0180306 -0.00129197)
(0.0167305 0.0144705 -0.00307677)
(0.0275195 0.00791071 -0.00514948)
(0.0386462 -0.000954145 -0.0074068)
(0.044001 -0.0126212 -0.00959363)
(0.0393055 -0.0227876 -0.0110246)
(0.0184324 -0.0335019 -0.00817291)
(-0.00724171 -0.0359798 -0.00214785)
(-0.0150265 -0.0220886 -0.000986318)
(-0.0168876 -0.00825959 0.00115592)
(-0.0191848 -0.000463559 0.00419245)
(0.0261504 0.0212853 0.00486381)
(0.0263227 0.009526 0.00448034)
(0.016544 0.00598362 0.00165885)
(0.0136961 0.00334531 0.00261994)
(0.00690367 -0.000996929 0.00330051)
(0.0050024 -0.000166022 0.00317071)
(0.00207897 -0.000676361 0.00378264)
(0.000972796 0.00101061 0.00398292)
(-0.00083934 0.00120698 0.00364767)
(-0.00144877 0.00386981 0.00353281)
(-0.000793473 0.00541243 0.00372603)
(0.000523239 0.00638435 0.00430363)
(0.00146927 0.00627048 0.00480546)
(0.00215355 0.00595292 0.00514178)
(0.00251248 0.00509577 0.00517558)
(0.0027105 0.00420878 0.00511001)
(0.00276246 0.00323258 0.00498686)
(0.0028455 0.00243509 0.00490484)
(0.00287424 0.00172971 0.00484946)
(0.00284548 0.00116841 0.00483802)
(0.00276379 0.000730086 0.00485297)
(0.00266979 0.000439025 0.00489055)
(0.00256444 0.00024622 0.00493877)
(0.00244476 0.000133421 0.00499722)
(0.00231401 7.13949e-05 0.00506176)
(0.0021798 4.25753e-05 0.00512664)
(0.00204921 2.79702e-05 0.0051905)
(0.00191865 1.53615e-05 0.00525258)
(0.00177901 1.31436e-05 0.00531341)
(0.00163157 3.06688e-05 0.00537294)
(0.00148654 5.95129e-05 0.00543384)
(0.00135941 8.44946e-05 0.00549484)
(0.00125311 0.000102969 0.00555536)
(0.00115506 0.00010194 0.00561359)
(0.00106971 0.0001046 0.00567236)
(0.000978684 4.71522e-05 0.00572129)
(0.000926721 5.09708e-05 0.00578698)
(0.000841977 -0.000108162 0.00582329)
(0.000860785 -6.5517e-05 0.00590813)
(0.000785683 -0.000437765 0.00593991)
(0.000862105 -0.000253416 0.00601888)
(0.000738163 -0.000929093 0.00603582)
(0.00076571 -0.000319728 0.00607186)
(0.000478453 -0.0012771 0.00607634)
(4.96086e-05 0.000120765 0.00599819)
(-0.000332972 -0.000862559 0.00598229)
(-0.00107642 0.00125402 0.00579354)
(0.000181197 0.000140184 0.0061538)
(0.00143288 0.00243872 0.00690032)
(0.00416611 -0.000900732 0.00768175)
(0.00841251 0.00697757 0.00758669)
(0.00315869 0.00415782 0.00270556)
(0.00560737 0.0256387 0.00704508)
(0.0106782 -0.0230876 0.00743969)
(0.0383025 -0.00508082 -0.000347552)
(0.0415367 -0.0538944 -0.000486382)
(-0.0224583 0.0308787 0.00306338)
(-0.051064 -0.0820782 -0.0227215)
(-0.0131156 0.199424 -0.0689811)
(0.141493 0.00485758 -0.0150807)
(0.128246 0.341477 0.0510015)
(0.081554 0.414204 0.00732428)
(0.0805859 -0.0843028 -0.0110655)
(0.0611511 -0.0588616 0.0107468)
(0.033091 -0.0746788 0.0121452)
(0.00771808 -0.0791487 0.00787313)
(-0.0119154 -0.0765172 0.00758554)
(-0.0291047 -0.0670456 0.00767354)
(-0.0418939 -0.0502 0.00572801)
(-0.0456707 -0.0328171 0.00309074)
(-0.0471905 -0.0132468 0.00236687)
(-0.043492 0.0122021 -0.00232926)
(-0.0316259 0.0314154 -0.000875863)
(-0.0207203 0.0438231 0.00444822)
(-0.0138734 0.0507362 0.00890903)
(-0.0101154 0.0526479 0.0134647)
(-0.00849619 0.0508348 0.0171775)
(-0.00879675 0.0472829 0.0195996)
(-0.0105218 0.0424983 0.0208822)
(-0.0134635 0.0365697 0.0198922)
(-0.0169742 0.0315288 0.0161387)
(-0.0198639 0.0285407 0.0112046)
(-0.0194984 0.0277865 0.00620186)
(-0.0139766 0.027627 0.00242874)
(-0.00227177 0.0261578 0.00127154)
(0.0125019 0.0233665 0.000461515)
(0.0272895 0.0194801 -0.00129423)
(0.0421279 0.0125013 -0.00302213)
(0.0571027 0.00505959 -0.00576182)
(0.0653993 -0.00383896 -0.00874978)
(0.0610736 -0.0136412 -0.0109325)
(0.035098 -0.0208236 -0.0125462)
(-0.00998745 -0.0262792 -0.00223858)
(-0.0260369 -0.0180187 0.00230176)
(-0.0272508 -0.00564334 0.00285671)
(-0.0327748 0.000903184 0.00522811)
(0.0282276 0.0249421 0.00460696)
(0.028564 0.0164545 0.00445252)
(0.0192342 0.0129369 0.00132132)
(0.0163744 0.0100479 0.00246671)
(0.0082192 0.00426145 0.00332997)
(0.00514101 0.00334818 0.00356623)
(0.00131974 0.000942456 0.00449234)
(-0.000259411 0.00182912 0.00452684)
(-0.00264955 0.000783747 0.00429251)
(-0.00350589 0.00263934 0.00387455)
(-0.00249377 0.00378228 0.00402763)
(-0.000932182 0.00490093 0.00458972)
(0.000147985 0.0052378 0.00500747)
(0.000932236 0.00537886 0.00533655)
(0.00134627 0.0049331 0.0053748)
(0.00157537 0.00437375 0.00534913)
(0.00159609 0.00357335 0.00527404)
(0.00160553 0.00288521 0.00523906)
(0.00157658 0.00224866 0.00521072)
(0.00151679 0.00171571 0.00520209)
(0.00139866 0.00124864 0.00519927)
(0.00125214 0.00087815 0.00521192)
(0.00109269 0.00058554 0.00523861)
(0.000925949 0.000375933 0.00527832)
(0.00075935 0.000236168 0.00532565)
(0.000601046 0.000156856 0.00537531)
(0.000457946 0.000122975 0.00542287)
(0.000324496 0.000119819 0.00546491)
(0.00018974 0.000134468 0.00550194)
(4.99097e-05 0.000160553 0.00554271)
(-7.71471e-05 0.000189524 0.00559103)
(-0.000181681 0.000212835 0.00564237)
(-0.00026595 0.000235266 0.00569323)
(-0.000340982 0.000247515 0.00574076)
(-0.000403175 0.000261401 0.00578405)
(-0.000467223 0.00022716 0.005817)
(-0.000482301 0.000240347 0.00585703)
(-0.000531321 9.02496e-05 0.0058721)
(-0.000445579 0.000156714 0.00594682)
(-0.000517311 -0.000183487 0.00593272)
(-0.000366265 8.93041e-05 0.00602801)
(-0.000543028 -0.000493333 0.00597957)
(-0.000436157 0.000206334 0.00604725)
(-0.000787706 -0.000754992 0.00602703)
(-0.00111101 0.00048098 0.00595585)
(-0.00160573 -0.000748037 0.00590023)
(-0.00241523 0.0013242 0.00550582)
(-0.00172625 0.000149761 0.00556215)
(-0.00104613 0.00363807 0.00601907)
(0.000257207 0.00207796 0.00670736)
(-0.000420821 0.0114638 0.00605135)
(-0.00372268 0.0092307 0.00386738)
(0.0175134 0.0199334 0.0157331)
(0.0322429 -0.025076 0.0159473)
(0.0434469 -0.0185604 0.00872876)
(0.0177536 -0.0671613 0.00984103)
(-0.0234435 0.0394948 0.00945779)
(-0.10154 -0.129957 -0.0257286)
(0.0245658 0.253357 -0.121041)
(0.170136 -0.0217531 0.00223509)
(0.147716 0.385773 0.0496959)
(0.0915942 0.517091 0.000665607)
(0.0632652 0.218426 -0.0311511)
(0.0561266 0.0127864 -0.00277966)
(0.0164091 -0.0474505 -0.00256945)
(0.00549653 -0.0359133 -0.00312125)
(-0.0204097 -0.0306522 0.0010458)
(-0.0370685 -0.0244694 0.00389191)
(-0.0507051 -0.0118876 0.00385353)
(-0.0601092 0.00447778 0.00192259)
(-0.0624106 0.0258938 -0.00205765)
(-0.0506768 0.0624495 -0.00246008)
(-0.0357979 0.361182 0.00520407)
(-0.0289167 0.387264 0.00986502)
(-0.0241576 0.0801379 0.0136067)
(-0.0217014 0.0822668 0.0187075)
(-0.0222676 0.281438 0.0214563)
(-0.0242447 0.525709 0.0207668)
(-0.0249313 0.531655 0.0189621)
(-0.0252123 0.522003 0.0148453)
(-0.0235936 0.518424 0.0102303)
(-0.0200437 0.500641 0.00676708)
(-0.0143504 0.388351 0.00481947)
(-0.011735 0.0529972 0.00467624)
(-0.000253308 0.0479991 0.00429684)
(0.0211877 0.367263 0.00201149)
(0.0360258 0.422784 0.000252493)
(0.0474979 0.0399252 -0.000995364)
(0.0652894 0.0105637 -0.00364919)
(0.0780935 0.00410444 -0.00685468)
(0.0754724 -0.00818831 -0.010707)
(0.0493647 -0.0122283 -0.0149711)
(-0.0127761 -0.0168179 -0.00465517)
(-0.038087 -0.0119628 0.00227926)
(-0.0414482 -0.00461854 0.00318522)
(-0.039764 0.00322284 0.00415732)
(0.0301485 0.0274785 0.00490057)
(0.0311043 0.0223812 0.00452529)
(0.0231888 0.018802 0.00173917)
(0.0218673 0.0160257 0.00129536)
(0.0120739 0.00905861 0.000812056)
(0.00788049 0.00627935 0.00132843)
(0.00117 0.00103601 0.00297215)
(-0.000828284 0.00214194 0.00335559)
(-0.00359506 9.99096e-05 0.0038489)
(-0.00500846 0.00161107 0.00385849)
(-0.00439034 0.00253397 0.00405229)
(-0.00298302 0.00389485 0.00463733)
(-0.00198271 0.00446789 0.00492426)
(-0.00106754 0.00482054 0.005249)
(-0.000567936 0.00458563 0.00525426)
(-0.000335434 0.00416641 0.00525526)
(-0.00041095 0.0035028 0.00521067)
(-0.000577228 0.00293301 0.00521644)
(-0.000757665 0.00239976 0.00520198)
(-0.00092328 0.00193442 0.00517704)
(-0.00110055 0.00148417 0.0051364)
(-0.00127602 0.00108215 0.00510915)
(-0.0014446 0.000744831 0.00509631)
(-0.00161471 0.000485354 0.0050941)
(-0.00178752 0.000299991 0.00509783)
(-0.00194481 0.000184739 0.00510615)
(-0.00207542 0.000123981 0.005118)
(-0.00218421 0.000102837 0.00513086)
(-0.00229314 0.00010506 0.00514294)
(-0.00240782 0.000126784 0.00515366)
(-0.00251333 0.000162861 0.00516887)
(-0.00259979 0.000199381 0.00518374)
(-0.00266598 0.000235679 0.00519799)
(-0.00271815 0.000262643 0.00521132)
(-0.00274738 0.000290648 0.00522369)
(-0.00276756 0.000276069 0.00523166)
(-0.00275185 0.000300317 0.00524913)
(-0.00277135 0.000188494 0.00524625)
(-0.00266096 0.000291447 0.00529285)
(-0.00274242 4.45725e-05 0.00526089)
(-0.00254753 0.000380564 0.00533221)
(-0.00275576 -3.74634e-05 0.0052538)
(-0.00258098 0.000689695 0.00529126)
(-0.00297683 -8.46719e-07 0.0052144)
(-0.00313873 0.00117668 0.00500637)
(-0.00376669 0.000119181 0.00462249)
(-0.00408014 0.00204831 0.00373233)
(-0.00367608 3.53747e-05 0.00341848)
(-0.00305251 0.00307875 0.00361945)
(-0.0034447 -0.000480774 0.00395664)
(-0.00366569 0.00820068 0.00452204)
(-0.00354439 -0.00587339 0.00471613)
(0.0192305 -0.00669052 0.0157249)
(0.050702 -0.0431271 0.0221039)
(0.0559086 -0.042595 0.0156529)
(0.0300868 -0.0941374 0.0175532)
(0.000783969 -0.0455579 0.0300971)
(-0.109475 -0.170383 0.0342732)
(0.0122896 0.164191 -0.134687)
(0.158376 -0.016471 0.0353001)
(0.15675 0.388757 0.0526256)
(0.085044 0.558593 -0.0101174)
(0.0659306 0.441623 -0.00215271)
(0.0196029 0.518877 -0.0029849)
(0.00266073 0.470479 0.00302384)
(-0.022686 0.50039 -0.000559816)
(-0.0423395 0.487147 0.00118783)
(-0.0606677 0.506785 -0.000248175)
(-0.0655486 0.515419 -0.00118535)
(-0.0658087 0.512748 -0.00160808)
(-0.0568912 0.519186 -0.000155849)
(-0.0471144 0.531972 0.00546516)
(-0.0415937 0.546687 0.0112863)
(-0.0392304 0.547338 0.0154769)
(-0.0382544 0.546436 0.0192849)
(-0.0382643 0.55696 0.02176)
(-0.0382581 0.544351 0.0221993)
(-0.037015 0.566228 0.0206075)
(-0.0335903 0.54992 0.0167246)
(-0.0298639 0.551304 0.0130333)
(-0.0233628 0.545019 0.00878898)
(-0.0156848 0.540064 0.00607977)
(-0.00710824 0.530903 0.00488288)
(0.00346527 0.521914 0.00398031)
(0.0164928 0.516044 0.00273371)
(0.0317076 0.511083 0.00118371)
(0.0488048 0.508187 -0.000774252)
(0.0659353 0.504482 -0.00311756)
(0.0810984 0.479078 -0.00679022)
(0.0883684 0.35817 -0.0107502)
(0.0878426 0.0226248 -0.0132332)
(0.0598561 -0.000455158 -0.0165146)
(-0.00905576 -0.00656012 -0.00618633)
(-0.0410926 -0.00377486 0.00336794)
(-0.0484072 -0.00276549 0.00348985)
(-0.0495176 0.00262024 0.0041374)
(0.0296323 0.0287946 0.00930544)
(0.0320728 0.0262006 0.00643521)
(0.0252613 0.0223691 0.00348072)
(0.0257696 0.0203379 0.00222924)
(0.0179618 0.0135049 -0.000459836)
(0.0142061 0.0104041 -0.000295551)
(0.00373746 0.00150868 -0.000398711)
(-0.000608761 0.00235861 0.000459305)
(-0.00417769 -0.00101643 0.00189072)
(-0.00689403 0.000190665 0.00279892)
(-0.00627791 0.000931592 0.00327778)
(-0.00458839 0.00256661 0.00416236)
(-0.0030339 0.00340649 0.00450509)
(-0.0017903 0.00403554 0.00508691)
(-0.00107032 0.00388913 0.00529069)
(-0.000757381 0.00353731 0.00547094)
(-0.000917839 0.00292419 0.00545945)
(-0.00123408 0.00247733 0.00544844)
(-0.00152108 0.00211947 0.00539446)
(-0.00175953 0.00184593 0.00531079)
(-0.00198812 0.00156036 0.00518632)
(-0.00220979 0.00127381 0.00505951)
(-0.00243472 0.00100875 0.00494063)
(-0.00263785 0.000782293 0.00483508)
(-0.00281659 0.000615183 0.00473962)
(-0.00296013 0.000510866 0.00464741)
(-0.00306807 0.000449545 0.00456082)
(-0.00315381 0.000414951 0.00448381)
(-0.00324061 0.000391273 0.00442516)
(-0.00334104 0.000383349 0.00438298)
(-0.00342266 0.00039777 0.00435761)
(-0.00347963 0.000424939 0.00434082)
(-0.00351408 0.000462463 0.00432912)
(-0.00353266 0.000500515 0.00432018)
(-0.0035285 0.000544751 0.00431218)
(-0.00351348 0.000555621 0.004303)
(-0.00346122 0.000602831 0.00430522)
(-0.00343822 0.000547914 0.00429775)
(-0.00330558 0.00069583 0.0043306)
(-0.0033582 0.000555332 0.00429968)
(-0.00320677 0.000962826 0.00432656)
(-0.003438 0.00076478 0.00418018)
(-0.00334955 0.0015518 0.00407228)
(-0.00360009 0.00115345 0.00381039)
(-0.00351887 0.00231555 0.00338415)
(-0.00358076 0.00134376 0.00296142)
(-0.0031271 0.00271146 0.00205971)
(-0.00230593 -8.35671e-05 0.00176928)
(-0.0012172 0.000508859 0.00204597)
(-0.00298171 -0.00493724 0.00216813)
(0.000249523 -0.00388653 0.00298269)
(0.00609519 -0.0198433 0.00335799)
(0.0285827 -0.019636 0.0137207)
(0.064912 -0.048115 0.0294456)
(0.0635201 -0.0299404 0.0416105)
(0.018112 -0.0657408 0.0564799)
(-0.0391826 -0.0165081 0.0809091)
(-0.151632 -0.14186 0.0855022)
(0.0197655 0.144211 -0.147339)
(0.136295 -0.0237717 0.0515662)
(0.156446 0.414088 0.054875)
(0.0824178 0.58135 -0.0201727)
(0.0671457 0.50543 -0.00313067)
(0.0200144 0.553786 -0.00700939)
(-0.00129871 0.531568 -0.00466662)
(-0.0312204 0.547353 -0.00583569)
(-0.0435339 0.536687 -0.00514755)
(-0.0532925 0.528447 -0.00514983)
(-0.0569169 0.517959 -0.00369995)
(-0.0565967 0.562266 -0.00130683)
(-0.0514761 0.536661 0.00393249)
(-0.0499824 0.524487 0.00800511)
(-0.0490632 0.505789 0.0114566)
(-0.0499176 0.50612 0.0177466)
(-0.0534939 0.518401 0.0220749)
(-0.0528077 0.56321 0.0230575)
(-0.0506649 0.579894 0.0217856)
(-0.0435056 0.574414 0.0152531)
(-0.0364627 0.577407 0.0108739)
(-0.0258639 0.573382 0.00617338)
(-0.0160542 0.563336 0.00511724)
(-0.00691515 0.551562 0.00422062)
(0.00157997 0.531867 0.00430905)
(0.0115899 0.51124 0.00410949)
(0.0243414 0.499776 0.00367275)
(0.0327512 0.490983 0.00291814)
(0.0528456 0.499515 1.88487e-05)
(0.0662535 0.509744 -0.00256987)
(0.0806118 0.499932 -0.00700391)
(0.0837076 0.494792 -0.0135509)
(0.0657178 0.471057 -0.0181653)
(0.0199297 0.340756 -0.0179665)
(-0.0113787 0.0258624 -0.0117042)
(-0.0461862 0.00329685 2.7004e-05)
(-0.0548981 0.00021216 0.00204307)
(-0.053985 0.003164 0.000772314)
(0.0269932 0.0293452 0.0107095)
(0.0303374 0.0294572 0.00897985)
(0.024274 0.0246204 0.00508392)
(0.0258322 0.0230919 0.0053583)
(0.0207209 0.0159981 0.00119741)
(0.0190685 0.0136712 0.00137023)
(0.00805644 0.00323389 -0.00207807)
(0.00110711 0.00324595 -0.00164012)
(-0.00322225 -0.0014397 -3.90417e-05)
(-0.00718679 -0.000750629 0.00163812)
(-0.00766793 -0.000504022 0.00238387)
(-0.00660565 0.0016199 0.00369345)
(-0.00562341 0.00256073 0.00418914)
(-0.00413249 0.00307378 0.00519717)
(-0.00323469 0.00294967 0.00582276)
(-0.00291566 0.00273956 0.00628861)
(-0.00323129 0.00227605 0.00637085)
(-0.00387561 0.0019726 0.00627505)
(-0.0044199 0.00177159 0.00609479)
(-0.00479114 0.0016911 0.00589235)
(-0.0050286 0.00161536 0.00564486)
(-0.00521923 0.00153666 0.00540472)
(-0.00537076 0.00144878 0.00518166)
(-0.00551181 0.00136237 0.00499509)
(-0.00566158 0.00130835 0.00485645)
(-0.00575555 0.00127558 0.00471484)
(-0.00579433 0.00124747 0.00458883)
(-0.00578414 0.00121284 0.00450219)
(-0.00578745 0.00116444 0.00444989)
(-0.00582433 0.00112843 0.00442564)
(-0.00585985 0.00111877 0.00442125)
(-0.00587729 0.0011255 0.00442505)
(-0.00587456 0.00114919 0.00443307)
(-0.00585524 0.00118674 0.00444345)
(-0.00580371 0.00124013 0.00446043)
(-0.00573576 0.00128179 0.00447655)
(-0.00566423 0.0013559 0.00448881)
(-0.00560548 0.00138967 0.00449893)
(-0.0055198 0.0015871 0.00451896)
(-0.00552614 0.00159549 0.00451368)
(-0.00551186 0.00205389 0.00448929)
(-0.00556766 0.00200843 0.00434289)
(-0.00552001 0.00270069 0.00413165)
(-0.00536956 0.00234108 0.00380245)
(-0.00509719 0.00325425 0.0033352)
(-0.00453996 0.00220315 0.00291872)
(-0.00316573 0.00303969 0.00230493)
(-0.00152948 -0.00044731 0.00220474)
(0.000366308 -0.00151398 0.00292185)
(0.00070739 -0.00867476 0.00172299)
(0.00484234 -0.012875 -0.000388095)
(0.0138444 -0.0233865 0.000257784)
(0.0326337 -0.0191962 0.0167199)
(0.0488722 -0.0356544 0.0476954)
(0.026276 0.0124499 0.0475831)
(-0.019027 -0.033213 0.0535055)
(-0.0451169 0.00247884 0.129085)
(-0.122358 -0.141795 0.136366)
(0.0343758 0.0854429 -0.106853)
(0.0934801 0.00159073 0.0653019)
(0.126392 0.484309 0.0527702)
(0.0739493 0.615665 -0.0200872)
(0.0740424 0.505045 -0.00136527)
(0.0346818 0.598758 -0.00499751)
(0.00274104 0.600254 -0.00376856)
(-0.0131795 0.585051 -0.00304953)
(-0.0294907 0.414343 -0.0022782)
(-0.0394738 0.27702 -0.00161044)
(-0.0481687 0.583465 0.00308669)
(-0.0538013 0.557177 0.00667996)
(-0.0561099 0.52694 0.00922741)
(-0.0592224 0.590432 0.0122119)
(-0.0612379 0.530355 0.0157126)
(-0.0623307 0.553476 0.0181899)
(-0.0638234 0.541629 0.0194979)
(-0.0620332 0.562823 0.0162518)
(-0.0578588 0.585413 0.0113491)
(-0.0510588 0.578887 0.00639012)
(-0.0411162 0.593719 0.00475663)
(-0.0208994 0.583987 0.00739837)
(-0.00834837 0.574627 0.0113753)
(0.00519919 0.54861 0.0145825)
(0.015569 0.510651 0.0155188)
(0.0197035 0.351808 0.0139849)
(0.0244861 0.0499742 0.0148472)
(0.0338585 0.0347345 0.0135285)
(0.0558802 0.429757 0.00600514)
(0.0696731 0.462215 0.00105288)
(0.0836938 0.457609 -0.00558203)
(0.0880005 0.462541 -0.0133139)
(0.0722352 0.475281 -0.0193616)
(0.0273499 0.49563 -0.025071)
(-0.02605 0.500863 -0.0128825)
(-0.0479841 0.481573 -0.00446272)
(-0.0547819 0.471607 -0.00609191)
(-0.0549631 0.464637 -0.0100306)
(0.0257458 0.0271976 0.00951506)
(0.0278034 0.0326767 0.00874717)
(0.0215943 0.0278421 0.00498037)
(0.0247933 0.0276645 0.00568295)
(0.0204083 0.018461 0.00268187)
(0.0211046 0.0155494 0.00428524)
(0.010946 0.00387923 -0.000829467)
(0.00209189 0.00358442 -0.00245033)
(-0.00283426 -0.00141892 -0.000233192)
(-0.00771162 -0.000379798 0.00119361)
(-0.00891375 -0.00142796 0.00206195)
(-0.00805877 4.82907e-05 0.00357402)
(-0.00557843 0.000162441 0.00472006)
(-0.00372976 0.000493894 0.00603327)
(-0.00292889 0.00043185 0.00697551)
(-0.00277967 0.00072973 0.00783316)
(-0.00305497 0.000986408 0.00826569)
(-0.00360062 0.00130317 0.00834483)
(-0.00409175 0.00153216 0.00821287)
(-0.00444387 0.00180345 0.00799123)
(-0.00470369 0.00200033 0.00768007)
(-0.00490989 0.00209812 0.0073675)
(-0.00507282 0.002139 0.00707963)
(-0.0052121 0.00214376 0.00681944)
(-0.00533504 0.00212034 0.00659475)
(-0.00540268 0.00208258 0.00641123)
(-0.00541141 0.00203641 0.00625813)
(-0.00536907 0.00196807 0.00614858)
(-0.00534381 0.00187702 0.0060771)
(-0.0053538 0.00180884 0.00604168)
(-0.00535926 0.00178537 0.00602764)
(-0.00534517 0.00179313 0.0060212)
(-0.00532341 0.00181791 0.0060118)
(-0.00529901 0.00186542 0.00599002)
(-0.00524708 0.0019306 0.00595777)
(-0.0051775 0.00198996 0.00591775)
(-0.00510734 0.00208043 0.00587208)
(-0.00503847 0.00216318 0.00581569)
(-0.00498298 0.00238948 0.00576294)
(-0.00496143 0.00243815 0.0056818)
(-0.00498591 0.0028575 0.0055989)
(-0.00488589 0.00279071 0.00540385)
(-0.00483989 0.00337322 0.00520019)
(-0.0044332 0.00289914 0.00488995)
(-0.00413368 0.00364202 0.00463199)
(-0.00314134 0.002152 0.00456445)
(-0.00139141 0.00269153 0.00479504)
(0.00129997 -0.00139281 0.0051375)
(0.00300997 -0.00300129 0.0050805)
(0.00566962 -0.0108523 0.000451296)
(0.00802278 -0.0171458 -0.00537224)
(0.0165893 -0.0288955 -0.00629749)
(0.0271037 -0.0242375 0.00765793)
(0.0212729 -0.0227839 0.0479523)
(-0.00929866 0.0183036 0.0706193)
(-0.0519587 -0.00946338 0.0820787)
(-0.0513489 -0.00910754 0.14987)
(-0.0782554 -0.124406 0.135456)
(0.0263342 0.0118294 -0.0997338)
(0.0466507 0.0340087 0.0622177)
(0.0744597 0.518873 0.0509814)
(0.0514908 0.627585 -0.0120527)
(0.0490813 0.607819 0.00565703)
(0.0301949 0.646525 0.00601809)
(0.00501167 0.640894 0.00350914)
(-0.0100388 0.649547 0.00427253)
(-0.0248845 0.641334 0.00263351)
(-0.0327872 0.602604 0.00378392)
(-0.044513 0.456704 0.00411707)
(-0.0517195 0.447508 0.00529557)
(-0.0556914 0.473692 0.00539361)
(-0.0602349 0.600975 0.00628598)
(-0.0662712 0.581567 0.00672022)
(-0.0670114 0.583565 0.00677786)
(-0.0661795 0.571405 0.00751429)
(-0.0637337 0.579011 0.00568291)
(-0.0557354 0.600553 0.004555)
(-0.0472676 0.623983 0.00764445)
(-0.0321923 0.605132 0.0146279)
(-0.0119325 0.60801 0.0230492)
(0.0129607 0.587688 0.031376)
(0.0312359 0.554641 0.0328811)
(0.0449734 0.541477 0.0321893)
(0.0534679 0.48859 0.032062)
(0.0609133 0.466924 0.0299914)
(0.0611672 0.295252 0.0242845)
(0.0624864 0.00897968 0.0200715)
(0.0676285 -0.0120322 0.0199505)
(0.0770085 -0.00271599 0.0184615)
(0.0904495 0.0096274 0.0124639)
(0.0966119 0.0238291 0.0123671)
(0.074476 0.0440372 -0.00751086)
(-0.00322744 0.261634 -0.0268628)
(-0.041633 0.521203 -0.0128735)
(-0.0619411 0.502669 -0.00697743)
(-0.0657876 0.461612 -0.0249928)
(0.015039 0.0238206 -0.00264113)
(0.0233434 0.0308764 0.00666871)
(0.0156658 0.0293192 0.00288473)
(0.0229837 0.0316754 0.00484748)
(0.0190684 0.0214443 0.00279855)
(0.0209567 0.0185701 0.00569377)
(0.0125025 0.00509629 0.000255919)
(0.00326309 0.0043898 -0.00578824)
(-0.00399339 -0.00149189 -0.00404412)
(-0.00771937 0.000464512 -0.00257026)
(-0.00929279 -0.00204166 -0.00140969)
(-0.00882527 -0.00155049 -0.000359357)
(-0.00801737 -0.00232574 0.000854824)
(-0.00697346 -0.00174916 0.00214544)
(-0.00669922 -0.00135877 0.00315207)
(-0.00692467 -0.000555353 0.00411454)
(-0.00751483 0.000160719 0.00487447)
(-0.00815431 0.000839429 0.00533846)
(-0.00872493 0.00133946 0.00551091)
(-0.0091289 0.00178075 0.00549214)
(-0.00915901 0.00209301 0.00534197)
(-0.00913982 0.0022969 0.00516304)
(-0.00910009 0.00242024 0.0049899)
(-0.00904786 0.00248392 0.00482895)
(-0.00898416 0.00249611 0.00468228)
(-0.00888409 0.00247171 0.00455156)
(-0.00875423 0.00242991 0.00443497)
(-0.00859202 0.00237528 0.00433938)
(-0.00849631 0.00230872 0.0042696)
(-0.00850451 0.00224868 0.00422834)
(-0.00851852 0.00222368 0.00420108)
(-0.00850075 0.00223335 0.004183)
(-0.00846274 0.00225713 0.00416291)
(-0.00841031 0.00231168 0.00412975)
(-0.00831282 0.00238886 0.00407773)
(-0.00820348 0.00245781 0.0040119)
(-0.00813408 0.00256775 0.00392451)
(-0.00804969 0.00267715 0.00382699)
(-0.00803173 0.00294599 0.00371908)
(-0.00789568 0.00307749 0.00362012)
(-0.00802995 0.00355049 0.00352149)
(-0.00778725 0.00341755 0.00334977)
(-0.00783742 0.00386258 0.003194)
(-0.00719669 0.00315176 0.0029433)
(-0.00682119 0.00371786 0.00287281)
(-0.00556371 0.00209706 0.00298787)
(-0.00360502 0.0031596 0.00376727)
(6.01492e-05 -0.000213065 0.00481775)
(0.00432254 0.00131692 0.00674241)
(0.0133411 -0.00518861 0.00634542)
(0.0230726 -0.0082923 0.00871173)
(0.024172 -0.0208361 0.00915498)
(-0.000293992 -0.0174834 0.0197572)
(-0.0339679 -0.023682 0.0448347)
(-0.0468288 0.00954041 0.0701952)
(-0.0762618 -0.0258784 0.0832179)
(-0.0525074 -0.0313252 0.132558)
(-0.0447945 -0.136221 0.128961)
(-0.00594172 0.0232848 -0.11662)
(0.000681488 0.0340966 0.0501176)
(-0.00113173 0.515327 0.0345789)
(0.0134626 0.627079 -0.0200334)
(0.0165828 0.608483 0.00312263)
(0.0212772 0.595255 0.0038735)
(0.00826539 0.64797 0.00610164)
(-0.000199482 0.652775 0.00553284)
(-0.0169116 0.655883 0.00437518)
(-0.0246508 0.678988 0.00449955)
(-0.0405913 0.617701 0.00398685)