/*--------------------------------*- C++ -*----------------------------------*\
| =========                 |                                                 |
| \\      /  F ield         | OpenFOAM: The Open Source CFD Toolbox           |
|  \\    /   O peration     | Version:  2.3.0                                 |
|   \\  /    A nd           | Web:      www.OpenFOAM.org                      |
|    \\/     M anipulation  |                                                 |
\*---------------------------------------------------------------------------*/
FoamFile
{
    version     2.0;
    format      ascii;
    class       volVectorField;
    location    "41";
    object      U.water;
}
// * * * * * * * * * * * * * * * * * * * * * * * * * * * * * * * * * * * * * //

dimensions      [0 1 -1 0 0 0 0];

internalField   nonuniform List<vector> 
6144
(
(0.0114188 0.0198848 0.000673935)
(0.0113388 -0.00816284 -0.000880214)
(0.00471874 -0.0084461 -0.00235068)
(0.00298477 -0.00860815 -0.00252804)
(0.00191835 -0.00632402 -0.00238093)
(0.00269822 -0.00281636 -0.00246388)
(0.00304283 -0.00121044 -0.00210498)
(0.00280316 -0.000101342 -0.00141239)
(0.00195091 0.00028056 -0.000898737)
(0.00135613 0.00234507 -0.00012382)
(0.000984965 0.00414979 0.000586104)
(0.00102937 0.00512851 0.00134881)
(0.00127224 0.00502481 0.00187437)
(0.00145419 0.00408959 0.00226517)
(0.00159353 0.00286564 0.00212225)
(0.00172864 0.00170759 0.001845)
(0.00182898 0.000689075 0.0014435)
(0.00192983 -7.62757e-05 0.00109534)
(0.00201163 -0.000657844 0.000754354)
(0.00207229 -0.000975376 0.000460139)
(0.00212231 -0.00112342 0.000231299)
(0.00214858 -0.00113985 0.000110517)
(0.00215248 -0.00108717 6.46317e-05)
(0.00213512 -0.000996812 7.55704e-05)
(0.00210016 -0.000893926 0.000135485)
(0.00205326 -0.000800228 0.000237189)
(0.001996 -0.000733907 0.000391813)
(0.00193875 -0.000702019 0.00055191)
(0.00188806 -0.000712063 0.000685023)
(0.00183789 -0.000751714 0.000793508)
(0.00179037 -0.000793041 0.000879267)
(0.00174753 -0.000826571 0.000953564)
(0.0017095 -0.000850104 0.00102323)
(0.00167469 -0.000876701 0.00108877)
(0.00163966 -0.000880892 0.00115571)
(0.00160619 -0.000918275 0.00122434)
(0.00157168 -0.000890548 0.00132191)
(0.00153454 -0.00102153 0.00142012)
(0.00150152 -0.000983848 0.00155772)
(0.00145655 -0.00134535 0.00167709)
(0.00142279 -0.0012779 0.00179949)
(0.00137367 -0.00197172 0.00188294)
(0.00134174 -0.00174116 0.00190472)
(0.00129826 -0.00275356 0.00184387)
(0.0011903 -0.00192393 0.00156786)
(0.00115845 -0.00254788 0.0012653)
(0.000935586 -0.000351968 0.00059515)
(0.00110144 0.000408855 0.00050495)
(0.00142829 0.00297258 5.55388e-05)
(0.0031952 0.000389503 -0.00057309)
(0.00413135 0.00402145 -0.000164255)
(0.0046915 -0.00883823 -0.00259205)
(0.00949518 0.0093556 -0.00516188)
(0.00724644 -0.0111193 -0.00587504)
(0.00779537 0.026286 -0.00728943)
(-0.0016721 -0.0330477 -0.00774268)
(0.0201859 0.0763477 0.0142429)
(0.000355617 -0.0796565 -0.000914509)
(-0.0571699 0.0918684 -0.125571)
(-0.00523547 -0.116209 -0.104775)
(0.0773441 -0.221596 0.00894505)
(0.0611128 -0.0586532 0.000340477)
(0.0346717 -0.147728 -0.0146913)
(0.0302464 -0.159923 -0.0104266)
(0.0252251 -0.158016 -0.00757177)
(0.016048 -0.160429 -0.00553747)
(0.00812057 -0.156131 -0.00503958)
(0.0023625 -0.14318 -0.00404164)
(-0.0032599 -0.120098 -0.00269156)
(-0.00818375 -0.0945255 -0.00318323)
(-0.0152681 -0.0639419 -0.00258607)
(-0.0141322 -0.0318504 -0.00237117)
(-0.00640088 -0.0115737 -0.00328835)
(-0.00144329 0.00241702 -0.00258955)
(0.00119846 0.0123974 -0.0012955)
(0.00315713 0.0163917 -0.000461807)
(0.00442196 0.0171198 0.000329649)
(0.00511349 0.0156545 0.00129846)
(0.00472961 0.0127267 0.00255798)
(0.00348658 0.0095071 0.00395904)
(0.00147543 0.00624973 0.00456398)
(-0.000213065 0.00419896 0.0044109)
(-0.000616498 0.00348849 0.00350712)
(0.000321213 0.0038038 0.00197856)
(0.00253304 0.00453806 -0.000395539)
(0.0057989 0.00356742 -0.00302101)
(0.0100557 -0.000131662 -0.0062336)
(0.0150275 -0.00653956 -0.00858267)
(0.020129 -0.0170649 -0.0103563)
(0.0235908 -0.0306288 -0.0115021)
(0.0227463 -0.0452737 -0.0108254)
(0.0113657 -0.0559513 -0.00776274)
(0.00183166 -0.0518999 -0.00497219)
(-0.00279313 -0.0358404 -0.00299257)
(-0.00493439 -0.0193357 -3.55615e-05)
(-0.00785299 -0.00917717 0.00206791)
(0.0222337 0.0193051 0.00366535)
(0.0232651 0.00147706 0.0031754)
(0.0106662 -0.00174034 -0.00100334)
(0.00921333 -0.00400688 -0.00103702)
(0.00517835 -0.00563042 -0.000803733)
(0.00521258 -0.0038671 -0.000462532)
(0.00432696 -0.00241089 0.000974933)
(0.00369302 -0.000373297 0.00211863)
(0.00200629 0.000662217 0.00207964)
(0.00106428 0.00374409 0.00217618)
(0.00115376 0.00571223 0.00261881)
(0.00175556 0.00663112 0.00353221)
(0.00249894 0.00631657 0.00414517)
(0.00300767 0.00543964 0.0044876)
(0.00323549 0.00410932 0.00451004)
(0.00339171 0.00284193 0.00442138)
(0.00344893 0.00166342 0.00426244)
(0.00354036 0.000756369 0.00413519)
(0.00359415 1.47693e-05 0.00402646)
(0.00362393 -0.000462293 0.00393851)
(0.0036722 -0.000743811 0.00380294)
(0.00368027 -0.000871853 0.00373834)
(0.00364848 -0.000904996 0.003737)
(0.00358163 -0.000879271 0.00378644)
(0.00348585 -0.000824429 0.00387651)
(0.00337208 -0.000763385 0.00399649)
(0.00324894 -0.000714981 0.00413459)
(0.0031353 -0.00068928 0.0042537)
(0.00304614 -0.000692423 0.00432442)
(0.00295538 -0.000713398 0.0043889)
(0.00286286 -0.000726307 0.00445015)
(0.00277803 -0.00073308 0.00450984)
(0.00270405 -0.000735091 0.00456837)
(0.00263368 -0.000749159 0.00462477)
(0.00256708 -0.000745521 0.00468248)
(0.00249736 -0.000791862 0.00473587)
(0.00244813 -0.000768809 0.00480238)
(0.00238272 -0.000926208 0.00485237)
(0.0023805 -0.000872513 0.00493146)
(0.00231013 -0.00129674 0.00498746)
(0.00235875 -0.00117127 0.00505206)
(0.00227637 -0.00199106 0.00508561)
(0.00232989 -0.00158594 0.00508553)
(0.00218802 -0.0027509 0.00507519)
(0.00191007 -0.00153876 0.00495218)
(0.00151914 -0.00241803 0.00486049)
(0.000673469 0.000104138 0.00424703)
(0.00129832 -0.000112856 0.00447041)
(0.00231101 0.001804 0.00471951)
(0.00569472 -0.00258288 0.00443727)
(0.00915142 0.00161177 0.00419897)
(0.00564794 -0.0121954 -8.47702e-05)
(0.00696968 0.00887335 0.000437174)
(0.00774019 -0.00665676 -0.00145963)
(0.0286197 0.029336 0.000300689)
(0.0247002 -0.0468403 -0.00439329)
(-0.0117311 0.0180097 -0.00587102)
(-0.00579464 -0.0164715 -0.0400262)
(0.0492787 0.1559 -0.0519345)
(0.132204 -0.114379 -0.060852)
(0.134793 -0.227101 0.0492898)
(0.0893502 -0.0193873 0.03069)
(0.0437349 -0.12332 -0.00987413)
(0.0379104 -0.105331 0.00584479)
(0.0248852 -0.111327 0.00952738)
(0.00466928 -0.121451 0.0082366)
(-0.0107239 -0.118285 0.00770584)
(-0.0200874 -0.107451 0.00626943)
(-0.0254979 -0.0898459 0.00510473)
(-0.0289081 -0.0682137 0.00166444)
(-0.0282921 -0.0447668 0.00091365)
(-0.0226774 -0.020025 8.64423e-05)
(-0.0169901 0.00140715 -0.00174626)
(-0.0103798 0.0192176 0.000877331)
(-0.00455768 0.0289113 0.00389132)
(-0.00108161 0.0327134 0.00623264)
(0.000711167 0.0327652 0.00901304)
(0.00027304 0.0302381 0.0113658)
(-0.00164498 0.0261802 0.0135847)
(-0.00456677 0.0205589 0.0153125)
(-0.00758776 0.0147743 0.0155082)
(-0.00987807 0.0103852 0.0137794)
(-0.0108509 0.00856773 0.010392)
(-0.0100014 0.00873989 0.00560521)
(-0.00494085 0.0096169 0.00100067)
(0.00562008 0.0085625 -0.00129212)
(0.0167506 0.00521294 -0.00307538)
(0.0275446 -0.000901078 -0.00514495)
(0.0386788 -0.00941513 -0.00739907)
(0.0440432 -0.0208575 -0.00958532)
(0.0393501 -0.0308904 -0.0110214)
(0.0184886 -0.0417197 -0.00817775)
(-0.00719206 -0.0444634 -0.00215447)
(-0.0149933 -0.030346 -0.000990169)
(-0.0168646 -0.0151065 0.0011511)
(-0.019173 -0.00552066 0.0041879)
(0.0261504 0.0210258 0.00486372)
(0.0263222 0.0092188 0.0044804)
(0.0165432 0.00562266 0.00165895)
(0.0136951 0.00294091 0.00261998)
(0.00690253 -0.00143882 0.00330049)
(0.00500103 -0.000636156 0.00317066)
(0.00207749 -0.00117211 0.00378255)
(0.000971314 0.00048495 0.00398278)
(-0.000840679 0.000655611 0.00364753)
(-0.00144989 0.00330706 0.00353267)
(-0.000794375 0.0048478 0.00372591)
(0.000522551 0.00581913 0.0043035)
(0.00146877 0.00570459 0.00480531)
(0.00215318 0.00538672 0.00514162)
(0.00251222 0.00452959 0.00517543)
(0.00271032 0.0036428 0.00510986)
(0.00276233 0.00266683 0.00498672)
(0.00284542 0.00186956 0.00490469)
(0.00287418 0.00116435 0.00484932)
(0.00284545 0.00060321 0.00483788)
(0.00276378 0.000165026 0.00485283)
(0.0026698 -0.000125918 0.00489041)
(0.00256448 -0.000318625 0.00493863)
(0.00244482 -0.000431338 0.00499707)
(0.00231409 -0.000493292 0.00506161)
(0.00217991 -0.000522052 0.00512649)
(0.00204934 -0.000536608 0.00519034)
(0.0019188 -0.000549177 0.00525242)
(0.00177918 -0.000551361 0.00531324)
(0.00163176 -0.000533808 0.00537278)
(0.00148675 -0.000504941 0.00543367)
(0.00135963 -0.000479941 0.00549468)
(0.00125335 -0.00046145 0.00555519)
(0.00115531 -0.000462464 0.00561342)
(0.00106998 -0.000459792 0.00567219)
(0.000978972 -0.000517225 0.00572112)
(0.000927027 -0.000513388 0.00578681)
(0.000842298 -0.000672497 0.00582311)
(0.000861127 -0.000629836 0.00590796)
(0.000786038 -0.00100207 0.00593973)
(0.00086248 -0.000817717 0.0060187)
(0.000738538 -0.00149339 0.00603563)
(0.000766097 -0.000884033 0.00607167)
(0.000478819 -0.00184142 0.00607614)
(4.99595e-05 -0.000443638 0.005998)
(-0.00033267 -0.00142709 0.00598209)
(-0.00107626 0.000687206 0.00579334)
(0.000181186 -0.000439227 0.00615362)
(0.0014321 0.00182035 0.00690006)
(0.0041651 -0.00163476 0.00768158)
(0.00840818 0.00596128 0.00758572)
(0.00315629 0.00278318 0.00270741)
(0.00560719 0.0239683 0.0070454)
(0.0106918 -0.0250519 0.00743898)
(0.0383009 -0.00744019 -0.000342899)
(0.041508 -0.0565108 -0.000478041)
(-0.0224553 0.0268229 0.00302866)
(-0.0507739 -0.0888674 -0.0227838)
(-0.0104204 0.177419 -0.0700165)
(0.141252 -0.12074 -0.0244389)
(0.162547 -0.217367 0.0620706)
(0.111714 0.0240169 0.0257302)
(0.0814656 -0.105346 -0.0095869)
(0.0612166 -0.0652741 0.0106184)
(0.0332744 -0.0813573 0.0121129)
(0.00780175 -0.0860967 0.00787791)
(-0.0118462 -0.0834973 0.00758496)
(-0.0290371 -0.074742 0.00767255)
(-0.0418159 -0.0595747 0.00572992)
(-0.0456014 -0.0426045 0.0030939)
(-0.0471355 -0.0217873 0.00236819)
(-0.043439 0.00435417 -0.00232598)
(-0.031412 0.0235038 -0.000870746)
(-0.0205539 0.0358632 0.0044556)
(-0.0138514 0.0426994 0.00891608)
(-0.0100993 0.0446149 0.0134721)
(-0.00838254 0.0430164 0.0171829)
(-0.0086695 0.039665 0.0196018)
(-0.0103615 0.0349652 0.020883)
(-0.0132854 0.028946 0.0198938)
(-0.0168125 0.023504 0.016142)
(-0.0197295 0.0197564 0.0112098)
(-0.0193846 0.0180477 0.00620668)
(-0.013953 0.0169851 0.00242823)
(-0.0022474 0.0149394 0.00126798)
(0.0126182 0.0121307 0.000459879)
(0.0274038 0.00873345 -0.00129406)
(0.0421623 0.00322628 -0.00302109)
(0.0571353 -0.003522 -0.00575684)
(0.0654451 -0.012107 -0.00874461)
(0.0611181 -0.0216378 -0.0109326)
(0.0351615 -0.0287764 -0.0125545)
(-0.0099272 -0.0345117 -0.00224842)
(-0.0259952 -0.0261047 0.00229795)
(-0.0272232 -0.0123454 0.00285337)
(-0.0327599 -0.00402898 0.00522453)
(0.0282274 0.0247031 0.00460683)
(0.0285629 0.0161736 0.0044524)
(0.0192329 0.0126044 0.00132133)
(0.0163728 0.00966815 0.00246666)
(0.00821743 0.00383616 0.00332982)
(0.00513907 0.00288675 0.00356607)
(0.00131775 0.000452556 0.00449215)
(-0.000261302 0.00131003 0.00452665)
(-0.00265122 0.000238423 0.00429232)
(-0.00350726 0.00208026 0.00387438)
(-0.00249486 0.00321956 0.00402748)
(-0.000933011 0.00433671 0.00458957)
(0.00014737 0.0046724 0.00500733)
(0.000931799 0.00481297 0.0053364)
(0.00134597 0.00436717 0.00537466)
(0.00157519 0.00380798 0.00534898)
(0.00159599 0.0030078 0.0052739)
(0.00160551 0.00231986 0.00523892)
(0.00157662 0.00168348 0.00521058)
(0.00151688 0.00115068 0.00520195)
(0.00139879 0.000683737 0.00519913)
(0.0012523 0.000313365 0.00521177)
(0.00109288 2.08568e-05 0.00523846)
(0.000926169 -0.000188661 0.00527817)
(0.000759601 -0.000328347 0.00532549)
(0.000601324 -0.000407593 0.00537515)
(0.000458252 -0.00044142 0.00542272)
(0.000324827 -0.000444532 0.00546476)
(0.000190095 -0.000429849 0.00550178)
(5.02856e-05 -0.000403736 0.00554255)
(-7.67499e-05 -0.000374745 0.00559088)
(-0.000181264 -0.000351421 0.00564222)
(-0.000265514 -0.000328981 0.00569308)
(-0.000340527 -0.000316725 0.00574061)
(-0.0004027 -0.000302833 0.00578389)
(-0.000466729 -0.000337062 0.00581684)
(-0.000481784 -0.00032387 0.00585687)
(-0.000530788 -0.000473952 0.00587195)
(-0.000445022 -0.000407483 0.00594667)
(-0.00051674 -0.000747675 0.00593256)
(-0.000365666 -0.00047489 0.00602785)
(-0.000542423 -0.00105754 0.0059794)
(-0.000435523 -0.000357884 0.00604709)
(-0.000787072 -0.00131924 0.00602685)
(-0.00111036 -8.3387e-05 0.00595567)
(-0.0016051 -0.00131264 0.00590005)
(-0.00241468 0.000757015 0.00550567)
(-0.0017258 -0.000429929 0.00556197)
(-0.00104611 0.0030211 0.00601885)
(0.000256858 0.00136809 0.0067071)
(-0.000422304 0.0105675 0.00605107)
(-0.00371941 0.00810257 0.0038694)
(0.0175214 0.0185187 0.0157331)
(0.0322619 -0.0268966 0.0159457)
(0.0434479 -0.0209477 0.0087301)
(0.017776 -0.0698354 0.009832)
(-0.0234203 0.0357818 0.00942969)
(-0.101093 -0.135197 -0.0257568)
(0.0270845 0.231299 -0.121504)
(0.167465 -0.146948 -0.00780086)
(0.188029 -0.223951 0.0689733)
(0.121426 0.0452438 0.0178171)
(0.0957529 -0.0981274 -0.0107506)
(0.0562967 -0.0199558 -0.00309094)
(0.0167576 -0.0563068 -0.00247006)
(0.0055292 -0.0433787 -0.0030276)
(-0.020307 -0.0371515 0.00113682)
(-0.0369821 -0.0309834 0.00400834)
(-0.0505369 -0.0184369 0.00400988)
(-0.0598998 -0.00207126 0.00207625)
(-0.0621838 0.0194836 -0.00194739)
(-0.0505315 0.0345965 -0.00242436)
(-0.0377481 0.0438924 0.00327711)
(-0.0291691 0.0500652 0.00864512)
(-0.0240408 0.0536622 0.013707)
(-0.0215725 0.0539048 0.0187867)
(-0.0208843 0.0520364 0.0216516)
(-0.0213772 0.0489609 0.0221469)
(-0.0222952 0.0449486 0.0210207)
(-0.023516 0.0404591 0.0175533)
(-0.0239766 0.0367611 0.013261)
(-0.0233299 0.0325853 0.00904016)
(-0.0196516 0.0281616 0.00585539)
(-0.0116124 0.0234115 0.00471753)
(-0.000177368 0.0183697 0.00426413)
(0.0140451 0.014168 0.0026675)
(0.0303505 0.011316 0.000640179)
(0.047352 0.00679353 -0.000986247)
(0.0653924 0.000773575 -0.00363342)
(0.0782364 -0.00550381 -0.00683939)
(0.0755128 -0.0165926 -0.0107104)
(0.0494271 -0.0198637 -0.0149808)
(-0.0127059 -0.0247488 -0.00466653)
(-0.038045 -0.0199127 0.00227615)
(-0.0414231 -0.0112617 0.00318436)
(-0.039752 -0.00167789 0.00415473)
(0.030148 0.0272608 0.00490052)
(0.0311026 0.0221302 0.00452512)
(0.0231868 0.0185038 0.00173918)
(0.0218649 0.0156801 0.00129531)
(0.0120714 0.00866393 0.000811883)
(0.00787786 0.00583725 0.00132825)
(0.00116752 0.000554389 0.00297199)
(-0.000830551 0.00162937 0.00335541)
(-0.00359698 -0.000438956 0.00384875)
(-0.00501002 0.00105546 0.00385833)
(-0.00439157 0.00197253 0.00405215)
(-0.00298397 0.00333108 0.00463718)
(-0.00198342 0.00390263 0.00492413)
(-0.00106805 0.00425471 0.00524886)
(-0.000568278 0.00401975 0.00525413)
(-0.000335633 0.00360067 0.00525514)
(-0.000411028 0.00293724 0.00521055)
(-0.0005772 0.00236762 0.00521632)
(-0.000757551 0.00183452 0.00520185)
(-0.000923094 0.0013693 0.00517692)
(-0.00110031 0.000919174 0.00513627)
(-0.00127573 0.000517249 0.00510903)
(-0.00144427 0.000180026 0.00509618)
(-0.00161435 -7.93645e-05 0.00509398)
(-0.00178713 -0.000264652 0.00509771)
(-0.00194438 -0.000379836 0.00510603)
(-0.00207498 -0.000440537 0.00511788)
(-0.00218375 -0.000461631 0.00513075)
(-0.00229265 -0.000459365 0.00514282)
(-0.00240732 -0.000437602 0.00515355)
(-0.00251281 -0.000401492 0.00516875)
(-0.00259924 -0.000364943 0.00518363)
(-0.00266542 -0.000328622 0.00519788)
(-0.00271756 -0.000301638 0.00521121)
(-0.00274678 -0.000273616 0.00522358)
(-0.00276694 -0.000288175 0.00523156)
(-0.00275121 -0.000263914 0.00524903)
(-0.00277069 -0.000375714 0.00524615)
(-0.00266028 -0.000272751 0.00529275)
(-0.00274172 -0.000519611 0.0052608)
(-0.0025468 -0.000183622 0.00533211)
(-0.00275501 -0.000601656 0.0052537)
(-0.00258021 0.000125491 0.00529115)
(-0.00297604 -0.000565091 0.00521429)
(-0.00313792 0.000612333 0.00500626)
(-0.00376586 -0.000445351 0.00462239)
(-0.00407929 0.0014815 0.00373227)
(-0.00367515 -0.000541662 0.00341844)
(-0.00305151 0.00246914 0.0036195)
(-0.00344361 -0.00115996 0.0039568)
(-0.0036639 0.00742469 0.00452248)
(-0.00353896 -0.00678893 0.00471774)
(0.01924 -0.00796744 0.0157246)
(0.0507263 -0.0450766 0.0221004)
(0.0558905 -0.0452989 0.0156653)
(0.0300903 -0.0971332 0.0175712)
(0.000874074 -0.0491562 0.0301)
(-0.108967 -0.173879 0.0338429)
(0.0152397 0.144373 -0.134767)
(0.150314 -0.152576 0.0246523)
(0.18984 -0.198503 0.0820045)
(0.113818 0.0926249 -0.0051362)
(0.105516 -0.0781692 -0.00189915)
(0.039807 0.042607 -0.0079749)
(0.0218683 -0.035698 0.00539051)
(-0.00226258 0.00940774 -0.00114859)
(-0.0310357 0.00527719 0.00194243)
(-0.0514894 0.0248837 0.00163423)
(-0.0675461 0.0312607 -0.00068231)
(-0.0720279 0.0391878 -0.00282148)
(-0.0639321 0.0460965 -0.00400232)
(-0.0511627 0.0481204 0.000755014)
(-0.0429761 0.0525264 0.00627475)
(-0.0379281 0.056763 0.0112963)
(-0.0363228 0.0606461 0.0168733)
(-0.0358913 0.061885 0.0213579)
(-0.0360791 0.062302 0.0229348)
(-0.0345898 0.0626181 0.0228277)
(-0.032266 0.0615908 0.0195744)
(-0.0293351 0.0589145 0.0152773)
(-0.0256101 0.0542997 0.0111483)
(-0.0209405 0.0469708 0.00794556)
(-0.0144406 0.0386629 0.00593634)
(-0.00643603 0.0298607 0.00500334)
(0.00383779 0.0223562 0.003877)
(0.0177028 0.0165126 0.00259117)
(0.0344248 0.0132118 0.00119577)
(0.0527626 0.0100561 -3.69877e-05)
(0.0730427 0.00574699 -0.00267768)
(0.0884877 0.00237271 -0.00661025)
(0.0879642 -0.00758755 -0.0132752)
(0.0600173 -0.00835147 -0.0165346)
(-0.00900693 -0.0142928 -0.00619984)
(-0.0410664 -0.0116451 0.00336665)
(-0.0483915 -0.00939715 0.00349276)
(-0.049512 -0.0022747 0.00413789)
(0.0296315 0.0285902 0.00930514)
(0.0320702 0.0259752 0.00643501)
(0.0252584 0.0221053 0.0034807)
(0.0257662 0.0200292 0.0022293)
(0.0179584 0.0131469 -0.000459932)
(0.0142028 0.00999114 -0.000295607)
(0.00373446 0.00104306 -0.000398825)
(-0.000611367 0.00185455 0.000459233)
(-0.00417983 -0.00154857 0.00189065)
(-0.00689577 -0.00036127 0.00279882)
(-0.00627927 0.000371307 0.00327767)
(-0.00458945 0.00200335 0.00416225)
(-0.00303468 0.00284163 0.00450499)
(-0.00179088 0.00347012 0.00508679)
(-0.00107072 0.00332364 0.00529057)
(-0.000757636 0.00297194 0.00547082)
(-0.000917954 0.00235899 0.00545932)
(-0.00123407 0.00191227 0.00544831)
(-0.00152096 0.00155454 0.00539434)
(-0.00175931 0.00128111 0.00531067)
(-0.00198782 0.000995634 0.0051862)
(-0.00220944 0.000709164 0.0050594)
(-0.00243432 0.000444186 0.00494052)
(-0.00263742 0.000217794 0.00483498)
(-0.00281613 5.07477e-05 0.00473953)
(-0.00295965 -5.35144e-05 0.00464732)
(-0.00306757 -0.000114787 0.00456074)
(-0.0031533 -0.00014934 0.00448373)
(-0.00324008 -0.00017298 0.00442508)
(-0.0033405 -0.000180869 0.0043829)
(-0.0034221 -0.000166418 0.00435754)
(-0.00347906 -0.000139223 0.00434075)
(-0.00351349 -0.000101677 0.00432906)
(-0.00353206 -6.36059e-05 0.00432012)
(-0.00352788 -1.93554e-05 0.00431212)
(-0.00351284 -8.46759e-06 0.00430294)
(-0.00346056 3.8754e-05 0.00430516)
(-0.00343754 -1.61429e-05 0.00429769)
(-0.00330488 0.000131785 0.00433054)
(-0.00335748 -8.70141e-06 0.00429962)
(-0.00320602 0.000398793 0.00432649)
(-0.00343723 0.000200731 0.00418012)
(-0.00334876 0.000987727 0.00407222)
(-0.00359928 0.000589309 0.00381033)
(-0.00351802 0.00175131 0.00338412)
(-0.00357983 0.000779366 0.00296144)
(-0.00312602 0.00214487 0.00205981)
(-0.00230448 -0.000659566 0.00176949)
(-0.00121526 -9.50144e-05 0.00204641)
(-0.00297895 -0.00559591 0.00216894)
(0.000253862 -0.00464371 0.00298407)
(0.00610234 -0.0207964 0.0033597)
(0.0285927 -0.0211058 0.013724)
(0.0648942 -0.0504895 0.0294316)
(0.0634313 -0.0331885 0.0415444)
(0.0180217 -0.0690987 0.0563764)
(-0.0391423 -0.020181 0.0806767)
(-0.151069 -0.144579 0.0848768)
(0.0219219 0.123655 -0.147946)
(0.122892 -0.185633 0.035685)
(0.175301 -0.174646 0.0885336)
(0.0980389 0.0981089 -0.0209875)
(0.090583 0.0117316 -0.00200038)
(0.0343035 0.064783 -0.00751526)
(0.0184574 0.0389238 -0.00508516)
(-0.0200065 0.0558253 -0.00586533)
(-0.0362003 0.0534967 -0.00530886)
(-0.0514063 0.0601124 -0.00613471)
(-0.0588192 0.0587503 -0.00593859)
(-0.0600989 0.0578492 -0.0045564)
(-0.0531701 0.0592201 -0.000421136)
(-0.0498545 0.061248 0.00377225)
(-0.0479188 0.068868 0.00940377)
(-0.0488234 0.0763908 0.0154424)
(-0.0506587 0.0817556 0.0206413)
(-0.0498844 0.0835953 0.0235072)
(-0.0484193 0.0841643 0.0243463)
(-0.044353 0.0840043 0.0197146)
(-0.0380895 0.0819573 0.013878)
(-0.0302258 0.0780369 0.00897993)
(-0.0206509 0.0711421 0.0065344)
(-0.0121904 0.0595737 0.00543923)
(-0.0038908 0.046276 0.00513183)
(0.00357815 0.0329896 0.00473348)
(0.0123913 0.0225798 0.00443002)
(0.0238331 0.0139692 0.00440696)
(0.0388534 0.00886444 0.00344673)
(0.0557511 0.0076993 0.00207162)
(0.0762148 0.00672223 -0.000490282)
(0.0929311 0.00802601 -0.00679161)
(0.0956186 0.00499459 -0.0146669)
(0.0665544 0.0092715 -0.0222458)
(-0.0114795 -0.000288643 -0.0117844)
(-0.0462201 -0.000455796 3.8761e-05)
(-0.0549253 -0.00378116 0.00205575)
(-0.0540045 -0.000808959 0.000790598)
(0.0269919 0.0291439 0.010709)
(0.0303335 0.0292458 0.00897943)
(0.0242697 0.0243825 0.00508384)
(0.0258276 0.0228154 0.00535833)
(0.0207166 0.0156749 0.00119746)
(0.0190645 0.0132931 0.00137029)
(0.0080531 0.00279734 -0.00207802)
(0.00110431 0.00276047 -0.00164008)
(-0.00322446 -0.00196081 -3.90012e-05)
(-0.00718861 -0.00129683 0.00163807)
(-0.00766934 -0.00106243 0.00238382)
(-0.00660676 0.00105719 0.00369336)
(-0.00562425 0.00199609 0.00418907)
(-0.00413311 0.00250844 0.00519708)
(-0.0032351 0.0023842 0.00582265)
(-0.0029159 0.00217417 0.00628847)
(-0.00323138 0.0017108 0.0063707)
(-0.00387557 0.00140747 0.00627491)
(-0.00441975 0.00120659 0.00609466)
(-0.0047909 0.0011262 0.00589223)
(-0.00502829 0.00105057 0.00564475)
(-0.00521886 0.000971959 0.00540462)
(-0.00537035 0.000884154 0.00518157)
(-0.00551137 0.000797817 0.00499502)
(-0.00566112 0.000743862 0.00485638)
(-0.00575507 0.000711154 0.00471478)
(-0.00579384 0.000683099 0.00458877)
(-0.00578364 0.000648515 0.00450213)
(-0.00578693 0.000600149 0.00444984)
(-0.00582379 0.000564178 0.00442559)
(-0.00585931 0.000554547 0.0044212)
(-0.00587674 0.000561305 0.00442501)
(-0.005874 0.00058501 0.00443302)
(-0.00585465 0.000622589 0.00444341)
(-0.00580311 0.000675999 0.00446039)
(-0.00573515 0.000717669 0.0044765)
(-0.0056636 0.000791803 0.00448876)
(-0.00560483 0.00082559 0.00449889)
(-0.00551914 0.00102304 0.00451891)
(-0.00552546 0.00103144 0.00451363)
(-0.00551116 0.00148985 0.00448924)
(-0.00556693 0.00144436 0.00434284)
(-0.00551925 0.00213658 0.0041316)
(-0.00536874 0.00177691 0.00380242)
(-0.00509629 0.00268998 0.00333519)
(-0.00453891 0.00163878 0.00291879)
(-0.00316438 0.00247327 0.00230512)
(-0.00152759 -0.0010233 0.00220527)
(0.000368958 -0.00211582 0.00292296)
(0.000711623 -0.00934143 0.00172523)
(0.00484969 -0.0136894 -0.000384157)
(0.0138554 -0.0244894 0.000262158)
(0.0326444 -0.0209763 0.016717)
(0.0488174 -0.0384253 0.0476389)
(0.0261686 0.00896119 0.0475447)
(-0.0190768 -0.0365539 0.0534667)
(-0.0452131 -0.000997965 0.128746)
(-0.122253 -0.144294 0.135913)
(0.0356541 0.0614885 -0.108766)
(0.0828441 -0.216619 0.0513452)
(0.122713 -0.124669 0.0819534)
(0.0714069 0.128487 -0.0251475)
(0.0818394 0.0563003 -0.000380398)
(0.0469659 0.104246 -0.00454088)
(0.0170836 0.0877462 -0.00448279)
(-0.00659985 0.0987093 -0.00404908)
(-0.0248352 0.0892027 -0.00330841)
(-0.0388269 0.0941894 -0.00252727)
(-0.04717 0.0887344 0.000293724)
(-0.0526203 0.0913805 0.00403109)
(-0.0545282 0.0940093 0.00748919)
(-0.0576859 0.100713 0.0111639)
(-0.0594316 0.107116 0.0149357)
(-0.0607737 0.109559 0.0181938)
(-0.0623764 0.108509 0.0202951)
(-0.0611491 0.103997 0.0194068)
(-0.0576184 0.101857 0.0142284)
(-0.0526778 0.101803 0.0067054)
(-0.0428366 0.10235 0.00443737)
(-0.0293778 0.0985123 0.00608962)
(-0.012858 0.0900004 0.010641)
(0.00315061 0.0754067 0.0153463)
(0.0151579 0.0569445 0.0175179)
(0.0201814 0.0364436 0.0164104)
(0.0248504 0.0197444 0.015055)
(0.0341111 0.00592896 0.0138971)
(0.0470136 -0.00026423 0.0110051)
(0.0613089 -0.00194822 0.00772555)
(0.07783 -0.000263347 0.00531819)
(0.0935947 0.00849531 -0.00471519)
(0.0977154 0.0136297 -0.00941941)
(0.0740863 0.0189661 -0.0270793)
(0.00555015 0.0124802 -0.0223153)
(-0.0394457 0.00347204 -0.00519869)
(-0.0536137 -0.00213301 -0.00207673)
(-0.0555311 -0.000743549 -0.0058782)
(0.0257432 0.0269922 0.00951398)
(0.0277977 0.0324685 0.00874628)
(0.0215884 0.0276196 0.00498013)
(0.0247874 0.027413 0.00568287)
(0.0204031 0.0181674 0.00268196)
(0.0211001 0.0152006 0.00428536)
(0.0109424 0.00346561 -0.000829328)
(0.00208891 0.00311302 -0.00245029)
(-0.00283649 -0.00193091 -0.000233166)
(-0.00771355 -0.000920104 0.00119356)
(-0.00891524 -0.00198381 0.0020619)
(-0.00805999 -0.000513498 0.00357393)
(-0.0055793 -0.000401658 0.00471995)
(-0.00373038 -7.10794e-05 0.0060331)
(-0.00292928 -0.000133357 0.00697532)
(-0.00277988 0.000164529 0.00783294)
(-0.00305501 0.000421296 0.00826546)
(-0.00360052 0.000738158 0.00834457)
(-0.00409153 0.000967243 0.00821261)
(-0.00444355 0.00123862 0.00799097)
(-0.0047033 0.00143556 0.0076798)
(-0.00490944 0.00153341 0.00736725)
(-0.00507232 0.00157434 0.00707939)
(-0.00521156 0.00157915 0.00681921)
(-0.00533448 0.00155577 0.00659453)
(-0.00540209 0.00151805 0.00641102)
(-0.0054108 0.00147191 0.00625793)
(-0.00536844 0.00140361 0.00614839)
(-0.00534316 0.00131259 0.00607691)
(-0.00535313 0.00124445 0.00604149)
(-0.00535858 0.001221 0.00602745)
(-0.00534448 0.00122879 0.00602101)
(-0.00532271 0.0012536 0.00601161)
(-0.00529829 0.00130112 0.00598984)
(-0.00524634 0.00136632 0.00595759)
(-0.00517674 0.00142569 0.00591757)
(-0.00510657 0.00151618 0.00587192)
(-0.00503767 0.00159894 0.00581552)
(-0.00498217 0.00182526 0.00576278)
(-0.00496059 0.00187394 0.00568164)
(-0.00498504 0.00229329 0.00559874)
(-0.00488499 0.00222647 0.0054037)
(-0.00483896 0.00280893 0.00520005)
(-0.0044322 0.00233479 0.00488982)
(-0.00413259 0.00307756 0.00463187)
(-0.0031401 0.00158743 0.00456436)
(-0.0013899 0.00212481 0.00479503)
(0.00130202 -0.00197238 0.00513794)
(0.00301356 -0.00362781 0.00508204)
(0.00567784 -0.0115919 0.000456567)
(0.00803717 -0.0181049 -0.00535952)
(0.0166078 -0.0302563 -0.00627934)
(0.0271106 -0.0263464 0.00766673)
(0.0212448 -0.0258062 0.0478951)
(-0.00933045 0.014797 0.0705445)
(-0.0519458 -0.0126444 0.0820226)
(-0.0514126 -0.011993 0.149693)
(-0.0783928 -0.126452 0.135387)
(0.0273812 -0.0133267 -0.101058)
(0.0396991 -0.228796 0.047138)
(0.0707478 -0.071549 0.0685688)
(0.0492961 0.143976 -0.0154633)
(0.0497206 0.110645 0.00464468)
(0.0358701 0.154907 0.00558774)
(0.0110003 0.153999 0.00248276)
(-0.00282687 0.157646 0.00364855)
(-0.0213784 0.151253 0.00131415)
(-0.0333914 0.15245 0.00345182)
(-0.043995 0.145009 0.00372622)
(-0.0514255 0.145032 0.00562478)
(-0.0557247 0.139669 0.00593472)
(-0.0596377 0.13878 0.00737289)
(-0.0639388 0.134936 0.00754952)
(-0.0651714 0.130322 0.00790074)
(-0.0645882 0.125768 0.00883734)
(-0.0651533 0.120343 0.00611981)
(-0.06203 0.118816 0.00293277)
(-0.0536846 0.121156 0.0045514)
(-0.0378055 0.121163 0.0129679)
(-0.0180542 0.115737 0.0208083)
(0.00467903 0.104193 0.0288947)
(0.0248351 0.085365 0.0323279)
(0.0390254 0.0609997 0.0319783)
(0.0499411 0.0345414 0.0311244)
(0.0582543 0.0102311 0.0295508)
(0.0607138 -0.0152055 0.0242527)
(0.0626862 -0.0224252 0.0204817)
(0.0678919 -0.0230796 0.020794)
(0.0773287 -0.0142089 0.0193517)
(0.0909224 -0.00234808 0.0132163)
(0.0973697 0.0117562 0.0133794)
(0.075077 0.0267986 -0.00667166)
(0.00843997 0.0258721 -0.0312331)
(-0.0355207 0.0214121 -0.0123828)
(-0.0565739 0.00870793 -0.0195995)
(-0.067557 0.00264702 -0.0559108)
(0.0150345 0.0236951 -0.00264222)
(0.0233349 0.0306517 0.0066673)
(0.0156581 0.0290994 0.00288443)
(0.0229763 0.0314387 0.00484735)
(0.0190623 0.0211742 0.00279871)
(0.0209516 0.0182474 0.00569395)
(0.0124985 0.00470471 0.000256209)
(0.00325986 0.00393165 -0.00578808)
(-0.00399586 -0.00199824 -0.00404398)
(-0.00772149 -7.26736e-05 -0.00257011)
(-0.00929447 -0.00259535 -0.00140955)
(-0.00882669 -0.00211109 -0.000359233)
(-0.0080185 -0.00288903 0.00085493)
(-0.00697439 -0.00231357 0.00214554)
(-0.00669997 -0.00192354 0.00315215)
(-0.00692527 -0.00112017 0.00411462)
(-0.00751528 -0.000404046 0.00487456)
(-0.00815463 0.000274741 0.00533854)
(-0.00872513 0.000774847 0.00551099)
(-0.00912902 0.00121619 0.00549221)
(-0.00915903 0.00152849 0.00534204)
(-0.00913977 0.00173241 0.0051631)
(-0.00909997 0.00185579 0.00498997)
(-0.00904768 0.00191951 0.00482901)
(-0.00898392 0.00193173 0.00468235)
(-0.00888381 0.00190736 0.00455162)
(-0.0087539 0.00186559 0.00443503)
(-0.00859165 0.001811 0.00433944)
(-0.00849591 0.00174446 0.00426966)
(-0.00850409 0.00168444 0.0042284)
(-0.00851808 0.00165947 0.00420115)
(-0.00850028 0.00166916 0.00418307)
(-0.00846225 0.00169296 0.00416298)
(-0.0084098 0.00174752 0.00412982)
(-0.00831228 0.00182472 0.0040778)
(-0.00820291 0.00189369 0.00401197)
(-0.00813348 0.00200363 0.00392458)
(-0.00804905 0.00211305 0.00382706)
(-0.00803106 0.00238191 0.00371915)
(-0.00789497 0.00251341 0.00362019)
(-0.0080292 0.00298639 0.00352156)
(-0.00778644 0.00285341 0.00334983)
(-0.00783656 0.00329838 0.00319406)
(-0.00719574 0.00258749 0.00294335)
(-0.00682016 0.0031535 0.00287282)
(-0.00556259 0.00153258 0.00298783)
(-0.00360389 0.00259276 0.0037671)
(6.13534e-05 -0.00079779 0.00481755)
(0.00432552 0.000655469 0.00674186)
(0.0133497 -0.00604924 0.00634769)
(0.0230856 -0.00950167 0.00872586)
(0.0241822 -0.0225913 0.00918812)
(-0.000265879 -0.0199908 0.0197712)
(-0.0338916 -0.0268357 0.0448198)
(-0.0467176 0.00607861 0.0701687)
(-0.0761038 -0.0290627 0.0831735)
(-0.0524836 -0.0342959 0.132422)
(-0.0449166 -0.138256 0.128839)
(-0.00520397 -0.000540929 -0.118626)
(-0.00016848 -0.210862 0.036185)
(-0.00512587 -0.113106 0.0584018)