/*--------------------------------*- C++ -*----------------------------------*\
| =========                 |                                                 |
| \\      /  F ield         | OpenFOAM: The Open Source CFD Toolbox           |
|  \\    /   O peration     | Version:  2.3.0                                 |
|   \\  /    A nd           | Web:      www.OpenFOAM.org                      |
|    \\/     M anipulation  |                                                 |
\*---------------------------------------------------------------------------*/
FoamFile
{
    version     2.0;
    format      ascii;
    class       volVectorField;
    location    "41";
    object      U.waterMean;
}
// * * * * * * * * * * * * * * * * * * * * * * * * * * * * * * * * * * * * * //

dimensions      [0 1 -1 0 0 0 0];

internalField   nonuniform List<vector> 
6144
(
(0.00903629 0.0190556 -0.000770427)
(0.00916236 6.07563e-05 -0.00141305)
(0.00454506 -0.0014037 -0.00234645)
(0.00435854 -0.00298397 -0.00235135)
(0.00285923 -0.00345431 -0.00200444)
(0.00291254 -0.00218507 -0.00181173)
(0.00242442 -0.00187782 -0.00144726)
(0.00244266 -0.000646716 -0.00116035)
(0.00218141 3.64543e-05 -0.00105521)
(0.00205653 0.00152115 -0.000653481)
(0.0020029 0.00242626 -0.000346512)
(0.00214954 0.00288901 3.4556e-06)
(0.00231142 0.00264399 0.000142703)
(0.00245193 0.00211023 0.000246763)
(0.00251997 0.00140259 7.92846e-05)
(0.00259113 0.000826563 -7.05554e-05)
(0.00262862 0.00030514 -0.000293193)
(0.00267205 -3.13429e-05 -0.000459647)
(0.00270344 -0.000302475 -0.000624158)
(0.00272416 -0.000440919 -0.000732792)
(0.00273469 -0.000533179 -0.000807372)
(0.00273701 -0.000558722 -0.0008436)
(0.00273129 -0.000563041 -0.000855507)
(0.00271983 -0.000545694 -0.000846341)
(0.00270279 -0.000521037 -0.000821504)
(0.00268279 -0.000494935 -0.000784115)
(0.00266041 -0.000472703 -0.000735363)
(0.00263687 -0.000459356 -0.000676723)
(0.0026137 -0.000452306 -0.000616156)
(0.00259101 -0.00046101 -0.000560767)
(0.00257047 -0.000461578 -0.000509293)
(0.00254847 -0.00049804 -0.000469275)
(0.00253176 -0.000469263 -0.000427276)
(0.00250639 -0.000547388 -0.000402935)
(0.00249748 -0.000427648 -0.00035497)
(0.00246434 -0.00061573 -0.000337572)
(0.00246162 -0.000323761 -0.000264177)
(0.00242052 -0.000758396 -0.000245036)
(0.00241919 -0.000178651 -0.000135185)
(0.00237739 -0.00106557 -0.000116891)
(0.00237534 -3.43309e-05 1.30237e-05)
(0.00235306 -0.0016274 2.3864e-05)
(0.00234315 7.02159e-05 0.000123375)
(0.00238789 -0.00252476 8.59133e-05)
(0.00231002 0.000240903 4.00437e-05)
(0.00243075 -0.00357006 -0.000126788)
(0.00224937 0.00116399 -0.000486232)
(0.0024008 -0.00387073 -0.000567597)
(0.00233201 0.00365539 -0.000998767)
(0.00259915 -0.00380155 -0.00112042)
(0.00374988 0.00809102 -0.00177836)
(0.00388505 -0.00880089 -0.00247264)
(0.00498118 0.0133329 -0.00456112)
(0.00484736 -0.0107714 -0.00604816)
(0.00776056 0.0356062 -0.00791992)
(0.0060427 -0.0311885 -0.0114334)
(0.0185543 0.0647407 -0.00228118)
(0.00917441 -0.0720347 -0.0160997)
(-0.0482606 0.095097 -0.0927645)
(0.0213815 -0.105395 -0.122184)
(0.105506 -0.237348 -0.0116093)
(0.0693508 -0.0629514 -0.00532854)
(0.0287034 -0.145124 -0.0056823)
(0.02889 -0.136774 -0.00268251)
(0.0219477 -0.141699 -0.000961138)
(0.0144023 -0.138493 0.000652871)
(0.00981758 -0.142743 0.00145838)
(0.00661857 -0.137301 0.00123164)
(0.004658 -0.134344 0.000338285)
(0.00343989 -0.127233 -0.000483649)
(0.00266783 -0.122766 -0.00101698)
(0.00235806 -0.115536 -0.00139925)
(0.00222407 -0.110335 -0.00164639)
(0.0022673 -0.104287 -0.00172444)
(0.00243604 -0.100064 -0.00173508)
(0.00256835 -0.0959892 -0.00174035)
(0.002652 -0.0928199 -0.00180515)
(0.00271471 -0.0899415 -0.00184427)
(0.00284889 -0.0876453 -0.00191189)
(0.00300322 -0.0856631 -0.00198449)
(0.00317091 -0.0837699 -0.00205143)
(0.00328906 -0.0817482 -0.00212081)
(0.00331664 -0.0795106 -0.00216969)
(0.0032723 -0.0769053 -0.00222188)
(0.00310983 -0.0740022 -0.00229124)
(0.00282006 -0.0706919 -0.00235589)
(0.00235859 -0.0668059 -0.00247655)
(0.00164371 -0.0618757 -0.00252545)
(0.000706905 -0.0556219 -0.00256738)
(-0.00018342 -0.0474808 -0.00234837)
(-0.000247304 -0.0387574 -0.00230146)
(-0.000335657 -0.0297548 -0.00367109)
(-0.00105329 -0.0188467 -0.00384306)
(-0.00240818 -0.00799034 -0.00147805)
(-0.00263917 0.000437856 0.00484217)
(-0.00269373 0.0013305 0.00953573)
(0.0183681 0.0214637 0.00267062)
(0.019085 0.00850551 0.00227731)
(0.0107679 0.00547894 -0.00013654)
(0.01063 0.00324466 0.000536011)
(0.00642297 0.000132251 0.000951716)
(0.00612612 0.000227579 0.00145419)
(0.00420351 -0.000919759 0.00206334)
(0.00393163 0.000415799 0.00195442)
(0.00329404 0.001218 0.00173945)
(0.00328481 0.00304023 0.00188276)
(0.00349889 0.0037825 0.00213384)
(0.00406259 0.00413894 0.00258738)
(0.00446325 0.00367561 0.00277862)
(0.00481555 0.0031121 0.0028987)
(0.00491676 0.0022804 0.00282552)
(0.00503341 0.00161552 0.00276292)
(0.00504356 0.00097234 0.00265271)
(0.00509464 0.000546257 0.00257162)
(0.00511599 0.000181187 0.00247917)
(0.00513435 -2.6517e-05 0.00241735)
(0.00513514 -0.00017811 0.00237035)
(0.00512165 -0.000246261 0.0023586)
(0.00509379 -0.000283035 0.00236936)
(0.0050554 -0.000287036 0.00240192)
(0.00500846 -0.000277495 0.00244852)
(0.00495668 -0.000261573 0.0025063)
(0.00490161 -0.000245731 0.00257123)
(0.00484602 -0.000236019 0.00263785)
(0.00479417 -0.000229222 0.00269828)
(0.0047444 -0.000237199 0.00275109)
(0.00470242 -0.000235192 0.00280044)
(0.00465097 -0.000268449 0.00284133)
(0.00461787 -0.000234567 0.00288689)
(0.00455361 -0.000316577 0.00291715)
(0.00454162 -0.000188046 0.00296752)
(0.00445568 -0.000404909 0.00298817)
(0.00447393 -8.11949e-05 0.00305513)
(0.00436303 -0.000593355 0.003066)
(0.00442012 7.86168e-05 0.00315805)
(0.00429031 -0.000969672 0.00315833)
(0.00439037 0.000268704 0.0032718)
(0.00426557 -0.00161996 0.00326004)
(0.00440219 0.000497612 0.00336591)
(0.00432075 -0.00260239 0.00333208)
(0.00438207 0.000907563 0.0033497)
(0.00431535 -0.00379124 0.00321208)
(0.00412715 0.00199755 0.00285962)
(0.00410861 -0.00448307 0.00266974)
(0.00382523 0.00425289 0.00197645)
(0.00417027 -0.0048449 0.002233)
(0.00653364 0.00729558 0.00109449)
(0.00690694 -0.00850945 2.95131e-05)
(0.00597893 0.0148878 -0.0014295)
(0.00508025 -0.00784834 -0.00109644)
(0.0212149 0.0361126 0.00337641)
(0.0294322 -0.0433445 -0.000198155)
(-0.0131918 0.0274188 0.00216183)
(-0.0132407 -0.020018 -0.0195147)
(0.0193199 0.160208 -0.0299168)
(0.149797 -0.128106 -0.0701942)
(0.154823 -0.217772 0.00213221)
(0.0547283 0.0721814 0.00899276)
(-0.00927065 -0.114212 0.00116884)
(0.00133184 -0.0607926 0.00747868)
(-0.00410769 -0.0861386 0.00849618)
(-0.0099613 -0.0927241 0.0083829)
(-0.0114913 -0.0997949 0.00711122)
(-0.0118506 -0.0970127 0.00605074)
(-0.0109597 -0.0984336 0.00461244)
(-0.00999362 -0.0949722 0.00349977)
(-0.0085898 -0.0935391 0.00272468)
(-0.00713032 -0.0887538 0.0021885)
(-0.00552498 -0.0854486 0.00179378)
(-0.00398308 -0.0810866 0.00151834)
(-0.00247605 -0.078388 0.00129495)
(-0.00120901 -0.0755423 0.00104526)
(0.000123751 -0.0733215 0.000834836)
(0.00134873 -0.0709629 0.000796917)
(0.00212626 -0.0688403 0.000813447)
(0.00237621 -0.0668278 0.000861031)
(0.00233413 -0.0648697 0.000909956)
(0.00218249 -0.0628447 0.000925546)
(0.00205738 -0.0607794 0.00088206)
(0.00198794 -0.0587054 0.000799136)
(0.00188245 -0.0567677 0.000746425)
(0.00151695 -0.0549537 0.000797477)
(0.000701296 -0.0530273 0.000832473)
(-0.000644886 -0.0506408 0.000790901)
(-0.00257369 -0.0473658 0.000438815)
(-0.00444332 -0.0423618 0.000269494)
(-0.00540307 -0.0360805 0.000276256)
(-0.00601978 -0.0285786 -0.000972572)
(-0.00732344 -0.0188187 -0.00130945)
(-0.00905982 -0.0085529 0.00127771)
(-0.0108153 -0.00051077 0.00829363)
(-0.0102905 0.000740258 0.01406)
(0.0219387 0.0221208 0.00376766)
(0.0233529 0.0132113 0.00371718)
(0.0144948 0.00947087 0.00142032)
(0.0142285 0.00826627 0.00231688)
(0.0081924 0.00369321 0.00264139)
(0.00706348 0.00314146 0.00301446)
(0.0036261 0.000580606 0.00359273)
(0.00294915 0.0014785 0.0033868)
(0.00194468 0.00181857 0.00313111)
(0.00226611 0.00342035 0.00323625)
(0.00273773 0.0037733 0.0034011)
(0.00367876 0.00409725 0.00376341)
(0.0041773 0.0036608 0.00392496)
(0.00464397 0.00333039 0.00403895)
(0.00478217 0.00264434 0.00399153)
(0.00492117 0.00210724 0.00396411)
(0.0048802 0.00150435 0.00390864)
(0.00489522 0.0010907 0.00389302)
(0.004842 0.000699089 0.00387946)
(0.00479877 0.000447317 0.003891)
(0.00473111 0.000239988 0.00390915)
(0.00466578 0.000119186 0.00394059)
(0.00459478 3.44293e-05 0.00397574)
(0.00452426 -8.31601e-06 0.00401817)
(0.00445217 -2.94327e-05 0.00406284)
(0.00438112 -3.55933e-05 0.00410914)
(0.00431137 -3.43388e-05 0.004156)
(0.00424284 -3.46142e-05 0.00420327)
(0.00417503 -3.29823e-05 0.00425031)
(0.00410672 -3.61572e-05 0.00429688)
(0.00404334 -3.01954e-05 0.00434317)
(0.00396808 -4.56392e-05 0.00438545)
(0.00391438 -1.44083e-05 0.00443082)
(0.00382416 -8.1052e-05 0.0044676)
(0.00379982 2.2399e-05 0.00451827)
(0.00368148 -0.000177487 0.00454712)
(0.00370679 0.00010135 0.00460619)
(0.00354582 -0.000377294 0.00462354)
(0.00364541 0.000251803 0.00469603)
(0.00343513 -0.000721433 0.004695)
(0.00363448 0.000510175 0.00477861)
(0.0033743 -0.00124566 0.00474627)
(0.00370266 0.000945304 0.00483464)
(0.0034273 -0.00196593 0.00475841)
(0.00377892 0.00170089 0.00481748)
(0.00347366 -0.00296678 0.00468615)
(0.00350999 0.00288493 0.00453179)
(0.00326261 -0.00417567 0.00440722)
(0.00299093 0.00456718 0.00374919)
(0.00367834 -0.00543249 0.00431944)
(0.00598611 0.00650229 0.00310223)
(0.00623623 -0.00643212 0.00221521)
(0.00459394 0.0180053 0.00188208)
(0.00480873 -0.0176572 0.0043274)
(0.0308895 0.0196068 0.00818777)
(0.0424535 -0.0546558 0.00459091)
(-0.0370917 0.0468754 0.0201543)
(-0.0592012 -0.106923 -0.00614208)
(-0.0382376 0.154114 -0.0616658)
(0.15017 -0.140489 -0.0435663)
(0.174931 -0.18498 0.00606045)
(0.075922 0.113064 0.00875626)
(0.0650634 -0.0998829 0.00590825)
(0.0306441 -0.0268906 0.0120355)
(0.00998152 -0.0595752 0.0114221)
(0.00164909 -0.0622172 0.0101215)
(-0.00328256 -0.0674996 0.00768151)
(-0.00722061 -0.0650175 0.00576082)
(-0.00858075 -0.0665069 0.00373462)
(-0.00921206 -0.0626382 0.00223131)
(-0.00855897 -0.060867 0.00110948)
(-0.00737312 -0.0558521 0.000320957)
(-0.0054568 -0.0524991 -0.000273161)
(-0.00364721 -0.047523 -0.000715499)
(-0.00209604 -0.0440492 -0.000634412)
(-0.00111346 -0.0401543 -0.000521549)
(-0.000404001 -0.0365452 -0.000285347)
(0.000228084 -0.0324537 0.000185195)
(0.00103257 -0.029585 0.000819882)
(0.00172568 -0.0280182 0.00170364)
(0.00212739 -0.027821 0.00251452)
(0.00225568 -0.0285419 0.0030521)
(0.00226347 -0.0297806 0.00330768)
(0.00230047 -0.0312053 0.00340202)
(0.00232115 -0.0327046 0.00345385)
(0.00193978 -0.0340874 0.00350109)
(0.000792891 -0.0351685 0.0034885)
(-0.00123753 -0.0357237 0.00318881)
(-0.00414641 -0.0351094 0.00237315)
(-0.00734232 -0.033127 0.00151315)
(-0.00946593 -0.0294083 0.00122438)
(-0.0112719 -0.024581 0.000533901)
(-0.0140229 -0.0167851 0.000736991)
(-0.0173736 -0.00848306 0.00339509)
(-0.020257 -0.00106114 0.00974325)
(-0.022364 -0.000122737 0.0153681)
(0.0235921 0.0225956 0.00384085)
(0.026399 0.0162236 0.00417523)
(0.0164832 0.0114341 0.00114106)
(0.0173202 0.0117192 0.00165387)
(0.010429 0.00626572 0.00178156)
(0.00927377 0.00579669 0.00244386)
(0.00386907 0.00132126 0.00329558)
(0.00233736 0.00164784 0.00319103)
(0.000641577 0.00107784 0.00316265)
(0.00120627 0.00285474 0.00333803)
(0.00176358 0.00300028 0.00360553)
(0.00275526 0.00356484 0.00410599)
(0.00323729 0.00335601 0.00430204)
(0.00373476 0.00330565 0.00443704)
(0.00387081 0.00276859 0.00437687)
(0.00401304 0.00235953 0.00435667)
(0.00393681 0.00179488 0.00431576)
(0.00392981 0.00141971 0.00431844)
(0.00384491 0.001025 0.00431478)
(0.00377822 0.000757171 0.00433161)
(0.00368305 0.000514602 0.00435116)
(0.00359364 0.000356774 0.00438383)
(0.00349571 0.000235557 0.00441802)
(0.00339908 0.00016195 0.00445743)
(0.00330552 0.000115 0.00449986)
(0.00321825 9.19831e-05 0.00454439)
(0.00313647 8.33511e-05 0.00458898)
(0.00305956 8.14817e-05 0.00463281)
(0.0029861 8.61041e-05 0.00467471)
(0.00291431 8.96031e-05 0.00471482)
(0.00284719 0.000101274 0.00475439)
(0.00277478 9.58831e-05 0.00479185)
(0.00272181 0.000125906 0.00483386)
(0.00263987 7.54208e-05 0.00486653)
(0.00261709 0.000169079 0.00491074)
(0.00250798 -5.68655e-06 0.00493276)
(0.00254378 0.000254926 0.00498049)
(0.0023876 -0.000181154 0.00498477)
(0.00251662 0.000424641 0.0050401)
(0.00229555 -0.000474831 0.00501992)
(0.002545 0.000735521 0.00508422)
(0.00224494 -0.000885732 0.00502639)
(0.00263963 0.00128563 0.00509823)
(0.00229031 -0.00139938 0.00498836)
(0.00282194 0.00220578 0.00507546)
(0.00237657 -0.00214416 0.00488467)
(0.00285934 0.00341762 0.0048347)
(0.00233949 -0.00344244 0.00460593)
(0.00252592 0.00454189 0.0042506)
(0.00296815 -0.00574734 0.00466994)
(0.00408469 0.00645982 0.00377711)
(0.00349391 -0.00662837 0.00334797)
(0.00844902 0.014842 0.00511115)
(0.0121174 -0.0260897 0.00659774)
(0.0329237 0.00868394 0.0136829)
(0.0299617 -0.0445717 0.00973508)
(-0.0126797 0.0684981 0.0229931)
(-0.0740056 -0.127669 0.0132867)
(-0.0303909 0.188251 -0.106754)
(0.161174 -0.187466 -0.0254528)
(0.188741 -0.166906 0.00747037)
(0.0745583 0.110823 0.000411675)
(0.0742042 -0.0377982 0.00414925)
(0.000574891 0.0461285 0.0100154)
(-0.00371602 -0.0201916 0.0122697)
(-0.0077481 -0.0111255 0.00792629)
(-0.0104289 -0.0226301 0.00382344)
(-0.0122761 -0.0215417 0.000577561)
(-0.0118833 -0.0225359 -0.00191702)
(-0.0110259 -0.0170701 -0.00347827)
(-0.0096073 -0.0134143 -0.00445528)
(-0.00824095 -0.00536392 -0.00479162)
(-0.00655401 0.00213037 -0.00431261)
(-0.00506873 0.0100769 -0.00258873)
(-0.00378763 0.0149426 -0.000806516)
(-0.00256426 0.0183746 0.000750906)
(-0.00122091 0.0198215 0.00190855)
(0.000364736 0.0198956 0.00287537)
(0.00188343 0.0185066 0.00366741)
(0.00278076 0.0156536 0.00447059)
(0.00309742 0.0119226 0.00505323)
(0.00297747 0.00757131 0.00535893)
(0.00274102 0.00295471 0.0053973)
(0.00251855 -0.00181411 0.00530464)
(0.0022172 -0.00647574 0.0050762)
(0.00134269 -0.0107551 0.00479162)
(-0.000467111 -0.014631 0.00435115)
(-0.00325005 -0.0179057 0.00350182)
(-0.00649639 -0.0200575 0.00224183)
(-0.0097209 -0.0209454 0.00131396)
(-0.0127348 -0.0202288 0.00121662)
(-0.016365 -0.0178083 0.00148653)
(-0.0209367 -0.0127653 0.00253411)
(-0.0252453 -0.00696731 0.00534057)
(-0.0292059 -0.00139129 0.0110444)
(-0.0312211 -0.000458836 0.0157675)
(0.0239484 0.0229643 0.00438135)
(0.0284921 0.0190279 0.00488267)
(0.0178774 0.0125241 0.00102734)
(0.0200742 0.0139792 0.00130484)
(0.0128707 0.00728907 0.000444029)
(0.0123154 0.00779592 0.0010579)
(0.00551488 0.00224531 0.00155058)
(0.00289863 0.00250042 0.00209686)
(-0.000422647 4.03433e-05 0.00253609)
(-0.000359275 0.00173707 0.00298527)
(0.000128189 0.0017305 0.00338066)
(0.000975102 0.00273503 0.0040898)
(0.0013569 0.00281664 0.00431834)
(0.00188555 0.00306335 0.00449345)
(0.00205039 0.00267858 0.00440925)
(0.0021612 0.00236936 0.00440019)
(0.00198273 0.00184921 0.00435841)
(0.00187252 0.00152897 0.00437361)
(0.00169985 0.00116272 0.00436585)
(0.00157206 0.000914689 0.00437147)
(0.00142543 0.000666157 0.00436902)
(0.00130137 0.000491919 0.00437714)
(0.00118175 0.000344331 0.00438889)
(0.00107305 0.000245975 0.00440896)
(0.000971259 0.000178965 0.00443181)
(0.000881022 0.000142065 0.00445803)
(0.000801772 0.000123313 0.00448532)
(0.000731829 0.000117053 0.00451194)
(0.000668536 0.000119607 0.00453625)
(0.00060884 0.000124435 0.00455642)
(0.000552409 0.000138474 0.00457348)
(0.000493334 0.000139304 0.00458714)
(0.00044805 0.000170679 0.00460441)
(0.000379703 0.000132503 0.00461198)
(0.000364666 0.000223845 0.00463549)
(0.000272151 7.08872e-05 0.00463154)
(0.000316363 0.000327395 0.00466118)
(0.000174693 -6.63895e-05 0.00463548)
(0.000311319 0.000533516 0.00467166)
(9.57252e-05 -0.000282476 0.00461695)
(0.000345953 0.000912594 0.0046568)
(4.24925e-05 -0.000551524 0.0045625)
(0.000421942 0.00157124 0.00459912)
(8.13886e-05 -0.000815371 0.00446461)
(0.000613606 0.00259291 0.00450966)
(0.000300685 -0.00120824 0.00434004)
(0.000899383 0.00378254 0.0043261)
(0.00073384 -0.00238927 0.00409996)
(0.0012239 0.00454171 0.00377405)
(0.00145162 -0.00509412 0.00376671)
(0.00232889 0.00655103 0.00283351)
(0.00266665 -0.00780801 0.00454339)
(0.0119511 0.00941058 0.00910914)
(0.0148975 -0.025701 0.0139003)
(0.0261858 0.0124251 0.0300426)
(0.0164036 -0.0455703 0.0294943)
(-0.0031089 0.0482324 0.0562192)
(-0.0966369 -0.130045 0.0468357)
(0.00125999 0.150356 -0.161312)
(0.117125 -0.231301 -0.00729593)
(0.170686 -0.123391 0.010812)
(0.0655887 0.118051 -0.00686229)
(0.0723505 0.0244839 0.00329054)
(0.021535 0.0789683 0.00334103)
(0.020634 0.0315238 0.00489659)
(0.0027253 0.0398142 0.000369607)
(-0.00125226 0.0323482 -0.00287372)
(-0.0047554 0.037787 -0.00463913)
(-0.00567439 0.0406543 -0.00599225)
(-0.0066482 0.0493125 -0.00600232)
(-0.00686141 0.0550776 -0.00501148)
(-0.00694555 0.062974 -0.0030995)
(-0.00618685 0.0675398 -0.000876301)
(-0.00518474 0.0712244 0.00141427)
(-0.00381722 0.0722257 0.00328652)
(-0.00221795 0.0721528 0.00480347)
(-0.000367149 0.0699264 0.00586066)
(0.00155422 0.0664334 0.00662624)
(0.00326487 0.0618204 0.00717211)
(0.00436957 0.0559264 0.00757179)
(0.00492349 0.0494095 0.00772074)
(0.00516651 0.0423371 0.00759719)
(0.00532368 0.0351507 0.00716848)
(0.00542903 0.0277641 0.00666108)
(0.00519732 0.0203764 0.00603355)
(0.00427681 0.0132791 0.00537439)
(0.00244835 0.00663948 0.00436762)
(-0.000299431 0.000658049 0.00303098)
(-0.00380954 -0.00394184 0.0017561)
(-0.00800195 -0.00700644 0.00106577)
(-0.0127147 -0.00878355 0.00118788)
(-0.0187278 -0.00882993 0.00176123)
(-0.0255816 -0.00662011 0.00386477)
(-0.0315634 -0.00345797 0.0068854)
(-0.0377169 -0.000199225 0.0110817)
(-0.0436637 -0.000730919 0.0150709)
(0.0223983 0.0230275 0.00680016)
(0.0296209 0.0218459 0.00618202)
(0.0182114 0.0133101 0.0016998)
(0.0218859 0.0160248 0.00230207)
(0.0148366 0.00713022 0.000188283)
(0.0148446 0.00881129 0.000352745)
(0.00775539 0.00228225 -0.000179202)
(0.00463169 0.00345123 0.000619754)
(6.86262e-06 -0.000424231 0.00157279)
(-0.00129158 0.000684492 0.00231183)
(-0.00130166 4.16943e-06 0.00282446)
(-0.000524002 0.00138638 0.00380129)
(3.50986e-05 0.0018155 0.00417607)
(0.000730053 0.00247307 0.00454565)
(0.00103041 0.00223338 0.00458887)
(0.00117149 0.00206456 0.00467252)
(0.000926578 0.00160553 0.00463365)
(0.000743342 0.00139137 0.00464437)
(0.000512014 0.00111756 0.00460263)
(0.000346351 0.000965847 0.00456696)
(0.000175755 0.000784874 0.00451038)
(3.63239e-05 0.000658515 0.0044611)
(-9.49421e-05 0.000537294 0.00441309)
(-0.00020752 0.000451246 0.0043736)
(-0.000303552 0.000387675 0.00433846)
(-0.000379452 0.00035232 0.00430971)
(-0.000439623 0.000333987 0.00428556)
(-0.00048768 0.000330214 0.00426372)
(-0.000528524 0.000334683 0.00424317)
(-0.000566993 0.000340786 0.00422293)
(-0.00060188 0.000353854 0.004205)
(-0.000638419 0.000354606 0.00418787)
(-0.000661329 0.00038495 0.00417793)
(-0.000704269 0.000354709 0.00416041)
(-0.000695327 0.000449769 0.00416371)
(-0.000765312 0.000325145 0.00413246)
(-0.000696375 0.000587032 0.00415159)
(-0.00081725 0.000248927 0.0040949)
(-0.000655114 0.000837132 0.00413554)
(-0.000846485 0.000112463 0.0040467)
(-0.000593909 0.00125712 0.00409733)
(-0.000857559 -5.44418e-05 0.0039653)
(-0.000556175 0.00194159 0.00399637)
(-0.000756319 -0.000204802 0.00385936)
(-0.000412052 0.00292117 0.00387912)
(-0.00035851 -0.000493528 0.00384719)
(0.000101132 0.0040716 0.00394236)
(0.000450198 -0.00169069 0.00395612)
(0.000979159 0.00480223 0.00396951)
(0.00111272 -0.00447157 0.00362282)
(0.00222059 0.00648194 0.00296678)
(0.00404656 -0.00846748 0.00532642)
(0.0115628 0.00794636 0.0119563)
(0.0103067 -0.014999 0.0199945)
(0.0125775 0.0174378 0.0421187)
(-0.00477501 -0.0303201 0.0508957)
(0.0109413 0.0313475 0.0884835)
(-0.0762254 -0.120632 0.0775336)
(0.0296464 0.0501829 -0.16765)
(0.0709348 -0.244843 -0.00182668)
(0.136878 -0.0735583 0.00707903)
(0.0527267 0.135609 -0.00942297)
(0.0568622 0.0868684 0.00297776)
(0.0235524 0.123119 0.00219687)
(0.0181028 0.107426 0.00203611)
(0.00545453 0.112911 -0.00103146)
(0.00175233 0.109368 -0.00202607)
(-0.00203324 0.114913 -0.00256565)
(-0.00370866 0.116368 -0.00183122)
(-0.00574116 0.12203 -0.000443396)
(-0.00688989 0.123989 0.00135005)
(-0.00705169 0.127646 0.00321647)
(-0.00643766 0.127529 0.00510746)
(-0.00545593 0.12719 0.00672428)
(-0.00437135 0.124565 0.00800352)
(-0.00176692 0.121512 0.00890889)
(0.000802328 0.117025 0.00939763)
(0.00346344 0.111556 0.00957477)
(0.00583849 0.105222 0.00956266)
(0.00740526 0.0975261 0.00935401)
(0.00802624 0.0890257 0.00908476)
(0.0081259 0.0798126 0.00868116)
(0.0082525 0.0706117 0.00803788)
(0.00844792 0.0609798 0.00739897)
(0.00818517 0.0511178 0.0066247)
(0.00698177 0.0410923 0.00576554)
(0.00459415 0.0314885 0.004608)
(0.00102493 0.0223886 0.0033505)
(-0.00327658 0.0148326 0.00227087)
(-0.00800001 0.00878673 0.00141891)
(-0.0136067 0.00405642 0.00149592)
(-0.0213148 0.000949598 0.00187085)
(-0.0303483 -0.000639676 0.00547334)
(-0.0371779 -0.00122686 0.0091038)
(-0.0426411 -7.7042e-05 0.0120208)
(-0.0475959 -0.000675986 0.0128759)
(0.018375 0.0222039 0.00672464)
(0.0290996 0.0255425 0.00788203)
(0.0162648 0.0135667 0.00326506)
(0.0215299 0.0182469 0.00501121)
(0.01464 0.00641211 0.00195902)
(0.0155139 0.00890517 0.001973)
(0.00877829 0.00101507 0.000156493)
(0.00565278 0.00341066 9.05572e-05)
(0.000561835 -0.0005927 0.000957886)
(-0.00176516 0.000527895 0.00201292)
(-0.00289054 -0.00112184 0.00248495)
(-0.00316558 0.000347103 0.0034715)
(-0.00298294 0.000862704 0.0039877)
(-0.00206012 0.00172714 0.00469675)
(-0.00167209 0.00157603 0.00499765)
(-0.00154244 0.00160288 0.00523816)
(-0.00194104 0.00125869 0.00520587)
(-0.00230224 0.00118853 0.00516921)
(-0.00266101 0.00102938 0.00505688)
(-0.00288867 0.00100434 0.00495462)
(-0.00308055 0.000930868 0.00483291)
(-0.0032131 0.000903756 0.00472763)
(-0.0033193 0.000858457 0.00462916)
(-0.00340283 0.000831464 0.00455114)
(-0.0034704 0.000810149 0.00448981)
(-0.00351567 0.00080044 0.00443966)
(-0.00354 0.000796174 0.00439634)
(-0.00354588 0.00079876 0.0043609)
(-0.00353925 0.000803997 0.00433412)
(-0.00352726 0.00080811 0.00431385)
(-0.00351544 0.00081567 0.00429925)
(-0.00350581 0.000814795 0.00428855)
(-0.00349515 0.000835961 0.0042843)
(-0.00349803 0.000816191 0.00427773)
(-0.0034719 0.000904792 0.00428629)
(-0.0034902 0.000816124 0.00427226)
(-0.00342363 0.00106023 0.00429803)
(-0.00346241 0.000794609 0.00426638)
(-0.00334023 0.00133399 0.00431789)
(-0.0034079 0.000724592 0.00426698)
(-0.00327505 0.00176321 0.00431974)
(-0.00335547 0.000594155 0.00424223)
(-0.00326305 0.00238861 0.0042524)
(-0.00318448 0.000327625 0.00419039)
(-0.00316051 0.00320604 0.00413485)
(-0.00270466 -0.000213815 0.00416171)
(-0.00251059 0.00419986 0.00420445)
(-0.00167455 -0.00155918 0.00444768)
(-0.00135481 0.0050209 0.00465047)
(-0.000625619 -0.00408347 0.00431763)
(2.90593e-05 0.00640529 0.00356771)
(0.00294793 -0.00781719 0.004575)
(0.00363003 0.00779475 0.0108436)
(-4.43882e-06 -0.0148733 0.0168983)
(-0.00526926 0.0115852 0.0379596)
(-0.0187751 -0.0363573 0.0526777)
(0.00350269 -0.0108064 0.0903662)
(-0.0324362 -0.115054 0.0874802)
(0.0277844 -0.0506596 -0.164152)
(0.0363491 -0.261192 -0.000241721)
(0.0711246 -0.0110169 0.00482093)
(0.0279026 0.17393 -0.00880535)
(0.0330796 0.158199 0.00431142)
(0.0185317 0.188366 0.00566142)
(0.0150363 0.183675 0.00735268)
(0.00742736 0.189296 0.0054985)
(0.00330615 0.186051 0.00561727)
(-0.000776817 0.188383 0.00559495)
(-0.00347357 0.185715 0.006501)
(-0.00565731 0.186061 0.00734821)
(-0.0066614 0.183069 0.00841498)
(-0.00711918 0.182289 0.00890062)
(-0.0064273 0.178175 0.00962991)
(-0.00532813 0.174603 0.0100677)
(-0.00325323 0.169172 0.0108822)
(-0.000723039 0.16416 0.0106842)
(0.00260154 0.159311 0.0108145)
(0.00611373 0.153259 0.0106799)
(0.00963079 0.147111 0.0106358)
(0.0125793 0.140375 0.0104677)
(0.0148651 0.132886 0.010373)
(0.0164173 0.124534 0.0102597)
(0.0174552 0.115381 0.010119)
(0.0180087 0.105376 0.00983312)
(0.0181247 0.0948524 0.00912833)
(0.0171688 0.0839083 0.00841112)
(0.0146662 0.0721183 0.00708809)
(0.0105851 0.0597717 0.00557999)
(0.00512896 0.0472159 0.00363063)
(-0.00103035 0.0352382 0.00180327)
(-0.008168 0.0249572 0.00163748)
(-0.0179337 0.0158773 0.00227055)
(-0.0306001 0.00881872 0.00496166)
(-0.0415827 0.00297823 0.00878106)
(-0.0513083 2.58525e-05 0.0104908)
(-0.0610155 -0.0019821 0.00948646)
(0.015072 0.0180295 0.0052518)
(0.0273329 0.0289557 0.00824526)
(0.012596 0.0134844 0.00407178)
(0.0194748 0.0210015 0.00677204)
(0.0129434 0.00646723 0.00369388)
(0.0144079 0.00957852 0.00381459)
(0.00773282 -4.67236e-05 0.0014897)
(0.004787 0.00299265 0.000502091)
(7.38288e-05 -0.000946655 0.00124298)
(-0.00220462 0.000774842 0.0022956)
(-0.00376066 -0.00154843 0.00283757)
(-0.00437558 -0.000472139 0.00381765)
(-0.00393906 -0.000759765 0.00469943)
(-0.00284261 5.8311e-05 0.00564711)
(-0.00243063 -2.51014e-05 0.00627932)
(-0.00232797 0.000505532 0.00678273)
(-0.00268284 0.000584214 0.0069631)
(-0.00298269 0.000916847 0.00701849)
(-0.00329639 0.00101132 0.00693079)
(-0.00348367 0.00119152 0.00681833)
(-0.00364478 0.00124668 0.0066731)
(-0.00374188 0.00131231 0.0065458)
(-0.0038136 0.00132665 0.00642803)
(-0.00385887 0.00133964 0.00633286)
(-0.00388423 0.00133982 0.00625537)
(-0.0038854 0.00133997 0.00619636)
(-0.00387048 0.0013398 0.00614761)
(-0.00383971 0.00133793 0.00611007)
(-0.00380051 0.00133126 0.00608177)
(-0.00375747 0.00132357 0.00606266)
(-0.00371521 0.00132145 0.00605176)
(-0.0036731 0.0013169 0.00604676)
(-0.00363671 0.0013327 0.00604627)
(-0.00361115 0.00132181 0.00604313)
(-0.00357318 0.00140733 0.00604486)
(-0.00356131 0.0013435 0.00602569)
(-0.00349811 0.00157555 0.00602871)
(-0.00349896 0.00134874 0.00598233)
(-0.0033953 0.00185184 0.00599761)
(-0.00340088 0.00128902 0.00592707)
(-0.0032958 0.00225035 0.00595103)
(-0.00324833 0.00111987 0.00585838)
(-0.00320018 0.00280724 0.00586982)
(-0.00294087 0.000707567 0.00579355)
(-0.00305336 0.00350592 0.00573851)
(-0.00238504 -0.000180509 0.00576263)
(-0.00243608 0.00431567 0.00576426)
(-0.00142492 -0.0018246 0.00603979)
(-0.0016122 0.00545686 0.00637768)
(-0.000728216 -0.00420265 0.00581751)
(-0.000798011 0.007655 0.00544575)
(0.00368649 -0.0078521 0.00592518)
(0.00302728 0.00845974 0.0113053)
(-0.000728242 -0.0173003 0.016836)
(-0.0133812 0.00856094 0.0374082)
(-0.0201724 -0.040728 0.052625)
(-0.00886981 -0.0222223 0.0903265)
(0.0145552 -0.100764 0.0868829)
(0.00109023 -0.0783003 -0.149509)
(-0.00311104 -0.25781 -0.0002614)
(-0.0103091 0.0215853 0.00165468)
(-0.00307387 0.196164 -0.00850266)
(0.00349741 0.192764 0.00641468)
(0.00776863 0.223594 0.00931114)
(0.00736136 0.221159 0.0115372)
(0.00510854 0.227555 0.0106272)
(0.00204791 0.223406 0.0108917)
(-0.000433676 0.224474 0.0107943)
(-0.00308171 0.219771 0.0113405)
(-0.00434455 0.217908 0.0116885)
(-0.00526293 0.213063 0.0121955)
(-0.00550031 0.209434 0.0124543)
(-0.00484262 0.204164 0.0127956)
(-0.00315842 0.199131 0.0127893)
(-4.13074e-05 0.193457 0.0129163)
(0.00286346 0.188078 0.0125301)
(0.00640507 0.183039 0.0123833)
(0.0101686 0.178566 0.012412)
(0.0140452 0.174499 0.0127796)
(0.0176032 0.171012 0.0131718)
(0.0208186 0.167609 0.0134894)
(0.0232314 0.164493 0.0136617)
(0.0244089 0.161227 0.0137482)
(0.024897 0.157694 0.0137984)
(0.0248783 0.153544 0.0139534)
(0.0239605 0.148669 0.0148538)
(0.022327 0.142252 0.0156441)
(0.0194286 0.13444 0.0160248)
(0.0151785 0.124037 0.0158842)
(0.00944113 0.11186 0.0150116)
(0.00189718 0.0990124 0.0140486)
(-0.00891196 0.0850989 0.0128745)
(-0.0245739 0.068935 0.0114847)
(-0.0374118 0.0520042 0.0106195)
(-0.050532 0.0308489 0.00215053)
(-0.0616367 0.00871056 -0.0160431)
(0.00345744 0.015002 -0.00591127)
(0.0247445 0.0308478 0.00574834)
(0.00685816 0.013374 0.0018886)
(0.0158947 0.0243228 0.00522016)
(0.0097345 0.00773745 0.00273812)
(0.0119769 0.0114503 0.00318263)
(0.00592231 0.000325228 0.000450293)
(0.00307751 0.00343865 -0.00184043)
(-0.00167994 -0.000796926 -0.00185311)
(-0.00355552 0.00125959 -0.0011333)
(-0.0052886 -0.00161454 -0.000436406)
(-0.00631471 -0.00087315 0.000305727)
(-0.00691188 -0.00201621 0.00118269)
(-0.00638939 -0.00116697 0.00208978)
(-0.00653032 -0.00104431 0.00286188)
(-0.00666796 -0.00014734 0.00346261)
(-0.00718029 0.000179284 0.0038707)
(-0.00751795 0.000740055 0.00411125)
(-0.00783719 0.000965932 0.00418788)
(-0.00797598 0.00125325 0.00419276)
(-0.00805585 0.00137991 0.00414542)
(-0.00807779 0.00150187 0.00409702)
(-0.00807685 0.00155661 0.00404903)
(-0.00805718 0.00159603 0.00401145)
(-0.00802242 0.00161278 0.0039809)
(-0.00796915 0.00162208 0.00395912)
(-0.00789909 0.00162547 0.00394275)
(-0.00781189 0.00162561 0.00393189)
(-0.00772145 0.00162262 0.00392382)
(-0.0076391 0.00161874 0.00391899)
(-0.00756658 0.0016198 0.00391769)
(-0.00749681 0.0016214 0.00391956)
(-0.00744173 0.00163998 0.00392348)
(-0.00739305 0.00163929 0.00392496)
(-0.00734697 0.00171945 0.00392402)
(-0.0072892 0.00167487 0.00390876)
(-0.00723934 0.00188546 0.00389336)
(-0.00714998 0.00169786 0.00385473)
(-0.00710931 0.00217133 0.00382764)
(-0.00696094 0.00168371 0.00377872)
(-0.00702573 0.00260327 0.00374871)
(-0.00678446 0.00151028 0.00369401)
(-0.00697826 0.00310774 0.00366008)
(-0.00647802 0.00100245 0.00360673)
(-0.0067493 0.00374006 0.0035234)
(-0.00591262 5.92308e-08 0.0034858)
(-0.00604126 0.00457708 0.00339389)
(-0.00515038 -0.00170669 0.00346089)
(-0.00545505 0.00598951 0.00387654)
(-0.00457256 -0.00469696 0.00319046)
(-0.00452317 0.00777841 0.00383392)
(0.00106148 -0.00960476 0.00549526)
(-0.00225951 0.0093221 0.00852577)
(-0.00619987 -0.0183065 0.0118823)
(-0.0219162 0.01576 0.0284449)
(-0.0201191 -0.0533463 0.0418154)
(-0.0260361 -0.0215874 0.0710758)
(0.0479574 -0.128272 0.0736682)
(-0.0322356 -0.0250923 -0.163897)